# vtk DataFile Version 2.0
tracks
ASCII
DATASET POLYDATA
POINTS 12020 float
-0.0206 0.000999964 1e-05 -0.02058 0.000999966 1e-05 -0.02056 0.000999971 1e-05 -0.02054 0.000999978
1e-05 -0.02052 0.000999988 1e-05 -0.0205 0.001 1e-05 -0.0202034 0.00100018 1e-05
-0.0199069 0.00100064 1e-05 -0.0196103 0.00100136 1e-05 -0.0193137 0.00100235 1e-05 -0.0190172
0.00100361 1e-05 -0.0187132 0.00100511 1e-05 -0.0184093 0.00100669 1e-05 -0.0181054 0.00100835
1e-05 -0.0178015 0.00101009 1e-05 -0.0174976 0.0010119 1e-05 -0.0172058 0.00101372 1e-05
-0.016914 0.00101557 1e-05 -0.0166222 0.00101747 1e-05 -0.0163305 0.00101941 1e-05 -0.0160387
0.00102138 1e-05 -0.0158817 0.00102247 1e-05 -0.0157247 0.00102356 1e-05 -0.0155677 0.00102467
1e-05 -0.0154107 0.00102578 1e-05 -0.015265 0.00102682 1e-05 -0.0151396 0.00102772 1e-05
-0.0150142 0.00102863 1e-05 -0.0148889 0.00102954 1e-05 -0.0147635 0.00103046 1e-05 -0.0146381
0.00103138 1e-05 -0.0143692 0.00103338 1e-05 -0.0141002 0.00103539 1e-05 -0.0138313 0.00103744
1e-05 -0.0135624 0.0010395 1e-05 -0.0132934 0.00104159 1e-05 -0.0130353 0.00104362 1e-05
-0.0127771 0.00104565 1e-05 -0.0125189 0.00104768 1e-05 -0.0122607 0.00104971 1e-05 -0.0120025
0.00105173 1e-05 -0.0117547 0.00105368 1e-05 -0.0115068 0.00105561 1e-05 -0.0112589 0.00105752
1e-05 -0.0110111 0.00105942 1e-05 -0.0107632 0.00106131 1e-05 -0.0105252 0.00106311 1e-05
-0.0102873 0.00106489 1e-05 -0.0100493 0.00106665 1e-05 -0.00981133 0.00106839 1e-05 -0.00957337
0.00107012 1e-05 -0.00934491 0.00107177 1e-05 -0.00911645 0.00107338 1e-05 -0.00888799 0.00107498
1e-05 -0.00865954 0.00107655 1e-05 -0.00843108 0.0010781 1e-05 -0.00821175 0.00107958 1e-05
-0.00799242 0.00108103 1e-05 -0.00777309 0.00108245 1e-05 -0.00755376 0.00108385 1e-05 -0.00733443
0.00108524 1e-05 -0.00712387 0.00108656 1e-05 -0.0069133 0.00108786 1e-05 -0.00670273 0.00108913
1e-05 -0.00649216 0.0010904 1e-05 -0.0062816 0.00109165 1e-05 -0.00607944 0.00109286 1e-05
-0.00587729 0.00109404 1e-05 -0.00567514 0.00109521 1e-05 -0.00547298 0.00109637 1e-05 -0.00527083
0.00109752 1e-05 -0.00507675 0.00109863 1e-05 -0.00488267 0.00109971 1e-05 -0.0046886 0.00110078
1e-05 -0.00449452 0.00110183 1e-05 -0.00430044 0.00110288 1e-05 -0.00411412 0.00110389 1e-05
-0.0039278 0.00110487 1e-05 -0.00374147 0.00110584 1e-05 -0.00355515 0.0011068 1e-05 -0.00336883
0.00110776 1e-05 -0.00318995 0.00110868 1e-05 -0.00301107 0.00110958 1e-05 -0.00283219 0.00111047
1e-05 -0.00265331 0.00111134 1e-05 -0.00247443 0.00111221 1e-05 -0.0023027 0.00111304 1e-05
-0.00213097 0.00111385 1e-05 -0.00195924 0.00111463 1e-05 -0.0017875 0.0011154 1e-05 -0.00161577
0.00111615 1e-05 -0.0014509 0.00111687 1e-05 -0.00128603 0.00111756 1e-05 -0.00112116 0.00111822
1e-05 -0.000956289 0.00111886 1e-05 -0.000791418 0.00111948 1e-05 -0.000633135 0.00112006 1e-05
-0.000474851 0.00112062 1e-05 -0.000316567 0.00112116 1e-05 -0.000158283 0.00112168 1e-05 0
0.00112219 1e-05 0.000105677 0.00112252 1e-05 0.000211355 0.00112284 1e-05 0.000317032 0.00112316
1e-05 0.00042271 0.00112347 1e-05 0.000528387 0.00112377 1e-05 0.000634886 0.00112408 1e-05
0.000741385 0.00112438 1e-05 0.000847885 0.00112468 1e-05 0.000954384 0.00112498 1e-05 0.00106088
0.00112527 1e-05 0.00116821 0.00112557 1e-05 0.00127554 0.00112586 1e-05 0.00138286 0.00112615
1e-05 0.00149019 0.00112643 1e-05 0.00159752 0.00112671 1e-05 0.00170568 0.00112699 1e-05
0.00181384 0.00112725 1e-05 0.001922 0.00112751 1e-05 0.00203016 0.00112777 1e-05 0.00213833
0.00112801 1e-05 0.00224733 0.00112826 1e-05 0.00235633 0.0011285 1e-05 0.00246533 0.00112873
1e-05 0.00257434 0.00112895 1e-05 0.00268334 0.00112916 1e-05 0.00279319 0.00112938 1e-05
0.00290304 0.00112959 1e-05 0.00301289 0.00112979 1e-05 0.00312274 0.00112999 1e-05 0.00323259
0.00113018 1e-05 0.00334329 0.00113037 1e-05 0.003454 0.00113055 1e-05 0.0035647 0.00113073
1e-05 0.0036754 0.00113091 1e-05 0.00378611 0.00113108 1e-05 0.00389767 0.00113125 1e-05
0.00400924 0.00113141 1e-05 0.0041208 0.00113157 1e-05 0.00423237 0.00113173 1e-05 0.00434393
0.00113188 1e-05 0.00445636 0.00113203 1e-05 0.00456879 0.00113217 1e-05 0.00468123 0.00113231
1e-05 0.00479366 0.00113245 1e-05 0.00490609 0.00113258 1e-05 0.0050194 0.00113271 1e-05
0.0051327 0.00113284 1e-05 0.00524601 0.00113296 1e-05 0.00535931 0.00113308 1e-05 0.00547262
0.00113319 1e-05 0.00558681 0.0011333 1e-05 0.005701 0.00113341 1e-05 0.00581518 0.00113351
1e-05 0.00592937 0.00113361 1e-05 0.00604356 0.0011337 1e-05 0.00615863 0.00113379 1e-05
0.00627371 0.00113388 1e-05 0.00638878 0.00113396 1e-05 0.00650386 0.00113404 1e-05 0.00661893
0.00113412 1e-05 0.0067349 0.00113419 1e-05 0.00685087 0.00113426 1e-05 0.00696684 0.00113432
1e-05 0.00708281 0.00113438 1e-05 0.00719878 0.00113443 1e-05 0.00731565 0.00113448 1e-05
0.00743252 0.00113453 1e-05 0.00754939 0.00113457 1e-05 0.00766626 0.00113461 1e-05 0.00778313
0.00113464 1e-05 0.00790091 0.00113466 1e-05 0.00801869 0.00113469 1e-05 0.00813647 0.0011347
1e-05 0.00825425 0.00113471 1e-05 0.00837203 0.00113472 1e-05 0.00849073 0.00113471 1e-05
0.00860942 0.00113471 1e-05 0.00872812 0.00113469 1e-05 0.00884682 0.00113467 1e-05 0.00896551
0.00113465 1e-05 0.00905277 0.00113462 1e-05 0.00914003 0.00113459 1e-05 0.00922729 0.00113456
1e-05 0.00931455 0.00113452 1e-05 0.00939852 0.00113448 1e-05 0.00943154 0.00113447 1e-05
0.00946455 0.00113445 1e-05 0.00949757 0.00113443 1e-05 0.00953059 0.00113441 1e-05 0.0095636
0.00113439 1e-05 0.00968415 0.00113431 1e-05 0.0098047 0.00113423 1e-05 0.00992525 0.00113414
1e-05 0.0100458 0.00113403 1e-05 0.0101663 0.00113392 1e-05 0.0102878 0.00113379 1e-05
0.0104093 0.00113365 1e-05 0.0105308 0.00113351 1e-05 0.0106523 0.00113335 1e-05 0.0107738
0.00113318 1e-05 0.0108962 0.00113299 1e-05 0.0110186 0.00113279 1e-05 0.0111411 0.00113258
1e-05 0.0112635 0.00113236 1e-05 0.0113859 0.00113213 1e-05 0.0115093 0.00113186 1e-05
0.0116327 0.00113159 1e-05 0.0117561 0.00113131 1e-05 0.0118795 0.00113102 1e-05 0.0120028
0.00113071 1e-05 0.0121272 0.00113036 1e-05 0.0122515 0.00113002 1e-05 0.0123759 0.00112966
1e-05 0.0125002 0.00112928 1e-05 0.0126245 0.00112889 1e-05 0.0127498 0.00112846 1e-05
0.0128752 0.00112802 1e-05 0.0130005 0.00112757 1e-05 0.0131258 0.00112711 1e-05 0.0132511
0.00112663 1e-05 0.0133774 0.00112611 1e-05 0.0135036 0.00112558 1e-05 0.0136299 0.00112504
1e-05 0.0137562 0.00112448 1e-05 0.0138825 0.00112391 1e-05 0.0140098 0.00112329 1e-05
0.014137 0.00112267 1e-05 0.0142643 0.00112203 1e-05 0.0143915 0.00112138 1e-05 0.0145188
0.00112071 1e-05 0.0146471 0.00112 1e-05 0.0147753 0.00111929 1e-05 0.0149036 0.00111855
1e-05 0.0150318 0.0011178 1e-05 0.0151601 0.00111704 1e-05 0.0152893 0.00111624 1e-05
0.0154186 0.00111542 1e-05 0.0155478 0.0011146 1e-05 0.0156771 0.00111375 1e-05 0.0158063
0.00111289 1e-05 0.0159366 0.00111201 1e-05 0.0160668 0.0011111 1e-05 0.0161971 0.00111019
1e-05 0.0163273 0.00110926 1e-05 0.0164576 0.00110831 1e-05 0.0165889 0.00110734 1e-05
0.0167201 0.00110636 1e-05 0.0168514 0.00110536 1e-05 0.0169827 0.00110435 1e-05 0.0171139
0.00110333 1e-05 0.0172462 0.00110229 1e-05 0.0173785 0.00110124 1e-05 0.0175108 0.00110017
1e-05 0.0176431 0.00109909 1e-05 0.0177754 0.00109801 1e-05 0.0179087 0.00109691 1e-05
0.018042 0.0010958 1e-05 0.0181753 0.00109467 1e-05 0.0183087 0.00109353 1e-05 0.018442
0.00109239 1e-05 0.0185763 0.00109125 1e-05 0.0187107 0.00109009 1e-05 0.018845 0.00108892
1e-05 0.0189794 0.00108773 1e-05 0.0191137 0.00108656 1e-05 0.0192491 0.00108539 1e-05
0.0193845 0.0010842 1e-05 0.0195199 0.00108299 1e-05 0.0196553 0.00108177 1e-05 0.0197907
0.00108057 1e-05 0.0199272 0.00107938 1e-05 0.0200636 0.00107817 1e-05 0.0202001 0.00107694
1e-05 0.0203365 0.0010757 1e-05 0.020473 0.00107449 1e-05 0.0206105 0.0010733 1e-05
0.020748 0.00107208 1e-05 0.0208855 0.00107084 1e-05 0.021023 0.0010696 1e-05 0.0211606
0.00106839 1e-05 0.0212991 0.0010672 1e-05 0.0214377 0.00106599 1e-05 0.0215763 0.00106476
1e-05 0.0217149 0.00106352 1e-05 0.0218535 0.00106233 1e-05 0.0219931 0.00106116 1e-05
0.0221328 0.00105996 1e-05 0.0222724 0.00105874 1e-05 0.0224121 0.00105752 1e-05 0.0225517
0.00105635 1e-05 0.0226925 0.00105521 1e-05 0.0228332 0.00105404 1e-05 0.022974 0.00105284
1e-05 0.0231147 0.00105165 1e-05 0.0232555 0.0010505 1e-05 0.0233973 0.00104939 1e-05
0.0235391 0.00104825 1e-05 0.023681 0.00104708 1e-05 0.0238228 0.00104592 1e-05 0.0239647
0.00104481 1e-05 0.0241076 0.00104373 1e-05 0.0242505 0.00104262 1e-05 0.0243935 0.00104148
1e-05 0.0245364 0.00104035 1e-05 0.0246794 0.00103927 1e-05 0.0248234 0.00103823 1e-05
0.0249675 0.00103715 1e-05 0.0251115 0.00103604 1e-05 0.0252556 0.00103494 1e-05 0.0253996
0.00103388 1e-05 0.0255448 0.00103287 1e-05 0.02569 0.00103182 1e-05 0.0258351 0.00103074
1e-05 0.0259803 0.00102966 1e-05 0.0261255 0.00102863 1e-05 0.0262718 0.00102764 1e-05
0.0264181 0.0010266 1e-05 0.0265644 0.00102554 1e-05 0.0267107 0.00102449 1e-05 0.026857
0.00102347 1e-05 0.0270044 0.00102248 1e-05 0.0271519 0.00102146 1e-05 0.0272993 0.0010204
1e-05 0.0274468 0.00101936 1e-05 0.0275942 0.00101833 1e-05 0.0277428 0.00101735 1e-05
0.0278914 0.00101631 1e-05 0.0280399 0.00101526 1e-05 0.0281885 0.0010142 1e-05 0.0283371
0.00101316 1e-05 0.0284869 0.00101216 1e-05 0.0286366 0.0010111 1e-05 0.0287863 0.00101003
1e-05 0.0289361 0.00100895 1e-05 0.0290858 0.00100788 1e-05 0.0292367 0.00100684 1e-05
0.0293876 0.00100575 1e-05 0.0295385 0.00100464 1e-05 0.0296894 0.00100352 1e-05 0.0298403
0.0010024 1e-05 0.0299924 0.00100131 1e-05 0.0301445 0.00100017 1e-05 0.0302966 0.000999009
1e-05 0.0304486 0.00099784 1e-05 0.0306007 0.000996664 1e-05 0.030754 0.000995508 1e-05
0.0309072 0.000994295 1e-05 0.0310605 0.00099307 1e-05 0.0312138 0.000991833 1e-05 0.031367
0.000990585 1e-05 0.0315215 0.000989349 1e-05 0.0316759 0.000988061 1e-05 0.0318304 0.000986759
1e-05 0.0319848 0.000985442 1e-05 0.0321393 0.000984111 1e-05 0.0322949 0.000982784 1e-05
0.0324506 0.00098141 1e-05 0.0326062 0.000980019 1e-05 0.0327619 0.000978612 1e-05 0.0329175
[...]
POINT_DATA 12020
FIELD attributes 4
age 1 12020 float
-9.99938e-06 -7.99942e-06 -5.9995e-06 -3.99963e-06 -1.99979e-06 0 2.96537e-05 5.92933e-05 8.89185e-05 0.000118529 0.000148126
0.000178422 0.000208709 0.000238971 0.00026921 0.000299425 0.000328393 0.000357352 0.00038629 0.000415207 0.000444105
0.000459638 0.000475169 0.000490694 0.000506215 0.000520618 0.000533007 0.000545392 0.000557774 0.000570153 0.000582528
0.000609063 0.000635584 0.000662089 0.000688579 0.000715053 0.00074045 0.000765839 0.000791213 0.000816573 0.000841917
0.000866226 0.000890536 0.000914834 0.00093912 0.000963394 0.000986673 0.00100996 0.00103324 0.00105651 0.00107977
0.00110207 0.00112439 0.0011467 0.00116901 0.00119131 0.00121269 0.00123409 0.00125548 0.00127687 0.00129826
0.00131876 0.00133928 0.00135981 0.00138032 0.00140084 0.00142051 0.0014402 0.00145989 0.00147957 0.00149926
0.00151813 0.00153702 0.00155591 0.0015748 0.00159369 0.0016118 0.00162992 0.00164805 0.00166618 0.00168431
0.00170169 0.00171908 0.00173648 0.00175388 0.00177127 0.00178796 0.00180465 0.00182135 0.00183805 0.00185474
0.00187076 0.00188679 0.00190281 0.00191884 0.00193487 0.00195025 0.00196564 0.00198102 0.00199641 0.00201181
0.00202208 0.00203236 0.00204264 0.00205291 0.00206319 0.00207355 0.00208391 0.00209427 0.00210464 0.002115
0.00212545 0.00213589 0.00214633 0.00215678 0.00216723 0.00217776 0.00218829 0.00219882 0.00220935 0.00221988
0.0022305 0.00224111 0.00225173 0.00226234 0.00227296 0.00228367 0.00229437 0.00230508 0.00231578 0.00232649
0.00233729 0.00234808 0.00235888 0.00236968 0.00238048 0.00239137 0.00240225 0.00241314 0.00242403 0.00243492
0.00244591 0.00245689 0.00246787 0.00247886 0.00248985 0.00250094 0.00251201 0.00252309 0.00253418 0.00254527
0.00255645 0.00256763 0.00257882 0.00259 0.00260119 0.00261248 0.00262377 0.00263506 0.00264635 0.00265764
0.00266904 0.00268043 0.00269183 0.00270323 0.00271464 0.00272615 0.00273765 0.00274916 0.00276068 0.0027722
0.00278382 0.00279544 0.00280707 0.0028187 0.00283034 0.00284208 0.00285383 0.00286558 0.00287733 0.0028891
0.00289775 0.00290641 0.00291507 0.00292374 0.00293208 0.00293537 0.00293865 0.00294193 0.00294522 0.0029485
0.0029605 0.00297251 0.00298452 0.00299654 0.00300858 0.00302073 0.00303288 0.00304503 0.0030572 0.00306938
0.0030817 0.00309399 0.0031063 0.00311862 0.00313095 0.00314344 0.00315589 0.00316836 0.00318084 0.00319333
0.003206 0.00321862 0.00323125 0.0032439 0.00325656 0.00326941 0.00328221 0.00329502 0.00330785 0.00332069
0.00333373 0.00334671 0.00335971 0.00337272 0.00338575 0.003399 0.00341217 0.00342536 0.00343857 0.0034518
0.00346525 0.00347863 0.00349202 0.00350544 0.00351888 0.00353254 0.00354613 0.00355974 0.00357337 0.00358703
0.00360091 0.00361474 0.00362857 0.00364243 0.00365632 0.00367043 0.00368449 0.00369856 0.00371265 0.00372679
0.00374113 0.00375544 0.00376975 0.00378408 0.00379846 0.00381305 0.00382761 0.00384217 0.00385675 0.00387139
0.00388623 0.00390104 0.00391586 0.0039307 0.0039456 0.00396069 0.00397577 0.00399085 0.00400595 0.00402112
0.00403647 0.00405182 0.00406717 0.00408255 0.00409799 0.0041136 0.00412922 0.00414485 0.00416051 0.00417622
0.00419211 0.004208 0.00422391 0.00423985 0.00425584 0.00427199 0.00428816 0.00430436 0.00432058 0.00433684
0.00435327 0.00436972 0.00438619 0.00440269 0.00441923 0.00443593 0.00445265 0.00446941 0.00448619 0.004503
0.00451997 0.00453697 0.00455401 0.00457107 0.00458815 0.00460539 0.00462266 0.00463998 0.00465731 0.00467466
0.00469217 0.00470971 0.00472729 0.0047449 0.00476252 0.00478029 0.0047981 0.00481595 0.00483381 0.0048517
0.00486973 0.00488781 0.00490591 0.00492404 0.00494218 0.00496048 0.00497881 0.00499718 0.00501556 0.00503396
0.00505251 0.0050711 0.00508972 0.00510836 0.00512701 0.00514581 0.00516466 0.00518353 0.00520241 0.00522132
0.00524037 0.00525947 0.00527859 0.00529772 0.00531687 0.00533618 0.00535552 0.00537489 0.00539427 0.00541367
0.00543322 0.00545282 0.00547243 0.00549206 0.0055117 0.00553151 0.00555135 0.00557121 0.00559108 0.00561097
0.00563103 0.00565112 0.00567123 0.00569135 0.00571149 0.0057318 0.00575214 0.00577249 0.00579287 0.00581326
0.00583382 0.00585441 0.00587502 0.00589565 0.00591629 0.00593711 0.00595796 0.00597882 0.0059997 0.00602061
0.00602624 0.00603187 0.00603751 0.00604314 0.0060487 0.00606418 0.00607968 0.00609519 0.0061107 0.00612623
0.00614757 0.00616894 0.00619032 0.00621173 0.00623315 0.00625476 0.00627639 0.00629804 0.00631971 0.0063414
0.00636327 0.00638517 0.00640709 0.00642903 0.00645099 0.00647313 0.0064953 0.00651749 0.0065397 0.00656193
0.00658434 0.00660678 0.00662924 0.00665172 0.00667423 0.00669691 0.00671962 0.00674236 0.00676511 0.00678789
0.00681084 0.00683382 0.00685683 0.00687986 0.00690291 0.00692613 0.00694939 0.00697267 0.00699597 0.00701929
0.00704278 0.00706631 0.00708986 0.00711344 0.00713702 0.00716079 0.00718458 0.00720841 0.00723226 0.00725611
0.00728014 0.0073042 0.0073283 0.00735242 0.00737653 0.00740083 0.00742517 0.00744953 0.00747392 0.0074983
0.00752286 0.00754746 0.00757209 0.00759674 0.00762138 0.00764621 0.00767107 0.00769597 0.00772087 0.00774578
0.00777087 0.007796 0.00782115 0.00784632 0.00787149 0.00789685 0.00792223 0.00794765 0.00797308 0.00799851
0.00802413 0.00804978 0.00807546 0.00810116 0.00812684 0.00815273 0.00817865 0.00820459 0.00823054 0.0082565
0.00828265 0.00830883 0.00833504 0.00836126 0.00838748 0.0084139 0.00844035 0.00846683 0.00849331 0.00851981
0.0085465 0.00857323 0.00859998 0.00862674 0.00865351 0.00868049 0.0087075 0.00873452 0.00876156 0.00878861
0.00881588 0.00884317 0.00887049 0.00889781 0.00892515 0.00895271 0.0089803 0.00900791 0.00903553 0.00906317
0.00909103 0.00911892 0.00914683 0.00917476 0.00920271 0.00922877 0.00925486 0.00928097 0.00930709 0.00933091
0.00933349 0.00933608 0.00933866 0.00934124 0.00934382 0.00937233 0.00940085 0.0094294 0.00945797 0.00948656
0.0095154 0.00954426 0.00957314 0.00960205 0.00963099 0.00966016 0.00968937 0.00971861 0.00974787 0.00977716
0.00980668 0.00983625 0.00986585 0.00989547 0.00992513 0.00995502 0.00998495 0.0100149 0.0100449 0.0100749
0.0101052 0.0101355 0.0101659 0.0101963 0.0102267 0.0102573 0.010288 0.0103188 0.0103495 0.0103803
0.0104114 0.0104425 0.0104736 0.0105048 0.010536 0.0105675 0.010599 0.0106306 0.0106621 0.0106938
0.0107256 0.0107576 0.0107895 0.0108216 0.0108536 0.0108859 0.0109183 0.0109507 0.0109831 0.0110156
0.0110483 0.0110811 0.0111139 0.0111468 0.0111797 0.0112129 0.0112461 0.0112794 0.0113127 0.0113461
0.0113797 0.0114134 0.0114471 0.0114809 0.0115147 0.0115334 0.0115521 0.0115708 0.0115896 0.0116079
0.0116234 0.011639 0.0116545 0.01167 0.0116856 0.0117202 0.0117548 0.0117894 0.0118241 0.0118588
0.0118939 0.011929 0.0119641 0.0119993 0.0120345 0.01207 0.0121056 0.0121412 0.0121769 0.0122126
0.0122486 0.0122847 0.0123208 0.012357 0.0123932 0.0124297 0.0124663 0.0125029 0.0125396 0.0125763
0.0126133 0.0126504 0.0126875 0.0127247 0.0127619 0.0127995 0.0128371 0.0128747 0.0129125 0.0129502
0.0129883 0.0130264 0.0130646 0.0131028 0.0131411 0.0131797 0.0132184 0.0132571 0.0132959 0.0133347
0.0133739 0.0134131 0.0134523 0.0134917 0.013531 0.0135477 0.0135643 0.0135809 0.0135976 0.0136138
0.0136371 0.0136603 0.0136836 0.0137069 0.0137302 0.0137705 0.0138108 0.0138512 0.0138916 0.0139321
0.013973 0.0140139 0.0140548 0.0140959 0.0141369 0.0141784 0.0142198 0.0142614 0.014303 0.0143446
0.0143867 0.0144287 0.0144709 0.0145131 0.0145553 0.014598 0.0146407 0.0146834 0.0147262 0.0147691
0.0148124 0.0148557 0.0148991 0.0149425 0.0149861 0.01503 0.0150739 0.015118 0.0151621 0.0152062
0.0152508 0.0152954 0.0153401 0.0153849 0.0154297 0.0154494 0.015469 0.0154886 0.0155083 0.0155275
0.0155533 0.0155791 0.015605 0.0156308 0.0156567 0.0157027 0.0157487 0.0157947 0.0158409 0.0158871
0.0159337 0.0159804 0.0160272 0.0160741 0.016121 0.0161684 0.0162158 0.0162633 0.0163109 0.0163586
0.0164067 0.0164549 0.0165031 0.0165515 0.0165999 0.0166488 0.0166978 0.0167468 0.0167959 0.0168452
0.0168949 0.0169446 0.0169945 0.0170444 0.0170945 0.017145 0.0171956 0.0172463 0.0172971 0.0173477
0.0173477 0.0173478 0.0173479 0.0173479 0.017348 0.0173994 0.0174509 0.0175025 0.0175541 0.0176059
0.0176582 0.0177105 0.017763 0.0178156 0.0178683 0.0179215 0.0179748 0.0180282 0.0180817 0.0181354
0.0181896 0.0182438 0.0182982 0.0183527 0.0184074 0.0184626 0.0185179 0.0185733 0.0186289 0.0186846
0.0187408 0.0187972 0.0188537 0.0189104 0.0189672 0.0190025 0.0190379 0.0190733 0.0191088 0.0191434
0.0191658 0.0191882 0.0192107 0.0192331 0.0192556 0.0193141 0.0193728 0.0194316 0.0194906 0.0195498
0.0196095 0.0196694 0.0197295 0.0197897 0.0198501 0.0199111 0.0199723 0.0200337 0.0200952 0.0201569
0.0202193 0.0202818 0.0203445 0.0204074 0.0204705 0.0205343 0.0205982 0.0206624 0.0207267 0.0207913
0.020825 0.0208588 0.0208926 0.0209264 0.0209596 0.0209915 0.0210236 0.0210556 0.0210877 0.0211199
0.0211867 0.0212537 0.021321 0.0213884 0.0214561 0.0215246 0.0215932 0.0216621 0.0217312 0.0218006
0.0218708 0.0219411 0.0220118 0.0220826 0.0221538 0.0222257 0.022298 0.0223704 0.0224431 0.0225162
0.0225767 0.0226374 0.0226983 0.0227594 0.0228182 0.0228322 0.0228463 0.0228604 0.0228744 0.0228885
0.0229644 0.0230405 0.023117 0.0231937 0.0232708 0.0233488 0.0234271 0.0235056 0.0235845 0.0236638
0.023744 0.0238245 0.0239053 0.0239865 0.0240681 0.0241506 0.0242335 0.0243168 0.0244003 0.0244844
0.0245341 0.024584 0.0246341 0.0246842 0.0247331 0.0247691 0.0248052 0.0248413 0.0248775 0.0249138
0.0250015 0.0250895 0.0251779 0.0252668 0.0253561 0.0254465 0.0255373 0.0256285 0.0257202 0.0258124
0.0259057 0.0259994 0.0260937 0.0261883 0.0262836 0.0263703 0.0264575 0.026545 0.026633 0.0267173
0.026728 0.0267387 0.0267494 0.0267601 0.0267708 0.0268705 0.0269707 0.0270713 0.0271726 0.0272744
0.0273775 0.0274811 0.0275853 0.0276901 0.0277955 0.0279021 0.0280094 0.0281173 0.0282258 0.028335
0.0284252 0.0285159 0.0286069 0.0286984 0.0287867 0.0288083 0.0288298 0.0288514 0.028873 0.0288946
0.0290092 0.0291245 0.0292404 0.0293569 0.0294743 0.029593 0.0297125 0.0298327 0.0299536 0.0300753
0.0301984 0.0303224 0.030447 0.0305724 0.0306986 0.0307512 0.030804 0.0308569 0.0309099 0.0309621
0.0310384 0.031115 0.0311919 0.031269 0.0313464 0.0314789 0.0316123 0.0317465 0.0318814 0.0320172
0.0321546 0.0322928 0.032432 0.0325719 0.0327126 0.0328237 0.0329353 0.0330474 0.0331599 0.0332705
0.0333031 0.0333358 0.0333686 0.0334014 0.0334342 0.0335818 0.0337303 0.0338796 0.0340298 0.0341807
0.0343335 0.0344871 0.0346416 0.034797 0.0349532 0.0351093 0.0352664 0.0354243 0.035583 0.0357404
0.0357427 0.035745 0.0357473 0.0357497 0.035752 0.0359154 0.0360797 0.0362449 0.0364109 0.0365777
0.0367465 0.0369162 0.0370869 0.0372584 0.0374306 0.0376049 0.0377802 0.0379563 0.0381332 0.0383109
0.0383148 0.0383188 0.0383227 0.0383266 0.0383306 0.0385066 0.0386835 0.0388612 0.0390396 0.0392188
0.039404 0.0395902 0.0397773 0.0399652 0.0401537 0.0403436 0.0405344 0.040726 0.0409184 0.0411147
0.0411148 0.0411149 0.041115 0.0411151 0.0411152 0.0413113 0.0415082 0.0417058 0.0419041 0.042103
0.0423041 0.042506 0.0427087 0.0429121 0.0431159 0.0433187 0.0435222 0.0437264 0.0439312 0.044144
0.0441458 0.0441476 0.0441493 0.0441511 0.0441529 0.0443637 0.0445751 0.0447871 0.0449996 0.0452125
0.0454275 0.0456431 0.0458594 0.0460761 0.0462929 0.0465118 0.0467314 0.0469513 0.0471717 0.047392
0.0474147 0.0474374 0.0474601 0.0474827 0.0475056 0.0477056 0.0479059 0.0481064 0.0483071 0.0485077
0.048733 0.0489586 0.0491844 0.0494105 0.0496363 0.0498642 0.0500924 0.0503209 0.0505492 0.0507768
0.0508543 0.0509318 0.0510094 0.0510869 0.0511664 0.0513087 0.051451 0.0515933 0.0517356 0.0518777
0.0521059 0.0523338 0.0525616 0.052789 0.0530155 0.0531785 0.0533414 0.0535042 0.0536667 0.0538414
0.0539105 0.0539795 0.0540485 0.0541175 0.0541864 0.0544281 0.0546693 0.0549099 0.0551498 0.0553884
0.0556355 0.055882 0.0561276 0.0563722 0.0566153 0.0566331 0.0566509 0.0566687 0.0566865 0.0567045
0.056938 0.0571705 0.057402 0.0576325 0.0578614 0.0581162 0.0583698 0.058622 0.0588727 0.0591213
0.0592619 0.0594021 0.0595417 0.0596808 0.0598349 0.0599458 0.0600564 0.0601666 0.0602765 0.060386
0.0606436 0.0608992 0.061153 0.0614048 0.0616542 0.0619113 0.0621663 0.0624192 0.0626698 0.0629181
0.063004 0.0630898 0.0631752 0.0632604 0.0633525 0.0635181 0.0636826 0.063846 0.0640085 0.0641699
0.0644232 0.064674 0.0649223 0.0651681 0.0654114 0.0656615 0.065909 0.066154 0.0663963 0.0666361
0.066797 0.0669568 0.0671154 0.0672728 0.0674599 0.0675362 0.0676122 0.0676879 0.0677633 0.0678385
0.0680808 0.0683203 0.068557 0.0687911 0.0690226 0.0692604 0.0694953 0.0697276 0.0699571 0.0701841
0.0704171 0.0706474 0.0708748 0.0710996 0.0713219 0.0715501 0.0717755 0.0719981 0.0722181 0.0724355
0.0724652 0.0724948 0.0725243 0.0725538 0.0725846 0.0727762 0.0729659 0.0731535 0.0733391 0.073523
0.0737412 0.0739568 0.0741697 0.0743799 0.0745877 0.0748009 0.0750113 0.0752189 0.075424 0.0756269
0.0758354 0.0760414 0.0762449 0.0764458 0.0766438 0.0768466 0.0770463 0.0772432 0.0774381 0.0776311
0.07783 0.0780272 0.0782211 0.0784117 0.0785991 0.0787439 0.0788865 0.0790281 0.0791688 0.0792439
0.0793009 0.0793576 0.0794141 0.0794703 0.0795264 -9.99991e-06 -7.99992e-06 -5.99993e-06 -3.99995e-06 -1.99997e-06
0 2.96563e-05 5.93113e-05 8.89638e-05 0.000118613 0.000148258 0.000178632 0.000209 0.000239362 0.000269717
0.000300065 0.000329193 0.000358313 0.000387426 0.000416532 0.00044563 0.000473557 0.000501477 0.00052939 0.000557296
0.000585196 0.000611974 0.000638745 0.000665511 0.000692271 0.000719024 0.000744703 0.000770377 0.000796045 0.000821707
0.000847364 0.000871991 0.000896613 0.00092123 0.000945842 0.000970449 0.000994069 0.00101768 0.0010413 0.0010649
0.00108851 0.00111116 0.00113381 0.00115646 0.00117911 0.00120175 0.00122349 0.00124522 0.00126694 0.00128867
0.00131039 0.00133124 0.00135209 0.00137294 0.00139378 0.00141463 0.00143463 0.00145464 0.00147464 0.00149464
0.00151464 0.00153383 0.00155303 0.00157222 0.00159141 0.0016106 0.00162902 0.00164744 0.00166585 0.00168427
0.00170268 0.00172036 0.00173803 0.0017557 0.00177338 0.00179104 0.00180801 0.00182497 0.00184193 0.00185889
0.00187584 0.00189212 0.0019084 0.00192468 0.00194095 0.00195723 0.00197285 0.00198847 0.00200409 0.00201971
0.00203533 0.00204576 0.00205619 0.00206661 0.00207704 0.00208747 0.00209797 0.00210848 0.00211899 0.00212949
0.00214 0.00215059 0.00216117 0.00217176 0.00218235 0.00219293 0.0022036 0.00221427 0.00222494 0.0022356
0.00224627 0.00225702 0.00226777 0.00227852 0.00228927 0.00230001 0.00231085 0.00232168 0.00233251 0.00234334
0.00235417 0.00236508 0.002376 0.00238691 0.00239783 0.00240874 0.00241974 0.00243073 0.00244173 0.00245273
0.00246373 0.00247481 0.00248589 0.00249697 0.00250805 0.00251914 0.0025303 0.00254147 0.00255264 0.00256381
0.00257497 0.00258622 0.00259748 0.00260873 0.00261998 0.00263124 0.00264258 0.00265391 0.00266525 0.00267659
0.00268793 0.00269936 0.00271079 0.00272221 0.00273364 0.00274506 0.00275658 0.00276809 0.00277961 0.00279112
0.00280264 0.00281424 0.00282584 0.00283744 0.00284905 0.00286065 0.00287234 0.00288403 0.00289572 0.00290742
0.00291911 0.00293089 0.00294267 0.00295445 0.00296624 0.00297802 0.00298989 0.00300176 0.00301364 0.00302551
0.00303738 0.00304934 0.00306131 0.00307327 0.00308524 0.0030972 0.00310926 0.00312131 0.00313337 0.00314542
0.00315748 0.00316963 0.00318178 0.00319393 0.00320608 0.00321823 0.00323047 0.00324272 0.00325496 0.0032672
0.00327945 0.00329179 0.00330412 0.00331646 0.0033288 0.00334114 0.00335358 0.00336601 0.00337845 0.00339088
0.00340332 0.00341585 0.00342838 0.00344092 0.00345345 0.00346598 0.00347861 0.00349124 0.00350388 0.00351651
0.00352914 0.00354187 0.0035546 0.00356733 0.00358006 0.0035928 0.00360563 0.00361846 0.00363129 0.00364412
0.00365695 0.00366293 0.00366892 0.0036749 0.00368088 0.00368686 0.00369381 0.00370076 0.00370772 0.00371467
0.00372162 0.00373466 0.00374769 0.00376073 0.00377376 0.0037868 0.00379994 0.00381308 0.00382622 0.00383936
0.0038525 0.00386574 0.00387898 0.00389223 0.00390547 0.00391871 0.00393206 0.00394541 0.00395876 0.0039721
0.00398545 0.0039989 0.00401236 0.00402581 0.00403926 0.00405272 0.00406627 0.00407983 0.00409339 0.00410695
0.0041205 0.00413417 0.00414783 0.00416149 0.00417516 0.00418882 0.00420259 0.00421636 0.00423012 0.00424389
0.00425766 0.00427153 0.00428541 0.00429928 0.00431315 0.00432703 0.00434101 0.00435499 0.00436896 0.00438294
0.00439692 0.004411 0.00442509 0.00443917 0.00445326 0.00446734 0.00448153 0.00449572 0.00450991 0.00452409
0.00453828 0.00455258 0.00456687 0.00458117 0.00459546 0.00460975 0.00462415 0.00463856 0.00465296 0.00466735
0.00468175 0.00469626 0.00471077 0.00472527 0.00473978 0.00475428 0.00476889 0.00478351 0.00479812 0.00481273
0.00482734 0.00484206 0.00485678 0.0048715 0.00488622 0.00490094 0.00491577 0.0049306 0.00494543 0.00496025
0.00497508 0.00499002 0.00500496 0.00501989 0.00503483 0.00504977 0.00506482 0.00507986 0.00509491 0.00510996
0.00512501 0.00514017 0.00515533 0.00517049 0.00518565 0.00520081 0.00521608 0.00523136 0.00524663 0.00526191
0.00527718 0.00529257 0.00530796 0.00532335 0.00533874 0.00535412 0.00536963 0.00538514 0.00540064 0.00541615
0.00543165 0.00544728 0.0054629 0.00547853 0.00549415 0.00550978 0.00552552 0.00554127 0.00555701 0.00557276
0.0055885 0.00560437 0.00562023 0.0056361 0.00565197 0.00566783 0.00568382 0.00569981 0.0057158 0.00573179
0.00574778 0.00576389 0.00578 0.00579612 0.00581223 0.00582834 0.00584458 0.00586082 0.00587706 0.0058933
0.00590954 0.00591698 0.00592442 0.00593185 0.00593929 0.0059467 0.00595564 0.00596457 0.0059735 0.00598243
0.00599137 0.00600786 0.00602436 0.00604085 0.00605734 0.00607384 0.00609046 0.00610708 0.00612371 0.00614033
0.00615695 0.00617371 0.00619046 0.00620722 0.00622397 0.00624072 0.00625761 0.0062745 0.00629138 0.00630826
0.00632515 0.00634218 0.00635919 0.00637621 0.00639322 0.00641024 0.00642741 0.00644456 0.00646171 0.00647886
0.00649601 0.00651332 0.0065306 0.00654789 0.00656517 0.00658246 0.00659991 0.00661734 0.00663476 0.00665218
0.00666961 0.00668721 0.00670478 0.00672234 0.0067399 0.00675747 0.00677521 0.00679293 0.00681063 0.00682832
0.00684605 0.00686394 0.0068818 0.00689964 0.00691748 0.00693536 0.0069534 0.00697141 0.0069894 0.00700739
0.00702542 0.00704362 0.00706179 0.00707993 0.00709808 0.00711626 0.00713461 0.00715294 0.00717124 0.00718954
0.00720788 0.00722641 0.0072449 0.00726336 0.00728182 0.00730032 0.00731901 0.00733767 0.00735629 0.00737492
0.0073936 0.00741246 0.00743128 0.00745008 0.00746889 0.00748774 0.00750677 0.00752577 0.00754476 0.00756375
0.00758277 0.00760198 0.00762116 0.00764034 0.00765952 0.00767872 0.00769812 0.00771749 0.00773685 0.00775623
0.00777562 0.00779521 0.00781476 0.00783433 0.00785391 0.0078735 0.00789328 0.00791304 0.00793282 0.0079526
0.0079724 0.00799238 0.00801236 0.00803234 0.00805234 0.00807235 0.00808782 0.0081033 0.00811878 0.00813427
0.00814922 0.00815405 0.00815888 0.00816371 0.00816855 0.00817338 0.00819379 0.0082142 0.00823463 0.00825507
0.00827552 0.00829617 0.00831681 0.00833747 0.00835814 0.00837883 0.00839972 0.0084206 0.00844149 0.0084624
0.00848333 0.00850448 0.0085256 0.00854673 0.00856788 0.00858906 0.00861047 0.00863185 0.00865323 0.00867463
0.00869607 0.00871774 0.00873939 0.00876102 0.00878267 0.00880438 0.00882632 0.00884824 0.00887014 0.00889205
0.00891403 0.00893625 0.00895844 0.00898061 0.0090028 0.00902506 0.00904756 0.00907003 0.00909249 0.00911496
0.0091375 0.00916029 0.00918305 0.00920579 0.00922855 0.00925138 0.00927446 0.00929751 0.00932056 0.00934363
0.00936675 0.00939012 0.00941347 0.00943683 0.00946021 0.00948363 0.0095073 0.00953095 0.00955463 0.00957833
0.00960205 0.00962603 0.00965 0.00967399 0.00969802 0.00972207 0.00974635 0.00977065 0.00979497 0.00981932
0.0098437 0.00985352 0.00986334 0.00987317 0.009883 0.0098927 0.00990754 0.00992239 0.00993725 0.00995212