/*--------------------------------*- C++ -*----------------------------------*\
  =========                 |
  \\      /  F ield         | OpenFOAM: The Open Source CFD Toolbox
   \\    /   O peration     | Website:  https://openfoam.org
    \\  /    A nd           | Version:  13
     \\/     M anipulation  |
\*---------------------------------------------------------------------------*/
FoamFile
{
    format      ascii;
    class       volScalarField;
    location    "9.8";
    object      p;
}
// * * * * * * * * * * * * * * * * * * * * * * * * * * * * * * * * * * * * * //

dimensions      [0 2 -2 0 0 0 0];

internalField   nonuniform List<scalar> 
6400
(
1.49312e-08
2.03448e-05
2.95169e-05
1.40083e-05
-3.14559e-05
-0.000101545
-0.000186306
-0.000276386
-0.000365435
-0.000450296
-0.000531817
-0.000614401
-0.000702827
-0.000802426
-0.00091848
-0.00105514
-0.00121535
-0.00140072
-0.0016125
-0.00185131
-0.00211755
-0.00241276
-0.00273996
-0.00310382
-0.00351088
-0.0039654
-0.004462
-0.00499099
-0.00552841
-0.0060406
-0.00652348
-0.00698495
-0.00742322
-0.00783551
-0.00821617
-0.00855619
-0.00884374
-0.00906528
-0.00920661
-0.00925365
-0.00919306
-0.00901355
-0.00870718
-0.00827023
-0.00770078
-0.00698995
-0.00612919
-0.00513924
-0.00403717
-0.00283009
-0.00153934
-0.000186791
0.00119774
0.00258092
0.00392119
0.005173
0.00629228
0.00723745
0.00796949
0.00845812
0.0086863
0.00865358
0.00837537
0.00787093
0.0072077
0.00643443
0.00561737
0.00481944
0.00409668
0.00347842
0.00299872
0.00266631
0.00245075
0.00232718
0.00227455
0.00226968
0.00229353
0.00233101
0.00237155
0.00239904
-1.5293e-05
5.43933e-06
9.83239e-06
-1.07788e-05
-5.91722e-05
-0.000129207
-0.000209911
-0.000292564
-0.000372161
-0.000447431
-0.000520578
-0.000595836
-0.000678182
-0.000772451
-0.000882599
-0.00101223
-0.00116464
-0.0013423
-0.00154573
-0.00177506
-0.00202917
-0.00230886
-0.00261759
-0.00295779
-0.00333265
-0.00374975
-0.00421638
-0.00473034
-0.0052769
-0.00583109
-0.00636563
-0.00687199
-0.00735217
-0.00780303
-0.00821861
-0.00858982
-0.00890516
-0.0091517
-0.00931606
-0.00938542
-0.00934763
-0.00919254
-0.00891251
-0.00850199
-0.00795634
-0.00727182
-0.00645523
-0.00551465
-0.0044526
-0.00328796
-0.00203881
-0.000729167
0.000612373
0.00195157
0.00325034
0.00446813
0.00556183
0.00648997
0.00721712
0.00771387
0.00796274
0.0079621
0.00772602
0.00728198
0.00667792
0.00596951
0.00521821
0.00448304
0.00381685
0.00326047
0.0028306
0.00253408
0.00235659
0.0022747
0.00226425
0.00229635
0.00234042
0.00237956
0.00241231
0.00243822
-3.18068e-05
-8.84768e-06
-1.03009e-05
-4.03197e-05
-9.68956e-05
-0.000169508
-0.000246147
-0.0003185
-0.000383976
-0.000444368
-0.000503581
-0.00056676
-0.00063906
-0.000724298
-0.000824989
-0.00094296
-0.00107976
-0.00123767
-0.00141891
-0.00162632
-0.0018636
-0.00213381
-0.00244145
-0.00279158
-0.00318833
-0.00363426
-0.00412975
-0.00467041
-0.00524489
-0.00583529
-0.00642172
-0.00698853
-0.00752662
-0.00802943
-0.00848978
-0.00889831
-0.00924452
-0.00951714
-0.00970424
-0.00979423
-0.00977682
-0.00964311
-0.00938609
-0.00900073
-0.00848403
-0.00783483
-0.00705135
-0.00614614
-0.00512574
-0.00400388
-0.00279785
-0.00152997
-0.000227405
0.00107788
0.00234992
0.00355007
0.00463631
0.00556766
0.00630927
0.00683286
0.00711991
0.0071667
0.00698642
0.00660651
0.00607066
0.00543194
0.00474719
0.00407722
0.00347004
0.00296181
0.00257655
0.0023261
0.00219763
0.00216129
0.00218782
0.00225149
0.00232177
0.00238021
0.00242798
0.00246549
-4.07467e-05
-1.88909e-05
-2.80895e-05
-6.95968e-05
-0.000136486
-0.000212239
-0.000285041
-0.000348273
-0.000400643
-0.000444606
-0.000486566
-0.000533456
-0.000590922
-0.000662738
-0.000750587
-0.000855234
-0.000978076
-0.00112199
-0.00129093
-0.00149061
-0.00172832
-0.00201195
-0.0023488
-0.00274146
-0.00319217
-0.00370206
-0.00426689
-0.00487585
-0.00551296
-0.0061614
-0.00680464
-0.00742743
-0.00801758
-0.00856592
-0.00906382
-0.00950188
-0.00987089
-0.0101608
-0.0103615
-0.0104628
-0.010456
-0.0103334
-0.0100886
-0.00971752
-0.00921848
-0.00858963
-0.00783289
-0.00695416
-0.00596126
-0.00486679
-0.00368693
-0.00244239
-0.00115798
0.000137052
0.00140844
0.00261739
0.0037235
0.00468639
0.00546921
0.00604281
0.0063867
0.00649325
0.00637335
0.00605434
0.00557665
0.00499044
0.0043533
0.00372369
0.00315199
0.00267511
0.00231653
0.00208625
0.00197612
0.00196937
0.00203473
0.00213298
0.00223547
0.00232457
0.00239662
0.0024468
-3.52018e-05
-2.11287e-05
-4.0741e-05
-9.40508e-05
-0.000170642
-0.000249234
-0.000318192
-0.000372462
-0.000412137
-0.000441794
-0.000468892
-0.000501246
-0.000544951
-0.000603714
-0.000679661
-0.00077461
-0.000891735
-0.00103686
-0.00121723
-0.00144112
-0.00171839
-0.00205475
-0.00245486
-0.00292301
-0.00345838
-0.00405489
-0.00470211
-0.00538531
-0.00608691
-0.00679051
-0.0074807
-0.00814488
-0.00877228
-0.00935239
-0.00987593
-0.010334
-0.0107178
-0.0110181
-0.0112267
-0.0113351
-0.0113356
-0.0112219
-0.0109879
-0.0106296
-0.0101471
-0.00953957
-0.00880754
-0.00795447
-0.00698737
-0.00591814
-0.00476191
-0.00353717
-0.00226532
-0.000971806
0.000310204
0.00154089
0.00268189
0.0036946
0.00454094
0.00518933
0.0056165
0.00581009
0.00577476
0.00553355
0.00512738
0.0046041
0.00401871
0.00342888
0.00288674
0.0024316
0.00208984
0.00187086
0.00177029
0.00177145
0.00184827
0.00196758
0.00209628
0.00221363
0.00230887
0.00236863
-6.2168e-06
-6.5644e-06
-3.88948e-05
-0.000106325
-0.000191172
-0.000270787
-0.000335554
-0.000381935
-0.000411349
-0.000430042
-0.000446667
-0.000469449
-0.000504641
-0.000556647
-0.000629308
-0.00072712
-0.000856721
-0.00102704
-0.0012491
-0.00153011
-0.00187764
-0.00229897
-0.00279566
-0.0033645
-0.00399656
-0.00467972
-0.00540177
-0.00614861
-0.00690466
-0.00765457
-0.00838405
-0.00908145
-0.00973641
-0.0103392
-0.0108812
-0.0113539
-0.0117481
-0.0120561
-0.0122711
-0.0123865
-0.0123952
-0.0122931
-0.0120745
-0.011735
-0.011279
-0.0107022
-0.0100044
-0.00918811
-0.00825862
-0.00722642
-0.0061043
-0.0049069
-0.0036516
-0.00236094
-0.00106966
0.00018404
0.00136683
0.00244281
0.00337055
0.00411632
0.00465525
0.00496887
0.00505618
0.00493036
0.00462776
0.00419688
0.00368997
0.00316129
0.00266333
0.00223855
0.00191549
0.00170672
0.00160994
0.00161107
0.0016864
0.00180753
0.00194389
0.00207244
0.00217798
0.00224115
5.67539e-05
3.84351e-05
-1.05444e-05
-9.50956e-05
-0.000185217
-0.000265106
-0.00032655
-0.000367367
-0.000390989
-0.000404899
-0.000418293
-0.000439673
-0.000475951
-0.000533304
-0.000618647
-0.000739673
-0.0009068
-0.00113193
-0.0014234
-0.00179001
-0.0022383
-0.00276928
-0.00337428
-0.00404253
-0.00476393
-0.00552654
-0.00631655
-0.00711993
-0.00792279
-0.00871164
-0.00947376
-0.0101982
-0.0108752
-0.0114958
-0.0120521
-0.0125352
-0.012936
-0.0132492
-0.0134697
-0.0135926
-0.0136142
-0.0135291
-0.013334
-0.0130264
-0.0126021
-0.0120608
-0.0114043
-0.0106363
-0.00976178
-0.00878525
-0.00771436
-0.00656054
-0.00534088
-0.00407882
-0.0027989
-0.00152869
-0.000299494
0.000849399
0.00187131
0.00273601
0.00341515
0.00388245
0.00413257
0.00416883
0.00401696
0.00372006
0.00332831
0.00289379
0.00246682
0.00209129
0.00179853
0.00160454
0.00151038
0.00150708
0.00157188
0.00168166
0.0018087
0.00193012
0.00203067
0.00208892
0.000164045
0.000124796
5.35578e-05
-4.4973e-05
-0.00014059
-0.000221852
-0.000282173
-0.000321911
-0.000346198
-0.000363609
-0.000383757
-0.000415581
-0.000467359
-0.000548131
-0.000667865
-0.000838081
-0.00107072
-0.00137752
-0.00176695
-0.00224529
-0.00280914
-0.00345014
-0.00415792
-0.00492076
-0.00572576
-0.00656003
-0.00741018
-0.0082632
-0.0091065
-0.009928
-0.0107165
-0.011462
-0.0121552
-0.0127871
-0.0133494
-0.0138344
-0.0142381
-0.0145571
-0.0147864
-0.0149215
-0.0149588
-0.0148923
-0.0147198
-0.0144395
-0.0140492
-0.013548
-0.0129387
-0.0122253
-0.0114118
-0.0105002
-0.00949508
-0.00840642
-0.00724904
-0.00604074
-0.00479789
-0.00353823
-0.00229342
-0.00109917
1.41958e-05
0.00101525
0.00185302
0.00250334
0.00295385
0.00319697
0.00324584
0.00313142
0.00289851
0.00259674
0.00227361
0.00197325
0.00172925
0.00156124
0.0014747
0.00146335
0.00151181
0.00160193
0.0017068
0.00180827
0.00188924
0.00193299
0.000321138
0.000260816
0.000164448
5.20109e-05
-5.02458e-05
-0.00013445
-0.000197642
-0.000242373
-0.000275645
-0.000307022
-0.000346593
-0.000404179
-0.000490123
-0.000616533
-0.000796707
-0.00104277
-0.00136758
-0.00178249
-0.0022904
-0.00288701
-0.00356518
-0.0043135
-0.00511892
-0.00596803
-0.00684769
-0.00774497
-0.00864737
-0.00954277
-0.0104196
-0.0112668
-0.0120742
-0.0128328
-0.0135332
-0.014167
-0.0147286
-0.0152154
-0.0156265
-0.0159553
-0.0161958
-0.0163428
-0.0163912
-0.0163397
-0.0161875
-0.0159337
-0.0155756
-0.0151158
-0.0145548
-0.0138945
-0.0131374
-0.0122881
-0.0113521
-0.0103372
-0.00925406
-0.00811585
-0.00693448
-0.00572045
-0.00449545
-0.00328437
-0.00210918
-0.00101345
-2.82933e-05
0.00082452
0.00149719
0.00198064
0.00227348
0.00239111
0.00236404
0.00223729
0.00205456
0.00185827
0.00168533
0.00155901
0.00148919
0.00147418
0.00150458
0.00156631
0.00164111
0.00171365
0.00176404
0.00178878
0.000535689
0.000451882
0.000327683
0.000199912
8.83652e-05
-2.06621e-06
-7.32095e-05
-0.00013052
-0.000182862
-0.000240732
-0.000314886
-0.000416389
-0.000558135
-0.000755023
-0.0010209
-0.00136804
-0.00180833
-0.00234591
-0.00297675
-0.00369248
-0.00448169
-0.00533004
-0.00622407
-0.00715012
-0.00809535
-0.00904714
-0.00999365
-0.0109235
-0.0118258
-0.0126907
-0.013509
-0.0142723
-0.014974
-0.0156095
-0.0161744
-0.0166644
-0.0170739
-0.0173982
-0.0176343
-0.0177803
-0.0178345
-0.0177956
-0.0176628
-0.0174355
-0.0171121
-0.0166941
-0.0161827
-0.0155794
-0.0148863
-0.0141066
-0.0132446
-0.0123059
-0.0112968
-0.0102248
-0.00909908
-0.00793564
-0.00675171
-0.00556236
-0.00438007
-0.00322788
-0.00212718
-0.00111893
-0.000233236
0.000506374
0.00106956
0.00145946
0.00168565
0.0017781
0.00177594
0.00171674
0.00163853
0.00157137
0.00153043
0.00151945
0.00153367
0.00156567
0.00160563
0.00164161
0.00165823
0.00166396
0.000810107
0.000696873
0.000543514
0.000395057
0.000271986
0.000170811
8.52293e-05
6.32052e-06
-7.67068e-05
-0.00017527
-0.000300864
-0.000466385
-0.000686834
-0.00097757
-0.00135178
-0.00181987
-0.00238744
-0.00305272
-0.00380668
-0.0046367
-0.00552889
-0.00646853
-0.00744194
-0.00843565
-0.00943706
-0.010434
-0.0114152
-0.0123699
-0.0132886
-0.0141623
-0.0149833
-0.0157448
-0.0164416
-0.0170695
-0.0176244
-0.0181032
-0.018502
-0.0188181
-0.0190494
-0.0191948
-0.0192535
-0.0192246
-0.0191078
-0.018903
-0.0186097
-0.018229
-0.0177622
-0.017211
-0.0165775
-0.0158643
-0.0150749
-0.0142132
-0.0132837
-0.0122907
-0.0112398
-0.0101394
-0.00899908
-0.0078305
-0.00665401
-0.00548621
-0.00433576
-0.0032215
-0.00216523
-0.00120788
-0.000372599
0.000305943
0.000820988
0.00117692
0.00139787
0.00151469
0.00156046
0.00157064
0.0015709
0.00157209
0.00157625
0.00158097
0.00158512
0.00158178
0.00156623
0.00155535
0.00113218
0.000988837
0.000799832
0.000627754
0.000489807
0.000373374
0.000265983
0.000155401
2.90738e-05
-0.00012516
-0.000319954
-0.000569469
-0.000889323
-0.00129365
-0.00179286
-0.00239272
-0.00309282
-0.00388515
-0.0047566
-0.00569293
-0.00667906
-0.00770041
-0.00874317
-0.00979409
-0.0108408
-0.0118717
-0.0128762
-0.0138447
-0.0147687
-0.0156408
-0.0164548
-0.0172055
-0.0178888
-0.0185013
-0.0190404
-0.0195039
-0.0198895
-0.0201954
-0.0204205
-0.0205639
-0.0206251
-0.0206039
-0.0205003
-0.0203144
-0.0200468
-0.0196984
-0.0192707
-0.0187653
-0.0181843
-0.0175302
-0.0168056
-0.0160139
-0.015158
-0.0142415
-0.0132679
-0.0122415
-0.0111667
-0.0100485
-0.00889524
-0.00771777
-0.00653408
-0.00536149
-0.00420502
-0.00308394
-0.00202581
-0.00107341
-0.000261573
0.00038898
0.000874713
0.00120995
0.00141854
0.00153169
0.0015864
0.00160744
0.00160684
0.00158918
0.00156045
0.00152082
0.00147833
0.00145323
0.00148751
0.00131234
0.00108295
0.000884278
0.000727616
0.000589938
0.000452467
0.000299563
0.000117166
-0.000107772
-0.000388318
-0.000739514
-0.00117562
-0.00170759
-0.00234152
-0.00307752
-0.00390866
-0.00482219
-0.00580315
-0.00683628
-0.00790618
-0.00899832
-0.0100989
-0.011195
-0.0122747
-0.0133271
-0.014343
-0.0153139
-0.0162329
-0.0170944
-0.0178936
-0.0186269
-0.0192914
-0.0198849
-0.0204057
-0.0208522
-0.0212232
-0.0215178
-0.0217354
-0.0218754
-0.0219377
-0.0219223
-0.0218296
-0.0216601
-0.0214145
-0.021094
-0.0207
-0.0202344
-0.019699
-0.0190961
-0.0184282
-0.0176978
-0.0169074
-0.0160593
-0.015156
-0.0141997
-0.0131925
-0.0121363
-0.0110332
-0.00988561
-0.00869887
-0.00748314
-0.00625752
-0.00503337
-0.00382075
-0.00264954
-0.00156714
-0.000618117
0.000161298
0.000755432
0.00117035
0.00142569
0.00155678
0.00160739
0.00160602
0.0015704
0.00151439
0.00144567
0.00138344
0.00134907
0.00185764
0.00164773
0.00137584
0.001146
0.000966037
0.00080069
0.000624607
0.000418942
0.000168339
-0.000140395
-0.000521307
-0.000988317
-0.0015525
-0.00222048
-0.00299234
-0.00386205
-0.0048177
-0.00584379
-0.00692426
-0.00804321
-0.00918517
-0.0103357
-0.0114812
-0.0126093
-0.0137091
-0.0147711
-0.0157872
-0.0167509
-0.017657
-0.0185014
-0.0192808
-0.0199929
-0.0206361
-0.0212089
-0.0217104
-0.0221397
-0.0224962
-0.0227796
-0.0229895
-0.0231257
-0.0231884
-0.0231778
-0.0230944
-0.022939
-0.0227123
-0.0224158
-0.0220508
-0.0216192
-0.0211228
-0.0205638
-0.0199444
-0.0192668
-0.0185329
-0.0177446
-0.0169034
-0.0160102
-0.0150655
-0.0140692
-0.0130209
-0.0119195
-0.0107642
-0.00955508
-0.00829582
-0.00699712
-0.00568288
-0.00436221
-0.00306592
-0.00185082
-0.000774966
0.000107936
0.000770083
0.00121378
0.00146024
0.00155857
0.00156443
0.00151394
0.00143531
0.00134454
0.00126959
0.00122981
0.00221737
0.00197135
0.0016532
0.00139046
0.00118302
0.000983636
0.000760725
0.000493036
0.000164221
-0.000239856
-0.000732739
-0.00132515
-0.00202409
-0.00282961
-0.00373613
-0.00473245
-0.00580306
-0.00693083
-0.00809898
-0.00929123
-0.0104922
-0.0116876
-0.0128646
-0.0140119
-0.01512
-0.0161809
-0.0171885
-0.0181378
-0.0190255
-0.0198487
-0.0206058
-0.0212953
-0.0219165
-0.0224687
-0.0229515
-0.0233645
-0.0237075
-0.0239805
-0.0241834
-0.0243163
-0.0243793
-0.024373
-0.0242979
-0.0241547
-0.0239446
-0.0236687
-0.0233286
-0.0229259
-0.0224626
-0.0219406
-0.0213621
-0.0207289
-0.0200429
-0.0193056
-0.0185177
-0.0176797
-0.016791
-0.0158501
-0.0148549
-0.013802
-0.0126879
-0.0115086
-0.0102608
-0.00894421
-0.00756647
-0.00614537
-0.00470448
-0.0032801
-0.0019416
-0.000764591
0.000179399
0.000855129
0.00126695
0.0014502
0.00147731
0.00141798
0.00131911
0.00120976
0.00112692
0.00108319
0.0025391
0.00225736
0.0018927
0.00159492
0.00135568
0.00111586
0.000839025
0.00050184
8.65094e-05
-0.000421997
-0.00103397
-0.0017563
-0.00258966
-0.00352845
-0.0045619
-0.00567448
-0.00684822
-0.00806501
-0.00930752
-0.0105594
-0.0118054
-0.0130322
-0.014228
-0.0153829
-0.0164892
-0.0175409
-0.0185335
-0.0194639
-0.02033
-0.0211305
-0.0218645
-0.0225317
-0.0231318
-0.0236646
-0.0241302
-0.0245286
-0.0248598
-0.0251237
-0.0253208
-0.0254511
-0.0255148
-0.0255126
-0.025445
-0.0253128
-0.0251171
-0.0248592
-0.0245403
-0.0241623
-0.0237269
-0.023236
-0.0226916
-0.0220956
-0.0214494
-0.0207545
-0.0200115
-0.0192204
-0.0183802
-0.0174888
-0.0165429
-0.015538
-0.0144683
-0.0133273
-0.0121084
-0.0108063
-0.00941928
-0.00795117
-0.0064181
-0.00485393
-0.00331017
-0.00187065
-0.000633626
0.000316416
0.000942161
0.00126146
0.00134192
0.0012848
0.00116752
0.00104058
0.000950321
0.000899983
0.00280208
0.0024814
0.00207102
0.00173656
0.00146121
0.00117563
0.000839877
0.00042787
-8.10343e-05
-0.000698897
-0.00143205
-0.00228248
-0.00324482
-0.00430845
-0.00545773
-0.00667383
-0.00793719
-0.00922899
-0.0105316
-0.0118289
-0.0131065
-0.0143519
-0.0155551
-0.0167082
-0.017805
-0.0188417
-0.0198154
-0.0207244
-0.0215679
-0.0223456
-0.0230575
-0.0237036
-0.0242843
-0.0247997
-0.0252502
-0.0256359
-0.025957
-0.0262137
-0.0264061
-0.0265347
-0.0265997
-0.0266016
-0.026541
-0.0264188
-0.0262359
-0.0259935
-0.0256931
-0.0253361
-0.0249243
-0.0244595
-0.0239436
-0.0233782
-0.0227649
-0.022105
-0.0213991
-0.0206469
-0.0198476
-0.0189988
-0.0180968
-0.0171365
-0.0161113
-0.0150129
-0.0138323
-0.0125607
-0.0111908
-0.00971951
-0.00815134
-0.00650586
-0.00482562
-0.00318204
-0.0016797
-0.000437918
0.00045066
0.000963339
0.00114695
0.0011134
0.000984944
0.000839561
0.000735692
0.000672945
0.00297137
0.00261901
0.00216624
0.00179466
0.00147995
0.00114554
0.000747311
0.000255375
-0.000349313
-0.00107602
-0.00192797
-0.00290022
-0.00398263
-0.00515948
-0.00641112
-0.00771643
-0.00905474
-0.0104068
-0.0117551
-0.0130841
-0.0143805
-0.0156336
-0.016835
-0.0179788
-0.0190609
-0.020079
-0.0210317
-0.0219187
-0.02274
-0.023496
-0.0241872
-0.0248143
-0.0253778
-0.0258782
-0.0263157
-0.0266908
-0.0270037
-0.0272546
-0.0274438
-0.0275715
-0.0276382
-0.0276443
-0.0275904
-0.0274773
-0.0273059
-0.0270773
-0.0267929
-0.026454
-0.0260623
-0.0256195
-0.0251272
-0.0245872
-0.024001
-0.0233697
-0.022694
-0.0219738
-0.0212083
-0.0203952
-0.019531
-0.0186105
-0.0176268
-0.0165711
-0.0154333
-0.0142022
-0.0128665
-0.0114177
-0.0098525
-0.00817838
-0.00642267
-0.00464328
-0.00293346
-0.00141869
-0.000238488
0.000519748
0.000867382
0.000899649
0.000771421
0.00060687
0.000478358
0.000398187
0.00303349
0.0026526
0.00216101
0.00175263
0.00139718
0.0010122
0.000548837
-2.40165e-05
-0.000723031
-0.0015553
-0.00251875
-0.0036035
-0.00479407
-0.00607025
-0.00740933
-0.00878859
-0.0101867
-0.0115843
-0.0129644
-0.0143124
-0.0156166
-0.0168681
-0.0180607
-0.0191901
-0.0202542
-0.0212519
-0.0221832
-0.0230486
-0.0238488
-0.0245849
-0.0252577
-0.025868
-0.0264166
-0.0269041
-0.0273308
-0.0276972
-0.0280036
-0.0282502
-0.0284372
-0.028565
-0.0286338
-0.0286442
-0.0285967
-0.028492
-0.028331
-0.0281147
-0.0278443
-0.0275211
-0.0271467
-0.0267225
-0.0262502
-0.0257314
-0.0251674
-0.0245595
-0.0239084
-0.0232143
-0.0224763
-0.0216927
-0.0208602
-0.0199741
-0.0190277
-0.0180123
-0.0169174
-0.0157307
-0.014439
-0.0130298
-0.0114937
-0.0098285
-0.00804705
-0.0061907
-0.00434024
-0.00260655
-0.0011406
-9.26255e-05
0.000474555
0.000623941
0.000521879
0.00033895
0.000173683
7.4751e-05
0.00297328
0.0025686
0.00204312
0.00159967
0.00120339
0.000766309
0.000237127
-0.000413566
-0.00120231
-0.00213323
-0.00319861
-0.00438383
-0.00566852
-0.00702876
-0.00843964
-0.00987736
-0.0113203
-0.0127494
-0.0141485
-0.0155044
-0.0168074
-0.0180503
-0.0192289
-0.0203407
-0.0213849
-0.0223618
-0.0232722
-0.0241172
-0.0248981
-0.0256163
-0.0262728
-0.0268686
-0.0274045
-0.0278812
-0.0282991
-0.0286586
-0.0289599
-0.0292034
-0.0293892
-0.0295176
-0.029589
-0.0296037
-0.0295624
-0.0294655
-0.029314
-0.0291087
-0.0288508
-0.0285414
-0.0281819
-0.0277738
-0.0273184
-0.0268174
-0.0262719
-0.0256833
-0.0250524
-0.0243793
-0.0236637
-0.0229042
-0.022098
-0.0212411
-0.0203273
-0.0193484
-0.0182943
-0.0171523
-0.0159085
-0.014548
-0.0130574
-0.0114277
-0.00965886
-0.0077736
-0.00583921
-0.00395256
-0.0022467
-0.000903426
-6.50525e-05
0.000264381
0.00022578
2.70081e-05
-0.000182352
-0.000299412
0.00278187
0.00235907
0.00180567
0.0013299
0.000893026
0.000404547
-0.000187155
-0.000911306
-0.00178348
-0.00280327
-0.00395881
-0.00523065
-0.00659423
-0.00802274
-0.00948973
-0.0109708
-0.0124444
-0.0138922
-0.0152991
-0.0166538
-0.0179483
-0.0191775
-0.0203387
-0.021431
-0.0224548
-0.0234112
-0.0243018
-0.025128
-0.0258915
-0.0265939
-0.0272362
-0.0278196
-0.0283449
-0.0288126
-0.0292233
-0.0295772
-0.0298748
-0.0301161
-0.0303015
-0.0304311
-0.0305052
-0.0305244
-0.0304889
-0.0303994
-0.0302566
-0.0300613
-0.0298145
-0.0295174
-0.0291711
-0.0287768
-0.0283361
-0.0278502
-0.0273204
-0.0267479
-0.0261336
-0.0254778
-0.0247805
-0.0240406
-0.0232561
-0.0224235
-0.0215375
-0.020591
-0.0195743
-0.0184753
-0.0172798
-0.015972
-0.0145358
-0.0129581
-0.0112301
-0.00935523
-0.00737701
-0.00540104
-0.00352203
-0.00191077
-0.000772138
-0.000209098
-0.000139926
-0.000337413
-0.000590646
-0.000724164
0.00245683
0.00202206
0.00144737
0.000942656
0.000466889
-7.05374e-05
-0.000720123
-0.00151123
-0.00245789
-0.00355559
-0.00478818
-0.0061319
-0.00755881
-0.00903999
-0.010548
-0.0120583
-0.0135496
-0.0150047
-0.0164101
-0.0177563
-0.0190369
-0.0202488
-0.0213906
-0.0224627
-0.0234663
-0.0244032
-0.0252753
-0.0260845
-0.0268325
-0.027521
-0.0281511
-0.0287239
-0.0292402
-0.0297005
-0.0301053
-0.030455
-0.0307497
-0.0309898
-0.0311752
-0.0313064
-0.0313835
-0.0314069
-0.031377
-0.0312944
-0.0311596
-0.0309735
-0.0307368
-0.0304507
-0.030116
-0.0297341
-0.0293062
-0.0288335
-0.0283171
-0.0277583
-0.027158
-0.0265166
-0.0258344
-0.0251107
-0.0243441
-0.0235317
-0.0226693
-0.0217508
-0.0207675
-0.0197083
-0.0185595
-0.0173048
-0.0159269
-0.0144095
-0.0127392
-0.0109071
-0.00892624
-0.00689627
-0.00491239
-0.00309578
-0.00167025
-0.000830034
-0.000592498
-0.000762367
-0.00104889
-0.00119875
0.00200151
0.00156121
0.000971936
0.000442084
-6.96466e-05
-0.000651438
-0.00135312
-0.00220391
-0.00321482
-0.00437824
-0.00567403
-0.00707473
-0.00854977
-0.0100688
-0.0116037
-0.0131303
-0.0146282
-0.0160812
-0.0174776
-0.0188095
-0.0200726
-0.0212648
-0.0223863
-0.0234381
-0.0244222
-0.0253407
-0.0261959
-0.0269897
-0.027724
-0.0284003
-0.0290199
-0.0295836
-0.0300924
-0.0305466
-0.0309467
-0.031293
-0.0315857
-0.0318249
-0.0320109
-0.0321439
-0.032224
-0.0322516
-0.0322271
-0.0321509
-0.0320236
-0.0318458
-0.0316184
-0.0313421
-0.031018
-0.0306471
-0.0302306
-0.0297695
-0.0292649
-0.0287181
-0.0281297
-0.0275007
-0.0268312
-0.0261211
-0.0253694
-0.024574
-0.0237316
-0.0228371
-0.0218833
-0.0208601
-0.0197549
-0.0185519
-0.017233
-0.0157799
-0.0141765
-0.0124079
-0.0104674
-0.00840234
-0.00636595
-0.00441583
-0.00274448
-0.0016132
-0.0011584
-0.00126476
-0.0015566
-0.00172811
0.00142433
0.000984924
0.000387313
-0.000163042
-0.000706615
-0.00132764
-0.00207487
-0.00297652
-0.00404102
-0.00525765
-0.00660281
-0.00804608
-0.0095549
-0.011098
-0.0126473
-0.0141791
-0.0156738
-0.017117
-0.0184986
-0.0198124
-0.0210553
-0.0222267
-0.0233275
-0.0243595
-0.025325
-0.0262265
-0.0270662
-0.0278462
-0.0285683
-0.029234
-0.0298444
-0.0304004
-0.0309027
-0.0313518
-0.031748
-0.0320917
-0.0323829
-0.0326218
-0.0328087
-0.0329435
-0.0330266
-0.0330583
-0.0330388
-0.0329686
-0.0328482
-0.0326782
-0.0324592
-0.032192
-0.0318775
-0.0315166
-0.0311103
-0.0306597
-0.0301657
-0.0296295
-0.0290518
-0.0284335
-0.0277751
-0.0270767
-0.0263377
-0.0255568
-0.0247315
-0.0238578
-0.0229296
-0.0219386
-0.0208733
-0.0197189
-0.0184577
-0.0170699
-0.0155375
-0.0138439
-0.0119695
-0.0099139
-0.00783725
-0.00581969
-0.00396876
-0.00256744
-0.0018601
-0.00184389
-0.00211779
-0.00232251
0.000737756
0.00030567
-0.000293997
-0.000859975
-0.00143036
-0.00208512
-0.00287123
-0.00381475
-0.00492198
-0.00617946
-0.00756073
-0.00903307
-0.0105626
-0.0121176
-0.0136704
-0.0151978
-0.0166817
-0.0181092
-0.0194717
-0.0207644
-0.0219857
-0.0231357
-0.0242161
-0.025229
-0.026177
-0.0270627
-0.0278883
-0.0286559
-0.0293671
-0.0300234
-0.0306258
-0.0311751
-0.0316719
-0.0321167
-0.0325098
-0.0328513
-0.0331414
-0.0333803
-0.0335681
-0.033705
-0.033791
-0.0338265
-0.0338118
-0.0337472
-0.0336332
-0.0334703
-0.0332591
-0.0330003
-0.0326946
-0.0323429
-0.031946
-0.031505
-0.0310206
-0.030494
-0.029926
-0.0293174
-0.0286689
-0.0279808
-0.027253
-0.0264848
-0.0256743
-0.0248187
-0.0239131
-0.0229506
-0.0219213
-0.0208118
-0.0196053
-0.0182819
-0.0168213
-0.0152055
-0.0134126
-0.0114241
-0.00930873
-0.00726358
-0.00530898
-0.00368675
-0.00271673
-0.00251463
-0.00274771
-0.00299819
-4.10284e-05
-0.000461613
-0.00105677
-0.00163347
-0.00222616
-0.00290917
-0.00372666
-0.00470307
-0.00584246
-0.00712907
-0.0085342
-0.0100234
-0.0115621
-0.0131185
-0.0146655
-0.0161809
-0.017648
-0.0190553
-0.0203957
-0.0216658
-0.0228647
-0.0239934
-0.0250538
-0.0260485
-0.0269802
-0.0278513
-0.028664
-0.0294203
-0.0301218
-0.0307697
-0.031365
-0.0319084
-0.0324005
-0.0328416
-0.0332319
-0.0335717
-0.033861
-0.0341001
-0.0342889
-0.0344277
-0.0345165
-0.0345557
-0.0345454
-0.034486
-0.034378
-0.0342217
-0.0340177
-0.0337666
-0.0334691
-0.0331258
-0.0327377
-0.0323055
-0.0318301
-0.0313125
-0.0307534
-0.0301538
-0.0295145
-0.0288359
-0.0281182
-0.0273613
-0.026564
-0.0257244
-0.0248388
-0.0239016
-0.0229046
-0.0218362
-0.0206808
-0.0194193
-0.0180301
-0.0164937
-0.0147901
-0.0128892
-0.0107815
-0.00871721
-0.00672325
-0.00494564
-0.00373296
-0.00331216
-0.00346438
-0.00377642
-0.000892887
-0.00129946
-0.00188504
-0.00246807
-0.00307814
-0.0037835
-0.00462504
-0.00562563
-0.00678726
-0.00809225
-0.00951023
-0.0110057
-0.0125437
-0.0140927
-0.0156264
-0.0171238
-0.0185697
-0.0199537
-0.0212702
-0.0225167
-0.0236931
-0.0248008
-0.0258421
-0.0268196
-0.0277359
-0.0285934
-0.0293944
-0.0301404
-0.0308331
-0.0314735
-0.0320625
-0.0326006
-0.0330885
-0.0335263
-0.0339143
-0.0342526
-0.0345413
-0.0347806
-0.0349704
-0.035111
-0.0352025
-0.035245
-0.0352389
-0.0351844
-0.0350819
-0.0349317
-0.0347344
-0.0344904
-0.0342005
-0.0338652
-0.0334852
-0.0330613
-0.0325944
-0.0320852
-0.0315346
-0.0309435
-0.0303128
-0.0296431
-0.0289349
-0.0281884
-0.0274032
-0.026578
-0.0257103
-0.0247958
-0.0238279
-0.0227967
-0.0216885
-0.0204851
-0.0191653
-0.0177072
-0.0160903
-0.0142843
-0.0122623
-0.0101687
-0.00817454
-0.00631515
-0.00490441
-0.00425685
-0.00428541
-0.00468492
-0.00179941
-0.00218962
-0.00276163
-0.00334665
-0.00396915
-0.00469102
-0.00554988
-0.00656667
-0.00774155
-0.00905541
-0.0104767
-0.0119694
-0.0134985
-0.0150331
-0.0165478
-0.0180229
-0.0194443
-0.0208032
-0.0220948
-0.0233174
-0.0244715
-0.0255589
-0.0265819
-0.0275431
-0.0284451
-0.0292901
-0.0300802
-0.0308169
-0.0315015
-0.032135
-0.0327182
-0.0332516
-0.0337357
-0.0341706
-0.0345565
-0.0348935
-0.0351817
-0.0354212
-0.0356121
-0.0357544
-0.0358483
-0.035894
-0.0358917
-0.0358416
-0.0357441
-0.0355996
-0.0354085
-0.0351712
-0.0348884
-0.0345604
-0.0341881
-0.0337721
-0.0333132
-0.0328121
-0.0322696
-0.0316867
-0.0310643
-0.0304031
-0.029704
-0.0289674
-0.0281934
-0.0273815
-0.0265301
-0.0256362
-0.0246946
-0.0236972
-0.0226322
-0.0214834
-0.02023
-0.0188486
-0.0173179
-0.0156122
-0.0136997
-0.011607
-0.00963621
-0.00776384
-0.0062162
-0.00534985
-0.00523689
-0.00574256
-0.00274192
-0.00311381
-0.00366881
-0.00425152
-0.0048818
-0.00561496
-0.00648509
-0.00751102
-0.00869135
-0.0100059
-0.0114226
-0.0129052
-0.0144189
-0.0159337
-0.0174252
-0.0188749
-0.0202699
-0.0216026
-0.022869
-0.0240681
-0.0252006
-0.0262684
-0.027274
-0.0282199
-0.0291085
-0.0299419
-0.0307219
-0.0314499
-0.0321271
-0.0327543
-0.0333323
-0.0338613
-0.0343419
-0.0347741
-0.0351581
-0.0354939
-0.0357817
-0.0360214
-0.0362132
-0.0363571
-0.0364532
-0.0365017
-0.0365029
-0.036457
-0.0363642
-0.0362249
-0.0360395
-0.0358084
-0.0355321
-0.0352111
-0.034846
-0.0344375
-0.0339862
-0.0334928
-0.0329582
-0.0323833
-0.031769
-0.0311162
-0.0304258
-0.0296987
-0.0289354
-0.028136
-0.0272997
-0.0264246
-0.025507
-0.0245404
-0.0235149
-0.0224163
-0.0212253
-0.019919
-0.0184759
-0.016875
-0.0150749
-0.0130349
-0.0110696
-0.00923887
-0.00762358
-0.00657695
-0.00634435
-0.00693701
-0.00370228
-0.00405374
-0.00458882
-0.00516579
-0.00579976
-0.00653947
-0.00741555
-0.00844455
-0.00962373
-0.0109323
-0.012338
-0.0138046
-0.0152981
-0.0167892
-0.0182547
-0.0196771
-0.0210449
-0.0223511
-0.0235926
-0.0247686
-0.0258803
-0.0269296
-0.0279189
-0.0288504
-0.0297264
-0.030549
-0.0313196
-0.0320395
-0.0327098
-0.0333313
-0.0339043
-0.0344294
-0.0349067
-0.0353365
-0.0357187
-0.0360534
-0.0363407
-0.0365806
-0.0367731
-0.0369184
-0.0370166
-0.0370677
-0.0370721
-0.0370298
-0.0369413
-0.0368068
-0.0366266
-0.0364013
-0.0361311
-0.0358166
-0.0354583
-0.0350568
-0.0346128
-0.0341269
-0.0336
-0.0330329
-0.0324265
-0.0317819
-0.0311002
-0.0303824
-0.0296294
-0.0288419
-0.0280198
-0.0271621
-0.0262665
-0.025328
-0.0243386
-0.0232861
-0.0221532
-0.020918
-0.0195577
-0.0180514
-0.0163644
-0.0144559
-0.0124796
-0.010699
-0.00907342
-0.00790606
-0.00760154
-0.00823705
-0.00466279
-0.00499205
-0.00550487
-0.00607339
-0.00670762
-0.00744983
-0.0083273
-0.00935434
-0.0105271
-0.0118243
-0.013214
-0.0146604
-0.0161302
-0.0175952
-0.0190329
-0.0204273
-0.0217676
-0.0230478
-0.024265
-0.025419
-0.0265109
-0.0275427
-0.0285165
-0.0294345
-0.0302989
-0.0311113
-0.0318732
-0.0325857
-0.0332496
-0.0338656
-0.0344342
-0.0349555
-0.0354298
-0.0358572
-0.0362377
-0.0365714
-0.0368582
-0.0370982
-0.0372915
-0.037438
-0.0375379
-0.0375914
-0.0375986
-0.0375597
-0.037475
-0.0373448
-0.0371695
-0.0369494
-0.0366848
-0.0363764
-0.0360245
-0.0356297
-0.0351926
-0.0347139
-0.0341944
-0.0336348
-0.0330363
-0.0323999
-0.0317267
-0.031018
-0.0302751
-0.029499
-0.0286903
-0.027849
-0.0269737
-0.0260609
-0.0251046
-0.0240944
-0.0230154
-0.0218471
-0.0205659
-0.0191501
-0.0175731
-0.0158013
-0.0138542
-0.0121219
-0.0105249
-0.00929485
-0.00894854
-0.00956884
-0.00560701
-0.00591279
-0.00640179
-0.0069596
-0.00759121
-0.0083326
-0.00920776
-0.0102289
-0.011391
-0.0126729
-0.014043
-0.0154663
-0.0169103
-0.0183477
-0.0197571
-0.0211235
-0.0224368
-0.0236917
-0.0248858
-0.0260188
-0.0270921
-0.0281074
-0.0290667
-0.0299723
-0.0308258
-0.0316288
-0.0323826
-0.0330881
-0.0337461
-0.034357
-0.0349213
-0.0354392
-0.0359107
-0.0363359
-0.0367148
-0.0370474
-0.0373337
-0.0375738
-0.0377676
-0.0379152
-0.0380166
-0.0380721
-0.0380819
-0.038046
-0.0379648
-0.0378385
-0.0376676
-0.0374522
-0.0371929
-0.03689
-0.036544
-0.0361555
-0.0357249
-0.0352531
-0.0347407
-0.0341886
-0.0335977
-0.0329693
-0.0323045
-0.0316049
-0.0308719
-0.0301068
-0.0293109
-0.0284849
-0.0276284
-0.0267394
-0.0258132
-0.0248416
-0.0238119
-0.0227053
-0.0214994
-0.0201733
-0.0187062
-0.0170558
-0.0151871
-0.0134787
-0.0119322
-0.0106857
-0.0102897
-0.010814
-0.00651919
-0.00680166
-0.00726584
-0.00781117
-0.00843789
-0.00917581
-0.0100458
-0.011058
-0.0122068
-0.0134703
-0.0148184
-0.0162169
-0.0176341
-0.0190435
-0.0204249
-0.0217638
-0.0230512
-0.024282
-0.0254542
-0.0265676
-0.0276234
-0.0286234
-0.0295694
-0.0304633
-0.0313067
-0.032101
-0.0328473
-0.0335463
-0.0341988