/*--------------------------------*- C++ -*----------------------------------*\
  =========                 |
  \\      /  F ield         | OpenFOAM: The Open Source CFD Toolbox
   \\    /   O peration     | Website:  https://openfoam.org
    \\  /    A nd           | Version:  13
     \\/     M anipulation  |
\*---------------------------------------------------------------------------*/
FoamFile
{
    format      ascii;
    class       surfaceScalarField;
    location    "9.8";
    object      phi;
}
// * * * * * * * * * * * * * * * * * * * * * * * * * * * * * * * * * * * * * //

dimensions      [0 3 -1 0 0 0 0];

internalField   nonuniform List<scalar> 
12640
(
1.66586e-09
-1.66616e-09
1.5573e-08
-1.39071e-08
4.00528e-08
-2.44799e-08
6.8264e-08
-2.82111e-08
9.36681e-08
-2.54041e-08
1.12608e-07
-1.89396e-08
1.23721e-07
-1.11129e-08
1.27963e-07
-4.24265e-09
1.27702e-07
2.60828e-10
1.25347e-07
2.3554e-09
1.22919e-07
2.42801e-09
1.21719e-07
1.20024e-09
1.22146e-07
-4.2758e-10
1.23896e-07
-1.74909e-09
1.26086e-07
-2.19089e-09
1.27754e-07
-1.66741e-09
1.27992e-07
-2.38418e-10
1.26279e-07
1.71348e-09
1.2173e-07
4.54845e-09
1.13459e-07
8.2714e-09
1.00932e-07
1.2527e-08
8.35399e-08
1.7392e-08
6.08511e-08
2.26888e-08
3.26777e-08
2.81734e-08
-1.01644e-09
3.36941e-08
-4.04664e-08
3.94499e-08
-8.71637e-08
4.66973e-08
-1.4363e-07
5.6466e-08
-2.12807e-07
6.91769e-08
-2.96739e-07
8.39321e-08
-3.94172e-07
9.74329e-08
-5.01388e-07
1.07216e-07
-6.14798e-07
1.1341e-07
-7.30923e-07
1.16125e-07
-8.46747e-07
1.15825e-07
-9.59661e-07
1.12913e-07
-1.06754e-06
1.0788e-07
-1.16867e-06
1.0113e-07
-1.26171e-06
9.30363e-08
-1.34561e-06
8.39008e-08
-1.41952e-06
7.39097e-08
-1.48276e-06
6.32381e-08
-1.53471e-06
5.19531e-08
-1.57479e-06
4.00855e-08
-1.6024e-06
2.76047e-08
-1.61751e-06
1.5116e-08
-1.62012e-06
2.60848e-09
-1.60832e-06
-1.17994e-08
-1.58306e-06
-2.52598e-08
-1.54314e-06
-3.99216e-08
-1.4888e-06
-5.43477e-08
-1.41984e-06
-6.89528e-08
-1.33667e-06
-8.31734e-08
-1.23975e-06
-9.69146e-08
-1.12976e-06
-1.09994e-07
-1.00764e-06
-1.2212e-07
-8.74865e-07
-1.32776e-07
-7.33306e-07
-1.41559e-07
-5.85379e-07
-1.47928e-07
-4.33993e-07
-1.51386e-07
-2.82702e-07
-1.5129e-07
-1.35356e-07
-1.47346e-07
4.03825e-09
-1.39394e-07
1.323e-07
-1.28261e-07
2.44485e-07
-1.12185e-07
3.36909e-07
-9.24241e-08
4.06427e-07
-6.95185e-08
4.50647e-07
-4.422e-08
4.68353e-07
-1.77061e-08
4.58397e-07
9.95673e-09
4.23928e-07
3.44683e-08
3.67568e-07
5.63608e-08
2.956e-07
7.19676e-08
2.18018e-07
7.75823e-08
1.45243e-07
7.27743e-08
8.45945e-08
6.06488e-08
3.97713e-08
4.48232e-08
1.12966e-08
2.84746e-08
-8.23057e-10
1.21197e-08
-8.23058e-10
1.07473e-08
-1.24135e-08
4.42203e-08
-4.738e-08
9.04947e-08
-7.07543e-08
1.37611e-07
-7.53277e-08
1.77854e-07
-6.56466e-08
2.0741e-07
-4.84962e-08
2.25708e-07
-2.94105e-08
2.33785e-07
-1.232e-08
2.33488e-07
5.58371e-10
2.27212e-07
8.63067e-09
2.17267e-07
1.2373e-08
2.05231e-07
1.3237e-08
1.91571e-07
1.32316e-08
1.75693e-07
1.41293e-08
1.56514e-07
1.69879e-08
1.32882e-07
2.19649e-08
1.0386e-07
2.8783e-08
6.81607e-08
3.74132e-08
2.45385e-08
4.81706e-08
-2.85655e-08
6.13754e-08
-9.32407e-08
7.72022e-08
-1.71226e-07
9.53777e-08
-2.63687e-07
1.15149e-07
-3.71471e-07
1.35957e-07
-4.95115e-07
1.57338e-07
-6.3426e-07
1.78595e-07
-7.86221e-07
1.98659e-07
-9.46615e-07
2.1686e-07
-1.10987e-06
2.32437e-07
-1.27022e-06
2.44278e-07
-1.42433e-06
2.5154e-07
-1.5712e-06
2.54092e-07
-1.70945e-06
2.51652e-07
-1.83783e-06
2.44506e-07
-1.95537e-06
2.33371e-07
-2.06144e-06
2.18981e-07
-2.15556e-06
2.02003e-07
-2.23746e-06
1.83024e-07
-2.3069e-06
1.62482e-07
-2.36377e-06
1.4077e-07
-2.40795e-06
1.18082e-07
-2.43932e-06
9.46083e-08
-2.4578e-06
7.04343e-08
-2.46335e-06
4.5634e-08
-2.45596e-06
2.02214e-08
-2.43494e-06
-5.90224e-09
-2.40043e-06
-3.19079e-08
-2.35283e-06
-5.9394e-08
-2.29108e-06
-8.70173e-08
-2.21578e-06
-1.15215e-07
-2.12654e-06
-1.43595e-07
-2.02345e-06
-1.72036e-07
-1.90647e-06
-2.00161e-07
-1.77583e-06
-2.27554e-07
-1.63221e-06
-2.5361e-07
-1.47677e-06
-2.77556e-07
-1.31082e-06
-2.98731e-07
-1.13625e-06
-3.16123e-07
-9.55438e-07
-3.28744e-07
-7.71099e-07
-3.35725e-07
-5.86297e-07
-3.36092e-07
-4.04478e-07
-3.29165e-07
-2.29188e-07
-3.14684e-07
-6.4769e-08
-2.9268e-07
8.59791e-08
-2.62933e-07
2.19543e-07
-2.25988e-07
3.32576e-07
-1.82552e-07
4.22518e-07
-1.34162e-07
4.86983e-07
-8.21711e-08
5.25666e-07
-2.87264e-08
5.36762e-07
2.33721e-08
5.21079e-07
7.20445e-08
4.80614e-07
1.12432e-07
4.16247e-07
1.41949e-07
3.31793e-07
1.57228e-07
2.37705e-07
1.54737e-07
1.46453e-07
1.36075e-07
7.04667e-08
1.04461e-07
1.9792e-08
6.27944e-08
1.89689e-08
2.03847e-08
-3.27982e-08
6.75871e-08
-9.45824e-08
1.20443e-07
-1.2361e-07
1.66895e-07
-1.2178e-07
2.02485e-07
-1.01237e-07
2.26279e-07
-7.22893e-08
2.38998e-07
-4.21299e-08
2.41646e-07
-1.49682e-08
2.35419e-07
6.78572e-09
2.2183e-07
2.22194e-08
2.02284e-07
3.19189e-08
1.77354e-07
3.81675e-08
1.46826e-07
4.3759e-08
1.09859e-07
5.10968e-08
6.52675e-08
6.15792e-08
1.16102e-08
7.56222e-08
-5.28616e-08
9.32548e-08
-1.29959e-07
1.14511e-07
-2.21217e-07
1.39428e-07
-3.27835e-07
1.67994e-07
-4.50237e-07
1.99605e-07
-5.87996e-07
2.33137e-07
-7.40003e-07
2.67156e-07
-9.03699e-07
2.99653e-07
-1.07554e-06
3.29179e-07
-1.2512e-06
3.54255e-07
-1.42638e-06
3.73841e-07
-1.59707e-06
3.87546e-07
-1.7597e-06
3.9507e-07
-1.91178e-06
3.96358e-07
-2.05187e-06
3.91626e-07
-2.17908e-06
3.81309e-07
-2.2935e-06
3.66064e-07
-2.39554e-06
3.46552e-07
-2.48553e-06
3.2336e-07
-2.56382e-06
2.97271e-07
-2.6307e-06
2.68878e-07
-2.6864e-06
2.38725e-07
-2.73107e-06
2.07157e-07
-2.76483e-06
1.74532e-07
-2.78774e-06
1.40985e-07
-2.79975e-06
1.06626e-07
-2.80082e-06
7.15056e-08
-2.79083e-06
3.56348e-08
-2.7695e-06
-1.10032e-09
-2.73691e-06
-3.84912e-08
-2.69207e-06
-7.67537e-08
-2.63542e-06
-1.16048e-07
-2.56637e-06
-1.56063e-07
-2.48478e-06
-1.96807e-07
-2.3904e-06
-2.37976e-07
-2.28312e-06
-2.79311e-07
-2.16293e-06
-3.20352e-07
-2.03002e-06
-3.60466e-07
-1.88486e-06
-3.98769e-07
-1.7282e-06
-4.34209e-07
-1.56116e-06
-4.65776e-07
-1.38517e-06
-4.92111e-07
-1.2022e-06
-5.11718e-07
-1.01478e-06
-5.23144e-07
-8.2578e-07
-5.2509e-07
-6.3854e-07
-5.16405e-07
-4.56674e-07
-4.9655e-07
-2.83898e-07
-4.65457e-07
-1.23332e-07
-4.23499e-07
2.19665e-08
-3.71286e-07
1.494e-07
-3.09985e-07
2.56477e-07
-2.4124e-07
3.41793e-07
-1.67487e-07
4.04536e-07
-9.14692e-08
4.43983e-07
-1.60747e-08
4.59569e-07
5.64586e-08
4.5029e-07
1.21711e-07
4.17343e-07
1.74897e-07
3.62686e-07
2.11884e-07
2.89062e-07
2.28362e-07
2.03239e-07
2.21898e-07
1.15868e-07
1.91832e-07
4.06561e-08
1.38007e-07
5.96251e-08
2.83613e-08
-6.11595e-08
8.20208e-08
-1.48242e-07
1.32344e-07
-1.73933e-07
1.70746e-07
-1.60182e-07
1.96023e-07
-1.26514e-07
2.09442e-07
-8.57075e-08
2.12236e-07
-4.49246e-08
2.05559e-07
-8.29034e-09
1.90204e-07
2.21403e-08
1.66633e-07
4.57904e-08
1.34616e-07
6.39361e-08
9.36291e-08
7.91542e-08
4.28849e-08
9.45032e-08
-1.85614e-08
1.12543e-07
-9.18137e-08
1.34832e-07
-1.78238e-07
1.62046e-07
-2.79282e-07
1.94299e-07
-3.96187e-07
2.31415e-07
-5.29452e-07
2.72694e-07
-6.78504e-07
3.17045e-07
-8.41433e-07
3.62534e-07
-1.015e-06
4.06704e-07
-1.19528e-06
4.47433e-07
-1.37793e-06
4.82309e-07
-1.55884e-06
5.10086e-07
-1.73411e-06
5.2952e-07
-1.90028e-06
5.40015e-07
-2.05477e-06
5.42035e-07
-2.1963e-06
5.36599e-07
-2.32453e-06
5.24587e-07
-2.43972e-06
5.06821e-07
-2.54247e-06
4.84061e-07
-2.63343e-06
4.57023e-07
-2.71332e-06
4.26438e-07
-2.78282e-06
3.92864e-07
-2.84247e-06
3.56916e-07
-2.89265e-06
3.19056e-07
-2.93364e-06
2.79721e-07
-2.96564e-06
2.39154e-07
-2.98868e-06
1.97576e-07
-3.00277e-06
1.55068e-07
-3.00781e-06
1.11666e-07
-3.00362e-06
6.73205e-08
-2.98996e-06
2.19761e-08
-2.96665e-06
-2.44141e-08
-2.93324e-06
-7.18962e-08
-2.88937e-06
-1.20631e-07
-2.83474e-06
-1.70674e-07
-2.76891e-06
-2.21898e-07
-2.69154e-06
-2.74175e-07
-2.60228e-06
-3.27234e-07
-2.50085e-06
-3.80737e-07
-2.38704e-06
-4.34163e-07
-2.26074e-06
-4.86769e-07
-2.12203e-06
-5.37477e-07
-1.97139e-06
-5.84848e-07
-1.80961e-06
-6.27564e-07
-1.63777e-06
-6.6395e-07
-1.45745e-06
-6.92036e-07
-1.27073e-06
-7.09862e-07
-1.08017e-06
-7.15654e-07
-8.88881e-07
-7.07692e-07
-7.00581e-07
-6.8485e-07
-5.19415e-07
-6.46623e-07
-3.49054e-07
-5.9386e-07
-1.92581e-07
-5.2776e-07
-5.28771e-08
-4.49689e-07
6.79266e-08
-3.62043e-07
1.68219e-07
-2.67779e-07
2.47034e-07
-1.70284e-07
3.04078e-07
-7.31185e-08
3.40088e-07
2.04486e-08
3.54964e-07
1.06835e-07
3.48209e-07
1.81651e-07
3.19777e-07
2.40316e-07
2.70577e-07
2.77562e-07
2.04385e-07
2.8809e-07
1.27065e-07
2.69151e-07
4.91655e-08
2.15906e-07
1.08791e-07
3.44827e-08
-9.56422e-08
8.73574e-08
-2.01117e-07
1.28754e-07
-2.1533e-07
1.5546e-07
-1.86888e-07
1.68333e-07
-1.39387e-07
1.69659e-07
-8.70342e-08
1.60834e-07
-3.60994e-08
1.42592e-07
9.95201e-09
1.15096e-07
4.9636e-08
7.78695e-08
8.3017e-08
2.99253e-08
1.1188e-07
-2.9935e-08
1.39014e-07
-1.0287e-07
1.67438e-07
-1.8994e-07
1.99613e-07
-2.92135e-07
2.37027e-07
-4.10272e-07
2.80183e-07
-5.44729e-07
3.28755e-07
-6.95172e-07
3.81859e-07
-8.60027e-07
4.37548e-07
-1.03611e-06
4.93132e-07
-1.21956e-06
5.45977e-07
-1.40581e-06
5.92954e-07
-1.59056e-06
6.32189e-07
-1.76963e-06
6.6138e-07
-1.93875e-06
6.792e-07
-2.09545e-06
6.86223e-07
-2.23894e-06
6.83506e-07
-2.36927e-06
6.72362e-07
-2.4869e-06
6.54228e-07
-2.59253e-06
6.30223e-07
-2.68704e-06
6.01328e-07
-2.77123e-06
5.68256e-07
-2.84584e-06
5.31629e-07
-2.91149e-06
4.92088e-07
-2.96876e-06
4.50134e-07
-3.01806e-06
4.06211e-07
-3.05968e-06
3.60679e-07
-3.09383e-06
3.13875e-07
-3.12062e-06
2.65944e-07
-3.14005e-06
2.17007e-07
-3.15202e-06
1.6703e-07
-3.15643e-06
1.16077e-07
-3.15308e-06
6.39698e-08
-3.14162e-06
1.05182e-08
-3.12187e-06
-4.41638e-08
-3.09338e-06
-1.00383e-07
-3.05576e-06
-1.5825e-07
-3.00858e-06
-2.17854e-07
-2.95126e-06
-2.79222e-07
-2.8833e-06
-3.42135e-07
-2.80421e-06
-4.06328e-07
-2.7135e-06
-4.7144e-07
-2.61076e-06
-5.36909e-07
-2.49554e-06
-6.01984e-07
-2.36747e-06
-6.65555e-07
-2.22671e-06
-7.256e-07
-2.07369e-06
-7.8059e-07
-1.90899e-06
-8.28642e-07
-1.73383e-06
-8.67205e-07
-1.54988e-06
-8.93812e-07
-1.3593e-06
-9.06228e-07
-1.16496e-06
-9.02032e-07
-9.70056e-07
-8.79756e-07
-7.78708e-07
-8.3797e-07
-5.95664e-07
-7.76903e-07
-4.25062e-07
-6.98362e-07
-2.69963e-07
-6.04788e-07
-1.33062e-07
-4.98944e-07
-1.64066e-08
-3.84435e-07
7.88498e-08
-2.65541e-07
1.52342e-07
-1.4661e-07
2.04658e-07
-3.18672e-08
2.36706e-07
7.47863e-08
2.49005e-07
1.69352e-07
2.41824e-07
2.47497e-07
2.15505e-07
3.03881e-07
1.71046e-07
3.3255e-07
1.1154e-07
3.28657e-07
4.47271e-08
2.82719e-07
1.53518e-07
3.80063e-08
-1.33649e-07
8.34479e-08
-2.46558e-07
1.11969e-07
-2.43851e-07
1.24535e-07
-1.99454e-07
1.24089e-07
-1.38941e-07
1.12644e-07
-7.55894e-08
9.1186e-08
-1.4641e-08
5.9838e-08
4.13e-08
1.81131e-08
9.13609e-08
-3.51452e-08
1.36275e-07
-1.01333e-07
1.78069e-07
-1.81845e-07
2.19526e-07
-2.77839e-07
2.63432e-07
-3.90122e-07
3.11896e-07
-5.1908e-07
3.65985e-07
-6.64417e-07
4.2552e-07
-8.24955e-07
4.89293e-07
-9.98259e-07
5.55163e-07
-1.1808e-06
6.20087e-07
-1.36798e-06
6.80309e-07
-1.5553e-06
7.333e-07
-1.73788e-06
7.75539e-07
-1.91066e-06
8.04962e-07
-2.07068e-06
8.21401e-07
-2.2172e-06
8.25723e-07
-2.3505e-06
8.1952e-07
-2.47136e-06
8.04366e-07
-2.58078e-06
7.81785e-07
-2.67964e-06
7.53083e-07
-2.76874e-06
7.19327e-07
-2.84882e-06
6.81411e-07
-2.92053e-06
6.39961e-07
-2.98447e-06
5.95568e-07
-3.04113e-06
5.48752e-07
-3.09092e-06
4.99923e-07
-3.13413e-06
4.49421e-07
-3.17091e-06
3.97456e-07
-3.20138e-06
3.44353e-07
-3.22566e-06
2.90218e-07
-3.24379e-06
2.35139e-07
-3.25561e-06
1.78847e-07
-3.26117e-06
1.21643e-07
-3.26045e-06
6.32519e-08
-3.25298e-06
3.04442e-09
-3.23903e-06
-5.81094e-08
-3.21782e-06
-1.21594e-07
-3.18893e-06
-1.87147e-07
-3.1519e-06
-2.54885e-07
-3.10608e-06
-3.25038e-07
-3.0508e-06
-3.97413e-07
-2.98527e-06
-4.71858e-07
-2.90866e-06
-5.48052e-07
-2.82026e-06
-6.25309e-07
-2.71964e-06
-7.02598e-07
-2.60622e-06
-7.78985e-07
-2.47929e-06
-8.52527e-07
-2.33877e-06
-9.21105e-07
-2.18468e-06
-9.82734e-07
-2.01772e-06
-1.03417e-06
-1.83926e-06
-1.07227e-06
-1.65085e-06
-1.09464e-06
-1.45515e-06
-1.09773e-06
-1.25514e-06
-1.07977e-06
-1.05459e-06
-1.03852e-06
-8.58113e-07
-9.73382e-07
-6.71081e-07
-8.85395e-07
-4.97903e-07
-7.77965e-07
-3.41926e-07
-6.54921e-07
-2.05953e-07
-5.20408e-07
-9.19266e-08
-3.79567e-07
-5.99054e-10
-2.37938e-07
6.84242e-08
-1.00891e-07
1.16418e-07
2.6793e-08
1.44948e-07
1.40822e-07
1.5502e-07
2.37425e-07
1.4725e-07
3.11651e-07
1.22095e-07
3.57705e-07
8.1798e-08
3.68953e-07
3.25904e-08
3.31927e-07
1.86108e-07
3.78975e-08
-1.71546e-07
7.04472e-08
-2.79108e-07
8.39395e-08
-2.57343e-07
8.16195e-08
-1.97134e-07
6.73636e-08
-1.24685e-07
4.25744e-08
-5.08002e-08
7.55924e-09
2.03742e-08
-3.81602e-08
8.70195e-08
-9.56437e-08
1.48844e-07
-1.663e-07
2.06932e-07
-2.51613e-07
2.63381e-07
-3.52833e-07
3.20747e-07
-4.70744e-07
3.81342e-07
-6.05483e-07
4.46635e-07
-7.56406e-07
5.16908e-07
-9.21882e-07
5.90996e-07
-1.09895e-06
6.66366e-07
-1.28347e-06
7.3968e-07
-1.47076e-06
8.07378e-07
-1.6558e-06
8.6535e-07
-1.83266e-06
9.10163e-07
-1.99743e-06
9.403e-07
-2.14861e-06
9.56147e-07
-2.28635e-06
9.59141e-07
-2.41156e-06
9.5093e-07
-2.52524e-06
9.33207e-07
-2.62845e-06
9.07575e-07
-2.72215e-06
8.75482e-07
-2.80711e-06
8.38041e-07
-2.88398e-06
7.96194e-07
-2.95327e-06
7.5071e-07
-3.0155e-06
7.02186e-07
-3.07109e-06
6.51161e-07
-3.1204e-06
5.98059e-07
-3.16373e-06
5.43249e-07
-3.20135e-06
4.87047e-07
-3.23324e-06
4.2934e-07
-3.25957e-06
3.70684e-07
-3.28048e-06
3.11129e-07
-3.296e-06
2.50666e-07
-3.30639e-06
1.8923e-07
-3.3114e-06
1.26654e-07
-3.31089e-06
6.27398e-08
-3.30483e-06
-3.01104e-09
-3.29325e-06
-6.9693e-08
-3.27629e-06
-1.38546e-07
-3.25385e-06
-2.09589e-07
-3.22572e-06
-2.83019e-07
-3.19162e-06
-3.59138e-07
-3.15083e-06
-4.38198e-07
-3.10247e-06
-5.20217e-07
-3.04552e-06
-6.05002e-07
-2.97864e-06
-6.92195e-07
-2.89994e-06
-7.81292e-07
-2.80767e-06
-8.71264e-07
-2.70054e-06
-9.59654e-07
-2.57802e-06
-1.04362e-06
-2.44021e-06
-1.12055e-06
-2.28737e-06
-1.18701e-06
-2.11971e-06
-1.23993e-06
-1.93816e-06
-1.27619e-06
-1.7452e-06
-1.29069e-06
-1.54335e-06
-1.28162e-06
-1.3362e-06
-1.24566e-06
-1.12806e-06
-1.18153e-06
-9.24394e-07
-1.08906e-06
-7.31607e-07
-9.70752e-07
-5.54483e-07
-8.32045e-07
-3.96603e-07
-6.78289e-07
-2.60936e-07
-5.15234e-07
-1.49232e-07
-3.49642e-07
-6.17247e-08
-1.88398e-07
2.82052e-09
-3.77522e-08
4.63261e-08
9.73161e-08
7.11604e-08
2.12591e-07
7.8904e-08
3.03907e-07
7.03409e-08
3.66268e-07
4.77704e-08
3.91524e-07
1.75159e-08
3.62181e-07
2.03624e-07
3.29756e-08
-2.04522e-07
5.00687e-08
-2.96201e-07
4.73713e-08
-2.54646e-07
2.99421e-08
-1.79705e-07
1.61215e-09
-9.63553e-08
-3.69841e-08
-1.2204e-08
-8.62747e-08
6.96648e-08
-1.47212e-07
1.47956e-07
-2.2111e-07
2.22743e-07
-3.09386e-07
2.95208e-07
-4.13289e-07
3.67284e-07
-5.33625e-07
4.41083e-07
-6.70488e-07
5.18205e-07
-8.23133e-07
5.9928e-07
-9.89737e-07
6.83512e-07
-1.16701e-06
7.68271e-07
-1.35053e-06
8.49886e-07
-1.53537e-06
9.24514e-07
-1.71548e-06
9.87488e-07
-1.88567e-06
1.03554e-06
-2.04294e-06
1.06744e-06
-2.18676e-06
1.08412e-06
-2.3176e-06
1.08699e-06
-2.43644e-06
1.07798e-06
-2.54435e-06
1.05884e-06
-2.64243e-06
1.03128e-06
-2.73158e-06
9.96727e-07
-2.81251e-06
9.56414e-07
-2.88578e-06
9.11306e-07
-2.95183e-06
8.62251e-07
-3.01106e-06
8.0994e-07
-3.06383e-06
7.54955e-07
-3.11045e-06
6.97779e-07
-3.15111e-06
6.38722e-07
-3.18602e-06
5.78155e-07
-3.21568e-06
5.16702e-07
-3.24084e-06
4.54503e-07
-3.26166e-06
3.91505e-07
-3.27813e-06
3.27602e-07
-3.29012e-06
2.62655e-07
-3.29779e-06
1.96902e-07
-3.30102e-06
1.29886e-07
-3.2999e-06
6.16127e-08
-3.29448e-06
-8.43244e-09
-3.28491e-06
-7.92627e-08
-3.27115e-06
-1.52306e-07
-3.2531e-06
-2.27638e-07
-3.23057e-06
-3.05546e-07
-3.20345e-06
-3.86261e-07
-3.17148e-06
-4.70166e-07
-3.13436e-06
-5.57338e-07
-3.09159e-06
-6.4777e-07
-3.04248e-06
-7.41302e-07
-2.9863e-06
-8.37475e-07
-2.9219e-06
-9.35667e-07
-2.84628e-06
-1.03528e-06
-2.75554e-06
-1.13435e-06
-2.64611e-06
-1.22998e-06
-2.51658e-06
-1.31655e-06
-2.36772e-06
-1.38878e-06
-2.20157e-06
-1.44234e-06
-2.01864e-06
-1.47362e-06
-1.82129e-06
-1.47898e-06
-1.61288e-06
-1.45408e-06
-1.39746e-06
-1.39695e-06
-1.17998e-06
-1.30654e-06
-9.67705e-07
-1.18302e-06
-7.68087e-07
-1.03166e-06
-5.86383e-07
-8.59993e-07
-4.26479e-07
-6.75138e-07
-2.91466e-07
-4.84655e-07
-1.82816e-07
-2.97047e-07
-1.00108e-07
-1.2046e-07
-4.10582e-08
3.8266e-08
-2.41003e-09
1.73943e-07
1.8389e-08
2.83108e-07
2.3803e-08
3.60854e-07
1.67721e-08
3.98555e-07
3.77244e-09
3.75181e-07
2.07396e-07
2.36348e-08
-2.28157e-07
2.38715e-08
-2.96438e-07
4.38449e-09
-2.35159e-07
-2.75767e-08
-1.47744e-07
-6.9973e-08
-5.39589e-08
-1.22733e-07
4.05561e-08
-1.86673e-07
1.33604e-07
-2.63025e-07
2.24308e-07
-3.53108e-07
3.12826e-07
-4.58097e-07
4.00197e-07
-5.78782e-07
4.87969e-07
-7.15279e-07
5.7758e-07
-8.66923e-07
6.69849e-07
-1.03196e-06
7.64319e-07
-1.20694e-06
8.58496e-07
-1.38732e-06
9.48643e-07
-1.56785e-06
1.03041e-06
-1.74238e-06
1.09904e-06
-1.90623e-06
1.15135e-06
-2.05725e-06
1.18656e-06
-2.19504e-06
1.20522e-06
-2.32017e-06
1.20925e-06
-2.43364e-06
1.20046e-06
-2.53656e-06
1.1809e-06
-2.62992e-06
1.1522e-06
-2.71458e-06
1.11594e-06
-2.79117e-06
1.07331e-06
-2.86017e-06
1.02541e-06
-2.92199e-06
9.73131e-07
-2.977e-06
9.17264e-07
-3.02554e-06
8.58477e-07
-3.06795e-06
7.97363e-07
-3.10467e-06
7.34494e-07
-3.13634e-06
6.70396e-07
-3.1635e-06
6.05315e-07
-3.18599e-06
5.39193e-07
-3.20392e-06
4.7243e-07
-3.21728e-06
4.04871e-07
-3.22632e-06
3.36636e-07
-3.23148e-06
2.67818e-07
-3.23309e-06
1.98515e-07
-3.23162e-06
1.28411e-07
-3.22734e-06
5.73319e-08
-3.22069e-06
-1.50827e-08
-3.21125e-06
-8.8702e-08
-3.19918e-06
-1.6437e-07
-3.18453e-06
-2.42287e-07
-3.16728e-06
-3.22797e-07
-3.14731e-06
-4.06231e-07
-3.1245e-06
-4.92983e-07
-3.0985e-06
-5.83335e-07
-3.06878e-06
-6.77485e-07
-3.03461e-06
-7.7547e-07
-2.99504e-06
-8.77047e-07
-2.94927e-06
-9.81437e-07
-2.89625e-06
-1.08829e-06
-2.83461e-06
-1.196e-06
-2.76212e-06
-1.30247e-06
-2.67295e-06
-1.40572e-06
-2.5601e-06
-1.50162e-06
-2.42146e-06
-1.58098e-06
-2.2585e-06
-1.63657e-06
-2.0755e-06
-1.66198e-06
-1.87398e-06
-1.6556e-06
-1.65852e-06
-1.6124e-06
-1.43343e-06
-1.53163e-06
-1.20522e-06
-1.41123e-06
-9.83107e-07
-1.25378e-06
-7.75975e-07
-1.06712e-06
-5.89698e-07
-8.61414e-07
-4.28447e-07
-6.45906e-07
-2.95333e-07
-4.30161e-07
-1.91303e-07
-2.2449e-07
-1.1493e-07
-3.81072e-08
-6.26738e-08
1.21686e-07
-2.9899e-08
2.50334e-07
-1.27789e-08
3.43734e-07
-6.43933e-09
3.92215e-07
-5.11397e-09
3.73855e-07
2.02282e-07
1.11808e-08
-2.39337e-07
-6.38357e-09
-2.78873e-07
-4.15731e-08
-1.99969e-07
-8.81493e-08
-1.01167e-07
-1.44673e-07
2.56458e-09
-2.11559e-07
1.07443e-07
-2.89991e-07
2.12037e-07
-3.8123e-07
3.15547e-07
-4.86387e-07
4.17983e-07
-6.0621e-07
5.2002e-07
-7.40852e-07
6.22611e-07
-8.89781e-07
7.26509e-07
-1.05147e-06
8.31532e-07
-1.22259e-06
9.35444e-07
-1.39848e-06
1.03439e-06
-1.57376e-06
1.12392e-06
-1.74277e-06
1.19942e-06
-1.90115e-06
1.25743e-06
-2.04695e-06
1.29715e-06
-2.17966e-06
1.31927e-06
-2.29991e-06
1.32547e-06
-2.40866e-06
1.318e-06
-2.507e-06
1.2988e-06
-2.59582e-06
1.26972e-06
-2.67588e-06
1.23226e-06
-2.74774e-06
1.1878e-06
-2.81185e-06
1.13742e-06
-2.86861e-06
1.08218e-06
-2.91842e-06
1.02295e-06
-2.9617e-06
9.60543e-07
-2.99889e-06
8.95667e-07
-3.03046e-06
8.28931e-07
-3.05677e-06
7.60807e-07
-3.07804e-06
6.91662e-07
-3.09455e-06
6.21826e-07
-3.10678e-06
5.51418e-07
-3.11513e-06
4.80785e-07
-3.1202e-06
4.09935e-07
-3.12248e-06
3.3892e-07
-3.12232e-06
2.67661e-07
-3.11984e-06
1.9603e-07
-3.11524e-06
1.2381e-07
-3.1087e-06
5.07934e-08
-3.10047e-06
-2.33073e-08
-3.09047e-06
-9.87014e-08
-3.07897e-06
-1.75875e-07
-3.06611e-06
-2.55149e-07
-3.05199e-06
-3.36913e-07
-3.03667e-06
-4.21552e-07
-3.02017e-06
-5.09482e-07
-3.00242e-06
-6.01084e-07
-2.98322e-06
-6.96692e-07
-2.96216e-06
-7.96524e-07
-2.93861e-06
-9.00598e-07
-2.91134e-06
-1.00871e-06
-2.8791e-06
-1.12054e-06
-2.84006e-06
-1.23504e-06
-2.79242e-06
-1.35011e-06
-2.73407e-06
-1.46407e-06
-2.66233e-06
-1.57335e-06
-2.5694e-06
-1.67391e-06
-2.44595e-06
-1.76003e-06
-2.29053e-06
-1.81739e-06
-2.10723e-06
-1.8389e-06
-1.90166e-06
-1.81797e-06
-1.67795e-06
-1.75534e-06
-1.44179e-06
-1.6474e-06
-1.20161e-06
-1.49396e-06
-9.68806e-07
-1.29992e-06
-7.54078e-07
-1.07614e-06
-5.63998e-07
-8.35985e-07
-4.02948e-07
-5.91212e-07
-2.73792e-07
-3.53647e-07
-1.76527e-07
-1.35372e-07
-1.08304e-07
5.34635e-08
-6.36954e-08
2.05725e-07
-3.67793e-08
3.16818e-07
-2.00802e-08
3.75516e-07
-9.25233e-09
3.63028e-07
1.9303e-07
-3.07861e-09
-2.36259e-07
-3.78862e-08
-2.44066e-07
-8.86891e-08
-1.49167e-07
-1.49552e-07
-4.03047e-08
-2.19805e-07
7.28181e-08
-3.00424e-07
1.88061e-07
-3.92625e-07
3.04238e-07
-4.97544e-07
4.20466e-07
-6.15932e-07
5.36371e-07
-7.47988e-07
6.52076e-07
-8.93308e-07
7.67932e-07
-1.05063e-06
8.83835e-07
-1.21696e-06
9.97859e-07
-1.38771e-06
1.10619e-06
-1.55761e-06
1.20429e-06
-1.72143e-06
1.28775e-06
-1.87507e-06
1.35306e-06
-2.0164e-06
1.39876e-06
-2.14485e-06
1.4256e-06
-2.26085e-06
1.43527e-06
-2.3654e-06
1.43003e-06
-2.45944e-06
1.41204e-06
-2.54381e-06
1.38316e-06
-2.61913e-06
1.34504e-06
-2.68593e-06
1.29906e-06
-2.74462e-06
1.24649e-06
-2.79563e-06
1.18844e-06
-2.83942e-06
1.12596e-06
-2.87647e-06
1.06e-06
-2.90731e-06
9.91383e-07
-2.93248e-06
9.20837e-07
-2.9525e-06
8.48956e-07
-2.9679e-06
7.76204e-07
-2.97919e-06
7.02956e-07
-2.98688e-06
6.29513e-07
-2.99152e-06
5.56056e-07
-2.99349e-06
4.82758e-07
-2.99316e-06
4.09607e-07
-2.99081e-06
3.36564e-07
-2.98665e-06
2.63502e-07
-2.98087e-06
1.90251e-07
-2.97366e-06
1.16598e-07
-2.96518e-06
4.23138e-08
-2.95561e-06
-3.28738e-08
-2.94506e-06
-1.09257e-07
-2.93372e-06
-1.87208e-07
-2.9218e-06
-2.67075e-07
-2.90946e-06
-3.4925e-07
-2.89688e-06
-4.34131e-07
-2.88422e-06
-5.22144e-07
-2.8716e-06
-6.13704e-07
-2.85908e-06
-7.09213e-07
-2.84659e-06
-8.09011e-07
-2.83384e-06
-9.13345e-07
-2.8202e-06
-1.02235e-06
-2.80476e-06
-1.13597e-06
-2.78614e-06
-1.25366e-06
-2.76187e-06
-1.37437e-06
-2.72943e-06
-1.49652e-06
-2.6858e-06
-1.61699e-06
-2.62765e-06
-1.73207e-06
-2.55061e-06
-1.83706e-06
-2.44282e-06
-1.92519e-06
-2.29668e-06
-1.98504e-06
-2.11402e-06
-2.00063e-06
-1.90355e-06
-1.96581e-06
-1.67002e-06
-1.88093e-06
-1.42145e-06
-1.74254e-06
-1.16842e-06
-1.55295e-06
-9.24859e-07
-1.3197e-06
-7.03419e-07
-1.05743e-06
-5.11376e-07
-7.83254e-07
-3.53088e-07
-5.11935e-07
-2.30689e-07
-2.57771e-07
-1.42688e-07
-3.45375e-08
-8.41315e-08
1.47169e-07
-4.76213e-08
2.80308e-07
-2.41279e-08
3.52023e-07
-8.72793e-09
3.47628e-07
1.84302e-07
-1.83319e-08
-2.17927e-07
-6.99234e-08
-1.92474e-07
-1.35331e-07
-8.37593e-08
-2.09722e-07
3.40868e-08
-2.93059e-07
1.56155e-07
-3.86484e-07
2.81486e-07
-4.91196e-07
4.0895e-07
-6.08044e-07
5.37314e-07
-7.37325e-07
6.65651e-07
-8.78758e-07
7.93509e-07
-1.03134e-06
9.20511e-07
-1.19246e-06
1.04496e-06
-1.35785e-06
1.16325e-06
-1.52249e-06
1.27084e-06
-1.68159e-06
1.36338e-06
-1.83119e-06
1.43735e-06
-1.9688e-06
1.49067e-06
-2.09366e-06
1.52362e-06
-2.20608e-06
1.53802e-06
-2.3069e-06
1.53608e-06
-2.39701e-06
1.52014e-06
-2.47713e-06
1.49216e-06
-2.54784e-06
1.45387e-06
-2.60961e-06
1.40681e-06
-2.66288e-06
1.35234e-06
-2.70816e-06
1.29177e-06
-2.74601e-06
1.22628e-06
-2.77704e-06
1.157e-06
-2.80194e-06
1.08489e-06
-2.82138e-06
1.01082e-06
-2.83603e-06
9.35493e-07
-2.84654e-06
8.59465e-07
-2.8535e-06
7.83167e-07
-2.85747e-06
7.06922e-07
-2.85891e-06
6.30953e-07
-2.85823e-06
5.55378e-07
-2.85573e-06
4.80252e-07
-2.85163e-06
4.05513e-07
-2.84613e-06
3.31066e-07
-2.83939e-06
2.56761e-07
-2.83156e-06
1.82413e-07
-2.82276e-06
1.07805e-07
-2.81315e-06
3.26983e-08
-2.80285e-06
-4.31733e-08
-2.792e-06
-1.20103e-07
-2.78079e-06
-1.98421e-07
-2.7694e-06
-2.78463e-07
-2.75805e-06
-3.60599e-07
-2.74697e-06
-4.45214e-07
-2.73639e-06
-5.32718e-07
-2.72657e-06
-6.23532e-07
-2.7177e-06
-7.18077e-07
-2.70996e-06
-8.16758e-07
-2.70335e-06
-9.19947e-07
-2.69775e-06
-1.02796e-06
-2.69277e-06
-1.14095e-06
-2.68756e-06
-1.25887e-06
-2.68065e-06
-1.38129e-06
-2.66991e-06
-1.50726e-06
-2.65198e-06
-1.63491e-06
-2.62266e-06
-1.76139e-06
-2.57786e-06
-1.88186e-06
-2.51211e-06
-1.99094e-06
-2.417e-06
-2.08015e-06
-2.27849e-06
-2.13914e-06
-2.09639e-06
-2.1479e-06
-1.87935e-06
-2.09798e-06
-1.63435e-06
-1.98753e-06
-1.37214e-06
-1.81517e-06
-1.10603e-06
-1.58581e-06
-8.52752e-07
-1.3107e-06
-6.26881e-07
-1.00913e-06
-4.36091e-07
-7.02725e-07
-2.84316e-07
-4.09546e-07
-1.72135e-07
-1.46719e-07
-9.59708e-08
7.10048e-08
-4.83824e-08
2.32719e-07
-2.01436e-08
3.23784e-07
-4.49147e-09
3.31975e-07
1.79811e-07
-3.35824e-08
-1.84344e-07
-1.00748e-07
-1.25309e-07
-1.79845e-07
-4.66218e-09
-2.66824e-07
1.21066e-07
-3.62202e-07
2.51533e-07
-4.67159e-07
3.86443e-07
-5.82732e-07
5.24523e-07
-7.0942e-07
6.64002e-07
-8.471e-07
8.03332e-07
-9.94989e-07
9.41398e-07
-1.15088e-06
1.0764e-06
-1.31099e-06
1.20506e-06
-1.4707e-06
1.32296e-06
-1.62554e-06
1.42568e-06
-1.77171e-06
1.50955e-06
-1.9064e-06
1.57204e-06
-2.02842e-06
1.61269e-06
-2.13795e-06
1.63314e-06
-2.23564e-06
1.63572e-06
-2.32232e-06
1.62276e-06
-2.39864e-06
1.59647e-06
-2.46515e-06
1.55866e-06
-2.52231e-06
1.51103e-06
-2.57063e-06
1.45513e-06
-2.61072e-06
1.39242e-06
-2.64325e-06
1.3243e-06
-2.66902e-06
1.25205e-06
-2.68883e-06
1.17681e-06
-2.70351e-06
1.09957e-06
-2.71382e-06
1.02113e-06
-2.72048e-06
9.42149e-07
-2.72411e-06
8.63097e-07
-2.72526e-06
7.84319e-07
-2.72438e-06
7.06044e-07
-2.72183e-06
6.284e-07
-2.71788e-06
5.51425e-07
-2.71272e-06
4.75091e-07
-2.7065e-06
3.99297e-07
-2.69934e-06
3.23908e-07
-2.69134e-06
2.48757e-07
-2.68258e-06
1.73652e-07
-2.67314e-06
9.83739e-08
-2.66314e-06
2.26902e-08
-2.65265e-06
-5.36563e-08
-2.64182e-06
-1.30937e-07
-2.63079e-06
-2.09447e-07
-2.61976e-06
-2.89496e-07
-2.60894e-06
-3.71418e-07
-2.59859e-06
-4.55566e-07
-2.58899e-06
-5.42319e-07
-2.58044e-06
-6.32076e-07
-2.57327e-06
-7.25253e-07
-2.56775e-06
-8.22277e-07
-2.56412e-06
-9.2358e-07
-2.5625e-06
-1.02957e-06
-2.56288e-06
-1.14058e-06
-2.56494e-06
-1.25681e-06
-2.56796e-06
-1.37827e-06
-2.57064e-06
-1.50458e-06
-2.57076e-06
-1.63479e-06
-2.56503e-06
-1.76712e-06
-2.54844e-06
-1.89844e-06
-2.51538e-06
-2.02399e-06
-2.45957e-06
-2.13596e-06
-2.37206e-06
-2.22665e-06
-2.23845e-06
-2.28152e-06
-2.05494e-06
-2.28148e-06
-1.82911e-06
-2.21336e-06
-1.5709e-06
-2.07339e-06
-1.29427e-06
-1.86243e-06
-1.01584e-06
-1.58913e-06
-7.55483e-07
-1.26949e-06
-5.29288e-07
-9.28921e-07
-3.44685e-07
-5.94149e-07
-2.0439e-07
-2.87014e-07
-1.06694e-07
-2.66909e-08
-4.54483e-08
1.71474e-07
-1.21756e-08
2.90511e-07
1.65498e-09
3.18145e-07
1.81466e-07
-4.81167e-08
-1.36228e-07
-1.29447e-07
-4.39783e-08
-2.20813e-07
8.67041e-08
-3.19283e-07
2.19536e-07
-4.25374e-07
3.57624e-07
-5.40285e-07
5.01353e-07
-6.64825e-07
6.49064e-07
-7.99149e-07
7.98327e-07
-9.42691e-07
9.46873e-07
-1.09362e-06
1.09233e-06
-1.24871e-06
1.23149e-06
-1.40391e-06
1.36026e-06
-1.55501e-06
1.47407e-06
-1.69831e-06
1.56898e-06
-1.83081e-06
1.64205e-06
-1.95083e-06
1.69206e-06
-2.05823e-06
1.72008e-06
-2.15354e-06
1.72846e-06
-2.23748e-06
1.71965e-06
-2.31067e-06
1.69596e-06
-2.37365e-06
1.65945e-06
-2.42692e-06
1.61193e-06
-2.47107e-06
1.55518e-06
-2.5068e-06
1.49086e-06
-2.53493e-06
1.42056e-06
-2.5564e-06
1.34577e-06
-2.57214e-06
1.26779e-06
-2.58308e-06
1.18775e-06
-2.59007e-06
1.10655e-06
-2.59386e-06
1.02493e-06
-2.5951e-06
9.4339e-07
-2.59433e-06
8.6232e-07
-2.59196e-06
7.81948e-07
-2.58831e-06
7.02403e-07
-2.58364e-06
6.23724e-07
-2.57809e-06
5.45876e-07
-2.57177e-06
4.68773e-07
-2.56476e-06
3.92285e-07
-2.5571e-06
3.16253e-07
-2.54884e-06
2.40492e-07
-2.54e-06
1.6481e-07
-2.53062e-06
8.89989e-08
-2.52077e-06
1.28361e-08
-2.5105e-06
-6.39221e-08
-2.49993e-06
-1.41512e-07
-2.48918e-06
-2.20197e-07
-2.47842e-06
-3.00249e-07
-2.46788e-06
-3.8196e-07
-2.45781e-06
-4.6564e-07
-2.4485e-06
-5.51624e-07
-2.44031e-06
-6.40274e-07
-2.43358e-06
-7.31977e-07
-2.42871e-06
-8.27152e-07
-2.42604e-06
-9.26245e-07
-2.4259e-06
-1.02971e-06
-2.42847e-06
-1.138e-06
-2.43377e-06
-1.25151e-06
-2.44155e-06
-1.37049e-06
-2.45113e-06
-1.49501e-06
-2.46121e-06
-1.62471e-06
-2.46966e-06
-1.75867e-06
-2.47308e-06
-1.89503e-06
-2.46655e-06
-2.03052e-06
-2.44267e-06
-2.15984e-06
-2.3943e-06
-2.27502e-06
-2.3109e-06
-2.36492e-06
-2.17825e-06
-2.41413e-06
-1.9902e-06
-2.40141e-06
-1.75299e-06
-2.3106e-06
-1.48e-06
-2.13542e-06
-1.18896e-06
-1.88017e-06
-9.00486e-07
-1.55796e-06
-6.37899e-07
-1.19151e-06
-4.17723e-07
-8.14325e-07
-2.46177e-07
-4.58559e-07
-1.23708e-07
-1.4916e-07
-4.58048e-08
9.35701e-08
-5.3253e-09
2.50032e-07
7.25681e-09
3.05563e-07
1.88723e-07
-6.13398e-08
-7.48879e-08
-1.55018e-07
4.96999e-08
-2.57429e-07
1.89116e-07
-3.65901e-07
3.28007e-07
-4.81136e-07
4.7286e-07
-6.04225e-07
6.24441e-07
-7.35738e-07
7.80578e-07
-8.75426e-07
9.38014e-07
-1.02183e-06
1.09328e-06
-1.17228e-06
1.24278e-06
-1.32342e-06
1.38262e-06
-1.47129e-06
1.50813e-06
-1.61226e-06
1.61504e-06
-1.74324e-06
1.69996e-06
-1.86211e-06
1.76092e-06
-1.96826e-06
1.79821e-06
-2.06205e-06
1.81387e-06
-2.1441e-06
1.81051e-06
-2.21501e-06
1.79056e-06
-2.27534e-06
1.75629e-06
-2.32563e-06
1.70974e-06
-2.36655e-06
1.65285e-06
-2.3989e-06
1.58753e-06
-2.42364e-06
1.5156e-06
-2.44182e-06
1.43874e-06
-2.4545e-06
1.35844e-06
-2.46267e-06
1.27597e-06
-2.46726e-06
1.19234e-06
-2.46906e-06
1.10835e-06
-2.46871e-06
1.02458e-06
-2.46676e-06
9.41433e-07
-2.46359e-06
8.59149e-07
-2.4595e-06
7.77858e-07
-2.45469e-06
6.97596e-07
-2.44929e-06
6.18328e-07
-2.44338e-06
5.39963e-07
-2.43698e-06
4.62371e-07
-2.4301e-06
3.85404e-07
-2.42273e-06
3.08888e-07
-2.41487e-06
2.3263e-07
-2.4065e-06
1.56442e-07
-2.39763e-06
8.01303e-08
-2.38829e-06
3.49432e-09
-2.37851e-06
-7.37002e-08
-2.36838e-06
-1.51645e-07
-2.358e-06
-2.30573e-07
-2.34753e-06
-3.10718e-07
-2.33717e-06
-3.92325e-07
-2.32715e-06
-4.75657e-07
-2.31778e-06
-5.60998e-07
-2.30939e-06
-6.48662e-07
-2.30238e-06
-7.38991e-07
-2.29716e-06
-8.32369e-07
-2.29418e-06
-9.29226e-07
-2.29386e-06
-1.03003e-06
-2.29659e-06
-1.13528e-06
-2.3026e-06
-1.24549e-06
-2.31197e-06
-1.36112e-06
-2.32443e-06
-1.48255e-06