/*--------------------------------*- C++ -*----------------------------------*\
  =========                 |
  \\      /  F ield         | OpenFOAM: The Open Source CFD Toolbox
   \\    /   O peration     | Website:  https://openfoam.org
    \\  /    A nd           | Version:  13
     \\/     M anipulation  |
\*---------------------------------------------------------------------------*/
FoamFile
{
    format      ascii;
    class       volVectorField;
    location    "9.8";
    object      U;
}
// * * * * * * * * * * * * * * * * * * * * * * * * * * * * * * * * * * * * * //

dimensions      [0 1 -1 0 0 0 0];

internalField   nonuniform List<vector> 
6400
(
(-0.000129447 8.51548e-05 0)
(0.000449354 -0.00017624 0)
(0.00212484 -0.000443384 0)
(0.00433546 -0.000561184 0)
(0.00653053 -0.000493546 0)
(0.00835614 -0.000327476 0)
(0.00956425 -0.000128657 0)
(0.0101619 1.94346e-05 0)
(0.0102781 7.29139e-05 0)
(0.0101633 4.98746e-05 0)
(0.00993897 -3.17297e-05 0)
(0.00978117 -0.000141748 0)
(0.0097519 -0.000255339 0)
(0.00984844 -0.000346945 0)
(0.0100204 -0.000420403 0)
(0.0101864 -0.000473511 0)
(0.0102705 -0.000506153 0)
(0.0102201 -0.00050659 0)
(0.00999172 -0.000485164 0)
(0.00949006 -0.000442314 0)
(0.00868038 -0.000392942 0)
(0.00750128 -0.000343057 0)
(0.0059127 -0.000296021 0)
(0.00388557 -0.000279073 0)
(0.00138168 -0.000330212 0)
(-0.00156034 -0.000446293 0)
(-0.00499389 -0.000480212 0)
(-0.00914392 -0.000275101 0)
(-0.0141154 0.000281038 0)
(-0.0199772 0.00118208 0)
(-0.0274176 0.00223337 0)
(-0.0356695 0.00311883 0)
(-0.0445828 0.00382682 0)
(-0.0538452 0.00434606 0)
(-0.0631979 0.00468393 0)
(-0.0724051 0.00485631 0)
(-0.0812812 0.00488856 0)
(-0.0896714 0.00480443 0)
(-0.09746 0.00462655 0)
(-0.104549 0.00437272 0)
(-0.110863 0.0040547 0)
(-0.11634 0.00368082 0)
(-0.120938 0.00325309 0)
(-0.124634 0.0027758 0)
(-0.127407 0.00226445 0)
(-0.129016 0.0017929 0)
(-0.129664 0.00136219 0)
(-0.129444 0.000613518 0)
(-0.127821 6.54642e-05 0)
(-0.125273 -0.000633505 0)
(-0.121431 -0.00127052 0)
(-0.116509 -0.00194098 0)
(-0.110371 -0.00257648 0)
(-0.103134 -0.00320074 0)
(-0.0948347 -0.00380922 0)
(-0.0855512 -0.00438923 0)
(-0.0753192 -0.00489168 0)
(-0.0643311 -0.00531573 0)
(-0.0527424 -0.00562694 0)
(-0.040772 -0.00579458 0)
(-0.0286622 -0.0057809 0)
(-0.0166986 -0.00557593 0)
(-0.00510573 -0.00517788 0)
(0.00563401 -0.00466689 0)
(0.0152038 -0.00388623 0)
(0.0234288 -0.00293982 0)
(0.0299786 -0.00187134 0)
(0.0345777 -0.000716934 0)
(0.0372525 0.000443746 0)
(0.0373971 0.00163918 0)
(0.035873 0.00230879 0)
(0.0322106 0.00288598 0)
(0.0268453 0.00307162 0)
(0.0206667 0.00276209 0)
(0.0144466 0.00205378 0)
(0.00897765 0.00120731 0)
(0.00469762 0.000521154 0)
(0.00175621 0.000116183 0)
(0.000133617 -0.000172571 0)
(-0.00024009 -0.000347997 0)
(1.43532e-05 -0.000386055 0)
(0.00184143 -0.00213794 0)
(0.00531978 -0.00359675 0)
(0.00919283 -0.00408369 0)
(0.0127552 -0.00368648 0)
(0.0155865 -0.00279567 0)
(0.0175084 -0.00171235 0)
(0.0185512 -0.000730022 0)
(0.0188402 -3.56958e-05 0)
(0.0185421 0.000341302 0)
(0.0178572 0.00044347 0)
(0.0169573 0.000355586 0)
(0.0159284 0.000202474 0)
(0.0147616 9.87848e-05 0)
(0.0133831 0.000108582 0)
(0.0116888 0.000244256 0)
(0.00959394 0.000483244 0)
(0.00702817 0.000812232 0)
(0.00387854 0.00124616 0)
(3.83772e-05 0.0017949 0)
(-0.00460215 0.00246307 0)
(-0.010288 0.00327065 0)
(-0.0170878 0.00417781 0)
(-0.0250757 0.00517988 0)
(-0.0342983 0.00629428 0)
(-0.0448615 0.00752749 0)
(-0.056638 0.00890353 0)
(-0.069274 0.0104215 0)
(-0.0823785 0.0120124 0)
(-0.0954121 0.0134917 0)
(-0.107889 0.0145726 0)
(-0.119988 0.0152295 0)
(-0.131427 0.0154717 0)
(-0.142126 0.015329 0)
(-0.151988 0.0148719 0)
(-0.160948 0.0141526 0)
(-0.168966 0.0132278 0)
(-0.176008 0.012142 0)
(-0.182062 0.0109335 0)
(-0.187113 0.00963019 0)
(-0.191148 0.00824943 0)
(-0.194165 0.00680751 0)
(-0.196154 0.00531135 0)
(-0.197116 0.00377169 0)
(-0.197037 0.00219811 0)
(-0.195882 0.000604828 0)
(-0.193669 -0.00103245 0)
(-0.190387 -0.00276321 0)
(-0.18598 -0.00451944 0)
(-0.180511 -0.00631435 0)
(-0.173909 -0.00812217 0)
(-0.166215 -0.00992921 0)
(-0.157395 -0.0117112 0)
(-0.147484 -0.0134376 0)
(-0.136487 -0.0150738 0)
(-0.124498 -0.0165697 0)
(-0.111625 -0.0178903 0)
(-0.09797 -0.0189709 0)
(-0.0837184 -0.0197455 0)
(-0.0690848 -0.0201631 0)
(-0.0542841 -0.020157 0)
(-0.0395766 -0.0196891 0)
(-0.0252453 -0.018738 0)
(-0.011609 -0.0173273 0)
(0.00105105 -0.0153884 0)
(0.0124769 -0.0129896 0)
(0.0223954 -0.0101807 0)
(0.0305665 -0.00705696 0)
(0.0368231 -0.00370244 0)
(0.0409939 -0.000303636 0)
(0.043064 0.00289836 0)
(0.0429131 0.00583513 0)
(0.0406311 0.0082387 0)
(0.0364628 0.00972387 0)
(0.0304005 0.0099357 0)
(0.0229883 0.00897407 0)
(0.015228 0.00711602 0)
(0.0082238 0.00479441 0)
(0.00305685 0.00231039 0)
(0.000224678 0.000265854 0)
(0.000206959 -0.00165747 0)
(0.00325859 -0.00548629 0)
(0.00760032 -0.00775621 0)
(0.0116481 -0.00801892 0)
(0.0149638 -0.00688821 0)
(0.0173385 -0.00504219 0)
(0.0188026 -0.00306237 0)
(0.0194173 -0.00127937 0)
(0.0192597 0.000123065 0)
(0.0184362 0.00106228 0)
(0.0170936 0.0015724 0)
(0.015308 0.00180156 0)
(0.0130945 0.00194949 0)
(0.0104141 0.00219341 0)
(0.00717465 0.00264239 0)
(0.0032774 0.00331904 0)
(-0.00140759 0.00421566 0)
(-0.00703756 0.00534186 0)
(-0.0137397 0.00672162 0)
(-0.0216338 0.00838866 0)
(-0.0308019 0.0103459 0)
(-0.0412101 0.0125263 0)
(-0.05284 0.0148501 0)
(-0.0655366 0.017196 0)
(-0.0790406 0.0194358 0)
(-0.0930437 0.0214791 0)
(-0.107173 0.0232267 0)
(-0.121112 0.0246168 0)
(-0.134518 0.0255927 0)
(-0.147142 0.0261324 0)
(-0.158826 0.0262274 0)
(-0.16952 0.0258791 0)
(-0.179167 0.0251336 0)
(-0.187828 0.0240278 0)
(-0.195503 0.0226107 0)
(-0.20223 0.0209522 0)
(-0.208031 0.0191004 0)
(-0.212931 0.0170994 0)
(-0.21694 0.0149806 0)
(-0.220072 0.0127795 0)
(-0.222335 0.0105049 0)
(-0.223728 0.00817036 0)
(-0.224249 0.00578265 0)
(-0.223892 0.00334136 0)
(-0.222643 0.000849071 0)
(-0.220483 -0.00169937 0)
(-0.217382 -0.0043178 0)
(-0.213328 -0.00700157 0)
(-0.208295 -0.0097176 0)
(-0.202271 -0.0124826 0)
(-0.195227 -0.0152685 0)
(-0.187157 -0.0180593 0)
(-0.178051 -0.0208213 0)
(-0.167918 -0.0235117 0)
(-0.156779 -0.0260705 0)
(-0.144685 -0.0284279 0)
(-0.131719 -0.0305153 0)
(-0.117975 -0.032235 0)
(-0.103579 -0.0334966 0)
(-0.0887244 -0.0342062 0)
(-0.0736301 -0.0342751 0)
(-0.0585287 -0.0336303 0)
(-0.0437096 -0.0322465 0)
(-0.0294747 -0.0301275 0)
(-0.0160931 -0.027266 0)
(-0.00379542 -0.0237045 0)
(0.00716847 -0.0195176 0)
(0.016587 -0.0148243 0)
(0.0243253 -0.00977673 0)
(0.0302695 -0.00455872 0)
(0.0344035 0.000606097 0)
(0.0366867 0.00548302 0)
(0.0369859 0.0097259 0)
(0.035216 0.0130959 0)
(0.0317167 0.0152956 0)
(0.0265316 0.0157949 0)
(0.019873 0.0146713 0)
(0.012634 0.012004 0)
(0.00590059 0.00792108 0)
(0.000786608 0.00292871 0)
(0.000434873 -0.00365263 0)
(0.00434987 -0.00969103 0)
(0.00878432 -0.0120503 0)
(0.0123298 -0.0115045 0)
(0.0148732 -0.00936326 0)
(0.0164138 -0.00657806 0)
(0.017056 -0.00372931 0)
(0.0168941 -0.00116299 0)
(0.0160097 0.000921765 0)
(0.0144594 0.0024574 0)
(0.0122404 0.00353066 0)
(0.00932875 0.00433587 0)
(0.00567176 0.00511147 0)
(0.00119829 0.00606287 0)
(-0.00416451 0.0073096 0)
(-0.010519 0.00890223 0)
(-0.0179855 0.0108549 0)
(-0.0266811 0.01317 0)
(-0.0366823 0.0158357 0)
(-0.047996 0.0188146 0)
(-0.0605276 0.0220079 0)
(-0.0740675 0.0252643 0)
(-0.0883202 0.0284055 0)
(-0.102914 0.0312648 0)
(-0.11755 0.0337458 0)
(-0.131884 0.0356617 0)
(-0.145623 0.0369253 0)
(-0.158495 0.0375593 0)
(-0.170344 0.0376243 0)
(-0.181137 0.0371708 0)
(-0.190853 0.0362541 0)
(-0.199553 0.0349128 0)
(-0.20728 0.0331891 0)
(-0.214103 0.031152 0)
(-0.220063 0.0288498 0)
(-0.225222 0.0263372 0)
(-0.229608 0.0236557 0)
(-0.23325 0.0208479 0)
(-0.236166 0.0179367 0)
(-0.238364 0.0149427 0)
(-0.239849 0.0118772 0)
(-0.240613 0.00874558 0)
(-0.240647 0.00554824 0)
(-0.239936 0.00228356 0)
(-0.238462 -0.00104929 0)
(-0.236195 -0.00445907 0)
(-0.233106 -0.00794925 0)
(-0.22917 -0.0115291 0)
(-0.224354 -0.0151807 0)
(-0.218628 -0.0188994 0)
(-0.211964 -0.0226635 0)
(-0.204337 -0.0264491 0)
(-0.195725 -0.0302169 0)
(-0.186116 -0.0339094 0)
(-0.175507 -0.0374451 0)
(-0.16392 -0.0407275 0)
(-0.151406 -0.0436635 0)
(-0.138043 -0.0461346 0)
(-0.123931 -0.048 0)
(-0.109212 -0.0491218 0)
(-0.0940861 -0.049381 0)
(-0.0787661 -0.0486687 0)
(-0.0635198 -0.046919 0)
(-0.0486705 -0.0441082 0)
(-0.0345588 -0.0403105 0)
(-0.021434 -0.0355857 0)
(-0.00952873 -0.030025 0)
(0.000941198 -0.0237906 0)
(0.00982426 -0.017096 0)
(0.017016 -0.0101792 0)
(0.0224719 -0.00328598 0)
(0.0262062 0.00335403 0)
(0.0282717 0.00943381 0)
(0.0286588 0.0145499 0)
(0.0272468 0.0183581 0)
(0.0240821 0.0205563 0)
(0.0193303 0.0207098 0)
(0.0134024 0.0186753 0)
(0.00697692 0.0142606 0)
(0.00108434 0.00673026 0)
(0.000724281 -0.00621927 0)
(0.0050402 -0.0141289 0)
(0.0089329 -0.0158614 0)
(0.0115895 -0.0141774 0)
(0.0131567 -0.0109295 0)
(0.0137123 -0.00718888 0)
(0.0134068 -0.00350942 0)
(0.0123272 -0.000199442 0)
(0.0105101 0.00258728 0)
(0.0079411 0.0048399 0)
(0.00455444 0.00667964 0)
(0.00026045 0.00832535 0)
(-0.00503392 0.0100256 0)
(-0.0114161 0.0119867 0)
(-0.0189667 0.014338 0)
(-0.0277618 0.0171353 0)
(-0.0378578 0.020382 0)
(-0.0492692 0.0240399 0)
(-0.0619244 0.0280051 0)
(-0.0756393 0.032127 0)
(-0.0901153 0.0361778 0)
(-0.104994 0.0399593 0)
(-0.119917 0.0433312 0)
(-0.134576 0.0460188 0)
(-0.148591 0.0478995 0)
(-0.161653 0.0489922 0)
(-0.17368 0.0493199 0)
(-0.184621 0.0489436 0)
(-0.194526 0.0479667 0)
(-0.203436 0.0464827 0)
(-0.211415 0.0445734 0)
(-0.218549 0.0423042 0)
(-0.224885 0.0397268 0)
(-0.230481 0.0368929 0)
(-0.235386 0.033845 0)
(-0.239643 0.0306241 0)
(-0.243274 0.0272643 0)
(-0.246301 0.0237953 0)
(-0.248737 0.0202319 0)
(-0.250585 0.0165883 0)
(-0.251842 0.0128678 0)
(-0.252498 0.0090718 0)
(-0.252541 0.00519257 0)
(-0.25195 0.00122454 0)
(-0.250711 -0.00283421 0)
(-0.248786 -0.00699794 0)
(-0.246145 -0.0112741 0)
(-0.242757 -0.0156699 0)
(-0.238583 -0.0201797 0)
(-0.233577 -0.0247907 0)
(-0.227701 -0.0294846 0)
(-0.220915 -0.0342337 0)
(-0.213179 -0.0389926 0)
(-0.204457 -0.0436952 0)
(-0.194729 -0.0482452 0)
(-0.18397 -0.0525173 0)
(-0.172209 -0.0563997 0)
(-0.159488 -0.0597419 0)
(-0.145875 -0.0623621 0)
(-0.131481 -0.0640888 0)
(-0.116469 -0.0647612 0)
(-0.10103 -0.0642116 0)
(-0.085419 -0.0623359 0)
(-0.0698888 -0.0590756 0)
(-0.0548219 -0.0544721 0)
(-0.0406215 -0.0486628 0)
(-0.0275354 -0.0417841 0)
(-0.0157959 -0.0340487 0)
(-0.00560175 -0.0257157 0)
(0.00290928 -0.0170879 0)
(0.00967452 -0.00847385 0)
(0.0147115 -0.000162464 0)
(0.018091 0.00754572 0)
(0.0198836 0.0143282 0)
(0.020103 0.0198137 0)
(0.0187547 0.0235609 0)
(0.0158476 0.025125 0)
(0.0115961 0.0241908 0)
(0.00636279 0.0201467 0)
(0.000961259 0.0105721 0)
(0.00104392 -0.00918934 0)
(0.00522975 -0.0181927 0)
(0.00814429 -0.0186834 0)
(0.00966186 -0.0157934 0)
(0.0101476 -0.0114401 0)
(0.00966049 -0.0067927 0)
(0.00834659 -0.00231234 0)
(0.00624967 0.00175742 0)
(0.00335114 0.00532283 0)
(-0.000419699 0.00842336 0)
(-0.00517072 0.0112144 0)
(-0.0110173 0.0139239 0)
(-0.0180606 0.0167889 0)
(-0.026379 0.0199979 0)
(-0.0360236 0.02366 0)
(-0.0470045 0.0277959 0)
(-0.059269 0.0323455 0)
(-0.0726827 0.037205 0)
(-0.0870116 0.042141 0)
(-0.101887 0.0468962 0)
(-0.116961 0.0513006 0)
(-0.131881 0.0550065 0)
(-0.146193 0.0578251 0)
(-0.159547 0.0597001 0)
(-0.171808 0.060595 0)
(-0.18299 0.060601 0)
(-0.193141 0.0598455 0)
(-0.202331 0.0584566 0)
(-0.210647 0.0565454 0)
(-0.218143 0.0541985 0)
(-0.224893 0.0514924 0)
(-0.230951 0.0484809 0)
(-0.236364 0.045215 0)
(-0.241178 0.0417387 0)
(-0.24543 0.0380855 0)
(-0.249145 0.0342852 0)
(-0.252339 0.0303632 0)
(-0.255026 0.0263464 0)
(-0.257215 0.0222436 0)
(-0.25891 0.018061 0)
(-0.260109 0.0137973 0)
(-0.260805 0.00944987 0)
(-0.260995 0.00500294 0)
(-0.260665 0.000439839 0)
(-0.259823 -0.00426368 0)
(-0.258422 -0.00910808 0)
(-0.256423 -0.0140975 0)
(-0.25379 -0.0192364 0)
(-0.250484 -0.0245297 0)
(-0.246453 -0.0299654 0)
(-0.241634 -0.0355234 0)
(-0.235961 -0.0411675 0)
(-0.229362 -0.0468422 0)
(-0.221783 -0.0524854 0)
(-0.213254 -0.058057 0)
(-0.203649 -0.0633737 0)
(-0.19294 -0.0682861 0)
(-0.181153 -0.0726255 0)
(-0.168308 -0.0761655 0)
(-0.154463 -0.0786964 0)
(-0.139772 -0.0800133 0)
(-0.124363 -0.079895 0)
(-0.108495 -0.0782124 0)
(-0.0924193 -0.0748087 0)
(-0.0764393 -0.0696777 0)
(-0.0609939 -0.0629496 0)
(-0.0465212 -0.0548797 0)
(-0.0332844 -0.0457084 0)
(-0.0215424 -0.0357511 0)
(-0.0114943 -0.0253843 0)
(-0.00325458 -0.0149996 0)
(0.0031624 -0.00497111 0)
(0.00783123 0.00436487 0)
(0.0108817 0.0126911 0)
(0.0124255 0.0196808 0)
(0.0125178 0.0249083 0)
(0.0111647 0.027898 0)
(0.00846683 0.028183 0)
(0.00476146 0.0248374 0)
(0.000588575 0.0137616 0)
(0.00129982 -0.0123022 0)
(0.00485699 -0.021363 0)
(0.00644602 -0.0203937 0)
(0.00683406 -0.0161999 0)
(0.00615313 -0.0108465 0)
(0.00459054 -0.00534487 0)
(0.00221268 -6.28058e-05 0)
(-0.000990566 0.004824 0)
(-0.00508668 0.00927592 0)
(-0.0101813 0.0133701 0)
(-0.0163947 0.0172768 0)
(-0.023838 0.0212143 0)
(-0.0325933 0.0253912 0)
(-0.0427015 0.0299569 0)
(-0.0541491 0.0349684 0)
(-0.0668398 0.0403771 0)
(-0.0806198 0.0460416 0)
(-0.0951834 0.0517119 0)
(-0.11014 0.0571675 0)
(-0.125157 0.0620406 0)
(-0.139767 0.0660561 0)
(-0.153491 0.069016 0)
(-0.166136 0.0708407 0)
(-0.177677 0.0715848 0)
(-0.188181 0.0713897 0)
(-0.197716 0.0703924 0)
(-0.20637 0.0687232 0)
(-0.214228 0.0665033 0)
(-0.22136 0.0638293 0)
(-0.227818 0.0607815 0)
(-0.233653 0.0574246 0)
(-0.238902 0.0538065 0)
(-0.243605 0.0499705 0)
(-0.247795 0.0459526 0)
(-0.251496 0.0417833 0)
(-0.254728 0.0374906 0)
(-0.257504 0.0330995 0)
(-0.259829 0.02863 0)
(-0.261717 0.0240851 0)
(-0.263168 0.0194682 0)
(-0.264208 0.0147207 0)
(-0.264824 0.00990588 0)
(-0.265007 0.00499127 0)
(-0.264747 -3.60489e-05 0)
(-0.264027 -0.00520616 0)
(-0.262886 -0.0105275 0)
(-0.26131 -0.0160315 0)
(-0.259291 -0.0217456 0)
(-0.256809 -0.0277057 0)
(-0.253828 -0.0338738 0)
(-0.250274 -0.0402338 0)
(-0.246075 -0.0467681 0)
(-0.241144 -0.0534363 0)
(-0.235369 -0.060163 0)
(-0.228543 -0.066798 0)
(-0.220593 -0.0731887 0)
(-0.211378 -0.0791462 0)
(-0.200967 -0.0845601 0)
(-0.189378 -0.0892079 0)
(-0.176519 -0.0927647 0)
(-0.162561 -0.0950027 0)
(-0.147531 -0.0956083 0)
(-0.131711 -0.0944134 0)
(-0.115295 -0.0912136 0)
(-0.0986139 -0.0859313 0)
(-0.0820111 -0.0785997 0)
(-0.066034 -0.0694988 0)
(-0.0511622 -0.0589967 0)
(-0.0376801 -0.0474464 0)
(-0.0258699 -0.0352965 0)
(-0.0159314 -0.0230395 0)
(-0.00795143 -0.0111606 0)
(-0.00189598 -8.90876e-05 0)
(0.00239119 0.0098252 0)
(0.00510672 0.0182757 0)
(0.00639571 0.0248952 0)
(0.00634092 0.0292396 0)
(0.00500299 0.0306975 0)
(0.00277531 0.0280618 0)
(0.000120303 0.0158088 0)
(0.00139853 -0.0152059 0)
(0.00381737 -0.0233687 0)
(0.00415801 -0.020846 0)
(0.00329217 -0.0153784 0)
(0.00145375 -0.00913137 0)
(-0.00121175 -0.00280732 0)
(-0.00470415 0.00330624 0)
(-0.00908109 0.0090881 0)
(-0.0144421 0.014535 0)
(-0.0209016 0.0197426 0)
(-0.0285692 0.0248771 0)
(-0.0375291 0.0301294 0)
(-0.047821 0.0356613 0)
(-0.0594244 0.0415555 0)
(-0.0722392 0.0478016 0)
(-0.0860794 0.0542492 0)
(-0.100603 0.06064 0)
(-0.115453 0.0666993 0)
(-0.130184 0.0720478 0)
(-0.144304 0.0763804 0)
(-0.157433 0.0794776 0)
(-0.169474 0.0813293 0)
(-0.180447 0.0820433 0)
(-0.190412 0.0817684 0)
(-0.199461 0.0806413 0)
(-0.207679 0.0788024 0)
(-0.215151 0.0763727 0)
(-0.221941 0.0734585 0)
(-0.228098 0.0701418 0)
(-0.233661 0.0664935 0)
(-0.238664 0.0625706 0)
(-0.243136 0.0584198 0)
(-0.247105 0.0540827 0)
(-0.250592 0.0495968 0)
(-0.25361 0.0450005 0)
(-0.256163 0.0403284 0)
(-0.258354 0.0355114 0)
(-0.260194 0.030606 0)
(-0.261685 0.025619 0)
(-0.262826 0.0205514 0)
(-0.263611 0.0154485 0)
(-0.264044 0.0102371 0)
(-0.264126 0.00492462 0)
(-0.263865 -0.000508056 0)
(-0.263254 -0.00606966 0)
(-0.262322 -0.011778 0)
(-0.261049 -0.0176562 0)
(-0.259433 -0.0237148 0)
(-0.257451 -0.0299592 0)
(-0.255085 -0.0364667 0)
(-0.252322 -0.0432584 0)
(-0.249132 -0.0503277 0)
(-0.24547 -0.0576571 0)
(-0.241278 -0.06522 0)
(-0.236477 -0.0729825 0)
(-0.230935 -0.080712 0)
(-0.224364 -0.0881829 0)
(-0.21643 -0.0950779 0)
(-0.206849 -0.100982 0)
(-0.195641 -0.10571 0)
(-0.18312 -0.109185 0)
(-0.169096 -0.110872 0)
(-0.153866 -0.110574 0)
(-0.13758 -0.107992 0)
(-0.12057 -0.102996 0)
(-0.103151 -0.0955364 0)
(-0.0857864 -0.0857182 0)
(-0.0691819 -0.0740369 0)
(-0.0538398 -0.0609947 0)
(-0.0400824 -0.0470614 0)
(-0.028217 -0.0328319 0)
(-0.0184377 -0.0189228 0)
(-0.0107927 -0.0059038 0)
(-0.0051691 0.00576818 0)
(-0.00133267 0.0157464 0)
(0.000996903 0.0237407 0)
(0.0020185 0.0293463 0)
(0.00187308 0.0318977 0)
(0.000897653 0.0297845 0)
(-0.000264601 0.016623 0)
(0.00130004 -0.0175955 0)
(0.0023527 -0.024068 0)
(0.00137122 -0.019926 0)
(-0.000730672 -0.0133901 0)
(-0.00371005 -0.0062936 0)
(-0.00749578 0.000853076 0)
(-0.0121326 0.00784221 0)
(-0.0177114 0.014592 0)
(-0.0243407 0.0211167 0)
(-0.0321234 0.0275099 0)
(-0.0411405 0.0339151 0)
(-0.0514319 0.0404788 0)
(-0.0629749 0.0472953 0)
(-0.0756911 0.054381 0)
(-0.0893844 0.0616095 0)
(-0.103686 0.0687193 0)
(-0.118248 0.0753765 0)
(-0.132597 0.0812181 0)
(-0.146197 0.0858905 0)
(-0.158824 0.0892275 0)
(-0.170374 0.0912267 0)
(-0.180876 0.0920297 0)
(-0.190396 0.0917643 0)
(-0.19903 0.0905966 0)
(-0.206861 0.0886618 0)
(-0.213966 0.0860935 0)
(-0.220405 0.0829948 0)
(-0.226218 0.0794577 0)
(-0.231443 0.0755548 0)
(-0.236108 0.0713518 0)
(-0.240242 0.0669028 0)
(-0.243873 0.0622559 0)
(-0.247025 0.0574543 0)
(-0.249738 0.0525189 0)
(-0.252084 0.0474578 0)
(-0.254078 0.0423032 0)
(-0.255699 0.037131 0)
(-0.256945 0.031905 0)
(-0.257835 0.0266168 0)
(-0.258391 0.0212632 0)
(-0.25865 0.0158415 0)
(-0.258648 0.0103339 0)
(-0.258413 0.0047361 0)
(-0.25797 -0.000971918 0)
(-0.257332 -0.00680699 0)
(-0.256466 -0.0127985 0)
(-0.255398 -0.0189773 0)
(-0.25412 -0.0253706 0)
(-0.252631 -0.0320016 0)
(-0.250922 -0.0388873 0)
(-0.248973 -0.0460376 0)
(-0.246752 -0.0534567 0)
(-0.244211 -0.0611319 0)
(-0.241288 -0.0690221 0)
(-0.237885 -0.077051 0)
(-0.233931 -0.0853389 0)
(-0.229392 -0.0937726 0)
(-0.224078 -0.10215 0)
(-0.217731 -0.110026 0)
(-0.209843 -0.11688 0)
(-0.199703 -0.121906 0)
(-0.187571 -0.12501 0)
(-0.173761 -0.126067 0)
(-0.158317 -0.124614 0)
(-0.141569 -0.120422 0)
(-0.123887 -0.113391 0)
(-0.105596 -0.10345 0)
(-0.0873688 -0.0909198 0)
(-0.0700535 -0.0765044 0)
(-0.0542135 -0.0608704 0)
(-0.0402116 -0.0446224 0)
(-0.028374 -0.028515 0)
(-0.0188749 -0.0132864 0)
(-0.0116992 0.000426811 0)
(-0.00663338 0.0121558 0)
(-0.00331667 0.0216018 0)
(-0.00139844 0.0284251 0)
(-0.000566287 0.0319049 0)
(-0.000441031 0.030211 0)
(-0.000385691 0.016491 0)
(0.00104469 -0.018928 0)
(0.00060581 -0.0233513 0)
(-0.00172105 -0.0176988 0)
(-0.0050048 -0.0102327 0)
(-0.00911565 -0.00232707 0)
(-0.0140256 0.00565181 0)
(-0.0198064 0.0135546 0)
(-0.0265644 0.0213216 0)
(-0.0343998 0.0289642 0)
(-0.043389 0.036555 0)
(-0.053571 0.0441977 0)
(-0.0649266 0.051977 0)
(-0.0773936 0.0599271 0)
(-0.0907987 0.0679521 0)
(-0.104778 0.0757842 0)
(-0.118942 0.0830816 0)
(-0.132846 0.0894707 0)
(-0.146009 0.0945786 0)
(-0.158202 0.0982606 0)
(-0.169347 0.10054 0)
(-0.179444 0.101512 0)
(-0.188584 0.101349 0)
(-0.196845 0.100209 0)
(-0.204315 0.0982478 0)
(-0.211056 0.0955913 0)
(-0.217122 0.0923553 0)
(-0.222551 0.0886302 0)
(-0.227377 0.0844995 0)
(-0.231631 0.080033 0)
(-0.235345 0.0752945 0)
(-0.238553 0.0703382 0)
(-0.241291 0.0652119 0)
(-0.243597 0.0599549 0)
(-0.2455 0.054609 0)
(-0.246999 0.0492064 0)
(-0.248146 0.0437418 0)
(-0.248953 0.0382343 0)
(-0.249477 0.0326798 0)
(-0.24976 0.0270916 0)
(-0.249842 0.0214717 0)
(-0.249733 0.0158167 0)
(-0.249444 0.0101079 0)
(-0.248995 0.00433029 0)
(-0.248402 -0.00153997 0)
(-0.247669 -0.00752586 0)
(-0.246804 -0.0136603 0)
(-0.245827 -0.0199697 0)
(-0.244744 -0.0264867 0)
(-0.243564 -0.0332427 0)
(-0.24229 -0.0402709 0)
(-0.240921 -0.0475993 0)
(-0.239446 -0.0552517 0)
(-0.237845 -0.0632397 0)
(-0.236072 -0.0715525 0)
(-0.234054 -0.0801437 0)
(-0.231704 -0.0889277 0)
(-0.228902 -0.0977888 0)
(-0.225467 -0.106558 0)
(-0.221247 -0.115325 0)
(-0.216137 -0.123818 0)
(-0.209711 -0.131389 0)
(-0.201295 -0.137188 0)
(-0.189977 -0.140083 0)
(-0.176405 -0.140334 0)
(-0.160765 -0.137536 0)
(-0.143534 -0.131571 0)
(-0.125032 -0.122217 0)
(-0.105774 -0.109557 0)
(-0.0865974 -0.0941154 0)
(-0.0685272 -0.0768521 0)
(-0.0522187 -0.0586324 0)
(-0.038071 -0.0402177 0)
(-0.0264146 -0.0225332 0)
(-0.017375 -0.00642983 0)
(-0.0108392 0.00741006 0)
(-0.0064453 0.018544 0)
(-0.00368678 0.0266587 0)
(-0.00211583 0.0309246 0)
(-0.0011503 0.0296654 0)
(-0.000364549 0.015904 0)
(0.000717721 -0.0192646 0)
(-0.00131927 -0.0212169 0)
(-0.00491854 -0.0142409 0)
(-0.00934549 -0.00591853 0)
(-0.0145706 0.00276176 0)
(-0.0205788 0.011573 0)
(-0.0274624 0.0204074 0)
(-0.0353258 0.0292048 0)
(-0.0442477 0.0379545 0)
(-0.0542679 0.0466914 0)
(-0.0653727 0.0554654 0)
(-0.0775129 0.0643092 0)
(-0.0905433 0.0731565 0)
(-0.104131 0.0817468 0)
(-0.11787 0.0897282 0)
(-0.131329 0.096728 0)
(-0.144105 0.102397 0)
(-0.155935 0.106553 0)
(-0.166728 0.109207 0)
(-0.176491 0.110458 0)
(-0.18529 0.110476 0)
(-0.193216 0.109441 0)
(-0.200336 0.107507 0)
(-0.206712 0.104813 0)
(-0.212386 0.101472 0)
(-0.217397 0.0975875 0)
(-0.221775 0.093247 0)
(-0.225556 0.088533 0)
(-0.228778 0.0835177 0)
(-0.231481 0.0782674 0)
(-0.233709 0.0728387 0)
(-0.235504 0.0672802 0)
(-0.23691 0.0616304 0)
(-0.237967 0.0559199 0)
(-0.238714 0.0501721 0)
(-0.239199 0.0444019 0)
(-0.239453 0.0386274 0)
(-0.239511 0.0328516 0)
(-0.239398 0.0270744 0)
(-0.239134 0.0212875 0)
(-0.238732 0.0154801 0)
(-0.238208 0.00963455 0)
(-0.237578 0.00373298 0)
(-0.236852 -0.00224739 0)
(-0.236043 -0.00832965 0)
(-0.235163 -0.0145453 0)
(-0.234228 -0.0209219 0)
(-0.233253 -0.0274915 0)
(-0.232252 -0.0342863 0)
(-0.231238 -0.0413408 0)
(-0.230224 -0.0486879 0)
(-0.229218 -0.0563589 0)
(-0.228221 -0.0643799 0)
(-0.227217 -0.0727682 0)
(-0.226172 -0.0815292 0)
(-0.22503 -0.0906467 0)
(-0.223695 -0.100048 0)
(-0.222021 -0.10959 0)
(-0.219824 -0.119043 0)
(-0.216856 -0.12814 0)
(-0.212811 -0.136804 0)
(-0.207545 -0.144799 0)
(-0.200423 -0.15101 0)
(-0.190348 -0.154155 0)
(-0.176999 -0.153426 0)
(-0.161223 -0.149264 0)
(-0.143362 -0.141262 0)
(-0.12392 -0.129336 0)
(-0.103609 -0.113731 0)
(-0.083441 -0.0952006 0)
(-0.0646469 -0.0750227 0)
(-0.0479821 -0.0542932 0)
(-0.0338749 -0.0339647 0)
(-0.0226269 -0.0151365 0)
(-0.0142734 0.00124322 0)
(-0.00855143 0.0144818 0)
(-0.00487387 0.0241386 0)
(-0.00271601 0.0292533 0)
(-0.00124057 0.0285216 0)
(-0.000195399 0.0150821 0)
(0.000124701 -0.0184079 0)
(-0.00333548 -0.0177331 0)
(-0.00809735 -0.00956949 0)
(-0.0136132 -0.00048634 0)
(-0.0199034 0.00893151 0)
(-0.0269502 0.0185625 0)
(-0.0348529 0.0283185 0)
(-0.0437033 0.0381189 0)
(-0.0535497 0.0479143 0)
(-0.0643868 0.05769 0)
(-0.0761745 0.0674495 0)
(-0.0887948 0.077144 0)
(-0.101957 0.0865297 0)
(-0.115267 0.095256 0)
(-0.128314 0.10295 0)
(-0.140741 0.109283 0)
(-0.152274 0.114043 0)
(-0.162774 0.117182 0)
(-0.172255 0.118816 0)
(-0.180765 0.119107 0)
(-0.188384 0.118247 0)
(-0.195181 0.116401 0)
(-0.201202 0.11371 0)
(-0.206491 0.1103 0)
(-0.211082 0.106279 0)
(-0.215012 0.101748 0)
(-0.218323 0.0967986 0)
(-0.221064 0.0915171 0)
(-0.223285 0.0859804 0)
(-0.225043 0.0802572 0)
(-0.226392 0.0744048 0)
(-0.227385 0.0684704 0)
(-0.228071 0.0624905 0)
(-0.228497 0.0564934 0)
(-0.228704 0.0505001 0)
(-0.228728 0.0445248 0)
(-0.228594 0.0385757 0)
(-0.228325 0.0326495 0)
(-0.227938 0.0267407 0)
(-0.227445 0.0208378 0)
(-0.226859 0.0149265 0)
(-0.22619 0.00898962 0)
(-0.225451 0.00300834 0)
(-0.224651 -0.00303926 0)
(-0.223801 -0.00917667 0)
(-0.222915 -0.0154321 0)
(-0.222006 -0.0218333 0)
(-0.221092 -0.028411 0)
(-0.220189 -0.035197 0)
(-0.219318 -0.0422253 0)
(-0.218496 -0.0495297 0)
(-0.217745 -0.057144 0)
(-0.217078 -0.0650988 0)
(-0.216504 -0.073421 0)
(-0.21602 -0.0821314 0)
(-0.215607 -0.0912399 0)
(-0.215219 -0.100734 0)
(-0.214765 -0.110566 0)
(-0.214104 -0.120631 0)
(-0.213022 -0.130699 0)
(-0.211236 -0.140403 0)
(-0.208372 -0.149305 0)
(-0.204023 -0.157325 0)
(-0.197827 -0.163743 0)
(-0.188748 -0.166919 0)
(-0.175685 -0.165361 0)
(-0.159667 -0.159663 0)
(-0.141019 -0.149361 0)
(-0.120527 -0.134596 0)
(-0.099093 -0.115802 0)
(-0.077971 -0.094031 0)
(-0.0585873 -0.0709338 0)
(-0.0417952 -0.0478755 0)
(-0.0280214 -0.0260392 0)
(-0.0174865 -0.00669666 0)
(-0.010081 0.00915792 0)
(-0.00527464 0.0208057 0)
(-0.00251246 0.027163 0)
(-0.000814836 0.0272146 0)
(5.98431e-05 0.0144995 0)
(-0.000466772 -0.0162859 0)
(-0.00530181 -0.0129467 0)
(-0.0111367 -0.00376927 0)
(-0.0176728 0.00599398 0)
(-0.0249531 0.0161076 0)
(-0.0329485 0.0265296 0)
(-0.0417551 0.0371682 0)
(-0.0514443 0.0479055 0)
(-0.0620276 0.0586426 0)
(-0.0734727 0.0693189 0)
(-0.0856839 0.0798748 0)
(-0.0984166 0.0900819 0)
(-0.11131 0.0996093 0)
(-0.123984 0.108081 0)
(-0.136102 0.115175 0)
(-0.147392 0.120655 0)
(-0.157671 0.124412 0)
(-0.166922 0.126535 0)
(-0.175196 0.1272 0)
(-0.182554 0.126594 0)
(-0.189062 0.124898 0)
(-0.194764 0.122263 0)
(-0.199699 0.118823 0)
(-0.203906 0.1147 0)
(-0.207428 0.110005 0)
(-0.210316 0.104845 0)
(-0.21263 0.0993204 0)
(-0.214434 0.0935221 0)
(-0.215796 0.0875292 0)
(-0.216779 0.0814096 0)
(-0.217443 0.0752179 0)
(-0.217841 0.0689966 0)
(-0.218022 0.0627771 0)
(-0.218024 0.0565817 0)
(-0.217881 0.0504247 0)
(-0.217615 0.0443124 0)
(-0.217247 0.0382452 0)
(-0.216789 0.0322166 0)
(-0.216252 0.0262172 0)
(-0.215643 0.0202343 0)
(-0.21497 0.0142522 0)
(-0.214241 0.00825373 0)
(-0.213461 0.00221975 0)
(-0.212639 -0.00387071 0)
(-0.211783 -0.0100402 0)
(-0.210905 -0.016314 0)
(-0.210018 -0.0227181 0)
(-0.209138 -0.0292809 0)
(-0.208286 -0.0360322 0)
(-0.207482 -0.0430038 0)
(-0.206749 -0.0502292 0)
(-0.206115 -0.0577424 0)
(-0.205602 -0.0655776 0)
(-0.205232 -0.0737678 0)
(-0.205021 -0.0823423 0)
(-0.204974 -0.0913231 0)
(-0.205081 -0.100718 0)
(-0.205303 -0.110517 0)
(-0.205563 -0.12068 0)
(-0.205723 -0.131113 0)
(-0.205566 -0.141637 0)
(-0.204775 -0.151896 0)
(-0.202936 -0.161315 0)
(-0.199491 -0.169269 0)
(-0.19394 -0.175601 0)
(-0.185422 -0.178523 0)
(-0.172564 -0.176116 0)
(-0.156097 -0.168615 0)
(-0.13651 -0.155718 0)
(-0.114856 -0.137785 0)
(-0.0922923 -0.115533 0)
(-0.0703576 -0.0903998 0)
(-0.0506632 -0.064487 0)
(-0.0341197 -0.0394398 0)
(-0.021095 -0.0167411 0)
(-0.0116645 0.00225036 0)
(-0.00544303 0.0164923 0)
(-0.00192655 0.0247239 0)
(-0.00011335 0.0260222 0)
(0.000356332 0.0144013 0)
(-0.00106151 -0.0129878 0)
(-0.00714319 -0.00697681 0)
(-0.0139435 0.00307796 0)
(-0.0214076 0.01344 0)
(-0.0295824 0.0241961 0)
(-0.0384122 0.0353583 0)
(-0.0479849 0.0468119 0)
(-0.0583472 0.0583887 0)
(-0.0694818 0.0699393 0)
(-0.0813109 0.0813499 0)
(-0.0936303 0.092387 0)
(-0.106132 0.102754 0)
(-0.118474 0.112076 0)
(-0.130327 0.12002 0)
(-0.14142 0.126325 0)
(-0.151545 0.13083 0)
(-0.160635 0.133568 0)
(-0.168729 0.134709 0)
(-0.175886 0.134451 0)
(-0.182158 0.13298 0)
(-0.187594 0.130463 0)
(-0.192232 0.127046 0)
(-0.196114 0.122864 0)
(-0.199291 0.118044 0)
(-0.201825 0.112709 0)
(-0.203788 0.106974 0)
(-0.205255 0.100945 0)
(-0.206303 0.0947136 0)
(-0.207002 0.0883559 0)
(-0.207418 0.0819343 0)
(-0.207607 0.075496 0)
(-0.207615 0.0690757 0)
(-0.207481 0.0626966 0)
(-0.207235 0.0563728 0)
(-0.206898 0.050111 0)
(-0.206486 0.0439107 0)
(-0.206009 0.0377672 0)
(-0.205475 0.0316714 0)
(-0.204887 0.0256108 0)
(-0.204249 0.0195717 0)
(-0.203564 0.0135388 0)
(-0.202834 0.00749431 0)
(-0.202064 0.00142012 0)
(-0.201257 -0.00470348 0)
(-0.20042 -0.0108972 0)
(-0.199564 -0.0171833 0)
(-0.1987 -0.0235853 0)
(-0.197843 -0.0301281 0)
(-0.197013 -0.0368386 0)
(-0.196231 -0.0437454 0)
(-0.195524 -0.0508793 0)
(-0.19492 -0.0582731 0)
(-0.194449 -0.0659613 0)
(-0.194141 -0.0739797 0)
(-0.194023 -0.0823641 0)
(-0.194119 -0.0911469 0)
(-0.194437 -0.100353 0)
(-0.194969 -0.109995 0)
(-0.195682 -0.120062 0)
(-0.196501 -0.130507 0)
(-0.197293 -0.141237 0)
(-0.197841 -0.15208 0)
(-0.197816 -0.162724 0)
(-0.19675 -0.172589 0)
(-0.194046 -0.18082 0)
(-0.188934 -0.186759 0)
(-0.1806 -0.189122 0)
(-0.167698 -0.185625 0)
(-0.150534 -0.175991 0)
(-0.129848 -0.160091 0)
(-0.106963 -0.138598 0)
(-0.0833428 -0.112582 0)
(-0.0608986 -0.0840399 0)
(-0.0413531 -0.0555861 0)
(-0.0256113 -0.029163 0)
(-0.0138878 -0.0065135 0)
(-0.00597763 0.0109646 0)
(-0.00148172 0.0218091 0)
(0.000565905 0.0249769 0)
(0.000566024 0.0147505 0)
(-0.00162492 -0.0085838 0)
(-0.0087943 5.51484e-05 0)
(-0.016448 0.0108658 0)
(-0.0247366 0.0217469 0)
(-0.0336863 0.0330814 0)
(-0.0432175 0.0449151 0)
(-0.0534057 0.0570929 0)
(-0.0642709 0.0693946 0)
(-0.0757605 0.081608 0)
(-0.0876969 0.0934643 0)
(-0.0998393 0.104681 0)
(-0.111889 0.114906 0)
(-0.123517 0.123772 0)
(-0.134461 0.130998 0)
(-0.14449 0.13637 0)
(-0.153494 0.139858 0)
(-0.161479 0.141596 0)
(-0.168499 0.141788 0)
(-0.174606 0.140633 0)
(-0.179843 0.13831 0)
(-0.184255 0.134981 0)
(-0.187886 0.130796 0)
(-0.190796 0.1259 0)
(-0.193057 0.120433 0)
(-0.19475 0.114527 0)
(-0.19596 0.108302 0)
(-0.196773 0.101863 0)
(-0.197265 0.0952956 0)
(-0.197504 0.0886697 0)
(-0.19755 0.0820373 0)
(-0.197448 0.0754356 0)
(-0.197235 0.0688895 0)
(-0.19694 0.0624133 0)
(-0.196581 0.0560132 0)
(-0.19617 0.0496891 0)
(-0.195717 0.0434357 0)
(-0.195224 0.0372442 0)
(-0.194692 0.0311035 0)
(-0.194123 0.0249999 0)
(-0.193514 0.0189181 0)
(-0.192864 0.0128431 0)
(-0.192174 0.00675856 0)
(-0.191445 0.000647022 0)
(-0.190679 -0.00550902 0)
(-0.18988 -0.0117283 0)
(-0.189057 -0.0180301 0)
(-0.188219 -0.0244347 0)
(-0.187381 -0.0309635 0)
(-0.186561 -0.0376395 0)
(-0.185779 -0.0444876 0)
(-0.185061 -0.0515349 0)
(-0.184437 -0.0588111 0)
(-0.18394 -0.0663487 0)
(-0.183604 -0.0741833 0)
(-0.183464 -0.0823531 0)
(-0.183555 -0.0908972 0)
(-0.183903 -0.0998532 0)
(-0.184521 -0.109253 0)
(-0.185404 -0.119114 0)
(-0.186517 -0.12943 0)
(-0.187778 -0.140153 0)
(-0.18905 -0.151175 0)