/*--------------------------------*- C++ -*----------------------------------*\
  =========                 |
  \\      /  F ield         | OpenFOAM: The Open Source CFD Toolbox
   \\    /   O peration     | Website:  https://openfoam.org
    \\  /    A nd           | Version:  13
     \\/     M anipulation  |
\*---------------------------------------------------------------------------*/
FoamFile
{
    format      ascii;
    class       volScalarField;
    location    "3";
    object      k;
}
// * * * * * * * * * * * * * * * * * * * * * * * * * * * * * * * * * * * * * //

dimensions      [0 2 -2 0 0 0 0];

internalField   nonuniform List<scalar> 
400
(
3.81239e-06
1.02006e-05
1.33691e-05
1.56148e-05
3.13024e-05
9.58099e-05
0.000205116
0.000286926
0.000335934
0.000383474
0.000424496
0.00046104
0.000497942
0.000525692
0.000537676
0.00053981
0.000501439
0.000391353
0.000238699
0.000163975
1.59118e-05
5.67053e-05
6.4619e-05
7.55203e-05
0.000136209
0.000280724
0.000434319
0.000534763
0.000622637
0.000704178
0.000783919
0.000859166
0.000931629
0.00099226
0.00104016
0.00106158
0.00106383
0.000938087
0.00065347
0.000404375
4.45001e-05
0.000147621
0.000182918
0.000227845
0.000348184
0.000500215
0.000628084
0.000719345
0.000797391
0.000869611
0.000941667
0.00101037
0.00107608
0.00113549
0.00118204
0.00120267
0.00120572
0.00112047
0.000846865
0.000577104
7.77495e-05
0.000241584
0.000301568
0.00037126
0.000491772
0.000619372
0.000723454
0.000804767
0.000871297
0.000934692
0.000997009
0.00105806
0.00111755
0.00117748
0.00123897
0.00127896
0.00129056
0.00124753
0.00099777
0.000692198
0.000107255
0.000319115
0.000394936
0.000471921
0.000579093
0.000680299
0.000762416
0.000827843
0.000883161
0.000936576
0.000990842
0.00104538
0.00110358
0.00117148
0.00125143
0.00133693
0.00137617
0.00137036
0.00114094
0.000785364
0.000126573
0.000369452
0.000456879
0.000532452
0.000619755
0.000695261
0.000761525
0.000821576
0.000869949
0.000912142
0.000950033
0.00099089
0.00104561
0.0011223
0.00122763
0.00135905
0.00146718
0.0014933
0.00128915
0.000861861
0.000135958
0.000391972
0.000484366
0.000549649
0.000618962
0.000689336
0.0007493
0.000799319
0.000834435
0.000859978
0.000883412
0.000914586
0.000965565
0.00104973
0.0011798
0.00135953
0.00154661
0.00162074
0.00144694
0.00092719
0.000133986
0.000388387
0.000481278
0.000544733
0.000608675
0.0006712
0.000720344
0.000757702
0.000783225
0.000798496
0.000811339
0.000833606
0.000880614
0.000970261
0.00111983
0.00133815
0.0016018
0.00174471
0.00160606
0.000980812
0.00012807
0.000376382
0.000469604
0.000530147
0.000584488
0.000635576
0.000677538
0.000707962
0.000726686
0.000735253
0.000741102
0.000757337
0.000802039
0.000896738
0.00106176
0.00131103
0.0016287
0.00185917
0.00177086
0.0010248
0.000115798
0.0003553
0.000447268
0.00050596
0.000552083
0.000593593
0.000628302
0.000653053
0.000667354
0.000672634
0.000675908
0.000690262
0.0007352
0.000835299
0.00101145
0.00128148
0.00163845
0.00195664
0.00192587
0.00105716
0.000106127
0.000330265
0.000423694
0.000482505
0.00052393
0.000556236
0.000582024
0.000599927
0.000610133
0.000614195
0.000618617
0.00063493
0.000682475
0.000787322
0.000969686
0.00125117
0.00163635
0.00202697
0.00207423
0.00107936
9.72376e-05
0.000304658
0.000401013
0.000462325
0.000504348
0.000532589
0.000551276
0.00056226
0.000567549
0.000570152
0.000576401
0.000595351
0.000644896
0.000750633
0.000931393
0.00121289
0.00161181
0.00205888
0.00220462
0.00108995
8.83779e-05
0.000279767
0.000380056
0.000445748
0.000492222
0.000523664
0.000542985
0.000551741
0.000553211
0.000553504
0.00055801
0.000575538
0.000621944
0.000720683
0.000890626
0.00116073
0.0015617
0.00206664
0.0023092
0.00109369
8.08303e-05
0.000258868
0.000362245
0.000432873
0.000486141
0.000524237
0.000546243
0.000555982
0.000556961
0.000556119
0.000558908
0.000572438
0.000610573
0.000694123
0.000844641
0.00109267
0.00148031
0.00203336
0.00235826
0.00109288
7.31404e-05
0.000239647
0.000347664
0.000427057
0.000487445
0.000530266
0.000557433
0.000570541
0.000572158
0.000570104
0.000570807
0.000579852
0.000608946
0.000675305
0.000802478
0.00102021
0.00137926
0.00196814
0.00236867
0.00108551
6.84108e-05
0.000231276
0.000346309
0.000430905
0.000496558
0.000546041
0.000579543
0.000597529
0.000602937
0.000601819
0.000601729
0.000607785
0.000629866
0.000682665
0.000788893
0.000987707
0.00132302
0.00189944
0.00225142
0.00108103
6.9033e-05
0.000236734
0.000359017
0.000453605
0.000528734
0.00058743
0.00062996
0.00065711
0.00067175
0.000678804
0.000685205
0.000698289
0.000725777
0.000781224
0.000880731
0.00106147
0.00133452
0.00187328
0.00206485
0.0010631
7.94233e-05
0.000272991
0.000427913
0.000546545
0.000644374
0.000725486
0.000791581
0.000845135
0.00088818
0.000926752
0.00096578
0.00101447
0.00107893
0.00116949
0.00129687
0.00148818
0.00169345
0.00200031
0.00188708
0.00104302
0.000110245
0.000367556
0.000633603
0.000853491
0.00103424
0.00119154
0.00133087
0.00146233
0.0015809
0.00170072
0.00181669
0.00194288
0.00207994
0.00222702
0.0023951
0.00256672
0.00252515
0.00231379
0.00182279
0.000993972
8.76845e-05
0.00013597
0.000234971
0.00033238
0.000423129
0.000501687
0.000576574
0.000638071
0.000704389
0.000752564
0.000815401
0.000853099
0.000916443
0.000947915
0.00101079
0.0010359
0.00107112
0.00107139
0.00104727
0.000928206
)
;

boundaryField
{
    movingWall
    {
        type            kqRWallFunction;
        value           nonuniform List<scalar> 
20
(
8.76845e-05
0.00013597
0.000234971
0.00033238
0.000423129
0.000501687
0.000576574
0.000638071
0.000704389
0.000752564
0.000815401
0.000853099
0.000916443
0.000947915
0.00101079
0.0010359
0.00107112
0.00107139
0.00104727
0.000928206
)
;
    }
    fixedWalls
    {
        type            kqRWallFunction;
        value           nonuniform List<scalar> 
60
(
3.81239e-06
1.59118e-05
4.45001e-05
7.77495e-05
0.000107255
0.000126573
0.000135958
0.000133986
0.00012807
0.000115798
0.000106127
9.72376e-05
8.83779e-05
8.08303e-05
7.31404e-05
6.84108e-05
6.9033e-05
7.94233e-05
0.000110245
8.76845e-05
0.000163975
0.000404375
0.000577104
0.000692198
0.000785364
0.000861861
0.00092719
0.000980812
0.0010248
0.00105716
0.00107936
0.00108995
0.00109369
0.00109288
0.00108551
0.00108103
0.0010631
0.00104302
0.000993972
0.000928206
3.81239e-06
1.02006e-05
1.33691e-05
1.56148e-05
3.13024e-05
9.58099e-05
0.000205116
0.000286926
0.000335934
0.000383474
0.000424496
0.00046104
0.000497942
0.000525692
0.000537676
0.00053981
0.000501439
0.000391353
0.000238699
0.000163975
)
;
    }
    frontAndBack
    {
        type            empty;
    }
}


// ************************************************************************* //
