/*--------------------------------*- C++ -*----------------------------------*\
  =========                 |
  \\      /  F ield         | OpenFOAM: The Open Source CFD Toolbox
   \\    /   O peration     | Website:  https://openfoam.org
    \\  /    A nd           | Version:  13
     \\/     M anipulation  |
\*---------------------------------------------------------------------------*/
FoamFile
{
    format      ascii;
    class       volScalarField;
    location    "3";
    object      nut;
}
// * * * * * * * * * * * * * * * * * * * * * * * * * * * * * * * * * * * * * //

dimensions      [0 2 -1 0 0 0 0];

internalField   nonuniform List<scalar> 
400
(
1.0679e-07
2.85173e-07
3.73507e-07
4.3808e-07
8.9218e-07
2.73902e-06
5.82057e-06
8.09258e-06
9.4616e-06
1.07973e-05
1.19436e-05
1.29698e-05
1.40057e-05
1.47819e-05
1.51175e-05
1.51768e-05
1.4097e-05
1.10035e-05
6.71402e-06
4.61477e-06
4.46228e-07
5.01113e-06
4.42205e-06
3.70374e-06
5.37561e-06
1.09322e-05
1.93749e-05
2.65865e-05
3.41798e-05
4.11919e-05
4.75081e-05
5.20705e-05
5.49632e-05
5.56438e-05
5.45248e-05
5.12502e-05
4.91007e-05
3.80515e-05
2.18176e-05
1.13649e-05
1.25077e-06
1.41524e-05
1.3642e-05
1.30653e-05
1.88571e-05
2.8714e-05
4.03198e-05
5.00445e-05
5.92056e-05
6.56379e-05
7.06228e-05
7.37333e-05
7.51814e-05
7.50044e-05
7.25344e-05
6.70702e-05
6.13265e-05
5.09301e-05
3.0072e-05
1.62146e-05
2.18878e-06
2.19446e-05
2.27118e-05
2.40361e-05
3.19162e-05
4.37452e-05
5.55069e-05
6.65546e-05
7.43693e-05
8.01394e-05
8.44459e-05
8.72183e-05
8.83563e-05
8.78579e-05
8.58512e-05
7.97251e-05
7.06806e-05
6.13976e-05
3.86923e-05
1.94477e-05
3.0223e-06
2.84769e-05
3.08783e-05
3.34775e-05
4.2849e-05
5.43998e-05
6.60857e-05
7.57795e-05
8.29659e-05
8.87802e-05
9.35887e-05
9.67484e-05
9.81036e-05
9.78232e-05
9.56903e-05
9.10907e-05
7.99855e-05
7.00516e-05
4.68583e-05
2.20642e-05
3.5682e-06
3.33721e-05
3.84748e-05
4.17569e-05
5.02004e-05
6.05595e-05
7.14152e-05
8.1579e-05
8.94159e-05
9.5624e-05
9.99269e-05
0.000102598
0.000104129
0.000104179
0.00010248
9.86598e-05
8.90394e-05
7.71599e-05
5.45427e-05
2.42132e-05
3.83283e-06
3.69266e-05
4.39711e-05
4.57466e-05
5.29828e-05
6.42178e-05
7.53469e-05
8.51826e-05
9.23975e-05
9.77844e-05
0.000101946
0.000105229
0.000107503
0.000108311
0.000107394
0.000104747
9.74725e-05
8.32222e-05
6.14776e-05
2.60478e-05
3.77683e-06
3.72379e-05
4.60488e-05
4.83577e-05
5.56035e-05
6.61767e-05
7.6215e-05
8.47361e-05
9.15321e-05
9.68113e-05
0.000101004
0.000105064
0.000108584
0.000110772
0.000110775
0.000108627
0.000103995
8.86656e-05
6.73624e-05
2.75541e-05
3.60909e-06
3.7423e-05
4.90801e-05
5.15084e-05
5.67135e-05
6.51256e-05
7.40952e-05
8.19105e-05
8.8196e-05
9.31855e-05
9.74341e-05
0.000102168
0.000107453
0.000111943
0.000113455
0.000111713
0.000107434
9.32912e-05
7.24976e-05
2.87893e-05
3.2607e-06
3.66234e-05
5.06761e-05
5.3792e-05
5.7048e-05
6.31211e-05
7.05287e-05
7.73435e-05
8.30125e-05
8.76092e-05
9.19292e-05
9.7016e-05
0.000104282
0.000112017
0.00011577
0.000114202
0.000109077
9.74062e-05
7.64429e-05
2.9698e-05
2.98598e-06
3.45728e-05
5.17802e-05
5.63999e-05
5.8473e-05
6.20803e-05
6.72707e-05
7.25329e-05
7.73083e-05
8.15438e-05
8.599e-05
9.12462e-05
0.000100102
0.000111097
0.000117634
0.000116685
0.000110647
9.9898e-05
7.95465e-05
3.03209e-05
2.73432e-06
3.18878e-05
5.2076e-05
5.94415e-05
6.16324e-05
6.35972e-05
6.6599e-05
7.01257e-05
7.35692e-05
7.73614e-05
8.1897e-05
8.72846e-05
9.69858e-05
0.000109985
0.000118533
0.000118074
0.000111144
0.000100688
8.17852e-05
3.0618e-05
2.48348e-06
2.90295e-05
5.16165e-05
6.2526e-05
6.62211e-05
6.81893e-05
7.03068e-05
7.29224e-05
7.49204e-05
7.81344e-05
8.21054e-05
8.6979e-05
9.61882e-05
0.000109149
0.000118206
0.000117712
0.000110242
0.000100632
8.30982e-05
3.07228e-05
2.26976e-06
2.67352e-05
5.08404e-05
6.51946e-05
7.16776e-05
7.50457e-05
7.68326e-05
7.87526e-05
8.02011e-05
8.27141e-05
8.62717e-05
9.01399e-05
9.7559e-05
0.000108053
0.000115954
0.00011493
0.000106811
9.84469e-05
8.33823e-05
3.06994e-05
2.05249e-06
2.48032e-05
5.02788e-05
6.84951e-05
7.81896e-05
8.29446e-05
8.53181e-05
8.67076e-05
8.75882e-05
8.85535e-05
9.09703e-05
9.3463e-05
9.84724e-05
0.000105214
0.000109739
0.000106576
9.91181e-05
9.48976e-05
8.30793e-05
3.04922e-05
1.9175e-06
2.52182e-05
5.22661e-05
7.0583e-05
8.16156e-05
8.80372e-05
9.16754e-05
9.34701e-05
9.42461e-05
9.43184e-05
9.4671e-05
9.49817e-05
9.59727e-05
9.7621e-05
9.91049e-05
9.82236e-05
9.33194e-05
8.96649e-05
7.82484e-05
3.03659e-05
1.93385e-06
2.75691e-05
5.41769e-05
7.2366e-05
8.36669e-05
9.03562e-05
9.37609e-05
9.46773e-05
9.39124e-05
9.1891e-05
8.93043e-05
8.65818e-05
8.41532e-05
8.26661e-05
8.30516e-05
8.39983e-05
8.19323e-05
8.38108e-05
7.27021e-05
2.98616e-05
2.22501e-06
3.23038e-05
5.57723e-05
6.82451e-05
7.53837e-05
7.92356e-05
8.08553e-05
8.06869e-05
7.94758e-05
7.74932e-05
7.54653e-05
7.36865e-05
7.27622e-05
7.26525e-05
7.48249e-05
7.72287e-05
7.85403e-05
7.64291e-05
6.42331e-05
2.92958e-05
3.09197e-06
3.55762e-05
5.17841e-05
5.92236e-05
6.4613e-05
6.84636e-05
7.13146e-05
7.33688e-05
7.49438e-05
7.61697e-05
7.73242e-05
7.84707e-05
8.00538e-05
8.1375e-05
8.40838e-05
8.4957e-05
8.30638e-05
7.55571e-05
5.7955e-05
2.79153e-05
2.4591e-06
3.81558e-06
6.59776e-06
9.33506e-06
1.18845e-05
1.409e-05
1.61921e-05
1.79165e-05
1.97768e-05
2.11262e-05
2.28893e-05
2.39452e-05
2.57244e-05
2.6607e-05
2.83755e-05
2.90815e-05
3.00743e-05
3.00839e-05
2.94072e-05
2.60646e-05
)
;

boundaryField
{
    movingWall
    {
        type            nutkWallFunction;
        Cmu             0.09;
        kappa           0.41;
        E               9.8;
        value           uniform 0;
    }
    fixedWalls
    {
        type            nutkWallFunction;
        Cmu             0.09;
        kappa           0.41;
        E               9.8;
        value           uniform 0;
    }
    frontAndBack
    {
        type            empty;
    }
}


// ************************************************************************* //
