/*--------------------------------*- C++ -*----------------------------------*\
  =========                 |
  \\      /  F ield         | OpenFOAM: The Open Source CFD Toolbox
   \\    /   O peration     | Website:  https://openfoam.org
    \\  /    A nd           | Version:  13
     \\/     M anipulation  |
\*---------------------------------------------------------------------------*/
FoamFile
{
    format      ascii;
    class       volScalarField;
    location    "3";
    object      p;
}
// * * * * * * * * * * * * * * * * * * * * * * * * * * * * * * * * * * * * * //

dimensions      [0 2 -2 0 0 0 0];

internalField   nonuniform List<scalar> 
400
(
6.08936e-08
-3.45253e-05
-8.47998e-05
-0.00016178
-0.00019294
-0.000149416
-0.000337642
-0.000919602
-0.00167385
-0.00232083
-0.00269893
-0.00269434
-0.00226113
-0.00140588
-0.000152897
0.00140178
0.00303508
0.00439889
0.00517572
0.00528779
3.44089e-05
-3.6903e-06
-5.59739e-05
-0.000135044
-0.000253461
-0.000435244
-0.000803982
-0.00144192
-0.00217152
-0.00277972
-0.00316521
-0.00321226
-0.00287778
-0.00212371
-0.000959344
0.000529768
0.00216864
0.00364383
0.00462311
0.00497959
0.000111488
5.60555e-05
-2.35526e-05
-0.000176641
-0.00044417
-0.000873743
-0.00148714
-0.00223122
-0.0029676
-0.00358183
-0.00397794
-0.00404154
-0.00374899
-0.00308867
-0.00207364
-0.00075071
0.000777863
0.00229701
0.0034942
0.00406488
0.000111416
2.70575e-05
-9.76335e-05
-0.000346468
-0.000797864
-0.00146516
-0.00228544
-0.0031396
-0.00391895
-0.00453666
-0.00490604
-0.00497779
-0.00473423
-0.00417019
-0.00330193
-0.00215885
-0.000800052
0.000637922
0.00190158
0.00255405
-2.5825e-05
-0.000149457
-0.000337834
-0.000692019
-0.00129591
-0.00213362
-0.00308054
-0.00400021
-0.00479933
-0.00540595
-0.00576277
-0.00584406
-0.00564455
-0.00517273
-0.00444673
-0.00348783
-0.00232836
-0.00104616
0.000165239
0.000785375
-0.00031384
-0.000471913
-0.000719773
-0.00116253
-0.0018601
-0.0027788
-0.00378128
-0.00472411
-0.00552164
-0.00611346
-0.00645966
-0.00654771
-0.00638429
-0.00599009
-0.00538857
-0.00459946
-0.00364265
-0.00255893
-0.001486
-0.00091677
-0.000710196
-0.000887294
-0.00117244
-0.00165927
-0.00239411
-0.00332283
-0.00432786
-0.00526285
-0.00604389
-0.00661665
-0.00695047
-0.00704147
-0.00690572
-0.00657343
-0.00607427
-0.00542884
-0.0046506
-0.00376303
-0.00289237
-0.00236711
-0.00114374
-0.00131996
-0.00161637
-0.00210005
-0.00282117
-0.00371526
-0.00468551
-0.00559026
-0.0063435
-0.00689323
-0.00721335
-0.00730523
-0.00719077
-0.00690765
-0.00649104
-0.00596327
-0.00533365
-0.00461681
-0.00393802
-0.0034746
-0.00154276
-0.00170553
-0.00198871
-0.00243637
-0.00310549
-0.0039346
-0.00484296
-0.00569792
-0.00641384
-0.00693789
-0.00724463
-0.00733726
-0.0072406
-0.0069979
-0.00664777
-0.00621378
-0.00570431
-0.00512674
-0.00461141
-0.00419981
-0.00187252
-0.00200315
-0.00225946
-0.00265677
-0.0032471
-0.00398498
-0.0048056
-0.00559452
-0.00626537
-0.00676225
-0.00705741
-0.00715271
-0.00707512
-0.00686875
-0.00657348
-0.006213
-0.00580001
-0.00532027
-0.00493026
-0.00455747
-0.00211034
-0.00220969
-0.00242453
-0.00276546
-0.00326236
-0.00389324
-0.004607
-0.00531557
-0.00593324
-0.00640074
-0.00668659
-0.00678893
-0.00673416
-0.00656317
-0.00631388
-0.00601068
-0.00567199
-0.0052386
-0.00495878
-0.00456965
-0.00225733
-0.00232935
-0.00249715
-0.00277457
-0.0031793
-0.00370213
-0.00430607
-0.00492423
-0.00548058
-0.00591528
-0.00619314
-0.00630686
-0.0062779
-0.00614089
-0.00592895
-0.00566457
-0.00536798
-0.00493613
-0.00477991
-0.00427335
-0.00234133
-0.00238251
-0.00249964
-0.00271267
-0.00303465
-0.00346036
-0.00396309
-0.00449275
-0.00498591
-0.0053861
-0.00565579
-0.00578199
-0.00577801
-0.00566942
-0.00548291
-0.0052374
-0.00495262
-0.0044781
-0.00447529
-0.00369795
-0.00238762
-0.00239275
-0.00245573
-0.00260714
-0.00285894
-0.00320567
-0.00362562
-0.00407987
-0.00451651
-0.00488459
-0.00514585
-0.00528209
-0.00529702
-0.00520882
-0.00503423
-0.00478774
-0.00449046
-0.00394788
-0.00406963
-0.00288967
-0.00241289
-0.00237514
-0.00238158
-0.00247554
-0.00266959
-0.00295663
-0.00331591
-0.0037143
-0.00410811
-0.00445143
-0.00470658
-0.00485136
-0.00488103
-0.00480196
-0.00462513
-0.00435773
-0.0040258
-0.00338764
-0.00355269
-0.00187418
-0.00243744
-0.00233773
-0.00228628
-0.00232705
-0.00247397
-0.00271771
-0.0030365
-0.00339918
-0.00376626
-0.00409509
-0.00434929
-0.00450322
-0.00454503
-0.00447027
-0.00428197
-0.00397211
-0.00356384
-0.00275502
-0.00281833
-0.000512376
-0.00248344
-0.00229415
-0.0021774
-0.00216448
-0.00227006
-0.00248187
-0.0027754
-0.0031196
-0.00347745
-0.00380586
-0.00406636
-0.00423133
-0.00428432
-0.00421014
-0.00400081
-0.003604
-0.00303612
-0.00192526
-0.00157951
0.00209216
-0.00258264
-0.00225774
-0.0020718
-0.0019987
-0.00206924
-0.00226025
-0.00254222
-0.00288115
-0.00323926
-0.00357565
-0.0038531
-0.00403467
-0.00409383
-0.00399455
-0.00370978
-0.00316923
-0.00234162
-0.00067564
0.000882661
0.0079363
-0.00289954
-0.0023319
-0.0020371
-0.00191068
-0.0019556
-0.00213678
-0.0024199
-0.00276771
-0.00314071
-0.00349338
-0.00379423
-0.00399333
-0.00407192
-0.00396704
-0.00365213
-0.00294536
-0.00162896
0.00112571
0.00541186
0.0179115
-0.00324325
-0.00084395
-0.000554863
-0.000628143
-0.000782088
-0.00103505
-0.00139548
-0.00182726
-0.00227934
-0.00270365
-0.00305442
-0.00329851
-0.00338108
-0.00326099
-0.00282457
-0.00196378
-0.000123315
0.00422232
0.0126546
0.0283125
)
;

boundaryField
{
    movingWall
    {
        type            zeroGradient;
    }
    fixedWalls
    {
        type            zeroGradient;
    }
    frontAndBack
    {
        type            empty;
    }
}


// ************************************************************************* //
