/*--------------------------------*- C++ -*----------------------------------*\
  =========                 |
  \\      /  F ield         | OpenFOAM: The Open Source CFD Toolbox
   \\    /   O peration     | Website:  https://openfoam.org
    \\  /    A nd           | Version:  13
     \\/     M anipulation  |
\*---------------------------------------------------------------------------*/
FoamFile
{
    format      ascii;
    class       surfaceScalarField;
    location    "3";
    object      phi;
}
// * * * * * * * * * * * * * * * * * * * * * * * * * * * * * * * * * * * * * //

dimensions      [0 3 -1 0 0 0 0];

internalField   nonuniform List<scalar> 
760
(
6.28806e-08
-6.28866e-08
4.76903e-08
1.51901e-08
-2.81972e-08
7.58872e-08
-2.36642e-07
2.08444e-07
-7.51033e-07
5.14391e-07
-1.66695e-06
9.15919e-07
-2.79189e-06
1.12494e-06
-3.78717e-06
9.95279e-07
-4.55906e-06
7.7189e-07
-5.13787e-06
5.78814e-07
-5.4901e-06
3.52225e-07
-5.64611e-06
1.56008e-07
-5.58828e-06
-5.78307e-08
-5.31478e-06
-2.73493e-07
-4.82343e-06
-4.91353e-07
-4.07506e-06
-7.48369e-07
-3.07735e-06
-9.97715e-07
-1.87563e-06
-1.20172e-06
-6.78021e-07
-1.19761e-06
-6.78021e-07
-1.07396e-07
4.4509e-08
-3.64072e-07
2.71866e-07
-7.75656e-07
4.87472e-07
-1.4434e-06
8.7619e-07
-2.38138e-06
1.45237e-06
-3.33138e-06
1.86591e-06
-4.08585e-06
1.87941e-06
-4.71652e-06
1.62595e-06
-5.24448e-06
1.29985e-06
-5.62421e-06
9.58546e-07
-5.86595e-06
5.93967e-07
-5.94047e-06
2.30524e-07
-5.85177e-06
-1.46533e-07
-5.5988e-06
-5.26463e-07
-5.15884e-06
-9.31311e-07
-4.52188e-06
-1.38533e-06
-3.65285e-06
-1.86674e-06
-2.53287e-06
-2.3217e-06
-1.21406e-06
-2.51641e-06
-1.89208e-06
-3.23496e-07
3.68005e-07
-8.10421e-07
7.5879e-07
-1.44719e-06
1.12424e-06
-2.23595e-06
1.66495e-06
-3.03966e-06
2.25608e-06
-3.70944e-06
2.53569e-06
-4.23416e-06
2.40413e-06
-4.67019e-06
2.06198e-06
-5.02019e-06
1.64985e-06
-5.24958e-06
1.18794e-06
-5.36872e-06
7.13102e-07
-5.36742e-06
2.2923e-07
-5.25705e-06
-2.56911e-07
-5.02894e-06
-7.54564e-07
-4.66632e-06
-1.29393e-06
-4.15778e-06
-1.89388e-06
-3.47138e-06
-2.55314e-06
-2.56297e-06
-3.23012e-06
-1.38314e-06
-3.69624e-06
-3.27522e-06
-4.64337e-07
8.32342e-07
-1.04126e-06
1.33571e-06
-1.69989e-06
1.78287e-06
-2.39592e-06
2.36098e-06
-3.00788e-06
2.86804e-06
-3.47745e-06
3.00526e-06
-3.8476e-06
2.77428e-06
-4.14508e-06
2.35946e-06
-4.36084e-06
1.86561e-06
-4.49455e-06
1.32165e-06
-4.54315e-06
7.61697e-07
-4.51015e-06
1.96233e-07
-4.39701e-06
-3.70051e-07
-4.19891e-06
-9.52664e-07
-3.91243e-06
-1.58041e-06
-3.52322e-06
-2.28309e-06
-2.99763e-06
-3.07873e-06
-2.28377e-06
-3.94398e-06
-1.29429e-06
-4.68572e-06
-4.56951e-06
-4.97291e-07
1.32963e-06
-1.05794e-06
1.89636e-06
-1.63638e-06
2.36131e-06
-2.1862e-06
2.91081e-06
-2.62298e-06
3.30483e-06
-2.95356e-06
3.33584e-06
-3.2158e-06
3.03652e-06
-3.41849e-06
2.56215e-06
-3.55602e-06
2.00313e-06
-3.6294e-06
1.39503e-06
-3.63775e-06
7.70048e-07
-3.58534e-06
1.43831e-07
-3.47577e-06
-4.79624e-07
-3.31242e-06
-1.11601e-06
-3.09675e-06
-1.79608e-06
-2.81758e-06
-2.56227e-06
-2.4418e-06
-3.4545e-06
-1.90981e-06
-4.47598e-06
-1.11334e-06
-5.48219e-06
-5.68285e-06
-4.45764e-07
1.7754e-06
-9.25433e-07
2.37603e-06
-1.38243e-06
2.8183e-06
-1.7802e-06
3.30858e-06
-2.07138e-06
3.596e-06
-2.29876e-06
3.56322e-06
-2.4805e-06
3.21826e-06
-2.61782e-06
2.69948e-06
-2.70597e-06
2.09128e-06
-2.74522e-06
1.43428e-06
-2.73603e-06
7.60855e-07
-2.68221e-06
9.00112e-08
-2.58941e-06
-5.72425e-07
-2.46581e-06
-1.23961e-06
-2.31631e-06
-1.94558e-06
-2.13351e-06
-2.74507e-06
-1.88729e-06
-3.70072e-06
-1.51564e-06
-4.84763e-06
-9.1896e-07
-6.07886e-06
-6.60181e-06
-3.47445e-07
2.12284e-06
-7.11929e-07
2.74051e-06
-1.03531e-06
3.14168e-06
-1.28837e-06
3.56164e-06
-1.45967e-06
3.7673e-06
-1.59622e-06
3.69978e-06
-1.71125e-06
3.33329e-06
-1.80055e-06
2.78878e-06
-1.85807e-06
2.1488e-06
-1.8823e-06
1.45851e-06
-1.87303e-06
7.51585e-07
-1.83362e-06
5.05995e-08
-1.77083e-06
-6.35218e-07
-1.69509e-06
-1.31536e-06
-1.61379e-06
-2.02687e-06
-1.52275e-06
-2.83612e-06
-1.39729e-06
-3.82617e-06
-1.17693e-06
-5.068e-06
-7.4627e-07
-6.50952e-06
-7.34808e-06
-2.24961e-07
2.3478e-06
-4.66057e-07
2.98161e-06
-6.59334e-07
3.33496e-06
-7.78808e-07
3.68111e-06
-8.46722e-07
3.83521e-06
-8.97276e-07
3.75033e-06
-9.50292e-07
3.3863e-06
-9.98948e-07
2.83744e-06
-1.03533e-06
2.18519e-06
-1.05569e-06
1.47887e-06
-1.05837e-06
7.54272e-07
-1.04587e-06
3.80996e-08
-1.02416e-06
-6.56936e-07
-1.00399e-06
-1.33552e-06
-9.93288e-07
-2.03757e-06
-9.88872e-07
-2.84053e-06
-9.67124e-07
-3.84792e-06
-8.70029e-07
-5.16509e-06
-6.08116e-07
-6.77143e-06
-7.95619e-06
-1.05232e-07
2.45303e-06
-2.22673e-07
3.09905e-06
-2.96405e-07
3.40869e-06
-2.99867e-07
3.68458e-06
-2.74265e-07
3.80961e-06
-2.41441e-07
3.71751e-06
-2.30785e-07
3.37565e-06
-2.37145e-07
2.8438e-06
-2.53398e-07
2.20144e-06
-2.739e-07
1.49937e-06
-2.95395e-07
7.75767e-07
-3.18576e-07
6.12806e-08
-3.47057e-07
-6.28455e-07
-3.89706e-07
-1.29287e-06
-4.5306e-07
-1.97422e-06
-5.34074e-07
-2.75952e-06
-6.09409e-07
-3.77258e-06
-6.20055e-07
-5.15445e-06
-4.83109e-07
-6.90838e-06
-8.4393e-06
1.23987e-08
2.44064e-06
-5.75733e-09
3.11721e-06
2.12516e-08
3.38168e-06
1.11044e-07
3.59478e-06
2.30321e-07
3.69033e-06
3.46588e-07
3.60124e-06
4.25861e-07
3.29637e-06
4.65326e-07
2.80433e-06
4.71264e-07
2.1955e-06
4.50423e-07
1.52021e-06
4.07243e-07
8.18948e-07
3.43609e-07
1.24915e-07
2.59114e-07
-5.4396e-07
1.50035e-07
-1.18379e-06
1.29527e-08
-1.83714e-06
-1.4935e-07
-2.59722e-06
-3.14612e-07
-3.60732e-06
-4.20546e-07
-5.04851e-06
-3.96448e-07
-6.93248e-06
-8.83575e-06
9.09786e-08
2.34966e-06
1.61982e-07
3.0462e-06
2.64546e-07
3.27912e-06
4.29428e-07
3.4299e-06
6.28424e-07
3.49134e-06
8.22474e-07
3.40719e-06
9.74634e-07
3.14421e-06
1.06783e-06
2.71113e-06
1.10441e-06
2.15893e-06
1.08974e-06
1.53488e-06
1.02871e-06
8.79975e-07
9.26245e-07
2.27379e-07
7.85995e-07
-4.0371e-07
6.12511e-07
-1.01031e-06
4.06637e-07
-1.63126e-06
1.72766e-07
-2.36335e-06
-6.70173e-08
-3.36754e-06
-2.5725e-07
-4.85828e-06
-3.22947e-07
-6.86678e-06
-9.1587e-06
1.5126e-07
2.1984e-06
2.84475e-07
2.91299e-06
4.43514e-07
3.12008e-06
6.54574e-07
3.21884e-06
9.04442e-07
3.24147e-06
1.15702e-06
3.15461e-06
1.37246e-06
2.92877e-06
1.52245e-06
2.56115e-06
1.59862e-06
2.08275e-06
1.60145e-06
1.53205e-06
1.53488e-06
9.46552e-07
1.40587e-06
3.5638e-07
1.22182e-06
-2.19656e-07
9.95902e-07
-7.8439e-07
7.33519e-07
-1.36888e-06
4.39246e-07
-2.06907e-06
1.3048e-07
-3.05877e-06
-1.33162e-07
-4.59464e-06
-2.78358e-07
-6.72158e-06
-9.43706e-06
1.88265e-07
2.01013e-06
3.62647e-07
2.73861e-06
5.5862e-07
2.92411e-06
7.97375e-07
2.98009e-06
1.07297e-06
2.96588e-06
1.35754e-06
2.87004e-06
1.61384e-06
2.67247e-06
1.80885e-06
2.36613e-06
1.92464e-06
1.96697e-06
1.95434e-06
1.50234e-06
1.89865e-06
1.00224e-06
1.76411e-06
4.90924e-07
1.55921e-06
-1.47585e-08
1.3026e-06
-5.27778e-07
1.00242e-06
-1.06869e-06
6.63627e-07
-1.73028e-06
2.98628e-07
-2.69377e-06
-3.52669e-08
-4.26074e-06
-2.28717e-07
-6.52813e-06
-9.66577e-06
1.92712e-07
1.81742e-06
3.93087e-07
2.53823e-06
6.1601e-07
2.70119e-06
8.72926e-07
2.72317e-06
1.15953e-06
2.67927e-06
1.45542e-06
2.57416e-06
1.73047e-06
2.39742e-06
1.95316e-06
2.14344e-06
2.10056e-06
1.81957e-06
2.15999e-06
1.44291e-06
2.12787e-06
1.03436e-06
2.00736e-06
6.11438e-07
1.81091e-06
1.81688e-07
1.54747e-06
-2.64338e-07
1.2312e-06
-7.52421e-07
8.66577e-07
-1.36566e-06
4.6308e-07
-2.29027e-06
8.28117e-08
-3.88048e-06
-1.5442e-07
-6.2909e-06
-9.82019e-06
1.66251e-07
1.65117e-06
3.79191e-07
2.32529e-06
6.23305e-07
2.45707e-06
8.95143e-07
2.45133e-06
1.18834e-06
2.38607e-06
1.48741e-06
2.27509e-06
1.76876e-06
2.11608e-06
2.00576e-06
1.90644e-06
2.17587e-06
1.64946e-06
2.26431e-06
1.35447e-06
2.26405e-06
1.03462e-06
2.17533e-06
7.0016e-07
2.00366e-06
3.53351e-07
1.75768e-06
-1.83519e-08
1.44506e-06
-4.39804e-07
1.07203e-06
-9.92636e-07
6.48078e-07
-1.86632e-06
2.4321e-07
-3.47561e-06
-6.45841e-09
-6.04123e-06
-9.82665e-06
1.07908e-07
1.54326e-06
3.19154e-07
2.11405e-06
5.80196e-07
2.19603e-06
8.69284e-07
2.16225e-06
1.1744e-06
2.08095e-06
1.48065e-06
1.96883e-06
1.76898e-06
1.82775e-06
2.01813e-06
1.65729e-06
2.2089e-06
1.45869e-06
2.32787e-06
1.23551e-06
2.36624e-06
9.96243e-07
2.32108e-06
7.45325e-07
2.19193e-06
4.82498e-07
1.98078e-06
1.92793e-07
1.69155e-06
-1.50568e-07
1.3331e-06
-6.3419e-07
9.06671e-07
-1.43989e-06
4.65995e-07
-3.03493e-06
1.34616e-07
-5.70985e-06
-9.69203e-06
-8.10227e-09
1.55136e-06
1.95011e-07
1.91093e-06
4.74932e-07
1.91611e-06
7.94459e-07
1.84272e-06
1.12753e-06
1.74789e-06
1.45764e-06
1.63872e-06
1.76883e-06
1.51655e-06
2.04557e-06
1.38056e-06
2.27302e-06
1.23123e-06
2.43771e-06
1.07082e-06
2.52832e-06
9.05635e-07
2.54047e-06
7.33174e-07
2.47152e-06
5.5145e-07
2.32269e-06
3.41619e-07
2.08286e-06
8.92688e-08
1.76684e-06
-3.18175e-07
1.34647e-06
-1.01951e-06
8.41833e-07
-2.5303e-06
3.48321e-07
-5.21634e-06
-9.34371e-06
-2.73643e-07
1.82501e-06
-2.97282e-08
1.66702e-06
3.49687e-07
1.53669e-06
7.56701e-07
1.43571e-06
1.16508e-06
1.3395e-06
1.56263e-06
1.24117e-06
1.93689e-06
1.14229e-06
2.27524e-06
1.04222e-06
2.5641e-06
9.42375e-07
2.79592e-06
8.38996e-07
2.96489e-06
7.36659e-07
3.07024e-06
6.27826e-07
3.10301e-06
5.18686e-07
3.05852e-06
3.86111e-07
2.92929e-06
2.18495e-07
2.70618e-06
-9.50619e-08
2.29155e-06
-6.04883e-07
1.67969e-06
-1.91844e-06
8.18562e-07
-4.35522e-06
-8.52515e-06
-3.20101e-07
2.14511e-06
1.29659e-07
1.21726e-06
6.82852e-07
9.83501e-07
1.23738e-06
8.81173e-07
1.77597e-06
8.00916e-07
2.29147e-06
7.25677e-07
2.77713e-06
6.56629e-07
3.22538e-06
5.93965e-07
3.62622e-06
5.41535e-07
3.982e-06
4.83209e-07
4.27859e-06
4.4007e-07
4.5315e-06
3.74919e-07
4.71312e-06
3.37061e-07
4.8496e-06
2.49634e-07
4.87263e-06
1.95461e-07
4.76263e-06
1.49397e-08
4.46212e-06
-3.04375e-07
3.76687e-06
-1.22318e-06
2.20678e-06
-2.79513e-06
-6.31838e-06
2.14511e-06
3.36237e-06
4.34587e-06
5.22704e-06
6.02796e-06
6.75363e-06
7.41026e-06
8.00423e-06
8.54576e-06
9.02897e-06
9.46904e-06
9.84396e-06
1.0181e-05
1.04307e-05
1.06261e-05
1.06411e-05
1.03367e-05
9.1135e-06
6.31838e-06
)
;

boundaryField
{
    movingWall
    {
        type            calculated;
        value           uniform 0;
    }
    fixedWalls
    {
        type            calculated;
        value           uniform 0;
    }
    frontAndBack
    {
        type            empty;
    }
}


// ************************************************************************* //
