/*--------------------------------*- C++ -*----------------------------------*\
  =========                 |
  \\      /  F ield         | OpenFOAM: The Open Source CFD Toolbox
   \\    /   O peration     | Website:  https://openfoam.org
    \\  /    A nd           | Version:  13
     \\/     M anipulation  |
\*---------------------------------------------------------------------------*/
FoamFile
{
    format      ascii;
    class       volScalarField;
    location    "0.8";
    object      epsilon;
}
// * * * * * * * * * * * * * * * * * * * * * * * * * * * * * * * * * * * * * //

dimensions      [0 2 -3 0 0 0 0];

internalField   nonuniform List<scalar> 
6400
(
4.0009e-05
0.00019165
0.000392906
0.000592571
0.000773239
0.000932696
0.00107286
0.00119613
0.00130458
0.0013999
0.0014835
0.00155659
0.00162028
0.0016756
0.00172353
0.00176497
0.00180082
0.00183188
0.00185891
0.00188262
0.00190365
0.00192258
0.00193994
0.00195617
0.00197168
0.00198684
0.00200194
0.00201725
0.00203301
0.00204942
0.00206666
0.00208489
0.00210423
0.0021248
0.00214671
0.00217003
0.00219482
0.00222112
0.00224894
0.00227824
0.00230896
0.00234095
0.00237402
0.0024078
0.00244188
0.00247727
0.0025129
0.00254791
0.00258186
0.00261415
0.0026441
0.00267102
0.00269418
0.00271295
0.00272533
0.0027314
0.00273206
0.00272477
0.00270912
0.00268469
0.00265103
0.00260778
0.00255464
0.00249133
0.00241765
0.00233341
0.00223841
0.00213248
0.00201534
0.00188666
0.00174602
0.00159293
0.00142687
0.00124737
0.00105395
0.000846842
0.000628591
0.000404898
0.000193099
4.02173e-05
0.000192664
0.000172276
0.00025621
0.000354068
0.00044637
0.000528964
0.000601692
0.000665397
0.000721057
0.00076958
0.000811776
0.000848373
0.000880032
0.000907365
0.000930938
0.000951275
0.000968862
0.00098414
0.000997512
0.00100934
0.00101995
0.00102961
0.00103858
0.00104707
0.00105525
0.00106328
0.00107127
0.00107933
0.00108753
0.00109595
0.00110463
0.00111361
0.00112291
0.00113255
0.00114255
0.00115288
0.00116355
0.00117453
0.00118579
0.00119728
0.00120894
0.00122068
0.00123242
0.00124403
0.00125549
0.00126702
0.00127834
0.00128905
0.00129899
0.00130798
0.00131582
0.00132229
0.00132722
0.00132986
0.00133041
0.0013288
0.00132479
0.00131788
0.00130789
0.00129463
0.00127793
0.00125762
0.00123351
0.00120546
0.0011733
0.00113686
0.00109593
0.00105032
0.00099976
0.000943952
0.000882534
0.000815071
0.000741064
0.000659996
0.000571195
0.000474253
0.000370009
0.000263042
0.000172952
0.000192534
0.000403446
0.000260397
0.000298066
0.000364948
0.00043323
0.000496274
0.000552694
0.000602462
0.000645972
0.000683761
0.000716415
0.000744502
0.000768561
0.000789106
0.000806614
0.000821525
0.000834242
0.00084513
0.000854513
0.00086268
0.000869883
0.000876339
0.000882235
0.000887726
0.000892942
0.000897988
0.000902951
0.000907898
0.000912882
0.000917944
0.000923117
0.000928424
0.000933882
0.000939501
0.00094529
0.000951249
0.000957378
0.000963671
0.000970118
0.000976701
0.000983399
0.000990181
0.00099701
0.00100385
0.00101069
0.00101753
0.00102424
0.00103067
0.00103669
0.00104219
0.00104703
0.00105106
0.00105413
0.00105572
0.00105603
0.00105496
0.0010522
0.00104752
0.00104074
0.00103171
0.00102028
0.0010063
0.000989623
0.000970126
0.000947682
0.000922138
0.00089333
0.000861081
0.000825188
0.000785411
0.000741468
0.000693021
0.000639663
0.00058087
0.000516405
0.000446317
0.000371886
0.000299038
0.000255141
0.000395354
0.000625095
0.00036488
0.000367946
0.000414877
0.000469111
0.000521875
0.000570363
0.000613811
0.000652101
0.000685439
0.000714148
0.000738719
0.000759663
0.000777434
0.000792458
0.000805129
0.000815809
0.000824828
0.000832475
0.000839007
0.000844645
0.000849585
0.000853987
0.000857991
0.000861708
0.000865232
0.000868637
0.000871985
0.000875323
0.000878689
0.000882117
0.000885632
0.000889256
0.000893006
0.000896899
0.000900951
0.000905174
0.000909577
0.000914168
0.00091895
0.000923923
0.000929079
0.000934408
0.000939897
0.000945536
0.000951277
0.000957028
0.000962684
0.000968137
0.000973269
0.000977942
0.000982009
0.000985303
0.000987549
0.000988503
0.000988378
0.000986771
0.000983487
0.000978362
0.000971245
0.000961997
0.000950487
0.000936593
0.000920191
0.000901139
0.000879341
0.000854686
0.000827042
0.000796257
0.000762154
0.00072453
0.000683157
0.000637799
0.000588281
0.000534516
0.00047691
0.000417431
0.000363998
0.000351038
0.000593591
0.000837927
0.000465783
0.000439316
0.000471127
0.000515251
0.000560541
0.000603308
0.000642156
0.000676709
0.000707015
0.000733336
0.000755981
0.000775296
0.000791662
0.000805455
0.000817033
0.000826727
0.000834848
0.000841661
0.000847398
0.000852266
0.000856445
0.000860087
0.000863319
0.00086625
0.000868965
0.000871538
0.000874027
0.000876481
0.000878936
0.000881416
0.000883957
0.000886597
0.000889365
0.000892287
0.00089539
0.000898695
0.000902226
0.000906003
0.000910041
0.000914352
0.000918941
0.000923806
0.00092894
0.000934329
0.00093991
0.000945603
0.000951311
0.000956923
0.000962312
0.000967332
0.000971822
0.000975606
0.000978487
0.000980132
0.000980582
0.000979706
0.000977189
0.000972881
0.000966637
0.00095833
0.000947843
0.000935075
0.000919935
0.000902345
0.00088222
0.000859473
0.000834011
0.000805732
0.000774516
0.00074023
0.000702737
0.000661918
0.000617729
0.00057033
0.000520479
0.000470727
0.000430855
0.000441205
0.000771457
0.00103611
0.000558663
0.000506242
0.000525539
0.000561616
0.000601071
0.000639432
0.000674927
0.000706887
0.000735154
0.00075983
0.000781136
0.00079936
0.000814823
0.000827856
0.000838781
0.000847897
0.000855477
0.000861776
0.000867022
0.000871412
0.000875115
0.000878275
0.000881016
0.000883439
0.000885632
0.000887666
0.000889602
0.000891491
0.000893381
0.000895316
0.000897332
0.000899459
0.00090173
0.00090418
0.000906841
0.000909748
0.000912932
0.000916422
0.000920243
0.000924415
0.000928948
0.000933843
0.000939085
0.000944641
0.000950464
0.000956476
0.000962578
0.000968653
0.000974558
0.000980136
0.000985211
0.000989592
0.000993082
0.00099539
0.000996314
0.000995958
0.000993924
0.000990061
0.000984232
0.000976318
0.000966221
0.000953863
0.000939179
0.000922118
0.000902634
0.000880681
0.00085621
0.000829165
0.000799483
0.000767094
0.000731937
0.000693983
0.000653308
0.000610246
0.000565815
0.000523047
0.000493021
0.000522097
0.000928531
0.0012185
0.000643059
0.000567481
0.000576163
0.000605634
0.000640359
0.00067516
0.000707939
0.00073781
0.000764463
0.000787881
0.000808204
0.00082566
0.000840521
0.000853075
0.000863611
0.000872403
0.000879709
0.000885764
0.00089078
0.000894943
0.000898417
0.000901339
0.00090383
0.00090599
0.000907905
0.000909649
0.000911284
0.000912866
0.000914445
0.000916067
0.000917775
0.000919611
0.000921614
0.000923826
0.000926289
0.000929045
0.000932134
0.000935592
0.000939453
0.000943741
0.000948471
0.000953645
0.000959248
0.000965245
0.000971581
0.000978172
0.000984913
0.000991669
0.000998286
0.00100459
0.00101037
0.00101544
0.00101956
0.0010225
0.00102387
0.00102388
0.00102213
0.00101846
0.00101271
0.0010048
0.000994648
0.000982189
0.000967397
0.000950256
0.000930759
0.000908903
0.000884687
0.000858102
0.000829136
0.000797775
0.000764019
0.000727912
0.000689618
0.000649595
0.000609058
0.000571433
0.000548833
0.000593339
0.00106645
0.00138556
0.000719516
0.000623033
0.000622568
0.000646498
0.000677313
0.000709182
0.000739718
0.000767868
0.000793202
0.000815613
0.000835175
0.00085206
0.000866496
0.000878735
0.000889038
0.000897655
0.000904825
0.000910768
0.000915684
0.000919751
0.000923124
0.000925938
0.000928311
0.000930343
0.00093212
0.000933717
0.0009352
0.000936629
0.000938056
0.000939535
0.000941112
0.000942838
0.000944761
0.00094693
0.000949394
0.000952205
0.000955409
0.000959052
0.000963173
0.000967802
0.000972957
0.000978642
0.000984841
0.000991517
0.000998605
0.00100601
0.00101362
0.00102129
0.00102882
0.00103603
0.00104269
0.00104857
0.00105342
0.00105699
0.00105884
0.00105913
0.00105755
0.00105387
0.00104796
0.00103974
0.00102914
0.00101616
0.00100078
0.000983038
0.000962975
0.000940637
0.000916069
0.000889314
0.000860408
0.000829387
0.000796299
0.000761247
0.000724459
0.000686485
0.000648702
0.000614918
0.000598108
0.000655726
0.00118801
0.0015382
0.000788834
0.000673144
0.000664851
0.000684027
0.00071156
0.000740987
0.00076966
0.00079638
0.000820625
0.000842216
0.000861171
0.000877618
0.000891747
0.000903779
0.000913946
0.000922481
0.000929604
0.000935523
0.000940426
0.000944484
0.000947845
0.000950643
0.000952993
0.000954995
0.000956736
0.000958294
0.000959739
0.000961132
0.000962533
0.000963998
0.000965584
0.000967345
0.000969339
0.000971624
0.000974257
0.000977297
0.000980801
0.000984822
0.000989407
0.000994591
0.0010004
0.00100683
0.00101388
0.0010215
0.00102961
0.00103812
0.00104689
0.00105574
0.00106448
0.00107287
0.00108066
0.00108756
0.00109331
0.00109763
0.00110003
0.00110059
0.0010991
0.00109526
0.00108896
0.00108012
0.00106871
0.00105475
0.00103829
0.00101941
0.000998208
0.000974784
0.000949244
0.000921682
0.000892187
0.00086084
0.000827735
0.000793017
0.000756968
0.000720209
0.000684249
0.00065341
0.000641211
0.000710247
0.00129557
0.00167747
0.00085164
0.000718418
0.000703208
0.000718276
0.000743025
0.000770408
0.000797526
0.00082306
0.000846404
0.000867325
0.000885794
0.000901903
0.000915809
0.000927707
0.000937807
0.000946323
0.000953461
0.000959417
0.000964368
0.00096848
0.000971896
0.000974748
0.000977148
0.000979198
0.000980987
0.000982594
0.000984093
0.00098555
0.000987031
0.000988598
0.000990313
0.00099224
0.000994445
0.000996994
0.000999956
0.0010034
0.00100739
0.00101199
0.00101726
0.00102324
0.00102996
0.00103743
0.00104563
0.00105453
0.00106403
0.00107402
0.00108434
0.00109479
0.00110514
0.00111511
0.0011244
0.00113268
0.00113963
0.00114492
0.00114803
0.00114894
0.00114751
0.00114339
0.00113646
0.00112667
0.00111402
0.00109857
0.00108045
0.00105979
0.00103676
0.00101154
0.000984305
0.000955205
0.00092439
0.000891991
0.000858145
0.000823038
0.000786997
0.000750711
0.000715816
0.000687133
0.000678707
0.00075787
0.0013911
0.0018044
0.000908562
0.000759329
0.000737925
0.000749401
0.000771771
0.000797431
0.000823254
0.000847804
0.000870408
0.000890785
0.000908868
0.000924718
0.000938467
0.000950288
0.000960372
0.000968916
0.000976115
0.000982152
0.000987199
0.000991414
0.000994938
0.0009979
0.00100041
0.00100258
0.00100448
0.00100622
0.00100786
0.00100947
0.00101113
0.00101291
0.00101487
0.00101709
0.00101965
0.00102262
0.00102608
0.00103012
0.0010348
0.00104022
0.00104644
0.00105351
0.00106147
0.00107034
0.00108011
0.00109073
0.0011021
0.00111409
0.00112653
0.00113916
0.00115171
0.00116385
0.00117521
0.0011854
0.00119402
0.00120067
0.00120479
0.00120618
0.00120487
0.00120036
0.00119255
0.00118142
0.001167
0.00114944
0.00112891
0.00110566
0.00107995
0.00105204
0.00102219
0.000990655
0.000957637
0.00092333
0.00088792
0.000851636
0.000814851
0.000778319
0.000743807
0.000716589
0.000711277
0.000799526
0.00147636
0.00191993
0.000960161
0.000796292
0.000769296
0.000777604
0.000797921
0.000822125
0.000846869
0.000870609
0.00089261
0.00091255
0.000930333
0.000945993
0.00095964
0.00097143
0.000981538
0.000990147
0.000997441
0.0010036
0.00100878
0.00101314
0.00101681
0.00101994
0.00102261
0.00102495
0.00102705
0.00102898
0.00103084
0.0010327
0.00103464
0.00103673
0.00103907
0.00104172
0.00104478
0.00104835
0.0010525
0.00105735
0.00106299
0.00106952
0.00107701
0.00108554
0.00109518
0.00110594
0.00111781
0.00113076
0.00114467
0.0011594
0.00117473
0.00119036
0.00120597
0.00122113
0.00123539
0.00124828
0.00125928
0.0012679
0.00127349
0.00127564
0.00127455
0.00126958
0.00126061
0.00124765
0.0012308
0.00121029
0.00118641
0.00115951
0.00112998
0.00109821
0.0010646
0.00102947
0.000993141
0.000955873
0.000917914
0.000879542
0.000841179
0.000803648
0.000768842
0.000742437
0.000739666
0.000836134
0.00155309
0.00202496
0.00100693
0.000829672
0.000797603
0.000803096
0.000821632
0.000844599
0.000868443
0.00089152
0.000913037
0.000932636
0.000950192
0.000965721
0.000979315
0.000991113
0.00100128
0.00100998
0.00101741
0.00102371
0.00102906
0.0010336
0.00103747
0.0010408
0.00104369
0.00104626
0.00104861
0.00105082
0.00105298
0.00105517
0.00105749
0.00106003
0.00106286
0.0010661
0.00106984
0.0010742
0.00107928
0.00108522
0.00109212
0.00110011
0.0011093
0.00111979
0.00113165
0.00114494
0.00115966
0.00117576
0.00119313
0.0012116
0.0012309
0.00125069
0.00127054
0.00128994
0.00130831
0.00132504
0.00133946
0.00135095
0.00135875
0.0013621
0.00136145
0.00135596
0.00134549
0.00133009
0.00130994
0.00128538
0.00125686
0.00122489
0.00119005
0.00115289
0.00111397
0.00107376
0.0010327
0.000991141
0.000949412
0.000907849
0.00086693
0.000827546
0.000791713
0.000765447
0.000764676
0.000868625
0.00162307
0.00212031
0.00104932
0.000859801
0.000823109
0.000826087
0.000843068
0.00086498
0.000888077
0.000910615
0.00093175
0.000951089
0.000968486
0.000983936
0.000997519
0.00100936
0.00101961
0.00102845
0.00103602
0.0010425
0.00104805
0.0010528
0.0010569
0.00106048
0.00106364
0.0010665
0.00106916
0.00107172
0.00107426
0.0010769
0.00107971
0.00108281
0.0010863
0.0010903
0.00109493
0.00110031
0.00110661
0.00111395
0.00112251
0.00113242
0.00114385
0.00115692
0.00117176
0.00118843
0.00120696
0.00122732
0.00124939
0.00127297
0.00129774
0.00132328
0.00134905
0.00137441
0.00139859
0.0014208
0.00144016
0.00145583
0.00146695
0.00147221
0.00147235
0.00146633
0.00145396
0.00143529
0.00141066
0.00138056
0.00134565
0.00130669
0.0012645
0.00121989
0.00117362
0.00112637
0.00107873
0.00103118
0.00098414
0.000938017
0.000893346
0.000851089
0.00081338
0.00078649
0.000787164
0.000897962
0.0016882
0.0022067
0.00108771
0.000886974
0.000846055
0.000846781
0.000862395
0.000883406
0.000905882
0.000927988
0.000948828
0.000967979
0.000985273
0.00100069
0.0010143
0.00102622
0.00103659
0.00104557
0.00105332
0.00106001
0.00106578
0.00107078
0.00107515
0.00107902
0.0010825
0.00108571
0.00108875
0.00109173
0.00109476
0.00109793
0.00110137
0.00110518
0.00110949
0.00111445
0.0011202
0.00112691
0.00113475
0.00114392
0.00115461
0.00116703
0.00118138
0.00119786
0.00121662
0.00123778
0.00126142
0.00128752
0.00131596
0.0013465
0.00137879
0.00141228
0.00144631
0.00148002
0.00151245
0.00154249
0.001569
0.00159082
0.00160682
0.00161522
0.00161661
0.00161016
0.00159534
0.00157233
0.00154158
0.00150385
0.00146013
0.00141151
0.00135918
0.0013043
0.00124793
0.00119102
0.00113437
0.00107862
0.00102429
0.00097188
0.000921969
0.000875582
0.000834959
0.000806577
0.00080805
0.000925161
0.00175054
0.00228483
0.00112246
0.000911475
0.00086664
0.000865372
0.000879778
0.000900015
0.000921976
0.000943738
0.000964359
0.000983383
0.00100063
0.00101606
0.00102973
0.00104175
0.00105226
0.00106142
0.00106938
0.00107629
0.00108232
0.0010876
0.00109227
0.00109647
0.00110032
0.00110393
0.00110743
0.00111092
0.00111452
0.00111836
0.00112255
0.00112724
0.00113258
0.00113873
0.00114589
0.00115426
0.00116407
0.00117556
0.00118899
0.00120465
0.0012228
0.00124372
0.00126764
0.00129475
0.00132519
0.00135897
0.001396
0.00143602
0.0014786
0.00152308
0.00156861
0.00161409
0.00165821
0.00169951
0.0017364
0.00176727
0.00179054
0.00180387
0.00180739
0.00180071
0.00178281
0.00175392
0.00171477
0.00166648
0.00161049
0.00154843
0.00148202
0.00141292
0.00134265
0.00127251
0.0012036
0.00113673
0.00107257
0.00101166
0.000954642
0.000902559
0.000857739
0.00082683
0.000828332
0.000951286
0.00181222
0.00235535
0.00115389
0.000933541
0.000885079
0.000882038
0.000895372
0.000914943
0.000936478
0.000957972
0.000978435
0.000997387
0.00101462
0.0010301
0.00104387
0.00105602
0.0010667
0.00107605
0.00108424
0.00109141
0.00109771
0.00110331
0.00110832
0.0011129
0.00111717
0.00112125
0.00112528
0.00112937
0.00113365
0.00113827
0.00114338
0.00114913
0.00115572
0.00116335
0.00117226
0.00118271
0.00119498
0.00120941
0.00122633
0.00124613
0.00126918
0.00129586
0.00132652
0.00136146
0.00140089
0.00144493
0.00149351
0.00154638
0.00160304
0.00166271
0.00172429
0.00178636
0.00184717
0.00190471
0.00195675
0.00200104
0.00203529
0.00205636
0.00206343
0.00205705
0.00203526
0.00199843
0.00194762
0.00188452
0.00181126
0.00173027
0.00164408
0.0015551
0.00146553
0.00137718
0.00129152
0.00120963
0.00113226
0.00106002
0.000993513
0.000933782
0.000883183
0.000848479
0.000849092
0.000977459
0.00187535
0.00241883
0.0011823
0.000953382
0.000901587
0.000896942
0.000909324
0.00092832
0.000949503
0.000970792
0.000991152
0.00101008
0.00102734
0.0010429
0.00105679
0.0010691
0.00107997
0.00108954
0.00109798
0.00110542
0.00111204
0.00111798
0.00112337
0.00112838
0.00113312
0.00113774
0.00114237
0.00114715
0.00115224
0.00115779
0.00116398
0.00117102
0.00117912
0.00118855
0.0011996
0.00121261
0.00122796
0.00124607
0.0012674
0.00129246
0.00132178
0.00135588
0.00139528
0.00144043
0.00149173
0.00154939
0.00161346
0.00168374
0.00175968
0.00184036
0.00192442
0.00200999
0.00209474
0.00217587
0.00225023
0.00231459
0.00236561
0.00239905
0.00241208
0.00240714
0.00238066
0.00233311
0.00226605
0.00218194
0.00208402
0.00197594
0.00186149
0.00174427
0.00162746
0.00151369
0.00140493
0.00130254
0.00120741
0.00112007
0.00104104
0.000971215
0.000912898
0.000872851
0.000871509
0.00100499
0.00194233
0.00247582
0.00120795
0.0009712
0.000916346
0.000910239
0.000921772
0.000940271
0.000961166
0.000982302
0.0010026
0.00102154
0.00103887
0.00105453
0.00106857
0.00108106
0.00109214
0.00110195
0.00111066
0.00111841
0.00112536
0.00113167
0.00113749
0.00114296
0.00114824
0.00115346
0.00115878
0.00116437
0.00117038
0.00117702
0.0011845
0.00119306
0.00120297
0.00121457
0.00122823
0.00124439
0.00126352
0.00128621
0.00131306
0.00134475
0.00138202
0.00142561
0.00147627
0.00153471
0.00160155
0.00167726
0.00176207
0.00185591
0.00195828
0.00206813
0.00218379
0.00230286
0.0024222
0.0025379
0.00264549
0.0027402
0.00281712
0.00287064
0.00289406
0.00289286
0.0028613
0.00279961
0.0027099
0.00259582
0.00246224
0.00231473
0.00215908
0.00200081
0.00184471
0.00169463
0.00155332
0.00142253
0.00130318
0.00119561
0.00110003
0.001017
0.000948569
0.000901334
0.000896836
0.00103531
0.00201556
0.00252683
0.00123108
0.000987185
0.000929518
0.000922077
0.000932848
0.000950914
0.000971573
0.000992599
0.00101288
0.00103185
0.00104928
0.00106507
0.00107927
0.00109197
0.00110328
0.00111335
0.00112235
0.00113042
0.00113774
0.00114446
0.00115073
0.00115673
0.00116259
0.00116849
0.0011746
0.00118109
0.00118818
0.00119608
0.00120506
0.00121541
0.00122748
0.00124168
0.00125848
0.00127845
0.00130223
0.00133055
0.00136424
0.00140422
0.0014515
0.00150714
0.00157222
0.00164783
0.00173499
0.00183454
0.0019471
0.00207287
0.00221152
0.00236198
0.00252228
0.00268935
0.00285897
0.00302572
0.00318317
0.00332426
0.00344162
0.00352789
0.00357087
0.00357733
0.00354211
0.00346277
0.00334213
0.00318543
0.00299991
0.00279415
0.00257719
0.0023577
0.00214323
0.00193968
0.00175113
0.00157985
0.00142668
0.00129151
0.00117382
0.00107346
0.000991889
0.000935286
0.000926138
0.00106875
0.00209435
0.00257234
0.00125192
0.00100151
0.000941254
0.00093259
0.000942674
0.000960362
0.000980826
0.00100178
0.00102206
0.0010411
0.00105864
0.00107459
0.00108898
0.00110189
0.00111344
0.0011238
0.0011331
0.00114153
0.00114924
0.00115639
0.00116317
0.00116973
0.00117624
0.0011829
0.00118988
0.00119741
0.00120572
0.00121507
0.00122578
0.00123823
0.00125283
0.00127012
0.00129068
0.00131525
0.00134464
0.00137984
0.00142195
0.00147221
0.001532
0.00160282
0.00168626
0.00178398
0.00189759
0.00202859
0.00217822
0.00234727
0.00253582
0.00274295
0.00296643
0.00320246
0.00344538
0.00368768
0.0039202
0.00413247
0.00431369
0.00445289
0.00453227
0.00455495
0.00452182
0.0044233
0.00426257
0.00404669
0.00378614
0.00349392
0.00318425
0.00287119
0.00256718
0.00228199
0.00202209
0.00179079
0.00158869
0.00141465
0.00126674
0.00114331
0.00104458
0.000975915
0.000960185
0.00110578
0.00217828
0.00261277
0.00127069
0.00101434
0.000951694
0.000941903
0.000951365
0.000968718
0.000989022
0.00100992
0.00103024
0.00104937
0.00106704
0.00108316
0.00109774
0.00111088
0.0011227
0.00113335
0.00114299
0.00115178
0.0011599
0.00116753
0.00117485
0.00118202
0.00118925
0.00119674
0.0012047
0.00121339
0.00122307
0.00123408
0.00124679
0.00126167
0.00127923
0.00130014
0.00132516
0.0013552
0.00139135
0.00143487
0.00148723
0.00155011
0.00162541
0.00171525
0.00182195
0.00194798
0.00209591
0.00226829
0.0024674
0.00269505
0.00295214
0.00323823
0.00355099
0.00388575
0.00423501
0.0045884
0.00493289
0.00525325
0.00553355
0.00575807
0.00590336
0.00595902
0.00594224
0.00582995
0.00562319
0.00533033
0.00496545
0.00454732
0.00409785
0.00363999
0.00319511
0.0027806
0.0024082
0.00208359
0.00180721
0.00157596
0.0013851
0.00123008
0.00110859
0.00102423
0.000999488
0.00114641
0.00226552
0.00264854
0.00128758
0.00102581
0.000960965
0.000950133
0.000959024
0.00097608
0.000996249
0.00101712
0.00103749
0.00105672
0.00107453
0.00109083
0.00110563
0.00111902
0.00113111
0.00114206
0.00115205
0.00116123
0.0011698
0.00117793
0.00118582
0.00119366
0.00120167
0.00121006
0.00121911
0.00122908
0.00124032
0.0012532
0.00126819
0.00128585
0.00130684
0.00133197
0.00136221
0.00139872
0.0014429
0.00149639
0.00156114
0.0016394
0.00173378
0.00184727
0.00198322
0.00214534
0.00233763
0.00256422
0.0028291
0.00313575
0.00348649
0.00388182
0.00431949
0.00479371
0.00529446
0.00580733
0.00631391
0.00679266
0.00722038
0.00757489
0.00783197
0.0079552
0.0079769
0.00787271
0.00762679
0.00724765
0.00675152
0.0061623
0.005511
0.00483363
0.00416687
0.00354337
0.00298697
0.00251021
0.00211479
0.00179454
0.0015394
0.00133914
0.00118643
0.00108123
0.00104422
0.00119005
0.00235257
0.00268004
0.00130277
0.00103608
0.000969185
0.000957385
0.000965751
0.000982538
0.00100259
0.00102346
0.00104388
0.00106322
0.00108119
0.00109768
0.0011127
0.00112634
0.00113872
0.00114999
0.00116033
0.00116992
0.00117895
0.00118761
0.00119612
0.00120467
0.00121352
0.00122291
0.00123314
0.00124454
0.0012575
0.00127249
0.00129006
0.00131089
0.0013358
0.00136579
0.00140209
0.00144616
0.00149979
0.00156511
0.00164468
0.00174151
0.00185918
0.00200186
0.00217437
0.0023822
0.00263144
0.00292859
0.00328022
0.00369232
0.00416942
0.00471332
0.00532176
0.00598702
0.00669504
0.00742535
0.00815195
0.00884527
0.00947428
0.0100099
0.0104267
0.0106764
0.0107654
0.0107146
0.0104648
0.0100194
0.00939235
0.00860646
0.00769715
0.00671421
0.00571566
0.00476122
0.00390149
0.00316873
0.00257308
0.00210611
0.00174878
0.00147986
0.00128215
0.00114822
0.00109429
0.00123545
0.00243442
0.00270763
0.00131642
0.00104525
0.000976463
0.000963758
0.000971636
0.000988175
0.00100813
0.00102899
0.00104948
0.00106894
0.00108707
0.00110375
0.001119
0.0011329
0.00114557
0.00115717
0.00116789
0.0011779
0.00118741
0.00119663
0.00120578
0.0012151
0.00122485
0.00123532
0.00124684
0.0012598
0.00127467
0.00129199
0.00131244
0.00133684
0.0013662
0.00140174
0.001445
0.00149781
0.00156245
0.00164166
0.00173877
0.00185783
0.00200366
0.00218206
0.00239987
0.00266507
0.0029867
0.00337467
0.00383912
0.00438951
0.00503303
0.00577262
0.00660465
0.00751693
0.00848777
0.00948672
0.0104773
0.0114206
0.01228
0.0130253
0.0136294
0.0140623
0.0142733
0.014321
0.0141483
0.0137126
0.0130231
0.0120884
0.0109287
0.00959649
0.00816758
0.00673567
0.00539995
0.0042405
0.00330011
0.0025797
0.00204988
0.00166992
0.00140328
0.00122763
0.00114958
0.00128087
0.00250512
0.00273165
0.0013287
0.00105346
0.0009829
0.000969343
0.000976762
0.000993068
0.00101293
0.0010338
0.00105435
0.00107394
0.00109223
0.00110911
0.00112458
0.00113874
0.00115171
0.00116365
0.00117474
0.00118519
0.00119521
0.00120501
0.00121484
0.00122496
0.00123567
0.00124729
0.0012602
0.00127487
0.00129182
0.00131172
0.00133536
0.00136374
0.00139809
0.0014399
0.00149106
0.00155386
0.00163117
0.00172651
0.00184419
0.00198953
0.00216905
0.00239069
0.00266401
0.00300033
0.0034127
0.00391548
0.00452338
0.00524975
0.00610386
0.00708745
0.00819114
0.0093918
0.0106527
0.0119272
0.0131659
0.0143234
0.0153656
0.0162851
0.0170532
0.0176611
0.0180772
0.0182669
0.0182913
0.0180049
0.0174101
0.0165111
0.0152575
0.0136687
0.0118296
0.00983592
0.00784953
0.00603272
0.00451409
0.0033488
0.00251448
0.00194385
0.0015646
0.00132459
0.00121066
0.00132439
0.00255867
0.0027524
0.00133973
0.0010608
0.000988586
0.000974224
0.000981205
0.000997289
0.00101707
0.00103793
0.00105856
0.00107826
0.00109671
0.00111379
0.00112949
0.00114391
0.00115718
0.00116946
0.00118094
0.00119183
0.00120236
0.00121277
0.00122331
0.00123428
0.001246
0.00125884
0.00127325
0.00128974
0.00130895
0.00133166
0.00135881
0.00139158
0.00143145
0.00148025
0.00154027
0.00161436
0.00170609
0.00181992
0.0019614
0.00213748
0.00235681
0.00263009
0.00297041
0.0033934
0.00391712
0.00456127
0.00534536
0.00628551
0.00738958
0.00865138
0.0100455
0.0115255
0.0130281
0.0144847
0.0158392
0.0170482
0.0180792
0.0189141
0.0196138
0.0202254
0.0207658
0.021236
0.0216138
0.021799
0.021751
0.0212251
0.020254
0.0186886
0.0167237
0.0142974
0.0116394
0.00897428
0.00657944
0.00466177
0.0032828
0.0023698
0.00179525
0.00144971
0.0012798
0.00136448
0.00258999
0.00277019
0.00134966
0.00106738
0.000993607
0.000978475
0.000985035
0.0010009
0.00102059
0.00104146
0.00106215
0.00108197
0.00110057
0.00111784
0.00113377
0.00114845
0.00116201
0.00117463
0.0011865
0.00119785
0.0012089
0.00121992
0.0012312
0.00124305
0.00125583
0.00126996
0.00128595
0.0013044
0.00132604
0.00135177
0.00138271
0.00142027
0.00146619
0.00152269
0.00159252
0.00167919
0.00178711
0.00192186
0.00209051
0.00230201
0.00256765
0.00290158
0.00332121
0.00384735
0.00450379
0.00531556
0.00630541
0.00748777
0.00886045
0.0103956
0.0120342
0.0136891
0.0152606
0.0166591
0.0177984
0.0186661
0.0193405
0.019924
0.0204681
0.0210083
0.0215648
0.0221428
0.0227311
0.0233096
0.0238703
0.0242049
0.0243096
0.0237382
0.0222878
0.019874
0.0169018
0.0134588
0.00998543
0.00693482
0.00461995
0.00308235
0.00215312
0.00162445
0.00136288
0.00140067
0.00259605
0.00278528
0.0013586
0.00107327
0.000998039
0.000982169
0.000988319
0.00100397
0.00102357
0.00104443
0.00106518
0.0010851
0.00110386
0.0011213
0.00113745
0.00115238
0.00116624
0.00117919
0.00119146
0.00120325
0.00121484
0.00122649
0.00123852
0.00125127
0.00126515
0.00128064
0.00129829
0.0013188
0.00134301
0.00137197
0.00140698
0.00144968
0.00150215
0.00156699
0.00164755
0.00174804
0.00187387
0.00203194
0.00223112
0.00248274
0.00280126
0.0032049
0.00371605
0.00436124
0.00516975
0.00617019
0.00738374
0.00881365
0.0104322
0.0121696
0.0139124
0.0155208
0.0168624
0.0178493
0.0185203
0.0189589
0.0192551
0.019509
0.0197954
0.0201858
0.0207159
0.0213968
0.0222178
0.0231322
0.0240596
0.0249357
0.0257194
0.0262271
0.0264037
0.0255217
0.0231417
0.0194678
0.0151238
0.0107231
0.00698144
0.00434174
0.00275331
0.00189157
0.00147291
0.00143471
0.00257857
0.00279794
0.00136665
0.00107858
0.00100195
0.000985367
0.000991114
0.00100655
0.00102605
0.0010469
0.00106769
0.00108771
0.0011066
0.00112422
0.00114057
0.00115575
0.00116989
0.00118317
0.00119582
0.00120807
0.00122019
0.00123248
0.00124527
0.00125895
0.00127396
0.00129084
0.00131021
0.00133288
0.00135978
0.00139214
0.00143144
0.0014796
0.00153904
0.00161284
0.00170492
0.00182037
0.00196568
0.0021493
0.00238214
0.0026783
0.00305583
0.00353749
0.00415098
0.00492819
0.00590225
0.00710079
0.00853441
0.0101803
0.0119653
0.0137575
0.0153805
0.0166609
0.017479
0.0177982
0.0178431
0.0177096
0.017485
0.0173549
0.0173153
0.0174611
0.0178518
0.0184859
0.0193853
0.0205509
0.0219645
0.0235523
0.0251547
0.0265778
0.0276906
0.0282097
0.0280842
0.0261143
0.0218027
0.0164484
0.0109971
0.00661508
0.00382306
0.0023365
0.00163631
0.00147173
0.0025432
0.00280839
0.00137392
0.00108336
0.00100541
0.000988129
0.000993474
0.00100869
0.00102808
0.0010489
0.00106973
0.00108983
0.00110884
0.00112662
0.00114317
0.00115858
0.00117299
0.00118659
0.00119962
0.00121231
0.00122496
0.00123788
0.00125144
0.00126605
0.00128222
0.00130052
0.00132167
0.00134655
0.00137625
0.00141213
0.00145591
0.00150978
0.00157653
0.00165975
0.00176403
0.00189536
0.0020615
0.00227256
0.00254173
0.00288616
0.00332777
0.00389399
0.00461749
0.00553409
0.00667696
0.00806523
0.00968614
0.0114735
0.0132916
0.0149403
0.0161863
0.0167578
0.0168921
0.016639
0.0160206
0.0153605
0.0148014
0.0144447
0.0142915
0.0142691
0.0145245
0.0149984
0.0157111
0.0166965
0.0180253
0.0197608
0.0218796
0.0242885
0.0266966
0.0286278
0.0297675
0.030227
0.0287467
0.0238413
0.017173
0.0105974
0.00578982
0.00313039
0.0019049
0.00152461
0.00250107
0.00281686
0.0013805
0.00108768
0.00100848
0.000990508
0.000995451
0.00101043
0.0010297
0.00105048
0.00107133
0.00109149
0.00111061
0.00112854
0.00114527
0.00116089
0.00117556
0.00118947
0.00120286
0.00121599
0.00122915
0.0012427
0.00125702
0.00127257
0.00128989
0.00130963
0.00133258
0.00135972
0.00139226
0.00143175
0.00148013
0.00153988
0.00161418
0.00170714
0.00182409
0.00197198
0.0021599
0.00239976
0.0027072
0.00310249
0.00361146
0.00426588
0.00510222
0.00615738
0.00745884
0.00900741
0.0107533
0.0125734
0.0142683
0.0155245
0.0160455
0.0160998
0.0155638
0.0146567
0.0137073
0.0129086
0.0123448
0.0120628
0.0119628
0.0119755
0.0122262
0.0126137
0.0131549
0.0138678
0.0147746
0.0159569
0.0175928
0.0198354
0.0227834
0.0261224
0.0293145
0.0313178
0.0321232
0.0309335
0.0252262
0.0169408
0.00935741
0.00460189
0.0023831
0.00161827
0.00247098
0.00282354
0.00138646
0.00109161
0.0010112
0.000992552
0.000997088
0.00101182
0.00103096
0.00105168
0.00107253
0.00109275
0.00111195
0.00113001
0.0011469
0.00116272
0.00117764
0.00119184
0.00120557
0.00121911
0.00123277
0.00124693
0.001262
0.00127848
0.00129695
0.00131812
0.00134287
0.00137227
0.00140768
0.00145081
0.00150382
0.00156951
0.00165145
0.00175431
0.00188415
0.00204892
0.00225909
0.00252843
0.002875
0.00332216
0.00389933
0.00464169
0.00558752
0.00677074
0.00820628
0.00986674
0.011655
0.0133879
0.0147639
0.0153631
0.0154283
0.0148159
0.0137582
0.0126099
0.0116524
0.0109884
0.0106451
0.0105122
0.0104973
0.01066
0.0109697
0.0113785
0.0118955
0.0125203
0.0132599
0.0141329
0.0151893
0.0165434
0.0184241
0.0213259
0.025335
0.0297053
0.0327753
0.0339352
0.0327245
0.0255046
0.0153643
0.00732366
0.0032736
0.00179963