/*--------------------------------*- C++ -*----------------------------------*\
  =========                 |
  \\      /  F ield         | OpenFOAM: The Open Source CFD Toolbox
   \\    /   O peration     | Website:  https://openfoam.org
    \\  /    A nd           | Version:  13
     \\/     M anipulation  |
\*---------------------------------------------------------------------------*/
FoamFile
{
    format      ascii;
    class       volScalarField;
    location    "0.8";
    object      k;
}
// * * * * * * * * * * * * * * * * * * * * * * * * * * * * * * * * * * * * * //

dimensions      [0 2 -2 0 0 0 0];

internalField   nonuniform List<scalar> 
6400
(
7.79552e-07
3.73434e-06
7.65614e-06
1.15473e-05
1.50685e-05
1.81764e-05
2.09084e-05
2.33113e-05
2.54255e-05
2.72838e-05
2.89137e-05
3.03388e-05
3.15808e-05
3.26597e-05
3.35945e-05
3.4403e-05
3.51024e-05
3.57084e-05
3.62361e-05
3.6699e-05
3.71097e-05
3.74795e-05
3.78186e-05
3.81358e-05
3.84392e-05
3.87355e-05
3.90309e-05
3.93306e-05
3.96391e-05
3.99603e-05
4.02978e-05
4.06546e-05
4.10332e-05
4.14361e-05
4.18651e-05
4.23219e-05
4.28074e-05
4.33226e-05
4.38674e-05
4.44413e-05
4.50429e-05
4.56696e-05
4.63172e-05
4.69785e-05
4.76458e-05
4.83389e-05
4.90362e-05
4.97215e-05
5.03859e-05
5.10175e-05
5.16033e-05
5.21295e-05
5.25819e-05
5.29482e-05
5.31891e-05
5.33068e-05
5.33184e-05
5.31744e-05
5.28667e-05
5.23873e-05
5.17277e-05
5.08807e-05
4.98404e-05
4.86019e-05
4.7161e-05
4.55141e-05
4.36579e-05
4.15884e-05
3.93008e-05
3.67884e-05
3.40433e-05
3.10559e-05
2.78161e-05
2.43148e-05
2.05428e-05
1.65045e-05
1.22501e-05
7.89012e-06
3.76265e-06
7.83628e-07
3.75412e-06
3.05636e-05
6.2412e-05
9.15712e-05
0.000116618
0.000137944
0.000156192
0.000171902
0.000185486
0.000197255
0.000207453
0.000216283
0.000223915
0.000230503
0.000236182
0.000241078
0.000245304
0.000248963
0.000252151
0.000254952
0.000257443
0.000259694
0.000261764
0.000263707
0.00026557
0.000267393
0.000269211
0.000271054
0.000272949
0.000274916
0.000276976
0.000279145
0.000281436
0.00028386
0.000286428
0.000289146
0.000292017
0.000295043
0.000298222
0.000301548
0.000305008
0.000308585
0.000312253
0.000315967
0.000319664
0.000323253
0.000326737
0.000330104
0.00033331
0.000336295
0.000338996
0.000341346
0.00034328
0.00034474
0.000345486
0.000345668
0.000345252
0.000344028
0.000341967
0.000339025
0.000335153
0.000330309
0.000324451
0.000317539
0.000309531
0.000300381
0.000290038
0.000278441
0.000265511
0.000251154
0.000235249
0.000217647
0.000198164
0.000176575
0.000152601
0.00012593
9.62687e-05
6.37892e-05
3.05545e-05
3.75171e-06
7.86188e-06
6.36502e-05
0.00012293
0.00017246
0.000213247
0.000247304
0.000276096
0.000300647
0.00032169
0.000339774
0.000355326
0.00036869
0.000380157
0.000389979
0.00039838
0.000405559
0.000411695
0.000416951
0.000421472
0.00042539
0.000428821
0.000431869
0.000434626
0.000437171
0.000439574
0.000441896
0.000444188
0.000446495
0.000448856
0.000451301
0.000453861
0.00045656
0.000459417
0.00046245
0.000465673
0.000469097
0.000472729
0.000476572
0.000480625
0.00048488
0.000489324
0.000493935
0.000498682
0.000503522
0.000508402
0.000513266
0.000518064
0.000522735
0.000527206
0.000531392
0.000535199
0.000538531
0.000541286
0.00054336
0.000544509
0.000544836
0.000544276
0.000542592
0.00053972
0.000535587
0.000530123
0.00052326
0.000514936
0.000505087
0.000493649
0.000480549
0.000465703
0.000449009
0.000430341
0.000409539
0.000386401
0.000360668
0.000332005
0.00029998
0.000264018
0.000223348
0.000176911
0.000123349
6.25936e-05
7.70449e-06
1.21823e-05
9.55582e-05
0.000175768
0.000238374
0.000288626
0.000330252
0.000365355
0.000395254
0.000420854
0.000442823
0.000461684
0.000477861
0.000491712
0.000503549
0.000513644
0.00052224
0.000529556
0.000535787
0.000541112
0.000545687
0.000549654
0.000553138
0.000556249
0.000559085
0.000561729
0.000564256
0.000566727
0.000569198
0.000571716
0.000574321
0.000577049
0.000579931
0.000582993
0.000586257
0.000589742
0.000593464
0.000597433
0.000601655
0.000606132
0.000610857
0.000615817
0.00062099
0.000626344
0.000631835
0.00063741
0.000643009
0.000648562
0.000653986
0.000659187
0.000664061
0.000668493
0.000672363
0.000675544
0.000677907
0.000679189
0.000679507
0.000678706
0.000676578
0.000673031
0.000667978
0.000661337
0.00065303
0.000642985
0.000631132
0.000617397
0.0006017
0.000583945
0.000564016
0.000541769
0.000517018
0.000489525
0.00045898
0.000424977
0.000386973
0.000344221
0.000295637
0.000239501
0.000172802
9.17811e-05
1.15685e-05
1.63317e-05
0.000124377
0.000221064
0.000293212
0.000350151
0.000397074
0.000436612
0.00047031
0.000499188
0.00052399
0.000545296
0.000563579
0.000579237
0.000592619
0.000604027
0.000613735
0.000621985
0.000628998
0.00063497
0.000640079
0.000644481
0.000648319
0.000651716
0.000654782
0.000657612
0.00066029
0.000662888
0.000665468
0.000668087
0.00067079
0.00067362
0.000676614
0.000679802
0.000683214
0.000686873
0.000690798
0.000695004
0.000699501
0.000704292
0.000709373
0.000714732
0.000720345
0.000726179
0.000732189
0.000738316
0.000744491
0.000750629
0.000756632
0.00076239
0.000767778
0.000772664
0.000776906
0.000780358
0.000782868
0.000784143
0.000784352
0.000783228
0.0007806
0.000776361
0.000770413
0.000762669
0.000753049
0.000741479
0.00072789
0.000712207
0.000694351
0.000674228
0.000651721
0.000626678
0.000598905
0.000568149
0.000534074
0.000496232
0.00045401
0.000406534
0.000352464
0.000289526
0.000213315
0.000116675
1.50355e-05
2.01961e-05
0.00015002
0.000260297
0.000340151
0.000402413
0.000453496
0.000496498
0.000533167
0.000564629
0.000591691
0.000614974
0.000634983
0.000652145
0.000666828
0.000679359
0.00069003
0.000699101
0.00070681
0.000713367
0.000718963
0.000723771
0.000727942
0.000731611
0.000734898
0.000737909
0.000740735
0.000743457
0.000746144
0.00074886
0.000751657
0.000754583
0.000757681
0.000760988
0.000764537
0.000768357
0.000772472
0.000776902
0.000781658
0.000786746
0.000792166
0.000797903
0.000803935
0.000810226
0.000816725
0.000823369
0.000830076
0.000836749
0.000843276
0.000849529
0.000855367
0.000860636
0.000865178
0.000868827
0.000871392
0.000872586
0.000872607
0.000871091
0.000867898
0.000862914
0.000856035
0.000847174
0.000836252
0.0008232
0.000807954
0.00079045
0.000770614
0.000748359
0.000723572
0.000696107
0.000665768
0.000632293
0.000595332
0.000554402
0.000508832
0.000457631
0.000399233
0.000330886
0.000247053
0.000137744
1.80976e-05
2.37531e-05
0.000172812
0.000294617
0.000381016
0.000447798
0.000502386
0.000548287
0.000587439
0.000621069
0.000650038
0.000675005
0.000696499
0.000714969
0.000730799
0.000744333
0.000755874
0.000765698
0.000774052
0.00078116
0.000787223
0.000792423
0.000796923
0.000800866
0.000804381
0.000807581
0.000810566
0.000813424
0.000816233
0.000819059
0.000821965
0.000825003
0.000828222
0.000831665
0.00083537
0.000839371
0.000843697
0.000848371
0.000853409
0.00085882
0.000864603
0.000870746
0.000877225
0.000883999
0.000891013
0.000898194
0.000905451
0.000912672
0.00091973
0.000926479
0.000932759
0.000938398
0.000943215
0.000947027
0.000949593
0.000950687
0.000950441
0.000948476
0.000944656
0.000938862
0.000930992
0.000920959
0.000908694
0.000894135
0.000877231
0.000857929
0.000836167
0.000811873
0.000784942
0.000755238
0.000722567
0.000686665
0.000647167
0.000603565
0.000555128
0.000500762
0.000438701
0.000365787
0.000275578
0.000155761
2.07866e-05
2.70115e-05
0.00019312
0.000324872
0.000416971
0.000487721
0.000545385
0.00059382
0.000635138
0.000670658
0.000701297
0.000727746
0.000750559
0.0007702
0.000787068
0.000801519
0.000813866
0.000824394
0.000833361
0.000840999
0.000847519
0.000853109
0.000857941
0.000862167
0.000865922
0.000869328
0.000872491
0.000875507
0.000878458
0.00088142
0.000884461
0.000887638
0.000891008
0.000894619
0.000898515
0.000902735
0.000907313
0.000912276
0.000917645
0.000923432
0.000929636
0.000936247
0.000943236
0.00095056
0.000958157
0.000965943
0.000973814
0.000981646
0.000989291
0.000996585
0.00100335
0.00100938
0.00101449
0.00101846
0.00102101
0.00102199
0.00102143
0.00101896
0.00101445
0.00100777
0.000998833
0.000987549
0.000973863
0.000957728
0.000939106
0.000917961
0.000894253
0.00086792
0.000838878
0.000806998
0.000772096
0.000733906
0.000692054
0.000646005
0.000594979
0.000537788
0.000472498
0.000395614
0.000299971
0.000171325
2.3157e-05
2.99891e-05
0.00021127
0.000351696
0.000448826
0.000523122
0.000583546
0.000634257
0.000677517
0.000714733
0.000746871
0.000774657
0.000798665
0.000819375
0.000837199
0.0008525
0.000865604
0.000876801
0.000886356
0.000894509
0.000901478
0.00090746
0.000912631
0.00091715
0.000921162
0.000924792
0.000928156
0.000931353
0.000934476
0.000937605
0.000940814
0.000944169
0.000947731
0.000951556
0.000955692
0.000960187
0.000965079
0.0009704
0.000976176
0.000982421
0.000989136
0.00099631
0.00100391
0.00101189
0.00102018
0.00102869
0.00103729
0.00104584
0.00105417
0.0010621
0.00106942
0.00107592
0.00108137
0.00108553
0.00108808
0.00108893
0.00108802
0.001085
0.00107973
0.00107209
0.00106198
0.00104934
0.00103413
0.00101631
0.000995863
0.000972781
0.000947041
0.000918604
0.000887403
0.000853325
0.000816194
0.00077575
0.00073161
0.000683219
0.000629753
0.000569949
0.000501733
0.000421337
0.00032101
0.000184877
2.52548e-05
3.27063e-05
0.000227531
0.000375579
0.000477184
0.000554677
0.000617608
0.000670394
0.000715427
0.000754192
0.000787703
0.000816715
0.000841823
0.000863523
0.000882238
0.000898339
0.000912158
0.000923994
0.000934118
0.000942775
0.00095019
0.000956564
0.000962082
0.000966908
0.000971193
0.00097507
0.000978659
0.000982069
0.000985396
0.00098873
0.00099215
0.000995729
0.000999537
0.00100363
0.00100808
0.00101292
0.00101821
0.00102398
0.00103027
0.00103709
0.00104444
0.00105231
0.00106067
0.00106946
0.0010786
0.00108798
0.00109747
0.00110689
0.00111606
0.00112476
0.00113277
0.00113983
0.00114569
0.0011501
0.00115267
0.0011534
0.00115211
0.00114849
0.00114239
0.00113369
0.00112231
0.00110819
0.0010913
0.00107165
0.00104924
0.00102408
0.000996168
0.000965502
0.000932031
0.000895662
0.000856232
0.000813487
0.000767041
0.000716324
0.000660481
0.000598186
0.000527256
0.000443706
0.0003393
0.000196761
2.71184e-05
3.51828e-05
0.000242127
0.000396907
0.000502513
0.0005829
0.000648124
0.000702817
0.000749488
0.000789686
0.000824469
0.00085462
0.000880755
0.000903381
0.000922934
0.000939792
0.000954294
0.000966744
0.00097742
0.000986572
0.000994429
0.0010012
0.00100707
0.00101222
0.0010168
0.00102095
0.00102479
0.00102845
0.00103202
0.0010356
0.00103928
0.00104314
0.00104726
0.00105171
0.00105654
0.00106183
0.00106763
0.00107397
0.00108091
0.00108845
0.0010966
0.00110535
0.00111465
0.00112445
0.00113465
0.00114512
0.00115569
0.00116619
0.00117639
0.00118604
0.00119488
0.00120263
0.00120902
0.00121375
0.00121639
0.00121699
0.00121531
0.00121104
0.00120402
0.00119415
0.00118135
0.0011656
0.00114688
0.00112521
0.00110065
0.00107322
0.00104296
0.00100989
0.000973986
0.000935178
0.000893318
0.000848164
0.000799331
0.000746241
0.000688016
0.000623287
0.000549786
0.00046335
0.000355344
0.000207264
2.87824e-05
3.74374e-05
0.000255248
0.000415995
0.000525185
0.0006082
0.000675526
0.000731981
0.000780173
0.000821707
0.000857679
0.000888898
0.000915998
0.000939499
0.000959846
0.000977425
0.000992582
0.00100563
0.00101684
0.00102648
0.00103478
0.00104195
0.00104819
0.00105368
0.00105857
0.00106302
0.00106715
0.00107109
0.00107495
0.00107883
0.00108284
0.00108705
0.00109156
0.00109644
0.00110178
0.00110763
0.00111407
0.00112115
0.00112889
0.00113735
0.00114651
0.00115636
0.00116685
0.0011779
0.00118941
0.00120122
0.00121315
0.00122496
0.00123642
0.00124723
0.0012571
0.00126571
0.00127274
0.00127789
0.00128063
0.00128113
0.00127902
0.00127403
0.001266
0.00125483
0.00124045
0.00122287
0.00120211
0.00117822
0.00115127
0.00112135
0.00108852
0.00105283
0.00101429
0.000972854
0.000928393
0.000880677
0.000829331
0.000773775
0.000713117
0.000645957
0.000569963
0.000480834
0.000369592
0.00021665
3.02805e-05
3.94874e-05
0.000267052
0.000433101
0.000545508
0.000630908
0.000700164
0.000758252
0.00080786
0.000850646
0.000887736
0.000919963
0.000947975
0.000972307
0.000993411
0.00101168
0.00102747
0.00104109
0.00105283
0.00106296
0.0010717
0.00107928
0.0010859
0.00109174
0.00109697
0.00110174
0.0011062
0.00111047
0.00111467
0.00111892
0.00112331
0.00112796
0.00113296
0.0011384
0.00114436
0.00115093
0.00115818
0.00116616
0.00117494
0.00118454
0.00119496
0.00120618
0.00121815
0.00123076
0.00124388
0.00125734
0.00127091
0.00128434
0.00129732
0.00130954
0.00132065
0.00133029
0.00133811
0.00134377
0.00134667
0.00134707
0.0013445
0.00133871
0.00132955
0.00131691
0.00130076
0.00128113
0.00125808
0.0012317
0.00120211
0.00116944
0.00113377
0.00109522
0.0010538
0.00100952
0.000962254
0.0009118
0.000857789
0.000799644
0.000736469
0.000666843
0.000588386
0.000496686
0.000382468
0.00022517
3.16478e-05
4.13485e-05
0.000277677
0.000448442
0.000563736
0.000651303
0.00072233
0.00078193
0.000832862
0.000876822
0.000914967
0.000948148
0.000977028
0.00100215
0.00102398
0.00104292
0.00105932
0.0010735
0.00108576
0.00109637
0.00110555
0.00111355
0.00112057
0.00112678
0.00113238
0.00113751
0.00114233
0.00114698
0.00115158
0.00115626
0.00116114
0.00116632
0.00117192
0.00117804
0.00118479
0.00119224
0.0012005
0.00120963
0.00121969
0.00123071
0.00124269
0.00125561
0.00126938
0.00128389
0.00129899
0.00131444
0.00133
0.00134536
0.00136018
0.00137408
0.00138667
0.00139754
0.00140631
0.00141258
0.00141569
0.00141598
0.00141291
0.00140622
0.00139576
0.00138146
0.0013633
0.00134135
0.00131572
0.00128655
0.001254
0.00121826
0.00117947
0.00113776
0.00109321
0.00104584
0.000995559
0.000942178
0.000885341
0.000824478
0.00075869
0.00068654
0.000605613
0.000511406
0.000394381
0.000233081
3.29213e-05
4.30352e-05
0.00028724
0.000462202
0.000580087
0.00066962
0.000742272
0.000803273
0.000855439
0.000900504
0.000939646
0.000973732
0.00100344
0.00102932
0.00105185
0.00107143
0.00108842
0.00110316
0.00111593
0.00112701
0.00113665
0.00114508
0.0011525
0.00115912
0.00116511
0.00117064
0.00117588
0.00118096
0.00118603
0.00119122
0.00119667
0.00120251
0.00120884
0.0012158
0.00122351
0.00123206
0.00124157
0.00125211
0.00126374
0.0012765
0.00129039
0.00130536
0.00132132
0.00133813
0.00135558
0.00137342
0.00139135
0.001409
0.00142598
0.00144186
0.0014562
0.00146854
0.00147843
0.00148543
0.00148879
0.00148897
0.00148533
0.00147762
0.00146568
0.00144947
0.00142901
0.00140441
0.00137583
0.0013435
0.00130762
0.00126845
0.00122618
0.00118101
0.00113304
0.00108232
0.00102881
0.000972312
0.000912498
0.000848796
0.000780303
0.000705571
0.000622154
0.000525464
0.000405727
0.000240638
3.4141e-05
4.45608e-05
0.000295844
0.00047454
0.000594749
0.000686063
0.000760204
0.0008225
0.000875819
0.000921921
0.000962005
0.000996952
0.00102745
0.00105406
0.00107726
0.00109746
0.00111503
0.00113031
0.00114359
0.00115515
0.00116525
0.00117411
0.00118197
0.00118901
0.00119543
0.0012014
0.0012071
0.00121268
0.0012183
0.0012241
0.00123024
0.00123685
0.00124408
0.00125206
0.00126094
0.00127083
0.00128185
0.0012941
0.00130764
0.00132251
0.00133869
0.00135612
0.00137469
0.00139421
0.00141445
0.0014351
0.0014558
0.00147614
0.00149566
0.00151387
0.00153025
0.00154431
0.00155552
0.00156339
0.00156707
0.00156715
0.00156287
0.00155398
0.00154036
0.00152194
0.00149882
0.00147117
0.00143922
0.00140326
0.0013636
0.00132055
0.00127439
0.00122537
0.00117365
0.00111931
0.00106233
0.00100254
0.000939616
0.000872977
0.000801715
0.000724363
0.00063844
0.00053928
0.000416875
0.000248096
3.53486e-05
4.59379e-05
0.000303578
0.000485595
0.000607883
0.000700809
0.000776312
0.000839805
0.000894197
0.000941274
0.000982249
0.00101801
0.00104927
0.00107657
0.00110042
0.00112123
0.00113937
0.00115518
0.00116897
0.00118101
0.00119157
0.00120089
0.00120919
0.00121668
0.00122357
0.00123003
0.00123625
0.0012424
0.00124866
0.00125517
0.00126212
0.00126965
0.00127795
0.00128716
0.00129744
0.00130894
0.00132179
0.00133609
0.00135191
0.00136928
0.00138817
0.0014085
0.00143013
0.00145283
0.00147631
0.00150023
0.00152416
0.00154762
0.00157009
0.00159101
0.00160981
0.00162589
0.0016387
0.00164762
0.00165171
0.00165172
0.00164675
0.00163654
0.001621
0.00160006
0.00157387
0.00154267
0.0015068
0.00146664
0.00142262
0.00137513
0.00132455
0.0012712
0.00121531
0.00115702
0.00109632
0.00103305
0.000966888
0.000897242
0.000823182
0.00074321
0.000654796
0.000553189
0.000428141
0.000255687
3.65852e-05
4.71778e-05
0.000310524
0.000495487
0.000619633
0.000714014
0.000790761
0.000855358
0.000910749
0.000958739
0.00100055
0.0010371
0.00106907
0.00109705
0.00112153
0.00114292
0.00116162
0.00117795
0.00119224
0.00120477
0.0012158
0.00122559
0.00123436
0.00124234
0.00124973
0.00125674
0.00126354
0.00127035
0.00127733
0.00128467
0.00129256
0.0013012
0.00131075
0.00132142
0.00133337
0.00134678
0.00136178
0.0013785
0.00139699
0.00141728
0.00143934
0.00146304
0.0014882
0.00151457
0.0015418
0.00156948
0.00159713
0.00162421
0.00165013
0.00167424
0.00169589
0.00171441
0.00172915
0.00173943
0.00174412
0.00174415
0.00173851
0.0017269
0.00170923
0.00168544
0.00165572
0.00162042
0.00157997
0.0015349
0.00148574
0.00143305
0.00137732
0.00131898
0.00125836
0.00119565
0.00113087
0.00106389
0.000994354
0.000921646
0.000844794
0.000762247
0.000671406
0.000567411
0.000439753
0.000263566
3.78979e-05
4.82913e-05
0.000316753
0.000504323
0.000630126
0.000725818
0.000803698
0.000869311
0.000925629
0.000974474
0.00101708
0.00105436
0.00108703
0.00111565
0.00114073
0.0011627
0.00118194
0.0011988
0.00121359
0.00122661
0.00123813
0.0012484
0.00125767
0.00126616
0.0012741
0.0012817
0.00128917
0.0012967
0.00130452
0.00131282
0.00132181
0.00133172
0.00134276
0.00135513
0.00136904
0.00138467
0.00140218
0.0014217
0.00144329
0.00146696
0.00149264
0.00152019
0.0015494
0.00157995
0.00161146
0.00164346
0.00167541
0.00170669
0.00173664
0.00176452
0.0017896
0.00181112
0.00182832
0.00184044
0.0018461
0.0018464
0.00184029
0.00182736
0.00180751
0.00178066
0.00174702
0.00170702
0.00166122
0.00161031
0.00155499
0.00149601
0.00143405
0.00136972
0.00130347
0.0012356
0.00116619
0.0010951
0.00102197
0.000946107
0.000866478
0.000781438
0.000688284
0.000582016
0.000451814
0.000271791
3.93317e-05
4.92881e-05
0.000322329
0.000512201
0.000639476
0.000736345
0.000815255
0.000881799
0.000938977
0.000988621
0.00103198
0.00106996
0.00110328
0.00113252
0.00115819
0.00118072
0.00120049
0.00121786
0.00123316
0.00124667
0.00125868
0.00126946
0.00127925
0.0012883
0.00129684
0.00130509
0.00131328
0.00132165
0.00133041
0.0013398
0.00135007
0.00136145
0.00137419
0.00138853
0.0014047
0.00142289
0.00144329
0.00146602
0.00149113
0.00151862
0.00154842
0.00158033
0.00161411
0.00164941
0.0016858
0.00172275
0.00175965
0.00179583
0.00183054
0.00186297
0.00189227
0.00191757
0.00193801
0.00195276
0.00196014
0.00196124
0.00195527
0.00194151
0.0019198
0.00189004
0.00185233
0.00180715
0.0017552
0.00169733
0.00163446
0.00156759
0.00149771
0.0014257
0.00135229
0.00127795
0.00120287
0.00112694
0.00104973
0.000970493
0.000888039
0.000800588
0.000705274
0.000596902
0.000464286
0.00028042
4.08728e-05
5.01774e-05
0.000327311
0.000519206
0.000647783
0.000745708
0.000825549
0.000892947
0.000950918
0.00100131
0.00104536
0.001084
0.00111795
0.00114779
0.00117403
0.0011971
0.0012174
0.00123528
0.00125107
0.00126509
0.00127761
0.00128891
0.00129925
0.00130889
0.00131807
0.00132704
0.00133605
0.00134534
0.00135517
0.0013658
0.00137751
0.00139057
0.00140526
0.00142184
0.00144057
0.00146168
0.00148534
0.00151168
0.00154075
0.00157254
0.00160693
0.00164373
0.00168265
0.00172331
0.00176523
0.00180785
0.00185051
0.00189246
0.00193288
0.00197086
0.00200545
0.00203567
0.00206056
0.00207918
0.00208973
0.0020927
0.00208819
0.00207486
0.00205243
0.00202069
0.00197943
0.00192907
0.00187038
0.00180433
0.00173207
0.00165498
0.00157448
0.00149197
0.00140865
0.00132539
0.00124262
0.00116032
0.00107803
0.000994807
0.000909273
0.000819398
0.000722065
0.000611798
0.000476971
0.000289369
4.25125e-05
5.09677e-05
0.000331751
0.000525416
0.000655142
0.000754008
0.00083469
0.000902865
0.000961568
0.00101265
0.00105736
0.00109663
0.00113117
0.00116158
0.00118836
0.00121196
0.00123278
0.00125116
0.00126746
0.00128198
0.00129503
0.00130687
0.0013178
0.00132806
0.00133794
0.00134769
0.00135759
0.0013679
0.00137893
0.00139095
0.00140429
0.00141924
0.00143612
0.00145523
0.00147684
0.0015012
0.00152849
0.00155885
0.00159231
0.00162885
0.00166835
0.00171058
0.00175524
0.00180193
0.00185015
0.0018993
0.00194867
0.00199746
0.00204478
0.00208964
0.00213098
0.00216774
0.00219884
0.00222326
0.00223948
0.00224637
0.00224565
0.00223527
0.00221464
0.00218324
0.00214029
0.00208585
0.00202059
0.00194547
0.00186182
0.00177137
0.00167621
0.00157856
0.00148054
0.00138382
0.00128946
0.00119773
0.00110814
0.00101954
0.000930173
0.000837588
0.000738257
0.000626286
0.000489503
0.000298396
4.42139e-05
5.16671e-05
0.000335697
0.000530905
0.000661636
0.000761337
0.000842774
0.000911657
0.000971031
0.00102275
0.00106808
0.00110794
0.00114304
0.001174
0.00120131
0.00122542
0.00124674
0.00126563
0.00128243
0.00129747
0.00131104
0.00132345
0.00133498
0.00134592
0.00135654
0.00136714
0.00137801
0.00138946
0.00140181
0.00141538
0.00143052
0.00144758
0.0014669
0.0014888
0.0015136
0.00154154
0.00157283
0.00160759
0.00164587
0.00168763
0.00173274
0.00178097
0.00183203
0.0018855
0.00194088
0.00199755
0.00205479
0.00211174
0.00216747
0.0022209
0.00227093
0.00231639
0.00235614
0.00238906
0.00241409
0.00242941
0.00243516
0.00243177
0.00241708
0.00239009
0.00234924
0.00229369
0.00222378
0.00214015
0.00204397
0.00193717
0.00182243
0.0017031
0.00158283
0.00146492
0.00135181
0.00124469
0.00114334
0.00104634
0.000951316
0.000855113
0.000753484
0.00063987
0.00050138
0.000307121
4.59082e-05
5.2283e-05
0.000339195
0.000535735
0.000667343
0.000767779
0.000849893
0.000919415
0.000979402
0.00103172
0.00107761
0.00111802
0.00115367
0.00118514
0.00121296
0.00123757
0.00125938
0.00127877
0.00129607
0.00131163
0.00132575
0.00133874
0.00135091
0.00136255
0.00137397
0.00138549
0.00139742
0.0014101
0.0014239
0.00143917
0.0014563
0.00147567
0.00149766
0.00152263
0.0015509
0.00158275
0.00161837
0.00165791
0.0017014
0.00174883
0.00180006
0.00185491
0.00191306
0.00197414
0.00203766
0.00210302
0.00216946
0.00223614
0.00230206
0.00236611
0.00242711
0.00248386
0.00253517
0.00257987
0.00261686
0.00264509
0.00266253
0.00266915
0.00266528
0.00264776
0.00261438
0.00256296
0.00249314
0.0024048
0.0022983
0.00217508
0.00203777
0.00189051
0.00173884
0.0015886
0.00144517
0.0013121
0.0011905
0.00107904
0.000974515
0.00087254
0.000767618
0.000652091
0.000512037
0.00031506
4.7497e-05
5.28225e-05
0.000342284
0.000539968
0.000672331
0.000773413
0.000856127
0.000926224
0.00098677
0.00103963
0.00108606
0.00112698
0.00116313
0.0011951
0.00122341
0.0012485
0.0012708
0.00129067
0.00130847
0.00132455
0.00133923
0.00135282
0.00136565
0.00137804
0.00139031
0.00140281
0.00141588
0.00142991
0.00144527
0.00146239
0.00148168
0.00150356
0.00152844
0.00155672
0.00158873
0.00162476
0.00166503
0.00170968
0.00175878
0.00181232
0.00187021
0.00193227
0.00199828
0.00206788
0.00214062
0.00221593
0.00229308
0.00237118
0.0024492
0.00252594
0.00260015
0.00267048
0.00273563
0.0027943
0.00284525
0.00288734
0.00291964
0.0029392
0.00294641
0.00294208
0.00292112
0.00288058
0.00281891
0.00273459
0.00262621
0.00249383
0.00233869
0.0021636
0.00197538
0.00178217
0.00159385
0.00141893
0.00126262
0.00112548
0.00100389
0.000891656
0.000781121
0.000662719
0.000520948
0.00032169
4.88647e-05
5.32922e-05
0.000345001
0.000543658
0.000676667
0.000778309
0.000861552
0.000932165
0.000993216
0.00104657
0.00109349
0.0011349
0.00117152
0.00120396
0.00123274
0.0012583
0.00128106
0.00130141
0.00131972
0.00133632
0.00135156
0.00136577
0.00137929
0.00139246
0.00140563
0.00141917
0.00143346
0.00144892
0.00146597
0.00148507
0.00150668
0.00153124
0.00155921
0.00159101
0.00162698
0.00166745
0.00171264
0.00176272
0.00181778
0.00187786
0.00194292
0.00201285
0.00208749
0.00216655
0.00224964
0.00233621
0.00242553
0.00251663
0.00260831
0.00269915
0.00278754
0.00287172
0.0029499
0.00302044
0.00308189
0.00313326
0.00317428
0.00320371
0.00321927
0.00322446
0.00321824
0.00319478
0.00315198
0.00308595
0.00299168
0.002866
0.00271114
0.00252244
0.0023061
0.00206967
0.00182685
0.00159274
0.0013813
0.00119995
0.00104757
0.000916437
0.000795554
0.000672036
0.000527795
0.000326548
4.98955e-05
5.36981e-05
0.000347382
0.000546855
0.000680409
0.000782533
0.000866239
0.000937309
0.000998815
0.00105262
0.00109999
0.00114185
0.00117892
0.0012118
0.00124102
0.00126703
0.00129025
0.00131107
0.00132987
0.001347
0.00136282
0.00137766
0.00139189
0.00140587
0.00141998
0.00143461
0.0014502
0.00146718
0.00148602
0.00150722
0.00153127
0.00155868
0.0015899
0.00162539
0.00166552
0.00171063
0.00176097
0.00181675
0.0018781
0.00194512
0.00201784
0.00209626
0.00218028
0.00226971
0.0023642
0.00246318
0.00256579
0.00267078
0.00277649
0.00288078
0.00298107
0.0030745
0.00315823
0.00323035
0.00328904
0.0033315
0.00335826
0.00337488
0.00338362
0.00338712
0.00338739
0.00338164
0.00336811
0.00334228
0.00329725
0.00321967
0.00309712
0.00292628
0.0027088
0.00245065
0.00216236
0.00186249
0.00157638
0.0013257
0.00112011
0.000954536
0.000814322
0.000681204
0.000532651
0.000329282
5.04914e-05
5.40461e-05
0.000349457
0.000549606
0.000683612
0.000786144
0.000870251
0.000941723
0.00100364
0.00105785
0.00110563
0.0011479
0.00118539
0.00121869
0.00124833
0.00127477
0.00129843
0.00131972
0.001339
0.00135666
0.00137305
0.00138854
0.0014035
0.00141831
0.0014334
0.00144918
0.00146611
0.00148468
0.00150541
0.00152881
0.00155542
0.00158578
0.00162039
0.0016597
0.00170414
0.00175404
0.00180972
0.00187141
0.00193932
0.00201363
0.00209447
0.00218193
0.00227601
0.00237657
0.00248323
0.00259526
0.00271139
0.00282966
0.00294726
0.00306043
0.00316462
0.00325501
0.0033267
0.0033768
0.00340507
0.00341658
0.00341915
0.00341777
0.00341578
0.0034152
0.00341627
0.00342073
0.00342414
0.00342406
0.00341512
0.00339628
0.00335371
0.00327011
0.00311554
0.00288269
0.00258459
0.00223925
0.00187667
0.0015345
0.00124535
0.00101966
0.000843949
0.000692806
0.000536218
0.000329858
5.05967e-05
5.43414e-05
0.000351256
0.000551953
0.000686327
0.0007892
0.000873649
0.000945471
0.00100774
0.00106233
0.00111048
0.00115313
0.001191
0.00122469
0.00125473
0.00128157
0.00130566
0.0013274
0.00134717
0.00136534
0.00138231
0.00139845
0.00141415
0.00142983
0.00144592
0.00146288
0.00148121
0.00150144
0.0015241
0.00154978
0.00157903
0.00161243
0.0016505
0.00169373
0.00174255
0.00179736
0.00185849
0.00192626
0.00200094
0.00208282
0.00217212
0.00226905
0.00237366
0.00248579
0.00260485
0.00272963
0.00285796
0.00298636
0.00310986
0.00322192
0.00331487
0.00338316
0.00341649
0.00342363
0.00341178
0.00338126
0.00334443
0.0033109
0.0032897
0.00328136
0.00328092
0.00329865
0.0033295
0.00336607
0.00340087
0.00341968
0.00342597
0.00340641
0.00336096
0.00324952
0.00302836
0.00269159
0.00228812
0.00185655
0.00145672
0.00113478
0.000896151
0.000711766
0.000540194
0.000328638
5.02481e-05
5.45889e-05
0.000352806
0.000553936
0.0006886
0.00079175
0.000876486
0.000948609
0.00101119
0.0010661
0.00111459
0.00115759
0.00119581
0.00122987
0.00126028
0.00128751
0.00131201
0.00133418
0.00135442
0.00137311
0.00139065
0.00140744
0.00142389
0.00144044
0.00145756
0.00147573
0.0014955
0.00151741
0.00154206
0.00157006
0.001602
0.00163848
0.00168004
0.00172722
0.00178047
0.00184021
0.00190686
0.00198078
0.00206236
0.00215197
0.00224995
0.00235657
0.00247186
0.00259545
0.00272628
0.00286213
0.00299912
0.00313128
0.00325035
0.00334654
0.00340432
0.00342129
0.0034068
0.0033567
0.00328407
0.00320191
0.00312498
0.00306223
0.00302123
0.00300259
0.00299786
0.00301507
0.00305724
0.00311772
0.00319451
0.0032772
0.00335517
0.00340363
0.00341986
0.00339403
0.00332402
0.00313514
0.00277066
0.00229654
0.00178785
0.00133403
0.000991189
0.000746935
0.000547784
0.000326523
4.95576e-05
5.47934e-05
0.000354129
0.000555589
0.000690474
0.000793843
0.000878815
0.000951192
0.00101405
0.00106924
0.00111803
0.00116134
0.00119988
0.00123427
0.00126503
0.00129264
0.00131752
0.00134011
0.0013608
0.00138
0.00139811
0.00141554
0.00143275
0.00145018
0.00146833
0.00148772
0.00150894
0.00153256
0.00155921
0.00158954
0.00162418
0.00166373
0.00170878
0.00175988
0.00181752
0.00188218
0.00195432
0.00203439
0.00212287
0.00222024
0.00232691
0.00244313
0.00256879
0.00270305
0.0028439
0.00298742
0.00312714
0.00325345
0.00335399
0.00340609
0.00341516
0.00338097
0.00330066
0.00318322
0.00305687
0.00294131
0.00284707
0.00277906
0.00273919
0.00272227
0.00271942
0.00273758
0.00277324
0.00282247
0.0028901
0.00298083
0.00309451
0.00322226
0.00333396
0.00339412
0.00341109
0.00336181
0.00319574
0.00280609
0.00224572
0.00165538
0.00116121
0.000813872
0.000564647
0.000325182
4.87475e-05
5.49588e-05
0.00035525
0.000556948
0.000691988
0.000795523
0.000880683
0.000953269
0.00101636
0.0010718
0.00112085
0.00116444
0.00120327
0.00123797
0.00126905
0.001297
0.00132225
0.00134524
0.00136636
0.00138605
0.00140471
0.00142279
0.00144074
0.00145904
0.00147822
0.00149884
0.0015215
0.00154683
0.00157548
0.00160812
0.00164541
0.00168799
0.00173647
0.00179141
0.00185335
0.00192282
0.00200033
0.00208644
0.00218171
0.00228668
0.00240178
0.00252716
0.00266232
0.00280562
0.00295354
0.00309974
0.00323422
0.00334304
0.00339882
0.00340692
0.00336453
0.00326076
0.00311112
0.00295132
0.00280659
0.00269357
0.00261666
0.00257829
0.00256513
0.00256593
0.00258478
0.00261432
0.0026507
0.00269161
0.00273789
0.00279137
0.00285785
0.00294619
0.00307348
0.00322906
0.00334972
0.00340006
0.00336602
0.00320986
0.00277613
0.00211318
0.00144693
0.000938624
0.00060058
0.00032744
4.81896e-05
5.50893e-05
0.000356187
0.000558041
0.000693179
0.000796831
0.000882133
0.000954887
0.00101816
0.00107382
0.0011231
0.00116693
0.00120603
0.001241
0.00127238
0.00130064
0.00132624
0.0013496
0.00137115
0.0013913
0.0014105
0.0014292
0.00144788
0.00146704
0.00148724
0.00150907
0.00153315
0.00156015
0.00159076
0.00162566
0.00166554
0.00171105