/*--------------------------------*- C++ -*----------------------------------*\
  =========                 |
  \\      /  F ield         | OpenFOAM: The Open Source CFD Toolbox
   \\    /   O peration     | Website:  https://openfoam.org
    \\  /    A nd           | Version:  13
     \\/     M anipulation  |
\*---------------------------------------------------------------------------*/
FoamFile
{
    format      ascii;
    class       volScalarField;
    location    "0.8";
    object      nut;
}
// * * * * * * * * * * * * * * * * * * * * * * * * * * * * * * * * * * * * * //

dimensions      [0 2 -1 0 0 0 0];

internalField   nonuniform List<scalar> 
6400
(
1.36702e-09
6.5488e-09
1.34268e-08
2.02518e-08
2.64282e-08
3.188e-08
3.66726e-08
4.08881e-08
4.45974e-08
4.7858e-08
5.07179e-08
5.32189e-08
5.53986e-08
5.72923e-08
5.89332e-08
6.03528e-08
6.15808e-08
6.26452e-08
6.35721e-08
6.43854e-08
6.51073e-08
6.57575e-08
6.63537e-08
6.69118e-08
6.74456e-08
6.79672e-08
6.84873e-08
6.9015e-08
6.95583e-08
7.01242e-08
7.07188e-08
7.13475e-08
7.20148e-08
7.27248e-08
7.3481e-08
7.4286e-08
7.51419e-08
7.60499e-08
7.70103e-08
7.80219e-08
7.90823e-08
8.0187e-08
8.13283e-08
8.24938e-08
8.36695e-08
8.48911e-08
8.61196e-08
8.73267e-08
8.84967e-08
8.96089e-08
9.064e-08
9.15655e-08
9.2361e-08
9.30045e-08
9.34263e-08
9.36317e-08
9.36497e-08
9.33936e-08
9.28492e-08
9.20027e-08
9.08392e-08
8.93463e-08
8.75137e-08
8.53331e-08
8.27971e-08
7.98996e-08
7.66349e-08
7.29966e-08
6.89757e-08
6.45611e-08
5.97388e-08
5.44921e-08
4.88034e-08
4.26568e-08
3.60362e-08
2.89499e-08
2.1486e-08
1.38377e-08
6.59858e-09
1.3742e-09
6.58354e-09
4.88007e-07
1.36831e-06
2.13144e-06
2.74208e-06
3.23758e-06
3.64908e-06
3.99692e-06
4.29433e-06
4.55034e-06
4.77141e-06
4.96249e-06
5.12757e-06
5.27003e-06
5.39283e-06
5.49861e-06
5.58973e-06
5.66836e-06
5.73648e-06
5.7959e-06
5.84828e-06
5.89509e-06
5.93771e-06
5.97735e-06
6.0151e-06
6.05195e-06
6.08877e-06
6.12636e-06
6.16542e-06
6.20659e-06
6.25045e-06
6.29752e-06
6.34828e-06
6.40314e-06
6.46249e-06
6.52665e-06
6.59588e-06
6.67035e-06
6.75018e-06
6.83533e-06
6.92565e-06
7.02083e-06
7.12026e-06
7.2226e-06
7.32515e-06
7.42239e-06
7.5161e-06
7.6081e-06
7.6972e-06
7.78183e-06
7.86024e-06
7.93059e-06
7.99093e-06
8.04303e-06
8.07453e-06
8.09283e-06
8.09784e-06
8.08264e-06
8.04713e-06
7.99021e-06
7.9108e-06
7.80791e-06
7.68064e-06
7.52806e-06
7.34921e-06
7.14302e-06
6.90826e-06
6.64334e-06
6.34618e-06
6.01413e-06
5.64375e-06
5.23062e-06
4.76911e-06
4.25169e-06
3.66919e-06
3.00945e-06
2.25424e-06
1.39223e-06
4.85811e-07
6.5795e-09
1.37883e-08
1.40025e-06
4.56294e-06
7.33484e-06
9.4469e-06
1.10913e-05
1.24131e-05
1.35029e-05
1.4418e-05
1.51956e-05
1.5861e-05
1.64323e-05
1.69235e-05
1.73456e-05
1.77081e-05
1.8019e-05
1.82853e-05
1.85135e-05
1.87095e-05
1.88785e-05
1.90254e-05
1.91547e-05
1.92703e-05
1.93761e-05
1.94753e-05
1.9571e-05
1.96659e-05
1.97624e-05
1.98628e-05
1.99692e-05
2.00832e-05
2.02065e-05
2.03406e-05
2.04868e-05
2.06462e-05
2.08196e-05
2.10079e-05
2.12114e-05
2.14304e-05
2.16645e-05
2.19132e-05
2.21752e-05
2.24487e-05
2.27305e-05
2.30166e-05
2.33013e-05
2.35835e-05
2.3861e-05
2.41298e-05
2.4385e-05
2.46214e-05
2.48333e-05
2.50151e-05
2.51693e-05
2.52684e-05
2.53244e-05
2.53386e-05
2.52947e-05
2.51906e-05
2.50234e-05
2.47901e-05
2.4488e-05
2.41146e-05
2.36672e-05
2.31429e-05
2.25384e-05
2.18499e-05
2.10721e-05
2.01983e-05
1.92193e-05
1.81229e-05
1.68932e-05
1.55089e-05
1.39427e-05
1.21484e-05
1.00592e-05
7.57428e-06
4.5792e-06
1.38204e-06
1.35128e-08
2.13676e-08
2.25231e-06
7.5568e-06
1.23265e-05
1.59823e-05
1.8809e-05
2.10631e-05
2.29066e-05
2.4445e-05
2.57475e-05
2.68624e-05
2.78206e-05
2.86447e-05
2.93537e-05
2.99633e-05
3.04872e-05
3.09369e-05
3.13231e-05
3.16552e-05
3.19421e-05
3.21919e-05
3.24117e-05
3.26084e-05
3.2788e-05
3.29562e-05
3.31178e-05
3.32776e-05
3.34395e-05
3.36074e-05
3.37845e-05
3.39737e-05
3.41777e-05
3.43987e-05
3.46389e-05
3.48998e-05
3.51827e-05
3.54886e-05
3.58178e-05
3.61702e-05
3.65452e-05
3.69412e-05
3.73559e-05
3.7786e-05
3.82269e-05
3.86725e-05
3.91174e-05
3.95567e-05
3.99848e-05
4.03946e-05
4.0778e-05
4.11267e-05
4.14319e-05
4.1685e-05
4.18817e-05
4.19997e-05
4.20444e-05
4.20136e-05
4.18899e-05
4.1669e-05
4.13465e-05
4.0918e-05
4.03796e-05
3.97277e-05
3.89587e-05
3.80697e-05
3.70548e-05
3.5907e-05
3.46177e-05
3.31755e-05
3.15654e-05
2.97671e-05
2.7753e-05
2.54852e-05
2.29097e-05
1.99507e-05
1.6494e-05
1.23673e-05
7.38314e-06
2.15971e-06
2.02912e-08
2.86483e-08
2.9891e-06
1.00116e-05
1.64236e-05
2.14158e-05
2.5315e-05
2.84378e-05
3.10006e-05
3.31412e-05
3.49511e-05
3.64926e-05
3.7813e-05
3.89483e-05
3.99257e-05
4.07675e-05
4.1492e-05
4.21153e-05
4.26514e-05
4.31134e-05
4.35133e-05
4.3862e-05
4.41694e-05
4.44445e-05
4.46956e-05
4.49303e-05
4.51554e-05
4.5377e-05
4.56008e-05
4.58317e-05
4.60743e-05
4.63331e-05
4.66115e-05
4.69117e-05
4.72363e-05
4.75872e-05
4.79659e-05
4.83732e-05
4.88094e-05
4.92741e-05
4.97659e-05
5.02824e-05
5.08202e-05
5.13747e-05
5.19399e-05
5.25083e-05
5.30732e-05
5.36271e-05
5.41614e-05
5.46662e-05
5.51312e-05
5.55454e-05
5.58976e-05
5.61767e-05
5.63721e-05
5.6461e-05
5.64651e-05
5.63539e-05
5.61204e-05
5.57584e-05
5.5262e-05
5.46261e-05
5.38459e-05
5.29169e-05
5.18342e-05
5.0592e-05
4.91841e-05
4.76019e-05
4.58346e-05
4.38672e-05
4.16801e-05
3.92464e-05
3.65302e-05
3.34817e-05
3.00314e-05
2.60801e-05
2.14817e-05
1.60269e-05
9.50504e-06
2.77688e-06
2.63734e-08
3.543e-08
3.6257e-06
1.20454e-05
1.98144e-05
2.59506e-05
3.07938e-05
3.46963e-05
3.79063e-05
4.059e-05
4.28601e-05
4.4796e-05
4.64558e-05
4.78837e-05
4.91142e-05
5.01749e-05
5.10893e-05
5.18776e-05
5.2558e-05
5.31464e-05
5.36569e-05
5.4103e-05
5.44967e-05
5.48494e-05
5.51713e-05
5.54717e-05
5.5759e-05
5.60408e-05
5.63239e-05
5.66143e-05
5.69174e-05
5.72375e-05
5.75787e-05
5.79451e-05
5.83396e-05
5.87644e-05
5.92212e-05
5.97109e-05
6.02334e-05
6.07878e-05
6.13722e-05
6.19835e-05
6.26171e-05
6.32675e-05
6.39278e-05
6.45898e-05
6.52443e-05
6.58808e-05
6.64884e-05
6.7055e-05
6.75677e-05
6.80135e-05
6.83792e-05
6.86519e-05
6.88152e-05
6.88439e-05
6.87834e-05
6.85691e-05
6.82067e-05
6.76886e-05
6.70083e-05
6.61601e-05
6.51388e-05
6.39392e-05
6.25558e-05
6.09824e-05
5.92113e-05
5.72326e-05
5.50333e-05
5.25961e-05
4.98975e-05
4.69063e-05
4.358e-05
3.98606e-05
3.56675e-05
3.08864e-05
2.53525e-05
1.8839e-05
1.11419e-05
3.27068e-06
3.1746e-08
4.16733e-08
4.17965e-06
1.3766e-05
2.26769e-05
2.97986e-05
3.54727e-05
4.0073e-05
4.38705e-05
4.70519e-05
4.97466e-05
5.2047e-05
5.4021e-05
5.57205e-05
5.71861e-05
5.84507e-05
5.9542e-05
6.04839e-05
6.12976e-05
6.20018e-05
6.26135e-05
6.31483e-05
6.36205e-05
6.40433e-05
6.44287e-05
6.47876e-05
6.51297e-05
6.54641e-05
6.57986e-05
6.61403e-05
6.64954e-05
6.68693e-05
6.72666e-05
6.76917e-05
6.81477e-05
6.86374e-05
6.91622e-05
6.97232e-05
7.032e-05
7.09512e-05
7.16145e-05
7.23057e-05
7.30197e-05
7.37495e-05
7.44868e-05
7.5222e-05
7.59439e-05
7.66402e-05
7.72976e-05
7.79018e-05
7.8438e-05
7.88914e-05
7.9247e-05
7.94904e-05
7.95983e-05
7.95527e-05
7.94054e-05
7.90763e-05
7.85747e-05
7.7894e-05
7.70277e-05
7.59699e-05
7.47151e-05
7.32578e-05
7.15922e-05
6.97115e-05
6.76071e-05
6.5268e-05
6.26799e-05
5.98234e-05
5.66725e-05
5.31926e-05
4.93368e-05
4.50414e-05
4.0218e-05
3.47427e-05
2.84395e-05
2.10733e-05
1.24535e-05
3.68008e-06
3.64644e-08
4.73931e-08
4.66507e-06
1.5246e-05
2.51343e-05
3.31145e-05
3.95238e-05
4.47502e-05
4.9081e-05
5.2718e-05
5.58037e-05
5.84411e-05
6.07065e-05
6.26584e-05
6.4343e-05
6.57978e-05
6.70545e-05
6.81401e-05
6.90788e-05
6.98918e-05
7.05985e-05
7.12166e-05
7.17625e-05
7.22509e-05
7.26954e-05
7.31084e-05
7.3501e-05
7.38833e-05
7.42643e-05
7.4652e-05
7.50534e-05
7.54748e-05
7.59214e-05
7.63979e-05
7.69079e-05
7.74542e-05
7.80387e-05
7.86619e-05
7.93237e-05
8.00221e-05
8.07541e-05
8.15149e-05
8.2298e-05
8.30956e-05
8.38976e-05
8.46926e-05
8.54675e-05
8.62081e-05
8.68987e-05
8.75233e-05
8.8065e-05
8.85074e-05
8.88342e-05
8.90298e-05
8.90648e-05
8.8934e-05
8.86803e-05
8.82284e-05
8.75795e-05
8.67324e-05
8.56806e-05
8.44182e-05
8.29397e-05
8.12394e-05
7.9311e-05
7.71474e-05
7.47391e-05
7.20743e-05
6.91372e-05
6.59071e-05
6.23563e-05
5.84475e-05
5.41309e-05
4.93388e-05
4.39776e-05
3.79171e-05
3.0974e-05
2.2907e-05
1.35401e-05
4.02865e-06
4.06244e-08
5.26207e-08
5.09252e-06
1.65375e-05
2.72693e-05
3.60059e-05
4.30706e-05
4.88609e-05
5.36766e-05
5.7731e-05
6.11772e-05
6.41265e-05
6.66625e-05
6.88497e-05
7.07389e-05
7.23719e-05
7.37836e-05
7.50044e-05
7.60608e-05
7.69764e-05
7.77729e-05
7.84698e-05
7.90852e-05
7.96354e-05
8.01354e-05
8.0599e-05
8.10386e-05
8.14653e-05
8.18891e-05
8.23189e-05
8.27627e-05
8.32274e-05
8.37188e-05
8.42421e-05
8.48014e-05
8.53996e-05
8.60388e-05
8.67196e-05
8.74415e-05
8.82022e-05
8.89979e-05
8.98229e-05
9.06696e-05
9.15284e-05
9.23876e-05
9.32338e-05
9.40516e-05
9.48246e-05
9.55349e-05
9.61644e-05
9.66948e-05
9.71079e-05
9.73869e-05
9.75156e-05
9.74588e-05
9.72279e-05
9.68523e-05
9.62663e-05
9.54627e-05
9.4446e-05
9.32104e-05
9.17503e-05
9.00601e-05
8.8134e-05
8.59652e-05
8.35455e-05
8.08647e-05
7.79096e-05
7.46632e-05
7.11034e-05
6.72007e-05
6.29164e-05
5.81984e-05
5.2976e-05
4.71526e-05
4.05935e-05
3.31111e-05
2.4452e-05
1.44637e-05
4.3311e-06
4.43067e-08
5.73917e-08
5.471e-06
1.76713e-05
2.91427e-05
3.85506e-05
4.62025e-05
5.25027e-05
5.77602e-05
6.21978e-05
6.59766e-05
6.92152e-05
7.20032e-05
7.441e-05
7.64909e-05
7.82912e-05
7.9849e-05
8.11973e-05
8.2365e-05
8.3378e-05
8.42598e-05
8.50316e-05
8.5713e-05
8.63219e-05
8.68747e-05
8.73864e-05
8.78704e-05
8.8339e-05
8.88031e-05
8.92728e-05
8.97566e-05
9.02622e-05
9.07962e-05
9.13643e-05
9.19709e-05
9.26194e-05
9.3312e-05
9.40492e-05
9.48303e-05
9.56524e-05
9.65109e-05
9.73988e-05
9.83069e-05
9.92236e-05
0.000100135
0.000101025
0.000101876
0.000102669
0.000103384
0.000104
0.000104497
0.000104858
0.000105064
0.000105101
0.000104928
0.000104575
0.000104058
0.000103324
0.000102356
0.000101166
9.97495e-05
9.81009e-05
9.62149e-05
9.40851e-05
9.17036e-05
8.90608e-05
8.61446e-05
8.294e-05
7.9428e-05
7.55847e-05
7.1379e-05
6.67703e-05
6.17048e-05
5.61102e-05
4.98873e-05
4.28985e-05
3.49531e-05
2.57865e-05
1.52661e-05
4.59754e-06
4.75789e-08
6.17407e-08
5.8073e-06
1.8672e-05
3.07981e-05
4.08053e-05
4.89859e-05
5.57486e-05
6.14098e-05
6.61996e-05
7.02858e-05
7.37931e-05
7.6816e-05
7.94283e-05
8.16892e-05
8.3647e-05
8.53428e-05
8.68119e-05
8.80854e-05
8.91911e-05
9.01541e-05
9.09975e-05
9.17422e-05
9.24075e-05
9.3011e-05
9.35688e-05
9.40957e-05
9.46048e-05
9.51081e-05
9.56165e-05
9.61395e-05
9.66855e-05
9.7262e-05
9.7875e-05
9.85297e-05
9.92298e-05
9.99774e-05
0.000100773
0.000101616
0.000102502
0.000103425
0.000104376
0.000105345
0.000106317
0.000107275
0.0001082
0.00010907
0.000109865
0.000110561
0.000111136
0.00011157
0.000111844
0.000111942
0.000111851
0.000111526
0.000111018
0.000110333
0.000109432
0.000108286
0.000106918
0.000105324
0.000103499
0.000101439
9.91352e-05
9.6578e-05
9.3755e-05
9.06513e-05
8.72486e-05
8.35247e-05
7.94526e-05
7.49988e-05
7.01205e-05
6.47622e-05
5.885e-05
5.22831e-05
4.49222e-05
3.65737e-05
2.69644e-05
1.59772e-05
4.8357e-06
5.05016e-08
6.57005e-08
6.10691e-06
1.9559e-05
3.22681e-05
4.28131e-05
5.14714e-05
5.8655e-05
6.46857e-05
6.97997e-05
7.41704e-05
7.79273e-05
8.11695e-05
8.39745e-05
8.64046e-05
8.85111e-05
9.03376e-05
9.19213e-05
9.32956e-05
9.44898e-05
9.55308e-05
9.6443e-05
9.72487e-05
9.79685e-05
9.86213e-05
9.92242e-05
9.97931e-05
0.000100342
0.000100885
0.000101432
0.000101995
0.000102583
0.000103203
0.000103864
0.00010457
0.000105325
0.000106132
0.000106991
0.000107899
0.000108853
0.000109844
0.000110861
0.000111889
0.00011291
0.000113904
0.000114847
0.000115714
0.000116481
0.000117122
0.000117613
0.000117936
0.000118072
0.000118009
0.000117738
0.000117211
0.000116504
0.000115611
0.000114518
0.000113176
0.000111622
0.000109856
0.000107873
0.000105667
0.00010323
0.000100546
9.76004e-05
9.43726e-05
9.08391e-05
8.69728e-05
8.27416e-05
7.81079e-05
7.30257e-05
6.74367e-05
6.12654e-05
5.44096e-05
4.67287e-05
3.80276e-05
2.80268e-05
1.66208e-05
5.05222e-06
5.31342e-08
6.93014e-08
6.37432e-06
2.03477e-05
3.35782e-05
4.46074e-05
5.36988e-05
6.12659e-05
6.76353e-05
7.30481e-05
7.76823e-05
8.16716e-05
8.51187e-05
8.81044e-05
9.06939e-05
9.29409e-05
9.48912e-05
9.65841e-05
9.80546e-05
9.93337e-05
0.00010045
0.000101428
0.000102293
0.000103066
0.000103768
0.000104415
0.000105026
0.000105616
0.000106198
0.000106786
0.000107391
0.000108023
0.000108692
0.000109404
0.000110166
0.000110982
0.000111855
0.000112783
0.000113764
0.00011479
0.000115851
0.000116931
0.000118012
0.00011907
0.00012008
0.000121013
0.000121839
0.00012253
0.00012306
0.000123405
0.000123546
0.000123472
0.000123173
0.000122649
0.000121854
0.000120887
0.000119736
0.000118416
0.000116855
0.000115108
0.000113176
0.000111058
0.000108744
0.000106224
0.000103478
0.000100484
9.72148e-05
9.36385e-05
8.97203e-05
8.54207e-05
8.06954e-05
7.54929e-05
6.97507e-05
6.33903e-05
5.63077e-05
4.83612e-05
3.9355e-05
2.90062e-05
1.72169e-05
5.2533e-06
5.55383e-08
7.25711e-08
6.61326e-06
2.10503e-05
3.47485e-05
4.62149e-05
5.56995e-05
6.36169e-05
7.02971e-05
7.59855e-05
8.08638e-05
8.50694e-05
8.87081e-05
9.18635e-05
9.46032e-05
9.69831e-05
9.9051e-05
0.000100848
0.000102411
0.000103771
0.00010496
0.000106003
0.000106926
0.000107751
0.0001085
0.000109193
0.000109846
0.000110478
0.000111102
0.000111733
0.000112384
0.000113065
0.000113786
0.000114556
0.000115382
0.000116267
0.000117213
0.000118218
0.000119276
0.000120378
0.000121507
0.000122644
0.000123762
0.000124833
0.000125823
0.000126697
0.000127423
0.000127968
0.000128305
0.000128414
0.000128279
0.000127896
0.000127266
0.000126398
0.000125248
0.000123949
0.000122477
0.000120887
0.000119084
0.000117134
0.000115047
0.00011282
0.000110445
0.000107904
0.000105174
0.000102223
9.90136e-05
9.55042e-05
9.16483e-05
8.73957e-05
8.2692e-05
7.74771e-05
7.16815e-05
6.52215e-05
5.79897e-05
4.98424e-05
4.05826e-05
2.99282e-05
1.77832e-05
5.44498e-06
5.77792e-08
7.55347e-08
6.82686e-06
2.16768e-05
3.57957e-05
4.76572e-05
5.74993e-05
6.57367e-05
7.27025e-05
7.86451e-05
8.37497e-05
8.81567e-05
9.19746e-05
9.52893e-05
9.81706e-05
0.000100676
0.000102856
0.000104752
0.000106403
0.000107843
0.000109101
0.000110207
0.000111187
0.000112064
0.000112862
0.0001136
0.000114298
0.000114973
0.000115642
0.00011632
0.000117021
0.000117756
0.000118538
0.000119374
0.000120271
0.000121233
0.00012226
0.000123348
0.000124487
0.000125662
0.000126851
0.000128026
0.000129154
0.000130195
0.000131109
0.000131855
0.000132395
0.000132695
0.000132731
0.000132486
0.000131955
0.000131143
0.000130065
0.000128742
0.000127141
0.000125428
0.000123572
0.000121656
0.000119596
0.000117433
0.000115201
0.000112898
0.000110512
0.000108021
0.000105394
0.00010259
9.95578e-05
9.62432e-05
9.25851e-05
8.85189e-05
8.3976e-05
7.88836e-05
7.31615e-05
6.6717e-05
5.94364e-05
5.11714e-05
4.17227e-05
3.08094e-05
1.83346e-05
5.63317e-06
5.9927e-08
7.82158e-08
7.01773e-06
2.22354e-05
3.67343e-05
4.89516e-05
5.91193e-05
6.76495e-05
7.48775e-05
8.10547e-05
8.63692e-05
9.09638e-05
9.49492e-05
9.84135e-05
0.000101428
0.000104053
0.000106339
0.000108331
0.000110066
0.000111582
0.000112908
0.000114076
0.000115112
0.000116042
0.000116888
0.000117673
0.000118417
0.000119139
0.000119857
0.000120587
0.000121343
0.000122141
0.00012299
0.0001239
0.000124878
0.000125925
0.00012704
0.000128214
0.000129432
0.000130671
0.0001319
0.000133082
0.00013417
0.000135118
0.000135875
0.000136395
0.000136635
0.000136564
0.000136162
0.000135424
0.000134355
0.000132979
0.000131327
0.000129435
0.000127283
0.000125072
0.000122773
0.000120484
0.00011815
0.00011577
0.000113407
0.00011106
0.000108715
0.000106345
0.00010391
0.000101358
9.86267e-05
9.56441e-05
9.23327e-05
8.86095e-05
8.43879e-05
7.95777e-05
7.40829e-05
6.77972e-05
6.05957e-05
5.23215e-05
4.27688e-05
3.16559e-05
1.88821e-05
5.82334e-06
6.20549e-08
8.06362e-08
7.18816e-06
2.2733e-05
3.75751e-05
5.01134e-05
6.05775e-05
6.93754e-05
7.68443e-05
8.3238e-05
8.8747e-05
9.35161e-05
9.76581e-05
0.000101263
0.000104404
0.000107142
0.000109529
0.000111611
0.000113428
0.000115017
0.00011641
0.000117639
0.000118731
0.000119713
0.000120609
0.000121443
0.000122236
0.000123008
0.000123779
0.000124567
0.000125387
0.000126253
0.000127179
0.000128173
0.000129239
0.000130379
0.000131585
0.000132844
0.000134131
0.000135413
0.000136648
0.000137784
0.000138765
0.00013953
0.000140022
0.000140188
0.000139989
0.000139397
0.000138403
0.000137017
0.000135264
0.000133186
0.000130838
0.000128271
0.000125481
0.000122705
0.000119914
0.000117219
0.000114609
0.000112013
0.000109536
0.000107176
0.000104917
0.000102728
0.000100563
9.83589e-05
9.60407e-05
9.35213e-05
9.07039e-05
8.74847e-05
8.37551e-05
7.94027e-05
7.43101e-05
6.83516e-05
6.13848e-05
5.32378e-05
4.36922e-05
3.24599e-05
1.94295e-05
6.01951e-06
6.42349e-08
8.28159e-08
7.34015e-06
2.31761e-05
3.83269e-05
5.11554e-05
6.18892e-05
7.09318e-05
7.86219e-05
8.52152e-05
9.09042e-05
9.58357e-05
0.000100124
0.000103861
0.000107121
0.000109966
0.000112449
0.000114618
0.000116514
0.000118174
0.000119633
0.000120921
0.000122069
0.000123104
0.000124051
0.000124936
0.000125782
0.000126609
0.000127439
0.000128291
0.000129181
0.000130126
0.000131137
0.000132223
0.000133386
0.000134622
0.000135917
0.00013725
0.000138585
0.000139874
0.000141062
0.00014208
0.000142859
0.000143327
0.00014342
0.000143085
0.000142287
0.000141011
0.000139266
0.00013708
0.000134505
0.000131606
0.000128463
0.000125148
0.000121665
0.000118287
0.000114988
0.000111876
0.000109006
0.000106211
0.000103639
0.000101289
9.91454e-05
9.71758e-05
9.53294e-05
9.35382e-05
9.1717e-05
8.9765e-05
8.75674e-05
8.49985e-05
8.19248e-05
7.82069e-05
7.37005e-05
6.82536e-05
6.1699e-05
5.38417e-05
4.44417e-05
3.31969e-05
1.99705e-05
6.221e-06
6.65501e-08
8.47737e-08
7.47543e-06
2.35696e-05
3.89976e-05
5.20886e-05
6.30674e-05
7.23335e-05
8.02265e-05
8.70038e-05
9.28595e-05
9.79421e-05
0.000102367
0.000106228
0.0001096
0.000112546
0.000115122
0.000117374
0.000119346
0.000121075
0.000122597
0.000123945
0.000125149
0.000126238
0.000127239
0.000128178
0.00012908
0.000129967
0.000130862
0.000131785
0.000132754
0.000133786
0.000134891
0.000136075
0.000137338
0.000138669
0.000140046
0.000141432
0.00014278
0.000144024
0.00014509
0.000145895
0.000146354
0.000146388
0.00014593
0.000144932
0.000143371
0.000141252
0.000138607
0.000135494
0.000131992
0.000128194
0.000124204
0.000120118
0.000115943
0.000111973
0.000108196
0.000104692
0.0001016
9.86459e-05
9.60009e-05
9.36741e-05
9.16526e-05
8.99053e-05
8.83832e-05
8.70188e-05
8.57243e-05
8.43916e-05
8.28925e-05
8.10813e-05
7.87982e-05
7.58733e-05
7.21293e-05
6.73803e-05
6.14262e-05
5.40396e-05
4.49478e-05
3.38241e-05
2.04856e-05
6.42161e-06
6.90766e-08
8.65266e-08
7.59549e-06
2.3918e-05
3.95943e-05
5.29223e-05
6.41236e-05
7.35937e-05
8.16727e-05
8.86193e-05
9.46292e-05
9.9852e-05
0.000104405
0.000108381
0.000111859
0.000114901
0.000117564
0.000119897
0.000121942
0.000123738
0.000125323
0.00012673
0.000127991
0.000129136
0.000130193
0.000131189
0.000132151
0.000133103
0.00013407
0.000135072
0.000136128
0.000137254
0.00013846
0.000139748
0.000141111
0.000142529
0.000143967
0.000145375
0.000146684
0.000147811
0.000148662
0.000149137
0.000149141
0.00014859
0.00014742
0.000145599
0.000143122
0.000140024
0.000136368
0.000132245
0.000127766
0.000123054
0.000118234
0.000113426
0.000108632
0.000104138
9.99757e-05
9.61627e-05
9.28924e-05
8.98725e-05
8.71796e-05
8.48799e-05
8.29608e-05
8.13964e-05
8.01457e-05
7.91511e-05
7.8334e-05
7.75913e-05
7.67919e-05
7.57771e-05
7.43634e-05
7.23479e-05
6.95141e-05
6.56341e-05
6.04651e-05
5.3737e-05
4.51331e-05
3.4285e-05
2.09478e-05
6.62194e-06
7.17897e-08
8.80907e-08
7.70168e-06
2.42251e-05
4.01232e-05
5.36648e-05
6.50679e-05
7.47238e-05
8.2973e-05
9.00754e-05
9.62276e-05
0.000101581
0.000106252
0.000110338
0.000113915
0.000117048
0.000119795
0.000122204
0.000124319
0.000126182
0.000127829
0.000129295
0.000130614
0.000131815
0.00013293
0.000133988
0.000135015
0.000136038
0.000137083
0.000138171
0.000139322
0.000140549
0.00014186
0.000143252
0.000144709
0.000146197
0.000147668
0.000149049
0.000150253
0.000151174
0.000151698
0.000151712
0.000151115
0.000149824
0.00014779
0.000145002
0.00014149
0.00013732
0.000132597
0.000127449
0.00012202
0.000116459
0.000110911
0.000105505
0.000100257
9.53774e-05
9.09778e-05
8.70114e-05
8.36499e-05
8.06789e-05
7.79846e-05
7.5717e-05
7.38639e-05
7.24056e-05
7.13145e-05
7.05526e-05
7.0066e-05
6.97749e-05
6.95651e-05
6.9281e-05
6.87251e-05
6.76637e-05
6.58356e-05
6.29608e-05
5.87415e-05
5.28526e-05
4.49214e-05
3.45181e-05
2.13242e-05
6.81515e-06
7.46727e-08
8.9481e-08
7.79517e-06
2.44944e-05
4.05898e-05
5.43235e-05
6.59092e-05
7.5734e-05
8.41389e-05
9.13843e-05
9.76679e-05
0.000103142
0.000107924
0.000112112
0.000115782
0.000119002
0.000121828
0.00012431
0.000126495
0.000128422
0.00013013
0.000131656
0.000133032
0.000134293
0.000135469
0.000136591
0.000137688
0.000138789
0.000139918
0.000141099
0.000142351
0.000143684
0.000145102
0.000146593
0.00014813
0.000149663
0.000151123
0.000152418
0.000153433
0.000154043
0.000154117
0.000153533
0.000152189
0.000150016
0.000146989
0.00014313
0.000138509
0.00013324
0.000127468
0.00012136
0.000115094
0.000108839
0.000102749
9.69533e-05
9.15034e-05
8.6452e-05
8.20208e-05
7.80957e-05
7.4774e-05
7.19897e-05
6.93805e-05
6.71651e-05
6.53457e-05
6.39055e-05
6.28287e-05
6.2102e-05
6.1708e-05
6.16119e-05
6.1744e-05
6.19819e-05
6.21395e-05
6.19655e-05
6.11542e-05
5.93622e-05
5.62199e-05
5.13298e-05
4.42473e-05
3.4466e-05
2.15762e-05
6.99014e-06
7.76592e-08
9.07116e-08
7.87705e-06
2.4729e-05
4.0999e-05
5.4905e-05
6.66554e-05
7.66337e-05
8.51805e-05
9.2557e-05
9.89616e-05
0.000104547
0.000109433
0.000113715
0.000117474
0.000120775
0.000123677
0.00012623
0.000128481
0.000130471
0.000132241
0.000133826
0.000135262
0.000136584
0.000137824
0.000139014
0.000140186
0.000141369
0.000142589
0.000143869
0.000145226
0.000146668
0.00014819
0.000149769
0.000151364
0.000152906
0.000154303
0.000155436
0.000156169
0.000156355
0.000155852
0.000154535
0.000152313
0.000149142
0.000145032
0.00014005
0.000134316
0.000127992
0.000121271
0.000114358
0.000107452
0.000100738
9.43673e-05
8.84543e-05
8.30714e-05
7.81996e-05
7.39156e-05
7.02603e-05
6.71359e-05
6.46277e-05
6.22679e-05
6.01432e-05
5.83557e-05
5.68766e-05
5.56919e-05
5.48069e-05
5.4239e-05
5.40073e-05
5.41132e-05
5.4507e-05
5.5061e-05
5.55463e-05
5.56323e-05
5.49076e-05
5.29102e-05
4.91434e-05
4.30673e-05
3.40807e-05
2.16663e-05
7.1334e-06
8.06269e-08
9.17955e-08
7.94829e-06
2.49317e-05
4.13555e-05
5.54152e-05
6.7314e-05
7.74312e-05
8.61073e-05
9.36038e-05
0.00010012
0.000105808
0.00011079
0.000115162
0.000119003
0.000122381
0.000125356
0.000127977
0.000130292
0.000132344
0.000134173
0.000135818
0.000137315
0.0001387
0.000140007
0.000141271
0.000142522
0.000143792
0.000145108
0.000146492
0.000147957
0.000149505
0.000151123
0.000152774
0.000154396
0.000155901
0.00015717
0.000158058
0.000158408
0.000158056
0.000156854
0.000154686
0.000151484
0.000147239
0.000142009
0.000135916
0.000129135
0.000121883
0.000114393
0.000106901
9.96246e-05
9.27444e-05
8.63981e-05
8.0672e-05
7.56035e-05
7.11888e-05
6.73417e-05
6.40563e-05
6.13168e-05
5.90987e-05
5.71414e-05
5.51757e-05
5.34573e-05
5.19466e-05
5.06152e-05
4.94733e-05
4.85538e-05
4.79076e-05
4.76097e-05
4.77041e-05
4.8178e-05
4.88981e-05
4.95736e-05
4.97548e-05
4.88746e-05
4.63014e-05
4.13612e-05
3.33299e-05
2.15632e-05
7.23108e-06
8.34024e-08
9.27451e-08
8.00976e-06
2.51048e-05
4.16633e-05
5.58595e-05
6.78914e-05
7.81342e-05
8.69277e-05
9.45337e-05
0.000101152
0.000106936
0.000112006
0.000116461
0.00012038
0.000123832
0.000126874
0.000129561
0.000131939
0.000134052
0.000135941
0.000137646
0.000139205
0.000140655
0.000142032
0.000143371
0.000144706
0.000146068
0.000147484
0.000148974
0.000150547
0.000152196
0.000153896
0.000155594
0.000157208
0.000158621
0.00015969
0.000160247
0.000160112
0.000159113
0.000157108
0.000153998
0.00014975
0.000144406
0.00013808
0.000130956
0.000123268
0.000115281
0.000107266
9.94755e-05
9.21273e-05
8.5385e-05
7.93529e-05
7.4075e-05
6.95404e-05
6.56977e-05
6.24745e-05
5.96917e-05
5.73259e-05
5.53981e-05
5.38045e-05
5.21473e-05
5.05477e-05
4.90802e-05
4.76636e-05
4.6303e-05
4.50424e-05
4.39019e-05
4.29981e-05
4.24386e-05
4.23398e-05
4.27315e-05
4.34772e-05
4.41924e-05
4.42474e-05
4.28492e-05
3.91322e-05
3.21982e-05
2.12467e-05
7.27132e-06
8.57836e-08
9.35718e-08
8.06229e-06
2.52509e-05
4.1926e-05
5.62431e-05
6.83939e-05
7.87497e-05
8.76495e-05
9.53554e-05
0.000102067
0.000107939
0.000113092
0.000117624
0.000121616
0.000125136
0.000128245
0.000130994
0.000133432
0.000135605
0.000137553
0.000139319
0.000140941
0.000142458
0.000143907
0.000145326
0.000146749
0.000148206
0.000149725
0.000151321
0.000152997
0.000154738
0.000156502
0.000158217
0.000159777
0.000161041
0.000161836
0.000161972
0.000161259
0.000159522
0.000156633
0.000152526
0.000147216
0.000140802
0.000133466
0.000125453
0.000117056
0.000108578
0.000100313
9.2514e-05
8.53769e-05
7.90273e-05
7.35187e-05
6.88409e-05
6.49271e-05
6.16864e-05
5.90177e-05
5.6723e-05
5.46956e-05
5.29833e-05
5.15643e-05
5.02877e-05
4.88838e-05
4.76025e-05
4.6267e-05
4.47732e-05
4.33574e-05
4.18945e-05
4.04602e-05
3.9195e-05
3.82652e-05
3.78457e-05
3.80407e-05
3.8697e-05
3.9279e-05
3.88851e-05
3.64065e-05
3.06865e-05
2.07086e-05
7.24633e-06
8.75689e-08
9.42865e-08
8.10661e-06
2.5372e-05
4.21472e-05
5.65703e-05
6.88269e-05
7.92842e-05
8.82802e-05
9.60768e-05
0.000102874
0.000108826
0.000114056
0.00011866
0.00012272
0.000126305
0.000129476
0.000132285
0.000134783
0.000137014
0.000139021
0.000140848
0.000142534
0.000144119
0.000145643
0.000147144
0.000148656
0.000150212
0.000151833
0.000153533
0.000155307
0.000157125
0.000158931
0.000160628
0.000162087
0.000163138
0.000163586
0.000163223
0.000161851
0.000159307
0.000155487
0.00015037
0.00014403
0.000136631
0.000128424
0.000119715
0.000110842
0.000102136
9.38894e-05
8.63331e-05
7.96185e-05
7.38129e-05
6.89047e-05
6.48384e-05
6.1468e-05
5.85929e-05
5.61426e-05
5.41967e-05
5.25346e-05
5.10513e-05
4.97306e-05
4.84644e-05
4.72372e-05
4.61203e-05
4.4985e-05
4.39557e-05
4.26234e-05
4.12379e-05
3.94879e-05
3.78049e-05
3.61551e-05
3.4788e-05
3.39919e-05
3.393e-05
3.4397e-05
3.46031e-05
3.32438e-05
2.88082e-05
1.9952e-05
7.15176e-06
8.85892e-08
9.4899e-08
8.14343e-06
2.547e-05
4.233e-05
5.68456e-05
6.91959e-05
7.97438e-05
8.88263e-05
9.67051e-05
0.00010358
0.000109607
0.000114906
0.000119577
0.000123701
0.000127348
0.000130578
0.000133445
0.000135999
0.000138287
0.000140353
0.000142241
0.000143991
0.000145647
0.000147247
0.000148832
0.000150436
0.00015209
0.000153813
0.000155613
0.000157473
0.000159352
0.000161171
0.000162814
0.000164121
0.000164901
0.000164935
0.000164006
0.000161916
0.000158524
0.000153764
0.000147669
0.000140376
0.000132124
0.000123225
0.000114039
0.000104933
9.62405e-05
8.82313e-05
8.10881e-05
7.48975e-05
6.96583e-05
6.52675e-05
6.16033e-05
5.86293e-05
5.62822e-05
5.44014e-05
5.27658e-05
5.1303e-05
4.99671e-05
4.87081e-05
4.75607e-05
4.64222e-05
4.52679e-05
4.39742e-05
4.2889e-05
4.16404e-05
4.05435e-05
3.9196e-05
3.76317e-05
3.55707e-05
3.35306e-05
3.17434e-05
3.0559e-05
3.02124e-05
3.03581e-05
2.97719e-05
2.65925e-05
1.89875e-05
6.99132e-06
8.87512e-08
9.54189e-08
8.17336e-06
2.55468e-05
4.24773e-05
5.70729e-05
6.95055e-05
8.01341e-05
8.92943e-05
9.72474e-05
0.000104193
0.000110287
0.000115652
0.000120384
0.000124568
0.000128273
0.000131559
0.000134481
0.00013709
0.000139434
0.000141558
0.000143506
0.000145322
0.000147048
0.000148726
0.000150396
0.000152092
0.000153843
0.000155665
0.000157557
0.000159492
0.000161411
0.000163216
0.000164764
0.000165873
0.000166326
0.000165892
0.000164347
0.000161507
0.000157259
0.000151586
0.000144583
0.000136458
0.000127515
0.000118124
0.000108681
9.95582e-05
9.10691e-05
8.34345e-05
7.67707e-05
7.10839e-05
6.637e-05
6.22992e-05
5.91008e-05
5.65661e-05
5.42732e-05
5.22807e-05
5.05708e-05
4.9203e-05
4.80069e-05
4.67661e-05
4.57683e-05
4.49056e-05
4.40832e-05
4.32647e-05
4.22077e-05
4.10723e-05
3.98187e-05
3.85037e-05
3.72368e-05
3.56665e-05
3.34922e-05
3.11556e-05
2.89291e-05
2.73558e-05
2.66934e-05
2.62513e-05
2.41043e-05
1.78306e-05
6.77503e-06
8.81258e-08
9.58547e-08
8.19701e-06
2.56041e-05
4.25921e-05
5.72559e-05
6.97605e-05
8.04605e-05
8.969e-05
9.77099e-05
0.00010472
0.000110876
0.000116299
0.00012109
0.000125329
0.000129087
0.000132426
0.000135401
0.000138064
0.000140462
0.000142643
0.000144652
0.000146532
0.00014833
0.000150086
0.00015184
0.000153628
0.000155474
0.00015739
0.000159365
0.000161359
0.000163296
0.000165057
0.000166474
0.000167342
0.000167425
0.000166482
0.000164293
0.000160696
0.000155616
0.000149094
0.000141288
0.000132476
0.000123022
0.000113336
0.000103828
9.48544e-05
8.66814e-05
7.94658e-05
7.32646e-05
6.78158e-05
6.32301e-05
5.97612e-05
5.6976e-05
5.43997e-05
5.21015e-05
5.02656e-05
4.8629e-05
4.74436e-05
4.64691e-05
4.53089e-05
4.42586e-05
4.33937e-05
4.25683e-05
4.18146e-05
4.10408e-05
4.02764e-05
3.9229e-05
3.80125e-05
3.67515e-05
3.54085e-05
3.38749e-05
3.16884e-05
2.8858e-05
2.61592e-05
2.42123e-05
2.31284e-05
2.14903e-05
1.65043e-05
6.51992e-06
8.69126e-08
9.62144e-08
8.21492e-06
2.56435e-05
4.26768e-05
5.73982e-05
6.9965e-05
8.07278e-05
9.0019e-05
9.80988e-05
0.000105167
0.000111379
0.000116857
0.000121699
0.00012599
0.000129799
0.000133188
0.000136214
0.000138928
0.000141379
0.000143615
0.000145684
0.000147629
0.000149497
0.00015133
0.000153169
0.000155046
0.000156984
0.000158986
0.000161032
0.00016307
0.000165004
0.000166692
0.000167945
0.000168537
0.000168219
0.000166744
0.000163906
0.000159573
0.000153717
0.000146436
0.000137956
0.000128615
0.000118824
0.000109016
9.95909e-05
9.08626e-05
8.30302e-05
7.61707e-05
6.98871e-05
6.48512e-05
6.13915e-05
5.80445e-05
5.48088e-05
5.24952e-05
5.06894e-05
4.92875e-05
4.81207e-05
4.72507e-05
4.6742e-05
4.58242e-05
4.49711e-05
4.40565e-05
4.29413e-05
4.17047e-05
4.04682e-05
3.93901e-05
3.84736e-05
3.74719e-05
3.62168e-05