/*--------------------------------*- C++ -*----------------------------------*\
  =========                 |
  \\      /  F ield         | OpenFOAM: The Open Source CFD Toolbox
   \\    /   O peration     | Website:  https://openfoam.org
    \\  /    A nd           | Version:  13
     \\/     M anipulation  |
\*---------------------------------------------------------------------------*/
FoamFile
{
    format      ascii;
    class       surfaceScalarField;
    location    "0.8";
    object      phi;
}
// * * * * * * * * * * * * * * * * * * * * * * * * * * * * * * * * * * * * * //

dimensions      [0 3 -1 0 0 0 0];

internalField   nonuniform List<scalar> 
12640
(
8.12799e-10
-8.12742e-10
1.44557e-09
-6.32772e-10
1.16102e-09
2.84552e-10
-1.54616e-10
1.31563e-09
-2.34089e-09
2.18627e-09
-5.20486e-09
2.86397e-09
-8.55717e-09
3.35232e-09
-1.22494e-08
3.69227e-09
-1.61741e-08
3.92463e-09
-2.02546e-08
4.0805e-09
-2.44367e-08
4.18212e-09
-2.86817e-08
4.24502e-09
-3.29618e-08
4.28007e-09
-3.72567e-08
4.29492e-09
-4.15518e-08
4.29507e-09
-4.58363e-08
4.28449e-09
-5.01024e-08
4.26609e-09
-5.43443e-08
4.24197e-09
-5.8558e-08
4.21367e-09
-6.27402e-08
4.18224e-09
-6.68886e-08
4.14834e-09
-7.10009e-08
4.11228e-09
-7.50749e-08
4.07406e-09
-7.91083e-08
4.03338e-09
-8.3098e-08
3.9897e-09
-8.70402e-08
3.9422e-09
-9.09301e-08
3.88987e-09
-9.47615e-08
3.83145e-09
-9.8527e-08
3.7655e-09
-1.02217e-07
3.69041e-09
-1.05822e-07
3.60437e-09
-1.09327e-07
3.50545e-09
-1.12719e-07
3.39157e-09
-1.15979e-07
3.26054e-09
-1.19089e-07
3.11007e-09
-1.22027e-07
2.93787e-09
-1.24769e-07
2.74161e-09
-1.27288e-07
2.51906e-09
-1.29556e-07
2.26812e-09
-1.31543e-07
1.98695e-09
-1.33217e-07
1.67415e-09
-1.34545e-07
1.32805e-09
-1.35489e-07
9.43747e-10
-1.36015e-07
5.2586e-10
-1.36112e-07
9.71828e-11
-1.35734e-07
-3.77699e-10
-1.34856e-07
-8.78549e-10
-1.33459e-07
-1.39699e-09
-1.31525e-07
-1.93357e-09
-1.29045e-07
-2.48005e-09
-1.26016e-07
-3.02904e-09
-1.22443e-07
-3.57286e-09
-1.18339e-07
-4.10397e-09
-1.13727e-07
-4.61273e-09
-1.08637e-07
-5.08992e-09
-1.03106e-07
-5.53082e-09
-9.7179e-08
-5.92684e-09
-9.09097e-08
-6.2693e-09
-8.43551e-08
-6.55452e-09
-7.75767e-08
-6.77845e-09
-7.06382e-08
-6.93847e-09
-6.36049e-08
-7.0333e-09
-5.65422e-08
-7.0627e-09
-4.95151e-08
-7.02714e-09
-4.25881e-08
-6.92696e-09
-3.58252e-08
-6.76292e-09
-2.92869e-08
-6.53826e-09
-2.30325e-08
-6.25442e-09
-1.71244e-08
-5.90814e-09
-1.16313e-08
-5.49309e-09
-6.63242e-09
-4.99885e-09
-2.22274e-09
-4.40968e-09
1.48473e-09
-3.70747e-09
4.36129e-09
-2.87656e-09
6.23456e-09
-1.87327e-09
6.92789e-09
-6.93324e-10
6.305e-09
6.22889e-10
4.44527e-09
1.85973e-09
1.87017e-09
2.57511e-09
1.87017e-09
6.37795e-10
-1.45054e-09
3.57447e-10
-3.52425e-10
-1.69592e-09
2.33792e-09
-5.52156e-09
5.14127e-09
-1.08023e-08
7.46705e-09
-1.71656e-08
9.22723e-09
-2.43127e-08
1.04994e-08
-3.20186e-08
1.13982e-08
-4.01166e-08
1.20226e-08
-4.84844e-08
1.24483e-08
-5.70329e-08
1.27306e-08
-6.56969e-08
1.2909e-08
-7.4428e-08
1.30113e-08
-8.31904e-08
1.30573e-08
-9.19569e-08
1.30615e-08
-1.00706e-07
1.30341e-08
-1.09423e-07
1.29825e-08
-1.18093e-07
1.2912e-08
-1.26705e-07
1.28263e-08
-1.35251e-07
1.27279e-08
-1.43721e-07
1.2618e-08
-1.52105e-07
1.2497e-08
-1.60396e-07
1.23646e-08
-1.68582e-07
1.22194e-08
-1.76652e-07
1.20596e-08
-1.84592e-07
1.18827e-08
-1.92388e-07
1.16854e-08
-2.00021e-07
1.14642e-08
-2.0747e-07
1.12147e-08
-2.14712e-07
1.09325e-08
-2.2172e-07
1.06126e-08
-2.28465e-07
1.02496e-08
-2.34911e-07
9.83821e-09
-2.41023e-07
9.37269e-09
-2.46761e-07
8.84745e-09
-2.5208e-07
8.25702e-09
-2.56934e-07
7.59618e-09
-2.61276e-07
6.86022e-09
-2.65053e-07
6.04511e-09
-2.68213e-07
5.14776e-09
-2.70705e-07
4.16623e-09
-2.72477e-07
3.0996e-09
-2.73481e-07
1.94792e-09
-2.73675e-07
7.19826e-10
-2.72999e-07
-5.79251e-10
-2.71438e-07
-1.93852e-09
-2.68957e-07
-3.35943e-09
-2.65532e-07
-4.82178e-09
-2.61156e-07
-6.3097e-09
-2.5583e-07
-7.80598e-09
-2.49567e-07
-9.29174e-09
-2.42393e-07
-1.07469e-08
-2.34345e-07
-1.21519e-08
-2.25473e-07
-1.34853e-08
-2.15834e-07
-1.47288e-08
-2.05496e-07
-1.58684e-08
-1.94539e-07
-1.68844e-08
-1.83047e-07
-1.7761e-08
-1.71112e-07
-1.84895e-08
-1.58828e-07
-1.90622e-08
-1.46292e-07
-1.94747e-08
-1.336e-07
-1.97251e-08
-1.20849e-07
-1.98144e-08
-1.08131e-07
-1.97451e-08
-9.55367e-08
-1.95209e-08
-8.31546e-08
-1.9145e-08
-7.10741e-08
-1.86188e-08
-5.93868e-08
-1.79416e-08
-4.81873e-08
-1.71077e-08
-3.75774e-08
-1.6103e-08
-2.76727e-08
-1.49035e-08
-1.8611e-08
-1.34715e-08
-1.05639e-08
-1.17546e-08
-3.75465e-09
-9.68577e-09
1.55237e-09
-7.18029e-09
5.04822e-09
-4.18917e-09
6.40308e-09
-7.3198e-10
5.41605e-09
2.84676e-09
2.5521e-09
5.43906e-09
4.42227e-09
-3e-10
-1.15054e-09
-2.38161e-09
1.72919e-09
-6.48038e-09
6.43669e-09
-1.22123e-08
1.08732e-08
-1.92049e-08
1.44597e-08
-2.71618e-08
1.71841e-08
-3.5853e-08
1.91906e-08
-4.50966e-08
2.06418e-08
-5.47498e-08
2.16758e-08
-6.47014e-08
2.23999e-08
-7.48655e-08
2.28947e-08
-8.51759e-08
2.32194e-08
-9.55813e-08
2.34167e-08
-1.06042e-07
2.3518e-08
-1.16526e-07
2.35459e-08
-1.27009e-07
2.35167e-08
-1.37469e-07
2.34423e-08
-1.47888e-07
2.3331e-08
-1.5825e-07
2.31886e-08
-1.68541e-07
2.30184e-08
-1.78745e-07
2.28223e-08
-1.88848e-07
2.26004e-08
-1.98835e-07
2.23515e-08
-2.08689e-07
2.20732e-08
-2.18391e-07
2.17617e-08
-2.27921e-07
2.14125e-08
-2.37256e-07
2.102e-08
-2.46369e-07
2.05775e-08
-2.55232e-07
2.0078e-08
-2.63813e-07
1.95134e-08
-2.72076e-07
1.88755e-08
-2.79982e-07
1.81555e-08
-2.87488e-07
1.73445e-08
-2.94549e-07
1.64334e-08
-3.01115e-07
1.54136e-08
-3.07135e-07
1.42767e-08
-3.12554e-07
1.30154e-08
-3.17317e-07
1.16232e-08
-3.21367e-07
1.00953e-08
-3.24648e-07
8.42868e-09
-3.27104e-07
6.62269e-09
-3.28684e-07
4.67925e-09
-3.2934e-07
2.6037e-09
-3.29025e-07
4.05055e-10
-3.27704e-07
-1.90045e-09
-3.25342e-07
-4.3e-09
-3.21924e-07
-6.77808e-09
-3.17436e-07
-9.30927e-09
-3.1188e-07
-1.18661e-08
-3.05267e-07
-1.44192e-08
-2.97621e-07
-1.69375e-08
-2.88979e-07
-1.93889e-08
-2.7939e-07
-2.17412e-08
-2.68914e-07
-2.39613e-08
-2.57621e-07
-2.60217e-08
-2.45592e-07
-2.78978e-08
-2.32915e-07
-2.95607e-08
-2.19687e-07
-3.09893e-08
-2.06006e-07
-3.21701e-08
-1.91976e-07
-3.30927e-08
-1.77699e-07
-3.37514e-08
-1.6328e-07
-3.41448e-08
-1.48819e-07
-3.42754e-08
-1.34415e-07
-3.41483e-08
-1.20166e-07
-3.37704e-08
-1.06163e-07
-3.3148e-08
-9.2497e-08
-3.22848e-08
-7.92578e-08
-3.11808e-08
-6.65369e-08
-2.98286e-08
-5.44299e-08
-2.821e-08
-4.30412e-08
-2.62922e-08
-3.24889e-08
-2.40237e-08
-2.29128e-08
-2.13306e-08
-1.44831e-08
-1.81155e-08
-7.40331e-09
-1.42601e-08
-1.93553e-09
-9.65695e-09
1.61702e-09
-4.28453e-09
2.92044e-09
1.54334e-09
1.85053e-09
6.50897e-09
6.2728e-09
-1.40571e-09
2.55175e-10
-5.33031e-09
5.65379e-09
-1.11069e-08
1.22133e-08
-1.81331e-08
1.78994e-08
-2.61101e-08
2.24367e-08
-3.48536e-08
2.59276e-08
-4.42197e-08
2.85567e-08
-5.40852e-08
3.05074e-08
-6.43441e-08
3.19347e-08
-7.49068e-08
3.29625e-08
-8.56989e-08
3.36868e-08
-9.66597e-08
3.41802e-08
-1.0774e-07
3.44971e-08
-1.189e-07
3.46778e-08
-1.30106e-07
3.47518e-08
-1.4133e-07
3.47408e-08
-1.52548e-07
3.46606e-08
-1.63739e-07
3.45221e-08
-1.74883e-07
3.43329e-08
-1.85962e-07
3.40972e-08
-1.96957e-07
3.38171e-08
-2.07849e-07
3.34924e-08
-2.18618e-07
3.31208e-08
-2.29244e-07
3.26985e-08
-2.39702e-07
3.222e-08
-2.49968e-07
3.16784e-08
-2.60013e-07
3.10655e-08
-2.69808e-07
3.03721e-08
-2.79318e-07
2.95877e-08
-2.88505e-07
2.87011e-08
-2.9733e-07
2.77007e-08
-3.05749e-07
2.65743e-08
-3.13714e-07
2.53097e-08
-3.21176e-07
2.38947e-08
-3.2808e-07
2.23179e-08
-3.34372e-07
2.05687e-08
-3.39994e-07
1.86379e-08
-3.44889e-07
1.6518e-08
-3.48998e-07
1.42042e-08
-3.52264e-07
1.16944e-08
-3.54631e-07
8.99004e-09
-3.56049e-07
6.09651e-09
-3.56469e-07
3.02398e-09
-3.5585e-07
-2.13882e-10
-3.54157e-07
-3.5929e-09
-3.51364e-07
-7.09391e-09
-3.47454e-07
-1.06877e-08
-3.42424e-07
-1.43397e-08
-3.36278e-07
-1.80113e-08
-3.29036e-07
-2.16611e-08
-3.20728e-07
-2.52455e-08
-3.11398e-07
-2.87198e-08
-3.01099e-07
-3.20394e-08
-2.899e-07
-3.51607e-08
-2.77875e-07
-3.80462e-08
-2.65112e-07
-4.06611e-08
-2.51705e-07
-4.2968e-08
-2.37753e-07
-4.4941e-08
-2.23361e-07
-4.65618e-08
-2.08636e-07
-4.78178e-08
-1.93685e-07
-4.87025e-08
-1.78614e-07
-4.92155e-08
-1.63529e-07
-4.93612e-08
-1.48529e-07
-4.91481e-08
-1.33713e-07
-4.85866e-08
-1.19173e-07
-4.7687e-08
-1.05001e-07
-4.64574e-08
-9.12813e-08
-4.49004e-08
-7.80996e-08
-4.30102e-08
-6.55412e-08
-4.07684e-08
-5.36939e-08
-3.81396e-08
-4.26506e-08
-3.5067e-08
-3.25128e-08
-3.14685e-08
-2.33936e-08
-2.72347e-08
-1.54212e-08
-2.22325e-08
-8.751e-09
-1.63271e-08
-3.5931e-09
-9.44243e-09
-2.86363e-10
-1.7634e-09
7.41441e-10
5.48117e-09
7.01424e-09
-2.3968e-09
2.65198e-09
-7.87487e-09
1.11319e-08
-1.49609e-08
1.92993e-08
-2.29664e-08
2.59048e-08
-3.16574e-08
3.11277e-08
-4.0928e-08
3.51982e-08
-5.06999e-08
3.83286e-08
-6.08992e-08
4.07066e-08
-7.14549e-08
4.24904e-08
-8.23015e-08
4.38091e-08
-9.33801e-08
4.47654e-08
-1.04639e-07
4.54394e-08
-1.16035e-07
4.58925e-08
-1.27528e-07
4.61712e-08
-1.39087e-07
4.63104e-08
-1.50682e-07
4.63359e-08
-1.62288e-07
4.62667e-08
-1.73882e-07
4.61159e-08
-1.85441e-07
4.58924e-08
-1.96946e-07
4.56013e-08
-2.08373e-07
4.52444e-08
-2.19702e-07
4.48211e-08
-2.30909e-07
4.4328e-08
-2.4197e-07
4.37599e-08
-2.5286e-07
4.31094e-08
-2.63549e-07
4.23673e-08
-2.74006e-07
4.15227e-08
-2.84197e-07
4.05636e-08
-2.94086e-07
3.94764e-08
-3.03632e-07
3.82469e-08
-3.12791e-07
3.686e-08
-3.21517e-07
3.53003e-08
-3.2976e-07
3.35524e-08
-3.37467e-07
3.16013e-08
-3.44582e-07
2.94331e-08
-3.51048e-07
2.70349e-08
-3.56806e-07
2.43963e-08
-3.61797e-07
2.1509e-08
-3.65962e-07
1.83685e-08
-3.69241e-07
1.4974e-08
-3.7158e-07
1.13293e-08
-3.72927e-07
7.44362e-09
-3.73235e-07
3.3319e-09
-3.72464e-07
-9.84849e-10
-3.70579e-07
-5.4787e-09
-3.67555e-07
-1.01178e-08
-3.63379e-07
-1.48631e-08
-3.5805e-07
-1.96694e-08
-3.51574e-07
-2.44864e-08
-3.43975e-07
-2.92601e-08
-3.35287e-07
-3.39342e-08
-3.25555e-07
-3.84513e-08
-3.1484e-07
-4.27545e-08
-3.03212e-07
-4.67889e-08
-2.90751e-07
-5.05068e-08
-2.7755e-07
-5.38628e-08
-2.63706e-07
-5.68119e-08
-2.49324e-07
-5.93226e-08
-2.34514e-07
-6.13722e-08
-2.19386e-07
-6.29458e-08
-2.04051e-07
-6.40367e-08
-1.88621e-07
-6.46457e-08
-1.73203e-07
-6.47799e-08
-1.57899e-07
-6.44519e-08
-1.42809e-07
-6.36768e-08
-1.28025e-07
-6.24706e-08
-1.13636e-07
-6.08468e-08
-9.97227e-08
-5.88135e-08
-8.63634e-08
-5.63695e-08
-7.36316e-08
-5.35002e-08
-6.15977e-08
-5.01734e-08
-5.03303e-08
-4.63344e-08
-3.98962e-08
-4.19025e-08
-3.03621e-08
-3.67688e-08
-2.17964e-08
-3.07982e-08
-1.4281e-08
-2.38425e-08
-7.94519e-09
-1.57782e-08
-3.07539e-09
-6.6332e-09
-3.07645e-10
2.71343e-09
6.70659e-09
-3.21961e-09
5.87158e-09
-9.89402e-09
1.78063e-08
-1.79963e-08
2.74016e-08
-2.67875e-08
3.4696e-08
-3.60652e-08
4.04054e-08
-4.57659e-08
4.48989e-08
-5.58534e-08
4.84161e-08
-6.62905e-08
5.11438e-08
-7.70361e-08
5.3236e-08
-8.80466e-08
5.48196e-08
-9.92791e-08
5.5998e-08
-1.10693e-07
5.68533e-08
-1.22251e-07
5.74502e-08
-1.33918e-07
5.78388e-08
-1.45665e-07
5.80572e-08
-1.57463e-07
5.81343e-08
-1.69288e-07
5.80909e-08
-1.81114e-07
5.7942e-08
-1.92919e-07
5.76974e-08
-2.0468e-07
5.73623e-08
-2.16374e-07
5.69385e-08
-2.27977e-07
5.64246e-08
-2.39465e-07
5.58162e-08
-2.50812e-07
5.51063e-08
-2.61988e-07
5.42855e-08
-2.72963e-07
5.33425e-08
-2.83704e-07
5.22638e-08
-2.94175e-07
5.10343e-08
-3.04336e-07
4.96377e-08
-3.14145e-07
4.80564e-08
-3.23558e-07
4.62722e-08
-3.32524e-07
4.42664e-08
-3.40992e-07
4.20206e-08
-3.48908e-07
3.9517e-08
-3.56214e-07
3.67391e-08
-3.62851e-07
3.36722e-08
-3.68759e-07
3.03042e-08
-3.73876e-07
2.66266e-08
-3.78143e-07
2.2635e-08
-3.81499e-07
1.83299e-08
-3.83887e-07
1.37177e-08
-3.85255e-07
8.81132e-09
-3.85554e-07
3.63072e-09
-3.84742e-07
-1.79667e-09
-3.82785e-07
-7.43588e-09
-3.79658e-07
-1.32449e-08
-3.75347e-07
-1.91741e-08
-3.69849e-07
-2.51668e-08
-3.63175e-07
-3.11607e-08
-3.55346e-07
-3.70886e-08
-3.46399e-07
-4.28811e-08
-3.36384e-07
-4.84672e-08
-3.25361e-07
-5.37772e-08
-3.13405e-07
-5.87445e-08
-3.00602e-07
-6.33101e-08
-2.87047e-07
-6.74173e-08
-2.72846e-07
-7.10137e-08
-2.58107e-07
-7.40615e-08
-2.42945e-07
-7.65335e-08
-2.27478e-07
-7.84126e-08
-2.11823e-07
-7.9692e-08
-1.96095e-07
-8.03743e-08
-1.80404e-07
-8.04703e-08
-1.64858e-07
-7.99976e-08
-1.49557e-07
-7.89778e-08
-1.34594e-07
-7.7434e-08
-1.20053e-07
-7.53874e-08
-1.06013e-07
-7.2854e-08
-9.25417e-08
-6.98406e-08
-7.97015e-08
-6.63404e-08
-6.75461e-08
-6.23289e-08
-5.61213e-08
-5.77592e-08
-4.54652e-08
-5.25586e-08
-3.56086e-08
-4.66254e-08
-2.6578e-08
-3.98288e-08
-1.84089e-08
-3.20115e-08
-1.11865e-08
-2.30007e-08
-5.16583e-09
-1.26539e-08
-1.09422e-09
-1.35819e-09
5.61237e-09
-3.85556e-09
9.72714e-09
-1.14333e-08
2.5384e-08
-2.03247e-08
3.6293e-08
-2.97563e-08
4.41276e-08
-3.95342e-08
5.01833e-08
-4.9613e-08
5.49778e-08
-5.99798e-08
5.87828e-08
-7.06219e-08
6.1786e-08
-8.15206e-08
6.41346e-08
-9.2651e-08
6.595e-08
-1.03985e-07
6.73316e-08
-1.15492e-07
6.83605e-08
-1.27143e-07
6.91014e-08
-1.3891e-07
6.96055e-08
-1.50765e-07
6.99125e-08
-1.62683e-07
7.00524e-08
-1.7464e-07
7.00475e-08
-1.86611e-07
6.99136e-08
-1.98575e-07
6.96606e-08
-2.10506e-07
6.9294e-08
-2.22383e-07
6.8815e-08
-2.34179e-07
6.82212e-08
-2.4587e-07
6.7507e-08
-2.57428e-07
6.66636e-08
-2.68822e-07
6.56798e-08
-2.80021e-07
6.45416e-08
-2.9099e-07
6.32331e-08
-3.01692e-07
6.17364e-08
-3.12087e-07
6.00321e-08
-3.2213e-07
5.80993e-08
-3.31774e-07
5.59166e-08
-3.4097e-07
5.34623e-08
-3.49664e-07
5.07147e-08
-3.578e-07
4.76531e-08
-3.6532e-07
4.42585e-08
-3.72161e-07
4.0514e-08
-3.78263e-07
3.64061e-08
-3.83562e-07
3.19255e-08
-3.87995e-07
2.70679e-08
-3.915e-07
2.1835e-08
-3.94018e-07
1.62354e-08
-3.95492e-07
1.02856e-08
-3.95872e-07
4.01058e-09
-3.95113e-07
-2.55608e-09
-3.93177e-07
-9.37152e-09
-3.90038e-07
-1.63841e-08
-3.85679e-07
-2.35332e-08
-3.80095e-07
-3.07505e-08
-3.73295e-07
-3.79603e-08
-3.65302e-07
-4.50822e-08
-3.56151e-07
-5.20321e-08
-3.45893e-07
-5.87249e-08
-3.34594e-07
-6.50767e-08
-3.2233e-07
-7.10083e-08
-3.09192e-07
-7.64484e-08
-2.95281e-07
-8.13275e-08
-2.80709e-07
-8.55857e-08
-2.65593e-07
-8.91776e-08
-2.50056e-07
-9.20714e-08
-2.3422e-07
-9.42478e-08
-2.18212e-07
-9.57002e-08
-2.02153e-07
-9.64336e-08
-1.86159e-07
-9.64638e-08
-1.70342e-07
-9.58146e-08
-1.54804e-07
-9.45159e-08
-1.39639e-07
-9.25998e-08
-1.24928e-07
-9.00979e-08
-1.10745e-07
-8.70368e-08
-9.71516e-08
-8.34343e-08
-8.41969e-08
-7.92951e-08
-7.19198e-08
-7.46061e-08
-6.03466e-08
-6.93324e-08
-4.94924e-08
-6.34128e-08
-3.93616e-08
-5.67561e-08
-2.99539e-08
-4.92366e-08
-2.12796e-08
-4.06858e-08
-1.34058e-08
-3.08745e-08
-6.58544e-09
-1.94742e-08
-1.62864e-09
-6.31499e-09
3.98374e-09
-4.33241e-09
1.40595e-08
-1.25827e-08
3.36342e-08
-2.20837e-08
4.57941e-08
-3.20354e-08
5.40793e-08
-4.22399e-08
6.03878e-08
-5.26551e-08
6.5393e-08
-6.32784e-08
6.94061e-08
-7.41116e-08
7.26192e-08
-8.51514e-08
7.51744e-08
-9.63871e-08
7.71858e-08
-1.07803e-07
7.87475e-08
-1.19379e-07
7.99369e-08
-1.31095e-07
8.08166e-08
-1.42926e-07
8.14371e-08
-1.54852e-07
8.18378e-08
-1.66848e-07
8.2049e-08
-1.78894e-07
8.2093e-08
-1.90966e-07
8.19858e-08
-2.03042e-07
8.17371e-08
-2.151e-07
8.1352e-08
-2.27116e-07
8.08308e-08
-2.39065e-07
8.017e-08
-2.5092e-07
7.93624e-08
-2.62654e-07
7.83977e-08
-2.74237e-07
7.72622e-08
-2.85635e-07
7.59397e-08
-2.96813e-07
7.44117e-08
-3.07734e-07
7.26572e-08
-3.18356e-07
7.06537e-08
-3.28634e-07
6.83773e-08
-3.3852e-07
6.58031e-08
-3.47964e-07
6.2906e-08
-3.56911e-07
5.96611e-08
-3.65302e-07
5.60447e-08
-3.73078e-07
5.20348e-08
-3.80177e-07
4.76123e-08
-3.86532e-07
4.27617e-08
-3.92079e-07
3.74727e-08
-3.96752e-07
3.17405e-08
-4.00485e-07
2.55675e-08
-4.03214e-07
1.89645e-08
-4.04879e-07
1.19508e-08
-4.05424e-07
4.55606e-09
-4.04801e-07
-3.17982e-09
-4.02966e-07
-1.12062e-08
-3.99888e-07
-1.94617e-08
-3.95547e-07
-2.78747e-08
-3.89933e-07
-3.6364e-08
-3.83053e-07
-4.48405e-08
-3.74927e-07
-5.32085e-08
-3.6559e-07
-6.13687e-08
-3.55095e-07
-6.92201e-08
-3.43508e-07
-7.66634e-08
-3.30912e-07
-8.36048e-08
-3.17401e-07
-8.99591e-08
-3.03085e-07
-9.56435e-08
-2.88082e-07
-1.00588e-07
-2.7252e-07
-1.0474e-07
-2.5653e-07
-1.08061e-07
-2.40247e-07
-1.10531e-07
-2.23805e-07
-1.12142e-07
-2.07335e-07
-1.12904e-07
-1.9096e-07
-1.12838e-07
-1.74798e-07
-1.11977e-07
-1.58954e-07
-1.10359e-07
-1.43524e-07
-1.0803e-07
-1.28588e-07
-1.05033e-07
-1.14216e-07
-1.01409e-07
-1.00462e-07
-9.7189e-08
-8.7364e-08
-9.23928e-08
-7.49482e-08
-8.70219e-08
-6.32248e-08
-8.10557e-08
-5.2191e-08
-7.44466e-08
-4.18334e-08
-6.71138e-08
-3.21352e-08
-5.89348e-08
-2.30961e-08
-4.9725e-08
-1.47803e-08
-3.91902e-08
-7.44869e-09
-2.68059e-08
-1.94732e-09
-1.18164e-08
2.03642e-09
-4.68342e-09
1.8743e-08
-1.34283e-08
4.23791e-08
-2.33957e-08
5.57615e-08
-3.37656e-08
6.44493e-08
-4.43297e-08
7.09518e-08
-5.50411e-08
7.61044e-08
-6.58993e-08
8.02643e-08
-7.69133e-08
8.36332e-08
-8.80891e-08
8.63502e-08
-9.94267e-08
8.85234e-08
-1.1092e-07
9.02409e-08
-1.22558e-07
9.15751e-08
-1.34327e-07
9.25855e-08
-1.4621e-07
9.332e-08
-1.58189e-07
9.38168e-08
-1.70245e-07
9.41053e-08
-1.82359e-07
9.42071e-08
-1.94511e-07
9.41374e-08
-2.06679e-07
9.39054e-08
-2.18842e-07
9.35151e-08
-2.30978e-07
9.29659e-08
-2.4306e-07
9.22528e-08
-2.55065e-07
9.13671e-08
-2.66964e-07
9.02962e-08
-2.78726e-07
8.90245e-08
-2.90319e-07
8.75332e-08
-3.01708e-07
8.58009e-08
-3.12855e-07
8.38037e-08
-3.23717e-07
8.1516e-08
-3.3425e-07
7.89103e-08
-3.44406e-07
7.59584e-08
-3.54131e-07
7.26315e-08
-3.63371e-07
6.89014e-08
-3.72067e-07
6.47407e-08
-3.80157e-07
6.01243e-08
-3.87575e-07
5.50302e-08
-3.94254e-07
4.94406e-08
-4.00124e-07
4.33432e-08
-4.05116e-07
3.67324e-08
-4.09159e-07
2.96107e-08
-4.12184e-07
2.19897e-08
-4.14125e-07
1.38918e-08
-4.1492e-07
5.3505e-09
-4.14511e-07
-3.58836e-09
-4.12851e-07
-1.28664e-08
-4.099e-07
-2.24124e-08
-4.05632e-07
-3.21433e-08
-4.00031e-07
-4.19644e-08
-3.931e-07
-5.17717e-08
-3.84855e-07
-6.14534e-08
-3.75331e-07
-7.08929e-08
-3.64579e-07
-7.99716e-08
-3.5267e-07
-8.85725e-08
-3.3969e-07
-9.65854e-08
-3.2574e-07
-1.03909e-07
-3.10938e-07
-1.10445e-07
-2.95413e-07
-1.16113e-07
-2.79303e-07
-1.20849e-07
-2.62754e-07
-1.24611e-07
-2.45912e-07
-1.27373e-07
-2.28924e-07
-1.29131e-07
-2.11931e-07
-1.29897e-07
-1.95069e-07
-1.29701e-07
-1.78461e-07
-1.28585e-07
-1.6222e-07
-1.26601e-07
-1.46443e-07
-1.23807e-07
-1.31212e-07
-1.20264e-07
-1.16591e-07
-1.16029e-07
-1.0263e-07
-1.11151e-07
-8.93574e-08
-1.05665e-07
-7.6788e-08
-9.95913e-08
-6.49192e-08
-9.29246e-08
-5.37345e-08
-8.56313e-08
-4.3208e-08
-7.76403e-08
-3.33143e-08
-6.88285e-08
-2.40494e-08
-5.899e-08
-1.5481e-08
-4.77586e-08
-7.87843e-09
-3.44084e-08
-2.10017e-09
-1.75946e-08
-6.37496e-11
-4.93717e-09
2.36801e-08
-1.40407e-08
5.14826e-08
-2.43607e-08
6.60815e-08
-3.50624e-08
7.51509e-08
-4.59246e-08
8.1814e-08
-5.68922e-08
8.7072e-08
-6.79619e-08
9.13341e-08
-7.91448e-08
9.48161e-08
-9.04522e-08
9.76576e-08
-1.01891e-07
9.99621e-08
-1.13462e-07
1.01812e-07
-1.25162e-07
1.03275e-07
-1.36984e-07
1.04407e-07
-1.48915e-07
1.05251e-07
-1.60943e-07
1.05845e-07
-1.73053e-07
1.06215e-07
-1.85228e-07
1.06382e-07
-1.97451e-07
1.0636e-07
-2.09703e-07
1.06158e-07
-2.21965e-07
1.05776e-07
-2.34213e-07
1.05214e-07
-2.46426e-07
1.04466e-07
-2.58578e-07
1.03519e-07
-2.70642e-07
1.0236e-07
-2.82589e-07
1.00972e-07
-2.94387e-07
9.9331e-08
-3.06001e-07
9.74145e-08
-3.17392e-07
9.51952e-08
-3.2852e-07
9.26438e-08
-3.39339e-07
8.97295e-08
-3.49801e-07
8.64202e-08
-3.59853e-07
8.26834e-08
-3.69438e-07
7.84868e-08
-3.78497e-07
7.37992e-08
-3.86964e-07
6.85918e-08
-3.94773e-07
6.28389e-08
-4.01852e-07
5.65195e-08
-4.08128e-07
4.96188e-08
-4.13525e-07
4.21293e-08
-4.17966e-07
3.40524e-08
-4.21377e-07
2.54002e-08
-4.23682e-07
1.61966e-08
-4.2481e-07
6.47882e-09
-4.24696e-07
-3.702e-09
-4.23283e-07
-1.42799e-08
-4.20521e-07
-2.51738e-08
-4.16376e-07
-3.62885e-08
-4.10825e-07
-4.75152e-08
-4.03864e-07
-5.87334e-08
-3.95504e-07
-6.98135e-08
-3.85777e-07
-8.06194e-08
-3.74736e-07
-9.10128e-08
-3.62452e-07
-1.00856e-07
-3.49018e-07
-1.1002e-07
-3.34541e-07
-1.18385e-07
-3.19151e-07
-1.25836e-07
-3.02988e-07
-1.32276e-07
-2.86206e-07
-1.37632e-07
-2.68965e-07
-1.41852e-07
-2.51428e-07
-1.4491e-07
-2.33757e-07
-1.46801e-07
-2.1611e-07
-1.47544e-07
-1.98633e-07
-1.47177e-07
-1.81462e-07
-1.45755e-07
-1.64717e-07
-1.43346e-07
-1.485e-07
-1.40024e-07
-1.32894e-07
-1.3587e-07
-1.17963e-07
-1.3096e-07
-1.03749e-07
-1.25364e-07
-9.0276e-08
-1.19138e-07
-7.75478e-08
-1.1232e-07
-6.55508e-08
-1.04922e-07
-5.42578e-08
-9.69242e-08
-4.36339e-08
-8.82642e-08
-3.36478e-08
-7.88146e-08
-2.42943e-08
-6.83434e-08
-1.56451e-08
-5.64078e-08
-7.97381e-09
-4.20797e-08
-2.1294e-09
-2.3439e-08
-2.19315e-09
-5.11667e-09
2.87968e-08
-1.44748e-08
6.08408e-08
-2.5057e-08
7.66637e-08
-3.60172e-08
8.61111e-08
-4.71221e-08
9.2919e-08
-5.8307e-08
9.82569e-08
-6.95633e-08
1.0259e-07
-8.09009e-08
1.06154e-07
-9.23332e-08
1.0909e-07
-1.03871e-07
1.115e-07
-1.15522e-07
1.13463e-07
-1.27286e-07
1.1504e-07
-1.39162e-07
1.16283e-07
-1.51144e-07
1.17233e-07
-1.63222e-07
1.17923e-07
-1.75387e-07
1.18379e-07
-1.87623e-07
1.18619e-07
-1.99918e-07
1.18655e-07
-2.12255e-07
1.18494e-07
-2.24615e-07
1.18136e-07
-2.36979e-07
1.17579e-07
-2.49326e-07
1.16813e-07
-2.61633e-07
1.15825e-07
-2.73872e-07
1.146e-07
-2.86017e-07
1.13117e-07
-2.98037e-07
1.11351e-07
-3.09897e-07
1.09275e-07
-3.2156e-07
1.06858e-07
-3.32986e-07
1.0407e-07
-3.4413e-07
1.00873e-07
-3.54943e-07
9.72334e-08
-3.65373e-07
9.3113e-08
-3.75361e-07
8.84756e-08
-3.84848e-07
8.32854e-08
-3.93765e-07
7.75089e-08
-4.02042e-07
7.11161e-08
-4.09604e-07
6.4082e-08
-4.16373e-07
5.63877e-08
-4.22267e-07
4.80227e-08
-4.27201e-07
3.89864e-08
-4.3109e-07
2.92898e-08
-4.33851e-07
1.89577e-08
-4.35402e-07
8.02973e-09
-4.35666e-07
-3.43809e-09
-4.34573e-07
-1.53725e-08
-4.32065e-07
-2.76826e-08
-4.28093e-07
-4.02604e-08
-4.22626e-07
-5.29818e-08
-4.15651e-07
-6.57083e-08
-4.07174e-07
-7.82904e-08
-3.97223e-07
-9.05703e-08
-3.8585e-07
-1.02386e-07
-3.73128e-07
-1.13578e-07
-3.59155e-07
-1.23993e-07
-3.4405e-07
-1.3349e-07
-3.27951e-07
-1.41934e-07
-3.11016e-07
-1.49211e-07
-2.93415e-07
-1.55233e-07
-2.75328e-07
-1.59939e-07
-2.56939e-07
-1.63299e-07
-2.38429e-07
-1.65311e-07
-2.19974e-07
-1.65999e-07
-2.01738e-07
-1.65413e-07
-1.83871e-07
-1.63623e-07
-1.66503e-07
-1.60714e-07
-1.49744e-07
-1.56784e-07
-1.3368e-07
-1.51934e-07
-1.18375e-07
-1.46265e-07
-1.03868e-07
-1.39871e-07
-9.01763e-08
-1.3283e-07
-7.72948e-08
-1.25201e-07
-6.52005e-08
-1.17016e-07
-5.38562e-08
-1.08269e-07
-4.32185e-08
-9.89018e-08
-3.32505e-08
-8.87827e-08
-2.39447e-08
-7.76492e-08
-1.53725e-08
-6.498e-08
-7.80466e-09
-4.96475e-08
-2.06603e-09
-2.91777e-08
-4.25918e-09
-5.23985e-09
3.40367e-08
-1.47722e-08
7.03731e-08
-2.55442e-08
8.74357e-08
-3.67016e-08
9.72685e-08
-4.79999e-08
1.04217e-07
-5.9365e-08
1.09622e-07
-7.07819e-08
1.14007e-07
-8.22579e-08
1.1763e-07
-9.38063e-08
1.20638e-07
-1.0544e-07
1.23134e-07
-1.1717e-07
1.25192e-07
-1.29001e-07
1.26871e-07
-1.40935e-07
1.28217e-07
-1.52971e-07
1.29269e-07
-1.65104e-07
1.30056e-07
-1.77326e-07
1.30602e-07
-1.89629e-07
1.30922e-07
-2.02e-07
1.31026e-07
-2.14426e-07
1.3092e-07
-2.26891e-07
1.30602e-07
-2.39379e-07
1.30066e-07
-2.5187e-07
1.29303e-07
-2.64342e-07
1.28298e-07
-2.76772e-07
1.2703e-07
-2.89134e-07
1.25478e-07
-3.01397e-07
1.23614e-07
-3.1353e-07
1.21408e-07
-3.25497e-07
1.18826e-07
-3.37259e-07
1.15831e-07
-3.4877e-07
1.12385e-07
-3.59985e-07
1.08448e-07
-3.70849e-07
1.03977e-07
-3.81304e-07
9.89311e-08
-3.91288e-07
9.32693e-08
-4.00732e-07
8.69526e-08
-4.09561e-07
7.99454e-08
-4.17696e-07
7.2217e-08
-4.25052e-07
6.37437e-08
-4.3154e-07
5.45102e-08
-4.37066e-07
4.45123e-08
-4.41534e-07
3.37587e-08
-4.4485e-07
2.22733e-08
-4.46918e-07
1.00975e-08
-4.47647e-07
-2.70879e-09
-4.46954e-07
-1.60656e-08
-4.44765e-07
-2.98716e-08
-4.4102e-07
-4.40058e-08
-4.35674e-07
-5.83274e-08
-4.28704e-07
-7.26785e-08
-4.20107e-07
-8.68868e-08
-4.09908e-07
-1.0077e-07
-3.98155e-07
-1.1414e-07
-3.84924e-07
-1.26808e-07
-3.7032e-07
-1.38598e-07
-3.5447e-07
-1.4934e-07
-3.37528e-07
-1.58876e-07
-3.19669e-07
-1.6707e-07
-3.01085e-07
-1.73817e-07
-2.81979e-07
-1.79045e-07
-2.62559e-07
-1.82719e-07
-2.43033e-07
-1.84837e-07
-2.23598e-07
-1.85434e-07
-2.04441e-07
-1.8457e-07
-1.85728e-07
-1.82335e-07
-1.67606e-07
-1.78837e-07
-1.50192e-07
-1.74197e-07
-1.33582e-07
-1.68545e-07
-1.17839e-07
-1.62008e-07
-1.03001e-07
-1.54709e-07
-8.90788e-08
-1.46752e-07
-7.60597e-08
-1.3822e-07
-6.39108e-08
-1.29165e-07
-5.25847e-08
-1.19595e-07
-4.20283e-08
-1.09458e-07
-3.21964e-08
-9.86146e-08
-2.30751e-08
-8.67705e-08
-1.47294e-08
-7.33256e-08
-7.41807e-09
-5.69589e-08
-1.92836e-09
-3.46674e-08
-6.18753e-09
-5.32006e-09
3.93567e-08
-1.49636e-08
8.00166e-08
-2.58674e-08
9.83395e-08
-3.71705e-08
1.08572e-07
-4.86189e-08
1.15666e-07
-6.01296e-08
1.21133e-07
-7.16816e-08
1.25559e-07
-8.32781e-08
1.29226e-07
-9.49314e-08
1.32292e-07
-1.06655e-07
1.34858e-07
-1.18462e-07
1.36999e-07
-1.3036e-07
1.38769e-07
-1.42355e-07
1.40212e-07
-1.54449e-07
1.41363e-07
-1.66641e-07
1.42248e-07
-1.78928e-07
1.42888e-07
-1.91302e-07
1.43296e-07
-2.03756e-07
1.4348e-07
-2.16279e-07
1.43443e-07
-2.28858e-07
1.43181e-07
-2.4148e-07
1.42688e-07
-2.54127e-07
1.4195e-07
-2.6678e-07
1.40951e-07
-2.79418e-07
1.39668e-07
-2.92017e-07
1.38077e-07
-3.04549e-07
1.36147e-07
-3.16985e-07
1.33844e-07
-3.29291e-07
1.31131e-07
-3.41429e-07
1.27968e-07
-3.53355e-07
1.24312e-07
-3.65024e-07
1.20116e-07
-3.76382e-07
1.15335e-07
-3.87372e-07
1.09921e-07
-3.97928e-07
1.03826e-07
-4.0798e-07
9.70046e-08
-4.1745e-07
8.9415e-08
-4.26252e-07
8.10192e-08
-4.34295e-07
7.17865e-08
-4.4148e-07
6.16955e-08
-4.47704e-07
5.07363e-08
-4.52859e-07
3.89134e-08
-4.56835e-07
2.62488e-08
-4.59521e-07
1.27835e-08
-4.6081e-07
-1.4189e-09
-4.60603e-07
-1.62727e-08
-4.58809e-07
-3.16661e-08
-4.5535e-07
-4.74642e-08
-4.50169e-07
-6.35086e-08
-4.43228e-07
-7.96195e-08
-4.34515e-07
-9.55999e-08
-4.24046e-07
-1.11239e-07
-4.11867e-07
-1.26318e-07
-3.98057e-07
-1.40619e-07
-3.82723e-07
-1.53931e-07
-3.66007e-07
-1.66057e-07
-3.48076e-07
-1.76806e-07
-3.29128e-07
-1.86018e-07
-3.09379e-07
-1.93566e-07
-2.89061e-07
-1.99363e-07
-2.68412e-07
-2.03367e-07
-2.4767e-07
-2.0558e-07
-2.27061e-07
-2.06042e-07
-2.06798e-07
-2.04833e-07
-1.87072e-07
-2.02062e-07
-1.68046e-07
-1.97863e-07
-1.49854e-07
-1.92389e-07
-1.32599e-07
-1.858e-07
-1.16348e-07
-1.78259e-07
-1.01139e-07
-1.69918e-07
-8.69775e-08
-1.60913e-07
-7.38423e-08
-1.51355e-07
-6.16901e-08
-1.41317e-07
-5.04615e-08
-1.30823e-07
-4.0091e-08
-1.19829e-07
-3.0521e-08
-1.08185e-07
-2.1725e-08
-9.55665e-08
-1.37535e-08
-8.12971e-08
-6.84199e-09
-6.38704e-08
-1.72611e-09
-3.97833e-08
-7.91364e-09
-5.36544e-09
4.47222e-08
-1.50719e-08
8.97231e-08
-2.60606e-08
1.09328e-07
-3.74661e-08
1.19977e-07
-4.90265e-08
1.27226e-07
-6.06511e-08
1.32757e-07
-7.2313e-08
1.37221e-07
-8.40115e-08
1.40925e-07
-9.57569e-08
1.44037e-07
-1.07563e-07
1.46664e-07
-1.19442e-07
1.48878e-07
-1.31407e-07
1.50733e-07
-1.43464e-07
1.52269e-07
-1.55619e-07
1.53518e-07
-1.67875e-07
1.54504e-07
-1.8023e-07
1.55244e-07
-1.92682e-07
1.55748e-07
-2.05226e-07
1.56024e-07
-2.17854e-07
1.56071e-07
-2.30558e-07
1.55885e-07
-2.43324e-07
1.55455e-07
-2.56141e-07
1.54766e-07
-2.68991e-07
1.53801e-07
-2.81856e-07
1.52533e-07
-2.94715e-07
1.50936e-07
-3.07543e-07
1.48975e-07
-3.20314e-07
1.46614e-07
-3.32995e-07
1.43812e-07
-3.4555e-07
1.40524e-07
-3.5794e-07
1.36702e-07
-3.70119e-07
1.32295e-07
-3.82035e-07
1.27251e-07
-3.93629e-07
1.21515e-07
-4.04835e-07
1.15032e-07
-4.15581e-07
1.0775e-07
-4.25784e-07
9.96177e-08
-4.35353e-07
9.0588e-08
-4.44188e-07
8.06215e-08
-4.5218e-07
6.96884e-08
-4.59215e-07
5.77712e-08
-4.6517e-07
4.48684e-08
-4.69919e-07
3.09975e-08
-4.73334e-07
1.61985e-08
-4.75289e-07
5.36528e-10
-4.75666e-07
-1.58963e-08
-4.74353e-07
-3.2979e-08
-4.71255e-07
-5.0562e-08
-4.66296e-07
-6.84679e-08
-4.59422e-07
-8.64936e-08
-4.50608e-07
-1.04414e-07
-4.3986e-07
-1.21987e-07
-4.27219e-07
-1.38959e-07
-4.12763e-07
-1.55074e-07
-3.96607e-07
-1.70088e-07
-3.789e-07
-1.83763e-07
-3.59831e-07
-1.95875e-07
-3.39619e-07
-2.06231e-07
-3.18508e-07
-2.14677e-07
-2.96766e-07
-2.21105e-07
-2.74668e-07
-2.25466e-07
-2.52485e-07
-2.27762e-07
-2.30482e-07
-2.28045e-07
-2.08904e-07
-2.26411e-07
-1.8797e-07
-2.22995e-07
-1.67869e-07
-2.17964e-07
-1.48753e-07
-2.11504e-07
-1.30738e-07
-2.03816e-07
-1.13897e-07
-1.951e-07
-9.82682e-08
-1.85547e-07
-8.38537e-08
-1.75328e-07
-7.06233e-08
-1.64586e-07
-5.85218e-08
-1.53419e-07
-4.74754e-08
-1.4187e-07
-3.74023e-08
-1.29902e-07
-2.82271e-08
-1.1736e-07
-1.99035e-08
-1.0389e-07
-1.24573e-08
-8.87432e-08
-6.0884e-09
-7.02394e-08
-1.46338e-09
-4.44083e-08
-9.37702e-09
-5.38202e-09
5.01042e-08
-1.51144e-08
9.94554e-08
-2.61495e-08
1.20363e-07
-3.76205e-08
1.31448e-07
-4.92593e-08
1.38865e-07
-6.09688e-08
1.44467e-07
-7.27166e-08
1.48969e-07
-8.44983e-08
1.52706e-07
-9.63219e-08
1.55861e-07
-1.082e-07
1.58542e-07
-1.20147e-07
1.60825e-07
-1.32174e-07
1.6276e-07
-1.44293e-07
1.64388e-07
-1.5651e-07
1.65736e-07
-1.68832e-07
1.66825e-07
-1.8126e-07
1.67672e-07
-1.93796e-07
1.68284e-07
-2.06436e-07
1.68665e-07
-2.19178e-07
1.68813e-07
-2.32015e-07
1.68721e-07
-2.44938e-07
1.68378e-07
-2.57937e-07
1.67766e-07
-2.71e-07
1.66864e-07
-2.84111e-07
1.65645e-07
-2.97253e-07
1.64078e-07
-3.10404e-07
1.62126e-07
-3.23541e-07
1.59751e-07
-3.36634e-07
1.56905e-07
-3.4965e-07
1.53541e-07
-3.62553e-07
1.49605e-07
-3.75298e-07
1.4504e-07
-3.87835e-07
1.39788e-07
-4.00106e-07
1.33785e-07
-4.12043e-07
1.2697e-07
-4.23571e-07
1.19278e-07
-4.34603e-07
1.1065e-07
-4.45042e-07
1.01027e-07
-4.54779e-07
9.03587e-08
-4.63695e-07
7.86045e-08
-4.71661e-07
6.57369e-08
-4.78538e-07
5.17458e-08
-4.84183e-07
3.66428e-08
-4.8845e-07
2.04647e-08
-4.9119e-07
3.2771e-09
-4.92264e-07
-1.48229e-08
-4.91538e-07
-3.3705e-08
-4.88895e-07
-5.3205e-08
-4.84237e-07
-7.31257e-08
-4.77491e-07
-9.3239e-08
-4.68616e-07
-1.13289e-07
-4.57604e-07
-1.32999e-07
-4.44487e-07
-1.52076e-07
-4.2934e-07
-1.70221e-07