/*--------------------------------*- C++ -*----------------------------------*\
  =========                 |
  \\      /  F ield         | OpenFOAM: The Open Source CFD Toolbox
   \\    /   O peration     | Website:  https://openfoam.org
    \\  /    A nd           | Version:  13
     \\/     M anipulation  |
\*---------------------------------------------------------------------------*/
FoamFile
{
    format      ascii;
    class       volScalarField;
    location    "6.7";
    object      k;
}
// * * * * * * * * * * * * * * * * * * * * * * * * * * * * * * * * * * * * * //

dimensions      [0 2 -2 0 0 0 0];

internalField   nonuniform List<scalar> 
6400
(
5.22871e-07
2.68636e-06
6.52218e-06
1.05203e-05
1.35473e-05
1.52531e-05
1.5875e-05
1.5933e-05
1.60208e-05
1.66034e-05
1.80335e-05
2.08594e-05
2.53488e-05
3.15965e-05
3.92907e-05
4.80061e-05
5.73012e-05
6.69754e-05
7.66056e-05
8.59247e-05
9.52446e-05
0.000105349
0.000117303
0.000131815
0.000148387
0.000165302
0.000182075
0.000198692
0.000215643
0.00023341
0.000251804
0.000270152
0.000288163
0.000305838
0.000323672
0.000341759
0.000360504
0.000380024
0.000400575
0.000422232
0.000445152
0.000469506
0.000495442
0.000523326
0.000553285
0.0005863
0.00062411
0.000670605
0.00071941
0.000768558
0.000817145
0.000864418
0.000909048
0.000949741
0.000985039
0.00101318
0.00102847
0.00103468
0.00103486
0.00101671
0.000983318
0.000934546
0.000871033
0.000794815
0.000708095
0.00061478
0.00051958
0.00042635
0.000338595
0.000259947
0.000196292
0.000142857
9.9667e-05
6.65794e-05
4.27582e-05
2.6533e-05
1.59537e-05
9.14458e-06
4.31708e-06
9.1876e-07
2.53178e-06
2.13153e-05
5.17463e-05
8.10758e-05
0.000102851
0.000115853
0.00012203
0.000124493
0.000126713
0.00013165
0.000142656
0.000163687
0.000195879
0.000238692
0.000290125
0.00034753
0.000408566
0.000470917
0.000532742
0.000593273
0.00065431
0.0007201
0.000796075
0.000885138
0.000983917
0.00108381
0.00118108
0.00127376
0.00136267
0.00144894
0.00153089
0.00160734
0.00167688
0.00174013
0.00179963
0.00185611
0.00191167
0.00196712
0.00202382
0.00208235
0.00214343
0.00220771
0.00227537
0.00234681
0.00242133
0.00249882
0.0025777
0.00265542
0.00273697
0.00282175
0.00290891
0.00299563
0.0030802
0.00315907
0.00322897
0.00328574
0.0033181
0.00332941
0.00332227
0.00328206
0.00320458
0.00308928
0.00293453
0.00274296
0.00251937
0.00227145
0.00201087
0.00174614
0.00148486
0.00123255
0.0009917
0.000772381
0.000581461
0.000421436
0.000293552
0.000195812
0.00012492
7.51494e-05
3.63837e-05
4.85813e-06
5.54528e-06
4.63682e-05
0.000108093
0.000160216
0.000195791
0.000216749
0.000228204
0.000235924
0.000245767
0.000263512
0.000294882
0.00034466
0.000414626
0.000503071
0.00060605
0.000719384
0.000839848
0.000964825
0.00109178
0.00121855
0.00134347
0.00146577
0.00158348
0.00169168
0.00178548
0.00186095
0.00191531
0.00195296
0.00198158
0.00200812
0.00203705
0.00206775
0.0021013
0.00213446
0.00217129
0.00221064
0.00225444
0.0023025
0.00235587
0.00241459
0.00247853
0.00254822
0.00262327
0.00270366
0.00278942
0.00288041
0.00297564
0.00307673
0.00318331
0.00329414
0.00340803
0.00352298
0.00363682
0.00374636
0.0038479
0.00393681
0.00400789
0.00404983
0.00406395
0.00405074
0.00399381
0.00389223
0.0037414
0.00354288
0.00329895
0.00301606
0.00271108
0.00239295
0.00207203
0.00175895
0.00146278
0.00119036
0.000946858
0.000734699
0.000554976
0.000406899
0.000287192
0.000188334
9.55754e-05
1.29764e-05
9.64314e-06
7.81152e-05
0.000170523
0.000240379
0.000286141
0.000314394
0.000333301
0.000351113
0.000376
0.000415999
0.000478379
0.000567705
0.000683893
0.000822341
0.000976294
0.00113927
0.00130564
0.00146993
0.00162616
0.00176854
0.00189141
0.00199266
0.00206977
0.00211569
0.00213544
0.00214015
0.00213479
0.00213075
0.00212952
0.00213325
0.00214311
0.00215601
0.00217408
0.00219681
0.00222493
0.00225796
0.00229659
0.00234068
0.00239025
0.00244552
0.00250655
0.00257356
0.00264648
0.00272525
0.00280953
0.00289942
0.0029961
0.00309927
0.00320855
0.00332323
0.00344224
0.00356411
0.00368684
0.00380766
0.00392312
0.00402886
0.00411964
0.00418977
0.00422502
0.00423403
0.0042036
0.00412904
0.00400994
0.00384359
0.00362428
0.00335218
0.0030441
0.00271016
0.00236619
0.00202663
0.00170379
0.00140668
0.00114068
0.000907948
0.000708597
0.000541076
0.000401005
0.000278802
0.000151534
2.15668e-05
1.5489e-05
0.00012069
0.000244719
0.000331577
0.000387681
0.00042464
0.000453986
0.000486799
0.000533765
0.000604765
0.000707057
0.000842707
0.00100736
0.00119194
0.00138581
0.00157894
0.00176214
0.00192665
0.00206331
0.0021677
0.00222916
0.00225339
0.00225581
0.00222636
0.0021956
0.00216788
0.00214536
0.00212959
0.00212181
0.00211897
0.00211931
0.00212536
0.00213592
0.00215073
0.00216972
0.00219277
0.0022198
0.00225052
0.00228482
0.00232295
0.00236494
0.00241116
0.00246247
0.00251945
0.00258304
0.00265363
0.00273071
0.00281487
0.00290626
0.00300504
0.00311111
0.00322395
0.0033427
0.00346587
0.0035914
0.00371632
0.00383599
0.00394509
0.00403694
0.00409691
0.00412027
0.004108
0.00403715
0.0039115
0.0037371
0.00350821
0.00322003
0.0028913
0.00253926
0.00218263
0.00183885
0.00152162
0.00123906
0.000993969
0.000785631
0.000611016
0.000464293
0.000333343
0.000189347
2.74697e-05
2.38494e-05
0.000177384
0.000335062
0.000439752
0.000507631
0.000555594
0.000598945
0.000651874
0.000727294
0.000835419
0.000981019
0.00116115
0.00136561
0.00158012
0.00178974
0.00198066
0.00214087
0.00226295
0.0023296
0.00235203
0.0023411
0.00229646
0.00225204
0.00220816
0.00216708
0.00213118
0.0021016
0.00207777
0.00205877
0.00204336
0.00203052
0.00202295
0.00201889
0.00201742
0.00201747
0.00202125
0.00202713
0.00203582
0.00204724
0.00206189
0.00208001
0.00210219
0.00212824
0.00215876
0.00219424
0.00223522
0.00228238
0.00233674
0.00239928
0.00247106
0.00255322
0.00264656
0.00275172
0.00286874
0.0029967
0.00313375
0.00327792
0.00342443
0.00356812
0.00369936
0.00380954
0.00387301
0.00389355
0.00385908
0.00375736
0.00359418
0.00335187
0.00304668
0.00269595
0.00232307
0.00195281
0.00160677
0.00129952
0.00103699
0.000818271
0.00063827
0.000488727
0.000355046
0.000205922
2.96011e-05
3.54753e-05
0.000250148
0.000443908
0.000567768
0.000649134
0.000710579
0.000771426
0.000848728
0.000956362
0.00110253
0.00128692
0.00149995
0.00172525
0.00194379
0.00213757
0.00229138
0.00238595
0.00242193
0.00242195
0.00237371
0.00232099
0.00225802
0.00219707
0.00213541
0.00208101
0.00203382
0.00199269
0.00195589
0.00192298
0.00189432
0.00186975
0.00184798
0.00182852
0.00181115
0.00179592
0.00178322
0.00177265
0.00176462
0.00175938
0.00175699
0.00175641
0.00175901
0.00176486
0.00177415
0.00178739
0.0018049
0.00182745
0.00185575
0.00189106
0.00193466
0.00198828
0.00205405
0.00213421
0.00223117
0.00234673
0.00248019
0.0026338
0.00280458
0.0029872
0.00317486
0.00335981
0.00352708
0.00365464
0.003713
0.00372048
0.00364131
0.00349146
0.00323572
0.0029021
0.00251693
0.00211288
0.00172277
0.00137277
0.00107701
0.000836809
0.000645282
0.000489952
0.000353655
0.000204767
2.87342e-05
5.1068e-05
0.000340052
0.000571959
0.000716352
0.00081282
0.000889837
0.000970599
0.00107408
0.00121316
0.00139159
0.00160228
0.00182876
0.00204932
0.00224186
0.0023888
0.00246243
0.00248249
0.00245353
0.00239917
0.00232397
0.00224053
0.00215253
0.00207434
0.00200404
0.00194425
0.00188952
0.00183994
0.00179423
0.00175242
0.00171424
0.00167932
0.00164726
0.00161809
0.00159183
0.00156859
0.00154832
0.00153076
0.00151603
0.00150404
0.00149479
0.00148828
0.00148515
0.00148414
0.00148579
0.00149141
0.00150024
0.00151322
0.00153063
0.00155292
0.00158067
0.00161479
0.00165634
0.00170683
0.00176851
0.00184507
0.00194323
0.00206678
0.00222114
0.00240788
0.00261654
0.00284649
0.00308297
0.00330986
0.00350478
0.00361476
0.0036491
0.00360017
0.00345491
0.00317192
0.00279552
0.00236283
0.00191829
0.00150447
0.00115147
0.000870225
0.000654031
0.000486239
0.000345328
0.0001981
2.67068e-05
7.11285e-05
0.000446952
0.000718653
0.000884671
0.000997365
0.00109096
0.0011919
0.00131967
0.00148409
0.00168278
0.00190159
0.00211832
0.00230833
0.00244528
0.0025071
0.00251664
0.00247412
0.00240735
0.00231146
0.00220062
0.00209738
0.00200624
0.00192518
0.00185237
0.00178703
0.00172631
0.0016706
0.0016192
0.00157236
0.00152988
0.00149174
0.00145787
0.00142828
0.00140277
0.00138114
0.00136319
0.00134866
0.00133736
0.00132894
0.00132352
0.00132099
0.00132026
0.00132175
0.00132626
0.00133333
0.00134297
0.00135544
0.00137086
0.00138951
0.00141166
0.00143778
0.0014684
0.00150422
0.00154619
0.00159564
0.00165475
0.00172682
0.00181775
0.00193843
0.00210988
0.0023279
0.00258705
0.00286743
0.00315219
0.0034105
0.00357388
0.00363265
0.00361162
0.00346406
0.00314156
0.00271012
0.00222039
0.00173141
0.00129581
0.000944521
0.000681325
0.000488077
0.000333111
0.000184815
2.4446e-05
9.58653e-05
0.00056933
0.000882115
0.00107053
0.00119966
0.00130907
0.00142756
0.00157364
0.00175252
0.00195522
0.00216151
0.00234579
0.002476
0.00253117
0.00253585
0.00249063
0.00240643
0.00228684
0.0021596
0.00204419
0.00194062
0.00184894
0.00176628
0.00169115
0.00162256
0.00155957
0.00150267
0.00145167
0.00140681
0.00136791
0.00133485
0.00130732
0.00128492
0.00126717
0.00125355
0.00124353
0.00123658
0.00123282
0.00123126
0.00123104
0.00123334
0.00123719
0.00124293
0.00125046
0.00125975
0.00127086
0.00128396
0.0012992
0.0013168
0.00133704
0.00136008
0.00138618
0.00141566
0.00144891
0.00148636
0.00152859
0.00157691
0.00163383
0.00170397
0.00179592
0.00192355
0.00211571
0.00238388
0.0027002
0.00303772
0.00335885
0.00357652
0.00365814
0.00365444
0.00349278
0.00311877
0.00262201
0.00207085
0.00154051
0.00109136
0.00074945
0.000507042
0.00033007
0.000173322
2.26406e-05
0.000125633
0.000703599
0.00105929
0.0012704
0.00141492
0.00153725
0.0016677
0.00182258
0.00200191
0.00219076
0.00236487
0.00248981
0.00254172
0.00254434
0.0024988
0.00240036
0.0022638
0.00212534
0.00199622
0.00188211
0.0017802
0.00168909
0.00160653
0.00153188
0.00146479
0.00140528
0.00135368
0.0013098
0.00127346
0.00124408
0.00122105
0.00120355
0.00119079
0.00118194
0.00117649
0.0011739
0.00117307
0.00117368
0.00117633
0.00118008
0.00118536
0.00119181
0.00119967
0.00120889
0.0012196
0.00123194
0.00124606
0.0012621
0.00128021
0.00130051
0.00132311
0.00134811
0.00137564
0.00140583
0.00143895
0.00147531
0.00151466
0.00155769
0.00160569
0.00166183
0.00173342
0.00183386
0.00198627
0.0022326
0.00257456
0.00295415
0.00333936
0.00360725
0.00370838
0.00370856
0.00351598
0.00307688
0.00250722
0.00189666
0.0013359
0.000886746
0.000562538
0.00034178
0.000171246
2.2155e-05
0.000162009
0.000845072
0.00124655
0.00147965
0.001637
0.00176735
0.00190172
0.00205369
0.0022184
0.00237658
0.00249531
0.00254563
0.00254805
0.00250317
0.00239647
0.00224897
0.00209891
0.00195837
0.00183273
0.00172202
0.00162308
0.00153472
0.0014558
0.00138638
0.00132644
0.001276
0.0012348
0.0012021
0.00117703
0.00115847
0.0011453
0.00113645
0.00113113
0.0011286
0.00112775
0.0011279
0.00112977
0.00113252
0.00113638
0.00114112
0.00114696
0.00115389
0.00116211
0.00117175
0.00118299
0.00119602
0.00121103
0.00122819
0.00124767
0.00126958
0.001294
0.00132093
0.00135029
0.0013819
0.00141553
0.00145094
0.00148808
0.00152722
0.0015684
0.00161163
0.00165938
0.00171751
0.00179846
0.00192472
0.00213503
0.00248256
0.00290146
0.00334592
0.00365476
0.00376854
0.00375611
0.00350855
0.00298996
0.00234382
0.00168469
0.00111207
0.000678645
0.00038239
0.000179649
2.31005e-05
0.000202533
0.000994137
0.00143989
0.00169289
0.00185917
0.00199106
0.00211985
0.00225648
0.00239239
0.00250127
0.00254962
0.00255264
0.0025086
0.0023996
0.00224559
0.00208399
0.00193195
0.00179547
0.0016754
0.00156964
0.001476
0.00139395
0.00132312
0.00126357
0.00121495
0.00117658
0.00114735
0.00112587
0.00111071
0.00110046
0.00109389
0.00109012
0.00108833
0.00108768
0.00108761
0.00108852
0.00109022
0.00109257
0.00109573
0.00109977
0.00110488
0.00111122
0.00111901
0.00112842
0.00113968
0.001153
0.00116859
0.00118665
0.00120738
0.00123096
0.00125751
0.00128707
0.0013196
0.00135487
0.00139251
0.00143193
0.00147238
0.00151317
0.00155392
0.00159505
0.00163633
0.00167895
0.00172819
0.00179521
0.001903
0.00209265
0.00242589
0.00288075
0.00337664
0.00371082
0.00382534
0.00377763
0.00344551
0.00283225
0.00211525
0.00142793
0.000868475
0.000471426
0.000207796
2.6802e-05
0.000246019
0.00114717
0.00163443
0.00190435
0.00207475
0.00220087
0.00231421
0.00242381
0.00251684
0.00256044
0.00256344
0.00251905
0.00241202
0.00225482
0.00208357
0.00191921
0.00177151
0.00164185
0.00152881
0.00143029
0.00134512
0.00127312
0.00121387
0.00116678
0.00113067
0.001104
0.001085
0.0010719
0.00106313
0.00105737
0.0010536
0.00105111
0.00104938
0.00104809
0.00104736
0.0010471
0.00104723
0.0010482
0.00104998
0.00105286
0.00105696
0.00106251
0.0010697
0.00107872
0.0010898
0.00110312
0.00111892
0.00113743
0.00115886
0.00118346
0.00121143
0.00124296
0.00127811
0.00131684
0.00135888
0.00140369
0.00145037
0.00149769
0.00154421
0.00158869
0.00163085
0.00167127
0.00171077
0.00175317
0.00181094
0.0019074
0.00208438
0.002407
0.00289286
0.00343327
0.00376744
0.00386313
0.00375493
0.00329792
0.00258437
0.00181302
0.00112926
0.000615132
0.00026719
3.54058e-05
0.000291054
0.00130015
0.00182515
0.00210843
0.00227767
0.00239072
0.00247952
0.00255145
0.00258545
0.00258621
0.00253871
0.00243574
0.00227815
0.00209933
0.00192266
0.00176232
0.00162218
0.00150102
0.00139691
0.00130829
0.00123449
0.00117494
0.00112854
0.00109376
0.00106857
0.00105088
0.00103867
0.00103022
0.00102418
0.00101957
0.00101574
0.00101232
0.00100914
0.00100622
0.00100368
0.00100162
0.00100047
0.00100007
0.00100045
0.00100238
0.0010057
0.00101063
0.00101736
0.00102605
0.00103689
0.00105006
0.00106578
0.00108427
0.00110578
0.00113059
0.001159
0.00119128
0.0012277
0.00126843
0.00131348
0.00136262
0.00141519
0.00147007
0.00152549
0.00157921
0.00162888
0.00167303
0.00171163
0.00174679
0.00178642
0.00183825
0.00192903
0.0021001
0.00242478
0.00294028
0.00351732
0.00381121
0.00386876
0.00366654
0.0030438
0.00223505
0.00144337
0.000805277
0.000353938
4.87159e-05
0.000336226
0.00144917
0.00200741
0.00230017
0.00246285
0.00255632
0.00261121
0.00263368
0.00262616
0.00257256
0.00247328
0.00231709
0.00213279
0.00194437
0.00176998
0.00161741
0.0014867
0.00137566
0.00128248
0.00120591
0.00114496
0.00109822
0.00106367
0.00103893
0.00102157
0.00100936
0.00100047
0.000993524
0.000987587
0.000982092
0.000976768
0.000971547
0.000966504
0.000961798
0.000957621
0.000954162
0.000951697
0.000950511
0.000950189
0.000951361
0.000954289
0.000958877
0.00096535
0.000973817
0.000984439
0.00099738
0.00101283
0.001031
0.00105214
0.00107655
0.00110455
0.00113652
0.00117283
0.00121387
0.00125994
0.00131119
0.00136744
0.00142806
0.00149172
0.00155621
0.0016184
0.00167463
0.00172271
0.00176171
0.00178747
0.00182265
0.00187434
0.00196298
0.00213654
0.00248007
0.00303688
0.00360127
0.00384217
0.00383655
0.00344767
0.00266409
0.00179139
0.00103034
0.000461002
6.56077e-05
0.000380735
0.00158989
0.00217736
0.00247631
0.00262579
0.00268982
0.00270637
0.00268676
0.00262509
0.00252797
0.00237344
0.00218549
0.00198628
0.00179682
0.00162933
0.00148665
0.00136678
0.00126733
0.00118655
0.00112289
0.00107455
0.00103914
0.00101389
0.000996082
0.00098325
0.000973456
0.000965289
0.000957845
0.000950622
0.000943424
0.000936255
0.000929245
0.000922585
0.000916491
0.000911171
0.000906817
0.000903606
0.000901987
0.000901436
0.000902203
0.000904998
0.000909455
0.000915808
0.00092414
0.000934583
0.000947277
0.000962386
0.000980105
0.00100067
0.00102435
0.00105149
0.00108248
0.00111776
0.00115784
0.00120323
0.0012544
0.00131165
0.00137496
0.00144373
0.0015165
0.00159062
0.00166209
0.00172577
0.00177872
0.0018172
0.00183524
0.00186411
0.0019165
0.00200691
0.00219134
0.00256729
0.00317164
0.003687
0.00386331
0.00371134
0.00307176
0.00216003
0.00128173
0.000582268
8.50248e-05
0.000423568
0.00172099
0.002332
0.00262974
0.00275966
0.00279507
0.00277614
0.00270877
0.00260231
0.00244968
0.00225905
0.00205034
0.00184532
0.00166045
0.00150254
0.00137107
0.00126313
0.00117622
0.00110825
0.00105692
0.00101951
0.000992877
0.00097396
0.000960072
0.000949109
0.000939605
0.000930651
0.000921785
0.000912861
0.000903935
0.000895175
0.000886798
0.000879029
0.000872077
0.000866126
0.000861333
0.000857833
0.00085607
0.00085546
0.000856118
0.000858889
0.000863317
0.000869608
0.000877838
0.000888116
0.000900565
0.000915329
0.000932579
0.000952523
0.000975413
0.00100156
0.00103133
0.0010652
0.00110368
0.00114741
0.00119704
0.00125323
0.00131646
0.00138688
0.00146398
0.00154616
0.00163034
0.00171154
0.00178295
0.00184059
0.00187314
0.00188661
0.00190944
0.00196352
0.00206041
0.00226689
0.00270002
0.00334829
0.0037396
0.0038079
0.00343124
0.00253919
0.00155566
0.000713981
0.000106065
0.000463119
0.00183907
0.00246602
0.00275762
0.00286574
0.00287744
0.00281662
0.00270224
0.00255028
0.00235562
0.0021385
0.00191813
0.00171381
0.00153704
0.00139025
0.00127084
0.00117542
0.00110116
0.00104528
0.0010046
0.000975676
0.000955053
0.000939756
0.000927476
0.000916624
0.00090625
0.000895894
0.000885437
0.000874967
0.000864677
0.0008548
0.000845564
0.000837175
0.000829804
0.000823595
0.000818661
0.000815105
0.000813332
0.000812727
0.000813385
0.000816136
0.000820534
0.000826746
0.000834855
0.000844952
0.000857151
0.00087158
0.000888392
0.000907769
0.000929934
0.000955158
0.000983781
0.00101622
0.001053
0.00109473
0.00114217
0.00119614
0.00125748
0.0013269
0.00140474
0.00149056
0.00158261
0.00167728
0.00176853
0.00184778
0.00190599
0.00193074
0.00193996
0.00195767
0.0020152
0.00212458
0.00237152
0.00289197
0.00352278
0.00378283
0.00364952
0.0029067
0.00184797
0.000853444
0.000128007
0.000497936
0.00194114
0.00257733
0.00285988
0.00294893
0.00293415
0.00283195
0.00267757
0.00247873
0.00225292
0.00201786
0.00179291
0.00159376
0.00142717
0.00129231
0.00118533
0.00110237
0.00104002
0.00099464
0.000962372
0.000939388
0.000922333
0.000908611
0.000896442
0.000884771
0.0008731
0.000861308
0.000849497
0.000837873
0.000826679
0.000816144
0.000806465
0.000797804
0.000790289
0.000784019
0.000779075
0.000775524
0.000773751
0.000773147
0.000773774
0.000776444
0.000780747
0.000786819
0.000794749
0.000804624
0.000816551
0.00083065
0.000847059
0.000865941
0.00088749
0.000911943
0.000939593
0.000970809
0.00100605
0.00104591
0.0010911
0.0011425
0.00120111
0.001268
0.0013441
0.00142995
0.00152512
0.0016276
0.00173296
0.00183376
0.00191941
0.00197396
0.00198953
0.00199375
0.00200858
0.00207132
0.00220479
0.00252374
0.0031364
0.00362297
0.00372383
0.00324301
0.00215326
0.000995713
0.000150995
0.000527213
0.002026
0.00266547
0.00293727
0.00301067
0.00296632
0.00282554
0.00262978
0.00239656
0.00214712
0.00190128
0.00167701
0.00148589
0.0013306
0.00120799
0.00111327
0.00104208
0.000990201
0.000953317
0.00092715
0.000907896
0.000892565
0.000879092
0.000866242
0.000853426
0.000840484
0.000827512
0.000814723
0.000802363
0.000790659
0.000779804
0.000769948
0.000761206
0.000753666
0.000747393
0.000742445
0.000738872
0.000737029
0.000736383
0.000736878
0.000739376
0.000743494
0.000749346
0.000757027
0.000766624
0.000778244
0.000792002
0.000808027
0.00082647
0.000847502
0.000871331
0.000898209
0.000928451
0.000962457
0.00100074
0.00104395
0.00109293
0.00114871
0.00121248
0.00128557
0.00136917
0.001464
0.00156958
0.00168341
0.00179982
0.00190906
0.00199636
0.00203955
0.00204781
0.00204741
0.00206098
0.00213425
0.00231214
0.00274968
0.00340093
0.00368185
0.00347768
0.00246071
0.00114001
0.000174612
0.000550531
0.00209363
0.00273147
0.00299158
0.00305041
0.00297664
0.00280449
0.00257031
0.00230872
0.00204231
0.00179139
0.00157149
0.00139013
0.00124662
0.00113608
0.00105301
0.000992337
0.000949173
0.000918716
0.000896623
0.000879399
0.00086457
0.000850624
0.000836807
0.000822879
0.000808907
0.000795096
0.000781694
0.000768928
0.000756986
0.000746011
0.000736108
0.000727351
0.000719798
0.000713495
0.000708486
0.000704812
0.000702801
0.000702057
0.000702312
0.000704541
0.000708386
0.000713939
0.0007213
0.000730563
0.000741834
0.000755227
0.00077087
0.000788903
0.000809484
0.000832799
0.000859068
0.00088856
0.000921616
0.000958674
0.0010003
0.00104725
0.00110047
0.00116118
0.00123083
0.00131102
0.00140322
0.00150831
0.00162569
0.00175217
0.00188065
0.00199917
0.00207756
0.00210402
0.00210544
0.00209694
0.00211572
0.00221153
0.00246874
0.00305179
0.00352007
0.00357495
0.00277159
0.00130102
0.000201026
0.000567783
0.00214469
0.00277672
0.00302466
0.00307009
0.00297018
0.00276591
0.00250273
0.00221901
0.0019413
0.00168966
0.00147663
0.00130592
0.00117416
0.00107515
0.00100268
0.000951019
0.000914733
0.000888847
0.000869235
0.000852873
0.000837843
0.000823131
0.000808358
0.000793524
0.000778817
0.00076448
0.000750741
0.000737789
0.000725761
0.000714754
0.000704835
0.000696052
0.000688443
0.000682046
0.000676896
0.000673037
0.000670747
0.00066983
0.000669802
0.000671663
0.000675162
0.00068035
0.000687334
0.000696212
0.000707091
0.00072009
0.000735334
0.000752962
0.000773123
0.00079599
0.000821758
0.000850664
0.000882999
0.000919135
0.000959556
0.00100491
0.00105604
0.00111408
0.00118046
0.00125692
0.00134539
0.00144762
0.00156449
0.00169486
0.00183404
0.00197209
0.00209273
0.00215716
0.0021694
0.00215436
0.00213852
0.00217736
0.00231631
0.00273153
0.00335679
0.00358656
0.00307332
0.00150312
0.000235432
0.000579248
0.00218015
0.00280222
0.00303681
0.00306947
0.0029505
0.00271784
0.00243065
0.00213028
0.00184596
0.00159679
0.00139216
0.0012324
0.00111199
0.00102366
0.00096051
0.000916251
0.000885154
0.00086233
0.00084405
0.00082783
0.000812269
0.000796758
0.000781186
0.000765694
0.000750517
0.000735886
0.000721991
0.00070897
0.000696917
0.000685891
0.000675933
0.000667077
0.000659352
0.000652792
0.000647436
0.000643329
0.000640651
0.000639437
0.000639198
0.000640593
0.000643692
0.000648468
0.00065503
0.00066348
0.000673931
0.000686502
0.000701322
0.000718529
0.000738272
0.000760714
0.000786039
0.000814459
0.000846229
0.000881669
0.000921189
0.000965336
0.00101485
0.00107072
0.00113428
0.00120726
0.00129176
0.00139012
0.00150437
0.00163536
0.00178116
0.00193509
0.00208387
0.00219078
0.00223029
0.00223086
0.00219158
0.00217564
0.00224542
0.00248898
0.00308144
0.00346667
0.00330248
0.00175843
0.000281707
0.00058495
0.00220036
0.00280912
0.00303352
0.0030582
0.00291632
0.00266275
0.00235681
0.0020446
0.00175737
0.00151291
0.0013175
0.00116856
0.00105882
0.000980102
0.000924896
0.00088652
0.000859183
0.000838279
0.000820572
0.000804105
0.000787918
0.000771708
0.000755534
0.000739606
0.000724157
0.000709383
0.000695428
0.000682383
0.000670308
0.000659237
0.000649196
0.000640212
0.000632312
0.000625531
0.000619914
0.000615513
0.000612395
0.000610842
0.000610379
0.000611278
0.000613941
0.000618277
0.000624388
0.000632381
0.00064237
0.000654481
0.000668845
0.000685604
0.000704907
0.000726917
0.000751812
0.000779791
0.000811086
0.000845976
0.000884814
0.000928065
0.000976354
0.00103054
0.00109181
0.00116177
0.0012425
0.00133656
0.00144668
0.00157507
0.00172202
0.00188377
0.00205009
0.0022022
0.00228575
0.00230196
0.00227242
0.00222648
0.00222485
0.00235987
0.00281275
0.00333531
0.00340808
0.00206187
0.000339223
0.000584603
0.00220806
0.00280431
0.00301917
0.00303237
0.00287336
0.00260328
0.00228338
0.0019634
0.00167611
0.00143781
0.00125191
0.00111335
0.00101341
0.000943125
0.000894515
0.000860682
0.000835968
0.000816174
0.000798578
0.000781694
0.000764915
0.000748151
0.000731558
0.000715363
0.000699771
0.000684936
0.000670956
0.000657889
0.000645767
0.000634612
0.000624442
0.000615282
0.000607163
0.000600122
0.000594207
0.000589472
0.000585975
0.000584021
0.000583317
0.000583729
0.000585938
0.00058982
0.000595466
0.000602982
0.000612487
0.000624109
0.000637984
0.000654258
0.000673087
0.000694636
0.000719083
0.000746623
0.000777475
0.000811893
0.000850189
0.00089276
0.000940139
0.00099306
0.00105255
0.00112005
0.00119751
0.00128753
0.00139322
0.00151777
0.00166342
0.00182937
0.00200903
0.00218725
0.00231968
0.00236746
0.00236176
0.0022839
0.00224268
0.00229639
0.00258025
0.00319124
0.00343118
0.00240099
0.000405581
0.000581464
0.00220612
0.00278852
0.0029898
0.00299432
0.00282353
0.00254151
0.00221195
0.0018876
0.00160234
0.00137106
0.00119457
0.00106572
0.000974591
0.00091157
0.00086832
0.00083791
0.000814959
0.000795732
0.000777992
0.000760653
0.000743372
0.000726197
0.000709328
0.000692978
0.000677316
0.000662453
0.00064845
0.00063534
0.000623139
0.000611863
0.00060153
0.000592165
0.000583803
0.000576487
0.000570268
0.000565202
0.00056135
0.000558972
0.000558008
0.000557995
0.000559744
0.000563172
0.000568348
0.000575378
0.000584382
0.00059549
0.000608845
0.000624598
0.00064291
0.000663955
0.000687915
0.000714988
0.000745389
0.00077936
0.000817183
0.000859211
0.000905898
0.000957871
0.00101601
0.00108156
0.00115631
0.0012427
0.00134394
0.00146377
0.00160574
0.00177147
0.00195771
0.00215247
0.00233176
0.00242631
0.00244214
0.00238669
0.00229258
0.00227711
0.0024334
0.00296901
0.00334249
0.00273288
0.00047289
0.000574519
0.0021976
0.00275912
0.00295039
0.00294774
0.00276887
0.00247907
0.00214366
0.00181772
0.001536
0.0013121
0.00114464
0.00102471
0.000941365
0.000884481
0.00084551
0.000817629
0.000795818
0.000776811
0.000758807
0.000741042
0.00072336
0.000705891
0.000688845
0.000672407
0.000656707
0.000641819
0.000627778
0.0006146
0.000602293
0.000590872
0.000580356
0.000570775
0.000562169
0.000554586
0.000548079
0.000542709
0.000538543
0.000535731
0.000534419
0.000534149
0.000535425
0.000538406
0.000543118
0.000549661
0.000558155
0.000568732
0.000581539
0.000596734
0.000614486
0.000634977
0.000658399
0.000684957
0.000714871
0.000748378
0.000785749
0.000827303
0.00087344
0.000924695
0.000981817
0.00104589
0.00111847
0.00120182
0.00129904
0.00141413
0.00155156
0.00171501
0.00190469
0.00211338
0.00232196
0.00246882
0.0025141
0.00248886
0.00236044
0.00229263
0.00236052
0.00277084
0.00321388
0.00298858
0.000525565
0.000563725
0.00217962
0.00272109
0.00290364
0.00289458
0.00271105
0.00241727
0.00207932
0.00175401
0.00147682
0.00126033
0.00110133
0.000989432
0.000912867
0.000861095
0.000825493
0.000799445
0.000778336
0.000759342
0.000741034
0.000722896
0.000704903
0.000687227
0.000670065
0.000653573
0.000637843
0.00062292
0.000608823
0.000595556
0.000583126
0.000571549
0.000560848
0.000551058
0.000542223
0.000534393
0.000527625
0.00052198
0.000517525
0.000514332
0.000512681
0.000512187
0.000513029
0.000515582
0.000519843
0.000525905
0.000533886
0.000543921
0.000556159
0.000570764
0.000587915
0.000607802
0.00063063
0.000656615
0.000685987
0.000718989
0.00075589
0.000796989
0.00084265
0.000893339
0.000949698
0.00101265
0.00108355
0.00116441
0.00125813
0.00136868
0.00150097
0.00166005
0.00184875
0.00206367
0.00228988
0.00248815
0.0025781
0.00258275
0.00247197
0.00233872
0.00232765
0.00260115
0.00309402
0.00310845
0.000549188
0.000549675
0.00215501
0.00267633
0.00285094
0.00283679
0.00265152
0.00235706
0.00201942
0.00169651
0.00142446
0.00121514
0.00106389
0.000959126
0.000888376
0.000840812
0.00080783
0.000783092
0.000762385
0.000743287
0.000724677
0.000706225
0.000687991
0.000670164
0.000652921
0.000636385
0.00062062
0.000605651
0.000591481
0.000578114
0.000565556
0.000553826
0.000542951
0.000532972
0.000523933
0.000515888
0.000508893
0.000503007
0.000498292
0.000494809
0.000492828
0.000492124
0.000492581
0.000494731
0.000498561
0.000504154
0.000511626
0.000521113
0.000532768
0.000546759
0.000563272
0.00058251
0.000604689
0.000630041
0.000658808
0.000691248
0.000727633
0.000768262
0.000813474
0.000863687
0.000919455
0.000981568
0.00105119
0.00113009
0.0012209
0.00132742
0.00145475
0.00160888
0.00179496
0.00201356
0.00225473
0.00249151
0.0026352
0.00266671
0.00258906
0.0023968
0.00232092
0.00245916
0.00298783
0.00314179
0.000553049
0.000533162
0.00212587
0.00262654
0.00279376
0.00277593
0.00259144
0.00229917
0.00196424
0.00164511
0.00137852
0.00117595
0.00103167
0.000933127
0.000867303
0.000823164
0.000792202
0.000768382
0.000747879
0.000728618
0.000709724
0.000691009
0.000672585
0.000654641
0.000637332
0.000620753
0.000604945
0.000589917
0.000575669
0.000562199
0.000549519
0.00053765
0.000526624
0.000516483
0.000507275
0.000499053
0.000491871
0.000485786
0.000480855
0.000477135
0.000474851
0.000473948
0.00047408
0.000475858
0.000479277
0.000484417
0.000491391
0.000500332
0.000511396
0.000524756
0.000540604
0.000559154
0.000580635
0.000605295
0.000633394
0.000665207
0.000701019
0.000741136
0.000785889
0.000835666
0.000890956
0.000952438
0.00102111
0.00109849
0.00118694
0.00128996
0.00141258
0.00156123
0.00174267
0.00196075
0.00221058
0.00247159
0.00267379
0.00274108
0.002703
0.00250297
0.00235418
0.0023909
0.00282537
0.00311354
0.000541988
0.000514864
0.00209395
0.00257331
0.00273351
0.00271333
0.00253174
0.00224409
0.00191389
0.00159962
0.00133858
0.00114219
0.00100406
0.000910871
0.000849166
0.000807786
0.000778366
0.00075518
0.00073475
0.000715299
0.000696149
0.00067721
0.000658629
0.000640587
0.000623217
0.00060659
0.000590731
0.00057564
0.000561312
0.000547747
0.00053496
0.000522974
0.000511825
0.000501557
0.000492218
0.00048386
0.000476534
0.000470294
0.000465193
0.000461285
0.000458725
0.000457602
0.0004575
0.000458932
0.000461965
0.000466672
0.000473161
0.000481565
0.000492038
0.000504757
0.000519923
0.000537755
0.000558499
0.000582416
0.000609787
0.000640907
0.000676083
0.000715632
0.000759893
0.000809238
0.000864113
0.000925107
0.000993074
0.00106932
0.00115591
0.00125603
0.00137447
0.00151783
0.00169397
0.00190943
0.0021636
0.00244019
0.00269188
0.0028071
0.0028057
0.00262348
0.00239707
0.0023637
0.00268628
0.00304615
0.000524015
0.000495367
0.00205998
0.00251784
0.00267141
0.00265006
0.00247315
0.00219214
0.00186837
0.00155975
0.00130421
0.0011134
0.000980558
0.000891887
0.000833574
0.000794394
0.00076614
0.000743378
0.000722941
0.000703293
0.000683911
0.00066478
0.000646062
0.00062793
0.000610497
0.000593818
0.000577904
0.000562749
0.000548348
0.000534702
0.000521828
0.000509753
0.000498513
0.000488154
0.000478723
0.000470269
0.00046284
0.000456487
0.000451257
0.000447201
0.000444403
0.000443052