/*--------------------------------*- C++ -*----------------------------------*\
  =========                 |
  \\      /  F ield         | OpenFOAM: The Open Source CFD Toolbox
   \\    /   O peration     | Website:  https://openfoam.org
    \\  /    A nd           | Version:  13
     \\/     M anipulation  |
\*---------------------------------------------------------------------------*/
FoamFile
{
    format      ascii;
    class       volScalarField;
    location    "6.7";
    object      nut;
}
// * * * * * * * * * * * * * * * * * * * * * * * * * * * * * * * * * * * * * //

dimensions      [0 2 -1 0 0 0 0];

internalField   nonuniform List<scalar> 
6400
(
9.19181e-10
4.7225e-09
1.14657e-08
1.84943e-08
2.38155e-08
2.68142e-08
2.79075e-08
2.80095e-08
2.81638e-08
2.9188e-08
3.17023e-08
3.667e-08
4.4562e-08
5.55446e-08
6.90701e-08
8.43905e-08
1.0073e-07
1.17735e-07
1.34663e-07
1.51044e-07
1.67427e-07
1.85188e-07
2.06201e-07
2.31712e-07
2.60842e-07
2.90576e-07
3.20061e-07
3.49271e-07
3.79069e-07
4.10299e-07
4.42632e-07
4.74886e-07
5.06547e-07
5.37616e-07
5.68966e-07
6.00761e-07
6.33711e-07
6.68024e-07
7.04151e-07
7.42221e-07
7.8251e-07
8.25322e-07
8.70913e-07
9.1993e-07
9.72592e-07
1.03063e-06
1.09709e-06
1.17883e-06
1.26462e-06
1.35101e-06
1.43642e-06
1.51952e-06
1.59797e-06
1.6695e-06
1.73154e-06
1.78101e-06
1.80789e-06
1.8188e-06
1.81911e-06
1.7872e-06
1.72851e-06
1.64277e-06
1.53112e-06
1.39714e-06
1.2447e-06
1.08067e-06
9.13327e-07
7.49445e-07
5.95186e-07
4.56938e-07
3.45045e-07
2.51116e-07
1.75195e-07
1.17034e-07
7.51607e-08
4.66398e-08
2.80436e-08
1.60745e-08
7.58864e-09
1.61501e-09
4.45075e-09
3.16172e-07
1.13869e-06
1.92587e-06
2.51076e-06
2.85623e-06
3.01533e-06
3.07139e-06
3.10837e-06
3.18518e-06
3.37585e-06
3.74842e-06
4.27305e-06
4.88578e-06
5.524e-06
6.12413e-06
6.64158e-06
7.03065e-06
7.27532e-06
7.38872e-06
7.4449e-06
7.51355e-06
7.6605e-06
7.91798e-06
8.23266e-06
8.45844e-06
8.66186e-06
8.88998e-06
9.18833e-06
9.59557e-06
1.01254e-05
1.07069e-05
1.13392e-05
1.19884e-05
1.26758e-05
1.33855e-05
1.41278e-05
1.48966e-05
1.56985e-05
1.65302e-05
1.73861e-05
1.82707e-05
1.91749e-05
2.01359e-05
2.11162e-05
2.209e-05
2.30225e-05
2.38725e-05
2.47189e-05
2.5595e-05
2.64742e-05
2.73513e-05
2.82075e-05
2.90239e-05
2.97776e-05
3.05115e-05
3.10015e-05
3.1295e-05
3.15237e-05
3.15289e-05
3.121e-05
3.05821e-05
2.96325e-05
2.83358e-05
2.67023e-05
2.47735e-05
2.26511e-05
2.03596e-05
1.79286e-05
1.53227e-05
1.24427e-05
9.6517e-06
7.18539e-06
5.14519e-06
3.56437e-06
2.41944e-06
1.6141e-06
1.04053e-06
4.69724e-07
8.53971e-09
9.74834e-09
8.21612e-07
3.3345e-06
5.81552e-06
7.72323e-06
8.96601e-06
9.66664e-06
1.0021e-05
1.02375e-05
1.0494e-05
1.09143e-05
1.15809e-05
1.24679e-05
1.34765e-05
1.44798e-05
1.53629e-05
1.60766e-05
1.65968e-05
1.69223e-05
1.70682e-05
1.70559e-05
1.69737e-05
1.6903e-05
1.68846e-05
1.69532e-05
1.71916e-05
1.75102e-05
1.78258e-05
1.81644e-05
1.85236e-05
1.89787e-05
1.96155e-05
2.05756e-05
2.15475e-05
2.26578e-05
2.38226e-05
2.50689e-05
2.63423e-05
2.76635e-05
2.90724e-05
3.0457e-05
3.18726e-05
3.32828e-05
3.4615e-05
3.58925e-05
3.71371e-05
3.83423e-05
3.95578e-05
4.07783e-05
4.20045e-05
4.32219e-05
4.4423e-05
4.55909e-05
4.6707e-05
4.77456e-05
4.86745e-05
4.94642e-05
5.00427e-05
5.03078e-05
5.0505e-05
5.0371e-05
4.99202e-05
4.9127e-05
4.78516e-05
4.60306e-05
4.36484e-05
4.09138e-05
3.78176e-05
3.43712e-05
3.06179e-05
2.66024e-05
2.24614e-05
1.83925e-05
1.45979e-05
1.12558e-05
8.42861e-06
6.18015e-06
4.24752e-06
1.76551e-06
2.28103e-08
1.69522e-08
1.34852e-06
5.24496e-06
8.99407e-06
1.19036e-05
1.39069e-05
1.51534e-05
1.58609e-05
1.62915e-05
1.66601e-05
1.71648e-05
1.79279e-05
1.89278e-05
2.00233e-05
2.10504e-05
2.1896e-05
2.24986e-05
2.28549e-05
2.29936e-05
2.2972e-05
2.2855e-05
2.27498e-05
2.2724e-05
2.28165e-05
2.28671e-05
2.28765e-05
2.28116e-05
2.31592e-05
2.38511e-05
2.47789e-05
2.60403e-05
2.7233e-05
2.84171e-05
2.96744e-05
3.0973e-05
3.22552e-05
3.35364e-05
3.48764e-05
3.61677e-05
3.74344e-05
3.86626e-05
3.98688e-05
4.10345e-05
4.21574e-05
4.32388e-05
4.42845e-05
4.53328e-05
4.63825e-05
4.74302e-05
4.84724e-05
4.95004e-05
5.05058e-05
5.14755e-05
5.23936e-05
5.32401e-05
5.39916e-05
5.4621e-05
5.51195e-05
5.53939e-05
5.54807e-05
5.5358e-05
5.49158e-05
5.41328e-05
5.33615e-05
5.21345e-05
5.02589e-05
4.79302e-05
4.51009e-05
4.18547e-05
3.82434e-05
3.43086e-05
3.0113e-05
2.57611e-05
2.14147e-05
1.72759e-05
1.35169e-05
1.02451e-05
7.16943e-06
2.96407e-06
3.79107e-08
2.72289e-08
2.02705e-06
7.29895e-06
1.21315e-05
1.57494e-05
1.81919e-05
1.96917e-05
2.05293e-05
2.1014e-05
2.14608e-05
2.21223e-05
2.30839e-05
2.42424e-05
2.53989e-05
2.63745e-05
2.70693e-05
2.74624e-05
2.75928e-05
2.75138e-05
2.73455e-05
2.70877e-05
2.69109e-05
2.67509e-05
2.61223e-05
2.60157e-05
2.64745e-05
2.73996e-05
2.85051e-05
2.96537e-05
3.09335e-05
3.21823e-05
3.33988e-05
3.45961e-05
3.57632e-05
3.68536e-05
3.78634e-05
3.88713e-05
3.98313e-05
4.06517e-05
4.1425e-05
4.21167e-05
4.27555e-05
4.33612e-05
4.39554e-05
4.45634e-05
4.51918e-05
4.58148e-05
4.64464e-05
4.70867e-05
4.77401e-05
4.84085e-05
4.90924e-05
4.97903e-05
5.04979e-05
5.12081e-05
5.19099e-05
5.25869e-05
5.32108e-05
5.37465e-05
5.41436e-05
5.43097e-05
5.42624e-05
5.38016e-05
5.27362e-05
5.19229e-05
5.08385e-05
4.90627e-05
4.67822e-05
4.40676e-05
4.09758e-05
3.75414e-05
3.37865e-05
2.97431e-05
2.54949e-05
2.12415e-05
1.71582e-05
1.33213e-05
9.3525e-06
3.79781e-06
4.8287e-08
4.1926e-08
2.94244e-06
9.72931e-06
1.55698e-05
1.96925e-05
2.23214e-05
2.38355e-05
2.46372e-05
2.51425e-05
2.57233e-05
2.65896e-05
2.77219e-05
2.8935e-05
3.00094e-05
3.07889e-05
3.12102e-05
3.12909e-05
3.11585e-05
3.07421e-05
3.04164e-05
2.99209e-05
2.90042e-05
2.8824e-05
2.94723e-05
3.04047e-05
3.1407e-05
3.25431e-05
3.36765e-05
3.47713e-05
3.58225e-05
3.67259e-05
3.7597e-05
3.83974e-05
3.9093e-05
3.96495e-05
4.01493e-05
4.05476e-05
4.09379e-05
4.12393e-05
4.14963e-05
4.17262e-05
4.19434e-05
4.21397e-05
4.23246e-05
4.25044e-05
4.26784e-05
4.28514e-05
4.30324e-05
4.32303e-05
4.34548e-05
4.37182e-05
4.40325e-05
4.44101e-05
4.48619e-05
4.5391e-05
4.59862e-05
4.6664e-05
4.73983e-05
4.81617e-05
4.88967e-05
4.95801e-05
5.00878e-05
5.02872e-05
5.02231e-05
4.9362e-05
4.89201e-05
4.77477e-05
4.60168e-05
4.37916e-05
4.11701e-05
3.82205e-05
3.49737e-05
3.14154e-05
2.7511e-05
2.33962e-05
1.92142e-05
1.50998e-05
1.06302e-05
4.19417e-06
5.20339e-08
6.23637e-08
4.13913e-06
1.25705e-05
1.93107e-05
2.37479e-05
2.63739e-05
2.77614e-05
2.84686e-05
2.9005e-05
2.97269e-05
3.07382e-05
3.1913e-05
3.30227e-05
3.3866e-05
3.43379e-05
3.44295e-05
3.39657e-05
3.35068e-05
3.30851e-05
3.18954e-05
3.153e-05
3.19428e-05
3.2777e-05
3.34988e-05
3.43744e-05
3.52479e-05
3.61269e-05
3.68955e-05
3.75726e-05
3.81779e-05
3.87096e-05
3.915e-05
3.94942e-05
3.97471e-05
3.99242e-05
4.00529e-05
4.013e-05
4.018e-05
4.01736e-05
4.01634e-05
4.01507e-05
4.00882e-05
4.00287e-05
3.9942e-05
3.98549e-05
3.97475e-05
3.96351e-05
3.95118e-05
3.93901e-05
3.92732e-05
3.91742e-05
3.91105e-05
3.91073e-05
3.92025e-05
3.94533e-05
3.97955e-05
4.03232e-05
4.1043e-05
4.19297e-05
4.28912e-05
4.39595e-05
4.49894e-05
4.59523e-05
4.64646e-05
4.6598e-05
4.60473e-05
4.59164e-05
4.47431e-05
4.29153e-05
4.05882e-05
3.78902e-05
3.49309e-05
3.17534e-05
2.82875e-05
2.43998e-05
2.03668e-05
1.60097e-05
1.09286e-05
4.18298e-06
5.051e-08
8.97745e-08
5.63764e-06
1.57546e-05
2.32495e-05
2.7823e-05
3.03165e-05
3.15141e-05
3.21214e-05
3.26877e-05
3.34927e-05
3.45226e-05
3.55773e-05
3.64202e-05
3.68835e-05
3.69375e-05
3.641e-05
3.59399e-05
3.49326e-05
3.4166e-05
3.4056e-05
3.45566e-05
3.49329e-05
3.55304e-05
3.61265e-05
3.68556e-05
3.74698e-05
3.80227e-05
3.84515e-05
3.87993e-05
3.90627e-05
3.92504e-05
3.93672e-05
3.94268e-05
3.94438e-05
3.94326e-05
3.94027e-05
3.93546e-05
3.92947e-05
3.92207e-05
3.91449e-05
3.90202e-05
3.89358e-05
3.88628e-05
3.86784e-05
3.85518e-05
3.83794e-05
3.82089e-05
3.80186e-05
3.7814e-05
3.759e-05
3.73484e-05
3.7086e-05
3.68002e-05
3.64873e-05
3.61384e-05
3.59418e-05
3.5893e-05
3.61281e-05
3.68108e-05
3.76147e-05
3.87617e-05
4.00857e-05
4.14515e-05
4.27569e-05
4.36299e-05
4.38959e-05
4.3646e-05
4.36803e-05
4.23303e-05
4.02788e-05
3.768e-05
3.4724e-05
3.15953e-05
2.83711e-05
2.48544e-05
2.0846e-05
1.64973e-05
1.10918e-05
4.07361e-06
4.69462e-08
1.25039e-07
7.4227e-06
1.91925e-05
2.72316e-05
3.18234e-05
3.41109e-05
3.50981e-05
3.56033e-05
3.61598e-05
3.69454e-05
3.78519e-05
3.86471e-05
3.91227e-05
3.90249e-05
3.85369e-05
3.80342e-05
3.67271e-05
3.61933e-05
3.62063e-05
3.6236e-05
3.64779e-05
3.68931e-05
3.73867e-05
3.78468e-05
3.82942e-05
3.86105e-05
3.88577e-05
3.90098e-05
3.91109e-05
3.9161e-05
3.91813e-05
3.91814e-05
3.91749e-05
3.9168e-05
3.91637e-05
3.91619e-05
3.91602e-05
3.91566e-05
3.91443e-05
3.91071e-05
3.90794e-05
3.90591e-05
3.89704e-05
3.88857e-05
3.87887e-05
3.86631e-05
3.85212e-05
3.83538e-05
3.81626e-05
3.79405e-05
3.76871e-05
3.73968e-05
3.70629e-05
3.66792e-05
3.62329e-05
3.57249e-05
3.51532e-05
3.45351e-05
3.38979e-05
3.39664e-05
3.455e-05
3.56879e-05
3.71134e-05
3.87602e-05
4.03893e-05
4.15196e-05
4.18821e-05
4.18688e-05
4.19867e-05
4.04304e-05
3.80578e-05
3.50567e-05
3.17099e-05
2.82912e-05
2.4853e-05
2.10497e-05
1.65416e-05
1.08443e-05
3.78687e-06
4.29721e-08
1.68524e-07
9.42152e-06
2.27186e-05
3.11727e-05
3.56891e-05
3.77294e-05
3.84952e-05
3.88736e-05
3.93457e-05
3.99926e-05
4.06455e-05
4.10752e-05
4.08679e-05
4.0326e-05
3.97555e-05
3.86372e-05
3.8058e-05
3.77969e-05
3.75235e-05
3.76576e-05
3.7892e-05
3.821e-05
3.85118e-05
3.87515e-05
3.89328e-05
3.90249e-05
3.90824e-05
3.91029e-05
3.91231e-05
3.91453e-05
3.91856e-05
3.92445e-05
3.93235e-05
3.94176e-05
3.95205e-05
3.96232e-05
3.97165e-05
3.98086e-05
3.98632e-05
3.98906e-05
3.99337e-05
3.99156e-05
3.98778e-05
3.98157e-05
3.9727e-05
3.96121e-05
3.94746e-05
3.93146e-05
3.91354e-05
3.89383e-05
3.87157e-05
3.84601e-05
3.81608e-05
3.78008e-05
3.73711e-05
3.68475e-05
3.62125e-05
3.54544e-05
3.45862e-05
3.3687e-05
3.27939e-05
3.25222e-05
3.33679e-05
3.48095e-05
3.66489e-05
3.85234e-05
3.99479e-05
4.04254e-05
4.05423e-05
4.06135e-05
3.88073e-05
3.60289e-05
3.25386e-05
2.8724e-05
2.49184e-05
2.10378e-05
1.65187e-05
1.06217e-05
3.5329e-06
3.97985e-08
2.20853e-07
1.14746e-05
2.61902e-05
3.49866e-05
3.93738e-05
4.11434e-05
4.16691e-05
4.18708e-05
4.21655e-05
4.25575e-05
4.28501e-05
4.25525e-05
4.19201e-05
4.12755e-05
4.03255e-05
3.96097e-05
3.90149e-05
3.86713e-05
3.85338e-05
3.86483e-05
3.87813e-05
3.89365e-05
3.90414e-05
3.90999e-05
3.9126e-05
3.91316e-05
3.91566e-05
3.92045e-05
3.92948e-05
3.94215e-05
3.95853e-05
3.97743e-05
3.99797e-05
4.0188e-05
4.04019e-05
4.06106e-05
4.07435e-05
4.08538e-05
4.10123e-05
4.10716e-05
4.11298e-05
4.11353e-05
4.11177e-05
4.10641e-05
4.09797e-05
4.08639e-05
4.07189e-05
4.0545e-05
4.03433e-05
4.01141e-05
3.98573e-05
3.95733e-05
3.9262e-05
3.89227e-05
3.85528e-05
3.8139e-05
3.76191e-05
3.69494e-05
3.6103e-05
3.50769e-05
3.39119e-05
3.27284e-05
3.16685e-05
3.1636e-05
3.30513e-05
3.48535e-05
3.70016e-05
3.86786e-05
3.92644e-05
3.9395e-05
3.93507e-05
3.72136e-05
3.39516e-05
2.99302e-05
2.56023e-05
2.12977e-05
1.65457e-05
1.06149e-05
3.48582e-06
3.89445e-08
2.84799e-07
1.33641e-05
2.95108e-05
3.86125e-05
4.28405e-05
4.43207e-05
4.45741e-05
4.45324e-05
4.45528e-05
4.45878e-05
4.41815e-05
4.34362e-05
4.27352e-05
4.18507e-05
4.10458e-05
4.01126e-05
3.96068e-05
3.93104e-05
3.92036e-05
3.92215e-05
3.9226e-05
3.92372e-05
3.92207e-05
3.92096e-05
3.92225e-05
3.92796e-05
3.93981e-05
3.95729e-05
3.98025e-05
4.00703e-05
4.03649e-05
4.06694e-05
4.09851e-05
4.13036e-05
4.15803e-05
4.1763e-05
4.19692e-05
4.21798e-05
4.23264e-05
4.24291e-05
4.25037e-05
4.25348e-05
4.25335e-05
4.24937e-05
4.24189e-05
4.23086e-05
4.21643e-05
4.19865e-05
4.17761e-05
4.15334e-05
4.12584e-05
4.09504e-05
4.06076e-05
4.02274e-05
3.98068e-05
3.9343e-05
3.88349e-05
3.82787e-05
3.76192e-05
3.67518e-05
3.56279e-05
3.43074e-05
3.28717e-05
3.1536e-05
3.05557e-05
3.15666e-05
3.33624e-05
3.57082e-05
3.75541e-05
3.82036e-05
3.82673e-05
3.80022e-05
3.54175e-05
3.16248e-05
2.70593e-05
2.21605e-05
1.70347e-05
1.08991e-05
3.64797e-06
4.06064e-08
3.56036e-07
1.52379e-05
3.26706e-05
4.2017e-05
4.60595e-05
4.72287e-05
4.71664e-05
4.68074e-05
4.64625e-05
4.58792e-05
4.49875e-05
4.42462e-05
4.33369e-05
4.24127e-05
4.12369e-05
4.04477e-05
3.99901e-05
3.9703e-05
3.95574e-05
3.94701e-05
3.93854e-05
3.9333e-05
3.93079e-05
3.93471e-05
3.9459e-05
3.96509e-05
3.99166e-05
4.02397e-05
4.06048e-05
4.0992e-05
4.1387e-05
4.17859e-05
4.21767e-05
4.25299e-05
4.2824e-05
4.31017e-05
4.33401e-05
4.35636e-05
4.37602e-05
4.38964e-05
4.39987e-05
4.40594e-05
4.40812e-05
4.40618e-05
4.40023e-05
4.39023e-05
4.37628e-05
4.35845e-05
4.33683e-05
4.31153e-05
4.28263e-05
4.25011e-05
4.21384e-05
4.17351e-05
4.1286e-05
4.07843e-05
4.02227e-05
3.95967e-05
3.89085e-05
3.81623e-05
3.72655e-05
3.60983e-05
3.4652e-05
3.30218e-05
3.13965e-05
3.01193e-05
3.03407e-05
3.21416e-05
3.45732e-05
3.64914e-05
3.71263e-05
3.70297e-05
3.63606e-05
3.32315e-05
2.89041e-05
2.37334e-05
1.81394e-05
1.17629e-05
4.13464e-06
4.71124e-08
4.32479e-07
1.70588e-05
3.56266e-05
4.51675e-05
4.90054e-05
4.98405e-05
4.94143e-05
4.8664e-05
4.77884e-05
4.66834e-05
4.58934e-05
4.4801e-05
4.37499e-05
4.24003e-05
4.13284e-05
4.063e-05
4.01835e-05
3.98776e-05
3.96813e-05
3.95371e-05
3.94423e-05
3.94252e-05
3.94909e-05
3.96594e-05
3.99214e-05
4.02666e-05
4.06742e-05
4.11226e-05
4.15933e-05
4.20693e-05
4.25389e-05
4.29926e-05
4.3419e-05
4.38094e-05
4.41783e-05
4.45155e-05
4.48059e-05
4.50476e-05
4.52605e-05
4.54799e-05
4.56134e-05
4.57128e-05
4.57663e-05
4.57732e-05
4.57331e-05
4.56449e-05
4.5509e-05
4.53261e-05
4.50975e-05
4.48253e-05
4.45119e-05
4.41596e-05
4.377e-05
4.33426e-05
4.28742e-05
4.23576e-05
4.1781e-05
4.11296e-05
4.03893e-05
3.9555e-05
3.86411e-05
3.76326e-05
3.64068e-05
3.4828e-05
3.30673e-05
3.12819e-05
2.97681e-05
2.93749e-05
3.11059e-05
3.35764e-05
3.54474e-05
3.5936e-05
3.56742e-05
3.42374e-05
3.05779e-05
2.5601e-05
1.97681e-05
1.30643e-05
5.02534e-06
6.22355e-08
5.11644e-07
1.8786e-05
3.83392e-05
4.80392e-05
5.16612e-05
5.21458e-05
5.1319e-05
5.0093e-05
4.86936e-05
4.77973e-05
4.63472e-05
4.51617e-05
4.36325e-05
4.23083e-05
4.13292e-05
4.06774e-05
4.02249e-05
3.99046e-05
3.96941e-05
3.95683e-05
3.95455e-05
3.96406e-05
3.98514e-05
4.01742e-05
4.05853e-05
4.10635e-05
4.1584e-05
4.21264e-05
4.26747e-05
4.32161e-05
4.37422e-05
4.42463e-05
4.47236e-05
4.51727e-05
4.55946e-05
4.59824e-05
4.63555e-05
4.66802e-05
4.69065e-05
4.71543e-05
4.73839e-05
4.75175e-05
4.76148e-05
4.76535e-05
4.76375e-05
4.75632e-05
4.74304e-05
4.7239e-05
4.69904e-05
4.66872e-05
4.63333e-05
4.59334e-05
4.54928e-05
4.50163e-05
4.45063e-05
4.39616e-05
4.33743e-05
4.27286e-05
4.2e-05
4.11591e-05
4.01817e-05
3.90691e-05
3.78228e-05
3.64034e-05
3.48054e-05
3.29457e-05
3.10651e-05
2.93048e-05
2.85572e-05
3.0171e-05
3.27344e-05
3.43307e-05
3.45357e-05
3.42036e-05
3.16659e-05
2.72433e-05
2.15255e-05
1.46285e-05
6.0276e-06
8.56317e-08
5.9105e-07
2.03838e-05
4.07828e-05
5.06222e-05
5.40193e-05
5.41553e-05
5.28463e-05
5.12e-05
4.99829e-05
4.81735e-05
4.67318e-05
4.50098e-05
4.34287e-05
4.21607e-05
4.1251e-05
4.06228e-05
4.01747e-05
3.98738e-05
3.97081e-05
3.96712e-05
3.97769e-05
4.00205e-05
4.03855e-05
4.08506e-05
4.13861e-05
4.19684e-05
4.2575e-05
4.31903e-05
4.38022e-05
4.44029e-05
4.49871e-05
4.55513e-05
4.60932e-05
4.66113e-05
4.71033e-05
4.75651e-05
4.8001e-05
4.84181e-05
4.87182e-05
4.89821e-05
4.93023e-05
4.94937e-05
4.96374e-05
4.97161e-05
4.97295e-05
4.9674e-05
4.95477e-05
4.93496e-05
4.90801e-05
4.87412e-05
4.83371e-05
4.78735e-05
4.73586e-05
4.68016e-05
4.62118e-05
4.55968e-05
4.49592e-05
4.42937e-05
4.35825e-05
4.27929e-05
4.1878e-05
4.07864e-05
3.95297e-05
3.81071e-05
3.62414e-05
3.45015e-05
3.26918e-05
3.06998e-05
2.87002e-05
2.77925e-05
2.93729e-05
3.18756e-05
3.31699e-05
3.2944e-05
3.20258e-05
2.83558e-05
2.30417e-05
1.62026e-05
7.04604e-06
1.15324e-07
6.69292e-07
2.18016e-05
4.29509e-05
5.29525e-05
5.60533e-05
5.56702e-05
5.40715e-05
5.24091e-05
5.03402e-05
4.85455e-05
4.66105e-05
4.47562e-05
4.31786e-05
4.19737e-05
4.11156e-05
4.05133e-05
4.01016e-05
3.9867e-05
3.98006e-05
3.98976e-05
4.01539e-05
4.05468e-05
4.10491e-05
4.16315e-05
4.22655e-05
4.29299e-05
4.36077e-05
4.4288e-05
4.49633e-05
4.56289e-05
4.62819e-05
4.69197e-05
4.75398e-05
4.8139e-05
4.87134e-05
4.92582e-05
4.97689e-05
5.02732e-05
5.06715e-05
5.09753e-05
5.1349e-05
5.16252e-05
5.18141e-05
5.19393e-05
5.19876e-05
5.19578e-05
5.18455e-05
5.16485e-05
5.13657e-05
5.09974e-05
5.05462e-05
5.00176e-05
4.94198e-05
4.87641e-05
4.80645e-05
4.7336e-05
4.65925e-05
4.5843e-05
4.50863e-05
4.43053e-05
4.34609e-05
4.24897e-05
4.13089e-05
3.9942e-05
3.83025e-05
3.60668e-05
3.40808e-05
3.22902e-05
3.01727e-05
2.79775e-05
2.70962e-05
2.86455e-05
3.08749e-05
3.18626e-05
3.10661e-05
2.88358e-05
2.41423e-05
1.75845e-05
7.95297e-06
1.49456e-07
7.44587e-07
2.30677e-05
4.48534e-05
5.48682e-05
5.75895e-05
5.70274e-05
5.54732e-05
5.32025e-05
5.0709e-05
4.85155e-05
4.63681e-05
4.44504e-05
4.29072e-05
4.17637e-05
4.09541e-05
4.04001e-05
4.00645e-05
3.99379e-05
4.00051e-05
4.02511e-05
4.06534e-05
4.11784e-05
4.17942e-05
4.24714e-05
4.31861e-05
4.39219e-05
4.46672e-05
4.54154e-05
4.61618e-05
4.69036e-05
4.76379e-05
4.83613e-05
4.90698e-05
4.97584e-05
5.04214e-05
5.10529e-05
5.16466e-05
5.22371e-05
5.27208e-05
5.3074e-05
5.35008e-05
5.38577e-05
5.40937e-05
5.4267e-05
5.43548e-05
5.4357e-05
5.42678e-05
5.40836e-05
5.38011e-05
5.34185e-05
5.29361e-05
5.23566e-05
5.16865e-05
5.0936e-05
5.01201e-05
4.92578e-05
4.83707e-05
4.74804e-05
4.66035e-05
4.5745e-05
4.48897e-05
4.3994e-05
4.29775e-05
4.17226e-05
4.02537e-05
3.82038e-05
3.57531e-05
3.35415e-05
3.17242e-05
2.94055e-05
2.69784e-05
2.65285e-05
2.81166e-05
2.96639e-05
2.99048e-05
2.88296e-05
2.48075e-05
1.86488e-05
8.67938e-06
1.86441e-07
8.14111e-07
2.41484e-05
4.63822e-05
5.63445e-05
5.88098e-05
5.84426e-05
5.62903e-05
5.34896e-05
5.09106e-05
4.83472e-05
4.60574e-05
4.41244e-05
4.26319e-05
4.15502e-05
4.08008e-05
4.03258e-05
4.01005e-05
4.01073e-05
4.03194e-05
4.07083e-05
4.12393e-05
4.18752e-05
4.25847e-05
4.33421e-05
4.41295e-05
4.49355e-05
4.57527e-05
4.6577e-05
4.74051e-05
4.82336e-05
4.90585e-05
4.98746e-05
5.06757e-05
5.1455e-05
5.22056e-05
5.29202e-05
5.35931e-05
5.42612e-05
5.48165e-05
5.522e-05
5.56957e-05
5.61222e-05
5.64047e-05
5.66239e-05
5.67529e-05
5.67917e-05
5.67336e-05
5.65739e-05
5.63073e-05
5.59299e-05
5.54387e-05
5.48333e-05
5.41161e-05
5.32942e-05
5.23797e-05
5.13912e-05
5.03531e-05
4.92945e-05
4.82456e-05
4.72318e-05
4.62651e-05
4.53339e-05
4.43909e-05
4.33429e-05
4.20418e-05
4.03406e-05
3.78845e-05
3.52664e-05
3.28885e-05
3.09603e-05
2.83255e-05
2.57205e-05
2.58745e-05
2.76501e-05
2.87009e-05
2.76934e-05
2.49911e-05
1.93492e-05
9.22532e-06
2.25012e-07
8.75314e-07
2.50153e-05
4.75342e-05
5.74509e-05
6.00318e-05
5.94545e-05
5.69742e-05
5.38581e-05
5.08524e-05
4.80898e-05
4.57151e-05
4.37991e-05
4.23669e-05
4.13536e-05
4.06847e-05
4.03166e-05
4.02227e-05
4.03708e-05
4.07221e-05
4.12381e-05
4.18787e-05
4.26081e-05
4.33986e-05
4.42301e-05
4.50899e-05
4.59705e-05
4.68674e-05
4.77769e-05
4.8695e-05
4.96167e-05
5.05356e-05
5.14443e-05
5.23348e-05
5.31988e-05
5.40285e-05
5.48164e-05
5.55562e-05
5.62886e-05
5.69051e-05
5.73502e-05
5.78648e-05
5.8349e-05
5.86733e-05
5.89333e-05
5.91019e-05
5.91787e-05
5.91571e-05
5.90311e-05
5.87944e-05
5.84408e-05
5.79647e-05
5.73617e-05
5.66299e-05
5.57713e-05
5.47929e-05
5.37088e-05
5.25412e-05
5.13207e-05
5.00846e-05
4.88728e-05
4.77198e-05
4.66441e-05
4.56345e-05
4.4637e-05
4.35418e-05
4.21756e-05
4.01621e-05
3.73689e-05
3.46081e-05
3.21204e-05
2.99613e-05
2.6989e-05
2.47103e-05
2.52008e-05
2.64297e-05
2.66947e-05
2.48876e-05
1.97031e-05
9.55082e-06
2.65422e-07
9.26779e-07
2.56736e-05
4.83592e-05
5.83211e-05
6.09398e-05
6.01733e-05
5.72607e-05
5.3957e-05
5.06926e-05
4.77812e-05
4.53655e-05
4.34883e-05
4.21247e-05
4.11919e-05
4.06242e-05
4.03818e-05
4.0426e-05
4.07102e-05
4.1187e-05
4.18129e-05
4.25475e-05
4.3359e-05
4.42249e-05
4.51303e-05
4.60666e-05
4.70287e-05
4.80125e-05
4.90133e-05
5.0025e-05
5.104e-05
5.20495e-05
5.30441e-05
5.40143e-05
5.49511e-05
5.58465e-05
5.66933e-05
5.74853e-05
5.82656e-05
5.89362e-05
5.94077e-05
5.99475e-05
6.04783e-05
6.08369e-05
6.11306e-05
6.13345e-05
6.14476e-05
6.14638e-05
6.13769e-05
6.11798e-05
6.08648e-05
6.0424e-05
5.98498e-05
5.91358e-05
5.82783e-05
5.72779e-05
5.61418e-05
5.48858e-05
5.35366e-05
5.21317e-05
5.07185e-05
4.93478e-05
4.80645e-05
4.68925e-05
4.58177e-05
4.47688e-05
4.35982e-05
4.20378e-05
3.95465e-05
3.66222e-05
3.38215e-05
3.11907e-05
2.86206e-05
2.52886e-05
2.39461e-05
2.47936e-05
2.54844e-05
2.4127e-05
1.97135e-05
9.6928e-06
3.06936e-07
9.67769e-07
2.61289e-05
4.89062e-05
5.89149e-05
6.16126e-05
6.0695e-05
5.7624e-05
5.39522e-05
5.04663e-05
4.74489e-05
4.50249e-05
4.32015e-05
4.19155e-05
4.1077e-05
4.06263e-05
4.05169e-05
4.06951e-05
4.11037e-05
4.16909e-05
4.24122e-05
4.32303e-05
4.41184e-05
4.50589e-05
4.60413e-05
4.70595e-05
4.81086e-05
4.91833e-05
5.02767e-05
5.13797e-05
5.24823e-05
5.35735e-05
5.46423e-05
5.56787e-05
5.66735e-05
5.76191e-05
5.8509e-05
5.93381e-05
6.01497e-05
6.08659e-05
6.13509e-05
6.18996e-05
6.24671e-05
6.28514e-05
6.31704e-05
6.34031e-05
6.35481e-05
6.36e-05
6.35532e-05
6.34003e-05
6.3133e-05
6.27419e-05
6.22169e-05
6.15479e-05
6.07259e-05
5.97449e-05
5.86038e-05
5.73099e-05
5.58811e-05
5.43492e-05
5.27606e-05
5.11741e-05
4.96534e-05
4.82546e-05
4.70078e-05
4.58978e-05
4.4845e-05
4.36886e-05
4.16288e-05
3.86716e-05
3.58016e-05
3.28187e-05
3.00136e-05
2.68315e-05
2.3483e-05
2.30678e-05
2.33873e-05
2.3159e-05
1.96023e-05
9.84655e-06
3.53367e-07
9.98095e-07
2.63928e-05
4.92157e-05
5.92516e-05
6.21133e-05
6.09372e-05
5.77362e-05
5.38556e-05
5.01992e-05
4.7112e-05
4.47036e-05
4.29454e-05
4.1746e-05
4.10139e-05
4.06882e-05
4.07101e-05
4.10124e-05
4.1532e-05
4.22164e-05
4.30228e-05
4.39183e-05
4.48813e-05
4.58983e-05
4.69616e-05
4.80655e-05
4.92041e-05
5.03694e-05
5.15515e-05
5.27388e-05
5.39187e-05
5.5079e-05
5.6208e-05
5.72956e-05
5.83333e-05
5.93143e-05
6.02329e-05
6.1085e-05
6.19099e-05
6.26613e-05
6.31573e-05
6.36961e-05
6.42908e-05
6.46927e-05
6.50283e-05
6.52818e-05
6.5452e-05
6.55347e-05
6.55248e-05
6.54158e-05
6.51993e-05
6.48654e-05
6.44025e-05
6.37979e-05
6.30383e-05
6.21117e-05
6.10091e-05
5.9728e-05
5.82753e-05
5.66723e-05
5.49575e-05
5.3188e-05
5.1436e-05
4.97786e-05
4.8279e-05
4.6963e-05
4.57932e-05
4.46481e-05
4.33019e-05
4.07617e-05
3.76384e-05
3.46783e-05
3.14546e-05
2.84715e-05
2.45194e-05
2.23547e-05
2.23249e-05
2.24503e-05
1.94866e-05
1.02312e-05
4.13847e-07
1.01825e-06
2.64915e-05
4.92732e-05
5.93031e-05
6.22804e-05
6.12013e-05
5.77574e-05
5.36968e-05
4.99114e-05
4.67837e-05
4.44083e-05
4.2724e-05
4.16193e-05
4.10012e-05
4.08016e-05
4.09472e-05
4.13618e-05
4.19803e-05
4.27516e-05
4.36363e-05
4.46064e-05
4.56446e-05
4.67405e-05
4.78872e-05
4.90781e-05
5.03046e-05
5.15558e-05
5.28188e-05
5.40797e-05
5.53244e-05
5.65399e-05
5.77148e-05
5.88396e-05
5.99067e-05
6.09105e-05
6.18468e-05
6.27128e-05
6.3531e-05
6.42977e-05
6.48244e-05
6.53304e-05
6.5941e-05
6.63542e-05
6.66979e-05
6.69641e-05
6.71516e-05
6.72577e-05
6.72787e-05
6.72089e-05
6.70409e-05
6.6765e-05
6.63694e-05
6.58397e-05
6.51601e-05
6.43135e-05
6.32844e-05
6.20605e-05
6.06374e-05
5.90228e-05
5.72425e-05
5.53446e-05
5.34006e-05
5.15003e-05
4.9737e-05
4.81838e-05
4.68641e-05
4.57244e-05
4.46128e-05
4.26333e-05
3.95385e-05
3.65147e-05
3.31864e-05
2.96744e-05
2.60914e-05
2.21793e-05
2.10645e-05
2.08296e-05
1.91448e-05
1.08852e-05
4.95189e-07
1.02827e-06
2.64219e-05
4.90739e-05
5.92324e-05
6.24101e-05
6.12303e-05
5.76884e-05
5.34958e-05
4.96177e-05
4.64729e-05
4.41429e-05
4.2539e-05
4.15352e-05
4.10339e-05
4.09559e-05
4.12152e-05
4.17306e-05
4.24379e-05
4.32887e-05
4.42475e-05
4.52911e-05
4.64053e-05
4.75813e-05
4.88116e-05
5.00871e-05
5.13964e-05
5.27255e-05
5.4059e-05
5.53813e-05
5.66776e-05
5.79351e-05
5.91429e-05
6.02928e-05
6.13782e-05
6.23947e-05
6.33396e-05
6.42111e-05
6.50104e-05
6.57843e-05
6.63491e-05
6.6818e-05
6.74188e-05
6.78436e-05
6.8188e-05
6.84585e-05
6.86549e-05
6.87759e-05
6.88192e-05
6.87808e-05
6.86546e-05
6.84321e-05
6.8102e-05
6.76498e-05
6.70581e-05
6.6307e-05
6.53754e-05
6.42432e-05
6.28946e-05
6.13238e-05
5.95403e-05
5.7577e-05
5.54947e-05
5.33824e-05
5.13483e-05
4.9498e-05
4.79015e-05
4.65583e-05
4.53698e-05
4.4123e-05
4.14748e-05
3.817e-05
3.50073e-05
3.14888e-05
2.75518e-05
2.31885e-05
2.07632e-05
1.94927e-05
1.86887e-05
1.15549e-05
5.96293e-07
1.02766e-06
2.62524e-05
4.88201e-05
5.90112e-05
6.24054e-05
6.11578e-05
5.75512e-05
5.32687e-05
4.93293e-05
4.61853e-05
4.39093e-05
4.23904e-05
4.14905e-05
4.11045e-05
4.11406e-05
4.15031e-05
4.21094e-05
4.28973e-05
4.38221e-05
4.48525e-05
4.59688e-05
4.71591e-05
4.84145e-05
4.97256e-05
5.10806e-05
5.24648e-05
5.38618e-05
5.52542e-05
5.66257e-05
5.79615e-05
5.92493e-05
6.04796e-05
6.1645e-05
6.27402e-05
6.37619e-05
6.47078e-05
6.55764e-05
6.63667e-05
6.71327e-05
6.77397e-05
6.81736e-05
6.87421e-05
6.91773e-05
6.95166e-05
6.97841e-05
6.9981e-05
7.01078e-05
7.01638e-05
7.01468e-05
7.00527e-05
6.98747e-05
6.96028e-05
6.92237e-05
6.87196e-05
6.80694e-05
6.72485e-05
6.62306e-05
6.49907e-05
6.35096e-05
6.17807e-05
5.98179e-05
5.76651e-05
5.54015e-05
5.31402e-05
5.10122e-05
4.91351e-05
4.75707e-05
4.62863e-05
4.51387e-05
4.31423e-05
3.98493e-05
3.68455e-05
3.2963e-05
2.89576e-05
2.46546e-05
2.06594e-05
1.8998e-05
1.82896e-05
1.2186e-05
7.12938e-07
1.02214e-06
2.59863e-05
4.83975e-05
5.8597e-05
6.21887e-05
6.09836e-05
5.73606e-05
5.30279e-05
4.90541e-05
4.59246e-05
4.37083e-05
4.22768e-05
4.14808e-05
4.12055e-05
4.13466e-05
4.18026e-05
4.24911e-05
4.33533e-05
4.43479e-05
4.54476e-05
4.66354e-05
4.79002e-05
4.92319e-05
5.06187e-05
5.20458e-05
5.34956e-05
5.49497e-05
5.63898e-05
5.77994e-05
5.91644e-05
6.04735e-05
6.17184e-05
6.28929e-05
6.3993e-05
6.5016e-05
6.59602e-05
6.68245e-05
6.76081e-05
6.83567e-05
6.9004e-05
6.94115e-05
6.99365e-05
7.03773e-05
7.07073e-05
7.09653e-05
7.11551e-05
7.12788e-05
7.13374e-05
7.13308e-05
7.12571e-05
7.11119e-05
7.08872e-05
7.05714e-05
7.0148e-05
6.95959e-05
6.88889e-05
6.79967e-05
6.68872e-05
6.553e-05
6.39028e-05
6.19998e-05
5.98428e-05
5.74919e-05
5.50509e-05
5.26602e-05
5.04706e-05
4.85974e-05
4.70663e-05
4.57725e-05
4.44705e-05
4.16276e-05
3.82653e-05
3.49336e-05
3.05426e-05
2.60149e-05
2.09222e-05
1.85309e-05
1.72395e-05
1.28211e-05
8.31258e-07
1.00993e-06
2.56646e-05
4.77177e-05
5.80673e-05
6.18419e-05
6.07237e-05
5.71292e-05
5.27829e-05
4.87978e-05
4.56932e-05
4.35394e-05
4.21955e-05
4.1501e-05
4.13297e-05
4.15668e-05
4.21072e-05
4.28707e-05
4.38017e-05
4.48625e-05
4.6029e-05
4.72859e-05
4.86219e-05
5.00249e-05
5.14804e-05
5.29707e-05
5.44762e-05
5.59771e-05
5.74547e-05
5.88932e-05
6.02794e-05
6.16034e-05
6.2858e-05
6.40384e-05
6.51415e-05
6.61652e-05
6.71085e-05
6.7971e-05
6.87528e-05
6.94749e-05
7.01383e-05
7.05573e-05
7.10261e-05
7.14669e-05
7.17847e-05
7.20281e-05
7.2204e-05
7.23162e-05
7.23677e-05
7.23605e-05
7.22951e-05
7.21694e-05
7.19784e-05
7.17129e-05
7.13585e-05
7.08954e-05
7.02973e-05
6.95324e-05
6.85636e-05
6.7352e-05
6.58617e-05
6.40683e-05
6.19702e-05
5.9603e-05
5.70514e-05
5.44528e-05
5.19808e-05
4.98032e-05
4.80213e-05
4.66119e-05
4.54016e-05
4.30823e-05
3.96368e-05
3.67747e-05
3.1963e-05
2.73294e-05
2.22539e-05
1.8481e-05
1.61623e-05
1.32877e-05
9.23856e-07
9.90959e-07
2.52502e-05
4.69699e-05
5.74474e-05
6.13787e-05
6.0391e-05
5.68669e-05
5.25406e-05
4.85644e-05
4.54921e-05
4.34018e-05
4.21436e-05
4.15461e-05
4.1471e-05
4.1795e-05
4.24119e-05
4.32439e-05
4.42388e-05
4.53621e-05
4.65921e-05
4.79145e-05
4.93166e-05
5.07844e-05
5.23004e-05
5.38448e-05
5.53963e-05
5.69346e-05
5.84414e-05
5.99017e-05
6.13035e-05
6.26385e-05
6.39006e-05
6.5086e-05
6.61923e-05
6.72181e-05
6.81626e-05
6.90251e-05
6.98058e-05
7.05053e-05
7.11803e-05
7.16184e-05
7.20314e-05
7.24674e-05
7.2771e-05
7.2996e-05
7.31525e-05
7.32462e-05
7.32817e-05
7.32635e-05
7.31942e-05
7.3075e-05
7.29034e-05
7.26733e-05
7.23732e-05
7.19856e-05
7.14859e-05
7.08419e-05
7.00143e-05
6.89583e-05
6.76275e-05
6.59809e-05
6.3994e-05
6.16748e-05
5.90806e-05
5.63309e-05
5.36035e-05
5.1101e-05
4.89865e-05
4.73066e-05
4.59406e-05
4.42956e-05
4.09333e-05
3.81952e-05
3.39364e-05
2.87564e-05
2.35521e-05
1.88841e-05
1.55883e-05
1.34708e-05
9.65385e-07
9.66261e-07
2.47315e-05
4.61111e-05
5.67329e-05
6.08214e-05
5.99978e-05
5.65819e-05
5.23064e-05
4.83565e-05
4.53219e-05
4.3294e-05
4.2118e-05
4.16113e-05
4.16242e-05
4.20268e-05
4.27128e-05
4.36073e-05
4.46611e-05
4.58428e-05
4.71322e-05
4.85149e-05
4.9977e-05
5.15019e-05
5.30699e-05
5.46593e-05
5.62481e-05
5.78159e-05
5.93452e-05
6.08222e-05
6.22363e-05
6.35804e-05
6.48496e-05
6.6041e-05
6.71525e-05
6.8183e-05
6.91314e-05
6.99965e-05
7.07772e-05
7.14722e-05
7.21397e-05
7.26051e-05
7.29681e-05
7.33961e-05
7.36842e-05
7.38882e-05
7.40212e-05
7.40904e-05
7.41025e-05
7.40639e-05
7.39801e-05
7.38546e-05
7.36885e-05
7.34788e-05
7.32173e-05
7.28896e-05
7.24736e-05
7.19387e-05
7.12453e-05
7.03453e-05
6.9185e-05
6.77099e-05
6.58753e-05
6.36614e-05
6.10941e-05
5.82653e-05
5.53425e-05
5.25505e-05
5.01123e-05
4.81597e-05
4.66497e-05
4.53314e-05
4.24236e-05
3.93937e-05
3.58581e-05
2.9955e-05
2.45603e-05
1.88844e-05
1.57177e-05
1.34585e-05
9.72172e-07
9.37233e-07
2.41784e-05
4.51663e-05
5.59308e-05
6.01858e-05
5.95548e-05
5.62808e-05
5.2084e-05
4.81758e-05
4.51826e-05
4.32144e-05
4.21154e-05
4.16924e-05
4.17849e-05
4.2258e-05
4.30063e-05
4.39575e-05
4.50653e-05
4.63005e-05
4.76441e-05
4.90811e-05
5.05959e-05
5.21699e-05
5.37814e-05
5.54075e-05
5.7026e-05
5.86168e-05
6.01637e-05
6.1654e-05
6.30786e-05
6.44316e-05
6.5709e-05
6.69084e-05
6.80282e-05
6.90668e-05
7.00227e-05
7.08942e-05
7.16792e-05
7.23755e-05
7.30306e-05
7.35246e-05
7.38477e-05
7.42643e-05
7.45364e-05
7.47179e-05
7.48244e-05
7.48648e-05
7.48475e-05
7.47811e-05
7.46733e-05
7.45307e-05
7.43574e-05
7.41537e-05
7.39153e-05
7.36313e-05
7.32828e-05
7.2842e-05
7.22706e-05
7.15197e-05
7.05309e-05
6.92403e-05
6.7586e-05
6.55229e-05
6.30433e-05
6.02038e-05
5.71464e-05
5.40978e-05