/*--------------------------------*- C++ -*----------------------------------*\
  =========                 |
  \\      /  F ield         | OpenFOAM: The Open Source CFD Toolbox
   \\    /   O peration     | Website:  https://openfoam.org
    \\  /    A nd           | Version:  13
     \\/     M anipulation  |
\*---------------------------------------------------------------------------*/
FoamFile
{
    format      ascii;
    class       volScalarField;
    location    "6.7";
    object      p;
}
// * * * * * * * * * * * * * * * * * * * * * * * * * * * * * * * * * * * * * //

dimensions      [0 2 -2 0 0 0 0];

internalField   nonuniform List<scalar> 
6400
(
4.08959e-09
1.94482e-05
2.82662e-05
1.35167e-05
-3.00408e-05
-9.74832e-05
-0.000179295
-0.000266516
-0.000352916
-0.000435442
-0.000514773
-0.000594966
-0.000680653
-0.000776976
-0.000888998
-0.00102075
-0.00117516
-0.00135398
-0.00155845
-0.00178929
-0.00204695
-0.00233265
-0.00264912
-0.00300076
-0.00339387
-0.00383304
-0.00431461
-0.00482972
-0.00535769
-0.0058627
-0.00633873
-0.00679358
-0.00722504
-0.0076304
-0.0080046
-0.00833942
-0.00862396
-0.0088455
-0.00899053
-0.00904556
-0.00899773
-0.00883586
-0.00855142
-0.00813929
-0.00759618
-0.00691585
-0.00609226
-0.0051383
-0.00407012
-0.00289504
-0.00163264
-0.000303579
0.00106394
0.00243823
0.00378002
0.00504439
0.00618674
0.00716549
0.00794042
0.00847908
0.00876164
0.00878406
0.00855808
0.00810612
0.00748191
0.0067398
0.00594439
0.00515904
0.00444125
0.00382194
0.0033364
0.00299809
0.00277734
0.00264731
0.00259053
0.00258279
0.00260456
0.00264052
0.00267989
0.00270698
-1.47037e-05
5.15421e-06
9.48183e-06
-1.01543e-05
-5.65292e-05
-0.000123953
-0.000201996
-0.000282218
-0.000359713
-0.000433172
-0.000504488
-0.000577672
-0.000657553
-0.00074875
-0.000855081
-0.000980011
-0.00112684
-0.00129806
-0.00149441
-0.00171617
-0.00196247
-0.00223357
-0.00253239
-0.00286164
-0.00322434
-0.0036272
-0.00407796
-0.00457599
-0.00510849
-0.00565222
-0.00617848
-0.00667684
-0.00714921
-0.00759252
-0.00800126
-0.0083671
-0.00867927
-0.00892562
-0.00909336
-0.00917015
-0.00914423
-0.0090055
-0.00874604
-0.00835955
-0.00784061
-0.00718512
-0.00640202
-0.00549616
-0.00446857
-0.00333514
-0.00211382
-0.000826881
0.000498508
0.00182988
0.00312991
0.00435883
0.00547441
0.00643447
0.00720221
0.00774665
0.00804748
0.00809988
0.00791473
0.00751807
0.00695345
0.00627465
0.00554411
0.00482127
0.00415965
0.00360155
0.00316749
0.00286514
0.0026825
0.00259534
0.00257871
0.00260728
0.00264972
0.0026881
0.00272039
0.00274612
-3.05122e-05
-8.39557e-06
-9.54811e-06
-3.81166e-05
-9.23793e-05
-0.000162431
-0.000236831
-0.000307446
-0.000371538
-0.000430736
-0.000488661
-0.000550212
-0.000620387
-0.000702932
-0.000800287
-0.000914217
-0.00104625
-0.00119862
-0.00137357
-0.00157377
-0.00180271
-0.00206365
-0.00236076
-0.00269883
-0.00308218
-0.0035133
-0.00399271
-0.00451704
-0.00507618
-0.0056531
-0.00622794
-0.00678447
-0.00731312
-0.00780724
-0.00826008
-0.00866286
-0.00900567
-0.00927782
-0.00946799
-0.009565
-0.00955881
-0.00944054
-0.00920286
-0.00884034
-0.00835089
-0.00773473
-0.00698219
-0.0061089
-0.00512123
-0.00403021
-0.00285181
-0.00160684
-0.000321001
0.000975252
0.00224714
0.00345691
0.0045631
0.0055243
0.00630442
0.00687349
0.00721077
0.0073091
0.00717861
0.00684435
0.00634703
0.00573885
0.00507238
0.0044152
0.00381293
0.00330411
0.00291352
0.00265659
0.00252173
0.00248171
0.00250242
0.0025616
0.00262996
0.00268761
0.00273476
0.00277168
-3.90726e-05
-1.77009e-05
-2.61858e-05
-6.57746e-05
-0.000130096
-0.000203447
-0.000274386
-0.000336398
-0.000388061
-0.000431497
-0.000472842
-0.000518706
-0.000574552
-0.000644078
-0.000729033
-0.000830165
-0.000948768
-0.0010876
-0.00125049
-0.00144283
-0.00167154
-0.0019443
-0.00226859
-0.00264707
-0.00308214
-0.00357513
-0.00412247
-0.00471421
-0.00533505
-0.00596846
-0.00659804
-0.00720868
-0.00778786
-0.00832642
-0.00881611
-0.00924794
-0.00961325
-0.00990261
-0.0101062
-0.0102142
-0.0102184
-0.0101109
-0.0098851
-0.00953663
-0.00906394
-0.00846637
-0.00774229
-0.00689703
-0.00593757
-0.00487455
-0.00372303
-0.00250248
-0.00123667
4.65786e-05
0.00131504
0.00253149
0.00365493
0.00464543
0.00546504
0.00608249
0.00647594
0.00663419
0.00656443
0.00629122
0.00585275
0.00529742
0.00468114
0.00406434
0.0034976
0.00302043
0.00265744
0.00242045
0.00230239
0.00228778
0.00234858
0.00244317
0.00254328
0.00263112
0.00270213
0.0027514
-3.37399e-05
-1.94164e-05
-3.785e-05
-8.88691e-05
-0.000162769
-0.000239128
-0.000306587
-0.000360071
-0.000399568
-0.000429247
-0.000456235
-0.000488049
-0.000530581
-0.000587461
-0.000660786
-0.00075231
-0.000865028
-0.00100457
-0.00117788
-0.00139291
-0.00165946
-0.00198307
-0.00236853
-0.00282031
-0.00333801
-0.00391604
-0.00454469
-0.00520982
-0.00589414
-0.00658153
-0.00725657
-0.00790683
-0.00852171
-0.0090908
-0.0096051
-0.0100561
-0.0104355
-0.0107351
-0.0109463
-0.0110607
-0.0110716
-0.0109725
-0.0107577
-0.010423
-0.0099672
-0.00938983
-0.00869117
-0.00787357
-0.00694172
-0.00590522
-0.00477835
-0.00357949
-0.00232955
-0.00105246
0.000222779
0.00145858
0.00261337
0.00365041
0.00453132
0.00522135
0.00569672
0.00594207
0.00595818
0.00576417
0.00539895
0.00490854
0.0043469
0.00377148
0.00323564
0.00278112
0.00243534
0.00220966
0.00210146
0.00209478
0.00216549
0.00228011
0.00240552
0.00252068
0.00261409
0.00267251
-5.91898e-06
-5.10617e-06
-3.57632e-05
-0.000100434
-0.000182606
-0.0002602
-0.000323784
-0.000369754
-0.000399267
-0.000418286
-0.000435032
-0.00045747
-0.00049164
-0.000541809
-0.000611683
-0.00070554
-0.000829761
-0.000992988
-0.00120605
-0.00147613
-0.00181076
-0.00221725
-0.00269734
-0.00324829
-0.00386158
-0.00452556
-0.0052281
-0.00595562
-0.00669291
-0.00742492
-0.0081376
-0.00881936
-0.0094601
-0.0100504
-0.0105817
-0.0110457
-0.0114344
-0.0117408
-0.0119577
-0.0120776
-0.0120962
-0.0120083
-0.011809
-0.0114943
-0.0110644
-0.0105173
-0.00985297
-0.00907321
-0.00818158
-0.00718479
-0.00609467
-0.00492755
-0.00369981
-0.00243118
-0.00114916
0.000106405
0.00129735
0.00239276
0.00335254
0.00413652
0.0047207
0.00508484
0.0052242
0.00514813
0.00488939
0.00449419
0.00401413
0.00350281
0.0030136
0.00259104
0.00226537
0.00205084
0.00194682
0.00194021
0.0020088
0.00212431
0.00225642
0.00238165
0.00248452
0.00254597
5.45667e-05
3.81998e-05
-8.34524e-06
-8.97544e-05
-0.000177269
-0.000255261
-0.000315679
-0.000356239
-0.000380031
-0.000394232
-0.000407655
-0.000428507
-0.000463464
-0.000518497
-0.000600225
-0.000715992
-0.000875987
-0.00109211
-0.00137258
-0.00172606
-0.0021591
-0.00267337
-0.00326043
-0.00390977
-0.00461144
-0.00535364
-0.0061228
-0.00690531
-0.00768763
-0.00845654
-0.0091997
-0.00990639
-0.010567
-0.0111729
-0.011716
-0.0121877
-0.0125807
-0.0128901
-0.0131106
-0.0132388
-0.0132697
-0.0131985
-0.0130208
-0.0127342
-0.0123372
-0.011827
-0.0112041
-0.0104706
-0.00963162
-0.00869323
-0.00766202
-0.0065457
-0.00535832
-0.00412018
-0.00285762
-0.0015972
-0.000368407
0.000795526
0.0018445
0.00274135
0.00346161
0.00397755
0.00427896
0.00436654
0.00426166
0.00400371
0.0036426
0.00322929
0.00281444
0.00244388
0.00215081
0.00195283
0.00185261
0.00184157
0.00189983
0.00200341
0.00212555
0.00224296
0.00234005
0.00239615
0.000157778
0.000121134
5.32865e-05
-4.19351e-05
-0.000134905
-0.000214171
-0.000273498
-0.000312843
-0.000337055
-0.000354356
-0.000373999
-0.000404614
-0.000454206
-0.000531522
-0.000646085
-0.000809113
-0.00103272
-0.00132853
-0.0017047
-0.00216775
-0.00271475
-0.00333765
-0.00402611
-0.00476859
-0.00555232
-0.0063644
-0.0071918
-0.00802184
-0.00884221
-0.0096412
-0.010408
-0.0111329
-0.0118065
-0.0124199
-0.0129658
-0.0134378
-0.0138327
-0.0141464
-0.0143748
-0.0145149
-0.0145602
-0.0145063
-0.0143497
-0.014088
-0.0137237
-0.0132526
-0.0126758
-0.0119959
-0.0112177
-0.0103463
-0.0093846
-0.00833647
-0.0072138
-0.00603399
-0.00481614
-0.00357792
-0.00233974
-0.0011433
-1.95064e-05
0.00100402
0.00188031
0.00257524
0.00307455
0.00336748
0.0034657
0.00339404
0.00319589
0.00292008
0.0026135
0.00232175
0.00208053
0.00191105
0.00182012
0.00180267
0.00184508
0.00192822
0.00202815
0.00212524
0.0022021
0.00224348
0.000309016
0.000251961
0.000159692
5.11427e-05
-4.83526e-05
-0.000130512
-0.00019241
-0.000236319
-0.000268898
-0.000299338
-0.000337375
-0.000392514
-0.000474808
-0.000595971
-0.000768894
-0.00100567
-0.00131932
-0.00172098
-0.00221362
-0.00279335
-0.00345325
-0.00418185
-0.0049662
-0.00579294
-0.00664909
-0.00752176
-0.0083988
-0.00926837
-0.0101192
-0.0109407
-0.0117231
-0.0124574
-0.0131342
-0.0137467
-0.0142909
-0.0147654
-0.0151668
-0.0154885
-0.0157253
-0.0158715
-0.015925
-0.015884
-0.015747
-0.015513
-0.01518
-0.0147495
-0.0142215
-0.0135973
-0.0128791
-0.0120699
-0.0111739
-0.0101981
-0.00915113
-0.00804514
-0.00689369
-0.00570792
-0.00450094
-0.00330072
-0.0021292
-0.00101907
-1.05922e-05
0.00087423
0.00159148
0.00212046
0.0024621
0.00262578
0.00263794
0.002542
0.00238088
0.00219793
0.00203149
0.00190682
0.00183516
0.00181614
0.00184106
0.00189689
0.00196639
0.00203422
0.00208046
0.00210296
0.000515514
0.000435964
0.000316633
0.000193283
8.49006e-05
-3.09103e-06
-7.24205e-05
-0.000128169
-0.000178815
-0.000234481
-0.000305583
-0.000402892
-0.000538974
-0.000728359
-0.000984667
-0.00132026
-0.00174713
-0.00226946
-0.00288327
-0.00358041
-0.00434951
-0.00517611
-0.00604677
-0.00694789
-0.00786673
-0.00879084
-0.00970871
-0.0106092
-0.0114821
-0.0123176
-0.0131071
-0.0138428
-0.0145193
-0.0151324
-0.0156773
-0.0161497
-0.0165444
-0.0168577
-0.0170879
-0.0172329
-0.017291
-0.0172607
-0.0171419
-0.0169345
-0.0166343
-0.0162441
-0.0157648
-0.0151974
-0.0145435
-0.0138049
-0.0129847
-0.0120876
-0.0111193
-0.0100866
-0.00899688
-0.00786104
-0.00669954
-0.00552756
-0.00435722
-0.00320659
-0.0021026
-0.00107347
-0.000160848
0.000618321
0.00122594
0.00166145
0.00192948
0.00205786
0.00208263
0.00204224
0.0019753
0.00191335
0.00187344
0.00186057
0.00187109
0.00189836
0.00193339
0.00196466
0.00197756
0.00198137
0.000780185
0.000672007
0.000524884
0.000381579
0.000262326
0.000164016
8.09929e-05
4.70847e-06
-7.52406e-05
-0.000169918
-0.000290526
-0.000449684
-0.000662105
-0.000942884
-0.00130505
-0.00175933
-0.00231139
-0.0029594
-0.00369439
-0.00450376
-0.00537348
-0.00628874
-0.00723584
-0.00820136
-0.00917288
-0.0101385
-0.0110871
-0.0120087
-0.012894
-0.0137345
-0.014523
-0.0152536
-0.0159217
-0.0165233
-0.0170547
-0.017513
-0.0178947
-0.0181979
-0.0184214
-0.018564
-0.0186248
-0.0186031
-0.0184987
-0.0183118
-0.0180409
-0.0176871
-0.0172515
-0.0167355
-0.0161405
-0.0154684
-0.0147215
-0.013903
-0.0130168
-0.0120666
-0.0110565
-0.00999267
-0.0088847
-0.00774244
-0.00658078
-0.0054225
-0.00427846
-0.00316209
-0.00209546
-0.00111142
-0.000243176
0.000475317
0.00103056
0.00142569
0.00167926
0.0018207
0.00188352
0.00190325
0.00190767
0.00190945
0.00191187
0.00191318
0.00191329
0.00190577
0.00188727
0.00187481
0.00109131
0.000954215
0.000772831
0.000606714
0.000473191
0.000360462
0.000256688
0.000150112
2.85861e-05
-0.000119741
-0.000307285
-0.000547989
-0.000857238
-0.00124903
-0.00173384
-0.0023177
-0.00300014
-0.00377301
-0.00462316
-0.00553624
-0.00649693
-0.00749059
-0.0085034
-0.00952224
-0.010535
-0.0115303
-0.012498
-0.0134291
-0.0143155
-0.0151505
-0.0159283
-0.0166445
-0.0172955
-0.0178784
-0.018391
-0.0188314
-0.0191978
-0.019489
-0.0197043
-0.0198429
-0.0199044
-0.0198888
-0.019796
-0.0196264
-0.01938
-0.0190576
-0.0186603
-0.0181894
-0.0176465
-0.0170333
-0.0163518
-0.0156044
-0.0147936
-0.013922
-0.0129921
-0.0120074
-0.0109715
-0.00988843
-0.00876445
-0.0076093
-0.00643655
-0.00527109
-0.00411629
-0.00298661
-0.00191057
-0.000932274
-8.53373e-05
0.000603281
0.00112576
0.00149143
0.00172343
0.00185194
0.00191436
0.00193864
0.00193784
0.00191829
0.00188678
0.00184428
0.00179978
0.00177344
0.00143502
0.00126754
0.00104744
0.000855666
0.000704241
0.000571283
0.000438738
0.000291499
0.000115901
-0.000100849
-0.000371662
-0.000711413
-0.00113428
-0.00165121
-0.00226847
-0.00298621
-0.00379736
-0.00468891
-0.00564576
-0.00665241
-0.00769325
-0.00875373
-0.00982012
-0.0108797
-0.0119208
-0.0129331
-0.0139077
-0.0148368
-0.0157141
-0.0165345
-0.0172938
-0.0179891
-0.018618
-0.0191788
-0.0196703
-0.0200913
-0.0204409
-0.0207188
-0.0209246
-0.021058
-0.0211188
-0.0211075
-0.0210242
-0.0208694
-0.0206438
-0.0203482
-0.0199838
-0.019552
-0.0190543
-0.0184924
-0.0178679
-0.0171829
-0.0164391
-0.015638
-0.0147813
-0.0138704
-0.0129066
-0.011891
-0.0108251
-0.00971056
-0.00855087
-0.00735476
-0.00613648
-0.00491746
-0.00370386
-0.00252253
-0.00141669
-0.000437144
0.00037843
0.00100772
0.00145218
0.00172989
0.00187437
0.00193116
0.00193151
0.00189502
0.00183735
0.00176691
0.00170366
0.0016687
0.00179387
0.00159314
0.00133181
0.00111037
0.000936771
0.00077737
0.000607748
0.000409627
0.000167997
-0.00013013
-0.000498693
-0.000951615
-0.0015
-0.00215053
-0.00290341
-0.00375247
-0.00468549
-0.00568662
-0.00673957
-0.0078282
-0.00893689
-0.0100512
-0.0111578
-0.0122446
-0.0133011
-0.0143182
-0.0152885
-0.016206
-0.0170662
-0.0178655
-0.0186015
-0.0192722
-0.0198767
-0.0204139
-0.0208835
-0.0212849
-0.0216178
-0.0218824
-0.0220786
-0.0222064
-0.0222661
-0.022258
-0.0221827
-0.0220407
-0.0218328
-0.0215602
-0.021224
-0.0208256
-0.0203665
-0.0198484
-0.0192728
-0.0186414
-0.0179555
-0.0172162
-0.0164242
-0.0155799
-0.0146828
-0.0137324
-0.0127272
-0.0116658
-0.0105468
-0.00936903
-0.00813469
-0.00685431
-0.00554909
-0.00423213
-0.00292899
-0.00169563
-0.000591336
0.000327009
0.00102402
0.0014967
0.00176442
0.00187439
0.00188441
0.00183404
0.00175435
0.00166248
0.00158735
0.00154732
0.00214367
0.00190825
0.00160255
0.00134937
0.00114946
0.00095742
0.000742674
0.0004845
0.00016692
-0.000224035
-0.000702009
-0.00127782
-0.00195853
-0.00274426
-0.00362937
-0.00460236
-0.00564725
-0.00674655
-0.00788322
-0.00904075
-0.0102037
-0.0113581
-0.0124912
-0.0135921
-0.0146519
-0.0156632
-0.0166204
-0.0175193
-0.018357
-0.0191315
-0.0198415
-0.0204865
-0.0210659
-0.0215798
-0.0220281
-0.022411
-0.0227284
-0.0229806
-0.023168
-0.0232908
-0.0233494
-0.0233441
-0.0232757
-0.0231448
-0.0229523
-0.0226994
-0.0223872
-0.0220172
-0.0215909
-0.0211098
-0.0205754
-0.0199892
-0.0193525
-0.0186658
-0.0179297
-0.0171436
-0.0163065
-0.0154162
-0.0144697
-0.0134634
-0.0123928
-0.0112534
-0.0100418
-0.00875725
-0.00740457
-0.00599747
-0.00456489
-0.00313759
-0.00178343
-0.000578511
0.000400838
0.00111116
0.00155234
0.00175558
0.00179149
0.00173422
0.00163462
0.00152433
0.0014417
0.00139739
0.00245798
0.00218798
0.00183737
0.00155045
0.00132006
0.00108912
0.000822219
0.000496598
9.47907e-05
-0.000398208
-0.000992893
-0.00169625
-0.00250908
-0.0034257
-0.00443508
-0.00552125
-0.00666573
-0.00785004
-0.00905662
-0.0102689
-0.011472
-0.0126526
-0.0137992
-0.0149027
-0.0159559
-0.0169532
-0.0178909
-0.0187667
-0.019579
-0.0203271
-0.0210108
-0.0216303
-0.0221858
-0.0226777
-0.0231065
-0.0234725
-0.0237761
-0.0240176
-0.0241974
-0.024316
-0.0243739
-0.0243713
-0.0243092
-0.0241882
-0.0240092
-0.0237733
-0.0234817
-0.0231358
-0.0227371
-0.0222871
-0.0217872
-0.0212388
-0.020643
-0.0200005
-0.0193114
-0.0185751
-0.0177899
-0.0169533
-0.0160612
-0.0151086
-0.0140892
-0.0129958
-0.0118215
-0.0105604
-0.00920942
-0.0077709
-0.00625941
-0.00470706
-0.00316328
-0.00170939
-0.000444313
0.000541161
0.00120279
0.00155173
0.00164904
0.00159698
0.00148033
0.00135273
0.00126195
0.00121023
0.00271495
0.00240817
0.00201357
0.00169138
0.0014263
0.00115118
0.000827138
0.000428709
-6.44774e-05
-0.000664632
-0.00137828
-0.00220753
-0.00314705
-0.00418599
-0.00530826
-0.0064945
-0.00772463
-0.00897952
-0.0102414
-0.0114941
-0.0127234
-0.0139174
-0.0150663
-0.0161629
-0.0172017
-0.0181795
-0.019094
-0.0199443
-0.0207303
-0.0214521
-0.0221105
-0.022706
-0.0232395
-0.0237116
-0.024123
-0.0244743
-0.024766
-0.0249985
-0.0251722
-0.0252876
-0.0253453
-0.0253457
-0.0252894
-0.0251773
-0.0250102
-0.0247892
-0.0245153
-0.0241901
-0.0238147
-0.0233908
-0.0229196
-0.0224026
-0.0218407
-0.0212347
-0.0205846
-0.0198899
-0.0191488
-0.0183585
-0.0175149
-0.0166121
-0.0156431
-0.0145991
-0.0134708
-0.0122485
-0.0109239
-0.00949293
-0.00795875
-0.00633871
-0.00467326
-0.00303119
-0.00151443
-0.000242725
0.000685097
0.00123341
0.00144256
0.00142122
0.00129582
0.00114999
0.00104398
0.000979069
0.00288328
0.00254557
0.00210993
0.00175194
0.00144886
0.00112645
0.000741727
0.000265295
-0.000321747
-0.00102876
-0.0018591
-0.00280805
-0.00386529
-0.00501472
-0.00623611
-0.00750774
-0.00880852
-0.010119
-0.0114215
-0.0127006
-0.0139435
-0.0151398
-0.0162818
-0.0173642
-0.0183837
-0.0193384
-0.0202278
-0.0210522
-0.0218124
-0.0225093
-0.0231441
-0.0237178
-0.0242316
-0.0246864
-0.0250828
-0.0254216
-0.0257033
-0.0259285
-0.0260975
-0.0262108
-0.0262689
-0.0262724
-0.0262217
-0.0261178
-0.0259613
-0.0257534
-0.025495
-0.0251874
-0.024832
-0.02443
-0.0239829
-0.0234919
-0.022958
-0.022382
-0.021764
-0.0211036
-0.0203991
-0.019648
-0.0188462
-0.0179879
-0.0170657
-0.0160704
-0.0149913
-0.0138166
-0.0125345
-0.0111353
-0.0096145
-0.00797762
-0.00624966
-0.00448618
-0.00277771
-0.00124625
-3.12789e-05
0.000767674
0.00114899
0.00120153
0.00107986
0.000915303
0.000783094
0.000700744
0.00294789
0.00258258
0.00210932
0.00171573
0.00137322
0.00100178
0.000553542
-2.07722e-06
-0.000681637
-0.00149233
-0.00243226
-0.0034916
-0.00465456
-0.00590036
-0.00720566
-0.00854717
-0.00990319
-0.0112543
-0.0125834
-0.0138763
-0.0151217
-0.0163114
-0.0174396
-0.0185029
-0.0194997
-0.0204298
-0.0212939
-0.0220931
-0.0228289
-0.0235028
-0.0241163
-0.0246707
-0.0251673
-0.0256071
-0.0259908
-0.0263192
-0.0265929
-0.0268122
-0.0269777
-0.0270898
-0.0271489
-0.0271556
-0.0271104
-0.027014
-0.0268672
-0.0266709
-0.0264261
-0.0261339
-0.0257955
-0.0254123
-0.0249854
-0.0245161
-0.0240054
-0.0234541
-0.0228625
-0.0222301
-0.0215558
-0.0208373
-0.0200709
-0.0192512
-0.0183711
-0.0174213
-0.0163909
-0.015267
-0.0140357
-0.0126838
-0.0112009
-0.00958298
-0.00784059
-0.00601264
-0.00417853
-0.00244509
-0.000955716
0.000131152
0.000737271
0.000916171
0.000827006
0.000644926
0.000474985
0.000374257
0.00289405
0.00250574
0.00199964
0.00157205
0.00118999
0.000767882
0.000255334
-0.000376584
-0.00114426
-0.00205186
-0.0030919
-0.00424958
-0.00550407
-0.00683077
-0.0082041
-0.00959979
-0.010996
-0.0123735
-0.0137165
-0.0150122
-0.0162513
-0.0174273
-0.0185368
-0.0195779
-0.0205506
-0.0214559
-0.0222953
-0.0230707
-0.0237841
-0.0244372
-0.0250319
-0.0255695
-0.0260513
-0.0264783
-0.0268515
-0.0271713
-0.0274384
-0.0276533
-0.0278163
-0.0279279
-0.0279885
-0.0279986
-0.0279586
-0.0278693
-0.0277313
-0.0275454
-0.0273126
-0.0270339
-0.0267103
-0.0263432
-0.0259336
-0.0254827
-0.0249914
-0.0244606
-0.0238906
-0.0232812
-0.0226317
-0.0219401
-0.0212032
-0.0204165
-0.0195732
-0.0186648
-0.0176803
-0.0166069
-0.0154296
-0.0141329
-0.0127028
-0.0111287
-0.0094086
-0.00756236
-0.00565613
-0.00378714
-0.00207533
-0.000701613
0.00017808
0.000544171
0.000524979
0.000329633
0.000115991
-1.52909e-06
0.00271301
0.00230719
0.00177401
0.00131509
0.000893569
0.000421267
-0.0001524
-0.000856321
-0.0017059
-0.00270082
-0.00382922
-0.00507132
-0.00640195
-0.00779359
-0.00921913
-0.0106538
-0.0120759
-0.0134671
-0.0148129
-0.0161023
-0.017328
-0.0184856
-0.0195731
-0.0205904
-0.0215387
-0.0224198
-0.0232359
-0.0239894
-0.0246825
-0.0253172
-0.0258954
-0.0264184
-0.0268876
-0.0273039
-0.0276682
-0.027981
-0.028243
-0.0284544
-0.0286159
-0.0287275
-0.0287899
-0.0288034
-0.0287685
-0.0286857
-0.0285557
-0.0283793
-0.0281573
-0.0278905
-0.0275801
-0.027227
-0.0268323
-0.0263971
-0.0259223
-0.0254087
-0.0248568
-0.0242665
-0.0236374
-0.022968
-0.0222557
-0.0214966
-0.020685
-0.0198131
-0.0188707
-0.0178453
-0.0167218
-0.0154837
-0.0141144
-0.0125996
-0.010929
-0.00910283
-0.00716061
-0.00521558
-0.00334913
-0.00172346
-0.000550282
5.33945e-05
0.000151053
-3.78847e-05
-0.000293147
-0.000426375
0.00240228
0.00198488
0.00143102
0.000943966
0.000484549
-3.55169e-05
-0.000665825
-0.00143542
-0.0023581
-0.00342942
-0.00463304
-0.00594474
-0.00733583
-0.00877666
-0.0102392
-0.0116987
-0.0131338
-0.0145276
-0.0158671
-0.0171431
-0.0183503
-0.019486
-0.0205499
-0.0215429
-0.0224672
-0.0233253
-0.0241199
-0.0248534
-0.0255284
-0.0261468
-0.0267106
-0.027221
-0.0276794
-0.0280867
-0.0284436
-0.0287508
-0.0290086
-0.0292176
-0.029378
-0.0294902
-0.0295545
-0.0295714
-0.0295413
-0.0294647
-0.0293422
-0.0291744
-0.0289621
-0.0287061
-0.0284072
-0.0280666
-0.027685
-0.0272635
-0.0268029
-0.026304
-0.0257674
-0.0251932
-0.0245812
-0.0239302
-0.0232384
-0.0225026
-0.021718
-0.0208778
-0.019973
-0.0189919
-0.01792
-0.0167403
-0.0154348
-0.0139866
-0.0123816
-0.0106079
-0.00867165
-0.00667562
-0.00472306
-0.00291118
-0.00146402
-0.000585362
-0.000312899
-0.000467889
-0.000751075
-0.000900709
0.00196501
0.00154221
0.000974174
0.000462662
-3.18249e-05
-0.000595173
-0.00127645
-0.00210454
-0.0030902
-0.00422577
-0.00549073
-0.00685703
-0.00829328
-0.00976839
-0.0112539
-0.0127254
-0.0141625
-0.0155495
-0.0168753
-0.0181326
-0.0193178
-0.0204297
-0.0214692
-0.0224382
-0.0233396
-0.0241762
-0.0249509
-0.0256664
-0.0263253
-0.0269294
-0.0274806
-0.0279802
-0.0284294
-0.0288291
-0.0291798
-0.0294823
-0.0297369
-0.0299439
-0.0301038
-0.0302168
-0.0302832
-0.0303035
-0.0302779
-0.0302071
-0.0300914
-0.0299315
-0.029728
-0.0294817
-0.0291934
-0.0288638
-0.0284939
-0.0280845
-0.0276365
-0.0271505
-0.0266271
-0.0260668
-0.0254692
-0.0248339
-0.0241595
-0.0234434
-0.0226818
-0.021869
-0.0209973
-0.0200562
-0.0190322
-0.0179087
-0.0166671
-0.0152884
-0.0137557
-0.012053
-0.0101699
-0.00814271
-0.00614581
-0.0042192
-0.00254363
-0.00138241
-0.000891076
-0.000975426
-0.00125704
-0.00142953
0.00140928
0.000987321
0.000411195
-0.000120252
-0.000645749
-0.00124742
-0.00197326
-0.00285111
-0.00388916
-0.00507644
-0.00638886
-0.00779526
-0.00926228
-0.010758
-0.0122539
-0.0137263
-0.015156
-0.0165289
-0.0178355
-0.0190703
-0.0202313
-0.0213184
-0.0223336
-0.0232794
-0.024159
-0.0249757
-0.0257323
-0.0264317
-0.0270761
-0.0276677
-0.0282079
-0.0286981
-0.0291394
-0.0295325
-0.0298781
-0.0301767
-0.0304286
-0.0306342
-0.0307939
-0.0309079
-0.0309764
-0.0309999
-0.0309787
-0.0309131
-0.0308038
-0.0306512
-0.0304558
-0.0302184
-0.0299395
-0.0296201
-0.0292607
-0.0288622
-0.0284254
-0.0279509
-0.0274393
-0.0268911
-0.0263062
-0.0256845
-0.025025
-0.0243258
-0.0235839
-0.0227949
-0.0219522
-0.0210467
-0.0200664
-0.0189957
-0.0178162
-0.0165072
-0.0150501
-0.0134271
-0.0116171
-0.00961559
-0.00757801
-0.00559881
-0.00376291
-0.00234566
-0.00160474
-0.00155829
-0.00181628
-0.00202384
0.000747225
0.000332369
-0.000245721
-0.000792347
-0.00134401
-0.00197862
-0.00274239
-0.00366106
-0.00474062
-0.00596723
-0.00731381
-0.00874678
-0.0102315
-0.0117356
-0.0132312
-0.0146953
-0.0161101
-0.0174631
-0.0187465
-0.0199564
-0.0210919
-0.0221541
-0.0231455
-0.0240692
-0.0249285
-0.0257267
-0.0264669
-0.0271517
-0.0277834
-0.0283637
-0.0288943
-0.0293763
-0.0298106
-0.0301981
-0.0305392
-0.0308345
-0.0310843
-0.0312889
-0.0314485
-0.0315635
-0.0316341
-0.0316607
-0.0316435
-0.031583
-0.0314795
-0.0313336
-0.0311457
-0.0309164
-0.0306463
-0.030336
-0.0299863
-0.0295977
-0.0291711
-0.0287071
-0.0282062
-0.0276689
-0.0270954
-0.0264858
-0.0258394
-0.025155
-0.0244304
-0.0236622
-0.0228449
-0.021971
-0.02103
-0.0200078
-0.0188868
-0.0176463
-0.016265
-0.0147241
-0.0130015
-0.0110776
-0.0090056
-0.00700679
-0.00508622
-0.00346629
-0.00247068
-0.00223521
-0.00244678
-0.00270088
-4.4143e-06
-0.000408076
-0.000981767
-0.00153884
-0.00211225
-0.00277435
-0.0035686
-0.00451915
-0.00562965
-0.00688383
-0.00825224
-0.00969961
-0.0111905
-0.0126927
-0.0141788
-0.0156271
-0.0170213
-0.0183503
-0.019608
-0.0207916
-0.0219012
-0.0229388
-0.0239073
-0.02481
-0.0256504
-0.0264318
-0.027157
-0.0278286
-0.0284487
-0.0290191
-0.029541
-0.0300157
-0.030444
-0.0308265
-0.0311638
-0.0314562
-0.0317042
-0.0319079
-0.0320677
-0.0321837
-0.0322563
-0.0322858
-0.0322724
-0.0322165
-0.0321184
-0.0319787
-0.0317976
-0.0315758
-0.0313138
-0.031012
-0.0306712
-0.0302919
-0.0298747
-0.0294203
-0.0289293
-0.028402
-0.027839
-0.0272404
-0.0266058
-0.0259347
-0.0252255
-0.0244756
-0.0236809
-0.0228351
-0.0219294
-0.0209513
-0.0198849
-0.0187098
-0.0174036
-0.0159463
-0.0143179
-0.0124868
-0.0104347
-0.00841287
-0.00647027
-0.00471571
-0.00348997
-0.00303902
-0.00316569
-0.00348184
-0.000826952
-0.00121702
-0.00178142
-0.00234464
-0.00293489
-0.00361863
-0.0044361
-0.00540981
-0.0065413
-0.00781228
-0.00919153
-0.0106427
-0.0121299
-0.0136215
-0.0150911
-0.0165179
-0.0178872
-0.0191895
-0.0204198
-0.0215766
-0.0226606
-0.0236744
-0.024621
-0.025504
-0.0263268
-0.0270926
-0.0278041
-0.0284637
-0.0290735
-0.0296348
-0.0301491
-0.0306172
-0.0310401
-0.0314182
-0.031752
-0.0320419
-0.0322883
-0.0324913
-0.0326512
-0.0327683
-0.0328428
-0.0328749
-0.032865
-0.0328134
-0.0327204
-0.0325863
-0.0324116
-0.0321968
-0.0319422
-0.0316483
-0.0313158
-0.0309451
-0.0305367
-0.0300914
-0.0296096
-0.0290918
-0.0285385
-0.0279501
-0.0273265
-0.0266676
-0.0259723
-0.0252389
-0.0244643
-0.0236437
-0.0227696
-0.0218315
-0.020815
-0.0197012
-0.0184678
-0.0170925
-0.0155547
-0.0138239
-0.0118684
-0.00981357
-0.00787939
-0.00606508
-0.00465728
-0.00398651
-0.00398986
-0.00439477
-0.00170245
-0.00207669
-0.00262791
-0.00319296
-0.00379514
-0.00449475
-0.00532873
-0.00631764
-0.00746113
-0.00873937
-0.0101199
-0.0115659
-0.0130415
-0.0145157
-0.0159631
-0.0173643
-0.018706
-0.0199799
-0.0211823
-0.0223123
-0.0233713
-0.0243622
-0.0252881
-0.0261527
-0.0269592
-0.0277106
-0.0284096
-0.0290583
-0.0296585
-0.0302117
-0.0307189
-0.0311812
-0.0315991
-0.0319732
-0.0323039
-0.0325916
-0.0328365
-0.0330389
-0.033199
-0.033317
-0.0333932
-0.0334279
-0.0334212
-0.0333735
-0.0332851
-0.0331563
-0.0329874
-0.032779
-0.0325313
-0.0322448
-0.03192
-0.0315574
-0.0311574
-0.0307206
-0.0302476
-0.0297388
-0.0291948
-0.028616
-0.0280028
-0.0273552
-0.0266728
-0.0259545
-0.0251982
-0.0244002
-0.0235547
-0.0226528
-0.021682
-0.0206252
-0.0194611
-0.0181655
-0.0167172
-0.0150914
-0.0132527
-0.0112053
-0.00928901
-0.00747916
-0.0059537
-0.0050769
-0.00494564
-0.00545008
-0.00261274
-0.00296925
-0.0035039
-0.00406655
-0.00467612
-0.00538639
-0.00623085
-0.00722789
-0.00837554
-0.0096529
-0.0110269
-0.0124603
-0.013918
-0.0153696
-0.0167908
-0.0181638
-0.0194762
-0.0207212
-0.0218956
-0.0229994
-0.0240344
-0.0250034
-0.02591
-0.0267573
-0.0275487
-0.0282869
-0.0289743
-0.0296129
-0.0302045
-0.0307501
-0.031251
-0.0317078
-0.0321212
-0.0324916
-0.0328195
-0.0331051
-0.0333487
-0.0335505
-0.0337107
-0.0338296
-0.0339074
-0.0339443
-0.0339405
-0.0338964
-0.0338122
-0.0336883
-0.0335249
-0.0333224
-0.0330811
-0.0328015
-0.032484
-0.0321289
-0.0317368
-0.0313082
-0.0308435
-0.0303433
-0.0298082
-0.0292388
-0.0286355
-0.0279986
-0.0273283
-0.026624
-0.0258845
-0.0251071
-0.0242874
-0.0234183
-0.0224891
-0.0214847
-0.0203852
-0.0191669
-0.0178081
-0.0162876
-0.014564
-0.0125942
-0.0106732
-0.0089061
-0.0073317
-0.00629144
-0.00605195
-0.00663014
-0.00354021
-0.00387691
-0.00439211
-0.00494903
-0.00556193
-0.00627815
-0.00712775
-0.00812684
-0.00927207
-0.0105418
-0.0119028
-0.0133181
-0.0147531
-0.0161785
-0.0175711
-0.0189142
-0.0201968
-0.0214128
-0.0225598
-0.0236384
-0.0246505
-0.025599
-0.0264874
-0.0273187
-0.028096
-0.028822
-0.0294987
-0.0301281
-0.0307116
-0.0312504
-0.0317453
-0.0321971
-0.0326064
-0.0329734
-0.0332986
-0.0335823
-0.0338246
-0.0340259
-0.0341862
-0.0343059
-0.034385
-0.0344239
-0.0344228
-0.034382
-0.0343017
-0.0341821
-0.0340237
-0.0338267
-0.0335914
-0.0333182
-0.0330075
-0.0326595
-0.0322749
-0.031854
-0.0313973
-0.0309054
-0.0303789
-0.0298185
-0.0292247
-0.0285982
-0.0279394
-0.0272482
-0.0265243
-0.0257658
-0.0249697
-0.0241304
-0.023239
-0.0222825
-0.0212429
-0.0200977
-0.0188234
-0.0173992
-0.0157903
-0.013957
-0.0120312
-0.0103154
-0.00874255
-0.00759637
-0.00729336
-0.0079039
-0.00446763
-0.00478279
-0.00527625
-0.00582477
-0.00643759
-0.00715574
-0.00800593
-0.00900205
-0.0101396
-0.0113964
-0.0127395
-0.0141326
-0.0155417
-0.0169386
-0.0183012
-0.0196139
-0.0208667
-0.0220544
-0.0231752
-0.0242297
-0.0252202
-0.0261495
-0.0270209
-0.0278374
-0.0286017
-0.0293163
-0.0299832
-0.0306041
-0.0311802
-0.0317126
-0.032202
-0.0326492
-0.0330545
-0.0334184
-0.0337412
-0.034023
-0.0342642
-0.0344648
-0.0346252
-0.0347455
-0.0348259
-0.0348666
-0.0348679
-0.03483
-0.0347532
-0.0346377
-0.0344838
-0.0342918
-0.034062
-0.0337947
-0.0334903
-0.0331491
-0.0327715
-0.032358
-0.031909
-0.031425
-0.0309069
-0.0303551
-0.0297706
-0.029154
-0.0285062
-0.0278275
-0.0271181
-0.0263771
-0.0256026
-0.0247904
-0.0239335
-0.0230208
-0.0220365
-0.0209595
-0.0197658
-0.0184345
-0.01694
-0.0152466
-0.0133524
-0.0116794
-0.0101458
-0.0089497
-0.00860732
-0.00919304
-0.00537907
-0.00567149
-0.00614169
-0.00667954
-0.00728943
-0.00800618
-0.00885327
-0.00984245
-0.0109683
-0.012208
-0.0135298
-0.0148979
-0.0162792
-0.0176465
-0.0189787
-0.0202614
-0.0214852
-0.0226458
-0.0237415
-0.0247735
-0.0257437
-0.0266552
-0.0275108
-0.0283135
-0.0290659
-0.0297701
-0.0304279
-0.0310408
-0.0316101
-0.0321366
-0.032621
-0.0330639
-0.0334656
-0.0338266
-0.034147
-0.0344271
-0.0346671
-0.0348672
-0.0350276
-0.0351484
-0.0352298
-0.0352721
-0.0352755
-0.0352403
-0.0351666
-0.0350547
-0.0349049
-0.0347175
-0.0344927
-0.0342309
-0.0339324
-0.0335974
-0.0332265
-0.0328199
-0.0323782
-0.0319019
-0.0313917
-0.0308483
-0.0302727
-0.0296658
-0.0290285
-0.0283616
-0.0276659
-0.0269412
-0.0261866
-0.0253991
-0.0245735
-0.0237005
-0.0227665
-0.0217522
-0.0206347
-0.0193934
-0.0180078
-0.0164363
-0.0146428
-0.0129867
-0.0114987
-0.0102958
-0.00990493
-0.0103876
-0.00625932
-0.00652911
-0.0069751
-0.00750057
-0.00810526
-0.00881796
-0.00965907
-0.0106383
-0.0117497
-0.0129697
-0.0142675
-0.0156092
-0.0169619
-0.0182994
-0.0196018
-0.0208553
-0.0220515
-0.0231864
-0.0242587
-0.0252696
-0.0262212
-0.0271161
-0.0279573
-0.0287473
-0.0294886
-0.0301832
-0.0308327