/*--------------------------------*- C++ -*----------------------------------*\
  =========                 |
  \\      /  F ield         | OpenFOAM: The Open Source CFD Toolbox
   \\    /   O peration     | Website:  https://openfoam.org
    \\  /    A nd           | Version:  13
     \\/     M anipulation  |
\*---------------------------------------------------------------------------*/
FoamFile
{
    format      ascii;
    class       surfaceScalarField;
    location    "6.7";
    object      phi;
}
// * * * * * * * * * * * * * * * * * * * * * * * * * * * * * * * * * * * * * //

dimensions      [0 3 -1 0 0 0 0];

internalField   nonuniform List<scalar> 
12640
(
1.61765e-09
-1.61773e-09
1.50034e-08
-1.33858e-08
3.86024e-08
-2.3599e-08
6.58995e-08
-2.72971e-08
9.06023e-08
-2.47028e-08
1.09133e-07
-1.8531e-08
1.20135e-07
-1.1002e-08
1.24469e-07
-4.3333e-09
1.24404e-07
6.41243e-11
1.22269e-07
2.13513e-09
1.20012e-07
2.25692e-09
1.18915e-07
1.09734e-09
1.19389e-07
-4.74151e-10
1.21138e-07
-1.74856e-09
1.23332e-07
-2.1943e-09
1.25049e-07
-1.71657e-09
1.25423e-07
-3.74505e-10
1.23933e-07
1.49007e-09
1.19771e-07
4.16161e-09
1.12045e-07
7.72681e-09
1.00167e-07
1.18775e-08
8.35703e-08
1.65969e-08
6.18029e-08
2.17673e-08
3.46796e-08
2.71234e-08
2.17158e-09
3.2508e-08
-3.59018e-08
3.80734e-08
-8.07929e-08
4.48911e-08
-1.34841e-07
5.40477e-08
-2.00926e-07
6.6085e-08
-2.81409e-07
8.04835e-08
-3.75435e-07
9.40256e-08
-4.79483e-07
1.04049e-07
-5.90126e-07
1.10642e-07
-7.03965e-07
1.13839e-07
-8.18034e-07
1.14069e-07
-9.29728e-07
1.11694e-07
-1.03691e-06
1.07181e-07
-1.13784e-06
1.0093e-07
-1.23114e-06
9.3302e-08
-1.31574e-06
8.46038e-08
-1.39077e-06
7.50292e-08
-1.45553e-06
6.47553e-08
-1.50939e-06
5.38652e-08
-1.55181e-06
4.24154e-08
-1.58216e-06
3.03499e-08
-1.59999e-06
1.78309e-08
-1.60576e-06
5.76748e-09
-1.59741e-06
-8.34931e-09
-1.57567e-06
-2.17338e-08
-1.53956e-06
-3.61129e-08
-1.48906e-06
-5.05042e-08
-1.42399e-06
-6.50657e-08
-1.34462e-06
-7.9375e-08
-1.25137e-06
-9.32513e-08
-1.14488e-06
-1.06482e-07
-1.02603e-06
-1.18855e-07
-8.96159e-07
-1.29869e-07
-7.57043e-07
-1.39117e-07
-6.11002e-07
-1.46041e-07
-4.60877e-07
-1.50125e-07
-3.10112e-07
-1.50765e-07
-1.62525e-07
-1.47587e-07
-2.21207e-08
-1.40404e-07
1.07437e-07
-1.29558e-07
2.21717e-07
-1.14279e-07
3.16736e-07
-9.50196e-08
3.89118e-07
-7.23819e-08
4.36362e-07
-4.72438e-08
4.57084e-07
-2.07221e-08
4.50226e-07
6.85812e-09
4.18686e-07
3.15401e-08
3.64946e-07
5.37399e-08
2.95188e-07
6.9758e-08
2.18476e-07
7.67123e-08
1.46224e-07
7.22519e-08
8.56889e-08
6.05347e-08
4.07151e-08
4.49737e-08
1.19696e-08
2.87455e-08
-4.68163e-10
1.24377e-08
-4.68164e-10
1.03544e-08
-1.19721e-08
4.26752e-08
-4.57066e-08
8.76136e-08
-6.85374e-08
1.33646e-07
-7.33291e-08
1.7318e-07
-6.42376e-08
2.02399e-07
-4.77498e-08
2.20649e-07
-2.92518e-08
2.28911e-07
-1.2595e-08
2.2898e-07
-5.10259e-12
2.23177e-07
7.9377e-09
2.1378e-07
1.16545e-08
2.02327e-07
1.25506e-08
1.89289e-07
1.25637e-08
1.7411e-07
1.34304e-08
1.55731e-07
1.61839e-08
1.33004e-07
2.10104e-08
1.05011e-07
2.76186e-08
7.05484e-08
3.5953e-08
2.83808e-08
4.63292e-08
-2.29745e-08
5.90822e-08
-8.55033e-08
7.44062e-08
-1.61025e-07
9.21189e-08
-2.50773e-07
1.11515e-07
-3.55582e-07
1.31933e-07
-4.76013e-07
1.52939e-07
-6.11828e-07
1.73889e-07
-7.60694e-07
1.93757e-07
-9.1849e-07
2.11844e-07
-1.07988e-06
2.27473e-07
-1.23897e-06
2.39575e-07
-1.3922e-06
2.47258e-07
-1.53858e-06
2.50424e-07
-1.67667e-06
2.48737e-07
-1.80523e-06
2.42393e-07
-1.92323e-06
2.32069e-07
-2.03002e-06
2.18485e-07
-2.12511e-06
2.02277e-07
-2.20822e-06
1.84039e-07
-2.27912e-06
1.64203e-07
-2.33768e-06
1.43165e-07
-2.38379e-06
1.21136e-07
-2.41733e-06
9.82974e-08
-2.43821e-06
7.47377e-08
-2.44634e-06
5.05545e-08
-2.44184e-06
2.58411e-08
-2.42355e-06
-4.58827e-10
-2.39228e-06
-2.54982e-08
-2.3481e-06
-5.25317e-08
-2.2899e-06
-7.99336e-08
-2.21815e-06
-1.07858e-07
-2.13258e-06
-1.36082e-07
-2.0332e-06
-1.64446e-07
-1.91994e-06
-1.92627e-07
-1.79298e-06
-2.20215e-07
-1.65279e-06
-2.46668e-07
-1.50048e-06
-2.71172e-07
-1.3373e-06
-2.93043e-07
-1.16504e-06
-3.11377e-07
-9.8603e-07
-3.25054e-07
-8.02921e-07
-3.33234e-07
-6.18717e-07
-3.34969e-07
-4.36842e-07
-3.29462e-07
-2.60941e-07
-3.16305e-07
-9.5023e-08
-2.95477e-07
5.75886e-08
-2.66891e-07
1.93563e-07
-2.30994e-07
3.09247e-07
-1.88065e-07
4.021e-07
-1.40097e-07
4.69638e-07
-8.82603e-08
5.11192e-07
-3.46962e-08
5.25235e-07
1.74971e-08
5.12131e-07
6.68446e-08
4.73852e-07
1.08036e-07
4.12012e-07
1.38553e-07
3.2966e-07
1.54603e-07
2.37064e-07
1.53131e-07
1.46669e-07
1.35369e-07
7.09413e-08
1.04473e-07
2.00499e-08
6.33292e-08
1.95817e-08
1.96196e-08
-3.15917e-08
6.53753e-08
-9.14623e-08
1.17077e-07
-1.20239e-07
1.62842e-07
-1.19094e-07
1.98128e-07
-9.95235e-08
2.21917e-07
-7.15387e-08
2.34857e-07
-4.21914e-08
2.37922e-07
-1.56609e-08
2.32266e-07
5.651e-09
2.19346e-07
2.08579e-08
2.00586e-07
3.04143e-08
1.76566e-07
3.65707e-08
1.47094e-07
4.20364e-08
1.11365e-07
4.91592e-08
6.82146e-08
5.93342e-08
1.62329e-08
7.29921e-08
-4.62956e-08
9.01471e-08
-1.21187e-07
1.10844e-07
-2.09983e-07
1.35125e-07
-3.13926e-07
1.63025e-07
-4.33534e-07
1.94015e-07
-5.68468e-07
2.27053e-07
-7.17669e-07
2.60715e-07
-8.78741e-07
2.93005e-07
-1.04831e-06
3.2251e-07
-1.22216e-06
3.47735e-07
-1.39601e-06
3.67606e-07
-1.56588e-06
3.8172e-07
-1.72818e-06
3.89768e-07
-1.88028e-06
3.91677e-07
-2.02069e-06
3.87664e-07
-2.14838e-06
3.78122e-07
-2.26336e-06
3.63711e-07
-2.36605e-06
3.45081e-07
-2.45675e-06
3.22775e-07
-2.53585e-06
2.97581e-07
-2.60364e-06
2.70064e-07
-2.66038e-06
2.40782e-07
-2.70625e-06
2.10071e-07
-2.74137e-06
1.78284e-07
-2.76581e-06
1.45582e-07
-2.77957e-06
1.12056e-07
-2.7826e-06
7.77689e-08
-2.77475e-06
4.27068e-08
-2.75569e-06
6.77779e-09
-2.72604e-06
-3.01072e-08
-2.68396e-06
-6.75763e-08
-2.63031e-06
-1.06189e-07
-2.56452e-06
-1.45723e-07
-2.48629e-06
-1.86089e-07
-2.39537e-06
-2.26993e-07
-2.29164e-06
-2.68181e-07
-2.17502e-06
-3.09247e-07
-2.04563e-06
-3.49604e-07
-1.90386e-06
-3.88438e-07
-1.75036e-06
-4.24673e-07
-1.58616e-06
-4.57239e-07
-1.41265e-06
-4.84887e-07
-1.23169e-06
-5.06019e-07
-1.04576e-06
-5.19165e-07
-8.57632e-07
-5.23093e-07
-6.70601e-07
-5.16493e-07
-4.8829e-07
-4.98616e-07
-3.14409e-07
-4.69357e-07
-1.52261e-07
-4.2904e-07
-5.07186e-09
-3.78183e-07
1.24866e-07
-3.18003e-07
2.3458e-07
-2.49811e-07
3.22564e-07
-1.76245e-07
3.87985e-07
-1.00117e-07
4.29878e-07
-2.43959e-08
4.48048e-07
4.86738e-08
4.41185e-07
1.14899e-07
4.10881e-07
1.68857e-07
3.58187e-07
2.07297e-07
2.86316e-07
2.25002e-07
2.01852e-07
2.19833e-07
1.15363e-07
1.90962e-07
4.05627e-08
1.3813e-07
6.01444e-08
2.73319e-08
-5.89236e-08
7.96381e-08
-1.43768e-07
1.29215e-07
-1.69816e-07
1.67359e-07
-1.57239e-07
1.927e-07
-1.24864e-07
2.06399e-07
-8.52376e-08
2.09651e-07
-4.54427e-08
2.03575e-07
-9.5851e-09
1.88963e-07
2.02632e-08
1.6631e-07
4.35108e-08
1.3538e-07
6.13444e-08
9.56775e-08
7.6273e-08
4.64339e-08
9.128e-08
-1.32901e-08
1.08883e-07
-8.45855e-08
1.3063e-07
-1.68791e-07
1.57198e-07
-2.67375e-07
1.88731e-07
-3.81631e-07
2.251e-07
-5.12149e-07
2.65643e-07
-6.58484e-07
3.09361e-07
-8.1888e-07
3.5441e-07
-9.90191e-07
3.98365e-07
-1.16862e-06
4.39141e-07
-1.34986e-06
4.74249e-07
-1.52979e-06
5.02441e-07
-1.70451e-06
5.22456e-07
-1.87051e-06
5.33606e-07
-2.02506e-06
5.36268e-07
-2.16679e-06
5.31494e-07
-2.29527e-06
5.20164e-07
-2.41073e-06
5.03121e-07
-2.51376e-06
4.8115e-07
-2.60499e-06
4.5494e-07
-2.68514e-06
4.25238e-07
-2.75494e-06
3.92574e-07
-2.81494e-06
3.57578e-07
-2.86557e-06
3.20693e-07
-2.90714e-06
2.82355e-07
-2.93986e-06
2.42794e-07
-2.96381e-06
2.02228e-07
-2.979e-06
1.60772e-07
-2.98537e-06
1.18426e-07
-2.98276e-06
7.51639e-08
-2.97094e-06
3.0882e-08
-2.94965e-06
-1.45094e-08
-2.9187e-06
-6.10549e-08
-2.87746e-06
-1.08824e-07
-2.82569e-06
-1.57956e-07
-2.76299e-06
-2.08426e-07
-2.6889e-06
-2.60178e-07
-2.60305e-06
-3.12842e-07
-2.50515e-06
-3.66083e-07
-2.39495e-06
-4.19448e-07
-2.2723e-06
-4.72246e-07
-2.13722e-06
-5.23517e-07
-1.98999e-06
-5.71912e-07
-1.83138e-06
-6.15843e-07
-1.6624e-06
-6.53864e-07
-1.48449e-06
-6.83937e-07
-1.29972e-06
-7.03934e-07
-1.11055e-06
-7.12261e-07
-9.20017e-07
-7.07027e-07
-7.31696e-07
-6.86936e-07
-5.49759e-07
-6.51295e-07
-3.78038e-07
-6.00761e-07
-2.19685e-07
-5.36536e-07
-7.78036e-08
-4.59884e-07
4.54525e-08
-3.73067e-07
1.48328e-07
-2.7912e-07
2.29722e-07
-1.81511e-07
2.89213e-07
-8.38871e-08
3.27533e-07
1.03543e-08
3.44711e-07
9.77206e-08
3.4002e-07
1.73548e-07
3.13675e-07
2.33642e-07
2.66249e-07
2.72428e-07
2.01587e-07
2.84495e-07
1.25517e-07
2.67032e-07
4.85703e-08
2.15076e-07
1.08715e-07
3.33145e-08
-9.22381e-08
8.52224e-08
-1.95676e-07
1.26341e-07
-2.10934e-07
1.53167e-07
-1.84066e-07
1.66401e-07
-1.38098e-07
1.68249e-07
-8.70859e-08
1.60084e-07
-3.72779e-08
1.42654e-07
7.84542e-09
1.16119e-07
4.67977e-08
8.00473e-08
7.95826e-08
3.34758e-08
1.07916e-07
-2.47709e-08
1.3452e-07
-9.58454e-08
1.62354e-07
-1.80816e-07
1.93853e-07
-2.80691e-07
2.30505e-07
-3.9633e-07
2.72837e-07
-5.28186e-07
3.20587e-07
-6.76051e-07
3.72965e-07
-8.38511e-07
4.28103e-07
-1.01252e-06
4.8337e-07
-1.19431e-06
5.36196e-07
-1.37931e-06
5.83365e-07
-1.56322e-06
6.23058e-07
-1.74183e-06
6.52853e-07
-1.91076e-06
6.71373e-07
-2.06739e-06
6.79088e-07
-2.2108e-06
6.77015e-07
-2.34101e-06
6.66477e-07
-2.45847e-06
6.48951e-07
-2.56389e-06
6.2559e-07
-2.65815e-06
5.97377e-07
-2.74207e-06
5.65067e-07
-2.81639e-06
5.29266e-07
-2.88177e-06
4.90616e-07
-2.93881e-06
4.49616e-07
-2.98795e-06
4.0672e-07
-3.02954e-06
3.62281e-07
-3.06381e-06
3.16627e-07
-3.09091e-06
2.69894e-07
-3.1108e-06
2.2212e-07
-3.12348e-06
1.73448e-07
-3.12885e-06
1.23795e-07
-3.12674e-06
7.30532e-08
-3.11688e-06
2.10204e-08
-3.099e-06
-3.23859e-08
-3.07269e-06
-8.73657e-08
-3.03747e-06
-1.44042e-07
-2.99295e-06
-2.02476e-07
-2.93869e-06
-2.62687e-07
-2.87408e-06
-3.24784e-07
-2.79847e-06
-3.88458e-07
-2.7114e-06
-4.53148e-07
-2.61242e-06
-5.18433e-07
-2.50111e-06
-5.83559e-07
-2.37706e-06
-6.4756e-07
-2.24008e-06
-7.08891e-07
-2.09072e-06
-7.65208e-07
-1.92948e-06
-8.15105e-07
-1.75724e-06
-8.56173e-07
-1.57582e-06
-8.85356e-07
-1.38726e-06
-9.00824e-07
-1.19433e-06
-8.99951e-07
-1.00015e-06
-8.81115e-07
-8.08694e-07
-8.42755e-07
-6.24655e-07
-7.848e-07
-4.52462e-07
-7.08728e-07
-2.95288e-07
-6.17059e-07
-1.55936e-07
-5.12419e-07
-3.66589e-08
-3.98397e-07
6.12107e-08
-2.7938e-07
1.3722e-07
-1.59896e-07
1.91831e-07
-4.42569e-08
2.26027e-07
6.35242e-08
2.40211e-07
1.59364e-07
2.34848e-07
2.39006e-07
2.1024e-07
2.97035e-07
1.67348e-07
3.27388e-07
1.09267e-07
3.25113e-07
4.37514e-08
2.80592e-07
1.52466e-07
3.68648e-08
-1.29103e-07
8.18838e-08
-2.40695e-07
1.10535e-07
-2.39585e-07
1.23562e-07
-1.97092e-07
1.23723e-07
-1.38259e-07
1.13012e-07
-7.63751e-08
9.24188e-08
-1.66845e-08
6.20809e-08
3.81834e-08
2.15489e-08
8.73297e-08
-3.03021e-08
1.31434e-07
-9.48517e-08
1.72465e-07
-1.73485e-07
2.13153e-07
-2.67376e-07
2.56245e-07
-3.77372e-07
3.0385e-07
-5.03928e-07
3.57061e-07
-6.46838e-07
4.15747e-07
-8.05064e-07
4.78812e-07
-9.76325e-07
5.44227e-07
-1.15721e-06
6.08986e-07
-1.34313e-06
6.69288e-07
-1.52957e-06
7.22643e-07
-1.71165e-06
7.65444e-07
-1.88413e-06
7.95536e-07
-2.04393e-06
8.12653e-07
-2.19016e-06
8.17605e-07
-2.32304e-06
8.11966e-07
-2.44335e-06
7.97327e-07
-2.55214e-06
7.75259e-07
-2.65027e-06
7.47088e-07
-2.7386e-06
7.13917e-07
-2.81787e-06
6.76644e-07
-2.88872e-06
6.3592e-07
-2.95181e-06
5.92356e-07
-3.00767e-06
5.46471e-07
-3.05672e-06
4.98672e-07
-3.09927e-06
4.49264e-07
-3.13552e-06
3.98536e-07
-3.16567e-06
3.46774e-07
-3.18987e-06
2.94092e-07
-3.20799e-06
2.40239e-07
-3.2201e-06
1.85565e-07
-3.22619e-06
1.29882e-07
-3.22618e-06
7.30392e-08
-3.21985e-06
1.46894e-08
-3.20719e-06
-4.50444e-08
-3.18777e-06
-1.06778e-07
-3.16114e-06
-1.70671e-07
-3.12675e-06
-2.36873e-07
-3.08397e-06
-3.05464e-07
-3.03216e-06
-3.766e-07
-2.97038e-06
-4.50231e-07
-2.89782e-06
-5.25714e-07
-2.8136e-06
-6.0265e-07
-2.71709e-06
-6.80069e-07
-2.6079e-06
-7.56752e-07
-2.48534e-06
-8.31451e-07
-2.34912e-06
-9.01429e-07
-2.19932e-06
-9.64901e-07
-2.03602e-06
-1.01947e-06
-1.86082e-06
-1.06056e-06
-1.67522e-06
-1.08642e-06
-1.4817e-06
-1.09347e-06
-1.28321e-06
-1.07961e-06
-1.08343e-06
-1.04253e-06
-8.86677e-07
-9.81557e-07
-6.9848e-07
-8.96926e-07
-5.23493e-07
-7.92045e-07
-3.65171e-07
-6.70741e-07
-2.26554e-07
-5.37014e-07
-1.09783e-07
-3.96151e-07
-1.58028e-08
-2.53876e-07
5.56622e-08
-1.15722e-07
1.05826e-07
1.33604e-08
1.36195e-07
1.28995e-07
1.47947e-07
2.27254e-07
1.41735e-07
3.03247e-07
1.18054e-07
3.51069e-07
7.92042e-08
3.63963e-07
3.14785e-08
3.28318e-07
1.83945e-07
3.69696e-08
-1.66073e-07
6.96217e-08
-2.73347e-07
8.36232e-08
-2.53587e-07
8.20344e-08
-1.95504e-07
6.86015e-08
-1.24826e-07
4.47503e-08
-5.25239e-08
1.08032e-08
1.72627e-08
-3.36899e-08
8.26764e-08
-8.97578e-08
1.43398e-07
-1.5879e-07
2.00466e-07
-2.42264e-07
2.55939e-07
-3.41451e-07
3.1234e-07
-4.57181e-07
3.71975e-07
-5.89671e-07
4.3634e-07
-7.38374e-07
5.05764e-07
-9.018e-07
5.79174e-07
-1.07714e-06
6.54155e-07
-1.2603e-06
7.27382e-07
-1.44657e-06
7.95256e-07
-1.63093e-06
8.53652e-07
-1.80737e-06
8.99081e-07
-1.97181e-06
9.29887e-07
-2.12259e-06
9.46317e-07
-2.25978e-06
9.4984e-07
-2.38423e-06
9.42051e-07
-2.49698e-06
9.24715e-07
-2.5991e-06
8.99454e-07
-2.69159e-06
8.67748e-07
-2.77524e-06
8.3074e-07
-2.85073e-06
7.89405e-07
-2.91862e-06
7.44533e-07
-2.97944e-06
6.96738e-07
-3.03365e-06
6.46573e-07
-3.08165e-06
5.94462e-07
-3.12377e-06
5.40799e-07
-3.16021e-06
4.85698e-07
-3.19105e-06
4.29383e-07
-3.21655e-06
3.72268e-07
-3.23683e-06
3.14369e-07
-3.25226e-06
2.5567e-07
-3.26272e-06
1.96027e-07
-3.26809e-06
1.35253e-07
-3.26822e-06
7.31674e-08
-3.2629e-06
9.37701e-09
-3.25239e-06
-5.55579e-08
-3.23664e-06
-1.22525e-07
-3.21561e-06
-1.91702e-07
-3.18915e-06
-2.63331e-07
-3.15696e-06
-3.37661e-07
-3.11869e-06
-4.14872e-07
-3.07364e-06
-4.95276e-07
-3.02052e-06
-5.78841e-07
-2.95804e-06
-6.65122e-07
-2.88454e-06
-7.53575e-07
-2.79794e-06
-8.43354e-07
-2.69637e-06
-9.33012e-07
-2.57907e-06
-1.01873e-06
-2.44627e-06
-1.0977e-06
-2.29833e-06
-1.16741e-06
-2.13502e-06
-1.22387e-06
-1.95733e-06
-1.26412e-06
-1.76756e-06
-1.28324e-06
-1.56817e-06
-1.279e-06
-1.36279e-06
-1.24791e-06
-1.15539e-06
-1.18896e-06
-9.51321e-07
-1.101e-06
-7.57185e-07
-9.86181e-07
-5.78001e-07
-8.49926e-07
-4.17522e-07
-6.97493e-07
-2.79017e-07
-5.34656e-07
-1.64466e-07
-3.68427e-07
-7.43017e-08
-2.05886e-07
-7.45586e-09
-5.34854e-08
3.80397e-08
8.34992e-08
6.45435e-08
2.0075e-07
7.37012e-08
2.94089e-07
6.65105e-08
3.5826e-07
4.52893e-08
3.85184e-07
1.64471e-08
3.5716e-07
2.00392e-07
3.24151e-08
-1.98488e-07
5.00415e-08
-2.90974e-07
4.82168e-08
-2.51762e-07
3.1735e-08
-1.79022e-07
4.43727e-09
-9.75287e-08
-3.30376e-08
-1.5049e-08
-8.10651e-08
6.52902e-08
-1.40578e-07
1.42189e-07
-2.12876e-07
2.15695e-07
-2.99372e-07
2.86962e-07
-4.01336e-07
3.57904e-07
-5.19624e-07
4.30627e-07
-6.54409e-07
5.0676e-07
-8.05042e-07
5.86973e-07
-9.69821e-07
6.70543e-07
-1.14558e-06
7.54933e-07
-1.32792e-06
8.36494e-07
-1.51187e-06
9.11338e-07
-1.6914e-06
9.74778e-07
-1.86118e-06
1.02344e-06
-2.01801e-06
1.05591e-06
-2.16121e-06
1.07308e-06
-2.29121e-06
1.07631e-06
-2.40895e-06
1.06759e-06
-2.51554e-06
1.04864e-06
-2.61209e-06
1.02127e-06
-2.69956e-06
9.86919e-07
-2.77867e-06
9.46863e-07
-2.85003e-06
9.021e-07
-2.91414e-06
8.5351e-07
-2.97141e-06
8.01808e-07
-3.02226e-06
7.47585e-07
-3.067e-06
6.91308e-07
-3.10581e-06
6.33278e-07
-3.13911e-06
5.74099e-07
-3.1676e-06
5.14184e-07
-3.19182e-06
4.53601e-07
-3.21181e-06
3.92263e-07
-3.22745e-06
3.30007e-07
-3.23889e-06
2.67108e-07
-3.24607e-06
2.03211e-07
-3.24913e-06
1.38315e-07
-3.24822e-06
7.22542e-08
-3.24313e-06
4.28671e-09
-3.23447e-06
-6.42167e-08
-3.22196e-06
-1.35041e-07
-3.20548e-06
-2.08174e-07
-3.18488e-06
-2.83934e-07
-3.15987e-06
-3.62674e-07
-3.13014e-06
-4.44595e-07
-3.09552e-06
-5.29903e-07
-3.05551e-06
-6.18851e-07
-3.0095e-06
-7.11131e-07
-2.95665e-06
-8.06426e-07
-2.89601e-06
-9.03988e-07
-2.82589e-06
-1.00313e-06
-2.74183e-06
-1.1028e-06
-2.63959e-06
-1.19993e-06
-2.51711e-06
-1.2899e-06
-2.37441e-06
-1.36656e-06
-2.21306e-06
-1.42547e-06
-2.03485e-06
-1.46144e-06
-1.84118e-06
-1.47267e-06
-1.63581e-06
-1.45327e-06
-1.42245e-06
-1.40231e-06
-1.20585e-06
-1.3176e-06
-9.93046e-07
-1.19899e-06
-7.91771e-07
-1.0512e-06
-6.07675e-07
-8.81589e-07
-4.44908e-07
-6.97423e-07
-3.06869e-07
-5.06466e-07
-1.95262e-07
-3.17493e-07
-1.09872e-07
-1.38875e-07
-4.8662e-08
2.22892e-08
-8.34929e-09
1.60438e-07
1.39376e-08
2.71802e-07
2.05966e-08
3.51601e-07
1.48296e-08
3.90951e-07
3.05925e-09
3.6893e-07
2.03451e-07
2.35763e-08
-2.22064e-07
2.47205e-08
-2.92118e-07
6.35325e-09
-2.33395e-07
-2.45008e-08
-1.48168e-07
-6.56924e-08
-5.63372e-08
-1.1713e-07
3.63883e-08
-1.79623e-07
1.27784e-07
-2.54389e-07
2.16955e-07
-3.42746e-07
3.04052e-07
-4.45889e-07
3.90105e-07
-5.64653e-07
4.76667e-07
-6.99225e-07
5.65199e-07
-8.49022e-07
6.56558e-07
-1.0124e-06
7.5035e-07
-1.18601e-06
8.4415e-07
-1.36531e-06
9.34233e-07
-1.54506e-06
1.01624e-06
-1.71904e-06
1.08531e-06
-1.88242e-06
1.13816e-06
-2.03285e-06
1.17387e-06
-2.1698e-06
1.19287e-06
-2.2938e-06
1.19708e-06
-2.40586e-06
1.18837e-06
-2.50708e-06
1.16881e-06
-2.59852e-06
1.14008e-06
-2.68107e-06
1.10382e-06
-2.75539e-06
1.06124e-06
-2.82204e-06
1.01351e-06
-2.88146e-06
9.61523e-07
-2.93407e-06
9.06122e-07
-2.98025e-06
8.47985e-07
-3.0204e-06
7.87737e-07
-3.0551e-06
7.2601e-07
-3.08504e-06
6.63212e-07
-3.1104e-06
5.99463e-07
-3.13115e-06
5.34931e-07
-3.14735e-06
4.69798e-07
-3.15911e-06
4.04024e-07
-3.16691e-06
3.37806e-07
-3.17112e-06
2.71319e-07
-3.17221e-06
2.04302e-07
-3.1705e-06
1.36609e-07
-3.16626e-06
6.8011e-08
-3.15984e-06
-2.12784e-09
-3.15101e-06
-7.30485e-08
-3.13986e-06
-1.46196e-07
-3.12641e-06
-2.21617e-07
-3.11066e-06
-2.99686e-07
-3.09255e-06
-3.8079e-07
-3.07188e-06
-4.65265e-07
-3.04832e-06
-5.53457e-07
-3.02149e-06
-6.45689e-07
-2.99059e-06
-7.42028e-07
-2.95465e-06
-8.42362e-07
-2.91249e-06
-9.4615e-07
-2.86345e-06
-1.05217e-06
-2.80597e-06
-1.16028e-06
-2.73835e-06
-1.26756e-06
-2.65631e-06
-1.37194e-06
-2.55233e-06
-1.47054e-06
-2.42208e-06
-1.55573e-06
-2.26597e-06
-1.61755e-06
-2.08818e-06
-1.65046e-06
-1.89144e-06
-1.65001e-06
-1.67958e-06
-1.61417e-06
-1.45685e-06
-1.54033e-06
-1.22971e-06
-1.42613e-06
-1.00689e-06
-1.27403e-06
-7.97759e-07
-1.09072e-06
-6.08729e-07
-8.86453e-07
-4.44334e-07
-6.70861e-07
-3.07984e-07
-4.53843e-07
-2.00889e-07
-2.4597e-07
-1.21849e-07
-5.67511e-08
-6.7547e-08
1.06136e-07
-3.3328e-08
2.37583e-07
-1.50798e-08
3.33353e-07
-7.64052e-09
3.83512e-07
-5.41159e-09
3.66701e-07
1.98039e-07
1.15978e-08
-2.33662e-07
-4.80993e-09
-2.7571e-07
-3.86847e-08
-1.9952e-07
-8.39154e-08
-1.02937e-07
-1.39054e-07
-1.19835e-09
-2.0445e-07
1.01784e-07
-2.81291e-07
2.04624e-07
-3.70835e-07
3.065e-07
-4.74212e-07
4.07429e-07
-5.92211e-07
5.08104e-07
-7.25045e-07
6.09502e-07
-8.72256e-07
7.1241e-07
-1.0324e-06
8.16699e-07
-1.20223e-06
9.20184e-07
-1.37711e-06
1.01903e-06
-1.55165e-06
1.10877e-06
-1.72009e-06
1.18468e-06
-1.87791e-06
1.24314e-06
-2.02297e-06
1.28322e-06
-2.15464e-06
1.30554e-06
-2.27351e-06
1.31174e-06
-2.38056e-06
1.30413e-06
-2.47688e-06
1.2847e-06
-2.56343e-06
1.25535e-06
-2.641e-06
1.21765e-06
-2.7102e-06
1.17302e-06
-2.77154e-06
1.12259e-06
-2.82549e-06
1.06745e-06
-2.87248e-06
1.00852e-06
-2.91298e-06
9.46622e-07
-2.94748e-06
8.8248e-07
-2.97645e-06
8.16706e-07
-3.00015e-06
7.49713e-07
-3.01889e-06
6.81957e-07
-3.03308e-06
6.13644e-07
-3.04319e-06
5.45047e-07
-3.04979e-06
4.76393e-07
-3.05348e-06
4.07718e-07
-3.05469e-06
3.39016e-07
-3.05358e-06
2.70205e-07
-3.05039e-06
2.01113e-07
-3.04534e-06
1.31561e-07
-3.03859e-06
6.12647e-08
-3.0306e-06
-1.01248e-08
-3.02098e-06
-8.26638e-08
-3.01017e-06
-1.57007e-07
-2.99831e-06
-2.33483e-07
-2.98549e-06
-3.12504e-07
-2.9718e-06
-3.9448e-07
-2.95723e-06
-4.79834e-07
-2.94169e-06
-5.68994e-07
-2.92503e-06
-6.62356e-07
-2.90685e-06
-7.60205e-07
-2.88655e-06
-8.62657e-07
-2.86316e-06
-9.69543e-07
-2.8349e-06
-1.08043e-06
-2.80044e-06
-1.19474e-06
-2.75743e-06
-1.31057e-06
-2.70408e-06
-1.42528e-06
-2.63779e-06
-1.53683e-06
-2.55343e-06
-1.64008e-06
-2.43983e-06
-1.73116e-06
-2.29336e-06
-1.79693e-06
-2.11655e-06
-1.82682e-06
-1.91684e-06
-1.81389e-06
-1.6972e-06
-1.75997e-06
-1.46388e-06
-1.65945e-06
-1.22486e-06
-1.51304e-06
-9.91172e-07
-1.32441e-06
-7.74029e-07
-1.1036e-06
-5.80796e-07
-8.64094e-07
-4.16299e-07
-6.1834e-07
-2.83675e-07
-3.78594e-07
-1.83235e-07
-1.57192e-07
-1.12452e-07
3.53531e-08
-6.60436e-08
1.91174e-07
-3.79441e-08
3.05253e-07
-2.04266e-08
3.65994e-07
-9.12358e-09
3.55398e-07
1.88916e-07
-2.30134e-09
-2.31361e-07
-3.56193e-08
-2.42392e-07
-8.49411e-08
-1.50198e-07
-1.44306e-07
-4.35719e-08
-2.12998e-07
6.74934e-08
-2.92001e-07
1.80787e-07
-3.82512e-07
2.95136e-07
-4.85686e-07
4.09673e-07
-6.02309e-07
5.24052e-07
-7.32632e-07
6.38427e-07
-8.76315e-07
7.53184e-07
-1.03217e-06
8.68265e-07
-1.19725e-06
9.81783e-07
-1.36701e-06
1.08994e-06
-1.53616e-06
1.18818e-06
-1.69937e-06
1.27199e-06
-1.85235e-06
1.33766e-06
-1.99281e-06
1.38359e-06
-2.12006e-06
1.41047e-06
-2.23447e-06
1.41995e-06
-2.33707e-06
1.41434e-06
-2.42881e-06
1.39588e-06
-2.51059e-06
1.36647e-06
-2.58309e-06
1.32785e-06
-2.64687e-06
1.28143e-06
-2.70241e-06
1.22856e-06
-2.75021e-06
1.17039e-06
-2.79077e-06
1.108e-06
-2.82461e-06
1.04236e-06
-2.8523e-06
9.74316e-07
-2.87441e-06
9.04591e-07
-2.89148e-06
8.33776e-07
-2.90409e-06
7.62322e-07
-2.91278e-06
6.90642e-07
-2.91812e-06
6.18984e-07
-2.92064e-06
5.47569e-07
-2.92075e-06
4.76506e-07
-2.91881e-06
4.05772e-07
-2.91508e-06
3.35288e-07
-2.9098e-06
2.64925e-07
-2.90318e-06
1.94494e-07
-2.89539e-06
1.23774e-07
-2.88662e-06
5.24902e-08
-2.8771e-06
-1.9642e-08
-2.86685e-06
-9.29132e-08
-2.85611e-06
-1.67749e-07
-2.84507e-06
-2.44522e-07
-2.83392e-06
-3.23655e-07
-2.82283e-06
-4.05572e-07
-2.81194e-06
-4.90723e-07
-2.80136e-06
-5.79569e-07
-2.79116e-06
-6.72558e-07
-2.78128e-06
-7.70084e-07
-2.77149e-06
-8.72451e-07
-2.76121e-06
-9.79822e-07
-2.74944e-06
-1.0922e-06
-2.73494e-06
-1.20924e-06
-2.71558e-06
-1.32993e-06
-2.68818e-06
-1.45269e-06
-2.64996e-06
-1.57504e-06
-2.59781e-06
-1.69224e-06
-2.52768e-06
-1.80129e-06
-2.43051e-06
-1.8941e-06
-2.29452e-06
-1.96281e-06
-2.12032e-06
-1.98809e-06
-1.91658e-06
-1.9637e-06
-1.68792e-06
-1.88811e-06
-1.4425e-06
-1.75846e-06
-1.19061e-06
-1.5763e-06
-9.45864e-07
-1.34834e-06
-7.21548e-07
-1.08841e-06
-5.2598e-07
-8.13908e-07
-3.63945e-07
-5.40629e-07
-2.37879e-07
-2.83257e-07
-1.46677e-07
-5.58495e-08
-8.57797e-08
1.30277e-07
-4.78042e-08
2.67278e-07
-2.36647e-08
3.41855e-07
-8.19544e-09
3.39929e-07
1.8072e-07
-1.71228e-08
-2.14238e-07
-6.70726e-08
-1.92442e-07
-1.30844e-07
-8.64262e-08
-2.03601e-07
2.91844e-08
-2.85262e-07
1.49155e-07
-3.76974e-07
2.72499e-07
-4.79942e-07
3.98104e-07
-5.95045e-07
5.24777e-07
-7.22626e-07
6.51633e-07
-8.62456e-07
7.78257e-07
-1.01359e-06
9.04321e-07
-1.17348e-06
1.02816e-06
-1.33787e-06
1.14617e-06
-1.50174e-06
1.2538e-06
-1.66016e-06
1.34661e-06
-1.80902e-06
1.42085e-06
-1.94564e-06
1.47428e-06
-2.06917e-06
1.50711e-06
-2.17983e-06
1.52114e-06
-2.27849e-06
1.5186e-06
-2.36608e-06
1.50192e-06
-2.44335e-06
1.47314e-06
-2.51094e-06
1.43406e-06
-2.56938e-06
1.38629e-06
-2.61919e-06
1.33124e-06
-2.66092e-06
1.27029e-06
-2.69518e-06
1.20466e-06
-2.72266e-06
1.13548e-06
-2.74406e-06
1.06376e-06
-2.76011e-06
9.90357e-07
-2.77149e-06
9.15973e-07
-2.77888e-06
8.41169e-07
-2.78293e-06
7.66369e-07
-2.78419e-06
6.919e-07
-2.78315e-06
6.17951e-07
-2.78023e-06
5.44643e-07
-2.77571e-06
4.71987e-07
-2.76985e-06
3.99909e-07
-2.76284e-06
3.28286e-07
-2.75487e-06
2.56956e-07
-2.74609e-06
1.85714e-07
-2.73664e-06
1.14322e-07
-2.72666e-06
4.25121e-08
-2.71631e-06
-2.99969e-08
-2.7057e-06
-1.03523e-07
-2.69502e-06
-1.78431e-07
-2.68445e-06
-2.55084e-07
-2.67423e-06
-3.33881e-07
-2.66456e-06
-4.15239e-07
-2.65568e-06
-4.996e-07
-2.64783e-06
-5.87426e-07
-2.6412e-06
-6.79184e-07
-2.63596e-06
-7.75326e-07
-2.63214e-06
-8.76267e-07
-2.62961e-06
-9.82358e-07
-2.62797e-06
-1.09384e-06
-2.62649e-06
-1.21072e-06
-2.62377e-06
-1.33264e-06
-2.61769e-06
-1.45877e-06
-2.6053e-06
-1.58744e-06
-2.58175e-06
-1.71579e-06
-2.54333e-06
-1.83971e-06
-2.48488e-06
-1.95255e-06
-2.39954e-06
-2.04815e-06
-2.27219e-06
-2.11544e-06
-2.10011e-06
-2.13579e-06
-1.89074e-06
-2.09747e-06
-1.6513e-06
-1.9979e-06
-1.39242e-06
-1.83518e-06
-1.12728e-06
-1.61348e-06
-8.72362e-07
-1.34333e-06
-6.43158e-07
-1.04311e-06
-4.48534e-07
-7.35253e-07
-2.92739e-07
-4.39052e-07
-1.76846e-07
-1.71742e-07
-9.77062e-08
5.11373e-08
-4.81672e-08
2.17739e-07
-1.92313e-08
3.12919e-07
-3.79953e-09
3.24497e-07
1.76921e-07
-3.20833e-08
-1.82154e-07
-9.74504e-08
-1.27075e-07
-1.74762e-07
-9.11487e-09
-2.59996e-07
1.14418e-07
-3.53612e-07
2.42771e-07
-4.56796e-07
3.75683e-07
-5.70613e-07
5.1192e-07
-6.95598e-07
6.49762e-07
-8.31674e-07
7.87709e-07
-9.78113e-07
9.24696e-07
-1.13275e-06
1.05896e-06
-1.29182e-06
1.18722e-06
-1.45068e-06
1.30503e-06
-1.60478e-06
1.4079e-06
-1.75013e-06
1.49196e-06
-1.88376e-06
1.55447e-06
-2.00434e-06
1.59486e-06
-2.11199e-06
1.61476e-06
-2.20737e-06
1.61653e-06
-2.29134e-06
1.60257e-06
-2.36461e-06
1.57519e-06
-2.42776e-06
1.5363e-06
-2.48135e-06
1.48765e-06
-2.52594e-06
1.43088e-06
-2.5622e-06
1.36751e-06
-2.59088e-06
1.29897e-06
-2.61281e-06
1.22658e-06
-2.62883e-06
1.15151e-06
-2.63981e-06
1.07474e-06
-2.64655e-06
9.97095e-07
-2.64978e-06
9.19209e-07
-2.65018e-06
8.4156e-07
-2.64829e-06
7.64484e-07
-2.64459e-06
6.88197e-07
-2.63944e-06
6.12804e-07
-2.63313e-06
5.3833e-07
-2.62586e-06
4.64715e-07
-2.61779e-06
3.9184e-07
-2.60905e-06
3.19554e-07
-2.59976e-06
2.47663e-07
-2.59e-06
1.75952e-07
-2.57986e-06
1.04183e-07
-2.56944e-06
3.20947e-08
-2.55885e-06
-4.059e-08
-2.5482e-06
-1.1417e-07
-2.53766e-06
-1.88973e-07
-2.52741e-06
-2.65336e-07
-2.51767e-06
-3.43624e-07
-2.50868e-06
-4.24223e-07
-2.50073e-06
-5.07548e-07
-2.49412e-06
-5.94039e-07
-2.48915e-06
-6.84157e-07
-2.4861e-06
-7.78374e-07
-2.4852e-06
-8.77166e-07
-2.48657e-06
-9.80987e-07
-2.49018e-06
-1.09023e-06
-2.49573e-06
-1.20517e-06
-2.50253e-06
-1.32584e-06
-2.50934e-06
-1.45195e-06
-2.51412e-06
-1.58266e-06
-2.5136e-06
-1.71631e-06
-2.50334e-06
-1.84997e-06
-2.47691e-06
-1.97897e-06
-2.42879e-06
-2.09627e-06
-2.35061e-06
-2.19362e-06
-2.22884e-06
-2.25756e-06
-2.05632e-06
-2.27e-06
-1.83933e-06
-2.21489e-06
-1.58723e-06
-2.08729e-06
-1.314e-06
-1.8867e-06
-1.03618e-06
-1.62115e-06
-7.73566e-07
-1.30573e-06
-5.43654e-07
-9.65165e-07
-3.54957e-07
-6.27749e-07
-2.10604e-07
-3.16095e-07
-1.09457e-07
-5.00097e-08
-4.57751e-08
1.54057e-07
-1.14026e-08
2.78546e-07
2.33788e-09
3.10757e-07
1.79259e-07
-4.63771e-08
-1.35777e-07
-1.25767e-07
-4.76859e-08
-2.15298e-07
8.04167e-08
-3.11921e-07
2.11041e-07
-4.16188e-07
3.47038e-07
-5.29303e-07
4.88798e-07
-6.52106e-07
6.34723e-07
-7.84791e-07
7.82447e-07
-9.26842e-07
9.29761e-07
-1.07647e-06
1.07432e-06
-1.23044e-06
1.21293e-06
-1.3847e-06
1.34148e-06
-1.53497e-06
1.45531e-06
-1.67739e-06
1.55032e-06
-1.80878e-06
1.62334e-06
-1.9273e-06
1.67299e-06
-2.03274e-06
1.7003e-06
-2.12565e-06
1.70767e-06
-2.20675e-06
1.69762e-06
-2.27674e-06
1.67256e-06
-2.3362e-06
1.63465e-06
-2.38571e-06
1.58581e-06
-2.42592e-06
1.52786e-06
-2.45761e-06
1.46257e-06
-2.48166e-06
1.39156e-06
-2.49904e-06
1.31635e-06
-2.51075e-06
1.23829e-06
-2.51773e-06
1.15849e-06
-2.52087e-06
1.07788e-06
-2.52096e-06
9.97185e-07
-2.51867e-06
9.16917e-07
-2.51456e-06
8.37443e-07
-2.50906e-06
7.58984e-07
-2.50251e-06
6.81652e-07
-2.49517e-06
6.05465e-07
-2.48721e-06
5.30368e-07
-2.47874e-06
4.56247e-07
-2.46985e-06
3.8295e-07
-2.4606e-06
3.10303e-07
-2.45103e-06
2.38093e-07
-2.44117e-06
1.66093e-07
-2.43107e-06
9.4082e-08
-2.42079e-06
2.18091e-08
-2.41038e-06
-5.09935e-08
-2.39996e-06
-1.24592e-07
-2.38966e-06
-1.99277e-07
-2.37964e-06
-2.75352e-07
-2.37013e-06
-3.53139e-07
-2.36137e-06
-4.32983e-07
-2.35366e-06
-5.15257e-07
-2.34734e-06
-6.0036e-07
-2.34277e-06
-6.88728e-07
-2.34032e-06
-7.80823e-07
-2.34034e-06
-8.77139e-07
-2.34314e-06
-9.78186e-07
-2.34892e-06
-1.08446e-06
-2.35767e-06
-1.19642e-06
-2.36913e-06
-1.31437e-06
-2.38265e-06
-1.43844e-06
-2.39696e-06
-1.56835e-06
-2.41001e-06
-1.70326e-06
-2.41859e-06
-1.84139e-06
-2.41787e-06
-1.9797e-06
-2.401e-06
-2.11315e-06
-2.3605e-06
-2.23411e-06
-2.28702e-06
-2.33104e-06
-2.16622e-06
-2.3908e-06
-1.99001e-06
-2.3911e-06
-1.76248e-06
-2.31482e-06
-1.49598e-06
-2.1532e-06
-1.20823e-06
-1.90889e-06
-9.19772e-07
-1.59419e-06
-6.54255e-07
-1.23068e-06
-4.30057e-07
-8.51947e-07
-2.54341e-07
-4.91811e-07
-1.28111e-07
-1.7624e-07
-4.73477e-08
7.32938e-08
-5.29233e-09
2.36491e-07
7.64829e-09
2.97816e-07
1.86907e-07
-5.94242e-08
-7.63532e-08
-1.51101e-07
4.39911e-08
-2.51579e-07
1.80895e-07
-3.58155e-07
3.17617e-07
-4.71538e-07
4.6042e-07
-5.92834e-07
6.10094e-07
-7.22648e-07
7.64538e-07
-8.60777e-07
9.20575e-07
-1.0058e-06
1.07478e-06
-1.15504e-06
1.22356e-06
-1.30513e-06
1.36302e-06
-1.45207e-06
1.48842e-06
-1.5921e-06
1.59533e-06
-1.72192e-06
1.68015e-06
-1.83928e-06
1.7407e-06
-1.94345e-06
1.77717e-06
-2.03479e-06
1.79164e-06
-2.11394e-06
1.78682e-06
-2.18155e-06
1.76524e-06
-2.23825e-06
1.72926e-06
-2.28464e-06
1.68105e-06
-2.32148e-06
1.62264e-06
-2.34963e-06
1.55601e-06
-2.37011e-06
1.48305e-06
-2.38401e-06
1.40546e-06
-2.39244e-06
1.32478e-06
-2.39643e-06
1.24228e-06
-2.39694e-06
1.159e-06
-2.39479e-06
1.07573e-06
-2.39066e-06
9.93056e-07
-2.38511e-06
9.11361e-07
-2.37855e-06
8.30882e-07
-2.3713e-06
7.51732e-07
-2.36357e-06
6.73925e-07
-2.35551e-06
5.97403e-07
-2.34719e-06
5.22052e-07
-2.33866e-06
4.47717e-07
-2.32993e-06
3.74218e-07
-2.32099e-06
3.01367e-07
-2.31185e-06
2.28949e-07
-2.30248e-06
1.56729e-07
-2.2929e-06
8.44991e-08
-2.28313e-06
1.20361e-08
-2.2732e-06
-6.09192e-08
-2.2632e-06
-1.34593e-07
-2.25323e-06
-2.09243e-07
-2.24345e-06
-2.85132e-07
-2.23406e-06
-3.62537e-07
-2.22528e-06
-4.41757e-07
-2.21743e-06
-5.23111e-07
-2.21084e-06
-6.06953e-07
-2.20589e-06
-6.93671e-07
-2.20302e-06
-7.83696e-07
-2.20266e-06
-8.77505e-07
-2.20522e-06
-9.75621e-07
-2.21108e-06
-1.0786e-06
-2.2205e-06
-1.187e-06