/*--------------------------------*- C++ -*----------------------------------*\
  =========                 |
  \\      /  F ield         | OpenFOAM: The Open Source CFD Toolbox
   \\    /   O peration     | Website:  https://openfoam.org
    \\  /    A nd           | Version:  13
     \\/     M anipulation  |
\*---------------------------------------------------------------------------*/
FoamFile
{
    format      ascii;
    class       volVectorField;
    location    "6.7";
    object      U;
}
// * * * * * * * * * * * * * * * * * * * * * * * * * * * * * * * * * * * * * //

dimensions      [0 1 -1 0 0 0 0];

internalField   nonuniform List<vector> 
6400
(
(-0.00012337 8.12377e-05 0)
(0.000433572 -0.000168645 0)
(0.0020461 -0.000423495 0)
(0.00418152 -0.00053689 0)
(0.00631018 -0.000473534 0)
(0.00809015 -0.00031669 0)
(0.0092782 -0.000127574 0)
(0.00987562 1.49465e-05 0)
(0.0100062 6.84355e-05 0)
(0.00990569 4.72778e-05 0)
(0.00970052 -2.92725e-05 0)
(0.00955289 -0.000134445 0)
(0.00952963 -0.000243075 0)
(0.00962727 -0.000331321 0)
(0.00979907 -0.000403005 0)
(0.00996694 -0.000455947 0)
(0.0100586 -0.000490027 0)
(0.0100208 -0.000494149 0)
(0.00981654 -0.000477261 0)
(0.00935263 -0.000438557 0)
(0.00858794 -0.000390244 0)
(0.00746836 -0.000340899 0)
(0.00594814 -0.000294945 0)
(0.00400056 -0.00027587 0)
(0.00159037 -0.000320712 0)
(-0.0012601 -0.000431753 0)
(-0.00455663 -0.000490335 0)
(-0.00853823 -0.000333641 0)
(-0.0133256 0.000156374 0)
(-0.0188867 0.000998168 0)
(-0.0260558 0.00202873 0)
(-0.034038 0.00290958 0)
(-0.0427089 0.00362694 0)
(-0.0517656 0.00416565 0)
(-0.0609558 0.00452929 0)
(-0.0700442 0.00472993 0)
(-0.078845 0.00479086 0)
(-0.0872004 0.00473476 0)
(-0.0949926 0.0045836 0)
(-0.102122 0.00435536 0)
(-0.108511 0.00406236 0)
(-0.114099 0.00371369 0)
(-0.118837 0.00331276 0)
(-0.122699 0.00286356 0)
(-0.125646 0.00237634 0)
(-0.127534 0.00189492 0)
(-0.128374 0.00145517 0)
(-0.128425 0.000785474 0)
(-0.127089 0.000221894 0)
(-0.124837 -0.00044911 0)
(-0.121303 -0.00108985 0)
(-0.116691 -0.001754 0)
(-0.110865 -0.00239447 0)
(-0.103929 -0.00302011 0)
(-0.0959003 -0.00362694 0)
(-0.086898 -0.00421659 0)
(-0.0769118 -0.00473589 0)
(-0.0661332 -0.0051785 0)
(-0.0547187 -0.00551763 0)
(-0.0428713 -0.00571565 0)
(-0.0308327 -0.00574103 0)
(-0.0188849 -0.00557647 0)
(-0.00729461 -0.00521945 0)
(0.00354616 -0.00470569 0)
(0.0132992 -0.00397062 0)
(0.0217085 -0.00305063 0)
(0.0284725 -0.00199334 0)
(0.0333061 -0.000845417 0)
(0.0362253 0.000313155 0)
(0.036619 0.00155186 0)
(0.0353112 0.00220299 0)
(0.031917 0.00279305 0)
(0.0267343 0.00300768 0)
(0.0206785 0.0027259 0)
(0.014517 0.00205043 0)
(0.00906829 0.00122523 0)
(0.00478421 0.000542155 0)
(0.00182254 0.000129487 0)
(0.000175382 -0.000163022 0)
(-0.000230595 -0.00034212 0)
(1.42801e-05 -0.00037324 0)
(0.00177297 -0.00205911 0)
(0.00513877 -0.00347131 0)
(0.00891301 -0.00395762 0)
(0.0124049 -0.00359086 0)
(0.0151935 -0.00273826 0)
(0.0171015 -0.00169402 0)
(0.0181492 -0.000739553 0)
(0.0184616 -6.06793e-05 0)
(0.0181965 0.000306171 0)
(0.0175554 0.000411063 0)
(0.0167001 0.000329589 0)
(0.0157193 0.000182529 0)
(0.0146046 8.14479e-05 0)
(0.0132859 8.89281e-05 0)
(0.0116612 0.00021821 0)
(0.00964169 0.000448681 0)
(0.00716637 0.000762459 0)
(0.00412376 0.00117662 0)
(0.000409781 0.00170343 0)
(-0.00408337 0.00234764 0)
(-0.00957298 0.00312636 0)
(-0.016168 0.00401048 0)
(-0.0239305 0.00498389 0)
(-0.0329077 0.00606332 0)
(-0.0431915 0.0072569 0)
(-0.0547061 0.00858774 0)
(-0.0671076 0.0100564 0)
(-0.0800339 0.0116133 0)
(-0.092971 0.0131028 0)
(-0.105346 0.0142146 0)
(-0.117391 0.014919 0)
(-0.128804 0.01522 0)
(-0.139504 0.0151381 0)
(-0.149391 0.0147428 0)
(-0.158398 0.014083 0)
(-0.166484 0.0132147 0)
(-0.173615 0.0121822 0)
(-0.179776 0.0110234 0)
(-0.184953 0.00976733 0)
(-0.189134 0.00843199 0)
(-0.192316 0.00703395 0)
(-0.194491 0.00557975 0)
(-0.19565 0.00408197 0)
(-0.195785 0.00254958 0)
(-0.194862 0.000984014 0)
(-0.192881 -0.000636591 0)
(-0.189878 -0.00233123 0)
(-0.185743 -0.00406977 0)
(-0.180558 -0.00584631 0)
(-0.174247 -0.00764456 0)
(-0.166847 -0.00944853 0)
(-0.158326 -0.0112367 0)
(-0.14871 -0.0129784 0)
(-0.138005 -0.0146405 0)
(-0.126274 -0.0161706 0)
(-0.113637 -0.0175342 0)
(-0.100188 -0.0186752 0)
(-0.0860986 -0.0195175 0)
(-0.0715874 -0.0200114 0)
(-0.0568605 -0.0200919 0)
(-0.0421757 -0.0197135 0)
(-0.0278203 -0.0188493 0)
(-0.0141004 -0.0175036 0)
(-0.00130277 -0.0156461 0)
(0.010298 -0.0133107 0)
(0.0204173 -0.0105343 0)
(0.0288088 -0.00743483 0)
(0.0353065 -0.00408802 0)
(0.0397136 -0.000678336 0)
(0.0420233 0.00254393 0)
(0.0420939 0.00551077 0)
(0.0400247 0.00795239 0)
(0.0359908 0.00962729 0)
(0.0301574 0.00984124 0)
(0.0228969 0.00892699 0)
(0.0152272 0.00711409 0)
(0.00826591 0.00482424 0)
(0.00309163 0.00235538 0)
(0.000232006 0.000305621 0)
(0.000197275 -0.00159709 0)
(0.00313773 -0.00529591 0)
(0.0073675 -0.00752535 0)
(0.0113451 -0.00782158 0)
(0.0146223 -0.00675383 0)
(0.0169859 -0.00497591 0)
(0.0184578 -0.00305266 0)
(0.019098 -0.00131368 0)
(0.0189822 5.95029e-05 0)
(0.0182077 0.000985737 0)
(0.0169236 0.00148874 0)
(0.0152058 0.00171679 0)
(0.0130707 0.00186218 0)
(0.0104805 0.00209779 0)
(0.00734907 0.00253066 0)
(0.00357454 0.00318688 0)
(-0.000964819 0.00405538 0)
(-0.00642953 0.00514602 0)
(-0.0129449 0.00648148 0)
(-0.020632 0.00809695 0)
(-0.029577 0.0100008 0)
(-0.0397642 0.0121383 0)
(-0.0511625 0.0144257 0)
(-0.063639 0.0167431 0)
(-0.0769451 0.0189668 0)
(-0.0907817 0.0210032 0)
(-0.104783 0.0227564 0)
(-0.118636 0.0241672 0)
(-0.132001 0.0251722 0)
(-0.144617 0.025752 0)
(-0.156316 0.0258989 0)
(-0.167045 0.0256072 0)
(-0.176731 0.0249265 0)
(-0.18544 0.0238898 0)
(-0.193169 0.0225412 0)
(-0.199957 0.0209511 0)
(-0.205826 0.019165 0)
(-0.210804 0.0172291 0)
(-0.214903 0.0151728 0)
(-0.218137 0.013031 0)
(-0.220516 0.0108158 0)
(-0.222041 0.00853843 0)
(-0.222709 0.00620814 0)
(-0.222513 0.00382437 0)
(-0.221445 0.00138764 0)
(-0.219497 -0.0011097 0)
(-0.216616 -0.00368723 0)
(-0.212797 -0.00633273 0)
(-0.208016 -0.00902131 0)
(-0.202256 -0.011761 0)
(-0.195486 -0.0145313 0)
(-0.187697 -0.0173144 0)
(-0.178876 -0.0200807 0)
(-0.169028 -0.0227898 0)
(-0.158168 -0.0253866 0)
(-0.146336 -0.0277982 0)
(-0.133609 -0.0299545 0)
(-0.12008 -0.0317653 0)
(-0.105865 -0.0331285 0)
(-0.0911503 -0.0339546 0)
(-0.0761515 -0.0341564 0)
(-0.061096 -0.0336517 0)
(-0.0462667 -0.0323955 0)
(-0.0319695 -0.0303945 0)
(-0.0184794 -0.0276449 0)
(-0.00602907 -0.0241783 0)
(0.00511296 -0.0200587 0)
(0.0147243 -0.0154053 0)
(0.0226763 -0.0103727 0)
(0.0288388 -0.00514995 0)
(0.0331712 3.60881e-05 0)
(0.035657 0.00496247 0)
(0.0361606 0.00927861 0)
(0.0346089 0.0126513 0)
(0.0312661 0.0149891 0)
(0.0262542 0.0155895 0)
(0.0197231 0.0145592 0)
(0.0125717 0.0119724 0)
(0.00588377 0.00795567 0)
(0.000786002 0.0029837 0)
(0.000412054 -0.00351759 0)
(0.00419986 -0.00937976 0)
(0.0085533 -0.0117399 0)
(0.0120641 -0.0112703 0)
(0.0146008 -0.0092215 0)
(0.0161556 -0.00652322 0)
(0.0168274 -0.00374777 0)
(0.0167081 -0.00123873 0)
(0.0158767 0.000806416 0)
(0.014393 0.00231653 0)
(0.012254 0.0033725 0)
(0.00943696 0.00416322 0)
(0.00589125 0.00492065 0)
(0.00154715 0.00584624 0)
(-0.00366999 0.00705962 0)
(-0.00985743 0.00861016 0)
(-0.0171359 0.0105132 0)
(-0.025626 0.0127727 0)
(-0.0354093 0.0153789 0)
(-0.0465017 0.0182999 0)
(-0.0588191 0.0214444 0)
(-0.072166 0.0246683 0)
(-0.0862519 0.0277942 0)
(-0.100715 0.0306537 0)
(-0.115256 0.033153 0)
(-0.129528 0.0351086 0)
(-0.143242 0.036419 0)
(-0.156113 0.0370991 0)
(-0.167974 0.0372147 0)
(-0.178787 0.0368117 0)
(-0.188524 0.0359528 0)
(-0.197246 0.0346763 0)
(-0.204993 0.0330195 0)
(-0.211838 0.031053 0)
(-0.21782 0.0288223 0)
(-0.223003 0.0263833 0)
(-0.227421 0.0237758 0)
(-0.231104 0.0210415 0)
(-0.234071 0.0182039 0)
(-0.236335 0.0152835 0)
(-0.237899 0.0122928 0)
(-0.238761 0.00923608 0)
(-0.238911 0.00611405 0)
(-0.238335 0.0029224 0)
(-0.237016 -0.000342758 0)
(-0.234932 -0.00368693 0)
(-0.232044 -0.00710722 0)
(-0.228328 -0.0106275 0)
(-0.223752 -0.0142327 0)
(-0.218284 -0.0179161 0)
(-0.211887 -0.0216539 0)
(-0.204538 -0.0254231 0)
(-0.196213 -0.0291892 0)
(-0.186896 -0.0329005 0)
(-0.176579 -0.0364832 0)
(-0.165275 -0.0398389 0)
(-0.153025 -0.0428647 0)
(-0.139904 -0.0454527 0)
(-0.126005 -0.0474585 0)
(-0.11146 -0.0487365 0)
(-0.0964673 -0.0491762 0)
(-0.0812377 -0.0486538 0)
(-0.0660241 -0.0470923 0)
(-0.0511407 -0.044456 0)
(-0.0369408 -0.0408081 0)
(-0.0236869 -0.0362118 0)
(-0.0116196 -0.0307502 0)
(-0.000961385 -0.02457 0)
(0.00812688 -0.0178953 0)
(0.0155272 -0.0109708 0)
(0.0211846 -0.00404947 0)
(0.0251116 0.00264264 0)
(0.0273529 0.00879635 0)
(0.0279241 0.0139987 0)
(0.0266836 0.0179059 0)
(0.0236674 0.0202151 0)
(0.0190541 0.0204832 0)
(0.0132381 0.0185575 0)
(0.00689459 0.0142368 0)
(0.0010673 0.00675337 0)
(0.000685438 -0.00599317 0)
(0.00488711 -0.013719 0)
(0.00874253 -0.0155091 0)
(0.0113977 -0.0139387 0)
(0.0129847 -0.0108057 0)
(0.0135756 -0.00716715 0)
(0.0133173 -0.00357288 0)
(0.0122963 -0.00033099 0)
(0.0105494 0.00240344 0)
(0.0080646 0.0046165 0)
(0.00477872 0.00642321 0)
(0.000604004 0.00803648 0)
(-0.00455136 0.00969943 0)
(-0.0107747 0.0116154 0)
(-0.0181483 0.0139128 0)
(-0.0267497 0.0166486 0)
(-0.0366397 0.0198302 0)
(-0.0478411 0.0234245 0)
(-0.0602939 0.0273331 0)
(-0.0738267 0.0314152 0)
(-0.0881532 0.0354469 0)
(-0.102915 0.0392266 0)
(-0.117755 0.0426224 0)
(-0.132363 0.0453497 0)
(-0.146354 0.0472805 0)
(-0.159409 0.0484257 0)
(-0.171433 0.0488081 0)
(-0.182366 0.0484846 0)
(-0.19226 0.0475602 0)
(-0.201155 0.0461305 0)
(-0.209115 0.0442765 0)
(-0.216228 0.0420691 0)
(-0.22254 0.0395577 0)
(-0.228114 0.0367944 0)
(-0.232998 0.0338208 0)
(-0.237239 0.0306783 0)
(-0.240861 0.0273999 0)
(-0.243892 0.0240157 0)
(-0.246344 0.0205393 0)
(-0.248222 0.0169839 0)
(-0.249525 0.0133579 0)
(-0.250248 0.00965644 0)
(-0.250379 0.00587426 0)
(-0.249902 0.00200124 0)
(-0.2488 -0.00197032 0)
(-0.247039 -0.00604939 0)
(-0.244584 -0.0102392 0)
(-0.241398 -0.0145517 0)
(-0.237447 -0.0189867 0)
(-0.232704 -0.0235464 0)
(-0.2271 -0.0281994 0)
(-0.220599 -0.032918 0)
(-0.213162 -0.0376662 0)
(-0.204749 -0.0423823 0)
(-0.195331 -0.0469808 0)
(-0.184893 -0.0513415 0)
(-0.173428 -0.0553254 0)
(-0.160992 -0.0588107 0)
(-0.147639 -0.061609 0)
(-0.133462 -0.0635254 0)
(-0.118632 -0.0644211 0)
(-0.103331 -0.0641159 0)
(-0.0878091 -0.0624892 0)
(-0.0723111 -0.0594684 0)
(-0.0571945 -0.0550726 0)
(-0.0428866 -0.0494335 0)
(-0.0296556 -0.0426831 0)
(-0.0177326 -0.0350258 0)
(-0.00733294 -0.0267232 0)
(0.0013909 -0.0180853 0)
(0.00836475 -0.00943148 0)
(0.0135959 -0.0010565 0)
(0.0171523 0.00673159 0)
(0.0191068 0.0136065 0)
(0.0194752 0.0192075 0)
(0.0182676 0.0230808 0)
(0.0154947 0.0247745 0)
(0.0113628 0.0239661 0)
(0.0062318 0.020031 0)
(0.000931293 0.0105298 0)
(0.000991776 -0.00886713 0)
(0.00510041 -0.0177266 0)
(0.00801883 -0.0183306 0)
(0.00956295 -0.015578 0)
(0.0100917 -0.011356 0)
(0.00965785 -0.0068219 0)
(0.00840747 -0.00243718 0)
(0.00638497 0.00155327 0)
(0.00357404 0.00505274 0)
(-9.33578e-05 0.00809717 0)
(-0.00472286 0.0108364 0)
(-0.0104285 0.0134934 0)
(-0.0173119 0.0163012 0)
(-0.0254537 0.019447 0)
(-0.0349094 0.0230407 0)
(-0.0456948 0.027106 0)
(-0.0577666 0.0315899 0)
(-0.0710024 0.0363996 0)
(-0.085182 0.0413072 0)
(-0.0999421 0.0460532 0)
(-0.114929 0.0504749 0)
(-0.129795 0.0542149 0)
(-0.14408 0.0570832 0)
(-0.157415 0.0590121 0)
(-0.16966 0.0599634 0)
(-0.180813 0.0600213 0)
(-0.190925 0.0593121 0)
(-0.200068 0.0579682 0)
(-0.208328 0.0561027 0)
(-0.215764 0.0538055 0)
(-0.222451 0.0511521 0)
(-0.228441 0.0481993 0)
(-0.233785 0.0449989 0)
(-0.238532 0.0415938 0)
(-0.242721 0.0380177 0)
(-0.246379 0.0343014 0)
(-0.249526 0.0304717 0)
(-0.252179 0.0265521 0)
(-0.254351 0.0225521 0)
(-0.256041 0.0184761 0)
(-0.257251 0.0143272 0)
(-0.25798 0.0100933 0)
(-0.258222 0.00576321 0)
(-0.257966 0.00131909 0)
(-0.257214 -0.00325999 0)
(-0.255936 -0.00798866 0)
(-0.254102 -0.0128724 0)
(-0.25167 -0.0179139 0)
(-0.248591 -0.0231123 0)
(-0.244812 -0.0284721 0)
(-0.240288 -0.0339783 0)
(-0.234928 -0.0395842 0)
(-0.228668 -0.045248 0)
(-0.221431 -0.0508975 0)
(-0.213191 -0.0564676 0)
(-0.203966 -0.061881 0)
(-0.193603 -0.0669019 0)
(-0.182147 -0.0713985 0)
(-0.169637 -0.0751555 0)
(-0.156064 -0.0779053 0)
(-0.141614 -0.0794883 0)
(-0.126409 -0.0796592 0)
(-0.110688 -0.0782769 0)
(-0.0947106 -0.0751771 0)
(-0.0787588 -0.0703343 0)
(-0.0632448 -0.0638307 0)
(-0.0486543 -0.0559389 0)
(-0.0352497 -0.046881 0)
(-0.0233034 -0.036971 0)
(-0.0130353 -0.026596 0)
(-0.00457621 -0.0161622 0)
(0.00204704 -0.00605421 0)
(0.00690153 0.00338086 0)
(0.010112 0.0118195 0)
(0.0117951 0.0189341 0)
(0.0120165 0.0242978 0)
(0.0107867 0.027426 0)
(0.00820044 0.0278404 0)
(0.00461107 0.0246125 0)
(0.00055634 0.0136371 0)
(0.00124429 -0.0118942 0)
(0.00477254 -0.0208895 0)
(0.00639732 -0.0200626 0)
(0.00683578 -0.0160363 0)
(0.00621731 -0.0108211 0)
(0.00472444 -0.00544138 0)
(0.00242634 -0.000265148 0)
(-0.000685852 0.0045297 0)
(-0.00467692 0.00890082 0)
(-0.00965013 0.0129215 0)
(-0.0157248 0.0167578 0)
(-0.0230124 0.0206245 0)
(-0.031598 0.0247284 0)
(-0.0415274 0.0292198 0)
(-0.0527941 0.0341594 0)
(-0.0653099 0.0395039 0)
(-0.078936 0.0451232 0)
(-0.0933774 0.0507717 0)
(-0.108239 0.0562286 0)
(-0.123188 0.0611245 0)
(-0.137755 0.0651836 0)
(-0.151456 0.068198 0)
(-0.164073 0.070076 0)
(-0.175578 0.0708705 0)
(-0.186029 0.0707174 0)
(-0.195495 0.0697584 0)
(-0.204068 0.068125 0)
(-0.211834 0.0659411 0)
(-0.218865 0.0633056 0)
(-0.225214 0.0603014 0)
(-0.230937 0.0569945 0)
(-0.236073 0.0534332 0)
(-0.240664 0.0496627 0)
(-0.244746 0.04572 0)
(-0.248345 0.0416378 0)
(-0.251481 0.0374443 0)
(-0.254168 0.0331664 0)
(-0.256417 0.0288202 0)
(-0.258239 0.0244118 0)
(-0.259668 0.0198743 0)
(-0.260707 0.0152686 0)
(-0.261341 0.0105813 0)
(-0.261562 0.00580154 0)
(-0.261358 0.000912418 0)
(-0.260716 -0.00410539 0)
(-0.259665 -0.00927586 0)
(-0.25819 -0.0146227 0)
(-0.256293 -0.0201769 0)
(-0.253954 -0.0259661 0)
(-0.25114 -0.0320157 0)
(-0.247827 -0.0383195 0)
(-0.243916 -0.0447954 0)
(-0.23931 -0.0514263 0)
(-0.233903 -0.0581505 0)
(-0.227546 -0.064854 0)
(-0.220037 -0.0713563 0)
(-0.211284 -0.077444 0)
(-0.201216 -0.0829666 0)
(-0.190076 -0.0878709 0)
(-0.177585 -0.0916842 0)
(-0.163939 -0.0942219 0)
(-0.149206 -0.0951662 0)
(-0.133608 -0.0943257 0)
(-0.117359 -0.091485 0)
(-0.100796 -0.0865782 0)
(-0.0842041 -0.0795595 0)
(-0.0681484 -0.0706877 0)
(-0.0531433 -0.0603508 0)
(-0.0394688 -0.0488794 0)
(-0.0274348 -0.0367336 0)
(-0.0172649 -0.0244221 0)
(-0.00906082 -0.0124453 0)
(-0.0027996 -0.00124765 0)
(0.00165934 0.0088045 0)
(0.00451463 0.0173974 0)
(0.00592536 0.0241661 0)
(0.00598088 0.0286538 0)
(0.00475213 0.0302467 0)
(0.00262493 0.0277157 0)
(9.46302e-05 0.0155926 0)
(0.00135146 -0.0147362 0)
(0.00378713 -0.0229213 0)
(0.004189 -0.0205744 0)
(0.00339652 -0.0152826 0)
(0.00163528 -0.00918053 0)
(-0.000944696 -0.00298653 0)
(-0.00434126 0.00301035 0)
(-0.00861115 0.00868705 0)
(-0.0138513 0.0140381 0)
(-0.0201755 0.0191561 0)
(-0.0276936 0.0242047 0)
(-0.0364926 0.0293736 0)
(-0.0466176 0.0348251 0)
(-0.0580559 0.0406453 0)
(-0.0707133 0.0468285 0)
(-0.0844173 0.0532335 0)
(-0.0988358 0.0596071 0)
(-0.113603 0.0656734 0)
(-0.128274 0.0710503 0)
(-0.142359 0.0754282 0)
(-0.155459 0.0785769 0)
(-0.16746 0.0804784 0)
(-0.178374 0.081231 0)
(-0.188263 0.0809895 0)
(-0.197213 0.0798873 0)
(-0.205316 0.078072 0)
(-0.21266 0.0756652 0)
(-0.219309 0.0727765 0)
(-0.225317 0.0694903 0)
(-0.230724 0.0658803 0)
(-0.235569 0.0620054 0)
(-0.239886 0.0579141 0)
(-0.243703 0.0536499 0)
(-0.24704 0.0492543 0)
(-0.249909 0.0447661 0)
(-0.252358 0.0401729 0)
(-0.25447 0.0354622 0)
(-0.256234 0.030677 0)
(-0.257663 0.0258137 0)
(-0.258748 0.0209341 0)
(-0.259488 0.0159726 0)
(-0.259895 0.0109212 0)
(-0.259975 0.00576801 0)
(-0.259734 0.000496856 0)
(-0.25918 -0.00490707 0)
(-0.258333 -0.0104591 0)
(-0.257171 -0.0161876 0)
(-0.255691 -0.02211 0)
(-0.253874 -0.0282412 0)
(-0.251694 -0.0345818 0)
(-0.249116 -0.0411741 0)
(-0.246131 -0.0481018 0)
(-0.242698 -0.0553161 0)
(-0.238764 -0.0627874 0)
(-0.234246 -0.0704673 0)
(-0.229055 -0.0782949 0)
(-0.222965 -0.0858922 0)
(-0.215633 -0.0930363 0)
(-0.206617 -0.0992441 0)
(-0.195971 -0.104297 0)
(-0.183826 -0.108064 0)
(-0.17022 -0.110131 0)
(-0.155325 -0.11025 0)
(-0.1393 -0.108087 0)
(-0.122503 -0.10354 0)
(-0.105215 -0.0964867 0)
(-0.0878625 -0.0869976 0)
(-0.0711607 -0.0755415 0)
(-0.0556564 -0.062631 0)
(-0.0416801 -0.0487292 0)
(-0.0295733 -0.0344516 0)
(-0.0195504 -0.0204325 0)
(-0.0116753 -0.00725959 0)
(-0.0058544 0.00458489 0)
(-0.00185876 0.0147386 0)
(0.000592543 0.0228978 0)
(0.00171126 0.0286552 0)
(0.0016662 0.0313409 0)
(0.000785894 0.0293314 0)
(-0.000270855 0.0163251 0)
(0.00127132 -0.0170961 0)
(0.00238063 -0.0236789 0)
(0.00148137 -0.019738 0)
(-0.000532364 -0.0133759 0)
(-0.00341793 -0.00643232 0)
(-0.00710308 0.00057569 0)
(-0.0116295 0.00743725 0)
(-0.0170873 0.0140695 0)
(-0.0235838 0.0204852 0)
(-0.031223 0.0267764 0)
(-0.0400881 0.0330862 0)
(-0.0502239 0.0395618 0)
(-0.0616147 0.0463006 0)
(-0.0741878 0.0533231 0)
(-0.0877572 0.0605096 0)
(-0.101961 0.0676028 0)
(-0.116451 0.0742688 0)
(-0.130748 0.0801391 0)
(-0.14431 0.0848564 0)
(-0.1569 0.0882422 0)
(-0.168394 0.09028 0)
(-0.178817 0.0911111 0)
(-0.188235 0.0908634 0)
(-0.196745 0.0897064 0)
(-0.20443 0.0877781 0)
(-0.211373 0.0852171 0)
(-0.217636 0.0821282 0)
(-0.223263 0.0786071 0)
(-0.228296 0.0747293 0)
(-0.232768 0.0705629 0)
(-0.236712 0.0661642 0)
(-0.240158 0.0615827 0)
(-0.243128 0.0568626 0)
(-0.245701 0.0520047 0)
(-0.247909 0.0470459 0)
(-0.249764 0.0420351 0)
(-0.251239 0.0370011 0)
(-0.252352 0.0319144 0)
(-0.253123 0.026777 0)
(-0.25359 0.0215879 0)
(-0.253795 0.0163318 0)
(-0.253764 0.0110068 0)
(-0.253521 0.00559762 0)
(-0.253087 8.26897e-05 0)
(-0.252484 -0.00556661 0)
(-0.251679 -0.0113658 0)
(-0.250694 -0.0173532 0)
(-0.249525 -0.023559 0)
(-0.248172 -0.0300143 0)
(-0.246622 -0.0367403 0)
(-0.244856 -0.0437497 0)
(-0.242848 -0.051046 0)
(-0.24055 -0.058622 0)
(-0.237899 -0.0664505 0)
(-0.234808 -0.0744662 0)
(-0.231147 -0.0825794 0)
(-0.226917 -0.0910079 0)
(-0.221969 -0.0994106 0)
(-0.216068 -0.107525 0)
(-0.208817 -0.114735 0)
(-0.199486 -0.120355 0)
(-0.1879 -0.12386 0)
(-0.174587 -0.125399 0)
(-0.159528 -0.124408 0)
(-0.143134 -0.120751 0)
(-0.125681 -0.114215 0)
(-0.107547 -0.104723 0)
(-0.0893356 -0.0925399 0)
(-0.0718961 -0.0783214 0)
(-0.0558621 -0.0627654 0)
(-0.0416148 -0.0464911 0)
(-0.0295171 -0.0302746 0)
(-0.0197604 -0.0148726 0)
(-0.0123498 -0.000946293 0)
(-0.00709319 0.0110042 0)
(-0.00363958 0.0206457 0)
(-0.0016224 0.0276412 0)
(-0.000706321 0.0312499 0)
(-0.000498961 0.0296716 0)
(-0.000377654 0.016165 0)
(0.00103506 -0.0184578 0)
(0.000687203 -0.023049 0)
(-0.0015401 -0.0176073 0)
(-0.00472157 -0.0103176 0)
(-0.00872367 -0.00257116 0)
(-0.0135189 0.00526123 0)
(-0.0191765 0.0130272 0)
(-0.0258028 0.0206667 0)
(-0.0334986 0.028191 0)
(-0.0423426 0.0356731 0)
(-0.0523778 0.043218 0)
(-0.063591 0.0509133 0)
(-0.0759254 0.0587962 0)
(-0.0892158 0.0667768 0)
(-0.103102 0.0745907 0)
(-0.117197 0.0818946 0)
(-0.131053 0.0883135 0)
(-0.144173 0.0934612 0)
(-0.156318 0.0971832 0)
(-0.167394 0.099492 0)
(-0.177395 0.100478 0)
(-0.186411 0.100317 0)
(-0.194522 0.0991706 0)
(-0.20182 0.0971985 0)
(-0.208369 0.0945307 0)
(-0.214228 0.0912872 0)
(-0.219439 0.0875615 0)
(-0.224041 0.0834409 0)
(-0.228068 0.0789977 0)
(-0.231557 0.0742979 0)
(-0.234545 0.0693969 0)
(-0.237069 0.0643432 0)
(-0.239175 0.0591751 0)
(-0.240864 0.0539447 0)
(-0.242172 0.0486569 0)
(-0.243136 0.0433245 0)
(-0.243786 0.0379575 0)
(-0.244185 0.0325614 0)
(-0.244378 0.0271476 0)
(-0.244378 0.0217171 0)
(-0.244199 0.0162552 0)
(-0.243864 0.0107494 0)
(-0.243391 0.0051794 0)
(-0.242798 -0.000479186 0)
(-0.242088 -0.00625392 0)
(-0.241267 -0.0121746 0)
(-0.240358 -0.0182716 0)
(-0.239367 -0.0245791 0)
(-0.238305 -0.0311311 0)
(-0.237173 -0.0379618 0)
(-0.235969 -0.0451045 0)
(-0.234684 -0.0525877 0)
(-0.233299 -0.0604277 0)
(-0.231773 -0.0686248 0)
(-0.23004 -0.0771455 0)
(-0.227998 -0.0859114 0)
(-0.225536 -0.0948001 0)
(-0.222494 -0.10366 0)
(-0.218636 -0.112355 0)
(-0.21393 -0.120979 0)
(-0.20803 -0.128926 0)
(-0.200387 -0.135298 0)
(-0.189928 -0.138961 0)
(-0.176878 -0.139679 0)
(-0.161771 -0.13751 0)
(-0.14494 -0.132153 0)
(-0.126701 -0.123333 0)
(-0.107632 -0.111175 0)
(-0.0884644 -0.0960723 0)
(-0.0702422 -0.0789621 0)
(-0.0537014 -0.0607554 0)
(-0.0392823 -0.0422474 0)
(-0.0273439 -0.0243837 0)
(-0.0180311 -0.00803693 0)
(-0.0112594 0.00607545 0)
(-0.00669197 0.0174627 0)
(-0.00381716 0.0257858 0)
(-0.00217434 0.0301908 0)
(-0.00115196 0.0290662 0)
(-0.00034288 0.0155587 0)
(0.000729559 -0.0188297 0)
(-0.0011906 -0.02102 0)
(-0.00467715 -0.0142616 0)
(-0.0089876 -0.00611752 0)
(-0.0140903 0.00239924 0)
(-0.0199715 0.0110574 0)
(-0.0267226 0.0197478 0)
(-0.034448 0.0284112 0)
(-0.0432286 0.0370384 0)
(-0.0531075 0.0456663 0)
(-0.0640763 0.0543474 0)
(-0.0760904 0.0631174 0)
(-0.0890115 0.0719147 0)
(-0.102509 0.0804813 0)
(-0.116178 0.0884659 0)
(-0.129588 0.0954919 0)
(-0.142317 0.101196 0)
(-0.154088 0.105382 0)
(-0.164802 0.108054 0)
(-0.174453 0.109305 0)
(-0.18311 0.109309 0)
(-0.190865 0.108249 0)
(-0.197788 0.106284 0)
(-0.203946 0.103559 0)
(-0.209385 0.10019 0)
(-0.214148 0.0962866 0)
(-0.218271 0.0919386 0)
(-0.221793 0.0872319 0)
(-0.224756 0.0822409 0)
(-0.227204 0.0770333 0)
(-0.229183 0.0716664 0)
(-0.230737 0.0661882 0)
(-0.231913 0.0606362 0)
(-0.232752 0.0550427 0)
(-0.233302 0.0494275 0)
(-0.233607 0.0438103 0)
(-0.233702 0.0382042 0)
(-0.233622 0.0326119 0)
(-0.23339 0.0270293 0)
(-0.233025 0.0214487 0)
(-0.232544 0.015856 0)
(-0.231964 0.0102338 0)
(-0.231299 0.00456053 0)
(-0.230564 -0.00118679 0)
(-0.229768 -0.00703129 0)
(-0.228924 -0.0130097 0)
(-0.228049 -0.019151 0)
(-0.227157 -0.0254894 0)
(-0.226264 -0.0320588 0)
(-0.225381 -0.0388954 0)
(-0.224519 -0.0460358 0)
(-0.223687 -0.0535151 0)
(-0.222886 -0.0613632 0)
(-0.222106 -0.0696018 0)
(-0.221313 -0.0782394 0)
(-0.220449 -0.0872664 0)
(-0.219429 -0.0966376 0)
(-0.218113 -0.106221 0)
(-0.216305 -0.115806 0)
(-0.213767 -0.125105 0)
(-0.210183 -0.133797 0)
(-0.205395 -0.142074 0)
(-0.198931 -0.14886 0)
(-0.18984 -0.152894 0)
(-0.177162 -0.152827 0)
(-0.162043 -0.149438 0)
(-0.144623 -0.142089 0)
(-0.125507 -0.130776 0)
(-0.105388 -0.115691 0)
(-0.0852154 -0.0974822 0)
(-0.0662349 -0.0773955 0)
(-0.0493023 -0.0566052 0)
(-0.0348978 -0.0361075 0)
(-0.0233456 -0.0170214 0)
(-0.0147079 -0.00032375 0)
(-0.00875991 0.0132358 0)
(-0.00493129 0.0231632 0)
(-0.0026958 0.028464 0)
(-0.00118715 0.0279019 0)
(-0.000163908 0.0147705 0)
(0.000162349 -0.0180629 0)
(-0.00316461 -0.017663 0)
(-0.00780358 -0.00971537 0)
(-0.0131908 -0.00081131 0)
(-0.0193481 0.00844005 0)
(-0.0262591 0.017913 0)
(-0.034023 0.0275208 0)
(-0.042733 0.0371849 0)
(-0.0524404 0.0468588 0)
(-0.0631443 0.056531 0)
(-0.0748086 0.0662078 0)
(-0.0873215 0.0758448 0)
(-0.100395 0.0851997 0)
(-0.113634 0.0939217 0)
(-0.126626 0.101635 0)
(-0.139001 0.107998 0)
(-0.150467 0.112778 0)
(-0.160877 0.115924 0)
(-0.170235 0.117545 0)
(-0.178587 0.117805 0)
(-0.186018 0.1169 0)
(-0.192598 0.115002 0)
(-0.198379 0.112258 0)
(-0.203409 0.108799 0)
(-0.207727 0.104737 0)
(-0.211375 0.100178 0)
(-0.2144 0.0952173 0)
(-0.216854 0.0899432 0)
(-0.218793 0.0844343 0)
(-0.220275 0.07876 0)
(-0.221356 0.0729779 0)
(-0.222093 0.0671346 0)
(-0.222537 0.0612665 0)
(-0.222738 0.0554025 0)
(-0.222738 0.0495619 0)
(-0.222572 0.0437591 0)
(-0.222268 0.0379984 0)
(-0.221848 0.032275 0)
(-0.221329 0.0265812 0)
(-0.220727 0.0209051 0)
(-0.220054 0.0152308 0)
(-0.219321 0.00953975 0)
(-0.218541 0.00381018 0)
(-0.217725 -0.00198064 0)
(-0.216882 -0.00785725 0)
(-0.216026 -0.0138515 0)
(-0.215172 -0.0199934 0)
(-0.214336 -0.0263159 0)
(-0.213535 -0.0328532 0)
(-0.212788 -0.0396413 0)
(-0.212114 -0.0467178 0)
(-0.211531 -0.0541198 0)
(-0.211054 -0.0618822 0)
(-0.210692 -0.0700351 0)
(-0.210441 -0.0786015 0)
(-0.210284 -0.0875952 0)
(-0.210178 -0.0970111 0)
(-0.21004 -0.106809 0)
(-0.209733 -0.116897 0)
(-0.209053 -0.127093 0)
(-0.207711 -0.137048 0)
(-0.205357 -0.146283 0)
(-0.201528 -0.154469 0)
(-0.195963 -0.161451 0)
(-0.187814 -0.165526 0)
(-0.175613 -0.164889 0)
(-0.160307 -0.160008 0)
(-0.142187 -0.150481 0)
(-0.122054 -0.136373 0)
(-0.100809 -0.118102 0)
(-0.0796538 -0.0966125 0)
(-0.0600449 -0.0735232 0)
(-0.042953 -0.0503269 0)
(-0.0288582 -0.0282358 0)
(-0.0180042 -0.00854307 0)
(-0.0103208 0.00769569 0)
(-0.00531646 0.019693 0)
(-0.00244179 0.0263272 0)
(-0.000737703 0.0266057 0)
(9.4337e-05 0.0142387 0)
(-0.000411167 -0.0160488 0)
(-0.00509963 -0.0130143 0)
(-0.0108013 -0.00404936 0)
(-0.0171981 0.00553337 0)
(-0.0243372 0.0154781 0)
(-0.0321908 0.0257401 0)
(-0.0408554 0.0362297 0)
(-0.0504051 0.046833 0)
(-0.0608551 0.0574548 0)
(-0.0721766 0.0680376 0)
(-0.0842793 0.0785262 0)
(-0.0969203 0.0886938 0)
(-0.109738 0.0982076 0)
(-0.122351 0.10669 0)
(-0.134412 0.113805 0)
(-0.14563 0.119299 0)
(-0.155811 0.123051 0)
(-0.16493 0.125149 0)
(-0.173036 0.125766 0)
(-0.180192 0.125096 0)
(-0.186468 0.123327 0)
(-0.191912 0.120616 0)
(-0.196569 0.117103 0)
(-0.200483 0.112915 0)
(-0.2037 0.10817 0)
(-0.20628 0.102978 0)
(-0.208285 0.0974413 0)
(-0.209784 0.0916534 0)
(-0.210845 0.0856945 0)
(-0.211537 0.0796328 0)
(-0.21192 0.0735227 0)
(-0.212052 0.0674064 0)
(-0.211981 0.0613147 0)
(-0.211749 0.0552697 0)
(-0.211388 0.0492836 0)
(-0.210924 0.0433617 0)
(-0.210377 0.037502 0)
(-0.209761 0.0316967 0)
(-0.209086 0.0259341 0)
(-0.208363 0.0202003 0)
(-0.207599 0.0144784 0)
(-0.2068 0.0087489 0)
(-0.205976 0.00299069 0)
(-0.205133 -0.00281884 0)
(-0.20428 -0.00870415 0)
(-0.203429 -0.014693 0)
(-0.202593 -0.0208139 0)
(-0.201788 -0.0270977 0)
(-0.201034 -0.0335767 0)
(-0.20035 -0.0402855 0)
(-0.199762 -0.0472608 0)
(-0.199292 -0.0545402 0)
(-0.198966 -0.0621616 0)
(-0.198805 -0.0701617 0)
(-0.198823 -0.0785736 0)
(-0.199025 -0.0874236 0)
(-0.1994 -0.0967246 0)
(-0.199912 -0.106469 0)
(-0.200487 -0.11662 0)
(-0.200997 -0.127093 0)
(-0.201234 -0.137727 0)
(-0.200895 -0.14822 0)
(-0.199565 -0.158011 0)
(-0.196719 -0.166414 0)
(-0.191795 -0.173203 0)
(-0.184149 -0.17707 0)
(-0.172276 -0.17571 0)
(-0.156596 -0.169177 0)
(-0.13762 -0.157154 0)
(-0.116344 -0.139911 0)
(-0.0939581 -0.11817 0)
(-0.071942 -0.0932417 0)
(-0.0519794 -0.0672344 0)
(-0.0351123 -0.0419667 0)
(-0.0217531 -0.0189019 0)
(-0.0120084 0.000527447 0)
(-0.00554473 0.015203 0)
(-0.00188092 0.0238174 0)
(-3.2687e-05 0.0254302 0)
(0.000381298 0.0142023 0)
(-0.000989804 -0.0128818 0)
(-0.00691465 -0.00719432 0)
(-0.0135759 0.00265244 0)
(-0.0208938 0.0128353 0)
(-0.0289209 0.0234227 0)
(-0.0376051 0.0344257 0)
(-0.0470355 0.0457334 0)
(-0.0572616 0.0571825 0)
(-0.0682698 0.0686274 0)
(-0.0799866 0.0799591 0)
(-0.0922093 0.0909456 0)
(-0.104629 0.101288 0)
(-0.116903 0.11061 0)
(-0.128691 0.118567 0)
(-0.13971 0.12488 0)
(-0.149732 0.129372 0)
(-0.158685 0.132072 0)
(-0.166605 0.133152 0)
(-0.17355 0.132811 0)
(-0.179579 0.131244 0)
(-0.184745 0.128628 0)
(-0.189089 0.125113 0)
(-0.192662 0.120842 0)
(-0.195519 0.115947 0)
(-0.197727 0.110556 0)
(-0.199362 0.104789 0)
(-0.200503 0.0987501 0)
(-0.20123 0.0925345 0)
(-0.201617 0.0862191 0)
(-0.20173 0.0798659 0)
(-0.201629 0.0735222 0)
(-0.201362 0.0672217 0)
(-0.200969 0.0609871 0)
(-0.200481 0.0548312 0)
(-0.199922 0.0487587 0)
(-0.199306 0.0427681 0)
(-0.198647 0.0368524 0)
(-0.197951 0.0310009 0)
(-0.197225 0.0252002 0)
(-0.196471 0.0194334 0)
(-0.195693 0.0136834 0)
(-0.194893 0.00793162 0)
(-0.194076 0.00215703 0)
(-0.193247 -0.00366173 0)
(-0.192411 -0.00954758 0)
(-0.191579 -0.0155252 0)
(-0.190762 -0.0216203 0)
(-0.189976 -0.0278606 0)
(-0.18924 -0.0342755 0)
(-0.188574 -0.0408966 0)
(-0.188006 -0.047758 0)
(-0.187564 -0.054896 0)
(-0.187276 -0.0623486 0)
(-0.187173 -0.0701556 0)
(-0.187281 -0.0783567 0)
(-0.187623 -0.0869888 0)
(-0.188206 -0.0960818 0)
(-0.189024 -0.105652 0)
(-0.190042 -0.115694 0)
(-0.191187 -0.126168 0)
(-0.19233 -0.136982 0)
(-0.193265 -0.147975 0)
(-0.193675 -0.158861 0)
(-0.193112 -0.169126 0)
(-0.191001 -0.177923 0)
(-0.186588 -0.184368 0)
(-0.179128 -0.187707 0)
(-0.167238 -0.185332 0)
(-0.150947 -0.176807 0)
(-0.130922 -0.16186 0)
(-0.108426 -0.141083 0)
(-0.0849585 -0.115536 0)
(-0.0623649 -0.0870823 0)
(-0.0425133 -0.0584277 0)
(-0.0264377 -0.0316541 0)
(-0.0143792 -0.00852467 0)
(-0.00619572 0.00946226 0)
(-0.0015151 0.0207947 0)
(0.000606673 0.0243803 0)
(0.000585694 0.0145953 0)
(-0.00154 -0.00862481 0)
(-0.00854858 -0.000321205 0)
(-0.0160575 0.0102864 0)
(-0.0241937 0.0209921 0)
(-0.0329923 0.0321605 0)
(-0.0423766 0.0438386 0)
(-0.0524243 0.0558769 0)
(-0.063158 0.0680598 0)
(-0.0745291 0.0801817 0)
(-0.0863619 0.0919748 0)
(-0.0984145 0.103154 0)
(-0.110386 0.113367 0)
(-0.121943 0.122237 0)
(-0.132808 0.129465 0)
(-0.142734 0.13482 0)
(-0.151599 0.138261 0)
(-0.159407 0.139924 0)
(-0.166212 0.140018 0)
(-0.172069 0.138746 0)
(-0.177027 0.136299 0)
(-0.181136 0.132848 0)
(-0.184447 0.128548 0)
(-0.187024 0.123551 0)
(-0.188945 0.118003 0)
(-0.190295 0.112039 0)
(-0.191164 0.105782 0)
(-0.191639 0.099338 0)
(-0.191799 0.0927945 0)
(-0.191717 0.0862206 0)
(-0.191453 0.0796687 0)
(-0.191055 0.0731757 0)
(-0.190563 0.0667653 0)
(-0.190005 0.0604509 0)
(-0.189402 0.0542373 0)
(-0.188768 0.0481225 0)
(-0.188112 0.0420996 0)
(-0.187438 0.0361576 0)
(-0.186747 0.0302829 0)
(-0.18604 0.0244615 0)
(-0.185318 0.0186757 0)
(-0.184577 0.0129067 0)
(-0.183819 0.00713771 0)
(-0.183044 0.00134923 0)
(-0.182254 -0.00447902 0)
(-0.181455 -0.0103674 0)
(-0.180654 -0.0163378 0)
(-0.17986 -0.0224127 0)
(-0.179089 -0.0286161 0)
(-0.178356 -0.0349739 0)
(-0.177685 -0.0415138 0)
(-0.1771 -0.0482662 0)
(-0.176631 -0.0552644 0)
(-0.17631 -0.0625446 0)
(-0.176173 -0.0701463 0)
(-0.176253 -0.0781117 0)
(-0.176585 -0.0864844 0)
(-0.177194 -0.0953063 0)
(-0.178094 -0.104613 0)
(-0.179278 -0.114428 0)
(-0.180711 -0.12475 0)