/*--------------------------------*- C++ -*----------------------------------*\
  =========                 |
  \\      /  F ield         | OpenFOAM: The Open Source CFD Toolbox
   \\    /   O peration     | Website:  https://openfoam.org
    \\  /    A nd           | Version:  13
     \\/     M anipulation  |
\*---------------------------------------------------------------------------*/
FoamFile
{
    format      ascii;
    class       volScalarField;
    location    "0.3";
    object      epsilon;
}
// * * * * * * * * * * * * * * * * * * * * * * * * * * * * * * * * * * * * * //

dimensions      [0 2 -3 0 0 0 0];

internalField   nonuniform List<scalar> 
6400
(
0.000241682
0.00109262
0.00212453
0.00304614
0.00381251
0.00443789
0.00494353
0.00534864
0.00566975
0.00592117
0.00611541
0.00626338
0.00637454
0.00645699
0.00651749
0.00656157
0.00659365
0.00661715
0.00663467
0.00664812
0.00665887
0.0066679
0.00667587
0.00668322
0.00669026
0.00669717
0.00670407
0.00671106
0.00671817
0.00672544
0.00673288
0.00674051
0.00674833
0.00675635
0.00676455
0.00677295
0.00678153
0.00679029
0.00679922
0.00680832
0.00681756
0.00682691
0.00683635
0.0068458
0.00685523
0.00686485
0.00687513
0.00688551
0.00689599
0.00690655
0.00691716
0.0069278
0.00693843
0.00694896
0.00695933
0.00696936
0.00697887
0.00698751
0.00699483
0.00700004
0.00700228
0.00700031
0.00699211
0.00697525
0.00694655
0.00690197
0.0068365
0.0067441
0.0066176
0.0064487
0.0062279
0.00594443
0.00558619
0.00513951
0.00458894
0.00391714
0.00310636
0.00214831
0.001095
0.00024151
0.00109515
0.0010723
0.00154021
0.00199057
0.00236301
0.00265977
0.00289258
0.00307322
0.00321186
0.00331702
0.00339576
0.00345396
0.00349642
0.00352703
0.00354889
0.00356443
0.0035755
0.00358347
0.00358933
0.00359382
0.00359742
0.00360046
0.00360317
0.0036057
0.00360813
0.00361053
0.00361293
0.00361536
0.00361781
0.00362031
0.00362285
0.00362543
0.00362805
0.00363072
0.00363342
0.00363616
0.00363893
0.00364172
0.00364454
0.00364737
0.00365022
0.00365306
0.00365589
0.00365872
0.00366155
0.00366449
0.00366763
0.00367079
0.00367395
0.0036771
0.00368025
0.00368337
0.00368647
0.00368951
0.00369248
0.00369533
0.00369799
0.00370038
0.00370235
0.0037036
0.00370384
0.00370268
0.00369939
0.00369307
0.00368252
0.00366612
0.00364184
0.00360708
0.00355866
0.00349266
0.0034044
0.00328825
0.00313751
0.00294421
0.00269881
0.00239008
0.00200659
0.00154656
0.0010721
0.00109137
0.00214481
0.00154688
0.00178594
0.00207692
0.00232863
0.00253062
0.00268811
0.00280873
0.00289983
0.00296773
0.00301768
0.00305398
0.00308004
0.00309855
0.00311159
0.00312073
0.00312715
0.0031317
0.003135
0.00313747
0.00313942
0.00314103
0.00314245
0.00314375
0.00314499
0.00314621
0.00314743
0.00314865
0.00314989
0.00315115
0.00315243
0.00315373
0.00315505
0.0031564
0.00315776
0.00315914
0.00316054
0.00316195
0.00316337
0.00316481
0.00316625
0.00316769
0.00316914
0.00317061
0.00317209
0.00317363
0.00317522
0.00317682
0.00317842
0.00318003
0.00318163
0.00318323
0.0031848
0.00318635
0.00318786
0.0031893
0.00319064
0.00319183
0.00319278
0.00319328
0.00319322
0.00319233
0.00319021
0.00318632
0.00317994
0.00317006
0.00315542
0.00313434
0.00310469
0.00306382
0.00300842
0.00293441
0.00283678
0.00270942
0.00254535
0.00233749
0.00208117
0.00178536
0.00153996
0.00212113
0.00309878
0.00200624
0.00208178
0.00227171
0.00245104
0.00259977
0.00271699
0.00280681
0.00287414
0.00292391
0.0029602
0.00298633
0.00300493
0.00301804
0.0030272
0.00303358
0.00303802
0.00304113
0.00304335
0.00304499
0.00304623
0.00304724
0.00304809
0.00304886
0.00304957
0.00305026
0.00305095
0.00305163
0.00305233
0.00305303
0.00305375
0.00305449
0.00305524
0.003056
0.00305678
0.00305758
0.00305839
0.00305921
0.00306004
0.00306089
0.00306174
0.00306261
0.00306349
0.00306439
0.00306531
0.00306627
0.00306725
0.00306824
0.00306925
0.00307026
0.00307127
0.00307229
0.0030733
0.0030743
0.00307527
0.0030762
0.00307706
0.00307782
0.00307841
0.00307867
0.00307856
0.00307786
0.00307633
0.00307357
0.00306909
0.00306219
0.00305195
0.00303715
0.0030162
0.00298707
0.00294714
0.00289323
0.0028215
0.00272751
0.00260646
0.00245427
0.00227131
0.00207669
0.00198998
0.00303847
0.00390548
0.00238913
0.00233805
0.00245471
0.00258311
0.00269438
0.00278357
0.00285227
0.00290394
0.002942
0.0029696
0.00298933
0.00300324
0.00301296
0.0030197
0.00302436
0.00302758
0.00302981
0.00303138
0.00303251
0.00303334
0.00303399
0.00303452
0.00303498
0.00303539
0.00303578
0.00303616
0.00303653
0.00303692
0.00303731
0.0030377
0.00303812
0.00303854
0.00303897
0.00303942
0.00303989
0.00304036
0.00304085
0.00304136
0.00304187
0.00304241
0.00304295
0.00304352
0.0030441
0.00304471
0.00304534
0.003046
0.00304667
0.00304735
0.00304805
0.00304876
0.00304947
0.00305019
0.0030509
0.0030516
0.00305227
0.00305289
0.00305344
0.00305387
0.00305407
0.00305398
0.00305349
0.00305239
0.00305042
0.0030472
0.00304222
0.00303478
0.00302392
0.00300842
0.00298666
0.00295662
0.00291578
0.00286112
0.00278933
0.00269719
0.00258301
0.00245084
0.00232859
0.00236165
0.00379955
0.00457383
0.00269732
0.00254568
0.0026068
0.00269717
0.00278066
0.00284922
0.00290251
0.00294259
0.00297199
0.00299313
0.0030081
0.00301857
0.00302582
0.00303079
0.00303419
0.0030365
0.00303809
0.00303919
0.00303996
0.00304051
0.00304091
0.00304123
0.00304148
0.00304169
0.00304189
0.00304207
0.00304225
0.00304243
0.00304262
0.00304282
0.00304302
0.00304323
0.00304346
0.0030437
0.00304395
0.00304422
0.0030445
0.00304479
0.0030451
0.00304543
0.00304577
0.00304613
0.00304652
0.00304692
0.00304735
0.0030478
0.00304826
0.00304875
0.00304925
0.00304977
0.0030503
0.00305083
0.00305137
0.0030519
0.00305242
0.0030529
0.00305333
0.00305369
0.00305389
0.00305388
0.00305359
0.00305287
0.00305154
0.00304931
0.00304579
0.00304044
0.00303251
0.003021
0.00300462
0.00298173
0.00295028
0.00290792
0.00285218
0.00278102
0.00269452
0.00259967
0.00253023
0.00265723
0.00441899
0.0051219
0.00294226
0.00270948
0.00272768
0.00278913
0.00285158
0.00290445
0.00294599
0.00297723
0.003
0.00301621
0.00302753
0.0030353
0.00304057
0.00304412
0.00304648
0.00304806
0.00304911
0.00304982
0.0030503
0.00305062
0.00305084
0.00305098
0.00305109
0.00305116
0.00305122
0.00305126
0.00305131
0.00305135
0.0030514
0.00305145
0.00305151
0.00305158
0.00305166
0.00305175
0.00305186
0.00305198
0.00305212
0.00305227
0.00305244
0.00305262
0.00305283
0.00305305
0.0030533
0.00305357
0.00305386
0.00305417
0.00305451
0.00305486
0.00305524
0.00305563
0.00305604
0.00305645
0.00305688
0.00305731
0.00305773
0.00305813
0.0030585
0.00305883
0.00305908
0.00305918
0.00305911
0.00305875
0.00305798
0.00305658
0.00305426
0.00305058
0.00304493
0.00303651
0.00302424
0.00300674
0.00298235
0.00294919
0.00290539
0.00284982
0.0027838
0.00271677
0.00268706
0.00288846
0.00491811
0.00556722
0.00313525
0.00283666
0.0028215
0.00286075
0.00290711
0.00294797
0.00298043
0.0030048
0.00302239
0.0030347
0.00304309
0.00304869
0.00305235
0.0030547
0.0030562
0.00305715
0.00305775
0.00305812
0.00305835
0.00305848
0.00305855
0.00305857
0.00305856
0.00305853
0.00305849
0.00305844
0.00305838
0.00305833
0.00305827
0.00305823
0.00305819
0.00305816
0.00305815
0.00305814
0.00305814
0.00305816
0.0030582
0.00305825
0.00305832
0.00305841
0.00305851
0.00305864
0.00305879
0.00305897
0.00305916
0.00305938
0.00305963
0.00305989
0.00306018
0.00306048
0.00306081
0.00306115
0.0030615
0.00306186
0.00306223
0.00306259
0.00306294
0.00306327
0.00306358
0.00306382
0.00306397
0.00306395
0.00306369
0.00306302
0.0030617
0.00305939
0.00305559
0.00304961
0.00304054
0.00302721
0.00300822
0.00298202
0.00294721
0.00290326
0.00285242
0.00280631
0.0028068
0.00306718
0.00531608
0.0059254
0.00328596
0.00293426
0.00289312
0.00291529
0.00294933
0.00298095
0.00300639
0.00302539
0.00303888
0.00304807
0.0030541
0.00305791
0.00306022
0.00306158
0.00306234
0.00306274
0.00306294
0.00306301
0.00306303
0.003063
0.00306294
0.00306286
0.00306277
0.00306266
0.00306255
0.00306243
0.00306231
0.00306218
0.00306206
0.00306195
0.00306184
0.00306173
0.00306164
0.00306157
0.0030615
0.00306145
0.00306143
0.00306141
0.00306142
0.00306144
0.00306148
0.00306154
0.00306163
0.00306173
0.00306187
0.00306202
0.0030622
0.0030624
0.00306263
0.00306288
0.00306315
0.00306344
0.00306375
0.00306407
0.00306441
0.00306475
0.00306511
0.00306548
0.00306585
0.00306623
0.00306659
0.0030669
0.0030671
0.00306706
0.00306661
0.00306545
0.00306315
0.00305913
0.00305259
0.0030425
0.00302765
0.00300674
0.00297869
0.00294342
0.00290395
0.00287314
0.00289685
0.00320362
0.00562942
0.00621021
0.00340244
0.00300842
0.00294707
0.00295614
0.00298075
0.00300527
0.00302526
0.00304007
0.00305032
0.00305701
0.00306111
0.00306344
0.00306464
0.00306514
0.00306526
0.00306519
0.00306504
0.00306486
0.00306468
0.00306452
0.00306435
0.0030642
0.00306404
0.00306387
0.00306371
0.00306354
0.00306337
0.0030632
0.00306303
0.00306287
0.00306271
0.00306256
0.00306242
0.0030623
0.00306218
0.00306209
0.00306201
0.00306195
0.00306192
0.0030619
0.00306191
0.00306193
0.00306197
0.00306203
0.00306212
0.00306223
0.00306237
0.00306254
0.00306273
0.00306294
0.00306318
0.00306345
0.00306373
0.00306403
0.00306436
0.00306471
0.00306509
0.00306551
0.00306597
0.00306649
0.00306705
0.00306766
0.00306826
0.00306878
0.00306906
0.00306886
0.00306781
0.00306537
0.00306082
0.00305326
0.0030416
0.00302469
0.0030017
0.00297289
0.00294182
0.00292231
0.00296355
0.00330631
0.00587241
0.00643386
0.00349147
0.0030642
0.00298722
0.00298632
0.00300375
0.00302283
0.00303862
0.00305015
0.00305783
0.00306251
0.00306504
0.00306615
0.00306641
0.00306619
0.00306577
0.00306528
0.00306483
0.00306442
0.00306408
0.0030638
0.00306355
0.00306332
0.00306311
0.00306291
0.00306271
0.00306251
0.0030623
0.0030621
0.00306191
0.00306171
0.00306153
0.00306135
0.00306118
0.00306102
0.00306088
0.00306075
0.00306065
0.00306056
0.0030605
0.00306046
0.00306046
0.00306046
0.00306047
0.0030605
0.00306056
0.00306065
0.00306077
0.00306092
0.00306109
0.00306129
0.00306151
0.00306176
0.00306204
0.00306234
0.00306267
0.00306304
0.00306346
0.00306394
0.0030645
0.00306515
0.00306592
0.0030668
0.00306777
0.00306877
0.00306968
0.00307028
0.00307024
0.00306907
0.00306611
0.00306051
0.00305128
0.0030374
0.00301817
0.00299409
0.00296922
0.00295796
0.00301221
0.00338239
0.00605754
0.00660714
0.00355871
0.0031057
0.00301676
0.00300837
0.00302035
0.00303529
0.00304785
0.00305682
0.00306247
0.00306554
0.0030668
0.00306691
0.00306638
0.00306556
0.00306467
0.00306383
0.0030631
0.0030625
0.00306202
0.00306163
0.00306131
0.00306103
0.00306078
0.00306055
0.00306032
0.0030601
0.00305988
0.00305966
0.00305945
0.00305924
0.00305904
0.00305885
0.00305866
0.00305849
0.00305834
0.0030582
0.00305807
0.00305797
0.0030579
0.00305786
0.00305784
0.00305784
0.00305784
0.00305786
0.00305791
0.00305799
0.0030581
0.00305823
0.0030584
0.0030586
0.00305882
0.00305907
0.00305935
0.00305967
0.00306002
0.00306042
0.00306089
0.00306144
0.0030621
0.00306289
0.00306384
0.00306497
0.00306626
0.00306768
0.00306912
0.0030704
0.00307119
0.00307104
0.00306933
0.00306525
0.00305787
0.00304625
0.00302978
0.00300912
0.00298874
0.00298342
0.00304714
0.00343772
0.00619571
0.00673955
0.00360888
0.00313624
0.00303831
0.00302432
0.00303222
0.00304403
0.0030541
0.00306109
0.00306515
0.00306693
0.00306716
0.00306645
0.00306527
0.00306393
0.00306265
0.00306151
0.00306055
0.00305979
0.00305918
0.0030587
0.00305832
0.003058
0.00305772
0.00305747
0.00305723
0.003057
0.00305677
0.00305655
0.00305633
0.00305611
0.00305591
0.00305571
0.00305552
0.00305535
0.00305519
0.00305505
0.00305493
0.00305482
0.00305475
0.0030547
0.00305469
0.00305469
0.00305468
0.0030547
0.00305475
0.00305484
0.00305495
0.00305509
0.00305527
0.00305547
0.00305571
0.00305597
0.00305627
0.0030566
0.00305698
0.00305743
0.00305795
0.00305857
0.00305933
0.00306025
0.00306138
0.00306273
0.00306432
0.0030661
0.00306799
0.00306982
0.0030713
0.00307196
0.00307122
0.00306831
0.00306233
0.00305237
0.00303791
0.0030197
0.00300246
0.00300133
0.00307177
0.00347714
0.00629639
0.00683937
0.00364586
0.00315848
0.0030539
0.00303577
0.00304064
0.00305009
0.00305829
0.00306374
0.00306655
0.00306732
0.00306672
0.00306534
0.00306363
0.00306187
0.00306024
0.00305885
0.0030577
0.00305679
0.00305608
0.00305553
0.00305509
0.00305474
0.00305444
0.00305418
0.00305393
0.0030537
0.00305347
0.00305325
0.00305304
0.00305283
0.00305262
0.00305243
0.00305225
0.00305208
0.00305193
0.00305179
0.00305168
0.00305159
0.00305152
0.00305148
0.00305148
0.00305147
0.00305147
0.0030515
0.00305157
0.00305166
0.00305179
0.00305195
0.00305214
0.00305236
0.00305261
0.0030529
0.00305322
0.00305358
0.003054
0.00305449
0.00305507
0.00305577
0.00305662
0.00305767
0.00305896
0.00306052
0.00306236
0.00306446
0.00306673
0.00306901
0.00307104
0.00307235
0.00307237
0.00307034
0.00306538
0.00305663
0.0030436
0.00302711
0.003012
0.00301375
0.00308879
0.00350455
0.00636764
0.00691366
0.00367284
0.00317455
0.0030651
0.00304395
0.00304659
0.0030543
0.00306108
0.00306535
0.00306719
0.00306716
0.00306591
0.00306399
0.00306184
0.00305973
0.00305783
0.00305622
0.00305491
0.00305388
0.00305308
0.00305247
0.003052
0.00305162
0.00305131
0.00305104
0.00305079
0.00305056
0.00305034
0.00305013
0.00304992
0.00304972
0.00304953
0.00304935
0.00304918
0.00304902
0.00304888
0.00304876
0.00304866
0.00304859
0.00304854
0.00304851
0.00304851
0.0030485
0.00304852
0.00304857
0.00304866
0.00304877
0.00304892
0.0030491
0.00304931
0.00304956
0.00304984
0.00305015
0.0030505
0.0030509
0.00305136
0.0030519
0.00305254
0.00305332
0.00305427
0.00305544
0.00305687
0.00305861
0.00306068
0.00306304
0.00306563
0.0030683
0.00307075
0.00307258
0.00307316
0.00307179
0.00306758
0.00305969
0.00304764
0.0030323
0.00301858
0.00302223
0.0031003
0.00352306
0.0064162
0.00696839
0.00369238
0.0031861
0.00307313
0.00304978
0.00305081
0.00305723
0.00306295
0.00306634
0.00306744
0.00306678
0.00306501
0.00306266
0.00306016
0.00305776
0.00305564
0.00305385
0.0030524
0.00305127
0.00305041
0.00304975
0.00304924
0.00304885
0.00304853
0.00304826
0.00304802
0.00304779
0.00304758
0.00304738
0.00304719
0.003047
0.00304683
0.00304666
0.00304651
0.00304637
0.00304625
0.00304615
0.00304607
0.00304602
0.00304599
0.00304598
0.00304597
0.00304598
0.00304603
0.0030461
0.00304621
0.00304635
0.00304652
0.00304673
0.00304697
0.00304724
0.00304755
0.0030479
0.00304829
0.00304873
0.00304924
0.00304983
0.00305053
0.00305139
0.00305243
0.00305371
0.00305528
0.00305719
0.00305944
0.00306204
0.00306489
0.00306785
0.00307064
0.00307285
0.00307387
0.00307297
0.00306929
0.00306198
0.00305058
0.00303598
0.00302313
0.00302792
0.00310787
0.00353511
0.00644761
0.00700844
0.00370649
0.00319439
0.00307889
0.00305397
0.00305384
0.00305932
0.00306425
0.00306697
0.00306751
0.00306637
0.00306419
0.00306151
0.00305872
0.0030561
0.00305379
0.00305186
0.00305031
0.0030491
0.00304818
0.00304748
0.00304695
0.00304655
0.00304622
0.00304596
0.00304572
0.00304551
0.00304531
0.00304513
0.00304495
0.00304478
0.00304463
0.00304448
0.00304435
0.00304423
0.00304413
0.00304406
0.003044
0.00304397
0.00304396
0.00304395
0.00304396
0.003044
0.00304407
0.00304417
0.0030443
0.00304447
0.00304468
0.00304492
0.00304519
0.0030455
0.00304584
0.00304623
0.00304666
0.00304715
0.00304771
0.00304835
0.00304912
0.00305005
0.00305118
0.00305257
0.00305426
0.00305631
0.00305873
0.00306151
0.00306457
0.00306777
0.00307082
0.00307332
0.00307466
0.00307409
0.00307077
0.00306382
0.00305282
0.00303864
0.00302627
0.00303169
0.00311267
0.00354251
0.00646617
0.00703774
0.00371674
0.00320038
0.00308306
0.00305701
0.00305604
0.00306084
0.0030652
0.00306743
0.00306755
0.00306605
0.00306356
0.00306061
0.0030576
0.0030548
0.00305235
0.00305031
0.00304867
0.0030474
0.00304643
0.0030457
0.00304516
0.00304475
0.00304443
0.00304417
0.00304394
0.00304375
0.00304357
0.0030434
0.00304324
0.00304309
0.00304295
0.00304283
0.00304272
0.00304263
0.00304256
0.00304251
0.00304247
0.00304246
0.00304245
0.00304246
0.0030425
0.00304256
0.00304266
0.00304279
0.00304296
0.00304316
0.0030434
0.00304367
0.00304398
0.00304433
0.00304472
0.00304515
0.00304562
0.00304616
0.00304677
0.00304747
0.00304831
0.00304931
0.00305052
0.003052
0.00305381
0.00305597
0.00305853
0.00306147
0.0030647
0.00306809
0.00307134
0.00307406
0.00307562
0.00307527
0.00307216
0.00306543
0.00305463
0.00304065
0.00302847
0.00303414
0.00311555
0.00354656
0.00647493
0.00705935
0.00372431
0.00320479
0.00308614
0.00305926
0.0030577
0.00306201
0.00306595
0.00306782
0.00306763
0.00306586
0.00306313
0.00305998
0.00305681
0.00305387
0.00305131
0.00304918
0.00304748
0.00304616
0.00304516
0.00304441
0.00304386
0.00304345
0.00304313
0.00304288
0.00304267
0.00304248
0.00304232
0.00304217
0.00304203
0.0030419
0.00304179
0.00304169
0.00304161
0.00304154
0.00304149
0.00304147
0.00304145
0.00304144
0.00304145
0.00304149
0.00304155
0.00304165
0.00304177
0.00304194
0.00304214
0.00304237
0.00304265
0.00304296
0.00304331
0.0030437
0.00304413
0.00304461
0.00304513
0.00304571
0.00304638
0.00304714
0.00304804
0.00304911
0.0030504
0.00305197
0.00305387
0.00305615
0.00305884
0.0030619
0.00306529
0.00306882
0.00307223
0.0030751
0.0030768
0.00307658
0.00307359
0.00306694
0.0030562
0.00304224
0.00303007
0.0030357
0.00311712
0.00354833
0.00647697
0.00707564
0.00373006
0.00320815
0.00308848
0.003061
0.003059
0.00306295
0.00306658
0.0030682
0.00306778
0.00306582
0.00306292
0.00305962
0.00305632
0.00305328
0.00305064
0.00304844
0.00304669
0.00304534
0.00304432
0.00304356
0.003043
0.00304259
0.00304228
0.00304204
0.00304184
0.00304167
0.00304153
0.0030414
0.00304128
0.00304117
0.00304108
0.00304101
0.00304095
0.00304091
0.00304089
0.00304088
0.00304086
0.00304088
0.00304091
0.00304097
0.00304107
0.00304119
0.00304135
0.00304155
0.00304178
0.00304206
0.00304237
0.00304272
0.00304312
0.00304355
0.00304402
0.00304454
0.00304512
0.00304576
0.00304648
0.0030473
0.00304826
0.00304941
0.00305078
0.00305244
0.00305444
0.00305682
0.00305961
0.0030628
0.0030663
0.00306995
0.00307347
0.00307644
0.00307823
0.00307807
0.00307511
0.00306846
0.00305767
0.00304361
0.00303128
0.00303669
0.00311779
0.0035486
0.00647405
0.00708836
0.00373465
0.00321081
0.00309034
0.00306239
0.00306006
0.00306375
0.00306716
0.0030686
0.00306801
0.00306591
0.0030629
0.00305949
0.0030561
0.00305299
0.00305029
0.00304805
0.00304627
0.00304489
0.00304385
0.00304309
0.00304253
0.00304212
0.00304182
0.00304159
0.00304141
0.00304126
0.00304113
0.00304102
0.00304092
0.00304084
0.00304078
0.00304073
0.00304069
0.00304067
0.00304066
0.00304065
0.00304066
0.0030407
0.00304076
0.00304085
0.00304098
0.00304113
0.00304133
0.00304156
0.00304183
0.00304214
0.0030425
0.00304289
0.00304333
0.00304381
0.00304433
0.0030449
0.00304553
0.00304623
0.00304701
0.0030479
0.00304894
0.00305016
0.00305161
0.00305336
0.00305545
0.00305794
0.00306083
0.00306412
0.00306772
0.00307146
0.00307507
0.0030781
0.00307993
0.00307978
0.00307678
0.00307006
0.00305913
0.00304487
0.00303228
0.00303732
0.00311791
0.00354776
0.00646722
0.00709878
0.00373851
0.00321305
0.0030919
0.00306356
0.00306097
0.00306446
0.00306771
0.00306901
0.00306831
0.00306611
0.00306301
0.00305955
0.00305611
0.00305295
0.00305021
0.00304794
0.00304613
0.00304474
0.0030437
0.00304293
0.00304238
0.00304198
0.00304169
0.00304147
0.0030413
0.00304117
0.00304106
0.00304097
0.00304089
0.00304083
0.00304079
0.00304076
0.00304075
0.00304074
0.00304073
0.00304074
0.00304077
0.00304083
0.00304092
0.00304105
0.0030412
0.00304139
0.00304162
0.00304189
0.00304221
0.00304256
0.00304296
0.0030434
0.00304389
0.00304442
0.003045
0.00304563
0.00304632
0.00304708
0.00304793
0.00304889
0.00305
0.00305131
0.00305285
0.00305469
0.00305687
0.00305946
0.00306245
0.00306583
0.00306952
0.00307334
0.00307701
0.00308008
0.00308191
0.00308173
0.00307865
0.00307178
0.00306066
0.00304613
0.00303319
0.00303776
0.00311767
0.00354614
0.00645742
0.00710781
0.00374196
0.00321504
0.00309328
0.00306461
0.00306179
0.00306513
0.00306826
0.00306945
0.00306867
0.0030664
0.00306324
0.00305973
0.00305625
0.00305306
0.0030503
0.00304802
0.00304621
0.00304481
0.00304377
0.003043
0.00304245
0.00304206
0.00304178
0.00304157
0.00304142
0.0030413
0.00304122
0.00304115
0.00304109
0.00304106
0.00304104
0.00304103
0.00304102
0.00304101
0.00304103
0.00304106
0.00304112
0.00304122
0.00304134
0.0030415
0.00304169
0.00304192
0.00304219
0.0030425
0.00304286
0.00304326
0.0030437
0.0030442
0.00304474
0.00304532
0.00304596
0.00304666
0.00304741
0.00304825
0.00304917
0.00305022
0.00305142
0.00305281
0.00305445
0.00305638
0.00305867
0.00306135
0.00306445
0.00306793
0.0030717
0.00307559
0.0030793
0.00308239
0.0030842
0.00308394
0.00308074
0.00307369
0.00306231
0.00304745
0.0030341
0.00303809
0.00311718
0.00354396
0.00644524
0.00711609
0.00374521
0.00321691
0.00309457
0.00306558
0.00306257
0.00306577
0.0030688
0.00306993
0.00306908
0.00306676
0.00306357
0.00306003
0.00305653
0.00305332
0.00305055
0.00304826
0.00304644
0.00304504
0.003044
0.00304325
0.0030427
0.00304232
0.00304206
0.00304187
0.00304173
0.00304164
0.00304158
0.00304153
0.0030415
0.00304149
0.00304148
0.00304148
0.00304147
0.00304149
0.00304153
0.00304159
0.00304168
0.0030418
0.00304196
0.00304215
0.00304238
0.00304265
0.00304297
0.00304332
0.00304373
0.00304418
0.00304468
0.00304523
0.00304583
0.00304648
0.00304719
0.00304796
0.00304879
0.00304971
0.00305072
0.00305186
0.00305315
0.00305464
0.00305639
0.00305843
0.00306083
0.00306362
0.00306682
0.0030704
0.00307425
0.00307821
0.00308195
0.00308505
0.00308681
0.00308646
0.00308311
0.00307584
0.00306415
0.00304889
0.00303507
0.0030384
0.00311655
0.00354135
0.00643102
0.00712405
0.00374842
0.00321875
0.00309583
0.00306653
0.00306334
0.00306642
0.00306936
0.00307043
0.00306954
0.00306719
0.00306398
0.00306042
0.00305691
0.00305369
0.00305092
0.00304863
0.00304681
0.00304542
0.00304439
0.00304364
0.00304311
0.00304274
0.00304249
0.00304232
0.00304221
0.00304214
0.0030421
0.00304207
0.00304206
0.00304206
0.00304205
0.00304206
0.00304208
0.00304212
0.00304218
0.00304227
0.0030424
0.00304255
0.00304275
0.00304298
0.00304325
0.00304356
0.00304392
0.00304433
0.00304478
0.00304529
0.00304585
0.00304647
0.00304713
0.00304786
0.00304864
0.00304949
0.00305042
0.00305142
0.00305254
0.00305378
0.00305518
0.00305679
0.00305865
0.00306082
0.00306334
0.00306626
0.00306957
0.00307326
0.0030772
0.00308122
0.00308501
0.0030881
0.0030898
0.00308934
0.0030858
0.00307827
0.00306624
0.00305053
0.00303616
0.00303875
0.00311584
0.00353841
0.00641495
0.00713198
0.00375166
0.00322061
0.0030971
0.00306748
0.00306411
0.00306707
0.00306995
0.00307096
0.00307005
0.00306768
0.00306445
0.00306088
0.00305737
0.00305416
0.00305139
0.0030491
0.0030473
0.00304591
0.00304489
0.00304415
0.00304364
0.00304328
0.00304305
0.0030429
0.00304281
0.00304277
0.00304274
0.00304273
0.00304273
0.00304272
0.00304274
0.00304276
0.0030428
0.00304287
0.00304296
0.00304308
0.00304324
0.00304343
0.00304366
0.00304393
0.00304425
0.00304461
0.00304502
0.00304548
0.003046
0.00304657
0.00304719
0.00304788
0.00304862
0.00304943
0.0030503
0.00305125
0.00305227
0.00305339
0.00305462
0.00305598
0.00305751
0.00305926
0.00306126
0.00306357
0.00306623
0.00306928
0.00307273
0.00307653
0.00308058
0.00308468
0.0030885
0.00309159
0.00309322
0.00309262
0.00308887
0.00308105
0.00306862
0.0030524
0.00303742
0.00303919
0.00311509
0.00353519
0.00639713
0.00714007
0.00375501
0.00322253
0.0030984
0.00306846
0.0030649
0.00306775
0.00307055
0.00307153
0.00307059
0.00306821
0.00306497
0.00306141
0.0030579
0.0030547
0.00305194
0.00304966
0.00304787
0.0030465
0.00304549
0.00304476
0.00304426
0.00304392
0.00304371
0.00304358
0.00304351
0.00304348
0.00304346
0.00304346
0.00304346
0.00304348
0.00304351
0.00304356
0.00304362
0.00304372
0.00304384
0.00304399
0.00304419
0.00304442
0.00304469
0.003045
0.00304537
0.00304578
0.00304624
0.00304676
0.00304734
0.00304798
0.00304869
0.00304945
0.00305029
0.00305119
0.00305216
0.00305322
0.00305436
0.0030556
0.00305696
0.00305847
0.00306015
0.00306205
0.00306421
0.00306668
0.00306952
0.00307273
0.00307634
0.00308028
0.00308445
0.00308863
0.0030925
0.00309558
0.00309713
0.00309639
0.00309241
0.00308425
0.00307138
0.00305459
0.00303893
0.00303976
0.00311435
0.00353171
0.00637754
0.00714844
0.0037585
0.00322452
0.00309975
0.00306948
0.00306573
0.00306846
0.00307119
0.00307213
0.00307117
0.00306878
0.00306555
0.00306199
0.00305849
0.0030553
0.00305255
0.00305029
0.00304851
0.00304715
0.00304616
0.00304545
0.00304496
0.00304464
0.00304444
0.00304433
0.00304428
0.00304426
0.00304426
0.00304425
0.00304427
0.00304431
0.00304436
0.00304443
0.00304452
0.00304464
0.0030448
0.00304499
0.00304522
0.00304549
0.0030458
0.00304617
0.00304658
0.00304705
0.00304758
0.00304816
0.00304882
0.00304953
0.00305032
0.00305118
0.00305211
0.00305312
0.00305422
0.0030554
0.00305667
0.00305806
0.00305958
0.00306125
0.00306311
0.00306519
0.00306754
0.00307021
0.00307324
0.00307665
0.00308044
0.00308455
0.00308886
0.00309315
0.00309708
0.00310017
0.00310164
0.00310074
0.00309649
0.00308795
0.00307458
0.00305715
0.00304073
0.00304052
0.00311365
0.00352801
0.00635613
0.00715718
0.00376218
0.00322662
0.00310117
0.00307054
0.00306659
0.00306921
0.00307187
0.00307277
0.00307179
0.0030694
0.00306617
0.00306262
0.00305914
0.00305596
0.00305323
0.00305098
0.00304922
0.00304787
0.00304689
0.00304619
0.00304572
0.00304542
0.00304524
0.00304515
0.00304511
0.0030451
0.0030451
0.00304511
0.00304514
0.0030452
0.00304527
0.00304537
0.00304549
0.00304564
0.00304583
0.00304605
0.00304632
0.00304664
0.003047
0.00304742
0.00304789
0.00304842
0.00304901
0.00304967
0.00305041
0.00305121
0.0030521
0.00305306
0.00305411
0.00305524
0.00305647
0.00305779
0.00305923
0.00306079
0.00306249
0.00306435
0.00306642
0.00306872
0.0030713
0.0030742
0.00307746
0.00308111
0.00308512
0.00308943
0.00309392
0.00309834
0.00310235
0.00310545
0.00310684
0.00310576
0.00310122
0.00309227
0.00307834
0.00306019
0.00304289
0.00304153
0.00311304
0.00352409
0.0063328
0.00716634
0.00376604
0.00322884
0.00310267
0.00307167
0.0030675
0.00307
0.00307259
0.00307345
0.00307246
0.00307006
0.00306684
0.0030633
0.00305983
0.00305667
0.00305395
0.00305173
0.00304998
0.00304865
0.00304768
0.003047
0.00304654
0.00304626
0.0030461
0.00304602
0.003046
0.00304599
0.00304599
0.00304602
0.00304607
0.00304615
0.00304624
0.00304636
0.00304651
0.00304669
0.00304692
0.00304718
0.0030475
0.00304786
0.00304827
0.00304874
0.00304928
0.00304988
0.00305055
0.00305129
0.00305211
0.00305302
0.00305401
0.00305509
0.00305627
0.00305754
0.00305892
0.00306042
0.00306204
0.0030638
0.00306571
0.00306781
0.00307012
0.00307268
0.00307553
0.00307871
0.00308225
0.00308618
0.00309046
0.00309502
0.00309972
0.00310432
0.00310844
0.00311157
0.00311288
0.00311162
0.00310676
0.00309733
0.00308277
0.0030638
0.00304551
0.00304286
0.00311256
0.00351995
0.00630739
0.00717597
0.00377012
0.00323117
0.00310425
0.00307286
0.00306847
0.00307083
0.00307335
0.00307418
0.00307316
0.00307076
0.00306755
0.00306403
0.00306057
0.00305743
0.00305473
0.00305252
0.00305079
0.00304948
0.00304852
0.00304786
0.00304742
0.00304715
0.003047
0.00304693
0.00304692
0.00304691
0.00304693
0.00304698
0.00304705
0.00304714
0.00304726
0.00304741
0.00304759
0.0030478
0.00304807
0.00304837
0.00304873
0.00304914
0.00304961
0.00305015
0.00305075
0.00305142
0.00305217
0.00305301
0.00305393
0.00305494
0.00305606
0.00305727
0.0030586
0.00306004
0.0030616
0.00306329
0.00306513
0.00306712
0.00306928
0.00307165
0.00307425
0.00307712
0.00308029
0.00308381
0.0030877
0.00309196
0.00309657
0.00310144
0.00310642
0.00311123
0.00311551
0.00311869
0.00311993
0.00311847
0.00311325
0.0031033
0.00308801
0.00306813
0.00304869
0.0030446
0.00311226
0.00351562
0.00627975
0.00718609
0.00377443
0.00323364
0.00310593
0.00307412
0.0030695
0.00307172
0.00307417
0.00307495
0.00307392
0.00307152
0.00306831
0.0030648
0.00306137
0.00305824
0.00305556
0.00305337
0.00305165
0.00305036
0.00304942
0.00304877
0.00304834
0.00304809
0.00304796
0.0030479
0.00304789
0.00304789
0.00304792
0.00304798
0.00304807
0.00304819
0.00304833
0.0030485
0.00304871
0.00304897
0.00304927
0.00304962
0.00305002
0.00305049
0.00305102
0.00305162
0.00305229
0.00305305
0.00305389
0.00305483
0.00305586
0.003057
0.00305825
0.00305962
0.00306111
0.00306274
0.00306451
0.00306643
0.00306851
0.00307077
0.00307324
0.00307593
0.00307887
0.00308211
0.00308567
0.0030896
0.0030939
0.00309858
0.0031036
0.00310886
0.00311418
0.00311927
0.00312375
0.00312702
0.0031282
0.00312653
0.00312093
0.00311038
0.00309427
0.00307334
0.00305255
0.00304681
0.00311217
0.00351109
0.00624967
0.00719673
0.00377897
0.00323625
0.0031077
0.00307545
0.00307059
0.00307267
0.00307503
0.00307577
0.00307472
0.00307232
0.00306912
0.00306563
0.00306221
0.0030591
0.00305644
0.00305427
0.00305257
0.00305129
0.00305036
0.00304973
0.00304931
0.00304907
0.00304896
0.00304891
0.0030489
0.00304891
0.00304896
0.00304904
0.00304914
0.00304928
0.00304944
0.00304964
0.00304989
0.00305018
0.00305052
0.00305092
0.00305137
0.0030519
0.00305249
0.00305316
0.00305392
0.00305476
0.0030557
0.00305675
0.0030579
0.00305918
0.00306059
0.00306213
0.00306382
0.00306566
0.00306766
0.00306984
0.00307222
0.0030748
0.00307762
0.00308069
0.00308405
0.00308773
0.00309176
0.00309618
0.00310099
0.00310619
0.00311171
0.00311745
0.00312321
0.00312867
0.00313342
0.00313683
0.00313798
0.0031361
0.00313006
0.00311883
0.00310179
0.00307964
0.00305728
0.00304965
0.00311237
0.00350637
0.00621693
0.00720791
0.00378377
0.00323901
0.00310957
0.00307687
0.00307175
0.00307368
0.00307595
0.00307665
0.00307558
0.00307318
0.00306999
0.00306651
0.00306311
0.00306002
0.00305738
0.00305522
0.00305354
0.00305227
0.00305136
0.00305073
0.00305033
0.00305011
0.00305
0.00304996
0.00304995
0.00304997
0.00305003
0.00305013
0.00305025
0.00305041
0.0030506
0.00305083
0.00305111
0.00305143
0.00305182
0.00305226
0.00305277
0.00305336
0.00305402
0.00305477
0.00305561
0.00305655
0.0030576
0.00305877
0.00306006
0.00306149
0.00306307
0.00306481
0.00306671
0.0030688
0.00307108
0.00307356
0.00307628
0.00307924