/*--------------------------------*- C++ -*----------------------------------*\
  =========                 |
  \\      /  F ield         | OpenFOAM: The Open Source CFD Toolbox
   \\    /   O peration     | Website:  https://openfoam.org
    \\  /    A nd           | Version:  13
     \\/     M anipulation  |
\*---------------------------------------------------------------------------*/
FoamFile
{
    format      ascii;
    class       volScalarField;
    location    "9";
    object      epsilon;
}
// * * * * * * * * * * * * * * * * * * * * * * * * * * * * * * * * * * * * * //

dimensions      [0 2 -3 0 0 0 0];

internalField   nonuniform List<scalar> 
6400
(
2.89453e-05
0.000148688
0.000361651
0.00058242
0.000748436
0.000841363
0.000874966
0.000878266
0.000883911
0.000916915
0.000996677
0.00115186
0.00139605
0.00173393
0.00214731
0.00261316
0.00310758
0.00362131
0.00412979
0.00462157
0.00511748
0.00566025
0.00630677
0.00708883
0.007971
0.00885725
0.00973832
0.010613
0.011509
0.0124503
0.0134232
0.0143959
0.0153526
0.0162974
0.0172532
0.0182261
0.0192356
0.0202879
0.0213956
0.0225615
0.0237943
0.0251034
0.0264961
0.0279884
0.0295944
0.0313713
0.0334265
0.0359906
0.0385139
0.0411023
0.0436238
0.0460721
0.0483628
0.0504352
0.0522116
0.0535937
0.0542816
0.054552
0.05439
0.0533081
0.0514252
0.0487549
0.0453249
0.0412835
0.0366923
0.0318
0.0268398
0.0219981
0.0174511
0.0134225
0.0101327
0.0073719
0.00514185
0.00343907
0.00221279
0.00137636
0.000830168
0.000477747
0.000226294
4.82684e-05
0.000139862
0.000140569
0.000230272
0.000333523
0.000410767
0.000457481
0.000480562
0.000491253
0.000503549
0.000531382
0.000589739
0.000699064
0.000876153
0.0011337
0.00147527
0.00190178
0.00241511
0.00302201
0.00372838
0.00454456
0.00547807
0.00657116
0.00787455
0.00941082
0.011168
0.0131751
0.015233
0.017208
0.0189928
0.0204925
0.0216251
0.0224933
0.02308
0.0234809
0.0237345
0.0238998
0.0240174
0.0241211
0.0242332
0.0243744
0.0245677
0.0248163
0.0251195
0.0254528
0.0258443
0.0263299
0.0268936
0.02754
0.0282558
0.0290083
0.0297963
0.0305739
0.0313234
0.0319937
0.0325425
0.0328323
0.0329194
0.0327782
0.0323462
0.0314941
0.0302738
0.0286452
0.0266187
0.0242684
0.0216832
0.0189712
0.0162468
0.0136232
0.0111878
0.00903687
0.00721371
0.00564783
0.00430281
0.00316068
0.0022168
0.0014538
0.000888085
0.000499652
0.00026013
0.000255269
0.0003059
0.00025632
0.000343271
0.000431099
0.000483748
0.000510351
0.000525081
0.000542231
0.000577314
0.000648956
0.000781633
0.0010044
0.00134494
0.00182315
0.0024517
0.00324257
0.00420835
0.00536351
0.00671799
0.00827864
0.0100516
0.0119977
0.0140267
0.0159789
0.0176666
0.0188477
0.0195556
0.0199381
0.0201276
0.0202677
0.0203359
0.0202396
0.0199262
0.0196335
0.019328
0.0190654
0.0188547
0.018736
0.0186907
0.0186915
0.0188217
0.0190216
0.0193302
0.0197604
0.0203019
0.0209302
0.0216419
0.0224312
0.023293
0.024211
0.0251751
0.0261601
0.0271432
0.0280871
0.0289516
0.0296867
0.0302043
0.0304239
0.0304353
0.0300451
0.029203
0.0279046
0.026135
0.0239969
0.0215807
0.0189874
0.0163436
0.013764
0.0113531
0.00919256
0.00732857
0.00575982
0.0044608
0.00339249
0.00251685
0.00181145
0.00123294
0.00077285
0.000479613
0.000683766
0.000531553
0.000442246
0.000540982
0.000625101
0.000668399
0.000690848
0.000713595
0.000758072
0.000848188
0.00101605
0.00130234
0.00175014
0.00239488
0.00325796
0.00434892
0.0056719
0.00722531
0.00898668
0.010899
0.0128649
0.0147467
0.0163964
0.0176586
0.0183239
0.0185997
0.0186637
0.0185926
0.0182293
0.0176652
0.0170631
0.016407
0.015897
0.0155071
0.0151759
0.0149297
0.0147842
0.0147227
0.0147139
0.0148158
0.014994
0.0152656
0.0156161
0.0160561
0.0165804
0.0171884
0.0178784
0.0186517
0.019507
0.0204423
0.0214513
0.0225267
0.0236534
0.0248116
0.0259716
0.0270953
0.0281318
0.0290216
0.0296592
0.0299446
0.0299765
0.0295195
0.0286382
0.0273095
0.0253577
0.0230114
0.0203649
0.0175689
0.0147755
0.0121283
0.00974167
0.00768696
0.00598518
0.00461524
0.00353017
0.00267482
0.0020003
0.00145389
0.00100684
0.000720682
0.00114092
0.000853386
0.000700089
0.000797559
0.000878986
0.000924957
0.000961315
0.00101655
0.00112286
0.0013199
0.00165769
0.00219222
0.00297252
0.00402682
0.00535799
0.00694761
0.00875613
0.0107133
0.0127042
0.0145643
0.0161241
0.0171563
0.0176133
0.0177406
0.0176805
0.0172454
0.0164981
0.0156246
0.0148148
0.0141603
0.0135531
0.0130525
0.0126647
0.0123632
0.0121391
0.0120035
0.0119419
0.0119258
0.0119753
0.0121011
0.012282
0.0125278
0.0128336
0.0132045
0.013641
0.0141478
0.0147281
0.0153871
0.0161294
0.0169598
0.0178815
0.0188952
0.0199979
0.0211813
0.0224307
0.0237233
0.0250187
0.0262632
0.0273913
0.0283237
0.0288609
0.0290419
0.0287689
0.0279451
0.0266496
0.0246084
0.0220631
0.0191899
0.0161771
0.013221
0.0105003
0.00814431
0.00621347
0.00469939
0.00354538
0.00267168
0.00201003
0.00150131
0.00110631
0.000880938
0.00145877
0.00131294
0.00103819
0.00111802
0.00120148
0.00126534
0.00133793
0.0014575
0.00167134
0.00203766
0.00262253
0.00348684
0.00466656
0.00615863
0.00791904
0.00986603
0.0118787
0.0137958
0.0154313
0.0165208
0.0169883
0.017096
0.0169418
0.0163779
0.0153904
0.0143834
0.0134912
0.0126804
0.0119984
0.0114278
0.0109424
0.0105538
0.0102425
0.00999754
0.00981169
0.00967946
0.00959825
0.00956144
0.00955293
0.00959221
0.0096707
0.00978865
0.00994847
0.0101518
0.0104027
0.0107067
0.0110705
0.0115029
0.0120143
0.0126162
0.0133217
0.0141428
0.0150913
0.0161753
0.0173963
0.0187474
0.0202142
0.0217594
0.0233341
0.0248666
0.0262503
0.0273377
0.0278585
0.0279702
0.0274024
0.0262583
0.0241207
0.0213773
0.0182349
0.014945
0.0117769
0.00896222
0.00664493
0.00486143
0.00355776
0.00262285
0.00195662
0.00146781
0.00110536
0.000946099
0.00157776
0.00195058
0.00146283
0.00151457
0.00161088
0.00171152
0.00184701
0.00206865
0.00244098
0.00303753
0.00392832
0.00515783
0.00672291
0.00856236
0.0105596
0.012551
0.0143378
0.0156997
0.0163601
0.0165497
0.0164751
0.015917
0.0148601
0.0137327
0.0127102
0.0117876
0.0110016
0.010322
0.00975273
0.00926874
0.00885999
0.00851832
0.00822963
0.00798733
0.00778481
0.00761764
0.00748214
0.00737492
0.00729464
0.0072473
0.0072263
0.00722194
0.00725091
0.00730984
0.00740315
0.00753283
0.0077056
0.00792813
0.00820977
0.00856257
0.00900331
0.00955194
0.0102315
0.0110674
0.0120819
0.0132953
0.0147315
0.0163858
0.0182241
0.0201939
0.0222266
0.0242002
0.0259453
0.0270972
0.0275512
0.0274811
0.026435
0.0241957
0.0211717
0.0176403
0.0139615
0.0105097
0.0075784
0.00531183
0.00369721
0.00261161
0.0018779
0.00138966
0.00106774
0.000938886
0.00153325
0.00280354
0.00197886
0.00200107
0.00212472
0.00228439
0.00251197
0.00287385
0.00344886
0.00431435
0.00552365
0.00707956
0.0089163
0.0108982
0.0128341
0.0145032
0.0155832
0.016017
0.0160854
0.0157069
0.014768
0.0135406
0.0123938
0.0113387
0.0104303
0.00964303
0.00897333
0.0083956
0.00790107
0.00747189
0.00710072
0.00677801
0.00649637
0.00625127
0.00603858
0.00585569
0.00570025
0.00556951
0.00546242
0.00537857
0.00531589
0.00528022
0.00526584
0.00526468
0.00529926
0.00535675
0.00544568
0.00556785
0.00572976
0.005937
0.00619747
0.00652278
0.00692874
0.00743884
0.00808994
0.00892868
0.0100021
0.0113714
0.0130662
0.0150787
0.0173931
0.0198963
0.0224786
0.0249166
0.0268846
0.0278436
0.0281116
0.0272469
0.0248363
0.0213994
0.0173351
0.013159
0.00937626
0.00633824
0.00415706
0.00274077
0.00186896
0.00132085
0.00100152
0.000903301
0.00142591
0.00389761
0.00258983
0.00258704
0.00275986
0.00299884
0.00334496
0.0038763
0.00467641
0.00580855
0.0072865
0.00905105
0.0109631
0.0128177
0.0143765
0.0152614
0.0155577
0.0155533
0.0149221
0.0137567
0.0124815
0.011288
0.0102392
0.00932381
0.00854382
0.00787024
0.00729018
0.00678513
0.0063462
0.00596243
0.00562834
0.00533739
0.00508547
0.00486899
0.00468459
0.00452931
0.00440069
0.00429684
0.00421586
0.00415616
0.00411833
0.0041009
0.00409606
0.0041097
0.00414659
0.00420081
0.00427701
0.00437506
0.00449829
0.00464945
0.0048331
0.0050552
0.00532398
0.00565053
0.00605001
0.00654589
0.00717243
0.00798566
0.0090832
0.0105979
0.0125949
0.0150697
0.0179744
0.0211238
0.0242935
0.0270709
0.02866
0.0292398
0.0285669
0.0258787
0.0218775
0.0171445
0.0123993
0.00829291
0.00520659
0.003175
0.00198143
0.00131571
0.000948781
0.000845044
0.00130336
0.0052424
0.00330376
0.00328568
0.00352153
0.0038581
0.00434039
0.00505141
0.00606543
0.00741235
0.00904897
0.0108465
0.0126014
0.0140692
0.0148647
0.0151184
0.0149799
0.014189
0.0129155
0.0116246
0.0104063
0.0093449
0.00843238
0.00764784
0.00697565
0.00639308
0.005889
0.00545151
0.00507407
0.00474956
0.00447332
0.00424002
0.00404559
0.00388571
0.00375657
0.0036546
0.00357649
0.00351949
0.00348163
0.00346319
0.00345685
0.00346087
0.00348327
0.00351737
0.00356624
0.00362799
0.00370463
0.00379656
0.0039057
0.00403386
0.00418379
0.0043589
0.00456385
0.00480496
0.00509117
0.00543185
0.00584391
0.00635388
0.00700412
0.00786379
0.00905304
0.0108092
0.0132701
0.0164108
0.0200933
0.0239917
0.027631
0.0298916
0.0307614
0.0302223
0.0271087
0.0223756
0.0168619
0.0115364
0.00718616
0.00416013
0.00235208
0.00140009
0.000941187
0.000793443
0.00120078
0.00686342
0.00413718
0.00410148
0.00440811
0.00485157
0.00547215
0.00634726
0.00752667
0.00899233
0.010638
0.0122747
0.0136627
0.0144202
0.0146619
0.0144548
0.0135662
0.012275
0.0109388
0.00971198
0.00863234
0.00771402
0.00692808
0.00625451
0.00567652
0.00517942
0.00475508
0.00439516
0.00409366
0.00384393
0.0036402
0.00347636
0.00334701
0.00324689
0.00317144
0.00311668
0.00307939
0.00305952
0.00305137
0.00305035
0.00306341
0.0030857
0.00311932
0.00316252
0.00321694
0.0032825
0.00336068
0.00345244
0.00355926
0.00368265
0.00382436
0.00398632
0.00417078
0.00438043
0.00461888
0.00489141
0.00520617
0.0055764
0.00602422
0.00658068
0.00730272
0.00829336
0.00973293
0.0119887
0.0152336
0.0193482
0.0239749
0.0285361
0.031453
0.0325674
0.0320253
0.0282819
0.0226375
0.0162755
0.0104478
0.00601812
0.00319348
0.00168282
0.000994893
0.000775049
0.00116027
0.00883199
0.00511428
0.00503003
0.00540581
0.00595354
0.00669579
0.0076926
0.00895742
0.0104186
0.0119145
0.0132199
0.0139629
0.0142051
0.0139767
0.0130578
0.0117894
0.0104283
0.00917309
0.00807979
0.00714643
0.00635686
0.00568358
0.00511127
0.0046266
0.00421962
0.0038826
0.00360728
0.00338604
0.00321089
0.00307453
0.00296999
0.00289131
0.00283333
0.00279198
0.002764
0.00274885
0.00274242
0.00274115
0.00274938
0.00276631
0.0027908
0.00282412
0.00286637
0.00291886
0.0029824
0.00305843
0.00314828
0.00325354
0.00337586
0.00351701
0.00367877
0.0038629
0.00407105
0.00430476
0.00456561
0.00485567
0.00517865
0.00554215
0.00596189
0.00646787
0.00711331
0.00798193
0.00924787
0.0112293
0.0144494
0.0189113
0.0242629
0.0297795
0.0332722
0.0345441
0.0337584
0.0291166
0.0223795
0.0151873
0.00906561
0.00479149
0.00233185
0.00118451
0.000805201
0.00119693
0.0110156
0.00619519
0.00605006
0.00648901
0.0071261
0.00795521
0.00900965
0.0102613
0.01159
0.0127972
0.0135301
0.0137756
0.0135646
0.0126823
0.011439
0.0100732
0.00878402
0.00766434
0.00671424
0.00591371
0.00524003
0.00467287
0.00420035
0.0038111
0.00349557
0.00324416
0.00304693
0.0028945
0.002778
0.00268976
0.00262326
0.00257336
0.00253611
0.00250869
0.00248917
0.00247686
0.00247099
0.00246921
0.00247397
0.00248644
0.00250586
0.00253353
0.00257018
0.00261702
0.00267519
0.00274612
0.00283132
0.00293253
0.00305162
0.00319063
0.0033517
0.00353697
0.00374846
0.00398785
0.00425626
0.00455414
0.00488131
0.00523771
0.00562538
0.00605277
0.00654271
0.00714575
0.00794813
0.00910575
0.0109351
0.0140613
0.0188331
0.0249124
0.0313962
0.0352723
0.0365433
0.0351649
0.0292743
0.0212996
0.0134765
0.00739729
0.00356157
0.00163131
0.000928926
0.00136099
0.0133521
0.00735513
0.00713526
0.00762381
0.00832389
0.00919089
0.0102265
0.0113638
0.0124472
0.013158
0.013402
0.0132403
0.0124304
0.0112236
0.0098578
0.00853688
0.00737754
0.0064012
0.0055846
0.00490421
0.00433961
0.00387549
0.00350029
0.00320188
0.00296879
0.00278929
0.00265237
0.00254826
0.00246868
0.00240708
0.00235844
0.00231926
0.00228714
0.00226067
0.00223914
0.00222233
0.00221054
0.00220486
0.00220325
0.00220826
0.00222145
0.00224256
0.00227277
0.00231311
0.00236475
0.00242906
0.00250757
0.00260205
0.00271454
0.00284732
0.00300294
0.00318412
0.00339365
0.00363419
0.00390789
0.00421605
0.00455861
0.00493388
0.00533885
0.00577071
0.00623108
0.00673469
0.00732569
0.00809938
0.00920646
0.0109791
0.0140776
0.0191733
0.0260256
0.0334443
0.0373347
0.0384181
0.0359151
0.0283318
0.0191994
0.0111423
0.00554485
0.00248547
0.00123511
0.00176514
0.0157652
0.00856428
0.00825406
0.00877131
0.00949884
0.0103465
0.011284
0.0122133
0.0128734
0.0131079
0.0130094
0.0122875
0.0111382
0.00977824
0.00842428
0.00721595
0.00619871
0.00535696
0.00466241
0.00409348
0.00363246
0.00326511
0.0029779
0.00275682
0.00258864
0.00246097
0.00236326
0.00228696
0.00222553
0.00217432
0.00213022
0.00209134
0.0020567
0.00202595
0.00199917
0.00197669
0.001959
0.00194731
0.00194198
0.00194084
0.00194816
0.00196402
0.00198848
0.00202282
0.00206793
0.00212511
0.00219578
0.0022817
0.0023849
0.0025078
0.0026532
0.00282429
0.00302458
0.00325776
0.00352741
0.00383659
0.00418716
0.00457901
0.0050094
0.0054727
0.00596169
0.0064717
0.00701012
0.00761507
0.0083858
0.00948671
0.0112712
0.0144821
0.0200405
0.0278242
0.0357649
0.0393814
0.0400148
0.0354692
0.0259821
0.0160546
0.00838149
0.00381853
0.00179872
0.00242507
0.0181859
0.00979139
0.00937236
0.00989131
0.010605
0.0113735
0.012136
0.0127154
0.0129354
0.0128652
0.0122512
0.0111736
0.00983294
0.00844556
0.00717849
0.00610471
0.00522321
0.00450459
0.00392233
0.00345665
0.00309027
0.00280743
0.00259233
0.0024298
0.00230644
0.00221092
0.00213446
0.00207065
0.00201512
0.00196516
0.00191929
0.00187688
0.00183787
0.00180252
0.00177125
0.00174457
0.001723
0.00170705
0.0016985
0.00169531
0.00169739
0.00170962
0.00172944
0.0017586
0.00179768
0.00184787
0.00191046
0.00198705
0.00207961
0.00219051
0.0023226
0.00247927
0.00266447
0.00288264
0.00313859
0.00343715
0.0037826
0.00417775
0.00462283
0.0051142
0.00564364
0.00619924
0.00676983
0.00735591
0.00799191
0.00878498
0.00991673
0.0117833
0.0152504
0.0214667
0.030427
0.0384203
0.0413979
0.0410194
0.0333126
0.0221002
0.0121512
0.00568141
0.00261738
0.0032807
0.0205606
0.011004
0.0104563
0.0109454
0.0116025
0.0122354
0.0127267
0.0129253
0.0128307
0.0123285
0.0113251
0.0100184
0.00860381
0.00726924
0.00612184
0.00518217
0.00442508
0.00381874
0.00333885
0.00296555
0.00268023
0.00246519
0.00230359
0.00218069
0.00208451
0.00200591
0.00193852
0.00187818
0.0018225
0.00177029
0.00172119
0.00167531
0.00163302
0.00159479
0.00156109
0.00153235
0.00150898
0.00149131
0.00148079
0.00147635
0.00147582
0.00148493
0.00150129
0.00152605
0.00155982
0.00160357
0.00165844
0.00172588
0.00180768
0.00190606
0.00202374
0.00216406
0.00233104
0.00252946
0.00276486
0.00304335
0.00337127
0.00375444
0.00419701
0.00469979
0.00525838
0.00586169
0.00649249
0.00713219
0.007774
0.00845174
0.00928925
0.0104885
0.0125295
0.0164577
0.0235223
0.0338449
0.0413903
0.0434625
0.040295
0.029145
0.0169756
0.00814746
0.00371602
0.00427841
0.0228446
0.0121704
0.0114721
0.0118997
0.0124612
0.0128838
0.0130498
0.0129377
0.012517
0.0115949
0.0103318
0.00890189
0.00749677
0.00625831
0.00523862
0.004424
0.00377953
0.00327449
0.00288512
0.00259015
0.00236943
0.00220443
0.00207896
0.00198009
0.00189823
0.00182684
0.00176184
0.00170101
0.00164338
0.00158875
0.00153737
0.00148964
0.00144602
0.00140694
0.00137276
0.00134376
0.00132019
0.00130223
0.00129072
0.00128545
0.00128419
0.00129058
0.0013043
0.00132536
0.00135452
0.00139254
0.00144044
0.00149948
0.00157126
0.00165775
0.00176146
0.00188547
0.00203364
0.00221068
0.00242232
0.0026753
0.00297724
0.00333628
0.00376011
0.00425449
0.00482097
0.00545416
0.00613946
0.00685318
0.00756818
0.00827048
0.00899827
0.00989949
0.011213
0.0135723
0.018283
0.0265464
0.0381548
0.0439503
0.0447427
0.036738
0.0229801
0.0113746
0.00514358
0.00537026
0.0249486
0.0132611
0.0123932
0.0127309
0.0131463
0.0133201
0.0132338
0.0128072
0.0119817
0.0107741
0.00934162
0.00787102
0.00652803
0.00540384
0.00450763
0.00380649
0.00326285
0.00284696
0.0025342
0.00230184
0.00212916
0.00199835
0.00189519
0.00180933
0.00173385
0.00166456
0.00159927
0.00153712
0.001478
0.00142221
0.0013702
0.00132238
0.00127915
0.00124077
0.00120744
0.00117929
0.00115642
0.00113889
0.00112713
0.00112152
0.00111986
0.0011242
0.00113574
0.00115368
0.00117887
0.00121191
0.00125371
0.00130534
0.0013682
0.00144404
0.00153506
0.00164405
0.0017745
0.00193082
0.00211851
0.00234432
0.00261641
0.00294416
0.00333782
0.0038073
0.00436024
0.00499887
0.0057162
0.00649264
0.007296
0.00808924
0.00885376
0.0096419
0.0106197
0.0121252
0.0150651
0.0210318
0.0312275
0.0423662
0.0463507
0.0438173
0.0301249
0.0155465
0.00695372
0.00652307
0.0267981
0.0142485
0.0131978
0.0134178
0.0136336
0.0136101
0.0132177
0.0124925
0.0113436
0.00992553
0.00840052
0.00694806
0.00569606
0.00468927
0.00390713
0.00330739
0.00285236
0.00251229
0.00226138
0.00207633
0.0019372
0.00182814
0.00173762
0.00165802
0.00158482
0.00151568
0.00144975
0.00138694
0.00132758
0.00127211
0.00122094
0.00117439
0.00113267
0.0010959
0.00106412
0.00103735
0.00101557
0.000998773
0.000987081
0.000981323
0.000979405
0.000982153
0.000991806
0.0010071
0.00102888
0.00105764
0.00109417
0.0011394
0.00119455
0.00126114
0.00134109
0.00143684
0.00155149
0.001689
0.00185442
0.00205412
0.00229609
0.0025901
0.00294764
0.00338145
0.00390407
0.00452523
0.00524756
0.00606121
0.00693904
0.00783679
0.00870533
0.00952615
0.0103819
0.0114619
0.0132791
0.0170711
0.024758
0.0374922
0.0464156
0.0479846
0.0380032
0.0208385
0.00919219
0.00772668
0.0283522
0.0151117
0.013866
0.0139355
0.0139949
0.0137424
0.0130941
0.012037
0.0106517
0.00909191
0.00753486
0.00613881
0.00499025
0.00409597
0.00341663
0.00290612
0.00252702
0.00224908
0.00204591
0.00189486
0.00177791
0.00168186
0.00159799
0.00152111
0.00144859
0.00137943
0.00131351
0.00125115
0.00119279
0.00113881
0.00108948
0.00104498
0.00100534
0.000970567
0.000940591
0.000915338
0.000894733
0.000878728
0.000867289
0.000861384
0.000859249
0.0008607
0.000868693
0.000881729
0.000900571
0.000925665
0.000957682
0.00099745
0.00104602
0.0011047
0.00117517
0.00125955
0.00136054
0.00148164
0.00162733
0.0018034
0.00201729
0.00227843
0.00259858
0.00299176
0.00347371
0.00406003
0.00476263
0.00558386
0.00650889
0.00749923
0.0084937
0.00942949
0.0102979
0.0112219
0.0124668
0.0148341
0.0201379
0.0303837
0.0440439
0.0494439
0.0456122
0.0273557
0.011928
0.00897571
0.0295887
0.0158484
0.0143896
0.0143061
0.0142064
0.01372
0.0128236
0.0115107
0.00994513
0.00830159
0.00675679
0.00543933
0.00439627
0.00360575
0.00301747
0.00258406
0.00226825
0.00203946
0.00187171
0.0017441
0.00164117
0.00155256
0.00147205
0.00139644
0.00132442
0.00125578
0.0011908
0.00112989
0.00107342
0.00102165
0.000974684
0.000932549
0.000895178
0.00086246
0.000834269
0.000810478
0.000790981
0.000775702
0.000764593
0.000758492
0.000756157
0.000756558
0.000763061
0.000774163
0.000790482
0.000812431
0.000840594
0.000875698
0.00091866
0.000970628
0.00103305
0.00110778
0.00119716
0.00130422
0.00143291
0.00158834
0.00177724
0.00200833
0.00229287
0.00264503
0.00308197
0.00362306
0.00428739
0.00508883
0.00602783
0.00708091
0.00819203
0.00927735
0.0102628
0.0111684
0.0121641
0.0137215
0.017115
0.024736
0.0386681
0.0494711
0.0508914
0.0351023
0.0153253
0.0103356
0.0305043
0.0164568
0.0147713
0.0145385
0.0142736
0.0136088
0.0124567
0.0109454
0.00925193
0.00757119
0.00606887
0.00484057
0.003899
0.00320191
0.00269308
0.00232497
0.00206051
0.00186941
0.00172713
0.00161516
0.00152085
0.00143646
0.00135782
0.00128317
0.00121205
0.00114466
0.0010814
0.00102261
0.000968546
0.000919303
0.000874866
0.000835137
0.00079997
0.000769198
0.000742655
0.000720194
0.000701694
0.000687071
0.000676278
0.00066993
0.000667307
0.000667065
0.000672144
0.000681593
0.000695742
0.000714991
0.000739854
0.000770974
0.000809158
0.000855417
0.00091102
0.000977571
0.00105712
0.0011523
0.00126654
0.00140433
0.00157161
0.00177621
0.00202853
0.00234211
0.00273422
0.00322597
0.00384109
0.00460255
0.00552535
0.00660494
0.00780289
0.00903682
0.0101938
0.0111959
0.0121016
0.0132574
0.0154224
0.020691
0.0318716
0.0475018
0.0532062
0.0437571
0.0197072
0.0120667
0.0311139
0.0169361
0.0150231
0.0146419
0.0142307
0.0133761
0.0120323
0.0103675
0.00859133
0.00690875
0.00546779
0.00433137
0.00348401
0.00286962
0.00242907
0.00211521
0.00189143
0.00172855
0.00160414
0.00150242
0.00141342
0.00133159
0.00125434
0.00118086
0.00111117
0.00104563
0.000984585
0.000928285
0.000876822
0.000830167
0.0007882
0.000750748
0.000717616
0.000688607
0.00066354
0.000642258
0.000624638
0.000610593
0.000600077
0.000593463
0.000590513
0.000589934
0.000593724
0.000601748
0.000614032
0.000630958
0.000652984
0.000680683
0.000714776
0.000756157
0.000805948
0.000865562
0.00093679
0.00102193
0.00112397
0.00124681
0.00139566
0.00157746
0.00180154
0.00208038
0.00243054
0.00287328
0.00343468
0.00414383
0.00502763
0.00610024
0.00734647
0.0087022
0.0100459
0.011229
0.0122145
0.0131381
0.0146272
0.0180564
0.0264736
0.0427851
0.0537545
0.0519617
0.0253871
0.01441
0.0314199
0.0172925
0.0151568
0.014628
0.0140995
0.013068
0.0115732
0.00979686
0.00797529
0.00631639
0.00494706
0.00390022
0.00313823
0.00259604
0.00221336
0.00194375
0.00175159
0.00160946
0.00149743
0.00140243
0.00131685
0.00123686
0.00116101
0.00108905
0.00102124
0.000957921
0.000899357
0.000845651
0.000796774
0.000752597
0.000712931
0.000677558
0.000646256
0.000618818
0.000595058
0.00057482
0.00055798
0.00054445
0.000534182
0.000527362
0.000524148
0.000523302
0.000526009
0.0005328
0.00054348
0.000558402
0.000577976
0.000602721
0.000633284
0.000670468
0.000715276
0.000768962
0.000833111
0.000909742
0.00100146
0.00111169
0.00124496
0.00140737
0.00160717
0.00185563
0.00216803
0.00256483
0.00307256
0.00372357
0.00455312
0.00559124
0.00684699
0.00828521
0.00980275
0.0112298
0.0123922
0.0132513
0.0143471
0.0165894
0.0226403
0.0362221
0.0532608
0.0573093
0.0328746
0.0173685
0.0314024
0.0175233
0.0151834
0.0145458
0.0138676
0.0127081
0.0110987
0.00924761
0.00741033
0.00579236
0.00449871
0.00353614
0.00285022
0.00237029
0.00203601
0.00180199
0.00163407
0.00150702
0.00140356
0.00131309
0.00122992
0.00115156
0.00107728
0.00100715
0.000941497
0.000880587
0.000824554
0.000773386
0.000726957
0.000685071
0.000647493
0.000613985
0.000584314
0.000558272
0.000535674
0.000516367
0.000500232
0.000487181
0.000477162
0.000470209
0.000466783
0.000465716
0.000467536
0.000473259
0.000482559
0.000495746
0.000513193
0.000535371
0.000562866
0.00059641
0.000636907
0.000685487
0.000743566
0.00081294
0.000895909
0.000995473
0.0011156
0.00126161
0.00144078
0.00166312
0.00194245
0.00229783
0.00275499
0.00334736
0.00411523
0.00510049
0.0063334
0.0078084
0.0094513
0.011097
0.0125221
0.0135542
0.0143176
0.0159068
0.0199459
0.0305292
0.0503307
0.0596591
0.0425224
0.020818
0.0312376
0.0176696
0.0151446
0.0143679
0.0135739
0.0123139
0.0106235
0.00872914
0.00689897
0.00533267
0.00411443
0.00322918
0.00261013
0.00218335
0.00188911
0.00168337
0.00153387
0.00141776
0.00132031
0.00123303
0.00115181
0.00107507
0.00100254
0.000934451
0.000871076
0.000812588
0.000759009
0.000710229
0.000666053
0.000626241
0.000590538
0.000558694
0.000530477
0.000505681
0.000484127
0.000465667
0.000450181
0.000437583
0.000427817
0.000420861
0.000417237
0.000415985
0.000417091
0.000421894
0.000430004
0.000441686
0.000457279
0.000477212
0.000502025
0.000532385
0.000569122
0.000613263
0.000666092
0.000729224
0.000804711
0.000895211
0.00100421
0.00113639
0.00129813
0.00149824
0.00174908
0.00206799
0.00247914
0.00301539
0.00371924
0.00464057
0.00582729
0.00730367
0.00903378
0.0108767
0.0125714
0.0138913
0.0146679
0.0156904
0.0183902
0.0265317
0.0448597
0.0602006
0.0528682
0.0244213
0.0308716
0.0177519
0.0150396
0.0141229
0.0132344
0.0119002
0.0101587
0.00824723
0.00644101
0.00493215
0.00378622
0.00297062
0.00240968
0.00202785
0.00176642
0.001583
0.00144743
0.00133931
0.00124616
0.00116133
0.00108184
0.00100678
0.000936133
0.000870154
0.000809056
0.000752905
0.000701627
0.000655041
0.000612906
0.000574957
0.00054093
0.000510573
0.000483659
0.000459987
0.000439384
0.000421705
0.000406831
0.000394674
0.000385173
0.000378299
0.000374509
0.000373108
0.000373651
0.000377664
0.000384749
0.000395123
0.000409094
0.000427057
0.000449509
0.000477068
0.000510498
0.000550747
0.000598992
0.000656704
0.000725741
0.000808482
0.000908028
0.00102851
0.00117552
0.00135684
0.00158341
0.0018708
0.00224122
0.00272591
0.00336742
0.00421993
0.00534391
0.00678913
0.00855979
0.010562
0.0125574
0.0141731
0.0150872
0.0157368
0.0176245
0.0233767
0.0391289
0.0593672
0.0616295
0.0273629
0.030301
0.017749
0.0148628
0.0138306
0.0128637
0.011479
0.00971208
0.00780482
0.00603452
0.00458517
0.0035067
0.00275289
0.00224201
0.00189788
0.00166314
0.00149724
0.00137222
0.00126999
0.00118008
0.00109725
0.00101941
0.000946063
0.000877337
0.000813457
0.000754549
0.000700588
0.000651423
0.000606825
0.000566525
0.000530245
0.000497718
0.000468697
0.000442961
0.000420313
0.000400586
0.000383637
0.000369347
0.000357625
0.000348406
0.00034165
0.000337739
0.00033622
0.000336344
0.000339676
0.000345876
0.000355112
0.000367662
0.000383891
0.000404258
0.000429338
0.000459843
0.000496654
0.000540863
0.000593828
0.000657249
0.000733289
0.000824736
0.000935266
0.00106983
0.00123529
0.00144129
0.00170172
0.00203668
0.0024752
0.00305842
0.00384195
0.00489432
0.00628514
0.00805441
0.010157
0.012395
0.0143915
0.0156171
0.0162175
0.0173555
0.0212759
0.0335865
0.0572141
0.0661259
0.0287316
0.0295568
0.0177142
0.0146482
0.0135054
0.0124744
0.0110598
0.00928916
0.00740286
0.0056765
0.00428615
0.00326927
0.00256962
0.00210145
0.00178872
0.00157559
0.00142342
0.00130643
0.00120863
0.00112124
0.00104015
0.000963906
0.000892283
0.000825452
0.000763588
0.000706731
0.000654782
0.000607535
0.000564726
0.00052607
0.000491286
0.000460108
0.000432294
0.000407629
0.000385922
0.000367009
0.000350747
0.000337017
0.000325725
0.0003168
0.000310194
0.000306192
0.000304539
0.00030442
0.000307154
0.000312588
0.000320832
0.000332137
0.000346837
0.000365359
0.000388239
0.000416145
0.000449902
0.000490533
0.000539305
0.000597796
0.000667994
0.000752443
0.000854454
0.000978451
0.0011305
0.00131914
0.00155668
0.00186116
0.00225913
0.00278941
0.00350699
0.00448475
0.0058072
0.00754613
0.00970706
0.0121451
0.0144882
0.0160778
0.016756
0.0173487
0.020138
0.0297811
0.0529811
0.0677546
0.0289748
0.0286812
0.0176329
0.014406
0.0131596
0.0120771
0.0106499
0.00889325
0.00704085
0.0053634
0.00402979
0.00306821
0.00241545
0.00198342
0.00169667
0.00150095
0.00135954
0.00124871
0.00115432
0.00106898
0.000989461
0.000914767
0.000844824
0.000779809
0.000719832
0.000664864
0.000614742
0.000569221
0.000528016
0.000490834
0.000457392
0.00042743
0.000400712
0.000377026
0.000356187
0.000338031
0.000322416
0.000309221
0.000298348
0.000289718
0.000283279
0.000279214
0.000277437
0.000277178
0.00027941
0.000284182
0.000291564
0.000301776
0.000315127
0.000332015
0.000352941
0.000378532
0.000409568
0.000447012
0.000492056
0.000546183
0.000611246
0.000689593
0.000784251
0.000899212
0.00103989
0.00121388
0.00143207
0.00171055
0.00207337
0.0025565
0.00321277
0.00411622
0.0053609
0.00704397
0.00921891
0.01181
0.0145093
0.0165737
0.0174573
0.0178686
0.0196027
0.0269991
0.0479802
0.0678184
0.0283998
0.0277086
0.017521
0.014147
0.0128037
0.0116803
0.0102546
0.00852611
0.00671735
0.00509152
0.00381124
0.00289853
0.00228594
0.0018842
0.0016188
0.00143706
0.0013041
0.00119804
0.00110634
0.00102272
0.000944658
0.000871443
0.000803102
0.000739787
0.00068155
0.000628296
0.000579819
0.000535845
0.000496076
0.000460215
0.000427981
0.00039912
0.000373398
0.000350609
0.00033057
0.000313117
0.000298108
0.000285419
0.000274946
0.000266607
0.00026034
0.000256249
0.000254378
0.000254015
0.000255837
0.000260039
0.000266669
0.000275925
0.000288088
0.000303529
0.000322719
0.000346249
0.000374856
0.000409451
0.000451168
0.00050141
0.000561923
0.000634906
0.00072316
0.000830338
0.000961332
0.00112291
0.00132478
0.00158125
0.00191393
0.00235575
0.00295656
0.00378938
0.00495355
0.00656515
0.00871768
0.0113981
0.0143733
0.016973
0.0181184
0.0184664
0.0194339
0.0248932
0.0434273
0.0655148
0.0274008
0.0266721
0.017394
0.0138808
0.0124464
0.0112908
0.00987785
0.0081884
0.00643032
0.00485708
0.00362618
0.00275609
0.00217742
0.00180081
0.00155282
0.00138226
0.00125594
0.00115362
0.00106408
0.000981971
0.000905243
0.000833424
0.000766581
0.000704832
0.000648173
0.000596462
0.000549457
0.000506866
0.000468381
0.000433704
0.000402559
0.000374692
0.000349876
0.000327908
0.000308604
0.000291801
0.000277354
0.000265138
0.000255043
0.000246983
0.00024089
0.000236799
0.000234858
0.000234409
0.000235899
0.000239611
0.000245588
0.000254005
0.000265123
0.000279287
0.000296938
0.000318634
0.000345073
0.000377122
0.000415862
0.000462629
0.000519088
0.000587318
0.00066995
0.000770371
0.000893053
0.00104411
0.0012322
0.00147007
0.00177708
0.0021831
0.00273446
0.00350153
0.00458559
0.0061166
0.00822349
0.0109524
0.0141271
0.0172345
0.018866
0.0192776
0.0195936
0.0234616
0.039368
0.0623281
0.026222
0.0255714
0.0172691
0.0136178
0.0120954
0.010914
0.00952214
0.00787992
0.00617748
0.00465655
0.00347074
0.00263735
0.0020869
0.00173087
0.00149691
0.00133525
0.00121416
0.0011148
0.00102705
0.000946257
0.000870765
0.000800242
0.000734776
0.000674448
0.000619209
0.000568877
0.000523183
0.000481823
0.000444483
0.000410867
0.0003807
0.000353732
0.000329738
0.000308516
0.000289883
0.000273675
0.000259746
0.000247965
0.000238222
0.000230424
0.0002245
0.000220429
0.000218429
0.000217907
0.000219126
0.000222418
0.000227826
0.000235511
0.000245711
0.00025875
0.00027504
0.000295108
0.000319616
0.000349391
0.000385465
0.000429119
0.00048195
0.000545945
0.000623604
0.00071811
0.000833609
0.00097568
0.00115213
0.00137434
0.00165962
0.00203494
0.00254287
0.00325007
0.00425693
0.00570183
0.00774284
0.0104873
0.0138454
0.0173421
0.0195816
0.0201486
0.0202096
0.0226603
0.0358206
0.0584843
0.0249942
0.0244795