/*--------------------------------*- C++ -*----------------------------------*\
  =========                 |
  \\      /  F ield         | OpenFOAM: The Open Source CFD Toolbox
   \\    /   O peration     | Website:  https://openfoam.org
    \\  /    A nd           | Version:  13
     \\/     M anipulation  |
\*---------------------------------------------------------------------------*/
FoamFile
{
    format      ascii;
    class       volScalarField;
    location    "9";
    object      k;
}
// * * * * * * * * * * * * * * * * * * * * * * * * * * * * * * * * * * * * * //

dimensions      [0 2 -2 0 0 0 0];

internalField   nonuniform List<scalar> 
6400
(
5.65351e-07
2.90414e-06
7.06369e-06
1.13757e-05
1.46183e-05
1.64333e-05
1.70895e-05
1.71539e-05
1.72642e-05
1.79087e-05
1.94664e-05
2.24971e-05
2.72665e-05
3.38655e-05
4.19395e-05
5.10384e-05
6.06952e-05
7.07292e-05
8.06608e-05
9.02661e-05
9.9952e-05
0.000110553
0.00012318
0.000138455
0.000155684
0.000172994
0.000190202
0.000207285
0.000224786
0.00024317
0.000262171
0.000281169
0.000299856
0.000318308
0.000336976
0.000355979
0.000375696
0.000396249
0.000417883
0.000440656
0.000464733
0.000490302
0.000517502
0.00054665
0.000578018
0.000612722
0.000652864
0.000702946
0.000752228
0.000802783
0.000852031
0.000899847
0.000944587
0.000985064
0.00101976
0.00104675
0.00106018
0.00106546
0.0010623
0.00104117
0.00100439
0.000952234
0.000885241
0.000806305
0.000716634
0.000621083
0.000524204
0.000429641
0.000340833
0.000262152
0.0001979
0.000143979
0.000100424
6.71677e-05
4.32177e-05
2.68815e-05
1.6214e-05
9.33089e-06
4.41977e-06
9.4274e-07
2.73174e-06
2.29505e-05
5.57069e-05
8.70129e-05
0.000110096
0.000123824
0.000130361
0.000133043
0.000135511
0.000140908
0.000152773
0.000175083
0.00020895
0.000253664
0.000307075
0.000366465
0.000429419
0.000493496
0.000556894
0.000619016
0.000682089
0.000750587
0.000830057
0.000922802
0.00102456
0.0011262
0.00122507
0.00131912
0.00140937
0.00149683
0.00157971
0.00165708
0.00172748
0.00179193
0.00185275
0.00191083
0.00196814
0.00202555
0.00208438
0.00214516
0.0022086
0.00227539
0.00234557
0.0024193
0.00249593
0.00257542
0.0026558
0.00273422
0.00281878
0.00290514
0.00299396
0.0030816
0.00316651
0.00324489
0.00331337
0.00336787
0.00339599
0.00340458
0.00339163
0.00334454
0.00325956
0.00313641
0.00297349
0.00277444
0.00254391
0.0022908
0.00202625
0.00175842
0.001495
0.00123981
0.000997333
0.000777079
0.000585327
0.00042513
0.000296766
0.000198424
0.000126985
7.67105e-05
3.72867e-05
4.98571e-06
5.97474e-06
4.97699e-05
0.000115663
0.000170728
0.000208112
0.00023014
0.000242314
0.000250721
0.000261474
0.000280589
0.000313944
0.000366324
0.000439368
0.00053117
0.000637618
0.000754469
0.000878429
0.00100678
0.00113693
0.00126672
0.00139447
0.00151944
0.00163938
0.0017489
0.00184307
0.00191811
0.00197142
0.00200874
0.0020377
0.00206542
0.0020959
0.0021283
0.00216318
0.00219813
0.0022367
0.00227805
0.0023239
0.00237417
0.00242991
0.00249106
0.00255741
0.00262967
0.00270716
0.00279011
0.0028784
0.00297191
0.00306996
0.0031738
0.00328317
0.00339631
0.0035123
0.00362879
0.00374355
0.00385317
0.00395382
0.00404067
0.00410852
0.0041445
0.00415476
0.00413428
0.00406865
0.00395752
0.00379668
0.00358838
0.00333507
0.00304488
0.002734
0.00241132
0.00208718
0.00177185
0.00147413
0.00120062
0.00095618
0.000743255
0.000562587
0.000413469
0.000292647
0.000192571
9.80865e-05
1.33547e-05
1.03821e-05
8.36506e-05
0.000181625
0.000255019
0.00030297
0.000332679
0.00035279
0.00037194
0.000398608
0.000441077
0.00050669
0.00059992
0.000720446
0.000863413
0.00102188
0.00118922
0.00135962
0.00152738
0.00168637
0.00183068
0.00195462
0.00205627
0.002133
0.00217768
0.00219657
0.00220091
0.00219601
0.00219324
0.0021927
0.00219817
0.00220909
0.00222341
0.00224287
0.00226719
0.00229685
0.00233156
0.00237198
0.00241795
0.00246945
0.00252685
0.00259005
0.0026594
0.00273468
0.00281591
0.00290264
0.00299539
0.00309491
0.00320094
0.00331304
0.00343029
0.00355168
0.00367552
0.00379967
0.0039212
0.00403649
0.00414099
0.00422952
0.00429374
0.00432365
0.00432817
0.00428888
0.00420433
0.0040771
0.00389986
0.00366962
0.00338791
0.00307177
0.00273199
0.00238403
0.00204196
0.00171768
0.00141971
0.00115304
0.00091959
0.000719386
0.000550765
0.000409396
0.000285623
0.000155889
2.22835e-05
1.6668e-05
0.000128964
0.000259793
0.000350741
0.000409418
0.000448246
0.000479337
0.000514219
0.000563922
0.000638514
0.000745219
0.000885866
0.00105575
0.00124545
0.00144409
0.00164134
0.00182776
0.00199438
0.00213195
0.0022363
0.00229635
0.00231936
0.00232101
0.00229039
0.00225979
0.00223234
0.00220995
0.0021949
0.00218781
0.00218568
0.00218738
0.00219438
0.00220597
0.00222181
0.00224176
0.00226582
0.00229387
0.00232558
0.00236102
0.00240038
0.00244373
0.00249154
0.00254459
0.00260366
0.00266973
0.00274272
0.00282245
0.00290939
0.00300371
0.00310548
0.00321449
0.00333018
0.00345151
0.00357693
0.00370425
0.00382988
0.00394917
0.00405642
0.00414495
0.00419854
0.0042173
0.00419329
0.00411209
0.003975
0.00379114
0.00354924
0.00325098
0.00291442
0.00255701
0.0021972
0.00185199
0.0015344
0.00125191
0.0010068
0.000798122
0.000622725
0.000474812
0.000342191
0.000195282
2.84916e-05
2.56438e-05
0.000189054
0.000354716
0.000464023
0.000534867
0.000585129
0.000630794
0.00068655
0.000765629
0.000878326
0.00102921
0.00121496
0.00142489
0.00164429
0.00185788
0.00205156
0.00221309
0.00233515
0.00240033
0.00242173
0.00240844
0.00236297
0.00231776
0.00227354
0.00223268
0.00219703
0.00216789
0.00214492
0.00212658
0.00211167
0.00209961
0.00209169
0.00208729
0.00208549
0.00208526
0.00208837
0.00209383
0.00210208
0.00211325
0.00212783
0.00214604
0.00216855
0.00219537
0.00222692
0.00226382
0.00230653
0.00235591
0.00241288
0.00247846
0.00255375
0.00263967
0.00273706
0.0028464
0.00296747
0.00309913
0.00323993
0.00338676
0.00353506
0.00367852
0.00380789
0.00391399
0.00396725
0.0039808
0.00393252
0.00381871
0.003642
0.00338653
0.00307026
0.00271157
0.00233392
0.00196174
0.0016159
0.0013099
0.00104867
0.000830681
0.000650625
0.000500295
0.00036513
0.000212954
3.08155e-05
3.80979e-05
0.000265845
0.000468719
0.000597708
0.000682424
0.000746596
0.000810315
0.000891137
0.00100318
0.00115457
0.00134462
0.00156323
0.00179345
0.00201578
0.00221188
0.00236657
0.00246011
0.00249506
0.00249245
0.00244267
0.00238861
0.0023253
0.00226417
0.00220314
0.0021488
0.00210175
0.00206066
0.00202354
0.00198969
0.00195952
0.00193322
0.00190983
0.00188855
0.00186932
0.00185218
0.00183754
0.00182518
0.00181549
0.00180858
0.0018052
0.00180407
0.00180563
0.00181139
0.00182063
0.0018344
0.00185271
0.00187666
0.00190685
0.00194453
0.00199125
0.0020489
0.00211947
0.00220526
0.00230839
0.00242975
0.00257028
0.00273054
0.00290691
0.00309385
0.00328436
0.00346998
0.00363443
0.00375102
0.00379944
0.0037973
0.00370509
0.00353378
0.00326217
0.00291612
0.00252271
0.00211481
0.00172473
0.00137728
0.00108473
0.000847055
0.000656782
0.000501251
0.000363804
0.000211923
2.99463e-05
5.47575e-05
0.000360354
0.000602415
0.000752424
0.000852611
0.000932754
0.00101686
0.00112438
0.00126829
0.00145212
0.00166825
0.00189959
0.00212386
0.00231862
0.0024655
0.002538
0.00255682
0.00252543
0.00246942
0.00239318
0.00230922
0.0022212
0.00214287
0.00207201
0.00201145
0.00195558
0.00190438
0.0018565
0.00181206
0.00177097
0.00173301
0.00169786
0.00166553
0.00163616
0.0016099
0.00158687
0.00156683
0.00154984
0.00153591
0.00152507
0.00151713
0.00151316
0.00151175
0.00151277
0.00151859
0.00152769
0.00154137
0.00155973
0.00158352
0.00161316
0.00164971
0.00169431
0.00174876
0.00181577
0.00190001
0.00200676
0.00214043
0.00230564
0.00250119
0.00271913
0.00295477
0.00319369
0.00342
0.00360799
0.00370193
0.00372517
0.00366287
0.00349116
0.00318942
0.00279878
0.00235762
0.00191076
0.00149966
0.00115194
0.000875876
0.000663058
0.00049643
0.000355169
0.00020517
2.78497e-05
7.61262e-05
0.000472338
0.000755128
0.000927222
0.00104397
0.001141
0.00124559
0.00137762
0.00154688
0.00175062
0.00197406
0.00219437
0.00238649
0.00252313
0.00258377
0.00259219
0.00254767
0.00247884
0.00238166
0.00227034
0.00216655
0.0020747
0.00199248
0.00191795
0.00185039
0.00178686
0.00172782
0.00167267
0.00162181
0.00157522
0.00153297
0.00149509
0.00146166
0.00143262
0.00140777
0.00138694
0.00136993
0.00135651
0.00134641
0.0013395
0.00133614
0.00133501
0.00133587
0.00134044
0.00134772
0.00135782
0.001371
0.00138733
0.00140712
0.00143059
0.0014583
0.00149083
0.00152895
0.00157376
0.00162684
0.00169055
0.00176896
0.00186924
0.00200509
0.0021915
0.00242586
0.00269323
0.00298176
0.00326707
0.00352053
0.00366493
0.00371059
0.00367376
0.00349456
0.00314993
0.0027023
0.0022044
0.00171539
0.00128571
0.000942351
0.000685763
0.000496221
0.000341838
0.000191432
2.54561e-05
0.000102392
0.000600012
0.00092481
0.00111977
0.00125324
0.00136624
0.00148844
0.00163865
0.00182195
0.00202886
0.00223852
0.00242486
0.00255473
0.0026087
0.00261226
0.00256533
0.002479
0.00235787
0.00222988
0.00211354
0.00200863
0.00191506
0.00182984
0.00175148
0.00167907
0.00161172
0.00155011
0.00149421
0.00144446
0.00140083
0.00136329
0.00133163
0.00130551
0.00128449
0.00126807
0.00125572
0.0012469
0.0012415
0.00123902
0.00123833
0.00123989
0.00124374
0.00124948
0.00125738
0.00126712
0.00127887
0.00129273
0.00130884
0.00132742
0.00134872
0.0013729
0.00140028
0.0014312
0.00146613
0.00150557
0.00155028
0.00160196
0.00166351
0.0017403
0.00184169
0.00198464
0.00220205
0.00248942
0.00281509
0.00315945
0.00347707
0.00367213
0.00373845
0.003716
0.00351767
0.00311792
0.00260369
0.00204552
0.00151812
0.00107808
0.000746315
0.000510981
0.000336041
0.000178628
2.34525e-05
0.000134053
0.000739522
0.00110832
0.00132641
0.00147543
0.00160133
0.00173527
0.00189379
0.00207672
0.0022686
0.00244465
0.0025693
0.00262005
0.00262157
0.0025743
0.00247366
0.0023354
0.00219598
0.00206552
0.00194953
0.00184503
0.00175057
0.00166393
0.00158455
0.00151228
0.0014473
0.0013902
0.00134096
0.00129958
0.00126559
0.00123844
0.00121737
0.00120157
0.00119023
0.0011826
0.00117852
0.00117682
0.00117655
0.00117869
0.00118231
0.0011876
0.00119438
0.00120265
0.00121246
0.00122385
0.00123694
0.00125185
0.00126871
0.00128765
0.00130879
0.00133223
0.00135809
0.00138653
0.00141774
0.00145207
0.00148978
0.00153093
0.00157634
0.00162772
0.00168892
0.00176828
0.00188107
0.00205299
0.00233125
0.00269008
0.00308385
0.00346504
0.00370788
0.00379099
0.00376918
0.0035348
0.0030672
0.00247976
0.00186451
0.00131021
0.000872634
0.00055961
0.000344974
0.000174462
2.26611e-05
0.000172502
0.000886471
0.00130193
0.00154234
0.00170423
0.00183793
0.00197528
0.0021301
0.0022973
0.00245717
0.00257566
0.00262487
0.00262622
0.0025796
0.00247063
0.00232143
0.00216976
0.00202761
0.00189958
0.00178568
0.00168271
0.00158954
0.00150519
0.00142991
0.00136398
0.00130764
0.00126087
0.00122306
0.00119347
0.00117098
0.00115453
0.00114297
0.00113534
0.00113112
0.00112926
0.0011288
0.00112993
0.00113254
0.00113645
0.00114148
0.00114776
0.00115529
0.0011642
0.00117462
0.00118667
0.00120054
0.00121638
0.00123435
0.00125459
0.0012772
0.00130225
0.00132975
0.00135961
0.00139171
0.00142585
0.00146189
0.00149989
0.00154031
0.00158318
0.001629
0.00168073
0.00174521
0.001837
0.00198163
0.00222345
0.00260134
0.0030355
0.00347985
0.00376011
0.00385261
0.00381408
0.00352099
0.00297183
0.00230939
0.00164967
0.00108662
0.000665798
0.000380142
0.000181124
2.33768e-05
0.000215152
0.00104094
0.00150145
0.00176204
0.00193276
0.00206756
0.0021986
0.00233706
0.00247422
0.00258275
0.00262999
0.00263193
0.00258605
0.00247473
0.00231881
0.00215533
0.00200115
0.00186196
0.00173817
0.00162782
0.00152878
0.00144074
0.00136357
0.00129765
0.00124292
0.00119891
0.00116465
0.00113883
0.00112003
0.0011068
0.00109788
0.00109217
0.00108906
0.00108767
0.00108726
0.00108773
0.00108949
0.00109212
0.00109573
0.00110036
0.00110619
0.00111333
0.00112197
0.00113228
0.00114444
0.00115864
0.00117508
0.00119394
0.00121539
0.00123959
0.00126665
0.00129661
0.00132941
0.00136485
0.00140256
0.00144201
0.00148256
0.00152365
0.00156509
0.00160752
0.00165079
0.00169658
0.00175137
0.0018278
0.00195106
0.00216607
0.0025438
0.00301829
0.00351815
0.00381895
0.0039083
0.00383202
0.00344983
0.00280596
0.00207844
0.00139439
0.000846347
0.000461242
0.000205892
2.65806e-05
0.000260787
0.00119919
0.0017019
0.00197959
0.00215418
0.00228263
0.00239731
0.00250761
0.0026
0.00264234
0.00264418
0.00259778
0.00248829
0.00232895
0.00215556
0.0019887
0.00183788
0.00170417
0.00158608
0.0014817
0.0013901
0.0013114
0.00124553
0.00119221
0.00115047
0.00111891
0.00109578
0.00107932
0.00106789
0.0010601
0.00105485
0.00105135
0.00104906
0.00104759
0.00104689
0.00104668
0.00104731
0.00104881
0.00105133
0.00105497
0.00105992
0.00106636
0.00107447
0.00108443
0.00109643
0.00111065
0.00112731
0.0011466
0.00116875
0.00119395
0.00122241
0.00125427
0.0012896
0.00132833
0.00137021
0.0014147
0.00146097
0.00150789
0.00155418
0.00159887
0.00164198
0.00168432
0.0017265
0.00177412
0.00184006
0.00195043
0.00215363
0.00252233
0.003034
0.00357966
0.00387356
0.00394381
0.00380408
0.00328993
0.0025553
0.00177793
0.00110091
0.000598618
0.000260647
3.44736e-05
0.000307917
0.00135704
0.00189809
0.00218924
0.00236233
0.002477
0.00256615
0.00263707
0.00266973
0.0026688
0.0026191
0.0025135
0.00235345
0.00217221
0.00199279
0.001829
0.00168451
0.001558
0.00144765
0.00135227
0.00127148
0.00120513
0.00115243
0.00111206
0.00108212
0.00106052
0.00104521
0.0010344
0.00102664
0.00102085
0.0010163
0.00101254
0.00100933
0.00100659
0.0010044
0.001003
0.00100243
0.0010024
0.00100381
0.00100652
0.00101069
0.00101651
0.00102413
0.00103372
0.00104544
0.00105949
0.00107605
0.00109534
0.00111759
0.00114305
0.001172
0.00120469
0.00124135
0.00128211
0.00132698
0.00137568
0.0014276
0.00148162
0.00153612
0.00158904
0.00163837
0.0016831
0.00172368
0.00176292
0.00180647
0.00186547
0.00196924
0.00216708
0.00253993
0.00308975
0.00365357
0.00391683
0.0039488
0.00369793
0.00303188
0.00220519
0.00141343
0.000784895
0.000344792
4.73624e-05
0.000355199
0.00151045
0.00208534
0.00238597
0.00255205
0.00264637
0.00270015
0.00272132
0.00271131
0.00265506
0.00255298
0.00239398
0.00220694
0.00201551
0.00183746
0.00168028
0.00154399
0.00142648
0.00132626
0.00124248
0.00117456
0.00112144
0.00108132
0.00105194
0.00103085
0.00101577
0.00100478
0.000996372
0.000989512
0.000983529
0.000978056
0.00097295
0.000968214
0.000963948
0.000960311
0.000957476
0.000955793
0.000955136
0.000955361
0.000957467
0.000961088
0.000966452
0.000973699
0.000982958
0.000994386
0.00100814
0.00102441
0.00104339
0.00106532
0.00109048
0.00111916
0.0011517
0.00118845
0.00122974
0.00127582
0.00132679
0.00138246
0.00144215
0.00150456
0.00156757
0.00162832
0.00168356
0.00173117
0.00177072
0.00180317
0.00184361
0.0019
0.00200209
0.00220262
0.00259364
0.00318664
0.00373399
0.00395354
0.00390231
0.00345858
0.00264466
0.0017637
0.00100873
0.000450713
6.40739e-05
0.00040158
0.00165512
0.0022599
0.00256655
0.00271872
0.00278254
0.00279782
0.00277546
0.00271049
0.00261023
0.00245247
0.00226137
0.00205889
0.00186557
0.00169334
0.0015449
0.00141839
0.00131169
0.00122349
0.00115269
0.00109786
0.00105685
0.00102701
0.0010056
0.000990069
0.000978369
0.000968957
0.000960797
0.000953273
0.00094608
0.000939138
0.000932502
0.000926308
0.000920728
0.000915946
0.000912136
0.000909587
0.000908415
0.000908148
0.000909672
0.00091297
0.000918004
0.000924959
0.000933929
0.000945054
0.000958477
0.000974361
0.000992896
0.00101431
0.00103885
0.00106684
0.00109863
0.00113463
0.0011753
0.00122107
0.00127234
0.00132935
0.00139201
0.00145966
0.00153083
0.00160293
0.00167219
0.00173395
0.00178591
0.00182496
0.00184811
0.00188422
0.00194185
0.00204648
0.00225932
0.00268502
0.00332023
0.00380505
0.00395107
0.00376093
0.00306858
0.00213756
0.00126082
0.000572104
8.35603e-05
0.000446189
0.00178979
0.00241828
0.00272355
0.00285562
0.00289066
0.00286927
0.00279838
0.00268788
0.00253155
0.00233728
0.00212494
0.00191588
0.00172615
0.0015624
0.00142417
0.00130883
0.0012143
0.00113899
0.00108101
0.00103789
0.00100664
0.00098416
0.000967678
0.000954952
0.000944363
0.000934856
0.000925834
0.000917032
0.000908409
0.000900055
0.000892126
0.000884806
0.000878279
0.000872716
0.000868272
0.00086513
0.000863596
0.000863115
0.000864162
0.000867214
0.000871973
0.000878655
0.000887339
0.000898151
0.000911221
0.000926699
0.000944755
0.000965593
0.000989453
0.00101662
0.00104745
0.00108235
0.0011218
0.00116635
0.00121659
0.00127306
0.00133617
0.00140597
0.00148184
0.00156216
0.00164385
0.00172212
0.00179069
0.00184704
0.0018817
0.0018982
0.00192938
0.00198958
0.00210233
0.00234008
0.00282413
0.0034997
0.00384584
0.0038822
0.00344986
0.00252523
0.00153703
0.000704938
0.000104886
0.000487284
0.0019109
0.00255546
0.00285442
0.00296428
0.00297516
0.00291096
0.0027922
0.00263591
0.00243696
0.00221571
0.00199105
0.0017818
0.00159915
0.00144552
0.00131859
0.00121538
0.00113354
0.00107077
0.0010242
0.000990529
0.000966299
0.00094843
0.00093446
0.000922629
0.000911819
0.000901416
0.000891169
0.000881053
0.000871176
0.000861706
0.00085283
0.000844729
0.000837566
0.000831486
0.000826616
0.00082307
0.000821238
0.00082059
0.000821214
0.000823994
0.000828466
0.000834842
0.000843208
0.000853679
0.000866379
0.000881445
0.000899037
0.000919335
0.000942557
0.000968959
0.000998855
0.00103263
0.00107074
0.00111376
0.00116234
0.0012172
0.00127906
0.00134852
0.00142577
0.00151025
0.00160017
0.00169187
0.00177943
0.00185469
0.00191253
0.00193882
0.00195087
0.00197818
0.00204321
0.0021715
0.00245664
0.00302455
0.00364993
0.00388567
0.00370373
0.00290647
0.00183402
0.000846866
0.000127402
0.000523408
0.00201548
0.00266932
0.00295906
0.00304978
0.00303347
0.00292738
0.00276797
0.00256413
0.00233355
0.00209379
0.00186376
0.00165872
0.00148529
0.00134282
0.00122787
0.00113709
0.00106753
0.00101598
0.000978731
0.000951989
0.000932292
0.000916877
0.000903775
0.00089174
0.000880101
0.000868583
0.000857163
0.000845951
0.000835118
0.00082485
0.000815321
0.000806686
0.000799079
0.000792616
0.0007874
0.000783522
0.000781353
0.000780523
0.000780717
0.000783138
0.000787268
0.000793279
0.000801272
0.000811359
0.00082366
0.000838309
0.000855454
0.000875262
0.000897926
0.000923675
0.000952783
0.000985588
0.00102251
0.00106407
0.00111092
0.00116381
0.00122363
0.00129128
0.00136756
0.00145282
0.00154654
0.0016466
0.00174861
0.00184516
0.00192579
0.00197939
0.00199703
0.0020043
0.00203052
0.00210307
0.00225862
0.00262103
0.00327488
0.00372727
0.00379794
0.00326082
0.00214655
0.00099343
0.000150911
0.000553762
0.00210239
0.00275951
0.00303835
0.00311321
0.00306674
0.00292136
0.00272026
0.00248156
0.00222683
0.00197562
0.00174541
0.00154748
0.00138456
0.00125382
0.00115101
0.00107226
0.00101381
0.0009716
0.000941403
0.000919331
0.000902218
0.00088779
0.000874603
0.000861865
0.000849246
0.000836698
0.000824322
0.000812287
0.000800771
0.000789943
0.000779949
0.000770914
0.000762946
0.00075614
0.000750583
0.000746354
0.000743743
0.000742629
0.000742485
0.000744388
0.00074811
0.000753689
0.000761251
0.000770904
0.000782772
0.000796987
0.000813691
0.000833042
0.000855217
0.00088042
0.000908892
0.000940928
0.000976892
0.00101724
0.00106257
0.0011136
0.00117123
0.00123651
0.00131057
0.00139442
0.00148856
0.0015924
0.00170342
0.00181608
0.00192097
0.0020038
0.00204471
0.00205482
0.00205764
0.00208608
0.00217149
0.00237525
0.00286375
0.00352332
0.00378534
0.00352878
0.00246406
0.00114178
0.000175307
0.000577912
0.00217165
0.00282709
0.0030941
0.00315423
0.00307802
0.00290083
0.00266072
0.00239315
0.00212087
0.00186384
0.00163717
0.00144819
0.00129645
0.00117754
0.00108651
0.0010188
0.000969835
0.000934947
0.000909736
0.000890537
0.000874654
0.00086034
0.000846616
0.000833046
0.000819531
0.000806148
0.000793055
0.000780424
0.000768415
0.000757167
0.0007468
0.000737412
0.000729093
0.000721924
0.000715986
0.000711358
0.000708199
0.000706691
0.000706283
0.000707553
0.000710801
0.000715891
0.000722968
0.000732141
0.000743539
0.000757292
0.000773545
0.000792449
0.000814172
0.000838902
0.000866854
0.000898286
0.000933513
0.00097293
0.00101705
0.00106652
0.00112219
0.00118511
0.00125654
0.00133784
0.00143025
0.00153441
0.00164954
0.0017724
0.00189605
0.00200895
0.00208413
0.00210911
0.0021117
0.00210839
0.00214567
0.00225465
0.00254787
0.00317205
0.0036176
0.00364806
0.00278336
0.00130329
0.000201867
0.000595796
0.00222393
0.00287347
0.00312819
0.00317477
0.00307186
0.00286237
0.00259287
0.00230268
0.00201849
0.00176
0.0015394
0.00136042
0.00122006
0.00111269
0.00103263
0.000974584
0.000933327
0.000903885
0.000881984
0.000864371
0.000848874
0.000834228
0.000819829
0.000805488
0.000791241
0.000777224
0.000763601
0.000750526
0.000738131
0.000726528
0.000715811
0.000706065
0.000697367
0.000689795
0.000683426
0.000678342
0.000674631
0.000672643
0.000671944
0.000672549
0.00067526
0.000679824
0.000686375
0.000695032
0.000705923
0.000719185
0.000734962
0.000753406
0.000774682
0.000798969
0.000826466
0.000857403
0.000892057
0.000930767
0.000973971
0.00102224
0.00107631
0.00113718
0.00120608
0.00128452
0.00137415
0.00147644
0.00159202
0.00171961
0.0018545
0.00198693
0.00210083
0.0021618
0.00217363
0.00216302
0.00215408
0.00220871
0.00237272
0.0028303
0.00346251
0.0036704
0.00309838
0.00150288
0.000235679
0.000607703
0.00226028
0.00289969
0.00314088
0.00317443
0.00305251
0.00281423
0.00252034
0.00221301
0.00192158
0.00166485
0.00145196
0.00128345
0.0011543
0.00105781
0.000987596
0.000937685
0.000902441
0.000876871
0.000857025
0.000840151
0.000824571
0.000809423
0.000794374
0.00077939
0.000764577
0.000750082
0.000736053
0.000722619
0.000709884
0.000697941
0.000686867
0.00067674
0.000667633
0.000659623
0.000652789
0.000647214
0.000642982
0.000640428
0.000639408
0.000639397
0.000641512
0.000645526
0.00065153
0.000659643
0.000669999
0.000682738
0.000698007
0.000715963
0.000736771
0.000760607
0.000787665
0.000818158
0.000852336
0.000890495
0.000933012
0.000980373
0.00103322
0.00109244
0.00115916
0.0012349
0.00132146
0.00142085
0.00153477
0.00166381
0.00180598
0.00195484
0.00209768
0.00219805
0.00223385
0.00223453
0.00220771
0.00220089
0.00228824
0.00255933
0.0031911
0.00356428
0.00335267
0.00175701
0.000281448
0.000613679
0.002281
0.00290686
0.00313769
0.0031633
0.00301827
0.00275887
0.0024459
0.00212624
0.00183129
0.0015786
0.00137438
0.0012164
0.00109794
0.00101142
0.000949769
0.000906495
0.000875789
0.000852858
0.000834195
0.000817546
0.000801663
0.000785993
0.000770384
0.00075489
0.000739639
0.00072477
0.000710406
0.000696649
0.000683588
0.000671298
0.000659853
0.000649326
0.000639793
0.000631333
0.000624029
0.00061797
0.000613248
0.000610056
0.000608559
0.000608208
0.000609646
0.000613104
0.000618551
0.000626106
0.000635905
0.000648092
0.000662819
0.000680248
0.000700549
0.000723902
0.0007505
0.00078055
0.000814287
0.000851979
0.000893956
0.000940635
0.000992571
0.00105051
0.00111549
0.00118889
0.00127251
0.00136857
0.00147939
0.0016068
0.00175082
0.00190767
0.00206737
0.00221171
0.00228997
0.00230443
0.00227655
0.00224246
0.00226121
0.00241362
0.00290214
0.00342091
0.0034747
0.00206192
0.000339231
0.000613337
0.0022889
0.00290201
0.00312331
0.00313742
0.00297504
0.00269895
0.00237171
0.00204383
0.00174823
0.00150112
0.001306
0.00115825
0.00104978
0.000972164
0.000917758
0.000879755
0.00085238
0.000831181
0.000813127
0.000796419
0.00078016
0.000764014
0.000747947
0.00073205
0.00071645
0.000701266
0.0006866
0.000672535
0.000659145
0.000646502
0.000634677
0.000623746
0.000613788
0.000604885
0.000597124
0.000590597
0.000585398
0.00058163
0.000579645
0.000578989
0.000579785
0.00058269
0.000587583
0.000594577
0.000603806
0.000615417
0.000629569
0.000646429
0.000666174
0.000688994
0.000715084
0.000744657
0.00077794
0.000815189
0.0008567
0.000902841
0.000954085
0.00101108
0.00107471
0.00114622
0.00122731
0.00132021
0.00142762
0.00155229
0.00169606
0.00185801
0.00203181
0.00220295
0.00232745
0.00237073
0.00236441
0.00229601
0.00226525
0.0023382
0.00265605
0.00328208
0.00350612
0.00240682
0.000406604
0.000610119
0.00228692
0.00288602
0.00309364
0.00309893
0.00292473
0.00263656
0.00229939
0.00196671
0.00167263
0.00143205
0.00124605
0.00110802
0.00100865
0.00093882
0.000890427
0.000856527
0.00083154
0.000811432
0.00079363
0.000776726
0.00076009
0.000743536
0.000727095
0.000710871
0.000694977
0.000679512
0.000664559
0.000650189
0.000636472
0.000623477
0.00061128
0.000599958
0.000589595
0.000580276
0.000572091
0.00056513
0.000559484
0.000555247
0.000552762
0.000551814
0.000552051
0.000554413
0.000558766
0.000565204
0.000573857
0.000584876
0.000598423
0.000614673
0.000633813
0.00065604
0.000681563
0.0007106
0.000743384
0.000780166
0.000821228
0.0008669
0.000917597
0.00097387
0.00103648
0.00110652
0.00118551
0.00127557
0.00137947
0.00150045
0.00164154
0.00180399
0.00198452
0.0021716
0.00234185
0.00243021
0.00244456
0.00239068
0.00231624
0.00231246
0.00248739
0.00305697
0.00342853
0.00275382
0.000476983
0.000602971
0.0022782
0.00285611
0.00305348
0.00305171
0.00286939
0.00257336
0.00223012
0.00189546
0.00160445
0.00137087
0.00119374
0.00106473
0.000973523
0.000910375
0.000866884
0.000836126
0.000812821
0.000793365
0.000775606
0.000758452
0.000741469
0.000724572
0.000707822
0.000691321
0.000675165
0.000659436
0.000644205
0.000629538
0.000615503
0.000602172
0.000589624
0.000577942
0.000567211
0.000557522
0.000548963
0.000541623
0.000535593
0.00053096
0.000527983
0.0005267
0.000526557
0.000528379
0.000532212
0.000538106
0.000546186
0.000556603
0.000569523
0.000585128
0.000603614
0.000625189
0.000650077
0.000678508
0.000710727
0.000746991
0.000787577
0.000832796
0.000883021
0.000938731
0.00100058
0.0010695
0.00114684
0.00123454
0.0013353
0.00145257
0.00159025
0.00175149
0.00193637
0.0021381
0.00233861
0.00247658
0.00251741
0.00249099
0.00237265
0.00231864
0.00240395
0.00284195
0.00329066
0.0030312
0.000534437
0.000591825
0.00225981
0.0028173
0.00300581
0.00299768
0.00281073
0.00251067
0.00216471
0.00183036
0.0015435
0.00131705
0.0011483
0.00102752
0.00094349
0.000885992
0.000846447
0.000818068
0.000795924
0.000776832
0.000758998
0.000741581
0.000724292
0.000707104
0.000690091
0.000673345
0.000656948
0.000640969
0.000625472
0.000610522
0.000596189
0.000582551
0.000569688
0.00055769
0.000546643
0.000536639
0.000527765
0.000520109
0.000513758
0.000508796
0.00050537
0.000503729
0.000503336
0.000504652
0.00050799
0.00051336
0.000520877
0.000530689
0.000542968
0.000557899
0.00057569
0.000596561
0.000620748
0.000648501
0.00068008
0.000715755
0.000755809
0.00080055
0.000850325
0.00090556
0.000966819
0.0010349
0.00111097
0.00119675
0.00129476
0.00140843
0.00154202
0.00169989
0.00188442
0.00209238
0.00231003
0.00249905
0.00258262
0.00258618
0.00247949
0.00236552
0.00236442
0.00266643
0.00316228
0.00316362
0.000561169
0.00057729
0.00223458
0.00277156
0.00295203
0.00293884
0.00275022
0.00244949
0.0021037
0.00177149
0.00148947
0.00126998
0.001109
0.000995583
0.000917785
0.000865004
0.000828602
0.000802004
0.000780649
0.000761731
0.000743762
0.000726093
0.000708533
0.000691094
0.00067385
0.000656882
0.00064026
0.000624046
0.000608302
0.000593094
0.000578495
0.000564588
0.000551458
0.000539196
0.000527891
0.000517633
0.000508506
0.000500595
0.000493981
0.000488743
0.000484968
0.00048299
0.000482378
0.000483251
0.000486126
0.000490995
0.000497963
0.000507177
0.000518807
0.000533047
0.000550111
0.000570233
0.000593663
0.00062067
0.000651533
0.000686541
0.000725995
0.000770206
0.000819514
0.00087431
0.00093509
0.00100254
0.00107765
0.00116195
0.00125771
0.00136821
0.00149789
0.00165197
0.00183491
0.00204704
0.00227891
0.00250481
0.00264099
0.00267003
0.00259365
0.00241606
0.00235411
0.00250877
0.00305567
0.00320112
0.00056592
0.000560189
0.00220468
0.00272061
0.00289362
0.00287679
0.00268904
0.00239054
0.00204739
0.00171876
0.00144196
0.00122909
0.00107515
0.000968229
0.000895764
0.000846879
0.000812959
0.000787684
0.000766851
0.00074799
0.000729857
0.000711952
0.000694154
0.000676492
0.000659041
0.00064187
0.000625042
0.000608614
0.000592648
0.000577214
0.00056239
0.000548261
0.000534917
0.000522449
0.000510946
0.000500495
0.000491177
0.000483071
0.000476251
0.000470789
0.000466758
0.000464468
0.000463656
0.00046415
0.0004666
0.000470994
0.000477433
0.00048606
0.000497045
0.000510585
0.000526903
0.000546242
0.000568869
0.000595071
0.000625149
0.000659415
0.000698192
0.000741808
0.000790605
0.000844961
0.000905322
0.000972279
0.00104669
0.00112985
0.00122379
0.00133154
0.00145746
0.00160717
0.00178658
0.00199908
0.00224028
0.00249119
0.00268343
0.00274607
0.0027085
0.00251658
0.00238131
0.00243212
0.00288755
0.00317345
0.00055469
0.000541192
0.0021719
0.00266609
0.00283202
0.00281288
0.00262816
0.00233435
0.00199592
0.00167201
0.0014006
0.00119385
0.00104615
0.000944863
0.000876901
0.000831198
0.000799222
0.000774922
0.000754424
0.000735544
0.000717238
0.000699117
0.000681105
0.000663245
0.000645607
0.000628252
0.000611238
0.000594623
0.000578468
0.000562848
0.000547844
0.000533544
0.000520041
0.000507425
0.000495783
0.000485199
0.00047575
0.000467507
0.000460536
0.000454903
0.000450672
0.000448103
0.000447106
0.000447288
0.000449349
0.000453299
0.000459232
0.000467289
0.00047764
0.000490483
0.000506045
0.000524582
0.000546373
0.000571724
0.000600958
0.000634414
0.000672441
0.00071539
0.000763621
0.000817508
0.00087747
0.000944031
0.00101792
0.00110025
0.00119279
0.00129828
0.00142089
0.00156636
0.00174157
0.00195223
0.00219775
0.00246338
0.00270434
0.00281307
0.00281045
0.00263507
0.00242533
0.00240062
0.00273758
0.00309987
0.000535179
0.000520947
0.00213697
0.00260922
0.00276845
0.00274821
0.0025683
0.00228127
0.00194928
0.00163098
0.00136496
0.00116375
0.00102149
0.00092498
0.000860761
0.000817628
0.000787161
0.000763572
0.000743278
0.000724335
0.000705857
0.000687537
0.000669334
0.000651297
0.000633491
0.000615974
0.000598801
0.000582028
0.000565722
0.000549958
0.000534822
0.000520405
0.000506797
0.000494088
0.000482363
0.000471701
0.000462174
0.000453844
0.000446774
0.000441019
0.000436635
0.000433814
0.000432623
0.000432575
0.000434282
0.000437816
0.000443271