/*--------------------------------*- C++ -*----------------------------------*\
  =========                 |
  \\      /  F ield         | OpenFOAM: The Open Source CFD Toolbox
   \\    /   O peration     | Website:  https://openfoam.org
    \\  /    A nd           | Version:  13
     \\/     M anipulation  |
\*---------------------------------------------------------------------------*/
FoamFile
{
    format      ascii;
    class       volScalarField;
    location    "9";
    object      nut;
}
// * * * * * * * * * * * * * * * * * * * * * * * * * * * * * * * * * * * * * //

dimensions      [0 2 -1 0 0 0 0];

internalField   nonuniform List<scalar> 
6400
(
9.93804e-10
5.10505e-09
1.2417e-08
1.99969e-08
2.56968e-08
2.88873e-08
3.00408e-08
3.0154e-08
3.03476e-08
3.14804e-08
3.42184e-08
3.95456e-08
4.79291e-08
5.9529e-08
7.37215e-08
8.97159e-08
1.06691e-07
1.2433e-07
1.41788e-07
1.58673e-07
1.75699e-07
1.94333e-07
2.16529e-07
2.43379e-07
2.73665e-07
3.04091e-07
3.34339e-07
3.64368e-07
3.95132e-07
4.27447e-07
4.60848e-07
4.94243e-07
5.2709e-07
5.59526e-07
5.9234e-07
6.25744e-07
6.60403e-07
6.96532e-07
7.3456e-07
7.74591e-07
8.16915e-07
8.61861e-07
9.09673e-07
9.6091e-07
1.01605e-06
1.07705e-06
1.14762e-06
1.23565e-06
1.32228e-06
1.41115e-06
1.49772e-06
1.58177e-06
1.66041e-06
1.73156e-06
1.79254e-06
1.83998e-06
1.8636e-06
1.87288e-06
1.86731e-06
1.83016e-06
1.76551e-06
1.67383e-06
1.55607e-06
1.41731e-06
1.25969e-06
1.09173e-06
9.21433e-07
7.55211e-07
5.99105e-07
4.60803e-07
3.47862e-07
2.53081e-07
1.76522e-07
1.18065e-07
7.59669e-08
4.72516e-08
2.85006e-08
1.64018e-08
7.76909e-09
1.65716e-09
4.802e-09
3.37241e-07
1.21288e-06
2.04307e-06
2.65578e-06
3.01631e-06
3.18263e-06
3.24283e-06
3.28208e-06
3.36284e-06
3.56184e-06
3.94651e-06
4.48483e-06
5.10813e-06
5.75252e-06
6.35547e-06
6.87175e-06
7.25294e-06
7.48629e-06
7.58849e-06
7.64357e-06
7.71618e-06
7.87468e-06
8.14389e-06
8.45949e-06
8.66408e-06
8.86702e-06
9.10081e-06
9.41244e-06
9.83997e-06
1.03858e-05
1.09869e-05
1.16368e-05
1.23076e-05
1.30166e-05
1.37496e-05
1.45154e-05
1.53085e-05
1.61356e-05
1.69913e-05
1.78695e-05
1.87767e-05
1.97118e-05
2.0696e-05
2.16942e-05
2.2672e-05
2.36039e-05
2.44312e-05
2.53079e-05
2.61851e-05
2.70752e-05
2.7954e-05
2.88094e-05
2.96195e-05
3.03621e-05
3.10923e-05
3.153e-05
3.18263e-05
3.20063e-05
3.19658e-05
3.1586e-05
3.09069e-05
2.98944e-05
2.85465e-05
2.68611e-05
2.48957e-05
2.27438e-05
2.04272e-05
1.79797e-05
1.53086e-05
1.24098e-05
9.62258e-06
7.16617e-06
5.14641e-06
3.57556e-06
2.43739e-06
1.63416e-06
1.05995e-06
4.81016e-07
8.7639e-09
1.05027e-08
8.69749e-07
3.50747e-06
6.08519e-06
8.05781e-06
9.34023e-06
1.00641e-05
1.04337e-05
1.06583e-05
1.09186e-05
1.13486e-05
1.20245e-05
1.29181e-05
1.39279e-05
1.49244e-05
1.57993e-05
1.65023e-05
1.70084e-05
1.7317e-05
1.74438e-05
1.74112e-05
1.73185e-05
1.72444e-05
1.72276e-05
1.73051e-05
1.75684e-05
1.78867e-05
1.8214e-05
1.85666e-05
1.89432e-05
1.9441e-05
2.01422e-05
2.11351e-05
2.2149e-05
2.32954e-05
2.44975e-05
2.57786e-05
2.70763e-05
2.84312e-05
2.9879e-05
3.12742e-05
3.27189e-05
3.41218e-05
3.54561e-05
3.67289e-05
3.79787e-05
3.91936e-05
4.04156e-05
4.16488e-05
4.28789e-05
4.41016e-05
4.53029e-05
4.64674e-05
4.75742e-05
4.85963e-05
4.94979e-05
5.02973e-05
5.08126e-05
5.10456e-05
5.11999e-05
5.1017e-05
5.05141e-05
4.96395e-05
4.82932e-05
4.63861e-05
4.39457e-05
4.11617e-05
3.80196e-05
3.4534e-05
3.07369e-05
2.66867e-05
2.25241e-05
1.84463e-05
1.46555e-05
1.13179e-05
8.4938e-06
6.2516e-06
4.31845e-06
1.80538e-06
2.3475e-08
1.82502e-08
1.42402e-06
5.48796e-06
9.36349e-06
1.23596e-05
1.44182e-05
1.56973e-05
1.6424e-05
1.68594e-05
1.72329e-05
1.77421e-05
1.85079e-05
1.95057e-05
2.05937e-05
2.16103e-05
2.24408e-05
2.3026e-05
2.33635e-05
2.34836e-05
2.34456e-05
2.33169e-05
2.32088e-05
2.31882e-05
2.32923e-05
2.33468e-05
2.33588e-05
2.33437e-05
2.3749e-05
2.44952e-05
2.54863e-05
2.67695e-05
2.79877e-05
2.91958e-05
3.04835e-05
3.18022e-05
3.30932e-05
3.43935e-05
3.57609e-05
3.70442e-05
3.83251e-05
3.95499e-05
4.07601e-05
4.19194e-05
4.30413e-05
4.41157e-05
4.51669e-05
4.62189e-05
4.72725e-05
4.83244e-05
4.93684e-05
5.0398e-05
5.14027e-05
5.23697e-05
5.32821e-05
5.412e-05
5.48598e-05
5.54758e-05
5.59441e-05
5.61857e-05
5.62432e-05
5.60818e-05
5.5551e-05
5.47811e-05
5.39798e-05
5.26673e-05
5.07251e-05
4.83366e-05
4.54632e-05
4.21762e-05
3.85217e-05
3.45438e-05
3.03086e-05
2.5926e-05
2.15593e-05
1.7413e-05
1.36483e-05
1.03752e-05
7.29238e-06
3.03478e-06
3.91701e-08
2.92998e-08
2.13808e-06
7.61616e-06
1.2596e-05
1.631e-05
1.88109e-05
2.03421e-05
2.11939e-05
2.1684e-05
2.21349e-05
2.27996e-05
2.37604e-05
2.49117e-05
2.60552e-05
2.70143e-05
2.76904e-05
2.80646e-05
2.8178e-05
2.80873e-05
2.79144e-05
2.76627e-05
2.74877e-05
2.73293e-05
2.67035e-05
2.66505e-05
2.71849e-05
2.81318e-05
2.9267e-05
3.04222e-05
3.17232e-05
3.29912e-05
3.42191e-05
3.54251e-05
3.65991e-05
3.76803e-05
3.86916e-05
3.97091e-05
4.06461e-05
4.14586e-05
4.22214e-05
4.29016e-05
4.35339e-05
4.4132e-05
4.47265e-05
4.53407e-05
4.59683e-05
4.6595e-05
4.72311e-05
4.78781e-05
4.85396e-05
4.9217e-05
4.99106e-05
5.06183e-05
5.13356e-05
5.20556e-05
5.27653e-05
5.34449e-05
5.40648e-05
5.45922e-05
5.49704e-05
5.5117e-05
5.50085e-05
5.44581e-05
5.33613e-05
5.25652e-05
5.1386e-05
4.95677e-05
4.72547e-05
4.45085e-05
4.13791e-05
3.79022e-05
3.41025e-05
3.00157e-05
2.57318e-05
2.14583e-05
1.73633e-05
1.3515e-05
9.52586e-06
3.89604e-06
5.00829e-08
4.50778e-08
3.09842e-06
1.01288e-05
1.6129e-05
2.03483e-05
2.30309e-05
2.45703e-05
2.53817e-05
2.5891e-05
2.64748e-05
2.73415e-05
2.84686e-05
2.96701e-05
3.07275e-05
3.14872e-05
3.1889e-05
3.19517e-05
3.18031e-05
3.13873e-05
3.10703e-05
3.05366e-05
2.96619e-05
2.95203e-05
3.02271e-05
3.11913e-05
3.22006e-05
3.33568e-05
3.45097e-05
3.56156e-05
3.6676e-05
3.75933e-05
3.84442e-05
3.92205e-05
3.98948e-05
4.04309e-05
4.08945e-05
4.12671e-05
4.16299e-05
4.19013e-05
4.21363e-05
4.23443e-05
4.25426e-05
4.27285e-05
4.29045e-05
4.30796e-05
4.32506e-05
4.34262e-05
4.36129e-05
4.38205e-05
4.40595e-05
4.43411e-05
4.46772e-05
4.50799e-05
4.55573e-05
4.61085e-05
4.67366e-05
4.74422e-05
4.81997e-05
4.89747e-05
4.97137e-05
5.04336e-05
5.08469e-05
5.09903e-05
5.07922e-05
4.99813e-05
4.94919e-05
4.82835e-05
4.65253e-05
4.4278e-05
4.16277e-05
3.86464e-05
3.53654e-05
3.17653e-05
2.78189e-05
2.36776e-05
1.94714e-05
1.53471e-05
1.08551e-05
4.31399e-06
5.4168e-08
6.697e-08
4.34816e-06
1.3055e-05
1.99598e-05
2.44888e-05
2.71609e-05
2.85669e-05
2.92797e-05
2.98181e-05
3.05403e-05
3.15482e-05
3.27138e-05
3.38085e-05
3.46324e-05
3.50821e-05
3.51559e-05
3.46943e-05
3.42467e-05
3.37835e-05
3.25945e-05
3.22606e-05
3.27477e-05
3.35973e-05
3.43695e-05
3.5254e-05
3.6137e-05
3.70249e-05
3.77868e-05
3.84409e-05
3.90041e-05
3.94869e-05
3.98888e-05
4.01881e-05
4.03983e-05
4.0531e-05
4.06154e-05
4.06535e-05
4.06657e-05
4.062e-05
4.05861e-05
4.05598e-05
4.04674e-05
4.0398e-05
4.02968e-05
4.02041e-05
4.00915e-05
3.99798e-05
3.98607e-05
3.97435e-05
3.96364e-05
3.95542e-05
3.95146e-05
3.95471e-05
3.96941e-05
3.99641e-05
4.03603e-05
4.09518e-05
4.17308e-05
4.266e-05
4.36789e-05
4.47794e-05
4.58202e-05
4.67323e-05
4.71564e-05
4.72235e-05
4.6737e-05
4.64499e-05
4.52378e-05
4.3386e-05
4.10248e-05
3.82999e-05
3.5327e-05
3.21396e-05
2.86425e-05
2.47262e-05
2.06735e-05
1.62721e-05
1.1156e-05
4.30514e-06
5.264e-08
9.62549e-08
5.9059e-06
1.63219e-05
2.39809e-05
2.864e-05
3.11718e-05
3.23817e-05
3.29907e-05
3.35558e-05
3.43574e-05
3.53801e-05
3.64231e-05
3.72512e-05
3.76995e-05
3.77215e-05
3.72024e-05
3.67335e-05
3.56847e-05
3.49417e-05
3.49037e-05
3.54433e-05
3.58274e-05
3.64476e-05
3.70452e-05
3.77613e-05
3.83567e-05
3.88773e-05
3.92597e-05
3.95512e-05
3.97522e-05
3.98788e-05
3.99372e-05
3.99373e-05
3.9899e-05
3.9835e-05
3.97586e-05
3.96706e-05
3.95759e-05
3.94738e-05
3.93775e-05
3.92316e-05
3.9133e-05
3.90687e-05
3.88662e-05
3.87456e-05
3.85712e-05
3.84032e-05
3.82124e-05
3.8012e-05
3.77906e-05
3.75512e-05
3.72883e-05
3.69995e-05
3.66789e-05
3.63888e-05
3.62364e-05
3.626e-05
3.66164e-05
3.73399e-05
3.82583e-05
3.94928e-05
4.08376e-05
4.22481e-05
4.35782e-05
4.4297e-05
4.44272e-05
4.43168e-05
4.41666e-05
4.27823e-05
4.06683e-05
3.80161e-05
3.5045e-05
3.19346e-05
2.87287e-05
2.51916e-05
2.11712e-05
1.67921e-05
1.13358e-05
4.19409e-06
4.89545e-08
1.33818e-07
7.75311e-06
1.98372e-05
2.80364e-05
3.27091e-05
3.50285e-05
3.60225e-05
3.65249e-05
3.70758e-05
3.78537e-05
3.87492e-05
3.95303e-05
3.99902e-05
3.98537e-05
3.93692e-05
3.88715e-05
3.75583e-05
3.70604e-05
3.71097e-05
3.7167e-05
3.74252e-05
3.78343e-05
3.8321e-05
3.87493e-05
3.91544e-05
3.94173e-05
3.95987e-05
3.96778e-05
3.97027e-05
3.96773e-05
3.9626e-05
3.95591e-05
3.94908e-05
3.94303e-05
3.93799e-05
3.93403e-05
3.93087e-05
3.92827e-05
3.92558e-05
3.92111e-05
3.91802e-05
3.91602e-05
3.90804e-05
3.89986e-05
3.8914e-05
3.87963e-05
3.86663e-05
3.85084e-05
3.83267e-05
3.81107e-05
3.78616e-05
3.75717e-05
3.72342e-05
3.68438e-05
3.63886e-05
3.58619e-05
3.52671e-05
3.46205e-05
3.4142e-05
3.43185e-05
3.51454e-05
3.63189e-05
3.78806e-05
3.95429e-05
4.12055e-05
4.21791e-05
4.23794e-05
4.25207e-05
4.24702e-05
4.08177e-05
3.83342e-05
3.52718e-05
3.19347e-05
2.85741e-05
2.51724e-05
2.13605e-05
1.68435e-05
1.10845e-05
3.90294e-06
4.47468e-08
1.79988e-07
9.80741e-06
2.34273e-05
3.20456e-05
3.66386e-05
3.87053e-05
3.94725e-05
3.98431e-05
4.03049e-05
4.09399e-05
4.15793e-05
4.19949e-05
4.17509e-05
4.12035e-05
4.06228e-05
3.95384e-05
3.89801e-05
3.87407e-05
3.84968e-05
3.86336e-05
3.88569e-05
3.91433e-05
3.94032e-05
3.95792e-05
3.96889e-05
3.96989e-05
3.96688e-05
3.96013e-05
3.95367e-05
3.94804e-05
3.94505e-05
3.94481e-05
3.94759e-05
3.95285e-05
3.95992e-05
3.96798e-05
3.97582e-05
3.98432e-05
3.98957e-05
3.99241e-05
3.99785e-05
3.99685e-05
3.99471e-05
3.98994e-05
3.98301e-05
3.97332e-05
3.96157e-05
3.94743e-05
3.93129e-05
3.91305e-05
3.89173e-05
3.86669e-05
3.83668e-05
3.79987e-05
3.75573e-05
3.70132e-05
3.635e-05
3.55581e-05
3.46624e-05
3.37195e-05
3.27952e-05
3.28871e-05
3.39868e-05
3.54958e-05
3.74459e-05
3.93796e-05
4.06002e-05
4.08903e-05
4.11213e-05
4.10812e-05
3.9102e-05
3.61837e-05
3.26422e-05
2.8864e-05
2.51443e-05
2.13125e-05
1.67841e-05
1.07982e-05
3.61932e-06
4.12245e-08
2.35643e-07
1.18971e-05
2.69547e-05
3.5921e-05
4.03829e-05
4.21744e-05
4.26962e-05
4.28849e-05
4.31644e-05
4.35412e-05
4.38191e-05
4.34848e-05
4.2844e-05
4.21867e-05
4.12619e-05
4.05943e-05
3.99892e-05
3.96761e-05
3.9536e-05
3.96253e-05
3.97164e-05
3.98098e-05
3.98402e-05
3.98084e-05
3.97399e-05
3.96464e-05
3.95752e-05
3.95332e-05
3.95434e-05
3.9601e-05
3.97073e-05
3.985e-05
4.00196e-05
4.02023e-05
4.03854e-05
4.05927e-05
4.07388e-05
4.08286e-05
4.09911e-05
4.10678e-05
4.11368e-05
4.1159e-05
4.11609e-05
4.1128e-05
4.10668e-05
4.09742e-05
4.08528e-05
4.07015e-05
4.05211e-05
4.03108e-05
4.00706e-05
3.98001e-05
3.94989e-05
3.91652e-05
3.87955e-05
3.83679e-05
3.78268e-05
3.7123e-05
3.62351e-05
3.51539e-05
3.39325e-05
3.27196e-05
3.16406e-05
3.21084e-05
3.36615e-05
3.57004e-05
3.78673e-05
3.93398e-05
3.97158e-05
3.99249e-05
3.97616e-05
3.74024e-05
3.40038e-05
2.99467e-05
2.56724e-05
2.14606e-05
1.67485e-05
1.07656e-05
3.53441e-06
3.9833e-08
3.0323e-07
1.38289e-05
3.03282e-05
3.96044e-05
4.39061e-05
4.54042e-05
4.56487e-05
4.55888e-05
4.55899e-05
4.56077e-05
4.51638e-05
4.44102e-05
4.36978e-05
4.28492e-05
4.20715e-05
4.11396e-05
4.06307e-05
4.03363e-05
4.01935e-05
4.01569e-05
4.00883e-05
4.00094e-05
3.98927e-05
3.97739e-05
3.96812e-05
3.96367e-05
3.96643e-05
3.97602e-05
3.99242e-05
4.0139e-05
4.03919e-05
4.06648e-05
4.09444e-05
4.12426e-05
4.1523e-05
4.17179e-05
4.18997e-05
4.21134e-05
4.22776e-05
4.23916e-05
4.24833e-05
4.25347e-05
4.25567e-05
4.25423e-05
4.2495e-05
4.24129e-05
4.2297e-05
4.21468e-05
4.19625e-05
4.17433e-05
4.14887e-05
4.11971e-05
4.08665e-05
4.04939e-05
4.00764e-05
3.96115e-05
3.90974e-05
3.85282e-05
3.7837e-05
3.69253e-05
3.5741e-05
3.43422e-05
3.28411e-05
3.14728e-05
3.07928e-05
3.22044e-05
3.4179e-05
3.6597e-05
3.82438e-05
3.86704e-05
3.8783e-05
3.83206e-05
3.55173e-05
3.16051e-05
2.70172e-05
2.21783e-05
1.71091e-05
1.09798e-05
3.66681e-06
4.10907e-08
3.78202e-07
1.57411e-05
3.35357e-05
4.30624e-05
4.71786e-05
4.83624e-05
4.82865e-05
4.79047e-05
4.75374e-05
4.6913e-05
4.601e-05
4.52566e-05
4.43723e-05
4.34608e-05
4.23043e-05
4.15052e-05
4.10308e-05
4.07106e-05
4.04976e-05
4.03271e-05
4.01422e-05
3.99786e-05
3.98391e-05
3.97658e-05
3.97751e-05
3.98759e-05
4.00656e-05
4.03261e-05
4.06413e-05
4.0989e-05
4.13531e-05
4.17177e-05
4.20899e-05
4.24412e-05
4.27417e-05
4.29915e-05
4.3233e-05
4.34739e-05
4.36773e-05
4.38267e-05
4.39487e-05
4.40318e-05
4.40801e-05
4.40901e-05
4.40628e-05
4.39967e-05
4.38921e-05
4.37484e-05
4.35657e-05
4.33436e-05
4.30818e-05
4.27791e-05
4.24333e-05
4.20408e-05
4.15963e-05
4.10934e-05
4.05259e-05
3.98905e-05
3.91896e-05
3.84241e-05
3.74861e-05
3.62531e-05
3.47324e-05
3.30204e-05
3.13301e-05
3.00303e-05
3.09235e-05
3.29115e-05
3.54809e-05
3.7213e-05
3.76193e-05
3.75827e-05
3.65892e-05
3.32686e-05
2.88498e-05
2.36559e-05
1.81008e-05
1.17372e-05
4.10716e-06
4.67218e-08
4.58421e-07
1.75966e-05
3.65342e-05
4.62617e-05
5.01743e-05
5.10216e-05
5.05779e-05
4.98012e-05
4.88783e-05
4.77561e-05
4.69522e-05
4.58721e-05
4.48291e-05
4.34939e-05
4.24212e-05
4.1695e-05
4.12064e-05
4.08327e-05
4.05415e-05
4.02898e-05
4.00759e-05
3.9938e-05
3.98882e-05
3.99523e-05
4.0125e-05
4.03959e-05
4.07435e-05
4.11435e-05
4.15752e-05
4.20191e-05
4.24621e-05
4.28933e-05
4.33064e-05
4.36907e-05
4.40515e-05
4.43674e-05
4.46571e-05
4.49012e-05
4.515e-05
4.53598e-05
4.55149e-05
4.56362e-05
4.5717e-05
4.57561e-05
4.57525e-05
4.57044e-05
4.56114e-05
4.54726e-05
4.52883e-05
4.50588e-05
4.47847e-05
4.44666e-05
4.41044e-05
4.36965e-05
4.32386e-05
4.27234e-05
4.214e-05
4.14756e-05
4.07192e-05
3.98692e-05
3.89416e-05
3.7912e-05
3.6621e-05
3.49748e-05
3.3099e-05
3.11845e-05
2.96522e-05
2.98642e-05
3.18326e-05
3.44828e-05
3.61701e-05
3.64366e-05
3.62631e-05
3.43829e-05
3.06083e-05
2.55328e-05
1.96722e-05
1.29757e-05
4.95041e-06
6.0595e-08
5.41268e-07
1.93526e-05
3.92835e-05
4.91772e-05
5.28753e-05
5.33703e-05
5.25221e-05
5.12454e-05
4.98292e-05
4.89034e-05
4.74561e-05
4.62737e-05
4.47547e-05
4.34297e-05
4.24262e-05
4.1723e-05
4.1199e-05
4.07809e-05
4.0454e-05
4.02046e-05
4.00556e-05
4.00327e-05
4.01386e-05
4.03728e-05
4.07116e-05
4.11314e-05
4.16046e-05
4.2108e-05
4.26235e-05
4.31365e-05
4.36379e-05
4.41204e-05
4.45796e-05
4.50115e-05
4.54159e-05
4.58039e-05
4.61653e-05
4.64394e-05
4.66978e-05
4.69788e-05
4.71906e-05
4.73503e-05
4.74715e-05
4.75434e-05
4.75674e-05
4.75396e-05
4.74588e-05
4.73238e-05
4.71341e-05
4.68903e-05
4.65938e-05
4.6247e-05
4.58525e-05
4.54125e-05
4.49276e-05
4.43949e-05
4.38061e-05
4.31464e-05
4.23941e-05
4.1525e-05
4.05224e-05
3.93952e-05
3.81444e-05
3.67312e-05
3.50234e-05
3.30145e-05
3.09649e-05
2.91849e-05
2.8972e-05
3.08793e-05
3.35909e-05
3.50606e-05
3.50713e-05
3.46984e-05
3.18415e-05
2.72606e-05
2.14522e-05
1.45201e-05
5.94831e-06
8.32504e-08
6.24382e-07
2.09707e-05
4.17586e-05
5.17987e-05
5.52725e-05
5.54177e-05
5.40683e-05
5.24169e-05
5.11471e-05
4.93147e-05
4.78805e-05
4.61626e-05
4.45799e-05
4.32898e-05
4.23295e-05
4.16238e-05
4.10768e-05
4.06556e-05
4.03602e-05
4.01944e-05
4.01789e-05
4.0317e-05
4.05938e-05
4.09876e-05
4.14659e-05
4.20015e-05
4.2569e-05
4.31499e-05
4.37306e-05
4.43016e-05
4.4857e-05
4.53927e-05
4.5906e-05
4.63949e-05
4.68583e-05
4.72944e-05
4.77183e-05
4.8098e-05
4.8363e-05
4.86677e-05
4.89765e-05
4.91705e-05
4.93386e-05
4.94477e-05
4.95039e-05
4.95009e-05
4.94369e-05
4.93091e-05
4.91162e-05
4.88577e-05
4.85348e-05
4.81502e-05
4.77083e-05
4.72147e-05
4.66753e-05
4.60946e-05
4.54732e-05
4.48043e-05
4.40708e-05
4.32435e-05
4.22826e-05
4.11492e-05
3.98424e-05
3.83626e-05
3.66155e-05
3.48209e-05
3.27629e-05
3.06157e-05
2.86311e-05
2.82032e-05
3.00366e-05
3.26608e-05
3.39811e-05
3.34115e-05
3.23169e-05
2.8483e-05
2.30394e-05
1.61189e-05
6.98515e-06
1.12626e-07
7.05912e-07
2.24053e-05
4.39586e-05
5.41637e-05
5.73347e-05
5.69517e-05
5.53561e-05
5.36376e-05
5.15329e-05
4.97383e-05
4.77978e-05
4.59395e-05
4.43422e-05
4.30902e-05
4.21549e-05
4.14505e-05
4.09179e-05
4.05497e-05
4.03504e-05
4.0324e-05
4.04727e-05
4.07773e-05
4.12087e-05
4.17346e-05
4.23224e-05
4.29473e-05
4.35894e-05
4.42352e-05
4.48756e-05
4.55046e-05
4.61184e-05
4.6714e-05
4.7289e-05
4.7841e-05
4.83676e-05
4.88656e-05
4.93455e-05
4.98014e-05
5.01259e-05
5.04457e-05
5.08301e-05
5.1077e-05
5.12888e-05
5.14399e-05
5.15325e-05
5.15607e-05
5.15208e-05
5.14091e-05
5.12222e-05
5.09579e-05
5.06157e-05
5.0197e-05
4.97056e-05
4.91483e-05
4.85342e-05
4.78738e-05
4.7177e-05
4.64496e-05
4.56884e-05
4.48762e-05
4.39764e-05
4.29328e-05
4.16779e-05
4.02472e-05
3.85571e-05
3.63709e-05
3.43975e-05
3.23564e-05
3.00831e-05
2.79145e-05
2.75839e-05
2.93147e-05
3.14821e-05
3.23264e-05
3.15924e-05
2.90772e-05
2.42245e-05
1.75602e-05
7.9271e-06
1.46879e-07
7.84328e-07
2.36888e-05
4.58792e-05
5.61016e-05
5.88954e-05
5.83706e-05
5.67781e-05
5.44752e-05
5.19473e-05
4.97449e-05
4.7587e-05
4.56512e-05
4.40661e-05
4.28494e-05
4.19381e-05
4.12618e-05
4.07915e-05
4.05279e-05
4.04685e-05
4.06046e-05
4.09169e-05
4.13708e-05
4.19303e-05
4.25618e-05
4.3237e-05
4.39361e-05
4.46443e-05
4.53526e-05
4.60547e-05
4.67465e-05
4.74245e-05
4.80856e-05
4.87264e-05
4.93437e-05
4.99337e-05
5.04931e-05
5.10235e-05
5.15436e-05
5.19453e-05
5.2285e-05
5.27067e-05
5.3023e-05
5.32723e-05
5.34673e-05
5.3599e-05
5.3664e-05
5.36568e-05
5.35723e-05
5.34053e-05
5.31513e-05
5.2807e-05
5.23709e-05
5.18444e-05
5.12323e-05
5.05437e-05
4.97916e-05
4.89922e-05
4.81621e-05
4.73142e-05
4.64511e-05
4.55572e-05
4.459e-05
4.34752e-05
4.21104e-05
4.05698e-05
3.85311e-05
3.60385e-05
3.38427e-05
3.1772e-05
2.93083e-05
2.69561e-05
2.70399e-05
2.88905e-05
3.02876e-05
3.03163e-05
2.91561e-05
2.49743e-05
1.86928e-05
8.69518e-06
1.84366e-07
8.56567e-07
2.47821e-05
4.74239e-05
5.75997e-05
6.01559e-05
5.98073e-05
5.76274e-05
5.47874e-05
5.21896e-05
4.96088e-05
4.72985e-05
4.5329e-05
4.37703e-05
4.25909e-05
4.17198e-05
4.11088e-05
4.07442e-05
4.06198e-05
4.07185e-05
4.10148e-05
4.14733e-05
4.20528e-05
4.2717e-05
4.34356e-05
4.4186e-05
4.49532e-05
4.57268e-05
4.65003e-05
4.72685e-05
4.80274e-05
4.87729e-05
4.95005e-05
5.0206e-05
5.08849e-05
5.15331e-05
5.21469e-05
5.27232e-05
5.32966e-05
5.37678e-05
5.4119e-05
5.45666e-05
5.49474e-05
5.52296e-05
5.5466e-05
5.56373e-05
5.57424e-05
5.57747e-05
5.57281e-05
5.55956e-05
5.53704e-05
5.50462e-05
5.46177e-05
5.40823e-05
5.34407e-05
5.26985e-05
5.18671e-05
5.09637e-05
5.0011e-05
4.90337e-05
4.80532e-05
4.70794e-05
4.61e-05
4.5068e-05
4.3892e-05
4.24328e-05
4.0696e-05
3.82111e-05
3.55252e-05
3.31636e-05
3.09868e-05
2.81703e-05
2.58254e-05
2.63648e-05
2.83004e-05
2.93169e-05
2.81757e-05
2.52376e-05
1.94723e-05
9.28229e-06
2.23946e-07
9.20066e-07
2.56585e-05
4.85896e-05
5.87314e-05
6.14002e-05
6.08502e-05
5.83505e-05
5.51974e-05
5.21642e-05
4.93769e-05
4.69681e-05
4.49946e-05
4.34724e-05
4.23407e-05
4.15358e-05
4.1026e-05
4.07966e-05
4.08259e-05
4.10806e-05
4.15215e-05
4.21049e-05
4.27895e-05
4.35421e-05
4.43376e-05
4.51586e-05
4.59938e-05
4.68354e-05
4.76774e-05
4.85146e-05
4.93417e-05
5.01531e-05
5.09433e-05
5.17068e-05
5.24387e-05
5.31346e-05
5.3791e-05
5.44048e-05
5.50137e-05
5.55471e-05
5.59008e-05
5.63582e-05
5.67948e-05
5.71041e-05
5.7376e-05
5.75844e-05
5.77298e-05
5.78053e-05
5.78042e-05
5.77182e-05
5.75387e-05
5.72562e-05
5.68621e-05
5.63489e-05
5.5712e-05
5.49513e-05
5.40728e-05
5.30904e-05
5.20264e-05
5.09108e-05
4.97775e-05
4.86576e-05
4.75687e-05
4.65009e-05
4.54012e-05
4.4158e-05
4.25915e-05
4.05063e-05
3.76787e-05
3.48248e-05
3.23745e-05
2.99764e-05
2.68946e-05
2.49729e-05
2.5745e-05
2.69378e-05
2.70543e-05
2.51811e-05
1.99003e-05
9.66269e-06
2.65271e-07
9.73424e-07
2.63243e-05
4.94262e-05
5.96204e-05
6.23285e-05
6.15932e-05
5.86592e-05
5.53281e-05
5.20325e-05
4.90865e-05
4.66202e-05
4.46637e-05
4.31889e-05
4.21221e-05
4.14109e-05
4.10285e-05
4.09477e-05
4.11293e-05
4.15271e-05
4.20936e-05
4.27836e-05
4.35587e-05
4.43906e-05
4.52589e-05
4.61503e-05
4.70555e-05
4.79674e-05
4.88794e-05
4.97848e-05
5.06767e-05
5.15481e-05
5.23924e-05
5.32035e-05
5.39765e-05
5.47075e-05
5.53934e-05
5.60323e-05
5.66544e-05
5.72298e-05
5.75999e-05
5.80393e-05
5.85224e-05
5.88519e-05
5.91511e-05
5.93916e-05
5.95743e-05
5.9693e-05
5.97407e-05
5.97087e-05
5.95869e-05
5.93638e-05
5.90274e-05
5.85657e-05
5.79686e-05
5.72292e-05
5.63461e-05
5.53261e-05
5.41861e-05
5.29544e-05
5.16698e-05
5.03772e-05
4.91183e-05
4.79184e-05
4.67681e-05
4.5604e-05
4.42859e-05
4.25454e-05
3.9904e-05
3.69015e-05
3.39558e-05
3.1416e-05
2.86085e-05
2.52143e-05
2.42925e-05
2.53665e-05
2.6082e-05
2.45703e-05
1.99754e-05
9.83642e-06
3.08157e-07
1.01588e-06
2.67816e-05
4.99891e-05
6.0227e-05
6.30298e-05
6.21484e-05
5.90579e-05
5.53525e-05
5.18291e-05
4.8765e-05
4.62723e-05
4.43491e-05
4.29345e-05
4.19524e-05
4.13573e-05
4.1116e-05
4.11839e-05
4.15072e-05
4.20317e-05
4.27073e-05
4.34904e-05
4.43474e-05
4.52543e-05
4.61949e-05
4.71579e-05
4.81346e-05
4.91171e-05
5.0097e-05
5.1066e-05
5.20155e-05
5.29374e-05
5.38244e-05
5.46706e-05
5.54714e-05
5.62237e-05
5.6926e-05
5.75774e-05
5.81913e-05
5.87857e-05
5.919e-05
5.95866e-05
6.0103e-05
6.04474e-05
6.07642e-05
6.10296e-05
6.1244e-05
6.14022e-05
6.14977e-05
6.1522e-05
6.14642e-05
6.13115e-05
6.10495e-05
6.06627e-05
6.01357e-05
5.9455e-05
5.8611e-05
5.76014e-05
5.64337e-05
5.51291e-05
5.37234e-05
5.22662e-05
5.0815e-05
4.94231e-05
4.81225e-05
4.69032e-05
4.56931e-05
4.43393e-05
4.21374e-05
3.90099e-05
3.59349e-05
3.28899e-05
3.01972e-05
2.67315e-05
2.36194e-05
2.34191e-05
2.38085e-05
2.35354e-05
1.98631e-05
9.97501e-06
3.54846e-07
1.04731e-06
2.70483e-05
5.03082e-05
6.05772e-05
6.35524e-05
6.24062e-05
5.91958e-05
5.52808e-05
5.15794e-05
4.8432e-05
4.59368e-05
4.40606e-05
4.27202e-05
4.18405e-05
4.13756e-05
4.12779e-05
4.14865e-05
4.19377e-05
4.2574e-05
4.3346e-05
4.42136e-05
4.51477e-05
4.61284e-05
4.71417e-05
4.8177e-05
4.92246e-05
5.02748e-05
5.13175e-05
5.23424e-05
5.33397e-05
5.43007e-05
5.52181e-05
5.60865e-05
5.6902e-05
5.76628e-05
5.83681e-05
5.9019e-05
5.96174e-05
6.02125e-05
6.06568e-05
6.10048e-05
6.15201e-05
6.18832e-05
6.22073e-05
6.24891e-05
6.27273e-05
6.29185e-05
6.30569e-05
6.31346e-05
6.31411e-05
6.3063e-05
6.28845e-05
6.25876e-05
6.21529e-05
6.1561e-05
6.07945e-05
5.98414e-05
5.86981e-05
5.73743e-05
5.58967e-05
5.43112e-05
5.26805e-05
5.1076e-05
4.95608e-05
4.81659e-05
4.68627e-05
4.55357e-05
4.39548e-05
4.12607e-05
3.79802e-05
3.47953e-05
3.15e-05
2.84688e-05
2.4488e-05
2.26206e-05
2.27151e-05
2.2788e-05
1.97453e-05
1.0315e-05
4.14282e-07
1.06824e-06
2.7149e-05
5.03717e-05
6.06383e-05
6.37306e-05
6.26942e-05
5.92401e-05
5.51426e-05
5.13039e-05
4.81019e-05
4.56225e-05
4.38054e-05
4.25525e-05
4.17882e-05
4.14588e-05
4.15e-05
4.18376e-05
4.24032e-05
4.31392e-05
4.39986e-05
4.49454e-05
4.59546e-05
4.70087e-05
4.80946e-05
4.92008e-05
5.03162e-05
5.14288e-05
5.25266e-05
5.35981e-05
5.46327e-05
5.56216e-05
5.6558e-05
5.74373e-05
5.82569e-05
5.90157e-05
5.97144e-05
6.03545e-05
6.0938e-05
6.15143e-05
6.20019e-05
6.23095e-05
6.27839e-05
6.31664e-05
6.34887e-05
6.37778e-05
6.4031e-05
6.42463e-05
6.44194e-05
6.45437e-05
6.46094e-05
6.46036e-05
6.45101e-05
6.43095e-05
6.39798e-05
6.34969e-05
6.28372e-05
6.19791e-05
6.09079e-05
5.96199e-05
5.81283e-05
5.64681e-05
5.46985e-05
5.28995e-05
5.11598e-05
4.95552e-05
4.81194e-05
4.6815e-05
4.55083e-05
4.3284e-05
3.99953e-05
3.67907e-05
3.33883e-05
2.98041e-05
2.60983e-05
2.22681e-05
2.14206e-05
2.12702e-05
1.94688e-05
1.09441e-05
4.94736e-07
1.07875e-06
2.70793e-05
5.01745e-05
6.05727e-05
6.38733e-05
6.27406e-05
5.91904e-05
5.49581e-05
5.10179e-05
4.77847e-05
4.53356e-05
4.35882e-05
4.24334e-05
4.17918e-05
4.15966e-05
4.17675e-05
4.22221e-05
4.28906e-05
4.3717e-05
4.46577e-05
4.56805e-05
4.67634e-05
4.789e-05
4.90468e-05
5.02209e-05
5.13988e-05
5.25667e-05
5.37111e-05
5.48196e-05
5.58815e-05
5.68886e-05
5.7835e-05
5.87169e-05
5.9533e-05
6.02837e-05
6.09706e-05
6.15969e-05
6.21664e-05
6.27035e-05
6.32033e-05
6.35174e-05
6.39212e-05
6.43158e-05
6.46293e-05
6.49165e-05
6.51749e-05
6.54042e-05
6.56018e-05
6.57626e-05
6.58782e-05
6.59369e-05
6.59232e-05
6.58175e-05
6.55962e-05
6.52326e-05
6.46978e-05
6.39629e-05
6.30024e-05
6.17992e-05
6.03507e-05
5.86756e-05
5.68208e-05
5.48623e-05
5.28991e-05
5.10338e-05
4.93422e-05
4.78354e-05
4.64275e-05
4.49107e-05
4.20272e-05
3.85673e-05
3.51997e-05
3.15446e-05
2.7739e-05
2.31579e-05
2.0927e-05
1.97751e-05
1.89606e-05
1.16393e-05
5.9631e-07
1.07815e-06
2.69078e-05
4.99198e-05
6.03581e-05
6.38835e-05
6.26829e-05
5.90691e-05
5.47438e-05
5.07334e-05
4.7488e-05
4.50802e-05
4.34108e-05
4.23613e-05
4.18442e-05
4.17773e-05
4.20675e-05
4.2628e-05
4.33899e-05
4.42999e-05
4.53175e-05
4.6414e-05
4.7569e-05
4.87661e-05
4.99906e-05
5.12277e-05
5.24616e-05
5.36772e-05
5.48597e-05
5.59968e-05
5.70781e-05
5.80961e-05
5.90461e-05
5.99256e-05
6.07342e-05
6.14734e-05
6.2146e-05
6.27557e-05
6.33075e-05
6.38072e-05
6.43095e-05
6.46352e-05
6.49613e-05
6.53585e-05
6.56572e-05
6.59338e-05
6.61878e-05
6.64203e-05
6.66307e-05
6.68157e-05
6.6969e-05
6.70806e-05
6.71364e-05
6.71174e-05
6.70003e-05
6.67567e-05
6.63546e-05
6.57594e-05
6.49369e-05
6.38575e-05
6.25027e-05
6.0873e-05
5.89971e-05
5.69389e-05
5.4798e-05
5.2698e-05
5.07592e-05
4.90573e-05
4.75824e-05
4.62126e-05
4.39337e-05
4.03954e-05
3.71206e-05
3.31376e-05
2.9033e-05
2.46691e-05
2.07969e-05
1.92623e-05
1.85447e-05
1.22606e-05
7.14741e-07
1.07249e-06
2.66389e-05
4.94976e-05
5.99502e-05
6.36736e-05
6.25201e-05
5.8891e-05
5.45123e-05
5.04591e-05
4.72167e-05
4.48586e-05
4.32732e-05
4.23324e-05
4.19373e-05
4.19905e-05
4.23895e-05
4.30464e-05
4.3894e-05
4.4882e-05
4.59731e-05
4.71409e-05
4.83655e-05
4.96299e-05
5.09177e-05
5.22118e-05
5.3495e-05
5.47508e-05
5.59643e-05
5.71232e-05
5.82182e-05
5.92429e-05
6.01934e-05
6.10685e-05
6.1869e-05
6.25968e-05
6.32553e-05
6.38485e-05
6.43809e-05
6.48569e-05
6.53402e-05
6.56817e-05
6.59359e-05
6.63252e-05
6.66039e-05
6.68621e-05
6.71021e-05
6.7327e-05
6.75379e-05
6.77339e-05
6.79108e-05
6.8061e-05
6.81722e-05
6.82273e-05
6.82037e-05
6.80733e-05
6.78023e-05
6.73526e-05
6.66834e-05
6.57548e-05
6.45335e-05
6.30012e-05
6.11649e-05
5.90679e-05
5.6797e-05
5.44793e-05
5.22602e-05
5.02623e-05
4.85303e-05
4.69821e-05
4.53795e-05
4.22813e-05
3.87169e-05
3.50686e-05
3.07734e-05
2.617e-05
2.09878e-05
1.87485e-05
1.75735e-05
1.29097e-05
8.38455e-07
1.05993e-06
2.63138e-05
4.88154e-05
5.94169e-05
6.3332e-05
6.22684e-05
5.86689e-05
5.42738e-05
5.02017e-05
4.69743e-05
4.46717e-05
4.31735e-05
4.23414e-05
4.20629e-05
4.22269e-05
4.27251e-05
4.347e-05
4.43969e-05
4.54583e-05
4.66196e-05
4.78557e-05
4.91466e-05
5.0474e-05
5.18197e-05
5.31647e-05
5.44907e-05
5.57805e-05
5.70194e-05
5.8196e-05
5.93017e-05
6.03313e-05
6.12823e-05
6.21543e-05
6.29487e-05
6.36681e-05
6.43161e-05
6.48968e-05
6.54144e-05
6.58735e-05
6.63205e-05
6.66663e-05
6.68804e-05
6.72461e-05
6.75003e-05
6.77331e-05
6.79505e-05
6.81571e-05
6.83564e-05
6.85497e-05
6.87354e-05
6.89084e-05
6.90589e-05
6.91722e-05
6.92275e-05
6.91977e-05
6.90491e-05
6.87416e-05
6.82303e-05
6.74674e-05
6.64074e-05
6.50144e-05
6.32732e-05
6.12027e-05
5.88692e-05
5.63924e-05
5.39345e-05
5.16653e-05
4.97056e-05
4.80659e-05
4.66029e-05
4.39591e-05
4.02426e-05
3.70148e-05
3.21954e-05
2.74532e-05
2.2249e-05
1.85772e-05
1.64158e-05
1.34179e-05
9.39449e-07
1.04033e-06
2.58947e-05
4.80625e-05
5.87932e-05
6.28707e-05
6.19409e-05
5.84131e-05
5.40356e-05
4.9966e-05
4.6763e-05
4.45191e-05
4.31088e-05
4.23825e-05
4.22133e-05
4.24789e-05
4.30675e-05
4.38931e-05
4.48937e-05
4.60241e-05
4.72519e-05
4.85526e-05
4.99056e-05
5.12911e-05
5.26891e-05
5.40792e-05
5.54424e-05
5.67614e-05
5.80223e-05
5.92143e-05
6.03302e-05
6.13658e-05
6.23196e-05
6.31921e-05
6.39849e-05
6.4701e-05
6.53437e-05
6.59169e-05
6.64249e-05
6.68721e-05
6.7279e-05
6.7617e-05
6.78163e-05
6.81464e-05
6.83734e-05
6.8575e-05
6.87618e-05
6.89405e-05
6.91166e-05
6.92939e-05
6.94736e-05
6.96534e-05
6.98264e-05
6.99805e-05
7.00975e-05
7.01521e-05
7.01119e-05
6.99366e-05
6.95789e-05
6.8986e-05
6.81027e-05
6.68783e-05
6.52764e-05
6.32893e-05
6.09555e-05
5.83733e-05
5.57021e-05
5.31362e-05
5.0849e-05
4.89203e-05
4.72837e-05
4.53468e-05
4.17119e-05
3.85442e-05
3.41182e-05
2.90174e-05
2.36485e-05
1.90519e-05
1.57304e-05
1.36219e-05
9.8644e-07
1.01478e-06
2.53695e-05
4.7196e-05
5.80733e-05
6.23124e-05
6.15502e-05
5.81321e-05
5.38036e-05
4.97552e-05
4.6584e-05
4.44e-05
4.30757e-05
4.24501e-05
4.23819e-05
4.27401e-05
4.34111e-05
4.43108e-05
4.53795e-05
4.65745e-05
4.78647e-05
4.92258e-05
5.06361e-05
5.20744e-05
5.35192e-05
5.49494e-05
5.63454e-05
5.76906e-05
5.89717e-05
6.01791e-05
6.13067e-05
6.23514e-05
6.33124e-05
6.41906e-05
6.49878e-05
6.57067e-05
6.635e-05
6.69211e-05
6.74234e-05
6.78609e-05
6.82393e-05
6.85688e-05
6.87662e-05
6.90423e-05
6.92444e-05
6.94104e-05
6.95598e-05
6.97017e-05
6.9844e-05
6.99931e-05
7.01528e-05
7.03238e-05
7.05025e-05
7.06798e-05
7.08404e-05
7.09616e-05
7.10128e-05
7.0955e-05
7.07402e-05
7.03128e-05
6.96112e-05
6.85728e-05
6.71429e-05
6.52884e-05
6.30172e-05
6.03994e-05
5.75794e-05
5.47655e-05
5.21803e-05
4.99771e-05
4.81514e-05
4.64932e-05
4.33271e-05
3.99068e-05
3.61321e-05
3.02824e-05
2.47673e-05
1.90206e-05
1.58611e-05
1.36116e-05
9.94793e-07
9.84721e-07
2.48091e-05
4.62418e-05
5.72641e-05
6.16734e-05
6.11072e-05
5.78328e-05
5.35821e-05
4.95716e-05
4.64375e-05
4.43126e-05
4.30705e-05
4.25387e-05
4.2563e-05
4.3005e-05
4.37509e-05
4.47183e-05
4.58499e-05
4.71048e-05
4.84528e-05
4.98694e-05
5.13319e-05
5.28178e-05
5.43045e-05
5.57704e-05
5.71963e-05
5.8566e-05
5.98673e-05
6.10917e-05
6.22342e-05
6.32925e-05
6.42663e-05
6.51566e-05
6.59651e-05
6.66937e-05
6.73445e-05
6.79196e-05
6.84213e-05
6.88525e-05
6.92168e-05
6.95372e-05
6.97383e-05
6.9952e-05
7.01277e-05
7.0255e-05
7.03613e-05
7.0459e-05
7.05582e-05
7.06679e-05
7.07949e-05
7.0943e-05
7.11117e-05
7.12953e-05
7.14816e-05
7.1651e-05
7.17755e-05
7.18178e-05
7.1731e-05
7.14585e-05
7.09348e-05
7.0089e-05
6.88515e-05
6.7166e-05
6.50097e-05
6.24173e-05
5.95052e-05
5.64762e-05
5.35857e-05