/*--------------------------------*- C++ -*----------------------------------*\
  =========                 |
  \\      /  F ield         | OpenFOAM: The Open Source CFD Toolbox
   \\    /   O peration     | Website:  https://openfoam.org
    \\  /    A nd           | Version:  13
     \\/     M anipulation  |
\*---------------------------------------------------------------------------*/
FoamFile
{
    format      ascii;
    class       volScalarField;
    location    "9";
    object      p;
}
// * * * * * * * * * * * * * * * * * * * * * * * * * * * * * * * * * * * * * //

dimensions      [0 2 -2 0 0 0 0];

internalField   nonuniform List<scalar> 
6400
(
3.94474e-09
2.02367e-05
2.92233e-05
1.34907e-05
-3.22024e-05
-0.000102535
-0.000187594
-0.000278045
-0.000367527
-0.000452897
-0.000534933
-0.000617966
-0.000706762
-0.000806567
-0.000922634
-0.0010591
-0.00121895
-0.00140381
-0.00161496
-0.00185307
-0.00211852
-0.0024128
-0.00273891
-0.0031015
-0.00350707
-0.00396038
-0.00445575
-0.00498398
-0.00552148
-0.0060338
-0.00651654
-0.00697778
-0.00741577
-0.0078278
-0.00820834
-0.00854846
-0.00883641
-0.00905868
-0.0092011
-0.00924959
-0.00919082
-0.00901344
-0.00870943
-0.00827497
-0.00770808
-0.00699997
-0.00614217
-0.00515499
-0.00405548
-0.00285073
-0.00156202
-0.000211154
0.00117211
0.00255449
0.00389448
0.0051465
0.00626639
0.0072125
0.00794572
0.00843564
0.0086651
0.00863358
0.00835647
0.00785274
0.00719022
0.00641744
0.00560078
0.00480324
0.00408093
0.0034632
0.00298412
0.00265248
0.00243774
0.00231492
0.00226304
0.00225885
0.00228328
0.00232123
0.00236211
0.00238975
-1.5281e-05
5.36137e-06
9.58788e-06
-1.12293e-05
-5.98441e-05
-0.000130131
-0.000211157
-0.00029423
-0.000374325
-0.000450144
-0.000523847
-0.000599604
-0.000682326
-0.000776821
-0.000887008
-0.00101649
-0.00116856
-0.00134574
-0.00154857
-0.00177724
-0.00203067
-0.00230957
-0.00261729
-0.00295635
-0.00332995
-0.00374564
-0.0042108
-0.00472356
-0.00526942
-0.00582352
-0.00635813
-0.00686441
-0.00734446
-0.00779521
-0.00821078
-0.0085822
-0.008898
-0.00914529
-0.00931072
-0.00938148
-0.00934539
-0.00919228
-0.0089145
-0.00850637
-0.00796322
-0.0072813
-0.00646738
-0.00552947
-0.00446995
-0.00330752
-0.0020603
-0.000752207
0.000588178
0.00192668
0.0032252
0.00444318
0.00553748
0.00646652
0.00719476
0.00769269
0.00794271
0.00794313
0.00770792
0.00726452
0.00666093
0.00595284
0.00520178
0.00446688
0.00380103
0.00324513
0.00281588
0.00252011
0.0023435
0.00226247
0.00225274
0.00228558
0.00233034
0.00236999
0.00240304
0.0024291
-3.16527e-05
-8.81802e-06
-1.04246e-05
-4.06199e-05
-9.7389e-05
-0.000170252
-0.000247243
-0.000320089
-0.000386174
-0.000447234
-0.000507101
-0.000570841
-0.000643547
-0.000729012
-0.000829759
-0.000947638
-0.00108422
-0.00124177
-0.00142253
-0.00162929
-0.0018657
-0.00213495
-0.00244149
-0.00279034
-0.00318577
-0.0036304
-0.00412461
-0.00466419
-0.00523794
-0.00582798
-0.00641427
-0.00698102
-0.00751905
-0.00802183
-0.00848227
-0.00889104
-0.0092377
-0.00951103
-0.00969912
-0.00979039
-0.00977454
-0.00964265
-0.00938768
-0.00900454
-0.00849014
-0.00784364
-0.00706275
-0.00616005
-0.00514203
-0.00402229
-0.0028181
-0.00155171
-0.000250281
0.00105427
0.00232604
0.00352634
0.00461312
0.00554532
0.00628797
0.00681269
0.00710086
0.00714859
0.00696907
0.00658972
0.00605421
0.00541569
0.00473101
0.00406117
0.00345421
0.00294637
0.00256166
0.00231195
0.00218436
0.00214905
0.00217639
0.00224082
0.00231185
0.00237086
0.00241899
0.0024567
-4.0328e-05
-1.86356e-05
-2.79603e-05
-6.95898e-05
-0.000136623
-0.000212622
-0.000285824
-0.000349632
-0.000402726
-0.000447485
-0.000490221
-0.000537765
-0.000595696
-0.00066777
-0.000755699
-0.000860291
-0.000982967
-0.00112659
-0.00129508
-0.0014941
-0.00173086
-0.00201333
-0.00234887
-0.00274014
-0.00318947
-0.0036981
-0.00426186
-0.00486999
-0.00550654
-0.00615465
-0.00679769
-0.00742037
-0.00801045
-0.00855878
-0.00905676
-0.00949502
-0.0098644
-0.010155
-0.0103565
-0.0104589
-0.0104536
-0.0103327
-0.0100897
-0.00972077
-0.00922413
-0.00859774
-0.00784364
-0.00696755
-0.00597709
-0.00488477
-0.00370675
-0.00246375
-0.00118064
0.000113397
0.00138427
0.0025933
0.0036998
0.00466346
0.0054473
0.00602201
0.0063671
0.00647468
0.00635557
0.00603713
0.0055599
0.00497397
0.00433701
0.00370757
0.00313613
0.00265968
0.00230169
0.00207214
0.00196283
0.00195698
0.00202335
0.00212251
0.00222579
0.0023155
0.00238795
0.00243834
-3.43912e-05
-2.04983e-05
-4.01889e-05
-9.35538e-05
-0.000170233
-0.000249078
-0.000318495
-0.000373431
-0.000413945
-0.000444518
-0.000472498
-0.000505587
-0.000549813
-0.000608875
-0.000684931
-0.000779833
-0.000896769
-0.00104155
-0.00122135
-0.00144443
-0.00172066
-0.0020558
-0.00245462
-0.00292148
-0.00345568
-0.00405114
-0.00469752
-0.00538011
-0.00608124
-0.00678452
-0.00747446
-0.00813843
-0.00876567
-0.00934568
-0.00986919
-0.0103273
-0.0107113
-0.0110122
-0.0112215
-0.0113309
-0.0113326
-0.0112204
-0.0109882
-0.0106321
-0.010152
-0.00954702
-0.00881789
-0.00796776
-0.00700339
-0.00593635
-0.00478204
-0.00355904
-0.0022889
-0.00099695
0.000284253
0.00151505
0.00265621
0.00366947
0.00451681
0.00516627
0.0055947
0.00578951
0.00575532
0.00551493
0.00510941
0.00458668
0.00400182
0.00341248
0.00287083
0.00241632
0.00207527
0.00185713
0.00175745
0.00175955
0.00183731
0.00195753
0.00208701
0.00220496
0.0023006
0.00236054
-4.91247e-06
-5.41231e-06
-3.77761e-05
-0.000105191
-0.000190087
-0.000269982
-0.000335279
-0.000382423
-0.000412774
-0.000432477
-0.000450055
-0.000473616
-0.000509358
-0.000561678
-0.000634441
-0.000732166
-0.000861492
-0.00103133
-0.00125268
-0.00153274
-0.00187924
-0.00229954
-0.00279518
-0.00336305
-0.00399427
-0.0046767
-0.00539809
-0.0061444
-0.00689997
-0.00764946
-0.00837859
-0.00907565
-0.00973029
-0.0103328
-0.0108746
-0.0113471
-0.0117412
-0.0120495
-0.0122651
-0.0123813
-0.012391
-0.0122904
-0.0120737
-0.0117366
-0.0112829
-0.0107087
-0.010014
-0.00920112
-0.00827498
-0.00724526
-0.00612559
-0.00493069
-0.00367793
-0.00238943
-0.00109872
0.000155139
0.00133765
0.0024139
0.00334278
0.00408963
0.00463007
0.00494511
0.00503397
0.00490955
0.00460814
0.00417823
0.00367229
0.00314454
0.00264747
0.00222359
0.0019015
0.00169371
0.00159794
0.00160009
0.00167633
0.00179828
0.00193536
0.00206443
0.00217029
0.0022336
5.86032e-05
4.01963e-05
-8.785e-06
-9.32312e-05
-0.000183413
-0.000263633
-0.000325665
-0.000367319
-0.000391947
-0.000406911
-0.00042127
-0.000443427
-0.00048024
-0.000537886
-0.00062329
-0.00074415
-0.000910904
-0.00113546
-0.00142622
-0.00179202
-0.0022395
-0.00276973
-0.00337399
-0.00404161
-0.00476249
-0.00552456
-0.00631403
-0.00711687
-0.00791919
-0.00870748
-0.00946905
-0.010193
-0.0108694
-0.0114895
-0.0120451
-0.0125277
-0.012928
-0.0132411
-0.013462
-0.0135853
-0.0136079
-0.0135243
-0.0133308
-0.0130249
-0.0126034
-0.0120649
-0.0114114
-0.0106463
-0.00977474
-0.00880221
-0.00773532
-0.00658535
-0.00536883
-0.00410886
-0.00283063
-0.00156196
-0.000333759
0.000815735
0.00183886
0.00270468
0.00338574
0.00385481
0.00410694
0.0041451
0.00399515
0.00369989
0.00330968
0.00287666
0.00245107
0.00207685
0.00178537
0.00159258
0.00149946
0.00149748
0.00156312
0.0016736
0.00180128
0.00192312
0.00202386
0.00208216
0.000166411
0.000127171
5.59818e-05
-4.24267e-05
-0.000138117
-0.000219791
-0.000280726
-0.000321332
-0.000346634
-0.000365073
-0.000386135
-0.000418672
-0.000470924
-0.000551924
-0.000671647
-0.000841652
-0.00107394
-0.00138028
-0.00176917
-0.00224699
-0.00281035
-0.00345094
-0.00415834
-0.00492083
-0.00572546
-0.00655926
-0.00740886
-0.00826126
-0.00910387
-0.0099246
-0.0107123
-0.0114569
-0.0121491
-0.0127798
-0.013341
-0.0138248
-0.0142278
-0.0145465
-0.0147758
-0.0149114
-0.0149494
-0.014884
-0.0147128
-0.0144342
-0.0140461
-0.0135475
-0.012941
-0.0122303
-0.0114201
-0.0105131
-0.0095129
-0.00842866
-0.00727492
-0.0060697
-0.00482988
-0.00357317
-0.00232948
-0.00113596
-2.31038e-05
0.000979418
0.00181918
0.0024715
0.00292452
0.00316987
0.00322134
0.00310932
0.00287867
0.00257908
0.00225796
0.00195944
0.00171711
0.00155062
0.0014654
0.00145527
0.00150475
0.00159535
0.00170083
0.00180262
0.0018836
0.00192728
0.000323937
0.000263696
0.000167468
5.50516e-05
-4.7299e-05
-0.000131888
-0.000195718
-0.000241298
-0.000275522
-0.000307828
-0.000348194
-0.000406375
-0.000492688
-0.000619244
-0.000799393
-0.00104532
-0.00136992
-0.00178458
-0.00229226
-0.00288872
-0.0035668
-0.00431505
-0.00512034
-0.00596924
-0.00684855
-0.00774532
-0.00864706
-0.00954163
-0.0104174
-0.0112634
-0.0120696
-0.0128266
-0.0135252
-0.0141573
-0.0147172
-0.0152029
-0.0156134
-0.0159414
-0.0161812
-0.0163278
-0.0163761
-0.0163251
-0.016174
-0.015922
-0.0155661
-0.0151089
-0.0145509
-0.0138942
-0.0131411
-0.0122958
-0.0113641
-0.0103533
-0.00927415
-0.00813962
-0.00696221
-0.00575231
-0.00453012
-0.00332118
-0.00214713
-0.00105144
-6.6212e-05
0.000788954
0.00146416
0.00194996
0.0022459
0.00236676
0.00234275
0.00221893
0.0020389
0.00184504
0.00167428
0.00154985
0.00148162
0.00146791
0.00149929
0.00156166
0.00163689
0.00170958
0.00175984
0.00178443
0.000538764
0.000455054
0.000331049
0.000203279
9.15968e-05
8.0012e-07
-7.09352e-05
-0.000129002
-0.000182159
-0.00024079
-0.000315566
-0.000417517
-0.000559535
-0.000756562
-0.0010225
-0.00136965
-0.00180994
-0.0023476
-0.00297862
-0.00369458
-0.004484
-0.00533249
-0.00622653
-0.00715241
-0.00809723
-0.00904836
-0.00999394
-0.0109225
-0.0118234
-0.0126866
-0.0135028
-0.0142638
-0.0149633
-0.0155968
-0.0161595
-0.0166475
-0.017055
-0.0173774
-0.0176119
-0.0177571
-0.0178109
-0.0177721
-0.01764
-0.0174141
-0.0170926
-0.016677
-0.0161687
-0.015569
-0.01488
-0.0141047
-0.0132473
-0.0123132
-0.011309
-0.0102418
-0.00912078
-0.00796108
-0.00678053
-0.00559437
-0.00441497
-0.00326484
-0.00216513
-0.00115623
-0.000270081
0.000472525
0.00103903
0.00143272
0.00166264
0.0017588
0.00176004
0.00170395
0.00162847
0.00156364
0.00152462
0.00151511
0.00153036
0.001563
0.00160328
0.00163925
0.00165564
0.0016612
0.000813071
0.000700091
0.00054687
0.000398438
0.000275252
0.00017378
8.77196e-05
8.22018e-06
-7.54143e-05
-0.000174518
-0.000300544
-0.000466382
-0.000687072
-0.000978023
-0.00135243
-0.00182076
-0.00238867
-0.00305441
-0.00380891
-0.00463944
-0.00553205
-0.00647195
-0.0074454
-0.00843884
-0.00943966
-0.0104356
-0.0114155
-0.0123685
-0.013285
-0.0141562
-0.0149744
-0.0157328
-0.0164266
-0.0170512
-0.0176029
-0.0180787
-0.0184746
-0.0187881
-0.0190172
-0.0191611
-0.0192188
-0.0191896
-0.0190731
-0.0188692
-0.0185775
-0.018199
-0.0177351
-0.0171874
-0.016558
-0.0158493
-0.0150647
-0.0142081
-0.0132839
-0.0122964
-0.011251
-0.0101558
-0.00902026
-0.00785595
-0.00668258
-0.00551781
-0.0043702
-0.003258
-0.0022019
-0.00124284
-0.00040498
0.000277259
0.000796217
0.00115637
0.0013814
0.00150202
0.00155116
0.00156416
0.0015667
0.00156961
0.00157492
0.00158025
0.00158463
0.00158114
0.00156528
0.00155421
0.00113467
0.000991681
0.000802857
0.000630861
0.00049287
0.000376258
0.000268567
0.000157624
3.09472e-05
-0.000123588
-0.000318638
-0.000568387
-0.000888502
-0.00129315
-0.00179277
-0.00239319
-0.00309402
-0.00388715
-0.00475941
-0.00569646
-0.00668312
-0.00770473
-0.00874741
-0.00979783
-0.0108436
-0.011873
-0.0128755
-0.0138415
-0.0147624
-0.015631
-0.0164411
-0.0171877
-0.0178668
-0.018475
-0.0190099
-0.0194693
-0.0198512
-0.0201538
-0.0203761
-0.0205173
-0.0205769
-0.0205548
-0.020451
-0.0202657
-0.0199993
-0.019653
-0.0192279
-0.0187259
-0.0181489
-0.0174993
-0.0167798
-0.0159934
-0.0151433
-0.0142328
-0.0132652
-0.0122449
-0.011176
-0.0100634
-0.00891531
-0.00774225
-0.0065616
-0.00539211
-0.00423764
-0.00311701
-0.00205769
-0.001103
-0.00028772
0.000366983
0.000857285
0.00119695
0.0014096
0.00152617
0.00158354
0.0016066
0.00160731
0.0015903
0.00156172
0.00152183
0.00147902
0.00145376
0.0014892
0.00131446
0.00108531
0.000886839
0.000730258
0.000592577
0.00045504
0.00030205
0.000119579
-0.000105424
-0.000386079
-0.00073746
-0.00117389
-0.00170635
-0.00234098
-0.0030779
-0.00391009
-0.00482472
-0.00580668
-0.00684063
-0.00791104
-0.00900329
-0.0101035
-0.0111986
-0.0122767
-0.0133269
-0.0143398
-0.0153071
-0.016222
-0.0170788
-0.0178729
-0.0186009
-0.01926
-0.0198481
-0.0203636
-0.0208052
-0.0211717
-0.0214623
-0.0216764
-0.0218136
-0.0218737
-0.021857
-0.0217637
-0.0215944
-0.0213497
-0.021031
-0.0206395
-0.0201771
-0.0196456
-0.0190473
-0.0183845
-0.0176598
-0.0168754
-0.0160337
-0.015137
-0.0141874
-0.0131869
-0.0121373
-0.0110405
-0.00989884
-0.00871726
-0.00750573
-0.00628272
-0.00506087
-0.00384946
-0.00267825
-0.00159373
-0.000641288
0.000142617
0.000741606
0.0011612
0.00142066
0.00155492
0.00160786
0.00160801
0.00157312
0.00151725
0.00144826
0.00138575
0.00135126
0.00185821
0.00164883
0.00137742
0.00114782
0.000968091
0.000802962
0.000627083
0.000421622
0.000171237
-0.000137346
-0.000518244
-0.000985443
-0.00155008
-0.0022188
-0.00299167
-0.00386262
-0.00481961
-0.00584697
-0.00692853
-0.00804825
-0.00919053
-0.0103408
-0.0114854
-0.0126119
-0.0137092
-0.0147679
-0.0157799
-0.0167387
-0.0176393
-0.0184777
-0.0192508
-0.0199564
-0.020593
-0.0211594
-0.0216548
-0.0220783
-0.0224295
-0.0227081
-0.0229139
-0.0230468
-0.0231069
-0.0230946
-0.0230103
-0.0228546
-0.0226287
-0.0223336
-0.021971
-0.0215424
-0.0210499
-0.0204954
-0.0198812
-0.0192093
-0.0184817
-0.0177002
-0.016866
-0.0159801
-0.0150428
-0.014054
-0.013013
-0.0119186
-0.01077
-0.00956672
-0.00831233
-0.00701754
-0.00570621
-0.00438755
-0.00309117
-0.0018741
-0.000794719
9.29054e-05
0.000760097
0.00120848
0.00145879
0.00155996
0.00156763
0.00151799
0.00143956
0.0013486
0.00127344
0.0012336
0.00221651
0.00197119
0.00165365
0.00139137
0.00118437
0.000985456
0.000763038
0.000495863
0.00016755
-0.000236178
-0.000728988
-0.00132169
-0.00202127
-0.0028278
-0.00373563
-0.00473345
-0.00580556
-0.00693468
-0.00810385
-0.00929666
-0.0104975
-0.0116921
-0.0128675
-0.0140122
-0.0151166
-0.0161729
-0.017175
-0.0181181
-0.0189989
-0.0198149
-0.0205643
-0.0212462
-0.0218598
-0.0224046
-0.0228804
-0.0232869
-0.023624
-0.0238916
-0.0240899
-0.024219
-0.0242791
-0.0242706
-0.0241942
-0.0240506
-0.0238409
-0.0235662
-0.0232282
-0.0228285
-0.0223689
-0.0218514
-0.0212781
-0.0206508
-0.0199713
-0.0192409
-0.0184605
-0.0176303
-0.0167496
-0.015817
-0.0148299
-0.0137851
-0.0126788
-0.0115067
-0.0102656
-0.00895515
-0.00758243
-0.00616453
-0.00472588
-0.00330167
-0.0019614
-0.000780757
0.000168064
0.000848798
0.00126517
0.00145203
0.00148136
0.00142311
0.00132458
0.00121519
0.00113226
0.0010885
0.00253644
0.00225576
0.00189195
0.00159484
0.00135628
0.0011172
0.000841172
0.00050483
9.02411e-05
-0.000417798
-0.00102976
-0.00175252
-0.00258674
-0.00352679
-0.00456179
-0.00567603
-0.00685133
-0.00806938
-0.0093127
-0.0105647
-0.0118101
-0.0130352
-0.0142282
-0.0153793
-0.0164806
-0.0175263
-0.018512
-0.0194347
-0.0202927
-0.0210846
-0.0218099
-0.0224683
-0.0230599
-0.0235845
-0.0240424
-0.0244336
-0.0247582
-0.0250164
-0.0252083
-0.0253344
-0.0253949
-0.0253901
-0.0253209
-0.0251881
-0.0249926
-0.0247357
-0.0244188
-0.0240435
-0.0236117
-0.0231253
-0.0225861
-0.021996
-0.0213564
-0.0206688
-0.0199336
-0.0191507
-0.0183191
-0.0174365
-0.0164996
-0.0155037
-0.0144428
-0.0133103
-0.0120994
-0.0108049
-0.0094246
-0.00796204
-0.0064331
-0.00487151
-0.00332824
-0.00188699
-0.000646199
0.000308779
0.0009395
0.00126315
0.00134658
0.00129086
0.0011742
0.00104735
0.000957101
0.000906769
0.00279829
0.00247845
0.00206908
0.0017355
0.00146108
0.00117653
0.000841916
0.000431012
-7.69869e-05
-0.000694361
-0.00142757
-0.00227859
-0.00324201
-0.00430714
-0.00545812
-0.00667594
-0.00794078
-0.0092336
-0.0105366
-0.0118334
-0.0131094
-0.0143521
-0.0155513
-0.0166991
-0.0177895
-0.0188187
-0.019784
-0.020684
-0.0215181
-0.022286
-0.0229881
-0.0236246
-0.0241959
-0.0247024
-0.0251445
-0.0255225
-0.0258366
-0.026087
-0.0262741
-0.0263981
-0.0264594
-0.0264586
-0.0263961
-0.026273
-0.0260901
-0.0258486
-0.0255499
-0.0251956
-0.0247873
-0.0243269
-0.0238161
-0.0232567
-0.0226501
-0.0219976
-0.0212997
-0.0205562
-0.0197659
-0.0189265
-0.0180342
-0.0170837
-0.0160682
-0.0149794
-0.0138082
-0.0125455
-0.0111838
-0.00971988
-0.00815791
-0.00651712
-0.00483973
-0.00319677
-0.00169267
-0.000446932
0.000446877
0.000964434
0.00115189
0.00112038
0.000992825
0.000847727
0.000743933
0.000681196
0.00296573
0.00261459
0.0021631
0.00179265
0.00147913
0.00114608
0.000749285
0.000258641
-0.000345074
-0.00107133
-0.00192342
-0.00289642
-0.00398011
-0.0051586
-0.00641202
-0.00771896
-0.00905852
-0.0104112
-0.0117592
-0.0130868
-0.0143806
-0.0156296
-0.0168256
-0.0179627
-0.0190369
-0.020046
-0.020989
-0.0218656
-0.0226762
-0.0234214
-0.024102
-0.0247186
-0.025272
-0.0257628
-0.0261915
-0.0265584
-0.0268638
-0.0271082
-0.0272916
-0.0274145
-0.0274773
-0.0274804
-0.0274244
-0.0273102
-0.0271386
-0.0269107
-0.0266279
-0.0262915
-0.0259032
-0.0254647
-0.0249776
-0.0244436
-0.0238642
-0.0232404
-0.0225729
-0.0218617
-0.0211056
-0.0203024
-0.0194484
-0.0185384
-0.0175653
-0.0165202
-0.0153929
-0.0141718
-0.0128458
-0.0114059
-0.00984869
-0.00818126
-0.00643054
-0.00465415
-0.0029451
-0.00142844
-0.000243777
0.000519826
0.000872147
0.000907429
0.000780513
0.000616509
0.000488106
0.000407948
0.00302633
0.00264685
0.0021568
0.0017498
0.00139581
0.00101246
0.000550721
-2.06778e-05
-0.000718678
-0.00155054
-0.00251424
-0.0035999
-0.0047919
-0.00606979
-0.00741059
-0.00879127
-0.0101902
-0.0115879
-0.0129668
-0.0143123
-0.0156126
-0.0168587
-0.0180443
-0.0191655
-0.0202201
-0.0212075
-0.0221277
-0.0229816
-0.0237701
-0.0244944
-0.0251557
-0.0257549
-0.0262928
-0.0267702
-0.0271876
-0.0275454
-0.0278441
-0.0280837
-0.0282648
-0.0283874
-0.0284521
-0.0284593
-0.0284095
-0.0283035
-0.0281421
-0.0279264
-0.0276574
-0.0273367
-0.0269656
-0.0265456
-0.0260785
-0.0255656
-0.0250085
-0.0244083
-0.0237657
-0.0230806
-0.0223524
-0.0215791
-0.0207574
-0.0198825
-0.0189474
-0.0179434
-0.0168599
-0.0156843
-0.0144035
-0.0130045
-0.011478
-0.00982121
-0.00804669
-0.00619544
-0.00434838
-0.00261548
-0.00114666
-9.35782e-05
0.000478685
0.000632165
0.000532254
0.000350155
0.000185015
8.61054e-05
0.00296489
0.00256175
0.00203803
0.00159618
0.00120161
0.000766389
0.000239013
-0.00041014
-0.00119787
-0.00212842
-0.00319419
-0.00438045
-0.00566665
-0.00702858
-0.00844099
-0.00987979
-0.011323
-0.0127513
-0.0141482
-0.0155005
-0.0167981
-0.0180341
-0.0192042
-0.0203062
-0.0213396
-0.0223048
-0.0232029
-0.0240353
-0.0248036
-0.0255093
-0.0261536
-0.0267376
-0.0272624
-0.0277286
-0.0281367
-0.0284872
-0.0287805
-0.0290168
-0.0291964
-0.0293194
-0.0293865
-0.0293978
-0.029354
-0.0292556
-0.0291036
-0.0288987
-0.0286421
-0.0283351
-0.0279788
-0.0275749
-0.0271247
-0.0266296
-0.0260911
-0.0255103
-0.0248879
-0.0242242
-0.0235187
-0.0227698
-0.0219749
-0.0211296
-0.0202278
-0.0192611
-0.0182192
-0.0170894
-0.0158574
-0.0145084
-0.0130287
-0.0114089
-0.00964875
-0.00777041
-0.00584144
-0.00395849
-0.00225235
-0.000905124
-6.13892e-05
0.000272992
0.000237423
3.9836e-05
-0.000169321
-0.000286257
0.00277249
0.00235138
0.00179995
0.00132598
0.000891001
0.000404536
-0.000185186
-0.000907712
-0.00177886
-0.00279839
-0.00395443
-0.0052274
-0.00659249
-0.00802256
-0.0094908
-0.0109724
-0.0124456
-0.0138916
-0.0152951
-0.0166448
-0.0179325
-0.0191532
-0.0203044
-0.0213856
-0.0223972
-0.0233407
-0.0242179
-0.0250307
-0.0257808
-0.0264699
-0.0270994
-0.0276706
-0.0281842
-0.028641
-0.0290416
-0.0293864
-0.0296756
-0.0299095
-0.0300884
-0.0302124
-0.030282
-0.0302975
-0.0302593
-0.0301682
-0.0300247
-0.0298297
-0.0295842
-0.0292892
-0.0289461
-0.0285561
-0.0281205
-0.0276406
-0.0271178
-0.0265532
-0.0259477
-0.0253015
-0.0246145
-0.0238856
-0.0231128
-0.0222923
-0.0214189
-0.0204851
-0.0194813
-0.0183953
-0.0172127
-0.0159173
-0.0144932
-0.0129269
-0.0112092
-0.00934299
-0.00737121
-0.00540156
-0.00352532
-0.00191227
-0.000768998
-0.000200484
-0.000127171
-0.000322801
-0.000575665
-0.000708978
0.00244678
0.00201382
0.00144127
0.000938534
0.000464808
-7.04328e-05
-0.000717916
-0.00150735
-0.002453
-0.00355053
-0.0047837
-0.00612859
-0.00755693
-0.00903943
-0.0105483
-0.0120584
-0.0135485
-0.0150007
-0.0164015
-0.0177411
-0.0190135
-0.0202154
-0.0213459
-0.0224054
-0.0233956
-0.0243186
-0.0251764
-0.0259713
-0.0267052
-0.0273798
-0.0279966
-0.0285567
-0.029061
-0.0295101
-0.0299046
-0.0302447
-0.0305308
-0.0307631
-0.0309419
-0.0310673
-0.0311396
-0.0311592
-0.0311265
-0.031042
-0.0309064
-0.0307204
-0.0304849
-0.0302009
-0.0298694
-0.0294916
-0.0290688
-0.0286022
-0.028093
-0.0275422
-0.0269508
-0.0263192
-0.0256476
-0.0249352
-0.0241806
-0.0233808
-0.0225315
-0.0216263
-0.0206566
-0.0196112
-0.018476
-0.0172347
-0.0158698
-0.0143649
-0.0127065
-0.010885
-0.00891184
-0.00688868
-0.00491103
-0.00309564
-0.00166711
-0.00082146
-0.000578825
-0.000746075
-0.00103183
-0.00118141
0.00199113
0.00155275
0.000965759
0.000438019
-7.15366e-05
-0.00065099
-0.00135047
-0.00219956
-0.0032095
-0.00437281
-0.00566924
-0.00707108
-0.00854737
-0.0100673
-0.0116026
-0.0131283
-0.0146238
-0.0160727
-0.0174632
-0.0187872
-0.0200405
-0.0212214
-0.0223301
-0.0233682
-0.0243378
-0.0252415
-0.0260815
-0.0268604
-0.0275799
-0.0282419
-0.0288477
-0.0293984
-0.0298948
-0.0303375
-0.0307269
-0.0310634
-0.0313472
-0.0315785
-0.0317576
-0.0318845
-0.0319596
-0.0319832
-0.0319556
-0.0318774
-0.0317491
-0.0315713
-0.0313449
-0.0310708
-0.0307498
-0.0303831
-0.0299717
-0.0295167
-0.0290194
-0.0284806
-0.0279015
-0.0272824
-0.0266238
-0.0259254
-0.025186
-0.0244036
-0.0235748
-0.0226942
-0.0217545
-0.0207457
-0.0196548
-0.018466
-0.017161
-0.0157214
-0.0141309
-0.0123742
-0.0104441
-0.00838609
-0.00635744
-0.00441186
-0.00274009
-0.0016043
-0.00114396
-0.00124683
-0.00153716
-0.00170848
0.00141398
0.000976595
0.000381385
-0.000166725
-0.000707986
-0.00132658
-0.00207155
-0.00297149
-0.00403506
-0.00525162
-0.00659741
-0.00804169
-0.00955151
-0.0110951
-0.0126441
-0.0141741
-0.0156654
-0.0171033
-0.0184775
-0.019782
-0.0210137
-0.0221725
-0.0232593
-0.0242765
-0.0252266
-0.0261123
-0.0269363
-0.0277007
-0.0284075
-0.0290584
-0.0296547
-0.0301973
-0.0306869
-0.0311242
-0.0315095
-0.031843
-0.0321251
-0.0323558
-0.0325354
-0.032664
-0.0327419
-0.0327693
-0.0327466
-0.0326742
-0.0325526
-0.0323825
-0.0321645
-0.0318993
-0.0315879
-0.0312312
-0.0308301
-0.0303857
-0.029899
-0.029371
-0.0288027
-0.0281946
-0.0275474
-0.0268609
-0.0261346
-0.0253671
-0.0245558
-0.0236965
-0.0227831
-0.021807
-0.0207566
-0.0196171
-0.0183706
-0.0169971
-0.0154785
-0.0137978
-0.0119352
-0.00988907
-0.00782002
-0.00580983
-0.00396167
-0.00255774
-0.00184498
-0.00182413
-0.00209574
-0.00230053
0.000727865
0.000297835
-0.000299303
-0.000862925
-0.00143093
-0.0020832
-0.002867
-0.00380878
-0.00491509
-0.0061725
-0.00755433
-0.00902751
-0.0105577
-0.0121127
-0.0136643
-0.015189
-0.0166684
-0.0180893
-0.0194431
-0.0207252
-0.021934
-0.0230701
-0.0241355
-0.0251326
-0.0260644
-0.0269336
-0.0277428
-0.0284943
-0.0291898
-0.029831
-0.0304188
-0.0309544
-0.0314382
-0.0318709
-0.0322526
-0.0325838
-0.0328645
-0.0330949
-0.0332752
-0.0334055
-0.0334861
-0.0335171
-0.033499
-0.0334321
-0.0333168
-0.0331537
-0.0329433
-0.0326865
-0.0323839
-0.0320363
-0.0316447
-0.0312099
-0.030733
-0.0302148
-0.0296563
-0.0290582
-0.0284211
-0.0277453
-0.0270306
-0.0262761
-0.0254801
-0.0246393
-0.023749
-0.0228019
-0.0217881
-0.0206941
-0.0195029
-0.0181945
-0.0167484
-0.0151464
-0.0133665
-0.0113897
-0.00928215
-0.00724575
-0.00529732
-0.00367525
-0.00270069
-0.00249328
-0.0027232
-0.00297398
-5.00131e-05
-0.000468558
-0.0010611
-0.00163538
-0.00222564
-0.00290611
-0.00372123
-0.00469588
-0.00583433
-0.00712081
-0.00852636
-0.0100162
-0.0115551
-0.0131109
-0.0146558
-0.0161675
-0.017629
-0.0190285
-0.0203589
-0.021617
-0.0228023
-0.023916
-0.0249605
-0.0259386
-0.0268532
-0.0277072
-0.0285031
-0.0292428
-0.0299282
-0.0305606
-0.031141
-0.0316704
-0.0321491
-0.0325778
-0.0329565
-0.0332856
-0.0335653
-0.0337955
-0.0339766
-0.0341086
-0.0341917
-0.0342261
-0.0342123
-0.0341504
-0.0340409
-0.0338843
-0.0336811
-0.0334319
-0.0331375
-0.0327984
-0.0324155
-0.0319897
-0.0315219
-0.0310128
-0.0304634
-0.0298745
-0.0292468
-0.0285808
-0.0278766
-0.0271338
-0.0263514
-0.0255271
-0.0246572
-0.023736
-0.0227551
-0.0217027
-0.0205632
-0.0193173
-0.0179432
-0.0164214
-0.0147317
-0.0128437
-0.0107458
-0.00868929
-0.00670476
-0.0049309
-0.00371529
-0.00328921
-0.00343743
-0.00375012
-0.000900568
-0.00130511
-0.00188805
-0.00246862
-0.0030762
-0.00377896
-0.00461809
-0.00561687
-0.0067775
-0.00808226
-0.00950048
-0.0109962
-0.0125339
-0.0140816
-0.0156125
-0.0171052
-0.0185442
-0.0199192
-0.0212246
-0.0224579
-0.0236196
-0.0247114
-0.0257358
-0.026696
-0.0275947
-0.0284346
-0.0292182
-0.0299473
-0.0306235
-0.031248
-0.0318218
-0.0323456
-0.0328198
-0.0332448
-0.0336209
-0.0339483
-0.034227
-0.0344572
-0.034639
-0.0347726
-0.0348581
-0.0348957
-0.0348858
-0.0348286
-0.0347245
-0.0345739
-0.0343773
-0.0341353
-0.0338484
-0.0335172
-0.0331426
-0.0327252
-0.0322658
-0.0317654
-0.0312246
-0.0306444
-0.0300256
-0.0293688
-0.0286744
-0.0279424
-0.0271725
-0.0263631
-0.0255116
-0.0246136
-0.0236622
-0.0226475
-0.0215557
-0.0203685
-0.0190643
-0.0176214
-0.0160193
-0.0142273
-0.0122173
-0.0101302
-0.00814694
-0.00629543
-0.00488421
-0.00423197
-0.0042561
-0.00465676
-0.0018054
-0.00219361
-0.00276298
-0.00334548
-0.00396542
-0.00468465
-0.00554105
-0.00655598
-0.00772977
-0.00904324
-0.0104645
-0.0119571
-0.0134854
-0.015018
-0.0165289
-0.0179983
-0.0194118
-0.0207605
-0.0220398
-0.0232483
-0.0243868
-0.0254573
-0.0264628
-0.027406
-0.0282898
-0.0291168
-0.029889
-0.0306084
-0.0312762
-0.0318935
-0.0324613
-0.03298
-0.0334501
-0.0338719
-0.0342456
-0.0345713
-0.0348492
-0.0350794
-0.0352619
-0.035397
-0.0354847
-0.0355252
-0.0355189
-0.035466
-0.0353669
-0.0352219
-0.0350314
-0.034796
-0.0345161
-0.0341925
-0.0338255
-0.0334161
-0.0329648
-0.0324725
-0.0319401
-0.0313683
-0.030758
-0.03011
-0.0294249
-0.0287032
-0.0279449
-0.0271492
-0.0263145
-0.0254375
-0.024513
-0.0235326
-0.0224845
-0.0213522
-0.0201149
-0.0187493
-0.0172338
-0.0155429
-0.0136441
-0.011559
-0.00959794
-0.00773666
-0.00619179
-0.00532237
-0.00520559
-0.00571157
-0.00274584
-0.00311575
-0.00366812
-0.00424826
-0.00487594
-0.00560641
-0.00647404
-0.00749802
-0.00867712
-0.00999113
-0.0114075
-0.0128895
-0.0144018
-0.0159138
-0.0174008
-0.0188437
-0.0202298
-0.0215513
-0.0228044
-0.0239883
-0.0251044
-0.0261547
-0.0271421
-0.0280695
-0.0289394
-0.0297543
-0.0305162
-0.0312265
-0.0318865
-0.0324973
-0.0330594
-0.0335735
-0.0340398
-0.0344587
-0.0348301
-0.0351544
-0.0354315
-0.0356616
-0.0358448
-0.0359811
-0.0360708
-0.0361141
-0.0361111
-0.0360621
-0.0359675
-0.0358277
-0.0356429
-0.0354136
-0.0351403
-0.0348236
-0.034464
-0.034062
-0.0336185
-0.0331341
-0.0326097
-0.032046
-0.031444
-0.0308046
-0.0301286
-0.0294168
-0.0286695
-0.0278867
-0.0270675
-0.0262098
-0.0253097
-0.0243606
-0.0233524
-0.0222707
-0.0210962
-0.019806
-0.0183784
-0.0167923
-0.0150063
-0.0129792
-0.0110212
-0.00920158
-0.00759263
-0.00654542
-0.00631055
-0.0069015
-0.0037038
-0.00405328
-0.00458571
-0.00516011
-0.00579145
-0.00652842
-0.00740193
-0.00842887
-0.00960666
-0.0109144
-0.0123194
-0.013785
-0.0152764
-0.0167641
-0.0182241
-0.0196389
-0.0209968
-0.0222908
-0.0235181
-0.0246783
-0.0257728
-0.0268039
-0.0277744
-0.0286869
-0.0295439
-0.0303476
-0.0310997
-0.0318017
-0.0324545
-0.0330592
-0.0336162
-0.0341259
-0.0345887
-0.0350048
-0.0353742
-0.035697
-0.0359734
-0.0362033
-0.036387
-0.0365246
-0.036616
-0.0366617
-0.0366617
-0.0366164
-0.0365259
-0.0363908
-0.0362112
-0.0359876
-0.0357205
-0.0354103
-0.0350575
-0.0346627
-0.0342266
-0.0337497
-0.033233
-0.0326773
-0.0320834
-0.0314525
-0.0307854
-0.0300831
-0.0293465
-0.0285759
-0.0277713
-0.0269315
-0.0260538
-0.0251332
-0.0241614
-0.0231262
-0.0220102
-0.0207914
-0.0194468
-0.0179557
-0.0162832
-0.0143885
-0.0124202
-0.010651
-0.00903413
-0.0078687
-0.00756322
-0.00819506
-0.00466157
-0.00498885
-0.00549903
-0.00606497
-0.00669653
-0.00743596
-0.00831078
-0.00933564
-0.0105068
-0.0118029
-0.0131915
-0.0146364
-0.0161036
-0.0175643
-0.0189959
-0.0203818
-0.0217113
-0.0229784
-0.0241806
-0.025318
-0.0263921
-0.0274051
-0.0283597
-0.0292583
-0.0301033
-0.0308966
-0.0316397
-0.0323339
-0.0329801
-0.033579
-0.0341312
-0.0346369
-0.0350964
-0.0355098
-0.0358772
-0.0361987
-0.0364743
-0.0367042
-0.0368883
-0.0370268
-0.0371199
-0.0371676
-0.0371704
-0.0371283
-0.0370416
-0.0369107
-0.036736
-0.0365176
-0.0362562
-0.035952
-0.0356057
-0.0352176
-0.0347885
-0.0343189
-0.0338097
-0.0332617
-0.0326758
-0.0320531
-0.0313948
-0.0307019
-0.0299756
-0.0292168
-0.028426
-0.0276029
-0.0267459
-0.0258514
-0.0249131
-0.0239206
-0.0228586
-0.0217069
-0.0204417
-0.0190415
-0.0174798
-0.0157226
-0.0137838
-0.0120616
-0.0104753
-0.00924959
-0.00890277
-0.00951702
-0.00560275
-0.00590659
-0.00639296
-0.00694816
-0.00757708
-0.00831562
-0.00918803
-0.0102068
-0.0113672
-0.0126476
-0.0140162
-0.0154375
-0.0168783
-0.0183108
-0.0197132
-0.0210703
-0.0223721
-0.0236132
-0.0247915
-0.0259073
-0.0269622
-0.0279583
-0.0288981
-0.0297838
-0.0306176
-0.0314012
-0.0321359
-0.0328229
-0.0334629
-0.0340565
-0.0346042
-0.0351061
-0.0355625
-0.0359734
-0.036339
-0.0366591
-0.036934
-0.0371636
-0.0373481
-0.0374874
-0.0375819
-0.0376316
-0.0376367
-0.0375975
-0.0375143
-0.0373872
-0.0372168
-0.0370033
-0.036747
-0.0364485
-0.0361081
-0.0357263
-0.0353038
-0.0348412
-0.0343392
-0.0337987
-0.0332206
-0.032606
-0.0319562
-0.0312725
-0.0305563
-0.0298089
-0.0290312
-0.0282238
-0.027386
-0.0265156
-0.0256077
-0.0246541
-0.0236417
-0.0225519
-0.0213621
-0.0200515
-0.0185993
-0.0169633
-0.0151083
-0.0134081
-0.0118707
-0.0106304
-0.0102339
-0.0107496
-0.00651165
-0.0067922
-0.00725378
-0.00779651
-0.00842048
-0.00915547
-0.0100226
-0.0110322
-0.0121793
-0.0134408
-0.0147868
-0.0161829
-0.0175963
-0.0190002
-0.0203739
-0.0217029
-0.022978
-0.0241944
-0.0253502
-0.0264459
-0.0274829
-0.0284633
-0.0293893
-0.0302631
-0.0310866
-0.0318612
-0.0325881
-0.0332684
-0.0339026