/*--------------------------------*- C++ -*----------------------------------*\
  =========                 |
  \\      /  F ield         | OpenFOAM: The Open Source CFD Toolbox
   \\    /   O peration     | Website:  https://openfoam.org
    \\  /    A nd           | Version:  13
     \\/     M anipulation  |
\*---------------------------------------------------------------------------*/
FoamFile
{
    format      ascii;
    class       surfaceScalarField;
    location    "9";
    object      phi;
}
// * * * * * * * * * * * * * * * * * * * * * * * * * * * * * * * * * * * * * //

dimensions      [0 3 -1 0 0 0 0];

internalField   nonuniform List<scalar> 
12640
(
1.71282e-09
-1.7129e-09
1.56547e-08
-1.39419e-08
4.01252e-08
-2.44706e-08
6.83023e-08
-2.81771e-08
9.36783e-08
-2.53759e-08
1.12617e-07
-1.89385e-08
1.23763e-07
-1.11458e-08
1.28064e-07
-4.30196e-09
1.27876e-07
1.88693e-10
1.25581e-07
2.29452e-09
1.23188e-07
2.39309e-09
1.21986e-07
1.20209e-09
1.22373e-07
-3.86669e-10
1.24063e-07
-1.69051e-09
1.26195e-07
-2.13225e-09
1.27824e-07
-1.62831e-09
1.28052e-07
-2.28703e-10
1.2636e-07
1.69215e-09
1.21863e-07
4.49754e-09
1.13665e-07
8.19734e-09
1.01223e-07
1.24421e-08
8.39319e-08
1.72914e-08
6.13552e-08
2.25767e-08
3.3305e-08
2.80502e-08
-2.58934e-10
3.35639e-08
-3.95343e-08
3.92753e-08
-8.60103e-08
4.6476e-08
-1.42191e-07
5.61808e-08
-2.11027e-07
6.88359e-08
-2.94641e-07
8.36136e-08
-3.91842e-07
9.72013e-08
-4.98914e-07
1.07072e-07
-6.1226e-07
1.13346e-07
-7.28388e-07
1.16128e-07
-8.4427e-07
1.15882e-07
-9.57283e-07
1.13013e-07
-1.06529e-06
1.0801e-07
-1.16657e-06
1.01282e-07
-1.25978e-06
9.32034e-08
-1.34386e-06
8.4079e-08
-1.41795e-06
7.40949e-08
-1.48138e-06
6.34299e-08
-1.53353e-06
5.21503e-08
-1.57382e-06
4.02888e-08
-1.60164e-06
2.78162e-08
-1.61695e-06
1.53136e-08
-1.61976e-06
2.81363e-09
-1.60816e-06
-1.1604e-08
-1.58308e-06
-2.5082e-08
-1.54333e-06
-3.97481e-08
-1.48914e-06
-5.41931e-08
-1.42032e-06
-6.88141e-08
-1.33727e-06
-8.30569e-08
-1.24044e-06
-9.68222e-08
-1.13052e-06
-1.09927e-07
-1.00844e-06
-1.22081e-07
-8.75669e-07
-1.32766e-07
-7.34087e-07
-1.41582e-07
-5.86108e-07
-1.47979e-07
-4.34646e-07
-1.51462e-07
-2.83257e-07
-1.51389e-07
-1.35803e-07
-1.47454e-07
3.7034e-09
-1.39506e-07
1.32094e-07
-1.28391e-07
2.44404e-07
-1.12309e-07
3.36939e-07
-9.25355e-08
4.06551e-07
-6.96118e-08
4.50844e-07
-4.42929e-08
4.68601e-07
-1.77571e-08
4.5867e-07
9.93034e-09
4.24209e-07
3.44618e-08
3.67834e-07
5.63749e-08
2.95841e-07
7.19923e-08
2.18173e-07
7.76688e-08
1.45317e-07
7.28553e-08
8.4598e-08
6.07192e-08
3.97261e-08
4.48719e-08
1.12285e-08
2.84976e-08
-8.79832e-10
1.21083e-08
-8.79833e-10
1.08036e-08
-1.25165e-08
4.42879e-08
-4.74261e-08
9.04991e-08
-7.06819e-08
1.37519e-07
-7.51973e-08
1.77676e-07
-6.55327e-08
2.07186e-07
-4.84486e-08
2.25487e-07
-2.94462e-08
2.33614e-07
-1.24289e-08
2.33396e-07
4.06149e-10
2.27213e-07
8.4774e-09
2.17354e-07
1.22527e-08
2.05383e-07
1.31725e-08
1.9178e-07
1.32164e-08
1.7596e-07
1.41302e-08
1.56862e-07
1.69656e-08
1.33342e-07
2.18912e-08
1.04467e-07
2.86468e-08
6.89429e-08
3.72158e-08
2.55226e-08
4.79178e-08
-2.73504e-08
6.10703e-08
-9.17531e-08
7.68448e-08
-1.69451e-07
9.49891e-08
-2.61628e-07
1.14754e-07
-3.69135e-07
1.35557e-07
-4.92523e-07
1.56952e-07
-6.31487e-07
1.78239e-07
-7.83366e-07
1.98355e-07
-9.43803e-07
2.16618e-07
-1.10724e-06
2.32275e-07
-1.26784e-06
2.44206e-07
-1.42219e-06
2.51554e-07
-1.56931e-06
2.54196e-07
-1.7078e-06
2.51834e-07
-1.83642e-06
2.4475e-07
-1.9542e-06
2.33658e-07
-2.06048e-06
2.19298e-07
-2.15481e-06
2.02337e-07
-2.2369e-06
1.83369e-07
-2.30652e-06
1.62831e-07
-2.36357e-06
1.41121e-07
-2.4079e-06
1.18433e-07
-2.43943e-06
9.49594e-08
-2.45807e-06
7.07847e-08
-2.46376e-06
4.59822e-08
-2.45651e-06
2.05692e-08
-2.43562e-06
-5.5792e-09
-2.40123e-06
-3.15766e-08
-2.35376e-06
-5.90757e-08
-2.29212e-06
-8.67266e-08
-2.21692e-06
-1.14947e-07
-2.12775e-06
-1.43355e-07
-2.02474e-06
-1.71826e-07
-1.90781e-06
-1.99986e-07
-1.77721e-06
-2.27423e-07
-1.63361e-06
-2.53533e-07
-1.47815e-06
-2.77536e-07
-1.31215e-06
-2.98765e-07
-1.13751e-06
-3.16223e-07
-9.56592e-07
-3.289e-07
-7.72124e-07
-3.3593e-07
-5.87172e-07
-3.36341e-07
-4.05185e-07
-3.29441e-07
-2.29724e-07
-3.14967e-07
-6.51463e-08
-2.92969e-07
8.57578e-08
-2.63214e-07
2.1947e-07
-2.26248e-07
3.32638e-07
-1.82779e-07
4.22694e-07
-1.3435e-07
4.8725e-07
-8.23127e-08
5.25998e-07
-2.88171e-08
5.37132e-07
2.3327e-08
5.21459e-07
7.2048e-08
4.80982e-07
1.1247e-07
4.16622e-07
1.42029e-07
3.32144e-07
1.57333e-07
2.38e-07
1.54863e-07
1.4666e-07
1.36212e-07
7.05697e-08
1.04588e-07
1.98151e-08
6.28629e-08
1.89352e-08
2.04237e-08
-3.29402e-08
6.75792e-08
-9.45817e-08
1.2031e-07
-1.23413e-07
1.66621e-07
-1.21507e-07
2.021e-07
-1.01012e-07
2.25832e-07
-7.21804e-08
2.38544e-07
-4.2158e-08
2.41234e-07
-1.51198e-08
2.35095e-07
6.54564e-09
2.21623e-07
2.19498e-08
2.02207e-07
3.16678e-08
1.77422e-07
3.79578e-08
1.47061e-07
4.35778e-08
1.10286e-07
5.09047e-08
6.59185e-08
6.13334e-08
1.25136e-08
7.5296e-08
-5.16826e-08
9.2843e-08
-1.28492e-07
1.14025e-07
-2.1946e-07
1.38886e-07
-3.25805e-07
1.67415e-07
-4.47971e-07
1.99011e-07
-5.85555e-07
2.32573e-07
-7.37457e-07
2.66656e-07
-9.01133e-07
2.99234e-07
-1.07306e-06
3.28878e-07
-1.24891e-06
3.54085e-07
-1.42434e-06
3.73792e-07
-1.59533e-06
3.8761e-07
-1.7583e-06
3.95237e-07
-1.91069e-06
3.96604e-07
-2.05108e-06
3.91936e-07
-2.17855e-06
3.8167e-07
-2.29318e-06
3.6646e-07
-2.3954e-06
3.46974e-07
-2.48554e-06
3.23795e-07
-2.56395e-06
2.97711e-07
-2.63093e-06
2.69317e-07
-2.68672e-06
2.39162e-07
-2.73148e-06
2.0759e-07
-2.76532e-06
1.74962e-07
-2.7883e-06
1.41414e-07
-2.8004e-06
1.07055e-07
-2.80155e-06
7.19366e-08
-2.79164e-06
3.60719e-08
-2.77039e-06
-6.85466e-10
-2.73791e-06
-3.80595e-08
-2.69316e-06
-7.63264e-08
-2.6366e-06
-1.15633e-07
-2.56765e-06
-1.55679e-07
-2.48614e-06
-1.96457e-07
-2.39183e-06
-2.37661e-07
-2.28462e-06
-2.79036e-07
-2.16449e-06
-3.20121e-07
-2.03162e-06
-3.60291e-07
-1.88648e-06
-3.98667e-07
-1.72983e-06
-4.34189e-07
-1.56276e-06
-4.65833e-07
-1.38673e-06
-4.92258e-07
-1.20368e-06
-5.11952e-07
-1.01615e-06
-5.23453e-07
-8.27022e-07
-5.25473e-07
-6.39625e-07
-5.16839e-07
-4.57585e-07
-4.97006e-07
-2.84639e-07
-4.65915e-07
-1.23913e-07
-4.2394e-07
2.15363e-08
-3.71697e-07
1.49115e-07
-3.10357e-07
2.56321e-07
-2.41556e-07
3.41747e-07
-1.67739e-07
4.04583e-07
-9.16539e-08
4.44106e-07
-1.61954e-08
4.59753e-07
5.64003e-08
4.5051e-07
1.21713e-07
4.17613e-07
1.74927e-07
3.62978e-07
2.11968e-07
2.89359e-07
2.28482e-07
2.03504e-07
2.22067e-07
1.16054e-07
1.92037e-07
4.07306e-08
1.38187e-07
5.96658e-08
2.83658e-08
-6.1306e-08
8.19015e-08
-1.48117e-07
1.32046e-07
-1.73558e-07
1.70287e-07
-1.59748e-07
1.9546e-07
-1.26185e-07
2.08838e-07
-8.55583e-08
2.11652e-07
-4.49724e-08
2.05044e-07
-8.51164e-09
1.89798e-07
2.17913e-08
1.66373e-07
4.53755e-08
1.34537e-07
6.35033e-08
9.3771e-08
7.8724e-08
4.32862e-08
9.40627e-08
-1.78698e-08
1.12061e-07
-9.08148e-08
1.34278e-07
-1.7693e-07
1.61411e-07
-2.77678e-07
1.93591e-07
-3.94316e-07
2.30663e-07
-5.27361e-07
2.71931e-07
-6.76268e-07
3.16322e-07
-8.39146e-07
3.61889e-07
-1.01277e-06
4.06194e-07
-1.19321e-06
4.47101e-07
-1.37613e-06
4.82151e-07
-1.55736e-06
5.10108e-07
-1.73298e-06
5.29707e-07
-1.89952e-06
5.40326e-07
-2.05433e-06
5.42424e-07
-2.19613e-06
5.37042e-07
-2.32459e-06
5.2506e-07
-2.43996e-06
5.07302e-07
-2.54284e-06
4.8455e-07
-2.63388e-06
4.57508e-07
-2.71383e-06
4.26916e-07
-2.78336e-06
3.93331e-07
-2.84302e-06
3.57371e-07
-2.89321e-06
3.19502e-07
-2.93421e-06
2.80161e-07
-2.96621e-06
2.39592e-07
-2.98926e-06
1.98017e-07
-3.00337e-06
1.55516e-07
-3.00844e-06
1.12127e-07
-3.0043e-06
6.77963e-08
-2.99069e-06
2.24675e-08
-2.96746e-06
-2.39163e-08
-2.93414e-06
-7.13825e-08
-2.89036e-06
-1.20101e-07
-2.83586e-06
-1.7014e-07
-2.77014e-06
-2.21393e-07
-2.69289e-06
-2.73714e-07
-2.60374e-06
-3.26812e-07
-2.50241e-06
-3.80365e-07
-2.38869e-06
-4.3384e-07
-2.26247e-06
-4.86509e-07
-2.12384e-06
-5.373e-07
-1.97323e-06
-5.84789e-07
-1.81147e-06
-6.27597e-07
-1.63963e-06
-6.64096e-07
-1.45928e-06
-6.92305e-07
-1.2725e-06
-7.1023e-07
-1.08185e-06
-7.16124e-07
-8.90456e-07
-7.08234e-07
-7.02002e-07
-6.85459e-07
-5.20661e-07
-6.47256e-07
-3.50124e-07
-5.94477e-07
-1.93485e-07
-5.28337e-07
-5.36287e-08
-4.50213e-07
6.73163e-08
-3.62501e-07
1.67737e-07
-2.68159e-07
2.46667e-07
-1.70584e-07
3.03812e-07
-7.33408e-08
3.39916e-07
2.0296e-08
3.54885e-07
1.06744e-07
3.48207e-07
1.81605e-07
3.19847e-07
2.40327e-07
2.70689e-07
2.7764e-07
2.04515e-07
2.88241e-07
1.27182e-07
2.69371e-07
4.92245e-08
2.16144e-07
1.0889e-07
3.44303e-08
-9.57362e-08
8.71035e-08
-2.00791e-07
1.283e-07
-2.14755e-07
1.54859e-07
-1.86307e-07
1.67665e-07
-1.38991e-07
1.68996e-07
-8.68892e-08
1.60234e-07
-3.62105e-08
1.42105e-07
9.61801e-09
1.1476e-07
4.91364e-08
7.7723e-08
8.24121e-08
3.00108e-08
1.11215e-07
-2.95753e-08
1.3831e-07
-1.02204e-07
1.66691e-07
-1.88954e-07
1.98811e-07
-2.90841e-07
2.36165e-07
-4.08703e-07
2.79273e-07
-5.42941e-07
3.27829e-07
-6.93246e-07
3.80968e-07
-8.58061e-07
4.36747e-07
-1.03423e-06
4.92487e-07
-1.21787e-06
5.45536e-07
-1.40442e-06
5.9274e-07
-1.58953e-06
6.32215e-07
-1.76899e-06
6.61604e-07
-1.93846e-06
6.79581e-07
-2.09546e-06
6.86713e-07
-2.23919e-06
6.84054e-07
-2.36969e-06
6.72927e-07
-2.48744e-06
6.54789e-07
-2.59315e-06
6.3077e-07
-2.6877e-06
6.01846e-07
-2.77189e-06
5.68747e-07
-2.84648e-06
5.32091e-07
-2.91208e-06
4.92521e-07
-2.96929e-06
4.50543e-07
-3.01852e-06
4.06602e-07
-3.06008e-06
3.61059e-07
-3.09418e-06
3.14256e-07
-3.12092e-06
2.66335e-07
-3.14031e-06
2.17413e-07
-3.15225e-06
1.67455e-07
-3.15666e-06
1.16538e-07
-3.15334e-06
6.4468e-08
-3.14193e-06
1.10648e-08
-3.12227e-06
-4.35836e-08
-3.09387e-06
-9.97775e-08
-3.05635e-06
-1.57623e-07
-3.00931e-06
-2.1718e-07
-2.95218e-06
-2.78526e-07
-2.88439e-06
-3.41505e-07
-2.80546e-06
-4.05737e-07
-2.71492e-06
-4.70909e-07
-2.61232e-06
-5.36439e-07
-2.49725e-06
-6.0158e-07
-2.36932e-06
-6.6523e-07
-2.22866e-06
-7.25453e-07
-2.07571e-06
-7.80545e-07
-1.91109e-06
-8.28717e-07
-1.73593e-06
-8.67457e-07
-1.55198e-06
-8.94186e-07
-1.36136e-06
-9.06747e-07
-1.16695e-06
-9.02636e-07
-9.71961e-07
-8.80453e-07
-7.80484e-07
-8.38732e-07
-5.97267e-07
-7.77695e-07
-4.26489e-07
-6.99114e-07
-2.71221e-07
-6.05482e-07
-1.34157e-07
-4.99565e-07
-1.73492e-08
-3.84966e-07
7.80429e-08
-2.65976e-07
1.51658e-07
-1.46956e-07
2.04087e-07
-3.21324e-08
2.36243e-07
7.45872e-08
2.48645e-07
1.69203e-07
2.41563e-07
2.47409e-07
2.15336e-07
3.03868e-07
1.70954e-07
3.32623e-07
1.11508e-07
3.28818e-07
4.4721e-08
2.8293e-07
1.53611e-07
3.7881e-08
-1.33617e-07
8.30711e-08
-2.45981e-07
1.11406e-07
-2.4309e-07
1.23871e-07
-1.98772e-07
1.23409e-07
-1.38529e-07
1.12017e-07
-7.5497e-08
9.06662e-08
-1.48598e-08
5.94708e-08
4.08134e-08
1.79378e-08
9.06695e-08
-3.509e-08
1.3544e-07
-1.01011e-07
1.77137e-07
-1.8123e-07
2.18529e-07
-2.76923e-07
2.62384e-07
-3.88924e-07
3.10813e-07
-5.17648e-07
3.64889e-07
-6.62825e-07
4.2445e-07
-8.23304e-07
4.88307e-07
-9.96667e-07
5.54331e-07
-1.17939e-06
6.1947e-07
-1.36685e-06
6.79951e-07
-1.55454e-06
7.33221e-07
-1.7375e-06
7.75704e-07
-1.91062e-06
8.05332e-07
-2.07093e-06
8.21918e-07
-2.21768e-06
8.26322e-07
-2.35112e-06
8.20156e-07
-2.47206e-06
8.04997e-07
-2.58152e-06
7.82387e-07
-2.68038e-06
7.53643e-07
-2.76944e-06
7.19837e-07
-2.84946e-06
6.81867e-07
-2.92108e-06
6.40359e-07
-2.9849e-06
5.95916e-07
-3.04144e-06
5.49056e-07
-3.09109e-06
5.00197e-07
-3.13416e-06
4.49671e-07
-3.17079e-06
3.97692e-07
-3.20114e-06
3.44601e-07
-3.22529e-06
2.90491e-07
-3.24333e-06
2.35446e-07
-3.25505e-06
1.79176e-07
-3.26055e-06
1.22038e-07
-3.25978e-06
6.36974e-08
-3.25229e-06
3.57857e-09
-3.23836e-06
-5.75141e-08
-3.21724e-06
-1.20901e-07
-3.18848e-06
-1.86378e-07
-3.15161e-06
-2.54046e-07
-3.10605e-06
-3.24086e-07
-3.05104e-06
-3.96516e-07
-2.98581e-06
-4.70966e-07
-2.90952e-06
-5.47205e-07
-2.8214e-06
-6.24552e-07
-2.72101e-06
-7.01979e-07
-2.60777e-06
-7.78466e-07
-2.48104e-06
-8.52181e-07
-2.34069e-06
-9.20894e-07
-2.18678e-06
-9.8263e-07
-2.01992e-06
-1.03432e-06
-1.84154e-06
-1.07256e-06
-1.65315e-06
-1.09514e-06
-1.45743e-06
-1.09835e-06
-1.25737e-06
-1.08051e-06
-1.05676e-06
-1.03934e-06
-8.60165e-07
-9.74291e-07
-6.72967e-07
-8.86313e-07
-4.99615e-07
-7.78834e-07
-3.43461e-07
-6.55719e-07
-2.07318e-07
-5.21109e-07
-9.31343e-08
-3.8016e-07
-1.66564e-09
-2.38425e-07
6.74874e-08
-1.01286e-07
1.15596e-07
2.64783e-08
1.44255e-07
1.40544e-07
1.54452e-07
2.37212e-07
1.46806e-07
3.11515e-07
1.21773e-07
3.57655e-07
8.15971e-08
3.68994e-07
3.25035e-08
3.32024e-07
1.86115e-07
3.77012e-08
-1.71318e-07
7.00012e-08
-2.78281e-07
8.33417e-08
-2.5643e-07
8.0975e-08
-1.96405e-07
6.67547e-08
-1.24309e-07
4.20606e-08
-5.08029e-08
7.19253e-09
2.00082e-08
-3.83392e-08
8.63451e-08
-9.55996e-08
1.4793e-07
-1.66004e-07
2.05845e-07
-2.51048e-07
2.62181e-07
-3.52e-07
3.19481e-07
-4.69668e-07
3.80052e-07
-6.04219e-07
4.45364e-07
-7.55039e-07
5.15708e-07
-9.20522e-07
5.89933e-07
-1.09773e-06
6.65511e-07
-1.28248e-06
7.39088e-07
-1.4701e-06
8.07087e-07
-1.6555e-06
8.65352e-07
-1.83271e-06
9.10427e-07
-1.99777e-06
9.40763e-07
-2.14918e-06
9.56747e-07
-2.28708e-06
9.59815e-07
-2.41237e-06
9.51612e-07
-2.52608e-06
9.33867e-07
-2.62926e-06
9.08183e-07
-2.7229e-06
8.76021e-07
-2.80776e-06
8.385e-07
-2.88449e-06
7.96569e-07
-2.95362e-06
7.51001e-07
-3.01566e-06
7.02396e-07
-3.07104e-06
6.51301e-07
-3.12013e-06
5.98138e-07
-3.16322e-06
5.43291e-07
-3.20061e-06
4.87057e-07
-3.23222e-06
4.2931e-07
-3.2583e-06
3.7068e-07
-3.27898e-06
3.11163e-07
-3.2943e-06
2.50767e-07
-3.30453e-06
1.89407e-07
-3.3094e-06
1.26907e-07
-3.30878e-06
6.30811e-08
-3.3026e-06
-2.607e-09
-3.29095e-06
-6.9158e-08
-3.27394e-06
-1.37908e-07
-3.25148e-06
-2.08839e-07
-3.22336e-06
-2.82167e-07
-3.18931e-06
-3.58139e-07
-3.14877e-06
-4.37057e-07
-3.10074e-06
-5.18998e-07
-3.0442e-06
-6.03742e-07
-2.97781e-06
-6.90937e-07
-2.89974e-06
-7.8005e-07
-2.8081e-06
-8.70109e-07
-2.7015e-06
-9.58782e-07
-2.57935e-06
-1.04304e-06
-2.4418e-06
-1.12018e-06
-2.28923e-06
-1.18689e-06
-2.12182e-06
-1.23998e-06
-1.9404e-06
-1.27655e-06
-1.74755e-06
-1.2912e-06
-1.54573e-06
-1.28234e-06
-1.33859e-06
-1.24648e-06
-1.1304e-06
-1.18248e-06
-9.26612e-07
-1.0901e-06
-7.33663e-07
-9.71783e-07
-5.56365e-07
-8.33016e-07
-3.98304e-07
-6.79171e-07
-2.62461e-07
-5.16002e-07
-1.50595e-07
-3.50291e-07
-6.29401e-08
-1.88941e-07
1.7565e-09
-3.82183e-08
4.53733e-08
9.69273e-08
7.03473e-08
2.12238e-07
7.82299e-08
3.03632e-07
6.98269e-08
3.66058e-07
4.74252e-08
3.91395e-07
1.73513e-08
3.62098e-07
2.03466e-07
3.27373e-08
-2.04056e-07
4.96116e-08
-2.95155e-07
4.68098e-08
-2.53629e-07
2.93862e-08
-1.78982e-07
1.13015e-09
-9.60529e-08
-3.73282e-08
-1.23446e-08
-8.64403e-08
6.91203e-08
-1.47166e-07
1.4707e-07
-2.20829e-07
2.21594e-07
-3.08861e-07
2.93876e-07
-4.12529e-07
3.65849e-07
-5.32663e-07
4.39614e-07
-6.69383e-07
5.16772e-07
-8.21971e-07
5.97953e-07
-9.88633e-07
6.8237e-07
-1.16608e-06
7.67384e-07
-1.34987e-06
8.49297e-07
-1.53503e-06
9.24247e-07
-1.71548e-06
9.87536e-07
-1.88599e-06
1.03587e-06
-2.04352e-06
1.06796e-06
-2.18753e-06
1.08477e-06
-2.31848e-06
1.0877e-06
-2.43735e-06
1.07869e-06
-2.54523e-06
1.05949e-06
-2.64323e-06
1.03186e-06
-2.73225e-06
9.97208e-07
-2.81301e-06
9.56781e-07
-2.88606e-06
9.11551e-07
-2.95187e-06
8.62373e-07
-3.01081e-06
8.09945e-07
-3.06327e-06
7.54852e-07
-3.10954e-06
6.97577e-07
-3.14982e-06
6.38415e-07
-3.18433e-06
5.77805e-07
-3.21363e-06
5.16359e-07
-3.23851e-06
4.54184e-07
-3.25903e-06
3.91207e-07
-3.27522e-06
3.27346e-07
-3.28689e-06
2.6244e-07
-3.29426e-06
1.9678e-07
-3.29722e-06
1.29863e-07
-3.29587e-06
6.17282e-08
-3.29029e-06
-8.18548e-09
-3.28062e-06
-7.88277e-08
-3.26683e-06
-1.51698e-07
-3.24882e-06
-2.26852e-07
-3.22639e-06
-3.04591e-07
-3.19936e-06
-3.85176e-07
-3.16755e-06
-4.68866e-07
-3.13062e-06
-5.55929e-07
-3.08811e-06
-6.46253e-07
-3.03933e-06
-7.39716e-07
-2.98352e-06
-8.35858e-07
-2.9196e-06
-9.34032e-07
-2.84475e-06
-1.03362e-06
-2.75495e-06
-1.13284e-06
-2.64638e-06
-1.22875e-06
-2.51751e-06
-1.31577e-06
-2.36911e-06
-1.38838e-06
-2.20333e-06
-1.44233e-06
-2.0207e-06
-1.47383e-06
-1.82352e-06
-1.47953e-06
-1.61524e-06
-1.45475e-06
-1.39989e-06
-1.39783e-06
-1.18239e-06
-1.30761e-06
-9.69995e-07
-1.18417e-06
-7.70209e-07
-1.0328e-06
-5.88322e-07
-8.61058e-07
-4.28227e-07
-6.76097e-07
-2.93033e-07
-4.85485e-07
-1.84223e-07
-2.9775e-07
-1.01382e-07
-1.2106e-07
-4.21965e-08
3.77421e-08
-3.42622e-09
1.73468e-07
1.75531e-08
2.82653e-07
2.31516e-08
3.60459e-07
1.63388e-08
3.98208e-07
3.5759e-09
3.74861e-07
2.07042e-07
2.33853e-08
-2.27441e-07
2.34476e-08
-2.95217e-07
3.91463e-09
-2.34096e-07
-2.79885e-08
-1.47078e-07
-7.02695e-08
-5.37719e-08
-1.22871e-07
4.02569e-08
-1.86615e-07
1.32864e-07
-2.62749e-07
2.23204e-07
-3.5261e-07
3.11454e-07
-4.57393e-07
3.98659e-07
-5.77909e-07
4.86365e-07
-7.143e-07
5.76005e-07
-8.65924e-07
6.68396e-07
-1.03105e-06
7.63082e-07
-1.20623e-06
8.57548e-07
-1.38687e-06
9.48023e-07
-1.56771e-06
1.03014e-06
-1.74257e-06
1.0991e-06
-1.90672e-06
1.15169e-06
-2.05798e-06
1.18712e-06
-2.19591e-06
1.2059e-06
-2.32111e-06
1.20997e-06
-2.43458e-06
1.20116e-06
-2.53742e-06
1.18153e-06
-2.63065e-06
1.15273e-06
-2.71512e-06
1.11633e-06
-2.79146e-06
1.07355e-06
-2.86017e-06
1.02549e-06
-2.92165e-06
9.73033e-07
-2.97628e-06
9.16995e-07
-3.02438e-06
8.58048e-07
-3.06632e-06
7.96794e-07
-3.10258e-06
7.33832e-07
-3.13383e-06
6.69665e-07
-3.16055e-06
6.04529e-07
-3.18255e-06
5.38355e-07
-3.19995e-06
4.71592e-07
-3.21278e-06
4.04034e-07
-3.22129e-06
3.35851e-07
-3.22599e-06
2.6714e-07
-3.2272e-06
1.97996e-07
-3.2254e-06
1.2806e-07
-3.22085e-06
5.71775e-08
-3.214e-06
-1.50303e-08
-3.20442e-06
-8.84129e-08
-3.19228e-06
-1.63838e-07
-3.17762e-06
-2.41509e-07
-3.16043e-06
-3.21781e-07
-3.14062e-06
-4.04989e-07
-3.11799e-06
-4.91493e-07
-3.09228e-06
-5.81637e-07
-3.06294e-06
-6.75598e-07
-3.02922e-06
-7.73435e-07
-2.99016e-06
-8.74913e-07
-2.9449e-06
-9.79299e-07
-2.89244e-06
-1.08608e-06
-2.83141e-06
-1.19387e-06
-2.75972e-06
-1.30044e-06
-2.6717e-06
-1.40379e-06
-2.55998e-06
-1.5001e-06
-2.42221e-06
-1.58009e-06
-2.25981e-06
-1.63623e-06
-2.07722e-06
-1.66211e-06
-1.87603e-06
-1.65594e-06
-1.6608e-06
-1.61306e-06
-1.43583e-06
-1.53258e-06
-1.20762e-06
-1.41238e-06
-9.85382e-07
-1.25504e-06
-7.78068e-07
-1.06837e-06
-5.91593e-07
-8.62572e-07
-4.30137e-07
-6.46941e-07
-2.96835e-07
-4.31052e-07
-1.92645e-07
-2.2525e-07
-1.16131e-07
-3.87723e-08
-6.37302e-08
1.21068e-07
-3.0809e-08
2.49732e-07
-1.35065e-08
3.43157e-07
-6.91817e-09
3.9162e-07
-5.31755e-09
3.7326e-07
2.01724e-07
1.0956e-08
-2.38397e-07
-6.70715e-09
-2.77554e-07
-4.18913e-08
-1.98911e-07
-8.83869e-08
-1.00583e-07
-1.44772e-07
2.61337e-09
-2.11482e-07
1.06967e-07
-2.89714e-07
2.11096e-07
-3.80748e-07
3.14238e-07
-4.85717e-07
4.16424e-07
-6.05394e-07
5.18336e-07
-7.39953e-07
6.20924e-07
-8.88885e-07
7.24937e-07
-1.05068e-06
8.30188e-07
-1.22201e-06
9.34411e-07
-1.39816e-06
1.0337e-06
-1.57374e-06
1.1236e-06
-1.74306e-06
1.19946e-06
-1.90172e-06
1.25777e-06
-2.04774e-06
1.2977e-06
-2.18056e-06
1.31995e-06
-2.30085e-06
1.32619e-06
-2.40957e-06
1.31868e-06
-2.50779e-06
1.29939e-06
-2.59644e-06
1.27018e-06
-2.67627e-06
1.23255e-06
-2.74782e-06
1.18789e-06
-2.81157e-06
1.1373e-06
-2.8679e-06
1.08182e-06
-2.91723e-06
1.02236e-06
-2.95998e-06
9.5974e-07
-2.9966e-06
8.94663e-07
-3.02756e-06
8.27754e-07
-3.0532e-06
7.59473e-07
-3.07376e-06
6.90227e-07
-3.08954e-06
6.20313e-07
-3.10106e-06
5.49867e-07
-3.10873e-06
4.79266e-07
-3.11319e-06
4.08491e-07
-3.11494e-06
3.37604e-07
-3.11431e-06
2.66507e-07
-3.11139e-06
1.95078e-07
-3.10642e-06
1.23093e-07
-3.09958e-06
5.03393e-08
-3.09114e-06
-2.3477e-08
-3.08099e-06
-9.8565e-08
-3.0694e-06
-1.75422e-07
-3.05654e-06
-2.54374e-07
-3.0425e-06
-3.35818e-07
-3.02735e-06
-4.2014e-07
-3.01109e-06
-5.07758e-07
-2.99365e-06
-5.9907e-07
-2.97484e-06
-6.94413e-07
-2.95425e-06
-7.94018e-07
-2.93125e-06
-8.97918e-07
-2.90464e-06
-1.0059e-06
-2.87308e-06
-1.11764e-06
-2.83481e-06
-1.23214e-06
-2.78792e-06
-1.34733e-06
-2.73034e-06
-1.46138e-06
-2.65954e-06
-1.5709e-06
-2.56799e-06
-1.67164e-06
-2.44583e-06
-1.75839e-06
-2.29138e-06
-1.81656e-06
-2.10857e-06
-1.83875e-06
-1.9035e-06
-1.81814e-06
-1.68009e-06
-1.75599e-06
-1.4441e-06
-1.64837e-06
-1.20394e-06
-1.4952e-06
-9.71005e-07
-1.30131e-06
-7.56069e-07
-1.07751e-06
-5.65763e-07
-8.37247e-07
-4.04487e-07
-5.92328e-07
-2.75132e-07
-3.54605e-07
-1.77703e-07
-1.36202e-07
-1.09338e-07
5.27034e-08
-6.45843e-08
2.04977e-07
-3.74901e-08
3.16063e-07
-2.05494e-08
3.74679e-07
-9.44731e-09
3.62158e-07
1.92277e-07
-3.24521e-09
-2.35152e-07
-3.81096e-08
-2.4269e-07
-8.88603e-08
-1.48161e-07
-1.4961e-07
-3.98333e-08
-2.19708e-07
7.27111e-08
-3.00142e-07
1.87402e-07
-3.92152e-07
3.03106e-07
-4.96894e-07
4.18981e-07
-6.15146e-07
5.34675e-07
-7.47126e-07
6.50316e-07
-8.92456e-07
7.66255e-07
-1.0499e-06
8.82377e-07
-1.21643e-06
9.96718e-07
-1.38743e-06
1.10541e-06
-1.55761e-06
1.20389e-06
-1.72174e-06
1.28773e-06
-1.87565e-06
1.35337e-06
-2.01717e-06
1.39929e-06
-2.14574e-06
1.42626e-06
-2.26175e-06
1.43596e-06
-2.36625e-06
1.43068e-06
-2.46015e-06
1.41258e-06
-2.5443e-06
1.38354e-06
-2.61934e-06
1.34521e-06
-2.68576e-06
1.29898e-06
-2.744e-06
1.24613e-06
-2.79448e-06
1.18777e-06
-2.83765e-06
1.12499e-06
-2.87401e-06
1.05873e-06
-2.9041e-06
9.89833e-07
-2.92848e-06
9.19037e-07
-2.94767e-06
8.46946e-07
-2.96222e-06
7.74027e-07
-2.97267e-06
7.00679e-07
-2.97955e-06
6.27187e-07
-2.98343e-06
5.53744e-07
-2.98469e-06
4.80531e-07
-2.98372e-06
4.0752e-07
-2.98078e-06
3.34667e-07
-2.97611e-06
2.61835e-07
-2.96989e-06
1.88857e-07
-2.96231e-06
1.15513e-07
-2.95354e-06
4.15665e-08
-2.94376e-06
-3.3258e-08
-2.93306e-06
-1.09259e-07
-2.92167e-06
-1.86816e-07
-2.90976e-06
-2.66282e-07
-2.89752e-06
-3.48055e-07
-2.88512e-06
-4.32539e-07
-2.87272e-06
-5.20165e-07
-2.86043e-06
-6.11358e-07
-2.84832e-06
-7.06525e-07
-2.83631e-06
-8.0602e-07
-2.82414e-06
-9.10095e-07
-2.81115e-06
-1.01889e-06
-2.79643e-06
-1.13235e-06
-2.7786e-06
-1.24997e-06
-2.75525e-06
-1.37069e-06
-2.72372e-06
-1.49291e-06
-2.681e-06
-1.61361e-06
-2.62379e-06
-1.72885e-06
-2.54793e-06
-1.83426e-06
-2.4417e-06
-1.92279e-06
-2.29682e-06
-1.98363e-06
-2.11497e-06
-1.99999e-06
-1.90513e-06
-1.96583e-06
-1.67201e-06
-1.88149e-06
-1.42366e-06
-1.74355e-06
-1.17065e-06
-1.55431e-06
-9.26935e-07
-1.32123e-06
-7.05245e-07
-1.05894e-06
-5.12939e-07
-7.84633e-07
-3.54401e-07
-5.13143e-07
-2.31788e-07
-2.58814e-07
-1.43617e-07
-3.54679e-08
-8.49153e-08
1.46276e-07
-4.82414e-08
2.79389e-07
-2.45404e-08
3.50978e-07
-8.89215e-09
3.4651e-07
1.83385e-07
-1.8453e-08
-2.16699e-07
-7.00344e-08
-1.91108e-07
-1.35354e-07
-8.28408e-08
-2.09608e-07
3.44208e-08
-2.92777e-07
1.5588e-07
-3.86021e-07
2.80646e-07
-4.90561e-07
4.07646e-07
-6.07273e-07
5.35692e-07
-7.36474e-07
6.63876e-07
-8.7791e-07
7.91752e-07
-1.0306e-06
9.18941e-07
-1.19191e-06
1.04369e-06
-1.35755e-06
1.16235e-06
-1.52247e-06
1.27033e-06
-1.68185e-06
1.36328e-06
-1.83172e-06
1.43759e-06
-1.96952e-06
1.49117e-06
-2.09448e-06
1.52425e-06
-2.20691e-06
1.5387e-06
-2.30765e-06
1.5367e-06
-2.3976e-06
1.52063e-06
-2.47747e-06
1.49245e-06
-2.54784e-06
1.45391e-06
-2.60916e-06
1.40653e-06
-2.66189e-06
1.35171e-06
-2.70653e-06
1.29076e-06
-2.74363e-06
1.22488e-06
-2.77384e-06
1.1552e-06
-2.79784e-06
1.08273e-06
-2.81635e-06
1.00834e-06
-2.83004e-06
9.32733e-07
-2.83959e-06
8.56492e-07
-2.84561e-06
7.80053e-07
-2.84868e-06
7.03744e-07
-2.84927e-06
6.27779e-07
-2.84781e-06
5.52285e-07
-2.84459e-06
4.77308e-07
-2.83985e-06
4.02779e-07
-2.83378e-06
3.28594e-07
-2.82654e-06
2.54596e-07
-2.81828e-06
1.80599e-07
-2.80914e-06
1.06377e-07
-2.79926e-06
3.16858e-08
-2.78877e-06
-4.37459e-08
-2.77782e-06
-1.20217e-07
-2.76657e-06
-1.98065e-07
-2.75522e-06
-2.77631e-07
-2.74398e-06
-3.59289e-07
-2.73309e-06
-4.43431e-07
-2.72278e-06
-5.30474e-07
-2.71329e-06
-6.20845e-07
-2.70484e-06
-7.14975e-07
-2.69759e-06
-8.13276e-07
-2.69156e-06
-9.16128e-07
-2.6866e-06
-1.02385e-06
-2.68233e-06
-1.13662e-06
-2.67793e-06
-1.25438e-06
-2.6719e-06
-1.37672e-06
-2.66211e-06
-1.5027e-06
-2.64526e-06
-1.63046e-06
-2.61698e-06
-1.75713e-06
-2.57327e-06
-1.87796e-06
-2.50868e-06
-1.98738e-06
-2.41508e-06
-2.07722e-06
-2.27801e-06
-2.13706e-06
-2.09697e-06
-2.14687e-06
-1.8807e-06
-2.09776e-06
-1.63621e-06
-1.98803e-06
-1.37425e-06
-1.81627e-06
-1.10815e-06
-1.58733e-06
-8.54664e-07
-1.31242e-06
-6.28489e-07
-1.01081e-06
-4.37396e-07
-7.04236e-07
-2.85339e-07
-4.10872e-07
-1.7293e-07
-1.47877e-07
-9.65964e-08
6.9942e-08
-4.8858e-08
2.3165e-07
-2.04514e-08
3.22572e-07
-4.60291e-09
3.30661e-07
1.78782e-07
-3.36416e-08
-1.83057e-07
-1.00746e-07
-1.24004e-07
-1.79732e-07
-3.85467e-09
-2.66555e-07
1.21243e-07
-3.6176e-07
2.51085e-07
-4.66545e-07
3.85431e-07
-5.81973e-07
5.23074e-07
-7.08569e-07
6.62287e-07
-8.46235e-07
8.01543e-07
-9.94211e-07
9.39728e-07
-1.15028e-06
1.07501e-06
-1.31061e-06
1.20403e-06
-1.47058e-06
1.32232e-06
-1.6257e-06
1.42546e-06
-1.77213e-06
1.5097e-06
-1.90702e-06
1.57248e-06
-2.02914e-06
1.61329e-06
-2.13867e-06
1.63378e-06
-2.23627e-06
1.63631e-06
-2.32277e-06
1.6232e-06
-2.39882e-06
1.59667e-06
-2.46493e-06
1.55857e-06
-2.52158e-06
1.51056e-06
-2.56928e-06
1.45423e-06
-2.60862e-06
1.39105e-06
-2.6403e-06
1.32244e-06
-2.66513e-06
1.2497e-06
-2.68394e-06
1.17401e-06
-2.69757e-06
1.09636e-06
-2.70682e-06
1.01759e-06
-2.71243e-06
9.38338e-07
-2.71504e-06
8.59105e-07
-2.71522e-06
7.80235e-07
-2.71343e-06
7.01956e-07
-2.71004e-06
6.24387e-07
-2.70532e-06
5.47566e-07
-2.69947e-06
4.71457e-07
-2.69264e-06
3.95949e-07
-2.68495e-06
3.20901e-07
-2.67649e-06
2.46136e-07
-2.66734e-06
1.71458e-07
-2.65761e-06
9.6642e-08
-2.64737e-06
2.14488e-08
-2.63673e-06
-5.43858e-08
-2.62581e-06
-1.31137e-07
-2.61477e-06
-2.09106e-07
-2.60379e-06
-2.88608e-07
-2.5931e-06
-3.69982e-07
-2.58295e-06
-4.53586e-07
-2.57361e-06
-5.39807e-07
-2.56541e-06
-6.29049e-07
-2.55865e-06
-7.21738e-07
-2.55361e-06
-8.18309e-07
-2.55054e-06
-9.19201e-07
-2.54956e-06
-1.02483e-06
-2.55064e-06
-1.13554e-06
-2.55347e-06
-1.25155e-06
-2.55734e-06
-1.37285e-06
-2.56094e-06
-1.49909e-06
-2.56207e-06
-1.62933e-06
-2.55741e-06
-1.76179e-06
-2.54201e-06
-1.89336e-06
-2.51014e-06
-2.01926e-06
-2.45558e-06
-2.13177e-06
-2.36952e-06
-2.22313e-06
-2.23749e-06
-2.27891e-06
-2.0552e-06
-2.28005e-06
-1.83029e-06
-2.21295e-06
-1.57264e-06
-2.07391e-06
-1.29628e-06
-1.86369e-06
-1.01783e-06
-1.59088e-06
-7.57191e-07
-1.27144e-06
-5.30638e-07
-9.30789e-07
-3.45682e-07
-5.95827e-07
-2.05083e-07
-2.88476e-07
-1.07163e-07
-2.7978e-08
-4.57579e-08
1.70246e-07
-1.23652e-08
2.89179e-07
1.58505e-09
3.16711e-07
1.80367e-07
-4.8123e-08
-1.34934e-07
-1.29357e-07
-4.27694e-08
-2.20571e-07
8.73589e-08
-3.18877e-07
2.1955e-07
-4.24797e-07
3.57005e-07
-5.39552e-07
5.00186e-07
-6.63979e-07
6.47502e-07
-7.98263e-07
7.96571e-07
-9.4186e-07
9.4514e-07
-1.09294e-06
1.0908e-06
-1.24822e-06
1.23029e-06
-1.40365e-06
1.35946e-06
-1.55502e-06
1.47369e-06
-1.69858e-06
1.56901e-06
-1.83128e-06
1.6424e-06
-1.95141e-06
1.69261e-06
-2.05881e-06
1.72069e-06
-2.15404e-06
1.72901e-06
-2.23778e-06
1.72005e-06
-2.31067e-06
1.69609e-06
-2.37323e-06
1.65923e-06
-2.42594e-06
1.61128e-06
-2.4694e-06
1.55402e-06
-2.5043e-06
1.48913e-06
-2.5315e-06
1.41825e-06
-2.55194e-06
1.34288e-06
-2.56659e-06
1.26435e-06
-2.5764e-06
1.18382e-06
-2.58225e-06
1.10221e-06
-2.58492e-06
1.02026e-06
-2.58508e-06
9.385e-07
-2.58328e-06
8.57306e-07
-2.57996e-06
7.76911e-07
-2.57544e-06
6.97436e-07
-2.56996e-06
6.18912e-07
-2.5637e-06
5.413e-07
-2.55674e-06
4.64502e-07
-2.54917e-06
3.88378e-07
-2.54103e-06
3.12766e-07
-2.53237e-06
2.37468e-07
-2.52319e-06
1.62285e-07
-2.51356e-06
8.70058e-08
-2.50351e-06
1.14033e-08
-2.49312e-06
-6.47788e-08
-2.48248e-06
-1.41775e-07
-2.47173e-06
-2.19854e-07
-2.46105e-06
-2.99295e-07
-2.45063e-06
-3.80394e-07
-2.44076e-06
-4.63465e-07
-2.43171e-06
-5.4885e-07
-2.42384e-06
-6.36917e-07
-2.41752e-06
-7.28063e-07
-2.41311e-06
-8.22714e-07
-2.41099e-06
-9.21324e-07
-2.41146e-06
-1.02436e-06
-2.41472e-06
-1.13228e-06
-2.42078e-06
-1.24549e-06
-2.42938e-06
-1.36425e-06
-2.43984e-06
-1.48863e-06
-2.45087e-06
-1.6183e-06
-2.46034e-06
-1.75232e-06
-2.46485e-06
-1.88885e-06
-2.45948e-06
-2.02464e-06
-2.43687e-06
-2.15439e-06
-2.3898e-06
-2.27019e-06
-2.30794e-06
-2.36077e-06
-2.17689e-06
-2.41109e-06
-1.99021e-06
-2.39963e-06
-1.75403e-06
-2.3101e-06
-1.48167e-06
-2.13605e-06
-1.19088e-06
-1.88167e-06
-9.02304e-07
-1.56002e-06
-6.39362e-07
-1.19373e-06
-4.18776e-07
-8.16414e-07
-2.46857e-07
-4.60395e-07
-1.24096e-07
-1.50739e-07
-4.59998e-08
9.21498e-08
-5.41812e-09
2.48597e-07
7.22375e-09
3.04069e-07
1.87591e-07
-6.13011e-08
-7.36331e-08
-1.54839e-07
5.07689e-08
-2.57086e-07
1.89605e-07
-3.65384e-07
3.27848e-07
-4.80453e-07
4.72074e-07
-6.03405e-07
6.23138e-07
-7.34845e-07
7.78942e-07
-8.74546e-07
9.36272e-07
-1.02105e-06
1.09165e-06
-1.17167e-06
1.24142e-06
-1.32301e-06
1.38164e-06
-1.47112e-06
1.50757e-06
-1.61234e-06
1.61491e-06
-1.74352e-06
1.70019e-06
-1.86252e-06
1.7614e-06
-1.96869e-06
1.79878e-06
-2.06239e-06
1.81439e-06
-2.14425e-06
1.81087e-06
-2.21485e-06
1.79065e-06
-2.27473e-06
1.75598e-06
-2.32444e-06
1.70893e-06
-2.36462e-06
1.65146e-06
-2.39609e-06
1.58549e-06
-2.41984e-06
1.51288e-06
-2.43692e-06
1.43534e-06
-2.44843e-06
1.35439e-06
-2.45541e-06
1.27133e-06
-2.45881e-06
1.18721e-06
-2.45944e-06
1.10284e-06
-2.45797e-06
1.01879e-06
-2.45496e-06
9.35484e-07
-2.4508e-06
8.53152e-07
-2.44581e-06
7.71919e-07
-2.44019e-06
6.91812e-07
-2.43406e-06
6.12784e-07
-2.4275e-06
5.34738e-07
-2.42053e-06
4.57532e-07
-2.41315e-06
3.81004e-07
-2.40537e-06
3.04982e-07
-2.39716e-06
2.2926e-07
-2.38851e-06
1.53636e-07
-2.37942e-06
7.79166e-08
-2.36993e-06
1.90582e-09
-2.36004e-06
-7.46592e-08
-2.34987e-06
-1.51952e-07
-2.3395e-06
-2.30219e-07
-2.3291e-06
-3.09696e-07
-2.31886e-06
-3.90633e-07
-2.30903e-06
-4.73298e-07
-2.2999e-06
-5.5798e-07
-2.29182e-06
-6.44998e-07
-2.28518e-06
-7.34703e-07
-2.2804e-06
-8.27489e-07
-2.27794e-06
-9.23793e-07
-2.2782e-06
-1.02409e-06
-2.28158e-06
-1.1289e-06
-2.28832e-06
-1.23874e-06
-2.29849e-06