/*--------------------------------*- C++ -*----------------------------------*\
  =========                 |
  \\      /  F ield         | OpenFOAM: The Open Source CFD Toolbox
   \\    /   O peration     | Website:  https://openfoam.org
    \\  /    A nd           | Version:  13
     \\/     M anipulation  |
\*---------------------------------------------------------------------------*/
FoamFile
{
    format      ascii;
    class       volVectorField;
    location    "9";
    object      U;
}
// * * * * * * * * * * * * * * * * * * * * * * * * * * * * * * * * * * * * * //

dimensions      [0 1 -1 0 0 0 0];

internalField   nonuniform List<vector> 
6400
(
(-0.000127402 8.34347e-05 0)
(0.000455525 -0.000177678 0)
(0.00213166 -0.000443788 0)
(0.00433991 -0.000560947 0)
(0.00653233 -0.000493752 0)
(0.00835639 -0.000328537 0)
(0.00956568 -0.00013066 0)
(0.0101671 1.7048e-05 0)
(0.0102893 7.09815e-05 0)
(0.0101791 4.84521e-05 0)
(0.00995982 -3.16743e-05 0)
(0.00980316 -0.000140197 0)
(0.00977185 -0.000252369 0)
(0.00986437 -0.000343216 0)
(0.0100312 -0.000416194 0)
(0.0101932 -0.000469488 0)
(0.0102752 -0.000502823 0)
(0.0102254 -0.000504097 0)
(0.00999976 -0.000483655 0)
(0.00950325 -0.000441647 0)
(0.00869965 -0.000392379 0)
(0.00752837 -0.000342392 0)
(0.00594817 -0.000295456 0)
(0.0039305 -0.000278104 0)
(0.00144121 -0.000328521 0)
(-0.00149164 -0.000447277 0)
(-0.00491009 -0.000486327 0)
(-0.00904016 -0.000289277 0)
(-0.0139936 0.00025782 0)
(-0.019818 0.00115394 0)
(-0.0272389 0.00220922 0)
(-0.0354752 0.00309966 0)
(-0.0443803 0.0038128 0)
(-0.0536405 0.00433682 0)
(-0.0629961 0.00467887 0)
(-0.07221 0.00485463 0)
(-0.0810956 0.00488954 0)
(-0.0894973 0.00480746 0)
(-0.0972989 0.00463115 0)
(-0.104402 0.00437856 0)
(-0.11073 0.00406153 0)
(-0.116223 0.00368863 0)
(-0.120836 0.00326188 0)
(-0.124549 0.0027856 0)
(-0.127336 0.00227497 0)
(-0.128966 0.00180223 0)
(-0.129626 0.00137027 0)
(-0.129423 0.00062551 0)
(-0.127815 7.552e-05 0)
(-0.125281 -0.000622684 0)
(-0.121453 -0.00126083 0)
(-0.116543 -0.00193164 0)
(-0.110415 -0.00256812 0)
(-0.103186 -0.00319315 0)
(-0.0948923 -0.00380242 0)
(-0.0856133 -0.00438351 0)
(-0.0753833 -0.00488746 0)
(-0.0643942 -0.00531275 0)
(-0.0528028 -0.00562549 0)
(-0.0408272 -0.00579446 0)
(-0.0287109 -0.00578224 0)
(-0.0167386 -0.00557766 0)
(-0.00513519 -0.00518021 0)
(0.00561404 -0.0046711 0)
(0.015192 -0.00389043 0)
(0.0234264 -0.00294351 0)
(0.0299847 -0.00187425 0)
(0.0345904 -0.000719019 0)
(0.0372708 0.000442355 0)
(0.0374181 0.00163946 0)
(0.0358954 0.00230914 0)
(0.0322334 0.00288689 0)
(0.0268667 0.00307297 0)
(0.0206831 0.00276385 0)
(0.0144559 0.00205599 0)
(0.00898053 0.00120888 0)
(0.00469546 0.000520984 0)
(0.0017512 0.000114945 0)
(0.000127796 -0.000174927 0)
(-0.000242611 -0.000350673 0)
(1.67911e-05 -0.000392333 0)
(0.00184828 -0.00214227 0)
(0.00532346 -0.0035949 0)
(0.00918951 -0.00407846 0)
(0.0127441 -0.0036818 0)
(0.0155698 -0.00279459 0)
(0.0174897 -0.0017159 0)
(0.0185345 -0.000737571 0)
(0.0188292 -4.48489e-05 0)
(0.018538 0.000332586 0)
(0.0178607 0.000437531 0)
(0.0169669 0.000354188 0)
(0.0159428 0.000205292 0)
(0.0147802 0.000103801 0)
(0.013407 0.000113075 0)
(0.0117206 0.00024591 0)
(0.009636 0.000481116 0)
(0.00708338 0.000806107 0)
(0.00394892 0.0012364 0)
(0.000125816 0.00178193 0)
(-0.00449599 0.00244701 0)
(-0.0101568 0.00325113 0)
(-0.0169342 0.00415628 0)
(-0.0248998 0.00515569 0)
(-0.0341006 0.00626769 0)
(-0.0446437 0.00749702 0)
(-0.0564095 0.00887129 0)
(-0.0690439 0.0103881 0)
(-0.0821584 0.0119812 0)
(-0.0952151 0.0134706 0)
(-0.107707 0.0145615 0)
(-0.119827 0.0152276 0)
(-0.131285 0.0154775 0)
(-0.142004 0.0153406 0)
(-0.151885 0.014888 0)
(-0.160863 0.0141717 0)
(-0.168897 0.0132488 0)
(-0.175956 0.0121643 0)
(-0.182025 0.0109565 0)
(-0.18709 0.00965371 0)
(-0.191138 0.00827316 0)
(-0.194168 0.00683163 0)
(-0.19617 0.00533544 0)
(-0.197144 0.00379559 0)
(-0.197076 0.00222187 0)
(-0.195931 0.000628221 0)
(-0.193728 -0.00100999 0)
(-0.190457 -0.00274108 0)
(-0.186058 -0.00449881 0)
(-0.180598 -0.00629513 0)
(-0.174003 -0.00810481 0)
(-0.166315 -0.00991388 0)
(-0.157501 -0.0116983 0)
(-0.147594 -0.0134275 0)
(-0.136598 -0.0150672 0)
(-0.124609 -0.0165668 0)
(-0.111734 -0.0178906 0)
(-0.0980742 -0.0189755 0)
(-0.083815 -0.0197535 0)
(-0.0691721 -0.0201741 0)
(-0.0543604 -0.0201704 0)
(-0.0396401 -0.0197039 0)
(-0.0252951 -0.0187535 0)
(-0.0116457 -0.0173438 0)
(0.00102689 -0.0154045 0)
(0.012465 -0.0130044 0)
(0.0223949 -0.0101935 0)
(0.0305761 -0.0070673 0)
(0.0368411 -0.00370997 0)
(0.0410182 -0.000308013 0)
(0.0430928 0.00289678 0)
(0.0429437 0.00583612 0)
(0.0406626 0.00824123 0)
(0.0364913 0.00973641 0)
(0.0304303 0.00994633 0)
(0.0230156 0.00898415 0)
(0.0152495 0.0071247 0)
(0.00823595 0.00479997 0)
(0.00306089 0.00231103 0)
(0.000224289 0.000261039 0)
(0.000209544 -0.00166786 0)
(0.00326213 -0.00548972 0)
(0.00759541 -0.00774707 0)
(0.0116318 -0.00800385 0)
(0.0149368 -0.00687506 0)
(0.0173045 -0.0050359 0)
(0.0187657 -0.00306472 0)
(0.0193814 -0.00128957 0)
(0.0192292 0.000107634 0)
(0.0184143 0.00104543 0)
(0.0170817 0.00155792 0)
(0.0153071 0.00179158 0)
(0.0131061 0.00194324 0)
(0.0104401 0.00218778 0)
(0.00721727 0.00263368 0)
(0.00333903 0.00330472 0)
(-0.00132456 0.0041947 0)
(-0.00693194 0.00531464 0)
(-0.0136108 0.00668873 0)
(-0.0214819 0.00835069 0)
(-0.0306286 0.0103037 0)
(-0.041021 0.0124836 0)
(-0.0526386 0.0148089 0)
(-0.0653297 0.0171578 0)
(-0.0788365 0.0194039 0)
(-0.0928508 0.0214549 0)
(-0.106998 0.0232107 0)
(-0.12096 0.02461 0)
(-0.134393 0.0255939 0)
(-0.147044 0.0261402 0)
(-0.158752 0.0262419 0)
(-0.169468 0.0258991 0)
(-0.179133 0.0251581 0)
(-0.18781 0.0240557 0)
(-0.195498 0.0226406 0)
(-0.202236 0.0209834 0)
(-0.208046 0.0191322 0)
(-0.212954 0.0171315 0)
(-0.216969 0.0150126 0)
(-0.220108 0.0128114 0)
(-0.222377 0.0105367 0)
(-0.223777 0.00820188 0)
(-0.224305 0.00581427 0)
(-0.223953 0.00337324 0)
(-0.222711 0.000881102 0)
(-0.220558 -0.00166784 0)
(-0.217465 -0.00428703 0)
(-0.213419 -0.00697224 0)
(-0.208394 -0.00969056 0)
(-0.202376 -0.0124579 0)
(-0.195339 -0.0152463 0)
(-0.187275 -0.01804 0)
(-0.178173 -0.0208052 0)
(-0.168044 -0.0234996 0)
(-0.156909 -0.0260635 0)
(-0.144815 -0.0284264 0)
(-0.131848 -0.0305191 0)
(-0.118102 -0.0322452 0)
(-0.103701 -0.0335122 0)
(-0.0888388 -0.0342266 0)
(-0.0737352 -0.0343 0)
(-0.0586225 -0.0336585 0)
(-0.0437895 -0.0322749 0)
(-0.0295409 -0.0301561 0)
(-0.0161461 -0.0272938 0)
(-0.00383584 -0.0237304 0)
(0.00713994 -0.019541 0)
(0.0165694 -0.0148441 0)
(0.0243173 -0.00979225 0)
(0.0302697 -0.00456952 0)
(0.0344106 0.000599891 0)
(0.0366995 0.00548118 0)
(0.0370028 0.00972775 0)
(0.0352365 0.0130969 0)
(0.0317383 0.0153031 0)
(0.0265567 0.0158049 0)
(0.019897 0.0146841 0)
(0.0126527 0.0120183 0)
(0.00591134 0.00793181 0)
(0.000788147 0.0029286 0)
(0.000437315 -0.00366506 0)
(0.00434755 -0.00968782 0)
(0.00876783 -0.0120282 0)
(0.012299 -0.0114762 0)
(0.0148314 -0.00934038 0)
(0.0163661 -0.00656674 0)
(0.0170074 -0.00373133 0)
(0.0168491 -0.00117708 0)
(0.0159719 0.000899224 0)
(0.0144317 0.00243112 0)
(0.0122259 0.00350456 0)
(0.00933033 0.00431168 0)
(0.00569276 0.005088 0)
(0.00124163 0.00603702 0)
(-0.00409696 0.00727828 0)
(-0.0104266 0.00886376 0)
(-0.0178686 0.0108094 0)
(-0.0265414 0.0131188 0)
(-0.0365227 0.0157809 0)
(-0.0478213 0.0187587 0)
(-0.0603442 0.0219536 0)
(-0.0738844 0.0252162 0)
(-0.088146 0.0283674 0)
(-0.102757 0.0312381 0)
(-0.117418 0.0337328 0)
(-0.131779 0.0356631 0)
(-0.145549 0.036938 0)
(-0.158448 0.0375798 0)
(-0.170321 0.0376514 0)
(-0.181134 0.0372017 0)
(-0.190866 0.0362874 0)
(-0.199578 0.0349486 0)
(-0.207313 0.033226 0)
(-0.214142 0.0311894 0)
(-0.220105 0.0288871 0)
(-0.225266 0.026374 0)
(-0.229653 0.023692 0)
(-0.233295 0.0208836 0)
(-0.236211 0.017972 0)
(-0.23841 0.0149779 0)
(-0.239896 0.0119124 0)
(-0.240662 0.00878128 0)
(-0.240699 0.0055846 0)
(-0.239992 0.00232074 0)
(-0.238524 -0.00101159 0)
(-0.236263 -0.00442124 0)
(-0.233182 -0.00791108 0)
(-0.229254 -0.0114918 0)
(-0.224448 -0.0151459 0)
(-0.218731 -0.0188676 0)
(-0.212076 -0.0226345 0)
(-0.204457 -0.0264234 0)
(-0.195853 -0.0301946 0)
(-0.186251 -0.033892 0)
(-0.175648 -0.0374344 0)
(-0.164066 -0.0407248 0)
(-0.151554 -0.0436676 0)
(-0.138192 -0.0461467 0)
(-0.124079 -0.0480205 0)
(-0.109357 -0.0491494 0)
(-0.0942244 -0.0494156 0)
(-0.0788971 -0.0487081 0)
(-0.063641 -0.0469624 0)
(-0.0487774 -0.0441522 0)
(-0.0346516 -0.0403525 0)
(-0.0215131 -0.0356251 0)
(-0.00959513 -0.0300607 0)
(0.000886654 -0.0238213 0)
(0.00978069 -0.0171209 0)
(0.0169822 -0.0101983 0)
(0.0224469 -0.00329948 0)
(0.0261891 0.00334592 0)
(0.0282618 0.00943062 0)
(0.0286562 0.0145502 0)
(0.0272506 0.0183615 0)
(0.0240898 0.0205644 0)
(0.0193409 0.0207232 0)
(0.013413 0.0186933 0)
(0.00698502 0.0142783 0)
(0.00108597 0.00673654 0)
(0.00072572 -0.00623011 0)
(0.00502923 -0.0141121 0)
(0.00890394 -0.015823 0)
(0.0115464 -0.0141359 0)
(0.0131048 -0.0108992 0)
(0.0136579 -0.00717582 0)
(0.0133552 -0.00351462 0)
(0.0122827 -0.000220671 0)
(0.0104761 0.00255433 0)
(0.00792064 0.00480003 0)
(0.00455087 0.00663662 0)
(0.000277374 0.00828067 0)
(-0.00499334 0.00997841 0)
(-0.01135 0.0119351 0)
(-0.018875 0.0142804 0)
(-0.0276464 0.0170717 0)
(-0.0377222 0.0203142 0)
(-0.0491189 0.0239708 0)
(-0.0617665 0.0279386 0)
(-0.0754825 0.0320685 0)
(-0.0899699 0.036131 0)
(-0.10487 0.0399282 0)
(-0.119819 0.0433188 0)
(-0.134509 0.0460227 0)
(-0.148554 0.0479176 0)
(-0.161643 0.0490214 0)
(-0.173693 0.0493567 0)
(-0.18465 0.0489842 0)
(-0.194566 0.048009 0)
(-0.203484 0.0465256 0)
(-0.211467 0.0446151 0)
(-0.218603 0.0423449 0)
(-0.224937 0.039766 0)
(-0.230531 0.0369306 0)
(-0.235432 0.0338812 0)
(-0.239684 0.030659 0)
(-0.243308 0.0272982 0)
(-0.24633 0.0238289 0)
(-0.248763 0.0202658 0)
(-0.250607 0.0166227 0)
(-0.251861 0.0129033 0)
(-0.252517 0.00910916 0)
(-0.252561 0.0052318 0)
(-0.251973 0.00126578 0)
(-0.250739 -0.00279171 0)
(-0.248821 -0.00695401 0)
(-0.246189 -0.0112286 0)
(-0.242808 -0.0156224 0)
(-0.238649 -0.0201338 0)
(-0.233657 -0.0247482 0)
(-0.227795 -0.0294444 0)
(-0.221022 -0.034197 0)
(-0.213299 -0.03896 0)
(-0.204589 -0.0436681 0)
(-0.19487 -0.0482261 0)
(-0.184122 -0.052509 0)
(-0.172368 -0.0563989 0)
(-0.159652 -0.0597512 0)
(-0.146044 -0.0623833 0)
(-0.13165 -0.0641189 0)
(-0.116636 -0.0648011 0)
(-0.101191 -0.0642582 0)
(-0.0855758 -0.062389 0)
(-0.0700377 -0.0591322 0)
(-0.0549578 -0.054529 0)
(-0.0407428 -0.0487161 0)
(-0.027643 -0.0418326 0)
(-0.0158902 -0.0340913 0)
(-0.00568328 -0.0257517 0)
(0.00283939 -0.0171169 0)
(0.00961519 -0.00849628 0)
(0.0146616 -0.000178893 0)
(0.0180499 0.00753443 0)
(0.019851 0.0143209 0)
(0.0200787 0.0198112 0)
(0.018738 0.023564 0)
(0.0158377 0.0251345 0)
(0.0115916 0.0242069 0)
(0.00636227 0.0201657 0)
(0.000960834 0.0105807 0)
(0.00104305 -0.00919309 0)
(0.00520915 -0.0181566 0)
(0.00810512 -0.0186291 0)
(0.00961189 -0.0157415 0)
(0.0100925 -0.0114064 0)
(0.00960702 -0.00678196 0)
(0.00829964 -0.00232452 0)
(0.00621319 0.00172557 0)
(0.0033284 0.00527606 0)
(-0.000425556 0.00836647 0)
(-0.0051565 0.0111509 0)
(-0.0109803 0.0138557 0)
(-0.0179992 0.0167164 0)
(-0.0262937 0.0199211 0)
(-0.0359172 0.0235795 0)
(-0.0468818 0.0277138 0)
(-0.059137 0.0322655 0)
(-0.0725504 0.0371326 0)
(-0.0868891 0.042081 0)
(-0.101784 0.0468542 0)
(-0.116884 0.0512801 0)
(-0.131836 0.0550059 0)
(-0.146177 0.0578432 0)
(-0.159557 0.0597324 0)
(-0.171839 0.060637 0)
(-0.183035 0.0606483 0)
(-0.193196 0.0598944 0)
(-0.20239 0.0585047 0)
(-0.210707 0.0565915 0)
(-0.218202 0.0542421 0)
(-0.224948 0.0515326 0)
(-0.231 0.0485174 0)
(-0.236403 0.0452483 0)
(-0.241208 0.041769 0)
(-0.245449 0.0381134 0)
(-0.249153 0.0343113 0)
(-0.252336 0.0303884 0)
(-0.255012 0.0263719 0)
(-0.257191 0.0222703 0)
(-0.258877 0.0180894 0)
(-0.260067 0.0138282 0)
(-0.260757 0.00948435 0)
(-0.260943 0.00504064 0)
(-0.26061 0.000481452 0)
(-0.259767 -0.0042175 0)
(-0.258369 -0.00905864 0)
(-0.256381 -0.0140468 0)
(-0.253762 -0.0191836 0)
(-0.25047 -0.0244751 0)
(-0.246461 -0.0299151 0)
(-0.241665 -0.0354753 0)
(-0.236017 -0.0411253 0)
(-0.229444 -0.0468071 0)
(-0.221887 -0.0524567 0)
(-0.213365 -0.0580271 0)
(-0.203783 -0.063357 0)
(-0.193089 -0.0682782 0)
(-0.181312 -0.0726282 0)
(-0.168481 -0.0761842 0)
(-0.154642 -0.0787257 0)
(-0.139956 -0.0800559 0)
(-0.124546 -0.079945 0)
(-0.108676 -0.0782708 0)
(-0.0925958 -0.0748731 0)
(-0.0766106 -0.0697466 0)
(-0.061152 -0.063016 0)
(-0.0466653 -0.0549421 0)
(-0.0334146 -0.0457647 0)
(-0.0216584 -0.0357999 0)
(-0.011597 -0.0254249 0)
(-0.00334509 -0.0150325 0)
(0.00308277 -0.00499716 0)
(0.00776111 0.00434455 0)
(0.0108212 0.0126744 0)
(0.0123753 0.0196691 0)
(0.0124776 0.0249029 0)
(0.0111344 0.0278996 0)
(0.00844577 0.0281917 0)
(0.00475048 0.0248511 0)
(0.000585419 0.0137671 0)
(0.00129566 -0.0122926 0)
(0.00482844 -0.0213058 0)
(0.00640297 -0.0203259 0)
(0.00678299 -0.0161418 0)
(0.00610172 -0.0108137 0)
(0.00454457 -0.00534028 0)
(0.00217646 -8.53639e-05 0)
(-0.00101336 0.00477829 0)
(-0.005093 0.0092122 0)
(-0.0101684 0.0132934 0)
(-0.0163607 0.0171912 0)
(-0.0237818 0.0211228 0)
(-0.0325161 0.0252961 0)
(-0.0426065 0.0298605 0)
(-0.0540419 0.0348735 0)
(-0.0667281 0.0402884 0)
(-0.0805138 0.0459649 0)
(-0.0950925 0.0516528 0)
(-0.110073 0.0571305 0)
(-0.125119 0.0620264 0)
(-0.139757 0.0660648 0)
(-0.153508 0.0690432 0)
(-0.166174 0.0708815 0)
(-0.177731 0.0716342 0)
(-0.188244 0.0714423 0)
(-0.197783 0.0704454 0)
(-0.206437 0.0687739 0)
(-0.214291 0.0665501 0)
(-0.221417 0.0638712 0)
(-0.227865 0.0608179 0)
(-0.233688 0.0574557 0)
(-0.238923 0.0538319 0)
(-0.24361 0.0499907 0)
(-0.247782 0.0459682 0)
(-0.251465 0.0417959 0)
(-0.254678 0.0375011 0)
(-0.257434 0.0331103 0)
(-0.259738 0.0286429 0)
(-0.261606 0.0241008 0)
(-0.263038 0.0194884 0)
(-0.264066 0.0147412 0)
(-0.26467 0.00993281 0)
(-0.264842 0.0050237 0)
(-0.264573 3.60676e-06 0)
(-0.263846 -0.00515803 0)
(-0.262701 -0.0104695 0)
(-0.261119 -0.0159618 0)
(-0.259102 -0.0216634 0)
(-0.256619 -0.0276042 0)
(-0.25365 -0.0337818 0)
(-0.250121 -0.0401445 0)
(-0.245952 -0.0466835 0)
(-0.241056 -0.0533585 0)
(-0.235323 -0.0600962 0)
(-0.228555 -0.0667521 0)
(-0.22065 -0.0731624 0)
(-0.211476 -0.079135 0)
(-0.201077 -0.0845479 0)
(-0.18952 -0.0892158 0)
(-0.176677 -0.0927849 0)
(-0.162737 -0.0950413 0)
(-0.147715 -0.0956572 0)
(-0.131902 -0.0944741 0)
(-0.115486 -0.0912811 0)
(-0.0988054 -0.0860075 0)
(-0.0821956 -0.0786793 0)
(-0.0662052 -0.0695748 0)
(-0.0513204 -0.0590673 0)
(-0.0378237 -0.0475093 0)
(-0.0259988 -0.0353503 0)
(-0.0160465 -0.0230842 0)
(-0.00805419 -0.0111977 0)
(-0.00198903 -0.000120135 0)
(0.00230831 0.00979864 0)
(0.00503601 0.0182534 0)
(0.00633626 0.0248791 0)
(0.0062932 0.02923 0)
(0.00496859 0.0306952 0)
(0.00275405 0.0280636 0)
(0.000114649 0.0158044 0)
(0.00139113 -0.0151784 0)
(0.00378641 -0.0232924 0)
(0.00411562 -0.0207671 0)
(0.00324608 -0.0153191 0)
(0.0014116 -0.00910325 0)
(-0.0012453 -0.00281229 0)
(-0.00472543 0.00327041 0)
(-0.0090867 0.00902605 0)
(-0.0144296 0.0144525 0)
(-0.0208696 0.0196454 0)
(-0.0285175 0.0247706 0)
(-0.0374593 0.0300184 0)
(-0.0477368 0.0355502 0)
(-0.0593316 0.0414489 0)
(-0.0721459 0.0477051 0)
(-0.0859958 0.0541689 0)
(-0.100538 0.0605809 0)
(-0.115412 0.0666646 0)
(-0.130171 0.0720388 0)
(-0.144317 0.0763949 0)
(-0.15747 0.0795107 0)
(-0.16953 0.0813756 0)
(-0.180515 0.082097 0)
(-0.190485 0.081825 0)
(-0.199534 0.0806962 0)
(-0.207747 0.0788534 0)
(-0.215211 0.0764176 0)
(-0.221989 0.0734962 0)
(-0.228131 0.0701713 0)
(-0.233674 0.0665146 0)
(-0.238656 0.0625833 0)
(-0.243104 0.0584246 0)
(-0.247047 0.0540809 0)
(-0.250505 0.0495905 0)
(-0.253491 0.0449923 0)
(-0.256011 0.04032 0)
(-0.258181 0.0354965 0)
(-0.259996 0.0305922 0)
(-0.261463 0.0256076 0)
(-0.262581 0.0205442 0)
(-0.26334 0.0154509 0)
(-0.26375 0.0102454 0)
(-0.263812 0.0049419 0)
(-0.263535 -0.000481901 0)
(-0.262914 -0.00603489 0)
(-0.261977 -0.0117343 0)
(-0.260704 -0.0176046 0)
(-0.259092 -0.0236579 0)
(-0.257121 -0.0299017 0)
(-0.254764 -0.0363779 0)
(-0.252015 -0.0431552 0)
(-0.248841 -0.0502124 0)
(-0.245202 -0.0575355 0)
(-0.241039 -0.0650938 0)
(-0.23627 -0.0728529 0)
(-0.230777 -0.0806064 0)
(-0.224274 -0.088103 0)
(-0.216425 -0.0950383 0)
(-0.206903 -0.10097 0)
(-0.19573 -0.105705 0)
(-0.18325 -0.109206 0)
(-0.169248 -0.110907 0)
(-0.154041 -0.110628 0)
(-0.137764 -0.108055 0)
(-0.120764 -0.103072 0)
(-0.103348 -0.0956233 0)
(-0.0859761 -0.0858067 0)
(-0.0693589 -0.0741212 0)
(-0.0540028 -0.0610724 0)
(-0.0402301 -0.0471299 0)
(-0.0283493 -0.0328903 0)
(-0.0185561 -0.0189719 0)
(-0.0108996 -0.0059458 0)
(-0.00526547 0.00573191 0)
(-0.00141685 0.0157136 0)
(0.00092441 0.0237119 0)
(0.00195802 0.0293226 0)
(0.00182893 0.0318801 0)
(0.000871244 0.0297696 0)
(-0.000270732 0.0166012 0)
(0.00129047 -0.0175477 0)
(0.00232287 -0.023976 0)
(0.00133432 -0.019841 0)
(-0.000766568 -0.0133338 0)
(-0.00373936 -0.00627337 0)
(-0.00751402 0.000835984 0)
(-0.0121366 0.00779108 0)
(-0.0176986 0.0145124 0)
(-0.0243099 0.0210154 0)
(-0.032075 0.0273941 0)
(-0.0410765 0.0337921 0)
(-0.0513564 0.0403552 0)
(-0.0628937 0.0471775 0)
(-0.0756123 0.0542761 0)
(-0.0893176 0.0615243 0)
(-0.103638 0.0686585 0)
(-0.118224 0.075342 0)
(-0.1326 0.0812105 0)
(-0.146225 0.0859075 0)
(-0.158875 0.0892642 0)
(-0.17044 0.0912765 0)
(-0.18095 0.0920863 0)
(-0.190472 0.0918222 0)
(-0.199103 0.0906513 0)
(-0.206925 0.0887104 0)
(-0.214018 0.0861339 0)
(-0.220439 0.0830252 0)
(-0.226232 0.079477 0)
(-0.23143 0.0755625 0)
(-0.236066 0.071348 0)
(-0.240167 0.0668884 0)
(-0.243762 0.0622325 0)
(-0.246875 0.0574244 0)
(-0.249555 0.0524781 0)
(-0.251864 0.0474121 0)
(-0.253825 0.0422544 0)
(-0.255403 0.0370869 0)
(-0.256606 0.0318616 0)
(-0.257454 0.0265769 0)
(-0.257968 0.0212291 0)
(-0.258193 0.015816 0)
(-0.258163 0.0103189 0)
(-0.257904 0.00473457 0)
(-0.257442 -0.000958642 0)
(-0.25679 -0.00677777 0)
(-0.255915 -0.0127526 0)
(-0.254843 -0.0189141 0)
(-0.253568 -0.0252908 0)
(-0.252088 -0.0319069 0)
(-0.250392 -0.0387796 0)
(-0.248463 -0.0459191 0)
(-0.246268 -0.0533284 0)
(-0.243759 -0.0609965 0)
(-0.240874 -0.0688839 0)
(-0.237517 -0.0769155 0)
(-0.233602 -0.0851788 0)
(-0.229109 -0.0936161 0)
(-0.22385 -0.102 0)
(-0.217574 -0.109913 0)
(-0.209796 -0.116825 0)
(-0.199737 -0.121896 0)
(-0.187651 -0.125014 0)
(-0.173889 -0.126101 0)
(-0.158468 -0.12466 0)
(-0.141745 -0.120488 0)
(-0.124076 -0.113476 0)
(-0.105791 -0.103545 0)
(-0.087558 -0.0910172 0)
(-0.0702288 -0.0765964 0)
(-0.0543735 -0.0609547 0)
(-0.0403548 -0.0446961 0)
(-0.028501 -0.0285776 0)
(-0.018988 -0.0133398 0)
(-0.0118006 0.000379939 0)
(-0.00672365 0.0121122 0)
(-0.00339568 0.0215598 0)
(-0.0014643 0.0283867 0)
(-0.00061558 0.0318678 0)
(-0.000469039 0.0301755 0)
(-0.000391362 0.0164569 0)
(0.00103503 -0.0188589 0)
(0.000580594 -0.0232478 0)
(-0.00174888 -0.017613 0)
(-0.0050281 -0.010182 0)
(-0.00912998 -0.00231712 0)
(-0.0140272 0.00562104 0)
(-0.0197927 0.0134874 0)
(-0.0265341 0.0212247 0)
(-0.0343533 0.0288461 0)
(-0.0433286 0.0364248 0)
(-0.0535009 0.0440644 0)
(-0.0648527 0.0518491 0)
(-0.0773238 0.0598131 0)
(-0.0907422 0.0678599 0)
(-0.104741 0.0757184 0)
(-0.118928 0.0830437 0)
(-0.132857 0.0894616 0)
(-0.146045 0.0945959 0)
(-0.158258 0.0982983 0)
(-0.169417 0.100591 0)
(-0.17952 0.101569 0)
(-0.18866 0.101406 0)
(-0.196915 0.100262 0)
(-0.204373 0.0982926 0)
(-0.211098 0.0956253 0)
(-0.217143 0.0923763 0)
(-0.222545 0.0886364 0)
(-0.227339 0.08449 0)
(-0.231557 0.0800074 0)
(-0.23523 0.0752532 0)
(-0.238393 0.0702823 0)
(-0.241083 0.0651429 0)
(-0.24334 0.0598748 0)
(-0.245186 0.0545245 0)
(-0.246627 0.0491162 0)
(-0.247717 0.043648 0)
(-0.248466 0.0381405 0)
(-0.248939 0.0325884 0)
(-0.249176 0.0270072 0)
(-0.249221 0.0213982 0)
(-0.249072 0.0157574 0)
(-0.248752 0.0100647 0)
(-0.248277 0.00430536 0)
(-0.247663 -0.00154507 0)
(-0.246914 -0.00750946 0)
(-0.24604 -0.0136216 0)
(-0.24506 -0.0199082 0)
(-0.24398 -0.0264025 0)
(-0.24281 -0.033136 0)
(-0.241552 -0.0401421 0)
(-0.240205 -0.0474508 0)
(-0.238759 -0.0550853 0)
(-0.237192 -0.0630586 0)
(-0.23546 -0.071361 0)
(-0.233491 -0.0799478 0)
(-0.231193 -0.0887325 0)
(-0.228449 -0.0975978 0)
(-0.22508 -0.106377 0)
(-0.220916 -0.115128 0)
(-0.215872 -0.123636 0)
(-0.209531 -0.131255 0)
(-0.201244 -0.137134 0)
(-0.190018 -0.140086 0)
(-0.176491 -0.140349 0)
(-0.160894 -0.137577 0)
(-0.143697 -0.131642 0)
(-0.125212 -0.122306 0)
(-0.105964 -0.109661 0)
(-0.0867812 -0.094222 0)
(-0.0686954 -0.0769522 0)
(-0.0523693 -0.0587236 0)
(-0.0382027 -0.0402968 0)
(-0.026529 -0.0226005 0)
(-0.017475 -0.00648839 0)
(-0.0109274 0.00735555 0)
(-0.00652276 0.0184901 0)
(-0.00375128 0.0266055 0)
(-0.00216519 0.0308673 0)
(-0.00117767 0.029607 0)
(-0.000369117 0.0158507 0)
(0.000707502 -0.0191834 0)
(-0.00133805 -0.021108 0)
(-0.00493573 -0.0141575 0)
(-0.00935555 -0.0058758 0)
(-0.0145697 0.00275977 0)
(-0.0205641 0.0115276 0)
(-0.0274323 0.0203241 0)
(-0.0352804 0.0290924 0)
(-0.0441894 0.0378232 0)
(-0.0542005 0.0465524 0)
(-0.0653021 0.0553291 0)
(-0.077447 0.0641861 0)
(-0.0904909 0.0730559 0)
(-0.104098 0.081674 0)
(-0.117859 0.0896847 0)
(-0.131342 0.0967147 0)
(-0.144142 0.102412 0)
(-0.155991 0.10659 0)
(-0.166797 0.109258 0)
(-0.176565 0.110514 0)
(-0.185362 0.110532 0)
(-0.19328 0.109491 0)
(-0.200386 0.107547 0)
(-0.206742 0.104839 0)
(-0.21239 0.101482 0)
(-0.217368 0.0975789 0)
(-0.221706 0.0932179 0)
(-0.225441 0.0884826 0)
(-0.22861 0.0834461 0)
(-0.231256 0.0781756 0)
(-0.233421 0.0727286 0)
(-0.235151 0.0671544 0)
(-0.23649 0.0614916 0)
(-0.237478 0.0557722 0)
(-0.238159 0.0500189 0)
(-0.238581 0.0442478 0)
(-0.238776 0.0384775 0)
(-0.23878 0.0327101 0)
(-0.238618 0.0269454 0)
(-0.23831 0.0211742 0)
(-0.23787 0.0153858 0)
(-0.237314 0.00956198 0)
(-0.236656 0.00368445 0)
(-0.235911 -0.00226998 0)
(-0.235087 -0.0083247 0)
(-0.234199 -0.0145118 0)
(-0.233263 -0.0208595 0)
(-0.232293 -0.0274001 0)
(-0.231303 -0.0341663 0)
(-0.230307 -0.0411927 0)
(-0.229316 -0.0485134 0)
(-0.228339 -0.0561601 0)
(-0.227378 -0.0641596 0)
(-0.226416 -0.0725302 0)
(-0.22542 -0.0812773 0)
(-0.224333 -0.0903855 0)
(-0.223059 -0.0997857 0)
(-0.221453 -0.109335 0)
(-0.219328 -0.118805 0)
(-0.216438 -0.127924 0)
(-0.212464 -0.136574 0)
(-0.207279 -0.144602 0)
(-0.20026 -0.150873 0)
(-0.190329 -0.15412 0)
(-0.17704 -0.153416 0)
(-0.16133 -0.149301 0)
(-0.143508 -0.14133 0)
(-0.124092 -0.12943 0)
(-0.103791 -0.113845 0)
(-0.0836164 -0.095318 0)
(-0.0648037 -0.0751325 0)
(-0.0481179 -0.054392 0)
(-0.0339893 -0.0340499 0)
(-0.0227225 -0.0152098 0)
(-0.0143539 0.00117688 0)
(-0.00862027 0.0144168 0)
(-0.00493039 0.0240717 0)
(-0.00275984 0.0291774 0)
(-0.00126426 0.0284415 0)
(-0.000198678 0.0150147 0)
(0.000117109 -0.0183125 0)
(-0.0033471 -0.0176223 0)
(-0.00810388 -0.0094919 0)
(-0.0136103 -0.000453756 0)
(-0.019888 0.00891634 0)
(-0.0269206 0.0185023 0)
(-0.0348086 0.0282206 0)
(-0.0436462 0.0379938 0)
(-0.0534834 0.0477743 0)
(-0.0643168 0.0575478 0)
(-0.0761086 0.0673178 0)
(-0.0887419 0.0770341 0)
(-0.101923 0.0864481 0)
(-0.115254 0.0952046 0)
(-0.128323 0.10293 0)
(-0.140774 0.109293 0)
(-0.152326 0.114077 0)
(-0.162838 0.117231 0)
(-0.172323 0.118871 0)
(-0.18083 0.119161 0)
(-0.18844 0.118294 0)
(-0.19522 0.116436 0)
(-0.201218 0.113729 0)
(-0.206476 0.110298 0)
(-0.211027 0.106253 0)
(-0.21491 0.101696 0)
(-0.218165 0.0967186 0)
(-0.220842 0.0914092 0)
(-0.222995 0.0858456 0)
(-0.224679 0.0800976 0)
(-0.225952 0.0742238 0)
(-0.226867 0.0682721 0)
(-0.227477 0.0622795 0)
(-0.227829 0.0562753 0)
(-0.227966 0.0502802 0)
(-0.227924 0.0443084 0)
(-0.22773 0.0383686 0)
(-0.227407 0.0324564 0)
(-0.226971 0.0265655 0)
(-0.226435 0.0206841 0)
(-0.225812 0.0147977 0)
(-0.225113 0.00888876 0)
(-0.224349 0.00293772 0)
(-0.223531 -0.00307767 0)
(-0.22267 -0.00918134 0)
(-0.221777 -0.015402 0)
(-0.220869 -0.021768 0)
(-0.21996 -0.0283105 0)
(-0.21907 -0.0350616 0)
(-0.218216 -0.0420558 0)
(-0.21742 -0.0493278 0)
(-0.216698 -0.0569117 0)
(-0.216067 -0.0648391 0)
(-0.215536 -0.0731373 0)
(-0.215101 -0.0818276 0)
(-0.214743 -0.0909202 0)
(-0.214415 -0.100404 0)
(-0.214028 -0.110232 0)
(-0.213441 -0.1203 0)
(-0.212439 -0.130384 0)
(-0.210738 -0.140115 0)
(-0.207965 -0.149046 0)
(-0.203697 -0.157075 0)
(-0.197603 -0.163555 0)
(-0.188663 -0.166829 0)
(-0.175692 -0.165333 0)
(-0.159749 -0.159687 0)
(-0.141152 -0.14943 0)
(-0.12069 -0.134699 0)
(-0.0992675 -0.115929 0)
(-0.0781356 -0.0941621 0)
(-0.0587288 -0.0710546 0)
(-0.0419117 -0.0479832 0)
(-0.0281137 -0.0261322 0)
(-0.0175581 -0.00677847 0)
(-0.0101375 0.0090808 0)
(-0.00531854 0.0207263 0)
(-0.00254678 0.0270719 0)
(-0.000831054 0.0271161 0)
(5.78396e-05 0.0144211 0)
(-0.000471402 -0.0161845 0)
(-0.00530572 -0.0128393 0)
(-0.0111331 -0.00370075 0)
(-0.017658 0.00601463 0)
(-0.0249248 0.0160786 0)
(-0.032906 0.0264552 0)
(-0.0416994 0.0370575 0)
(-0.0513786 0.0477712 0)
(-0.061957 0.0584986 0)
(-0.0734046 0.0691803 0)
(-0.0856272 0.0797555 0)
(-0.0983769 0.08999 0)
(-0.111289 0.0995478 0)
(-0.123985 0.108052 0)
(-0.136126 0.115178 0)
(-0.147435 0.120684 0)
(-0.157727 0.124457 0)
(-0.166982 0.126588 0)
(-0.175252 0.127252 0)
(-0.1826 0.126637 0)
(-0.189089 0.124928 0)
(-0.194765 0.122273 0)
(-0.199664 0.118808 0)
(-0.203826 0.114655 0)
(-0.207293 0.109927 0)
(-0.210116 0.104733 0)
(-0.212358 0.0991729 0)
(-0.214084 0.0933404 0)
(-0.215363 0.0873161 0)
(-0.216262 0.0811693 0)
(-0.21684 0.0749556 0)
(-0.217156 0.0687183 0)
(-0.217256 0.0624892 0)
(-0.217183 0.0562908 0)
(-0.21697 0.0501368 0)
(-0.21664 0.0440338 0)
(-0.216213 0.0379816 0)
(-0.215703 0.0319729 0)
(-0.21512 0.0259976 0)
(-0.214472 0.0200424 0)
(-0.213766 0.0140916 0)
(-0.213009 0.00812714 0)
(-0.212208 0.00212954 0)
(-0.21137 -0.0039227 0)
(-0.210504 -0.0100526 0)
(-0.209622 -0.0162857 0)
(-0.208737 -0.0226488 0)
(-0.207865 -0.0291704 0)
(-0.207025 -0.0358809 0)
(-0.206239 -0.0428126 0)
(-0.205532 -0.0499996 0)
(-0.204927 -0.0574766 0)
(-0.20445 -0.0652785 0)
(-0.204122 -0.0734388 0)
(-0.203959 -0.0819876 0)
(-0.203966 -0.0909473 0)
(-0.204132 -0.100327 0)
(-0.204418 -0.110116 0)
(-0.204749 -0.120276 0)
(-0.204986 -0.130713 0)
(-0.204913 -0.141249 0)
(-0.204211 -0.151535 0)
(-0.202467 -0.16099 0)
(-0.199123 -0.168982 0)
(-0.19367 -0.175358 0)
(-0.185287 -0.17839 0)
(-0.172541 -0.176061 0)
(-0.156159 -0.16863 0)
(-0.136632 -0.155793 0)
(-0.115012 -0.137901 0)
(-0.092458 -0.115677 0)
(-0.0705086 -0.0905468 0)
(-0.0507862 -0.06462 0)
(-0.0342132 -0.0395585 0)
(-0.0211613 -0.0168443 0)
(-0.0117101 0.00215773 0)
(-0.00547341 0.0164009 0)
(-0.00194766 0.0246216 0)
(-0.000123593 0.0259111 0)
(0.000355851 0.0143152 0)
(-0.0010636 -0.0128836 0)
(-0.00714093 -0.00687583 0)
(-0.0139309 0.00313587 0)
(-0.0213821 0.0134477 0)
(-0.029543 0.0241532 0)
(-0.0383593 0.0352708 0)
(-0.0479207 0.0466909 0)
(-0.0582761 0.0582486 0)
(-0.0694108 0.0697971 0)
(-0.0812487 0.0812216 0)
(-0.0935826 0.0922838 0)
(-0.106101 0.10268 0)
(-0.118464 0.112035 0)
(-0.130338 0.120013 0)
(-0.141451 0.126347 0)
(-0.151589 0.13087 0)
(-0.160684 0.133617 0)
(-0.168775 0.134759 0)
(-0.17592 0.134492 0)
(-0.182173 0.133004 0)
(-0.18758 0.130465 0)
(-0.192179 0.127019 0)
(-0.196011 0.122801 0)
(-0.199127 0.117942 0)
(-0.201591 0.112564 0)
(-0.203474 0.106787 0)
(-0.204856 0.100716 0)
(-0.205814 0.0944457 0)
(-0.206422 0.0880547 0)
(-0.206747 0.081606 0)
(-0.206847 0.0751479 0)
(-0.206771 0.0687152 0)
(-0.206558 0.0623313 0)
(-0.206238 0.0560101 0)
(-0.205834 0.0497573 0)
(-0.205361 0.0435725 0)
(-0.20483 0.0374502 0)
(-0.204248 0.0313805 0)
(-0.203619 0.0253506 0)
(-0.202946 0.0193456 0)
(-0.202231 0.0133497 0)
(-0.201478 0.00734524 0)
(-0.200689 0.00131311 0)
(-0.19987 -0.00476672 0)
(-0.199026 -0.0109153 0)
(-0.198167 -0.0171554 0)
(-0.197305 -0.0235109 0)
(-0.196457 -0.0300071 0)
(-0.195639 -0.0366713 0)
(-0.194876 -0.0435328 0)
(-0.194192 -0.0506227 0)
(-0.193617 -0.0579746 0)
(-0.193181 -0.0656236 0)
(-0.192913 -0.0736063 0)
(-0.192843 -0.081959 0)
(-0.19299 -0.0907152 0)
(-0.193365 -0.0999006 0)
(-0.193961 -0.109528 0)
(-0.194743 -0.119586 0)
(-0.195635 -0.130031 0)
(-0.196506 -0.140768 0)
(-0.197139 -0.151627 0)
(-0.197203 -0.162299 0)
(-0.196233 -0.172209 0)
(-0.193633 -0.180499 0)
(-0.18863 -0.186475 0)
(-0.180428 -0.18895 0)
(-0.16765 -0.185549 0)
(-0.150582 -0.176004 0)
(-0.129963 -0.160176 0)
(-0.107112 -0.138735 0)
(-0.0834991 -0.112748 0)
(-0.0610332 -0.0842048 0)
(-0.0414534 -0.0557355 0)
(-0.02568 -0.0292936 0)
(-0.0139293 -0.00662684 0)
(-0.00599941 0.0108595 0)
(-0.0014929 0.0216984 0)
(0.000561493 0.0248589 0)
(0.000565471 0.0146608 0)
(-0.00162522 -0.00848088 0)
(-0.00878599 0.000146875 0)
(-0.0164277 0.0109118 0)
(-0.0247023 0.0217412 0)
(-0.0336379 0.033025 0)
(-0.0431564 0.0448157 0)
(-0.0533356 0.056964 0)
(-0.064198 0.0692537 0)
(-0.0756922 0.0814728 0)
(-0.0876399 0.0933492 0)
(-0.0997974 0.104594 0)
(-0.111865 0.114851 0)
(-0.123513 0.123753 0)
(-0.134477 0.13101 0)
(-0.14452 0.136404 0)
(-0.15353 0.139904 0)
(-0.161512 0.141643 0)
(-0.168522 0.141827 0)
(-0.174608 0.140654 0)
(-0.179816 0.138305 0)
(-0.184186 0.134943 0)
(-0.187764 0.130717 0)
(-0.19061 0.125775 0)
(-0.192795 0.120257 0)
(-0.194403 0.1143 0)
(-0.195523 0.108026 0)
(-0.19624 0.101541 0)
(-0.196636 0.094934 0)
(-0.196781 0.0882756 0)
(-0.196734 0.0816189 0)
(-0.196545 0.0750016 0)
(-0.19625 0.0684484 0)
(-0.195879 0.0619734 0)
(-0.195451 0.0555823 0)
(-0.194979 0.0492741 0)
(-0.194471 0.0430429 0)
(-0.193929 0.036879 0)
(-0.193355 0.0307705 0)
(-0.192749 0.0247037 0)
(-0.192109 0.018662 0)
(-0.191435 0.0126295 0)
(-0.190725 0.00659018 0)
(-0.189981 0.000525826 0)
(-0.189204 -0.00558138 0)
(-0.1884 -0.0117507 0)
(-0.187575 -0.0180016 0)
(-0.186741 -0.0243549 0)
(-0.185911 -0.0308322 0)
(-0.185102 -0.037457 0)
(-0.184337 -0.0442546 0)
(-0.183642 -0.0512527 0)
(-0.183045 -0.0584815 0)
(-0.18258 -0.0659743 0)
(-0.182282 -0.0737675 0)
(-0.182187 -0.0818999 0)
(-0.182327 -0.0904116 0)
(-0.18273 -0.099341 0)
(-0.183409 -0.10872 0)
(-0.184359 -0.118568 0)
(-0.185542 -0.128879 0)
(-0.186881 -0.139604 0)
(-0.188233 -0.150637 0)
(-0.189374 -0.161783 0)