/*--------------------------------*- C++ -*----------------------------------*\
  =========                 |
  \\      /  F ield         | OpenFOAM: The Open Source CFD Toolbox
   \\    /   O peration     | Website:  https://openfoam.org
    \\  /    A nd           | Version:  13
     \\/     M anipulation  |
\*---------------------------------------------------------------------------*/
FoamFile
{
    format      ascii;
    class       volScalarField;
    location    "1";
    object      epsilon;
}
// * * * * * * * * * * * * * * * * * * * * * * * * * * * * * * * * * * * * * //

dimensions      [0 2 -3 0 0 0 0];

internalField   nonuniform List<scalar> 
1600
(
4.96716e-05
0.000207774
0.000383037
0.000526667
0.000639542
0.000727832
0.000796608
0.000849784
0.000890586
0.000921821
0.000945974
0.000965205
0.000981339
0.000995883
0.00101006
0.00102484
0.001041
0.00105914
0.00107971
0.00110299
0.00112904
0.00115768
0.00118835
0.00122001
0.00125115
0.00128101
0.00131414
0.00134439
0.00136438
0.00137304
0.00136387
0.00133014
0.00126801
0.00117369
0.00104469
0.000880311
0.000681553
0.000453875
0.000216073
4.93208e-05
0.00021405
0.000218778
0.000307494
0.000388452
0.000453867
0.000504954
0.000544168
0.000573938
0.000596446
0.000613582
0.000626884
0.000637636
0.000646845
0.00065527
0.000663463
0.000671798
0.000680505
0.000689693
0.000699362
0.000709405
0.000719618
0.000729699
0.000739261
0.000747868
0.000755321
0.000761866
0.000767928
0.00077112
0.000771643
0.000766804
0.000754672
0.000733458
0.000701226
0.000656164
0.000596787
0.000521295
0.000430161
0.000324807
0.000221022
0.000201975
0.000423002
0.000313117
0.000364575
0.000425083
0.000477577
0.000519968
0.000552854
0.000577714
0.00059617
0.000609774
0.000620019
0.000627979
0.000634472
0.000640109
0.000645318
0.000650385
0.000655485
0.000660707
0.000666082
0.0006716
0.000677227
0.00068292
0.000688645
0.000694382
0.00070018
0.000706128
0.000712165
0.000717149
0.000719746
0.000719446
0.000713552
0.000700139
0.000677176
0.000642985
0.000596601
0.000538203
0.000468036
0.000387591
0.000316526
0.000361721
0.000614652
0.000404414
0.000429402
0.000476574
0.0005209
0.000557646
0.000586629
0.000608836
0.000625565
0.000638099
0.000647468
0.000654603
0.000660244
0.000664951
0.000669128
0.000673056
0.000676925
0.000680862
0.000684963
0.000689313
0.000694012
0.000699203
0.000705023
0.000711635
0.000719199
0.000727753
0.000737005
0.000746261
0.000754491
0.000758924
0.000759261
0.000751664
0.000733694
0.000703532
0.000660416
0.000604833
0.000538232
0.000463444
0.000401675
0.00048467
0.000779852
0.000482503
0.000486871
0.000524475
0.000563202
0.000596668
0.00062376
0.000644912
0.000661055
0.000673214
0.000682339
0.000689268
0.000694686
0.000699126
0.000702991
0.000706579
0.000710118
0.000713793
0.000717779
0.000722265
0.000727478
0.000733683
0.000741217
0.000750426
0.000761578
0.000774757
0.000789708
0.000805686
0.000821317
0.000833887
0.000839772
0.000837953
0.000822976
0.000792522
0.000745953
0.000684597
0.000611506
0.000531569
0.000468731
0.000574851
0.000919839
0.000547784
0.00053621
0.000566514
0.000601135
0.000632209
0.00065797
0.000678458
0.000694338
0.000706461
0.000715677
0.000722754
0.000728339
0.000732959
0.00073703
0.000740885
0.000744806
0.000749052
0.000753895
0.000759647
0.000766687
0.000775468
0.000786509
0.000800356
0.000817481
0.00083814
0.000862162
0.000888684
0.000915927
0.000940824
0.000956701
0.000961543
0.000950046
0.000915991
0.000858685
0.000780986
0.000689241
0.000592767
0.000520758
0.000639758
0.00103751
0.000602206
0.000577941
0.000602593
0.00063416
0.000663491
0.000688321
0.000708405
0.00072422
0.000736493
0.000745991
0.000753434
0.000759451
0.000764574
0.000769249
0.00077386
0.000778762
0.000784313
0.000790912
0.000799038
0.000809273
0.000822324
0.000839011
0.000860217
0.000886787
0.000919329
0.000957926
0.00100173
0.00104852
0.00109413
0.00113012
0.00114587
0.0011413
0.00110111
0.00102289
0.000912506
0.000783375
0.000654295
0.000563134
0.000685399
0.00113577
0.000647561
0.000612906
0.000633153
0.000662449
0.000690539
0.000714754
0.000734637
0.000750534
0.000763082
0.000772994
0.000780964
0.000787618
0.000793511
0.000799137
0.000804951
0.00081141
0.000819005
0.000828317
0.000840056
0.000855108
0.000874564
0.000899727
0.000932071
0.000973123
0.00102423
0.00108616
0.00115847
0.00123866
0.00132092
0.00139455
0.00143486
0.00144309
0.00139696
0.00128281
0.00111266
0.000914345
0.000726393
0.000600765
0.000710234
0.00121728
0.00068525
0.000642004
0.000658784
0.000686395
0.000713632
0.000737484
0.000757333
0.000773427
0.000786348
0.000796778
0.000805404
0.000812869
0.000819771
0.000826671
0.000834126
0.000842728
0.000853159
0.000866248
0.000883044
0.000904878
0.000933433
0.000970784
0.0010194
0.00108202
0.00116147
0.00126004
0.00137855
0.00151495
0.00166138
0.00180126
0.00189396
0.00192491
0.00187945
0.00170882
0.00143586
0.00111484
0.000822835
0.000637699
0.000714857
0.00128438
0.00071645
0.000666072
0.000680096
0.000706457
0.000733134
0.000756821
0.000776768
0.000793154
0.000806527
0.00081756
0.000826951
0.000835381
0.000843509
0.000851993
0.000861522
0.000872874
0.000886987
0.000905037
0.000928544
0.000959487
0.00100043
0.00105463
0.00112617
0.00121987
0.00134115
0.00149527
0.00168589
0.00191238
0.00216359
0.0024137
0.00259647
0.00266633
0.00263677
0.00239039
0.00196379
0.00144102
0.000960908
0.000673706
0.000704657
0.0013391
0.000742169
0.00068586
0.000697673
0.000723104
0.000749434
0.000773102
0.000793246
0.000809997
0.000823883
0.000835586
0.000845833
0.00085536
0.000864912
0.00087527
0.000887297
0.000902013
0.000920688
0.000944962
0.000976998
0.00101967
0.00107679
0.00115337
0.00125589
0.00139249
0.00157273
0.00180668
0.00210239
0.00245998
0.00286004
0.00326064
0.00356549
0.00368971
0.00369318
0.00338274
0.00278327
0.00199404
0.00118285
0.000695556
0.000641024
0.00138327
0.000763283
0.000702034
0.000712052
0.000736783
0.000762913
0.000786661
0.000807069
0.000824232
0.000838672
0.000851092
0.000862264
0.000872997
0.000884143
0.000896634
0.000911553
0.000930218
0.00095432
0.000986087
0.00102851
0.00108563
0.00116295
0.00126787
0.00141025
0.00160274
0.00186054
0.00219942
0.00263015
0.0031438
0.00369818
0.00422593
0.00463245
0.00481619
0.0048568
0.004586
0.00391637
0.00290416
0.00164586
0.000722004
0.000494803
0.0014185
0.00078056
0.000715183
0.000723721
0.000747907
0.000773929
0.000797813
0.00081852
0.000836116
0.000851129
0.00086429
0.00087643
0.000888445
0.000901314
0.000916152
0.000934295
0.000957421
0.000987721
0.00102813
0.00108264
0.00115675
0.00125802
0.00139682
0.00158708
0.00184657
0.00219564
0.00265195
0.00321526
0.00384259
0.00445235
0.00496985
0.00537219
0.00560375
0.00569042
0.00561912
0.00518531
0.00424541
0.00262594
0.000916383
0.000367297
0.00144624
0.000794669
0.000725826
0.000733115
0.000756852
0.000782813
0.000806852
0.000827862
0.000845886
0.000861463
0.000875363
0.000888481
0.000901813
0.000916483
0.000933811
0.000955417
0.000983382
0.00102046
0.00107038
0.00113827
0.00123124
0.00135917
0.00153557
0.00177825
0.00210861
0.00254717
0.0030999
0.00372916
0.00434445
0.00486875
0.00531282
0.00570879
0.00602259
0.00624567
0.00633848
0.00627874
0.00581141
0.00444846
0.00175265
0.000434165
0.00146775
0.0008062
0.000734418
0.00074062
0.000763959
0.000789865
0.000814046
0.000835333
0.000853753
0.00086986
0.000884464
0.000898534
0.000913172
0.000929657
0.000949524
0.0009747
0.00100769
0.00105183
0.00111169
0.00119354
0.00130613
0.0014615
0.00167577
0.00196902
0.002362
0.00286599
0.00345772
0.00405647
0.00457616
0.00503126
0.00551211
0.0059806
0.00639164
0.00679766
0.00708343
0.0071944
0.00715812
0.00657579
0.00407971
0.00127517
0.00148419
0.000815668
0.000741361
0.00074658
0.000769532
0.000795358
0.00081964
0.000841153
0.000859911
0.000876484
0.000891728
0.000906684
0.000922563
0.0009408
0.00096315
0.000991839
0.00102979
0.0010809
0.00115053
0.00124599
0.00137741
0.00155841
0.00180643
0.00214085
0.00257632
0.00310561
0.00367143
0.00418041
0.00461378
0.00508383
0.00562058
0.00613995
0.0066723
0.00722147
0.00775087
0.00808438
0.00820231
0.00817089
0.00714305
0.00378914
0.00149656
0.000823522
0.000747002
0.000751296
0.000773841
0.000799537
0.000823855
0.00084552
0.000864534
0.000881486
0.000897275
0.00091301
0.00093001
0.000949859
0.000974515
0.00100648
0.00104905
0.00110663
0.00118519
0.00129286
0.00144063
0.00164277
0.00191617
0.00227639
0.00272711
0.00323797
0.00372668
0.00413962
0.00454489
0.00504533
0.00561424
0.0061675
0.00679221
0.00754821
0.0083051
0.00891833
0.0091766
0.00923838
0.00895263
0.00712262
0.00150579
0.000830153
0.000751644
0.000755033
0.000777127
0.000802625
0.000826895
0.000848619
0.00086779
0.00088501
0.000901218
0.000917591
0.00093554
0.000956783
0.000983455
0.00101829
0.00106488
0.00112798
0.001214
0.00133149
0.00149166
0.00170832
0.00199601
0.00236402
0.00280267
0.00326041
0.00367443
0.00402818
0.00440911
0.00493826
0.00551214
0.00609443
0.00679763
0.00769265
0.00877607
0.00973144
0.0101533
0.0102281
0.00996648
0.00951266
0.00151271
0.000835902
0.000755551
0.000758024
0.000779606
0.00080482
0.000828947
0.000850625
0.000869836
0.000887197
0.000903679
0.000920513
0.000939195
0.000961549
0.000989845
0.00102699
0.00107676
0.00114411
0.00123561
0.00135979
0.00152744
0.00175086
0.00204092
0.00239918
0.00280453
0.00321341
0.00355301
0.00383579
0.00421202
0.00474458
0.005305
0.00588971
0.00665057
0.00770828
0.00907642
0.010509
0.0112596
0.0113859
0.0111196
0.0114352
0.00151807
0.000841064
0.000758952
0.000760472
0.000781467
0.000806305
0.000830185
0.000851703
0.000870827
0.000888183
0.000904771
0.000921872
0.00094104
0.000964173
0.000993631
0.00103241
0.00108435
0.00115444
0.00124911
0.00137648
0.00154626
0.00176834
0.00204952
0.00238849
0.00276413
0.00310962
0.00337238
0.00360779
0.00396382
0.00447261
0.00500302
0.00557346
0.00637
0.00757256
0.00923304
0.0111662
0.012441
0.0126898
0.0122295
0.0132701
0.00152255
0.0008459
0.000762044
0.000762556
0.000782882
0.000807249
0.000830771
0.000851991
0.000870875
0.000888073
0.000904602
0.000921754
0.000941133
0.000964686
0.000994799
0.00103447
0.0010875
0.00115868
0.00125404
0.00138093
0.00154773
0.00176326
0.00203321
0.00235003
0.00267871
0.00296379
0.00316959
0.00335822
0.00367302
0.00413784
0.00463159
0.00518449
0.00600928
0.00734252
0.00929702
0.0117322
0.0136824
0.014195
0.0134718
0.0148942
0.00152682
0.000850641
0.000764998
0.000764435
0.000784003
0.000807795
0.000830838
0.000851682
0.000870279
0.000887238
0.000903584
0.000920639
0.000939998
0.000963593
0.0009938
0.00103356
0.00108655
0.00115736
0.00125161
0.00137603
0.00153793
0.00174349
0.00199353
0.00227778
0.0025647
0.00280354
0.00296304
0.00310386
0.00335932
0.00376503
0.00422243
0.00476474
0.00562261
0.00708101
0.00931437
0.0122205
0.0149185
0.0158325
0.0148521
0.0164481
0.00153151
0.000855503
0.00076796
0.000766251
0.000784966
0.000808084
0.000830571
0.000850915
0.000869033
0.000885574
0.00090157
0.000918343
0.000937487
0.000960918
0.000990956
0.00103042
0.00108277
0.00115219
0.00124368
0.00136288
0.00151549
0.00170562
0.00193286
0.00218645
0.00243729
0.00264079
0.00276761
0.00286444
0.00305167
0.00338674
0.00380681
0.00434826
0.00524722
0.00682283
0.0093122
0.0126635
0.0161215
0.0176003
0.0164101
0.0179269
0.00153726
0.000860681
0.000771072
0.000768125
0.000785897
0.000808248
0.000830066
0.000849794
0.000867363
0.000883401
0.000898934
0.00091527
0.000933977
0.000956917
0.000986307
0.0010248
0.00107558
0.00114237
0.00122945
0.0013415
0.00148293
0.00165649
0.00186058
0.00208487
0.00230467
0.0024825
0.00259034
0.00265601
0.00278001
0.00303767
0.00341725
0.00396412
0.00490959
0.00659011
0.00930093
0.013076
0.0172403
0.0194191
0.0181089
0.0193391
0.00154472
0.00086636
0.000774465
0.000770171
0.000786915
0.000808416
0.000829486
0.000848539
0.000865491
0.000880962
0.000895963
0.000911776
0.00092992
0.000952177
0.000980634
0.00101774
0.00106634
0.0011297
0.00121143
0.00131528
0.00144453
0.00160086
0.00178213
0.0019792
0.00217212
0.00233087
0.00243014
0.00248254
0.00256309
0.00274891
0.00308294
0.00363184
0.00461606
0.00637419
0.00926013
0.013433
0.0182578
0.021249
0.0199558
0.0207088
0.0015546
0.000872729
0.000778259
0.000772498
0.000788135
0.000808727
0.000829005
0.000847344
0.000863657
0.000878548
0.000893006
0.000908273
0.000925804
0.000947278
0.000974629
0.00101007
0.00105613
0.00111558
0.00119141
0.00128654
0.00140332
0.0015426
0.00170211
0.00187412
0.00204308
0.00218607
0.00228206
0.00233426
0.00239398
0.00253246
0.00281916
0.00335588
0.00435514
0.00614982
0.00914788
0.0136221
0.019148
0.0230472
0.0219313
0.0220471
0.00156768
0.000879978
0.00078257
0.000775212
0.000789677
0.000809322
0.000828819
0.000846456
0.00086217
0.00087654
0.000890522
0.000905305
0.000922266
0.000942964
0.000969163
0.00100284
0.00104619
0.00110154
0.00117129
0.00125764
0.00136219
0.00148519
0.00162437
0.00177339
0.0019204
0.00204849
0.00214142
0.0021985
0.00225271
0.00236823
0.00261684
0.00312364
0.00410398
0.00588756
0.0089409
0.01368
0.0198714
0.0247695
0.0240368
0.0233452
0.00158482
0.000888301
0.000787512
0.000778431
0.000791675
0.000810366
0.000829091
0.000846209
0.000861465
0.000875471
0.000889151
0.00090363
0.000920187
0.000940246
0.000965396
0.000997399
0.0010381
0.00108941
0.00115321
0.00123111
0.00132409
0.00143194
0.00155248
0.00168052
0.0018071
0.00191997
0.0020073
0.00206758
0.00212272
0.00222643
0.00244814
0.00291277
0.00383914
0.00556043
0.00860303
0.0135509
0.0203007
0.0263499
0.0262825
0.0246269
0.00160706
0.0008979
0.000793208
0.000782295
0.000794319
0.000812118
0.000830166
0.000846849
0.000861933
0.000875897
0.000889602
0.000904113
0.00092063
0.000940472
0.000965038
0.000995724
0.00103409
0.00108166
0.00114
0.00121014
0.00129254
0.00138668
0.00149045
0.00159956
0.00170716
0.0018044
0.001883
0.00194187
0.0019969
0.00209095
0.002289
0.0027067
0.00355141
0.00516499
0.00812459
0.0131825
0.0204674
0.0277861
0.0286263
0.0258686
0.00163562
0.000908986
0.000799803
0.000787006
0.000797906
0.000815016
0.000832684
0.000849232
0.000864447
0.000878748
0.000892912
0.000907905
0.000924814
0.000944824
0.000969206
0.000999315
0.00103646
0.00108183
0.00113601
0.00119957
0.0012727
0.00135499
0.00144424
0.00153672
0.00162708
0.00170889
0.00177655
0.00182964
0.00188065
0.00196395
0.0021375
0.00250404
0.00325278
0.00472473
0.00753804
0.0126183
0.0204577
0.028993
0.0310486
0.0270802
0.00167201
0.000921764
0.000807498
0.000792903
0.000802982
0.000819881
0.000837815
0.000854982
0.000871138
0.000886647
0.000902183
0.000918597
0.000936844
0.000957956
0.000983033
0.00101323
0.00104964
0.00109325
0.00114492
0.00120495
0.00127294
0.00134681
0.0014246
0.00150339
0.00157899
0.0016468
0.0017033
0.00174851
0.00179278
0.00186429
0.00201295
0.00232772
0.00297614
0.00428645
0.00689757
0.0118732
0.0200859
0.029958
0.0334852
0.0282508
0.00171839
0.00093652
0.000816665
0.000800667
0.000810683
0.00082843
0.000847934
0.000867233
0.000885935
0.000904326
0.000922966
0.000942572
0.000963954
0.000987996
0.00101562
0.00104778
0.00108537
0.00112915
0.00117969
0.00123716
0.00130102
0.0013703
0.0014427
0.00151511
0.00158373
0.00164427
0.00169308
0.00173177
0.00176948
0.00182995
0.00195604
0.0022261
0.00279518
0.003952
0.00630198
0.011053
0.0194895
0.0307242
0.0358854
0.0293759
0.0017773
0.000953453
0.000828087
0.000811856
0.000823666
0.000844665
0.000868431
0.000892751
0.000917111
0.000941634
0.000966728
0.00099296
0.001021
0.00105159
0.00108551
0.00112354
0.00116639
0.00121463
0.00126858
0.00132816
0.00139273
0.00146116
0.00153141
0.00160058
0.00166534
0.00172255
0.0017705
0.00181009
0.00184945
0.00190932
0.00202805
0.00227199
0.00277707
0.00382486
0.00600333
0.0104414
0.0188297
0.0313586
0.0381163
0.0304722
0.00185595
0.000973903
0.000844013
0.0008307
0.000848989
0.000878279
0.000911843
0.000947263
0.000983739
0.00102115
0.0010597
0.00109982
0.00114205
0.00118701
0.00123538
0.00128784
0.00134498
0.00140722
0.00147471
0.00154714
0.00162371
0.00170303
0.00178316
0.00186145
0.00193511
0.00200178
0.00206079
0.00211428
0.00217012
0.00224734
0.00238085
0.00263236
0.0031193
0.00409337
0.00607924
0.0102327
0.0185229
0.0320269
0.0399921
0.0315577
0.00195165
0.000997883
0.000871208
0.000869621
0.000904718
0.000954193
0.00101072
0.00107144
0.00113516
0.00120143
0.00127025
0.00134192
0.00141689
0.00149575
0.00157912
0.00166761
0.00176177
0.001862
0.00196829
0.00208005
0.00219619
0.00231505
0.00243457
0.00255234
0.00266616
0.0027745
0.00287787
0.00297999
0.00309025
0.0032277
0.00342698
0.00374896
0.00429737
0.00530041
0.00719259
0.0110343
0.0188431
0.0331202
0.0414163
0.0327625
0.00210253
0.0010385
0.000930169
0.000964827
0.00104585
0.00114817
0.0012638
0.00138935
0.00152304
0.00166397
0.00181192
0.00196707
0.00212983
0.00230072
0.00248025
0.00266885
0.00286698
0.00307503
0.00329288
0.00351883
0.00375086
0.00398627
0.00422274
0.00445766
0.00468995
0.00491898
0.00514782
0.00538203
0.00563447
0.0059252
0.00629076
0.00679413
0.00752079
0.00869281
0.0106053
0.0142663
0.0213496
0.035433
0.0426719
0.0334807
0.00226054
0.00112559
0.00109338
0.00125213
0.00147876
0.00174609
0.00204641
0.00237559
0.00273019
0.00310761
0.0035064
0.00392579
0.00436535
0.00482433
0.00530197
0.00579664
0.0063076
0.00683399
0.00737573
0.00792578
0.00847907
0.00902785
0.00956984
0.0100996
0.0106204
0.0111298
0.0116382
0.012148
0.0126814
0.0132538
0.0139056
0.0146989
0.0156719
0.0170965
0.0190116
0.0225453
0.028243
0.0402049
0.044134
0.0338163
0.00257196
0.00136779
0.00170475
0.00238495
0.00320117
0.00411661
0.00512979
0.00623068
0.00740245
0.00862842
0.00989672
0.0111975
0.0125236
0.0138656
0.0152168
0.0165652
0.0179069
0.0192318
0.0205392
0.0218067
0.0230281
0.0241813
0.0252776
0.026298
0.0272703
0.0281734
0.0290525
0.0298759
0.0307091
0.0315267
0.0324122
0.0333892
0.0344508
0.0360823
0.0378709
0.0411672
0.0440071
0.0496872
0.0475298
0.0338478
0.0031062
0.0022929
0.0045535
0.00788727
0.0113341
0.0148661
0.0185417
0.0223247
0.0261372
0.0299007
0.0335683
0.0371044
0.0404968
0.0437207
0.0467768
0.0496368
0.0523163
0.0547833
0.0570465
0.0590648
0.060888
0.0624644
0.0638849
0.0650764
0.066164
0.067046
0.0678927
0.0685568
0.0692549
0.0697782
0.0704112
0.0708815
0.0716428
0.0720422
0.071681
0.0700905
0.0655936
0.0587935
0.0504785
0.0320101
0.00220013
0.00370771
0.00586515
0.00790531
0.0098619
0.0116749
0.013368
0.0149808
0.0165416
0.0180628
0.0195491
0.0209996
0.0224171
0.0237996
0.0251489
0.0264663
0.027745
0.0289997
0.0302096
0.0313791
0.0324897
0.0335575
0.0345587
0.0355181
0.0364071
0.0372513
0.0380278
0.0387469
0.0394046
0.0399665
0.0404752
0.0408074
0.0410879
0.0411493
0.0411423
0.0410335
0.0406591
0.0396105
0.0372082
0.0300167
)
;

boundaryField
{
    movingWall
    {
        type            epsilonWallFunction;
        value           nonuniform List<scalar> 
40
(
0.00220013
0.00370771
0.00586515
0.00790531
0.0098619
0.0116749
0.013368
0.0149808
0.0165416
0.0180628
0.0195491
0.0209996
0.0224171
0.0237996
0.0251489
0.0264663
0.027745
0.0289997
0.0302096
0.0313791
0.0324897
0.0335575
0.0345587
0.0355181
0.0364071
0.0372513
0.0380278
0.0387469
0.0394046
0.0399665
0.0404752
0.0408074
0.0410879
0.0411493
0.0411423
0.0410335
0.0406591
0.0396105
0.0372082
0.0300167
)
;
    }
    fixedWalls
    {
        type            epsilonWallFunction;
        value           nonuniform List<scalar> 
120
(
4.96716e-05
0.00021405
0.000423002
0.000614652
0.000779852
0.000919839
0.00103751
0.00113577
0.00121728
0.00128438
0.0013391
0.00138327
0.0014185
0.00144624
0.00146775
0.00148419
0.00149656
0.00150579
0.00151271
0.00151807
0.00152255
0.00152682
0.00153151
0.00153726
0.00154472
0.0015546
0.00156768
0.00158482
0.00160706
0.00163562
0.00167201
0.00171839
0.0017773
0.00185595
0.00195165
0.00210253
0.00226054
0.00257196
0.0031062
0.00220013
4.93208e-05
0.000201975
0.000361721
0.00048467
0.000574851
0.000639758
0.000685399
0.000710234
0.000714857
0.000704657
0.000641024
0.000494803
0.000367297
0.000434165
0.00127517
0.00378914
0.00712262
0.00951266
0.0114352
0.0132701
0.0148942
0.0164481
0.0179269
0.0193391
0.0207088
0.0220471
0.0233452
0.0246269
0.0258686
0.0270802
0.0282508
0.0293759
0.0304722
0.0315577
0.0327625
0.0334807
0.0338163
0.0338478
0.0320101
0.0300167
4.96716e-05
0.000207774
0.000383037
0.000526667
0.000639542
0.000727832
0.000796608
0.000849784
0.000890586
0.000921821
0.000945974
0.000965205
0.000981339
0.000995883
0.00101006
0.00102484
0.001041
0.00105914
0.00107971
0.00110299
0.00112904
0.00115768
0.00118835
0.00122001
0.00125115
0.00128101
0.00131414
0.00134439
0.00136438
0.00137304
0.00136387
0.00133014
0.00126801
0.00117369
0.00104469
0.000880311
0.000681553
0.000453875
0.000216073
4.93208e-05
)
;
    }
    frontAndBack
    {
        type            empty;
    }
}


// ************************************************************************* //
