/*--------------------------------*- C++ -*----------------------------------*\
  =========                 |
  \\      /  F ield         | OpenFOAM: The Open Source CFD Toolbox
   \\    /   O peration     | Website:  https://openfoam.org
    \\  /    A nd           | Version:  13
     \\/     M anipulation  |
\*---------------------------------------------------------------------------*/
FoamFile
{
    format      ascii;
    class       volScalarField;
    location    "1";
    object      k;
}
// * * * * * * * * * * * * * * * * * * * * * * * * * * * * * * * * * * * * * //

dimensions      [0 2 -2 0 0 0 0];

internalField   nonuniform List<scalar> 
1600
(
3.83693e-06
1.60648e-05
2.96264e-05
4.07429e-05
4.94812e-05
5.63184e-05
6.16466e-05
6.57679e-05
6.89316e-05
7.13547e-05
7.32296e-05
7.47235e-05
7.59782e-05
7.71109e-05
7.82167e-05
7.93718e-05
8.06369e-05
8.20592e-05
8.36741e-05
8.55037e-05
8.7554e-05
8.98105e-05
9.22299e-05
9.47306e-05
9.71957e-05
9.95647e-05
0.000102195
0.000104615
0.00010623
0.000106945
0.00010627
0.000103652
9.87968e-05
9.14112e-05
8.13094e-05
6.84499e-05
5.29271e-05
3.51881e-05
1.67164e-05
3.80902e-06
1.65542e-05
0.000102729
0.000169706
0.000216984
0.00025183
0.000278122
0.000298136
0.000313387
0.000324996
0.000333859
0.000340718
0.000346195
0.000350806
0.000354969
0.000359019
0.000363221
0.000367782
0.000372861
0.00037857
0.000384977
0.000392103
0.000399909
0.000408282
0.000416989
0.000425629
0.000433636
0.000440306
0.000445212
0.000447486
0.000447627
0.0004429
0.000432536
0.000415248
0.000389825
0.000355204
0.000310415
0.000254361
0.00018546
0.000100169
1.56108e-05
3.2747e-05
0.000179571
0.000277875
0.000344889
0.000394168
0.000431326
0.000459532
0.00048092
0.00049709
0.000509319
0.000518655
0.00052596
0.000531936
0.000537148
0.000542039
0.000546946
0.000552121
0.000557741
0.000563921
0.000570719
0.000578138
0.000586124
0.000594559
0.00060324
0.000611868
0.000620051
0.000627244
0.000632519
0.000634937
0.000634039
0.000627065
0.000612647
0.000589099
0.000554881
0.000508688
0.000449314
0.00037517
0.000282995
0.000162539
2.79652e-05
4.76186e-05
0.00023904
0.000357312
0.000436405
0.000494587
0.000538665
0.00057229
0.0005979
0.000617331
0.000632056
0.000643285
0.000652016
0.000659064
0.000665081
0.000670581
0.000675955
0.000681492
0.000687395
0.000693796
0.00070077
0.000708339
0.000716474
0.000725088
0.000734021
0.000743009
0.000751649
0.000759316
0.000764741
0.0007671
0.000765186
0.000756137
0.000738129
0.000709237
0.00066782
0.00061262
0.000542532
0.000455809
0.000348136
0.000204982
3.74784e-05
6.04513e-05
0.000286418
0.000419841
0.000508008
0.000572818
0.000622088
0.000659882
0.000688852
0.000710981
0.000727853
0.000740775
0.00075083
0.000758911
0.00076574
0.000771888
0.000777796
0.000783794
0.000790122
0.000796944
0.000804366
0.000812442
0.000821178
0.000830516
0.000840313
0.000850293
0.000859983
0.000868624
0.000874641
0.00087716
0.000874517
0.000863564
0.000842059
0.000807849
0.000759299
0.00069531
0.000615002
0.000516742
0.000395889
0.00023563
4.44692e-05
7.13353e-05
0.000324762
0.000470398
0.000566025
0.000636289
0.000689859
0.000731152
0.000763
0.000787495
0.000806305
0.000820805
0.000832145
0.000841278
0.000848986
0.000855895
0.000862499
0.000869177
0.000876214
0.000883822
0.000892149
0.000901293
0.000911294
0.000922114
0.000933603
0.000945436
0.000957031
0.000967445
0.000974798
0.000977876
0.000974958
0.000962212
0.000937109
0.00089709
0.000840587
0.000766844
0.000675507
0.000565389
0.00043235
0.000258751
4.95228e-05
8.04915e-05
0.00035607
0.000511786
0.00061376
0.000688722
0.000746025
0.000790383
0.000824785
0.000851418
0.000872019
0.000888024
0.000900637
0.000910868
0.000919556
0.000927384
0.000934906
0.000942559
0.00095069
0.00095957
0.000969405
0.000980341
0.000992451
0.00100571
0.00101992
0.00103468
0.00104924
0.00106242
0.00107199
0.00107608
0.00107332
0.00105868
0.00102946
0.00098252
0.000916334
0.000830924
0.000727373
0.000604782
0.000460541
0.000277059
5.31088e-05
8.81436e-05
0.000381744
0.000545852
0.000653285
0.000732371
0.000792991
0.0008401
0.000876817
0.000905417
0.000927701
0.00094516
0.000959052
0.000970444
0.000980232
0.000989167
0.000997871
0.00100685
0.00101654
0.00102728
0.00103933
0.00105291
0.00106812
0.0010849
0.001103
0.00112187
0.00114052
0.00115747
0.00116993
0.00117528
0.00117264
0.00115529
0.00112041
0.00106435
0.000985343
0.000884913
0.000765658
0.000626885
0.000474198
0.000289922
5.50634e-05
9.44967e-05
0.000402819
0.000573927
0.000686062
0.000768784
0.000832378
0.000881981
0.000920825
0.000951257
0.000975138
0.000994015
0.0010092
0.00102182
0.00103285
0.0010431
0.00105328
0.00106398
0.00107574
0.00108898
0.00110405
0.0011212
0.00114054
0.00116197
0.00118512
0.0012092
0.00123291
0.00125431
0.00126966
0.00127594
0.00127212
0.00124973
0.00120602
0.00113734
0.00104091
0.000920443
0.000779346
0.00062941
0.00047404
0.00029454
5.54299e-05
9.97298e-05
0.000420094
0.000597027
0.000713198
0.00079912
0.000865381
0.000917254
0.000958058
0.000990204
0.00101561
0.00103588
0.00105238
0.00106631
0.0010787
0.00109048
0.00110244
0.00111528
0.00112964
0.00114604
0.00116492
0.00118655
0.00121102
0.00123812
0.00126728
0.00129738
0.00132662
0.00135236
0.00136917
0.00137497
0.00136645
0.00133466
0.00127837
0.00119523
0.00107982
0.000938524
0.000778541
0.000607756
0.000448321
0.000286898
5.46311e-05
0.000104001
0.000434202
0.000615958
0.000735572
0.000824295
0.000892936
0.00094687
0.000989479
0.00102323
0.00105009
0.00107172
0.00108955
0.00110486
0.00111876
0.00113226
0.0011463
0.00116167
0.00117914
0.00119933
0.00122273
0.00124962
0.00128002
0.00131353
0.00134926
0.00138558
0.0014199
0.00144835
0.00146298
0.00146516
0.00144574
0.00140081
0.00133505
0.00124933
0.00112952
0.000974632
0.000791184
0.000593878
0.000398901
0.000250938
4.93676e-05
0.00010745
0.000445662
0.00063138
0.000753908
0.000845061
0.000915811
0.000971602
0.00101586
0.00105111
0.00107935
0.0011023
0.00112148
0.00113821
0.00115373
0.00116915
0.00118551
0.00120376
0.00122477
0.00124924
0.00127771
0.00131042
0.00134721
0.00138742
0.00142965
0.00147149
0.00150922
0.00153474
0.00154328
0.00153458
0.00149924
0.00144917
0.00139943
0.00134699
0.00125844
0.00110691
0.000894109
0.000635505
0.000384163
0.000186067
3.76512e-05
0.000110202
0.000454909
0.000643847
0.000768816
0.000862054
0.00093465
0.000992096
0.00103785
0.00107447
0.00110401
0.00112825
0.00114875
0.00116695
0.00118416
0.00120162
0.00122051
0.00124189
0.00126672
0.0012958
0.00132963
0.00136835
0.00141157
0.00145815
0.00150592
0.00155122
0.00158737
0.00160235
0.00159984
0.0015703
0.0015267
0.00150794
0.00151245
0.00151573
0.00147534
0.00134928
0.00113248
0.000819944
0.000441801
0.000156496
2.82434e-05
0.000112368
0.00046231
0.000653832
0.000780816
0.000875819
0.00095001
0.00100891
0.001056
0.00109387
0.00112462
0.00115007
0.00117186
0.00119151
0.00121045
0.00123003
0.00125154
0.00127616
0.00130494
0.0013387
0.00137787
0.00142241
0.00147155
0.00152349
0.00157486
0.0016199
0.0016445
0.00164704
0.00162062
0.00158094
0.00157322
0.0016175
0.00169086
0.0017197
0.00172254
0.0016393
0.00145037
0.00114477
0.000683662
0.000211649
3.51701e-05
0.000114048
0.000468184
0.00066174
0.000790363
0.000886833
0.000962374
0.00102252
0.00107079
0.00110976
0.0011416
0.00116818
0.0011912
0.00121226
0.0012329
0.00125458
0.0012787
0.00130653
0.00133918
0.00137742
0.00142158
0.00147133
0.00152537
0.00158097
0.00163328
0.00167011
0.00168093
0.00166405
0.00162047
0.00160479
0.00164662
0.00177183
0.00189002
0.00194733
0.00196647
0.00193641
0.00179338
0.00152367
0.00108742
0.000437802
0.000106776
0.000115328
0.000472807
0.00066793
0.000797853
0.000895514
0.000972171
0.00103337
0.00108263
0.00112257
0.00115537
0.00118295
0.0012071
0.00122949
0.00125174
0.00127542
0.00130201
0.00133286
0.00136907
0.00141135
0.00145983
0.00151381
0.0015713
0.00162834
0.00167779
0.00170078
0.00169761
0.00165713
0.00162352
0.001632
0.00174329
0.00191717
0.00205921
0.00215093
0.00219369
0.00220091
0.00211947
0.00189144
0.00147409
0.000815672
0.000310021
0.000116289
0.000476421
0.000672713
0.000803638
0.000902236
0.000979785
0.00104183
0.0010919
0.00113264
0.00116625
0.00119471
0.00121985
0.00124343
0.00126714
0.00129263
0.00132144
0.00135496
0.00139425
0.00143991
0.00149181
0.00154879
0.00160812
0.00166465
0.00170554
0.00171723
0.00169597
0.00164294
0.00161897
0.00166186
0.00182406
0.00202178
0.0021831
0.00231296
0.00240057
0.00243481
0.00241155
0.00223377
0.00182849
0.00114442
0.000566847
0.000117001
0.000479242
0.000676369
0.000808033
0.000907333
0.000985559
0.00104826
0.00109896
0.00114032
0.00117459
0.00120376
0.00122973
0.00125431
0.00127926
0.00130629
0.00133698
0.0013727
0.00141444
0.00146265
0.00151692
0.00157559
0.00163513
0.00168901
0.00171973
0.00172111
0.00168394
0.00162271
0.00160653
0.00167858
0.00186901
0.00207407
0.00224695
0.00241005
0.00256323
0.00264716
0.00266633
0.00254772
0.00215748
0.0014132
0.000747758
0.000117531
0.00048146
0.000679146
0.000811317
0.000911106
0.000989806
0.00105296
0.00110411
0.00114592
0.00118066
0.00121036
0.00123697
0.00126234
0.00128828
0.00131652
0.00134866
0.00138602
0.00142951
0.00147938
0.00153492
0.00159402
0.00165237
0.00170191
0.00172396
0.00171582
0.00166285
0.00159704
0.00158373
0.00167163
0.00186964
0.00207678
0.00225788
0.00244229
0.00264926
0.00282313
0.00289247
0.00283926
0.00247504
0.00169813
0.000897042
0.000117935
0.000483246
0.000681265
0.000813743
0.000913827
0.00099281
0.00105624
0.00110764
0.00114972
0.00118475
0.0012148
0.00124184
0.00126776
0.0012944
0.00132348
0.0013566
0.00139501
0.00143951
0.00149014
0.00154592
0.00160435
0.00166058
0.00170483
0.00172151
0.00170477
0.00164067
0.00156885
0.00155397
0.00164516
0.00183614
0.00203782
0.00222879
0.00243825
0.0026841
0.00295281
0.00310349
0.00311416
0.00278008
0.00195542
0.00103848
0.000118269
0.000484754
0.000682927
0.00081554
0.000915744
0.000994832
0.00105835
0.00110984
0.001152
0.00118714
0.00121735
0.0012446
0.00127082
0.00129785
0.00132741
0.00136103
0.00139989
0.00144467
0.00149523
0.0015503
0.00160712
0.00166066
0.00170135
0.00171449
0.00169087
0.00162127
0.00154057
0.00151711
0.00159357
0.00176847
0.00196363
0.00216268
0.00239739
0.00269146
0.00303114
0.00329781
0.00337187
0.00308512
0.00221903
0.0011642
0.000118583
0.000486129
0.000684317
0.000816916
0.000917083
0.000996112
0.00105955
0.00111095
0.00115302
0.00118808
0.00121824
0.00124551
0.00127178
0.0012989
0.00132856
0.00136222
0.00140098
0.00144537
0.00149514
0.00154909
0.00160433
0.00165566
0.00169269
0.00170318
0.0016775
0.00160751
0.0015179
0.0014791
0.00152968
0.00167902
0.00186514
0.00207298
0.00233559
0.00267939
0.00308603
0.00346052
0.00361415
0.00337515
0.00246285
0.00128473
0.000118929
0.000487503
0.000685604
0.000818065
0.000918054
0.000996871
0.00106007
0.00111121
0.00115303
0.00118787
0.00121787
0.00124499
0.00127114
0.00129814
0.00132763
0.00136103
0.00139935
0.00144306
0.00149179
0.00154403
0.00159677
0.00164494
0.00167951
0.00168965
0.00166551
0.00159937
0.00150814
0.00144881
0.00146823
0.00158434
0.00175719
0.00197462
0.00226738
0.00265937
0.00313074
0.00359656
0.00384027
0.00365921
0.00271391
0.00139948
0.000119355
0.000489008
0.000686947
0.000819163
0.000918849
0.000997318
0.00106014
0.00111092
0.00115241
0.00118693
0.00121659
0.0012434
0.00126925
0.00129591
0.00132497
0.00135777
0.00139523
0.00143767
0.00148463
0.0015346
0.00158473
0.00163023
0.00166343
0.00167468
0.0016548
0.00159678
0.00151087
0.00143758
0.00142733
0.00150201
0.00165727
0.00188373
0.00220675
0.00264289
0.00317151
0.00370783
0.00404303
0.00392309
0.00295285
0.00150913
0.000119914
0.00049077
0.000688501
0.00082038
0.00091965
0.00099765
0.00105999
0.00111026
0.00115124
0.00118527
0.00121449
0.00124087
0.00126627
0.00129242
0.00132085
0.0013528
0.0013891
0.00143
0.001475
0.0015226
0.0015701
0.00161314
0.00164532
0.00165836
0.00164417
0.00159717
0.00152029
0.00144425
0.00141432
0.00145656
0.00158343
0.00181394
0.00216128
0.00263012
0.00319882
0.00379646
0.00421909
0.0041652
0.00318718
0.00161576
0.00012066
0.00049292
0.000690413
0.000821874
0.000920626
0.000998045
0.00105977
0.00110943
0.00114983
0.00118331
0.00121202
0.00123791
0.00126279
0.00128834
0.00131601
0.00134697
0.00138197
0.00142118
0.00146407
0.00150921
0.00155409
0.00159487
0.00162614
0.00164102
0.00163274
0.00159767
0.00153457
0.00146329
0.00142359
0.00144909
0.00155098
0.00177328
0.00213171
0.0026173
0.00320876
0.00384898
0.00436073
0.00438234
0.00341827
0.00171985
0.000121654
0.000495591
0.000692831
0.000823803
0.000921943
0.000998681
0.00105971
0.00110869
0.00114845
0.00118136
0.00120954
0.00123492
0.00125927
0.0012842
0.00131108
0.00134101
0.00137464
0.00141211
0.00145286
0.00149555
0.00153789
0.00157651
0.00160686
0.00162333
0.0016202
0.00159611
0.00154744
0.00148821
0.00144773
0.00146386
0.00155043
0.00175672
0.00211027
0.00259546
0.0031988
0.00386793
0.00445862
0.00457087
0.00364436
0.00182106
0.000122965
0.000498926
0.000695907
0.00082632
0.000923759
0.000999729
0.00105998
0.00110826
0.00114736
0.00117971
0.0012074
0.00123232
0.00125619
0.00128054
0.00130668
0.00133561
0.00136793
0.0014037
0.0014424
0.00148276
0.00152269
0.00155924
0.00158858
0.00160615
0.00160718
0.00159149
0.00155597
0.00150974
0.00147625
0.00148929
0.00156377
0.00175006
0.0020839
0.00255181
0.00315198
0.00385348
0.00450435
0.00473207
0.00387109
0.00192095
0.000124672
0.000503079
0.000699796
0.000829578
0.000926231
0.00100136
0.00106079
0.00110836
0.00114687
0.00117872
0.001206
0.00123057
0.00125408
0.00127797
0.00130349
0.00133154
0.00136266
0.00139691
0.00143374
0.00147197
0.0015097
0.00154433
0.00157259
0.00159073
0.00159494
0.00158508
0.00155985
0.00152475
0.001499
0.00151071
0.00157569
0.00173986
0.00204263
0.00247986
0.0030633
0.00378467
0.00451538
0.00486376
0.00409704
0.00201779
0.000126872
0.000508221
0.000704664
0.000833738
0.000929519
0.00100374
0.00106234
0.00110916
0.00114719
0.00117874
0.0012058
0.0012302
0.00125352
0.00127715
0.00130223
0.0013296
0.00135975
0.0013927
0.00142796
0.00146441
0.00150029
0.00153328
0.00156052
0.00157888
0.00158527
0.00157929
0.00156122
0.00153409
0.00151388
0.00152359
0.00157817
0.00171799
0.00198303
0.00238045
0.00293651
0.00366786
0.00447331
0.00496039
0.00432097
0.00211234
0.000129683
0.000514545
0.000710696
0.00083897
0.000933792
0.00100707
0.00106485
0.00111104
0.00114861
0.00117992
0.00120694
0.00123139
0.00125476
0.00127839
0.00130335
0.00133044
0.0013601
0.00139231
0.0014265
0.00146164
0.00149616
0.00152797
0.00155454
0.00157313
0.00158114
0.00157775
0.00156413
0.00154182
0.00152421
0.00153051
0.00157321
0.0016867
0.00191031
0.0022619
0.00278134
0.00351094
0.00438379
0.00502665
0.00454101
0.00220362
0.000133275
0.000522301
0.000718107
0.000845473
0.000939259
0.00101159
0.00106866
0.00111443
0.00115181
0.00118316
0.00121041
0.0012352
0.00125894
0.00128287
0.001308
0.00133508
0.00136453
0.00139635
0.00143011
0.00146479
0.00149889
0.00153041
0.001557
0.00157613
0.00158543
0.00158383
0.00157373
0.00155515
0.00153843
0.00154052
0.00157073
0.001658
0.00183768
0.00213968
0.00261512
0.00332858
0.00425718
0.00506352
0.00474932
0.00229144
0.000137845
0.000531692
0.000727154
0.00085351
0.000946233
0.00101775
0.00107437
0.00112012
0.00115785
0.00118981
0.00121785
0.00124355
0.00126826
0.00129311
0.00131906
0.00134682
0.00137677
0.00140896
0.001443
0.00147799
0.00151251
0.00154473
0.00157246
0.00159338
0.00160538
0.00160705
0.0016007
0.00158649
0.00157127
0.00156928
0.00158908
0.00165372
0.001796
0.00205416
0.00247566
0.00315034
0.00411196
0.00508052
0.00493539
0.00237693
0.000143959
0.000543251
0.000738258
0.00086355
0.000955395
0.00102657
0.00108346
0.00113002
0.00116907
0.00120271
0.00123267
0.00126045
0.00128732
0.00131436
0.00134247
0.00137231
0.0014043
0.00143849
0.00147458
0.00151176
0.00154879
0.00158396
0.00161529
0.00164064
0.00165807
0.00166621
0.00166556
0.00165889
0.00164851
0.00164654
0.00166082
0.00170947
0.00182048
0.00203696
0.00241878
0.0030639
0.00401159
0.00508754
0.00505622
0.00246163
0.000151408
0.00055701
0.000752145
0.000876851
0.000968809
0.0010412
0.00110023
0.00114965
0.00119212
0.00122969
0.00126403
0.00129652
0.00132837
0.00136058
0.00139401
0.00142929
0.00146684
0.00150681
0.00154895
0.00159259
0.00163659
0.00167947
0.00171943
0.00175456
0.00178311
0.00180383
0.00181654
0.00182331
0.00182662
0.00183428
0.00185441
0.00190156
0.00199902
0.00218194
0.00250365
0.00306724
0.00397985
0.00510647
0.00510775
0.00255566
0.000163166
0.000575832
0.000771539
0.000898408
0.000994351
0.00107207
0.0011378
0.00119526
0.00124692
0.00129471
0.00134017
0.00138462
0.00142915
0.0014747
0.00152202
0.0015717
0.00162414
0.00167961
0.001738
0.00179856
0.00186021
0.00192155
0.00198106
0.0020371
0.0020883
0.00213362
0.00217293
0.00220768
0.00224026
0.00227543
0.00232048
0.00238702
0.00249145
0.00265808
0.00292454
0.00338895
0.00414864
0.00519379
0.00512351
0.00261177
0.000175503
0.000602519
0.000808669
0.000947706
0.0010596
0.00115667
0.00124484
0.00132751
0.00140685
0.00148447
0.00156173
0.00163971
0.0017193
0.00180114
0.00188568
0.00197318
0.00206388
0.00215813
0.00225638
0.00235706
0.00245859
0.00255923
0.00265773
0.0027527
0.00284351
0.00292929
0.00301058
0.00308899
0.00316674
0.00324482
0.0033279
0.00342258
0.0035357
0.00368908
0.00388825
0.00422379
0.00471538
0.00541744
0.00512103
0.00263797
0.000199757
0.00065997
0.000912894
0.0011122
0.0012921
0.00146161
0.00162729
0.0017918
0.00195583
0.00211964
0.00228359
0.00244791
0.00261279
0.00277798
0.00294327
0.00310797
0.00327201
0.00343545
0.00360186
0.00376677
0.003927
0.00407991
0.00422562
0.00436254
0.00449222
0.00461305
0.004728
0.00483328
0.00493287
0.00502593
0.00511961
0.00521359
0.00531273
0.00543794
0.00556097
0.00574844
0.00585854
0.005839
0.00511855
0.00264048
0.000241679
0.00081602
0.00130408
0.00177565
0.00220023
0.00259011
0.00296331
0.00332335
0.00366838
0.0039962
0.00430661
0.00459984
0.0048771
0.00513837
0.00538486
0.00561571
0.00583269
0.00603548
0.0062208
0.00638718
0.00653904
0.00667433
0.00679864
0.00690808
0.00700972
0.00709787
0.00718227
0.007254
0.00732518
0.00738307
0.00744601
0.00749352
0.00756602
0.00758794
0.00754856
0.00737807
0.00694971
0.00609705
0.00485923
0.00249706
0.00017117
0.000288594
0.000456622
0.000615497
0.000767903
0.000909126
0.00104102
0.00116667
0.00128829
0.00140683
0.00152267
0.00163574
0.00174623
0.00185403
0.0019592
0.00206196
0.00216164
0.00225945
0.00235384
0.00244511
0.00253179
0.00261513
0.00269328
0.00276813
0.00283753
0.00290335
0.00296391
0.00301999
0.00307127
0.00311519
0.00315486
0.00318101
0.00320293
0.00320817
0.00320772
0.0031997
0.0031697
0.00309027
0.00290066
0.00234148
)
;

boundaryField
{
    movingWall
    {
        type            kqRWallFunction;
        value           nonuniform List<scalar> 
40
(
0.00017117
0.000288594
0.000456622
0.000615497
0.000767903
0.000909126
0.00104102
0.00116667
0.00128829
0.00140683
0.00152267
0.00163574
0.00174623
0.00185403
0.0019592
0.00206196
0.00216164
0.00225945
0.00235384
0.00244511
0.00253179
0.00261513
0.00269328
0.00276813
0.00283753
0.00290335
0.00296391
0.00301999
0.00307127
0.00311519
0.00315486
0.00318101
0.00320293
0.00320817
0.00320772
0.0031997
0.0031697
0.00309027
0.00290066
0.00234148
)
;
    }
    fixedWalls
    {
        type            kqRWallFunction;
        value           nonuniform List<scalar> 
120
(
3.83693e-06
1.65542e-05
3.2747e-05
4.76186e-05
6.04513e-05
7.13353e-05
8.04915e-05
8.81436e-05
9.44967e-05
9.97298e-05
0.000104001
0.00010745
0.000110202
0.000112368
0.000114048
0.000115328
0.000116289
0.000117001
0.000117531
0.000117935
0.000118269
0.000118583
0.000118929
0.000119355
0.000119914
0.00012066
0.000121654
0.000122965
0.000124672
0.000126872
0.000129683
0.000133275
0.000137845
0.000143959
0.000151408
0.000163166
0.000175503
0.000199757
0.000241679
0.00017117
3.80902e-06
1.56108e-05
2.79652e-05
3.74784e-05
4.44692e-05
4.95228e-05
5.31088e-05
5.50634e-05
5.54299e-05
5.46311e-05
4.93676e-05
3.76512e-05
2.82434e-05
3.51701e-05
0.000106776
0.000310021
0.000566847
0.000747758
0.000897042
0.00103848
0.0011642
0.00128473
0.00139948
0.00150913
0.00161576
0.00171985
0.00182106
0.00192095
0.00201779
0.00211234
0.00220362
0.00229144
0.00237693
0.00246163
0.00255566
0.00261177
0.00263797
0.00264048
0.00249706
0.00234148
3.83693e-06
1.60648e-05
2.96264e-05
4.07429e-05
4.94812e-05
5.63184e-05
6.16466e-05
6.57679e-05
6.89316e-05
7.13547e-05
7.32296e-05
7.47235e-05
7.59782e-05
7.71109e-05
7.82167e-05
7.93718e-05
8.06369e-05
8.20592e-05
8.36741e-05
8.55037e-05
8.7554e-05
8.98105e-05
9.22299e-05
9.47306e-05
9.71957e-05
9.95647e-05
0.000102195
0.000104615
0.00010623
0.000106945
0.00010627
0.000103652
9.87968e-05
9.14112e-05
8.13094e-05
6.84499e-05
5.29271e-05
3.51881e-05
1.67164e-05
3.80902e-06
)
;
    }
    frontAndBack
    {
        type            empty;
    }
}


// ************************************************************************* //
