/*--------------------------------*- C++ -*----------------------------------*\
  =========                 |
  \\      /  F ield         | OpenFOAM: The Open Source CFD Toolbox
   \\    /   O peration     | Website:  https://openfoam.org
    \\  /    A nd           | Version:  13
     \\/     M anipulation  |
\*---------------------------------------------------------------------------*/
FoamFile
{
    format      ascii;
    class       volScalarField;
    location    "1";
    object      nut;
}
// * * * * * * * * * * * * * * * * * * * * * * * * * * * * * * * * * * * * * //

dimensions      [0 2 -1 0 0 0 0];

internalField   nonuniform List<scalar> 
400
(
5.59263e-06
7.31413e-06
8.68579e-06
9.52249e-06
9.9982e-06
1.02691e-05
1.04372e-05
1.05612e-05
1.06707e-05
1.07773e-05
1.08809e-05
1.09746e-05
1.10404e-05
1.10599e-05
1.09475e-05
1.06226e-05
9.98601e-06
8.90842e-06
7.27438e-06
5.60963e-06
7.32466e-06
2.79053e-05
3.83948e-05
4.37062e-05
4.6796e-05
4.87744e-05
5.01879e-05
5.13549e-05
5.24623e-05
5.35963e-05
5.47602e-05
5.57937e-05
5.63314e-05
5.63733e-05
5.55117e-05
5.32456e-05
4.87691e-05
4.08047e-05
2.66169e-05
7.31824e-06
8.94264e-06
4.16051e-05
6.15495e-05
7.22492e-05
7.83498e-05
8.20363e-05
8.4442e-05
8.62023e-05
8.76699e-05
8.8992e-05
9.01528e-05
9.08677e-05
9.09894e-05
9.00182e-05
8.73459e-05
8.2137e-05
7.32194e-05
5.83766e-05
3.50884e-05
8.61785e-06
1.00646e-05
4.96104e-05
7.61625e-05
9.10929e-05
9.96806e-05
0.000104778
0.000107942
0.000110065
0.000111639
0.000112869
0.000113669
0.00011385
0.000113107
0.000110724
0.000105951
9.77879e-05
8.49814e-05
6.56379e-05
3.7403e-05
9.22967e-06
1.08091e-05
5.46567e-05
8.54453e-05
0.000103506
0.000114064
0.000120298
0.000124041
0.000126386
0.000127939
0.000128947
0.000129236
0.00012878
0.00012692
0.000122966
0.000116023
0.000105082
8.91013e-05
6.6534e-05
3.63568e-05
9.36013e-06
1.13016e-05
5.79755e-05
9.16352e-05
0.00011187
0.000123846
0.000130904
0.000135051
0.000137512
0.000138973
0.000139665
0.000139472
0.000138238
0.000135178
0.000129479
0.000120188
0.000106388
8.74924e-05
6.26844e-05
3.23937e-05
9.20195e-06
1.16354e-05
6.02417e-05
9.58567e-05
0.00011757
0.000130517
0.000138134
0.000142534
0.000145028
0.000146349
0.000146715
0.000145992
0.000143886
0.000139455
0.000131722
0.000119649
0.000102435
8.04133e-05
5.45277e-05
2.62779e-05
9.07669e-06
1.18767e-05
6.18733e-05
9.88337e-05
0.000121528
0.0001351
0.000143054
0.000147577
0.000150033
0.000151177
0.000151206
0.000149863
0.000146736
0.000140619
0.000130311
0.000114708
9.35087e-05
6.86464e-05
4.45058e-05
2.20229e-05
1.02392e-05
1.20717e-05
6.31452e-05
0.00010105
0.000124371
0.000138299
0.000146408
0.00015094
0.000153295
0.000154219
0.000153864
0.000151774
0.000147374
0.000139115
0.00012557
0.000105827
8.10064e-05
5.59306e-05
3.84503e-05
2.65054e-05
1.57789e-05
1.22517e-05
6.42432e-05
0.00010283
0.000126522
0.000140595
0.000148707
0.000153152
0.000155346
0.000156004
0.000155166
0.000152202
0.000146243
0.000135407
0.000118206
9.45322e-05
6.93166e-05
5.16846e-05
4.51581e-05
4.30883e-05
2.65881e-05
1.24388e-05
6.52937e-05
0.000104387
0.000128252
0.000142301
0.000150295
0.000154577
0.000156567
0.00015693
0.000155513
0.000151653
0.000144018
0.000130682
0.000110305
8.58311e-05
6.56044e-05
5.87293e-05
6.16697e-05
5.99576e-05
3.68444e-05
1.26491e-05
6.63795e-05
0.000105854
0.000129724
0.000143614
0.000151399
0.000155473
0.000157262
0.000157368
0.000155427
0.000150911
0.000142058
0.000126901
0.000104891
8.34928e-05
6.86405e-05
7.30199e-05
7.67744e-05
7.31073e-05
4.30472e-05
1.28988e-05
6.75362e-05
0.000107299
0.000131005
0.000144627
0.000152136
0.000155972
0.000157619
0.00015761
0.000155488
0.000150716
0.000141566
0.000126366
0.0001056
8.65072e-05
7.69728e-05
8.65726e-05
9.15938e-05
8.58008e-05
4.80665e-05
1.31935e-05
6.87724e-05
0.000108691
0.000132059
0.000145244
0.000152455
0.000156201
0.000157794
0.000157805
0.000155853
0.000151326
0.000142854
0.000129011
0.000110978
9.4842e-05
8.83703e-05
9.75073e-05
0.000105657
9.76713e-05
5.23135e-05
1.35588e-05
7.00979e-05
0.000109847
0.000132534
0.000145211
0.000152016
0.000155463
0.000156944
0.000157075
0.00015578
0.000152196
0.000145764
0.000135206
0.000121609
0.000109082
0.000104202
0.000109629
0.000115223
0.000106418
5.50554e-05
1.39439e-05
7.12974e-05
0.000110179
0.000131824
0.000143209
0.000148925
0.000151606
0.000152727
0.000152994
0.000152536
0.000150898
0.000147392
0.000141297
0.000132996
0.000125003
0.000120131
0.000119986
0.000121478
0.000110524
5.71867e-05
1.44057e-05
7.21845e-05
0.000108912
0.000127215
0.000135805
0.000139667
0.000141539
0.000142762
0.000143892
0.000145095
0.000146221
0.000146315
0.000144577
0.00014044
0.000135307
0.000129927
0.000125755
0.000123635
0.00011112
5.88104e-05
1.52025e-05
7.21183e-05
0.000101933
0.000114511
0.000120456
0.000124011
0.000127271
0.000130741
0.000134337
0.000137889
0.000141041
0.000143422
0.00014437
0.000142967
0.000139652
0.000134487
0.000128929
0.000121926
0.000106552
5.93749e-05
1.50562e-05
6.03305e-05
8.43313e-05
9.48819e-05
0.000102446
0.000108377
0.000113167
0.000117207
0.000120853
0.000124215
0.000127293
0.000129928
0.000132036
0.000133179
0.000132121
0.000130718
0.000126338
0.00011793
9.91033e-05
5.93404e-05
1.29333e-05
1.56561e-05
2.08341e-05
2.57957e-05
3.0503e-05
3.49673e-05
3.92163e-05
4.32703e-05
4.7175e-05
5.09142e-05
5.4585e-05
5.79779e-05
6.14078e-05
6.42771e-05
6.67876e-05
6.81453e-05
6.81355e-05
6.76599e-05
6.55592e-05
5.77752e-05
)
;

boundaryField
{
    movingWall
    {
        type            nutkWallFunction;
        Cmu             0.09;
        kappa           0.41;
        E               9.8;
        value           uniform 0;
    }
    fixedWalls
    {
        type            nutkWallFunction;
        Cmu             0.09;
        kappa           0.41;
        E               9.8;
        value           uniform 0;
    }
    frontAndBack
    {
        type            empty;
    }
}


// ************************************************************************* //
