/*--------------------------------*- C++ -*----------------------------------*\
  =========                 |
  \\      /  F ield         | OpenFOAM: The Open Source CFD Toolbox
   \\    /   O peration     | Website:  https://openfoam.org
    \\  /    A nd           | Version:  13
     \\/     M anipulation  |
\*---------------------------------------------------------------------------*/
FoamFile
{
    format      ascii;
    class       volScalarField;
    location    "1";
    object      nut;
}
// * * * * * * * * * * * * * * * * * * * * * * * * * * * * * * * * * * * * * //

dimensions      [0 2 -1 0 0 0 0];

internalField   nonuniform List<scalar> 
1600
(
2.66749e-08
1.11789e-07
2.06233e-07
2.83668e-07
3.44551e-07
3.92205e-07
4.29355e-07
4.58102e-07
4.8018e-07
4.97097e-07
5.10195e-07
5.20639e-07
5.29421e-07
5.37361e-07
5.45125e-07
5.53249e-07
5.62161e-07
5.72196e-07
5.83604e-07
5.96544e-07
6.11061e-07
6.27056e-07
6.44229e-07
6.62004e-07
6.79558e-07
6.96467e-07
7.15251e-07
7.32666e-07
7.44391e-07
7.49687e-07
7.45232e-07
7.2694e-07
6.92797e-07
6.40752e-07
5.69557e-07
4.79018e-07
3.69912e-07
2.45526e-07
1.16393e-07
2.64751e-08
1.15224e-07
4.34137e-06
8.42951e-06
1.09084e-05
1.25756e-05
1.37867e-05
1.47007e-05
1.54006e-05
1.59378e-05
1.63492e-05
1.66665e-05
1.69166e-05
1.71229e-05
1.73062e-05
1.74848e-05
1.76744e-05
1.78893e-05
1.81418e-05
1.84431e-05
1.88026e-05
1.92283e-05
1.97252e-05
2.02939e-05
2.0925e-05
2.15861e-05
2.22134e-05
2.27212e-05
2.31342e-05
2.33553e-05
2.35175e-05
2.33935e-05
2.29568e-05
2.21309e-05
2.08434e-05
1.90273e-05
1.66358e-05
1.35367e-05
9.53058e-06
4.08579e-06
1.08591e-07
2.28162e-07
9.26852e-06
1.90613e-05
2.51842e-05
2.92794e-05
3.22016e-05
3.43767e-05
3.60309e-05
3.73029e-05
3.82872e-05
3.90476e-05
3.96463e-05
4.01373e-05
4.05674e-05
4.0976e-05
4.13962e-05
4.18551e-05
4.2374e-05
4.29686e-05
4.36492e-05
4.44192e-05
4.52743e-05
4.61996e-05
4.71656e-05
4.81225e-05
4.9002e-05
4.97204e-05
5.02089e-05
5.04108e-05
5.02893e-05
4.95954e-05
4.8248e-05
4.61231e-05
4.30965e-05
3.90356e-05
3.37595e-05
2.70657e-05
1.85963e-05
7.51186e-06
1.94583e-07
3.32022e-07
1.27162e-05
2.67592e-05
3.5966e-05
4.22642e-05
4.68296e-05
5.02471e-05
5.28445e-05
5.48285e-05
5.63463e-05
5.75216e-05
5.84496e-05
5.92097e-05
5.9869e-05
6.04834e-05
6.1098e-05
6.17481e-05
6.24591e-05
6.32469e-05
6.41177e-05
6.50665e-05
6.60754e-05
6.71152e-05
6.814e-05
6.90847e-05
6.98697e-05
7.04071e-05
7.0531e-05
7.01928e-05
6.9435e-05
6.77723e-05
6.52354e-05
6.17035e-05
5.70528e-05
5.11455e-05
4.37984e-05
3.47407e-05
2.35366e-05
9.41457e-06
2.6083e-07
4.21737e-07
1.53018e-05
3.25836e-05
4.42853e-05
5.24338e-05
5.83733e-05
6.28286e-05
6.62208e-05
6.88209e-05
7.08234e-05
7.23793e-05
7.36102e-05
7.46167e-05
7.54831e-05
7.62784e-05
7.70572e-05
7.78603e-05
7.87152e-05
7.96356e-05
8.06219e-05
8.16596e-05
8.27196e-05
8.37517e-05
8.4687e-05
8.54408e-05
8.59126e-05
8.59882e-05
8.54548e-05
8.43121e-05
8.25415e-05
7.99227e-05
7.61566e-05
7.13701e-05
6.54722e-05
5.83294e-05
4.97233e-05
3.92997e-05
2.65357e-05
1.06606e-05
3.09604e-07
4.97897e-07
1.73287e-05
3.71398e-05
5.08984e-05
6.06149e-05
6.7749e-05
7.31226e-05
7.7227e-05
8.03837e-05
8.28234e-05
8.47239e-05
8.62284e-05
8.74558e-05
8.85042e-05
8.94538e-05
9.03668e-05
9.12884e-05
9.22467e-05
9.32526e-05
9.42987e-05
9.53579e-05
9.6382e-05
9.72989e-05
9.80131e-05
9.84078e-05
9.83508e-05
9.77026e-05
9.62331e-05
9.39613e-05
9.09298e-05
8.70979e-05
8.21967e-05
7.62377e-05
6.94252e-05
6.16343e-05
5.25847e-05
4.17413e-05
2.83811e-05
1.1571e-05
3.45015e-07
5.6202e-07
1.89482e-05
4.07883e-05
5.6262e-05
6.7318e-05
7.54944e-05
8.16822e-05
8.64257e-05
9.00861e-05
9.29235e-05
9.51388e-05
9.68939e-05
9.83227e-05
9.95357e-05
0.000100622
0.000101652
0.000102673
0.000103713
0.000104777
0.000105849
0.000106881
0.0001078
0.000108497
0.000108834
0.000108651
0.000107776
0.000106049
0.000103246
9.93916e-05
9.47612e-05
8.92574e-05
8.32392e-05
7.61247e-05
6.86308e-05
6.07483e-05
5.2182e-05
4.20213e-05
2.91746e-05
1.2268e-05
3.70367e-07
6.15652e-07
2.02537e-05
4.37521e-05
6.06652e-05
7.28706e-05
8.1958e-05
8.88685e-05
9.41863e-05
9.83037e-05
0.000101505
0.00010401
0.000105998
0.000107614
0.00010898
0.000110195
0.000111332
0.000112444
0.000113555
0.000114662
0.00011573
0.000116683
0.000117406
0.000117736
0.000117475
0.000116401
0.000114301
0.000111011
0.000106336
0.000100364
9.36905e-05
8.61371e-05
7.87383e-05
7.06509e-05
6.25508e-05
5.4939e-05
4.74188e-05
3.86819e-05
2.78605e-05
1.25922e-05
3.84209e-07
6.60214e-07
2.13115e-05
4.61762e-05
6.43024e-05
7.74957e-05
8.73795e-05
9.49312e-05
0.000100765
0.000105298
0.000108833
0.000111607
0.000113811
0.000115604
0.000117118
0.000118457
0.0001197
0.0001209
0.000122075
0.000123207
0.000124232
0.000125031
0.000125423
0.000125173
0.000124001
0.000121619
0.000117788
0.000112374
0.000105243
9.67172e-05
8.76658e-05
7.80366e-05
6.91159e-05
6.04804e-05
5.18842e-05
4.46211e-05
3.80708e-05
3.19814e-05
2.45788e-05
1.22438e-05
3.86822e-07
6.96947e-07
2.21692e-05
4.81625e-05
6.7312e-05
8.13544e-05
9.19334e-05
0.000100053
0.000106349
0.000111259
0.0001151
0.000118124
0.000120533
0.000122496
0.000124153
0.000125615
0.000126965
0.000128251
0.000129481
0.00013061
0.000131532
0.000132061
0.000131934
0.000130819
0.000128347
0.000124183
0.000118102
0.00011008
0.000100075
8.89727e-05
7.76699e-05
6.64205e-05
5.66468e-05
4.82205e-05
3.97994e-05
3.31637e-05
2.77786e-05
2.30691e-05
1.88251e-05
1.09958e-05
3.81192e-07
7.26946e-07
2.28625e-05
4.97861e-05
6.97977e-05
8.45681e-05
9.57524e-05
0.000104373
0.000111083
0.000116333
0.000120456
0.000123712
0.000126315
0.000128441
0.000130239
0.000131825
0.000133281
0.000134648
0.000135913
0.000136995
0.000137723
0.000137829
0.000136945
0.000134635
0.000130461
0.000124083
0.000115373
0.000104498
9.16228e-05
7.85387e-05
6.57732e-05
5.41624e-05
4.49905e-05
3.80718e-05
3.10904e-05
2.52729e-05
2.02415e-05
1.59185e-05
1.21071e-05
8.14788e-06
3.42178e-07
7.51187e-07
2.3419e-05
5.11053e-05
7.18402e-05
8.72327e-05
9.89416e-05
0.000108002
0.000115081
0.000120638
0.000125018
0.00012849
0.000131275
0.000133559
0.000135496
0.000137204
0.000138762
0.000140198
0.000141467
0.000142436
0.000142856
0.000142356
0.00014046
0.000136642
0.000130438
0.00012159
0.000110181
9.63844e-05
8.14992e-05
6.7417e-05
5.47012e-05
4.47256e-05
3.80482e-05
3.39055e-05
2.93464e-05
2.40454e-05
1.83713e-05
1.25159e-05
8.07014e-06
4.31559e-06
2.5785e-07
7.70536e-07
2.38608e-05
5.21665e-05
7.35048e-05
8.9426e-05
0.000101587
0.000111032
0.000118436
0.00012427
0.000128883
0.000132554
0.000135512
0.000137947
0.000140018
0.000141844
0.000143496
0.000144978
0.000146208
0.000146984
0.000146967
0.00014568
0.000142548
0.000136996
0.000128603
0.00011728
0.000103285
8.71351e-05
7.1644e-05
5.7754e-05
4.71149e-05
4.11781e-05
3.83226e-05
3.68986e-05
3.44255e-05
2.91593e-05
2.226e-05
1.42525e-05
6.68976e-06
2.40531e-06
1.95461e-07
7.85763e-07
2.4206e-05
5.30081e-05
7.4846e-05
9.12137e-05
0.000103763
0.000113541
0.000121231
0.00012731
0.000132134
0.000135988
0.000139106
0.000141685
0.000143884
0.000145819
0.000147549
0.000149049
0.000150186
0.000150685
0.000150112
0.000147894
0.00014339
0.000136035
0.000125526
0.000112002
9.55549e-05
7.87592e-05
6.33864e-05
5.17769e-05
4.57514e-05
4.43206e-05
4.5073e-05
4.4194e-05
4.27564e-05
3.81572e-05
3.01526e-05
2.02953e-05
9.45619e-06
2.30027e-06
2.5641e-07
7.97557e-07
2.44699e-05
5.36629e-05
7.59102e-05
9.26522e-05
0.00010553
0.000115595
0.000123534
0.000129829
0.000134841
0.000138861
0.000142126
0.000144838
0.000147156
0.000149189
0.000150976
0.00015246
0.000153452
0.000153601
0.000152387
0.000149168
0.000143282
0.000134238
0.000121931
0.00010628
8.87293e-05
7.20754e-05
5.82607e-05
5.06496e-05
4.85011e-05
5.12591e-05
5.37563e-05
5.33961e-05
5.11987e-05
4.76422e-05
4.0234e-05
2.91894e-05
1.61842e-05
4.22832e-06
8.04685e-07
8.06534e-07
2.46658e-05
5.41595e-05
7.67382e-05
9.37909e-05
0.000106946
0.000117255
0.000125408
0.00013189
0.000137068
0.000141235
0.000144634
0.000147467
0.00014989
0.000152004
0.000153826
0.000155261
0.000156065
0.000155817
0.000153934
0.000149735
0.000142586
0.000132102
0.00011834
0.00010105
8.35158e-05
6.73167e-05
5.67467e-05
5.19551e-05
5.38007e-05
5.88548e-05
6.21551e-05
6.2405e-05
5.99745e-05
5.62464e-05
5.00092e-05
3.92546e-05
2.39342e-05
8.3828e-06
2.28289e-06
8.13248e-07
2.48056e-05
5.45232e-05
7.73665e-05
9.46741e-05
0.00010806
0.000118574
0.000126908
0.00013355
0.000138871
0.000143167
0.000146684
0.000149622
0.000152136
0.000154312
0.000156146
0.000157506
0.000158096
0.000157443
0.000154923
0.000149857
0.000141679
0.000130154
0.000115006
9.73185e-05
7.99473e-05
6.51871e-05
5.69851e-05
5.469e-05
5.93516e-05
6.55269e-05
6.95475e-05
7.08872e-05
6.87114e-05
6.42431e-05
5.86883e-05
4.89368e-05
3.2571e-05
1.31663e-05
4.06008e-06
8.18199e-07
2.48997e-05
5.4777e-05
7.78277e-05
9.5342e-05
0.000108917
0.000119599
0.000128083
0.00013486
0.000140302
0.000144707
0.000148324
0.000151352
0.000153939
0.000156159
0.000157986
0.000159254
0.000159628
0.000158601
0.000155535
0.000149782
0.000140856
0.00012863
0.000112593
9.51231e-05
7.82748e-05
6.44959e-05
5.76645e-05
5.75146e-05
6.36635e-05
7.02372e-05
7.45586e-05
7.69019e-05
7.68672e-05
7.18626e-05
6.57498e-05
5.75358e-05
4.09582e-05
1.80348e-05
5.29008e-06
8.2184e-07
2.49579e-05
5.4942e-05
7.8152e-05
9.58309e-05
0.000109558
0.000120377
0.000128982
0.000135867
0.000141407
0.000145902
0.0001496
0.0001527
0.000155343
0.000157591
0.000159397
0.00016057
0.000160749
0.000159412
0.000155934
0.000149714
0.000140348
0.00012773
0.00011149
9.44766e-05
7.74432e-05
6.46066e-05
5.88505e-05
5.9708e-05
6.63073e-05
7.31706e-05
7.79025e-05
8.07192e-05
8.19474e-05
7.90296e-05
7.16502e-05
6.44364e-05
4.84217e-05
2.33396e-05
6.3332e-06
8.24585e-07
2.4989e-05
5.50376e-05
7.8367e-05
9.61745e-05
0.000110021
0.000120946
0.000129645
0.000136614
0.000142231
0.000146797
0.000150559
0.000153713
0.000156395
0.000158655
0.000160434
0.000161521
0.000161546
0.000159991
0.000156261
0.000149815
0.000140345
0.000127631
0.00011167
9.46273e-05
7.7907e-05
6.56857e-05
6.02399e-05
6.14534e-05
6.78412e-05
7.47039e-05
8.02152e-05
8.39958e-05
8.56241e-05
8.49902e-05
7.76317e-05
7.01566e-05
5.48153e-05
2.81393e-05
7.31416e-06
8.26817e-07
2.50016e-05
5.50822e-05
7.84984e-05
9.64039e-05
0.00011034
0.000121344
0.000130115
0.00013715
0.000142823
0.000147439
0.000151248
0.000154441
0.000157146
0.000159409
0.00016116
0.000162183
0.000162112
0.000160452
0.000156641
0.000150191
0.000140762
0.000128129
0.000112574
9.60593e-05
7.98185e-05
6.73907e-05
6.16831e-05
6.22244e-05
6.80241e-05
7.49259e-05
8.11933e-05
8.60792e-05
8.87915e-05
8.89429e-05
8.34287e-05
7.47861e-05
6.03466e-05
3.2896e-05
8.18991e-06
8.289e-07
2.50034e-05
5.5093e-05
7.85701e-05
9.65478e-05
0.00011055
0.00012161
0.000130423
0.000137487
0.000143184
0.000147823
0.000151651
0.00015486
0.00015758
0.000159848
0.000161586
0.000162576
0.000162455
0.000160744
0.000156953
0.000150624
0.000141503
0.000129353
0.000114617
9.87488e-05
8.29546e-05
6.99828e-05
6.34364e-05
6.26895e-05
6.73886e-05
7.41485e-05
8.11694e-05
8.73166e-05
9.12474e-05
9.20214e-05
8.8193e-05
7.8801e-05
6.47557e-05
3.67564e-05
9.03129e-06
8.31184e-07
2.50021e-05
5.50872e-05
7.86044e-05
9.66335e-05
0.000110679
0.000121769
0.000130602
0.000137684
0.000143403
0.000148062
0.000151904
0.000155119
0.000157832
0.000160081
0.000161793
0.000162766
0.000162663
0.000161045
0.000157433
0.000151416
0.000142777
0.000131343
0.000117516
0.000102431
8.71784e-05
7.39637e-05
6.59518e-05
6.35755e-05
6.67051e-05
7.29992e-05
8.07036e-05
8.81784e-05
9.32901e-05
9.47295e-05
9.19315e-05
8.23302e-05
6.84695e-05
4.03946e-05
9.83272e-06
8.34023e-07
2.50053e-05
5.50801e-05
7.86234e-05
9.66863e-05
0.000110756
0.000121859
0.000130706
0.000137803
0.000143527
0.000148184
0.000152025
0.000155239
0.000157949
0.000160194
0.000161904
0.000162888
0.000162837
0.00016135
0.000157995
0.000152417
0.000144395
0.000133845
0.000121067
0.000106936
9.2437e-05
7.93121e-05
7.00283e-05
6.59548e-05
6.68421e-05
7.23357e-05
8.05628e-05
8.92696e-05
9.53912e-05
9.73302e-05
9.46255e-05
8.53319e-05
7.13296e-05
4.33345e-05
1.05989e-05
8.3778e-07
2.50208e-05
5.50871e-05
7.86475e-05
9.67296e-05
0.000110806
0.000121908
0.000130745
0.000137819
0.000143522
0.000148163
0.000151987
0.000155186
0.000157882
0.000160118
0.000161835
0.000162859
0.000162912
0.000161632
0.000158635
0.000153592
0.000146297
0.000136711
0.000125058
0.000112009
9.8498e-05
8.5598e-05
7.56187e-05
7.02386e-05
6.94608e-05
7.31941e-05
8.15384e-05
9.10736e-05
9.76714e-05
9.94503e-05
9.65665e-05
8.77468e-05
7.34812e-05
4.58128e-05
1.13459e-05
8.42845e-07
2.50562e-05
5.51233e-05
7.86967e-05
9.67851e-05
0.000110851
0.000121929
0.000130733
0.000137773
0.000143442
0.00014805
0.000151846
0.00015502
0.000157698
0.000159928
0.000161662
0.000162751
0.000162944
0.00016192
0.000159337
0.000154895
0.000148401
0.00013982
0.000129323
0.000117434
0.000105088
9.28725e-05
8.25573e-05
7.61888e-05
7.46263e-05
7.67951e-05
8.43319e-05
9.3907e-05
0.00010025
0.000101297
9.78791e-05
8.93793e-05
7.49959e-05
4.79504e-05
1.20746e-05
8.49645e-07
2.51199e-05
5.52044e-05
7.87896e-05
9.68727e-05
0.000110911
0.000121944
0.000130695
0.00013768
0.000143295
0.000147855
0.000151608
0.000154747
0.000157402
0.000159627
0.000161388
0.000162558
0.000162921
0.000162191
0.000160063
0.000156263
0.00015061
0.000143059
0.000133736
0.000123022
0.000111927
0.00010064
9.06659e-05
8.37366e-05
8.14361e-05
8.26747e-05
8.89177e-05
9.76591e-05
0.000102976
0.000103
9.84268e-05
9.00361e-05
7.5914e-05
4.97288e-05
1.27847e-05
8.58662e-07
2.52205e-05
5.53461e-05
7.89439e-05
9.70092e-05
0.000111001
0.000121965
0.000130631
0.000137533
0.000143071
0.000147559
0.00015125
0.000154339
0.00015696
0.000159176
0.000160966
0.000162229
0.000162781
0.000162371
0.000160726
0.000157597
0.000152807
0.000146297
0.000138156
0.000128644
0.000118729
0.000108551
9.92166e-05
9.23989e-05
8.96587e-05
8.98982e-05
9.46333e-05
0.000101804
0.000105398
0.000103934
9.86239e-05
8.99489e-05
7.64831e-05
5.13149e-05
1.34854e-05
8.70457e-07
2.5368e-05
5.55645e-05
7.91747e-05
9.72045e-05
0.000111123
0.000121994
0.000130555
0.00013734
0.000142761
0.000147144
0.000150742
0.000153747
0.000156293
0.000158457
0.000160255
0.000161608
0.000162363
0.000162285
0.00016114
0.000158702
0.000154792
0.000149333
0.000142374
0.00013411
0.000125318
0.000116294
0.000107751
0.000101272
9.82337e-05
9.76201e-05
0.000100654
0.000105736
0.000107159
0.000103949
9.77914e-05
8.96535e-05
7.6623e-05
5.27736e-05
1.41651e-05
8.8571e-07
2.55735e-05
5.58759e-05
7.94921e-05
9.74556e-05
0.000111255
0.000121979
0.000130378
0.000137017
0.000142302
0.00014655
0.000150021
0.000152916
0.000155373
0.000157471
0.000159215
0.000160549
0.000161361
0.000161545
0.000160894
0.000159171
0.000156152
0.000151755
0.000145997
0.000139008
0.000131357
0.00012348
0.000115766
0.000109677
0.000106377
0.000104869
0.000106082
0.000108805
0.00010794
0.000102955
9.59544e-05
8.80329e-05
7.63801e-05
5.41206e-05
1.48292e-05
9.05256e-07
2.58505e-05
5.62948e-05
7.98942e-05
9.7732e-05
0.000111329
0.000121806
0.000129941
0.0001363
0.000141318
0.000145318
0.000148561
0.000151251
0.00015354
0.000155523
0.000157226
0.000158615
0.000159587
0.000159958
0.000159571
0.000158268
0.000156015
0.00015267
0.000148149
0.000142496
0.000136043
0.00012927
0.00012236
0.000116629
0.000113084
0.000110658
0.000109999
0.000110356
0.000107421
0.000100938
9.34379e-05
8.61094e-05
7.5908e-05
5.54236e-05
1.54698e-05
9.30287e-07
2.62161e-05
5.683e-05
8.03508e-05
9.79404e-05
0.000111172
0.000121215
0.000128888
0.000134774
0.000139318
0.000142865
0.000145681
0.000147978
0.000149918
0.00015161
0.000153104
0.000154393
0.00015541
0.000156031
0.000156087
0.000155417
0.000153831
0.000151232
0.000147564
0.000142842
0.000137306
0.000131651
0.000125689
0.000120379
0.000116718
0.000113519
0.000111138
0.000108736
0.000104261
9.76673e-05
9.02149e-05
8.36925e-05
7.51047e-05
5.65702e-05
1.60867e-05
9.62197e-07
2.66847e-05
5.74671e-05
8.07571e-05
9.78335e-05
0.000110366
0.000119624
0.000126485
0.00013156
0.000135305
0.000138078
0.000140165
0.000141785
0.000143109
0.000144258
0.000145302
0.000146259
0.000147095
0.000147727
0.000148024
0.000147834
0.000146977
0.000145314
0.000142759
0.000139282
0.000134936
0.000130246
0.000125146
0.000120144
0.000116082
0.000112062
0.000108332
0.000104537
9.92875e-05
9.18826e-05
8.55462e-05
8.08159e-05
7.408e-05
5.75142e-05
1.66867e-05
1.00497e-06
2.72727e-05
5.81179e-05
8.0793e-05
9.67623e-05
0.000107991
0.000115864
0.000121323
0.000125038
0.000127489
0.000129049
0.000130009
0.000130597
0.000130984
0.000131295
0.000131609
0.000131961
0.000132342
0.0001327
0.000132947
0.000132959
0.00013259
0.000131691
0.000130142
0.000127861
0.00012482
0.000121152
0.000117143
0.000112704
0.000108572
0.000104269
9.99129e-05
9.56215e-05
9.1228e-05
8.66139e-05
8.25659e-05
7.81925e-05
7.27349e-05
5.75336e-05
1.72816e-05
1.05715e-06
2.79826e-05
5.84418e-05
7.95727e-05
9.33697e-05
0.000102252
0.000107789
0.000111021
0.000112674
0.000113276
0.000113205
0.000112739
0.000112084
0.000111387
0.000110754
0.000110252
0.000109915
0.000109744
0.000109706
0.000109742
0.000109762
0.000109655
0.000109293
0.000108553
0.000107328
0.000105547
0.000103195
0.000100403
9.7173e-05
9.38163e-05
9.03109e-05
8.68066e-05
8.36905e-05
8.08387e-05
7.84339e-05
7.67353e-05
7.56526e-05
7.08582e-05
5.6693e-05
1.7942e-05
1.13962e-06
2.8736e-05
5.75966e-05
7.52905e-05
8.50847e-05
9.0091e-05
9.21927e-05
9.25454e-05
9.18777e-05
9.06649e-05
8.9212e-05
8.7717e-05
8.63088e-05
8.50723e-05
8.406e-05
8.3302e-05
8.28067e-05
8.25674e-05
8.25591e-05
8.27361e-05
8.30299e-05
8.33641e-05
8.36453e-05
8.37842e-05
8.36874e-05
8.32913e-05
8.2549e-05
8.1502e-05
8.01652e-05
7.86442e-05
7.70359e-05
7.54782e-05
7.42821e-05
7.31509e-05
7.25831e-05
7.2454e-05
7.25544e-05
6.85177e-05
5.53651e-05
1.83365e-05
1.2263e-06
2.90271e-05
5.38287e-05
6.45568e-05
6.83328e-05
6.89601e-05
6.81521e-05
6.67648e-05
6.52445e-05
6.38208e-05
6.26027e-05
6.16384e-05
6.09435e-05
6.052e-05
6.0359e-05
6.04505e-05
6.07783e-05
6.13373e-05
6.21244e-05
6.30872e-05
6.41602e-05
6.52944e-05
6.64295e-05
6.75238e-05
6.8519e-05
6.93875e-05
7.00903e-05
7.06922e-05
7.11705e-05
7.14966e-05
7.16791e-05
7.17242e-05
7.17914e-05
7.16427e-05
7.15703e-05
7.12181e-05
7.08543e-05
6.5698e-05
5.3479e-05
1.85207e-05
1.39632e-06
2.86597e-05
4.39969e-05
4.66802e-05
4.69378e-05
4.67052e-05
4.64596e-05
4.6375e-05
4.6508e-05
4.68634e-05
4.74227e-05
4.81631e-05
4.90595e-05
5.00913e-05
5.12366e-05
5.24805e-05
5.38087e-05
5.52319e-05
5.68476e-05
5.85588e-05
6.02708e-05
6.19531e-05
6.35752e-05
6.51326e-05
6.66001e-05
6.79797e-05
6.92492e-05
7.03729e-05
7.1314e-05
7.21102e-05
7.27792e-05
7.32673e-05
7.37359e-05
7.37593e-05
7.34917e-05
7.22423e-05
7.01938e-05
6.17555e-05
4.96101e-05
1.85386e-05
1.69235e-06
2.61372e-05
3.36128e-05
3.59774e-05
3.84406e-05
4.06145e-05
4.26234e-05
4.45256e-05
4.63376e-05
4.80678e-05
4.97261e-05
5.13219e-05
5.28622e-05
5.43509e-05
5.57906e-05
5.71806e-05
5.85254e-05
5.98436e-05
6.10528e-05
6.21631e-05
6.3203e-05
6.41837e-05
6.51161e-05
6.59984e-05
6.68378e-05
6.76279e-05
6.83821e-05
6.90792e-05
6.97313e-05
7.03067e-05
7.08677e-05
7.12987e-05
7.19126e-05
7.19289e-05
7.15429e-05
6.98988e-05
6.62695e-05
5.69054e-05
4.2099e-05
1.75313e-05
1.19853e-06
2.02168e-06
3.19947e-06
4.31295e-06
5.38138e-06
6.37145e-06
7.29615e-06
8.17719e-06
9.0301e-06
9.86148e-06
1.06741e-05
1.14673e-05
1.22424e-05
1.29989e-05
1.37367e-05
1.4458e-05
1.51573e-05
1.58436e-05
1.65064e-05
1.71474e-05
1.77563e-05
1.83417e-05
1.88907e-05
1.94163e-05
1.99038e-05
2.03658e-05
2.07909e-05
2.11844e-05
2.15443e-05
2.18533e-05
2.21317e-05
2.23169e-05
2.2471e-05
2.2511e-05
2.25085e-05
2.24556e-05
2.22393e-05
2.16983e-05
2.03516e-05
1.64384e-05
)
;

boundaryField
{
    movingWall
    {
        type            nutkWallFunction;
        Cmu             0.09;
        kappa           0.41;
        E               9.8;
        value           uniform 0;
    }
    fixedWalls
    {
        type            nutkWallFunction;
        Cmu             0.09;
        kappa           0.41;
        E               9.8;
        value           uniform 0;
    }
    frontAndBack
    {
        type            empty;
    }
}


// ************************************************************************* //
