/*--------------------------------*- C++ -*----------------------------------*\
  =========                 |
  \\      /  F ield         | OpenFOAM: The Open Source CFD Toolbox
   \\    /   O peration     | Website:  https://openfoam.org
    \\  /    A nd           | Version:  13
     \\/     M anipulation  |
\*---------------------------------------------------------------------------*/
FoamFile
{
    format      ascii;
    class       volScalarField;
    location    "1";
    object      p;
}
// * * * * * * * * * * * * * * * * * * * * * * * * * * * * * * * * * * * * * //

dimensions      [0 2 -2 0 0 0 0];

internalField   nonuniform List<scalar> 
400
(
1.5754e-08
-7.53441e-06
-6.63898e-06
3.77634e-06
2.58287e-05
6.07457e-05
0.000109568
0.000173344
0.000253132
0.000349807
0.000463506
0.000594534
0.000741222
0.000898424
0.00105942
0.00121339
0.00134656
0.001445
0.00150075
0.00151314
7.17624e-06
-1.0454e-06
1.27472e-06
1.38647e-05
3.6869e-05
7.12581e-05
0.00011828
0.00017918
0.000255154
0.000347215
0.00045602
0.000581906
0.000722974
0.000876101
0.00103516
0.0011908
0.00133049
0.00143935
0.00150381
0.00151938
4.31851e-06
-8.03695e-06
-7.63069e-06
5.09384e-06
2.81046e-05
6.14643e-05
0.000106345
0.000164161
0.000236382
0.000324425
0.000429521
0.000552439
0.000692509
0.000847948
0.00101396
0.00118247
0.00134063
0.00146925
0.00154643
0.00156332
-1.12297e-05
-2.96832e-05
-3.44126e-05
-2.45973e-05
-3.62535e-06
2.74346e-05
6.93843e-05
0.000123695
0.000192153
0.000276757
0.000379572
0.000502372
0.000645965
0.000810791
0.000993396
0.00118686
0.00137658
0.00153596
0.00163192
0.00164925
-4.22635e-05
-6.65194e-05
-7.74748e-05
-7.26779e-05
-5.58416e-05
-2.88263e-05
8.76785e-06
5.83913e-05
0.000122131
0.000202623
0.000302927
0.000426315
0.000576003
0.000753348
0.000959424
0.00118908
0.00142602
0.00163398
0.00176265
0.00178255
-8.9143e-05
-0.000118467
-0.000135681
-0.000136999
-0.000125958
-0.000104855
-7.35991e-05
-3.07848e-05
2.59236e-05
9.97561e-05
0.000194797
0.000316001
0.000469005
0.000659112
0.000891862
0.00116745
0.00147089
0.00175448
0.00193761
0.00196292
-0.000151044
-0.000184955
-0.000208342
-0.000216477
-0.000212622
-0.000199348
-0.000176831
-0.000143777
-9.77392e-05
-3.50651e-05
4.92228e-05
0.00016172
0.000310905
0.000506896
0.000761279
0.00108657
0.00147501
0.00186869
0.00213104
0.00217232
-0.000226561
-0.000264901
-0.000294526
-0.000310073
-0.000314652
-0.000311136
-0.000300044
-0.000280363
-0.000249807
-0.000204687
-0.000139646
-4.70225e-05
8.41163e-05
0.000268466
0.000524481
0.000885302
0.00135477
0.00188106
0.00224302
0.00233198
-0.000314034
-0.000356874
-0.000392904
-0.000416358
-0.000430441
-0.00043849
-0.000441553
-0.000439178
-0.000429678
-0.000409978
-0.000375311
-0.000318299
-0.000227595
-8.5623e-05
0.0001359
0.000464364
0.000929838
0.00153476
0.00205798
0.00221547
-0.000411723
-0.000459259
-0.000501824
-0.000533434
-0.000557712
-0.000578723
-0.000598294
-0.000616881
-0.000633936
-0.000647904
-0.000656062
-0.000653674
-0.000633196
-0.000584145
-0.000490909
-0.000320685
-6.79023e-06
0.000526302
0.00126785
0.00155484
-0.000518005
-0.000570431
-0.000619424
-0.000658916
-0.000693385
-0.00072793
-0.000765406
-0.000807491
-0.000855262
-0.000909597
-0.000971307
-0.00104086
-0.00111908
-0.0012118
-0.00132526
-0.0014253
-0.00139266
-0.00102964
-0.000240731
0.000323068
-0.000631621
-0.000688991
-0.000743745
-0.000789949
-0.000833504
-0.00088088
-0.00093611
-0.00100224
-0.00108218
-0.00117975
-0.00130028
-0.00145105
-0.00164355
-0.00190287
-0.00225287
-0.00265223
-0.00288741
-0.00266553
-0.00198064
-0.00115059
-0.000752284
-0.00081424
-0.000872946
-0.000923238
-0.000973256
-0.00103112
-0.00110201
-0.00119028
-0.00130031
-0.00143877
-0.00161533
-0.00184388
-0.00214292
-0.00254914
-0.00308525
-0.00368602
-0.00408677
-0.00396755
-0.0034205
-0.00236142
-0.000881101
-0.000946114
-0.00100515
-0.00105485
-0.00110686
-0.00117117
-0.00125385
-0.00136028
-0.00149511
-0.00166749
-0.00188983
-0.00218065
-0.00256109
-0.00306077
-0.00368981
-0.00436845
-0.0048462
-0.00472465
-0.00434945
-0.00304207
-0.00102439
-0.00108705
-0.00113864
-0.00117961
-0.00122698
-0.00129256
-0.00138275
-0.00150153
-0.00165464
-0.00185215
-0.00210714
-0.00243842
-0.00286795
-0.00340833
-0.00404928
-0.00469947
-0.0051935
-0.00485971
-0.00475872
-0.00304826
-0.00119107
-0.00123496
-0.00126504
-0.00128564
-0.00132082
-0.00138333
-0.00147668
-0.00160284
-0.00176835
-0.00198216
-0.00225776
-0.00261178
-0.00306055
-0.00360407
-0.00421186
-0.00476718
-0.00505021
-0.00450854
-0.00453297
-0.00201703
-0.00141261
-0.0013981
-0.00137003
-0.00135157
-0.00137334
-0.00143126
-0.00152371
-0.00165274
-0.00182507
-0.00204788
-0.00233384
-0.00269679
-0.00314485
-0.00366012
-0.00418674
-0.00456564
-0.00453686
-0.00360173
-0.00319463
0.00102334
-0.00170897
-0.0015535
-0.00141681
-0.00135616
-0.00136422
-0.0014173
-0.00150817
-0.00163776
-0.00181328
-0.0020431
-0.00233654
-0.00270213
-0.00314025
-0.00360334
-0.0039991
-0.00407882
-0.0036668
-0.0020748
-0.000368808
0.00764536
-0.00243693
-0.00196898
-0.00172541
-0.00161829
-0.00159651
-0.00162892
-0.00170357
-0.00181829
-0.00197673
-0.00218942
-0.00246794
-0.00281636
-0.00323459
-0.0036429
-0.00394117
-0.00380449
-0.0027683
-0.000237261
0.00388687
0.0176442
-0.00106984
0.000927895
0.000743175
0.000476901
0.000293139
0.000125721
-7.02113e-05
-0.000300756
-0.000565005
-0.000867275
-0.00122379
-0.00163686
-0.00209031
-0.00252889
-0.00277631
-0.00260335
-0.00143736
0.001753
0.00804523
0.0216642
)
;

boundaryField
{
    movingWall
    {
        type            zeroGradient;
    }
    fixedWalls
    {
        type            zeroGradient;
    }
    frontAndBack
    {
        type            empty;
    }
}


// ************************************************************************* //
