/*--------------------------------*- C++ -*----------------------------------*\
  =========                 |
  \\      /  F ield         | OpenFOAM: The Open Source CFD Toolbox
   \\    /   O peration     | Website:  https://openfoam.org
    \\  /    A nd           | Version:  13
     \\/     M anipulation  |
\*---------------------------------------------------------------------------*/
FoamFile
{
    format      ascii;
    class       volVectorField;
    location    "1";
    object      U;
}
// * * * * * * * * * * * * * * * * * * * * * * * * * * * * * * * * * * * * * //

dimensions      [0 1 -1 0 0 0 0];

internalField   nonuniform List<vector> 
1600
(
(8.16913e-05 -8.21449e-05 0)
(4.37169e-05 6.0027e-06 0)
(-0.000353893 0.000137827 0)
(-0.00103194 0.000239595 0)
(-0.00188364 0.000299208 0)
(-0.00283733 0.000331832 0)
(-0.00384993 0.000349835 0)
(-0.0048974 0.000360242 0)
(-0.00596691 0.000367111 0)
(-0.00705233 0.000372934 0)
(-0.00815152 0.000379287 0)
(-0.00926461 0.000387134 0)
(-0.0103928 0.000396982 0)
(-0.0115374 0.000408956 0)
(-0.012699 0.000422828 0)
(-0.0138764 0.000438006 0)
(-0.015066 0.000453501 0)
(-0.0162609 0.000467852 0)
(-0.0174496 0.000479042 0)
(-0.0186154 0.000484402 0)
(-0.0197348 0.000480545 0)
(-0.020776 0.000463078 0)
(-0.0216999 0.000425504 0)
(-0.0224736 0.000359466 0)
(-0.0230245 0.000268874 0)
(-0.0232663 0.000181871 0)
(-0.0232652 2.06841e-05 0)
(-0.0228302 -0.0001559 0)
(-0.0219908 -0.000357609 0)
(-0.0207022 -0.000570403 0)
(-0.0189679 -0.000777125 0)
(-0.0168205 -0.000957891 0)
(-0.0143305 -0.00109637 0)
(-0.0116059 -0.00118166 0)
(-0.00876935 -0.00119131 0)
(-0.00598774 -0.00110512 0)
(-0.00345715 -0.000899347 0)
(-0.00141316 -0.000554504 0)
(-0.000122791 -0.00012622 0)
(0.000182245 0.000160435 0)
(-1.2379e-05 -4.40578e-05 0)
(-0.000471514 0.000465556 0)
(-0.00135542 0.00101218 0)
(-0.00251313 0.00138991 0)
(-0.00385257 0.00161637 0)
(-0.00530267 0.00174788 0)
(-0.0068242 0.00182552 0)
(-0.00839344 0.00187348 0)
(-0.00999591 0.00190588 0)
(-0.0116231 0.00193095 0)
(-0.0132701 0.00195343 0)
(-0.0149337 0.00197575 0)
(-0.0166113 0.00199856 0)
(-0.0182995 0.00202095 0)
(-0.0199934 0.0020406 0)
(-0.0216851 0.00205375 0)
(-0.0233634 0.00205519 0)
(-0.0250122 0.00203821 0)
(-0.0266098 0.00199458 0)
(-0.0281284 0.00191464 0)
(-0.0295332 0.00178756 0)
(-0.0307822 0.00160179 0)
(-0.031828 0.00134531 0)
(-0.0326213 0.00100676 0)
(-0.033104 0.000584569 0)
(-0.0332093 8.79944e-05 0)
(-0.0328932 -0.000499775 0)
(-0.0321031 -0.00116463 0)
(-0.0308135 -0.00187689 0)
(-0.0290071 -0.00260396 0)
(-0.0266979 -0.00330179 0)
(-0.0239244 -0.00392129 0)
(-0.0207565 -0.00440639 0)
(-0.0172985 -0.0047031 0)
(-0.0136925 -0.00476334 0)
(-0.0100975 -0.00453208 0)
(-0.0066952 -0.00394532 0)
(-0.00370909 -0.00293277 0)
(-0.00133579 -0.00149522 0)
(-2.52965e-05 -9.6502e-05 0)
(-0.000164386 0.000372247 0)
(-0.00104284 0.00135723 0)
(-0.00218202 0.00216149 0)
(-0.00349658 0.0027061 0)
(-0.0049484 0.0030525 0)
(-0.00649442 0.0032703 0)
(-0.00811242 0.00340973 0)
(-0.00978572 0.0035025 0)
(-0.0115017 0.00356831 0)
(-0.0132512 0.00361928 0)
(-0.015028 0.00366238 0)
(-0.0168267 0.00370085 0)
(-0.0186421 0.00373502 0)
(-0.0204682 0.0037627 0)
(-0.0222972 0.00377934 0)
(-0.0241184 0.00377804 0)
(-0.0259178 0.00374958 0)
(-0.0276768 0.00368245 0)
(-0.0293717 0.00356297 0)
(-0.030973 0.00337559 0)
(-0.0324451 0.00310352 0)
(-0.0337462 0.00272952 0)
(-0.0348296 0.00223719 0)
(-0.0356445 0.00161332 0)
(-0.0361353 0.000852551 0)
(-0.0362439 -4.33007e-05 0)
(-0.0359163 -0.00107362 0)
(-0.0351046 -0.00221302 0)
(-0.0337761 -0.00342211 0)
(-0.0319129 -0.00464532 0)
(-0.0295234 -0.00581328 0)
(-0.0266473 -0.00684658 0)
(-0.0233594 -0.00766053 0)
(-0.019768 -0.00817362 0)
(-0.0160099 -0.00831293 0)
(-0.0122359 -0.00801284 0)
(-0.00860265 -0.00720656 0)
(-0.00529338 -0.00581613 0)
(-0.00240236 -0.00374841 0)
(-0.000265133 -0.00108803 0)
(-0.000292145 0.00109688 0)
(-0.00145341 0.00251368 0)
(-0.0027442 0.00346728 0)
(-0.00414428 0.004114 0)
(-0.00564142 0.0045498 0)
(-0.00721052 0.00484364 0)
(-0.00884372 0.00504542 0)
(-0.0105328 0.00518868 0)
(-0.0122694 0.00529553 0)
(-0.014046 0.00538008 0)
(-0.0158564 0.00545058 0)
(-0.0176945 0.00551067 0)
(-0.0195545 0.00556019 0)
(-0.0214292 0.00559566 0)
(-0.0233102 0.00561038 0)
(-0.0251863 0.00559449 0)
(-0.0270433 0.00553504 0)
(-0.0288629 0.00541604 0)
(-0.0306223 0.00521871 0)
(-0.0322934 0.00492197 0)
(-0.0338422 0.00450323 0)
(-0.0352287 0.00393962 0)
(-0.0364072 0.00320972 0)
(-0.0373265 0.00229624 0)
(-0.0379298 0.00118942 0)
(-0.0381565 -0.000111282 0)
(-0.0379463 -0.00159501 0)
(-0.0372429 -0.00323236 0)
(-0.0360003 -0.00497041 0)
(-0.0341882 -0.00673207 0)
(-0.0318018 -0.00842042 0)
(-0.0288696 -0.00992014 0)
(-0.0254653 -0.01111 0)
(-0.0217029 -0.0118767 0)
(-0.0177294 -0.0121252 0)
(-0.0137084 -0.0117841 0)
(-0.00980423 -0.0108 0)
(-0.00620001 -0.00911106 0)
(-0.00296019 -0.00652756 0)
(-0.000379857 -0.00252631 0)
(-0.000372593 0.0020182 0)
(-0.00170512 0.00384447 0)
(-0.00309439 0.00489042 0)
(-0.00455653 0.00559623 0)
(-0.00608616 0.00609398 0)
(-0.00766639 0.00644956 0)
(-0.00929927 0.00670869 0)
(-0.010984 0.00690327 0)
(-0.0127168 0.00705523 0)
(-0.014493 0.00717899 0)
(-0.0163079 0.00728296 0)
(-0.0181564 0.00737067 0)
(-0.0200331 0.00744138 0)
(-0.0219316 0.00749031 0)
(-0.023844 0.00750886 0)
(-0.0257605 0.00748453 0)
(-0.0276684 0.007401 0)
(-0.0295513 0.0072382 0)
(-0.0313889 0.00697259 0)
(-0.0331558 0.00657769 0)
(-0.0348206 0.00602495 0)
(-0.0363457 0.0052852 0)
(-0.037686 0.00433064 0)
(-0.038789 0.00313766 0)
(-0.0395941 0.00169049 0)
(-0.0400335 -1.52281e-05 0)
(-0.0400356 -0.00196718 0)
(-0.0395271 -0.00413214 0)
(-0.0384397 -0.00644604 0)
(-0.0367187 -0.00881144 0)
(-0.0343364 -0.0111012 0)
(-0.031302 -0.0131568 0)
(-0.0276826 -0.0148078 0)
(-0.0236071 -0.0158974 0)
(-0.0192522 -0.016299 0)
(-0.0148251 -0.0159309 0)
(-0.0105382 -0.0147597 0)
(-0.00661405 -0.0127493 0)
(-0.0031239 -0.00960612 0)
(-0.000375804 -0.00414499 0)
(-0.000416635 0.00305662 0)
(-0.00184424 0.00527496 0)
(-0.00329458 0.0063831 0)
(-0.00480069 0.00711978 0)
(-0.00635544 0.00765654 0)
(-0.00794413 0.00805876 0)
(-0.00957415 0.00836725 0)
(-0.0112501 0.00861047 0)
(-0.0129723 0.0088085 0)
(-0.0147395 0.00897483 0)
(-0.0165491 0.00911736 0)
(-0.018398 0.00923912 0)
(-0.0202827 0.00933859 0)
(-0.0221983 0.00940988 0)
(-0.0241391 0.00944272 0)
(-0.0260976 0.00942238 0)
(-0.0280638 0.00932965 0)
(-0.0300248 0.00914079 0)
(-0.031964 0.00882778 0)
(-0.0338597 0.00835872 0)
(-0.0356841 0.00769866 0)
(-0.037402 0.00681099 0)
(-0.0389693 0.0056595 0)
(-0.0403316 0.00421146 0)
(-0.0414226 0.00244167 0)
(-0.0421642 0.000337544 0)
(-0.0424678 -0.0020942 0)
(-0.0422365 -0.00482153 0)
(-0.04137 -0.00777385 0)
(-0.0397768 -0.0108356 0)
(-0.0373899 -0.0138449 0)
(-0.034192 -0.0165919 0)
(-0.0302327 -0.0188335 0)
(-0.0256634 -0.0203461 0)
(-0.0207177 -0.0209496 0)
(-0.0156904 -0.0205381 0)
(-0.0108966 -0.0191 0)
(-0.00663874 -0.016646 0)
(-0.00299908 -0.0127993 0)
(-0.000288127 -0.00573896 0)
(-0.000436714 0.00415621 0)
(-0.00190937 0.00675889 0)
(-0.00339234 0.00791827 0)
(-0.0049252 0.00867111 0)
(-0.00649627 0.00923146 0)
(-0.00808994 0.0096677 0)
(-0.00971574 0.0100171 0)
(-0.0113816 0.0103047 0)
(-0.0130914 0.0105481 0)
(-0.0148467 0.0107592 0)
(-0.0166478 0.0109449 0)
(-0.018494 0.0111076 0)
(-0.0203843 0.0112449 0)
(-0.0223164 0.01135 0)
(-0.0242877 0.0114113 0)
(-0.0262939 0.0114124 0)
(-0.0283291 0.0113315 0)
(-0.0303848 0.0111417 0)
(-0.0324492 0.0108108 0)
(-0.0345056 0.0103012 0)
(-0.0365306 0.00957092 0)
(-0.0384925 0.00857438 0)
(-0.0403488 0.00726455 0)
(-0.0420433 0.005596 0)
(-0.043504 0.00352936 0)
(-0.0446407 0.00103754 0)
(-0.045345 -0.00188622 0)
(-0.0454902 -0.00521961 0)
(-0.0449344 -0.00889397 0)
(-0.0435362 -0.0127796 0)
(-0.0411656 -0.0166799 0)
(-0.0377592 -0.0203182 0)
(-0.0333354 -0.0233493 0)
(-0.0280576 -0.0254384 0)
(-0.0222472 -0.026308 0)
(-0.0163481 -0.0257909 0)
(-0.0108619 -0.0238981 0)
(-0.00623727 -0.0207472 0)
(-0.00257188 -0.0159527 0)
(-0.000120818 -0.00713802 0)
(-0.000441377 0.00527918 0)
(-0.0019257 0.00826455 0)
(-0.00341927 0.00947468 0)
(-0.00496306 0.0102381 0)
(-0.00654052 0.0108134 0)
(-0.00813386 0.0112749 0)
(-0.00975279 0.0116585 0)
(-0.0114071 0.0119865 0)
(-0.0131032 0.0122743 0)
(-0.0148452 0.012532 0)
(-0.0166362 0.0127655 0)
(-0.0184785 0.0129764 0)
(-0.0203735 0.0131617 0)
(-0.0223228 0.013314 0)
(-0.0243269 0.0134208 0)
(-0.0263861 0.0134644 0)
(-0.0284993 0.0134212 0)
(-0.0306635 0.0132615 0)
(-0.0328728 0.0129491 0)
(-0.0351165 0.0124408 0)
(-0.0373773 0.0116866 0)
(-0.0396284 0.0106306 0)
(-0.0418304 0.00921229 0)
(-0.0439275 0.00736979 0)
(-0.0458438 0.00504419 0)
(-0.0474789 0.00218638 0)
(-0.0487051 -0.00123351 0)
(-0.0493632 -0.00521491 0)
(-0.0492632 -0.00970523 0)
(-0.0481966 -0.0145721 0)
(-0.0459449 -0.019591 0)
(-0.0423536 -0.0244023 0)
(-0.0373862 -0.0285238 0)
(-0.0311766 -0.0314364 0)
(-0.0241449 -0.0326829 0)
(-0.0169568 -0.0319567 0)
(-0.0104206 -0.0292992 0)
(-0.00528159 -0.025004 0)
(-0.0017257 -0.0188529 0)
(0.000162563 -0.00816252 0)
(-0.000436582 0.00640164 0)
(-0.0019084 0.00976806 0)
(-0.00339594 0.0110343 0)
(-0.00493672 0.0118083 0)
(-0.00651039 0.0123945 0)
(-0.00809672 0.0128761 0)
(-0.00970456 0.0132893 0)
(-0.0113445 0.0136547 0)
(-0.0130247 0.0139861 0)
(-0.0147515 0.0142923 0)
(-0.0165305 0.0145783 0)
(-0.0183668 0.014845 0)
(-0.0202651 0.0150893 0)
(-0.0222305 0.0153034 0)
(-0.0242678 0.0154746 0)
(-0.0263821 0.0155845 0)
(-0.028578 0.0156086 0)
(-0.0308587 0.0155148 0)
(-0.0332255 0.0152632 0)
(-0.035675 0.0148051 0)
(-0.0381975 0.0140823 0)
(-0.0407735 0.0130272 0)
(-0.0433699 0.011564 0)
(-0.0459358 0.00961105 0)
(-0.0483968 0.007085 0)
(-0.0506495 0.00390708 0)
(-0.0525528 1.29905e-05 0)
(-0.0539206 -0.00463448 0)
(-0.0545165 -0.0100201 0)
(-0.0540486 -0.0160342 0)
(-0.0521825 -0.0224435 0)
(-0.0486119 -0.0288081 0)
(-0.0431849 -0.0344639 0)
(-0.0359236 -0.0386217 0)
(-0.0272916 -0.04051 0)
(-0.0181968 -0.0395262 0)
(-0.00991877 -0.0356264 0)
(-0.00382191 -0.0294283 0)
(-0.000384404 -0.0212204 0)
(0.000537861 -0.00848555 0)
(-0.000424771 0.00750599 0)
(-0.00186727 0.0112524 0)
(-0.00333594 0.0125824 0)
(-0.00486159 0.0133699 0)
(-0.00642156 0.0139662 0)
(-0.00799338 0.0144652 0)
(-0.00958457 0.0149051 0)
(-0.0112059 0.0153061 0)
(-0.0128665 0.015681 0)
(-0.0145746 0.0160377 0)
(-0.0163381 0.0163807 0)
(-0.0181647 0.0167109 0)
(-0.0200625 0.0170253 0)
(-0.0220402 0.0173164 0)
(-0.0241072 0.017572 0)
(-0.0262738 0.0177739 0)
(-0.0285506 0.017897 0)
(-0.030948 0.017908 0)
(-0.033475 0.017764 0)
(-0.0361373 0.0174112 0)
(-0.0389346 0.0167833 0)
(-0.0418579 0.0158011 0)
(-0.0448855 0.0143731 0)
(-0.0479785 0.0123966 0)
(-0.051075 0.00976086 0)
(-0.0540815 0.00635145 0)
(-0.0568604 0.00205889 0)
(-0.0592181 -0.0032111 0)
(-0.0608907 -0.00950771 0)
(-0.0614983 -0.0167898 0)
(-0.0605725 -0.0248575 0)
(-0.0575938 -0.0332192 0)
(-0.0521806 -0.0410027 0)
(-0.0441221 -0.0471009 0)
(-0.0337509 -0.0502532 0)
(-0.0221404 -0.0492633 0)
(-0.0110086 -0.0436387 0)
(-0.00270093 -0.0343282 0)
(0.00118452 -0.0229204 0)
(0.00102021 -0.007989 0)
(-0.000407039 0.0085784 0)
(-0.00180906 0.0127059 0)
(-0.00324827 0.0141071 0)
(-0.00474827 0.0149122 0)
(-0.00628513 0.0155197 0)
(-0.00783452 0.0160353 0)
(-0.0094025 0.0165005 0)
(-0.0109995 0.016936 0)
(-0.0126353 0.0173545 0)
(-0.0143195 0.0177637 0)
(-0.016062 0.0181682 0)
(-0.0178728 0.0185691 0)
(-0.0197633 0.0189644 0)
(-0.0217457 0.0193475 0)
(-0.023834 0.0197075 0)
(-0.0260438 0.0200269 0)
(-0.0283919 0.0202815 0)
(-0.0308962 0.0204376 0)
(-0.0335741 0.0204503 0)
(-0.0364414 0.020262 0)
(-0.0395098 0.0197996 0)
(-0.0427847 0.0189744 0)
(-0.0462624 0.0176809 0)
(-0.0499264 0.0157979 0)
(-0.0537424 0.0131884 0)
(-0.0576489 0.00970159 0)
(-0.0615395 0.00517645 0)
(-0.0652585 -0.000553662 0)
(-0.0685503 -0.00763302 0)
(-0.0709719 -0.0161504 0)
(-0.0719157 -0.0260035 0)
(-0.0705937 -0.0367249 0)
(-0.0662573 -0.0473065 0)
(-0.0583852 -0.0563446 0)
(-0.046936 -0.0619708 0)
(-0.0327863 -0.0620543 0)
(-0.0176363 -0.0550078 0)
(-0.00456014 -0.0412614 0)
(0.00197829 -0.0245978 0)
(0.00145995 -0.00669109 0)
(-0.000384973 0.00960979 0)
(-0.00173811 0.0141189 0)
(-0.0031389 0.0155981 0)
(-0.00460411 0.0164257 0)
(-0.00610906 0.0170465 0)
(-0.007628 0.017579 0)
(-0.00916546 0.0180688 0)
(-0.0107313 0.0185383 0)
(-0.0123356 0.0190006 0)
(-0.0139889 0.019464 0)
(-0.0157026 0.0199337 0)
(-0.0174889 0.0204118 0)
(-0.0193618 0.0208976 0)
(-0.0213371 0.0213865 0)
(-0.0234329 0.0218692 0)
(-0.0256697 0.0223306 0)
(-0.0280706 0.0227477 0)
(-0.0306606 0.023088 0)
(-0.0334659 0.0233064 0)
(-0.0365133 0.0233431 0)
(-0.0398284 0.0231217 0)
(-0.0434353 0.0225479 0)
(-0.0473557 0.0215084 0)
(-0.0516075 0.0198702 0)
(-0.0562025 0.0174787 0)
(-0.0611359 0.0141557 0)
(-0.0663776 0.00969338 0)
(-0.0718643 0.00384817 0)
(-0.0773804 -0.00366905 0)
(-0.0824457 -0.0131171 0)
(-0.0862486 -0.0246641 0)
(-0.0877704 -0.0381116 0)
(-0.0857927 -0.0525533 0)
(-0.0794929 -0.0659245 0)
(-0.06833 -0.0754725 0)
(-0.0529592 -0.0785006 0)
(-0.0341131 -0.0719083 0)
(-0.0141745 -0.0537898 0)
(1.45358e-05 -0.0286288 0)
(0.00159852 -0.00545083 0)
(-0.000359763 0.0105931 0)
(-0.00165731 0.0154835 0)
(-0.00301204 0.017047 0)
(-0.00443441 0.0179016 0)
(-0.00589926 0.0185382 0)
(-0.00737976 0.0190884 0)
(-0.00887898 0.0196026 0)
(-0.010406 0.0201055 0)
(-0.0119708 0.0206116 0)
(-0.0135845 0.0211302 0)
(-0.0152595 0.0216677 0)
(-0.0170098 0.022228 0)
(-0.0188517 0.0228121 0)
(-0.0208037 0.0234179 0)
(-0.0228875 0.0240391 0)
(-0.025128 0.0246633 0)
(-0.0275537 0.0252705 0)
(-0.030196 0.0258303 0)
(-0.0330899 0.0262996 0)
(-0.0362728 0.0266197 0)
(-0.039786 0.0267155 0)
(-0.0436754 0.0264939 0)
(-0.0479938 0.0258435 0)
(-0.0528036 0.0246329 0)
(-0.058176 0.022706 0)
(-0.0641852 0.0198769 0)
(-0.0709234 0.0159146 0)
(-0.0784141 0.0104766 0)
(-0.0864077 0.00303595 0)
(-0.0942314 -0.00711094 0)
(-0.100653 -0.0207063 0)
(-0.104101 -0.0378457 0)
(-0.103655 -0.0569155 0)
(-0.0997276 -0.0752397 0)
(-0.0912591 -0.0900289 0)
(-0.0771623 -0.0975887 0)
(-0.0578515 -0.0941539 0)
(-0.0334831 -0.075048 0)
(-0.00727225 -0.0389979 0)
(0.00163226 -0.00605742 0)
(-0.000332246 0.0115231 0)
(-0.00156872 0.016793 0)
(-0.00287083 0.0184462 0)
(-0.00424324 0.0193322 0)
(-0.00566041 0.019987 0)
(-0.0070947 0.0205556 0)
(-0.00854773 0.0210939 0)
(-0.0100276 0.0216295 0)
(-0.0115438 0.0221786 0)
(-0.0131078 0.0227523 0)
(-0.0147324 0.0233586 0)
(-0.016433 0.0240036 0)
(-0.0182271 0.024691 0)
(-0.0201356 0.0254216 0)
(-0.0221827 0.0261926 0)
(-0.0243968 0.0269955 0)
(-0.0268102 0.0278139 0)
(-0.02946 0.0286216 0)
(-0.032388 0.0293794 0)
(-0.035642 0.0300341 0)
(-0.0392783 0.0305173 0)
(-0.0433647 0.0307462 0)
(-0.047987 0.0306236 0)
(-0.0532527 0.0300351 0)
(-0.0592897 0.0288435 0)
(-0.0662604 0.0268752 0)
(-0.0743287 0.0238599 0)
(-0.0834668 0.0192141 0)
(-0.0931557 0.0118717 0)
(-0.101884 0.000289386 0)
(-0.107631 -0.0163653 0)
(-0.109783 -0.0366944 0)
(-0.109508 -0.0582984 0)
(-0.107005 -0.0795269 0)
(-0.101735 -0.0988377 0)
(-0.0926764 -0.113287 0)
(-0.0777282 -0.116916 0)
(-0.0551604 -0.102525 0)
(-0.0226609 -0.0613489 0)
(0.00157531 -0.0120582 0)
(-0.000303072 0.0123954 0)
(-0.00147397 0.018042 0)
(-0.00271789 0.0197894 0)
(-0.00403408 0.0207104 0)
(-0.00539664 0.0213854 0)
(-0.0067773 0.0219728 0)
(-0.00817617 0.0225344 0)
(-0.00960016 0.0231011 0)
(-0.0110582 0.0236915 0)
(-0.0125613 0.0243185 0)
(-0.0141225 0.0249927 0)
(-0.0157574 0.0257223 0)
(-0.0174847 0.0265143 0)
(-0.0193262 0.027373 0)
(-0.0213076 0.0282995 0)
(-0.0234591 0.0292897 0)
(-0.0258157 0.0303321 0)
(-0.0284176 0.0314057 0)
(-0.0313118 0.0324781 0)
(-0.0345538 0.033505 0)
(-0.0382118 0.0344313 0)
(-0.0423721 0.0351928 0)
(-0.0471469 0.0357173 0)
(-0.0526759 0.0359207 0)
(-0.0591319 0.0356944 0)
(-0.0667251 0.0348723 0)
(-0.0755825 0.0330054 0)
(-0.0854895 0.0290277 0)
(-0.0953434 0.0209894 0)
(-0.103118 0.006923 0)
(-0.107509 -0.0128631 0)
(-0.10921 -0.0355584 0)
(-0.109162 -0.0589981 0)
(-0.1071 -0.0825027 0)
(-0.103119 -0.104757 0)
(-0.0964508 -0.123347 0)
(-0.0860872 -0.134097 0)
(-0.0693589 -0.128919 0)
(-0.0424159 -0.0956888 0)
(-0.00047644 -0.0247608 0)
(-0.000272818 0.0132069 0)
(-0.00137458 0.0192256 0)
(-0.00255565 0.0210708 0)
(-0.00381021 0.0220299 0)
(-0.00511196 0.0227265 0)
(-0.00643207 0.0233325 0)
(-0.00776907 0.0239159 0)
(-0.00912852 0.0245111 0)
(-0.0105184 0.0251395 0)
(-0.0119488 0.0258164 0)
(-0.0134325 0.0265547 0)
(-0.014985 0.0273657 0)
(-0.0166245 0.0282595 0)
(-0.0183732 0.0292442 0)
(-0.0202568 0.0303251 0)
(-0.0223058 0.0315028 0)
(-0.0245555 0.0327713 0)
(-0.0270471 0.0341159 0)
(-0.0298295 0.0355129 0)
(-0.0329617 0.0369302 0)
(-0.0365184 0.0383302 0)
(-0.0405961 0.0396735 0)
(-0.0453192 0.0409189 0)
(-0.0508379 0.0420156 0)
(-0.0573457 0.042883 0)
(-0.0650224 0.0432849 0)
(-0.0738954 0.04244 0)
(-0.0834463 0.0385807 0)
(-0.0921314 0.0289767 0)
(-0.0980862 0.0121327 0)
(-0.10098 -0.0102088 0)
(-0.101979 -0.0348982 0)
(-0.101616 -0.0603117 0)
(-0.0998992 -0.0855401 0)
(-0.0968685 -0.109428 0)
(-0.0919996 -0.13058 0)
(-0.0841853 -0.145627 0)
(-0.072077 -0.148517 0)
(-0.0514374 -0.125893 0)
(-0.00982179 -0.0492495 0)
(-0.000242035 0.0139555 0)
(-0.00127205 0.0203403 0)
(-0.0023866 0.022286 0)
(-0.00357507 0.0232853 0)
(-0.00481064 0.0240041 0)
(-0.00606395 0.0246276 0)
(-0.00733188 0.0252302 0)
(-0.00861839 0.0258502 0)
(-0.00993011 0.0265116 0)
(-0.0112761 0.0272327 0)
(-0.0126681 0.0280288 0)
(-0.0141206 0.0289144 0)
(-0.0156509 0.0299026 0)
(-0.0172801 0.0310054 0)
(-0.0190327 0.0322322 0)
(-0.0209375 0.0335882 0)
(-0.0230281 0.035073 0)
(-0.0253438 0.0366789 0)
(-0.0279315 0.0383915 0)
(-0.0308487 0.0401924 0)
(-0.0341688 0.0420634 0)
(-0.0379864 0.0439908 0)
(-0.0424186 0.0459627 0)
(-0.0476074 0.0479569 0)
(-0.0537163 0.0498942 0)
(-0.0608488 0.0513689 0)
(-0.0689002 0.0511697 0)
(-0.0771117 0.0467857 0)
(-0.0838854 0.0352064 0)
(-0.0878768 0.015819 0)
(-0.0894796 -0.00847366 0)
(-0.0898289 -0.0345038 0)
(-0.0892563 -0.0609003 0)
(-0.0879798 -0.0869665 0)
(-0.0859444 -0.112084 0)
(-0.0825276 -0.13541 0)
(-0.0762242 -0.1548 0)
(-0.0664833 -0.163337 0)
(-0.0489737 -0.151706 0)
(-0.0187715 -0.0909962 0)
(-0.000211297 0.01464 0)
(-0.00116804 0.0213834 0)
(-0.00221348 0.0234313 0)
(-0.00333244 0.0244721 0)
(-0.00449746 0.0252127 0)
(-0.00567863 0.0258517 0)
(-0.00687101 0.0264698 0)
(-0.00807681 0.0271092 0)
(-0.00930104 0.0277972 0)
(-0.0105513 0.0285545 0)
(-0.0118377 0.0293993 0)
(-0.0131731 0.0303488 0)
(-0.0145733 0.0314194 0)
(-0.0160569 0.0326264 0)
(-0.017646 0.0339831 0)
(-0.0193661 0.0354988 0)
(-0.0212468 0.0371781 0)
(-0.0233227 0.0390198 0)
(-0.0256348 0.0410187 0)
(-0.0282335 0.043169 0)
(-0.0311823 0.0454701 0)
(-0.0345613 0.0479297 0)
(-0.0384625 0.0505571 0)
(-0.0429992 0.0533466 0)
(-0.0482661 0.056172 0)
(-0.0542774 0.0584019 0)
(-0.0608476 0.0584002 0)
(-0.0672044 0.053119 0)
(-0.0719977 0.0396247 0)
(-0.0744649 0.0182208 0)
(-0.075334 -0.007487 0)
(-0.0754351 -0.034499 0)
(-0.0749554 -0.0616008 0)
(-0.07414 -0.0882266 0)
(-0.0729383 -0.114182 0)
(-0.0707201 -0.139217 0)
(-0.0660018 -0.161956 0)
(-0.0576163 -0.176162 0)
(-0.0425753 -0.174816 0)
(-0.0156502 -0.131671 0)
(-0.000181218 0.0152604 0)
(-0.00106439 0.0223533 0)
(-0.00203939 0.0245042 0)
(-0.00308662 0.0255869 0)
(-0.00417791 0.026348 0)
(-0.00528267 0.0269994 0)
(-0.00639405 0.027628 0)
(-0.00751231 0.0282802 0)
(-0.00864059 0.0289862 0)
(-0.00978461 0.0297696 0)
(-0.0109526 0.0306511 0)
(-0.0121553 0.0316505 0)
(-0.0134059 0.0327871 0)
(-0.01472 0.034079 0)
(-0.0161159 0.0355424 0)
(-0.0176146 0.0371904 0)
(-0.0192397 0.0390312 0)
(-0.0210187 0.0410689 0)
(-0.0229833 0.0433055 0)
(-0.0251717 0.0457449 0)
(-0.0276303 0.0483987 0)
(-0.030414 0.0512878 0)
(-0.0335781 0.0544307 0)
(-0.0371869 0.0578202 0)
(-0.0412633 0.061243 0)
(-0.04575 0.0638584 0)
(-0.0504725 0.0637482 0)
(-0.0548461 0.0575506 0)
(-0.0579231 0.0425705 0)
(-0.0593848 0.0197981 0)
(-0.059941 -0.00685089 0)
(-0.0600805 -0.0345098 0)
(-0.0598924 -0.0620043 0)
(-0.0595832 -0.0888841 0)
(-0.0591946 -0.115265 0)
(-0.0581861 -0.141453 0)
(-0.0551777 -0.16683 0)
(-0.0480242 -0.186297 0)
(-0.0365192 -0.190945 0)
(-0.0125873 -0.159417 0)
(-0.000152475 0.0158177 0)
(-0.000963241 0.02325 0)
(-0.00186786 0.0255036 0)
(-0.00284255 0.0266276 0)
(-0.00385827 0.027407 0)
(-0.00488366 0.0280663 0)
(-0.00590982 0.0286992 0)
(-0.00693491 0.0293559 0)
(-0.00796003 0.0300698 0)
(-0.00898881 0.0308669 0)
(-0.0100272 0.0317706 0)
(-0.0110834 0.0328029 0)
(-0.0121676 0.0339851 0)
(-0.0132917 0.0353378 0)
(-0.0144694 0.0368793 0)
(-0.0157161 0.0386247 0)
(-0.0170484 0.0405849 0)
(-0.0184847 0.042767 0)
(-0.0200452 0.0451771 0)
(-0.0217524 0.0478243 0)
(-0.023631 0.0507253 0)
(-0.0257047 0.0539032 0)
(-0.0279876 0.0573715 0)
(-0.0304843 0.0610992 0)
(-0.0331776 0.0648018 0)
(-0.0359407 0.0675097 0)
(-0.0386761 0.0671265 0)
(-0.0411255 0.0602376 0)
(-0.0427919 0.0444069 0)
(-0.0436239 0.0209351 0)
(-0.0441329 -0.00624527 0)
(-0.0445259 -0.0342906 0)
(-0.0448233 -0.0619576 0)
(-0.0451739 -0.0889123 0)
(-0.0456019 -0.115517 0)
(-0.0457153 -0.142537 0)
(-0.0442845 -0.170072 0)
(-0.0387555 -0.195073 0)
(-0.0309331 -0.204961 0)
(-0.0114368 -0.183815 0)
(-0.000125825 0.0163147 0)
(-0.000867043 0.0240749 0)
(-0.00170297 0.02643 0)
(-0.00260589 0.0275937 0)
(-0.00354575 0.0283878 0)
(-0.00449026 0.0290497 0)
(-0.00542839 0.0296792 0)
(-0.00635612 0.0303307 0)
(-0.00727238 0.0310405 0)
(-0.00817859 0.0318373 0)
(-0.0090783 0.0327465 0)
(-0.00997689 0.0337919 0)
(-0.0108812 0.0349966 0)
(-0.0117992 0.0363824 0)
(-0.0127397 0.0379689 0)
(-0.0137118 0.039772 0)
(-0.0147247 0.0418033 0)
(-0.015787 0.0440707 0)
(-0.0169065 0.0465806 0)
(-0.0180891 0.0493419 0)
(-0.0193365 0.0523686 0)
(-0.0206416 0.0556757 0)
(-0.0219797 0.0592628 0)
(-0.0233033 0.0630738 0)
(-0.0245857 0.0668187 0)
(-0.025537 0.0691707 0)
(-0.0263036 0.068551 0)
(-0.0270044 0.0613731 0)
(-0.0274628 0.0453792 0)
(-0.0278508 0.0218494 0)
(-0.0284586 -0.00545188 0)
(-0.029271 -0.033621 0)
(-0.0302469 -0.0612612 0)
(-0.0314758 -0.0881037 0)
(-0.032897 -0.114769 0)
(-0.0341763 -0.142342 0)
(-0.0341985 -0.171433 0)
(-0.0310441 -0.200775 0)
(-0.0245197 -0.21689 0)
(-0.00902436 -0.202801 0)
(-0.000102128 0.0167556 0)
(-0.000778623 0.0248313 0)
(-0.00154939 0.0272855 0)
(-0.00238311 0.0284862 0)
(-0.00324849 0.0292904 0)
(-0.00411218 0.029948 0)
(-0.00496099 0.0305651 0)
(-0.00578864 0.0312002 0)
(-0.00659196 0.0318927 0)
(-0.00737013 0.0326735 0)
(-0.00812429 0.0335697 0)
(-0.008857 0.0346068 0)
(-0.00957182 0.0358089 0)
(-0.0102727 0.0371982 0)
(-0.0109636 0.0387943 0)
(-0.0116474 0.0406128 0)
(-0.0123261 0.0426641 0)
(-0.0129988 0.0449544 0)
(-0.0136615 0.0474871 0)
(-0.0143044 0.050266 0)
(-0.0149085 0.0532958 0)
(-0.0154404 0.0565764 0)
(-0.0158434 0.0600847 0)
(-0.016028 0.0637265 0)
(-0.0158742 0.0671557 0)
(-0.0153042 0.0691122 0)
(-0.0143282 0.068188 0)
(-0.0133622 0.0610799 0)
(-0.0126823 0.045576 0)
(-0.0126515 0.0226273 0)
(-0.0134044 -0.00434825 0)
(-0.014743 -0.0323203 0)
(-0.0165527 -0.0596998 0)
(-0.0188269 -0.0862593 0)
(-0.021419 -0.112869 0)
(-0.0239291 -0.140921 0)
(-0.0254009 -0.171549 0)
(-0.0243871 -0.204024 0)
(-0.0202064 -0.225859 0)
(-0.00785351 -0.217939 0)
(-8.23693e-05 0.0171465 0)
(-0.000701253 0.0255245 0)
(-0.00141248 0.0280743 0)
(-0.0021815 0.029308 0)
(-0.00297562 0.0301164 0)
(-0.00376021 0.0307614 0)
(-0.0045199 0.0313558 0)
(-0.00524631 0.031962 0)
(-0.00593422 0.0326225 0)
(-0.00658074 0.0333704 0)
(-0.00718474 0.0342343 0)
(-0.0077462 0.0352406 0)
(-0.00826562 0.0364138 0)
(-0.00874329 0.0377761 0)
(-0.00917861 0.0393461 0)
(-0.00956931 0.0411378 0)
(-0.00991046 0.0431589 0)
(-0.0101934 0.0454119 0)
(-0.0104037 0.0478942 0)
(-0.010519 0.0506005 0)
(-0.0105044 0.0535217 0)
(-0.0103075 0.0566373 0)
(-0.00985038 0.0598955 0)
(-0.00901905 0.0631619 0)
(-0.007667 0.0660536 0)
(-0.0057711 0.0675729 0)
(-0.00337928 0.0662748 0)
(-0.000955169 0.0594876 0)
(0.000839402 0.0449657 0)
(0.00135 0.0231621 0)
(0.000494553 -0.00293567 0)
(-0.00139266 -0.030292 0)
(-0.00411573 -0.0571331 0)
(-0.00752104 -0.0832421 0)
(-0.01135 -0.1097 0)
(-0.015104 -0.138155 0)
(-0.0179776 -0.170103 0)
(-0.0187116 -0.205426 0)
(-0.0162759 -0.233029 0)
(-0.00640971 -0.231042 0)
(-6.77049e-05 0.0174958 0)
(-0.000638739 0.0261621 0)
(-0.00129838 0.0288027 0)
(-0.00200934 0.030064 0)
(-0.00273727 0.0308689 0)
(-0.00344608 0.0314917 0)
(-0.00411835 0.0320514 0)
(-0.00474375 0.032615 0)
(-0.00531526 0.0332278 0)
(-0.00582823 0.0339248 0)
(-0.00627964 0.0347362 0)
(-0.0066673 0.035689 0)
(-0.00698908 0.0368076 0)
(-0.00724217 0.0381131 0)
(-0.00742226 0.0396228 0)
(-0.00752269 0.0413477 0)
(-0.00753336 0.0432922 0)
(-0.00743943 0.0454531 0)
(-0.00721934 0.0478204 0)
(-0.00684195 0.0503775 0)
(-0.00626247 0.0530991 0)
(-0.00541803 0.0559427 0)
(-0.0042217 0.0588281 0)
(-0.00255467 0.06159 0)
(-0.000284205 0.0638494 0)
(0.00262917 0.0647828 0)
(0.00608829 0.0630971 0)
(0.00958626 0.0567257 0)
(0.0123106 0.0435066 0)
(0.0134183 0.023376 0)
(0.0126621 -0.00127655 0)
(0.0102928 -0.027539 0)
(0.00667229 -0.0535325 0)
(0.00215944 -0.0790287 0)
(-0.0028653 -0.105268 0)
(-0.00784029 -0.134124 0)
(-0.0120163 -0.16732 0)
(-0.0141908 -0.204953 0)
(-0.0134452 -0.238122 0)
(-0.00547969 -0.241161 0)
(-5.95068e-05 0.0178141 0)
(-0.000595569 0.0267548 0)
(-0.00121419 0.0294796 0)
(-0.00187598 0.0307611 0)
(-0.00254463 0.0315531 0)
(-0.00318244 0.032142 0)
(-0.00377011 0.0326537 0)
(-0.0042957 0.0331594 0)
(-0.00475088 0.0337076 0)
(-0.00512974 0.0343355 0)
(-0.00542785 0.0350743 0)
(-0.00564142 0.0359512 0)
(-0.00576637 0.0369902 0)
(-0.00579756 0.0382112 0)
(-0.00572793 0.039629 0)
(-0.00554768 0.0412518 0)
(-0.00524317 0.0430793 0)
(-0.00479571 0.0451024 0)
(-0.00417964 0.0473028 0)
(-0.00335975 0.049652 0)
(-0.00228773 0.0521087 0)
(-0.00089894 0.05461 0)
(0.000890618 0.0570519 0)
(0.00318888 0.0592491 0)
(0.00610414 0.0608409 0)
(0.0096694 0.061141 0)
(0.0137644 0.0590826 0)
(0.0179404 0.0530286 0)
(0.0213342 0.0412088 0)
(0.0229808 0.0231793 0)
(0.0224525 0.000533515 0)
(0.0197978 -0.0241825 0)
(0.0154572 -0.0490167 0)
(0.0100207 -0.073737 0)
(0.0039693 -0.0996879 0)
(-0.00209524 -0.128926 0)
(-0.00740525 -0.163378 0)
(-0.0106986 -0.203321 0)
(-0.0116828 -0.241707 0)
(-0.00445918 -0.250545 0)
(-5.94797e-05 0.0181156 0)
(-0.000577137 0.0273161 0)
(-0.00116814 0.0301161 0)
(-0.00179199 0.0314082 0)
(-0.00240997 0.0321756 0)
(-0.00298264 0.0327167 0)
(-0.00348918 0.0331649 0)
(-0.00391664 0.0335962 0)
(-0.004256 0.0340623 0)
(-0.00450079 0.0346024 0)
(-0.0046459 0.0352488 0)
(-0.00468662 0.0360286 0)
(-0.00461772 0.036965 0)
(-0.00443258 0.0380764 0)
(-0.0041225 0.0393749 0)
(-0.00367583 0.0408655 0)
(-0.00307714 0.0425432 0)
(-0.00230616 0.0443932 0)
(-0.00133628 0.046389 0)
(-0.000132478 0.0484914 0)
(0.00135151 0.0506452 0)
(0.00317495 0.0527708 0)
(0.00541051 0.0547474 0)
(0.00814364 0.0563811 0)
(0.0114523 0.0573373 0)
(0.015348 0.0570425 0)
(0.0197019 0.0546352 0)
(0.0241235 0.0488743 0)
(0.027838 0.0383613 0)
(0.0298546 0.0225061 0)
(0.0295511 0.00225482 0)
(0.0268076 -0.020469 0)
(0.0220547 -0.0438339 0)
(0.016001 -0.0676085 0)
(0.00920138 -0.0931753 0)
(0.00228757 -0.12274 0)
(-0.00394174 -0.158425 0)
(-0.00807089 -0.200697 0)
(-0.0104364 -0.243752 0)
(-0.00377484 -0.258371 0)
(-6.98418e-05 0.0184177 0)
(-0.000589971 0.0278634 0)
(-0.00117001 0.0307266 0)
(-0.00176952 0.0320164 0)
(-0.00234679 0.032744 0)
(-0.00286065 0.0332208 0)
(-0.00328945 0.0335878 0)
(-0.00362003 0.0339265 0)
(-0.00384368 0.0342922 0)
(-0.00395433 0.034726 0)
(-0.00394698 0.0352609 0)
(-0.00381684 0.035924 0)
(-0.00355833 0.0367373 0)
(-0.00316431 0.0377174 0)
(-0.00262538 0.0388739 0)
(-0.00192945 0.0402084 0)
(-0.0010607 0.0417117 0)
(6.35317e-07 0.043364 0)
(0.00127947 0.0451317 0)
(0.00280749 0.0469671 0)
(0.00462437 0.0488044 0)
(0.00677877 0.0505526 0)
(0.00932675 0.0520817 0)
(0.012327 0.0531984 0)
(0.0158251 0.0536009 0)
(0.0198046 0.0528124 0)
(0.0241287 0.0501462 0)
(0.0284551 0.0446713 0)
(0.0321355 0.0353287 0)
(0.0342658 0.0215312 0)
(0.0341246 0.00375444 0)
(0.031454 -0.016678 0)
(0.0265968 -0.0383112 0)
(0.0202574 -0.0609633 0)
(0.0130163 -0.0860061 0)
(0.0054961 -0.115783 0)
(-0.00148076 -0.152672 0)
(-0.00626343 -0.197387 0)
(-0.00994446 -0.244804 0)
(-0.00309979 -0.265878 0)
(-9.35418e-05 0.018743 0)
(-0.000642341 0.0284181 0)
(-0.0012317 0.0313283 0)
(-0.00182265 0.0325983 0)
(-0.00236988 0.0332667 0)
(-0.00283083 0.0336588 0)
(-0.0031841 0.0339243 0)
(-0.00341742 0.0341505 0)
(-0.00352391 0.034397 0)
(-0.0034992 0.0347062 0)
(-0.0033392 0.0351118 0)
(-0.00303996 0.0356407 0)
(-0.00259643 0.0363135 0)
(-0.00200171 0.0371446 0)
(-0.00124663 0.0381413 0)
(-0.000319826 0.0393021 0)
(0.000794016 0.0406146 0)
(0.0021127 0.0420544 0)
(0.00365707 0.0435832 0)
(0.00545333 0.0451471 0)
(0.00753215 0.0466737 0)
(0.00992863 0.0480662 0)
(0.0126797 0.0491924 0)
(0.0158174 0.0498676 0)
(0.0193563 0.0498252 0)
(0.0232537 0.0486736 0)
(0.0273648 0.0458701 0)
(0.0313867 0.040718 0)
(0.0347842 0.0324286 0)
(0.0367931 0.020499 0)
(0.0367152 0.00509659 0)
(0.0342027 -0.0129847 0)
(0.0294778 -0.0327364 0)
(0.0231413 -0.0541024 0)
(0.0157365 -0.0784671 0)
(0.0078587 -0.108282 0)
(0.000291046 -0.14624 0)
(-0.00496455 -0.193464 0)
(-0.0097479 -0.245144 0)
(-0.00238062 -0.272912 0)
(-0.000134679 0.0191202 0)
(-0.000745091 0.0290069 0)
(-0.00136805 0.0319417 0)
(-0.00196799 0.0331679 0)
(-0.00249542 0.0337518 0)
(-0.0029074 0.0340342 0)
(-0.00318469 0.0341747 0)
(-0.00331722 0.0342669 0)
(-0.00330211 0.0343747 0)
(-0.00313848 0.0345415 0)
(-0.00282382 0.0348019 0)
(-0.00235607 0.0351817 0)
(-0.00173145 0.0356997 0)
(-0.000944004 0.0363683 0)
(1.45643e-05 0.0371924 0)
(0.00115479 0.038168 0)
(0.00248971 0.0392805 0)
(0.00403421 0.0405019 0)
(0.00580511 0.0417911 0)
(0.00782147 0.0430911 0)
(0.0101037 0.0443265 0)
(0.0126725 0.0453999 0)
(0.0155458 0.0461828 0)
(0.0187317 0.0465047 0)
(0.0222171 0.0461345 0)
(0.0259389 0.0447538 0)