/*--------------------------------*- C++ -*----------------------------------*\
  =========                 |
  \\      /  F ield         | OpenFOAM: The Open Source CFD Toolbox
   \\    /   O peration     | Website:  https://openfoam.org
    \\  /    A nd           | Version:  13
     \\/     M anipulation  |
\*---------------------------------------------------------------------------*/
FoamFile
{
    format      ascii;
    class       volVectorField;
    location    "1";
    object      U;
}
// * * * * * * * * * * * * * * * * * * * * * * * * * * * * * * * * * * * * * //

dimensions      [0 1 -1 0 0 0 0];

internalField   nonuniform List<vector> 
400
(
(-0.000104678 0.000110312 0)
(-0.000827638 0.000524708 0)
(-0.0022136 0.000785376 0)
(-0.00377217 0.000866665 0)
(-0.00537359 0.000860166 0)
(-0.00693132 0.000818023 0)
(-0.0083996 0.000758963 0)
(-0.00974686 0.000686422 0)
(-0.0109413 0.000595747 0)
(-0.0119419 0.00047726 0)
(-0.0127031 0.000316553 0)
(-0.0131087 0.000141302 0)
(-0.0131584 -0.000118151 0)
(-0.012689 -0.000418353 0)
(-0.0116585 -0.000754978 0)
(-0.0100202 -0.00109518 0)
(-0.00781316 -0.00137067 0)
(-0.00521141 -0.00145544 0)
(-0.002531 -0.00117944 0)
(-0.00061862 -0.000582972 0)
(-0.000506308 0.000824814 0)
(-0.00173 0.0017716 0)
(-0.00332282 0.00228815 0)
(-0.00504609 0.00247565 0)
(-0.00680478 0.00247598 0)
(-0.00853047 0.00237547 0)
(-0.0101722 0.00221291 0)
(-0.0116853 0.00199844 0)
(-0.0130256 0.00172519 0)
(-0.0141445 0.00137601 0)
(-0.0149857 0.000928453 0)
(-0.0154741 0.000370657 0)
(-0.0155382 -0.000315562 0)
(-0.0150925 -0.00113156 0)
(-0.0140648 -0.00203917 0)
(-0.0124069 -0.00296023 0)
(-0.0101236 -0.00374444 0)
(-0.0073209 -0.00414302 0)
(-0.00422889 -0.00383718 0)
(-0.00133247 -0.00256904 0)
(-0.000789053 0.00217991 0)
(-0.00226786 0.00334976 0)
(-0.00392408 0.00394172 0)
(-0.005657 0.00418145 0)
(-0.00741261 0.00418761 0)
(-0.00914649 0.00404079 0)
(-0.0108164 0.00378315 0)
(-0.0123783 0.00342748 0)
(-0.0137874 0.00296579 0)
(-0.0149956 0.00237623 0)
(-0.0159476 0.00163042 0)
(-0.0165764 0.000702925 0)
(-0.0168075 -0.000429439 0)
(-0.0165545 -0.00176496 0)
(-0.0157247 -0.00325979 0)
(-0.0142297 -0.00480917 0)
(-0.0120057 -0.00621349 0)
(-0.0090712 -0.00715797 0)
(-0.00556585 -0.00724048 0)
(-0.00189886 -0.00579516 0)
(-0.000909903 0.00374128 0)
(-0.00253517 0.00506691 0)
(-0.00426868 0.00566928 0)
(-0.00603958 0.00592298 0)
(-0.00781557 0.0059272 0)
(-0.00957172 0.00574521 0)
(-0.0112807 0.00541306 0)
(-0.0129083 0.00494163 0)
(-0.0144174 0.00432036 0)
(-0.0157663 0.00352219 0)
(-0.0169058 0.00250977 0)
(-0.0177742 0.00124392 0)
(-0.0182943 -0.00031065 0)
(-0.0183641 -0.00216536 0)
(-0.0178506 -0.00429127 0)
(-0.0165918 -0.00658383 0)
(-0.0144087 -0.00881879 0)
(-0.0111975 -0.0106082 0)
(-0.00700421 -0.0113765 0)
(-0.00239976 -0.00979299 0)
(-0.000950097 0.00541514 0)
(-0.0026616 0.00688434 0)
(-0.00447692 0.00747436 0)
(-0.00631421 0.0077192 0)
(-0.00814547 0.00771336 0)
(-0.00995747 0.00750438 0)
(-0.0117377 0.00711926 0)
(-0.0134665 0.00656446 0)
(-0.0151196 0.00582568 0)
(-0.0166682 0.00486977 0)
(-0.0180756 0.00364835 0)
(-0.0192889 0.00210389 0)
(-0.020229 0.000176598 0)
(-0.0207777 -0.00217822 0)
(-0.0207521 -0.00498099 0)
(-0.019884 -0.00817195 0)
(-0.0178243 -0.0115433 0)
(-0.014255 -0.0146276 0)
(-0.00904136 -0.0165313 0)
(-0.00306315 -0.0148081 0)
(-0.000961822 0.00713941 0)
(-0.00273034 0.00877658 0)
(-0.00462475 0.0093582 0)
(-0.00654184 0.00958609 0)
(-0.00845118 0.00956655 0)
(-0.0103451 0.00933951 0)
(-0.012224 0.00892528 0)
(-0.0140842 0.00832639 0)
(-0.0159194 0.00752515 0)
(-0.0177204 0.00648216 0)
(-0.0194709 0.00513653 0)
(-0.0211357 0.00340726 0)
(-0.0226452 0.0011963 0)
(-0.0238769 -0.00160525 0)
(-0.0246023 -0.00510721 0)
(-0.0244241 -0.00936959 0)
(-0.0227446 -0.0142891 0)
(-0.0188564 -0.0193746 0)
(-0.0121914 -0.0231802 0)
(-0.00408812 -0.0213067 0)
(-0.000968261 0.0088919 0)
(-0.00278414 0.0107346 0)
(-0.00475534 0.0113238 0)
(-0.00675696 0.0115377 0)
(-0.00875444 0.0115069 0)
(-0.0107427 0.011273 0)
(-0.0127334 0.0108555 0)
(-0.0147402 0.0102567 0)
(-0.0167787 0.00945844 0)
(-0.0188659 0.00841755 0)
(-0.021016 0.00706141 0)
(-0.0232271 0.00528327 0)
(-0.0254617 0.00293338 0)
(-0.0276175 -0.000188865 0)
(-0.0294486 -0.00432797 0)
(-0.0304322 -0.00978587 0)
(-0.0296287 -0.0167423 0)
(-0.0256322 -0.024914 0)
(-0.0170388 -0.032034 0)
(-0.00575493 -0.029981 0)
(-0.000979184 0.0106712 0)
(-0.002844 0.0127569 0)
(-0.00489175 0.0133716 0)
(-0.00697731 0.013578 0)
(-0.0090616 0.0135401 0)
(-0.011141 0.0133109 0)
(-0.0132378 0.0129161 0)
(-0.0153837 0.0123638 0)
(-0.0176188 0.0116414 0)
(-0.0199925 0.010708 0)
(-0.0225602 0.00948519 0)
(-0.0253716 0.00784447 0)
(-0.0284487 0.00558272 0)
(-0.0317419 0.00239037 0)
(-0.0350564 -0.00218799 0)
(-0.0377931 -0.00880815 0)
(-0.038586 -0.0182947 0)
(-0.0347316 -0.0311714 0)
(-0.023886 -0.0439907 0)
(-0.00877259 -0.0419991 0)
(-0.000999605 0.0124872 0)
(-0.00292181 0.0148476 0)
(-0.00504743 0.0155006 0)
(-0.00721173 0.015702 0)
(-0.00937044 0.0156576 0)
(-0.0115209 0.0154399 0)
(-0.0136955 0.0150888 0)
(-0.0159431 0.0146261 0)
(-0.0183293 0.0140521 0)
(-0.0209375 0.0133382 0)
(-0.0238699 0.0124122 0)
(-0.0272386 0.0111369 0)
(-0.0311489 0.00927028 0)
(-0.035661 0.00639898 0)
(-0.0406598 0.00180553 0)
(-0.0455321 -0.00577763 0)
(-0.0485849 -0.0186095 0)
(-0.0442858 -0.0388986 0)
(-0.0312989 -0.0593675 0)
(-0.0139071 -0.0602033 0)
(-0.0010339 0.0143568 0)
(-0.0030277 0.0170146 0)
(-0.00523354 0.0177082 0)
(-0.00746622 0.0178968 0)
(-0.00967495 0.0178359 0)
(-0.0118579 0.0176255 0)
(-0.014056 0.0173272 0)
(-0.0163334 0.0169834 0)
(-0.0187767 0.0166163 0)
(-0.021498 0.0162196 0)
(-0.0246393 0.0157425 0)
(-0.0283653 0.0150568 0)
(-0.0328507 0.0139013 0)
(-0.0382431 0.0117635 0)
(-0.0445158 0.00756245 0)
(-0.0508872 -0.00113804 0)
(-0.0542124 -0.0189257 0)
(-0.049612 -0.048969 0)
(-0.0341851 -0.078358 0)
(-0.0195982 -0.0859743 0)
(-0.0010889 0.0163047 0)
(-0.00317539 0.0192699 0)
(-0.00546377 0.0199896 0)
(-0.00774727 0.0201401 0)
(-0.00996717 0.0200354 0)
(-0.0121228 0.0198101 0)
(-0.0142628 0.0195531 0)
(-0.0164613 0.0193324 0)
(-0.0188165 0.0191966 0)
(-0.0214539 0.0191691 0)
(-0.0245299 0.0192295 0)
(-0.0282235 0.0192683 0)
(-0.0327151 0.0190051 0)
(-0.0381541 0.0177824 0)
(-0.0445007 0.0139313 0)
(-0.0505384 0.00337645 0)
(-0.0527133 -0.0204638 0)
(-0.0468979 -0.0586256 0)
(-0.0333311 -0.0982055 0)
(-0.0173224 -0.1149 0)
(-0.00117617 0.018372 0)
(-0.0033852 0.0216308 0)
(-0.00575584 0.0223358 0)
(-0.00805998 0.0223969 0)
(-0.0102319 0.0221971 0)
(-0.0122754 0.0219108 0)
(-0.0142467 0.0216562 0)
(-0.0162244 0.0215267 0)
(-0.0183045 0.0215953 0)
(-0.0206029 0.0219115 0)
(-0.0232532 0.0224788 0)
(-0.0263921 0.023196 0)
(-0.0301187 0.0237281 0)
(-0.0344888 0.0231948 0)
(-0.0392774 0.0191511 0)
(-0.0431895 0.00606293 0)
(-0.0429912 -0.0227044 0)
(-0.037346 -0.0655308 0)
(-0.0293645 -0.111901 0)
(-0.0132747 -0.140327 0)
(-0.0013223 0.0206034 0)
(-0.00368825 0.0241119 0)
(-0.00612856 0.0247251 0)
(-0.00839652 0.0246105 0)
(-0.0104278 0.0242345 0)
(-0.0122402 0.0238154 0)
(-0.0139014 0.0234962 0)
(-0.0154898 0.0233879 0)
(-0.0170863 0.0235754 0)
(-0.0187734 0.0241192 0)
(-0.0206301 0.0250239 0)
(-0.0227152 0.0261668 0)
(-0.0249917 0.0271078 0)
(-0.0273687 0.0266916 0)
(-0.0295559 0.0218668 0)
(-0.0306583 0.00665172 0)
(-0.0291283 -0.0244854 0)
(-0.0255102 -0.0690339 0)
(-0.0240316 -0.119435 0)
(-0.00903767 -0.160797 0)
(-0.0015404 0.0231529 0)
(-0.00411295 0.026743 0)
(-0.00658155 0.0271114 0)
(-0.00870311 0.0266834 0)
(-0.0104427 0.026019 0)
(-0.011854 0.0253745 0)
(-0.0130274 0.024904 0)
(-0.0140374 0.0247181 0)
(-0.0149408 0.0248945 0)
(-0.0157741 0.025483 0)
(-0.0165506 0.0264654 0)
(-0.0172631 0.0276766 0)
(-0.0177079 0.0284619 0)
(-0.0178576 0.0276432 0)
(-0.0174282 0.0219055 0)
(-0.0162963 0.00574096 0)
(-0.0148706 -0.0252476 0)
(-0.0129455 -0.0699382 0)
(-0.0176003 -0.122216 0)
(-0.00409373 -0.176718 0)
(-0.00199424 0.0259404 0)
(-0.00473846 0.0294471 0)
(-0.0070765 0.0293506 0)
(-0.00881367 0.0284245 0)
(-0.0100052 0.0273419 0)
(-0.0107635 0.0263822 0)
(-0.0112387 0.0256686 0)
(-0.0114542 0.02531 0)
(-0.0114528 0.02533 0)
(-0.011229 0.0257607 0)
(-0.0107386 0.0265438 0)
(-0.00991036 0.0274293 0)
(-0.00862739 0.0277834 0)
(-0.00679296 0.0262493 0)
(-0.00444902 0.0199027 0)
(-0.00204492 0.00405833 0)
(-0.00176183 -0.0252182 0)
(-0.000591127 -0.0683809 0)
(-0.011565 -0.121647 0)
(0.000881326 -0.188561 0)
(-0.00245304 0.0298075 0)
(-0.0055131 0.0322898 0)
(-0.00736876 0.0312236 0)
(-0.00821443 0.0295397 0)
(-0.00847675 0.0279344 0)
(-0.00830271 0.0265978 0)
(-0.00777562 0.0255893 0)
(-0.00692804 0.0249406 0)
(-0.00575867 0.0246793 0)
(-0.00424881 0.0247879 0)
(-0.00233817 0.0251729 0)
(3.48046e-05 0.0255608 0)
(0.00291047 0.0253267 0)
(0.00625407 0.0232132 0)
(0.00967407 0.0168403 0)
(0.0122442 0.00246021 0)
(0.0113339 -0.0239648 0)
(0.0118872 -0.0642634 0)
(-0.00683004 -0.118431 0)
(0.00719012 -0.195765 0)
(-0.0042462 0.0332681 0)
(-0.00684146 0.0344924 0)
(-0.0067884 0.0320242 0)
(-0.00616052 0.0294755 0)
(-0.00484969 0.0273696 0)
(-0.00311908 0.0256447 0)
(-0.00103557 0.0242842 0)
(0.00136779 0.0232897 0)
(0.00413294 0.0226591 0)
(0.00726633 0.0223636 0)
(0.010803 0.0222927 0)
(0.0147536 0.0221902 0)
(0.0190358 0.0215311 0)
(0.0234644 0.0192655 0)
(0.0273606 0.0136051 0)
(0.0297412 0.00142918 0)
(0.0275734 -0.0205115 0)
(0.0266091 -0.0565493 0)
(-0.0015154 -0.11092 0)
(0.0168587 -0.193635 0)
(-0.00572912 0.0431253 0)
(-0.00583404 0.036742 0)
(-0.00320073 0.0320264 0)
(0.000293541 0.0287436 0)
(0.00429596 0.0261041 0)
(0.00856787 0.0239318 0)
(0.0130658 0.0221733 0)
(0.0177478 0.0207841 0)
(0.0225885 0.0197261 0)
(0.0276869 0.0189495 0)
(0.0330299 0.0183962 0)
(0.0385853 0.0178902 0)
(0.0441446 0.017078 0)
(0.0495027 0.0151279 0)
(0.0535637 0.0109965 0)
(0.0560938 0.00213538 0)
(0.0529189 -0.0141454 0)
(0.0492753 -0.0442982 0)
(0.0102383 -0.0934757 0)
(0.0337362 -0.174119 0)
(-0.00378415 0.0347146 0)
(0.000311427 0.0213965 0)
(0.00900325 0.017358 0)
(0.0179921 0.0147377 0)
(0.0267525 0.0126787 0)
(0.0351531 0.0109638 0)
(0.0432216 0.00964026 0)
(0.0510099 0.00868841 0)
(0.0585494 0.00802574 0)
(0.0658968 0.00758149 0)
(0.073067 0.00731315 0)
(0.0801999 0.0070983 0)
(0.0869468 0.00679682 0)
(0.0934698 0.0057874 0)
(0.0981856 0.00381954 0)
(0.100867 -0.00131514 0)
(0.0975185 -0.00985669 0)
(0.0912968 -0.0296696 0)
(0.0459667 -0.0645452 0)
(0.0692309 -0.133576 0)
(0.0484411 0.0660953 0)
(0.053491 0.0421957 0)
(0.0805613 0.0303422 0)
(0.100017 0.0245483 0)
(0.11461 0.0209482 0)
(0.126799 0.0182694 0)
(0.137521 0.0161389 0)
(0.14722 0.0144504 0)
(0.155933 0.0130952 0)
(0.164036 0.0120678 0)
(0.171391 0.0112177 0)
(0.178604 0.0104667 0)
(0.184899 0.0101722 0)
(0.191292 0.00883932 0)
(0.195758 0.0084634 0)
(0.199167 0.00455844 0)
(0.196773 0.00106142 0)
(0.187982 -0.00640335 0)
(0.1478 -0.0220498 0)
(0.144588 -0.12935 0)
)
;

boundaryField
{
    movingWall
    {
        type            fixedValue;
        value           uniform (1 0 0);
    }
    fixedWalls
    {
        type            noSlip;
    }
    frontAndBack
    {
        type            empty;
    }
}


// ************************************************************************* //
