/*--------------------------------*- C++ -*----------------------------------*\
  =========                 |
  \\      /  F ield         | OpenFOAM: The Open Source CFD Toolbox
   \\    /   O peration     | Website:  https://openfoam.org
    \\  /    A nd           | Version:  13
     \\/     M anipulation  |
\*---------------------------------------------------------------------------*/
FoamFile
{
    format      ascii;
    class       volScalarField;
    location    "9.3";
    object      epsilon;
}
// * * * * * * * * * * * * * * * * * * * * * * * * * * * * * * * * * * * * * //

dimensions      [0 2 -3 0 0 0 0];

internalField   nonuniform List<scalar> 
6400
(
2.91252e-05
0.000149621
0.00036401
0.000586171
0.000753039
0.000846149
0.000879376
0.000881931
0.000886821
0.000918757
0.000997128
0.0011513
0.00139466
0.00173214
0.00214529
0.0026107
0.00310413
0.0036158
0.00412159
0.00461007
0.00510267
0.0056426
0.00628752
0.00706975
0.00795347
0.00884176
0.00972566
0.0106034
0.0115028
0.0124477
0.013424
0.0144006
0.0153612
0.0163104
0.0172703
0.0182475
0.0192608
0.0203166
0.0214271
0.0225952
0.0238295
0.0251393
0.0265321
0.0280229
0.0296269
0.031401
0.0334551
0.0360228
0.0385255
0.0410998
0.0436011
0.0460288
0.0482962
0.0503445
0.052096
0.0534459
0.0541129
0.0543734
0.0541792
0.0530787
0.0511802
0.0485001
0.0450623
0.0410208
0.0364401
0.0315664
0.0266292
0.0218123
0.0172923
0.013294
0.0100273
0.00728858
0.00507901
0.0033953
0.00218429
0.00135874
0.000820064
0.000472554
0.000224151
4.7858e-05
0.000140693
0.000141457
0.000231774
0.000335663
0.000413292
0.00046012
0.000483093
0.000493512
0.000505487
0.000532822
0.000590467
0.000699217
0.000875851
0.00113324
0.00147492
0.00190164
0.00241506
0.00302164
0.0037272
0.00454194
0.00547319
0.00656463
0.00786738
0.00940464
0.0111644
0.0131757
0.0152362
0.0172114
0.0189938
0.0204884
0.0216159
0.0224789
0.0230617
0.0234596
0.0237114
0.0238761
0.0239937
0.0240982
0.0242114
0.0243541
0.0245488
0.0247993
0.0251013
0.0254343
0.0258253
0.0263112
0.0268736
0.0275193
0.0282312
0.0289798
0.0297619
0.0305327
0.0312739
0.0319347
0.0324726
0.0327489
0.0328285
0.0326761
0.0322345
0.031373
0.0301473
0.0285132
0.0264849
0.0241374
0.0215579
0.018853
0.0161395
0.013528
0.0111055
0.00896837
0.00715629
0.00560025
0.00426394
0.00313056
0.00219395
0.00143809
0.000878534
0.000494742
0.000258006
0.000252761
0.000307542
0.000257864
0.000345401
0.000433691
0.000486498
0.000513032
0.000527544
0.000544394
0.000579052
0.000650129
0.00078223
0.00100451
0.00134483
0.00182324
0.00245232
0.00324391
0.00421041
0.00536619
0.00672129
0.00828283
0.0100576
0.0120059
0.014037
0.01599
0.0176759
0.0188507
0.0195523
0.0199284
0.0201143
0.0202511
0.0203168
0.0202152
0.0199017
0.0196085
0.0193038
0.0190426
0.0188337
0.0187172
0.0186731
0.0186771
0.0188089
0.0190105
0.0193226
0.0197549
0.0202979
0.0209264
0.0216378
0.0224262
0.023286
0.0242012
0.0251612
0.0261412
0.0271179
0.0280544
0.0289104
0.0296364
0.0301396
0.0303479
0.0303522
0.0299509
0.0290988
0.0277918
0.0260201
0.0238833
0.0214714
0.0188857
0.0162508
0.0136814
0.0112815
0.00913236
0.00727892
0.00571954
0.00442858
0.00336748
0.0024986
0.00179804
0.00122355
0.00076701
0.000476048
0.00067606
0.00053411
0.000444723
0.000544075
0.000628537
0.000671825
0.000694038
0.000716408
0.000760432
0.000849928
0.00101718
0.00130296
0.00175059
0.00239574
0.00325988
0.00435246
0.00567746
0.00723323
0.00899726
0.0109123
0.0128807
0.0147634
0.0164121
0.0176703
0.0183273
0.0185977
0.0186587
0.0185803
0.0182119
0.017645
0.0170409
0.016386
0.0158772
0.0154882
0.0151583
0.0149138
0.0147706
0.0147107
0.014703
0.0148076
0.0149876
0.0152612
0.0156137
0.0160556
0.0165815
0.017191
0.0178822
0.0186564
0.0195119
0.0204468
0.0214547
0.022528
0.0236515
0.0248053
0.0259595
0.0270758
0.0281034
0.028983
0.029605
0.0298789
0.0299028
0.0294331
0.0285459
0.027206
0.0252509
0.0229052
0.0202633
0.0174744
0.0146905
0.0120545
0.00967982
0.00763684
0.00594582
0.00458506
0.00350763
0.00265861
0.00198868
0.00144562
0.00100104
0.000715837
0.0011284
0.000857182
0.000703755
0.000801771
0.000883407
0.000929228
0.000965205
0.00101991
0.0011256
0.00132198
0.00165925
0.00219365
0.00297459
0.00403051
0.00536425
0.00695721
0.00876961
0.0107308
0.0127249
0.0145864
0.0161449
0.0171688
0.0176191
0.0177423
0.0176758
0.0172347
0.0164809
0.0156053
0.0147956
0.0141403
0.0135338
0.0130343
0.0126474
0.0123469
0.012124
0.0119901
0.0119298
0.0119146
0.0119665
0.0120943
0.0122774
0.0125257
0.0128343
0.0132083
0.013648
0.0141582
0.014742
0.0154044
0.0161499
0.0169831
0.017907
0.018922
0.0200247
0.0212068
0.0224533
0.0237414
0.0250292
0.026264
0.02738
0.0282978
0.0288169
0.0289869
0.0286966
0.0278688
0.0265536
0.0245066
0.0219608
0.019091
0.0160856
0.0131402
0.0104319
0.00808908
0.00617081
0.00466781
0.0035229
0.00265611
0.00199968
0.0014944
0.00110138
0.00087569
0.00144367
0.00131853
0.00104334
0.00112353
0.00120705
0.00127064
0.00134274
0.00146166
0.00167484
0.00204061
0.0026254
0.00349049
0.00467223
0.00616765
0.00793253
0.00988456
0.0119021
0.0138223
0.0154584
0.0165403
0.0170003
0.0171033
0.0169397
0.0163686
0.0153738
0.0143645
0.0134716
0.0126604
0.0119786
0.0114081
0.0109232
0.0105353
0.0102246
0.00998051
0.0097957
0.00966495
0.00958645
0.0095517
0.00954476
0.00958863
0.00967025
0.00979263
0.00995742
0.0101659
0.0104228
0.0107331
0.0111035
0.0115428
0.0120612
0.0126699
0.0133817
0.0142084
0.0151609
0.016247
0.0174678
0.0188171
0.0202789
0.0218155
0.0233791
0.0248962
0.0262613
0.0273204
0.0278212
0.0279197
0.0273409
0.0261699
0.0240243
0.0212773
0.0181375
0.0148557
0.0116995
0.0088989
0.00659602
0.00482582
0.00353331
0.00260697
0.00194665
0.00146147
0.00110094
0.000941042
0.00156251
0.00195873
0.00146982
0.00152164
0.00161786
0.00171814
0.00185306
0.00207405
0.00244586
0.00304233
0.00393394
0.00516565
0.00673453
0.00857918
0.0105823
0.0125792
0.0143694
0.0157261
0.0163792
0.0165631
0.01648
0.0159131
0.0148458
0.0137154
0.0126899
0.011767
0.0109804
0.0103007
0.00973147
0.00924765
0.00883944
0.00849857
0.00821105
0.0079704
0.00777002
0.00760561
0.00747339
0.00736973
0.00729358
0.0072531
0.00723677
0.00723568
0.00727395
0.0073385
0.00743945
0.00757652
0.00775733
0.00798833
0.00827911
0.00864064
0.00909049
0.00964806
0.010336
0.0111786
0.0121953
0.0134131
0.0148494
0.0164987
0.0183268
0.0202843
0.0222972
0.0242462
0.0259633
0.0270823
0.0275181
0.0274302
0.0263575
0.024103
0.0210732
0.0175444
0.013875
0.0104369
0.00752126
0.00527
0.00366881
0.00259341
0.00186722
0.00138372
0.00106394
0.000934055
0.00151877
0.00281521
0.00198805
0.00201003
0.00213346
0.00229273
0.00251976
0.00288116
0.00345607
0.00432234
0.00553379
0.00709355
0.00893574
0.0109239
0.0128654
0.0145375
0.0156107
0.0160369
0.0161003
0.0157109
0.0147589
0.013524
0.0123746
0.0113175
0.0104079
0.00962035
0.00895025
0.00837255
0.00787835
0.00744998
0.00708015
0.00675932
0.00648014
0.00623806
0.00602892
0.00585005
0.005699
0.00557299
0.00547101
0.00539258
0.00533495
0.00530594
0.0052956
0.00530126
0.00534205
0.00540529
0.00550024
0.00562816
0.00579581
0.00600971
0.00627719
0.00661022
0.00702496
0.00754565
0.00821089
0.00905813
0.010142
0.0115178
0.0132098
0.0152197
0.0175214
0.0200034
0.0225599
0.0249644
0.0268887
0.0278198
0.0280751
0.0271757
0.0247463
0.0213028
0.0172424
0.0130777
0.00931039
0.00628893
0.00412316
0.00271965
0.0018564
0.00131425
0.000997734
0.00089878
0.0014128
0.00391385
0.00260164
0.00259827
0.00277081
0.00300943
0.00335516
0.00388639
0.00468712
0.00582117
0.00730272
0.00907251
0.0109906
0.0128507
0.014412
0.0152912
0.0155824
0.0155673
0.0149245
0.0137463
0.0124644
0.0112671
0.0102168
0.00930004
0.00851943
0.0078456
0.00726566
0.00676135
0.00632375
0.00594195
0.00561041
0.00532252
0.00507407
0.00486137
0.00468092
0.00452971
0.00440521
0.00430546
0.00422855
0.00417276
0.00414019
0.00412627
0.00412367
0.00414361
0.00418345
0.00424205
0.00432228
0.00442481
0.00455271
0.00470895
0.004898
0.00512596
0.00540114
0.00573482
0.00614237
0.00664688
0.00728406
0.0081109
0.00922864
0.0107538
0.0127586
0.0152225
0.0181112
0.0212317
0.0243662
0.0271002
0.0286492
0.029213
0.028501
0.0257917
0.0217849
0.0170581
0.0123264
0.00823641
0.00516649
0.00314941
0.00196675
0.00130758
0.000944487
0.000840586
0.00129147
0.00526419
0.00331854
0.00329963
0.00353525
0.00387157
0.00435375
0.00506522
0.00608077
0.00743077
0.0090721
0.0108753
0.0126355
0.0141058
0.0148962
0.0151453
0.0149963
0.0141908
0.0129056
0.0116066
0.0103846
0.00932099
0.00840734
0.00762202
0.00694973
0.00636759
0.00586465
0.00542901
0.00505399
0.00473238
0.0044593
0.00422932
0.00403821
0.00388156
0.00375552
0.00365647
0.00358119
0.00352688
0.00349258
0.00347655
0.00347193
0.00348009
0.00350474
0.0035426
0.00359435
0.00365987
0.00374018
0.00383621
0.00394962
0.00408233
0.00423702
0.00441716
0.00462738
0.00487403
0.00516606
0.00551356
0.00593315
0.00645195
0.00711288
0.00798529
0.00919196
0.0109741
0.0134407
0.0165672
0.0202239
0.024087
0.0276755
0.0298899
0.0307412
0.0301603
0.0270256
0.0222899
0.0167857
0.0114751
0.00714094
0.00412966
0.00233408
0.00139051
0.000935706
0.000788684
0.00118955
0.00689118
0.00415528
0.00411869
0.00442516
0.00486858
0.00548945
0.00636565
0.00754746
0.00901705
0.0106677
0.0123094
0.0137
0.014453
0.0146905
0.0144731
0.0135686
0.0122655
0.0109208
0.00968936
0.00860747
0.00768778
0.00690121
0.00622762
0.0056504
0.00515477
0.00473257
0.00437524
0.00407655
0.00382966
0.00362863
0.00346727
0.00334015
0.00324202
0.00316841
0.00311543
0.00308007
0.00306256
0.00305617
0.00305652
0.00307263
0.00309733
0.00313365
0.00317995
0.00323751
0.00330665
0.00338853
0.00348426
0.00359523
0.00372298
0.00386922
0.00403591
0.00422528
0.00444005
0.00468384
0.00496193
0.00528258
0.00565921
0.00611415
0.00667935
0.00741261
0.00841806
0.00987679
0.0121602
0.0154007
0.0194977
0.0240861
0.0285919
0.0314569
0.0325503
0.0319659
0.0282045
0.0225625
0.0162131
0.0104006
0.00598488
0.00317204
0.00167106
0.000988456
0.000769509
0.00114935
0.00886748
0.0051365
0.00505107
0.00542678
0.00597472
0.00671767
0.00771615
0.00898396
0.0104493
0.0119495
0.0132577
0.0139968
0.0142352
0.0139964
0.0130623
0.0117811
0.0104107
0.00915013
0.00805411
0.00711937
0.00632914
0.00565601
0.00508464
0.00460165
0.00419687
0.00386234
0.00358949
0.00337053
0.00319736
0.00306263
0.00295943
0.00288189
0.00282498
0.00278465
0.00275798
0.00274479
0.00273988
0.00273968
0.00275087
0.00277005
0.00279729
0.00283358
0.00287912
0.00293509
0.00300241
0.00308239
0.0031764
0.00328597
0.00341273
0.00355841
0.00372477
0.00391353
0.00412633
0.00436471
0.00463027
0.00492517
0.00525323
0.00562221
0.00604804
0.0065613
0.00721598
0.0080974
0.00938162
0.0113912
0.0146232
0.0190699
0.0243845
0.0298423
0.0332775
0.0345264
0.033701
0.0290477
0.0223189
0.0151416
0.00903343
0.00476942
0.00231812
0.00117669
0.000799235
0.00118647
0.0110594
0.00622197
0.00607538
0.00651436
0.00715192
0.00798207
0.00903853
0.0102933
0.0116256
0.0128354
0.0135652
0.0138072
0.0135868
0.0126901
0.0114328
0.0100566
0.00876109
0.00763821
0.00668651
0.00588536
0.00521188
0.00464575
0.00417493
0.00378781
0.0034745
0.00322515
0.00302962
0.00287851
0.00276297
0.00267543
0.00260951
0.00256021
0.00252364
0.00249707
0.00247872
0.00246864
0.00246439
0.00246381
0.00247201
0.00248694
0.00250946
0.00254042
0.00258065
0.00263129
0.00269351
0.00276869
0.00285835
0.00296417
0.003088
0.00323183
0.00339776
0.00358785
0.00380404
0.00404796
0.00432067
0.00462262
0.00495368
0.00531396
0.00570576
0.00613788
0.00663369
0.00724455
0.00805732
0.0092298
0.011079
0.0142324
0.018994
0.0250392
0.0314599
0.0352747
0.0365218
0.0351105
0.0292171
0.0212566
0.013449
0.00737897
0.00354873
0.00162246
0.000922466
0.00135228
0.0134042
0.00738677
0.00716522
0.00765391
0.00835464
0.00922285
0.0102605
0.0114004
0.012486
0.0131944
0.0134353
0.0132654
0.0124418
0.0112206
0.00984298
0.00851455
0.00735123
0.00637306
0.00555573
0.00487553
0.00431193
0.00384946
0.00347621
0.00317974
0.00294829
0.00277001
0.00263388
0.00253024
0.00245093
0.00238955
0.00234124
0.00230255
0.00227115
0.00224571
0.00222559
0.0022105
0.00220161
0.00219815
0.00219817
0.00220719
0.00222341
0.00224804
0.00228201
0.00232634
0.00238224
0.00245102
0.00253424
0.00263365
0.00275124
0.00288926
0.00305021
0.00323672
0.00345148
0.00369701
0.00397535
0.00428767
0.00463384
0.00501218
0.00541983
0.0058543
0.00631768
0.0068254
0.00742271
0.00820556
0.0093257
0.0111169
0.014241
0.0193326
0.0261517
0.0335014
0.0373304
0.0383935
0.0358656
0.0282897
0.0191773
0.0111313
0.00553701
0.00247836
0.00122848
0.00175943
0.0158257
0.00860104
0.00828893
0.00880638
0.00953462
0.0103834
0.0113225
0.0122533
0.0129115
0.0131431
0.0130374
0.0123029
0.0111392
0.00976625
0.00840321
0.00718986
0.00617029
0.00532769
0.00463322
0.0040652
0.00360569
0.00324011
0.00295458
0.00273481
0.00256747
0.00244023
0.00234264
0.00226631
0.00220487
0.0021538
0.00211008
0.00207186
0.0020382
0.00200878
0.00198368
0.00196319
0.00194781
0.00193932
0.00193618
0.00193776
0.00194914
0.00196827
0.00199662
0.00203497
0.00208441
0.00214618
0.00222173
0.00231281
0.00242143
0.00254999
0.00270123
0.00287827
0.0030845
0.00332348
0.0035986
0.00391273
0.00426752
0.00466272
0.00509553
0.00556044
0.00605059
0.00656189
0.00710255
0.00771222
0.00849112
0.00960337
0.011404
0.0146376
0.0201948
0.027944
0.0358035
0.0393722
0.0399898
0.0354257
0.0259625
0.016052
0.00838236
0.00381639
0.00179409
0.00242503
0.0182561
0.00983342
0.00941225
0.0099314
0.0106458
0.011415
0.012178
0.0127554
0.0129725
0.0128965
0.012271
0.0111793
0.00982481
0.00842669
0.00715314
0.00607627
0.00519361
0.00447492
0.00389341
0.00342909
0.00306432
0.00278294
0.00256892
0.00240698
0.00228379
0.00218815
0.00211148
0.0020475
0.00199199
0.0019423
0.00189702
0.00185552
0.00181775
0.00178394
0.0017545
0.00172988
0.00171059
0.00169783
0.00169195
0.00169055
0.0016972
0.00171251
0.00173615
0.00176927
0.00181265
0.00186743
0.00193495
0.00201681
0.00211499
0.00223185
0.00237021
0.0025334
0.00272527
0.00295013
0.0032126
0.00351726
0.00386811
0.00426769
0.00471597
0.0052092
0.00573929
0.00629476
0.00686509
0.00745135
0.00809051
0.00889081
0.0100321
0.0119123
0.0153981
0.0216092
0.0305283
0.0384461
0.0413897
0.04099
0.0332918
0.0221043
0.0121632
0.00568763
0.00261731
0.00328911
0.0206413
0.0110515
0.0105011
0.0109904
0.0116479
0.0122807
0.0127699
0.0129659
0.0128654
0.0123529
0.0113362
0.0100152
0.00858826
0.0072454
0.0060937
0.00515236
0.00439497
0.0037892
0.0033105
0.00293865
0.00265466
0.00244055
0.00227939
0.00215651
0.00206007
0.00198112
0.00191346
0.00185304
0.00179754
0.00174582
0.00169754
0.00165278
0.00161189
0.00157532
0.0015435
0.00151683
0.00149573
0.00148064
0.00147317
0.00147065
0.00147384
0.00148639
0.00150626
0.00153489
0.00157282
0.00162107
0.00168081
0.00175351
0.00184099
0.00194547
0.00206967
0.0022169
0.00239112
0.002597
0.00283991
0.00312573
0.00346048
0.00384963
0.0042969
0.00480276
0.0053626
0.00596548
0.00659473
0.00723258
0.00787298
0.00855279
0.00939653
0.0106033
0.0126564
0.0165996
0.0236527
0.0339189
0.0413957
0.0434479
0.0402723
0.0291518
0.0169995
0.00816562
0.00372337
0.00429715
0.0229355
0.0122234
0.0115218
0.0119494
0.0125107
0.0129308
0.0130938
0.0129756
0.0125468
0.0116119
0.0103345
0.00889093
0.00747552
0.00623107
0.00520879
0.00439351
0.0037494
0.00324536
0.00285731
0.00256359
0.00234374
0.00217913
0.0020536
0.00195439
0.0018721
0.00180034
0.00173518
0.00167445
0.00161722
0.00156331
0.00151291
0.00146642
0.00142427
0.00138686
0.00135452
0.00132751
0.00130607
0.00129043
0.00128218
0.00127914
0.0012802
0.00129055
0.00130744
0.00133222
0.00136536
0.00140772
0.00146034
0.00152453
0.0016019
0.00169447
0.00180475
0.00193584
0.00209157
0.0022766
0.00249651
0.00275787
0.00306801
0.00343468
0.00386509
0.00436448
0.0049339
0.00556768
0.00625131
0.00696182
0.00767325
0.00837299
0.00910312
0.0100079
0.0113278
0.0136989
0.0184177
0.0266631
0.0381939
0.0439452
0.0447293
0.0367419
0.0230145
0.0114077
0.00516135
0.00540028
0.0250472
0.0133191
0.0124476
0.0127848
0.0131982
0.0133692
0.0132772
0.0128428
0.0120055
0.0107836
0.00933661
0.00785375
0.00650263
0.0053744
0.00447687
0.00377581
0.00323299
0.0028183
0.00250675
0.00227527
0.00210299
0.00197212
0.00186859
0.00178226
0.00170635
0.00163681
0.00157154
0.0015097
0.00145118
0.00139626
0.00134534
0.00129884
0.00125708
0.00122032
0.00118875
0.00116249
0.00114161
0.00112621
0.00111764
0.00111433
0.00111431
0.00112272
0.00113718
0.00115866
0.00118763
0.00122481
0.00127113
0.00132771
0.00139598
0.00147774
0.00157523
0.00169126
0.00182934
0.00199386
0.00219027
0.00242519
0.00270654
0.00304338
0.00344547
0.00392212
0.00448031
0.00512165
0.00583873
0.00661205
0.00741024
0.00819785
0.00895889
0.00974889
0.0107289
0.0122404
0.0151878
0.0211528
0.0313153
0.042385
0.0463463
0.0438154
0.0301654
0.0155965
0.00698498
0.00656388
0.0269022
0.0143108
0.0132561
0.0134748
0.0136883
0.0136599
0.0132598
0.0125237
0.0113609
0.0099278
0.00838886
0.00692587
0.00566777
0.0046585
0.00387598
0.00327684
0.00282289
0.00248401
0.00223404
0.00204948
0.00191035
0.00180095
0.00170994
0.00162987
0.00155635
0.00148716
0.00142144
0.00135912
0.00130052
0.00124603
0.00119602
0.00115079
0.00111051
0.0010753
0.0010452
0.00102022
0.00100032
0.000985533
0.000976843
0.000973227
0.000972813
0.000979407
0.000991829
0.00101046
0.00103581
0.0010685
0.00110932
0.00115926
0.00121958
0.00129184
0.00137803
0.00148063
0.00160278
0.00174848
0.00192275
0.00213191
0.00238382
0.00268798
0.00305549
0.00349849
0.00402879
0.00465527
0.00537981
0.00619211
0.00706518
0.0079558
0.0088171
0.0096339
0.0104905
0.0115721
0.0133938
0.0171916
0.0248627
0.0375393
0.046418
0.0479841
0.0380417
0.0209058
0.00923872
0.00777796
0.0284608
0.0151776
0.0139275
0.0139952
0.0140515
0.013792
0.0131339
0.0120633
0.0106627
0.00908764
0.0075177
0.00611296
0.00496007
0.00406452
0.00338545
0.00287588
0.00249794
0.00222104
0.00201849
0.00186758
0.00175037
0.00165386
0.00156949
0.00149224
0.00141959
0.00135055
0.00128503
0.00122332
0.00116583
0.00111289
0.00106475
0.00102155
0.000983322
0.000950048
0.000921667
0.00089811
0.000879294
0.000865187
0.000856475
0.000852653
0.000851945
0.00085699
0.000867631
0.000883807
0.000906023
0.000934817
0.000970885
0.0010151
0.00106856
0.00113263
0.00120904
0.00129998
0.00140821
0.00153727
0.0016917
0.00187728
0.00210139
0.00237333
0.00270453
0.00310855
0.0036004
0.00419475
0.0049025
0.00572507
0.00664722
0.00763074
0.00861604
0.00954375
0.0104085
0.0113307
0.0125767
0.0149473
0.0202497
0.0304627
0.0440635
0.0494472
0.0456407
0.0274381
0.0119913
0.0090363
0.0297008
0.0159175
0.0144537
0.0143678
0.0142638
0.0137688
0.0128599
0.0115321
0.00995019
0.00829162
0.00673526
0.00541086
0.00436494
0.00357405
0.0029865
0.00255421
0.00223952
0.00201153
0.00184411
0.00171638
0.00161306
0.00152396
0.00144304
0.00136722
0.00129524
0.00122691
0.00116249
0.00110235
0.00104682
0.000996126
0.000950356
0.000909504
0.000873497
0.000842223
0.000815556
0.000793382
0.000775593
0.000762127
0.000753415
0.000749418
0.000748452
0.000752174
0.000761242
0.000775287
0.000794788
0.000820218
0.000852193
0.000891483
0.000939049
0.000996096
0.00106414
0.00114508
0.00124134
0.00135605
0.00149319
0.00165795
0.00185705
0.00209916
0.00239536
0.00275949
0.00320811
0.00375968
0.00443215
0.00523811
0.00617698
0.00722496
0.00832684
0.00940095
0.0103767
0.0112776
0.0122724
0.0138307
0.0172244
0.0248295
0.0387067
0.0494789
0.0509096
0.035193
0.0154074
0.010406
0.0306191
0.0165285
0.0148373
0.0146016
0.0143313
0.0136562
0.0124897
0.0109618
0.00925158
0.00755642
0.00604397
0.00481033
0.00386708
0.00317027
0.00266245
0.00229552
0.00203205
0.00184152
0.00169933
0.00158709
0.00149234
0.00140752
0.00132861
0.00125392
0.00118302
0.0011161
0.00105351
0.000995586
0.000942517
0.000894376
0.000851124
0.000812652
0.000778806
0.000749423
0.000724342
0.000703425
0.000686558
0.000673663
0.000664949
0.000660787
0.000659587
0.000662182
0.000669858
0.000682054
0.000699199
0.000721718
0.00075016
0.000785207
0.000827713
0.000878741
0.000939622
0.00101203
0.00109809
0.00120052
0.00132283
0.00146961
0.00164684
0.00186239
0.00212658
0.00245275
0.00285776
0.00336197
0.00398803
0.00475749
0.00568381
0.00676127
0.00795138
0.00917347
0.010318
0.0113104
0.0122098
0.0133647
0.0155293
0.0207906
0.0319368
0.0475161
0.0532207
0.043845
0.0198113
0.0121494
0.0312303
0.0170099
0.0150906
0.0147059
0.014288
0.0134215
0.0120619
0.0103794
0.00858624
0.00689008
0.00544042
0.00430003
0.00345189
0.00283823
0.00239887
0.00208615
0.0018632
0.00170067
0.00157619
0.00147413
0.00138472
0.00130257
0.00122521
0.00115186
0.00108255
0.00101761
0.000957349
0.00090197
0.000851535
0.000805987
0.000765191
0.000728965
0.000697113
0.000669442
0.000645778
0.000625976
0.000609926
0.000597541
0.00058883
0.00058451
0.000583101
0.000584743
0.000591191
0.00060178
0.000616879
0.000636872
0.000662251
0.000693629
0.000731769
0.00077762
0.000832361
0.000897474
0.000974827
0.00106681
0.00117649
0.0013079
0.00146632
0.00165878
0.00189461
0.00218625
0.00254995
0.00300648
0.00358098
0.00430119
0.00519226
0.00626659
0.00750779
0.00885224
0.0101815
0.0113526
0.0123267
0.0132449
0.0147327
0.018157
0.0265556
0.0428077
0.0537689
0.0520336
0.0255144
0.0145045
0.0315375
0.0173679
0.0152251
0.0146921
0.0141562
0.0131115
0.0115996
0.00980467
0.00796618
0.00629463
0.00491794
0.00386827
0.0031062
0.00256503
0.00218361
0.00191507
0.00172357
0.00158162
0.00146942
0.00137409
0.00128817
0.00120801
0.0011322
0.00106053
0.000993239
0.000930634
0.000872927
0.000820188
0.000772357
0.000729285
0.00069077
0.000656591
0.000626529
0.00060038
0.000577969
0.000559148
0.000543808
0.000531862
0.000523274
0.00051876
0.000517162
0.000518019
0.000523385
0.000532578
0.000545896
0.000563688
0.000586399
0.000614585
0.000648936
0.000690304
0.00073975
0.000798593
0.000868494
0.00095156
0.0010505
0.00116884
0.00131123
0.00148387
0.00169511
0.00195624
0.00228242
0.00269379
0.00321616
0.00388073
0.00472104
0.00576501
0.00701971
0.00844896
0.00995067
0.0113587
0.0125108
0.0133606
0.0144523
0.0166897
0.0227267
0.0362626
0.0532812
0.0573574
0.033032
0.0174698
0.0315201
0.0175997
0.015252
0.0146096
0.0139232
0.0127496
0.0111221
0.00925186
0.00739791
0.00576826
0.00446843
0.00350395
0.00281845
0.00233975
0.00200674
0.00177368
0.00160627
0.00147929
0.00137562
0.00128485
0.00120146
0.00112307
0.00104899
0.0009793
0.000914282
0.000854169
0.000799051
0.000748879
0.000703504
0.000662713
0.000626265
0.00059392
0.000565451
0.000540654
0.000519355
0.000501409
0.000486705
0.000475159
0.000466726
0.000462027
0.000460266
0.000460518
0.000464929
0.000472906
0.00048467
0.000500538
0.000520915
0.000546307
0.000577344
0.000614803
0.000659645
0.000713061
0.000776541
0.000851964
0.000941729
0.00104895
0.00117771
0.00133347
0.00152364
0.00175831
0.00205132
0.00242157
0.0028943
0.00350205
0.00428355
0.00527859
0.00651504
0.00798547
0.00961559
0.0112433
0.0126507
0.0136672
0.0144232
0.0160072
0.020038
0.0305864
0.0503464
0.0596952
0.0426914
0.0209237
0.031355
0.0177466
0.015213
0.0144312
0.0136284
0.0123535
0.0106443
0.00873041
0.00688392
0.00530686
0.00408346
0.00319704
0.00257876
0.00215332
0.00186031
0.00165543
0.00150631
0.00139022
0.00129255
0.00120506
0.00112374
0.00104711
0.000974934
0.000907402
0.000844762
0.00078714
0.000734516
0.000686751
0.000643629
0.000604898
0.000570302
0.000539591
0.000512541
0.000488951
0.000468651
0.0004515
0.000437386
0.000426229
0.000417971
0.000413081
0.000411119
0.000411021
0.000414573
0.000421491
0.000431898
0.000446077
0.0004644
0.000487332
0.000515453
0.000549477
0.000590284
0.000638963
0.000696867
0.000765688
0.000847574
0.00094529
0.00106245
0.00120388
0.0013761
0.00158808
0.00185227
0.00218599
0.00261315
0.00316596
0.00388562
0.00482001
0.0060143
0.00749006
0.0092098
0.0110339
0.0127062
0.0140109
0.0147766
0.0157909
0.0184838
0.0266063
0.0448749
0.0602316
0.0530237
0.0245251
0.0309876
0.0178291
0.0151076
0.0141853
0.0132875
0.011938
0.0101772
0.00824609
0.00642396
0.00490516
0.00375492
0.0029387
0.0023788
0.00199836
0.0017381
0.00155543
0.00142016
0.00131202
0.00121871
0.00113375
0.0010543
0.00097949
0.000909318
0.000844008
0.000783725
0.000728493
0.000678199
0.000632636
0.000591549
0.000554665
0.000521721
0.000492468
0.000466688
0.000444185
0.000424794
0.000408375
0.000394818
0.000384039
0.000375978
0.000370943
0.000368776
0.000368465
0.000371268
0.000377261
0.00038648
0.000399175
0.000415686
0.000436442
0.000461981
0.000492966
0.000530211
0.000574721
0.000627739
0.00069081
0.000765878
0.000855427
0.000962681
0.00109191
0.00124888
0.00144153
0.00168096
0.00198285
0.00236932
0.00287121
0.00353013
0.0043985
0.00553416
0.00698372
0.00874878
0.0107351
0.0127076
0.0143001
0.0151995
0.01584
0.017719
0.0234535
0.0391549
0.0594044
0.0617474
0.0274562
0.0304131
0.0178259
0.01493
0.0138919
0.0129154
0.0115152
0.00972878
0.00780184
0.00601603
0.00455746
0.00347534
0.00272134
0.00221166
0.00186893
0.0016353
0.00147006
0.00134529
0.00124305
0.00115303
0.00107018
0.0009925
0.000919538
0.000851402
0.000788281
0.000730254
0.000677251
0.000629088
0.000585516
0.000546253
0.000511019
0.000479551
0.000451606
0.00042697
0.000405455
0.000386898
0.000371161
0.000358132
0.000347723
0.000339868
0.000334744
0.000332416
0.000331934
0.000334117
0.000339305
0.000347484
0.000358871
0.000373777
0.000392603
0.000415847
0.000444128
0.000478209
0.000519024
0.000567727
0.000625746
0.000694863
0.000777336
0.000876069
0.000994875
0.00113887
0.0013151
0.00153341
0.00180785
0.0021586
0.0026145
0.00321605
0.00401743
0.00508471
0.00648412
0.00825217
0.010342
0.0125584
0.0145323
0.0157335
0.016322
0.0174511
0.02136
0.0336335
0.0572334
0.0662063
0.0288158
0.0296647
0.0177905
0.0147143
0.0135654
0.0125248
0.0110947
0.00930442
0.00739856
0.00565707
0.00425807
0.00323807
0.00253853
0.00207166
0.00176032
0.00154822
0.00139666
0.00127989
0.0011821
0.00109468
0.00101367
0.000937717
0.000866594
0.000800452
0.000739423
0.000683498
0.000632537
0.000586303
0.000544516
0.000506884
0.000473125
0.00044298
0.000416213
0.000392616
0.000372004
0.000354217
0.000339118
0.000326591
0.000316544
0.000308908
0.000303743
0.00030129
0.000300669
0.000302342
0.000306832
0.000314099
0.000324332
0.000337818
0.000354927
0.000376126
0.000401995
0.00043325
0.000470771
0.000515637
0.000569183
0.000633062
0.000709353
0.000800702
0.000910551
0.00104348
0.00120575
0.0014061
0.00165708
0.00197688
0.00239208
0.00294114
0.00367798
0.00467338
0.0060085
0.00775097
0.00990305
0.0123203
0.0146387
0.0162002
0.0168635
0.017445
0.020223
0.0298471
0.0529949
0.0678133
0.0290542
0.0287849
0.0177081
0.0144708
0.0132183
0.0121261
0.0106836
0.00890747
0.00703571
0.00534347
0.00400164
0.00303732
0.00238488
0.0019542
0.0016688
0.00147406
0.00133321
0.00122259
0.00112825
0.00104297
0.000963649
0.000889353
0.000820014
0.000755774
0.000696696
0.0006427
0.000593585
0.000549082
0.000508892
0.000472719
0.000440282
0.000411327
0.000385625
0.000362974
0.000343191
0.000326118
0.000311614
0.000299563
0.000289868
0.000282458
0.000277298
0.000274747
0.000274009
0.000275266
0.000279151
0.000285619
0.000294836
0.000307063
0.000322644
0.000342019
0.000365732
0.000394458
0.000429029
0.000470466
0.000520025
0.000579258
0.000650101
0.000734999
0.000837095
0.000960528
0.0011109
0.00129601
0.00152701
0.00182023
0.00219987
0.00270177
0.00337809
0.00430119
0.00556206
0.00725354
0.00942461
0.0119972
0.0146659
0.0167031
0.0175678
0.0179673
0.0196884
0.0270646
0.048011
0.067867
0.0284716
0.0278079
0.0175953
0.0142105
0.012861
0.011728
0.0102873
0.00853966
0.00671181
0.00507147
0.00378327
0.00286807
0.0022559
0.00185554
0.00159146
0.00141065
0.00127822
0.00117239
0.00108079
0.000997318
0.000919551
0.000846839
0.000779194
0.000716728
0.000659441
0.000607191
0.000559736
0.000516781
0.000478017
0.000443147
0.000411896
0.000384015
0.00035928
0.000337491
0.000318469
0.000302054
0.000288105
0.000276501
0.00026714
0.000259945
0.000254859
0.000252213
0.000251374
0.000252293
0.000255655
0.000261424
0.000269745
0.000280857
0.000295082
0.000312829
0.000334614
0.000361075
0.000393
0.00043136
0.000477348
0.000532433
0.000598441
0.000677656
0.000772987
0.000888218
0.00102841
0.00120055
0.0014146
0.00168515
0.00203407
0.00249437
0.00311553
0.00396929
0.00515234
0.0067765
0.00893027
0.0115974
0.0145471
0.0171113
0.0182334
0.0185669
0.0195204
0.0249639
0.0434657
0.0655571
0.0274758
0.0267671
0.0174673
0.0139429
0.0125022
0.0113372
0.0099097
0.00820161
0.00642477
0.00483724
0.0035986
0.00272614
0.00214795
0.00177271
0.00152599
0.00135633
0.00123053
0.00112846
0.00103908
0.0009572
0.000880869
0.000809645
0.000743579
0.000682742
0.000627077
0.000576396
0.000530423
0.000488847
0.000451356
0.000417654
0.000387468
0.000360556
0.000336697
0.000315693
0.000297367
0.000281558
0.000268121
0.000256932
0.000247885
0.000240897
0.000235905
0.00023318
0.000232254
0.000232898
0.000235811
0.000240968
0.0002485
0.000258627
0.000271647
0.000287946
0.000308008
0.000332441
0.000361992
0.000397588
0.000440366
0.000491732
0.000553419
0.00062759
0.000716971
0.000825066
0.000956502
0.00111759
0.00131725
0.00156853
0.00189111
0.00231509
0.00288671
0.00367549
0.00478056
0.00632778
0.0084404
0.0111595
0.0143089
0.0173852
0.0189852
0.0193803
0.0196827
0.0235322
0.0394115
0.0623627
0.0262923
0.0256614
0.0173415
0.0136785
0.0121497
0.0109593
0.00955338
0.00789307
0.00617226
0.00463721
0.00344372
0.00260798
0.00205801
0.0017033
0.00147059
0.0013098
0.00118923
0.00109015
0.00100262
0.00092214
0.000847133
0.00077729
0.000712671
0.00065331
0.000599101
0.000549817
0.000505163
0.000464815
0.000428458
0.000395798
0.000366568
0.000340529
0.000317462
0.000297171
0.000279478
0.00026422
0.000251252
0.000240445
0.000231688
0.000224894
0.000219997
0.000217207
0.000216202
0.000216624
0.00021915
0.000223772
0.00023061
0.000239868
0.000251822
0.000266834
0.000285362
0.000307981
0.000335404
0.000368516
0.000408408
0.000456427
0.000514236
0.000583902
0.00066801
0.000769848
0.000893699
0.00104532
0.00123276
0.00146772
0.00176785
0.00216046
0.00268825
0.00341742
0.00444671
0.00591096
0.00796259
0.0107027
0.0140383
0.0175007
0.019705
0.0202532
0.0202995
0.0227328
0.0358696
0.0585305