/*--------------------------------*- C++ -*----------------------------------*\
  =========                 |
  \\      /  F ield         | OpenFOAM: The Open Source CFD Toolbox
   \\    /   O peration     | Website:  https://openfoam.org
    \\  /    A nd           | Version:  13
     \\/     M anipulation  |
\*---------------------------------------------------------------------------*/
FoamFile
{
    format      ascii;
    class       volScalarField;
    location    "9.3";
    object      k;
}
// * * * * * * * * * * * * * * * * * * * * * * * * * * * * * * * * * * * * * //

dimensions      [0 2 -2 0 0 0 0];

internalField   nonuniform List<scalar> 
6400
(
5.68861e-07
2.92233e-06
7.10968e-06
1.14488e-05
1.4708e-05
1.65266e-05
1.71755e-05
1.72254e-05
1.73208e-05
1.79445e-05
1.94751e-05
2.24862e-05
2.72391e-05
3.38303e-05
4.18993e-05
5.0989e-05
6.06259e-05
7.0619e-05
8.04976e-05
9.00383e-05
9.96595e-05
0.000110206
0.000122802
0.000138081
0.000155342
0.000172692
0.000189956
0.0002071
0.000224667
0.000243122
0.00026219
0.000281264
0.000300026
0.000318565
0.000337315
0.000356401
0.000376193
0.000396814
0.000418502
0.000441318
0.000465425
0.000491008
0.00051821
0.000547327
0.000578654
0.000613306
0.000653423
0.000703572
0.000752453
0.000802732
0.000851584
0.000898999
0.000943283
0.000983288
0.0010175
0.00104386
0.00105689
0.00106197
0.00105818
0.00103669
0.000999606
0.00094726
0.000880115
0.000801181
0.000711713
0.000616525
0.000520097
0.000426017
0.000337736
0.000259643
0.000195841
0.000142351
9.91963e-05
6.6312e-05
4.266e-05
2.65366e-05
1.6016e-05
9.22901e-06
4.37767e-06
9.34669e-07
2.74795e-06
2.3085e-05
5.60356e-05
8.75058e-05
0.000110684
0.000124433
0.000130932
0.000133531
0.00013589
0.000141139
0.000152816
0.000174992
0.000208762
0.000253412
0.000306771
0.000366078
0.000428883
0.000492737
0.000555836
0.000617618
0.000680375
0.000748661
0.000828091
0.000921005
0.00102306
0.001125
0.00122418
0.00131849
0.00140897
0.00149664
0.00157968
0.00165724
0.00172781
0.00179248
0.0018535
0.00191181
0.00196934
0.00202695
0.00208597
0.00214691
0.00221049
0.00227737
0.00234761
0.00242131
0.00249785
0.00257715
0.0026572
0.0027352
0.00281959
0.00290554
0.00299388
0.00308091
0.00316508
0.0032426
0.00331011
0.00336354
0.00339043
0.00339832
0.00338424
0.00333604
0.0032501
0.00312612
0.00296239
0.00276302
0.00253239
0.00227958
0.00201558
0.00174838
0.00148573
0.00123124
0.000989673
0.000770477
0.000579801
0.000420822
0.000293552
0.000196154
0.000125526
7.58875e-05
3.6924e-05
4.93642e-06
6.00676e-06
5.00257e-05
0.000116245
0.000171532
0.00020902
0.000231051
0.000243147
0.000251412
0.000261977
0.000280861
0.000313963
0.000366118
0.000438992
0.000530662
0.000636972
0.000753624
0.000877297
0.00100529
0.00113508
0.00126456
0.00139218
0.00151721
0.00163739
0.00174724
0.00184169
0.00191692
0.00197037
0.00200784
0.00203705
0.00206516
0.00209602
0.00212887
0.0021641
0.00219947
0.0022384
0.00228013
0.00232634
0.00237696
0.00243302
0.00249447
0.00256111
0.00263361
0.00271129
0.00279442
0.00288284
0.00297645
0.00307459
0.00317843
0.00328771
0.00340062
0.00351625
0.00363223
0.00374631
0.00385507
0.00395468
0.0040403
0.00410677
0.00414097
0.00415024
0.00412825
0.00406114
0.00394868
0.00378657
0.00357737
0.00332327
0.00303294
0.00272226
0.0023999
0.00207628
0.00176167
0.00146482
0.00119231
0.000948935
0.000737169
0.000557613
0.000409549
0.000289709
0.000190553
9.70328e-05
1.32034e-05
1.0432e-05
8.40255e-05
0.000182406
0.000256037
0.000304077
0.000333757
0.000353746
0.000372699
0.000399111
0.000441284
0.000506596
0.000599565
0.000719886
0.000862674
0.00102093
0.001188
0.00135806
0.00152548
0.00168418
0.0018283
0.0019522
0.00205393
0.0021308
0.00217574
0.00219481
0.00219928
0.00219495
0.00219273
0.00219249
0.00219874
0.00221013
0.00222501
0.00224499
0.00226983
0.0023
0.00233522
0.00237613
0.00242261
0.00247459
0.00253247
0.00259615
0.00266594
0.00274163
0.00282324
0.0029103
0.00300341
0.00310319
0.00320939
0.00332154
0.00343869
0.00355985
0.00368327
0.00380682
0.00392754
0.00404181
0.00414507
0.00423219
0.00429418
0.00432239
0.00432565
0.00428447
0.00419828
0.00407042
0.00389165
0.00365992
0.00337735
0.00306056
0.00272067
0.00237297
0.00203145
0.00170793
0.00141089
0.00114523
0.000912873
0.000713772
0.000546201
0.000405817
0.000282973
0.000154323
2.20374e-05
1.67421e-05
0.000129484
0.00026078
0.000351967
0.000410707
0.000449461
0.000480372
0.00051499
0.000564372
0.000638617
0.000744997
0.000885375
0.00105504
0.00124453
0.00144291
0.00163985
0.00182591
0.00199216
0.00212942
0.00223354
0.00229348
0.0023165
0.0023182
0.00228797
0.00225787
0.00223099
0.0022092
0.00219487
0.00218828
0.00218656
0.00218909
0.00219666
0.00220889
0.00222534
0.00224598
0.00227073
0.0022995
0.00233197
0.0023682
0.00240841
0.00245264
0.00250139
0.00255534
0.00261534
0.0026823
0.00275607
0.00283652
0.00292407
0.0030189
0.00312102
0.00323018
0.00334581
0.00346683
0.00359168
0.00371815
0.00384255
0.00396026
0.00406557
0.00415186
0.00420251
0.00421941
0.00419233
0.0041088
0.00396976
0.00378477
0.00354081
0.00324136
0.00290414
0.00254654
0.00218694
0.00184227
0.00152547
0.00124395
0.000999908
0.000792326
0.000617993
0.000471062
0.000339338
0.000193475
2.81947e-05
2.57529e-05
0.00018976
0.000355943
0.000465483
0.000536351
0.000586482
0.000631899
0.000687322
0.000766023
0.000878342
0.0010289
0.00121438
0.00142408
0.00164322
0.00185648
0.00204977
0.00221084
0.00233242
0.00239713
0.00241831
0.00240474
0.0023596
0.00231486
0.0022712
0.00223097
0.002196
0.00216758
0.00214536
0.00212772
0.00211343
0.00210231
0.00209524
0.00209182
0.00209067
0.00209152
0.00209581
0.00210242
0.00211193
0.0021244
0.00214025
0.0021598
0.00218374
0.00221187
0.00224481
0.00228298
0.00232692
0.00237745
0.00243546
0.00250194
0.00257794
0.00266436
0.00276197
0.00287122
0.00299183
0.00312265
0.00326227
0.00340746
0.00355377
0.00369472
0.00382122
0.00392304
0.00397298
0.0039843
0.00393242
0.00381543
0.00363693
0.00337948
0.00306179
0.00270228
0.00232436
0.00195238
0.00160712
0.00130196
0.00104175
0.000824864
0.000645898
0.000496581
0.00036233
0.000211135
3.05159e-05
3.82569e-05
0.000266784
0.000470227
0.000599433
0.000684126
0.000748101
0.000811498
0.000891923
0.00100355
0.00115455
0.00134428
0.00156262
0.00179256
0.00201453
0.00221014
0.00236429
0.00245709
0.00249159
0.00248825
0.00243846
0.00238472
0.00232193
0.00226139
0.00220113
0.0021476
0.00210137
0.00206112
0.00202485
0.00199194
0.00196276
0.00193758
0.00191537
0.00189538
0.00187749
0.00186189
0.00184882
0.00183808
0.00183005
0.00182537
0.00182348
0.00182332
0.00182735
0.00183439
0.0018454
0.00186048
0.0018802
0.00190533
0.00193663
0.00197522
0.00202273
0.00208094
0.00215186
0.00223775
0.0023407
0.00246145
0.00260102
0.00275979
0.00293416
0.00311865
0.00330612
0.0034881
0.00364847
0.00376032
0.00380596
0.00379955
0.00370553
0.00353026
0.00325628
0.00290866
0.00251439
0.00210623
0.00171639
0.00136957
0.00107791
0.000841292
0.000652116
0.000497625
0.000361077
0.00021015
2.96616e-05
5.49852e-05
0.000361576
0.000604245
0.000754444
0.000854551
0.000934424
0.00101814
0.00112521
0.00126868
0.00145212
0.00166793
0.00189895
0.00212285
0.00231709
0.00246303
0.0025347
0.00255296
0.00252086
0.00246484
0.00238877
0.00230522
0.00221797
0.00214046
0.00207055
0.00201089
0.001956
0.00190586
0.00185915
0.001816
0.00177632
0.00173992
0.00170644
0.00167588
0.00164837
0.00162404
0.00160294
0.00158485
0.0015698
0.00155777
0.00154862
0.00154286
0.00154034
0.00153981
0.00154302
0.00154975
0.00156012
0.00157469
0.0015939
0.00161834
0.00164853
0.00168543
0.00173021
0.00178464
0.00185146
0.00193543
0.00204174
0.00217469
0.00233886
0.0025327
0.00274819
0.00298073
0.00321564
0.00343761
0.00361932
0.00370889
0.00372931
0.00366476
0.00348871
0.00318451
0.00279232
0.00235036
0.0019033
0.00149249
0.00114541
0.000870243
0.000658464
0.000492877
0.000352565
0.000203482
2.75922e-05
7.64429e-05
0.000473889
0.000757313
0.000929561
0.00104617
0.00114285
0.00124698
0.00137852
0.00154732
0.00175066
0.00197373
0.00219362
0.00238518
0.00252071
0.00258038
0.00258821
0.00254316
0.00247378
0.00237658
0.00226579
0.0021628
0.00207188
0.00199064
0.00191718
0.00185075
0.0017885
0.00173088
0.00167731
0.00162819
0.00158346
0.00154318
0.00150733
0.00147597
0.001449
0.00142619
0.00140735
0.00139225
0.00138065
0.00137222
0.00136738
0.00136535
0.001365
0.00136783
0.00137341
0.00138176
0.00139281
0.00140678
0.00142378
0.00144407
0.00146799
0.00149598
0.00152862
0.00156668
0.0016112
0.00166379
0.00172699
0.00180466
0.00190417
0.0020395
0.00222496
0.00245775
0.00272176
0.0030064
0.00328684
0.00353492
0.00367358
0.00371609
0.00367672
0.00349309
0.00314607
0.00269702
0.00219842
0.00170925
0.00127982
0.00093705
0.000681301
0.000492729
0.000339309
0.000189862
2.52227e-05
0.000102817
0.000601934
0.000927376
0.00112244
0.0012557
0.00136828
0.00148996
0.00163962
0.00182242
0.00202888
0.00223806
0.0024238
0.00255242
0.00260528
0.00260818
0.00256064
0.00247363
0.00235217
0.00222474
0.00210921
0.00200529
0.0019128
0.00182876
0.00175172
0.00168078
0.00161509
0.00155531
0.00150138
0.0014537
0.00141218
0.00137678
0.00134721
0.00132314
0.00130408
0.00128955
0.00127896
0.00127194
0.00126852
0.00126733
0.00126772
0.00127112
0.00127603
0.00128317
0.00129207
0.00130287
0.00131552
0.00133021
0.00134705
0.00136625
0.00138795
0.00141241
0.0014399
0.00147079
0.00150546
0.00154432
0.00158836
0.00163914
0.00169954
0.00177536
0.00187585
0.00201824
0.0022351
0.00252006
0.00284164
0.00318103
0.00349303
0.00368184
0.00374489
0.00371977
0.00351715
0.00311524
0.0025998
0.00204104
0.00151343
0.00107352
0.000742206
0.000507603
0.00033356
0.000177128
2.32325e-05
0.000134594
0.000741844
0.00111128
0.00132943
0.00147815
0.00160355
0.00173688
0.0018948
0.00207716
0.00226847
0.00244385
0.00256715
0.00261665
0.00261741
0.0025694
0.00246772
0.00232909
0.00219019
0.00206055
0.00194558
0.00184225
0.00174909
0.00166391
0.00158619
0.00151575
0.00145277
0.00139776
0.00135066
0.0013114
0.00127949
0.00125435
0.00123519
0.00122123
0.00121164
0.00120614
0.00120371
0.00120313
0.0012048
0.00120843
0.00121354
0.00122036
0.00122845
0.00123806
0.00124905
0.00126155
0.00127561
0.00129138
0.00130895
0.00132843
0.00134994
0.00137361
0.00139956
0.00142795
0.00145902
0.00149313
0.00153006
0.00157029
0.00161439
0.00166431
0.00172401
0.00180227
0.00191449
0.00208542
0.00236285
0.00271772
0.00310684
0.00348176
0.00371823
0.00379801
0.00377351
0.00353524
0.00306586
0.00247746
0.00186167
0.001307
0.000869324
0.000556584
0.000342597
0.000173022
2.24476e-05
0.000173193
0.000889166
0.00130528
0.00154569
0.0017072
0.00184028
0.00197694
0.00213106
0.00229757
0.00245668
0.00257372
0.00262159
0.00262209
0.00257462
0.00246442
0.00231472
0.00216326
0.00202193
0.00189494
0.00178227
0.00168069
0.00158909
0.00150651
0.00143318
0.00136932
0.0013151
0.00127043
0.00123468
0.00120703
0.00118642
0.00117174
0.00116191
0.00115643
0.00115402
0.00115343
0.00115469
0.00115772
0.0011621
0.0011677
0.00117445
0.0011824
0.00119151
0.00120196
0.00121379
0.00122716
0.00124219
0.00125904
0.00127784
0.00129871
0.00132174
0.00134698
0.00137444
0.00140403
0.00143564
0.0014691
0.00150435
0.0015415
0.001581
0.00162222
0.00166617
0.00171596
0.00177931
0.0018697
0.00201369
0.00225474
0.00262971
0.00305876
0.00349684
0.0037707
0.00385988
0.00381878
0.00352243
0.0029719
0.00230879
0.00164842
0.00108474
0.000663563
0.000378086
0.000179785
2.31731e-05
0.000216003
0.00104401
0.00150519
0.00176571
0.00193593
0.00207
0.00220022
0.00233784
0.00247413
0.00258113
0.00262693
0.00262795
0.00258111
0.00246837
0.00231171
0.00214822
0.00199468
0.00185655
0.00173401
0.00162511
0.00152771
0.0014415
0.00136632
0.00130248
0.00124982
0.00120782
0.00117548
0.00115147
0.00113439
0.00112283
0.00111566
0.00111216
0.00111084
0.00111067
0.00111213
0.00111476
0.00111845
0.00112307
0.00112863
0.00113524
0.001143
0.00115201
0.00116245
0.00117445
0.00118818
0.0012038
0.00122149
0.0012414
0.00126368
0.00128846
0.00131583
0.0013458
0.00137829
0.00141311
0.00144988
0.00148811
0.00152722
0.00156675
0.0016067
0.00164755
0.00168839
0.0017322
0.00178493
0.00185993
0.00198224
0.0021962
0.00257174
0.00304115
0.00353486
0.00382934
0.00391553
0.00383704
0.00345219
0.00280761
0.00207943
0.00139449
0.000845518
0.000459904
0.000204807
2.64121e-05
0.0002618
0.00120263
0.00170599
0.00198353
0.0021575
0.00228506
0.00239876
0.00250806
0.00259883
0.00263961
0.00264046
0.00259297
0.00248192
0.00232155
0.00214786
0.00198144
0.00183158
0.00169915
0.00158252
0.00147981
0.00139005
0.00131334
0.00124949
0.00119817
0.00115833
0.00112854
0.00110708
0.00109223
0.0010824
0.00107624
0.00107295
0.00107147
0.00107102
0.00107112
0.00107247
0.0010745
0.00107736
0.0010811
0.00108584
0.00109169
0.00109883
0.0011074
0.00111757
0.00112949
0.00114333
0.00115925
0.00117744
0.00119806
0.0012213
0.00124735
0.00127635
0.00130843
0.00134362
0.00138182
0.00142275
0.00146587
0.00151037
0.00155519
0.00159917
0.00164156
0.00168265
0.00172187
0.00176161
0.00180692
0.00187148
0.00198085
0.00218292
0.00254906
0.00305597
0.00359534
0.00388337
0.00395098
0.00380946
0.0032935
0.00255837
0.00178022
0.00110196
0.000598494
0.000260067
3.43654e-05
0.000309094
0.00136083
0.00190252
0.0021934
0.0023657
0.00247929
0.00256721
0.00263652
0.00266797
0.00266525
0.00261457
0.00250725
0.00234591
0.00216403
0.00198476
0.00182177
0.0016785
0.00155345
0.00144476
0.0013512
0.00127236
0.00120797
0.00115716
0.00111856
0.00109026
0.0010702
0.0010564
0.00104711
0.00104094
0.00103687
0.00103417
0.00103226
0.00103109
0.00103062
0.00103061
0.00103142
0.00103307
0.00103575
0.00103958
0.00104471
0.00105128
0.00105946
0.00106937
0.00108117
0.00109499
0.00111101
0.00112938
0.00115029
0.00117395
0.00120057
0.00123038
0.00126361
0.00130042
0.00134093
0.00138507
0.00143255
0.00148271
0.00153444
0.00158617
0.00163595
0.00168202
0.00172377
0.00176027
0.00179658
0.00183853
0.00189607
0.001999
0.00219504
0.00256519
0.00311033
0.00366723
0.00392629
0.0039564
0.00370293
0.00303653
0.00220945
0.00141651
0.00078635
0.000345015
4.73666e-05
0.000356561
0.00151454
0.00209008
0.0023903
0.00255539
0.00264841
0.00270045
0.00272034
0.00270852
0.0026508
0.00254702
0.00238646
0.00219842
0.00200679
0.00182928
0.00167321
0.00153833
0.00142244
0.00132399
0.00124209
0.00117605
0.00112472
0.00108625
0.00105838
0.0010387
0.001025
0.00101541
0.0010085
0.00100326
0.000999033
0.000995453
0.000992344
0.000989759
0.00098775
0.000986722
0.000986417
0.00098689
0.000988746
0.000991906
0.000996534
0.00100273
0.00101065
0.00102039
0.00103207
0.00104583
0.00106181
0.00108016
0.00110106
0.00112471
0.00115135
0.00118124
0.00121468
0.00125196
0.00129337
0.0013391
0.00138919
0.0014434
0.00150102
0.00156072
0.0016204
0.00167726
0.00172825
0.00177392
0.00180786
0.00183595
0.00187447
0.00193015
0.0020307
0.00222921
0.00261678
0.00320483
0.00374578
0.00396226
0.00390903
0.00346433
0.00265047
0.00176869
0.00101193
0.000451963
6.42441e-05
0.000403147
0.00165958
0.00226503
0.002571
0.00272182
0.002784
0.0027979
0.00277372
0.00270697
0.00260468
0.00244519
0.00225273
0.00204962
0.0018565
0.00168515
0.00153803
0.00141308
0.0013081
0.0012217
0.00115269
0.00109955
0.00106007
0.00103161
0.00101147
0.000997174
0.000986745
0.000978699
0.000972041
0.000966173
0.000960795
0.000955816
0.000951282
0.000947331
0.000944107
0.000941924
0.000940935
0.000940742
0.000941939
0.000944704
0.000949021
0.000955003
0.000962751
0.000972371
0.000983958
0.000997628
0.0010135
0.00103171
0.00105243
0.00107584
0.00110217
0.00113171
0.00116475
0.00120168
0.00124286
0.00128871
0.00133955
0.00139554
0.00145653
0.00152182
0.00158992
0.00165824
0.00172307
0.00177988
0.00182923
0.00186171
0.00188044
0.00191473
0.00197102
0.00207397
0.00228421
0.00270616
0.00333609
0.00381514
0.00395878
0.00376777
0.00307541
0.00214416
0.00126576
0.000574499
8.39333e-05
0.000447956
0.00179465
0.00242356
0.00272792
0.0028584
0.00289201
0.00286859
0.00279555
0.00268326
0.00252472
0.00232877
0.00211534
0.00190604
0.00171688
0.00155426
0.0014175
0.0013038
0.001211
0.0011374
0.00108102
0.00103933
0.00100933
0.000987982
0.000972584
0.000960974
0.000951599
0.000943447
0.000935944
0.000928835
0.000922074
0.000915739
0.000909979
0.000904966
0.000900863
0.000897853
0.000896362
0.00089589
0.00089657
0.0008991
0.00090321
0.00090904
0.000916651
0.000926153
0.000937623
0.000951165
0.000966884
0.000984906
0.00100538
0.00102847
0.00105439
0.00108341
0.00111581
0.00115198
0.00119234
0.0012374
0.00128765
0.00134358
0.00140551
0.00147342
0.00154663
0.00162351
0.00170099
0.00177435
0.00183734
0.00189035
0.00191667
0.00193048
0.00195898
0.00201779
0.00212828
0.00236289
0.00284287
0.00351258
0.00385468
0.00388973
0.00345711
0.00253296
0.00154358
0.000708511
0.000105479
0.000489199
0.001916
0.00256085
0.00285873
0.00296682
0.00297618
0.00290961
0.0027886
0.00262977
0.00242887
0.0022061
0.00198067
0.00177154
0.00158974
0.00143744
0.00131206
0.00121049
0.0011303
0.00106905
0.00102383
0.000991299
0.000968067
0.000951127
0.000938105
0.000927313
0.000917684
0.000908632
0.000899917
0.000891515
0.000883525
0.000876105
0.000869427
0.000863658
0.000858948
0.00085543
0.000853578
0.000852925
0.00085323
0.000855553
0.000859472
0.000865132
0.000872576
0.000881915
0.00089322
0.000906587
0.000922114
0.000939916
0.000960126
0.000982897
0.00100842
0.00103691
0.00106866
0.00110401
0.00114338
0.00118728
0.0012363
0.00129109
0.00135229
0.00142038
0.00149548
0.00157699
0.00166308
0.0017502
0.00183256
0.00190214
0.00195363
0.00197343
0.00198232
0.0020069
0.00207005
0.0021954
0.002477
0.00304009
0.00365996
0.00389351
0.0037111
0.00291474
0.00184185
0.000851532
0.000128206
0.000525429
0.00202073
0.0026747
0.00296319
0.00305238
0.00303381
0.00292497
0.00276309
0.00255679
0.00232428
0.00208321
0.00185274
0.00164814
0.00147579
0.00133475
0.00122137
0.00113216
0.00106407
0.00101379
0.000977609
0.000951747
0.000932831
0.000918191
0.000905938
0.000894888
0.000884404
0.000874228
0.000864339
0.000854844
0.000845902
0.000837687
0.000830361
0.000824065
0.00081892
0.000815034
0.000812862
0.000812051
0.000812055
0.000814115
0.000817799
0.000823223
0.000830433
0.000839538
0.00085061
0.000863742
0.000879031
0.000896585
0.000916526
0.000938993
0.000964154
0.000992207
0.0010234
0.00105803
0.00109649
0.00113925
0.0011869
0.00124015
0.00129978
0.0013666
0.00144129
0.00152411
0.00161444
0.00171018
0.00180702
0.00189775
0.001972
0.00201755
0.00203057
0.00203498
0.00205799
0.00212786
0.00228037
0.00263882
0.00328722
0.00373577
0.00380535
0.00326901
0.00215521
0.000999001
0.000151919
0.000555868
0.00210776
0.0027649
0.00304237
0.00311565
0.00306656
0.00291835
0.00271428
0.00247307
0.00221648
0.0019642
0.00173387
0.00153664
0.00137495
0.00124568
0.00114438
0.00106705
0.00100985
0.000968642
0.000939235
0.000917811
0.000901304
0.000887531
0.000875118
0.000863319
0.000851827
0.000840602
0.000829744
0.000819412
0.000809776
0.000800993
0.000793198
0.000786508
0.000781019
0.000776822
0.000774241
0.000773146
0.000773
0.000774661
0.00077804
0.000783149
0.000790047
0.000798839
0.000809607
0.00082244
0.000837438
0.000854707
0.000874363
0.000896537
0.000921378
0.000949064
0.000979808
0.00101388
0.0010516
0.00109341
0.00113984
0.00119157
0.00124943
0.00131438
0.00138742
0.00146943
0.0015608
0.00166087
0.00176712
0.00187431
0.00197359
0.0020482
0.0020813
0.00208741
0.00208746
0.00211147
0.00219408
0.00239462
0.00287805
0.00353274
0.00379285
0.00353638
0.00247303
0.00114811
0.000176496
0.000580087
0.0021771
0.00283248
0.00309797
0.00315638
0.00307712
0.00289682
0.00265366
0.00238357
0.00210954
0.0018517
0.00162518
0.00143709
0.00128667
0.00116921
0.00107958
0.00101309
0.000965109
0.000930954
0.000906289
0.000887544
0.000872126
0.00085837
0.000845356
0.000832681
0.00082026
0.000808173
0.000796572
0.000785622
0.000775474
0.000766259
0.000758086
0.000751048
0.000745227
0.0007407
0.000737656
0.000736234
0.000735888
0.000737057
0.000740053
0.000744773
0.000751287
0.000759697
0.000770092
0.000782566
0.000797219
0.00081416
0.000833502
0.000855372
0.00087991
0.000907277
0.000937662
0.000971297
0.00100847
0.00104955
0.00109501
0.00114546
0.00120169
0.00126469
0.0013356
0.00141565
0.00150591
0.00160686
0.00171758
0.00183478
0.00195174
0.00205768
0.00212588
0.00214435
0.00214355
0.00213618
0.00216875
0.00227511
0.00256385
0.00318315
0.00362527
0.00365523
0.00279222
0.00131041
0.000203247
0.000598022
0.00222945
0.00287884
0.0031319
0.00317664
0.00307057
0.00285753
0.00258481
0.00229209
0.0020063
0.00174724
0.00152701
0.00134906
0.00121005
0.00110404
0.00102521
0.000968156
0.000927618
0.000898657
0.000877087
0.000859767
0.000844617
0.000830448
0.000816701
0.000803209
0.000790018
0.000777262
0.000765101
0.000753679
0.000743124
0.000733538
0.000725012
0.000717621
0.00071144
0.000706539
0.000702994
0.000701179
0.000700592
0.000701215
0.00070376
0.000708036
0.00071411
0.000722082
0.000732049
0.00074411
0.000758368
0.000774933
0.000793922
0.00081546
0.000839684
0.000866744
0.000896816
0.000930104
0.000966858
0.0010074
0.00105213
0.00110159
0.0011565
0.00121776
0.00128656
0.00136427
0.0014524
0.00155224
0.00166426
0.00178703
0.00191578
0.00204088
0.00214682
0.00219987
0.00220819
0.00219099
0.00217911
0.00223003
0.00238983
0.00284309
0.00347056
0.00367737
0.00310674
0.00151094
0.000237299
0.000609961
0.00226584
0.00290502
0.00314444
0.00317609
0.00305059
0.0028086
0.00251137
0.00220152
0.00190864
0.00165153
0.0014392
0.0012718
0.00114395
0.00104871
0.00097952
0.000930355
0.000895576
0.000870259
0.000850563
0.000833843
0.000818512
0.000803768
0.000789314
0.000775132
0.000761332
0.00074806
0.000735459
0.000723649
0.000712731
0.000702789
0.000693899
0.000686128
0.000679544
0.000674216
0.000670211
0.000667904
0.000667037
0.000667122
0.000669163
0.000672958
0.000678556
0.000686052
0.000695552
0.000707155
0.000720971
0.000737114
0.000755703
0.000776867
0.000800743
0.000827479
0.000857241
0.000890217
0.000926634
0.000966766
0.00101097
0.0010597
0.00111359
0.00117345
0.00124038
0.00131579
0.00140136
0.0014989
0.00160994
0.00173487
0.00187155
0.00201359
0.00214855
0.00224058
0.00227032
0.00226607
0.00223243
0.00222282
0.00230604
0.00257375
0.00319992
0.00357116
0.00336007
0.00176576
0.000283296
0.00061596
0.00228659
0.00291215
0.00314114
0.00316468
0.00301585
0.00275253
0.0024361
0.00211395
0.00181768
0.0015648
0.00136125
0.0012044
0.00108718
0.00100174
0.000940891
0.000898117
0.00086764
0.000844762
0.000826092
0.000809479
0.000793759
0.000778424
0.000763355
0.000748615
0.000734334
0.000720647
0.000707674
0.000695512
0.000684244
0.000673941
0.00066467
0.000656499
0.000649497
0.000643734
0.000639287
0.000636385
0.000635086
0.000634857
0.000636322
0.000639618
0.000644724
0.000651724
0.000660729
0.000671844
0.000685179
0.000700854
0.000718995
0.000739734
0.000763212
0.00078958
0.000819002
0.000851661
0.000887764
0.000927561
0.00097136
0.00101956
0.00107269
0.00113149
0.00119692
0.00127031
0.00135336
0.00144812
0.00155673
0.00168079
0.00182008
0.00197068
0.0021225
0.0022572
0.0023277
0.00233871
0.00230404
0.00226533
0.00227939
0.00242874
0.00291246
0.00342778
0.00348147
0.00207093
0.000341212
0.000615621
0.0022945
0.00290726
0.00312657
0.00313844
0.00297217
0.002692
0.0023612
0.00203083
0.00173403
0.00148686
0.00129249
0.00114586
0.0010385
0.000961781
0.000907959
0.000870222
0.000842862
0.000821541
0.000803343
0.00078657
0.000770393
0.000754519
0.000738936
0.000723744
0.000709069
0.000695028
0.000681717
0.000669217
0.000657597
0.000646923
0.000637264
0.000628686
0.000621262
0.000615069
0.000610186
0.000606697
0.000604955
0.000604444
0.000605334
0.00060813
0.000612742
0.000619241
0.000627739
0.000638343
0.000651167
0.000666336
0.00068398
0.000704238
0.00072726
0.000753201
0.00078223
0.00081453
0.000850302
0.000889779
0.000933238
0.000981029
0.00103361
0.00109161
0.00115589
0.00122764
0.00130849
0.00140053
0.00150629
0.00162828
0.00176813
0.00192476
0.00209189
0.00225527
0.00236959
0.00240646
0.00239466
0.00231913
0.00228473
0.00235406
0.00266758
0.00328912
0.00351249
0.00241579
0.000408672
0.000612395
0.00229249
0.00289115
0.00309666
0.00309969
0.00292148
0.0026291
0.00228827
0.00195311
0.0016579
0.00141736
0.00123215
0.00109517
0.000996778
0.00092765
0.000879618
0.000845765
0.000820604
0.000800218
0.000782153
0.000765092
0.000748465
0.000732124
0.000716114
0.000700547
0.000685533
0.00067117
0.000657536
0.000644701
0.000632728
0.000621684
0.000611637
0.00060266
0.000594825
0.000588211
0.000582892
0.000578941
0.000576725
0.000575937
0.000576307
0.000578614
0.000582745
0.00058875
0.000596738
0.000606819
0.00061911
0.000633738
0.000650842
0.000670566
0.000693069
0.000718516
0.000747083
0.000778961
0.000814351
0.000853481
0.000896611
0.000944055
0.000996216
0.00105363
0.00111705
0.00118752
0.00126652
0.00135608
0.00145879
0.00157768
0.00171548
0.00187318
0.00204736
0.00222663
0.00238717
0.00246641
0.00247714
0.00241657
0.00233507
0.00232866
0.00250003
0.0030643
0.00343413
0.0027621
0.000479009
0.00060522
0.00228369
0.002861
0.00305663
0.00305216
0.00286583
0.00256549
0.00221851
0.00188135
0.00158927
0.00135578
0.00117943
0.00105138
0.000960992
0.000898348
0.000855006
0.000824096
0.000800445
0.000780575
0.000762446
0.000745051
0.000728011
0.000711269
0.0006949
0.000679008
0.000663689
0.000649022
0.000635074
0.00062191
0.000609592
0.000598189
0.000587773
0.000578419
0.000570203
0.000563203
0.000557492
0.000553141
0.00055045
0.000549366
0.000549343
0.000551183
0.000554851
0.000560377
0.000567863
0.000577418
0.000589161
0.000603223
0.000619747
0.000638888
0.000660811
0.000685693
0.000713724
0.000745103
0.000780041
0.000818768
0.000861538
0.000908645
0.000960449
0.00101742
0.0010802
0.00114971
0.00122727
0.00131474
0.00141469
0.0015304
0.00166547
0.00182277
0.00200211
0.00219666
0.00238847
0.00251616
0.00255096
0.00251899
0.00239318
0.00233499
0.00241712
0.00285044
0.00329633
0.00303811
0.000536257
0.000593999
0.00226513
0.00282206
0.00300896
0.00299794
0.00280694
0.00250249
0.00215271
0.00181583
0.00152791
0.00130156
0.00113355
0.00101363
0.000930252
0.000873062
0.000833467
0.000804752
0.00078211
0.000762482
0.000744184
0.000726451
0.000709042
0.000691954
0.000675272
0.00065909
0.000643487
0.00062853
0.000614281
0.000600801
0.000588156
0.000576419
0.000565666
0.000555974
0.000547422
0.000540088
0.000534046
0.000529368
0.000526238
0.000524805
0.000524535
0.000525922
0.000529151
0.00053422
0.000541217
0.000550249
0.000561437
0.000574914
0.000590829
0.000609342
0.00063063
0.000654882
0.000682301
0.000713099
0.000747503
0.000785752
0.000828104
0.000874844
0.000926307
0.000982912
0.00104522
0.00111402
0.00119046
0.00127622
0.00137373
0.00148625
0.00161779
0.00177237
0.00195207
0.00215356
0.00236358
0.00254186
0.00261651
0.00261594
0.00250165
0.00238147
0.00237786
0.00267541
0.00316824
0.00316962
0.00056281
0.000579381
0.00223978
0.00277622
0.00295512
0.00293897
0.00274628
0.0024411
0.00209142
0.00175661
0.00147351
0.00125411
0.00109379
0.000981114
0.000903803
0.000851143
0.000814506
0.000787409
0.000765418
0.000745857
0.000727338
0.000709284
0.000691546
0.000674155
0.000657195
0.000640746
0.000624877
0.000609646
0.000595113
0.00058134
0.000568399
0.000556364
0.000545316
0.000535335
0.0005265
0.000518887
0.00051257
0.000507619
0.000504112
0.000502367
0.000501891
0.000502875
0.000505698
0.000510335
0.000516861
0.00052538
0.000536013
0.000548894
0.000564176
0.000582028
0.000602634
0.000626196
0.000652932
0.000683071
0.000716856
0.000754543
0.000796401
0.000842718
0.000893819
0.000950086
0.00101201
0.00108029
0.0011559
0.00124035
0.00133584
0.00144553
0.00157364
0.00172506
0.00190384
0.00210992
0.00233368
0.00254979
0.00267671
0.00270094
0.00261718
0.00243308
0.00236759
0.00251856
0.00306147
0.00320667
0.000567465
0.000562198
0.00220978
0.00272519
0.00289665
0.00287684
0.00268503
0.00238204
0.00203492
0.00170363
0.0014257
0.00121285
0.00105948
0.000953163
0.000881021
0.000832079
0.000797754
0.000771832
0.000750242
0.000730639
0.000711879
0.000693526
0.000675495
0.000657834
0.000640622
0.000623927
0.00060781
0.000592326
0.000577535
0.000563501
0.000550301
0.000538013
0.000526721
0.000516504
0.00050744
0.000499605
0.000493064
0.00048788
0.000484112
0.000482076
0.000481414
0.000482054
0.000484506
0.000488739
0.000494816
0.000502836
0.000512918
0.0005252
0.000539835
0.000557
0.000576887
0.00059971
0.000625701
0.000655108
0.000688194
0.000725233
0.000766513
0.000812337
0.000863027
0.000918949
0.00098055
0.00104843
0.00112344
0.00120688
0.00130073
0.00140795
0.0015327
0.00168032
0.00185634
0.0020638
0.00229809
0.0025403
0.00272143
0.0027779
0.00273315
0.00253438
0.00239464
0.00244233
0.00289341
0.00317828
0.000556085
0.000543116
0.0021769
0.00267059
0.00283499
0.00281291
0.00262414
0.00232584
0.00198336
0.00165669
0.00138406
0.00117725
0.00103002
0.000929191
0.000861391
0.000815466
0.00078293
0.00075785
0.000736485
0.000716777
0.000697773
0.000679144
0.00066085
0.000642946
0.000625503
0.000608584
0.000592243
0.000576532
0.000561515
0.00054726
0.000533845
0.000521354
0.000509869
0.000499471
0.000490236
0.000482232
0.000475521
0.000470158
0.000466196
0.000463906
0.000463079
0.000463433
0.000465551
0.000469409
0.000475059
0.000482597
0.00049214
0.000503824
0.000517808
0.000534269
0.000553411
0.000575458
0.000600655
0.000629267
0.00066158
0.000697891
0.00073851
0.00078376
0.000833975
0.000889519
0.000950807
0.00101837
0.00109295
0.00117566
0.00126826
0.00137342
0.00149517
0.00163899
0.00181137
0.00201756
0.00225667
0.00251423
0.00274461
0.00284531
0.00283647
0.00265402
0.00243828
0.00241095
0.0027442
0.00310506
0.000536636
0.000522788
0.00214188
0.00261365
0.00277138
0.00274825
0.00256436
0.00227284
0.00193673
0.00161555
0.00134819
0.00114681
0.00100489
0.000908703
0.000844492
0.000800984
0.000769819
0.000745329
0.00072407
0.000704219
0.000684978
0.000666098
0.000647566
0.000629442
0.000611792
0.000594672
0.000578132
0.000562228
0.000547022
0.000532589
0.000519008
0.000506364
0.000494741
0.000484216
0.000474863
0.000466744
0.000459914
0.000454422
0.000450312
0.000447806
0.00044683
0.000446953
0.000448773
0.000452284
0.000457532
0.000464608
0.000473626
0.000484723