/*--------------------------------*- C++ -*----------------------------------*\
  =========                 |
  \\      /  F ield         | OpenFOAM: The Open Source CFD Toolbox
   \\    /   O peration     | Website:  https://openfoam.org
    \\  /    A nd           | Version:  13
     \\/     M anipulation  |
\*---------------------------------------------------------------------------*/
FoamFile
{
    format      ascii;
    class       surfaceScalarField;
    location    "9.3";
    object      phi;
}
// * * * * * * * * * * * * * * * * * * * * * * * * * * * * * * * * * * * * * //

dimensions      [0 3 -1 0 0 0 0];

internalField   nonuniform List<scalar> 
12640
(
1.69649e-09
-1.69615e-09
1.56595e-08
-1.3963e-08
4.01978e-08
-2.45383e-08
6.84617e-08
-2.82639e-08
9.39137e-08
-2.54521e-08
1.12899e-07
-1.8985e-08
1.24054e-07
-1.11555e-08
1.28332e-07
-4.27778e-09
1.28093e-07
2.39041e-10
1.25739e-07
2.35419e-09
1.23287e-07
2.45152e-09
1.22041e-07
1.24596e-09
1.22402e-07
-3.60655e-10
1.2409e-07
-1.68763e-09
1.26236e-07
-2.14601e-09
1.27888e-07
-1.65244e-09
1.2815e-07
-2.62011e-10
1.2649e-07
1.66044e-09
1.22028e-07
4.46137e-09
1.13863e-07
8.16531e-09
1.01439e-07
1.24244e-08
8.41466e-08
1.7292e-08
6.15412e-08
2.26055e-08
3.34291e-08
2.81121e-08
-2.26901e-10
3.3656e-08
-3.96186e-08
3.93917e-08
-8.62464e-08
4.66278e-08
-1.42627e-07
5.63806e-08
-2.11714e-07
6.90869e-08
-2.95605e-07
8.38906e-08
-3.93057e-07
9.74528e-08
-5.00315e-07
1.07258e-07
-6.13746e-07
1.13431e-07
-7.29844e-07
1.16098e-07
-8.45577e-07
1.15734e-07
-9.58331e-07
1.12754e-07
-1.06599e-06
1.07656e-07
-1.16684e-06
1.0085e-07
-1.25955e-06
9.27117e-08
-1.34309e-06
8.35446e-08
-1.41663e-06
7.35348e-08
-1.47949e-06
6.2857e-08
-1.53106e-06
5.15773e-08
-1.57079e-06
3.97257e-08
-1.59806e-06
2.72678e-08
-1.61289e-06
1.48352e-08
-1.61525e-06
2.35599e-09
-1.60325e-06
-1.19964e-08
-1.57786e-06
-2.53953e-08
-1.53785e-06
-4.0006e-08
-1.48349e-06
-5.43621e-08
-1.41459e-06
-6.88994e-08
-1.33154e-06
-8.30462e-08
-1.23482e-06
-9.67176e-08
-1.12509e-06
-1.09732e-07
-1.0033e-06
-1.21793e-07
-8.70911e-07
-1.32389e-07
-7.29788e-07
-1.41122e-07
-5.82339e-07
-1.47449e-07
-4.31465e-07
-1.50875e-07
-2.80705e-07
-1.50759e-07
-1.33892e-07
-1.46814e-07
4.98493e-09
-1.38876e-07
1.32708e-07
-1.27723e-07
2.44391e-07
-1.11683e-07
3.36354e-07
-9.19633e-08
4.05452e-07
-6.90979e-08
4.49296e-07
-4.38443e-08
4.66678e-07
-1.73812e-08
4.56448e-07
1.02299e-08
4.21773e-07
3.46746e-08
3.65312e-07
5.64613e-08
2.93376e-07
7.19355e-08
2.16097e-07
7.72794e-08
1.43707e-07
7.23903e-08
8.34839e-08
6.02229e-08
3.90635e-08
4.44204e-08
1.09182e-08
2.81452e-08
-9.76531e-10
1.18948e-08
-9.7653e-10
1.08093e-08
-1.25054e-08
4.43705e-08
-4.75243e-08
9.07041e-08
-7.08719e-08
1.37849e-07
-7.54087e-08
1.78108e-07
-6.57114e-08
2.07688e-07
-4.85646e-08
2.2602e-07
-2.94882e-08
2.34142e-07
-1.23997e-08
2.3389e-07
4.91369e-10
2.27651e-07
8.59323e-09
2.17731e-07
1.23718e-08
2.0571e-07
1.32662e-08
1.92083e-07
1.32665e-08
1.76263e-07
1.41325e-08
1.57189e-07
1.69277e-08
1.33709e-07
2.18285e-08
1.04874e-07
2.85722e-08
6.93959e-08
3.71388e-08
2.6006e-08
4.78512e-08
-2.68624e-08
6.10337e-08
-9.13017e-08
7.68637e-08
-1.69108e-07
9.50983e-08
-2.6148e-07
1.14978e-07
-3.69262e-07
1.35893e-07
-4.92979e-07
1.57374e-07
-6.32296e-07
1.78708e-07
-7.84505e-07
1.98837e-07
-9.4519e-07
2.17066e-07
-1.10874e-06
2.3264e-07
-1.2693e-06
2.44452e-07
-1.4235e-06
2.51646e-07
-1.57035e-06
2.5411e-07
-1.70847e-06
2.51555e-07
-1.83666e-06
2.44283e-07
-1.95394e-06
2.33019e-07
-2.0597e-06
2.1851e-07
-2.15347e-06
2.01429e-07
-2.23499e-06
1.82369e-07
-2.30405e-06
1.61768e-07
-2.36052e-06
1.4002e-07
-2.40431e-06
1.1732e-07
-2.43531e-06
9.38546e-08
-2.45344e-06
6.9708e-08
-2.45867e-06
4.49547e-08
-2.451e-06
1.96016e-08
-2.42976e-06
-6.41e-09
-2.39505e-06
-3.23477e-08
-2.34731e-06
-5.9734e-08
-2.28547e-06
-8.72388e-08
-2.21016e-06
-1.15318e-07
-2.12095e-06
-1.43569e-07
-2.01798e-06
-1.71877e-07
-1.90116e-06
-1.99866e-07
-1.77075e-06
-2.27127e-07
-1.62742e-06
-2.53055e-07
-1.47233e-06
-2.76881e-07
-1.30678e-06
-2.97944e-07
-1.13266e-06
-3.15239e-07
-9.52326e-07
-3.27785e-07
-7.6849e-07
-3.34711e-07
-5.84202e-07
-3.35047e-07
-4.02897e-07
-3.28119e-07
-2.28112e-07
-3.13662e-07
-6.41433e-08
-2.91691e-07
8.61841e-08
-2.62011e-07
2.19364e-07
-2.25143e-07
3.32057e-07
-1.81791e-07
4.21703e-07
-1.3349e-07
4.8591e-07
-8.15875e-08
5.2438e-07
-2.82408e-08
5.35283e-07
2.37716e-08
5.19447e-07
7.22974e-08
4.78888e-07
1.12494e-07
4.14411e-07
1.41757e-07
3.29979e-07
1.56822e-07
2.36107e-07
1.54095e-07
1.45247e-07
1.3528e-07
6.97512e-08
1.03641e-07
1.95356e-08
6.21103e-08
1.85591e-08
2.04648e-08
-3.29702e-08
6.77441e-08
-9.48036e-08
1.2061e-07
-1.23738e-07
1.67035e-07
-1.21834e-07
2.02603e-07
-1.01279e-07
2.26395e-07
-7.23565e-08
2.39139e-07
-4.22326e-08
2.41837e-07
-1.50979e-08
2.35683e-07
6.64628e-09
2.2218e-07
2.20954e-08
2.02734e-07
3.18185e-08
1.77925e-07
3.8075e-08
1.47555e-07
4.36359e-08
1.10791e-07
5.08972e-08
6.64447e-08
6.12737e-08
1.30633e-08
7.52099e-08
-5.11229e-08
9.27585e-08
-1.27959e-07
1.13975e-07
-2.19014e-07
1.38907e-07
-3.25528e-07
1.67548e-07
-4.47958e-07
1.99293e-07
-5.85875e-07
2.33016e-07
-7.38132e-07
2.67235e-07
-9.02145e-07
2.99906e-07
-1.07434e-06
3.2957e-07
-1.25036e-06
3.54723e-07
-1.42584e-06
3.7432e-07
-1.59674e-06
3.87972e-07
-1.75949e-06
3.95389e-07
-1.91157e-06
3.96528e-07
-2.05155e-06
3.91622e-07
-2.17856e-06
3.81119e-07
-2.29269e-06
3.65687e-07
-2.3944e-06
3.45994e-07
-2.48402e-06
3.22639e-07
-2.56191e-06
2.96408e-07
-2.62839e-06
2.67901e-07
-2.68368e-06
2.37666e-07
-2.72796e-06
2.06044e-07
-2.76134e-06
1.73396e-07
-2.78387e-06
1.39855e-07
-2.79554e-06
1.05529e-07
-2.7963e-06
7.04627e-08
-2.78601e-06
3.46675e-08
-2.76447e-06
-1.93691e-09
-2.73166e-06
-3.92199e-08
-2.68667e-06
-7.73389e-08
-2.62993e-06
-1.16479e-07
-2.56084e-06
-1.5633e-07
-2.47926e-06
-1.96898e-07
-2.38495e-06
-2.37877e-07
-2.27781e-06
-2.79017e-07
-2.15782e-06
-3.19858e-07
-2.02517e-06
-3.59776e-07
-1.88033e-06
-3.97893e-07
-1.72405e-06
-4.33161e-07
-1.55743e-06
-4.64568e-07
-1.3819e-06
-4.90767e-07
-1.19942e-06
-5.10266e-07
-1.01252e-06
-5.21613e-07
-8.24043e-07
-5.23521e-07
-6.37323e-07
-5.14838e-07
-4.55957e-07
-4.95028e-07
-2.83636e-07
-4.64013e-07
-1.23473e-07
-4.22173e-07
2.14807e-08
-3.70097e-07
1.48633e-07
-3.08944e-07
2.55494e-07
-2.40351e-07
3.40655e-07
-1.66749e-07
4.03295e-07
-9.08809e-08
4.42695e-07
-1.56283e-08
4.58232e-07
5.6761e-08
4.4891e-07
1.21816e-07
4.15868e-07
1.74799e-07
3.61242e-07
2.11448e-07
2.87727e-07
2.2761e-07
2.02129e-07
2.20878e-07
1.15106e-07
1.90664e-07
4.03243e-08
1.36892e-07
5.88834e-08
2.84377e-08
-6.14078e-08
8.21206e-08
-1.48486e-07
1.32399e-07
-1.74016e-07
1.70745e-07
-1.6018e-07
1.95994e-07
-1.26528e-07
2.09423e-07
-8.57855e-08
2.12266e-07
-4.50764e-08
2.0567e-07
-8.50153e-09
1.90424e-07
2.18919e-08
1.66992e-07
4.55279e-08
1.35149e-07
6.36618e-08
9.4377e-08
7.88465e-08
4.38888e-08
9.41241e-08
-1.72745e-08
1.1206e-07
-9.02416e-08
1.34241e-07
-1.7641e-07
1.61378e-07
-2.77265e-07
1.93614e-07
-3.94082e-07
2.30792e-07
-5.27392e-07
2.72216e-07
-6.76636e-07
3.16792e-07
-8.39882e-07
3.6254e-07
-1.01386e-06
4.06989e-07
-1.19458e-06
4.47957e-07
-1.37766e-06
4.82991e-07
-1.55894e-06
5.10847e-07
-1.73447e-06
5.30257e-07
-1.90079e-06
5.40634e-07
-2.05528e-06
5.42466e-07
-2.1967e-06
5.36802e-07
-2.32471e-06
5.2454e-07
-2.4396e-06
5.0652e-07
-2.542e-06
4.83517e-07
-2.63256e-06
4.5625e-07
-2.71203e-06
4.25458e-07
-2.7811e-06
3.91708e-07
-2.84031e-06
3.55615e-07
-2.89005e-06
3.17647e-07
-2.93063e-06
2.7824e-07
-2.96222e-06
2.37636e-07
-2.98488e-06
1.96054e-07
-2.9986e-06
1.53577e-07
-3.00331e-06
1.10239e-07
-2.99883e-06
6.59795e-08
-2.98491e-06
2.07503e-08
-2.96136e-06
-2.54857e-08
-2.92778e-06
-7.27981e-08
-2.88378e-06
-1.21336e-07
-2.8291e-06
-1.71165e-07
-2.76325e-06
-2.22174e-07
-2.68593e-06
-2.74223e-07
-2.59678e-06
-3.27031e-07
-2.49552e-06
-3.80277e-07
-2.38194e-06
-4.33437e-07
-2.25593e-06
-4.85781e-07
-2.11758e-06
-5.36241e-07
-1.96735e-06
-5.8339e-07
-1.80602e-06
-6.25897e-07
-1.63468e-06
-6.62112e-07
-1.45489e-06
-6.9006e-07
-1.26871e-06
-7.07784e-07
-1.07871e-06
-7.1353e-07
-8.8797e-07
-7.05573e-07
-7.00206e-07
-6.82792e-07
-5.19533e-07
-6.44686e-07
-3.49603e-07
-5.92103e-07
-1.93483e-07
-5.26217e-07
-5.40541e-08
-4.48373e-07
6.65546e-08
-3.60959e-07
1.66731e-07
-2.66925e-07
2.45504e-07
-1.69654e-07
3.02572e-07
-7.26959e-08
3.3866e-07
2.06727e-08
3.53624e-07
1.06852e-07
3.46975e-07
1.81448e-07
3.18616e-07
2.39807e-07
2.69507e-07
2.7672e-07
2.03462e-07
2.86923e-07
1.26384e-07
2.67742e-07
4.88362e-08
2.14439e-07
1.0772e-07
3.45313e-08
-9.59391e-08
8.7358e-08
-2.01313e-07
1.28679e-07
-2.15337e-07
1.5533e-07
-1.86831e-07
1.68201e-07
-1.39399e-07
1.69575e-07
-8.71586e-08
1.60837e-07
-3.6339e-08
1.42719e-07
9.61616e-09
1.15379e-07
4.9232e-08
7.83442e-08
8.2563e-08
3.0631e-08
1.11375e-07
-2.89631e-08
1.38441e-07
-1.01615e-07
1.66776e-07
-1.88418e-07
1.98864e-07
-2.90403e-07
2.36226e-07
-4.08432e-07
2.79406e-07
-5.42917e-07
3.28099e-07
-6.93547e-07
3.81422e-07
-8.58737e-07
4.37406e-07
-1.03528e-06
4.93338e-07
-1.21925e-06
5.4651e-07
-1.40603e-06
5.93765e-07
-1.59125e-06
6.33174e-07
-1.77065e-06
6.62397e-07
-1.93994e-06
6.80133e-07
-2.09665e-06
6.86973e-07
-2.24002e-06
6.83999e-07
-2.37011e-06
6.72557e-07
-2.48742e-06
6.54111e-07
-2.59267e-06
6.29795e-07
-2.68676e-06
6.00602e-07
-2.77049e-06
5.67254e-07
-2.84462e-06
5.3038e-07
-2.90979e-06
4.90621e-07
-2.96657e-06
4.4849e-07
-3.01538e-06
4.04427e-07
-3.05653e-06
3.58798e-07
-3.09023e-06
3.11941e-07
-3.11659e-06
2.63996e-07
-3.13562e-06
2.15079e-07
-3.1472e-06
1.65159e-07
-3.15127e-06
1.14312e-07
-3.14763e-06
6.23342e-08
-3.13589e-06
9.01543e-09
-3.11593e-06
-4.54467e-08
-3.08728e-06
-1.01447e-07
-3.04954e-06
-1.59078e-07
-3.00231e-06
-2.18396e-07
-2.94502e-06
-2.79465e-07
-2.87713e-06
-3.42107e-07
-2.79818e-06
-4.05986e-07
-2.70768e-06
-4.70778e-07
-2.6052e-06
-5.35914e-07
-2.49033e-06
-6.00656e-07
-2.36266e-06
-6.63905e-07
-2.22237e-06
-7.23681e-07
-2.06986e-06
-7.78404e-07
-1.90574e-06
-8.26236e-07
-1.73116e-06
-8.64639e-07
-1.54782e-06
-8.91127e-07
-1.35785e-06
-9.03494e-07
-1.16412e-06
-8.99309e-07
-9.69796e-07
-8.77112e-07
-7.79002e-07
-8.35479e-07
-5.96456e-07
-7.74649e-07
-4.26261e-07
-6.96412e-07
-2.71474e-07
-6.0316e-07
-1.34786e-07
-4.97647e-07
-1.8246e-08
-3.83465e-07
7.69796e-08
-2.6488e-07
1.50523e-07
-1.46239e-07
2.02956e-07
-3.17599e-08
2.35163e-07
7.46447e-08
2.47658e-07
1.68953e-07
2.40654e-07
2.46811e-07
2.14496e-07
3.02878e-07
1.70206e-07
3.31213e-07
1.10922e-07
3.27026e-07
4.44186e-08
2.80943e-07
1.52138e-07
3.80083e-08
-1.33947e-07
8.33446e-08
-2.46649e-07
1.11787e-07
-2.4378e-07
1.24329e-07
-1.99373e-07
1.2392e-07
-1.38989e-07
1.12562e-07
-7.58006e-08
9.1231e-08
-1.50084e-08
6.00456e-08
4.08015e-08
1.85168e-08
9.07609e-08
-3.45123e-08
1.35592e-07
-1.00447e-07
1.77309e-07
-1.807e-07
2.18694e-07
-2.76466e-07
2.62542e-07
-3.88597e-07
3.10994e-07
-5.17523e-07
3.65152e-07
-6.62988e-07
4.24872e-07
-8.23831e-07
4.88942e-07
-9.97591e-07
5.55182e-07
-1.18069e-06
6.20507e-07
-1.36847e-06
6.81114e-07
-1.55636e-06
7.34397e-07
-1.73936e-06
7.7677e-07
-1.91237e-06
8.06181e-07
-2.07245e-06
8.22478e-07
-2.21887e-06
8.26554e-07
-2.35194e-06
8.20038e-07
-2.47247e-06
8.04529e-07
-2.58149e-06
7.8158e-07
-2.67989e-06
7.52513e-07
-2.7685e-06
7.18406e-07
-2.84806e-06
6.80161e-07
-2.91922e-06
6.3841e-07
-2.98259e-06
5.93755e-07
-3.03869e-06
5.46718e-07
-3.08791e-06
4.97714e-07
-3.13057e-06
4.47079e-07
-3.16679e-06
3.95025e-07
-3.19675e-06
3.41896e-07
-3.22053e-06
2.87778e-07
-3.2382e-06
2.32753e-07
-3.24958e-06
1.7654e-07
-3.25476e-06
1.19488e-07
-3.25372e-06
6.12976e-08
-3.24587e-06
1.16484e-09
-3.23172e-06
-5.95977e-08
-3.21035e-06
-1.22821e-07
-3.18136e-06
-1.8807e-07
-3.14429e-06
-2.55467e-07
-3.09853e-06
-3.25218e-07
-3.04338e-06
-3.97265e-07
-2.97804e-06
-4.71317e-07
-2.90171e-06
-5.47115e-07
-2.81365e-06
-6.23976e-07
-2.71342e-06
-7.00881e-07
-2.60045e-06
-7.76877e-07
-2.47406e-06
-8.50072e-07
-2.33414e-06
-9.18321e-07
-2.18072e-06
-9.79661e-07
-2.01445e-06
-1.03091e-06
-1.83671e-06
-1.06887e-06
-1.649e-06
-1.09119e-06
-1.454e-06
-1.09431e-06
-1.25467e-06
-1.07645e-06
-1.05476e-06
-1.03539e-06
-8.58855e-07
-9.7055e-07
-6.72324e-07
-8.82943e-07
-4.99536e-07
-7.75947e-07
-3.4383e-07
-6.53354e-07
-2.08012e-07
-5.19282e-07
-9.40349e-08
-3.78857e-07
-2.66362e-09
-2.37611e-07
6.64849e-08
-1.00908e-07
1.14653e-07
2.64771e-08
1.43434e-07
1.40171e-07
1.53749e-07
2.36496e-07
1.46204e-07
3.10424e-07
1.21265e-07
3.56152e-07
8.12103e-08
3.67081e-07
3.23032e-08
3.2985e-07
1.84441e-07
3.78461e-08
-1.71793e-07
7.02726e-08
-2.79076e-07
8.37012e-08
-2.57209e-07
8.13954e-08
-1.97068e-07
6.72147e-08
-1.24809e-07
4.25472e-08
-5.11331e-08
7.69247e-09
1.98464e-08
-3.78354e-08
8.63294e-08
-9.51014e-08
1.48027e-07
-1.65526e-07
2.06017e-07
-2.50614e-07
2.62398e-07
-3.51652e-07
3.19732e-07
-4.69466e-07
3.80357e-07
-6.04241e-07
4.45769e-07
-7.55372e-07
5.16282e-07
-9.21238e-07
5.90738e-07
-1.09885e-06
6.66553e-07
-1.28398e-06
7.40318e-07
-1.47191e-06
8.08434e-07
-1.65748e-06
8.66686e-07
-1.8347e-06
9.11608e-07
-1.99961e-06
9.41683e-07
-2.15077e-06
9.57343e-07
-2.28834e-06
9.60045e-07
-2.41324e-06
9.5146e-07
-2.52653e-06
9.33328e-07
-2.62927e-06
9.07269e-07
-2.72244e-06
8.7475e-07
-2.80682e-06
8.36893e-07
-2.88307e-06
7.94654e-07
-2.95172e-06
7.48811e-07
-3.01328e-06
6.99967e-07
-3.06819e-06
6.48669e-07
-3.11681e-06
5.95342e-07
-3.15947e-06
5.4037e-07
-3.19644e-06
4.8405e-07
-3.22767e-06
4.26254e-07
-3.25339e-06
3.67616e-07
-3.27373e-06
3.0812e-07
-3.28875e-06
2.47774e-07
-3.29871e-06
1.86493e-07
-3.30332e-06
1.24103e-07
-3.30242e-06
6.03968e-08
-3.29621e-06
-5.04558e-09
-3.28434e-06
-7.14712e-08
-3.26718e-06
-1.39975e-07
-3.24461e-06
-2.10645e-07
-3.21639e-06
-2.83684e-07
-3.18226e-06
-3.59348e-07
-3.1416e-06
-4.37925e-07
-3.09345e-06
-5.19471e-07
-3.03679e-06
-6.03775e-07
-2.97028e-06
-6.90484e-07
-2.89208e-06
-7.79082e-07
-2.80039e-06
-8.68568e-07
-2.69391e-06
-9.5655e-07
-2.57209e-06
-1.04014e-06
-2.43502e-06
-1.11673e-06
-2.28298e-06
-1.18295e-06
-2.11618e-06
-1.23567e-06
-1.93547e-06
-1.2719e-06
-1.74335e-06
-1.28643e-06
-1.54229e-06
-1.27752e-06
-1.33589e-06
-1.24179e-06
-1.12843e-06
-1.17801e-06
-9.25384e-07
-1.08598e-06
-7.33099e-07
-9.68232e-07
-5.56334e-07
-8.30119e-07
-3.98676e-07
-6.76941e-07
-2.63105e-07
-5.14428e-07
-1.51386e-07
-3.4933e-07
-6.37644e-08
-1.8853e-07
1.00222e-09
-3.82895e-08
4.4708e-08
9.64654e-08
6.98105e-08
2.11393e-07
7.78093e-08
3.02425e-07
6.95039e-08
3.64457e-07
4.7198e-08
3.89387e-07
1.72531e-08
3.59795e-07
2.01695e-07
3.28816e-08
-2.04675e-07
4.98602e-08
-2.96055e-07
4.71273e-08
-2.54476e-07
2.97497e-08
-1.7969e-07
1.52519e-09
-9.6584e-08
-3.69219e-08
-1.2686e-08
-8.60327e-08
6.89572e-08
-1.46769e-07
1.47066e-07
-2.20461e-07
2.21719e-07
-3.08547e-07
2.94103e-07
-4.12309e-07
3.6616e-07
-5.32597e-07
4.40019e-07
-6.69546e-07
5.17305e-07
-8.22453e-07
5.98676e-07
-9.89509e-07
6.83339e-07
-1.16737e-06
7.68603e-07
-1.35154e-06
8.50721e-07
-1.537e-06
9.25776e-07
-1.7176e-06
9.89034e-07
-1.8881e-06
1.03718e-06
-2.04547e-06
1.06899e-06
-2.18922e-06
1.08543e-06
-2.31984e-06
1.08796e-06
-2.43832e-06
1.07853e-06
-2.54576e-06
1.05891e-06
-2.64329e-06
1.03086e-06
-2.73183e-06
9.95802e-07
-2.81208e-06
9.55001e-07
-2.88461e-06
9.09427e-07
-2.9499e-06
8.59942e-07
-3.00834e-06
8.0725e-07
-3.06031e-06
7.51937e-07
-3.10613e-06
6.94487e-07
-3.14598e-06
6.35196e-07
-3.18012e-06
5.7451e-07
-3.2091e-06
5.13026e-07
-3.23368e-06
4.5084e-07
-3.25394e-06
3.87878e-07
-3.26989e-06
3.24065e-07
-3.28136e-06
2.59243e-07
-3.28855e-06
1.93687e-07
-3.29136e-06
1.26912e-07
-3.28989e-06
5.89296e-08
-3.28424e-06
-1.06992e-08
-3.27451e-06
-8.12e-08
-3.26065e-06
-1.53836e-07
-3.24257e-06
-2.28722e-07
-3.22009e-06
-3.06168e-07
-3.19302e-06
-3.86415e-07
-3.16118e-06
-4.69769e-07
-3.12422e-06
-5.56429e-07
-3.08167e-06
-6.4632e-07
-3.03285e-06
-7.39305e-07
-2.97701e-06
-8.34926e-07
-2.91302e-06
-9.32553e-07
-2.83799e-06
-1.03158e-06
-2.74798e-06
-1.13015e-06
-2.63938e-06
-1.22533e-06
-2.51076e-06
-1.31157e-06
-2.36285e-06
-1.38358e-06
-2.19768e-06
-1.43706e-06
-2.01575e-06
-1.46836e-06
-1.81934e-06
-1.47393e-06
-1.61181e-06
-1.44932e-06
-1.39719e-06
-1.39263e-06
-1.18043e-06
-1.30275e-06
-9.68795e-07
-1.17987e-06
-7.69662e-07
-1.02925e-06
-5.88275e-07
-8.58328e-07
-4.28535e-07
-6.74168e-07
-2.93554e-07
-4.84311e-07
-1.84833e-07
-2.97251e-07
-1.01986e-07
-1.21136e-07
-4.27094e-08
3.71886e-08
-3.82159e-09
1.72505e-07
1.72876e-08
2.81316e-07
2.29842e-08
3.58761e-07
1.62434e-08
3.96127e-07
3.5617e-09
3.72477e-07
2.05256e-07
2.35143e-08
-2.28189e-07
2.36597e-08
-2.962e-07
4.1763e-09
-2.34992e-07
-2.77024e-08
-1.47811e-07
-6.99721e-08
-5.43144e-08
-1.22572e-07
3.99139e-08
-1.86331e-07
1.32716e-07
-2.62501e-07
2.23235e-07
-3.52424e-07
3.11642e-07
-4.57308e-07
3.98987e-07
-5.77982e-07
4.86834e-07
-7.14599e-07
5.76637e-07
-8.66537e-07
6.69243e-07
-1.03206e-06
7.64198e-07
-1.20766e-06
8.58936e-07
-1.38868e-06
9.49623e-07
-1.5698e-06
1.03185e-06
-1.74481e-06
1.10078e-06
-1.90895e-06
1.15318e-06
-2.06005e-06
1.18828e-06
-2.19773e-06
1.20667e-06
-2.32259e-06
1.21029e-06
-2.43565e-06
1.20102e-06
-2.53804e-06
1.18091e-06
-2.63078e-06
1.15165e-06
-2.71473e-06
1.1148e-06
-2.79053e-06
1.07161e-06
-2.85869e-06
1.02316e-06
-2.91964e-06
9.70372e-07
-2.97375e-06
9.14054e-07
-3.02138e-06
8.54882e-07
-3.06291e-06
7.93463e-07
-3.09881e-06
7.30387e-07
-3.12976e-06
6.66146e-07
-3.15622e-06
6.00973e-07
-3.178e-06
5.34802e-07
-3.19524e-06
4.68083e-07
-3.20796e-06
4.00602e-07
-3.21643e-06
3.32528e-07
-3.22114e-06
2.63958e-07
-3.22242e-06
1.94961e-07
-3.22068e-06
1.25178e-07
-3.21622e-06
5.44621e-08
-3.20939e-06
-1.75275e-08
-3.19984e-06
-9.07432e-08
-3.18772e-06
-1.65956e-07
-3.17306e-06
-2.43386e-07
-3.15584e-06
-3.23388e-07
-3.13596e-06
-4.06292e-07
-3.11326e-06
-4.9247e-07
-3.08745e-06
-5.82242e-07
-3.05798e-06
-6.7579e-07
-3.02412e-06
-7.73166e-07
-2.98491e-06
-8.74131e-07
-2.93954e-06
-9.77929e-07
-2.88697e-06
-1.08415e-06
-2.82582e-06
-1.19129e-06
-2.75394e-06
-1.29721e-06
-2.66558e-06
-1.39993e-06
-2.55372e-06
-1.49545e-06
-2.41614e-06
-1.57464e-06
-2.25429e-06
-1.63022e-06
-2.07238e-06
-1.65583e-06
-1.87193e-06
-1.64977e-06
-1.65744e-06
-1.60711e-06
-1.43319e-06
-1.527e-06
-1.20572e-06
-1.40734e-06
-9.84223e-07
-1.25075e-06
-7.77534e-07
-1.06502e-06
-5.9151e-07
-8.60192e-07
-4.30347e-07
-6.45474e-07
-2.97192e-07
-4.30406e-07
-1.93032e-07
-2.25296e-07
-1.16461e-07
-3.93827e-08
-6.39554e-08
1.2e-07
-3.09235e-08
2.48284e-07
-1.35328e-08
3.4137e-07
-6.89564e-09
3.8949e-07
-5.26903e-09
3.7085e-07
1.99987e-07
1.1058e-08
-2.39247e-07
-6.55605e-09
-2.78586e-07
-4.17124e-08
-1.99836e-07
-8.81935e-08
-1.0133e-07
-1.44585e-07
2.0773e-09
-2.11313e-07
1.06642e-07
-2.89585e-07
2.10988e-07
-3.80687e-07
3.14337e-07
-4.85763e-07
4.16717e-07
-6.05596e-07
5.18821e-07
-7.40375e-07
6.21613e-07
-8.89609e-07
7.25872e-07
-1.05179e-06
8.31419e-07
-1.22353e-06
9.35941e-07
-1.40006e-06
1.03547e-06
-1.57593e-06
1.12549e-06
-1.7454e-06
1.20132e-06
-1.90407e-06
1.25946e-06
-2.04994e-06
1.29905e-06
-2.18252e-06
1.32086e-06
-2.30247e-06
1.32661e-06
-2.41077e-06
1.31859e-06
-2.50853e-06
1.29878e-06
-2.59667e-06
1.26905e-06
-2.67594e-06
1.23092e-06
-2.74692e-06
1.18579e-06
-2.8101e-06
1.13478e-06
-2.86589e-06
1.07895e-06
-2.91473e-06
1.01921e-06
-2.95704e-06
9.56365e-07
-2.9933e-06
8.9114e-07
-3.02398e-06
8.24145e-07
-3.04942e-06
7.55832e-07
-3.06989e-06
6.86607e-07
-3.08566e-06
6.16751e-07
-3.09726e-06
5.46396e-07
-3.10508e-06
4.7591e-07
-3.10974e-06
4.05261e-07
-3.11172e-06
3.34505e-07
-3.1113e-06
2.63543e-07
-3.10859e-06
1.92248e-07
-3.10382e-06
1.20404e-07
-3.09715e-06
4.77991e-08
-3.08883e-06
-2.58543e-08
-3.07878e-06
-1.00788e-07
-3.06727e-06
-1.7747e-07
-3.05443e-06
-2.56226e-07
-3.04037e-06
-3.37449e-07
-3.02514e-06
-4.21522e-07
-3.00875e-06
-5.08859e-07
-2.99114e-06
-5.99848e-07
-2.97211e-06
-6.94822e-07
-2.95127e-06
-7.94007e-07
-2.92798e-06
-8.97425e-07
-2.90104e-06
-1.00487e-06
-2.86917e-06
-1.11602e-06
-2.83058e-06
-1.22988e-06
-2.78344e-06
-1.34435e-06
-2.72564e-06
-1.45773e-06
-2.65458e-06
-1.56651e-06
-2.56259e-06
-1.66663e-06
-2.44026e-06
-1.75255e-06
-2.28606e-06
-1.81003e-06
-2.10394e-06
-1.8319e-06
-1.89954e-06
-1.81151e-06
-1.67686e-06
-1.74968e-06
-1.44158e-06
-1.64262e-06
-1.20214e-06
-1.49019e-06
-9.6992e-07
-1.29724e-06
-7.55564e-07
-1.07455e-06
-5.65648e-07
-8.35391e-07
-4.0459e-07
-5.91463e-07
-2.75309e-07
-3.54577e-07
-1.77852e-07
-1.3684e-07
-1.09406e-07
5.15528e-08
-6.4551e-08
2.03429e-07
-3.73776e-08
3.14196e-07
-2.0417e-08
3.7253e-07
-9.34885e-09
3.59782e-07
1.90638e-07
-3.17972e-09
-2.36068e-07
-3.8017e-08
-2.43749e-07
-8.87645e-08
-1.49088e-07
-1.49525e-07
-4.05699e-08
-2.19643e-07
7.21958e-08
-3.00124e-07
1.87122e-07
-3.92206e-07
3.0307e-07
-4.97056e-07
4.19188e-07
-6.15462e-07
5.35122e-07
-7.47653e-07
6.51012e-07
-8.93271e-07
7.67231e-07
-1.05108e-06
8.83682e-07
-1.21802e-06
9.98357e-07
-1.3894e-06
1.10732e-06
-1.55988e-06
1.20595e-06
-1.72418e-06
1.28979e-06
-1.87812e-06
1.35526e-06
-2.01952e-06
1.40086e-06
-2.14784e-06
1.42737e-06
-2.26353e-06
1.43654e-06
-2.36761e-06
1.43069e-06
-2.46103e-06
1.41202e-06
-2.54466e-06
1.3824e-06
-2.61913e-06
1.34352e-06
-2.68498e-06
1.29677e-06
-2.74266e-06
1.24348e-06
-2.79264e-06
1.18476e-06
-2.83538e-06
1.1217e-06
-2.87142e-06
1.05524e-06
-2.90129e-06
9.86236e-07
-2.92555e-06
9.15404e-07
-2.94474e-06
8.43337e-07
-2.9594e-06
7.70489e-07
-2.97004e-06
6.97249e-07
-2.97718e-06
6.23886e-07
-2.98137e-06
5.50583e-07
-2.98297e-06
4.77512e-07
-2.98234e-06
4.04634e-07
-2.97974e-06
3.31907e-07
-2.97539e-06
2.59194e-07
-2.96947e-06
1.86329e-07
-2.96217e-06
1.13096e-07
-2.95363e-06
3.92593e-08
-2.94403e-06
-3.54534e-08
-2.93347e-06
-1.1134e-07
-2.92217e-06
-1.88771e-07
-2.9103e-06
-2.68096e-07
-2.89805e-06
-3.49705e-07
-2.88557e-06
-4.34001e-07
-2.87302e-06
-5.21405e-07
-2.86053e-06
-6.12339e-07
-2.84815e-06
-7.07202e-07
-2.83582e-06
-8.06338e-07
-2.82325e-06
-9.09995e-07
-2.80981e-06
-1.01831e-06
-2.79461e-06
-1.13122e-06
-2.77627e-06
-1.24822e-06
-2.75239e-06
-1.36824e-06
-2.72039e-06
-1.48972e-06
-2.67728e-06
-1.60962e-06
-2.61975e-06
-1.72416e-06
-2.5435e-06
-1.8288e-06
-2.43683e-06
-1.9167e-06
-2.29198e-06
-1.97676e-06
-2.11063e-06
-1.99286e-06
-1.9014e-06
-1.95891e-06
-1.66897e-06
-1.87505e-06
-1.42131e-06
-1.73785e-06
-1.16901e-06
-1.54954e-06
-9.25968e-07
-1.31759e-06
-7.048e-07
-1.05656e-06
-5.12807e-07
-7.83457e-07
-3.54401e-07
-5.12983e-07
-2.31791e-07
-2.59449e-07
-1.43548e-07
-3.66901e-08
-8.47554e-08
1.44636e-07
-4.8009e-08
2.7745e-07
-2.43138e-08
3.48834e-07
-8.75615e-09
3.44224e-07
1.81882e-07
-1.84202e-08
-2.17647e-07
-7.00084e-08
-1.92161e-07
-1.35348e-07
-8.37488e-08
-2.09637e-07
3.37187e-08
-2.92855e-07
1.55414e-07
-3.86174e-07
2.80441e-07
-4.90822e-07
4.07719e-07
-6.07684e-07
5.3605e-07
-7.37088e-07
6.64526e-07
-8.78795e-07
7.9272e-07
-1.03184e-06
9.20273e-07
-1.19355e-06
1.0454e-06
-1.35956e-06
1.16437e-06
-1.52479e-06
1.27254e-06
-1.68437e-06
1.36553e-06
-1.8343e-06
1.43972e-06
-1.97202e-06
1.49298e-06
-2.09675e-06
1.52559e-06
-2.20887e-06
1.53948e-06
-2.3092e-06
1.53688e-06
-2.39868e-06
1.52017e-06
-2.47802e-06
1.49136e-06
-2.54783e-06
1.45221e-06
-2.6086e-06
1.40429e-06
-2.66083e-06
1.349e-06
-2.70502e-06
1.28768e-06
-2.7418e-06
1.22153e-06
-2.7718e-06
1.1517e-06
-2.79573e-06
1.07917e-06
-2.81428e-06
1.00479e-06
-2.82814e-06
9.29264e-07
-2.83795e-06
8.53145e-07
-2.84431e-06
7.76854e-07
-2.84777e-06
7.00709e-07
-2.84879e-06
6.24907e-07
-2.84778e-06
5.49565e-07
-2.84499e-06
4.74728e-07
-2.84068e-06
4.00319e-07
-2.83501e-06
3.26236e-07
-2.82814e-06
2.52328e-07
-2.82022e-06
1.78407e-07
-2.81138e-06
1.04253e-07
-2.80174e-06
2.96249e-08
-2.79145e-06
-4.57454e-08
-2.78064e-06
-1.22152e-07
-2.76948e-06
-1.99926e-07
-2.75817e-06
-2.79404e-07
-2.74692e-06
-3.60956e-07
-2.73596e-06
-4.44968e-07
-2.72551e-06
-5.31852e-07
-2.71582e-06
-6.22028e-07
-2.7071e-06
-7.1592e-07
-2.69951e-06
-8.13934e-07
-2.69306e-06
-9.16442e-07
-2.68761e-06
-1.02376e-06
-2.68279e-06
-1.13605e-06
-2.67776e-06
-1.25324e-06
-2.67105e-06
-1.37494e-06
-2.66058e-06
-1.5002e-06
-2.64302e-06
-1.62717e-06
-2.61416e-06
-1.75303e-06
-2.56995e-06
-1.87301e-06
-2.50493e-06
-1.98171e-06
-2.41085e-06
-2.07084e-06
-2.27366e-06
-2.13005e-06
-2.09298e-06
-2.13959e-06
-1.87725e-06
-2.09077e-06
-1.63343e-06
-1.98167e-06
-1.37214e-06
-1.81083e-06
-1.10672e-06
-1.58301e-06
-8.53866e-07
-1.30941e-06
-6.28139e-07
-1.00918e-06
-4.37264e-07
-7.03858e-07
-2.85256e-07
-4.11457e-07
-1.7279e-07
-1.49156e-07
-9.63608e-08
6.8207e-08
-4.85497e-08
2.29639e-07
-2.01445e-08
3.20429e-07
-4.41983e-09
3.285e-07
1.77462e-07
-3.36463e-08
-1.84001e-07
-1.00791e-07
-1.25015e-07
-1.79819e-07
-4.72119e-09
-2.66705e-07
1.20605e-07
-3.61989e-07
2.50699e-07
-4.66882e-07
3.85334e-07
-5.82457e-07
5.23294e-07
-7.09247e-07
6.6284e-07
-8.47173e-07
8.02451e-07
-9.95483e-07
9.4103e-07
-1.15194e-06
1.07673e-06
-1.31265e-06
1.2061e-06
-1.47293e-06
1.32465e-06
-1.62828e-06
1.4279e-06
-1.77481e-06
1.51207e-06
-1.90965e-06
1.57456e-06
-2.03159e-06
1.61491e-06
-2.14082e-06
1.63483e-06
-2.23804e-06
1.6367e-06
-2.32408e-06
1.62292e-06
-2.39962e-06
1.59571e-06
-2.4652e-06
1.55694e-06
-2.52134e-06
1.50836e-06
-2.56859e-06
1.45154e-06
-2.60758e-06
1.38799e-06
-2.63903e-06
1.31913e-06
-2.66377e-06
1.24627e-06
-2.68262e-06
1.17056e-06
-2.69643e-06
1.09297e-06
-2.70597e-06
1.01433e-06
-2.71196e-06
9.35248e-07
-2.71501e-06
8.56203e-07
-2.71568e-06
7.77524e-07
-2.7144e-06
6.99429e-07
-2.71152e-06
6.22025e-07
-2.7073e-06
5.45345e-07
-2.70193e-06
4.69354e-07
-2.69554e-06
3.93935e-07
-2.68826e-06
3.18953e-07
-2.68017e-06
2.44236e-07
-2.67135e-06
1.6959e-07
-2.66189e-06
9.4796e-08
-2.65189e-06
1.9618e-08
-2.64143e-06
-5.62034e-08
-2.63064e-06
-1.32938e-07
-2.61969e-06
-2.10883e-07
-2.60874e-06
-2.90347e-07
-2.59803e-06
-3.71666e-07
-2.58781e-06
-4.55194e-07
-2.57835e-06
-5.41312e-07
-2.56996e-06
-6.3042e-07
-2.56294e-06
-7.22936e-07
-2.55758e-06
-8.1929e-07
-2.55411e-06
-9.19912e-07
-2.55266e-06
-1.02521e-06
-2.55319e-06
-1.13552e-06
-2.55539e-06
-1.25104e-06
-2.55855e-06
-1.37179e-06
-2.56138e-06
-1.49737e-06
-2.56169e-06
-1.62687e-06
-2.55621e-06
-1.75851e-06
-2.54001e-06
-1.8892e-06
-2.50749e-06
-2.01424e-06
-2.45239e-06
-2.12593e-06
-2.36586e-06
-2.21659e-06
-2.23362e-06
-2.27183e-06
-2.05159e-06
-2.27279e-06
-1.82717e-06
-2.20609e-06
-1.57017e-06
-2.06783e-06
-1.29447e-06
-1.85871e-06
-1.01667e-06
-1.58721e-06
-7.5661e-07
-1.26924e-06
-5.30406e-07
-9.30062e-07
-3.45575e-07
-5.96288e-07
-2.04946e-07
-2.89786e-07
-1.06921e-07
-2.98172e-08
-4.54236e-08
1.68141e-07
-1.20283e-08
2.87034e-07
1.77891e-09
3.14692e-07
1.79241e-07
-4.81596e-08
-1.35841e-07
-1.2946e-07
-4.37147e-08
-2.20763e-07
8.6581e-08
-3.19156e-07
2.18998e-07
-4.25187e-07
3.56729e-07
-5.40085e-07
5.00232e-07
-6.64698e-07
6.47907e-07
-7.99228e-07
7.9737e-07
-9.43143e-07
9.46366e-07
-1.09459e-06
1.09247e-06
-1.25024e-06
1.23238e-06
-1.406e-06
1.36187e-06
-1.55763e-06
1.47628e-06
-1.70134e-06
1.5716e-06
-1.83404e-06
1.64477e-06
-1.95404e-06
1.69455e-06
-2.06118e-06
1.72205e-06
-2.15605e-06
1.7297e-06
-2.23936e-06
1.72001e-06
-2.31178e-06
1.69533e-06
-2.37384e-06
1.65777e-06
-2.42609e-06
1.6092e-06
-2.46916e-06
1.55142e-06
-2.50378e-06
1.48616e-06
-2.53084e-06
1.41504e-06
-2.55128e-06
1.33957e-06
-2.56608e-06
1.26106e-06
-2.57616e-06
1.18064e-06
-2.58239e-06
1.0992e-06
-2.58552e-06
1.01746e-06
-2.58619e-06
9.35923e-07
-2.58494e-06
8.54947e-07
-2.58217e-06
7.74754e-07
-2.5782e-06
6.95457e-07
-2.57325e-06
6.17079e-07
-2.56748e-06
5.39577e-07
-2.56099e-06
4.6286e-07
-2.55384e-06
3.86787e-07
-2.54608e-06
3.11196e-07
-2.53775e-06
2.35899e-07
-2.52886e-06
1.60704e-07
-2.51947e-06
8.54009e-08
-2.50962e-06
9.77192e-09
-2.49938e-06
-6.64422e-08
-2.48885e-06
-1.43464e-07
-2.47818e-06
-2.21561e-07
-2.46752e-06
-3.01006e-07
-2.45709e-06
-3.82093e-07
-2.44715e-06
-4.65134e-07
-2.438e-06
-5.50466e-07
-2.42996e-06
-6.38453e-07
-2.42342e-06
-7.29486e-07
-2.41872e-06
-8.23985e-07
-2.41624e-06
-9.22396e-07
-2.41626e-06
-1.02518e-06
-2.419e-06
-1.13278e-06
-2.42446e-06
-1.24559e-06
-2.43238e-06
-1.36387e-06
-2.44207e-06
-1.48767e-06
-2.45227e-06
-1.61667e-06
-2.46085e-06
-1.74992e-06
-2.46445e-06
-1.8856e-06
-2.45821e-06
-2.02049e-06
-2.43481e-06
-2.14932e-06
-2.38712e-06
-2.26427e-06
-2.30474e-06
-2.35421e-06
-2.17349e-06
-2.40405e-06
-1.98701e-06
-2.39257e-06
-1.75129e-06
-2.30355e-06
-1.47955e-06
-2.13045e-06
-1.18941e-06
-1.87735e-06
-9.01475e-07
-1.55718e-06
-6.3903e-07
-1.19251e-06
-4.18681e-07
-8.16637e-07
-2.46784e-07
-4.61683e-07
-1.23926e-07
-1.52675e-07
-4.5716e-08
8.99307e-08
-5.10419e-09
2.46422e-07
7.40953e-09
3.02179e-07
1.86651e-07
-6.13684e-08
-7.4473e-08
-1.55014e-07
4.99306e-08
-2.57373e-07
1.8894e-07
-3.65791e-07
3.27417e-07
-4.81004e-07
4.71941e-07
-6.04138e-07
6.23366e-07
-7.35815e-07
7.79584e-07
-8.75814e-07
9.37369e-07
-1.02267e-06
1.09322e-06
-1.17365e-06
1.24346e-06
-1.32533e-06
1.38406e-06
-1.47372e-06
1.51026e-06
-1.61514e-06
1.6177e-06
-1.74639e-06
1.70285e-06
-1.86531e-06
1.76369e-06
-1.97127e-06
1.80051e-06
-2.06466e-06
1.81545e-06
-2.14613e-06
1.81117e-06
-2.21629e-06
1.79018e-06
-2.27573e-06
1.75477e-06
-2.32501e-06
1.70705e-06
-2.36486e-06
1.64904e-06
-2.39612e-06
1.58268e-06
-2.41979e-06
1.50983e-06
-2.43695e-06
1.4322e-06
-2.44868e-06
1.3513e-06
-2.456e-06
1.26839e-06
-2.45983e-06
1.18447e-06
-2.46097e-06
1.10034e-06
-2.46005e-06
1.01655e-06
-2.45761e-06
9.3348e-07
-2.45403e-06
8.51368e-07
-2.4496e-06
7.70323e-07
-2.44451e-06
6.90367e-07
-2.43888e-06
6.1145e-07
-2.43278e-06
5.33472e-07
-2.42622e-06
4.56303e-07
-2.41921e-06
3.79782e-07
-2.41175e-06
3.03735e-07
-2.40382e-06
2.27966e-07
-2.3954e-06
1.52287e-07
-2.38651e-06
7.65021e-08
-2.37717e-06
4.37693e-10
-2.36741e-06
-7.62068e-08
-2.35731e-06
-1.53557e-07
-2.347e-06
-2.31872e-07
-2.33662e-06
-3.11385e-07
-2.32637e-06
-3.92344e-07
-2.31649e-06
-4.75013e-07
-2.30728e-06
-5.5968e-07
-2.29907e-06
-6.46662e-07
-2.29225e-06
-7.36305e-07
-2.28724e-06
-8.28998e-07
-2.28446e-06
-9.25171e-07
-2.28435e-06
-1.02529e-06
-2.28726e-06
-1.12987e-06
-2.29345e-06
-1.2394e-06
-2.30297e-06
-1.35435e-06