/*--------------------------------*- C++ -*----------------------------------*\
  =========                 |
  \\      /  F ield         | OpenFOAM: The Open Source CFD Toolbox
   \\    /   O peration     | Website:  https://openfoam.org
    \\  /    A nd           | Version:  13
     \\/     M anipulation  |
\*---------------------------------------------------------------------------*/
FoamFile
{
    format      ascii;
    class       volScalarField;
    location    "3.2";
    object      epsilon;
}
// * * * * * * * * * * * * * * * * * * * * * * * * * * * * * * * * * * * * * //

dimensions      [0 2 -3 0 0 0 0];

internalField   nonuniform List<scalar> 
6400
(
2.17601e-05
0.000110214
0.000257412
0.000411528
0.000537644
0.000625229
0.000681009
0.000720012
0.000758438
0.000810732
0.000888881
0.00100004
0.00115044
0.00134251
0.00157361
0.00183654
0.00212768
0.00243769
0.00275735
0.0030797
0.00340653
0.00375594
0.00415799
0.0046376
0.0051991
0.0058134
0.00643261
0.00705749
0.00769668
0.00836418
0.00906565
0.00978901
0.0104983
0.011196
0.011877
0.0125581
0.0132442
0.0139483
0.0146776
0.0154417
0.0162463
0.0170974
0.0180025
0.0189676
0.0199914
0.0210756
0.0222322
0.0235042
0.0249749
0.026847
0.028657
0.0305243
0.0323418
0.0340929
0.0357104
0.037133
0.038288
0.0390089
0.039344
0.0394268
0.0388376
0.0375962
0.0357129
0.0332355
0.030224
0.0267939
0.0231019
0.0193548
0.0157221
0.0123021
0.00925551
0.00683678
0.00485026
0.00328965
0.00213699
0.00132971
0.000789901
0.000438088
0.000198316
4.16188e-05
0.000105747
9.97662e-05
0.000156157
0.000223873
0.000280742
0.00032383
0.000356256
0.000383773
0.000413238
0.000452288
0.000508554
0.000588653
0.000699478
0.000847153
0.0010365
0.00127152
0.00155704
0.0018973
0.00229694
0.00276238
0.0033042
0.00393084
0.00466438
0.0055295
0.00652732
0.00764096
0.00888099
0.0101687
0.0114402
0.0126422
0.0137071
0.0145857
0.015295
0.0158359
0.0162402
0.0165351
0.0167483
0.0169078
0.0170359
0.0171516
0.0172702
0.0174098
0.0175806
0.0177667
0.0179653
0.0181863
0.01846
0.0187957
0.0191852
0.0196367
0.0201274
0.0206389
0.0211646
0.0216718
0.0221433
0.0225428
0.0227984
0.0228963
0.0228654
0.022623
0.022107
0.0213042
0.0202083
0.0188165
0.0171711
0.0153255
0.0133636
0.0113758
0.00944813
0.0076524
0.00605638
0.00472503
0.00359798
0.00264836
0.00186532
0.00124106
0.000765439
0.000427575
0.000218422
0.000216481
0.000231264
0.000173413
0.000215736
0.000267074
0.000307448
0.000339754
0.000370073
0.000405187
0.000452812
0.000522336
0.000623736
0.000768665
0.000969259
0.00123693
0.00158241
0.00201726
0.00255132
0.00319345
0.00394996
0.00482428
0.00581673
0.00692435
0.00812122
0.00934574
0.0105132
0.011526
0.0122796
0.0128004
0.013156
0.0133981
0.013601
0.0137291
0.013758
0.0136459
0.0135111
0.0133605
0.0132184
0.0130971
0.0130166
0.0129817
0.0129755
0.0130286
0.0131305
0.0133038
0.0135557
0.0138838
0.0142699
0.0147161
0.0152163
0.0157679
0.0163646
0.0169959
0.0176528
0.0183176
0.0189704
0.0195825
0.02012
0.020551
0.0207772
0.0208389
0.020672
0.0201973
0.0193873
0.0182413
0.0168076
0.0151407
0.0133156
0.0114241
0.00955498
0.00779131
0.00620215
0.00483515
0.00369553
0.00276642
0.00202145
0.00142869
0.00095979
0.000596937
0.000372907
0.000553065
0.000394808
0.000288288
0.000329151
0.000377042
0.000415189
0.000450689
0.000492673
0.000551187
0.000637914
0.000766818
0.000955516
0.00122251
0.00158556
0.00205996
0.00265756
0.00338603
0.00424833
0.00523638
0.00632692
0.00747845
0.00863259
0.00971668
0.010651
0.011361
0.0118015
0.0120207
0.0121146
0.01214
0.0120098
0.0117352
0.01142
0.0110439
0.010756
0.0105349
0.0103411
0.0101967
0.010111
0.0100762
0.010073
0.0101396
0.0102533
0.0104251
0.0106503
0.0109335
0.0112726
0.0116667
0.0121143
0.0126172
0.0131742
0.0137847
0.0144463
0.0151539
0.0159008
0.0166754
0.0174613
0.018235
0.0189658
0.019616
0.0201383
0.0204269
0.0205178
0.0203462
0.0198695
0.0190461
0.0177922
0.0162265
0.0144117
0.0124466
0.0104406
0.00850535
0.00673752
0.00520521
0.00393722
0.00292839
0.0021466
0.00154926
0.00109042
0.000738562
0.000533939
0.00088066
0.000613685
0.000441257
0.000476943
0.000525951
0.000571794
0.000623086
0.000692134
0.000793849
0.000946432
0.00117165
0.00149366
0.00193544
0.00251488
0.00324162
0.00411521
0.00512228
0.0062326
0.00739379
0.00853165
0.00955644
0.0103871
0.0109373
0.0111994
0.0112927
0.0113026
0.0110771
0.0106616
0.010196
0.00975182
0.00938067
0.00903601
0.00874816
0.00853063
0.00836468
0.0082499
0.00819417
0.00817551
0.00818983
0.0082592
0.00836824
0.0085182
0.0087093
0.00894088
0.00921419
0.00952975
0.00988943
0.0102954
0.0107505
0.0112569
0.011817
0.0124329
0.013105
0.013832
0.0146102
0.0154322
0.0162847
0.0171454
0.0179849
0.0187643
0.0194299
0.0198785
0.0200597
0.0200033
0.0195567
0.0187868
0.0174758
0.0157854
0.0138152
0.0116853
0.00953812
0.00751587
0.00573309
0.00425643
0.00309848
0.00222858
0.00159252
0.00113035
0.000798766
0.000635738
0.00109138
0.000910261
0.000636992
0.000661187
0.000716074
0.000780358
0.000861306
0.000975316
0.00114375
0.00139244
0.00175009
0.00224414
0.00289465
0.00370817
0.00467357
0.00575942
0.00691201
0.00805474
0.00909242
0.00993173
0.0104589
0.010692
0.0107575
0.0106506
0.0103021
0.00976824
0.0092164
0.00873306
0.00828232
0.00790297
0.00758708
0.00732553
0.00712377
0.00697311
0.00686612
0.00680754
0.00678324
0.00677917
0.00681257
0.00687725
0.00696806
0.00708646
0.00723141
0.00740352
0.00760384
0.00783411
0.00809694
0.00839577
0.00873479
0.009119
0.009554
0.0100459
0.010601
0.0112248
0.0119211
0.0126916
0.0135349
0.0144453
0.0154061
0.0163959
0.0173712
0.0182744
0.0190347
0.0194682
0.0196072
0.0193551
0.0186969
0.0173532
0.0155492
0.0133945
0.0110527
0.00872106
0.00658731
0.00478728
0.00337926
0.00234737
0.00162605
0.00113312
0.000808094
0.000679366
0.00116934
0.00130637
0.000880237
0.000888664
0.000956525
0.00105116
0.00117672
0.00135502
0.00161443
0.00198705
0.0025039
0.00318728
0.00404218
0.00504946
0.00616268
0.00730892
0.00839393
0.00931291
0.00994563
0.0102357
0.0103193
0.0102169
0.00983129
0.00925289
0.0086494
0.00809222
0.00759014
0.00716494
0.00680004
0.0065034
0.00626128
0.00606905
0.00592135
0.00581083
0.00573268
0.0056849
0.00566237
0.00565562
0.00566833
0.0057035
0.00575431
0.0058221
0.00590639
0.00600814
0.00612841
0.00626904
0.00643247
0.00662186
0.00684134
0.00709604
0.00739216
0.00773707
0.00813959
0.00861091
0.00916256
0.00980623
0.0105531
0.0114129
0.0123863
0.013465
0.0146371
0.0158624
0.0170841
0.0182082
0.0190655
0.0194562
0.0195098
0.01896
0.0175948
0.0156257
0.0132041
0.0105679
0.00799416
0.00572772
0.00391959
0.00260231
0.00171442
0.00114683
0.000803394
0.000682724
0.00115386
0.00182149
0.0011745
0.00116523
0.0012581
0.00139435
0.00157922
0.00183973
0.00220965
0.00272271
0.00340383
0.00425872
0.00526481
0.00636687
0.00747909
0.00849483
0.00930437
0.00974854
0.00990666
0.00991174
0.00959513
0.00901739
0.00836883
0.00775261
0.00719055
0.00670543
0.00629247
0.00594991
0.00566551
0.00543524
0.00524827
0.0050996
0.00498288
0.00489305
0.00482612
0.00477885
0.00474955
0.00473595
0.00473229
0.00474141
0.00476395
0.00479745
0.00484284
0.00490039
0.00497117
0.00505653
0.00515841
0.00527915
0.00542182
0.00559019
0.00578897
0.006024
0.00630267
0.00663424
0.00703008
0.00750477
0.00807596
0.00876407
0.00959453
0.010584
0.0117453
0.0130715
0.0145382
0.0160891
0.0176157
0.0189524
0.0197337
0.0200105
0.0196242
0.0181893
0.0159613
0.0131663
0.0101515
0.00729782
0.00490807
0.00312771
0.00193643
0.00121166
0.000810424
0.000675741
0.00111122
0.00246938
0.00152282
0.00149904
0.00162736
0.00181595
0.00207256
0.00242775
0.00291663
0.00356718
0.00438817
0.00535831
0.00642034
0.00748312
0.00843356
0.00914414
0.00948492
0.00958782
0.00945293
0.00898306
0.00831952
0.007658
0.00702851
0.00647755
0.00600376
0.00560741
0.00527766
0.00500622
0.00478296
0.00460134
0.00445366
0.00433525
0.00424117
0.00416783
0.00411223
0.00407197
0.0040456
0.00403279
0.00402851
0.00403261
0.00404932
0.00407438
0.00410938
0.00415411
0.00420945
0.0042763
0.00435603
0.00445021
0.00456089
0.00469058
0.00484232
0.00501979
0.00522748
0.00547082
0.00575714
0.00609587
0.00649973
0.00698828
0.00758776
0.00833363
0.00926857
0.0104277
0.0118417
0.0135016
0.015359
0.0173033
0.0191213
0.0203456
0.0208481
0.0206106
0.0190202
0.0164123
0.013133
0.00968032
0.00655412
0.00409714
0.00240945
0.00138906
0.000856023
0.000679644
0.00109794
0.00325793
0.00193052
0.00189688
0.0020663
0.00231599
0.00265161
0.00310427
0.00370453
0.00446633
0.0053738
0.00637355
0.00737558
0.00826531
0.00889505
0.00917836
0.00925088
0.00900935
0.00844993
0.00776674
0.00707943
0.00645559
0.00590771
0.00544692
0.00506142
0.00474334
0.00448108
0.00426606
0.00409023
0.00394769
0.00383295
0.0037421
0.00367147
0.00361834
0.00358026
0.00355615
0.00354483
0.00354149
0.00354591
0.00356116
0.00358447
0.00361569
0.00365517
0.00370306
0.00376001
0.00382675
0.00390429
0.0039938
0.00409676
0.00421488
0.00435016
0.00450494
0.00468195
0.00488454
0.0051169
0.00538448
0.00569466
0.00605569
0.00648101
0.0069919
0.00762561
0.00844984
0.00953616
0.010965
0.0127534
0.0148867
0.0172482
0.0195747
0.0212495
0.0219593
0.0218041
0.0199271
0.0167929
0.0129303
0.0090287
0.00570313
0.00328428
0.00177306
0.000985386
0.000709967
0.00112569
0.00422192
0.00241082
0.00236027
0.00257336
0.00288753
0.00330145
0.00384192
0.00452844
0.00535414
0.00627464
0.00720693
0.00804003
0.00861892
0.00886919
0.00891762
0.00860946
0.0080142
0.00732355
0.00662814
0.00599895
0.00545795
0.00500234
0.0046264
0.00431632
0.00406262
0.00385531
0.00368717
0.0035519
0.00344462
0.00336105
0.00329783
0.00325188
0.00322058
0.00320437
0.00319808
0.00319761
0.00320782
0.00322494
0.00324975
0.00328097
0.00331896
0.00336389
0.0034162
0.00347654
0.00354575
0.00362489
0.00371509
0.00381775
0.00393437
0.0040666
0.0042162
0.00438504
0.00457511
0.00478858
0.00502796
0.00529653
0.0055991
0.00594324
0.00634103
0.00680668
0.00736848
0.00807911
0.00904184
0.0104161
0.012292
0.0146659
0.0174416
0.0203018
0.0223987
0.0232736
0.0230663
0.0207143
0.0168896
0.0123793
0.00809912
0.0047224
0.00248469
0.00126771
0.000800985
0.00123475
0.00536092
0.00296506
0.00288471
0.00314013
0.00351613
0.00399848
0.00460442
0.00533716
0.00616587
0.00701991
0.0077968
0.0083435
0.0085756
0.00860847
0.00828251
0.00768041
0.00697997
0.00628102
0.00564603
0.00510359
0.00465169
0.00427961
0.00397606
0.00372869
0.00352875
0.00336817
0.00324091
0.00314173
0.00306634
0.00301095
0.00297223
0.00294839
0.00293722
0.00293384
0.00293658
0.00294763
0.00296493
0.00298755
0.00301564
0.00304893
0.0030879
0.00313299
0.00318493
0.0032446
0.00331305
0.00339157
0.00348146
0.00358425
0.00370157
0.00383512
0.00398662
0.00415777
0.00435015
0.00456515
0.00480391
0.00506741
0.00535674
0.00567382
0.00602287
0.0064129
0.00686044
0.00738394
0.00803205
0.00890182
0.0101793
0.0121047
0.0147017
0.0179027
0.0213125
0.0237472
0.0247048
0.0242216
0.0211466
0.0164655
0.0113322
0.00685021
0.00364263
0.00178684
0.00100567
0.00149438
0.00663052
0.003578
0.00345934
0.00375238
0.00418127
0.00471335
0.00535207
0.00608161
0.00684874
0.00756458
0.00808578
0.00830766
0.00833709
0.00802112
0.0074346
0.00673179
0.00602503
0.00538217
0.00483248
0.004378
0.0040067
0.00370556
0.00346283
0.00326824
0.00311409
0.00299361
0.00290139
0.00283266
0.00278325
0.00274947
0.00272926
0.00271986
0.00271693
0.00271826
0.00272643
0.00273902
0.00275565
0.00277615
0.00280079
0.00282991
0.00286421
0.00290444
0.00295158
0.00300674
0.00307119
0.0031463
0.00323363
0.00333488
0.00345188
0.00358655
0.00374087
0.00391679
0.0041161
0.00434028
0.00459028
0.00486635
0.00516798
0.00549402
0.00584335
0.00621654
0.00661915
0.00706615
0.00757536
0.00818944
0.00900704
0.0102215
0.012178
0.0150189
0.018669
0.0226388
0.0252344
0.0261268
0.0250498
0.0209377
0.0153125
0.00971954
0.00533874
0.00261092
0.00137531
0.0019459
0.00799596
0.00423671
0.00406989
0.00439162
0.00485857
0.00541464
0.00604684
0.00672061
0.00736547
0.0078586
0.00807688
0.00811302
0.00782455
0.00726679
0.00657059
0.00585441
0.00519756
0.00463497
0.00417124
0.00379555
0.00349325
0.00325166
0.00306014
0.00290998
0.00279417
0.00270659
0.00264209
0.00259599
0.00256428
0.00254368
0.00253209
0.00252668
0.00252489
0.00252548
0.00253063
0.00253809
0.00254843
0.00256188
0.002579
0.00260053
0.00262729
0.00266025
0.00270051
0.00274926
0.00280785
0.00287771
0.0029605
0.00305803
0.00317231
0.00330552
0.00346
0.00363817
0.0038424
0.00407484
0.00433711
0.00462998
0.00495299
0.00530416
0.00567996
0.00607584
0.00648785
0.00691764
0.00737862
0.00788957
0.00849081
0.00929151
0.0105047
0.0125189
0.0156515
0.0198048
0.0243189
0.0267569
0.0274098
0.0252405
0.0198074
0.0133117
0.00762837
0.00378826
0.00192542
0.00256293
0.00941633
0.00492527
0.00469911
0.0050368
0.00552238
0.00607251
0.00665716
0.00722626
0.00768772
0.00790512
0.0079437
0.00769454
0.00717125
0.00648962
0.00576472
0.00508794
0.00450484
0.00402481
0.00363833
0.00333012
0.00308587
0.00289404
0.00274511
0.0026312
0.00254568
0.00248273
0.00243728
0.00240491
0.00238215
0.00236621
0.00235494
0.00234651
0.00233994
0.00233529
0.00233309
0.00233241
0.00233402
0.00233892
0.00234751
0.00236096
0.00238
0.00240564
0.00243893
0.00248104
0.00253324
0.00259695
0.00267378
0.00276559
0.00287446
0.00300279
0.00315325
0.00332874
0.00353234
0.00376713
0.00403588
0.00434065
0.00468229
0.00505978
0.00546964
0.00590573
0.00635958
0.00682222
0.00729004
0.00777527
0.00829801
0.00890357
0.00971143
0.0109668
0.0131345
0.0166704
0.0214587
0.0261997
0.0282587
0.0284337
0.0244094
0.0175414
0.0105502
0.00536156
0.00267199
0.00331024
0.0108421
0.00562497
0.00532809
0.00566612
0.0061484
0.00666213
0.0071617
0.00758648
0.00779937
0.00783386
0.00763193
0.00714545
0.00648425
0.00575337
0.00505206
0.00444001
0.00393508
0.00353045
0.00321034
0.00295888
0.00276295
0.00261197
0.00249717
0.00241109
0.00234736
0.00230038
0.00226544
0.00223878
0.00221759
0.00219975
0.00218383
0.00216902
0.00215516
0.00214253
0.00213146
0.00212223
0.00211659
0.00211446
0.0021151
0.00212178
0.0021345
0.00215406
0.00218142
0.00221758
0.00226368
0.00232103
0.00239113
0.00247576
0.00257704
0.00269741
0.00283978
0.00300743
0.00320406
0.00343365
0.00370022
0.00400751
0.00435832
0.00475379
0.00519243
0.0056691
0.00617451
0.00669541
0.00721686
0.00772936
0.00824485
0.00878519
0.00940438
0.0102461
0.0115984
0.0140336
0.018096
0.0236423
0.0282866
0.0298669
0.0285126
0.0222094
0.0141397
0.00738984
0.00363198
0.00414191
0.012234
0.00631729
0.00593822
0.00625942
0.00671632
0.00716605
0.00754992
0.00775446
0.00778699
0.00763141
0.00718859
0.00655196
0.00581908
0.00509101
0.0044417
0.00390192
0.00347014
0.00313094
0.0028667
0.00266235
0.00250582
0.00238722
0.00229822
0.00223172
0.00218166
0.00214293
0.00211159
0.00208472
0.0020603
0.00203704
0.00201431
0.00199205
0.00197056
0.00195038
0.0019321
0.00191641
0.00190417
0.00189672
0.00189385
0.00189467
0.001903
0.00191813
0.0019409
0.00197214
0.00201281
0.00206406
0.00212725
0.00220402
0.00229638
0.00240676
0.00253811
0.00269392
0.00287827
0.00309584
0.00335174
0.00365126
0.00399939
0.00439998
0.0048547
0.00536157
0.0059135
0.00649713
0.00709297
0.0076779
0.00823431
0.00877285
0.00933129
0.00998545
0.0108924
0.0124252
0.0153136
0.020053
0.026371
0.0302257
0.0310432
0.0269204
0.018386
0.00994612
0.00482999
0.00501217
0.0135533
0.00698502
0.00651238
0.00679939
0.00721058
0.00757387
0.00778215
0.00782552
0.00768699
0.00729619
0.0066917
0.00596157
0.00520735
0.00451404
0.00392846
0.00345876
0.00309157
0.00280777
0.00258992
0.00242395
0.00229855
0.00220433
0.00213338
0.00207904
0.00203586
0.00199957
0.00196715
0.0019366
0.00190673
0.00187703
0.00184755
0.00181867
0.00179101
0.00176525
0.00174209
0.00172224
0.00170635
0.00169529
0.00169
0.0016886
0.00169358
0.0017058
0.00172519
0.0017525
0.00178851
0.00183419
0.00189073
0.00195961
0.00204268
0.00214223
0.00226112
0.00240281
0.00257155
0.00277237
0.00301108
0.00329421
0.0036286
0.00402081
0.00447607
0.00499672
0.00558021
0.00621697
0.00688864
0.00756796
0.00822228
0.00882599
0.00937545
0.00993848
0.010646
0.0116654
0.0135077
0.0171309
0.022901
0.0293883
0.0320423
0.0310208
0.0231418
0.0131152
0.00628359
0.00591226
0.0147773
0.00761347
0.00703637
0.00727292
0.00762218
0.00785446
0.0079194
0.0077968
0.00746735
0.00689985
0.00618107
0.00540415
0.0046631
0.00402114
0.00350087
0.00309466
0.00278282
0.00254525
0.00236529
0.00222975
0.00212793
0.00205092
0.00199135
0.00194326
0.00190207
0.00186452
0.00182854
0.00179299
0.00175745
0.00172202
0.00168718
0.00165358
0.00162192
0.00159292
0.00156721
0.00154538
0.00152792
0.00151526
0.00150883
0.00150668
0.00150967
0.00151998
0.0015369
0.00156105
0.00159308
0.0016338
0.00168423
0.00174569
0.00181981
0.00190869
0.00201498
0.00214198
0.00229382
0.00247557
0.00269335
0.00295439
0.00326686
0.0036395
0.0040808
0.00459757
0.00519284
0.00586305
0.00659499
0.00736325
0.00812995
0.00885016
0.00950887
0.0100549
0.0106121
0.0113932
0.0126054
0.014982
0.0195938
0.0266824
0.0322024
0.0334794
0.0280657
0.0169753
0.00802606
0.00683471
0.0158763
0.00818968
0.00749907
0.0076705
0.00793116
0.0080379
0.00796798
0.0076919
0.00717232
0.00647509
0.00568411
0.00489567
0.00418897
0.00360455
0.00314579
0.00279507
0.00252985
0.00233029
0.00218066
0.00206849
0.00198365
0.00191785
0.00186447
0.00181847
0.00177627
0.00173563
0.00169536
0.00165505
0.00161486
0.0015753
0.00153704
0.0015008
0.00146727
0.00143705
0.00141064
0.00138846
0.00137084
0.00135803
0.00135133
0.00134897
0.00135094
0.00135992
0.00137492
0.00139645
0.00142505
0.00146139
0.00150635
0.00156108
0.00162701
0.00170602
0.00180047
0.00191341
0.00204868
0.00221113
0.00240683
0.00264319
0.00292907
0.00327467
0.00369101
0.00418889
0.00477693
0.00545871
0.00622888
0.00706889
0.00794353
0.00880053
0.00957855
0.0102666
0.0107973
0.0113552
0.0122482
0.0138042
0.0171064
0.0231329
0.0310488
0.0344957
0.0325823
0.0215517
0.0101434
0.00781021
0.0168252
0.00870497
0.00789288
0.00798674
0.00813894
0.00814938
0.00793635
0.00749538
0.00683804
0.00604671
0.00521782
0.00444237
0.00378115
0.00325415
0.00285072
0.00254747
0.00232101
0.00215225
0.00202632
0.00193144
0.00185814
0.00179893
0.00174811
0.00170167
0.00165705
0.0016129
0.00156878
0.00152483
0.00148156
0.00143966
0.00139985
0.00136279
0.00132904
0.00129906
0.00127318
0.00125165
0.00123467
0.00122236
0.00121582
0.00121346
0.00121488
0.00122278
0.00123615
0.0012554
0.00128097
0.00131344
0.00135357
0.00140235
0.00146102
0.00153123
0.00161508
0.00171528
0.00183531
0.00197964
0.00215399
0.00236557
0.00262335
0.0029382
0.00332275
0.00379079
0.00435579
0.00502831
0.00581194
0.00669795
0.00765959
0.00864782
0.0095925
0.0104295
0.0110887
0.0115911
0.0121777
0.0132721
0.0154402
0.0201775
0.0281836
0.034706
0.0358741
0.02675
0.0127951
0.0089775
0.0176002
0.0091509
0.00821148
0.00821287
0.00827515
0.00817278
0.00784089
0.00725187
0.00648539
0.00563162
0.00479112
0.00404424
0.00343277
0.00295965
0.00260466
0.00234148
0.00214688
0.00200267
0.00189479
0.0018122
0.00174625
0.00169036
0.00163988
0.00159179
0.00154446
0.0014973
0.00145039
0.00140421
0.00135945
0.0013168
0.00127693
0.00124035
0.00120748
0.00117858
0.00115387
0.00113345
0.0011174
0.00110578
0.00109948
0.00109716
0.00109814
0.00110502
0.00111689
0.00113406
0.00115691
0.00118594
0.00122181
0.00126537
0.00131772
0.00138028
0.00145489
0.00154393
0.0016505
0.0017786
0.00193346
0.00212181
0.0023523
0.0026358
0.00298563
0.00341746
0.00394839
0.004595
0.0053696
0.00627462
0.00729514
0.00839108
0.00949186
0.0104996
0.0113667
0.0119577
0.0124135
0.0131246
0.0146084
0.0179678
0.0247882
0.0339296
0.0375198
0.0322559
0.0161647
0.0105041
0.0181891
0.00952906
0.00844715
0.00836238
0.00834236
0.00813872
0.00767747
0.00697826
0.00613068
0.00524059
0.00440737
0.00369782
0.00313602
0.00271165
0.00239837
0.00216867
0.00199997
0.001875
0.00178053
0.00170635
0.00164472
0.00159009
0.00153881
0.0014888
0.0014392
0.00138994
0.00134146
0.0012944
0.00124946
0.00120727
0.00116833
0.00113302
0.00110158
0.00107415
0.00105081
0.00103157
0.00101644
0.00100542
0.000999245
0.000996894
0.000997361
0.0010032
0.00101362
0.00102884
0.0010492
0.00107515
0.00110725
0.00114626
0.00119314
0.00124913
0.00131581
0.00139528
0.00149023
0.00160423
0.00174193
0.00190946
0.00211484
0.0023685
0.00268369
0.00307687
0.00356741
0.00417646
0.00492397
0.00582349
0.0068742
0.00805091
0.00929431
0.0105064
0.0115678
0.0123513
0.0128315
0.0132539
0.0142756
0.0165246
0.0219078
0.0315925
0.0381518
0.0373245
0.0203754
0.0124262
0.0185927
0.00983811
0.00861514
0.00843894
0.00833526
0.008047
0.00747617
0.00668909
0.00578528
0.00487956
0.00406635
0.00339801
0.00288329
0.00250204
0.00222428
0.00202232
0.00187446
0.00176435
0.00167962
0.00161097
0.00155166
0.00149715
0.00144472
0.00139308
0.00134194
0.00129161
0.00124267
0.00119581
0.00115165
0.00111067
0.00107323
0.00103954
0.00100972
0.00098379
0.000961749
0.000943559
0.000929172
0.000918561
0.000912306
0.000909784
0.000909676
0.000914397
0.000923375
0.000936749
0.000954816
0.000977978
0.00100675
0.00104179
0.00108394
0.00113428
0.00119421
0.00126553
0.00135061
0.00145255
0.00157547
0.00172485
0.00190795
0.00213445
0.00241703
0.00277204
0.00321988
0.0037846
0.00449207
0.00536558
0.00641815
0.00764123
0.00899121
0.0103772
0.011659
0.0127149
0.0133429
0.0136916
0.0142259
0.015821
0.0197752
0.0282452
0.0382909
0.0408532
0.0256967
0.0145805
0.0188205
0.0100788
0.00871614
0.00844864
0.00828591
0.00790067
0.00724847
0.00639583
0.00545683
0.00455107
0.00376572
0.00313923
0.0026677
0.00232404
0.0020763
0.00189719
0.00176594
0.00166715
0.00158936
0.00152424
0.00146605
0.00141117
0.00135772
0.00130501
0.00125315
0.00120265
0.00115414
0.00110823
0.00106542
0.00102604
0.000990303
0.000958297
0.000930028
0.000905456
0.000884517
0.000867141
0.000853271
0.000842867
0.000836255
0.000833298
0.000832765
0.000836262
0.000843814
0.000855434
0.000871386
0.000892033
0.000917839
0.000949394
0.000987445
0.00103294
0.00108711
0.00115152
0.00122824
0.00131997
0.00143033
0.00156414
0.00172791
0.00193041
0.00218342
0.00250262
0.00290839
0.00342622
0.00408599
0.00491894
0.00595102
0.00719159
0.00861781
0.0101574
0.0116763
0.013003
0.0138553
0.0142651
0.0145773
0.0155613
0.0182769
0.0252617
0.0371854
0.04279
0.03197
0.0169965
0.0188476
0.0102534
0.00876323
0.00842011
0.00817929
0.00772069
0.00700507
0.00610684
0.00514994
0.00425541
0.00350213
0.00291606
0.00248332
0.0021721
0.00194959
0.00178918
0.00167108
0.00158085
0.00150796
0.00144506
0.00138734
0.00133204
0.00127793
0.00122478
0.00117292
0.00112295
0.00107546
0.00103095
0.000989765
0.000952109
0.000918063
0.000887618
0.000860713
0.000837262
0.000817173
0.000800366
0.000786782
0.00077639
0.000769252
0.000765743
0.000764756
0.000767022
0.000773182
0.000783148
0.00079715
0.000815519
0.000838679
0.000867162
0.00090164
0.000942958
0.000992192
0.00105073
0.00112037
0.00120348
0.00130321
0.00142381
0.00157102
0.00175271
0.0019796
0.00226632
0.0026325
0.00310383
0.00371239
0.00449508
0.00548862
0.0067191
0.00818536
0.00983776
0.0115579
0.0131529
0.0143478
0.0148908
0.0151153
0.0155518
0.0175003
0.0230191
0.0346627
0.0435946
0.038533
0.0195252
0.0187677
0.0103728
0.00875937
0.00834524
0.00803221
0.00751634
0.00675447
0.00582802
0.00486698
0.0039914
0.00327183
0.00272356
0.00232516
0.00204174
0.00184033
0.00169517
0.00158745
0.00150365
0.00143423
0.00137274
0.00131525
0.0012597
0.00120536
0.00115232
0.00110103
0.00105207
0.00100595
0.000963036
0.000923539
0.000887545
0.00085504
0.000825949
0.000800169
0.000777589
0.000758109
0.000741648
0.000728152
0.000717594
0.00070997
0.000705768
0.000704283
0.000705369
0.000710195
0.000718616
0.000730827
0.000747131
0.000767919
0.000793679
0.000825019
0.000862699
0.000907682
0.000961193
0.00102482
0.00110063
0.00119139
0.00130081
0.00143396
0.0015978
0.00180199
0.00205992
0.00239002
0.00281728
0.00337446
0.00410201
0.00504501
0.00624459
0.00772169
0.00945301
0.0113428
0.0132008
0.0147853
0.0155615
0.0158396
0.0160242
0.0171698
0.0212197
0.0318026
0.0437753
0.0443788
0.0218302
0.0185742
0.0104555
0.00872938
0.00822686
0.00785634
0.00729596
0.00650327
0.00556329
0.00460875
0.0037571
0.00307109
0.00255741
0.00218906
0.00192934
0.00174552
0.00161277
0.00151322
0.0014343
0.00136735
0.00130683
0.00124954
0.00119399
0.00113984
0.00108734
0.00103701
0.000989346
0.000944745
0.000903451
0.000865565
0.000831077
0.000799907
0.00077194
0.000747049
0.000725117
0.000706045
0.000689762
0.000676221
0.000665404
0.000657317
0.000652342
0.000650322
0.000650361
0.000653926
0.000660917
0.000671491
0.000685926
0.000704582
0.000727911
0.000756471
0.000790958
0.000832239
0.000881413
0.000939887
0.00100949
0.00109266
0.00119263
0.00131387
0.00146252
0.0016472
0.00188
0.00217791
0.00256465
0.00307245
0.00374341
0.00462835
0.0057807
0.00724198
0.00901715
0.0110425
0.0131554
0.0150816
0.0162216
0.0165861
0.0166371
0.0171164
0.0200141
0.0287787
0.0436561
0.0486618
0.023648
0.0182737
0.0105049
0.0086627
0.00808151
0.00766005
0.00706659
0.00625643
0.005315
0.00437498
0.00355015
0.00289645
0.00241388
0.00207163
0.00183201
0.00166283
0.00154016
0.00144706
0.00137185
0.00130675
0.00124697
0.00118995
0.00113468
0.00108104
0.00102941
0.000980252
0.000933998
0.000890929
0.000851177
0.00081475
0.000781573
0.000751523
0.000724462
0.000700258
0.000678795
0.000659987
0.000643771
0.000630117
0.000619021
0.000610512
0.000604746
0.000601986
0.00060136
0.000603705
0.000609385
0.000618474
0.000631218
0.000647953
0.000669099
0.000695177
0.000726828
0.000764849
0.000810238
0.00086426
0.000928548
0.00100524
0.00109722
0.00120838
0.00134415
0.00151216
0.00172326
0.00199291
0.00234317
0.00280499
0.00342056
0.00424409
0.00533844
0.0067632
0.00855037
0.0106676
0.0129781
0.0152195
0.0168428
0.0174332
0.0174796
0.0175411
0.0194328
0.0265043
0.0420314
0.0510373
0.024564
0.0178737
0.0105181
0.00856855
0.00791596
0.00745046
0.00683392
0.00601756
0.0050844
0.00416475
0.0033681
0.00274474
0.00228983
0.00197007
0.00174744
0.0015904
0.00147592
0.00138794
0.0013156
0.00125193
0.00119281
0.00113621
0.00108143
0.00102855
0.000977953
0.000930074
0.000885238
0.000843624
0.000805275
0.000770128
0.000738065
0.000708938
0.000682601
0.000658924
0.000637803
0.000619162
0.000602953
0.000589157
0.00057778
0.000568854
0.000562432
0.000558922
0.000557752
0.000559021
0.000563522
0.000571276
0.000582498
0.000597499
0.000616676
0.000640516
0.000669623
0.000704737
0.00074678
0.000796906
0.000856589
0.00092774
0.0010129
0.00111552
0.00124038
0.00139423
0.00158671
0.00183181
0.00214975
0.00256968
0.00313272
0.00389442
0.0049242
0.00629687
0.0080708
0.0102491
0.012729
0.0152598
0.0173705
0.0182722
0.0183677
0.0181725
0.0192221
0.0249006
0.0398368
0.0520682
0.024902
0.0173973
0.0105117
0.0084582
0.00773716
0.00723361
0.00660248
0.00578913
0.00487186
0.00397669
0.00320853
0.0026132
0.00218261
0.00188209
0.00167375
0.00152677
0.00141895
0.00133505
0.00126499
0.00120249
0.00114402
0.00108794
0.00103383
0.000981853
0.000932385
0.000885791
0.000842308
0.000802027
0.000764919
0.000730876
0.000699748
0.000671379
0.000645623
0.00062236
0.000601497
0.000582972
0.000566749
0.000552818
0.000541189
0.000531891
0.000524969
0.000520765
0.000519104
0.000519477
0.000522936
0.0005295
0.000539358
0.000552797
0.000570191
0.000592003
0.000618804
0.000651296
0.000690342
0.000737013
0.000792657
0.000859006
0.000938329
0.00103368
0.00114929
0.00129112
0.00146774
0.00169167
0.00198131
0.0023637
0.00287811
0.00357981
0.00454199
0.00585131
0.00758968
0.00979596
0.0124087
0.0152061
0.0177801
0.0191264
0.0193831
0.0189864
0.0192143
0.0235499
0.0375603
0.0523092
0.0249556
0.0168626
0.0104933
0.0083386
0.00755127
0.00701459
0.00637577
0.00557277
0.0046772
0.00380926
0.00306917
0.00249941
0.00209001
0.00180584
0.00160945
0.00147077
0.00136836
0.00128775
0.00121953
0.00115804
0.00110023
0.00104479
0.000991451
0.000940442
0.000892113
0.000846753
0.000804518
0.000765429
0.000729405
0.000696304
0.000665963
0.000638222
0.000612945
0.000590021
0.000569372
0.000550947
0.000534721
0.00052069
0.000508869
0.000499286
0.000491987
0.000487182
0.000485018
0.00048475
0.00048729
0.000492806
0.000501451
0.000513486
0.000529265
0.000549229
0.000573927
0.000604028
0.000640355
0.00068392
0.000735978
0.000798117
0.000872392
0.000961535
0.00106929
0.00120093
0.00136407
0.00156986
0.00183494
0.00218411
0.00265431
0.00329926
0.00419367
0.00543261
0.00711828
0.00932435
0.0120341
0.0150663
0.0180294
0.0199215
0.02045
0.0199593
0.0197325
0.0226547
0.0352362
0.0517028
0.0248155
0.0162867
0.0104608
0.00821404
0.00736325
0.00679753
0.00615644
0.00536942
0.00449982
0.00366085
0.00294795
0.00240128
0.00201018
0.00173978
0.0015533
0.00142143
0.00132343
0.00124548
0.0011788
0.00111821
0.00106107
0.00100633
0.000953828
0.000903807
0.000856579
0.000812367
0.00077126
0.000733223
0.000698138
0.000665844
0.000636171
0.000608966
0.000584099
0.000561474
0.000541024
0.000522709
0.000506513
0.000492437
0.000480495
0.000470717
0.000463149
0.000457855
0.00045519
0.000454504
0.000456265
0.000460874
0.000468449
0.00047923
0.000493548
0.000511827
0.000534595
0.0005625
0.000596338
0.000637077
0.000685907
0.000744312
0.000814175
0.000897967
0.00099903
0.00112204
0.00127375
0.00146408
0.00170798
0.00202806
0.0024586
0.00305097
0.00387946
0.00504438
0.00666429
0.00884512
0.0116166
0.0148437
0.0181536
0.0206458
0.021495
0.0210813
0.0203877
0.0222093
0.0330793
0.0503314
0.0243793
0.0156856
0.0104288
0.00809069
0.00717761
0.00658575
0.00594643
0.00517954
0.00433893
0.0035298
0.00284297
0.00231704
0.00194159
0.00168265
0.00150431
0.00137798
0.00128356
0.00120778
0.00114239
0.00108264
0.00102619
0.00097218
0.000920526
0.000871469
0.000825276
0.000782112
0.00074201
0.000704896
0.000670627
0.000639031
0.000609939
0.000583203
0.000558706
0.000536364
0.000516119
0.000497942
0.000481821
0.000467759
0.000455769
0.000445877
0.000438114
0.000432521
0.000429422
0.000428406
0.00042954
0.000433378
0.000440021
0.000449689
0.000462693
0.000479437
0.000500434
0.000526315
0.000557856
0.000595999
0.000641892
0.000696943
0.00076291
0.000842054
0.000937389
0.00105308
0.00119512
0.00137233
0.00159809
0.00189287
0.00228825
0.00283264
0.00359852