/*--------------------------------*- C++ -*----------------------------------*\
  =========                 |
  \\      /  F ield         | OpenFOAM: The Open Source CFD Toolbox
   \\    /   O peration     | Website:  https://openfoam.org
    \\  /    A nd           | Version:  13
     \\/     M anipulation  |
\*---------------------------------------------------------------------------*/
FoamFile
{
    format      ascii;
    class       volScalarField;
    location    "6.3";
    object      k;
}
// * * * * * * * * * * * * * * * * * * * * * * * * * * * * * * * * * * * * * //

dimensions      [0 2 -2 0 0 0 0];

internalField   nonuniform List<scalar> 
6400
(
5.08495e-07
2.61133e-06
6.33333e-06
1.02175e-05
1.31629e-05
1.48241e-05
1.54277e-05
1.54759e-05
1.55458e-05
1.60882e-05
1.74426e-05
2.0155e-05
2.44921e-05
3.05558e-05
3.80583e-05
4.6593e-05
5.57363e-05
6.52845e-05
7.48406e-05
8.41152e-05
9.33761e-05
0.000103376
0.000115157
0.00012946
0.000145862
0.000162709
0.000179397
0.000195921
0.000212754
0.000230368
0.000248618
0.000266793
0.000284661
0.000302159
0.000319805
0.000337686
0.000356211
0.000375499
0.000395809
0.000417221
0.000439888
0.000463979
0.000489642
0.000517239
0.00054689
0.000579532
0.000616822
0.000662426
0.000711235
0.00076011
0.000808651
0.000855877
0.000900594
0.000941431
0.000976974
0.00100545
0.00102151
0.00102828
0.001029
0.00101192
0.000979455
0.000931603
0.000869021
0.000793532
0.000707496
0.000614617
0.000519755
0.000426719
0.00033905
0.000260234
0.00019659
0.000143142
9.9898e-05
6.67439e-05
4.28602e-05
2.65836e-05
1.59686e-05
9.14018e-06
4.31017e-06
9.16746e-07
2.46244e-06
2.07373e-05
5.03314e-05
7.89272e-05
0.0001002
0.000112908
0.000118915
0.000121242
0.000123288
0.00012792
0.000138399
0.000158702
0.000189973
0.000231777
0.000282224
0.000338744
0.00039906
0.000460926
0.000522469
0.000582822
0.000643572
0.000708825
0.000783933
0.000872028
0.000970095
0.00106976
0.00116681
0.00125937
0.00134818
0.00143432
0.00151628
0.00159254
0.00166211
0.0017252
0.00178453
0.00184075
0.001896
0.00195107
0.00200735
0.00206543
0.00212603
0.00218982
0.00225698
0.00232795
0.00240203
0.00247912
0.00255793
0.00263564
0.00271658
0.00280116
0.00288806
0.00297477
0.00305944
0.00313866
0.00320913
0.00326668
0.00330041
0.00331259
0.00330721
0.00326905
0.00319371
0.00308061
0.00292815
0.00273858
0.00251676
0.00227011
0.00201048
0.00174636
0.00148539
0.00123362
0.000992901
0.000773498
0.000582357
0.000422098
0.000293991
0.000196039
0.000124967
7.50843e-05
3.63136e-05
4.84892e-06
5.39209e-06
4.51289e-05
0.000105311
0.000156326
0.000191205
0.000211723
0.000222839
0.000230186
0.000239502
0.000256461
0.000286714
0.000335075
0.000403438
0.000490253
0.000591715
0.000703724
0.000823114
0.000947306
0.00107374
0.00120018
0.00132487
0.00144698
0.00156459
0.00167298
0.00176723
0.0018434
0.00189868
0.00193685
0.00196566
0.00199198
0.00202043
0.00205079
0.00208406
0.00211692
0.00215338
0.00219235
0.00223571
0.00228332
0.00233617
0.00239438
0.00245782
0.00252696
0.0026015
0.00268135
0.00276659
0.00285703
0.00295182
0.00305235
0.0031584
0.00326882
0.00338236
0.00349712
0.00361092
0.00372065
0.00382263
0.00391226
0.00398433
0.00402799
0.00404334
0.00403229
0.00397782
0.00387888
0.00373081
0.00353492
0.00329351
0.00301253
0.00270902
0.00239199
0.00207175
0.00175909
0.00146311
0.0011907
0.000947107
0.000734827
0.000554968
0.00040676
0.00028696
0.000188074
9.53934e-05
1.29498e-05
9.37192e-06
7.60392e-05
0.000166337
0.000234844
0.000279748
0.000307379
0.000325704
0.000342808
0.000366727
0.000405395
0.000466069
0.000553417
0.000667547
0.000804052
0.000956317
0.00111795
0.0012834
0.0014472
0.00160339
0.00174613
0.00186968
0.00197169
0.00204975
0.00209699
0.00211757
0.0021227
0.00211764
0.00211336
0.00211201
0.00211537
0.00212504
0.00213768
0.00215553
0.00217794
0.00220578
0.00223849
0.00227676
0.00232048
0.00236966
0.00242449
0.00248507
0.00255159
0.00262401
0.00270226
0.00278605
0.00287534
0.00297141
0.00307396
0.00318265
0.0032968
0.00341535
0.00353686
0.00365938
0.00378019
0.00389587
0.00400214
0.00409373
0.00416502
0.00420218
0.00421253
0.00418459
0.00411272
0.00399571
0.00383228
0.00361591
0.00334637
0.00304048
0.00270805
0.00236505
0.00202605
0.00170345
0.00140638
0.0011403
0.000907449
0.000707991
0.0005404
0.00040031
0.000278171
0.000151114
2.14976e-05
1.5044e-05
0.0001175
0.000238892
0.000324154
0.000379206
0.000415324
0.000443803
0.000475536
0.00052107
0.00059023
0.000690342
0.000823666
0.000986099
0.00116876
0.00136118
0.00155342
0.00173635
0.00190121
0.00203874
0.00214434
0.00220776
0.00223336
0.00223659
0.00220831
0.00217764
0.00215
0.00212763
0.00211174
0.00210383
0.00210088
0.00210106
0.002107
0.00211746
0.00213214
0.00215106
0.002174
0.00220093
0.00223153
0.00226569
0.00230364
0.00234541
0.00239135
0.00244232
0.00249887
0.00256191
0.00263198
0.00270844
0.00279196
0.00288266
0.00298072
0.00308608
0.00319824
0.00331636
0.003439
0.00356414
0.00368895
0.00380878
0.00391838
0.00401118
0.00407293
0.00409754
0.00408842
0.00402038
0.00389779
0.00372572
0.00350038
0.00321493
0.00288824
0.0025376
0.0021818
0.00183839
0.00152116
0.00123842
0.000993103
0.000784578
0.00060986
0.000463131
0.000332297
0.000188637
2.73452e-05
2.31536e-05
0.000172769
0.000327278
0.000430112
0.000496722
0.000543603
0.000585785
0.000637264
0.000710843
0.00081675
0.000959923
0.00113768
0.0013401
0.00155312
0.00176194
0.00195287
0.00211391
0.00223736
0.00230603
0.0023297
0.0023212
0.00227723
0.00223329
0.00219
0.00214901
0.00211323
0.00208369
0.00205976
0.00204082
0.00202544
0.00201281
0.00200548
0.00200174
0.00200045
0.00200096
0.00200499
0.00201118
0.00202011
0.00203173
0.00204649
0.00206468
0.00208686
0.00211279
0.00214313
0.00217831
0.0022189
0.00226555
0.00231928
0.00238107
0.00245197
0.00253315
0.00262543
0.00272947
0.00284537
0.00297228
0.00310838
0.0032518
0.00339786
0.00354149
0.00367323
0.00378446
0.00385054
0.00387287
0.00384201
0.00374354
0.00358381
0.00334502
0.00304272
0.0026941
0.00232258
0.00195295
0.0016069
0.00129926
0.00103624
0.000817113
0.00063686
0.000487235
0.000353632
0.000204912
2.94225e-05
3.44328e-05
0.000243801
0.00043386
0.000555592
0.000635469
0.000695591
0.000754989
0.000830533
0.000936049
0.00107984
0.00126185
0.00147281
0.0016966
0.00191441
0.00210828
0.00226303
0.00236003
0.00239814
0.00239954
0.00235326
0.0023015
0.00223904
0.00217858
0.00211709
0.00206284
0.00201589
0.00197501
0.00193862
0.00190631
0.00187835
0.00185438
0.00183329
0.0018145
0.0017978
0.00178327
0.00177116
0.00176117
0.00175364
0.0017489
0.00174681
0.00174638
0.00174931
0.0017552
0.00176454
0.00177768
0.00179501
0.00181725
0.00184511
0.00187985
0.00192272
0.00197534
0.00203991
0.00211863
0.00221392
0.00232769
0.00245952
0.00261114
0.00278031
0.00296174
0.00314871
0.00333322
0.00350112
0.00363146
0.00369244
0.0037021
0.00362635
0.00348198
0.00323032
0.00289989
0.002517
0.00211421
0.00172429
0.00137371
0.00107705
0.000836037
0.000643955
0.000488402
0.000352155
0.000203681
2.85439e-05
4.95679e-05
0.000331681
0.000559377
0.00070138
0.000796148
0.000871631
0.00095073
0.00105227
0.00118915
0.00136531
0.00157397
0.00179897
0.00201886
0.00221172
0.00235982
0.00243591
0.00245765
0.00243118
0.00237777
0.00230413
0.00222155
0.00213392
0.00205615
0.00198621
0.00192696
0.0018729
0.00182411
0.00177932
0.00173851
0.00170134
0.0016674
0.00163634
0.00160811
0.00158276
0.00156034
0.00154079
0.00152389
0.00150971
0.0014982
0.00148931
0.00148312
0.00148017
0.00147925
0.00148101
0.00148657
0.00149531
0.0015081
0.00152526
0.0015472
0.00157452
0.00160806
0.00164892
0.00169851
0.00175903
0.00183399
0.00192976
0.00205088
0.00220224
0.00238601
0.00259298
0.00282097
0.00305653
0.00328337
0.00347987
0.00359382
0.00363089
0.00358534
0.0034466
0.00316815
0.00279543
0.00236531
0.00192169
0.00150739
0.0011531
0.000870444
0.000653208
0.000484872
0.000343785
0.000196938
2.65111e-05
6.90553e-05
0.000436305
0.000703332
0.000866715
0.000977525
0.00106943
0.00116861
0.00129443
0.00145679
0.00165357
0.00187092
0.00208693
0.00227713
0.00241599
0.0024798
0.00249089
0.00245051
0.00238595
0.00229149
0.00218155
0.00207883
0.00198829
0.00190793
0.00183595
0.00177163
0.00171203
0.00165755
0.00160743
0.00156187
0.00152062
0.00148364
0.00145086
0.00142225
0.00139761
0.00137674
0.00135943
0.00134545
0.00133458
0.00132649
0.00132132
0.00131893
0.00131825
0.00131981
0.00132427
0.00133124
0.00134076
0.00135304
0.00136825
0.00138663
0.00140849
0.00143426
0.00146446
0.00149978
0.00154113
0.00158979
0.00164785
0.00171857
0.00180754
0.00192525
0.00209198
0.00230626
0.00256252
0.00284063
0.00312469
0.00338404
0.00355207
0.00361408
0.00359715
0.00345664
0.00313939
0.00271256
0.00222531
0.0017367
0.00129981
0.000946536
0.000681518
0.000487127
0.000331746
0.000183687
2.42723e-05
9.31118e-05
0.000556278
0.000863939
0.00104948
0.0011766
0.00128426
0.00140104
0.00154533
0.00172252
0.00192387
0.00212945
0.00231389
0.00244607
0.00250334
0.0025095
0.00246622
0.00238447
0.00226678
0.00214037
0.0020258
0.00192301
0.00183232
0.00175079
0.00167696
0.0016098
0.00154829
0.00149289
0.00144333
0.00139982
0.00136216
0.00133022
0.00130366
0.00128209
0.00126504
0.00125199
0.00124241
0.0012358
0.00123229
0.00123086
0.00123069
0.00123304
0.00123684
0.00124251
0.00124991
0.00125906
0.00127001
0.00128292
0.00129795
0.00131533
0.00133533
0.00135813
0.00138396
0.00141314
0.00144603
0.00148308
0.00152477
0.0015724
0.00162832
0.001697
0.00178675
0.00191104
0.00209739
0.00236045
0.00267368
0.00300897
0.00333053
0.00355378
0.00363952
0.00364017
0.00348574
0.00311888
0.00262686
0.00207789
0.00154717
0.00109589
0.000751407
0.000507058
0.000329321
0.000172447
2.25056e-05
0.000122042
0.000688137
0.0010382
0.00124624
0.00138867
0.00150932
0.00163825
0.00179171
0.0019699
0.00215811
0.00233235
0.00245923
0.00251328
0.00251742
0.00247387
0.00237823
0.00224363
0.00210605
0.00197792
0.00186489
0.00176417
0.00167448
0.00159347
0.00152047
0.00145506
0.00139718
0.00134713
0.00130465
0.00126955
0.00124126
0.00121914
0.00120239
0.00119023
0.00118186
0.00117679
0.00117441
0.00117368
0.00117445
0.00117707
0.00118078
0.00118596
0.00119228
0.00119997
0.00120901
0.00121952
0.00123165
0.00124557
0.0012614
0.00127932
0.00129943
0.00132185
0.00134667
0.00137401
0.00140399
0.00143686
0.00147297
0.00151197
0.00155451
0.00160181
0.0016569
0.00172688
0.00182472
0.0019727
0.00221156
0.00254856
0.0029241
0.00330925
0.00358336
0.0036899
0.00369287
0.00351089
0.00307907
0.00251421
0.00190526
0.00134323
0.000891289
0.000564189
0.000341679
0.000170827
2.20867e-05
0.000157496
0.000827119
0.00122257
0.00145243
0.00160771
0.00173656
0.00186976
0.00202082
0.00218505
0.00234338
0.00246397
0.00251641
0.00252037
0.00247753
0.0023737
0.0022282
0.00207963
0.00194013
0.00181579
0.00170652
0.00160919
0.0015226
0.00144552
0.00137792
0.00131971
0.00127086
0.00123107
0.00119959
0.00117554
0.00115782
0.00114533
0.001137
0.00113212
0.00112983
0.00112909
0.00112941
0.00113127
0.00113399
0.00113773
0.00114232
0.00114797
0.00115468
0.00116268
0.00117207
0.00118306
0.00119584
0.00121061
0.00122756
0.00124683
0.00126856
0.00129282
0.00131962
0.00134887
0.0013804
0.00141394
0.00144925
0.00148624
0.00152515
0.00156602
0.00160874
0.0016557
0.00171263
0.00179137
0.0019136
0.00211694
0.0024567
0.00287137
0.00331464
0.00362943
0.00374789
0.00374164
0.0035051
0.00299418
0.00235246
0.00169392
0.00111922
0.000682677
0.000383598
0.000179641
2.30864e-05
0.000197071
0.000973738
0.0014131
0.00166277
0.00182708
0.00195776
0.00208583
0.00222218
0.00235834
0.00246901
0.00251945
0.00252402
0.00248209
0.00237602
0.00222422
0.00206439
0.00191378
0.00177867
0.00166026
0.00155631
0.00146461
0.00138455
0.00131564
0.00125789
0.00121088
0.00117391
0.00114585
0.00112535
0.00111098
0.00110135
0.00109525
0.00109184
0.00109025
0.0010897
0.00108966
0.00109058
0.00109216
0.00109437
0.00109732
0.00110112
0.00110596
0.00111202
0.00111951
0.00112863
0.00113959
0.00115262
0.00116794
0.00118575
0.00120627
0.00122966
0.00125605
0.0012855
0.00131795
0.0013532
0.00139084
0.00143028
0.00147077
0.00151156
0.00155222
0.00159312
0.001634
0.00167603
0.00172431
0.00178948
0.00189403
0.00207788
0.00240082
0.00285036
0.0033441
0.00368513
0.00380508
0.00376444
0.00344396
0.00283846
0.00212451
0.00143679
0.000874693
0.000474567
0.000208614
2.69062e-05
0.0002396
0.00112442
0.001605
0.00187154
0.00204014
0.00216542
0.00227857
0.00238857
0.00248341
0.00252909
0.00253367
0.00249147
0.00238742
0.00223269
0.00206347
0.00190084
0.00175476
0.00162686
0.00151582
0.00141938
0.00133633
0.00126635
0.00120894
0.00116349
0.00112876
0.00110325
0.00108518
0.00107283
0.00106464
0.0010593
0.00105584
0.00105354
0.00105188
0.00105059
0.00104974
0.00104939
0.00104934
0.00105004
0.00105155
0.00105412
0.00105789
0.00106311
0.00106995
0.00107864
0.00108938
0.00110238
0.00111788
0.00113611
0.0011573
0.00118168
0.00120949
0.00124088
0.00127596
0.00131468
0.00135676
0.00140167
0.00144849
0.00149598
0.00154264
0.00158718
0.00162919
0.00166907
0.0017081
0.00174986
0.00180601
0.00189968
0.0020707
0.002383
0.00286194
0.0033996
0.00374179
0.00384396
0.00374326
0.0032993
0.00259138
0.00182199
0.00113686
0.000619812
0.000269161
3.56891e-05
0.000283707
0.00127522
0.00179331
0.0020732
0.00224088
0.00235351
0.00244269
0.00251645
0.00255262
0.00255502
0.00250983
0.00240991
0.00225501
0.00207853
0.00190387
0.0017454
0.00160718
0.00148813
0.00138625
0.00129985
0.00122815
0.00117051
0.00112577
0.00109238
0.00106833
0.00105156
0.00104007
0.00103217
0.00102653
0.00102219
0.00101851
0.00101515
0.00101193
0.00100891
0.0010062
0.00100393
0.00100246
0.00100188
0.00100186
0.00100343
0.0010064
0.00101096
0.00101732
0.00102565
0.00103612
0.00104895
0.00106433
0.00108251
0.00110374
0.0011283
0.0011565
0.00118862
0.00122494
0.00126562
0.00131071
0.00135994
0.00141271
0.00146784
0.00152359
0.00157766
0.00162762
0.00167187
0.00171026
0.00174437
0.00178301
0.00183398
0.0019219
0.00208712
0.00240133
0.00290901
0.00348321
0.00378696
0.00385078
0.00365817
0.00304635
0.0022425
0.00145123
0.000810875
0.000356568
4.91117e-05
0.000327999
0.00142226
0.00197339
0.00226282
0.00242427
0.00251782
0.00257425
0.00259826
0.00259345
0.00254207
0.00244591
0.00229266
0.00211101
0.0019249
0.00175263
0.00160217
0.00147369
0.00136499
0.00127414
0.00119976
0.00114079
0.00109575
0.00106261
0.00103903
0.00102258
0.00101108
0.00100272
0.000996163
0.000990477
0.00098512
0.000979833
0.000974565
0.000969403
0.00096452
0.000960118
0.000956399
0.000953579
0.000952073
0.000951543
0.000952222
0.000954812
0.000959018
0.000965111
0.000973197
0.000983441
0.00099601
0.00101109
0.00102892
0.00104973
0.00107384
0.00110158
0.00113332
0.00116947
0.0012104
0.00125644
0.00130774
0.00136414
0.00142502
0.00148902
0.00155394
0.00161662
0.00167332
0.00172161
0.00176099
0.00178576
0.00181966
0.00187038
0.00195613
0.00212366
0.00245612
0.0030042
0.00357099
0.00381734
0.0038202
0.00344442
0.00266878
0.00179855
0.0010362
0.00046393
6.60569e-05
0.000371616
0.00156134
0.00214142
0.00243705
0.00258587
0.00265074
0.00266863
0.00265153
0.00259277
0.00249872
0.00234737
0.00216239
0.00196583
0.00177876
0.00161359
0.00147327
0.00135585
0.00125884
0.00118036
0.00111876
0.00107218
0.00103823
0.00101416
0.00099728
0.000985163
0.000975903
0.000968115
0.000960915
0.000953823
0.000946656
0.000939437
0.00093231
0.000925479
0.000919171
0.0009136
0.000908966
0.000905447
0.000903493
0.000902753
0.000903028
0.0009055
0.000909585
0.000915563
0.000923512
0.000933565
0.000945866
0.000960582
0.000977913
0.000998096
0.00102142
0.00104822
0.0010789
0.00111393
0.00115382
0.00119909
0.00125022
0.00130755
0.00137104
0.00144013
0.00151334
0.00158802
0.00166014
0.00172448
0.00177779
0.00181633
0.00183395
0.00186135
0.00191268
0.002
0.00217809
0.00254276
0.00313876
0.00365967
0.00384241
0.0036991
0.00307231
0.00216573
0.00128734
0.000585164
8.54627e-05
0.000413665
0.00169087
0.00229444
0.00258922
0.00271879
0.002755
0.00273828
0.00267394
0.00257069
0.00242155
0.00223423
0.00202854
0.00182624
0.00164391
0.00148853
0.00135963
0.00125425
0.00116976
0.00110395
0.00105448
0.00101859
0.000993184
0.000975226
0.000962072
0.000951655
0.000942536
0.00093383
0.000925098
0.000916212
0.000907247
0.000898388
0.000889864
0.000881912
0.000874749
0.000868565
0.000863521
0.000859754
0.000857686
0.000856904
0.000857119
0.000859585
0.000863664
0.000869591
0.00087744
0.00088732
0.000899358
0.000913699
0.000930519
0.00095003
0.000972491
0.000998221
0.0010276
0.00106111
0.00109929
0.00114278
0.00119226
0.0012484
0.00131171
0.00138235
0.00145983
0.00154255
0.00162741
0.00170941
0.00178167
0.00183974
0.00187245
0.00188556
0.00190678
0.00195959
0.00205301
0.00225254
0.002674
0.00331448
0.00371499
0.00379037
0.00342623
0.00254252
0.00156055
0.000716558
0.000106431
0.000452543
0.00180765
0.00242718
0.002716
0.00282405
0.00283679
0.00277875
0.00266779
0.00251969
0.00232861
0.0021149
0.00189762
0.00169616
0.00152211
0.00137803
0.0012613
0.00116844
0.00109648
0.00104257
0.00100352
0.000975886
0.000956274
0.000941747
0.000930037
0.000919588
0.000909477
0.000899269
0.000888868
0.000878382
0.000868023
0.000858038
0.000848667
0.000840122
0.000832581
0.000826187
0.000821056
0.000817283
0.000815255
0.000814502
0.000814783
0.000817251
0.000821323
0.000827183
0.000834913
0.000844605
0.000856374
0.00087035
0.00088669
0.000905581
0.000927251
0.000951982
0.000980121
0.0010121
0.00104845
0.00108982
0.00113697
0.00119075
0.00125203
0.00132154
0.00139964
0.0014859
0.00157859
0.00167407
0.00176629
0.00184661
0.00190531
0.00193023
0.0019391
0.00195495
0.00201086
0.00211609
0.00235456
0.00286357
0.00349351
0.00375797
0.00363612
0.00290641
0.0018515
0.000855323
0.000128219
0.000486805
0.00190871
0.00253753
0.00281749
0.0029064
0.00289333
0.00279434
0.0026438
0.00244901
0.00222701
0.00199547
0.00177373
0.00157757
0.00141388
0.00128185
0.00117757
0.00109708
0.00103685
0.000993223
0.000962351
0.000940453
0.000924223
0.000911111
0.000899375
0.000887992
0.000876493
0.000864784
0.000852988
0.000841335
0.000830082
0.000819469
0.000809701
0.000800942
0.000793319
0.00078693
0.000781853
0.000778149
0.000776174
0.000775448
0.000775762
0.000778169
0.000782166
0.000787895
0.000795445
0.000804903
0.000816379
0.000829994
0.00084589
0.000864235
0.000885229
0.000909116
0.000936198
0.000966855
0.00100157
0.00104093
0.00108569
0.00113675
0.00119514
0.00126195
0.00133817
0.00142433
0.00152002
0.00162324
0.00172955
0.00183148
0.00191846
0.00197367
0.00198922
0.00199308
0.00200554
0.00206615
0.00219479
0.00250405
0.00310638
0.00359887
0.00370591
0.00323814
0.00215483
0.000996451
0.000151069
0.000515633
0.00199276
0.00262493
0.00289426
0.00296765
0.00292543
0.00278816
0.00259667
0.00236775
0.0021223
0.00188011
0.00165917
0.00147119
0.00131893
0.00119919
0.00110712
0.00103823
0.000988275
0.000952922
0.000927942
0.00090959
0.000894927
0.000881931
0.000869406
0.000856794
0.000843968
0.000831049
0.000818276
0.00080591
0.000794191
0.000783318
0.000773443
0.000764678
0.000757106
0.000750787
0.000745773
0.000742106
0.00074011
0.000739367
0.000739603
0.000741853
0.000745677
0.000751188
0.000758481
0.000767647
0.000778792
0.000792034
0.000807508
0.000825367
0.000845788
0.000868986
0.000895221
0.000924819
0.000958192
0.000995869
0.00103853
0.00108702
0.00114241
0.00120594
0.00127896
0.00136271
0.00145792
0.00156414
0.00167884
0.00179629
0.00190665
0.00199532
0.00203945
0.00204778
0.00204684
0.00205724
0.00212788
0.0023
0.00272559
0.00337308
0.00365751
0.00346515
0.00245977
0.00113977
0.000174499
0.000538611
0.00205976
0.00269038
0.00294817
0.00300714
0.00293585
0.00276755
0.0025379
0.00228082
0.00201857
0.00177143
0.00155501
0.0013769
0.00123648
0.0011288
0.00104825
0.0009897
0.000948242
0.000919108
0.000898021
0.000881543
0.000867251
0.000853677
0.000840105
0.000826331
0.000812453
0.000798704
0.00078535
0.000772633
0.000760746
0.000749832
0.000739992
0.000731295
0.000723788
0.000717511
0.000712496
0.00070878
0.000706651
0.000705825
0.000705871
0.000707854
0.000711408
0.000716614
0.000723575
0.000732387
0.000743157
0.000756004
0.000771057
0.000788463
0.000808385
0.000831013
0.000856575
0.00088535
0.00091769
0.000954045
0.000995005
0.00104134
0.00109403
0.00115433
0.00122373
0.00130387
0.00139628
0.00150187
0.00162006
0.00174765
0.00187749
0.00199747
0.00207694
0.0021041
0.00210547
0.00209609
0.00211095
0.00220381
0.00245329
0.00302531
0.00349759
0.00355754
0.00276846
0.00130074
0.000200897
0.000555612
0.00211036
0.00273527
0.00298103
0.00302674
0.00292953
0.00272944
0.00247103
0.00219201
0.00191863
0.00167091
0.00146147
0.0012941
0.00116544
0.00106921
0.000999102
0.000949362
0.00091458
0.000889836
0.000871071
0.000855325
0.000840727
0.00082631
0.000811734
0.000797038
0.000782437
0.0007682
0.00075457
0.000741742
0.000729853
0.000718995
0.000709225
0.000700582
0.000693093
0.000686785
0.000681686
0.000677832
0.000675433
0.000674399
0.000674259
0.000675847
0.000679047
0.000683875
0.000690441
0.000698842
0.000709193
0.000721614
0.000736234
0.000753196
0.000772656
0.000794789
0.000819798
0.000847928
0.000879479
0.000914833
0.000954492
0.000999118
0.00104959
0.00110707
0.00117302
0.00124925
0.00133772
0.00144025
0.00155775
0.00168909
0.00182955
0.00196916
0.00209162
0.00215722
0.00216981
0.00215412
0.00213682
0.00217214
0.00230616
0.00271031
0.00333276
0.00356685
0.00306681
0.00150341
0.000235453
0.000566913
0.00214553
0.00276059
0.00299313
0.00302619
0.00291016
0.00268188
0.00239966
0.00210418
0.00182433
0.00157921
0.00137827
0.00122189
0.00110454
0.00101886
0.000957903
0.000915373
0.000885597
0.000863756
0.000846194
0.000830484
0.000815277
0.000800012
0.00078462
0.000769277
0.000754246
0.000739778
0.00072607
0.00071326
0.000701435
0.000690645
0.000680919
0.000672275
0.000664731
0.000658311
0.000653043
0.000648968
0.000646194
0.000644866
0.000644524
0.000645637
0.000648419
0.000652816
0.000658935
0.000666883
0.000676775
0.000688737
0.000702901
0.000719408
0.000738413
0.000760084
0.000784608
0.000812206
0.00084314
0.000877737
0.000916421
0.000959756
0.0010085
0.00106368
0.00112667
0.00119923
0.00128355
0.001382
0.0014967
0.00162852
0.0017755
0.00193089
0.00208123
0.00219002
0.00223079
0.00223159
0.00218983
0.00217163
0.00223852
0.00247465
0.00305714
0.00344415
0.00329012
0.00175889
0.000281832
0.000572529
0.00216559
0.00276747
0.00298991
0.0030151
0.00287634
0.00262733
0.00232654
0.00201937
0.00173676
0.00149646
0.00130481
0.00115925
0.00105249
0.000976272
0.000923078
0.000886252
0.000860074
0.00084002
0.000822922
0.000806884
0.000791
0.000775014
0.000759029
0.000743288
0.000728045
0.000713511
0.000699829
0.000687086
0.000675327
0.000664573
0.000654835
0.000646123
0.000638452
0.000631846
0.000626339
0.000621974
0.000618805
0.000617108
0.000616533
0.000617137
0.000619458
0.000623387
0.000629028
0.000636489
0.000645891
0.000657362
0.00067104
0.000687069
0.000705605
0.000726814
0.000750878
0.000778001
0.00080842
0.000842422
0.00088037
0.000922741
0.00097018
0.00102357
0.00108414
0.00115352
0.00123388
0.00132783
0.00143819
0.00156724
0.00171528
0.00187855
0.00204671
0.00220082
0.00228586
0.00230272
0.00227364
0.00222392
0.00221949
0.00234988
0.00279346
0.00331558
0.00339194
0.00206167
0.000339219
0.000572194
0.00217327
0.00276274
0.00297577
0.00298961
0.00283382
0.00256842
0.0022538
0.00193902
0.00165647
0.00142242
0.00124032
0.0011051
0.00100803
0.000940096
0.000893327
0.000860882
0.000837189
0.000818133
0.000801061
0.00078455
0.000768046
0.000751509
0.000735135
0.000719182
0.00070387
0.000689359
0.00067574
0.000663061
0.000651336
0.000640569
0.000630761
0.000621922
0.000614067
0.000607223
0.00060143
0.000596734
0.000593191
0.00059106
0.000590221
0.000590336
0.000592167
0.000595612
0.000600755
0.000607709
0.000616596
0.00062755
0.000640712
0.000656232
0.00067427
0.000694995
0.000718589
0.00074525
0.0007752
0.000808699
0.000846067
0.00088771
0.000934176
0.00098622
0.0010449
0.00111169
0.00118862
0.00127833
0.00138404
0.00150903
0.00165557
0.00182288
0.00200427
0.00218443
0.00231892
0.00236786
0.0023624
0.00228381
0.00223962
0.00228902
0.00256443
0.0031707
0.00341319
0.00239915
0.000405274
0.000569109
0.0021714
0.00274718
0.00294675
0.00295196
0.00278446
0.0025072
0.00218305
0.00186402
0.00158362
0.00135665
0.00118397
0.00105841
0.000970021
0.000909195
0.000867627
0.000838465
0.00081642
0.000797839
0.000780559
0.000763557
0.000746544
0.000729618
0.000713015
0.000696973
0.000681671
0.000667216
0.000653659
0.000641015
0.000629281
0.000618453
0.000608529
0.000599519
0.000591444
0.000584338
0.000578244
0.000573217
0.00056932
0.000566713
0.000565511
0.000565287
0.000566594
0.000569547
0.000574188
0.000580624
0.000588981
0.000599396
0.000612014
0.000626992
0.000644495
0.0006647
0.000687792
0.000713972
0.000743456
0.00077649
0.000813362
0.000854429
0.00090016
0.000951195
0.00100844
0.00107318
0.00114725
0.00123316
0.00133421
0.00145426
0.00159694
0.00176394
0.00195193
0.00214882
0.00233048
0.00242678
0.00244315
0.00238738
0.00228961
0.00227126
0.00242291
0.00294915
0.00332219
0.00272731
0.000471818
0.00056228
0.00216305
0.00271817
0.00290768
0.00290588
0.0027303
0.00244533
0.00211541
0.00179489
0.00151812
0.00129858
0.00113492
0.00101819
0.000937469
0.000882633
0.000845204
0.00081845
0.000797448
0.000779017
0.000761429
0.000743982
0.000726578
0.000709394
0.000692671
0.000676613
0.000661352
0.000646953
0.000633434
0.000620791
0.00060901
0.000598082
0.00058801
0.000578807
0.000570499
0.000563126
0.000556736
0.000551387
0.000547147
0.000544092
0.00054249
0.000541996
0.000542793
0.000545263
0.000549406
0.000555324
0.000563143
0.000573002
0.000585052
0.000599455
0.000616385
0.000636026
0.000658572
0.000684231
0.000713221
0.000745785
0.000782193
0.000822768
0.00086792
0.000918196
0.000974364
0.00103754
0.00110932
0.00119204
0.00128889
0.00140397
0.00154188
0.00170638
0.00189768
0.00210839
0.00231915
0.00246836
0.00251482
0.00248991
0.00236022
0.00228892
0.00235259
0.00275572
0.0031959
0.002978
0.000523391
0.000551683
0.00214538
0.00268057
0.00286138
0.00285325
0.00267301
0.00238407
0.00205167
0.00173187
0.00145971
0.00124761
0.00109237
0.000983598
0.000909526
0.000859669
0.000825486
0.000800465
0.000780087
0.000761615
0.000743693
0.000725871
0.00070818
0.000690832
0.000674056
0.000658015
0.000642798
0.000628438
0.000614929
0.000602254
0.000590396
0.000579347
0.000569112
0.000559711
0.000551175
0.000543547
0.000536877
0.000531225
0.000526656
0.000523239
0.00052123
0.000520478
0.000520814
0.000522817
0.000526475
0.000531883
0.000539164
0.000548458
0.000559921
0.000573722
0.000590041
0.000609073
0.000631023
0.000656109
0.000684559
0.000716619
0.000752554
0.00079267
0.000837332
0.000887016
0.000942378
0.00100436
0.00107438
0.00115448
0.00124765
0.00135799
0.00149054
0.00165048
0.00184071
0.00205772
0.00228626
0.00248699
0.00257872
0.00258381
0.00247227
0.00233482
0.00232134
0.00258738
0.00307801
0.00309501
0.000546331
0.000537882
0.00212112
0.00263631
0.0028092
0.00279601
0.00261401
0.00232439
0.00199233
0.001675
0.00140804
0.00120313
0.0010556
0.000953863
0.00088549
0.000839722
0.000808055
0.000784259
0.000764222
0.000745608
0.000727368
0.00070924
0.000691339
0.00067389
0.000657094
0.000641076
0.000625893
0.000611548
0.000598023
0.000585293
0.000573342
0.000562163
0.000551767
0.000542178
0.000533431
0.000525572
0.000518653
0.000512733
0.000507875
0.000504148
0.00050175
0.000500733
0.000500689
0.000502247
0.00050544
0.000510351
0.0005171
0.000525828
0.000536693
0.000549869
0.000565545
0.000583926
0.00060523
0.000629687
0.00065754
0.000689045
0.000724473
0.000764121
0.000808331
0.000857526
0.000912271
0.000973373
0.00104203
0.00112007
0.00121019
0.0013163
0.00144366
0.00159841
0.00178582
0.00200647
0.00225023
0.00248979
0.00263548
0.00266774
0.00259024
0.00239474
0.00231548
0.00244943
0.00297233
0.00312743
0.000550013
0.000521652
0.00209237
0.00258707
0.00275261
0.00273574
0.00255447
0.002267
0.00193767
0.00162416
0.0013627
0.00116454
0.00102394
0.000928339
0.000864786
0.000822341
0.000792606
0.000769662
0.000749781
0.000730976
0.000712448
0.000694073
0.000676016
0.0006585
0.000641696
0.000625696
0.000610527
0.000596177
0.000582616
0.000569819
0.000557769
0.000546464
0.000535921
0.000526165
0.000517236
0.000509179
0.000502049
0.000495902
0.000490803
0.000486819
0.000484057
0.00048272
0.000482431
0.000483566
0.000486316
0.000490748
0.000496977
0.000505143
0.000515405
0.000527943
0.000542952
0.000560646
0.000581258
0.000605032
0.000632229
0.000663119
0.000697987
0.000737134
0.000780891
0.000829648
0.0008839
0.00094434
0.00101199
0.00108843
0.00117606
0.00127851
0.00140094
0.00154997
0.00173252
0.00195249
0.00220484
0.00246855
0.00267331
0.0027418
0.00270381
0.00250228
0.0023502
0.00238327
0.00281154
0.00309919
0.000539048
0.000503677
0.00206088
0.00253443
0.00269298
0.00267374
0.00249531
0.00221239
0.00188778
0.00157915
0.00132327
0.00113131
0.0009968
0.000906474
0.000846948
0.000807176
0.000778913
0.000756548
0.000736705
0.000717693
0.00069891
0.000680332
0.000662154
0.000644586
0.000627771
0.000611775
0.000596604
0.000582232
0.000568625
0.000555756
0.000543612
0.000532196
0.000521526
0.000511632
0.000502554
0.000494338
0.000487036
0.000480704
0.000475402
0.000471192
0.000468143
0.000466496
0.000465992
0.000466748
0.000469085
0.000473062
0.000478789
0.000486403
0.000496065
0.000507958
0.000522283
0.000539264
0.000559145
0.000582188
0.000608672
0.000638886
0.000673135
0.000711731
0.000755009
0.00080334
0.000857172
0.000917106
0.000984015
0.00105924
0.00114491
0.00124431
0.00136236
0.00150586
0.00168288
0.0019001
0.00215685
0.00243639
0.00269083
0.00280772
0.00280679
0.0026233
0.00239287
0.00235717
0.00267519
0.00303333
0.000521464
0.00048452
0.00202737
0.00247958
0.00263153
0.00261108
0.00243723
0.00216089
0.00184265
0.00153968
0.00128933
0.00110294
0.000973686
0.000887807
0.000831597
0.000793954
0.0007668
0.000744818
0.000724941
0.000705723
0.000686715
0.000667966
0.000649684
0.000632067
0.000615233
0.000599227
0.000584038
0.000569633
0.000555975
0.00054304
0.000530816
0.000519309
0.000508539
0.000498538
0.000489346
0.000481009
0.000473576
0.000467098
0.000461631
0.000457232
0.00045396