/*--------------------------------*- C++ -*----------------------------------*\
  =========                 |
  \\      /  F ield         | OpenFOAM: The Open Source CFD Toolbox
   \\    /   O peration     | Website:  https://openfoam.org
    \\  /    A nd           | Version:  13
     \\/     M anipulation  |
\*---------------------------------------------------------------------------*/
FoamFile
{
    format      ascii;
    class       volScalarField;
    location    "6.3";
    object      nut;
}
// * * * * * * * * * * * * * * * * * * * * * * * * * * * * * * * * * * * * * //

dimensions      [0 2 -1 0 0 0 0];

internalField   nonuniform List<scalar> 
6400
(
8.93897e-10
4.59053e-09
1.11336e-08
1.79617e-08
2.31394e-08
2.60597e-08
2.71208e-08
2.72054e-08
2.73284e-08
2.82819e-08
3.0663e-08
3.54314e-08
4.30559e-08
5.37157e-08
6.69048e-08
8.19083e-08
9.79815e-08
1.14767e-07
1.31565e-07
1.47869e-07
1.64149e-07
1.81728e-07
2.02438e-07
2.27582e-07
2.56414e-07
2.86028e-07
3.15363e-07
3.44411e-07
3.74e-07
4.04963e-07
4.37045e-07
4.68994e-07
5.00405e-07
5.31163e-07
5.62183e-07
5.93616e-07
6.26181e-07
6.60087e-07
6.95791e-07
7.33431e-07
7.73276e-07
8.15626e-07
8.60738e-07
9.0925e-07
9.61374e-07
1.01876e-06
1.08431e-06
1.16448e-06
1.25027e-06
1.33619e-06
1.42151e-06
1.50453e-06
1.58313e-06
1.65492e-06
1.71739e-06
1.76744e-06
1.79567e-06
1.80756e-06
1.80883e-06
1.7788e-06
1.72173e-06
1.6376e-06
1.52759e-06
1.39489e-06
1.24365e-06
1.08039e-06
9.13633e-07
7.50093e-07
5.95985e-07
4.57443e-07
3.45567e-07
2.51616e-07
1.75601e-07
1.17323e-07
7.53398e-08
4.67288e-08
2.80698e-08
1.60668e-08
7.57655e-09
1.61149e-09
4.32879e-09
3.07802e-07
1.10796e-06
1.87612e-06
2.44806e-06
2.78593e-06
2.94055e-06
2.99305e-06
3.02629e-06
3.09763e-06
3.27966e-06
3.64256e-06
4.15777e-06
4.76421e-06
5.40038e-06
6.00236e-06
6.52544e-06
6.92451e-06
7.18106e-06
7.30603e-06
7.36905e-06
7.44098e-06
7.58692e-06
7.84229e-06
8.15849e-06
8.39414e-06
8.59871e-06
8.82558e-06
9.1201e-06
9.52071e-06
1.00457e-05
1.06208e-05
1.12484e-05
1.18925e-05
1.25747e-05
1.32793e-05
1.40162e-05
1.478e-05
1.55766e-05
1.64034e-05
1.72551e-05
1.81353e-05
1.90347e-05
1.99907e-05
2.09681e-05
2.19423e-05
2.28791e-05
2.37356e-05
2.45752e-05
2.54528e-05
2.63303e-05
2.72084e-05
2.80658e-05
2.8885e-05
2.96424e-05
3.03769e-05
3.08827e-05
3.11741e-05
3.14193e-05
3.14366e-05
3.11354e-05
3.05209e-05
2.95884e-05
2.83061e-05
2.66867e-05
2.47658e-05
2.2651e-05
2.03656e-05
1.79387e-05
1.53508e-05
1.24747e-05
9.68049e-06
7.20734e-06
5.16033e-06
3.5736e-06
2.42326e-06
1.61435e-06
1.03884e-06
4.68565e-07
8.52361e-09
9.47888e-09
8.01022e-07
3.25455e-06
5.6847e-06
7.556e-06
8.77451e-06
9.45861e-06
9.79983e-06
1.00055e-05
1.02527e-05
1.06624e-05
1.13216e-05
1.22064e-05
1.32196e-05
1.42352e-05
1.5135e-05
1.58691e-05
1.64118e-05
1.67601e-05
1.69273e-05
1.69337e-05
1.68631e-05
1.67985e-05
1.67826e-05
1.68495e-05
1.70797e-05
1.74014e-05
1.7715e-05
1.80514e-05
1.8408e-05
1.88477e-05
1.94659e-05
2.04115e-05
2.13761e-05
2.2477e-05
2.36348e-05
2.48741e-05
2.61441e-05
2.74595e-05
2.8861e-05
3.02469e-05
3.16585e-05
3.30715e-05
3.44075e-05
3.56885e-05
3.69333e-05
3.81415e-05
3.93558e-05
4.05752e-05
4.18019e-05
4.30193e-05
4.42217e-05
4.53916e-05
4.65111e-05
4.75548e-05
4.84911e-05
4.92766e-05
4.98716e-05
5.01481e-05
5.0357e-05
5.02349e-05
4.97955e-05
4.90216e-05
4.7766e-05
4.59701e-05
4.36027e-05
4.08798e-05
3.77955e-05
3.43607e-05
3.06202e-05
2.66148e-05
2.24795e-05
1.84114e-05
1.46139e-05
1.12661e-05
8.43314e-06
6.17838e-06
4.24255e-06
1.76286e-06
2.27636e-08
1.64751e-08
1.3153e-06
5.128e-06
8.80634e-06
1.16636e-05
1.36302e-05
1.48517e-05
1.55421e-05
1.59638e-05
1.63263e-05
1.68284e-05
1.75938e-05
1.86022e-05
1.97132e-05
2.07612e-05
2.16324e-05
2.22629e-05
2.26468e-05
2.28107e-05
2.28103e-05
2.27089e-05
2.26118e-05
2.25882e-05
2.26812e-05
2.27342e-05
2.27452e-05
2.26643e-05
2.29921e-05
2.3664e-05
2.45733e-05
2.58303e-05
2.70161e-05
2.82056e-05
2.94544e-05
3.07531e-05
3.20366e-05
3.33166e-05
3.46531e-05
3.59507e-05
3.72173e-05
3.845e-05
3.96579e-05
4.08278e-05
4.19539e-05
4.30395e-05
4.40857e-05
4.51352e-05
4.61847e-05
4.72327e-05
4.82754e-05
4.9304e-05
5.03104e-05
5.12817e-05
5.22021e-05
5.30518e-05
5.38078e-05
5.44427e-05
5.49341e-05
5.52272e-05
5.53232e-05
5.52097e-05
5.47921e-05
5.40051e-05
5.32304e-05
5.20284e-05
5.01681e-05
4.78548e-05
4.50367e-05
4.18021e-05
3.82038e-05
3.42824e-05
3.0099e-05
2.57559e-05
2.14142e-05
1.72756e-05
1.35141e-05
1.02379e-05
7.15976e-06
2.95819e-06
3.77894e-08
2.64461e-08
1.97735e-06
7.14312e-06
1.18899e-05
1.54469e-05
1.78486e-05
1.93236e-05
2.01484e-05
2.06285e-05
2.10754e-05
2.17407e-05
2.27117e-05
2.38866e-05
2.50664e-05
2.60702e-05
2.67958e-05
2.72196e-05
2.73771e-05
2.73194e-05
2.71658e-05
2.69177e-05
2.67484e-05
2.65925e-05
2.5969e-05
2.58396e-05
2.62671e-05
2.71868e-05
2.82851e-05
2.94347e-05
3.07093e-05
3.19605e-05
3.31782e-05
3.4381e-05
3.55491e-05
3.66485e-05
3.76621e-05
3.8673e-05
3.9643e-05
4.047e-05
4.12497e-05
4.19479e-05
4.25912e-05
4.32009e-05
4.37966e-05
4.44041e-05
4.5034e-05
4.56566e-05
4.62875e-05
4.69263e-05
4.75776e-05
4.82435e-05
4.89243e-05
4.9619e-05
5.03233e-05
5.10303e-05
5.17296e-05
5.24044e-05
5.30279e-05
5.35665e-05
5.39689e-05
5.41403e-05
5.41025e-05
5.3666e-05
5.26226e-05
5.17893e-05
5.07256e-05
4.89579e-05
4.66839e-05
4.3979e-05
4.08995e-05
3.74786e-05
3.3738e-05
2.9708e-05
2.54704e-05
2.12216e-05
1.71411e-05
1.33043e-05
9.33612e-06
3.78752e-06
4.80688e-08
4.07023e-08
2.8716e-06
9.52998e-06
1.52741e-05
1.9333e-05
2.19234e-05
2.34178e-05
2.4213e-05
2.47195e-05
2.53061e-05
2.61828e-05
2.73319e-05
2.85687e-05
2.96724e-05
3.04844e-05
3.09394e-05
3.10525e-05
3.09472e-05
3.05427e-05
3.02174e-05
2.97657e-05
2.88267e-05
2.86312e-05
2.92484e-05
3.01746e-05
3.11786e-05
3.23126e-05
3.34449e-05
3.45438e-05
3.55965e-05
3.65107e-05
3.73912e-05
3.82051e-05
3.89071e-05
3.94824e-05
3.9991e-05
4.04019e-05
4.08028e-05
4.11132e-05
4.13781e-05
4.16145e-05
4.18375e-05
4.20374e-05
4.22253e-05
4.24067e-05
4.2582e-05
4.27545e-05
4.29342e-05
4.31294e-05
4.33498e-05
4.36078e-05
4.39153e-05
4.4285e-05
4.47278e-05
4.5248e-05
4.58355e-05
4.65025e-05
4.72293e-05
4.79873e-05
4.8721e-05
4.94032e-05
4.99237e-05
5.0134e-05
5.00901e-05
4.92404e-05
4.87982e-05
4.76307e-05
4.59027e-05
4.36855e-05
4.1075e-05
3.81366e-05
3.49012e-05
3.13559e-05
2.74647e-05
2.33581e-05
1.91824e-05
1.50685e-05
1.05998e-05
4.17814e-06
5.17205e-08
6.05304e-08
4.0429e-06
1.23253e-05
1.89628e-05
2.33381e-05
2.59313e-05
2.73062e-05
2.80135e-05
2.85571e-05
2.9291e-05
3.03197e-05
3.15183e-05
3.26576e-05
3.35343e-05
3.40398e-05
3.41625e-05
3.37278e-05
3.32888e-05
3.28795e-05
3.17083e-05
3.13274e-05
3.17027e-05
3.25338e-05
3.32537e-05
3.41293e-05
3.50077e-05
3.58913e-05
3.66712e-05
3.73648e-05
3.79899e-05
3.8537e-05
3.89941e-05
3.93548e-05
3.96225e-05
3.98159e-05
3.99564e-05
4.00461e-05
4.01059e-05
4.01095e-05
4.01052e-05
4.00958e-05
4.00401e-05
3.99828e-05
3.98996e-05
3.98135e-05
3.97074e-05
3.95949e-05
3.94712e-05
3.93483e-05
3.92295e-05
3.91266e-05
3.90572e-05
3.90456e-05
3.91282e-05
3.93606e-05
3.96981e-05
4.02041e-05
4.0905e-05
4.17753e-05
4.27301e-05
4.3784e-05
4.48112e-05
4.57849e-05
4.63149e-05
4.64682e-05
4.58975e-05
4.5799e-05
4.46268e-05
4.28078e-05
4.0494e-05
3.78068e-05
3.48539e-05
3.16814e-05
2.8226e-05
2.43515e-05
2.03207e-05
1.5974e-05
1.08988e-05
4.16563e-06
5.01761e-08
8.7137e-08
5.51265e-06
1.54644e-05
2.28539e-05
2.73703e-05
2.98379e-05
3.10304e-05
3.16445e-05
3.22241e-05
3.30475e-05
3.41014e-05
3.5186e-05
3.60638e-05
3.65655e-05
3.66539e-05
3.61511e-05
3.56887e-05
3.47285e-05
3.39392e-05
3.38081e-05
3.4301e-05
3.4682e-05
3.52795e-05
3.58817e-05
3.66217e-05
3.7251e-05
3.78214e-05
3.82719e-05
3.86419e-05
3.89269e-05
3.9134e-05
3.92698e-05
3.93463e-05
3.93783e-05
3.93803e-05
3.93606e-05
3.93212e-05
3.92676e-05
3.91983e-05
3.91253e-05
3.90042e-05
3.89228e-05
3.88421e-05
3.86637e-05
3.85333e-05
3.83614e-05
3.81894e-05
3.79992e-05
3.7794e-05
3.75704e-05
3.73291e-05
3.70679e-05
3.67838e-05
3.64732e-05
3.6128e-05
3.59066e-05
3.58476e-05
3.60535e-05
3.66937e-05
3.74929e-05
3.86105e-05
3.99214e-05
4.12739e-05
4.25821e-05
4.34877e-05
4.37879e-05
4.35028e-05
4.35631e-05
4.22221e-05
4.01913e-05
3.76111e-05
3.4663e-05
3.15331e-05
2.83064e-05
2.47963e-05
2.07984e-05
1.64526e-05
1.10553e-05
4.05475e-06
4.66028e-08
1.21394e-07
7.26694e-06
1.88594e-05
2.67958e-05
3.13349e-05
3.36038e-05
3.45929e-05
3.51113e-05
3.56872e-05
3.64971e-05
3.74323e-05
3.82599e-05
3.87693e-05
3.87275e-05
3.82483e-05
3.77493e-05
3.64791e-05
3.59434e-05
3.59478e-05
3.59776e-05
3.62169e-05
3.66437e-05
3.71469e-05
3.76253e-05
3.80935e-05
3.8434e-05
3.87062e-05
3.88841e-05
3.90089e-05
3.90806e-05
3.91196e-05
3.91362e-05
3.91429e-05
3.91463e-05
3.91495e-05
3.91525e-05
3.91536e-05
3.91508e-05
3.9138e-05
3.90977e-05
3.90677e-05
3.90455e-05
3.89501e-05
3.88643e-05
3.87621e-05
3.86346e-05
3.84898e-05
3.83211e-05
3.81292e-05
3.79079e-05
3.76559e-05
3.73683e-05
3.70384e-05
3.66596e-05
3.62195e-05
3.57158e-05
3.5152e-05
3.45395e-05
3.39073e-05
3.3908e-05
3.44494e-05
3.55628e-05
3.69517e-05
3.85854e-05
4.02053e-05
4.13803e-05
4.17863e-05
4.17512e-05
4.18664e-05
4.03364e-05
3.79992e-05
3.50179e-05
3.16742e-05
2.82445e-05
2.47983e-05
2.09971e-05
1.64962e-05
1.08034e-05
3.76699e-06
4.26672e-08
1.63684e-07
9.23736e-06
2.23498e-05
3.07017e-05
3.51709e-05
3.71994e-05
3.7974e-05
3.83719e-05
3.88693e-05
3.95452e-05
4.02299e-05
4.06927e-05
4.0545e-05
4.00269e-05
3.94745e-05
3.83548e-05
3.77909e-05
3.75367e-05
3.72551e-05
3.73977e-05
3.76421e-05
3.79802e-05
3.83027e-05
3.85699e-05
3.87788e-05
3.88998e-05
3.89844e-05
3.90298e-05
3.90713e-05
3.91111e-05
3.91652e-05
3.92343e-05
3.932e-05
3.94177e-05
3.95216e-05
3.96229e-05
3.97136e-05
3.97999e-05
3.985e-05
3.98746e-05
3.99086e-05
3.98865e-05
3.98418e-05
3.97753e-05
3.96812e-05
3.95628e-05
3.94217e-05
3.92593e-05
3.90783e-05
3.88804e-05
3.86592e-05
3.84063e-05
3.81114e-05
3.77578e-05
3.73355e-05
3.68209e-05
3.61969e-05
3.54509e-05
3.45941e-05
3.37025e-05
3.28204e-05
3.24734e-05
3.32557e-05
3.46682e-05
3.64672e-05
3.83264e-05
3.98107e-05
4.0346e-05
4.04434e-05
4.049e-05
3.87399e-05
3.59993e-05
3.25292e-05
2.87105e-05
2.4885e-05
2.09921e-05
1.64766e-05
1.06014e-05
3.51894e-06
3.95615e-08
2.14543e-07
1.12699e-05
2.57922e-05
3.44862e-05
3.88309e-05
4.05951e-05
4.11361e-05
4.13636e-05
4.16887e-05
4.21137e-05
4.24403e-05
4.22063e-05
4.16044e-05
4.09826e-05
4.00361e-05
3.93324e-05
3.87555e-05
3.84001e-05
3.8271e-05
3.84033e-05
3.85577e-05
3.87413e-05
3.88755e-05
3.89664e-05
3.90225e-05
3.90567e-05
3.91059e-05
3.91739e-05
3.92794e-05
3.9417e-05
3.95873e-05
3.97795e-05
3.99849e-05
4.01908e-05
4.04027e-05
4.06008e-05
4.07261e-05
4.08394e-05
4.09819e-05
4.10375e-05
4.1086e-05
4.10856e-05
4.10604e-05
4.10011e-05
4.0911e-05
4.0791e-05
4.06426e-05
4.04666e-05
4.02639e-05
4.0035e-05
3.97797e-05
3.94983e-05
3.91905e-05
3.88555e-05
3.84908e-05
3.80858e-05
3.75762e-05
3.69195e-05
3.60868e-05
3.50767e-05
3.39288e-05
3.27571e-05
3.17022e-05
3.15701e-05
3.29259e-05
3.46634e-05
3.67953e-05
3.85354e-05
3.91977e-05
3.92652e-05
3.92527e-05
3.71696e-05
3.39503e-05
2.99437e-05
2.56062e-05
2.12793e-05
1.65163e-05
1.05928e-05
3.47882e-06
3.88246e-08
2.76868e-07
1.31389e-05
2.90878e-05
3.80875e-05
4.22773e-05
4.3758e-05
4.4033e-05
4.40227e-05
4.40782e-05
4.41492e-05
4.38093e-05
4.3098e-05
4.24214e-05
4.15361e-05
4.07513e-05
3.98359e-05
3.9339e-05
3.90458e-05
3.89606e-05
3.90051e-05
3.90403e-05
3.90856e-05
3.91025e-05
3.91239e-05
3.91648e-05
3.92456e-05
3.9382e-05
3.95697e-05
3.9807e-05
4.00786e-05
4.03735e-05
4.06757e-05
4.09895e-05
4.1299e-05
4.15613e-05
4.17428e-05
4.19399e-05
4.21448e-05
4.22768e-05
4.23728e-05
4.24365e-05
4.24595e-05
4.24494e-05
4.24023e-05
4.23209e-05
4.22053e-05
4.20571e-05
4.1877e-05
4.16658e-05
4.14241e-05
4.11518e-05
4.08481e-05
4.05111e-05
4.01379e-05
3.97251e-05
3.92697e-05
3.87699e-05
3.82222e-05
3.75755e-05
3.6723e-05
3.56161e-05
3.43188e-05
3.28995e-05
3.15571e-05
3.05413e-05
3.14439e-05
3.31921e-05
3.55074e-05
3.73942e-05
3.80937e-05
3.81506e-05
3.79206e-05
3.54008e-05
3.16434e-05
2.7087e-05
2.2176e-05
1.70356e-05
1.0891e-05
3.64737e-06
4.05816e-08
3.46438e-07
1.49948e-05
3.2227e-05
4.14718e-05
4.548e-05
4.6655e-05
4.66201e-05
4.62976e-05
4.59917e-05
4.54778e-05
4.46242e-05
4.39096e-05
4.30065e-05
4.21098e-05
4.09457e-05
4.01731e-05
3.9728e-05
3.94594e-05
3.93453e-05
3.92917e-05
3.92434e-05
3.92269e-05
3.92346e-05
3.93021e-05
3.94362e-05
3.96444e-05
3.99205e-05
4.02492e-05
4.06158e-05
4.10015e-05
4.13924e-05
4.17873e-05
4.21685e-05
4.25105e-05
4.27942e-05
4.30658e-05
4.32929e-05
4.35041e-05
4.36878e-05
4.38136e-05
4.39035e-05
4.39536e-05
4.39648e-05
4.3936e-05
4.38682e-05
4.37615e-05
4.36168e-05
4.34352e-05
4.32178e-05
4.29658e-05
4.268e-05
4.23603e-05
4.20053e-05
4.16116e-05
4.11738e-05
4.06845e-05
4.01358e-05
3.95221e-05
3.88447e-05
3.81082e-05
3.7224e-05
3.60758e-05
3.46548e-05
3.30483e-05
3.14422e-05
3.01632e-05
3.0235e-05
3.19851e-05
3.43732e-05
3.63276e-05
3.70118e-05
3.69189e-05
3.63094e-05
3.32335e-05
2.89305e-05
2.37686e-05
1.81662e-05
1.17802e-05
4.14479e-06
4.72953e-08
4.21201e-07
1.68004e-05
3.51664e-05
4.46061e-05
4.8413e-05
4.92586e-05
4.88648e-05
4.81558e-05
4.73529e-05
4.62915e-05
4.55308e-05
4.44525e-05
4.34322e-05
4.20995e-05
4.10434e-05
4.03651e-05
3.99403e-05
3.96653e-05
3.95071e-05
3.94009e-05
3.93438e-05
3.93603e-05
3.9454e-05
3.9644e-05
3.99207e-05
4.0275e-05
4.06864e-05
4.11352e-05
4.16031e-05
4.20742e-05
4.25369e-05
4.29822e-05
4.3398e-05
4.37777e-05
4.41316e-05
4.44605e-05
4.47388e-05
4.49664e-05
4.51596e-05
4.53691e-05
4.54882e-05
4.55743e-05
4.5615e-05
4.56102e-05
4.55596e-05
4.54627e-05
4.53198e-05
4.5132e-05
4.49009e-05
4.46287e-05
4.43181e-05
4.39714e-05
4.35902e-05
4.3174e-05
4.27195e-05
4.22189e-05
4.166e-05
4.10269e-05
4.03042e-05
3.94845e-05
3.85801e-05
3.75723e-05
3.6365e-05
3.48194e-05
3.30861e-05
3.1333e-05
2.98145e-05
2.92931e-05
3.09591e-05
3.33743e-05
3.52731e-05
3.58209e-05
3.55467e-05
3.42118e-05
3.05805e-05
2.56305e-05
1.98062e-05
1.30978e-05
5.047e-06
6.2733e-08
4.98737e-07
1.8515e-05
3.78663e-05
4.74654e-05
5.10596e-05
5.15586e-05
5.07676e-05
4.96165e-05
4.82684e-05
4.74046e-05
4.59787e-05
4.48258e-05
4.33187e-05
4.20137e-05
4.10563e-05
4.04316e-05
4.00106e-05
3.97294e-05
3.95602e-05
3.94731e-05
3.94852e-05
3.96085e-05
3.98403e-05
4.01771e-05
4.05961e-05
4.10776e-05
4.15975e-05
4.21366e-05
4.26793e-05
4.32133e-05
4.37304e-05
4.4224e-05
4.46895e-05
4.5126e-05
4.55342e-05
4.5909e-05
4.62627e-05
4.65827e-05
4.67881e-05
4.70114e-05
4.72317e-05
4.73488e-05
4.74309e-05
4.74556e-05
4.74266e-05
4.73409e-05
4.71986e-05
4.69999e-05
4.67466e-05
4.64415e-05
4.60887e-05
4.56932e-05
4.52604e-05
4.4795e-05
4.42997e-05
4.37728e-05
4.32064e-05
4.25841e-05
4.18808e-05
4.10655e-05
4.01118e-05
3.90175e-05
3.77824e-05
3.63526e-05
3.47704e-05
3.29643e-05
3.11134e-05
2.93536e-05
2.84961e-05
3.00505e-05
3.2507e-05
3.41674e-05
3.44213e-05
3.4095e-05
3.16311e-05
2.72494e-05
2.15554e-05
1.46664e-05
6.05074e-06
8.63269e-08
5.76599e-07
2.01034e-05
4.03007e-05
5.00395e-05
5.34136e-05
5.35696e-05
5.23226e-05
5.0705e-05
4.95605e-05
4.77806e-05
4.6372e-05
4.4679e-05
4.31216e-05
4.18779e-05
4.09972e-05
4.04039e-05
3.99952e-05
3.97376e-05
3.96128e-05
3.96117e-05
3.97466e-05
4.00113e-05
4.03902e-05
4.0863e-05
4.14014e-05
4.1983e-05
4.25861e-05
4.31958e-05
4.38003e-05
4.4392e-05
4.4966e-05
4.55188e-05
4.60483e-05
4.65533e-05
4.70313e-05
4.74787e-05
4.78929e-05
4.82932e-05
4.85962e-05
4.88262e-05
4.91227e-05
4.93045e-05
4.94281e-05
4.94907e-05
4.94879e-05
4.9418e-05
4.92789e-05
4.90703e-05
4.87928e-05
4.84489e-05
4.8043e-05
4.75813e-05
4.70721e-05
4.65247e-05
4.59486e-05
4.53513e-05
4.47352e-05
4.40947e-05
4.34114e-05
4.26519e-05
4.17682e-05
4.07066e-05
3.94704e-05
3.80826e-05
3.62069e-05
3.44684e-05
3.27081e-05
3.07445e-05
2.87374e-05
2.77193e-05
2.92445e-05
3.16998e-05
3.29866e-05
3.28377e-05
3.19603e-05
2.83339e-05
2.30526e-05
1.62336e-05
7.06505e-06
1.16113e-07
6.53274e-07
2.15177e-05
4.2462e-05
5.23598e-05
5.54514e-05
5.51023e-05
5.35275e-05
5.19322e-05
4.99166e-05
4.81559e-05
4.6257e-05
4.44326e-05
4.28825e-05
4.17086e-05
4.08871e-05
4.03264e-05
3.99587e-05
3.97675e-05
3.97388e-05
3.98661e-05
4.01446e-05
4.0552e-05
4.10623e-05
4.16478e-05
4.22813e-05
4.29427e-05
4.36153e-05
4.42887e-05
4.49558e-05
4.56121e-05
4.62547e-05
4.68813e-05
4.74893e-05
4.80756e-05
4.8636e-05
4.91655e-05
4.96593e-05
5.01445e-05
5.05469e-05
5.08125e-05
5.11598e-05
5.14257e-05
5.15913e-05
5.16974e-05
5.1726e-05
5.16778e-05
5.15488e-05
5.13372e-05
5.10421e-05
5.06647e-05
5.02079e-05
4.96774e-05
4.90819e-05
4.8433e-05
4.77448e-05
4.70324e-05
4.63098e-05
4.55856e-05
4.48583e-05
4.41103e-05
4.33018e-05
4.23682e-05
4.12246e-05
3.9883e-05
3.82628e-05
3.60406e-05
3.40498e-05
3.23072e-05
3.02163e-05
2.80072e-05
2.70037e-05
2.85052e-05
3.07395e-05
3.1756e-05
3.09501e-05
2.87859e-05
2.41312e-05
1.75993e-05
7.96351e-06
1.50225e-07
7.27193e-07
2.27776e-05
4.43606e-05
5.42818e-05
5.6995e-05
5.64393e-05
5.49417e-05
5.27271e-05
5.02819e-05
4.81324e-05
4.6022e-05
4.41367e-05
4.26267e-05
4.15213e-05
4.0755e-05
4.02469e-05
3.99564e-05
3.98702e-05
3.99699e-05
4.02397e-05
4.06577e-05
4.11916e-05
4.18113e-05
4.24887e-05
4.3201e-05
4.39325e-05
4.4672e-05
4.54133e-05
4.6152e-05
4.68855e-05
4.76108e-05
4.83248e-05
4.9023e-05
4.97005e-05
5.03512e-05
5.0969e-05
5.15476e-05
5.21184e-05
5.26045e-05
5.2919e-05
5.33175e-05
5.36606e-05
5.38707e-05
5.40208e-05
5.40848e-05
5.40642e-05
5.39535e-05
5.37497e-05
5.34501e-05
5.30535e-05
5.25605e-05
5.19746e-05
5.13024e-05
5.05547e-05
4.97466e-05
4.88975e-05
4.80289e-05
4.71625e-05
4.63146e-05
4.54895e-05
4.46719e-05
4.38172e-05
4.28444e-05
4.16339e-05
4.0192e-05
3.81654e-05
3.57308e-05
3.35147e-05
3.17442e-05
2.9452e-05
2.70024e-05
2.64282e-05
2.79473e-05
2.95248e-05
2.98162e-05
2.87571e-05
2.47741e-05
1.86452e-05
8.67942e-06
1.87085e-07
7.95536e-07
2.38548e-05
4.58893e-05
5.57607e-05
5.82095e-05
5.78584e-05
5.57594e-05
5.30176e-05
5.0494e-05
4.79712e-05
4.57205e-05
4.38242e-05
4.23713e-05
4.13342e-05
4.06328e-05
4.02051e-05
4.0023e-05
4.00654e-05
4.03037e-05
4.07103e-05
4.12518e-05
4.18927e-05
4.26035e-05
4.33595e-05
4.41438e-05
4.49454e-05
4.57576e-05
4.65765e-05
4.7399e-05
4.82221e-05
4.90413e-05
4.98512e-05
5.06455e-05
5.14169e-05
5.21579e-05
5.28611e-05
5.35195e-05
5.41676e-05
5.47223e-05
5.50882e-05
5.55332e-05
5.59409e-05
5.61941e-05
5.63853e-05
5.64855e-05
5.64962e-05
5.64113e-05
5.62264e-05
5.59373e-05
5.55404e-05
5.50334e-05
5.44163e-05
5.36921e-05
5.28681e-05
5.19571e-05
5.09778e-05
4.99549e-05
4.89176e-05
4.78959e-05
4.69149e-05
4.59861e-05
4.50971e-05
4.42001e-05
4.32016e-05
4.19524e-05
4.02811e-05
3.78503e-05
3.52512e-05
3.28663e-05
3.0986e-05
2.83839e-05
2.57197e-05
2.57783e-05
2.74983e-05
2.8546e-05
2.75857e-05
2.49371e-05
1.93247e-05
9.21469e-06
2.25383e-07
8.55767e-07
2.47204e-05
4.70442e-05
5.68698e-05
5.94258e-05
5.88771e-05
5.6451e-05
5.33911e-05
5.04397e-05
4.77218e-05
4.53895e-05
4.35156e-05
4.21293e-05
4.11657e-05
4.05469e-05
4.02252e-05
4.01704e-05
4.03482e-05
4.07199e-05
4.12486e-05
4.18959e-05
4.2628e-05
4.34185e-05
4.42482e-05
4.51055e-05
4.59833e-05
4.68775e-05
4.77849e-05
4.87016e-05
4.96224e-05
5.05405e-05
5.1448e-05
5.23362e-05
5.31962e-05
5.40193e-05
5.47976e-05
5.55239e-05
5.62353e-05
5.68469e-05
5.7255e-05
5.77362e-05
5.81948e-05
5.84857e-05
5.87118e-05
5.88459e-05
5.88886e-05
5.88339e-05
5.86768e-05
5.84116e-05
5.80328e-05
5.75354e-05
5.69154e-05
5.61714e-05
5.53058e-05
5.43261e-05
5.32467e-05
5.20902e-05
5.08874e-05
4.96758e-05
4.84951e-05
4.73792e-05
4.63458e-05
4.53828e-05
4.44353e-05
4.33944e-05
4.20896e-05
4.01136e-05
3.73422e-05
3.46035e-05
3.21026e-05
2.99869e-05
2.70291e-05
2.46724e-05
2.50951e-05
2.63198e-05
2.66117e-05
2.48207e-05
1.96595e-05
9.5263e-06
2.6555e-07
9.06443e-07
2.53782e-05
4.7871e-05
5.77397e-05
6.03366e-05
5.95963e-05
5.67366e-05
5.34936e-05
5.02852e-05
4.74224e-05
4.50534e-05
4.3224e-05
4.19118e-05
4.10319e-05
4.05143e-05
4.0315e-05
4.03932e-05
4.07015e-05
4.11938e-05
4.18287e-05
4.25678e-05
4.33809e-05
4.42467e-05
4.51513e-05
4.60872e-05
4.70496e-05
4.8035e-05
4.9039e-05
5.00552e-05
5.10757e-05
5.20908e-05
5.30901e-05
5.40632e-05
5.50001e-05
5.58917e-05
5.67301e-05
5.75088e-05
5.8266e-05
5.8926e-05
5.93608e-05
5.98632e-05
6.03602e-05
6.068e-05
6.0933e-05
6.10956e-05
6.11677e-05
6.11441e-05
6.10196e-05
6.07879e-05
6.04419e-05
5.99742e-05
5.93779e-05
5.86468e-05
5.77776e-05
5.67713e-05
5.56354e-05
5.43862e-05
5.30507e-05
5.16667e-05
5.02818e-05
4.89467e-05
4.77055e-05
4.65808e-05
4.55566e-05
4.45593e-05
4.34394e-05
4.19418e-05
3.95032e-05
3.6611e-05
3.38331e-05
3.11769e-05
2.86491e-05
2.53227e-05
2.38805e-05
2.4664e-05
2.53466e-05
2.40279e-05
1.96549e-05
9.66106e-06
3.06738e-07
9.46837e-07
2.58353e-05
4.84167e-05
5.83373e-05
6.10087e-05
6.0121e-05
5.71015e-05
5.34927e-05
5.00654e-05
4.71007e-05
4.47282e-05
4.29581e-05
4.17274e-05
4.0943e-05
4.05404e-05
4.04699e-05
4.06768e-05
4.11046e-05
4.17037e-05
4.24317e-05
4.32532e-05
4.4143e-05
4.50847e-05
4.60688e-05
4.70903e-05
4.81448e-05
4.92275e-05
5.03311e-05
5.14463e-05
5.2562e-05
5.36659e-05
5.47459e-05
5.57905e-05
5.67892e-05
5.77333e-05
5.86155e-05
5.94301e-05
6.02149e-05
6.09124e-05
6.13616e-05
6.18672e-05
6.23913e-05
6.27299e-05
6.30004e-05
6.3184e-05
6.32803e-05
6.32851e-05
6.31938e-05
6.29998e-05
6.26957e-05
6.22725e-05
6.17205e-05
6.103e-05
6.01922e-05
5.92013e-05
5.80565e-05
5.67653e-05
5.53462e-05
5.38313e-05
5.22675e-05
5.07138e-05
4.92339e-05
4.78832e-05
4.66906e-05
4.56392e-05
4.46476e-05
4.35526e-05
4.15429e-05
3.86387e-05
3.58084e-05
3.28419e-05
3.00055e-05
2.68722e-05
2.34789e-05
2.29952e-05
2.32963e-05
2.30755e-05
1.95432e-05
9.81929e-06
3.53141e-07
9.76724e-07
2.61001e-05
4.87277e-05
5.86769e-05
6.15097e-05
6.03626e-05
5.72165e-05
5.34004e-05
4.98055e-05
4.67755e-05
4.44236e-05
4.27232e-05
4.15816e-05
4.0903e-05
4.06222e-05
4.06783e-05
4.10045e-05
4.15397e-05
4.22336e-05
4.30455e-05
4.39445e-05
4.49104e-05
4.59313e-05
4.70005e-05
4.81133e-05
4.92643e-05
5.04455e-05
5.16466e-05
5.28548e-05
5.40563e-05
5.52371e-05
5.63837e-05
5.74845e-05
5.85295e-05
5.95106e-05
6.04217e-05
6.12584e-05
6.20484e-05
6.27656e-05
6.32359e-05
6.37203e-05
6.42609e-05
6.46086e-05
6.48867e-05
6.50824e-05
6.51955e-05
6.52232e-05
6.51615e-05
6.50048e-05
6.47457e-05
6.43746e-05
6.38803e-05
6.32504e-05
6.24716e-05
6.1532e-05
6.04227e-05
5.91411e-05
5.76946e-05
5.61049e-05
5.4411e-05
5.26707e-05
5.09566e-05
4.93454e-05
4.78992e-05
4.66419e-05
4.55342e-05
4.44537e-05
4.31775e-05
4.06873e-05
3.76053e-05
3.46956e-05
3.14822e-05
2.84934e-05
2.45562e-05
2.23001e-05
2.22398e-05
2.23766e-05
1.94271e-05
1.02145e-05
4.13882e-07
9.9659e-07
2.62002e-05
4.87879e-05
5.87314e-05
6.16776e-05
6.06279e-05
5.72406e-05
5.32461e-05
4.95256e-05
4.64597e-05
4.41455e-05
4.25226e-05
4.14767e-05
4.09101e-05
4.07514e-05
4.09268e-05
4.13615e-05
4.19929e-05
4.27723e-05
4.36625e-05
4.46374e-05
4.56812e-05
4.67852e-05
4.79436e-05
4.91507e-05
5.03982e-05
5.16748e-05
5.29666e-05
5.42581e-05
5.55333e-05
5.67769e-05
5.79756e-05
5.91179e-05
6.01945e-05
6.11988e-05
6.21257e-05
6.29725e-05
6.3749e-05
6.44737e-05
6.49698e-05
6.54136e-05
6.59585e-05
6.63073e-05
6.65837e-05
6.67823e-05
6.69034e-05
6.6946e-05
6.69075e-05
6.67833e-05
6.65669e-05
6.62491e-05
6.58182e-05
6.52601e-05
6.45587e-05
6.3697e-05
6.2659e-05
6.14326e-05
6.00131e-05
5.84089e-05
5.66463e-05
5.4774e-05
5.28646e-05
5.10082e-05
4.92978e-05
4.78049e-05
4.65498e-05
4.54749e-05
4.44249e-05
4.2519e-05
3.94801e-05
3.65016e-05
3.31865e-05
2.96715e-05
2.61282e-05
2.21715e-05
2.09886e-05
2.07355e-05
1.90704e-05
1.08735e-05
4.95407e-07
1.00646e-06
2.61323e-05
4.85915e-05
5.8663e-05
6.18091e-05
6.06592e-05
5.71744e-05
5.30499e-05
4.92403e-05
4.61617e-05
4.38971e-05
4.23571e-05
4.14117e-05
4.09591e-05
4.0918e-05
4.12032e-05
4.17359e-05
4.24545e-05
4.3313e-05
4.42783e-05
4.5329e-05
4.64529e-05
4.76428e-05
4.88921e-05
5.01928e-05
5.15331e-05
5.28982e-05
5.42711e-05
5.5634e-05
5.69697e-05
5.82627e-05
5.94999e-05
6.06706e-05
6.17667e-05
6.27825e-05
6.37142e-05
6.45597e-05
6.53183e-05
6.6036e-05
6.65619e-05
6.69606e-05
6.74839e-05
6.78322e-05
6.80984e-05
6.82907e-05
6.84108e-05
6.84592e-05
6.8435e-05
6.83354e-05
6.81551e-05
6.78861e-05
6.75172e-05
6.7034e-05
6.64188e-05
6.56512e-05
6.47098e-05
6.35739e-05
6.22279e-05
6.06655e-05
5.88971e-05
5.69563e-05
5.49049e-05
5.28331e-05
5.08497e-05
4.90596e-05
4.75308e-05
4.62599e-05
4.51453e-05
4.39733e-05
4.13881e-05
3.81252e-05
3.50322e-05
3.14963e-05
2.75569e-05
2.32168e-05
2.07306e-05
1.94373e-05
1.86257e-05
1.15349e-05
5.96284e-07
1.00587e-06
2.5965e-05
4.8341e-05
5.84458e-05
6.18085e-05
6.05894e-05
5.70402e-05
5.28277e-05
4.89603e-05
4.58868e-05
4.36798e-05
4.22261e-05
4.13833e-05
4.10429e-05
4.11121e-05
4.14975e-05
4.2119e-05
4.29176e-05
4.38508e-05
4.48896e-05
4.60167e-05
4.7222e-05
4.84983e-05
4.98374e-05
5.12278e-05
5.26541e-05
5.40984e-05
5.55411e-05
5.69632e-05
5.83471e-05
5.96774e-05
6.09418e-05
6.21307e-05
6.32371e-05
6.4256e-05
6.51847e-05
6.60213e-05
6.67652e-05
6.74605e-05
6.80185e-05
6.83766e-05
6.88539e-05
6.91991e-05
6.94484e-05
6.96262e-05
6.97363e-05
6.97809e-05
6.97611e-05
6.96758e-05
6.95218e-05
6.92929e-05
6.89792e-05
6.8567e-05
6.80383e-05
6.73712e-05
6.65404e-05
6.5519e-05
6.42813e-05
6.28081e-05
6.10928e-05
5.91501e-05
5.70251e-05
5.47984e-05
5.25844e-05
5.05145e-05
4.87049e-05
4.72133e-05
4.60022e-05
4.49237e-05
4.29995e-05
3.97611e-05
3.68266e-05
3.29688e-05
2.8974e-05
2.46749e-05
2.06216e-05
1.89573e-05
1.82299e-05
1.21673e-05
7.12397e-07
1.00045e-06
2.5701e-05
4.79231e-05
5.80371e-05
6.15955e-05
6.04181e-05
5.68527e-05
5.25918e-05
4.86934e-05
4.56383e-05
4.34937e-05
4.21279e-05
4.13872e-05
4.11542e-05
4.13254e-05
4.18019e-05
4.25046e-05
4.33776e-05
4.43821e-05
4.54933e-05
4.66966e-05
4.79829e-05
4.9344e-05
5.07688e-05
5.22423e-05
5.3746e-05
5.52591e-05
5.67605e-05
5.82306e-05
5.96519e-05
6.10099e-05
6.22932e-05
6.34933e-05
6.46041e-05
6.56219e-05
6.65446e-05
6.73715e-05
6.81035e-05
6.87636e-05
6.93328e-05
6.96813e-05
7.00941e-05
7.04301e-05
7.06573e-05
7.08135e-05
7.09054e-05
7.09369e-05
7.0911e-05
7.08289e-05
7.06897e-05
7.04893e-05
7.02198e-05
6.98693e-05
6.94207e-05
6.88519e-05
6.81357e-05
6.72409e-05
6.61346e-05
6.47858e-05
6.31718e-05
6.12875e-05
5.91558e-05
5.68383e-05
5.44409e-05
5.21056e-05
4.99834e-05
4.8187e-05
4.67377e-05
4.55257e-05
4.43035e-05
4.15197e-05
3.82375e-05
3.49461e-05
3.05358e-05
2.6013e-05
2.09381e-05
1.84786e-05
1.71627e-05
1.27982e-05
8.29372e-07
9.88445e-07
2.53825e-05
4.72498e-05
5.75087e-05
6.12539e-05
6.01613e-05
5.66242e-05
5.23514e-05
4.84449e-05
4.54181e-05
4.33382e-05
4.20598e-05
4.14185e-05
4.12866e-05
4.15511e-05
4.21106e-05
4.2888e-05
4.38307e-05
4.49037e-05
4.60856e-05
4.73638e-05
4.8729e-05
5.01708e-05
5.16752e-05
5.32237e-05
5.4795e-05
5.63666e-05
5.79166e-05
5.94251e-05
6.08755e-05
6.22542e-05
6.3551e-05
6.47583e-05
6.58711e-05
6.68863e-05
6.78025e-05
6.86197e-05
6.93393e-05
6.99644e-05
7.05325e-05
7.08867e-05
7.12286e-05
7.15494e-05
7.17507e-05
7.18797e-05
7.19461e-05
7.19559e-05
7.19139e-05
7.18239e-05
7.1687e-05
7.1502e-05
7.12634e-05
7.09617e-05
7.05818e-05
7.01025e-05
6.94966e-05
6.87307e-05
6.77668e-05
6.65649e-05
6.50887e-05
6.33137e-05
6.12393e-05
5.89025e-05
5.63906e-05
5.38434e-05
5.14355e-05
4.93337e-05
4.76345e-05
4.63073e-05
4.51724e-05
4.29305e-05
3.95584e-05
3.67568e-05
3.19677e-05
2.73379e-05
2.2274e-05
1.84762e-05
1.61058e-05
1.32553e-05
9.20033e-07
9.69818e-07
2.49729e-05
4.65076e-05
5.68925e-05
6.07955e-05
5.98317e-05
5.63648e-05
5.21134e-05
4.82185e-05
4.52271e-05
4.32122e-05
4.20191e-05
4.14726e-05
4.14344e-05
4.1784e-05
4.24192e-05
4.32655e-05
4.42736e-05
4.54122e-05
4.66624e-05
4.80126e-05
4.94525e-05
5.09692e-05
5.25454e-05
5.416e-05
5.57895e-05
5.74101e-05
5.89998e-05
6.05394e-05
6.20129e-05
6.3408e-05
6.47154e-05
6.59286e-05
6.70432e-05
6.80566e-05
6.89675e-05
6.97756e-05
7.04817e-05
7.10865e-05
7.16413e-05
7.20053e-05
7.22791e-05
7.25799e-05
7.27527e-05
7.28504e-05
7.28854e-05
7.2866e-05
7.2799e-05
7.26902e-05
7.25436e-05
7.23605e-05
7.21386e-05
7.18708e-05
7.1545e-05
7.11421e-05
7.0636e-05
6.99932e-05
6.91727e-05
6.81285e-05
6.68133e-05
6.51857e-05
6.32218e-05
6.0931e-05
5.8373e-05
5.56705e-05
5.30039e-05
5.05767e-05
4.85491e-05
4.69606e-05
4.56791e-05
4.41179e-05
4.08207e-05
3.81685e-05
3.39399e-05
2.87378e-05
2.35605e-05
1.8857e-05
1.55569e-05
1.34343e-05
9.60359e-07
9.45556e-07
2.44583e-05
4.56542e-05
5.61828e-05
6.02426e-05
5.94417e-05
5.60824e-05
5.1883e-05
4.80168e-05
4.50657e-05
4.31143e-05
4.20026e-05
4.1545e-05
4.15928e-05
4.20198e-05
4.27239e-05
4.36337e-05
4.4703e-05
4.59037e-05
4.72187e-05
4.86366e-05
5.01455e-05
5.17298e-05
5.33696e-05
5.50412e-05
5.67199e-05
5.83814e-05
6.00039e-05
6.15689e-05
6.30618e-05
6.44711e-05
6.57886e-05
6.70084e-05
6.81267e-05
6.91408e-05
7.00496e-05
7.08526e-05
7.155e-05
7.21428e-05
7.26695e-05
7.30444e-05
7.32654e-05
7.35411e-05
7.36838e-05
7.37471e-05
7.37464e-05
7.36917e-05
7.35918e-05
7.34549e-05
7.32874e-05
7.30935e-05
7.28739e-05
7.2625e-05
7.23373e-05
7.1995e-05
7.15743e-05
7.10428e-05
7.03589e-05
6.94732e-05
6.83305e-05
6.68758e-05
6.50644e-05
6.28775e-05
6.03434e-05
5.75572e-05
5.46903e-05
5.19698e-05
4.96181e-05
4.77616e-05
4.6349e-05
4.5122e-05
4.22822e-05
3.93312e-05
3.58496e-05
2.99239e-05
2.45442e-05
1.88737e-05
1.56895e-05
1.34221e-05
9.66833e-07
9.17025e-07
2.39089e-05
4.47151e-05
5.53859e-05
5.96115e-05
5.90017e-05
5.57837e-05
5.16637e-05
4.78413e-05
4.49336e-05
4.30428e-05
4.20074e-05
4.1632e-05
4.17579e-05
4.22548e-05
4.30216e-05
4.39895e-05
4.51155e-05
4.6374e-05
4.77492e-05
4.92291e-05
5.08001e-05
5.24442e-05
5.41389e-05
5.58591e-05
5.7579e-05
5.92745e-05
6.09244e-05
6.25113e-05
6.40215e-05
6.54446e-05
6.67732e-05
6.80018e-05
6.91268e-05
7.01456e-05
7.10566e-05
7.18592e-05
7.25536e-05
7.31412e-05
7.36348e-05
7.40011e-05
7.42031e-05
7.4447e-05
7.45584e-05
7.45859e-05
7.45465e-05
7.44519e-05
7.43131e-05
7.41402e-05
7.39422e-05
7.37262e-05
7.34958e-05
7.32509e-05
7.29856e-05
7.26874e-05
7.23356e-05
7.19001e-05
7.13406e-05
7.06064e-05
6.96377e-05
6.83692e-05
6.67389e-05
6.47021e-05
6.22533e-05
5.94524e-05