/*--------------------------------*- C++ -*----------------------------------*\
  =========                 |
  \\      /  F ield         | OpenFOAM: The Open Source CFD Toolbox
   \\    /   O peration     | Website:  https://openfoam.org
    \\  /    A nd           | Version:  13
     \\/     M anipulation  |
\*---------------------------------------------------------------------------*/
FoamFile
{
    format      ascii;
    class       volScalarField;
    location    "8.2";
    object      epsilon;
}
// * * * * * * * * * * * * * * * * * * * * * * * * * * * * * * * * * * * * * //

dimensions      [0 2 -3 0 0 0 0];

internalField   nonuniform List<scalar> 
6400
(
2.89583e-05
0.000148757
0.000361581
0.000582203
0.000748192
0.000841188
0.00087483
0.000877936
0.000882884
0.000914395
0.000991314
0.0011422
0.0013804
0.00171126
0.00211713
0.00257559
0.00306328
0.00357083
0.00407436
0.00456179
0.00505272
0.00558932
0.00622808
0.0070019
0.00787739
0.00875977
0.00963567
0.0105054
0.011396
0.0123314
0.0132984
0.0142647
0.0152147
0.0161516
0.0170987
0.0180619
0.0190608
0.0201014
0.0211965
0.0223491
0.0235677
0.0248617
0.0262383
0.0277132
0.0292992
0.0310509
0.0330718
0.0355829
0.0380894
0.0406493
0.0431513
0.0455808
0.0478584
0.0499217
0.051694
0.0530833
0.0537864
0.0540652
0.0539414
0.0528938
0.0510536
0.0484274
0.045043
0.0410431
0.0364955
0.0316403
0.0267102
0.0218931
0.0173674
0.0133432
0.0100664
0.00731798
0.00509957
0.00340624
0.00218833
0.001359
0.000818417
0.000470335
0.000222598
4.74628e-05
0.000139935
0.000140151
0.000229175
0.000331818
0.000408712
0.000455324
0.000478448
0.000489189
0.000501347
0.000528709
0.000585878
0.000692804
0.000866062
0.00111837
0.00145341
0.0018723
0.00237712
0.00297465
0.00367088
0.0044758
0.005397
0.00647515
0.00776098
0.00927817
0.0110155
0.0129987
0.0150378
0.0169979
0.0187721
0.0202665
0.0213963
0.0222642
0.0228516
0.0232536
0.0235081
0.0236739
0.0237912
0.0238937
0.024004
0.0241423
0.0243315
0.0245758
0.0248738
0.0252013
0.0255854
0.0260614
0.0266158
0.0272503
0.0279569
0.028699
0.029478
0.0302474
0.0309907
0.0316573
0.032206
0.0325026
0.0325954
0.0324668
0.0320505
0.0312212
0.0300244
0.0284243
0.0264263
0.0241049
0.0215464
0.0188562
0.0161495
0.01354
0.0111158
0.00897036
0.00715449
0.00559637
0.00425978
0.0031256
0.00218964
0.00143428
0.00087519
0.000492019
0.000256077
0.000250815
0.000305725
0.000254943
0.000340481
0.000427095
0.000479164
0.000505634
0.000520419
0.000537521
0.000572258
0.000642865
0.000773113
0.000991602
0.00132569
0.0017953
0.0024131
0.00319137
0.00414279
0.00528196
0.00661894
0.00816044
0.0099123
0.0118371
0.0138457
0.0157815
0.0174588
0.0186384
0.0193446
0.0197276
0.0199174
0.020058
0.0201276
0.0200366
0.019725
0.0194345
0.0191303
0.0188681
0.0186568
0.0185354
0.018488
0.0184866
0.0186103
0.0188047
0.0191056
0.0195272
0.0200592
0.0206775
0.0213784
0.0221563
0.0230065
0.0239128
0.0248655
0.02584
0.026814
0.0277509
0.0286111
0.0293455
0.0298726
0.0301028
0.030123
0.029754
0.0289394
0.0276722
0.0259339
0.0238277
0.0214412
0.0188732
0.01625
0.0136863
0.0112868
0.0091338
0.00727573
0.00571223
0.00441882
0.00335633
0.00248675
0.00178763
0.0012154
0.000761096
0.000471815
0.000670743
0.000530197
0.000439207
0.000535928
0.00061851
0.000661123
0.000683354
0.000705943
0.000749867
0.000838637
0.00100358
0.00128468
0.00172451
0.00235834
0.00320782
0.00428289
0.00558794
0.00712194
0.00886319
0.0107557
0.0127031
0.0145688
0.0162061
0.0174607
0.0181243
0.0183997
0.0184638
0.0183957
0.0180367
0.0174781
0.0168805
0.016226
0.0157171
0.0153282
0.0149971
0.0147502
0.0146023
0.014539
0.0145287
0.0146253
0.0147993
0.0150647
0.0154089
0.0158413
0.0163574
0.0169563
0.0176364
0.0183991
0.0192428
0.0201662
0.0211629
0.0222257
0.0233402
0.024487
0.0256373
0.0267534
0.0277859
0.0286757
0.0293249
0.0296223
0.0296653
0.0292355
0.028381
0.0270884
0.0251733
0.0228625
0.0202475
0.0174774
0.0147034
0.0120693
0.00969062
0.00764069
0.0059425
0.00457618
0.00349528
0.00264474
0.00197517
0.00143386
0.000991699
0.00070856
0.00111822
0.000849382
0.000694373
0.000789548
0.000869301
0.000914452
0.000950309
0.00100479
0.00110944
0.00130317
0.00163512
0.00216057
0.00292837
0.00396707
0.00528023
0.00685019
0.00863831
0.0105755
0.0125483
0.0143935
0.0159423
0.0169684
0.0174229
0.0175496
0.0174896
0.017059
0.0163189
0.0154493
0.0146429
0.0139898
0.0133851
0.0128854
0.0124985
0.0121973
0.0119731
0.0118367
0.0117746
0.0117581
0.0118055
0.0119293
0.0121077
0.0123504
0.0126527
0.0130194
0.013451
0.0139519
0.0145256
0.0151769
0.0159105
0.0167311
0.017642
0.0186436
0.0197335
0.0209035
0.0221394
0.0234188
0.0247031
0.0259394
0.0270638
0.0279978
0.0285488
0.0287409
0.0284957
0.0276952
0.026444
0.0244437
0.0219371
0.0190984
0.0161122
0.0131733
0.0104615
0.00810894
0.00617906
0.00466583
0.00351372
0.00264311
0.00198556
0.00148094
0.00108968
0.000865748
0.00142881
0.00130431
0.00102869
0.0011062
0.00118787
0.00125063
0.00132214
0.00143987
0.00165025
0.00201049
0.00258588
0.00343694
0.00460004
0.00607309
0.0078133
0.00974019
0.0117342
0.0136355
0.0152589
0.0163408
0.0168047
0.0169112
0.0167579
0.0161982
0.0152165
0.0142142
0.0133247
0.0125173
0.0118378
0.0112695
0.0107864
0.0103999
0.010091
0.0098482
0.0096646
0.0095348
0.00945706
0.00942261
0.00941565
0.0094587
0.0095389
0.00965911
0.00982082
0.0100251
0.0102768
0.0105804
0.0109431
0.0113728
0.01188
0.0124757
0.0131729
0.0139834
0.0149185
0.0159864
0.0171892
0.0185208
0.0199666
0.0214915
0.0230474
0.0245657
0.0259408
0.0270386
0.0275734
0.0276995
0.0271592
0.0260666
0.0239747
0.0212782
0.0181746
0.014911
0.0117562
0.00894455
0.00662474
0.00483749
0.00353189
0.00259765
0.00193366
0.0014481
0.0010887
0.000929389
0.0015445
0.00193483
0.00144845
0.00149798
0.00159225
0.00169128
0.00182477
0.00204301
0.0024095
0.00299681
0.00387451
0.00508738
0.00663335
0.00845276
0.0104306
0.0124049
0.0141777
0.0155293
0.0161841
0.0163716
0.0162955
0.0157401
0.0146883
0.0135649
0.0125471
0.0116284
0.0108459
0.0101703
0.009605
0.0091254
0.00872144
0.00838494
0.00810189
0.00786553
0.00766936
0.00750888
0.00738022
0.00727965
0.00720597
0.00716732
0.0071519
0.00715113
0.007189
0.00725191
0.00735037
0.00748371
0.00765951
0.0078839
0.00816631
0.00851748
0.00895413
0.00949582
0.0101648
0.0109858
0.0119799
0.0131704
0.0145785
0.0162018
0.0180079
0.0199465
0.0219522
0.0239053
0.0256425
0.026812
0.0272809
0.02724
0.0262482
0.0240701
0.021103
0.0176153
0.0139617
0.0105171
0.007581
0.00530493
0.00368188
0.00259271
0.00185833
0.00137166
0.00105165
0.000922179
0.00150075
0.00277774
0.00195846
0.00197861
0.00209976
0.00225711
0.00248145
0.00283803
0.00340462
0.00425794
0.00545142
0.0069889
0.00880624
0.0107696
0.0126893
0.0143457
0.0154163
0.0158451
0.0159116
0.015533
0.0145975
0.0133744
0.0122313
0.0111811
0.0102776
0.00949544
0.00883133
0.00825987
0.00777223
0.00735073
0.00698783
0.00667389
0.00640138
0.00616562
0.00596236
0.00578879
0.0056423
0.00552013
0.00542129
0.00534525
0.00528925
0.00526089
0.00525075
0.00525583
0.005295
0.00535614
0.00544784
0.00557184
0.00573445
0.00594207
0.00620165
0.00652491
0.00692713
0.00743134
0.00807356
0.00889538
0.00994593
0.011284
0.0129401
0.0149092
0.0171785
0.0196407
0.0221869
0.0246045
0.0265897
0.0275708
0.0278571
0.0270647
0.0247316
0.0213642
0.0173488
0.0131943
0.00941051
0.00635798
0.00415965
0.00273087
0.00185487
0.00130557
0.000986785
0.000887067
0.00139591
0.00385859
0.00256227
0.00255741
0.00272728
0.002963
0.00330446
0.00382854
0.00461793
0.00573576
0.0071966
0.0089428
0.0108371
0.0126762
0.0142226
0.0150989
0.0153912
0.0153836
0.0147533
0.0135902
0.012319
0.0111304
0.0100869
0.00917776
0.00840448
0.00773845
0.00716691
0.00667127
0.0062425
0.00586942
0.00554626
0.00526625
0.00502501
0.00481877
0.00464395
0.00449754
0.00437703
0.00428046
0.00420595
0.00415182
0.00412
0.00410632
0.00410364
0.00412257
0.004161
0.00421772
0.00429545
0.00439502
0.00451934
0.0046714
0.00485554
0.00507757
0.0053456
0.0056704
0.00606671
0.00655684
0.00717432
0.00797291
0.00904669
0.0105228
0.0124694
0.0148878
0.0177353
0.0208344
0.02397
0.0267433
0.0283684
0.0289696
0.0283865
0.0257965
0.0218799
0.0171975
0.0124682
0.00835023
0.00523856
0.00318273
0.00197479
0.00130474
0.000935935
0.000829987
0.00127677
0.00518707
0.00326766
0.00324769
0.00348006
0.00381236
0.00428859
0.00499066
0.00599235
0.00732399
0.00894369
0.0107244
0.0124644
0.01392
0.0147068
0.0149566
0.014815
0.0140238
0.0127525
0.0114656
0.0102528
0.00919779
0.0082926
0.00751655
0.00685379
0.00628176
0.00578909
0.00536357
0.00499827
0.0046857
0.00442084
0.00419814
0.00401334
0.00386205
0.00374043
0.00364492
0.00357236
0.00352001
0.00348693
0.00347144
0.00346694
0.00347485
0.00349865
0.0035353
0.0035855
0.00364914
0.00372723
0.00382079
0.00393139
0.00406099
0.00421219
0.00438838
0.00459408
0.00483541
0.00512101
0.00546043
0.00586954
0.0063739
0.0070144
0.00785748
0.00901834
0.0107238
0.0131172
0.0161855
0.0197998
0.0236466
0.0272736
0.029576
0.0304719
0.0300436
0.0270563
0.022416
0.0169526
0.0116352
0.00725963
0.00419766
0.00236093
0.00139477
0.000931541
0.000780127
0.00117848
0.00678717
0.00409077
0.00405398
0.00435663
0.00479491
0.00540828
0.0062733
0.00743966
0.00889022
0.0105203
0.0121426
0.0135186
0.014267
0.0145045
0.014294
0.0134043
0.0121148
0.0107828
0.00956198
0.00848978
0.00758012
0.00680408
0.00614166
0.00557579
0.00509152
0.00468019
0.00433298
0.00404344
0.00380459
0.00361048
0.00345496
0.00333264
0.00323837
0.00316774
0.00311694
0.0030831
0.00306634
0.00306021
0.00306067
0.00307617
0.00310001
0.00313507
0.00317987
0.00323567
0.00330284
0.00338256
0.00347598
0.00358451
0.00370966
0.00385317
0.00401696
0.00420318
0.00441447
0.00465426
0.00492758
0.00524227
0.00561108
0.00605531
0.00660504
0.00731446
0.00828272
0.00968258
0.0118656
0.0150228
0.019046
0.0236041
0.0281415
0.0311099
0.0322579
0.0318442
0.0282603
0.0227138
0.0164022
0.010568
0.00609793
0.00322986
0.00168996
0.000989182
0.000764921
0.00114427
0.00873207
0.00505643
0.0049721
0.00534353
0.00588538
0.00661967
0.0076059
0.00885784
0.010305
0.0117873
0.0130808
0.0138144
0.0140522
0.0138199
0.0128991
0.0116319
0.0102748
0.00902607
0.00794107
0.00701752
0.00623913
0.00557827
0.00501928
0.00454828
0.00415475
0.00383037
0.00356645
0.00335514
0.00318837
0.00305891
0.00295995
0.00288571
0.00283128
0.00279272
0.00276705
0.00275426
0.00274938
0.00274903
0.00275932
0.00277744
0.0028033
0.00283797
0.00288169
0.00293569
0.00300089
0.00307866
0.00317038
0.00327763
0.00340205
0.00354537
0.00370937
0.00389575
0.00410613
0.00434195
0.00460467
0.00489622
0.00522003
0.00558327
0.00600092
0.00650193
0.00713734
0.00798696
0.00921738
0.0111317
0.0142494
0.018601
0.0238628
0.029342
0.0329035
0.0342216
0.0335865
0.0291203
0.0224963
0.0153423
0.0091936
0.00486698
0.00236154
0.00118787
0.000798028
0.00118581
0.0108907
0.00612505
0.00598104
0.00641544
0.00704625
0.00786715
0.00891119
0.0101508
0.0114671
0.0126628
0.013386
0.0136269
0.0134114
0.0125266
0.0112838
0.00992169
0.0086392
0.00752856
0.00658919
0.00580087
0.00514059
0.00458751
0.00412913
0.00375336
0.00345009
0.00320931
0.00302098
0.00287575
0.00276493
0.00268109
0.00261796
0.00257067
0.00253543
0.00250959
0.00249143
0.00248071
0.00247588
0.00247481
0.00248131
0.00249474
0.0025155
0.00254452
0.00258269
0.00263117
0.00269114
0.00276404
0.0028514
0.00295493
0.00307651
0.00321815
0.00338197
0.00357006
0.00378437
0.00402649
0.00429747
0.00459761
0.0049266
0.00528418
0.00567207
0.00609811
0.00658413
0.00717887
0.00796455
0.00909029
0.0108597
0.0138712
0.0185124
0.0244779
0.0309126
0.0348869
0.0362241
0.0350265
0.0293207
0.0214562
0.0136427
0.00751694
0.0036228
0.00165136
0.000928753
0.00136114
0.0132011
0.00727218
0.00705484
0.00753888
0.00823259
0.0090916
0.0101175
0.0112441
0.0123168
0.0130179
0.0132572
0.0130904
0.0122773
0.0110703
0.00970775
0.00839347
0.00724361
0.00627876
0.00547513
0.00480884
0.00425884
0.00380907
0.00344723
0.0031606
0.00293741
0.00276588
0.00263516
0.00253575
0.00245966
0.00240061
0.00235387
0.00231611
0.00228508
0.00225953
0.00223884
0.00222287
0.00221225
0.00220748
0.00220658
0.00221306
0.00222743
0.00224992
0.00228169
0.00232377
0.00237736
0.00244382
0.00252472
0.00262183
0.00273717
0.00287303
0.00303192
0.00321653
0.00342958
0.00367361
0.0039507
0.00426199
0.00460726
0.00498468
0.005391
0.00582315
0.00628226
0.0067822
0.00736555
0.00812398
0.00920008
0.0109116
0.0138916
0.0188367
0.0255496
0.0329173
0.0369489
0.0381033
0.0358156
0.0284399
0.0193776
0.0113005
0.00564206
0.00252738
0.00124714
0.00178252
0.0155881
0.00846841
0.00816227
0.00867531
0.0093967
0.010237
0.0111659
0.012086
0.0127369
0.0129665
0.0128624
0.0121368
0.0109865
0.00962913
0.00828148
0.00708274
0.00607749
0.00524932
0.00456937
0.00401539
0.00356886
0.00321472
0.00293889
0.0027271
0.00256616
0.00244392
0.00235014
0.00227662
0.00221712
0.00216725
0.00212409
0.00208592
0.00205184
0.00202163
0.00199541
0.00197352
0.00195649
0.00194597
0.00194157
0.00194116
0.00195014
0.00196726
0.00199335
0.00202948
0.00207663
0.00213609
0.00220932
0.00229807
0.00240439
0.00253071
0.0026798
0.00285482
0.00305924
0.00329666
0.00357056
0.00388384
0.0042382
0.00463332
0.00506624
0.00553111
0.00602041
0.006529
0.00706346
0.00766067
0.0084166
0.00948585
0.0112065
0.0142919
0.0196738
0.0272783
0.0352611
0.0389888
0.0397041
0.0354683
0.0261324
0.016237
0.00851374
0.00388482
0.00182401
0.00245753
0.0179822
0.0096826
0.00926951
0.00978478
0.0104929
0.0112549
0.0120099
0.0125809
0.0127956
0.012721
0.0121024
0.0110232
0.00968429
0.00830255
0.00704487
0.00598331
0.00511584
0.00441222
0.0038452
0.00339414
0.00304093
0.00276922
0.002563
0.00240719
0.00228869
0.00219653
0.00212232
0.00205994
0.00200531
0.00195591
0.00191041
0.0018683
0.00182957
0.00179454
0.00176369
0.00173752
0.00171657
0.00170148
0.00169399
0.00169149
0.0016953
0.00170881
0.00173029
0.00176129
0.00180246
0.001855
0.00192021
0.00199973
0.00209554
0.00221003
0.00234605
0.00250698
0.00269674
0.00291972
0.00318064
0.0034842
0.00383448
0.00423411
0.00468304
0.00517739
0.00570868
0.00626471
0.00683375
0.00741511
0.00804253
0.0088203
0.00991791
0.0117168
0.0150552
0.0210827
0.0298364
0.0378972
0.040981
0.040797
0.0333828
0.0222859
0.0123155
0.00577323
0.00265758
0.00332669
0.0203349
0.010883
0.0103429
0.0108292
0.0114814
0.0121089
0.0125934
0.0127876
0.0126883
0.0121809
0.0111756
0.00986979
0.00845991
0.00713413
0.00599889
0.00507353
0.0043318
0.003741
0.00327595
0.00291591
0.00264167
0.00243532
0.00228014
0.00216174
0.00206852
0.00199177
0.00192544
0.00186565
0.00181021
0.0017581
0.00170904
0.00166323
0.00162109
0.00158311
0.00154977
0.00152152
0.00149877
0.00148187
0.00147267
0.00146917
0.00146983
0.00148068
0.00149862
0.00152527
0.00156114
0.00160724
0.00166473
0.00173511
0.00182016
0.00192215
0.00204381
0.0021885
0.00236024
0.00256379
0.00280462
0.00308875
0.00342238
0.00381112
0.00425883
0.00476604
0.005328
0.00593334
0.00656453
0.00720243
0.00783889
0.00850694
0.00932724
0.0104872
0.0124522
0.0162345
0.0230982
0.0332076
0.040874
0.0430808
0.0402117
0.0292974
0.0171652
0.00826826
0.00377322
0.00433523
0.0225969
0.0120382
0.0113491
0.0117747
0.0123322
0.0127494
0.0129114
0.0127944
0.0123706
0.0114458
0.0101828
0.00875655
0.00735928
0.00613254
0.00512723
0.00432829
0.00369971
0.00320981
0.00283398
0.00255027
0.0023383
0.00217965
0.0020585
0.00196236
0.00188208
0.00181146
0.00174675
0.00168591
0.00162816
0.00157339
0.00152191
0.00147418
0.0014307
0.0013919
0.00135813
0.0013297
0.00130683
0.00128971
0.00127972
0.00127559
0.00127518
0.00128366
0.00129893
0.00132191
0.00135316
0.0013935
0.00144397
0.00150587
0.0015808
0.0016708
0.00177838
0.00190668
0.00205958
0.0022418
0.00245905
0.00271802
0.00302626
0.0033917
0.00382181
0.00432202
0.00489348
0.0055304
0.00621778
0.00693159
0.00764419
0.00834052
0.00905846
0.00993681
0.0112039
0.0134743
0.0180185
0.0260591
0.0374932
0.0435021
0.0444278
0.0367992
0.0231802
0.0115263
0.00521985
0.00543473
0.0246798
0.0131184
0.0122618
0.0125982
0.0130096
0.0131802
0.0130901
0.0126615
0.0118327
0.0106244
0.00919447
0.00773045
0.0063983
0.00528826
0.00440798
0.00372314
0.0031951
0.00279321
0.00249213
0.00226882
0.00210265
0.00197619
0.00187568
0.00179125
0.00171637
0.00164716
0.00158168
0.00151922
0.00145981
0.00140381
0.00135172
0.00130398
0.00126098
0.001223
0.00119023
0.00116279
0.00114077
0.00112423
0.00111411
0.0011097
0.00110893
0.00111549
0.00112859
0.00114847
0.00117572
0.00121104
0.00125531
0.00130967
0.00137554
0.0014547
0.00154939
0.00166245
0.00179742
0.00195876
0.00215197
0.00238384
0.00266244
0.0029971
0.00339784
0.00387431
0.00443377
0.00507796
0.00579936
0.00657783
0.00738062
0.00817011
0.00892729
0.0097035
0.0106526
0.012103
0.0149223
0.0206953
0.0306308
0.0417838
0.0459057
0.0437036
0.0302979
0.0157262
0.00704759
0.00658915
0.0265098
0.014096
0.0130585
0.0132781
0.0134915
0.0134655
0.0130712
0.0123429
0.0111928
0.00977626
0.00825646
0.00681353
0.00557502
0.00458418
0.00381879
0.00323525
0.00279486
0.00246713
0.00222584
0.00204771
0.00191317
0.00180686
0.00171775
0.00163865
0.0015654
0.00149593
0.00142956
0.00136634
0.00130669
0.00125109
0.00119997
0.00115365
0.00111234
0.00107616
0.00104512
0.00101924
0.000998483
0.000982827
0.000972908
0.000968432
0.000967437
0.000972492
0.000983737
0.00100097
0.00102478
0.00105575
0.00109465
0.00114247
0.00120045
0.00127014
0.0013535
0.00145304
0.00157191
0.00171413
0.0018848
0.00209034
0.00233876
0.0026398
0.00300485
0.00344643
0.00397676
0.00460511
0.00533355
0.00615158
0.00703139
0.00792794
0.00879139
0.0096025
0.0104421
0.0114874
0.0132346
0.0168836
0.0243476
0.0368112
0.045922
0.0476392
0.0380877
0.0210354
0.00930053
0.00779422
0.0280468
0.0149504
0.0137199
0.0137901
0.0138479
0.0135931
0.0129442
0.0118851
0.0105003
0.00894419
0.00739508
0.0060113
0.00487834
0.00400115
0.0033387
0.00284367
0.0024778
0.00221031
0.00201475
0.00186876
0.00175483
0.00166031
0.00157695
0.00149997
0.00142703
0.00135733
0.00129092
0.00122821
0.00116967
0.00111573
0.00106665
0.00102259
0.000983585
0.000949608
0.000920578
0.000896401
0.000876993
0.000862271
0.000852631
0.000848149
0.000846981
0.000850792
0.000860411
0.000875365
0.000896199
0.000923422
0.000957711
0.000999921
0.00105113
0.00111269
0.00118631
0.00127416
0.00137903
0.00150446
0.00165501
0.00183656
0.0020566
0.00232461
0.00265232
0.00305366
0.00354412
0.00413892
0.0048494
0.00567724
0.00660685
0.00759881
0.00859104
0.00952013
0.0103761
0.011275
0.012476
0.0147524
0.0198679
0.0298324
0.0434355
0.0489799
0.0455218
0.0275484
0.0120474
0.00903748
0.0292688
0.0156791
0.014238
0.0141561
0.0140555
0.0135683
0.0126697
0.0113572
0.00979391
0.00815646
0.00662223
0.0053194
0.00429346
0.00352054
0.00294874
0.00252966
0.00222541
0.00200518
0.00184324
0.00171915
0.00161803
0.00153006
0.00144947
0.00137338
0.00130076
0.00123156
0.00116617
0.00110506
0.00104862
0.000997104
0.000950627
0.000909177
0.000872666
0.000840959
0.000813908
0.000791369
0.000773221
0.000759359
0.000749976
0.00074548
0.000744154
0.0007469
0.000755081
0.00076806
0.000786323
0.00081032
0.000840648
0.000878056
0.000923483
0.000978113
0.00104343
0.00112134
0.00121424
0.00132524
0.00145836
0.00161883
0.00181344
0.00205102
0.00234289
0.00270321
0.00314904
0.00369944
0.00437304
0.00518302
0.00612898
0.00718655
0.00829863
0.00937979
0.0103534
0.011235
0.012205
0.0137036
0.0169698
0.0243797
0.0379932
0.0489617
0.0505633
0.0352629
0.0154619
0.0104014
0.0301722
0.0162807
0.014615
0.0143847
0.0141192
0.0134543
0.0123011
0.0107911
0.00910185
0.00742954
0.00594021
0.00472843
0.00380492
0.00312538
0.00263218
0.00227699
0.00202237
0.00183811
0.0017001
0.00159043
0.00149703
0.00141266
0.00133357
0.00125827
0.00118653
0.00111868
0.00105517
0.000996397
0.000942607
0.000893882
0.000850179
0.000811369
0.000777277
0.000747708
0.000722473
0.000701405
0.000684369
0.000671259
0.000662085
0.00065755
0.000656069
0.000657894
0.000664801
0.000676062
0.000692097
0.000713312
0.000740234
0.000773525
0.000814016
0.000862743
0.000921012
0.000990472
0.00107322
0.00117197
0.00129022
0.00143257
0.00160506
0.00181567
0.00207488
0.00239633
0.00279731
0.0032988
0.00392421
0.00469589
0.00562796
0.00671486
0.00791719
0.00915179
0.0103044
0.011292
0.0121577
0.0132778
0.015361
0.0204517
0.0313571
0.0468938
0.0527447
0.0438224
0.0198687
0.0121511
0.0307721
0.0167542
0.0148631
0.0144852
0.0140746
0.0132186
0.0118756
0.0102134
0.00844321
0.0067713
0.00534542
0.00422691
0.00339801
0.0028007
0.00237467
0.00207219
0.00185662
0.00169906
0.00157768
0.00147732
0.00138858
0.00130638
0.00122849
0.00115434
0.00108412
0.00101829
0.00095723
0.000901197
0.000850268
0.000804382
0.000763383
0.000727063
0.000695191
0.000667543
0.000643914
0.000624128
0.000608047
0.000595572
0.000586645
0.000582003
0.000580369
0.000581404
0.000587181
0.000596947
0.000611049
0.000629854
0.000653835
0.000683583
0.000719836
0.000763516
0.000815773
0.000878056
0.000952205
0.00104058
0.00114624
0.00127319
0.00142675
0.001614
0.00184443
0.00213066
0.00248934
0.00294179
0.00351393
0.00423442
0.00512938
0.00621184
0.00746517
0.0088239
0.0101658
0.0113424
0.0123067
0.0131768
0.0146181
0.0179232
0.0261273
0.0421375
0.0532339
0.0518406
0.0255704
0.0145113
0.031069
0.0171057
0.0149943
0.0144701
0.0139414
0.0129097
0.0114162
0.0096436
0.00782983
0.00618362
0.00483108
0.00380306
0.00305952
0.00253362
0.00216418
0.00190446
0.00171904
0.00158096
0.00147097
0.00137664
0.00129087
0.0012103
0.00113375
0.0010612
0.00099303
0.000929646
0.000871319
0.00081814
0.000770048
0.000726873
0.000688382
0.000654319
0.000624428
0.000598473
0.000576244
0.000557569
0.000542312
0.000530378
0.000521702
0.000516923
0.000515144
0.000515531
0.000520306
0.000528768
0.000541187
0.000557898
0.000579325
0.000606004
0.000638597
0.000677929
0.000725029
0.000781182
0.000848011
0.000927589
0.00102259
0.00113652
0.00127403
0.00144135
0.00164691
0.00190216
0.00222257
0.00262874
0.00314722
0.00381018
0.00465233
0.00570268
0.00696883
0.00841378
0.0099321
0.0113511
0.0125039
0.0133332
0.0143704
0.0165302
0.0223882
0.0356716
0.0527244
0.0569593
0.0331017
0.0174714
0.031049
0.0173328
0.0150188
0.0143866
0.0137088
0.0125497
0.0109422
0.00909591
0.00726808
0.00566456
0.00438901
0.00344574
0.00277791
0.00231331
0.00199096
0.00176543
0.00160296
0.00147894
0.00137676
0.00128645
0.00120283
0.00112379
0.00104887
0.000978301
0.000912499
0.000851766
0.000796225
0.000745832
0.000700416
0.000659733
0.000623505
0.000591451
0.000563306
0.000538833
0.000517829
0.000500125
0.000485592
0.000474136
0.000465691
0.000460759
0.000458811
0.000458759
0.00046263
0.000469954
0.000480906
0.000495788
0.000514986
0.000538987
0.000568393
0.000603952
0.000646592
0.000697467
0.000758025
0.000830104
0.000916062
0.00101898
0.00114291
0.00129334
0.00147769
0.00170618
0.00199288
0.00235706
0.00282464
0.00342906
0.0042103
0.00520952
0.00645568
0.00794147
0.00959081
0.0112365
0.0126512
0.0136499
0.0143578
0.0158925
0.0198003
0.0301103
0.0497331
0.0591914
0.0427029
0.0209098
0.0308825
0.0174769
0.0149792
0.0142077
0.0134152
0.012156
0.0104681
0.0085796
0.00676032
0.00520993
0.00401073
0.00314492
0.00254336
0.00213084
0.00184725
0.00164876
0.00150363
0.00138973
0.00129298
0.00120554
0.00112372
0.00104631
0.000973256
0.000904915
0.000841624
0.000783561
0.000730715
0.000682933
0.000639969
0.000601529
0.000567314
0.000537033
0.000510423
0.000487254
0.00046733
0.000450489
0.000436605
0.000425585
0.00041737
0.000412295
0.000410128
0.00040984
0.000412894
0.000419222
0.000428892
0.000442172
0.000459414
0.000481063
0.000507674
0.00053993
0.000578679
0.000624968
0.000680108
0.000745745
0.000823979
0.000917529
0.00102998
0.00116612
0.00133249
0.00153813
0.00179565
0.00212267
0.00254366
0.00309166
0.00380914
0.00474551
0.00594752
0.00743756
0.00917723
0.0110231
0.0127109
0.0140162
0.0147468
0.0156977
0.0183201
0.0262719
0.0442656
0.0596833
0.0528876
0.024465
0.0305155
0.0175566
0.0148733
0.0139631
0.0130765
0.0117435
0.010005
0.00810031
0.00630621
0.0048144
0.00368812
0.00289181
0.00234763
0.00197897
0.00172702
0.00154975
0.00141767
0.0013111
0.00121826
0.00113304
0.00105291
0.000977252
0.000906239
0.000840224
0.000779444
0.00072395
0.000673624
0.000628229
0.00058747
0.000551029
0.000518594
0.000489878
0.000464625
0.000442611
0.000423649
0.000407582
0.000394288
0.000383675
0.000375683
0.000370505
0.00036816
0.000367685
0.00037005
0.000375509
0.000384057
0.000395928
0.000411446
0.00043102
0.000455162
0.000484505
0.00051983
0.0005621
0.000612514
0.000672566
0.000744148
0.000829692
0.00093237
0.00105642
0.00120758
0.00139384
0.00162639
0.00192114
0.00230066
0.00279653
0.0034515
0.00431963
0.00546065
0.00692275
0.00870771
0.0107185
0.0127129
0.0143124
0.0151828
0.0157926
0.0175969
0.0231813
0.0386372
0.058864
0.0614084
0.0273245
0.029944
0.0175528
0.0146967
0.0136718
0.0127071
0.011324
0.0095606
0.00766088
0.00590368
0.00447223
0.00341371
0.00267887
0.00218392
0.00185192
0.0016256
0.00146494
0.00134269
0.00124152
0.00115161
0.00106828
0.00098982
0.000915998
0.000847089
0.000783386
0.000725017
0.000671924
0.0006239
0.000580656
0.000541863
0.000507193
0.000476333
0.000449003
0.000424955
0.000403973
0.000385877
0.000370516
0.000357768
0.00034754
0.000339771
0.000334536
0.00033205
0.000331421
0.000333215
0.000337917
0.000345482
0.000356113
0.000370106
0.00038784
0.000409792
0.000436549
0.000468838
0.000507557
0.00055381
0.000608975
0.000674777
0.000753415
0.000847734
0.000961496
0.00109979
0.00126964
0.00148097
0.00174799
0.00209122
0.00254013
0.00313626
0.00393538
0.00500559
0.00641523
0.00820197
0.0103178
0.0125623
0.0145545
0.0157262
0.0162841
0.0173545
0.0211679
0.0332298
0.0566689
0.0657454
0.0286368
0.0292011
0.0175168
0.0144827
0.0133481
0.0123197
0.0109071
0.00914032
0.00726216
0.00554963
0.00417773
0.00318089
0.00249974
0.00204667
0.00174511
0.00153947
0.00139176
0.00127697
0.00117986
0.00109228
0.00101065
0.000933851
0.000861894
0.000795067
0.000733584
0.000677468
0.000626571
0.000580624
0.000539299
0.000502252
0.000469151
0.000439688
0.000413591
0.000390621
0.000370569
0.000353261
0.000338547
0.000326309
0.000316451
0.000308908
0.00030366
0.000301064
0.000300306
0.000301631
0.000305676
0.000312379
0.000321917
0.00033456
0.000350659
0.000370659
0.000395111
0.000424695
0.000460252
0.000502815
0.000553665
0.000614397
0.000687025
0.000774131
0.000879094
0.00100644
0.00116241
0.00135577
0.00159916
0.00191105
0.00231851
0.00286093
0.00359371
0.00458975
0.00593267
0.00769208
0.00987005
0.0123185
0.0146643
0.0162108
0.0168474
0.0173827
0.0200811
0.0295532
0.0524561
0.067306
0.0288617
0.0283292
0.0174342
0.0142414
0.0130042
0.0119247
0.0104999
0.00874737
0.00690354
0.00524041
0.00392556
0.00298392
0.00234912
0.00193138
0.00165493
0.0014659
0.00132832
0.00121924
0.00112527
0.00103963
0.000959576
0.000884421
0.000814296
0.000749467
0.000690059
0.000636008
0.000587094
0.000543003
0.000503384
0.000467885
0.000436175
0.000407956
0.000382961
0.00036096
0.000341751
0.000325162
0.000311046
0.000299283
0.000289776
0.000282453
0.000277267
0.000274567
0.000273698
0.000274641
0.000278117
0.000284066
0.00029264
0.000304086
0.000318731
0.00033699
0.000359381
0.000386545
0.000419273
0.000458542
0.000505552
0.000561798
0.000629147
0.000709973
0.00080735
0.000925352
0.00106953
0.00124768
0.00147103
0.00175607
0.00212742
0.00262169
0.00329239
0.00421394
0.00548004
0.00718616
0.00938226
0.011988
0.014692
0.016725
0.0175591
0.0179239
0.0195759
0.0268193
0.0475683
0.0673547
0.0282822
0.0273623
0.0173222
0.0139838
0.0126506
0.0115306
0.0101076
0.00838346
0.00658353
0.00497227
0.00371084
0.00281782
0.00222261
0.00183442
0.00157855
0.00140284
0.0012732
0.00116855
0.00107707
0.000993101
0.000914531
0.000840965
0.000772593
0.000709632
0.000652129
0.000599944
0.000552803
0.000510361
0.000472254
0.000438128
0.000407655
0.000380545
0.000356539
0.000335413
0.000316969
0.000301039
0.000287476
0.000276157
0.000266983
0.000259875
0.000254784
0.000251998
0.000251035
0.000251669
0.000254655
0.000259943
0.000267668
0.000278054
0.000291406
0.000308112
0.000328658
0.000353653
0.000383844
0.000420158
0.000463732
0.000515978
0.00057865
0.00065396
0.000744738
0.000854694
0.000988829
0.00115409
0.00136047
0.00162268
0.00196291
0.00241481
0.00302904
0.00387932
0.00506517
0.00670155
0.00887882
0.011579
0.0145665
0.0171442
0.0182423
0.0185406
0.0194239
0.0247752
0.0430971
0.0650904
0.0273081
0.0263326
0.0171952
0.0137192
0.0122958
0.0111441
0.00973402
0.00804914
0.00629998
0.00474136
0.00352923
0.00267848
0.00211662
0.00175289
0.00151376
0.00134869
0.00122529
0.00112411
0.00103467
0.000952179
0.000875007
0.000802949
0.000736216
0.000674972
0.000619191
0.000568675
0.000523108
0.000482127
0.000445357
0.000412447
0.000383075
0.000356956
0.000333839
0.000313503
0.000295755
0.000280427
0.000267372
0.000256466
0.000247605
0.000240708
0.000235719
0.000232869
0.000231824
0.00023221
0.000234774
0.000239485
0.000246462
0.000255911
0.000268114
0.000283435
0.000302333
0.000325382
0.000353296
0.000386952
0.000427439
0.000476099
0.000534597
0.000605018
0.000690006
0.000792983
0.0009185
0.00107281
0.00126483
0.00150769
0.00182129
0.00223627
0.00279988
0.00358345
0.00468893
0.00624581
0.00838026
0.0111324
0.0143181
0.0174238
0.0190051
0.0193694
0.0196241
0.0233766
0.0391074
0.0619448
0.0261395
0.025241
0.0170709
0.013458
0.0119474
0.0107705
0.00938172
0.00774415
0.00605059
0.00454416
0.00337686
0.00256239
0.00202821
0.00168445
0.00145882
0.0013022
0.00118371
0.00108531
0.000997571
0.000916403
0.000840534
0.000769882
0.000704654
0.000644961
0.000590719
0.000541682
0.000497506
0.000457813
0.000422225
0.000390393
0.000361999
0.000336766
0.000314445
0.000294821
0.000277703
0.000262922
0.000250332
0.000239806
0.000231236
0.000224538
0.000219651
0.000216749
0.000215632
0.000215818
0.000218022
0.000222228
0.000228547
0.000237169
0.000248353
0.000262443
0.00027987
0.000301179
0.000327047
0.000358314
0.000396021
0.000441453
0.000496205
0.000562263
0.000642128
0.000738998
0.00085707
0.00100203
0.00118189
0.00140839
0.00169936
0.0020825
0.0026014
0.00332388
0.00435137
0.0058226
0.00789393
0.0106675
0.0140445
0.0175404
0.0197359
0.0202507
0.0202503
0.0226122
0.0356216
0.0581869