/*--------------------------------*- C++ -*----------------------------------*\
  =========                 |
  \\      /  F ield         | OpenFOAM: The Open Source CFD Toolbox
   \\    /   O peration     | Website:  https://openfoam.org
    \\  /    A nd           | Version:  13
     \\/     M anipulation  |
\*---------------------------------------------------------------------------*/
FoamFile
{
    format      ascii;
    class       volScalarField;
    location    "8.2";
    object      nut;
}
// * * * * * * * * * * * * * * * * * * * * * * * * * * * * * * * * * * * * * //

dimensions      [0 2 -1 0 0 0 0];

internalField   nonuniform List<scalar> 
6400
(
9.94251e-10
5.10738e-09
1.24144e-08
1.99891e-08
2.5688e-08
2.88807e-08
3.00355e-08
3.01418e-08
3.03114e-08
3.13928e-08
3.4033e-08
3.92129e-08
4.73908e-08
5.87503e-08
7.26856e-08
8.84267e-08
1.05172e-07
1.22599e-07
1.39888e-07
1.56624e-07
1.7348e-07
1.91905e-07
2.13837e-07
2.40406e-07
2.70465e-07
3.0076e-07
3.30832e-07
3.60695e-07
3.91272e-07
4.23387e-07
4.56587e-07
4.89763e-07
5.22381e-07
5.54548e-07
5.87068e-07
6.20139e-07
6.54433e-07
6.90163e-07
7.2776e-07
7.67334e-07
8.09172e-07
8.53599e-07
9.00865e-07
9.51503e-07
1.00595e-06
1.06609e-06
1.13548e-06
1.2217e-06
1.30775e-06
1.39564e-06
1.48154e-06
1.56495e-06
1.64314e-06
1.71398e-06
1.77483e-06
1.82252e-06
1.84666e-06
1.85623e-06
1.85198e-06
1.81601e-06
1.75283e-06
1.66266e-06
1.54647e-06
1.40914e-06
1.25301e-06
1.08631e-06
9.17045e-07
7.51659e-07
5.96278e-07
4.58116e-07
3.45611e-07
2.51248e-07
1.75083e-07
1.16945e-07
7.51303e-08
4.66569e-08
2.80974e-08
1.6147e-08
7.64188e-09
1.62941e-09
4.80446e-09
3.38755e-07
1.21832e-06
2.05154e-06
2.66599e-06
3.02703e-06
3.19268e-06
3.25075e-06
3.28556e-06
3.35866e-06
3.54595e-06
3.91804e-06
4.44439e-06
5.05756e-06
5.69512e-06
6.29445e-06
6.80996e-06
7.19317e-06
7.4299e-06
7.53562e-06
7.592e-06
7.66517e-06
7.82315e-06
8.09234e-06
8.41035e-06
8.62166e-06
8.82571e-06
9.06011e-06
9.37121e-06
9.79733e-06
1.03423e-05
1.09419e-05
1.15905e-05
1.22591e-05
1.29659e-05
1.36962e-05
1.4459e-05
1.52487e-05
1.60721e-05
1.6924e-05
1.77983e-05
1.8701e-05
1.96321e-05
2.06126e-05
2.16082e-05
2.2585e-05
2.35178e-05
2.43503e-05
2.52198e-05
2.60954e-05
2.69819e-05
2.78586e-05
2.87121e-05
2.95209e-05
3.02632e-05
3.09909e-05
3.14365e-05
3.17309e-05
3.19197e-05
3.18863e-05
3.15174e-05
3.08466e-05
2.98434e-05
2.85045e-05
2.68269e-05
2.48677e-05
2.27203e-05
2.04055e-05
1.79567e-05
1.5298e-05
1.23989e-05
9.60672e-06
7.1459e-06
5.12136e-06
3.54988e-06
2.41366e-06
1.61371e-06
1.04362e-06
4.72402e-07
8.61052e-09
1.04965e-08
8.73756e-07
3.52565e-06
6.1188e-06
8.1013e-06
9.38722e-06
1.01081e-05
1.04688e-05
1.06753e-05
1.09093e-05
1.13104e-05
1.19583e-05
1.2829e-05
1.3823e-05
1.48115e-05
1.56837e-05
1.63883e-05
1.68988e-05
1.72136e-05
1.73474e-05
1.73223e-05
1.72352e-05
1.71657e-05
1.71527e-05
1.72323e-05
1.74947e-05
1.78178e-05
1.81477e-05
1.85024e-05
1.88792e-05
1.93759e-05
2.00722e-05
2.10659e-05
2.20782e-05
2.32247e-05
2.44266e-05
2.57082e-05
2.70085e-05
2.83639e-05
2.9812e-05
3.12132e-05
3.26609e-05
3.407e-05
3.54099e-05
3.66889e-05
3.79447e-05
3.91633e-05
4.03887e-05
4.16226e-05
4.28541e-05
4.40766e-05
4.52771e-05
4.644e-05
4.75448e-05
4.85645e-05
4.94641e-05
5.02517e-05
5.07698e-05
5.10039e-05
5.11583e-05
5.09753e-05
5.04731e-05
4.96026e-05
4.82606e-05
4.63565e-05
4.39171e-05
4.1133e-05
3.7987e-05
3.44942e-05
3.06921e-05
2.66355e-05
2.24652e-05
1.83793e-05
1.45814e-05
1.12413e-05
8.41725e-06
6.17772e-06
4.25259e-06
1.77186e-06
2.30268e-08
1.82031e-08
1.42712e-06
5.5042e-06
9.39731e-06
1.24056e-05
1.4468e-05
1.57411e-05
1.64519e-05
1.686e-05
1.72008e-05
1.76758e-05
1.84109e-05
1.93853e-05
2.04584e-05
2.14674e-05
2.22964e-05
2.28843e-05
2.3227e-05
2.33536e-05
2.33224e-05
2.32009e-05
2.30985e-05
2.30832e-05
2.31947e-05
2.32546e-05
2.32701e-05
2.32587e-05
2.36646e-05
2.44104e-05
2.54056e-05
2.66978e-05
2.79246e-05
2.91409e-05
3.04383e-05
3.17684e-05
3.30733e-05
3.4385e-05
3.57624e-05
3.70628e-05
3.83555e-05
3.95948e-05
4.08167e-05
4.1988e-05
4.31205e-05
4.42055e-05
4.52634e-05
4.63204e-05
4.73771e-05
4.84301e-05
4.94735e-05
5.05005e-05
5.15008e-05
5.24615e-05
5.33659e-05
5.41943e-05
5.49232e-05
5.55272e-05
5.59801e-05
5.62119e-05
5.62642e-05
5.60926e-05
5.55638e-05
5.47839e-05
5.39759e-05
5.26577e-05
5.07077e-05
4.83061e-05
4.54194e-05
4.21185e-05
3.84505e-05
3.44595e-05
3.02113e-05
2.5817e-05
2.14409e-05
1.72878e-05
1.3523e-05
1.02545e-05
7.18544e-06
2.97998e-06
3.83889e-08
2.91614e-08
2.13703e-06
7.62077e-06
1.26131e-05
1.63351e-05
1.88352e-05
2.03552e-05
2.11855e-05
2.16458e-05
2.20633e-05
2.26952e-05
2.36284e-05
2.47601e-05
2.5892e-05
2.68462e-05
2.75224e-05
2.79e-05
2.80187e-05
2.79342e-05
2.77674e-05
2.75256e-05
2.73582e-05
2.72048e-05
2.65911e-05
2.65414e-05
2.70788e-05
2.80379e-05
2.91877e-05
3.03589e-05
3.16728e-05
3.29627e-05
3.42104e-05
3.54383e-05
3.66351e-05
3.77434e-05
3.87793e-05
3.98214e-05
4.07881e-05
4.16271e-05
4.24166e-05
4.31225e-05
4.37786e-05
4.43968e-05
4.50079e-05
4.56337e-05
4.62715e-05
4.69047e-05
4.7544e-05
4.81906e-05
4.88483e-05
4.95183e-05
5.02009e-05
5.08941e-05
5.15934e-05
5.22917e-05
5.29772e-05
5.36306e-05
5.42227e-05
5.47218e-05
5.50686e-05
5.51986e-05
5.50695e-05
5.45183e-05
5.33918e-05
5.25844e-05
5.13929e-05
4.95553e-05
4.72219e-05
4.44547e-05
4.13043e-05
3.7807e-05
3.39877e-05
2.98831e-05
2.55841e-05
2.13e-05
1.7199e-05
1.33557e-05
9.38716e-06
3.82634e-06
4.90517e-08
4.478e-08
3.09007e-06
1.0116e-05
1.61214e-05
2.03422e-05
2.30183e-05
2.45418e-05
2.53291e-05
2.58088e-05
2.63614e-05
2.71994e-05
2.83039e-05
2.94903e-05
3.05398e-05
3.12969e-05
3.17002e-05
3.17673e-05
3.16248e-05
3.12189e-05
3.09085e-05
3.03865e-05
2.9521e-05
2.93884e-05
3.01071e-05
3.10856e-05
3.21163e-05
3.3295e-05
3.44738e-05
3.56063e-05
3.66952e-05
3.76448e-05
3.85405e-05
3.93634e-05
4.00693e-05
4.06556e-05
4.11632e-05
4.15807e-05
4.19929e-05
4.22992e-05
4.25721e-05
4.28114e-05
4.30397e-05
4.32474e-05
4.34429e-05
4.36307e-05
4.38108e-05
4.3989e-05
4.41738e-05
4.4374e-05
4.46002e-05
4.48641e-05
4.51776e-05
4.55533e-05
4.59993e-05
4.65144e-05
4.71021e-05
4.77656e-05
4.84792e-05
4.92101e-05
4.99057e-05
5.05664e-05
5.09559e-05
5.10836e-05
5.08793e-05
5.00348e-05
4.95353e-05
4.83056e-05
4.65249e-05
4.4253e-05
4.15761e-05
3.85673e-05
3.52585e-05
3.16328e-05
2.76634e-05
2.35024e-05
1.92871e-05
1.51647e-05
1.06958e-05
4.23638e-06
5.30238e-08
6.64269e-08
4.32946e-06
1.3021e-05
1.99239e-05
2.44484e-05
2.71091e-05
2.84963e-05
2.91843e-05
2.96946e-05
3.03889e-05
3.13727e-05
3.25205e-05
3.36041e-05
3.44226e-05
3.48717e-05
3.49482e-05
3.44947e-05
3.40535e-05
3.35995e-05
3.24239e-05
3.21038e-05
3.2604e-05
3.34735e-05
3.42639e-05
3.5178e-05
3.60945e-05
3.70202e-05
3.78258e-05
3.853e-05
3.91513e-05
3.96994e-05
4.01625e-05
4.05249e-05
4.0796e-05
4.09937e-05
4.11372e-05
4.12329e-05
4.12977e-05
4.13075e-05
4.13085e-05
4.13024e-05
4.12536e-05
4.11987e-05
4.1117e-05
4.10282e-05
4.09173e-05
4.07967e-05
4.06624e-05
4.05262e-05
4.03931e-05
4.02789e-05
4.02025e-05
4.01945e-05
4.03009e-05
4.05233e-05
4.08632e-05
4.13971e-05
4.21181e-05
4.29887e-05
4.39455e-05
4.49901e-05
4.598e-05
4.68452e-05
4.72478e-05
4.73192e-05
4.67919e-05
4.65084e-05
4.52784e-05
4.34057e-05
4.10192e-05
3.82644e-05
3.52559e-05
3.20297e-05
2.84991e-05
2.45487e-05
2.04807e-05
1.60842e-05
1.09938e-05
4.22761e-06
5.1522e-08
9.53655e-08
5.8741e-06
1.62645e-05
2.39159e-05
2.85652e-05
3.10822e-05
3.22719e-05
3.28566e-05
3.33956e-05
3.41729e-05
3.51759e-05
3.6205e-05
3.70247e-05
3.74694e-05
3.74929e-05
3.69811e-05
3.65193e-05
3.54796e-05
3.47527e-05
3.47286e-05
3.52864e-05
3.56983e-05
3.63502e-05
3.69901e-05
3.77546e-05
3.8406e-05
3.89902e-05
3.94437e-05
3.98124e-05
4.00951e-05
4.03048e-05
4.04447e-05
4.0526e-05
4.05657e-05
4.05766e-05
4.05683e-05
4.05426e-05
4.05024e-05
4.04471e-05
4.03868e-05
4.02796e-05
4.02074e-05
4.01276e-05
3.99572e-05
3.98215e-05
3.96428e-05
3.94561e-05
3.92449e-05
3.90111e-05
3.87538e-05
3.84704e-05
3.81575e-05
3.7811e-05
3.74238e-05
3.70712e-05
3.68583e-05
3.68153e-05
3.71058e-05
3.777e-05
3.86108e-05
3.97743e-05
4.10588e-05
4.2409e-05
4.36699e-05
4.43903e-05
4.45299e-05
4.43711e-05
4.42388e-05
4.28434e-05
4.07138e-05
3.80408e-05
3.50359e-05
3.18782e-05
2.86218e-05
2.50445e-05
2.09827e-05
1.66031e-05
1.11728e-05
4.11913e-06
4.79229e-08
1.32473e-07
7.70625e-06
1.97565e-05
2.7942e-05
3.26012e-05
3.49038e-05
3.5877e-05
3.63561e-05
3.68835e-05
3.76406e-05
3.85202e-05
3.92905e-05
3.97446e-05
3.96075e-05
3.91291e-05
3.86366e-05
3.73372e-05
3.685e-05
3.69188e-05
3.70026e-05
3.72965e-05
3.77501e-05
3.82903e-05
3.87835e-05
3.92622e-05
3.96082e-05
3.98806e-05
4.00566e-05
4.01818e-05
4.02576e-05
4.03057e-05
4.03346e-05
4.03576e-05
4.03816e-05
4.04084e-05
4.04374e-05
4.0466e-05
4.04913e-05
4.05051e-05
4.04962e-05
4.04857e-05
4.04746e-05
4.04053e-05
4.03256e-05
4.0229e-05
4.00965e-05
3.994e-05
3.97494e-05
3.9525e-05
3.92647e-05
3.89645e-05
3.86179e-05
3.8218e-05
3.77592e-05
3.72333e-05
3.66386e-05
3.59692e-05
3.52436e-05
3.46753e-05
3.47763e-05
3.55079e-05
3.66139e-05
3.80892e-05
3.96938e-05
4.12967e-05
4.22645e-05
4.24815e-05
4.25715e-05
4.25527e-05
4.0897e-05
3.8412e-05
3.53329e-05
3.19536e-05
2.85314e-05
2.50703e-05
2.12135e-05
1.66592e-05
1.09312e-05
3.83396e-06
4.38331e-08
1.78083e-07
9.74576e-06
2.33241e-05
3.1923e-05
3.64996e-05
3.85479e-05
3.92945e-05
3.96431e-05
4.0084e-05
4.07015e-05
4.13281e-05
4.17357e-05
4.14878e-05
4.09447e-05
4.03681e-05
3.92976e-05
3.87537e-05
3.85348e-05
3.83251e-05
3.85053e-05
3.87839e-05
3.91374e-05
3.94765e-05
3.9744e-05
3.99548e-05
4.00745e-05
4.01594e-05
4.02092e-05
4.02611e-05
4.03178e-05
4.03953e-05
4.04933e-05
4.06133e-05
4.07496e-05
4.08951e-05
4.10396e-05
4.11728e-05
4.13136e-05
4.13992e-05
4.14449e-05
4.15301e-05
4.15267e-05
4.15087e-05
4.14531e-05
4.1367e-05
4.1246e-05
4.10962e-05
4.0917e-05
4.07122e-05
4.04751e-05
4.02034e-05
3.98896e-05
3.95223e-05
3.90827e-05
3.85591e-05
3.79357e-05
3.71903e-05
3.6312e-05
3.53387e-05
3.43231e-05
3.33291e-05
3.32901e-05
3.42783e-05
3.57126e-05
3.75787e-05
3.94466e-05
4.06729e-05
4.09881e-05
4.11667e-05
4.11655e-05
3.92042e-05
3.62971e-05
3.27362e-05
2.89073e-05
2.51176e-05
2.122e-05
1.66472e-05
1.06791e-05
3.5645e-06
4.04592e-08
2.33018e-07
1.18238e-05
2.68303e-05
3.57719e-05
4.02145e-05
4.19866e-05
4.2488e-05
4.26563e-05
4.29176e-05
4.32798e-05
4.35475e-05
4.32052e-05
4.25665e-05
4.19119e-05
4.10008e-05
4.03464e-05
3.97668e-05
3.94943e-05
3.94055e-05
3.95598e-05
3.97301e-05
3.9917e-05
4.00541e-05
4.01403e-05
4.01978e-05
4.02349e-05
4.02947e-05
4.03811e-05
4.05141e-05
4.06873e-05
4.09009e-05
4.11426e-05
4.14026e-05
4.16662e-05
4.19415e-05
4.22125e-05
4.23861e-05
4.25411e-05
4.27548e-05
4.28495e-05
4.29472e-05
4.29771e-05
4.2981e-05
4.29375e-05
4.28558e-05
4.27323e-05
4.257e-05
4.23686e-05
4.21293e-05
4.18525e-05
4.15399e-05
4.11929e-05
4.08129e-05
4.04006e-05
3.99548e-05
3.94362e-05
3.88065e-05
3.80076e-05
3.70267e-05
3.58557e-05
3.456e-05
3.32816e-05
3.21227e-05
3.24255e-05
3.38837e-05
3.58083e-05
3.79148e-05
3.93974e-05
3.98072e-05
3.99748e-05
3.98531e-05
3.7533e-05
3.41453e-05
3.00646e-05
2.57357e-05
2.1451e-05
1.66736e-05
1.06773e-05
3.49979e-06
3.92857e-08
2.99791e-07
1.3743e-05
3.01833e-05
3.94301e-05
4.37097e-05
4.51874e-05
4.5412e-05
4.53336e-05
4.53188e-05
4.53244e-05
4.48686e-05
4.41147e-05
4.34033e-05
4.25685e-05
4.18047e-05
4.09007e-05
4.04343e-05
4.01987e-05
4.0129e-05
4.01823e-05
4.02194e-05
4.02609e-05
4.02763e-05
4.02972e-05
4.03473e-05
4.04444e-05
4.06089e-05
4.08347e-05
4.11206e-05
4.14492e-05
4.18085e-05
4.21808e-05
4.25751e-05
4.29687e-05
4.33088e-05
4.35608e-05
4.38273e-05
4.41087e-05
4.43125e-05
4.44676e-05
4.45883e-05
4.46553e-05
4.46819e-05
4.46585e-05
4.45895e-05
4.44726e-05
4.43093e-05
4.40996e-05
4.38444e-05
4.35444e-05
4.32003e-05
4.28123e-05
4.23801e-05
4.1903e-05
4.13807e-05
4.08135e-05
4.02026e-05
3.9545e-05
3.87494e-05
3.77332e-05
3.64515e-05
3.4985e-05
3.34069e-05
3.19722e-05
3.11509e-05
3.24086e-05
3.42743e-05
3.66207e-05
3.82822e-05
3.87505e-05
3.88323e-05
3.84329e-05
3.56684e-05
3.1761e-05
2.7151e-05
2.22561e-05
1.71234e-05
1.0948e-05
3.64884e-06
4.07124e-08
3.73901e-07
1.56434e-05
3.33717e-05
4.28639e-05
4.69552e-05
4.81177e-05
4.80226e-05
4.76239e-05
4.72428e-05
4.66028e-05
4.56969e-05
4.49429e-05
4.40725e-05
4.31742e-05
4.20455e-05
4.1291e-05
4.0879e-05
4.06392e-05
4.05242e-05
4.04698e-05
4.04162e-05
4.03962e-05
4.04071e-05
4.04862e-05
4.06446e-05
4.08886e-05
4.12136e-05
4.1602e-05
4.20384e-05
4.25018e-05
4.29772e-05
4.34809e-05
4.3962e-05
4.43856e-05
4.4773e-05
4.51264e-05
4.54505e-05
4.57738e-05
4.60303e-05
4.62359e-05
4.63964e-05
4.65054e-05
4.65645e-05
4.65699e-05
4.65219e-05
4.64191e-05
4.62618e-05
4.60502e-05
4.5785e-05
4.54675e-05
4.50985e-05
4.46789e-05
4.42086e-05
4.36863e-05
4.31093e-05
4.24742e-05
4.1778e-05
4.1021e-05
4.02102e-05
3.93474e-05
3.82915e-05
3.69653e-05
3.53552e-05
3.35742e-05
3.18234e-05
3.0455e-05
3.11205e-05
3.29952e-05
3.54806e-05
3.72292e-05
3.76827e-05
3.76109e-05
3.67202e-05
3.34216e-05
2.90127e-05
2.37983e-05
1.81925e-05
1.17821e-05
4.1187e-06
4.67339e-08
4.53224e-07
1.74877e-05
3.63522e-05
4.60399e-05
4.99245e-05
5.07494e-05
5.02871e-05
4.94956e-05
4.85538e-05
4.74257e-05
4.66195e-05
4.55529e-05
4.45212e-05
4.32127e-05
4.21841e-05
4.15224e-05
4.11184e-05
4.08491e-05
4.06813e-05
4.05697e-05
4.0508e-05
4.05289e-05
4.06384e-05
4.08575e-05
4.11782e-05
4.15895e-05
4.20713e-05
4.26012e-05
4.31604e-05
4.37311e-05
4.4301e-05
4.48709e-05
4.54106e-05
4.59048e-05
4.63651e-05
4.68056e-05
4.71949e-05
4.75329e-05
4.78705e-05
4.81422e-05
4.83524e-05
4.85115e-05
4.86123e-05
4.86528e-05
4.86313e-05
4.85459e-05
4.83958e-05
4.81812e-05
4.79029e-05
4.75629e-05
4.71635e-05
4.67076e-05
4.61973e-05
4.56339e-05
4.50158e-05
4.43388e-05
4.35951e-05
4.27753e-05
4.18726e-05
4.08906e-05
3.98517e-05
3.86877e-05
3.72972e-05
3.5556e-05
3.36277e-05
3.16718e-05
3.00731e-05
3.0057e-05
3.19037e-05
3.44613e-05
3.61722e-05
3.64863e-05
3.6281e-05
3.4505e-05
3.07598e-05
2.56966e-05
1.98153e-05
1.30756e-05
4.99911e-06
6.12033e-08
5.35177e-07
1.92338e-05
3.90849e-05
4.89327e-05
5.25993e-05
5.30701e-05
5.22027e-05
5.0906e-05
4.94894e-05
4.85474e-05
4.71172e-05
4.59435e-05
4.44486e-05
4.31655e-05
4.22257e-05
4.16089e-05
4.1193e-05
4.09033e-05
4.07223e-05
4.06316e-05
4.06475e-05
4.0789e-05
4.1054e-05
4.144e-05
4.19234e-05
4.24829e-05
4.30939e-05
4.37354e-05
4.4391e-05
4.50471e-05
4.56942e-05
4.6324e-05
4.69238e-05
4.74956e-05
4.80564e-05
4.85718e-05
4.90383e-05
4.9444e-05
4.98036e-05
5.01825e-05
5.04548e-05
5.06694e-05
5.08211e-05
5.09026e-05
5.09129e-05
5.0848e-05
5.07067e-05
5.04881e-05
5.01929e-05
4.98232e-05
4.93826e-05
4.8876e-05
4.8309e-05
4.76871e-05
4.7014e-05
4.62902e-05
4.55106e-05
4.4663e-05
4.37289e-05
4.26872e-05
4.15259e-05
4.02622e-05
3.88508e-05
3.73178e-05
3.55597e-05
3.35044e-05
3.14411e-05
2.95849e-05
2.91555e-05
3.0925e-05
3.35662e-05
3.50373e-05
3.50801e-05
3.47148e-05
3.19559e-05
2.74105e-05
2.16098e-05
1.46546e-05
6.01704e-06
8.43804e-08
6.17372e-07
2.0844e-05
4.15449e-05
5.15323e-05
5.49704e-05
5.509e-05
5.37171e-05
5.20647e-05
5.0779e-05
4.89512e-05
4.75273e-05
4.58298e-05
4.4285e-05
4.30554e-05
4.21802e-05
4.15835e-05
4.11671e-05
4.08954e-05
4.07628e-05
4.07661e-05
4.09188e-05
4.12189e-05
4.16499e-05
4.21913e-05
4.28134e-05
4.34926e-05
4.42066e-05
4.49386e-05
4.56758e-05
4.64086e-05
4.71299e-05
4.78336e-05
4.85148e-05
4.91726e-05
4.98031e-05
5.04192e-05
5.09865e-05
5.14705e-05
5.18932e-05
5.23118e-05
5.26997e-05
5.29647e-05
5.31763e-05
5.33044e-05
5.33526e-05
5.33142e-05
5.31869e-05
5.29685e-05
5.26586e-05
5.22586e-05
5.17721e-05
5.12048e-05
5.05646e-05
4.98611e-05
4.91042e-05
4.83027e-05
4.74608e-05
4.65753e-05
4.56319e-05
4.46029e-05
4.34496e-05
4.2134e-05
4.07404e-05
3.90766e-05
3.71446e-05
3.52739e-05
3.32352e-05
3.10621e-05
2.89932e-05
2.83563e-05
3.00668e-05
3.26471e-05
3.39725e-05
3.34317e-05
3.23985e-05
2.86011e-05
2.31849e-05
1.62648e-05
7.063e-06
1.14223e-07
6.98149e-07
2.22718e-05
4.37323e-05
5.38764e-05
5.70051e-05
5.65935e-05
5.49916e-05
5.32587e-05
5.11528e-05
4.93611e-05
4.74373e-05
4.56114e-05
4.40688e-05
4.28976e-05
4.20692e-05
4.14953e-05
4.11131e-05
4.09099e-05
4.08823e-05
4.10265e-05
4.13393e-05
4.17996e-05
4.23798e-05
4.30516e-05
4.37866e-05
4.45637e-05
4.53649e-05
4.61783e-05
4.69945e-05
4.78067e-05
4.86098e-05
4.93991e-05
5.01703e-05
5.09192e-05
5.16397e-05
5.23391e-05
5.3013e-05
5.3591e-05
5.40739e-05
5.45405e-05
5.50419e-05
5.53643e-05
5.56379e-05
5.58182e-05
5.59103e-05
5.5906e-05
5.58014e-05
5.5593e-05
5.52784e-05
5.48574e-05
5.4332e-05
5.3707e-05
5.29903e-05
5.21933e-05
5.133e-05
5.04162e-05
4.94664e-05
4.84912e-05
4.74914e-05
4.64526e-05
4.53399e-05
4.40965e-05
4.2652e-05
4.11243e-05
3.92496e-05
3.6884e-05
3.48257e-05
3.28007e-05
3.05031e-05
2.82446e-05
2.76885e-05
2.93123e-05
3.14679e-05
3.23473e-05
3.15842e-05
2.91531e-05
2.43445e-05
1.7696e-05
8.00379e-06
1.4885e-07
7.75808e-07
2.35489e-05
4.56375e-05
5.57915e-05
5.85396e-05
5.79988e-05
5.63853e-05
5.40735e-05
5.15531e-05
4.93562e-05
4.72244e-05
4.53357e-05
4.38241e-05
4.2709e-05
4.19252e-05
4.1398e-05
4.10926e-05
4.1002e-05
4.1115e-05
4.14164e-05
4.18848e-05
4.24875e-05
4.3193e-05
4.39725e-05
4.48022e-05
4.56651e-05
4.65481e-05
4.74425e-05
4.83415e-05
4.92398e-05
5.01324e-05
5.10142e-05
5.18795e-05
5.27222e-05
5.35353e-05
5.43169e-05
5.50873e-05
5.57627e-05
5.63097e-05
5.68396e-05
5.74135e-05
5.78123e-05
5.81433e-05
5.83795e-05
5.852e-05
5.85571e-05
5.84855e-05
5.82997e-05
5.79958e-05
5.7571e-05
5.70246e-05
5.63591e-05
5.55801e-05
5.46979e-05
5.37271e-05
5.26868e-05
5.15989e-05
5.04857e-05
4.93652e-05
4.82443e-05
4.71105e-05
4.59234e-05
4.46075e-05
4.30539e-05
4.14115e-05
3.91187e-05
3.65266e-05
3.42417e-05
3.21905e-05
2.96944e-05
2.72337e-05
2.71177e-05
2.88425e-05
3.02533e-05
3.0323e-05
2.91966e-05
2.50623e-05
1.88079e-05
8.76387e-06
1.866e-07
8.47322e-07
2.46355e-05
4.71681e-05
5.72697e-05
5.97823e-05
5.9414e-05
5.72174e-05
5.43694e-05
5.17693e-05
4.92116e-05
4.69397e-05
4.50338e-05
4.35681e-05
4.251e-05
4.17842e-05
4.13363e-05
4.11445e-05
4.11933e-05
4.14583e-05
4.19106e-05
4.25166e-05
4.32401e-05
4.40505e-05
4.49225e-05
4.58374e-05
4.67822e-05
4.77474e-05
4.87264e-05
4.97133e-05
5.07025e-05
5.1688e-05
5.26632e-05
5.3621e-05
5.45537e-05
5.54537e-05
5.63134e-05
5.71703e-05
5.79327e-05
5.85412e-05
5.91314e-05
5.97585e-05
6.02365e-05
6.06203e-05
6.09119e-05
6.11029e-05
6.11867e-05
6.11568e-05
6.10065e-05
6.07297e-05
6.03215e-05
5.97781e-05
5.90985e-05
5.82846e-05
5.73431e-05
5.62858e-05
5.51308e-05
5.39025e-05
5.26299e-05
5.13437e-05
5.00706e-05
4.88248e-05
4.75976e-05
4.63453e-05
4.4978e-05
4.33539e-05
4.14243e-05
3.87551e-05
3.59843e-05
3.35371e-05
3.13719e-05
2.85247e-05
2.60236e-05
2.64043e-05
2.82772e-05
2.93074e-05
2.81558e-05
2.52904e-05
1.95566e-05
9.3379e-06
2.26234e-07
9.10153e-07
2.55055e-05
4.83198e-05
5.83825e-05
6.10101e-05
6.04271e-05
5.79013e-05
5.47542e-05
5.17315e-05
4.89752e-05
4.66185e-05
4.47262e-05
4.33158e-05
4.23228e-05
4.16769e-05
4.13382e-05
4.12823e-05
4.14786e-05
4.18892e-05
4.24758e-05
4.31996e-05
4.40259e-05
4.49275e-05
4.58838e-05
4.68805e-05
4.79076e-05
4.89577e-05
5.00245e-05
5.11015e-05
5.21818e-05
5.32578e-05
5.43214e-05
5.5364e-05
5.63771e-05
5.73528e-05
5.82834e-05
5.92104e-05
6.00498e-05
6.07104e-05
6.13485e-05
6.20182e-05
6.25675e-05
6.29991e-05
6.33421e-05
6.35826e-05
6.37154e-05
6.37329e-05
6.36278e-05
6.33927e-05
6.30203e-05
6.25042e-05
6.18396e-05
6.10241e-05
6.00592e-05
5.89517e-05
5.77152e-05
5.63714e-05
5.49502e-05
5.34886e-05
5.20265e-05
5.05996e-05
4.92289e-05
4.79072e-05
4.6583e-05
4.51446e-05
4.34039e-05
4.11308e-05
3.81786e-05
3.52611e-05
3.2716e-05
3.0315e-05
2.71887e-05
2.50904e-05
2.57198e-05
2.6906e-05
2.70696e-05
2.52071e-05
1.99491e-05
9.69703e-06
2.67606e-07
9.62923e-07
2.61657e-05
4.91447e-05
5.9256e-05
6.19225e-05
6.11542e-05
5.82011e-05
5.48674e-05
5.15892e-05
4.86841e-05
4.62847e-05
4.44268e-05
4.30807e-05
4.21665e-05
4.16229e-05
4.14132e-05
4.15002e-05
4.1838e-05
4.23796e-05
4.30824e-05
4.39076e-05
4.48242e-05
4.58094e-05
4.68466e-05
4.79248e-05
4.90356e-05
5.0172e-05
5.13266e-05
5.24914e-05
5.36579e-05
5.48166e-05
5.59583e-05
5.70736e-05
5.81539e-05
5.91913e-05
6.01786e-05
6.11573e-05
6.20644e-05
6.27689e-05
6.34392e-05
6.41384e-05
6.47498e-05
6.52224e-05
6.56102e-05
6.58967e-05
6.60771e-05
6.61441e-05
6.609e-05
6.59065e-05
6.5585e-05
6.51168e-05
6.44937e-05
6.3709e-05
6.27588e-05
6.16436e-05
6.037e-05
5.89535e-05
5.74197e-05
5.58052e-05
5.4156e-05
5.25227e-05
5.09514e-05
4.94704e-05
4.80741e-05
4.67049e-05
4.52315e-05
4.32732e-05
4.04605e-05
3.73627e-05
3.43876e-05
3.17138e-05
2.89067e-05
2.54635e-05
2.43612e-05
2.53272e-05
2.60215e-05
2.45356e-05
1.99892e-05
9.85519e-06
3.10289e-07
1.00488e-06
2.66184e-05
4.96965e-05
5.98457e-05
6.26027e-05
6.16757e-05
5.85793e-05
5.48754e-05
5.13772e-05
4.83651e-05
4.59545e-05
4.4146e-05
4.28742e-05
4.20541e-05
4.16298e-05
4.15568e-05
4.17819e-05
4.22482e-05
4.29047e-05
4.37083e-05
4.46231e-05
4.56224e-05
4.66872e-05
4.78042e-05
4.89641e-05
5.01586e-05
5.13795e-05
5.26178e-05
5.38636e-05
5.51066e-05
5.63363e-05
5.75428e-05
5.87166e-05
5.98496e-05
6.09345e-05
6.19652e-05
6.2969e-05
6.39194e-05
6.46883e-05
6.53665e-05
6.60806e-05
6.67448e-05
6.72507e-05
6.76753e-05
6.80017e-05
6.82256e-05
6.83404e-05
6.83385e-05
6.82116e-05
6.79503e-05
6.75445e-05
6.69834e-05
6.62569e-05
6.53558e-05
6.4274e-05
6.30105e-05
6.1572e-05
5.99758e-05
5.82523e-05
5.64459e-05
5.46132e-05
5.28162e-05
5.11104e-05
4.95276e-05
4.80576e-05
4.66322e-05
4.51154e-05
4.27575e-05
3.95105e-05
3.64184e-05
3.32858e-05
3.04545e-05
2.70119e-05
2.37506e-05
2.34424e-05
2.37784e-05
2.35137e-05
1.98652e-05
9.99452e-06
3.57114e-07
1.03589e-06
2.68811e-05
5.00059e-05
6.01811e-05
6.31092e-05
6.19261e-05
5.86982e-05
5.47889e-05
5.11209e-05
4.80371e-05
4.56384e-05
4.38911e-05
4.27041e-05
4.19912e-05
4.16946e-05
4.1756e-05
4.21083e-05
4.26886e-05
4.34456e-05
4.43384e-05
4.53349e-05
4.64123e-05
4.75546e-05
4.87505e-05
4.99907e-05
5.12658e-05
5.25659e-05
5.38799e-05
5.51963e-05
5.65034e-05
5.77902e-05
5.90468e-05
6.02644e-05
6.14355e-05
6.25538e-05
6.36143e-05
6.46247e-05
6.5607e-05
6.64406e-05
6.71096e-05
6.78234e-05
6.85316e-05
6.9063e-05
6.95157e-05
6.98744e-05
7.01355e-05
7.02933e-05
7.03409e-05
7.02706e-05
7.00729e-05
6.97372e-05
6.92514e-05
6.86025e-05
6.77774e-05
6.6764e-05
6.55536e-05
6.41436e-05
6.25405e-05
6.07644e-05
5.88519e-05
5.68578e-05
5.48515e-05
5.29086e-05
5.10931e-05
4.94337e-05
4.78965e-05
4.63598e-05
4.45939e-05
4.17699e-05
3.84502e-05
3.51856e-05
3.1838e-05
2.87431e-05
2.46927e-05
2.2692e-05
2.27011e-05
2.2774e-05
1.97401e-05
1.0347e-05
4.17183e-07
1.05649e-06
2.69781e-05
5.00609e-05
6.02311e-05
6.3278e-05
6.21979e-05
5.87251e-05
5.46374e-05
5.08401e-05
4.77132e-05
4.53437e-05
4.36669e-05
4.2574e-05
4.19766e-05
4.18084e-05
4.19958e-05
4.2462e-05
4.31429e-05
4.39891e-05
4.49628e-05
4.60356e-05
4.71879e-05
4.84057e-05
4.96781e-05
5.09947e-05
5.23445e-05
5.37152e-05
5.50941e-05
5.64684e-05
5.78258e-05
5.91554e-05
6.04479e-05
6.16953e-05
6.2891e-05
6.40299e-05
6.51074e-05
6.61199e-05
6.71194e-05
6.80074e-05
6.86618e-05
6.93613e-05
7.01047e-05
7.06549e-05
7.11269e-05
7.15097e-05
7.18002e-05
7.19939e-05
7.20851e-05
7.20671e-05
7.19312e-05
7.16671e-05
7.12622e-05
7.07021e-05
6.99707e-05
6.90516e-05
6.79292e-05
6.65916e-05
6.50343e-05
6.32645e-05
6.13061e-05
5.92043e-05
5.70269e-05
5.48596e-05
5.27943e-05
5.09063e-05
4.92278e-05
4.77187e-05
4.62431e-05
4.38454e-05
4.04605e-05
3.72032e-05
3.36782e-05
3.00506e-05
2.63018e-05
2.23973e-05
2.14181e-05
2.12177e-05
1.94366e-05
1.09809e-05
4.98214e-07
1.06669e-06
2.69056e-05
4.98571e-05
6.01584e-05
6.34103e-05
6.22282e-05
5.86593e-05
5.44407e-05
5.05497e-05
4.74025e-05
4.50747e-05
4.34759e-05
4.24838e-05
4.20047e-05
4.19598e-05
4.22618e-05
4.28293e-05
4.35996e-05
4.45262e-05
4.55745e-05
4.67194e-05
4.79436e-05
4.92337e-05
5.05782e-05
5.19649e-05
5.33806e-05
5.48114e-05
5.62429e-05
5.76618e-05
5.9056e-05
6.04151e-05
6.17308e-05
6.2996e-05
6.42054e-05
6.53543e-05
6.64388e-05
6.7455e-05
6.84537e-05
6.93863e-05
7.00318e-05
7.0703e-05
7.14704e-05
7.20345e-05
7.25181e-05
7.29166e-05
7.3228e-05
7.34491e-05
7.35757e-05
7.36027e-05
7.35226e-05
7.33261e-05
7.30012e-05
7.25331e-05
7.19043e-05
7.10953e-05
7.00852e-05
6.88545e-05
6.73878e-05
6.5679e-05
6.37367e-05
6.15911e-05
5.92989e-05
5.69441e-05
5.463e-05
5.24595e-05
5.05047e-05
4.87708e-05
4.71666e-05
4.54825e-05
4.24944e-05
3.89937e-05
3.55421e-05
3.18268e-05
2.79001e-05
2.33302e-05
2.09948e-05
1.97646e-05
1.89424e-05
1.16611e-05
5.99843e-07
1.066e-06
2.67328e-05
4.96021e-05
5.99331e-05
6.34012e-05
6.21546e-05
5.85229e-05
5.42149e-05
5.02608e-05
4.71112e-05
4.48339e-05
4.33184e-05
4.24305e-05
4.20679e-05
4.21375e-05
4.25424e-05
4.32e-05
4.40505e-05
4.50504e-05
4.61681e-05
4.73812e-05
4.86733e-05
5.0031e-05
5.14412e-05
5.28895e-05
5.4361e-05
5.584e-05
5.73118e-05
5.87628e-05
6.01816e-05
6.15589e-05
6.28875e-05
6.41616e-05
6.5377e-05
6.653e-05
6.76179e-05
6.86386e-05
6.9615e-05
7.05576e-05
7.12459e-05
7.1874e-05
7.26412e-05
7.32189e-05
7.37073e-05
7.41138e-05
7.44376e-05
7.4677e-05
7.48298e-05
7.48922e-05
7.48589e-05
7.4722e-05
7.44708e-05
7.40914e-05
7.3566e-05
7.28735e-05
7.19897e-05
7.0889e-05
6.9547e-05
6.79449e-05
6.60754e-05
6.39508e-05
6.16113e-05
5.91305e-05
5.66149e-05
5.41911e-05
5.19774e-05
5.00442e-05
4.83739e-05
4.68381e-05
4.43951e-05
4.07915e-05
3.75045e-05
3.3416e-05
2.92551e-05
2.48439e-05
2.08822e-05
1.92585e-05
1.85293e-05
1.22829e-05
7.17893e-07
1.06028e-06
2.64636e-05
4.91708e-05
5.95125e-05
6.31802e-05
6.19775e-05
5.83308e-05
5.39724e-05
4.99818e-05
4.68432e-05
4.46225e-05
4.3193e-05
4.24094e-05
4.21577e-05
4.23319e-05
4.28286e-05
4.35668e-05
4.44896e-05
4.55567e-05
4.6739e-05
4.80158e-05
4.93708e-05
5.07897e-05
5.22574e-05
5.37577e-05
5.5274e-05
5.67898e-05
5.82901e-05
5.97622e-05
6.11956e-05
6.25822e-05
6.39161e-05
6.51928e-05
6.64089e-05
6.75618e-05
6.86492e-05
6.96695e-05
7.06217e-05
7.1565e-05
7.23065e-05
7.28996e-05
7.36356e-05
7.42298e-05
7.47181e-05
7.51256e-05
7.54538e-05
7.57027e-05
7.58718e-05
7.59593e-05
7.59618e-05
7.58738e-05
7.56865e-05
7.53874e-05
7.49598e-05
7.43823e-05
7.36292e-05
7.26707e-05
7.14756e-05
7.00142e-05
6.82643e-05
6.62192e-05
6.38979e-05
6.13549e-05
5.86862e-05
5.60238e-05
5.35134e-05
5.12725e-05
4.93372e-05
4.7614e-05
4.58518e-05
4.2644e-05
3.90656e-05
3.53866e-05
3.09393e-05
2.63112e-05
2.10967e-05
1.87652e-05
1.75259e-05
1.29256e-05
8.39953e-07
1.04768e-06
2.61375e-05
4.84827e-05
5.89804e-05
6.28256e-05
6.17126e-05
5.80953e-05
5.37228e-05
4.97184e-05
4.66013e-05
4.44403e-05
4.30972e-05
4.2415e-05
4.22667e-05
4.2535e-05
4.31137e-05
4.3924e-05
4.49124e-05
4.60409e-05
4.72827e-05
4.86177e-05
5.00294e-05
5.15019e-05
5.30181e-05
5.45603e-05
5.61106e-05
5.76525e-05
5.91714e-05
6.06554e-05
6.20955e-05
6.34849e-05
6.4819e-05
6.60942e-05
6.7308e-05
6.8458e-05
6.95418e-05
7.05568e-05
7.14997e-05
7.24327e-05
7.32274e-05
7.37885e-05
7.44847e-05
7.50907e-05
7.55753e-05
7.5978e-05
7.63036e-05
7.65536e-05
7.67295e-05
7.68315e-05
7.68585e-05
7.68074e-05
7.66717e-05
7.64412e-05
7.61011e-05
7.5631e-05
7.50051e-05
7.41917e-05
7.31547e-05
7.18561e-05
7.02609e-05
6.83444e-05
6.61032e-05
6.35685e-05
6.08174e-05
5.79772e-05
5.52131e-05
5.26921e-05
5.05277e-05
4.87213e-05
4.71172e-05
4.43183e-05
4.05663e-05
3.7355e-05
3.2383e-05
2.76059e-05
2.23918e-05
1.86377e-05
1.63889e-05
1.34178e-05
9.38128e-07
1.02806e-06
2.57142e-05
4.77261e-05
5.83544e-05
6.23543e-05
6.13731e-05
5.78268e-05
5.34732e-05
4.9475e-05
4.63869e-05
4.42866e-05
4.30281e-05
4.2442e-05
4.23884e-05
4.27408e-05
4.33925e-05
4.42674e-05
4.53149e-05
4.64992e-05
4.77947e-05
4.91818e-05
5.06429e-05
5.21604e-05
5.37158e-05
5.52899e-05
5.68645e-05
5.84232e-05
5.99523e-05
6.14413e-05
6.28825e-05
6.42705e-05
6.56018e-05
6.68738e-05
6.80842e-05
6.9231e-05
7.03115e-05
7.13227e-05
7.2261e-05
7.31757e-05
7.40149e-05
7.4561e-05
7.52125e-05
7.58244e-05
7.63025e-05
7.6696e-05
7.70129e-05
7.72567e-05
7.74307e-05
7.75372e-05
7.75775e-05
7.75509e-05
7.74538e-05
7.72785e-05
7.70128e-05
7.66383e-05
7.61304e-05
7.54571e-05
7.458e-05
7.34552e-05
7.20374e-05
7.02863e-05
6.81768e-05
6.57134e-05
6.29464e-05
5.99845e-05
5.69924e-05
5.41639e-05
5.16655e-05
4.95675e-05
4.77986e-05
4.56997e-05
4.19577e-05
3.88693e-05
3.43583e-05
2.91214e-05
2.37629e-05
1.90927e-05
1.57422e-05
1.36145e-05
9.83182e-07
1.00256e-06
2.51884e-05
4.68579e-05
5.76314e-05
6.17878e-05
6.09715e-05
5.75336e-05
5.32294e-05
4.92546e-05
4.62007e-05
4.41602e-05
4.29823e-05
4.24855e-05
4.25172e-05
4.29445e-05
4.3661e-05
4.45935e-05
4.56937e-05
4.69276e-05
4.82707e-05
4.97028e-05
5.12055e-05
5.27595e-05
5.43449e-05
5.59418e-05
5.7532e-05
5.90998e-05
6.06327e-05
6.21216e-05
6.35602e-05
6.49445e-05
6.6272e-05
6.75406e-05
6.87487e-05
6.9894e-05
7.09739e-05
7.19854e-05
7.29253e-05
7.38159e-05
7.46739e-05
7.52388e-05
7.58392e-05
7.64507e-05
7.69203e-05
7.73011e-05
7.76045e-05
7.7836e-05
7.80006e-05
7.81026e-05
7.81459e-05
7.81322e-05
7.80607e-05
7.79268e-05
7.77211e-05
7.74282e-05
7.70253e-05
7.64819e-05
7.57589e-05
7.48093e-05
7.35807e-05
7.20197e-05
7.00821e-05
6.77462e-05
6.50322e-05
6.20218e-05
5.88682e-05
5.57821e-05
5.2981e-05
5.06055e-05
4.86348e-05
4.68478e-05
4.35657e-05
4.01994e-05
3.63661e-05
3.03997e-05
2.48533e-05
1.90709e-05
1.58732e-05
1.36032e-05
9.90903e-07
9.72626e-07
2.46293e-05
4.59035e-05
5.68195e-05
6.11422e-05
6.05189e-05
5.72226e-05
5.29953e-05
4.90591e-05
4.6043e-05
4.40595e-05
4.29565e-05
4.25411e-05
4.2649e-05
4.31423e-05
4.39159e-05
4.48992e-05
4.60456e-05
4.73228e-05
4.87066e-05
5.01765e-05
5.17127e-05
5.32946e-05
5.49013e-05
5.65129e-05
5.81115e-05
5.96823e-05
6.12143e-05
6.26997e-05
6.41338e-05
6.55136e-05
6.68374e-05
6.81039e-05
6.93115e-05
7.04578e-05
7.154e-05
7.25547e-05
7.34983e-05
7.43683e-05
7.52307e-05
7.58252e-05
7.63788e-05
7.69852e-05
7.74446e-05
7.78105e-05
7.80969e-05
7.83112e-05
7.84601e-05
7.85502e-05
7.85874e-05
7.85761e-05
7.85183e-05
7.84126e-05
7.82527e-05
7.80263e-05
7.77137e-05
7.72865e-05
7.67069e-05
7.59268e-05
7.48892e-05
7.35318e-05
7.17938e-05
6.96295e-05
6.70274e-05
6.4035e-05
6.07797e-05
5.74705e-05