/*--------------------------------*- C++ -*----------------------------------*\
  =========                 |
  \\      /  F ield         | OpenFOAM: The Open Source CFD Toolbox
   \\    /   O peration     | Website:  https://openfoam.org
    \\  /    A nd           | Version:  13
     \\/     M anipulation  |
\*---------------------------------------------------------------------------*/
FoamFile
{
    format      ascii;
    class       volScalarField;
    location    "8.2";
    object      p;
}
// * * * * * * * * * * * * * * * * * * * * * * * * * * * * * * * * * * * * * //

dimensions      [0 2 -2 0 0 0 0];

internalField   nonuniform List<scalar> 
6400
(
3.6907e-09
2.01707e-05
2.92624e-05
1.38433e-05
-3.1351e-05
-0.000101081
-0.000185496
-0.000275304
-0.000364147
-0.000448844
-0.000530142
-0.000612335
-0.00070016
-0.000798828
-0.000913582
-0.00104856
-0.00120675
-0.0013898
-0.00159899
-0.00183497
-0.00209814
-0.00238993
-0.00271328
-0.00307278
-0.00347489
-0.00392448
-0.0044159
-0.00494013
-0.00547409
-0.00598338
-0.00646338
-0.00692202
-0.00735744
-0.0077669
-0.00814496
-0.00848282
-0.00876893
-0.00899001
-0.0091321
-0.00918138
-0.00912468
-0.00895082
-0.00865179
-0.00822359
-0.00766401
-0.00696493
-0.00611829
-0.00514268
-0.00405496
-0.00286214
-0.00158497
-0.000244784
0.00112922
0.00250444
0.00384028
0.00509164
0.00621451
0.00716751
0.0079114
0.00841532
0.00866138
0.00864803
0.00838947
0.0079044
0.0072578
0.00649855
0.00569236
0.00490214
0.00418427
0.00356854
0.00308936
0.00275699
0.00254121
0.00241664
0.00236344
0.00235816
0.00238165
0.00241876
0.00245889
0.00248613
-1.52661e-05
5.30661e-06
9.65051e-06
-1.08343e-05
-5.89314e-05
-0.000128603
-0.000209006
-0.000291476
-0.000370989
-0.000446217
-0.000519256
-0.000594232
-0.000676019
-0.00076943
-0.000878363
-0.0010064
-0.00115686
-0.00133225
-0.00153315
-0.00175977
-0.00201107
-0.00228763
-0.00259272
-0.00292891
-0.00329939
-0.00371159
-0.0041729
-0.00468161
-0.00522347
-0.00577394
-0.00630527
-0.00680844
-0.00728547
-0.00773328
-0.00814604
-0.00851492
-0.00882864
-0.00907452
-0.00923942
-0.00931073
-0.00927646
-0.00912657
-0.00885343
-0.00845132
-0.00791551
-0.00724225
-0.00643841
-0.00551167
-0.00446399
-0.00331328
-0.00207744
-0.000779813
0.000551599
0.00188331
0.00317769
0.00439464
0.0054916
0.00642708
0.0071654
0.0076767
0.00794267
0.00796064
0.00774346
0.00731763
0.00672994
0.00603489
0.005294
0.00456629
0.00390468
0.0033504
0.00292143
0.00262487
0.00244714
0.00236464
0.00235294
0.00238428
0.00242796
0.00246685
0.00249935
0.00252507
-3.1641e-05
-8.86095e-06
-1.02875e-05
-4.00807e-05
-9.62973e-05
-0.000168555
-0.000244979
-0.000317324
-0.000382939
-0.000443494
-0.000502761
-0.000565763
-0.000637583
-0.000722036
-0.000821649
-0.000938259
-0.00107342
-0.00122939
-0.00140839
-0.0016132
-0.00184743
-0.00211429
-0.00241817
-0.00276406
-0.00315621
-0.00359716
-0.00408736
-0.0046227
-0.00519213
-0.00577795
-0.00636021
-0.00692309
-0.00745739
-0.00795659
-0.00841368
-0.0088195
-0.00916373
-0.00943537
-0.0096227
-0.00971432
-0.00970008
-0.00957117
-0.00932059
-0.00894323
-0.00843615
-0.00779882
-0.00702772
-0.00613569
-0.00512913
-0.00402104
-0.00282822
-0.00157238
-0.000280102
0.00101733
0.00228453
0.00348336
0.00457221
0.00551021
0.00626231
0.00679976
0.00710335
0.00716822
0.00700643
0.00664432
0.00612452
0.00549947
0.00482424
0.00416187
0.00355927
0.00305335
0.00266842
0.00241758
0.00228837
0.00225175
0.00227699
0.0023395
0.00240925
0.00246737
0.00251476
0.00255189
-4.03455e-05
-1.8648e-05
-2.7683e-05
-6.8799e-05
-0.000135231
-0.000210667
-0.00028339
-0.000346804
-0.000399536
-0.000443892
-0.000486111
-0.000532992
-0.000590119
-0.000661268
-0.000748186
-0.000851673
-0.000973106
-0.0011153
-0.00128216
-0.00147928
-0.00171382
-0.00199371
-0.0023263
-0.00271421
-0.00315979
-0.00366425
-0.00422348
-0.00482685
-0.00545853
-0.00610176
-0.00674001
-0.00735805
-0.00794365
-0.00848773
-0.00898182
-0.00941665
-0.00978325
-0.0100719
-0.0102724
-0.0103751
-0.0103712
-0.0102531
-0.0100145
-0.00965136
-0.00916202
-0.00854449
-0.00780041
-0.00693525
-0.00595639
-0.00487589
-0.00370948
-0.00247738
-0.00120394
8.22632e-05
0.00134781
0.00255465
0.00366239
0.00463103
0.00542362
0.00601048
0.00637062
0.00649522
0.00639391
0.00609292
0.00563169
0.00505935
0.00443277
0.00381086
0.00324379
0.00276929
0.00241124
0.00218028
0.00206873
0.00206026
0.00212466
0.00222194
0.00232366
0.00241217
0.00248356
0.00253315
-3.45292e-05
-2.05013e-05
-3.97723e-05
-9.25181e-05
-0.000168565
-0.0002469
-0.00031594
-0.000370584
-0.000410836
-0.000441081
-0.000468608
-0.000501106
-0.000544615
-0.000602857
-0.000677999
-0.000771877
-0.000887619
-0.00103097
-0.00120905
-0.00143008
-0.00170386
-0.00203608
-0.00243152
-0.0028945
-0.00342432
-0.00401499
-0.00465623
-0.00533341
-0.00602897
-0.00672664
-0.00741099
-0.00806949
-0.0086915
-0.00926656
-0.00978555
-0.0102397
-0.0106205
-0.0109191
-0.0111272
-0.0112365
-0.0112396
-0.0111301
-0.0109022
-0.010552
-0.0100791
-0.00948275
-0.00876372
-0.0079248
-0.0069723
-0.00591727
-0.00477484
-0.0035632
-0.0023035
-0.00102045
0.000254327
0.00148193
0.00262319
0.0036403
0.00449535
0.00515602
0.00559883
0.00581036
0.00579399
0.0055713
0.00518225
0.00467364
0.0040999
0.00351843
0.00298147
0.00252912
0.00218798
0.00196827
0.00186623
0.00186554
0.00194074
0.00205867
0.00218623
0.00230256
0.00239671
0.00245566
-5.36124e-06
-5.54804e-06
-3.73805e-05
-0.00010408
-0.000188359
-0.000267814
-0.000332822
-0.000379757
-0.000409891
-0.000429305
-0.000446455
-0.000469462
-0.000504532
-0.000556073
-0.000627936
-0.000724602
-0.000852635
-0.00102087
-0.00124025
-0.00151793
-0.00186156
-0.00227847
-0.00277017
-0.00333354
-0.00395973
-0.00463669
-0.00535221
-0.00609227
-0.00684142
-0.00758442
-0.00830709
-0.0089978
-0.00964634
-0.0102431
-0.0107797
-0.0112475
-0.0116378
-0.0119434
-0.0121575
-0.0122733
-0.0122841
-0.0121861
-0.0119734
-0.0116421
-0.011195
-0.0106291
-0.0099443
-0.00914266
-0.00822855
-0.00721083
-0.00610337
-0.00492056
-0.00367931
-0.00240099
-0.00111784
0.000131467
0.00131231
0.00239062
0.00332567
0.00408212
0.00463548
0.00496616
0.00507237
0.00496564
0.00468098
0.00426569
0.00377152
0.0032523
0.00276052
0.00233913
0.00201722
0.00180799
0.00170979
0.00170904
0.0017824
0.00190169
0.00203648
0.00216353
0.0022676
0.00232978
5.75601e-05
3.96356e-05
-8.68028e-06
-9.23599e-05
-0.000181984
-0.000261813
-0.000323603
-0.00036508
-0.000389489
-0.000404139
-0.000418054
-0.000439635
-0.000475746
-0.000532553
-0.000616951
-0.000736587
-0.000901813
-0.00112445
-0.00141286
-0.00177582
-0.00221989
-0.00274611
-0.00334576
-0.00400816
-0.00472323
-0.00547897
-0.00626163
-0.00705726
-0.00785215
-0.00863292
-0.00938699
-0.0101035
-0.0107728
-0.0113862
-0.0119357
-0.0124127
-0.0128085
-0.0131186
-0.0133375
-0.0134601
-0.0134833
-0.0134018
-0.0132115
-0.0129089
-0.0124951
-0.0119653
-0.0113211
-0.0105663
-0.00970591
-0.00874594
-0.00769202
-0.00655504
-0.00535074
-0.00410152
-0.00283229
-0.00157052
-0.000346515
0.000802696
0.00182952
0.00270231
0.00339397
0.00387682
0.00414491
0.00420001
0.00406671
0.0037863
0.00340841
0.00298464
0.00256507
0.00219396
0.0019032
0.00170934
0.00161397
0.00160906
0.00167173
0.00177928
0.00190442
0.00202402
0.00212278
0.00217986
0.000164422
0.00012581
5.54354e-05
-4.22231e-05
-0.000137416
-0.000218665
-0.000279385
-0.000319774
-0.000344793
-0.000362836
-0.000383363
-0.00041522
-0.000466639
-0.000546628
-0.000665125
-0.000833619
-0.00106402
-0.00136802
-0.00175408
-0.00222847
-0.00278775
-0.00342359
-0.00412553
-0.00488187
-0.0056797
-0.00650608
-0.00734773
-0.00819177
-0.00902573
-0.0098377
-0.0106166
-0.0113527
-0.0120366
-0.0126594
-0.0132136
-0.0136913
-0.0140894
-0.0144046
-0.0146314
-0.0147656
-0.0148038
-0.0147399
-0.0145719
-0.0142984
-0.0139158
-0.0134247
-0.0128269
-0.0121259
-0.0113264
-0.010432
-0.00944483
-0.00837351
-0.00723201
-0.00603804
-0.00480854
-0.00356098
-0.00232351
-0.00113329
-2.07288e-05
0.000985064
0.00183269
0.0024961
0.0029628
0.00322308
0.00329033
0.00319307
0.00297504
0.00268539
0.00237107
0.00207645
0.00183556
0.0016686
0.00158157
0.00156881
0.00161547
0.00170286
0.00180577
0.0019052
0.00198412
0.00202662
0.000320611
0.000261132
0.000165805
5.42152e-05
-4.76552e-05
-0.000131856
-0.000195383
-0.000240639
-0.000274448
-0.000306201
-0.00034586
-0.000403162
-0.000488408
-0.000613681
-0.000792271
-0.00103629
-0.00135854
-0.00177034
-0.00227456
-0.00286688
-0.00354007
-0.00428261
-0.00508139
-0.00592298
-0.00679424
-0.00768226
-0.00857468
-0.00945949
-0.0103253
-0.0111612
-0.0119573
-0.0127045
-0.0133936
-0.0140171
-0.0145695
-0.015049
-0.0154541
-0.0157776
-0.016014
-0.0161585
-0.0162063
-0.0161565
-0.0160083
-0.0157611
-0.0154111
-0.0149611
-0.0144118
-0.013765
-0.0130229
-0.012189
-0.0112695
-0.0102711
-0.00920406
-0.00808117
-0.0069149
-0.00571529
-0.00450122
-0.00329838
-0.00212822
-0.00103228
-4.35424e-05
0.000818562
0.00150399
0.00200175
0.00231151
0.0024464
0.00243506
0.00232165
0.00214924
0.00196013
0.00179161
0.00166745
0.00159805
0.00158225
0.00161099
0.00167052
0.00174309
0.00181337
0.00186168
0.00188524
0.000533623
0.000450877
0.000327886
0.000200969
8.98164e-05
-4.89526e-07
-7.17936e-05
-0.000129373
-0.000181914
-0.000239766
-0.00031358
-0.000414372
-0.000555008
-0.000750387
-0.00101434
-0.0013591
-0.00179647
-0.00233061
-0.0029574
-0.00366831
-0.00445179
-0.00529341
-0.00617964
-0.0070968
-0.00803206
-0.00897289
-0.0099076
-0.0108249
-0.0117143
-0.012566
-0.013371
-0.0141213
-0.0148108
-0.0154351
-0.0159895
-0.0164702
-0.0168714
-0.0171887
-0.0174196
-0.0175629
-0.0176164
-0.0175787
-0.0174493
-0.0172277
-0.0169119
-0.0165033
-0.0160033
-0.0154132
-0.0147348
-0.0139708
-0.0131254
-0.0122036
-0.0112118
-0.0101569
-0.00904759
-0.00789821
-0.00672676
-0.00554834
-0.00437483
-0.00322786
-0.00212952
-0.00111811
-0.00022713
0.000524148
0.00110158
0.00150754
0.00174947
0.00185625
0.00186576
0.00181535
0.00174302
0.00167923
0.00163972
0.00162865
0.00164181
0.00167207
0.00170991
0.00174361
0.00175827
0.00176297
0.000805779
0.000693904
0.000541948
0.000394493
0.00027203
0.000171082
8.56057e-05
6.81101e-06
-7.59504e-05
-0.000173986
-0.000298735
-0.00046307
-0.000681995
-0.000970859
-0.00134278
-0.00180812
-0.00237242
-0.00303382
-0.00378311
-0.00460746
-0.00549284
-0.00642443
-0.0073885
-0.00837156
-0.00936111
-0.0103451
-0.0113124
-0.0122526
-0.0131562
-0.0140148
-0.0148207
-0.0155676
-0.0162507
-0.0168655
-0.0174085
-0.0178768
-0.0182665
-0.0185749
-0.0188006
-0.0189426
-0.0189999
-0.0189718
-0.0188579
-0.018658
-0.0183718
-0.0180001
-0.0175442
-0.0170058
-0.0163865
-0.0156889
-0.014916
-0.0140715
-0.0131597
-0.0121846
-0.0111513
-0.0100674
-0.00894244
-0.00778737
-0.00662101
-0.00546175
-0.0043184
-0.0032082
-0.00215158
-0.00118821
-0.00034373
0.000347781
0.000876842
0.00124713
0.00148085
0.00160804
0.00166144
0.00167637
0.0016791
0.00168105
0.00168485
0.00168828
0.00169067
0.00168528
0.00166804
0.00165625
0.00112503
0.000983366
0.00079608
0.000625199
0.000488029
0.000372153
0.000265272
0.0001553
2.98008e-05
-0.000123332
-0.000316747
-0.000564599
-0.000882505
-0.00128456
-0.00178109
-0.00237782
-0.0030742
-0.00386198
-0.00472782
-0.00565729
-0.00663516
-0.00764675
-0.00867825
-0.00971646
-0.0107491
-0.0117649
-0.0127533
-0.013705
-0.014612
-0.0154671
-0.0162643
-0.0169988
-0.0176668
-0.0182651
-0.0187913
-0.0192432
-0.0196189
-0.0199167
-0.0201356
-0.0202749
-0.0203341
-0.0203131
-0.0202118
-0.0200305
-0.0197694
-0.0194297
-0.0190125
-0.0185195
-0.0179525
-0.0173137
-0.0166056
-0.0158312
-0.0149933
-0.014095
-0.0131397
-0.0121312
-0.0110736
-0.00997154
-0.00883284
-0.00766778
-0.00649279
-0.00532788
-0.00417614
-0.00305568
-0.00199419
-0.00103496
-0.000212711
0.00045035
0.000949213
0.00129616
0.00151427
0.00163399
0.00169229
0.00171496
0.00171452
0.00169614
0.00166609
0.00162505
0.00158124
0.00155527
0.00147715
0.00130402
0.00107679
0.000879592
0.000723994
0.000587268
0.000450798
0.000299071
0.000118109
-0.000105124
-0.000383757
-0.000732804
-0.00116652
-0.00169581
-0.00232666
-0.00305904
-0.00388575
-0.00479378
-0.00576786
-0.00679258
-0.0078524
-0.00893274
-0.0100198
-0.0111009
-0.0121642
-0.0131992
-0.0141967
-0.0151488
-0.0160489
-0.0168916
-0.0176726
-0.0183883
-0.0190362
-0.0196144
-0.0201212
-0.0205553
-0.0209156
-0.0212015
-0.0214123
-0.0215477
-0.0216074
-0.0215918
-0.0215009
-0.0213355
-0.0210961
-0.0207838
-0.0204001
-0.0199465
-0.0194249
-0.0188373
-0.0181859
-0.017473
-0.0167008
-0.0158715
-0.0149871
-0.0140496
-0.0130608
-0.0120223
-0.0109361
-0.00980408
-0.00863107
-0.00742662
-0.00620817
-0.0049898
-0.00378032
-0.00260978
-0.00152251
-0.000564778
0.000226352
0.000832894
0.00125894
0.0015231
0.00165957
0.00171273
0.00171217
0.00167622
0.00161931
0.0015496
0.00148651
0.00145166
0.0018439
0.00163644
0.00136713
0.00113922
0.000960732
0.000796802
0.00062226
0.000418366
0.000169852
-0.000136583
-0.000515045
-0.00097944
-0.00154082
-0.0022057
-0.00297398
-0.00383937
-0.00478962
-0.0058089
-0.00688088
-0.00798953
-0.00911927
-0.0102557
-0.0113853
-0.012496
-0.013577
-0.0146192
-0.0156149
-0.0165579
-0.0174433
-0.0182672
-0.0190269
-0.0197202
-0.0203456
-0.0209021
-0.0213887
-0.0218048
-0.02215
-0.0224239
-0.0226265
-0.0227575
-0.0228172
-0.0228059
-0.022724
-0.0225722
-0.0223514
-0.0220628
-0.0217079
-0.0212881
-0.0208053
-0.0202615
-0.0196587
-0.0189987
-0.0182835
-0.0175144
-0.0166928
-0.0158194
-0.0148943
-0.0139172
-0.0128875
-0.0118038
-0.0106651
-0.00947107
-0.00822475
-0.00693673
-0.00563028
-0.00431553
-0.00302069
-0.00180239
-0.000718764
0.000175484
0.000849783
0.00130423
0.00155863
0.00166128
0.00166882
0.00161834
0.00153903
0.00144752
0.00137213
0.00133209
0.0022004
0.00195728
0.00164228
0.00138191
0.00117639
0.000978932
0.000758131
0.00049285
0.000166768
-0.000234431
-0.000724373
-0.00131379
-0.00200951
-0.00281144
-0.00371371
-0.00470476
-0.00576867
-0.006888
-0.00804574
-0.00922549
-0.0104118
-0.0115907
-0.0127493
-0.0138768
-0.0149637
-0.0160027
-0.0169878
-0.0179147
-0.0187799
-0.0195813
-0.0203172
-0.0209867
-0.0215891
-0.022124
-0.0225911
-0.0229901
-0.0233211
-0.023584
-0.023779
-0.0239062
-0.0239658
-0.0239583
-0.0238843
-0.0237444
-0.0235398
-0.0232717
-0.0229413
-0.0225504
-0.0221006
-0.0215939
-0.021032
-0.0204168
-0.0197498
-0.0190322
-0.0182647
-0.0174474
-0.0165794
-0.0156592
-0.0146842
-0.013651
-0.0125557
-0.0113941
-0.0101631
-0.00886225
-0.00749811
-0.00608635
-0.00465285
-0.00323157
-0.00189102
-0.000706558
0.000248667
0.000936258
0.00135862
0.00154927
0.00157965
0.001521
0.00142155
0.00131158
0.00122857
0.0011845
0.00251934
0.00224093
0.00188001
0.0015851
0.00134828
0.00111092
0.000836815
0.000502704
9.06726e-05
-0.000414457
-0.00102313
-0.00174209
-0.00257178
-0.00350635
-0.00453466
-0.00564071
-0.00680616
-0.00801259
-0.0092425
-0.0104795
-0.0117084
-0.0129161
-0.014091
-0.0152237
-0.0163067
-0.0173343
-0.0183026
-0.0192088
-0.0200509
-0.0208281
-0.0215398
-0.0221858
-0.022766
-0.0232806
-0.0237297
-0.0241134
-0.0244318
-0.0246852
-0.0248738
-0.0249979
-0.0250578
-0.0250539
-0.024987
-0.0248579
-0.0246675
-0.024417
-0.0241078
-0.0237414
-0.0233195
-0.0228439
-0.0223164
-0.0217386
-0.0211119
-0.0204374
-0.0197155
-0.018946
-0.0181276
-0.0172582
-0.0163341
-0.0153505
-0.0143017
-0.0131809
-0.0119814
-0.0106979
-0.00932814
-0.00787513
-0.00635439
-0.00479919
-0.00325987
-0.00181886
-0.000574213
0.000387269
0.0010252
0.00135503
0.0014417
0.00138635
0.00126901
0.00114154
0.00105087
0.000999888
0.00278007
0.00246326
0.00205721
0.00172616
0.00145376
0.00117122
0.000838843
0.000430452
-7.46764e-05
-0.00068879
-0.0014183
-0.00226493
-0.00322306
-0.00428168
-0.00542468
-0.00663275
-0.00788596
-0.00916524
-0.0104529
-0.0117328
-0.0129907
-0.0142146
-0.0153945
-0.016523
-0.0175945
-0.0186051
-0.0195527
-0.0204358
-0.0212539
-0.022007
-0.0226952
-0.0233191
-0.0238789
-0.0243752
-0.0248084
-0.0251787
-0.0254865
-0.025732
-0.0259155
-0.0260374
-0.026098
-0.0260979
-0.0260377
-0.0259182
-0.0257404
-0.0255053
-0.0252144
-0.024869
-0.0244707
-0.0240213
-0.0235225
-0.0229757
-0.0223824
-0.0217435
-0.0210594
-0.0203298
-0.0195535
-0.0187279
-0.0178491
-0.0169119
-0.0159094
-0.0148334
-0.0136748
-0.0124243
-0.0110746
-0.00962213
-0.00807081
-0.00643941
-0.00476948
-0.00313094
-0.00162687
-0.00037669
0.000524693
0.00104978
0.00124287
0.00121352
0.00108581
0.000939909
0.0008349
0.000771154
0.00294815
0.00260005
0.00215215
0.00178451
0.00147327
0.00114253
0.000748244
0.000260362
-0.000340217
-0.00106289
-0.00191079
-0.00287877
-0.00395628
-0.00512712
-0.00637111
-0.00766664
-0.00899275
-0.01033
-0.0116609
-0.01297
-0.0142442
-0.0154732
-0.016649
-0.0177661
-0.0188208
-0.019811
-0.0207359
-0.0215954
-0.0223898
-0.0231199
-0.0237865
-0.0243902
-0.024932
-0.0254123
-0.0258318
-0.0261908
-0.0264897
-0.0267289
-0.0269086
-0.0270292
-0.0270912
-0.0270949
-0.0270411
-0.0269304
-0.0267638
-0.0265423
-0.0262673
-0.0259399
-0.0255618
-0.0251346
-0.0246597
-0.0241387
-0.0235729
-0.0229632
-0.0223102
-0.0216136
-0.0208721
-0.0200835
-0.019244
-0.0183482
-0.017389
-0.0163576
-0.0152438
-0.0140361
-0.0127232
-0.0112963
-0.00975154
-0.00809576
-0.00635529
-0.00458678
-0.00288186
-0.00136455
-0.000173974
0.000598003
0.000957997
0.00099778
0.000871529
0.000706471
0.000576026
0.000494804
0.00301007
0.00263379
0.00214759
0.00174366
0.00139223
0.00101143
0.00055238
-1.60053e-05
-0.0007106
-0.00153853
-0.00249752
-0.00357741
-0.00476226
-0.00603123
-0.00736108
-0.00872865
-0.0101124
-0.0114928
-0.012853
-0.0141785
-0.0154582
-0.0166833
-0.017848
-0.0189487
-0.0199833
-0.0209514
-0.0218533
-0.0226897
-0.0234617
-0.0241707
-0.0248176
-0.0254036
-0.0259296
-0.0263962
-0.0268042
-0.0271538
-0.0274457
-0.02768
-0.027857
-0.0279772
-0.0280409
-0.0280486
-0.0280008
-0.0278983
-0.0277418
-0.0275325
-0.0272714
-0.0269597
-0.0265989
-0.0261905
-0.0257358
-0.0252363
-0.0246933
-0.0241078
-0.0234802
-0.0228105
-0.0220978
-0.0213399
-0.0205336
-0.0196737
-0.0187535
-0.0177642
-0.0166951
-0.0155339
-0.0142671
-0.0128822
-0.0113695
-0.00972611
-0.00796399
-0.00612333
-0.00428393
-0.00255485
-0.00108348
-2.2784e-05
0.000558045
0.000718324
0.000620833
0.000437613
0.000269791
0.000169926
0.00295076
0.002551
0.00203137
0.00159282
0.00120103
0.00076858
0.00024412
-0.000401805
-0.00118586
-0.00211206
-0.00317257
-0.00435227
-0.00563024
-0.00698191
-0.00838182
-0.00980582
-0.0112321
-0.0126416
-0.0140183
-0.0153495
-0.0166255
-0.0178397
-0.0189884
-0.0200694
-0.0210824
-0.022028
-0.0229073
-0.0237219
-0.0244734
-0.0251633
-0.0257929
-0.0263635
-0.0268759
-0.027331
-0.0277294
-0.0280715
-0.0283577
-0.0285883
-0.0287636
-0.028884
-0.0289498
-0.0289615
-0.0289195
-0.0288246
-0.0286774
-0.028479
-0.0282302
-0.0279323
-0.0275866
-0.0271943
-0.0267569
-0.0262756
-0.0257516
-0.025186
-0.0245794
-0.0239317
-0.0232425
-0.02251
-0.0217314
-0.0209022
-0.0200162
-0.0190652
-0.0180386
-0.016924
-0.0157071
-0.0143729
-0.0129081
-0.0113029
-0.0095568
-0.00769123
-0.00577246
-0.0038974
-0.00219339
-0.000841233
1.13151e-05
0.000354124
0.00032271
0.000124412
-8.76414e-05
-0.000205091
0.00276138
0.00234377
0.00179663
0.00132618
0.000894166
0.000410642
-0.000175915
-0.000894952
-0.00176214
-0.00277691
-0.00392708
-0.00519263
-0.00654836
-0.00796681
-0.009421
-0.0108863
-0.0123409
-0.0137667
-0.0151489
-0.0164765
-0.0177418
-0.0189401
-0.0200694
-0.0211291
-0.0221199
-0.0230434
-0.0239015
-0.0246961
-0.025429
-0.0261019
-0.0267164
-0.0272737
-0.0277746
-0.02822
-0.0286104
-0.0289464
-0.0292282
-0.0294562
-0.0296306
-0.0297517
-0.0298199
-0.0298356
-0.0297992
-0.0297113
-0.0295726
-0.029384
-0.0291463
-0.0288606
-0.0285281
-0.0281499
-0.0277273
-0.0272616
-0.0267538
-0.0262049
-0.0256157
-0.0249863
-0.0243164
-0.0236048
-0.0228492
-0.0220458
-0.0211893
-0.0202723
-0.0192848
-0.018215
-0.0170482
-0.0157685
-0.01436
-0.0128092
-0.0111069
-0.00925513
-0.00729568
-0.00533651
-0.00346696
-0.00185349
-0.000703525
-0.000125896
-4.62257e-05
-0.0002412
-0.000496437
-0.000630046
0.00243952
0.00201015
0.00144204
0.000942972
0.0004724
-5.96697e-05
-0.000703764
-0.0014895
-0.00243087
-0.00352319
-0.00474984
-0.0060864
-0.00750422
-0.00897374
-0.0104671
-0.0119594
-0.0134296
-0.0148605
-0.0162389
-0.0175556
-0.018805
-0.019984
-0.021092
-0.0221296
-0.0230987
-0.0240012
-0.0248394
-0.0256157
-0.026332
-0.0269901
-0.0275914
-0.0281372
-0.0286284
-0.0290657
-0.0294496
-0.0297807
-0.0300591
-0.0302853
-0.0304593
-0.0305815
-0.0306522
-0.0306718
-0.0306407
-0.0305594
-0.0304285
-0.0302489
-0.0300212
-0.0297465
-0.0294257
-0.0290599
-0.0286504
-0.0281981
-0.0277042
-0.0271697
-0.0265952
-0.0259811
-0.0253274
-0.0246331
-0.0238967
-0.023115
-0.0222837
-0.0213962
-0.0204439
-0.0194155
-0.0182971
-0.0170724
-0.0157238
-0.0142353
-0.0125933
-0.0107876
-0.00882858
-0.00681637
-0.00484964
-0.00303899
-0.00160775
-0.000753869
-0.000503347
-0.000668217
-0.000954641
-0.00110466
0.0019885
0.00155374
0.000971282
0.000447353
-5.88731e-05
-0.000634919
-0.00133079
-0.00217595
-0.00318129
-0.00433892
-0.00562811
-0.00702069
-0.00848531
-0.00999098
-0.0115094
-0.013016
-0.0144905
-0.0159171
-0.0172843
-0.0185848
-0.0198145
-0.020972
-0.0220578
-0.0230736
-0.0240216
-0.0249044
-0.0257245
-0.0264842
-0.0271857
-0.0278307
-0.0284207
-0.0289566
-0.0294395
-0.02987
-0.0302486
-0.0305756
-0.0308515
-0.0310763
-0.0312504
-0.031374
-0.0314473
-0.0314707
-0.0314446
-0.0313695
-0.0312458
-0.0310744
-0.0308558
-0.0305909
-0.0302807
-0.0299261
-0.0295281
-0.0290878
-0.0286061
-0.028084
-0.0275223
-0.0269213
-0.0262813
-0.0256018
-0.0248815
-0.0241182
-0.0233084
-0.0224465
-0.0215253
-0.0205345
-0.0194613
-0.0182898
-0.0170019
-0.0155792
-0.0140057
-0.0122659
-0.0103521
-0.00830627
-0.00628992
-0.00435358
-0.002684
-0.00154278
-0.00107445
-0.00117305
-0.00146128
-0.00163381
0.00141667
0.000982888
0.000392279
-0.00015188
-0.000689627
-0.00130463
-0.00204581
-0.00294155
-0.00400017
-0.00521053
-0.00654836
-0.00798244
-0.00947947
-0.0110076
-0.0125385
-0.0140482
-0.0155176
-0.0169323
-0.0182827
-0.019563
-0.0207706
-0.0219056
-0.0229691
-0.0239635
-0.0248915
-0.025756
-0.0265595
-0.0273044
-0.0279928
-0.0286262
-0.0292062
-0.0297336
-0.0302094
-0.0306341
-0.0310082
-0.031332
-0.0316059
-0.0318299
-0.0320043
-0.0321293
-0.0322053
-0.0322324
-0.032211
-0.0321416
-0.0320247
-0.0318607
-0.0316505
-0.0313946
-0.031094
-0.0307495
-0.030362
-0.0299324
-0.0294616
-0.0289506
-0.0284001
-0.0278107
-0.0271826
-0.0265158
-0.0258095
-0.025062
-0.0242706
-0.023431
-0.0225371
-0.02158
-0.0205481
-0.0194268
-0.0181981
-0.0168421
-0.0153409
-0.0136773
-0.0118317
-0.00980215
-0.00774507
-0.00574719
-0.00390618
-0.002501
-0.0017814
-0.00175378
-0.00202134
-0.00222837
0.000736472
0.000310006
-0.000282492
-0.000842048
-0.00140641
-0.00205493
-0.00283471
-0.00377202
-0.00487299
-0.00612366
-0.0074968
-0.00895886
-0.0104752
-0.0120136
-0.0135461
-0.0150496
-0.0165062
-0.0179032
-0.0192326
-0.0204901
-0.0216744
-0.0227863
-0.0238278
-0.0248018
-0.0257111
-0.0265586
-0.0273469
-0.0280785
-0.0287551
-0.0293783
-0.0299495
-0.0304695
-0.0309391
-0.0313589
-0.0317292
-0.0320503
-0.0323225
-0.032546
-0.032721
-0.0328476
-0.032926
-0.0329566
-0.0329397
-0.0328756
-0.0327649
-0.0326079
-0.0324053
-0.0321578
-0.031866
-0.0315306
-0.0311527
-0.0307328
-0.030272
-0.0297711
-0.0292308
-0.0286517
-0.0280344
-0.0273788
-0.0266848
-0.0259511
-0.0251759
-0.0243559
-0.0234859
-0.0225589
-0.0215645
-0.0204896
-0.0193169
-0.0180266
-0.0165983
-0.0150139
-0.0132514
-0.0112928
-0.00919886
-0.00717633
-0.0052395
-0.00362123
-0.00264229
-0.00242719
-0.00265184
-0.00290508
-3.5e-05
-0.000450027
-0.00103796
-0.00160811
-0.0021946
-0.00287115
-0.003682
-0.00465187
-0.00578458
-0.00706377
-0.00845991
-0.00993773
-0.0114618
-0.0130001
-0.014525
-0.0160147
-0.0174527
-0.0188277
-0.0201333
-0.0213664
-0.0225267
-0.0236157
-0.024636
-0.0255905
-0.0264823
-0.0273141
-0.0280887
-0.0288081
-0.0294741
-0.0300882
-0.0306516
-0.0311651
-0.0316293
-0.0320447
-0.0324118
-0.0327306
-0.0330015
-0.0332247
-0.0334002
-0.0335283
-0.0336092
-0.0336431
-0.0336303
-0.0335712
-0.0334662
-0.0333157
-0.0331202
-0.0328803
-0.0325966
-0.0322698
-0.0319006
-0.0314898
-0.0310382
-0.0305466
-0.0300157
-0.0294462
-0.0288386
-0.0281934
-0.0275104
-0.0267892
-0.0260284
-0.0252256
-0.0243771
-0.0234768
-0.0225162
-0.0214836
-0.0203635
-0.0191363
-0.0177806
-0.0162769
-0.0146052
-0.0127352
-0.0106542
-0.00861054
-0.0066415
-0.00487674
-0.00366045
-0.00322785
-0.00336998
-0.00368516
-0.000878749
-0.00127986
-0.00185828
-0.00243468
-0.00303833
-0.00373697
-0.0045716
-0.00556529
-0.00671976
-0.00801669
-0.00942481
-0.0109077
-0.0124298
-0.0139591
-0.0154692
-0.0169392
-0.0183542
-0.0197044
-0.0209844
-0.0221923
-0.0233287
-0.0243954
-0.0253953
-0.0263315
-0.0272068
-0.0280242
-0.0287861
-0.0294944
-0.0301509
-0.0307568
-0.0313132
-0.0318208
-0.0322801
-0.0326917
-0.0330559
-0.0333727
-0.0336425
-0.0338655
-0.0340416
-0.0341712
-0.0342543
-0.0342913
-0.0342824
-0.0342279
-0.0341282
-0.0339836
-0.0337947
-0.0335619
-0.0332857
-0.0329668
-0.0326059
-0.0322036
-0.0317606
-0.0312776
-0.0307556
-0.030195
-0.0295967
-0.028961
-0.0282883
-0.0275785
-0.0268308
-0.0260437
-0.0252143
-0.0243381
-0.023408
-0.022414
-0.0213421
-0.0201742
-0.0188889
-0.0174647
-0.0158811
-0.0141076
-0.0121161
-0.0100414
-0.00807551
-0.00623843
-0.00483099
-0.00417454
-0.0041931
-0.00459658
-0.00177649
-0.00216141
-0.00272637
-0.00330464
-0.00392048
-0.00463541
-0.00548708
-0.0064966
-0.00766383
-0.00896895
-0.0103795
-0.0118585
-0.0133704
-0.0148839
-0.0163734
-0.0178196
-0.0192086
-0.0205321
-0.0217857
-0.0229684
-0.0240812
-0.0251265
-0.026107
-0.0270258
-0.0278859
-0.02869
-0.0294402
-0.0301384
-0.0307861
-0.0313845
-0.0319345
-0.0324368
-0.0328918
-0.0332999
-0.0336614
-0.0339765
-0.0342453
-0.0344681
-0.0346448
-0.0347757
-0.034861
-0.0349008
-0.0348955
-0.0348453
-0.0347504
-0.0346114
-0.0344285
-0.0342022
-0.0339331
-0.0336216
-0.0332684
-0.032874
-0.0324391
-0.0319645
-0.0314508
-0.0308988
-0.0303092
-0.0296827
-0.0290197
-0.0283206
-0.0275851
-0.0268123
-0.0260004
-0.025146
-0.0242434
-0.0232845
-0.022257
-0.0211447
-0.0199268
-0.0185802
-0.0170836
-0.0154119
-0.0135321
-0.0114611
-0.00951617
-0.00767327
-0.00613721
-0.00526746
-0.00514748
-0.00565427
-0.00270969
-0.00307646
-0.00362452
-0.0042004
-0.00482386
-0.00554983
-0.00641249
-0.00743076
-0.00860289
-0.00990804
-0.0113131
-0.0127809
-0.0142761
-0.0157685
-0.0172335
-0.0186528
-0.0200141
-0.02131
-0.0225371
-0.023695
-0.0247851
-0.0258097
-0.0267719
-0.0276745
-0.0285204
-0.0293121
-0.0300515
-0.0307403
-0.03138
-0.0319715
-0.0325157
-0.0330131
-0.0334641
-0.033869
-0.0342281
-0.0345416
-0.0348095
-0.0350321
-0.0352093
-0.0353415
-0.0354287
-0.0354712
-0.0354691
-0.0354227
-0.0353324
-0.0351984
-0.0350212
-0.034801
-0.0345384
-0.0342339
-0.0338879
-0.033501
-0.0330738
-0.0326071
-0.0321014
-0.0315576
-0.0309765
-0.0303587
-0.0297051
-0.0290162
-0.0282921
-0.0275327
-0.0267369
-0.0259024
-0.025025
-0.024098
-0.0231111
-0.02205
-0.0208954
-0.0196243
-0.0182157
-0.0166485
-0.0148815
-0.0128741
-0.0109298
-0.00912847
-0.00753285
-0.00649012
-0.00625565
-0.00684345
-0.00366038
-0.00400685
-0.00453508
-0.00510522
-0.00573223
-0.00646453
-0.00733282
-0.00835373
-0.00952417
-0.0108226
-0.0122158
-0.0136666
-0.0151405
-0.0166079
-0.0180456
-0.0194365
-0.0207692
-0.0220375
-0.0232385
-0.0243723
-0.0254406
-0.0264457
-0.0273906
-0.0282781
-0.0291108
-0.0298909
-0.0306203
-0.0313005
-0.0319328
-0.0325179
-0.0330567
-0.0335495
-0.0339968
-0.0343988
-0.0347557
-0.0350676
-0.0353347
-0.0355571
-0.0357348
-0.0358681
-0.035957
-0.0360018
-0.0360027
-0.0359599
-0.0358737
-0.0357444
-0.0355723
-0.0353578
-0.0351013
-0.0348032
-0.034464
-0.0340842
-0.0336644
-0.0332052
-0.0327073
-0.0321714
-0.0315985
-0.0309892
-0.0303447
-0.0296655
-0.0289524
-0.0282056
-0.0274249
-0.0266087
-0.0257543
-0.0248564
-0.0239066
-0.0228925
-0.0217968
-0.0205975
-0.0192721
-0.0177999
-0.0161462
-0.0142713
-0.0123182
-0.0105675
-0.00896657
-0.00780952
-0.00750694
-0.00813268
-0.00461094
-0.00493535
-0.00544145
-0.00600316
-0.0066303
-0.00736487
-0.00823424
-0.00925277
-0.0104162
-0.0117026
-0.0130789
-0.0145086
-0.0159578
-0.0173979
-0.0188068
-0.0201685
-0.0214727
-0.0227138
-0.0238896
-0.0250004
-0.0260479
-0.0270347
-0.0279635
-0.0288368
-0.0296572
-0.0304266
-0.0311468
-0.031819
-0.0324444
-0.0330236
-0.0335573
-0.034046
-0.0344898
-0.034889
-0.0352438
-0.0355543
-0.0358205
-0.0360427
-0.0362208
-0.036355
-0.0364455
-0.0364924
-0.036496
-0.0364564
-0.036374
-0.036249
-0.0360816
-0.0358723
-0.0356214
-0.0353293
-0.0349965
-0.0346233
-0.0342105
-0.0337585
-0.033268
-0.0327398
-0.0321748
-0.0315739
-0.0309381
-0.0302685
-0.0295659
-0.0288311
-0.0280645
-0.0272654
-0.0264322
-0.0255609
-0.0246451
-0.0236741
-0.0226329
-0.021501
-0.0202551
-0.0188741
-0.0173318
-0.015594
-0.0136707
-0.0119658
-0.0103977
-0.00918328
-0.00883963
-0.0094449
-0.00554507
-0.00584621
-0.00632864
-0.00687964
-0.00750406
-0.00823759
-0.00910433
-0.0101165
-0.0112688
-0.0125391
-0.013895
-0.0153007
-0.0167232
-0.0181348
-0.0195144
-0.0208471
-0.0221233
-0.0233382
-0.02449
-0.025579
-0.0266072
-0.0275768
-0.0284905
-0.0293508
-0.0301597
-0.0309192
-0.0316308
-0.0322956
-0.0329145
-0.0334883
-0.0340174
-0.0345021
-0.0349427
-0.0353393
-0.0356922
-0.0360012
-0.0362667
-0.0364885
-0.0366669
-0.036802
-0.0368939
-0.0369427
-0.0369486
-0.036912
-0.0368329
-0.0367117
-0.0365487
-0.0363441
-0.0360984
-0.0358119
-0.0354849
-0.035118
-0.0347117
-0.0342666
-0.0337832
-0.0332624
-0.0327051
-0.0321123
-0.0314851
-0.0308246
-0.0301322
-0.0294089
-0.0286556
-0.0278724
-0.0270587
-0.0262119
-0.025327
-0.0243954
-0.023404
-0.0223343
-0.0211638
-0.0198723
-0.0184389
-0.0168221
-0.0149868
-0.013302
-0.0117817
-0.0105545
-0.0101607
-0.0106649
-0.00644718
-0.00672521
-0.00718302
-0.00772158
-0.00834099
-0.00907083
-0.00993206
-0.0109348
-0.0120734
-0.0133246
-0.0146576
-0.0160378
-0.0174327
-0.0188155
-0.0201661
-0.0214706
-0.0227201
-0.0239101
-0.0250392
-0.026108
-0.0271181
-0.0280718
-0.0289716
-0.0298197
-0.0306181
-0.0313685
-0.0320721
-0.03273
-0.0333431