/*--------------------------------*- C++ -*----------------------------------*\
  =========                 |
  \\      /  F ield         | OpenFOAM: The Open Source CFD Toolbox
   \\    /   O peration     | Website:  https://openfoam.org
    \\  /    A nd           | Version:  13
     \\/     M anipulation  |
\*---------------------------------------------------------------------------*/
FoamFile
{
    format      ascii;
    class       volVectorField;
    location    "8.2";
    object      U;
}
// * * * * * * * * * * * * * * * * * * * * * * * * * * * * * * * * * * * * * //

dimensions      [0 1 -1 0 0 0 0];

internalField   nonuniform List<vector> 
6400
(
(-0.000127619 8.40705e-05 0)
(0.000450107 -0.000175485 0)
(0.00211629 -0.000440689 0)
(0.00431395 -0.000558059 0)
(0.00649767 -0.000491871 0)
(0.00831564 -0.000327667 0)
(0.00952185 -0.000130478 0)
(0.010122 1.7259e-05 0)
(0.0102429 7.2017e-05 0)
(0.0101307 5.05137e-05 0)
(0.00990776 -2.83876e-05 0)
(0.00974682 -0.000136065 0)
(0.00971093 -0.000248155 0)
(0.00980013 -0.000338953 0)
(0.00996544 -0.000412162 0)
(0.0101277 -0.000465809 0)
(0.0102116 -0.00049958 0)
(0.0101645 -0.000501577 0)
(0.00994327 -0.000481881 0)
(0.00945317 -0.000440453 0)
(0.00865669 -0.000391191 0)
(0.00749493 -0.000341238 0)
(0.00592543 -0.000294512 0)
(0.00392024 -0.000276633 0)
(0.00144779 -0.000325818 0)
(-0.00146888 -0.000444641 0)
(-0.00486593 -0.000485548 0)
(-0.0089669 -0.000294166 0)
(-0.0138855 0.000243456 0)
(-0.0196584 0.00112873 0)
(-0.0270206 0.00217579 0)
(-0.0351931 0.00306051 0)
(-0.0440326 0.00377036 0)
(-0.0532281 0.00429331 0)
(-0.0625227 0.0046362 0)
(-0.0716808 0.00481425 0)
(-0.0805175 0.00485258 0)
(-0.0888779 0.00477479 0)
(-0.0966466 0.00460344 0)
(-0.103726 0.0043564 0)
(-0.11004 0.00404553 0)
(-0.11553 0.00367935 0)
(-0.12015 0.00326003 0)
(-0.123879 0.0027917 0)
(-0.126689 0.00228858 0)
(-0.128369 0.00181606 0)
(-0.129066 0.00138464 0)
(-0.128925 0.000661079 0)
(-0.127385 0.000111124 0)
(-0.124929 -0.000577152 0)
(-0.121186 -0.00121266 0)
(-0.116367 -0.0018788 0)
(-0.110338 -0.00251341 0)
(-0.10321 -0.00313576 0)
(-0.0950129 -0.00374115 0)
(-0.0858393 -0.00432194 0)
(-0.0757085 -0.00482801 0)
(-0.0648126 -0.00525706 0)
(-0.0533057 -0.00557643 0)
(-0.0414014 -0.0057535 0)
(-0.0293412 -0.00575237 0)
(-0.0174076 -0.00556023 0)
(-0.00583088 -0.00517573 0)
(0.00492062 -0.00467164 0)
(0.014527 -0.0039057 0)
(0.0228005 -0.00296935 0)
(0.0294114 -0.00190601 0)
(0.0340805 -0.000755154 0)
(0.0368309 0.000404083 0)
(0.0370527 0.00161149 0)
(0.0355981 0.00227508 0)
(0.0320205 0.00285495 0)
(0.0267148 0.00304669 0)
(0.0205822 0.00274232 0)
(0.0143932 0.00204248 0)
(0.00894796 0.00120379 0)
(0.0046854 0.000521438 0)
(0.00175527 0.00011722 0)
(0.000137818 -0.000170735 0)
(-0.000237891 -0.000345776 0)
(1.6193e-05 -0.00038768 0)
(0.0018377 -0.00212875 0)
(0.00529617 -0.00357685 0)
(0.00914546 -0.00406149 0)
(0.0126863 -0.00366917 0)
(0.0155024 -0.00278652 0)
(0.0174175 -0.001712 0)
(0.0184605 -0.00073561 0)
(0.0187555 -4.27322e-05 0)
(0.0184661 0.000335945 0)
(0.0177914 0.000442122 0)
(0.0169015 0.000358836 0)
(0.0158836 0.000208186 0)
(0.01473 0.000103811 0)
(0.0133688 0.000109892 0)
(0.011697 0.000240098 0)
(0.00962765 0.000473685 0)
(0.00709242 0.000796525 0)
(0.00397756 0.00122414 0)
(0.000176732 0.00176662 0)
(-0.00441963 0.00242823 0)
(-0.0100465 0.00322782 0)
(-0.0167888 0.00412941 0)
(-0.0247147 0.00512388 0)
(-0.0338699 0.00622884 0)
(-0.0443595 0.00744959 0)
(-0.0560673 0.00881434 0)
(-0.0686415 0.010318 0)
(-0.081697 0.0118985 0)
(-0.0947005 0.0133793 0)
(-0.10714 0.0144661 0)
(-0.119212 0.0151318 0)
(-0.130627 0.0153851 0)
(-0.141307 0.0152542 0)
(-0.151155 0.0148099 0)
(-0.160106 0.0141037 0)
(-0.16812 0.0131924 0)
(-0.175164 0.0121204 0)
(-0.181227 0.010926 0)
(-0.186294 0.00963723 0)
(-0.190351 0.0082713 0)
(-0.193399 0.00684468 0)
(-0.195428 0.00536391 0)
(-0.196435 0.00384 0)
(-0.19641 0.00228227 0)
(-0.195318 0.000702514 0)
(-0.193173 -0.000922743 0)
(-0.189974 -0.00263701 0)
(-0.185652 -0.00438159 0)
(-0.180278 -0.0061646 0)
(-0.173775 -0.00796319 0)
(-0.166185 -0.00976296 0)
(-0.157475 -0.0115408 0)
(-0.147676 -0.0132662 0)
(-0.136793 -0.0149052 0)
(-0.124912 -0.0164072 0)
(-0.112141 -0.0177376 0)
(-0.0985807 -0.0188348 0)
(-0.0844111 -0.01963 0)
(-0.0698467 -0.020072 0)
(-0.0550988 -0.0200947 0)
(-0.0404256 -0.0196579 0)
(-0.0261098 -0.0187389 0)
(-0.0124686 -0.0173576 0)
(0.000217525 -0.01545 0)
(0.0116878 -0.0130774 0)
(0.0216631 -0.0102839 0)
(0.0299012 -0.0071724 0)
(0.0362352 -0.00382334 0)
(0.0404844 -0.000422724 0)
(0.042635 0.00278521 0)
(0.042558 0.00573074 0)
(0.0403456 0.00814322 0)
(0.0362244 0.00968248 0)
(0.0302345 0.00988672 0)
(0.0228759 0.00893174 0)
(0.0151592 0.00708363 0)
(0.008191 0.00477415 0)
(0.00304698 0.00230459 0)
(0.000224308 0.000269429 0)
(0.000208262 -0.00165708 0)
(0.00324679 -0.00546069 0)
(0.0075613 -0.00771013 0)
(0.0115809 -0.00796975 0)
(0.0148735 -0.00684976 0)
(0.0172345 -0.00502112 0)
(0.0186935 -0.00305819 0)
(0.0193114 -0.00128846 0)
(0.0191652 0.000106029 0)
(0.0183591 0.00104293 0)
(0.0170377 0.00155465 0)
(0.0152768 0.00178597 0)
(0.013092 0.00193318 0)
(0.0104447 0.00217178 0)
(0.0072441 0.00261146 0)
(0.00339004 0.00327763 0)
(-0.00124574 0.00416303 0)
(-0.00682255 0.00527798 0)
(-0.0134676 0.00664577 0)
(-0.0213016 0.00829994 0)
(-0.0304081 0.0102446 0)
(-0.0407596 0.0124172 0)
(-0.0523312 0.0147346 0)
(-0.0649738 0.017075 0)
(-0.0784297 0.0193114 0)
(-0.0923924 0.021352 0)
(-0.106489 0.023099 0)
(-0.120401 0.0244906 0)
(-0.133789 0.0254685 0)
(-0.146398 0.0260114 0)
(-0.158069 0.0261129 0)
(-0.168751 0.0257727 0)
(-0.178385 0.0250381 0)
(-0.187036 0.0239455 0)
(-0.194701 0.0225426 0)
(-0.201421 0.0209 0)
(-0.207217 0.0190651 0)
(-0.212117 0.0170825 0)
(-0.21613 0.0149829 0)
(-0.219273 0.0128018 0)
(-0.221552 0.0105484 0)
(-0.222969 0.00823555 0)
(-0.223522 0.00587072 0)
(-0.223203 0.0034532 0)
(-0.222001 0.000984737 0)
(-0.219899 -0.00154076 0)
(-0.216863 -0.00413734 0)
(-0.212883 -0.00680072 0)
(-0.207933 -0.00949908 0)
(-0.201998 -0.0122467 0)
(-0.19505 -0.0150178 0)
(-0.187083 -0.0177966 0)
(-0.178083 -0.0205503 0)
(-0.168061 -0.0232376 0)
(-0.157034 -0.0258 0)
(-0.14505 -0.0281673 0)
(-0.132189 -0.0302706 0)
(-0.118544 -0.0320152 0)
(-0.104238 -0.0333075 0)
(-0.0894604 -0.0340549 0)
(-0.074428 -0.0341687 0)
(-0.059371 -0.0335737 0)
(-0.0445756 -0.0322386 0)
(-0.0303451 -0.0301679 0)
(-0.0169485 -0.0273529 0)
(-0.0046154 -0.0238322 0)
(0.00639689 -0.0196765 0)
(0.0158733 -0.0150047 0)
(0.0236815 -0.00996845 0)
(0.0297011 -0.00475287 0)
(0.0339069 0.000417445 0)
(0.036264 0.00531017 0)
(0.0366363 0.00957472 0)
(0.0349403 0.0129414 0)
(0.0314968 0.0151781 0)
(0.0263735 0.0156972 0)
(0.019764 0.0145918 0)
(0.0125664 0.0119445 0)
(0.0058671 0.00788848 0)
(0.000780831 0.00292103 0)
(0.00043415 -0.00364455 0)
(0.00432556 -0.00963962 0)
(0.00872876 -0.0119731 0)
(0.0122483 -0.0114288 0)
(0.0147749 -0.00930772 0)
(0.0163092 -0.00654966 0)
(0.0169548 -0.00372745 0)
(0.0168047 -0.00118286 0)
(0.0159392 0.000887344 0)
(0.014414 0.00241533 0)
(0.0122264 0.00348497 0)
(0.00935228 0.00428672 0)
(0.00573886 0.00505566 0)
(0.00131434 0.00599606 0)
(-0.00399596 0.007229 0)
(-0.0102943 0.00880661 0)
(-0.0177019 0.0107445 0)
(-0.0263374 0.0130459 0)
(-0.0362788 0.0156991 0)
(-0.0475357 0.0186673 0)
(-0.0600157 0.0218527 0)
(-0.0735122 0.0251055 0)
(-0.0877289 0.0282465 0)
(-0.102295 0.0311076 0)
(-0.116911 0.033593 0)
(-0.131228 0.0355151 0)
(-0.144954 0.0367834 0)
(-0.157812 0.0374197 0)
(-0.169646 0.0374873 0)
(-0.180421 0.0370362 0)
(-0.190118 0.0361246 0)
(-0.198796 0.0347919 0)
(-0.2065 0.0330785 0)
(-0.213302 0.0310548 0)
(-0.21924 0.0287683 0)
(-0.224379 0.0262739 0)
(-0.22875 0.023613 0)
(-0.23238 0.0208277 0)
(-0.235289 0.0179411 0)
(-0.237487 0.0149734 0)
(-0.238978 0.0119358 0)
(-0.239756 0.00883387 0)
(-0.239813 0.00566742 0)
(-0.239133 0.00243452 0)
(-0.237699 -0.000866989 0)
(-0.235483 -0.0042455 0)
(-0.232454 -0.00770308 0)
(-0.228588 -0.011253 0)
(-0.223852 -0.0148785 0)
(-0.218213 -0.0185732 0)
(-0.211644 -0.0223153 0)
(-0.20412 -0.0260826 0)
(-0.195617 -0.0298364 0)
(-0.186121 -0.0335223 0)
(-0.17563 -0.0370612 0)
(-0.16416 -0.0403566 0)
(-0.151762 -0.0433128 0)
(-0.138509 -0.0458152 0)
(-0.124499 -0.0477226 0)
(-0.109872 -0.0488948 0)
(-0.0948233 -0.0492156 0)
(-0.0795655 -0.0485706 0)
(-0.0643622 -0.0468924 0)
(-0.0495303 -0.0441504 0)
(-0.0354157 -0.0404174 0)
(-0.0222678 -0.0357496 0)
(-0.0103229 -0.0302364 0)
(0.000201297 -0.0240335 0)
(0.00915025 -0.0173567 0)
(0.0164143 -0.0104451 0)
(0.0219444 -0.00354669 0)
(0.0257527 0.00310905 0)
(0.027888 0.00921214 0)
(0.0283465 0.0143527 0)
(0.0270003 0.018185 0)
(0.023891 0.0204083 0)
(0.0191911 0.0205856 0)
(0.0133076 0.0185758 0)
(0.00692199 0.0141908 0)
(0.00107205 0.00669588 0)
(0.000719493 -0.00619514 0)
(0.00500209 -0.0140444 0)
(0.00886597 -0.0157562 0)
(0.0115052 -0.0140843 0)
(0.0130663 -0.0108682 0)
(0.0136268 -0.00716496 0)
(0.0133349 -0.00352068 0)
(0.0122765 -0.0002396 0)
(0.0104869 0.00252613 0)
(0.00795152 0.00476468 0)
(0.00460505 0.00659422 0)
(0.000357847 0.00822995 0)
(-0.00488401 0.00991781 0)
(-0.0112095 0.0118638 0)
(-0.0187015 0.0141983 0)
(-0.0274377 0.0169791 0)
(-0.0374764 0.0202113 0)
(-0.0488343 0.0238578 0)
(-0.0614425 0.0278156 0)
(-0.075119 0.0319355 0)
(-0.0895668 0.0359884 0)
(-0.104426 0.039776 0)
(-0.119335 0.0431565 0)
(-0.133984 0.0458508 0)
(-0.147987 0.0477367 0)
(-0.161033 0.0488318 0)
(-0.173039 0.04916 0)
(-0.183953 0.0487826 0)
(-0.193825 0.047805 0)
(-0.2027 0.0463219 0)
(-0.210642 0.0444156 0)
(-0.217738 0.0421535 0)
(-0.224034 0.0395864 0)
(-0.229593 0.0367664 0)
(-0.234461 0.0337361 0)
(-0.238684 0.0305362 0)
(-0.242285 0.0272009 0)
(-0.245287 0.0237598 0)
(-0.247704 0.0202272 0)
(-0.24954 0.0166166 0)
(-0.250792 0.0129317 0)
(-0.251452 0.00917377 0)
(-0.251507 0.00533399 0)
(-0.25094 0.00140667 0)
(-0.249734 -0.00261218 0)
(-0.247854 -0.00673493 0)
(-0.245268 -0.0109688 0)
(-0.24194 -0.0153218 0)
(-0.237848 -0.0197956 0)
(-0.23293 -0.0243747 0)
(-0.227151 -0.029037 0)
(-0.22047 -0.0337599 0)
(-0.212847 -0.0384981 0)
(-0.204246 -0.0431888 0)
(-0.194642 -0.0477387 0)
(-0.184015 -0.0520251 0)
(-0.172382 -0.0559283 0)
(-0.159789 -0.0593077 0)
(-0.146298 -0.0619802 0)
(-0.132014 -0.0637681 0)
(-0.1171 -0.0645161 0)
(-0.101743 -0.0640514 0)
(-0.0861988 -0.0622681 0)
(-0.0707134 -0.0591017 0)
(-0.0556623 -0.054587 0)
(-0.0414539 -0.0488545 0)
(-0.0283396 -0.0420397 0)
(-0.0165526 -0.0343505 0)
(-0.00629654 -0.0260451 0)
(0.00228589 -0.0174269 0)
(0.00912703 -0.00880778 0)
(0.014239 -0.000479507 0)
(0.0176902 0.00725309 0)
(0.0195503 0.0140629 0)
(0.0198323 0.0195806 0)
(0.0185412 0.0233593 0)
(0.0156871 0.0249523 0)
(0.0114828 0.024046 0)
(0.00629373 0.0200312 0)
(0.000945013 0.0105005 0)
(0.00103375 -0.00914021 0)
(0.0051827 -0.0180745 0)
(0.0080765 -0.0185602 0)
(0.009589 -0.0156944 0)
(0.0100803 -0.011385 0)
(0.0096088 -0.00678409 0)
(0.00831795 -0.00234621 0)
(0.00625027 0.00168852 0)
(0.00338674 0.00522697 0)
(-0.000343216 0.00830719 0)
(-0.00504736 0.0110816 0)
(-0.0108417 0.0137754 0)
(-0.0178292 0.0166239 0)
(-0.0260906 0.019816 0)
(-0.0356796 0.023462 0)
(-0.046609 0.0275846 0)
(-0.0588287 0.0321252 0)
(-0.0722064 0.0369819 0)
(-0.0865095 0.0419205 0)
(-0.101368 0.0466842 0)
(-0.116432 0.0510999 0)
(-0.131345 0.054815 0)
(-0.145646 0.0576407 0)
(-0.158982 0.0595181 0)
(-0.171218 0.060412 0)
(-0.182365 0.0604133 0)
(-0.192475 0.0596511 0)
(-0.201617 0.0582559 0)
(-0.209882 0.0563403 0)
(-0.217324 0.0539922 0)
(-0.224019 0.0512878 0)
(-0.230021 0.0482823 0)
(-0.235376 0.0450272 0)
(-0.240135 0.0415659 0)
(-0.244334 0.0379325 0)
(-0.247999 0.0341568 0)
(-0.251147 0.0302644 0)
(-0.253795 0.0262818 0)
(-0.255952 0.0222163 0)
(-0.257621 0.0180737 0)
(-0.258803 0.0138534 0)
(-0.25949 0.00955251 0)
(-0.25968 0.00515307 0)
(-0.259359 0.000640622 0)
(-0.258533 -0.0040055 0)
(-0.257164 -0.00879682 0)
(-0.255217 -0.013736 0)
(-0.252646 -0.018823 0)
(-0.249411 -0.0240649 0)
(-0.245473 -0.0294604 0)
(-0.240755 -0.0349769 0)
(-0.235199 -0.0405891 0)
(-0.228727 -0.0462393 0)
(-0.221281 -0.0518649 0)
(-0.212871 -0.0574168 0)
(-0.203418 -0.0627461 0)
(-0.192855 -0.0676779 0)
(-0.181213 -0.0720556 0)
(-0.168519 -0.0756581 0)
(-0.154809 -0.0782594 0)
(-0.140244 -0.0796676 0)
(-0.124944 -0.0796494 0)
(-0.109167 -0.0780775 0)
(-0.0931626 -0.0747907 0)
(-0.0772319 -0.069778 0)
(-0.0617998 -0.0631511 0)
(-0.0473161 -0.0551683 0)
(-0.0340444 -0.0460625 0)
(-0.0222472 -0.0361464 0)
(-0.0121299 -0.0257966 0)
(-0.00381348 -0.0154093 0)
(0.00268129 -0.00536236 0)
(0.00742397 0.00400245 0)
(0.0105424 0.0123613 0)
(0.0121485 0.0193877 0)
(0.0122972 0.0246524 0)
(0.0109962 0.0276756 0)
(0.00834477 0.0279886 0)
(0.00468851 0.0246722 0)
(0.000572338 0.0136479 0)
(0.00128494 -0.012222 0)
(0.00480939 -0.0212191 0)
(0.00639079 -0.0202618 0)
(0.00678375 -0.0161081 0)
(0.00611965 -0.0108084 0)
(0.00458164 -0.00536064 0)
(0.00223449 -0.000127102 0)
(-0.000932863 0.00471915 0)
(-0.00498808 0.00913873 0)
(-0.0100369 0.0132072 0)
(-0.0162003 0.0170925 0)
(-0.0235908 0.021011 0)
(-0.0322931 0.0251707 0)
(-0.0423508 0.0297215 0)
(-0.0537534 0.0347218 0)
(-0.0664074 0.0401251 0)
(-0.0801611 0.0457909 0)
(-0.0947078 0.0514686 0)
(-0.109656 0.0569362 0)
(-0.124667 0.0618208 0)
(-0.139267 0.0658463 0)
(-0.152975 0.0688107 0)
(-0.165594 0.0706341 0)
(-0.1771 0.0713717 0)
(-0.187557 0.0711656 0)
(-0.197037 0.070156 0)
(-0.20563 0.0684744 0)
(-0.21342 0.0662439 0)
(-0.220482 0.0635621 0)
(-0.226865 0.0605103 0)
(-0.232624 0.0571543 0)
(-0.237797 0.0535417 0)
(-0.242426 0.049717 0)
(-0.246543 0.0457164 0)
(-0.250175 0.0415711 0)
(-0.253342 0.0373082 0)
(-0.256058 0.0329538 0)
(-0.25833 0.028526 0)
(-0.260173 0.0240267 0)
(-0.261586 0.01946 0)
(-0.26261 0.014762 0)
(-0.263214 0.0100042 0)
(-0.263396 0.00514839 0)
(-0.263138 0.000183364 0)
(-0.262432 -0.00492191 0)
(-0.261317 -0.0101744 0)
(-0.259766 -0.0156051 0)
(-0.257789 -0.0212436 0)
(-0.255347 -0.0271154 0)
(-0.252432 -0.0332449 0)
(-0.248968 -0.0395554 0)
(-0.244873 -0.0460456 0)
(-0.240062 -0.0526757 0)
(-0.234424 -0.0593761 0)
(-0.227774 -0.0660098 0)
(-0.219996 -0.0724142 0)
(-0.210963 -0.078395 0)
(-0.200701 -0.0838282 0)
(-0.189299 -0.088546 0)
(-0.176606 -0.0921819 0)
(-0.162809 -0.0945257 0)
(-0.147924 -0.0952475 0)
(-0.132231 -0.0941853 0)
(-0.115912 -0.0911209 0)
(-0.0993159 -0.0859862 0)
(-0.082761 -0.0787902 0)
(-0.0667947 -0.0698018 0)
(-0.0519079 -0.0593908 0)
(-0.0383829 -0.0479013 0)
(-0.0265091 -0.0357815 0)
(-0.0164942 -0.0235274 0)
(-0.00843298 -0.0116296 0)
(-0.00229947 -0.000524065 0)
(0.00205902 0.0094309 0)
(0.00483913 0.0179238 0)
(0.00618362 0.024587 0)
(0.00617826 0.0289679 0)
(0.0048881 0.0304559 0)
(0.00270459 0.0278426 0)
(0.00010798 0.0156521 0)
(0.00138152 -0.0150943 0)
(0.00377924 -0.0232105 0)
(0.00412282 -0.0207175 0)
(0.00327292 -0.0153045 0)
(0.00145988 -0.0091188 0)
(-0.00117408 -0.00285461 0)
(-0.00462988 0.00320535 0)
(-0.00896601 0.00894201 0)
(-0.0142824 0.0143523 0)
(-0.0206944 0.0195307 0)
(-0.028313 0.0246417 0)
(-0.0372245 0.0298754 0)
(-0.0474714 0.0353931 0)
(-0.059036 0.0412784 0)
(-0.0718211 0.0475226 0)
(-0.0856421 0.0539753 0)
(-0.100155 0.0603768 0)
(-0.114999 0.0664491 0)
(-0.129723 0.0718104 0)
(-0.143831 0.076151 0)
(-0.156939 0.079249 0)
(-0.168948 0.0810944 0)
(-0.179875 0.0817956 0)
(-0.189783 0.0815039 0)
(-0.198764 0.0803565 0)
(-0.206905 0.0784979 0)
(-0.214294 0.0760496 0)
(-0.220995 0.0731199 0)
(-0.22706 0.0697918 0)
(-0.232527 0.0661373 0)
(-0.237435 0.0622145 0)
(-0.241815 0.0580708 0)
(-0.245694 0.0537486 0)
(-0.249093 0.0492866 0)
(-0.252028 0.0447231 0)
(-0.254509 0.0400827 0)
(-0.256652 0.0353006 0)
(-0.258443 0.0304445 0)
(-0.259891 0.0255124 0)
(-0.260998 0.0205045 0)
(-0.261748 0.0154682 0)
(-0.262157 0.0103234 0)
(-0.262228 0.00508237 0)
(-0.261969 -0.000278495 0)
(-0.261374 -0.00577353 0)
(-0.260466 -0.0114115 0)
(-0.259231 -0.0172215 0)
(-0.257662 -0.0232167 0)
(-0.25574 -0.0294064 0)
(-0.253435 -0.0358062 0)
(-0.25074 -0.0425183 0)
(-0.247626 -0.0495125 0)
(-0.244051 -0.0567781 0)
(-0.239956 -0.0642827 0)
(-0.235263 -0.0719922 0)
(-0.229859 -0.079722 0)
(-0.223469 -0.0872078 0)
(-0.215759 -0.0941606 0)
(-0.206395 -0.100141 0)
(-0.195393 -0.10495 0)
(-0.183067 -0.108538 0)
(-0.169228 -0.110355 0)
(-0.154174 -0.110215 0)
(-0.138026 -0.107791 0)
(-0.121137 -0.102969 0)
(-0.103809 -0.0956806 0)
(-0.086493 -0.0860131 0)
(-0.0698951 -0.0744516 0)
(-0.0545292 -0.0614977 0)
(-0.0407188 -0.0476147 0)
(-0.02878 -0.0333998 0)
(-0.0189168 -0.0194747 0)
(-0.0111866 -0.00641701 0)
(-0.00548439 0.00530624 0)
(-0.00157806 0.0153366 0)
(0.000807665 0.0233796 0)
(0.00187465 0.0290264 0)
(0.0017757 0.0316088 0)
(0.00084392 0.0295158 0)
(-0.000267786 0.0164277 0)
(0.00128447 -0.0174571 0)
(0.00232955 -0.0239076 0)
(0.00136168 -0.0198131 0)
(-0.00071539 -0.0133418 0)
(-0.00366293 -0.00631309 0)
(-0.0074119 0.000768796 0)
(-0.012008 0.00770025 0)
(-0.0175431 0.0144016 0)
(-0.0241269 0.0208874 0)
(-0.0318638 0.0272506 0)
(-0.0408368 0.0336338 0)
(-0.0510881 0.0401826 0)
(-0.0625974 0.0469914 0)
(-0.0752893 0.0540778 0)
(-0.0889683 0.0613145 0)
(-0.103262 0.0684373 0)
(-0.117819 0.0751083 0)
(-0.132161 0.0809617 0)
(-0.145747 0.08564 0)
(-0.158349 0.0889747 0)
(-0.169859 0.0909621 0)
(-0.180306 0.0917453 0)
(-0.189758 0.0914545 0)
(-0.198311 0.090258 0)
(-0.206052 0.088294 0)
(-0.213059 0.0856981 0)
(-0.219392 0.0825749 0)
(-0.225097 0.079018 0)
(-0.23021 0.0751017 0)
(-0.234765 0.0708928 0)
(-0.238792 0.0664466 0)
(-0.24232 0.0618118 0)
(-0.245373 0.0570318 0)
(-0.24801 0.0521171 0)
(-0.25028 0.0470926 0)
(-0.252206 0.0419874 0)
(-0.253753 0.0368722 0)
(-0.254934 0.0317004 0)
(-0.255769 0.0264732 0)
(-0.256278 0.0211867 0)
(-0.256513 0.0158374 0)
(-0.256497 0.0104066 0)
(-0.256257 0.00488993 0)
(-0.255819 -0.000734649 0)
(-0.255195 -0.00648369 0)
(-0.254349 -0.0123888 0)
(-0.253311 -0.0184801 0)
(-0.252073 -0.0247872 0)
(-0.250634 -0.0313354 0)
(-0.24898 -0.0381424 0)
(-0.247098 -0.0452197 0)
(-0.244954 -0.0525691 0)
(-0.242502 -0.0601821 0)
(-0.239679 -0.0680206 0)
(-0.236392 -0.0760116 0)
(-0.232544 -0.0842182 0)
(-0.228125 -0.092622 0)
(-0.22295 -0.100983 0)
(-0.216778 -0.108911 0)
(-0.209141 -0.115872 0)
(-0.199276 -0.121058 0)
(-0.187362 -0.124286 0)
(-0.173787 -0.125532 0)
(-0.15853 -0.124257 0)
(-0.141957 -0.120272 0)
(-0.124405 -0.113446 0)
(-0.106214 -0.103698 0)
(-0.0880368 -0.0913335 0)
(-0.0707193 -0.077037 0)
(-0.0548439 -0.0614826 0)
(-0.040776 -0.0452686 0)
(-0.0288541 -0.0291546 0)
(-0.0192626 -0.0138863 0)
(-0.0119968 -0.00011194 0)
(-0.00685249 0.0116833 0)
(-0.00347502 0.021187 0)
(-0.00150951 0.0280606 0)
(-0.000636342 0.0315698 0)
(-0.000471366 0.0299007 0)
(-0.000382456 0.0162819 0)
(0.00103307 -0.0187755 0)
(0.000600362 -0.023201 0)
(-0.00170336 -0.0176106 0)
(-0.00495558 -0.0102165 0)
(-0.00902959 -0.00238407 0)
(-0.0138991 0.00552648 0)
(-0.0196365 0.0133691 0)
(-0.0263502 0.0210864 0)
(-0.0341419 0.0286904 0)
(-0.0430899 0.0362535 0)
(-0.0532353 0.0438785 0)
(-0.0645608 0.0516495 0)
(-0.0770071 0.0596012 0)
(-0.0904011 0.0676363 0)
(-0.104375 0.0754826 0)
(-0.118534 0.0827939 0)
(-0.13243 0.0891947 0)
(-0.145578 0.0943073 0)
(-0.157742 0.0979827 0)
(-0.168841 0.100245 0)
(-0.178875 0.101189 0)
(-0.187937 0.100992 0)
(-0.196107 0.0998131 0)
(-0.203474 0.0978126 0)
(-0.210102 0.0951182 0)
(-0.21605 0.0918478 0)
(-0.221356 0.0880938 0)
(-0.226057 0.0839417 0)
(-0.230187 0.0794626 0)
(-0.233781 0.0747215 0)
(-0.236875 0.0697729 0)
(-0.239505 0.0646646 0)
(-0.241713 0.0594351 0)
(-0.243516 0.0541318 0)
(-0.244928 0.0487723 0)
(-0.245998 0.0433587 0)
(-0.246738 0.037909 0)
(-0.247213 0.0324195 0)
(-0.24746 0.0269044 0)
(-0.247522 0.021364 0)
(-0.247386 0.0157927 0)
(-0.247084 0.0101697 0)
(-0.24663 0.00448043 0)
(-0.24604 -0.00129954 0)
(-0.245319 -0.00719214 0)
(-0.244473 -0.0132329 0)
(-0.243524 -0.0194482 0)
(-0.242477 -0.0258715 0)
(-0.241341 -0.0325343 0)
(-0.240119 -0.0394699 0)
(-0.238808 -0.0467098 0)
(-0.237401 -0.054277 0)
(-0.235874 -0.0621862 0)
(-0.234187 -0.0704296 0)
(-0.232268 -0.0789655 0)
(-0.230026 -0.0877099 0)
(-0.227344 -0.0965462 0)
(-0.224051 -0.10531 0)
(-0.21996 -0.114031 0)
(-0.215003 -0.122541 0)
(-0.208776 -0.130218 0)
(-0.200665 -0.136211 0)
(-0.189646 -0.139334 0)
(-0.17631 -0.139768 0)
(-0.160903 -0.137208 0)
(-0.143868 -0.131491 0)
(-0.125509 -0.122365 0)
(-0.106363 -0.109926 0)
(-0.0872324 -0.0946576 0)
(-0.0691486 -0.0775073 0)
(-0.0527894 -0.0593507 0)
(-0.0385612 -0.0409475 0)
(-0.0268078 -0.0232298 0)
(-0.0176662 -0.00705947 0)
(-0.0110375 0.00686184 0)
(-0.00657068 0.0180726 0)
(-0.00375877 0.0262503 0)
(-0.00215175 0.0305505 0)
(-0.00115556 0.0293243 0)
(-0.000354922 0.0156835 0)
(0.000710564 -0.0191089 0)
(-0.0013067 -0.0210877 0)
(-0.00487553 -0.014184 0)
(-0.00926582 -0.00593938 0)
(-0.0144498 0.002664 0)
(-0.0204147 0.0114045 0)
(-0.0272544 0.0201778 0)
(-0.0350749 0.0289265 0)
(-0.043957 0.0376406 0)
(-0.0539422 0.0463548 0)
(-0.0650188 0.0551177 0)
(-0.0771403 0.0639624 0)
(-0.0901614 0.0728204 0)
(-0.103745 0.081426 0)
(-0.117479 0.0894215 0)
(-0.130929 0.0964323 0)
(-0.143689 0.102105 0)
(-0.155487 0.106251 0)
(-0.16623 0.108881 0)
(-0.175925 0.110096 0)
(-0.184638 0.110071 0)
(-0.192464 0.108988 0)
(-0.19947 0.107003 0)
(-0.205723 0.10426 0)
(-0.211266 0.100874 0)
(-0.216141 0.0969505 0)
(-0.220383 0.0925799 0)
(-0.22403 0.0878461 0)
(-0.227122 0.0828222 0)
(-0.229701 0.077575 0)
(-0.231813 0.0721612 0)
(-0.2335 0.0666285 0)
(-0.234807 0.0610144 0)
(-0.235774 0.0553502 0)
(-0.236444 0.0496565 0)
(-0.236862 0.0439497 0)
(-0.237058 0.0382467 0)
(-0.23707 0.0325489 0)
(-0.236918 0.0268545 0)
(-0.236623 0.0211544 0)
(-0.236198 0.015438 0)
(-0.235661 0.00968675 0)
(-0.235024 0.0038818 0)
(-0.234302 -0.0019999 0)
(-0.233503 -0.00798155 0)
(-0.232642 -0.0140959 0)
(-0.231734 -0.0203714 0)
(-0.230793 -0.0268404 0)
(-0.229834 -0.0335357 0)
(-0.228869 -0.040492 0)
(-0.22791 -0.0477441 0)
(-0.226965 -0.0553237 0)
(-0.226035 -0.0632582 0)
(-0.225106 -0.0715663 0)
(-0.224145 -0.0802545 0)
(-0.223095 -0.0893087 0)
(-0.221864 -0.0986658 0)
(-0.220309 -0.108187 0)
(-0.218244 -0.117651 0)
(-0.215429 -0.126785 0)
(-0.21154 -0.135427 0)
(-0.206453 -0.143501 0)
(-0.199578 -0.149885 0)
(-0.189869 -0.153332 0)
(-0.176794 -0.152845 0)
(-0.161299 -0.148985 0)
(-0.143649 -0.141257 0)
(-0.124373 -0.129596 0)
(-0.104177 -0.114232 0)
(-0.08405 -0.0958787 0)
(-0.0652271 -0.0758004 0)
(-0.0484938 -0.0551105 0)
(-0.0342905 -0.0347649 0)
(-0.0229318 -0.0158714 0)
(-0.0144684 0.000602608 0)
(-0.00865486 0.0139407 0)
(-0.00491139 0.0236827 0)
(-0.00271681 0.0288479 0)
(-0.0012198 0.0281663 0)
(-0.000180485 0.0148752 0)
(0.000126032 -0.0182599 0)
(-0.00330581 -0.0176335 0)
(-0.00803181 -0.00954981 0)
(-0.0135068 -0.000548017 0)
(-0.0197532 0.00879089 0)
(-0.0267557 0.0183501 0)
(-0.0346151 0.0280463 0)
(-0.0434256 0.0378012 0)
(-0.0532371 0.047566 0)
(-0.0640461 0.0573256 0)
(-0.0758153 0.0670835 0)
(-0.088427 0.0767883 0)
(-0.101586 0.0861897 0)
(-0.114891 0.0949303 0)
(-0.127928 0.102634 0)
(-0.140339 0.10897 0)
(-0.151839 0.113718 0)
(-0.162286 0.116828 0)
(-0.171694 0.118419 0)
(-0.180113 0.118658 0)
(-0.187625 0.117738 0)
(-0.1943 0.11583 0)
(-0.200189 0.113078 0)
(-0.205338 0.109612 0)
(-0.209784 0.105541 0)
(-0.21357 0.10097 0)
(-0.216739 0.0959929 0)
(-0.219342 0.0906963 0)
(-0.221434 0.0851577 0)
(-0.22307 0.0794456 0)
(-0.224306 0.0736166 0)
(-0.225195 0.0677173 0)
(-0.225788 0.061783 0)
(-0.226129 0.055842 0)
(-0.226262 0.0499137 0)
(-0.22622 0.0440118 0)
(-0.226029 0.0381434 0)
(-0.225712 0.0323034 0)
(-0.225284 0.0264856 0)
(-0.224759 0.0206777 0)
(-0.224149 0.0148656 0)
(-0.223465 0.00903132 0)
(-0.22272 0.0031551 0)
(-0.221921 -0.00278542 0)
(-0.221082 -0.00881427 0)
(-0.220213 -0.0149606 0)
(-0.219331 -0.0212528 0)
(-0.21845 -0.0277224 0)
(-0.217589 -0.0344018 0)
(-0.216765 -0.0413256 0)
(-0.215999 -0.048529 0)
(-0.215308 -0.0560464 0)
(-0.214707 -0.06391 0)
(-0.214206 -0.0721472 0)
(-0.213799 -0.0807795 0)
(-0.21347 -0.0898179 0)
(-0.213171 -0.0992517 0)
(-0.212817 -0.109037 0)
(-0.212269 -0.119073 0)
(-0.211318 -0.129148 0)
(-0.209681 -0.138901 0)
(-0.206995 -0.147881 0)
(-0.202825 -0.155944 0)
(-0.196863 -0.162539 0)
(-0.188127 -0.166015 0)
(-0.175401 -0.164798 0)
(-0.159688 -0.159431 0)
(-0.141281 -0.149454 0)
(-0.120968 -0.134985 0)
(-0.0996506 -0.116447 0)
(-0.0785578 -0.0948485 0)
(-0.0591268 -0.0718265 0)
(-0.0422473 -0.0487798 0)
(-0.0283613 -0.0268897 0)
(-0.017704 -0.00744746 0)
(-0.0101876 0.00852753 0)
(-0.00529738 0.0202889 0)
(-0.00248149 0.0267338 0)
(-0.000786724 0.0268604 0)
(7.68806e-05 0.0143131 0)
(-0.000458446 -0.0161577 0)
(-0.00525763 -0.0128839 0)
(-0.0110526 -0.00379078 0)
(-0.0175446 0.00588867 0)
(-0.0247795 0.0159224 0)
(-0.0327306 0.0262738 0)
(-0.0414957 0.0368557 0)
(-0.0511487 0.0475528 0)
(-0.0617027 0.0582659 0)
(-0.073128 0.0689357 0)
(-0.0853296 0.0795 0)
(-0.0980578 0.0897223 0)
(-0.110946 0.099264 0)
(-0.12361 0.107746 0)
(-0.135712 0.114843 0)
(-0.14697 0.120309 0)
(-0.157196 0.124033 0)
(-0.166372 0.126107 0)
(-0.174552 0.126711 0)
(-0.181798 0.126034 0)
(-0.188179 0.124265 0)
(-0.193742 0.121557 0)
(-0.198531 0.118048 0)
(-0.202588 0.113863 0)
(-0.205958 0.109118 0)
(-0.208698 0.103922 0)
(-0.210869 0.0983749 0)
(-0.212539 0.0925685 0)
(-0.213773 0.0865819 0)
(-0.214638 0.0804822 0)
(-0.215192 0.0743232 0)
(-0.215489 0.0681462 0)
(-0.215578 0.0619817 0)
(-0.215497 0.0558516 0)
(-0.215279 0.0497684 0)
(-0.214947 0.0437377 0)
(-0.21452 0.0377592 0)
(-0.214012 0.031825 0)
(-0.213432 0.0259249 0)
(-0.21279 0.0200456 0)
(-0.212093 0.0141713 0)
(-0.211347 0.00828375 0)
(-0.210559 0.00236331 0)
(-0.209738 -0.00361165 0)
(-0.208891 -0.00966444 0)
(-0.20803 -0.015821 0)
(-0.207169 -0.0221082 0)
(-0.206323 -0.0285552 0)
(-0.205511 -0.0351924 0)
(-0.204756 -0.0420528 0)
(-0.204079 -0.0491706 0)
(-0.203506 -0.056581 0)
(-0.20306 -0.0643194 0)
(-0.202763 -0.0724196 0)
(-0.20263 -0.0809121 0)
(-0.202666 -0.08982 0)
(-0.20286 -0.0991529 0)
(-0.203173 -0.108901 0)
(-0.203531 -0.119025 0)
(-0.203799 -0.129435 0)
(-0.203766 -0.139959 0)
(-0.20312 -0.150261 0)
(-0.201453 -0.159771 0)
(-0.198216 -0.167852 0)
(-0.192892 -0.174331 0)
(-0.184705 -0.177592 0)
(-0.172221 -0.175567 0)
(-0.156083 -0.168456 0)
(-0.136764 -0.155931 0)
(-0.115299 -0.138319 0)
(-0.0928466 -0.116332 0)
(-0.0709215 -0.0913534 0)
(-0.051159 -0.0654819 0)
(-0.0345096 -0.0404093 0)
(-0.0213587 -0.0176146 0)
(-0.0118043 0.00151307 0)
(-0.00548177 0.0159 0)
(-0.0019009 0.0242642 0)
(-7.47485e-05 0.0256761 0)
(0.000370238 0.0142436 0)
(-0.00104687 -0.012888 0)
(-0.00708705 -0.00695618 0)
(-0.0138448 0.00301178 0)
(-0.0212629 0.0132892 0)
(-0.0293915 0.0239661 0)
(-0.0381777 0.0350605 0)
(-0.0477117 0.0464623 0)
(-0.0580419 0.0580054 0)
(-0.0691539 0.0695422 0)
(-0.080971 0.080956 0)
(-0.0932839 0.0920071 0)
(-0.105779 0.102388 0)
(-0.118112 0.111721 0)
(-0.129948 0.119668 0)
(-0.141012 0.125961 0)
(-0.151085 0.130431 0)
(-0.160101 0.133115 0)
(-0.168101 0.134187 0)
(-0.175143 0.133849 0)
(-0.181285 0.132292 0)
(-0.18658 0.12969 0)
(-0.191067 0.126191 0)
(-0.194793 0.121936 0)
(-0.197815 0.117054 0)
(-0.200197 0.111672 0)
(-0.202013 0.105907 0)
(-0.20334 0.099862 0)
(-0.204255 0.0936301 0)
(-0.204829 0.0872869 0)
(-0.205128 0.0808936 0)
(-0.205208 0.0744966 0)
(-0.205116 0.0681291 0)
(-0.20489 0.0618136 0)
(-0.204559 0.0555633 0)
(-0.204146 0.0493833 0)
(-0.203666 0.0432727 0)
(-0.20313 0.0372258 0)
(-0.202544 0.0312326 0)
(-0.201913 0.02528 0)
(-0.201241 0.0193532 0)
(-0.20053 0.0134365 0)
(-0.199782 0.00751161 0)
(-0.199003 0.00155951 0)
(-0.198196 -0.00444009 0)
(-0.197368 -0.0105087 0)
(-0.196528 -0.0166693 0)
(-0.195689 -0.0229462 0)
(-0.194865 -0.0293653 0)
(-0.194076 -0.0359541 0)
(-0.193343 -0.0427424 0)
(-0.192692 -0.049762 0)
(-0.19215 -0.0570467 0)
(-0.191748 -0.0646321 0)
(-0.191514 -0.0725552 0)
(-0.191476 -0.0808526 0)
(-0.191656 -0.0895581 0)
(-0.192062 -0.0986982 0)
(-0.192686 -0.108286 0)
(-0.193495 -0.118312 0)
(-0.194413 -0.128732 0)
(-0.195312 -0.139454 0)
(-0.195978 -0.15031 0)
(-0.196089 -0.161001 0)
(-0.195187 -0.170972 0)
(-0.192687 -0.179381 0)
(-0.187824 -0.185467 0)
(-0.179821 -0.188184 0)
(-0.167313 -0.185115 0)
(-0.150506 -0.17593 0)
(-0.130108 -0.160444 0)
(-0.107415 -0.139294 0)
(-0.0838967 -0.11354 0)
(-0.0614359 -0.0851178 0)
(-0.0417963 -0.0566641 0)
(-0.0259347 -0.0301624 0)
(-0.0140824 -0.00736773 0)
(-0.00605897 0.0102827 0)
(-0.00148356 0.0213039 0)
(0.000593948 0.0246321 0)
(0.000578207 0.0146155 0)
(-0.00160524 -0.00851988 0)
(-0.0087294 2.96592e-05 0)
(-0.0163385 0.0107525 0)
(-0.0245797 0.0215497 0)
(-0.0334833 0.0328071 0)
(-0.0429725 0.0445772 0)
(-0.0531252 0.0567096 0)
(-0.0639642 0.0689877 0)
(-0.0754366 0.0811967 0)
(-0.0873634 0.0930626 0)
(-0.0994979 0.104294 0)
(-0.111537 0.114529 0)
(-0.12315 0.123401 0)
(-0.134066 0.130616 0)
(-0.144048 0.135955 0)
(-0.152981 0.139386 0)
(-0.160873 0.141049 0)
(-0.16778 0.141152 0)
(-0.173756 0.139901 0)
(-0.17885 0.137479 0)
(-0.183109 0.134056 0)
(-0.186583 0.129785 0)
(-0.189335 0.124815 0)
(-0.19144 0.119289 0)
(-0.192982 0.113341 0)
(-0.194047 0.107092 0)
(-0.194721 0.100644 0)
(-0.195082 0.0940841 0)
(-0.195198 0.0874804 0)
(-0.195127 0.0808842 0)
(-0.194916 0.0743315 0)
(-0.194603 0.0678462 0)
(-0.194214 0.0614415 0)
(-0.19377 0.0551229 0)
(-0.193283 0.0488888 0)
(-0.19276 0.0427332 0)
(-0.192207 0.0366466 0)
(-0.191623 0.0306167 0)
(-0.19101 0.0246297 0)
(-0.190365 0.0186689 0)
(-0.189689 0.0127186 0)
(-0.188981 0.0067623 0)
(-0.188242 0.000781508 0)
(-0.187475 -0.00524205 0)
(-0.186684 -0.0113277 0)
(-0.185876 -0.0174956 0)
(-0.185063 -0.0237668 0)
(-0.184258 -0.0301638 0)
(-0.183477 -0.0367103 0)
(-0.182744 -0.0434325 0)
(-0.182082 -0.0503583 0)
(-0.181521 -0.0575187 0)
(-0.181093 -0.0649475 0)
(-0.180833 -0.0726813 0)
(-0.180775 -0.0807593 0)
(-0.180952 -0.0892217 0)
(-0.181389 -0.0981073 0)
(-0.1821 -0.107449 0)
(-0.18308 -0.117265 0)
(-0.184293 -0.127551 0)
(-0.185659 -0.138261 0)
(-0.18704 -0.149288 0)