/*--------------------------------*- C++ -*----------------------------------*\
  =========                 |
  \\      /  F ield         | OpenFOAM: The Open Source CFD Toolbox
   \\    /   O peration     | Website:  https://openfoam.org
    \\  /    A nd           | Version:  13
     \\/     M anipulation  |
\*---------------------------------------------------------------------------*/
FoamFile
{
    format      ascii;
    class       volScalarField;
    location    "8.5";
    object      epsilon;
}
// * * * * * * * * * * * * * * * * * * * * * * * * * * * * * * * * * * * * * //

dimensions      [0 2 -3 0 0 0 0];

internalField   nonuniform List<scalar> 
400
(
2.11531e-05
7.2289e-05
0.000298493
0.000617958
0.000831835
0.000994648
0.0011268
0.00125326
0.00136401
0.00147749
0.00158355
0.00169568
0.0018083
0.00188183
0.00191507
0.00191702
0.00177158
0.001395
0.000861002
0.000621649
9.54867e-05
0.000275414
0.000726527
0.00100834
0.00107316
0.00109804
0.00110599
0.00114808
0.00119658
0.0012845
0.00139323
0.00153553
0.00170382
0.00190317
0.00212255
0.00233706
0.00243682
0.00244198
0.00191907
0.00126278
0.00031611
0.000831898
0.00105592
0.00108475
0.00106152
0.0010471
0.00103847
0.00107356
0.00113381
0.0012109
0.0012997
0.00139926
0.00151787
0.00166487
0.00184727
0.00206918
0.00226218
0.00233873
0.00215022
0.00162025
0.000710764
0.00111506
0.001132
0.00105097
0.000988428
0.000949545
0.000941257
0.00095927
0.000986336
0.00101553
0.00105494
0.00111615
0.00121237
0.00135421
0.00156327
0.00184695
0.00216064
0.0023047
0.00225854
0.0018514
0.00102171
0.00126383
0.00110495
0.000963381
0.00086795
0.000819387
0.00079022
0.000768793
0.0007497
0.000741457
0.000742546
0.000782073
0.00086468
0.00101261
0.00125523
0.00162066
0.00210415
0.0023936
0.00243127
0.00202393
0.00118513
0.0012569
0.00103266
0.000851866
0.000753213
0.000688487
0.000630827
0.00057381
0.000521168
0.000488394
0.00047602
0.000488407
0.000558164
0.000696227
0.000946949
0.00136554
0.00199413
0.00254184
0.00267957
0.00216295
0.00121147
0.00121008
0.000932401
0.000754335
0.00065289
0.000572683
0.000493696
0.00041658
0.000350421
0.000308219
0.000290444
0.000289122
0.00033876
0.00045212
0.000679223
0.00110572
0.00183273
0.00268084
0.00296493
0.00227039
0.00119289
0.00111293
0.000841214
0.000674286
0.000572357
0.000482503
0.000392735
0.000309567
0.00024336
0.000202127
0.000183894
0.000180591
0.000211156
0.000292231
0.000476558
0.000869079
0.00162545
0.00275272
0.00331451
0.00235811
0.00114624
0.00100372
0.000762683
0.000611952
0.000512525
0.000419243
0.000327055
0.000245724
0.000184659
0.000148404
0.000132778
0.000130211
0.000150405
0.000206167
0.000344659
0.000688889
0.00146232
0.00277162
0.00365894
0.00241891
0.00105582
0.000911512
0.000699518
0.00056536
0.000470826
0.000379319
0.000289695
0.000212842
0.000157811
0.0001257
0.000111914
0.000110774
0.000125441
0.000166187
0.000269729
0.000553379
0.00129491
0.00276499
0.00402538
0.0024647
0.000961948
0.000831643
0.000649727
0.000531426
0.000443661
0.000356835
0.000272819
0.000203778
0.000153972
0.000123251
0.000108038
0.000106879
0.00011839
0.000151509
0.000235583
0.000473856
0.00115984
0.00272499
0.00435067
0.00248674
0.000879809
0.000781808
0.000615128
0.000508913
0.000427273
0.000348606
0.000273667
0.000208109
0.000160203
0.000130189
0.000114997
0.000113912
0.000122078
0.000149338
0.000224725
0.000436855
0.00106363
0.00269888
0.00463504
0.00249615
0.000791435
0.000739353
0.000596392
0.000497133
0.000423213
0.000351038
0.000280788
0.000220747
0.000176221
0.000147362
0.000131525
0.000130708
0.000138092
0.000162609
0.000228588
0.00042522
0.00101873
0.0026875
0.0047791
0.00249775
0.000709137
0.000719793
0.000603328
0.00050226
0.000429005
0.000360669
0.000297268
0.000243764
0.000202554
0.000174848
0.000157744
0.000156902
0.000164185
0.000188877
0.000254566
0.000441239
0.00100538
0.00268796
0.00483367
0.00249131
0.000615898
0.000693188
0.000618149
0.000520319
0.000447311
0.000382005
0.000323306
0.000274105
0.00023588
0.000210191
0.000192617
0.000192638
0.000200657
0.000227814
0.000298712
0.000494418
0.00104615
0.0027437
0.00479571
0.002444
0.000519981
0.000682576
0.000651587
0.000570111
0.000492773
0.000426751
0.000368469
0.000319785
0.000281435
0.000255891
0.000238006
0.000238992
0.0002498
0.00028412
0.000370401
0.000598873
0.00117458
0.00287009
0.00452906
0.00236107
0.000412799
0.000632718
0.000664248
0.000636047
0.00057587
0.000510722
0.000448975
0.000395704
0.00035386
0.000324918
0.000309362
0.000313551
0.000333114
0.000388304
0.000516841
0.000836961
0.00149407
0.00314677
0.00408433
0.00222172
0.000275729
0.000562288
0.000736208
0.000787345
0.000768597
0.000713682
0.000643233
0.00057986
0.000532949
0.000501223
0.000503435
0.000525711
0.00058347
0.000715173
0.000984701
0.0016092
0.00241685
0.00369362
0.00380286
0.0020365
0.000296559
0.000570024
0.000964178
0.00114529
0.00120584
0.00119976
0.00117551
0.00116425
0.00118006
0.00123123
0.00134088
0.00154659
0.00183501
0.00230283
0.00290736
0.00383156
0.0045113
0.0043493
0.00376704
0.00177244
0.000214125
0.000334276
0.000611296
0.000881277
0.00108553
0.00121329
0.00128448
0.00132852
0.00134933
0.00136319
0.00136925
0.00138155
0.00139354
0.00142036
0.00144122
0.00149557
0.00156224
0.00163794
0.00162097
0.00144884
)
;

boundaryField
{
    movingWall
    {
        type            epsilonWallFunction;
        value           nonuniform List<scalar> 
20
(
0.000214125
0.000334276
0.000611296
0.000881277
0.00108553
0.00121329
0.00128448
0.00132852
0.00134933
0.00136319
0.00136925
0.00138155
0.00139354
0.00142036
0.00144122
0.00149557
0.00156224
0.00163794
0.00162097
0.00144884
)
;
    }
    fixedWalls
    {
        type            epsilonWallFunction;
        value           nonuniform List<scalar> 
60
(
2.11531e-05
9.54867e-05
0.00031611
0.000710764
0.00102171
0.00118513
0.00121147
0.00119289
0.00114624
0.00105582
0.000961948
0.000879809
0.000791435
0.000709137
0.000615898
0.000519981
0.000412799
0.000275729
0.000296559
0.000214125
0.000621649
0.00126278
0.00162025
0.0018514
0.00202393
0.00216295
0.00227039
0.00235811
0.00241891
0.0024647
0.00248674
0.00249615
0.00249775
0.00249131
0.002444
0.00236107
0.00222172
0.0020365
0.00177244
0.00144884
2.11531e-05
7.2289e-05
0.000298493
0.000617958
0.000831835
0.000994648
0.0011268
0.00125326
0.00136401
0.00147749
0.00158355
0.00169568
0.0018083
0.00188183
0.00191507
0.00191702
0.00177158
0.001395
0.000861002
0.000621649
)
;
    }
    frontAndBack
    {
        type            empty;
    }
}


// ************************************************************************* //
