/*--------------------------------*- C++ -*----------------------------------*\
  =========                 |
  \\      /  F ield         | OpenFOAM: The Open Source CFD Toolbox
   \\    /   O peration     | Website:  https://openfoam.org
    \\  /    A nd           | Version:  13
     \\/     M anipulation  |
\*---------------------------------------------------------------------------*/
FoamFile
{
    format      ascii;
    class       volScalarField;
    location    "8.5";
    object      k;
}
// * * * * * * * * * * * * * * * * * * * * * * * * * * * * * * * * * * * * * //

dimensions      [0 2 -2 0 0 0 0];

internalField   nonuniform List<scalar> 
1600
(
2.2792e-06
7.71829e-06
1.49816e-05
1.48843e-05
1.3561e-05
1.38628e-05
1.79087e-05
3.05699e-05
4.61864e-05
6.82142e-05
0.000104122
0.00012823
0.000139672
0.000154679
0.000178695
0.00020971
0.000238182
0.000271137
0.000302666
0.000339044
0.000376041
0.00041859
0.000464478
0.000518185
0.000580663
0.0006354
0.00069174
0.000739314
0.000780712
0.00080296
0.000811776
0.000795168
0.000731271
0.000622476
0.000469164
0.000279414
0.000136595
5.76694e-05
1.84896e-05
3.85691e-06
1.10081e-05
4.95964e-05
9.46929e-05
0.000100719
9.76606e-05
0.000104333
0.000147604
0.000253162
0.000355583
0.000494782
0.000704224
0.000801883
0.00082025
0.000820667
0.000819976
0.000857918
0.000876609
0.000921037
0.000953587
0.00100403
0.00105096
0.00110866
0.00116475
0.00122273
0.00127579
0.00134378
0.00140863
0.00147891
0.00153756
0.00157202
0.00158419
0.00154818
0.00143977
0.00124387
0.000981007
0.000606219
0.000276107
0.0001159
4.10512e-05
6.58103e-06
3.32364e-05
0.000129963
0.00020303
0.000216119
0.000235182
0.000309312
0.000512446
0.000830972
0.00108085
0.00116674
0.00110093
0.00098869
0.000934941
0.0009159
0.000910962
0.000916309
0.000926885
0.000945587
0.00096569
0.000993679
0.00101878
0.00104694
0.00107608
0.00110945
0.00114516
0.00118426
0.00122431
0.00126613
0.00130665
0.0013451
0.00136643
0.00137468
0.00135812
0.00124764
0.00106092
0.000683398
0.000255446
9.49327e-05
3.67989e-05
5.38775e-06
7.61703e-05
0.000266987
0.00036727
0.000408389
0.00050929
0.000748406
0.00109481
0.00127306
0.0012961
0.0011486
0.00103699
0.000951578
0.000914868
0.000900059
0.000894932
0.000894761
0.000900436
0.000910152
0.000921153
0.000935425
0.000951722
0.000972474
0.000993266
0.00101697
0.00104131
0.00106747
0.00109457
0.00112251
0.00114949
0.0011743
0.00119191
0.00120021
0.00120211
0.00118042
0.00111967
0.000942417
0.000409468
9.87942e-05
2.72248e-05
3.68659e-06
0.000143333
0.000465734
0.000601883
0.000696687
0.000897239
0.00119933
0.00134692
0.00135429
0.00121805
0.00102795
0.000933675
0.000888055
0.00086673
0.00085694
0.000853529
0.000855068
0.000867159
0.0008796
0.000896227
0.000913191
0.000931406
0.000949529
0.000968034
0.000987535
0.00100851
0.0010317
0.00105722
0.00108459
0.00111163
0.00113365
0.00114889
0.00115624
0.0011586
0.00115038
0.00112189
0.00105066
0.000791457
0.000217599
3.71426e-05
4.20701e-06
0.000239001
0.000711256
0.000884154
0.00101934
0.00123755
0.00136343
0.0013737
0.00125971
0.00102535
0.000910601
0.000857275
0.000832575
0.000822501
0.000819943
0.00082554
0.000838517
0.000854304
0.000869995
0.000886525
0.000902556
0.000918902
0.00093514
0.00095246
0.000971205
0.00099268
0.00101739
0.00104593
0.0010782
0.00111329
0.0011492
0.00116867
0.00117379
0.00117144
0.00115698
0.00112612
0.00107333
0.000936926
0.000451551
8.01787e-05
7.80168e-06
0.000359273
0.000964028
0.00116629
0.00128307
0.00137078
0.00138312
0.0012888
0.00104521
0.000897366
0.000833249
0.00080536
0.000794846
0.000792601
0.000799424
0.000811983
0.00082532
0.000837976
0.000849714
0.000860805
0.000870547
0.000880605
0.000892549
0.000907643
0.000926879
0.000950975
0.000980996
0.00101747
0.00106044
0.00110884
0.00115983
0.00121239
0.00125006
0.00125877
0.00124985
0.00120578
0.00111859
0.000988436
0.000710403
0.000163118
1.76155e-05
0.000487626
0.0012135
0.00138891
0.00142502
0.00141811
0.0013202
0.00109782
0.000902453
0.000818594
0.000784123
0.000771498
0.000768674
0.000773088
0.000783343
0.000791867
0.000798537
0.000802534
0.000804517
0.000805734
0.000807922
0.000812773
0.000821025
0.000834034
0.000852688
0.000878176
0.000911639
0.000954181
0.00100666
0.00106914
0.00113984
0.00121348
0.00128152
0.00132527
0.00133323
0.00132109
0.00124663
0.0010814
0.000811767
0.000279496
4.41061e-05
0.000597437
0.00141409
0.00154927
0.00151522
0.00138305
0.00117832
0.000935043
0.000818169
0.000769911
0.000752016
0.000747164
0.000747136
0.000752975
0.000755712
0.000756212
0.000752562
0.00074656
0.000739969
0.000734896
0.000732683
0.000732439
0.000738073
0.000749149
0.000766873
0.000792262
0.000826541
0.000871176
0.000927837
0.000998146
0.00108282
0.00117981
0.00128104
0.00136429
0.00140259
0.00140583
0.00136769
0.00123418
0.000964039
0.000508967
0.000120065
0.000677921
0.00154919
0.00165098
0.00151371
0.00129538
0.00102037
0.000841622
0.000766643
0.0007373
0.000727122
0.000724389
0.000723968
0.000723825
0.000717846
0.000708475
0.000695814
0.000682586
0.000670389
0.000660725
0.000655624
0.000653849
0.000656734
0.000666903
0.000683548
0.000708179
0.000741749
0.000785852
0.000842454
0.000914098
0.00100353
0.00111255
0.0012391
0.00137195
0.00146199
0.00148861
0.00147209
0.00135724
0.00108381
0.00062018
0.000214498
0.00073565
0.00163886
0.00171261
0.00148534
0.00117459
0.000908939
0.000783619
0.000731891
0.000711574
0.000703655
0.00070011
0.000695556
0.00068699
0.000672509
0.000655285
0.000636548
0.000618836
0.000603403
0.000591408
0.000584745
0.000582215
0.000583345
0.000592777
0.000608417
0.000632042
0.000664432
0.000707125
0.000762068
0.000832036
0.000920681
0.00103208
0.00116872
0.00132644
0.0014852
0.00156671
0.0015789
0.00150663
0.00124696
0.000764291
0.000305709
0.000766588
0.00167195
0.00171385
0.00142334
0.00106241
0.000839275
0.000743721
0.000704275
0.000687858
0.00068021
0.000673414
0.000662464
0.000646065
0.000625028
0.000602553
0.000580244
0.000560083
0.000543
0.000529824
0.000522148
0.000519088
0.000519048
0.000527454
0.000542073
0.00056451
0.000595577
0.000636689
0.000689677
0.000757245
0.000843365
0.000953551
0.00109406
0.00126824
0.00146751
0.00161744
0.00166172
0.00162309
0.00137901
0.000882625
0.000379125
0.000765515
0.00166806
0.00169695
0.00134658
0.000972972
0.000790364
0.000712792
0.000680002
0.00066529
0.000656213
0.000644602
0.000627331
0.000604888
0.000579433
0.000553838
0.000529636
0.000508247
0.000490336
0.000476478
0.000467803
0.00046403
0.000463489
0.000470409
0.000483917
0.000505025
0.000534674
0.000574179
0.000625226
0.000690248
0.000772955
0.000879041
0.00101645
0.00119346
0.00141104
0.00163895
0.00174693
0.00174828
0.00153277
0.00100275
0.000447788
0.000755851
0.00164788
0.00165656
0.00126536
0.000911151
0.000753485
0.000686859
0.000657776
0.000643765
0.000631859
0.000615315
0.000592853
0.000566223
0.000538057
0.00051077
0.000485649
0.000463667
0.000445296
0.000430936
0.00042134
0.000416896
0.000415901
0.000421303
0.000433566
0.000453247
0.00048139
0.000519293
0.00056858
0.000631485
0.000711414
0.000813887
0.000947665
0.00112468
0.00135488
0.00162952
0.00181688
0.00185077
0.00167117
0.00112242
0.0005112
0.000732759
0.00160373
0.00159619
0.00119377
0.000865306
0.000723813
0.000664167
0.000637572
0.000623267
0.000608098
0.000587279
0.000560971
0.000531648
0.000501944
0.00047383
0.000448326
0.000426094
0.000407476
0.000392768
0.000382402
0.000377349
0.000375932
0.000379954
0.000390873
0.000409032
0.000435524
0.00047169
0.000519153
0.000580016
0.000657322
0.000756026
0.000884567
0.00105626
0.00128703
0.00158185
0.00186055
0.00195324
0.001815
0.00124275
0.000573108
0.00069321
0.00154752
0.00152883
0.00113417
0.000829579
0.000699224
0.000644327
0.000619543
0.000604158
0.000585949
0.000561771
0.000532808
0.000501858
0.000471367
0.000442938
0.000417364
0.000395108
0.000376421
0.000361533
0.00035069
0.00034508
0.000343292
0.000346156
0.000355705
0.000372268
0.000396967
0.000431224
0.000476751
0.000535658
0.000610791
0.000706633
0.000831109
0.000998118
0.00122769
0.00153383
0.00187829
0.00203941
0.00195125
0.00136642
0.000633187
0.000647942
0.00148341
0.00145957
0.00108554
0.000801373
0.000678714
0.00062719
0.000603614
0.000586886
0.000566173
0.000539546
0.000508863
0.000477008
0.000446204
0.000417772
0.000392341
0.000370241
0.000351661
0.000336772
0.000325761
0.000319666
0.000317558
0.00031951
0.000327736
0.000342673
0.000365467
0.00039763
0.00044101
0.000497821
0.000570817
0.000664005
0.000784404
0.000945453
0.00117034
0.0014854
0.0018807
0.00212062
0.00208482
0.00149028
0.000692839
0.000594049
0.001421
0.00139334
0.00104672
0.000779545
0.000661999
0.000612686
0.000589768
0.000571775
0.0005492
0.000520931
0.000489228
0.000456958
0.000426146
0.000397919
0.000372787
0.000350997
0.000332685
0.00031797
0.000306986
0.000300516
0.000298121
0.000299389
0.000306403
0.000319748
0.000340598
0.000370547
0.000411602
0.000466188
0.000537151
0.00062824
0.000745592
0.000901388
0.00111923
0.00143339
0.00185651
0.00219056
0.00221306
0.00162237
0.000751988
0.00054137
0.00135613
0.00133179
0.00101686
0.000763504
0.000648416
0.000600494
0.000577925
0.000558971
0.00053518
0.000505953
0.000473772
0.000441432
0.000410816
0.000382929
0.000358208
0.000336839
0.000318915
0.000304501
0.000293678
0.000286934
0.000284251
0.000285011
0.000290958
0.000302809
0.000321769
0.000349481
0.000388086
0.000440283
0.000509127
0.000598317
0.000713226
0.000864592
0.00107547
0.00138562
0.00182551
0.00225156
0.00233736
0.00175547
0.000810691
0.000479664
0.00130093
0.00127696
0.000994267
0.000752744
0.000638571
0.000590715
0.000568005
0.000548426
0.000524036
0.000494454
0.00046221
0.000430047
0.000399777
0.000372329
0.00034809
0.00032721
0.000309739
0.000295698
0.000285118
0.000278215
0.000275205
0.00027556
0.000280589
0.000291094
0.000308316
0.000333888
0.000370023
0.000419747
0.00048641
0.000573907
0.000687025
0.000834866
0.00103885
0.00134197
0.00179062
0.0022944
0.00245915
0.00189696
0.000869289
0.000429393
0.00124124
0.00122998
0.000978526
0.000748197
0.000631071
0.000582742
0.000559814
0.000539997
0.000515565
0.000486142
0.000454245
0.000422508
0.000392673
0.000365684
0.00034195
0.000321586
0.000304595
0.000290947
0.00028063
0.000273716
0.000270394
0.000270679
0.00027504
0.00028439
0.000299915
0.000323224
0.000356965
0.000404231
0.000468637
0.000554534
0.000666365
0.00081162
0.00100945
0.00130459
0.00175828
0.00232528
0.00257841
0.00204097
0.00092711
0.00038644
0.00117978
0.00118533
0.000971471
0.000749882
0.000629252
0.000577226
0.000553153
0.000533356
0.000509424
0.000480687
0.00044937
0.000418131
0.000388939
0.000362684
0.000339614
0.000319816
0.000303266
0.000289908
0.000279715
0.000272742
0.000269174
0.000269354
0.000273133
0.000281748
0.000296105
0.000317791
0.000349164
0.000393529
0.000455601
0.000539982
0.000650948
0.000794453
0.000986702
0.0012724
0.00172791
0.0023427
0.00269501
0.00219287
0.000984704
0.000348326
0.00111939
0.00114562
0.000972127
0.000755839
0.000631048
0.000573935
0.000548217
0.000528369
0.00050527
0.000477557
0.00044753
0.000417585
0.000389137
0.000363213
0.000340405
0.000320843
0.000304512
0.00029135
0.000281321
0.000274454
0.000270897
0.000270956
0.000273997
0.000281615
0.000295185
0.000315915
0.000345844
0.00038823
0.000448
0.000530541
0.000640968
0.000783791
0.000970637
0.00124601
0.00169918
0.00235229
0.0028094
0.0023487
0.00104102
0.000313544
0.00106093
0.00110998
0.000975292
0.000768981
0.000636704
0.000574475
0.000544527
0.000524684
0.000502742
0.000476729
0.000448041
0.000418778
0.00039093
0.000365568
0.000343218
0.000324073
0.000308145
0.000295337
0.000285584
0.000278885
0.000275385
0.000275472
0.000278141
0.000285033
0.000297613
0.000316879
0.000345296
0.000386463
0.000444877
0.000526149
0.000636275
0.000778947
0.000962381
0.00122529
0.00167131
0.00235625
0.00292011
0.00251095
0.00109648
0.00028096
0.00100421
0.00107926
0.000982815
0.00078663
0.000648519
0.00057749
0.000544144
0.000522194
0.000501318
0.000477168
0.000449804
0.000421868
0.0003951
0.000370625
0.00034898
0.000330374
0.000314823
0.000302296
0.000292737
0.00028614
0.000282667
0.000282826
0.000285353
0.000291853
0.000303908
0.000322339
0.000349322
0.000388285
0.000444581
0.000525005
0.00063496
0.000777694
0.000959317
0.00121046
0.00164571
0.00235698
0.0030279
0.00267752
0.00114998
0.000249972
0.000949145
0.00105233
0.000988617
0.000814826
0.00066789
0.000584844
0.000545652
0.000522274
0.000501543
0.000478527
0.000453338
0.000427119
0.000401619
0.000378064
0.000357111
0.000339043
0.000323927
0.000311746
0.000302458
0.000296055
0.00029275
0.000293041
0.000295602
0.000301986
0.000313767
0.000331688
0.000357851
0.000395656
0.000450385
0.000529184
0.000638868
0.000782078
0.000960434
0.00120294
0.00162202
0.00235176
0.00312965
0.00284936
0.00120173
0.000219747
0.00089357
0.00102904
0.000989888
0.000848544
0.000696138
0.000599846
0.000550554
0.000523733
0.000502647
0.000481144
0.000457903
0.000433613
0.000409684
0.00038732
0.000367268
0.000349902
0.000335355
0.000323646
0.000314763
0.000308681
0.000305742
0.00030623
0.000308977
0.0003155
0.00032723
0.000344902
0.00037055
0.000407515
0.000461156
0.000539037
0.000648516
0.000792303
0.000969177
0.00120023
0.00160072
0.00234492
0.00322719
0.00302181
0.00125071
0.000190032
0.000836974
0.00100496
0.000987855
0.000885135
0.000731745
0.000623567
0.00056136
0.000528145
0.000505386
0.000484713
0.000463259
0.000440987
0.000418881
0.000398008
0.00037914
0.000362723
0.000348962
0.000337924
0.000329644
0.000324043
0.000321738
0.000322497
0.00032557
0.000332475
0.000344359
0.000362028
0.000387466
0.000423987
0.000476912
0.000553981
0.000662995
0.000806778
0.000981549
0.00120023
0.0015805
0.00232764
0.00332
0.00319495
0.00129721
0.000159952
0.000775247
0.000983505
0.00098199
0.000919132
0.000777048
0.000657562
0.000581677
0.000537983
0.000511186
0.000489866
0.000469519
0.000449058
0.000428865
0.000409729
0.000392347
0.000377185
0.000364499
0.000354394
0.000346979
0.000342048
0.000340705
0.000341813
0.000345348
0.000352873
0.000365098
0.000382982
0.000408489
0.000444931
0.000497532
0.000574016
0.000682258
0.000825333
0.000997848
0.00120578
0.0015633
0.00230276
0.00340501
0.00336116
0.00134031
0.000132734
0.00071707
0.000958864
0.00097398
0.0009378
0.00082877
0.000703762
0.000614078
0.000557805
0.000523039
0.000498554
0.00047781
0.000458365
0.00043977
0.00042236
0.000406625
0.000392963
0.000381629
0.000372734
0.000366445
0.000362439
0.000362329
0.000363866
0.000368031
0.000376414
0.000389136
0.000407434
0.000433262
0.000469966
0.000522565
0.00059856
0.000705464
0.000846606
0.00101567
0.00121213
0.00154652
0.00226982
0.00347658
0.00351644
0.00138078
0.00011041
0.000655838
0.000943187
0.000966684
0.000946521
0.000875984
0.000759252
0.000660865
0.000591364
0.000545624
0.000514428
0.000490644
0.0004705
0.000452504
0.00043632
0.000422055
0.000409914
0.000400044
0.000392582
0.000387471
0.000385062
0.000385635
0.000387986
0.000393268
0.00040244
0.000415809
0.000434716
0.000461096
0.000498347
0.000551129
0.000626544
0.000731262
0.000868891
0.00103311
0.00121845
0.00153073
0.00223373
0.00353219
0.00365033
0.0014183
9.00778e-05
0.000575561
0.000936398
0.000966128
0.000953148
0.00091011
0.000817921
0.000721804
0.000643342
0.000585726
0.000544556
0.000514103
0.000490213
0.000470556
0.000454046
0.000440237
0.000429014
0.000420216
0.000414071
0.000409921
0.000409288
0.000410429
0.000413618
0.000420129
0.000430133
0.000444253
0.000463935
0.000491032
0.000528994
0.00058189
0.000656313
0.000757667
0.000889952
0.00104777
0.00122296
0.00151836
0.00220131
0.0035702
0.00375189
0.00145472
7.10313e-05
0.000477305
0.000917549
0.000967549
0.000961227
0.000936292
0.000875138
0.000791676
0.000713487
0.000648116
0.000596635
0.00055676
0.000525631
0.000500994
0.000481378
0.000465826
0.000453866
0.0004449
0.000439112
0.00043545
0.000435646
0.00043728
0.000441215
0.000448529
0.000459252
0.000474075
0.000494555
0.000522343
0.000560915
0.000613474
0.000686129
0.000782784
0.000908133
0.00105883
0.00122721
0.00151339
0.0021862
0.00359486
0.00380126
0.00149173
6.11523e-05
0.000395348
0.000868795
0.000962974
0.000965232
0.000957147
0.000929855
0.000871542
0.000802772
0.0007375
0.000679803
0.000630903
0.000590451
0.000557498
0.000531107
0.000510281
0.00049447
0.000482659
0.000475017
0.000469893
0.000469278
0.000470569
0.0004741
0.000481223
0.000492077
0.000507132
0.000528046
0.000556112
0.000594795
0.000646241
0.000716275
0.000807472
0.000925695
0.00107124
0.00124101
0.00152537
0.00218461
0.00361949
0.00381924
0.00151507
6.31358e-05
0.000365886
0.00077109
0.00093859
0.000971157
0.000979797
0.000974977
0.000954793
0.000910919
0.000854929
0.00079846
0.000745255
0.000697381
0.0006557
0.000620493
0.000591429
0.000568213
0.000550111
0.000536765
0.0005276
0.000521838
0.00052104
0.000522663
0.000527265
0.000536708
0.000550965
0.000571577
0.000599357
0.00063772
0.00068789
0.000755723
0.000843412
0.000958348
0.00110715
0.00129405
0.00160492
0.00226803
0.00366301
0.00380195
0.00152346
8.94688e-05
0.0003888
0.000680542
0.00088381
0.00098236
0.00102697
0.00104908
0.00104918
0.00103779
0.00100847
0.000962517
0.000912127
0.000861544
0.000813501
0.000769761
0.000730966
0.000697667
0.000669575
0.000647031
0.000629131
0.000616881
0.000608111
0.000606708
0.000608936
0.000615247
0.000628158
0.000648864
0.00067757
0.000717727
0.000770433
0.000841846
0.000935785
0.00106092
0.00123361
0.00146194
0.00183456
0.00249306
0.00372898
0.00369602
0.00151459
0.0001444
0.000484886
0.000697599
0.000905538
0.00104345
0.00113924
0.00120126
0.00122876
0.00123396
0.00122452
0.00119901
0.00115554
0.00110502
0.00105176
0.000999453
0.000950125
0.000906022
0.000866886
0.000835521
0.000810322
0.000793824
0.000782079
0.000780059
0.000783164
0.000791926
0.000809879
0.000838014
0.00087725
0.000931973
0.00100357
0.00109994
0.00122675
0.00139476
0.00162628
0.00192712
0.00238478
0.00300584
0.00385427
0.00359501
0.00146787
0.000239379
0.000679551
0.000872658
0.00110495
0.00128917
0.00143394
0.00153158
0.00158147
0.00158627
0.00157685
0.00155258
0.00151067
0.00146233
0.00141146
0.0013633
0.00131852
0.0012809
0.00125053
0.0012287
0.00121201
0.00120956
0.0012139
0.00122617
0.00125136
0.00128934
0.00133964
0.00140788
0.00149007
0.00159642
0.00172518
0.00189765
0.00210082
0.00236648
0.00268034
0.00307604
0.0035676
0.00399331
0.00413007
0.00347034
0.00138097
0.000396095
0.00112238
0.00154576
0.00193652
0.00217713
0.00232666
0.00240937
0.00244055
0.00243147
0.0024097
0.00238063
0.00234622
0.00231358
0.00228315
0.00226332
0.00224784
0.00224949
0.00225814
0.00227817
0.00231204
0.00235895
0.00242037
0.00249635
0.00258754
0.00269799
0.00282285
0.00297603
0.00313685
0.00334658
0.00354217
0.00381234
0.00403573
0.0043802
0.00459975
0.00500609
0.00508523
0.00493431
0.00433502
0.00303804
0.00120133
0.000268597
0.000412233
0.000537492
0.000662435
0.000777882
0.000881549
0.000970212
0.00104157
0.00109216
0.00112364
0.00114337
0.00114913
0.00114679
0.00114001
0.00112762
0.00111191
0.00109475
0.00107821
0.0010608
0.00104551
0.00103042
0.00101843
0.00100734
0.000999802
0.000993787
0.0009917
0.000992712
0.000995883
0.00100402
0.00101234
0.00103058
0.00104545
0.00108063
0.00110766
0.00116888
0.00120777
0.00127371
0.00127889
0.00123553
0.00103148
)
;

boundaryField
{
    movingWall
    {
        type            kqRWallFunction;
        value           nonuniform List<scalar> 
40
(
0.000268597
0.000412233
0.000537492
0.000662435
0.000777882
0.000881549
0.000970212
0.00104157
0.00109216
0.00112364
0.00114337
0.00114913
0.00114679
0.00114001
0.00112762
0.00111191
0.00109475
0.00107821
0.0010608
0.00104551
0.00103042
0.00101843
0.00100734
0.000999802
0.000993787
0.0009917
0.000992712
0.000995883
0.00100402
0.00101234
0.00103058
0.00104545
0.00108063
0.00110766
0.00116888
0.00120777
0.00127371
0.00127889
0.00123553
0.00103148
)
;
    }
    fixedWalls
    {
        type            kqRWallFunction;
        value           nonuniform List<scalar> 
120
(
2.2792e-06
1.10081e-05
3.32364e-05
7.61703e-05
0.000143333
0.000239001
0.000359273
0.000487626
0.000597437
0.000677921
0.00073565
0.000766588
0.000765515
0.000755851
0.000732759
0.00069321
0.000647942
0.000594049
0.00054137
0.000479664
0.000429393
0.00038644
0.000348326
0.000313544
0.00028096
0.000249972
0.000219747
0.000190032
0.000159952
0.000132734
0.00011041
9.00778e-05
7.10313e-05
6.11523e-05
6.31358e-05
8.94688e-05
0.0001444
0.000239379
0.000396095
0.000268597
3.85691e-06
6.58103e-06
5.38775e-06
3.68659e-06
4.20701e-06
7.80168e-06
1.76155e-05
4.41061e-05
0.000120065
0.000214498
0.000305709
0.000379125
0.000447788
0.0005112
0.000573108
0.000633187
0.000692839
0.000751988
0.000810691
0.000869289
0.00092711
0.000984704
0.00104102
0.00109648
0.00114998
0.00120173
0.00125071
0.00129721
0.00134031
0.00138078
0.0014183
0.00145472
0.00149173
0.00151507
0.00152346
0.00151459
0.00146787
0.00138097
0.00120133
0.00103148
2.2792e-06
7.71829e-06
1.49816e-05
1.48843e-05
1.3561e-05
1.38628e-05
1.79087e-05
3.05699e-05
4.61864e-05
6.82142e-05
0.000104122
0.00012823
0.000139672
0.000154679
0.000178695
0.00020971
0.000238182
0.000271137
0.000302666
0.000339044
0.000376041
0.00041859
0.000464478
0.000518185
0.000580663
0.0006354
0.00069174
0.000739314
0.000780712
0.00080296
0.000811776
0.000795168
0.000731271
0.000622476
0.000469164
0.000279414
0.000136595
5.76694e-05
1.84896e-05
3.85691e-06
)
;
    }
    frontAndBack
    {
        type            empty;
    }
}


// ************************************************************************* //
