/*--------------------------------*- C++ -*----------------------------------*\
  =========                 |
  \\      /  F ield         | OpenFOAM: The Open Source CFD Toolbox
   \\    /   O peration     | Website:  https://openfoam.org
    \\  /    A nd           | Version:  13
     \\/     M anipulation  |
\*---------------------------------------------------------------------------*/
FoamFile
{
    format      ascii;
    class       volScalarField;
    location    "8.5";
    object      k;
}
// * * * * * * * * * * * * * * * * * * * * * * * * * * * * * * * * * * * * * //

dimensions      [0 2 -2 0 0 0 0];

internalField   nonuniform List<scalar> 
400
(
6.61603e-06
2.26159e-05
9.33508e-05
0.000193198
0.000260029
0.000310908
0.000352203
0.000391722
0.000426333
0.000461795
0.000494936
0.000529978
0.000565169
0.000588144
0.000598528
0.000599134
0.000553669
0.000435966
0.000269089
0.000194287
2.98645e-05
0.000106218
0.000233084
0.000394838
0.000464355
0.000541427
0.000586747
0.000652614
0.00070563
0.00076878
0.0008283
0.000890765
0.000946331
0.00100676
0.00106004
0.00108669
0.00109258
0.000979596
0.00064798
0.000394629
9.88514e-05
0.000338878
0.000508823
0.000591562
0.000648635
0.000697736
0.000737557
0.000788099
0.000833333
0.000881985
0.000926692
0.000969877
0.00101165
0.00105853
0.00110443
0.00113781
0.00115009
0.00110173
0.00079717
0.000506313
0.000222234
0.00055357
0.000642295
0.000679741
0.000708899
0.000733391
0.000762436
0.000795881
0.000827483
0.000857345
0.000882055
0.000911503
0.000951993
0.00100553
0.0010742
0.0011424
0.00117298
0.00117376
0.000938748
0.000578532
0.000319424
0.000669625
0.000695539
0.000696365
0.000708156
0.000725815
0.00074331
0.000751469
0.000751777
0.00074661
0.000746382
0.000767161
0.000809736
0.000880306
0.000985523
0.00112019
0.00121463
0.00123814
0.00106213
0.000632438
0.000370495
0.000700573
0.000699752
0.000692238
0.000695548
0.00069658
0.000682292
0.000650729
0.000619251
0.000598493
0.000590811
0.000599285
0.000642091
0.000721959
0.000852702
0.00103958
0.00123441
0.00131349
0.00119786
0.000675875
0.000378725
0.000693077
0.000692655
0.00067748
0.000664806
0.000640047
0.000599659
0.000548252
0.000502466
0.000472412
0.000460265
0.000460525
0.000498042
0.000575997
0.00071456
0.000934955
0.00123287
0.00138692
0.00132488
0.000709444
0.000372916
0.000673655
0.000674688
0.000650335
0.000626937
0.000586665
0.000530533
0.000469333
0.000418183
0.000384839
0.000370349
0.000368553
0.000397378
0.000464857
0.000593286
0.000819626
0.00116929
0.00144987
0.00146193
0.000736856
0.000358336
0.000635795
0.00064457
0.000621993
0.000593308
0.000544788
0.000481471
0.000417442
0.00036624
0.000333375
0.000318821
0.000316782
0.000338398
0.000393081
0.000505489
0.000720079
0.00108992
0.00149426
0.00158057
0.000755855
0.000330075
0.00060371
0.000616181
0.000597256
0.000567389
0.000516198
0.000451711
0.000388783
0.000339901
0.000308561
0.000294288
0.000293277
0.000310608
0.00035505
0.000449349
0.000647314
0.00101795
0.00151464
0.00170186
0.00077017
0.000300734
0.000561378
0.000584819
0.000573692
0.000546445
0.000498325
0.000436919
0.00037859
0.000332955
0.00030263
0.000287047
0.000286611
0.000301134
0.000338931
0.000421738
0.000599636
0.000961323
0.00152215
0.00180171
0.000777062
0.000275059
0.000525974
0.000561103
0.000556037
0.000533832
0.000488968
0.000435101
0.000381028
0.000337298
0.000307704
0.000291879
0.000291167
0.000301809
0.000335197
0.000412072
0.000576787
0.000917688
0.00152456
0.00188269
0.00078001
0.000247435
0.000479738
0.000533053
0.000535679
0.00052226
0.000487489
0.000438695
0.000389694
0.000349726
0.000321893
0.000306367
0.00030653
0.000316218
0.0003461
0.000415076
0.000570077
0.000895983
0.00152557
0.00192089
0.000780516
0.00022171
0.000450135
0.000517671
0.000524351
0.000515656
0.000489925
0.000448035
0.000406509
0.000371208
0.000345742
0.000330679
0.000331375
0.000341228
0.000370689
0.000437552
0.000583981
0.000889138
0.00152533
0.0019316
0.00077852
0.000192565
0.000402496
0.000492087
0.000514691
0.000512748
0.00049691
0.000463652
0.000428429
0.000398159
0.000375989
0.000362671
0.000364122
0.000374777
0.000405023
0.000471979
0.00061836
0.000900443
0.0015232
0.00189028
0.00076373
0.00016258
0.000373733
0.000479237
0.000517116
0.000520068
0.000511713
0.000489756
0.000460112
0.000433383
0.000413151
0.000400746
0.000402833
0.000414664
0.000447265
0.000517854
0.000675742
0.000938153
0.00152385
0.00179729
0.000737824
0.000129076
0.000311674
0.000445055
0.00052199
0.000542278
0.000539589
0.000526769
0.000500948
0.000476234
0.000456343
0.00044663
0.000450642
0.000466669
0.000507428
0.000590173
0.000778508
0.00103007
0.00154212
0.00163434
0.000694273
8.62116e-05
0.0002691
0.000455154
0.000557849
0.00061559
0.000617076
0.000608872
0.000587326
0.000564381
0.000545361
0.000545842
0.000557122
0.000587755
0.000657781
0.000776863
0.00103757
0.00130777
0.00159077
0.00145808
0.000636395
9.27055e-05
0.000288363
0.000506317
0.000632813
0.000706866
0.000735576
0.000751483
0.000766063
0.000784127
0.000813876
0.000865519
0.000946193
0.001057
0.00122293
0.00142076
0.00171025
0.00181302
0.00169554
0.0013496
0.000553879
6.69348e-05
0.000104491
0.000191082
0.000275484
0.00033932
0.000379258
0.000401503
0.000415264
0.000421768
0.000426095
0.000427984
0.000431817
0.000435556
0.000443922
0.00045043
0.000467395
0.000488225
0.000511862
0.000506554
0.000452751
)
;

boundaryField
{
    movingWall
    {
        type            kqRWallFunction;
        value           nonuniform List<scalar> 
20
(
6.69348e-05
0.000104491
0.000191082
0.000275484
0.00033932
0.000379258
0.000401503
0.000415264
0.000421768
0.000426095
0.000427984
0.000431817
0.000435556
0.000443922
0.00045043
0.000467395
0.000488225
0.000511862
0.000506554
0.000452751
)
;
    }
    fixedWalls
    {
        type            kqRWallFunction;
        value           nonuniform List<scalar> 
60
(
6.61603e-06
2.98645e-05
9.88514e-05
0.000222234
0.000319424
0.000370495
0.000378725
0.000372916
0.000358336
0.000330075
0.000300734
0.000275059
0.000247435
0.00022171
0.000192565
0.00016258
0.000129076
8.62116e-05
9.27055e-05
6.69348e-05
0.000194287
0.000394629
0.000506313
0.000578532
0.000632438
0.000675875
0.000709444
0.000736856
0.000755855
0.00077017
0.000777062
0.00078001
0.000780516
0.00077852
0.00076373
0.000737824
0.000694273
0.000636395
0.000553879
0.000452751
6.61603e-06
2.26159e-05
9.33508e-05
0.000193198
0.000260029
0.000310908
0.000352203
0.000391722
0.000426333
0.000461795
0.000494936
0.000529978
0.000565169
0.000588144
0.000598528
0.000599134
0.000553669
0.000435966
0.000269089
0.000194287
)
;
    }
    frontAndBack
    {
        type            empty;
    }
}


// ************************************************************************* //
