/*--------------------------------*- C++ -*----------------------------------*\
  =========                 |
  \\      /  F ield         | OpenFOAM: The Open Source CFD Toolbox
   \\    /   O peration     | Website:  https://openfoam.org
    \\  /    A nd           | Version:  13
     \\/     M anipulation  |
\*---------------------------------------------------------------------------*/
FoamFile
{
    format      ascii;
    class       volScalarField;
    location    "8.5";
    object      p;
}
// * * * * * * * * * * * * * * * * * * * * * * * * * * * * * * * * * * * * * //

dimensions      [0 2 -2 0 0 0 0];

internalField   nonuniform List<scalar> 
1600
(
1.22088e-08
-2.37562e-05
-0.000110296
-0.000233603
-0.000345452
-0.000431208
-0.000508961
-0.000614931
-0.000760051
-0.000944015
-0.00117542
-0.00151756
-0.00194958
-0.00214264
-0.00238168
-0.00297869
-0.00386942
-0.00488376
-0.00585205
-0.00663693
-0.00713989
-0.0072929
-0.00704001
-0.0063356
-0.0052145
-0.00369361
-0.00178242
0.000453439
0.00289158
0.00530732
0.00741522
0.00890012
0.0095392
0.009305
0.0082888
0.00723898
0.00658622
0.00647579
0.00658188
0.00663205
-1.86996e-05
-6.8289e-05
-0.00016516
-0.000284087
-0.000366272
-0.000408388
-0.000449441
-0.000534159
-0.000670094
-0.000825057
-0.000967596
-0.00120006
-0.00163741
-0.00218946
-0.002824
-0.00363091
-0.00459004
-0.00560388
-0.00654405
-0.00729724
-0.00777703
-0.00792573
-0.0077012
-0.00708427
-0.00605136
-0.00459868
-0.0027657
-0.000610901
0.00173921
0.00410605
0.00623142
0.00781065
0.00860068
0.00852377
0.00770996
0.00668724
0.00617661
0.00624915
0.00643117
0.00651862
-4.72972e-05
-0.000141305
-0.000269166
-0.000382804
-0.000426525
-0.000412715
-0.000402976
-0.000429175
-0.000516394
-0.000726355
-0.00109038
-0.00158737
-0.00223784
-0.0030386
-0.00396938
-0.00498155
-0.00601951
-0.00701314
-0.00788592
-0.00856874
-0.00900042
-0.0091264
-0.00891398
-0.00834552
-0.00739705
-0.00606537
-0.00437897
-0.00239
-0.000189492
0.00208532
0.00422057
0.00596714
0.00707693
0.00740421
0.00704057
0.00638731
0.00604967
0.00611591
0.00629261
0.00635093
-5.4023e-05
-0.000192944
-0.000364819
-0.000465051
-0.000464752
-0.000416547
-0.000396991
-0.000455402
-0.000647639
-0.0010607
-0.00172591
-0.00257991
-0.00354544
-0.00459003
-0.00569069
-0.0067948
-0.00784855
-0.00880327
-0.00961443
-0.0102377
-0.0106224
-0.0107212
-0.0105108
-0.00998006
-0.00911612
-0.00792046
-0.00641261
-0.00462972
-0.00263237
-0.000510626
0.00158767
0.00347565
0.00493749
0.00581915
0.00614649
0.0061194
0.00611681
0.00615104
0.0062334
0.00623365
8.16127e-05
-0.000123227
-0.000318963
-0.000417088
-0.000429095
-0.000420187
-0.000482768
-0.00070755
-0.00117211
-0.00191829
-0.00291214
-0.00405772
-0.00526455
-0.00648059
-0.00767023
-0.00880276
-0.00984888
-0.0107804
-0.011552
-0.0121178
-0.0124429
-0.0125127
-0.0123113
-0.0118248
-0.0110486
-0.00998707
-0.00865192
-0.00706596
-0.00527
-0.00333094
-0.00134123
0.000582537
0.00231322
0.00374073
0.00481553
0.00556167
0.0060458
0.00626881
0.00622889
0.00615967
0.000432141
0.000147066
-7.28123e-05
-0.000212732
-0.000307523
-0.000443507
-0.000731353
-0.00126869
-0.00210021
-0.00319584
-0.0044691
-0.00582169
-0.00718104
-0.00849575
-0.00973721
-0.0108846
-0.0119081
-0.0127776
-0.0134648
-0.0139538
-0.0142276
-0.0142752
-0.0140875
-0.0136492
-0.0129621
-0.0120305
-0.0108626
-0.00947198
-0.00788136
-0.00612711
-0.00426193
-0.00235532
-0.000479924
0.00132281
0.00300841
0.00447979
0.00556973
0.00618006
0.00616236
0.0060464
0.000969921
0.000625964
0.000346544
0.000111262
-0.000153006
-0.000553373
-0.00119206
-0.00212519
-0.00333023
-0.00472623
-0.00621087
-0.00770415
-0.00914937
-0.0105057
-0.0117498
-0.0128615
-0.0138236
-0.0146201
-0.0152374
-0.0156669
-0.0158993
-0.015928
-0.015747
-0.0153502
-0.014738
-0.0139149
-0.0128878
-0.0116662
-0.0102628
-0.00869444
-0.00698302
-0.00515435
-0.00322883
-0.00121647
0.000854532
0.00287983
0.00459829
0.00571399
0.00608977
0.00586739
0.00161731
0.00122757
0.000836132
0.000444854
-7.31048e-05
-0.000826939
-0.00187601
-0.00320434
-0.00473336
-0.00635779
-0.00798831
-0.0095641
-0.0110412
-0.0123922
-0.0136018
-0.0146588
-0.0155564
-0.0162881
-0.0168479
-0.0172307
-0.0174317
-0.0174471
-0.0172738
-0.0169105
-0.0163583
-0.0156213
-0.0147055
-0.0136179
-0.0123658
-0.0109553
-0.00939091
-0.00767181
-0.00578656
-0.00371239
-0.00144397
0.000933352
0.00316922
0.00489631
0.00583144
0.00550933
0.00219645
0.00172653
0.00121811
0.000635672
-0.000186539
-0.00132452
-0.00276472
-0.00443144
-0.00620617
-0.00798764
-0.00970632
-0.0113168
-0.012789
-0.0141088
-0.01527
-0.0162703
-0.0171094
-0.0177862
-0.0182989
-0.0186454
-0.0188237
-0.0188319
-0.0186686
-0.0183342
-0.0178308
-0.0171623
-0.0163339
-0.0153514
-0.0142191
-0.0129378
-0.0115021
-0.00989701
-0.00809542
-0.00605633
-0.00374068
-0.0011789
0.00142291
0.00369043
0.00512991
0.00521123
0.00252673
0.00198694
0.00135183
0.000557746
-0.000574137
-0.00206514
-0.00382831
-0.00574193
-0.0076823
-0.0095574
-0.0113158
-0.0129255
-0.0143707
-0.0156478
-0.0167584
-0.0177063
-0.0184952
-0.0191273
-0.0196034
-0.0199235
-0.0200868
-0.0200929
-0.0199411
-0.0196326
-0.0191694
-0.0185554
-0.0177952
-0.0168939
-0.0158548
-0.014677
-0.0133519
-0.0118591
-0.010165
-0.00822
-0.00596115
-0.00336296
-0.000578568
0.00203432
0.00401909
0.00506468
0.00249663
0.00190162
0.00114548
0.00015052
-0.0012564
-0.00302437
-0.00502002
-0.00708822
-0.00912193
-0.011036
-0.0127958
-0.0143806
-0.0157862
-0.0170169
-0.0180795
-0.0189818
-0.0197295
-0.0203268
-0.0207761
-0.0210781
-0.021233
-0.0212409
-0.021102
-0.0208171
-0.0203883
-0.019819
-0.0191133
-0.0182758
-0.0173095
-0.0162141
-0.0149813
-0.0135918
-0.0120122
-0.0101931
-0.00806375
-0.00555494
-0.00274428
5.2371e-06
0.0023708
0.00397803
0.00207694
0.00143891
0.000578718
-0.000583225
-0.00219526
-0.00415337
-0.0062822
-0.00843238
-0.0104964
-0.0124065
-0.0141398
-0.0156843
-0.0170444
-0.018229
-0.0192484
-0.0201121
-0.020827
-0.0213981
-0.021828
-0.0221184
-0.0222698
-0.0222824
-0.0221568
-0.0218937
-0.0214951
-0.0209637
-0.0203032
-0.0195176
-0.0186104
-0.0175823
-0.016428
-0.0151319
-0.0136648
-0.011982
-0.0100187
-0.00768744
-0.00497351
-0.00224672
0.000165577
0.00185734
0.00129444
0.000633278
-0.000299938
-0.00158581
-0.00332326
-0.00538488
-0.00756427
-0.00973446
-0.0117825
-0.0136586
-0.015347
-0.016843
-0.0181559
-0.0192971
-0.0202785
-0.02111
-0.0217989
-0.0223501
-0.0227664
-0.0230496
-0.0232005
-0.0232194
-0.023107
-0.0228641
-0.0224924
-0.021994
-0.0213721
-0.0206305
-0.019773
-0.0188021
-0.0177156
-0.0165037
-0.0151438
-0.0135985
-0.0118131
-0.00970462
-0.00720681
-0.00459392
-0.00235758
-0.000813788
0.000231628
-0.000429801
-0.00140188
-0.00276235
-0.00456131
-0.00664634
-0.00881877
-0.0109615
-0.0129623
-0.0147853
-0.0164189
-0.0178632
-0.0191299
-0.0202314
-0.0211798
-0.0219845
-0.0226525
-0.0231884
-0.0235949
-0.0238737
-0.0240257
-0.0240515
-0.0239518
-0.0237274
-0.0233796
-0.0229104
-0.0223225
-0.0216194
-0.0208055
-0.0198846
-0.0188582
-0.0177222
-0.0164621
-0.0150495
-0.0134396
-0.0115668
-0.00935626
-0.00693108
-0.00496341
-0.0036592
-0.000997929
-0.00164478
-0.00262748
-0.00401267
-0.00581597
-0.00786988
-0.0100031
-0.0120863
-0.0140215
-0.0157817
-0.0173568
-0.0187499
-0.0199734
-0.0210392
-0.0219589
-0.0227411
-0.023392
-0.0239158
-0.0243149
-0.024591
-0.0247449
-0.0247774
-0.0246893
-0.0244815
-0.024155
-0.0237117
-0.023154
-0.0224852
-0.02171
-0.0208336
-0.0198608
-0.0187928
-0.0176233
-0.0163335
-0.0148902
-0.0132447
-0.0113278
-0.00916913
-0.00746296
-0.00639305
-0.00228198
-0.00290016
-0.00387289
-0.00524439
-0.00701264
-0.00900603
-0.0110771
-0.0130856
-0.0149484
-0.0166433
-0.0181611
-0.0195062
-0.0206903
-0.0217247
-0.0226196
-0.0233828
-0.0240195
-0.0245335
-0.0249268
-0.025201
-0.025357
-0.0253957
-0.0253179
-0.0251245
-0.0248167
-0.024396
-0.0238649
-0.0232265
-0.0224858
-0.0216492
-0.0207239
-0.019716
-0.0186265
-0.017446
-0.0161513
-0.0147045
-0.0130549
-0.0112256
-0.00975967
-0.0088592
-0.00351454
-0.00409698
-0.00504307
-0.00638208
-0.00809447
-0.0100143
-0.0120115
-0.0139415
-0.0157333
-0.017366
-0.018831
-0.020133
-0.0212826
-0.0222898
-0.0231637
-0.0239109
-0.0245359
-0.0250418
-0.0254305
-0.0257034
-0.0258613
-0.0259052
-0.025836
-0.0256548
-0.0253626
-0.0249613
-0.0244529
-0.0238409
-0.0231304
-0.0223284
-0.0214446
-0.0204889
-0.0194686
-0.0183827
-0.0172154
-0.0159362
-0.0145158
-0.0129917
-0.0117492
-0.0109852
-0.00461619
-0.0051543
-0.00606388
-0.00736361
-0.00901598
-0.0108621
-0.0127848
-0.0146411
-0.0163683
-0.0179456
-0.0193648
-0.02063
-0.0217505
-0.0227351
-0.0235917
-0.0243259
-0.0249414
-0.0254409
-0.025826
-0.0260978
-0.0262573
-0.0263053
-0.0262429
-0.0260713
-0.0257916
-0.0254058
-0.0249161
-0.0243259
-0.0236405
-0.0228678
-0.0220186
-0.0211062
-0.0201433
-0.0191357
-0.0180748
-0.0169372
-0.015711
-0.0144429
-0.013396
-0.0127373
-0.00552214
-0.00602188
-0.00688879
-0.00814692
-0.00974325
-0.0115258
-0.0133821
-0.0151746
-0.016847
-0.0183783
-0.0197602
-0.0209959
-0.0220932
-0.0230602
-0.0239034
-0.0246275
-0.025236
-0.0257307
-0.0261132
-0.0263842
-0.0265448
-0.0265959
-0.0265384
-0.0263736
-0.0261029
-0.0257284
-0.0252526
-0.0246789
-0.024013
-0.0232632
-0.0224413
-0.021563
-0.020645
-0.0196989
-0.0187236
-0.0177036
-0.0166361
-0.0155602
-0.0146799
-0.0141105
-0.00620427
-0.00665604
-0.00748689
-0.00870939
-0.0102577
-0.0119902
-0.013793
-0.0155344
-0.0171641
-0.0186604
-0.0200145
-0.0212285
-0.0223093
-0.0232638
-0.0240978
-0.0248154
-0.0254192
-0.0259111
-0.0262921
-0.0265629
-0.0267244
-0.0267772
-0.0267226
-0.0265618
-0.0262965
-0.0259288
-0.0254615
-0.0248984
-0.0242453
-0.023511
-0.0227082
-0.021854
-0.0209681
-0.0200672
-0.0191569
-0.0182304
-0.0172884
-0.0163616
-0.0156117
-0.0151114
-0.0066335
-0.0070455
-0.00785206
-0.00904527
-0.010552
-0.0122487
-0.0140114
-0.0157158
-0.017316
-0.0187888
-0.0201251
-0.0213254
-0.0223967
-0.0233445
-0.0241739
-0.0248886
-0.0254909
-0.0259821
-0.026363
-0.0266343
-0.0267964
-0.0268501
-0.0267964
-0.0266366
-0.0263727
-0.0260069
-0.0255423
-0.0249833
-0.0243356
-0.0236086
-0.0228156
-0.0219748
-0.0211081
-0.0202364
-0.0193713
-0.0185141
-0.0176681
-0.0168516
-0.0162018
-0.0157547
-0.00679177
-0.0071871
-0.00798541
-0.00915929
-0.0106312
-0.0123006
-0.0140342
-0.0157162
-0.0172997
-0.0187604
-0.0200885
-0.0212845
-0.0223533
-0.0233004
-0.0241303
-0.0248463
-0.0254504
-0.0259435
-0.0263262
-0.0265989
-0.0267617
-0.0268154
-0.0267607
-0.0265991
-0.0263325
-0.0259634
-0.0254953
-0.0249329
-0.0242826
-0.023554
-0.0227608
-0.0219214
-0.0210612
-0.0202032
-0.0193645
-0.0185538
-0.0177797
-0.0170468
-0.0164689
-0.0160549
-0.00671351
-0.00709805
-0.00789465
-0.00905927
-0.0105054
-0.0121502
-0.0138686
-0.0155388
-0.0171154
-0.0185737
-0.0199028
-0.0211024
-0.0221763
-0.0231292
-0.0239653
-0.0246875
-0.0252972
-0.0257953
-0.0261821
-0.0264574
-0.0266215
-0.0266745
-0.0266172
-0.0264509
-0.0261775
-0.0257997
-0.0253214
-0.0247475
-0.0240854
-0.0233451
-0.0225409
-0.0216925
-0.0208252
-0.0199652
-0.0191341
-0.0183484
-0.0176243
-0.0169509
-0.0164368
-0.0160258
-0.00644202
-0.00681378
-0.00760798
-0.00876846
-0.0101938
-0.0118088
-0.0135183
-0.0151847
-0.0167623
-0.0182263
-0.0195649
-0.0207762
-0.0218627
-0.0228284
-0.0236769
-0.0244105
-0.0250305
-0.0255374
-0.0259309
-0.0262107
-0.0263767
-0.0264287
-0.0263674
-0.0261937
-0.0259095
-0.0255178
-0.0250224
-0.024429
-0.0237453
-0.0229823
-0.0221555
-0.0212855
-0.0203981
-0.0195211
-0.0186804
-0.0179004
-0.0172068
-0.0165631
-0.0161141
-0.0156821
-0.00602527
-0.00638195
-0.00716622
-0.00831575
-0.00972131
-0.0113006
-0.0129895
-0.0146555
-0.0162396
-0.0177159
-0.0190712
-0.0203018
-0.0214088
-0.0223948
-0.0232626
-0.0240139
-0.0246495
-0.0251694
-0.025573
-0.0258597
-0.0260288
-0.0260799
-0.0260133
-0.0258297
-0.0255309
-0.0251198
-0.0246005
-0.0239791
-0.023264
-0.0224671
-0.0216052
-0.0207002
-0.0197791
-0.0188709
-0.0180053
-0.0172169
-0.0165372
-0.0158921
-0.015491
-0.0150379
-0.0055267
-0.00586189
-0.00661878
-0.00773666
-0.00910905
-0.0106494
-0.0122994
-0.0139577
-0.015548
-0.0170398
-0.0184176
-0.0196749
-0.0208103
-0.0218247
-0.0227195
-0.0234956
-0.0241529
-0.024691
-0.025109
-0.0254055
-0.0255795
-0.0256302
-0.0255574
-0.0253616
-0.0250445
-0.0246087
-0.0240586
-0.0234005
-0.0226439
-0.0218017
-0.020892
-0.0199383
-0.0189693
-0.0180154
-0.0171109
-0.016301
-0.0156224
-0.0149488
-0.0146009
-0.0141175
-0.00502447
-0.00532204
-0.00601946
-0.00707242
-0.0083829
-0.0098679
-0.0114654
-0.0130994
-0.0146889
-0.0161956
-0.0175996
-0.0188901
-0.0200621
-0.0211137
-0.0220442
-0.0228531
-0.0235394
-0.024102
-0.0245392
-0.0248493
-0.0250306
-0.025082
-0.0250027
-0.024793
-0.0244541
-0.0239886
-0.0234009
-0.0226978
-0.0218894
-0.0209901
-0.0200199
-0.0190039
-0.0179725
-0.0169579
-0.0159997
-0.0151518
-0.0144514
-0.0137515
-0.0134725
-0.0129393
-0.00459839
-0.00482543
-0.00541583
-0.00636205
-0.00757468
-0.00897357
-0.0104995
-0.0120881
-0.0136636
-0.0151808
-0.0166126
-0.017942
-0.0191588
-0.0202569
-0.0212328
-0.0220838
-0.0228076
-0.023402
-0.0238645
-0.0241928
-0.0243847
-0.0244386
-0.024353
-0.0241281
-0.0237647
-0.023265
-0.0226334
-0.0218772
-0.0210073
-0.0200396
-0.018996
-0.0179038
-0.0167957
-0.0157056
-0.0146782
-0.0137754
-0.0130361
-0.0122948
-0.0121243
-0.0114957
-0.00430452
-0.00440886
-0.00484037
-0.00563916
-0.00671662
-0.00799076
-0.00941309
-0.0109304
-0.0124742
-0.0139935
-0.0154524
-0.0168255
-0.0180952
-0.0192499
-0.0202818
-0.0211854
-0.0219564
-0.0225911
-0.0230861
-0.0234383
-0.0236451
-0.023704
-0.0236134
-0.0233728
-0.0229827
-0.0224451
-0.0217644
-0.0209481
-0.020008
-0.0189613
-0.0178323
-0.0166505
-0.0154512
-0.0142707
-0.0131587
-0.0121828
-0.0113834
-0.0105758
-0.0105504
-0.00974252
-0.00412525
-0.00405228
-0.00430999
-0.00493352
-0.00583551
-0.00694197
-0.00822117
-0.00963565
-0.0111255
-0.0126346
-0.0141172
-0.0155372
-0.0168676
-0.0180893
-0.0191888
-0.0201567
-0.0209858
-0.0216706
-0.0222065
-0.0225895
-0.0228164
-0.0228842
-0.0227909
-0.0225352
-0.0221175
-0.0215397
-0.020806
-0.0199241
-0.0189066
-0.0177723
-0.0165473
-0.0152636
-0.0139593
-0.0126735
-0.0114613
-0.0103937
-0.00951442
-0.0086318
-0.00871114
-0.00759509
-0.00390686
-0.00370749
-0.00383866
-0.00426806
-0.00495045
-0.00584425
-0.00693982
-0.00821769
-0.00962775
-0.0111108
-0.0126108
-0.014079
-0.015477
-0.0167759
-0.0179549
-0.0189993
-0.0198983
-0.0206441
-0.0212304
-0.0216524
-0.0219059
-0.0219875
-0.0218952
-0.0216266
-0.0211823
-0.0205638
-0.0197755
-0.0188251
-0.0177259
-0.0164979
-0.0151689
-0.0137728
-0.0123507
-0.0109448
-0.00961624
-0.0084373
-0.00745908
-0.0064917
-0.00657218
-0.00498701
-0.00359187
-0.00340757
-0.00344409
-0.00365446
-0.00407499
-0.00471259
-0.00558548
-0.00669377
-0.00799833
-0.00943811
-0.0109467
-0.0124622
-0.0139327
-0.0153178
-0.0165876
-0.0177207
-0.0187019
-0.01952
-0.0201671
-0.020637
-0.0209249
-0.0210269
-0.0209404
-0.0206637
-0.0201958
-0.0195391
-0.0186978
-0.0176797
-0.0164985
-0.0151746
-0.0137371
-0.0122209
-0.0106699
-0.00912933
-0.0076673
-0.00635507
-0.00525163
-0.00416236
-0.00413184
-0.00193625
-0.00332445
-0.00320295
-0.0031336
-0.00310069
-0.00322156
-0.00356214
-0.00417706
-0.00508772
-0.0062651
-0.0076459
-0.00915371
-0.0107132
-0.0122583
-0.013736
-0.0151058
-0.0163385
-0.017413
-0.0183147
-0.019033
-0.0195603
-0.0198914
-0.0200219
-0.019949
-0.0196707
-0.0191854
-0.0184965
-0.0176083
-0.0165283
-0.0152701
-0.0138536
-0.0123078
-0.0106675
-0.00897826
-0.00728771
-0.00567098
-0.00419487
-0.0029234
-0.00164459
-0.00137147
0.0014457
-0.00312804
-0.00307059
-0.00288874
-0.00260635
-0.00239845
-0.00240711
-0.00273599
-0.00343063
-0.00446845
-0.00578076
-0.00728054
-0.0088796
-0.0104985
-0.0120712
-0.0135465
-0.0148861
-0.0160627
-0.0170571
-0.017856
-0.01845
-0.0188332
-0.0190013
-0.018951
-0.0186817
-0.0181891
-0.017479
-0.0165554
-0.0154254
-0.0141015
-0.012602
-0.0109539
-0.00918903
-0.00735312
-0.0054927
-0.00368736
-0.00199315
-0.000480335
0.00108818
0.00172897
0.00514496
-0.00292752
-0.00294993
-0.00266113
-0.00213977
-0.00159263
-0.00125702
-0.00129227
-0.00176729
-0.00266452
-0.00390818
-0.0053983
-0.00703384
-0.00872327
-0.0103892
-0.01197
-0.0134186
-0.0147012
-0.0157937
-0.0166797
-0.0173482
-0.0177919
-0.0180063
-0.0179881
-0.0177363
-0.0172549
-0.01654
-0.015598
-0.014436
-0.0130647
-0.0114979
-0.00975841
-0.00787078
-0.00587698
-0.00381428
-0.00175962
0.000253768
0.00214811
0.0041834
0.00538515
0.0095616
-0.00266802
-0.00275066
-0.00239058
-0.00164749
-0.000778781
-0.000123039
0.00011265
-0.000161757
-0.000931914
-0.00211489
-0.00359913
-0.00527122
-0.00702789
-0.00878179
-0.0104625
-0.012016
-0.013402
-0.0145922
-0.0155671
-0.0163139
-0.0168244
-0.0170935
-0.0171189
-0.0168999
-0.0164384
-0.0157347
-0.0147932
-0.01362
-0.0122226
-0.0106074
-0.0087901
-0.00678122
-0.00461183
-0.00229436
0.000112433
0.00262491
0.00516928
0.00804128
0.0103294
0.0160946
-0.00235277
-0.00244589
-0.0020072
-0.00108436
5.36457e-05
0.000959969
0.00140871
0.00129366
0.000624376
-0.000510816
-0.00199082
-0.00369441
-0.00550964
-0.00734076
-0.00911023
-0.0107582
-0.0122397
-0.0135221
-0.0145829
-0.0154079
-0.0159878
-0.0163167
-0.0163928
-0.0162153
-0.0157855
-0.0151043
-0.0141754
-0.013005
-0.0115969
-0.00995063
-0.0080697
-0.00594191
-0.00357703
-0.000935893
0.00196505
0.00525496
0.00889903
0.0133822
0.0181294
0.0275827
-0.00212861
-0.0021747
-0.00158425
-0.000467899
0.000843004
0.00194409
0.00252421
0.00251006
0.0019073
0.000801943
-0.00068409
-0.00242222
-0.00429267
-0.00619243
-0.00803774
-0.00976484
-0.011326
-0.0126851
-0.0138184
-0.0147103
-0.0153508
-0.0157336
-0.0158565
-0.0157191
-0.015323
-0.0146692
-0.0137589
-0.0125882
-0.0111685
-0.00949983
-0.00756732
-0.00533051
-0.00276875
0.000245148
0.00376726
0.00815842
0.0135139
0.0209786
0.0307387
0.0471392
-0.00309058
-0.00253671
-0.00145752
-9.39455e-06
0.00151081
0.00272539
0.00338431
0.00341955
0.00284981
0.00176539
0.000284211
-0.00146856
-0.00337239
-0.00532093
-0.00722524
-0.00901668
-0.010643
-0.0120658
-0.013259
-0.0142058
-0.014895
-0.0153216
-0.0154821
-0.0153769
-0.0150064
-0.0143728
-0.0134771
-0.0123209
-0.0109028
-0.00920365
-0.00723056
-0.00491923
-0.00221403
0.00110414
0.00523224
0.0108919
0.0187073
0.030893
0.0487981
0.0751043
-0.005221
-0.00166689
-2.74319e-05
0.00138744
0.00277796
0.00388596
0.00446665
0.00442737
0.00379561
0.0026677
0.0011589
-0.000618907
-0.00255531
-0.00454674
-0.0065036
-0.00835218
-0.0100355
-0.0115139
-0.0127595
-0.0137529
-0.0144832
-0.014944
-0.0151338
-0.0150517
-0.0146996
-0.0140776
-0.0131867
-0.0120246
-0.0105916
-0.00887669
-0.00691053
-0.00457621
-0.00190482
0.00158296
0.00604568
0.0128356
0.0238591
0.0417898
0.0694224
0.104225
)
;

boundaryField
{
    movingWall
    {
        type            zeroGradient;
    }
    fixedWalls
    {
        type            zeroGradient;
    }
    frontAndBack
    {
        type            empty;
    }
}


// ************************************************************************* //
