/*--------------------------------*- C++ -*----------------------------------*\
  =========                 |
  \\      /  F ield         | OpenFOAM: The Open Source CFD Toolbox
   \\    /   O peration     | Website:  https://openfoam.org
    \\  /    A nd           | Version:  13
     \\/     M anipulation  |
\*---------------------------------------------------------------------------*/
FoamFile
{
    format      ascii;
    class       surfaceScalarField;
    location    "8.5";
    object      phi;
}
// * * * * * * * * * * * * * * * * * * * * * * * * * * * * * * * * * * * * * //

dimensions      [0 3 -1 0 0 0 0];

internalField   nonuniform List<scalar> 
3120
(
9.43724e-08
-9.43735e-08
2.33814e-07
-1.39442e-07
3.37491e-07
-1.03677e-07
3.72081e-07
-3.45902e-08
3.60457e-07
1.16236e-08
3.39124e-07
2.13326e-08
3.30864e-07
8.26069e-09
3.27034e-07
3.82971e-09
3.04486e-07
2.2548e-08
2.44856e-07
5.96303e-08
1.28785e-07
1.1607e-07
-8.83418e-08
2.17127e-07
-4.29316e-07
3.40974e-07
-9.32e-07
5.02684e-07
-1.53025e-06
5.98248e-07
-2.11454e-06
5.84288e-07
-2.64332e-06
5.28781e-07
-3.09644e-06
4.53125e-07
-3.47182e-06
3.75374e-07
-3.77024e-06
2.98425e-07
-3.99386e-06
2.23618e-07
-4.14417e-06
1.50309e-07
-4.2228e-06
7.86302e-08
-4.22528e-06
2.48383e-09
-4.15203e-06
-7.32493e-08
-4.00369e-06
-1.48344e-07
-3.76604e-06
-2.37649e-07
-3.44039e-06
-3.25648e-07
-3.0189e-06
-4.21491e-07
-2.50318e-06
-5.15722e-07
-1.89486e-06
-6.08324e-07
-1.21885e-06
-6.76007e-07
-5.28277e-07
-6.90572e-07
9.97403e-08
-6.28018e-07
5.93005e-07
-4.93265e-07
7.93471e-07
-2.00466e-07
6.78326e-07
1.15145e-07
4.39762e-07
2.38564e-07
1.85372e-07
2.5439e-07
1.85372e-07
1.71127e-07
-2.65501e-07
3.59145e-07
-3.2746e-07
4.75138e-07
-2.1967e-07
5.07229e-07
-6.66811e-08
4.72929e-07
4.59235e-08
3.96713e-07
9.75484e-08
2.89248e-07
1.15725e-07
1.26443e-07
1.66635e-07
-1.34412e-07
2.83403e-07
-5.38747e-07
4.63966e-07
-1.11611e-06
6.93428e-07
-1.8295e-06
9.30525e-07
-2.57997e-06
1.09145e-06
-3.2267e-06
1.1494e-06
-3.73318e-06
1.10473e-06
-4.16627e-06
1.01737e-06
-4.53266e-06
8.9518e-07
-4.83746e-06
7.57919e-07
-5.07891e-06
6.16821e-07
-5.25898e-06
4.78501e-07
-5.37778e-06
3.42414e-07
-5.4398e-06
2.12332e-07
-5.44161e-06
8.0441e-08
-5.38661e-06
-5.25153e-08
-5.27115e-06
-1.8871e-07
-5.08733e-06
-3.32165e-07
-4.8363e-06
-4.88685e-07
-4.50513e-06
-6.56813e-07
-4.08545e-06
-8.41167e-07
-3.57491e-06
-1.02627e-06
-2.97888e-06
-1.20434e-06
-2.30496e-06
-1.34993e-06
-1.58116e-06
-1.41437e-06
-8.4985e-07
-1.35933e-06
-2.23898e-07
-1.11922e-06
2.38658e-07
-6.63022e-07
3.91282e-07
-3.74788e-08
3.23488e-07
3.06358e-07
1.51423e-07
4.26456e-07
3.36794e-07
2.08087e-07
-4.73588e-07
3.54145e-07
-4.73518e-07
4.04406e-07
-2.69931e-07
3.74895e-07
-3.71698e-08
2.77027e-07
1.43791e-07
1.04635e-07
2.69941e-07
-1.80715e-07
4.01075e-07
-6.15558e-07
6.01477e-07
-1.21461e-06
8.82452e-07
-1.93813e-06
1.18749e-06
-2.68203e-06
1.43732e-06
-3.33158e-06
1.58008e-06
-3.86552e-06
1.62539e-06
-4.2926e-06
1.57648e-06
-4.64344e-06
1.45558e-06
-4.92678e-06
1.30071e-06
-5.15706e-06
1.12547e-06
-5.34198e-06
9.42836e-07
-5.48578e-06
7.60616e-07
-5.58978e-06
5.82499e-07
-5.65706e-06
4.09702e-07
-5.68359e-06
2.38853e-07
-5.66723e-06
6.40843e-08
-5.61121e-06
-1.08529e-07
-5.51312e-06
-2.86809e-07
-5.36885e-06
-4.76427e-07
-5.17615e-06
-6.81387e-07
-4.92936e-06
-9.03604e-07
-4.62351e-06
-1.14702e-06
-4.24301e-06
-1.40677e-06
-3.77725e-06
-1.6701e-06
-3.21705e-06
-1.91013e-06
-2.56799e-06
-2.06343e-06
-1.85777e-06
-2.06955e-06
-1.13497e-06
-1.84202e-06
-4.86105e-07
-1.31188e-06
-7.5152e-08
-4.48431e-07
3.48713e-08
1.96334e-07
2.42074e-08
4.3712e-07
3.61002e-07
1.73332e-07
-6.4692e-07
2.31143e-07
-5.31329e-07
1.85329e-07
-2.24117e-07
5.89805e-08
8.91791e-08
-1.56562e-07
3.59334e-07
-4.98125e-07
6.11504e-07
-9.9455e-07
8.975e-07
-1.63283e-06
1.23976e-06
-2.34454e-06
1.59416e-06
-3.03331e-06
1.87626e-06
-3.61833e-06
2.02234e-06
-4.08169e-06
2.04344e-06
-4.43732e-06
1.98102e-06
-4.71171e-06
1.85087e-06
-4.93347e-06
1.67733e-06
-5.11043e-06
1.47767e-06
-5.25434e-06
1.26938e-06
-5.3728e-06
1.0613e-06
-5.46789e-06
8.55702e-07
-5.53487e-06
6.49486e-07
-5.57423e-06
4.4906e-07
-5.58336e-06
2.47986e-07
-5.56317e-06
4.38885e-08
-5.51569e-06
-1.56007e-07
-5.43835e-06
-3.64153e-07
-5.32857e-06
-5.86201e-07
-5.18456e-06
-8.25399e-07
-5.00263e-06
-1.08553e-06
-4.78196e-06
-1.36769e-06
-4.51733e-06
-1.6714e-06
-4.20258e-06
-1.98485e-06
-3.82049e-06
-2.29222e-06
-3.32808e-06
-2.55584e-06
-2.70897e-06
-2.68866e-06
-1.97498e-06
-2.57602e-06
-1.1837e-06
-2.10316e-06
-4.58155e-07
-1.17397e-06
-1.35447e-07
-1.26374e-07
-2.96206e-08
3.31293e-07
3.31381e-07
8.10799e-08
-7.28e-07
2.21307e-08
-4.7238e-07
-1.32051e-07
-6.99358e-08
-3.73035e-07
3.30163e-07
-7.25379e-07
7.11678e-07
-1.21145e-06
1.09757e-06
-1.82145e-06
1.5075e-06
-2.49227e-06
1.91058e-06
-3.1287e-06
2.23059e-06
-3.65287e-06
2.40044e-06
-4.05489e-06
2.42436e-06
-4.36453e-06
2.35308e-06
-4.59791e-06
2.2144e-06
-4.77678e-06
2.02975e-06
-4.91904e-06
1.81959e-06
-5.03553e-06
1.59416e-06
-5.12791e-06
1.36175e-06
-5.19368e-06
1.12707e-06
-5.2335e-06
8.95527e-07
-5.25346e-06
6.69444e-07
-5.25517e-06
4.50772e-07
-5.24136e-06
2.34171e-07
-5.21341e-06
1.59429e-08
-5.16826e-06
-2.01159e-07
-5.10474e-06
-4.27668e-07
-5.02337e-06
-6.67577e-07
-4.92358e-06
-9.25189e-07
-4.80399e-06
-1.20512e-06
-4.66117e-06
-1.51051e-06
-4.49044e-06
-1.84213e-06
-4.282e-06
-2.19329e-06
-4.02781e-06
-2.54641e-06
-3.70856e-06
-2.87509e-06
-3.27709e-06
-3.12013e-06
-2.6705e-06
-3.1826e-06
-1.8775e-06
-2.89617e-06
-9.28199e-07
-2.12327e-06
-2.21791e-07
-8.32782e-07
-1.56254e-08
1.25127e-07
3.15756e-07
-5.34636e-08
-6.74536e-07
-2.2709e-07
-2.98754e-07
-4.85298e-07
1.88272e-07
-8.3584e-07
6.80706e-07
-1.29604e-06
1.17188e-06
-1.85874e-06
1.66027e-06
-2.47481e-06
2.12357e-06
-3.06339e-06
2.49916e-06
-3.54929e-06
2.71649e-06
-3.91169e-06
2.76284e-06
-4.18295e-06
2.69562e-06
-4.38564e-06
2.55577e-06
-4.53453e-06
2.36329e-06
-4.64431e-06
2.13953e-06
-4.72113e-06
1.89641e-06
-4.7716e-06
1.64463e-06
-4.80124e-06
1.39139e-06
-4.81651e-06
1.14233e-06
-4.8216e-06
9.00622e-07
-4.81758e-06
6.65418e-07
-4.80253e-06
4.35725e-07
-4.77708e-06
2.08717e-07
-4.74291e-06
-1.82205e-08
-4.69672e-06
-2.47351e-07
-4.64033e-06
-4.84063e-07
-4.57497e-06
-7.32934e-07
-4.50158e-06
-9.98579e-07
-4.4209e-06
-1.2858e-06
-4.33258e-06
-1.59883e-06
-4.23448e-06
-1.94023e-06
-4.11954e-06
-2.30823e-06
-3.97282e-06
-2.69314e-06
-3.77687e-06
-3.07103e-06
-3.50176e-06
-3.39525e-06
-3.08897e-06
-3.59539e-06
-2.44631e-06
-3.53882e-06
-1.52679e-06
-3.0428e-06
-4.93374e-07
-1.86619e-06
-3.19129e-08
-3.36334e-07
2.83843e-07
-1.81266e-07
-4.93271e-07
-4.70717e-07
-9.30212e-09
-8.19959e-07
5.37514e-07
-1.25595e-06
1.11669e-06
-1.774e-06
1.68994e-06
-2.3382e-06
2.22447e-06
-2.88568e-06
2.67105e-06
-3.34617e-06
2.95965e-06
-3.68458e-06
3.0549e-06
-3.92709e-06
3.00534e-06
-4.10239e-06
2.87092e-06
-4.22302e-06
2.6764e-06
-4.30305e-06
2.44331e-06
-4.35214e-06
2.18862e-06
-4.37854e-06
1.9228e-06
-4.3896e-06
1.65569e-06
-4.39066e-06
1.39245e-06
-4.38473e-06
1.13641e-06
-4.37229e-06
8.88177e-07
-4.35349e-06
6.46618e-07
-4.32798e-06
4.10221e-07
-4.29575e-06
1.76487e-07
-4.25706e-06
-5.69119e-08
-4.21121e-06
-2.93207e-07
-4.1591e-06
-5.36167e-07
-4.10223e-06
-7.89808e-07
-4.04233e-06
-1.05848e-06
-3.98134e-06
-1.34679e-06
-3.92085e-06
-1.65933e-06
-3.86117e-06
-1.99991e-06
-3.79934e-06
-2.37005e-06
-3.72667e-06
-2.76581e-06
-3.62518e-06
-3.17252e-06
-3.46255e-06
-3.55787e-06
-3.19572e-06
-3.86222e-06
-2.74915e-06
-3.9854e-06
-2.03124e-06
-3.76071e-06
-9.52344e-07
-2.94509e-06
-1.16246e-07
-1.17243e-06
1.67597e-07
-2.9489e-07
-1.9838e-07
-6.64402e-07
3.6021e-07
-1.09202e-06
9.65132e-07
-1.57683e-06
1.6015e-06
-2.09945e-06
2.21257e-06
-2.61532e-06
2.74033e-06
-3.06383e-06
3.11955e-06
-3.39668e-06
3.2925e-06
-3.62448e-06
3.2827e-06
-3.78266e-06
3.16352e-06
-3.88677e-06
2.97504e-06
-3.94905e-06
2.73867e-06
-3.9817e-06
2.47596e-06
-3.99344e-06
2.20037e-06
-3.99225e-06
1.92161e-06
-3.98337e-06
1.6468e-06
-3.96986e-06
1.37895e-06
-3.95285e-06
1.1194e-06
-3.93224e-06
8.67568e-07
-3.90775e-06
6.22127e-07
-3.87884e-06
3.81317e-07
-3.84511e-06
1.42754e-07
-3.80618e-06
-9.58412e-08
-3.76202e-06
-3.37367e-07
-3.71329e-06
-5.84897e-07
-3.66138e-06
-8.41719e-07
-3.60834e-06
-1.11152e-06
-3.55676e-06
-1.39837e-06
-3.50928e-06
-1.7068e-06
-3.46775e-06
-2.04144e-06
-3.43175e-06
-2.40605e-06
-3.3963e-06
-2.80126e-06
-3.34832e-06
-3.2205e-06
-3.26207e-06
-3.64412e-06
-3.09549e-06
-4.02881e-06
-2.79048e-06
-4.2904e-06
-2.26907e-06
-4.28213e-06
-1.42963e-06
-3.78452e-06
-3.35558e-07
-2.26651e-06
-1.67961e-07
-3.71182e-07
1.72801e-07
-8.08559e-07
7.97587e-07
-1.27593e-06
1.4325e-06
-1.76918e-06
2.09476e-06
-2.26273e-06
2.70611e-06
-2.71127e-06
3.18887e-06
-3.05483e-06
3.46312e-06
-3.28633e-06
3.52399e-06
-3.43963e-06
3.436e-06
-3.53801e-06
3.26191e-06
-3.59335e-06
3.03038e-06
-3.61823e-06
2.76355e-06
-3.62291e-06
2.48064e-06
-3.61519e-06
2.19265e-06
-3.60114e-06
1.90756e-06
-3.58398e-06
1.62964e-06
-3.56525e-06
1.36022e-06
-3.54517e-06
1.09932e-06
-3.52331e-06
8.45703e-07
-3.49891e-06
5.97731e-07
-3.4711e-06
3.53508e-07
-3.43914e-06
1.10794e-07
-3.40238e-06
-1.32607e-07
-3.36073e-06
-3.79015e-07
-3.31466e-06
-6.30966e-07
-3.26535e-06
-8.91033e-07
-3.21476e-06
-1.1621e-06
-3.16567e-06
-1.44747e-06
-3.12134e-06
-1.75113e-06
-3.08493e-06
-2.07785e-06
-3.05815e-06
-2.43284e-06
-3.03896e-06
-2.82045e-06
-3.01837e-06
-3.24109e-06
-2.97653e-06
-3.68596e-06
-2.87813e-06
-4.1272e-06
-2.6723e-06
-4.49623e-06
-2.30872e-06
-4.64571e-06
-1.70347e-06
-4.38977e-06
-6.30825e-07
-3.33915e-06
-7.98786e-07
-4.16046e-07
5.88847e-07
-8.87859e-07
1.2694e-06
-1.3666e-06
1.91124e-06
-1.84352e-06
2.57169e-06
-2.29305e-06
3.15564e-06
-2.65958e-06
3.55539e-06
-2.91126e-06
3.7148e-06
-3.0758e-06
3.68853e-06
-3.17875e-06
3.53896e-06
-3.23695e-06
3.32011e-06
-3.26209e-06
3.05552e-06
-3.26589e-06
2.76735e-06
-3.25693e-06
2.47169e-06
-3.24156e-06
2.17728e-06
-3.22386e-06
1.88986e-06
-3.20569e-06
1.61146e-06
-3.18763e-06
1.34216e-06
-3.16934e-06
1.08103e-06
-3.15001e-06
8.26374e-07
-3.12862e-06
5.76341e-07
-3.10411e-06
3.29e-07
-3.07562e-06
8.23043e-08
-3.04242e-06
-1.65806e-07
-3.00426e-06
-4.17178e-07
-2.96136e-06
-6.73871e-07
-2.91452e-06
-9.37869e-07
-2.86531e-06
-1.21131e-06
-2.81611e-06
-1.49667e-06
-2.77012e-06
-1.79713e-06
-2.73098e-06
-2.11698e-06
-2.70186e-06
-2.46197e-06
-2.68343e-06
-2.83887e-06
-2.67094e-06
-3.25359e-06
-2.65045e-06
-3.70645e-06
-2.59372e-06
-4.18394e-06
-2.45164e-06
-4.63831e-06
-2.1756e-06
-4.92175e-06
-1.70116e-06
-4.86421e-06
-9.0522e-07
-4.13509e-06
-1.70401e-06
-4.33651e-07
1.0225e-06
-9.09635e-07
1.74538e-06
-1.37589e-06
2.37749e-06
-1.81972e-06
3.01551e-06
-2.212e-06
3.54792e-06
-2.49662e-06
3.84001e-06
-2.68709e-06
3.90528e-06
-2.80693e-06
3.80836e-06
-2.87632e-06
3.60835e-06
-2.90974e-06
3.35353e-06
-2.91842e-06
3.06419e-06
-2.91267e-06
2.7616e-06
-2.89943e-06
2.45845e-06
-2.88348e-06
2.16133e-06
-2.86741e-06
1.87379e-06
-2.85213e-06
1.59618e-06
-2.8376e-06
1.32764e-06
-2.8231e-06
1.06653e-06
-2.80764e-06
8.10918e-07
-2.79015e-06
5.58842e-07
-2.76956e-06
3.08417e-07
-2.74506e-06
5.77978e-08
-2.71597e-06
-1.94888e-07
-2.68193e-06
-4.5122e-07
-2.64295e-06
-7.12858e-07
-2.59945e-06
-9.81369e-07
-2.55246e-06
-1.2583e-06
-2.50373e-06
-1.5454e-06
-2.45588e-06
-1.84497e-06
-2.41233e-06
-2.16053e-06
-2.37675e-06
-2.49754e-06
-2.35164e-06
-2.86399e-06
-2.33569e-06
-3.26954e-06
-2.32036e-06
-3.72178e-06
-2.28517e-06
-4.21912e-06
-2.18774e-06
-4.73575e-06
-1.95989e-06
-5.1496e-06
-1.57571e-06
-5.24838e-06
-9.60661e-07
-4.75014e-06
-2.66467e-06
-4.23387e-07
1.44588e-06
-8.81974e-07
2.20397e-06
-1.31849e-06
2.81401e-06
-1.72015e-06
3.41717e-06
-2.0471e-06
3.87487e-06
-2.27085e-06
4.06376e-06
-2.41981e-06
4.05424e-06
-2.50799e-06
3.89655e-06
-2.55612e-06
3.65649e-06
-2.57572e-06
3.37312e-06
-2.57723e-06
3.06571e-06
-2.5692e-06
2.75357e-06
-2.55704e-06
2.44629e-06
-2.54418e-06
2.14847e-06
-2.53213e-06
1.86174e-06
-2.52119e-06
1.58524e-06
-2.51091e-06
1.31736e-06
-2.50044e-06
1.05606e-06
-2.48879e-06
7.99266e-07
-2.47498e-06
5.45031e-07
-2.45812e-06
2.91562e-07
-2.43751e-06
3.71826e-08
-2.41259e-06
-2.19802e-07
-2.38297e-06
-4.80845e-07
-2.34848e-06
-7.47345e-07
-2.30924e-06
-1.02061e-06
-2.26573e-06
-1.30181e-06
-2.21902e-06
-1.59211e-06
-2.17092e-06
-1.89307e-06
-2.1242e-06
-2.20726e-06
-2.08237e-06
-2.53937e-06
-2.04888e-06
-2.89748e-06
-2.02493e-06
-3.29348e-06
-2.0061e-06
-3.74062e-06
-1.9785e-06
-4.24672e-06
-1.91155e-06
-4.80269e-06
-1.72659e-06
-5.33456e-06
-1.40998e-06
-5.56499e-06
-8.60196e-07
-5.29993e-06
-3.52486e-06
-3.92548e-07
1.83843e-06
-8.18028e-07
2.62945e-06
-1.21508e-06
3.21106e-06
-1.56807e-06
3.77016e-06
-1.83115e-06
4.13794e-06
-2.01265e-06
4.24526e-06
-2.12961e-06
4.1712e-06
-2.19761e-06
3.96454e-06
-2.23311e-06
3.69199e-06
-2.24617e-06
3.38619e-06
-2.24615e-06
3.06569e-06
-2.23982e-06
2.74724e-06
-2.23127e-06
2.43774e-06
-2.22286e-06
2.14006e-06
-2.21536e-06
1.85424e-06
-2.2087e-06
1.57858e-06
-2.20228e-06
1.31093e-06
-2.19525e-06
1.04903e-06
-2.18679e-06
7.90804e-07
-2.17612e-06
5.34355e-07
-2.16256e-06
2.78004e-07
-2.14556e-06
2.01893e-08
-2.12471e-06
-2.40653e-07
-2.09963e-06
-5.05927e-07
-2.07006e-06
-7.76921e-07
-2.03585e-06
-1.05482e-06
-1.99708e-06
-1.34057e-06
-1.95418e-06
-1.63502e-06
-1.90816e-06
-1.93909e-06
-1.86091e-06
-2.2545e-06
-1.81537e-06
-2.58492e-06
-1.77514e-06
-2.93771e-06
-1.74302e-06
-3.3256e-06
-1.7176e-06
-3.76604e-06
-1.68942e-06
-4.27489e-06
-1.63606e-06
-4.85605e-06
-1.49798e-06
-5.47264e-06
-1.22036e-06
-5.84261e-06
-7.54203e-07
-5.76608e-06
-4.27907e-06
-3.47817e-07
2.18625e-06
-7.3007e-07
3.0117e-06
-1.08048e-06
3.56148e-06
-1.37923e-06
4.06891e-06
-1.58947e-06
4.34818e-06
-1.73874e-06
4.39453e-06
-1.83285e-06
4.26531e-06
-1.88748e-06
4.01918e-06
-1.9159e-06
3.72041e-06
-1.92683e-06
3.39711e-06
-1.92823e-06
3.0671e-06
-1.92529e-06
2.7443e-06
-1.92105e-06
2.4335e-06
-1.91705e-06
2.13606e-06
-1.91363e-06
1.85082e-06
-1.91052e-06
1.57547e-06
-1.90713e-06
1.30755e-06
-1.9028e-06
1.0447e-06
-1.89687e-06
7.84876e-07
-1.88881e-06
5.26295e-07
-1.87816e-06
2.67357e-07
-1.86454e-06
6.56842e-09
-1.84763e-06
-2.57558e-07
-1.82713e-06
-5.26433e-07
-1.80271e-06
-8.01345e-07
-1.77406e-06
-1.08346e-06
-1.74095e-06
-1.37368e-06
-1.70332e-06
-1.67266e-06
-1.66149e-06
-1.98092e-06
-1.61655e-06
-2.29944e-06
-1.57064e-06
-2.63082e-06
-1.52706e-06
-2.98129e-06
-1.48938e-06
-3.36328e-06
-1.45873e-06
-3.79668e-06
-1.42949e-06
-4.30413e-06
-1.38494e-06
-4.90061e-06
-1.28538e-06
-5.57221e-06
-1.03732e-06
-6.09067e-06
-6.41373e-07
-6.16202e-06
-4.92044e-06
-2.95379e-07
2.48163e-06
-6.25602e-07
3.34193e-06
-9.25228e-07
3.8611e-06
-1.16939e-06
4.31308e-06
-1.34071e-06
4.5195e-06
-1.4633e-06
4.51712e-06
-1.53922e-06
4.34123e-06
-1.58443e-06
4.06439e-06
-1.60891e-06
3.74488e-06
-1.61992e-06
3.40812e-06
-1.62387e-06
3.07105e-06
-1.6246e-06
2.74503e-06
-1.62432e-06
2.43322e-06
-1.62401e-06
2.13574e-06
-1.62377e-06
1.85058e-06
-1.6233e-06
1.57501e-06
-1.62215e-06
1.30639e-06
-1.61983e-06
1.04238e-06
-1.61593e-06
7.80976e-07
-1.61012e-06
5.20482e-07
-1.60212e-06
2.59362e-07
-1.59171e-06
-3.84822e-09
-1.57866e-06
-2.70607e-07
-1.56273e-06
-5.42364e-07
-1.54359e-06
-8.20482e-07
-1.52085e-06
-1.1062e-06
-1.49406e-06
-1.40048e-06
-1.46279e-06
-1.70393e-06
-1.42686e-06
-2.01684e-06
-1.38667e-06
-2.33963e-06
-1.34363e-06
-2.67387e-06
-1.30047e-06
-3.02445e-06
-1.26096e-06
-3.40279e-06
-1.2278e-06
-3.82984e-06
-1.19786e-06
-4.33407e-06
-1.15873e-06
-4.93974e-06
-1.08383e-06
-5.64711e-06
-8.80529e-07
-6.29397e-06
-5.51001e-07
-6.49155e-06
-5.47144e-06
-2.35784e-07
2.71741e-06
-5.11531e-07
3.61768e-06
-7.60655e-07
4.11022e-06
-9.54868e-07
4.50729e-06
-1.09316e-06
4.65779e-06
-1.19119e-06
4.61515e-06
-1.25324e-06
4.40328e-06
-1.29157e-06
4.10272e-06
-1.31371e-06
3.76702e-06
-1.32559e-06
3.42e-06
-1.33209e-06
3.07755e-06
-1.33599e-06
2.74892e-06
-1.33883e-06
2.43607e-06
-1.34124e-06
2.13815e-06
-1.34323e-06
1.85257e-06
-1.34459e-06
1.57637e-06
-1.34502e-06
1.30682e-06
-1.34424e-06
1.04159e-06
-1.34203e-06
7.78769e-07
-1.33824e-06
5.16695e-07
-1.33275e-06
2.53872e-07
-1.32545e-06
-1.11552e-08
-1.31619e-06
-2.79857e-07
-1.30482e-06
-5.5374e-07
-1.29102e-06
-8.34278e-07
-1.27438e-06
-1.12284e-06
-1.25434e-06
-1.42053e-06
-1.23023e-06
-1.72804e-06
-1.20149e-06
-2.04558e-06
-1.16799e-06
-2.37313e-06
-1.1305e-06
-2.71137e-06
-1.09118e-06
-3.06376e-06
-1.05379e-06
-3.44018e-06
-1.02214e-06
-3.86149e-06
-9.95698e-07
-4.36051e-06
-9.65571e-07
-4.96987e-06
-9.11584e-07
-5.7011e-06
-7.47802e-07
-6.45775e-06
-4.62157e-07
-6.7772e-06
-5.9336e-06
-1.76744e-07
2.89416e-06
-3.95265e-07
3.8362e-06
-5.93325e-07
4.30828e-06
-7.41811e-07
4.65578e-06
-8.4985e-07
4.76583e-06
-9.2653e-07
4.69183e-06
-9.76962e-07
4.45371e-06
-1.00971e-06
4.13547e-06
-1.03013e-06
3.78744e-06
-1.04282e-06
3.43268e-06
-1.0513e-06
3.08604e-06
-1.05751e-06
2.75512e-06
-1.0625e-06
2.44106e-06
-1.06667e-06
2.14232e-06
-1.07006e-06
1.85597e-06
-1.07258e-06
1.57889e-06
-1.0741e-06
1.30833e-06
-1.07452e-06
1.04202e-06
-1.0738e-06
7.78053e-07
-1.07193e-06
5.14818e-07
-1.06888e-06
2.50824e-07
-1.06464e-06
-1.53959e-08
-1.05915e-06
-2.85341e-07
-1.05231e-06
-5.60584e-07
-1.04387e-06
-8.42719e-07
-1.03343e-06
-1.13327e-06
-1.02041e-06
-1.43355e-06
-1.00402e-06
-1.74442e-06
-9.83465e-07
-2.06613e-06
-9.58193e-07
-2.3984e-06
-9.28415e-07
-2.74115e-06
-8.95704e-07
-3.09647e-06
-8.63437e-07
-3.47245e-06
-8.36117e-07
-3.88881e-06
-8.1574e-07
-4.38089e-06
-7.95601e-07
-4.99001e-06
-7.55893e-07
-5.74081e-06
-6.40168e-07
-6.57348e-06
-4.02721e-07
-7.01464e-06
-6.33632e-06
-1.13176e-07
3.00733e-06
-2.7757e-07
4.00059e-06
-4.25678e-07
4.45639e-06
-5.33107e-07
4.76321e-06
-6.13649e-07
4.84637e-06
-6.70979e-07
4.74916e-06
-7.1078e-07
4.49351e-06
-7.38336e-07
4.16302e-06
-7.57e-07
3.80611e-06
-7.69989e-07
3.44567e-06
-7.7966e-07
3.09571e-06
-7.87241e-07
2.7627e-06
-7.93438e-07
2.44726e-06
-7.98543e-07
2.14743e-06
-8.02656e-07
1.86008e-06
-8.05819e-07
1.58205e-06
-8.08073e-07
1.31059e-06
-8.09484e-07
1.04343e-06
-8.10131e-07
7.787e-07
-8.10103e-07
5.1479e-07
-8.09474e-07
2.50195e-07
-8.08293e-07
-1.65768e-08
-8.0657e-07
-2.87064e-07
-8.0425e-07
-5.62904e-07
-8.01164e-07
-8.45806e-07
-7.96976e-07
-1.13746e-06
-7.91136e-07
-1.43939e-06
-7.82853e-07
-1.7527e-06
-7.71192e-07
-2.0778e-06
-7.55333e-07
-2.41426e-06
-7.35066e-07
-2.76141e-06
-7.11435e-07
-3.1201e-06
-6.87378e-07
-3.49651e-06
-6.67614e-07
-3.90858e-06
-6.55924e-07
-4.39258e-06
-6.47864e-07
-4.99807e-06
-6.24387e-07
-5.76428e-06
-5.43408e-07
-6.65446e-06
-3.45783e-07
-7.21227e-06
-6.6821e-06
-5.63673e-08
3.0637e-06
-1.62716e-07
4.10694e-06
-2.60831e-07
4.55451e-06
-3.30768e-07
4.83314e-06
-3.85199e-07
4.90081e-06
-4.24325e-07
4.78829e-06
-4.53927e-07
4.52312e-06
-4.7618e-07
4.18528e-06
-4.92658e-07
3.82259e-06
-5.05253e-07
3.45826e-06
-5.15274e-07
3.10573e-06
-5.23359e-07
2.77079e-06
-5.29958e-07
2.45386e-06
-5.35316e-07
2.15278e-06
-5.39614e-07
1.86438e-06
-5.4303e-07
1.58547e-06
-5.45752e-07
1.31331e-06
-5.47977e-07
1.04565e-06
-5.49893e-07
7.80616e-07
-5.51671e-07
5.16568e-07
-5.53452e-07
2.51976e-07
-5.55341e-07
-1.46883e-08
-5.57395e-07
-2.85011e-07
-5.59614e-07
-5.60684e-07
-5.61901e-07
-8.43519e-07
-5.64004e-07
-1.13536e-06
-5.65455e-07
-1.43794e-06
-5.65527e-07
-1.75263e-06
-5.63263e-07
-2.08006e-06
-5.57689e-07
-2.41983e-06
-5.48264e-07
-2.77084e-06
-5.35564e-07
-3.1328e-06
-5.22052e-07
-3.51002e-06
-5.12362e-07
-3.91827e-06
-5.11294e-07
-4.39365e-06
-5.16596e-07
-4.99276e-06
-5.12753e-07
-5.76813e-06
-4.64275e-07
-6.70293e-06
-3.04749e-07
-7.3718e-06
-6.98685e-06
6.74889e-09
3.05695e-06
-4.69552e-08
4.16064e-06
-9.97134e-08
4.60727e-06
-1.35776e-07
4.86921e-06
-1.64311e-07
4.92934e-06
-1.86022e-07
4.81e-06
-2.05106e-07
4.5422e-06
-2.21525e-07
4.2017e-06
-2.35212e-07
3.83627e-06
-2.46666e-07
3.46972e-06
-2.56285e-07
3.11535e-06
-2.64117e-07
2.77862e-06
-2.70475e-07
2.46022e-06
-2.75549e-07
2.15786e-06
-2.79604e-07
1.86843e-06
-2.82949e-07
1.58881e-06
-2.85907e-07
1.31627e-06
-2.88789e-07
1.04853e-06
-2.91875e-07
7.83703e-07
-2.95408e-07
5.20101e-07
-2.99584e-07
2.56152e-07
-3.04554e-07
-9.71855e-09
-3.10414e-07
-2.7915e-07
-3.17213e-07
-5.53885e-07
-3.24915e-07
-8.35817e-07
-3.33356e-07
-1.12692e-06
-3.42188e-07
-1.42911e-06
-3.50801e-07
-1.74402e-06
-3.58309e-07
-2.07255e-06
-3.63694e-07
-2.41445e-06
-3.66198e-07
-2.76833e-06
-3.65995e-07
-3.133e-06
-3.65056e-07
-3.51096e-06
-3.67703e-07
-3.91562e-06
-3.79249e-07
-4.3821e-06
-3.99526e-07
-4.97249e-06
-4.15212e-07
-5.75244e-06
-3.93794e-07
-6.72435e-06
-2.66163e-07
-7.49943e-06
-7.25301e-06
6.49855e-08
2.99196e-06
6.60433e-08
4.15959e-06
5.63182e-08
4.61699e-06
5.24847e-08
4.87304e-06
5.00146e-08
4.93181e-06
4.49902e-08
4.81502e-06
3.71492e-08
4.55004e-06
2.73022e-08
4.21154e-06
1.71865e-08
3.84639e-06
7.67898e-09
3.47922e-06
-6.55091e-10
3.12368e-06
-7.75656e-09
2.78572e-06
-1.33819e-08
2.46584e-06
-1.77517e-08
2.16223e-06
-2.12267e-08
1.87191e-06
-2.42351e-08
1.59182e-06
-2.722e-08
1.31925e-06
-3.05982e-08
1.05191e-06
-3.47376e-08
7.87842e-07
-3.99477e-08
5.25311e-07
-4.64776e-08
2.62682e-07
-5.45288e-08
-1.66741e-09
-6.42287e-08
-2.6945e-07
-7.56662e-08
-5.42448e-07
-8.88565e-08
-8.22627e-07
-1.03719e-07
-1.11205e-06
-1.2002e-07
-1.41281e-06
-1.37305e-07
-1.72673e-06
-1.54843e-07
-2.05501e-06
-1.71696e-07
-2.39759e-06
-1.86997e-07
-2.75303e-06
-2.00495e-07
-3.1195e-06
-2.13742e-07
-3.49771e-06
-2.30611e-07
-3.89875e-06
-2.56608e-07
-4.35611e-06
-2.93414e-07
-4.93568e-06
-3.29645e-07
-5.71621e-06
-3.35645e-07
-6.71835e-06
-2.37154e-07
-7.59792e-06
-7.49017e-06
1.23871e-07
2.86809e-06
1.77327e-07
4.10613e-06
2.09673e-07
4.58465e-06
2.39078e-07
4.84363e-06
2.63441e-07
4.90745e-06
2.75217e-07
4.80325e-06
2.76564e-07
4.54869e-06
2.72929e-07
4.21518e-06
2.6664e-07
3.85268e-06
2.59508e-07
3.48636e-06
2.52732e-07
3.13046e-06
2.4711e-07
2.79134e-06
2.42742e-07
2.47021e-06
2.39471e-07
2.1655e-06
2.36895e-07
1.87448e-06
2.3449e-07
1.59423e-06
2.31706e-07
1.32204e-06
2.28026e-07
1.05559e-06
2.22996e-07
7.92872e-07
2.16236e-07
5.32071e-07
2.07435e-07
2.71482e-07
1.96361e-07
9.40741e-09
1.82823e-07
-2.55913e-07
1.66707e-07
-5.26331e-07
1.4794e-07
-8.03861e-07
1.26536e-07
-1.09065e-06
1.02625e-07
-1.3889e-06
7.65021e-08
-1.70061e-06
4.87143e-08
-2.02722e-06
2.00914e-08
-2.36897e-06
-8.54326e-09
-2.7244e-06
-3.69975e-08
-3.09105e-06
-6.59595e-08
-3.46875e-06
-9.8783e-08
-3.86593e-06
-1.40935e-07
-4.31395e-06
-1.95263e-07
-4.88135e-06
-2.51315e-07
-5.66016e-06
-2.82443e-07
-6.68722e-06
-2.1051e-07
-7.66985e-06
-7.70068e-06
1.8281e-07
2.68528e-06
2.87358e-07
4.00158e-06
3.58778e-07
4.51323e-06
4.18616e-07
4.7838e-06
4.68676e-07
4.85739e-06
4.99672e-07
4.77225e-06
5.11952e-07
4.53641e-06
5.15858e-07
4.21127e-06
5.14454e-07
3.85408e-06
5.10553e-07
3.49026e-06
5.06131e-07
3.13488e-06
5.02322e-07
2.79515e-06
4.99546e-07
2.47299e-06
4.97686e-07
2.16736e-06
4.96296e-07
1.87587e-06
4.94762e-07
1.59576e-06
4.92429e-07
1.32437e-06
4.88679e-07
1.05934e-06
4.82969e-07
7.98582e-07
4.74842e-07
5.40199e-07
4.63924e-07
2.824e-07
4.4992e-07
2.34116e-08
4.32603e-07
-2.38596e-07
4.11806e-07
-5.05535e-07
3.8741e-07
-7.79465e-07
3.59359e-07
-1.0626e-06
3.27659e-07
-1.3572e-06
2.92441e-07
-1.66539e-06
2.54048e-07
-1.98883e-06
2.1306e-07
-2.32798e-06
1.70204e-07
-2.68154e-06
1.26148e-07
-3.04699e-06
8.03432e-08
-3.42294e-06
3.00648e-08
-3.81565e-06
-3.00424e-08
-4.25385e-06
-1.03549e-07
-4.80785e-06
-1.80419e-07
-5.58329e-06
-2.33854e-07
-6.63379e-06
-1.90137e-07
-7.71357e-06
-7.89081e-06
2.39901e-07
2.44538e-06
3.95216e-07
3.84627e-06
5.04763e-07
4.40368e-06
5.95007e-07
4.69355e-06
6.67266e-07
4.78513e-06
7.18651e-07
4.72087e-06
7.44266e-07
4.5108e-06
7.57108e-07
4.19843e-06
7.61752e-07
3.84944e-06
7.6204e-07
3.48997e-06
7.60696e-07
3.13623e-06
7.59333e-07
2.79652e-06
7.58624e-07
2.4737e-06
7.5855e-07
2.16743e-06
7.58662e-07
1.87576e-06
7.58284e-07
1.59614e-06
7.56674e-07
1.32598e-06
7.53117e-07
1.0629e-06
7.46974e-07
8.04726e-07
7.37703e-07
5.4947e-07
7.24857e-07
2.95246e-07
7.08075e-07
4.01938e-08
6.87078e-07
-2.17599e-07
6.61646e-07
-4.80103e-07
6.31595e-07
-7.49414e-07
5.96782e-07
-1.02778e-06
5.57107e-07
-1.31752e-06
5.1257e-07
-1.62086e-06
4.6329e-07
-1.93955e-06
4.09571e-07
-2.27426e-06
3.51997e-07
-2.62397e-06
2.91221e-07
-2.98622e-06
2.27217e-07
-3.35894e-06
1.57933e-07
-3.74637e-06
7.82994e-08
-4.17421e-06
-1.60827e-08
-4.71347e-06
-1.15079e-07
-5.48429e-06
-1.89902e-07
-6.55897e-06
-1.7168e-07
-7.73179e-06
-8.06249e-06
2.94778e-07
2.1506e-06
4.9946e-07
3.64159e-06
6.45835e-07
4.2573e-06
7.6528e-07
4.57411e-06
8.59952e-07
4.69046e-06
9.32777e-07
4.64804e-06
9.74216e-07
4.46936e-06
9.97229e-07
4.17542e-06
1.00921e-06
3.83746e-06
1.01491e-06
3.48427e-06
1.01767e-06
3.13346e-06
1.01956e-06
2.79463e-06
1.02153e-06
2.47173e-06
1.02372e-06
2.16524e-06
1.02574e-06
1.87375e-06
1.02687e-06
1.595e-06
1.02632e-06
1.32654e-06
1.02327e-06
1.06595e-06
1.01699e-06
8.11006e-07
1.00685e-06
5.5961e-07
9.92313e-07
3.09778e-07
9.72952e-07
5.95554e-08
9.48414e-07
-1.93062e-07
9.1841e-07
-4.50098e-07
8.82686e-07
-7.1369e-07
8.41021e-07
-9.8612e-07
7.93215e-07
-1.26972e-06
7.39074e-07
-1.56672e-06
6.78458e-07
-1.87894e-06
6.11457e-07
-2.20726e-06
5.38446e-07
-2.55096e-06
4.60006e-07
-2.90778e-06
3.76513e-07
-3.27544e-06
2.86695e-07
-3.65655e-06
1.86105e-07
-4.07362e-06
7.01093e-08
-4.59747e-06
-5.22293e-08
-5.36195e-06
-1.48882e-07
-6.46231e-06
-1.5671e-07
-7.72396e-06
-8.2192e-06
3.45257e-07
1.80535e-06
5.97091e-07
3.38975e-06
7.79189e-07
4.07521e-06
9.26327e-07
4.42697e-06
1.04555e-06
4.57124e-06
1.13864e-06
4.55495e-06
1.19958e-06
4.40842e-06
1.23552e-06
4.13948e-06
1.25683e-06
3.81615e-06
1.26962e-06
3.47147e-06
1.27791e-06
3.12518e-06
1.28418e-06
2.78835e-06
1.28973e-06
2.46618e-06
1.2949e-06
2.16007e-06
1.29939e-06
1.86926e-06
1.30251e-06
1.59188e-06
1.30342e-06
1.32562e-06
1.30126e-06
1.06812e-06
1.29519e-06
8.17068e-07
1.28451e-06
5.70291e-07
1.26859e-06
3.25702e-07
1.2469e-06
8.12445e-08
1.21902e-06
-1.65181e-07
1.18457e-06
-4.15644e-07
1.1432e-06
-6.72319e-07
1.09459e-06
-9.37512e-07
1.03841e-06
-1.21354e-06
9.74298e-07
-1.50261e-06
9.01897e-07
-1.80654e-06
8.20965e-07
-2.12633e-06
7.31572e-07
-2.46157e-06
6.34318e-07
-2.81052e-06
5.29943e-07
-3.17107e-06
4.17947e-07
-3.54455e-06
2.94708e-07
-3.95038e-06
1.56185e-07
-4.45895e-06
1.27678e-08
-5.21853e-06
-1.07332e-07
-6.34221e-06
-1.39637e-07
-7.69166e-06
-8.35884e-06
3.8639e-07
1.41896e-06
6.823e-07
3.09384e-06
9.00065e-07
3.85744e-06
1.07513e-06
4.2519e-06
1.21938e-06
4.427e-06
1.33363e-06
4.4407e-06
1.41689e-06
4.32515e-06
1.46963e-06
4.08675e-06
1.5034e-06
3.78237e-06
1.52579e-06
3.44908e-06
1.54166e-06
3.10931e-06
1.55402e-06
2.776e-06
1.5645e-06
2.45569e-06
1.5737e-06
2.15086e-06
1.58149e-06
1.86147e-06
1.58728e-06
1.5861e-06
1.59022e-06
1.32268e-06
1.58942e-06
1.06891e-06
1.58401e-06
8.22484e-07
1.57317e-06
5.81125e-07
1.5562e-06
3.42673e-07
1.53248e-06
1.04964e-07
1.5015e-06
-1.34194e-07
1.46275e-06
-3.76897e-07
1.41578e-06
-6.25353e-07
1.36015e-06
-8.81879e-07
1.29535e-06
-1.14874e-06
1.22084e-06
-1.42809e-06
1.13599e-06
-1.72169e-06
1.04029e-06
-2.03063e-06
9.33544e-07
-2.35482e-06
8.1622e-07
-2.6932e-06
6.89302e-07
-3.04415e-06
5.5322e-07
-3.40847e-06
4.05079e-07
-3.80224e-06
2.4073e-07
-4.2946e-06
6.87885e-08
-5.04659e-06
-7.32796e-08
-6.20015e-06
-1.28504e-07
-7.63643e-06
-8.48735e-06
4.08627e-07
1.01033e-06
7.4579e-07
2.75668e-06
1.00231e-06
3.60093e-06
1.20661e-06
4.0476e-06
1.37585e-06
4.25776e-06
1.51417e-06
4.30237e-06
1.62142e-06
4.2179e-06
1.69554e-06
4.01263e-06
1.74619e-06
3.73172e-06
1.78186e-06
3.41341e-06
1.80833e-06
3.08285e-06
1.82923e-06
2.75509e-06
1.84664e-06
2.43829e-06
1.86146e-06
2.13604e-06
1.87381e-06
1.84913e-06
1.88323e-06
1.57667e-06
1.88899e-06
1.31692e-06
1.89021e-06
1.0677e-06
1.88598e-06
8.26714e-07
1.87545e-06
5.91648e-07
1.85783e-06
3.60294e-07
1.83241e-06
1.30381e-07
1.79857e-06
-1.00356e-07
1.75569e-06
-3.34011e-07
1.70316e-06
-5.72823e-07
1.64038e-06
-8.19095e-07
1.56664e-06
-1.07501e-06
1.48118e-06
-1.34263e-06
1.3831e-06
-1.62361e-06
1.27163e-06
-1.91915e-06
1.14629e-06
-2.22949e-06
1.00748e-06
-2.55439e-06
8.56291e-07
-2.89296e-06
6.93982e-07
-3.24616e-06
5.18731e-07
-3.62699e-06
3.26669e-07
-4.10253e-06
1.26859e-07
-4.84678e-06
-4.06792e-08
-6.03261e-06
-1.16216e-07
-7.5609e-06
-8.60356e-06
3.92589e-07
6.17743e-07
7.76802e-07
2.37246e-06
1.07716e-06
3.30057e-06
1.31327e-06
3.81148e-06
1.50835e-06
4.06269e-06
1.67306e-06
4.13766e-06
1.80724e-06
4.08372e-06
1.90755e-06
3.91232e-06
1.98058e-06
3.6587e-06
2.03454e-06
3.35944e-06
2.07587e-06
3.04151e-06
2.10886e-06
2.72211e-06
2.13608e-06
2.41107e-06
2.15885e-06
2.11327e-06
2.17759e-06
1.83039e-06
2.19209e-06
1.56217e-06
2.2018e-06
1.30722e-06
2.20592e-06
1.06358e-06
2.20358e-06
8.29046e-07
2.19394e-06
6.01291e-07
2.17613e-06
3.7811e-07
2.14937e-06
1.57134e-07
2.11292e-06
-6.39023e-08
2.06602e-06
-2.87111e-07
2.00791e-06
-5.14708e-07
1.93777e-06
-7.48956e-07
1.85467e-06
-9.91907e-07
1.75757e-06
-1.24553e-06
1.64532e-06
-1.51136e-06
1.51688e-06
-1.79072e-06
1.37157e-06
-2.08417e-06
1.2097e-06
-2.39251e-06
1.03244e-06
-2.7157e-06
8.41754e-07
-3.05548e-06
6.37066e-07
-3.4223e-06
4.15374e-07
-3.88084e-06
1.84821e-07
-4.61623e-06
-1.64706e-08
-5.83132e-06
-1.10258e-07
-7.46711e-06
-8.71382e-06
3.15789e-07
3.01954e-07
7.67606e-07
1.92065e-06
1.11369e-06
2.95448e-06
1.38521e-06
3.53996e-06
1.60906e-06
3.83883e-06
1.80205e-06
3.94467e-06
1.96663e-06
3.91915e-06
2.09834e-06
3.7806e-06
2.20013e-06
3.55691e-06
2.27871e-06
3.28086e-06
2.34052e-06
2.97971e-06
2.39035e-06
2.67227e-06
2.43135e-06
2.37007e-06
2.46531e-06
2.07931e-06
2.49306e-06
1.80264e-06
2.51473e-06
1.5405e-06
2.53e-06
1.29194e-06
2.53827e-06
1.05531e-06
2.53881e-06
8.28511e-07
2.53078e-06
6.09321e-07
2.51332e-06
3.95568e-07
2.48564e-06
1.84816e-07
2.44676e-06
-2.50249e-08
2.39592e-06
-2.3627e-07
2.33211e-06
-4.509e-07
2.2543e-06
-6.71145e-07
2.16128e-06
-8.98885e-07
2.05173e-06
-1.13599e-06
1.92424e-06
-1.38387e-06
1.77756e-06
-1.64404e-06
1.61083e-06
-1.91745e-06
1.42433e-06