/*--------------------------------*- C++ -*----------------------------------*\
  =========                 |
  \\      /  F ield         | OpenFOAM: The Open Source CFD Toolbox
   \\    /   O peration     | Website:  https://openfoam.org
    \\  /    A nd           | Version:  13
     \\/     M anipulation  |
\*---------------------------------------------------------------------------*/
FoamFile
{
    format      ascii;
    class       volVectorField;
    location    "8.5";
    object      U;
}
// * * * * * * * * * * * * * * * * * * * * * * * * * * * * * * * * * * * * * //

dimensions      [0 1 -1 0 0 0 0];

internalField   nonuniform List<vector> 
400
(
(0.00255712 -0.00306648 0)
(0.00206241 -0.000539352 0)
(-0.00675027 0.00380605 0)
(-0.0284868 0.0111728 0)
(-0.0617309 0.0144188 0)
(-0.0878664 0.0123757 0)
(-0.111528 0.0106521 0)
(-0.129317 0.00822859 0)
(-0.143542 0.00626909 0)
(-0.15317 0.00399315 0)
(-0.158896 0.00220061 0)
(-0.161095 0.000260608 0)
(-0.159644 -0.00288202 0)
(-0.152834 -0.00503138 0)
(-0.141595 -0.00834735 0)
(-0.123967 -0.0112597 0)
(-0.100502 -0.0146634 0)
(-0.0707624 -0.016606 0)
(-0.0378567 -0.0150738 0)
(-0.00932874 -0.00420611 0)
(-0.00205936 -0.00214769 0)
(-0.0128853 0.011861 0)
(-0.0392786 0.0308584 0)
(-0.0679781 0.04045 0)
(-0.0925281 0.0392841 0)
(-0.112568 0.035156 0)
(-0.129571 0.029599 0)
(-0.14207 0.023836 0)
(-0.152821 0.0171777 0)
(-0.159793 0.0113559 0)
(-0.164019 0.00557944 0)
(-0.164637 -7.45709e-05 0)
(-0.16195 -0.00631367 0)
(-0.155671 -0.0131967 0)
(-0.145367 -0.0215685 0)
(-0.130149 -0.0310702 0)
(-0.10977 -0.0419309 0)
(-0.0838534 -0.0516588 0)
(-0.0522557 -0.054325 0)
(-0.0193777 -0.0357838 0)
(-0.00828436 0.0138004 0)
(-0.0320267 0.0401042 0)
(-0.0584269 0.0565615 0)
(-0.0807702 0.060985 0)
(-0.0987188 0.0571698 0)
(-0.113326 0.0499136 0)
(-0.124988 0.040966 0)
(-0.133824 0.0315802 0)
(-0.139896 0.0231945 0)
(-0.142914 0.0147511 0)
(-0.144005 0.00646094 0)
(-0.142887 -0.00199753 0)
(-0.140078 -0.0108157 0)
(-0.13436 -0.0205043 0)
(-0.126015 -0.0317364 0)
(-0.114149 -0.0449564 0)
(-0.0982902 -0.0604954 0)
(-0.0778593 -0.0774425 0)
(-0.0513127 -0.0897688 0)
(-0.0223304 -0.0783473 0)
(-0.0123732 0.0376571 0)
(-0.0376578 0.0639752 0)
(-0.0604713 0.0768082 0)
(-0.0776184 0.07775 0)
(-0.090782 0.0713094 0)
(-0.100918 0.0614918 0)
(-0.108285 0.0500513 0)
(-0.113466 0.0383822 0)
(-0.116579 0.0272094 0)
(-0.118204 0.0164592 0)
(-0.11833 0.00623168 0)
(-0.116935 -0.00400866 0)
(-0.11396 -0.0147071 0)
(-0.10914 -0.0265296 0)
(-0.102454 -0.0401375 0)
(-0.0934908 -0.0562021 0)
(-0.0815399 -0.075097 0)
(-0.0656392 -0.0962698 0)
(-0.0438559 -0.11527 0)
(-0.0202227 -0.113178 0)
(-0.0125027 0.0602072 0)
(-0.0354413 0.0851423 0)
(-0.0537778 0.0938239 0)
(-0.0671528 0.0912199 0)
(-0.0769524 0.0817723 0)
(-0.0839407 0.0692464 0)
(-0.0886844 0.0554965 0)
(-0.0918749 0.041942 0)
(-0.0937067 0.0291443 0)
(-0.0943851 0.0170535 0)
(-0.0938927 0.00547329 0)
(-0.0922496 -0.00607495 0)
(-0.0894186 -0.0180643 0)
(-0.0853471 -0.0312154 0)
(-0.0800286 -0.0463385 0)
(-0.0733425 -0.064364 0)
(-0.0647471 -0.0860781 0)
(-0.0528141 -0.111505 0)
(-0.0355014 -0.136821 0)
(-0.0178255 -0.14237 0)
(-0.010592 0.0809776 0)
(-0.029364 0.103378 0)
(-0.0437178 0.108021 0)
(-0.0541109 0.101778 0)
(-0.0613383 0.089339 0)
(-0.0662641 0.0744121 0)
(-0.0695211 0.0588964 0)
(-0.0716693 0.0440359 0)
(-0.072808 0.0301399 0)
(-0.0730382 0.0170248 0)
(-0.0723814 0.00439637 0)
(-0.0708272 -0.00817256 0)
(-0.0683488 -0.0211684 0)
(-0.0649495 -0.0352599 0)
(-0.0606854 -0.0512854 0)
(-0.0555975 -0.0703104 0)
(-0.0495186 -0.0934764 0)
(-0.0410207 -0.12162 0)
(-0.0297041 -0.152839 0)
(-0.0121841 -0.166164 0)
(-0.00865978 0.0981964 0)
(-0.0220746 0.117897 0)
(-0.0329822 0.119165 0)
(-0.0406631 0.10976 0)
(-0.0458744 0.0948652 0)
(-0.0494182 0.0780901 0)
(-0.051785 0.0612925 0)
(-0.0533576 0.0454663 0)
(-0.0541967 0.0307258 0)
(-0.0543757 0.0168221 0)
(-0.053886 0.00339281 0)
(-0.0526785 -0.0100064 0)
(-0.050709 -0.0238522 0)
(-0.0479924 -0.0387218 0)
(-0.0446322 -0.0554017 0)
(-0.0407614 -0.0750379 0)
(-0.036513 -0.0989957 0)
(-0.0304291 -0.129126 0)
(-0.0238672 -0.164339 0)
(-0.00980456 -0.18566 0)
(-0.00574646 0.110814 0)
(-0.014666 0.128717 0)
(-0.0224983 0.127386 0)
(-0.0277218 0.115599 0)
(-0.031314 0.098921 0)
(-0.0338281 0.0808291 0)
(-0.0355872 0.0631086 0)
(-0.0368258 0.04657 0)
(-0.0375715 0.0312214 0)
(-0.0378605 0.0167467 0)
(-0.0376565 0.0027136 0)
(-0.0368937 -0.0113436 0)
(-0.0355193 -0.025878 0)
(-0.0335497 -0.0413725 0)
(-0.0311117 -0.0584841 0)
(-0.0283747 -0.0783574 0)
(-0.0257479 -0.102606 0)
(-0.021702 -0.133949 0)
(-0.0192094 -0.171984 0)
(-0.00627073 -0.201149 0)
(-0.00351727 0.118654 0)
(-0.00779865 0.135456 0)
(-0.0125795 0.132527 0)
(-0.0155554 0.11943 0)
(-0.017749 0.101674 0)
(-0.0193901 0.0827899 0)
(-0.02064 0.0644948 0)
(-0.0216147 0.0474935 0)
(-0.0223039 0.0317469 0)
(-0.022708 0.0168836 0)
(-0.0227844 0.00242067 0)
(-0.022477 -0.0121225 0)
(-0.0217423 -0.0271757 0)
(-0.020594 -0.0431418 0)
(-0.019178 -0.0605249 0)
(-0.0176167 -0.0804026 0)
(-0.0167547 -0.104626 0)
(-0.0142207 -0.136737 0)
(-0.0154449 -0.176753 0)
(-0.00443739 -0.213584 0)
(-0.000133714 0.121804 0)
(-0.00131411 0.139211 0)
(-0.00328657 0.135295 0)
(-0.00410706 0.121517 0)
(-0.00498409 0.103304 0)
(-0.00576002 0.08407 0)
(-0.0064829 0.0655031 0)
(-0.00716272 0.0482613 0)
(-0.00775221 0.0322958 0)
(-0.00822536 0.0172107 0)
(-0.00854793 0.00249813 0)
(-0.00868907 -0.0123315 0)
(-0.00863221 -0.0276901 0)
(-0.00838605 -0.0439185 0)
(-0.00811342 -0.0613792 0)
(-0.00777312 -0.081024 0)
(-0.00896353 -0.104867 0)
(-0.00763144 -0.137278 0)
(-0.0124207 -0.178717 0)
(-0.00193139 -0.223204 0)
(0.00211846 0.120256 0)
(0.00458589 0.138998 0)
(0.00575868 0.135097 0)
(0.00689761 0.121635 0)
(0.00732579 0.103588 0)
(0.00747598 0.0845158 0)
(0.00735525 0.0660358 0)
(0.00704245 0.0488036 0)
(0.00661896 0.0328089 0)
(0.00612705 0.0176815 0)
(0.00558804 0.0029198 0)
(0.00500425 -0.0119663 0)
(0.00435336 -0.0273767 0)
(0.00362669 -0.0436189 0)
(0.00261816 -0.0609313 0)
(0.00162135 -0.0800871 0)
(-0.001782 -0.103477 0)
(-0.00149678 -0.135607 0)
(-0.0101198 -0.178666 0)
(-0.000163551 -0.230492 0)
(0.00415125 0.115544 0)
(0.0104231 0.136001 0)
(0.0140751 0.133067 0)
(0.0174035 0.120657 0)
(0.0193716 0.102983 0)
(0.0206049 0.0843165 0)
(0.0212467 0.0661325 0)
(0.0214267 0.0491 0)
(0.0212598 0.0332566 0)
(0.0208058 0.0182755 0)
(0.0200745 0.00368417 0)
(0.0190476 -0.0110021 0)
(0.0176551 -0.0261789 0)
(0.0159007 -0.0421439 0)
(0.0135459 -0.0590461 0)
(0.0108687 -0.0774786 0)
(0.00524966 -0.100063 0)
(0.0045915 -0.131597 0)
(-0.00831188 -0.176427 0)
(0.00253753 -0.235393 0)
(0.00640674 0.106113 0)
(0.0158319 0.129154 0)
(0.0224518 0.127584 0)
(0.027626 0.117117 0)
(0.0313813 0.100645 0)
(0.0338668 0.0828907 0)
(0.035456 0.0654139 0)
(0.0362999 0.0489135 0)
(0.0365212 0.0335019 0)
(0.0361911 0.018927 0)
(0.0353069 0.00477603 0)
(0.0338458 -0.00941128 0)
(0.0316746 -0.024013 0)
(0.0288368 -0.0393495 0)
(0.0249273 -0.0555268 0)
(0.0205103 -0.0731413 0)
(0.0126536 -0.0944561 0)
(0.0105961 -0.125426 0)
(-0.00675479 -0.172384 0)
(0.00555549 -0.238236 0)
(0.00829044 0.0931352 0)
(0.0206732 0.120527 0)
(0.0299986 0.121276 0)
(0.0372739 0.112409 0)
(0.0430871 0.0974084 0)
(0.0471998 0.0807038 0)
(0.0500487 0.0640959 0)
(0.051821 0.0483266 0)
(0.0526338 0.0335697 0)
(0.0525683 0.019644 0)
(0.0516052 0.00620952 0)
(0.0497358 -0.00716675 0)
(0.0467384 -0.0208282 0)
(0.0427678 -0.0351346 0)
(0.037124 -0.0502206 0)
(0.0309121 -0.0666969 0)
(0.0205705 -0.0865652 0)
(0.0169142 -0.117285 0)
(-0.00480965 -0.166678 0)
(0.0098959 -0.239215 0)
(0.0100407 0.0764265 0)
(0.0249013 0.106991 0)
(0.0366452 0.110682 0)
(0.0462943 0.103967 0)
(0.0543415 0.0912032 0)
(0.0604696 0.0762797 0)
(0.0649385 0.0611294 0)
(0.0679477 0.0466066 0)
(0.0695989 0.0329711 0)
(0.0699898 0.0201218 0)
(0.0690632 0.00781321 0)
(0.0668565 -0.00435006 0)
(0.0630046 -0.01662 0)
(0.057902 -0.029437 0)
(0.0503727 -0.0429771 0)
(0.0423505 -0.0580233 0)
(0.0291678 -0.0763228 0)
(0.0239034 -0.107048 0)
(-0.0024884 -0.159496 0)
(0.0150478 -0.238976 0)
(0.0101042 0.0574101 0)
(0.0269652 0.0935978 0)
(0.0408681 0.100185 0)
(0.0531454 0.0951097 0)
(0.0639988 0.0841973 0)
(0.0727827 0.0710163 0)
(0.079433 0.0574336 0)
(0.0841296 0.044349 0)
(0.0869661 0.0320837 0)
(0.0880949 0.0205888 0)
(0.0873812 0.0097243 0)
(0.085025 -0.000895004 0)
(0.0803885 -0.0113719 0)
(0.0742922 -0.0222761 0)
(0.0648398 -0.03379 0)
(0.0551642 -0.0470974 0)
(0.0389404 -0.063587 0)
(0.0322585 -0.0946936 0)
(0.000645361 -0.15023 0)
(0.0218422 -0.236545 0)
(0.00856881 0.0380597 0)
(0.0260919 0.073371 0)
(0.0423955 0.0824114 0)
(0.057666 0.0799079 0)
(0.0716536 0.0717426 0)
(0.0835451 0.0612984 0)
(0.0928465 0.0501857 0)
(0.0996339 0.0393524 0)
(0.103949 0.0292333 0)
(0.106101 0.0198094 0)
(0.105773 0.0110418 0)
(0.10359 0.00255272 0)
(0.0984212 -0.00567364 0)
(0.0918556 -0.0141854 0)
(0.080898 -0.0230565 0)
(0.0702838 -0.0341964 0)
(0.0512865 -0.0483089 0)
(0.0437945 -0.0800459 0)
(0.00588956 -0.13886 0)
(0.0309683 -0.228673 0)
(-0.00281346 0.0238696 0)
(0.0173764 0.0596586 0)
(0.03665 0.0676859 0)
(0.0560461 0.0660452 0)
(0.0741068 0.0597107 0)
(0.0896971 0.0515939 0)
(0.102179 0.0431476 0)
(0.111687 0.034734 0)
(0.118088 0.0268551 0)
(0.121983 0.0196063 0)
(0.122778 0.0130374 0)
(0.121701 0.00685902 0)
(0.117107 0.00112161 0)
(0.111677 -0.00489295 0)
(0.100837 -0.0109925 0)
(0.0911935 -0.0195572 0)
(0.070785 -0.031188 0)
(0.0635078 -0.062949 0)
(0.0189623 -0.122297 0)
(0.0464344 -0.205674 0)
(-0.0153966 0.0295389 0)
(-0.00210302 0.0282176 0)
(0.0248857 0.0336261 0)
(0.0505059 0.0351493 0)
(0.0735722 0.033196 0)
(0.0936576 0.0292226 0)
(0.110326 0.0246763 0)
(0.1237 0.0202738 0)
(0.133501 0.0162034 0)
(0.140562 0.0124166 0)
(0.144313 0.0091118 0)
(0.146104 0.00581726 0)
(0.144467 0.00308027 0)
(0.141694 -0.000564721 0)
(0.134011 -0.00362008 0)
(0.127692 -0.00982947 0)
(0.110527 -0.0188933 0)
(0.10483 -0.0465231 0)
(0.0586952 -0.0936837 0)
(0.077923 -0.156481 0)
(0.0394387 0.0380433 0)
(0.0456056 0.0273185 0)
(0.0697931 0.0244971 0)
(0.0998536 0.0246879 0)
(0.126403 0.0238635 0)
(0.150883 0.0219719 0)
(0.172618 0.0194829 0)
(0.191764 0.0172848 0)
(0.207503 0.0149758 0)
(0.220863 0.0132057 0)
(0.231015 0.0112472 0)
(0.239352 0.00991769 0)
(0.244747 0.00813507 0)
(0.248658 0.00703805 0)
(0.24964 0.00499767 0)
(0.247361 0.00245827 0)
(0.238488 0.00202381 0)
(0.223139 -0.0100225 0)
(0.173059 -0.0131456 0)
(0.145722 -0.064441 0)
)
;

boundaryField
{
    movingWall
    {
        type            fixedValue;
        value           uniform (1 0 0);
    }
    fixedWalls
    {
        type            noSlip;
    }
    frontAndBack
    {
        type            empty;
    }
}


// ************************************************************************* //
