/*--------------------------------*- C++ -*----------------------------------*\
  =========                 |
  \\      /  F ield         | OpenFOAM: The Open Source CFD Toolbox
   \\    /   O peration     | Website:  https://openfoam.org
    \\  /    A nd           | Version:  13
     \\/     M anipulation  |
\*---------------------------------------------------------------------------*/
FoamFile
{
    format      ascii;
    class       volVectorField;
    location    "8.5";
    object      U;
}
// * * * * * * * * * * * * * * * * * * * * * * * * * * * * * * * * * * * * * //

dimensions      [0 1 -1 0 0 0 0];

internalField   nonuniform List<vector> 
1600
(
(0.00130714 -0.00111715 0)
(0.00664511 -0.00173125 0)
(0.0116524 -0.00140885 0)
(0.0146517 -0.000191021 0)
(0.0148673 0.000392822 0)
(0.0142431 0.00016935 0)
(0.013415 -0.000679499 0)
(0.0132601 -0.00128384 0)
(0.0128916 -0.00126916 0)
(0.0116113 -0.000988282 0)
(0.00868774 -0.0010245 0)
(0.00135471 -0.000388172 0)
(-0.00976474 0.0019522 0)
(-0.0222143 0.00850951 0)
(-0.04898 0.0143922 0)
(-0.0745399 0.0141439 0)
(-0.0972555 0.0129252 0)
(-0.116911 0.0111502 0)
(-0.133085 0.00935969 0)
(-0.146351 0.00758798 0)
(-0.156457 0.00589278 0)
(-0.163862 0.00425634 0)
(-0.16797 0.00274695 0)
(-0.169578 0.00126657 0)
(-0.168438 -0.00114452 0)
(-0.163557 -0.00275402 0)
(-0.15574 -0.00508692 0)
(-0.143788 -0.00692265 0)
(-0.128405 -0.00923314 0)
(-0.109406 -0.0115065 0)
(-0.0869665 -0.0137531 0)
(-0.0618238 -0.015203 0)
(-0.0352375 -0.0154903 0)
(-0.00809166 -0.0139997 0)
(0.013839 -0.0117729 0)
(0.0301241 -0.00448638 0)
(0.0317344 0.00335043 0)
(0.0252449 0.00545442 0)
(0.0121774 0.00459848 0)
(0.00253651 0.00313973 0)
(0.00234451 -0.00657201 0)
(0.0113 -0.0096813 0)
(0.0169843 -0.00698713 0)
(0.0201752 -0.00261697 0)
(0.0203355 0.000647159 0)
(0.0180963 0.00178713 0)
(0.0142629 0.00154442 0)
(0.00899766 0.00171468 0)
(0.000774028 0.0032467 0)
(-0.0118624 0.00644615 0)
(-0.03012 0.0122856 0)
(-0.0578131 0.0214471 0)
(-0.0896734 0.0303009 0)
(-0.117176 0.0361502 0)
(-0.139746 0.0357945 0)
(-0.159185 0.0330327 0)
(-0.175342 0.0289562 0)
(-0.188792 0.0244751 0)
(-0.199492 0.0199719 0)
(-0.207762 0.0155751 0)
(-0.21356 0.0113277 0)
(-0.217084 0.00715406 0)
(-0.218281 0.00301206 0)
(-0.217255 -0.00128321 0)
(-0.21368 -0.00593973 0)
(-0.207664 -0.0107724 0)
(-0.198852 -0.0159287 0)
(-0.187052 -0.0213606 0)
(-0.171927 -0.0270583 0)
(-0.152798 -0.032532 0)
(-0.130636 -0.0377213 0)
(-0.105545 -0.0416596 0)
(-0.0780767 -0.0426562 0)
(-0.0496038 -0.0395535 0)
(-0.0221317 -0.0309988 0)
(0.0012018 -0.0147255 0)
(0.0171136 0.00360195 0)
(0.0173055 0.011686 0)
(0.0103556 0.0142996 0)
(0.00161707 0.0110305 0)
(0.00372247 -0.0151576 0)
(0.012232 -0.0172257 0)
(0.0154795 -0.0112261 0)
(0.0162059 -0.00317656 0)
(0.0139619 0.00264613 0)
(0.00882481 0.00573203 0)
(-0.000167965 0.00798909 0)
(-0.0140444 0.0126437 0)
(-0.0345938 0.0214938 0)
(-0.062235 0.0333925 0)
(-0.0930498 0.0448633 0)
(-0.121267 0.0518553 0)
(-0.145299 0.0549079 0)
(-0.164186 0.0545489 0)
(-0.179761 0.0511405 0)
(-0.192296 0.0461538 0)
(-0.202531 0.0401022 0)
(-0.210737 0.0337758 0)
(-0.217223 0.0274024 0)
(-0.222067 0.0211834 0)
(-0.225501 0.0147939 0)
(-0.227304 0.00877328 0)
(-0.227523 0.00265709 0)
(-0.226031 -0.003499 0)
(-0.222875 -0.00995948 0)
(-0.217967 -0.0168517 0)
(-0.211188 -0.0244713 0)
(-0.202282 -0.032804 0)
(-0.191138 -0.041987 0)
(-0.177338 -0.0513198 0)
(-0.160394 -0.0602348 0)
(-0.139979 -0.0673054 0)
(-0.116138 -0.0702809 0)
(-0.0900578 -0.0680199 0)
(-0.061976 -0.0571837 0)
(-0.0334962 -0.0362292 0)
(-0.00646693 -0.00615773 0)
(0.00164612 0.0119085 0)
(0.00189105 0.0188115 0)
(-0.0002587 0.0147613 0)
(0.00426398 -0.0240985 0)
(0.00875091 -0.021775 0)
(0.00887755 -0.011453 0)
(0.00566541 -0.000276527 0)
(-0.000610259 0.00841877 0)
(-0.0113522 0.0158673 0)
(-0.0280444 0.0245759 0)
(-0.0509998 0.0363026 0)
(-0.0788062 0.0500759 0)
(-0.108423 0.0624856 0)
(-0.134903 0.0704989 0)
(-0.155375 0.0732723 0)
(-0.171496 0.0724126 0)
(-0.183713 0.0685036 0)
(-0.193692 0.0627018 0)
(-0.201435 0.0557841 0)
(-0.20776 0.0482381 0)
(-0.21287 0.0402923 0)
(-0.21723 0.0322389 0)
(-0.220475 0.0243543 0)
(-0.222598 0.0168832 0)
(-0.223495 0.00932798 0)
(-0.223262 0.00179429 0)
(-0.221882 -0.00591872 0)
(-0.219363 -0.0138672 0)
(-0.215575 -0.0222824 0)
(-0.210462 -0.0313102 0)
(-0.203893 -0.04108 0)
(-0.195711 -0.0516404 0)
(-0.18589 -0.0633198 0)
(-0.174259 -0.0754754 0)
(-0.160526 -0.0872062 0)
(-0.143968 -0.095888 0)
(-0.122413 -0.0973254 0)
(-0.0960773 -0.0881294 0)
(-0.0654841 -0.065581 0)
(-0.0293969 -0.0271148 0)
(-0.00744952 0.0046615 0)
(-0.00242618 0.0166308 0)
(-0.000327813 0.0142355 0)
(0.00255718 -0.0285969 0)
(0.0029447 -0.0215807 0)
(-0.00149951 -0.00696546 0)
(-0.00895464 0.00721398 0)
(-0.0203534 0.0202213 0)
(-0.036915 0.0332396 0)
(-0.0592366 0.0478363 0)
(-0.0857965 0.063605 0)
(-0.11318 0.0775501 0)
(-0.137442 0.0865903 0)
(-0.155711 0.089577 0)
(-0.169511 0.0884025 0)
(-0.180102 0.0842599 0)
(-0.188017 0.077874 0)
(-0.194347 0.0702163 0)
(-0.199369 0.0615679 0)
(-0.203641 0.0525937 0)
(-0.206842 0.0436782 0)
(-0.20891 0.0349578 0)
(-0.209975 0.0263347 0)
(-0.210393 0.017877 0)
(-0.21012 0.009461 0)
(-0.209279 0.00105275 0)
(-0.207822 -0.00755042 0)
(-0.205613 -0.016458 0)
(-0.202695 -0.0259111 0)
(-0.199034 -0.0360807 0)
(-0.194597 -0.047132 0)
(-0.189295 -0.0591162 0)
(-0.182992 -0.0719312 0)
(-0.175444 -0.0852743 0)
(-0.166246 -0.0984043 0)
(-0.155192 -0.110805 0)
(-0.141105 -0.119056 0)
(-0.121196 -0.117592 0)
(-0.0930964 -0.100215 0)
(-0.0570663 -0.0639829 0)
(-0.0171048 -0.0133085 0)
(-0.00226979 0.0111344 0)
(0.000697377 0.0131937 0)
(-0.000497837 -0.0292218 0)
(-0.0048694 -0.016276 0)
(-0.0134199 0.00158205 0)
(-0.0251198 0.0195156 0)
(-0.0410759 0.0371593 0)
(-0.0617363 0.0551183 0)
(-0.0861591 0.0731816 0)
(-0.111421 0.0891151 0)
(-0.13392 0.0999551 0)
(-0.150811 0.103933 0)
(-0.162973 0.102779 0)
(-0.17225 0.0984899 0)
(-0.178989 0.0917891 0)
(-0.183976 0.0835788 0)
(-0.1877 0.0744406 0)
(-0.190168 0.0649019 0)
(-0.191736 0.0552122 0)
(-0.192531 0.0455394 0)
(-0.192885 0.0360401 0)
(-0.192943 0.026778 0)
(-0.192526 0.0177589 0)
(-0.191728 0.00885096 0)
(-0.190527 -3.00992e-05 0)
(-0.188896 -0.00905803 0)
(-0.186817 -0.0183932 0)
(-0.184363 -0.0282484 0)
(-0.181556 -0.0388219 0)
(-0.178438 -0.050325 0)
(-0.175018 -0.0629274 0)
(-0.171268 -0.0766931 0)
(-0.167053 -0.0914279 0)
(-0.162026 -0.106528 0)
(-0.155498 -0.120716 0)
(-0.146317 -0.132157 0)
(-0.133013 -0.138224 0)
(-0.112497 -0.131592 0)
(-0.0820112 -0.104738 0)
(-0.0382191 -0.051348 0)
(-0.00487337 -0.00167309 0)
(0.00163582 0.0124967 0)
(-0.0038053 -0.0236696 0)
(-0.012644 -0.00692298 0)
(-0.0248348 0.0141191 0)
(-0.0402263 0.0357423 0)
(-0.0594542 0.057412 0)
(-0.0816689 0.0783203 0)
(-0.10491 0.0968004 0)
(-0.126132 0.110171 0)
(-0.14227 0.116231 0)
(-0.153348 0.115835 0)
(-0.161441 0.111714 0)
(-0.167161 0.104952 0)
(-0.170958 0.0963987 0)
(-0.173436 0.0868146 0)
(-0.174859 0.0766223 0)
(-0.175526 0.0662276 0)
(-0.175733 0.0558731 0)
(-0.175596 0.0457358 0)
(-0.175229 0.0358895 0)
(-0.174605 0.0263113 0)
(-0.17371 0.0169562 0)
(-0.17256 0.00771948 0)
(-0.171135 -0.00149607 0)
(-0.169427 -0.0108213 0)
(-0.167446 -0.0204283 0)
(-0.165244 -0.030487 0)
(-0.162882 -0.0411817 0)
(-0.160435 -0.0527059 0)
(-0.157979 -0.0652511 0)
(-0.155564 -0.0789715 0)
(-0.15318 -0.0939065 0)
(-0.150647 -0.109821 0)
(-0.147426 -0.125966 0)
(-0.142397 -0.140652 0)
(-0.133816 -0.151088 0)
(-0.119651 -0.153223 0)
(-0.0973971 -0.139214 0)
(-0.0633199 -0.0983762 0)
(-0.0145564 -0.0235918 0)
(0.00271658 0.011365 0)
(-0.00674767 -0.0140327 0)
(-0.0190598 0.00655031 0)
(-0.0341072 0.0299997 0)
(-0.0523891 0.0546484 0)
(-0.0729642 0.0786652 0)
(-0.0945156 0.100122 0)
(-0.114831 0.116723 0)
(-0.130938 0.125951 0)
(-0.14165 0.127313 0)
(-0.148986 0.123809 0)
(-0.154057 0.117285 0)
(-0.157176 0.108596 0)
(-0.158919 0.0986382 0)
(-0.159707 0.087995 0)
(-0.159831 0.077071 0)
(-0.159584 0.0662002 0)
(-0.159119 0.0555479 0)
(-0.158501 0.0452097 0)
(-0.157753 0.035185 0)
(-0.156852 0.0254244 0)
(-0.155788 0.0158609 0)
(-0.154536 0.00640109 0)
(-0.153081 -0.0030481 0)
(-0.151407 -0.0126078 0)
(-0.149533 -0.0224169 0)
(-0.147499 -0.0326237 0)
(-0.145374 -0.0433908 0)
(-0.143255 -0.0548949 0)
(-0.141252 -0.0673229 0)
(-0.139468 -0.0808496 0)
(-0.137958 -0.0955873 0)
(-0.136651 -0.111491 0)
(-0.135196 -0.128184 0)
(-0.132716 -0.144709 0)
(-0.127682 -0.158995 0)
(-0.118116 -0.1672 0)
(-0.10202 -0.163192 0)
(-0.0764248 -0.136706 0)
(-0.0332766 -0.067182 0)
(0.00065037 0.000586386 0)
(-0.00850418 -0.000554357 0)
(-0.023721 0.0231658 0)
(-0.0407144 0.0481207 0)
(-0.0602771 0.074334 0)
(-0.0806954 0.0989441 0)
(-0.10041 0.119261 0)
(-0.117102 0.132583 0)
(-0.128225 0.13692 0)
(-0.135438 0.134801 0)
(-0.140218 0.128863 0)
(-0.14312 0.120396 0)
(-0.144534 0.110271 0)
(-0.145006 0.0993107 0)
(-0.144858 0.0879958 0)
(-0.144367 0.0766867 0)
(-0.143723 0.0656066 0)
(-0.142999 0.0548412 0)
(-0.142227 0.0444168 0)
(-0.141396 0.0342947 0)
(-0.140479 0.0244159 0)
(-0.139443 0.0147081 0)
(-0.138251 0.00507638 0)
(-0.136877 -0.00456577 0)
(-0.135302 -0.0143193 0)
(-0.133536 -0.0242973 0)
(-0.13161 -0.0346158 0)
(-0.129589 -0.0454076 0)
(-0.12757 -0.0568239 0)
(-0.12568 -0.0690432 0)
(-0.124058 -0.0822668 0)
(-0.122819 -0.096692 0)
(-0.121985 -0.112434 0)
(-0.121367 -0.129385 0)
(-0.120346 -0.146989 0)
(-0.117601 -0.163817 0)
(-0.111276 -0.17677 0)
(-0.0997303 -0.180013 0)
(-0.0806442 -0.165301 0)
(-0.0504805 -0.114728 0)
(-0.0067008 -0.0148165 0)
(-0.00954028 0.0152616 0)
(-0.0264029 0.0414118 0)
(-0.044204 0.0670712 0)
(-0.0639743 0.0936629 0)
(-0.0833239 0.117703 0)
(-0.100772 0.135641 0)
(-0.112895 0.144086 0)
(-0.1209 0.144636 0)
(-0.125805 0.1398 0)
(-0.128832 0.131887 0)
(-0.13032 0.121907 0)
(-0.130739 0.110759 0)
(-0.130547 0.0991463 0)
(-0.129995 0.0874657 0)
(-0.129305 0.0759932 0)
(-0.128581 0.0648508 0)
(-0.12786 0.0540645 0)
(-0.127143 0.0436143 0)
(-0.126403 0.0334409 0)
(-0.1256 0.0234743 0)
(-0.124692 0.0136379 0)
(-0.123639 0.00384564 0)
(-0.122406 -0.00598659 0)
(-0.120976 -0.0159395 0)
(-0.119346 -0.026104 0)
(-0.117539 -0.0365689 0)
(-0.115599 -0.047433 0)
(-0.11361 -0.0588118 0)
(-0.111685 -0.0708508 0)
(-0.109971 -0.083739 0)
(-0.108615 -0.0977109 0)
(-0.107715 -0.113013 0)
(-0.10723 -0.129799 0)
(-0.106805 -0.147939 0)
(-0.105405 -0.16662 0)
(-0.101146 -0.183377 0)
(-0.0926007 -0.19242 0)
(-0.0778191 -0.186815 0)
(-0.0548315 -0.150401 0)
(-0.0159874 -0.0421597 0)
(-0.00999521 0.0322466 0)
(-0.027341 0.0603719 0)
(-0.0449369 0.0859531 0)
(-0.0640262 0.112051 0)
(-0.081892 0.134453 0)
(-0.096003 0.148419 0)
(-0.104777 0.152678 0)
(-0.110919 0.150176 0)
(-0.114196 0.143128 0)
(-0.116124 0.133618 0)
(-0.116777 0.122497 0)
(-0.116716 0.110647 0)
(-0.116269 0.0986424 0)
(-0.115643 0.0867921 0)
(-0.114992 0.0752803 0)
(-0.114366 0.0641517 0)
(-0.11378 0.0533889 0)
(-0.113213 0.0429392 0)
(-0.112628 0.0327295 0)
(-0.111981 0.0226829 0)
(-0.111229 0.0127228 0)
(-0.110334 0.00277234 0)
(-0.109265 -0.00724679 0)
(-0.108003 -0.0174016 0)
(-0.106537 -0.0277644 0)
(-0.104879 -0.0384045 0)
(-0.103056 -0.0493934 0)
(-0.101126 -0.0608143 0)
(-0.099177 -0.0727775 0)
(-0.0973357 -0.0854436 0)
(-0.0957517 -0.0990468 0)
(-0.0945631 -0.113899 0)
(-0.0938289 -0.130333 0)
(-0.0934085 -0.148533 0)
(-0.0926263 -0.168267 0)
(-0.0897409 -0.188106 0)
(-0.0831728 -0.202053 0)
(-0.0712793 -0.203838 0)
(-0.0512268 -0.180153 0)
(-0.0193239 -0.0925863 0)
(-0.00975191 0.0491624 0)
(-0.0266766 0.0789984 0)
(-0.0433899 0.103934 0)
(-0.0611326 0.128793 0)
(-0.0771766 0.148893 0)
(-0.0877569 0.158315 0)
(-0.0949177 0.159391 0)
(-0.0993841 0.154224 0)
(-0.101683 0.145394 0)
(-0.102942 0.134603 0)
(-0.10318 0.122638 0)
(-0.102968 0.110321 0)
(-0.102514 0.0980957 0)
(-0.10199 0.0861873 0)
(-0.101492 0.0746967 0)
(-0.101039 0.063612 0)
(-0.100629 0.0528821 0)
(-0.100228 0.0424323 0)
(-0.0997982 0.032182 0)
(-0.0993002 0.0220522 0)
(-0.0986954 0.0119696 0)
(-0.0979512 0.00186444 0)
(-0.097044 -0.00833386 0)
(-0.0959546 -0.0186852 0)
(-0.0946703 -0.0292486 0)
(-0.0931916 -0.0400801 0)
(-0.0915292 -0.0512315 0)
(-0.0897145 -0.0627593 0)
(-0.0878056 -0.0747392 0)
(-0.0858966 -0.0872937 0)
(-0.0841183 -0.100633 0)
(-0.0826203 -0.11509 0)
(-0.0815208 -0.131116 0)
(-0.0808128 -0.149141 0)
(-0.0801569 -0.169331 0)
(-0.0782208 -0.191079 0)
(-0.0726402 -0.210299 0)
(-0.0633255 -0.217167 0)
(-0.0460354 -0.203068 0)
(-0.0163193 -0.126807 0)
(-0.00900861 0.0653958 0)
(-0.0247971 0.0966913 0)
(-0.0401581 0.120628 0)
(-0.0564205 0.143939 0)
(-0.0698314 0.160562 0)
(-0.0779217 0.166299 0)
(-0.0839066 0.164621 0)
(-0.0871856 0.157288 0)
(-0.088928 0.147014 0)
(-0.0898084 0.135208 0)
(-0.0899077 0.122629 0)
(-0.0897268 0.110004 0)
(-0.0893919 0.0976606 0)
(-0.089043 0.085748 0)
(-0.0887306 0.0742972 0)
(-0.0884584 0.0632552 0)
(-0.0882107 0.0525458 0)
(-0.0879545 0.0420818 0)
(-0.0876556 0.0317797 0)
(-0.0872821 0.0215626 0)
(-0.0868041 0.0113612 0)
(-0.0861967 0.00111132 0)
(-0.0854433 -0.00925153 0)
(-0.0845267 -0.0197839 0)
(-0.0834335 -0.030538 0)
(-0.082157 -0.0415625 0)
(-0.0806945 -0.0528979 0)
(-0.0790557 -0.0645825 0)
(-0.0772694 -0.0766644 0)
(-0.0753943 -0.0892284 0)
(-0.0735295 -0.102444 0)
(-0.0718126 -0.116629 0)
(-0.0703887 -0.132293 0)
(-0.0693341 -0.150068 0)
(-0.0685101 -0.170439 0)
(-0.06703 -0.193364 0)
(-0.0624034 -0.216968 0)
(-0.054865 -0.228801 0)
(-0.0402684 -0.223832 0)
(-0.0144851 -0.160571 0)
(-0.0078674 0.0801602 0)
(-0.022131 0.112889 0)
(-0.0358143 0.135631 0)
(-0.0503158 0.157031 0)
(-0.0609363 0.169891 0)
(-0.0673966 0.172885 0)
(-0.0724411 0.168793 0)
(-0.0748861 0.159705 0)
(-0.0763242 0.148261 0)
(-0.0770122 0.13566 0)
(-0.0771275 0.122636 0)
(-0.0770611 0.109805 0)
(-0.0768914 0.0973968 0)
(-0.0767259 0.085496 0)
(-0.0765858 0.0740782 0)
(-0.076467 0.0630611 0)
(-0.0763495 0.0523516 0)
(-0.0762054 0.0418568 0)
(-0.0760083 0.031494 0)
(-0.0757352 0.0211897 0)
(-0.0753658 0.0108786 0)
(-0.074883 0.000500068 0)
(-0.0742754 -0.0100065 0)
(-0.0735295 -0.0206967 0)
(-0.0726323 -0.0316214 0)
(-0.0715722 -0.0428263 0)
(-0.0703375 -0.0543473 0)
(-0.0689212 -0.0662123 0)
(-0.0673279 -0.0784491 0)
(-0.0655857 -0.0911102 0)
(-0.0637599 -0.104321 0)
(-0.0619631 -0.118357 0)
(-0.0603445 -0.133735 0)
(-0.0590315 -0.15122 0)
(-0.0580019 -0.171589 0)
(-0.0567678 -0.195278 0)
(-0.0533731 -0.221334 0)
(-0.0462253 -0.23916 0)
(-0.0350578 -0.239631 0)
(-0.0119044 -0.186118 0)
(-0.00661927 0.0931986 0)
(-0.0189327 0.127219 0)
(-0.0307301 0.148634 0)
(-0.0432003 0.167909 0)
(-0.0513365 0.177497 0)
(-0.0569806 0.178348 0)
(-0.0609056 0.172174 0)
(-0.0628308 0.161687 0)
(-0.0640801 0.149303 0)
(-0.0646862 0.136086 0)
(-0.0648844 0.122735 0)
(-0.0649533 0.109757 0)
(-0.0649454 0.0973067 0)
(-0.0649377 0.0854121 0)
(-0.0649355 0.0740084 0)
(-0.0649321 0.0629935 0)
(-0.0649097 0.0522642 0)
(-0.064848 0.0417265 0)
(-0.0647293 0.0312998 0)
(-0.0645394 0.0209142 0)
(-0.0642662 0.0105075 0)
(-0.0638996 2.08922e-05 0)
(-0.0634324 -0.0106044 0)
(-0.0628551 -0.0214251 0)
(-0.0621558 -0.0324936 0)
(-0.0613209 -0.0438575 0)
(-0.0603327 -0.0555529 0)
(-0.0591728 -0.0676036 0)
(-0.057828 -0.0800249 0)
(-0.0563014 -0.0928426 0)
(-0.0546286 -0.10614 0)
(-0.0528941 -0.12014 0)
(-0.051236 -0.135327 0)
(-0.0498081 -0.152535 0)
(-0.0486617 -0.172809 0)
(-0.0475339 -0.19695 0)
(-0.0450045 -0.224794 0)
(-0.0386545 -0.248528 0)
(-0.0305776 -0.25417 0)
(-0.0104378 -0.210066 0)
(-0.00508632 0.103835 0)
(-0.0153977 0.139385 0)
(-0.0252927 0.159656 0)
(-0.0355926 0.176683 0)
(-0.0417599 0.183709 0)
(-0.0465776 0.18275 0)
(-0.0495852 0.174937 0)
(-0.051172 0.163357 0)
(-0.0522821 0.150231 0)
(-0.0528623 0.136541 0)
(-0.0531549 0.122945 0)
(-0.0533451 0.109852 0)
(-0.0534698 0.0973626 0)
(-0.0535807 0.0854591 0)
(-0.0536769 0.0740484 0)
(-0.0537526 0.0630157 0)
(-0.0537954 0.0522531 0)
(-0.0537933 0.0416671 0)
(-0.053737 0.0311797 0)
(-0.0536195 0.0207239 0)
(-0.0534355 0.0102393 0)
(-0.0531804 -0.000332085 0)
(-0.0528507 -0.0110489 0)
(-0.05244 -0.02197 0)
(-0.0519388 -0.0331519 0)
(-0.0513333 -0.0446462 0)
(-0.0506032 -0.0564937 0)
(-0.0497233 -0.0687193 0)
(-0.0486678 -0.0813318 0)
(-0.0474208 -0.0943371 0)
(-0.0459935 -0.10778 0)
(-0.0444445 -0.121827 0)
(-0.0428964 -0.136908 0)
(-0.0415221 -0.153871 0)
(-0.0404393 -0.173953 0)
(-0.0394782 -0.198277 0)
(-0.0376519 -0.227097 0)
(-0.03281 -0.255557 0)
(-0.0257539 -0.265954 0)
(-0.00878802 -0.228864 0)
(-0.00372397 0.112384 0)
(-0.0117381 0.149399 0)
(-0.0197585 0.168697 0)
(-0.0278547 0.183543 0)
(-0.0323747 0.188643 0)
(-0.0363678 0.186247 0)
(-0.0386246 0.177192 0)
(-0.0399539 0.164782 0)
(-0.0409412 0.151085 0)
(-0.041513 0.137036 0)
(-0.0418816 0.12325 0)
(-0.0421624 0.11006 0)
(-0.0423808 0.0975256 0)
(-0.0425697 0.0855965 0)
(-0.0427277 0.0741611 0)
(-0.0428521 0.0630971 0)
(-0.0429374 0.0522948 0)
(-0.0429791 0.041662 0)
(-0.0429748 0.0311227 0)
(-0.0429238 0.0206118 0)
(-0.0428258 0.0100697 0)
(-0.0426801 -0.000561858 0)
(-0.0424863 -0.0113422 0)
(-0.042241 -0.022333 0)
(-0.0419373 -0.0335955 0)
(-0.0415628 -0.0451875 0)
(-0.0410975 -0.0571569 0)
(-0.0405135 -0.0695341 0)
(-0.0397775 -0.0823269 0)
(-0.0388602 -0.0955273 0)
(-0.0377529 -0.109146 0)
(-0.03649 -0.123294 0)
(-0.0351737 -0.138332 0)
(-0.0339775 -0.155083 0)
(-0.033064 -0.174924 0)
(-0.0323435 -0.199321 0)
(-0.0311161 -0.22899 0)
(-0.0275442 -0.261201 0)
(-0.0224797 -0.276491 0)
(-0.00766994 -0.246383 0)
(-0.00201021 0.118158 0)
(-0.00801512 0.157092 0)
(-0.0141415 0.17567 0)
(-0.0201625 0.188679 0)
(-0.0233125 0.192422 0)
(-0.0264466 0.188944 0)
(-0.028068 0.179011 0)
(-0.0291609 0.165997 0)
(-0.0300229 0.151874 0)
(-0.0305793 0.137557 0)
(-0.0309923 0.123621 0)
(-0.0313279 0.110343 0)
(-0.0316008 0.0977558 0)
(-0.0318316 0.0857876 0)
(-0.0320208 0.0743156 0)
(-0.0321703 0.063214 0)
(-0.0322809 0.0523726 0)
(-0.0323552 0.0417003 0)
(-0.0323965 0.0311225 0)
(-0.0324087 0.0205746 0)
(-0.032395 0.00999693 0)
(-0.0323584 -0.000669448 0)
(-0.0323003 -0.0114854 0)
(-0.03222 -0.022515 0)
(-0.0321133 -0.0338248 0)
(-0.0319703 -0.0454791 0)
(-0.0317734 -0.0575344 0)
(-0.0314951 -0.0700297 0)
(-0.0310997 -0.0829769 0)
(-0.0305495 -0.0963604 0)
(-0.0298216 -0.110163 0)
(-0.0289307 -0.124443 0)
(-0.0279595 -0.139486 0)
(-0.0270723 -0.156048 0)
(-0.0264523 -0.175576 0)
(-0.0260816 -0.199897 0)
(-0.0255123 -0.230295 0)
(-0.023183 -0.264779 0)
(-0.0192914 -0.284827 0)
(-0.00650088 -0.260593 0)
(-0.000815442 0.121972 0)
(-0.00435699 0.162592 0)
(-0.00857256 0.180638 0)
(-0.0126192 0.192235 0)
(-0.0146266 0.195167 0)
(-0.0168224 0.190889 0)
(-0.0178928 0.180406 0)
(-0.0187441 0.167001 0)
(-0.019468 0.152585 0)
(-0.0199876 0.138077 0)
(-0.0204105 0.124022 0)
(-0.0207658 0.110663 0)
(-0.0210585 0.0980176 0)
(-0.0213012 0.0860015 0)
(-0.0214973 0.0744875 0)
(-0.0216535 0.0633483 0)
(-0.0217767 0.052474 0)
(-0.0218751 0.0417744 0)
(-0.0219569 0.0311747 0)
(-0.0220296 0.0206103 0)
(-0.0220996 0.0100205 0)
(-0.0221721 -0.000654808 0)
(-0.0222502 -0.0114782 0)
(-0.0223356 -0.0225164 0)
(-0.0224263 -0.0338399 0)
(-0.0225157 -0.0455198 0)
(-0.0225895 -0.0576216 0)
(-0.0226236 -0.0701944 0)
(-0.0225831 -0.0832581 0)
(-0.0224272 -0.0967952 0)
(-0.022123 -0.110768 0)
(-0.0216686 -0.125185 0)
(-0.0211266 -0.140256 0)
(-0.0206451 -0.156659 0)
(-0.0204178 -0.175852 0)
(-0.0205016 -0.199972 0)
(-0.0206292 -0.230856 0)
(-0.0194215 -0.267479 0)
(-0.0170129 -0.292068 0)
(-0.00565164 -0.273856 0)
(0.00106679 0.122866 0)
(-0.000706974 0.165861 0)
(-0.00303895 0.183675 0)
(-0.00528639 0.194368 0)
(-0.0062347 0.196842 0)
(-0.00749021 0.192132 0)
(-0.00804797 0.181406 0)
(-0.00863709 0.167792 0)
(-0.00920339 0.1532 0)
(-0.00965896 0.138566 0)
(-0.0100587 0.124421 0)
(-0.0104033 0.110987 0)
(-0.0106876 0.0982815 0)
(-0.0109183 0.0862139 0)
(-0.0111022 0.0746574 0)
(-0.0112502 0.0634857 0)
(-0.0113752 0.0525893 0)
(-0.0114902 0.0418778 0)
(-0.0116076 0.0312757 0)
(-0.011738 0.0207172 0)
(-0.0118905 0.0101402 0)
(-0.0120719 -0.000517287 0)
(-0.0122872 -0.0113197 0)
(-0.0125396 -0.022336 0)
(-0.0128294 -0.0336403 0)
(-0.0131527 -0.0453091 0)
(-0.0134995 -0.0574158 0)
(-0.0138509 -0.070021 0)
(-0.0141758 -0.0831547 0)
(-0.0144345 -0.096803 0)
(-0.0145895 -0.110914 0)
(-0.0146252 -0.125456 0)
(-0.0145845 -0.140562 0)
(-0.0145958 -0.156817 0)
(-0.0148532 -0.175655 0)
(-0.0154832 -0.199465 0)
(-0.0163267 -0.23059 0)
(-0.0161243 -0.268729 0)
(-0.0149152 -0.297595 0)
(-0.00479053 -0.284851 0)
(0.00226733 0.12154 0)
(0.00279424 0.166955 0)
(0.00236514 0.184907 0)
(0.00180265 0.19519 0)
(0.0019207 0.197534 0)
(0.00161506 0.192664 0)
(0.00154132 0.18195 0)
(0.00123289 0.168329 0)
(0.000848053 0.153687 0)
(0.000485319 0.138995 0)
(0.000135679 0.124788 0)
(-0.000172125 0.111291 0)
(-0.000422305 0.0985244 0)
(-0.000622057 0.0864055 0)
(-0.000778363 0.0748104 0)
(-0.000906344 0.0636148 0)
(-0.0010237 0.0527099 0)
(-0.00114807 0.0420044 0)
(-0.00129553 0.0314214 0)
(-0.00147982 0.020893 0)
(-0.00171227 0.0103551 0)
(-0.00200183 -0.000256483 0)
(-0.00235503 -0.0110079 0)
(-0.00277647 -0.0219706 0)
(-0.00326795 -0.0332218 0)
(-0.00382823 -0.0448426 0)
(-0.00445173 -0.0569137 0)
(-0.00512417 -0.0695046 0)
(-0.0058209 -0.082656 0)
(-0.00650956 -0.0963616 0)
(-0.00715117 -0.110564 0)
(-0.00771857 -0.125199 0)
(-0.00823653 -0.140328 0)
(-0.008812 -0.156444 0)
(-0.0096315 -0.174923 0)
(-0.0108808 -0.198339 0)
(-0.0124999 -0.229578 0)
(-0.0132333 -0.269129 0)
(-0.0133604 -0.302207 0)
(-0.00412896 -0.295157 0)
(0.00356158 0.118097 0)
(0.00627178 0.165959 0)
(0.00764466 0.184502 0)
(0.00866222 0.194706 0)
(0.00989548 0.197087 0)
(0.0104864 0.192576 0)
(0.0109218 0.182099 0)
(0.0109383 0.168612 0)
(0.0107615 0.154024 0)
(0.0105184 0.139334 0)
(0.0102484 0.125095 0)
(0.0100002 0.111549 0)
(0.00979964 0.0987279 0)
(0.00964615 0.0865608 0)
(0.00953038 0.0749332 0)
(0.00943347 0.0637247 0)
(0.00933328 0.0528269 0)
(0.00920788 0.0421472 0)
(0.00903743 0.0316065 0)
(0.00880504 0.021134 0)
(0.00849686 0.010663 0)
(0.00810201 0.00012694 0)
(0.00761206 -0.0105427 0)
(0.00702109 -0.0214192 0)
(0.00632555 -0.0325821 0)
(0.00552366 -0.0441161 0)
(0.00461844 -0.0561076 0)
(0.00361942 -0.0686345 0)
(0.00254201 -0.0817499 0)
(0.00141151 -0.0954558 0)
(0.000262652 -0.109691 0)
(-0.000872752 -0.124367 0)
(-0.00200147 -0.139495 0)
(-0.00320579 -0.155463 0)
(-0.00465651 -0.173573 0)
(-0.00657715 -0.19652 0)
(-0.00901778 -0.227713 0)
(-0.0105635 -0.268325 0)
(-0.011957 -0.305479 0)
(-0.00344465 -0.30384 0)
(0.00498111 0.111991 0)
(0.00975589 0.162856 0)
(0.0128279 0.182469 0)
(0.0153129 0.192943 0)
(0.0176649 0.195636 0)
(0.0191562 0.19176 0)
(0.0201575 0.18182 0)
(0.0205337 0.168609 0)
(0.0205948 0.154186 0)
(0.0205039 0.139562 0)
(0.020341 0.125324 0)
(0.0201738 0.111741 0)
(0.0200403 0.0988728 0)
(0.0199473 0.0866653 0)
(0.0198845 0.0750145 0)
(0.0198299 0.0638056 0)
(0.0197572 0.0529314 0)
(0.0196404 0.0422981 0)
(0.0194558 0.0318236 0)
(0.0191832 0.0214339 0)
(0.0188061 0.0110593 0)
(0.018311 0.000630371 0)
(0.0176875 -0.00992445 0)
(0.0169282 -0.0206806 0)
(0.0160273 -0.0317196 0)
(0.014981 -0.0431287 0)
(0.0137894 -0.0549969 0)
(0.0124549 -0.0674076 0)
(0.0109851 -0.0804243 0)
(0.00940085 -0.0940621 0)
(0.00772722 -0.108264 0)
(0.00599184 -0.122927 0)
(0.0042039 -0.138012 0)
(0.00231013 -0.153814 0)
(0.000162424 -0.171541 0)
(-0.00249554 -0.193973 0)
(-0.00584046 -0.225069 0)
(-0.00810784 -0.266644 0)
(-0.010875 -0.30797 0)
(-0.00285871 -0.311996 0)
(0.0063701 0.103659 0)
(0.0131856 0.157731 0)
(0.0179128 0.17889 0)
(0.0217821 0.189959 0)
(0.0253372 0.193108 0)
(0.0275312 0.190164 0)
(0.0292294 0.181133 0)
(0.0300407 0.1683 0)
(0.0303865 0.154135 0)
(0.0304893 0.139644 0)
(0.030466 0.125446 0)
(0.0304073 0.111849 0)
(0.0303633 0.0989456 0)
(0.0303476 0.0867063 0)
(0.0303512 0.0750421 0)
(0.0303506 0.0638459 0)
(0.0303166 0.0530124 0)
(0.0302191 0.0424466 0)
(0.0300306 0.0320631 0)
(0.0297274 0.0217843 0)
(0.0292896 0.0115369 0)
(0.0287012 0.0012483 0)
(0.0279493 -0.00915628 0)
(0.0270244 -0.0197545 0)
(0.0259187 -0.0306295 0)
(0.0246258 -0.041871 0)
(0.0231411 -0.0535709 0)
(0.0214623 -0.0658169 0)
(0.0195924 -0.0786759 0)
(0.0175392 -0.0921707 0)
(0.0153153 -0.106257 0)
(0.0129506 -0.120834 0)
(0.0104594 -0.135826 0)
(0.00782392 -0.151436 0)
(0.00491781 -0.168756 0)
(0.0014615 -0.190621 0)
(-0.00286976 -0.221545 0)
(-0.00576809 -0.264029 0)
(-0.010111 -0.30908 0)
(-0.00199797 -0.319029 0)
(0.00765958 0.0930577 0)
(0.0165026 0.150574 0)
(0.022857 0.173785 0)
(0.0280379 0.18577 0)
(0.032646 0.189817 0)
(0.0357537 0.187627 0)
(0.0381171 0.179835 0)
(0.0394688 0.167613 0)
(0.0401585 0.153822 0)
(0.0405061 0.139537 0)
(0.0406684 0.125428 0)
(0.0407544 0.111846 0)
(0.0408278 0.0989255 0)
(0.0409111 0.0866674 0)
(0.0409986 0.0750024 0)
(0.0410671 0.0638333 0)
(0.0410852 0.0530585 0)
(0.0410199 0.0425817 0)
(0.0408398 0.0323147 0)
(0.0405174 0.0221758 0)
(0.0400294 0.0120877 0)
(0.0393567 0.00197423 0)
(0.0384833 -0.00824285 0)
(0.0373971 -0.0186435 0)
(0.0360876 -0.0293123 0)
(0.0345455 -0.04034 0)
(0.0327629 -0.0518196 0)
(0.0307327 -0.0638415 0)
(0.0284479 -0.0764789 0)
(0.0259037 -0.0897624 0)
(0.0231081 -0.103653 0)
(0.0200804 -0.118056 0)
(0.0168373 -0.132883 0)
(0.0134058 -0.148268 0)
(0.00967976 -0.16517 0)
(0.00535668 -0.186439 0)
(-4.03721e-05 -0.217161 0)
(-0.00351606 -0.260618 0)
(-0.00943119 -0.309373 0)
(-0.00127314 -0.325704 0)
(0.00878559 0.0803095 0)
(0.019597 0.141488 0)
(0.0275509 0.167234 0)
(0.0339919 0.180448 0)
(0.0395293 0.185585 0)
(0.0437301 0.184288 0)
(0.0467434 0.177816 0)
(0.048764 0.16647 0)
(0.049896 0.153182 0)
(0.050563 0.139188 0)
(0.0509731 0.125223 0)
(0.0512551 0.111695 0)
(0.051487 0.098784 0)
(0.0517012 0.0865268 0)
(0.0518979 0.0748776 0)
(0.0520561 0.0637526 0)
(0.0521442 0.0530554 0)
(0.0521269 0.0426901 0)
(0.0519698 0.0325656 0)
(0.051642 0.0225964 0)
(0.0511162 0.0127009 0)
(0.0503703 0.00279923 0)
(0.0493846 -0.00719074 0)
(0.0481436 -0.017351 0)
(0.0466336 -0.0277677 0)
(0.0448416 -0.0385328 0)
(0.0427549 -0.0497394 0)
(0.0403607 -0.0614769 0)
(0.0376438 -0.0738182 0)
(0.0345901 -0.0868025 0)
(0.0311905 -0.100408 0)
(0.0274556 -0.114551 0)
(0.0234139 -0.129136 0)
(0.0191219 -0.144241 0)
(0.0145088 -0.160708 0)
(0.009242 -0.181364 0)
(0.0027331 -0.211852 0)
(-0.00122857 -0.256274 0)
(-0.00874254 -0.308449 0)
(-0.000333561 -0.331571 0)
(0.00956076 0.0654558 0)
(0.0223001 0.130412 0)
(0.0317707 0.159187 0)
(0.0394608 0.173991 0)
(0.0459689 0.180333 0)
(0.0511662 0.180218 0)
(0.0550328 0.174929 0)
(0.0578121 0.164732 0)
(0.0595281 0.152116 0)
(0.0606278 0.138514 0)
(0.0613766 0.124763 0)
(0.0619308 0.111341 0)
(0.0623825 0.0984782 0)
(0.0627761 0.086251 0)
(0.0631197 0.0746413 0)
(0.0633976 0.063582 0)
(0.06358 0.0529846 0)
(0.0636315 0.0427551 0)
(0.0635156 0.0328007 0)
(0.0631988 0.023032 0)
(0.0626499 0.0133641 0)
(0.0618437 0.00371252 0)
(0.0607566 -0.00600846 0)
(0.0593688 -0.0158824 0)
(0.0576628 -0.025997 0)
(0.0556205 -0.0364448 0)
(0.0532237 -0.0473177 0)
(0.0504525 -0.0587036 0)
(0.0472827 -0.0706745 0)
(0.0436882 -0.0832728 0)
(0.0396471 -0.0964875 0)
(0.0351653 -0.110262 0)
(0.0302635 -0.124521 0)
(0.0250422 -0.139293 0)
(0.0194485 -0.155292 0)
(0.013137 -0.175322 0)
(0.00549131 -0.205571 0)
(0.00109447 -0.251129 0)
(-0.00850347 -0.306771 0)
(0.000555341 -0.337238 0)
(0.00970741 0.0490311 0)
(0.0242494 0.117549 0)
(0.0352309 0.149701 0)
(0.0442033 0.166413 0)
(0.0517411 0.17405 0)
(0.0579233 0.175201 0)
(0.0627833 0.171156 0)
(0.0664431 0.162247 0)
(0.06892 0.150483 0)
(0.0706149 0.1374 0)
(0.0718368 0.123956 0)
(0.072773 0.110708 0)
(0.0735343 0.0979463 0)
(0.0741789 0.0857909 0)
(0.0747262 0.0742549 0)
(0.0751682 0.0632909 0)
(0.0754802 0.0528213 0)
(0.0756287 0.0427558 0)
(0.0755774 0.0330016 0)
(0.0752916 0.0234666 0)
(0.0747366 0.014063 0)
(0.0738848 0.00470197 0)
(0.0727083 -0.0047055 0)
(0.0711821 -0.0142437 0)
(0.069284 -0.0240016 0)
(0.0669901 -0.0340717 0)
(0.0642747 -0.0445434 0)
(0.0611095 -0.0555014 0)
(0.0574604 -0.0670145 0)
(0.0532898 -0.0791288 0)
(0.048563 -0.0918475 0)
(0.0432797 -0.105143 0)
(0.0374573 -0.118962 0)
(0.0312293 -0.133334 0)
(0.0245566 -0.148833 0)
(0.0171329 -0.168193 0)
(0.00827172 -0.198123 0)
(0.00350267 -0.244898 0)
(-0.00832526 -0.304177 0)
(0.00171971 -0.342299 0)
(0.00828091 0.0314585 0)
(0.024967 0.102725 0)
(0.0375101 0.138536 0)
(0.0478815 0.15763 0)
(0.0565566 0.166759 0)
(0.063772 0.169142 0)
(0.0697141 0.166375 0)
(0.0744177 0.158822 0)
(0.077862 0.148081 0)
(0.0803662 0.135674 0)
(0.0822479 0.122658 0)
(0.0837225 0.109679 0)
(0.0849223 0.0970941 0)
(0.0859226 0.085072 0)
(0.0867568 0.07366 0)
(0.0874285 0.0628339 0)
(0.0879212 0.0525296 0)
(0.0882069 0.0426637 0)
(0.088252 0.0331453 0)
(0.0880225 0.0238809 0)
(0.087482 0.0147816 0)
(0.0866007 0.00575456 0)
(0.0853471 -0.00329135 0)
(0.0836899 -0.0124398 0)
(0.081602 -0.0217811 0)
(0.0790524 -0.0314063 0)
(0.0760063 -0.0414005 0)
(0.0724252 -0.051845 0)
(0.0682641 -0.0628038 0)
(0.0634745 -0.0743271 0)
(0.0580102 -0.0864315 0)
(0.0518675 -0.0991268 0)
(0.0450585 -0.112393 0)
(0.0377414 -0.126276 0)
(0.0298942 -0.141237 0)
(0.0212717 -0.159915 0)
(0.011127 -0.189513 0)
(0.00594115 -0.237514 0)
(-0.00859066 -0.300943 0)
(0.00303254 -0.347031 0)
(0.00424506 0.0161401 0)
(0.0235496 0.0864246 0)
(0.0381564 0.125651 0)
(0.0501351 0.147482 0)
(0.0600845 0.158394 0)
(0.0684044 0.161988 0)
(0.075503 0.160431 0)
(0.0814288 0.154252 0)
(0.0860759 0.144678 0)
(0.0896484 0.13312 0)
(0.0924311 0.120683 0)
(0.0946527 0.108098 0)
(0.0964665 0.0957933 0)
(0.0979674 0.0839902 0)
(0.0992062 0.0727738 0)
(0.100201 0.0621459 0)
(0.100948 0.0520592 0)
(0.101428 0.0424397 0)
(0.101614 0.0332011 0)
(0.101474 0.0242509 0)
(0.100975 0.0155018 0)
(0.100082 0.00685645 0)
(0.098763 -0.00177548 0)
(0.0969811 -0.0104741 0)
(0.0947023 -0.019332 0)
(0.0918887 -0.0284372 0)
(0.0884949 -0.0378685 0)
(0.0844706 -0.0477028 0)
(0.0797597 -0.0579998 0)
(0.0743035 -0.0688155 0)
(0.0680471 -0.0801814 0)
(0.0609858 -0.0921499 0)
(0.0531249 -0.104738 0)
(0.0446459 -0.118034 0)
(0.0355223 -0.132412 0)