# vtk DataFile Version 2.0
tracks
ASCII
DATASET POLYDATA
POINTS 12025 float
-0.0206 0.000999966 1e-05 -0.02058 0.000999968 1e-05 -0.02056 0.000999973 1e-05 -0.02054 0.00099998
1e-05 -0.02052 0.000999989 1e-05 -0.0205 0.001 1e-05 -0.0202034 0.00100017 1e-05
-0.0199069 0.00100062 1e-05 -0.0196103 0.00100133 1e-05 -0.0193137 0.00100231 1e-05 -0.0190172
0.00100355 1e-05 -0.0187132 0.00100504 1e-05 -0.0184093 0.00100664 1e-05 -0.0181054 0.00100833
1e-05 -0.0178015 0.0010101 1e-05 -0.0174976 0.00101195 1e-05 -0.0172058 0.0010138 1e-05
-0.016914 0.00101566 1e-05 -0.0166222 0.00101753 1e-05 -0.0163305 0.00101943 1e-05 -0.0160387
0.00102135 1e-05 -0.0158742 0.00102244 1e-05 -0.0157097 0.00102355 1e-05 -0.0155452 0.00102466
1e-05 -0.0153807 0.00102578 1e-05 -0.0152308 0.00102682 1e-05 -0.0151123 0.00102764 1e-05
-0.0149937 0.00102847 1e-05 -0.0148752 0.00102931 1e-05 -0.0147566 0.00103015 1e-05 -0.0146381
0.001031 1e-05 -0.0143692 0.00103293 1e-05 -0.0141002 0.00103489 1e-05 -0.0138313 0.00103687
1e-05 -0.0135624 0.00103887 1e-05 -0.0132934 0.0010409 1e-05 -0.0130353 0.00104286 1e-05
-0.0127771 0.00104482 1e-05 -0.0125189 0.00104677 1e-05 -0.0122607 0.00104872 1e-05 -0.0120025
0.00105066 1e-05 -0.0117547 0.00105252 1e-05 -0.0115068 0.00105435 1e-05 -0.0112589 0.00105617
1e-05 -0.0110111 0.00105797 1e-05 -0.0107632 0.00105974 1e-05 -0.0105252 0.00106144 1e-05
-0.0102873 0.0010631 1e-05 -0.0100493 0.00106475 1e-05 -0.00981133 0.00106638 1e-05 -0.00957337
0.00106799 1e-05 -0.00934491 0.00106953 1e-05 -0.00911645 0.00107105 1e-05 -0.00888799 0.00107256
1e-05 -0.00865954 0.00107405 1e-05 -0.00843108 0.00107554 1e-05 -0.00821175 0.00107698 1e-05
-0.00799242 0.00107839 1e-05 -0.00777309 0.00107981 1e-05 -0.00755376 0.00108122 1e-05 -0.00733443
0.00108263 1e-05 -0.00712387 0.00108399 1e-05 -0.0069133 0.00108534 1e-05 -0.00670273 0.00108668
1e-05 -0.00649216 0.00108802 1e-05 -0.0062816 0.00108936 1e-05 -0.00607944 0.00109066 1e-05
-0.00587729 0.00109193 1e-05 -0.00567514 0.00109319 1e-05 -0.00547298 0.00109444 1e-05 -0.00527083
0.00109569 1e-05 -0.00507675 0.00109689 1e-05 -0.00488267 0.00109807 1e-05 -0.0046886 0.00109924
1e-05 -0.00449452 0.0011004 1e-05 -0.00430044 0.00110154 1e-05 -0.00411412 0.00110265 1e-05
-0.0039278 0.00110373 1e-05 -0.00374147 0.00110479 1e-05 -0.00355515 0.00110585 1e-05 -0.00336883
0.00110688 1e-05 -0.00318995 0.00110789 1e-05 -0.00301107 0.00110885 1e-05 -0.00283219 0.0011098
1e-05 -0.00265331 0.00111073 1e-05 -0.00247443 0.00111165 1e-05 -0.0023027 0.00111253 1e-05
-0.00213097 0.00111338 1e-05 -0.00195924 0.0011142 1e-05 -0.0017875 0.00111501 1e-05 -0.00161577
0.00111579 1e-05 -0.0014509 0.00111655 1e-05 -0.00128603 0.00111728 1e-05 -0.00112116 0.001118
1e-05 -0.000956289 0.00111869 1e-05 -0.000791418 0.00111938 1e-05 -0.000633135 0.00112003 1e-05
-0.000474851 0.00112068 1e-05 -0.000316567 0.00112131 1e-05 -0.000158283 0.00112193 1e-05 0
0.00112254 1e-05 0.000105677 0.00112295 1e-05 0.000211355 0.00112336 1e-05 0.000317032 0.00112376
1e-05 0.00042271 0.00112416 1e-05 0.000528387 0.00112456 1e-05 0.000634886 0.00112496 1e-05
0.000741385 0.00112535 1e-05 0.000847885 0.00112575 1e-05 0.000954384 0.00112614 1e-05 0.00106088
0.00112652 1e-05 0.00116821 0.00112691 1e-05 0.00127554 0.0011273 1e-05 0.00138286 0.00112767
1e-05 0.00149019 0.00112804 1e-05 0.00159752 0.0011284 1e-05 0.00170568 0.00112877 1e-05
0.00181384 0.00112912 1e-05 0.001922 0.00112947 1e-05 0.00203016 0.0011298 1e-05 0.00213833
0.00113013 1e-05 0.00224733 0.00113045 1e-05 0.00235633 0.00113077 1e-05 0.00246533 0.00113108
1e-05 0.00257434 0.00113137 1e-05 0.00268334 0.00113166 1e-05 0.00279319 0.00113195 1e-05
0.00290304 0.00113222 1e-05 0.00301289 0.00113249 1e-05 0.00312274 0.00113275 1e-05 0.00323259
0.00113301 1e-05 0.00334329 0.00113325 1e-05 0.003454 0.00113349 1e-05 0.0035647 0.00113373
1e-05 0.0036754 0.00113395 1e-05 0.00378611 0.00113417 1e-05 0.00389767 0.00113438 1e-05
0.00400924 0.00113459 1e-05 0.0041208 0.00113479 1e-05 0.00423237 0.00113498 1e-05 0.00434393
0.00113517 1e-05 0.00445636 0.00113534 1e-05 0.00456879 0.00113551 1e-05 0.00468123 0.00113568
1e-05 0.00479366 0.00113583 1e-05 0.00490609 0.00113598 1e-05 0.0050194 0.00113612 1e-05
0.0051327 0.00113625 1e-05 0.00524601 0.00113638 1e-05 0.00535931 0.0011365 1e-05 0.00547262
0.00113661 1e-05 0.00558681 0.00113671 1e-05 0.005701 0.00113681 1e-05 0.00581518 0.0011369
1e-05 0.00592937 0.00113698 1e-05 0.00604356 0.00113706 1e-05 0.00615863 0.00113712 1e-05
0.00627371 0.00113718 1e-05 0.00638878 0.00113723 1e-05 0.00650386 0.00113728 1e-05 0.00661893
0.00113732 1e-05 0.0067349 0.00113734 1e-05 0.00685087 0.00113737 1e-05 0.00696684 0.00113738
1e-05 0.00708281 0.00113739 1e-05 0.00719878 0.00113739 1e-05 0.00731565 0.00113738 1e-05
0.00743252 0.00113736 1e-05 0.00754939 0.00113734 1e-05 0.00766626 0.00113731 1e-05 0.00778313
0.00113727 1e-05 0.00790091 0.00113722 1e-05 0.00801869 0.00113716 1e-05 0.00813647 0.0011371
1e-05 0.00825425 0.00113703 1e-05 0.00837203 0.00113695 1e-05 0.00849073 0.00113686 1e-05
0.00860942 0.00113676 1e-05 0.00872812 0.00113666 1e-05 0.00884682 0.00113654 1e-05 0.00896551
0.00113642 1e-05 0.00907552 0.0011363 1e-05 0.00918554 0.00113618 1e-05 0.00929555 0.00113605
1e-05 0.00940556 0.00113591 1e-05 0.00951058 0.00113577 1e-05 0.00952118 0.00113575 1e-05
0.00953179 0.00113574 1e-05 0.00954239 0.00113572 1e-05 0.009553 0.00113571 1e-05 0.0095636
0.00113569 1e-05 0.00968415 0.00113552 1e-05 0.0098047 0.00113534 1e-05 0.00992525 0.00113515
1e-05 0.0100458 0.00113495 1e-05 0.0101663 0.00113475 1e-05 0.0102878 0.00113453 1e-05
0.0104093 0.0011343 1e-05 0.0105308 0.00113407 1e-05 0.0106523 0.00113383 1e-05 0.0107738
0.00113358 1e-05 0.0108962 0.00113331 1e-05 0.0110186 0.00113304 1e-05 0.0111411 0.00113276
1e-05 0.0112635 0.00113248 1e-05 0.0113859 0.00113218 1e-05 0.0115093 0.00113186 1e-05
0.0116327 0.00113154 1e-05 0.0117561 0.00113122 1e-05 0.0118795 0.00113089 1e-05 0.0120028
0.00113055 1e-05 0.0121272 0.00113017 1e-05 0.0122515 0.00112981 1e-05 0.0123759 0.00112944
1e-05 0.0125002 0.00112906 1e-05 0.0126245 0.00112867 1e-05 0.0127498 0.00112824 1e-05
0.0128752 0.00112783 1e-05 0.0130005 0.00112741 1e-05 0.0131258 0.00112698 1e-05 0.0132511
0.00112654 1e-05 0.0133774 0.00112607 1e-05 0.0135036 0.0011256 1e-05 0.0136299 0.00112513
1e-05 0.0137562 0.00112465 1e-05 0.0138825 0.00112416 1e-05 0.0140098 0.00112364 1e-05
0.014137 0.00112313 1e-05 0.0142643 0.00112261 1e-05 0.0143915 0.00112207 1e-05 0.0145188
0.00112153 1e-05 0.0146471 0.00112097 1e-05 0.0147753 0.0011204 1e-05 0.0149036 0.00111983
1e-05 0.0150318 0.00111925 1e-05 0.0151601 0.00111865 1e-05 0.0152893 0.00111804 1e-05
0.0154186 0.00111742 1e-05 0.0155478 0.0011168 1e-05 0.0156771 0.00111617 1e-05 0.0158063
0.00111552 1e-05 0.0159366 0.00111486 1e-05 0.0160668 0.0011142 1e-05 0.0161971 0.00111352
1e-05 0.0163273 0.00111284 1e-05 0.0164576 0.00111215 1e-05 0.0165889 0.00111144 1e-05
0.0167201 0.00111073 1e-05 0.0168514 0.00111 1e-05 0.0169827 0.00110927 1e-05 0.0171139
0.00110853 1e-05 0.0172462 0.00110778 1e-05 0.0173785 0.00110702 1e-05 0.0175108 0.00110625
1e-05 0.0176431 0.00110546 1e-05 0.0177754 0.00110468 1e-05 0.0179087 0.00110389 1e-05
0.018042 0.00110308 1e-05 0.0181753 0.00110226 1e-05 0.0183087 0.00110143 1e-05 0.018442
0.0011006 1e-05 0.0185763 0.00109978 1e-05 0.0187107 0.00109893 1e-05 0.018845 0.00109806
1e-05 0.0189794 0.00109718 1e-05 0.0191137 0.00109631 1e-05 0.0192491 0.00109544 1e-05
0.0193845 0.00109455 1e-05 0.0195199 0.00109364 1e-05 0.0196553 0.00109271 1e-05 0.0197907
0.0010918 1e-05 0.0199272 0.00109091 1e-05 0.0200636 0.00108998 1e-05 0.0202001 0.00108902
1e-05 0.0203365 0.00108805 1e-05 0.020473 0.0010871 1e-05 0.0206105 0.00108617 1e-05
0.020748 0.0010852 1e-05 0.0208855 0.0010842 1e-05 0.021023 0.00108319 1e-05 0.0211606
0.00108221 1e-05 0.0212991 0.00108124 1e-05 0.0214377 0.00108024 1e-05 0.0215763 0.0010792
1e-05 0.0217149 0.00107815 1e-05 0.0218535 0.00107713 1e-05 0.0219931 0.00107614 1e-05
0.0221328 0.0010751 1e-05 0.0222724 0.00107402 1e-05 0.0224121 0.00107294 1e-05 0.0225517
0.00107188 1e-05 0.0226925 0.00107085 1e-05 0.0228332 0.00106978 1e-05 0.022974 0.00106867
1e-05 0.0231147 0.00106755 1e-05 0.0232555 0.00106646 1e-05 0.0233973 0.0010654 1e-05
0.0235391 0.00106429 1e-05 0.023681 0.00106314 1e-05 0.0238228 0.00106198 1e-05 0.0239647
0.00106086 1e-05 0.0241076 0.00105977 1e-05 0.0242505 0.00105863 1e-05 0.0243935 0.00105744
1e-05 0.0245364 0.00105625 1e-05 0.0246794 0.00105509 1e-05 0.0248234 0.00105396 1e-05
0.0249675 0.00105279 1e-05 0.0251115 0.00105156 1e-05 0.0252556 0.00105033 1e-05 0.0253996
0.00104914 1e-05 0.0255448 0.00104798 1e-05 0.02569 0.00104676 1e-05 0.0258351 0.0010455
1e-05 0.0259803 0.00104423 1e-05 0.0261255 0.001043 1e-05 0.0262718 0.0010418 1e-05
0.0264181 0.00104055 1e-05 0.0265644 0.00103925 1e-05 0.0267107 0.00103795 1e-05 0.026857
0.00103668 1e-05 0.0270044 0.00103544 1e-05 0.0271519 0.00103415 1e-05 0.0272993 0.00103281
1e-05 0.0274468 0.00103148 1e-05 0.0275942 0.00103017 1e-05 0.0277428 0.00102888 1e-05
0.0278914 0.00102755 1e-05 0.0280399 0.00102618 1e-05 0.0281885 0.00102481 1e-05 0.0283371
0.00102346 1e-05 0.0284869 0.00102213 1e-05 0.0286366 0.00102075 1e-05 0.0287863 0.00101935
1e-05 0.0289361 0.00101794 1e-05 0.0290858 0.00101654 1e-05 0.0292367 0.00101517 1e-05
0.0293876 0.00101374 1e-05 0.0295385 0.0010123 1e-05 0.0296894 0.00101085 1e-05 0.0298403
0.00100941 1e-05 0.0299924 0.00100799 1e-05 0.0301445 0.00100652 1e-05 0.0302966 0.00100504
1e-05 0.0304486 0.00100355 1e-05 0.0306007 0.00100206 1e-05 0.030754 0.00100059 1e-05
0.0309072 0.000999072 1e-05 0.0310605 0.000997546 1e-05 0.0312138 0.000996016 1e-05 0.031367
0.000994479 1e-05 0.0315215 0.000992962 1e-05 0.0316759 0.0009914 1e-05 0.0318304 0.000989832
1e-05 0.0319848 0.000988258 1e-05 0.0321393 0.000986679 1e-05 0.0322949 0.000985111 1e-05
0.0324506 0.000983506 1e-05 0.0326062 0.000981894 1e-05 0.0327619 0.000980276 1e-05 0.0329175
[...]
POINT_DATA 12025
FIELD attributes 4
age 1 12025 float
-9.99925e-06 -7.9993e-06 -5.9994e-06 -3.99955e-06 -1.99975e-06 0 2.9653e-05 5.92891e-05 8.89078e-05 0.000118509 0.000148094
0.000178374 0.000208644 0.000238892 0.000269117 0.00029932 0.000328278 0.000357229 0.000386162 0.000415075 0.00044397
0.000460246 0.00047652 0.000492788 0.00050905 0.00052386 0.000535572 0.000547282 0.000558989 0.000570693 0.000582394
0.000608931 0.000635454 0.000661962 0.000688455 0.000714933 0.000740335 0.000765729 0.00079111 0.000816477 0.00084183
0.00086615 0.000890469 0.000914778 0.000939077 0.000963364 0.00098666 0.00100996 0.00103326 0.00105655 0.00107983
0.00110215 0.00112449 0.00114683 0.00116916 0.00119148 0.00121289 0.00123432 0.00125574 0.00127716 0.00129857
0.00131911 0.00133966 0.00136021 0.00138076 0.00140131 0.00142101 0.00144073 0.00146044 0.00148015 0.00149987
0.00151877 0.00153769 0.0015566 0.00157552 0.00159443 0.00161257 0.00163072 0.00164887 0.00166702 0.00168517
0.00170258 0.00171999 0.00173741 0.00175483 0.00177225 0.00178896 0.00180568 0.00182239 0.00183911 0.00185583
0.00187188 0.00188793 0.00190398 0.00192003 0.00193609 0.0019515 0.00196691 0.00198232 0.00199774 0.00201316
0.00202346 0.00203375 0.00204404 0.00205434 0.00206463 0.00207501 0.00208539 0.00209577 0.00210615 0.00211653
0.00212699 0.00213745 0.00214791 0.00215838 0.00216884 0.0021794 0.00218994 0.00220049 0.00221104 0.00222159
0.00223223 0.00224286 0.00225349 0.00226413 0.00227477 0.0022855 0.00229622 0.00230694 0.00231767 0.0023284
0.00233922 0.00235003 0.00236085 0.00237167 0.00238249 0.0023934 0.00240431 0.00241522 0.00242613 0.00243705
0.00244807 0.00245907 0.00247008 0.00248109 0.0024921 0.00250321 0.00251432 0.00252543 0.00253654 0.00254765
0.00255887 0.00257007 0.00258129 0.0025925 0.00260372 0.00261504 0.00262636 0.00263767 0.002649 0.00266032
0.00267176 0.00268318 0.00269461 0.00270605 0.00271749 0.00272903 0.00274057 0.00275212 0.00276367 0.00277523
0.00278689 0.00279855 0.00281022 0.00282189 0.00283357 0.00284536 0.00285715 0.00286894 0.00288074 0.00289255
0.00290351 0.00291447 0.00292544 0.00293642 0.0029469 0.00294796 0.00294902 0.00295008 0.00295114 0.0029522
0.00296425 0.00297631 0.00298838 0.00300046 0.00301255 0.00302476 0.00303696 0.00304918 0.00306141 0.00307364
0.00308602 0.00309838 0.00311076 0.00312314 0.00313554 0.00314809 0.00316061 0.00317315 0.0031857 0.00319826
0.003211 0.00322369 0.0032364 0.00324912 0.00326186 0.00327479 0.00328766 0.00330055 0.00331346 0.00332638
0.0033395 0.00335256 0.00336564 0.00337873 0.00339185 0.00340517 0.00341843 0.00343171 0.003445 0.00345832
0.00347185 0.00348531 0.0034988 0.0035123 0.00352583 0.00353957 0.00355325 0.00356695 0.00358067 0.00359442
0.00360838 0.00362229 0.00363621 0.00365016 0.00366414 0.00367833 0.00369247 0.00370663 0.0037208 0.00373502
0.00374944 0.00376383 0.00377822 0.00379263 0.0038071 0.00382175 0.00383638 0.00385102 0.00386568 0.00388038
0.00389528 0.00391016 0.00392504 0.00393995 0.00395491 0.00397005 0.00398518 0.00400032 0.00401548 0.00403069
0.00404608 0.00406146 0.00407686 0.00409228 0.00410774 0.00412338 0.00413902 0.00415468 0.00417036 0.00418608
0.00420197 0.00421788 0.0042338 0.00424974 0.00426573 0.00428187 0.00429803 0.00431422 0.00433043 0.00434667
0.00436307 0.0043795 0.00439595 0.00441243 0.00442893 0.00444559 0.00446228 0.00447899 0.00449574 0.0045125
0.00452942 0.00454637 0.00456336 0.00458036 0.00459739 0.00461457 0.00463178 0.00464903 0.00466631 0.0046836
0.00470104 0.00471851 0.00473603 0.00475357 0.00477112 0.00478882 0.00480656 0.00482434 0.00484214 0.00485995
0.00487792 0.00489592 0.00491396 0.00493202 0.0049501 0.00496833 0.0049866 0.0050049 0.00502322 0.00504156
0.00506005 0.00507858 0.00509714 0.00511573 0.00513432 0.00515308 0.00517187 0.00519069 0.00520954 0.0052284
0.00524741 0.00526647 0.00528555 0.00530466 0.00532378 0.00534305 0.00536237 0.00538172 0.00540108 0.00542046
0.00544 0.00545958 0.00547918 0.0054988 0.00551844 0.00553824 0.00555808 0.00557794 0.00559782 0.00561772
0.00563778 0.00565788 0.005678 0.00569814 0.0057183 0.00573862 0.00575898 0.00577936 0.00579975 0.00582017
0.00584076 0.00586137 0.00588201 0.00590266 0.00592334 0.00594419 0.00596506 0.00598596 0.00600687 0.0060278
0.00603297 0.00603815 0.00604332 0.0060485 0.00605364 0.00606961 0.00608558 0.00610157 0.00611757 0.00613358
0.00615495 0.00617635 0.00619776 0.0062192 0.00624065 0.00626228 0.00628394 0.00630561 0.00632731 0.00634902
0.00637091 0.00639283 0.00641477 0.00643673 0.0064587 0.00648085 0.00650303 0.00652523 0.00654745 0.00656969
0.0065921 0.00661455 0.00663701 0.00665949 0.00668199 0.00670467 0.00672737 0.0067501 0.00677285 0.00679561
0.00681855 0.00684152 0.00686451 0.00688752 0.00691055 0.00693375 0.00695698 0.00698024 0.00700352 0.00702681
0.00705027 0.00707377 0.0070973 0.00712085 0.0071444 0.00716814 0.0071919 0.0072157 0.00723952 0.00726334
0.00728734 0.00731138 0.00733545 0.00735955 0.00738364 0.00740792 0.00743223 0.00745658 0.00748094 0.00750531
0.00752986 0.00755445 0.00757908 0.00760372 0.00762837 0.0076532 0.00767807 0.00770298 0.0077279 0.00775283
0.00777795 0.00780311 0.0078283 0.00785351 0.00787872 0.00790413 0.00792958 0.00795506 0.00798056 0.00800606
0.00803176 0.0080575 0.00808328 0.00810907 0.00813487 0.00816087 0.00818691 0.00821298 0.00823907 0.00826517
0.00829147 0.00831781 0.00834419 0.00837057 0.00839698 0.00842359 0.00845024 0.00847692 0.00850361 0.00853033
0.00855725 0.00858422 0.00861121 0.00863821 0.00866524 0.00869248 0.00871977 0.00874707 0.00877439 0.00880173
0.0088293 0.0088569 0.00888452 0.00891216 0.00893982 0.00896772 0.00899564 0.00902358 0.00905155 0.00907954
0.00910209 0.00912465 0.00914724 0.00916983 0.00919171 0.00919755 0.00920338 0.00920922 0.00921507 0.00922091
0.00924946 0.00927805 0.00930665 0.00933527 0.00936392 0.00939281 0.00942173 0.00945067 0.00947963 0.00950862
0.00953785 0.0095671 0.00959638 0.00962569 0.00965501 0.00968458 0.00971417 0.0097438 0.00977344 0.00980311
0.00983302 0.00986296 0.00989292 0.00992292 0.00995293 0.00998317 0.0100135 0.0100438 0.0100741 0.0101045
0.0101351 0.0101657 0.0101964 0.010227 0.0102578 0.0102887 0.0103197 0.0103507 0.0103817 0.0104128
0.0104441 0.0104754 0.0105068 0.0105382 0.0105696 0.0106013 0.0106329 0.0106647 0.0106964 0.0107282
0.0107602 0.0107923 0.0108244 0.0108565 0.0108886 0.010921 0.0109534 0.0109859 0.0110184 0.0110509
0.0110836 0.0111164 0.0111493 0.0111821 0.011215 0.0112482 0.0112814 0.0113146 0.0113478 0.0113811
0.0114146 0.0114482 0.0114818 0.0115155 0.0115491 0.0115831 0.0116171 0.0116511 0.0116851 0.0117192
0.0117433 0.0117674 0.0117915 0.0118156 0.0118383 0.0118489 0.0118595 0.0118701 0.0118807 0.0118913
0.0119261 0.0119609 0.0119958 0.0120307 0.0120656 0.0121008 0.0121361 0.0121714 0.0122068 0.0122422
0.0122778 0.0123136 0.0123494 0.0123852 0.012421 0.0124572 0.0124934 0.0125297 0.012566 0.0126023
0.012639 0.0126757 0.0127124 0.0127492 0.0127861 0.0128232 0.0128604 0.0128977 0.012935 0.0129724
0.0130101 0.0130478 0.0130856 0.0131234 0.0131613 0.0131995 0.0132378 0.0132761 0.0133145 0.013353
0.0133917 0.0134306 0.0134694 0.0135084 0.0135474 0.0135854 0.0136235 0.0136616 0.0136998 0.0137358
0.0137375 0.0137393 0.0137411 0.0137429 0.0137447 0.0137846 0.0138246 0.0138646 0.0139047 0.0139448
0.0139853 0.0140259 0.0140665 0.0141072 0.0141479 0.0141891 0.0142302 0.0142715 0.0143127 0.0143541
0.0143958 0.0144376 0.0144795 0.0145214 0.0145634 0.0146057 0.0146481 0.0146906 0.0147332 0.0147758
0.0148188 0.0148619 0.014905 0.0149482 0.0149915 0.0150352 0.015079 0.0151228 0.0151667 0.0152106
0.015255 0.0152994 0.0153439 0.0153885 0.0154331 0.0154454 0.0154577 0.01547 0.0154823 0.0154944
0.0155273 0.0155602 0.0155932 0.0156262 0.0156593 0.0157051 0.0157509 0.0157968 0.0158428 0.0158889
0.0159354 0.015982 0.0160287 0.0160754 0.0161222 0.0161695 0.0162169 0.0162643 0.0163118 0.0163594
0.0164074 0.0164555 0.0165037 0.016552 0.0166004 0.0166492 0.0166982 0.0167472 0.0167963 0.0168455
0.0168952 0.0169449 0.0169948 0.0170447 0.0170947 0.0171294 0.017164 0.0171988 0.0172335 0.0172674
0.0172836 0.0172998 0.017316 0.0173322 0.0173485 0.0173999 0.0174514 0.017503 0.0175547 0.0176066
0.0176589 0.0177113 0.0177639 0.0178165 0.0178693 0.0179226 0.017976 0.0180295 0.0180831 0.0181368
0.0181911 0.0182455 0.0183 0.0183546 0.0184094 0.0184647 0.0185202 0.0185757 0.0186314 0.0186873
0.0187437 0.0188002 0.0188569 0.0189137 0.0189707 0.018992 0.0190134 0.0190347 0.0190561 0.0190772
0.0191136 0.0191501 0.0191867 0.0192233 0.01926 0.0193187 0.0193776 0.0194366 0.0194958 0.0195552
0.0196152 0.0196753 0.0197356 0.019796 0.0198566 0.0199179 0.0199794 0.020041 0.0201028 0.0201648
0.0202274 0.0202903 0.0203533 0.0204164 0.0204799 0.020544 0.0206083 0.0206727 0.0207374 0.0208024
0.0208231 0.0208438 0.0208646 0.0208854 0.0209058 0.020951 0.0209963 0.0210417 0.0210872 0.0211329
0.0212001 0.0212675 0.0213352 0.0214031 0.0214713 0.0215402 0.0216094 0.0216787 0.0217483 0.0218183
0.021889 0.02196 0.0220312 0.0221026 0.0221744 0.022247 0.0223199 0.022393 0.0224664 0.0225402
0.0225817 0.0226233 0.0226651 0.0227069 0.0227475 0.0227812 0.022815 0.0228488 0.0228826 0.0229166
0.0229933 0.0230703 0.0231477 0.0232253 0.0233033 0.0233823 0.0234616 0.0235412 0.0236211 0.0237014
0.0237828 0.0238644 0.0239464 0.0240288 0.0241116 0.0241954 0.0242796 0.0243641 0.0244491 0.0245345
0.024553 0.0245716 0.0245901 0.0246087 0.0246271 0.0246954 0.024764 0.0248328 0.0249019 0.0249713
0.0250605 0.0251502 0.0252403 0.0253308 0.0254218 0.025514 0.0256066 0.0256997 0.0257932 0.0258873
0.0259826 0.0260783 0.0261746 0.0262713 0.0263686 0.0264128 0.0264571 0.0265014 0.0265459 0.0265897
0.0266449 0.0267003 0.0267558 0.0268115 0.0268673 0.0269693 0.0270718 0.0271749 0.0272785 0.0273828
0.0274884 0.0275945 0.0277012 0.0278086 0.0279165 0.0280259 0.0281358 0.0282464 0.0283576 0.0284695
0.0285131 0.0285568 0.0286005 0.0286444 0.0286878 0.0287585 0.0288293 0.0289005 0.0289718 0.0290434
0.0291609 0.029279 0.0293978 0.0295172 0.0296374 0.0297591 0.0298815 0.0300046 0.0301284 0.0302529
0.030379 0.0305059 0.0306335 0.0307618 0.0308909 0.0309079 0.0309249 0.0309419 0.030959 0.030976
0.0310902 0.0312049 0.0313202 0.031436 0.0315524 0.0316877 0.0318238 0.0319608 0.0320984 0.0322368
0.0323768 0.0325177 0.0326594 0.0328018 0.032945 0.0330567 0.033169 0.0332817 0.0333948 0.0335081
0.033542 0.0335759 0.0336099 0.033644 0.033678 0.0338279 0.0339785 0.0341298 0.0342819 0.0344347
0.0345892 0.0347446 0.0349008 0.0350578 0.0352153 0.0353747 0.0355349 0.035696 0.0358577 0.0360201
0.0360818 0.0361437 0.0362057 0.0362678 0.0363302 0.0364336 0.0365373 0.0366412 0.0367454 0.0368499
0.0370191 0.037189 0.0373598 0.0375312 0.0377033 0.0378772 0.038052 0.0382277 0.038404 0.0385809
0.0387402 0.0389001 0.0390606 0.0392217 0.0393854 0.0394049 0.0394244 0.0394439 0.0394633 0.0394829
0.0396666 0.0398511 0.0400362 0.040222 0.0404084 0.0405968 0.040786 0.0409759 0.0411665 0.0413575
0.0415505 0.0417443 0.0419388 0.0421339 0.0423295 0.042407 0.0424846 0.0425623 0.0426401 0.0427185
0.0428393 0.0429603 0.0430816 0.043203 0.0433246 0.0435267 0.0437294 0.0439327 0.0441366 0.0443408
0.044547 0.0447539 0.0449614 0.0451694 0.0453776 0.0455646 0.045752 0.0459398 0.0461279 0.0463207
0.0463434 0.0463661 0.0463888 0.0464115 0.0464342 0.0466484 0.046863 0.0470779 0.0472933 0.0475089
0.0477264 0.0479444 0.0481628 0.0483816 0.0486002 0.0488207 0.0490415 0.0492627 0.0494841 0.0497055
0.0498099 0.0499144 0.0500189 0.0501234 0.0502304 0.050349 0.0504676 0.0505863 0.050705 0.0508236
0.05104 0.0512567 0.0514737 0.0516909 0.0519076 0.0521325 0.0523573 0.0525821 0.0528066 0.0530307
0.0530347 0.0530386 0.0530425 0.0530464 0.0530504 0.0532792 0.0535078 0.0537362 0.0539644 0.0541919
0.0544321 0.054672 0.0549116 0.0551506 0.0553888 0.055451 0.0555132 0.0555754 0.0556376 0.0557012
0.0558849 0.0560683 0.0562512 0.0564338 0.0566157 0.0568682 0.0571199 0.0573707 0.0576206 0.0578689
0.057986 0.0581029 0.0582196 0.0583359 0.05846 0.0585965 0.0587328 0.0588686 0.0590041 0.059139
0.0593989 0.0596573 0.0599143 0.0601696 0.0604227 0.0606156 0.0608075 0.0609983 0.0611882 0.0614053
0.0614663 0.0615271 0.0615878 0.0616484 0.0617089 0.0619704 0.0622297 0.0624869 0.062742 0.0629945
0.0632546 0.0635124 0.0637679 0.0640208 0.0642712 0.0643465 0.0644215 0.0644964 0.064571 0.0646512
0.0648296 0.0650068 0.0651826 0.0653572 0.0655305 0.0657847 0.066036 0.0662847 0.0665307 0.0667738
0.0670237 0.0672707 0.0675148 0.0677562 0.0679947 0.0680723 0.0681496 0.0682265 0.0683032 0.0683873
0.0685499 0.0687112 0.0688712 0.0690299 0.0691874 0.0694271 0.0696638 0.0698976 0.0701286 0.0703568
0.070591 0.0708222 0.0710505 0.0712759 0.0714987 0.0717273 0.0719529 0.0721756 0.0723955 0.0726127
0.0726914 0.0727698 0.0728478 0.0729254 0.0730128 0.0731516 0.0732892 0.0734257 0.0735611 0.0736955
0.0739128 0.0741272 0.0743389 0.0745478 0.0747542 0.0749659 0.0751746 0.0753805 0.0755839 0.075785
0.0759915 0.0761955 0.0763969 0.0765956 0.0767915 0.076992 0.0771894 0.0773841 0.0775767 0.0777673
0.0779638 0.0781584 0.0783497 0.0785376 0.0787224 0.0788339 0.0789442 0.0790538 0.0791629 0.0792332
0.079315 0.0793963 0.0794771 0.0795575 0.0796373 -9.99993e-06 -7.99994e-06 -5.99995e-06 -3.99996e-06 -1.99998e-06
0 2.96564e-05 5.93118e-05 8.89646e-05 0.000118614 0.000148259 0.000178632 0.000208999 0.000239359 0.000269713
0.00030006 0.000329188 0.00035831 0.000387425 0.000416533 0.000445635 0.000473566 0.000501491 0.00052941 0.000557322
0.000585227 0.000612012 0.000638791 0.000665564 0.000692331 0.000719093 0.000744779 0.000770461 0.000796137 0.000821809
0.000847475 0.00087211 0.000896741 0.000921367 0.000945989 0.000970606 0.000994235 0.00101786 0.00104148 0.0010651
0.00108871 0.00111138 0.00113404 0.0011567 0.00117936 0.00120201 0.00122376 0.0012455 0.00126724 0.00128898
0.00131071 0.00133157 0.00135243 0.00137329 0.00139414 0.001415 0.00143501 0.00145503 0.00147504 0.00149505
0.00151505 0.00153426 0.00155346 0.00157266 0.00159186 0.00161105 0.00162948 0.00164791 0.00166633 0.00168475
0.00170317 0.00172085 0.00173853 0.00175621 0.00177389 0.00179156 0.00180853 0.00182549 0.00184246 0.00185942
0.00187638 0.00189267 0.00190895 0.00192523 0.00194151 0.00195778 0.00197341 0.00198904 0.00200466 0.00202028
0.00203591 0.00204634 0.00205676 0.00206719 0.00207762 0.00208805 0.00209856 0.00210906 0.00211957 0.00213008
0.00214058 0.00215117 0.00216176 0.00217235 0.00218293 0.00219352 0.00220419 0.00221486 0.00222552 0.00223619
0.00224686 0.0022576 0.00226835 0.0022791 0.00228985 0.0023006 0.00231143 0.00232226 0.00233309 0.00234392
0.00235475 0.00236566 0.00237657 0.00238748 0.0023984 0.00240931 0.0024203 0.0024313 0.0024423 0.00245329
0.00246429 0.00247537 0.00248645 0.00249753 0.00250861 0.00251969 0.00253085 0.00254202 0.00255318 0.00256435
0.00257551 0.00258676 0.00259801 0.00260926 0.00262051 0.00263176 0.0026431 0.00265444 0.00266578 0.00267712
0.00268845 0.00269988 0.0027113 0.00272273 0.00273415 0.00274558 0.00275709 0.00276861 0.00278012 0.00279163
0.00280315 0.00281475 0.00282635 0.00283795 0.00284956 0.00286116 0.00287285 0.00288455 0.00289624 0.00290793
0.00291962 0.00293141 0.00294319 0.00295498 0.00296676 0.00297854 0.00299042 0.00300229 0.00301417 0.00302604
0.00303792 0.00304989 0.00306185 0.00307382 0.00308579 0.00309776 0.00310982 0.00312188 0.00313394 0.003146
0.00315806 0.00317022 0.00318237 0.00319453 0.00320668 0.00321884 0.00323109 0.00324334 0.00325559 0.00326784
0.00328009 0.00329243 0.00330478 0.00331712 0.00332947 0.00334181 0.00335425 0.0033667 0.00337914 0.00339158
0.00340402 0.00341656 0.0034291 0.00344163 0.00345417 0.00346671 0.00347935 0.00349198 0.00350462 0.00351725
0.00352989 0.00354262 0.00355536 0.00356809 0.00358083 0.00359356 0.00360639 0.00361923 0.00363206 0.00364489
0.00365772 0.00366753 0.00367734 0.00368715 0.00369696 0.0037068 0.00370992 0.00371303 0.00371615 0.00371927
0.00372239 0.00373542 0.00374845 0.00376148 0.00377452 0.00378755 0.00380068 0.00381382 0.00382695 0.00384008
0.00385322 0.00386645 0.00387968 0.00389292 0.00390615 0.00391939 0.00393272 0.00394606 0.0039594 0.00397273
0.00398607 0.00399951 0.00401295 0.00402639 0.00403982 0.00405326 0.0040668 0.00408035 0.00409389 0.00410743
0.00412097 0.00413462 0.00414826 0.00416191 0.00417555 0.0041892 0.00420295 0.0042167 0.00423044 0.00424419
0.00425794 0.0042718 0.00428565 0.0042995 0.00431336 0.00432721 0.00434117 0.00435513 0.00436909 0.00438305
0.004397 0.00441107 0.00442514 0.0044392 0.00445326 0.00446733 0.0044815 0.00449567 0.00450984 0.00452401
0.00453818 0.00455246 0.00456674 0.00458102 0.0045953 0.00460958 0.00462396 0.00463835 0.00465274 0.00466712
0.00468151 0.00469601 0.0047105 0.004725 0.00473949 0.00475398 0.00476859 0.00478319 0.0047978 0.0048124
0.00482701 0.00484172 0.00485644 0.00487115 0.00488587 0.00490058 0.00491541 0.00493023 0.00494506 0.00495988
0.00497471 0.00498965 0.00500459 0.00501952 0.00503446 0.0050494 0.00506445 0.0050795 0.00509455 0.0051096
0.00512465 0.00513982 0.00515498 0.00517015 0.00518531 0.00520048 0.00521576 0.00523104 0.00524632 0.0052616
0.00527687 0.00529227 0.00530767 0.00532306 0.00533846 0.00535385 0.00536937 0.00538488 0.00540039 0.0054159
0.00543141 0.00544705 0.00546268 0.00547831 0.00549394 0.00550956 0.00552532 0.00554107 0.00555681 0.00557256
0.00558831 0.00560418 0.00562005 0.00563592 0.00565179 0.00566766 0.00568365 0.00569964 0.00571563 0.00573162
0.00574761 0.00576373 0.00577984 0.00579595 0.00581207 0.00582818 0.00584442 0.00586066 0.00587689 0.00589313
0.00590937 0.00591743 0.00592549 0.00593356 0.00594162 0.00594961 0.00595793 0.00596624 0.00597455 0.00598287
0.00599118 0.00600767 0.00602416 0.00604065 0.00605714 0.00607363 0.00609025 0.00610686 0.00612348 0.0061401
0.00615672 0.00617347 0.00619022 0.00620697 0.00622372 0.00624046 0.00625735 0.00627423 0.00629111 0.00630799
0.00632487 0.0063419 0.00635891 0.00637592 0.00639294 0.00640995 0.00642712 0.00644427 0.00646142 0.00647857
0.00649572 0.00651303 0.00653032 0.00654761 0.00656489 0.00658219 0.00659965 0.00661708 0.00663451 0.00665193
0.00666938 0.00668698 0.00670456 0.00672213 0.0067397 0.00675729 0.00677504 0.00679278 0.00681049 0.0068282
0.00684594 0.00686385 0.00688174 0.0068996 0.00691747 0.00693536 0.00695343 0.00697147 0.00698948 0.0070075
0.00702556 0.00704378 0.00706198 0.00708016 0.00709834 0.00711655 0.00713494 0.00715331 0.00717164 0.00718998
0.00720836 0.00722692 0.00724545 0.00726395 0.00728245 0.007301 0.00731973 0.00733842 0.0073571 0.00737578
0.00739449 0.00741339 0.00743226 0.00745112 0.00746998 0.00748886 0.00750794 0.00752699 0.00754602 0.00756507
0.00758413 0.00760339 0.00762262 0.00764184 0.00766107 0.00768032 0.00769976 0.00771917 0.00773858 0.00775801
0.00777744 0.00779707 0.00781667 0.00783628 0.0078559 0.00787553 0.00789535 0.00791515 0.00793496 0.00795479
0.00797462 0.00799463 0.00801464 0.00803465 0.00805468 0.00807472 0.00808448 0.00809425 0.00810401 0.00811378
0.00812341 0.00813389 0.00814438 0.00815487 0.00816537 0.00817586 0.00819629 0.00821672 0.00823716 0.00825761
0.00827807 0.00829873 0.00831938 0.00834004 0.00836071 0.00838139 0.00840229 0.00842316 0.00844404 0.00846494
0.00848585 0.00850698 0.00852808 0.00854919 0.00857032 0.00859147 0.00861285 0.00863419 0.00865554 0.0086769
0.0086983 0.00871993 0.00874153 0.00876312 0.00878472 0.00880637 0.00882826 0.00885011 0.00887195 0.00889379
0.0089157 0.00893785 0.00895997 0.00898206 0.00900417 0.00902635 0.00904876 0.00907115 0.00909351 0.00911589
0.00913833 0.00916102 0.00918369 0.00920632 0.00922898 0.0092517 0.00927467 0.00929761 0.00932053 0.00934347
0.00936648 0.00938973 0.00941296 0.00943618 0.00945943 0.00948272 0.00950626 0.00952978 0.00955331 0.00957687
0.00960046 0.0096243 0.00964812 0.00967196 0.00969584 0.00971974 0.00974388 0.00976802 0.00979219 0.00981638
0.00984061 0.00986383 0.00988707 0.00991033 0.00993362 0.0099557 0.00995719 0.00995867 0.00996015 0.00996163