/*--------------------------------*- C++ -*----------------------------------*\
  =========                 |
  \\      /  F ield         | OpenFOAM: The Open Source CFD Toolbox
   \\    /   O peration     | Website:  https://openfoam.org
    \\  /    A nd           | Version:  13
     \\/     M anipulation  |
\*---------------------------------------------------------------------------*/
FoamFile
{
    format      ascii;
    class       volScalarField;
    location    "4.5";
    object      k;
}
// * * * * * * * * * * * * * * * * * * * * * * * * * * * * * * * * * * * * * //

dimensions      [0 2 -2 0 0 0 0];

internalField   nonuniform List<scalar> 
6400
(
4.3977e-07
2.25417e-06
5.42095e-06
8.74952e-06
1.13328e-05
1.28728e-05
1.35451e-05
1.37589e-05
1.39764e-05
1.46091e-05
1.59897e-05
1.84632e-05
2.22829e-05
2.7533e-05
3.39946e-05
4.13562e-05
4.92846e-05
5.76404e-05
6.60619e-05
7.42992e-05
8.2486e-05
9.12359e-05
0.000101403
0.000113745
0.00012817
0.000143493
0.000158676
0.000173808
0.000189182
0.000205151
0.000221702
0.000238224
0.000254422
0.00027016
0.000285807
0.000301564
0.00031773
0.000334518
0.000352136
0.000370748
0.000390451
0.0004114
0.000433743
0.000457648
0.000483292
0.000511027
0.000541814
0.000577685
0.000622987
0.000667134
0.000712729
0.00075717
0.000800293
0.000840506
0.000876553
0.000906864
0.000928827
0.000939515
0.000943418
0.000936231
0.000912724
0.000874447
0.000821727
0.000755467
0.000678635
0.000593409
0.000505073
0.000417398
0.000334059
0.000256985
0.000194406
0.00014225
9.97508e-05
6.69262e-05
4.31067e-05
2.67249e-05
1.59727e-05
9.0449e-06
4.21689e-06
8.94562e-07
2.13927e-06
1.80498e-05
4.35976e-05
6.86157e-05
8.76561e-05
9.95354e-05
0.000105765
0.000108914
0.000111812
0.000117089
0.000127731
0.00014633
0.000174176
0.00021094
0.000255164
0.000304824
0.000358081
0.000413066
0.000468212
0.000522607
0.000577156
0.000635196
0.000701321
0.000779076
0.000867185
0.00095921
0.00104936
0.00113652
0.00122079
0.00130271
0.00138144
0.00145489
0.00152223
0.00158306
0.00163943
0.00169244
0.00174371
0.00179439
0.00184559
0.00189827
0.001953
0.00201046
0.00207117
0.00213531
0.00220276
0.00227317
0.00234637
0.00242042
0.00249289
0.00257171
0.00265191
0.00273435
0.00281544
0.00289361
0.00296513
0.00302662
0.00307161
0.00309257
0.0030971
0.00307707
0.00302227
0.00293104
0.00280226
0.00263565
0.00243584
0.00220791
0.00196385
0.00171268
0.00146175
0.00121969
0.00098616
0.000770637
0.000581278
0.000421971
0.000294227
0.000196002
0.000124342
7.39232e-05
3.53275e-05
4.70768e-06
4.71116e-06
3.96303e-05
9.23607e-05
0.000137922
0.000169837
0.000189424
0.000200924
0.000209248
0.000219368
0.000236221
0.000264648
0.000308484
0.000369336
0.000446077
0.000535762
0.000635125
0.000741566
0.000852905
0.000966942
0.00108172
0.00119561
0.00130761
0.00141646
0.00151854
0.00160898
0.0016845
0.00174245
0.00178326
0.00181388
0.00183988
0.00186623
0.00189385
0.00192397
0.00195428
0.0019868
0.00202189
0.00206051
0.00210314
0.0021502
0.00220236
0.00225952
0.00232173
0.00238932
0.00246186
0.00253953
0.00262222
0.00270981
0.00280188
0.0028993
0.00300186
0.00310777
0.0032161
0.00332457
0.00343096
0.00353192
0.00362356
0.00370109
0.0037574
0.00378338
0.00378752
0.00375621
0.00368162
0.00356173
0.00339439
0.00318176
0.00292618
0.00264337
0.00234405
0.00203723
0.00173427
0.00144494
0.0011766
0.000935423
0.000724874
0.000546309
0.000399139
0.000280271
0.000182491
9.19127e-05
1.24192e-05
8.2095e-06
6.71389e-05
0.000147193
0.000209165
0.00025077
0.000277375
0.000295932
0.000313529
0.000337162
0.000373681
0.000429202
0.000507595
0.000609077
0.000730245
0.000865813
0.00101052
0.00115961
0.00130832
0.00145146
0.00158389
0.00170044
0.00179812
0.00187512
0.00192711
0.00195197
0.00196023
0.00196059
0.00195649
0.0019552
0.00195742
0.00196531
0.00197636
0.00199178
0.00201152
0.00203627
0.00206565
0.00210002
0.00213954
0.00218416
0.00223388
0.00228898
0.00234942
0.00241543
0.00248686
0.0025637
0.00264555
0.00273327
0.00282709
0.00292686
0.00303217
0.00314217
0.0032558
0.00337133
0.0034867
0.00359899
0.00370454
0.00379881
0.00387658
0.00392748
0.00394815
0.00394231
0.00389294
0.00380024
0.00366694
0.00348225
0.0032444
0.0029646
0.00265408
0.00232764
0.00199978
0.00168354
0.00138942
0.00112439
0.000891931
0.000692878
0.000526063
0.000387214
0.000267041
0.000143872
2.02907e-05
1.31614e-05
0.000103945
0.000212486
0.000290261
0.000341714
0.000376629
0.000404909
0.000436096
0.000479354
0.000543092
0.000633519
0.000752635
0.000897279
0.00106031
0.00123307
0.00140706
0.00157426
0.00172671
0.00185617
0.00195794
0.00202519
0.00205559
0.00206287
0.00204455
0.00201679
0.00199197
0.00197168
0.00195588
0.00194801
0.00194472
0.00194454
0.00194973
0.00195917
0.00197295
0.00199106
0.00201293
0.00203879
0.00206826
0.0021011
0.00213749
0.00217738
0.00222093
0.00226866
0.00232113
0.00237895
0.00244302
0.002513
0.00258915
0.00267176
0.002761
0.00285694
0.00295939
0.00306771
0.00318083
0.00329711
0.00341428
0.00352891
0.00363625
0.00373061
0.00380513
0.0038419
0.00385017
0.00380903
0.00371679
0.0035707
0.00338307
0.00313148
0.00283304
0.00250423
0.00216275
0.0018264
0.00151073
0.00122644
0.000978643
0.00076801
0.00059225
0.000445759
0.000316715
0.000177918
2.54864e-05
2.0195e-05
0.000152954
0.000291995
0.000386415
0.000449068
0.000494388
0.000535557
0.000584801
0.000653202
0.000749538
0.000878105
0.00103691
0.00121792
0.00140946
0.0015989
0.00177426
0.00192483
0.00204262
0.00211375
0.0021412
0.00214252
0.00210618
0.00206687
0.00202953
0.00199165
0.00195906
0.00193162
0.00190921
0.00189175
0.00187781
0.00186829
0.00186391
0.00186247
0.00186356
0.00186845
0.00187549
0.00188517
0.0018971
0.00191132
0.0019283
0.00194808
0.00197103
0.00199721
0.00202689
0.00206051
0.00209854
0.00214146
0.00219006
0.00224523
0.00230795
0.00237914
0.00245986
0.00255087
0.00265253
0.0027646
0.00288593
0.00301459
0.0031481
0.00328157
0.00340896
0.00352116
0.00360263
0.00363734
0.00363817
0.00357053
0.00344222
0.00324946
0.00298416
0.00266623
0.00231587
0.00195677
0.00161213
0.00130002
0.00103037
0.000805085
0.000620589
0.000469087
0.000336237
0.000192234
2.72279e-05
2.99309e-05
0.000215987
0.00038791
0.000500279
0.000575735
0.000633679
0.000690783
0.000761758
0.000858589
0.000988516
0.00115175
0.00134079
0.00154222
0.00173994
0.00191811
0.00206308
0.00216058
0.00220303
0.00220942
0.00217396
0.00212858
0.00207366
0.00201947
0.00196384
0.00191334
0.00187072
0.00183392
0.00180254
0.00177577
0.00175426
0.00173653
0.00172195
0.00170977
0.00169998
0.00169249
0.0016868
0.00168345
0.00168197
0.00168169
0.00168374
0.00168772
0.00169382
0.00170226
0.00171327
0.00172716
0.00174436
0.00176534
0.00179078
0.0018215
0.00185871
0.00190359
0.0019577
0.00202309
0.00210203
0.00219659
0.00230807
0.0024356
0.00258111
0.00274058
0.00290861
0.00307787
0.00324002
0.00337926
0.00346448
0.00349384
0.00346041
0.00336061
0.00315599
0.00286917
0.00251982
0.00213646
0.00175179
0.00139552
0.00108765
0.000835069
0.000633896
0.000473561
0.000335657
0.000191095
2.64121e-05
4.29505e-05
0.000294051
0.000500979
0.000632633
0.000722364
0.000794753
0.000869861
0.000964123
0.00108881
0.00124759
0.00143507
0.0016378
0.00183756
0.00201527
0.00215457
0.0022325
0.00225811
0.0022417
0.0021948
0.00213267
0.00205996
0.00197994
0.00190915
0.00184521
0.0017925
0.00174575
0.0017048
0.00166872
0.00163702
0.00160931
0.00158475
0.00156311
0.00154408
0.00152759
0.00151349
0.00150151
0.00149158
0.00148348
0.00147724
0.0014731
0.0014711
0.00147048
0.00147178
0.00147563
0.0014817
0.00149051
0.00150241
0.0015179
0.00153743
0.00156143
0.00159056
0.00162569
0.00166787
0.00171855
0.00177998
0.00185599
0.00195307
0.00207406
0.00222386
0.00240118
0.00259713
0.00280787
0.00301906
0.00321525
0.00335681
0.00341608
0.00341533
0.00333311
0.00311452
0.00279301
0.00239852
0.00197145
0.00155574
0.00118778
0.00088702
0.000654158
0.000475945
0.000329989
0.000185228
2.46379e-05
5.96899e-05
0.000387136
0.000630834
0.000782824
0.000887819
0.000975489
0.00106879
0.00118471
0.00133209
0.00150952
0.00170552
0.00190146
0.00207601
0.00220876
0.00227332
0.00228824
0.00225703
0.00220462
0.00212272
0.00202413
0.00193033
0.00184835
0.00177653
0.00171346
0.00165897
0.00160998
0.00156661
0.001528
0.00149388
0.00146385
0.00143757
0.00141487
0.00139553
0.00137928
0.00136585
0.00135503
0.00134661
0.00134032
0.00133613
0.00133412
0.00133346
0.00133415
0.00133711
0.00134182
0.00134856
0.0013575
0.00136875
0.00138257
0.0013992
0.00141893
0.00144209
0.00146916
0.00150059
0.001537
0.00157924
0.00162861
0.00168756
0.00175934
0.00185072
0.00197407
0.00214439
0.00235697
0.00259674
0.00285357
0.00310342
0.00330855
0.00340491
0.00341996
0.00334637
0.00310598
0.00273667
0.00228606
0.00180963
0.00136374
0.000989092
0.000700274
0.000487796
0.000324746
0.000174972
2.2926e-05
8.03635e-05
0.000494103
0.000775921
0.000948938
0.00106936
0.0011716
0.00128079
0.00141321
0.00157395
0.00175597
0.00194241
0.00211133
0.00223764
0.00229603
0.00230586
0.00227088
0.00220313
0.00210096
0.0019866
0.00188315
0.00179049
0.00171044
0.0016401
0.00157826
0.00152378
0.00147528
0.00143282
0.00139584
0.00136418
0.00133746
0.00131538
0.00129756
0.00128356
0.00127296
0.00126525
0.00126003
0.00125732
0.00125624
0.00125614
0.00125803
0.00126095
0.00126526
0.00127095
0.00127797
0.00128649
0.0012966
0.00130846
0.00132229
0.00133832
0.00135681
0.00137802
0.00140207
0.00142921
0.00145966
0.00149366
0.00153137
0.00157356
0.00162141
0.00167784
0.0017485
0.00184259
0.0019751
0.00217691
0.00243805
0.00272873
0.0030322
0.00329725
0.00342735
0.00345534
0.00337934
0.00310441
0.00267495
0.00216136
0.00163711
0.00116839
0.000796149
0.000524291
0.00033026
0.000169177
2.19522e-05
0.000105265
0.000611979
0.000933584
0.00112787
0.00126274
0.00137701
0.0014972
0.0016379
0.00179984
0.00197078
0.00213014
0.00225098
0.00230602
0.00231379
0.00227831
0.00219868
0.00208067
0.00195589
0.00184043
0.00173952
0.0016511
0.00157453
0.00150726
0.00144846
0.00139726
0.00135312
0.00131595
0.00128521
0.00126055
0.00124133
0.00122693
0.00121666
0.0012098
0.00120606
0.00120444
0.00120407
0.00120536
0.00120778
0.00121107
0.00121541
0.00122052
0.00122663
0.00123375
0.00124203
0.00125162
0.00126271
0.00127549
0.00129018
0.00130693
0.00132593
0.00134729
0.00137109
0.00139741
0.0014263
0.00145787
0.00149232
0.00152908
0.00156819
0.00161013
0.00165684
0.00171319
0.00178698
0.00189384
0.00205861
0.00231988
0.00264256
0.00299359
0.00331146
0.00346843
0.00350314
0.00341212
0.00308348
0.00258251
0.00200581
0.00144174
0.000964294
0.000605424
0.000355484
0.000172689
2.22806e-05
0.000135767
0.000736604
0.00110061
0.00131551
0.00146256
0.00158452
0.00170871
0.00184744
0.0019973
0.00214216
0.00225652
0.00230952
0.00231682
0.00228167
0.00219399
0.00206572
0.00193288
0.00180699
0.00169651
0.00160115
0.00151839
0.00144693
0.00138507
0.00133235
0.00128814
0.00125201
0.00122344
0.00120162
0.00118571
0.00117474
0.0011678
0.00116435
0.00116299
0.00116279
0.00116411
0.0011662
0.00116906
0.00117239
0.00117626
0.00118075
0.0011859
0.00119193
0.001199
0.00120733
0.00121716
0.00122871
0.00124223
0.00125796
0.00127609
0.0012968
0.00132019
0.0013463
0.00137505
0.00140626
0.0014396
0.00147471
0.00151124
0.00154914
0.00158813
0.00162729
0.00166845
0.00171495
0.00177431
0.00186201
0.00200441
0.0022429
0.00259179
0.00298393
0.00334487
0.00351791
0.00354994
0.00342512
0.0030161
0.00243835
0.00180272
0.00121646
0.000749377
0.000417048
0.000189868
2.43802e-05
0.000169947
0.000868308
0.00127343
0.00150706
0.00166284
0.0017868
0.00190661
0.00203241
0.00215752
0.00226222
0.00231278
0.00232028
0.00228558
0.00219541
0.00206165
0.00191915
0.00178428
0.00166407
0.00156107
0.00147285
0.00139725
0.00133313
0.00127942
0.00123563
0.00120096
0.00117458
0.00115541
0.00114222
0.00113378
0.00112927
0.00112727
0.00112669
0.00112688
0.00112797
0.00112945
0.00113113
0.00113306
0.00113523
0.00113782
0.00114099
0.00114495
0.00114995
0.00115621
0.00116401
0.0011736
0.00118525
0.00119923
0.00121579
0.00123518
0.00125762
0.00128329
0.00131226
0.00134452
0.00137987
0.00141789
0.00145794
0.00149915
0.00154053
0.0015813
0.00162126
0.00165914
0.00169687
0.00173631
0.00178572
0.00186067
0.00198574
0.00220599
0.00257162
0.00300249
0.00339217
0.003566
0.00358352
0.00339192
0.00288167
0.00222035
0.00154369
0.000961443
0.000528587
0.000231616
3.01331e-05
0.000206814
0.00100393
0.00144771
0.00169739
0.00185761
0.00197712
0.00208384
0.00218635
0.00227606
0.00232199
0.00232921
0.00229391
0.00220509
0.00206887
0.00191839
0.00177324
0.0016436
0.00153205
0.00143781
0.00135816
0.00129154
0.00123692
0.00119332
0.00115981
0.00113512
0.00111786
0.00110648
0.00109951
0.00109571
0.00109385
0.00109295
0.0010925
0.00109218
0.00109193
0.0010916
0.00109129
0.00109115
0.00109123
0.00109195
0.00109342
0.00109597
0.00109981
0.00110519
0.00111237
0.0011216
0.00113313
0.00114725
0.00116421
0.00118432
0.00120784
0.00123505
0.00126615
0.00130128
0.00134041
0.00138329
0.00142937
0.00147768
0.00152684
0.00157511
0.00162071
0.00166251
0.00169906
0.0017317
0.00176712
0.00181165
0.00187768
0.00199204
0.00220218
0.00257965
0.00304984
0.00344792
0.00360642
0.00358411
0.00327444
0.00265068
0.00191984
0.00123148
0.0006868
0.000301928
4.06544e-05
0.000245182
0.00113995
0.00161894
0.00188144
0.00204146
0.00215004
0.00223561
0.00230642
0.00234371
0.0023488
0.00231054
0.00222494
0.00208868
0.00193198
0.00177643
0.0016359
0.0015151
0.00141355
0.00132912
0.00125948
0.00120329
0.00115934
0.00112623
0.00110243
0.00108615
0.00107558
0.00106903
0.00106505
0.0010625
0.00106048
0.00105847
0.00105625
0.00105375
0.00105104
0.00104822
0.00104552
0.00104315
0.0010415
0.00104078
0.0010407
0.00104218
0.00104521
0.00104999
0.00105673
0.00106564
0.00107697
0.00109097
0.0011079
0.00112807
0.00115181
0.00117946
0.00121137
0.00124786
0.00128914
0.00133528
0.00138604
0.00144081
0.00149837
0.00155686
0.00161372
0.00166599
0.00171275
0.00175115
0.00177518
0.00180381
0.00184648
0.00190657
0.00201746
0.00222898
0.00262072
0.0031262
0.00350482
0.00363001
0.00352365
0.00304872
0.00231538
0.00154117
0.000882666
0.000394004
5.49179e-05
0.000283818
0.00127295
0.00178293
0.00205474
0.00220982
0.00230167
0.00235852
0.00238366
0.00238367
0.00233983
0.00225722
0.0021224
0.0019613
0.00179571
0.00164291
0.00151099
0.00140072
0.00130997
0.00123627
0.00117755
0.00113226
0.00109867
0.00107484
0.00105868
0.00104809
0.00104121
0.00103647
0.0010327
0.00102911
0.00102522
0.00102087
0.00101608
0.00101099
0.00100582
0.00100079
0.000996186
0.000992263
0.000989267
0.000987655
0.000987083
0.000987819
0.000990561
0.000995078
0.00100163
0.00101036
0.00102149
0.00103521
0.00105179
0.00107152
0.00109475
0.00112188
0.00115335
0.0011896
0.00123111
0.00127823
0.00133117
0.00138978
0.00145345
0.00152079
0.00158949
0.00165619
0.00171661
0.00176882
0.00180843
0.00182629
0.00184561
0.00188456
0.00194447
0.00205668
0.0022779
0.0026982
0.00323483
0.0035477
0.00361181
0.00337378
0.00270464
0.00187477
0.00110598
0.000501736
7.19707e-05
0.000321438
0.00139943
0.00193614
0.00221402
0.00235896
0.00242551
0.00244647
0.00243595
0.00238706
0.00230492
0.00217165
0.00200766
0.00183285
0.00166675
0.00152141
0.00140011
0.00130115
0.00122168
0.00115913
0.00111133
0.00107621
0.00105144
0.00103461
0.00102337
0.00101565
0.00100979
0.00100459
0.000999281
0.000993473
0.000987058
0.000980134
0.000972908
0.000965642
0.000958619
0.000952117
0.000946392
0.000941671
0.000938145
0.00093628
0.000935612
0.000936252
0.000939055
0.000943622
0.000950194
0.000958874
0.000969825
0.00098323
0.000999314
0.00101835
0.00104067
0.00106668
0.00109686
0.00113174
0.00117194
0.00121806
0.00127067
0.00133014
0.00139648
0.0014691
0.00154647
0.00162586
0.00170305
0.00177239
0.00183027
0.00186874
0.00188279
0.00189421
0.00192713
0.00198939
0.0021081
0.00235453
0.00282074
0.00334865
0.00357693
0.00353328
0.00305861
0.00222055
0.00135043
0.00061999
9.07626e-05
0.000357984
0.0015164
0.00207592
0.0023545
0.00248222
0.00252161
0.00251312
0.0024601
0.00236962
0.00223862
0.00207253
0.00188959
0.00170974
0.00154867
0.00141334
0.00130352
0.00121614
0.00114799
0.00109629
0.00105845
0.00103181
0.0010136
0.0010012
0.000992313
0.000985159
0.000978481
0.000971518
0.000963922
0.000955646
0.000946842
0.000937774
0.000928746
0.000920062
0.000912004
0.000904821
0.000898718
0.000893864
0.000890434
0.000888753
0.000888224
0.000889219
0.000892276
0.000897067
0.000903776
0.00091248
0.000923309
0.000936414
0.000951988
0.000970273
0.00099157
0.00101626
0.0010448
0.00107775
0.00111579
0.00115966
0.00121016
0.00126808
0.00133399
0.00140809
0.00148983
0.00157755
0.00166799
0.00175597
0.00183422
0.00189732
0.00193015
0.00194036
0.00194541
0.00197395
0.00203948
0.00217252
0.00246248
0.0029856
0.00343772
0.00357043
0.0033373
0.00256416
0.00161242
0.000745681
0.000110494
0.000391994
0.00162247
0.00219748
0.00247135
0.00257972
0.00259785
0.0025525
0.00245679
0.00232736
0.00215783
0.00196765
0.00177425
0.00159563
0.00144293
0.0013188
0.00122068
0.0011447
0.00108736
0.00104546
0.00101591
0.000995593
0.000981562
0.000971277
0.000962768
0.000954677
0.000946216
0.000937047
0.000927164
0.000916764
0.000906149
0.000895654
0.000885599
0.000876264
0.000867885
0.000860646
0.00085469
0.000850123
0.000847193
0.000845878
0.000845596
0.000847115
0.000850484
0.000855536
0.000862401
0.000871144
0.000881871
0.00089471
0.000909824
0.000927422
0.000947766
0.00097119
0.000998117
0.00102908
0.00106472
0.00110583
0.00115334
0.00120824
0.00127156
0.00134412
0.0014263
0.00151761
0.00161617
0.00171816
0.0018173
0.00190472
0.00196766
0.00199265
0.00199746
0.0019981
0.00202318
0.00209515
0.00225472
0.00261561
0.00318914
0.00347412
0.00346649
0.00288458
0.00188717
0.000875165
0.000130934
0.00042212
0.0017147
0.00229907
0.00256537
0.00265489
0.00265215
0.00257019
0.00243834
0.00226659
0.002069
0.00186265
0.00166545
0.00149224
0.00134971
0.00123714
0.00115046
0.00108527
0.00103766
0.00100399
0.000980738
0.000964583
0.000952667
0.000942771
0.000933378
0.000923611
0.00091311
0.00090188
0.000890148
0.000878246
0.00086653
0.000855329
0.000844924
0.000835534
0.000827324
0.000820414
0.000814884
0.000810791
0.000808451
0.000807544
0.000807534
0.000809525
0.000813159
0.000818412
0.000825378
0.000834121
0.000844732
0.000857324
0.000872038
0.000889053
0.000908593
0.000930948
0.000956483
0.000985667
0.0010191
0.00105752
0.00110185
0.0011532
0.00121281
0.00128193
0.00136169
0.00145262
0.00155422
0.00166421
0.00177782
0.00188729
0.00198185
0.00204108
0.00205579
0.002055
0.00204894
0.00207453
0.00215987
0.00236547
0.00282954
0.0033354
0.00349123
0.0031594
0.00216962
0.0010061
0.000152172
0.000447498
0.00179152
0.00237949
0.00263635
0.00271167
0.00268341
0.0025666
0.00239955
0.00219612
0.00197724
0.00176133
0.00156524
0.00140004
0.00126845
0.00116726
0.00109137
0.00103595
0.000996638
0.000969397
0.000950476
0.000936621
0.000925275
0.000914677
0.000903796
0.000892196
0.000879863
0.000867033
0.000854057
0.00084131
0.000829131
0.000817796
0.000807515
0.000798437
0.000790658
0.00078424
0.00077922
0.000775622
0.00077374
0.000773073
0.000773455
0.000775705
0.000779493
0.000784832
0.000791804
0.000800474
0.000810927
0.000823268
0.000837623
0.000854148
0.000873039
0.000894541
0.000918964
0.000946712
0.000978301
0.0010144
0.00105586
0.00110376
0.0011594
0.00122428
0.00129998
0.00138789
0.00148874
0.00160189
0.00172439
0.00184999
0.0019683
0.0020645
0.00211253
0.00212014
0.00210668
0.00209418
0.00213038
0.00223984
0.00253368
0.00308939
0.00338949
0.00331135
0.00245148
0.00114511
0.000174712
0.00046776
0.00185288
0.00243985
0.00268658
0.00274908
0.00269559
0.00255099
0.00234913
0.00212034
0.00188627
0.00166608
0.00147448
0.00131872
0.00119815
0.00110777
0.00104175
0.000994793
0.000962175
0.000939599
0.000923324
0.000910362
0.000898597
0.000886758
0.00087427
0.000861051
0.000847323
0.000833448
0.000819816
0.000806776
0.000794606
0.000783508
0.000773616
0.00076501
0.000757733
0.000751804
0.000747231
0.00074403
0.000742441
0.000741928
0.000742556
0.000744888
0.000748691
0.000753987
0.000760855
0.000769365
0.000779602
0.000791667
0.00080568
0.000821782
0.000840144
0.000860978
0.000884549
0.000911197
0.000941359
0.00097561
0.0010147
0.00105961
0.00111159
0.00117217
0.00124318
0.00132652
0.00142391
0.0015362
0.00166252
0.00179907
0.00193797
0.00206646
0.00215298
0.00218278
0.00218252
0.00214905
0.00213384
0.00218825
0.0023545
0.00279019
0.00325945
0.00336278
0.0027364
0.00131291
0.000202536
0.000482757
0.00189936
0.00248145
0.00271755
0.00276823
0.00269122
0.00251917
0.00229123
0.00204269
0.00179865
0.00157817
0.00139327
0.00124753
0.00113764
0.00105725
0.000999932
0.000960025
0.000932523
0.000913073
0.000898137
0.00088513
0.000872426
0.000859219
0.000845304
0.000830854
0.000816225
0.000801821
0.000788003
0.000775058
0.000763186
0.000752512
0.000743101
0.000734981
0.000728157
0.00072262
0.000718364
0.000715404
0.000713946
0.000713492
0.000714173
0.000716436
0.000720119
0.000725249
0.000731907
0.00074017
0.000750127
0.00076188
0.000775546
0.000791257
0.00080917
0.000829473
0.000852393
0.000878218
0.000907317
0.000940174
0.000977431
0.00101994
0.00106883
0.00112557
0.00119199
0.00127026
0.00136269
0.00147126
0.00159676
0.00173757
0.00188811
0.00203741
0.00216831
0.00224012
0.00225399
0.0022322
0.00218748
0.00217761
0.0022658
0.00254399
0.00308848
0.00333643
0.00299432
0.00152504
0.00023967
0.000492748
0.0019319
0.00250529
0.00272967
0.00276892
0.00267575
0.00247828
0.00222905
0.00196577
0.00171603
0.00149815
0.0013212
0.00118553
0.00108566
0.00101425
0.000964408
0.000930153
0.000906362
0.000888808
0.000874297
0.000860711
0.000846897
0.000832445
0.000817427
0.000802172
0.000787088
0.000772555
0.000758875
0.000746254
0.000734813
0.00072461
0.000715659
0.000707952
0.000701468
0.000696191
0.000692107
0.000689217
0.000687741
0.000687258
0.00068782
0.000689886
0.000693332
0.000698191
0.000704548
0.000712486
0.000722102
0.0007335
0.000746798
0.000762126
0.000779631
0.000799486
0.000821893
0.000847099
0.000875418
0.000907256
0.000943152
0.000983832
0.00103028
0.00108382
0.00114619
0.00121959
0.00130665
0.00141013
0.00153226
0.00167361
0.00183144
0.00199782
0.00215808
0.00227496
0.00231903
0.00231868
0.00225845
0.00221431
0.00223377
0.00238718
0.00284621
0.00321348
0.00315584
0.00177957
0.000286717
0.000497788
0.00195076
0.00251227
0.00272731
0.00275976
0.0026466
0.00243079
0.00216507
0.00189144
0.00163937
0.00142605
0.00125765
0.0011317
0.00104102
0.000977515
0.0009339
0.00090402
0.000882779
0.000866214
0.000851555
0.000837156
0.000822284
0.000806837
0.000791073
0.000775393
0.000760197
0.000745809
0.00073245
0.00072025
0.000709261
0.00069949
0.000690915
0.000683507
0.000677234
0.000672077
0.000668025
0.000665081
0.000663449
0.000662857
0.000663172
0.000664939
0.000668057
0.000672562
0.000678544
0.000686094
0.000695313
0.000706312
0.000719212
0.000734144
0.000751253
0.000770702
0.000792676
0.000817397
0.000845135
0.000876233
0.000911145
0.000950482
0.000995081
0.00104609
0.00110509
0.00117418
0.00125602
0.00135378
0.00147063
0.00160889
0.00176828
0.00194379
0.00212341
0.00228662
0.00237838
0.0023968
0.00236095
0.00226782
0.0022327
0.00230973
0.00263519
0.00311908
0.0032189
0.00206811
0.00034141
0.000497567
0.00195848
0.0025084
0.00271526
0.00273782
0.00260936
0.00237911
0.00210123
0.00182095
0.00156912
0.0013616
0.00120185
0.00108503
0.00100262
0.000945926
0.000907387
0.000880786
0.000861193
0.000844999
0.000829884
0.000814639
0.000798877
0.00078272
0.00076653
0.00075072
0.000735645
0.000721556
0.000708595
0.000696822
0.000686239
0.000676816
0.00066851
0.000661281
0.000655097
0.000649941
0.000645809
0.00064271
0.000640808
0.000640038
0.000640037
0.000641427
0.00064415
0.000648242
0.000653794
0.000660904
0.00066968
0.000680238
0.000692706
0.000707217
0.000723918
0.00074297
0.000764549
0.000788859
0.000816141
0.000846692
0.000880896
0.000919267
0.000962511
0.00101161
0.00106795
0.00113344
0.00121064
0.00130283
0.0014138
0.00154719
0.00170505
0.00188556
0.00208022
0.00227164
0.00241401
0.00246584
0.00245884
0.00236418
0.00228039
0.00227927
0.00245995
0.00297751
0.00322343
0.00237974
0.00040261
0.000494888
0.0019572
0.00249504
0.00268987
0.00270449
0.00256569
0.00232508
0.00203895
0.00175512
0.00150541
0.00130435
0.00115302
0.00104459
0.000969507
0.000918577
0.000884089
0.000859876
0.000841268
0.000825058
0.000809364
0.000793356
0.000776914
0.000760308
0.000743944
0.000728208
0.000713389
0.000699661
0.000687099
0.000675708
0.000665451
0.000656278
0.000648134
0.000640979
0.000634784
0.000629538
0.000625247
0.000621935
0.000619674
0.000618586
0.000618337
0.000619277
0.00062156
0.000625198
0.000630282
0.000636915
0.000645211
0.000655292
0.000667292
0.00068135
0.000697618
0.000716258
0.000737445
0.000761373
0.000788266
0.000818389
0.000852072
0.000889753
0.000932024
0.00097972
0.00103403
0.00109663
0.00116989
0.001257
0.00136198
0.0014893
0.00164282
0.00182353
0.00202638
0.00223659
0.00242716
0.00252832
0.0025454
0.00247841
0.0023331
0.00227822
0.00237345
0.00278095
0.00311992
0.00266317
0.000460139
0.000488925
0.00195033
0.00246937
0.00265478
0.00266338
0.00251741
0.0022702
0.00197927
0.00169439
0.00144811
0.00125377
0.0011104
0.00100957
0.000940862
0.000894744
0.000863435
0.000840913
0.000822828
0.000806387
0.000790106
0.000773468
0.000756551
0.000739709
0.000723349
0.000707806
0.0006933
0.000679935
0.000667729
0.000656648
0.00064663
0.000637612
0.000629539
0.000622372
0.000616089
0.000610688
0.000606181
0.000602597
0.000599976
0.000598502
0.000597994
0.00059847
0.000600286
0.000603448
0.000608042
0.000614174
0.000621963
0.000631537
0.000643036
0.000656607
0.000672408
0.000690606
0.000711381
0.000734924
0.00076145
0.000791204
0.000824482
0.000861659
0.000903239
0.000949923
0.00100272
0.0010631
0.00113316
0.00121589
0.0013153
0.00143631
0.0015841
0.00176228
0.0019697
0.00219636
0.00241972
0.00257475
0.00262223
0.00259158
0.00243836
0.00232097
0.00233157
0.00264197
0.00302321
0.0028652
0.000501361
0.000479779
0.00193542
0.00243606
0.00261257
0.00261633
0.0024661
0.00221562
0.00192287
0.00163897
0.001397
0.00120932
0.00107332
0.000979242
0.000916015
0.000873865
0.000845016
0.000823657
0.000805792
0.00078902
0.000772207
0.000755084
0.000737865
0.000720941
0.000704693
0.000689399
0.00067521
0.000662172
0.000650259
0.000639409
0.000629547
0.000620606
0.000612532
0.000605291
0.00059887
0.000593272
0.000588516
0.000584635
0.00058167
0.000579773
0.000578982
0.000579017
0.000580361
0.000583038
0.000587132
0.00059275
0.000600014
0.000609059
0.000620029
0.000633079
0.000648376
0.000666095
0.000686421
0.000709553
0.000735702
0.000765106
0.000798036
0.000834824
0.000875905
0.000921872
0.000973579
0.00103228
0.00109982
0.00117891
0.00127336
0.00138821
0.00152942
0.00170246
0.00190938
0.00214422
0.00238819
0.00259684
0.00268903
0.00269191
0.00256059
0.00236666
0.00231735
0.00249955
0.0029291
0.00295703
0.00051853
0.000467935
0.00191449
0.00239662
0.00256489
0.00256493
0.00241305
0.00216223
0.00187021
0.00158887
0.00135173
0.00117046
0.00104112
0.000952982
0.000894421
0.000855507
0.000828539
0.00080796
0.000790125
0.000772996
0.000755732
0.000738255
0.000720863
0.000703957
0.000687877
0.000672841
0.00065894
0.000646174
0.000634485
0.000623794
0.000614019
0.000605093
0.000596967
0.000589614
0.000583025
0.000577212
0.000572199
0.000568025
0.000564741
0.000562415
0.000561244
0.00056096
0.000561822
0.000564018
0.000567613
0.000572714
0.000579445
0.000587945
0.000598364
0.000610864
0.000625621
0.000642819
0.000662655
0.000685334
0.000711075
0.000740114
0.000772711
0.000809171
0.000849876
0.000895333
0.000946266
0.00100374
0.00106936
0.00114551
0.00123574
0.00134497
0.00147956
0.00164644
0.00185063
0.00209056
0.00235191
0.00260227
0.00275069
0.00278199
0.00269157
0.00245406
0.00232951
0.0024065
0.00284047
0.00298287
0.000521342
0.000453963
0.00188943
0.00235244
0.00251349
0.0025105
0.0023593
0.00211068
0.00182153
0.00154401
0.00131196
0.00113666
0.00101327
0.000930271
0.000875635
0.000839337
0.000813796
0.000793722
0.000775809
0.000758338
0.000740707
0.000722979
0.000705505
0.000688672
0.000672775
0.000657974
0.000644316
0.000631762
0.000620233
0.00060964
0.000599899
0.000590945
0.000582736
0.000575249
0.000568483
0.000562453
0.000557189
0.000552731
0.00054913
0.000546446
0.000544862
0.00054429
0.000544699
0.000546428
0.000549536
0.000554126
0.000560325
0.000568273
0.000578125
0.000590052
0.000604237
0.000620875
0.000640173
0.000662352
0.00068764
0.000716278
0.000748527
0.000784677
0.000825074
0.00087016
0.000920551
0.00097715
0.00104133
0.00111518
0.0012019
0.00130614
0.00143433
0.00159425
0.00179319
0.0020337
0.00230697
0.00258646
0.00279425
0.00286027
0.00280742
0.00257663
0.00237326
0.00236373
0.00270798
0.00296558
0.000513823
0.000438502
0.0018618
0.00230508
0.00245944
0.00245432
0.00230567
0.00206141
0.00177693
0.00150416
0.00127729
0.00110747
0.00098929
0.000910671
0.000859299
0.000825097
0.000800628
0.000780869
0.000762823
0.000745043
0.000727121
0.00070922
0.000691718
0.000674978
0.00065925
0.00064465
0.000631181
0.000618781
0.000607358
0.000596815
0.00058707
0.000578062
0.000569753
0.000562127
0.000555188
0.000548953
0.000543454
0.000538734
0.000534844
0.00053184
0.000529859
0.000529001
0.00052901
0.000530297
0.000532936
0.00053703
0.000542703
0.0005501
0.000559378
0.000570715
0.000584301
0.000600343
0.000619062
0.00064069
0.000665472
0.000693662
0.000725528
0.000761355
0.00080147
0.000846269
0.000896282
0.000952273
0.00101541
0.0010875
0.00117139
0.00127138
0.00139371
0.00154662
0.0017391
0.00197716
0.0022568
0.00255567
0.00281702
0.00293103
0.00292055
0.00270977
0.00242308
0.00235044
0.00260209
0.00291593
0.000500628
0.000421987
0.00183233
0.0022557
0.00240378
0.0023974
0.00225285
0.00201471
0.00173639
0.0014691
0.00124736
0.00108247
0.000968755
0.000893814
0.00084512
0.000812581
0.000788911
0.000769338
0.000751138
0.00073309
0.000714937
0.000696915
0.00067941
0.00066276
0.000647174
0.000632727
0.000619397
0.000607101
0.000595738
0.00058521
0.000575437
0.000566361
0.00055795
0.000550192
0.000543093
0.000536673
0.000530966
0.000526014
0.000521868
0.00051859
0.000516252
0.000515047