/*--------------------------------*- C++ -*----------------------------------*\
  =========                 |
  \\      /  F ield         | OpenFOAM: The Open Source CFD Toolbox
   \\    /   O peration     | Website:  https://openfoam.org
    \\  /    A nd           | Version:  13
     \\/     M anipulation  |
\*---------------------------------------------------------------------------*/
FoamFile
{
    format      ascii;
    class       surfaceScalarField;
    location    "4.5";
    object      phi;
}
// * * * * * * * * * * * * * * * * * * * * * * * * * * * * * * * * * * * * * //

dimensions      [0 3 -1 0 0 0 0];

internalField   nonuniform List<scalar> 
12640
(
1.73891e-09
-1.73947e-09
1.4133e-08
-1.2394e-08
3.55999e-08
-2.14669e-08
6.03891e-08
-2.47892e-08
8.29491e-08
-2.25599e-08
1.00082e-07
-1.71333e-08
1.10562e-07
-1.04795e-08
1.15078e-07
-4.51618e-09
1.15566e-07
-4.87696e-10
1.14073e-07
1.49246e-09
1.12321e-07
1.75197e-09
1.11438e-07
8.83115e-10
1.11811e-07
-3.72567e-10
1.13239e-07
-1.42839e-09
1.15048e-07
-1.80858e-09
1.16462e-07
-1.41408e-09
1.16709e-07
-2.4765e-10
1.15354e-07
1.35575e-09
1.11653e-07
3.70071e-09
1.04768e-07
6.88531e-09
9.40758e-08
1.06919e-08
7.9081e-08
1.49948e-08
5.93373e-08
1.97437e-08
3.46769e-08
2.46603e-08
5.11382e-09
2.95631e-08
-2.94825e-08
3.45963e-08
-7.00078e-08
4.05253e-08
-1.18255e-07
4.82472e-08
-1.76612e-07
5.83571e-08
-2.47323e-07
7.07105e-08
-3.30517e-07
8.31945e-08
-4.2389e-07
9.33725e-08
-5.24516e-07
1.00626e-07
-6.29475e-07
1.0496e-07
-7.36051e-07
1.06576e-07
-8.41806e-07
1.05755e-07
-9.44639e-07
1.02832e-07
-1.0428e-06
9.81633e-08
-1.13485e-06
9.20505e-08
-1.21964e-06
8.47876e-08
-1.29623e-06
7.65894e-08
-1.36383e-06
6.76048e-08
-1.42178e-06
5.79509e-08
-1.46946e-06
4.76713e-08
-1.50622e-06
3.67663e-08
-1.5314e-06
2.51781e-08
-1.54499e-06
1.35851e-08
-1.54678e-06
1.78986e-09
-1.5349e-06
-1.18758e-08
-1.5101e-06
-2.48009e-08
-1.47112e-06
-3.8984e-08
-1.41809e-06
-5.30231e-08
-1.3508e-06
-6.72933e-08
-1.26955e-06
-8.12464e-08
-1.17482e-06
-9.47323e-08
-1.06734e-06
-1.0748e-07
-9.48101e-07
-1.19239e-07
-8.18567e-07
-1.29534e-07
-6.80661e-07
-1.37906e-07
-5.36927e-07
-1.43734e-07
-3.90464e-07
-1.46462e-07
-2.44929e-07
-1.45536e-07
-1.04305e-07
-1.40623e-07
2.73213e-08
-1.31627e-07
1.46198e-07
-1.18877e-07
2.47662e-07
-1.01464e-07
3.28203e-07
-8.05408e-08
3.84845e-07
-5.66429e-08
4.15739e-07
-3.08935e-08
4.19642e-07
-3.90352e-09
3.98529e-07
2.11133e-08
3.54545e-07
4.39836e-08
2.92688e-07
6.18577e-08
2.21547e-07
7.11412e-08
1.5216e-07
6.93864e-08
9.21024e-08
6.00578e-08
4.60137e-08
4.60887e-08
1.54338e-08
3.05799e-08
1.01184e-09
1.44219e-08
1.01184e-09
9.75729e-09
-1.14968e-08
3.94563e-08
-4.20931e-08
8.07058e-08
-6.27165e-08
1.23204e-07
-6.72876e-08
1.59997e-07
-5.93524e-08
1.87505e-07
-4.46411e-08
2.05011e-07
-2.7986e-08
2.13365e-07
-1.28702e-08
2.14194e-07
-1.31634e-09
2.09552e-07
6.13393e-09
2.01451e-07
9.85289e-09
1.9124e-07
1.10939e-08
1.79384e-07
1.14835e-08
1.65428e-07
1.25279e-08
1.48464e-07
1.51554e-08
1.2745e-07
1.95998e-08
1.0158e-07
2.56222e-08
6.97587e-08
3.31773e-08
3.08775e-08
4.2582e-08
-1.63896e-08
5.41524e-08
-7.37767e-08
6.8079e-08
-1.43025e-07
8.42434e-08
-2.25343e-07
1.02061e-07
-3.21513e-07
1.20831e-07
-4.3206e-07
1.4011e-07
-5.56934e-07
1.5947e-07
-6.94532e-07
1.78123e-07
-8.41438e-07
1.95153e-07
-9.93226e-07
2.10145e-07
-1.14478e-06
2.22263e-07
-1.29229e-06
2.30707e-07
-1.43409e-06
2.35172e-07
-1.5689e-06
2.35434e-07
-1.6954e-06
2.31464e-07
-1.81252e-06
2.23693e-07
-1.91949e-06
2.12724e-07
-2.01576e-06
1.99106e-07
-2.10098e-06
1.83379e-07
-2.17489e-06
1.65959e-07
-2.23731e-06
1.47209e-07
-2.28811e-06
1.27395e-07
-2.32717e-06
1.06664e-07
-2.35436e-06
8.51334e-08
-2.36953e-06
6.28476e-08
-2.37261e-06
3.98459e-08
-2.3635e-06
1.60704e-08
-2.34158e-06
-8.34328e-09
-2.30676e-06
-3.30295e-08
-2.25939e-06
-5.92395e-08
-2.19843e-06
-8.57659e-08
-2.12437e-06
-1.13042e-07
-2.03676e-06
-1.4063e-07
-1.93568e-06
-1.68376e-07
-1.82104e-06
-1.95891e-07
-1.69304e-06
-2.22733e-07
-1.55225e-06
-2.48264e-07
-1.39984e-06
-2.71652e-07
-1.23723e-06
-2.92145e-07
-1.06644e-06
-3.08689e-07
-8.89918e-07
-3.20261e-07
-7.10482e-07
-3.25899e-07
-5.31338e-07
-3.2468e-07
-3.56095e-07
-3.15866e-07
-1.88475e-07
-2.99246e-07
-3.26132e-08
-2.74739e-07
1.08453e-07
-2.4253e-07
2.30998e-07
-2.03086e-07
3.31904e-07
-1.57548e-07
4.08532e-07
-1.07521e-07
4.59383e-07
-5.47544e-08
4.83696e-07
-3.20043e-09
4.80082e-07
4.75976e-08
4.50946e-07
9.09943e-08
3.98041e-07
1.24046e-07
3.23674e-07
1.43753e-07
2.36896e-07
1.46836e-07
1.49604e-07
1.3338e-07
7.42209e-08
1.05963e-07
2.17587e-08
6.68841e-08
2.27706e-08
1.80038e-08
-2.95006e-08
5.98699e-08
-8.39591e-08
1.07681e-07
-1.10528e-07
1.50466e-07
-1.10072e-07
1.83815e-07
-9.27019e-08
2.06635e-07
-6.74604e-08
2.19422e-07
-4.07735e-08
2.23042e-07
-1.64902e-08
2.18545e-07
3.1811e-09
2.0715e-07
1.75285e-08
1.90166e-07
2.68374e-08
1.68158e-07
3.31017e-08
1.40981e-07
3.86599e-08
1.07941e-07
4.55684e-08
6.79789e-08
5.51174e-08
1.98097e-08
6.7769e-08
-3.8136e-08
8.35679e-08
-1.07534e-07
1.02575e-07
-1.89794e-07
1.24843e-07
-2.86109e-07
1.50467e-07
-3.9707e-07
1.7904e-07
-5.22464e-07
2.09637e-07
-6.61424e-07
2.41022e-07
-8.12072e-07
2.71478e-07
-9.71538e-07
2.99576e-07
-1.1361e-06
3.24037e-07
-1.30184e-06
3.43859e-07
-1.46508e-06
3.58397e-07
-1.62241e-06
3.67466e-07
-1.7711e-06
3.70959e-07
-1.90941e-06
3.69014e-07
-2.03616e-06
3.61927e-07
-2.15098e-06
3.50248e-07
-2.25408e-06
3.34568e-07
-2.34576e-06
3.15371e-07
-2.42632e-06
2.93283e-07
-2.49606e-06
2.6885e-07
-2.55526e-06
2.42579e-07
-2.60412e-06
2.1482e-07
-2.64279e-06
1.85879e-07
-2.67138e-06
1.55982e-07
-2.68992e-06
1.25202e-07
-2.69837e-06
9.35862e-08
-2.69664e-06
6.11205e-08
-2.68456e-06
2.77625e-08
-2.66198e-06
-6.51435e-09
-2.62862e-06
-4.16973e-08
-2.58375e-06
-7.79001e-08
-2.52766e-06
-1.15332e-07
-2.45969e-06
-1.5373e-07
-2.37962e-06
-1.9312e-07
-2.28714e-06
-2.3311e-07
-2.18212e-06
-2.7339e-07
-2.06452e-06
-3.13493e-07
-1.93448e-06
-3.52776e-07
-1.79241e-06
-3.90325e-07
-1.63907e-06
-4.25e-07
-1.47559e-06
-4.5562e-07
-1.30349e-06
-4.80793e-07
-1.12487e-06
-4.98885e-07
-9.42324e-07
-5.08439e-07
-7.58895e-07
-5.08109e-07
-5.78073e-07
-4.96688e-07
-4.03551e-07
-4.73768e-07
-2.38952e-07
-4.39337e-07
-8.75265e-08
-3.93955e-07
4.76832e-08
-3.38296e-07
1.64007e-07
-2.73873e-07
2.59276e-07
-2.0279e-07
3.32457e-07
-1.27935e-07
3.81851e-07
-5.25945e-08
4.08349e-07
2.10993e-08
4.09967e-07
8.93771e-08
3.87319e-07
1.46694e-07
3.4186e-07
1.89212e-07
2.76709e-07
2.11987e-07
1.97558e-07
2.1253e-07
1.14386e-07
1.89135e-07
4.07372e-08
1.40533e-07
6.35078e-08
2.47769e-08
-5.42775e-08
7.26754e-08
-1.31858e-07
1.18837e-07
-1.56689e-07
1.54849e-07
-1.46084e-07
1.79165e-07
-1.17018e-07
1.92701e-07
-8.09961e-08
1.96491e-07
-4.45636e-08
1.91514e-07
-1.1513e-08
1.7845e-07
1.62455e-08
1.57791e-07
3.81875e-08
1.29305e-07
5.53225e-08
9.25674e-08
6.98398e-08
4.68891e-08
8.43381e-08
-8.59475e-09
1.01052e-07
-7.48898e-08
1.21413e-07
-1.53224e-07
1.46104e-07
-2.44984e-07
1.75328e-07
-3.51379e-07
2.08969e-07
-4.73027e-07
2.46491e-07
-6.09689e-07
2.87129e-07
-7.60005e-07
3.29356e-07
-9.21215e-07
3.70847e-07
-1.09e-06
4.09804e-07
-1.26246e-06
4.43941e-07
-1.43476e-06
4.71874e-07
-1.60321e-06
4.92487e-07
-1.76437e-06
5.05025e-07
-1.91551e-06
5.09538e-07
-2.05494e-06
5.06891e-07
-2.18197e-06
4.97988e-07
-2.29659e-06
4.83637e-07
-2.39925e-06
4.64588e-07
-2.49049e-06
4.41491e-07
-2.57096e-06
4.15034e-07
-2.64133e-06
3.85738e-07
-2.70219e-06
3.54144e-07
-2.75402e-06
3.20685e-07
-2.79718e-06
2.85734e-07
-2.8319e-06
2.49546e-07
-2.85836e-06
2.12338e-07
-2.87661e-06
1.74234e-07
-2.88666e-06
1.35243e-07
-2.8884e-06
9.53292e-08
-2.88166e-06
5.43812e-08
-2.86615e-06
1.22522e-08
-2.84164e-06
-3.10211e-08
-2.80773e-06
-7.56138e-08
-2.76397e-06
-1.2166e-07
-2.7101e-06
-1.69199e-07
-2.64564e-06
-2.18193e-07
-2.5701e-06
-2.68659e-07
-2.48304e-06
-3.20174e-07
-2.38416e-06
-3.72269e-07
-2.27324e-06
-4.24413e-07
-2.15014e-06
-4.75876e-07
-2.01488e-06
-5.25579e-07
-1.86785e-06
-5.72038e-07
-1.70988e-06
-6.13585e-07
-1.54207e-06
-6.48603e-07
-1.36607e-06
-6.7489e-07
-1.18407e-06
-6.90434e-07
-9.98793e-07
-6.93387e-07
-8.13532e-07
-6.81949e-07
-6.32243e-07
-6.55057e-07
-4.59071e-07
-6.12509e-07
-2.97625e-07
-5.55401e-07
-1.50992e-07
-4.8493e-07
-2.19879e-08
-4.02876e-07
8.74322e-08
-3.1221e-07
1.75776e-07
-2.16279e-07
2.42093e-07
-1.18911e-07
2.86854e-07
-2.36621e-08
3.10486e-07
6.57455e-08
3.12332e-07
1.44848e-07
2.92417e-07
2.09127e-07
2.51168e-07
2.53235e-07
1.92118e-07
2.71581e-07
1.20632e-07
2.60621e-07
4.69037e-08
2.14261e-07
1.10411e-07
2.99701e-08
-8.42476e-08
7.7725e-08
-1.79613e-07
1.16322e-07
-1.95286e-07
1.41963e-07
-1.71726e-07
1.55044e-07
-1.30099e-07
1.57485e-07
-8.34373e-08
1.505e-07
-3.75789e-08
1.34767e-07
4.21998e-09
1.10375e-07
4.06379e-08
7.6966e-08
7.15965e-08
3.36781e-08
9.86105e-08
-2.05453e-08
1.24063e-07
-8.67671e-08
1.5056e-07
-1.65988e-07
1.80274e-07
-2.59161e-07
2.14585e-07
-3.67124e-07
2.54066e-07
-4.90396e-07
2.986e-07
-6.28879e-07
3.47453e-07
-7.81435e-07
3.99046e-07
-9.45502e-07
4.51196e-07
-1.11773e-06
5.01585e-07
-1.29392e-06
5.47036e-07
-1.47007e-06
5.85951e-07
-1.64219e-06
6.1607e-07
-1.80616e-06
6.35839e-07
-1.95902e-06
6.45343e-07
-2.09946e-06
6.45466e-07
-2.22732e-06
6.37397e-07
-2.34288e-06
6.22457e-07
-2.44678e-06
6.01882e-07
-2.53975e-06
5.7661e-07
-2.6226e-06
5.47441e-07
-2.69607e-06
5.14959e-07
-2.7608e-06
4.79763e-07
-2.81741e-06
4.42347e-07
-2.86639e-06
4.03123e-07
-2.90813e-06
3.62427e-07
-2.94294e-06
3.20541e-07
-2.97095e-06
2.77564e-07
-2.99226e-06
2.33642e-07
-3.0069e-06
1.88876e-07
-3.01483e-06
1.43172e-07
-3.01594e-06
9.64451e-08
-3.0101e-06
4.85359e-08
-2.99687e-06
-9.73682e-10
-2.97616e-06
-5.17307e-08
-2.94732e-06
-1.04455e-07
-2.90991e-06
-1.59074e-07
-2.8635e-06
-2.15612e-07
-2.80768e-06
-2.74013e-07
-2.74189e-06
-3.34448e-07
-2.66536e-06
-3.96695e-07
-2.57755e-06
-4.60079e-07
-2.47805e-06
-5.23919e-07
-2.36642e-06
-5.87506e-07
-2.24224e-06
-6.49753e-07
-2.10543e-06
-7.08852e-07
-1.95654e-06
-7.62478e-07
-1.79616e-06
-8.08982e-07
-1.62541e-06
-8.45642e-07
-1.44614e-06
-8.697e-07
-1.26064e-06
-8.78884e-07
-1.07186e-06
-8.70729e-07
-8.83288e-07
-8.43632e-07
-6.99418e-07
-7.96379e-07
-5.2514e-07
-7.29679e-07
-3.6417e-07
-6.45901e-07
-2.19674e-07
-5.47372e-07
-9.43337e-08
-4.3755e-07
1.00776e-08
-3.2069e-07
9.26794e-08
-2.01513e-07
1.53534e-07
-8.45164e-08
1.93463e-07
2.58162e-08
2.13088e-07
1.25223e-07
2.12958e-07
2.09258e-07
1.93504e-07
2.72689e-07
1.55661e-07
3.09425e-07
1.02307e-07
3.13975e-07
4.09654e-08
2.75603e-07
1.51377e-07
3.30402e-08
-1.17288e-07
7.48232e-08
-2.21396e-07
1.01991e-07
-2.22454e-07
1.14833e-07
-1.84568e-07
1.15628e-07
-1.30893e-07
1.0618e-07
-7.39901e-08
8.73861e-08
-1.87847e-08
5.93405e-08
3.22656e-08
2.16512e-08
7.83272e-08
-2.67143e-08
1.19962e-07
-8.70058e-08
1.58902e-07
-1.60493e-07
1.97551e-07
-2.48281e-07
2.38347e-07
-3.51193e-07
2.83187e-07
-4.69694e-07
3.33085e-07
-6.03687e-07
3.8806e-07
-7.52362e-07
4.47275e-07
-9.13835e-07
5.08926e-07
-1.08508e-06
5.7029e-07
-1.26193e-06
6.28045e-07
-1.44012e-06
6.79771e-07
-1.61524e-06
7.22164e-07
-1.78223e-06
7.52934e-07
-1.93767e-06
7.7151e-07
-2.08027e-06
7.78437e-07
-2.20997e-06
7.75051e-07
-2.32741e-06
7.62902e-07
-2.43349e-06
7.43479e-07
-2.52912e-06
7.1808e-07
-2.61508e-06
6.87848e-07
-2.69213e-06
6.53655e-07
-2.76092e-06
6.16239e-07
-2.82213e-06
5.76168e-07
-2.87631e-06
5.33943e-07
-2.92393e-06
4.89966e-07
-2.96533e-06
4.44515e-07
-3.00081e-06
3.97906e-07
-3.03064e-06
3.50377e-07
-3.05487e-06
3.0179e-07
-3.0735e-06
2.52275e-07
-3.08668e-06
2.02051e-07
-3.09434e-06
1.50836e-07
-3.09642e-06
9.85297e-08
-3.09281e-06
4.49187e-08
-3.08342e-06
-1.0363e-08
-3.06801e-06
-6.71339e-08
-3.04633e-06
-1.26136e-07
-3.01791e-06
-1.87492e-07
-2.9821e-06
-2.51426e-07
-2.93815e-06
-3.17962e-07
-2.88547e-06
-3.87127e-07
-2.82308e-06
-4.59084e-07
-2.75002e-06
-5.33144e-07
-2.66545e-06
-6.08486e-07
-2.5688e-06
-6.84163e-07
-2.45957e-06
-7.58973e-07
-2.33703e-06
-8.31395e-07
-2.20104e-06
-8.98473e-07
-2.05164e-06
-9.58376e-07
-1.88937e-06
-1.00792e-06
-1.71572e-06
-1.04335e-06
-1.5323e-06
-1.0623e-06
-1.34197e-06
-1.06106e-06
-1.14789e-06
-1.03771e-06
-9.54082e-07
-9.90183e-07
-7.65709e-07
-9.18052e-07
-5.88148e-07
-8.23462e-07
-4.25545e-07
-7.09975e-07
-2.81341e-07
-5.81755e-07
-1.58135e-07
-4.43896e-07
-5.74987e-08
-3.0215e-07
2.0341e-08
-1.62356e-07
7.62045e-08
-3.00474e-08
1.11538e-07
8.98891e-08
1.27781e-07
1.93015e-07
1.25837e-07
2.74633e-07
1.06426e-07
3.28835e-07
7.19249e-08
3.48476e-07
2.85605e-08
3.18967e-07
1.79937e-07
3.31271e-08
-1.50415e-07
6.38201e-08
-2.52088e-07
7.74587e-08
-2.36093e-07
7.65594e-08
-1.83668e-07
6.44679e-08
-1.18802e-07
4.251e-08
-5.20322e-08
1.09855e-08
1.27398e-08
-3.05323e-08
7.37834e-08
-8.29824e-08
1.30777e-07
-1.47643e-07
1.84623e-07
-2.25873e-07
2.37132e-07
-3.1886e-07
2.90537e-07
-4.27414e-07
3.46901e-07
-5.51812e-07
4.07585e-07
-6.91607e-07
4.7288e-07
-8.45546e-07
5.41999e-07
-1.01123e-06
6.12954e-07
-1.18504e-06
6.82742e-07
-1.36262e-06
7.47868e-07
-1.5393e-06
8.04725e-07
-1.70944e-06
8.49911e-07
-1.8688e-06
8.81531e-07
-2.01526e-06
8.99387e-07
-2.14855e-06
9.04807e-07
-2.26931e-06
8.99198e-07
-2.3785e-06
8.84233e-07
-2.47712e-06
8.61527e-07
-2.56615e-06
8.32504e-07
-2.64642e-06
7.98353e-07
-2.71864e-06
7.60069e-07
-2.78344e-06
7.18453e-07
-2.84136e-06
6.7416e-07
-2.8929e-06
6.27712e-07
-2.9385e-06
5.79538e-07
-2.97852e-06
5.29988e-07
-3.0131e-06
4.79098e-07
-3.04252e-06
4.27321e-07
-3.06701e-06
3.74867e-07
-3.08703e-06
3.21817e-07
-3.10278e-06
2.68022e-07
-3.11403e-06
2.13303e-07
-3.12075e-06
1.57554e-07
-3.12282e-06
1.00594e-07
-3.12007e-06
4.21685e-08
-3.11251e-06
-1.79181e-08
-3.10007e-06
-7.95765e-08
-3.08273e-06
-1.4347e-07
-3.06039e-06
-2.09832e-07
-3.03291e-06
-2.78908e-07
-2.99986e-06
-3.51017e-07
-2.96079e-06
-4.26197e-07
-2.91522e-06
-5.0465e-07
-2.86188e-06
-5.86486e-07
-2.79909e-06
-6.71279e-07
-2.72503e-06
-7.58216e-07
-2.63784e-06
-8.46162e-07
-2.53578e-06
-9.33455e-07
-2.41824e-06
-1.01602e-06
-2.28539e-06
-1.09123e-06
-2.13748e-06
-1.15582e-06
-1.97479e-06
-1.20605e-06
-1.7983e-06
-1.23879e-06
-1.61055e-06
-1.24882e-06
-1.41427e-06
-1.23399e-06
-1.21319e-06
-1.19126e-06
-1.0122e-06
-1.11904e-06
-8.1761e-07
-1.01805e-06
-6.35361e-07
-8.92224e-07
-4.70054e-07
-7.47061e-07
-3.25408e-07
-5.88542e-07
-2.04025e-07
-4.23534e-07
-1.07049e-07
-2.59331e-07
-3.40631e-08
-1.03034e-07
1.66656e-08
3.91604e-08
4.74123e-08
1.62268e-07
6.02365e-08
2.61809e-07
5.66864e-08
3.32385e-07
3.91506e-08
3.66012e-07
1.40073e-08
3.4411e-07
1.93945e-07
2.91749e-08
-1.7959e-07
4.60796e-08
-2.68993e-07
4.49637e-08
-2.34977e-07
2.99532e-08
-1.68658e-07
4.66619e-09
-9.35146e-08
-3.02776e-08
-1.70884e-08
-7.52199e-08
5.7682e-08
-1.31024e-07
1.29588e-07
-1.98896e-07
1.98649e-07
-2.80147e-07
2.65875e-07
-3.75967e-07
3.32951e-07
-4.87176e-07
4.01746e-07
-6.13998e-07
4.73723e-07
-7.55883e-07
5.4947e-07
-9.11376e-07
6.28373e-07
-1.07774e-06
7.08359e-07
-1.25103e-06
7.86249e-07
-1.42662e-06
8.58335e-07
-1.59897e-06
9.20218e-07
-1.76276e-06
9.68515e-07
-1.91451e-06
1.00166e-06
-2.05314e-06
1.02016e-06
-2.17882e-06
1.02506e-06
-2.29232e-06
1.01832e-06
-2.39467e-06
1.00155e-06
-2.48698e-06
9.76543e-07
-2.57022e-06
9.44759e-07
-2.64518e-06
9.07465e-07
-2.71254e-06
8.65717e-07
-2.77287e-06
8.204e-07
-2.82666e-06
7.72244e-07
-2.87434e-06
7.21833e-07
-2.91624e-06
6.69614e-07
-2.95265e-06
6.15947e-07
-2.98409e-06
5.61428e-07
-3.01127e-06
5.06285e-07
-3.0345e-06
4.50549e-07
-3.05371e-06
3.94069e-07
-3.06885e-06
3.36964e-07
-3.08008e-06
2.79252e-07
-3.08745e-06
2.20674e-07
-3.09114e-06
1.61239e-07
-3.09128e-06
1.00737e-07
-3.08802e-06
3.89026e-08
-3.08147e-06
-2.44663e-08
-3.0716e-06
-8.94428e-08
-3.05832e-06
-1.56756e-07
-3.04147e-06
-2.26674e-07
-3.02081e-06
-2.99569e-07
-2.99602e-06
-3.75807e-07
-2.96661e-06
-4.55605e-07
-2.93225e-06
-5.39018e-07
-2.89244e-06
-6.2629e-07
-2.84651e-06
-7.17207e-07
-2.79357e-06
-8.11161e-07
-2.73246e-06
-9.07267e-07
-2.66121e-06
-1.00471e-06
-2.57512e-06
-1.10211e-06
-2.47056e-06
-1.19579e-06
-2.34598e-06
-1.28039e-06
-2.20204e-06
-1.34999e-06
-2.04071e-06
-1.40012e-06
-1.8627e-06
-1.42682e-06
-1.67058e-06
-1.42611e-06
-1.46753e-06
-1.39431e-06
-1.25822e-06
-1.32835e-06
-1.04855e-06
-1.22772e-06
-8.46392e-07
-1.09438e-06
-6.5864e-07
-9.34813e-07
-4.90365e-07
-7.56817e-07
-3.45509e-07
-5.6839e-07
-2.2657e-07
-3.7827e-07
-1.34186e-07
-1.95418e-07
-6.70354e-08
-2.79899e-08
-2.2143e-08
1.17376e-07
3.83137e-09
2.35835e-07
1.35389e-08
3.22678e-07
1.08799e-08
3.68671e-07
1.87174e-09
3.53119e-07
1.95816e-07
2.1437e-08
-2.01027e-07
2.30279e-08
-2.70584e-07
6.29647e-09
-2.18245e-07
-2.23962e-08
-1.39965e-07
-6.0917e-08
-5.49938e-08
-1.09164e-07
3.11585e-08
-1.67875e-07
1.16393e-07
-2.38186e-07
1.99898e-07
-3.21331e-07
2.81794e-07
-4.18439e-07
3.62983e-07
-5.30312e-07
4.44823e-07
-6.57177e-07
5.28611e-07
-7.98513e-07
6.1506e-07
-9.52878e-07
7.03835e-07
-1.11742e-06
7.9292e-07
-1.28803e-06
8.78966e-07
-1.45977e-06
9.57991e-07
-1.62673e-06
1.02529e-06
-1.78412e-06
1.07761e-06
-1.92929e-06
1.11369e-06
-2.06137e-06
1.13374e-06
-2.1806e-06
1.13939e-06
-2.2879e-06
1.13236e-06
-2.38431e-06
1.11473e-06
-2.47092e-06
1.08816e-06
-2.54867e-06
1.0543e-06
-2.61833e-06
1.01442e-06
-2.68055e-06
9.69679e-07
-2.73586e-06
9.21027e-07
-2.78474e-06
8.69282e-07
-2.82762e-06
8.15129e-07
-2.86494e-06
7.59155e-07
-2.89726e-06
7.01934e-07
-2.92513e-06
6.43809e-07
-2.94854e-06
5.8484e-07
-2.9676e-06
5.25344e-07
-2.98238e-06
4.65328e-07
-2.99329e-06
4.04981e-07
-3.00076e-06
3.44432e-07
-3.00509e-06
2.83588e-07
-3.00669e-06
2.22271e-07
-3.0058e-06
1.60348e-07
-3.00264e-06
9.75811e-08
-2.99741e-06
3.36717e-08
-2.99024e-06
-3.16356e-08
-2.98103e-06
-9.86591e-08
-2.96985e-06
-1.67934e-07
-2.9567e-06
-2.39819e-07
-2.94153e-06
-3.14743e-07
-2.92422e-06
-3.93114e-07
-2.90455e-06
-4.75277e-07
-2.88205e-06
-5.61512e-07
-2.85623e-06
-6.52118e-07
-2.82627e-06
-7.4716e-07
-2.79105e-06
-8.46387e-07
-2.74921e-06
-9.49108e-07
-2.69997e-06
-1.05395e-06
-2.6417e-06
-1.16038e-06
-2.57224e-06
-1.26524e-06
-2.4863e-06
-1.36633e-06
-2.37684e-06
-1.45945e-06
-2.24192e-06
-1.53505e-06
-2.0831e-06
-1.58563e-06
-1.90443e-06
-1.60479e-06
-1.70751e-06
-1.59123e-06
-1.49706e-06
-1.5388e-06
-1.27817e-06
-1.44661e-06
-1.05846e-06
-1.31409e-06
-8.47783e-07
-1.14549e-06
-6.54261e-07
-9.50339e-07
-4.83475e-07
-7.39176e-07
-3.39488e-07
-5.22257e-07
-2.24545e-07
-3.10361e-07
-1.38355e-07
-1.1418e-07
-7.8383e-08
5.7404e-08
-4.01872e-08
1.97639e-07
-1.90448e-08
3.01535e-07
-9.11198e-09
3.58738e-07
-5.33731e-09
3.49344e-07
1.90479e-07
1.07469e-08
-2.11774e-07
-4.08688e-09
-2.5575e-07
-3.55471e-08
-1.86785e-07
-7.79185e-08
-9.75938e-08
-1.2971e-07
-3.20256e-09
-1.91249e-07
9.26979e-08
-2.63614e-07
1.88758e-07
-3.47994e-07
2.84278e-07
-4.45467e-07
3.79268e-07
-5.568e-07
4.74315e-07
-6.82237e-07
5.7026e-07
-8.21347e-07
6.67722e-07
-9.72825e-07
7.66538e-07
-1.13386e-06
8.64868e-07
-1.30029e-06
9.59349e-07
-1.46709e-06
1.04576e-06
-1.62858e-06
1.11948e-06
-1.78028e-06
1.177e-06
-1.91984e-06
1.21716e-06
-2.0463e-06
1.24015e-06
-2.16001e-06
1.24746e-06
-2.26183e-06
1.2412e-06
-2.35288e-06
1.22341e-06
-2.43413e-06
1.19598e-06
-2.5065e-06
1.16052e-06
-2.57069e-06
1.11849e-06
-2.62731e-06
1.07105e-06
-2.67692e-06
1.01928e-06
-2.71999e-06
9.64102e-07
-2.75702e-06
9.06306e-07
-2.78846e-06
8.46571e-07
-2.81477e-06
7.85464e-07
-2.83622e-06
7.23384e-07
-2.85313e-06
6.60726e-07
-2.86597e-06
5.97678e-07
-2.87521e-06
5.34579e-07
-2.88138e-06
4.71501e-07
-2.88488e-06
4.08476e-07
-2.88596e-06
3.45513e-07
-2.88489e-06
2.82525e-07
-2.88197e-06
2.19349e-07
-2.87741e-06
1.5579e-07
-2.87141e-06
9.15825e-08
-2.86416e-06
2.64158e-08
-2.8558e-06
-3.99978e-08
-2.84641e-06
-1.08048e-07
-2.83617e-06
-1.78172e-07
-2.8252e-06
-2.5079e-07
-2.81358e-06
-3.26358e-07
-2.80137e-06
-4.05328e-07
-2.78851e-06
-4.88137e-07
-2.77481e-06
-5.75209e-07
-2.76e-06
-6.66935e-07
-2.74358e-06
-7.63575e-07
-2.7248e-06
-8.65168e-07
-2.70248e-06
-9.71424e-07
-2.67471e-06
-1.08172e-06
-2.63992e-06
-1.19517e-06
-2.59574e-06
-1.30942e-06
-2.54006e-06
-1.42201e-06
-2.46997e-06
-1.52954e-06
-2.37793e-06
-1.62708e-06
-2.25545e-06
-1.70812e-06
-2.10194e-06
-1.75829e-06
-1.92223e-06
-1.77095e-06
-1.72002e-06
-1.74101e-06
-1.5006e-06
-1.66603e-06
-1.27064e-06
-1.54405e-06
-1.03996e-06
-1.37617e-06
-8.20441e-07
-1.16986e-06
-6.21693e-07
-9.37924e-07
-4.49751e-07
-6.94198e-07
-3.08671e-07
-4.5144e-07
-1.99916e-07
-2.22935e-07
-1.21972e-07
-2.05407e-08
-7.03512e-08
1.46018e-07
-3.89008e-08
2.70085e-07
-1.96187e-08
3.39456e-07
-7.89172e-09
3.37617e-07
1.82587e-07
-1.87676e-09
-2.09897e-07
-3.25791e-08
-2.25048e-07
-7.87123e-08
-1.40652e-07
-1.34512e-07
-4.17938e-08
-1.99229e-07
6.15145e-08
-2.73705e-07
1.67174e-07
-3.59088e-07
2.7414e-07
-4.56477e-07
3.81667e-07
-5.66642e-07
4.89433e-07
-6.89859e-07
5.97533e-07
-8.2579e-07
7.06191e-07
-9.73323e-07
8.15255e-07
-1.12988e-06
9.23091e-07
-1.29138e-06
1.02637e-06
-1.45287e-06
1.12085e-06
-1.60915e-06
1.20204e-06
-1.75588e-06
1.26621e-06
-1.89062e-06
1.31174e-06
-2.01237e-06
1.33891e-06
-2.12128e-06
1.34906e-06
-2.21831e-06
1.34448e-06
-2.30443e-06
1.32733e-06
-2.38063e-06
1.2996e-06
-2.44769e-06
1.26305e-06
-2.50633e-06
1.21916e-06
-2.55712e-06
1.16928e-06
-2.60063e-06
1.11456e-06
-2.6374e-06
1.05605e-06
-2.66795e-06
9.94658e-07
-2.69284e-06
9.3119e-07
-2.71258e-06
8.6631e-07
-2.72768e-06
8.00564e-07
-2.73867e-06
7.34374e-07
-2.74605e-06
6.68106e-07
-2.75036e-06
6.01996e-07
-2.75204e-06
5.36255e-07
-2.75146e-06
4.70921e-07
-2.74897e-06
4.05985e-07
-2.74485e-06
3.41399e-07
-2.73936e-06
2.77027e-07
-2.73269e-06
2.12685e-07
-2.72506e-06
1.48156e-07
-2.71664e-06
8.31623e-08
-2.70762e-06
1.73986e-08
-2.69817e-06
-4.94529e-08
-2.68844e-06
-1.17779e-07
-2.67862e-06
-1.8799e-07
-2.66889e-06
-2.60518e-07
-2.65942e-06
-3.35825e-07
-2.65037e-06
-4.14385e-07
-2.64182e-06
-4.96682e-07
-2.63383e-06
-5.83205e-07
-2.62634e-06
-6.74422e-07
-2.61919e-06
-7.70725e-07
-2.61198e-06
-8.72378e-07
-2.60394e-06
-9.7946e-07
-2.59385e-06
-1.09182e-06
-2.58017e-06
-1.20885e-06
-2.56034e-06
-1.32925e-06
-2.53131e-06
-1.45105e-06
-2.48998e-06
-1.57087e-06
-2.43287e-06
-1.68419e-06
-2.35502e-06
-1.78597e-06
-2.24481e-06
-1.8685e-06
-2.09749e-06
-1.91826e-06
-1.91619e-06
-1.92232e-06
-1.70728e-06
-1.87494e-06
-1.47708e-06
-1.77424e-06
-1.23483e-06
-1.61842e-06
-9.9275e-07
-1.41194e-06
-7.6506e-07
-1.16562e-06
-5.62786e-07
-8.96472e-07
-3.92251e-07
-6.21975e-07
-2.57062e-07
-3.58124e-07
-1.57293e-07
-1.2031e-07
-8.95371e-08
7.82626e-08
-4.70419e-08
2.2759e-07
-2.12997e-08
3.13714e-07
-6.29814e-09
3.22615e-07
1.76289e-07
-1.5372e-08
-1.94525e-07
-6.18151e-08
-1.78605e-07
-1.21696e-07
-8.07716e-08
-1.90239e-07
2.67496e-08
-2.67281e-07
1.38557e-07
-3.5386e-07
2.53753e-07
-4.51124e-07
3.71404e-07
-5.5993e-07
4.90473e-07
-6.8064e-07
6.10143e-07
-8.13015e-07
7.29908e-07
-9.56139e-07
8.49315e-07
-1.10775e-06
9.66864e-07
-1.26405e-06
1.07939e-06
-1.42036e-06
1.18267e-06
-1.57182e-06
1.27231e-06
-1.71426e-06
1.34448e-06
-1.84495e-06
1.3969e-06
-1.96275e-06
1.42955e-06
-2.06768e-06
1.44383e-06
-2.16053e-06
1.44191e-06
-2.24227e-06
1.42623e-06
-2.31381e-06
1.39886e-06
-2.3759e-06
1.36169e-06
-2.42921e-06
1.31636e-06
-2.47438e-06
1.26433e-06
-2.512e-06
1.2069e-06
-2.5427e-06
1.14525e-06
-2.56712e-06
1.08047e-06
-2.58591e-06
1.01345e-06
-2.59973e-06
9.45007e-07
-2.6092e-06
8.75781e-07
-2.61493e-06
8.06294e-07
-2.6175e-06
7.36945e-07
-2.61743e-06
6.68032e-07
-2.61517e-06
5.99743e-07
-2.61111e-06
5.32188e-07
-2.60555e-06
4.6536e-07
-2.59877e-06
3.99205e-07
-2.59099e-06
3.33625e-07
-2.58242e-06
2.68452e-07
-2.57321e-06
2.0348e-07
-2.56353e-06
1.38476e-07
-2.55353e-06
7.31637e-08
-2.54338e-06
7.24587e-09
-2.53322e-06
-5.96109e-08
-2.52323e-06
-1.27766e-07
-2.51361e-06
-1.97614e-07
-2.50455e-06
-2.69576e-07
-2.49628e-06
-3.441e-07
-2.489e-06
-4.21659e-07
-2.48293e-06
-5.0275e-07
-2.47825e-06
-5.87887e-07
-2.47509e-06
-6.77584e-07
-2.47349e-06
-7.72322e-07
-2.47335e-06
-8.72517e-07
-2.47433e-06
-9.78483e-07
-2.47579e-06
-1.09036e-06
-2.47667e-06
-1.20798e-06
-2.4752e-06
-1.33072e-06
-2.4689e-06
-1.45734e-06
-2.45422e-06
-1.58555e-06
-2.42654e-06
-1.71188e-06
-2.38159e-06
-1.83092e-06
-2.3136e-06
-1.9365e-06
-2.21309e-06
-2.01877e-06
-2.07007e-06
-2.06534e-06
-1.88635e-06
-2.05866e-06
-1.66874e-06
-1.99185e-06
-1.42616e-06
-1.861e-06
-1.17084e-06
-1.66726e-06
-9.17882e-07
-1.41858e-06
-6.84097e-07
-1.13026e-06
-4.81552e-07
-8.24521e-07
-3.16434e-07
-5.23241e-07
-1.91104e-07
-2.4564e-07
-1.03675e-07
-9.16683e-09
-4.82678e-08
1.72183e-07
-1.68137e-08
2.8226e-07
-1.74163e-09
3.07543e-07
1.74548e-07
-2.91656e-08
-1.6536e-07
-9.02019e-08
-1.17568e-07
-1.62948e-07
-8.02511e-09
-2.4335e-07
1.07151e-07
-3.31756e-07
2.26963e-07
-4.2926e-07
3.51257e-07
-5.36879e-07
4.79023e-07
-6.55157e-07
6.0875e-07
-7.8401e-07
7.38996e-07
-9.22701e-07
8.686e-07
-1.0693e-06
9.9591e-07
-1.22043e-06
1.118e-06
-1.3718e-06
1.23076e-06
-1.5189e-06
1.32978e-06
-1.65772e-06
1.41112e-06
-1.78519e-06
1.47196e-06
-1.89987e-06
1.51157e-06
-2.00161e-06
1.53129e-06
-2.09102e-06
1.53325e-06
-2.16905e-06
1.51994e-06
-2.23653e-06
1.49371e-06
-2.29421e-06
1.45654e-06
-2.34277e-06
1.41026e-06
-2.38288e-06
1.35648e-06
-2.41524e-06
1.29668e-06
-2.44055e-06
1.23221e-06
-2.45958e-06
1.16429e-06
-2.47311e-06
1.09399e-06
-2.48188e-06
1.02223e-06
-2.48663e-06
9.49752e-07
-2.48802e-06
8.77167e-07
-2.48665e-06
8.04926e-07
-2.48306e-06
7.33355e-07
-2.4777e-06
6.6267e-07
-2.47094e-06
5.92983e-07
-2.46307e-06
5.24321e-07
-2.45434e-06
4.56628e-07
-2.44494e-06
3.89803e-07
-2.43502e-06
3.23709e-07
-2.42472e-06
2.58154e-07
-2.41416e-06
1.92917e-07
-2.40344e-06
1.27754e-07
-2.39267e-06
6.23993e-08
-2.382e-06
-3.4312e-09
-2.37153e-06
-7.00787e-08
-2.36144e-06
-1.37857e-07
-2.35191e-06
-2.07143e-07
-2.34316e-06
-2.7833e-07
-2.33542e-06
-3.51838e-07
-2.32896e-06
-4.2812e-07
-2.32405e-06
-5.0766e-07
-2.32096e-06
-5.9097e-07
-2.31996e-06
-6.78583e-07
-2.32125e-06
-7.71035e-07
-2.32493e-06
-8.68842e-07
-2.33094e-06
-9.7247e-07
-2.33902e-06
-1.08228e-06
-2.34858e-06
-1.19842e-06
-2.35855e-06
-1.32075e-06
-2.36725e-06
-1.44864e-06
-2.37205e-06
-1.58075e-06
-2.36919e-06
-1.71474e-06
-2.35335e-06
-1.84676e-06
-2.31879e-06
-1.97106e-06
-2.25877e-06
-2.07879e-06
-2.16329e-06
-2.16083e-06
-2.0215e-06
-2.20045e-06
-1.83295e-06
-2.18039e-06
-1.60438e-06
-2.08958e-06
-1.34806e-06
-1.92357e-06
-1.07965e-06
-1.68699e-06
-8.17783e-07
-1.39213e-06
-5.81909e-07
-1.06039e-06
-3.84354e-07
-7.20796e-07
-2.30216e-07
-3.99779e-07
-1.19903e-07
-1.1948e-07
-4.90687e-08
1.01349e-07
-1.07871e-08
2.43978e-07
3.62946e-09
2.93127e-07
1.78177e-07
-4.24334e-08
-1.22926e-07
-1.16773e-07
-4.32284e-08
-2.01117e-07
7.63181e-08
-2.92335e-07
1.98369e-07
-3.90866e-07
3.25494e-07
-4.97821e-07
4.58212e-07
-6.14012e-07
5.95214e-07
-7.3962e-07
7.34359e-07
-8.74149e-07
8.73525e-07
-1.01594e-06
1.01039e-06
-1.16212e-06
1.14208e-06
-1.30892e-06
1.2648e-06
-1.45215e-06
1.37399e-06
-1.58792e-06
1.46555e-06
-1.713e-06
1.5362e-06
-1.82545e-06
1.58441e-06
-1.92488e-06
1.611e-06
-2.01175e-06
1.61815e-06
-2.08686e-06
1.60836e-06
-2.15107e-06
1.58415e-06
-2.20512e-06
1.54776e-06
-2.24972e-06
1.50115e-06
-2.28561e-06
1.44615e-06
-2.31356e-06
1.38443e-06
-2.3344e-06
1.31751e-06
-2.34899e-06
1.2468e-06
-2.35822e-06
1.17352e-06
-2.36293e-06
1.0987e-06
-2.36392e-06
1.02322e-06
-2.36191e-06
9.47742e-07
-2.35753e-06
8.72787e-07
-2.35132e-06
7.98715e-07
-2.34372e-06
7.2576e-07
-2.3351e-06
6.54045e-07
-2.32572e-06
5.83603e-07
-2.31579e-06
5.14392e-07
-2.30547e-06
4.46309e-07
-2.29488e-06
3.79213e-07
-2.2841e-06
3.12929e-07
-2.2732e-06
2.47258e-07
-2.26225e-06
1.81964e-07
-2.2513e-06
1.168e-07
-2.24042e-06
5.15187e-08
-2.22969e-06
-1.41564e-08
-2.21924e-06
-8.05338e-08
-2.20919e-06
-1.47908e-07
-2.19971e-06
-2.16616e-07
-2.19103e-06
-2.87014e-07
-2.18338e-06
-3.59485e-07
-2.17706e-06
-4.34445e-07
-2.17237e-06
-5.12345e-07
-2.16966e-06
-5.93677e-07
-2.16928e-06
-6.78966e-07
-2.17155e-06
-7.68769e-07
-2.17673e-06
-8.63662e-07
-2.18498e-06
-9.64215e-07
-2.19631e-06
-1.07095e-06
-2.21045e-06
-1.18428e-06
-2.2268e-06
-1.3044e-06
-2.24426e-06
-1.43118e-06
-2.26104e-06
-1.56397e-06
-2.27444e-06
-1.70133e-06
-2.28051e-06
-1.84069e-06
-2.27378e-06
-1.97779e-06
-2.2466e-06
-2.10597e-06
-2.1917e-06
-2.21572e-06
-2.09736e-06
-2.29479e-06
-1.95305e-06
-2.3247e-06
-1.75618e-06
-2.28644e-06
-1.51436e-06
-2.16539e-06
-1.24349e-06
-1.95786e-06
-9.63249e-07
-1.67237e-06
-6.96529e-07
-1.32712e-06
-4.64935e-07
-9.5239e-07
-2.79654e-07
-5.8506e-07
-1.43827e-07
-2.55307e-07
-5.50362e-08
1.25581e-08
-7.67209e-09
1.96614e-07
7.7288e-09
2.77726e-07
1.85906e-07
-5.46104e-08
-6.83158e-08
-1.40609e-07
4.27699e-08
-2.35343e-07
1.71053e-07
-3.36006e-07
2.99032e-07
-4.43192e-07
4.3268e-07
-5.57919e-07
5.7294e-07
-6.80753e-07
7.18048e-07
-8.11509e-07
8.65115e-07
-9.48876e-07
1.01089e-06
-1.09043e-06
1.15195e-06
-1.23307e-06
1.28472e-06
-1.37291e-06
1.40464e-06
-1.50619e-06
1.50727e-06
-1.62958e-06
1.58895e-06
-1.74074e-06
1.64735e-06
-1.83882e-06
1.68249e-06
-1.92409e-06
1.69627e-06
-1.99724e-06
1.69131e-06
-2.05911e-06
1.67022e-06
-2.11047e-06
1.63551e-06
-2.15207e-06
1.58936e-06
-2.18471e-06
1.53379e-06
-2.20925e-06
1.47069e-06
-2.22661e-06
1.40178e-06
-2.23776e-06
1.32867e-06
-2.24368e-06
1.25272e-06
-2.24529e-06
1.17513e-06
-2.24346e-06
1.09687e-06
-2.23895e-06
1.01871e-06
-2.23241e-06
9.41207e-07
-2.2244e-06
8.64775e-07
-2.21535e-06
7.89666e-07
-2.20561e-06
7.16015e-07
-2.19542e-06
6.43858e-07
-2.18497e-06
5.73152e-07
-2.17437e-06
5.03797e-07
-2.16371e-06
4.35649e-07
-2.15303e-06
3.68532e-07
-2.14235e-06
3.02248e-07
-2.13168e-06
2.36591e-07
-2.12105e-06
1.71324e-07
-2.11044e-06
1.06197e-07
-2.09991e-06
4.09865e-08
-2.0895e-06
-2.45659e-08
-2.0793e-06
-9.0736e-08
-2.06942e-06
-1.5779e-07
-2.06001e-06
-2.26025e-07
-2.05127e-06
-2.95752e-07
-2.04344e-06
-3.67309e-07
-2.03682e-06
-4.41065e-07
-2.03174e-06
-5.17425e-07
-2.02858e-06
-5.96841e-07
-2.02774e-06
-6.79811e-07
-2.02962e-06
-7.66883e-07
-2.03463e-06
-8.58655e-07
-2.04309e-06
-9.55757e-07
-2.05521e-06
-1.05883e-06
-2.07101e-06
-1.16847e-06