/*--------------------------------*- C++ -*----------------------------------*\
  =========                 |
  \\      /  F ield         | OpenFOAM: The Open Source CFD Toolbox
   \\    /   O peration     | Website:  https://openfoam.org
    \\  /    A nd           | Version:  13
     \\/     M anipulation  |
\*---------------------------------------------------------------------------*/
FoamFile
{
    format      ascii;
    class       volVectorField;
    location    "4.5";
    object      U;
}
// * * * * * * * * * * * * * * * * * * * * * * * * * * * * * * * * * * * * * //

dimensions      [0 1 -1 0 0 0 0];

internalField   nonuniform List<vector> 
6400
(
(-0.000100835 6.48466e-05 0)
(0.000429352 -0.000158925 0)
(0.0019018 -0.00038053 0)
(0.00383971 -0.000477758 0)
(0.00577829 -0.000423671 0)
(0.00741002 -0.000289085 0)
(0.00852135 -0.000127165 0)
(0.00910668 -3.27075e-06 0)
(0.00927689 4.65503e-05 0)
(0.00921684 3.16491e-05 0)
(0.00906863 -2.91389e-05 0)
(0.00894928 -0.000118281 0)
(0.00892917 -0.000211033 0)
(0.00900906 -0.000289807 0)
(0.00914992 -0.00035534 0)
(0.00928937 -0.000406856 0)
(0.00936198 -0.000442654 0)
(0.00932529 -0.000450476 0)
(0.00914165 -0.000439604 0)
(0.00872844 -0.000408374 0)
(0.00804196 -0.000365376 0)
(0.00703355 -0.000320411 0)
(0.00565668 -0.000277931 0)
(0.00388889 -0.000254605 0)
(0.00170303 -0.000283468 0)
(-0.000899412 -0.000373662 0)
(-0.00387655 -0.000449658 0)
(-0.00744323 -0.000365849 0)
(-0.0117096 -2.12974e-05 0)
(-0.0166846 0.000628805 0)
(-0.0228723 0.00148875 0)
(-0.0300199 0.00231311 0)
(-0.0378405 0.00301182 0)
(-0.0461295 0.00357195 0)
(-0.0546548 0.00398561 0)
(-0.0632037 0.00425571 0)
(-0.0715929 0.00439513 0)
(-0.0796668 0.00442149 0)
(-0.0873006 0.00435225 0)
(-0.094393 0.00420427 0)
(-0.10086 0.00399024 0)
(-0.10663 0.00371884 0)
(-0.111647 0.00339491 0)
(-0.115865 0.00301884 0)
(-0.119259 0.00259322 0)
(-0.121808 0.00213278 0)
(-0.123256 0.00171146 0)
(-0.123823 0.00132363 0)
(-0.123561 0.000610948 0)
(-0.121963 9.31092e-05 0)
(-0.119466 -0.00057622 0)
(-0.115721 -0.00119124 0)
(-0.110916 -0.00184073 0)
(-0.104927 -0.00245908 0)
(-0.097855 -0.0030631 0)
(-0.0897346 -0.00364484 0)
(-0.0806711 -0.0042015 0)
(-0.0706801 -0.0046833 0)
(-0.0599744 -0.00508843 0)
(-0.0486987 -0.0053713 0)
(-0.0370905 -0.00550279 0)
(-0.0254046 -0.0054503 0)
(-0.0139359 -0.00520341 0)
(-0.00296508 -0.00476317 0)
(0.00709596 -0.00416697 0)
(0.0159124 -0.00333305 0)
(0.0232425 -0.00235458 0)
(0.0287886 -0.00126294 0)
(0.0324299 -0.00014147 0)
(0.033815 0.00116253 0)
(0.0331581 0.00181823 0)
(0.0307345 0.00244447 0)
(0.0262445 0.0027889 0)
(0.0207488 0.0026431 0)
(0.0149352 0.00209097 0)
(0.00960502 0.00133269 0)
(0.00528197 0.000655775 0)
(0.00217804 0.000204778 0)
(0.000378707 -0.000100811 0)
(-0.000186175 -0.000295701 0)
(2.6152e-05 -0.00037626 0)
(0.00165432 -0.00190437 0)
(0.00473354 -0.00316287 0)
(0.0082094 -0.00360446 0)
(0.011447 -0.00328882 0)
(0.014055 -0.00253541 0)
(0.0158655 -0.00160685 0)
(0.016887 -0.000749671 0)
(0.0172367 -0.000131385 0)
(0.0170481 0.000213559 0)
(0.0165162 0.000324496 0)
(0.0157622 0.00027484 0)
(0.0148782 0.000163553 0)
(0.0138578 8.59075e-05 0)
(0.0126419 9.72762e-05 0)
(0.0111422 0.000212525 0)
(0.00927275 0.000417749 0)
(0.00698727 0.000695748 0)
(0.00417966 0.00106518 0)
(0.000756429 0.00153988 0)
(-0.00338153 0.00212381 0)
(-0.00840493 0.00282685 0)
(-0.0144553 0.00363346 0)
(-0.021579 0.00451356 0)
(-0.0298221 0.00547687 0)
(-0.0392482 0.00654508 0)
(-0.0498519 0.00773731 0)
(-0.0613435 0.00903795 0)
(-0.07343 0.0104321 0)
(-0.0856836 0.0118128 0)
(-0.0976037 0.0129475 0)
(-0.109184 0.013738 0)
(-0.120289 0.0141757 0)
(-0.130772 0.0142665 0)
(-0.140542 0.014054 0)
(-0.149522 0.0135838 0)
(-0.157664 0.0129007 0)
(-0.16493 0.0120466 0)
(-0.171296 0.0110558 0)
(-0.17675 0.0099584 0)
(-0.181278 0.00877436 0)
(-0.184868 0.0075178 0)
(-0.187514 0.00619903 0)
(-0.189205 0.00482366 0)
(-0.189938 0.00339897 0)
(-0.189695 0.00193187 0)
(-0.188436 0.000436207 0)
(-0.186178 -0.00111027 0)
(-0.18289 -0.00276384 0)
(-0.178529 -0.00445214 0)
(-0.173141 -0.00618981 0)
(-0.166656 -0.00794913 0)
(-0.159107 -0.00971492 0)
(-0.150462 -0.0114619 0)
(-0.140748 -0.0131565 0)
(-0.129975 -0.014758 0)
(-0.118219 -0.0162143 0)
(-0.105597 -0.0174924 0)
(-0.092224 -0.0185179 0)
(-0.0783002 -0.0192256 0)
(-0.0640308 -0.0195547 0)
(-0.0496513 -0.0194462 0)
(-0.0354331 -0.0188567 0)
(-0.0216715 -0.0177679 0)
(-0.00867277 -0.0161839 0)
(0.00326347 -0.0140804 0)
(0.0138557 -0.0115227 0)
(0.0228462 -0.00858036 0)
(0.0300201 -0.00535024 0)
(0.0351714 -0.00197069 0)
(0.0382622 0.00129174 0)
(0.0391383 0.00430479 0)
(0.0378278 0.00688031 0)
(0.0345064 0.00873115 0)
(0.0293873 0.00927513 0)
(0.022708 0.00869989 0)
(0.0154048 0.00716053 0)
(0.00858351 0.00504633 0)
(0.00331587 0.0026303 0)
(0.000284908 0.000515627 0)
(0.000188833 -0.00151247 0)
(0.00286769 -0.00487009 0)
(0.00675398 -0.00690085 0)
(0.010459 -0.00720257 0)
(0.0135395 -0.00626467 0)
(0.0157885 -0.00467096 0)
(0.0172145 -0.00292967 0)
(0.0178704 -0.0013457 0)
(0.0178266 -8.27414e-05 0)
(0.0171621 0.000786001 0)
(0.0160125 0.00128159 0)
(0.0144465 0.00153292 0)
(0.0124831 0.00170363 0)
(0.0100898 0.00194439 0)
(0.00719254 0.00235227 0)
(0.00369384 0.00295822 0)
(-0.000511831 0.00375285 0)
(-0.00557717 0.00474743 0)
(-0.0116141 0.00596244 0)
(-0.0187351 0.00743148 0)
(-0.0270243 0.00916749 0)
(-0.0364867 0.0111286 0)
(-0.047082 0.0132379 0)
(-0.0587219 0.015393 0)
(-0.0711963 0.0174789 0)
(-0.0842441 0.0194081 0)
(-0.0975454 0.0211057 0)
(-0.110793 0.0224993 0)
(-0.123699 0.0235397 0)
(-0.135987 0.0242002 0)
(-0.14748 0.0244714 0)
(-0.158088 0.0243453 0)
(-0.167739 0.0238568 0)
(-0.176451 0.0230385 0)
(-0.184239 0.0219228 0)
(-0.191124 0.0205632 0)
(-0.19713 0.0190056 0)
(-0.202283 0.0172926 0)
(-0.206602 0.015452 0)
(-0.210097 0.0135123 0)
(-0.212783 0.011497 0)
(-0.214665 0.00941163 0)
(-0.215742 0.0072649 0)
(-0.21601 0.00505819 0)
(-0.21546 0.00278924 0)
(-0.214077 0.000458997 0)
(-0.211836 -0.00193839 0)
(-0.208706 -0.00441753 0)
(-0.204675 -0.00697651 0)
(-0.19971 -0.00958586 0)
(-0.19379 -0.0122612 0)
(-0.186883 -0.0149692 0)
(-0.178981 -0.0176912 0)
(-0.170069 -0.0203919 0)
(-0.160155 -0.0230272 0)
(-0.149255 -0.0255351 0)
(-0.137418 -0.0278394 0)
(-0.124728 -0.0298596 0)
(-0.111276 -0.0314976 0)
(-0.0972104 -0.0326555 0)
(-0.0827255 -0.0332352 0)
(-0.0680457 -0.0331495 0)
(-0.0534216 -0.0323201 0)
(-0.0391543 -0.0307319 0)
(-0.0255405 -0.0283788 0)
(-0.0128464 -0.0252782 0)
(-0.00131883 -0.0214772 0)
(0.00879488 -0.0170745 0)
(0.0173039 -0.012217 0)
(0.0240804 -0.0070888 0)
(0.0290013 -0.00192362 0)
(0.0321199 0.00307461 0)
(0.0333165 0.00756387 0)
(0.0324458 0.0111781 0)
(0.0296585 0.0138059 0)
(0.0252378 0.0148016 0)
(0.0192165 0.0141883 0)
(0.012422 0.0119747 0)
(0.0058905 0.00822844 0)
(0.000803564 0.0032791 0)
(0.00037298 -0.00326224 0)
(0.00380572 -0.00860248 0)
(0.00783324 -0.0108096 0)
(0.0111321 -0.0104433 0)
(0.0135445 -0.00861531 0)
(0.015053 -0.00617232 0)
(0.0157406 -0.00364056 0)
(0.0156882 -0.00133669 0)
(0.0149622 0.000561054 0)
(0.0136205 0.0019847 0)
(0.0116588 0.00300501 0)
(0.00905744 0.00378724 0)
(0.00577231 0.0045323 0)
(0.00174003 0.0054179 0)
(-0.00311047 0.00655518 0)
(-0.00886546 0.00799304 0)
(-0.0156384 0.00975013 0)
(-0.0235424 0.0118307 0)
(-0.0326551 0.0142288 0)
(-0.0430006 0.0169237 0)
(-0.0545181 0.0198404 0)
(-0.0670474 0.022852 0)
(-0.0803322 0.0258006 0)
(-0.0940568 0.0285338 0)
(-0.107929 0.0309524 0)
(-0.121644 0.0329101 0)
(-0.134907 0.034294 0)
(-0.147454 0.0350833 0)
(-0.159099 0.0353355 0)
(-0.169762 0.0350985 0)
(-0.179418 0.0344308 0)
(-0.188094 0.0333718 0)
(-0.195828 0.0319559 0)
(-0.202683 0.0302395 0)
(-0.208702 0.0282684 0)
(-0.21394 0.0260912 0)
(-0.21844 0.0237453 0)
(-0.222234 0.0212657 0)
(-0.225343 0.0186804 0)
(-0.227787 0.0160085 0)
(-0.229573 0.0132627 0)
(-0.230705 0.0104489 0)
(-0.231176 0.00756618 0)
(-0.230978 0.00461075 0)
(-0.230091 0.00157728 0)
(-0.228496 -0.00153644 0)
(-0.226161 -0.00473985 0)
(-0.223058 -0.00804091 0)
(-0.219158 -0.0114482 0)
(-0.214428 -0.0149507 0)
(-0.208832 -0.018545 0)
(-0.202329 -0.0222002 0)
(-0.194892 -0.0258869 0)
(-0.1865 -0.0295653 0)
(-0.177135 -0.033179 0)
(-0.166793 -0.0366457 0)
(-0.155489 -0.0398601 0)
(-0.143272 -0.0427103 0)
(-0.130223 -0.045078 0)
(-0.116441 -0.0468065 0)
(-0.102084 -0.0477595 0)
(-0.0873577 -0.0478121 0)
(-0.0724841 -0.0468486 0)
(-0.0577543 -0.0448107 0)
(-0.0435103 -0.0416994 0)
(-0.0300756 -0.0376 0)
(-0.0176951 -0.0325621 0)
(-0.00660789 -0.0267191 0)
(0.00297847 -0.020274 0)
(0.0109235 -0.0134703 0)
(0.0171331 -0.00657976 0)
(0.0215999 0.000172115 0)
(0.0243442 0.00648099 0)
(0.0254315 0.0119558 0)
(0.0247332 0.0161971 0)
(0.0222183 0.018915 0)
(0.0180972 0.0196658 0)
(0.0127043 0.0182288 0)
(0.00665989 0.0143137 0)
(0.00102687 0.00697289 0)
(0.000602556 -0.00549614 0)
(0.00441293 -0.0125785 0)
(0.00801426 -0.0143298 0)
(0.010534 -0.012976 0)
(0.012069 -0.0101518 0)
(0.0126787 -0.00683458 0)
(0.0124923 -0.00353517 0)
(0.0115867 -0.000539054 0)
(0.00999226 0.00201057 0)
(0.00769787 0.00410002 0)
(0.00464813 0.00582896 0)
(0.000764633 0.00738308 0)
(-0.0040364 0.00897524 0)
(-0.0098365 0.0107866 0)
(-0.0167133 0.012936 0)
(-0.0247401 0.0154815 0)
(-0.0339792 0.0184363 0)
(-0.0444584 0.0217713 0)
(-0.0561317 0.0254045 0)
(-0.0688591 0.029227 0)
(-0.0824 0.0330428 0)
(-0.096417 0.0366396 0)
(-0.110591 0.0399197 0)
(-0.124616 0.0426283 0)
(-0.138152 0.0446132 0)
(-0.150872 0.0458589 0)
(-0.162622 0.0463897 0)
(-0.173354 0.0462494 0)
(-0.183079 0.0455234 0)
(-0.19184 0.044309 0)
(-0.199692 0.0426836 0)
(-0.206708 0.0407185 0)
(-0.212944 0.0384638 0)
(-0.218457 0.0359689 0)
(-0.223297 0.0332736 0)
(-0.227511 0.0304133 0)
(-0.231135 0.0274202 0)
(-0.234191 0.0243211 0)
(-0.2367 0.0211301 0)
(-0.238671 0.0178635 0)
(-0.240108 0.0145282 0)
(-0.241012 0.0111196 0)
(-0.241375 0.00763222 0)
(-0.241186 0.0040555 0)
(-0.240426 0.000376802 0)
(-0.23908 -0.00341712 0)
(-0.237102 -0.00732939 0)
(-0.234459 -0.0113697 0)
(-0.231113 -0.015542 0)
(-0.227022 -0.0198455 0)
(-0.222167 -0.0242879 0)
(-0.216483 -0.0288399 0)
(-0.209917 -0.0334581 0)
(-0.202429 -0.0380986 0)
(-0.193982 -0.0426985 0)
(-0.184548 -0.0471614 0)
(-0.174109 -0.0513554 0)
(-0.162668 -0.0551345 0)
(-0.150287 -0.0583583 0)
(-0.137023 -0.0608267 0)
(-0.122991 -0.062357 0)
(-0.108367 -0.0627794 0)
(-0.0933555 -0.0619264 0)
(-0.07821 -0.0596967 0)
(-0.0632206 -0.0560427 0)
(-0.0488134 -0.0510449 0)
(-0.0353502 -0.04485 0)
(-0.0230662 -0.0376211 0)
(-0.0122128 -0.0296109 0)
(-0.00297373 -0.0211219 0)
(0.00453487 -0.0124901 0)
(0.0102838 -0.00402679 0)
(0.0143184 0.00394309 0)
(0.0167165 0.0110819 0)
(0.0175136 0.0170246 0)
(0.0167209 0.0213282 0)
(0.0143675 0.0235314 0)
(0.0106365 0.0232641 0)
(0.00585215 0.0198055 0)
(0.000855055 0.0105595 0)
(0.000861092 -0.00807398 0)
(0.00460827 -0.0162788 0)
(0.00736997 -0.0169975 0)
(0.00886072 -0.0145584 0)
(0.00940689 -0.0107231 0)
(0.00904986 -0.0065655 0)
(0.00792215 -0.00251957 0)
(0.00606232 0.00118671 0)
(0.00345474 0.00446206 0)
(3.79091e-05 0.00733686 0)
(-0.00428376 0.00994196 0)
(-0.0096142 0.012473 0)
(-0.0160481 0.0151361 0)
(-0.0236628 0.0180989 0)
(-0.0325121 0.0214636 0)
(-0.042616 0.0252618 0)
(-0.0539452 0.029457 0)
(-0.0663962 0.033962 0)
(-0.079787 0.0385846 0)
(-0.0938009 0.0430905 0)
(-0.108082 0.0473372 0)
(-0.122325 0.050995 0)
(-0.136121 0.0538696 0)
(-0.149064 0.0558746 0)
(-0.161002 0.0569658 0)
(-0.171887 0.0571976 0)
(-0.181756 0.0566819 0)
(-0.19068 0.0555457 0)
(-0.19873 0.0538965 0)
(-0.205975 0.0518297 0)
(-0.212477 0.0494178 0)
(-0.218295 0.0467234 0)
(-0.223481 0.043794 0)
(-0.228086 0.0406712 0)
(-0.232148 0.0373895 0)
(-0.235702 0.0339771 0)
(-0.238772 0.0304589 0)
(-0.24138 0.0268552 0)
(-0.243538 0.0231768 0)
(-0.245252 0.0194318 0)
(-0.246523 0.015618 0)
(-0.247358 0.0117238 0)
(-0.247748 0.00774065 0)
(-0.247688 0.00365225 0)
(-0.247169 -0.000562535 0)
(-0.246178 -0.00492982 0)
(-0.244701 -0.00945677 0)
(-0.242705 -0.0141585 0)
(-0.240152 -0.0190381 0)
(-0.236966 -0.0240797 0)
(-0.23311 -0.0292971 0)
(-0.22852 -0.0346753 0)
(-0.223123 -0.0401637 0)
(-0.216826 -0.0456993 0)
(-0.209568 -0.0512169 0)
(-0.201334 -0.0566524 0)
(-0.192095 -0.0618824 0)
(-0.181741 -0.066678 0)
(-0.170319 -0.0708884 0)
(-0.157853 -0.0742733 0)
(-0.144387 -0.0765903 0)
(-0.130084 -0.0776382 0)
(-0.115087 -0.0771866 0)
(-0.0996731 -0.075086 0)
(-0.0840933 -0.0712065 0)
(-0.0686871 -0.065563 0)
(-0.0539637 -0.0583797 0)
(-0.0402866 -0.0498661 0)
(-0.0279388 -0.040334 0)
(-0.0171815 -0.0301556 0)
(-0.00818753 -0.0197474 0)
(-0.00103207 -0.009517 0)
(0.00431187 0.000146945 0)
(0.00794836 0.00889097 0)
(0.010005 0.0163691 0)
(0.0105724 0.022172 0)
(0.00968964 0.025812 0)
(0.0074408 0.0267675 0)
(0.00420707 0.0240459 0)
(0.000484799 0.0134413 0)
(0.00108089 -0.0107841 0)
(0.00432635 -0.0192393 0)
(0.00590661 -0.0186494 0)
(0.00635806 -0.0150431 0)
(0.0058227 -0.0102702 0)
(0.00445916 -0.00531251 0)
(0.0023327 -0.000516331 0)
(-0.000565687 0.00395233 0)
(-0.0042957 0.00805259 0)
(-0.00895159 0.0118473 0)
(-0.014643 0.0154825 0)
(-0.0214733 0.0191481 0)
(-0.0295237 0.0230284 0)
(-0.0388411 0.0272588 0)
(-0.0494236 0.0318967 0)
(-0.0612006 0.0369126 0)
(-0.0740483 0.0422064 0)
(-0.0877191 0.04756 0)
(-0.101856 0.0527554 0)
(-0.116141 0.0574872 0)
(-0.130136 0.0614733 0)
(-0.143397 0.0645121 0)
(-0.155649 0.0664862 0)
(-0.166827 0.0674275 0)
(-0.17698 0.0674454 0)
(-0.186155 0.0666741 0)
(-0.194447 0.065245 0)
(-0.201934 0.0632749 0)
(-0.20869 0.0608647 0)
(-0.214775 0.0580998 0)
(-0.220241 0.0550458 0)
(-0.225137 0.0517564 0)
(-0.229506 0.0482745 0)
(-0.233384 0.044637 0)
(-0.2368 0.0408757 0)
(-0.23978 0.03702 0)
(-0.242335 0.033095 0)
(-0.244479 0.0291176 0)
(-0.246249 0.0250415 0)
(-0.247691 0.0208652 0)
(-0.248768 0.0166353 0)
(-0.249488 0.0123255 0)
(-0.24984 0.00792922 0)
(-0.249817 0.0034296 0)
(-0.249406 -0.00119157 0)
(-0.248597 -0.00595466 0)
(-0.247411 -0.0108852 0)
(-0.245823 -0.0160103 0)
(-0.243827 -0.0213593 0)
(-0.241419 -0.0269677 0)
(-0.238537 -0.0328346 0)
(-0.235165 -0.0389977 0)
(-0.231234 -0.0453728 0)
(-0.226611 -0.0518859 0)
(-0.221173 -0.0584737 0)
(-0.214756 -0.0650052 0)
(-0.207209 -0.0713135 0)
(-0.198408 -0.0771568 0)
(-0.188375 -0.0824244 0)
(-0.177193 -0.0869204 0)
(-0.16473 -0.0902616 0)
(-0.151167 -0.0922218 0)
(-0.136552 -0.0924669 0)
(-0.121154 -0.0908231 0)
(-0.105211 -0.0870931 0)
(-0.0890228 -0.0812041 0)
(-0.0730648 -0.0732694 0)
(-0.0578969 -0.0636415 0)
(-0.0439012 -0.0526718 0)
(-0.0314216 -0.0408062 0)
(-0.0207204 -0.028552 0)
(-0.0119551 -0.0164329 0)
(-0.00515885 -0.00494588 0)
(-0.000241289 0.00548161 0)
(0.00298338 0.0144933 0)
(0.00470414 0.0217277 0)
(0.00504726 0.0267242 0)
(0.00411655 0.0288615 0)
(0.00226953 0.0268082 0)
(5.14695e-05 0.015164 0)
(0.00118374 -0.0133331 0)
(0.00346072 -0.0211635 0)
(0.00388813 -0.0191797 0)
(0.00318633 -0.0143803 0)
(0.0015635 -0.00876545 0)
(-0.000835872 -0.00303501 0)
(-0.00400973 0.00253925 0)
(-0.00801036 0.00784246 0)
(-0.0129275 0.0128677 0)
(-0.0188663 0.0176958 0)
(-0.0259294 0.0224708 0)
(-0.0341994 0.027361 0)
(-0.0437217 0.0325119 0)
(-0.0544891 0.0380031 0)
(-0.066417 0.0438252 0)
(-0.0793632 0.0498746 0)
(-0.09304 0.0559297 0)
(-0.107096 0.0617419 0)
(-0.121139 0.0669465 0)
(-0.134704 0.0712504 0)
(-0.147364 0.0744301 0)
(-0.15899 0.0764294 0)
(-0.169551 0.0773114 0)
(-0.1791 0.0772284 0)
(-0.187713 0.0763029 0)
(-0.195476 0.0746772 0)
(-0.20248 0.0724747 0)
(-0.208791 0.0698024 0)
(-0.214472 0.0667496 0)
(-0.219567 0.0633907 0)
(-0.224121 0.0597872 0)
(-0.228171 0.0559882 0)
(-0.231747 0.0520355 0)
(-0.234873 0.0479695 0)
(-0.237563 0.043826 0)
(-0.239902 0.0395666 0)
(-0.241913 0.0352279 0)
(-0.24361 0.0308174 0)
(-0.244995 0.026383 0)
(-0.246041 0.0219196 0)
(-0.246782 0.0173725 0)
(-0.24722 0.0127465 0)
(-0.247369 0.00802278 0)
(-0.247241 0.00318618 0)
(-0.246846 -0.00178064 0)
(-0.246191 -0.00689426 0)
(-0.245265 -0.0121847 0)
(-0.244061 -0.0176766 0)
(-0.242563 -0.0233915 0)
(-0.240751 -0.0293471 0)
(-0.238596 -0.0355463 0)
(-0.236053 -0.0419782 0)
(-0.23308 -0.0487345 0)
(-0.22966 -0.0558237 0)
(-0.225725 -0.0631745 0)
(-0.221186 -0.070722 0)
(-0.215943 -0.0783728 0)
(-0.209741 -0.0857292 0)
(-0.202187 -0.0924991 0)
(-0.193004 -0.0982613 0)
(-0.182203 -0.102793 0)
(-0.170052 -0.10599 0)
(-0.156427 -0.107317 0)
(-0.141595 -0.10655 0)
(-0.12574 -0.103414 0)
(-0.109172 -0.097738 0)
(-0.0922694 -0.0895166 0)
(-0.0756359 -0.0790168 0)
(-0.0599259 -0.0667694 0)
(-0.0455777 -0.0532802 0)
(-0.0329661 -0.0391382 0)
(-0.0223596 -0.0249924 0)
(-0.0138927 -0.0114826 0)
(-0.00753982 0.000826143 0)
(-0.00311668 0.0114964 0)
(-0.000351167 0.0201736 0)
(0.00101765 0.026459 0)
(0.00122476 0.0296792 0)
(0.000577473 0.0281645 0)
(-0.000257241 0.0157359 0)
(0.00112961 -0.0154622 0)
(0.00220107 -0.0219126 0)
(0.00140189 -0.0184439 0)
(-0.000459061 -0.0126187 0)
(-0.00315235 -0.00620475 0)
(-0.00660488 0.000298139 0)
(-0.0108549 0.00669112 0)
(-0.0159854 0.0128975 0)
(-0.0220969 0.0189275 0)
(-0.0292868 0.0248617 0)
(-0.0376346 0.030826 0)
(-0.0471849 0.0369509 0)
(-0.0579303 0.0433239 0)
(-0.0697945 0.0499603 0)
(-0.0826269 0.0567632 0)
(-0.09612 0.0635082 0)
(-0.109933 0.0699067 0)
(-0.123617 0.0755945 0)
(-0.136667 0.0802379 0)
(-0.148814 0.0836351 0)
(-0.159909 0.0857491 0)
(-0.169951 0.0866944 0)
(-0.178988 0.0865837 0)
(-0.187115 0.085584 0)
(-0.194414 0.0838282 0)
(-0.20097 0.0814561 0)
(-0.206852 0.0785753 0)
(-0.212114 0.0752821 0)
(-0.216804 0.0716558 0)
(-0.220961 0.0677642 0)
(-0.224623 0.0636636 0)
(-0.227822 0.0594014 0)
(-0.230587 0.0550177 0)
(-0.232984 0.0505222 0)
(-0.23504 0.0459465 0)
(-0.236742 0.0413487 0)
(-0.238089 0.0367169 0)
(-0.239104 0.0320464 0)
(-0.239834 0.027335 0)
(-0.240293 0.0225759 0)
(-0.240527 0.0177615 0)
(-0.240549 0.0128869 0)
(-0.240383 0.00793512 0)
(-0.240043 0.00288659 0)
(-0.239546 -0.00228363 0)
(-0.238892 -0.00760289 0)
(-0.238073 -0.0131033 0)
(-0.2371 -0.0188174 0)
(-0.235967 -0.0247795 0)
(-0.23467 -0.0310214 0)
(-0.233195 -0.0375667 0)
(-0.231513 -0.0444279 0)
(-0.229588 -0.0516031 0)
(-0.227372 -0.0590757 0)
(-0.224789 -0.0668091 0)
(-0.221741 -0.0747263 0)
(-0.21809 -0.0827381 0)
(-0.213826 -0.0910226 0)
(-0.208772 -0.0992206 0)
(-0.202673 -0.106938 0)
(-0.195031 -0.113553 0)
(-0.185184 -0.118302 0)
(-0.173389 -0.121069 0)
(-0.159881 -0.121643 0)
(-0.14482 -0.11963 0)
(-0.128445 -0.114704 0)
(-0.111185 -0.10681 0)
(-0.0934486 -0.0959792 0)
(-0.0760348 -0.082699 0)
(-0.0597347 -0.0677176 0)
(-0.0450452 -0.0517178 0)
(-0.0323678 -0.0354439 0)
(-0.021969 -0.0196973 0)
(-0.0139369 -0.00522848 0)
(-0.00815564 0.0073605 0)
(-0.00432024 0.0176294 0)
(-0.00203789 0.0252166 0)
(-0.000920149 0.0293556 0)
(-0.000539454 0.0283297 0)
(-0.000326293 0.0155503 0)
(0.000937307 -0.0167196 0)
(0.000666099 -0.0213687 0)
(-0.00139258 -0.0164783 0)
(-0.00436458 -0.00976265 0)
(-0.00812 -0.00258304 0)
(-0.0126293 0.00470123 0)
(-0.0179559 0.0119497 0)
(-0.0241983 0.019108 0)
(-0.031452 0.0261858 0)
(-0.0397929 0.0332462 0)
(-0.049264 0.0403811 0)
(-0.0598587 0.0476672 0)
(-0.0715173 0.0551303 0)
(-0.0840951 0.0626961 0)
(-0.0972817 0.070141 0)
(-0.110728 0.0771486 0)
(-0.123993 0.0833599 0)
(-0.136588 0.0884055 0)
(-0.148278 0.0921168 0)
(-0.158931 0.0944738 0)
(-0.168521 0.0955502 0)
(-0.177122 0.0955022 0)
(-0.184813 0.0944883 0)
(-0.191686 0.0926686 0)
(-0.197812 0.0901741 0)
(-0.203261 0.0871285 0)
(-0.208081 0.083628 0)
(-0.212318 0.0797608 0)
(-0.216015 0.0756006 0)
(-0.219208 0.0712116 0)
(-0.221935 0.0666477 0)
(-0.224233 0.0619546 0)
(-0.226142 0.0571684 0)
(-0.227665 0.0523295 0)
(-0.22885 0.0474428 0)
(-0.229717 0.0425281 0)
(-0.230321 0.0375892 0)
(-0.230707 0.0326387 0)
(-0.230882 0.0276816 0)
(-0.230875 0.0227101 0)
(-0.230711 0.0177137 0)
(-0.230407 0.0126786 0)
(-0.229981 0.00758464 0)
(-0.229448 0.00240863 0)
(-0.22882 -0.00287672 0)
(-0.228106 -0.00830093 0)
(-0.227318 -0.0138975 0)
(-0.226467 -0.0196998 0)
(-0.225562 -0.0257443 0)
(-0.224608 -0.0320672 0)
(-0.223605 -0.0387028 0)
(-0.222545 -0.0456831 0)
(-0.221409 -0.0530365 0)
(-0.220171 -0.060776 0)
(-0.218779 -0.0688928 0)
(-0.217154 -0.0773426 0)
(-0.215179 -0.0860294 0)
(-0.212727 -0.0948071 0)
(-0.20962 -0.103492 0)
(-0.205634 -0.112056 0)
(-0.200698 -0.120346 0)
(-0.194388 -0.127621 0)
(-0.185984 -0.132931 0)
(-0.174778 -0.135283 0)
(-0.161467 -0.135 0)
(-0.1461 -0.131465 0)
(-0.129146 -0.124546 0)
(-0.111044 -0.114152 0)
(-0.0923765 -0.100461 0)
(-0.074133 -0.0842268 0)
(-0.0572485 -0.0664563 0)
(-0.0422996 -0.0480299 0)
(-0.0296989 -0.0298705 0)
(-0.0196889 -0.0129474 0)
(-0.012276 0.00191639 0)
(-0.00720733 0.0140888 0)
(-0.00399305 0.0231257 0)
(-0.00216201 0.0281219 0)
(-0.00103818 0.0276381 0)
(-0.000259622 0.0149795 0)
(0.000676529 -0.0170744 0)
(-0.00105464 -0.0195117 0)
(-0.00431078 -0.0133571 0)
(-0.00835555 -0.00582043 0)
(-0.0131582 0.00209351 0)
(-0.0187014 0.0101609 0)
(-0.0250682 0.0182843 0)
(-0.0323577 0.0264121 0)
(-0.0406483 0.0345354 0)
(-0.0499834 0.0426847 0)
(-0.0603595 0.0509034 0)
(-0.0717273 0.0592116 0)
(-0.0839631 0.0675551 0)
(-0.0967784 0.0757136 0)
(-0.109807 0.0833698 0)
(-0.122636 0.0901618 0)
(-0.134834 0.0957228 0)
(-0.146131 0.0998609 0)
(-0.156405 0.102554 0)
(-0.165618 0.103862 0)
(-0.173833 0.103951 0)
(-0.181138 0.102997 0)
(-0.187611 0.101163 0)
(-0.193326 0.0985936 0)
(-0.198339 0.0954126 0)
(-0.202704 0.0917303 0)
(-0.206464 0.0876381 0)
(-0.209663 0.0832207 0)
(-0.212343 0.0785502 0)
(-0.214549 0.0736904 0)
(-0.216321 0.0686948 0)
(-0.217703 0.063608 0)
(-0.218736 0.0584644 0)
(-0.219459 0.0532929 0)
(-0.219918 0.0481123 0)
(-0.220147 0.0429429 0)
(-0.220183 0.0377906 0)
(-0.220055 0.0326573 0)
(-0.219784 0.0275416 0)
(-0.219395 0.0224351 0)
(-0.218904 0.017323 0)
(-0.218328 0.0121886 0)
(-0.217682 0.00701011 0)
(-0.216981 0.00176352 0)
(-0.216239 -0.00357824 0)
(-0.215467 -0.00904491 0)
(-0.214681 -0.0146703 0)
(-0.213896 -0.0204891 0)
(-0.213124 -0.0265383 0)
(-0.212381 -0.0328556 0)
(-0.211674 -0.0394789 0)
(-0.211011 -0.0464459 0)
(-0.210393 -0.0537923 0)
(-0.209813 -0.0615465 0)
(-0.209248 -0.0697253 0)
(-0.208652 -0.0783283 0)
(-0.20795 -0.0873307 0)
(-0.207032 -0.0966641 0)
(-0.205737 -0.106163 0)
(-0.203856 -0.115576 0)
(-0.201126 -0.124583 0)
(-0.197213 -0.133025 0)
(-0.191956 -0.140682 0)
(-0.184722 -0.146323 0)
(-0.174359 -0.148556 0)
(-0.161136 -0.147155 0)
(-0.145436 -0.141983 0)
(-0.127749 -0.132788 0)
(-0.108666 -0.119596 0)
(-0.0890061 -0.102821 0)
(-0.0699421 -0.0834991 0)
(-0.0525732 -0.062955 0)
(-0.0375398 -0.0422808 0)
(-0.0252507 -0.0226403 0)
(-0.0158802 -0.00512375 0)
(-0.00929028 0.00937449 0)
(-0.00500839 0.0201879 0)
(-0.00251239 0.0262844 0)
(-0.000983741 0.0264882 0)
(-6.64932e-05 0.0143335 0)
(0.000187194 -0.0163971 0)
(-0.00287666 -0.0164018 0)
(-0.0072315 -0.00909544 0)
(-0.0122998 -0.000826511 0)
(-0.018105 0.00778756 0)
(-0.0246278 0.0166286 0)
(-0.0319591 0.0256219 0)
(-0.0401889 0.0347 0)
(-0.0493686 0.0438199 0)
(-0.059501 0.0529667 0)
(-0.0705444 0.0621308 0)
(-0.0823965 0.0712678 0)
(-0.0948044 0.0801686 0)
(-0.107412 0.0885196 0)
(-0.119826 0.0959583 0)
(-0.131666 0.102137 0)
(-0.142639 0.106822 0)
(-0.15259 0.109951 0)
(-0.161493 0.111596 0)
(-0.169382 0.111908 0)
(-0.176346 0.111082 0)
(-0.182459 0.10929 0)
(-0.187788 0.106687 0)
(-0.19239 0.103405 0)
(-0.196315 0.0995622 0)
(-0.199613 0.095263 0)
(-0.202331 0.0905998 0)
(-0.204521 0.0856573 0)
(-0.206235 0.0805086 0)
(-0.207525 0.075218 0)
(-0.208443 0.0698385 0)
(-0.209038 0.064413 0)
(-0.209358 0.0589751 0)
(-0.209448 0.0535521 0)
(-0.209346 0.048162 0)
(-0.209085 0.0428171 0)
(-0.208694 0.0375185 0)
(-0.208195 0.0322641 0)
(-0.207609 0.0270478 0)
(-0.206951 0.0218575 0)
(-0.206236 0.0166774 0)
(-0.205477 0.0114892 0)
(-0.204687 0.00627075 0)
(-0.203878 0.000997882 0)
(-0.203062 -0.00435616 0)
(-0.202252 -0.00982083 0)
(-0.201464 -0.0154288 0)
(-0.200712 -0.0212145 0)
(-0.200014 -0.0272147 0)
(-0.199388 -0.0334679 0)
(-0.19885 -0.0400137 0)
(-0.198416 -0.0468929 0)
(-0.1981 -0.0541454 0)
(-0.19791 -0.0618072 0)
(-0.197844 -0.0699068 0)
(-0.197886 -0.0784623 0)
(-0.197998 -0.0874772 0)
(-0.198116 -0.0969299 0)
(-0.198129 -0.106755 0)
(-0.19787 -0.116826 0)
(-0.1971 -0.12689 0)
(-0.19551 -0.136533 0)
(-0.192708 -0.145256 0)
(-0.188275 -0.152914 0)
(-0.181794 -0.158616 0)
(-0.172149 -0.160598 0)
(-0.158948 -0.15807 0)
(-0.142796 -0.151045 0)
(-0.124201 -0.139237 0)
(-0.104045 -0.122957 0)
(-0.0833729 -0.102869 0)
(-0.0636046 -0.0803784 0)
(-0.0459651 -0.0571688 0)
(-0.0311521 -0.0346019 0)
(-0.0195203 -0.0140712 0)
(-0.0110898 0.00321396 0)
(-0.0055072 0.0163043 0)
(-0.00227806 0.0239966 0)
(-0.000502556 0.0252451 0)
(0.000194772 0.0139752 0)
(-0.000322591 -0.0145775 0)
(-0.00467602 -0.0120697 0)
(-0.0100431 -0.0037692 0)
(-0.0160696 0.0051552 0)
(-0.0228077 0.0144311 0)
(-0.0302269 0.0240216 0)
(-0.0384166 0.0338529 0)
(-0.0474492 0.0438258 0)
(-0.0573432 0.0538519 0)
(-0.0680647 0.0638632 0)
(-0.0795286 0.0738 0)
(-0.0915207 0.0834625 0)
(-0.103717 0.0925534 0)
(-0.115752 0.100711 0)
(-0.127271 0.107594 0)
(-0.137983 0.112942 0)
(-0.147685 0.116626 0)
(-0.156337 0.118712 0)
(-0.163967 0.119347 0)
(-0.170643 0.118724 0)
(-0.176447 0.117038 0)
(-0.181437 0.114449 0)
(-0.185672 0.111105 0)
(-0.189204 0.107133 0)
(-0.192086 0.102651 0)
(-0.194376 0.0977636 0)
(-0.196132 0.0925677 0)
(-0.197418 0.087149 0)
(-0.198293 0.0815814 0)
(-0.198819 0.0759276 0)
(-0.19905 0.070238 0)
(-0.199038 0.0645524 0)
(-0.198829 0.0589005 0)
(-0.198463 0.0533029 0)
(-0.197971 0.0477716 0)
(-0.19738 0.0423122 0)
(-0.196712 0.0369224 0)
(-0.195983 0.0315955 0)
(-0.195207 0.0263218 0)
(-0.194396 0.0210871 0)
(-0.193559 0.0158742 0)
(-0.192705 0.010664 0)
(-0.191844 0.00543457 0)
(-0.190983 0.000162089 0)
(-0.190134 -0.00517913 0)
(-0.189308 -0.0106176 0)
(-0.18852 -0.0161839 0)
(-0.187784 -0.0219109 0)
(-0.187119 -0.0278336 0)
(-0.186546 -0.0339895 0)
(-0.186085 -0.0404182 0)
(-0.18576 -0.0471614 0)
(-0.185592 -0.0542615 0)
(-0.185601 -0.0617603 0)
(-0.185799 -0.069696 0)
(-0.186189 -0.0781006 0)
(-0.186761 -0.0869951 0)
(-0.187482 -0.0963812 0)
(-0.188289 -0.106233 0)
(-0.189074 -0.116485 0)
(-0.18967 -0.127011 0)
(-0.189823 -0.137586 0)
(-0.189183 -0.147809 0)
(-0.187312 -0.15704 0)
(-0.183638 -0.16458 0)
(-0.177639 -0.170078 0)
(-0.168301 -0.171465 0)
(-0.154988 -0.167703 0)
(-0.138159 -0.158464 0)
(-0.118509 -0.143683 0)
(-0.0972201 -0.12397 0)
(-0.0756126 -0.100335 0)
(-0.055379 -0.0746678 0)
(-0.0378647 -0.0490749 0)
(-0.0237278 -0.0252037 0)
(-0.013184 -0.00465707 0)
(-0.00604619 0.0112862 0)
(-0.00191455 0.0212286 0)
(0.000111098 0.024064 0)
(0.000432336 0.0140761 0)
(-0.000843036 -0.0116881 0)
(-0.0063733 -0.00662681 0)
(-0.0126535 0.00254124 0)
(-0.0195533 0.0120465 0)
(-0.0271348 0.0219366 0)
(-0.0353437 0.0322322 0)
(-0.0442628 0.0428431 0)
(-0.0539416 0.053625 0)
(-0.0643651 0.0644339 0)
(-0.0754629 0.0751558 0)
(-0.0870518 0.0855819 0)
(-0.098857 0.0954419 0)
(-0.11055 0.10438 0)
(-0.121791 0.112046 0)
(-0.132293 0.118158 0)
(-0.141823 0.122529 0)
(-0.150295 0.125171 0)
(-0.157734 0.126234 0)
(-0.164194 0.125909 0)
(-0.169748 0.124399 0)
(-0.174463 0.121886 0)
(-0.178393 0.118528 0)
(-0.181596 0.114468 0)
(-0.184131 0.109836 0)
(-0.186063 0.104754 0)
(-0.18746 0.0993317 0)
(-0.188394 0.0936664 0)
(-0.188933 0.087844 0)
(-0.189144 0.0819361 0)
(-0.189089 0.0760007 0)
(-0.188821 0.0700829 0)
(-0.188387 0.0642157 0)
(-0.187826 0.0584216 0)
(-0.187171 0.0527143 0)
(-0.186445 0.0470994 0)
(-0.185669 0.0415763 0)
(-0.184857 0.0361383 0)
(-0.184018 0.0307762 0)
(-0.183162 0.0254773 0)
(-0.182294 0.0202253 0)
(-0.181418 0.0150017 0)
(-0.180541 0.00978773 0)
(-0.179666 0.00456202 0)
(-0.178799 -0.000698321 0)
(-0.17795 -0.00601746 0)
(-0.177126 -0.0114218 0)
(-0.176341 -0.0169395 0)
(-0.17561 -0.0226005 0)
(-0.174952 -0.0284373 0)
(-0.174387 -0.0344848 0)
(-0.17394 -0.0407809 0)
(-0.173638 -0.0473661 0)
(-0.173508 -0.0542835 0)
(-0.173578 -0.0615774 0)
(-0.173872 -0.0692925 0)
(-0.174408 -0.0774714 0)
(-0.175194 -0.0861503 0)
(-0.176221 -0.0953533 0)
(-0.177458 -0.105084 0)
(-0.178837 -0.115313 0)
(-0.180247 -0.125966 0)
(-0.181515 -0.136901 0)
(-0.18238 -0.147885 0)
(-0.182463 -0.158527 0)
(-0.181256 -0.168152 0)
(-0.178138 -0.17583 0)
(-0.172374 -0.180823 0)
(-0.162986 -0.181312 0)
(-0.149278 -0.175922 0)
(-0.131531 -0.164026 0)
(-0.110705 -0.145823 0)
(-0.0882915 -0.122271 0)
(-0.065957 -0.0948737 0)
(-0.0456946 -0.0661855 0)
(-0.0288754 -0.038737 0)
(-0.0160073 -0.0144571 0)
(-0.00709845 0.00493647 0)
(-0.00185536 0.0178323 0)
(0.000570664 0.0229057 0)
(0.000617949 0.0145422 0)
(-0.00134325 -0.00778364 0)
(-0.00790684 -0.000184121 0)
(-0.0149936 0.00973682 0)
(-0.0226688 0.0197495 0)
(-0.0309822 0.0301957 0)
(-0.0398558 0.0411348 0)
(-0.0493612 0.052443 0)
(-0.0595209 0.0639203 0)
(-0.0702862 0.0753742 0)
(-0.0814987 0.086547 0)
(-0.092941 0.0971806 0)
(-0.10433 0.106943 0)
(-0.115333 0.115457 0)
(-0.125672 0.122423 0)
(-0.135094 0.1276 0)
(-0.14347 0.130932 0)
(-0.150792 0.132538 0)
(-0.157112 0.132615 0)
(-0.162495 0.13137 0)
(-0.167006 0.129005 0)
(-0.170708 0.125695 0)
(-0.173658 0.121597 0)
(-0.175925 0.116861 0)
(-0.177579 0.11162 0)
(-0.178697 0.106002 0)
(-0.179359 0.100118 0)
(-0.17964 0.094064 0)
(-0.179614 0.0879228 0)
(-0.179345 0.0817594 0)
(-0.17889 0.0756245 0)
(-0.178298 0.0695548 0)
(-0.177607 0.0635752 0)
(-0.176849 0.0577004 0)
(-0.176047 0.0519367 0)
(-0.175219 0.0462836 0)
(-0.174375 0.0407352 0)
(-0.173524 0.0352816 0)
(-0.172669 0.0299099 0)
(-0.171814 0.024605 0)
(-0.170961 0.0193512 0)
(-0.170108 0.0141285 0)
(-0.169258 0.00891731 0)
(-0.168411 0.00369909 0)
(-0.167572 -0.00154823 0)
(-0.166746 -0.00684709 0)
(-0.16594 -0.0122208 0)
(-0.165164 -0.0176946 0)
(-0.164434 -0.0232953 0)
(-0.163766 -0.0290517 0)
(-0.163183 -0.0349953 0)
(-0.162708 -0.0411609 0)
(-0.162371 -0.0475863 0)
(-0.162203 -0.0543131 0)
(-0.162237 -0.0613863 0)
(-0.162506 -0.0688533 0)
(-0.16304 -0.0767634 0)
(-0.163862 -0.0851642 0)
(-0.164982 -0.0940974 0)
(-0.166393 -0.103593 0)