/*--------------------------------*- C++ -*----------------------------------*\
  =========                 |
  \\      /  F ield         | OpenFOAM: The Open Source CFD Toolbox
   \\    /   O peration     | Website:  https://openfoam.org
    \\  /    A nd           | Version:  13
     \\/     M anipulation  |
\*---------------------------------------------------------------------------*/
FoamFile
{
    format      ascii;
    class       volScalarField;
    location    "3.6";
    object      epsilon;
}
// * * * * * * * * * * * * * * * * * * * * * * * * * * * * * * * * * * * * * //

dimensions      [0 2 -3 0 0 0 0];

internalField   nonuniform List<scalar> 
6400
(
2.03997e-05
0.00010374
0.000244773
0.000392914
0.000511483
0.000588658
0.000631403
0.000656227
0.000681479
0.000724511
0.000799095
0.000916667
0.00108634
0.0013111
0.00158395
0.00189521
0.00223591
0.0026
0.00297331
0.00334699
0.00372348
0.00412577
0.00458754
0.00513936
0.00578478
0.00648419
0.00717783
0.00787927
0.0085936
0.00933791
0.0101184
0.0109172
0.0117002
0.0124717
0.0132271
0.0139892
0.0147611
0.0155601
0.0163918
0.017268
0.0181924
0.0191727
0.0202167
0.0213301
0.0225153
0.0237787
0.0251462
0.0266854
0.0285318
0.0306906
0.0327532
0.0348821
0.0369182
0.0388697
0.0406394
0.0421723
0.0433835
0.0440312
0.0442952
0.0442474
0.0433662
0.0417876
0.0395044
0.0365651
0.0330746
0.0291503
0.0249988
0.0208278
0.0168204
0.0130879
0.00986307
0.00725892
0.00513067
0.00346915
0.00224854
0.00139779
0.000831755
0.000464473
0.000212604
4.48472e-05
9.91786e-05
9.49691e-05
0.000150993
0.000217824
0.000272054
0.000310188
0.000335595
0.00035472
0.000375476
0.000407251
0.000459269
0.000541032
0.000662033
0.000829779
0.00104833
0.00132121
0.00165261
0.00204824
0.00251295
0.00305412
0.00368416
0.00441019
0.0052665
0.00627979
0.00745028
0.0087584
0.0102245
0.0117224
0.0131842
0.014542
0.0157135
0.0166604
0.0174072
0.0179575
0.0183593
0.0186433
0.0188449
0.0189966
0.0191232
0.0192444
0.019378
0.0195439
0.019749
0.0199786
0.0202282
0.0205121
0.0208648
0.0212883
0.0217714
0.0223262
0.0229133
0.0235286
0.0241465
0.0247413
0.0252805
0.0257245
0.0259754
0.0260582
0.0259637
0.0256294
0.02495
0.0239584
0.022621
0.020957
0.0190225
0.0168884
0.014654
0.0124164
0.0102766
0.00830616
0.00659182
0.00514893
0.00392479
0.00289148
0.00203827
0.00135659
0.000836255
0.00046751
0.000238741
0.000234716
0.000217436
0.000167847
0.000215089
0.000269311
0.000308027
0.000334641
0.000356496
0.000381738
0.000419714
0.000482075
0.000582067
0.000735324
0.000957468
0.00126173
0.00165886
0.00216113
0.00277951
0.00352507
0.00440577
0.00542648
0.00658906
0.00789232
0.00929856
0.0107345
0.0120931
0.0132514
0.0140776
0.014642
0.015007
0.0152518
0.0154558
0.0155522
0.0155574
0.0153858
0.0152184
0.0150325
0.0148672
0.014731
0.0146549
0.0146268
0.0146315
0.0147228
0.0148638
0.0150936
0.0154135
0.0158218
0.0162954
0.0168383
0.0174417
0.0181044
0.0188154
0.0195645
0.020337
0.0211129
0.0218676
0.0225665
0.0231665
0.0236092
0.0238109
0.0238381
0.0235538
0.0229019
0.0218619
0.0204502
0.0187261
0.0167626
0.0146508
0.012499
0.010405
0.00845819
0.00672936
0.00525374
0.00402905
0.00303133
0.00222757
0.00158338
0.00106991
0.00066857
0.000416585
0.000610243
0.000374821
0.000284303
0.000335167
0.000387819
0.000423401
0.000451134
0.000482482
0.000529867
0.00060782
0.000734346
0.000932327
0.00122576
0.00163636
0.00218097
0.00287167
0.00371629
0.00471915
0.00587215
0.00714891
0.0085003
0.00985575
0.0111259
0.0122137
0.0130262
0.0135041
0.0137295
0.0138143
0.0138222
0.0136189
0.0132799
0.0128863
0.0124557
0.0121351
0.0118751
0.0116609
0.0115011
0.0114167
0.0113855
0.0113926
0.0114858
0.0116303
0.0118454
0.0121204
0.0124641
0.0128717
0.0133436
0.0138778
0.014477
0.0151392
0.0158638
0.0166473
0.0174834
0.0183628
0.0192708
0.0201859
0.0210783
0.0219085
0.0226305
0.0231742
0.023433
0.0234828
0.0231663
0.0225111
0.0214371
0.0198839
0.0179953
0.0158536
0.0135829
0.0113124
0.00916458
0.00723787
0.00559281
0.00424646
0.00318048
0.00235389
0.00171765
0.00122219
0.00083509
0.000602287
0.000981318
0.00059193
0.000443989
0.000493223
0.000547122
0.000588773
0.00063049
0.000688038
0.000780136
0.000929869
0.00116545
0.00151824
0.00201719
0.0026829
0.0035246
0.00454006
0.00571381
0.00701201
0.00837417
0.00971215
0.0109171
0.0118903
0.0125172
0.0128088
0.0129045
0.0128907
0.012592
0.0120857
0.0115421
0.0110228
0.0105934
0.0101968
0.00987305
0.00962716
0.00943915
0.009313
0.00925226
0.00923276
0.00925188
0.00933333
0.00946015
0.00963296
0.0098533
0.0101196
0.0104345
0.0107983
0.0112142
0.0116849
0.0122141
0.0128046
0.0134599
0.0141823
0.0149725
0.0158286
0.0167452
0.0177123
0.0187132
0.0197177
0.0206875
0.0215736
0.0223113
0.0227565
0.0229146
0.0227246
0.0221221
0.0210727
0.0194386
0.0173859
0.0150559
0.012602
0.0101902
0.00797319
0.00606185
0.00450803
0.00330543
0.00240688
0.00174668
0.00125817
0.000901909
0.000718747
0.00122009
0.000894416
0.000653082
0.000692102
0.000751446
0.000810078
0.000880947
0.000985274
0.00115027
0.00140918
0.00179929
0.00235586
0.00310318
0.0040473
0.00517278
0.00644186
0.00779237
0.00913536
0.0103577
0.0113465
0.0119575
0.0122229
0.0122935
0.0121502
0.0117187
0.0110886
0.0104409
0.00987812
0.00935872
0.00892148
0.00855915
0.00825834
0.00802572
0.0078493
0.00772201
0.00764503
0.00760981
0.00759997
0.00762237
0.00768474
0.00777413
0.00789449
0.00804437
0.00822476
0.0084373
0.00868434
0.00896953
0.00929744
0.00967371
0.0101051
0.0105994
0.0111649
0.0118102
0.0125426
0.0133678
0.0142876
0.0152986
0.0163927
0.0175446
0.018725
0.0198777
0.0209258
0.0217679
0.0221795
0.0222726
0.0218712
0.0209343
0.0192174
0.0169997
0.0144415
0.0117507
0.00915495
0.00685047
0.00496016
0.0035163
0.00247519
0.00174861
0.0012446
0.000902331
0.000764337
0.00130291
0.00130751
0.000916912
0.000940047
0.00101166
0.00110047
0.00121782
0.00139223
0.00166043
0.00206415
0.00264369
0.00342735
0.00442027
0.00559755
0.00690264
0.00824948
0.00952768
0.0106132
0.0113574
0.011696
0.0117916
0.0116638
0.0111998
0.0105136
0.00980881
0.00915968
0.00857767
0.00808593
0.0076634
0.00731779
0.00703341
0.00680391
0.00662372
0.00648355
0.00637836
0.00630344
0.00625499
0.00623188
0.00622506
0.00623756
0.00627135
0.00632232
0.00639193
0.00648078
0.00659057
0.00672358
0.00688301
0.00707281
0.00729835
0.00756624
0.00788471
0.00826368
0.00871533
0.00925533
0.00989955
0.0106648
0.0115663
0.0126166
0.0138138
0.0151426
0.0165806
0.018071
0.0195341
0.0208474
0.021743
0.0221023
0.0220794
0.0212147
0.0194112
0.0169566
0.0140716
0.011056
0.00822305
0.0058193
0.00396677
0.00265622
0.00178722
0.00122844
0.000884302
0.000760774
0.00127132
0.00185448
0.00123915
0.00124449
0.00134011
0.00147285
0.00165459
0.00192174
0.00231874
0.00288988
0.00366774
0.00465966
0.00583726
0.00713292
0.00844395
0.00964407
0.0106027
0.0111277
0.0113141
0.0113206
0.0109462
0.0102627
0.00950142
0.00878205
0.00812923
0.00756541
0.00708494
0.00668381
0.00634726
0.00607047
0.00584107
0.00565333
0.00550036
0.00537618
0.0052768
0.00519866
0.00513915
0.00509578
0.00506801
0.00505527
0.0050519
0.00506228
0.00508751
0.00512616
0.00518017
0.00525089
0.0053407
0.00545213
0.00558882
0.00575502
0.00595624
0.00620008
0.00649568
0.00685501
0.00729346
0.00783187
0.00849737
0.00932026
0.0103332
0.011556
0.0130077
0.0146689
0.0164851
0.0183793
0.0201954
0.0217107
0.0224658
0.0226947
0.0219549
0.0199958
0.0171897
0.0138612
0.0104393
0.00734323
0.00486189
0.00308632
0.00194014
0.00125485
0.000868251
0.000741966
0.00120419
0.00255255
0.0016229
0.00161284
0.00174644
0.00193571
0.00219761
0.00257434
0.00311292
0.00385076
0.00480026
0.00593559
0.00718672
0.00844355
0.00957081
0.0104163
0.0108224
0.0109457
0.0107917
0.0102411
0.00945998
0.00868601
0.00795191
0.00731058
0.00675811
0.00629328
0.00590311
0.00557733
0.00530455
0.00507754
0.00488786
0.00473055
0.00460029
0.00449325
0.00440642
0.00433726
0.00428371
0.00424428
0.00421833
0.00420583
0.00420181
0.00420809
0.00422818
0.00425877
0.00430194
0.00435817
0.00442916
0.0045164
0.00462229
0.00474964
0.00490191
0.00508263
0.00529686
0.00555071
0.00585252
0.00621315
0.00664984
0.0071877
0.00786886
0.0087494
0.00988952
0.0113482
0.0131321
0.0152267
0.0175286
0.0198846
0.0219914
0.0232265
0.0236918
0.0230514
0.0208285
0.0175354
0.0136534
0.00978041
0.00644818
0.00395632
0.0023214
0.00137344
0.000886021
0.000724548
0.00115112
0.00341129
0.00207343
0.00205414
0.00223313
0.00249029
0.00284264
0.00333457
0.00400825
0.00488385
0.00594331
0.00712173
0.0083099
0.00936974
0.0101247
0.0104662
0.0105562
0.0102819
0.00962662
0.00882426
0.00802059
0.00729308
0.00665367
0.00611413
0.0056592
0.00527958
0.00496189
0.00469654
0.00447494
0.00429086
0.00413848
0.00401373
0.00391268
0.00383238
0.0037702
0.00372394
0.00369157
0.00367389
0.00366664
0.0036657
0.00367725
0.0036976
0.00372791
0.00376731
0.00381689
0.0038771
0.00394908
0.0040338
0.00413288
0.00424802
0.00438131
0.00453522
0.00471288
0.00491817
0.00515615
0.0054335
0.00575706
0.00613926
0.00659776
0.0071616
0.00787955
0.00884026
0.0101836
0.011998
0.014277
0.0169635
0.019867
0.0226005
0.0243159
0.0249859
0.0243584
0.0217199
0.0177892
0.0132689
0.00896279
0.0054906
0.00309773
0.00167566
0.000969677
0.000734965
0.0011521
0.00445495
0.00260241
0.00257054
0.00279938
0.00312973
0.0035735
0.00417133
0.00495237
0.00591106
0.00699425
0.00810095
0.00909643
0.00979547
0.0101017
0.010168
0.00981803
0.00912202
0.00831377
0.00750036
0.00676596
0.00613352
0.00559814
0.00515265
0.00478066
0.00447181
0.00421511
0.00400298
0.00382884
0.00368755
0.0035745
0.00348592
0.00341831
0.00336875
0.00333451
0.00331506
0.00330661
0.00330487
0.00331274
0.00332838
0.00335213
0.00338277
0.00342107
0.00346703
0.00352155
0.00358535
0.00365956
0.00374535
0.00384423
0.00395773
0.00408757
0.00423554
0.00440358
0.00459375
0.00480835
0.00505022
0.0053233
0.00563373
0.00599136
0.00641055
0.00691151
0.00753416
0.00835275
0.00950304
0.011235
0.0136416
0.0166716
0.020124
0.0235236
0.0256675
0.0264786
0.0257023
0.0224462
0.0177189
0.0125334
0.00790499
0.00445898
0.00229779
0.00118628
0.000789613
0.0012116
0.00571511
0.0032208
0.0031588
0.00343637
0.00383808
0.00436328
0.00504233
0.00588458
0.0068549
0.00786761
0.00879767
0.00946335
0.00975275
0.00980443
0.00943574
0.00873445
0.00791587
0.00709917
0.00635721
0.00572244
0.00519053
0.00474863
0.00438385
0.00408244
0.00383521
0.00363353
0.00347114
0.00334233
0.00324228
0.00316655
0.00311126
0.00307283
0.00304883
0.00303731
0.00303344
0.00303465
0.00304432
0.00305942
0.00308002
0.0031061
0.00313774
0.00317569
0.00322061
0.00327359
0.00333577
0.00340848
0.00349322
0.00359166
0.0037055
0.00383655
0.00398659
0.00415734
0.00435038
0.00456701
0.00480828
0.00507505
0.00536849
0.00569099
0.00604814
0.00645217
0.00692524
0.00749526
0.00822988
0.00926096
0.0108435
0.0133211
0.0166626
0.0206834
0.0247667
0.0272096
0.0280472
0.0268759
0.022734
0.0170809
0.0113144
0.00658182
0.00338377
0.00163599
0.000940401
0.00139949
0.00712632
0.00390779
0.00380629
0.00412812
0.00459194
0.00517786
0.00590054
0.00674611
0.00765147
0.00850799
0.00914712
0.00942888
0.00947993
0.0091267
0.00844605
0.0076267
0.00680155
0.00605062
0.00540706
0.00487216
0.00443122
0.00406965
0.00377461
0.00353512
0.00334313
0.00319127
0.00307357
0.00298442
0.00291885
0.00287232
0.00284082
0.00282109
0.00281131
0.00280742
0.00280677
0.00281124
0.00281989
0.00283201
0.00284798
0.00286828
0.00289363
0.00292501
0.0029635
0.00301039
0.00306707
0.00313509
0.00321612
0.00331202
0.00342472
0.00355628
0.00370878
0.00388427
0.00408461
0.00431128
0.00456515
0.00484631
0.00515392
0.00548646
0.00584261
0.00622331
0.00663588
0.0071008
0.00764814
0.00833559
0.0092935
0.0107851
0.0133048
0.0169814
0.0215983
0.0263513
0.0288426
0.0295671
0.027598
0.0222729
0.0156768
0.00956389
0.00505645
0.00240751
0.00126169
0.00180773
0.00864983
0.00464848
0.00449673
0.00485344
0.00536302
0.00598019
0.00670048
0.00748692
0.00825437
0.00886141
0.00914305
0.00920514
0.00888778
0.00824526
0.00743588
0.00660125
0.00583468
0.00517664
0.0046315
0.0041863
0.0038244
0.00353211
0.00329806
0.00311293
0.00296906
0.0028594
0.00277779
0.00271851
0.0026765
0.00264736
0.00262749
0.00261415
0.0026052
0.0025988
0.00259508
0.00259365
0.00259361
0.00259705
0.00260361
0.00261436
0.00263054
0.0026531
0.00268329
0.00272246
0.00277206
0.00283365
0.00290898
0.00299998
0.00310876
0.00323762
0.00338905
0.00356563
0.0037699
0.00400417
0.00427018
0.00456873
0.00489922
0.00525932
0.00564486
0.00605064
0.00647253
0.00691214
0.00738705
0.00793223
0.0085995
0.00952716
0.011014
0.0136105
0.0176924
0.0230019
0.0281598
0.0304982
0.0309108
0.02751
0.0207845
0.0134158
0.00739298
0.00356247
0.0017829
0.00241172
0.0102378
0.00542438
0.00521022
0.0055879
0.00612126
0.00673486
0.00740411
0.00807265
0.00864051
0.00892313
0.00898885
0.00872085
0.00812399
0.00733551
0.00649279
0.0057045
0.0050237
0.00446079
0.00400438
0.00363712
0.00334342
0.00311094
0.00292936
0.00278993
0.00268494
0.00260726
0.00255062
0.00250945
0.00247909
0.00245583
0.00243693
0.00242054
0.00240548
0.00239127
0.00237817
0.00236636
0.00235643
0.00235022
0.0023477
0.00234814
0.00235557
0.00236995
0.00239242
0.00242422
0.00246668
0.00252128
0.0025897
0.00267382
0.00277584
0.00289822
0.00304378
0.00321561
0.00341702
0.00365135
0.00392171
0.00423048
0.00457873
0.00496551
0.00538707
0.00583654
0.00630447
0.00678104
0.00726136
0.00775942
0.00831605
0.00898188
0.00991518
0.0114523
0.0142321
0.0188182
0.0249531
0.0302422
0.0322243
0.0317889
0.0262348
0.0180808
0.0104475
0.0051427
0.00251536
0.0031747
0.0118358
0.00621425
0.00592496
0.00630624
0.00683832
0.00741308
0.00798814
0.00849543
0.00877442
0.00883668
0.00862706
0.00807863
0.00731919
0.00647292
0.00565818
0.00494553
0.00435542
0.0038797
0.00350044
0.0032002
0.00296482
0.00278282
0.00264429
0.00254054
0.00246371
0.00240682
0.00236393
0.00233015
0.00230174
0.00227606
0.00225147
0.0022271
0.00220275
0.00217872
0.00215563
0.00213421
0.00211541
0.00210023
0.00208997
0.00208541
0.00208477
0.00209281
0.00210926
0.00213491
0.00217099
0.00221877
0.00227978
0.00235581
0.00244896
0.00256178
0.00269722
0.00285874
0.00305025
0.00327603
0.00354054
0.00384801
0.00420185
0.00460373
0.00505253
0.00554312
0.00606557
0.00660547
0.00714647
0.00767687
0.00820772
0.00878377
0.00946477
0.0104363
0.0120996
0.015219
0.0204213
0.0274278
0.032414
0.0338269
0.0313753
0.0234043
0.0142764
0.00721236
0.00347708
0.00404685
0.0133941
0.00699627
0.00661929
0.00698477
0.00749008
0.00799358
0.00843771
0.00869678
0.00875492
0.00859948
0.00810804
0.00738303
0.00653929
0.00569661
0.00494303
0.00431469
0.00380965
0.00341034
0.00309722
0.00285389
0.00266718
0.00252593
0.00242036
0.00234177
0.00228257
0.00223635
0.00219804
0.00216384
0.00213122
0.00209873
0.00206574
0.00203227
0.00199881
0.00196612
0.00193507
0.00190659
0.00188159
0.00186093
0.00184536
0.00183672
0.0018335
0.00183609
0.00184851
0.00186941
0.00190013
0.00194169
0.00199542
0.00206294
0.00214622
0.00224769
0.00237031
0.00251765
0.00269395
0.0029041
0.00315363
0.00344839
0.00379409
0.00419551
0.00465526
0.00517216
0.00573949
0.00634349
0.00696355
0.0075752
0.00815949
0.00872782
0.00932672
0.0100359
0.0110898
0.0129902
0.0167026
0.0227695
0.0305542
0.0343782
0.0348726
0.0290092
0.0189233
0.00985988
0.00469633
0.00498124
0.0148735
0.00775039
0.00727301
0.00760296
0.00805773
0.0084626
0.00870861
0.00877099
0.00863539
0.00820678
0.00752523
0.00669049
0.00582191
0.0050204
0.00434164
0.00379521
0.00336582
0.00303213
0.00277495
0.00257887
0.00243119
0.00232091
0.0022384
0.00217536
0.0021249
0.00208166
0.00204177
0.00200273
0.00196321
0.00192279
0.00188168
0.00184051
0.00180014
0.00176151
0.00172556
0.00169311
0.00166495
0.00164171
0.00162398
0.00161334
0.00160889
0.00160853
0.00161812
0.00163554
0.00166187
0.00169797
0.00174496
0.00180425
0.00187762
0.00196732
0.00207613
0.00220753
0.00236576
0.00255599
0.00278428
0.00305762
0.00338355
0.00376966
0.00422246
0.00474577
0.0053384
0.00599152
0.00668635
0.00739384
0.00807861
0.00871255
0.00930933
0.0099322
0.0106934
0.0118955
0.0142126
0.0188349
0.0262116
0.0336762
0.0363028
0.0341818
0.0243026
0.0131954
0.00620106
0.00593453
0.0162634
0.00846123
0.00786974
0.00814508
0.00853009
0.00878688
0.0088628
0.008735
0.0083759
0.00774128
0.00692587
0.00603654
0.00518389
0.00444303
0.00384099
0.00336914
0.00300526
0.00272711
0.00251635
0.00235823
0.00224032
0.00215188
0.00208377
0.00202852
0.00198036
0.00193523
0.00189059
0.00184517
0.00179867
0.00175142
0.00170418
0.00165788
0.00161349
0.00157194
0.00153401
0.00150038
0.00147157
0.00144802
0.0014301
0.00141876
0.00141365
0.00141264
0.00142004
0.00143488
0.00145763
0.00148902
0.00152998
0.00158175
0.00164588
0.00172437
0.00181974
0.00193521
0.00207483
0.00224362
0.00244778
0.00269476
0.00299323
0.00335282
0.00378335
0.00429345
0.00488833
0.00556665
0.00631668
0.00711299
0.00791551
0.00867507
0.009353
0.0099573
0.0105982
0.0114501
0.0129008
0.0158991
0.0217378
0.0306944
0.0365492
0.0375308
0.0300932
0.0173317
0.00802053
0.00693555
0.017508
0.0091129
0.00839632
0.0086004
0.0088836
0.00899585
0.00891335
0.0086088
0.0080281
0.00724208
0.00634253
0.00544029
0.00462857
0.00395567
0.00342609
0.00301985
0.00271176
0.00247989
0.00230669
0.00217786
0.00208134
0.00200695
0.00194644
0.0018935
0.00184371
0.00179437
0.00174417
0.00169284
0.00164081
0.0015889
0.0015381
0.0014894
0.0014437
0.00140174
0.00136409
0.0013312
0.00130336
0.00128081
0.0012637
0.00125263
0.00124753
0.00124634
0.00125226
0.00126506
0.0012848
0.00131212
0.00134781
0.00139293
0.00144881
0.0015172
0.00160033
0.00170107
0.0018231
0.0019711
0.00215101
0.00237021
0.00263777
0.0029644
0.00336219
0.00384365
0.00441986
0.00509746
0.00587425
0.00673395
0.00764156
0.00854235
0.00937071
0.0100952
0.0106801
0.0113414
0.0123371
0.0142282
0.0184121
0.0260523
0.0353668
0.0389087
0.0356639
0.0223356
0.0102242
0.00795989
0.0185758
0.0096933
0.00884339
0.00896154
0.00912018
0.00912238
0.00887357
0.00837523
0.00763411
0.00673864
0.00579545
0.00490926
0.00415163
0.00354663
0.00308249
0.00273283
0.00247159
0.00227756
0.00213384
0.00202663
0.00194446
0.00187807
0.00182038
0.00176645
0.00171323
0.00165924
0.00160418
0.00154848
0.00149302
0.00143882
0.00138688
0.00133807
0.00129309
0.00125245
0.00121649
0.00118542
0.00115937
0.00113839
0.00112251
0.0011121
0.00110723
0.001106
0.00111079
0.00112182
0.00113896
0.00116275
0.00119386
0.0012332
0.00128192
0.00134151
0.00141393
0.00150168
0.00160801
0.00173713
0.00189447
0.002087
0.00232356
0.00261513
0.00297492
0.00341799
0.00396007
0.00461506
0.00539079
0.00628296
0.00726782
0.00829591
0.00929141
0.0101666
0.0109009
0.0114556
0.0121795
0.0134273
0.0161161
0.0220302
0.0321028
0.0391658
0.0399284
0.028165
0.0129592
0.00911617
0.019442
0.0101924
0.00920276
0.0092171
0.00927638
0.00914349
0.0087577
0.00808673
0.00721876
0.00625109
0.00529529
0.00444357
0.00374507
0.00320393
0.00279736
0.00249581
0.00227337
0.00210961
0.0019883
0.00189629
0.00182299
0.00176032
0.00170254
0.00164608
0.00158913
0.00153123
0.00147277
0.00141462
0.00135782
0.00130339
0.00125217
0.00120485
0.00116186
0.0011235
0.0010899
0.00106109
0.00103706
0.00101775
0.00100311
0.000993341
0.000988682
0.000987397
0.000991168
0.00100059
0.00101542
0.00103612
0.00106326
0.00109763
0.0011402
0.00119228
0.00125554
0.00133215
0.00142494
0.00153759
0.00167495
0.00184335
0.002051
0.00230853
0.00262927
0.00302952
0.00352798
0.00414419
0.00489504
0.00578882
0.00681683
0.00794359
0.00909905
0.010181
0.0110959
0.0117527
0.0122642
0.0131501
0.0148926
0.0190949
0.0275808
0.0383555
0.0420378
0.0345648
0.0164607
0.0106114
0.0200935
0.0106126
0.00946885
0.00938344
0.0093498
0.00910124
0.008563
0.00776336
0.00680133
0.00579221
0.0048461
0.00403917
0.00339975
0.00291652
0.00255978
0.00229865
0.00210787
0.00196781
0.001863
0.00178113
0.00171275
0.00165109
0.00159178
0.00153249
0.00147246
0.00141193
0.00135172
0.0012929
0.00123647
0.00118331
0.00113406
0.00108913
0.00104877
0.00101306
0.000981966
0.000955414
0.000933288
0.000915478
0.000901899
0.000892577
0.000887997
0.000886591
0.000889355
0.000897275
0.000910026
0.000927994
0.00095169
0.00098178
0.00101913
0.00106484
0.00112037
0.00118757
0.00126889
0.00136753
0.00148772
0.00163507
0.00181701
0.00204336
0.00232693
0.0026841
0.00313501
0.00370289
0.0044117
0.00528114
0.00631811
0.00750494
0.0087863
0.0100604
0.0111875
0.0120813
0.0126259
0.0131249
0.0143435
0.0170954
0.0237197
0.0356185
0.0427984
0.0407119
0.0209124
0.0125676
0.0205374
0.010953
0.00965333
0.00946853
0.00933916
0.0089906
0.00832451
0.00742236
0.00639534
0.00536903
0.00444759
0.00369003
0.00310667
0.00267482
0.00236067
0.00213315
0.00196784
0.00184595
0.00175289
0.00167742
0.00161135
0.00154924
0.001488
0.00142635
0.00136428
0.00130251
0.00124207
0.00118398
0.00112915
0.0010782
0.00103156
0.000989425
0.000951842
0.000918746
0.000890005
0.000865462
0.00084496
0.000828364
0.000815576
0.000806529
0.000801845
0.000800239
0.000801996
0.000808499
0.000819369
0.000834929
0.000855628
0.000882051
0.000914949
0.000955287
0.00100431
0.00106362
0.00113532
0.00122218
0.00132787
0.00145727
0.00161698
0.00181583
0.00206568
0.00238222
0.00278571
0.00330121
0.00395752
0.00478361
0.00580125
0.00701274
0.00838457
0.0098307
0.0112062
0.0123516
0.0130702
0.013497
0.0141946
0.0160505
0.0209453
0.0313574
0.0428911
0.0452758
0.0265955
0.0148967
0.0207817
0.011214
0.00975997
0.00947342
0.00927866
0.00881715
0.00805589
0.00707724
0.00600977
0.00498457
0.00409699
0.00338953
0.00285766
0.0024707
0.00219264
0.00199282
0.00184772
0.0017395
0.00165457
0.0015829
0.00151759
0.00145447
0.00139152
0.00132831
0.00126535
0.00120358
0.00114406
0.00108771
0.00103518
0.000986923
0.000943118
0.000903792
0.00086885
0.000838125
0.000811426
0.000788559
0.000769353
0.00075367
0.000741416
0.000732533
0.000727562
0.000725688
0.000726466
0.000731642
0.000740818
0.000754255
0.000772351
0.000795623
0.000824731
0.000860517
0.000904062
0.000956758
0.00102042
0.00109743
0.00119096
0.00130525
0.00144606
0.00162123
0.00184146
0.00212126
0.00248013
0.00294338
0.00354239
0.00431264
0.0052881
0.00648998
0.00790909
0.00948376
0.0110803
0.0124948
0.0134997
0.0139816
0.0143684
0.0155878
0.0189008
0.0274264
0.0415374
0.0475697
0.0336909
0.0175629
0.0208024
0.0113981
0.00980289
0.00943685
0.00915074
0.008605
0.00776973
0.00673786
0.00565007
0.00463909
0.00379027
0.0031312
0.00264564
0.00229749
0.00204978
0.00187258
0.00174335
0.00164525
0.00156583
0.00149627
0.00143094
0.00136679
0.0013027
0.00123882
0.00117597
0.00111517
0.00105738
0.00100332
0.000953451
0.000907993
0.000866962
0.000830246
0.000797655
0.000768968
0.000743963
0.000722437
0.000704226
0.000689204
0.000677291
0.000668441
0.000663081
0.000660887
0.000660784
0.000664715
0.000672372
0.000683944
0.000699781
0.000720342
0.000746212
0.000778134
0.000817055
0.000864188
0.00092111
0.000989884
0.00107325
0.00117489
0.0012998
0.00145485
0.00164956
0.00189707
0.00221552
0.00262945
0.00317092
0.00387935
0.00479802
0.00596496
0.0073957
0.00905796
0.0108423
0.0125422
0.0139044
0.0145623
0.0148689
0.0154799
0.0177514
0.0243732
0.0384338
0.0484223
0.0414024
0.0204291
0.0207044
0.0115205
0.00979253
0.00934441
0.00897701
0.00836518
0.00747601
0.00641114
0.00531898
0.00433117
0.00352293
0.00290912
0.00246459
0.00214973
0.0019274
0.00176855
0.00165167
0.001561
0.00148524
0.0014168
0.00135118
0.0012863
0.00122172
0.00115798
0.00109603
0.00103685
0.000981249
0.000929742
0.000882588
0.000839828
0.000801346
0.00076694
0.000736363
0.000709369
0.000685731
0.000665257
0.000647796
0.000633245
0.000621542
0.000612666
0.000606806
0.000604074
0.000603476
0.000606214
0.00061252
0.00062246
0.000636337
0.00065456
0.000677654
0.000706279
0.000741272
0.000783704
0.000834952
0.000896816
0.000971675
0.00106272
0.0011743
0.00131241
0.00148541
0.00170504
0.00198781
0.00235675
0.00284326
0.00348831
0.00434123
0.00545338
0.00686297
0.00856937
0.0104992
0.0124728
0.0141934
0.0151296
0.0154975
0.0157737
0.0172151
0.0220821
0.0347226
0.0484772
0.0484461
0.0230415
0.0204771
0.0116021
0.0097491
0.00920219
0.00877018
0.00810744
0.00718242
0.00610164
0.00501741
0.00405843
0.0032905
0.0027181
0.00230951
0.00202304
0.00182182
0.00167778
0.00157048
0.00148523
0.00141191
0.00134406
0.00127821
0.00121302
0.00114855
0.00108558
0.00102508
0.000967916
0.000914703
0.000865773
0.000821211
0.000780919
0.000744691
0.000712266
0.000683373
0.000657762
0.000635215
0.000615558
0.000598661
0.00058444
0.000572848
0.000563877
0.000557552
0.000554294
0.000553282
0.000554986
0.000560103
0.000568622
0.000580799
0.000597004
0.000617707
0.000643501
0.000675137
0.000713565
0.000760006
0.000816042
0.000883754
0.000965925
0.00106634
0.00119021
0.00134487
0.0015407
0.00179253
0.0021215
0.00255743
0.00314107
0.00392505
0.00497046
0.00633493
0.00804769
0.0100715
0.012259
0.0143241
0.0157075
0.0162026
0.0163456
0.0170551
0.0204015
0.0307548
0.0481188
0.0534175
0.0248956
0.0201269
0.0116414
0.00965982
0.00902834
0.00853997
0.00783994
0.00689474
0.0058121
0.00474499
0.00381802
0.00308879
0.00255365
0.00217629
0.00191389
0.00173017
0.00159805
0.00149816
0.00141689
0.00134523
0.00127777
0.00121186
0.00114679
0.00108295
0.0010212
0.000962477
0.000907493
0.000856684
0.00081021
0.000768019
0.000729914
0.00069563
0.000664875
0.000637375
0.000612888
0.000591212
0.000572195
0.000555729
0.000541742
0.000530201
0.0005211
0.000514461
0.00051068
0.000509294
0.00051013
0.000514214
0.0005215
0.000532206
0.000546662
0.000565296
0.000588646
0.00061739
0.000652384
0.00069472
0.000745804
0.000807475
0.000882175
0.000973212
0.00108514
0.00122437
0.00140004
0.00162532
0.00191936
0.00230983
0.002836
0.00355134
0.00452318
0.00582475
0.00751339
0.00959144
0.0119548
0.0143502
0.0162144
0.0169552
0.0170883
0.0172792
0.01956
0.0277602
0.0459622
0.0558982
0.0256819
0.0196669
0.0116394
0.00954154
0.0088314
0.00829473
0.0075693
0.00661714
0.00554391
0.00450054
0.00360698
0.00291401
0.00241198
0.00206155
0.00181947
0.0016502
0.00152767
0.00143352
0.00135522
0.00128477
0.00121765
0.00115194
0.00108735
0.00102449
0.000964257
0.000907462
0.000854671
0.000806157
0.000761939
0.000721857
0.000685652
0.000653021
0.000623665
0.000597315
0.000573745
0.000552776
0.000534275
0.000518151
0.000504349
0.000492844
0.000483638
0.000476756
0.000472511
0.000470783
0.000470925
0.000474119
0.000480341
0.000489773
0.000502713
0.000519549
0.000540774
0.000567008
0.000599031
0.000637832
0.000684676
0.000741204
0.000809581
0.000892718
0.000994613
0.00112087
0.00127952
0.00148221
0.0017461
0.00209648
0.00257032
0.00322014
0.0041164
0.00534367
0.00698332
0.00907523
0.0115592
0.0142156
0.0165951
0.017721
0.0179344
0.0178759
0.019188
0.0257305
0.042974
0.0568275
0.0258541
0.0191157
0.0116223
0.00940556
0.00861955
0.00804152
0.00730072
0.00635244
0.00529743
0.0042824
0.00342238
0.00276281
0.00228989
0.00196253
0.00173753
0.00158017
0.00146534
0.00137569
0.00129964
0.00123013
0.00116342
0.00109814
0.00103432
0.000972688
0.000914099
0.000859254
0.000808566
0.000762169
0.000719969
0.000681733
0.000647158
0.000615926
0.000587741
0.000562348
0.00053954
0.000519159
0.00050109
0.00048526
0.000471625
0.00046017
0.000450901
0.000443851
0.000439208
0.000437101
0.00043679
0.000439207
0.000444511
0.000452842
0.000464463
0.000479731
0.000499099
0.000523139
0.000552571
0.000588302
0.000631483
0.000683599
0.000746588
0.000823036
0.000916472
0.00103182
0.00117614
0.0013597
0.00159778
0.00191324
0.00234029
0.00292926
0.00375113
0.00489797
0.00647129
0.00854764
0.011115
0.0139918
0.0167777
0.018447
0.0188565
0.0186247
0.0190952
0.0239942
0.0399539
0.0569183
0.0257093
0.0184996
0.0115845
0.00925854
0.00839981
0.00778623
0.00703822
0.00610246
0.00507237
0.0040887
0.00326151
0.00263228
0.00218473
0.00187698
0.00166625
0.00151867
0.00141005
0.00132394
0.00124967
0.00118097
0.00111477
0.00105011
0.000987251
0.000926971
0.000870062
0.000817098
0.000768362
0.00072387
0.000683448
0.00064681
0.000613628
0.000583583
0.000556386
0.000531801
0.000509641
0.000489765
0.000472079
0.000456519
0.000443052
0.000431669
0.000422379
0.000415215
0.000410243
0.000407778
0.000407165
0.000408939
0.000413461
0.000420841
0.000431314
0.000445209
0.000462946
0.000485058
0.000512214
0.000545255
0.000585246
0.000633545
0.000691908
0.000762659
0.000848937
0.000955097
0.00108735
0.00125476
0.00147088
0.00175622
0.00214205
0.00267568
0.00342663
0.00449072
0.00598451
0.00801736
0.0106292
0.0136968
0.0168404
0.0191172
0.0198333
0.0195546
0.0194354
0.0228476
0.0369867
0.0554794
0.0251807
0.0178384
0.0115326
0.0091059
0.0081779
0.00753358
0.00678479
0.00586818
0.00486798
0.00391746
0.00312185
0.00251992
0.00209427
0.00180306
0.00160418
0.00146461
0.00136099
0.0012777
0.00120488
0.00113695
0.00107134
0.00100744
0.000945661
0.000886777
0.000831502
0.000780296
0.00073333
0.000690528
0.000651656
0.000616395
0.000584405
0.000555371
0.00052902
0.000505131
0.000483536
0.000464113
0.000446778
0.00043148
0.000418191
0.000406905
0.00039763
0.000390388
0.000385218
0.00038244
0.000381583
0.00038284
0.000386699
0.00039326
0.000402734
0.000415424
0.000431723
0.00045213
0.000477275
0.000507946
0.000545136
0.000590105
0.000644468
0.000710334
0.000790526
0.000888922
0.00101102
0.00116483
0.00136234
0.00162187
0.00197177
0.00245591
0.00314094
0.00412352
0.00553059
0.0074991
0.0101177
0.0133282
0.0168196
0.0196906
0.0207845
0.02061
0.0200699
0.0221853
0.0343247
0.0536208
0.0245464
0.0171468
0.0114817
0.00895482
0.007959
0.00728744
0.00654264
0.00565007
0.00468322
0.00376664
0.00300111
0.0024236
0.00201666
0.00173926
0.00155013
0.00141707
0.00131749
0.00123649
0.00116489
0.00109769
0.00103276
0.00096972
0.00090907
0.000851561
0.000797827
0.000748227
0.000702839
0.000661521
0.000623993
0.000589917
0.000558952
0.00053079
0.000505173
0.000481897
0.000460809
0.000441801
0.000424802
0.000409766
0.000396671
0.000385507
0.000376281
0.000369011
0.000363725
0.000360695
0.000359634
0.000360478
0.000363782
0.000369637
0.000378241
0.000389872
0.000404901
0.000423797
0.000447156
0.000475724
0.00051044
0.000552484
0.00060336
0.000665011
0.000740001
0.000831816
0.000945351
0.0010877
0.0012695
0.00150706
0.0018259
0.00226627
0.00289109