/*--------------------------------*- C++ -*----------------------------------*\
  =========                 |
  \\      /  F ield         | OpenFOAM: The Open Source CFD Toolbox
   \\    /   O peration     | Website:  https://openfoam.org
    \\  /    A nd           | Version:  13
     \\/     M anipulation  |
\*---------------------------------------------------------------------------*/
FoamFile
{
    format      ascii;
    class       volScalarField;
    location    "3.6";
    object      k;
}
// * * * * * * * * * * * * * * * * * * * * * * * * * * * * * * * * * * * * * //

dimensions      [0 2 -2 0 0 0 0];

internalField   nonuniform List<scalar> 
6400
(
3.98398e-07
2.02603e-06
4.78052e-06
7.67386e-06
9.98956e-06
1.14966e-05
1.23312e-05
1.28156e-05
1.33085e-05
1.41488e-05
1.56056e-05
1.79025e-05
2.12176e-05
2.56091e-05
3.09406e-05
3.70225e-05
4.36795e-05
5.07937e-05
5.80878e-05
6.53891e-05
7.2745e-05
8.0605e-05
8.96271e-05
0.000100409
0.000113019
0.000126683
0.000140234
0.000153938
0.000167893
0.000182433
0.00019768
0.000213285
0.000228581
0.000243653
0.000258409
0.000273297
0.000288377
0.000303986
0.000320235
0.000337353
0.000355413
0.000374563
0.000394959
0.000416712
0.000439867
0.000464551
0.000491268
0.000521345
0.000557426
0.000599598
0.000639897
0.000681486
0.000721264
0.000759386
0.000793956
0.000823899
0.000847556
0.000860203
0.000865357
0.000864411
0.000847188
0.000816339
0.000771729
0.000714298
0.000646103
0.000569435
0.000488332
0.000406849
0.000328564
0.000255652
0.00019266
0.000141791
0.000100218
6.77629e-05
4.39206e-05
2.73029e-05
1.62468e-05
9.07284e-06
4.15305e-06
8.76062e-07
1.93694e-06
1.63085e-05
3.87533e-05
6.08494e-05
7.81837e-05
8.98206e-05
9.69911e-05
0.000101796
0.000106544
0.0001134
0.000124554
0.000141839
0.000166155
0.000197328
0.000234487
0.000276396
0.000321809
0.000369404
0.000418042
0.000466952
0.00051656
0.000569228
0.000628582
0.000697529
0.000775771
0.00085873
0.000940478
0.00102116
0.00109997
0.00117758
0.00125367
0.00132674
0.001394
0.0014562
0.00151299
0.00156676
0.00161788
0.00166809
0.00171804
0.00176894
0.00182128
0.00187579
0.00193312
0.00199351
0.00205689
0.0021229
0.00219126
0.00226147
0.00233099
0.00240163
0.00247652
0.00255257
0.00262877
0.0027025
0.00277125
0.00283161
0.00288001
0.00290565
0.00291385
0.00290404
0.002863
0.00278748
0.00267629
0.0025295
0.00234999
0.00214164
0.00191466
0.00167802
0.00143901
0.00120534
0.000980555
0.00077083
0.000584506
0.000426323
0.000298427
0.000199176
0.000125857
7.38189e-05
3.46212e-05
4.5851e-06
4.24655e-06
3.57656e-05
8.21609e-05
0.000122843
0.000152467
0.000172193
0.000185543
0.000196566
0.000209323
0.00022772
0.000255375
0.000294998
0.000347752
0.000413061
0.000489188
0.000574125
0.000666086
0.000763361
0.000864154
0.000966754
0.0010697
0.00117168
0.00127197
0.00136797
0.00145549
0.00153088
0.00159307
0.00164128
0.00167944
0.00171159
0.00174184
0.00177244
0.00180358
0.00183678
0.0018698
0.00190574
0.00194392
0.00198576
0.00203121
0.00208117
0.00213566
0.00219461
0.00225853
0.00232697
0.00240024
0.00247824
0.00256103
0.00264774
0.0027389
0.00283442
0.00293363
0.00303492
0.00313683
0.00323707
0.00333291
0.00342086
0.00349677
0.00355585
0.00358683
0.00359566
0.00357704
0.00351762
0.00341566
0.00326918
0.00307891
0.00284601
0.0025831
0.0023012
0.00200799
0.00171525
0.00143299
0.00116942
0.000930813
0.000721472
0.0005433
0.000395931
0.000276627
0.000178556
8.89237e-05
1.19213e-05
7.32054e-06
6.01473e-05
0.000130597
0.000186371
0.00022555
0.000252718
0.000273662
0.000294197
0.000319947
0.000356216
0.000407512
0.000476603
0.000563779
0.000666961
0.000782738
0.00090748
0.00103752
0.00116892
0.00129741
0.00141853
0.00152831
0.0016232
0.0017013
0.00176115
0.00180142
0.00182316
0.00183344
0.00183832
0.00184499
0.00185366
0.00186524
0.00188001
0.00189749
0.00191937
0.00194511
0.00197544
0.00200998
0.00204935
0.0020933
0.00214187
0.00219533
0.00225359
0.00231689
0.00238514
0.00245843
0.00253649
0.00261917
0.00270729
0.00280065
0.00289889
0.00300138
0.00310703
0.00321455
0.00332205
0.00342706
0.00352635
0.00361591
0.00369124
0.00374405
0.00376764
0.00376968
0.00373297
0.00365803
0.00354244
0.00337846
0.00316371
0.00290431
0.00261314
0.00230245
0.00198584
0.00167636
0.00138516
0.00112035
0.000886749
0.000686187
0.000517974
0.000378252
0.000258165
0.000137443
1.91709e-05
1.15613e-05
9.21128e-05
0.00018766
0.000258057
0.000306988
0.000342742
0.000373506
0.000407016
0.000450513
0.000510394
0.000591207
0.00069445
0.000818083
0.000957286
0.00110595
0.00125768
0.00140605
0.00154438
0.00166632
0.001766
0.00184155
0.00188766
0.00190728
0.00191133
0.0018993
0.00188438
0.0018715
0.00186223
0.00185809
0.00185713
0.00186238
0.00187205
0.0018853
0.00190299
0.00192444
0.00194985
0.00197893
0.00201165
0.00204767
0.00208711
0.00212996
0.00217626
0.00222621
0.00228001
0.00233812
0.00240113
0.00246964
0.00254325
0.0026223
0.00270681
0.00279678
0.00289191
0.00299165
0.00309509
0.00320089
0.00330714
0.0034106
0.00350742
0.00359284
0.0036612
0.00369727
0.00370698
0.00367422
0.0035958
0.0034679
0.00330116
0.00307345
0.00279771
0.00248832
0.002161
0.00183261
0.00151889
0.00123212
0.000979632
0.000763961
0.000583842
0.0004344
0.000304493
0.000168615
2.38358e-05
1.74701e-05
0.000134167
0.000256721
0.000342598
0.000402526
0.00044866
0.000491793
0.000541714
0.000607056
0.000694437
0.000807037
0.000943523
0.00109828
0.00126291
0.00142799
0.00158422
0.00172288
0.00183595
0.00191946
0.00196258
0.00197664
0.00196894
0.00194169
0.00191507
0.00189059
0.00186786
0.00184892
0.00183486
0.00182567
0.00182126
0.00182009
0.00182217
0.00182775
0.00183668
0.00184832
0.00186257
0.00187911
0.00189772
0.00191836
0.00194125
0.00196646
0.00199423
0.0020248
0.00205846
0.00209558
0.00213646
0.00218149
0.00223112
0.00228606
0.00234694
0.00241446
0.00248929
0.00257184
0.00266234
0.00276058
0.00286582
0.00297698
0.00309119
0.00320542
0.0033143
0.00341092
0.00348372
0.00351663
0.0035199
0.00346416
0.00335189
0.00318625
0.00294804
0.00265583
0.00232604
0.00197971
0.00163901
0.00132321
0.00104525
0.000810365
0.000617243
0.000459506
0.000323844
0.000182146
2.54536e-05
2.55398e-05
0.000187953
0.000339783
0.000442412
0.000514779
0.000573105
0.000630914
0.000699868
0.000789238
0.000904513
0.00104594
0.00120814
0.00138134
0.00155349
0.00171242
0.00184725
0.00195018
0.00200773
0.00202763
0.00202046
0.00198816
0.00195494
0.00191572
0.00187893
0.00184286
0.00181096
0.00178537
0.0017652
0.00174943
0.00173763
0.00172836
0.00172294
0.00172053
0.0017198
0.00172071
0.00172362
0.0017279
0.00173365
0.0017408
0.00174941
0.00175956
0.00177136
0.00178505
0.00180082
0.00181897
0.00183986
0.00186392
0.00189175
0.00192407
0.00196171
0.00200562
0.00205694
0.00211717
0.00218769
0.00226989
0.00236489
0.00247367
0.00259547
0.00272784
0.00286756
0.00300985
0.00314706
0.00326769
0.00334837
0.00337925
0.00335939
0.0032725
0.00310491
0.0028516
0.00253277
0.00217198
0.00179837
0.00144106
0.00112294
0.000855997
0.000640905
0.000469819
0.000326634
0.000181964
2.48362e-05
3.62251e-05
0.000254377
0.000437579
0.000558229
0.000644312
0.000716199
0.00079006
0.000878863
0.000991367
0.00113048
0.00129237
0.00146718
0.00164128
0.00180006
0.00193045
0.00201938
0.00205876
0.00206508
0.0020375
0.00200085
0.00195128
0.00189743
0.00184279
0.00179539
0.00175384
0.00172043
0.00169197
0.0016681
0.00164781
0.0016307
0.00161625
0.0016045
0.00159472
0.0015866
0.00158014
0.00157524
0.00157167
0.00156967
0.00156884
0.00156875
0.0015705
0.00157357
0.0015782
0.00158454
0.0015928
0.00160325
0.0016162
0.0016321
0.00165147
0.00167488
0.00170304
0.00173681
0.00177725
0.00182568
0.00188398
0.00195461
0.00204057
0.00214584
0.0022721
0.00241712
0.00257968
0.00275457
0.00293196
0.00310083
0.00323549
0.00329882
0.00330729
0.00324284
0.00307214
0.00279168
0.00243337
0.0020306
0.00162301
0.00124755
0.000929283
0.000676268
0.000481397
0.000325734
0.000178348
2.35237e-05
4.98626e-05
0.00033342
0.000549816
0.000689516
0.000790088
0.000875996
0.000965693
0.00107261
0.00120379
0.00135848
0.00152835
0.00169955
0.00185594
0.00198247
0.00205974
0.00208812
0.00208416
0.00205029
0.00199936
0.00193375
0.0018628
0.00179839
0.00174292
0.00169515
0.001654
0.00161909
0.00158845
0.00156182
0.00153849
0.00151824
0.00150074
0.00148581
0.00147309
0.00146248
0.00145384
0.00144699
0.00144182
0.00143819
0.00143631
0.00143563
0.00143602
0.00143821
0.00144177
0.00144694
0.00145384
0.00146272
0.0014738
0.00148729
0.00150348
0.00152271
0.00154532
0.00157169
0.00160222
0.00163744
0.00167802
0.00172515
0.00178058
0.00184736
0.00193102
0.00204155
0.00218408
0.00235952
0.0025561
0.00277073
0.00298438
0.00317466
0.00327447
0.00329971
0.0032531
0.00307068
0.00275062
0.00234145
0.00188951
0.00144671
0.00105694
0.000744142
0.000507851
0.000329074
0.000172641
2.24855e-05
6.66394e-05
0.000424059
0.000675144
0.000834565
0.000949655
0.00104876
0.00115208
0.00127265
0.00141485
0.00157385
0.00173725
0.00188846
0.00201082
0.00208096
0.00210374
0.0020914
0.00205552
0.00199025
0.0019082
0.00182741
0.00175519
0.00169229
0.00163824
0.00159142
0.00155073
0.00151532
0.00148416
0.0014571
0.00143371
0.00141384
0.00139724
0.00138367
0.00137285
0.00136459
0.00135855
0.0013546
0.00135269
0.00135205
0.00135258
0.00135467
0.0013579
0.00136243
0.00136815
0.00137522
0.00138371
0.0013938
0.00140562
0.00141939
0.00143532
0.0014536
0.00147446
0.00149811
0.00152473
0.00155452
0.00158756
0.00162422
0.00166503
0.00171093
0.00176469
0.00183041
0.00191459
0.00202937
0.00219717
0.00241038
0.00265114
0.00290974
0.00314942
0.00328555
0.0033246
0.00328427
0.00307666
0.00270432
0.0022355
0.00173278
0.00126046
0.000865596
0.000564938
0.000345596
0.000173519
2.25033e-05
8.70286e-05
0.000523763
0.000811389
0.000990676
0.00111934
0.00122935
0.00134212
0.00146957
0.00161302
0.00176386
0.00190678
0.00202439
0.00209105
0.00211145
0.00209703
0.00205431
0.00197726
0.00188428
0.00179604
0.00171585
0.00164641
0.00158651
0.00153478
0.00148983
0.00145078
0.00141701
0.00138804
0.0013637
0.00134369
0.00132773
0.00131546
0.0013065
0.00130038
0.00129714
0.00129583
0.00129565
0.00129739
0.00130013
0.00130394
0.00130872
0.00131437
0.00132096
0.00132852
0.00133717
0.00134704
0.00135831
0.00137113
0.00138571
0.00140223
0.00142086
0.00144175
0.00146503
0.00149081
0.0015192
0.00155034
0.00158392
0.00161975
0.00165762
0.00169823
0.00174319
0.00179582
0.00186272
0.00195533
0.00209245
0.0023038
0.00256907
0.00286607
0.00315247
0.00331911
0.00336613
0.00331719
0.00306575
0.00262796
0.00209468
0.00154693
0.00105757
0.000670441
0.00038804
0.000183381
2.36629e-05
0.000111648
0.000629972
0.000955794
0.00115428
0.00129456
0.00141184
0.00152829
0.00165442
0.00178862
0.00191947
0.00203042
0.00209518
0.00211505
0.00210063
0.00205325
0.00196741
0.00186728
0.00177012
0.00168305
0.00160693
0.00154171
0.00148558
0.00143722
0.00139565
0.0013603
0.00133075
0.00130664
0.00128764
0.00127329
0.00126307
0.00125645
0.00125321
0.00125206
0.00125215
0.00125421
0.00125713
0.00126105
0.00126553
0.00127063
0.00127631
0.00128262
0.00128967
0.00129761
0.00130663
0.00131693
0.00132874
0.00134228
0.00135778
0.00137547
0.00139551
0.00141805
0.00144314
0.00147076
0.00150077
0.00153294
0.00156698
0.00160264
0.00163991
0.00167756
0.00171565
0.00175491
0.00179872
0.00185269
0.00192859
0.0020464
0.00223703
0.00251959
0.00284811
0.00317921
0.00336367
0.00340915
0.00333403
0.00301284
0.00249769
0.00190232
0.00132285
0.00083554
0.000471504
0.000211662
2.73291e-05
0.00013922
0.000742173
0.00110519
0.00132128
0.00147029
0.0015902
0.00170367
0.00181983
0.00193489
0.00203599
0.00209832
0.00211821
0.0021038
0.00205407
0.00196287
0.00185782
0.0017528
0.00165779
0.00157537
0.00150464
0.00144442
0.00139303
0.0013495
0.00131315
0.00128351
0.00126009
0.00124236
0.00122968
0.00122131
0.00121701
0.00121528
0.001215
0.00121645
0.00121885
0.00122207
0.0012256
0.00122948
0.00123358
0.00123801
0.00124286
0.00124829
0.00125451
0.00126175
0.00127025
0.00128027
0.00129209
0.00130598
0.00132221
0.00134104
0.00136269
0.00138733
0.00141507
0.00144589
0.00147961
0.00151589
0.00155414
0.00159361
0.00163343
0.00167292
0.0017114
0.00174736
0.0017834
0.00182161
0.00186625
0.00193092
0.00203354
0.00220722
0.00249778
0.00285705
0.00322504
0.00340788
0.00344156
0.00331624
0.00289246
0.00229506
0.00164676
0.00105903
0.000598388
0.000266703
3.52995e-05
0.000168985
0.000857737
0.00125583
0.00148726
0.00164151
0.0017589
0.00186253
0.00196062
0.00204834
0.00210585
0.00212517
0.00210986
0.00206012
0.00196696
0.00185705
0.00174523
0.00164201
0.00155235
0.00147602
0.00141139
0.00135699
0.00131153
0.00127425
0.00124449
0.00122162
0.00120489
0.00119343
0.00118656
0.00118331
0.00118223
0.00118218
0.00118354
0.0011855
0.00118766
0.00118992
0.00119212
0.00119433
0.00119665
0.00119927
0.00120237
0.00120622
0.00121105
0.00121714
0.00122475
0.00123418
0.00124571
0.00125962
0.00127621
0.00129578
0.00131861
0.00134496
0.00137502
0.0014089
0.00144655
0.00148773
0.00153187
0.00157808
0.00162506
0.00167123
0.00171495
0.00175655
0.00179001
0.00181972
0.00185269
0.00189422
0.00195033
0.00204422
0.00221029
0.00250519
0.00289773
0.00327573
0.00344443
0.00345327
0.00322732
0.00268641
0.00200437
0.00132799
0.000764545
0.000343791
4.70948e-05
0.000200009
0.000973672
0.00140382
0.00164785
0.00180356
0.00191322
0.00200059
0.00207371
0.00212252
0.00213922
0.00212218
0.0020741
0.00198103
0.00186713
0.00174844
0.00163696
0.00153908
0.00145617
0.00138664
0.00132869
0.00128098
0.0012424
0.00121217
0.0011894
0.00117315
0.00116233
0.00115596
0.00115291
0.00115172
0.00115145
0.00115174
0.00115247
0.001153
0.00115322
0.00115326
0.00115313
0.00115303
0.00115309
0.00115366
0.00115491
0.00115715
0.00116065
0.00116565
0.00117242
0.00118122
0.00119231
0.00120599
0.00122254
0.0012423
0.00126559
0.00129274
0.00132408
0.00135989
0.00140032
0.00144538
0.00149477
0.00154783
0.00160337
0.0016596
0.00171412
0.00176419
0.00181108
0.00184603
0.0018673
0.00189104
0.00192854
0.00198124
0.00207081
0.00223542
0.00254105
0.002965
0.00333096
0.0034716
0.00341048
0.00303639
0.00236985
0.00162632
0.000960698
0.000438595
6.19964e-05
0.000231231
0.00108699
0.00154547
0.00179914
0.00195252
0.0020496
0.00211531
0.00215379
0.00216565
0.00214628
0.00209718
0.00200611
0.00188952
0.00176413
0.00164377
0.00153673
0.00144583
0.00137028
0.001308
0.00125727
0.00121679
0.00118545
0.00116217
0.00114577
0.00113494
0.00112835
0.00112474
0.00112287
0.00112174
0.00112079
0.00111972
0.00111833
0.00111643
0.0011141
0.00111155
0.00110897
0.00110659
0.00110469
0.00110374
0.00110348
0.00110444
0.00110701
0.00111124
0.00111739
0.00112568
0.00113634
0.00114963
0.00116583
0.00118526
0.00120829
0.0012353
0.00126672
0.00130297
0.00134445
0.00139144
0.00144402
0.00150195
0.00156447
0.00163016
0.00169673
0.001761
0.00181898
0.00187128
0.00190714
0.00192308
0.00193776
0.00196763
0.00202011
0.00210803
0.00227889
0.00260936
0.00306099
0.00337741
0.00346342
0.00329398
0.0027192
0.00194126
0.00117869
0.000545477
7.90314e-05
0.000261676
0.00119496
0.00167769
0.00193805
0.00208585
0.00216565
0.00220158
0.00220918
0.00218659
0.00213219
0.00204403
0.00192538
0.0017939
0.00166408
0.00154659
0.00144612
0.00136289
0.00129498
0.00124021
0.0011969
0.00116366
0.00113912
0.00112186
0.00111035
0.00110308
0.0010986
0.00109568
0.00109332
0.00109088
0.00108802
0.0010846
0.00108059
0.00107608
0.00107128
0.00106647
0.00106189
0.00105784
0.00105457
0.00105252
0.00105169
0.00105175
0.00105386
0.00105771
0.00106353
0.00107149
0.00108178
0.00109463
0.00111029
0.00112906
0.0011513
0.00117744
0.00120795
0.00124337
0.00128427
0.00133119
0.00138458
0.00144466
0.00151125
0.00158356
0.00165992
0.00173755
0.00181236
0.00187901
0.00193685
0.00197051
0.00198274
0.00198963
0.00201162
0.00206362
0.00215397
0.00234155
0.00271176
0.00317793
0.00340041
0.00340552
0.0030283
0.00226175
0.00141376
0.000660376
9.72827e-05
0.000290579
0.00129538
0.00179812
0.0020629
0.00219951
0.00225608
0.00226707
0.00224237
0.00218298
0.0020964
0.0019762
0.00183915
0.00169973
0.00157042
0.00145844
0.0013655
0.00129015
0.00122994
0.00118266
0.00114653
0.0011199
0.00110108
0.00108835
0.00107997
0.00107437
0.00107022
0.00106651
0.00106255
0.00105799
0.00105272
0.00104678
0.00104032
0.00103358
0.00102685
0.00102043
0.00101458
0.00100957
0.00100562
0.00100311
0.00100202
0.00100188
0.00100387
0.00100764
0.00101336
0.00102115
0.00103117
0.0010436
0.00105866
0.00107662
0.00109782
0.00112267
0.00115168
0.00118543
0.00122459
0.0012699
0.00132208
0.00138178
0.00144939
0.00152483
0.00160728
0.00169481
0.00178404
0.00186993
0.00194563
0.00200704
0.00203548
0.00204282
0.00204446
0.00205794
0.00210992
0.00220979
0.00243096
0.0028534
0.00327282
0.00341811
0.00324472
0.00257164
0.00166173
0.000779857
0.000115903
0.000317735
0.00138569
0.00190493
0.00216893
0.00229089
0.00232698
0.00231303
0.0022547
0.00216514
0.00204346
0.00190139
0.00175249
0.00161038
0.00148478
0.00137968
0.0012946
0.00122706
0.00117435
0.00113417
0.00110452
0.00108342
0.0010689
0.00105906
0.00105214
0.00104669
0.00104164
0.00103626
0.00103018
0.0010233
0.00101571
0.00100759
0.00099923
0.000990921
0.000982969
0.00097565
0.000969208
0.000963848
0.000959742
0.00095728
0.000956274
0.000956221
0.000958362
0.000962238
0.000967991
0.000975713
0.000985525
0.000997577
0.00101205
0.0010292
0.00104931
0.00107277
0.00110006
0.00113177
0.00116861
0.00121139
0.00126104
0.0013185
0.00138464
0.00146005
0.00154475
0.00163783
0.00173702
0.00183821
0.0019352
0.00201962
0.00208043
0.00210168
0.00210446
0.00209951
0.0021043
0.00215916
0.00227884
0.00255581
0.00302988
0.00331172
0.00333338
0.00285491
0.00191884
0.00090039
0.000135457
0.000342052
0.00146507
0.00199529
0.0022547
0.00236151
0.00238115
0.00233936
0.0022495
0.00212866
0.0019821
0.00182416
0.00166873
0.00152764
0.00140764
0.00131003
0.00123275
0.00117272
0.00112706
0.00109326
0.00106904
0.00105216
0.00104047
0.00103204
0.00102526
0.00101894
0.0010123
0.00100492
0.0009967
0.000987743
0.000978274
0.000968586
0.000958992
0.0009498
0.000941281
0.000933666
0.000927145
0.000921868
0.000917952
0.000915768
0.00091495
0.000915216
0.000917566
0.000921595
0.000927405
0.000935074
0.000944701
0.00095641
0.000970359
0.000986756
0.00100586
0.00102802
0.00105367
0.00108335
0.00111775
0.00115771
0.00120421
0.00125838
0.00132142
0.00139444
0.00147825
0.00157294
0.00167746
0.00178897
0.00190228
0.00200943
0.00209976
0.00215669
0.00216966
0.00216349
0.00215037
0.00215022
0.00221371
0.00236988
0.0027354
0.00318218
0.00334096
0.00308641
0.00218078
0.00102406
0.000155465
0.000362914
0.00153248
0.00206818
0.00232121
0.00241327
0.00241753
0.00234825
0.00223238
0.00208251
0.00191638
0.00174772
0.00158983
0.00145224
0.00133884
0.00124881
0.00117904
0.00112605
0.00108673
0.00105836
0.00103838
0.00102439
0.00101422
0.00100607
0.000998562
0.000990821
0.000982371
0.000973073
0.000963027
0.000952473
0.000941718
0.000931085
0.00092088
0.000911369
0.000902771
0.000895258
0.000888964
0.000883988
0.000880403
0.000878549
0.000877918
0.000878515
0.000881021
0.000885144
0.000890956
0.000898529
0.000907948
0.000919322
0.000932792
0.000948534
0.00096678
0.000987823
0.00101205
0.00103993
0.00107212
0.00110938
0.00115269
0.00120325
0.0012624
0.00133162
0.00141231
0.00150549
0.00161134
0.00172851
0.0018534
0.00197941
0.00209644
0.00218824
0.00223194
0.00223789
0.00221549
0.00219337
0.00219727
0.00228068
0.00250098
0.00295634
0.00323162
0.00320071
0.00244183
0.00116275
0.000178048
0.000379839
0.00158711
0.00212361
0.00236905
0.00244939
0.00243717
0.00234353
0.0022014
0.00203014
0.00184933
0.00167418
0.00151681
0.00138423
0.00127784
0.00119521
0.00113248
0.00108586
0.00105203
0.00102803
0.00101113
0.000998874
0.000989209
0.000980559
0.000971866
0.000962549
0.000952408
0.000941517
0.000930113
0.00091851
0.000907036
0.000895996
0.000885649
0.000876204
0.000867817
0.000860605
0.000854649
0.000850011
0.000846753
0.000845141
0.000844641
0.000845431
0.000847976
0.000852074
0.000857785
0.000865178
0.000874336
0.000885362
0.000898381
0.000913551
0.000931074
0.000951204
0.000974269
0.00100069
0.00103102
0.00106596
0.00110642
0.00115354
0.00120871
0.00127357
0.0013499
0.00143942
0.00154335
0.00166181
0.00179291
0.00193187
0.0020702
0.00219548
0.0022801
0.00230694
0.00230236
0.00225547
0.00222685
0.00225098
0.00237045
0.00271228
0.0031274
0.00323455
0.00270183
0.00133555
0.00020725
0.000392568
0.00162908
0.0021625
0.00239964
0.00247025
0.00244043
0.00232864
0.00216316
0.00197448
0.00178315
0.00160482
0.00145002
0.00132329
0.00122395
0.00114833
0.00109204
0.00105103
0.00102176
0.00100109
0.000986235
0.000974805
0.000964953
0.000955391
0.000945372
0.000934592
0.000923067
0.000911015
0.000898745
0.00088659
0.000874853
0.000863791
0.000853601
0.000844426
0.000836367
0.000829492
0.000823849
0.000819473
0.000816411
0.000814897
0.000814439
0.000815228
0.000817661
0.000821596
0.000827084
0.0008342
0.000843031
0.000853676
0.000866254
0.000880912
0.000897827
0.000917222
0.00093938
0.000964663
0.00099354
0.00102663
0.00106472
0.00110887
0.00116041
0.00122098
0.00129255
0.00137729
0.00147723
0.00159378
0.00172677
0.00187336
0.0020267
0.00217489
0.00230045
0.00236909
0.00238129
0.00235284
0.00228194
0.00225274
0.0023094
0.00251413
0.0029683
0.00319213
0.00292869
0.00154954
0.000245457
0.00040124
0.00165919
0.00218624
0.00241474
0.00247655
0.00243379
0.00230231
0.00211968
0.00191766
0.00171932
0.00154032
0.00138943
0.00126893
0.00117641
0.00110729
0.00105676
0.00102054
0.000994929
0.000976678
0.000963029
0.000951776
0.000941332
0.000930713
0.000919452
0.000907472
0.000894943
0.00088216
0.000869455
0.000857134
0.00084545
0.000834594
0.0008247
0.000815856
0.000808115
0.000801511
0.000796072
0.000791819
0.000788777
0.000787194
0.000786674
0.000787269
0.000789441
0.000793077
0.000798226
0.000804973
0.000813408
0.000823633
0.000835766
0.000849946
0.000866336
0.000885134
0.000906585
0.000931002
0.000958786
0.000990459
0.00102672
0.00106847
0.00111694
0.00117369
0.00124068
0.0013203
0.00141512
0.00152755
0.00165904
0.00180894
0.001973
0.00214197
0.00230079
0.00241238
0.00245196
0.00244737
0.00237863
0.00230402
0.00229228
0.00240535
0.00276474
0.00308392
0.00305765
0.00179446
0.000290954
0.000406014
0.00167773
0.00219521
0.0024151
0.00247175
0.00241665
0.0022694
0.00207309
0.0018613
0.0016588
0.00148097
0.00133479
0.00122056
0.00113448
0.00107127
0.00102579
0.000993573
0.000970785
0.000954184
0.000941129
0.000929646
0.000918435
0.000906797
0.000894504
0.000881645
0.000868482
0.000855338
0.000842523
0.000830293
0.00081884
0.000808288
0.000798714
0.000790161
0.000782649
0.000776195
0.000770813
0.000766523
0.000763353
0.000761521
0.000760832
0.000761083
0.00076286
0.000766081
0.000770795
0.000777093
0.000785072
0.000794839
0.000806513
0.000820231
0.000836146
0.000854441
0.000875333
0.000899095
0.00092607
0.000956703
0.000991585
0.00103151
0.00107753
0.00113108
0.00119403
0.00126875
0.0013581
0.00146514
0.00159258
0.00174162
0.00191034
0.00209172
0.00227192
0.00242935
0.00251604
0.00253214
0.00248885
0.00237125
0.00231295
0.00235265
0.00259552
0.00300706
0.00310336
0.00206782
0.000343034
0.000406418
0.0016866
0.00219347
0.00240777
0.00245757
0.00238981
0.00223146
0.00202502
0.00180656
0.00160217
0.00142678
0.00128571
0.00117758
0.00109747
0.00103955
0.000998415
0.000969455
0.000948791
0.000933246
0.000920365
0.000908438
0.000896444
0.000883935
0.000870867
0.000857439
0.000843956
0.000830727
0.000818018
0.000806024
0.000794869
0.000784623
0.000775317
0.000766961
0.000759558
0.000753115
0.000747647
0.00074318
0.000739753
0.00073751
0.000736508
0.000736376
0.000737639
0.000740358
0.000744563
0.000750352
0.000757827
0.000767103
0.000778302
0.000791559
0.000807026
0.000824874
0.000845303
0.000868556
0.000894931
0.00092481
0.000958695
0.000997261
0.00104142
0.00109244
0.00115201
0.00122239
0.0013065
0.00140777
0.00152982
0.00167554
0.00184551
0.00203586
0.00223604
0.0024274
0.00256213
0.00260701
0.00259318
0.00248724
0.00236206
0.00233615
0.00246592
0.00288235
0.00309999
0.00235141
0.000399026
0.000404504
0.00168685
0.00218452
0.0023896
0.00243246
0.00235644
0.00219007
0.00197672
0.00175423
0.00154972
0.0013776
0.00124177
0.00113942
0.00106475
0.0010115
0.00097405
0.0009477
0.000928587
0.000913663
0.0009007
0.000888253
0.000875558
0.000862371
0.000848781
0.000835048
0.00082148
0.000808351
0.000795866
0.000784158
0.000773294
0.000763298
0.000754169
0.000745898
0.000738479
0.000731919
0.000726241
0.000721481
0.000717693
0.000714945
0.000713452
0.000712978
0.000713646
0.000715801
0.00071945
0.00072469
0.00073163
0.000740389
0.000751095
0.000763886
0.000778912
0.00079634
0.00081636
0.000839195
0.000865109
0.000894437
0.000927609
0.000965197
0.00100799
0.00105706
0.00111393
0.00118067
0.00126006
0.00135566
0.00147162
0.00161203
0.00177954
0.00197301
0.00218465
0.00239729
0.00258261
0.00267473
0.00268765
0.00261002
0.00243734
0.00235372
0.00240579
0.00272095
0.00300499
0.00260165
0.000450058
0.000400062
0.00168288
0.00216526
0.00236169
0.0023999
0.00231805
0.00214655
0.00192912
0.00170484
0.00150155
0.00133322
0.00120254
0.00110556
0.00103579
0.000986603
0.00095224
0.000927951
0.000909943
0.000895344
0.000882163
0.000869211
0.000855943
0.000842274
0.000828379
0.000814543
0.000801048
0.000788119
0.000775902
0.00076447
0.000753845
0.000744016
0.000734962
0.000726664
0.000719119
0.000712338
0.000706353
0.000701213
0.000696978
0.000693721
0.000691636
0.000690777
0.000690853
0.000692408
0.000695476
0.000700147
0.000706534
0.000714761
0.000724961
0.000737274
0.000751855
0.000768869
0.000788503
0.000810966
0.000836503
0.000865412
0.000898067
0.00093496
0.000976759
0.00102439
0.00107918
0.00114296
0.00121833
0.00130876
0.00141864
0.00155292
0.00171603
0.00190976
0.00213008
0.00236368
0.00258536
0.0027306
0.00277071
0.00272747
0.00255721
0.00239869
0.00238052
0.00261459
0.00292496
0.00277844
0.000486271
0.00039322
0.00167281
0.00213853
0.00232713
0.00236147
0.00227599
0.00210196
0.00188292
0.00165871
0.00145764
0.00129335
0.0011676
0.00107554
0.00101012
0.000964444
0.000932636
0.000909955
0.000892721
0.000878255
0.000864805
0.000851411
0.000837711
0.000823733
0.000809702
0.000795899
0.000782569
0.000769879
0.000757921
0.000746719
0.000736259
0.000726508
0.000717435
0.000709019
0.000701262
0.000694185
0.000687831
0.000682261
0.000677551
0.000673789
0.000671079
0.00066968
0.000669316
0.000670244
0.000672724
0.000676822
0.000682653
0.000690341
0.000700025
0.00071185
0.000725974
0.000742566
0.000761813
0.000783918
0.000809116
0.000837681
0.000869946
0.00090634
0.000947435
0.000994025
0.00104724
0.00110871
0.00118076
0.00126666
0.00137079
0.00149853
0.00165558
0.00184605
0.00206928
0.00231571
0.00256367
0.00276366
0.00284452
0.00283797
0.00268969
0.00245928
0.00237461
0.00250252
0.00284909
0.00285999
0.000501624
0.000384233
0.00165688
0.00210622
0.00228734
0.00231858
0.0022314
0.00205711
0.00183862
0.00161599
0.00141788
0.00125771
0.00113658
0.00104896
0.000987357
0.000944676
0.00091497
0.000893536
0.000876833
0.000862387
0.000848671
0.000834919
0.000820916
0.000806767
0.000792719
0.000779031
0.000765902
0.000753448
0.00074171
0.000730676
0.000720305
0.000710553
0.000701383
0.000692781
0.000684754
0.000677337
0.000670583
0.000664565
0.000659368
0.000655089
0.000651829
0.000649826
0.00064906
0.000649398
0.000651303
0.000654841
0.000660122
0.000667274
0.000676439
0.000687767
0.00070142
0.000717573
0.000736416
0.000758156
0.000783021
0.000811273
0.000843219
0.000879239
0.000919831
0.000965675
0.00101774
0.00107744
0.00114683
0.00122891
0.00132789
0.0014493
0.00159967
0.00178512
0.00200825
0.0022634
0.00253137
0.00277596
0.00291256
0.00293525
0.00282439
0.00256498
0.00240256
0.00243584
0.00277998
0.00288508
0.000504982
0.000373462
0.0016373
0.00206964
0.00224361
0.00227245
0.00218525
0.00201267
0.00179654
0.00157673
0.0013821
0.001226
0.00110912
0.00102544
0.000967167
0.000927023
0.000899032
0.000878561
0.00086222
0.000847736
0.000833782
0.000819759
0.000805559
0.00079134
0.00077735
0.000763815
0.000750888
0.00073864
0.00072707
0.000716139
0.000705791
0.000695972
0.000686651
0.000677819
0.000669494
0.000661721
0.000654563
0.000648105
0.00064244
0.000637673
0.000633913
0.000631322
0.000630116
0.000629972
0.000631326
0.000634325
0.000639074
0.000645702
0.00065435
0.000665174
0.000678343
0.000694037
0.000712454
0.000733805
0.000758322
0.000786262
0.000817916
0.000853634
0.000893855
0.000939168
0.000990402
0.00104877
0.00111609
0.00119503
0.00128952
0.00140501
0.00154847
0.00172747
0.0019476
0.00220774
0.00249404
0.00277489
0.00296681
0.0030227
0.00295057
0.00269541
0.00244484
0.00240691
0.00267681
0.00288512
0.000502145
0.000361425
0.00161527
0.00202998
0.00219707
0.00222415
0.00213834
0.00196913
0.00175687
0.0015409
0.00135012
0.00119795
0.00108491
0.0010047
0.000949274
0.000911258
0.000884659
0.000864929
0.000848835
0.000834288
0.000820136
0.000805918
0.000791604
0.000777381
0.000763485
0.000750109
0.000737364
0.000725278
0.000713824
0.000702939
0.000692559
0.000682631
0.000673127
0.000664046
0.000655417
0.000647294
0.000639753
0.000632883
0.000626787
0.000621575
0.00061736
0.000614262
0.000612554
0.000612048
0.000612886
0.00061538
0.000619624
0.000625744
0.000633884
0.000644204
0.000656877
0.000672093
0.000690056
0.000710988
0.000735128
0.000762736
0.000794098
0.000829545
0.000869475
0.000914405
0.000965048
0.00102245
0.00108817
0.00116459
0.00125529
0.00136547
0.0015022
0.00167401
0.0018888
0.00214929
0.00244623
0.00275254
0.0030032
0.00310037
0.00307181
0.00283784
0.00251067
0.00240002
0.00258848
0.0028444
0.000491809
0.000348506
0.00159153
0.00198826
0.00214873
0.00217459
0.00209131
0.00192685
0.00171973
0.00150841
0.00132172
0.00117329
0.00106367
0.000986448
0.000933442
0.00089719
0.000871713
0.000852555
0.000836628
0.000822014
0.000807707
0.000793354
0.000778983
0.000764794
0.000751004
0.000737774
0.000725177
0.000713209
0.000701821
0.000690937
0.00068049
0.000670427
0.000660727
0.000651399
0.000642481
0.000634036
0.000626145
0.000618908
0.00061243
0.000606823
0.000602203
0.000598683
0.000596502
0.000595668
0.000596051
0.000598081
0.000601851
0.000607487
0.000615133
0.000624952