/*--------------------------------*- C++ -*----------------------------------*\
  =========                 |
  \\      /  F ield         | OpenFOAM: The Open Source CFD Toolbox
   \\    /   O peration     | Website:  https://openfoam.org
    \\  /    A nd           | Version:  13
     \\/     M anipulation  |
\*---------------------------------------------------------------------------*/
FoamFile
{
    format      ascii;
    class       volScalarField;
    location    "3.6";
    object      nut;
}
// * * * * * * * * * * * * * * * * * * * * * * * * * * * * * * * * * * * * * //

dimensions      [0 2 -1 0 0 0 0];

internalField   nonuniform List<scalar> 
6400
(
7.00252e-10
3.56114e-09
8.40289e-09
1.34888e-08
1.75592e-08
2.02079e-08
2.16743e-08
2.25252e-08
2.3391e-08
2.48678e-08
2.74288e-08
3.14672e-08
3.72966e-08
4.5019e-08
5.43947e-08
6.50901e-08
7.67969e-08
8.93076e-08
1.02135e-07
1.14974e-07
1.27909e-07
1.4173e-07
1.57595e-07
1.76553e-07
1.98726e-07
2.22752e-07
2.46579e-07
2.70673e-07
2.9521e-07
3.20776e-07
3.47583e-07
3.7502e-07
4.01911e-07
4.28411e-07
4.54354e-07
4.80531e-07
5.07044e-07
5.34488e-07
5.63059e-07
5.93157e-07
6.2491e-07
6.58582e-07
6.94444e-07
7.32692e-07
7.73406e-07
8.16808e-07
8.6379e-07
9.16683e-07
9.80142e-07
1.05429e-06
1.12515e-06
1.19827e-06
1.26821e-06
1.33523e-06
1.39601e-06
1.44865e-06
1.49023e-06
1.51246e-06
1.52152e-06
1.51983e-06
1.48953e-06
1.43528e-06
1.35683e-06
1.25584e-06
1.13593e-06
1.00113e-06
8.58526e-07
7.15263e-07
5.77624e-07
4.49436e-07
3.387e-07
2.49269e-07
1.76182e-07
1.19125e-07
7.72109e-08
4.79977e-08
2.85616e-08
1.59503e-08
7.30139e-09
1.5402e-09
3.40451e-09
2.52052e-07
8.95165e-07
1.52986e-06
2.02218e-06
2.34083e-06
2.52285e-06
2.62916e-06
2.72094e-06
2.84188e-06
3.04013e-06
3.34665e-06
3.75312e-06
4.22334e-06
4.72042e-06
5.20398e-06
5.63986e-06
5.99602e-06
6.25893e-06
6.42542e-06
6.51848e-06
6.61236e-06
6.75219e-06
6.97304e-06
7.27004e-06
7.5776e-06
7.78572e-06
8.00588e-06
8.25952e-06
8.58225e-06
9.00186e-06
9.50881e-06
1.0047e-05
1.06276e-05
1.12217e-05
1.18502e-05
1.25008e-05
1.31827e-05
1.38915e-05
1.4634e-05
1.5406e-05
1.62031e-05
1.70299e-05
1.79025e-05
1.88238e-05
1.97738e-05
2.07118e-05
2.16214e-05
2.24615e-05
2.3251e-05
2.40901e-05
2.49232e-05
2.57569e-05
2.65675e-05
2.73406e-05
2.80519e-05
2.87388e-05
2.91598e-05
2.94315e-05
2.96149e-05
2.95676e-05
2.91882e-05
2.8497e-05
2.74779e-05
2.61282e-05
2.44426e-05
2.25149e-05
2.041e-05
1.81352e-05
1.57421e-05
1.31275e-05
1.03859e-05
7.83436e-06
5.65718e-06
3.93241e-06
2.6319e-06
1.70474e-06
1.04903e-06
4.51855e-07
8.06117e-09
7.46421e-09
6.85898e-07
2.82459e-06
5.04303e-06
6.79215e-06
7.97437e-06
8.69115e-06
9.10946e-06
9.39556e-06
9.68121e-06
1.00839e-05
1.06512e-05
1.13673e-05
1.21704e-05
1.29833e-05
1.3727e-05
1.4366e-05
1.48776e-05
1.52547e-05
1.55009e-05
1.56294e-05
1.56552e-05
1.56595e-05
1.56897e-05
1.57661e-05
1.5917e-05
1.62249e-05
1.6558e-05
1.69152e-05
1.72871e-05
1.76672e-05
1.81801e-05
1.88181e-05
1.9735e-05
2.0676e-05
2.17441e-05
2.28754e-05
2.40915e-05
2.53379e-05
2.66506e-05
2.80554e-05
2.94418e-05
3.08862e-05
3.22873e-05
3.36397e-05
3.49362e-05
3.62246e-05
3.74711e-05
3.87085e-05
3.99382e-05
4.11662e-05
4.23709e-05
4.35449e-05
4.46682e-05
4.57183e-05
4.66711e-05
4.75024e-05
4.82002e-05
4.86282e-05
4.88121e-05
4.8891e-05
4.8626e-05
4.80291e-05
4.70351e-05
4.55607e-05
4.34883e-05
4.09886e-05
3.81307e-05
3.48757e-05
3.13053e-05
2.74634e-05
2.34268e-05
1.93537e-05
1.54543e-05
1.19259e-05
8.91035e-06
6.43705e-06
4.29187e-06
1.70834e-06
2.09599e-08
1.28678e-08
1.14523e-06
4.57983e-06
8.06067e-06
1.08137e-05
1.27412e-05
1.39698e-05
1.47012e-05
1.51574e-05
1.55514e-05
1.60308e-05
1.66782e-05
1.74816e-05
1.83567e-05
1.92018e-05
1.99437e-05
2.0529e-05
2.09417e-05
2.11913e-05
2.13051e-05
2.13294e-05
2.13135e-05
2.13285e-05
2.14297e-05
2.16274e-05
2.17889e-05
2.19e-05
2.20042e-05
2.24952e-05
2.32867e-05
2.42988e-05
2.55383e-05
2.67028e-05
2.79204e-05
2.92009e-05
3.05374e-05
3.1848e-05
3.31989e-05
3.46166e-05
3.59475e-05
3.72952e-05
3.85869e-05
3.98601e-05
4.1078e-05
4.22591e-05
4.33948e-05
4.44886e-05
4.55652e-05
4.66292e-05
4.76759e-05
4.87014e-05
4.96943e-05
5.06457e-05
5.15412e-05
5.23644e-05
5.30956e-05
5.37112e-05
5.41869e-05
5.44404e-05
5.45198e-05
5.4463e-05
5.4137e-05
5.34985e-05
5.26842e-05
5.16628e-05
5.00582e-05
4.78852e-05
4.52452e-05
4.21762e-05
3.87275e-05
3.49435e-05
3.08753e-05
2.66023e-05
2.22511e-05
1.80028e-05
1.4058e-05
1.05358e-05
7.18296e-06
2.82285e-06
3.3707e-08
2.03229e-08
1.71993e-06
6.42604e-06
1.09544e-05
1.44058e-05
1.67686e-05
1.82484e-05
1.91115e-05
1.96443e-05
2.01169e-05
2.07196e-05
2.15168e-05
2.24508e-05
2.34e-05
2.42466e-05
2.4915e-05
2.53746e-05
2.56336e-05
2.57303e-05
2.57107e-05
2.56696e-05
2.56201e-05
2.55601e-05
2.54784e-05
2.51857e-05
2.53797e-05
2.60826e-05
2.7041e-05
2.81893e-05
2.93014e-05
3.06137e-05
3.19466e-05
3.32282e-05
3.45291e-05
3.57902e-05
3.69827e-05
3.81744e-05
3.93657e-05
4.04319e-05
4.14415e-05
4.23865e-05
4.32597e-05
4.40771e-05
4.48379e-05
4.55637e-05
4.62706e-05
4.69767e-05
4.76606e-05
4.83328e-05
4.89913e-05
4.96379e-05
5.0271e-05
5.08887e-05
5.14871e-05
5.20607e-05
5.26016e-05
5.30945e-05
5.35192e-05
5.38512e-05
5.40711e-05
5.40628e-05
5.39723e-05
5.3466e-05
5.26027e-05
5.13636e-05
5.04559e-05
4.88988e-05
4.67888e-05
4.42199e-05
4.12449e-05
3.79096e-05
3.42525e-05
3.03084e-05
2.61301e-05
2.18238e-05
1.75638e-05
1.34984e-05
9.25198e-06
3.5601e-06
4.19093e-08
3.07109e-08
2.48065e-06
8.57032e-06
1.40577e-05
1.80013e-05
2.0565e-05
2.20928e-05
2.29605e-05
2.3536e-05
2.41216e-05
2.48817e-05
2.5819e-05
2.68228e-05
2.775e-05
2.84893e-05
2.89871e-05
2.92432e-05
2.92888e-05
2.92241e-05
2.89905e-05
2.8769e-05
2.83812e-05
2.79267e-05
2.81665e-05
2.9011e-05
3.00742e-05
3.11461e-05
3.23766e-05
3.3624e-05
3.48784e-05
3.61024e-05
3.72339e-05
3.83041e-05
3.9317e-05
4.02177e-05
4.1029e-05
4.18151e-05
4.25222e-05
4.30998e-05
4.36269e-05
4.40849e-05
4.44938e-05
4.48623e-05
4.51986e-05
4.55106e-05
4.57997e-05
4.60663e-05
4.63122e-05
4.65451e-05
4.67696e-05
4.69926e-05
4.7221e-05
4.74616e-05
4.77211e-05
4.80048e-05
4.83158e-05
4.86568e-05
4.90174e-05
4.93843e-05
4.97345e-05
5.00383e-05
5.01779e-05
5.01816e-05
5.00649e-05
4.93815e-05
4.83019e-05
4.75454e-05
4.60117e-05
4.39573e-05
4.14393e-05
3.85293e-05
3.52929e-05
3.17693e-05
2.79637e-05
2.38778e-05
1.96094e-05
1.52684e-05
1.04604e-05
3.9066e-06
4.47535e-08
4.48985e-08
3.46749e-06
1.10534e-05
1.74125e-05
2.16723e-05
2.42733e-05
2.57319e-05
2.65494e-05
2.71592e-05
2.78523e-05
2.87275e-05
2.97187e-05
3.06791e-05
3.14661e-05
3.19915e-05
3.22333e-05
3.22512e-05
3.19427e-05
3.16363e-05
3.1158e-05
3.05004e-05
3.07112e-05
3.14162e-05
3.23927e-05
3.33695e-05
3.44106e-05
3.54786e-05
3.65937e-05
3.76407e-05
3.8636e-05
3.95139e-05
4.03348e-05
4.10917e-05
4.1734e-05
4.22746e-05
4.27463e-05
4.31182e-05
4.34534e-05
4.37245e-05
4.39201e-05
4.4073e-05
4.41798e-05
4.42501e-05
4.42853e-05
4.42888e-05
4.42621e-05
4.42082e-05
4.41311e-05
4.40357e-05
4.39265e-05
4.38091e-05
4.36918e-05
4.35875e-05
4.3511e-05
4.34808e-05
4.35183e-05
4.365e-05
4.38897e-05
4.4226e-05
4.46342e-05
4.51181e-05
4.56308e-05
4.60972e-05
4.64077e-05
4.64992e-05
4.6002e-05
4.54322e-05
4.46981e-05
4.316e-05
4.10291e-05
3.84024e-05
3.53971e-05
3.21172e-05
2.861e-05
2.4827e-05
2.06848e-05
1.61715e-05
1.08584e-05
3.91703e-06
4.36671e-08
6.36854e-08
4.69977e-06
1.38473e-05
2.0928e-05
2.53675e-05
2.7901e-05
2.92326e-05
2.99801e-05
3.06077e-05
3.13598e-05
3.226e-05
3.31894e-05
3.3989e-05
3.45358e-05
3.47775e-05
3.46148e-05
3.42807e-05
3.3923e-05
3.30043e-05
3.29161e-05
3.33903e-05
3.41025e-05
3.48017e-05
3.5687e-05
3.65922e-05
3.75994e-05
3.85484e-05
3.94549e-05
4.02562e-05
4.0973e-05
4.15867e-05
4.21243e-05
4.25731e-05
4.29346e-05
4.32258e-05
4.34556e-05
4.36269e-05
4.37543e-05
4.38182e-05
4.38427e-05
4.38502e-05
4.38034e-05
4.37298e-05
4.36222e-05
4.34844e-05
4.3316e-05
4.31186e-05
4.2896e-05
4.26516e-05
4.23876e-05
4.21015e-05
4.1795e-05
4.14697e-05
4.11299e-05
4.07878e-05
4.04649e-05
4.02086e-05
4.01053e-05
4.02062e-05
4.04237e-05
4.08295e-05
4.14247e-05
4.20951e-05
4.28495e-05
4.33961e-05
4.35951e-05
4.33773e-05
4.31086e-05
4.24803e-05
4.08043e-05
3.84466e-05
3.55483e-05
3.22848e-05
2.88105e-05
2.51824e-05
2.12152e-05
1.6621e-05
1.09983e-05
3.85828e-06
4.13579e-08
8.76633e-08
6.16501e-06
1.68689e-05
2.45007e-05
2.90238e-05
3.14265e-05
3.26027e-05
3.32629e-05
3.38685e-05
3.46006e-05
3.54181e-05
3.61727e-05
3.67151e-05
3.6958e-05
3.66569e-05
3.62602e-05
3.57158e-05
3.50577e-05
3.51301e-05
3.55755e-05
3.59548e-05
3.6605e-05
3.73979e-05
3.82679e-05
3.91234e-05
3.99673e-05
4.07157e-05
4.1386e-05
4.19544e-05
4.24429e-05
4.28491e-05
4.31902e-05
4.34653e-05
4.36855e-05
4.38591e-05
4.39902e-05
4.4082e-05
4.41302e-05
4.41457e-05
4.41457e-05
4.4104e-05
4.40288e-05
4.39289e-05
4.38002e-05
4.36484e-05
4.34755e-05
4.32837e-05
4.30702e-05
4.28329e-05
4.25705e-05
4.22853e-05
4.19717e-05
4.16235e-05
4.12316e-05
4.07872e-05
4.02795e-05
3.96984e-05
3.9033e-05
3.83565e-05
3.79304e-05
3.78315e-05
3.81552e-05
3.86181e-05
3.9417e-05
4.03119e-05
4.12462e-05
4.15471e-05
4.13615e-05
4.1318e-05
4.0743e-05
3.8832e-05
3.61386e-05
3.28535e-05
2.92124e-05
2.54129e-05
2.14686e-05
1.69007e-05
1.09998e-05
3.70224e-06
3.95298e-08
1.17162e-07
7.80562e-06
1.99712e-05
2.80705e-05
3.2593e-05
3.48234e-05
3.58237e-05
3.6367e-05
3.68894e-05
3.75096e-05
3.81399e-05
3.86245e-05
3.88384e-05
3.84937e-05
3.80572e-05
3.72912e-05
3.69838e-05
3.70326e-05
3.71376e-05
3.74723e-05
3.8017e-05
3.87373e-05
3.95058e-05
4.02771e-05
4.09936e-05
4.16488e-05
4.22111e-05
4.27004e-05
4.31142e-05
4.34715e-05
4.37757e-05
4.40382e-05
4.4261e-05
4.44508e-05
4.46061e-05
4.47357e-05
4.48242e-05
4.48704e-05
4.49172e-05
4.49147e-05
4.48803e-05
4.48129e-05
4.47179e-05
4.45939e-05
4.44454e-05
4.42738e-05
4.40822e-05
4.38724e-05
4.36467e-05
4.34041e-05
4.31432e-05
4.2859e-05
4.2543e-05
4.21804e-05
4.17469e-05
4.12414e-05
4.06416e-05
3.99308e-05
3.91353e-05
3.82681e-05
3.73188e-05
3.63968e-05
3.62129e-05
3.6625e-05
3.72901e-05
3.83547e-05
3.94989e-05
3.99547e-05
3.98131e-05
3.98539e-05
3.92232e-05
3.70001e-05
3.38965e-05
3.015e-05
2.60423e-05
2.17685e-05
1.71418e-05
1.10854e-05
3.68698e-06
3.95589e-08
1.53011e-07
9.48719e-06
2.30502e-05
3.15532e-05
3.60295e-05
3.80626e-05
3.88641e-05
3.92473e-05
3.96149e-05
4.00343e-05
4.03931e-05
4.0547e-05
4.0174e-05
3.97199e-05
3.8924e-05
3.86855e-05
3.85724e-05
3.84358e-05
3.87072e-05
3.91625e-05
3.97748e-05
4.04654e-05
4.11438e-05
4.17857e-05
4.23606e-05
4.28725e-05
4.33173e-05
4.37134e-05
4.40657e-05
4.43861e-05
4.46767e-05
4.49416e-05
4.51769e-05
4.54136e-05
4.55877e-05
4.56915e-05
4.58383e-05
4.59228e-05
4.59756e-05
4.5985e-05
4.5963e-05
4.5905e-05
4.58162e-05
4.56962e-05
4.55484e-05
4.53741e-05
4.51758e-05
4.49549e-05
4.4713e-05
4.44507e-05
4.41685e-05
4.38661e-05
4.35433e-05
4.31994e-05
4.28336e-05
4.24159e-05
4.19125e-05
4.12751e-05
4.04891e-05
3.95695e-05
3.85244e-05
3.7386e-05
3.62093e-05
3.50737e-05
3.50161e-05
3.56301e-05
3.67368e-05
3.80224e-05
3.86279e-05
3.85132e-05
3.85311e-05
3.76854e-05
3.50785e-05
3.15071e-05
2.72448e-05
2.25748e-05
1.76057e-05
1.14237e-05
3.83298e-06
4.1593e-08
1.96301e-07
1.10897e-05
2.60285e-05
3.48952e-05
3.92979e-05
4.11147e-05
4.16894e-05
4.18616e-05
4.20029e-05
4.21464e-05
4.21741e-05
4.17486e-05
4.12817e-05
4.05061e-05
4.02115e-05
3.98838e-05
3.96425e-05
3.97227e-05
4.01024e-05
4.0612e-05
4.12132e-05
4.18277e-05
4.24064e-05
4.29416e-05
4.34235e-05
4.38638e-05
4.42671e-05
4.46462e-05
4.50035e-05
4.53429e-05
4.56666e-05
4.59993e-05
4.62765e-05
4.64585e-05
4.66715e-05
4.687e-05
4.70128e-05
4.71136e-05
4.71769e-05
4.71995e-05
4.71867e-05
4.71367e-05
4.70536e-05
4.69378e-05
4.67924e-05
4.66188e-05
4.64195e-05
4.61964e-05
4.5951e-05
4.56844e-05
4.53964e-05
4.50859e-05
4.47503e-05
4.43852e-05
4.3985e-05
4.35438e-05
4.3059e-05
4.25299e-05
4.1877e-05
4.10576e-05
4.00238e-05
3.88491e-05
3.75366e-05
3.61466e-05
3.47577e-05
3.38101e-05
3.42893e-05
3.52965e-05
3.67292e-05
3.74239e-05
3.72946e-05
3.72236e-05
3.59352e-05
3.28708e-05
2.87857e-05
2.39287e-05
1.85684e-05
1.22301e-05
4.28762e-06
4.80312e-08
2.44781e-07
1.26859e-05
2.88811e-05
3.8061e-05
4.23693e-05
4.39538e-05
4.42714e-05
4.41824e-05
4.40363e-05
4.38499e-05
4.33214e-05
4.28274e-05
4.20192e-05
4.16061e-05
4.10556e-05
4.07297e-05
4.06534e-05
4.08793e-05
4.1309e-05
4.18204e-05
4.23745e-05
4.29146e-05
4.34227e-05
4.39005e-05
4.43493e-05
4.47798e-05
4.51954e-05
4.56005e-05
4.59922e-05
4.64089e-05
4.67895e-05
4.70956e-05
4.73722e-05
4.76248e-05
4.78879e-05
4.80888e-05
4.82453e-05
4.83597e-05
4.84346e-05
4.84691e-05
4.84654e-05
4.84244e-05
4.83484e-05
4.82386e-05
4.80975e-05
4.79268e-05
4.7729e-05
4.75062e-05
4.72605e-05
4.69935e-05
4.67058e-05
4.63968e-05
4.60638e-05
4.57018e-05
4.53025e-05
4.48552e-05
4.43473e-05
4.37674e-05
4.31106e-05
4.2357e-05
4.14103e-05
4.0312e-05
3.90478e-05
3.76051e-05
3.61069e-05
3.45083e-05
3.29551e-05
3.30656e-05
3.40141e-05
3.55229e-05
3.62391e-05
3.60532e-05
3.58639e-05
3.38065e-05
3.02394e-05
2.55191e-05
1.99624e-05
1.33857e-05
5.07397e-06
6.20362e-08
2.97119e-07
1.42443e-05
3.15653e-05
4.10171e-05
4.5219e-05
4.65596e-05
4.65952e-05
4.6209e-05
4.57468e-05
4.50394e-05
4.44568e-05
4.35232e-05
4.29769e-05
4.22309e-05
4.17403e-05
4.1526e-05
4.15889e-05
4.18962e-05
4.23358e-05
4.28257e-05
4.33343e-05
4.38292e-05
4.43087e-05
4.47771e-05
4.52372e-05
4.56941e-05
4.61459e-05
4.6611e-05
4.70839e-05
4.7515e-05
4.78702e-05
4.82258e-05
4.85513e-05
4.88493e-05
4.91052e-05
4.93138e-05
4.94983e-05
4.96248e-05
4.97163e-05
4.97686e-05
4.97792e-05
4.97523e-05
4.96882e-05
4.95882e-05
4.94538e-05
4.92864e-05
4.90883e-05
4.88616e-05
4.86092e-05
4.83336e-05
4.80375e-05
4.77223e-05
4.73882e-05
4.70326e-05
4.66491e-05
4.62266e-05
4.5748e-05
4.51912e-05
4.4531e-05
4.37464e-05
4.29034e-05
4.17195e-05
4.03441e-05
3.8945e-05
3.75519e-05
3.59331e-05
3.41471e-05
3.23049e-05
3.19257e-05
3.28546e-05
3.42948e-05
3.50109e-05
3.47212e-05
3.4075e-05
3.12499e-05
2.69514e-05
2.14689e-05
1.47672e-05
5.96629e-06
8.27677e-08
3.51671e-07
1.57296e-05
3.40414e-05
4.37352e-05
4.7826e-05
4.89152e-05
4.86505e-05
4.79428e-05
4.69251e-05
4.61569e-05
4.50924e-05
4.43961e-05
4.34767e-05
4.2772e-05
4.23752e-05
4.22765e-05
4.24365e-05
4.27811e-05
4.32148e-05
4.36852e-05
4.41707e-05
4.46557e-05
4.51434e-05
4.56358e-05
4.61334e-05
4.66352e-05
4.71502e-05
4.7671e-05
4.81554e-05
4.85884e-05
4.89904e-05
4.93844e-05
4.97392e-05
5.00537e-05
5.03328e-05
5.0573e-05
5.07771e-05
5.09167e-05
5.10217e-05
5.11226e-05
5.11591e-05
5.11569e-05
5.11142e-05
5.10313e-05
5.09082e-05
5.07457e-05
5.05449e-05
5.03081e-05
5.00381e-05
4.97387e-05
4.94143e-05
4.90694e-05
4.87082e-05
4.83332e-05
4.79436e-05
4.7534e-05
4.70919e-05
4.65959e-05
4.60146e-05
4.53076e-05
4.4431e-05
4.35332e-05
4.22377e-05
4.04426e-05
3.87015e-05
3.72675e-05
3.56299e-05
3.37e-05
3.16004e-05
3.0881e-05
3.17079e-05
3.30193e-05
3.36604e-05
3.29305e-05
3.16286e-05
2.79553e-05
2.27848e-05
1.6152e-05
6.88286e-06
1.08961e-07
4.0657e-07
1.71121e-05
3.6281e-05
4.61955e-05
5.01747e-05
5.10014e-05
5.04135e-05
4.91434e-05
4.81061e-05
4.69164e-05
4.5883e-05
4.48348e-05
4.3902e-05
4.32716e-05
4.29779e-05
4.29757e-05
4.31965e-05
4.35577e-05
4.39882e-05
4.44553e-05
4.49446e-05
4.5449e-05
4.597e-05
4.65061e-05
4.7054e-05
4.76084e-05
4.81624e-05
4.86987e-05
4.92009e-05
4.96712e-05
5.01184e-05
5.05406e-05
5.09257e-05
5.12736e-05
5.15858e-05
5.18614e-05
5.20982e-05
5.22942e-05
5.24606e-05
5.25508e-05
5.26588e-05
5.27002e-05
5.26902e-05
5.26351e-05
5.25311e-05
5.23778e-05
5.21753e-05
5.19247e-05
5.16286e-05
5.12911e-05
5.09179e-05
5.05159e-05
5.00932e-05
4.96576e-05
4.92157e-05
4.87703e-05
4.83185e-05
4.78484e-05
4.73362e-05
4.67429e-05
4.60139e-05
4.5081e-05
4.40991e-05
4.26406e-05
4.05524e-05
3.84734e-05
3.68143e-05
3.51922e-05
3.30541e-05
3.07117e-05
3.00074e-05
3.0745e-05
3.16722e-05
3.19146e-05
3.11241e-05
2.84335e-05
2.3757e-05
1.73366e-05
7.70159e-06
1.38907e-07
4.60104e-07
1.83688e-05
3.82698e-05
4.83975e-05
5.22783e-05
5.28051e-05
5.16995e-05
5.05062e-05
4.91501e-05
4.75799e-05
4.63768e-05
4.51899e-05
4.42902e-05
4.37497e-05
4.35509e-05
4.36213e-05
4.3881e-05
4.42557e-05
4.46952e-05
4.51776e-05
4.56922e-05
4.62335e-05
4.6799e-05
4.73826e-05
4.79767e-05
4.85713e-05
4.91555e-05
4.97178e-05
5.02535e-05
5.07646e-05
5.1252e-05
5.17113e-05
5.21386e-05
5.25341e-05
5.28979e-05
5.3229e-05
5.35253e-05
5.37849e-05
5.40281e-05
5.41966e-05
5.42983e-05
5.44395e-05
5.44691e-05
5.44546e-05
5.43791e-05
5.42428e-05
5.40434e-05
5.3781e-05
5.34569e-05
5.30745e-05
5.26397e-05
5.21607e-05
5.16481e-05
5.11143e-05
5.05723e-05
5.00338e-05
4.95068e-05
4.89924e-05
4.84804e-05
4.79452e-05
4.73418e-05
4.66018e-05
4.56319e-05
4.45698e-05
4.28289e-05
4.05387e-05
3.81995e-05
3.62894e-05
3.45602e-05
3.21442e-05
2.95439e-05
2.90665e-05
2.97482e-05
3.02706e-05
2.99313e-05
2.84515e-05
2.43296e-05
1.82442e-05
8.35729e-06
1.70992e-07
5.10927e-07
1.94854e-05
4.00099e-05
5.03753e-05
5.40359e-05
5.4131e-05
5.31159e-05
5.15953e-05
4.96661e-05
4.81969e-05
4.67074e-05
4.55006e-05
4.46616e-05
4.42117e-05
4.40926e-05
4.42172e-05
4.45072e-05
4.49015e-05
4.53633e-05
4.58756e-05
4.64281e-05
4.70137e-05
4.76256e-05
4.82543e-05
4.88893e-05
4.95202e-05
5.01379e-05
5.07364e-05
5.13146e-05
5.18726e-05
5.24094e-05
5.29224e-05
5.34106e-05
5.38734e-05
5.43098e-05
5.47179e-05
5.5095e-05
5.54382e-05
5.57645e-05
5.60103e-05
5.61493e-05
5.63853e-05
5.64731e-05
5.6508e-05
5.6471e-05
5.63606e-05
5.6173e-05
5.59061e-05
5.55595e-05
5.51352e-05
5.46379e-05
5.40753e-05
5.3459e-05
5.28037e-05
5.21273e-05
5.14487e-05
5.07865e-05
5.01547e-05
4.9559e-05
4.89913e-05
4.84252e-05
4.78098e-05
4.70656e-05
4.60781e-05
4.48764e-05
4.27988e-05
4.03445e-05
3.7875e-05
3.56443e-05
3.36815e-05
3.09224e-05
2.82382e-05
2.7956e-05
2.86261e-05
2.89651e-05
2.77205e-05
2.44912e-05
1.8834e-05
8.82688e-06
2.03726e-07
5.58679e-07
2.04239e-05
4.14991e-05
5.19803e-05
5.53728e-05
5.54617e-05
5.43292e-05
5.23792e-05
5.03711e-05
4.85472e-05
4.698e-05
4.57895e-05
4.50239e-05
4.46568e-05
4.46025e-05
4.47709e-05
4.50911e-05
4.55131e-05
4.60076e-05
4.65585e-05
4.71546e-05
4.77862e-05
4.84433e-05
4.91145e-05
4.97896e-05
5.04595e-05
5.11186e-05
5.17641e-05
5.23959e-05
5.30137e-05
5.36164e-05
5.42027e-05
5.47714e-05
5.53206e-05
5.58473e-05
5.63477e-05
5.68171e-05
5.72502e-05
5.76705e-05
5.80094e-05
5.82126e-05
5.85156e-05
5.86823e-05
5.87717e-05
5.87812e-05
5.87055e-05
5.85395e-05
5.8279e-05
5.79217e-05
5.74672e-05
5.69177e-05
5.62793e-05
5.55621e-05
5.4781e-05
5.39558e-05
5.31104e-05
5.22713e-05
5.14645e-05
5.07108e-05
5.00208e-05
4.93877e-05
4.87816e-05
4.81442e-05
4.73849e-05
4.63772e-05
4.49029e-05
4.25036e-05
4.00299e-05
3.74322e-05
3.48054e-05
3.25231e-05
2.93966e-05
2.70448e-05
2.69174e-05
2.70067e-05
2.66455e-05
2.43759e-05
1.91196e-05
9.09704e-06
2.38102e-07
6.01438e-07
2.11984e-05
4.26741e-05
5.31989e-05
5.64982e-05
5.67251e-05
5.52581e-05
5.2902e-05
5.07973e-05
4.88234e-05
4.72178e-05
4.60671e-05
4.53774e-05
4.50824e-05
4.50821e-05
4.52902e-05
4.5644e-05
4.61005e-05
4.66341e-05
4.7228e-05
4.78696e-05
4.8547e-05
4.92485e-05
4.99629e-05
5.06814e-05
5.13978e-05
5.21092e-05
5.28148e-05
5.35147e-05
5.42086e-05
5.48952e-05
5.55726e-05
5.6238e-05
5.68872e-05
5.75152e-05
5.8116e-05
5.86834e-05
5.92105e-05
5.9727e-05
6.01471e-05
6.04282e-05
6.07968e-05
6.10418e-05
6.11887e-05
6.12492e-05
6.12151e-05
6.10802e-05
6.08385e-05
6.04853e-05
6.00176e-05
5.94348e-05
5.87396e-05
5.79391e-05
5.70459e-05
5.60788e-05
5.5063e-05
5.40298e-05
5.30139e-05
5.20502e-05
5.11673e-05
5.03802e-05
4.96816e-05
4.90341e-05
4.83639e-05
4.75564e-05
4.64519e-05
4.46732e-05
4.19674e-05
3.94438e-05
3.66947e-05
3.37285e-05
3.09981e-05
2.74531e-05
2.58487e-05
2.57689e-05
2.5819e-05
2.40392e-05
1.91632e-05
9.23121e-06
2.73277e-07
6.38122e-07
2.18053e-05
4.35312e-05
5.41115e-05
5.74711e-05
5.76604e-05
5.59283e-05
5.35529e-05
5.11278e-05
4.90492e-05
4.7435e-05
4.6337e-05
4.57193e-05
4.54866e-05
4.55339e-05
4.57813e-05
4.61722e-05
4.66681e-05
4.72442e-05
4.78832e-05
4.8571e-05
4.92945e-05
5.00418e-05
5.08033e-05
5.15725e-05
5.2346e-05
5.31228e-05
5.3903e-05
5.46866e-05
5.54723e-05
5.62576e-05
5.70385e-05
5.78099e-05
5.85651e-05
5.92969e-05
5.99981e-05
6.06613e-05
6.12794e-05
6.1885e-05
6.23747e-05
6.27342e-05
6.31629e-05
6.34805e-05
6.36845e-05
6.37969e-05
6.38087e-05
6.37123e-05
6.35006e-05
6.31667e-05
6.27051e-05
6.21117e-05
6.13856e-05
6.05295e-05
5.95517e-05
5.84672e-05
5.7299e-05
5.60786e-05
5.48457e-05
5.36448e-05
5.25209e-05
5.15108e-05
5.06337e-05
4.98807e-05
4.92056e-05
4.85187e-05
4.76809e-05
4.63823e-05
4.40993e-05
4.13481e-05
3.85625e-05
3.55499e-05
3.23609e-05
2.90476e-05
2.55531e-05
2.45025e-05
2.3998e-05
2.30915e-05
1.9053e-05
9.38943e-06
3.12972e-07
6.67883e-07
2.22424e-05
4.41036e-05
5.4802e-05
5.82078e-05
5.84659e-05
5.6441e-05
5.39348e-05
5.13847e-05
4.92398e-05
4.76383e-05
4.65983e-05
4.60464e-05
4.58684e-05
4.59604e-05
4.6248e-05
4.66789e-05
4.72171e-05
4.78378e-05
4.85232e-05
4.92582e-05
5.00296e-05
5.08268e-05
5.16422e-05
5.2472e-05
5.33147e-05
5.41706e-05
5.50395e-05
5.592e-05
5.68092e-05
5.77019e-05
5.85915e-05
5.94702e-05
6.03291e-05
6.11596e-05
6.19533e-05
6.27028e-05
6.34037e-05
6.40842e-05
6.46381e-05
6.50642e-05
6.55417e-05
6.5925e-05
6.61824e-05
6.63447e-05
6.64034e-05
6.63503e-05
6.61772e-05
6.58759e-05
6.54381e-05
6.48572e-05
6.41278e-05
6.32482e-05
6.22211e-05
6.10556e-05
5.97694e-05
5.83904e-05
5.69575e-05
5.552e-05
5.4134e-05
5.28554e-05
5.17288e-05
5.07747e-05
4.9977e-05
4.92739e-05
4.85569e-05
4.76765e-05
4.59581e-05
4.31671e-05
4.05929e-05
3.73315e-05
3.39386e-05
3.06207e-05
2.64842e-05
2.40052e-05
2.295e-05
2.23991e-05
1.90075e-05
9.75252e-06
3.64301e-07
6.90265e-07
2.25064e-05
4.44486e-05
5.52296e-05
5.87385e-05
5.88944e-05
5.69928e-05
5.42463e-05
5.15885e-05
4.94053e-05
4.78303e-05
4.68485e-05
4.63561e-05
4.6228e-05
4.63634e-05
4.66926e-05
4.71658e-05
4.77481e-05
4.84151e-05
4.91483e-05
4.99325e-05
5.07556e-05
5.16087e-05
5.24868e-05
5.33879e-05
5.43121e-05
5.52592e-05
5.62277e-05
5.7214e-05
5.82122e-05
5.92141e-05
6.02104e-05
6.11906e-05
6.21445e-05
6.30625e-05
6.39362e-05
6.47585e-05
6.55257e-05
6.62659e-05
6.68828e-05
6.73579e-05
6.78682e-05
6.83099e-05
6.86145e-05
6.88224e-05
6.89262e-05
6.8918e-05
6.8789e-05
6.85298e-05
6.81306e-05
6.7582e-05
6.68752e-05
6.60038e-05
6.49645e-05
6.37596e-05
6.23994e-05
6.09046e-05
5.93089e-05
5.76602e-05
5.60197e-05
5.44568e-05
5.30396e-05
5.18195e-05
5.08143e-05
4.99917e-05
4.92578e-05
4.84519e-05
4.73425e-05
4.51517e-05
4.22426e-05
3.9461e-05
3.5707e-05
3.18427e-05
2.80777e-05
2.39833e-05
2.22629e-05
2.14277e-05
1.89612e-05
1.03334e-05
4.31461e-07
7.05515e-07
2.26204e-05
4.45615e-05
5.54245e-05
5.91056e-05
5.92955e-05
5.73076e-05
5.44804e-05
5.17514e-05
4.95518e-05
4.80112e-05
4.70853e-05
4.66471e-05
4.65659e-05
4.67447e-05
4.71168e-05
4.7634e-05
4.82621e-05
4.89768e-05
4.97599e-05
5.05966e-05
5.14764e-05
5.23928e-05
5.33428e-05
5.43258e-05
5.53416e-05
5.63888e-05
5.74634e-05
5.85585e-05
5.96649e-05
6.07714e-05
6.1866e-05
6.29368e-05
6.39725e-05
6.49635e-05
6.59021e-05
6.67818e-05
6.75973e-05
6.8382e-05
6.90576e-05
6.95662e-05
7.0091e-05
7.05831e-05
7.09275e-05
7.11747e-05
7.13197e-05
7.1355e-05
7.12719e-05
7.10605e-05
7.07101e-05
7.02092e-05
6.95463e-05
6.87108e-05
6.76938e-05
6.64907e-05
6.51032e-05
6.35428e-05
6.18341e-05
6.00182e-05
5.81543e-05
5.63182e-05
5.4595e-05
5.3065e-05
5.17847e-05
5.07656e-05
4.99582e-05
4.92481e-05
4.8463e-05
4.67386e-05
4.38071e-05
4.1244e-05
3.77276e-05
3.36582e-05
2.94639e-05
2.48607e-05
2.19387e-05
1.99563e-05
1.85846e-05
1.08968e-05
5.11445e-07
7.13909e-07
2.25905e-05
4.44372e-05
5.54125e-05
5.92607e-05
5.96131e-05
5.75377e-05
5.46533e-05
5.1882e-05
4.96825e-05
4.81804e-05
4.73072e-05
4.69191e-05
4.68833e-05
4.71059e-05
4.7522e-05
4.80846e-05
4.87601e-05
4.95246e-05
5.03601e-05
5.12534e-05
5.21958e-05
5.3183e-05
5.42134e-05
5.52866e-05
5.64011e-05
5.75529e-05
5.87347e-05
5.99361e-05
6.11444e-05
6.2346e-05
6.35267e-05
6.46738e-05
6.57761e-05
6.68244e-05
6.78119e-05
6.87334e-05
6.95845e-05
7.03954e-05
7.11202e-05
7.16534e-05
7.21742e-05
7.27071e-05
7.30839e-05
7.3363e-05
7.35433e-05
7.36183e-05
7.35797e-05
7.3418e-05
7.31219e-05
7.26788e-05
7.20754e-05
7.12976e-05
7.0332e-05
6.91672e-05
6.77967e-05
6.62216e-05
6.44552e-05
6.25274e-05
6.04893e-05
5.84148e-05
5.63973e-05
5.45389e-05
5.29303e-05
5.16241e-05
5.0608e-05
4.97876e-05
4.89832e-05
4.79373e-05
4.55981e-05
4.2746e-05
3.98735e-05
3.522e-05
3.08881e-05
2.63559e-05
2.21066e-05
1.95924e-05
1.82212e-05
1.14223e-05
6.03006e-07
7.1462e-07
2.24611e-05
4.41725e-05
5.52898e-05
5.94014e-05
5.97333e-05
5.76785e-05
5.47747e-05
5.19867e-05
4.97998e-05
4.83375e-05
4.75135e-05
4.71727e-05
4.71817e-05
4.74486e-05
4.791e-05
4.85193e-05
4.92438e-05
5.006e-05
5.0951e-05
5.19052e-05
5.29161e-05
5.39807e-05
5.50981e-05
5.62668e-05
5.74831e-05
5.87394e-05
6.00248e-05
6.13253e-05
6.26255e-05
6.39093e-05
6.51619e-05
6.63703e-05
6.75237e-05
6.86143e-05
6.96363e-05
7.0586e-05
7.1461e-05
7.22776e-05
7.30355e-05
7.35996e-05
7.40975e-05
7.46562e-05
7.50603e-05
7.53638e-05
7.55723e-05
7.56812e-05
7.56833e-05
7.55696e-05
7.53291e-05
7.49491e-05
7.44148e-05
7.37101e-05
7.28177e-05
7.17211e-05
7.04057e-05
6.88628e-05
6.70931e-05
6.51131e-05
6.29606e-05
6.07001e-05
5.84247e-05
5.62495e-05
5.42954e-05
5.26609e-05
5.13886e-05
5.04382e-05
4.9679e-05
4.89108e-05
4.71052e-05
4.39923e-05
4.15601e-05
3.74455e-05
3.24381e-05
2.76701e-05
2.24537e-05
1.94546e-05
1.78614e-05
1.20192e-05
7.01448e-07
7.11254e-07
2.22291e-05
4.38589e-05
5.49975e-05
5.93202e-05
5.97418e-05
5.77418e-05
5.48525e-05
5.207e-05
4.99049e-05
4.84826e-05
4.77048e-05
4.74094e-05
4.74628e-05
4.77748e-05
4.82823e-05
4.89397e-05
4.97146e-05
5.05846e-05
5.15341e-05
5.25534e-05
5.36375e-05
5.47845e-05
5.59928e-05
5.7259e-05
5.85759e-05
5.99326e-05
6.13141e-05
6.27035e-05
6.40828e-05
6.54351e-05
6.6745e-05
6.8e-05
6.91904e-05
7.03097e-05
7.13534e-05
7.23193e-05
7.32064e-05
7.40146e-05
7.47736e-05
7.53954e-05
7.58784e-05
7.64129e-05
7.68453e-05
7.71661e-05
7.73952e-05
7.7531e-05
7.7568e-05
7.74981e-05
7.73112e-05
7.69949e-05
7.6534e-05
7.59113e-05
7.51072e-05
7.41005e-05
7.28706e-05
7.13994e-05
6.96758e-05
6.77013e-05
6.54974e-05
6.31137e-05
6.06333e-05
5.81738e-05
5.58751e-05
5.38737e-05
5.22628e-05
5.10495e-05
5.01255e-05
4.92638e-05
4.81276e-05
4.53646e-05
4.29697e-05
3.95613e-05
3.38955e-05
2.89629e-05
2.35894e-05
1.91898e-05
1.67645e-05
1.25742e-05
7.9117e-07
7.03443e-07
2.19689e-05
4.32809e-05
5.45503e-05
5.91044e-05
5.96492e-05
5.77372e-05
5.48926e-05
5.21352e-05
4.99994e-05
4.86164e-05
4.78822e-05
4.76308e-05
4.77288e-05
4.80863e-05
4.86407e-05
4.9347e-05
5.01737e-05
5.10994e-05
5.211e-05
5.31975e-05
5.43583e-05
5.55902e-05
5.68902e-05
5.82522e-05
5.96653e-05
6.11148e-05
6.25823e-05
6.40485e-05
6.54938e-05
6.69007e-05
6.82543e-05
6.95428e-05
7.0758e-05
7.18943e-05
7.29487e-05
7.39198e-05
7.48068e-05
7.5609e-05
7.63506e-05
7.70252e-05
7.7495e-05
7.79866e-05
7.84376e-05
7.87685e-05
7.90106e-05
7.91659e-05
7.92308e-05
7.91987e-05
7.90608e-05
7.88053e-05
7.84179e-05
7.78808e-05
7.71729e-05
7.62705e-05
7.51478e-05
7.37792e-05
7.21428e-05
7.02255e-05
6.80314e-05
6.55906e-05
6.29698e-05
6.02784e-05
5.76646e-05
5.52962e-05
5.33208e-05
5.18153e-05
5.07413e-05
4.99259e-05
4.90716e-05
4.68479e-05
4.39863e-05
4.13217e-05
3.6006e-05
3.03624e-05
2.4999e-05
2.00049e-05
1.60018e-05
1.30065e-05
8.54823e-07
6.91412e-07
2.16337e-05
4.26094e-05
5.39856e-05
5.87693e-05
5.94662e-05
5.76729e-05
5.49003e-05
5.21852e-05
5.00847e-05
4.87402e-05
4.80473e-05
4.78389e-05
4.79813e-05
4.83846e-05
4.89864e-05
4.97423e-05
5.06217e-05
5.16043e-05
5.26777e-05
5.38354e-05
5.50741e-05
5.63909e-05
5.77806e-05
5.92336e-05
6.07357e-05
6.22683e-05
6.38105e-05
6.53409e-05
6.68393e-05
6.82882e-05
6.96734e-05
7.09844e-05
7.22142e-05
7.33584e-05
7.44153e-05
7.53843e-05
7.62665e-05
7.70637e-05
7.778e-05
7.84558e-05
7.89507e-05
7.93853e-05
7.98428e-05
8.01767e-05
8.04244e-05
8.05918e-05
8.06772e-05
8.06759e-05
8.05806e-05
8.03811e-05
8.00637e-05
7.96112e-05
7.90023e-05
7.82115e-05
7.72098e-05
7.59657e-05
7.44482e-05
7.26312e-05
7.05012e-05
6.80676e-05
6.53749e-05
6.25151e-05
5.96317e-05
5.69092e-05
5.45377e-05
5.26563e-05
5.12913e-05
5.03185e-05
4.94795e-05
4.79022e-05
4.49117e-05
4.27518e-05
3.8102e-05
3.15018e-05
2.59452e-05
2.03037e-05
1.58947e-05
1.31696e-05
8.81803e-07
6.75608e-07
2.12271e-05
4.1844e-05
5.33183e-05
5.83288e-05
5.92028e-05
5.75557e-05
5.48796e-05
5.22222e-05
5.01622e-05
4.88554e-05
4.82021e-05
4.80355e-05
4.8222e-05
4.86711e-05
4.93203e-05
5.01258e-05
5.10581e-05
5.20982e-05
5.32351e-05
5.44631e-05
5.57789e-05
5.71781e-05
5.86528e-05
6.019e-05
6.17717e-05
6.33767e-05
6.49817e-05
6.65642e-05
6.81039e-05
6.95838e-05
7.09907e-05
7.23154e-05
7.35518e-05
7.46971e-05
7.57502e-05
7.67116e-05
7.75832e-05
7.83672e-05
7.9066e-05
7.97151e-05
8.02418e-05
8.062e-05
8.10695e-05
8.14003e-05
8.16472e-05
8.18194e-05
8.19182e-05
8.19405e-05
8.1881e-05
8.17308e-05
8.14779e-05
8.11061e-05
8.05944e-05
7.9917e-05
7.90429e-05
7.79368e-05
7.65605e-05
7.48769e-05
7.28567e-05
7.0488e-05
6.77909e-05
6.48328e-05
6.17417e-05
5.87058e-05
5.59481e-05
5.36706e-05
5.19774e-05
5.08052e-05
4.98916e-05
4.87869e-05
4.60059e-05
4.37565e-05
4.00318e-05
3.3124e-05
2.70747e-05
2.07535e-05
1.61853e-05
1.31826e-05
8.87697e-07
6.56668e-07
2.07589e-05
4.09869e-05
5.25595e-05
5.77953e-05
5.8868e-05
5.73916e-05
5.48339e-05
5.22481e-05
5.02335e-05
4.89639e-05
4.83483e-05
4.82224e-05
4.84523e-05
4.89464e-05
4.96425e-05
5.04972e-05
5.14819e-05
5.2579e-05
5.37786e-05
5.50754e-05
5.64654e-05
5.79423e-05
5.94952e-05
6.11078e-05
6.27592e-05
6.44253e-05
6.60817e-05
6.77054e-05
6.92762e-05
7.07779e-05
7.21986e-05
7.35301e-05
7.47675e-05
7.59088e-05
7.69538e-05
7.79037e-05
7.87609e-05
7.95281e-05
8.02085e-05
8.08179e-05
8.13603e-05
8.17152e-05
8.21253e-05
8.24512e-05
8.26918e-05
8.28628e-05
8.29682e-05
8.30073e-05
8.29764e-05
8.28688e-05
8.26737e-05
8.23765e-05
8.19574e-05
8.13908e-05
8.06454e-05
7.96833e-05
7.84618e-05
7.6935e-05
7.50599e-05
7.2805e-05
7.0165e-05
6.71786e-05
6.39485e-05
6.06519e-05
5.75288e-05
5.48338e-05