/*--------------------------------*- C++ -*----------------------------------*\
  =========                 |
  \\      /  F ield         | OpenFOAM: The Open Source CFD Toolbox
   \\    /   O peration     | Website:  https://openfoam.org
    \\  /    A nd           | Version:  13
     \\/     M anipulation  |
\*---------------------------------------------------------------------------*/
FoamFile
{
    format      ascii;
    class       volScalarField;
    location    "3.6";
    object      p;
}
// * * * * * * * * * * * * * * * * * * * * * * * * * * * * * * * * * * * * * //

dimensions      [0 2 -2 0 0 0 0];

internalField   nonuniform List<scalar> 
6400
(
2.19632e-08
1.44082e-05
1.92955e-05
5.83584e-06
-2.96128e-05
-8.36523e-05
-0.000149801
-0.000221695
-0.000294603
-0.000366583
-0.000437693
-0.000510239
-0.000587785
-0.000673775
-0.000771842
-0.000885095
-0.00101596
-0.00116598
-0.00133655
-0.0015288
-0.00174309
-0.00198008
-0.00224161
-0.00253051
-0.00285108
-0.00320718
-0.00359629
-0.00401363
-0.00444914
-0.00488162
-0.00529777
-0.0056959
-0.00607308
-0.0064249
-0.0067467
-0.00703307
-0.00727725
-0.0074711
-0.00760554
-0.00767097
-0.00765771
-0.00755618
-0.0073578
-0.00705574
-0.00664584
-0.00612644
-0.00549526
-0.00474454
-0.00387595
-0.00290686
-0.00184923
-0.000714229
0.000478597
0.00170672
0.00294193
0.00415213
0.00529898
0.00634248
0.00724439
0.00796869
0.00848559
0.00877657
0.00883709
0.00867698
0.00831863
0.00780534
0.00719015
0.00652993
0.00588049
0.00529164
0.00478959
0.0044037
0.00413747
0.00396571
0.00387129
0.00383361
0.00383327
0.00385371
0.0038834
0.00390801
-1.12117e-05
3.39517e-06
5.33121e-06
-1.13681e-05
-4.85366e-05
-0.000102309
-0.000165575
-0.00023246
-0.00029927
-0.000364919
-0.000430173
-0.000497516
-0.000570382
-0.000651932
-0.000745054
-0.000852603
-0.000977346
-0.00112127
-0.00128524
-0.00146999
-0.00167514
-0.00190084
-0.00214912
-0.00242197
-0.00272124
-0.00305039
-0.00341426
-0.00381397
-0.00424418
-0.00469209
-0.005138
-0.005567
-0.00597357
-0.00635445
-0.00670461
-0.00701777
-0.00728691
-0.0075038
-0.0076596
-0.00774508
-0.00775138
-0.00766979
-0.00749259
-0.00721334
-0.00682725
-0.00633108
-0.00572206
-0.00500137
-0.00417391
-0.00324707
-0.002226
-0.00112938
2.58221e-05
0.00121612
0.00241445
0.00358853
0.00470285
0.00572055
0.00660508
0.007323
0.00784561
0.00815395
0.00824286
0.00812147
0.00781297
0.00735601
0.00679752
0.00619591
0.00560197
0.00506301
0.0046151
0.00427207
0.00403926
0.00390322
0.00384392
0.00384061
0.00386358
0.00389218
0.00392006
0.00394381
-2.13157e-05
-5.30214e-06
-7.00716e-06
-2.96097e-05
-7.18928e-05
-0.000127314
-0.000188036
-0.000248342
-0.000305899
-0.000361601
-0.000417352
-0.000476113
-0.000541296
-0.000615568
-0.000701024
-0.000799462
-0.000912386
-0.00104176
-0.00118946
-0.00135753
-0.00154857
-0.00176457
-0.00200818
-0.00228333
-0.00259314
-0.00293977
-0.00332387
-0.00374338
-0.0041928
-0.00466254
-0.00513846
-0.00560623
-0.00605496
-0.0064762
-0.00686353
-0.0072102
-0.00750889
-0.00775177
-0.00793081
-0.00803753
-0.00806381
-0.00800225
-0.00784603
-0.00758933
-0.00722795
-0.00675997
-0.00618452
-0.00549578
-0.00470205
-0.00381176
-0.00283156
-0.00177556
-0.000660377
0.000492381
0.00165715
0.00280391
0.0038995
0.00490777
0.00579249
0.00652148
0.00706701
0.00740946
0.00754195
0.0074725
0.0072227
0.00682865
0.00633609
0.00579595
0.0052617
0.00477628
0.00437187
0.0040708
0.00387961
0.00378586
0.00376186
0.00378636
0.00383358
0.00388099
0.00392281
0.00395644
-2.39503e-05
-8.44164e-06
-1.51708e-05
-4.51755e-05
-9.42905e-05
-0.000152033
-0.000210466
-0.000264844
-0.000313886
-0.00035838
-0.000402114
-0.000449179
-0.000503258
-0.00056716
-0.000642563
-0.000730632
-0.000832824
-0.000951295
-0.00108902
-0.00124951
-0.00143749
-0.00165834
-0.00191721
-0.00221858
-0.00256369
-0.00295314
-0.00338576
-0.00385649
-0.0043558
-0.00487122
-0.00539013
-0.00590003
-0.00638938
-0.0068482
-0.00726867
-0.00764366
-0.00796602
-0.00822878
-0.00842442
-0.00854552
-0.00858485
-0.00853609
-0.00839331
-0.00815145
-0.00780699
-0.00735804
-0.00680312
-0.00614141
-0.00537651
-0.00451433
-0.00356259
-0.00253367
-0.00144321
-0.000310775
0.000840327
0.00198203
0.00308175
0.00410449
0.00501454
0.0057783
0.00636777
0.00676121
0.00694881
0.00693617
0.00674342
0.00640328
0.00595977
0.00546365
0.00496675
0.00451325
0.00413692
0.00385817
0.00368581
0.00361096
0.00361653
0.00366955
0.00374218
0.00381494
0.00387753
0.00392136
-1.38151e-05
-3.00965e-06
-1.67369e-05
-5.45675e-05
-0.000110442
-0.000170569
-0.000226841
-0.000275369
-0.000315853
-0.000350542
-0.000383796
-0.000420286
-0.000464071
-0.000518034
-0.000584255
-0.000664623
-0.000761734
-0.000879258
-0.00102241
-0.00119703
-0.00140933
-0.0016653
-0.00196833
-0.00232148
-0.00272618
-0.00317987
-0.00367649
-0.00420739
-0.00476065
-0.00532274
-0.00588131
-0.00642474
-0.00694336
-0.0074285
-0.00787164
-0.00826559
-0.00860366
-0.00887931
-0.00908561
-0.00921591
-0.00926406
-0.00922486
-0.00909339
-0.00886521
-0.00853688
-0.00810664
-0.00757344
-0.00693723
-0.00619987
-0.00536526
-0.00444027
-0.00343596
-0.0023672
-0.00125086
-0.000106996
0.00103813
0.00215197
0.00320135
0.00415205
0.00496919
0.00562318
0.00609018
0.00635568
0.00641894
0.00629727
0.00602276
0.00563636
0.00518587
0.0047234
0.00429543
0.00393755
0.0036726
0.00350899
0.0034414
0.00345369
0.0035195
0.00360959
0.0037023
0.00378182
0.00383237
1.54021e-05
1.70352e-05
-5.56738e-06
-5.30821e-05
-0.000115169
-0.00017665
-0.000230583
-0.000274085
-0.000307545
-0.000334467
-0.000360071
-0.000389359
-0.000426661
-0.00047539
-0.000538652
-0.000620108
-0.000724696
-0.000858377
-0.00102797
-0.00124127
-0.00150286
-0.0018177
-0.00218948
-0.00261757
-0.00309796
-0.00362259
-0.00418174
-0.00476595
-0.00536428
-0.00596469
-0.00655545
-0.00712558
-0.00766639
-0.00816986
-0.00862843
-0.00903539
-0.00938406
-0.00966834
-0.00988236
-0.0100197
-0.0100755
-0.0100464
-0.00992823
-0.00971707
-0.00940975
-0.00900495
-0.008501
-0.00789768
-0.00719618
-0.00639857
-0.00550965
-0.0045386
-0.00349876
-0.00240351
-0.00126998
-0.000124923
0.00100229
0.00208133
0.0030806
0.00396363
0.00469883
0.00526067
0.00562994
0.00580066
0.00578038
0.00559813
0.00529386
0.00491218
0.00450219
0.00411163
0.00377851
0.00352805
0.00337093
0.00330444
0.00331507
0.00337945
0.00347179
0.00356834
0.00365246
0.00370422
7.09027e-05
6.03338e-05
2.60592e-05
-3.37887e-05
-0.000100431
-0.000162756
-0.000214782
-0.000254575
-0.000283931
-0.000307182
-0.000329955
-0.000357756
-0.000395487
-0.000447679
-0.00051926
-0.000616515
-0.000746585
-0.000917477
-0.00113611
-0.00140903
-0.00174214
-0.00213737
-0.00259276
-0.00310114
-0.00365407
-0.00424312
-0.00485878
-0.00549049
-0.00612747
-0.00675907
-0.0073751
-0.00796592
-0.00852337
-0.0090401
-0.00950952
-0.0099251
-0.01028
-0.0105688
-0.0107867
-0.01093
-0.0109964
-0.0109814
-0.0108809
-0.0106917
-0.0104112
-0.010038
-0.00956924
-0.00900468
-0.00834534
-0.00759436
-0.00675655
-0.00583774
-0.00484369
-0.0037868
-0.0026846
-0.00155561
-0.000421745
0.000687193
0.00173741
0.0026927
0.0035227
0.00419929
0.00469737
0.00500731
0.00512785
0.00507681
0.00488925
0.0046078
0.0042784
0.00394754
0.00365476
0.00342787
0.00328053
0.0032127
0.00321736
0.00327047
0.00335205
0.00343878
0.00351364
0.00355828
0.00015942
0.000133901
8.40335e-05
1.28831e-05
-5.85504e-05
-0.000122219
-0.000173666
-0.000212598
-0.000242007
-0.000267095
-0.000293961
-0.000328674
-0.000377147
-0.000445581
-0.000541152
-0.000672494
-0.000848875
-0.00107736
-0.0013658
-0.00171969
-0.0021403
-0.00262221
-0.00315898
-0.00374251
-0.00436316
-0.005011
-0.00567611
-0.00634831
-0.00701765
-0.00767461
-0.00831026
-0.00891621
-0.00948503
-0.01001
-0.0104848
-0.0109028
-0.0112597
-0.0115515
-0.0117749
-0.0119285
-0.0120084
-0.0120089
-0.011927
-0.0117598
-0.011505
-0.0111631
-0.0107316
-0.0102103
-0.00960048
-0.00890516
-0.00812804
-0.00727192
-0.00633893
-0.00533884
-0.00428537
-0.003193
-0.00208031
-0.000968861
0.00011262
0.0011372
0.00207018
0.00287366
0.00352186
0.00399914
0.00429623
0.00441734
0.00438774
0.00424367
0.00402758
0.00378358
0.00355211
0.00336329
0.00323438
0.0031698
0.00316266
0.00319874
0.00326108
0.0033283
0.00338161
0.00341158
0.000284046
0.00024299
0.000174892
9.17837e-05
1.49768e-05
-5.11572e-05
-0.000104476
-0.000146467
-0.000181487
-0.000215603
-0.000255515
-0.000308118
-0.000380667
-0.000481093
-0.000618814
-0.000804412
-0.00104661
-0.00135266
-0.00172859
-0.00217371
-0.00268284
-0.00324927
-0.00386404
-0.00451695
-0.00519771
-0.00589636
-0.00660319
-0.00730883
-0.00800422
-0.00868082
-0.00933065
-0.00994636
-0.0105212
-0.011049
-0.0115238
-0.0119423
-0.012303
-0.0126012
-0.0128329
-0.0129946
-0.0130823
-0.0130942
-0.0130283
-0.0128826
-0.0126554
-0.0123464
-0.0119549
-0.0114804
-0.0109233
-0.0102846
-0.00956603
-0.00877006
-0.00790243
-0.00696984
-0.00598162
-0.00494853
-0.00388081
-0.00279113
-0.0017017
-0.000638184
0.000369716
0.00129255
0.00210046
0.00276075
0.00325959
0.00358813
0.00375667
0.00378946
0.00372311
0.00359656
0.00344972
0.00331622
0.00321697
0.00316068
0.00314516
0.00316191
0.00319764
0.00323775
0.00326336
0.00327557
0.000449063
0.000390083
0.000300917
0.000205718
0.000121271
5.04891e-05
-8.06317e-06
-5.81769e-05
-0.000105685
-0.000157563
-0.000221275
-0.000304726
-0.00041647
-0.000566253
-0.000765049
-0.00102359
-0.00134971
-0.00174757
-0.00221699
-0.00275395
-0.00335034
-0.00399656
-0.00468189
-0.00539591
-0.00612848
-0.00687002
-0.0076113
-0.00834368
-0.00905892
-0.00974937
-0.010408
-0.0110283
-0.0116047
-0.012132
-0.0126063
-0.0130248
-0.0133833
-0.0136786
-0.013909
-0.0140717
-0.0141643
-0.0141855
-0.0141339
-0.0140087
-0.0138092
-0.013533
-0.0131811
-0.0127533
-0.0122497
-0.011671
-0.0110177
-0.0102916
-0.00949577
-0.00863434
-0.00771222
-0.00673563
-0.00571456
-0.00466517
-0.00360075
-0.00253334
-0.00148111
-0.000472592
0.0004658
0.00130504
0.0020104
0.00256534
0.00296481
0.00321329
0.00333408
0.00335953
0.0033243
0.00326465
0.00320769
0.00316758
0.00314849
0.00314559
0.00315315
0.00316093
0.00315829
0.00315365
0.000653776
0.000573693
0.000461703
0.00035037
0.000256873
0.000178715
0.000110634
4.62987e-05
-2.16807e-05
-0.00010126
-0.000200743
-0.000328974
-0.000495807
-0.000712175
-0.000989318
-0.00133641
-0.00175742
-0.00225193
-0.00281642
-0.00344274
-0.00412022
-0.00483829
-0.00558588
-0.00635272
-0.00712901
-0.00790561
-0.00867387
-0.00942581
-0.010154
-0.0108515
-0.0115124
-0.0121312
-0.0127032
-0.0132244
-0.0136917
-0.0141023
-0.0144532
-0.0147425
-0.0149687
-0.0151301
-0.0152255
-0.0152538
-0.0152141
-0.0151063
-0.01493
-0.0146835
-0.0143676
-0.0139823
-0.0135281
-0.0130053
-0.0124145
-0.0117566
-0.0110335
-0.0102473
-0.0094004
-0.00849589
-0.00753894
-0.0065374
-0.00550034
-0.00444258
-0.00338216
-0.00232958
-0.00129983
-0.000325195
0.000565152
0.00134522
0.00198807
0.0024814
0.00282556
0.00303929
0.00314878
0.00318611
0.00318535
0.00316933
0.00315027
0.0031311
0.00311162
0.00308746
0.0030593
0.00304016
0.000889051
0.000787692
0.000648605
0.0005188
0.000414107
0.000325325
0.000242677
0.000157235
6.0034e-05
-5.78649e-05
-0.000205492
-0.000392525
-0.000629672
-0.000927884
-0.00129666
-0.00174118
-0.00226152
-0.00285361
-0.0035095
-0.00421853
-0.00496929
-0.00575076
-0.00655207
-0.00736322
-0.00817484
-0.00897824
-0.00976541
-0.010529
-0.0112625
-0.01196
-0.0126164
-0.0132273
-0.013789
-0.0142986
-0.0147536
-0.0151519
-0.0154918
-0.0157721
-0.0159916
-0.0161495
-0.0162451
-0.0162778
-0.0162472
-0.0161534
-0.0159963
-0.0157754
-0.015491
-0.0151435
-0.0147333
-0.0142609
-0.0137266
-0.0131312
-0.0124755
-0.0117606
-0.0109875
-0.0101575
-0.00927298
-0.00833665
-0.00735239
-0.00632671
-0.00526883
-0.00419195
-0.00311652
-0.00205271
-0.00101868
-4.74999e-05
0.000824649
0.00156875
0.00216186
0.00259809
0.00288868
0.00305518
0.00312999
0.00314833
0.00313396
0.00310108
0.0030573
0.00300518
0.00295662
0.00292574
0.00114481
0.00102066
0.000851356
0.000700656
0.000582105
0.000478672
0.000375832
0.000261978
0.000126577
-4.02171e-05
-0.000247949
-0.00050682
-0.000827206
-0.00121841
-0.00168648
-0.00223231
-0.00285179
-0.00353694
-0.00427734
-0.00506104
-0.00587644
-0.00671243
-0.0075585
-0.00840501
-0.00924306
-0.0100645
-0.0108622
-0.0116295
-0.0123607
-0.0130512
-0.0136969
-0.0142944
-0.0148411
-0.0153348
-0.0157739
-0.0161572
-0.0164837
-0.0167527
-0.0169637
-0.0171161
-0.0172099
-0.0172448
-0.0172209
-0.0171383
-0.0169972
-0.0167978
-0.0165404
-0.0162257
-0.0158539
-0.0154257
-0.0149415
-0.0144018
-0.0138069
-0.013157
-0.0124524
-0.0116931
-0.0108794
-0.0100115
-0.00909009
-0.00811675
-0.00709384
-0.00602634
-0.00492428
-0.003803
-0.0026777
-0.00156541
-0.000503288
0.000470575
0.00131703
0.00200066
0.00250644
0.00283984
0.00302109
0.00308961
0.00308785
0.00304404
0.00297865
0.00290307
0.00283952
0.00280069
0.00140697
0.00125819
0.00105667
0.000882408
0.000746885
0.000624421
0.000495546
0.000345943
0.000163531
-6.19735e-05
-0.000340329
-0.000681496
-0.00109418
-0.00158486
-0.00215502
-0.00280096
-0.00351474
-0.00428586
-0.00510231
-0.0059517
-0.00682242
-0.00770353
-0.00858495
-0.00945748
-0.0103128
-0.0111437
-0.0119435
-0.0127069
-0.0134292
-0.0141069
-0.0147368
-0.0153168
-0.015845
-0.0163201
-0.0167413
-0.017108
-0.0174198
-0.0176764
-0.0178777
-0.0180237
-0.0181145
-0.0181501
-0.018131
-0.0180573
-0.0179296
-0.0177482
-0.0175138
-0.0172269
-0.0168881
-0.0164981
-0.0160573
-0.015566
-0.0150245
-0.0144326
-0.0137898
-0.0130954
-0.0123482
-0.0115468
-0.0106896
-0.00977507
-0.00880208
-0.00777062
-0.0066825
-0.00554232
-0.00436047
-0.00315863
-0.00195691
-0.000793273
0.000284309
0.00122117
0.00196926
0.00250543
0.00283271
0.00298038
0.00300414
0.00295514
0.00286997
0.00277409
0.0026991
0.00265376
0.00165789
0.00148415
0.00124786
0.00104818
0.000892581
0.000746613
0.000585813
0.00039327
0.000156209
-0.000135824
-0.000493136
-0.000923649
-0.00143368
-0.00202532
-0.00269535
-0.00343611
-0.00423679
-0.00508509
-0.00596812
-0.00687347
-0.00778968
-0.00870614
-0.00961328
-0.0105025
-0.0113663
-0.0121983
-0.012993
-0.013746
-0.014454
-0.0151144
-0.0157251
-0.0162847
-0.0167924
-0.0172477
-0.0176502
-0.0179999
-0.0182967
-0.0185408
-0.0187324
-0.0188718
-0.0189591
-0.0189947
-0.018979
-0.0189126
-0.018796
-0.0186298
-0.0184147
-0.0181513
-0.0178405
-0.0174828
-0.0170789
-0.0166291
-0.0161336
-0.0155919
-0.0150035
-0.0143669
-0.0136803
-0.0129411
-0.0121463
-0.0112921
-0.0103748
-0.00939088
-0.00833761
-0.00721418
-0.00602302
-0.00477318
-0.00348246
-0.00218149
-0.000916662
0.000250927
0.00124993
0.00202003
0.00253316
0.00280107
0.00287592
0.00283249
0.00273054
0.0026159
0.00252916
0.00247551
0.00187861
0.00167893
0.0014081
0.00118156
0.00100291
0.000829022
0.000630701
0.000389607
9.24827e-05
-0.000272614
-0.000713942
-0.00123728
-0.00184521
-0.00253478
-0.00329889
-0.00412659
-0.00500492
-0.00592041
-0.00685984
-0.00781095
-0.00876256
-0.00970456
-0.010628
-0.0115251
-0.0123893
-0.0132153
-0.0139988
-0.0147365
-0.0154262
-0.0160663
-0.0166556
-0.0171937
-0.0176804
-0.0181157
-0.0184998
-0.018833
-0.0191156
-0.0193479
-0.0195303
-0.0196633
-0.0197473
-0.0197826
-0.0197698
-0.0197095
-0.0196022
-0.0194487
-0.0192499
-0.0190063
-0.018719
-0.0183885
-0.0180156
-0.0176008
-0.017144
-0.0166452
-0.0161034
-0.0155171
-0.0148842
-0.0142014
-0.0134648
-0.0126695
-0.0118097
-0.0108794
-0.00987259
-0.00878424
-0.00761176
-0.00635609
-0.0050255
-0.00364178
-0.00224407
-0.000890753
0.000339266
0.00135601
0.00209125
0.00252547
0.00269116
0.00267201
0.00256139
0.00242797
0.0023244
0.00225917
0.00205124
0.00182576
0.00152106
0.00126684
0.00106241
0.00085654
0.000616646
0.000323379
-3.85096e-05
-0.000479989
-0.00100716
-0.00162314
-0.00232512
-0.00310646
-0.00395636
-0.00486126
-0.00580677
-0.00677877
-0.00776402
-0.00875053
-0.00972756
-0.0106856
-0.0116166
-0.0125137
-0.0133715
-0.0141857
-0.0149534
-0.0156723
-0.0163412
-0.0169595
-0.0175268
-0.0180434
-0.0185095
-0.0189257
-0.0192925
-0.0196104
-0.0198799
-0.0201016
-0.0202759
-0.0204033
-0.0204844
-0.0205195
-0.0205092
-0.0204542
-0.020355
-0.0202125
-0.0200274
-0.0198005
-0.0195328
-0.019225
-0.018878
-0.0184922
-0.0180678
-0.0176048
-0.0171023
-0.016559
-0.0159724
-0.0153394
-0.0146554
-0.013915
-0.0131113
-0.0122369
-0.0112833
-0.0102423
-0.00910713
-0.00787331
-0.00654148
-0.00512288
-0.00364603
-0.00216159
-0.000744572
0.000505308
0.00148366
0.00212432
0.00242858
0.00246788
0.00236085
0.00220879
0.00207997
0.00200077
0.0021567
0.00190843
0.00157188
0.00128987
0.00105736
0.000816509
0.000532913
0.000184843
-0.000244223
-0.000762632
-0.00137452
-0.00207848
-0.00286796
-0.00373244
-0.004658
-0.00562921
-0.00663078
-0.00764834
-0.0086688
-0.00968058
-0.0106735
-0.011639
-0.0125698
-0.0134602
-0.0143061
-0.0151043
-0.015853
-0.016551
-0.017198
-0.0177942
-0.0183398
-0.0188357
-0.0192826
-0.0196811
-0.0200322
-0.0203365
-0.0205946
-0.0208072
-0.0209746
-0.0210975
-0.0211764
-0.0212117
-0.0212039
-0.0211536
-0.0210616
-0.0209285
-0.0207551
-0.0205424
-0.0202911
-0.0200022
-0.0196765
-0.0193147
-0.018917
-0.0184836
-0.0180137
-0.0175063
-0.0169591
-0.0163689
-0.0157313
-0.0150405
-0.0142894
-0.0134695
-0.0125713
-0.0115843
-0.0104984
-0.00930529
-0.00799993
-0.00658439
-0.00507531
-0.00351163
-0.00196082
-0.000517704
0.000698863
0.00157739
0.00206523
0.00220398
0.00212251
0.00195487
0.00179255
0.00169828
0.00218265
0.00191422
0.00154871
0.00123933
0.000977169
0.000700371
0.000371741
-3.31598e-05
-0.000528463
-0.0011214
-0.00181337
-0.0025985
-0.00346668
-0.00440392
-0.00539392
-0.00642
-0.00746635
-0.0085186
-0.009564
-0.0105915
-0.0115917
-0.0125569
-0.013481
-0.0143595
-0.0151893
-0.0159687
-0.0166965
-0.0173728
-0.0179979
-0.0185726
-0.0190977
-0.0195744
-0.0200037
-0.0203865
-0.0207238
-0.0210164
-0.0212649
-0.0214699
-0.0216319
-0.0217514
-0.0218289
-0.0218648
-0.0218596
-0.0218139
-0.0217283
-0.0216035
-0.0214403
-0.0212395
-0.0210021
-0.020729
-0.0204209
-0.0200788
-0.0197029
-0.0192936
-0.0188506
-0.0183727
-0.0178582
-0.0173042
-0.0167065
-0.0160596
-0.0153563
-0.0145879
-0.013744
-0.0128132
-0.0117832
-0.0106425
-0.00938214
-0.00799713
-0.00649332
-0.00489625
-0.00326184
-0.00167696
-0.000254933
0.000864936
0.00157404
0.00186197
0.00183715
0.00166005
0.00145948
0.00135172
0.00211895
0.00183387
0.00144311
0.00110757
0.000815703
0.000502373
0.000127851
-0.000332073
-0.00089069
-0.00155394
-0.00231885
-0.00317639
-0.00411292
-0.00511158
-0.00615437
-0.0072238
-0.00830388
-0.00938043
-0.0104412
-0.0114757
-0.0124755
-0.013434
-0.0143462
-0.0152089
-0.01602
-0.0167788
-0.0174852
-0.0181398
-0.0187437
-0.0192981
-0.0198044
-0.0202638
-0.0206775
-0.0210467
-0.0213723
-0.0216551
-0.0218957
-0.0220947
-0.0222526
-0.0223699
-0.0224468
-0.0224838
-0.0224815
-0.0224401
-0.0223605
-0.0222431
-0.0220888
-0.0218984
-0.0216727
-0.0214127
-0.0211193
-0.0207933
-0.0204353
-0.0200456
-0.0196243
-0.0191705
-0.0186828
-0.0181588
-0.0175949
-0.0169858
-0.0163248
-0.0156033
-0.014811
-0.0139357
-0.0129641
-0.0118824
-0.0106784
-0.00934263
-0.00787188
-0.0062783
-0.00460303
-0.00292874
-0.00135192
-1.01498e-05
0.000941494
0.00142153
0.00148765
0.00131621
0.00108296
0.000961097
0.00195977
0.00166209
0.00125052
0.00089106
0.000570256
0.000220592
-0.000198767
-0.000710428
-0.00132773
-0.00205436
-0.00288386
-0.00380383
-0.00479753
-0.00584597
-0.00692995
-0.00803158
-0.00913491
-0.0102261
-0.0112935
-0.0123275
-0.0133206
-0.0142673
-0.0151637
-0.0160078
-0.0167986
-0.0175361
-0.0182212
-0.018855
-0.019439
-0.0199749
-0.0204642
-0.0209084
-0.0213087
-0.0216663
-0.0219821
-0.022257
-0.0224914
-0.0226859
-0.022841
-0.022957
-0.0230342
-0.0230728
-0.0230735
-0.0230365
-0.0229624
-0.0228518
-0.0227053
-0.0225239
-0.0223083
-0.0220594
-0.0217782
-0.0214655
-0.0211221
-0.0207483
-0.0203445
-0.0199102
-0.0194443
-0.0189449
-0.0184089
-0.0178319
-0.0172075
-0.0165279
-0.015783
-0.0149605
-0.0140468
-0.0130266
-0.0118853
-0.0106103
-0.0091924
-0.00763152
-0.00595102
-0.00422709
-0.00254975
-0.0010314
0.000153616
0.000856435
0.00105956
0.000916662
0.000665619
0.000525675
0.00170373
0.00139782
0.000970431
0.000589937
0.00024137
-0.000143396
-0.000604088
-0.00116303
-0.00183334
-0.00261531
-0.00349987
-0.00447154
-0.00551103
-0.00659775
-0.0077118
-0.00883516
-0.00995209
-0.0110493
-0.0121157
-0.0131428
-0.0141241
-0.0150551
-0.0159331
-0.016757
-0.0175268
-0.0182432
-0.0189077
-0.0195219
-0.0200878
-0.020607
-0.0210814
-0.0215124
-0.0219013
-0.0222493
-0.0225573
-0.0228259
-0.0230557
-0.0232471
-0.0234004
-0.023516
-0.0235941
-0.0236348
-0.0236387
-0.0236059
-0.0235371
-0.0234327
-0.0232933
-0.0231198
-0.0229129
-0.0226735
-0.0224026
-0.0221009
-0.0217694
-0.0214086
-0.021019
-0.0206003
-0.020152
-0.0196726
-0.0191597
-0.0186093
-0.0180162
-0.0173731
-0.0166707
-0.0158972
-0.0150389
-0.01408
-0.0130041
-0.0117962
-0.0104442
-0.00893931
-0.00728616
-0.00553355
-0.00380587
-0.00216759
-0.000779991
0.000155798
0.000535153
0.00045086
0.000204042
3.99034e-05
0.00135348
0.00104395
0.00060589
0.000207393
-0.000166713
-0.000583757
-0.00108183
-0.00168293
-0.00239886
-0.00322757
-0.00415724
-0.00516975
-0.00624389
-0.00735798
-0.00849176
-0.00962729
-0.0107492
-0.0118449
-0.0129041
-0.0139191
-0.0148846
-0.0157971
-0.016655
-0.017458
-0.0182068
-0.0189029
-0.019548
-0.0201443
-0.0206937
-0.0211983
-0.0216597
-0.0220795
-0.022459
-0.0227993
-0.023101
-0.0233649
-0.0235914
-0.0237807
-0.0239333
-0.0240493
-0.0241288
-0.024172
-0.0241791
-0.0241506
-0.0240868
-0.0239881
-0.0238552
-0.0236887
-0.0234894
-0.0232582
-0.022996
-0.0227036
-0.022382
-0.0220318
-0.0216536
-0.0212477
-0.0208135
-0.0203503
-0.0198561
-0.0193278
-0.018761
-0.0181493
-0.0174843
-0.016755
-0.0159483
-0.0150484
-0.0140378
-0.0128997
-0.0116195
-0.0101844
-0.00858706
-0.00684075
-0.00507971
-0.0033766
-0.00183518
-0.000680341
-9.95105e-05
-8.35768e-05
-0.000309773
-0.000505011
0.000915034
0.000607087
0.000163132
-0.000250087
-0.000647011
-0.00109225
-0.00162298
-0.00226055
-0.0030145
-0.00388095
-0.00484573
-0.00588859
-0.00698689
-0.00811829
-0.00926245
-0.0104017
-0.0115213
-0.0126091
-0.0136559
-0.0146549
-0.0156018
-0.0164941
-0.017331
-0.0181131
-0.0188415
-0.0195183
-0.0201455
-0.0207255
-0.0212603
-0.0217521
-0.0222025
-0.022613
-0.0229847
-0.0233188
-0.0236157
-0.0238762
-0.0241005
-0.0242888
-0.0244414
-0.0245583
-0.0246397
-0.0246856
-0.0246962
-0.0246719
-0.0246128
-0.0245195
-0.0243924
-0.0242322
-0.0240397
-0.0238156
-0.0235608
-0.0232763
-0.022963
-0.0226216
-0.0222529
-0.0218572
-0.0214345
-0.0209844
-0.0205054
-0.0199954
-0.0194505
-0.0188655
-0.0182329
-0.0175431
-0.0167834
-0.0159388
-0.0149917
-0.0139234
-0.0127172
-0.0113587
-0.0098338
-0.00814133
-0.00634996
-0.00462188
-0.00298668
-0.00164982
-0.000859267
-0.000696433
-0.000885454
-0.00112062
0.000398404
9.57323e-05
-0.00034906
-0.000773197
-0.00118944
-0.00165895
-0.00221761
-0.00288509
-0.00366939
-0.00456474
-0.00555503
-0.0066184
-0.00773126
-0.00887097
-0.0100173
-0.0111531
-0.012264
-0.0133389
-0.0143693
-0.0153495
-0.0162759
-0.0171471
-0.0179629
-0.0187244
-0.0194334
-0.0200922
-0.0207031
-0.0212685
-0.0217906
-0.0222713
-0.0227124
-0.0231151
-0.0234807
-0.0238099
-0.0241033
-0.0243614
-0.0245844
-0.0247725
-0.0249257
-0.0250441
-0.0251276
-0.0251764
-0.0251906
-0.0251703
-0.0251158
-0.0250274
-0.0249058
-0.0247513
-0.0245648
-0.024347
-0.0240987
-0.023821
-0.0235147
-0.0231807
-0.0228197
-0.0224324
-0.0220191
-0.0215797
-0.0211132
-0.0206181
-0.0200915
-0.0195291
-0.0189245
-0.0182692
-0.0175518
-0.016758
-0.0158708
-0.0148708
-0.0137395
-0.0124613
-0.0110199
-0.00940106
-0.00761387
-0.00587484
-0.00420205
-0.00273302
-0.00174835
-0.00141511
-0.00153874
-0.00182384
-0.000183888
-0.000479266
-0.00091988
-0.00135105
-0.00178309
-0.00227291
-0.00285431
-0.00354527
-0.00435234
-0.00526814
-0.00627502
-0.00735001
-0.00846893
-0.00960911
-0.0107507
-0.0118769
-0.0129742
-0.0140322
-0.0150434
-0.0160028
-0.0169077
-0.0177574
-0.0185525
-0.0192943
-0.0199852
-0.0206274
-0.0212236
-0.021776
-0.022287
-0.0227583
-0.0231915
-0.0235879
-0.0239486
-0.0242741
-0.024565
-0.0248216
-0.0250441
-0.0252325
-0.0253868
-0.025507
-0.0255929
-0.0256447
-0.0256624
-0.0256461
-0.0255959
-0.0255123
-0.0253956
-0.0252463
-0.0250652
-0.024853
-0.0246105
-0.0243386
-0.0240383
-0.0237105
-0.0233562
-0.0229759
-0.0225703
-0.0221396
-0.0216834
-0.0212007
-0.0206893
-0.0201459
-0.0195653
-0.0189402
-0.0182603
-0.0175127
-0.016681
-0.0157464
-0.0146883
-0.0134893
-0.0121328
-0.0105985
-0.00887954
-0.00711931
-0.00544648
-0.00390114
-0.00275529
-0.00225202
-0.00228773
-0.00263464
-0.000819258
-0.00110486
-0.00153742
-0.00197223
-0.0024166
-0.00292257
-0.00352131
-0.00422952
-0.0050522
-0.00598067
-0.00699614
-0.0080749
-0.00919255
-0.0103266
-0.0114576
-0.0125695
-0.0136494
-0.0146876
-0.0156776
-0.0166151
-0.0174982
-0.0183267
-0.0191017
-0.0198249
-0.0204989
-0.0211261
-0.021709
-0.0222501
-0.0227514
-0.0232147
-0.0236414
-0.0240327
-0.0243895
-0.0247123
-0.0250015
-0.0252573
-0.0254798
-0.025669
-0.0258248
-0.025947
-0.0260355
-0.0260904
-0.0261115
-0.026099
-0.026053
-0.0259737
-0.0258616
-0.0257172
-0.025541
-0.0253338
-0.0250964
-0.0248297
-0.0245346
-0.0242122
-0.0238634
-0.0234891
-0.02309
-0.0226666
-0.022219
-0.0217465
-0.0212479
-0.0207206
-0.0201606
-0.0195615
-0.0189147
-0.0182085
-0.0174278
-0.0165541
-0.0155669
-0.0144465
-0.013176
-0.0117341
-0.010109
-0.00834547
-0.00669661
-0.00513354
-0.00387187
-0.00320341
-0.00314238
-0.00355398
-0.00149454
-0.00176801
-0.00218945
-0.00262481
-0.00307792
-0.00359565
-0.00420673
-0.00492641
-0.00575822
-0.00669241
-0.00770947
-0.00878532
-0.00989559
-0.0110181
-0.0121341
-0.0132279
-0.0142876
-0.0153042
-0.0162718
-0.0171869
-0.0180484
-0.0188563
-0.0196122
-0.0203181
-0.0209765
-0.0215901
-0.0221612
-0.0226923
-0.0231853
-0.0236417
-0.0240631
-0.0244503
-0.024804
-0.0251249
-0.025413
-0.0256686
-0.0258916
-0.0260819
-0.0262394
-0.0263638
-0.026455
-0.0265129
-0.0265374
-0.0265286
-0.0264865
-0.0264113
-0.0263035
-0.0261634
-0.0259917
-0.0257891
-0.0255562
-0.0252941
-0.0250037
-0.024686
-0.024342
-0.0239728
-0.0235792
-0.023162
-0.0227216
-0.0222578
-0.02177
-0.0212564
-0.0207139
-0.0201375
-0.0195198
-0.0188505
-0.0181158
-0.0172986
-0.0163787
-0.015335
-0.0141511
-0.0128085
-0.0112823
-0.00955585
-0.00791953
-0.0063896
-0.00506789
-0.00425733
-0.00410451
-0.00457086
-0.00219605
-0.00245586
-0.00286361
-0.00329621
-0.00375459
-0.00428015
-0.00489907
-0.00562503
-0.00646026
-0.00739419
-0.00840694
-0.00947436
-0.0105723
-0.0116792
-0.0127766
-0.0138498
-0.0148873
-0.0158812
-0.016826
-0.0177189
-0.0185592
-0.0193475
-0.0200854
-0.0207753
-0.0214195
-0.0220208
-0.0225815
-0.0231039
-0.0235896
-0.0240404
-0.0244572
-0.0248411
-0.0251926
-0.0255121
-0.0257997
-0.0260555
-0.0262793
-0.0264709
-0.0266302
-0.0267569
-0.0268507
-0.0269116
-0.0269394
-0.026934
-0.0268956
-0.0268243
-0.0267205
-0.0265845
-0.0264169
-0.0262183
-0.0259896
-0.0257316
-0.0254453
-0.0251317
-0.024792
-0.0244273
-0.0240385
-0.0236266
-0.0231923
-0.022736
-0.0222574
-0.0217555
-0.0212281
-0.0206713
-0.0200791
-0.0194425
-0.0187493
-0.0179837
-0.017126
-0.0161552
-0.0150533
-0.0138029
-0.0123779
-0.0107601
-0.00911764
-0.00763115
-0.00629658
-0.00538455
-0.00516526
-0.00566123
-0.00291059
-0.0031555
-0.00354737
-0.00397442
-0.0044349
-0.00496476
-0.00558751
-0.00631526
-0.00714903
-0.00807772
-0.00908134
-0.0101359
-0.0112178
-0.0123058
-0.0133823
-0.0144331
-0.0154476
-0.0164182
-0.0173403
-0.0182116
-0.0190317
-0.0198014
-0.0205226
-0.0211977
-0.0218291
-0.0224194
-0.0229709
-0.0234855
-0.0239651
-0.024411
-0.0248242
-0.0252054
-0.0255552
-0.0258738
-0.0261612
-0.0264174
-0.0266422
-0.0268354
-0.0269966
-0.0271255
-0.027222
-0.0272858
-0.0273166
-0.0273146
-0.0272796
-0.0272119
-0.0271117
-0.0269794
-0.0268156
-0.0266208
-0.0263958
-0.0261415
-0.0258589
-0.0255491
-0.0252132
-0.0248524
-0.0244678
-0.0240606
-0.0236317
-0.0231817
-0.0227111
-0.0222193
-0.0217049
-0.0211652
-0.0205952
-0.0199876
-0.0193315
-0.0186126
-0.0178125
-0.0169106
-0.015887
-0.0147246
-0.0133989
-0.0118982
-0.0102788
-0.00884275
-0.0075247
-0.00655071
-0.00628839
-0.00676673
-0.00362566
-0.00385454
-0.00422882
-0.00464809
-0.00510796
-0.00563903
-0.00626216
-0.00698791
-0.00781623
-0.00873563
-0.00972634
-0.0107648
-0.0118278
-0.0128949
-0.0139489
-0.0149764
-0.0159674
-0.016915
-0.017815
-0.0186655
-0.0194664
-0.0202188
-0.0209246
-0.0215862
-0.022206
-0.0227865
-0.0233298
-0.0238378
-0.024312
-0.0247538
-0.0251639
-0.0255431
-0.0258916
-0.0262096
-0.0264971
-0.026754
-0.0269799
-0.0271746
-0.0273377
-0.0274689
-0.0275679
-0.0276344
-0.0276682
-0.0276692
-0.0276375
-0.0275731
-0.0274763
-0.0273474
-0.027187
-0.0269956
-0.026774
-0.0265231
-0.0262439
-0.0259374
-0.025605
-0.0252477
-0.0248668
-0.0244637
-0.0240395
-0.0235952
-0.0231315
-0.0226485
-0.0221454
-0.0216205
-0.02107
-0.0204879
-0.0198649
-0.0191882
-0.018441
-0.0176032
-0.0166541
-0.0155785
-0.0143571
-0.0129655
-0.0113923
-0.00999104
-0.00872178
-0.00772232
-0.00741381
-0.00781271
-0.00432978
-0.00454171
-0.0048971
-0.00530683
-0.0057638
-0.00629345
-0.00691408
-0.00763481
-0.00845462
-0.00936149
-0.0103365
-0.0113564
-0.0123988
-0.0134436
-0.0144744
-0.0154785
-0.0164463
-0.0173714
-0.0182502
-0.019081
-0.019864
-0.0206004
-0.0212921
-0.0219414
-0.0225508
-0.0231225
-0.0236586
-0.0241608
-0.0246304
-0.0250687
-0.0254763
-0.0258538
-0.0262013
-0.0265191
-0.0268069
-0.0270645
-0.0272916
-0.0274878
-0.0276528
-0.0277862
-0.0278875
-0.0279566
-0.0279931
-0.027997
-0.0279682
-0.0279069
-0.0278131
-0.0276874
-0.02753
-0.0273418
-0.0271233
-0.0268755
-0.0265993
-0.0262959
-0.0259665
-0.0256124
-0.025235
-0.0248355
-0.0244155
-0.0239762
-0.0235185
-0.0230432
-0.0225501
-0.0220381
-0.0215046
-0.0209449
-0.0203512
-0.0197123
-0.0190128
-0.0182338
-0.0173547
-0.0163597
-0.015233
-0.0139482
-0.0124756
-0.0110822
-0.00986048
-0.00886314
-0.00849459
-0.00879244
-0.00501202
-0.00520674
-0.00554252
-0.00594132
-0.00639353
-0.00691964
-0.00753544
-0.00824875
-0.009058
-0.00994986
-0.010907
-0.0119071
-0.0129278
-0.0139498
-0.0149574
-0.0159383
-0.0168836