/*--------------------------------*- C++ -*----------------------------------*\
  =========                 |
  \\      /  F ield         | OpenFOAM: The Open Source CFD Toolbox
   \\    /   O peration     | Website:  https://openfoam.org
    \\  /    A nd           | Version:  13
     \\/     M anipulation  |
\*---------------------------------------------------------------------------*/
FoamFile
{
    format      ascii;
    class       surfaceScalarField;
    location    "3.6";
    object      phi;
}
// * * * * * * * * * * * * * * * * * * * * * * * * * * * * * * * * * * * * * //

dimensions      [0 3 -1 0 0 0 0];

internalField   nonuniform List<scalar> 
12640
(
1.98066e-09
-1.98109e-09
1.33014e-08
-1.13207e-08
3.22141e-08
-1.89127e-08
5.38013e-08
-2.15872e-08
7.34457e-08
-1.96444e-08
8.85326e-08
-1.50868e-08
9.80578e-08
-9.52527e-09
1.02611e-07
-4.55338e-09
1.03736e-07
-1.12469e-09
1.03078e-07
6.57603e-10
1.02025e-07
1.05281e-09
1.01456e-07
5.69894e-10
1.01687e-07
-2.31044e-10
1.02617e-07
-9.30118e-10
1.03737e-07
-1.12069e-09
1.04431e-07
-6.93123e-10
1.0412e-07
3.10333e-10
1.02358e-07
1.76171e-09
9.84555e-08
3.90292e-09
9.17117e-08
6.74387e-09
8.16036e-08
1.0108e-08
6.7672e-08
1.39316e-08
4.9576e-08
1.8096e-08
2.71658e-08
2.24102e-08
4.54303e-10
2.67115e-08
-3.07301e-08
3.11844e-08
-6.71737e-08
3.64436e-08
-1.10214e-07
4.30399e-08
-1.61795e-07
5.15814e-08
-2.23868e-07
6.20731e-08
-2.96878e-07
7.30095e-08
-3.79387e-07
8.25089e-08
-4.69143e-07
8.97568e-08
-5.63928e-07
9.47843e-08
-6.61408e-07
9.74803e-08
-7.59427e-07
9.80187e-08
-8.56001e-07
9.65746e-08
-9.49405e-07
9.3404e-08
-1.03816e-06
8.8754e-08
-1.12103e-06
8.28702e-08
-1.197e-06
7.59719e-08
-1.2652e-06
6.81941e-08
-1.32487e-06
5.96728e-08
-1.37534e-06
5.04727e-08
-1.41597e-06
4.06262e-08
-1.44608e-06
3.01148e-08
-1.46502e-06
1.89396e-08
-1.47305e-06
8.03282e-09
-1.46933e-06
-3.72239e-09
-1.45242e-06
-1.6917e-08
-1.42297e-06
-2.94501e-08
-1.3798e-06
-4.31683e-08
-1.32316e-06
-5.66333e-08
-1.25289e-06
-7.02702e-08
-1.16944e-06
-8.34492e-08
-1.07341e-06
-9.6035e-08
-9.65712e-07
-1.07697e-07
-8.47514e-07
-1.18199e-07
-7.20379e-07
-1.27135e-07
-5.86436e-07
-1.33943e-07
-4.48391e-07
-1.38046e-07
-3.09554e-07
-1.38837e-07
-1.73588e-07
-1.35965e-07
-4.44125e-08
-1.29176e-07
7.41208e-08
-1.18533e-07
1.77954e-07
-1.03833e-07
2.63059e-07
-8.51051e-08
3.26368e-07
-6.33094e-08
3.65575e-07
-3.92066e-08
3.79684e-07
-1.4109e-08
3.68226e-07
1.1458e-08
3.34763e-07
3.3463e-08
2.82888e-07
5.18742e-08
2.19622e-07
6.32661e-08
1.55195e-07
6.44273e-08
9.72303e-08
5.79648e-08
5.09851e-08
4.62453e-08
1.89448e-08
3.20402e-08
2.52215e-09
1.64227e-08
2.52214e-09
9.29769e-09
-1.12788e-08
3.59698e-08
-3.79929e-08
7.23114e-08
-5.52542e-08
1.09526e-07
-5.8802e-08
1.41719e-07
-5.18378e-08
1.65868e-07
-3.92349e-08
1.814e-07
-2.50578e-08
1.89051e-07
-1.22047e-08
1.90199e-07
-2.27214e-09
1.86506e-07
4.3506e-09
1.79562e-07
7.99646e-09
1.70419e-07
9.71304e-09
1.5945e-07
1.07374e-08
1.46294e-07
1.22263e-08
1.30225e-07
1.49488e-08
1.10421e-07
1.91107e-08
8.61261e-08
2.4605e-08
5.63841e-08
3.15037e-08
2.02231e-08
4.00639e-08
-2.35327e-08
5.04996e-08
-7.64128e-08
6.29881e-08
-1.39769e-07
7.72883e-08
-2.14549e-07
9.28754e-08
-3.01514e-07
1.09375e-07
-4.01218e-07
1.26415e-07
-5.13705e-07
1.43671e-07
-6.37796e-07
1.60535e-07
-7.7089e-07
1.76135e-07
-9.09514e-07
1.90205e-07
-1.04945e-06
2.02008e-07
-1.18724e-06
2.10797e-07
-1.32111e-06
2.16383e-07
-1.44965e-06
2.18296e-07
-1.57145e-06
2.16584e-07
-1.68531e-06
2.11343e-07
-1.79031e-06
2.03019e-07
-1.88581e-06
1.9207e-07
-1.97132e-06
1.78913e-07
-2.04651e-06
1.63949e-07
-2.11112e-06
1.47482e-07
-2.16496e-06
1.29805e-07
-2.20783e-06
1.11067e-07
-2.23958e-06
9.14188e-08
-2.26004e-06
7.09368e-08
-2.26908e-06
4.96663e-08
-2.2666e-06
2.76404e-08
-2.25212e-06
4.45255e-09
-2.22552e-06
-1.85624e-08
-2.18644e-06
-4.28036e-08
-2.1352e-06
-6.81565e-08
-2.07087e-06
-9.37811e-08
-1.99394e-06
-1.20103e-07
-1.90397e-06
-1.46598e-07
-1.80111e-06
-1.73136e-07
-1.68535e-06
-1.99201e-07
-1.55708e-06
-2.24308e-07
-1.41705e-06
-2.47725e-07
-1.2665e-06
-2.68755e-07
-1.10715e-06
-2.86481e-07
-9.41188e-07
-2.99905e-07
-7.71122e-07
-3.08111e-07
-5.99847e-07
-3.10111e-07
-4.30662e-07
-3.05151e-07
-2.67077e-07
-2.9276e-07
-1.12924e-07
-2.72686e-07
2.81973e-08
-2.44955e-07
1.53161e-07
-2.10069e-07
2.58359e-07
-1.68507e-07
3.41183e-07
-1.2203e-07
3.99287e-07
-7.22136e-08
4.32291e-07
-2.15457e-08
4.38454e-07
2.73005e-08
4.18985e-07
7.13425e-08
3.76036e-07
1.06215e-07
3.11343e-07
1.2912e-07
2.32362e-07
1.36946e-07
1.49979e-07
1.28629e-07
7.63318e-08
1.05687e-07
2.31729e-08
6.95816e-08
2.5695e-08
1.64154e-08
-2.76941e-08
5.33801e-08
-7.49577e-08
9.52172e-08
-9.70913e-08
1.32533e-07
-9.61177e-08
1.61586e-07
-8.08911e-08
1.81445e-07
-5.90939e-08
1.9254e-07
-3.61525e-08
1.95575e-07
-1.52399e-08
1.91454e-07
1.8493e-09
1.81135e-07
1.46693e-08
1.65632e-07
2.34992e-08
1.45382e-07
2.99629e-08
1.20227e-07
3.58926e-08
8.95324e-08
4.29212e-08
5.23916e-08
5.20896e-08
7.67998e-09
6.38223e-08
-4.59707e-08
7.82557e-08
-1.09925e-07
9.54579e-08
-1.85358e-07
1.15497e-07
-2.73202e-07
1.38344e-07
-3.73942e-07
1.63728e-07
-4.87504e-07
1.90851e-07
-6.13338e-07
2.18709e-07
-7.5014e-07
2.46177e-07
-8.95576e-07
2.71851e-07
-1.0466e-06
2.94691e-07
-1.19979e-06
3.13729e-07
-1.35196e-06
3.28309e-07
-1.50008e-06
3.3832e-07
-1.64157e-06
3.43495e-07
-1.77459e-06
3.43818e-07
-1.89776e-06
3.39556e-07
-2.0104e-06
3.30935e-07
-2.11236e-06
3.1854e-07
-2.2038e-06
3.02791e-07
-2.28488e-06
2.84092e-07
-2.3558e-06
2.6299e-07
-2.41677e-06
2.39881e-07
-2.46795e-06
2.15133e-07
-2.50947e-06
1.89001e-07
-2.54142e-06
1.61757e-07
-2.56385e-06
1.33498e-07
-2.57673e-06
1.04299e-07
-2.57999e-06
7.41922e-08
-2.57346e-06
4.31379e-08
-2.55689e-06
1.10724e-08
-2.53046e-06
-2.19773e-08
-2.4931e-06
-5.59249e-08
-2.44483e-06
-9.10679e-08
-2.38562e-06
-1.27371e-07
-2.31485e-06
-1.64554e-07
-2.23239e-06
-2.02558e-07
-2.13799e-06
-2.41002e-07
-2.03155e-06
-2.79576e-07
-1.91308e-06
-3.17672e-07
-1.78286e-06
-3.54518e-07
-1.64149e-06
-3.89097e-07
-1.48986e-06
-4.20386e-07
-1.32925e-06
-4.47089e-07
-1.16145e-06
-4.67707e-07
-9.88779e-07
-4.80783e-07
-8.13911e-07
-4.84979e-07
-6.40026e-07
-4.79036e-07
-4.70573e-07
-4.62214e-07
-3.09059e-07
-4.342e-07
-1.58682e-07
-3.95331e-07
-2.27692e-08
-3.45982e-07
9.60843e-08
-2.87361e-07
1.95381e-07
-2.21327e-07
2.73537e-07
-1.5037e-07
3.29492e-07
-7.75001e-08
3.62666e-07
-5.87352e-09
3.71976e-07
6.20319e-08
3.57321e-07
1.2087e-07
3.19901e-07
1.66541e-07
2.62557e-07
1.94289e-07
1.90113e-07
2.01073e-07
1.11648e-07
1.84152e-07
4.0311e-08
1.40919e-07
6.6006e-08
2.19271e-08
-4.96212e-08
6.35498e-08
-1.1658e-07
1.03525e-07
-1.37066e-07
1.34589e-07
-1.27182e-07
1.55445e-07
-1.01747e-07
1.66873e-07
-7.05221e-08
1.69715e-07
-3.89951e-08
1.64748e-07
-1.02722e-08
1.52464e-07
1.41332e-08
1.33231e-07
3.39022e-08
1.06808e-07
4.99216e-08
7.28125e-08
6.39588e-08
3.06294e-08
7.80758e-08
-2.05012e-08
9.40518e-08
-8.14796e-08
1.13068e-07
-1.53405e-07
1.35748e-07
-2.3742e-07
1.6227e-07
-3.34465e-07
1.92503e-07
-4.45084e-07
2.26116e-07
-5.69074e-07
2.62333e-07
-7.05372e-07
3.00026e-07
-8.52021e-07
3.375e-07
-1.00618e-06
3.72865e-07
-1.16462e-06
4.04624e-07
-1.32397e-06
4.31194e-07
-1.48103e-06
4.51752e-07
-1.63285e-06
4.65547e-07
-1.77684e-06
4.72302e-07
-1.91101e-06
4.72495e-07
-2.03441e-06
4.66897e-07
-2.14676e-06
4.56163e-07
-2.24813e-06
4.40923e-07
-2.33893e-06
4.21739e-07
-2.41959e-06
3.992e-07
-2.49064e-06
3.73843e-07
-2.55261e-06
3.46059e-07
-2.60592e-06
3.163e-07
-2.6509e-06
2.84866e-07
-2.68782e-06
2.52047e-07
-2.71683e-06
2.18016e-07
-2.73801e-06
1.82938e-07
-2.75139e-06
1.46868e-07
-2.75688e-06
1.09789e-07
-2.75434e-06
7.16545e-08
-2.74355e-06
3.23502e-08
-2.72428e-06
-8.20042e-09
-2.69622e-06
-5.00367e-08
-2.6589e-06
-9.32459e-08
-2.612e-06
-1.37966e-07
-2.55518e-06
-1.84186e-07
-2.48795e-06
-2.31792e-07
-2.40994e-06
-2.80564e-07
-2.32082e-06
-3.30122e-07
-2.22031e-06
-3.80092e-07
-2.10817e-06
-4.29812e-07
-1.98434e-06
-4.78347e-07
-1.84911e-06
-5.24327e-07
-1.70303e-06
-5.6646e-07
-1.54697e-06
-6.03149e-07
-1.38234e-06
-6.32345e-07
-1.211e-06
-6.52116e-07
-1.03536e-06
-6.60626e-07
-8.58348e-07
-6.56045e-07
-6.83569e-07
-6.36993e-07
-5.14928e-07
-6.02841e-07
-3.5604e-07
-5.5422e-07
-2.10007e-07
-4.92014e-07
-7.9829e-08
-4.17539e-07
3.21623e-08
-3.33318e-07
1.24295e-07
-2.42502e-07
1.95442e-07
-1.48647e-07
2.45112e-07
-5.5544e-08
2.73961e-07
3.31826e-08
2.81492e-07
1.13339e-07
2.67724e-07
1.8031e-07
2.33015e-07
2.28998e-07
1.80326e-07
2.53762e-07
1.14362e-07
2.50116e-07
4.47844e-08
2.10496e-07
1.1079e-07
2.58012e-08
-7.54224e-08
6.66623e-08
-1.57442e-07
9.96391e-08
-1.70043e-07
1.2131e-07
-1.48853e-07
1.32021e-07
-1.12457e-07
1.33377e-07
-7.18786e-08
1.26351e-07
-3.19691e-08
1.11426e-07
4.65373e-09
8.85949e-08
3.69639e-08
5.7493e-08
6.50041e-08
1.7356e-08
9.00586e-08
-3.27227e-08
1.14037e-07
-9.36569e-08
1.3901e-07
-1.6632e-07
1.66715e-07
-2.51537e-07
1.98285e-07
-3.50013e-07
2.34224e-07
-4.62184e-07
2.74442e-07
-5.87897e-07
3.18216e-07
-7.26231e-07
3.6445e-07
-8.75265e-07
4.11368e-07
-1.03209e-06
4.56851e-07
-1.19345e-06
4.98864e-07
-1.35579e-06
5.35201e-07
-1.51571e-06
5.64545e-07
-1.66992e-06
5.85408e-07
-1.81537e-06
5.97198e-07
-1.95034e-06
6.00515e-07
-2.07427e-06
5.96235e-07
-2.18715e-06
5.85375e-07
-2.28931e-06
5.69053e-07
-2.38124e-06
5.48092e-07
-2.46361e-06
5.23298e-07
-2.53709e-06
4.95213e-07
-2.60223e-06
4.64339e-07
-2.65955e-06
4.31164e-07
-2.70952e-06
3.96033e-07
-2.7525e-06
3.59279e-07
-2.78879e-06
3.21155e-07
-2.81859e-06
2.81845e-07
-2.84198e-06
2.41405e-07
-2.85896e-06
1.9992e-07
-2.86953e-06
1.57444e-07
-2.87361e-06
1.13867e-07
-2.87104e-06
6.90785e-08
-2.86158e-06
2.28915e-08
-2.84495e-06
-2.48292e-08
-2.82074e-06
-7.42406e-08
-2.78854e-06
-1.25453e-07
-2.74797e-06
-1.78535e-07
-2.69861e-06
-2.33542e-07
-2.63986e-06
-2.90543e-07
-2.57112e-06
-3.49305e-07
-2.49196e-06
-4.09281e-07
-2.40193e-06
-4.70122e-07
-2.30055e-06
-5.31195e-07
-2.1873e-06
-5.91596e-07
-2.06213e-06
-6.49492e-07
-1.92527e-06
-7.03318e-07
-1.77706e-06
-7.5136e-07
-1.61844e-06
-7.90971e-07
-1.45081e-06
-8.1974e-07
-1.27621e-06
-8.35231e-07
-1.09718e-06
-8.35071e-07
-9.16891e-07
-8.17284e-07
-7.39381e-07
-7.80351e-07
-5.69364e-07
-7.24237e-07
-4.10691e-07
-6.50687e-07
-2.66566e-07
-5.61664e-07
-1.39845e-07
-4.60039e-07
-3.27173e-08
-3.4963e-07
5.35383e-08
-2.34902e-07
1.18472e-07
-1.20478e-07
1.62556e-07
-1.09014e-08
1.86439e-07
8.94559e-08
1.90763e-07
1.75985e-07
1.76071e-07
2.4369e-07
1.43271e-07
2.86563e-07
9.49067e-08
2.9848e-07
3.81463e-08
2.67257e-07
1.48937e-07
2.77433e-08
-1.03166e-07
6.29298e-08
-1.92628e-07
8.55898e-08
-1.92703e-07
9.57237e-08
-1.58987e-07
9.52893e-08
-1.12023e-07
8.57717e-08
-6.2361e-08
6.78582e-08
-1.40555e-08
4.15546e-08
3.09573e-08
6.42631e-09
7.20922e-08
-3.84579e-08
1.09888e-07
-9.41598e-08
1.4576e-07
-1.61764e-07
1.81642e-07
-2.42206e-07
2.19452e-07
-3.36171e-07
2.6068e-07
-4.44032e-07
3.06146e-07
-5.65713e-07
3.55904e-07
-7.00514e-07
4.09243e-07
-8.46867e-07
4.64569e-07
-1.00219e-06
5.19776e-07
-1.16343e-06
5.72604e-07
-1.32684e-06
6.20264e-07
-1.48872e-06
6.60743e-07
-1.64518e-06
6.91655e-07
-1.79263e-06
7.11998e-07
-1.92922e-06
7.21995e-07
-2.05448e-06
7.22464e-07
-2.16867e-06
7.14701e-07
-2.27236e-06
6.99923e-07
-2.36629e-06
6.79306e-07
-2.45113e-06
6.53892e-07
-2.52754e-06
6.24506e-07
-2.59614e-06
5.91901e-07
-2.65749e-06
5.56563e-07
-2.71211e-06
5.18956e-07
-2.76042e-06
4.79474e-07
-2.80278e-06
4.38392e-07
-2.83943e-06
3.95934e-07
-2.87061e-06
3.52334e-07
-2.8965e-06
3.07727e-07
-2.91709e-06
2.61996e-07
-2.93234e-06
2.15172e-07
-2.94232e-06
1.67429e-07
-2.94696e-06
1.18507e-07
-2.94616e-06
6.82784e-08
-2.93977e-06
1.64942e-08
-2.92766e-06
-3.69398e-08
-2.90949e-06
-9.24072e-08
-2.88481e-06
-1.50128e-07
-2.85309e-06
-2.10263e-07
-2.81376e-06
-2.72864e-07
-2.76627e-06
-3.3804e-07
-2.70973e-06
-4.05837e-07
-2.64345e-06
-4.75566e-07
-2.56674e-06
-5.46827e-07
-2.47917e-06
-6.18773e-07
-2.38008e-06
-6.90683e-07
-2.2685e-06
-7.6107e-07
-2.14435e-06
-8.27465e-07
-2.00736e-06
-8.88352e-07
-1.85792e-06
-9.40417e-07
-1.69695e-06
-9.80703e-07
-1.5258e-06
-1.00639e-06
-1.34685e-06
-1.01402e-06
-1.16295e-06
-1.00119e-06
-9.7763e-07
-9.65668e-07
-7.95586e-07
-9.06282e-07
-6.22193e-07
-8.2408e-07
-4.61697e-07
-7.22161e-07
-3.17581e-07
-6.04154e-07
-1.92788e-07
-4.74423e-07
-8.93145e-08
-3.38376e-07
-7.97194e-09
-2.0182e-07
5.15455e-08
-7.04188e-08
9.03377e-08
5.06636e-08
1.09992e-07
1.56331e-07
1.11506e-07
2.42176e-07
9.58586e-08
3.0221e-07
6.53988e-08
3.2894e-07
2.60392e-08
3.06616e-07
1.74976e-07
2.71876e-08
-1.30353e-07
5.24478e-08
-2.17888e-07
6.29035e-08
-2.03159e-07
6.06027e-08
-1.56686e-07
4.83956e-08
-9.98159e-08
2.73728e-08
-4.13382e-08
-2.28569e-09
1.5603e-08
-4.10212e-08
6.96928e-08
-8.96993e-08
1.2077e-07
-1.49439e-07
1.69628e-07
-2.21408e-07
2.17729e-07
-3.06594e-07
2.66828e-07
-4.05655e-07
3.18512e-07
-5.18784e-07
3.7381e-07
-6.45568e-07
4.32929e-07
-7.84919e-07
4.95256e-07
-9.349e-07
5.59224e-07
-1.09267e-06
6.22341e-07
-1.25465e-06
6.81752e-07
-1.41699e-06
7.34942e-07
-1.57536e-06
7.78637e-07
-1.72548e-06
8.10865e-07
-1.86496e-06
8.31132e-07
-1.99295e-06
8.39989e-07
-2.10967e-06
8.38718e-07
-2.21583e-06
8.28624e-07
-2.31219e-06
8.11064e-07
-2.39956e-06
7.87294e-07
-2.47873e-06
7.58476e-07
-2.55036e-06
7.25519e-07
-2.61504e-06
6.89184e-07
-2.67323e-06
6.50091e-07
-2.72538e-06
6.08714e-07
-2.7719e-06
5.65473e-07
-2.81311e-06
5.2069e-07
-2.84932e-06
4.74598e-07
-2.88063e-06
4.27243e-07
-2.90718e-06
3.78889e-07
-2.92914e-06
3.29683e-07
-2.94682e-06
2.79672e-07
-2.96035e-06
2.28704e-07
-2.96951e-06
1.7659e-07
-2.97422e-06
1.23216e-07
-2.97432e-06
6.83827e-08
-2.96963e-06
1.18061e-08
-2.96022e-06
-4.63537e-08
-2.946e-06
-1.06622e-07
-2.9269e-06
-1.69237e-07
-2.90271e-06
-2.34446e-07
-2.8731e-06
-3.02473e-07
-2.83769e-06
-3.73457e-07
-2.79588e-06
-4.47641e-07
-2.74642e-06
-5.25027e-07
-2.68803e-06
-6.05215e-07
-2.61915e-06
-6.87661e-07
-2.5386e-06
-7.71229e-07
-2.44506e-06
-8.54607e-07
-2.33798e-06
-9.34547e-07
-2.21715e-06
-1.00919e-06
-2.08196e-06
-1.07561e-06
-1.93257e-06
-1.13009e-06
-1.76957e-06
-1.16939e-06
-1.5948e-06
-1.18879e-06
-1.41055e-06
-1.18544e-06
-1.22017e-06
-1.15605e-06
-1.02799e-06
-1.09846e-06
-8.39771e-07
-1.0123e-06
-6.6154e-07
-9.00392e-07
-4.98066e-07
-7.67628e-07
-3.53158e-07
-6.19332e-07
-2.29835e-07
-4.61699e-07
-1.29815e-07
-3.01841e-07
-5.32895e-08
-1.46944e-07
8.97067e-10
-3.52298e-09
3.45101e-08
1.22718e-07
4.99918e-08
2.26694e-07
4.92401e-08
3.02962e-07
3.47236e-08
3.43456e-07
1.24532e-08
3.28887e-07
1.87429e-07
2.33698e-08
-1.53723e-07
3.63555e-08
-2.30874e-07
3.34691e-08
-2.00272e-07
1.83351e-08
-1.41552e-07
-5.95728e-09
-7.55236e-08
-3.89363e-08
-8.35919e-09
-8.09351e-08
5.76017e-08
-1.32753e-07
1.21511e-07
-1.9547e-07
1.83487e-07
-2.70224e-07
2.44382e-07
-3.58011e-07
3.05517e-07
-4.59493e-07
3.68309e-07
-5.74808e-07
4.33827e-07
-7.0341e-07
5.02411e-07
-8.44051e-07
5.7357e-07
-9.94597e-07
6.45802e-07
-1.15193e-06
7.16552e-07
-1.31223e-06
7.82647e-07
-1.47129e-06
8.40811e-07
-1.62416e-06
8.87812e-07
-1.76744e-06
9.21915e-07
-1.89952e-06
9.42947e-07
-2.0202e-06
9.51811e-07
-2.12994e-06
9.49727e-07
-2.2295e-06
9.38284e-07
-2.31977e-06
9.18885e-07
-2.4016e-06
8.92899e-07
-2.47579e-06
8.61485e-07
-2.54298e-06
8.25665e-07
-2.6037e-06
7.86235e-07
-2.65839e-06
7.43874e-07
-2.70742e-06
6.99121e-07
-2.75112e-06
6.5242e-07
-2.78978e-06
6.04129e-07
-2.82362e-06
5.54534e-07
-2.85298e-06
5.03955e-07
-2.87836e-06
4.52625e-07
-2.90001e-06
4.00537e-07
-2.91789e-06
3.47562e-07
-2.93197e-06
2.93749e-07
-2.94236e-06
2.39098e-07
-2.94908e-06
1.83315e-07
-2.95224e-06
1.26367e-07
-2.95189e-06
6.80331e-08
-2.94796e-06
7.88108e-09
-2.94067e-06
-5.36399e-08
-2.92986e-06
-1.17435e-07
-2.91538e-06
-1.83721e-07
-2.89701e-06
-2.5281e-07
-2.87447e-06
-3.2502e-07
-2.84736e-06
-4.0056e-07
-2.81548e-06
-4.79526e-07
-2.77826e-06
-5.62248e-07
-2.7351e-06
-6.48379e-07
-2.68522e-06
-7.37534e-07
-2.6275e-06
-8.28956e-07
-2.56001e-06
-9.2209e-07
-2.47905e-06
-1.01551e-06
-2.3823e-06
-1.10594e-06
-2.26841e-06
-1.18949e-06
-2.13746e-06
-1.26104e-06
-1.98991e-06
-1.31694e-06
-1.82617e-06
-1.35254e-06
-1.64794e-06
-1.36366e-06
-1.45775e-06
-1.34623e-06
-1.25975e-06
-1.29646e-06
-1.05922e-06
-1.21283e-06
-8.63428e-07
-1.09618e-06
-6.79471e-07
-9.51586e-07
-5.12628e-07
-7.86174e-07
-3.67005e-07
-6.07321e-07
-2.4563e-07
-4.23216e-07
-1.49832e-07
-2.42743e-07
-7.90143e-08
-7.43404e-08
-3.09274e-08
7.4631e-08
-2.37568e-09
1.98142e-07
9.55571e-09
2.91031e-07
9.04829e-09
3.43964e-07
1.67952e-09
3.36255e-07
1.89109e-07
1.65018e-08
-1.70225e-07
1.57069e-08
-2.30079e-07
-1.29267e-09
-1.83273e-07
-2.88341e-08
-1.14011e-07
-6.52589e-08
-3.90988e-08
-1.10431e-07
3.68125e-08
-1.65009e-07
1.1218e-07
-2.30008e-07
1.86511e-07
-3.06519e-07
2.59998e-07
-3.95506e-07
3.33368e-07
-4.97618e-07
4.0763e-07
-6.13003e-07
4.83694e-07
-7.41113e-07
5.61937e-07
-8.80708e-07
6.42007e-07
-1.02963e-06
7.22488e-07
-1.1846e-06
8.00782e-07
-1.34157e-06
8.73523e-07
-1.49586e-06
9.36936e-07
-1.64297e-06
9.8792e-07
-1.77997e-06
1.02481e-06
-1.90579e-06
1.04773e-06
-2.02033e-06
1.05749e-06
-2.12412e-06
1.0556e-06
-2.21802e-06
1.04363e-06
-2.30294e-06
1.02321e-06
-2.37975e-06
9.95688e-07
-2.44919e-06
9.6234e-07
-2.51189e-06
9.24186e-07
-2.56835e-06
8.82124e-07
-2.61899e-06
8.36874e-07
-2.66417e-06
7.89062e-07
-2.70425e-06
7.39195e-07
-2.73953e-06
6.87702e-07
-2.77035e-06
6.34943e-07
-2.79704e-06
5.81225e-07
-2.81974e-06
5.26654e-07
-2.83852e-06
4.71404e-07
-2.85349e-06
4.15514e-07
-2.86495e-06
3.59016e-07
-2.87313e-06
3.01935e-07
-2.87826e-06
2.44224e-07
-2.88062e-06
1.85676e-07
-2.88041e-06
1.2616e-07
-2.87783e-06
6.54521e-08
-2.87302e-06
3.07211e-09
-2.86602e-06
-6.06457e-08
-2.85677e-06
-1.26682e-07
-2.84528e-06
-1.95212e-07
-2.83149e-06
-2.66597e-07
-2.81531e-06
-3.41204e-07
-2.79652e-06
-4.19347e-07
-2.77473e-06
-5.01313e-07
-2.74957e-06
-5.87412e-07
-2.72029e-06
-6.77656e-07
-2.68595e-06
-7.71875e-07
-2.6454e-06
-8.69509e-07
-2.59785e-06
-9.69642e-07
-2.54187e-06
-1.07149e-06
-2.47529e-06
-1.17252e-06
-2.39397e-06
-1.27081e-06
-2.29274e-06
-1.36226e-06
-2.16973e-06
-1.43995e-06
-2.02553e-06
-1.49673e-06
-1.86201e-06
-1.52719e-06
-1.68019e-06
-1.52806e-06
-1.48359e-06
-1.49306e-06
-1.27671e-06
-1.41971e-06
-1.0665e-06
-1.3064e-06
-8.62125e-07
-1.15596e-06
-6.72038e-07
-9.76261e-07
-5.0211e-07
-7.7725e-07
-3.56662e-07
-5.68665e-07
-2.38568e-07
-3.60837e-07
-1.48408e-07
-1.645e-07
-8.45706e-08
1.07933e-08
-4.32984e-08
1.5687e-07
-1.99809e-08
2.67713e-07
-8.62667e-09
3.3261e-07
-4.40905e-09
3.32038e-07
1.847e-07
7.20342e-09
-1.77428e-07
-8.12122e-09
-2.14754e-07
-3.84671e-08
-1.52927e-07
-7.86282e-08
-7.38495e-08
-1.27185e-07
9.458e-09
-1.84473e-07
9.41004e-08
-2.5143e-07
1.79137e-07
-3.29113e-07
2.64194e-07
-4.18462e-07
3.49348e-07
-5.2012e-07
4.35026e-07
-6.3426e-07
5.2177e-07
-7.60405e-07
6.0984e-07
-8.97409e-07
6.98941e-07
-1.04319e-06
7.87784e-07
-1.19451e-06
8.73815e-07
-1.34718e-06
9.53446e-07
-1.49633e-06
1.02268e-06
-1.63797e-06
1.07857e-06
-1.76954e-06
1.11949e-06
-1.89e-06
1.14527e-06
-1.99927e-06
1.157e-06
-2.09791e-06
1.15613e-06
-2.18679e-06
1.14448e-06
-2.26684e-06
1.12368e-06
-2.33886e-06
1.09523e-06
-2.40358e-06
1.0604e-06
-2.46156e-06
1.02032e-06
-2.51329e-06
9.75918e-07
-2.55918e-06
9.28007e-07
-2.59958e-06
8.77275e-07
-2.63484e-06
8.24322e-07
-2.66529e-06
7.69645e-07
-2.69125e-06
7.13668e-07
-2.71304e-06
6.56728e-07
-2.73087e-06
5.99053e-07
-2.74504e-06
5.40827e-07
-2.75588e-06
4.82246e-07
-2.76371e-06
4.23348e-07
-2.76885e-06
3.64148e-07
-2.77154e-06
3.04627e-07
-2.77201e-06
2.44696e-07
-2.77051e-06
1.84181e-07
-2.76725e-06
1.22897e-07
-2.76239e-06
6.05916e-08
-2.75617e-06
-3.14515e-09
-2.74856e-06
-6.82591e-08
-2.73976e-06
-1.35485e-07
-2.72988e-06
-2.05091e-07
-2.719e-06
-2.77479e-07
-2.70714e-06
-3.53056e-07
-2.69427e-06
-4.32225e-07
-2.6802e-06
-5.15383e-07
-2.66471e-06
-6.02894e-07
-2.64739e-06
-6.94983e-07
-2.62755e-06
-7.91713e-07
-2.60418e-06
-8.92877e-07
-2.5758e-06
-9.98021e-07
-2.54095e-06
-1.10634e-06
-2.49751e-06
-1.21596e-06
-2.44365e-06
-1.32466e-06
-2.37635e-06
-1.42956e-06
-2.29004e-06
-1.52627e-06
-2.17793e-06
-1.60884e-06
-2.03891e-06
-1.66621e-06
-1.87576e-06
-1.69121e-06
-1.68995e-06
-1.67888e-06
-1.48551e-06
-1.62414e-06
-1.26846e-06
-1.52345e-06
-1.04755e-06
-1.37687e-06
-8.34117e-07
-1.18969e-06
-6.38249e-07
-9.73118e-07
-4.66385e-07
-7.40528e-07
-3.22925e-07
-5.04297e-07
-2.10268e-07
-2.77157e-07
-1.27705e-07
-7.17695e-08
-7.20824e-08
1.01247e-07
-3.78309e-08
2.33462e-07
-1.7549e-08
3.12328e-07
-6.23979e-09
3.20728e-07
1.7846e-07
-3.63681e-09
-1.73792e-07
-3.33397e-08
-1.85051e-07
-7.69253e-08
-1.09341e-07
-1.2924e-07
-2.15349e-08
-1.89543e-07
6.97607e-08
-2.58518e-07
1.63075e-07
-3.37184e-07
2.57803e-07
-4.26507e-07
3.53517e-07
-5.27155e-07
4.49996e-07
-6.39347e-07
5.47218e-07
-7.62703e-07
6.45126e-07
-8.96215e-07
7.43352e-07
-1.03796e-06
8.40688e-07
-1.18485e-06
9.34676e-07
-1.33273e-06
1.02169e-06
-1.47692e-06
1.09764e-06
-1.61368e-06
1.15944e-06
-1.7406e-06
1.20549e-06
-1.85647e-06
1.23536e-06
-1.96122e-06
1.25001e-06
-2.05536e-06
1.25114e-06
-2.13977e-06
1.24054e-06
-2.21533e-06
1.22003e-06
-2.28281e-06
1.19116e-06
-2.34287e-06
1.15529e-06
-2.39606e-06
1.1136e-06
-2.44285e-06
1.06711e-06
-2.48365e-06
1.01672e-06
-2.51885e-06
9.63208e-07
-2.54883e-06
9.07257e-07
-2.57397e-06
8.49464e-07
-2.59466e-06
7.90328e-07
-2.61125e-06
7.30265e-07
-2.62413e-06
6.69603e-07
-2.63366e-06
6.08579e-07
-2.64022e-06
5.47388e-07
-2.64414e-06
4.86168e-07
-2.64574e-06
4.24953e-07
-2.64533e-06
3.63737e-07
-2.64316e-06
3.02458e-07
-2.63946e-06
2.40993e-07
-2.63445e-06
1.79165e-07
-2.62831e-06
1.16761e-07
-2.62123e-06
5.35156e-08
-2.6135e-06
-1.08778e-08
-2.6051e-06
-7.6657e-08
-2.59631e-06
-1.4428e-07
-2.58728e-06
-2.14117e-07
-2.57817e-06
-2.86587e-07
-2.56911e-06
-3.62122e-07
-2.56016e-06
-4.41171e-07
-2.55136e-06
-5.24189e-07
-2.54264e-06
-6.11606e-07
-2.53385e-06
-7.03781e-07
-2.52459e-06
-8.00967e-07
-2.51421e-06
-9.0326e-07
-2.50168e-06
-1.01055e-06
-2.48569e-06
-1.12234e-06
-2.46414e-06
-1.23751e-06
-2.43437e-06
-1.35442e-06
-2.39359e-06
-1.47035e-06
-2.33882e-06
-1.58103e-06
-2.26525e-06
-1.68241e-06
-2.16412e-06
-1.76733e-06
-2.03102e-06
-1.82432e-06
-1.86741e-06
-1.84248e-06
-1.67615e-06
-1.81541e-06
-1.46229e-06
-1.7373e-06
-1.23378e-06
-1.60538e-06
-1.00158e-06
-1.4219e-06
-7.79534e-07
-1.19516e-06
-5.79352e-07
-9.40711e-07
-4.07877e-07
-6.75772e-07
-2.69341e-07
-4.15693e-07
-1.64897e-07
-1.76213e-07
-9.22913e-08
2.86414e-08
-4.6099e-08
1.87269e-07
-1.88519e-08
2.85081e-07
-4.38714e-09
3.06264e-07
1.74073e-07
-1.54301e-08
-1.58361e-07
-5.91331e-08
-1.41348e-07
-1.15121e-07
-5.33536e-08
-1.78932e-07
4.22762e-08
-2.50333e-07
1.41162e-07
-3.30172e-07
2.42914e-07
-4.1945e-07
3.47081e-07
-5.18924e-07
4.52991e-07
-6.28904e-07
5.59976e-07
-7.4913e-07
6.67443e-07
-8.78756e-07
7.74752e-07
-1.01606e-06
8.8066e-07
-1.1582e-06
9.82826e-07
-1.30124e-06
1.07772e-06
-1.4408e-06
1.16125e-06
-1.57327e-06
1.23011e-06
-1.69624e-06
1.28241e-06
-1.80831e-06
1.31756e-06
-1.90924e-06
1.33628e-06
-1.99955e-06
1.34033e-06
-2.08004e-06
1.33163e-06
-2.15154e-06
1.31205e-06
-2.21481e-06
1.2833e-06
-2.27047e-06
1.24681e-06
-2.31905e-06
1.20387e-06
-2.36103e-06
1.15558e-06
-2.39686e-06
1.10294e-06
-2.42697e-06
1.04683e-06
-2.4518e-06
9.88043e-07
-2.47182e-06
9.27272e-07
-2.48746e-06
8.65113e-07
-2.4992e-06
8.02063e-07
-2.50746e-06
7.38525e-07
-2.51266e-06
6.74806e-07
-2.51521e-06
6.11132e-07
-2.51549e-06
5.47662e-07
-2.51381e-06
4.84486e-07
-2.51046e-06
4.21608e-07
-2.50571e-06
3.58989e-07
-2.49979e-06
2.96531e-07
-2.49288e-06
2.34091e-07
-2.4852e-06
1.71478e-07
-2.4769e-06
1.08468e-07
-2.46819e-06
4.47983e-08
-2.45925e-06
-1.98158e-08
-2.45022e-06
-8.56871e-08
-2.44131e-06
-1.53192e-07
-2.43271e-06
-2.22713e-07
-2.42463e-06
-2.9467e-07
-2.41725e-06
-3.69503e-07
-2.41074e-06
-4.47679e-07
-2.40525e-06
-5.29682e-07
-2.40086e-06
-6.1599e-07
-2.39759e-06
-7.07055e-07
-2.39529e-06
-8.03267e-07
-2.39362e-06
-9.04923e-07
-2.39201e-06
-1.01216e-06
-2.38952e-06
-1.12483e-06
-2.38464e-06
-1.2424e-06
-2.37526e-06
-1.3638e-06
-2.35852e-06
-1.48709e-06
-2.3303e-06
-1.60925e-06
-2.28683e-06
-1.72589e-06
-2.22309e-06
-1.83107e-06
-2.13067e-06
-1.91674e-06
-2.00207e-06
-1.97107e-06
-1.83691e-06
-1.98057e-06
-1.63831e-06
-1.93591e-06
-1.41332e-06
-1.83036e-06
-1.17231e-06
-1.6629e-06
-9.29073e-07
-1.4384e-06
-7.00206e-07
-1.16958e-06
-4.9872e-07
-8.77258e-07
-3.31548e-07
-5.82865e-07
-2.02032e-07
-3.05728e-07
-1.09541e-07
-6.38502e-08
-4.96539e-08
1.27383e-07
-1.56929e-08
2.5112e-07
-4.24099e-10
2.90995e-07
1.73649e-07
-2.73851e-08
-1.30976e-07
-8.4135e-08
-8.45985e-08
-1.51663e-07
1.41743e-08
-2.26139e-07
1.16753e-07
-3.07706e-07
2.22728e-07
-3.97276e-07
3.32485e-07
-4.95735e-07
4.45539e-07
-6.03556e-07
5.60812e-07
-7.20642e-07
6.77062e-07
-8.4634e-07
7.93141e-07
-9.79155e-07
9.07567e-07
-1.11654e-06
1.01805e-06
-1.25495e-06
1.12123e-06
-1.39031e-06
1.21307e-06
-1.5191e-06
1.29004e-06
-1.63877e-06
1.34979e-06
-1.74778e-06
1.39141e-06
-1.84566e-06
1.41544e-06
-1.93282e-06
1.42344e-06
-2.01001e-06
1.41752e-06
-2.07801e-06
1.39964e-06
-2.13757e-06
1.37161e-06
-2.18928e-06
1.33501e-06
-2.23368e-06
1.29122e-06
-2.27128e-06
1.24147e-06
-2.30257e-06
1.18687e-06
-2.32805e-06
1.12842e-06
-2.34824e-06
1.06702e-06
-2.36367e-06
1.00347e-06
-2.37486e-06
9.38467e-07
-2.38234e-06
8.72597e-07
-2.38661e-06
8.0633e-07
-2.38812e-06
7.40033e-07
-2.38729e-06
6.7398e-07
-2.38452e-06
6.08354e-07
-2.38012e-06
5.43263e-07
-2.37437e-06
4.78744e-07
-2.36754e-06
4.14769e-07
-2.35981e-06
3.51261e-07
-2.35137e-06
2.88093e-07
-2.34238e-06
2.25103e-07
-2.333e-06
1.62092e-07
-2.32336e-06
9.88315e-08
-2.31362e-06
3.50643e-08
-2.30395e-06
-2.9489e-08
-2.2945e-06
-9.51391e-08
-2.28546e-06
-1.62233e-07
-2.27703e-06
-2.31138e-07
-2.26945e-06
-3.02257e-07
-2.26293e-06
-3.7602e-07
-2.25772e-06
-4.5289e-07
-2.25404e-06
-5.33358e-07
-2.2521e-06
-6.1793e-07
-2.25205e-06
-7.07113e-07
-2.25392e-06
-8.01396e-07
-2.25762e-06
-9.01218e-07
-2.26287e-06
-1.00691e-06
-2.26908e-06
-1.11861e-06
-2.27528e-06
-1.2362e-06
-2.27998e-06
-1.35911e-06
-2.28093e-06
-1.48614e-06
-2.27494e-06
-1.61524e-06
-2.25773e-06
-1.7431e-06
-2.22408e-06
-1.86472e-06
-2.16814e-06
-1.97268e-06
-2.08074e-06
-2.05847e-06
-1.95387e-06
-2.10743e-06
-1.78463e-06
-2.10515e-06
-1.57632e-06
-2.03867e-06
-1.3385e-06
-1.90073e-06
-1.08456e-06
-1.69234e-06
-8.3189e-07
-1.42224e-06
-5.99879e-07
-1.10927e-06
-4.02078e-07
-7.80666e-07
-2.44837e-07
-4.62969e-07
-1.29851e-07
-1.78837e-07
-5.41563e-08
5.16881e-08
-1.22858e-08
2.09249e-07
3.81716e-09
2.74892e-07
1.77466e-07
-3.88803e-08
-9.20961e-08
-1.07488e-07
-1.59909e-08
-1.85413e-07
9.20993e-08
-2.69524e-07
2.00864e-07
-3.60086e-07
3.1329e-07
-4.58007e-07
4.30406e-07
-5.63985e-07
5.51517e-07
-6.78165e-07
6.74992e-07
-8.00118e-07
7.99015e-07
-9.28611e-07
9.21635e-07
-1.06145e-06
1.04041e-06
-1.19555e-06
1.15215e-06
-1.32715e-06
1.25283e-06
-1.45283e-06
1.33875e-06
-1.56989e-06
1.40711e-06
-1.67657e-06
1.45646e-06
-1.77219e-06
1.48703e-06
-1.85695e-06
1.5002e-06
-1.93155e-06
1.49804e-06
-1.99673e-06
1.4827e-06
-2.0532e-06
1.45611e-06
-2.10159e-06
1.41999e-06
-2.14244e-06
1.37587e-06
-2.1763e-06
1.32508e-06
-2.20371e-06
1.26888e-06
-2.22525e-06
1.2084e-06
-2.2415e-06
1.14466e-06
-2.25306e-06
1.07858e-06
-2.26055e-06
1.01095e-06
-2.26453e-06
9.42451e-07
-2.26555e-06
8.73621e-07
-2.26411e-06
8.04887e-07
-2.26064e-06
7.36564e-07
-2.25553e-06
6.6887e-07
-2.24911e-06
6.01929e-07
-2.24164e-06
5.35793e-07
-2.23334e-06
4.70451e-07
-2.22441e-06
4.05834e-07
-2.21498e-06
3.41832e-07
-2.20518e-06
2.78297e-07
-2.19513e-06
2.15048e-07
-2.18492e-06
1.51881e-07
-2.17466e-06
8.85724e-08
-2.16447e-06
2.4873e-08
-2.15447e-06
-3.94872e-08
-2.14481e-06
-1.04797e-07
-2.13567e-06
-1.71374e-07
-2.12725e-06
-2.3956e-07
-2.11978e-06
-3.09729e-07
-2.11351e-06
-3.82283e-07
-2.10874e-06
-4.57667e-07
-2.10574e-06
-5.36356e-07
-2.10481e-06
-6.18862e-07
-2.1062e-06
-7.05721e-07
-2.11011e-06
-7.97485e-07
-2.11664e-06
-8.94692e-07
-2.12572e-06
-9.97828e-07
-2.13706e-06
-1.10727e-06
-2.15006e-06
-1.2232e-06
-2.16368e-06
-1.34549e-06
-2.1763e-06
-1.47352e-06
-2.18554e-06
-1.606e-06
-2.18802e-06
-1.74062e-06
-2.17909e-06
-1.87364e-06
-2.15247e-06
-1.9993e-06
-2.10148e-06
-2.10947e-06
-2.01618e-06
-2.19273e-06
-1.88739e-06
-2.23394e-06
-1.71068e-06
-2.21538e-06
-1.49016e-06
-2.12125e-06
-1.23821e-06
-1.9443e-06
-9.72133e-07
-1.68832e-06
-7.13565e-07
-1.36784e-06
-4.8431e-07
-1.00992e-06
-2.9738e-07
-6.49899e-07
-1.57501e-07
-3.18716e-07
-6.38353e-08
-4.19775e-08
-1.20043e-08
1.57418e-07
6.67953e-09
2.56208e-07
1.84145e-07
-4.94649e-08
-4.26312e-08
-1.28372e-07
6.29159e-08
-2.15538e-07
1.79266e-07
-3.08019e-07
2.93345e-07
-4.06205e-07
4.11476e-07
-5.10908e-07
5.35109e-07
-6.22599e-07
6.63208e-07
-7.41179e-07
7.93572e-07
-8.65728e-07
9.23564e-07
-9.94357e-07
1.05026e-06
-1.12447e-06
1.17052e-06
-1.25269e-06
1.28037e-06
-1.37574e-06
1.37588e-06
-1.49084e-06
1.45385e-06
-1.59593e-06
1.5122e-06
-1.69009e-06
1.55062e-06
-1.77329e-06
1.57023e-06
-1.84607e-06
1.57299e-06
-1.90919e-06
1.56115e-06
-1.96333e-06
1.53684e-06
-2.00914e-06
1.50192e-06
-2.0472e-06
1.45805e-06
-2.07808e-06
1.40675e-06
-2.1024e-06
1.3494e-06
-2.12078e-06
1.28726e-06
-2.13388e-06
1.2215e-06
-2.14238e-06
1.15317e-06
-2.14695e-06
1.08315e-06
-2.14821e-06
1.01222e-06
-2.14676e-06
9.40995e-07
-2.1431e-06
8.69969e-07
-2.13771e-06
7.99497e-07
-2.13098e-06
7.29825e-07
-2.12321e-06
6.611e-07
-2.11466e-06
5.93387e-07
-2.10555e-06
5.2668e-07
-2.09602e-06
4.60919e-07
-2.08618e-06
3.95998e-07
-2.07613e-06
3.31779e-07
-2.06593e-06
2.68096e-07
-2.05564e-06
2.04756e-07
-2.04531e-06
1.41552e-07
-2.03501e-06
7.82705e-08
-2.02481e-06
1.46786e-08
-2.01482e-06
-4.9483e-08
-2.00514e-06
-1.14469e-07
-1.99595e-06
-1.80565e-07
-1.98744e-06
-2.48078e-07
-1.97982e-06
-3.17343e-07
-1.97338e-06
-3.88726e-07
-1.96841e-06
-4.62633e-07
-1.96526e-06
-5.39512e-07
-1.96426e-06
-6.1986e-07
-1.96576e-06
-7.04215e-07
-1.97009e-06
-7.9316e-07
-1.97748e-06
-8.87299e-07
-1.98808e-06
-9.87235e-07
-2.00182e-06