/*--------------------------------*- C++ -*----------------------------------*\
  =========                 |
  \\      /  F ield         | OpenFOAM: The Open Source CFD Toolbox
   \\    /   O peration     | Website:  https://openfoam.org
    \\  /    A nd           | Version:  13
     \\/     M anipulation  |
\*---------------------------------------------------------------------------*/
FoamFile
{
    format      ascii;
    class       volVectorField;
    location    "3.6";
    object      U;
}
// * * * * * * * * * * * * * * * * * * * * * * * * * * * * * * * * * * * * * //

dimensions      [0 1 -1 0 0 0 0];

internalField   nonuniform List<vector> 
6400
(
(-7.13431e-05 4.38723e-05 0)
(0.000437945 -0.000150196 0)
(0.00174913 -0.000333952 0)
(0.00344169 -0.000411653 0)
(0.00512979 -0.000367916 0)
(0.00655461 -0.000259774 0)
(0.00754348 -0.000130614 0)
(0.00809393 -3.14017e-05 0)
(0.00830234 1.06501e-05 0)
(0.00829594 1.25465e-07 0)
(0.00822019 -4.27711e-05 0)
(0.00814257 -0.000112107 0)
(0.00812863 -0.000184853 0)
(0.00818152 -0.000250648 0)
(0.00827182 -0.000306792 0)
(0.00835344 -0.000352116 0)
(0.00837172 -0.00038225 0)
(0.00830159 -0.000389304 0)
(0.00808831 -0.000380676 0)
(0.00766888 -0.00035577 0)
(0.00701246 -0.000323344 0)
(0.00606404 -0.000288628 0)
(0.00479335 -0.000254078 0)
(0.00318078 -0.000233281 0)
(0.00120129 -0.000253206 0)
(-0.00113573 -0.000325501 0)
(-0.00382349 -0.000387599 0)
(-0.007015 -0.000335236 0)
(-0.0108022 -8.25719e-05 0)
(-0.0152153 0.000418693 0)
(-0.020623 0.00111104 0)
(-0.0269107 0.00181589 0)
(-0.0338401 0.00244261 0)
(-0.041274 0.0029827 0)
(-0.049013 0.0034147 0)
(-0.0568843 0.00373154 0)
(-0.0647099 0.0039342 0)
(-0.0723457 0.004032 0)
(-0.0796591 0.00403682 0)
(-0.0865469 0.00396178 0)
(-0.0929163 0.00381874 0)
(-0.0986924 0.00361563 0)
(-0.103809 0.00335842 0)
(-0.108212 0.00304798 0)
(-0.111858 0.00268494 0)
(-0.114715 0.00227552 0)
(-0.116717 0.00184323 0)
(-0.117666 0.00146388 0)
(-0.117925 0.00105307 0)
(-0.117088 0.000362717 0)
(-0.115198 -0.000137084 0)
(-0.112294 -0.000781184 0)
(-0.108268 -0.00136863 0)
(-0.103182 -0.00198609 0)
(-0.0969951 -0.00256653 0)
(-0.0897792 -0.00312723 0)
(-0.0816164 -0.00366006 0)
(-0.0725643 -0.00414932 0)
(-0.0627261 -0.00457249 0)
(-0.0522758 -0.00490212 0)
(-0.04139 -0.00509864 0)
(-0.0303083 -0.0051307 0)
(-0.0193036 -0.00498339 0)
(-0.00864978 -0.00464886 0)
(0.00131272 -0.00414273 0)
(0.0102372 -0.00345181 0)
(0.0178275 -0.0025724 0)
(0.0238224 -0.00158128 0)
(0.0279752 -0.000516082 0)
(0.0302686 0.000545302 0)
(0.0302224 0.00154469 0)
(0.0286567 0.00209424 0)
(0.0251267 0.00247767 0)
(0.0203106 0.00246346 0)
(0.0150345 0.00205669 0)
(0.00998638 0.00140058 0)
(0.00572537 0.000760302 0)
(0.00253471 0.000294489 0)
(0.000588039 -2.27662e-05 0)
(-0.000135078 -0.000234002 0)
(4.81264e-05 -0.000395195 0)
(0.00154686 -0.00173621 0)
(0.00427023 -0.00279088 0)
(0.00732243 -0.00314698 0)
(0.0101556 -0.00286865 0)
(0.0124409 -0.00223015 0)
(0.0140335 -0.00144655 0)
(0.0149491 -0.000727327 0)
(0.0152864 -0.000201746 0)
(0.0151541 0.000104964 0)
(0.014714 0.000220811 0)
(0.0140527 0.000214018 0)
(0.0132479 0.000156453 0)
(0.0122938 0.000120279 0)
(0.0111416 0.000150688 0)
(0.00972097 0.000262283 0)
(0.00796474 0.000446678 0)
(0.00582352 0.000699621 0)
(0.00320451 0.00103697 0)
(2.7722e-05 0.0014674 0)
(-0.00379153 0.00199501 0)
(-0.00841674 0.00262303 0)
(-0.0139288 0.00332653 0)
(-0.0203828 0.00409133 0)
(-0.0278293 0.00492343 0)
(-0.0363248 0.00585805 0)
(-0.0458586 0.00690684 0)
(-0.0562335 0.00804158 0)
(-0.0672146 0.00926556 0)
(-0.0784683 0.0105022 0)
(-0.0895644 0.0115712 0)
(-0.100438 0.0123859 0)
(-0.110966 0.0129113 0)
(-0.121017 0.0131504 0)
(-0.130462 0.0131073 0)
(-0.139238 0.0128225 0)
(-0.147269 0.0123256 0)
(-0.15452 0.0116518 0)
(-0.160951 0.0108313 0)
(-0.166547 0.00989164 0)
(-0.171286 0.0088544 0)
(-0.175153 0.00773271 0)
(-0.178137 0.00653982 0)
(-0.180221 0.00528392 0)
(-0.181401 0.00397351 0)
(-0.181665 0.00261311 0)
(-0.180986 0.00120581 0)
(-0.179327 -0.000243677 0)
(-0.176718 -0.00176004 0)
(-0.173088 -0.0033651 0)
(-0.168455 -0.00499489 0)
(-0.162806 -0.00667443 0)
(-0.156118 -0.00836291 0)
(-0.148399 -0.0100524 0)
(-0.13964 -0.0117062 0)
(-0.129867 -0.013291 0)
(-0.119113 -0.0147541 0)
(-0.107466 -0.0160624 0)
(-0.0950377 -0.0171669 0)
(-0.0819904 -0.0179955 0)
(-0.0685225 -0.018492 0)
(-0.0548348 -0.01859 0)
(-0.0411765 -0.0182457 0)
(-0.0278235 -0.0174256 0)
(-0.0150673 -0.0161174 0)
(-0.00318758 -0.0143124 0)
(0.00751544 -0.0120382 0)
(0.0167635 -0.0093502 0)
(0.0243371 -0.00635097 0)
(0.0300509 -0.00314599 0)
(0.0337434 5.13591e-05 0)
(0.0353809 0.0030006 0)
(0.0348681 0.00560292 0)
(0.0323273 0.00758632 0)
(0.028021 0.0084494 0)
(0.0220801 0.00824483 0)
(0.0153138 0.00705192 0)
(0.00876033 0.00518554 0)
(0.00349629 0.0028863 0)
(0.000335015 0.000728291 0)
(0.000193411 -0.00145394 0)
(0.00258583 -0.00438132 0)
(0.00599056 -0.00607988 0)
(0.00922973 -0.00630019 0)
(0.0119148 -0.00547556 0)
(0.0138724 -0.00410227 0)
(0.0151123 -0.00261293 0)
(0.0156753 -0.00125688 0)
(0.0156238 -0.00016649 0)
(0.0150237 0.000602804 0)
(0.0139805 0.00107832 0)
(0.012546 0.00136213 0)
(0.0107345 0.00158152 0)
(0.00851658 0.00185479 0)
(0.00582075 0.00226249 0)
(0.00257165 0.00282979 0)
(-0.00133186 0.00355993 0)
(-0.00601197 0.00446601 0)
(-0.0115634 0.00556594 0)
(-0.0180778 0.00688114 0)
(-0.0256224 0.00842254 0)
(-0.0341921 0.0101453 0)
(-0.0437845 0.0119937 0)
(-0.0543306 0.0139056 0)
(-0.0656786 0.0157866 0)
(-0.0776099 0.0175418 0)
(-0.0898582 0.0191142 0)
(-0.102141 0.0204444 0)
(-0.11423 0.0215005 0)
(-0.125865 0.0222352 0)
(-0.136868 0.0226284 0)
(-0.147128 0.0226806 0)
(-0.15656 0.0223866 0)
(-0.165138 0.0217964 0)
(-0.172873 0.0209289 0)
(-0.179772 0.0198146 0)
(-0.185846 0.0185005 0)
(-0.191118 0.0170184 0)
(-0.195601 0.0153976 0)
(-0.199305 0.0136611 0)
(-0.20224 0.0118365 0)
(-0.204414 0.00993084 0)
(-0.205824 0.00795492 0)
(-0.206468 0.00591324 0)
(-0.206336 0.00380341 0)
(-0.205419 0.00162625 0)
(-0.203702 -0.000620295 0)
(-0.201143 -0.00294301 0)
(-0.197724 -0.00534884 0)
(-0.193428 -0.00782642 0)
(-0.188226 -0.0103508 0)
(-0.182097 -0.0129313 0)
(-0.17502 -0.0155332 0)
(-0.166982 -0.0181369 0)
(-0.157978 -0.0206981 0)
(-0.14802 -0.0231653 0)
(-0.137138 -0.0254707 0)
(-0.125401 -0.0275446 0)
(-0.112889 -0.0292944 0)
(-0.0997165 -0.0306292 0)
(-0.086062 -0.0314555 0)
(-0.0721232 -0.0316797 0)
(-0.0581237 -0.0312249 0)
(-0.0443393 -0.0300465 0)
(-0.0310529 -0.0281234 0)
(-0.0185271 -0.0254597 0)
(-0.00701119 -0.0220878 0)
(0.00323413 -0.0180746 0)
(0.0120008 -0.0135604 0)
(0.0191425 -0.00870778 0)
(0.0245314 -0.00372084 0)
(0.0281528 0.00116292 0)
(0.0299307 0.00566087 0)
(0.0297297 0.00941637 0)
(0.0275677 0.012268 0)
(0.0237964 0.0136702 0)
(0.0183945 0.0135331 0)
(0.0120809 0.0117772 0)
(0.0058138 0.00838229 0)
(0.000809518 0.00352726 0)
(0.000347266 -0.00302592 0)
(0.00334318 -0.0076498 0)
(0.00683489 -0.00948086 0)
(0.00968992 -0.00910997 0)
(0.0117651 -0.00750813 0)
(0.013051 -0.00539415 0)
(0.0136174 -0.00321039 0)
(0.0135288 -0.00121838 0)
(0.0128357 0.000440134 0)
(0.0115814 0.00171743 0)
(0.00975975 0.00267749 0)
(0.00735086 0.00345412 0)
(0.00431495 0.00420608 0)
(0.000594813 0.00507469 0)
(-0.00386889 0.0061493 0)
(-0.00916026 0.00747742 0)
(-0.0153735 0.00907757 0)
(-0.0225986 0.0109528 0)
(-0.0308983 0.0131004 0)
(-0.0402916 0.0154976 0)
(-0.0507336 0.0180903 0)
(-0.0621003 0.0207775 0)
(-0.0742007 0.0234289 0)
(-0.0867814 0.0259228 0)
(-0.0995557 0.0281497 0)
(-0.112285 0.0300321 0)
(-0.124705 0.0314471 0)
(-0.136597 0.0323429 0)
(-0.147757 0.0327553 0)
(-0.158064 0.0327298 0)
(-0.167499 0.0323053 0)
(-0.176034 0.0315158 0)
(-0.183709 0.0303895 0)
(-0.190552 0.0289652 0)
(-0.196611 0.0272927 0)
(-0.201919 0.0254061 0)
(-0.206524 0.0233439 0)
(-0.21045 0.0211334 0)
(-0.213721 0.018805 0)
(-0.216355 0.0163741 0)
(-0.218359 0.0138562 0)
(-0.219742 0.0112604 0)
(-0.220495 0.00858797 0)
(-0.220615 0.00583859 0)
(-0.220084 0.00300676 0)
(-0.218887 8.89849e-05 0)
(-0.216999 -0.00291893 0)
(-0.214385 -0.0060173 0)
(-0.211021 -0.00922293 0)
(-0.206877 -0.0125304 0)
(-0.201918 -0.0159249 0)
(-0.196111 -0.0193948 0)
(-0.189428 -0.0229117 0)
(-0.181843 -0.0264465 0)
(-0.173334 -0.0299471 0)
(-0.16389 -0.0333415 0)
(-0.153517 -0.0365376 0)
(-0.142252 -0.0394419 0)
(-0.130151 -0.0419407 0)
(-0.117297 -0.0438918 0)
(-0.103824 -0.0451555 0)
(-0.0899122 -0.0456143 0)
(-0.0757578 -0.0451428 0)
(-0.061627 -0.0436613 0)
(-0.0478256 -0.0411376 0)
(-0.0346752 -0.037632 0)
(-0.0224242 -0.0331724 0)
(-0.0113173 -0.0278596 0)
(-0.00157744 -0.0218693 0)
(0.0066295 -0.0154231 0)
(0.0131881 -0.00877555 0)
(0.0180467 -0.00218711 0)
(0.0212024 0.00406825 0)
(0.022704 0.00964318 0)
(0.0224934 0.0141306 0)
(0.0204976 0.0172201 0)
(0.0169138 0.0184795 0)
(0.0120204 0.0176059 0)
(0.00635939 0.0141906 0)
(0.000980523 0.00709627 0)
(0.000527042 -0.00497571 0)
(0.00378552 -0.0110736 0)
(0.00687334 -0.012507 0)
(0.00901977 -0.0112749 0)
(0.0103012 -0.00880534 0)
(0.0107743 -0.00592645 0)
(0.0105445 -0.00306455 0)
(0.00967021 -0.000452085 0)
(0.00816972 0.00180021 0)
(0.00602774 0.00368799 0)
(0.00319427 0.00529773 0)
(-0.000398594 0.0067791 0)
(-0.00482346 0.00830114 0)
(-0.0101519 0.010009 0)
(-0.0164507 0.0120009 0)
(-0.0237837 0.0143278 0)
(-0.0322022 0.0170002 0)
(-0.0417244 0.0199921 0)
(-0.0523136 0.023246 0)
(-0.0638564 0.0266555 0)
(-0.0761598 0.0300834 0)
(-0.0889599 0.0333632 0)
(-0.101979 0.0363504 0)
(-0.114941 0.0389263 0)
(-0.127584 0.040913 0)
(-0.139631 0.0422508 0)
(-0.150866 0.0429651 0)
(-0.161239 0.0430809 0)
(-0.170701 0.042647 0)
(-0.179293 0.0417432 0)
(-0.187042 0.0404403 0)
(-0.193993 0.0388054 0)
(-0.200217 0.036885 0)
(-0.205747 0.0347215 0)
(-0.210634 0.032354 0)
(-0.214916 0.0298121 0)
(-0.218628 0.0271271 0)
(-0.221793 0.0243214 0)
(-0.224433 0.0214121 0)
(-0.226559 0.0184108 0)
(-0.228172 0.0153283 0)
(-0.229275 0.0121667 0)
(-0.229863 0.00892056 0)
(-0.229925 0.00558309 0)
(-0.229446 0.00214357 0)
(-0.228409 -0.00140653 0)
(-0.226782 -0.00507457 0)
(-0.224531 -0.0088653 0)
(-0.221624 -0.0127893 0)
(-0.218032 -0.0168512 0)
(-0.213716 -0.021046 0)
(-0.208623 -0.0253521 0)
(-0.202713 -0.02974 0)
(-0.195949 -0.0341789 0)
(-0.188293 -0.0386116 0)
(-0.179713 -0.0429552 0)
(-0.170172 -0.0470918 0)
(-0.159684 -0.0509082 0)
(-0.148274 -0.0542631 0)
(-0.135984 -0.0569695 0)
(-0.122908 -0.0588597 0)
(-0.109187 -0.0597583 0)
(-0.0950041 -0.0595015 0)
(-0.0805871 -0.0579609 0)
(-0.066195 -0.0550555 0)
(-0.0522098 -0.0508139 0)
(-0.0390122 -0.0453582 0)
(-0.0268374 -0.0388061 0)
(-0.0159422 -0.0313745 0)
(-0.00653677 -0.023341 0)
(0.00123421 -0.0150228 0)
(0.00730117 -0.00674836 0)
(0.0116702 0.00116425 0)
(0.0144 0.00837559 0)
(0.0155438 0.0145207 0)
(0.0151218 0.0191804 0)
(0.0131736 0.021889 0)
(0.00985764 0.0222135 0)
(0.00545459 0.0193174 0)
(0.000796646 0.010487 0)
(0.000721384 -0.00716546 0)
(0.00387037 -0.0142121 0)
(0.00620156 -0.0147632 0)
(0.00742331 -0.0125868 0)
(0.00780861 -0.00923329 0)
(0.00740184 -0.00561253 0)
(0.00630757 -0.00208283 0)
(0.00455167 0.00117386 0)
(0.00211304 0.00409088 0)
(-0.00106519 0.00669893 0)
(-0.0050664 0.00910729 0)
(-0.00998035 0.0114733 0)
(-0.0158874 0.0139602 0)
(-0.0228526 0.0167016 0)
(-0.0309199 0.019781 0)
(-0.0401054 0.0232273 0)
(-0.0503849 0.0270106 0)
(-0.0616703 0.0310379 0)
(-0.0737975 0.0351873 0)
(-0.086535 0.0392704 0)
(-0.0995938 0.0431084 0)
(-0.112686 0.0465416 0)
(-0.125512 0.049328 0)
(-0.137733 0.0513711 0)
(-0.14912 0.0526418 0)
(-0.159593 0.053138 0)
(-0.169161 0.0529393 0)
(-0.177867 0.0521469 0)
(-0.185754 0.0508572 0)
(-0.192893 0.0491582 0)
(-0.199325 0.0471138 0)
(-0.205111 0.0447888 0)
(-0.210298 0.0422245 0)
(-0.214925 0.0394612 0)
(-0.219034 0.0365323 0)
(-0.222654 0.0334608 0)
(-0.225809 0.0302697 0)
(-0.228518 0.0269782 0)
(-0.230799 0.0235972 0)
(-0.232655 0.0201328 0)
(-0.234088 0.0165912 0)
(-0.235098 0.0129677 0)
(-0.235685 0.0092496 0)
(-0.235839 0.0054263 0)
(-0.235551 0.00148111 0)
(-0.234815 -0.00260524 0)
(-0.23361 -0.00684844 0)
(-0.231905 -0.0112558 0)
(-0.229659 -0.0158299 0)
(-0.226822 -0.0205679 0)
(-0.223356 -0.0254775 0)
(-0.219211 -0.0305455 0)
(-0.214311 -0.0357276 0)
(-0.208596 -0.0409903 0)
(-0.202012 -0.0462814 0)
(-0.194576 -0.0515704 0)
(-0.186156 -0.0566827 0)
(-0.176721 -0.0614722 0)
(-0.16628 -0.0657909 0)
(-0.154815 -0.069408 0)
(-0.142385 -0.072114 0)
(-0.129078 -0.0736914 0)
(-0.115034 -0.0739205 0)
(-0.100482 -0.0726152 0)
(-0.0856647 -0.0696327 0)
(-0.0708607 -0.0649257 0)
(-0.0565518 -0.0586363 0)
(-0.0431326 -0.0509641 0)
(-0.030873 -0.0421605 0)
(-0.0200519 -0.0325562 0)
(-0.0108733 -0.0225448 0)
(-0.00345429 -0.0125391 0)
(0.00218525 -0.00293731 0)
(0.00610914 0.0058868 0)
(0.00843775 0.0135605 0)
(0.0092765 0.0196996 0)
(0.00868737 0.0238188 0)
(0.00675223 0.0253557 0)
(0.00384952 0.0232147 0)
(0.000437332 0.0131401 0)
(0.000881657 -0.00941232 0)
(0.00356037 -0.0166808 0)
(0.00484294 -0.0161113 0)
(0.00511904 -0.0129055 0)
(0.00452283 -0.00872852 0)
(0.00319338 -0.00439528 0)
(0.00117797 -0.000189009 0)
(-0.00153707 0.00376175 0)
(-0.00500848 0.00743144 0)
(-0.00932041 0.0108768 0)
(-0.0145677 0.0142168 0)
(-0.0208383 0.0176026 0)
(-0.0281993 0.0211781 0)
(-0.0366868 0.0250484 0)
(-0.0462952 0.0292592 0)
(-0.0569692 0.033787 0)
(-0.0685883 0.038548 0)
(-0.08097 0.0433703 0)
(-0.0938329 0.0480471 0)
(-0.106888 0.0524184 0)
(-0.119822 0.0561822 0)
(-0.132243 0.0591652 0)
(-0.143861 0.0612571 0)
(-0.154564 0.0624292 0)
(-0.16434 0.0627536 0)
(-0.173242 0.0623387 0)
(-0.181328 0.0612948 0)
(-0.18866 0.0597218 0)
(-0.195306 0.0577165 0)
(-0.201325 0.0553567 0)
(-0.206764 0.0527062 0)
(-0.211668 0.0498185 0)
(-0.216071 0.0467316 0)
(-0.22001 0.0434799 0)
(-0.223514 0.0400909 0)
(-0.226605 0.0365856 0)
(-0.229302 0.0329855 0)
(-0.231613 0.0293096 0)
(-0.233546 0.0255699 0)
(-0.235122 0.0217331 0)
(-0.236381 0.0177835 0)
(-0.237287 0.0137615 0)
(-0.237844 0.0096435 0)
(-0.238038 0.00541985 0)
(-0.237859 0.00107437 0)
(-0.23729 -0.00341052 0)
(-0.236346 -0.00805722 0)
(-0.235012 -0.0128891 0)
(-0.233283 -0.0179337 0)
(-0.231138 -0.023214 0)
(-0.228542 -0.0287471 0)
(-0.225471 -0.0345481 0)
(-0.221837 -0.0405269 0)
(-0.217544 -0.0466642 0)
(-0.212492 -0.0528959 0)
(-0.206511 -0.0590997 0)
(-0.199582 -0.0651913 0)
(-0.191533 -0.0709477 0)
(-0.182441 -0.0763099 0)
(-0.172216 -0.0809985 0)
(-0.160817 -0.0847246 0)
(-0.148324 -0.0872371 0)
(-0.134781 -0.0882203 0)
(-0.120384 -0.0874649 0)
(-0.105353 -0.0847548 0)
(-0.0899706 -0.0799651 0)
(-0.0746264 -0.0731197 0)
(-0.059866 -0.0644995 0)
(-0.0461137 -0.0544332 0)
(-0.0336947 -0.0432921 0)
(-0.0228982 -0.0315499 0)
(-0.0139224 -0.019722 0)
(-0.00685023 -0.00831683 0)
(-0.0016529 0.00220509 0)
(0.00182623 0.0114444 0)
(0.00377449 0.0190176 0)
(0.00433198 0.0244715 0)
(0.00364093 0.0271697 0)
(0.00202741 0.0256873 0)
(4.28909e-05 0.0146856 0)
(0.000950567 -0.0114787 0)
(0.00277563 -0.0182318 0)
(0.00301558 -0.0164359 0)
(0.00224374 -0.0121887 0)
(0.000656412 -0.00726161 0)
(-0.00162555 -0.00223418 0)
(-0.0046053 0.00267535 0)
(-0.00833257 0.00738306 0)
(-0.012888 0.0118913 0)
(-0.0183642 0.0162696 0)
(-0.0248491 0.0206332 0)
(-0.0324113 0.0251123 0)
(-0.0410855 0.0298165 0)
(-0.0508586 0.0348037 0)
(-0.0616568 0.0400603 0)
(-0.0733589 0.0455111 0)
(-0.0857518 0.0509803 0)
(-0.0985283 0.0562555 0)
(-0.111409 0.0610737 0)
(-0.123993 0.0651715 0)
(-0.135892 0.068343 0)
(-0.146921 0.0704854 0)
(-0.157031 0.0716331 0)
(-0.166235 0.0718779 0)
(-0.174589 0.0713426 0)
(-0.182165 0.0701369 0)
(-0.189031 0.0683716 0)
(-0.195257 0.0661437 0)
(-0.200899 0.0635404 0)
(-0.206005 0.0606295 0)
(-0.210612 0.0574688 0)
(-0.214752 0.0541038 0)
(-0.218454 0.0505717 0)
(-0.221744 0.0469045 0)
(-0.22464 0.0431295 0)
(-0.227152 0.0392733 0)
(-0.229335 0.0353144 0)
(-0.231212 0.0312678 0)
(-0.232793 0.0271393 0)
(-0.234079 0.0229594 0)
(-0.235051 0.0187308 0)
(-0.235735 0.0143999 0)
(-0.236127 0.00996845 0)
(-0.236237 0.00541846 0)
(-0.236065 0.000735487 0)
(-0.235616 -0.00409499 0)
(-0.234893 -0.00909239 0)
(-0.233881 -0.014282 0)
(-0.23257 -0.0196828 0)
(-0.230941 -0.0253097 0)
(-0.228966 -0.0311664 0)
(-0.226605 -0.0372638 0)
(-0.223844 -0.0436939 0)
(-0.220639 -0.0504097 0)
(-0.216935 -0.0573773 0)
(-0.212647 -0.0645408 0)
(-0.207691 -0.071801 0)
(-0.20183 -0.0788496 0)
(-0.194739 -0.0854211 0)
(-0.186325 -0.0912809 0)
(-0.176507 -0.0961652 0)
(-0.165409 -0.0998837 0)
(-0.15293 -0.101971 0)
(-0.139229 -0.102156 0)
(-0.124453 -0.100136 0)
(-0.108861 -0.0956969 0)
(-0.0928043 -0.0887538 0)
(-0.0767944 -0.0794749 0)
(-0.0614836 -0.0683087 0)
(-0.0473532 -0.0557303 0)
(-0.034762 -0.0422553 0)
(-0.0240171 -0.028511 0)
(-0.0153012 -0.015138 0)
(-0.00864828 -0.00273096 0)
(-0.00393808 0.00821555 0)
(-0.00094286 0.0172657 0)
(0.000607463 0.0240099 0)
(0.000991991 0.0277775 0)
(0.000504798 0.0268631 0)
(-0.000214164 0.0151904 0)
(0.000898232 -0.0131612 0)
(0.00166188 -0.01873 0)
(0.000788918 -0.0156205 0)
(-0.00103079 -0.0104715 0)
(-0.00360052 -0.00482563 0)
(-0.00684888 0.000897489 0)
(-0.0108144 0.00654502 0)
(-0.0155712 0.0120669 0)
(-0.0212085 0.0174793 0)
(-0.0278111 0.0228493 0)
(-0.035446 0.0282732 0)
(-0.0441483 0.033847 0)
(-0.0539056 0.0396311 0)
(-0.0646411 0.0456223 0)
(-0.0762369 0.0517536 0)
(-0.0884738 0.0578551 0)
(-0.101038 0.0637012 0)
(-0.113593 0.0689812 0)
(-0.125748 0.0734277 0)
(-0.137146 0.0768157 0)
(-0.147672 0.0790931 0)
(-0.157284 0.0803081 0)
(-0.166002 0.0805664 0)
(-0.17389 0.0799816 0)
(-0.181025 0.0786859 0)
(-0.187477 0.0767899 0)
(-0.193312 0.0744009 0)
(-0.198586 0.0716053 0)
(-0.203342 0.0684791 0)
(-0.207617 0.0650822 0)
(-0.211442 0.0614663 0)
(-0.214845 0.0576725 0)
(-0.217853 0.0537355 0)
(-0.220489 0.0496831 0)
(-0.222776 0.0455372 0)
(-0.224754 0.0413059 0)
(-0.226416 0.0370317 0)
(-0.227758 0.0327105 0)
(-0.228811 0.0283313 0)
(-0.229592 0.0238908 0)
(-0.230115 0.0193813 0)
(-0.230412 0.0147913 0)
(-0.230493 0.010114 0)
(-0.230378 0.00533238 0)
(-0.230077 0.000426374 0)
(-0.229609 -0.00462955 0)
(-0.228956 -0.00985662 0)
(-0.228126 -0.0152866 0)
(-0.227115 -0.0209486 0)
(-0.225919 -0.0268712 0)
(-0.224523 -0.0330761 0)
(-0.222904 -0.0395761 0)
(-0.221034 -0.0463748 0)
(-0.218869 -0.0534613 0)
(-0.216345 -0.0608058 0)
(-0.213376 -0.0683437 0)
(-0.20985 -0.0760381 0)
(-0.205741 -0.0839585 0)
(-0.200883 -0.0918322 0)
(-0.195076 -0.0993318 0)
(-0.18787 -0.105895 0)
(-0.178875 -0.111041 0)
(-0.168178 -0.11453 0)
(-0.155864 -0.116065 0)
(-0.142031 -0.115235 0)
(-0.126832 -0.111664 0)
(-0.110616 -0.105205 0)
(-0.0937677 -0.0958186 0)
(-0.0769894 -0.0838518 0)
(-0.0610721 -0.069975 0)
(-0.0465592 -0.054842 0)
(-0.0338475 -0.0391294 0)
(-0.02325 -0.0236266 0)
(-0.0149142 -0.00909606 0)
(-0.00879763 0.00379355 0)
(-0.00467561 0.0145071 0)
(-0.00218381 0.0226048 0)
(-0.000927526 0.0273021 0)
(-0.000459586 0.0269448 0)
(-0.000255353 0.0150354 0)
(0.000742459 -0.0140646 0)
(0.00031785 -0.0180683 0)
(-0.00169757 -0.0136992 0)
(-0.00452611 -0.00775069 0)
(-0.0080652 -0.00141618 0)
(-0.012279 0.00500755 0)
(-0.0172235 0.0114217 0)
(-0.0229855 0.017796 0)
(-0.0296492 0.0241449 0)
(-0.0372801 0.0305177 0)
(-0.0459134 0.036979 0)
(-0.0555407 0.0435781 0)
(-0.066093 0.050315 0)
(-0.0774573 0.0571344 0)
(-0.0894177 0.0638748 0)
(-0.101679 0.0702903 0)
(-0.113856 0.0760587 0)
(-0.125558 0.0808927 0)
(-0.13653 0.0845885 0)
(-0.146623 0.0870927 0)
(-0.155809 0.0884678 0)
(-0.164109 0.0888044 0)
(-0.17159 0.0882425 0)
(-0.178328 0.0869137 0)
(-0.184395 0.084944 0)
(-0.189851 0.0824385 0)
(-0.194748 0.0794925 0)
(-0.199127 0.0761832 0)
(-0.203023 0.0725782 0)
(-0.206466 0.0687333 0)
(-0.209485 0.064697 0)
(-0.212106 0.0605092 0)
(-0.214355 0.0562041 0)
(-0.216257 0.0518088 0)
(-0.217838 0.0473436 0)
(-0.219113 0.042825 0)
(-0.220102 0.0382622 0)
(-0.220844 0.0336575 0)
(-0.221357 0.0290159 0)
(-0.221665 0.0243368 0)
(-0.221785 0.0196145 0)
(-0.22174 0.0148363 0)
(-0.221545 0.00998914 0)
(-0.221217 0.00505396 0)
(-0.220771 7.42419e-06 0)
(-0.220215 -0.00517934 0)
(-0.219555 -0.0105311 0)
(-0.218806 -0.0160789 0)
(-0.217974 -0.0218545 0)
(-0.217064 -0.0278903 0)
(-0.216075 -0.0342175 0)
(-0.214998 -0.0408656 0)
(-0.213821 -0.0478609 0)
(-0.212518 -0.0552148 0)
(-0.211045 -0.0629235 0)
(-0.209333 -0.0709534 0)
(-0.207287 -0.0792314 0)
(-0.2048 -0.087641 0)
(-0.201714 -0.0960212 0)
(-0.197832 -0.104305 0)
(-0.193066 -0.112369 0)
(-0.187071 -0.119634 0)
(-0.179245 -0.125207 0)
(-0.16911 -0.128418 0)
(-0.157063 -0.129303 0)
(-0.143044 -0.127211 0)
(-0.127363 -0.121872 0)
(-0.110392 -0.1131 0)
(-0.0926623 -0.100993 0)
(-0.0750531 -0.0861235 0)
(-0.0585195 -0.0694319 0)
(-0.043688 -0.0517823 0)
(-0.0309825 -0.0340321 0)
(-0.0207018 -0.0171433 0)
(-0.012922 -0.00199918 0)
(-0.00748566 0.0106807 0)
(-0.00399681 0.0203183 0)
(-0.0019972 0.0259896 0)
(-0.000862055 0.0262558 0)
(-0.000172751 0.0145717 0)
(0.000513144 -0.0142436 0)
(-0.001189 -0.0162427 0)
(-0.00428668 -0.0107255 0)
(-0.00808966 -0.00403745 0)
(-0.0125791 0.00295394 0)
(-0.01773 0.0100763 0)
(-0.0236124 0.0172698 0)
(-0.0303136 0.0245068 0)
(-0.0379025 0.0317846 0)
(-0.0464164 0.039122 0)
(-0.0558517 0.0465404 0)
(-0.0661503 0.0540325 0)
(-0.0772102 0.0615498 0)
(-0.0888284 0.0689391 0)
(-0.100719 0.0759511 0)
(-0.112505 0.0822547 0)
(-0.123804 0.0875421 0)
(-0.134396 0.0916381 0)
(-0.144127 0.0944728 0)
(-0.152943 0.0960799 0)
(-0.160885 0.0965773 0)
(-0.168007 0.096101 0)
(-0.174388 0.0947993 0)
(-0.180094 0.0928002 0)
(-0.185183 0.0902189 0)
(-0.189702 0.0871517 0)
(-0.193691 0.083684 0)
(-0.197186 0.0798873 0)
(-0.200217 0.0758253 0)
(-0.202816 0.0715521 0)
(-0.205012 0.0671154 0)
(-0.206837 0.0625551 0)
(-0.208319 0.0579045 0)
(-0.20949 0.0531898 0)
(-0.210379 0.048431 0)
(-0.211014 0.0436434 0)
(-0.211426 0.0388385 0)
(-0.211641 0.0340206 0)
(-0.211683 0.0291911 0)
(-0.211575 0.0243467 0)
(-0.211335 0.0194789 0)
(-0.210981 0.0145736 0)
(-0.210531 0.00961464 0)
(-0.209999 0.00458134 0)
(-0.209404 -0.000549569 0)
(-0.208754 -0.00580345 0)
(-0.208062 -0.0112111 0)
(-0.207346 -0.0168032 0)
(-0.206618 -0.0226131 0)
(-0.205889 -0.028675 0)
(-0.205166 -0.0350237 0)
(-0.204455 -0.0416941 0)
(-0.203756 -0.0487189 0)
(-0.20306 -0.0561233 0)
(-0.202346 -0.0639232 0)
(-0.201573 -0.0721198 0)
(-0.200677 -0.0806943 0)
(-0.199565 -0.0895906 0)
(-0.1981 -0.0986799 0)
(-0.196106 -0.10776 0)
(-0.193361 -0.116561 0)
(-0.189567 -0.124827 0)
(-0.184546 -0.132454 0)
(-0.177801 -0.138427 0)
(-0.168371 -0.141479 0)
(-0.1565 -0.141487 0)
(-0.142246 -0.137982 0)
(-0.12594 -0.13057 0)
(-0.108088 -0.119192 0)
(-0.0894017 -0.104107 0)
(-0.0709537 -0.0861567 0)
(-0.0538817 -0.0666187 0)
(-0.038891 -0.046586 0)
(-0.0264132 -0.0271358 0)
(-0.0166931 -0.0094182 0)
(-0.00968973 0.00559769 0)
(-0.00505455 0.0171214 0)
(-0.00232568 0.0240672 0)
(-0.000763758 0.0251605 0)
(1.94039e-05 0.0140805 0)
(0.000115629 -0.0134686 0)
(-0.00278753 -0.0132837 0)
(-0.00687591 -0.00672262 0)
(-0.0116024 0.00062695 0)
(-0.0169955 0.0082431 0)
(-0.0230273 0.0160524 0)
(-0.0297732 0.0240166 0)
(-0.0373119 0.0320948 0)
(-0.0456892 0.040254 0)
(-0.0549085 0.0484717 0)
(-0.0649233 0.0567171 0)
(-0.0756454 0.0649383 0)
(-0.0868915 0.0729879 0)
(-0.0983916 0.0806241 0)
(-0.109791 0.0875169 0)
(-0.120737 0.0933492 0)
(-0.131 0.0979345 0)
(-0.140424 0.10119 0)
(-0.14894 0.103125 0)
(-0.156573 0.103858 0)
(-0.163388 0.10354 0)
(-0.16945 0.10232 0)
(-0.174827 0.100339 0)
(-0.179571 0.0977178 0)
(-0.18373 0.0945599 0)
(-0.187342 0.0909556 0)
(-0.190444 0.0869855 0)
(-0.193072 0.0827192 0)
(-0.195259 0.07822 0)
(-0.197043 0.0735426 0)
(-0.19846 0.0687346 0)
(-0.199545 0.0638359 0)
(-0.200335 0.0588796 0)
(-0.200865 0.0538921 0)
(-0.201167 0.0488922 0)
(-0.201272 0.0438938 0)
(-0.201209 0.0389062 0)
(-0.201003 0.0339318 0)
(-0.200674 0.0289682 0)
(-0.200242 0.0240093 0)
(-0.199725 0.0190443 0)
(-0.199137 0.0140584 0)
(-0.198494 0.0090339 0)
(-0.197811 0.00394971 0)
(-0.197101 -0.00121706 0)
(-0.196378 -0.0064909 0)
(-0.195656 -0.0119037 0)
(-0.194952 -0.0174863 0)
(-0.194281 -0.0232724 0)
(-0.193658 -0.0292975 0)
(-0.193099 -0.0355987 0)
(-0.192616 -0.0422139 0)
(-0.19222 -0.0491801 0)
(-0.191915 -0.0565305 0)
(-0.191695 -0.0642919 0)
(-0.191544 -0.0724816 0)
(-0.191427 -0.081103 0)
(-0.191284 -0.090136 0)
(-0.19102 -0.0995234 0)
(-0.190494 -0.109159 0)
(-0.189507 -0.118842 0)
(-0.187791 -0.128242 0)
(-0.185024 -0.136918 0)
(-0.180811 -0.144583 0)
(-0.174778 -0.150621 0)
(-0.166006 -0.15347 0)
(-0.154224 -0.152556 0)
(-0.139603 -0.147379 0)
(-0.122507 -0.137581 0)
(-0.103663 -0.123281 0)
(-0.0839782 -0.104947 0)
(-0.0647798 -0.0837895 0)
(-0.0473702 -0.0614672 0)
(-0.0325074 -0.0393203 0)
(-0.0205935 -0.018729 0)
(-0.0117634 -0.000967563 0)
(-0.00577532 0.012903 0)
(-0.00223383 0.0216205 0)
(-0.000350621 0.0239483 0)
(0.000265126 0.0138721 0)
(-0.000305878 -0.0117337 0)
(-0.00436156 -0.00923815 0)
(-0.00936329 -0.00176064 0)
(-0.0149496 0.00618103 0)
(-0.021179 0.0143855 0)
(-0.0280112 0.0228562 0)
(-0.0355196 0.0315589 0)
(-0.0437677 0.0404263 0)
(-0.0527728 0.0493842 0)
(-0.0625022 0.058359 0)
(-0.0728823 0.0672789 0)
(-0.0837518 0.0759956 0)
(-0.0948675 0.0842813 0)
(-0.105906 0.0918133 0)
(-0.11654 0.098271 0)
(-0.126528 0.103441 0)
(-0.1357 0.107208 0)
(-0.143977 0.10957 0)
(-0.151364 0.110626 0)
(-0.157921 0.110537 0)
(-0.163713 0.109463 0)
(-0.1688 0.107549 0)
(-0.173239 0.104929 0)
(-0.177072 0.101713 0)
(-0.180341 0.0979993 0)
(-0.183085 0.0938772 0)
(-0.185345 0.0894259 0)
(-0.187159 0.0847165 0)
(-0.188572 0.0798129 0)
(-0.189625 0.0747704 0)
(-0.190361 0.0696365 0)
(-0.190821 0.0644509 0)
(-0.191043 0.0592449 0)
(-0.191061 0.0540418 0)
(-0.190909 0.048858 0)
(-0.190616 0.0437046 0)
(-0.190205 0.038587 0)
(-0.189697 0.0335042 0)
(-0.18911 0.0284513 0)
(-0.18846 0.0234193 0)
(-0.18776 0.018396 0)
(-0.187021 0.0133658 0)
(-0.186257 0.00831044 0)
(-0.18548 0.00320896 0)
(-0.1847 -0.00196132 0)
(-0.183931 -0.00722528 0)
(-0.183187 -0.0126122 0)
(-0.182485 -0.0181525 0)
(-0.18184 -0.0238792 0)
(-0.181271 -0.0298275 0)
(-0.180797 -0.0360351 0)
(-0.180437 -0.0425413 0)
(-0.180209 -0.0493863 0)
(-0.180127 -0.056609 0)
(-0.1802 -0.0642456 0)
(-0.180426 -0.0723262 0)
(-0.180792 -0.0808702 0)
(-0.181265 -0.0898796 0)
(-0.181784 -0.0993301 0)
(-0.182254 -0.109162 0)
(-0.182528 -0.11926 0)
(-0.182391 -0.129431 0)
(-0.181552 -0.139352 0)
(-0.179636 -0.148497 0)
(-0.176161 -0.156224 0)
(-0.170616 -0.162074 0)
(-0.162168 -0.164471 0)
(-0.150312 -0.162433 0)
(-0.135104 -0.15525 0)
(-0.117056 -0.142695 0)
(-0.0971222 -0.125087 0)
(-0.0764751 -0.103227 0)
(-0.0567598 -0.0788057 0)
(-0.0393663 -0.0538923 0)
(-0.0250686 -0.0301572 0)
(-0.0141871 -0.00922776 0)
(-0.00664107 0.00750728 0)
(-0.0021336 0.0186046 0)
(0.000104771 0.022696 0)
(0.000457631 0.014022 0)
(-0.000737823 -0.0090643 0)
(-0.00584626 -0.00420336 0)
(-0.0116686 0.00408223 0)
(-0.0180341 0.0125488 0)
(-0.0250137 0.0212967 0)
(-0.0325457 0.030386 0)
(-0.040696 0.0397719 0)
(-0.0495081 0.0493479 0)
(-0.0589694 0.0589871 0)
(-0.0690217 0.0685795 0)
(-0.0795275 0.0779618 0)
(-0.0902797 0.0869128 0)
(-0.10099 0.0951247 0)
(-0.111349 0.102272 0)
(-0.121114 0.108115 0)
(-0.130093 0.112491 0)
(-0.138191 0.115377 0)
(-0.145396 0.116854 0)
(-0.151754 0.117076 0)
(-0.157329 0.116215 0)
(-0.16218 0.114428 0)
(-0.166361 0.111855 0)
(-0.169919 0.10862 0)
(-0.172895 0.104831 0)
(-0.175334 0.100585 0)
(-0.177279 0.095973 0)
(-0.178776 0.0910749 0)
(-0.179875 0.0859638 0)
(-0.180624 0.0807039 0)
(-0.181071 0.0753502 0)
(-0.18126 0.0699488 0)
(-0.181233 0.0645359 0)
(-0.181028 0.0591388 0)
(-0.180677 0.0537775 0)
(-0.18021 0.0484644 0)
(-0.179649 0.0432063 0)
(-0.179014 0.0380039 0)
(-0.178321 0.0328535 0)
(-0.177584 0.0277474 0)
(-0.176813 0.0226745 0)
(-0.176016 0.0176214 0)
(-0.175204 0.0125716 0)
(-0.174382 0.007507 0)
(-0.173562 0.00240717 0)
(-0.172752 -0.00274993 0)
(-0.171962 -0.00798833 0)
(-0.171206 -0.0133348 0)
(-0.170499 -0.018818 0)
(-0.169859 -0.0244691 0)
(-0.169304 -0.0303218 0)
(-0.168857 -0.0364127 0)
(-0.168541 -0.0427809 0)
(-0.168378 -0.0494676 0)
(-0.168392 -0.0565153 0)
(-0.168602 -0.0639663 0)
(-0.169019 -0.0718604 0)
(-0.169647 -0.0802315 0)
(-0.170472 -0.0891017 0)
(-0.171462 -0.098474 0)
(-0.172552 -0.108322 0)
(-0.173638 -0.118577 0)
(-0.174565 -0.129109 0)
(-0.175108 -0.13971 0)
(-0.174943 -0.150039 0)
(-0.173643 -0.159548 0)
(-0.170686 -0.167466 0)
(-0.165419 -0.172908 0)
(-0.156999 -0.17454 0)
(-0.144785 -0.171005 0)
(-0.128751 -0.161388 0)
(-0.109593 -0.145591 0)
(-0.0885311 -0.124222 0)
(-0.0671112 -0.0985677 0)
(-0.0472517 -0.0709445 0)
(-0.0304205 -0.0438916 0)
(-0.017301 -0.0193782 0)
(-0.00800939 0.000765921 0)
(-0.00235134 0.0148896 0)
(0.000383197 0.0213444 0)
(0.000620933 0.0144682 0)
(-0.00115695 -0.00551408 0)
(-0.00718729 0.00172528 0)
(-0.0137273 0.0107138 0)
(-0.0207801 0.019638 0)
(-0.0284062 0.0288742 0)
(-0.0365212 0.0385222 0)
(-0.0451792 0.0485134 0)
(-0.0544023 0.0586895 0)
(-0.0641577 0.0688885 0)
(-0.0743299 0.0789121 0)
(-0.0847446 0.0885249 0)
(-0.0951523 0.0974425 0)
(-0.105271 0.105326 0)
(-0.114857 0.111913 0)
(-0.1237 0.116997 0)
(-0.131681 0.12051 0)
(-0.13877 0.122509 0)
(-0.144994 0.123136 0)
(-0.150414 0.122566 0)
(-0.15509 0.120972 0)
(-0.159074 0.118504 0)
(-0.162416 0.115299 0)
(-0.16516 0.111474 0)
(-0.167354 0.10714 0)
(-0.169047 0.102396 0)
(-0.170292 0.0973351 0)
(-0.171141 0.092039 0)
(-0.171649 0.0865813 0)
(-0.171869 0.0810249 0)
(-0.17185 0.0754223 0)
(-0.171635 0.0698151 0)
(-0.171264 0.0642347 0)
(-0.170771 0.0587037 0)
(-0.170185 0.0532371 0)
(-0.169528 0.0478424 0)
(-0.168818 0.0425214 0)
(-0.16807 0.0372712 0)
(-0.167293 0.0320849 0)
(-0.166496 0.0269526 0)
(-0.165684 0.0218612 0)
(-0.164863 0.0167959 0)
(-0.164037 0.0117405 0)
(-0.163211 0.00667701 0)
(-0.162389 0.00158608 0)
(-0.161579 -0.00355311 0)
(-0.16079 -0.00876272 0)
(-0.160032 -0.014067 0)
(-0.159319 -0.019492 0)
(-0.158669 -0.0250661 0)
(-0.158101 -0.0308205 0)
(-0.157639 -0.0367892 0)
(-0.157307 -0.0430098 0)
(-0.157135 -0.0495229 0)
(-0.157149 -0.0563722 0)
(-0.157377 -0.0636036 0)
(-0.157843 -0.0712636 0)