/*--------------------------------*- C++ -*----------------------------------*\
  =========                 |
  \\      /  F ield         | OpenFOAM: The Open Source CFD Toolbox
   \\    /   O peration     | Website:  https://openfoam.org
    \\  /    A nd           | Version:  13
     \\/     M anipulation  |
\*---------------------------------------------------------------------------*/
FoamFile
{
    format      ascii;
    class       volScalarField;
    location    "9.5";
    object      epsilon;
}
// * * * * * * * * * * * * * * * * * * * * * * * * * * * * * * * * * * * * * //

dimensions      [0 2 -3 0 0 0 0];

internalField   nonuniform List<scalar> 
1600
(
3.10688e-05
0.000103673
0.000199818
0.00019772
0.000179539
0.00018352
0.000237558
0.000405969
0.000612806
0.000916661
0.00138035
0.00168674
0.00183644
0.00204302
0.00236698
0.00277812
0.00315099
0.00358304
0.00399474
0.00447104
0.00495355
0.00550998
0.00610824
0.00681033
0.00762213
0.00832829
0.0090572
0.00966969
0.0102029
0.0104868
0.0105988
0.0103746
0.00954943
0.00814371
0.00615124
0.00368573
0.0018129
0.000770434
0.000248654
5.21672e-05
0.000149651
0.000187326
0.000227287
0.000215913
0.000207372
0.00024798
0.000437851
0.000947118
0.00169739
0.00284257
0.00485902
0.00572326
0.00575961
0.0053463
0.0050091
0.004861
0.00472594
0.00468446
0.00467698
0.00477995
0.00491832
0.00513472
0.00536854
0.00566841
0.00603238
0.00647507
0.00697069
0.00753944
0.00810041
0.00856881
0.00878578
0.00882235
0.00823268
0.0071467
0.00533817
0.00311748
0.00133026
0.000589272
0.000215953
8.8663e-05
0.000450658
0.000474611
0.00047605
0.000449796
0.000506286
0.000844092
0.00184734
0.00379371
0.00601275
0.00689369
0.00664541
0.00566749
0.00518042
0.00454629
0.00415146
0.00382805
0.00358063
0.00341527
0.00331573
0.00327231
0.00325944
0.00329829
0.00340726
0.00355919
0.00375391
0.00399238
0.00427896
0.00462433
0.00503302
0.00553018
0.0060861
0.00660634
0.00684375
0.00677562
0.00591197
0.00401594
0.00130107
0.00036677
0.000136001
7.2614e-05
0.00102748
0.000919059
0.000902837
0.000961719
0.00140402
0.00273438
0.00514745
0.00679159
0.0071549
0.00647218
0.00550808
0.00431485
0.00363278
0.00311576
0.00284721
0.00259511
0.00246613
0.0023813
0.00234529
0.00233581
0.00236094
0.00241906
0.00249831
0.00260341
0.00273048
0.00288641
0.00307396
0.0033006
0.00357179
0.00389598
0.00427796
0.00473711
0.00535626
0.0059626
0.00619687
0.00572178
0.00290977
0.000500599
0.000107091
4.9427e-05
0.00192354
0.00155372
0.00163525
0.00204985
0.00325743
0.00536728
0.00669804
0.0069422
0.00633572
0.00474704
0.00358859
0.00295516
0.00252817
0.00225051
0.0020875
0.00197956
0.00193278
0.00191598
0.00191561
0.00194961
0.00199108
0.00204922
0.00211691
0.00220131
0.00230192
0.00242606
0.00257879
0.00276704
0.00299368
0.00326237
0.00357584
0.00393628
0.00436593
0.00494021
0.00578956
0.00617035
0.00550956
0.001554
0.000196045
5.57148e-05
0.00319553
0.00245087
0.00274949
0.00358658
0.00517234
0.0063463
0.00661669
0.00610565
0.00433037
0.00313041
0.0025332
0.00215127
0.00191278
0.00177693
0.00170937
0.00167962
0.00167199
0.00168006
0.00170496
0.00173813
0.00177894
0.00183001
0.00189253
0.00197053
0.00206659
0.00218622
0.00233381
0.0025147
0.00273335
0.00299265
0.00329327
0.00363988
0.00401682
0.00444487
0.00500115
0.00575431
0.00606702
0.00419739
0.000593055
0.000101851
0.00478203
0.00359703
0.00407349
0.00503949
0.00598957
0.00626471
0.00589247
0.00422999
0.00289376
0.0022604
0.00192001
0.0016959
0.00158131
0.00152305
0.00149622
0.00148542
0.00148256
0.00148619
0.00149784
0.00151405
0.00153932
0.00157627
0.00162835
0.00169968
0.00179481
0.00191941
0.00207904
0.0022796
0.00252558
0.00281827
0.00315286
0.00351735
0.00390649
0.0043175
0.00474173
0.00527354
0.00567879
0.00557888
0.00151388
0.000228822
0.0064744
0.00484472
0.00527855
0.00582892
0.00602536
0.00574558
0.00435343
0.00284524
0.0021181
0.00176444
0.00155961
0.0014399
0.00138138
0.00134634
0.00132232
0.00130162
0.00128289
0.00126722
0.00125832
0.00125503
0.00126014
0.00128207
0.00132076
0.00138127
0.00146851
0.00158858
0.00174915
0.00195902
0.00222731
0.00256054
0.00295746
0.00340188
0.0038603
0.0043044
0.00470896
0.00513961
0.00556455
0.00571968
0.00333558
0.000571475
0.00791003
0.00597961
0.0061399
0.00618396
0.00575152
0.00463963
0.00302237
0.00210079
0.0016763
0.00146628
0.00133918
0.00126913
0.00122569
0.00118652
0.00114874
0.00110967
0.00107204
0.00103825
0.0010113
0.000996597
0.000991394
0.000998179
0.00102723
0.00107563
0.00115079
0.00125783
0.00140581
0.0016059
0.00187235
0.0022204
0.00266122
0.00319078
0.00377407
0.00433776
0.00483504
0.0051625
0.00555475
0.0057613
0.00509613
0.00155887
0.00896424
0.00680507
0.00665903
0.00611285
0.00509268
0.00349499
0.00224038
0.00167273
0.00140715
0.00127242
0.00118517
0.00113074
0.00108109
0.00102872
0.00097494
0.000920836
0.000870571
0.000826733
0.000791988
0.000770545
0.000761368
0.000760268
0.000780861
0.000819046
0.000880719
0.000971045
0.00109869
0.0012758
0.00151932
0.00185138
0.00229684
0.00287423
0.00357484
0.00433216
0.00500789
0.00544055
0.00569507
0.00586675
0.00568634
0.00278685
0.00971922
0.00733622
0.00687506
0.0058529
0.00424658
0.00262534
0.00178452
0.00140783
0.00122887
0.00113167
0.00106037
0.00100369
0.000942107
0.000877484
0.000812666
0.000750808
0.000695692
0.00064929
0.000613252
0.000589668
0.000578712
0.000575942
0.000589198
0.000619491
0.000668884
0.000742916
0.000849094
0.000999104
0.00121025
0.00150755
0.0019245
0.00249885
0.00325538
0.00416528
0.00508561
0.00572114
0.00601115
0.00613591
0.0060395
0.00397061
0.0101232
0.00756462
0.00680863
0.00534722
0.00345648
0.00209852
0.00149858
0.00122928
0.00109887
0.00101824
0.000949655
0.000884727
0.000813093
0.000740869
0.000671278
0.00060792
0.000553398
0.000508781
0.000474669
0.000451807
0.000440855
0.000437558
0.000446055
0.000469972
0.000509361
0.000569324
0.000656265
0.000780644
0.000958708
0.0012157
0.0015894
0.0021314
0.00289809
0.00391531
0.0051019
0.00601694
0.00636671
0.00646357
0.00638484
0.00492151
0.010109
0.00754152
0.00661227
0.00479705
0.00282013
0.00176017
0.00130533
0.00109895
0.000996318
0.000920798
0.000849371
0.000776499
0.000698954
0.000623876
0.000554305
0.000493269
0.000442143
0.000401183
0.000370227
0.000349208
0.00033895
0.000335599
0.000341118
0.000360042
0.000391679
0.000440316
0.000511368
0.000613769
0.000761845
0.000978925
0.00130265
0.00179082
0.00252136
0.00356952
0.00493669
0.00627981
0.00683363
0.00693076
0.00666881
0.00580937
0.00998237
0.00742029
0.00625817
0.00424429
0.0023827
0.00152971
0.00116611
0.000999392
0.000911036
0.000835499
0.000760038
0.000681829
0.000602172
0.000527674
0.000460902
0.00040394
0.000357197
0.000320327
0.000292699
0.000273786
0.000264441
0.00026125
0.000264939
0.00028006
0.000305837
0.000345732
0.000404358
0.000489267
0.00061281
0.000795767
0.00107361
0.00150577
0.00218376
0.00322015
0.00467512
0.00639726
0.00732281
0.0074761
0.00711072
0.00662851
0.00968025
0.00715719
0.00584451
0.00376182
0.00208468
0.00136528
0.00106105
0.000920444
0.000838609
0.000761453
0.000682726
0.000601954
0.000522829
0.000450887
0.000388117
0.000335679
0.000293322
0.000260302
0.000235731
0.000218831
0.0002104
0.000207452
0.000210031
0.000222259
0.000243582
0.000276761
0.000325749
0.000396929
0.000500774
0.000655179
0.000891871
0.00126781
0.00188136
0.00288013
0.00441095
0.00642219
0.00782654
0.00809413
0.00759432
0.00742737
0.00916365
0.00684044
0.00542559
0.00337329
0.00187253
0.00124445
0.000979931
0.000856455
0.000777205
0.000698471
0.000617817
0.000536619
0.000459537
0.000391011
0.000332465
0.000284323
0.000245911
0.000216244
0.000194301
0.000179213
0.000171582
0.000168889
0.000170806
0.000180832
0.000198741
0.000226765
0.000268351
0.000329013
0.00041775
0.00054995
0.000753386
0.00108014
0.0016273
0.00255991
0.00409262
0.00632229
0.00829624
0.00879296
0.00818269
0.00820189
0.0085736
0.00649427
0.00502742
0.00307134
0.00171926
0.00115414
0.000916534
0.000804203
0.000725835
0.000646209
0.000564909
0.000484653
0.00041029
0.000345332
0.000290719
0.000246344
0.000211281
0.000184406
0.000164639
0.000151081
0.000144103
0.000141638
0.000143166
0.000151509
0.000166759
0.000190771
0.00022658
0.000279049
0.000356032
0.000470854
0.000647637
0.000932989
0.00141958
0.00228215
0.00378804
0.00614869
0.00871328
0.00955917
0.00881034
0.00897032
0.00786867
0.00616693
0.00467408
0.00284343
0.00160899
0.00108722
0.00086723
0.000761816
0.000683799
0.000604033
0.000523081
0.000444543
0.000373051
0.000311409
0.000260194
0.000218954
0.000186614
0.000161983
0.000143954
0.00013162
0.000125125
0.000122831
0.000124128
0.000131192
0.000144371
0.000165257
0.000196551
0.000242638
0.000310552
0.000412069
0.000568258
0.000820121
0.00125281
0.0020413
0.00349359
0.00593669
0.00904316
0.0103664
0.00956959
0.00973169
0.00718146
0.00584935
0.00436835
0.00267765
0.00153411
0.00103799
0.000829167
0.000727804
0.000650145
0.000571042
0.000491216
0.000414708
0.000345906
0.000287154
0.000238753
0.000200025
0.000169817
0.000146916
0.000130219
0.000118819
0.000112626
0.000110419
0.000111549
0.000117646
0.00012922
0.000147684
0.000175432
0.000216498
0.000277301
0.000368523
0.000508913
0.00073463
0.00112272
0.00184287
0.00323059
0.00572716
0.00928645
0.0112059
0.0104005
0.0104867
0.00637162
0.00556589
0.00411978
0.00256297
0.00148561
0.00100571
0.000801248
0.000701353
0.000624294
0.000546355
0.00046805
0.000393768
0.000327498
0.000271155
0.000224911
0.000188029
0.000159373
0.000137739
0.000122014
0.00011129
0.000105239
0.000103035
0.000104145
0.000109572
0.000119866
0.000136297
0.000161268
0.000198408
0.000253632
0.000336882
0.000465254
0.000670879
0.00102254
0.00168011
0.00299447
0.00552322
0.00944206
0.0120774
0.0113495
0.0112399
0.00571042
0.00532682
0.00392036
0.00248942
0.00146874
0.000985123
0.000781692
0.000681405
0.000604834
0.000528772
0.000452736
0.000380538
0.000316111
0.000261541
0.000216976
0.00018164
0.000154293
0.000133607
0.000118512
0.000108167
0.000102066
9.9736e-05
0.000100988
0.000105958
0.000115451
0.00013062
0.000153453
0.000187245
0.000237678
0.00031473
0.000434028
0.000624714
0.000948128
0.00155201
0.00279009
0.00531171
0.00955775
0.012968
0.0124011
0.0119825
0.00514396
0.0051082
0.00379423
0.00245393
0.00147701
0.000987218
0.000770931
0.000667683
0.000591983
0.000517833
0.000443537
0.000373767
0.000312054
0.00025955
0.000216393
0.000181784
0.000154693
0.000134137
0.000119087
0.000108711
0.000102425
9.98305e-05
0.00010078
0.000105175
0.000114141
0.000128612
0.000150223
0.000182012
0.000229411
0.000301222
0.00041303
0.00059286
0.000894999
0.00145406
0.00261853
0.00510923
0.00961727
0.0138687
0.0135787
0.0127215
0.00464031
0.0049241
0.00371587
0.00246093
0.00150354
0.000999372
0.000772474
0.000659943
0.000583102
0.000511627
0.000441493
0.000374349
0.000313601
0.000261691
0.000218903
0.000184577
0.000157716
0.000137259
0.000122228
0.000111825
0.000105486
0.00010296
0.000103774
0.000107577
0.000115763
0.000129235
0.000149747
0.000180438
0.000226296
0.000294996
0.000402537
0.000574996
0.000861533
0.00138372
0.00248011
0.0049212
0.00964644
0.0148032
0.0148553
0.0134438
0.0041801
0.0047805
0.00370473
0.00249134
0.00155911
0.00102791
0.000780768
0.00066097
0.000581842
0.000512025
0.000443403
0.000377908
0.000318616
0.000267648
0.000225448
0.000191461
0.000164757
0.000144292
0.000129147
0.000118564
0.000111999
0.000109271
0.000109999
0.000113479
0.000121237
0.000134304
0.000154006
0.000183067
0.00022633
0.000293267
0.000398642
0.000567287
0.000845608
0.00134013
0.00237558
0.00475189
0.00965672
0.0157417
0.0162503
0.0141543
0.00374802
0.0046707
0.00372341
0.00256
0.00164349
0.00108211
0.000800601
0.000666835
0.000584163
0.000514899
0.000448647
0.000385941
0.000328885
0.000279115
0.000237325
0.000203316
0.00017635
0.000155517
0.00013996
0.000128963
0.00012199
0.000118945
0.000119606
0.000122889
0.00013037
0.00014326
0.000162683
0.000191283
0.000233684
0.000298121
0.000399832
0.000565856
0.000840592
0.00131995
0.00230208
0.00461048
0.00966036
0.0166783
0.0177671
0.0148395
0.00333671
0.00459298
0.0037747
0.00266621
0.00175695
0.00116152
0.000840324
0.000681433
0.000591064
0.000521652
0.000458414
0.000398419
0.00034332
0.000294704
0.000253372
0.000219324
0.000192028
0.000170727
0.000154664
0.00014318
0.000135753
0.000132346
0.00013296
0.000136137
0.000143481
0.000156384
0.000175805
0.000204301
0.000246391
0.000310469
0.000411934
0.000577133
0.000848342
0.00131476
0.00226341
0.00449757
0.00966369
0.0176035
0.0194042
0.0155016
0.00293418
0.00453015
0.00386488
0.0028091
0.0019061
0.00127164
0.000902756
0.000711106
0.00060573
0.000533399
0.000471538
0.000414122
0.000361215
0.000314023
0.000273372
0.000239437
0.000211894
0.00019016
0.000173597
0.000161636
0.000153774
0.000150008
0.000150602
0.000153757
0.000161105
0.000174201
0.000193893
0.000222712
0.000265143
0.000329576
0.000431583
0.000598645
0.000873221
0.00133159
0.00224928
0.0044092
0.00966818
0.0185415
0.0211466
0.0161285
0.00253781
0.00447526
0.00398471
0.00296946
0.00208488
0.00141709
0.000995486
0.00076162
0.000633083
0.000551826
0.000488694
0.000432929
0.000382152
0.000336642
0.000297012
0.000263508
0.000235975
0.000214002
0.000197082
0.00018476
0.000176566
0.00017254
0.000173159
0.000176385
0.000183891
0.000197357
0.000217576
0.00024712
0.000290535
0.000356405
0.000460552
0.000631239
0.000911404
0.00137194
0.00225359
0.00435246
0.0096512
0.0194733
0.0229652
0.0167226
0.00213357
0.00437852
0.00407527
0.00317947
0.00229564
0.00159935
0.00112395
0.000839555
0.000678166
0.000580679
0.000511883
0.000455634
0.000406239
0.000362374
0.000324036
0.00029134
0.000264195
0.000242322
0.000225327
0.000212889
0.000204557
0.000200503
0.000201219
0.000204635
0.000212487
0.000226511
0.000247519
0.000278215
0.000323296
0.000391711
0.000499532
0.000675946
0.000964685
0.00143325
0.00229552
0.00432914
0.0096236
0.0203772
0.0248089
0.0172743
0.00176513
0.00425417
0.00412382
0.00341008
0.00253598
0.00182275
0.00129827
0.000957033
0.000751658
0.000627669
0.000545917
0.000484833
0.000434622
0.000391538
0.000354365
0.000322713
0.000296342
0.000274995
0.000258323
0.000246146
0.000237947
0.000234246
0.000235165
0.000238934
0.000247386
0.000262198
0.000284308
0.000316672
0.00036422
0.000436493
0.000549747
0.000734195
0.00103396
0.0015169
0.00236317
0.00432614
0.00960297
0.0211973
0.0265933
0.0177909
0.00146301
0.00399561
0.00416629
0.00363274
0.00278297
0.00207406
0.00151802
0.00112366
0.00086681
0.000705243
0.000600647
0.000527543
0.000471918
0.000426967
0.000389614
0.000358468
0.000332796
0.000312156
0.000296086
0.000284533
0.000276724
0.000273843
0.000275099
0.00027944
0.000288834
0.000304762
0.000328415
0.000363176
0.000414228
0.000492009
0.000612721
0.000808007
0.00112137
0.00162548
0.00246661
0.00437732
0.00959591
0.0219352
0.0282517
0.0182716
0.00118874
0.00345201
0.00424222
0.00385381
0.00304542
0.00235032
0.00178362
0.00134968
0.0010406
0.000831556
0.000691916
0.000596164
0.000527219
0.000475044
0.000434124
0.00040148
0.000375409
0.000354982
0.000339323
0.000328498
0.000321126
0.000319464
0.0003212
0.000326358
0.000337109
0.000354678
0.000380576
0.000418879
0.000474904
0.000560471
0.000691174
0.000901135
0.00123143
0.00176536
0.00261347
0.00449103
0.00963217
0.0225907
0.029697
0.0187374
0.000933443
0.00259585
0.00417257
0.00394803
0.00329913
0.00263388
0.00208382
0.00163694
0.00129015
0.00103326
0.000848853
0.000717617
0.000623259
0.000554006
0.000502094
0.000462626
0.000432425
0.000409714
0.000392757
0.000381663
0.000374039
0.000373324
0.000375569
0.000381709
0.000394202
0.000414271
0.000443577
0.000487325
0.000550571
0.000647444
0.000791842
0.00102276
0.00137594
0.00195352
0.00283019
0.00471422
0.00979608
0.0232352
0.0308397
0.0192127
0.000802315
0.00181153
0.00387619
0.00388243
0.00355043
0.00293363
0.00241928
0.00198518
0.00162334
0.00133104
0.00110209
0.000927036
0.000794947
0.000695868
0.000621536
0.000565872
0.000524174
0.000493618
0.000471197
0.000456733
0.000446877
0.000445255
0.000447726
0.000454769
0.000469264
0.000493266
0.000527951
0.000580512
0.000654911
0.00076956
0.000934643
0.00119911
0.00158868
0.00223752
0.00318508
0.00514952
0.0102209
0.0240014
0.0315504
0.0194901
0.000832563
0.00140315
0.00317946
0.00367377
0.00356217
0.00322965
0.00280052
0.00241643
0.00207092
0.00176518
0.00150323
0.00128518
0.00110832
0.000967257
0.000856727
0.00077078
0.000704597
0.000654495
0.000617476
0.0005921
0.000575257
0.000567611
0.000569464
0.00057686
0.00059314
0.000623778
0.000668179
0.000737041
0.000831858
0.000979315
0.00118236
0.00151027
0.0019705
0.0027534
0.0038642
0.00606619
0.0112632
0.0251448
0.0318375
0.0195909
0.00118842
0.00124772
0.00239303
0.00318713
0.00351562
0.00344746
0.00323798
0.00294189
0.00264536
0.00235723
0.00208467
0.00183683
0.00161838
0.00143226
0.00127455
0.00114945
0.00105051
0.000973576
0.000914551
0.000871772
0.000843215
0.000827708
0.000829689
0.000840201
0.000864086
0.000911473
0.00098065
0.00108831
0.00123254
0.00145502
0.00174705
0.002218
0.00284198
0.00391352
0.00538367
0.00811012
0.0135729
0.026999
0.0318358
0.0194455
0.00192753
0.00145872
0.00222617
0.00313035
0.00368904
0.00394708
0.00395682
0.00384492
0.00361445
0.00334484
0.00306578
0.00279184
0.00253687
0.00230815
0.00210974
0.00193975
0.00180057
0.00169085
0.00160838
0.00155397
0.00151965
0.00152112
0.00153813
0.00157996
0.00165803
0.00177394
0.00192899
0.00215496
0.00245272
0.00288124
0.00343115
0.00427078
0.00532475
0.00706866
0.00922902
0.0132426
0.0187179
0.0302113
0.03168
0.0188456
0.00318555
0.0022217
0.00310221
0.00420065
0.00505095
0.00566275
0.00593829
0.00597211
0.00585457
0.00560208
0.0053052
0.00499531
0.00470109
0.00443396
0.00420854
0.00402584
0.00389249
0.00380132
0.0037716
0.00378893
0.00384515
0.00396409
0.00415052
0.00439199
0.00472298
0.00512656
0.00566199
0.00629384
0.00710559
0.00814547
0.00953513
0.0113359
0.0135849
0.0166986
0.0203247
0.0260155
0.0309613
0.0360232
0.0326268
0.0177101
0.00521662
0.0050961
0.00855286
0.0114002
0.0130193
0.0138732
0.0141536
0.0140872
0.013865
0.0134731
0.013059
0.0126656
0.0123386
0.0120968
0.0119418
0.011943
0.0120112
0.0121801
0.0124996
0.0129336
0.013514
0.0141988
0.0150603
0.0160378
0.0172678
0.018605
0.0203327
0.0221155
0.0245387
0.0268219
0.0300372
0.0328885
0.0370843
0.0404608
0.0454416
0.0482636
0.0471729
0.041935
0.0330569
0.0154031
0.00353761
0.00541459
0.00705126
0.00867876
0.0101892
0.0115502
0.0127206
0.0136551
0.0143207
0.0147342
0.0149946
0.0150664
0.0150349
0.0149393
0.0147787
0.0145626
0.0143302
0.0141021
0.013867
0.0136485
0.013445
0.013264
0.0131134
0.0129849
0.0129029
0.0128385
0.0128412
0.0128664
0.0129424
0.0130365
0.0132383
0.0134271
0.0138639
0.0142082
0.014983
0.0154802
0.0163255
0.0163929
0.0158385
0.0132217
)
;

boundaryField
{
    movingWall
    {
        type            epsilonWallFunction;
        value           nonuniform List<scalar> 
40
(
0.00353761
0.00541459
0.00705126
0.00867876
0.0101892
0.0115502
0.0127206
0.0136551
0.0143207
0.0147342
0.0149946
0.0150664
0.0150349
0.0149393
0.0147787
0.0145626
0.0143302
0.0141021
0.013867
0.0136485
0.013445
0.013264
0.0131134
0.0129849
0.0129029
0.0128385
0.0128412
0.0128664
0.0129424
0.0130365
0.0132383
0.0134271
0.0138639
0.0142082
0.014983
0.0154802
0.0163255
0.0163929
0.0158385
0.0132217
)
;
    }
    fixedWalls
    {
        type            epsilonWallFunction;
        value           nonuniform List<scalar> 
120
(
3.10688e-05
0.000149651
0.000450658
0.00102748
0.00192354
0.00319553
0.00478203
0.0064744
0.00791003
0.00896424
0.00971922
0.0101232
0.010109
0.00998237
0.00968025
0.00916365
0.0085736
0.00786867
0.00718146
0.00637162
0.00571042
0.00514396
0.00464031
0.0041801
0.00374802
0.00333671
0.00293418
0.00253781
0.00213357
0.00176513
0.00146301
0.00118874
0.000933443
0.000802315
0.000832563
0.00118842
0.00192753
0.00318555
0.00521662
0.00353761
5.21672e-05
8.8663e-05
7.2614e-05
4.9427e-05
5.57148e-05
0.000101851
0.000228822
0.000571475
0.00155887
0.00278685
0.00397061
0.00492151
0.00580937
0.00662851
0.00742737
0.00820189
0.00897032
0.00973169
0.0104867
0.0112399
0.0119825
0.0127215
0.0134438
0.0141543
0.0148395
0.0155016
0.0161285
0.0167226
0.0172743
0.0177909
0.0182716
0.0187374
0.0192127
0.0194901
0.0195909
0.0194455
0.0188456
0.0177101
0.0154031
0.0132217
3.10688e-05
0.000103673
0.000199818
0.00019772
0.000179539
0.00018352
0.000237558
0.000405969
0.000612806
0.000916661
0.00138035
0.00168674
0.00183644
0.00204302
0.00236698
0.00277812
0.00315099
0.00358304
0.00399474
0.00447104
0.00495355
0.00550998
0.00610824
0.00681033
0.00762213
0.00832829
0.0090572
0.00966969
0.0102029
0.0104868
0.0105988
0.0103746
0.00954943
0.00814371
0.00615124
0.00368573
0.0018129
0.000770434
0.000248654
5.21672e-05
)
;
    }
    frontAndBack
    {
        type            empty;
    }
}


// ************************************************************************* //
