/*--------------------------------*- C++ -*----------------------------------*\
  =========                 |
  \\      /  F ield         | OpenFOAM: The Open Source CFD Toolbox
   \\    /   O peration     | Website:  https://openfoam.org
    \\  /    A nd           | Version:  13
     \\/     M anipulation  |
\*---------------------------------------------------------------------------*/
FoamFile
{
    format      ascii;
    class       volScalarField;
    location    "9.5";
    object      k;
}
// * * * * * * * * * * * * * * * * * * * * * * * * * * * * * * * * * * * * * //

dimensions      [0 2 -2 0 0 0 0];

internalField   nonuniform List<scalar> 
1600
(
2.42792e-06
8.10118e-06
1.56136e-05
1.54495e-05
1.40287e-05
1.43397e-05
1.8562e-05
3.17209e-05
4.78818e-05
7.16256e-05
0.000107854
0.000131791
0.000143489
0.000159632
0.000184948
0.000217074
0.000246209
0.000279967
0.000312135
0.000349351
0.000387051
0.000430527
0.000477271
0.000532129
0.000595553
0.000650727
0.000707675
0.000755528
0.000797183
0.000819366
0.000828114
0.000810594
0.000746126
0.000636298
0.000480622
0.000287989
0.000141658
6.02022e-05
1.94305e-05
4.07655e-06
1.16946e-05
5.17694e-05
9.81719e-05
0.000103943
0.000100594
0.000107548
0.000152792
0.000261923
0.000367259
0.000515463
0.000723164
0.000817822
0.000835001
0.000835649
0.000835588
0.000876119
0.00089539
0.00094093
0.000973657
0.00102529
0.00107259
0.00113137
0.0011878
0.00124649
0.00130009
0.00136923
0.00143473
0.00150579
0.00156473
0.00159913
0.00161115
0.00157408
0.00146437
0.00126681
0.00100097
0.000622459
0.000285682
0.000120632
4.29673e-05
6.92833e-06
3.52165e-05
0.000135387
0.000209932
0.000222905
0.000242567
0.000319539
0.000530872
0.00085718
0.00110645
0.00118955
0.00111847
0.00100654
0.000953342
0.00093493
0.000930325
0.000936322
0.000946554
0.000965636
0.000985688
0.00101421
0.00103937
0.00106811
0.0010976
0.0011317
0.00116793
0.00120771
0.00124822
0.00129049
0.00133133
0.00136999
0.00139123
0.00139944
0.00138186
0.00127024
0.00108151
0.000700793
0.000264211
9.89627e-05
3.85455e-05
5.6742e-06
8.02896e-05
0.000277149
0.000379084
0.00042114
0.000525702
0.000771784
0.00112464
0.00130036
0.00132041
0.00116867
0.0010546
0.00097036
0.000934007
0.000919454
0.000914404
0.000914213
0.00091898
0.000928598
0.000939046
0.000953253
0.000969462
0.000990408
0.00101143
0.0010355
0.00106015
0.00108666
0.001114
0.00114209
0.00116899
0.00119393
0.00121146
0.00121971
0.00122156
0.00120015
0.00113879
0.000960421
0.000419991
0.000101939
2.8371e-05
3.86219e-06
0.000150306
0.000481693
0.000620058
0.000717355
0.000923759
0.0012291
0.00137536
0.00137998
0.00123965
0.00104758
0.0009534
0.000907741
0.000886002
0.000875623
0.000871754
0.000871699
0.000883387
0.000895078
0.000911394
0.000928161
0.000946436
0.000964771
0.000983634
0.00100358
0.00102501
0.00104861
0.00107445
0.00110203
0.00112923
0.00115126
0.00116638
0.00117375
0.0011762
0.0011688
0.0011403
0.00106911
0.000806898
0.00022179
3.81434e-05
4.35328e-06
0.000249695
0.000732956
0.000908794
0.00104641
0.00126811
0.00139197
0.00140021
0.00128294
0.00104557
0.000930266
0.000876251
0.000850809
0.000840008
0.000836981
0.000840806
0.000853056
0.000868211
0.000883526
0.000899807
0.00091577
0.000932336
0.000948928
0.000966769
0.000986124
0.00100813
0.00103328
0.00106206
0.00109436
0.00112924
0.00116432
0.00118308
0.00118782
0.0011852
0.00117127
0.00114233
0.00109106
0.0009542
0.000459857
8.15885e-05
7.95772e-06
0.000373654
0.000991462
0.00119658
0.00131371
0.00140007
0.00141064
0.00131346
0.00106567
0.00091697
0.00085184
0.000822982
0.000811647
0.000808875
0.000813794
0.000825381
0.000838059
0.000850194
0.000861521
0.000872571
0.000882632
0.000893497
0.000906232
0.000922193
0.000942182
0.000966986
0.000997558
0.00103435
0.00107736
0.00112546
0.00117586
0.0012279
0.00126458
0.00127283
0.00126299
0.00121889
0.00113336
0.00100542
0.000723335
0.000165702
1.78778e-05
0.000505884
0.00124618
0.00142273
0.00145783
0.00144679
0.00134639
0.00111979
0.00092226
0.000837052
0.000801335
0.000787667
0.000784152
0.000786554
0.000795431
0.000803117
0.000809189
0.000813
0.000815315
0.00081727
0.000820414
0.000825967
0.000835154
0.00084901
0.000868546
0.000894807
0.000928922
0.000971887
0.0010245
0.00108674
0.00115678
0.00122939
0.00129644
0.00133901
0.00134673
0.00133404
0.00125933
0.00109514
0.000826034
0.000283587
4.46488e-05
0.000618052
0.0014506
0.00158653
0.00154801
0.0014109
0.00120221
0.000955773
0.000836884
0.000787022
0.000767689
0.000761615
0.000760778
0.000764451
0.000766455
0.000766656
0.000762747
0.000757144
0.000751076
0.000746827
0.000745124
0.000745447
0.000752073
0.000763873
0.000782476
0.000808671
0.000843722
0.000888985
0.000946062
0.00101646
0.00110078
0.00119692
0.00129685
0.00137849
0.00141567
0.00141878
0.00138063
0.00124762
0.000977143
0.000516599
0.000121795
0.000700419
0.00158797
0.0016898
0.00154604
0.00132164
0.0010438
0.000861435
0.000784266
0.00075312
0.000741319
0.000737206
0.000735741
0.000734183
0.000728005
0.000718509
0.00070598
0.000693148
0.000681313
0.000672063
0.000667382
0.000665864
0.000669569
0.000680283
0.000697714
0.000723143
0.000757585
0.00080254
0.000859905
0.000932084
0.00102166
0.00113024
0.00125567
0.00138677
0.00147512
0.00150075
0.0014839
0.0013699
0.0010975
0.000629519
0.00021774
0.000759407
0.00167904
0.00175232
0.0015171
0.00120065
0.000930927
0.000802313
0.000748227
0.000725966
0.000716484
0.000711866
0.000706188
0.000696851
0.000682355
0.00066507
0.000646434
0.000628822
0.000613418
0.000601471
0.000594929
0.000592484
0.000594047
0.000603892
0.00062017
0.00064456
0.000677876
0.000721607
0.000777647
0.000848656
0.000938104
0.00104982
0.00118598
0.00134226
0.00149868
0.00157852
0.00159024
0.00151822
0.00125967
0.0007747
0.000310229
0.000790971
0.0017124
0.00175333
0.00145419
0.0010886
0.000860143
0.000761216
0.000719351
0.000701107
0.000692247
0.000684311
0.00067246
0.000655646
0.000634537
0.000611871
0.000589376
0.000568925
0.000551503
0.000538027
0.000530197
0.000527095
0.000527092
0.00053582
0.000550934
0.000574075
0.000606058
0.000648292
0.00070258
0.000771551
0.000859025
0.000970249
0.00111112
0.00128462
0.00148203
0.00162931
0.00167247
0.00163413
0.00139131
0.000893791
0.000384523
0.000789856
0.00170834
0.00173625
0.0013779
0.000997744
0.000810066
0.000729198
0.000694128
0.000677895
0.000667577
0.000654896
0.000636932
0.000614152
0.000588416
0.000562359
0.000537601
0.000515551
0.000496982
0.000482557
0.000473471
0.000469491
0.00046888
0.000475965
0.000489879
0.000511615
0.000542134
0.000582766
0.000635201
0.000701846
0.000786304
0.000894032
0.00103257
0.00120967
0.00142596
0.00165094
0.00175709
0.00175824
0.00154448
0.00101431
0.000453892
0.000779965
0.00168773
0.00169547
0.00129654
0.000934882
0.000772221
0.000702407
0.000671187
0.000655836
0.000642679
0.000625169
0.000602099
0.000575025
0.000546292
0.000518221
0.000492192
0.000469244
0.000449971
0.000434856
0.000424693
0.000419954
0.000418842
0.00042431
0.000436918
0.000457154
0.000486093
0.000525064
0.000575723
0.00064033
0.000722246
0.000826818
0.000962419
0.00114034
0.00136988
0.00164222
0.00182682
0.00186016
0.00168245
0.00113438
0.00051789
0.000756359
0.00164285
0.00163426
0.00122447
0.000888135
0.000741721
0.000679031
0.000650548
0.000634858
0.000618467
0.000596747
0.000569801
0.000539833
0.000509263
0.000480061
0.000453362
0.000429942
0.000410261
0.000394693
0.0003837
0.000378324
0.000376778
0.000380828
0.000392055
0.000410709
0.000437913
0.000475046
0.000523795
0.000586325
0.000665702
0.000766788
0.000897707
0.00107113
0.00130209
0.00159504
0.00187061
0.00196191
0.00182561
0.00125507
0.000580304
0.000715996
0.00158569
0.00156598
0.00116425
0.000851665
0.000716494
0.000658672
0.000632106
0.000615304
0.000595904
0.000570838
0.000541135
0.000509317
0.000477693
0.000447926
0.00042095
0.000397361
0.000377527
0.00036174
0.000350269
0.000344358
0.000342454
0.000345354
0.000355196
0.000372214
0.000397546
0.000432659
0.000479344
0.000539811
0.000616991
0.000715353
0.000842592
0.00101199
0.00124254
0.00154736
0.00188862
0.00204792
0.00196149
0.00137909
0.000640816
0.000669893
0.00152042
0.00149571
0.00111497
0.000822875
0.000695483
0.000641104
0.000615773
0.000597605
0.000575716
0.000548172
0.000516621
0.000483698
0.000451549
0.000421599
0.000394629
0.000371119
0.00035136
0.000335578
0.000323973
0.000317626
0.000315435
0.000317462
0.000325988
0.00034136
0.000364728
0.000397643
0.000442039
0.000500264
0.000575211
0.000670958
0.0007944
0.000958438
0.00118513
0.00149941
0.00189126
0.00212911
0.00209472
0.00150327
0.000700852
0.000614816
0.00145688
0.00142845
0.00107551
0.000800617
0.000678401
0.000626208
0.000601513
0.000582062
0.000558313
0.000529079
0.000496392
0.000462899
0.000430596
0.000400734
0.00037399
0.000350758
0.000331271
0.000315693
0.000304161
0.000297497
0.000295064
0.00029646
0.000303796
0.00031758
0.000338972
0.000369595
0.000411538
0.000467378
0.000540152
0.000633761
0.00075432
0.000913586
0.00113405
0.0014483
0.00186811
0.00219948
0.00222289
0.0016358
0.000760336
0.000561123
0.0013907
0.00136588
0.00104506
0.000784307
0.000664515
0.000613684
0.000589276
0.000568837
0.000543854
0.000513614
0.000480359
0.000446697
0.000414506
0.000384928
0.000358567
0.000335756
0.000316677
0.000301437
0.000290111
0.000283221
0.00028055
0.000281494
0.000287798
0.00030011
0.00031961
0.000347952
0.000387346
0.000440649
0.000511152
0.000602779
0.000720996
0.000876226
0.00109047
0.0014015
0.00183824
0.00226076
0.00234729
0.00176929
0.000819324
0.000497848
0.00133455
0.00131006
0.00102201
0.000773371
0.000654553
0.000603609
0.000578958
0.000557863
0.000532267
0.000501638
0.000468272
0.000434743
0.000402874
0.000373728
0.000347858
0.000325555
0.000306958
0.000292125
0.000281081
0.000274054
0.000271104
0.000271688
0.000277114
0.000288114
0.000305899
0.000332093
0.000368959
0.00041967
0.00048785
0.000577676
0.000694149
0.000846185
0.00105424
0.00135921
0.00180516
0.00230433
0.00246934
0.00191127
0.000878167
0.000446186
0.0012738
0.00126228
0.00100586
0.000768991
0.000646905
0.000595494
0.000570468
0.000549075
0.000523403
0.000492899
0.00045986
0.000426769
0.00039536
0.000366703
0.000341371
0.000319619
0.000301537
0.000287131
0.00027638
0.000269339
0.000266121
0.000266691
0.000271502
0.000281421
0.000297557
0.000321479
0.00035586
0.00040403
0.000469839
0.000557957
0.000673162
0.000822888
0.00102541
0.00132328
0.00177482
0.00233621
0.00258897
0.00205572
0.000936184
0.000401926
0.00121113
0.00121687
0.000998742
0.00077084
0.000645421
0.000589828
0.000563534
0.000542082
0.000516884
0.000487077
0.000454653
0.000422095
0.0003914
0.000363585
0.000339011
0.000317886
0.000300272
0.000286157
0.000275517
0.00026839
0.000264919
0.000265368
0.000269614
0.000278871
0.000293874
0.000316248
0.000348373
0.000393633
0.000456858
0.000543366
0.000657715
0.000805943
0.00100349
0.00129286
0.00174694
0.00235511
0.00270618
0.00220806
0.00099392
0.000362574
0.00114953
0.00117655
0.000999495
0.00077717
0.000647443
0.000586842
0.000558547
0.000536949
0.00051252
0.000483693
0.000452553
0.000421414
0.000391605
0.000364189
0.000339926
0.000319072
0.000301696
0.000287782
0.000277304
0.00027028
0.000266837
0.000267137
0.000270612
0.000278843
0.000293067
0.000314519
0.000345332
0.000388638
0.000449714
0.000534338
0.000648169
0.000795999
0.000988776
0.00126838
0.00172079
0.00236762
0.00282124
0.00236429
0.00105035
0.000326615
0.00108992
0.00114033
0.00100291
0.000790986
0.000653589
0.000587602
0.000554908
0.000533074
0.000509753
0.000482693
0.000453029
0.000422635
0.000393506
0.000366761
0.000343044
0.000322683
0.000305747
0.000292196
0.000281983
0.000275107
0.00027171
0.000272009
0.000275088
0.000282612
0.00029587
0.000315865
0.000345006
0.000387097
0.000446969
0.000530294
0.000643844
0.000791693
0.000981643
0.00124977
0.00169569
0.0023736
0.00293283
0.00252687
0.00110586
0.000292855
0.00103198
0.00110921
0.00101092
0.000809627
0.000666352
0.00059112
0.000554996
0.000530953
0.000508517
0.00048317
0.000454818
0.000425837
0.000397931
0.000372245
0.000349379
0.000329626
0.000313104
0.000299834
0.000289788
0.000282966
0.000279555
0.00027989
0.000282783
0.000289886
0.000302621
0.00032182
0.000349645
0.000389548
0.000446974
0.00052943
0.00064284
0.000790855
0.000979329
0.00123793
0.00167318
0.00237585
0.00304166
0.00269384
0.00115939
0.000260717
0.000975788
0.00108196
0.00101708
0.000839136
0.000686894
0.00059932
0.000556929
0.000531278
0.000508906
0.00048466
0.00045848
0.000431349
0.000404864
0.000380253
0.000358215
0.000339105
0.000323071
0.000310155
0.000300352
0.000293664
0.000290354
0.000290777
0.000293639
0.000300555
0.000312982
0.000331662
0.000358695
0.000397534
0.000453657
0.000534612
0.000647886
0.000796729
0.00098253
0.00123249
0.00165287
0.00237601
0.00314475
0.00286553
0.00121112
0.000229265
0.000918818
0.00105848
0.00101891
0.000874393
0.000716818
0.000615866
0.000562678
0.000533274
0.000510386
0.00048762
0.000463387
0.000438242
0.000413457
0.000390187
0.000369193
0.000350897
0.000335497
0.000323071
0.000313647
0.000307217
0.000304177
0.000304744
0.000307711
0.00031466
0.000326974
0.000345375
0.000371903
0.000409957
0.000465065
0.000545211
0.00065839
0.000807933
0.000992516
0.00123109
0.00163434
0.00237147
0.003244
0.0030384
0.00126009
0.000198295
0.000860926
0.00103407
0.00101702
0.000912728
0.00075422
0.000641262
0.000575021
0.000538635
0.000513793
0.000491768
0.000469292
0.000446187
0.000423309
0.000401651
0.000381968
0.000364729
0.000350185
0.000338451
0.00032961
0.000323599
0.000321075
0.000321853
0.000325053
0.000332253
0.000344637
0.000362986
0.000389306
0.000426987
0.00048152
0.000561045
0.000673959
0.000823763
0.00100676
0.0012347
0.00161744
0.00235854
0.00333856
0.00321118
0.00130651
0.000166708
0.000797075
0.00101238
0.0010113
0.000947754
0.000802155
0.000677585
0.00059727
0.000550091
0.000520705
0.000497761
0.000476301
0.000454998
0.000434081
0.000414244
0.000396145
0.000380249
0.000366841
0.00035606
0.000348064
0.000342664
0.000340969
0.000342036
0.0003456
0.000353272
0.000365902
0.000384411
0.0004108
0.00044848
0.000502844
0.000582007
0.000694366
0.000843658
0.00102455
0.00124203
0.00160278
0.00233743
0.00342524
0.00337743
0.00134961
0.000137919
0.000736966
0.00098695
0.0010035
0.000967062
0.000856074
0.000726528
0.000632248
0.000572189
0.000534536
0.000507928
0.000485775
0.000465346
0.000445984
0.000427891
0.000411486
0.00039714
0.000385122
0.000375553
0.00036867
0.000364109
0.000363544
0.000364982
0.000369062
0.000377441
0.000390483
0.000409358
0.000436076
0.000474109
0.000528646
0.000607571
0.000718828
0.000866388
0.001044
0.00125074
0.00158921
0.00230812
0.00349857
0.00353193
0.00138997
0.000114313
0.000673944
0.00097055
0.000996169
0.000976127
0.000905186
0.000784793
0.000682059
0.000608548
0.000559566
0.0005259
0.000500368
0.000478994
0.00046008
0.000443135
0.000428171
0.000415337
0.000404785
0.000396607
0.000390929
0.000387693
0.000388024
0.000390089
0.000395028
0.000404206
0.000417814
0.000437264
0.000464555
0.000503241
0.000558141
0.000636734
0.000746012
0.00089019
0.00106289
0.00125871
0.00157546
0.00227535
0.00355606
0.00366545
0.00142752
9.28822e-05
0.000590815
0.000963374
0.000995899
0.000983135
0.000940026
0.000846266
0.000746497
0.000664145
0.00060304
0.000559023
0.000526413
0.000500936
0.00048009
0.000462629
0.000447998
0.000435993
0.000426461
0.000419527
0.000414785
0.000413182
0.000414058
0.0004169
0.000422954
0.000432892
0.0004472
0.000467419
0.00049547
0.000534983
0.000590159
0.000667964
0.000774009
0.000912871
0.00107897
0.00126481
0.00156496
0.00224533
0.00359629
0.00376651
0.00146392
7.29343e-05
0.00048892
0.000943727
0.000997496
0.000991474
0.000966798
0.000905653
0.000819644
0.00073827
0.000669648
0.000615215
0.000572871
0.000539769
0.00051357
0.000492687
0.000476055
0.000463129
0.000453256
0.000446627
0.000442089
0.000441487
0.000442711
0.000446099
0.000452979
0.000463585
0.000478572
0.000499611
0.000528406
0.000568624
0.00062357
0.000699706
0.000801044
0.00093282
0.00109139
0.00127013
0.00156079
0.00223164
0.0036227
0.003816
0.00150105
6.26892e-05
0.000403629
0.000893115
0.000992723
0.000996086
0.000988278
0.000961334
0.000902827
0.000831796
0.000763833
0.000703413
0.000651999
0.000609354
0.000574531
0.000546542
0.000524336
0.000507276
0.000494374
0.000485622
0.000479725
0.000477844
0.000478783
0.000481852
0.000488354
0.000499094
0.000514319
0.000535805
0.000564887
0.000605232
0.000659046
0.000732483
0.000828164
0.000952419
0.00110526
0.00128454
0.00157378
0.00223083
0.00364783
0.00383448
0.00152271
6.50535e-05
0.000373783
0.000791706
0.000967321
0.00100248
0.00101199
0.00100759
0.000987851
0.0009441
0.000886652
0.000828221
0.00077288
0.000722876
0.000679192
0.000642143
0.000611418
0.000586665
0.0005672
0.000552571
0.000542291
0.000535587
0.000533631
0.000534925
0.000539137
0.00054815
0.000562501
0.000583612
0.000612305
0.0006522
0.000704545
0.000775481
0.00086722
0.000987493
0.00114277
0.00133743
0.00165296
0.00231395
0.00369077
0.00381865
0.00153058
9.28607e-05
0.000399117
0.000699427
0.000910782
0.00101421
0.00106118
0.00108433
0.0010852
0.00107396
0.00104465
0.000997871
0.000946207
0.000894197
0.000844515
0.000799169
0.000758838
0.000723977
0.000694494
0.000670483
0.000651351
0.000637703
0.000628175
0.000625243
0.00062716
0.000633152
0.000645723
0.000666711
0.000696083
0.000737489
0.000791963
0.000865953
0.000963174
0.00109259
0.00127033
0.00150381
0.00188158
0.00253537
0.00375287
0.00371174
0.00151922
0.000150614
0.000500327
0.00071807
0.000933732
0.00107761
0.00117774
0.00124184
0.00127217
0.0012792
0.00127009
0.0012448
0.00120057
0.00114887
0.00109422
0.00104016
0.000989191
0.000942951
0.000902513
0.000868315
0.000841164
0.000822456
0.00080947
0.000805607
0.000808242
0.000816395
0.000833492
0.000861544
0.000901032
0.000956469
0.00102908
0.00112716
0.0012559
0.00142659
0.00166053
0.00196408
0.00242253
0.0030394
0.00387444
0.00360837
0.0014724
0.000248909
0.000700582
0.000898999
0.00113883
0.00132991
0.00148011
0.00158067
0.00163212
0.00163825
0.00162873
0.00160422
0.00156129
0.00151182
0.00145887
0.00140899
0.00136183
0.00132174
0.00128896
0.00126505
0.00124722
0.00124106
0.00124433
0.00125497
0.00127762
0.00131385
0.00136266
0.00142937
0.00151007
0.00161635
0.00174527
0.00191827
0.00212158
0.00238732
0.00270094
0.00309625
0.00358714
0.00400961
0.00413977
0.0034791
0.00138378
0.000407594
0.00114904
0.00158069
0.00197796
0.00222382
0.00237595
0.00245949
0.00248904
0.00247944
0.00245613
0.00242558
0.00238896
0.00235507
0.00232054
0.00229976
0.00227885
0.00227789
0.00228379
0.00229912
0.00232989
0.00237298
0.00243071
0.00250302
0.0025907
0.00269747
0.00281931
0.00296905
0.00312808
0.00333423
0.003527
0.00379668
0.00401851
0.00436215
0.00458304
0.00499036
0.0050771
0.00492998
0.00433599
0.00304524
0.00120358
0.000276407
0.000423058
0.000550933
0.000678091
0.000796107
0.000902442
0.000993891
0.0010669
0.00111891
0.00115122
0.00117156
0.00117717
0.00117471
0.00116724
0.00115469
0.00113781
0.00111965
0.00110182
0.00108346
0.00106638
0.00105048
0.00103633
0.00102457
0.00101452
0.00100811
0.00100307
0.00100328
0.00100525
0.00101119
0.0010184
0.00103448
0.00104887
0.0010833
0.00110997
0.00117064
0.00120945
0.00127542
0.00128075
0.0012374
0.00103293
)
;

boundaryField
{
    movingWall
    {
        type            kqRWallFunction;
        value           nonuniform List<scalar> 
40
(
0.000276407
0.000423058
0.000550933
0.000678091
0.000796107
0.000902442
0.000993891
0.0010669
0.00111891
0.00115122
0.00117156
0.00117717
0.00117471
0.00116724
0.00115469
0.00113781
0.00111965
0.00110182
0.00108346
0.00106638
0.00105048
0.00103633
0.00102457
0.00101452
0.00100811
0.00100307
0.00100328
0.00100525
0.00101119
0.0010184
0.00103448
0.00104887
0.0010833
0.00110997
0.00117064
0.00120945
0.00127542
0.00128075
0.0012374
0.00103293
)
;
    }
    fixedWalls
    {
        type            kqRWallFunction;
        value           nonuniform List<scalar> 
120
(
2.42792e-06
1.16946e-05
3.52165e-05
8.02896e-05
0.000150306
0.000249695
0.000373654
0.000505884
0.000618052
0.000700419
0.000759407
0.000790971
0.000789856
0.000779965
0.000756359
0.000715996
0.000669893
0.000614816
0.000561123
0.000497848
0.000446186
0.000401926
0.000362574
0.000326615
0.000292855
0.000260717
0.000229265
0.000198295
0.000166708
0.000137919
0.000114313
9.28822e-05
7.29343e-05
6.26892e-05
6.50535e-05
9.28607e-05
0.000150614
0.000248909
0.000407594
0.000276407
4.07655e-06
6.92833e-06
5.6742e-06
3.86219e-06
4.35328e-06
7.95772e-06
1.78778e-05
4.46488e-05
0.000121795
0.00021774
0.000310229
0.000384523
0.000453892
0.00051789
0.000580304
0.000640816
0.000700852
0.000760336
0.000819324
0.000878167
0.000936184
0.00099392
0.00105035
0.00110586
0.00115939
0.00121112
0.00126009
0.00130651
0.00134961
0.00138997
0.00142752
0.00146392
0.00150105
0.00152271
0.00153058
0.00151922
0.0014724
0.00138378
0.00120358
0.00103293
2.42792e-06
8.10118e-06
1.56136e-05
1.54495e-05
1.40287e-05
1.43397e-05
1.8562e-05
3.17209e-05
4.78818e-05
7.16256e-05
0.000107854
0.000131791
0.000143489
0.000159632
0.000184948
0.000217074
0.000246209
0.000279967
0.000312135
0.000349351
0.000387051
0.000430527
0.000477271
0.000532129
0.000595553
0.000650727
0.000707675
0.000755528
0.000797183
0.000819366
0.000828114
0.000810594
0.000746126
0.000636298
0.000480622
0.000287989
0.000141658
6.02022e-05
1.94305e-05
4.07655e-06
)
;
    }
    frontAndBack
    {
        type            empty;
    }
}


// ************************************************************************* //
