/*--------------------------------*- C++ -*----------------------------------*\
  =========                 |
  \\      /  F ield         | OpenFOAM: The Open Source CFD Toolbox
   \\    /   O peration     | Website:  https://openfoam.org
    \\  /    A nd           | Version:  13
     \\/     M anipulation  |
\*---------------------------------------------------------------------------*/
FoamFile
{
    format      ascii;
    class       volScalarField;
    location    "9.5";
    object      nut;
}
// * * * * * * * * * * * * * * * * * * * * * * * * * * * * * * * * * * * * * //

dimensions      [0 2 -1 0 0 0 0];

internalField   nonuniform List<scalar> 
1600
(
1.70761e-08
5.69737e-08
1.09804e-07
1.08647e-07
9.86545e-08
1.00842e-07
1.30534e-07
2.2307e-07
3.36713e-07
5.03698e-07
7.58441e-07
9.26758e-07
1.00902e-06
1.12257e-06
1.30061e-06
1.52654e-06
1.73142e-06
1.96881e-06
2.19502e-06
2.45673e-06
2.72184e-06
3.02757e-06
3.35627e-06
3.74204e-06
4.18801e-06
4.57598e-06
4.97641e-06
5.3129e-06
5.60579e-06
5.76176e-06
5.82327e-06
5.70005e-06
5.24674e-06
4.47447e-06
3.37977e-06
2.02521e-06
9.96201e-07
4.23381e-07
1.36651e-07
2.86703e-08
8.22495e-08
1.28763e-06
3.81631e-06
4.5035e-06
4.39176e-06
4.19791e-06
4.79866e-06
6.51905e-06
7.15164e-06
8.41254e-06
9.68651e-06
1.05176e-05
1.08949e-05
1.17554e-05
1.25449e-05
1.42116e-05
1.52679e-05
1.70097e-05
1.82427e-05
1.97931e-05
2.10522e-05
2.24356e-05
2.36522e-05
2.46692e-05
2.52176e-05
2.60584e-05
2.65771e-05
2.70664e-05
2.72029e-05
2.68589e-05
2.65908e-05
2.52762e-05
2.34425e-05
2.02098e-05
1.68925e-05
1.11856e-05
5.52168e-06
2.22254e-06
7.69413e-07
4.87256e-08
2.47678e-07
3.47582e-06
8.33197e-06
9.94182e-06
1.04595e-05
1.08868e-05
1.37302e-05
1.7431e-05
1.83245e-05
1.84738e-05
1.69421e-05
1.60885e-05
1.57897e-05
1.73039e-05
1.87634e-05
2.06118e-05
2.25203e-05
2.45722e-05
2.6372e-05
2.82904e-05
2.98288e-05
3.11306e-05
3.18217e-05
3.23857e-05
3.27037e-05
3.28803e-05
3.27707e-05
3.2412e-05
3.16946e-05
3.05446e-05
2.86221e-05
2.66801e-05
2.51117e-05
2.14321e-05
1.78063e-05
1.10062e-05
4.82884e-06
2.40321e-06
9.83215e-07
3.99053e-08
5.64662e-07
7.52189e-06
1.43253e-05
1.65977e-05
1.77153e-05
1.96054e-05
2.21145e-05
2.24077e-05
2.19308e-05
1.89923e-05
1.81727e-05
1.964e-05
2.16124e-05
2.44196e-05
2.64301e-05
2.89855e-05
3.08205e-05
3.25899e-05
3.38392e-05
3.50124e-05
3.58278e-05
3.64943e-05
3.68529e-05
3.70682e-05
3.7046e-05
3.68191e-05
3.63343e-05
3.55675e-05
3.44332e-05
3.29293e-05
3.08762e-05
2.82643e-05
2.50732e-05
2.17408e-05
1.88346e-05
1.45089e-05
5.45586e-06
1.86826e-06
6.76455e-07
2.7161e-08
1.05705e-06
1.34403e-05
2.11603e-05
2.25938e-05
2.35768e-05
2.53314e-05
2.54172e-05
2.46883e-05
2.18297e-05
2.08064e-05
2.27966e-05
2.50949e-05
2.79451e-05
3.06617e-05
3.27646e-05
3.45467e-05
3.63381e-05
3.76333e-05
3.90254e-05
3.97687e-05
4.0489e-05
4.08792e-05
4.11347e-05
4.11783e-05
4.10781e-05
4.07916e-05
4.02903e-05
3.95013e-05
3.83357e-05
3.6564e-05
3.4241e-05
3.15e-05
2.85185e-05
2.48874e-05
2.02131e-05
1.66716e-05
1.06356e-05
2.84889e-06
6.67924e-07
3.0613e-08
1.75598e-06
1.97277e-05
2.70346e-05
2.74766e-05
2.79814e-05
2.74778e-05
2.66677e-05
2.4262e-05
2.27208e-05
2.48803e-05
2.72791e-05
3.02839e-05
3.32005e-05
3.54816e-05
3.72218e-05
3.8993e-05
4.0575e-05
4.18173e-05
4.27392e-05
4.34242e-05
4.3977e-05
4.42849e-05
4.44472e-05
4.44143e-05
4.42611e-05
4.39526e-05
4.34988e-05
4.28622e-05
4.19878e-05
4.07691e-05
3.82514e-05
3.48865e-05
3.14736e-05
2.77775e-05
2.34832e-05
1.86184e-05
1.35066e-05
4.53429e-06
1.01019e-06
5.5957e-08
2.62767e-06
2.45952e-05
3.16343e-05
3.08217e-05
2.94543e-05
2.85875e-05
2.63499e-05
2.41627e-05
2.61511e-05
2.88917e-05
3.17483e-05
3.49604e-05
3.72382e-05
3.91342e-05
4.09786e-05
4.25543e-05
4.38799e-05
4.4947e-05
4.57486e-05
4.63087e-05
4.66766e-05
4.68913e-05
4.70042e-05
4.70051e-05
4.68881e-05
4.66607e-05
4.63141e-05
4.5825e-05
4.51379e-05
4.4154e-05
4.30391e-05
4.09187e-05
3.73247e-05
3.32515e-05
2.81991e-05
2.19217e-05
1.60206e-05
8.44063e-06
1.63232e-06
1.25712e-07
3.5575e-06
2.88492e-05
3.45123e-05
3.28148e-05
3.12658e-05
2.83957e-05
2.59229e-05
2.69048e-05
2.97715e-05
3.27539e-05
3.58025e-05
3.84335e-05
4.03074e-05
4.22955e-05
4.39e-05
4.52751e-05
4.63697e-05
4.72108e-05
4.77731e-05
4.82673e-05
4.87247e-05
4.89626e-05
4.91186e-05
4.9153e-05
4.9071e-05
4.8887e-05
4.86012e-05
4.82203e-05
4.77216e-05
4.70343e-05
4.59942e-05
4.44659e-05
4.18011e-05
3.79221e-05
3.40137e-05
2.77712e-05
1.93979e-05
1.07366e-05
2.16992e-06
3.13953e-07
4.34625e-06
3.16712e-05
3.6896e-05
3.48757e-05
3.11495e-05
2.80364e-05
2.72022e-05
3.00048e-05
3.32555e-05
3.61738e-05
3.89829e-05
4.10441e-05
4.29102e-05
4.45595e-05
4.60492e-05
4.71855e-05
4.8127e-05
4.88998e-05
4.96366e-05
5.01395e-05
5.04464e-05
5.09981e-05
5.11229e-05
5.12298e-05
5.11434e-05
5.09354e-05
5.05948e-05
5.01605e-05
4.9663e-05
4.91149e-05
4.845e-05
4.74375e-05
4.53145e-05
4.15815e-05
3.74693e-05
3.32305e-05
2.522e-05
1.49155e-05
4.71313e-06
8.56434e-07
4.92544e-06
3.335e-05
3.85923e-05
3.51915e-05
3.0869e-05
2.80566e-05
2.98103e-05
3.30937e-05
3.6277e-05
3.88707e-05
4.12706e-05
4.30853e-05
4.48736e-05
4.63677e-05
4.76573e-05
4.8713e-05
4.96695e-05
5.05325e-05
5.13268e-05
5.20228e-05
5.24106e-05
5.30721e-05
5.33394e-05
5.3492e-05
5.34384e-05
5.31944e-05
5.27593e-05
5.2163e-05
5.1464e-05
5.0741e-05
5.00559e-05
4.93709e-05
4.84166e-05
4.52058e-05
4.04764e-05
3.64258e-05
2.96567e-05
1.84779e-05
6.27231e-06
1.53111e-06
5.34023e-06
3.45854e-05
4.01969e-05
3.53916e-05
3.0552e-05
2.9709e-05
3.24646e-05
3.57898e-05
3.85985e-05
4.08259e-05
4.30114e-05
4.4718e-05
4.63897e-05
4.77556e-05
4.89853e-05
5.00913e-05
5.11541e-05
5.21575e-05
5.30924e-05
5.40213e-05
5.45926e-05
5.5145e-05
5.57058e-05
5.58766e-05
5.59009e-05
5.56676e-05
5.51935e-05
5.44749e-05
5.35588e-05
5.25381e-05
5.15408e-05
5.06592e-05
4.981e-05
4.85309e-05
4.40962e-05
3.9782e-05
3.45106e-05
2.32744e-05
8.94353e-06
2.18147e-06
5.56217e-06
3.48871e-05
4.06358e-05
3.55923e-05
3.08563e-05
3.17301e-05
3.47998e-05
3.78856e-05
4.02591e-05
4.23561e-05
4.43796e-05
4.60008e-05
4.75818e-05
4.8912e-05
5.0195e-05
5.14258e-05
5.264e-05
5.38031e-05
5.48859e-05
5.59968e-05
5.67185e-05
5.71451e-05
5.79285e-05
5.81259e-05
5.82309e-05
5.80646e-05
5.76374e-05
5.6909e-05
5.58838e-05
5.46298e-05
5.33061e-05
5.2131e-05
5.12486e-05
5.04886e-05
4.68291e-05
4.1839e-05
3.77486e-05
2.69536e-05
1.12607e-05
2.70389e-06
5.55433e-06
3.48285e-05
4.10316e-05
3.5621e-05
3.17696e-05
3.35528e-05
3.66616e-05
3.94587e-05
4.15116e-05
4.35593e-05
4.54454e-05
4.70206e-05
4.85675e-05
4.99474e-05
5.13477e-05
5.27326e-05
5.41033e-05
5.54091e-05
5.66072e-05
5.77757e-05
5.85275e-05
5.89584e-05
5.97707e-05
5.99883e-05
6.01448e-05
6.00747e-05
5.97718e-05
5.91644e-05
5.81915e-05
5.68427e-05
5.52231e-05
5.35831e-05
5.22322e-05
5.12679e-05
4.969e-05
4.42469e-05
4.07142e-05
3.0976e-05
1.38848e-05
3.19167e-06
5.48477e-06
3.45483e-05
4.13404e-05
3.56456e-05
3.30131e-05
3.50847e-05
3.80786e-05
4.0569e-05
4.2491e-05
4.44923e-05
4.6281e-05
4.78523e-05
4.94193e-05
5.0901e-05
5.24401e-05
5.39752e-05
5.54795e-05
5.68876e-05
5.81449e-05
5.929e-05
6.00229e-05
6.04346e-05
6.11593e-05
6.13466e-05
6.15006e-05
6.15096e-05
6.13621e-05
6.09711e-05
6.02178e-05
5.89965e-05
5.7308e-05
5.53621e-05
5.35931e-05
5.24484e-05
5.19171e-05
4.69507e-05
4.2527e-05
3.40764e-05
1.62873e-05
3.64168e-06
5.31878e-06
3.39386e-05
4.11281e-05
3.58705e-05
3.40535e-05
3.62662e-05
3.911e-05
4.13813e-05
4.3255e-05
4.52097e-05
4.69436e-05
4.85428e-05
5.01652e-05
5.17677e-05
5.34408e-05
5.51072e-05
5.67175e-05
5.8195e-05
5.94764e-05
6.05504e-05
6.12246e-05
6.15879e-05
6.21466e-05
6.2241e-05
6.23256e-05
6.2361e-05
6.23492e-05
6.22089e-05
6.17843e-05
6.08754e-05
5.93323e-05
5.72078e-05
5.48852e-05
5.29802e-05
5.19102e-05
4.90373e-05
4.42619e-05
3.70587e-05
1.86676e-05
4.08055e-06
5.03495e-06
3.30825e-05
4.06788e-05
3.61641e-05
3.48619e-05
3.71271e-05
3.98461e-05
4.19873e-05
4.38417e-05
4.57559e-05
4.74688e-05
4.91119e-05
5.0804e-05
5.25232e-05
5.43136e-05
5.60907e-05
5.77875e-05
5.93191e-05
6.06122e-05
6.16134e-05
6.22e-05
6.24949e-05
6.28446e-05
6.27918e-05
6.27395e-05
6.27253e-05
6.27814e-05
6.28527e-05
6.27784e-05
6.22983e-05
6.11316e-05
5.91556e-05
5.66402e-05
5.42795e-05
5.26528e-05
5.07757e-05
4.54975e-05
3.93803e-05
2.09186e-05
4.50604e-06
4.71076e-06
3.2036e-05
4.0049e-05
3.64287e-05
3.54462e-05
3.77187e-05
4.03599e-05
4.24345e-05
4.42826e-05
4.61622e-05
4.78738e-05
4.95628e-05
5.13217e-05
5.31394e-05
5.50259e-05
5.68956e-05
5.86689e-05
6.02523e-05
6.156e-05
6.25244e-05
6.30091e-05
6.32242e-05
6.33558e-05
6.31259e-05
6.28896e-05
6.27579e-05
6.28068e-05
6.30209e-05
6.32632e-05
6.32427e-05
6.25607e-05
6.08757e-05
5.82386e-05
5.53897e-05
5.34159e-05
5.23553e-05
4.68227e-05
4.13118e-05
2.30848e-05
4.92818e-06
4.32346e-06
3.09758e-05
3.92895e-05
3.66122e-05
3.58541e-05
3.80978e-05
4.06955e-05
4.27447e-05
4.45916e-05
4.64447e-05
4.81632e-05
4.98861e-05
5.16948e-05
5.3586e-05
5.55467e-05
5.74925e-05
5.93352e-05
6.09734e-05
6.23087e-05
6.32599e-05
6.36594e-05
6.3792e-05
6.37239e-05
6.3314e-05
6.28735e-05
6.25764e-05
6.25489e-05
6.28207e-05
6.33061e-05
6.37241e-05
6.36133e-05
6.24419e-05
5.99594e-05
5.67023e-05
5.40362e-05
5.29057e-05
4.81462e-05
4.28994e-05
2.51657e-05
5.34644e-06
3.9459e-06
2.97577e-05
3.84369e-05
3.67088e-05
3.60876e-05
3.82876e-05
4.0878e-05
4.29403e-05
4.47927e-05
4.66165e-05
4.83329e-05
5.00763e-05
5.1917e-05
5.38506e-05
5.58537e-05
5.78493e-05
5.97458e-05
6.14336e-05
6.28002e-05
6.37509e-05
6.40995e-05
6.41537e-05
6.39313e-05
6.33636e-05
6.27296e-05
6.22513e-05
6.21113e-05
6.23716e-05
6.30199e-05
6.38085e-05
6.42563e-05
6.36853e-05
6.15463e-05
5.80733e-05
5.47202e-05
5.31019e-05
4.9534e-05
4.42518e-05
2.70887e-05
5.76122e-06
3.50095e-06
2.8799e-05
3.74932e-05
3.6678e-05
3.62337e-05
3.83405e-05
4.09249e-05
4.30131e-05
4.4865e-05
4.66688e-05
4.83873e-05
5.01186e-05
5.19396e-05
5.38721e-05
5.5891e-05
5.79192e-05
5.98515e-05
6.15665e-05
6.29463e-05
6.3892e-05
6.42299e-05
6.41992e-05
6.37889e-05
6.30751e-05
6.23269e-05
6.17891e-05
6.15478e-05
6.17504e-05
6.24964e-05
6.35824e-05
6.45537e-05
6.46404e-05
6.30222e-05
5.95363e-05
5.55258e-05
5.30986e-05
5.06134e-05
4.54393e-05
2.89674e-05
6.17497e-06
3.13767e-06
2.74142e-05
3.65785e-05
3.65779e-05
3.62359e-05
3.82325e-05
4.08284e-05
4.29833e-05
4.48611e-05
4.6628e-05
4.82962e-05
5.00143e-05
5.18547e-05
5.37884e-05
5.57776e-05
5.77408e-05
5.95882e-05
6.12487e-05
6.26094e-05
6.35562e-05
6.39675e-05
6.3907e-05
6.33851e-05
6.26115e-05
6.17386e-05
6.10059e-05
6.06138e-05
6.08684e-05
6.18132e-05
6.31251e-05
6.45544e-05
6.5283e-05
6.42772e-05
6.09741e-05
5.64845e-05
5.33723e-05
5.13938e-05
4.65184e-05
3.06697e-05
6.58291e-06
2.82643e-06
2.58437e-05
3.51241e-05
3.65836e-05
3.62067e-05
3.79766e-05
4.06142e-05
4.28067e-05
4.46749e-05
4.64344e-05
4.81402e-05
4.97738e-05
5.13848e-05
5.31206e-05
5.49806e-05
5.69003e-05
5.87915e-05
6.04957e-05
6.18848e-05
6.28447e-05
6.32949e-05
6.32711e-05
6.28878e-05
6.22033e-05
6.13209e-05
6.04342e-05
5.99186e-05
6.00111e-05
6.07871e-05
6.23616e-05
6.43349e-05
6.56698e-05
6.53174e-05
6.23285e-05
5.74499e-05
5.37578e-05
5.19055e-05
4.75248e-05
3.23152e-05
6.98887e-06
2.5497e-06
2.41521e-05
3.35276e-05
3.65346e-05
3.61543e-05
3.77501e-05
4.01238e-05
4.25457e-05
4.45004e-05
4.62072e-05
4.76934e-05
4.92386e-05
5.09663e-05
5.27412e-05
5.45311e-05
5.6342e-05
5.80956e-05
5.96817e-05
6.09816e-05
6.18894e-05
6.23272e-05
6.22398e-05
6.18902e-05
6.12655e-05
6.04497e-05
5.9813e-05
5.94536e-05
5.94823e-05
6.00697e-05
6.1702e-05
6.38364e-05
6.57588e-05
6.61906e-05
6.35904e-05
5.83809e-05
5.41536e-05
5.22996e-05
4.83915e-05
3.3866e-05
7.38562e-06
2.29683e-06
2.23644e-05
3.15897e-05
3.63361e-05
3.61163e-05
3.74021e-05
3.98004e-05
4.19279e-05
4.39555e-05
4.56741e-05
4.72918e-05
4.88774e-05
5.04551e-05
5.20691e-05
5.36983e-05
5.53176e-05
5.68788e-05
5.83077e-05
5.94989e-05
6.03582e-05
6.0818e-05
6.08064e-05
6.05367e-05
6.00163e-05
5.92912e-05
5.86615e-05
5.83052e-05
5.85175e-05
5.95853e-05
6.13103e-05
6.34882e-05
6.57659e-05
6.67094e-05
6.47148e-05
5.9174e-05
5.44591e-05
5.25081e-05
4.91772e-05
3.53628e-05
7.77592e-06
2.05942e-06
2.05211e-05
2.97392e-05
3.59281e-05
3.58959e-05
3.693e-05
3.92806e-05
4.15723e-05
4.34331e-05
4.51992e-05
4.68316e-05
4.82389e-05
4.96231e-05
5.10593e-05
5.25482e-05
5.40336e-05
5.54508e-05
5.67339e-05
5.78096e-05
5.86055e-05
5.90725e-05
5.91333e-05
5.89475e-05
5.85651e-05
5.80125e-05
5.75328e-05
5.72962e-05
5.752e-05
5.84432e-05
6.03135e-05
6.30931e-05
6.57267e-05
6.69655e-05
6.53948e-05
5.99119e-05
5.4649e-05
5.25879e-05
4.99245e-05
3.67595e-05
8.15231e-06
1.83342e-06
1.86577e-05
2.79112e-05
3.49189e-05
3.60702e-05
3.65592e-05
3.84692e-05
4.09655e-05
4.29785e-05
4.46823e-05
4.61168e-05
4.74837e-05
4.87754e-05
5.00583e-05
5.13604e-05
5.26556e-05
5.38949e-05
5.50219e-05
5.59772e-05
5.67047e-05
5.71734e-05
5.73308e-05
5.72323e-05
5.70027e-05
5.66625e-05
5.63754e-05
5.63123e-05
5.66791e-05
5.77252e-05
5.96595e-05
6.24442e-05
6.54581e-05
6.73431e-05
6.60827e-05
6.04015e-05
5.4669e-05
5.25769e-05
5.05611e-05
3.80852e-05
8.51605e-06
1.61224e-06
1.67722e-05
2.609e-05
3.32619e-05
3.61003e-05
3.63662e-05
3.78133e-05
4.00708e-05
4.22536e-05
4.39529e-05
4.53825e-05
4.66661e-05
4.78525e-05
4.89938e-05
5.01226e-05
5.12339e-05
5.22977e-05
5.32721e-05
5.41121e-05
5.47755e-05
5.52396e-05
5.55114e-05
5.54987e-05
5.54234e-05
5.53117e-05
5.52354e-05
5.53684e-05
5.58931e-05
5.70479e-05
5.90629e-05
6.19881e-05
6.51688e-05
6.72774e-05
6.65803e-05
6.06428e-05
5.45213e-05
5.23518e-05
5.10811e-05
3.92911e-05
8.86041e-06
1.39446e-06
1.49058e-05
2.41517e-05
3.13489e-05
3.59621e-05
3.61278e-05
3.71774e-05
3.90725e-05
4.1245e-05
4.30544e-05
4.45376e-05
4.57838e-05
4.68858e-05
4.7906e-05
4.8884e-05
4.98313e-05
5.0736e-05
5.15725e-05
5.23103e-05
5.29218e-05
5.33762e-05
5.3773e-05
5.38409e-05
5.39123e-05
5.4028e-05
5.41642e-05
5.45017e-05
5.51973e-05
5.64772e-05
5.85502e-05
6.1512e-05
6.47614e-05
6.70095e-05
6.64898e-05
6.0882e-05
5.40959e-05
5.18739e-05
5.15136e-05
4.04111e-05
9.18676e-06
1.17233e-06
1.30591e-05
2.26347e-05
2.89498e-05
3.52151e-05
3.62088e-05
3.67639e-05
3.82415e-05
4.01584e-05
4.20233e-05
4.35626e-05
4.48116e-05
4.58649e-05
4.67979e-05
4.76609e-05
4.84788e-05
4.92556e-05
4.99812e-05
5.06378e-05
5.12163e-05
5.16611e-05
5.21858e-05
5.23261e-05
5.25305e-05
5.28602e-05
5.31966e-05
5.3731e-05
5.45912e-05
5.59923e-05
5.80957e-05
6.10289e-05
6.4196e-05
6.64033e-05
6.59153e-05
6.04822e-05
5.34058e-05
5.10952e-05
5.18177e-05
4.13817e-05
9.4898e-06
9.69875e-07
1.14901e-05
2.12585e-05
2.65771e-05
3.31898e-05
3.61858e-05
3.65916e-05
3.75915e-05
3.92014e-05
4.09701e-05
4.25324e-05
4.38047e-05
4.48418e-05
4.57201e-05
4.65004e-05
4.72211e-05
4.79002e-05
4.85417e-05
4.91384e-05
4.96966e-05
5.01449e-05
5.0779e-05
5.09815e-05
5.13054e-05
5.1828e-05
5.23381e-05
5.30469e-05
5.40452e-05
5.55437e-05
5.76228e-05
6.0433e-05
6.33404e-05
6.53377e-05
6.46673e-05
5.95777e-05
5.25419e-05
4.99293e-05
5.19689e-05
4.22176e-05
9.77357e-06
8.03863e-07
1.02308e-05
2.03483e-05
2.45852e-05
3.0814e-05
3.55547e-05
3.65152e-05
3.72606e-05
3.8451e-05
3.99582e-05
4.1441e-05
4.27134e-05
4.37558e-05
4.46184e-05
4.53606e-05
4.60284e-05
4.66515e-05
4.72409e-05
4.78131e-05
4.83399e-05
4.88844e-05
4.94833e-05
4.9783e-05
5.02584e-05
5.09096e-05
5.15523e-05
5.23971e-05
5.34811e-05
5.50244e-05
5.69846e-05
5.95518e-05
6.19896e-05
6.36001e-05
6.25514e-05
5.78086e-05
5.10327e-05
4.85572e-05
5.18846e-05
4.28008e-05
1.00377e-05
6.5316e-07
9.1007e-06
1.96897e-05
2.31623e-05
2.85641e-05
3.38373e-05
3.61372e-05
3.71593e-05
3.8149e-05
3.93589e-05
4.06489e-05
4.18341e-05
4.28367e-05
4.3667e-05
4.43706e-05
4.49914e-05
4.55718e-05
4.61099e-05
4.6682e-05
4.71363e-05
4.78464e-05
4.82997e-05
4.87002e-05
4.93326e-05
5.00301e-05
5.07471e-05
5.1667e-05
5.27459e-05
5.42395e-05
5.59278e-05
5.8098e-05
5.98335e-05
6.09048e-05
5.93512e-05
5.50903e-05
4.90796e-05
4.71064e-05
5.15255e-05
4.2994e-05
1.02935e-05
5.12883e-07
8.2878e-06
1.92102e-05
2.26822e-05
2.68167e-05
3.19388e-05
3.54247e-05
3.69369e-05
3.80217e-05
3.90594e-05
4.01295e-05
4.11589e-05
4.20716e-05
4.28476e-05
4.3511e-05
4.40887e-05
4.46412e-05
4.51283e-05
4.57098e-05
4.60875e-05
4.68988e-05
4.72494e-05
4.76887e-05
4.83801e-05
4.90661e-05
4.97568e-05
5.06451e-05
5.15654e-05
5.28543e-05
5.40518e-05
5.56462e-05
5.64652e-05
5.69164e-05
5.48764e-05
5.13007e-05
4.65071e-05
4.57552e-05
5.08347e-05
4.2496e-05
1.05546e-05
4.40842e-07
8.09396e-06
1.85205e-05
2.28452e-05
2.5151e-05
2.99637e-05
3.43799e-05
3.69533e-05
3.8359e-05
3.94502e-05
4.0406e-05
4.12705e-05
4.20381e-05
4.26916e-05
4.32537e-05
4.37264e-05
4.4183e-05
4.45619e-05
4.50438e-05
4.53488e-05
4.59862e-05
4.63353e-05
4.66722e-05
4.71977e-05
4.77739e-05
4.82644e-05
4.89399e-05
4.94715e-05
5.03389e-05
5.07963e-05
5.16644e-05
5.14771e-05
5.13881e-05
4.91364e-05
4.66251e-05
4.32874e-05
4.38215e-05
4.98972e-05
4.19422e-05
1.07069e-05
4.57475e-07
8.96142e-06
1.77426e-05
2.2923e-05
2.5391e-05
2.85391e-05
3.26264e-05
3.63456e-05
3.87361e-05
4.0083e-05
4.10685e-05
4.18313e-05
4.24331e-05
4.29226e-05
4.33176e-05
4.36505e-05
4.39625e-05
4.42393e-05
4.4504e-05
4.47005e-05
4.48788e-05
4.51516e-05
4.52233e-05
4.53493e-05
4.55915e-05
4.56519e-05
4.58774e-05
4.57811e-05
4.60209e-05
4.56181e-05
4.57759e-05
4.48175e-05
4.45384e-05
4.26867e-05
4.16608e-05
4.05367e-05
4.27846e-05
4.87561e-05
4.12214e-05
1.07622e-05
6.53033e-07
1.14902e-05
1.83983e-05
2.34246e-05
2.63328e-05
2.93985e-05
3.26806e-05
3.60277e-05
3.92406e-05
4.16663e-05
4.29886e-05
4.38678e-05
4.44662e-05
4.48163e-05
4.50985e-05
4.50868e-05
4.49045e-05
4.45871e-05
4.42395e-05
4.37996e-05
4.34051e-05
4.29069e-05
4.24058e-05
4.21323e-05
4.17543e-05
4.11711e-05
4.07948e-05
4.00691e-05
3.97148e-05
3.87958e-05
3.863e-05
3.76435e-05
3.78038e-05
3.71114e-05
3.78049e-05
3.92882e-05
4.26237e-05
4.69486e-05
3.89477e-05
1.06823e-05
1.05918e-06
1.54446e-05
2.08457e-05
2.50666e-05
2.83304e-05
3.16275e-05
3.50774e-05
3.7883e-05
4.07453e-05
4.34047e-05
4.54888e-05
4.64648e-05
4.68262e-05
4.66862e-05
4.61548e-05
4.54001e-05
4.44438e-05
4.33556e-05
4.219e-05
4.09789e-05
4.00613e-05
3.87687e-05
3.79749e-05
3.72117e-05
3.61784e-05
3.52456e-05
3.46312e-05
3.39065e-05
3.35688e-05
3.30796e-05
3.33255e-05
3.32391e-05
3.43988e-05
3.51073e-05
3.7619e-05
3.98849e-05
4.44182e-05
4.47188e-05
3.69896e-05
1.03534e-05
1.7504e-06
1.98826e-05
2.34471e-05
2.77871e-05
3.15146e-05
3.48179e-05
3.78674e-05
4.01437e-05
4.12578e-05
4.26176e-05
4.36586e-05
4.39183e-05
4.37565e-05
4.32001e-05
4.24547e-05
4.14601e-05
4.03933e-05
3.93359e-05
3.81884e-05
3.695e-05
3.60509e-05
3.51537e-05
3.41513e-05
3.34492e-05
3.2894e-05
3.2598e-05
3.2476e-05
3.26077e-05
3.30913e-05
3.36552e-05
3.47323e-05
3.57359e-05
3.77578e-05
3.93179e-05
4.24513e-05
4.45151e-05
4.67333e-05
4.28168e-05
3.33889e-05
9.73104e-06
2.86621e-06
2.33172e-05
2.62922e-05
3.08864e-05
3.41866e-05
3.66218e-05
3.84651e-05
3.95807e-05
3.99052e-05
4.02977e-05
4.05475e-05
4.05541e-05
4.04563e-05
4.00637e-05
3.98598e-05
3.91344e-05
3.88795e-05
3.85395e-05
3.80599e-05
3.7774e-05
3.75011e-05
3.74504e-05
3.74403e-05
3.76645e-05
3.79245e-05
3.84502e-05
3.90194e-05
3.98201e-05
4.0774e-05
4.17412e-05
4.31907e-05
4.41904e-05
4.61798e-05
4.67213e-05
4.93234e-05
4.80677e-05
4.63702e-05
4.03499e-05
2.52479e-05
8.46412e-06
1.94371e-06
2.97492e-06
3.87412e-06
4.76826e-06
5.59814e-06
6.34588e-06
6.98895e-06
7.50235e-06
7.86807e-06
8.09526e-06
8.23829e-06
8.27773e-06
8.26045e-06
8.20795e-06
8.11966e-06
8.00096e-06
7.87327e-06
7.7479e-06
7.61874e-06
7.49864e-06
7.38683e-06
7.28731e-06
7.20461e-06
7.13387e-06
7.08881e-06
7.05333e-06
7.05477e-06
7.06858e-06
7.11035e-06
7.16008e-06
7.27529e-06
7.37406e-06
7.61825e-06
7.8041e-06
8.23165e-06
8.50443e-06
8.96767e-06
9.00561e-06
8.70058e-06
7.2626e-06
)
;

boundaryField
{
    movingWall
    {
        type            nutkWallFunction;
        Cmu             0.09;
        kappa           0.41;
        E               9.8;
        value           uniform 0;
    }
    fixedWalls
    {
        type            nutkWallFunction;
        Cmu             0.09;
        kappa           0.41;
        E               9.8;
        value           uniform 0;
    }
    frontAndBack
    {
        type            empty;
    }
}


// ************************************************************************* //
