/*--------------------------------*- C++ -*----------------------------------*\
  =========                 |
  \\      /  F ield         | OpenFOAM: The Open Source CFD Toolbox
   \\    /   O peration     | Website:  https://openfoam.org
    \\  /    A nd           | Version:  13
     \\/     M anipulation  |
\*---------------------------------------------------------------------------*/
FoamFile
{
    format      ascii;
    class       volScalarField;
    location    "9.5";
    object      p;
}
// * * * * * * * * * * * * * * * * * * * * * * * * * * * * * * * * * * * * * //

dimensions      [0 2 -2 0 0 0 0];

internalField   nonuniform List<scalar> 
1600
(
7.33932e-09
-2.55283e-05
-0.000115011
-0.000241221
-0.000355054
-0.000441867
-0.000520651
-0.000628834
-0.000777174
-0.000965221
-0.00120247
-0.00155545
-0.00199244
-0.00217221
-0.00242627
-0.003056
-0.0039779
-0.00501844
-0.00600474
-0.00679945
-0.00730388
-0.00745078
-0.00718376
-0.00645868
-0.00531211
-0.00376177
-0.00181888
0.000448098
0.00291312
0.00534918
0.00746933
0.00895839
0.00959506
0.00935216
0.00832449
0.00726443
0.00660514
0.00649347
0.00660209
0.00665382
-1.96823e-05
-7.17688e-05
-0.000171851
-0.00029311
-0.000375989
-0.000417741
-0.0004592
-0.000546031
-0.000685229
-0.000841181
-0.000986456
-0.00122953
-0.00168089
-0.0022438
-0.0028936
-0.0037241
-0.00470956
-0.00574721
-0.00670459
-0.00746773
-0.00794948
-0.00809269
-0.00785522
-0.00721928
-0.00616054
-0.0046776
-0.00281288
-0.000627157
0.00175041
0.00413891
0.00627701
0.00786112
0.00864917
0.00856413
0.00773918
0.00670585
0.00619033
0.00626322
0.00644909
0.00653853
-5.06763e-05
-0.000148061
-0.000279419
-0.000394576
-0.000437457
-0.000421617
-0.000410754
-0.000437531
-0.000529266
-0.000747287
-0.00112028
-0.00162917
-0.00229495
-0.00311455
-0.00406663
-0.00510058
-0.00616111
-0.00717517
-0.00806329
-0.00875535
-0.00918911
-0.00930974
-0.00908454
-0.00849682
-0.00752325
-0.00616214
-0.00444409
-0.00242317
-0.000192886
0.00210548
0.0042572
0.00601211
0.00712165
0.00744166
0.00706732
0.00640386
0.00606118
0.00612814
0.00630837
0.00636816
-5.86607e-05
-0.000201912
-0.000377212
-0.000478249
-0.000475632
-0.000425441
-0.000405714
-0.000466833
-0.000666869
-0.00109358
-0.00177509
-0.00264582
-0.00362904
-0.00469426
-0.00581803
-0.00694513
-0.00802056
-0.00899319
-0.00981776
-0.0104491
-0.0108356
-0.0109291
-0.010706
-0.0101567
-0.00926842
-0.00804392
-0.00650442
-0.00468891
-0.00265955
-0.000509893
0.00161022
0.00351106
0.00497583
0.00585396
0.00617348
0.0061377
0.00613032
0.00616387
0.0062485
0.00624953
8.15848e-05
-0.000129012
-0.000328478
-0.000427419
-0.000438552
-0.000429556
-0.000495415
-0.000728382
-0.00120676
-0.0019716
-0.00298626
-0.00415275
-0.00538074
-0.00661933
-0.00783299
-0.00898872
-0.0100551
-0.0110029
-0.0117876
-0.0123616
-0.0126889
-0.0127539
-0.0125401
-0.0120352
-0.0112349
-0.0101443
-0.00877686
-0.00715737
-0.00532881
-0.00335964
-0.00134453
0.000597888
0.00233914
0.00376973
0.00484182
0.00558341
0.00606391
0.00628463
0.00624496
0.00617565
0.000442202
0.00014951
-7.47263e-05
-0.000217402
-0.000314575
-0.000455349
-0.000752792
-0.00130524
-0.00215646
-0.00327464
-0.00457172
-0.00594855
-0.00733233
-0.00867177
-0.00993745
-0.0111076
-0.0121517
-0.0130394
-0.0137407
-0.0142383
-0.0145145
-0.0145581
-0.0143605
-0.0139031
-0.0131913
-0.0122303
-0.0110293
-0.00960372
-0.00797827
-0.00619119
-0.00429718
-0.00236725
-0.000474711
0.00133895
0.00302971
0.00450231
0.00559151
0.00619938
0.00617971
0.00606274
0.000993355
0.000638903
0.000354259
0.000113349
-0.000158582
-0.000570869
-0.00122666
-0.00218135
-0.0034108
-0.00483263
-0.00634387
-0.00786421
-0.00933669
-0.0107203
-0.0119907
-0.0131274
-0.0141122
-0.0149283
-0.0155606
-0.0159994
-0.0162348
-0.0162599
-0.0160686
-0.0156541
-0.0150177
-0.014165
-0.0131041
-0.0118462
-0.0104057
-0.0088012
-0.00705655
-0.00519906
-0.00325011
-0.00122006
0.000863547
0.00289752
0.00462106
0.00573607
0.00610596
0.00588273
0.00165499
0.00125666
0.000854133
0.000452077
-8.0323e-05
-0.000853653
-0.00192674
-0.00328212
-0.00483953
-0.00649318
-0.00815348
-0.00975958
-0.0112673
-0.0126489
-0.013888
-0.0149728
-0.0158954
-0.0166483
-0.0172242
-0.0176174
-0.0178223
-0.0178346
-0.0176512
-0.0172706
-0.0166947
-0.015928
-0.0149779
-0.0138528
-0.0125613
-0.0111117
-0.00950968
-0.00775613
-0.00584075
-0.00374174
-0.00145407
0.000938381
0.00318709
0.00491829
0.00584915
0.00552617
0.00224322
0.00176079
0.00123972
0.00064239
-0.000200457
-0.00136436
-0.00283422
-0.00453243
-0.00633952
-0.00815367
-0.00990591
-0.0115506
-0.0130573
-0.0144113
-0.0156055
-0.0166365
-0.0175029
-0.0182026
-0.018733
-0.019091
-0.0192741
-0.0192799
-0.0191068
-0.0187555
-0.0182285
-0.0175302
-0.016667
-0.0156458
-0.0144723
-0.0131488
-0.0116714
-0.0100268
-0.0081889
-0.00611812
-0.00377659
-0.00119424
0.00142758
0.00370816
0.00514841
0.00522442
0.00257427
0.00202041
0.00136992
0.000556712
-0.000600634
-0.00212226
-0.00391942
-0.00586831
-0.0078445
-0.00975609
-0.0115521
-0.0132003
-0.014684
-0.0159991
-0.017146
-0.0181275
-0.0189461
-0.019603
-0.0200983
-0.020431
-0.0205999
-0.0206042
-0.0204432
-0.020118
-0.0196313
-0.0189873
-0.0181918
-0.0172507
-0.0161687
-0.0149462
-0.0135758
-0.0120389
-0.010303
-0.00831984
-0.00602833
-0.00340441
-0.000596212
0.00203923
0.00403286
0.00507978
0.00253667
0.0019263
0.00115213
0.000134675
-0.00130068
-0.00310263
-0.0051355
-0.0072423
-0.0093149
-0.0112694
-0.013071
-0.0146984
-0.0161467
-0.017419
-0.0185212
-0.0194597
-0.0202394
-0.0208634
-0.0213331
-0.0216487
-0.02181
-0.0218167
-0.0216689
-0.0213676
-0.0209154
-0.0203161
-0.0195746
-0.0186963
-0.0176857
-0.0165433
-0.0152624
-0.013825
-0.012199
-0.0103364
-0.00816805
-0.00562715
-0.00279144
-1.3505e-05
0.00237138
0.0039866
0.0021012
0.00144697
0.000567084
-0.000619368
-0.00226221
-0.00425628
-0.00642462
-0.00861581
-0.0107219
-0.0126762
-0.0144553
-0.0160464
-0.017453
-0.0186827
-0.0197447
-0.0206471
-0.021396
-0.0219953
-0.022447
-0.022752
-0.0229104
-0.0229223
-0.0227881
-0.0225089
-0.022087
-0.0215254
-0.0208287
-0.0200016
-0.0190489
-0.0179721
-0.0167673
-0.0154202
-0.0139031
-0.0121726
-0.0101654
-0.00779616
-0.00505407
-0.0022977
0.000140035
0.00184384
0.0012963
0.000618595
-0.000335106
-0.00164612
-0.00341583
-0.00551505
-0.00773562
-0.00994866
-0.0120418
-0.0139656
-0.0157035
-0.0172498
-0.0186125
-0.0198019
-0.0208286
-0.0217011
-0.0224258
-0.0230065
-0.0234456
-0.0237442
-0.0239027
-0.0239213
-0.0238008
-0.0235421
-0.023147
-0.0226184
-0.02196
-0.0211765
-0.0202725
-0.0192515
-0.0181129
-0.0168477
-0.0154352
-0.0138393
-0.012007
-0.00985669
-0.00732374
-0.00468205
-0.00242013
-0.000862713
0.000206835
-0.000470896
-0.0014637
-0.00284964
-0.00468097
-0.00680475
-0.00901987
-0.0112072
-0.0132558
-0.0151298
-0.0168161
-0.0183139
-0.0196334
-0.0207858
-0.0217816
-0.0226293
-0.0233346
-0.0239012
-0.0243314
-0.0246263
-0.0247865
-0.0248124
-0.0247048
-0.0244648
-0.0240939
-0.0235944
-0.0229699
-0.0222245
-0.0213634
-0.0203916
-0.0193117
-0.0181209
-0.0168064
-0.0153414
-0.0136828
-0.0117664
-0.00951708
-0.00706103
-0.00506921
-0.00375241
-0.00105112
-0.00171366
-0.0027168
-0.00412782
-0.00596357
-0.00805683
-0.0102336
-0.0123632
-0.0143488
-0.0161626
-0.0177932
-0.0192425
-0.0205213
-0.0216403
-0.0226093
-0.023436
-0.0241255
-0.024681
-0.0251046
-0.0253973
-0.0255599
-0.025593
-0.0254974
-0.0252741
-0.0249247
-0.0244512
-0.0238567
-0.0231454
-0.0223227
-0.0213948
-0.0203677
-0.019244
-0.0180189
-0.0166756
-0.0151826
-0.0134925
-0.0115361
-0.00934477
-0.00761569
-0.00653453
-0.00236319
-0.00299627
-0.00398883
-0.00538633
-0.00718743
-0.00922054
-0.0113359
-0.0133924
-0.0153078
-0.0170585
-0.0186341
-0.0200377
-0.0212792
-0.0223684
-0.0233143
-0.0241232
-0.0247995
-0.0253461
-0.0257646
-0.026056
-0.0262211
-0.0262607
-0.0261756
-0.025967
-0.0256364
-0.0251857
-0.0246178
-0.0239369
-0.0231485
-0.02226
-0.02128
-0.0202159
-0.0190703
-0.0178358
-0.016491
-0.0149993
-0.0133105
-0.0114483
-0.0099602
-0.00904904
-0.00362156
-0.00421821
-0.00518361
-0.00654837
-0.00829391
-0.0102539
-0.0122961
-0.0142758
-0.0161218
-0.0178122
-0.0193369
-0.0206992
-0.0219078
-0.0229713
-0.0238974
-0.0246913
-0.0253568
-0.0258961
-0.0263105
-0.026601
-0.0267684
-0.0268135
-0.0267373
-0.026541
-0.0262262
-0.025795
-0.02525
-0.0245954
-0.0238371
-0.0229833
-0.0220446
-0.0210325
-0.019956
-0.0188159
-0.0175985
-0.0162747
-0.0148159
-0.0132597
-0.0119952
-0.0112208
-0.00474533
-0.00529683
-0.00622532
-0.00755085
-0.00923665
-0.0111233
-0.013092
-0.0149991
-0.016782
-0.0184185
-0.0198988
-0.0212257
-0.0224065
-0.0234486
-0.0243583
-0.02514
-0.0257967
-0.0263302
-0.0267414
-0.0270313
-0.0272005
-0.02725
-0.0271808
-0.0269943
-0.0266922
-0.0262766
-0.0257503
-0.0251176
-0.0243846
-0.02356
-0.022656
-0.0216873
-0.0206682
-0.0196066
-0.018496
-0.0173143
-0.0160506
-0.0147515
-0.0136828
-0.0130136
-0.00566847
-0.00618096
-0.0070662
-0.00835028
-0.00998065
-0.0118042
-0.0137072
-0.0155517
-0.017281
-0.0188725
-0.0203166
-0.021615
-0.0227737
-0.0237989
-0.0246959
-0.0254684
-0.0261186
-0.0266477
-0.0270567
-0.0273462
-0.0275169
-0.0275696
-0.0275055
-0.0273259
-0.0270329
-0.0266287
-0.0261164
-0.0255003
-0.0247868
-0.0239852
-0.0231087
-0.0221742
-0.0212002
-0.0202005
-0.0191758
-0.0181126
-0.0170085
-0.0159026
-0.015001
-0.0144209
-0.00636224
-0.0068257
-0.00767443
-0.00892326
-0.0105063
-0.0122804
-0.0141307
-0.0159252
-0.0176126
-0.0191699
-0.0205869
-0.0218644
-0.0230071
-0.0240206
-0.024909
-0.0256754
-0.0263215
-0.0268482
-0.0272561
-0.0275457
-0.0277174
-0.0277721
-0.0277109
-0.0275355
-0.0272477
-0.0268503
-0.0263465
-0.025741
-0.0250404
-0.0242544
-0.0233971
-0.0224869
-0.0215453
-0.0205911
-0.0196319
-0.0186629
-0.0176853
-0.0167297
-0.0159591
-0.0154478
-0.00679687
-0.00721899
-0.00804346
-0.00926361
-0.0108059
-0.0125448
-0.0143559
-0.016114
-0.0177724
-0.0193068
-0.0207064
-0.0219709
-0.0231045
-0.0241116
-0.0249959
-0.0257599
-0.0264048
-0.0269312
-0.0273394
-0.0276296
-0.0278022
-0.0278578
-0.0277976
-0.0276232
-0.0273367
-0.0269411
-0.02644
-0.0258383
-0.025143
-0.0243643
-0.0235168
-0.0226201
-0.0216981
-0.0207733
-0.0198599
-0.0189606
-0.0180798
-0.0172359
-0.0165662
-0.0161076
-0.00695309
-0.007358
-0.00817462
-0.00937613
-0.0108841
-0.0125962
-0.014379
-0.0161152
-0.0177574
-0.01928
-0.0206717
-0.0219317
-0.0230631
-0.0240698
-0.024955
-0.0257206
-0.0263676
-0.0268963
-0.0273066
-0.0275984
-0.0277719
-0.0278275
-0.0277664
-0.02759
-0.0273006
-0.0269014
-0.0263964
-0.0257911
-0.0250928
-0.0243123
-0.0234644
-0.0225694
-0.0216539
-0.0207431
-0.0198563
-0.0190039
-0.0181956
-0.0174362
-0.0168394
-0.0164134
-0.00686594
-0.00726
-0.00807549
-0.00926847
-0.0107513
-0.0124393
-0.0142072
-0.0159319
-0.0175673
-0.0190874
-0.0204802
-0.0217437
-0.0228801
-0.0238928
-0.0247844
-0.0255564
-0.0262094
-0.0267434
-0.027158
-0.0274527
-0.0276275
-0.0276825
-0.0276186
-0.0274373
-0.0271408
-0.0267325
-0.0262168
-0.0255995
-0.0248889
-0.0240962
-0.023237
-0.0223327
-0.0214102
-0.0204976
-0.0196187
-0.0187916
-0.0180338
-0.0173339
-0.0168008
-0.0163788
-0.00657971
-0.006961
-0.00777469
-0.00896444
-0.0104271
-0.0120853
-0.0138444
-0.0155655
-0.0172015
-0.018727
-0.0201289
-0.0214037
-0.0225526
-0.023578
-0.024482
-0.0252657
-0.0259292
-0.0264722
-0.0268938
-0.0271933
-0.0273701
-0.0274241
-0.027356
-0.0271669
-0.0268593
-0.0264364
-0.025903
-0.0252653
-0.0245324
-0.0237162
-0.0228337
-0.0219074
-0.0209647
-0.0200352
-0.019147
-0.0183263
-0.0175995
-0.0169279
-0.0164558
-0.0160194
-0.00614345
-0.00650971
-0.00731402
-0.00849328
-0.00993707
-0.0115601
-0.0132973
-0.0150176
-0.0166597
-0.0181967
-0.0196146
-0.0209082
-0.0220771
-0.0231225
-0.0240457
-0.0248472
-0.0255265
-0.0260828
-0.0265148
-0.0268213
-0.0270013
-0.0270543
-0.0269807
-0.0267813
-0.0264584
-0.0260154
-0.0254572
-0.0247906
-0.0240251
-0.0231741
-0.0222556
-0.0212935
-0.0203166
-0.019356
-0.0184432
-0.0176144
-0.0169022
-0.0162307
-0.0158054
-0.015348
-0.00562221
-0.00596714
-0.00674466
-0.00789246
-0.00930277
-0.0108871
-0.0125846
-0.0142958
-0.015943
-0.0174944
-0.0189336
-0.0202528
-0.0214494
-0.0225228
-0.0234729
-0.0242991
-0.0250003
-0.0255751
-0.0260216
-0.0263381
-0.0265231
-0.0265756
-0.0264955
-0.0262835
-0.0259416
-0.025473
-0.0248827
-0.0241783
-0.02337
-0.0224723
-0.0215049
-0.0204932
-0.0194677
-0.0184611
-0.0175095
-0.0166591
-0.0159467
-0.0152503
-0.0148849
-0.0143933
-0.00509664
-0.00540413
-0.00612236
-0.00720484
-0.0085518
-0.0100797
-0.0117239
-0.0134088
-0.0150533
-0.016618
-0.0180819
-0.0194331
-0.0206653
-0.0217752
-0.0227606
-0.0236195
-0.0243499
-0.0249493
-0.0254153
-0.0257456
-0.025938
-0.0259911
-0.0259041
-0.0256776
-0.0253131
-0.0248137
-0.0241847
-0.0234337
-0.022572
-0.0216157
-0.0205862
-0.019511
-0.0184223
-0.0173545
-0.0163492
-0.0154609
-0.0147267
-0.0140048
-0.0137145
-0.0131715
-0.00464991
-0.0048866
-0.00549677
-0.00647093
-0.00771784
-0.00915693
-0.0107277
-0.0123648
-0.0139928
-0.0155657
-0.0170555
-0.0184441
-0.0197198
-0.0208754
-0.0219057
-0.0228066
-0.0235745
-0.0242059
-0.0246974
-0.0250461
-0.0252491
-0.0253046
-0.0252111
-0.0249687
-0.0245787
-0.024044
-0.0233697
-0.022564
-0.0216392
-0.0206126
-0.019508
-0.0183551
-0.0171885
-0.0160446
-0.0149699
-0.0140263
-0.0132528
-0.0124893
-0.0123155
-0.0116758
-0.0043419
-0.00445423
-0.00490212
-0.00572563
-0.00683425
-0.00814495
-0.00960863
-0.0111712
-0.0127645
-0.0143367
-0.0158512
-0.0172814
-0.0186087
-0.0198198
-0.0209055
-0.0218588
-0.0226739
-0.0233458
-0.0238701
-0.0242428
-0.0244608
-0.0245213
-0.0244224
-0.0241637
-0.0237462
-0.0231724
-0.0224475
-0.0215799
-0.020583
-0.0194755
-0.0182836
-0.0170394
-0.0157804
-0.0145453
-0.0133855
-0.0123684
-0.0115344
-0.0107076
-0.0106785
-0.00985974
-0.00415817
-0.00408789
-0.00435618
-0.00499981
-0.00592867
-0.00706707
-0.00838291
-0.00983842
-0.0113738
-0.0129326
-0.014468
-0.0159429
-0.0173292
-0.0186062
-0.0197588
-0.020776
-0.0216491
-0.0223713
-0.0229368
-0.0233407
-0.0235789
-0.0236482
-0.0235463
-0.0232719
-0.022826
-0.0222108
-0.0214314
-0.0204966
-0.0194204
-0.0182232
-0.0169335
-0.0155855
-0.01422
-0.0128787
-0.0116183
-0.0105088
-0.00959485
-0.00869655
-0.00876628
-0.00764068
-0.00393922
-0.00373585
-0.00387306
-0.00431728
-0.00502089
-0.0059409
-0.00706752
-0.00838134
-0.00983238
-0.0113612
-0.0129107
-0.0144315
-0.0158835
-0.0172364
-0.0184677
-0.0195611
-0.0205042
-0.0212876
-0.0219038
-0.0223469
-0.022612
-0.0226953
-0.0225942
-0.0223064
-0.021833
-0.0211761
-0.0203407
-0.0193357
-0.018176
-0.0168832
-0.0154875
-0.0140254
-0.0125406
-0.0110781
-0.00970046
-0.00847908
-0.00746696
-0.00648708
-0.00654645
-0.00495609
-0.00361902
-0.00343024
-0.00347029
-0.00368966
-0.0041247
-0.00478188
-0.00567953
-0.00681803
-0.0081585
-0.00963964
-0.0111943
-0.0127596
-0.0142821
-0.0157199
-0.0170413
-0.0182231
-0.0192483
-0.0201043
-0.0207817
-0.0212731
-0.0215729
-0.0216767
-0.0215812
-0.0212852
-0.0207877
-0.0200916
-0.0192021
-0.0181281
-0.0168848
-0.0154944
-0.0139885
-0.0124046
-0.0107893
-0.00919074
-0.00767832
-0.00632276
-0.0051854
-0.00408168
-0.00402471
-0.00183039
-0.00334769
-0.00322332
-0.00315493
-0.00312482
-0.00325279
-0.00360556
-0.00423835
-0.00517311
-0.0063811
-0.00779877
-0.00934903
-0.0109554
-0.0125506
-0.0140795
-0.0155002
-0.0167812
-0.0178998
-0.0188396
-0.0195885
-0.0201379
-0.0204814
-0.0206141
-0.0205327
-0.020235
-0.0197191
-0.0189903
-0.0180533
-0.0169164
-0.0155948
-0.0141105
-0.0124949
-0.0107854
-0.00903028
-0.00728007
-0.00561099
-0.00408987
-0.00278333
-0.00148638
-0.00118714
0.00162493
-0.00315014
-0.00309158
-0.00290783
-0.00262228
-0.00241377
-0.00242664
-0.00276601
-0.00347839
-0.00454159
-0.00588654
-0.00742532
-0.00906858
-0.0107354
-0.012358
-0.0138832
-0.0152708
-0.0164915
-0.0175243
-0.0183543
-0.0189709
-0.019367
-0.0195377
-0.0194797
-0.0191925
-0.0186683
-0.0179178
-0.0169449
-0.0157575
-0.0143696
-0.0128015
-0.0110826
-0.00924724
-0.00734385
-0.00542158
-0.00356127
-0.00181945
-0.000268908
0.00132265
0.00198832
0.0053929
-0.00294837
-0.00297259
-0.00267907
-0.00214953
-0.00159442
-0.00125492
-0.00129324
-0.00177971
-0.00269726
-0.00396965
-0.0054958
-0.00717322
-0.00890874
-0.0106233
-0.0122531
-0.0137494
-0.0150761
-0.0162072
-0.0171248
-0.0178163
-0.0182735
-0.0184908
-0.0184644
-0.0181931
-0.0176842
-0.0169299
-0.0159385
-0.0147189
-0.0132834
-0.0116478
-0.009837
-0.00787798
-0.00581516
-0.00368805
-0.00157527
0.00048924
0.00242483
0.00448801
0.0057122
0.00987333
-0.00268461
-0.00277232
-0.00240636
-0.00165151
-0.000768721
-0.000101824
0.000137586
-0.00014255
-0.000928459
-0.0021367
-0.00365454
-0.00536667
-0.00716802
-0.00896949
-0.0106987
-0.0122994
-0.0137295
-0.0149585
-0.0159653
-0.0167356
-0.0172601
-0.0175329
-0.0175511
-0.0173146
-0.0168256
-0.0160832
-0.0150931
-0.0138628
-0.0124016
-0.0107178
-0.00882926
-0.00674846
-0.00450865
-0.00212421
0.000344006
0.00291121
0.00550056
0.00840459
0.0107114
0.0164575
-0.0023626
-0.00246095
-0.00201765
-0.00108124
7.45877e-05
0.000997234
0.00145451
0.00133814
0.000656995
-0.000500229
-0.00201196
-0.00375423
-0.00561308
-0.00749105
-0.00930836
-0.0110032
-0.0125286
-0.01385
-0.014943
-0.0157919
-0.0163864
-0.01672
-0.01679
-0.0165957
-0.0161387
-0.0154202
-0.0144451
-0.013219
-0.0117487
-0.0100344
-0.00808224
-0.00588214
-0.00344563
-0.000735391
0.00222979
0.00557698
0.00926773
0.0137842
0.0185434
0.0279687
-0.00213127
-0.00218306
-0.0015874
-0.000456274
0.000874063
0.00199411
0.00258531
0.00257284
0.00196126
0.000837116
-0.00067676
-0.00245169
-0.0043652
-0.00631187
-0.00820535
-0.0099794
-0.0115849
-0.0129836
-0.0141496
-0.0150661
-0.0157221
-0.0161105
-0.0162284
-0.0160752
-0.0156527
-0.0149621
-0.0140057
-0.012783
-0.0113054
-0.00956972
-0.00756668
-0.00525696
-0.00262271
0.000461616
0.00404943
0.00849845
0.0138993
0.021393
0.0311497
0.0475057
-0.00309555
-0.00254804
-0.00145946
7.80924e-06
0.0015509
0.00278521
0.00345703
0.00349613
0.00291987
0.00181831
0.000311519
-0.00147564
-0.00342112
-0.00541587
-0.00736838
-0.00920728
-0.0108788
-0.0123421
-0.0135691
-0.014542
-0.0152481
-0.0156816
-0.0158386
-0.0157191
-0.0153238
-0.0146553
-0.0137157
-0.0125064
-0.0110275
-0.00926691
-0.00722894
-0.00484382
-0.00206546
0.00132401
0.00551766
0.0112345
0.0190915
0.0312921
0.0491645
0.0754055
-0.00521662
-0.0016624
-1.16131e-05
0.00142197
0.00283443
0.00396255
0.00455574
0.00451987
0.00388198
0.00273762
0.00120187
-0.000610441
-0.00258756
-0.00462425
-0.00662893
-0.00852599
-0.0102555
-0.0117754
-0.0130566
-0.0140779
-0.0148272
-0.0152968
-0.0154851
-0.0153905
-0.0150154
-0.0143601
-0.0134266
-0.0122136
-0.0107239
-0.00894688
-0.00691788
-0.00451374
-0.0017605
0.00179354
0.00632578
0.0131672
0.0242265
0.0421454
0.0697123
0.104432
)
;

boundaryField
{
    movingWall
    {
        type            zeroGradient;
    }
    fixedWalls
    {
        type            zeroGradient;
    }
    frontAndBack
    {
        type            empty;
    }
}


// ************************************************************************* //
