/*--------------------------------*- C++ -*----------------------------------*\
  =========                 |
  \\      /  F ield         | OpenFOAM: The Open Source CFD Toolbox
   \\    /   O peration     | Website:  https://openfoam.org
    \\  /    A nd           | Version:  13
     \\/     M anipulation  |
\*---------------------------------------------------------------------------*/
FoamFile
{
    format      ascii;
    class       volVectorField;
    location    "9.5";
    object      U;
}
// * * * * * * * * * * * * * * * * * * * * * * * * * * * * * * * * * * * * * //

dimensions      [0 1 -1 0 0 0 0];

internalField   nonuniform List<vector> 
1600
(
(0.00135369 -0.00115129 0)
(0.00682065 -0.00177219 0)
(0.0119018 -0.00143447 0)
(0.0149166 -0.00017962 0)
(0.0150935 0.00040782 0)
(0.0144402 0.00017283 0)
(0.0135858 -0.000698555 0)
(0.01342 -0.00130814 0)
(0.0130392 -0.0012827 0)
(0.0117105 -0.00100376 0)
(0.00868838 -0.0010462 0)
(0.000995612 -0.00032243 0)
(-0.0102729 0.00216785 0)
(-0.0229219 0.00892435 0)
(-0.0507641 0.0146827 0)
(-0.0761233 0.014185 0)
(-0.0990375 0.0129691 0)
(-0.118571 0.0111298 0)
(-0.134783 0.00934252 0)
(-0.147948 0.00753982 0)
(-0.15802 0.00584003 0)
(-0.165312 0.00418068 0)
(-0.16931 0.00267449 0)
(-0.170831 0.00117261 0)
(-0.169507 -0.00126225 0)
(-0.164497 -0.00287073 0)
(-0.156488 -0.00521349 0)
(-0.144386 -0.00704724 0)
(-0.128848 -0.00937265 0)
(-0.109706 -0.0116419 0)
(-0.0871206 -0.0138786 0)
(-0.061849 -0.0153069 0)
(-0.0351757 -0.015598 0)
(-0.00796932 -0.0141051 0)
(0.0140455 -0.0118382 0)
(0.0303638 -0.00454314 0)
(0.0320053 0.00334614 0)
(0.025487 0.00548949 0)
(0.0123246 0.00465979 0)
(0.00256869 0.00317865 0)
(0.00240571 -0.0067549 0)
(0.0115253 -0.00986269 0)
(0.0172465 -0.00705235 0)
(0.0204411 -0.0025934 0)
(0.0205449 0.000719006 0)
(0.0182216 0.00185188 0)
(0.0143009 0.00158642 0)
(0.00891133 0.00176944 0)
(0.000462101 0.00334569 0)
(-0.0124224 0.00667211 0)
(-0.0311566 0.0127327 0)
(-0.059338 0.0219952 0)
(-0.0914211 0.030894 0)
(-0.118873 0.0366226 0)
(-0.141348 0.0359755 0)
(-0.160799 0.033149 0)
(-0.176967 0.0289891 0)
(-0.190402 0.0244712 0)
(-0.201106 0.0199306 0)
(-0.209335 0.0155052 0)
(-0.215101 0.0112283 0)
(-0.218553 0.00702523 0)
(-0.219677 0.00285613 0)
(-0.218549 -0.00146969 0)
(-0.21485 -0.00614664 0)
(-0.208689 -0.0109919 0)
(-0.199722 -0.0161595 0)
(-0.187746 -0.0215894 0)
(-0.172421 -0.0272664 0)
(-0.153129 -0.0327295 0)
(-0.130851 -0.0379215 0)
(-0.105599 -0.0418043 0)
(-0.0780266 -0.0427714 0)
(-0.0495068 -0.0396658 0)
(-0.0219603 -0.0310581 0)
(0.00136592 -0.0147537 0)
(0.0172451 0.0036139 0)
(0.0174584 0.0117701 0)
(0.0104647 0.0144105 0)
(0.00163851 0.0111503 0)
(0.00379875 -0.0155527 0)
(0.0123871 -0.0174774 0)
(0.0156262 -0.011295 0)
(0.0163048 -0.00309833 0)
(0.0139967 0.00278614 0)
(0.008735 0.00588097 0)
(-0.000454291 0.0081824 0)
(-0.0146295 0.0129934 0)
(-0.0355941 0.0220434 0)
(-0.0635995 0.0340799 0)
(-0.0945663 0.0455286 0)
(-0.122842 0.0524278 0)
(-0.14683 0.0553933 0)
(-0.165689 0.0549123 0)
(-0.181269 0.0513781 0)
(-0.193826 0.0463104 0)
(-0.2041 0.0401656 0)
(-0.212344 0.0337803 0)
(-0.218861 0.0273483 0)
(-0.223711 0.0210822 0)
(-0.227132 0.0146447 0)
(-0.228898 0.00857625 0)
(-0.22906 0.00241168 0)
(-0.227489 -0.00379232 0)
(-0.224249 -0.0102989 0)
(-0.219233 -0.0172405 0)
(-0.212323 -0.0248978 0)
(-0.203272 -0.033263 0)
(-0.191958 -0.042424 0)
(-0.17796 -0.0517267 0)
(-0.160785 -0.0605597 0)
(-0.140198 -0.0675581 0)
(-0.116165 -0.0704303 0)
(-0.0900343 -0.0681564 0)
(-0.061887 -0.0572622 0)
(-0.0333855 -0.0362362 0)
(-0.00641772 -0.00613219 0)
(0.00167157 0.0120053 0)
(0.00190282 0.0189767 0)
(-0.000272284 0.0149193 0)
(0.00429084 -0.0245487 0)
(0.00877439 -0.0220267 0)
(0.00883964 -0.0114379 0)
(0.00553086 -0.000109359 0)
(-0.00086659 0.00869363 0)
(-0.0118033 0.0162455 0)
(-0.0287841 0.0251062 0)
(-0.0520417 0.0369991 0)
(-0.0801285 0.0508813 0)
(-0.109896 0.0632863 0)
(-0.136361 0.071188 0)
(-0.156818 0.0738566 0)
(-0.172925 0.0728866 0)
(-0.18518 0.0688692 0)
(-0.195217 0.0629709 0)
(-0.203035 0.0559638 0)
(-0.209437 0.0483302 0)
(-0.214574 0.040347 0)
(-0.218973 0.0322162 0)
(-0.222236 0.0242732 0)
(-0.224378 0.0167312 0)
(-0.225265 0.00911007 0)
(-0.225 0.00150684 0)
(-0.223559 -0.00626983 0)
(-0.220959 -0.0142824 0)
(-0.217068 -0.0227549 0)
(-0.211834 -0.0318311 0)
(-0.205126 -0.041637 0)
(-0.196799 -0.0522576 0)
(-0.186827 -0.063943 0)
(-0.175027 -0.0760757 0)
(-0.161118 -0.087736 0)
(-0.144355 -0.0962926 0)
(-0.122538 -0.0975156 0)
(-0.0961293 -0.0882561 0)
(-0.0654309 -0.0655673 0)
(-0.0293445 -0.0270133 0)
(-0.00748457 0.00480414 0)
(-0.00249046 0.0167809 0)
(-0.000353489 0.0143729 0)
(0.00253593 -0.0290211 0)
(0.00284784 -0.0217058 0)
(-0.00171917 -0.006847 0)
(-0.00931183 0.00751635 0)
(-0.0208805 0.0206937 0)
(-0.0376787 0.0338769 0)
(-0.0602745 0.0486427 0)
(-0.0870554 0.0645235 0)
(-0.114575 0.0784641 0)
(-0.138831 0.0873991 0)
(-0.157091 0.0902732 0)
(-0.170922 0.0890096 0)
(-0.181548 0.0847688 0)
(-0.189544 0.0782941 0)
(-0.195956 0.0705477 0)
(-0.201047 0.0618403 0)
(-0.205387 0.0527911 0)
(-0.208669 0.043783 0)
(-0.210821 0.0349862 0)
(-0.211945 0.0262833 0)
(-0.212401 0.0177386 0)
(-0.212133 0.00923342 0)
(-0.21127 0.000730306 0)
(-0.209768 -0.00797148 0)
(-0.207478 -0.0169692 0)
(-0.204462 -0.0265047 0)
(-0.200675 -0.0367424 0)
(-0.196097 -0.0478445 0)
(-0.190638 -0.0598582 0)
(-0.184168 -0.0726852 0)
(-0.176447 -0.0860195 0)
(-0.167077 -0.099121 0)
(-0.155858 -0.111439 0)
(-0.141581 -0.119533 0)
(-0.121421 -0.117829 0)
(-0.0931788 -0.100289 0)
(-0.0569985 -0.0638337 0)
(-0.0170915 -0.0131099 0)
(-0.00231669 0.0112732 0)
(0.000676443 0.013282 0)
(-0.000597601 -0.0295465 0)
(-0.00507838 -0.0162634 0)
(-0.0137845 0.00184411 0)
(-0.0256559 0.0199961 0)
(-0.041812 0.0378461 0)
(-0.0627017 0.0559932 0)
(-0.0873354 0.0741828 0)
(-0.112713 0.0901397 0)
(-0.13522 0.100888 0)
(-0.152094 0.104748 0)
(-0.164304 0.103519 0)
(-0.173632 0.0991523 0)
(-0.180447 0.0923792 0)
(-0.185531 0.0840965 0)
(-0.189358 0.0748881 0)
(-0.191965 0.065268 0)
(-0.193663 0.0555012 0)
(-0.194596 0.0457409 0)
(-0.195048 0.0361485 0)
(-0.195181 0.0267791 0)
(-0.194811 0.0176461 0)
(-0.194034 0.00861906 0)
(-0.192826 -0.00038517 0)
(-0.191156 -0.00953881 0)
(-0.188999 -0.0189936 0)
(-0.186445 -0.0289585 0)
(-0.183509 -0.0396262 0)
(-0.18024 -0.0512024 0)
(-0.176648 -0.0638507 0)
(-0.172712 -0.0776286 0)
(-0.168301 -0.0923428 0)
(-0.163078 -0.10739 0)
(-0.156361 -0.121504 0)
(-0.147006 -0.132842 0)
(-0.133525 -0.138736 0)
(-0.112773 -0.131846 0)
(-0.0820885 -0.104745 0)
(-0.0381112 -0.0510397 0)
(-0.00484429 -0.00150838 0)
(0.00164733 0.0125835 0)
(-0.00393744 -0.0238347 0)
(-0.0129279 -0.00678203 0)
(-0.0253132 0.0145533 0)
(-0.0408876 0.0364262 0)
(-0.0603204 0.0583088 0)
(-0.0827248 0.0793794 0)
(-0.106096 0.0979167 0)
(-0.12734 0.111223 0)
(-0.143464 0.117167 0)
(-0.154593 0.116701 0)
(-0.162765 0.112521 0)
(-0.16858 0.1057 0)
(-0.172506 0.0970942 0)
(-0.175134 0.0874548 0)
(-0.176717 0.0772038 0)
(-0.177553 0.0667368 0)
(-0.177911 0.0562978 0)
(-0.177914 0.0460553 0)
(-0.177656 0.0360902 0)
(-0.17712 0.0263781 0)
(-0.176281 0.016878 0)
(-0.175159 0.0074876 0)
(-0.173732 -0.00188428 0)
(-0.171988 -0.0113606 0)
(-0.169937 -0.021118 0)
(-0.167634 -0.0313159 0)
(-0.165141 -0.0421338 0)
(-0.162537 -0.0537577 0)
(-0.159899 -0.0663726 0)
(-0.157285 -0.0801253 0)
(-0.154686 -0.0950495 0)
(-0.151935 -0.110906 0)
(-0.148498 -0.126946 0)
(-0.143267 -0.141492 0)
(-0.134504 -0.151773 0)
(-0.120152 -0.153722 0)
(-0.0976535 -0.139438 0)
(-0.0633602 -0.0982177 0)
(-0.0145126 -0.0234097 0)
(0.0027343 0.0114457 0)
(-0.00694507 -0.0139872 0)
(-0.0193802 0.00688829 0)
(-0.0346179 0.0306279 0)
(-0.0531047 0.0555251 0)
(-0.0738691 0.0797357 0)
(-0.0955696 0.101305 0)
(-0.115936 0.117886 0)
(-0.132033 0.127006 0)
(-0.142808 0.128305 0)
(-0.150232 0.124756 0)
(-0.155424 0.118196 0)
(-0.158686 0.109474 0)
(-0.160605 0.0994872 0)
(-0.161578 0.088805 0)
(-0.161892 0.0778261 0)
(-0.161825 0.0668774 0)
(-0.161523 0.0561243 0)
(-0.16105 0.0456602 0)
(-0.160419 0.0354907 0)
(-0.15961 0.0255673 0)
(-0.158606 0.0158282 0)
(-0.157384 0.00618365 0)
(-0.155926 -0.00345434 0)
(-0.154218 -0.0132005 0)
(-0.152276 -0.0231912 0)
(-0.150142 -0.0335678 0)
(-0.147888 -0.0444867 0)
(-0.14561 -0.0561169 0)
(-0.143422 -0.0686376 0)
(-0.14143 -0.0822157 0)
(-0.139694 -0.096957 0)
(-0.138149 -0.112812 0)
(-0.136454 -0.129404 0)
(-0.133747 -0.145775 0)
(-0.128516 -0.159874 0)
(-0.11877 -0.167891 0)
(-0.102453 -0.16369 0)
(-0.0766644 -0.136792 0)
(-0.0332454 -0.0669071 0)
(0.000699382 0.000762847 0)
(-0.00867317 -0.000270947 0)
(-0.024057 0.0237536 0)
(-0.0412397 0.0489505 0)
(-0.0610008 0.0753827 0)
(-0.081587 0.100161 0)
(-0.101393 0.120519 0)
(-0.118085 0.133752 0)
(-0.129294 0.138044 0)
(-0.136583 0.135883 0)
(-0.1415 0.129932 0)
(-0.144558 0.121456 0)
(-0.146155 0.111325 0)
(-0.146832 0.100352 0)
(-0.146889 0.0890022 0)
(-0.146599 0.0776323 0)
(-0.146142 0.0664609 0)
(-0.145586 0.0555745 0)
(-0.144959 0.0450007 0)
(-0.144245 0.0347062 0)
(-0.143416 0.0246353 0)
(-0.142437 0.0147206 0)
(-0.141271 0.00487236 0)
(-0.139891 -0.00498994 0)
(-0.13828 -0.0149631 0)
(-0.136447 -0.0251541 0)
(-0.134425 -0.0356732 0)
(-0.132279 -0.0466467 0)
(-0.130107 -0.0582179 0)
(-0.128036 -0.0705564 0)
(-0.126207 -0.0838542 0)
(-0.124739 -0.0982992 0)
(-0.12366 -0.113999 0)
(-0.122787 -0.130845 0)
(-0.121513 -0.148283 0)
(-0.118542 -0.164895 0)
(-0.112037 -0.177629 0)
(-0.100261 -0.180725 0)
(-0.081015 -0.165648 0)
(-0.0506265 -0.11468 0)
(-0.0066363 -0.0147376 0)
(-0.0097108 0.0157705 0)
(-0.0267359 0.0422096 0)
(-0.0447228 0.068091 0)
(-0.0646753 0.0948776 0)
(-0.0841528 0.119022 0)
(-0.101628 0.136919 0)
(-0.113841 0.145341 0)
(-0.121937 0.145851 0)
(-0.126961 0.141009 0)
(-0.13016 0.133114 0)
(-0.131833 0.123152 0)
(-0.132462 0.112017 0)
(-0.132488 0.100399 0)
(-0.132149 0.0886798 0)
(-0.131664 0.077135 0)
(-0.131125 0.0658832 0)
(-0.130568 0.0549528 0)
(-0.129988 0.0443269 0)
(-0.129355 0.0339519 0)
(-0.12863 0.0237629 0)
(-0.12777 0.0136894 0)
(-0.126736 0.00365023 0)
(-0.125494 -0.0064318 0)
(-0.124026 -0.016633 0)
(-0.122332 -0.0270391 0)
(-0.120433 -0.0377325 0)
(-0.118376 -0.048806 0)
(-0.116243 -0.0603672 0)
(-0.114149 -0.0725527 0)
(-0.112238 -0.0855412 0)
(-0.110661 -0.0995562 0)
(-0.109518 -0.114834 0)
(-0.108777 -0.131524 0)
(-0.10809 -0.149493 0)
(-0.10644 -0.16793 0)
(-0.101992 -0.184401 0)
(-0.0931912 -0.193338 0)
(-0.0782625 -0.187389 0)
(-0.0551443 -0.150587 0)
(-0.0159589 -0.0419427 0)
(-0.0101595 0.0329641 0)
(-0.0276526 0.0613624 0)
(-0.0454178 0.0871381 0)
(-0.0646631 0.113389 0)
(-0.0826131 0.135837 0)
(-0.0968068 0.149793 0)
(-0.105708 0.154039 0)
(-0.111932 0.15151 0)
(-0.115375 0.144496 0)
(-0.117492 0.135031 0)
(-0.118349 0.123948 0)
(-0.118511 0.112123 0)
(-0.118284 0.100112 0)
(-0.11787 0.0882153 0)
(-0.117418 0.076615 0)
(-0.116969 0.0653553 0)
(-0.116534 0.0544225 0)
(-0.11609 0.043769 0)
(-0.115599 0.0333284 0)
(-0.115018 0.0230302 0)
(-0.114304 0.0128046 0)
(-0.113422 0.0025798 0)
(-0.112339 -0.0077159 0)
(-0.111038 -0.0181445 0)
(-0.109511 -0.028774 0)
(-0.107767 -0.0396674 0)
(-0.105836 -0.0508903 0)
(-0.103774 -0.0625187 0)
(-0.101669 -0.0746542 0)
(-0.0996464 -0.0874463 0)
(-0.0978552 -0.101117 0)
(-0.0964349 -0.115965 0)
(-0.0954492 -0.132315 0)
(-0.0947658 -0.150349 0)
(-0.0937191 -0.169834 0)
(-0.090601 -0.18935 0)
(-0.0838573 -0.203101 0)
(-0.0717192 -0.204649 0)
(-0.0515599 -0.180557 0)
(-0.0194242 -0.0926726 0)
(-0.0099041 0.0500759 0)
(-0.0269597 0.0801667 0)
(-0.0438298 0.105273 0)
(-0.0617125 0.130255 0)
(-0.0778219 0.150358 0)
(-0.0885264 0.1598 0)
(-0.0957981 0.160859 0)
(-0.100385 0.155707 0)
(-0.102875 0.146943 0)
(-0.10433 0.136217 0)
(-0.104782 0.124305 0)
(-0.104792 0.112018 0)
(-0.104553 0.0997801 0)
(-0.104233 0.0878122 0)
(-0.103919 0.0762132 0)
(-0.103628 0.064973 0)
(-0.103352 0.0540461 0)
(-0.103058 0.0433646 0)
(-0.10271 0.0328557 0)
(-0.102266 0.0224477 0)
(-0.101692 0.0120737 0)
(-0.100954 0.00166978 0)
(-0.100031 -0.00882855 0)
(-0.0989045 -0.0194764 0)
(-0.0975617 -0.0303284 0)
(-0.0960042 -0.0414349 0)
(-0.0942425 -0.0528422 0)
(-0.0923079 -0.0645999 0)
(-0.0902575 -0.0767755 0)
(-0.088184 -0.0894813 0)
(-0.0862164 -0.102914 0)
(-0.0845035 -0.117392 0)
(-0.083166 -0.133351 0)
(-0.0822052 -0.151216 0)
(-0.0812909 -0.171156 0)
(-0.0791093 -0.19256 0)
(-0.0733441 -0.211483 0)
(-0.0637627 -0.218182 0)
(-0.0463788 -0.203697 0)
(-0.0164192 -0.127126 0)
(-0.00914982 0.0664912 0)
(-0.0250516 0.0980242 0)
(-0.0405539 0.122106 0)
(-0.0569227 0.14549 0)
(-0.0704315 0.162141 0)
(-0.0786532 0.167904 0)
(-0.0847442 0.166218 0)
(-0.0881714 0.158936 0)
(-0.0901109 0.148753 0)
(-0.0911878 0.137027 0)
(-0.0914995 0.124512 0)
(-0.0915315 0.111915 0)
(-0.0913993 0.0995492 0)
(-0.091239 0.0875604 0)
(-0.0910937 0.0759791 0)
(-0.0909646 0.0647565 0)
(-0.0908345 0.0538238 0)
(-0.0906709 0.0431021 0)
(-0.0904406 0.0325163 0)
(-0.0901126 0.0219971 0)
(-0.0896585 0.0114818 0)
(-0.0890544 0.000911563 0)
(-0.0882846 -0.00977192 0)
(-0.0873327 -0.0206208 0)
(-0.0861858 -0.0316829 0)
(-0.0848374 -0.0430017 0)
(-0.0832849 -0.0546121 0)
(-0.0815379 -0.0665464 0)
(-0.0796242 -0.0788448 0)
(-0.0776014 -0.0915826 0)
(-0.0755661 -0.104916 0)
(-0.0736532 -0.119148 0)
(-0.0720073 -0.134767 0)
(-0.0707095 -0.152396 0)
(-0.0696343 -0.172524 0)
(-0.0679054 -0.195125 0)
(-0.0630494 -0.218319 0)
(-0.0553708 -0.229931 0)
(-0.0405853 -0.224675 0)
(-0.0146007 -0.161135 0)
(-0.00799277 0.0814171 0)
(-0.0223542 0.114366 0)
(-0.036164 0.13723 0)
(-0.0507545 0.158679 0)
(-0.0614883 0.17159 0)
(-0.0680931 0.174612 0)
(-0.0732309 0.17053 0)
(-0.075842 0.161525 0)
(-0.0774701 0.15019 0)
(-0.0783484 0.137681 0)
(-0.0786659 0.124725 0)
(-0.0787968 0.111916 0)
(-0.0788126 0.0994733 0)
(-0.0788163 0.0874777 0)
(-0.0788239 0.0759069 0)
(-0.0788298 0.064685 0)
(-0.078814 0.0537281 0)
(-0.0787494 0.0429523 0)
(-0.0786107 0.0322837 0)
(-0.078376 0.0216565 0)
(-0.0780262 0.0110118 0)
(-0.0775451 0.00029434 0)
(-0.0769221 -0.0105511 0)
(-0.0761443 -0.0215756 0)
(-0.0751988 -0.0328254 0)
(-0.0740745 -0.0443416 0)
(-0.0727595 -0.0561548 0)
(-0.0712466 -0.0682869 0)
(-0.06954 -0.0807588 0)
(-0.0676665 -0.0936137 0)
(-0.0656893 -0.106965 0)
(-0.0637182 -0.121073 0)
(-0.0618996 -0.136431 0)
(-0.0603626 -0.153785 0)
(-0.0590976 -0.17391 0)
(-0.0576303 -0.197262 0)
(-0.0540015 -0.222931 0)
(-0.0466682 -0.240431 0)
(-0.0353663 -0.240662 0)
(-0.0120032 -0.186898 0)
(-0.00673461 0.0945975 0)
(-0.0191277 0.128825 0)
(-0.0310395 0.150346 0)
(-0.0435877 0.169657 0)
(-0.0518486 0.179316 0)
(-0.0576117 0.18019 0)
(-0.061641 0.174054 0)
(-0.0637337 0.163675 0)
(-0.0651586 0.151413 0)
(-0.0659427 0.138298 0)
(-0.066326 0.125015 0)
(-0.0665723 0.112051 0)
(-0.0667291 0.0995513 0)
(-0.0668694 0.087543 0)
(-0.0669953 0.0759649 0)
(-0.0670994 0.0647234 0)
(-0.0671642 0.0537254 0)
(-0.0671706 0.0428865 0)
(-0.067102 0.0321349 0)
(-0.0669451 0.0214084 0)
(-0.0666888 0.010651 0)
(-0.0663239 -0.000190765 0)
(-0.0658437 -0.0111708 0)
(-0.0652385 -0.022341 0)
(-0.0644973 -0.0337499 0)
(-0.0636064 -0.0454401 0)
(-0.062548 -0.0574429 0)
(-0.0613037 -0.0697763 0)
(-0.0598596 -0.0824488 0)
(-0.0582177 -0.0954781 0)
(-0.056412 -0.108936 0)
(-0.0545241 -0.123031 0)
(-0.0526884 -0.138224 0)
(-0.0510581 -0.155325 0)
(-0.049692 -0.175364 0)
(-0.0483422 -0.199159 0)
(-0.0456011 -0.226587 0)
(-0.0390667 -0.249943 0)
(-0.0308568 -0.255376 0)
(-0.0105393 -0.211047 0)
(-0.005186 0.105359 0)
(-0.0155644 0.141101 0)
(-0.0255532 0.161458 0)
(-0.0359377 0.178541 0)
(-0.0422189 0.185635 0)
(-0.0471382 0.184705 0)
(-0.0502531 0.176957 0)
(-0.0519961 0.165503 0)
(-0.0532631 0.152509 0)
(-0.0540034 0.138926 0)
(-0.0544591 0.125395 0)
(-0.0548036 0.112307 0)
(-0.0550704 0.0997537 0)
(-0.0553078 0.0877188 0)
(-0.0555129 0.0761147 0)
(-0.05568 0.0648365 0)
(-0.0557972 0.0537869 0)
(-0.0558536 0.0428825 0)
(-0.0558405 0.0320541 0)
(-0.055752 0.0212421 0)
(-0.0555835 0.0103922 0)
(-0.0553309 -0.00054844 0)
(-0.054991 -0.0116334 0)
(-0.0545577 -0.0229174 0)
(-0.0540216 -0.0344527 0)
(-0.053369 -0.0462865 0)
(-0.0525796 -0.0584547 0)
(-0.0516279 -0.0709767 0)
(-0.0504877 -0.0838548 0)
(-0.0491422 -0.0970873 0)
(-0.0476009 -0.110708 0)
(-0.0459198 -0.12487 0)
(-0.044218 -0.139982 0)
(-0.0426657 -0.156861 0)
(-0.0413841 -0.176722 0)
(-0.040219 -0.200696 0)
(-0.038197 -0.229094 0)
(-0.0331748 -0.257138 0)
(-0.0259918 -0.267298 0)
(-0.00887443 -0.230016 0)
(-0.00381431 0.11401 0)
(-0.0118758 0.151208 0)
(-0.0199735 0.170582 0)
(-0.0281492 0.185495 0)
(-0.0327733 0.19067 0)
(-0.0368487 0.188309 0)
(-0.039208 0.179339 0)
(-0.0406743 0.167068 0)
(-0.0417961 0.15351 0)
(-0.0425058 0.139571 0)
(-0.0430122 0.125846 0)
(-0.0434223 0.112652 0)
(-0.0437591 0.100041 0)
(-0.0440532 0.0879649 0)
(-0.0443018 0.0763201 0)
(-0.0445028 0.064995 0)
(-0.0446508 0.0538906 0)
(-0.0447424 0.0429253 0)
(-0.0447757 0.0320316 0)
(-0.0447507 0.0211517 0)
(-0.0446674 0.0102321 0)
(-0.0445258 -0.000780341 0)
(-0.0443255 -0.0119404 0)
(-0.0440633 -0.0233054 0)
(-0.0437323 -0.0349326 0)
(-0.0433203 -0.0468754 0)
(-0.0428071 -0.0591769 0)
(-0.0421645 -0.0718622 0)
(-0.041359 -0.0849331 0)
(-0.0403603 -0.0983742 0)
(-0.0391584 -0.112187 0)
(-0.0377855 -0.126468 0)
(-0.0363402 -0.141559 0)
(-0.0349922 -0.15825 0)
(-0.033904 -0.177885 0)
(-0.0329984 -0.20193 0)
(-0.0315957 -0.231155 0)
(-0.0278623 -0.262928 0)
(-0.0226815 -0.277973 0)
(-0.00775043 -0.247686 0)
(-0.00207934 0.119875 0)
(-0.00812101 0.15898 0)
(-0.0143124 0.177631 0)
(-0.0204063 0.190717 0)
(-0.0236302 0.194523 0)
(-0.0268372 0.191099 0)
(-0.028549 0.181268 0)
(-0.0297547 0.168402 0)
(-0.0307264 0.154423 0)
(-0.0313948 0.140217 0)
(-0.0319184 0.126337 0)
(-0.0323572 0.113047 0)
(-0.0327246 0.100373 0)
(-0.0330395 0.0882452 0)
(-0.0333018 0.0765512 0)
(-0.0335136 0.065176 0)
(-0.0336762 0.0540208 0)
(-0.0337926 0.0430047 0)
(-0.0338665 0.0320618 0)
(-0.0339022 0.0211347 0)
(-0.0339033 0.0101697 0)
(-0.0338728 -0.000887142 0)
(-0.0338124 -0.0120921 0)
(-0.0337216 -0.0235054 0)
(-0.0335958 -0.0351893 0)
(-0.0334253 -0.0472037 0)
(-0.0331925 -0.0596006 0)
(-0.0328696 -0.0724139 0)
(-0.0324204 -0.0856497 0)
(-0.0318067 -0.0992852 0)
(-0.0310041 -0.113295 0)
(-0.0300257 -0.127724 0)
(-0.0289508 -0.142839 0)
(-0.0279393 -0.159365 0)
(-0.0271721 -0.178707 0)
(-0.0266402 -0.202681 0)
(-0.0259126 -0.232619 0)
(-0.0234435 -0.266635 0)
(-0.0194492 -0.286415 0)
(-0.00656501 -0.262019 0)
(-0.000874719 0.123747 0)
(-0.00443079 0.164539 0)
(-0.00869733 0.18266 0)
(-0.0128004 0.194336 0)
(-0.0148587 0.197331 0)
(-0.0171117 0.193122 0)
(-0.0182541 0.182752 0)
(-0.0191917 0.1695 0)
(-0.0199984 0.155231 0)
(-0.0206021 0.140834 0)
(-0.021107 0.126832 0)
(-0.0215388 0.113454 0)
(-0.0219019 0.100713 0)
(-0.0222079 0.0885293 0)
(-0.0224599 0.0767841 0)
(-0.0226647 0.0653624 0)
(-0.0228295 0.0541656 0)
(-0.0229626 0.0431138 0)
(-0.0230725 0.032141 0)
(-0.0231667 0.0211896 0)
(-0.0232518 0.0102049 0)
(-0.0233329 -0.000868342 0)
(-0.0234134 -0.0120882 0)
(-0.0234948 -0.0235173 0)
(-0.0235753 -0.0352223 0)
(-0.0236479 -0.0472699 0)
(-0.0236983 -0.0597208 0)
(-0.0237021 -0.0726197 0)
(-0.0236242 -0.0859804 0)
(-0.0234232 -0.0997789 0)
(-0.0230652 -0.113969 0)
(-0.0225466 -0.128548 0)
(-0.0219269 -0.143709 0)
(-0.0213496 -0.160098 0)
(-0.0210046 -0.179126 0)
(-0.020954 -0.202905 0)
(-0.0209451 -0.233313 0)
(-0.0196217 -0.269442 0)
(-0.0171286 -0.293748 0)
(-0.0057046 -0.275381 0)
(0.00103558 0.124697 0)
(-0.000744674 0.167851 0)
(-0.00311244 0.185739 0)
(-0.00539464 0.196511 0)
(-0.0063727 0.199051 0)
(-0.00766807 0.194422 0)
(-0.00827589 0.183818 0)
(-0.00892286 0.17036 0)
(-0.00954398 0.155916 0)
(-0.0100543 0.141392 0)
(-0.0105067 0.127297 0)
(-0.0109006 0.113841 0)
(-0.0112311 0.101034 0)
(-0.0115044 0.0887929 0)
(-0.0117269 0.0769997 0)
(-0.01191 0.0655399 0)
(-0.0120662 0.0543155 0)
(-0.0122087 0.0432463 0)
(-0.0123496 0.0322658 0)
(-0.0124997 0.021315 0)
(-0.0126677 0.0103379 0)
(-0.0128607 -0.000722821 0)
(-0.0130833 -0.0119269 0)
(-0.013339 -0.0233394 0)
(-0.0136276 -0.0350307 0)
(-0.0139452 -0.0470728 0)
(-0.0142815 -0.0595345 0)
(-0.0146175 -0.0724715 0)
(-0.014922 -0.0859087 0)
(-0.0151547 -0.0998254 0)
(-0.0152772 -0.114162 0)
(-0.0152725 -0.128877 0)
(-0.0151811 -0.144087 0)
(-0.0151263 -0.160348 0)
(-0.0152972 -0.179043 0)
(-0.015822 -0.202523 0)
(-0.0165527 -0.23316 0)
(-0.0162577 -0.270778 0)
(-0.0149852 -0.299336 0)
(-0.0048259 -0.286445 0)
(0.00225206 0.123381 0)
(0.00279231 0.168962 0)
(0.00234878 0.18699 0)
(0.00177425 0.197353 0)
(0.00188099 0.199772 0)
(0.00155906 0.194989 0)
(0.00145969 0.184401 0)
(0.00112107 0.170938 0)
(0.000709867 0.156442 0)
(0.000321274 0.141859 0)
(-5.00959e-05 0.127701 0)
(-0.00037967 0.114179 0)
(-0.000653296 0.10131 0)
(-0.000874253 0.0890162 0)
(-0.00105158 0.0771826 0)
(-0.00120057 0.0656969 0)
(-0.00133858 0.0544617 0)
(-0.00148291 0.0433962 0)
(-0.00164932 0.0324321 0)
(-0.00185124 0.0215087 0)
(-0.00209982 0.0105677 0)
(-0.00240367 -0.000449881 0)
(-0.0027694 -0.011606 0)
(-0.00320137 -0.0229682 0)
(-0.00370114 -0.0346097 0)
(-0.00426714 -0.0466073 0)
(-0.00489359 -0.0590371 0)
(-0.00556631 -0.0719641 0)
(-0.00626 -0.0854235 0)
(-0.00694232 -0.0994025 0)
(-0.00757325 -0.113837 0)
(-0.00812481 -0.128651 0)
(-0.00861994 -0.143896 0)
(-0.00915984 -0.160034 0)
(-0.00992536 -0.178394 0)
(-0.0111003 -0.201493 0)
(-0.012635 -0.232235 0)
(-0.0133011 -0.271241 0)
(-0.0133866 -0.303986 0)
(-0.00415008 -0.296793 0)
(0.00356068 0.119939 0)
(0.00630756 0.167963 0)
(0.00769164 0.186584 0)
(0.00872064 0.196869 0)
(0.00996579 0.19933 0)
(0.010558 0.19491 0)
(0.0109928 0.184568 0)
(0.0110072 0.171234 0)
(0.0108326 0.156791 0)
(0.0105935 0.142208 0)
(0.0103303 0.128018 0)
(0.0100876 0.114446 0)
(0.00988911 0.101524 0)
(0.00973585 0.0891837 0)
(0.00961701 0.0773195 0)
(0.00951359 0.0658223 0)
(0.00940392 0.0545953 0)
(0.0092666 0.0435562 0)
(0.00908232 0.0326345 0)
(0.00883471 0.0217667 0)
(0.00851032 0.0108923 0)
(0.0080985 -5.05405e-05 0)
(0.00759104 -0.0111256 0)
(0.00698244 -0.0224027 0)
(0.00626923 -0.0339572 0)
(0.00544985 -0.0458694 0)
(0.00452743 -0.0582211 0)
(0.00351198 -0.0710858 0)
(0.00241968 -0.0845112 0)
(0.00127456 -0.0984934 0)
(0.000114257 -0.112963 0)
(-0.0010301 -0.127825 0)
(-0.00216459 -0.143077 0)
(-0.00336477 -0.159082 0)
(-0.00479513 -0.177092 0)
(-0.00667449 -0.19974 0)
(-0.00906042 -0.230432 0)
(-0.0105656 -0.270475 0)
(-0.0119381 -0.307263 0)
(-0.00344632 -0.305486 0)
(0.00500212 0.113795 0)
(0.00983516 0.164834 0)
(0.0129415 0.184527 0)
(0.0154614 0.195084 0)
(0.0178401 0.19787 0)
(0.0193646 0.194079 0)
(0.0203891 0.184275 0)
(0.0207888 0.171215 0)
(0.0208793 0.156934 0)
(0.0208205 0.142416 0)
(0.0206917 0.128228 0)
(0.0205569 0.114622 0)
(0.0204511 0.101657 0)
(0.0203804 0.0892807 0)
(0.0203333 0.0773983 0)
(0.0202875 0.0659055 0)
(0.0202175 0.0547064 0)
(0.0200977 0.0437172 0)
(0.0199051 0.0328647 0)
(0.0196203 0.0220823 0)
(0.0192274 0.0113063 0)
(0.0187131 0.000472357 0)
(0.0180675 -0.0104863 0)
(0.0172835 -0.0216415 0)
(0.0163553 -0.033071 0)
(0.0152794 -0.0448575 0)
(0.0140564 -0.0570859 0)
(0.0126895 -0.0698344 0)
(0.0111856 -0.083161 0)
(0.00956624 -0.0970753 0)
(0.00785797 -0.111512 0)
(0.00608762 -0.126363 0)
(0.00426549 -0.141578 0)
(0.00234498 -0.157429 0)
(0.000182661 -0.175074 0)
(-0.00246792 -0.197227 0)
(-0.00578775 -0.227823 0)
(-0.00804738 -0.268807 0)
(-0.0108146 -0.309721 0)
(-0.00284417 -0.313621 0)
(0.00641669 0.105396 0)
(0.0133122 0.159658 0)
(0.0180984 0.180903 0)
(0.0220259 0.192057 0)
(0.0256427 0.1953 0)
(0.0278662 0.192445 0)
(0.0296157 0.183554 0)
(0.0304794 0.170866 0)
(0.0308813 0.156839 0)
(0.0310434 0.142452 0)
(0.0310811 0.128303 0)
(0.0310811 0.114688 0)
(0.0310898 0.101693 0)
(0.0311189 0.0892934 0)
(0.0311578 0.077406 0)
(0.0311826 0.0659339 0)
(0.0311645 0.054783 0)
(0.0310741 0.043868 0)
(0.0308846 0.0331125 0)
(0.0305731 0.0224464 0)
(0.0301206 0.0118024 0)
(0.0295114 0.00111328 0)
(0.028733 -0.00969107 0)
(0.0277765 -0.0206844 0)
(0.026634 -0.0319461 0)
(0.0252997 -0.0435616 0)
(0.0237695 -0.0556186 0)
(0.0220411 -0.0682002 0)
(0.020118 -0.0813679 0)
(0.0180095 -0.095138 0)
(0.0157272 -0.109458 0)
(0.0133006 -0.124222 0)
(0.0107465 -0.139345 0)
(0.00805193 -0.155013 0)
(0.00509576 -0.17227 0)
(0.00161312 -0.193878 0)
(-0.00271865 -0.224307 0)
(-0.00563999 -0.266175 0)
(-0.0100003 -0.310789 0)
(-0.00197172 -0.320602 0)
(0.00773597 0.0946924 0)
(0.0166808 0.152423 0)
(0.023118 0.175727 0)
(0.0283804 0.187801 0)
(0.033042 0.191969 0)
(0.0362446 0.189847 0)
(0.038663 0.182186 0)
(0.04009 0.170112 0)
(0.0408586 0.156454 0)
(0.0412897 0.142271 0)
(0.0415378 0.128212 0)
(0.0417075 0.114617 0)
(0.0418581 0.101614 0)
(0.0420089 0.0892048 0)
(0.0421521 0.0773276 0)
(0.0422637 0.065894 0)
(0.0423124 0.0548124 0)
(0.0422656 0.0439965 0)
(0.0420928 0.0333667 0)
(0.0417673 0.0228488 0)
(0.0412667 0.0123718 0)
(0.0405724 0.00186505 0)
(0.0396687 -0.00874495 0)
(0.0385445 -0.0195343 0)
(0.0371892 -0.0305835 0)
(0.0355938 -0.0419796 0)
(0.0337512 -0.053811 0)
(0.0316548 -0.0661632 0)
(0.0292983 -0.0791042 0)
(0.0266766 -0.0926588 0)
(0.0237975 -0.106781 0)
(0.0206819 -0.121368 0)
(0.0173477 -0.136325 0)
(0.0138229 -0.151773 0)
(0.0100142 -0.16863 0)
(0.00562666 -0.189665 0)
(0.000203981 -0.219905 0)
(-0.00330912 -0.262731 0)
(-0.00922602 -0.311006 0)
(-0.00125122 -0.327201 0)
(0.00889552 0.0818032 0)
(0.0198305 0.143236 0)
(0.0278902 0.169087 0)
(0.0344344 0.182395 0)
(0.0400475 0.18765 0)
(0.0443515 0.186443 0)
(0.0474404 0.180082 0)
(0.0495572 0.168882 0)
(0.0507906 0.155722 0)
(0.0515632 0.141825 0)
(0.0520817 0.12791 0)
(0.0524707 0.114373 0)
(0.052803 0.101389 0)
(0.0531072 0.0889926 0)
(0.0533805 0.0771446 0)
(0.0536005 0.0657691 0)
(0.0537351 0.054779 0)
(0.0537492 0.0440877 0)
(0.0536092 0.0336127 0)
(0.0532849 0.023276 0)
(0.05275 0.0130025 0)
(0.0519827 0.00271775 0)
(0.0509641 -0.00765529 0)
(0.0496794 -0.018195 0)
(0.0481151 -0.0289833 0)
(0.0462586 -0.0401082 0)
(0.0440981 -0.0516587 0)
(0.0416209 -0.0637196 0)
(0.0388127 -0.076358 0)
(0.0356597 -0.0896064 0)
(0.0321537 -0.103436 0)
(0.0283053 -0.117758 0)
(0.0241424 -0.132472 0)
(0.0197271 -0.147643 0)
(0.0149933 -0.164076 0)
(0.00962243 -0.184529 0)
(0.00306682 -0.214547 0)
(-0.000960061 -0.258338 0)
(-0.00859026 -0.309971 0)
(-0.000311454 -0.332972 0)
(0.00971166 0.0667621 0)
(0.0225944 0.132027 0)
(0.0321898 0.160931 0)
(0.0399994 0.175838 0)
(0.0466056 0.182295 0)
(0.0519017 0.182295 0)
(0.0558825 0.177087 0)
(0.0587668 0.167035 0)
(0.0606027 0.154543 0)
(0.0618274 0.141033 0)
(0.0627045 0.127332 0)
(0.0633866 0.113905 0)
(0.0639604 0.100977 0)
(0.0644656 0.0886234 0)
(0.0649067 0.0768301 0)
(0.0652655 0.0655366 0)
(0.0655114 0.0546629 0)
(0.0656086 0.0441235 0)
(0.0655211 0.0338341 0)
(0.0652158 0.0237128 0)
(0.0646627 0.0136806 0)
(0.0638368 0.00365946 0)
(0.0627154 -0.00643168 0)
(0.0612793 -0.0166729 0)
(0.0595114 -0.0271473 0)
(0.0573943 -0.0379436 0)
(0.0549104 -0.0491498 0)
(0.0520404 -0.0608489 0)
(0.0487608 -0.0731074 0)
(0.045046 -0.0859617 0)
(0.0408745 -0.0993933 0)
(0.0362526 -0.113339 0)
(0.0312026 -0.127717 0)
(0.0258247 -0.142556 0)
(0.0200715 -0.158532 0)
(0.0136298 -0.178382 0)
(0.00590863 -0.208172 0)
(0.00141867 -0.253098 0)
(-0.00825801 -0.308212 0)
(0.000586576 -0.338522 0)
(0.00990338 0.0500903 0)
(0.0246077 0.119016 0)
(0.0357304 0.151323 0)
(0.0448338 0.16815 0)
(0.0524848 0.175898 0)
(0.0587784 0.177163 0)
(0.063763 0.173206 0)
(0.0675431 0.164426 0)
(0.0701553 0.152779 0)
(0.0719924 0.139783 0)
(0.0733601 0.126387 0)
(0.0744423 0.113136 0)
(0.075345 0.100318 0)
(0.0761212 0.0880491 0)
(0.0767858 0.0763454 0)
(0.0773279 0.0651652 0)
(0.0777208 0.054438 0)
(0.0779303 0.0440816 0)
(0.07792 0.0340109 0)
(0.0776554 0.0241412 0)
(0.0771026 0.0143905 0)
(0.0762343 0.00467661 0)
(0.0750234 -0.0050849 0)
(0.0734457 -0.0149751 0)
(0.0714795 -0.0250782 0)
(0.0691017 -0.0354826 0)
(0.0662871 -0.0462739 0)
(0.063008 -0.0575323 0)
(0.0592312 -0.069321 0)
(0.0549197 -0.0816799 0)
(0.0500394 -0.0946046 0)
(0.0445901 -0.108061 0)
(0.0385929 -0.121991 0)
(0.0321741 -0.136427 0)
(0.0253137 -0.151912 0)
(0.0177253 -0.171117 0)
(0.00875986 -0.200616 0)
(0.00385063 -0.246749 0)
(-0.0081012 -0.305499 0)
(0.00175002 -0.343441 0)
(0.00853759 0.0322078 0)
(0.0253846 0.103999 0)
(0.0380792 0.140016 0)
(0.0485918 0.159243 0)
(0.0573936 0.168487 0)
(0.0647311 0.170978 0)
(0.070806 0.168299 0)
(0.0756436 0.160861 0)
(0.0792354 0.150229 0)
(0.0818962 0.137905 0)
(0.0839388 0.124934 0)
(0.0855749 0.111955 0)
(0.0869326 0.0993205 0)
(0.088082 0.0871968 0)
(0.0890518 0.0756332 0)
(0.0898417 0.0646096 0)
(0.0904325 0.0540682 0)
(0.0907949 0.0439326 0)
(0.0908943 0.0341189 0)
(0.0906968 0.0245406 0)
(0.0901664 0.0151146 0)
(0.0892735 0.00575464 0)
(0.0879868 -0.00362591 0)
(0.0862766 -0.0131082 0)
(0.0841161 -0.0227769 0)
(0.0814749 -0.0327192 0)
(0.0783191 -0.0430165 0)
(0.0746107 -0.0537456 0)
(0.0703057 -0.0649652 0)
(0.0653559 -0.0767192 0)
(0.0597163 -0.0890167 0)
(0.0533833 -0.101861 0)
(0.0463743 -0.115227 0)
(0.0388388 -0.129167 0)
(0.0307721 -0.144123 0)
(0.0219547 -0.162672 0)
(0.0116944 -0.19186 0)
(0.00630518 -0.239218 0)
(-0.00833168 -0.302122 0)
(0.00307548 -0.348006 0)
(0.00442402 0.0164223 0)
(0.0240144 0.0875088 0)
(0.0387758 0.126975 0)
(0.0509071 0.148957 0)
(0.0609963 0.159994 0)
(0.0694478 0.163692 0)
(0.0766851 0.162218 0)
(0.0827557 0.15614 0)
(0.0875613 0.146667 0)
(0.0913018 0.135185 0)
(0.0942579 0.12279 0)
(0.096654 0.110207 0)
(0.0986396 0.0978583 0)
(0.100304 0.0859647 0)
(0.101695 0.0746121 0)
(0.102824 0.0638057 0)
(0.103686 0.0535033 0)
(0.104257 0.0436368 0)
(0.104511 0.0341264 0)
(0.104415 0.0248859 0)
(0.103934 0.015833 0)
(0.103036 0.00687794 0)
(0.101688 -0.00206591 0)
(0.0998524 -0.0110773 0)
(0.0974985 -0.0202419 0)
(0.0945877 -0.0296441 0)
(0.0910756 -0.039359 0)
(0.0869126 -0.0494593 0)
(0.0820432 -0.0599991 0)
(0.0764094 -0.0710289 0)
(0.0699577 -0.0825722 0)
(0.0626832 -0.0946759 0)
(0.0545987 -0.107352 0)
(0.0458739 -0.120697 0)
(0.0365031 -0.135077 0)