/*--------------------------------*- C++ -*----------------------------------*\
  =========                 |
  \\      /  F ield         | OpenFOAM: The Open Source CFD Toolbox
   \\    /   O peration     | Website:  https://openfoam.org
    \\  /    A nd           | Version:  13
     \\/     M anipulation  |
\*---------------------------------------------------------------------------*/
FoamFile
{
    format      ascii;
    class       volScalarField;
    location    "5.8";
    object      epsilon;
}
// * * * * * * * * * * * * * * * * * * * * * * * * * * * * * * * * * * * * * //

dimensions      [0 2 -3 0 0 0 0];

internalField   nonuniform List<scalar> 
6400
(
2.50541e-05
0.000128639
0.000311646
0.000503072
0.000648824
0.000731623
0.000762377
0.000765666
0.000769742
0.00079729
0.000865281
0.0010004
0.00121619
0.00151769
0.00189094
0.00231586
0.00277145
0.0032475
0.00372444
0.0041875
0.00464879
0.00514535
0.00572875
0.00643789
0.00725542
0.00810203
0.00894094
0.00977216
0.0106179
0.0115006
0.0124153
0.0133243
0.0142183
0.0150907
0.0159686
0.0168563
0.0177748
0.0187306
0.0197369
0.0207984
0.0219225
0.0231175
0.0243908
0.0257581
0.0272271
0.0288376
0.0306656
0.0328751
0.035386
0.0378077
0.040289
0.04267
0.0449571
0.0470448
0.0488788
0.0503621
0.0512581
0.0516596
0.0517532
0.0509968
0.0494397
0.0471003
0.0440084
0.0402396
0.0359276
0.0312421
0.0264471
0.0217342
0.017288
0.0132611
0.010026
0.00730699
0.0051029
0.00341079
0.00219046
0.0013577
0.000814216
0.000464786
0.000218626
4.64224e-05
0.000121446
0.000120884
0.000197744
0.000287402
0.00035542
0.000397035
0.000417713
0.000427047
0.000437074
0.000460132
0.000509264
0.000603302
0.000757662
0.000984409
0.0012877
0.00166903
0.00213043
0.00267788
0.00331694
0.0040556
0.00490151
0.00588556
0.00705722
0.00844668
0.01005
0.0118789
0.0138119
0.0157002
0.0174419
0.0189462
0.0201016
0.0210017
0.0216265
0.0220558
0.0223329
0.0225101
0.0226306
0.0227269
0.0228252
0.0229433
0.0231031
0.0233137
0.0235867
0.0238901
0.0242409
0.0246618
0.0251728
0.0257529
0.026419
0.0271215
0.0278691
0.0286206
0.0293563
0.0300356
0.0306163
0.0309885
0.0311335
0.0311081
0.0307949
0.0301182
0.0290601
0.027625
0.0257834
0.0236071
0.0211733
0.0185798
0.0159447
0.013387
0.0109974
0.00885591
0.0070564
0.00551695
0.00419957
0.00308125
0.00215853
0.00141657
0.000863992
0.000484192
0.000250629
0.000245496
0.0002663
0.000220072
0.000294981
0.000372709
0.000420105
0.000444071
0.00045673
0.00047065
0.000499334
0.00055907
0.000672189
0.000864878
0.00116312
0.00158614
0.00214588
0.00285483
0.00372499
0.0047706
0.00600153
0.00742411
0.0090439
0.0108361
0.0127256
0.0145792
0.016228
0.0174562
0.0182027
0.0186303
0.0188447
0.0189821
0.0190803
0.0190531
0.0187773
0.0185001
0.0182059
0.0179429
0.0177253
0.01758
0.0175146
0.0174999
0.0175803
0.0177469
0.017995
0.01836
0.0188324
0.0194004
0.0200473
0.0207712
0.0215685
0.0224264
0.0233343
0.024273
0.0252209
0.0261468
0.0270123
0.0277708
0.0283787
0.0286955
0.0287804
0.0285527
0.0279045
0.0268177
0.0252472
0.0232997
0.0210476
0.0185909
0.0160524
0.0135459
0.0111804
0.00904198
0.00719152
0.00563331
0.00434639
0.00329244
0.00243352
0.00174401
0.00118381
0.000739997
0.000457904
0.000654226
0.000463411
0.000381048
0.000468153
0.000544384
0.00058403
0.000603932
0.000622708
0.00065945
0.000735031
0.000878427
0.00112651
0.00151931
0.00209088
0.00286277
0.0038458
0.00504469
0.00646114
0.0080784
0.0098487
0.011687
0.0134698
0.0150584
0.0163113
0.0170287
0.017339
0.0174217
0.0174222
0.0171185
0.0166246
0.0160648
0.0154215
0.0149149
0.0145135
0.0141855
0.0139285
0.0137605
0.0136816
0.0136595
0.0137192
0.0138665
0.0140922
0.0143975
0.0147825
0.0152498
0.0157958
0.0164209
0.017125
0.0179085
0.0187701
0.0197067
0.0207116
0.0217736
0.0228762
0.0239951
0.0250963
0.026136
0.0270569
0.0277942
0.0281898
0.0283102
0.0280532
0.0273559
0.026245
0.0245601
0.0224143
0.0199494
0.0172951
0.0145963
0.0120015
0.00963684
0.00758615
0.00588171
0.00451041
0.00342828
0.0025813
0.00191833
0.00138697
0.000956311
0.000682764
0.00108284
0.000744481
0.000606246
0.000694736
0.000769794
0.000811866
0.000843528
0.000890129
0.00098044
0.00114996
0.0014442
0.0019151
0.0026096
0.00355648
0.00476151
0.0062109
0.00787226
0.0096863
0.0115525
0.0133223
0.0148349
0.0158936
0.0163833
0.0165358
0.0165198
0.0161597
0.0155154
0.0146809
0.0138979
0.0132472
0.0126583
0.0121573
0.0117706
0.011465
0.0112376
0.0110878
0.0110164
0.0109933
0.011018
0.0111218
0.0112759
0.0114895
0.0117595
0.0120885
0.0124784
0.0129321
0.013454
0.0140487
0.0147213
0.0154766
0.0163192
0.0172513
0.0182724
0.0193766
0.0205528
0.0217819
0.0230361
0.0242653
0.0254105
0.0263986
0.0270703
0.0273456
0.0273243
0.0266912
0.0256442
0.023882
0.0215869
0.0189187
0.0160465
0.0131661
0.0104724
0.00811167
0.00616145
0.00462708
0.00346019
0.00258427
0.00192705
0.00142759
0.00104483
0.000829279
0.00137402
0.00114653
0.000904035
0.000979055
0.0010567
0.00111466
0.00117811
0.00128132
0.00146691
0.00178783
0.0023053
0.00307735
0.00414066
0.00549682
0.00710997
0.00890959
0.0107892
0.0126037
0.0141775
0.0152799
0.0157776
0.0159083
0.0158214
0.0153321
0.0144508
0.0134861
0.0126153
0.0118301
0.011162
0.0106029
0.0101301
0.00974877
0.00944649
0.00920794
0.00902812
0.00889957
0.00882089
0.00878454
0.00877507
0.00880842
0.00887905
0.00898515
0.00912897
0.00931066
0.00953471
0.00980461
0.0101272
0.0105093
0.010961
0.0114932
0.0121181
0.012849
0.0136987
0.0146771
0.01579
0.0170345
0.0183977
0.0198603
0.0213725
0.0228783
0.0242822
0.0254718
0.0261746
0.0264178
0.02612
0.0252951
0.0234869
0.0210491
0.0181333
0.014972
0.0118564
0.00903675
0.00668133
0.00485052
0.00350921
0.00255461
0.00188051
0.00139563
0.00104193
0.000886019
0.00147617
0.00170597
0.00128052
0.0013322
0.00142195
0.00151297
0.00163257
0.0018271
0.00215542
0.00268557
0.00348399
0.00459551
0.00602245
0.0077141
0.00956817
0.0114375
0.0131396
0.0144864
0.0151707
0.0153855
0.0153535
0.0148747
0.0139257
0.0128478
0.0118653
0.0109709
0.0102084
0.00955279
0.0090041
0.00854231
0.00815573
0.00783566
0.00756954
0.00734887
0.00716786
0.007021
0.0069047
0.00681488
0.00674957
0.00671564
0.00670206
0.00670133
0.00673507
0.00679022
0.00687634
0.00699248
0.00714561
0.00734025
0.00758485
0.00789004
0.00826922
0.0087388
0.00932075
0.0100405
0.0109242
0.0119925
0.0132622
0.0147536
0.0164479
0.0182959
0.0202407
0.0221779
0.0239631
0.0253368
0.0259714
0.0260748
0.0254765
0.0236732
0.0210173
0.0177135
0.0141547
0.0107258
0.00774812
0.00540467
0.00371493
0.00257864
0.00182326
0.00132556
0.00100521
0.000877956
0.00143198
0.00245701
0.00174024
0.00176689
0.00188211
0.00202673
0.0022296
0.00255135
0.00306488
0.00384327
0.00493941
0.00636135
0.00805467
0.00989979
0.0117235
0.0133214
0.0144055
0.014864
0.0149531
0.0146466
0.0138201
0.0126654
0.0115535
0.010541
0.00966547
0.00890956
0.00827142
0.0077265
0.00726542
0.00687146
0.00653566
0.00624844
0.00600203
0.00579102
0.00561114
0.005459
0.00533135
0.00522561
0.00514083
0.00507608
0.00502923
0.00500589
0.00499779
0.00500462
0.00503967
0.00509457
0.00517633
0.00528663
0.00543113
0.00561399
0.00584225
0.00612508
0.00647507
0.00690971
0.00745509
0.00815379
0.00905658
0.0102132
0.0116821
0.0134687
0.015569
0.0179195
0.0203878
0.0228234
0.0249454
0.0261714
0.0265871
0.0262838
0.0244596
0.0214003
0.0175856
0.0135175
0.00971679
0.00658241
0.00428362
0.00276991
0.0018439
0.00127535
0.000946739
0.000843549
0.00133104
0.00342452
0.00228648
0.00229247
0.00245303
0.00267055
0.00298193
0.00345949
0.00418181
0.00521064
0.00656397
0.00819336
0.00997595
0.0117254
0.0132201
0.0141143
0.0144375
0.0144639
0.0139279
0.012851
0.0116367
0.0104937
0.00948264
0.00860964
0.00786806
0.0072358
0.00669849
0.00623793
0.00584426
0.00550594
0.00521623
0.00496811
0.00475668
0.0045778
0.00442759
0.00430297
0.00420155
0.00412114
0.00406004
0.00401639
0.00399287
0.00398355
0.00398276
0.00400393
0.00403957
0.00409256
0.00416361
0.00425435
0.00436703
0.00450446
0.00467057
0.00487038
0.00511039
0.00539958
0.00575004
0.00617945
0.00671455
0.0073949
0.00828805
0.00951876
0.0111959
0.0133717
0.015992
0.018955
0.0220336
0.0249193
0.0268254
0.027574
0.027568
0.0255948
0.0220325
0.0175713
0.0129072
0.00873088
0.00549533
0.00330983
0.00200925
0.0012919
0.000907086
0.000791595
0.00122158
0.00461971
0.00292602
0.00292068
0.00314091
0.00344874
0.00388626
0.00453142
0.00545565
0.00669135
0.00820456
0.00988189
0.0115384
0.012947
0.0137441
0.0140095
0.013934
0.0132273
0.0120374
0.0108123
0.00964489
0.00863063
0.00776299
0.00702713
0.00640359
0.00587279
0.00542108
0.00503615
0.0047099
0.00443425
0.00420354
0.00401199
0.00385503
0.00372821
0.00362776
0.00355011
0.00349231
0.00345165
0.00342844
0.00341844
0.00341655
0.00342869
0.00345187
0.00348773
0.00353456
0.00359408
0.0036664
0.00375303
0.00385532
0.00397524
0.00411514
0.00427799
0.00446766
0.00468932
0.00495009
0.00525851
0.00562588
0.00607184
0.00662761
0.00734572
0.0083126
0.0096885
0.0117294
0.0144787
0.0178353
0.021548
0.0252359
0.027872
0.0289874
0.0291164
0.0269154
0.0226914
0.0174484
0.0121627
0.00768213
0.00445665
0.00247269
0.00141772
0.000916592
0.000750487
0.00113914
0.00605644
0.00367169
0.00365662
0.00394478
0.00435283
0.00492027
0.00572121
0.00680574
0.00816258
0.00969886
0.0112433
0.0125733
0.0133281
0.0135781
0.0134291
0.0126399
0.0114173
0.0101516
0.00898065
0.00795273
0.00708683
0.00635487
0.00573822
0.00521775
0.00477897
0.00441114
0.00410506
0.00385327
0.00364852
0.00348457
0.00335529
0.00325536
0.00317981
0.00312448
0.00308585
0.00306222
0.00305119
0.00304789
0.00305283
0.00306806
0.00309176
0.00312417
0.00316582
0.00321708
0.00327915
0.00335291
0.00343983
0.00354128
0.0036589
0.00379436
0.00394946
0.00412614
0.00432661
0.00455356
0.00481082
0.00510436
0.00544391
0.00584602
0.00633458
0.00694817
0.00776304
0.00891564
0.0106628
0.0133768
0.0170313
0.0213678
0.025901
0.0292538
0.0306608
0.0308305
0.0282065
0.0231016
0.0169916
0.0111481
0.00651946
0.00346189
0.00177457
0.00099959
0.000751924
0.00112934
0.00781955
0.00455213
0.00449806
0.00485322
0.00536032
0.00604414
0.00696395
0.00813693
0.00950186
0.0109126
0.0121612
0.0128982
0.0131476
0.0129803
0.0121507
0.010952
0.00965866
0.00846643
0.00742957
0.00655416
0.00582463
0.00521321
0.00470362
0.00428025
0.00393194
0.00364892
0.00342224
0.00324356
0.00310497
0.00299931
0.0029201
0.00286186
0.00282005
0.00279105
0.00277267
0.00276376
0.00276063
0.00276137
0.00277112
0.00278678
0.00280956
0.00283988
0.00287875
0.00292719
0.00298647
0.00305794
0.00314321
0.00324389
0.00336172
0.00349849
0.00365598
0.0038359
0.00403972
0.00426864
0.0045236
0.00480557
0.00511638
0.00546056
0.00584871
0.00630281
0.00686324
0.00758681
0.00860167
0.010143
0.012684
0.0165566
0.0214867
0.0269097
0.0309208
0.0325153
0.032597
0.0291574
0.0229707
0.0160009
0.00976982
0.00524334
0.00254256
0.0012433
0.000800498
0.00118866
0.00979007
0.00553052
0.00542587
0.00584326
0.00643687
0.00720644
0.00818729
0.00935811
0.0106112
0.0117639
0.0124871
0.0127384
0.0125819
0.0117786
0.0106145
0.00931719
0.00809432
0.00703744
0.00614951
0.00541388
0.00480624
0.00430488
0.0038958
0.00356553
0.00330327
0.00309834
0.00294082
0.00282143
0.00273191
0.0026652
0.00261548
0.00257827
0.00255023
0.00252907
0.00251342
0.00250239
0.00249655
0.00249447
0.00249677
0.00250596
0.00252172
0.00254519
0.00257742
0.00261967
0.00267328
0.00273973
0.0028207
0.00291796
0.0030335
0.0031694
0.00332786
0.00351104
0.00372093
0.00395909
0.00422639
0.00452281
0.00484727
0.00519816
0.00557482
0.00598109
0.00643199
0.00696504
0.00764372
0.00857848
0.0100079
0.0124032
0.0164371
0.0219404
0.0282785
0.0328257
0.0345037
0.0341731
0.0294188
0.0220385
0.0143055
0.00802688
0.00391571
0.00177768
0.000963036
0.00140086
0.0119095
0.00658451
0.00641644
0.00688418
0.00754079
0.0083517
0.00932319
0.010397
0.0114309
0.0121294
0.0123781
0.0122629
0.0115265
0.0104001
0.00910962
0.00785755
0.00676604
0.00585662
0.00510834
0.00449741
0.00400085
0.00360129
0.00328502
0.00303854
0.00284982
0.00270717
0.00260016
0.00251971
0.0024584
0.00241043
0.00237154
0.00233885
0.00231052
0.00228565
0.00226395
0.00224554
0.0022309
0.00222151
0.00221759
0.00221719
0.00222548
0.00224187
0.00226722
0.00230287
0.00235
0.00241008
0.00248472
0.00257578
0.00268537
0.00281586
0.00296988
0.00315023
0.00335978
0.00360116
0.00387652
0.00418693
0.00453193
0.00490904
0.00531377
0.0057408
0.00618741
0.00666092
0.00719271
0.00785537
0.00875362
0.0101327
0.0124927
0.0167186
0.022829
0.0300862
0.0348991
0.036468
0.0352146
0.0287247
0.0200087
0.011899
0.0060385
0.0027257
0.00133065
0.00187325
0.0141091
0.00768738
0.00744104
0.00794022
0.00862743
0.00942672
0.0103143
0.0112019
0.0118497
0.0120893
0.0120291
0.0113773
0.0103082
0.00902814
0.00774877
0.00661182
0.00566605
0.00489591
0.00427332
0.0037744
0.00337875
0.00307019
0.0028338
0.00265522
0.00252155
0.00242114
0.00234438
0.00228363
0.00223324
0.00218934
0.00214948
0.00211238
0.00207755
0.00204511
0.00201548
0.00198931
0.00196735
0.00195037
0.0019404
0.0019365
0.00193692
0.00194831
0.00196806
0.00199794
0.00203888
0.00209219
0.00215938
0.00224223
0.00234289
0.00246384
0.002608
0.00277868
0.00297954
0.00321439
0.00348695
0.00380029
0.00415617
0.00455416
0.0049907
0.0054587
0.00594827
0.00645023
0.00696441
0.00751614
0.00818315
0.00907951
0.0104667
0.0129172
0.0174647
0.0242956
0.0324514
0.0369918
0.0381647
0.0351687
0.0265671
0.0168589
0.00899049
0.00414597
0.00194512
0.00257036
0.0163193
0.00880953
0.00846804
0.00897383
0.00965343
0.010385
0.0111161
0.0116871
0.0119136
0.0118737
0.0113277
0.0103292
0.00907199
0.0077648
0.00657409
0.00557538
0.00476901
0.00412463
0.00361417
0.00321493
0.00290747
0.00267483
0.00250095
0.0023712
0.0022731
0.00219639
0.00213335
0.0020785
0.00202831
0.0019808
0.00193512
0.00189117
0.00184934
0.00181026
0.00177466
0.00174329
0.00171686
0.00169602
0.00168189
0.00167521
0.0016734
0.00168012
0.00169621
0.00172137
0.00175684
0.00180362
0.00186308
0.00193685
0.00202696
0.00213588
0.00226656
0.00242255
0.00260799
0.00282754
0.00308625
0.00338918
0.00374076
0.00414384
0.00459837
0.00509994
0.00563878
0.00620006
0.00676763
0.00733346
0.00791834
0.00860925
0.00953039
0.0109874
0.0136748
0.0187841
0.0266004
0.0351673
0.0390006
0.0394394
0.0334015
0.0228491
0.0128503
0.00608531
0.00280837
0.00343916
0.0184929
0.00992121
0.00946554
0.00994878
0.0105806
0.011191
0.011678
0.0118838
0.0118227
0.0113829
0.0104576
0.00923713
0.00790821
0.00665557
0.00558756
0.00472627
0.00404618
0.00351351
0.00310155
0.00278793
0.00255287
0.00237851
0.00224866
0.00214969
0.00207081
0.00200404
0.00194403
0.00188754
0.00183294
0.00177974
0.00172813
0.0016787
0.0016322
0.00158939
0.00155098
0.00151755
0.00148962
0.00146763
0.00145206
0.0014444
0.00144186
0.00144584
0.0014594
0.0014809
0.00151171
0.00155256
0.00160468
0.00166949
0.00174885
0.00184502
0.00196085
0.00209982
0.00226615
0.0024649
0.00270192
0.00298369
0.00331694
0.00370781
0.00416062
0.00467597
0.00524867
0.00586583
0.00650687
0.00714744
0.00777127
0.00839733
0.00912653
0.0100968
0.0116939
0.0147809
0.0207188
0.0298711
0.0381739
0.0410413
0.0394842
0.029654
0.0177269
0.00863056
0.00394769
0.00442653
0.0205921
0.0109943
0.0104031
0.0108333
0.0113803
0.0118029
0.0119791
0.0119036
0.0115376
0.0106946
0.00952001
0.00818106
0.00686403
0.00571013
0.00477267
0.00403807
0.0034698
0.00303465
0.00270654
0.00246273
0.00228298
0.00214951
0.00204733
0.00196487
0.00189379
0.00182868
0.00176646
0.00170576
0.00164632
0.00158857
0.00153323
0.00148111
0.00143297
0.00138942
0.00135098
0.00131799
0.00129074
0.00126943
0.00125424
0.00124668
0.00124405
0.00124675
0.00125843
0.00127709
0.00130396
0.00133965
0.00138518
0.0014418
0.00151113
0.00159519
0.00169656
0.00181845
0.00196491
0.00214091
0.00235252
0.00260691
0.00291225
0.00327723
0.00371009
0.00421693
0.00479919
0.00545058
0.00615428
0.00688242
0.007601
0.00828577
0.00895926
0.0097333
0.0107854
0.0126319
0.0163782
0.0234352
0.0341279
0.0411681
0.0426768
0.036702
0.0237014
0.0119325
0.00541216
0.00548819
0.0225339
0.0120005
0.011255
0.0116049
0.0120229
0.012207
0.0121549
0.0117835
0.0110367
0.00992081
0.00858432
0.00720842
0.00595618
0.00491906
0.00410663
0.00348484
0.00301389
0.00266165
0.00240196
0.00221179
0.00207125
0.00196384
0.00187682
0.00180125
0.00173142
0.00166425
0.00159847
0.00153401
0.00147142
0.00141153
0.00135517
0.00130308
0.0012558
0.00121373
0.00117712
0.0011461
0.00112073
0.00110104
0.00108707
0.0010801
0.00107766
0.00107984
0.00109004
0.00110642
0.00112997
0.00116123
0.00120105
0.0012505
0.00131098
0.00138425
0.00147256
0.00157878
0.00170655
0.00186051
0.00204646
0.00227161
0.00254466
0.00287572
0.00327582
0.00375568
0.0043235
0.00498151
0.0057216
0.00652126
0.00734258
0.0081396
0.00888219
0.00960621
0.0104315
0.0116218
0.0138919
0.0187482
0.0275218
0.0388401
0.0436552
0.0427301
0.0306227
0.0161576
0.00723609
0.0065834
0.0242458
0.0129135
0.0120009
0.0122454
0.0124737
0.0124786
0.0121409
0.0114908
0.010436
0.00911953
0.00769617
0.0063417
0.0051829
0.00426472
0.003566
0.00304263
0.00265462
0.00237054
0.00216411
0.00201274
0.00189792
0.00180542
0.00172523
0.00165112
0.00157974
0.00150981
0.00144131
0.00137489
0.00131144
0.00125181
0.00119669
0.00114659
0.00110181
0.00106249
0.00102865
0.00100025
0.000977211
0.000959447
0.000946908
0.000940661
0.000938492
0.000940414
0.000949375
0.000963835
0.000984567
0.00101204
0.00104699
0.00109033
0.00114324
0.00120725
0.00128428
0.00137682
0.00148809
0.00162219
0.00178443
0.00198155
0.0022221
0.00251655
0.00287733
0.00331824
0.00385293
0.00449194
0.00523798
0.00607983
0.00698641
0.00790559
0.0087757
0.00956347
0.0103363
0.011225
0.012658
0.0156582
0.0221152
0.0333494
0.0432929
0.0456983
0.0379823
0.0214469
0.00947035
0.00773902
0.0256862
0.013713
0.012621
0.0127275
0.0128082
0.0126028
0.0120257
0.0110624
0.0097833
0.00833272
0.00688183
0.00558655
0.00453288
0.00372725
0.003129
0.00268995
0.00237089
0.00214083
0.00197394
0.00184899
0.00174973
0.00166465
0.00158655
0.00151158
0.00143823
0.00136646
0.00129693
0.00123059
0.00116829
0.00111073
0.00105835
0.00101138
0.000969885
0.000933806
0.000903009
0.000877329
0.000856599
0.000840677
0.000829461
0.000823871
0.000821941
0.000823647
0.00083152
0.000844315
0.000862624
0.000886877
0.000917692
0.00095586
0.00100239
0.00105859
0.0011261
0.00120707
0.00130425
0.00142123
0.00156267
0.00173467
0.0019451
0.00220409
0.00252428
0.0029209
0.00341108
0.00401187
0.00473624
0.00558657
0.00654608
0.00757079
0.00858859
0.00951869
0.0103316
0.0111269
0.0121437
0.0140144
0.0182909
0.0270165
0.0403937
0.0465934
0.0446275
0.0278628
0.0121909
0.00892282
0.0268345
0.0143929
0.0131099
0.0130708
0.0130064
0.0125817
0.0117718
0.0105661
0.0091165
0.00758824
0.00615321
0.00493858
0.00399092
0.00328747
0.00277625
0.00240811
0.00214482
0.00195606
0.00181723
0.00170925
0.00161858
0.00153654
0.00145838
0.00138217
0.00130768
0.00123554
0.00116672
0.00110211
0.00104239
0.000987991
0.000939097
0.000895708
0.000857696
0.000824861
0.000796971
0.000773797
0.00075513
0.000740805
0.000730689
0.00072561
0.00072385
0.000725293
0.000732183
0.000743505
0.000759716
0.000781207
0.000808514
0.000842321
0.000883501
0.000933165
0.000992733
0.00106403
0.00114941
0.00125197
0.00137573
0.00152605
0.00170997
0.00193678
0.00221855
0.00257063
0.00301171
0.00356297
0.00424535
0.00507405
0.00604937
0.00714481
0.00829628
0.00940338
0.0103627
0.0111762
0.0120047
0.0132592
0.0159653
0.0224162
0.0346066
0.0462543
0.0486418
0.0353726
0.0156099
0.0102822
0.0276838
0.0149571
0.0134653
0.0132864
0.0130689
0.0124768
0.0114257
0.0100327
0.00846298
0.00690232
0.00551253
0.00438816
0.00354118
0.00292808
0.00249105
0.00218141
0.00196205
0.00180383
0.00168409
0.00158641
0.00150003
0.00141886
0.00134015
0.00126332
0.0011889
0.00111784
0.00105107
0.0009893
0.00093296
0.000882212
0.000837017
0.000797197
0.0007625
0.000732641
0.000707338
0.000686333
0.000669408
0.000656394
0.000647161
0.000642428
0.000640765
0.000641889
0.000647879
0.000657887
0.000672271
0.000691386
0.000715702
0.000745819
0.000782496
0.000826695
0.000879637
0.000942887
0.00101847
0.00110901
0.001218
0.00135003
0.0015113
0.00171006
0.00195739
0.00226786
0.00266024
0.00315758
0.00378594
0.00457052
0.00552774
0.00665246
0.00790209
0.00918422
0.0103655
0.0113306
0.0120649
0.0130063
0.0147366
0.0190473
0.0287388
0.0438283
0.050255
0.0434536
0.0200344
0.012078
0.0282482
0.0154023
0.0136995
0.013382
0.0130282
0.0122574
0.0110253
0.00948772
0.00784142
0.00628266
0.00495608
0.0039236
0.00316874
0.00263412
0.00225941
0.00199713
0.00181153
0.00167525
0.00156805
0.0014763
0.00139188
0.00131084
0.00123193
0.00115544
0.00108226
0.00101337
0.000949527
0.000891191
0.00083853
0.000791489
0.00074986
0.000713349
0.000681628
0.000654371
0.000631279
0.000612092
0.000596598
0.000584636
0.000576086
0.000571566
0.000569939
0.000570712
0.000575876
0.000584708
0.000597492
0.00061455
0.000636301
0.000663276
0.000696142
0.000735742
0.000783137
0.000839681
0.000907112
0.000987692
0.0010844
0.0012012
0.00134343
0.00151834
0.00173579
0.00200914
0.00235627
0.00280038
0.00337008
0.00409734
0.0050116
0.00612794
0.00742869
0.00884203
0.0102318
0.0114265
0.0123299
0.0129871
0.0142159
0.0169864
0.0242338
0.0389108
0.0504912
0.050636
0.0257312
0.0144676
0.028529
0.0157339
0.0138239
0.0133688
0.0129048
0.0119672
0.0105925
0.00895028
0.00726332
0.00573098
0.00447694
0.00353299
0.00286038
0.00239295
0.0020699
0.00184531
0.00168515
0.00156426
0.00146507
0.00137664
0.00129313
0.00121227
0.00113384
0.00105861
0.000987573
0.000921551
0.000861074
0.00080635
0.000757332
0.000713797
0.000675424
0.00064185
0.000612712
0.000587673
0.000566436
0.000548751
0.000534419
0.000523294
0.000515266
0.000510864
0.000509231
0.000509648
0.000514056
0.000521837
0.000533214
0.00054848
0.000568013
0.000592288
0.000621902
0.000657599
0.000700315
0.000751232
0.00081186
0.000884151
0.000970667
0.00107482
0.0012012
0.0013561
0.00154816
0.00178933
0.00209604
0.00249052
0.00300181
0.00366558
0.00452067
0.00559998
0.0069127
0.00841822
0.00999859
0.0114552
0.0126074
0.0133239
0.0140808
0.0159337
0.0209586
0.032948
0.0498216
0.0547953
0.0333125
0.0173848
0.0285126
0.0159496
0.0138488
0.0132916
0.012687
0.0116285
0.0101458
0.00843394
0.00673481
0.00524522
0.00406685
0.00320518
0.00260472
0.00219418
0.00191345
0.00171843
0.00157714
0.00146687
0.00137273
0.00128619
0.00120331
0.00112304
0.0010458
0.000972547
0.000904205
0.000841391
0.000784389
0.00073319
0.00068758
0.000647222
0.000611726
0.000580698
0.000553765
0.000530594
0.000510903
0.000494457
0.000481073
0.000470616
0.00046299
0.000458639
0.000456967
0.00045706
0.000460777
0.000467617
0.000477753
0.000491448
0.000509048
0.000530982
0.00055779
0.000590141
0.000628869
0.000675021
0.000729923
0.000795279
0.000873307
0.000966951
0.00108017
0.0012184
0.00138915
0.00160295
0.00187456
0.00222456
0.00268104
0.00328077
0.00406817
0.00508933
0.0063771
0.00792448
0.00964888
0.0113648
0.0128048
0.0137085
0.0142651
0.0154952
0.018825
0.0280384
0.0465507
0.0565467
0.0425978
0.0207266
0.0283583
0.016087
0.013813
0.0131253
0.0124117
0.0112581
0.00969903
0.00794766
0.00625806
0.00482109
0.00371731
0.00293023
0.00239224
0.00202942
0.00178301
0.00161094
0.00148349
0.0013805
0.00128958
0.00120428
0.00112213
0.00104291
0.000967421
0.000896615
0.000831246
0.000771709
0.000718072
0.000670155
0.000627623
0.00059007
0.000557072
0.000528224
0.000503159
0.00048156
0.000463161
0.000447746
0.000435146
0.000425236
0.000417936
0.000413575
0.000411798
0.000411682
0.000414754
0.000420752
0.000429787
0.000442098
0.000457998
0.000477884
0.000502248
0.000531697
0.000566987
0.000609058
0.000659091
0.000718591
0.0007895
0.000874378
0.000976655
0.00110102
0.00125399
0.00144475
0.00168639
0.00199753
0.00240444
0.0029432
0.00366073
0.00461205
0.00584939
0.00739778
0.00921523
0.0111451
0.0128963
0.0141371
0.0147223
0.0154012
0.0176759
0.0247271
0.0413545
0.0568482
0.0520469
0.0240435
0.0280166
0.0161661
0.013716
0.0128968
0.0120939
0.01087
0.00926284
0.00749679
0.00583262
0.00445324
0.00342025
0.00269955
0.0022151
0.00189198
0.00167318
0.00151878
0.00140145
0.00130348
0.00121472
0.00113043
0.00104925
0.000971512
0.000898139
0.000830005
0.000767659
0.000711288
0.000660779
0.000615826
0.000576016
0.000540904
0.000510053
0.000483064
0.000459583
0.000439313
0.000422005
0.000407457
0.000395516
0.000386067
0.000379036
0.00037464
0.000372736
0.000372469
0.00037496
0.000380205
0.000388263
0.000399346
0.000413744
0.000431822
0.000454034
0.00048094
0.000513232
0.000551767
0.000597611
0.000652112
0.000716994
0.000794505
0.000887637
0.00100046
0.00113863
0.00131014
0.00152647
0.00180423
0.00216745
0.00265033
0.00329982
0.00417587
0.00534506
0.0068609
0.00872493
0.0108302
0.0129114
0.0145137
0.0152658
0.0157087
0.0171445
0.0220128
0.0361246
0.0560793
0.0595723
0.0265658
0.0274882
0.0161651
0.0135527
0.0126246
0.0117474
0.0104755
0.00884467
0.007084
0.00545633
0.00413594
0.00316835
0.00250589
0.00206692
0.00177661
0.00157989
0.00143906
0.00132912
0.00123467
0.0011475
0.00106422
0.000984266
0.000908291
0.000837234
0.000771817
0.000712394
0.000658967
0.000611289
0.000568963
0.00053153
0.000498526
0.000469516
0.000444113
0.000421984
0.000402846
0.000386467
0.000372663
0.000361287
0.000352233
0.00034543
0.000340999
0.000338976
0.000338575
0.000340563
0.000345137
0.000352326
0.000362317
0.000375379
0.000391849
0.000412152
0.000436807
0.000466456
0.000501891
0.000544088
0.000594271
0.000653993
0.000725253
0.000810691
0.000913866
0.0010397
0.00119514
0.00139024
0.00163968
0.00196507
0.0023981
0.00298406
0.00378456
0.00487539
0.00633237
0.00819632
0.0104128
0.0127613
0.0148167
0.0158379
0.0162509
0.0170044
0.0203537
0.0313286
0.0537907
0.0633217
0.0276677
0.0268004
0.0161356
0.0133546
0.0123222
0.0113841
0.0100836
0.00844952
0.00670998
0.00512604
0.00386357
0.00295517
0.00234319
0.00194256
0.00167922
0.00150009
0.00136967
0.00126518
0.00117329
0.0010874
0.00100521
0.00092668
0.00085263
0.000783935
0.000721152
0.000664455
0.000613701
0.000568538
0.000528513
0.00049314
0.00046195
0.000434521
0.000410479
0.000389509
0.000371345
0.000355771
0.000342611
0.000331729
0.000323023
0.000316422
0.000311967
0.000309838
0.000309316
0.000310871
0.000314851
0.000321266
0.000330284
0.000342152
0.000357187
0.000375784
0.000398431
0.00042573
0.000458417
0.000497402
0.000543811
0.000599062
0.000664962
0.000743865
0.000838917
0.000954429
0.00109648
0.00127382
0.00149939
0.00179244
0.00218182
0.00271017
0.00343842
0.00444746
0.0058302
0.00766286
0.0099451
0.0125118
0.0149561
0.0164173
0.016928
0.0172602
0.0195193
0.0281808
0.0497309
0.064651
0.0278408
0.0259912
0.0160646
0.0131315
0.0120012
0.0110139
0.00970111
0.00808041
0.00637404
0.00483816
0.00363089
0.00277514
0.00220647
0.00183793
0.00159663
0.00143148
0.00130905
0.00120863
0.0011187
0.00103397
0.00095294
0.000875947
0.000803869
0.000737473
0.000677157
0.000622942
0.000574569
0.000531617
0.000493592
0.000459998
0.000430372
0.000404302
0.000381434
0.000361466
0.00034415
0.000329278
0.000316686
0.000306242
0.000297847
0.000291433
0.000286971
0.000284747
0.000284115
0.000285303
0.000288757
0.000294484
0.000302634
0.000313435
0.000327183
0.00034425
0.000365096
0.000390288
0.000420521
0.000456647
0.000499721
0.000551053
0.000612301
0.000685595
0.00077375
0.00088058
0.00101142
0.00117394
0.00137948
0.0016451
0.00199676
0.00247387
0.00313491
0.00406223
0.00535991
0.00713293
0.00943314
0.0121676
0.0149956
0.0169829
0.0176637
0.0178444
0.0191596
0.0256978
0.045334
0.0646734
0.0273038
0.0250958
0.0159649
0.0128935
0.0116713
0.0106447
0.00933295
0.0077389
0.00607462
0.00458887
0.00343313
0.00262358
0.00209165
0.00174975
0.00152637
0.0013723
0.00125604
0.00115873
0.00107036
0.000986725
0.000906919
0.000831503
0.000761354
0.000697122
0.000639059
0.000587062
0.000540786
0.000499758
0.000463464
0.000431405
0.000403127
0.000378232
0.000356381
0.000337287
0.000320713
0.000306461
0.000294372
0.000284319
0.000276204
0.000269959
0.000265539
0.000263214
0.00026248
0.000263359
0.000266351
0.000271467
0.000278843
0.000288689
0.000301283
0.000316974
0.000336198
0.000359493
0.000387518
0.000421081
0.000461178
0.000509037
0.0005662
0.000634626
0.000716866
0.000816335
0.000937756
0.00108788
0.00127666
0.00151916
0.00183857
0.00227085
0.00287106
0.0037205
0.0049297
0.00662573
0.00890508
0.0117408
0.0148724
0.0174597
0.0184504
0.0185724
0.019087
0.0239304
0.0412406
0.0626223
0.0264502
0.0241416
0.0158512
0.012649
0.0113407
0.010283
0.00898264
0.00742541
0.00580964
0.00437445
0.00326605
0.00249655
0.00199539
0.0016754
0.00146651
0.00132121
0.00120975
0.00111487
0.00102781
0.000945232
0.000866661
0.000792794
0.00072447
0.00066222
0.000606175
0.000556133
0.000511684
0.000472321
0.00043752
0.000406784
0.00037967
0.000355794
0.000334828
0.000316499
0.000300578
0.000286875
0.000275236
0.000265536
0.000257678
0.00025159
0.000247228
0.000244814
0.000243985
0.000244603
0.000247192
0.000251767
0.000258454
0.000267446
0.000279004
0.000293458
0.000311221
0.000332803
0.000358834
0.000390086
0.000427505
0.000472258
0.000525797
0.000589948
0.000667059
0.00076023
0.000873687
0.00101341
0.00118817
0.00141125
0.00170328
0.00209673
0.00264264
0.00341935
0.00453992
0.00614791
0.00837993
0.011271
0.014612
0.0177828
0.0192634
0.0194672
0.0194827
0.0227183
0.0375853
0.059718
0.0253727
0.0231366
0.0157407
0.0124083
0.0110164
0.00993367
0.00865255
0.00713973
0.00557657
0.00419145
0.00312605
0.00239075
0.00191502
0.00161282
0.00141553
0.00127716
0.00116946
0.00107651
0.000990606
0.000909049
0.00083169
0.000759296
0.00069265
0.000632179
0.000577912
0.000529571
0.000486701
0.000448771
0.000415254
0.000385658
0.00035955
0.000336557
0.000316364
0.000298706
0.000283362
0.000270147
0.000258911
0.000249529
0.000241905
0.000235966
0.000231665
0.000229173
0.000228259
0.000228659
0.000230896
0.000234994
0.000241068
0.000249298
0.000259929
0.000273271
0.000289716
0.000309753
0.00033398
0.000363139
0.000398137
0.000440092
0.000490385
0.000550743
0.000623359
0.000711087
0.000817758
0.000948718
0.00111174
0.00131855
0.00158746
0.00194761
0.00244579
0.00315612
0.00419092
0.00570428
0.00786709
0.010781
0.0143143
0.0179297
0.0200305