/*--------------------------------*- C++ -*----------------------------------*\
  =========                 |
  \\      /  F ield         | OpenFOAM: The Open Source CFD Toolbox
   \\    /   O peration     | Website:  https://openfoam.org
    \\  /    A nd           | Version:  13
     \\/     M anipulation  |
\*---------------------------------------------------------------------------*/
FoamFile
{
    format      ascii;
    class       volScalarField;
    location    "5.8";
    object      k;
}
// * * * * * * * * * * * * * * * * * * * * * * * * * * * * * * * * * * * * * //

dimensions      [0 2 -2 0 0 0 0];

internalField   nonuniform List<scalar> 
6400
(
4.89381e-07
2.51271e-06
6.08741e-06
9.82651e-06
1.26735e-05
1.42907e-05
1.48914e-05
1.49556e-05
1.50351e-05
1.55732e-05
1.69011e-05
1.95403e-05
2.37551e-05
2.96439e-05
3.69343e-05
4.52337e-05
5.41323e-05
6.34303e-05
7.27458e-05
8.17901e-05
9.08001e-05
0.000100499
0.000111894
0.000125745
0.000141713
0.000158249
0.000174635
0.00019087
0.000207389
0.00022463
0.000242495
0.00026025
0.000277713
0.000294752
0.000311899
0.000329239
0.000347179
0.000365848
0.000385502
0.000406236
0.000428193
0.000451533
0.000476404
0.000503113
0.000531804
0.000563263
0.000598969
0.000642128
0.00069117
0.000738471
0.000786935
0.000833441
0.000878112
0.000918888
0.000954708
0.000983678
0.00100118
0.00100902
0.00101084
0.000996065
0.000965649
0.000919954
0.000859561
0.000785948
0.000701727
0.000610209
0.000516553
0.000424503
0.00033766
0.000259009
0.000195823
0.000142716
9.96669e-05
6.66176e-05
4.27827e-05
2.65177e-05
1.59028e-05
9.07795e-06
4.2701e-06
9.067e-07
2.3722e-06
1.99902e-05
4.85156e-05
7.61878e-05
9.68612e-05
0.000109276
0.000115202
0.000117554
0.000119616
0.000124208
0.000134499
0.000154313
0.00018481
0.000225595
0.000274844
0.000330047
0.000388983
0.00044947
0.000509675
0.000568711
0.00062802
0.000691564
0.000764571
0.00085035
0.000946313
0.00104448
0.00114024
0.00123178
0.00131974
0.00140502
0.00148633
0.00156182
0.00163087
0.00169327
0.00175183
0.00180716
0.00186138
0.00191532
0.00197034
0.0020271
0.0020863
0.0021486
0.00221428
0.00228367
0.00235622
0.00243178
0.00250955
0.00258646
0.00266542
0.00274899
0.00283455
0.00292058
0.00300473
0.00308409
0.00315517
0.00321398
0.00325023
0.00326404
0.00326228
0.00322852
0.00315789
0.00304982
0.00290261
0.00271786
0.00250041
0.00225713
0.00200034
0.00173854
0.00147934
0.00122988
0.000990472
0.000771853
0.000581123
0.000421159
0.000293255
0.000195394
0.000124353
7.45104e-05
3.5934e-05
4.79492e-06
5.2016e-06
4.35986e-05
0.000101871
0.000151528
0.000185614
0.00020574
0.00021669
0.000223942
0.000233085
0.00024967
0.000279228
0.000326465
0.000393258
0.000478124
0.000577358
0.000686946
0.000803791
0.000925388
0.00104925
0.00117322
0.00129559
0.00141555
0.00153131
0.00163843
0.001732
0.00180816
0.00186407
0.00190266
0.00193167
0.00195755
0.00198515
0.0020146
0.00204703
0.00207901
0.00211442
0.00215229
0.00219442
0.00224072
0.00229212
0.00234882
0.00241072
0.00247819
0.00255107
0.00262918
0.00271261
0.00280121
0.00289442
0.00299306
0.00309722
0.00320604
0.00331804
0.00343161
0.00354454
0.00365393
0.00375613
0.00384673
0.00392049
0.00396745
0.00398524
0.00397882
0.00392978
0.00383686
0.0036952
0.00350559
0.00327024
0.00299405
0.00269457
0.00238083
0.00206308
0.0017523
0.00145766
0.00118614
0.000943155
0.000731383
0.000551955
0.00040413
0.000284697
0.000186233
9.42616e-05
1.27782e-05
9.05175e-06
7.36038e-05
0.000161378
0.0002283
0.000272294
0.00029942
0.000317422
0.000334192
0.000357587
0.000395379
0.000454685
0.000540094
0.000651748
0.000785368
0.000934497
0.00109289
0.00125513
0.00141591
0.00156944
0.00171005
0.00183214
0.00193325
0.0020111
0.00205914
0.00208041
0.00208596
0.00208137
0.00207674
0.00207519
0.00207782
0.0020869
0.00209883
0.00211595
0.00213746
0.00216441
0.00219612
0.00223332
0.00227587
0.00232383
0.0023773
0.00243646
0.00250144
0.00257228
0.00264887
0.00273102
0.00281843
0.00291262
0.00301317
0.00311989
0.00323218
0.003349
0.00346902
0.00359032
0.00371036
0.0038258
0.00393251
0.00402532
0.00409871
0.00413971
0.00415285
0.0041304
0.00406471
0.00395305
0.0037966
0.00358734
0.00332425
0.00302359
0.00269532
0.00235543
0.00201855
0.0016972
0.00140082
0.0011351
0.000902511
0.00070334
0.000536118
0.000396484
0.000274959
0.000149016
2.115e-05
1.45418e-05
0.000113916
0.00023226
0.000315731
0.000369749
0.000405227
0.000433183
0.000464271
0.000508823
0.00057647
0.000674413
0.000804905
0.000963977
0.00114298
0.0013317
0.00152043
0.00170026
0.00186262
0.00199846
0.00210321
0.00216716
0.00219349
0.00219735
0.00217043
0.00214014
0.00211273
0.00209061
0.00207459
0.00206622
0.00206289
0.00206274
0.0020681
0.0020781
0.00209222
0.00211068
0.00213305
0.00215943
0.00218945
0.00222296
0.00226019
0.00230114
0.00234612
0.00239598
0.00245122
0.00251269
0.0025812
0.0026559
0.00273753
0.00282623
0.00292223
0.00302547
0.00313561
0.00325178
0.0033727
0.00349639
0.00362023
0.00373978
0.00384993
0.00394428
0.00400971
0.00403695
0.00403485
0.00397318
0.00385793
0.00369192
0.00347567
0.00319647
0.00287523
0.00252877
0.0021757
0.00183361
0.00151671
0.00123375
0.000988102
0.000779371
0.000604683
0.000458243
0.000328017
0.000185697
2.68373e-05
2.23949e-05
0.000167742
0.000318697
0.000419534
0.000484969
0.000531046
0.000572454
0.000622904
0.000694946
0.000798623
0.000938812
0.00111295
0.00131138
0.0015204
0.00172555
0.00191344
0.00207235
0.00219459
0.00226339
0.00228746
0.00228067
0.00223775
0.00219457
0.00215219
0.00211154
0.00207605
0.00204661
0.00202252
0.00200341
0.00198792
0.00197552
0.00196843
0.00196496
0.00196384
0.00196489
0.00196923
0.00197581
0.00198502
0.00199684
0.00201166
0.00202979
0.00205176
0.00207725
0.00210699
0.00214132
0.00218086
0.00222615
0.00227824
0.00233809
0.00240675
0.00248536
0.00257489
0.00267602
0.00278898
0.00291312
0.00304668
0.00318774
0.00333226
0.00347495
0.00360733
0.00372045
0.00379221
0.00381859
0.00379601
0.00370506
0.00355306
0.00332419
0.00302951
0.00268691
0.00231945
0.00195168
0.00160573
0.00129712
0.00103283
0.000812641
0.000631777
0.000482047
0.000348873
0.000201494
2.88325e-05
3.33224e-05
0.000237025
0.000423024
0.000542541
0.000621082
0.0006802
0.000738522
0.000812587
0.000915965
0.00105683
0.00123519
0.00144204
0.00166168
0.00187571
0.00206656
0.00221931
0.00231604
0.00235464
0.00235673
0.00231212
0.00226153
0.00220007
0.00214049
0.00207956
0.00202572
0.00197919
0.0019387
0.0019029
0.00187149
0.00184468
0.00182168
0.00180172
0.00178409
0.0017686
0.00175532
0.00174435
0.00173548
0.00172892
0.00172518
0.00172368
0.00172358
0.00172714
0.00173312
0.00174251
0.00175538
0.00177226
0.00179374
0.00182055
0.00185391
0.00189497
0.00194529
0.00200689
0.00208209
0.00217326
0.00228259
0.00241046
0.00255694
0.00272188
0.00289999
0.00308459
0.00326746
0.0034362
0.00357288
0.00364005
0.00365495
0.00358829
0.00345641
0.00321494
0.00289318
0.00251687
0.00211757
0.00172822
0.00137611
0.00107703
0.000833729
0.000640033
0.00048388
0.000347559
0.000200278
2.79695e-05
4.79921e-05
0.000322847
0.000545984
0.00068554
0.000778784
0.000853027
0.000930709
0.00103031
0.00116449
0.00133718
0.00154182
0.00176267
0.00197878
0.0021687
0.00231496
0.00239097
0.00241313
0.00238813
0.00233582
0.00226389
0.00218271
0.00209607
0.00201924
0.00195013
0.00189184
0.0018389
0.00179142
0.00174819
0.00170912
0.00167378
0.00164166
0.00161251
0.00158616
0.00156264
0.00154196
0.00152397
0.00150851
0.0014956
0.00148519
0.00147719
0.00147183
0.00146935
0.00146866
0.0014708
0.00147627
0.00148488
0.0014973
0.00151393
0.00153508
0.00156139
0.00159362
0.0016328
0.00168025
0.00173792
0.00180892
0.00189878
0.00201387
0.00215771
0.00233403
0.00253636
0.00275892
0.00299148
0.00321733
0.00341711
0.00354027
0.00358374
0.00354745
0.00342471
0.00315786
0.00279562
0.00237232
0.00193133
0.00151596
0.0011583
0.000871743
0.000651464
0.000481482
0.000339714
0.000193727
2.59979e-05
6.689e-05
0.000425115
0.000687099
0.000847788
0.000956861
0.00104727
0.0011447
0.00126815
0.0014274
0.00162044
0.00183378
0.00204603
0.00223323
0.00237059
0.00243418
0.00244569
0.00240668
0.0023439
0.00225128
0.00214298
0.00204158
0.0019523
0.0018733
0.00180281
0.00174024
0.00168261
0.00163032
0.00158255
0.0015394
0.00150057
0.00146595
0.00143544
0.00140895
0.00138626
0.00136714
0.00135137
0.00133872
0.00132895
0.00132175
0.00131734
0.00131537
0.0013149
0.00131678
0.00132123
0.00132807
0.00133736
0.0013493
0.00136405
0.00138188
0.00140309
0.00142806
0.00145732
0.00149147
0.00153135
0.0015781
0.0016336
0.001701
0.00178509
0.00189541
0.00205014
0.00225474
0.00250327
0.0027748
0.00305631
0.00331768
0.00349714
0.00356739
0.00356154
0.0034365
0.00313427
0.00271926
0.00223882
0.0017516
0.00131173
0.00095342
0.00068336
0.000485427
0.000328701
0.000180996
2.38598e-05
9.0235e-05
0.000542511
0.000844634
0.0010272
0.00115235
0.00125828
0.00137302
0.00151467
0.00168856
0.00188624
0.00208822
0.00226968
0.00240037
0.00245742
0.00246396
0.0024219
0.00234218
0.00222673
0.00210214
0.00198929
0.00188814
0.00179926
0.00171976
0.00164822
0.00158359
0.0015248
0.00147222
0.00142549
0.00138474
0.00134969
0.00132016
0.00129579
0.00127616
0.00126078
0.00124914
0.00124071
0.00123506
0.00123227
0.00123124
0.00123138
0.00123397
0.00123779
0.00124342
0.00125064
0.00125954
0.00127018
0.00128272
0.00129734
0.00131426
0.00133376
0.00135605
0.00138131
0.00140985
0.00144198
0.0014781
0.00151856
0.00156454
0.00161804
0.0016831
0.00176734
0.00188316
0.0020545
0.00230414
0.00260819
0.00293681
0.00325866
0.00349636
0.00359491
0.00360267
0.00346796
0.00311867
0.00263948
0.00209672
0.00156568
0.00110946
0.000758647
0.000508642
0.00032854
0.000170837
2.22493e-05
0.000118298
0.00067167
0.00101563
0.0012204
0.00136065
0.00147938
0.0016061
0.00175683
0.00193182
0.00211675
0.00228813
0.00241346
0.00246722
0.00247171
0.00242932
0.00233594
0.00220377
0.00206822
0.00194212
0.00183116
0.00173266
0.00164545
0.0015672
0.00149719
0.00143491
0.00138019
0.00133322
0.00129364
0.00126121
0.0012353
0.00121526
0.0012003
0.00118962
0.00118243
0.00117843
0.00117667
0.00117625
0.00117758
0.00118026
0.00118404
0.00118915
0.00119528
0.00120272
0.00121143
0.0012216
0.00123334
0.00124686
0.0012623
0.00127983
0.00129957
0.00132164
0.00134612
0.00137311
0.00140271
0.00143512
0.0014707
0.00150895
0.00155041
0.00159605
0.0016486
0.00171455
0.0018058
0.00194252
0.00216166
0.00248353
0.00284986
0.00323268
0.00352219
0.00364302
0.00365401
0.00349607
0.00308389
0.0025317
0.00192755
0.00136318
0.000904694
0.000570429
0.000342912
0.000170753
2.20574e-05
0.000152735
0.00080782
0.0011966
0.0014229
0.00157584
0.00170266
0.00183364
0.0019821
0.00214351
0.00229922
0.00241824
0.0024703
0.00247455
0.00243278
0.0023312
0.00218828
0.00204218
0.00190496
0.00178305
0.00167639
0.00158194
0.0014985
0.00142476
0.00136058
0.00130574
0.00126008
0.00122321
0.00119434
0.00117255
0.00115675
0.00114584
0.00113879
0.00113503
0.00113338
0.00113298
0.00113384
0.00113579
0.00113863
0.00114223
0.00114666
0.00115202
0.0011584
0.001166
0.00117496
0.00118552
0.00119786
0.0012122
0.00122874
0.00124764
0.00126906
0.00129305
0.00131965
0.00134875
0.00138017
0.00141363
0.00144882
0.00148559
0.00152409
0.00156431
0.00160588
0.00165095
0.001705
0.0017782
0.00189054
0.002077
0.00239341
0.00279687
0.00323472
0.00356526
0.00369773
0.00370285
0.00349475
0.00300341
0.00237326
0.0017173
0.00113849
0.000694923
0.000388493
0.000180762
2.32158e-05
0.000191224
0.000951526
0.00138367
0.00162951
0.00179137
0.00192004
0.00204606
0.00218016
0.0023141
0.00242326
0.00247325
0.00247804
0.00243711
0.00233324
0.00218414
0.00202705
0.00187911
0.00174671
0.00163125
0.0015305
0.00144226
0.00136581
0.00130052
0.00124625
0.00120247
0.00116838
0.00114283
0.00112443
0.0011118
0.00110356
0.00109856
0.00109605
0.00109496
0.00109465
0.00109489
0.00109592
0.00109739
0.00109942
0.00110208
0.00110553
0.00110996
0.00111556
0.00112257
0.00113119
0.00114166
0.00115421
0.00116908
0.00118649
0.00120665
0.00122975
0.00125593
0.00128525
0.00131766
0.00135295
0.00139072
0.00143033
0.001471
0.00151189
0.00155248
0.00159297
0.00163298
0.00167368
0.00171938
0.00178007
0.00187639
0.00204499
0.00234119
0.00277574
0.00326204
0.0036194
0.00375275
0.00372975
0.00343786
0.00285152
0.00214629
0.00145892
0.000891489
0.000484276
0.000211918
2.73594e-05
0.000232621
0.00109928
0.00157213
0.00183462
0.00200073
0.00212416
0.00223559
0.00234389
0.00243744
0.00248268
0.00248742
0.00244619
0.00234425
0.00219228
0.00202604
0.00186639
0.00172334
0.00159864
0.00149109
0.00139834
0.00131909
0.00125287
0.00119902
0.00115678
0.00112488
0.00110174
0.00108564
0.00107486
0.0010679
0.00106349
0.00106069
0.00105883
0.00105738
0.00105617
0.00105521
0.00105469
0.0010545
0.00105476
0.00105588
0.00105796
0.00106125
0.00106594
0.00107226
0.00108041
0.00109064
0.00110316
0.0011182
0.00113602
0.00115686
0.00118098
0.00120859
0.00123989
0.00127498
0.00131382
0.00135614
0.00140139
0.00144864
0.00149659
0.00154366
0.00158839
0.00163017
0.00166882
0.00170639
0.00174673
0.00179888
0.00188541
0.00204115
0.00232654
0.00278664
0.00331557
0.00367692
0.00379481
0.00371263
0.00329897
0.00260628
0.00184287
0.00115573
0.000632494
0.000275184
3.65847e-05
0.000275585
0.00124721
0.0017571
0.00203277
0.00219801
0.00230907
0.002397
0.00246986
0.00250574
0.0025083
0.00246411
0.00236617
0.00221407
0.00204073
0.00186933
0.00171417
0.00157941
0.00146405
0.00136606
0.00128362
0.00121579
0.00116175
0.00112021
0.00108957
0.0010678
0.00105286
0.0010428
0.00103599
0.00103113
0.00102732
0.00102395
0.00102071
0.00101747
0.0010143
0.00101134
0.00100878
0.00100677
0.00100578
0.0010055
0.00100637
0.00100887
0.00101289
0.00101873
0.00102654
0.00103651
0.00104886
0.0010638
0.00108158
0.00110246
0.00112674
0.00115473
0.00118675
0.00122306
0.00126388
0.00130922
0.00135887
0.00141218
0.00146799
0.0015245
0.00157934
0.0016299
0.00167432
0.00171247
0.00174366
0.00177994
0.00182886
0.00190956
0.00205975
0.00234662
0.00283288
0.00339864
0.00372628
0.0038056
0.00363317
0.00304971
0.00225865
0.00146945
0.000824738
0.000363618
5.01996e-05
0.000318755
0.00139153
0.00193403
0.00221912
0.00237828
0.00247063
0.0025265
0.00255036
0.00254598
0.00249567
0.0024014
0.00225093
0.00207254
0.00188992
0.00172123
0.00157446
0.00144985
0.0013452
0.00125844
0.00118802
0.00113271
0.00109088
0.00106044
0.00103906
0.00102434
0.00101416
0.00100677
0.00100087
0.000995596
0.000990442
0.000985186
0.00097981
0.000974431
0.000969249
0.00096448
0.000960344
0.000957055
0.000955081
0.00095429
0.000954291
0.000956439
0.00096016
0.000965782
0.000973403
0.000983193
0.000995322
0.00100999
0.00102742
0.00104787
0.00107167
0.00109916
0.00113073
0.00116681
0.0012078
0.00125403
0.00130568
0.00136261
0.00142418
0.00148906
0.00155498
0.00161871
0.00167633
0.00172539
0.00176528
0.00178744
0.00181797
0.00186647
0.00194491
0.0020971
0.00240086
0.00292362
0.00349643
0.00375917
0.00377625
0.0034336
0.00267781
0.0018143
0.00104977
0.000471069
6.71682e-05
0.000361208
0.00152819
0.00209916
0.00239034
0.00253718
0.00260137
0.00261926
0.00260282
0.00254537
0.00245315
0.00230455
0.00212291
0.00193003
0.00174678
0.00158553
0.00144926
0.00133602
0.00124323
0.00116881
0.00111092
0.00106759
0.00103633
0.00101442
0.000999201
0.000988319
0.00097993
0.00097271
0.00096583
0.000958855
0.000951644
0.000944258
0.00093687
0.000929714
0.000923038
0.000917073
0.000912034
0.000908112
0.000905696
0.000904664
0.000904534
0.000906567
0.000910283
0.000915875
0.000923443
0.000933112
0.000945028
0.000959358
0.000976307
0.000996119
0.00101909
0.00104558
0.001076
0.00111085
0.00115065
0.00119597
0.00124732
0.00130505
0.00136916
0.00143908
0.00151334
0.00158926
0.00166272
0.00172834
0.00178262
0.00182073
0.00183707
0.00186063
0.00190942
0.00198903
0.00215121
0.00248762
0.00305873
0.00359131
0.00378907
0.00366715
0.00307139
0.00217772
0.00129978
0.000591734
8.64531e-05
0.00040221
0.00165538
0.00224956
0.00253996
0.00266787
0.0027038
0.00268779
0.00262492
0.0025237
0.00237732
0.00219339
0.00199151
0.00179324
0.00161506
0.00146392
0.00133934
0.00123829
0.00115797
0.00109598
0.00104982
0.00101666
0.000993408
0.000977084
0.000965114
0.000955504
0.000946882
0.000938424
0.000929742
0.000920756
0.00091158
0.000902435
0.000893582
0.000885279
0.000877761
0.000871231
0.000865858
0.00086178
0.000859385
0.000858412
0.000858349
0.000860516
0.000864349
0.000870006
0.000877578
0.000887163
0.000898883
0.000912883
0.000929341
0.000948473
0.000970546
0.000995891
0.00102491
0.0010581
0.00109604
0.00113939
0.00118888
0.00124521
0.00130894
0.00138025
0.00145866
0.00154258
0.00162887
0.00171246
0.0017863
0.00184542
0.00187774
0.0018897
0.00190662
0.00195641
0.00204113
0.00222345
0.00261475
0.00323424
0.00365467
0.00374632
0.00341227
0.00254896
0.00157115
0.00072209
0.000107189
0.000440138
0.0017701
0.00238003
0.0026646
0.00277132
0.00278419
0.00272759
0.00261889
0.0024736
0.002286
0.00207622
0.00186317
0.00166607
0.00149646
0.00135686
0.00124459
0.00115603
0.00108802
0.00103753
0.00100129
0.000975859
0.000957893
0.000944535
0.000933599
0.000923601
0.000913688
0.000903481
0.000892938
0.000882213
0.000871558
0.000861251
0.000851558
0.00084271
0.000834894
0.000828261
0.000822926
0.000818982
0.000816809
0.000815987
0.000816122
0.000818466
0.000822426
0.000828145
0.00083571
0.000845201
0.000856729
0.00087042
0.000886428
0.000904943
0.000926198
0.000950485
0.000978165
0.00100969
0.00104563
0.00108666
0.00113358
0.00118729
0.00124872
0.00131865
0.00139747
0.00148477
0.00157882
0.00167593
0.00177
0.00185224
0.00191172
0.00193643
0.00194401
0.00195498
0.00200686
0.00210188
0.00232134
0.00279876
0.00342388
0.00369768
0.00360299
0.00290459
0.00185911
0.000859165
0.000128581
0.000473575
0.00186938
0.00248852
0.00276437
0.00285218
0.0028398
0.00274295
0.00259533
0.00240415
0.00218622
0.00195909
0.00174193
0.00155042
0.0013914
0.00126399
0.00116416
0.00108777
0.00103112
0.000990448
0.000961878
0.000941686
0.00092665
0.00091431
0.000903007
0.000891793
0.000880264
0.000868385
0.000856333
0.00084438
0.000832819
0.000821918
0.000811901
0.000802942
0.000795174
0.000788692
0.000783569
0.000779859
0.000777917
0.000777219
0.000777589
0.000780025
0.000784046
0.000789762
0.00079726
0.000806617
0.000817933
0.000831324
0.000846929
0.000864913
0.00088548
0.00090888
0.000935428
0.00096552
0.00099966
0.00103848
0.00108278
0.0011335
0.00119174
0.00125867
0.0013353
0.00142224
0.00151909
0.00162382
0.00173193
0.00183588
0.00192494
0.00198095
0.00199618
0.00199884
0.00200501
0.00206006
0.00217671
0.00246279
0.00303757
0.00354153
0.00366234
0.0032255
0.0021583
0.000997902
0.000151152
0.000501709
0.00195197
0.00257443
0.00283982
0.00291235
0.00287135
0.00273687
0.00254902
0.00232433
0.00208347
0.00184608
0.00163003
0.00144694
0.00129949
0.00118438
0.00109661
0.00103152
0.000984703
0.000951811
0.000928651
0.000911563
0.000897708
0.000885156
0.000872793
0.000860136
0.000847124
0.000833938
0.000820863
0.000808203
0.000796228
0.000785156
0.000775149
0.000766324
0.00075876
0.000752512
0.000747619
0.000744113
0.000742322
0.000741701
0.000742194
0.000744616
0.000748594
0.000754214
0.000761564
0.000770724
0.00078179
0.000794874
0.000810104
0.00082763
0.000847629
0.000870319
0.000895968
0.000924916
0.000957596
0.000994567
0.00103655
0.00108445
0.00113939
0.00120269
0.00127578
0.00135999
0.00145608
0.00156363
0.00168005
0.00179951
0.00191197
0.00200261
0.00204773
0.00205582
0.0020532
0.00205491
0.00211871
0.00227672
0.00267343
0.00330883
0.00360001
0.00343509
0.00245819
0.00113966
0.000174274
0.000524135
0.00201782
0.00263876
0.00289281
0.00295116
0.00288161
0.00271662
0.00249127
0.00223899
0.00198177
0.00173978
0.00152849
0.00135543
0.00121987
0.00111672
0.00104021
0.000985061
0.000946288
0.000919149
0.000899449
0.000883857
0.000870052
0.000856659
0.000843044
0.00082908
0.000814927
0.000800876
0.000787237
0.000774285
0.000762237
0.000751246
0.000741416
0.000732812
0.000725475
0.000719431
0.0007147
0.000711305
0.000709548
0.000708936
0.0007094
0.000711696
0.000715522
0.000720948
0.000728067
0.000736962
0.000747732
0.000760487
0.000775349
0.000792459
0.000811978
0.000834097
0.000859047
0.000887117
0.000918675
0.000954196
0.000994305
0.00103982
0.00109178
0.00115153
0.00122065
0.00130086
0.00139381
0.00150044
0.00162019
0.00174978
0.00188196
0.00200438
0.00208545
0.00211306
0.00211382
0.00210179
0.00210585
0.00219079
0.00242259
0.00296682
0.00344562
0.00351667
0.00276242
0.00130145
0.000200822
0.000540725
0.00206757
0.0026829
0.00292513
0.00297045
0.0028754
0.00267916
0.0024256
0.00215186
0.0018839
0.0016416
0.00143749
0.00127524
0.00115139
0.00105949
0.000993092
0.000946329
0.000913785
0.000890613
0.000872862
0.000857684
0.000843315
0.000828878
0.000814118
0.000799144
0.000784237
0.000769716
0.000755863
0.000742896
0.000730966
0.000720169
0.000710558
0.000702162
0.000694996
0.000689071
0.0006844
0.000681003
0.000679157
0.000678484
0.000678782
0.000680851
0.000684428
0.000689575
0.000696388
0.000704957
0.000715382
0.000727776
0.00074226
0.000758971
0.000778058
0.000799697
0.000824091
0.000851489
0.000882203
0.000916635
0.000955314
0.000998944
0.00104846
0.0011051
0.00117043
0.00124635
0.00133495
0.00143814
0.0015569
0.00169006
0.00183277
0.00197491
0.00210002
0.00216727
0.00218006
0.00216185
0.00214049
0.00216395
0.00228845
0.00266584
0.00327876
0.00352112
0.00305316
0.00150619
0.000235895
0.000551749
0.00210217
0.00270783
0.00293704
0.00296992
0.00285636
0.00263245
0.00235555
0.00206575
0.00179165
0.00155218
0.00135668
0.00120543
0.00109275
0.00101113
0.000953508
0.000913536
0.000885587
0.000864948
0.000848083
0.000832684
0.000817504
0.000802076
0.00078641
0.000770756
0.000755434
0.000740739
0.000726897
0.000714064
0.000702329
0.000691741
0.000682317
0.000674063
0.000666981
0.000661077
0.000656363
0.000652859
0.000650811
0.000650012
0.000650057
0.00065181
0.000655064
0.000659866
0.000666313
0.000674501
0.000684537
0.000696535
0.000710619
0.000726924
0.000745597
0.000766801
0.000790725
0.000817589
0.000847661
0.000881282
0.000918899
0.000961109
0.00100872
0.00106282
0.00112488
0.00119678
0.00128083
0.00137954
0.00149514
0.00162852
0.00177764
0.00193554
0.00208843
0.00219977
0.00224193
0.00224278
0.00219493
0.00217199
0.00222872
0.00244695
0.00300503
0.00339358
0.00326308
0.00176221
0.000282566
0.000557231
0.00212194
0.00271463
0.00293389
0.00295903
0.00282314
0.00257888
0.00228381
0.00198268
0.00170608
0.00147159
0.00128543
0.00114493
0.00104264
0.000970176
0.000919934
0.000885271
0.000860554
0.000841385
0.000824724
0.000808793
0.000792786
0.000776542
0.000760242
0.000744195
0.00072871
0.000714031
0.000700321
0.000687675
0.000676136
0.000665716
0.000656413
0.00064822
0.000641135
0.000635164
0.000630325
0.000626645
0.000624286
0.000623242
0.000623078
0.000624429
0.000627306
0.000631714
0.000637752
0.00064552
0.000655127
0.000666694
0.000680348
0.000696226
0.000714476
0.000735259
0.000758751
0.000785156
0.000814714
0.000847719
0.000884551
0.00092571
0.000971883
0.00102401
0.0010834
0.00115181
0.00123152
0.00132531
0.00143616
0.00156644
0.00171646
0.00188231
0.00205334
0.00221021
0.00229709
0.00231443
0.00228431
0.00222462
0.00221367
0.0023329
0.00275364
0.00327275
0.00335641
0.00206296
0.000339545
0.000556912
0.0021296
0.00271002
0.00292002
0.00293399
0.00278137
0.00252105
0.00221249
0.00190403
0.0016277
0.00139957
0.00122296
0.00109267
0.000999823
0.000935313
0.000891128
0.000860488
0.000837938
0.000819502
0.000802656
0.000786093
0.000769362
0.000752513
0.000735819
0.000719596
0.000704111
0.000689548
0.000676011
0.000663547
0.000652163
0.00064185
0.000632594
0.000624386
0.000617223
0.000611119
0.000606094
0.000602184
0.000599454
0.000598108
0.000597737
0.00059865
0.000601116
0.000605102
0.000610702
0.000618018
0.000627167
0.000638271
0.000651463
0.000666884
0.000684687
0.000705032
0.000728096
0.000754072
0.000783182
0.000815689
0.000851922
0.000892306
0.00093742
0.000988067
0.00104538
0.00111092
0.00118687
0.00127602
0.00138178
0.00150759
0.00165581
0.00182554
0.00200984
0.00219291
0.00233
0.00238018
0.00237436
0.00229225
0.00223987
0.00227857
0.00253377
0.00312678
0.0033737
0.00239632
0.000404817
0.000553898
0.00212782
0.0026948
0.00289156
0.00289703
0.00273291
0.00246099
0.00214315
0.00183068
0.00155666
0.00133566
0.00116841
0.00104761
0.000963183
0.000905448
0.000866123
0.00083845
0.000817278
0.000799098
0.000781877
0.000764706
0.000747399
0.00073014
0.000713237
0.00069698
0.000681584
0.000667172
0.000653802
0.000641482
0.000630198
0.000619928
0.000610654
0.000602369
0.000595075
0.000588788
0.000583535
0.000579353
0.000576288
0.000574587
0.000573993
0.000574467
0.000576507
0.000580057
0.000585203
0.000592051
0.000600718
0.000611332
0.00062403
0.000638961
0.000656281
0.000676158
0.00069877
0.000724311
0.000752993
0.000785061
0.000820806
0.0008606
0.000904931
0.000954481
0.00101021
0.0010735
0.0011463
0.0012313
0.00133199
0.00145243
0.00159643
0.00176568
0.00195665
0.00215678
0.00234137
0.00243945
0.00245616
0.00239799
0.00229017
0.00226454
0.00240503
0.00290851
0.00327879
0.00271589
0.000469605
0.000547222
0.00211972
0.00266638
0.00285316
0.00285182
0.00267975
0.0024003
0.0020769
0.00176312
0.00149284
0.00127929
0.00112097
0.0010088
0.000931753
0.000879695
0.0008442
0.000818661
0.000798305
0.000780097
0.000762438
0.00074474
0.000727004
0.00070949
0.000692504
0.000676295
0.00066102
0.000646757
0.00063352
0.000621296
0.000610056
0.000599775
0.000590434
0.00058203
0.000574572
0.000568078
0.000562581
0.000558121
0.000554745
0.000552666
0.000551834
0.000551905
0.000553517
0.00055663
0.000561319
0.000567688
0.000575859
0.000585961
0.000598138
0.000612544
0.000629344
0.000648712
0.000670834
0.000695908
0.000724148
0.000755788
0.000791101
0.000830414
0.000874153
0.000922893
0.000977452
0.00103902
0.00110931
0.0011908
0.00128689
0.00140192
0.00154072
0.00170715
0.00190133
0.00211542
0.00232941
0.00248102
0.00252838
0.00250263
0.00236794
0.00228759
0.00234094
0.00272642
0.00315852
0.00295598
0.000518874
0.000536902
0.00210254
0.00262953
0.00280771
0.00280018
0.00262354
0.00234024
0.00201451
0.00170158
0.00143597
0.00122985
0.00107982
0.000975386
0.000904722
0.000857353
0.000824832
0.000800792
0.000780873
0.000762481
0.000744391
0.000726263
0.000708223
0.000690564
0.000673571
0.000657443
0.000642291
0.000628148
0.000615005
0.00060283
0.000591588
0.000581255
0.000571817
0.000563273
0.000555637
0.000548934
0.0005432
0.000538478
0.000534822
0.000532358
0.000531214
0.000531008
0.000532187
0.000534869
0.000539105
0.000544997
0.000552664
0.00056224
0.000573873
0.000587724
0.000603965
0.00062278
0.000644365
0.000668928
0.000696687
0.000727881
0.000762769
0.000801657
0.000844919
0.000893051
0.000946748
0.00100702
0.00107536
0.00115398
0.00124606
0.00135593
0.00148892
0.00165043
0.00184337
0.00206392
0.00229609
0.00249958
0.00259249
0.00259744
0.00248177
0.00233316
0.00231367
0.00256211
0.00304543
0.00306716
0.0005404
0.000523467
0.00207887
0.00258615
0.00275653
0.00274402
0.00256568
0.00228175
0.00195645
0.00164607
0.0013857
0.00118671
0.00104426
0.000946644
0.000881422
0.000837881
0.000807641
0.000784631
0.000764898
0.000746252
0.000727771
0.000709302
0.000691052
0.000673319
0.000656354
0.000640313
0.000625262
0.000611206
0.000598116
0.00058595
0.000574675
0.000564266
0.000554715
0.000546025
0.000538216
0.000531316
0.000525362
0.0005204
0.000516484
0.000513675
0.000512204
0.00051177
0.000512543
0.00051481
0.000518606
0.000524026
0.00053119
0.000540232
0.000551305
0.000564575
0.000580223
0.000598443
0.000619442
0.000643442
0.000670672
0.000701377
0.00073582
0.000774293
0.000817139
0.000864793
0.00091785
0.000977168
0.00104403
0.00112038
0.00120911
0.00131437
0.00144172
0.0015976
0.00178743
0.00201159
0.00225932
0.00250231
0.00264967
0.00268225
0.00260262
0.00239782
0.00230991
0.00243367
0.00294192
0.0030979
0.000543781
0.000507663
0.00205081
0.0025379
0.00270102
0.0026849
0.00250729
0.00222552
0.00190298
0.00159648
0.00134162
0.00114932
0.00101363
0.000921948
0.00086131
0.000820862
0.000792353
0.000770031
0.000750329
0.000731404
0.000712583
0.000693848
0.000675451
0.000657682
0.000640755
0.000624786
0.000609809
0.000595806
0.000582734
0.000570552
0.000559222
0.000548727
0.000539061
0.000530234
0.000522266
0.000515188
0.000509038
0.000503861
0.000499706
0.000496625
0.000494832
0.000494185
0.000494591
0.000496468
0.000499842
0.000504803
0.000511469
0.000519977
0.000530481
0.000543152
0.000558178
0.000575766
0.000596134
0.000619517
0.000646161
0.000676325
0.000710281
0.000748319
0.000790767
0.000838018
0.000890588
0.000949209
0.00101497
0.00108956
0.00117556
0.00127683
0.00139883
0.00154854
0.00173315
0.00195653
0.00221308
0.00248073
0.00268763
0.00275652
0.00271616
0.00250894
0.00234819
0.00237241
0.00278582
0.00307095
0.000533293
0.000490174
0.00202006
0.00248632
0.00264256
0.00262409
0.00244928
0.00217203
0.0018542
0.00155259
0.0013033
0.00111711
0.000987375
0.000900768
0.000843945
0.000805973
0.000778766
0.000756887
0.000737124
0.000717925
0.000698812
0.000679864
0.000661359
0.000643568
0.000626672
0.000610754
0.000595821
0.00058184
0.000568763
0.000556545
0.000545154
0.000534573
0.000524802
0.000515852
0.000507747
0.000500518
0.000494202
0.000488841
0.000484481
0.000481172
0.000479082
0.000478228
0.000478318
0.000479832
0.000482805
0.000487325
0.000493506
0.000501486
0.000511418
0.00052348
0.000537865
0.00055479
0.000574486
0.000597204
0.000623208
0.000652774
0.000686188
0.000723752
0.000765789
0.000812668
0.000864848
0.000922958
0.000987927
0.0010612
0.00114504
0.00124296
0.0013602
0.00150392
0.00168257
0.00190296
0.00216405
0.00244807
0.00270533
0.00282295
0.00282079
0.00263174
0.00239056
0.00234898
0.00265576
0.00300862
0.000516619
0.000471536
0.00198735
0.00243259
0.00258232
0.00256265
0.00239235
0.00212158
0.00181009
0.00151412
0.00127033
0.00108963
0.000965002
0.000882666
0.000828974
0.000792961
0.000766722
0.000745118
0.00072524
0.000705783
0.000686419
0.000667296
0.000648702
0.000630889
0.000614008
0.000598115
0.0005832
0.000569219
0.00055612
0.000543859
0.000532405
0.000521747
0.000511886
0.000502835
0.00049462
0.000487269
0.000480818
0.000475308
0.000470781
0.000467286