/*--------------------------------*- C++ -*----------------------------------*\
  =========                 |
  \\      /  F ield         | OpenFOAM: The Open Source CFD Toolbox
   \\    /   O peration     | Website:  https://openfoam.org
    \\  /    A nd           | Version:  13
     \\/     M anipulation  |
\*---------------------------------------------------------------------------*/
FoamFile
{
    format      ascii;
    class       volScalarField;
    location    "5.8";
    object      nut;
}
// * * * * * * * * * * * * * * * * * * * * * * * * * * * * * * * * * * * * * //

dimensions      [0 2 -1 0 0 0 0];

internalField   nonuniform List<scalar> 
6400
(
8.60316e-10
4.41727e-09
1.07015e-08
1.72747e-08
2.22796e-08
2.51225e-08
2.61784e-08
2.62911e-08
2.64309e-08
2.73766e-08
2.97109e-08
3.43502e-08
4.17595e-08
5.21113e-08
6.49268e-08
7.95162e-08
9.51587e-08
1.11503e-07
1.27879e-07
1.43777e-07
1.59615e-07
1.76665e-07
1.96696e-07
2.21045e-07
2.49116e-07
2.78184e-07
3.06987e-07
3.35527e-07
3.64566e-07
3.94874e-07
4.26277e-07
4.57488e-07
4.88186e-07
5.18139e-07
5.48282e-07
5.78763e-07
6.10301e-07
6.43119e-07
6.7767e-07
7.14118e-07
7.52716e-07
7.93747e-07
8.37468e-07
8.84419e-07
9.34857e-07
9.9016e-07
1.05293e-06
1.1288e-06
1.21501e-06
1.29816e-06
1.38335e-06
1.46511e-06
1.54363e-06
1.61531e-06
1.67827e-06
1.7292e-06
1.75995e-06
1.77373e-06
1.77694e-06
1.75096e-06
1.69748e-06
1.61715e-06
1.51099e-06
1.38158e-06
1.23353e-06
1.07265e-06
9.0802e-07
7.46209e-07
5.9355e-07
4.55296e-07
3.44224e-07
2.50871e-07
1.75197e-07
1.17102e-07
7.52046e-08
4.66135e-08
2.79543e-08
1.59575e-08
7.50613e-09
1.59383e-09
4.17025e-09
2.97515e-07
1.07128e-06
1.81771e-06
2.37575e-06
2.70686e-06
2.85947e-06
2.91234e-06
2.94624e-06
3.01757e-06
3.19696e-06
3.55234e-06
4.05711e-06
4.65294e-06
5.27959e-06
5.87394e-06
6.39197e-06
6.78973e-06
7.04843e-06
7.17747e-06
7.24201e-06
7.31339e-06
7.45495e-06
7.70464e-06
8.01945e-06
8.26551e-06
8.47196e-06
8.69775e-06
8.98723e-06
9.3774e-06
9.8911e-06
1.04533e-05
1.10687e-05
1.16997e-05
1.23675e-05
1.30574e-05
1.3779e-05
1.45273e-05
1.53077e-05
1.6119e-05
1.69561e-05
1.78214e-05
1.87085e-05
1.96468e-05
2.06123e-05
2.15808e-05
2.25166e-05
2.33792e-05
2.42023e-05
2.5077e-05
2.59471e-05
2.68227e-05
2.76791e-05
2.8501e-05
2.9264e-05
3.00005e-05
3.05382e-05
3.08234e-05
3.11032e-05
3.11472e-05
3.08843e-05
3.03032e-05
2.94089e-05
2.81613e-05
2.65751e-05
2.46782e-05
2.25856e-05
2.03202e-05
1.79097e-05
1.53722e-05
1.25125e-05
9.71881e-06
7.23725e-06
5.18094e-06
3.58571e-06
2.42565e-06
1.61082e-06
1.03195e-06
4.63684e-07
8.42873e-09
9.14422e-09
7.77361e-07
3.16628e-06
5.54446e-06
7.38083e-06
8.57886e-06
9.25255e-06
9.5899e-06
9.79221e-06
1.00348e-05
1.04393e-05
1.10908e-05
1.19667e-05
1.29713e-05
1.39806e-05
1.48767e-05
1.561e-05
1.61554e-05
1.65098e-05
1.66861e-05
1.67041e-05
1.66424e-05
1.6584e-05
1.65717e-05
1.6637e-05
1.68565e-05
1.71803e-05
1.74883e-05
1.78204e-05
1.81688e-05
1.85886e-05
1.91714e-05
2.00844e-05
2.10271e-05
2.21012e-05
2.32354e-05
2.44505e-05
2.5704e-05
2.69972e-05
2.83731e-05
2.97517e-05
3.11452e-05
3.25487e-05
3.38852e-05
3.51651e-05
3.64019e-05
3.76106e-05
3.8816e-05
4.00281e-05
4.12498e-05
4.2463e-05
4.36633e-05
4.48333e-05
4.59561e-05
4.70069e-05
4.79555e-05
4.87452e-05
4.93688e-05
4.96654e-05
4.99004e-05
4.98087e-05
4.94051e-05
4.8675e-05
4.74694e-05
4.57296e-05
4.33972e-05
4.07083e-05
3.76608e-05
3.42625e-05
3.05631e-05
2.6591e-05
2.24778e-05
1.84196e-05
1.46223e-05
1.12672e-05
8.42824e-06
6.1621e-06
4.21821e-06
1.74638e-06
2.24622e-08
1.59126e-08
1.27957e-06
5.00663e-06
8.61684e-06
1.14257e-05
1.33603e-05
1.45623e-05
1.52424e-05
1.56567e-05
1.60164e-05
1.6517e-05
1.72796e-05
1.8284e-05
1.93911e-05
2.04367e-05
2.13088e-05
2.19437e-05
2.23351e-05
2.25089e-05
2.25195e-05
2.24285e-05
2.23377e-05
2.23161e-05
2.24095e-05
2.24654e-05
2.24785e-05
2.23788e-05
2.26746e-05
2.33136e-05
2.4187e-05
2.54167e-05
2.65813e-05
2.7764e-05
2.89863e-05
3.02704e-05
3.15444e-05
3.281e-05
3.41273e-05
3.54259e-05
3.66811e-05
3.79126e-05
3.91143e-05
4.02839e-05
4.14095e-05
4.24961e-05
4.35374e-05
4.45838e-05
4.5628e-05
4.6672e-05
4.77111e-05
4.87373e-05
4.97423e-05
5.07136e-05
5.16361e-05
5.24901e-05
5.32529e-05
5.38971e-05
5.43978e-05
5.47128e-05
5.48267e-05
5.47325e-05
5.43564e-05
5.3587e-05
5.28205e-05
5.16728e-05
4.98542e-05
4.75738e-05
4.47942e-05
4.1605e-05
3.80527e-05
3.41733e-05
3.00263e-05
2.57095e-05
2.13831e-05
1.72478e-05
1.34847e-05
1.02006e-05
7.11506e-06
2.9271e-06
3.71789e-08
2.55639e-08
1.92647e-06
6.98832e-06
1.16547e-05
1.51556e-05
1.75203e-05
1.89728e-05
1.97863e-05
2.02626e-05
2.07095e-05
2.13748e-05
2.23438e-05
2.35156e-05
2.46932e-05
2.5698e-05
2.64286e-05
2.68606e-05
2.70281e-05
2.69807e-05
2.68364e-05
2.65952e-05
2.6431e-05
2.62795e-05
2.56643e-05
2.55089e-05
2.58921e-05
2.6794e-05
2.78714e-05
2.90051e-05
3.02568e-05
3.14988e-05
3.27032e-05
3.39e-05
3.50576e-05
3.61611e-05
3.71712e-05
3.81762e-05
3.9157e-05
3.99884e-05
4.07737e-05
4.14789e-05
4.21264e-05
4.27402e-05
4.33359e-05
4.39391e-05
4.45691e-05
4.51887e-05
4.58157e-05
4.64496e-05
4.70949e-05
4.77536e-05
4.84272e-05
4.91142e-05
4.98111e-05
5.05111e-05
5.12044e-05
5.18739e-05
5.2497e-05
5.3039e-05
5.34534e-05
5.36366e-05
5.36225e-05
5.32292e-05
5.2235e-05
5.1366e-05
5.03651e-05
4.86061e-05
4.63667e-05
4.37125e-05
4.06812e-05
3.73033e-05
3.36019e-05
2.96065e-05
2.53949e-05
2.11541e-05
1.70768e-05
1.32382e-05
9.26803e-06
3.7424e-06
4.71767e-08
3.93692e-08
2.80119e-06
9.33667e-06
1.49909e-05
1.89902e-05
2.15436e-05
2.3018e-05
2.38057e-05
2.43118e-05
2.48999e-05
2.57764e-05
2.6923e-05
2.81572e-05
2.9261e-05
3.00773e-05
3.05411e-05
3.0667e-05
3.05737e-05
3.01743e-05
2.98477e-05
2.9427e-05
2.84854e-05
2.82708e-05
2.88477e-05
2.97545e-05
3.07482e-05
3.18659e-05
3.29824e-05
3.40686e-05
3.51096e-05
3.60292e-05
3.69159e-05
3.77389e-05
3.84465e-05
3.90438e-05
3.95662e-05
3.99959e-05
4.0413e-05
4.07408e-05
4.10191e-05
4.12684e-05
4.15026e-05
4.17099e-05
4.19042e-05
4.20896e-05
4.2268e-05
4.24404e-05
4.26178e-05
4.28079e-05
4.30201e-05
4.32664e-05
4.35594e-05
4.39119e-05
4.43355e-05
4.48365e-05
4.5408e-05
4.60493e-05
4.6759e-05
4.75024e-05
4.8231e-05
4.89073e-05
4.94479e-05
4.96765e-05
4.96505e-05
4.88425e-05
4.83752e-05
4.72477e-05
4.55524e-05
4.33979e-05
4.08374e-05
3.79358e-05
3.47316e-05
3.12186e-05
2.73586e-05
2.32657e-05
1.91026e-05
1.49848e-05
1.05133e-05
4.12406e-06
5.06843e-08
5.85791e-08
3.94862e-06
1.20894e-05
1.86305e-05
2.29462e-05
2.5506e-05
2.68663e-05
2.75708e-05
2.81166e-05
2.8852e-05
2.98797e-05
3.10759e-05
3.22144e-05
3.30936e-05
3.36052e-05
3.37363e-05
3.33254e-05
3.28915e-05
3.24902e-05
3.13368e-05
3.09456e-05
3.12823e-05
3.2095e-05
3.28025e-05
3.36637e-05
3.4535e-05
3.54108e-05
3.61937e-05
3.69013e-05
3.75512e-05
3.81161e-05
3.85964e-05
3.89813e-05
3.92746e-05
3.94964e-05
3.96612e-05
3.97762e-05
3.98579e-05
3.98864e-05
3.98975e-05
3.98972e-05
3.98615e-05
3.98121e-05
3.97406e-05
3.96602e-05
3.95604e-05
3.94503e-05
3.9328e-05
3.92048e-05
3.90827e-05
3.89728e-05
3.88901e-05
3.88585e-05
3.89115e-05
3.91012e-05
3.943e-05
3.98829e-05
4.05385e-05
4.13698e-05
4.2307e-05
4.33255e-05
4.43461e-05
4.53449e-05
4.59157e-05
4.61089e-05
4.54861e-05
4.54188e-05
4.426e-05
4.25295e-05
4.02776e-05
3.76262e-05
3.46932e-05
3.15342e-05
2.81026e-05
2.42606e-05
2.02209e-05
1.58971e-05
1.08154e-05
4.11186e-06
4.91672e-08
8.43675e-08
5.39046e-06
1.51842e-05
2.24731e-05
2.69328e-05
2.93726e-05
3.05563e-05
3.11718e-05
3.1755e-05
3.25797e-05
3.36326e-05
3.47164e-05
3.55969e-05
3.61064e-05
3.6206e-05
3.57158e-05
3.52589e-05
3.43263e-05
3.35264e-05
3.33764e-05
3.38545e-05
3.42249e-05
3.48125e-05
3.54116e-05
3.61539e-05
3.6794e-05
3.73811e-05
3.7858e-05
3.82595e-05
3.85788e-05
3.88185e-05
3.89898e-05
3.91004e-05
3.91657e-05
3.9199e-05
3.92067e-05
3.91923e-05
3.916e-05
3.91094e-05
3.90492e-05
3.89471e-05
3.88789e-05
3.87893e-05
3.86322e-05
3.85005e-05
3.83357e-05
3.81665e-05
3.79805e-05
3.77775e-05
3.75563e-05
3.73163e-05
3.70564e-05
3.67731e-05
3.64627e-05
3.61178e-05
3.58283e-05
3.57388e-05
3.5868e-05
3.64025e-05
3.71882e-05
3.82291e-05
3.95043e-05
4.08183e-05
4.2128e-05
4.31011e-05
4.34755e-05
4.3091e-05
4.3156e-05
4.19382e-05
3.99983e-05
3.74707e-05
3.45487e-05
3.14218e-05
2.81887e-05
2.46919e-05
2.0715e-05
1.63596e-05
1.09708e-05
4.00419e-06
4.57012e-08
1.17589e-07
7.11356e-06
1.85344e-05
2.63703e-05
3.0856e-05
3.31028e-05
3.40887e-05
3.46116e-05
3.51919e-05
3.60032e-05
3.69383e-05
3.77671e-05
3.82808e-05
3.82581e-05
3.77821e-05
3.72867e-05
3.60406e-05
3.55006e-05
3.54949e-05
3.5518e-05
3.57475e-05
3.61749e-05
3.66834e-05
3.71772e-05
3.76679e-05
3.80395e-05
3.83484e-05
3.85682e-05
3.87359e-05
3.88505e-05
3.89304e-05
3.89862e-05
3.90282e-05
3.90631e-05
3.90932e-05
3.91187e-05
3.91384e-05
3.91496e-05
3.91477e-05
3.91159e-05
3.90904e-05
3.907e-05
3.89746e-05
3.88924e-05
3.8787e-05
3.86607e-05
3.85145e-05
3.83458e-05
3.81542e-05
3.79353e-05
3.76856e-05
3.74022e-05
3.70776e-05
3.67044e-05
3.62713e-05
3.57698e-05
3.52143e-05
3.46026e-05
3.3968e-05
3.37869e-05
3.42174e-05
3.52659e-05
3.65578e-05
3.8155e-05
3.97535e-05
4.1032e-05
4.15379e-05
4.14107e-05
4.15263e-05
4.01284e-05
3.78739e-05
3.495e-05
3.16268e-05
2.81798e-05
2.47175e-05
2.09174e-05
1.64157e-05
1.072e-05
3.72457e-06
4.19423e-08
1.58627e-07
9.05277e-06
2.19834e-05
3.02341e-05
3.4654e-05
3.66662e-05
3.74422e-05
3.78471e-05
3.83499e-05
3.90283e-05
3.97149e-05
4.01813e-05
4.00525e-05
3.95442e-05
3.90019e-05
3.78859e-05
3.73261e-05
3.7072e-05
3.67831e-05
3.69268e-05
3.71766e-05
3.75319e-05
3.78791e-05
3.81811e-05
3.84314e-05
3.85996e-05
3.87338e-05
3.88295e-05
3.89186e-05
3.90028e-05
3.90965e-05
3.92001e-05
3.93143e-05
3.94352e-05
3.9557e-05
3.96706e-05
3.97734e-05
3.98617e-05
3.9912e-05
3.99428e-05
3.99693e-05
3.99467e-05
3.98963e-05
3.98262e-05
3.97261e-05
3.96032e-05
3.94569e-05
3.92906e-05
3.9106e-05
3.89057e-05
3.8686e-05
3.84365e-05
3.81483e-05
3.78049e-05
3.73927e-05
3.68906e-05
3.62822e-05
3.5552e-05
3.47081e-05
3.38177e-05
3.29428e-05
3.23876e-05
3.30013e-05
3.43275e-05
3.60235e-05
3.78704e-05
3.94735e-05
4.01245e-05
4.01194e-05
4.02151e-05
3.85763e-05
3.59354e-05
3.25307e-05
2.87187e-05
2.48574e-05
2.09484e-05
1.64239e-05
1.05985e-05
3.49994e-06
3.91109e-08
2.0796e-07
1.10583e-05
2.53883e-05
3.398e-05
3.82794e-05
4.00324e-05
4.05789e-05
4.08157e-05
4.11481e-05
4.15778e-05
4.19093e-05
4.16941e-05
4.11047e-05
4.04948e-05
3.95516e-05
3.88527e-05
3.82837e-05
3.79227e-05
3.77997e-05
3.7947e-05
3.81255e-05
3.83449e-05
3.85226e-05
3.86648e-05
3.87757e-05
3.88663e-05
3.89695e-05
3.90878e-05
3.92375e-05
3.9413e-05
3.96143e-05
3.98311e-05
4.00549e-05
4.02734e-05
4.05017e-05
4.06923e-05
4.08103e-05
4.09475e-05
4.10674e-05
4.11259e-05
4.11631e-05
4.11574e-05
4.11227e-05
4.10559e-05
4.09577e-05
4.0831e-05
4.06763e-05
4.04956e-05
4.02898e-05
4.00594e-05
3.98043e-05
3.95244e-05
3.92196e-05
3.88888e-05
3.85298e-05
3.81373e-05
3.7643e-05
3.70064e-05
3.61926e-05
3.52046e-05
3.40808e-05
3.29177e-05
3.18495e-05
3.14388e-05
3.25937e-05
3.42082e-05
3.63121e-05
3.81667e-05
3.89568e-05
3.89764e-05
3.8999e-05
3.70507e-05
3.39495e-05
2.99954e-05
2.56531e-05
2.12781e-05
1.65027e-05
1.05873e-05
3.48984e-06
3.87729e-08
2.68498e-07
1.2902e-05
2.86495e-05
3.7546e-05
4.16941e-05
4.31684e-05
4.34526e-05
4.34545e-05
4.35198e-05
4.35988e-05
4.32777e-05
4.25806e-05
4.19166e-05
4.1036e-05
4.02534e-05
3.93509e-05
3.88608e-05
3.85758e-05
3.8513e-05
3.859e-05
3.86682e-05
3.87662e-05
3.88413e-05
3.89242e-05
3.90253e-05
3.91628e-05
3.93493e-05
3.95799e-05
3.98521e-05
4.01512e-05
4.04666e-05
4.07833e-05
4.11149e-05
4.14219e-05
4.16669e-05
4.18646e-05
4.20562e-05
4.22553e-05
4.23733e-05
4.24626e-05
4.25135e-05
4.25263e-05
4.25042e-05
4.24464e-05
4.23546e-05
4.22301e-05
4.20743e-05
4.18885e-05
4.16738e-05
4.14308e-05
4.11596e-05
4.08593e-05
4.0528e-05
4.01624e-05
3.97584e-05
3.93123e-05
3.88221e-05
3.82847e-05
3.76554e-05
3.68243e-05
3.5742e-05
3.4485e-05
3.30841e-05
3.17137e-05
3.06098e-05
3.11392e-05
3.27656e-05
3.4995e-05
3.69978e-05
3.78463e-05
3.78562e-05
3.76987e-05
3.53425e-05
3.16803e-05
2.71673e-05
2.2248e-05
1.7094e-05
1.09253e-05
3.67362e-06
4.08084e-08
3.36157e-07
1.47339e-05
3.17571e-05
4.0898e-05
4.4868e-05
4.60409e-05
4.60191e-05
4.57121e-05
4.54195e-05
4.49253e-05
4.40876e-05
4.33854e-05
4.24859e-05
4.15978e-05
4.04487e-05
3.96906e-05
3.92614e-05
3.90185e-05
3.89442e-05
3.89406e-05
3.89514e-05
3.89995e-05
3.9073e-05
3.9204e-05
3.93955e-05
3.96534e-05
3.99703e-05
4.03312e-05
4.07221e-05
4.11251e-05
4.15274e-05
4.19345e-05
4.23116e-05
4.26414e-05
4.29261e-05
4.31958e-05
4.34134e-05
4.36105e-05
4.37813e-05
4.38941e-05
4.39704e-05
4.40059e-05
4.40032e-05
4.3961e-05
4.38807e-05
4.37629e-05
4.36088e-05
4.34198e-05
4.31976e-05
4.29435e-05
4.26585e-05
4.23428e-05
4.19949e-05
4.16113e-05
4.1186e-05
4.07108e-05
4.01765e-05
3.95763e-05
3.89101e-05
3.81836e-05
3.7313e-05
3.61964e-05
3.48083e-05
3.32434e-05
3.16626e-05
3.03452e-05
3.00118e-05
3.1605e-05
3.3866e-05
3.59173e-05
3.67348e-05
3.66368e-05
3.61571e-05
3.32057e-05
2.89812e-05
2.38649e-05
1.82669e-05
1.18734e-05
4.19696e-06
4.80908e-08
4.08928e-07
1.65171e-05
3.46679e-05
4.40032e-05
4.77751e-05
4.86229e-05
4.82462e-05
4.75567e-05
4.67767e-05
4.57344e-05
4.49868e-05
4.39166e-05
4.29096e-05
4.15909e-05
4.05545e-05
3.98988e-05
3.95046e-05
3.92734e-05
3.91715e-05
3.91296e-05
3.9142e-05
3.92282e-05
3.93873e-05
3.96354e-05
3.99608e-05
4.03542e-05
4.07956e-05
4.12663e-05
4.17492e-05
4.22293e-05
4.26961e-05
4.31415e-05
4.35505e-05
4.39235e-05
4.42642e-05
4.45831e-05
4.48593e-05
4.50717e-05
4.52473e-05
4.5434e-05
4.55465e-05
4.56137e-05
4.56401e-05
4.56199e-05
4.55552e-05
4.5445e-05
4.52904e-05
4.50927e-05
4.4854e-05
4.45772e-05
4.4265e-05
4.39205e-05
4.35452e-05
4.3139e-05
4.26982e-05
4.22148e-05
4.16756e-05
4.1063e-05
4.03591e-05
3.95532e-05
3.86543e-05
3.76296e-05
3.6434e-05
3.49563e-05
3.32703e-05
3.15738e-05
3.00147e-05
2.91382e-05
3.06139e-05
3.28845e-05
3.48656e-05
3.55395e-05
3.52276e-05
3.40991e-05
3.05537e-05
2.56875e-05
1.99079e-05
1.32092e-05
5.12183e-06
6.43052e-08
4.84454e-07
1.82115e-05
3.73424e-05
4.68367e-05
5.0399e-05
5.09043e-05
5.01347e-05
4.90114e-05
4.76876e-05
4.68382e-05
4.54285e-05
4.42888e-05
4.27998e-05
4.15158e-05
4.05864e-05
3.9997e-05
3.96234e-05
3.94023e-05
3.93023e-05
3.92884e-05
3.93733e-05
3.9564e-05
3.98544e-05
4.02397e-05
4.06966e-05
4.12065e-05
4.17465e-05
4.22988e-05
4.28486e-05
4.33851e-05
4.39004e-05
4.43891e-05
4.48467e-05
4.52748e-05
4.5673e-05
4.60393e-05
4.63681e-05
4.668e-05
4.68937e-05
4.70691e-05
4.72933e-05
4.73921e-05
4.74594e-05
4.74688e-05
4.74242e-05
4.73234e-05
4.71664e-05
4.69543e-05
4.66891e-05
4.63744e-05
4.60149e-05
4.56164e-05
4.51847e-05
4.47252e-05
4.42408e-05
4.37299e-05
4.31844e-05
4.25873e-05
4.19119e-05
4.11248e-05
4.01952e-05
3.91149e-05
3.78968e-05
3.6406e-05
3.48442e-05
3.31545e-05
3.13543e-05
2.956e-05
2.8377e-05
2.97284e-05
3.20347e-05
3.37822e-05
3.41528e-05
3.37799e-05
3.15075e-05
2.7234e-05
2.16156e-05
1.47655e-05
6.11768e-06
8.82366e-08
5.60342e-07
1.97823e-05
3.97547e-05
4.93884e-05
5.27337e-05
5.28998e-05
5.16809e-05
5.00885e-05
4.89676e-05
4.72096e-05
4.58174e-05
4.41468e-05
4.26134e-05
4.13999e-05
4.05588e-05
4.00158e-05
3.96699e-05
3.94848e-05
3.94368e-05
3.95113e-05
3.97157e-05
4.00402e-05
4.04678e-05
4.09781e-05
4.15441e-05
4.21448e-05
4.276e-05
4.33758e-05
4.3982e-05
4.45717e-05
4.5141e-05
4.56873e-05
4.62091e-05
4.67059e-05
4.7175e-05
4.7613e-05
4.80156e-05
4.84053e-05
4.87311e-05
4.89254e-05
4.9199e-05
4.93845e-05
4.94905e-05
4.95398e-05
4.95207e-05
4.94338e-05
4.92768e-05
4.90499e-05
4.87544e-05
4.83937e-05
4.7973e-05
4.74996e-05
4.69826e-05
4.64324e-05
4.58592e-05
4.52711e-05
4.46708e-05
4.40524e-05
4.33972e-05
4.26703e-05
4.18211e-05
4.0791e-05
3.95894e-05
3.82437e-05
3.63136e-05
3.45503e-05
3.28982e-05
3.09846e-05
2.89439e-05
2.76175e-05
2.89199e-05
3.12862e-05
3.26104e-05
3.25412e-05
3.17669e-05
2.82444e-05
2.30541e-05
1.62986e-05
7.11144e-06
1.18064e-07
6.3497e-07
2.11852e-05
4.18974e-05
5.16884e-05
5.4756e-05
5.44224e-05
5.28727e-05
5.13067e-05
4.93204e-05
4.75815e-05
4.57073e-05
4.39107e-05
4.23929e-05
4.12604e-05
4.0492e-05
3.9996e-05
3.97031e-05
3.95917e-05
3.96416e-05
3.98408e-05
4.0181e-05
4.06381e-05
4.11865e-05
4.17996e-05
4.24519e-05
4.31248e-05
4.38033e-05
4.44784e-05
4.5144e-05
4.57969e-05
4.64353e-05
4.70574e-05
4.76615e-05
4.82447e-05
4.88029e-05
4.93313e-05
4.98247e-05
5.03028e-05
5.07261e-05
5.09806e-05
5.13001e-05
5.15793e-05
5.17298e-05
5.18249e-05
5.18374e-05
5.17706e-05
5.16198e-05
5.13843e-05
5.10637e-05
5.06601e-05
5.01777e-05
4.96234e-05
4.90074e-05
4.83426e-05
4.76446e-05
4.69297e-05
4.62125e-05
4.55023e-05
4.47976e-05
4.40801e-05
4.33093e-05
4.24182e-05
4.13171e-05
4.00138e-05
3.8392e-05
3.61705e-05
3.41394e-05
3.24983e-05
3.04485e-05
2.81778e-05
2.68811e-05
2.81885e-05
3.04075e-05
3.14838e-05
3.06534e-05
2.86305e-05
2.40776e-05
1.76175e-05
7.98274e-06
1.51964e-07
7.07047e-07
2.2432e-05
4.378e-05
5.35965e-05
5.62883e-05
5.57445e-05
5.42762e-05
5.20953e-05
4.96825e-05
4.75614e-05
4.54816e-05
4.36315e-05
4.2164e-05
4.11127e-05
4.04126e-05
3.99808e-05
3.97725e-05
3.97679e-05
3.99425e-05
4.02767e-05
4.07465e-05
4.13198e-05
4.1968e-05
4.26645e-05
4.33886e-05
4.41262e-05
4.4868e-05
4.5609e-05
4.63465e-05
4.70788e-05
4.78043e-05
4.85202e-05
4.92228e-05
4.99069e-05
5.05663e-05
5.11943e-05
5.17839e-05
5.23611e-05
5.28754e-05
5.31883e-05
5.35702e-05
5.39315e-05
5.41325e-05
5.42742e-05
5.4323e-05
5.42822e-05
5.4146e-05
5.39121e-05
5.35784e-05
5.31449e-05
5.26136e-05
5.19893e-05
5.12806e-05
5.05002e-05
4.96652e-05
4.87966e-05
4.79178e-05
4.70513e-05
4.6214e-05
4.54103e-05
4.46241e-05
4.381e-05
4.28853e-05
4.17265e-05
4.03237e-05
3.82983e-05
3.58719e-05
3.36134e-05
3.19394e-05
2.96834e-05
2.71662e-05
2.62563e-05
2.75853e-05
2.91997e-05
2.9598e-05
2.85523e-05
2.46715e-05
1.86185e-05
8.67071e-06
1.88414e-07
7.73719e-07
2.34983e-05
4.52961e-05
5.50638e-05
5.74923e-05
5.71517e-05
5.5087e-05
5.23843e-05
4.98958e-05
4.74074e-05
4.51942e-05
4.3342e-05
4.19431e-05
4.09725e-05
4.03485e-05
4.00049e-05
3.99074e-05
4.00283e-05
4.03345e-05
4.07961e-05
4.13794e-05
4.20504e-05
4.27815e-05
4.35501e-05
4.43413e-05
4.51461e-05
4.59596e-05
4.67797e-05
4.7605e-05
4.84333e-05
4.92614e-05
5.00843e-05
5.08954e-05
5.16872e-05
5.24513e-05
5.31794e-05
5.3863e-05
5.45355e-05
5.51254e-05
5.54995e-05
5.59448e-05
5.63738e-05
5.66257e-05
5.68114e-05
5.68978e-05
5.6887e-05
5.67728e-05
5.65516e-05
5.62196e-05
5.57744e-05
5.52153e-05
5.45438e-05
5.37652e-05
5.2889e-05
5.19305e-05
5.09109e-05
4.98574e-05
4.8801e-05
4.77731e-05
4.67994e-05
4.58909e-05
4.50344e-05
4.41813e-05
4.32372e-05
4.20522e-05
4.041e-05
3.7995e-05
3.5407e-05
3.29745e-05
3.11893e-05
2.86218e-05
2.58679e-05
2.56152e-05
2.71644e-05
2.8188e-05
2.73422e-05
2.47954e-05
1.92519e-05
9.18105e-06
2.26018e-07
8.32497e-07
2.43554e-05
4.64421e-05
5.61647e-05
5.86948e-05
5.81637e-05
5.57737e-05
5.27567e-05
4.98462e-05
4.71691e-05
4.48822e-05
4.30624e-05
4.17418e-05
4.08557e-05
4.03224e-05
4.00882e-05
4.0116e-05
4.03661e-05
4.07968e-05
4.13709e-05
4.2051e-05
4.28052e-05
4.36096e-05
4.44474e-05
4.53091e-05
4.619e-05
4.7088e-05
4.8002e-05
4.89294e-05
4.98662e-05
5.08062e-05
5.17415e-05
5.26628e-05
5.35603e-05
5.4424e-05
5.52444e-05
5.60127e-05
5.67659e-05
5.74144e-05
5.78508e-05
5.83484e-05
5.8831e-05
5.91286e-05
5.93527e-05
5.94746e-05
5.94947e-05
5.94073e-05
5.92077e-05
5.8891e-05
5.84527e-05
5.78892e-05
5.71986e-05
5.63815e-05
5.54429e-05
5.43931e-05
5.32497e-05
5.20384e-05
5.0793e-05
4.95534e-05
4.83608e-05
4.72493e-05
4.62357e-05
4.53058e-05
4.44032e-05
4.34185e-05
4.21837e-05
4.02446e-05
3.74996e-05
3.47884e-05
3.22323e-05
3.01743e-05
2.72334e-05
2.46835e-05
2.49004e-05
2.6074e-05
2.64156e-05
2.46523e-05
1.9548e-05
9.46351e-06
2.65695e-07
8.81952e-07
2.50067e-05
4.7262e-05
5.70269e-05
5.95994e-05
5.88771e-05
5.60585e-05
5.28615e-05
4.96994e-05
4.68845e-05
4.45697e-05
4.28048e-05
4.1569e-05
4.07752e-05
4.03476e-05
4.02352e-05
4.03909e-05
4.07635e-05
4.13058e-05
4.19771e-05
4.27412e-05
4.35702e-05
4.44455e-05
4.5356e-05
4.62965e-05
4.72651e-05
4.82605e-05
4.92801e-05
5.0319e-05
5.137e-05
5.24235e-05
5.34686e-05
5.44938e-05
5.54874e-05
5.64387e-05
5.73377e-05
5.81759e-05
5.89928e-05
5.96904e-05
6.01753e-05
6.07109e-05
6.12342e-05
6.15686e-05
6.18231e-05
6.19752e-05
6.2024e-05
6.19644e-05
6.17917e-05
6.15001e-05
6.10839e-05
6.05371e-05
5.98543e-05
5.90318e-05
5.80689e-05
5.69696e-05
5.57448e-05
5.44146e-05
5.30097e-05
5.15719e-05
5.01511e-05
4.88e-05
4.75626e-05
4.64596e-05
4.54716e-05
4.45214e-05
4.34574e-05
4.20256e-05
3.96471e-05
3.68168e-05
3.40981e-05
3.12952e-05
2.88277e-05
2.55051e-05
2.38095e-05
2.43937e-05
2.50337e-05
2.37967e-05
1.95187e-05
9.58854e-06
3.06339e-07
9.21375e-07
2.54601e-05
4.78017e-05
5.7621e-05
6.02662e-05
5.93984e-05
5.6423e-05
5.28651e-05
4.94901e-05
4.65809e-05
4.42718e-05
4.25763e-05
4.14311e-05
4.07386e-05
4.0427e-05
4.04397e-05
4.07172e-05
4.12008e-05
4.18414e-05
4.25981e-05
4.34382e-05
4.43394e-05
4.52883e-05
4.62786e-05
4.7308e-05
4.83751e-05
4.94773e-05
5.06092e-05
5.17624e-05
5.2926e-05
5.40874e-05
5.52332e-05
5.63501e-05
5.74257e-05
5.84491e-05
5.94105e-05
6.03021e-05
6.11648e-05
6.19047e-05
6.24197e-05
6.29772e-05
6.35294e-05
6.38897e-05
6.41655e-05
6.434e-05
6.44122e-05
6.43781e-05
6.42332e-05
6.39719e-05
6.35876e-05
6.30729e-05
6.24199e-05
6.1621e-05
6.06699e-05
5.95639e-05
5.83059e-05
5.69072e-05
5.53906e-05
5.3793e-05
5.21653e-05
5.057e-05
4.90725e-05
4.77273e-05
4.65607e-05
4.55514e-05
4.46139e-05
4.35834e-05
4.16254e-05
3.87788e-05
3.59821e-05
3.31187e-05
3.01012e-05
2.70562e-05
2.35636e-05
2.2891e-05
2.31007e-05
2.2882e-05
1.94158e-05
9.76555e-06
3.53006e-07
9.50537e-07
2.57226e-05
4.81101e-05
5.79593e-05
6.07643e-05
5.964e-05
5.65401e-05
5.27794e-05
4.92432e-05
4.62766e-05
4.39973e-05
4.23806e-05
4.13314e-05
4.07474e-05
4.05558e-05
4.06896e-05
4.10788e-05
4.16616e-05
4.23892e-05
4.32234e-05
4.41363e-05
4.51111e-05
4.61393e-05
4.72176e-05
4.83445e-05
4.95175e-05
5.07309e-05
5.19757e-05
5.32396e-05
5.45085e-05
5.5767e-05
5.70001e-05
5.81938e-05
5.93356e-05
6.04148e-05
6.14225e-05
6.23519e-05
6.32437e-05
6.40191e-05
6.45474e-05
6.511e-05
6.56807e-05
6.6056e-05
6.63429e-05
6.65308e-05
6.6619e-05
6.66048e-05
6.64846e-05
6.62537e-05
6.59055e-05
6.54319e-05
6.48236e-05
6.40698e-05
6.31601e-05
6.20854e-05
6.08401e-05
5.94257e-05
5.78543e-05
5.61524e-05
5.43645e-05
5.25532e-05
5.07948e-05
4.91671e-05
4.77306e-05
4.65047e-05
4.54441e-05
4.44219e-05
4.32161e-05
4.07829e-05
3.77509e-05
3.48633e-05
3.17042e-05
2.85984e-05
2.47452e-05
2.22558e-05
2.20754e-05
2.22037e-05
1.93071e-05
1.01912e-05
4.14655e-07
9.69915e-07
2.58221e-05
4.81704e-05
5.80149e-05
6.0932e-05
5.99058e-05
5.65679e-05
5.26337e-05
4.89783e-05
4.59838e-05
4.37508e-05
4.22192e-05
4.12703e-05
4.07986e-05
4.07253e-05
4.09718e-05
4.14618e-05
4.21334e-05
4.294e-05
4.38474e-05
4.48332e-05
4.58853e-05
4.69989e-05
4.81719e-05
4.9402e-05
5.06836e-05
5.20074e-05
5.33603e-05
5.47265e-05
5.60892e-05
5.74313e-05
5.87371e-05
5.99923e-05
6.1185e-05
6.23053e-05
6.33452e-05
6.42984e-05
6.52028e-05
6.60082e-05
6.65393e-05
6.70898e-05
6.76695e-05
6.80495e-05
6.83376e-05
6.85292e-05
6.86245e-05
6.86223e-05
6.85207e-05
6.8316e-05
6.80025e-05
6.75726e-05
6.70161e-05
6.6321e-05
6.54734e-05
6.44591e-05
6.32651e-05
6.18832e-05
6.03132e-05
5.85687e-05
5.66818e-05
5.47074e-05
5.27236e-05
5.08241e-05
4.91025e-05
4.7627e-05
4.64106e-05
4.53872e-05
4.43947e-05
4.25644e-05
3.95887e-05
3.67161e-05
3.33865e-05
2.98666e-05
2.6318e-05
2.22368e-05
2.08867e-05
2.05278e-05
1.89252e-05
1.08617e-05
4.96692e-07
9.79552e-07
2.57558e-05
4.79773e-05
5.79482e-05
6.10647e-05
5.99396e-05
5.65071e-05
5.24475e-05
4.87095e-05
4.571e-05
4.35344e-05
4.20917e-05
4.12457e-05
4.08862e-05
4.09254e-05
4.1275e-05
4.18558e-05
4.26079e-05
4.34883e-05
4.44673e-05
4.55276e-05
4.66612e-05
4.78651e-05
4.91369e-05
5.04716e-05
5.18601e-05
5.32888e-05
5.4741e-05
5.61982e-05
5.76415e-05
5.90533e-05
6.04175e-05
6.17206e-05
6.29514e-05
6.41009e-05
6.51623e-05
6.61308e-05
6.70293e-05
6.78461e-05
6.83945e-05
6.8912e-05
6.94914e-05
6.98673e-05
7.01474e-05
7.03331e-05
7.04259e-05
7.04267e-05
7.0335e-05
7.0149e-05
6.98646e-05
6.94751e-05
6.89711e-05
6.83398e-05
6.75657e-05
6.6631e-05
6.55169e-05
6.42062e-05
6.26873e-05
6.09592e-05
5.90381e-05
5.69642e-05
5.48066e-05
5.26616e-05
5.06414e-05
4.88502e-05
4.73506e-05
4.61294e-05
4.50757e-05
4.39713e-05
4.14568e-05
3.82389e-05
3.5247e-05
3.1632e-05
2.76791e-05
2.33708e-05
2.07123e-05
1.93487e-05
1.85033e-05
1.14978e-05
5.96852e-07
9.78991e-07
2.55913e-05
4.77283e-05
5.77346e-05
6.10664e-05
5.98736e-05
5.63795e-05
5.22365e-05
4.8447e-05
4.54598e-05
4.33485e-05
4.19965e-05
4.12536e-05
4.10031e-05
4.1147e-05
4.15901e-05
4.22533e-05
4.30799e-05
4.40307e-05
4.50811e-05
4.62181e-05
4.74363e-05
4.87331e-05
5.01041e-05
5.15411e-05
5.30307e-05
5.45556e-05
5.60962e-05
5.76318e-05
5.91428e-05
6.06112e-05
6.20215e-05
6.33611e-05
6.46197e-05
6.57893e-05
6.68642e-05
6.78407e-05
6.87208e-05
6.95393e-05
7.0112e-05
7.05834e-05
7.11517e-05
7.15169e-05
7.1781e-05
7.19519e-05
7.20329e-05
7.20268e-05
7.19352e-05
7.17584e-05
7.14941e-05
7.11377e-05
7.06809e-05
7.01117e-05
6.94142e-05
6.85686e-05
6.75519e-05
6.63402e-05
6.49115e-05
6.3251e-05
6.13576e-05
5.92532e-05
5.69905e-05
5.46583e-05
5.23774e-05
5.02817e-05
4.84842e-05
4.7033e-05
4.58768e-05
4.48547e-05
4.29926e-05
3.9819e-05
3.70121e-05
3.31507e-05
2.91402e-05
2.48217e-05
2.06074e-05
1.89022e-05
1.81154e-05
1.21323e-05
7.11593e-07
9.73693e-07
2.53303e-05
4.7316e-05
5.73321e-05
6.08581e-05
5.97075e-05
5.61996e-05
5.20125e-05
4.81979e-05
4.52358e-05
4.31925e-05
4.1931e-05
4.12894e-05
4.11423e-05
4.13825e-05
4.19106e-05
4.26493e-05
4.35456e-05
4.45649e-05
4.56867e-05
4.69017e-05
4.82058e-05
4.95952e-05
5.10627e-05
5.25962e-05
5.41785e-05
5.57892e-05
5.74064e-05
5.90082e-05
6.05749e-05
6.20888e-05
6.35354e-05
6.49026e-05
6.61812e-05
6.7364e-05
6.84454e-05
6.94216e-05
7.02897e-05
7.10959e-05
7.16971e-05
7.21254e-05
7.2659e-05
7.3012e-05
7.32538e-05
7.3402e-05
7.34625e-05
7.344e-05
7.33383e-05
7.316e-05
7.29052e-05
7.25715e-05
7.21527e-05
7.16386e-05
7.10138e-05
7.02581e-05
6.93465e-05
6.82502e-05
6.6939e-05
6.53858e-05
6.35731e-05
6.15021e-05
5.92037e-05
5.67491e-05
5.42529e-05
5.18637e-05
4.97333e-05
4.79683e-05
4.65763e-05
4.54305e-05
4.42689e-05
4.15298e-05
3.84055e-05
3.51531e-05
3.06496e-05
2.61109e-05
2.10528e-05
1.84103e-05
1.70198e-05
1.27547e-05
8.25486e-07
9.61957e-07
2.50147e-05
4.66506e-05
5.68086e-05
6.05232e-05
5.94572e-05
5.59794e-05
5.17844e-05
4.79671e-05
4.50392e-05
4.3065e-05
4.18925e-05
4.13483e-05
4.1298e-05
4.1626e-05
4.22316e-05
4.30401e-05
4.40025e-05
4.50884e-05
4.62814e-05
4.75743e-05
4.89631e-05
5.04419e-05
5.20003e-05
5.36224e-05
5.52875e-05
5.69729e-05
5.86551e-05
6.03122e-05
6.19244e-05
6.34751e-05
6.49503e-05
6.63391e-05
6.76327e-05
6.88243e-05
6.99087e-05
7.08819e-05
7.17409e-05
7.2525e-05
7.31552e-05
7.35478e-05
7.40312e-05
7.43687e-05
7.45835e-05
7.47027e-05
7.47351e-05
7.46875e-05
7.4566e-05
7.43754e-05
7.41187e-05
7.37959e-05
7.34035e-05
7.29336e-05
7.23726e-05
7.17013e-05
7.0894e-05
6.99192e-05
6.87412e-05
6.73229e-05
6.56322e-05
6.36503e-05
6.13842e-05
5.88806e-05
5.62376e-05
5.36045e-05
5.11613e-05
4.90721e-05
4.74215e-05
4.6161e-05
4.50918e-05
4.29071e-05
3.96413e-05
3.69247e-05
3.21249e-05
2.74709e-05
2.24052e-05
1.85193e-05
1.60105e-05
1.32009e-05
9.12104e-07
9.43814e-07
2.46124e-05
4.59168e-05
5.61993e-05
6.00722e-05
5.9135e-05
5.57288e-05
5.15586e-05
4.7758e-05
4.48705e-05
4.29646e-05
4.18778e-05
4.14259e-05
4.14649e-05
4.18731e-05
4.25494e-05
4.34228e-05
4.44479e-05
4.55984e-05
4.68612e-05
4.823e-05
4.97001e-05
5.1263e-05
5.29047e-05
5.46058e-05
5.63433e-05
5.80925e-05
5.98295e-05
6.15324e-05
6.31821e-05
6.47629e-05
6.62616e-05
6.76681e-05
6.89741e-05
7.0173e-05
7.12601e-05
7.22316e-05
7.30855e-05
7.38398e-05
7.4478e-05
7.48643e-05
7.52862e-05
7.56032e-05
7.57875e-05
7.58728e-05
7.58709e-05
7.57907e-05
7.56407e-05
7.54279e-05
7.51581e-05
7.48342e-05
7.44556e-05
7.40171e-05
7.35078e-05
7.29105e-05
7.22004e-05
7.13451e-05
7.03057e-05
6.90381e-05
6.74981e-05
6.56489e-05
6.34734e-05
6.09903e-05
5.8271e-05
5.54507e-05
5.27196e-05
5.02835e-05
4.82948e-05
4.67744e-05
4.55672e-05
4.40638e-05
4.08247e-05
3.83385e-05
3.41106e-05
2.88118e-05
2.36703e-05
1.88581e-05
1.55179e-05
1.3371e-05
9.49949e-07
9.20196e-07
2.41052e-05
4.50731e-05
5.5498e-05
5.95277e-05
5.8753e-05
5.54556e-05
5.13401e-05
4.75725e-05
4.47295e-05
4.28897e-05
4.18841e-05
4.15184e-05
4.16392e-05
4.21201e-05
4.28613e-05
4.37947e-05
4.48792e-05
4.60917e-05
4.74213e-05
4.88624e-05
5.04084e-05
5.2048e-05
5.3764e-05
5.55343e-05
5.73337e-05
5.91369e-05
6.09196e-05
6.26606e-05
6.43416e-05
6.59478e-05
6.74669e-05
6.88891e-05
7.02066e-05
7.1413e-05
7.25033e-05
7.3474e-05
7.4323e-05
7.50503e-05
7.56867e-05
7.60778e-05
7.64364e-05
7.67284e-05
7.68799e-05
7.6928e-05
7.68872e-05
7.67687e-05
7.65828e-05
7.63393e-05
7.60464e-05
7.57101e-05
7.53327e-05
7.49124e-05
7.44413e-05
7.39049e-05
7.32806e-05
7.25368e-05
7.16333e-05
7.05218e-05
6.91492e-05
6.74638e-05
6.54266e-05
6.30271e-05
6.0305e-05
5.73698e-05
5.44061e-05
5.16494e-05
4.93191e-05
4.75261e-05
4.61944e-05
4.50407e-05
4.22481e-05
3.94403e-05
3.6013e-05
2.99798e-05
2.46019e-05
1.89153e-05
1.56631e-05
1.33598e-05
9.55895e-07
8.92414e-07
2.35625e-05
4.41443e-05
5.47109e-05
5.89058e-05
5.83216e-05
5.51659e-05
5.11322e-05
4.7412e-05
4.4616e-05
4.28386e-05
4.19086e-05
4.16222e-05
4.18173e-05
4.23641e-05
4.31644e-05
4.41534e-05
4.52933e-05
4.65642e-05
4.79566e-05
4.94644e-05
5.10793e-05
5.27871e-05
5.45679e-05
5.63973e-05
5.82489e-05
6.00971e-05
6.19179e-05
6.36908e-05
6.53986e-05
6.7027e-05
6.85646e-05
7.00018e-05
7.1331e-05
7.25456e-05
7.36402e-05
7.46105e-05
7.54533e-05
7.61658e-05
7.67928e-05
7.71902e-05
7.74892e-05
7.77532e-05
7.78707e-05
7.78797e-05
7.77971e-05
7.7636e-05
7.74089e-05
7.71278e-05
7.68036e-05
7.64449e-05
7.60576e-05
7.56428e-05
7.51963e-05
7.47068e-05
7.41546e-05
7.35103e-05
7.27342e-05
7.17761e-05
7.05773e-05
6.90748e-05
6.72104e-05
6.49465e-05
6.22883e-05
5.93103e-05
5.61756e-05
5.31281e-05
5.04378e-05
4.82998e-05