/*--------------------------------*- C++ -*----------------------------------*\
  =========                 |
  \\      /  F ield         | OpenFOAM: The Open Source CFD Toolbox
   \\    /   O peration     | Website:  https://openfoam.org
    \\  /    A nd           | Version:  13
     \\/     M anipulation  |
\*---------------------------------------------------------------------------*/
FoamFile
{
    format      ascii;
    class       surfaceScalarField;
    location    "5.8";
    object      phi;
}
// * * * * * * * * * * * * * * * * * * * * * * * * * * * * * * * * * * * * * //

dimensions      [0 3 -1 0 0 0 0];

internalField   nonuniform List<scalar> 
12640
(
1.5981e-09
-1.59834e-09
1.46169e-08
-1.30188e-08
3.75532e-08
-2.29363e-08
6.41284e-08
-2.65752e-08
8.82395e-08
-2.41111e-08
1.06385e-07
-1.81456e-08
1.17234e-07
-1.08487e-08
1.21583e-07
-4.34939e-09
1.21628e-07
-4.52478e-11
1.19625e-07
2.00396e-09
1.17488e-07
2.13635e-09
1.16474e-07
1.01394e-09
1.16997e-07
-5.23071e-10
1.18761e-07
-1.76333e-09
1.20968e-07
-2.20752e-09
1.22722e-07
-1.75381e-09
1.2318e-07
-4.57645e-10
1.21831e-07
1.34902e-09
1.17921e-07
3.90939e-09
1.10563e-07
7.35823e-09
9.91379e-08
1.1425e-08
8.31098e-08
1.60281e-08
6.20189e-08
2.10908e-08
3.56818e-08
2.63371e-08
4.08061e-09
3.16012e-08
-3.29347e-08
3.70153e-08
-7.64688e-08
4.35341e-08
-1.28699e-07
5.22298e-08
-1.92365e-07
6.36664e-08
-2.69843e-07
7.74776e-08
-3.60674e-07
9.08311e-08
-4.61746e-07
1.01072e-07
-5.69746e-07
1.08001e-07
-6.81379e-07
1.11633e-07
-7.9372e-07
1.12341e-07
-9.04184e-07
1.10464e-07
-1.01062e-06
1.06436e-07
-1.11127e-06
1.0065e-07
-1.20472e-06
9.3453e-08
-1.28988e-06
8.51519e-08
-1.36583e-06
7.59497e-08
-1.43184e-06
6.60181e-08
-1.48729e-06
5.54496e-08
-1.53159e-06
4.42947e-08
-1.56413e-06
3.25398e-08
-1.58437e-06
2.02376e-08
-1.59255e-06
8.18307e-09
-1.58758e-06
-4.96864e-09
-1.56854e-06
-1.90433e-08
-1.53585e-06
-3.26898e-08
-1.48852e-06
-4.73311e-08
-1.42681e-06
-6.17079e-08
-1.35064e-06
-7.6164e-08
-1.26054e-06
-9.01015e-08
-1.15708e-06
-1.0346e-07
-1.04106e-06
-1.16024e-07
-9.13729e-07
-1.27329e-07
-7.76779e-07
-1.3695e-07
-6.32407e-07
-1.44372e-07
-4.8342e-07
-1.48988e-07
-3.33174e-07
-1.50246e-07
-1.85452e-07
-1.47721e-07
-4.42733e-08
-1.41179e-07
8.64726e-08
-1.30746e-07
2.02565e-07
-1.16092e-07
2.99717e-07
-9.71523e-08
3.7459e-07
-7.48729e-08
4.24496e-07
-4.99065e-08
4.4792e-07
-2.34239e-08
4.43934e-07
3.98613e-09
4.15058e-07
2.88763e-08
3.63706e-07
5.13517e-08
2.95713e-07
6.79931e-08
2.20113e-07
7.56003e-08
1.48291e-07
7.18219e-08
8.7643e-08
6.06478e-08
4.22415e-08
4.54015e-08
1.29654e-08
2.9276e-08
3.49987e-11
1.29304e-08
3.49979e-11
1.00661e-08
-1.16644e-08
4.15198e-08
-4.44726e-08
8.54266e-08
-6.68431e-08
1.30598e-07
-7.17467e-08
1.69552e-07
-6.30648e-08
1.98477e-07
-4.70706e-08
2.16653e-07
-2.90248e-08
2.25022e-07
-1.27183e-08
2.2534e-07
-3.63259e-10
2.19906e-07
7.43771e-09
2.10942e-07
1.11004e-08
1.99956e-07
1.19997e-08
1.87414e-07
1.20189e-08
1.7278e-07
1.28711e-08
1.55004e-07
1.55685e-08
1.32935e-07
2.03144e-08
1.05683e-07
2.67945e-08
7.211e-08
3.49224e-08
3.10074e-08
4.5012e-08
-1.90421e-08
5.74077e-08
-7.9933e-08
7.23159e-08
-1.53509e-07
8.96039e-08
-2.41026e-07
1.08608e-07
-3.43306e-07
1.28617e-07
-4.60906e-07
1.49202e-07
-5.93668e-07
1.69777e-07
-7.39513e-07
1.8938e-07
-8.94546e-07
2.07262e-07
-1.05369e-06
2.22812e-07
-1.21126e-06
2.35043e-07
-1.36352e-06
2.43093e-07
-1.50919e-06
2.46747e-07
-1.64694e-06
2.4575e-07
-1.77548e-06
2.4017e-07
-1.89377e-06
2.30632e-07
-2.00113e-06
2.1782e-07
-2.09704e-06
2.02352e-07
-2.18121e-06
1.84813e-07
-2.25338e-06
1.65631e-07
-2.31343e-06
1.45199e-07
-2.36123e-06
1.2375e-07
-2.39667e-06
1.01454e-07
-2.41963e-06
7.84093e-08
-2.43001e-06
5.46837e-08
-2.4278e-06
3.03282e-08
-2.41247e-06
4.90304e-09
-2.38402e-06
-2.02636e-08
-2.34233e-06
-4.6662e-08
-2.28741e-06
-7.3965e-08
-2.21856e-06
-1.01536e-07
-2.13619e-06
-1.29699e-07
-2.03994e-06
-1.57958e-07
-1.92992e-06
-1.86191e-07
-1.80611e-06
-2.13909e-07
-1.66891e-06
-2.40659e-07
-1.51933e-06
-2.65607e-07
-1.35861e-06
-2.88042e-07
-1.18842e-06
-3.07139e-07
-1.01106e-06
-3.21734e-07
-8.29099e-07
-3.3095e-07
-6.45503e-07
-3.33842e-07
-4.63661e-07
-3.29564e-07
-2.87257e-07
-3.17583e-07
-1.20183e-07
-2.9782e-07
3.39057e-08
-2.70181e-07
1.71807e-07
-2.35054e-07
2.89806e-07
-1.92872e-07
3.85148e-07
-1.45249e-07
4.55346e-07
-9.36211e-08
4.99384e-07
-4.00519e-08
5.16134e-07
1.21262e-08
5.05442e-07
6.20431e-08
4.69433e-07
1.04002e-07
4.09735e-07
1.35298e-07
3.29187e-07
1.5237e-07
2.37788e-07
1.52047e-07
1.47904e-07
1.35286e-07
7.20264e-08
1.05154e-07
2.05144e-08
6.44424e-08
2.05494e-08
1.90115e-08
-3.06759e-08
6.36202e-08
-8.90813e-08
1.14423e-07
-1.17646e-07
1.59681e-07
-1.17005e-07
1.94769e-07
-9.81527e-08
2.18587e-07
-7.08884e-08
2.3172e-07
-4.2158e-08
2.35122e-07
-1.61208e-08
2.29928e-07
4.83163e-09
2.17537e-07
1.98282e-08
1.9938e-07
2.92575e-08
1.76047e-07
3.53325e-08
1.47357e-07
4.07093e-08
1.12534e-07
4.76935e-08
7.04299e-08
5.7673e-08
1.96668e-08
7.10775e-08
-4.14279e-08
8.78891e-08
-1.14645e-07
1.0814e-07
-2.01501e-07
1.31868e-07
-3.0324e-07
1.59147e-07
-4.20431e-07
1.89507e-07
-5.52778e-07
2.21951e-07
-6.99265e-07
2.55095e-07
-8.57656e-07
2.87008e-07
-1.02474e-06
3.1629e-07
-1.19644e-06
3.41469e-07
-1.36854e-06
3.61483e-07
-1.53717e-06
3.75889e-07
-1.69873e-06
3.8437e-07
-1.85053e-06
3.86853e-07
-1.99098e-06
3.83542e-07
-2.119e-06
3.74763e-07
-2.23444e-06
3.61192e-07
-2.33771e-06
3.43434e-07
-2.4291e-06
3.22021e-07
-2.50898e-06
2.97701e-07
-2.57766e-06
2.71031e-07
-2.63541e-06
2.42564e-07
-2.68241e-06
2.12636e-07
-2.71881e-06
1.81595e-07
-2.74468e-06
1.49622e-07
-2.76003e-06
1.168e-07
-2.76481e-06
8.31885e-08
-2.75888e-06
4.87628e-08
-2.74202e-06
1.34636e-08
-2.71438e-06
-2.27324e-08
-2.67493e-06
-5.97175e-08
-2.62379e-06
-9.78027e-08
-2.56082e-06
-1.36939e-07
-2.48543e-06
-1.76925e-07
-2.39748e-06
-2.17642e-07
-2.29675e-06
-2.58692e-07
-2.18317e-06
-2.99769e-07
-2.05679e-06
-3.40294e-07
-1.91793e-06
-3.79516e-07
-1.76717e-06
-4.16367e-07
-1.60547e-06
-4.49743e-07
-1.43417e-06
-4.78436e-07
-1.25504e-06
-5.00864e-07
-1.07048e-06
-5.15512e-07
-8.83215e-07
-5.21109e-07
-6.96474e-07
-5.16304e-07
-5.13882e-07
-5.00175e-07
-3.39153e-07
-4.72549e-07
-1.75673e-07
-4.3366e-07
-2.6687e-08
-3.8404e-07
1.05065e-07
-3.24624e-07
2.16904e-07
-2.57087e-07
3.07102e-07
-1.8382e-07
3.74756e-07
-1.07706e-07
4.18703e-07
-3.18201e-08
4.39117e-07
4.16291e-08
4.34442e-07
1.08677e-07
4.06018e-07
1.63722e-07
3.55042e-07
2.03345e-07
2.847e-07
2.22388e-07
2.01353e-07
2.18633e-07
1.15457e-07
1.9105e-07
4.07253e-08
1.39174e-07
6.12747e-08
2.64895e-08
-5.71654e-08
7.76932e-08
-1.40285e-07
1.267e-07
-1.66652e-07
1.647e-07
-1.55005e-07
1.90159e-07
-1.23612e-07
2.04138e-07
-8.48665e-08
2.0779e-07
-4.58107e-08
2.02214e-07
-1.0544e-08
1.88191e-07
1.88542e-08
1.66238e-07
4.17811e-08
1.36119e-07
5.93761e-08
9.73562e-08
7.40957e-08
4.91989e-08
8.88666e-08
-9.2736e-09
1.06166e-07
-7.91192e-08
1.27519e-07
-1.61629e-07
1.53588e-07
-2.58261e-07
1.8452e-07
-3.70305e-07
2.20184e-07
-4.98388e-07
2.5995e-07
-6.42147e-07
3.02906e-07
-7.99962e-07
3.47322e-07
-9.68783e-07
3.90771e-07
-1.14495e-06
4.31262e-07
-1.32426e-06
4.66316e-07
-1.50265e-06
4.94679e-07
-1.67627e-06
5.15092e-07
-1.84161e-06
5.26822e-07
-1.99585e-06
5.30131e-07
-2.13753e-06
5.26054e-07
-2.26615e-06
5.1547e-07
-2.38184e-06
4.99232e-07
-2.48518e-06
4.78104e-07
-2.57677e-06
4.5278e-07
-2.65732e-06
4.2399e-07
-2.72756e-06
3.92253e-07
-2.78805e-06
3.58189e-07
-2.83924e-06
3.22231e-07
-2.88148e-06
2.84803e-07
-2.91499e-06
2.46139e-07
-2.93985e-06
2.06455e-07
-2.95611e-06
1.65883e-07
-2.96372e-06
1.24409e-07
-2.96254e-06
8.20122e-08
-2.95235e-06
3.85757e-08
-2.9329e-06
-5.99089e-09
-2.90389e-06
-5.17418e-08
-2.86484e-06
-9.87715e-08
-2.81543e-06
-1.47207e-07
-2.75533e-06
-1.97041e-07
-2.68399e-06
-2.4826e-07
-2.60102e-06
-3.0062e-07
-2.50606e-06
-3.53653e-07
-2.39887e-06
-4.06951e-07
-2.27929e-06
-4.59879e-07
-2.14726e-06
-5.11542e-07
-2.00296e-06
-5.60673e-07
-1.84708e-06
-6.05618e-07
-1.68061e-06
-6.44904e-07
-1.5049e-06
-6.76582e-07
-1.3219e-06
-6.98502e-07
-1.13405e-06
-7.08963e-07
-9.4428e-07
-7.06075e-07
-7.56099e-07
-6.88356e-07
-5.73645e-07
-6.55003e-07
-4.00874e-07
-6.0643e-07
-2.41102e-07
-5.43812e-07
-9.73641e-08
-4.68362e-07
2.78798e-08
-3.82331e-07
1.32855e-07
-2.88795e-07
2.1633e-07
-1.91181e-07
2.77733e-07
-9.32233e-08
3.17931e-07
1.43192e-09
3.36795e-07
8.98122e-08
3.338e-07
1.66718e-07
3.09064e-07
2.28081e-07
2.631e-07
2.68352e-07
1.99695e-07
2.82039e-07
1.24587e-07
2.66157e-07
4.82631e-08
2.15498e-07
1.09538e-07
3.23459e-08
-8.95113e-08
8.34557e-08
-1.91395e-07
1.24382e-07
-2.07579e-07
1.51366e-07
-1.81988e-07
1.64944e-07
-1.3719e-07
1.67249e-07
-8.71714e-08
1.5963e-07
-3.81915e-08
1.42842e-07
6.24344e-09
1.17043e-07
4.46532e-08
8.18329e-08
7.69915e-08
3.62736e-08
1.04935e-07
-2.07858e-08
1.31155e-07
-9.04764e-08
1.58557e-07
-1.73842e-07
1.89532e-07
-2.71869e-07
2.25545e-07
-3.85413e-07
2.67132e-07
-5.14959e-07
3.14067e-07
-6.60363e-07
3.65588e-07
-8.20312e-07
4.199e-07
-9.91909e-07
4.74503e-07
-1.1715e-06
5.26913e-07
-1.35459e-06
5.73866e-07
-1.53697e-06
6.13641e-07
-1.71446e-06
6.438e-07
-1.88268e-06
6.62905e-07
-2.03889e-06
6.71302e-07
-2.18202e-06
6.69952e-07
-2.31206e-06
6.60162e-07
-2.4294e-06
6.43397e-07
-2.53475e-06
6.20821e-07
-2.62894e-06
5.93427e-07
-2.71282e-06
5.61984e-07
-2.78713e-06
5.27089e-07
-2.85253e-06
4.89381e-07
-2.90962e-06
4.4935e-07
-2.95888e-06
4.0745e-07
-3.00068e-06
3.64024e-07
-3.03526e-06
3.19389e-07
-3.0628e-06
2.7368e-07
-3.08326e-06
2.26911e-07
-3.09668e-06
1.793e-07
-3.10296e-06
1.30694e-07
-3.10197e-06
8.10248e-08
-3.09348e-06
3.00768e-08
-3.07717e-06
-2.22965e-08
-3.05265e-06
-7.62592e-08
-3.01943e-06
-1.31993e-07
-2.97707e-06
-1.89563e-07
-2.92518e-06
-2.48935e-07
-2.86321e-06
-3.10228e-07
-2.79048e-06
-3.73358e-07
-2.70637e-06
-4.37757e-07
-2.61047e-06
-5.02854e-07
-2.50234e-06
-5.68006e-07
-2.38159e-06
-6.32294e-07
-2.24785e-06
-6.94412e-07
-2.10154e-06
-7.51931e-07
-1.9432e-06
-8.03238e-07
-1.77366e-06
-8.46123e-07
-1.59454e-06
-8.77627e-07
-1.40786e-06
-8.95641e-07
-1.21628e-06
-8.97656e-07
-1.02288e-06
-8.81756e-07
-8.31492e-07
-8.46389e-07
-6.46793e-07
-7.9113e-07
-4.73395e-07
-7.17209e-07
-3.1455e-07
-6.27207e-07
-1.73252e-07
-5.2363e-07
-5.19196e-08
-4.10127e-07
4.80062e-08
-2.91107e-07
1.25989e-07
-1.71207e-07
1.82261e-07
-5.48397e-08
2.18077e-07
5.39961e-08
2.33728e-07
1.51067e-07
2.29725e-07
2.32084e-07
2.06403e-07
2.91674e-07
1.64707e-07
3.23734e-07
1.07699e-07
3.23166e-07
4.31098e-08
2.80087e-07
1.52648e-07
3.59077e-08
-1.25419e-07
8.05781e-08
-2.36065e-07
1.09361e-07
-2.36362e-07
1.22797e-07
-1.95425e-07
1.23472e-07
-1.37865e-07
1.13355e-07
-7.70548e-08
9.34401e-08
-1.82766e-08
6.38733e-08
3.58102e-08
2.42407e-08
8.42858e-08
-2.65576e-08
1.2779e-07
-8.98747e-08
1.68252e-07
-1.67069e-07
2.08349e-07
-2.59296e-07
2.50784e-07
-3.67397e-07
2.97633e-07
-4.91831e-07
3.49979e-07
-6.32435e-07
4.07736e-07
-7.88252e-07
4.69884e-07
-9.57139e-07
5.34475e-07
-1.1358e-06
5.98563e-07
-1.31975e-06
6.58451e-07
-1.50452e-06
7.11686e-07
-1.68535e-06
7.54696e-07
-1.85697e-06
7.85258e-07
-2.01618e-06
8.03005e-07
-2.16192e-06
8.08652e-07
-2.29435e-06
8.03733e-07
-2.41422e-06
7.8982e-07
-2.52256e-06
7.68496e-07
-2.62024e-06
7.41082e-07
-2.70812e-06
7.08696e-07
-2.78693e-06
6.72243e-07
-2.85735e-06
6.32399e-07
-2.92003e-06
5.89767e-07
-2.97551e-06
5.44866e-07
-3.02425e-06
4.98094e-07
-3.06655e-06
4.49751e-07
-3.10268e-06
4.00151e-07
-3.13284e-06
3.49545e-07
-3.1572e-06
2.98041e-07
-3.17555e-06
2.45266e-07
-3.18811e-06
1.9186e-07
-3.19479e-06
1.37374e-07
-3.19553e-06
8.17596e-08
-3.19017e-06
2.47138e-08
-3.17861e-06
-3.3855e-08
-3.16058e-06
-9.4291e-08
-3.13564e-06
-1.56927e-07
-3.10325e-06
-2.21956e-07
-3.06274e-06
-2.89444e-07
-3.0135e-06
-3.59472e-07
-2.95462e-06
-4.32239e-07
-2.88516e-06
-5.07209e-07
-2.80424e-06
-5.83778e-07
-2.71109e-06
-6.61158e-07
-2.60532e-06
-7.38061e-07
-2.48638e-06
-8.13353e-07
-2.35368e-06
-8.84635e-07
-2.20728e-06
-9.49638e-07
-2.04725e-06
-1.00615e-06
-1.87495e-06
-1.04993e-06
-1.69195e-06
-1.07864e-06
-1.50049e-06
-1.08912e-06
-1.30353e-06
-1.07872e-06
-1.10457e-06
-1.04535e-06
-9.07832e-07
-9.87865e-07
-7.18855e-07
-9.06187e-07
-5.42466e-07
-8.03596e-07
-3.82325e-07
-6.83771e-07
-2.41687e-07
-5.50766e-07
-1.22821e-07
-4.09973e-07
-2.68156e-08
-2.67212e-07
4.64703e-08
-1.28126e-07
9.82507e-08
2.21574e-09
1.2999e-07
1.19328e-07
1.4295e-07
2.19124e-07
1.37847e-07
2.96778e-07
1.15224e-07
3.46358e-07
7.74151e-08
3.60974e-07
3.07397e-08
3.26762e-07
1.83387e-07
3.61809e-08
-1.616e-07
6.89168e-08
-2.68801e-07
8.33454e-08
-2.5079e-07
8.2351e-08
-1.94431e-07
6.95701e-08
-1.25084e-07
4.64412e-08
-5.39259e-08
1.33063e-08
1.48583e-08
-3.02605e-08
7.9377e-08
-8.52559e-08
1.39281e-07
-1.53041e-07
1.95575e-07
-2.35067e-07
2.50278e-07
-3.32588e-07
3.0587e-07
-4.46435e-07
3.64631e-07
-5.76847e-07
4.28045e-07
-7.23311e-07
4.96444e-07
-8.84425e-07
5.6885e-07
-1.05751e-06
6.42972e-07
-1.23859e-06
7.15557e-07
-1.42305e-06
7.83018e-07
-1.60594e-06
8.41337e-07
-1.78128e-06
8.87034e-07
-1.94494e-06
9.18352e-07
-2.09505e-06
9.35368e-07
-2.23159e-06
9.39547e-07
-2.35536e-06
9.32417e-07
-2.46738e-06
9.15755e-07
-2.56874e-06
8.91177e-07
-2.66041e-06
8.60171e-07
-2.74322e-06
8.23892e-07
-2.81786e-06
7.83337e-07
-2.88492e-06
7.39304e-07
-2.94494e-06
6.92419e-07
-2.99841e-06
6.43234e-07
-3.04572e-06
5.92175e-07
-3.08725e-06
5.39622e-07
-3.12312e-06
4.85624e-07
-3.15354e-06
4.30574e-07
-3.17874e-06
3.74746e-07
-3.19893e-06
3.18228e-07
-3.21458e-06
2.60915e-07
-3.22535e-06
2.02635e-07
-3.23122e-06
1.43247e-07
-3.23203e-06
8.25692e-08
-3.22762e-06
2.0297e-08
-3.21809e-06
-4.33848e-08
-3.20342e-06
-1.08963e-07
-3.18357e-06
-1.76774e-07
-3.15847e-06
-2.47055e-07
-3.1278e-06
-3.20114e-07
-3.09118e-06
-3.96088e-07
-3.04821e-06
-4.75211e-07
-2.99775e-06
-5.57671e-07
-2.93836e-06
-6.43167e-07
-2.86844e-06
-7.3108e-07
-2.78582e-06
-8.20678e-07
-2.68863e-06
-9.10548e-07
-2.57575e-06
-9.97511e-07
-2.44704e-06
-1.07835e-06
-2.30273e-06
-1.15046e-06
-2.14311e-06
-1.20955e-06
-1.96887e-06
-1.25288e-06
-1.78197e-06
-1.27602e-06
-1.58502e-06
-1.27567e-06
-1.38142e-06
-1.24895e-06
-1.17496e-06
-1.19432e-06
-9.70901e-07
-1.11025e-06
-7.75844e-07
-9.98653e-07
-5.95074e-07
-8.6454e-07
-4.32664e-07
-7.13176e-07
-2.92043e-07
-5.50593e-07
-1.75346e-07
-3.83909e-07
-8.31646e-08
-2.20307e-07
-1.45625e-08
-6.63864e-08
3.24018e-08
7.23636e-08
6.00808e-08
1.91445e-07
7.02224e-08
2.86636e-07
6.39699e-08
3.5261e-07
4.36714e-08
3.81273e-07
1.57723e-08
3.54661e-07
1.9916e-07
3.19167e-08
-1.93517e-07
4.99802e-08
-2.86865e-07
4.88631e-08
-2.49673e-07
3.31115e-08
-1.78679e-07
6.59498e-09
-9.85671e-08
-3.00288e-08
-1.73021e-08
-7.71012e-08
6.19307e-08
-1.35527e-07
1.37802e-07
-2.06575e-07
2.1033e-07
-2.91638e-07
2.80638e-07
-3.91969e-07
3.50608e-07
-5.08422e-07
4.22324e-07
-6.41195e-07
4.97405e-07
-7.89677e-07
5.76526e-07
-9.52247e-07
6.59014e-07
-1.12587e-06
7.4247e-07
-1.30626e-06
8.23361e-07
-1.48851e-06
8.9781e-07
-1.66669e-06
9.61194e-07
-1.83544e-06
1.01009e-06
-1.99142e-06
1.04301e-06
-2.1338e-06
1.06073e-06
-2.26295e-06
1.06452e-06
-2.37978e-06
1.05637e-06
-2.48536e-06
1.038e-06
-2.58084e-06
1.01123e-06
-2.66716e-06
9.77505e-07
-2.74511e-06
9.38114e-07
-2.81529e-06
8.9408e-07
-2.87825e-06
8.46296e-07
-2.93443e-06
7.95485e-07
-2.98425e-06
7.42238e-07
-3.02804e-06
6.87016e-07
-3.066e-06
6.3014e-07
-3.09864e-06
5.72264e-07
-3.12671e-06
5.13686e-07
-3.15059e-06
4.5446e-07
-3.17036e-06
3.94516e-07
-3.18575e-06
3.33616e-07
-3.19709e-06
2.7226e-07
-3.20428e-06
2.09826e-07
-3.20752e-06
1.46486e-07
-3.20693e-06
8.19773e-08
-3.20253e-06
1.58982e-08
-3.19459e-06
-5.13312e-08
-3.183e-06
-1.2055e-07
-3.16767e-06
-1.92107e-07
-3.1484e-06
-2.66322e-07
-3.12493e-06
-3.43578e-07
-3.09689e-06
-4.24136e-07
-3.06399e-06
-5.08103e-07
-3.02587e-06
-5.95797e-07
-2.98194e-06
-6.87097e-07
-2.93139e-06
-7.81624e-07
-2.87335e-06
-8.78724e-07
-2.80634e-06
-9.77552e-07
-2.7266e-06
-1.07726e-06
-2.62975e-06
-1.17519e-06
-2.51271e-06
-1.2675e-06
-2.37491e-06
-1.34735e-06
-2.21776e-06
-1.41003e-06
-2.04352e-06
-1.45026e-06
-1.85327e-06
-1.46592e-06
-1.65072e-06
-1.4515e-06
-1.43937e-06
-1.40567e-06
-1.22404e-06
-1.32558e-06
-1.01124e-06
-1.21145e-06
-8.08851e-07
-1.06693e-06
-6.23011e-07
-8.99015e-07
-4.58153e-07
-7.15452e-07
-3.17857e-07
-5.24205e-07
-2.04007e-07
-3.34157e-07
-1.16554e-07
-1.5384e-07
-5.36989e-08
9.50855e-09
-1.21181e-08
1.49864e-07
1.11729e-08
2.63345e-07
1.86508e-08
3.45132e-07
1.37014e-08
3.86222e-07
2.67898e-09
3.65684e-07
2.01839e-07
2.3489e-08
-2.17006e-07
2.53627e-08
-2.88738e-07
7.86727e-09
-2.32178e-07
-2.21454e-08
-1.48666e-07
-6.24217e-08
-5.82908e-08
-1.12865e-07
3.31408e-08
-1.74252e-07
1.23318e-07
-2.4777e-07
2.1132e-07
-3.34714e-07
2.97274e-07
-4.36265e-07
3.82189e-07
-5.53258e-07
4.67601e-07
-6.85904e-07
5.5497e-07
-8.33648e-07
6.45149e-07
-9.94912e-07
7.3779e-07
-1.1665e-06
8.30597e-07
-1.34395e-06
9.19929e-07
-1.5221e-06
1.00151e-06
-1.69475e-06
1.07046e-06
-1.85705e-06
1.1235e-06
-2.00652e-06
1.15956e-06
-2.14251e-06
1.179e-06
-2.26546e-06
1.18368e-06
-2.37637e-06
1.17543e-06
-2.47633e-06
1.15634e-06
-2.56643e-06
1.1281e-06
-2.64758e-06
1.09237e-06
-2.72047e-06
1.0504e-06
-2.7857e-06
1.00334e-06
-2.84376e-06
9.52139e-07
-2.89509e-06
8.9762e-07
-2.94008e-06
8.40475e-07
-2.97917e-06
7.81328e-07
-3.01296e-06
7.20814e-07
-3.04212e-06
6.59296e-07
-3.0667e-06
5.96839e-07
-3.08673e-06
5.33724e-07
-3.10227e-06
4.69998e-07
-3.1135e-06
4.05739e-07
-3.12101e-06
3.41133e-07
-3.12511e-06
2.76354e-07
-3.12627e-06
2.10986e-07
-3.12477e-06
1.4499e-07
-3.12087e-06
7.80733e-08
-3.1148e-06
9.83319e-09
-3.10656e-06
-5.95778e-08
-3.09612e-06
-1.30985e-07
-3.08353e-06
-2.04694e-07
-3.06877e-06
-2.81081e-07
-3.05179e-06
-3.60559e-07
-3.03244e-06
-4.43487e-07
-3.01037e-06
-5.30177e-07
-2.98518e-06
-6.20981e-07
-2.95622e-06
-7.16064e-07
-2.9225e-06
-8.15346e-07
-2.88284e-06
-9.18384e-07
-2.83632e-06
-1.02406e-06
-2.78162e-06
-1.13196e-06
-2.7171e-06
-1.23972e-06
-2.63963e-06
-1.34497e-06
-2.54169e-06
-1.44529e-06
-2.41775e-06
-1.53397e-06
-2.2674e-06
-1.6006e-06
-2.09395e-06
-1.63937e-06
-1.90138e-06
-1.64407e-06
-1.69259e-06
-1.61446e-06
-1.47235e-06
-1.54583e-06
-1.24675e-06
-1.43705e-06
-1.02394e-06
-1.28974e-06
-8.13496e-07
-1.10946e-06
-6.22477e-07
-9.06471e-07
-4.5577e-07
-6.90912e-07
-3.16991e-07
-4.72936e-07
-2.07561e-07
-2.6327e-07
-1.26438e-07
-7.16145e-08
-7.05846e-08
9.4011e-08
-3.52947e-08
2.28055e-07
-1.62778e-08
3.26115e-07
-8.15805e-09
3.78102e-07
-5.4677e-09
3.62994e-07
1.96371e-07
1.19032e-08
-2.28909e-07
-3.59191e-09
-2.73243e-07
-3.64481e-08
-1.99321e-07
-8.06759e-08
-1.04439e-07
-1.34744e-07
-4.22298e-09
-1.99011e-07
9.74079e-08
-2.746e-07
1.98907e-07
-3.62752e-07
2.99472e-07
-4.64581e-07
3.99103e-07
-5.80878e-07
4.98485e-07
-7.11876e-07
5.98599e-07
-8.57135e-07
7.00229e-07
-1.01526e-06
8.03273e-07
-1.18313e-06
9.05665e-07
-1.35623e-06
1.00369e-06
-1.52922e-06
1.09292e-06
-1.69632e-06
1.1686e-06
-1.85298e-06
1.22713e-06
-1.99696e-06
1.26747e-06
-2.1275e-06
1.2901e-06
-2.24514e-06
1.29664e-06
-2.35082e-06
1.28936e-06
-2.44567e-06
1.27028e-06
-2.53065e-06
1.24131e-06
-2.60659e-06
1.20405e-06
-2.67415e-06
1.15993e-06
-2.73387e-06
1.11012e-06
-2.78625e-06
1.05573e-06
-2.83177e-06
9.97653e-07
-2.87089e-06
9.36743e-07
-2.90412e-06
8.73703e-07
-2.93193e-06
8.09138e-07
-2.95456e-06
7.43444e-07
-2.97234e-06
6.77076e-07
-2.98571e-06
6.10215e-07
-2.99518e-06
5.43192e-07
-3.00134e-06
4.76155e-07
-3.00475e-06
4.09153e-07
-3.00577e-06
3.42149e-07
-3.0045e-06
2.7509e-07
-3.00129e-06
2.0777e-07
-2.99632e-06
1.40028e-07
-2.98983e-06
7.15812e-08
-2.98198e-06
1.97655e-09
-2.97287e-06
-6.86833e-08
-2.96264e-06
-1.41214e-07
-2.95146e-06
-2.15878e-07
-2.93943e-06
-2.93105e-07
-2.92666e-06
-3.73334e-07
-2.91315e-06
-4.56995e-07
-2.89881e-06
-5.44521e-07
-2.88346e-06
-6.36333e-07
-2.86676e-06
-7.32759e-07
-2.84814e-06
-8.33964e-07
-2.82669e-06
-9.39838e-07
-2.80077e-06
-1.04998e-06
-2.76889e-06
-1.16384e-06
-2.72878e-06
-1.27982e-06
-2.67871e-06
-1.39504e-06
-2.61608e-06
-1.50793e-06
-2.53673e-06
-1.61332e-06
-2.43019e-06
-1.70715e-06
-2.29071e-06
-1.77884e-06
-2.11975e-06
-1.81504e-06
-1.92476e-06
-1.80945e-06
-1.70875e-06
-1.76184e-06
-1.47835e-06
-1.66745e-06
-1.24099e-06
-1.5271e-06
-1.00721e-06
-1.34324e-06
-7.88521e-07
-1.12516e-06
-5.9304e-07
-8.86393e-07
-4.26005e-07
-6.39971e-07
-2.90782e-07
-3.98493e-07
-1.87903e-07
-1.74493e-07
-1.15134e-07
2.12417e-08
-6.73144e-08
1.80236e-07
-3.83305e-08
2.97131e-07
-2.03369e-08
3.60109e-07
-8.87606e-09
3.51533e-07
1.87495e-07
-1.70078e-09
-2.27208e-07
-3.38368e-08
-2.41107e-07
-8.20228e-08
-1.51135e-07
-1.40242e-07
-4.62192e-08
-2.0777e-07
6.33047e-08
-2.85496e-07
1.75134e-07
-3.74625e-07
2.88036e-07
-4.76288e-07
4.01135e-07
-5.91269e-07
5.14084e-07
-7.19834e-07
6.2705e-07
-8.61652e-07
7.40418e-07
-1.01557e-06
8.54147e-07
-1.17875e-06
9.66453e-07
-1.34675e-06
1.07366e-06
-1.51434e-06
1.17128e-06
-1.67618e-06
1.25476e-06
-1.82792e-06
1.32034e-06
-1.96718e-06
1.36639e-06
-2.09316e-06
1.39346e-06
-2.20618e-06
1.40312e-06
-2.30724e-06
1.39771e-06
-2.39733e-06
1.37945e-06
-2.47735e-06
1.3503e-06
-2.54804e-06
1.312e-06
-2.61001e-06
1.26602e-06
-2.66379e-06
1.21371e-06
-2.7099e-06
1.15623e-06
-2.74886e-06
1.09469e-06
-2.78123e-06
1.03002e-06
-2.80757e-06
9.63082e-07
-2.82844e-06
8.9458e-07
-2.8444e-06
8.25092e-07
-2.85601e-06
7.55059e-07
-2.86383e-06
6.84889e-07
-2.86843e-06
6.1482e-07
-2.87032e-06
5.45078e-07
-2.8699e-06
4.75735e-07
-2.86751e-06
4.06766e-07
-2.86345e-06
3.38086e-07
-2.85793e-06
2.69576e-07
-2.85119e-06
2.0103e-07
-2.8434e-06
1.32234e-07
-2.83471e-06
6.28966e-08
-2.82543e-06
-7.30516e-09
-2.8155e-06
-7.86089e-08
-2.80523e-06
-1.51492e-07
-2.79477e-06
-2.26334e-07
-2.78432e-06
-3.03561e-07
-2.77403e-06
-3.83617e-07
-2.76407e-06
-4.66961e-07
-2.75452e-06
-5.54068e-07
-2.74545e-06
-6.45407e-07
-2.7368e-06
-7.41403e-07
-2.72837e-06
-8.42391e-07
-2.71965e-06
-9.48566e-07
-2.70966e-06
-1.05996e-06
-2.6972e-06
-1.1763e-06
-2.68034e-06
-1.29669e-06
-2.65582e-06
-1.41955e-06
-2.62107e-06
-1.54268e-06
-2.57278e-06
-1.66161e-06
-2.50695e-06
-1.77297e-06
-2.41663e-06
-1.86916e-06
-2.28841e-06
-1.94327e-06
-2.12148e-06
-1.97637e-06
-1.9229e-06
-1.96042e-06
-1.69854e-06
-1.89181e-06
-1.45624e-06
-1.76939e-06
-1.20602e-06
-1.59346e-06
-9.60997e-07
-1.37019e-06
-7.3487e-07
-1.11252e-06
-5.36796e-07
-8.38045e-07
-3.72028e-07
-5.63261e-07
-2.4324e-07
-3.03281e-07
-1.49576e-07
-7.24216e-08
-8.68143e-08
1.17474e-07
-4.76476e-08
2.57965e-07
-2.30756e-08
3.35537e-07
-7.70258e-09
3.3616e-07
1.79792e-07
-1.61625e-08
-2.11046e-07
-6.48214e-08
-1.92448e-07
-1.27337e-07
-8.86199e-08
-1.98837e-07
2.52809e-08
-2.79197e-07
1.43665e-07
-3.69522e-07
2.65459e-07
-4.71002e-07
3.89516e-07
-5.84509e-07
5.14642e-07
-7.10392e-07
6.39968e-07
-8.48426e-07
7.65085e-07
-9.97688e-07
8.89679e-07
-1.15571e-06
1.01217e-06
-1.31836e-06
1.1291e-06
-1.48066e-06
1.23596e-06
-1.63766e-06
1.32828e-06
-1.78518e-06
1.40228e-06
-1.9205e-06
1.45565e-06
-2.04264e-06
1.48853e-06
-2.15179e-06
1.5026e-06
-2.24877e-06
1.5001e-06
-2.33455e-06
1.48349e-06
-2.40992e-06
1.45482e-06
-2.47558e-06
1.41595e-06
-2.53209e-06
1.36852e-06
-2.58004e-06
1.31397e-06
-2.62e-06
1.25366e-06
-2.65261e-06
1.18884e-06
-2.67854e-06
1.12063e-06
-2.69853e-06
1.05e-06
-2.71326e-06
9.77819e-07
-2.72345e-06
9.04766e-07
-2.72975e-06
8.3139e-07
-2.7328e-06
7.58109e-07
-2.73315e-06
6.85243e-07
-2.73131e-06
6.12976e-07
-2.72765e-06
5.41418e-07
-2.72248e-06
4.70568e-07
-2.71606e-06
4.00348e-07
-2.70861e-06
3.30637e-07
-2.70031e-06
2.61271e-07
-2.69131e-06
1.9203e-07
-2.68175e-06
1.22678e-07
-2.67179e-06
5.29309e-08
-2.66159e-06
-1.75052e-08
-2.65125e-06
-8.895e-08
-2.64096e-06
-1.6178e-07
-2.63092e-06
-2.36374e-07
-2.62134e-06
-3.13145e-07
-2.61243e-06
-3.92524e-07
-2.60442e-06
-4.74966e-07
-2.59754e-06
-5.60951e-07
-2.59198e-06
-6.50966e-07
-2.5879e-06
-7.45489e-07
-2.58533e-06
-8.44957e-07
-2.58415e-06
-9.49749e-07
-2.58398e-06
-1.06013e-06
-2.58412e-06
-1.17616e-06
-2.5833e-06
-1.29751e-06
-2.5794e-06
-1.42345e-06
-2.56967e-06
-1.55242e-06
-2.54955e-06
-1.68173e-06
-2.51501e-06
-1.80751e-06
-2.46122e-06
-1.92295e-06
-2.38182e-06
-2.02267e-06
-2.26302e-06
-2.09517e-06
-2.09913e-06
-2.12431e-06
-1.89589e-06
-2.09506e-06
-1.66129e-06
-2.00399e-06
-1.40569e-06
-1.84906e-06
-1.14213e-06
-1.63375e-06
-8.86664e-07
-1.36798e-06
-6.55337e-07
-1.06937e-06
-4.58008e-07
-7.6059e-07
-2.9932e-07
-4.61969e-07
-1.80661e-07
-1.9108e-07
-9.92091e-08
3.60219e-08
-4.80946e-08
2.0685e-07
-1.85088e-08
3.05951e-07
-3.22433e-09
3.20875e-07
1.76568e-07
-3.08809e-08
-1.80165e-07
-9.48271e-08
-1.28502e-07
-1.70761e-07
-1.26863e-08
-2.54627e-07
1.09147e-07
-3.46832e-07
2.3587e-07
-4.48533e-07
3.6716e-07
-5.60779e-07
5.01761e-07
-6.84109e-07
6.37972e-07
-8.18442e-07
7.74302e-07
-9.63055e-07
9.09698e-07
-1.11586e-06
1.04249e-06
-1.27319e-06
1.1695e-06
-1.43046e-06
1.28637e-06
-1.58308e-06
1.38858e-06
-1.72703e-06
1.47223e-06
-1.85924e-06
1.5345e-06
-1.97835e-06
1.57476e-06
-2.08437e-06
1.59456e-06
-2.17797e-06
1.5962e-06
-2.26003e-06
1.58216e-06
-2.3313e-06
1.55475e-06
-2.39242e-06
1.51595e-06
-2.44401e-06
1.46754e-06
-2.48667e-06
1.41118e-06
-2.52111e-06
1.3484e-06
-2.54807e-06
1.28063e-06
-2.5684e-06
1.20917e-06
-2.58294e-06
1.13516e-06
-2.59253e-06
1.05959e-06
-2.59796e-06
9.83253e-07
-2.59997e-06
9.06777e-07
-2.59921e-06
8.30631e-07
-2.59625e-06
7.55146e-07
-2.59154e-06
6.80535e-07
-2.58547e-06
6.069e-07
-2.57831e-06
5.34256e-07
-2.57028e-06
4.62538e-07
-2.56155e-06
3.91625e-07
-2.55228e-06
3.21361e-07
-2.54256e-06
2.51552e-07
-2.53249e-06
1.81966e-07
-2.52218e-06
1.12361e-07
-2.51171e-06
4.24654e-08
-2.50121e-06
-2.80096e-08
-2.49078e-06
-9.93751e-08
-2.48059e-06
-1.71968e-07
-2.47082e-06
-2.46142e-07
-2.46169e-06
-3.22276e-07
-2.45344e-06
-4.00772e-07
-2.44635e-06
-4.82061e-07
-2.4407e-06
-5.66602e-07
-2.43679e-06
-6.54877e-07
-2.4349e-06
-7.47382e-07
-2.43524e-06
-8.44614e-07
-2.43794e-06
-9.47052e-07
-2.44295e-06
-1.05512e-06
-2.45e-06
-1.16911e-06
-2.45842e-06
-1.2891e-06
-2.46702e-06
-1.41485e-06
-2.47387e-06
-1.54557e-06
-2.47587e-06
-1.67973e-06
-2.46883e-06
-1.81454e-06
-2.44627e-06
-1.94551e-06
-2.40287e-06
-2.06607e-06
-2.33065e-06
-2.16739e-06
-2.21735e-06
-2.23761e-06
-2.05348e-06
-2.25892e-06
-1.84368e-06
-2.2138e-06
-1.5969e-06
-2.09583e-06
-1.32705e-06
-1.9036e-06
-1.05057e-06
-1.64446e-06
-7.87027e-07
-1.33292e-06
-5.54683e-07
-9.92934e-07
-3.63115e-07
-6.53538e-07
-2.15828e-07
-3.38368e-07
-1.12083e-07
-6.77229e-08
-4.64561e-08
1.41223e-07
-1.10673e-08
2.70562e-07
2.77073e-09
3.07037e-07
1.79339e-07
-4.49746e-08
-1.3519e-07
-1.22828e-07
-5.06491e-08
-2.10901e-07
7.53868e-08
-3.0605e-07
2.04297e-07
-4.08815e-07
3.38634e-07
-5.20367e-07
4.78713e-07
-6.41539e-07
6.22933e-07
-7.72514e-07
7.68947e-07
-9.12783e-07
9.1457e-07
-1.0606e-06
1.05752e-06
-1.21283e-06
1.19472e-06
-1.36546e-06
1.32213e-06
-1.5142e-06
1.43511e-06
-1.65515e-06
1.52953e-06
-1.78505e-06
1.60213e-06
-1.90201e-06
1.65146e-06
-2.00577e-06
1.67851e-06
-2.09682e-06
1.68561e-06
-2.17592e-06
1.67531e-06
-2.24384e-06
1.65008e-06
-2.30121e-06
1.61212e-06
-2.34867e-06
1.5634e-06
-2.3869e-06
1.50578e-06
-2.41672e-06
1.441e-06
-2.43901e-06
1.37069e-06
-2.45474e-06
1.29636e-06
-2.46488e-06
1.21931e-06
-2.47037e-06
1.14066e-06
-2.4721e-06
1.06131e-06
-2.47082e-06
9.81981e-07
-2.46723e-06
9.03179e-07
-2.46186e-06
8.25265e-07
-2.45517e-06
7.48461e-07
-2.44751e-06
6.72876e-07
-2.43914e-06
5.98525e-07
-2.43023e-06
5.25348e-07
-2.42092e-06
4.53228e-07
-2.4113e-06
3.82004e-07
-2.40144e-06
3.11497e-07
-2.39138e-06
2.41496e-07
-2.38117e-06
1.71754e-07
-2.37085e-06
1.02038e-07
-2.36047e-06
3.20922e-08
-2.35012e-06
-3.83629e-08
-2.33988e-06
-1.09609e-07
-2.3299e-06
-1.8195e-07
-2.32034e-06
-2.55702e-07
-2.31141e-06
-3.31205e-07
-2.30337e-06
-4.08819e-07
-2.29649e-06
-4.88934e-07
-2.29112e-06
-5.71972e-07
-2.28761e-06
-6.58387e-07
-2.28633e-06
-7.48669e-07
-2.28761e-06
-8.43331e-07
-2.29175e-06
-9.42909e-07
-2.29895e-06
-1.04793e-06
-2.30919e-06
-1.15886e-06
-2.32223e-06
-1.27606e-06
-2.33741e-06
-1.39967e-06
-2.35352e-06
-1.52946e-06
-2.3686e-06
-1.66465e-06
-2.37958e-06
-1.80356e-06
-2.38183e-06
-1.94326e-06
-2.36896e-06
-2.07894e-06
-2.33319e-06
-2.20316e-06
-2.26591e-06
-2.30489e-06
-2.15335e-06
-2.37149e-06
-1.98617e-06
-2.38097e-06
-1.76646e-06
-2.31554e-06
-1.50561e-06
-2.16445e-06
-1.22118e-06
-1.92888e-06
-9.33662e-07
-1.62044e-06
-6.66642e-07
-1.25995e-06
-4.39778e-07
-8.80403e-07
-2.61122e-07
-5.17023e-07
-1.32137e-07
-1.96708e-07
-4.91701e-08
5.8256e-08
-5.7237e-09
2.27116e-07
7.77081e-09
2.93543e-07
1.87109e-07
-5.78656e-08
-7.73245e-08
-1.47934e-07
3.94194e-08
-2.46855e-07
1.74308e-07
-3.51879e-07
3.0932e-07
-4.63686e-07
4.50441e-07
-5.8336e-07
5.98387e-07
-7.11486e-07
7.5106e-07
-8.47857e-07
9.05318e-07
-9.91095e-07
1.05781e-06
-1.13859e-06
1.20501e-06
-1.28702e-06
1.34314e-06
-1.43237e-06
1.46748e-06
-1.57086e-06
1.5736e-06
-1.69915e-06
1.65781e-06
-1.81488e-06
1.71787e-06
-1.91731e-06
1.75389e-06
-2.00675e-06
1.76795e-06
-2.08386e-06
1.76272e-06
-2.14935e-06
1.7408e-06
-2.20391e-06
1.70464e-06
-2.24822e-06
1.65642e-06
-2.28304e-06
1.59822e-06
-2.30928e-06
1.53202e-06
-2.32795e-06
1.45967e-06
-2.34014e-06
1.38288e-06
-2.34692e-06
1.30314e-06
-2.34934e-06
1.22172e-06
-2.34831e-06
1.13964e-06
-2.34467e-06
1.05767e-06
-2.33909e-06
9.76401e-07
-2.33213e-06
8.96219e-07
-2.32422e-06
8.17358e-07
-2.31569e-06
7.3993e-07
-2.30677e-06
6.63951e-07
-2.2976e-06
5.89357e-07
-2.28828e-06
5.1603e-07
-2.27886e-06
4.43811e-07
-2.26937e-06
3.72509e-07
-2.2598e-06
3.01924e-07
-2.25015e-06
2.31847e-07
-2.24041e-06
1.6202e-07
-2.23059e-06
9.22185e-08
-2.22072e-06
2.22156e-08
-2.21082e-06
-4.82561e-08
-2.20099e-06
-1.19445e-07
-2.19132e-06
-1.91619e-07
-2.18196e-06
-2.65056e-07
-2.17312e-06
-3.40049e-07
-2.16503e-06
-4.16913e-07
-2.15797e-06
-4.95987e-07
-2.1523e-06
-5.77644e-07
-2.14839e-06
-6.62296e-07
-2.14666e-06
-7.50396e-07
-2.14755e-06
-8.42447e-07
-2.15146e-06
-9.38997e-07
-2.15876e-06
-1.04063e-06
-2.16968e-06
-1.14793e-06
-2.18428e-06
-1.26146e-06