/*--------------------------------*- C++ -*----------------------------------*\
  =========                 |
  \\      /  F ield         | OpenFOAM: The Open Source CFD Toolbox
   \\    /   O peration     | Website:  https://openfoam.org
    \\  /    A nd           | Version:  13
     \\/     M anipulation  |
\*---------------------------------------------------------------------------*/
FoamFile
{
    format      ascii;
    class       volVectorField;
    location    "5.8";
    object      U;
}
// * * * * * * * * * * * * * * * * * * * * * * * * * * * * * * * * * * * * * //

dimensions      [0 1 -1 0 0 0 0];

internalField   nonuniform List<vector> 
6400
(
(-0.000118372 7.76606e-05 0)
(0.000424269 -0.000163928 0)
(0.00199076 -0.000409085 0)
(0.00406778 -0.000518211 0)
(0.00614332 -0.000457554 0)
(0.00788216 -0.000306375 0)
(0.00904934 -0.000124616 0)
(0.00964169 1.30821e-05 0)
(0.0097795 6.58246e-05 0)
(0.00968694 4.61835e-05 0)
(0.00949405 -2.68e-05 0)
(0.00935424 -0.000128422 0)
(0.00933637 -0.000233467 0)
(0.00943609 -0.000319369 0)
(0.00960889 -0.000389872 0)
(0.0097787 -0.000442791 0)
(0.00987514 -0.000477842 0)
(0.00984523 -0.000484105 0)
(0.00965636 -0.000469749 0)
(0.00921734 -0.000433368 0)
(0.00848358 -0.000385664 0)
(0.00740569 -0.000336783 0)
(0.00593484 -0.000291421 0)
(0.00404611 -0.000270123 0)
(0.00170678 -0.000308896 0)
(-0.0010713 -0.00041331 0)
(-0.00426684 -0.000482747 0)
(-0.0081182 -0.00035459 0)
(-0.0127462 8.43084e-05 0)
(-0.0181302 0.000864958 0)
(-0.0249861 0.00184789 0)
(-0.0327353 0.00272388 0)
(-0.0411751 0.00344633 0)
(-0.0500349 0.00399974 0)
(-0.0590661 0.00438472 0)
(-0.0680361 0.00461044 0)
(-0.0767588 0.00469744 0)
(-0.0850744 0.00466724 0)
(-0.0928627 0.00454077 0)
(-0.100022 0.004336 0)
(-0.106473 0.00406556 0)
(-0.112151 0.00373864 0)
(-0.117001 0.00335895 0)
(-0.120993 0.0029287 0)
(-0.124092 0.00245448 0)
(-0.126227 0.00196344 0)
(-0.127228 0.00152775 0)
(-0.127475 0.00102216 0)
(-0.126452 0.000303643 0)
(-0.124382 -0.000265769 0)
(-0.121156 -0.000953276 0)
(-0.116775 -0.0015888 0)
(-0.111236 -0.00224566 0)
(-0.104543 -0.00286539 0)
(-0.0967552 -0.00347352 0)
(-0.0879915 -0.00406973 0)
(-0.0782216 -0.00460292 0)
(-0.0676257 -0.00505933 0)
(-0.0563672 -0.00542446 0)
(-0.0446286 -0.00564804 0)
(-0.0326568 -0.00570536 0)
(-0.0207273 -0.00557417 0)
(-0.00912433 -0.00524962 0)
(0.00180204 -0.00474906 0)
(0.0116969 -0.0040493 0)
(0.0202595 -0.0031414 0)
(0.027203 -0.00210111 0)
(0.0322442 -0.000959932 0)
(0.0353754 0.00019557 0)
(0.0360059 0.00147516 0)
(0.0348884 0.00210807 0)
(0.0317427 0.00270994 0)
(0.0267113 0.00296429 0)
(0.0207775 0.00271907 0)
(0.0146799 0.00207225 0)
(0.00923868 0.00125903 0)
(0.00492932 0.000573033 0)
(0.00192478 0.000147462 0)
(0.00023233 -0.000152282 0)
(-0.000220651 -0.000335602 0)
(1.44778e-05 -0.000365819 0)
(0.00172253 -0.00200275 0)
(0.0050023 -0.00337593 0)
(0.00869939 -0.00385688 0)
(0.0121335 -0.00350897 0)
(0.0148872 -0.00268443 0)
(0.0167817 -0.00167081 0)
(0.0178303 -0.000739501 0)
(0.0181578 -7.52494e-05 0)
(0.0179161 0.000284649 0)
(0.0173106 0.000387267 0)
(0.0164907 0.00030845 0)
(0.0155485 0.000164949 0)
(0.014475 6.59071e-05 0)
(0.0132021 7.26568e-05 0)
(0.011629 0.000198911 0)
(0.0096635 0.000424995 0)
(0.00725303 0.000729157 0)
(0.0042879 0.00112972 0)
(0.000667093 0.00164048 0)
(-0.00371442 0.0022663 0)
(-0.00905354 0.00302198 0)
(-0.0154833 0.00388572 0)
(-0.023057 0.00483384 0)
(-0.0318219 0.00588136 0)
(-0.041859 0.0070394 0)
(-0.0531256 0.00833058 0)
(-0.0652884 0.00975179 0)
(-0.07801 0.0112659 0)
(-0.0907997 0.0127336 0)
(-0.103101 0.0138701 0)
(-0.115058 0.0146145 0)
(-0.126433 0.0149673 0)
(-0.137116 0.0149434 0)
(-0.147016 0.014606 0)
(-0.156057 0.0140034 0)
(-0.1642 0.0131889 0)
(-0.171406 0.0122067 0)
(-0.177661 0.0110939 0)
(-0.182949 0.00988038 0)
(-0.187259 0.00858487 0)
(-0.190584 0.00722346 0)
(-0.192917 0.00580356 0)
(-0.194248 0.00433464 0)
(-0.194572 0.00282421 0)
(-0.193863 0.00127614 0)
(-0.1921 -0.000308884 0)
(-0.189312 -0.00196272 0)
(-0.185423 -0.00369094 0)
(-0.180467 -0.00544403 0)
(-0.174414 -0.00723949 0)
(-0.16726 -0.00903808 0)
(-0.158999 -0.010832 0)
(-0.149633 -0.0125846 0)
(-0.139183 -0.0142662 0)
(-0.127675 -0.0158235 0)
(-0.115247 -0.0172222 0)
(-0.101982 -0.0184129 0)
(-0.0880398 -0.0193146 0)
(-0.0736415 -0.0198738 0)
(-0.0589848 -0.0200278 0)
(-0.0443269 -0.0197269 0)
(-0.0299538 -0.0189383 0)
(-0.0161675 -0.0176559 0)
(-0.00325801 -0.0158628 0)
(0.00848024 -0.0135731 0)
(0.0187623 -0.010843 0)
(0.0273473 -0.00776667 0)
(0.0340511 -0.00443132 0)
(0.0386628 -0.00101645 0)
(0.0411835 0.00222087 0)
(0.0414618 0.00521117 0)
(0.0395827 0.00770202 0)
(0.0357221 0.00943197 0)
(0.0300575 0.00973333 0)
(0.0229232 0.00890166 0)
(0.0153223 0.00714883 0)
(0.00837505 0.00489368 0)
(0.00315753 0.00243013 0)
(0.000242965 0.00036252 0)
(0.00018962 -0.00155303 0)
(0.00304179 -0.00515323 0)
(0.00718256 -0.00734794 0)
(0.0111071 -0.00766602 0)
(0.0143572 -0.00664373 0)
(0.0167152 -0.00491679 0)
(0.0181954 -0.00303684 0)
(0.0188572 -0.0013329 0)
(0.0187749 1.54608e-05 0)
(0.0180398 0.000927195 0)
(0.0168014 0.00142362 0)
(0.0151352 0.00164955 0)
(0.0130586 0.00179272 0)
(0.0105346 0.0020233 0)
(0.00748196 0.00244655 0)
(0.00379615 0.00309071 0)
(-0.000636868 0.00394084 0)
(-0.00597843 0.00500567 0)
(-0.0123499 0.00630639 0)
(-0.0198707 0.0078791 0)
(-0.0286282 0.00973565 0)
(-0.038618 0.0118283 0)
(-0.0497993 0.0140729 0)
(-0.0620571 0.0163535 0)
(-0.075154 0.0185486 0)
(-0.0888016 0.0205647 0)
(-0.102644 0.0223123 0)
(-0.116375 0.0237324 0)
(-0.129663 0.0247582 0)
(-0.142241 0.0253723 0)
(-0.153935 0.0255647 0)
(-0.164678 0.0253265 0)
(-0.174398 0.0247086 0)
(-0.183146 0.0237386 0)
(-0.190927 0.0224587 0)
(-0.197773 0.0209345 0)
(-0.20371 0.0192121 0)
(-0.208763 0.0173371 0)
(-0.212948 0.0153385 0)
(-0.216278 0.0132495 0)
(-0.218765 0.0110862 0)
(-0.220411 0.00885784 0)
(-0.221213 0.00657344 0)
(-0.221166 0.00423231 0)
(-0.22026 0.0018336 0)
(-0.21848 -0.000626022 0)
(-0.215789 -0.00315681 0)
(-0.212171 -0.00576301 0)
(-0.207608 -0.00843025 0)
(-0.202072 -0.0111427 0)
(-0.195537 -0.0139032 0)
(-0.187986 -0.016678 0)
(-0.179408 -0.0194478 0)
(-0.169802 -0.0221702 0)
(-0.15918 -0.0247953 0)
(-0.147576 -0.0272498 0)
(-0.135058 -0.0294621 0)
(-0.121718 -0.031346 0)
(-0.107666 -0.0327967 0)
(-0.0930802 -0.0337242 0)
(-0.0781706 -0.034038 0)
(-0.0631631 -0.0336538 0)
(-0.048334 -0.0325122 0)
(-0.0339901 -0.0306165 0)
(-0.0204133 -0.0279618 0)
(-0.00785343 -0.0245755 0)
(0.00343449 -0.0205159 0)
(0.0132209 -0.0159035 0)
(0.0213486 -0.0108928 0)
(0.027692 -0.00567436 0)
(0.0321883 -0.000477344 0)
(0.0348471 0.00448458 0)
(0.0355349 0.00886482 0)
(0.0341547 0.0123139 0)
(0.0309433 0.0147372 0)
(0.0260717 0.0154388 0)
(0.0196525 0.0145088 0)
(0.0125708 0.0120075 0)
(0.00590226 0.00805174 0)
(0.000792211 0.00307813 0)
(0.000393801 -0.00341318 0)
(0.00407685 -0.00913978 0)
(0.00836489 -0.0115013 0)
(0.0118524 -0.0110905 0)
(0.0143895 -0.00911141 0)
(0.0159608 -0.0064782 0)
(0.01666 -0.003758 0)
(0.0165771 -0.00129292 0)
(0.0157887 0.000720949 0)
(0.014357 0.00220961 0)
(0.0122783 0.0032512 0)
(0.009531 0.00403089 0)
(0.00606596 0.00477601 0)
(0.00181532 0.00568476 0)
(-0.00329557 0.00687613 0)
(-0.00935761 0.00839716 0)
(-0.0164902 0.0102623 0)
(-0.0248136 0.0124746 0)
(-0.0344102 0.0150251 0)
(-0.0453 0.0178869 0)
(-0.057408 0.0209754 0)
(-0.0705496 0.0241508 0)
(-0.0844426 0.0272404 0)
(-0.0987373 0.030079 0)
(-0.113137 0.0325746 0)
(-0.127301 0.0345506 0)
(-0.140946 0.035897 0)
(-0.153781 0.0366191 0)
(-0.165631 0.0367832 0)
(-0.176448 0.0364335 0)
(-0.186203 0.035635 0)
(-0.194947 0.0344236 0)
(-0.202721 0.0328375 0)
(-0.209595 0.0309429 0)
(-0.215611 0.0287848 0)
(-0.22083 0.0264183 0)
(-0.22529 0.0238819 0)
(-0.229023 0.021216 0)
(-0.232047 0.0184452 0)
(-0.234378 0.0155897 0)
(-0.236022 0.0126629 0)
(-0.236976 0.0096689 0)
(-0.237233 0.00660824 0)
(-0.23678 0.00347613 0)
(-0.235599 0.00026854 0)
(-0.233665 -0.00301969 0)
(-0.230944 -0.00639086 0)
(-0.227411 -0.00986176 0)
(-0.223034 -0.0134273 0)
(-0.217779 -0.017077 0)
(-0.211609 -0.0207953 0)
(-0.204492 -0.0245511 0)
(-0.196406 -0.0283153 0)
(-0.187333 -0.0320394 0)
(-0.177262 -0.0356551 0)
(-0.166198 -0.0390661 0)
(-0.154175 -0.0421653 0)
(-0.141264 -0.0448456 0)
(-0.127554 -0.0469683 0)
(-0.113171 -0.0483832 0)
(-0.0983007 -0.0489753 0)
(-0.0831566 -0.0486168 0)
(-0.0679815 -0.0472187 0)
(-0.053083 -0.0447384 0)
(-0.0388171 -0.0412212 0)
(-0.0254662 -0.0367367 0)
(-0.0132665 -0.0313522 0)
(-0.00244977 -0.025228 0)
(0.00680415 -0.018582 0)
(0.0143719 -0.0116592 0)
(0.0201896 -0.00471988 0)
(0.0242693 0.00201334 0)
(0.0266496 0.00822819 0)
(0.0273569 0.0135192 0)
(0.026255 0.0175237 0)
(0.0233599 0.0199448 0)
(0.0188607 0.0203353 0)
(0.013136 0.0185268 0)
(0.00685075 0.0142995 0)
(0.00105927 0.00683638 0)
(0.000654093 -0.00581368 0)
(0.0047594 -0.0133977 0)
(0.00858524 -0.0152392 0)
(0.0112439 -0.0137606 0)
(0.012852 -0.0107154 0)
(0.0134751 -0.0071527 0)
(0.0132571 -0.00362152 0)
(0.0122835 -0.000430411 0)
(0.0105913 0.0022644 0)
(0.00817012 0.00444729 0)
(0.00495879 0.00622962 0)
(0.000871599 0.00781996 0)
(-0.00418141 0.00945688 0)
(-0.0102856 0.0113402 0)
(-0.0175216 0.0135963 0)
(-0.0259652 0.0162816 0)
(-0.0356782 0.0194045 0)
(-0.0466872 0.0229332 0)
(-0.0589381 0.0267736 0)
(-0.0722706 0.0307956 0)
(-0.0864122 0.034784 0)
(-0.101007 0.0385305 0)
(-0.115708 0.0419172 0)
(-0.130208 0.0446602 0)
(-0.144127 0.0466263 0)
(-0.157142 0.0478161 0)
(-0.169139 0.0482531 0)
(-0.180055 0.0479888 0)
(-0.189938 0.0471254 0)
(-0.198826 0.0457584 0)
(-0.206781 0.0439696 0)
(-0.21389 0.0418304 0)
(-0.220199 0.0393902 0)
(-0.225773 0.0367009 0)
(-0.230659 0.033803 0)
(-0.234906 0.0307373 0)
(-0.238542 0.0275358 0)
(-0.241593 0.0242284 0)
(-0.244075 0.0208281 0)
(-0.245993 0.0173486 0)
(-0.247348 0.0138003 0)
(-0.248137 0.0101757 0)
(-0.24835 0.00647075 0)
(-0.247972 0.00267377 0)
(-0.246986 -0.00122451 0)
(-0.245361 -0.00523353 0)
(-0.243057 -0.00935891 0)
(-0.240041 -0.0136098 0)
(-0.236271 -0.0179865 0)
(-0.231722 -0.0224926 0)
(-0.226344 -0.0271136 0)
(-0.220076 -0.0318096 0)
(-0.212882 -0.0365463 0)
(-0.204722 -0.0412697 0)
(-0.195561 -0.0458999 0)
(-0.185386 -0.0503231 0)
(-0.174174 -0.0543934 0)
(-0.161977 -0.0579862 0)
(-0.148847 -0.0609243 0)
(-0.134874 -0.063011 0)
(-0.12021 -0.0640946 0)
(-0.105041 -0.063999 0)
(-0.0896036 -0.0625852 0)
(-0.0741461 -0.0597725 0)
(-0.0590048 -0.0555602 0)
(-0.0446185 -0.050068 0)
(-0.0312734 -0.0434284 0)
(-0.0192013 -0.0358437 0)
(-0.00863972 -0.0275769 0)
(0.00025081 -0.0189381 0)
(0.00738779 -0.0102544 0)
(0.0127657 -0.00182475 0)
(0.0164533 0.00603467 0)
(0.0185298 0.0129993 0)
(0.0190125 0.0187058 0)
(0.0179107 0.0227012 0)
(0.01524 0.0245285 0)
(0.0112005 0.0238538 0)
(0.00614501 0.0200297 0)
(0.000912178 0.0105716 0)
(0.00094899 -0.00860753 0)
(0.00499097 -0.0173586 0)
(0.00791417 -0.0180629 0)
(0.00948308 -0.0154226 0)
(0.0100494 -0.0113008 0)
(0.00965968 -0.00685002 0)
(0.00845997 -0.00253499 0)
(0.00649508 0.00139754 0)
(0.00375054 0.00484849 0)
(0.000160601 0.00785157 0)
(-0.00437804 0.010553 0)
(-0.00997718 0.0131714 0)
(-0.0167368 0.0159357 0)
(-0.0247364 0.0190299 0)
(-0.034031 0.0225622 0)
(-0.0446382 0.0265587 0)
(-0.0565196 0.030971 0)
(-0.0695605 0.03571 0)
(-0.0835528 0.0405561 0)
(-0.0981471 0.0452557 0)
(-0.112985 0.0496542 0)
(-0.127731 0.0533958 0)
(-0.141935 0.0562901 0)
(-0.155213 0.0582612 0)
(-0.167419 0.0592669 0)
(-0.178536 0.0593842 0)
(-0.188611 0.0587339 0)
(-0.197719 0.0574504 0)
(-0.205943 0.0556461 0)
(-0.213344 0.0534119 0)
(-0.219994 0.050824 0)
(-0.225949 0.047941 0)
(-0.231257 0.0448135 0)
(-0.235974 0.0414845 0)
(-0.240134 0.0379873 0)
(-0.243769 0.0343532 0)
(-0.246901 0.0306081 0)
(-0.24955 0.026774 0)
(-0.251727 0.0228607 0)
(-0.253434 0.0188736 0)
(-0.254671 0.0148169 0)
(-0.255442 0.0106738 0)
(-0.255737 0.00643694 0)
(-0.255552 0.00208696 0)
(-0.254879 -0.00239665 0)
(-0.253699 -0.00703293 0)
(-0.251987 -0.0118305 0)
(-0.249707 -0.0167966 0)
(-0.246797 -0.021922 0)
(-0.243215 -0.0272158 0)
(-0.238901 -0.0326704 0)
(-0.233788 -0.0382475 0)
(-0.227787 -0.0438943 0)
(-0.220824 -0.0495468 0)
(-0.212842 -0.0551276 0)
(-0.203898 -0.060593 0)
(-0.193833 -0.0657117 0)
(-0.182653 -0.070326 0)
(-0.1704 -0.0742383 0)
(-0.157086 -0.0771862 0)
(-0.142851 -0.0789875 0)
(-0.127839 -0.0794101 0)
(-0.112259 -0.0782837 0)
(-0.0963801 -0.0754521 0)
(-0.0804674 -0.0708558 0)
(-0.0649199 -0.0645485 0)
(-0.0502405 -0.056813 0)
(-0.036703 -0.0478525 0)
(-0.0245994 -0.03799 0)
(-0.0141649 -0.0276155 0)
(-0.00553822 -0.0171441 0)
(0.00124111 -0.00696902 0)
(0.00623424 0.00255711 0)
(0.00956388 0.0111017 0)
(0.011349 0.0183312 0)
(0.0116623 0.0238234 0)
(0.0105208 0.0270906 0)
(0.00801549 0.0276413 0)
(0.00451018 0.0245327 0)
(0.000536241 0.0136249 0)
(0.00119775 -0.0115624 0)
(0.00469962 -0.0205154 0)
(0.00635516 -0.0198138 0)
(0.0068356 -0.0159246 0)
(0.00626749 -0.0108134 0)
(0.00482903 -0.00552234 0)
(0.00259189 -0.000422426 0)
(-0.000451364 0.00430581 0)
(-0.00436311 0.0086178 0)
(-0.00924403 0.0125839 0)
(-0.0152113 0.0163668 0)
(-0.0223745 0.0201775 0)
(-0.0308181 0.0242198 0)
(-0.0405886 0.0286417 0)
(-0.0516812 0.0335042 0)
(-0.0640132 0.0387687 0)
(-0.0774533 0.0443138 0)
(-0.0917192 0.0499023 0)
(-0.106424 0.0553124 0)
(-0.12124 0.0601895 0)
(-0.135701 0.0642563 0)
(-0.149333 0.0673036 0)
(-0.161896 0.0692273 0)
(-0.173349 0.0700768 0)
(-0.183748 0.0699788 0)
(-0.193156 0.0690759 0)
(-0.20167 0.0674994 0)
(-0.209372 0.0653733 0)
(-0.216337 0.0627972 0)
(-0.222619 0.0598554 0)
(-0.228274 0.0566145 0)
(-0.233344 0.0531242 0)
(-0.237873 0.0494295 0)
(-0.241897 0.0455678 0)
(-0.245444 0.0415718 0)
(-0.248534 0.0374706 0)
(-0.251182 0.0332901 0)
(-0.253402 0.029045 0)
(-0.255199 0.0247447 0)
(-0.256647 0.0202877 0)
(-0.2577 0.015791 0)
(-0.258368 0.0112048 0)
(-0.258636 0.00652985 0)
(-0.258496 0.00174593 0)
(-0.257932 -0.00316544 0)
(-0.256962 -0.00822709 0)
(-0.255581 -0.0134636 0)
(-0.253778 -0.0189039 0)
(-0.251558 -0.0245826 0)
(-0.24887 -0.0305136 0)
(-0.245698 -0.0367333 0)
(-0.241983 -0.0431691 0)
(-0.237606 -0.0497651 0)
(-0.23246 -0.0564763 0)
(-0.226415 -0.0632077 0)
(-0.219232 -0.0697677 0)
(-0.210851 -0.0759792 0)
(-0.201134 -0.081641 0)
(-0.190261 -0.0866756 0)
(-0.178098 -0.0907062 0)
(-0.164722 -0.093485 0)
(-0.150256 -0.0947232 0)
(-0.134861 -0.0941794 0)
(-0.118789 -0.0916619 0)
(-0.10234 -0.0870657 0)
(-0.08579 -0.0803222 0)
(-0.0696953 -0.071659 0)
(-0.0545852 -0.0614609 0)
(-0.0407639 -0.0500588 0)
(-0.0285665 -0.037923 0)
(-0.0182229 -0.0255712 0)
(-0.00984872 -0.0135127 0)
(-0.00343156 -0.00220291 0)
(0.00115715 0.00797689 0)
(0.00411414 0.0167017 0)
(0.00560953 0.0236091 0)
(0.00574092 0.0282386 0)
(0.00458725 0.0299718 0)
(0.00252889 0.0275515 0)
(8.01331e-05 0.0155193 0)
(0.00131104 -0.0143509 0)
(0.00375857 -0.022569 0)
(0.00421114 -0.0203747 0)
(0.00347687 -0.0152242 0)
(0.00177486 -0.00923028 0)
(-0.000740314 -0.00313031 0)
(-0.00406492 0.00278258 0)
(-0.00825367 0.00838263 0)
(-0.0134009 0.0136621 0)
(-0.0196182 0.0187108 0)
(-0.0270137 0.0236895 0)
(-0.0356739 0.0287851 0)
(-0.0456447 0.0341583 0)
(-0.0569156 0.0398958 0)
(-0.0693958 0.0459918 0)
(-0.0829226 0.0523172 0)
(-0.0971777 0.0586275 0)
(-0.111795 0.0646513 0)
(-0.126342 0.0700107 0)
(-0.140337 0.0743968 0)
(-0.153362 0.0775786 0)
(-0.1653 0.0795264 0)
(-0.176149 0.080326 0)
(-0.185967 0.0801348 0)
(-0.194841 0.0790826 0)
(-0.20286 0.0773181 0)
(-0.210115 0.0749636 0)
(-0.216671 0.072129 0)
(-0.222584 0.0689006 0)
(-0.227897 0.0653534 0)
(-0.232654 0.0615474 0)
(-0.236885 0.0575316 0)
(-0.240623 0.0533499 0)
(-0.243886 0.0490444 0)
(-0.246689 0.0446533 0)
(-0.249104 0.0401434 0)
(-0.251183 0.0355365 0)
(-0.252922 0.0308567 0)
(-0.25434 0.0261003 0)
(-0.255403 0.0213538 0)
(-0.256142 0.0165033 0)
(-0.256555 0.0115721 0)
(-0.256656 0.00653666 0)
(-0.256454 0.00138462 0)
(-0.255958 -0.00389987 0)
(-0.255176 -0.00933522 0)
(-0.254099 -0.01495 0)
(-0.252716 -0.0207649 0)
(-0.251011 -0.0267991 0)
(-0.248962 -0.0330589 0)
(-0.246531 -0.039538 0)
(-0.243684 -0.0463322 0)
(-0.240407 -0.0534556 0)
(-0.236645 -0.0608572 0)
(-0.232326 -0.0684902 0)
(-0.227351 -0.0762994 0)
(-0.221555 -0.0839733 0)
(-0.214598 -0.0912562 0)
(-0.20607 -0.0977333 0)
(-0.195836 -0.103027 0)
(-0.184016 -0.107023 0)
(-0.170775 -0.109425 0)
(-0.156158 -0.109876 0)
(-0.14039 -0.108088 0)
(-0.123786 -0.103915 0)
(-0.106638 -0.0972049 0)
(-0.0893472 -0.0880224 0)
(-0.0725897 -0.0767696 0)
(-0.0569637 -0.0639594 0)
(-0.0428309 -0.0500888 0)
(-0.0305468 -0.0357786 0)
(-0.0203396 -0.0216712 0)
(-0.0122883 -0.00836704 0)
(-0.00631557 0.0036328 0)
(-0.00220155 0.0139489 0)
(0.000336622 0.0222633 0)
(0.00152244 0.0281698 0)
(0.00154333 0.0309951 0)
(0.000723437 0.029099 0)
(-0.000270846 0.0162043 0)
(0.00124526 -0.0166832 0)
(0.00239981 -0.0233738 0)
(0.00156672 -0.0196047 0)
(-0.000379498 -0.0133794 0)
(-0.00319448 -0.00654944 0)
(-0.0068038 0.000358192 0)
(-0.0112469 0.00712697 0)
(-0.0166109 0.0136715 0)
(-0.0230015 0.0200022 0)
(-0.0305205 0.0262092 0)
(-0.0392509 0.0324335 0)
(-0.0492382 0.0388209 0)
(-0.0604701 0.0454695 0)
(-0.0728734 0.0524003 0)
(-0.0862732 0.0595017 0)
(-0.100323 0.0665252 0)
(-0.114673 0.0731477 0)
(-0.128851 0.0789984 0)
(-0.14232 0.0837247 0)
(-0.154832 0.087138 0)
(-0.166251 0.0892135 0)
(-0.176594 0.0900861 0)
(-0.185924 0.0898796 0)
(-0.194337 0.0887647 0)
(-0.201918 0.0868789 0)
(-0.208751 0.0843628 0)
(-0.214899 0.0813221 0)
(-0.220412 0.077854 0)
(-0.225333 0.0740357 0)
(-0.229699 0.0699361 0)
(-0.233544 0.0656117 0)
(-0.236898 0.0611122 0)
(-0.239788 0.056481 0)
(-0.242296 0.0517175 0)
(-0.244446 0.0468617 0)
(-0.246238 0.0419719 0)
(-0.247657 0.0370495 0)
(-0.248721 0.0320798 0)
(-0.249457 0.0270626 0)
(-0.249909 0.0219989 0)
(-0.250114 0.0168673 0)
(-0.250095 0.0116719 0)
(-0.249874 0.00639222 0)
(-0.249468 0.00100989 0)
(-0.2489 -0.00450088 0)
(-0.24815 -0.0101659 0)
(-0.247227 -0.016019 0)
(-0.246132 -0.0220925 0)
(-0.244864 -0.0284196 0)
(-0.243413 -0.0350259 0)
(-0.241759 -0.0419273 0)
(-0.239874 -0.0491282 0)
(-0.237719 -0.0566214 0)
(-0.235232 -0.0643848 0)
(-0.232328 -0.0723608 0)
(-0.228888 -0.0804489 0)
(-0.224845 -0.0888107 0)
(-0.220135 -0.0972314 0)
(-0.214526 -0.105477 0)
(-0.207679 -0.11292 0)
(-0.198908 -0.118936 0)
(-0.187815 -0.122831 0)
(-0.174868 -0.12472 0)
(-0.160165 -0.12414 0)
(-0.144072 -0.120924 0)
(-0.126824 -0.11478 0)
(-0.108876 -0.105693 0)
(-0.0907354 -0.0938294 0)
(-0.073227 -0.0797822 0)
(-0.0570522 -0.0642905 0)
(-0.0426294 -0.0480028 0)
(-0.0303375 -0.0317024 0)
(-0.0203853 -0.0161576 0)
(-0.012793 -0.00204648 0)
(-0.0073886 0.0101048 0)
(-0.0038317 0.0199319 0)
(-0.00174415 0.0270945 0)
(-0.000773876 0.0308422 0)
(-0.000518798 0.0293902 0)
(-0.000367138 0.0160327 0)
(0.00102509 -0.0180651 0)
(0.000750576 -0.0228128 0)
(-0.00139893 -0.0175485 0)
(-0.00450352 -0.0103951 0)
(-0.00842347 -0.00276557 0)
(-0.0131313 0.00495882 0)
(-0.0186941 0.0126224 0)
(-0.0252151 0.0201626 0)
(-0.0327934 0.0275889 0)
(-0.0415072 0.0349731 0)
(-0.0514002 0.0424197 0)
(-0.0624621 0.0500168 0)
(-0.074636 0.0578015 0)
(-0.0877635 0.0656903 0)
(-0.101498 0.0734308 0)
(-0.115461 0.0806845 0)
(-0.129201 0.0870779 0)
(-0.142222 0.0922265 0)
(-0.15428 0.095969 0)
(-0.16527 0.0983066 0)
(-0.175177 0.0993247 0)
(-0.184089 0.0991961 0)
(-0.192087 0.0980815 0)
(-0.199262 0.0961429 0)
(-0.205682 0.0935115 0)
(-0.211409 0.0903096 0)
(-0.216489 0.0866321 0)
(-0.220962 0.0825678 0)
(-0.224867 0.07819 0)
(-0.228242 0.073565 0)
(-0.231124 0.0687481 0)
(-0.233551 0.0637875 0)
(-0.235569 0.0587207 0)
(-0.237174 0.0535982 0)
(-0.238414 0.0484202 0)
(-0.239315 0.043205 0)
(-0.239923 0.0379582 0)
(-0.240295 0.0326903 0)
(-0.240474 0.0274097 0)
(-0.240454 0.0221169 0)
(-0.24027 0.0167922 0)
(-0.239938 0.0114267 0)
(-0.239476 0.00599754 0)
(-0.238899 0.000481238 0)
(-0.238218 -0.0051526 0)
(-0.23744 -0.0109309 0)
(-0.23658 -0.0168869 0)
(-0.235649 -0.0230547 0)
(-0.234656 -0.0294702 0)
(-0.233603 -0.0361682 0)
(-0.232489 -0.0431825 0)
(-0.231304 -0.0505449 0)
(-0.230029 -0.0582758 0)
(-0.22863 -0.0663794 0)
(-0.227042 -0.0748309 0)
(-0.225169 -0.0835609 0)
(-0.222898 -0.0924521 0)
(-0.220077 -0.101356 0)
(-0.216483 -0.110054 0)
(-0.212027 -0.118758 0)
(-0.206467 -0.126893 0)
(-0.199274 -0.133607 0)
(-0.189489 -0.137875 0)
(-0.17689 -0.139013 0)
(-0.162252 -0.137386 0)
(-0.145728 -0.132477 0)
(-0.127751 -0.124115 0)
(-0.108892 -0.1124 0)
(-0.0897896 -0.0976106 0)
(-0.0714846 -0.0806395 0)
(-0.0547818 -0.0624519 0)
(-0.0401661 -0.0438757 0)
(-0.0280172 -0.0258687 0)
(-0.0184977 -0.0093171 0)
(-0.0115428 0.00503337 0)
(-0.00683898 0.0166533 0)
(-0.00387397 0.025177 0)
(-0.00218171 0.0297341 0)
(-0.0011318 0.0287572 0)
(-0.000323375 0.0154279 0)
(0.0007374 -0.018464 0)
(-0.00108849 -0.0208674 0)
(-0.00448776 -0.0142889 0)
(-0.00870977 -0.00628118 0)
(-0.0137206 0.00211509 0)
(-0.0195045 0.0106585 0)
(-0.0261497 0.0192372 0)
(-0.0337595 0.0277904 0)
(-0.0424138 0.0363078 0)
(-0.0521562 0.0448269 0)
(-0.0629803 0.053401 0)
(-0.0748411 0.0620648 0)
(-0.0876054 0.0707618 0)
(-0.100955 0.0792456 0)
(-0.114491 0.0871728 0)
(-0.127785 0.0941668 0)
(-0.140409 0.0998601 0)
(-0.152085 0.104056 0)
(-0.162703 0.106748 0)
(-0.172248 0.10802 0)
(-0.180788 0.108045 0)
(-0.188415 0.107006 0)
(-0.1952 0.105065 0)
(-0.201215 0.102366 0)
(-0.206508 0.0990319 0)
(-0.211127 0.0951708 0)
(-0.215111 0.090875 0)
(-0.218501 0.0862311 0)
(-0.221342 0.0813136 0)
(-0.223677 0.0761896 0)
(-0.225552 0.0709157 0)
(-0.227012 0.065539 0)
(-0.228104 0.0600961 0)
(-0.228868 0.0546186 0)
(-0.229355 0.0491256 0)
(-0.229603 0.0436381 0)
(-0.229652 0.0381658 0)
(-0.229534 0.032711 0)
(-0.229272 0.0272688 0)
(-0.228883 0.0218329 0)
(-0.228389 0.0163869 0)
(-0.227802 0.0109146 0)
(-0.227141 0.00539313 0)
(-0.226419 -0.00020175 0)
(-0.225646 -0.00589829 0)
(-0.224833 -0.0117259 0)
(-0.224 -0.0177177 0)
(-0.22316 -0.0239082 0)
(-0.222327 -0.0303333 0)
(-0.221513 -0.0370295 0)
(-0.22073 -0.0440344 0)
(-0.219984 -0.0513848 0)
(-0.219277 -0.059113 0)
(-0.2186 -0.067243 0)
(-0.217923 -0.0757862 0)
(-0.217192 -0.0847363 0)
(-0.216324 -0.0940562 0)
(-0.215187 -0.103632 0)
(-0.213588 -0.113264 0)
(-0.211303 -0.122656 0)
(-0.20803 -0.131493 0)
(-0.203538 -0.139896 0)
(-0.197487 -0.147055 0)
(-0.189042 -0.15168 0)
(-0.177001 -0.152277 0)
(-0.162364 -0.149428 0)
(-0.14531 -0.1426 0)
(-0.126501 -0.131804 0)
(-0.106592 -0.117166 0)
(-0.0864785 -0.0992551 0)
(-0.0673947 -0.0792656 0)
(-0.0502778 -0.0584378 0)
(-0.0356583 -0.0378083 0)
(-0.0238829 -0.0185111 0)
(-0.0150302 -0.00154717 0)
(-0.00890386 0.0122941 0)
(-0.00495335 0.0224722 0)
(-0.00265452 0.0279783 0)
(-0.00113269 0.0275932 0)
(-0.000139476 0.014675 0)
(0.000191599 -0.0177675 0)
(-0.00302826 -0.0176101 0)
(-0.00757239 -0.00983872 0)
(-0.0128615 -0.00107151 0)
(-0.0189169 0.00805495 0)
(-0.0257208 0.0174072 0)
(-0.0333698 0.0268949 0)
(-0.0419563 0.0364392 0)
(-0.0515315 0.045994 0)
(-0.062096 0.0555497 0)
(-0.0736125 0.0651114 0)
(-0.0859732 0.0746384 0)
(-0.0988998 0.0839001 0)
(-0.112006 0.0925539 0)
(-0.12488 0.100224 0)
(-0.137146 0.106566 0)
(-0.148508 0.111342 0)
(-0.158813 0.114497 0)
(-0.168056 0.116128 0)
(-0.176279 0.116397 0)
(-0.183571 0.115502 0)
(-0.190001 0.113616 0)
(-0.195628 0.11089 0)
(-0.200502 0.107456 0)
(-0.204668 0.10343 0)
(-0.20817 0.0989195 0)
(-0.211057 0.0940185 0)
(-0.213383 0.0888165 0)
(-0.215204 0.0833908 0)
(-0.216577 0.0778098 0)
(-0.217558 0.0721301 0)
(-0.218203 0.0663975 0)
(-0.218564 0.0606472 0)
(-0.218689 0.054908 0)
(-0.218621 0.0491988 0)
(-0.218393 0.0435332 0)
(-0.218033 0.0379135 0)
(-0.217565 0.0323349 0)
(-0.217007 0.0267895 0)
(-0.216373 0.0212659 0)
(-0.215677 0.015747 0)
(-0.214932 0.0102142 0)
(-0.214148 0.0046449 0)
(-0.213339 -0.000984842 0)
(-0.212513 -0.00670016 0)
(-0.211684 -0.0125337 0)
(-0.210867 -0.0185162 0)
(-0.210077 -0.0246817 0)
(-0.209333 -0.0310655 0)
(-0.208651 -0.0377048 0)
(-0.208051 -0.0446382 0)
(-0.207549 -0.0519048 0)
(-0.207161 -0.0595413 0)
(-0.206895 -0.0675801 0)
(-0.206749 -0.0760462 0)
(-0.206704 -0.084955 0)
(-0.206721 -0.0943048 0)
(-0.206722 -0.104061 0)
(-0.206576 -0.114141 0)
(-0.206087 -0.124385 0)
(-0.20498 -0.134464 0)
(-0.202916 -0.143913 0)
(-0.199448 -0.152255 0)
(-0.194264 -0.15955 0)
(-0.186684 -0.164203 0)
(-0.175271 -0.164402 0)
(-0.160482 -0.160113 0)
(-0.142818 -0.151215 0)
(-0.123011 -0.137647 0)
(-0.101976 -0.119825 0)
(-0.0808619 -0.0985996 0)
(-0.0611245 -0.0755512 0)
(-0.0438285 -0.0522487 0)
(-0.0295043 -0.0299529 0)
(-0.0184164 -0.0099765 0)
(-0.0105202 0.00658299 0)
(-0.00535817 0.0188906 0)
(-0.00239236 0.0258019 0)
(-0.000669129 0.0263122 0)
(0.000119293 0.0141883 0)
(-0.000366695 -0.0158397 0)
(-0.0049372 -0.0130699 0)
(-0.0105357 -0.00427692 0)
(-0.016825 0.00516809 0)
(-0.0238531 0.0149842 0)
(-0.0315911 0.0251191 0)
(-0.0401336 0.0354811 0)
(-0.0495541 0.0459566 0)
(-0.0598684 0.0564527 0)
(-0.0710465 0.066911 0)
(-0.0830006 0.0772798 0)
(-0.0954967 0.0873428 0)
(-0.108181 0.0967758 0)
(-0.120672 0.105202 0)
(-0.132619 0.112284 0)
(-0.143726 0.11776 0)
(-0.153793 0.121506 0)
(-0.16279 0.123602 0)
(-0.170759 0.124216 0)
(-0.177766 0.123543 0)
(-0.183884 0.121774 0)
(-0.189166 0.11907 0)
(-0.193661 0.115575 0)
(-0.197416 0.111417 0)
(-0.200483 0.106714 0)
(-0.202921 0.101579 0)
(-0.204794 0.0961122 0)
(-0.206169 0.090406 0)
(-0.207116 0.0845393 0)
(-0.2077 0.0785792 0)
(-0.207982 0.0725791 0)
(-0.208019 0.0665804 0)
(-0.20786 0.0606133 0)
(-0.207544 0.0546997 0)
(-0.207106 0.0488511 0)
(-0.206571 0.0430723 0)
(-0.205959 0.0373606 0)
(-0.205286 0.031708 0)
(-0.204563 0.0261026 0)
(-0.203801 0.0205303 0)
(-0.203008 0.0149732 0)
(-0.20219 0.00941169 0)
(-0.201357 0.00382349 0)
(-0.200516 -0.00181478 0)
(-0.199675 -0.00752808 0)
(-0.198847 -0.0133456 0)
(-0.198045 -0.0192967 0)
(-0.197284 -0.0254134 0)
(-0.196583 -0.0317292 0)
(-0.195964 -0.03828 0)
(-0.195448 -0.0451037 0)
(-0.19506 -0.0522398 0)
(-0.194823 -0.059728 0)
(-0.194757 -0.0676068 0)
(-0.194878 -0.0759112 0)
(-0.195189 -0.0846696 0)
(-0.195681 -0.0938974 0)
(-0.196316 -0.103589 0)
(-0.197026 -0.113712 0)
(-0.197688 -0.124188 0)
(-0.198107 -0.134869 0)
(-0.197991 -0.145478 0)
(-0.196937 -0.1555 0)
(-0.194453 -0.164226 0)
(-0.189927 -0.171279 0)
(-0.182828 -0.175724 0)
(-0.171743 -0.175224 0)
(-0.156675 -0.169436 0)
(-0.138216 -0.158111 0)
(-0.117286 -0.141434 0)
(-0.0951012 -0.120127 0)
(-0.0730963 -0.0954118 0)
(-0.0529799 -0.0693628 0)
(-0.0358871 -0.0439185 0)
(-0.0222891 -0.0205647 0)
(-0.0123125 -0.000783525 0)
(-0.00566204 0.0142582 0)
(-0.00187435 0.0232246 0)
(1.70001e-05 0.0251413 0)
(0.00039768 0.014195 0)
(-0.000931866 -0.0127779 0)
(-0.00673047 -0.00736833 0)
(-0.0132821 0.00231112 0)
(-0.0204847 0.0123564 0)
(-0.0283929 0.022812 0)
(-0.0369545 0.0336825 0)
(-0.0462571 0.0448563 0)
(-0.0563498 0.0561723 0)
(-0.0672178 0.0674842 0)
(-0.0787892 0.0786857 0)
(-0.0908682 0.089556 0)
(-0.103153 0.0998035 0)
(-0.115301 0.109055 0)
(-0.12697 0.116963 0)
(-0.137872 0.123245 0)
(-0.147774 0.127716 0)
(-0.156598 0.1304 0)
(-0.164376 0.131465 0)
(-0.171166 0.131108 0)
(-0.177031 0.12953 0)
(-0.182029 0.126911 0)
(-0.186206 0.123403 0)
(-0.189617 0.119154 0)
(-0.192319 0.114296 0)
(-0.194382 0.108957 0)
(-0.195881 0.103255 0)
(-0.196894 0.0972953 0)
(-0.197499 0.0911689 0)
(-0.19777 0.0849522 0)
(-0.197772 0.0787064 0)
(-0.197564 0.0724778 0)
(-0.197195 0.0663 0)
(-0.196704 0.0601951 0)
(-0.196124 0.054176 0)
(-0.195478 0.0482471 0)
(-0.194784 0.0424063 0)
(-0.194053 0.0366462 0)
(-0.193294 0.0309559 0)
(-0.192514 0.0253217 0)
(-0.191716 0.0197265 0)
(-0.190904 0.0141515 0)
(-0.190082 0.00857805 0)
(-0.189252 0.00298423 0)
(-0.188421 -0.00265237 0)
(-0.187595 -0.00835543 0)
(-0.186783 -0.0141508 0)
(-0.185998 -0.0200655 0)
(-0.185254 -0.0261282 0)
(-0.184569 -0.0323698 0)
(-0.183966 -0.0388232 0)
(-0.18347 -0.0455241 0)
(-0.183108 -0.0525105 0)
(-0.182909 -0.0598223 0)
(-0.182903 -0.067501 0)
(-0.183115 -0.0755882 0)
(-0.183567 -0.084123 0)
(-0.184268 -0.0931375 0)
(-0.185208 -0.102651 0)
(-0.186355 -0.11266 0)
(-0.187637 -0.123128 0)
(-0.188931 -0.133967 0)
(-0.19004 -0.145022 0)
(-0.190663 -0.156022 0)
(-0.19037 -0.166498 0)
(-0.188601 -0.175628 0)
(-0.184626 -0.182493 0)
(-0.177724 -0.186427 0)
(-0.166584 -0.184911 0)
(-0.150979 -0.177238 0)
(-0.131508 -0.16305 0)
(-0.109368 -0.142854 0)
(-0.0860839 -0.117715 0)
(-0.0634539 -0.0893901 0)
(-0.0434139 -0.0605947 0)
(-0.0271029 -0.0335528 0)
(-0.014805 -0.0100487 0)
(-0.00641782 0.00835073 0)
(-0.00158725 0.0201044 0)
(0.000610424 0.0240689 0)
(0.000597352 0.0146152 0)
(-0.00147072 -0.0086399 0)
(-0.00834846 -0.000621957 0)
(-0.0157418 0.00982302 0)
(-0.0237554 0.0203919 0)
(-0.0324287 0.0314264 0)
(-0.0416851 0.0429679 0)
(-0.0516006 0.0548677 0)
(-0.0621965 0.06691 0)
(-0.073424 0.0788943 0)
(-0.0851142 0.0905592 0)
(-0.09703 0.10163 0)
(-0.108872 0.111755 0)
(-0.120305 0.12056 0)
(-0.131048 0.127741 0)
(-0.140849 0.133061 0)
(-0.149581 0.136473 0)
(-0.157243 0.138108 0)
(-0.16389 0.138174 0)
(-0.169579 0.136878 0)
(-0.174366 0.134416 0)
(-0.178304 0.130962 0)
(-0.181449 0.126674 0)
(-0.183869 0.121707 0)
(-0.185642 0.116205 0)
(-0.186851 0.110301 0)
(-0.187587 0.104118 0)
(-0.187933 0.097758 0)
(-0.187969 0.0913085 0)
(-0.187766 0.0848374 0)
(-0.187384 0.0783967 0)
(-0.186872 0.0720227 0)
(-0.186269 0.0657393 0)
(-0.185606 0.0595598 0)
(-0.184904 0.0534888 0)
(-0.184178 0.0475243 0)
(-0.183437 0.0416589 0)
(-0.182687 0.0358814 0)
(-0.18193 0.0301774 0)
(-0.181167 0.024532 0)
(-0.180399 0.0189284 0)
(-0.179623 0.0133454 0)
(-0.178841 0.00776527 0)
(-0.178052 0.00216859 0)
(-0.17726 -0.00346648 0)
(-0.176469 -0.00916125 0)
(-0.175686 -0.0149386 0)
(-0.174922 -0.0208223 0)
(-0.174189 -0.0268378 0)
(-0.173506 -0.033012 0)
(-0.172894 -0.0393744 0)
(-0.172378 -0.0459568 0)
(-0.171987 -0.0527943 0)
(-0.171754 -0.0599251 0)
(-0.171712 -0.0673905 0)
(-0.171897 -0.0752349 0)
(-0.172341 -0.0835035 0)
(-0.173068 -0.0922405 0)
(-0.174092 -0.101484 0)
(-0.175406 -0.111259 0)
(-0.176975 -0.121568 0)
(-0.178723 -0.132373 0)