/*--------------------------------*- C++ -*----------------------------------*\
  =========                 |
  \\      /  F ield         | OpenFOAM: The Open Source CFD Toolbox
   \\    /   O peration     | Website:  https://openfoam.org
    \\  /    A nd           | Version:  13
     \\/     M anipulation  |
\*---------------------------------------------------------------------------*/
FoamFile
{
    format      ascii;
    class       volScalarField;
    location    "9.6";
    object      k;
}
// * * * * * * * * * * * * * * * * * * * * * * * * * * * * * * * * * * * * * //

dimensions      [0 2 -2 0 0 0 0];

internalField   nonuniform List<scalar> 
6400
(
5.70034e-07
2.92748e-06
7.12051e-06
1.14635e-05
1.47219e-05
1.65338e-05
1.71703e-05
1.72028e-05
1.72784e-05
1.78723e-05
1.93601e-05
2.2332e-05
2.705e-05
3.36222e-05
4.16995e-05
5.0832e-05
6.05488e-05
7.06597e-05
8.06811e-05
9.03758e-05
0.000100155
0.000110858
0.000123609
0.000139015
0.00015635
0.000173725
0.000191012
0.000208176
0.000225781
0.000244279
0.000263394
0.000282511
0.000301318
0.0003199
0.00033869
0.000357815
0.000377643
0.000398301
0.000420026
0.00044288
0.000467031
0.000492659
0.000519914
0.000549068
0.000580425
0.00061507
0.000655139
0.000705118
0.000754134
0.000804462
0.000853429
0.000900961
0.00094539
0.000985552
0.00101993
0.00104654
0.00105974
0.00106492
0.00106139
0.00104005
0.00100308
0.00095081
0.00088365
0.000804815
0.000715135
0.00061969
0.000522979
0.000428562
0.00033992
0.000261284
0.000197091
0.000143243
9.97805e-05
6.66423e-05
4.28103e-05
2.65772e-05
1.59952e-05
9.18322e-06
4.34074e-06
9.24625e-07
2.75213e-06
2.31141e-05
5.60916e-05
8.75744e-05
0.00011074
0.000124445
0.000130863
0.000133341
0.000135549
0.000140587
0.000151979
0.000173923
0.000207526
0.000252146
0.000305668
0.000365358
0.000428758
0.000493374
0.000557325
0.000619974
0.000683569
0.000752634
0.000832748
0.000926121
0.00102831
0.00113015
0.00122922
0.00132338
0.0014138
0.00150141
0.00158446
0.00166202
0.00173263
0.00179736
0.00185843
0.0019168
0.00197438
0.00203204
0.00209109
0.00215207
0.00221569
0.00228262
0.00235292
0.00242667
0.00250327
0.00258263
0.00266281
0.00274101
0.00282537
0.00291143
0.00299986
0.00308704
0.00317139
0.00324915
0.00331694
0.0033707
0.00339802
0.00340618
0.00339253
0.00334475
0.00325918
0.00313551
0.00297196
0.00277253
0.00254162
0.00228841
0.00202388
0.00175596
0.00149246
0.00123722
0.00099467
0.000774385
0.000582668
0.000422666
0.000294577
0.000196557
0.00012548
7.55887e-05
3.66402e-05
4.89018e-06
6.00949e-06
5.00337e-05
0.000116253
0.000171529
0.000208973
0.000230908
0.000242844
0.000250875
0.000261138
0.000279656
0.000312367
0.00036423
0.000437033
0.000528954
0.000635875
0.00075348
0.000878384
0.00100777
0.00113892
0.00126959
0.00139806
0.00152358
0.00164394
0.00175371
0.00184794
0.00192303
0.00197655
0.00201423
0.00204383
0.00207228
0.00210339
0.00213641
0.00217177
0.00220728
0.00224631
0.00228814
0.00233442
0.0023851
0.00244122
0.0025027
0.00256939
0.00264191
0.00271962
0.00280279
0.00289127
0.00298496
0.00308313
0.00318699
0.00329629
0.00340926
0.00352496
0.00364104
0.00375526
0.00386419
0.00396402
0.00404993
0.00411677
0.00415146
0.00416103
0.0041395
0.00407284
0.00396074
0.00379882
0.00358958
0.00333527
0.00304448
0.00273317
0.00240992
0.00208514
0.00176929
0.0014711
0.00119722
0.00095251
0.000739505
0.000558937
0.000410058
0.000289563
0.000189947
9.64028e-05
1.30909e-05
1.04235e-05
8.39356e-05
0.000182243
0.000255815
0.000303755
0.000333262
0.000352992
0.0003716
0.000397599
0.000439338
0.000504311
0.000597196
0.00071783
0.00086138
0.00102081
0.00118934
0.00136101
0.00152998
0.00168999
0.00183504
0.00195948
0.00206138
0.0021383
0.00218356
0.00220292
0.00220765
0.00220413
0.00220238
0.00220247
0.00220907
0.00222059
0.00223561
0.00225571
0.00228065
0.0023109
0.00234618
0.00238715
0.00243366
0.00248567
0.00254356
0.00260723
0.002677
0.00275267
0.00283426
0.00292131
0.00301434
0.00311405
0.00322017
0.00333223
0.00344933
0.00357046
0.00369388
0.00381746
0.00393826
0.00405268
0.00415614
0.00424354
0.00430601
0.00433461
0.00433818
0.00429751
0.00421174
0.00408425
0.00390563
0.00367385
0.00339093
0.00307346
0.00273266
0.00238374
0.00204077
0.0017156
0.00141685
0.00114951
0.000915618
0.000715208
0.000546602
0.000405428
0.000282051
0.000153379
2.18575e-05
1.67076e-05
0.000129204
0.000260326
0.000351385
0.000409946
0.000448434
0.000478989
0.000513182
0.000562122
0.000636022
0.000742323
0.000883053
0.00105358
0.00124438
0.00144437
0.00164303
0.00183074
0.0019984
0.00213674
0.00224158
0.00230239
0.00232601
0.00232814
0.00229878
0.00226899
0.00224242
0.00222084
0.00220651
0.00219993
0.00219837
0.00220122
0.00220897
0.00222139
0.00223802
0.00225884
0.00228375
0.00231269
0.00234529
0.00238165
0.00242197
0.0024663
0.00251512
0.00256901
0.00262893
0.00269573
0.00276937
0.00284965
0.00293703
0.00303167
0.00313359
0.00324257
0.00335801
0.0034789
0.00360365
0.0037301
0.00385452
0.00397235
0.00407787
0.00416442
0.00421557
0.0042328
0.00420625
0.00412302
0.00398435
0.00379955
0.00355571
0.00325595
0.00291806
0.0025594
0.00219834
0.00185185
0.00153301
0.0012494
0.00100339
0.000794116
0.000618437
0.000470521
0.000338193
0.000192321
2.79722e-05
2.56723e-05
0.000189195
0.000355088
0.000464422
0.000535028
0.000584811
0.000629811
0.000684806
0.000763174
0.000875419
0.00102634
0.00121271
0.00142379
0.00164465
0.00185974
0.00205475
0.00221735
0.00234019
0.00240613
0.00242794
0.00241573
0.00237097
0.00232627
0.0022834
0.00224344
0.00220884
0.00218071
0.00215881
0.00214174
0.0021278
0.00211732
0.00211054
0.00210734
0.00210632
0.00210749
0.00211187
0.00211857
0.00212805
0.00214042
0.00215612
0.00217541
0.00219899
0.00222683
0.00225938
0.00229717
0.00234071
0.00239082
0.00244842
0.0025145
0.0025901
0.00267613
0.00277339
0.00288233
0.00300267
0.00313326
0.00327279
0.00341795
0.00356439
0.00370555
0.00383242
0.00393505
0.00398565
0.00399746
0.00394635
0.00383007
0.00365209
0.00339488
0.00307709
0.002717
0.00233792
0.0019642
0.00161672
0.0013091
0.00104644
0.000827371
0.000646661
0.000496107
0.000361161
0.000209948
3.02931e-05
3.81056e-05
0.000265848
0.000468889
0.000597816
0.000682183
0.000745768
0.000808764
0.000888876
0.00100043
0.00115177
0.00134237
0.00156209
0.00179378
0.00201768
0.0022152
0.00237101
0.00246549
0.00250096
0.00249937
0.00245033
0.00239698
0.00233483
0.00227507
0.00221574
0.00216254
0.00211688
0.00207717
0.00204153
0.00200917
0.00198025
0.00195526
0.00193333
0.00191348
0.00189568
0.00188008
0.00186684
0.00185586
0.00184745
0.00184204
0.00183962
0.00183908
0.00184209
0.00184849
0.00185856
0.00187287
0.00189171
0.001916
0.00194644
0.00198429
0.00203113
0.00208877
0.00215923
0.00224479
0.00234753
0.00246811
0.00260766
0.00276648
0.00294101
0.00312581
0.00331378
0.00349645
0.00365772
0.00377094
0.00381744
0.00381227
0.00371871
0.0035451
0.00327185
0.00292444
0.00252969
0.00212024
0.00172831
0.00137881
0.00108426
0.000844898
0.000653497
0.00049751
0.000360018
0.000209019
2.94587e-05
5.4737e-05
0.000360208
0.00060238
0.000752252
0.000852008
0.000931517
0.00101494
0.00112194
0.00126571
0.00144994
0.00166707
0.00189982
0.00212565
0.00232184
0.00247012
0.00254362
0.00256304
0.00253254
0.00247728
0.0024023
0.00232006
0.0022337
0.00215706
0.00208751
0.0020285
0.00197426
0.00192471
0.00187852
0.00183576
0.0017963
0.00176005
0.00172662
0.00169594
0.00166817
0.00164342
0.00162176
0.00160301
0.00158717
0.00157425
0.0015642
0.00155707
0.00155359
0.00155241
0.00155393
0.00155973
0.00156886
0.00158236
0.0016005
0.00162391
0.00165312
0.00168911
0.00173309
0.00178685
0.0018532
0.00193699
0.00204333
0.00217651
0.00234104
0.00253525
0.00275134
0.00298466
0.00322054
0.0034438
0.00362778
0.00371908
0.00374067
0.00367688
0.00350311
0.00320009
0.00280838
0.00236597
0.00191741
0.00150407
0.00115381
0.000875349
0.000660752
0.00049322
0.000351763
0.000202498
2.74285e-05
7.6074e-05
0.000472061
0.000754928
0.000926836
0.00104312
0.00113954
0.00124359
0.00137538
0.00154489
0.00174944
0.00197415
0.00219596
0.00238953
0.00252765
0.00258936
0.00259837
0.00255466
0.0024871
0.00239161
0.0022821
0.00218011
0.00209004
0.00200957
0.00193674
0.00187107
0.00180947
0.00175238
0.0016992
0.00165029
0.00160561
0.00156523
0.0015291
0.00149729
0.00146973
0.00144621
0.00142653
0.0014105
0.00139791
0.00138847
0.00138213
0.00137908
0.00137809
0.0013792
0.00138374
0.00139089
0.00140074
0.00141349
0.00142928
0.00144841
0.00147117
0.00149806
0.00152964
0.00156671
0.00161035
0.00166224
0.00172492
0.00180233
0.00190188
0.00203766
0.00222371
0.00245735
0.00272225
0.00300825
0.00329031
0.0035406
0.003682
0.0037261
0.00368783
0.00350698
0.0031615
0.00271309
0.00221399
0.001723
0.00129058
0.000944206
0.000685014
0.000493802
0.000338948
0.000189178
2.50949e-05
0.00010231
0.000599679
0.000924533
0.00111928
0.0012523
0.00136479
0.00148666
0.00163694
0.00182083
0.00202882
0.00223987
0.00242763
0.00255907
0.00261418
0.0026184
0.00257235
0.0024875
0.00236833
0.00224229
0.00212793
0.002025
0.0019334
0.00185021
0.00177395
0.00170375
0.00163863
0.00157924
0.0015255
0.00147781
0.00143611
0.00140034
0.00137027
0.00134555
0.00132576
0.0013104
0.00129895
0.00129089
0.00128621
0.00128415
0.00128368
0.00128569
0.00128959
0.00129539
0.00130315
0.00131268
0.00132408
0.00133751
0.00135304
0.00137089
0.00139126
0.0014144
0.00144062
0.00147028
0.00150379
0.00154161
0.00158476
0.00163485
0.00169481
0.00177041
0.00187091
0.00201368
0.00223156
0.0025177
0.00284058
0.00318203
0.00349658
0.00368872
0.00375368
0.00372998
0.00353046
0.00313029
0.00261553
0.00205609
0.00152633
0.00108307
0.000747867
0.000509945
0.000334146
0.000176918
2.31745e-05
0.000133912
0.000739248
0.00110807
0.00132596
0.00147458
0.00160012
0.00173396
0.00189284
0.00207661
0.0022697
0.00244709
0.00257336
0.00262533
0.00262759
0.00258131
0.00248243
0.0023462
0.00220877
0.0020805
0.00196667
0.0018644
0.00177222
0.00168797
0.00161104
0.00154125
0.00147868
0.00142387
0.00137676
0.00133733
0.00130509
0.00127949
0.00125979
0.00124522
0.00123498
0.00122845
0.00122528
0.00122418
0.00122454
0.0012274
0.00123141
0.00123709
0.00124402
0.00125235
0.00126203
0.00127313
0.00128575
0.00130002
0.00131605
0.00133398
0.00135395
0.00137609
0.00140056
0.00142754
0.00145728
0.00149012
0.00152589
0.00156513
0.00160845
0.00165784
0.00171721
0.00179534
0.00190763
0.00207929
0.00235798
0.00271432
0.00310574
0.00348353
0.00372384
0.00380579
0.00378296
0.00354788
0.00308024
0.00249241
0.00187568
0.00131855
0.00087733
0.000560734
0.000344013
0.000173504
2.24957e-05
0.00017236
0.000886241
0.0013018
0.00154206
0.00170365
0.00183712
0.0019746
0.00212999
0.00229818
0.00245926
0.00257935
0.00262985
0.00263197
0.00258641
0.00247927
0.00233214
0.00218273
0.00204288
0.00191725
0.00180579
0.00170536
0.00161482
0.00153315
0.00146053
0.00139716
0.0013432
0.00129859
0.00126274
0.00123489
0.00121399
0.00119898
0.00118877
0.00118262
0.0011797
0.00117874
0.00117918
0.00118158
0.00118504
0.0011898
0.00119547
0.00120228
0.00121014
0.00121921
0.00122957
0.00124137
0.00125476
0.0012699
0.00128693
0.001306
0.00132721
0.00135065
0.00137632
0.0014042
0.00143417
0.00146611
0.00149998
0.00153592
0.00157436
0.0016148
0.00165823
0.00170772
0.00177074
0.00186136
0.00200583
0.00224798
0.00262461
0.00305607
0.00349728
0.00377536
0.0038669
0.0038276
0.00353427
0.00298535
0.00232247
0.00166088
0.00109454
0.000669947
0.00038096
0.000180748
2.32906e-05
0.000215041
0.00104085
0.00150156
0.00176206
0.00193256
0.0020673
0.00219861
0.00233777
0.00247595
0.00258602
0.00263455
0.00263729
0.00259252
0.00248301
0.00232923
0.00216814
0.00201647
0.00187985
0.00175874
0.00165114
0.00155496
0.00146978
0.00139543
0.00133218
0.00127989
0.00123808
0.0012058
0.00118179
0.00116466
0.00115303
0.00114567
0.0011419
0.00114031
0.00113995
0.00114094
0.00114303
0.00114611
0.00114992
0.00115458
0.0011601
0.00116663
0.00117427
0.0011832
0.00119356
0.00120553
0.0012193
0.00123505
0.00125294
0.00127316
0.00129585
0.00132111
0.001349
0.00137945
0.00141231
0.00144725
0.00148381
0.00152144
0.0015597
0.00159859
0.0016387
0.00167914
0.0017226
0.00177523
0.00185039
0.0019731
0.00218791
0.00256555
0.0030374
0.00353452
0.00383345
0.00392206
0.00384527
0.00346326
0.0028197
0.00209142
0.001405
0.000853368
0.000464647
0.000206656
2.66691e-05
0.000260732
0.00119933
0.00170235
0.00198002
0.00215448
0.00228295
0.002398
0.00250904
0.0026028
0.00264639
0.00264905
0.00260375
0.00249604
0.00233883
0.00216793
0.00200375
0.0018557
0.00172486
0.00160973
0.00150838
0.00141983
0.00134407
0.00128096
0.00123014
0.00119065
0.00116112
0.0011399
0.00112525
0.00111563
0.00110965
0.00110643
0.00110495
0.00110444
0.00110443
0.00110546
0.00110704
0.00110929
0.00111222
0.00111596
0.00112064
0.00112644
0.0011335
0.001142
0.00115211
0.001164
0.00117786
0.00119387
0.00121224
0.00123317
0.00125685
0.00128347
0.00131316
0.001346
0.00138193
0.00142071
0.00146184
0.00150456
0.00154783
0.00159057
0.001632
0.00167241
0.00171165
0.00175091
0.00179633
0.00186102
0.00197074
0.00217379
0.00254227
0.00305178
0.00359492
0.00388737
0.00395708
0.00381713
0.00330343
0.0025689
0.00179022
0.00111031
0.000604293
0.000263067
3.48244e-05
0.000307947
0.0013575
0.00189897
0.00219015
0.00236317
0.00247792
0.00256749
0.00263943
0.00267299
0.00267321
0.00262448
0.00252056
0.00236259
0.00218387
0.00200727
0.00184643
0.00170498
0.00158161
0.00147447
0.00138227
0.00130456
0.00124105
0.00119091
0.00115285
0.00112502
0.00110543
0.00109211
0.00108331
0.00107763
0.00107399
0.00107165
0.00107002
0.00106885
0.00106825
0.00106806
0.00106833
0.00106933
0.0010711
0.00107385
0.00107768
0.00108278
0.00108929
0.00109737
0.00110719
0.00111889
0.00113264
0.00114865
0.00116709
0.0011882
0.00121221
0.00123938
0.00126995
0.00130413
0.00134206
0.00138372
0.00142888
0.00147692
0.0015268
0.00157698
0.00162558
0.00167082
0.00171208
0.00174893
0.00178534
0.00182715
0.00188488
0.00198811
0.0021855
0.00255821
0.00310616
0.00366785
0.00393008
0.00396168
0.0037108
0.00304535
0.00221822
0.00142441
0.000792451
0.000348502
4.79409e-05
0.000355323
0.00151127
0.0020867
0.00238741
0.00255344
0.00264786
0.00270224
0.00272403
0.00271506
0.00265985
0.00255926
0.00240222
0.00221765
0.00202912
0.00185417
0.00170021
0.00156722
0.00145305
0.00135615
0.00127556
0.00121058
0.0011601
0.00112235
0.00109516
0.00107618
0.00106322
0.0010544
0.00104827
0.00104376
0.00104018
0.00103711
0.00103435
0.00103189
0.00102985
0.0010283
0.00102753
0.00102733
0.00102806
0.00103002
0.00103322
0.0010378
0.00104391
0.00105167
0.00106122
0.00107269
0.00108625
0.00110205
0.0011203
0.0011412
0.00116502
0.00119205
0.00122259
0.00125698
0.00129553
0.00133849
0.00138595
0.0014377
0.00149313
0.00155095
0.00160915
0.00166498
0.00171541
0.00176033
0.00179502
0.00182399
0.0018627
0.00191816
0.00201944
0.00221949
0.00261035
0.00320174
0.00374744
0.0039664
0.00391485
0.00347158
0.00265784
0.0017756
0.00101766
0.000455509
6.48671e-05
0.000401897
0.00165637
0.00226175
0.00256848
0.00272063
0.00278461
0.00280021
0.00277853
0.00271453
0.00261569
0.0024597
0.00227095
0.00207134
0.00188124
0.00171238
0.00156738
0.00144436
0.00134111
0.0012562
0.00118844
0.00113633
0.00109776
0.00107018
0.00105094
0.00103763
0.00102823
0.00102123
0.00101558
0.00101061
0.00100599
0.00100158
0.000997396
0.000993559
0.000990211
0.000987499
0.000985713
0.000984923
0.000984813
0.000986201
0.000988971
0.000993199
0.000999017
0.00100653
0.00101585
0.0010271
0.00104041
0.00105593
0.00107384
0.00109435
0.00111769
0.00114417
0.00117412
0.00120793
0.00124603
0.00128884
0.00133675
0.00138998
0.00144844
0.0015115
0.00157774
0.00164467
0.00170862
0.00176513
0.00181389
0.00184768
0.00186737
0.00190212
0.0019586
0.00206241
0.0022747
0.00270044
0.0033342
0.00381785
0.00396353
0.00377345
0.00308155
0.00214993
0.00127071
0.000577752
8.45415e-05
0.00044667
0.00179154
0.00242065
0.00272599
0.002858
0.00289309
0.00287202
0.00280188
0.0026924
0.00253773
0.0023456
0.00213601
0.00193019
0.00174397
0.0015838
0.00144918
0.00133741
0.0012463
0.00117413
0.00111896
0.00107835
0.0010494
0.00102916
0.00101494
0.00100459
0.000996496
0.000989589
0.000983228
0.000977099
0.00097111
0.00096531
0.000959828
0.000954825
0.000950468
0.000946916
0.000944322
0.000943024
0.000942607
0.00094345
0.000945923
0.000949882
0.000955455
0.000962741
0.000971834
0.000982844
0.000995888
0.0010111
0.00102864
0.0010487
0.00107149
0.0010973
0.00112645
0.00115933
0.00119641
0.00123821
0.00128529
0.00133819
0.00139729
0.00146263
0.00153364
0.00160875
0.00168498
0.00175767
0.00182063
0.00187345
0.00190212
0.00191617
0.00194589
0.00200497
0.0021168
0.00235405
0.00283835
0.0035127
0.00385826
0.00389442
0.00346238
0.00253768
0.00154754
0.000711241
0.000106026
0.000487924
0.0019131
0.00255834
0.00285733
0.00296705
0.0029779
0.00291399
0.00279595
0.00264108
0.00244397
0.00222525
0.00200374
0.00179805
0.00161912
0.00146924
0.00134599
0.00124632
0.00116775
0.00110789
0.00106391
0.00103258
0.0010106
0.000995015
0.000983437
0.00097413
0.000965957
0.000958258
0.000950728
0.000943291
0.000936012
0.000929027
0.000922505
0.000916613
0.000911507
0.000907328
0.0009042
0.000902493
0.000901863
0.000902246
0.000904443
0.000908137
0.000913452
0.000920486
0.000929323
0.000940066
0.000952823
0.000967718
0.000984895
0.00100452
0.0010268
0.00105197
0.00108033
0.00111225
0.00114818
0.00118866
0.00123432
0.00128585
0.00134395
0.00140919
0.00148177
0.00156116
0.00164564
0.0017317
0.00181359
0.00188334
0.00193583
0.0019575
0.00196733
0.00199334
0.00205717
0.00218447
0.00246984
0.00303767
0.00366225
0.00389777
0.00371576
0.00291865
0.0018448
0.000853604
0.000128657
0.000524206
0.00201812
0.00267265
0.00296237
0.00305289
0.00303649
0.00293069
0.00277215
0.00256985
0.00234148
0.00210465
0.00187813
0.00167691
0.00150736
0.00136872
0.00125743
0.00117005
0.00110354
0.00105465
0.00101979
0.000995299
0.000977863
0.000964813
0.000954211
0.000944797
0.000935853
0.000927048
0.000918303
0.000909686
0.000901337
0.000893422
0.000886107
0.000879545
0.000873872
0.000869207
0.000865657
0.000863558
0.000862716
0.000862687
0.000864547
0.000867935
0.000872941
0.000879667
0.000888197
0.000898629
0.000911067
0.000925631
0.000942452
0.000961683
0.000983505
0.00100813
0.00103583
0.00106693
0.00110182
0.00114103
0.00118517
0.00123498
0.00129131
0.00135504
0.00142692
0.00150731
0.0015957
0.00169009
0.00178619
0.00187677
0.00195137
0.00199951
0.00201385
0.00201927
0.00204427
0.00211535
0.00227036
0.00263353
0.00328714
0.00373921
0.00380973
0.00327251
0.00215731
0.00100039
0.000152259
0.000554712
0.00210541
0.00276323
0.003042
0.00311661
0.00306996
0.00292482
0.00272479
0.0024879
0.00223576
0.00198786
0.00176148
0.00156756
0.00140862
0.00128169
0.00118243
0.00110686
0.0010512
0.00101142
0.000983472
0.000963612
0.000948795
0.000936799
0.000926169
0.000916072
0.000906119
0.000896204
0.000886386
0.000876799
0.000867606
0.00085897
0.00085104
0.000843945
0.000837804
0.000832718
0.000828784
0.000826203
0.000825014
0.000824751
0.00082613
0.00082915
0.000833781
0.000840136
0.000848299
0.000858367
0.000870448
0.000884655
0.000901115
0.000919973
0.000941393
0.000965568
0.00099273
0.00102317
0.00105723
0.00109538
0.00113818
0.00118634
0.00124074
0.0013024
0.00137239
0.00145168
0.00154079
0.00163917
0.00174443
0.00185133
0.0019509
0.00202687
0.00206247
0.00206986
0.00207123
0.00209805
0.00218234
0.00238604
0.00287545
0.00353498
0.00379687
0.00354008
0.00247467
0.0011489
0.000176718
0.000579001
0.002175
0.00283114
0.00309803
0.00315788
0.00308142
0.00290455
0.00266562
0.00240016
0.00213084
0.00187748
0.00165488
0.00147004
0.0013223
0.00120712
0.00111944
0.00105465
0.00100821
0.000975569
0.000952511
0.000935512
0.000921951
0.00091009
0.000898914
0.000887927
0.000876972
0.000866079
0.000855373
0.00084501
0.000835148
0.00082593
0.000817484
0.00080992
0.00080334
0.000797832
0.000793482
0.000790364
0.00078878
0.000788273
0.000789098
0.00079168
0.000795877
0.000801801
0.00080954
0.000819195
0.000830873
0.00084469
0.000860771
0.000879255
0.000900298
0.000924077
0.000950802
0.000980724
0.00101415
0.00105148
0.00109322
0.00114
0.00119265
0.0012522
0.00131987
0.00139696
0.00148467
0.00158358
0.00169294
0.00180961
0.00192693
0.00203401
0.00210371
0.00212446
0.00212529
0.00211997
0.00215607
0.00226433
0.00255839
0.0031835
0.00362901
0.00365921
0.00279381
0.0013107
0.000203361
0.000597007
0.00222758
0.0028778
0.00313235
0.00317862
0.00307536
0.00286626
0.00259814
0.00231037
0.00202952
0.001775
0.00155866
0.00138387
0.00124746
0.00114365
0.0010667
0.0010113
0.000972332
0.000944993
0.00092518
0.000909751
0.000896568
0.000884341
0.000872412
0.00086053
0.000848681
0.000836969
0.000825539
0.000814544
0.000804122
0.000794398
0.000785479
0.00077746
0.000770429
0.000764467
0.000759647
0.00075604
0.00075396
0.000753168
0.000753415
0.000755497
0.000759214
0.000764661
0.000771931
0.000781129
0.000792363
0.000805752
0.000821424
0.000839515
0.000860178
0.000883582
0.00090992
0.000939421
0.000972358
0.00100907
0.00105
0.00109571
0.00114694
0.00120466
0.00127007
0.00134464
0.00142996
0.00152747
0.00163776
0.00175957
0.00188828
0.00201425
0.00212176
0.00217789
0.00218742
0.00217357
0.00216366
0.00221756
0.00238158
0.00284061
0.00347361
0.00368153
0.00310876
0.00151075
0.000237302
0.000609016
0.00226418
0.00290426
0.00314521
0.00317837
0.00305614
0.00281829
0.00252598
0.00222139
0.00193364
0.00168113
0.00147262
0.00130831
0.00118296
0.00108982
0.00102244
0.000974917
0.000941763
0.000918176
0.00090036
0.000885632
0.000872312
0.000859491
0.000846776
0.000834079
0.000821468
0.000809073
0.000797038
0.000785501
0.00077458
0.000764382
0.000755
0.00074652
0.000739022
0.000732584
0.000727282
0.000723193
0.000720535
0.000719341
0.000719143
0.000720646
0.000723854
0.000728795
0.000735566
0.000744272
0.000755028
0.000767953
0.000783179
0.000800844
0.000821102
0.00084412
0.000870082
0.000899203
0.00093173
0.000967968
0.0010083
0.00105321
0.00110334
0.00115957
0.00122302
0.00129515
0.00137773
0.00147268
0.00158169
0.00170531
0.00184165
0.00198447
0.00212137
0.00221548
0.00224746
0.00224561
0.0022165
0.00220925
0.00229611
0.00256828
0.00320177
0.00357532
0.00336307
0.00176518
0.000283194
0.0006151
0.00228513
0.00291161
0.00314211
0.00316735
0.00302197
0.00276307
0.00245188
0.00213528
0.0018443
0.00159604
0.00139626
0.0012424
0.00112759
0.00104416
0.000985061
0.000943928
0.000915139
0.000894088
0.000877385
0.000862809
0.000849085
0.0008356
0.000822147
0.000808737
0.000795476
0.000782498
0.000769936
0.000757907
0.000746516
0.000735855
0.00072601
0.000717062
0.000709089
0.00070217
0.000696384
0.000691814
0.00068854
0.000686859
0.000686338
0.000687227
0.00068991
0.000694333
0.000700589
0.000708785
0.000719034
0.000731464
0.000746207
0.000763407
0.000783221
0.000805817
0.000831381
0.000860119
0.000892265
0.000928098
0.000967954
0.00101226
0.00106158
0.00111667
0.00117854
0.00124856
0.00132849
0.00142047
0.00152677
0.00164915
0.0017876
0.00193842
0.00209185
0.00223002
0.00230332
0.00231555
0.00228451
0.0022495
0.00226848
0.00242115
0.00291162
0.00343139
0.00348515
0.0020702
0.000341052
0.00061481
0.0022932
0.00290685
0.00312784
0.00314158
0.00297879
0.00270326
0.002378
0.00205345
0.00176209
0.00151956
0.00132889
0.00118515
0.0010801
0.00100531
0.000953189
0.000917107
0.000891496
0.000872072
0.000855886
0.000841141
0.000826896
0.000812755
0.000798637
0.000784606
0.000770781
0.000757287
0.000744243
0.00073175
0.000719903
0.000708785
0.000698479
0.000689064
0.000680619
0.000673222
0.000666953
0.000661887
0.000658098
0.00065589
0.000655055
0.000655364
0.000657522
0.000661431
0.00066717
0.000674845
0.000684573
0.000696481
0.000710708
0.000727402
0.000746725
0.000768852
0.000793972
0.000822292
0.000854042
0.000889486
0.000928933
0.000972765
0.00102147
0.00107571
0.00113637
0.00120468
0.00128231
0.00137145
0.00147471
0.00159478
0.00173346
0.00188986
0.00205781
0.00222307
0.00234154
0.0023814
0.00237237
0.0023021
0.00227094
0.00234439
0.00266424
0.00329213
0.00351657
0.00241535
0.000408538
0.00061165
0.00229131
0.002891
0.00309828
0.00310312
0.00292849
0.00264094
0.00230593
0.00197684
0.00168721
0.00145131
0.00126973
0.00113555
0.00103937
0.000972084
0.000925722
0.000893542
0.000870175
0.000851726
0.000835673
0.000820588
0.000805786
0.000791033
0.000776321
0.000761741
0.000747411
0.000733444
0.000719945
0.000707006
0.000694713
0.000683149
0.000672392
0.000662524
0.000653624
0.000645771
0.000639043
0.000633517
0.000629272
0.000626536
0.000625339
0.000625199
0.000626834
0.000630242
0.000635474
0.00064263
0.000651828
0.000663198
0.000676881
0.000693031
0.000711816
0.000733419
0.000758037
0.000785883
0.000817192
0.000852222
0.00089127
0.000934685
0.000982903
0.0010365
0.00109624
0.00116322
0.00123894
0.00132549
0.00142556
0.00154231
0.00167868
0.00183591
0.00201079
0.00219199
0.00235642
0.00243997
0.00245237
0.002396
0.00232129
0.00231793
0.00249357
0.00306614
0.00343865
0.00276261
0.000479025
0.000604568
0.0022827
0.00286114
0.00305821
0.00305588
0.00287312
0.00257777
0.00223684
0.00190599
0.00161961
0.00139077
0.00121798
0.00109264
0.00100437
0.000943495
0.000901798
0.000872575
0.000850744
0.000832815
0.000816658
0.000801148
0.000785799
0.000770482
0.000755235
0.000740159
0.000725364
0.000710953
0.00069702
0.000683651
0.000670929
0.000658935
0.00064775
0.000637456
0.000628133
0.000619861
0.000612718
0.000606784
0.00060214
0.000598889
0.000597276
0.000596845
0.000597969
0.000600899
0.000605642
0.000612292
0.000620962
0.000631785
0.000644903
0.000660477
0.000678681
0.000699707
0.00072376
0.000751067
0.00078187
0.000816433
0.00085505
0.000898054
0.000945845
0.00099893
0.00105798
0.00112395
0.00119818
0.00128258
0.0013798
0.0014932
0.00162659
0.00178307
0.00196274
0.00215902
0.00235407
0.00248635
0.0025243
0.00249571
0.00237623
0.00232247
0.00240887
0.00284983
0.00330023
0.00304028
0.000536553
0.000593468
0.00226443
0.00282237
0.00301058
0.00300181
0.00281441
0.00251506
0.00217154
0.00184116
0.00155907
0.00133738
0.00117287
0.00105556
0.000974213
0.000918736
0.000880762
0.000853738
0.000832918
0.000815201
0.000798801
0.000782833
0.000766959
0.000751123
0.000735388
0.000719854
0.000704625
0.000689793
0.000675446
0.000661667
0.000648538
0.000636142
0.000624562
0.00061388
0.000604177
0.000595533
0.000588025
0.000581728
0.000576715
0.000573055
0.000571037
0.000570353
0.000571021
0.000573505
0.000577786
0.000583946
0.000592099
0.000602374
0.000614916
0.00062989
0.000647477
0.000667876
0.000691306
0.000718005
0.000748229
0.000782255
0.000820383
0.000862945
0.000910319
0.000962967
0.00102148
0.00108669
0.00115977
0.00124243
0.00133712
0.00144723
0.0015769
0.00173039
0.00191006
0.0021128
0.00232532
0.00250879
0.00258851
0.00259055
0.00248198
0.00236882
0.00236831
0.00267297
0.00317123
0.00317282
0.000563289
0.000578957
0.00223925
0.00277664
0.00295678
0.0029429
0.0027538
0.0024538
0.00211053
0.00178242
0.00150526
0.00129054
0.00113368
0.00102353
0.000948167
0.000897164
0.000862122
0.000836704
0.000816511
0.000798803
0.000782077
0.000765646
0.000749276
0.00073296
0.000716772
0.000700811
0.000685172
0.000669941
0.000655204
0.000641041
0.000627537
0.000614776
0.000602842
0.000591818
0.000581785
0.000572821
0.000564999
0.000558391
0.000553061
0.000549073
0.000546689
0.000545774
0.000546048
0.000548123
0.000551973
0.00055767
0.000565321
0.000575055
0.000587018
0.000601377
0.000618319
0.000638051
0.000660805
0.000686832
0.000716405
0.000749818
0.000787385
0.000829446
0.000876377
0.00092861
0.000986682
0.00105131
0.00112353
0.00120483
0.00129748
0.00140469
0.0015308
0.00168093
0.00185944
0.00206666
0.00229338
0.00251448
0.00264634
0.00267328
0.00259509
0.00241803
0.00235736
0.00251344
0.0030638
0.0032103
0.00056799
0.000561864
0.00220939
0.00272569
0.00289832
0.00288077
0.00269251
0.00239472
0.00205413
0.00172969
0.00145782
0.00124969
0.00109974
0.000995877
0.00092561
0.000878272
0.000845511
0.00082124
0.000801399
0.000783563
0.000766471
0.000749583
0.000732746
0.000715981
0.000699371
0.000683008
0.000666984
0.00065138
0.00063628
0.000621766
0.000607925
0.00059484
0.000582599
0.000571283
0.000560973
0.000551744
0.000543664
0.0005368
0.000531212
0.000526961
0.000524255
0.000523117
0.000523074
0.000524781
0.000528233
0.000533493
0.000540664
0.000549871
0.00056126
0.000574998
0.000591278
0.000610315
0.00063235
0.00065765
0.000686505
0.000719229
0.000756159
0.000797649
0.000844084
0.000895886
0.000953556
0.00101773
0.0010893
0.00116958
0.00126057
0.00136526
0.00148792
0.00163405
0.00180947
0.00201754
0.00225397
0.00250003
0.00268778
0.00274834
0.00270917
0.00251701
0.00238304
0.0024356
0.00289461
0.00318197
0.000556544
0.000542858
0.00217662
0.00267112
0.00283665
0.00281674
0.00263147
0.00233834
0.00200246
0.00168279
0.00141634
0.0012143
0.00107046
0.000972029
0.000906038
0.000861664
0.000830653
0.000807178
0.000787491
0.000769441
0.000751964
0.000734633
0.000717354
0.000700169
0.000683162
0.000666424
0.00065004
0.000634092
0.000618662
0.000603835
0.000589697
0.000576336
0.000563837
0.000552282
0.000541748
0.000532308
0.000524025
0.000516961
0.000511174
0.000506722
0.000503735
0.000502341
0.000502099
0.000503469
0.000506556
0.000511411
0.000518126
0.000526825
0.000537651
0.000550772
0.000566384
0.000584707
0.000605993
0.000630522
0.000658603
0.000690571
0.000726787
0.00076763
0.000813504
0.000864837
0.000922108
0.000985898
0.00105699
0.00113651
0.00122624
0.00132887
0.00144848
0.00159073
0.00176235
0.00196899
0.00221013
0.00247135
0.0027079
0.0028141
0.00280999
0.00263444
0.00242669
0.00240321
0.00274341
0.00310779
0.000536848
0.000522601
0.00214168
0.00261419
0.00277299
0.00275194
0.00257144
0.00228502
0.00195554
0.00164148
0.00138043
0.00118388
0.00104534
0.0009515
0.00088904
0.00084703
0.000817337
0.000794389
0.000774717
0.000756401
0.000738532
0.000720777
0.000703081
0.000685501
0.000668124
0.000651036
0.000634321
0.000618061
0.000602338
0.000587238
0.000572849
0.000559258
0.000546551
0.000534807
0.000524102
0.000514502
0.000506067
0.000498855
0.000492918
0.00048831
0.000485086
0.000483467
0.000483062
0.000484142
0.0004869
0.000491379
0.000497666
0.00050588
0.000516161
0.000528677
0.000543623
0.000561227
0.000581746