/*--------------------------------*- C++ -*----------------------------------*\
  =========                 |
  \\      /  F ield         | OpenFOAM: The Open Source CFD Toolbox
   \\    /   O peration     | Website:  https://openfoam.org
    \\  /    A nd           | Version:  13
     \\/     M anipulation  |
\*---------------------------------------------------------------------------*/
FoamFile
{
    format      ascii;
    class       volScalarField;
    location    "9.6";
    object      nut;
}
// * * * * * * * * * * * * * * * * * * * * * * * * * * * * * * * * * * * * * //

dimensions      [0 2 -1 0 0 0 0];

internalField   nonuniform List<scalar> 
6400
(
1.002e-09
5.14588e-09
1.25163e-08
2.01503e-08
2.58778e-08
2.90627e-08
3.01816e-08
3.02387e-08
3.03715e-08
3.14154e-08
3.40307e-08
3.9255e-08
4.75488e-08
5.91021e-08
7.33012e-08
8.93555e-08
1.06437e-07
1.24211e-07
1.41827e-07
1.58869e-07
1.76059e-07
1.94875e-07
2.17288e-07
2.44369e-07
2.74839e-07
3.05381e-07
3.35769e-07
3.6594e-07
3.96885e-07
4.294e-07
4.63001e-07
4.96604e-07
5.29663e-07
5.62326e-07
5.95355e-07
6.28973e-07
6.63827e-07
7.00139e-07
7.38328e-07
7.78501e-07
8.20953e-07
8.66003e-07
9.13914e-07
9.65161e-07
1.02028e-06
1.08118e-06
1.15162e-06
1.23947e-06
1.32563e-06
1.4141e-06
1.50018e-06
1.58374e-06
1.66184e-06
1.73244e-06
1.79287e-06
1.83966e-06
1.86286e-06
1.87197e-06
1.86575e-06
1.82824e-06
1.76326e-06
1.67138e-06
1.55333e-06
1.41475e-06
1.2571e-06
1.08933e-06
9.19324e-07
7.53354e-07
5.97535e-07
4.59303e-07
3.46462e-07
2.51806e-07
1.75404e-07
1.17151e-07
7.52566e-08
4.67204e-08
2.81181e-08
1.61431e-08
7.63048e-09
1.62536e-09
4.83765e-09
3.38926e-07
1.21751e-06
2.04944e-06
2.66226e-06
3.02112e-06
3.18402e-06
3.23894e-06
3.27147e-06
3.34431e-06
3.53441e-06
3.91443e-06
4.45175e-06
5.07742e-06
5.72721e-06
6.33711e-06
6.86062e-06
7.24841e-06
7.48675e-06
7.59279e-06
7.65222e-06
7.72956e-06
7.89392e-06
8.16894e-06
8.48825e-06
8.69347e-06
8.90057e-06
9.1389e-06
9.45633e-06
9.89025e-06
1.04412e-05
1.10477e-05
1.17022e-05
1.23779e-05
1.30913e-05
1.38286e-05
1.45982e-05
1.53947e-05
1.62249e-05
1.70831e-05
1.79635e-05
1.88719e-05
1.98121e-05
2.07986e-05
2.17991e-05
2.27764e-05
2.37076e-05
2.45334e-05
2.54104e-05
2.62867e-05
2.71757e-05
2.80529e-05
2.89061e-05
2.97136e-05
3.04539e-05
3.11831e-05
3.16126e-05
3.19101e-05
3.20849e-05
3.20397e-05
3.16521e-05
3.09699e-05
2.99481e-05
2.85948e-05
2.69025e-05
2.49333e-05
2.27786e-05
2.04566e-05
1.80028e-05
1.53268e-05
1.24198e-05
9.62425e-06
7.16065e-06
5.13681e-06
3.56284e-06
2.42365e-06
1.62084e-06
1.04798e-06
4.73715e-07
8.59634e-09
1.05633e-08
8.71687e-07
3.50995e-06
6.08406e-06
8.05145e-06
9.32674e-06
1.00408e-05
1.03965e-05
1.06079e-05
1.08573e-05
1.12754e-05
1.19459e-05
1.2842e-05
1.38617e-05
1.48734e-05
1.57653e-05
1.64852e-05
1.70064e-05
1.73275e-05
1.74643e-05
1.74398e-05
1.73557e-05
1.72912e-05
1.72851e-05
1.73728e-05
1.76488e-05
1.79773e-05
1.83141e-05
1.86793e-05
1.90689e-05
1.95808e-05
2.02984e-05
2.13004e-05
2.23265e-05
2.34824e-05
2.46942e-05
2.5984e-05
2.72896e-05
2.86544e-05
3.01065e-05
3.15105e-05
3.29621e-05
3.43657e-05
3.5703e-05
3.69787e-05
3.82347e-05
3.94544e-05
4.06804e-05
4.19168e-05
4.31488e-05
4.43723e-05
4.55728e-05
4.67349e-05
4.78374e-05
4.88526e-05
4.97435e-05
5.05416e-05
5.10434e-05
5.12699e-05
5.14175e-05
5.12288e-05
5.07229e-05
4.98302e-05
4.84689e-05
4.6541e-05
4.40864e-05
4.12912e-05
3.81323e-05
3.4626e-05
3.08095e-05
2.67387e-05
2.25547e-05
1.84563e-05
1.46476e-05
1.12974e-05
8.4635e-06
6.21383e-06
4.27616e-06
1.77869e-06
2.30124e-08
1.8322e-08
1.42384e-06
5.48017e-06
9.34359e-06
1.23281e-05
1.43754e-05
1.56427e-05
1.63556e-05
1.67827e-05
1.71451e-05
1.7646e-05
1.84105e-05
1.94161e-05
2.05199e-05
2.15568e-05
2.24092e-05
2.30157e-05
2.33726e-05
2.351e-05
2.3488e-05
2.33756e-05
2.32824e-05
2.3278e-05
2.34068e-05
2.34779e-05
2.35008e-05
2.35204e-05
2.39514e-05
2.47141e-05
2.57345e-05
2.70301e-05
2.82625e-05
2.94872e-05
3.07892e-05
3.21215e-05
3.34221e-05
3.47349e-05
3.61171e-05
3.74043e-05
3.86947e-05
3.99257e-05
4.11408e-05
4.23029e-05
4.34282e-05
4.45049e-05
4.55585e-05
4.66111e-05
4.76643e-05
4.87144e-05
4.97553e-05
5.07808e-05
5.17801e-05
5.27403e-05
5.36447e-05
5.44735e-05
5.52033e-05
5.58094e-05
5.62613e-05
5.64897e-05
5.65371e-05
5.63637e-05
5.58075e-05
5.50653e-05
5.42481e-05
5.29105e-05
5.0946e-05
4.85289e-05
4.56325e-05
4.2322e-05
3.86426e-05
3.46375e-05
3.03731e-05
2.59595e-05
2.15627e-05
1.73884e-05
1.36029e-05
1.03143e-05
7.2241e-06
2.99286e-06
3.84232e-08
2.93679e-08
2.13399e-06
7.59419e-06
1.25535e-05
1.62511e-05
1.8739e-05
2.02597e-05
2.11024e-05
2.15846e-05
2.20281e-05
2.26897e-05
2.3656e-05
2.48224e-05
2.59879e-05
2.69721e-05
2.76739e-05
2.80728e-05
2.82096e-05
2.8142e-05
2.79913e-05
2.77756e-05
2.76259e-05
2.74844e-05
2.68936e-05
2.68661e-05
2.74305e-05
2.83987e-05
2.95522e-05
3.07235e-05
3.20383e-05
3.33361e-05
3.45827e-05
3.58092e-05
3.70007e-05
3.80961e-05
3.91266e-05
4.0169e-05
4.11135e-05
4.19424e-05
4.27199e-05
4.34137e-05
4.40598e-05
4.46655e-05
4.52672e-05
4.58851e-05
4.6514e-05
4.71405e-05
4.77748e-05
4.84184e-05
4.90747e-05
4.97453e-05
5.04303e-05
5.11277e-05
5.18329e-05
5.25388e-05
5.32331e-05
5.38947e-05
5.44945e-05
5.50003e-05
5.53508e-05
5.54792e-05
5.534e-05
5.47404e-05
5.36477e-05
5.28552e-05
5.16448e-05
4.98028e-05
4.7467e-05
4.46969e-05
4.15411e-05
3.80343e-05
3.42008e-05
3.00767e-05
2.57534e-05
2.1443e-05
1.73101e-05
1.34357e-05
9.43779e-06
3.84506e-06
4.91721e-08
4.51258e-08
3.0889e-06
1.00906e-05
1.60636e-05
2.02638e-05
2.29339e-05
2.4465e-05
2.52703e-05
2.57742e-05
2.63554e-05
2.72265e-05
2.83675e-05
2.95912e-05
3.0676e-05
3.14648e-05
3.18957e-05
3.19874e-05
3.18664e-05
3.14885e-05
3.11949e-05
3.06944e-05
2.98501e-05
2.97306e-05
3.04811e-05
3.14734e-05
3.25119e-05
3.36984e-05
3.48831e-05
3.60276e-05
3.71142e-05
3.80784e-05
3.89607e-05
3.97681e-05
4.04552e-05
4.10249e-05
4.15069e-05
4.19059e-05
4.2302e-05
4.25749e-05
4.28291e-05
4.30429e-05
4.32476e-05
4.34376e-05
4.36146e-05
4.37872e-05
4.3953e-05
4.41207e-05
4.42976e-05
4.4494e-05
4.47197e-05
4.49866e-05
4.5307e-05
4.56931e-05
4.61519e-05
4.66795e-05
4.72862e-05
4.79676e-05
4.87001e-05
4.94471e-05
5.01582e-05
5.08413e-05
5.12229e-05
5.13461e-05
5.10936e-05
5.02681e-05
4.97743e-05
4.85455e-05
4.67666e-05
4.44977e-05
4.18227e-05
3.88122e-05
3.54964e-05
3.18562e-05
2.7865e-05
2.36737e-05
1.94243e-05
1.52669e-05
1.07654e-05
4.26194e-06
5.32519e-08
6.69809e-08
4.33214e-06
1.30006e-05
1.98736e-05
2.4383e-05
2.70441e-05
2.8444e-05
2.9153e-05
2.969e-05
3.04163e-05
3.14369e-05
3.26243e-05
3.37473e-05
3.46029e-05
3.5086e-05
3.51927e-05
3.4775e-05
3.43559e-05
3.39295e-05
3.27707e-05
3.24673e-05
3.30017e-05
3.38923e-05
3.47208e-05
3.5642e-05
3.65707e-05
3.75047e-05
3.83156e-05
3.9018e-05
3.96182e-05
4.01381e-05
4.05818e-05
4.0918e-05
4.11625e-05
4.13318e-05
4.14449e-05
4.15121e-05
4.15461e-05
4.15163e-05
4.14923e-05
4.14702e-05
4.13812e-05
4.13082e-05
4.11984e-05
4.10905e-05
4.09582e-05
4.08204e-05
4.06697e-05
4.05227e-05
4.03834e-05
4.02682e-05
4.01972e-05
4.02031e-05
4.03352e-05
4.05703e-05
4.09409e-05
4.15061e-05
4.22593e-05
4.31568e-05
4.41468e-05
4.52143e-05
4.62203e-05
4.70977e-05
4.75009e-05
4.75182e-05
4.70361e-05
4.67237e-05
4.54936e-05
4.36247e-05
4.12439e-05
3.84938e-05
3.54881e-05
3.22591e-05
2.87135e-05
2.47378e-05
2.0634e-05
1.61962e-05
1.10634e-05
4.25462e-06
5.17851e-08
9.62155e-08
5.88308e-06
1.62531e-05
2.38772e-05
2.85176e-05
3.104e-05
3.22459e-05
3.28542e-05
3.34234e-05
3.42368e-05
3.52802e-05
3.63514e-05
3.72126e-05
3.76965e-05
3.77622e-05
3.72908e-05
3.68535e-05
3.58367e-05
3.51303e-05
3.51479e-05
3.57477e-05
3.61842e-05
3.68639e-05
3.75094e-05
3.82815e-05
3.89365e-05
3.95163e-05
3.99584e-05
4.03068e-05
4.05618e-05
4.07433e-05
4.08552e-05
4.09046e-05
4.09126e-05
4.08909e-05
4.08502e-05
4.07935e-05
4.07226e-05
4.06383e-05
4.05534e-05
4.04117e-05
4.03149e-05
4.02309e-05
4.00195e-05
3.98711e-05
3.96702e-05
3.94679e-05
3.92416e-05
3.89927e-05
3.87199e-05
3.84217e-05
3.80944e-05
3.77338e-05
3.73316e-05
3.69991e-05
3.68014e-05
3.67952e-05
3.71414e-05
3.78336e-05
3.8728e-05
3.99378e-05
4.12444e-05
4.26254e-05
4.39117e-05
4.45995e-05
4.4704e-05
4.45962e-05
4.44253e-05
4.30283e-05
4.09013e-05
3.82315e-05
3.52337e-05
3.20847e-05
2.88283e-05
2.52344e-05
2.11431e-05
1.6722e-05
1.12506e-05
4.14723e-06
4.82161e-08
1.33722e-07
7.72408e-06
1.97557e-05
2.79205e-05
3.25743e-05
3.48858e-05
3.58782e-05
3.63844e-05
3.69461e-05
3.77434e-05
3.86665e-05
3.94813e-05
3.9979e-05
3.98906e-05
3.9454e-05
3.8984e-05
3.77133e-05
3.72702e-05
3.73874e-05
3.75081e-05
3.78318e-05
3.83061e-05
3.8862e-05
3.93577e-05
3.98372e-05
4.01759e-05
4.04333e-05
4.05885e-05
4.06877e-05
4.07352e-05
4.0755e-05
4.07551e-05
4.07489e-05
4.07453e-05
4.07455e-05
4.07492e-05
4.07539e-05
4.07562e-05
4.07496e-05
4.07142e-05
4.06859e-05
4.0664e-05
4.05681e-05
4.04689e-05
4.03543e-05
4.01996e-05
4.00207e-05
3.98067e-05
3.95608e-05
3.92783e-05
3.89557e-05
3.85867e-05
3.81648e-05
3.76863e-05
3.71434e-05
3.65334e-05
3.58526e-05
3.51183e-05
3.46141e-05
3.47638e-05
3.55929e-05
3.67267e-05
3.82629e-05
3.9887e-05
4.15193e-05
4.24603e-05
4.26377e-05
4.27796e-05
4.27142e-05
4.10541e-05
3.85615e-05
3.54825e-05
3.21156e-05
2.87082e-05
2.52483e-05
2.13719e-05
1.6784e-05
1.1014e-05
3.86683e-06
4.4114e-08
1.79841e-07
9.77477e-06
2.33386e-05
3.192e-05
3.64947e-05
3.85551e-05
3.93242e-05
3.97041e-05
4.01837e-05
4.08451e-05
4.1518e-05
4.19723e-05
4.178e-05
4.12833e-05
4.07321e-05
3.96943e-05
3.92052e-05
3.90397e-05
3.88715e-05
3.90833e-05
3.93859e-05
3.9754e-05
4.01009e-05
4.03666e-05
4.05714e-05
4.06776e-05
4.07443e-05
4.07732e-05
4.08029e-05
4.08383e-05
4.08958e-05
4.09753e-05
4.10785e-05
4.11994e-05
4.13304e-05
4.14618e-05
4.15813e-05
4.16992e-05
4.17686e-05
4.18028e-05
4.18605e-05
4.18376e-05
4.17929e-05
4.17128e-05
4.16003e-05
4.14529e-05
4.12776e-05
4.10711e-05
4.08355e-05
4.05682e-05
4.02661e-05
3.99219e-05
3.95237e-05
3.90516e-05
3.85011e-05
3.78521e-05
3.70832e-05
3.6187e-05
3.52057e-05
3.41828e-05
3.31908e-05
3.32886e-05
3.43767e-05
3.58471e-05
3.77615e-05
3.96696e-05
4.08583e-05
4.11299e-05
4.13611e-05
4.13118e-05
3.93296e-05
3.64054e-05
3.28477e-05
2.90358e-05
2.52631e-05
2.13645e-05
1.67692e-05
1.0763e-05
3.59679e-06
4.0738e-08
2.35391e-07
1.1866e-05
2.6862e-05
3.57889e-05
4.02327e-05
4.20201e-05
4.2548e-05
4.27522e-05
4.30564e-05
4.34658e-05
4.37827e-05
4.35032e-05
4.29165e-05
4.22914e-05
4.14179e-05
4.08346e-05
4.03083e-05
4.00749e-05
4.00242e-05
4.02046e-05
4.0394e-05
4.05907e-05
4.07312e-05
4.08139e-05
4.08642e-05
4.08905e-05
4.09389e-05
4.10151e-05
4.11401e-05
4.13084e-05
4.15194e-05
4.17602e-05
4.20198e-05
4.22825e-05
4.25441e-05
4.28135e-05
4.29845e-05
4.31046e-05
4.3307e-05
4.33742e-05
4.34411e-05
4.34378e-05
4.34039e-05
4.33211e-05
4.31979e-05
4.30321e-05
4.28271e-05
4.25832e-05
4.23027e-05
4.19872e-05
4.16389e-05
4.12595e-05
4.08509e-05
4.04138e-05
3.99431e-05
3.93928e-05
3.87327e-05
3.79029e-05
3.69e-05
3.571e-05
3.44017e-05
3.31272e-05
3.1984e-05
3.24715e-05
3.398e-05
3.59956e-05
3.81282e-05
3.95758e-05
3.99374e-05
4.01469e-05
3.99796e-05
3.76214e-05
3.42194e-05
3.01456e-05
2.58338e-05
2.15642e-05
1.67851e-05
1.0758e-05
3.52898e-06
3.95445e-08
3.02976e-07
1.37964e-05
3.02328e-05
3.9468e-05
4.3752e-05
4.52487e-05
4.55042e-05
4.54662e-05
4.54985e-05
4.55549e-05
4.51683e-05
4.4472e-05
4.37943e-05
4.30036e-05
4.23123e-05
4.14657e-05
4.1049e-05
4.08526e-05
4.08164e-05
4.08923e-05
4.09458e-05
4.09961e-05
4.10162e-05
4.10385e-05
4.10901e-05
4.119e-05
4.1361e-05
4.15977e-05
4.18982e-05
4.22441e-05
4.26212e-05
4.30098e-05
4.34103e-05
4.38102e-05
4.41488e-05
4.43857e-05
4.46412e-05
4.49034e-05
4.50724e-05
4.51919e-05
4.5268e-05
4.52872e-05
4.52607e-05
4.51819e-05
4.50552e-05
4.488e-05
4.46586e-05
4.4392e-05
4.40822e-05
4.37304e-05
4.3338e-05
4.29057e-05
4.24336e-05
4.19216e-05
4.13695e-05
4.07782e-05
4.0148e-05
3.94697e-05
3.86465e-05
3.76043e-05
3.63022e-05
3.48146e-05
3.32301e-05
3.18024e-05
3.11131e-05
3.25061e-05
3.44445e-05
3.68313e-05
3.84592e-05
3.88746e-05
3.89886e-05
3.85265e-05
3.57274e-05
3.1813e-05
2.72069e-05
2.23273e-05
1.72077e-05
1.10185e-05
3.6746e-06
4.09416e-08
3.78004e-07
1.57087e-05
3.34395e-05
4.29235e-05
4.70227e-05
4.82082e-05
4.81487e-05
4.7795e-05
4.74652e-05
4.68994e-05
4.60559e-05
4.53394e-05
4.45152e-05
4.36917e-05
4.26303e-05
4.19315e-05
4.15668e-05
4.13651e-05
4.12808e-05
4.1249e-05
4.12137e-05
4.12079e-05
4.12332e-05
4.13285e-05
4.15082e-05
4.17791e-05
4.2137e-05
4.25626e-05
4.30379e-05
4.35393e-05
4.40487e-05
4.45796e-05
4.50749e-05
4.5499e-05
4.58873e-05
4.6213e-05
4.65225e-05
4.68328e-05
4.70268e-05
4.71874e-05
4.7287e-05
4.73318e-05
4.73207e-05
4.72529e-05
4.71294e-05
4.69508e-05
4.67183e-05
4.64334e-05
4.60979e-05
4.5714e-05
4.52832e-05
4.48069e-05
4.42854e-05
4.37179e-05
4.31018e-05
4.24342e-05
4.17125e-05
4.09372e-05
4.01144e-05
3.92386e-05
3.81633e-05
3.68123e-05
3.51845e-05
3.33958e-05
3.16514e-05
3.03019e-05
3.11985e-05
3.31465e-05
3.56914e-05
3.74086e-05
3.78065e-05
3.7773e-05
3.67838e-05
3.34689e-05
2.90469e-05
2.38339e-05
1.82403e-05
1.1832e-05
4.13755e-06
4.68797e-08
4.58321e-07
1.7565e-05
3.64387e-05
4.6122e-05
5.00186e-05
5.08711e-05
5.0449e-05
4.97064e-05
4.88416e-05
4.77809e-05
4.70161e-05
4.59975e-05
4.5044e-05
4.38084e-05
4.28456e-05
4.22381e-05
4.18803e-05
4.16492e-05
4.15134e-05
4.14295e-05
4.13949e-05
4.14442e-05
4.15878e-05
4.18482e-05
4.22185e-05
4.26864e-05
4.32292e-05
4.38207e-05
4.44386e-05
4.50614e-05
4.56887e-05
4.62914e-05
4.68426e-05
4.7323e-05
4.77905e-05
4.82063e-05
4.85554e-05
4.88679e-05
4.91506e-05
4.93435e-05
4.94803e-05
4.95552e-05
4.95663e-05
4.95133e-05
4.93958e-05
4.9214e-05
4.8969e-05
4.86622e-05
4.8296e-05
4.78735e-05
4.73979e-05
4.68726e-05
4.63001e-05
4.56815e-05
4.50156e-05
4.42978e-05
4.35206e-05
4.2675e-05
4.1755e-05
4.07653e-05
3.97269e-05
3.8564e-05
3.71424e-05
3.53924e-05
3.34485e-05
3.14808e-05
2.99033e-05
3.01058e-05
3.20414e-05
3.46702e-05
3.63473e-05
3.66075e-05
3.64401e-05
3.45661e-05
3.07959e-05
2.57163e-05
1.98348e-05
1.31006e-05
5.00817e-06
6.12144e-08
5.41318e-07
1.9323e-05
3.919e-05
4.90383e-05
5.27218e-05
5.3226e-05
5.24056e-05
5.11802e-05
4.98171e-05
4.89464e-05
4.75581e-05
4.64653e-05
4.50486e-05
4.38395e-05
4.29641e-05
4.24014e-05
4.20329e-05
4.17849e-05
4.1643e-05
4.15922e-05
4.16527e-05
4.18467e-05
4.21746e-05
4.26338e-05
4.3199e-05
4.38452e-05
4.45433e-05
4.52683e-05
4.60001e-05
4.67225e-05
4.74242e-05
4.8087e-05
4.87043e-05
4.92899e-05
4.98251e-05
5.03041e-05
5.07349e-05
5.1074e-05
5.13926e-05
5.16688e-05
5.18398e-05
5.19524e-05
5.19898e-05
5.19547e-05
5.18447e-05
5.16598e-05
5.14003e-05
5.10677e-05
5.06644e-05
5.01941e-05
4.96615e-05
4.90721e-05
4.8432e-05
4.77462e-05
4.70183e-05
4.62478e-05
4.54291e-05
4.45497e-05
4.35909e-05
4.25328e-05
4.13652e-05
4.01072e-05
3.87122e-05
3.71873e-05
3.54031e-05
3.3333e-05
3.12399e-05
2.94095e-05
2.91839e-05
3.10625e-05
3.37579e-05
3.52205e-05
3.52267e-05
3.48621e-05
3.20116e-05
2.74342e-05
2.16178e-05
1.46599e-05
6.01836e-06
8.42698e-08
6.24598e-07
2.09438e-05
4.16681e-05
5.16618e-05
5.5123e-05
5.52821e-05
5.39746e-05
5.23727e-05
5.11598e-05
4.93876e-05
4.80421e-05
4.64268e-05
4.49634e-05
4.38081e-05
4.29973e-05
4.24571e-05
4.20931e-05
4.1872e-05
4.17927e-05
4.18563e-05
4.20802e-05
4.24647e-05
4.29929e-05
4.36414e-05
4.43764e-05
4.51692e-05
4.59926e-05
4.68259e-05
4.76528e-05
4.84608e-05
4.92405e-05
4.99834e-05
5.06871e-05
5.135e-05
5.19642e-05
5.25413e-05
5.30361e-05
5.34348e-05
5.37801e-05
5.41339e-05
5.43569e-05
5.45066e-05
5.45748e-05
5.45598e-05
5.44599e-05
5.42739e-05
5.40016e-05
5.36436e-05
5.32021e-05
5.26804e-05
5.20836e-05
5.14185e-05
5.06934e-05
4.99176e-05
4.91003e-05
4.82489e-05
4.73663e-05
4.64477e-05
4.54777e-05
4.44283e-05
4.32618e-05
4.1943e-05
4.05558e-05
3.88948e-05
3.70202e-05
3.5157e-05
3.30568e-05
3.0861e-05
2.88293e-05
2.83877e-05
3.01965e-05
3.28078e-05
3.4124e-05
3.35521e-05
3.24678e-05
2.86398e-05
2.31954e-05
1.62598e-05
7.06039e-06
1.14022e-07
7.06468e-07
2.23819e-05
4.38718e-05
5.40288e-05
5.71909e-05
5.68304e-05
5.52777e-05
5.36075e-05
5.15691e-05
4.98646e-05
4.80238e-05
4.62855e-05
4.48267e-05
4.37309e-05
4.29694e-05
4.2458e-05
4.21381e-05
4.20009e-05
4.20487e-05
4.22819e-05
4.26994e-05
4.32799e-05
4.39923e-05
4.48034e-05
4.56792e-05
4.65932e-05
4.75232e-05
4.84534e-05
4.93713e-05
5.02679e-05
5.11358e-05
5.19691e-05
5.27634e-05
5.35131e-05
5.42107e-05
5.4864e-05
5.54585e-05
5.59222e-05
5.6312e-05
5.66975e-05
5.70006e-05
5.71812e-05
5.72825e-05
5.72891e-05
5.7202e-05
5.70187e-05
5.67384e-05
5.63608e-05
5.5887e-05
5.53194e-05
5.46621e-05
5.39214e-05
5.3106e-05
5.2227e-05
5.12976e-05
5.03316e-05
4.93418e-05
4.83359e-05
4.73125e-05
4.62551e-05
4.51277e-05
4.38738e-05
4.24266e-05
4.09051e-05
3.90293e-05
3.67259e-05
3.47036e-05
3.26178e-05
3.02977e-05
2.80845e-05
2.77445e-05
2.94556e-05
3.16128e-05
3.2453e-05
3.17256e-05
2.92156e-05
2.43659e-05
1.76913e-05
8.00177e-06
1.48605e-07
7.85172e-07
2.36693e-05
4.5796e-05
5.59712e-05
5.87594e-05
5.82657e-05
5.67135e-05
5.44789e-05
5.2025e-05
4.99258e-05
4.78851e-05
4.60885e-05
4.46631e-05
4.36263e-05
4.29155e-05
4.24614e-05
4.22343e-05
4.22324e-05
4.245e-05
4.28748e-05
4.34846e-05
4.42434e-05
4.5114e-05
4.60617e-05
4.7057e-05
4.8078e-05
4.91077e-05
5.01338e-05
5.11468e-05
5.2139e-05
5.31033e-05
5.40331e-05
5.49218e-05
5.57619e-05
5.6546e-05
5.72674e-05
5.79445e-05
5.85037e-05
5.89177e-05
5.93342e-05
5.97118e-05
5.9921e-05
6.0053e-05
6.00808e-05
6.00081e-05
5.98313e-05
5.95493e-05
5.91609e-05
5.86659e-05
5.80651e-05
5.73609e-05
5.65578e-05
5.56628e-05
5.46863e-05
5.36419e-05
5.2547e-05
5.14205e-05
5.02816e-05
4.91446e-05
4.8013e-05
4.68715e-05
4.56776e-05
4.43551e-05
4.27984e-05
4.1163e-05
3.89192e-05
3.63532e-05
3.41147e-05
3.20006e-05
2.94848e-05
2.70981e-05
2.71761e-05
2.90139e-05
3.0405e-05
3.04303e-05
2.9277e-05
2.50985e-05
1.88105e-05
8.76629e-06
1.86369e-07
8.57692e-07
2.4766e-05
4.73448e-05
5.74735e-05
6.00343e-05
5.97096e-05
5.75837e-05
5.4813e-05
5.23175e-05
4.98505e-05
4.76764e-05
4.58669e-05
4.4491e-05
4.3517e-05
4.28746e-05
4.25156e-05
4.24242e-05
4.25909e-05
4.2995e-05
4.36077e-05
4.43916e-05
4.53047e-05
4.631e-05
4.73763e-05
4.84797e-05
4.96027e-05
5.07322e-05
5.1858e-05
5.29716e-05
5.40647e-05
5.51292e-05
5.61565e-05
5.71381e-05
5.8065e-05
5.89286e-05
5.97209e-05
6.04693e-05
6.11092e-05
6.15442e-05
6.19858e-05
6.24249e-05
6.26595e-05
6.28161e-05
6.28626e-05
6.28035e-05
6.26354e-05
6.2357e-05
6.19664e-05
6.14625e-05
6.08446e-05
6.01127e-05
5.92689e-05
5.83171e-05
5.72648e-05
5.61234e-05
5.49091e-05
5.3643e-05
5.23501e-05
5.10564e-05
4.97838e-05
4.85424e-05
4.73201e-05
4.60701e-05
4.47005e-05
4.30696e-05
4.11715e-05
3.85489e-05
3.58009e-05
3.34039e-05
3.11799e-05
2.83112e-05
2.5952e-05
2.64803e-05
2.8406e-05
2.94196e-05
2.82815e-05
2.53448e-05
1.9575e-05
9.34756e-06
2.26151e-07
9.2147e-07
2.56461e-05
4.85158e-05
5.86137e-05
6.1283e-05
6.07652e-05
5.83262e-05
5.52623e-05
5.23408e-05
4.96852e-05
4.74327e-05
4.56415e-05
4.43266e-05
4.34271e-05
4.28796e-05
4.2651e-05
4.27235e-05
4.30714e-05
4.36579e-05
4.44414e-05
4.53772e-05
4.64238e-05
4.75476e-05
4.87226e-05
4.99297e-05
5.11548e-05
5.23868e-05
5.3616e-05
5.48329e-05
5.6028e-05
5.7191e-05
5.83116e-05
5.93797e-05
6.03853e-05
6.13195e-05
6.21742e-05
6.29776e-05
6.36845e-05
6.41387e-05
6.4591e-05
6.50763e-05
6.53312e-05
6.55039e-05
6.55639e-05
6.55152e-05
6.53556e-05
6.50835e-05
6.46973e-05
6.41951e-05
6.35749e-05
6.2835e-05
6.19745e-05
6.09942e-05
5.98971e-05
5.86904e-05
5.73861e-05
5.60027e-05
5.45656e-05
5.31059e-05
5.16574e-05
5.02501e-05
4.89003e-05
4.75972e-05
4.62868e-05
4.48543e-05
4.31093e-05
4.08707e-05
3.7965e-05
3.50652e-05
3.25808e-05
3.01277e-05
2.70051e-05
2.50838e-05
2.58449e-05
2.70323e-05
2.71456e-05
2.52734e-05
1.99876e-05
9.72104e-06
2.6764e-07
9.75094e-07
2.63153e-05
4.93576e-05
5.95098e-05
6.22194e-05
6.15241e-05
5.86558e-05
5.54306e-05
5.22617e-05
4.94663e-05
4.71776e-05
4.54268e-05
4.41847e-05
4.33775e-05
4.29519e-05
4.28783e-05
4.31258e-05
4.36511e-05
4.44051e-05
4.5339e-05
4.64074e-05
4.75724e-05
4.88053e-05
5.00846e-05
5.13947e-05
5.27234e-05
5.40597e-05
5.53928e-05
5.67118e-05
5.80047e-05
5.92598e-05
6.04651e-05
6.16095e-05
6.2683e-05
6.36767e-05
6.45835e-05
6.54156e-05
6.61627e-05
6.66636e-05
6.71059e-05
6.76078e-05
6.78808e-05
6.80598e-05
6.81262e-05
6.80827e-05
6.79284e-05
6.76625e-05
6.72837e-05
6.67899e-05
6.61788e-05
6.54472e-05
6.45919e-05
6.36103e-05
6.25012e-05
6.12662e-05
5.99114e-05
5.84495e-05
5.69014e-05
5.52972e-05
5.36753e-05
5.20786e-05
5.05464e-05
4.91019e-05
4.77365e-05
4.63904e-05
4.49297e-05
4.29853e-05
4.02031e-05
3.71417e-05
3.41674e-05
3.1579e-05
2.87234e-05
2.53025e-05
2.43823e-05
2.54504e-05
2.61623e-05
2.46517e-05
2.00497e-05
9.88891e-06
3.10633e-07
1.01779e-06
2.6776e-05
4.99245e-05
6.01216e-05
6.29311e-05
6.2093e-05
5.9087e-05
5.54947e-05
5.21139e-05
4.92201e-05
4.69273e-05
4.52338e-05
4.40777e-05
4.3382e-05
4.30992e-05
4.31921e-05
4.36121e-05
4.43017e-05
4.52047e-05
4.62709e-05
4.74575e-05
4.87314e-05
5.00683e-05
5.14503e-05
5.28634e-05
5.42956e-05
5.57349e-05
5.71687e-05
5.85837e-05
5.99664e-05
6.13032e-05
6.25814e-05
6.37896e-05
6.49174e-05
6.59565e-05
6.68998e-05
6.7741e-05
6.85154e-05
6.90672e-05
6.94864e-05
6.99779e-05
7.02679e-05
7.04433e-05
7.05078e-05
7.04626e-05
7.03085e-05
7.00455e-05
6.96735e-05
6.91909e-05
6.85952e-05
6.78829e-05
6.70492e-05
6.60889e-05
6.49969e-05
6.37693e-05
6.24055e-05
6.09105e-05
5.92972e-05
5.75895e-05
5.58233e-05
5.40455e-05
5.23088e-05
5.06609e-05
4.91287e-05
4.76997e-05
4.63048e-05
4.48056e-05
4.24741e-05
3.92535e-05
3.61499e-05
3.30538e-05
3.03204e-05
2.68115e-05
2.36993e-05
2.34986e-05
2.38832e-05
2.36056e-05
1.99275e-05
1.0024e-05
3.57466e-07
1.04944e-06
2.70456e-05
5.02485e-05
6.04786e-05
6.34661e-05
6.23662e-05
5.92514e-05
5.54635e-05
5.19219e-05
4.89651e-05
4.66923e-05
4.507e-05
4.40136e-05
4.34459e-05
4.33178e-05
4.35771e-05
4.41586e-05
4.4996e-05
4.60311e-05
4.72153e-05
4.85101e-05
4.98869e-05
5.13248e-05
5.28079e-05
5.43225e-05
5.58554e-05
5.73928e-05
5.89199e-05
6.04216e-05
6.18827e-05
6.32888e-05
6.46266e-05
6.58845e-05
6.70524e-05
6.81217e-05
6.90854e-05
6.99369e-05
7.07172e-05
7.1318e-05
7.17035e-05
7.21665e-05
7.24672e-05
7.26306e-05
7.26847e-05
7.26302e-05
7.24694e-05
7.2204e-05
7.18349e-05
7.13619e-05
7.07833e-05
7.00955e-05
6.92934e-05
6.837e-05
6.73172e-05
6.61266e-05
6.47912e-05
6.33076e-05
6.16793e-05
5.99201e-05
5.80578e-05
5.61362e-05
5.42132e-05
5.23538e-05
5.06139e-05
4.9018e-05
4.75316e-05
4.60343e-05
4.42969e-05
4.15047e-05
3.81981e-05
3.4932e-05
3.16155e-05
2.8551e-05
2.45468e-05
2.26864e-05
2.27813e-05
2.28517e-05
1.98032e-05
1.0362e-05
4.17127e-07
1.07055e-06
2.7149e-05
5.03174e-05
6.05465e-05
6.36524e-05
6.26766e-05
5.93229e-05
5.53661e-05
5.17046e-05
4.87139e-05
4.64797e-05
4.49405e-05
4.39958e-05
4.35673e-05
4.35964e-05
4.40141e-05
4.47426e-05
4.57118e-05
4.68647e-05
4.81562e-05
4.95521e-05
5.10273e-05
5.25632e-05
5.41444e-05
5.57564e-05
5.7384e-05
5.90113e-05
6.06217e-05
6.21983e-05
6.37251e-05
6.51872e-05
6.65714e-05
6.78661e-05
6.90616e-05
7.01502e-05
7.11257e-05
7.19839e-05
7.27495e-05
7.33806e-05
7.37528e-05
7.4164e-05
7.44679e-05
7.46127e-05
7.46483e-05
7.45767e-05
7.44019e-05
7.41271e-05
7.3755e-05
7.32869e-05
7.27224e-05
7.20591e-05
7.12919e-05
7.04136e-05
6.94141e-05
6.82817e-05
6.70041e-05
6.55702e-05
6.39734e-05
6.2216e-05
6.03132e-05
5.8299e-05
5.62274e-05
5.41707e-05
5.2209e-05
5.04101e-05
4.88032e-05
4.73489e-05
4.59129e-05
4.3547e-05
4.01934e-05
3.6951e-05
3.34876e-05
2.98918e-05
2.61504e-05
2.23219e-05
2.14815e-05
2.13299e-05
1.95221e-05
1.09873e-05
4.97795e-07
1.08125e-06
2.70817e-05
5.01254e-05
6.0486e-05
6.38079e-05
6.27399e-05
5.92996e-05
5.52217e-05
5.14764e-05
4.84753e-05
4.62937e-05
4.48471e-05
4.40233e-05
4.37385e-05
4.39206e-05
4.44844e-05
4.53447e-05
4.64315e-05
4.76908e-05
4.90813e-05
5.05724e-05
5.21417e-05
5.37714e-05
5.54455e-05
5.71479e-05
5.88614e-05
6.05681e-05
6.22498e-05
6.38887e-05
6.54684e-05
6.69741e-05
6.83928e-05
6.97137e-05
7.09277e-05
7.20278e-05
7.30092e-05
7.38687e-05
7.46046e-05
7.52475e-05
7.56302e-05
7.59714e-05
7.62709e-05
7.63918e-05
7.64022e-05
7.63065e-05
7.61102e-05
7.58185e-05
7.5436e-05
7.49658e-05
7.44094e-05
7.37659e-05
7.30317e-05
7.21998e-05
7.12597e-05
7.01977e-05
6.89978e-05
6.76425e-05
6.61162e-05
6.44091e-05
6.25224e-05
6.04751e-05
5.83093e-05
5.60931e-05
5.39142e-05
5.18641e-05
5.00086e-05
4.83527e-05
4.68084e-05
4.51693e-05
4.22057e-05
3.87264e-05
3.52902e-05
3.16094e-05
2.77979e-05
2.31957e-05
2.09763e-05
1.98248e-05
1.90084e-05
1.16758e-05
5.99497e-07
1.08074e-06
2.6913e-05
4.98742e-05
6.02791e-05
6.38309e-05
6.26984e-05
5.92034e-05
5.50459e-05
5.12478e-05
4.82547e-05
4.61361e-05
4.47892e-05
4.40914e-05
4.39494e-05
4.42752e-05
4.49713e-05
4.59495e-05
4.71419e-05
4.8498e-05
4.99802e-05
5.15608e-05
5.32188e-05
5.49363e-05
5.66958e-05
5.84794e-05
6.0268e-05
6.20421e-05
6.37826e-05
6.54714e-05
6.70922e-05
6.86307e-05
7.00744e-05
7.14131e-05
7.26384e-05
7.37438e-05
7.47242e-05
7.55757e-05
7.62948e-05
7.69336e-05
7.73293e-05
7.75964e-05
7.78845e-05
7.79779e-05
7.79578e-05
7.78321e-05
7.76077e-05
7.72919e-05
7.68911e-05
7.64107e-05
7.58543e-05
7.52232e-05
7.45156e-05
7.37259e-05
7.28443e-05
7.18567e-05
7.07448e-05
6.94866e-05
6.80594e-05
6.64422e-05
6.46221e-05
6.26011e-05
6.04047e-05
5.80887e-05
5.57411e-05
5.34721e-05
5.13896e-05
4.95605e-05
4.79703e-05
4.64951e-05
4.41033e-05
4.05303e-05
3.72122e-05
3.31822e-05
2.90672e-05
2.46921e-05
2.0836e-05
1.93072e-05
1.85887e-05
1.22948e-05
7.18126e-07
1.07519e-06
2.66452e-05
4.94587e-05
5.9881e-05
6.36316e-05
6.25505e-05
5.90484e-05
5.48503e-05
5.10263e-05
4.80558e-05
4.60073e-05
4.47643e-05
4.41933e-05
4.41885e-05
4.46465e-05
4.54613e-05
4.65449e-05
4.78324e-05
4.92768e-05
5.08438e-05
5.25074e-05
5.42472e-05
5.60444e-05
5.78799e-05
5.97338e-05
6.15856e-05
6.34149e-05
6.52021e-05
6.69294e-05
6.85811e-05
7.01433e-05
7.16047e-05
7.29554e-05
7.41876e-05
7.52949e-05
7.62724e-05
7.71166e-05
7.78259e-05
7.84378e-05
7.884e-05
7.90544e-05
7.93209e-05
7.93847e-05
7.93307e-05
7.91705e-05
7.89127e-05
7.85663e-05
7.81398e-05
7.7641e-05
7.70758e-05
7.64479e-05
7.57579e-05
7.50023e-05
7.41731e-05
7.3257e-05
7.22349e-05
7.10826e-05
6.97719e-05
6.82732e-05
6.65602e-05
6.46178e-05
6.2451e-05
6.00961e-05
5.76277e-05
5.51572e-05
5.28141e-05
5.07083e-05
4.88771e-05
4.7235e-05
4.55421e-05
4.2379e-05
3.8811e-05
3.51095e-05
3.07989e-05
2.61972e-05
2.1005e-05
1.87859e-05
1.76129e-05
1.29421e-05
8.4203e-07
1.06274e-06
2.63216e-05
4.87813e-05
5.93572e-05
6.32986e-05
6.23119e-05
5.88468e-05
5.46441e-05
5.08173e-05
4.78803e-05
4.59062e-05
4.47684e-05
4.43215e-05
4.44453e-05
4.50229e-05
4.59437e-05
4.71212e-05
4.84942e-05
5.00189e-05
5.16631e-05
5.34023e-05
5.52155e-05
5.70826e-05
5.89831e-05
6.08956e-05
6.27985e-05
6.46709e-05
6.64937e-05
6.82496e-05
6.99236e-05
7.15028e-05
7.29766e-05
7.43357e-05
7.55726e-05
7.66811e-05
7.76567e-05
7.84963e-05
7.91996e-05
7.97726e-05
8.01638e-05
8.03585e-05
8.05933e-05
8.06262e-05
8.05368e-05
8.03394e-05
8.00443e-05
7.96624e-05
7.92041e-05
7.86793e-05
7.80967e-05
7.74625e-05
7.67799e-05
7.60482e-05
7.52618e-05
7.44091e-05
7.34722e-05
7.24261e-05
7.12395e-05
6.98764e-05
6.82999e-05
6.64788e-05
6.43977e-05
6.20695e-05
5.95489e-05
5.69386e-05
5.43824e-05
5.20333e-05
5.00014e-05
4.82936e-05
4.67634e-05
4.40348e-05
4.03057e-05
3.70461e-05
3.22056e-05
2.74576e-05
2.22523e-05
1.86042e-05
1.64487e-05
1.34486e-05
9.43159e-07
1.04323e-06
2.59057e-05
4.80337e-05
5.87412e-05
6.28451e-05
6.19954e-05
5.86084e-05
5.4434e-05
5.06244e-05
4.7729e-05
4.5831e-05
4.47967e-05
4.44681e-05
4.47101e-05
4.53949e-05
4.64097e-05
4.76707e-05
4.912e-05
5.07165e-05
5.24298e-05
5.42357e-05
5.61125e-05
5.80389e-05
5.99927e-05
6.19517e-05
6.38937e-05
6.57982e-05
6.76466e-05
6.94225e-05
7.11119e-05
7.2703e-05
7.41857e-05
7.55512e-05
7.67922e-05
7.79024e-05
7.8877e-05
7.97121e-05
8.04052e-05
8.0954e-05
8.13314e-05
8.15153e-05
8.17104e-05
8.17144e-05
8.15898e-05
8.13543e-05
8.102e-05
8.05992e-05
8.01045e-05
7.95479e-05
7.89404e-05
7.8291e-05
7.76059e-05
7.68871e-05
7.61321e-05
7.5332e-05
7.44709e-05
7.35249e-05
7.24616e-05
7.12412e-05
6.98188e-05
6.81498e-05
6.61992e-05
6.3955e-05
6.14446e-05
5.87493e-05
5.60072e-05
5.33917e-05
5.10606e-05
4.90877e-05
4.74113e-05
4.5407e-05
4.17412e-05
3.85714e-05
3.41058e-05
2.90212e-05
2.36426e-05
1.90687e-05
1.57583e-05
1.36504e-05
9.90159e-07
1.01772e-06
2.53821e-05
4.71722e-05
5.80279e-05
6.22935e-05
6.16135e-05
5.83413e-05
5.42251e-05
5.045e-05
4.76018e-05
4.57791e-05
4.48441e-05
4.46259e-05
4.49747e-05
4.57546e-05
4.68523e-05
4.81868e-05
4.97033e-05
5.13628e-05
5.31361e-05
5.49988e-05
5.69285e-05
5.89025e-05
6.08978e-05
6.28913e-05
6.48612e-05
6.67876e-05
6.86528e-05
7.04415e-05
7.2141e-05
7.374e-05
7.52292e-05
7.66001e-05
7.78452e-05
7.8958e-05
7.99325e-05
8.07637e-05
8.14473e-05
8.19797e-05
8.23494e-05
8.25403e-05
8.26742e-05
8.26567e-05
8.24994e-05
8.22267e-05
8.18529e-05
8.1392e-05
8.08582e-05
8.02657e-05
7.96278e-05
7.89561e-05
7.82595e-05
7.75434e-05
7.68084e-05
7.60488e-05
7.52517e-05
7.43953e-05
7.34483e-05
7.23693e-05
7.11085e-05
6.9611e-05
6.7825e-05
6.57145e-05
6.3278e-05
6.05684e-05
5.77079e-05
5.48799e-05
5.22861e-05
5.00665e-05
4.8215e-05
4.65326e-05
4.33358e-05
3.99125e-05
3.61046e-05
3.02614e-05
2.47652e-05
1.902e-05
1.58827e-05
1.36385e-05
9.98423e-07
9.87676e-07
2.48228e-05
4.62224e-05
5.72242e-05
6.16597e-05
6.11768e-05
5.80521e-05
5.40212e-05
5.02954e-05
4.74981e-05
4.57478e-05
4.49057e-05
4.47883e-05
4.52324e-05
4.60957e-05
4.72655e-05
4.86637e-05
5.0238e-05
5.19512e-05
5.37746e-05
5.56836e-05
5.76548e-05
5.96647e-05
6.16895e-05
6.37063e-05
6.56938e-05
6.76328e-05
6.9507e-05
7.13024e-05
7.30072e-05
7.46111e-05
7.6105e-05
7.74806e-05
7.87302e-05
7.98463e-05
8.08222e-05
8.16517e-05
8.23297e-05
8.28526e-05
8.32173e-05
8.34117e-05
8.34944e-05
8.3457e-05
8.32701e-05
8.29628e-05
8.25512e-05
8.20508e-05
8.14775e-05
8.08473e-05
8.01755e-05
7.94764e-05
7.87616e-05
7.80395e-05
7.73142e-05
7.65834e-05
7.58377e-05
7.50585e-05
7.42169e-05
7.3272e-05
7.21717e-05
7.08544e-05
6.92549e-05
6.73157e-05
6.50056e-05
6.23434e-05
5.94225e-05