/*--------------------------------*- C++ -*----------------------------------*\
  =========                 |
  \\      /  F ield         | OpenFOAM: The Open Source CFD Toolbox
   \\    /   O peration     | Website:  https://openfoam.org
    \\  /    A nd           | Version:  13
     \\/     M anipulation  |
\*---------------------------------------------------------------------------*/
FoamFile
{
    format      ascii;
    class       volScalarField;
    location    "9.6";
    object      p;
}
// * * * * * * * * * * * * * * * * * * * * * * * * * * * * * * * * * * * * * //

dimensions      [0 2 -2 0 0 0 0];

internalField   nonuniform List<scalar> 
6400
(
-7.48997e-10
2.03806e-05
2.96106e-05
1.41266e-05
-3.13632e-05
-0.000101521
-0.000186361
-0.000276497
-0.000365545
-0.000450294
-0.000531578
-0.000613802
-0.000701745
-0.000800726
-0.000916058
-0.00105192
-0.0012113
-0.00139583
-0.00160677
-0.00184474
-0.00211015
-0.00240451
-0.00273086
-0.00309389
-0.00350015
-0.00395389
-0.00444971
-0.00497784
-0.00551424
-0.00602543
-0.00650748
-0.00696827
-0.00740599
-0.00781784
-0.00819811
-0.00853772
-0.00882486
-0.00904602
-0.00918707
-0.00923405
-0.00917372
-0.0089949
-0.00868975
-0.00825459
-0.00768753
-0.00697983
-0.00612301
-0.00513756
-0.00404049
-0.00283883
-0.00155377
-0.000206965
0.00117197
0.00254999
0.00388591
0.00513447
0.00625186
0.0071967
0.00793012
0.00842186
0.00865481
0.00862848
0.00835813
0.00785955
0.00720463
0.00643859
0.00562776
0.0048349
0.00411597
0.00350031
0.00302202
0.00269027
0.00247483
0.00235091
0.00229781
0.00229243
0.00231576
0.00235272
0.00239276
0.00241993
-1.53986e-05
5.39872e-06
9.83646e-06
-1.0763e-05
-5.91924e-05
-0.000129303
-0.000210092
-0.0002928
-0.000372389
-0.000447561
-0.000520485
-0.000595387
-0.000677232
-0.000770896
-0.000880331
-0.00100916
-0.00116071
-0.0013375
-0.00154007
-0.00176856
-0.00202186
-0.0023007
-0.00260852
-0.00294785
-0.0033219
-0.00373827
-0.00420425
-0.00471758
-0.00526341
-0.00581672
-0.00635033
-0.00685586
-0.00733532
-0.00778552
-0.00820047
-0.00857107
-0.0088858
-0.0091318
-0.00929575
-0.00936494
-0.00932729
-0.00917279
-0.00889386
-0.008485
-0.00794167
-0.00726014
-0.0064472
-0.0055109
-0.0044537
-0.00329431
-0.00205067
-0.000746592
0.000589563
0.00192384
0.00321842
0.00443304
0.00552489
0.00645269
0.00718117
0.00768092
0.00793438
0.00793978
0.00771071
0.00727357
0.00667695
0.0059754
0.00523008
0.00449978
0.00383717
0.00328307
0.00285455
0.00255855
0.00238106
0.00229876
0.00228761
0.00231894
0.00236227
0.00240081
0.0024331
0.00245872
-3.20152e-05
-8.98552e-06
-1.04008e-05
-4.04302e-05
-9.7074e-05
-0.000169789
-0.000246538
-0.000318974
-0.00038446
-0.000444755
-0.000503732
-0.000566527
-0.000638315
-0.00072295
-0.000822969
-0.000940205
-0.00107622
-0.00123329
-0.00141367
-0.00162018
-0.00185654
-0.00212589
-0.00243271
-0.00278206
-0.0031781
-0.00362334
-0.00411817
-0.00465816
-0.00523186
-0.00582134
-0.00640673
-0.00697246
-0.00750949
-0.00801126
-0.00847061
-0.00887818
-0.00922349
-0.00949534
-0.00968185
-0.00977152
-0.00975415
-0.00962093
-0.00936492
-0.00898116
-0.00846668
-0.00782042
-0.00704049
-0.00613942
-0.00512371
-0.00400695
-0.0028063
-0.00154387
-0.000246589
0.00105383
0.0023217
0.00351867
0.00460297
0.00553386
0.00627664
0.00680305
0.00709448
0.00714703
0.00697343
0.00660052
0.00607182
0.0054399
0.00476084
0.00409571
0.00349203
0.00298606
0.00260186
0.00235169
0.0022229
0.00218595
0.00221155
0.00227422
0.00234361
0.00240134
0.00244852
0.00248558
-4.1046e-05
-1.91273e-05
-2.82832e-05
-6.9811e-05
-0.000136796
-0.000212697
-0.000285656
-0.000349014
-0.000401428
-0.000445306
-0.000487022
-0.000533517
-0.000590463
-0.000661675
-0.000748885
-0.000852869
-0.000975005
-0.00111815
-0.00128628
-0.00148508
-0.0017219
-0.00200468
-0.00234072
-0.00273264
-0.00318265
-0.00369184
-0.00425591
-0.00486395
-0.00549997
-0.00614717
-0.00678903
-0.00741037
-0.00799905
-0.00854593
-0.00904242
-0.00947916
-0.00984699
-0.0101359
-0.0103358
-0.0104367
-0.0104299
-0.0103077
-0.0100638
-0.00969431
-0.00919748
-0.00857148
-0.00781822
-0.00694358
-0.0059553
-0.0048659
-0.00369139
-0.00245229
-0.00117321
0.000116881
0.00138396
0.00258955
0.00369352
0.00465572
0.00543944
0.00601561
0.00636365
0.00647573
0.00636238
0.00605043
0.00557986
0.00500038
0.00436911
0.00374431
0.00317607
0.0027014
0.00234384
0.00211364
0.0020029
0.00199512
0.00205935
0.00215642
0.00225784
0.00234602
0.00241727
0.00246685
-3.55882e-05
-2.14598e-05
-4.10221e-05
-9.43596e-05
-0.000171075
-0.000249864
-0.000319037
-0.00037348
-0.000413235
-0.000442821
-0.000469678
-0.000501641
-0.000544843
-0.000603038
-0.000678386
-0.000772717
-0.000889193
-0.00103362
-0.00121324
-0.00143635
-0.00171281
-0.00204835
-0.00244769
-0.00291505
-0.0034496
-0.00404519
-0.00469132
-0.00537319
-0.00607326
-0.00677516
-0.00746354
-0.00812585
-0.00875134
-0.00932957
-0.00985132
-0.0103077
-0.01069
-0.0109892
-0.0111968
-0.0113046
-0.011305
-0.0111915
-0.0109584
-0.0106017
-0.0101213
-0.00951653
-0.0087879
-0.00793884
-0.00697629
-0.00591208
-0.00476118
-0.00354191
-0.00227546
-0.00098704
0.00029044
0.00151747
0.00265601
0.00366767
0.00451453
0.00516513
0.00559614
0.00579494
0.00576592
0.00553169
0.00513267
0.00461615
0.00403667
0.00345165
0.00291299
0.00246009
0.00211927
0.00190025
0.00179893
0.0017989
0.00187431
0.00199222
0.00211966
0.00223588
0.00233006
0.00238911
-6.70362e-06
-6.98783e-06
-3.9275e-05
-0.000106742
-0.000191758
-0.000271629
-0.000336674
-0.000383279
-0.000412793
-0.000431428
-0.000447814
-0.000470218
-0.000504938
-0.000556421
-0.000628535
-0.000725786
-0.000854806
-0.00102452
-0.00124594
-0.00152626
-0.00187304
-0.00229358
-0.00278944
-0.00335733
-0.00398824
-0.00467004
-0.0053905
-0.00613552
-0.00688954
-0.00763725
-0.00836444
-0.00905948
-0.00971209
-0.0103126
-0.0108525
-0.0113231
-0.0117156
-0.0120221
-0.0122361
-0.0123506
-0.012359
-0.012257
-0.0120392
-0.0117012
-0.0112471
-0.0106728
-0.00997828
-0.0091658
-0.00824069
-0.00721337
-0.00609649
-0.00490453
-0.00365469
-0.00236928
-0.0010828
0.000166888
0.00134675
0.00242113
0.00334882
0.00409617
0.00463835
0.00495669
0.00504988
0.00493066
0.00463501
0.00421082
0.00370982
0.00318594
0.00269151
0.00226895
0.00194688
0.00173802
0.0016404
0.00164024
0.00171399
0.00183353
0.00196847
0.00209571
0.00220004
0.00226245
5.61425e-05
3.79107e-05
-1.10282e-05
-9.56456e-05
-0.000185998
-0.000266199
-0.000327973
-0.000369055
-0.000392794
-0.000406649
-0.000419818
-0.000440847
-0.000476692
-0.000533577
-0.000618439
-0.000738995
-0.000905645
-0.00113026
-0.00142117
-0.00178715
-0.00223474
-0.00276484
-0.00336876
-0.00403567
-0.00475546
-0.00551618
-0.00630405
-0.00710502
-0.00790529
-0.00869141
-0.00945073
-0.0101724
-0.0108465
-0.0114645
-0.0120181
-0.0124989
-0.0128977
-0.0132092
-0.0134283
-0.0135501
-0.0135713
-0.0134863
-0.0132918
-0.0129853
-0.0125629
-0.0120239
-0.0113704
-0.010606
-0.00973558
-0.00876367
-0.00769781
-0.00654929
-0.00533503
-0.00407824
-0.00280323
-0.00153739
-0.000311703
0.000834886
0.00185593
0.00272131
0.00340281
0.00387395
0.00412922
0.0041715
0.00402609
0.00373556
0.00334959
0.00291982
0.00249636
0.00212307
0.00183133
0.00163728
0.00154214
0.00153777
0.00160083
0.00170887
0.00183437
0.0019544
0.0020537
0.00211119
0.000163288
0.000124154
5.29606e-05
-4.56835e-05
-0.000141601
-0.000223196
-0.000283901
-0.00032392
-0.000348331
-0.000365692
-0.000385635
-0.000417144
-0.000468549
-0.000548937
-0.0006683
-0.000838158
-0.00107041
-0.00137679
-0.00176573
-0.00224344
-0.00280643
-0.00344627
-0.00415256
-0.00491357
-0.00571639
-0.00654816
-0.00739554
-0.00824555
-0.00908566
-0.00990388
-0.010689
-0.0114312
-0.0121212
-0.01275
-0.0133094
-0.0137917
-0.0141932
-0.0145102
-0.0147379
-0.0148719
-0.0149086
-0.014842
-0.0146699
-0.0143905
-0.0140018
-0.0135028
-0.0128963
-0.0121862
-0.0113766
-0.0104693
-0.00946894
-0.00838528
-0.00723307
-0.00602994
-0.00479208
-0.00353705
-0.0022962
-0.00110493
6.62878e-06
0.00100731
0.00184629
0.00249931
0.00295391
0.0032021
0.0032567
0.00314813
0.00292068
0.0026235
0.00230381
0.00200568
0.00176272
0.00159472
0.00150739
0.00149479
0.00154169
0.00162997
0.0017333
0.00183335
0.0019131
0.00195619
0.000320226
0.000260051
0.000163713
5.11711e-05
-5.14395e-05
-0.000136037
-0.000199615
-0.000244624
-0.000278016
-0.000309349
-0.000348747
-0.00040608
-0.00049175
-0.000617902
-0.000797832
-0.00104365
-0.00136819
-0.00178276
-0.00229014
-0.00288593
-0.0035629
-0.00430963
-0.00511302
-0.0059597
-0.00683653
-0.00773066
-0.00862962
-0.00952138
-0.0103944
-0.0112377
-0.0120414
-0.0127961
-0.0134929
-0.0141233
-0.0146818
-0.0151658
-0.0155746
-0.0159012
-0.0161399
-0.0162856
-0.0163331
-0.0162813
-0.0161294
-0.0158764
-0.0155198
-0.015062
-0.0145035
-0.0138463
-0.0130928
-0.0122476
-0.011316
-0.0103058
-0.00922769
-0.00809453
-0.00691815
-0.00570878
-0.00448797
-0.00328043
-0.00210789
-0.00101362
-2.86388e-05
0.000825549
0.00150099
0.00198826
0.00228584
0.00240862
0.00238651
0.00226408
0.00208468
0.00189055
0.00171866
0.00159241
0.00152191
0.00150573
0.00153464
0.00159477
0.00166803
0.00173917
0.00178846
0.00181264
0.000534594
0.000451006
0.00032685
0.000198952
8.70212e-05
-3.7744e-06
-7.52872e-05
-0.000132861
-0.000185319
-0.000243169
-0.000317208
-0.000418564
-0.000560179
-0.000756959
-0.00102274
-0.00136978
-0.00180988
-0.00234706
-0.00297716
-0.00369173
-0.00447927
-0.00532545
-0.00621682
-0.00713975
-0.00808144
-0.00902937
-0.00997176
-0.0108973
-0.0117953
-0.0126558
-0.0134698
-0.014229
-0.0149268
-0.0155588
-0.0161203
-0.0166073
-0.0170142
-0.0173362
-0.0175705
-0.0177153
-0.0177687
-0.0177294
-0.0175968
-0.0173703
-0.0170481
-0.0166319
-0.0161229
-0.0155225
-0.0148327
-0.0140568
-0.013199
-0.0122647
-0.0112604
-0.0101933
-0.00907232
-0.00791354
-0.00673396
-0.00554853
-0.00436947
-0.00321964
-0.00212036
-0.00111222
-0.00022552
0.000516575
0.00108327
0.00147737
0.00170787
0.00180427
0.00180525
0.00174817
0.00167099
0.00160391
0.00156235
0.00155028
0.0015632
0.00159381
0.00163242
0.00166714
0.00168283
0.00168811
0.000808903
0.000695905
0.000542695
0.000394158
0.000270825
0.000169205
8.32563e-05
4.09738e-06
-7.90572e-05
-0.000177653
-0.000303241
-0.00046877
-0.000689264
-0.000980073
-0.00135436
-0.00182245
-0.00238978
-0.00305445
-0.00380733
-0.00463568
-0.0055256
-0.0064624
-0.00743241
-0.00842223
-0.00941935
-0.0104117
-0.0113881
-0.012338
-0.0132517
-0.0141207
-0.0149371
-0.0156943
-0.0163871
-0.0170112
-0.0175628
-0.0180386
-0.0184349
-0.0187488
-0.0189784
-0.0191226
-0.0191805
-0.0191513
-0.0190347
-0.0188305
-0.0185384
-0.0181593
-0.0176947
-0.0171462
-0.0165157
-0.0158061
-0.0150205
-0.0141631
-0.013238
-0.0122496
-0.0112033
-0.0101076
-0.0089717
-0.00780723
-0.00663433
-0.00546957
-0.00432147
-0.00320866
-0.00215284
-0.0011946
-0.000357413
0.000324075
0.000842468
0.00120183
0.00142567
0.00154457
0.00159144
0.00160173
0.00160139
0.00160156
0.00160456
0.00160808
0.00161114
0.00160685
0.0015906
0.00157938
0.00113099
0.000987938
0.000799201
0.00062709
0.000488881
0.000372085
0.000264366
0.000153537
2.7038e-05
-0.000127334
-0.000322284
-0.000572006
-0.00089212
-0.00129673
-0.00179614
-0.00239597
-0.00309566
-0.00388703
-0.00475688
-0.00569092
-0.00667407
-0.00769179
-0.00873034
-0.00977658
-0.0108183
-0.0118439
-0.0128431
-0.0138062
-0.014725
-0.0155921
-0.0164014
-0.0171477
-0.017827
-0.018436
-0.0189719
-0.0194325
-0.0198157
-0.0201196
-0.0203431
-0.0204853
-0.0205458
-0.0205243
-0.0204208
-0.0202355
-0.0199689
-0.0196221
-0.0191964
-0.0186934
-0.0181153
-0.0174644
-0.0167435
-0.0159557
-0.015104
-0.0141918
-0.0132227
-0.0122008
-0.0111303
-0.0100164
-0.00886716
-0.00769326
-0.00651247
-0.00534226
-0.00418738
-0.0030669
-0.0020085
-0.00105492
-0.000241023
0.000412079
0.00090038
0.00123763
0.00144746
0.00156091
0.00161506
0.00163513
0.00163341
0.00161472
0.00158514
0.00154501
0.0015021
0.00147668
0.00148648
0.00131171
0.00108277
0.000884123
0.000727245
0.000589259
0.00045148
0.000298298
0.000115633
-0.000109606
-0.000390527
-0.000742176
-0.00117878
-0.00171119
-0.00234535
-0.00308118
-0.00391157
-0.00482365
-0.00580236
-0.00683246
-0.00789857
-0.00898624
-0.0100818
-0.0111724
-0.0122464
-0.0132931
-0.0143032
-0.0152685
-0.0161823
-0.0170387
-0.0178333
-0.0185624
-0.0192231
-0.0198132
-0.0203309
-0.0207747
-0.0211435
-0.0214363
-0.0216523
-0.0217912
-0.0218528
-0.0218371
-0.0217445
-0.0215755
-0.0213308
-0.0210117
-0.0206196
-0.0201562
-0.0196235
-0.0190237
-0.0183592
-0.0176325
-0.0168461
-0.0160021
-0.0151031
-0.0141512
-0.0131482
-0.0120963
-0.0109973
-0.00985356
-0.00867039
-0.00745778
-0.0062345
-0.00501216
-0.0038007
-0.00263018
-0.00154734
-0.000597004
0.000184312
0.00078034
0.00119663
0.00145261
0.00158341
0.00163317
0.00163075
0.00159417
0.00153748
0.00146848
0.00140611
0.00137163
0.001857
0.00164759
0.00137617
0.00114658
0.000966521
0.000800908
0.000624504
0.000418479
0.000167457
-0.000141799
-0.000523354
-0.000991082
-0.00155597
-0.00222448
-0.00299649
-0.00386574
-0.00482017
-0.00584416
-0.00692163
-0.00803671
-0.00917403
-0.0103192
-0.011459
-0.0125811
-0.0136747
-0.0147306
-0.0157408
-0.0166989
-0.0175997
-0.0184392
-0.0192141
-0.0199223
-0.0205619
-0.0211315
-0.0216301
-0.0220569
-0.0224113
-0.0226929
-0.0229013
-0.0230365
-0.0230984
-0.0230875
-0.0230042
-0.0228491
-0.0226234
-0.0223281
-0.0219649
-0.0215353
-0.0210415
-0.0204854
-0.0198692
-0.0191951
-0.018465
-0.0176807
-0.0168436
-0.0159546
-0.0150141
-0.0140221
-0.012978
-0.0118806
-0.0107292
-0.00952371
-0.00826781
-0.00697204
-0.00566012
-0.00434135
-0.00304619
-0.00183134
-0.00075475
0.000129602
0.000793204
0.00123784
0.00148453
0.00158239
0.0015874
0.00153599
0.00145671
0.00136575
0.00129086
0.00125112
0.00221743
0.00197198
0.00165451
0.00139212
0.00118464
0.000985006
0.000761716
0.000493545
0.000164109
-0.000240771
-0.000734588
-0.00132797
-0.00202778
-0.00283382
-0.00374026
-0.0047357
-0.00580446
-0.00692939
-0.00809371
-0.00928123
-0.0104767
-0.0116661
-0.0128368
-0.0139776
-0.0150792
-0.0161339
-0.0171356
-0.0180794
-0.018962
-0.0197806
-0.0205334
-0.0212192
-0.0218371
-0.0223862
-0.0228663
-0.023277
-0.0236179
-0.0238891
-0.0240907
-0.0242224
-0.0242847
-0.024278
-0.0242029
-0.02406
-0.0238507
-0.0235759
-0.0232374
-0.0228367
-0.0223758
-0.0218566
-0.0212812
-0.0206514
-0.0199691
-0.0192356
-0.0184518
-0.0176179
-0.0167334
-0.0157967
-0.0148057
-0.013757
-0.0126469
-0.0114716
-0.0102277
-0.00891495
-0.00754076
-0.00612244
-0.00468402
-0.00326144
-0.0019237
-0.000746264
0.00019891
0.000875779
0.00128843
0.00147197
0.0014986
0.00143847
0.00133893
0.0012294
0.00114671
0.00110302
0.00254027
0.00225906
0.00189521
0.00159788
0.00135868
0.00111859
0.000841294
0.000503455
8.72374e-05
-0.000422368
-0.00103558
-0.00175913
-0.00259342
-0.00353259
-0.0045656
-0.00567672
-0.00684791
-0.00806104
-0.00929888
-0.0105452
-0.0117851
-0.0130053
-0.0141943
-0.0153425
-0.0164423
-0.0174878
-0.0184746
-0.0193997
-0.020261
-0.0210571
-0.0217872
-0.0224508
-0.0230477
-0.0235777
-0.0240407
-0.0244367
-0.0247659
-0.0250281
-0.0252237
-0.0253529
-0.0254158
-0.0254131
-0.0253453
-0.0252135
-0.0250184
-0.0247615
-0.0244441
-0.024068
-0.0236349
-0.0231467
-0.0226053
-0.0220126
-0.02137
-0.0206789
-0.0199399
-0.0191529
-0.0183169
-0.0174297
-0.0164881
-0.0154874
-0.0144219
-0.0132851
-0.0120704
-0.0107726
-0.00938972
-0.00792556
-0.00639608
-0.00483498
-0.00329354
-0.00185506
-0.000617676
0.00033351
0.000960508
0.00128086
0.00136159
0.00130393
0.00118608
0.00105887
0.000968614
0.000918242
0.00280409
0.0024843
0.0020749
0.00174102
0.00146576
0.00117988
0.000843555
0.000430662
-7.94289e-05
-0.000698717
-0.00143339
-0.00228519
-0.00324843
-0.00431218
-0.00546052
-0.00667451
-0.00793454
-0.00922185
-0.010519
-0.0118101
-0.0130809
-0.0143194
-0.0155156
-0.0166618
-0.0177523
-0.0187829
-0.0197511
-0.0206551
-0.021494
-0.0222676
-0.0229757
-0.0236184
-0.024196
-0.0247086
-0.0251566
-0.02554
-0.0258591
-0.0261139
-0.0263049
-0.0264323
-0.0264963
-0.0264976
-0.0264368
-0.0263148
-0.0261324
-0.025891
-0.0255919
-0.0252368
-0.0248272
-0.024365
-0.023852
-0.0232899
-0.0226802
-0.0220241
-0.0213221
-0.0205741
-0.019779
-0.0189344
-0.0180368
-0.0170808
-0.0160599
-0.0149659
-0.0137898
-0.0125227
-0.0111574
-0.00969068
-0.00812695
-0.00648563
-0.00480901
-0.00316801
-0.00166669
-0.000424427
0.000465751
0.000980073
0.00116486
0.00113135
0.00100245
0.000856692
0.000752492
0.000689578
0.00297498
0.00262341
0.00217169
0.00180078
0.00148616
0.00115142
0.000752451
0.000259345
-0.00034686
-0.00107532
-0.00192902
-0.0029027
-0.00398584
-0.00516241
-0.00641254
-0.007715
-0.00904919
-0.010396
-0.0117381
-0.0130603
-0.0143496
-0.0155955
-0.0167899
-0.017927
-0.0190029
-0.0200152
-0.0209627
-0.0218448
-0.0226617
-0.0234138
-0.0241014
-0.0247252
-0.0252856
-0.0257832
-0.0262182
-0.026591
-0.0269018
-0.0271508
-0.0273383
-0.0274648
-0.0275305
-0.0275359
-0.0274816
-0.0273686
-0.0271976
-0.0269699
-0.0266867
-0.0263495
-0.0259599
-0.0255197
-0.0250303
-0.0244936
-0.023911
-0.0232835
-0.0226119
-0.0218959
-0.0211346
-0.0203259
-0.0194661
-0.0185501
-0.0175708
-0.0165197
-0.0153865
-0.0141601
-0.0128293
-0.0113854
-0.00982528
-0.00815608
-0.00640498
-0.00462945
-0.00292216
-0.0014083
-0.000226989
0.000533436
0.000883102
0.000916334
0.000787938
0.000622872
0.000493695
0.00041331
0.00303871
0.00265861
0.00216812
0.00176046
0.00140512
0.0010197
0.000555363
-1.89396e-05
-0.000719796
-0.0015541
-0.00251944
-0.00360555
-0.00479658
-0.00607198
-0.0074089
-0.00878458
-0.0101778
-0.0115695
-0.0129428
-0.0142837
-0.0155806
-0.0168249
-0.0180105
-0.0191334
-0.0201915
-0.0211837
-0.0221099
-0.0229707
-0.0237667
-0.0244989
-0.0251681
-0.0257752
-0.0263207
-0.0268054
-0.0272295
-0.0275935
-0.0278977
-0.0281423
-0.0283276
-0.0284539
-0.0285216
-0.0285312
-0.0284832
-0.0283785
-0.0282178
-0.0280022
-0.027733
-0.0274114
-0.0270391
-0.0266174
-0.026148
-0.0256324
-0.0250721
-0.0244681
-0.0238211
-0.0231313
-0.0223977
-0.0216186
-0.0207907
-0.0199092
-0.0189674
-0.0179567
-0.0168665
-0.0156847
-0.014398
-0.012994
-0.0114633
-0.00980354
-0.00802742
-0.00617589
-0.00432926
-0.00259807
-0.00113214
-8.20735e-05
0.000487544
0.000638883
0.000537315
0.000353822
0.000187634
8.84831e-05
0.00298013
0.00257623
0.00205189
0.00160919
0.00121299
0.000775351
0.000244968
-0.000407475
-0.00119836
-0.0021315
-0.00319882
-0.00438524
-0.00567002
-0.00702893
-0.00843697
-0.00987041
-0.0113078
-0.0127304
-0.0141224
-0.015471
-0.0167665
-0.0180023
-0.0191741
-0.0202797
-0.0213181
-0.0222897
-0.0231951
-0.0240357
-0.0248125
-0.0255268
-0.0261798
-0.0267723
-0.0273051
-0.0277788
-0.028194
-0.0285509
-0.02885
-0.0290914
-0.0292753
-0.0294021
-0.0294722
-0.029486
-0.0294441
-0.029347
-0.0291957
-0.0289911
-0.0287342
-0.0284264
-0.0280689
-0.0276632
-0.0272107
-0.0267129
-0.0261712
-0.0255865
-0.0249598
-0.0242912
-0.0235802
-0.0228254
-0.022024
-0.0211718
-0.0202628
-0.0192888
-0.0182395
-0.0171025
-0.0158639
-0.0145087
-0.0130237
-0.0113997
-0.00963671
-0.00775705
-0.00582733
-0.00394457
-0.0022404
-0.000895905
-5.47987e-05
0.000277312
0.000239909
4.07001e-05
-0.000169688
-0.000286855
0.00279031
0.00236829
0.00181604
0.00134103
0.000904158
0.000414961
-0.000178116
-0.000904252
-0.00177881
-0.00280096
-0.0039584
-0.0052312
-0.00659442
-0.00802103
-0.00948454
-0.0109607
-0.0124282
-0.0138691
-0.0152686
-0.0166159
-0.017903
-0.0191252
-0.0202799
-0.0213662
-0.0223844
-0.0233356
-0.0242214
-0.0250432
-0.0258027
-0.0265012
-0.0271399
-0.0277199
-0.0282419
-0.0287066
-0.0291144
-0.0294657
-0.0297608
-0.03
-0.0301833
-0.0303112
-0.0303839
-0.030402
-0.0303657
-0.0302759
-0.0301332
-0.0299384
-0.0296926
-0.0293969
-0.0290525
-0.0286607
-0.0282228
-0.0277402
-0.0272141
-0.0266457
-0.0260357
-0.0253845
-0.024692
-0.023957
-0.0231775
-0.0223498
-0.0214689
-0.0205274
-0.0195157
-0.0184219
-0.0172316
-0.0159292
-0.0144987
-0.0129269
-0.011205
-0.0093363
-0.00736357
-0.00539231
-0.00351657
-0.00190567
-0.000764889
-0.00019875
-0.000127467
-0.000324879
-0.000578989
-0.000712582
0.00246677
0.00203276
0.00145921
0.00095522
0.000479389
-5.88657e-05
-0.000709997
-0.0015033
-0.0024525
-0.00355264
-0.00478701
-0.00613138
-0.00755746
-0.00903616
-0.0105401
-0.0120449
-0.0135298
-0.0149777
-0.0163757
-0.0177144
-0.0189878
-0.0201929
-0.0213284
-0.0223946
-0.0233927
-0.0243245
-0.0251919
-0.0259967
-0.0267406
-0.0274252
-0.0280516
-0.0286209
-0.0291338
-0.029591
-0.0299928
-0.0303397
-0.0306318
-0.0308694
-0.0310528
-0.031182
-0.0312576
-0.0312798
-0.031249
-0.0311659
-0.0310311
-0.0308454
-0.0306096
-0.0303247
-0.0299919
-0.0296124
-0.0291872
-0.0287178
-0.0282052
-0.0276505
-0.0270546
-0.026418
-0.0257407
-0.0250221
-0.0242607
-0.0234536
-0.0225965
-0.0216832
-0.0207052
-0.0196513
-0.0185079
-0.0172587
-0.0158864
-0.014375
-0.0127111
-0.0108855
-0.00891069
-0.0068855
-0.00490645
-0.00309211
-0.00166575
-0.000822523
-0.000582125
-0.000751239
-0.00103811
-0.0011881
0.00201281
0.00157324
0.000985074
0.000455906
-5.59595e-05
-0.000638648
-0.001342
-0.00219517
-0.00320873
-0.00437457
-0.00567196
-0.00707297
-0.0085467
-0.0100627
-0.0115931
-0.0131138
-0.0146048
-0.0160505
-0.0174395
-0.0187641
-0.0200201
-0.0212057
-0.022321
-0.0233671
-0.0243458
-0.0252593
-0.0261098
-0.0268992
-0.0276293
-0.0283016
-0.0289173
-0.0294774
-0.0299827
-0.0304335
-0.0308305
-0.0311738
-0.0314638
-0.0317005
-0.0318842
-0.0320152
-0.0320936
-0.0321198
-0.0320943
-0.0320175
-0.03189
-0.0317125
-0.0314858
-0.0312108
-0.0308884
-0.0305198
-0.030106
-0.0296481
-0.0291473
-0.0286045
-0.0280208
-0.0273966
-0.0267322
-0.0260275
-0.0252812
-0.0244913
-0.0236545
-0.0227655
-0.0218171
-0.0207995
-0.0196998
-0.0185023
-0.0171891
-0.0157421
-0.0141451
-0.0123831
-0.0104494
-0.00838953
-0.00635833
-0.00441218
-0.0027418
-0.00160833
-0.00115038
-0.00125517
-0.00154642
-0.00171836
0.00143683
0.000998083
0.000401555
-0.000148136
-0.000691881
-0.00131389
-0.00206291
-0.00296704
-0.00403424
-0.00525322
-0.00659975
-0.00804295
-0.00955001
-0.0110896
-0.012634
-0.0141595
-0.0156473
-0.0170832
-0.0184574
-0.0197639
-0.021
-0.0221649
-0.0232596
-0.0242859
-0.0252462
-0.0261426
-0.0269776
-0.0277531
-0.0284709
-0.0291324
-0.0297389
-0.0302911
-0.0307898
-0.0312354
-0.0316283
-0.0319689
-0.0322572
-0.0324935
-0.0326779
-0.0328106
-0.0328919
-0.0329221
-0.0329014
-0.0328305
-0.0327098
-0.0325399
-0.0323215
-0.0320554
-0.0317426
-0.0313838
-0.0309802
-0.0305327
-0.0300424
-0.0295103
-0.0289372
-0.0283239
-0.0276708
-0.0269778
-0.0262445
-0.0254694
-0.0246499
-0.023782
-0.0228596
-0.0218743
-0.0208146
-0.0196659
-0.0184105
-0.0170287
-0.0155027
-0.0138155
-0.0119479
-0.00989928
-0.00782752
-0.00581502
-0.00396696
-0.00256491
-0.00185457
-0.00183565
-0.00210825
-0.00231382
0.000751247
0.00031979
-0.000278829
-0.00084417
-0.00141478
-0.00207058
-0.00285856
-0.00380461
-0.00491452
-0.00617422
-0.00755661
-0.00902853
-0.0105559
-0.012107
-0.0136545
-0.0151755
-0.0166524
-0.0180726
-0.0194278
-0.0207135
-0.021928
-0.0230717
-0.0241461
-0.0251534
-0.0260961
-0.0269767
-0.0277975
-0.0285605
-0.0292673
-0.0299193
-0.0305176
-0.0310629
-0.031556
-0.0319971
-0.0323867
-0.032725
-0.0330121
-0.0332482
-0.0334335
-0.033568
-0.0336521
-0.033686
-0.0336701
-0.0336046
-0.0334902
-0.0333273
-0.0331166
-0.0328587
-0.0325545
-0.0322048
-0.0318105
-0.0313725
-0.0308918
-0.0303693
-0.0298059
-0.0292023
-0.0285592
-0.0278767
-0.0271548
-0.0263926
-0.0255882
-0.0247387
-0.0238391
-0.0228825
-0.021859
-0.0207554
-0.0195547
-0.0182373
-0.016783
-0.0151736
-0.0133875
-0.0114065
-0.00929658
-0.00725696
-0.00530695
-0.00368589
-0.00271357
-0.00250816
-0.00273937
-0.00299087
-2.67455e-05
-0.000446703
-0.00104087
-0.00161698
-0.00220994
-0.00289404
-0.00371341
-0.00469235
-0.00583436
-0.00712303
-0.00852901
-0.0100175
-0.0115537
-0.0131059
-0.0146473
-0.0161562
-0.0176163
-0.0190164
-0.0203497
-0.0216128
-0.0228051
-0.0239275
-0.024982
-0.0259711
-0.0268974
-0.0277633
-0.0285712
-0.0293228
-0.0300197
-0.0306632
-0.0312542
-0.0317936
-0.0322817
-0.032719
-0.0331058
-0.0334422
-0.0337284
-0.0339645
-0.0341507
-0.0342871
-0.0343739
-0.0344113
-0.0343997
-0.0343393
-0.0342307
-0.0340743
-0.0338706
-0.0336204
-0.0333242
-0.0329828
-0.0325971
-0.0321679
-0.031696
-0.0311824
-0.0306279
-0.0300333
-0.0293994
-0.0287265
-0.0280149
-0.0272642
-0.0264733
-0.0256399
-0.0247606
-0.0238296
-0.0228387
-0.0217762
-0.0206269
-0.0193714
-0.0179884
-0.0164585
-0.0147616
-0.0128677
-0.010767
-0.0087076
-0.00671974
-0.00494543
-0.00373171
-0.00330773
-0.00345754
-0.00377078
-0.000877966
-0.00128395
-0.00186862
-0.00245111
-0.00306146
-0.00376791
-0.00461133
-0.0056144
-0.00677854
-0.00808542
-0.00950401
-0.0109984
-0.0125336
-0.0140782
-0.0156063
-0.0170972
-0.0185361
-0.019913
-0.0212225
-0.0224622
-0.023632
-0.0247335
-0.0257688
-0.0267407
-0.0276515
-0.0285039
-0.0292998
-0.030041
-0.030729
-0.0313648
-0.0319494
-0.0324833
-0.0329671
-0.033401
-0.0337853
-0.0341202
-0.0344056
-0.0346419
-0.034829
-0.0349671
-0.0350565
-0.0350972
-0.0350896
-0.035034
-0.0349308
-0.0347803
-0.0345832
-0.03434
-0.0340512
-0.0337176
-0.0333399
-0.0329188
-0.0324553
-0.03195
-0.0314039
-0.0308178
-0.0301924
-0.0295285
-0.0288265
-0.0280864
-0.0273077
-0.026489
-0.0256279
-0.0247199
-0.0237583
-0.0227332
-0.021631
-0.0204338
-0.0191201
-0.0176685
-0.0160584
-0.0142595
-0.0122449
-0.0101558
-0.00816844
-0.00631457
-0.00490448
-0.00425432
-0.0042803
-0.00468137
-0.001784
-0.00217368
-0.00274488
-0.00332939
-0.00395214
-0.0046751
-0.0055358
-0.006555
-0.00773229
-0.00904786
-0.0104696
-0.011961
-0.013487
-0.0150171
-0.0165261
-0.0179947
-0.0194092
-0.0207611
-0.0220458
-0.0232617
-0.0244094
-0.0254905
-0.0265076
-0.0274631
-0.0283595
-0.0291992
-0.0299841
-0.0307158
-0.0313956
-0.0320245
-0.0326032
-0.0331322
-0.0336121
-0.034043
-0.0344251
-0.0347585
-0.0350434
-0.0352798
-0.0354678
-0.0356076
-0.0356993
-0.0357431
-0.0357392
-0.0356879
-0.0355897
-0.0354448
-0.0352538
-0.035017
-0.0347352
-0.0344088
-0.0340386
-0.0336252
-0.0331695
-0.0326721
-0.032134
-0.031556
-0.0309389
-0.0302836
-0.0295906
-0.0288605
-0.0280931
-0.027288
-0.0264434
-0.0255562
-0.0246211
-0.0236301
-0.0225713
-0.0214286
-0.0201814
-0.0188064
-0.0172824
-0.0155839
-0.0136788
-0.0115914
-0.0096267
-0.00776145
-0.00621648
-0.00534882
-0.00523388
-0.00574048
-0.00272615
-0.00309758
-0.00365186
-0.00423409
-0.00486463
-0.00559883
-0.00647076
-0.00749901
-0.00868162
-0.00999775
-0.0114146
-0.0128957
-0.0144063
-0.0159165
-0.0174022
-0.0188455
-0.0202338
-0.0215596
-0.0228192
-0.0240116
-0.0251377
-0.0261993
-0.0271989
-0.028139
-0.029022
-0.0298499
-0.0306246
-0.0313475
-0.0320198
-0.0326422
-0.0332155
-0.0337402
-0.0342164
-0.0346445
-0.0350246
-0.0353568
-0.0356411
-0.0358777
-0.0360666
-0.0362078
-0.0363017
-0.0363483
-0.0363478
-0.0363006
-0.0362069
-0.0360671
-0.0358816
-0.0356509
-0.0353755
-0.0350559
-0.0346928
-0.0342867
-0.0338384
-0.0333486
-0.0328182
-0.032248
-0.0316389
-0.0309918
-0.0303076
-0.0295871
-0.0288305
-0.028038
-0.0272087
-0.0263405
-0.0254296
-0.0244696
-0.0234505
-0.0223581
-0.0211733
-0.0198732
-0.0184367
-0.0168425
-0.0150495
-0.0130175
-0.011057
-0.00923318
-0.00762246
-0.00657632
-0.00634307
-0.00693517
-0.0036863
-0.00403734
-0.00457176
-0.00514833
-0.00578256
-0.00652327
-0.00740107
-0.00843228
-0.00961363
-0.0109236
-0.0123293
-0.0137943
-0.0152846
-0.0167711
-0.0182309
-0.019647
-0.0210081
-0.0223076
-0.0235424
-0.0247118
-0.0258171
-0.0268601
-0.0278433
-0.0287689
-0.0296393
-0.0304562
-0.0312215
-0.0319362
-0.0326014
-0.033218
-0.0337863
-0.0343068
-0.0347798
-0.0352053
-0.0355835
-0.0359145
-0.0361984
-0.036435
-0.0366246
-0.0367673
-0.036863
-0.0369122
-0.0369148
-0.0368712
-0.0367817
-0.0366466
-0.0364663
-0.0362412
-0.0359717
-0.0356585
-0.0353019
-0.0349027
-0.0344615
-0.0339789
-0.033456
-0.0328934
-0.0322921
-0.0316531
-0.0309775
-0.0302662
-0.02952
-0.0287395
-0.0279244
-0.0270739
-0.0261851
-0.0252534
-0.0242705
-0.0232243
-0.0220976
-0.0208687
-0.0195147
-0.0180152
-0.016335
-0.0144343
-0.0124633
-0.0106897
-0.00906977
-0.00790446
-0.00760032
-0.00823399
-0.0046467
-0.00497557
-0.00548781
-0.006056
-0.00669049
-0.00743367
-0.00831279
-0.00934193
-0.0105167
-0.0118153
-0.0132049
-0.0146496
-0.0161162
-0.0175765
-0.0190087
-0.0203969
-0.0217307
-0.0230041
-0.0242147
-0.0253622
-0.0264476
-0.0274731
-0.0284407
-0.0293528
-0.0302114
-0.0310182
-0.0317745
-0.0324817
-0.0331404
-0.0337515
-0.0343152
-0.0348319
-0.0353017
-0.0357249
-0.0361014
-0.0364312
-0.0367145
-0.0369513
-0.0371415
-0.0372853
-0.0373828
-0.0374342
-0.0374397
-0.0373994
-0.0373137
-0.0371829
-0.0370072
-0.0367872
-0.0365233
-0.0362159
-0.0358655
-0.0354728
-0.0350383
-0.0345627
-0.0340469
-0.0334917
-0.032898
-0.032267
-0.0315998
-0.0308976
-0.0301614
-0.0293923
-0.0285908
-0.0277566
-0.0268884
-0.0259825
-0.0250328
-0.0240291
-0.0229563
-0.0217942
-0.0205193
-0.0191101
-0.0175402
-0.0157758
-0.013834
-0.012108
-0.0105176
-0.00929087
-0.00894502
-0.00956186
-0.00559086
-0.00589632
-0.00638481
-0.00694235
-0.00757425
-0.00831657
-0.00919332
-0.0102164
-0.0113805
-0.0126636
-0.0140336
-0.0154552
-0.016896
-0.0183288
-0.0197328
-0.0210931
-0.0224
-0.0236483
-0.0248357
-0.0259623
-0.027029
-0.028038
-0.0289912
-0.0298906
-0.0307382
-0.0315355
-0.0322836
-0.0329837
-0.0336365
-0.0342424
-0.0348018
-0.0353149
-0.0357819
-0.0362028
-0.0365776
-0.0369064
-0.0371892
-0.0374259
-0.0376167
-0.0377615
-0.0378606
-0.037914
-0.0379219
-0.0378846
-0.0378023
-0.0376753
-0.037504
-0.0372886
-0.0370297
-0.0367277
-0.0363831
-0.0359964
-0.0355683
-0.0350993
-0.0345904
-0.0340423
-0.0334561
-0.0328329
-0.0321739
-0.0314805
-0.0307541
-0.029996
-0.0292073
-0.0283886
-0.0275393
-0.0266572
-0.0257378
-0.0247729
-0.0237493
-0.0226489
-0.0214492
-0.0201294
-0.0186689
-0.0170255
-0.0151643
-0.0134611
-0.0119204
-0.010678
-0.010282
-0.010801
-0.00650302
-0.00678523
-0.007249
-0.00779414
-0.00842117
-0.00916001
-0.0100315
-0.0110456
-0.0121961
-0.0134608
-0.0148089
-0.0162058
-0.0176198
-0.0190248
-0.0204008
-0.0217338
-0.0230149
-0.0242392
-0.0254048
-0.0265116
-0.027561
-0.0285545
-0.0294942
-0.030382
-0.0312194
-0.0320078
-0.0327484
-0.033442
-0.0340891