/*--------------------------------*- C++ -*----------------------------------*\
  =========                 |
  \\      /  F ield         | OpenFOAM: The Open Source CFD Toolbox
   \\    /   O peration     | Website:  https://openfoam.org
    \\  /    A nd           | Version:  13
     \\/     M anipulation  |
\*---------------------------------------------------------------------------*/
FoamFile
{
    format      ascii;
    class       surfaceScalarField;
    location    "9.6";
    object      phi;
}
// * * * * * * * * * * * * * * * * * * * * * * * * * * * * * * * * * * * * * //

dimensions      [0 3 -1 0 0 0 0];

internalField   nonuniform List<scalar> 
12640
(
1.66667e-09
-1.66666e-09
1.5601e-08
-1.39344e-08
4.01282e-08
-2.45272e-08
6.83919e-08
-2.82637e-08
9.38423e-08
-2.54504e-08
1.12813e-07
-1.89709e-08
1.23939e-07
-1.11257e-08
1.28172e-07
-4.2334e-09
1.27879e-07
2.93697e-10
1.25473e-07
2.40561e-09
1.22983e-07
2.49035e-09
1.21721e-07
1.26166e-09
1.22093e-07
-3.71633e-10
1.23809e-07
-1.7164e-09
1.2599e-07
-2.18095e-09
1.27667e-07
-1.67722e-09
1.27928e-07
-2.61187e-10
1.26239e-07
1.68897e-09
1.21718e-07
4.52154e-09
1.13467e-07
8.25057e-09
1.00946e-07
1.25214e-08
8.35509e-08
1.7395e-08
6.08496e-08
2.27013e-08
3.26562e-08
2.81934e-08
-1.06164e-09
3.37178e-08
-4.05376e-08
3.9476e-08
-8.72627e-08
4.67251e-08
-1.43757e-07
5.64941e-08
-2.12953e-07
6.91966e-08
-2.96869e-07
8.39154e-08
-3.94218e-07
9.73492e-08
-5.01273e-07
1.07055e-07
-6.1444e-07
1.13167e-07
-7.30252e-07
1.15812e-07
-8.4571e-07
1.15458e-07
-9.58224e-07
1.12514e-07
-1.06569e-06
1.07469e-07
-1.16642e-06
1.00724e-07
-1.25907e-06
9.26506e-08
-1.34261e-06
8.35475e-08
-1.41621e-06
7.35987e-08
-1.47919e-06
6.29761e-08
-1.53094e-06
5.17461e-08
-1.57087e-06
3.99381e-08
-1.5984e-06
2.75213e-08
-1.61349e-06
1.50923e-08
-1.61614e-06
2.65424e-09
-1.60446e-06
-1.1684e-08
-1.57938e-06
-2.50796e-08
-1.53971e-06
-3.96713e-08
-1.48567e-06
-5.4033e-08
-1.4171e-06
-6.85772e-08
-1.33435e-06
-8.27435e-08
-1.23792e-06
-9.64369e-08
-1.12845e-06
-1.09471e-07
-1.00688e-06
-1.21562e-07
-8.74687e-07
-1.32197e-07
-7.33713e-07
-1.40974e-07
-5.86361e-07
-1.47353e-07
-4.35522e-07
-1.50839e-07
-2.84735e-07
-1.50787e-07
-1.37842e-07
-1.46894e-07
1.14757e-09
-1.38989e-07
1.29251e-07
-1.28103e-07
2.41334e-07
-1.12083e-07
3.33741e-07
-9.24074e-08
4.03332e-07
-6.95913e-08
4.47709e-07
-4.43768e-08
4.65633e-07
-1.79245e-08
4.55964e-07
9.66907e-09
4.21812e-07
3.41525e-08
3.6578e-07
5.60319e-08
2.94142e-07
7.1638e-08
2.1688e-07
7.7262e-08
1.4443e-07
7.24503e-08
8.40828e-08
6.03469e-08
3.95165e-08
4.45663e-08
1.12312e-08
2.82853e-08
-8.04697e-10
1.20359e-08
-8.04699e-10
1.07709e-08
-1.24375e-08
4.43074e-08
-4.74709e-08
9.06483e-08
-7.08681e-08
1.37819e-07
-7.54344e-08
1.78105e-07
-6.57362e-08
2.07699e-07
-4.85651e-08
2.26026e-07
-2.9453e-08
2.34122e-07
-1.23289e-08
2.33831e-07
5.84555e-10
2.27551e-07
8.68602e-09
2.17598e-07
1.24426e-08
2.05562e-07
1.32982e-08
1.91927e-07
1.32627e-08
1.76092e-07
1.41187e-08
1.56972e-07
1.6939e-08
1.33397e-07
2.18979e-08
1.04418e-07
2.87175e-08
6.87462e-08
3.73612e-08
2.51258e-08
4.81419e-08
-2.79985e-08
6.13749e-08
-9.27077e-08
7.72306e-08
-1.70751e-07
9.54387e-08
-2.63292e-07
1.15242e-07
-3.71161e-07
1.36063e-07
-4.94874e-07
1.5743e-07
-6.34046e-07
1.78648e-07
-7.85972e-07
1.98651e-07
-9.4624e-07
2.16762e-07
-1.10927e-06
2.3223e-07
-1.26931e-06
2.43951e-07
-1.42305e-06
2.51091e-07
-1.56952e-06
2.53527e-07
-1.70734e-06
2.50989e-07
-1.83531e-06
2.43773e-07
-1.95245e-06
2.32598e-07
-2.05813e-06
2.18199e-07
-2.1519e-06
2.01239e-07
-2.23348e-06
1.82304e-07
-2.30265e-06
1.61825e-07
-2.3593e-06
1.40191e-07
-2.40329e-06
1.17594e-07
-2.43454e-06
9.42217e-08
-2.45295e-06
7.01569e-08
-2.45848e-06
4.54718e-08
-2.45114e-06
2.01781e-08
-2.43022e-06
-5.82615e-09
-2.39586e-06
-3.17064e-08
-2.34848e-06
-5.90646e-08
-2.287e-06
-8.65638e-08
-2.21203e-06
-1.14637e-07
-2.12317e-06
-1.42897e-07
-2.02052e-06
-1.71223e-07
-1.90402e-06
-1.99241e-07
-1.77392e-06
-2.26537e-07
-1.63088e-06
-2.52513e-07
-1.47604e-06
-2.76399e-07
-1.3107e-06
-2.97537e-07
-1.13676e-06
-3.14918e-07
-9.56551e-07
-3.27562e-07
-7.7279e-07
-3.346e-07
-5.88519e-07
-3.35059e-07
-4.07154e-07
-3.28258e-07
-2.32195e-07
-3.13948e-07
-6.81226e-08
-2.92176e-07
8.24182e-08
-2.62624e-07
2.15898e-07
-2.25888e-07
3.28938e-07
-1.82631e-07
4.18983e-07
-1.34422e-07
4.8364e-07
-8.25814e-08
5.22557e-07
-2.9248e-08
5.33945e-07
2.27647e-08
5.18556e-07
7.14206e-08
4.78378e-07
1.11816e-07
4.14302e-07
1.41337e-07
3.30145e-07
1.56608e-07
2.36396e-07
1.54096e-07
1.45551e-07
1.35412e-07
6.99933e-08
1.03843e-07
1.96525e-08
6.23767e-08
1.88478e-08
2.04273e-08
-3.28648e-08
6.77009e-08
-9.47445e-08
1.20605e-07
-1.23772e-07
1.6709e-07
-1.21919e-07
2.02715e-07
-1.01361e-07
2.26551e-07
-7.24012e-08
2.39321e-07
-4.22226e-08
2.42026e-07
-1.5034e-08
2.3586e-07
6.75022e-09
2.22335e-07
2.22108e-08
2.02859e-07
3.19191e-08
1.78007e-07
3.81503e-08
1.47566e-07
4.37033e-08
1.10688e-07
5.09972e-08
6.61737e-08
6.14529e-08
1.25708e-08
7.55009e-08
-5.18782e-08
9.31665e-08
-1.28995e-07
1.14478e-07
-2.20314e-07
1.39461e-07
-3.27031e-07
1.68092e-07
-4.4956e-07
1.9976e-07
-5.87444e-07
2.33324e-07
-7.39538e-07
2.67336e-07
-9.03262e-07
2.99787e-07
-1.07505e-06
3.29221e-07
-1.25057e-06
3.54168e-07
-1.42552e-06
3.73602e-07
-1.5959e-06
3.87138e-07
-1.75816e-06
3.94491e-07
-1.90983e-06
3.95621e-07
-2.04949e-06
3.90754e-07
-2.17629e-06
3.80329e-07
-2.29031e-06
3.65009e-07
-2.392e-06
3.45455e-07
-2.48166e-06
3.22258e-07
-2.55965e-06
2.96195e-07
-2.62627e-06
2.67859e-07
-2.68176e-06
2.37786e-07
-2.72625e-06
2.06319e-07
-2.75987e-06
1.73811e-07
-2.78267e-06
1.40395e-07
-2.79463e-06
1.06179e-07
-2.79568e-06
7.12103e-08
-2.78571e-06
3.54988e-08
-2.76446e-06
-1.07273e-09
-2.73199e-06
-3.82935e-08
-2.68731e-06
-7.63822e-08
-2.63088e-06
-1.15499e-07
-2.56211e-06
-1.55337e-07
-2.48084e-06
-1.95905e-07
-2.38683e-06
-2.36902e-07
-2.27998e-06
-2.78072e-07
-2.16027e-06
-3.18959e-07
-2.02787e-06
-3.58933e-07
-1.88326e-06
-3.9712e-07
-1.72719e-06
-4.32471e-07
-1.56074e-06
-4.63983e-07
-1.38536e-06
-4.90302e-07
-1.20298e-06
-5.0994e-07
-1.01614e-06
-5.21445e-07
-8.27672e-07
-5.23522e-07
-6.4091e-07
-5.15021e-07
-4.5945e-07
-4.95408e-07
-2.87015e-07
-4.6461e-07
-1.26685e-07
-4.22954e-07
1.84695e-08
-3.71042e-07
1.4588e-07
-3.10042e-07
2.53021e-07
-2.41562e-07
3.38477e-07
-1.68038e-07
4.01429e-07
-9.21999e-08
4.41119e-07
-1.69255e-08
4.57e-07
5.55403e-08
4.48024e-07
1.20792e-07
4.15379e-07
1.73983e-07
3.61003e-07
2.10984e-07
2.87667e-07
2.27431e-07
2.02167e-07
2.20912e-07
1.15176e-07
1.90834e-07
4.03769e-08
1.37176e-07
5.92248e-08
2.84024e-08
-6.12672e-08
8.21106e-08
-1.48453e-07
1.32469e-07
-1.7413e-07
1.7091e-07
-1.60361e-07
1.96243e-07
-1.26694e-07
2.09733e-07
-8.58916e-08
2.12615e-07
-4.51043e-08
2.06035e-07
-8.45392e-09
1.90787e-07
2.19979e-08
1.67331e-07
4.56666e-08
1.35435e-07
6.38153e-08
9.45672e-08
7.90183e-08
4.39267e-08
9.43438e-08
-1.74475e-08
1.12371e-07
-9.06705e-08
1.34676e-07
-1.7711e-07
1.6194e-07
-2.78215e-07
1.94272e-07
-3.95221e-07
2.31483e-07
-5.28616e-07
2.72856e-07
-6.77801e-07
3.17278e-07
-8.40841e-07
3.62799e-07
-1.01446e-06
4.06946e-07
-1.19471e-06
4.47586e-07
-1.37725e-06
4.82325e-07
-1.55795e-06
5.09919e-07
-1.73292e-06
5.29139e-07
-1.89873e-06
5.39413e-07
-2.05282e-06
5.41224e-07
-2.19393e-06
5.35603e-07
-2.32175e-06
5.23438e-07
-2.43655e-06
5.05556e-07
-2.53894e-06
4.82716e-07
-2.62956e-06
4.55634e-07
-2.70915e-06
4.25041e-07
-2.77839e-06
3.91497e-07
-2.8378e-06
3.55608e-07
-2.88778e-06
3.17836e-07
-2.92861e-06
2.78612e-07
-2.96046e-06
2.38176e-07
-2.9834e-06
1.96747e-07
-2.99741e-06
1.54401e-07
-3.0024e-06
1.11176e-07
-2.99821e-06
6.70171e-08
-2.98458e-06
2.18692e-08
-2.96133e-06
-2.43178e-08
-2.92804e-06
-7.15885e-08
-2.88432e-06
-1.20106e-07
-2.82989e-06
-1.69927e-07
-2.7643e-06
-2.20926e-07
-2.68723e-06
-2.72977e-07
-2.59832e-06
-3.25813e-07
-2.49729e-06
-3.79101e-07
-2.38392e-06
-4.32325e-07
-2.25811e-06
-4.84748e-07
-2.11993e-06
-5.35298e-07
-1.96985e-06
-5.82545e-07
-1.80865e-06
-6.25183e-07
-1.63741e-06
-6.61543e-07
-1.45769e-06
-6.89662e-07
-1.27155e-06
-7.07585e-07
-1.08153e-06
-7.13542e-07
-8.90739e-07
-7.05813e-07
-7.02884e-07
-6.83264e-07
-5.22097e-07
-6.45397e-07
-3.52019e-07
-5.93032e-07
-1.95719e-07
-5.27342e-07
-5.6093e-08
-4.49668e-07
6.47278e-08
-3.62383e-07
1.65123e-07
-2.68433e-07
2.44115e-07
-1.71192e-07
3.01393e-07
-7.42031e-08
3.37675e-07
1.92586e-08
3.52854e-07
1.05613e-07
3.46403e-07
1.80434e-07
3.18266e-07
2.39121e-07
2.69334e-07
2.76363e-07
2.03403e-07
2.86843e-07
1.26375e-07
2.67861e-07
4.88431e-08
2.14708e-07
1.08068e-07
3.45063e-08
-9.57735e-08
8.74049e-08
-2.01351e-07
1.28847e-07
-2.15572e-07
1.55622e-07
-1.87136e-07
1.68589e-07
-1.39661e-07
1.70026e-07
-8.73287e-08
1.61322e-07
-3.64005e-08
1.4321e-07
9.65795e-09
1.15849e-07
4.93594e-08
7.87581e-08
8.27573e-08
3.09435e-08
1.1163e-07
-2.88084e-08
1.3877e-07
-1.01674e-07
1.67209e-07
-1.88727e-07
1.99424e-07
-2.90963e-07
2.36912e-07
-4.09194e-07
2.80171e-07
-5.43785e-07
3.28863e-07
-6.94379e-07
3.82077e-07
-8.59373e-07
4.3785e-07
-1.03555e-06
4.93458e-07
-1.21901e-06
5.46259e-07
-1.40519e-06
5.93125e-07
-1.58978e-06
6.32175e-07
-1.76859e-06
6.61132e-07
-1.93736e-06
6.78692e-07
-2.09367e-06
6.85451e-07
-2.23675e-06
6.82491e-07
-2.36666e-06
6.71138e-07
-2.48389e-06
6.52832e-07
-2.58915e-06
6.28694e-07
-2.6833e-06
5.99708e-07
-2.76717e-06
5.66586e-07
-2.84148e-06
5.29946e-07
-2.90687e-06
4.90427e-07
-2.9639e-06
4.48532e-07
-3.01299e-06
4.04695e-07
-3.05443e-06
3.59278e-07
-3.08843e-06
3.12612e-07
-3.11509e-06
2.64839e-07
-3.13442e-06
2.16078e-07
-3.14631e-06
1.66287e-07
-3.15068e-06
1.15543e-07
-3.14731e-06
6.36519e-08
-3.13587e-06
1.04302e-08
-3.11618e-06
-4.40135e-08
-3.08778e-06
-9.99854e-08
-3.05029e-06
-1.57597e-07
-3.00328e-06
-2.16937e-07
-2.94617e-06
-2.78037e-07
-2.87847e-06
-3.40677e-07
-2.79968e-06
-4.04599e-07
-2.70934e-06
-4.69445e-07
-2.607e-06
-5.34662e-07
-2.49224e-06
-5.99505e-07
-2.36467e-06
-6.62871e-07
-2.22447e-06
-7.2275e-07
-2.07202e-06
-7.77629e-07
-1.90793e-06
-8.25633e-07
-1.73337e-06
-8.64222e-07
-1.55002e-06
-8.90935e-07
-1.36002e-06
-9.03544e-07
-1.1662e-06
-8.99627e-07
-9.71765e-07
-8.77704e-07
-7.80826e-07
-8.36336e-07
-5.98115e-07
-7.75743e-07
-4.27745e-07
-6.97712e-07
-2.72774e-07
-6.04639e-07
-1.35899e-07
-4.99259e-07
-1.91765e-08
-3.85155e-07
7.62178e-08
-2.66586e-07
1.49914e-07
-1.479e-07
2.02478e-07
-3.33046e-08
2.34808e-07
7.32822e-08
2.47403e-07
1.67839e-07
2.4051e-07
2.46014e-07
2.14451e-07
3.02422e-07
1.70221e-07
3.31074e-07
1.10949e-07
3.27133e-07
4.44342e-08
2.81223e-07
1.52502e-07
3.801e-08
-1.33784e-07
8.34739e-08
-2.46815e-07
1.12066e-07
-2.44164e-07
1.24742e-07
-1.99812e-07
1.24426e-07
-1.39345e-07
1.13122e-07
-7.60249e-08
9.18092e-08
-1.50876e-08
6.06062e-08
4.0861e-08
1.90225e-08
9.09432e-08
-3.41064e-08
1.35886e-07
-1.00192e-07
1.77715e-07
-1.80644e-07
2.19222e-07
-2.76635e-07
2.632e-07
-3.88978e-07
3.11767e-07
-5.18053e-07
3.65988e-07
-6.63546e-07
4.25664e-07
-8.2425e-07
4.89567e-07
-9.97695e-07
5.55522e-07
-1.18031e-06
6.20468e-07
-1.36749e-06
6.80634e-07
-1.55471e-06
7.3348e-07
-1.73708e-06
7.75499e-07
-1.90955e-06
8.04643e-07
-2.0692e-06
8.20779e-07
-2.21531e-06
8.24803e-07
-2.34818e-06
8.18325e-07
-2.46863e-06
8.02933e-07
-2.57764e-06
7.80156e-07
-2.67611e-06
7.51301e-07
-2.76485e-06
7.17436e-07
-2.8446e-06
6.79454e-07
-2.916e-06
6.37981e-07
-2.97965e-06
5.93603e-07
-3.03606e-06
5.46837e-07
-3.08562e-06
4.98093e-07
-3.12863e-06
4.47704e-07
-3.16523e-06
3.95878e-07
-3.19556e-06
3.42941e-07
-3.21971e-06
2.88991e-07
-3.23775e-06
2.34118e-07
-3.24949e-06
1.78026e-07
-3.25502e-06
1.21066e-07
-3.25428e-06
6.2918e-08
-3.24682e-06
2.9699e-09
-3.23292e-06
-5.79154e-08
-3.21178e-06
-1.21121e-07
-3.183e-06
-1.86385e-07
-3.14611e-06
-2.53826e-07
-3.10047e-06
-3.23675e-07
-3.04541e-06
-3.95737e-07
-2.98014e-06
-4.69866e-07
-2.90384e-06
-5.45746e-07
-2.8158e-06
-6.22698e-07
-2.71561e-06
-6.99701e-07
-2.60265e-06
-7.75833e-07
-2.47623e-06
-8.49161e-07
-2.33628e-06
-9.17582e-07
-2.18279e-06
-9.79125e-07
-2.01645e-06
-1.03056e-06
-1.83861e-06
-1.06877e-06
-1.65081e-06
-1.09135e-06
-1.45569e-06
-1.09475e-06
-1.25619e-06
-1.0772e-06
-1.05609e-06
-1.03643e-06
-8.59983e-07
-9.71852e-07
-6.73234e-07
-8.84461e-07
-5.00239e-07
-7.77634e-07
-3.44339e-07
-6.5516e-07
-2.08346e-07
-5.21147e-07
-9.42152e-08
-3.80718e-07
-2.71735e-09
-2.39398e-07
6.65298e-08
-1.02552e-07
1.14771e-07
2.50407e-08
1.43585e-07
1.39025e-07
1.53928e-07
2.35671e-07
1.46399e-07
3.09951e-07
1.2145e-07
3.56023e-07
8.13492e-08
3.67233e-07
3.23754e-08
3.30197e-07
1.84877e-07
3.78924e-08
-1.71676e-07
7.04892e-08
-2.79412e-07
8.40842e-08
-2.57759e-07
8.1906e-08
-1.97634e-07
6.78031e-08
-1.25242e-07
4.31716e-08
-5.13934e-08
8.30939e-09
1.97746e-08
-3.72676e-08
8.6438e-08
-9.46276e-08
1.48303e-07
-1.65192e-07
2.0645e-07
-2.50458e-07
2.62982e-07
-3.51691e-07
3.20455e-07
-4.69677e-07
3.81186e-07
-6.0455e-07
4.4664e-07
-7.55644e-07
5.17082e-07
-9.21296e-07
5.91316e-07
-1.09851e-06
6.66781e-07
-1.2831e-06
7.40116e-07
-1.47038e-06
8.07745e-07
-1.6553e-06
8.65549e-07
-1.83192e-06
9.10101e-07
-1.99634e-06
9.3992e-07
-2.14712e-06
9.55428e-07
-2.28443e-06
9.58087e-07
-2.40919e-06
9.49567e-07
-2.52244e-06
9.31572e-07
-2.62522e-06
9.05715e-07
-2.71851e-06
8.73443e-07
-2.80308e-06
8.35871e-07
-2.87958e-06
7.93941e-07
-2.94855e-06
7.48416e-07
-3.01046e-06
6.99897e-07
-3.06578e-06
6.48916e-07
-3.11483e-06
5.95893e-07
-3.15794e-06
5.41198e-07
-3.19537e-06
4.85139e-07
-3.22709e-06
4.27599e-07
-3.25329e-06
3.69142e-07
-3.27411e-06
3.09802e-07
-3.28956e-06
2.49574e-07
-3.29992e-06
1.88386e-07
-3.30492e-06
1.26067e-07
-3.30443e-06
6.24241e-08
-3.29842e-06
-3.03425e-09
-3.28691e-06
-6.94313e-08
-3.27005e-06
-1.37982e-07
-3.24772e-06
-2.08712e-07
-3.21973e-06
-2.81821e-07
-3.18579e-06
-3.57612e-07
-3.14519e-06
-4.36337e-07
-3.09704e-06
-5.18016e-07
-3.04033e-06
-6.02459e-07
-2.97371e-06
-6.89312e-07
-2.89534e-06
-7.78076e-07
-2.80344e-06
-8.67734e-07
-2.69676e-06
-9.55844e-07
-2.57475e-06
-1.03959e-06
-2.4375e-06
-1.11637e-06
-2.28526e-06
-1.18281e-06
-2.11824e-06
-1.23579e-06
-1.93732e-06
-1.27227e-06
-1.74498e-06
-1.28709e-06
-1.54369e-06
-1.27848e-06
-1.33705e-06
-1.24307e-06
-1.12933e-06
-1.17957e-06
-9.26003e-07
-1.08779e-06
-7.33448e-07
-9.70188e-07
-5.5645e-07
-8.32158e-07
-3.98591e-07
-6.79006e-07
-2.62855e-07
-5.16454e-07
-1.51007e-07
-3.51246e-07
-6.32967e-08
-1.90262e-07
1.50556e-09
-3.97616e-08
4.52367e-08
9.52941e-08
7.03175e-08
2.1059e-07
7.82776e-08
3.01991e-07
6.98994e-08
3.64401e-07
4.74855e-08
3.89647e-07
1.74002e-08
3.60282e-07
2.02278e-07
3.29784e-08
-2.04654e-07
5.0155e-08
-2.96589e-07
4.75934e-08
-2.55197e-07
3.0324e-08
-1.80365e-07
2.15895e-09
-9.70769e-08
-3.62834e-08
-1.29511e-08
-8.54326e-08
6.89239e-08
-1.46252e-07
1.47257e-07
-2.20068e-07
2.2212e-07
-3.08311e-07
2.94693e-07
-4.1224e-07
3.6691e-07
-5.32665e-07
4.4088e-07
-6.69675e-07
5.18196e-07
-8.22503e-07
5.99468e-07
-9.89288e-07
6.83867e-07
-1.16671e-06
7.68737e-07
-1.35031e-06
8.50382e-07
-1.53513e-06
9.24932e-07
-1.71509e-06
9.8771e-07
-1.88502e-06
1.03547e-06
-2.04193e-06
1.06701e-06
-2.18532e-06
1.08331e-06
-2.3157e-06
1.08581e-06
-2.43407e-06
1.07646e-06
-2.54151e-06
1.057e-06
-2.63912e-06
1.02919e-06
-2.72783e-06
9.94421e-07
-2.80834e-06
9.53951e-07
-2.88121e-06
9.0874e-07
-2.9469e-06
8.59631e-07
-3.0058e-06
8.07315e-07
-3.05827e-06
7.5237e-07
-3.10463e-06
6.95275e-07
-3.14507e-06
6.36332e-07
-3.17979e-06
5.75924e-07
-3.20931e-06
5.14657e-07
-3.23438e-06
4.52663e-07
-3.25512e-06
3.89884e-07
-3.27154e-06
3.26221e-07
-3.28348e-06
2.61519e-07
-3.29115e-06
1.96055e-07
-3.2944e-06
1.29318e-07
-3.29333e-06
6.13464e-08
-3.28798e-06
-8.38072e-09
-3.2785e-06
-7.8907e-08
-3.26486e-06
-1.5163e-07
-3.24694e-06
-2.26632e-07
-3.22455e-06
-3.04202e-07
-3.19759e-06
-3.84571e-07
-3.1658e-06
-4.68126e-07
-3.12888e-06
-5.54944e-07
-3.08632e-06
-6.45019e-07
-3.03744e-06
-7.38194e-07
-2.9815e-06
-8.34015e-07
-2.91736e-06
-9.31869e-07
-2.84205e-06
-1.03116e-06
-2.75168e-06
-1.12995e-06
-2.6427e-06
-1.22536e-06
-2.5137e-06
-1.3118e-06
-2.36545e-06
-1.38404e-06
-2.19994e-06
-1.43778e-06
-2.01766e-06
-1.46937e-06
-1.82092e-06
-1.47522e-06
-1.61308e-06
-1.45092e-06
-1.39815e-06
-1.3945e-06
-1.18106e-06
-1.30487e-06
-9.69079e-07
-1.18217e-06
-7.69634e-07
-1.0316e-06
-5.87993e-07
-8.60647e-07
-4.28051e-07
-6.76396e-07
-2.92918e-07
-4.86379e-07
-1.84087e-07
-2.99092e-07
-1.01168e-07
-1.22681e-07
-4.18793e-08
3.60051e-08
-3.01577e-09
1.71727e-07
1.80022e-08
2.80973e-07
2.35797e-08
3.58823e-07
1.66694e-08
3.96558e-07
3.76842e-09
3.73183e-07
2.06046e-07
2.36661e-08
-2.2832e-07
2.40233e-08
-2.96946e-07
4.69289e-09
-2.35867e-07
-2.71108e-08
-1.48561e-07
-6.93541e-08
-5.48336e-08
-1.21972e-07
3.96666e-08
-1.85797e-07
1.32749e-07
-2.62074e-07
2.23534e-07
-3.52133e-07
3.12179e-07
-4.57159e-07
3.99719e-07
-5.77944e-07
4.87695e-07
-7.14596e-07
5.77533e-07
-8.6643e-07
6.7003e-07
-1.03166e-06
7.64696e-07
-1.2068e-06
8.59007e-07
-1.38726e-06
9.49198e-07
-1.56776e-06
1.03089e-06
-1.74214e-06
1.09931e-06
-1.90571e-06
1.15129e-06
-2.05635e-06
1.18611e-06
-2.19369e-06
1.20435e-06
-2.31833e-06
1.20795e-06
-2.4313e-06
1.19877e-06
-2.5337e-06
1.17886e-06
-2.62656e-06
1.14986e-06
-2.71073e-06
1.11336e-06
-2.78685e-06
1.07054e-06
-2.85542e-06
1.02252e-06
-2.91685e-06
9.70172e-07
-2.97152e-06
9.14294e-07
-3.01975e-06
8.5555e-07
-3.06191e-06
7.94527e-07
-3.09843e-06
7.31792e-07
-3.12995e-06
6.67856e-07
-3.15699e-06
6.02962e-07
-3.17938e-06
5.3705e-07
-3.19724e-06
4.70526e-07
-3.21058e-06
4.03222e-07
-3.21962e-06
3.35261e-07
-3.22484e-06
2.66735e-07
-3.22652e-06
1.9774e-07
-3.22514e-06
1.27934e-07
-3.22096e-06
5.71659e-08
-3.21441e-06
-1.49304e-08
-3.20508e-06
-8.82342e-08
-3.19314e-06
-1.63575e-07
-3.17861e-06
-2.41156e-07
-3.16149e-06
-3.21323e-07
-3.14165e-06
-4.04406e-07
-3.11898e-06
-4.90802e-07
-3.09313e-06
-5.80791e-07
-3.06358e-06
-6.74573e-07
-3.02958e-06
-7.7219e-07
-2.9902e-06
-8.73401e-07
-2.94463e-06
-9.77435e-07
-2.89184e-06
-1.08395e-06
-2.83043e-06
-1.19135e-06
-2.75823e-06
-1.29756e-06
-2.66944e-06
-1.4006e-06
-2.55709e-06
-1.49639e-06
-2.41904e-06
-1.57583e-06
-2.25674e-06
-1.63167e-06
-2.0744e-06
-1.65756e-06
-1.87352e-06
-1.6518e-06
-1.65863e-06
-1.60939e-06
-1.43402e-06
-1.52949e-06
-1.20618e-06
-1.41001e-06
-9.84298e-07
-1.25348e-06
-7.77272e-07
-1.06767e-06
-5.90989e-07
-8.62678e-07
-4.29635e-07
-6.47734e-07
-2.96347e-07
-4.32381e-07
-1.92098e-07
-2.26929e-07
-1.15483e-07
-4.06107e-08
-6.29975e-08
1.19242e-07
-3.00368e-08
2.48012e-07
-1.27752e-08
3.41562e-07
-6.3532e-09
3.90136e-07
-5.01745e-09
3.71847e-07
2.01029e-07
1.12462e-08
-2.39567e-07
-6.18018e-09
-2.7952e-07
-4.12099e-08
-2.00837e-07
-8.76265e-08
-1.02145e-07
-1.44019e-07
1.55856e-09
-2.1079e-07
1.06438e-07
-2.89149e-07
2.11109e-07
-3.80369e-07
3.14753e-07
-4.85567e-07
4.17377e-07
-6.05495e-07
5.19647e-07
-7.40297e-07
6.22498e-07
-8.89423e-07
7.26659e-07
-1.05131e-06
8.31913e-07
-1.2226e-06
9.35988e-07
-1.39859e-06
1.035e-06
-1.57385e-06
1.12446e-06
-1.7427e-06
1.19973e-06
-1.90079e-06
1.2574e-06
-2.04619e-06
1.29669e-06
-2.17842e-06
1.31834e-06
-2.29815e-06
1.32408e-06
-2.40636e-06
1.31616e-06
-2.50414e-06
1.29656e-06
-2.59241e-06
1.26713e-06
-2.67194e-06
1.22939e-06
-2.74329e-06
1.18471e-06
-2.80693e-06
1.13419e-06
-2.86328e-06
1.07887e-06
-2.91273e-06
1.01963e-06
-2.95571e-06
9.57273e-07
-2.99266e-06
8.925e-07
-3.02405e-06
8.25913e-07
-3.05023e-06
7.57972e-07
-3.07141e-06
6.89045e-07
-3.0879e-06
6.1945e-07
-3.10015e-06
5.49302e-07
-3.10857e-06
4.78947e-07
-3.11373e-06
4.08382e-07
-3.11613e-06
3.37657e-07
-3.11609e-06
2.66692e-07
-3.11371e-06
1.95362e-07
-3.10922e-06
1.23445e-07
-3.1028e-06
5.07401e-08
-3.09468e-06
-2.30456e-08
-3.08479e-06
-9.81218e-08
-3.0734e-06
-1.7497e-07
-3.06064e-06
-2.53912e-07
-3.04663e-06
-3.35336e-07
-3.03141e-06
-4.19628e-07
-3.015e-06
-5.07204e-07
-2.99735e-06
-5.98445e-07
-2.97824e-06
-6.93685e-07
-2.95728e-06
-7.93145e-07
-2.93384e-06
-8.96846e-07
-2.90669e-06
-1.00458e-06
-2.87459e-06
-1.11605e-06
-2.83572e-06
-1.23022e-06
-2.78828e-06
-1.345e-06
-2.73016e-06
-1.45872e-06
-2.65871e-06
-1.56783e-06
-2.56623e-06
-1.66831e-06
-2.44337e-06
-1.75453e-06
-2.28865e-06
-1.81228e-06
-2.10605e-06
-1.8344e-06
-1.90116e-06
-1.81428e-06
-1.67802e-06
-1.75263e-06
-1.44233e-06
-1.6457e-06
-1.2025e-06
-1.49332e-06
-9.69876e-07
-1.30029e-06
-7.55179e-07
-1.07738e-06
-5.65018e-07
-8.37894e-07
-4.03797e-07
-5.93602e-07
-2.74409e-07
-3.56317e-07
-1.76887e-07
-1.38132e-07
-1.08417e-07
5.07718e-08
-6.36078e-08
2.03203e-07
-3.65564e-08
3.1451e-07
-1.98187e-08
3.73398e-07
-9.06804e-09
3.61096e-07
1.9196e-07
-2.98789e-09
-2.36579e-07
-3.76384e-08
-2.44869e-07
-8.82906e-08
-1.50185e-07
-1.49019e-07
-4.14159e-08
-2.19153e-07
7.16921e-08
-2.99701e-07
1.86986e-07
-3.91882e-07
3.0329e-07
-4.96842e-07
4.19713e-07
-6.15334e-07
5.35869e-07
-7.47551e-07
6.51863e-07
-8.93072e-07
7.68019e-07
-1.05061e-06
8.84192e-07
-1.21711e-06
9.98419e-07
-1.38797e-06
1.10685e-06
-1.55787e-06
1.20489e-06
-1.72154e-06
1.28813e-06
-1.87489e-06
1.35308e-06
-2.0158e-06
1.39832e-06
-2.14376e-06
1.42464e-06
-2.25921e-06
1.43379e-06
-2.36318e-06
1.42805e-06
-2.45662e-06
1.4096e-06
-2.54039e-06
1.38033e-06
-2.61514e-06
1.34188e-06
-2.6814e-06
1.29565e-06
-2.73961e-06
1.24292e-06
-2.79021e-06
1.18478e-06
-2.83365e-06
1.12231e-06
-2.87043e-06
1.05641e-06
-2.90108e-06
9.87922e-07
-2.92613e-06
9.17551e-07
-2.9461e-06
8.45883e-07
-2.9615e-06
7.73371e-07
-2.97284e-06
7.00388e-07
-2.98061e-06
6.27221e-07
-2.98536e-06
5.54048e-07
-2.98745e-06
4.8104e-07
-2.98725e-06
4.08178e-07
-2.98502e-06
3.35426e-07
-2.98098e-06
2.62656e-07
-2.97532e-06
1.89701e-07
-2.96822e-06
1.16347e-07
-2.95985e-06
4.23667e-08
-2.95038e-06
-3.25129e-08
-2.93992e-06
-1.08583e-07
-2.92868e-06
-1.86215e-07
-2.91683e-06
-2.65756e-07
-2.90457e-06
-3.47597e-07
-2.89206e-06
-4.32138e-07
-2.87946e-06
-5.19804e-07
-2.8669e-06
-6.1101e-07
-2.85442e-06
-7.06159e-07
-2.84198e-06
-8.05591e-07
-2.82927e-06
-9.09555e-07
-2.81566e-06
-1.01819e-06
-2.80027e-06
-1.13144e-06
-2.78171e-06
-1.24878e-06
-2.75755e-06
-1.36916e-06
-2.72526e-06
-1.49101e-06
-2.68182e-06
-1.61127e-06
-2.62393e-06
-1.72621e-06
-2.54726e-06
-1.83121e-06
-2.44006e-06
-1.91948e-06
-2.29466e-06
-1.9798e-06
-2.11279e-06
-1.99616e-06
-1.90303e-06
-1.96238e-06
-1.67011e-06
-1.87862e-06
-1.42201e-06
-1.74141e-06
-1.1693e-06
-1.553e-06
-9.25865e-07
-1.32081e-06
-7.04377e-07
-1.05938e-06
-5.12178e-07
-7.85801e-07
-3.53653e-07
-5.14842e-07
-2.30974e-07
-2.60812e-07
-1.42688e-07
-3.75142e-08
-8.38994e-08
1.44414e-07
-4.724e-08
2.77851e-07
-2.37315e-08
3.49889e-07
-8.47547e-09
3.4584e-07
1.83485e-07
-1.82129e-08
-2.18366e-07
-6.96543e-08
-1.93428e-07
-1.34925e-07
-8.49145e-08
-2.09206e-07
3.28657e-08
-2.92465e-07
1.54951e-07
-3.85864e-07
2.80385e-07
-4.90609e-07
4.08035e-07
-6.07554e-07
5.36658e-07
-7.36992e-07
6.65307e-07
-8.78625e-07
7.93497e-07
-1.03142e-06
9.20813e-07
-1.19273e-06
1.04551e-06
-1.35825e-06
1.16394e-06
-1.52292e-06
1.27151e-06
-1.68187e-06
1.36385e-06
-1.83119e-06
1.43745e-06
-1.9684e-06
1.49028e-06
-2.09275e-06
1.52267e-06
-2.2046e-06
1.53649e-06
-2.3048e-06
1.53399e-06
-2.39428e-06
1.51753e-06
-2.47377e-06
1.48909e-06
-2.54388e-06
1.45044e-06
-2.60509e-06
1.40309e-06
-2.65788e-06
1.34845e-06
-2.70276e-06
1.28779e-06
-2.74029e-06
1.22232e-06
-2.77111e-06
1.15312e-06
-2.79587e-06
1.08117e-06
-2.81525e-06
1.00731e-06
-2.82992e-06
9.32216e-07
-2.84049e-06
8.56452e-07
-2.84755e-06
7.80432e-07
-2.85163e-06
7.04476e-07
-2.85321e-06
6.28794e-07
-2.85267e-06
5.53507e-07
-2.85029e-06
4.78667e-07
-2.84633e-06
4.04211e-07
-2.84095e-06
3.30046e-07
-2.83431e-06
2.56024e-07
-2.82657e-06
1.81962e-07
-2.81787e-06
1.07643e-07
-2.80833e-06
3.28309e-08
-2.79811e-06
-4.27403e-08
-2.78733e-06
-1.19363e-07
-2.77618e-06
-1.97366e-07
-2.76484e-06
-2.77087e-07
-2.75355e-06
-3.58894e-07
-2.74251e-06
-4.43174e-07
-2.73198e-06
-5.30336e-07
-2.72219e-06
-6.20803e-07
-2.71335e-06
-7.14996e-07
-2.70562e-06
-8.13321e-07
-2.69902e-06
-9.16151e-07
-2.69342e-06
-1.0238e-06
-2.68842e-06
-1.13644e-06
-2.6832e-06
-1.25399e-06
-2.67629e-06
-1.37607e-06
-2.66558e-06
-1.50173e-06
-2.64774e-06
-1.6291e-06
-2.61858e-06
-1.75537e-06
-2.57402e-06
-1.87576e-06
-2.50863e-06
-1.98488e-06
-2.41407e-06
-2.07436e-06
-2.27635e-06
-2.13387e-06
-2.09513e-06
-2.1436e-06
-1.87887e-06
-2.09489e-06
-1.63452e-06
-1.98575e-06
-1.37279e-06
-1.81473e-06
-1.10697e-06
-1.58664e-06
-8.53744e-07
-1.31261e-06
-6.27746e-07
-1.0118e-06
-4.36731e-07
-7.05857e-07
-2.8466e-07
-4.12883e-07
-1.72167e-07
-1.50008e-07
-9.57236e-08
6.79714e-08
-4.7944e-08
2.30071e-07
-1.97082e-08
3.21654e-07
-4.25102e-09
3.30383e-07
1.79234e-07
-3.34532e-08
-1.84913e-07
-1.00484e-07
-1.26396e-07
-1.79461e-07
-5.93743e-09
-2.66364e-07
1.19768e-07
-3.61706e-07
2.50293e-07
-4.66683e-07
3.85362e-07
-5.8234e-07
5.23692e-07
-7.09174e-07
6.63492e-07
-8.47049e-07
8.03182e-07
-9.95157e-07
9.41605e-07
-1.15125e-06
1.07691e-06
-1.31151e-06
1.20577e-06
-1.47126e-06
1.32369e-06
-1.626e-06
1.42625e-06
-1.77191e-06
1.50976e-06
-1.90621e-06
1.57174e-06
-2.02772e-06
1.61179e-06
-2.13665e-06
1.6316e-06
-2.23371e-06
1.63355e-06
-2.31973e-06
1.62001e-06
-2.3954e-06
1.5932e-06
-2.46129e-06
1.55498e-06
-2.51789e-06
1.50704e-06
-2.56574e-06
1.45094e-06
-2.60545e-06
1.38815e-06
-2.63771e-06
1.32006e-06
-2.6633e-06
1.24791e-06
-2.68304e-06
1.17286e-06
-2.69771e-06
1.09584e-06
-2.70808e-06
1.01767e-06
-2.71484e-06
9.38973e-07
-2.7186e-06
8.60212e-07
-2.71989e-06
7.81727e-07
-2.71916e-06
7.03743e-07
-2.71674e-06
6.26381e-07
-2.71292e-06
5.49683e-07
-2.70788e-06
4.73622e-07
-2.70176e-06
3.98096e-07
-2.69469e-06
3.22975e-07
-2.68676e-06
2.48094e-07
-2.67806e-06
1.73262e-07
-2.66868e-06
9.82643e-08
-2.65872e-06
2.28671e-08
-2.64827e-06
-5.31845e-08
-2.63747e-06
-1.30161e-07
-2.62648e-06
-2.08359e-07
-2.61548e-06
-2.88089e-07
-2.60469e-06
-3.69683e-07
-2.59437e-06
-4.53497e-07
-2.58479e-06
-5.3991e-07
-2.57627e-06
-6.29323e-07
-2.56912e-06
-7.22154e-07
-2.5636e-06
-8.18831e-07
-2.55997e-06
-9.19785e-07
-2.55834e-06
-1.02542e-06
-2.5587e-06
-1.13609e-06
-2.56071e-06
-1.25198e-06
-2.56368e-06
-1.3731e-06
-2.56632e-06
-1.49909e-06
-2.56642e-06
-1.629e-06
-2.56071e-06
-1.76108e-06
-2.54424e-06
-1.89222e-06
-2.51141e-06
-2.01771e-06
-2.45596e-06
-2.12981e-06
-2.369e-06
-2.22083e-06
-2.23625e-06
-2.27635e-06
-2.0537e-06
-2.27744e-06
-1.82873e-06
-2.21072e-06
-1.5712e-06
-2.07226e-06
-1.29506e-06
-1.86278e-06
-1.01688e-06
-1.59079e-06
-7.56493e-07
-1.27218e-06
-5.301e-07
-9.3225e-07
-3.45208e-07
-5.97775e-07
-2.04588e-07
-2.90628e-07
-1.06592e-07
-3.00244e-08
-4.51316e-08
1.68611e-07
-1.18005e-08
2.88322e-07
1.88513e-09
3.16698e-07
1.81119e-07
-4.79844e-08
-1.36928e-07
-1.29195e-07
-4.5186e-08
-2.20488e-07
8.53564e-08
-3.1891e-07
2.18189e-07
-4.25005e-07
3.56389e-07
-5.3998e-07
5.00337e-07
-6.6465e-07
6.48361e-07
-7.99158e-07
7.98001e-07
-9.42916e-07
9.4694e-07
-1.09406e-06
1.09275e-06
-1.24932e-06
1.23217e-06
-1.40459e-06
1.36104e-06
-1.55563e-06
1.47473e-06
-1.69871e-06
1.56933e-06
-1.83084e-06
1.64189e-06
-1.95036e-06
1.69127e-06
-2.05716e-06
1.7186e-06
-2.15183e-06
1.72627e-06
-2.23509e-06
1.71681e-06
-2.30763e-06
1.69254e-06
-2.36998e-06
1.65555e-06
-2.42269e-06
1.60769e-06
-2.46638e-06
1.55072e-06
-2.50175e-06
1.48632e-06
-2.52965e-06
1.41605e-06
-2.55099e-06
1.34139e-06
-2.56669e-06
1.26362e-06
-2.57767e-06
1.18383e-06
-2.58475e-06
1.10292e-06
-2.58867e-06
1.02159e-06
-2.59005e-06
9.40359e-07
-2.58942e-06
8.59584e-07
-2.5872e-06
7.795e-07
-2.58369e-06
7.00233e-07
-2.57913e-06
6.21819e-07
-2.57367e-06
5.44229e-07
-2.56743e-06
4.6738e-07
-2.56048e-06
3.91144e-07
-2.55287e-06
3.15363e-07
-2.54463e-06
2.39859e-07
-2.53581e-06
1.64442e-07
-2.52645e-06
8.89023e-08
-2.5166e-06
1.3021e-08
-2.50634e-06
-6.34437e-08
-2.49577e-06
-1.4073e-07
-2.48503e-06
-2.19101e-07
-2.47429e-06
-2.9883e-07
-2.46376e-06
-3.8021e-07
-2.45371e-06
-4.63554e-07
-2.44442e-06
-5.49197e-07
-2.43624e-06
-6.37504e-07
-2.42953e-06
-7.28864e-07
-2.42466e-06
-8.23698e-07
-2.422e-06
-9.22451e-07
-2.42184e-06
-1.02558e-06
-2.42439e-06
-1.13354e-06
-2.42965e-06
-1.24671e-06
-2.43737e-06
-1.36538e-06
-2.44688e-06
-1.48958e-06
-2.45689e-06
-1.61899e-06
-2.46529e-06
-1.75269e-06
-2.46869e-06
-1.88882e-06
-2.46222e-06
-2.02417e-06
-2.43856e-06
-2.15347e-06
-2.39055e-06
-2.26884e-06
-2.30777e-06
-2.35914e-06
-2.17602e-06
-2.40918e-06
-1.98902e-06
-2.39773e-06
-1.75275e-06
-2.30853e-06
-1.48049e-06
-2.13504e-06
-1.18992e-06
-1.88136e-06
-9.01632e-07
-1.56048e-06
-6.38929e-07
-1.19495e-06
-4.18491e-07
-8.18213e-07
-2.46629e-07
-4.62491e-07
-1.23851e-07
-1.52802e-07
-4.57039e-08
9.04639e-08
-5.10482e-09
2.47723e-07
7.41967e-09
3.04173e-07
1.88539e-07
-6.12163e-08
-7.57119e-08
-1.5481e-07
4.84075e-08
-2.57172e-07
1.87719e-07
-3.65633e-07
3.2665e-07
-4.80911e-07
4.71667e-07
-6.04105e-07
6.23531e-07
-7.35785e-07
7.80041e-07
-8.75682e-07
9.37898e-07
-1.02231e-06
1.09357e-06
-1.17295e-06
1.24339e-06
-1.32419e-06
1.38341e-06
-1.47204e-06
1.50888e-06
-1.61284e-06
1.61553e-06
-1.74349e-06
1.69997e-06
-1.86189e-06
1.76029e-06
-1.96747e-06
1.79684e-06
-2.06061e-06
1.81174e-06
-2.14198e-06
1.80765e-06
-2.21223e-06
1.78705e-06
-2.27193e-06
1.75224e-06
-2.32167e-06
1.70529e-06
-2.36213e-06
1.64816e-06
-2.39415e-06
1.58275e-06
-2.41869e-06
1.51085e-06
-2.43677e-06
1.43413e-06
-2.44943e-06
1.35406e-06
-2.45767e-06
1.27186e-06
-2.46237e-06
1.18853e-06
-2.46431e-06
1.10486e-06
-2.46412e-06
1.0214e-06
-2.46231e-06
9.38548e-07
-2.45927e-06
8.56547e-07
-2.45529e-06
7.75525e-07
-2.45058e-06
6.95518e-07
-2.44525e-06
6.16493e-07
-2.43939e-06
5.38363e-07
-2.43301e-06
4.61005e-07
-2.42614e-06
3.84272e-07
-2.41877e-06
3.07995e-07
-2.41089e-06
2.31982e-07
-2.4025e-06
1.56052e-07
-2.39361e-06
8.00096e-08
-2.38424e-06
3.65403e-09
-2.37444e-06
-7.32439e-08
-2.36429e-06
-1.50881e-07
-2.3539e-06
-2.29489e-07
-2.34343e-06
-3.09303e-07
-2.33307e-06
-3.90572e-07
-2.32306e-06
-4.7356e-07
-2.3137e-06
-5.58556e-07
-2.30533e-06
-6.45873e-07
-2.29834e-06
-7.35858e-07
-2.29314e-06
-8.28899e-07
-2.29017e-06
-9.25423e-07
-2.28985e-06
-1.0259e-06
-2.29256e-06
-1.13083e-06
-2.29854e-06
-1.24073e-06