/*--------------------------------*- C++ -*----------------------------------*\
  =========                 |
  \\      /  F ield         | OpenFOAM: The Open Source CFD Toolbox
   \\    /   O peration     | Website:  https://openfoam.org
    \\  /    A nd           | Version:  13
     \\/     M anipulation  |
\*---------------------------------------------------------------------------*/
FoamFile
{
    format      ascii;
    class       volScalarField;
    location    "3";
    object      epsilon;
}
// * * * * * * * * * * * * * * * * * * * * * * * * * * * * * * * * * * * * * //

dimensions      [0 2 -3 0 0 0 0];

internalField   nonuniform List<scalar> 
1600
(
1.92048e-05
8.35273e-05
0.00017733
0.000232759
0.000263472
0.000287346
0.000319399
0.000349872
0.000374032
0.000416827
0.000524297
0.000731294
0.00094839
0.00111294
0.00131985
0.00157375
0.00185278
0.00212393
0.00242157
0.00272347
0.0030589
0.0034175
0.00382563
0.00428835
0.00484719
0.00545288
0.00600741
0.00653066
0.00694804
0.00718974
0.00728226
0.00707886
0.00638757
0.00528518
0.00381014
0.00224395
0.00102891
0.000414728
0.000130917
2.66738e-05
8.93137e-05
9.98323e-05
0.000134977
0.000169355
0.000206946
0.000266123
0.000362969
0.00050877
0.000713041
0.000993828
0.00149582
0.00234555
0.00276478
0.00286825
0.00288466
0.00286775
0.00286768
0.00286569
0.00290337
0.00295969
0.00305986
0.00318689
0.00333141
0.00350503
0.00371398
0.00396355
0.00424162
0.00454765
0.00485574
0.00510131
0.00521461
0.00522725
0.00491122
0.00425443
0.00314167
0.00189282
0.000837563
0.000360648
0.000129722
6.5343e-05
0.000225869
0.000212732
0.000246506
0.000305706
0.000407384
0.000589826
0.000913776
0.00147181
0.00228835
0.00295263
0.00316747
0.00307855
0.00281516
0.00268817
0.00255822
0.00242178
0.0023315
0.0022728
0.0022487
0.0022436
0.00227307
0.0023236
0.00241812
0.00253688
0.00267881
0.00284621
0.00304068
0.00326349
0.00351489
0.00379332
0.00407312
0.00425951
0.00432444
0.00408973
0.00353329
0.00240274
0.000917555
0.000283836
0.000103257
6.23719e-05
0.000458107
0.000385291
0.000451692
0.000589458
0.000844407
0.00130179
0.00202245
0.00281973
0.0031676
0.00319515
0.00295662
0.00265864
0.00231092
0.0020783
0.00191722
0.00183707
0.00179438
0.00177919
0.00177884
0.00181219
0.00186017
0.00192601
0.00200663
0.00210026
0.00220977
0.00233488
0.00247943
0.00264491
0.00283166
0.00303707
0.00325948
0.00348142
0.00370698
0.00383161
0.00381965
0.0034243
0.00177282
0.000391686
9.74472e-05
5.26858e-05
0.000818989
0.000639014
0.000779998
0.00105207
0.00151694
0.00220391
0.0028639
0.00311515
0.00309445
0.0028232
0.00229626
0.00197107
0.00175127
0.00162555
0.0015634
0.00153849
0.00153314
0.00155307
0.00159179
0.0016445
0.0017056
0.00177475
0.0018511
0.00193614
0.0020327
0.00214374
0.00227353
0.00242494
0.00259835
0.00278826
0.00299288
0.00319648
0.00339876
0.00362135
0.00382039
0.00387001
0.00333631
0.00100309
0.000161745
5.92483e-05
0.00136452
0.00100065
0.00122954
0.00163739
0.00221984
0.00278046
0.00299596
0.00298451
0.00264866
0.00207793
0.00174937
0.00154908
0.00144336
0.00139675
0.00138251
0.00138541
0.001418
0.00146038
0.00151343
0.00157155
0.00163489
0.001703
0.0017777
0.0018611
0.00195648
0.00206774
0.00219963
0.00235585
0.00253859
0.00274623
0.00295639
0.00315864
0.00334684
0.00353453
0.00375291
0.0039036
0.00391281
0.00241864
0.000409808
9.50951e-05
0.00205779
0.00145213
0.00174716
0.0022166
0.00269239
0.00288944
0.00288277
0.00255306
0.00198432
0.00160909
0.00141978
0.00132119
0.00128012
0.00126906
0.00127576
0.00130496
0.00134389
0.00138711
0.00143458
0.0014849
0.00153937
0.00159954
0.00166823
0.00174892
0.00184616
0.00196541
0.0021127
0.00229324
0.00250953
0.00275824
0.00303183
0.00330832
0.00351087
0.00365916
0.00377806
0.00393691
0.00401007
0.00356519
0.000945863
0.000184755
0.0028343
0.00194784
0.0022519
0.00265839
0.0028418
0.00282805
0.00254556
0.00198331
0.00155085
0.00133663
0.00123415
0.00119043
0.00117792
0.00117883
0.00119985
0.00122738
0.00125688
0.00128748
0.00131974
0.00135475
0.00139467
0.0014422
0.00150078
0.00157461
0.00166909
0.00179094
0.00194811
0.0021491
0.00240101
0.00270546
0.0030519
0.00342194
0.00378141
0.0039911
0.00409948
0.00415132
0.00417511
0.00395596
0.00188293
0.000377987
0.00357628
0.00242361
0.00267425
0.00286397
0.00286111
0.00262061
0.00208117
0.0015739
0.00130101
0.00117464
0.00111946
0.00109976
0.00109586
0.0011027
0.00111865
0.00113337
0.0011474
0.00116134
0.00117689
0.00119622
0.00122196
0.001257
0.00130469
0.00136923
0.00145615
0.00157285
0.00172898
0.00193638
0.00220781
0.00255346
0.00297372
0.00344721
0.00393768
0.0043206
0.00448935
0.0045437
0.00453675
0.00434705
0.00330388
0.000955579
0.00419926
0.00281636
0.00294546
0.00299413
0.00277643
0.0022814
0.00170452
0.00132309
0.00114671
0.0010681
0.00103565
0.00102439
0.00102182
0.00102367
0.00102626
0.00102671
0.00102572
0.00102525
0.00102749
0.0010349
0.00105011
0.00107546
0.00111372
0.00116858
0.00124516
0.00135081
0.00149597
0.0016949
0.00196554
0.00232727
0.00279444
0.00336317
0.00399097
0.00461689
0.00492205
0.00501593
0.00498182
0.00471601
0.00419432
0.00194047
0.0046493
0.00310085
0.00309408
0.00298841
0.00258819
0.0019672
0.00143467
0.00116473
0.00104269
0.000988655
0.000964967
0.000954099
0.000947214
0.000939914
0.000930183
0.000917813
0.000905059
0.000894635
0.000889748
0.000888951
0.000897123
0.000915838
0.000946773
0.000992943
0.00105875
0.00115094
0.00127978
0.00146046
0.00171427
0.00206845
0.00255191
0.00318325
0.00394708
0.00476097
0.00536417
0.00556645
0.00556599
0.00521548
0.00464539
0.00301495
0.00492469
0.00326874
0.00314316
0.0029306
0.0023648
0.00170266
0.00125943
0.001056
0.000964227
0.000922045
0.0009015
0.000887757
0.000873773
0.000856911
0.000837046
0.000815705
0.000795602
0.000779075
0.000769367
0.000765813
0.000768877
0.000783169
0.000808628
0.000847614
0.000903742
0.000982863
0.00109438
0.00125308
0.00148144
0.00181153
0.00228416
0.00294
0.00379555
0.00480102
0.00575145
0.00615535
0.00619827
0.00580677
0.00530294
0.00404947
0.00499778
0.00333018
0.00311808
0.00280706
0.00214969
0.00150162
0.00113823
0.000974943
0.000900378
0.000864534
0.000843711
0.000825124
0.000803975
0.000779331
0.000752383
0.000725465
0.00070115
0.000681433
0.000669096
0.000664157
0.000664284
0.000675392
0.000696758
0.000730063
0.000778185
0.000846012
0.000941752
0.00107897
0.00127957
0.0015776
0.0020221
0.00267342
0.00358263
0.00474213
0.00601562
0.00676459
0.00691843
0.00645918
0.00573756
0.00497237
0.00495193
0.00331676
0.00304559
0.00265275
0.00196234
0.00135425
0.00104911
0.000910975
0.000846581
0.000814058
0.000791011
0.000767477
0.000740434
0.000710225
0.000678838
0.000648752
0.000622241
0.000600999
0.000586983
0.000580772
0.000579819
0.000588347
0.000606603
0.000635541
0.000677395
0.000736133
0.000818676
0.000936949
0.00111121
0.0013751
0.00178179
0.0024068
0.00333465
0.00460861
0.00613546
0.00734305
0.00769719
0.00723505
0.00638356
0.00590272
0.00482794
0.00326755
0.00292314
0.00249388
0.00180596
0.00124836
0.000980913
0.00085892
0.000801134
0.000769494
0.000743739
0.000716031
0.000684667
0.000650866
0.0006169
0.000585128
0.000557517
0.000535475
0.000520306
0.000513147
0.000511528
0.000518103
0.000533961
0.000559622
0.00059679
0.000648613
0.000720771
0.000823428
0.000974637
0.00120604
0.00157151
0.00215619
0.00307367
0.00442278
0.00617248
0.00787242
0.00851347
0.00805912
0.00701866
0.00678808
0.00459586
0.00316801
0.00278257
0.00234085
0.00168117
0.00117087
0.000927874
0.000816152
0.000762366
0.000730415
0.000702209
0.00067137
0.000637157
0.000601243
0.000565913
0.000533338
0.000505225
0.000482754
0.00046674
0.000458782
0.000456595
0.000461661
0.000475639
0.000498873
0.000532684
0.000579532
0.000643956
0.000734399
0.000866509
0.00106907
0.00139414
0.00193152
0.00281767
0.00420584
0.00614312
0.00831442
0.00935266
0.00903867
0.00773974
0.00769773
0.00429368
0.00304513
0.00263671
0.00220083
0.00158446
0.00111373
0.000886585
0.000780969
0.000729264
0.000696527
0.000666403
0.000633488
0.000597642
0.000560677
0.000524799
0.00049199
0.000463742
0.000441059
0.000424575
0.000415823
0.000413091
0.000416952
0.000429408
0.000450831
0.000482323
0.000525811
0.00058483
0.0006662
0.000783167
0.000961252
0.00124906
0.00173662
0.00257592
0.00397074
0.00605836
0.00863391
0.010192
0.0100834
0.00849329
0.00859158
0.00395525
0.00291721
0.0024954
0.00207711
0.00151136
0.00107277
0.000854868
0.000752187
0.00070111
0.000667454
0.000636021
0.000601985
0.00056546
0.000528243
0.000492427
0.000459823
0.000431759
0.00040911
0.000392417
0.000382949
0.0003797
0.000382586
0.000393759
0.000413777
0.000443702
0.000485112
0.000540681
0.000615728
0.000721203
0.000879314
0.00113433
0.0015733
0.00235656
0.00373043
0.00592876
0.00885764
0.011042
0.0112153
0.00937071
0.00951598
0.00357741
0.00278563
0.00236353
0.00197025
0.00145696
0.00104666
0.000832409
0.000729345
0.000677435
0.000642781
0.000610594
0.000576236
0.000539798
0.000502978
0.000467733
0.000435727
0.000408166
0.000385828
0.000369185
0.000359165
0.000355426
0.000357538
0.00036759
0.000386447
0.000415323
0.000455646
0.000509373
0.000580413
0.000677587
0.000819939
0.00104701
0.00144078
0.00216365
0.00349446
0.00576045
0.00899562
0.0118606
0.0123998
0.0103242
0.010436
0.00320754
0.00266728
0.00224615
0.00188024
0.00141756
0.00103131
0.00081639
0.000711907
0.000657917
0.00062209
0.000589577
0.000555533
0.000519816
0.000483944
0.00044972
0.000418682
0.00039194
0.0003702
0.000353879
0.000343553
0.00033935
0.000340849
0.000349886
0.000367726
0.000395891
0.000435892
0.000489361
0.000558899
0.000650646
0.000780062
0.000983978
0.00133706
0.00199904
0.00327136
0.00556879
0.00906155
0.0126349
0.013664
0.0113992
0.0113847
0.00290734
0.00255824
0.0021452
0.00180655
0.00139182
0.00103151
0.000813091
0.000699689
0.000642516
0.000605153
0.000572482
0.00053919
0.0005047
0.000470244
0.000437439
0.000407706
0.000382083
0.000361205
0.000345433
0.000335101
0.000330509
0.000331774
0.000340062
0.00035716
0.000385043
0.000425386
0.000479495
0.000548961
0.000638133
0.000759086
0.000942093
0.00125944
0.00186218
0.00306478
0.00536326
0.00908384
0.0133546
0.0149873
0.012574
0.0123326
0.00264158
0.00246518
0.00205825
0.00174657
0.00137631
0.0010373
0.000816725
0.000696688
0.000631419
0.000591803
0.000558996
0.000526686
0.000493749
0.000461045
0.000429979
0.000401872
0.000377673
0.000357877
0.000342727
0.000332541
0.000327725
0.000328778
0.000336372
0.000353019
0.000380855
0.00042159
0.000476412
0.000546364
0.000634715
0.00075155
0.000920368
0.00120493
0.00175192
0.00287748
0.00514935
0.00907945
0.0140068
0.016362
0.0138947
0.0133009
0.00239554
0.00237386
0.00199581
0.00170033
0.00137094
0.00105199
0.000827739
0.000699669
0.000627861
0.000582426
0.000548561
0.000517245
0.000486094
0.00045547
0.000426589
0.000400543
0.000377732
0.000358658
0.000343997
0.000334122
0.000329526
0.000330508
0.000337342
0.000353387
0.000381475
0.000423369
0.000480223
0.000552233
0.000640775
0.000753298
0.000912749
0.00117
0.00166608
0.00270947
0.00492451
0.00902413
0.0145725
0.0177676
0.015356
0.014266
0.00216162
0.00228803
0.00194859
0.00166656
0.00137352
0.00107749
0.000850882
0.000709798
0.000630287
0.000580548
0.000543254
0.000511475
0.000481836
0.000453521
0.000426717
0.000401846
0.000380099
0.000362174
0.000348408
0.000339128
0.000335018
0.000336199
0.000342906
0.000359018
0.000388104
0.000431854
0.000491379
0.000566249
0.000656425
0.000766879
0.000915989
0.00115343
0.00160151
0.00256194
0.00469263
0.00891496
0.0150657
0.0191757
0.0169861
0.015239
0.00193585
0.00220591
0.00191031
0.00164261
0.00138088
0.00111083
0.000885884
0.000731967
0.000639538
0.000583516
0.000543896
0.000511405
0.00048202
0.00045447
0.000428762
0.000405593
0.000385542
0.000368901
0.000355931
0.00034713
0.000343574
0.000345095
0.00035219
0.000369079
0.00039979
0.000445895
0.000508426
0.000586499
0.000679011
0.000788922
0.000931027
0.00114882
0.00155374
0.0024324
0.00445774
0.00874184
0.0154726
0.0205999
0.0187517
0.0162007
0.00171775
0.00212179
0.00187652
0.00162563
0.00139333
0.00115061
0.000932324
0.000768827
0.00066075
0.000593831
0.000549043
0.000514469
0.000484792
0.000457951
0.000433678
0.000412178
0.000393473
0.000377873
0.000365688
0.000357461
0.000354834
0.000356927
0.000364954
0.000383461
0.00041638
0.000465169
0.000530729
0.000611879
0.000706833
0.000817007
0.000953875
0.00115394
0.00151994
0.00231856
0.0042213
0.00849922
0.0157451
0.0220072
0.0206674
0.017152
0.00150934
0.00202894
0.00184092
0.00161233
0.00140715
0.001194
0.00098894
0.000820743
0.000699356
0.000617379
0.000563202
0.00052409
0.000492657
0.00046573
0.000442313
0.000421753
0.000404045
0.000389348
0.000377941
0.000370493
0.000369217
0.000372145
0.000381677
0.000402673
0.000438178
0.000489638
0.000557772
0.000641295
0.00073821
0.000848992
0.000982382
0.00116868
0.00149816
0.00221846
0.00398315
0.00818844
0.0158633
0.0233638
0.0227117
0.0180763
0.00131542
0.00192115
0.0017984
0.00159683
0.00141955
0.00123708
0.00105258
0.000887449
0.00075668
0.000661204
0.000593736
0.000545666
0.000509649
0.000480883
0.000456715
0.000436162
0.00041885
0.000404765
0.000394069
0.000387803
0.000387945
0.000392114
0.000403752
0.000427822
0.000465761
0.000519299
0.000588944
0.000673547
0.00077141
0.000882725
0.00101408
0.00118979
0.00148789
0.00213136
0.00374403
0.00780878
0.0158769
0.0246271
0.0248699
0.0189706
0.00114241
0.00179339
0.00173811
0.00157843
0.00142697
0.001276
0.0011186
0.000966113
0.000833537
0.000727834
0.000647791
0.000588388
0.000543873
0.000509548
0.00048215
0.000459885
0.000441841
0.000427724
0.000417403
0.000412536
0.000413692
0.000419542
0.000433653
0.000460071
0.000499667
0.000553988
0.00062345
0.000707373
0.000804854
0.000916428
0.00104716
0.0012156
0.00148562
0.00205681
0.003509
0.00736026
0.0156121
0.0257068
0.0270907
0.0198227
0.000996601
0.00164412
0.00165262
0.00155263
0.00142702
0.00130917
0.00118232
0.00105147
0.000927108
0.000818493
0.000729287
0.000658679
0.000603699
0.000560931
0.000527398
0.00050097
0.000480299
0.000464776
0.000453859
0.000449438
0.000451177
0.000458062
0.000473629
0.000500811
0.000540271
0.000593278
0.000660418
0.000741787
0.000837634
0.000949319
0.00108112
0.00124622
0.00149319
0.00199944
0.00328813
0.00686728
0.0151273
0.0265298
0.0293475
0.0206322
0.000881735
0.00147262
0.00155679
0.00150641
0.00141952
0.00133359
0.00123983
0.00113714
0.00103132
0.000929851
0.000838826
0.000761033
0.000696676
0.000644495
0.000602683
0.000569543
0.000543726
0.000524429
0.000510918
0.000504124
0.000505206
0.000511213
0.000525406
0.00055076
0.00058744
0.000636688
0.000699524
0.000776992
0.000870598
0.000982822
0.00111771
0.00128459
0.0015181
0.00197413
0.00309602
0.00635592
0.0144724
0.027106
0.0315229
0.021392
0.0007975
0.00129194
0.00144359
0.0014346
0.00139753
0.00134486
0.00128797
0.00121896
0.00113935
0.00105488
0.000971299
0.000893423
0.000824032
0.000764212
0.000713897
0.000672445
0.000639035
0.000613005
0.000593826
0.000581249
0.000577309
0.000580258
0.000589858
0.000609907
0.000641305
0.00068507
0.0007428
0.000816429
0.000908569
0.00102283
0.00116391
0.001339
0.00157059
0.00197941
0.0029807
0.00586594
0.013642
0.0274504
0.0335201
0.0221167
0.00073769
0.00111161
0.00130475
0.00134651
0.00135318
0.00134452
0.00132735
0.00129539
0.00124753
0.00118673
0.00111876
0.00104839
0.000979915
0.000916193
0.000858886
0.000808729
0.000765885
0.000730289
0.000701869
0.000680623
0.000667057
0.000663416
0.000667659
0.000680242
0.000705585
0.000744579
0.000798993
0.000871415
0.000965326
0.00108556
0.00123807
0.00143037
0.00167646
0.00206353
0.00296038
0.0055939
0.0128545
0.0276203
0.0351569
0.0228167
0.000707999
0.000945994
0.0011454
0.00123866
0.00129687
0.00133705
0.00135925
0.00136339
0.00135098
0.00132133
0.00127397
0.00121651
0.00115372
0.00108959
0.00102723
0.000968858
0.000915951
0.000869485
0.00083034
0.00079926
0.000777142
0.00076507
0.00076662
0.000775782
0.000797657
0.000837438
0.000894916
0.000973405
0.0010773
0.00121303
0.00138829
0.0016145
0.00190261
0.00231276
0.00317325
0.00555977
0.0125043
0.0277259
0.0361833
0.023571
0.000731138
0.000793595
0.000979269
0.00111681
0.00122951
0.00133155
0.00139904
0.00144105
0.00145944
0.00145368
0.00143257
0.00139085
0.00133615
0.00127459
0.00121055
0.00114769
0.00108887
0.00103613
0.00099211
0.000958589
0.000936687
0.000927766
0.000932355
0.000948326
0.000982021
0.00103583
0.00111143
0.00121406
0.00134886
0.00152487
0.00175213
0.00205329
0.00244027
0.00298008
0.0039286
0.00627515
0.0127394
0.0282171
0.0366605
0.0243455
0.000808876
0.000663782
0.000815053
0.00101317
0.00120766
0.00136254
0.00148425
0.00157069
0.00162408
0.00164675
0.00164409
0.00162622
0.00158876
0.00154085
0.00148903
0.00143746
0.00138977
0.00134915
0.00131873
0.00129951
0.00130015
0.00131211
0.00134308
0.00139936
0.00148029
0.00158976
0.00173309
0.00191541
0.00214413
0.00243555
0.00280479
0.00330263
0.0039277
0.00484517
0.00613109
0.00884583
0.0151115
0.0299454
0.0368709
0.0246923
0.000947472
0.000633169
0.000818446
0.00107617
0.00133812
0.00157558
0.00178238
0.00194689
0.0020689
0.00215269
0.00220316
0.00223319
0.00224498
0.00224629
0.00224479
0.00224579
0.00225403
0.00227533
0.00231775
0.00238088
0.00247514
0.00260041
0.0027632
0.00296829
0.00322646
0.00354029
0.00392242
0.00438227
0.00493091
0.00560585
0.00639129
0.00739902
0.00856365
0.010309
0.0123413
0.0159283
0.0217592
0.0342366
0.037487
0.0248218
0.00128356
0.000779674
0.00119544
0.00174699
0.00228649
0.00279083
0.00324938
0.00365015
0.00399378
0.0042858
0.00453776
0.00476196
0.00497371
0.00518136
0.0054007
0.00563681
0.0059076
0.00621481
0.0065806
0.00699987
0.00749901
0.00806903
0.00874215
0.00950135
0.0103876
0.0113786
0.0125209
0.0137928
0.0152343
0.0168596
0.0186463
0.0207803
0.0229174
0.0260751
0.0292969
0.0341113
0.0382864
0.0431294
0.0401426
0.0242291
0.00211682
0.00174729
0.00385883
0.00624379
0.00823868
0.00996944
0.0115167
0.0128966
0.0141362
0.0152446
0.016274
0.0172367
0.0181973
0.0191518
0.0201709
0.0212297
0.0224085
0.0236582
0.0250732
0.0265769
0.0282843
0.0300883
0.0321264
0.0342602
0.0366468
0.0391151
0.0418407
0.0446218
0.0476509
0.0506888
0.0539583
0.0571539
0.0607375
0.0638585
0.0664826
0.0656777
0.0617705
0.0517908
0.0420428
0.0221568
0.00142611
0.00249673
0.00390693
0.00546372
0.00695023
0.00828856
0.00948225
0.0105403
0.0114762
0.0122973
0.0130125
0.0136338
0.0141698
0.014637
0.0150429
0.0154123
0.0157389
0.0160583
0.0163481
0.0166592
0.0169483
0.0172857
0.0176041
0.0179958
0.0183697
0.018836
0.019288
0.0198392
0.0203861
0.0210119
0.0216492
0.0222922
0.0229647
0.0235636
0.0242828
0.0249573
0.0253967
0.0251435
0.0240306
0.0198565
)
;

boundaryField
{
    movingWall
    {
        type            epsilonWallFunction;
        value           nonuniform List<scalar> 
40
(
0.00142611
0.00249673
0.00390693
0.00546372
0.00695023
0.00828856
0.00948225
0.0105403
0.0114762
0.0122973
0.0130125
0.0136338
0.0141698
0.014637
0.0150429
0.0154123
0.0157389
0.0160583
0.0163481
0.0166592
0.0169483
0.0172857
0.0176041
0.0179958
0.0183697
0.018836
0.019288
0.0198392
0.0203861
0.0210119
0.0216492
0.0222922
0.0229647
0.0235636
0.0242828
0.0249573
0.0253967
0.0251435
0.0240306
0.0198565
)
;
    }
    fixedWalls
    {
        type            epsilonWallFunction;
        value           nonuniform List<scalar> 
120
(
1.92048e-05
8.93137e-05
0.000225869
0.000458107
0.000818989
0.00136452
0.00205779
0.0028343
0.00357628
0.00419926
0.0046493
0.00492469
0.00499778
0.00495193
0.00482794
0.00459586
0.00429368
0.00395525
0.00357741
0.00320754
0.00290734
0.00264158
0.00239554
0.00216162
0.00193585
0.00171775
0.00150934
0.00131542
0.00114241
0.000996601
0.000881735
0.0007975
0.00073769
0.000707999
0.000731138
0.000808876
0.000947472
0.00128356
0.00211682
0.00142611
2.66738e-05
6.5343e-05
6.23719e-05
5.26858e-05
5.92483e-05
9.50951e-05
0.000184755
0.000377987
0.000955579
0.00194047
0.00301495
0.00404947
0.00497237
0.00590272
0.00678808
0.00769773
0.00859158
0.00951598
0.010436
0.0113847
0.0123326
0.0133009
0.014266
0.015239
0.0162007
0.017152
0.0180763
0.0189706
0.0198227
0.0206322
0.021392
0.0221167
0.0228167
0.023571
0.0243455
0.0246923
0.0248218
0.0242291
0.0221568
0.0198565
1.92048e-05
8.35273e-05
0.00017733
0.000232759
0.000263472
0.000287346
0.000319399
0.000349872
0.000374032
0.000416827
0.000524297
0.000731294
0.00094839
0.00111294
0.00131985
0.00157375
0.00185278
0.00212393
0.00242157
0.00272347
0.0030589
0.0034175
0.00382563
0.00428835
0.00484719
0.00545288
0.00600741
0.00653066
0.00694804
0.00718974
0.00728226
0.00707886
0.00638757
0.00528518
0.00381014
0.00224395
0.00102891
0.000414728
0.000130917
2.66738e-05
)
;
    }
    frontAndBack
    {
        type            empty;
    }
}


// ************************************************************************* //
