/*--------------------------------*- C++ -*----------------------------------*\
  =========                 |
  \\      /  F ield         | OpenFOAM: The Open Source CFD Toolbox
   \\    /   O peration     | Website:  https://openfoam.org
    \\  /    A nd           | Version:  13
     \\/     M anipulation  |
\*---------------------------------------------------------------------------*/
FoamFile
{
    format      ascii;
    class       volScalarField;
    location    "3";
    object      k;
}
// * * * * * * * * * * * * * * * * * * * * * * * * * * * * * * * * * * * * * //

dimensions      [0 2 -2 0 0 0 0];

internalField   nonuniform List<scalar> 
1600
(
1.5008e-06
6.52374e-06
1.38481e-05
1.81589e-05
2.0531e-05
2.23775e-05
2.48782e-05
2.72694e-05
2.91953e-05
3.25767e-05
4.10306e-05
5.72171e-05
7.41439e-05
8.69785e-05
0.000103137
0.000122962
0.000144743
0.000165923
0.000189171
0.00021276
0.00023897
0.000266993
0.00029889
0.000335054
0.000378732
0.000426067
0.000469405
0.000510283
0.000542906
0.000561786
0.000569013
0.00055309
0.000499044
0.000412851
0.000297584
0.000175233
8.03517e-05
3.23909e-05
1.0228e-05
2.08491e-06
6.97713e-06
4.45313e-05
8.90114e-05
0.000114598
0.000131947
0.000149023
0.000168856
0.000189815
0.000211002
0.000241458
0.000307782
0.000410928
0.000490385
0.000526287
0.000560527
0.000595457
0.000639467
0.000675725
0.000720004
0.000761767
0.000809716
0.000858085
0.000909939
0.000960854
0.00101002
0.00105904
0.00111225
0.00116434
0.00121054
0.0012335
0.00124073
0.0012014
0.00110528
0.0009485
0.000713928
0.000460732
0.000220913
9.4274e-05
3.40441e-05
5.10308e-06
1.76498e-05
0.000101927
0.000176562
0.000222322
0.000264481
0.000319445
0.000397363
0.000498499
0.000615407
0.000705062
0.000735272
0.000728887
0.000708408
0.000702444
0.00072149
0.000745528
0.0007707
0.000798151
0.00082888
0.000860513
0.000894624
0.000928975
0.00096479
0.0010013
0.00103865
0.00107737
0.00111652
0.0011538
0.00118681
0.00120667
0.00121394
0.00119751
0.00112291
0.000999315
0.000793318
0.000532739
0.000232908
9.27513e-05
3.48732e-05
4.86586e-06
3.58226e-05
0.0001856
0.000290124
0.000361178
0.000438918
0.000544822
0.000678396
0.000795414
0.000840952
0.000832502
0.000778515
0.000754743
0.000746269
0.0007466
0.000767982
0.000785124
0.000809964
0.000835007
0.000861834
0.000888139
0.000915323
0.000941797
0.000968179
0.00099392
0.00102019
0.00104626
0.00107179
0.00109556
0.00111602
0.00112838
0.00113318
0.00112593
0.00108853
0.00101823
0.000898965
0.000683424
0.000328594
0.000100593
3.14647e-05
4.10537e-06
6.40794e-05
0.00029982
0.0004368
0.000535079
0.000644264
0.000774076
0.000873283
0.000905028
0.000866429
0.000812019
0.000770764
0.000756405
0.000754196
0.000766565
0.000788492
0.000810624
0.000838053
0.000864596
0.000892561
0.000919399
0.0009455
0.00096969
0.000992632
0.00101451
0.00103523
0.00105544
0.00107514
0.00109398
0.00111121
0.0011207
0.00112416
0.0011187
0.00109068
0.00104714
0.000975631
0.000847834
0.000580403
0.000182445
3.92886e-05
4.61829e-06
0.00010679
0.000437319
0.000606038
0.000719968
0.000830962
0.000913108
0.00093841
0.000897847
0.000833072
0.000779059
0.000758889
0.000754513
0.0007621
0.000784899
0.000810718
0.000839239
0.000869807
0.000899732
0.000929163
0.000956691
0.000982683
0.00100682
0.00102993
0.00105257
0.00107566
0.00110039
0.00112747
0.00115616
0.00118308
0.00120167
0.00120898
0.0012096
0.00118439
0.00112517
0.00103595
0.000921644
0.000745286
0.000341617
7.08916e-05
7.41886e-06
0.000161112
0.000586221
0.000777369
0.000884536
0.000949711
0.000970245
0.00092959
0.000857055
0.000787152
0.00075908
0.000751667
0.000756364
0.000776818
0.000805223
0.000834858
0.000865845
0.000896289
0.000925098
0.000952069
0.000976963
0.0010003
0.00102242
0.00104402
0.00106584
0.00108949
0.0011165
0.00114833
0.00118638
0.00123012
0.00127506
0.00130285
0.00131109
0.00130838
0.0012676
0.00117456
0.00102442
0.000827995
0.000552843
0.000132053
1.44231e-05
0.000221952
0.000735415
0.000928299
0.00099767
0.00101229
0.00096911
0.000893408
0.000802584
0.000761523
0.000748401
0.000747607
0.000764081
0.000793018
0.000822317
0.000851759
0.000880088
0.000906092
0.000930266
0.000952695
0.000973864
0.000993554
0.00101255
0.00103204
0.00105347
0.00107837
0.00110834
0.00114502
0.00118954
0.00124243
0.00130345
0.0013687
0.00140709
0.00141599
0.00140337
0.00133711
0.00119558
0.00096859
0.000652729
0.000209398
2.95175e-05
0.000280022
0.000864818
0.00104335
0.00107935
0.00104153
0.000949007
0.000837976
0.000771723
0.000746532
0.000741052
0.000749735
0.000775104
0.000803599
0.000830557
0.000856043
0.000879874
0.000902161
0.000921571
0.000938564
0.000953464
0.000967984
0.000983452
0.00100091
0.00102154
0.00104656
0.00107788
0.00111775
0.00116846
0.00123154
0.00130623
0.00138858
0.00147451
0.00151689
0.00152474
0.00149044
0.00137059
0.00115141
0.00083482
0.000360852
7.46496e-05
0.000328757
0.000963102
0.00112057
0.00112904
0.00103556
0.000907258
0.000800184
0.00075284
0.000738004
0.000737184
0.000754507
0.000780881
0.000806099
0.000829973
0.000852293
0.000871215
0.000886102
0.000897896
0.00090855
0.000919378
0.000931272
0.000944951
0.000961203
0.000980946
0.00100543
0.00103651
0.00107676
0.00112935
0.00119759
0.00128356
0.00138582
0.00149598
0.00159497
0.00163214
0.00163273
0.00154441
0.00132737
0.000983041
0.00052638
0.000151629
0.000363904
0.00103043
0.00117244
0.00115552
0.00101809
0.000867132
0.000776433
0.000740399
0.000731139
0.000735356
0.000756321
0.000780726
0.000803869
0.000823961
0.000839656
0.000850588
0.000858722
0.000865954
0.000873161
0.000881466
0.000891567
0.000904087
0.000919603
0.000938794
0.000962676
0.000992872
0.00103188
0.00108327
0.00115155
0.00124129
0.00135494
0.00148897
0.00162846
0.00173068
0.00175641
0.00171643
0.00152648
0.00116828
0.000642581
0.000235602
0.000385407
0.00106936
0.00120002
0.00115408
0.000992052
0.000834884
0.000759039
0.000730906
0.000724998
0.000733696
0.000755368
0.000777706
0.00079639
0.000809701
0.000818438
0.000824162
0.000828129
0.000831873
0.00083642
0.000842773
0.000851569
0.000863302
0.000878435
0.000897447
0.000921085
0.00095064
0.000988308
0.00103758
0.0011035
0.00119242
0.00131043
0.00145962
0.0016318
0.00179436
0.00186672
0.00186813
0.00171047
0.00134743
0.000800617
0.000316446
0.000391052
0.00108071
0.00120281
0.00114506
0.000962801
0.000812162
0.000745653
0.000722889
0.00071939
0.000731143
0.000751838
0.000769881
0.000782658
0.000790698
0.00079456
0.00079615
0.00079675
0.0007976
0.000799778
0.000804281
0.000811805
0.000822764
0.000837591
0.000856647
0.000880459
0.000909985
0.000946996
0.000994573
0.00105767
0.00114343
0.00126056
0.00141626
0.00160926
0.00181909
0.00197017
0.00200737
0.00189734
0.0015303
0.000923408
0.000388558
0.000387452
0.00107615
0.0011948
0.0011258
0.000936106
0.000794722
0.000734581
0.000715483
0.000713674
0.000726539
0.000744513
0.000758463
0.000766504
0.0007697
0.000770097
0.000768266
0.000765655
0.000764061
0.0007638
0.000766193
0.000772154
0.000782102
0.000796485
0.000815642
0.000839956
0.000870095
0.000907377
0.000954315
0.00101535
0.00109769
0.00121157
0.00136861
0.00157555
0.00182216
0.0020471
0.00213177
0.00207414
0.00171488
0.00106764
0.000461253
0.000377733
0.00106187
0.00117511
0.00110056
0.000913346
0.000780489
0.000724943
0.000708293
0.000707561
0.000720183
0.000735286
0.000745094
0.000748929
0.000749261
0.000746296
0.000741303
0.000735765
0.000731112
0.000728889
0.000728819
0.000732789
0.000741364
0.000755045
0.000774232
0.00079925
0.000830536
0.00086897
0.000916428
0.000976619
0.0010562
0.00116588
0.00132008
0.00153201
0.00180031
0.00208926
0.00224451
0.00224179
0.00189733
0.00119891
0.000530426
0.000359556
0.0010339
0.0011447
0.00107268
0.000894289
0.000768814
0.000716291
0.000701109
0.000700947
0.000712491
0.000724817
0.000730832
0.000732113
0.000729579
0.000723664
0.000715829
0.000707504
0.000700019
0.000694913
0.000692926
0.000694472
0.000701293
0.000713964
0.000733014
0.000758806
0.000791618
0.000831927
0.000880952
0.000941557
0.00101956
0.00112542
0.00127532
0.00148833
0.00177357
0.00210417
0.00234838
0.00239382
0.00208031
0.00134117
0.000601499
0.000335935
0.000999622
0.0011095
0.00104415
0.000878627
0.000759292
0.000708447
0.000693882
0.000693913
0.000704056
0.000713386
0.000716823
0.000716139
0.000711051
0.000702651
0.000692329
0.000681472
0.000671395
0.000663352
0.000659141
0.000658462
0.000663224
0.00067458
0.000693255
0.00071975
0.000754284
0.000796982
0.000848409
0.000910511
0.000988059
0.00109074
0.0012353
0.00144513
0.00173982
0.00210646
0.0024315
0.00253543
0.00225869
0.00147768
0.000671331
0.000309428
0.000961766
0.00107214
0.00101639
0.000866199
0.000751994
0.000701415
0.00068659
0.000686427
0.000694878
0.00070173
0.000703563
0.000700999
0.000693945
0.000683577
0.000671236
0.000658261
0.000645942
0.000635524
0.000628693
0.000626185
0.00062879
0.0006386
0.000656619
0.000683612
0.000719865
0.000765239
0.000819658
0.00088412
0.000962192
0.0010625
0.00120151
0.00140532
0.00170266
0.00209517
0.00249464
0.00266407
0.00243696
0.00162461
0.000743551
0.000279911
0.00092329
0.00103438
0.000989984
0.000856509
0.000746624
0.000695251
0.00067929
0.000678517
0.000685196
0.000690183
0.000690848
0.000686835
0.000678399
0.000666652
0.000652879
0.000638373
0.00062439
0.000612167
0.000603091
0.000598862
0.000599532
0.00060771
0.000624811
0.000652006
0.000689797
0.000737901
0.000795646
0.000863115
0.000942463
0.00104112
0.00117472
0.00137069
0.00166545
0.00207605
0.0025387
0.00278168
0.00261015
0.00177075
0.000815424
0.000250928
0.000882839
0.000998486
0.000965811
0.000849029
0.000744221
0.000690293
0.000672064
0.000670219
0.000675165
0.000678817
0.000678577
0.000673651
0.00066443
0.000651941
0.000637403
0.000622052
0.000607098
0.000593741
0.000583215
0.000577339
0.000576545
0.000583164
0.000599175
0.000626273
0.000665315
0.000716022
0.000777144
0.000848085
0.000929865
0.00102751
0.00115523
0.00134217
0.00163007
0.00205256
0.00256325
0.00288951
0.00278199
0.00192586
0.000889538
0.000227424
0.000839039
0.000962857
0.000943655
0.000843884
0.000744665
0.000687472
0.000665693
0.000661817
0.000664911
0.000667588
0.000666689
0.000661371
0.000651942
0.000639342
0.000624708
0.000609206
0.000593988
0.000580199
0.000569035
0.000561975
0.000560146
0.000565454
0.000580351
0.000607176
0.000647197
0.000700373
0.000765286
0.000840045
0.000924179
0.0010214
0.00114382
0.00132007
0.00159699
0.00202326
0.00257382
0.00298881
0.00294956
0.0020839
0.000963582
0.000206628
0.000793948
0.000928169
0.000921952
0.000841416
0.00074697
0.000687696
0.000660582
0.000653804
0.000654824
0.000656388
0.0006551
0.000649926
0.000640752
0.000628595
0.00061446
0.000599424
0.000584567
0.000570975
0.000559796
0.000552343
0.000550057
0.000554442
0.000568367
0.000595212
0.000636329
0.000691907
0.000760045
0.000837354
0.000923046
0.00102015
0.00113929
0.00130423
0.00156751
0.00199109
0.00257559
0.00308034
0.00311431
0.00225034
0.00103922
0.000187392
0.000748881
0.000894423
0.00090135
0.000840703
0.000752368
0.000689979
0.000658589
0.000646969
0.000645349
0.000645529
0.000643964
0.000639125
0.000630601
0.000619318
0.000606148
0.000592071
0.000578083
0.000565191
0.000554482
0.000547255
0.000545186
0.000549225
0.000562586
0.000589679
0.000631822
0.000688924
0.00075928
0.000839966
0.000928264
0.0010251
0.0011392
0.00129431
0.00154157
0.00195586
0.00256418
0.00315884
0.00327465
0.0024222
0.00111459
0.000169114
0.000704228
0.000861341
0.000882363
0.000840389
0.000760432
0.000695804
0.00065968
0.000642703
0.000637145
0.000635569
0.000633426
0.000628839
0.000621219
0.0006111
0.000599234
0.000586476
0.000573715
0.000561875
0.000551998
0.000545387
0.000543885
0.000547876
0.000561019
0.00058839
0.000631469
0.000690829
0.000764471
0.000848468
0.000939071
0.00103575
0.00114538
0.00128984
0.00151891
0.00191863
0.00254313
0.00322114
0.00343005
0.0026018
0.00119058
0.000151477
0.000659983
0.000828604
0.000864291
0.000838884
0.000772279
0.000707011
0.000664264
0.000643025
0.000632255
0.000627345
0.000623949
0.000619358
0.000612578
0.000603721
0.000593321
0.000582077
0.000570767
0.00056023
0.000551477
0.000545805
0.000545255
0.000549686
0.000563438
0.00059201
0.000636805
0.00069838
0.000774678
0.000861358
0.00095382
0.00105016
0.00115529
0.00128859
0.00149835
0.00187882
0.00251252
0.00326561
0.00357813
0.00278807
0.00126569
0.000134438
0.000616072
0.000795754
0.000846406
0.00083508
0.000786363
0.000723209
0.000674872
0.000646913
0.000632654
0.000623976
0.000617643
0.000611975
0.000605435
0.000597574
0.000588554
0.000578846
0.000569082
0.000559978
0.000552357
0.000548069
0.00054864
0.000554283
0.000569656
0.000600134
0.000646809
0.000710369
0.000788707
0.000877299
0.000970971
0.00106663
0.00116718
0.00128901
0.00147863
0.00183535
0.00247055
0.00328706
0.00371667
0.00298139
0.00133997
0.000118146
0.000572427
0.000762289
0.000827911
0.000828593
0.000800056
0.000743731
0.000693441
0.000657479
0.000637297
0.000625545
0.000617397
0.00060997
0.000602587
0.000594804
0.000586523
0.000577907
0.000569236
0.000561099
0.000554816
0.000552406
0.000554162
0.000561645
0.000579603
0.00061231
0.00066091
0.000725968
0.000805418
0.000894817
0.000988749
0.00108317
0.00117911
0.00128963
0.00145842
0.00178709
0.00241539
0.00329346
0.00384237
0.00317954
0.00141214
0.000102972
0.000529266
0.000727746
0.000806993
0.000822438
0.000808468
0.000767989
0.00071934
0.000679201
0.000650371
0.000633059
0.000621423
0.000612346
0.000604084
0.00059594
0.00058769
0.000579413
0.000571449
0.000564472
0.00055983
0.000559535
0.000562698
0.000572553
0.000593754
0.000628668
0.000678747
0.000744354
0.000823557
0.000912278
0.00100521
0.00109768
0.0011886
0.00128849
0.00143626
0.00173292
0.0023415
0.00327367
0.00394962
0.00338078
0.00148196
8.94165e-05
0.000487215
0.000692149
0.000783448
0.000815427
0.000812654
0.00079186
0.000751129
0.000711082
0.000677709
0.000652158
0.000634708
0.000621984
0.000611512
0.000602164
0.000593448
0.000585293
0.000578003
0.000572177
0.00056972
0.000570896
0.000576165
0.000588912
0.000612892
0.000649387
0.000699899
0.000764564
0.000841719
0.00092793
0.00101833
0.00110718
0.00119293
0.00128348
0.00141087
0.001673
0.00224914
0.00321982
0.00403308
0.00358021
0.00154848
7.79803e-05
0.000447495
0.000656631
0.000757365
0.000804862
0.000816839
0.000809476
0.000786165
0.000751443
0.000718057
0.000689031
0.000664965
0.000645998
0.00063118
0.000619181
0.000608967
0.000600234
0.000593169
0.000588306
0.000587869
0.000590184
0.000597265
0.000612496
0.000637851
0.000674563
0.000723739
0.000785437
0.000858404
0.00094007
0.00102527
0.00111073
0.00119256
0.00127327
0.00138061
0.00160685
0.00214038
0.00313091
0.00408501
0.00377602
0.00161166
6.89693e-05
0.000411671
0.00062124
0.000729492
0.000790651
0.000818922
0.000825246
0.000817541
0.000797448
0.000769315
0.000741066
0.000714998
0.000692206
0.000672738
0.000656384
0.000642969
0.000632252
0.000624225
0.000618809
0.000618645
0.000621291
0.000628845
0.000644476
0.000669126
0.00070379
0.000749266
0.000805663
0.000872201
0.000946735
0.00102674
0.00110755
0.00118406
0.00125601
0.00134456
0.0015355
0.00201925
0.00301381
0.00410858
0.00395689
0.00167096
6.23686e-05
0.000381447
0.000586405
0.000700894
0.00077393
0.000818739
0.000842109
0.000848303
0.000842671
0.000827788
0.000805355
0.000781279
0.000757684
0.000735823
0.000716324
0.000699534
0.000685633
0.000674833
0.000667181
0.000664537
0.000666178
0.000672053
0.000684878
0.000706072
0.000735979
0.000775243
0.000824117
0.000882311
0.000948597
0.00102108
0.00109568
0.00116705
0.00123191
0.00130425
0.00146133
0.00189143
0.0028685
0.00411483
0.00411637
0.00172752
5.76917e-05
0.000356166
0.000551638
0.000671385
0.000756327
0.000817366
0.000857811
0.000881378
0.000890335
0.000887453
0.000877746
0.000860081
0.000839301
0.000817591
0.000796426
0.000776786
0.000759336
0.000744614
0.000733008
0.000725337
0.000722957
0.0007251
0.000732205
0.000747025
0.000769816
0.000800922
0.000840731
0.000889297
0.000946081
0.00100956
0.00107709
0.00114371
0.0012042
0.00126722
0.0014011
0.00177811
0.00271101
0.00409642
0.00421962
0.00178214
5.53815e-05
0.000339166
0.000518577
0.000642309
0.000738978
0.000818788
0.000876135
0.000917475
0.000943423
0.00095521
0.000954583
0.00094799
0.000933354
0.000913736
0.000892056
0.000869853
0.000848332
0.000828484
0.000811112
0.000797092
0.000787385
0.000783085
0.000784742
0.000791384
0.000805676
0.000828127
0.000858715
0.000897637
0.000945028
0.00100081
0.00106308
0.00112778
0.00118915
0.00125141
0.00137722
0.00172922
0.0026133
0.00406967
0.00426232
0.00184101
5.7217e-05
0.000319522
0.000484827
0.000615445
0.000732163
0.000827876
0.000905144
0.00096518
0.00100785
0.0010341
0.00104485
0.001043
0.00103462
0.00101742
0.000994831
0.00096954
0.000943389
0.000917905
0.000894332
0.000873942
0.000857773
0.000846736
0.000842499
0.000844572
0.000851795
0.000867093
0.000890738
0.00092257
0.000963056
0.00101275
0.0010715
0.00113833
0.0012093
0.00128789
0.0014182
0.00174795
0.00258511
0.00405873
0.0042634
0.00190135
6.33353e-05
0.000312934
0.000468238
0.000612219
0.000742048
0.000854452
0.000949509
0.00102557
0.00108154
0.00111821
0.00113742
0.00113913
0.00113317
0.00111834
0.00109566
0.00106916
0.00104101
0.00101312
0.000987062
0.000964865
0.000947593
0.000936107
0.000931504
0.000933598
0.000940989
0.000956678
0.000981455
0.00101538
0.00105948
0.0011155
0.00118545
0.00127327
0.00137729
0.00151038
0.00168389
0.00203692
0.00278467
0.00410602
0.00418402
0.00192832
7.42217e-05
0.000323863
0.000483261
0.000640203
0.000789114
0.000921625
0.00103323
0.00111994
0.00118405
0.00122756
0.00125317
0.00126206
0.00126012
0.00125249
0.00123719
0.00121825
0.00119832
0.0011794
0.00116349
0.0011516
0.00114558
0.00114723
0.00115454
0.00117102
0.00119833
0.00123597
0.00128575
0.00134901
0.00142747
0.0015251
0.00164137
0.00178626
0.00195564
0.00218045
0.00243077
0.00281889
0.00341192
0.0043237
0.00414512
0.00193833
0.000100601
0.000384709
0.000577785
0.000772742
0.000954064
0.00111438
0.00125005
0.00135822
0.00144228
0.00150546
0.00155162
0.00158386
0.0016054
0.00162195
0.00163512
0.0016469
0.00166056
0.00167777
0.00170155
0.00173234
0.00177274
0.00182351
0.00188648
0.00196104
0.00205107
0.00215491
0.00227613
0.00241314
0.00256925
0.0027454
0.00294102
0.0031685
0.00340882
0.0037178
0.00402222
0.00440081
0.00470499
0.00477601
0.00412925
0.00189169
0.000165934
0.000599776
0.00098256
0.00136878
0.00167443
0.00192702
0.00214085
0.00232006
0.00247043
0.00259609
0.00270419
0.00279872
0.00288589
0.00296759
0.00305085
0.00313489
0.0032261
0.00332185
0.00342893
0.00354273
0.00367059
0.00380596
0.00395725
0.00411604
0.00429126
0.00447305
0.00467097
0.00487385
0.00509164
0.0053118
0.00554498
0.00577618
0.0060281
0.00625386
0.00642199
0.00634062
0.00599921
0.00510727
0.00384152
0.00172967
0.000111778
0.000195604
0.000305871
0.000427679
0.000543987
0.000648696
0.000742069
0.000824789
0.000897908
0.000962013
0.00101779
0.0010662
0.00110791
0.00114423
0.00117573
0.0012044
0.0012297
0.00125445
0.00127687
0.00130099
0.00132337
0.00134955
0.00137424
0.00140468
0.00143371
0.00147001
0.00150516
0.0015481
0.00159071
0.00163947
0.00168917
0.0017393
0.00179179
0.00183854
0.00189487
0.00194755
0.00198209
0.00196241
0.00187564
0.00154994
)
;

boundaryField
{
    movingWall
    {
        type            kqRWallFunction;
        value           nonuniform List<scalar> 
40
(
0.000111778
0.000195604
0.000305871
0.000427679
0.000543987
0.000648696
0.000742069
0.000824789
0.000897908
0.000962013
0.00101779
0.0010662
0.00110791
0.00114423
0.00117573
0.0012044
0.0012297
0.00125445
0.00127687
0.00130099
0.00132337
0.00134955
0.00137424
0.00140468
0.00143371
0.00147001
0.00150516
0.0015481
0.00159071
0.00163947
0.00168917
0.0017393
0.00179179
0.00183854
0.00189487
0.00194755
0.00198209
0.00196241
0.00187564
0.00154994
)
;
    }
    fixedWalls
    {
        type            kqRWallFunction;
        value           nonuniform List<scalar> 
120
(
1.5008e-06
6.97713e-06
1.76498e-05
3.58226e-05
6.40794e-05
0.00010679
0.000161112
0.000221952
0.000280022
0.000328757
0.000363904
0.000385407
0.000391052
0.000387452
0.000377733
0.000359556
0.000335935
0.000309428
0.000279911
0.000250928
0.000227424
0.000206628
0.000187392
0.000169114
0.000151477
0.000134438
0.000118146
0.000102972
8.94165e-05
7.79803e-05
6.89693e-05
6.23686e-05
5.76917e-05
5.53815e-05
5.7217e-05
6.33353e-05
7.42217e-05
0.000100601
0.000165934
0.000111778
2.08491e-06
5.10308e-06
4.86586e-06
4.10537e-06
4.61829e-06
7.41886e-06
1.44231e-05
2.95175e-05
7.46496e-05
0.000151629
0.000235602
0.000316446
0.000388558
0.000461253
0.000530426
0.000601499
0.000671331
0.000743551
0.000815424
0.000889538
0.000963582
0.00103922
0.00111459
0.00119058
0.00126569
0.00133997
0.00141214
0.00148196
0.00154848
0.00161166
0.00167096
0.00172752
0.00178214
0.00184101
0.00190135
0.00192832
0.00193833
0.00189169
0.00172967
0.00154994
1.5008e-06
6.52374e-06
1.38481e-05
1.81589e-05
2.0531e-05
2.23775e-05
2.48782e-05
2.72694e-05
2.91953e-05
3.25767e-05
4.10306e-05
5.72171e-05
7.41439e-05
8.69785e-05
0.000103137
0.000122962
0.000144743
0.000165923
0.000189171
0.00021276
0.00023897
0.000266993
0.00029889
0.000335054
0.000378732
0.000426067
0.000469405
0.000510283
0.000542906
0.000561786
0.000569013
0.00055309
0.000499044
0.000412851
0.000297584
0.000175233
8.03517e-05
3.23909e-05
1.0228e-05
2.08491e-06
)
;
    }
    frontAndBack
    {
        type            empty;
    }
}


// ************************************************************************* //
