/*--------------------------------*- C++ -*----------------------------------*\
  =========                 |
  \\      /  F ield         | OpenFOAM: The Open Source CFD Toolbox
   \\    /   O peration     | Website:  https://openfoam.org
    \\  /    A nd           | Version:  13
     \\/     M anipulation  |
\*---------------------------------------------------------------------------*/
FoamFile
{
    format      ascii;
    class       volScalarField;
    location    "3";
    object      nut;
}
// * * * * * * * * * * * * * * * * * * * * * * * * * * * * * * * * * * * * * //

dimensions      [0 2 -1 0 0 0 0];

internalField   nonuniform List<scalar> 
1600
(
1.05555e-08
4.58572e-08
9.73288e-08
1.27502e-07
1.43989e-07
1.56841e-07
1.744e-07
1.91287e-07
2.05097e-07
2.2914e-07
2.88989e-07
4.02905e-07
5.21683e-07
6.1178e-07
7.25347e-07
8.64665e-07
1.01769e-06
1.16659e-06
1.33001e-06
1.49589e-06
1.68021e-06
1.87729e-06
2.10167e-06
2.35603e-06
2.66328e-06
2.99622e-06
3.30104e-06
3.58846e-06
3.81794e-06
3.95068e-06
4.00147e-06
3.8893e-06
3.50901e-06
2.90248e-06
2.09181e-06
1.23157e-06
5.64751e-07
2.27681e-07
7.19169e-08
1.46666e-08
4.90544e-08
1.78773e-06
5.28292e-06
6.97913e-06
7.57149e-06
7.51048e-06
7.06978e-06
6.37354e-06
5.61956e-06
5.27974e-06
5.69968e-06
6.4793e-06
7.8281e-06
8.69103e-06
9.8026e-06
1.11276e-05
1.28336e-05
1.43401e-05
1.60698e-05
1.76458e-05
1.92844e-05
2.07939e-05
2.23686e-05
2.37064e-05
2.47206e-05
2.54674e-05
2.62491e-05
2.68298e-05
2.71608e-05
2.68433e-05
2.65688e-05
2.48511e-05
2.2387e-05
1.90316e-05
1.46013e-05
1.00933e-05
5.24405e-06
2.21791e-06
8.04104e-07
3.58681e-08
1.24126e-07
4.39529e-06
1.13817e-05
1.45514e-05
1.54536e-05
1.55708e-05
1.55517e-05
1.51956e-05
1.48951e-05
1.51526e-05
1.53612e-05
1.55316e-05
1.60438e-05
1.65199e-05
1.83132e-05
2.06554e-05
2.29286e-05
2.52261e-05
2.74975e-05
2.97038e-05
3.16892e-05
3.34264e-05
3.46441e-05
3.55689e-05
3.62444e-05
3.67035e-05
3.6898e-05
3.6713e-05
3.60658e-05
3.45465e-05
3.2562e-05
3.02997e-05
2.62423e-05
2.19762e-05
1.60309e-05
1.06308e-05
5.32081e-06
2.72782e-06
1.06e-06
3.41643e-08
2.5211e-07
8.04651e-06
1.67713e-05
1.99174e-05
2.05332e-05
2.05216e-05
2.048e-05
2.0194e-05
2.00935e-05
1.95219e-05
1.84493e-05
1.92832e-05
2.16895e-05
2.41385e-05
2.76868e-05
3.01991e-05
3.29047e-05
3.52695e-05
3.75796e-05
3.91743e-05
4.05358e-05
4.14476e-05
4.20424e-05
4.23323e-05
4.23891e-05
4.21947e-05
4.16979e-05
4.08416e-05
3.95867e-05
3.77307e-05
3.54561e-05
3.27722e-05
2.87676e-05
2.43529e-05
1.90417e-05
1.22759e-05
5.48146e-06
2.32507e-06
9.14364e-07
2.87907e-08
4.51234e-07
1.26605e-05
2.20148e-05
2.44925e-05
2.46265e-05
2.4469e-05
2.3966e-05
2.3664e-05
2.18336e-05
2.10201e-05
2.32844e-05
2.61246e-05
2.92319e-05
3.25342e-05
3.57905e-05
3.84402e-05
4.12292e-05
4.3319e-05
4.50435e-05
4.62612e-05
4.71725e-05
4.76837e-05
4.7906e-05
4.78431e-05
4.74509e-05
4.67668e-05
4.57587e-05
4.44182e-05
4.27698e-05
4.05406e-05
3.80025e-05
3.5237e-05
3.15006e-05
2.72511e-05
2.24236e-05
1.67168e-05
9.08731e-06
2.98652e-06
8.58907e-07
3.23987e-08
7.52189e-07
1.72011e-05
2.68844e-05
2.84915e-05
2.79951e-05
2.6988e-05
2.6454e-05
2.43094e-05
2.3582e-05
2.62877e-05
2.9629e-05
3.30751e-05
3.62151e-05
3.96965e-05
4.27871e-05
4.57545e-05
4.80188e-05
4.98886e-05
5.13409e-05
5.24153e-05
5.31593e-05
5.35711e-05
5.37032e-05
5.35764e-05
5.3225e-05
5.27033e-05
5.20117e-05
5.10662e-05
4.96227e-05
4.73236e-05
4.44959e-05
4.16893e-05
3.77221e-05
3.22366e-05
2.57368e-05
1.95841e-05
1.27762e-05
4.34262e-06
1.1037e-06
5.20905e-08
1.13526e-06
2.1299e-05
3.1129e-05
3.17677e-05
3.015e-05
2.93219e-05
2.69784e-05
2.58939e-05
2.81027e-05
3.22283e-05
3.58156e-05
3.89709e-05
4.24258e-05
4.59823e-05
4.91697e-05
5.1704e-05
5.37989e-05
5.55275e-05
5.68662e-05
5.78496e-05
5.85003e-05
5.88174e-05
5.88031e-05
5.84597e-05
5.78655e-05
5.70825e-05
5.61743e-05
5.52387e-05
5.42682e-05
5.30484e-05
5.03879e-05
4.67627e-05
4.38832e-05
3.95207e-05
3.2864e-05
2.39907e-05
1.53867e-05
7.71547e-06
1.65925e-06
1.01336e-07
1.56428e-06
2.49893e-05
3.44405e-05
3.36975e-05
3.2453e-05
2.98884e-05
2.82201e-05
2.92303e-05
3.36543e-05
3.77138e-05
4.07589e-05
4.41384e-05
4.80498e-05
5.16263e-05
5.44191e-05
5.67958e-05
5.87887e-05
6.04948e-05
6.18958e-05
6.30058e-05
6.37019e-05
6.3981e-05
6.38739e-05
6.34326e-05
6.27044e-05
6.17314e-05
6.05692e-05
5.92577e-05
5.78619e-05
5.65189e-05
5.52447e-05
5.20736e-05
4.77207e-05
4.44112e-05
3.92507e-05
3.09895e-05
2.02234e-05
9.69296e-06
2.09581e-06
2.07456e-07
1.97331e-06
2.77734e-05
3.66351e-05
3.66099e-05
3.41235e-05
3.093e-05
3.03667e-05
3.40557e-05
3.85531e-05
4.2076e-05
4.51907e-05
4.91658e-05
5.30355e-05
5.63021e-05
5.89574e-05
6.14769e-05
6.38404e-05
6.58172e-05
6.73649e-05
6.83976e-05
6.90113e-05
6.92491e-05
6.91075e-05
6.85921e-05
6.76959e-05
6.64811e-05
6.50346e-05
6.34573e-05
6.18268e-05
6.01384e-05
5.83556e-05
5.67633e-05
5.25907e-05
4.84272e-05
4.45339e-05
3.7209e-05
2.63e-05
1.44289e-05
3.54712e-06
5.24844e-07
2.31644e-06
2.96414e-05
3.83676e-05
3.83166e-05
3.47622e-05
3.24716e-05
3.3808e-05
3.85529e-05
4.27471e-05
4.57913e-05
4.94716e-05
5.35729e-05
5.72331e-05
6.05634e-05
6.37033e-05
6.65341e-05
6.88942e-05
7.07726e-05
7.23044e-05
7.35075e-05
7.43295e-05
7.47253e-05
7.46615e-05
7.41094e-05
7.30664e-05
7.15812e-05
6.97522e-05
6.77264e-05
6.56711e-05
6.3713e-05
6.18532e-05
5.98891e-05
5.73682e-05
5.19286e-05
4.87445e-05
4.27974e-05
3.18301e-05
1.84421e-05
5.9454e-06
1.06635e-06
2.56348e-06
3.08175e-05
3.99845e-05
4.02122e-05
3.60431e-05
3.44005e-05
3.78179e-05
4.23592e-05
4.6141e-05
4.92259e-05
5.3351e-05
5.74971e-05
6.13995e-05
6.50082e-05
6.82145e-05
7.09457e-05
7.33282e-05
7.54374e-05
7.71195e-05
7.8664e-05
7.97441e-05
8.03238e-05
8.03891e-05
7.98837e-05
7.87789e-05
7.70863e-05
7.48801e-05
7.2315e-05
6.96189e-05
6.70412e-05
6.47463e-05
6.26817e-05
6.04674e-05
5.66212e-05
5.17594e-05
4.7634e-05
3.76777e-05
2.35528e-05
7.99975e-06
1.65698e-06
2.71458e-06
3.14852e-05
4.12338e-05
4.0903e-05
3.74557e-05
3.68439e-05
4.11714e-05
4.55304e-05
4.90611e-05
5.25439e-05
5.69631e-05
6.13168e-05
6.53274e-05
6.88583e-05
7.20219e-05
7.49435e-05
7.75787e-05
7.99424e-05
8.18385e-05
8.34721e-05
8.48839e-05
8.56471e-05
8.58842e-05
8.55189e-05
8.44885e-05
8.27526e-05
8.03265e-05
7.73224e-05
7.39785e-05
7.06409e-05
6.76613e-05
6.52191e-05
6.31395e-05
6.03573e-05
5.45285e-05
5.10275e-05
4.24819e-05
2.81399e-05
1.08787e-05
2.22558e-06
2.75382e-06
3.1564e-05
4.17593e-05
4.20389e-05
3.88096e-05
3.95337e-05
4.39628e-05
4.82399e-05
5.17306e-05
5.565e-05
6.02973e-05
6.46502e-05
6.85716e-05
7.22008e-05
7.55192e-05
7.8635e-05
8.14846e-05
8.40214e-05
8.60385e-05
8.76571e-05
8.92878e-05
9.02063e-05
9.06202e-05
9.04662e-05
8.96558e-05
8.80916e-05
8.57042e-05
8.25102e-05
7.86823e-05
7.45867e-05
7.07239e-05
6.75241e-05
6.50571e-05
6.28026e-05
5.80722e-05
5.36112e-05
4.68303e-05
3.26299e-05
1.33753e-05
2.73269e-06
2.72837e-06
3.14246e-05
4.21854e-05
4.29998e-05
4.019e-05
4.19735e-05
4.62916e-05
5.05749e-05
5.41469e-05
5.83587e-05
6.30674e-05
6.74599e-05
7.14142e-05
7.5074e-05
7.86263e-05
8.18817e-05
8.47911e-05
8.74227e-05
8.94491e-05
9.09732e-05
9.2546e-05
9.35697e-05
9.41225e-05
9.42101e-05
9.37375e-05
9.25592e-05
9.05119e-05
8.74802e-05
8.3499e-05
7.88615e-05
7.4145e-05
7.00429e-05
6.6997e-05
6.48407e-05
6.14715e-05
5.56987e-05
5.03023e-05
3.65822e-05
1.60705e-05
3.24391e-06
2.6598e-06
3.1057e-05
4.25156e-05
4.37116e-05
4.15723e-05
4.39174e-05
4.82191e-05
5.25674e-05
5.62425e-05
6.06629e-05
6.54237e-05
6.97802e-05
7.37301e-05
7.76278e-05
8.12549e-05
8.45247e-05
8.73901e-05
8.98403e-05
9.18981e-05
9.31624e-05
9.44781e-05
9.54748e-05
9.60901e-05
9.64029e-05
9.63356e-05
9.57137e-05
9.42876e-05
9.17938e-05
8.80744e-05
8.3248e-05
7.78453e-05
7.27371e-05
6.87235e-05
6.59543e-05
6.36457e-05
5.75942e-05
5.31281e-05
4.02015e-05
1.84316e-05
3.73031e-06
2.53169e-06
3.03676e-05
4.23821e-05
4.42392e-05
4.28142e-05
4.54335e-05
4.9766e-05
5.42054e-05
5.80029e-05
6.25507e-05
6.73337e-05
7.16004e-05
7.57099e-05
7.96778e-05
8.3285e-05
8.64686e-05
8.91694e-05
9.13557e-05
9.31169e-05
9.41912e-05
9.50652e-05
9.58777e-05
9.64534e-05
9.69342e-05
9.72824e-05
9.73188e-05
9.67289e-05
9.51076e-05
9.20795e-05
8.75113e-05
8.17647e-05
7.57841e-05
7.07538e-05
6.73109e-05
6.48655e-05
5.96963e-05
5.5143e-05
4.30916e-05
2.09163e-05
4.23008e-06
2.36551e-06
2.95331e-05
4.20179e-05
4.45845e-05
4.38501e-05
4.65886e-05
5.09491e-05
5.54855e-05
5.94249e-05
6.405e-05
6.87313e-05
7.30009e-05
7.72316e-05
8.1158e-05
8.46698e-05
8.76823e-05
9.01283e-05
9.19816e-05
9.32773e-05
9.40354e-05
9.44622e-05
9.4946e-05
9.53761e-05
9.59433e-05
9.66648e-05
9.73829e-05
9.77485e-05
9.72408e-05
9.52705e-05
9.14053e-05
8.57239e-05
7.90829e-05
7.29666e-05
6.86089e-05
6.59165e-05
6.16287e-05
5.67653e-05
4.55354e-05
2.31381e-05
4.7211e-06
2.17865e-06
2.85373e-05
4.1458e-05
4.47617e-05
4.46797e-05
4.74424e-05
5.17957e-05
5.64042e-05
6.04847e-05
6.51086e-05
6.96805e-05
7.40051e-05
7.82124e-05
8.20463e-05
8.54034e-05
8.81864e-05
9.03226e-05
9.17889e-05
9.26317e-05
9.28919e-05
9.29411e-05
9.30089e-05
9.32115e-05
9.37784e-05
9.47917e-05
9.61397e-05
9.74754e-05
9.82017e-05
9.75457e-05
9.47594e-05
8.957e-05
8.25822e-05
7.54251e-05
6.9942e-05
6.6637e-05
6.32325e-05
5.78479e-05
4.76569e-05
2.53495e-05
5.2289e-06
1.97113e-06
2.7542e-05
4.07421e-05
4.47689e-05
4.53167e-05
4.79335e-05
5.22624e-05
5.69404e-05
6.11641e-05
6.57368e-05
7.02131e-05
7.45431e-05
7.86532e-05
8.23501e-05
8.55151e-05
8.80427e-05
8.98576e-05
9.09414e-05
9.13564e-05
9.11411e-05
9.08126e-05
9.04786e-05
9.04216e-05
9.09179e-05
9.21212e-05
9.39849e-05
9.62062e-05
9.81625e-05
9.89497e-05
9.74967e-05
9.31743e-05
8.62016e-05
7.81512e-05
7.14378e-05
6.73382e-05
6.44815e-05
5.87151e-05
4.94494e-05
2.73337e-05
5.73423e-06
1.76672e-06
2.62989e-05
3.99473e-05
4.46491e-05
4.57665e-05
4.83344e-05
5.25305e-05
5.71006e-05
6.14476e-05
6.59491e-05
7.03409e-05
7.45987e-05
7.8571e-05
8.21006e-05
8.50585e-05
8.73346e-05
8.88539e-05
8.96031e-05
8.96564e-05
8.91057e-05
8.84008e-05
8.77701e-05
8.74778e-05
8.78669e-05
8.9165e-05
9.13941e-05
9.429e-05
9.72552e-05
9.94893e-05
9.97593e-05
9.65681e-05
8.98317e-05
8.1103e-05
7.31014e-05
6.80883e-05
6.52563e-05
5.9473e-05
5.09769e-05
2.92833e-05
6.25531e-06
1.6011e-06
2.47665e-05
3.88954e-05
4.43627e-05
4.60496e-05
4.83827e-05
5.23134e-05
5.70014e-05
6.13528e-05
6.57514e-05
7.00645e-05
7.41903e-05
7.80009e-05
8.13463e-05
8.40993e-05
8.61487e-05
8.74206e-05
8.79112e-05
8.77066e-05
8.69653e-05
8.5999e-05
8.51141e-05
8.46214e-05
8.48713e-05
8.61714e-05
8.86202e-05
9.20699e-05
9.60172e-05
9.9526e-05
0.000101266
9.9665e-05
9.34926e-05
8.42206e-05
7.48944e-05
6.86938e-05
6.56339e-05
6.02014e-05
5.22435e-05
3.10829e-05
6.77587e-06
1.45465e-06
2.30133e-05
3.76701e-05
4.37999e-05
4.62966e-05
4.84112e-05
5.21147e-05
5.63713e-05
6.09285e-05
6.52102e-05
6.93674e-05
7.33341e-05
7.69952e-05
8.01455e-05
8.2706e-05
8.45554e-05
8.5624e-05
8.59363e-05
8.56108e-05
8.48119e-05
8.3782e-05
8.28236e-05
8.22498e-05
8.23574e-05
8.37192e-05
8.644e-05
9.04388e-05
9.51566e-05
9.94218e-05
0.000102031
0.000101768
9.69515e-05
8.73852e-05
7.68513e-05
6.92905e-05
6.57563e-05
6.0968e-05
5.33495e-05
3.28013e-05
7.3076e-06
1.3193e-06
2.12624e-05
3.60753e-05
4.30027e-05
4.63991e-05
4.84276e-05
5.17632e-05
5.57928e-05
5.99992e-05
6.43563e-05
6.83674e-05
7.21554e-05
7.56299e-05
7.85765e-05
8.09209e-05
8.25564e-05
8.3523e-05
8.38575e-05
8.35756e-05
8.28156e-05
8.17958e-05
8.09374e-05
8.04771e-05
8.06064e-05
8.20366e-05
8.4862e-05
8.89492e-05
9.39559e-05
9.90969e-05
0.000102948
0.000103615
9.98298e-05
9.04952e-05
7.89381e-05
6.99128e-05
6.55743e-05
6.16259e-05
5.43181e-05
3.43863e-05
7.83745e-06
1.19075e-06
1.95077e-05
3.42667e-05
4.20451e-05
4.62775e-05
4.83004e-05
5.12091e-05
5.51791e-05
5.89827e-05
6.29335e-05
6.69214e-05
7.06009e-05
7.3862e-05
7.65835e-05
7.8764e-05
8.0422e-05
8.14415e-05
8.17931e-05
8.1552e-05
8.08636e-05
7.9907e-05
7.91882e-05
7.87828e-05
7.89008e-05
8.02834e-05
8.31018e-05
8.74111e-05
9.28874e-05
9.87024e-05
0.000103493
0.000105405
0.000102364
9.34948e-05
8.10466e-05
7.06004e-05
6.52923e-05
6.19832e-05
5.52193e-05
3.58673e-05
8.37158e-06
1.06676e-06
1.77713e-05
3.23469e-05
4.09288e-05
4.5866e-05
4.83217e-05
5.07829e-05
5.42541e-05
5.81878e-05
6.16559e-05
6.51237e-05
6.85135e-05
7.16243e-05
7.43123e-05
7.65066e-05
7.81144e-05
7.90919e-05
7.94785e-05
7.93613e-05
7.88507e-05
7.80363e-05
7.75358e-05
7.72138e-05
7.74131e-05
7.88986e-05
8.18509e-05
8.63374e-05
9.20912e-05
9.83406e-05
0.000103787
0.000106609
0.000104562
9.61815e-05
8.30675e-05
7.12688e-05
6.4992e-05
6.20306e-05
5.5936e-05
3.73085e-05
8.89947e-06
9.46947e-07
1.60991e-05
3.03701e-05
3.96624e-05
4.50449e-05
4.83681e-05
5.04897e-05
5.33159e-05
5.70029e-05
6.06613e-05
6.38222e-05
6.67357e-05
6.95272e-05
7.20376e-05
7.41068e-05
7.56364e-05
7.66396e-05
7.71339e-05
7.71745e-05
7.68165e-05
7.61881e-05
7.58994e-05
7.57646e-05
7.61636e-05
7.78482e-05
8.09438e-05
8.55731e-05
9.14974e-05
9.79989e-05
0.000103855
0.000107344
0.000106252
9.83848e-05
8.48683e-05
7.18179e-05
6.46324e-05
6.17607e-05
5.64919e-05
3.87076e-05
9.42149e-06
8.32326e-07
1.45349e-05
2.84085e-05
3.82609e-05
4.3912e-05
4.8248e-05
5.0339e-05
5.27295e-05
5.56299e-05
5.92072e-05
6.25311e-05
6.54585e-05
6.79695e-05
7.01693e-05
7.19881e-05
7.34099e-05
7.43924e-05
7.49012e-05
7.49719e-05
7.47758e-05
7.43836e-05
7.42684e-05
7.43825e-05
7.50846e-05
7.70078e-05
8.02884e-05
8.50394e-05
9.10388e-05
9.76183e-05
0.000103636
0.000107487
0.000107068
9.99116e-05
8.62897e-05
7.21619e-05
6.41234e-05
6.15394e-05
5.68716e-05
4.00609e-05
9.9286e-06
7.25456e-07
1.31229e-05
2.65042e-05
3.67048e-05
4.28842e-05
4.75522e-05
5.0431e-05
5.24768e-05
5.4869e-05
5.75745e-05
6.07487e-05
6.36927e-05
6.62163e-05
6.82964e-05
6.99845e-05
7.12676e-05
7.21375e-05
7.26097e-05
7.27704e-05
7.27351e-05
7.26319e-05
7.26745e-05
7.30735e-05
7.41638e-05
7.637e-05
7.98438e-05
8.46696e-05
9.06278e-05
9.70984e-05
0.000103023
0.000106935
0.000106868
0.000100423
8.71072e-05
7.21872e-05
6.31897e-05
6.07498e-05
5.70085e-05
4.13621e-05
1.04192e-05
6.29875e-07
1.19127e-05
2.48064e-05
3.49975e-05
4.19371e-05
4.65804e-05
5.04506e-05
5.25585e-05
5.45955e-05
5.67933e-05
5.909e-05
6.16208e-05
6.40182e-05
6.60491e-05
6.76845e-05
6.89222e-05
6.97788e-05
7.02975e-05
7.05907e-05
7.08114e-05
7.09055e-05
7.12132e-05
7.19781e-05
7.34827e-05
7.59573e-05
7.95815e-05
8.43856e-05
9.01424e-05
9.62844e-05
0.000101841
0.000105357
0.000105362
9.97957e-05
8.71011e-05
7.17882e-05
6.18562e-05
5.97645e-05
5.69468e-05
4.25833e-05
1.08865e-05
5.4915e-07
1.09619e-05
2.34808e-05
3.32495e-05
4.08561e-05
4.58688e-05
4.98787e-05
5.29019e-05
5.48157e-05
5.6695e-05
5.85896e-05
6.0418e-05
6.22135e-05
6.39204e-05
6.54244e-05
6.6622e-05
6.75105e-05
6.81328e-05
6.86324e-05
6.92045e-05
6.94816e-05
7.00894e-05
7.1287e-05
7.31151e-05
7.58011e-05
7.94599e-05
8.4071e-05
8.94018e-05
9.49529e-05
9.96561e-05
0.000102703
0.00010271
9.77156e-05
8.57973e-05
7.06716e-05
6.00397e-05
5.83205e-05
5.66102e-05
4.37261e-05
1.13304e-05
4.8553e-07
1.03574e-05
2.23117e-05
3.17937e-05
3.96342e-05
4.52592e-05
4.94366e-05
5.28993e-05
5.54951e-05
5.72846e-05
5.89229e-05
6.04572e-05
6.18988e-05
6.31997e-05
6.43383e-05
6.53274e-05
6.61672e-05
6.68711e-05
6.74534e-05
6.83263e-05
6.87645e-05
6.96191e-05
7.11477e-05
7.31638e-05
7.58866e-05
7.93575e-05
8.35116e-05
8.81169e-05
9.26578e-05
9.65364e-05
9.87738e-05
9.82254e-05
9.35242e-05
8.24193e-05
6.85391e-05
5.77354e-05
5.64853e-05
5.6048e-05
4.47016e-05
1.17469e-05
4.38979e-07
1.0136e-05
2.14385e-05
3.08188e-05
3.8573e-05
4.48597e-05
4.95534e-05
5.3132e-05
5.6092e-05
5.84624e-05
6.00986e-05
6.1489e-05
6.2701e-05
6.37641e-05
6.46883e-05
6.54943e-05
6.62067e-05
6.68607e-05
6.74638e-05
6.83783e-05
6.91853e-05
7.00533e-05
7.15684e-05
7.3566e-05
7.60168e-05
7.89557e-05
8.22902e-05
8.58159e-05
8.9135e-05
9.17397e-05
9.28301e-05
9.15469e-05
8.69643e-05
7.73447e-05
6.44795e-05
5.48891e-05
5.42842e-05
5.55132e-05
4.54953e-05
1.21442e-05
4.06065e-07
1.02705e-05
2.09905e-05
3.01285e-05
3.80456e-05
4.47206e-05
4.98931e-05
5.39716e-05
5.71871e-05
5.97283e-05
6.19789e-05
6.35032e-05
6.46978e-05
6.5664e-05
6.64657e-05
6.71495e-05
6.77559e-05
6.83297e-05
6.88975e-05
6.9569e-05
7.05188e-05
7.13266e-05
7.22693e-05
7.38327e-05
7.55904e-05
7.75375e-05
7.96184e-05
8.16792e-05
8.34498e-05
8.4499e-05
8.43333e-05
8.23047e-05
7.78474e-05
7.00389e-05
5.96807e-05
5.08678e-05
5.14576e-05
5.46793e-05
4.55805e-05
1.25278e-05
3.89887e-07
1.0944e-05
2.11307e-05
2.99764e-05
3.78973e-05
4.51271e-05
5.08261e-05
5.55665e-05
5.92935e-05
6.21482e-05
6.4374e-05
6.64865e-05
6.79573e-05
6.8964e-05
6.97201e-05
7.02867e-05
7.07134e-05
7.10475e-05
7.13097e-05
7.15436e-05
7.17986e-05
7.21371e-05
7.22963e-05
7.2657e-05
7.32399e-05
7.37029e-05
7.4158e-05
7.4499e-05
7.46096e-05
7.43147e-05
7.32641e-05
7.09013e-05
6.68903e-05
6.0941e-05
5.37955e-05
4.84045e-05
4.91545e-05
5.3762e-05
4.51884e-05
1.29413e-05
4.02989e-07
1.15783e-05
2.1603e-05
3.05239e-05
3.92398e-05
4.63251e-05
5.27044e-05
5.81808e-05
6.264e-05
6.62067e-05
6.85851e-05
7.03938e-05
7.2102e-05
7.3092e-05
7.35798e-05
7.37141e-05
7.35613e-05
7.31849e-05
7.25572e-05
7.17092e-05
7.06957e-05
6.95504e-05
6.85172e-05
6.76952e-05
6.64955e-05
6.53259e-05
6.42478e-05
6.30958e-05
6.18841e-05
6.05358e-05
5.89737e-05
5.67972e-05
5.39353e-05
5.00923e-05
4.60764e-05
4.38203e-05
4.72117e-05
5.25423e-05
4.46228e-05
1.33644e-05
4.46326e-07
1.32777e-05
2.42097e-05
3.32946e-05
4.10357e-05
4.82245e-05
5.46681e-05
6.02676e-05
6.48219e-05
6.8338e-05
7.08198e-05
7.18146e-05
7.2741e-05
7.30523e-05
7.25588e-05
7.15697e-05
7.01796e-05
6.84704e-05
6.6493e-05
6.44759e-05
6.21574e-05
6.01068e-05
5.81446e-05
5.60574e-05
5.38349e-05
5.18133e-05
5.00221e-05
4.84439e-05
4.71171e-05
4.59818e-05
4.50932e-05
4.41799e-05
4.34667e-05
4.23745e-05
4.1623e-05
4.22135e-05
4.6183e-05
5.06703e-05
4.27313e-05
1.35531e-05
5.23284e-07
1.49089e-05
2.56812e-05
3.42765e-05
4.18818e-05
4.85188e-05
5.39063e-05
5.79814e-05
6.09884e-05
6.30012e-05
6.41527e-05
6.41915e-05
6.36578e-05
6.28525e-05
6.13675e-05
5.94764e-05
5.73362e-05
5.50199e-05
5.25654e-05
5.01308e-05
4.77196e-05
4.55511e-05
4.34159e-05
4.15784e-05
4.00558e-05
3.88346e-05
3.79318e-05
3.73746e-05
3.7192e-05
3.7342e-05
3.79374e-05
3.88113e-05
4.01939e-05
4.15067e-05
4.30894e-05
4.48983e-05
4.815e-05
4.9143e-05
4.12512e-05
1.36228e-05
7.09632e-07
1.70841e-05
2.51331e-05
3.07625e-05
3.58285e-05
4.00475e-05
4.32806e-05
4.54854e-05
4.68765e-05
4.75936e-05
4.77501e-05
4.74125e-05
4.66366e-05
4.56954e-05
4.45546e-05
4.33058e-05
4.20089e-05
4.07642e-05
3.95973e-05
3.85852e-05
3.77164e-05
3.70882e-05
3.66377e-05
3.64275e-05
3.64491e-05
3.67295e-05
3.72393e-05
3.79978e-05
3.89972e-05
4.02352e-05
4.17489e-05
4.34808e-05
4.56336e-05
4.77078e-05
4.96996e-05
5.10987e-05
5.20375e-05
4.75992e-05
3.82277e-05
1.32925e-05
1.17066e-06
1.85292e-05
2.25167e-05
2.70061e-05
3.06281e-05
3.35231e-05
3.58171e-05
3.75636e-05
3.88556e-05
3.97893e-05
4.0441e-05
4.08983e-05
4.11904e-05
4.13849e-05
4.15298e-05
4.16623e-05
4.18009e-05
4.1978e-05
4.22037e-05
4.25025e-05
4.28714e-05
4.33286e-05
4.38701e-05
4.45053e-05
4.52247e-05
4.60368e-05
4.69308e-05
4.79116e-05
4.89651e-05
5.00971e-05
5.12843e-05
5.25385e-05
5.38452e-05
5.51214e-05
5.58308e-05
5.5092e-05
5.24385e-05
4.53281e-05
3.15905e-05
1.21523e-05
7.88504e-07
1.37919e-06
2.15517e-06
3.01293e-06
3.83195e-06
4.56925e-06
5.2266e-06
5.80867e-06
6.3228e-06
6.77321e-06
7.1647e-06
7.5042e-06
7.79632e-06
8.05043e-06
8.27048e-06
8.47064e-06
8.647e-06
8.81967e-06
8.97576e-06
9.14404e-06
9.29988e-06
9.4828e-06
9.65495e-06
9.86793e-06
1.00708e-05
1.0325e-05
1.05711e-05
1.08722e-05
1.11709e-05
1.15129e-05
1.18618e-05
1.22135e-05
1.25823e-05
1.29106e-05
1.33076e-05
1.36779e-05
1.39224e-05
1.37847e-05
1.31758e-05
1.08885e-05
)
;

boundaryField
{
    movingWall
    {
        type            nutkWallFunction;
        Cmu             0.09;
        kappa           0.41;
        E               9.8;
        value           uniform 0;
    }
    fixedWalls
    {
        type            nutkWallFunction;
        Cmu             0.09;
        kappa           0.41;
        E               9.8;
        value           uniform 0;
    }
    frontAndBack
    {
        type            empty;
    }
}


// ************************************************************************* //
