/*--------------------------------*- C++ -*----------------------------------*\
  =========                 |
  \\      /  F ield         | OpenFOAM: The Open Source CFD Toolbox
   \\    /   O peration     | Website:  https://openfoam.org
    \\  /    A nd           | Version:  13
     \\/     M anipulation  |
\*---------------------------------------------------------------------------*/
FoamFile
{
    format      ascii;
    class       volScalarField;
    location    "3";
    object      p;
}
// * * * * * * * * * * * * * * * * * * * * * * * * * * * * * * * * * * * * * //

dimensions      [0 2 -2 0 0 0 0];

internalField   nonuniform List<scalar> 
1600
(
2.13083e-08
-1.08277e-05
-5.98584e-05
-0.000140336
-0.00023076
-0.000319834
-0.000405343
-0.000493339
-0.000593784
-0.000713994
-0.000862083
-0.00105987
-0.0013453
-0.00157384
-0.00169908
-0.00188188
-0.0022079
-0.00262715
-0.00306029
-0.00342771
-0.00366539
-0.0037252
-0.00357257
-0.00317773
-0.00253314
-0.00165239
-0.000545764
0.000761951
0.00220877
0.00367881
0.00499796
0.00596927
0.00643977
0.00636004
0.00574137
0.00506373
0.00458423
0.00444756
0.00448791
0.00451091
-4.12822e-06
-2.43458e-05
-7.79285e-05
-0.000159287
-0.000241445
-0.000315966
-0.000384327
-0.000455894
-0.000541975
-0.000643152
-0.000744978
-0.00088792
-0.00113564
-0.0014567
-0.00178545
-0.00213714
-0.00254698
-0.00299519
-0.00342997
-0.0037898
-0.00402083
-0.00408179
-0.00394355
-0.00358602
-0.00300824
-0.00219289
-0.00114313
0.00010681
0.00149697
0.00292348
0.00423915
0.00526068
0.00582153
0.00583641
0.00535864
0.00470368
0.00431913
0.00429319
0.00438659
0.00443684
1.06878e-05
-2.67441e-05
-9.34231e-05
-0.000179075
-0.000255012
-0.000309268
-0.000346206
-0.00037782
-0.000427622
-0.000539743
-0.000737677
-0.00100902
-0.00135834
-0.00177882
-0.00224958
-0.00274786
-0.00325126
-0.00373417
-0.0041619
-0.00449864
-0.00470868
-0.0047631
-0.00463846
-0.00431972
-0.00379147
-0.00304552
-0.00208759
-0.000942072
0.000345993
0.00170277
0.00301451
0.00412694
0.00486927
0.00511842
0.00490468
0.00446352
0.00418352
0.00417523
0.00428012
0.0043176
6.32333e-05
5.48331e-06
-8.14492e-05
-0.000166579
-0.000229965
-0.000270002
-0.000298424
-0.000341491
-0.000438282
-0.000634757
-0.000964273
-0.00141266
-0.00193377
-0.00249529
-0.00307627
-0.00365329
-0.00419851
-0.00468765
-0.00510178
-0.00541777
-0.00561137
-0.0056599
-0.00554318
-0.00525171
-0.00477365
-0.00410682
-0.00325646
-0.00223784
-0.00107835
0.00017743
0.0014516
0.00262844
0.00356142
0.00412961
0.0043145
0.00424268
0.00417474
0.00415759
0.00421345
0.00421318
0.000184896
9.82562e-05
-7.5889e-06
-9.47303e-05
-0.000158842
-0.000211187
-0.000278006
-0.000400606
-0.000627331
-0.000992093
-0.00149743
-0.00210694
-0.00276652
-0.00343547
-0.00408553
-0.0046955
-0.00525124
-0.00574312
-0.00615499
-0.00645666
-0.00663178
-0.00666797
-0.00655842
-0.00629674
-0.0058739
-0.00529082
-0.00454885
-0.00365506
-0.00262584
-0.00149348
-0.000305205
0.000871373
0.00194755
0.00283085
0.00346527
0.00386329
0.00410149
0.00421362
0.00418408
0.00413192
0.000384032
0.000259422
0.000136789
3.62003e-05
-5.34481e-05
-0.000161409
-0.000328291
-0.000602681
-0.00102021
-0.00158107
-0.0022524
-0.0029872
-0.00374015
-0.00447421
-0.00516402
-0.00579638
-0.00635974
-0.00683903
-0.00721683
-0.00748403
-0.00763513
-0.00766192
-0.00756166
-0.00733069
-0.00696496
-0.00646481
-0.00583068
-0.00506444
-0.00417162
-0.00316532
-0.00206898
-0.000922295
0.000221319
0.00132108
0.00232971
0.00318194
0.00380298
0.00415468
0.00411643
0.00402884
0.000633701
0.000476865
0.000323836
0.000192742
4.51559e-05
-0.000166725
-0.000490959
-0.000962146
-0.00158289
-0.00232133
-0.00312737
-0.00395508
-0.00476792
-0.0055365
-0.00624117
-0.00687018
-0.00741315
-0.00786132
-0.00820601
-0.00844396
-0.00857275
-0.00858984
-0.00849511
-0.00828729
-0.00796711
-0.00753562
-0.00699345
-0.00634046
-0.00557605
-0.00470071
-0.00371871
-0.00264101
-0.00148347
-0.000265637
0.000981617
0.00218962
0.00319951
0.0038496
0.00404163
0.00387223
0.00089254
0.000699309
0.0005023
0.000318972
8.14596e-05
-0.000274684
-0.000787239
-0.00146008
-0.00226281
-0.0031426
-0.00404656
-0.0049361
-0.00578093
-0.00655907
-0.00725679
-0.00786562
-0.00837929
-0.00879405
-0.00910696
-0.00931733
-0.00942513
-0.00943134
-0.00933871
-0.00914585
-0.0088586
-0.00847895
-0.00800811
-0.00744542
-0.00678754
-0.00602842
-0.00516054
-0.00417672
-0.00306857
-0.00182621
-0.000455383
0.000979385
0.00230841
0.00332149
0.00386151
0.00361738
0.00109892
0.000858729
0.00060725
0.000353493
1.73163e-06
-0.000516354
-0.00121483
-0.00206582
-0.00301291
-0.0039937
-0.00496171
-0.00588528
-0.00674035
-0.00751155
-0.00819025
-0.00877187
-0.00925413
-0.00963652
-0.0099193
-0.0101037
-0.0101917
-0.0101855
-0.0100881
-0.00990682
-0.0096428
-0.00930062
-0.00888292
-0.00838959
-0.00781655
-0.00715486
-0.00639049
-0.00550489
-0.00447546
-0.00327405
-0.0018787
-0.000322562
0.00123257
0.00256918
0.00339093
0.0032953
0.00116606
0.000890903
0.000583377
0.000249806
-0.00022537
-0.000898952
-0.00175676
-0.00274713
-0.00379542
-0.00484033
-0.00584361
-0.00677926
-0.0076291
-0.0083833
-0.00903746
-0.00959034
-0.0100425
-0.0103955
-0.0106514
-0.0108127
-0.0108824
-0.0108645
-0.0107633
-0.010585
-0.0103345
-0.010017
-0.00963627
-0.00919337
-0.008685
-0.00810195
-0.00742784
-0.00663876
-0.00570399
-0.00458513
-0.00323652
-0.0016472
3.95187e-05
0.00157848
0.00270268
0.00323393
0.00106792
0.000762767
0.00040128
-1.3165e-05
-0.000601369
-0.00140733
-0.00238719
-0.00347106
-0.00458098
-0.00565958
-0.00667551
-0.00760735
-0.00844207
-0.0091743
-0.00980281
-0.0103287
-0.0107541
-0.0110818
-0.0113148
-0.0114564
-0.0115102
-0.011481
-0.0113739
-0.0111952
-0.0109513
-0.0106483
-0.0102912
-0.00988277
-0.00942117
-0.0088986
-0.0082992
-0.00759793
-0.0067611
-0.00574687
-0.00449907
-0.00296928
-0.0012344
0.000398535
0.0017969
0.00276684
0.000793101
0.000466408
5.89902e-05
-0.000427285
-0.00110796
-0.0020089
-0.00307352
-0.00420897
-0.0053478
-0.00643624
-0.00744825
-0.00836595
-0.00918047
-0.00988953
-0.0104939
-0.0109961
-0.0113992
-0.0117062
-0.0119207
-0.012046
-0.0120864
-0.0120465
-0.0119323
-0.0117502
-0.0115075
-0.0112112
-0.0108677
-0.0104811
-0.0100517
-0.00957409
-0.00903463
-0.00840989
-0.00766635
-0.00676201
-0.00564282
-0.00423935
-0.00254094
-0.00089129
0.000577082
0.00166217
0.000355695
1.93003e-05
-0.000421125
-0.000961807
-0.00171205
-0.00267054
-0.00377755
-0.00493545
-0.00607879
-0.00716013
-0.00815727
-0.00905512
-0.0098478
-0.0105349
-0.0111183
-0.011601
-0.0119862
-0.0122772
-0.0124772
-0.0125896
-0.0126184
-0.0125687
-0.0124464
-0.0122585
-0.0120128
-0.0117174
-0.0113796
-0.0110053
-0.0105967
-0.0101512
-0.0096583
-0.00909784
-0.00843862
-0.00764017
-0.00665303
-0.00540641
-0.00385565
-0.00223642
-0.000849292
0.000162377
-0.00020701
-0.000541375
-0.000999412
-0.0015754
-0.0023679
-0.00335685
-0.00447199
-0.00562954
-0.00676052
-0.00782399
-0.00880005
-0.00967586
-0.0104474
-0.011115
-0.0116812
-0.0121488
-0.0125208
-0.0127999
-0.012989
-0.0130912
-0.0131103
-0.0130511
-0.01292
-0.0127243
-0.0124724
-0.0121733
-0.0118355
-0.0114661
-0.0110697
-0.010646
-0.0101883
-0.00968053
-0.00909524
-0.00839455
-0.00753282
-0.00644924
-0.0050955
-0.00357532
-0.00234468
-0.00148256
-0.000845901
-0.00116853
-0.00163117
-0.0022264
-0.00303499
-0.00403058
-0.00513332
-0.00627406
-0.0073823
-0.00842199
-0.00937447
-0.0102285
-0.010981
-0.0116327
-0.0121857
-0.0126423
-0.013005
-0.0132759
-0.0134572
-0.0135516
-0.0135623
-0.0134942
-0.0133537
-0.0131485
-0.0128878
-0.0125814
-0.012239
-0.0118692
-0.0114782
-0.0110684
-0.0106364
-0.0101702
-0.00964734
-0.00903389
-0.00828875
-0.00736451
-0.00620792
-0.00484689
-0.00378352
-0.00308068
-0.0015116
-0.00181516
-0.00227155
-0.00287299
-0.00367953
-0.00466213
-0.00574041
-0.00685474
-0.00793513
-0.00894883
-0.00987788
-0.0107121
-0.0114487
-0.012088
-0.0126316
-0.0130811
-0.0134381
-0.013704
-0.0138801
-0.0139686
-0.0139723
-0.0138958
-0.0137454
-0.0135295
-0.0132579
-0.0129413
-0.0125908
-0.0122163
-0.0118256
-0.0114233
-0.0110088
-0.0105743
-0.010102
-0.00956276
-0.00891963
-0.008134
-0.00715821
-0.00600901
-0.00510068
-0.00451973
-0.00215844
-0.00243852
-0.00288042
-0.00347657
-0.0042714
-0.00522931
-0.00627652
-0.00735987
-0.00841102
-0.00939918
-0.0103068
-0.0111241
-0.0118483
-0.0124789
-0.0130166
-0.0134623
-0.0138166
-0.0140801
-0.0142534
-0.0143378
-0.0143357
-0.0142514
-0.0140911
-0.0138635
-0.0135793
-0.0132504
-0.0128891
-0.0125065
-0.0121121
-0.0117121
-0.0113086
-0.0108972
-0.0104645
-0.00998617
-0.00942926
-0.00875972
-0.00793814
-0.0069921
-0.0062343
-0.00575232
-0.00275096
-0.00300531
-0.00342739
-0.00400969
-0.00478506
-0.00571366
-0.0067285
-0.0077798
-0.0088027
-0.00976749
-0.0106567
-0.0114607
-0.0121758
-0.012801
-0.013336
-0.0137808
-0.0141351
-0.0143986
-0.0145711
-0.014653
-0.0146463
-0.0145548
-0.0143847
-0.014145
-0.0138472
-0.0135043
-0.01313
-0.0127368
-0.0123356
-0.011934
-0.0115359
-0.01114
-0.0107369
-0.0103067
-0.00982041
-0.00924657
-0.0085554
-0.00778508
-0.00715956
-0.00675747
-0.00325959
-0.00348995
-0.00389034
-0.00445401
-0.00520432
-0.00610165
-0.0070858
-0.00810635
-0.00910343
-0.010048
-0.0109223
-0.0117165
-0.012426
-0.0130489
-0.0135839
-0.0140302
-0.0143867
-0.0146521
-0.0148253
-0.0149063
-0.0148961
-0.0147983
-0.0146188
-0.014367
-0.014055
-0.0136972
-0.0133085
-0.012903
-0.0124926
-0.0120863
-0.0116894
-0.0113027
-0.0109201
-0.0105264
-0.0100964
-0.00960034
-0.0090163
-0.00838212
-0.00787133
-0.00753684
-0.00367282
-0.00387362
-0.00425481
-0.00479826
-0.00552056
-0.0063854
-0.00734099
-0.00833296
-0.00930714
-0.0102349
-0.0110979
-0.0118857
-0.0125927
-0.0132159
-0.0137534
-0.0142033
-0.0145636
-0.0148323
-0.0150077
-0.0150889
-0.0150764
-0.014973
-0.0147849
-0.0145213
-0.0141953
-0.0138222
-0.0134186
-0.0129998
-0.012579
-0.0121659
-0.0117669
-0.0113841
-0.0110145
-0.0106469
-0.01026
-0.00982521
-0.00932747
-0.0088
-0.00837955
-0.00809989
-0.00397882
-0.00415612
-0.00451519
-0.0050386
-0.00573085
-0.00656152
-0.00748931
-0.00845474
-0.00940878
-0.0103228
-0.0111778
-0.0119622
-0.0126694
-0.0132954
-0.0138372
-0.0142923
-0.0146579
-0.0149312
-0.0151098
-0.015192
-0.0151779
-0.01507
-0.014874
-0.0145995
-0.0142601
-0.0138723
-0.013454
-0.0130219
-0.0125901
-0.0121693
-0.011766
-0.0113834
-0.0110203
-0.0106698
-0.0103141
-0.00992668
-0.00949683
-0.00905189
-0.00869957
-0.00846287
-0.00417441
-0.00433378
-0.00467185
-0.00517464
-0.00583654
-0.00663146
-0.00752822
-0.00846892
-0.00940466
-0.0103073
-0.0111567
-0.0119402
-0.0126498
-0.0132806
-0.0138286
-0.0142904
-0.0146624
-0.0149412
-0.0151236
-0.0152076
-0.0151926
-0.0150809
-0.014878
-0.0145937
-0.0142421
-0.0138408
-0.0134088
-0.0129643
-0.0125223
-0.0120936
-0.0116851
-0.0112999
-0.0109382
-0.0105973
-0.0102631
-0.00991177
-0.00953507
-0.00915403
-0.00884937
-0.00864267
-0.00427478
-0.00441542
-0.00473124
-0.00521079
-0.00584202
-0.00660002
-0.00745886
-0.00837462
-0.00929278
-0.010185
-0.0110304
-0.0118147
-0.0125287
-0.013166
-0.0137217
-0.0141914
-0.0145709
-0.0148559
-0.0150429
-0.0151292
-0.0151141
-0.0149994
-0.0147906
-0.0144979
-0.0141358
-0.0137229
-0.0132792
-0.012824
-0.0123731
-0.0119373
-0.0115235
-0.0111344
-0.0107709
-0.0104324
-0.0101112
-0.00978682
-0.00944983
-0.00911497
-0.00885062
-0.00865746
-0.00429705
-0.00441754
-0.00470696
-0.00515725
-0.00575339
-0.0064731
-0.0072899
-0.0081741
-0.00907289
-0.00995431
-0.010796
-0.0115821
-0.0123017
-0.012947
-0.0135119
-0.0139908
-0.0143788
-0.0146711
-0.0148634
-0.0149529
-0.0149384
-0.0148218
-0.0146086
-0.0143092
-0.0139389
-0.0135169
-0.0130642
-0.0126007
-0.0121427
-0.0117013
-0.0112828
-0.0108892
-0.0105213
-0.0101805
-0.00986464
-0.00955923
-0.00925021
-0.00894372
-0.00872099
-0.0085252
-0.00425953
-0.00435874
-0.0046157
-0.00502819
-0.00558101
-0.00625639
-0.00702975
-0.00787502
-0.00874865
-0.00961619
-0.0104529
-0.0112407
-0.0119667
-0.0126212
-0.0131966
-0.0136862
-0.0140841
-0.0143848
-0.0145837
-0.0146775
-0.0146649
-0.014548
-0.0143323
-0.0140287
-0.0136529
-0.0132249
-0.0127662
-0.0122973
-0.0118347
-0.0113893
-0.0109669
-0.0105688
-0.0101951
-0.00984838
-0.00953193
-0.00923681
-0.00894768
-0.00865764
-0.00847296
-0.00826306
-0.00418248
-0.00425814
-0.00447471
-0.00483954
-0.00533994
-0.00596128
-0.00668419
-0.00748471
-0.00832611
-0.00917453
-0.0100032
-0.0107916
-0.011524
-0.0121885
-0.0127758
-0.0132777
-0.0136871
-0.013998
-0.0142052
-0.0143051
-0.0142965
-0.0141814
-0.0139659
-0.0136612
-0.0132835
-0.0128531
-0.0123921
-0.011921
-0.0114562
-0.0110084
-0.010583
-0.0101805
-0.00979986
-0.00944446
-0.00912211
-0.00882949
-0.00855275
-0.00826894
-0.00813206
-0.00788137
-0.00408484
-0.00413326
-0.00429994
-0.00460664
-0.00504481
-0.00560245
-0.00626462
-0.00701202
-0.00781338
-0.00863636
-0.00945271
-0.0102392
-0.0109773
-0.0116524
-0.0122527
-0.0127685
-0.0131917
-0.013515
-0.0137329
-0.0138415
-0.0138397
-0.0137297
-0.013518
-0.0132161
-0.0128408
-0.0124124
-0.011953
-0.0114829
-0.0110183
-0.0105694
-0.0101413
-0.00973413
-0.00934581
-0.00897956
-0.00864701
-0.00835014
-0.00807711
-0.00778665
-0.00770847
-0.00738612
-0.00397927
-0.00399648
-0.00410431
-0.00434308
-0.00470933
-0.0051938
-0.00578565
-0.00647038
-0.00722283
-0.00801278
-0.00881107
-0.00959206
-0.0103342
-0.0110197
-0.0116342
-0.0121661
-0.0126054
-0.012944
-0.0131758
-0.0132967
-0.0133056
-0.0132049
-0.0130015
-0.0127075
-0.0123395
-0.011918
-0.0114644
-0.0109985
-0.0105359
-0.0100866
-0.00965546
-0.00924254
-0.00884521
-0.00846603
-0.00811916
-0.00781185
-0.00753664
-0.00722416
-0.00718634
-0.00677745
-0.003869
-0.0038528
-0.00389683
-0.00406008
-0.00434625
-0.0047488
-0.00526213
-0.00587599
-0.00657099
-0.00731987
-0.00809357
-0.00886437
-0.00960776
-0.0103029
-0.0109325
-0.0114822
-0.0119405
-0.0122979
-0.0125476
-0.0126852
-0.0127096
-0.0126236
-0.0124341
-0.0121536
-0.0117987
-0.011389
-0.0109452
-0.0104864
-0.0100272
-0.00957735
-0.00914171
-0.00872092
-0.00831239
-0.00791774
-0.00755238
-0.00723033
-0.00695007
-0.00657769
-0.00655814
-0.0060358
-0.00374938
-0.00370097
-0.00368298
-0.00376699
-0.00396651
-0.0042803
-0.00470866
-0.00524589
-0.00587715
-0.00657847
-0.00732147
-0.00807726
-0.00881875
-0.00952199
-0.0101666
-0.0107358
-0.0112157
-0.0115955
-0.0118674
-0.0120267
-0.0120721
-0.0120064
-0.0118376
-0.0115769
-0.0112406
-0.0108477
-0.0104174
-0.00996776
-0.00951257
-0.00906122
-0.00861883
-0.00818702
-0.00776383
-0.00735026
-0.00696202
-0.0066213
-0.00633109
-0.005833
-0.00583269
-0.00510445
-0.00361403
-0.00353931
-0.0034667
-0.00347142
-0.00357947
-0.00380002
-0.00413973
-0.00459748
-0.00516189
-0.0058121
-0.00652064
-0.00725777
-0.00799446
-0.00870409
-0.00936341
-0.00995284
-0.0104565
-0.010862
-0.0111603
-0.0113463
-0.0114185
-0.0113796
-0.011237
-0.011002
-0.0106897
-0.0103178
-0.00990415
-0.00946519
-0.00901405
-0.00855977
-0.0081078
-0.00766072
-0.0072178
-0.00678046
-0.00636381
-0.00599165
-0.00565558
-0.00501756
-0.00501557
-0.00392916
-0.00346092
-0.00336995
-0.00325139
-0.00317897
-0.00319353
-0.00331873
-0.00356914
-0.00394786
-0.00444608
-0.00504496
-0.00571826
-0.00643557
-0.0071661
-0.00788101
-0.00855457
-0.00916484
-0.0096938
-0.0101275
-0.0104558
-0.0106728
-0.0107766
-0.0107695
-0.0106585
-0.0104542
-0.0101703
-0.00982298
-0.00942844
-0.00900156
-0.00855451
-0.00809591
-0.00763135
-0.00716396
-0.00669467
-0.00622547
-0.00577164
-0.00535133
-0.00493482
-0.00410974
-0.00413553
-0.00246495
-0.00329515
-0.00319836
-0.00303992
-0.00289268
-0.0028142
-0.00284524
-0.00300906
-0.00331258
-0.00374905
-0.00430057
-0.00494115
-0.00564002
-0.00636503
-0.0070854
-0.00777335
-0.00840485
-0.00896009
-0.00942358
-0.00978422
-0.0100352
-0.010174
-0.0102026
-0.0101271
-0.00995752
-0.00970522
-0.00938543
-0.00901248
-0.00859942
-0.00815713
-0.00769348
-0.00721355
-0.00672026
-0.00621602
-0.00570288
-0.00519465
-0.00469751
-0.00415661
-0.00309522
-0.00315944
-0.000696256
-0.0031235
-0.00302938
-0.00283418
-0.00261385
-0.00244584
-0.00238747
-0.00247107
-0.00270721
-0.00308992
-0.00360157
-0.00421546
-0.00489976
-0.00562118
-0.00634796
-0.00705059
-0.00770334
-0.00828492
-0.00877867
-0.00917252
-0.00945892
-0.0096348
-0.00970141
-0.00966397
-0.0095309
-0.00931417
-0.00902508
-0.00867649
-0.0082798
-0.00784396
-0.0073755
-0.00687826
-0.00635364
-0.00580398
-0.00522888
-0.00463829
-0.00401417
-0.00328494
-0.00197568
-0.00184564
0.00144074
-0.00296085
-0.00286808
-0.00263496
-0.00234095
-0.00208936
-0.00195025
-0.00196389
-0.00214348
-0.00248302
-0.00296373
-0.00355811
-0.00423303
-0.00495377
-0.00568776
-0.00640479
-0.0070781
-0.0076854
-0.00820917
-0.00863659
-0.00895951
-0.00917421
-0.0092812
-0.00928469
-0.00919202
-0.00901264
-0.00875666
-0.00843462
-0.0080564
-0.0076283
-0.00715481
-0.00663776
-0.00607419
-0.0054629
-0.00479373
-0.00406706
-0.00322767
-0.00219911
-0.000529277
0.000165286
0.00437824
-0.00283557
-0.0027268
-0.00245126
-0.00207718
-0.00174836
-0.00153795
-0.00149114
-0.00162321
-0.00192763
-0.00238374
-0.00296308
-0.00363196
-0.00435509
-0.00509828
-0.00583056
-0.00652508
-0.00715906
-0.0077144
-0.00817754
-0.00853957
-0.00879587
-0.00894591
-0.00899259
-0.00894192
-0.00880145
-0.00857964
-0.00828449
-0.00792272
-0.00749974
-0.00701679
-0.00647324
-0.00585693
-0.00515703
-0.00433813
-0.00337741
-0.00215555
-0.000592166
0.00180029
0.0036414
0.00951504
-0.00278979
-0.00263092
-0.00226835
-0.00181378
-0.00139994
-0.00112234
-0.00102047
-0.00111021
-0.00138466
-0.00182188
-0.00239209
-0.0030612
-0.00379361
-0.00455544
-0.00531437
-0.00604003
-0.00670803
-0.00729986
-0.00780166
-0.00820421
-0.00850205
-0.00869382
-0.00878106
-0.00876857
-0.00866208
-0.00846852
-0.00819425
-0.00784481
-0.00742307
-0.00692385
-0.00633876
-0.00564571
-0.00481632
-0.00376644
-0.0024254
-0.000546916
0.00198162
0.0058593
0.0101445
0.0197244
-0.00298205
-0.00268605
-0.00216023
-0.00158847
-0.00109146
-0.000748346
-0.00059904
-0.000656563
-0.000912001
-0.00134139
-0.0019128
-0.00259083
-0.00333793
-0.00411904
-0.00490244
-0.00565852
-0.00636103
-0.00698979
-0.00752912
-0.00796888
-0.00830236
-0.00852793
-0.00864594
-0.00866056
-0.00857614
-0.00839936
-0.00813481
-0.00778675
-0.00735448
-0.0068281
-0.0061912
-0.00540007
-0.00440032
-0.00304533
-0.00117634
0.00167094
0.00575846
0.0124408
0.0215081
0.0379768
-0.00385931
-0.00290533
-0.00207299
-0.00134298
-0.00075252
-0.000348537
-0.000163445
-0.000205383
-0.000459449
-0.000897127
-0.00148325
-0.00218085
-0.00295095
-0.00375662
-0.00456459
-0.00534727
-0.0060782
-0.00673663
-0.00730462
-0.00777187
-0.00812973
-0.00837744
-0.00851345
-0.0085437
-0.00846983
-0.00830095
-0.0080373
-0.00768498
-0.0072356
-0.00668376
-0.00600061
-0.00513948
-0.00399452
-0.0023736
3.77199e-05
0.00403094
0.0103611
0.0214931
0.0381813
0.0643234
-0.00568056
-0.00183269
-0.000654753
-6.75763e-05
0.000429709
0.000783626
0.000911586
0.000795886
0.000461989
-5.1712e-05
-0.000706402
-0.00146513
-0.00229092
-0.00314768
-0.00400189
-0.00482489
-0.00559166
-0.00628087
-0.00687607
-0.00736539
-0.0077428
-0.00800508
-0.00815446
-0.00819304
-0.00812778
-0.00796141
-0.00770062
-0.0073415
-0.00688122
-0.00629613
-0.00555856
-0.00461272
-0.00340851
-0.00173745
0.00103726
0.00595087
0.015259
0.0315264
0.0573137
0.0902355
)
;

boundaryField
{
    movingWall
    {
        type            zeroGradient;
    }
    fixedWalls
    {
        type            zeroGradient;
    }
    frontAndBack
    {
        type            empty;
    }
}


// ************************************************************************* //
