/*--------------------------------*- C++ -*----------------------------------*\
  =========                 |
  \\      /  F ield         | OpenFOAM: The Open Source CFD Toolbox
   \\    /   O peration     | Website:  https://openfoam.org
    \\  /    A nd           | Version:  13
     \\/     M anipulation  |
\*---------------------------------------------------------------------------*/
FoamFile
{
    format      ascii;
    class       volScalarField;
    location    "2.1";
    object      epsilon;
}
// * * * * * * * * * * * * * * * * * * * * * * * * * * * * * * * * * * * * * //

dimensions      [0 2 -3 0 0 0 0];

internalField   nonuniform List<scalar> 
6400
(
1.11135e-05
5.5518e-05
0.000122037
0.000195158
0.000268493
0.00034143
0.000415675
0.000493323
0.000576623
0.000667392
0.000767751
0.000880474
0.00100872
0.00115576
0.00132457
0.00151735
0.00173507
0.00197732
0.0022425
0.00252772
0.00282914
0.00314264
0.00346455
0.00379263
0.00412682
0.00447018
0.00483003
0.00521793
0.00564389
0.00610221
0.00658202
0.00708668
0.00762537
0.00820014
0.00880974
0.00944563
0.0101017
0.0107793
0.0114787
0.0122023
0.0129538
0.0137386
0.0145587
0.0154057
0.0162663
0.0171402
0.018022
0.018921
0.019874
0.0210018
0.0222076
0.0233494
0.0244219
0.0253754
0.0261655
0.0267089
0.0270036
0.0271118
0.0268644
0.0261927
0.0251378
0.0237136
0.0219474
0.0199094
0.0176366
0.0152034
0.012678
0.0101947
0.0078721
0.00581614
0.00415213
0.00286271
0.00188723
0.00119183
0.000723964
0.000425575
0.00024225
0.000129026
5.5525e-05
1.11235e-05
5.56656e-05
4.66476e-05
6.84792e-05
9.91829e-05
0.000132825
0.000168443
0.000206197
0.000246669
0.000290708
0.00033931
0.00039408
0.000457351
0.000532144
0.000622082
0.000731225
0.000863834
0.00102411
0.00121577
0.00144182
0.0017045
0.00200546
0.00234604
0.0027277
0.00315261
0.0036238
0.00414487
0.00471843
0.00533929
0.00599987
0.00670327
0.00745263
0.0082131
0.00895837
0.00966196
0.0103044
0.0108796
0.0113871
0.0118294
0.0122148
0.0125553
0.0128653
0.0131503
0.013392
0.0135932
0.0137844
0.0139696
0.0141572
0.0143567
0.0145724
0.0148076
0.0150615
0.015296
0.0155125
0.0156866
0.0157867
0.015822
0.0157742
0.0156124
0.0152942
0.0148076
0.0141424
0.0132992
0.0122847
0.0111184
0.00984415
0.00850196
0.0071448
0.00583005
0.00460888
0.00352518
0.00262087
0.00189026
0.00131024
0.000865671
0.000542374
0.000321834
0.000181165
9.62952e-05
5.13447e-05
5.75915e-05
0.000127643
7.66742e-05
8.1996e-05
0.000101905
0.000129311
0.000161869
0.000199245
0.000241685
0.00029004
0.000345783
0.000411418
0.000490454
0.000587298
0.000707123
0.000855649
0.00103889
0.00126317
0.00153367
0.00185414
0.00222685
0.00265215
0.00312847
0.00365235
0.00421842
0.00481926
0.00544529
0.00608528
0.0067282
0.00735355
0.00792637
0.0084134
0.00883088
0.00919309
0.00952097
0.00980384
0.00999987
0.0101552
0.0102789
0.010382
0.010474
0.0105613
0.0106552
0.0107833
0.0109533
0.0111497
0.0113769
0.0116358
0.0119275
0.0122496
0.0125933
0.0129525
0.0133141
0.0136684
0.0139985
0.0142868
0.0145151
0.01463
0.0146588
0.014543
0.0142725
0.0138116
0.0131571
0.0123152
0.011307
0.0101522
0.00888944
0.00757349
0.0062618
0.00501261
0.00387769
0.00289688
0.00208706
0.00144887
0.000967974
0.00062183
0.000383064
0.000224991
0.000126537
8.26648e-05
0.000140213
0.000224853
0.000122933
0.000115861
0.000132598
0.000160894
0.000197125
0.000240838
0.000292612
0.000353897
0.000427251
0.000516339
0.000625976
0.000762022
0.000931095
0.00114017
0.00139596
0.00170395
0.00206827
0.00249055
0.00296886
0.00349724
0.00406549
0.00465944
0.00526162
0.00585253
0.00641233
0.00692288
0.00736944
0.00773911
0.00803709
0.00828796
0.00848375
0.00860198
0.00867436
0.00871567
0.00877059
0.00882574
0.00888946
0.00896923
0.00907088
0.00919976
0.00936124
0.00955959
0.00979419
0.0100632
0.0103681
0.0107078
0.011081
0.0114849
0.0119145
0.0123644
0.0128265
0.0132912
0.0137448
0.0141711
0.01455
0.014862
0.0150835
0.0151742
0.0151395
0.0148843
0.0144012
0.0136823
0.0127499
0.0116164
0.0103182
0.00891126
0.00746035
0.00603619
0.00470744
0.00353124
0.00254445
0.00176044
0.00117226
0.000753673
0.000469595
0.000284036
0.000169699
0.000125413
0.000235913
0.000348175
0.000180327
0.000160222
0.000176269
0.000208048
0.000251041
0.000304769
0.000370344
0.000450108
0.000547691
0.000667999
0.000817059
0.00100169
0.00122901
0.00150577
0.00183749
0.00222752
0.00267599
0.00317871
0.00372613
0.00430309
0.0048895
0.00546202
0.00599684
0.00647291
0.00687471
0.00719398
0.00743657
0.00763185
0.00775687
0.00781091
0.00783352
0.00785025
0.0078585
0.00787513
0.00791024
0.00796277
0.00803848
0.00814016
0.00827024
0.00843057
0.00862261
0.00884711
0.00910412
0.0093939
0.00971699
0.0100732
0.0104624
0.0108837
0.0113351
0.0118139
0.0123156
0.0128337
0.013359
0.0138785
0.0143747
0.0148256
0.0152021
0.0154815
0.0156181
0.0156504
0.0154923
0.0150674
0.0143129
0.0132915
0.0120319
0.0105848
0.00901479
0.00740352
0.00584121
0.00441292
0.00318482
0.00219391
0.00144523
0.000915557
0.000563056
0.000340397
0.00020956
0.000166574
0.000324797
0.000498748
0.000247534
0.00021336
0.000229425
0.000266352
0.000318167
0.00038456
0.0004674
0.000570057
0.000697273
0.000854975
0.00104988
0.00128891
0.0015784
0.00192324
0.00232581
0.00278487
0.00329438
0.00384252
0.00441135
0.00497773
0.00551569
0.00600008
0.00641071
0.00673568
0.00697273
0.0071483
0.00725419
0.00728736
0.0072903
0.00727663
0.00725464
0.00724141
0.00723643
0.00724723
0.00727916
0.00733163
0.00740686
0.00750547
0.00762812
0.00777531
0.00794737
0.00814474
0.00836831
0.00861918
0.00889871
0.00920839
0.00954974
0.00992412
0.0103327
0.0107761
0.0112543
0.0117658
0.0123076
0.0128739
0.0134544
0.0140341
0.0145934
0.0151049
0.0155305
0.015794
0.0158959
0.015866
0.0155785
0.0148918
0.0138226
0.012467
0.0108751
0.00912778
0.00733396
0.00561511
0.00408072
0.00280828
0.00183104
0.00113742
0.000681726
0.000403074
0.000247985
0.000203564
0.000398342
0.000680606
0.000325492
0.000275165
0.000291515
0.000334904
0.000397488
0.000479154
0.000582601
0.000712214
0.000873648
0.00107337
0.00131797
0.00161329
0.00196345
0.00236983
0.00282998
0.00333661
0.00387665
0.00443101
0.00497556
0.00548364
0.0059301
0.00629578
0.00657106
0.00675943
0.00688027
0.00692265
0.00692183
0.0068897
0.00684302
0.00679552
0.00675261
0.00672124
0.00670511
0.00670006
0.00671281
0.0067423
0.00678799
0.00685031
0.00692918
0.00702494
0.00713834
0.00727053
0.00742271
0.00759671
0.00779458
0.00801893
0.00827283
0.00855978
0.00888363
0.00924841
0.00965801
0.010116
0.010625
0.011186
0.0117976
0.0124538
0.0131446
0.0138525
0.0145471
0.015187
0.0157197
0.0160227
0.0161275
0.0160492
0.0154971
0.0144247
0.0129819
0.0112222
0.00925666
0.00724311
0.00534625
0.00370551
0.00240699
0.00147034
0.000855584
0.000487865
0.000292002
0.000238368
0.000459635
0.000894104
0.00041415
0.000345537
0.000362436
0.00041357
0.000488864
0.000588345
0.000715494
0.000875524
0.00107459
0.00131898
0.00161414
0.00196359
0.0023679
0.00282367
0.00332274
0.00385145
0.00439052
0.00491594
0.0054014
0.00582217
0.00615951
0.00640361
0.00656193
0.006643
0.00665661
0.00662436
0.00656477
0.00649178
0.00641492
0.00634234
0.00627717
0.00622157
0.00617598
0.00614025
0.00611596
0.00610342
0.00609877
0.00610623
0.00612704
0.00616007
0.00620658
0.00626911
0.00634818
0.00644558
0.00656339
0.00670408
0.00687091
0.00706773
0.00729917
0.00757066
0.0078886
0.00826011
0.00869245
0.00919325
0.00976972
0.0104261
0.011162
0.0119719
0.0128452
0.0137542
0.0146559
0.0154824
0.0161407
0.0164689
0.0165748
0.0161994
0.0151509
0.0135944
0.0116078
0.00936878
0.00709587
0.00500909
0.00327905
0.00198983
0.00113007
0.00061836
0.0003525
0.000276215
0.000519212
0.0011377
0.000513046
0.000424295
0.000442075
0.000502242
0.000592124
0.000711762
0.000865239
0.00105825
0.00129685
0.0015863
0.00192985
0.00232761
0.0027756
0.00326509
0.00378218
0.00430776
0.00481844
0.00528864
0.00569414
0.00601635
0.00624588
0.00638224
0.00643829
0.00643366
0.00637959
0.00629556
0.0061959
0.00609064
0.00598506
0.00588305
0.00578613
0.0056952
0.00561112
0.00553468
0.00546685
0.00540835
0.00535989
0.00532355
0.00530119
0.00529141
0.0052896
0.00530744
0.00534177
0.0053928
0.00546259
0.00555264
0.00566515
0.00580279
0.00596899
0.00616806
0.00640535
0.00668747
0.00702252
0.00742054
0.00789296
0.00845459
0.00911863
0.00989573
0.0107937
0.0118071
0.0129184
0.0140879
0.0152407
0.0162593
0.0169146
0.0171865
0.0170148
0.0159998
0.0142518
0.0119708
0.00939848
0.00683729
0.00457261
0.00279791
0.00157208
0.000830611
0.00044609
0.000325452
0.000592652
0.00140934
0.000621797
0.000511117
0.000530111
0.000600542
0.000706718
0.000848484
0.00103023
0.00125766
0.00153602
0.00186868
0.00225576
0.00269317
0.00317198
0.00367819
0.004193
0.00469365
0.00515533
0.00555429
0.00587168
0.00609639
0.00622076
0.00626688
0.00624784
0.00617636
0.006071
0.00594603
0.00581123
0.0056727
0.00553375
0.00539702
0.00526431
0.00513747
0.00501838
0.00490894
0.00481096
0.00472594
0.00465514
0.00459964
0.00455988
0.00453742
0.00452801
0.00452894
0.00455382
0.00459287
0.00464936
0.00472329
0.00481591
0.00492866
0.00506352
0.00522307
0.00541064
0.00563058
0.00588864
0.00619226
0.00655161
0.00698018
0.00749535
0.00811948
0.00887723
0.00979627
0.010891
0.0121563
0.0135661
0.015042
0.0164399
0.0174583
0.0179111
0.0179312
0.0168857
0.0148801
0.0122225
0.00926104
0.00640888
0.00401643
0.00227339
0.00117862
0.000599351
0.000398753
0.000699325
0.00170647
0.000739854
0.000605474
0.000625944
0.000707708
0.000831587
0.000996929
0.00120805
0.00147009
0.00178678
0.0021588
0.0025825
0.00304919
0.00354508
0.00405161
0.00454652
0.00500554
0.0054051
0.00572579
0.00595477
0.0060768
0.00611979
0.00609388
0.00600953
0.00588564
0.00573698
0.00557406
0.00540372
0.0052306
0.00505821
0.00488971
0.00472835
0.00457735
0.00443959
0.00431747
0.00421275
0.00412641
0.00405877
0.00400977
0.00398047
0.00396777
0.00396524
0.00398122
0.00401493
0.004062
0.00412406
0.00420071
0.0042926
0.0044005
0.00452562
0.00466953
0.0048343
0.00502259
0.00523782
0.00548441
0.00576826
0.00609732
0.00648364
0.00694443
0.00750432
0.00820109
0.00908108
0.0101861
0.0115491
0.0131553
0.0149342
0.0167125
0.0181253
0.0187888
0.0189006
0.0177485
0.0153819
0.01225
0.00886569
0.00576577
0.00334447
0.00173682
0.000852711
0.000514892
0.000862513
0.00202582
0.000866418
0.000706563
0.000728644
0.00082256
0.000965138
0.00115487
0.00139555
0.00169116
0.00204328
0.0024493
0.00290142
0.00338639
0.00388608
0.00437851
0.00483964
0.0052458
0.00557671
0.00581759
0.00594665
0.00599339
0.00596718
0.00587537
0.00573672
0.00556719
0.00537865
0.00517947
0.0049757
0.0047723
0.00457415
0.00438588
0.00421194
0.00405605
0.00392083
0.00380778
0.00371729
0.00364888
0.00360131
0.00357606
0.00356651
0.00356623
0.0035855
0.00361891
0.00366543
0.00372398
0.00379494
0.00387827
0.00397453
0.00408447
0.00420911
0.00434972
0.00450779
0.00468506
0.00488353
0.00510561
0.00535437
0.00563401
0.00595066
0.00631362
0.00673697
0.00723936
0.00785866
0.00866529
0.00973588
0.0111438
0.0129063
0.0149727
0.0171473
0.0189399
0.0197698
0.0199085
0.0185054
0.0156195
0.0119291
0.00813209
0.00489762
0.00259673
0.00125881
0.000700638
0.00111081
0.0023628
0.00100041
0.000813345
0.000836973
0.000943524
0.00110531
0.00131956
0.00158906
0.00191612
0.00229961
0.00273327
0.00320509
0.00369765
0.00418928
0.00465592
0.00507344
0.00542058
0.00568095
0.00582805
0.00588312
0.00586331
0.00577056
0.00562235
0.00543597
0.00522534
0.0050007
0.0047699
0.00453979
0.00431679
0.00410714
0.00391627
0.0037484
0.00360613
0.00349035
0.00340056
0.00333519
0.00329241
0.0032717
0.00326467
0.00326856
0.00328944
0.00332261
0.00336694
0.00342167
0.00348671
0.00356235
0.00364907
0.00374769
0.00385926
0.003985
0.00412629
0.0042846
0.00446143
0.00465824
0.00487645
0.0051175
0.00538306
0.00567542
0.00599849
0.00635906
0.00676908
0.00724461
0.00781499
0.00854003
0.00953938
0.0109573
0.0128484
0.0151929
0.0177733
0.0199091
0.0208463
0.0209212
0.019
0.0154448
0.0111297
0.00702369
0.00385286
0.00187905
0.000989199
0.00147162
0.00271228
0.00114049
0.000924547
0.000949419
0.0010687
0.00124968
0.00148788
0.00178465
0.00214014
0.00255015
0.00300466
0.00348762
0.00397803
0.00445173
0.00488385
0.00525175
0.00553785
0.00571407
0.00578246
0.00577696
0.00569122
0.00554013
0.00534226
0.0051138
0.0048673
0.00461286
0.00435922
0.00411464
0.0038867
0.00368184
0.0035046
0.00335732
0.00324014
0.00315152
0.00308872
0.00304952
0.003031
0.003025
0.00302913
0.00304804
0.00307763
0.00311638
0.00316388
0.00322004
0.00328525
0.00336017
0.00344573
0.00354309
0.00365363
0.00377889
0.00392053
0.00408029
0.00425987
0.00446086
0.00468456
0.00493188
0.00520318
0.00549856
0.00581824
0.00616354
0.00653863
0.00695344
0.0074219
0.00796786
0.00865149
0.00959011
0.010991
0.0130065
0.0156301
0.0186237
0.0210329
0.0220107
0.0218116
0.0190802
0.0146624
0.00977032
0.00559212
0.00277763
0.00141636
0.00196435
0.00306865
0.00128512
0.00103872
0.00106427
0.00119597
0.00139558
0.00165655
0.00197834
0.0023586
0.00278989
0.00325845
0.00374464
0.00422459
0.00467266
0.00506429
0.00537951
0.00559475
0.00568839
0.00570062
0.00563208
0.00548647
0.0052839
0.00504275
0.00477833
0.00450323
0.00422842
0.00396392
0.0037188
0.00350045
0.0033138
0.00316092
0.00304119
0.00295208
0.00288961
0.00285036
0.00283155
0.00282505
0.00282513
0.00283877
0.00286159
0.0028919
0.00292937
0.00297408
0.00302648
0.00308734
0.00315763
0.00323858
0.00333162
0.00343837
0.00356064
0.00370041
0.00385978
0.00404089
0.00424583
0.00447639
0.00473391
0.00501894
0.00533093
0.00566814
0.00602823
0.00640952
0.00681299
0.00724622
0.00772246
0.00826189
0.0089298
0.00984982
0.0112445
0.0134111
0.0163419
0.0197631
0.0222824
0.0231801
0.0223163
0.0184818
0.0131144
0.00788223
0.00401989
0.00201765
0.00259406
0.00342609
0.00143263
0.00115428
0.00117968
0.00132308
0.00154029
0.00182228
0.00216632
0.00256734
0.00301458
0.0034908
0.00397327
0.00443609
0.00485303
0.00520046
0.00545876
0.0055915
0.00563061
0.00558635
0.00545589
0.00525703
0.00500971
0.00473197
0.00443927
0.00414501
0.00386123
0.00359858
0.00336559
0.00316775
0.00300706
0.00288233
0.00279015
0.00272555
0.00268319
0.00266028
0.00265032
0.00264752
0.00265208
0.00266644
0.00268676
0.00271291
0.00274506
0.00278373
0.00282968
0.00288389
0.00294753
0.00302196
0.0031087
0.00320952
0.0033264
0.00346155
0.00361743
0.00379665
0.00400194
0.0042359
0.00450081
0.0047982
0.0051284
0.00549005
0.00587962
0.00629168
0.00672061
0.00716366
0.00762592
0.00811943
0.00866633
0.00933469
0.0102626
0.0117125
0.0140875
0.0173991
0.0212657
0.0235898
0.0242088
0.0221531
0.0169185
0.0107578
0.00566982
0.00282429
0.00334473
0.00377881
0.00158125
0.00126961
0.00129379
0.00144779
0.00168112
0.00198197
0.00234515
0.00276275
0.00322081
0.00369895
0.00417194
0.00461255
0.00499503
0.00529802
0.00548677
0.0055575
0.00554569
0.00544088
0.00525585
0.00501062
0.00472547
0.00441882
0.00410688
0.00380399
0.00352267
0.00327286
0.00306099
0.00288937
0.00275651
0.00265828
0.00258887
0.00254203
0.00251238
0.00249647
0.00248919
0.00248689
0.00249017
0.00250047
0.00251525
0.00253506
0.00256039
0.00259199
0.00263076
0.00267775
0.00273417
0.00280135
0.00288084
0.00297441
0.00308408
0.00321221
0.00336149
0.00353496
0.00373592
0.00396786
0.00423419
0.00453786
0.00488083
0.00526333
0.00568311
0.00613455
0.00660853
0.00709442
0.00758448
0.00808203
0.00859675
0.00915646
0.0098427
0.0108142
0.0123956
0.015091
0.0189225
0.0230413
0.024886
0.0249573
0.0208755
0.0141957
0.00777709
0.00385879
0.00417642
0.00412083
0.00172917
0.00138313
0.00140479
0.00156794
0.00181557
0.0021328
0.00251183
0.0029419
0.00340606
0.00388119
0.00434009
0.00475474
0.0050998
0.00535221
0.00547177
0.0054957
0.00543104
0.00527203
0.00503931
0.00475462
0.00443911
0.00411203
0.00379044
0.00348912
0.00321988
0.00299055
0.00280427
0.0026597
0.00255226
0.00247545
0.00242217
0.00238615
0.00236262
0.00234792
0.00233922
0.00233516
0.00233418
0.00233828
0.00234668
0.00235987
0.00237848
0.00240333
0.00243533
0.00247551
0.00252498
0.00258501
0.00265704
0.00274276
0.00284418
0.00296367
0.00310401
0.0032685
0.00346089
0.00368539
0.00394649
0.00424866
0.00459581
0.00499052
0.005433
0.00591986
0.00644283
0.00698799
0.00753747
0.00807561
0.00860039
0.0091289
0.00972211
0.0104416
0.0115033
0.0133136
0.016462
0.0209567
0.0249297
0.0262592
0.0245144
0.0180758
0.0103838
0.00513589
0.00506733
0.0044464
0.0018747
0.00149334
0.00151098
0.00168159
0.00194141
0.00227233
0.00266389
0.00310255
0.00356861
0.00403668
0.00447817
0.00486506
0.00517308
0.00536333
0.005432
0.00541359
0.00529423
0.00508691
0.00481314
0.00449612
0.00415811
0.00381926
0.00349711
0.00320589
0.00295545
0.00275042
0.00259021
0.00247017
0.00238334
0.00232184
0.00227846
0.00224775
0.00222569
0.00220943
0.00219728
0.00218854
0.00218365
0.00218193
0.00218394
0.00219111
0.00220385
0.00222286
0.00224899
0.00228314
0.00232633
0.00237968
0.00244453
0.00252243
0.00261527
0.00272534
0.00285542
0.00300887
0.00318968
0.00340253
0.00365274
0.00394606
0.0042883
0.00468461
0.00513839
0.00564983
0.00621409
0.00681951
0.00744637
0.00806866
0.00866285
0.00920983
0.0097351
0.0103481
0.0111373
0.0123549
0.0145698
0.0183612
0.0235659
0.0266384
0.027085
0.0221274
0.0135348
0.00665048
0.00597041
0.00475061
0.00201627
0.00159883
0.00161086
0.00178701
0.00205674
0.00239861
0.00279945
0.00324312
0.0037075
0.00416527
0.00458683
0.00494399
0.00521237
0.00534555
0.00537336
0.00530858
0.00514129
0.0048918
0.00458367
0.00424158
0.00388889
0.00354639
0.00323133
0.00295632
0.00272827
0.00254808
0.00241166
0.00231187
0.00224021
0.0021885
0.00215035
0.00212125
0.00209803
0.00207876
0.00206257
0.0020493
0.00203923
0.0020331
0.00203071
0.00203231
0.00204011
0.00205427
0.00207545
0.00210442
0.00214207
0.0021894
0.00224759
0.00231806
0.00240254
0.00250318
0.00262263
0.00276417
0.00293183
0.00313049
0.00336594
0.00364484
0.00397452
0.00436243
0.00481523
0.00533724
0.00592833
0.00658134
0.00727951
0.00799454
0.00868934
0.00934924
0.00990872
0.0104287
0.0110512
0.0119421
0.0134272
0.0163203
0.0210649
0.026307
0.0282608
0.0259516
0.0172399
0.00846052
0.00689706
0.00502941
0.0021525
0.00169833
0.00170316
0.00188281
0.00216005
0.0025101
0.00291716
0.00336266
0.00382238
0.00426751
0.00466791
0.00499614
0.00521564
0.00530334
0.00529864
0.00518713
0.00497775
0.00469237
0.00435658
0.00399649
0.00363639
0.00329716
0.00299488
0.00273964
0.00253481
0.00237771
0.00226143
0.00217715
0.00211577
0.00206972
0.00203368
0.00200402
0.00197843
0.00195577
0.0019357
0.00191836
0.00190418
0.00189367
0.00188795
0.00188605
0.00188929
0.0018994
0.0019164
0.00194092
0.00197372
0.00201567
0.00206783
0.00213147
0.00220815
0.00229984
0.002409
0.00253873
0.00269292
0.00287641
0.00309515
0.00335627
0.00366811
0.00403991
0.00448115
0.00500025
0.00560245
0.00628681
0.00704262
0.00784579
0.00865647
0.00942365
0.0101186
0.0106802
0.0111854
0.0118389
0.012896
0.0148415
0.0187096
0.0246825
0.0286076
0.0289701
0.02142
0.0106744
0.00793885
0.00527948
0.00228241
0.00179051
0.00178699
0.00196796
0.00225026
0.00260579
0.00301621
0.00346077
0.00391346
0.00434431
0.00472292
0.00502177
0.00519688
0.00524758
0.00520648
0.00505436
0.00480869
0.00449363
0.00413664
0.00376514
0.00340392
0.0030733
0.00278741
0.0025532
0.00237048
0.00223345
0.00213327
0.00206015
0.0020053
0.00196213
0.00192632
0.00189507
0.00186683
0.00184099
0.00181756
0.00179685
0.00177936
0.00176561
0.00175658
0.00175257
0.00175213
0.0017586
0.00177199
0.00179262
0.00182113
0.00185829
0.00190505
0.00196252
0.00203213
0.00211563
0.00221528
0.00233392
0.0024752
0.00264375
0.00284539
0.00308736
0.00337851
0.0037292
0.00415106
0.00465598
0.00525433
0.00595193
0.00674587
0.00761942
0.00853725
0.00944369
0.0102882
0.0109754
0.0115099
0.0119888
0.01274
0.0141041
0.0169361
0.0222021
0.0284502
0.0306386
0.0258445
0.0134385
0.0092391
0.0054984
0.00240507
0.00187495
0.00186168
0.00204171
0.00232666
0.00268508
0.00309628
0.00353753
0.00398131
0.00439667
0.00475244
0.00501956
0.00515553
0.00517948
0.00510206
0.0049148
0.00463859
0.00429983
0.00392766
0.00355051
0.00319323
0.00287488
0.00260708
0.00239345
0.00223053
0.00211015
0.00202224
0.00195684
0.00190588
0.00186386
0.00182732
0.00179418
0.00176346
0.00173492
0.00170875
0.00168537
0.00166528
0.00164901
0.00163709
0.00163058
0.00162833
0.00163132
0.00164146
0.0016586
0.00168327
0.00171614
0.00175806
0.00181004
0.00187333
0.00194953
0.00204064
0.00214925
0.0022787
0.00243329
0.00261854
0.00284152
0.0031111
0.00343823
0.00383588
0.00431859
0.00490112
0.00559585
0.00640843
0.0073318
0.00833932
0.00937823
0.0103698
0.011249
0.0119038
0.0123665
0.0128245
0.0138092
0.0157558
0.0200138
0.0270659
0.0313626
0.0300032
0.0168558
0.0108566
0.00568459
0.00251968
0.00195131
0.00192673
0.00210367
0.0023889
0.0027478
0.00315742
0.00359333
0.00402669
0.00442578
0.00475983
0.00500041
0.00509867
0.00510009
0.00498948
0.0047724
0.00447124
0.00411439
0.00373241
0.00335439
0.00300473
0.00270075
0.00245124
0.00225661
0.00211067
0.00200362
0.00192477
0.00186452
0.00181575
0.00177392
0.00173628
0.00170134
0.0016685
0.00163777
0.00160944
0.00158394
0.00156176
0.00154338
0.00152925
0.00152034
0.00151663
0.00151657
0.00152364
0.00153759
0.00155876
0.00158776
0.00162535
0.00167243
0.00173015
0.00179992
0.00188352
0.00198329
0.00210222
0.00224423
0.00241444
0.00261954
0.00286814
0.00317122
0.00354241
0.00399797
0.00455603
0.00523464
0.00604785
0.00699949
0.00807465
0.00923068
0.0103902
0.0114645
0.0123016
0.0128638
0.0132255
0.01377
0.0151904
0.0183909
0.0247727
0.0315625
0.0330622
0.0210694
0.0126669
0.00583727
0.00262578
0.00201937
0.00198195
0.00215373
0.00243699
0.00279405
0.0031999
0.00362852
0.00405005
0.00443161
0.00475055
0.00495938
0.00503243
0.00501076
0.00487226
0.00463057
0.00430976
0.00393991
0.00355271
0.00317753
0.00283789
0.00254905
0.00231694
0.00213912
0.00200729
0.00191063
0.00183833
0.00178146
0.00173384
0.00169173
0.00165296
0.00161645
0.00158191
0.00154945
0.00151941
0.00149222
0.00146833
0.00144817
0.00143218
0.00142082
0.00141503
0.00141334
0.00141736
0.0014283
0.00144624
0.00147171
0.0015054
0.00154813
0.00160094
0.00166508
0.00174217
0.00183425
0.00194402
0.00207499
0.00223182
0.0024207
0.00264977
0.00292968
0.00327415
0.00370029
0.00422853
0.00488135
0.00568028
0.00663995
0.00775897
0.00900821
0.010319
0.0115795
0.0126582
0.0133943
0.0137769
0.0141074
0.0149944
0.0172491
0.022628
0.0310639
0.0348349
0.025946
0.0145961
0.0059564
0.00272316
0.00207916
0.00202742
0.00219203
0.00247108
0.0028239
0.00322347
0.00364144
0.00405091
0.00442307
0.00472451
0.00490358
0.00495818
0.00491447
0.00475333
0.00449209
0.00415658
0.00377821
0.00338954
0.00301985
0.00269151
0.00241757
0.00220132
0.0020379
0.00191751
0.00182879
0.00176118
0.00170651
0.00165945
0.00161689
0.0015771
0.00153934
0.00150346
0.00146964
0.00143824
0.00140964
0.00138426
0.00136251
0.00134477
0.00133141
0.00132337
0.00132023
0.00132151
0.0013296
0.00134454
0.00136676
0.00139691
0.00143574
0.00148421
0.00154346
0.00161491
0.00170039
0.00180229
0.00192374
0.00206893
0.00224347
0.00245493
0.00271339
0.00303221
0.00342869
0.00392452
0.00454537
0.00531883
0.00626949
0.00740989
0.00872723
0.0101673
0.0116193
0.0129543
0.0139275
0.014409
0.0146355
0.0150613
0.0166949
0.0209604
0.0295042
0.0356656
0.0310534
0.0166306
0.00604263
0.0028118
0.00213089
0.00206338
0.00221876
0.00249099
0.00283582
0.00322724
0.00363857
0.00404079
0.0043992
0.00468006
0.00483687
0.0048769
0.00481409
0.00463516
0.0043592
0.00401345
0.00363043
0.0032432
0.00288073
0.00256405
0.00230408
0.00210175
0.00195035
0.00183906
0.00175634
0.00169207
0.00163885
0.00159204
0.00154903
0.00150842
0.00146968
0.00143275
0.00139786
0.00136533
0.00133554
0.00130886
0.00128567
0.00126633
0.00125121
0.00124092
0.00123612
0.0012353
0.0012406
0.0012527
0.00127192
0.00129883
0.00133416
0.00137877
0.00143373
0.00150031
0.00158016
0.00167536
0.00178871
0.00192392
0.00208604
0.00228198
0.00252112
0.00281619
0.00318414
0.0036471
0.00423268
0.00497308
0.00590136
0.00704346
0.00840462
0.00995103
0.0115905
0.0131629
0.0144332
0.0150924
0.0153452
0.015535
0.016494
0.0196717
0.0276124
0.0359868
0.035721
0.0185993
0.00609735
0.00289183
0.00217489
0.00209009
0.00223397
0.00249617
0.00283444
0.00322081
0.00362486
0.00401507
0.00435772
0.00462245
0.00476159
0.00479005
0.0047119
0.00451977
0.00423355
0.00388157
0.00349712
0.00311351
0.00275919
0.00245384
0.00220644
0.002016
0.00187439
0.00177021
0.00169198
0.00163011
0.00157787
0.00153117
0.00148777
0.00144653
0.00140705
0.00136932
0.00133356
0.0013001
0.00126927
0.00124143
0.00121693
0.00119612
0.00117937
0.00116707
0.00116021
0.00115789
0.00116058
0.00117003
0.00118646
0.00121039
0.00124252
0.00128369
0.00133486
0.00139722
0.00147223
0.00156177
0.00166828
0.00179505
0.00194659
0.0021291
0.00235121
0.00262482
0.00296622
0.00339731
0.00394662
0.00464944
0.00554559
0.00667282
0.00805358
0.00967454
0.011462
0.0132631
0.014865
0.015801
0.0161098
0.0161622
0.0165337
0.0188535
0.0254626
0.0360949
0.0393008
0.0203235
0.00612086
0.00296351
0.00221155
0.00210791
0.00223795
0.00249292
0.00282505
0.00320263
0.00359545
0.00397298
0.00430288
0.00455379
0.00467949
0.00469915
0.0046097
0.00440867
0.00411632
0.00376165
0.0033784
0.00299992
0.00265406
0.00235922
0.00212276
0.00194217
0.00180836
0.00170964
0.00163473
0.00157458
0.00152303
0.0014764
0.00143272
0.00139103
0.001351
0.00131265
0.00127622
0.00124198
0.00121026
0.00118139
0.0011557
0.00113355
0.00111528
0.00110128
0.00109233
0.00108861
0.00108903
0.001096
0.00110983
0.00113101
0.00116021
0.00119824
0.00124604
0.0013047
0.00137557
0.00146031
0.00156109
0.00168079
0.0018234
0.00199448
0.00220183
0.00245645
0.00277372
0.00317487
0.00368852
0.00435179
0.00520957
0.0063098
0.00769168
0.00936454
0.0112785
0.0132931
0.0151982
0.0165025
0.0169761
0.0170104
0.0170442
0.0184983
0.0238736
0.0353328
0.0416948
0.0216037
0.00611448
0.00302653
0.00224155
0.00211857
0.00223566
0.0024819
0.00280362
0.00316989
0.00355185
0.00391811
0.00423652
0.00447587
0.00459206
0.00460557
0.00450883
0.00430295
0.00400824
0.00365397
0.00327405
0.0029017
0.00256414
0.00227868
0.00205142
0.00187874
0.00175097
0.00165633
0.00158384
0.00152493
0.00147388
0.00142732
0.00138347
0.00134147
0.00130106
0.00126227
0.00122531
0.00119044
0.00115796
0.0011282
0.00110149
0.00107815
0.00105856
0.00104308
0.00103217
0.00102679
0.00102562
0.00103025
0.00104166
0.00106028
0.00108678
0.00112194
0.00116668
0.00122205
0.00128932
0.00136998
0.00146596
0.00157979
0.00171498
0.00187643
0.00207117
0.00230926
0.00260501
0.00297868
0.00345838
0.00408195
0.00489769
0.00596173
0.00732839
0.00902978
0.0110437
0.0132561
0.0154367
0.0171514
0.0178664
0.0179191
0.0177006
0.0184064
0.0227701
0.0338516
0.0428478
0.0224014
0.00609021
0.00308283
0.00226577
0.00212164
0.00222721
0.00246028
0.00277066
0.00312592
0.00349675
0.00385213
0.00416027
0.0043903
0.00450055
0.00451046
0.00441028
0.00420332
0.00390966
0.00355849
0.00318361
0.002818
0.00248826
0.00221089
0.00199106
0.0018245
0.00170121
0.0016095
0.00153871
0.00148067
0.00142999
0.00138352
0.0013396
0.00129745
0.00125681
0.00121772
0.00118037
0.00114501
0.00111193
0.00108144
0.00105385
0.00102951
0.00100876
0.000991959
0.000979501
0.000972345
0.000969906
0.000972446
0.000981637
0.000997899
0.00102188
0.00105438
0.00109631
0.00114873
0.00121282
0.00128998
0.00138194
0.00149093
0.00162
0.00177347
0.00195759
0.00218147
0.00245832
0.00280723
0.00325535
0.00384039
0.00461264
0.00563441
0.00697301
0.00868209
0.0107677
0.0131433
0.0155909
0.01773
0.0187991
0.0189694
0.018559
0.0186464
0.0218788
0.0324253
0.0432401
0.0227699
0.00603775
0.00313148
0.00228512
0.00212027
0.00221049
0.00243064
0.00272877
0.00307223
0.00343171
0.00377661
0.0040756
0.00429853
0.00440598
0.00441474
0.00431468
0.00411011
0.00382062
0.00347491
0.0031065
0.00274794
0.00242537
0.00215471
0.00194062
0.00177849
0.00165831
0.00156853
0.00149884
0.00144137
0.00139097
0.00134462
0.00130073
0.00125854
0.00121781
0.00117856
0.00114097
0.00110527
0.00107174
0.00104069
0.00101242
0.00098726
0.000965556
0.000947656
0.000933929
0.000925146
0.000921541
0.000922312
0.0009295
0.000943586
0.000965233
0.000995254
0.00103459
0.00108429
0.00114553
0.00121966
0.00130825
0.00141325
0.00153734
0.00168428
0.00185958
0.00207141
0.00233188
0.0026588
0.00307806
0.00362662
0.00435558
0.00533161
0.00663288
0.0083333
0.0104686
0.0129843
0.0156805
0.0181938
0.0197109
0.0200916
0.0195323
0.0192222
0.0213949
0.0309154
0.0432538
0.0229113
0.00596758
0.00317408
0.00230074
0.00211544
0.00218828
0.00239425
0.00267924
0.00301028
0.00335822
0.00369302
0.00398393
0.00420167
0.0043091
0.00431906
0.00422239
0.00402339
0.00374091
0.00340268
0.00304194
0.0026907
0.00237455
0.00210923
0.00189925
0.00174002
0.00162168
0.00153296
0.00146383
0.00140668
0.00135648
0.00131027
0.00126648
0.00122436
0.00118367
0.0011444
0.00110671
0.00107083
0.00103702
0.00100559
0.000976826
0.000951063
0.000928628
0.000909865
0.000895134
0.000884955
0.000880157
0.000879578
0.00088496
0.000897062
0.000916551
0.000944261
0.000981164
0.00102835
0.00108702
0.00115848
0.00124421
0.00134595
0.00146603
0.00160771
0.00177579
0.00197756
0.00222401
0.00253163
0.00292488
0.00343952
0.00412652
0.00505523
0.00631242
0.00799019
0.0101539
0.0127854
0.0157114
0.0185922
0.0205913
0.0212236
0.0207034
0.0199491
0.0211898
0.0294683
0.0426151
0.0229441
0.00588007
0.00321055
0.00231298
0.00210573
0.0021613
0.00235227
0.0026234
0.00294147
0.0032777
0.00360273
0.00388656
0.00410063
0.0042105
0.0042239
0.00413352
0.00394296
0.00367003
0.00334121
0.00298918
0.00264545
0.00233499
0.00207371
0.00186632
0.00170856
0.00159091
0.00150244
0.00143338
0.00137628
0.00132618
0.00128011
0.0012365
0.00119457
0.00115403
0.00111487
0.00107723
0.00104133
0.00100741
0.00097578
0.000946726
0.000920565
0.000897617
0.000878213
0.000862699
0.000851459
0.00084542
0.000843851
0.000847666
0.000857992
0.000875508
0.000901075
0.000935712
0.000980563
0.00103687
0.00110596
0.00118925
0.00128834
0.00140525
0.00154276
0.00170506
0.00189855
0.00213315
0.00242401
0.0027941
0.00327765
0.00392476
0.00480611
0.00601484
0.00765875
0.00983183
0.0125564
0.0157019
0.018914
0.0214386