/*--------------------------------*- C++ -*----------------------------------*\
  =========                 |
  \\      /  F ield         | OpenFOAM: The Open Source CFD Toolbox
   \\    /   O peration     | Website:  https://openfoam.org
    \\  /    A nd           | Version:  13
     \\/     M anipulation  |
\*---------------------------------------------------------------------------*/
FoamFile
{
    format      ascii;
    class       volScalarField;
    location    "2.1";
    object      nut;
}
// * * * * * * * * * * * * * * * * * * * * * * * * * * * * * * * * * * * * * //

dimensions      [0 2 -1 0 0 0 0];

internalField   nonuniform List<scalar> 
6400
(
3.81921e-10
1.90804e-09
4.19483e-09
6.70895e-09
9.23075e-09
1.17395e-08
1.42945e-08
1.69686e-08
1.9839e-08
2.29708e-08
2.64365e-08
3.03314e-08
3.47636e-08
3.98445e-08
4.56748e-08
5.23275e-08
5.9833e-08
6.81757e-08
7.72984e-08
8.71007e-08
9.74507e-08
1.08208e-07
1.19248e-07
1.30497e-07
1.41955e-07
1.53733e-07
1.66088e-07
1.79424e-07
1.94075e-07
2.09828e-07
2.26311e-07
2.43663e-07
2.62187e-07
2.81953e-07
3.02911e-07
3.24765e-07
3.47306e-07
3.70581e-07
3.94602e-07
4.19456e-07
4.45261e-07
4.72208e-07
5.00375e-07
5.29468e-07
5.59033e-07
5.89063e-07
6.19375e-07
6.50289e-07
6.83073e-07
7.21885e-07
7.63386e-07
8.027e-07
8.39645e-07
8.72519e-07
8.99787e-07
9.18584e-07
9.28834e-07
9.32654e-07
9.24335e-07
9.01374e-07
8.65217e-07
8.16292e-07
7.55642e-07
6.85586e-07
6.07495e-07
5.23857e-07
4.36996e-07
3.51538e-07
2.71563e-07
2.00728e-07
1.43346e-07
9.88738e-08
6.52066e-08
4.11889e-08
2.50187e-08
1.47004e-08
8.36063e-09
4.44843e-09
1.9128e-09
3.83079e-10
1.91301e-09
1.62751e-07
5.58509e-07
9.74988e-07
1.35559e-06
1.70076e-06
2.02562e-06
2.34365e-06
2.66464e-06
2.99816e-06
3.34922e-06
3.71878e-06
4.10514e-06
4.50386e-06
4.90785e-06
5.30785e-06
5.69315e-06
6.05472e-06
6.38612e-06
6.68234e-06
6.93981e-06
7.15691e-06
7.33395e-06
7.47462e-06
7.58626e-06
7.68153e-06
7.78119e-06
7.91855e-06
8.11168e-06
8.331e-06
8.54667e-06
8.79738e-06
9.10484e-06
9.47962e-06
9.92531e-06
1.04266e-05
1.09708e-05
1.15588e-05
1.21862e-05
1.28498e-05
1.35448e-05
1.42767e-05
1.50746e-05
1.59347e-05
1.68181e-05
1.7721e-05
1.86237e-05
1.95036e-05
2.03245e-05
2.10537e-05
2.17295e-05
2.24112e-05
2.30623e-05
2.36742e-05
2.42525e-05
2.46558e-05
2.49115e-05
2.51539e-05
2.52264e-05
2.5063e-05
2.46696e-05
2.4034e-05
2.31758e-05
2.20752e-05
2.07167e-05
1.91287e-05
1.73275e-05
1.53578e-05
1.32734e-05
1.11375e-05
8.89522e-06
6.69977e-06
4.78898e-06
3.26622e-06
2.1327e-06
1.34216e-06
8.14024e-07
4.47984e-07
1.52094e-07
1.98396e-09
4.38686e-09
5.38137e-07
2.38182e-06
4.50606e-06
6.25153e-06
7.64232e-06
8.80062e-06
9.82599e-06
1.0779e-05
1.16954e-05
1.25859e-05
1.3448e-05
1.42736e-05
1.50513e-05
1.57685e-05
1.64118e-05
1.6963e-05
1.74176e-05
1.7777e-05
1.80445e-05
1.82269e-05
1.83349e-05
1.83825e-05
1.83863e-05
1.83649e-05
1.83387e-05
1.83273e-05
1.83443e-05
1.84256e-05
1.86324e-05
1.9005e-05
1.94732e-05
2.0004e-05
2.05653e-05
2.12138e-05
2.20643e-05
2.30142e-05
2.40689e-05
2.5218e-05
2.64554e-05
2.77768e-05
2.91587e-05
3.05246e-05
3.1853e-05
3.31888e-05
3.45119e-05
3.58142e-05
3.70864e-05
3.83007e-05
3.94681e-05
4.05906e-05
4.16667e-05
4.26741e-05
4.36e-05
4.44246e-05
4.51156e-05
4.56556e-05
4.59137e-05
4.61827e-05
4.60921e-05
4.5674e-05
4.48374e-05
4.35528e-05
4.19243e-05
3.99419e-05
3.76029e-05
3.49044e-05
3.18703e-05
2.8548e-05
2.50036e-05
2.12953e-05
1.75495e-05
1.39324e-05
1.06311e-05
7.77959e-06
5.45259e-06
3.60821e-06
2.05417e-06
5.84137e-07
4.83246e-09
7.72866e-09
1.01852e-06
4.63459e-06
8.75152e-06
1.20063e-05
1.44613e-05
1.63722e-05
1.794e-05
1.92892e-05
2.0484e-05
2.15582e-05
2.25266e-05
2.33936e-05
2.4158e-05
2.48162e-05
2.53644e-05
2.58046e-05
2.61317e-05
2.63451e-05
2.64536e-05
2.64723e-05
2.64227e-05
2.63305e-05
2.62248e-05
2.61369e-05
2.6098e-05
2.61386e-05
2.62866e-05
2.65755e-05
2.69892e-05
2.74613e-05
2.80603e-05
2.89088e-05
2.99245e-05
3.1091e-05
3.22636e-05
3.35178e-05
3.48336e-05
3.61887e-05
3.75636e-05
3.8937e-05
4.0287e-05
4.15961e-05
4.28661e-05
4.41006e-05
4.52857e-05
4.6417e-05
4.74853e-05
4.84894e-05
4.94406e-05
5.03356e-05
5.11706e-05
5.19369e-05
5.26258e-05
5.32239e-05
5.37129e-05
5.40594e-05
5.41115e-05
5.40684e-05
5.38225e-05
5.33855e-05
5.26747e-05
5.15869e-05
4.99276e-05
4.78876e-05
4.55231e-05
4.27899e-05
3.96854e-05
3.62401e-05
3.25031e-05
2.85373e-05
2.44326e-05
2.03144e-05
1.63213e-05
1.26301e-05
9.37253e-06
6.55105e-06
3.87614e-06
1.05976e-06
8.13077e-09
1.19694e-08
1.60416e-06
7.01007e-06
1.2836e-05
1.73203e-05
2.05872e-05
2.30215e-05
2.49174e-05
2.64585e-05
2.77506e-05
2.8855e-05
2.98082e-05
3.06314e-05
3.13349e-05
3.19206e-05
3.23856e-05
3.27269e-05
3.29429e-05
3.30392e-05
3.30306e-05
3.29413e-05
3.28024e-05
3.26505e-05
3.25249e-05
3.24649e-05
3.25064e-05
3.26802e-05
3.29813e-05
3.3323e-05
3.38772e-05
3.47054e-05
3.56699e-05
3.66962e-05
3.78294e-05
3.90048e-05
4.01851e-05
4.13884e-05
4.2584e-05
4.37562e-05
4.48901e-05
4.59717e-05
4.70003e-05
4.79801e-05
4.89122e-05
4.97955e-05
5.0624e-05
5.13899e-05
5.2093e-05
5.2759e-05
5.33828e-05
5.39601e-05
5.44846e-05
5.49481e-05
5.53406e-05
5.56496e-05
5.58609e-05
5.5961e-05
5.59432e-05
5.56242e-05
5.53186e-05
5.46031e-05
5.37813e-05
5.28433e-05
5.18239e-05
5.02321e-05
4.8161e-05
4.57293e-05
4.28986e-05
3.96889e-05
3.614e-05
3.2305e-05
2.82575e-05
2.40968e-05
1.99481e-05
1.59635e-05
1.22779e-05
8.88695e-06
5.39551e-06
1.47418e-06
1.11908e-08
1.71493e-08
2.28936e-06
9.4565e-06
1.67716e-05
2.22429e-05
2.61274e-05
2.89263e-05
3.10161e-05
3.26382e-05
3.39406e-05
3.50147e-05
3.59172e-05
3.66806e-05
3.73183e-05
3.78309e-05
3.82126e-05
3.84589e-05
3.85716e-05
3.85628e-05
3.84562e-05
3.82853e-05
3.80914e-05
3.79196e-05
3.78152e-05
3.78174e-05
3.79555e-05
3.814e-05
3.85031e-05
3.91491e-05
3.99072e-05
4.07592e-05
4.16993e-05
4.26559e-05
4.36452e-05
4.46165e-05
4.55363e-05
4.64297e-05
4.72805e-05
4.80858e-05
4.88483e-05
4.95805e-05
5.02634e-05
5.08742e-05
5.1418e-05
5.18972e-05
5.23191e-05
5.26982e-05
5.30491e-05
5.33671e-05
5.36527e-05
5.39051e-05
5.4123e-05
5.43044e-05
5.44468e-05
5.45463e-05
5.45962e-05
5.45878e-05
5.45105e-05
5.43468e-05
5.39863e-05
5.35388e-05
5.30232e-05
5.18773e-05
5.07226e-05
4.97776e-05
4.84163e-05
4.64544e-05
4.40401e-05
4.11929e-05
3.7947e-05
3.43452e-05
3.04555e-05
2.63734e-05
2.22212e-05
1.81425e-05
1.42612e-05
1.05432e-05
6.49543e-06
1.7908e-06
1.37187e-08
2.34065e-08
3.03747e-06
1.19326e-05
2.05863e-05
2.68829e-05
3.1243e-05
3.42871e-05
3.64743e-05
3.81054e-05
3.93708e-05
4.03892e-05
4.12311e-05
4.19318e-05
4.25014e-05
4.29356e-05
4.32257e-05
4.33685e-05
4.33715e-05
4.32556e-05
4.30541e-05
4.28101e-05
4.25719e-05
4.23884e-05
4.23039e-05
4.23333e-05
4.24316e-05
4.27829e-05
4.32609e-05
4.38724e-05
4.45681e-05
4.52833e-05
4.6001e-05
4.67135e-05
4.74099e-05
4.81407e-05
4.88592e-05
4.94989e-05
5.00733e-05
5.05687e-05
5.0976e-05
5.1272e-05
5.14872e-05
5.16618e-05
5.17997e-05
5.19092e-05
5.19978e-05
5.20685e-05
5.21145e-05
5.21326e-05
5.21266e-05
5.20989e-05
5.20522e-05
5.19897e-05
5.19143e-05
5.18281e-05
5.17329e-05
5.16271e-05
5.15073e-05
5.13677e-05
5.11944e-05
5.09802e-05
5.05401e-05
5.00901e-05
4.94584e-05
4.81178e-05
4.73453e-05
4.62561e-05
4.43398e-05
4.19278e-05
3.90464e-05
3.5716e-05
3.19974e-05
2.79899e-05
2.38271e-05
1.96647e-05
1.56335e-05
1.16858e-05
7.26045e-06
2.03141e-06
1.5822e-08
3.07579e-08
3.83419e-06
1.44121e-05
2.42865e-05
3.12918e-05
3.60243e-05
3.92269e-05
4.14449e-05
4.304e-05
4.42427e-05
4.51932e-05
4.59684e-05
4.66001e-05
4.70916e-05
4.7433e-05
4.76153e-05
4.76391e-05
4.752e-05
4.72887e-05
4.69877e-05
4.66668e-05
4.63779e-05
4.61697e-05
4.60568e-05
4.60639e-05
4.62147e-05
4.65072e-05
4.69182e-05
4.73634e-05
4.78834e-05
4.84261e-05
4.90382e-05
4.9597e-05
5.01094e-05
5.05474e-05
5.08491e-05
5.10325e-05
5.11876e-05
5.12804e-05
5.13214e-05
5.13486e-05
5.1354e-05
5.13318e-05
5.12937e-05
5.12322e-05
5.11489e-05
5.10392e-05
5.08998e-05
5.073e-05
5.05314e-05
5.03075e-05
5.00622e-05
4.98012e-05
4.95312e-05
4.92607e-05
4.90006e-05
4.87592e-05
4.854e-05
4.83423e-05
4.81736e-05
4.80305e-05
4.78858e-05
4.77156e-05
4.72557e-05
4.68522e-05
4.58498e-05
4.51741e-05
4.42211e-05
4.23216e-05
3.98931e-05
3.69055e-05
3.34003e-05
2.94734e-05
2.52701e-05
2.09697e-05
1.67357e-05
1.25507e-05
7.84435e-06
2.24385e-06
1.78657e-08
3.91507e-08
4.67014e-06
1.68679e-05
2.78633e-05
3.54876e-05
4.05158e-05
4.38161e-05
4.60213e-05
4.75535e-05
4.8679e-05
4.95531e-05
5.02529e-05
5.0803e-05
5.11993e-05
5.14285e-05
5.14832e-05
5.13707e-05
5.1116e-05
5.07592e-05
5.03504e-05
4.99416e-05
4.95971e-05
4.92706e-05
4.90769e-05
4.90868e-05
4.91584e-05
4.93227e-05
4.96235e-05
5.00495e-05
5.04695e-05
5.08474e-05
5.1142e-05
5.13026e-05
5.13937e-05
5.14135e-05
5.13951e-05
5.13879e-05
5.13591e-05
5.13126e-05
5.12599e-05
5.12322e-05
5.12201e-05
5.11504e-05
5.10872e-05
5.09988e-05
5.0886e-05
5.07408e-05
5.05579e-05
5.03319e-05
5.00576e-05
4.97395e-05
4.93777e-05
4.89743e-05
4.85339e-05
4.80653e-05
4.75841e-05
4.71133e-05
4.66752e-05
4.62656e-05
4.58999e-05
4.5624e-05
4.5428e-05
4.5276e-05
4.51766e-05
4.49952e-05
4.451e-05
4.39982e-05
4.3219e-05
4.23721e-05
4.05162e-05
3.79917e-05
3.48069e-05
3.10381e-05
2.68254e-05
2.23659e-05
1.78649e-05
1.33788e-05
8.40725e-06
2.48345e-06
2.03879e-08
4.85149e-08
5.5305e-06
1.92735e-05
3.1301e-05
3.94721e-05
4.47394e-05
4.8096e-05
5.02618e-05
5.17157e-05
5.27544e-05
5.35429e-05
5.41546e-05
5.4606e-05
5.48869e-05
5.49827e-05
5.48906e-05
5.4626e-05
5.42232e-05
5.37314e-05
5.32078e-05
5.26302e-05
5.21232e-05
5.17942e-05
5.15349e-05
5.14025e-05
5.14532e-05
5.16374e-05
5.18467e-05
5.20133e-05
5.20652e-05
5.20453e-05
5.19591e-05
5.18891e-05
5.17934e-05
5.1694e-05
5.16152e-05
5.15701e-05
5.15445e-05
5.15438e-05
5.15649e-05
5.16109e-05
5.16507e-05
5.17177e-05
5.17303e-05
5.17268e-05
5.16858e-05
5.1602e-05
5.14707e-05
5.12917e-05
5.1063e-05
5.07728e-05
5.04155e-05
4.99852e-05
4.94761e-05
4.88814e-05
4.81953e-05
4.74226e-05
4.65866e-05
4.57583e-05
4.50029e-05
4.43572e-05
4.38795e-05
4.34631e-05
4.32201e-05
4.31095e-05
4.30603e-05
4.26892e-05
4.22874e-05
4.14937e-05
4.0751e-05
3.88263e-05
3.61113e-05
3.26468e-05
2.85388e-05
2.39846e-05
1.92154e-05
1.43748e-05
9.08267e-06
2.80333e-06
2.40569e-08
5.87627e-08
6.40004e-06
2.16027e-05
3.45815e-05
4.32406e-05
4.87054e-05
5.20915e-05
5.42026e-05
5.55694e-05
5.65139e-05
5.72062e-05
5.77145e-05
5.80483e-05
5.81931e-05
5.81361e-05
5.78804e-05
5.745e-05
5.68879e-05
5.62494e-05
5.544e-05
5.47681e-05
5.42719e-05
5.37645e-05
5.34523e-05
5.33743e-05
5.3335e-05
5.32562e-05
5.31062e-05
5.29043e-05
5.27206e-05
5.25135e-05
5.23131e-05
5.21569e-05
5.20401e-05
5.19787e-05
5.19829e-05
5.20494e-05
5.21618e-05
5.23451e-05
5.25401e-05
5.26791e-05
5.29119e-05
5.31061e-05
5.32427e-05
5.33524e-05
5.34109e-05
5.34197e-05
5.33722e-05
5.32628e-05
5.30865e-05
5.28372e-05
5.25103e-05
5.21004e-05
5.16056e-05
5.10202e-05
5.0328e-05
4.9521e-05
4.85874e-05
4.75247e-05
4.63321e-05
4.50278e-05
4.37332e-05
4.27775e-05
4.20763e-05
4.16251e-05
4.14089e-05
4.13702e-05
4.10484e-05
4.06593e-05
3.99619e-05
3.91969e-05
3.70964e-05
3.41151e-05
3.02815e-05
2.57772e-05
2.08318e-05
1.56505e-05
9.95966e-06
3.24583e-06
2.96753e-08
6.97824e-08
7.26509e-06
2.38327e-05
3.76877e-05
4.67857e-05
5.24181e-05
5.58176e-05
5.78663e-05
5.91412e-05
5.99845e-05
6.05692e-05
6.09584e-05
6.1156e-05
6.11462e-05
6.09198e-05
6.04865e-05
5.9877e-05
5.9137e-05
5.81368e-05
5.73108e-05
5.66186e-05
5.58969e-05
5.54159e-05
5.50973e-05
5.47693e-05
5.43953e-05
5.40251e-05
5.36716e-05
5.33201e-05
5.30124e-05
5.27507e-05
5.25628e-05
5.247e-05
5.24729e-05
5.25732e-05
5.27641e-05
5.3048e-05
5.34239e-05
5.37175e-05
5.40221e-05
5.44588e-05
5.47933e-05
5.50899e-05
5.53305e-05
5.5517e-05
5.56365e-05
5.56889e-05
5.56676e-05
5.55701e-05
5.53954e-05
5.51427e-05
5.48107e-05
5.43945e-05
5.38948e-05
5.33144e-05
5.26311e-05
5.18405e-05
5.09226e-05
4.98693e-05
4.86675e-05
4.73247e-05
4.58415e-05
4.41789e-05
4.24464e-05
4.1108e-05
4.03443e-05
3.99117e-05
3.98038e-05
3.94958e-05
3.915e-05
3.84593e-05
3.75479e-05
3.52156e-05
3.18387e-05
2.75682e-05
2.26089e-05
1.71782e-05
1.10949e-05
3.83591e-06
3.82266e-08
8.14153e-08
8.11261e-06
2.59434e-05
4.06035e-05
5.00999e-05
5.58789e-05
5.92833e-05
6.1267e-05
6.24473e-05
6.31831e-05
6.36491e-05
6.39043e-05
6.39495e-05
6.37699e-05
6.33611e-05
6.27385e-05
6.1933e-05
6.07831e-05
5.97631e-05
5.89257e-05
5.79852e-05
5.73025e-05
5.67121e-05
5.60844e-05
5.54753e-05
5.49185e-05
5.43917e-05
5.39208e-05
5.35156e-05
5.32109e-05
5.30226e-05
5.2968e-05
5.30533e-05
5.32689e-05
5.35933e-05
5.40988e-05
5.46134e-05
5.50029e-05
5.55355e-05
5.61139e-05
5.66113e-05
5.70502e-05
5.74288e-05
5.77369e-05
5.79685e-05
5.81165e-05
5.81784e-05
5.81511e-05
5.80343e-05
5.78291e-05
5.75375e-05
5.7163e-05
5.67105e-05
5.61722e-05
5.55354e-05
5.47915e-05
5.39571e-05
5.30122e-05
5.19613e-05
5.08046e-05
4.95125e-05
4.80554e-05
4.64427e-05
4.46763e-05
4.26698e-05
4.0572e-05
3.92514e-05
3.858e-05
3.83275e-05
3.79739e-05
3.76571e-05
3.6838e-05
3.57557e-05
3.29987e-05
2.91376e-05
2.43547e-05
1.88286e-05
1.24459e-05
4.56451e-06
5.06508e-08
9.34837e-08
8.93084e-06
2.79172e-05
4.33155e-05
5.31764e-05
5.90878e-05
6.24942e-05
6.44136e-05
6.54985e-05
6.61214e-05
6.64589e-05
6.65676e-05
6.64474e-05
6.60865e-05
6.5487e-05
6.46678e-05
6.34364e-05
6.21794e-05
6.12547e-05
6.01052e-05
5.91787e-05
5.82978e-05
5.74005e-05
5.65876e-05
5.58266e-05
5.51424e-05
5.45404e-05
5.40527e-05
5.37017e-05
5.35146e-05
5.35021e-05
5.3664e-05
5.39871e-05
5.45006e-05
5.51591e-05
5.5765e-05
5.6341e-05
5.70237e-05
5.77765e-05
5.84282e-05
5.90193e-05
5.95427e-05
5.99891e-05
6.03504e-05
6.062e-05
6.07931e-05
6.08669e-05
6.08399e-05
6.07122e-05
6.04852e-05
6.01612e-05
5.97428e-05
5.92329e-05
5.86334e-05
5.79474e-05
5.72073e-05
5.63484e-05
5.53353e-05
5.41635e-05
5.28643e-05
5.14255e-05
4.99106e-05
4.8346e-05
4.67372e-05
4.48843e-05
4.27762e-05
4.03598e-05
3.82813e-05
3.73503e-05
3.69173e-05
3.64388e-05
3.60553e-05
3.50903e-05
3.36185e-05
3.02948e-05
2.58692e-05
2.04252e-05
1.38994e-05
5.39098e-06
6.76088e-08
1.05794e-07
9.70941e-06
2.97399e-05
4.58128e-05
5.60097e-05
6.2045e-05
6.54542e-05
6.73126e-05
6.83026e-05
6.88088e-05
6.90102e-05
6.89628e-05
6.86674e-05
6.81173e-05
6.73264e-05
6.61368e-05
6.4643e-05
6.35911e-05
6.23249e-05
6.11217e-05
5.9972e-05
5.88242e-05
5.77728e-05
5.6814e-05
5.59534e-05
5.52173e-05
5.463e-05
5.42245e-05
5.40229e-05
5.40378e-05
5.42634e-05
5.46799e-05
5.53562e-05
5.61574e-05
5.68748e-05
5.76015e-05
5.84179e-05
5.93508e-05
6.0172e-05
6.09211e-05
6.16031e-05
6.22049e-05
6.27179e-05
6.3134e-05
6.34472e-05
6.36528e-05
6.37476e-05
6.37301e-05
6.36e-05
6.33589e-05
6.30093e-05
6.2555e-05
6.20006e-05
6.13501e-05
6.06064e-05
5.9769e-05
5.88657e-05
5.79405e-05
5.68894e-05
5.55824e-05
5.40411e-05
5.23193e-05
5.04064e-05
4.84252e-05
4.65999e-05
4.47892e-05
4.25677e-05
3.99807e-05
3.73012e-05
3.60827e-05
3.55165e-05
3.48734e-05
3.43281e-05
3.33275e-05
3.09201e-05
2.70049e-05
2.18146e-05
1.53043e-05
6.24579e-06
8.92663e-08
1.18143e-07
1.04394e-05
3.14003e-05
4.80871e-05
5.85964e-05
6.47508e-05
6.81668e-05
6.99692e-05
7.08666e-05
7.12544e-05
7.13147e-05
7.11048e-05
7.06266e-05
6.98743e-05
6.88243e-05
6.72292e-05
6.59504e-05
6.46245e-05
6.31778e-05
6.17873e-05
6.03911e-05
5.9098e-05
5.79192e-05
5.68691e-05
5.59741e-05
5.52671e-05
5.47801e-05
5.45393e-05
5.45546e-05
5.48185e-05
5.53056e-05
5.61032e-05
5.70311e-05
5.78841e-05
5.8763e-05
5.97139e-05
6.07507e-05
6.17852e-05
6.26995e-05
6.35512e-05
6.43243e-05
6.5008e-05
6.55934e-05
6.60723e-05
6.64382e-05
6.66855e-05
6.681e-05
6.68093e-05
6.66822e-05
6.64298e-05
6.60549e-05
6.55625e-05
6.49591e-05
6.42521e-05
6.34492e-05
6.25564e-05
6.15767e-05
6.05043e-05
5.93921e-05
5.82563e-05
5.6931e-05
5.52405e-05
5.32713e-05
5.10227e-05
4.86037e-05
4.63189e-05
4.43258e-05
4.21361e-05
3.93193e-05
3.6274e-05
3.47256e-05
3.39796e-05
3.3268e-05
3.25644e-05
3.10439e-05
2.76911e-05
2.28881e-05
1.65228e-05
7.04691e-06
1.15064e-07
1.3033e-07
1.11136e-05
3.28901e-05
5.01331e-05
6.09348e-05
6.72068e-05
7.06357e-05
7.23889e-05
7.31976e-05
7.34675e-05
7.3385e-05
7.3011e-05
7.23518e-05
7.14008e-05
6.98792e-05
6.82772e-05
6.69984e-05
6.53655e-05
6.37795e-05
6.21436e-05
6.06041e-05
5.91898e-05
5.79264e-05
5.68456e-05
5.59855e-05
5.53828e-05
5.50655e-05
5.50454e-05
5.53129e-05
5.58394e-05
5.67124e-05
5.77529e-05
5.87368e-05
5.97663e-05
6.086e-05
6.19967e-05
6.31735e-05
6.43116e-05
6.53344e-05
6.62909e-05
6.71599e-05
6.79319e-05
6.85973e-05
6.91475e-05
6.95747e-05
6.98722e-05
7.00343e-05
7.00569e-05
6.99378e-05
6.96766e-05
6.92756e-05
6.87399e-05
6.80772e-05
6.72977e-05
6.64132e-05
6.54356e-05
6.43748e-05
6.3236e-05
6.20168e-05
6.07198e-05
5.94385e-05
5.80463e-05
5.62787e-05
5.40917e-05
5.15107e-05
4.87674e-05
4.61205e-05
4.37069e-05
4.14039e-05
3.83176e-05
3.49569e-05
3.31873e-05
3.21947e-05
3.18152e-05
3.02908e-05
2.79142e-05
2.35797e-05
1.74756e-05
7.716e-06
1.43625e-07
1.42148e-07
1.17262e-05
3.42044e-05
5.19483e-05
6.30253e-05
6.9416e-05
7.28654e-05
7.45778e-05
7.53037e-05
7.54582e-05
7.52333e-05
7.46948e-05
7.38596e-05
7.26124e-05
7.07684e-05
6.93685e-05
6.77415e-05
6.59715e-05
6.41133e-05
6.233e-05
6.06678e-05
5.91675e-05
5.78698e-05
5.68188e-05
5.60576e-05
5.56193e-05
5.55186e-05
5.57471e-05
5.62748e-05
5.71713e-05
5.83062e-05
5.94323e-05
6.05547e-05
6.1796e-05
6.30835e-05
6.43803e-05
6.56523e-05
6.69018e-05
6.80504e-05
6.91151e-05
7.00847e-05
7.09501e-05
7.17012e-05
7.23287e-05
7.28238e-05
7.31784e-05
7.33856e-05
7.34394e-05
7.33356e-05
7.30723e-05
7.265e-05
7.20727e-05
7.13477e-05
7.04865e-05
6.95036e-05
6.84162e-05
6.72419e-05
6.59962e-05
6.46885e-05
6.3318e-05
6.18679e-05
6.04063e-05
5.89338e-05
5.7101e-05
5.46213e-05
5.1781e-05
4.88625e-05
4.58031e-05
4.28708e-05
4.03265e-05
3.69763e-05
3.33824e-05
3.15095e-05
3.02456e-05
2.96216e-05
2.77785e-05
2.38968e-05
1.81051e-05
8.17742e-06
1.74205e-07
1.53398e-07
1.22729e-05
3.53408e-05
5.35324e-05
6.48703e-05
7.13823e-05
7.48616e-05
7.65428e-05
7.71935e-05
7.72383e-05
7.68751e-05
7.61742e-05
7.51485e-05
7.34807e-05
7.17218e-05
7.0242e-05
6.83481e-05
6.63165e-05
6.43043e-05
6.23915e-05
6.06359e-05
5.90908e-05
5.78096e-05
5.68435e-05
5.62336e-05
5.6001e-05
5.61404e-05
5.66214e-05
5.74761e-05
5.86787e-05
5.9955e-05
6.1153e-05
6.24973e-05
6.39212e-05
6.53694e-05
6.68083e-05
6.82097e-05
6.95356e-05
7.07999e-05
7.19884e-05
7.30625e-05
7.40224e-05
7.48604e-05
7.55672e-05
7.61333e-05
7.655e-05
7.68088e-05
7.69024e-05
7.68248e-05
7.65715e-05
7.61407e-05
7.55337e-05
7.4756e-05
7.38178e-05
7.27343e-05
7.15253e-05
7.02142e-05
6.88256e-05
6.73811e-05
6.58948e-05
6.43671e-05
6.27795e-05
6.11502e-05
5.95691e-05
5.75206e-05
5.47215e-05
5.17758e-05
4.87353e-05
4.52577e-05
4.18586e-05
3.89589e-05
3.51664e-05
3.15917e-05
2.96472e-05
2.85487e-05
2.70196e-05
2.38877e-05
1.84011e-05
8.47539e-06
2.05192e-07
1.63909e-07
1.27511e-05
3.63e-05
5.48878e-05
6.64738e-05
7.31115e-05
7.66309e-05
7.82919e-05
7.88766e-05
7.88187e-05
7.83226e-05
7.7466e-05
7.62055e-05
7.42143e-05
7.26218e-05
7.08583e-05
6.87491e-05
6.65391e-05
6.43887e-05
6.23711e-05
6.05554e-05
5.90073e-05
5.77891e-05
5.69531e-05
5.65318e-05
5.65291e-05
5.69208e-05
5.76626e-05
5.88622e-05
6.02422e-05
6.15809e-05
6.29764e-05
6.45096e-05
6.60948e-05
6.76869e-05
6.92546e-05
7.07724e-05
7.22199e-05
7.35718e-05
7.48437e-05
7.60405e-05
7.70941e-05
7.8015e-05
7.87979e-05
7.94338e-05
7.99138e-05
8.02289e-05
8.03707e-05
8.03313e-05
8.0104e-05
7.96838e-05
7.90685e-05
7.826e-05
7.72649e-05
7.6096e-05
7.4773e-05
7.33217e-05
7.17732e-05
7.01599e-05
6.85111e-05
6.68462e-05
6.51671e-05
6.34516e-05
6.16889e-05
5.99923e-05
5.76103e-05
5.44557e-05
5.14838e-05
4.81296e-05
4.42561e-05
4.05214e-05
3.72082e-05
3.28259e-05
2.94632e-05
2.73508e-05
2.64097e-05
2.37529e-05
1.84815e-05
8.67036e-06
2.37002e-07
1.7354e-07
1.31596e-05
3.70862e-05
5.60184e-05
6.78414e-05
7.46102e-05
7.8181e-05
7.9834e-05
8.03641e-05
8.02143e-05
7.95985e-05
7.86034e-05
7.69941e-05
7.49947e-05
7.34141e-05
7.13481e-05
6.90155e-05
6.66675e-05
6.44016e-05
6.23067e-05
6.04648e-05
5.89521e-05
5.78354e-05
5.7162e-05
5.69496e-05
5.7181e-05
5.78104e-05
5.88868e-05
6.03098e-05
6.18035e-05
6.3248e-05
6.48513e-05
6.655e-05
6.82807e-05
7.00041e-05
7.16914e-05
7.33198e-05
7.48715e-05
7.63329e-05
7.76702e-05
7.8938e-05
8.00983e-05
8.10946e-05
8.19452e-05
8.26448e-05
8.31852e-05
8.35579e-05
8.37538e-05
8.3764e-05
8.35795e-05
8.31923e-05
8.2596e-05
8.17874e-05
8.07679e-05
7.95451e-05
7.81346e-05
7.6561e-05
7.48574e-05
7.30636e-05
7.12217e-05
6.93689e-05
6.7529e-05
6.57031e-05
6.38618e-05
6.19924e-05
6.01297e-05
5.73144e-05
5.40084e-05
5.08617e-05
4.70844e-05
4.27996e-05
3.8728e-05
3.4892e-05
3.01811e-05
2.71486e-05
2.54178e-05
2.32656e-05
1.84406e-05
8.89803e-06
2.72796e-07
1.82177e-07
1.34969e-05
3.77104e-05
5.69268e-05
6.89796e-05
7.58865e-05
7.95208e-05
8.11788e-05
8.16666e-05
8.14351e-05
8.07028e-05
7.95505e-05
7.76349e-05
7.57377e-05
7.40078e-05
7.16766e-05
6.92045e-05
6.67339e-05
6.43752e-05
6.22301e-05
6.0393e-05
5.89481e-05
5.7962e-05
5.74719e-05
5.74779e-05
5.79452e-05
5.88179e-05
6.01858e-05
6.17629e-05
6.33375e-05
6.49595e-05
6.6738e-05
6.85846e-05
7.04471e-05
7.229e-05
7.40863e-05
7.58146e-05
7.74582e-05
7.90035e-05
8.04204e-05
8.17097e-05
8.2958e-05
8.40256e-05
8.49317e-05
8.56841e-05
8.62775e-05
8.67046e-05
8.69569e-05
8.70249e-05
8.68984e-05
8.65663e-05
8.60181e-05
8.52449e-05
8.42414e-05
8.30077e-05
8.15523e-05
7.98938e-05
7.80628e-05
7.61015e-05
7.40605e-05
7.19932e-05
6.99452e-05
6.79432e-05
6.59835e-05
6.40238e-05
6.20929e-05
5.98797e-05
5.65671e-05
5.332e-05
4.98423e-05
4.55171e-05
4.0882e-05
3.64964e-05
3.18162e-05
2.74381e-05
2.42157e-05
2.27648e-05
1.8449e-05
9.29143e-06
3.17495e-07
1.89736e-07
1.37642e-05
3.81711e-05
5.76202e-05
6.98971e-05
7.69496e-05
8.066e-05
8.2337e-05
8.2796e-05
8.24962e-05
8.16662e-05
8.03603e-05
7.82544e-05
7.64432e-05
7.44709e-05
7.19442e-05
6.93416e-05
6.67662e-05
6.43362e-05
6.21658e-05
6.036e-05
5.90077e-05
5.81707e-05
5.78721e-05
5.8092e-05
5.87752e-05
5.99283e-05
6.14959e-05
6.31978e-05
6.48676e-05
6.66736e-05
6.86039e-05
7.05826e-05
7.25632e-05
7.45119e-05
7.6403e-05
7.82154e-05
7.99323e-05
8.15397e-05
8.30253e-05
8.4353e-05
8.56009e-05
8.67382e-05
8.76857e-05
8.84764e-05
8.9111e-05
8.95849e-05
8.98912e-05
9.0021e-05
8.99633e-05
8.97052e-05
8.92324e-05
8.85303e-05
8.75863e-05
8.63914e-05
8.49441e-05
8.32536e-05
8.13425e-05
7.92497e-05
7.70287e-05
7.47439e-05
7.24613e-05
7.02346e-05
6.80897e-05
6.60098e-05
6.39258e-05
6.19478e-05
5.91929e-05
5.56149e-05
5.2313e-05
4.83477e-05
4.33216e-05
3.84468e-05
3.36541e-05
2.84114e-05
2.43732e-05
2.23097e-05
1.85478e-05
9.82937e-06
3.73076e-07
1.96161e-07
1.39641e-05
3.84729e-05
5.81103e-05
7.0604e-05
7.78097e-05
8.16095e-05
8.33211e-05
8.37689e-05
8.34229e-05
8.25277e-05
8.10137e-05
7.87583e-05
7.70999e-05
7.47953e-05
7.21606e-05
6.94485e-05
6.67868e-05
6.43057e-05
6.21314e-05
6.03775e-05
5.91343e-05
5.84553e-05
5.83475e-05
5.8773e-05
5.96654e-05
6.1069e-05
6.27875e-05
6.45902e-05
6.63894e-05
6.83568e-05
7.04201e-05
7.25152e-05
7.45983e-05
7.6637e-05
7.86053e-05
8.04827e-05
8.22526e-05
8.39022e-05
8.54225e-05
8.67775e-05
8.79892e-05
8.91719e-05
9.01475e-05
9.09598e-05
9.16203e-05
9.21291e-05
9.24821e-05
9.26722e-05
9.26891e-05
9.25187e-05
9.21439e-05
9.15454e-05
9.07027e-05
8.95976e-05
8.82167e-05
8.65564e-05
8.46272e-05
8.24583e-05
8.00996e-05
7.76199e-05
7.51007e-05
7.26218e-05
7.02438e-05
6.79878e-05
6.58201e-05
6.3643e-05
6.14504e-05
5.79555e-05
5.44803e-05
5.08396e-05
4.6191e-05
4.04568e-05
3.52288e-05
2.99045e-05
2.48053e-05
2.13021e-05
1.86199e-05
1.02752e-05
4.35234e-07
2.01426e-07
1.40993e-05
3.86233e-05
5.84079e-05
7.11114e-05
7.84788e-05
8.23833e-05
8.41484e-05
8.46073e-05
8.42372e-05
8.32977e-05
8.14931e-05
7.93329e-05
7.76125e-05
7.5085e-05
7.23482e-05
6.95445e-05
6.68143e-05
6.42998e-05
6.21384e-05
6.04505e-05
5.9325e-05
5.88048e-05
5.88808e-05
5.95006e-05
6.05896e-05
6.21956e-05
6.40376e-05
6.59341e-05
6.78777e-05
6.99812e-05
7.21597e-05
7.43545e-05
7.65232e-05
7.86336e-05
8.06598e-05
8.25811e-05
8.43815e-05
8.60489e-05
8.75746e-05
8.89519e-05
9.0145e-05
9.12761e-05
9.22728e-05
9.30891e-05
9.37579e-05
9.42861e-05
9.46742e-05
9.4918e-05
9.5009e-05
9.49337e-05
9.46733e-05
9.42045e-05
9.35004e-05
9.2533e-05
9.12764e-05
8.97122e-05
8.78353e-05
8.56597e-05
8.32244e-05
8.05952e-05
7.78612e-05
7.51233e-05
7.24746e-05
6.99756e-05
6.76315e-05
6.53789e-05
6.31979e-05
6.03073e-05
5.65229e-05
5.30612e-05
4.88467e-05
4.30566e-05
3.70301e-05
3.15867e-05
2.57399e-05
2.08203e-05
1.84729e-05
1.06643e-05
5.01486e-07
2.05531e-07
1.41732e-05
3.86311e-05
5.85242e-05
7.14319e-05
7.89729e-05
8.30047e-05
8.48546e-05
8.53826e-05
8.49813e-05
8.38472e-05
8.18899e-05
7.99196e-05
7.79952e-05
7.53485e-05
7.2524e-05
6.96457e-05
6.6863e-05
6.43299e-05
6.21936e-05
6.05794e-05
5.95727e-05
5.92049e-05
5.94505e-05
6.02411e-05
6.15274e-05
6.3282e-05
6.52311e-05
6.72243e-05
6.93036e-05
7.15221e-05
7.37979e-05
7.60748e-05
7.83109e-05
8.04739e-05
8.25379e-05
8.44823e-05
8.62918e-05
8.79559e-05
8.94689e-05
9.08294e-05
9.20009e-05
9.30461e-05
9.4035e-05
9.48377e-05
9.54958e-05
9.60256e-05
9.64333e-05
9.67194e-05
9.68785e-05
9.68989e-05
9.67619e-05
9.64416e-05
9.59058e-05
9.51175e-05
9.40387e-05
9.26351e-05
9.08831e-05
8.87777e-05
8.63405e-05
8.36262e-05
8.0723e-05
7.77455e-05
7.4816e-05
7.20365e-05
6.94576e-05
6.70526e-05
6.47088e-05
6.23598e-05
5.85833e-05
5.49541e-05
5.12399e-05
4.58817e-05
3.90416e-05
3.30422e-05
2.68925e-05
2.13047e-05
1.82539e-05
1.11244e-05
5.71332e-07
2.08497e-07
1.41896e-05
3.85055e-05
5.84715e-05
7.1581e-05
7.93213e-05
8.35424e-05
8.54847e-05
8.59612e-05
8.54366e-05
8.42663e-05
8.23526e-05
8.04069e-05
7.83246e-05
7.55977e-05
7.27022e-05
6.97651e-05
6.69441e-05
6.44036e-05
6.22996e-05
6.07607e-05
5.98677e-05
5.96402e-05
6.00384e-05
6.09824e-05
6.24394e-05
6.43107e-05
6.63558e-05
6.84457e-05
7.0643e-05
7.29574e-05
7.53129e-05
7.76543e-05
7.99383e-05
8.21344e-05
8.42175e-05
8.61653e-05
8.79637e-05
8.9604e-05
9.10834e-05
9.23999e-05
9.35399e-05
9.44928e-05
9.54183e-05
9.61961e-05
9.68251e-05
9.73372e-05
9.77466e-05
9.80595e-05
9.82754e-05
9.83859e-05
9.8374e-05
9.82128e-05
9.78664e-05
9.72903e-05
9.64349e-05
9.52504e-05
9.36934e-05
9.17367e-05
8.93795e-05
8.66575e-05
8.36488e-05
8.04722e-05
7.72723e-05
7.41911e-05
7.13294e-05
6.871e-05
6.62555e-05
6.38924e-05
6.05999e-05
5.66361e-05
5.3305e-05
4.83691e-05
4.14618e-05
3.45877e-05
2.83339e-05
2.17748e-05
1.78785e-05
1.1635e-05
6.38887e-07
2.10374e-07
1.4153e-05
3.82552e-05
5.82577e-05
7.1568e-05
7.9541e-05
8.38512e-05
8.57824e-05
8.62623e-05
8.58331e-05
8.47481e-05
8.27366e-05
8.08396e-05
7.86237e-05
7.58436e-05
7.28943e-05
6.99133e-05
6.70658e-05
6.45258e-05
6.24567e-05
6.09892e-05
6.01995e-05
6.00963e-05
6.06279e-05
6.17067e-05
6.33008e-05
6.52675e-05
6.73984e-05
6.95807e-05
7.18761e-05
7.42688e-05
7.66881e-05
7.90793e-05
8.13842e-05
8.35947e-05
8.56829e-05
8.7617e-05
8.93863e-05
9.09827e-05
9.24142e-05
9.3673e-05
9.47586e-05
9.56383e-05
9.64375e-05
9.71725e-05
9.77539e-05
9.82288e-05
9.86206e-05
9.89425e-05
9.92e-05
9.93895e-05
9.94973e-05
9.94977e-05
9.93527e-05
9.90121e-05
9.84163e-05
9.75005e-05
9.62017e-05
9.44688e-05
9.22745e-05
8.96293e-05
8.65922e-05
8.32757e-05
7.98372e-05
7.64534e-05
7.32779e-05
7.03934e-05
6.77752e-05
6.52876e-05
6.25292e-05
5.83426e-05
5.50133e-05
5.07401e-05
4.41245e-05
3.63724e-05
2.96916e-05
2.28426e-05
1.73508e-05
1.2193e-05
6.98028e-07
2.11169e-07
1.40655e-05
3.78802e-05
5.78693e-05
7.1409e-05
7.95302e-05
8.39484e-05
8.60199e-05
8.66301e-05
8.6249e-05
8.51225e-05
8.3084e-05
8.12222e-05
7.89077e-05
7.60956e-05
7.31097e-05
7.00983e-05
6.72341e-05
6.46991e-05
6.26631e-05
6.12588e-05
6.05578e-05
6.05598e-05
6.1204e-05
6.23962e-05
6.40957e-05
6.61403e-05
6.83459e-05
7.06126e-05
7.29866e-05
7.5442e-05
7.79066e-05
8.03072e-05
8.26424e-05
8.48561e-05
8.69274e-05
8.88323e-05
9.05589e-05
9.2101e-05
9.34588e-05
9.46349e-05
9.56702e-05
9.64748e-05
9.7128e-05
9.77884e-05
9.8305e-05
9.87245e-05
9.90793e-05
9.9391e-05
9.96721e-05
9.99254e-05
0.000100142
0.000100299
0.000100358
0.000100266
9.99555e-05
9.93475e-05
9.83605e-05
9.69188e-05
9.49667e-05
9.24842e-05
8.95035e-05
8.61199e-05
8.24921e-05
7.88222e-05
7.53127e-05
7.21081e-05
6.92382e-05
6.65827e-05
6.40606e-05
6.01956e-05
5.64177e-05
5.27048e-05
4.64842e-05
3.82527e-05
3.10521e-05
2.39229e-05
1.74023e-05
1.2656e-05
7.419e-07
2.10939e-07
1.39297e-05
3.73888e-05
5.74174e-05
7.11581e-05
7.94154e-05
8.40112e-05
8.6225e-05
8.68939e-05
8.65236e-05
8.54132e-05
8.34018e-05
8.15644e-05
7.9188e-05
7.63619e-05
7.33556e-05
7.03262e-05
6.7453e-05
6.49247e-05
6.29167e-05
6.15635e-05
6.09334e-05
6.10194e-05
6.17535e-05
6.30363e-05
6.48126e-05
6.69184e-05
6.91864e-05
7.15266e-05
7.39606e-05
7.64596e-05
7.89338e-05
8.13666e-05
8.37015e-05
8.59035e-05
8.79469e-05
8.98112e-05
9.14844e-05
9.29609e-05
9.4241e-05
9.53298e-05
9.62431e-05
9.70219e-05
9.75469e-05
9.80701e-05
9.85123e-05
9.88604e-05
9.91605e-05
9.9443e-05
9.97287e-05
0.000100028
0.000100337
0.000100639
0.000100898
0.000101059
0.000101047
0.000100774
0.000100141
9.90474e-05
9.74088e-05
9.51715e-05
9.23341e-05
8.89653e-05
8.52132e-05
8.1294e-05
7.74541e-05
7.39065e-05
7.07605e-05
6.79717e-05
6.53329e-05
6.19447e-05
5.77501e-05
5.44072e-05
4.87263e-05
4.06191e-05
3.22754e-05
2.49014e-05
1.77684e-05
1.30429e-05
7.69213e-07
2.10087e-07
1.3763e-05
3.68735e-05
5.68897e-05
7.06834e-05
7.91537e-05
8.39151e-05
8.62594e-05
8.70256e-05
8.67265e-05
8.56565e-05
8.36973e-05
8.1876e-05
7.94726e-05
7.66489e-05
7.36375e-05
7.06016e-05
6.77254e-05
6.52031e-05
6.32152e-05
6.18983e-05
6.13189e-05
6.14658e-05
6.2266e-05
6.36156e-05
6.5443e-05
6.75931e-05
6.99093e-05
7.23101e-05
7.4786e-05
7.7297e-05
7.97976e-05
8.22324e-05
8.45567e-05
8.67356e-05
8.87425e-05
9.05581e-05
9.21706e-05
9.3575e-05
9.47725e-05
9.57701e-05
9.65804e-05
9.72394e-05
9.77153e-05
9.8071e-05
9.84201e-05
9.86822e-05
9.8912e-05
9.91482e-05
9.94199e-05
9.97454e-05
0.00010013
0.000100561
0.000101007
0.000101415
0.000101706
0.000101784
0.000101533
0.000100833
9.95681e-05
9.76507e-05
9.50407e-05
9.17721e-05
8.797e-05
8.38515e-05
7.96951e-05
7.57765e-05