/*--------------------------------*- C++ -*----------------------------------*\
  =========                 |
  \\      /  F ield         | OpenFOAM: The Open Source CFD Toolbox
   \\    /   O peration     | Website:  https://openfoam.org
    \\  /    A nd           | Version:  13
     \\/     M anipulation  |
\*---------------------------------------------------------------------------*/
FoamFile
{
    format      ascii;
    class       volScalarField;
    location    "2.1";
    object      p;
}
// * * * * * * * * * * * * * * * * * * * * * * * * * * * * * * * * * * * * * //

dimensions      [0 2 -2 0 0 0 0];

internalField   nonuniform List<scalar> 
6400
(
2.01203e-08
4.67041e-07
-8.39008e-06
-2.65323e-05
-5.26603e-05
-8.52149e-05
-0.000123019
-0.000165509
-0.000212621
-0.000264553
-0.000321732
-0.000384628
-0.000453648
-0.000529159
-0.000611454
-0.000700786
-0.000797421
-0.000901716
-0.00101419
-0.00113557
-0.0012668
-0.00140873
-0.00156206
-0.00172748
-0.0019053
-0.00209533
-0.00229663
-0.00250755
-0.0027269
-0.00295285
-0.00318132
-0.00340751
-0.00362637
-0.00383247
-0.00402058
-0.00418569
-0.0043227
-0.00442674
-0.00449289
-0.00451596
-0.00449055
-0.00441116
-0.00427276
-0.00407076
-0.00380116
-0.00346164
-0.00305177
-0.00256954
-0.00201125
-0.0013845
-0.000700914
3.28499e-05
0.000803611
0.00159661
0.00239366
0.00317571
0.00392192
0.00460764
0.00520858
0.00570456
0.00607926
0.00632198
0.00642958
0.00640761
0.00627041
0.00603329
0.00573409
0.00539862
0.00505877
0.0047417
0.00446259
0.00423765
0.00406911
0.00394836
0.00387037
0.00382535
0.00380362
0.00379736
0.00380095
0.00380926
-6.55692e-07
-4.16505e-07
-8.93618e-06
-2.62697e-05
-5.1014e-05
-8.18405e-05
-0.000117915
-0.000158908
-0.000204785
-0.000255707
-0.000311941
-0.000373792
-0.000441505
-0.000515328
-0.000595463
-0.000682079
-0.000775402
-0.000875777
-0.000983714
-0.00109989
-0.00122508
-0.00136026
-0.00150636
-0.00166395
-0.00183332
-0.00201454
-0.00220741
-0.00241133
-0.00262445
-0.00284449
-0.00306935
-0.00329581
-0.00351914
-0.00373333
-0.00393233
-0.0041107
-0.00426298
-0.00438357
-0.00446705
-0.00450801
-0.00450111
-0.00444104
-0.00432235
-0.00414002
-0.00389038
-0.0035712
-0.00318077
-0.00271706
-0.0021832
-0.00158591
-0.00092928
-0.000222162
0.000522723
0.00129104
0.00206548
0.00282635
0.00355216
0.0042221
0.00481482
0.00530962
0.00569063
0.00594739
0.00607651
0.00608248
0.00597746
0.00578005
0.00551735
0.00521816
0.00491229
0.00462564
0.0043776
0.00417834
0.00403075
0.00392977
0.00386704
0.00383254
0.00381561
0.00380989
0.00381251
0.00382056
7.19683e-06
6.18642e-06
-3.00142e-06
-2.01457e-05
-4.37663e-05
-7.28228e-05
-0.000106809
-0.000145628
-0.000189392
-0.000238306
-0.000292518
-0.000352135
-0.000417226
-0.000487796
-0.000563851
-0.000645486
-0.000732925
-0.000826589
-0.000927115
-0.00103535
-0.00115229
-0.00127909
-0.00141691
-0.00156678
-0.00172955
-0.00190586
-0.00209612
-0.00230024
-0.00251704
-0.00274443
-0.0029796
-0.00321889
-0.00345793
-0.00369141
-0.0039131
-0.00411615
-0.00429411
-0.00444104
-0.00455105
-0.00461835
-0.00463737
-0.00460268
-0.00450892
-0.0043513
-0.00412641
-0.0038321
-0.00346769
-0.00303348
-0.00252638
-0.00195499
-0.0013259
-0.000646943
7.08483e-05
0.000814152
0.00156696
0.00231033
0.00302347
0.00368712
0.00428125
0.0047862
0.00518554
0.00546865
0.0056311
0.00567636
0.00561492
0.00546402
0.00524793
0.00499406
0.00472676
0.0044763
0.00425764
0.00408461
0.00396066
0.0038797
0.0038319
0.00380885
0.00380084
0.00380118
0.00380758
0.00381785
2.47798e-05
2.15301e-05
1.03522e-05
-7.81413e-06
-3.09248e-05
-5.82862e-05
-8.99085e-05
-0.000126081
-0.000167086
-0.000213116
-0.000264238
-0.000320427
-0.000381606
-0.00044768
-0.000518586
-0.000594404
-0.000675423
-0.000762206
-0.000855616
-0.000956817
-0.00106724
-0.00118854
-0.00132246
-0.0014707
-0.00163484
-0.00181616
-0.00201556
-0.00223335
-0.00246837
-0.00271797
-0.0029786
-0.0032458
-0.00351418
-0.00377797
-0.00403059
-0.00426452
-0.00447279
-0.0046491
-0.00478709
-0.00488073
-0.00492421
-0.00491212
-0.00483964
-0.0047027
-0.00449792
-0.00422303
-0.00387721
-0.00346044
-0.0029736
-0.00242135
-0.00180976
-0.00114673
-0.00044246
0.000290567
0.00103729
0.00177996
0.00249889
0.00317399
0.00378588
0.00431524
0.00474516
0.00506377
0.00526467
0.00534928
0.0053267
0.00521348
0.00503186
0.00480778
0.00456788
0.00433791
0.00413669
0.00397721
0.00386522
0.00379746
0.0037654
0.00375528
0.00375791
0.00376734
0.00378022
0.00379381
5.24873e-05
4.60528e-05
3.15246e-05
1.07699e-05
-1.2789e-05
-3.9213e-05
-6.88997e-05
-0.000102538
-0.000140624
-0.00018343
-0.000231047
-0.000283455
-0.000340571
-0.000402317
-0.000468693
-0.000539883
-0.000616339
-0.000698873
-0.000788719
-0.000887544
-0.000997402
-0.00112064
-0.00125972
-0.00141707
-0.00159479
-0.00179439
-0.00201645
-0.00226046
-0.0025251
-0.0028073
-0.00310251
-0.0034052
-0.00370879
-0.00400641
-0.00429108
-0.00455565
-0.00479314
-0.00499676
-0.00516005
-0.00527696
-0.00534185
-0.00534956
-0.00529557
-0.00517612
-0.00498806
-0.00472922
-0.00439861
-0.00399651
-0.00352454
-0.00298628
-0.00238704
-0.00173419
-0.00103707
-0.000307018
0.000442002
0.00119331
0.00192823
0.00262668
0.0032689
0.00383519
0.00430774
0.00467206
0.00492154
0.00505502
0.00507805
0.00500534
0.00485789
0.00466079
0.00444126
0.00422504
0.00403295
0.00387923
0.00377115
0.00370758
0.00368091
0.00367937
0.0036915
0.00370993
0.00372921
0.00374541
8.998e-05
7.95351e-05
6.01592e-05
3.58907e-05
1.00202e-05
-1.6538e-05
-4.50089e-05
-7.65737e-05
-0.000111996
-0.000151724
-0.000195995
-0.000244912
-0.000298513
-0.00035685
-0.000420095
-0.000488666
-0.000563345
-0.000645377
-0.000736543
-0.000839159
-0.000955988
-0.00109008
-0.00124451
-0.0014221
-0.00162498
-0.00185403
-0.00210933
-0.00238975
-0.0026928
-0.00301428
-0.00334827
-0.00368852
-0.00402826
-0.00436017
-0.0046769
-0.00497136
-0.0052366
-0.00546589
-0.0056529
-0.00579178
-0.00587708
-0.00590385
-0.00586784
-0.00576569
-0.00559451
-0.00535228
-0.00503823
-0.00465274
-0.00419725
-0.00367472
-0.00308995
-0.00244959
-0.00176172
-0.00103594
-0.000284868
0.000475519
0.00122738
0.00195247
0.00263115
0.00324307
0.00376963
0.00419451
0.00450677
0.00470275
0.00478817
0.00477278
0.00467378
0.004515
0.00432374
0.00412634
0.00394499
0.00379603
0.00368858
0.00362399
0.00359684
0.00359696
0.00361304
0.00363593
0.0036587
0.00367601
0.000136
0.000120693
9.5267e-05
6.51753e-05
3.61766e-05
8.69542e-06
-1.92301e-05
-4.92712e-05
-8.25161e-05
-0.000119678
-0.000161233
-0.000207506
-0.000258756
-0.000315281
-0.000377556
-0.000446388
-0.00052305
-0.000609386
-0.000707848
-0.000821446
-0.000953591
-0.00110784
-0.00128751
-0.0014953
-0.00173277
-0.0020002
-0.00229677
-0.00262023
-0.00296631
-0.00332979
-0.00370447
-0.0040835
-0.00445981
-0.00482604
-0.00517476
-0.00549879
-0.00579126
-0.00604571
-0.00625615
-0.00641699
-0.00652323
-0.00656999
-0.00655304
-0.0064698
-0.00631783
-0.00609537
-0.00580211
-0.00543854
-0.0050054
-0.00450486
-0.0039409
-0.00331901
-0.00264554
-0.0019282
-0.001179
-0.000413017
0.000353414
0.00110466
0.00182223
0.00248486
0.00307385
0.00357256
0.0039658
0.00424506
0.00441112
0.00447297
0.00444427
0.00434307
0.00419568
0.00402903
0.00386655
0.00372657
0.0036208
0.00355335
0.00352183
0.00351809
0.00353194
0.00355361
0.00357597
0.00359208
0.000188002
0.000167647
0.000134635
9.7272e-05
6.40697e-05
3.49016e-05
6.85865e-06
-2.23099e-05
-5.40944e-05
-8.95528e-05
-0.000129475
-0.000174485
-0.000225155
-0.000282141
-0.000346357
-0.000419138
-0.000502385
-0.000598628
-0.000711007
-0.000843136
-0.000998888
-0.00118204
-0.00139566
-0.00164184
-0.00192144
-0.0022338
-0.0025766
-0.00294624
-0.0033378
-0.00374513
-0.00416165
-0.00458026
-0.00499363
-0.00539436
-0.00577503
-0.0061285
-0.00644823
-0.0067281
-0.00696236
-0.00714585
-0.00727386
-0.00734128
-0.00734412
-0.00728172
-0.00715228
-0.00695465
-0.0066879
-0.00635147
-0.00594622
-0.00547415
-0.00493811
-0.00434178
-0.00368991
-0.00299079
-0.00225383
-0.0014895
-0.000711825
6.4512e-05
0.000819301
0.00153433
0.00219155
0.00277275
0.00326068
0.00364398
0.00391494
0.00407714
0.00414121
0.00412175
0.00403906
0.00391977
0.0037885
0.00366565
0.00356591
0.00349675
0.00345878
0.00344756
0.00345403
0.00346968
0.00348717
0.00349947
0.000243225
0.000217752
0.000175568
0.000129686
9.14009e-05
5.98413e-05
3.09948e-05
1.92892e-06
-2.93333e-05
-6.42656e-05
-0.000104035
-0.000149635
-0.000202029
-0.000262336
-0.000332014
-0.000413033
-0.000507981
-0.000620076
-0.000753058
-0.000910994
-0.00109803
-0.00131758
-0.00157215
-0.00186314
-0.00219021
-0.00255132
-0.00294321
-0.00336132
-0.00379992
-0.00425236
-0.00471155
-0.00517013
-0.00562069
-0.00605585
-0.00646825
-0.00685097
-0.0071977
-0.00750258
-0.00776015
-0.00796501
-0.00811208
-0.00819751
-0.00822136
-0.00818179
-0.0080764
-0.0079042
-0.00766434
-0.00735613
-0.00698074
-0.00653997
-0.00603563
-0.00547016
-0.00484833
-0.00417715
-0.00346344
-0.00271563
-0.00194237
-0.0011584
-0.000376825
0.000388631
0.00111446
0.00178145
0.00237272
0.00287268
0.00326936
0.00355753
0.00374003
0.00382702
0.00383399
0.00378306
0.00369916
0.00360487
0.00351822
0.00345069
0.00340697
0.00338567
0.00338134
0.00338722
0.00339576
0.00340258
0.000298248
0.000267163
0.000214905
0.000159496
0.000115381
8.07672e-05
5.03912e-05
2.05372e-05
-1.13378e-05
-4.7186e-05
-8.86061e-05
-0.000137016
-0.000193846
-0.000260749
-0.000339802
-0.000433648
-0.000545553
-0.000679351
-0.000839273
-0.00102968
-0.00125437
-0.00151632
-0.00181727
-0.00215737
-0.00253518
-0.00294775
-0.00339081
-0.00385884
-0.00434533
-0.00484331
-0.0053454
-0.00584401
-0.0063315
-0.00680038
-0.00724337
-0.00765374
-0.00802531
-0.00835246
-0.00862966
-0.00885163
-0.0090154
-0.0091212
-0.00916791
-0.00915036
-0.00906715
-0.00891716
-0.00870048
-0.00841801
-0.00807075
-0.00766005
-0.0071878
-0.00665684
-0.0060713
-0.00543574
-0.00475569
-0.00403655
-0.00328213
-0.00250156
-0.00170668
-0.000914715
-0.000138168
0.0006078
0.00130127
0.0019218
0.00245546
0.00288852
0.00321475
0.00343472
0.00355783
0.00360036
0.00358417
0.00353338
0.00346966
0.0034091
0.00336143
0.00332991
0.00331259
0.00330582
0.00330289
0.00330315
0.000349979
0.000312501
0.000249225
0.000183497
0.000132926
9.46134e-05
6.19252e-05
3.02747e-05
-3.51474e-06
-4.19248e-05
-8.70308e-05
-0.000140723
-0.000204948
-0.000281943
-0.000374425
-0.000485692
-0.000619618
-0.000780562
-0.000973118
-0.00120144
-0.00146895
-0.00177788
-0.00212874
-0.00252088
-0.00295195
-0.00341772
-0.00391289
-0.00443134
-0.00496605
-0.0055095
-0.00605385
-0.00659121
-0.00711373
-0.00761385
-0.00808444
-0.00851895
-0.00891136
-0.00925629
-0.00954952
-0.00978858
-0.00997128
-0.0100949
-0.010156
-0.0101535
-0.0100873
-0.00995713
-0.00976353
-0.00950733
-0.00918954
-0.0088113
-0.00837417
-0.00788026
-0.00733225
-0.0067329
-0.00608512
-0.00539242
-0.00466171
-0.00390018
-0.00311542
-0.00231449
-0.00150414
-0.000703392
7.11104e-05
0.000803922
0.00147144
0.00205614
0.00254229
0.0029194
0.00318589
0.00334971
0.00342624
0.00343806
0.0034104
0.00336456
0.00331622
0.00327512
0.00324421
0.00322229
0.00320662
0.00319998
0.000393153
0.000349632
0.000274842
0.000198318
0.000140797
9.81563e-05
6.23158e-05
2.77597e-05
-9.37074e-06
-5.21249e-05
-0.000103088
-0.000164657
-0.000239322
-0.00032992
-0.000439794
-0.000572818
-0.000733374
-0.000926299
-0.00115624
-0.00142683
-0.00174093
-0.00209978
-0.00250325
-0.00294957
-0.00343505
-0.00395465
-0.00450227
-0.00507092
-0.00565293
-0.00624019
-0.0068245
-0.00739764
-0.00795167
-0.00847898
-0.00897266
-0.00942654
-0.00983524
-0.0101942
-0.0104999
-0.0107499
-0.0109421
-0.0110747
-0.011146
-0.0111556
-0.0111038
-0.0109909
-0.0108175
-0.0105847
-0.0102936
-0.00994536
-0.00954157
-0.00908387
-0.00857413
-0.00801418
-0.00740572
-0.00675085
-0.00605313
-0.00531638
-0.00454473
-0.00374384
-0.00292467
-0.00209499
-0.00126176
-0.000444272
0.000337664
0.00106356
0.00171107
0.00225899
0.00269227
0.00300562
0.00320392
0.00330313
0.00332886
0.00330875
0.00326505
0.00321573
0.00317072
0.00313247
0.00310442
0.00309016
0.000424534
0.000374797
0.000288232
0.000200668
0.000135793
8.81911e-05
4.83074e-05
9.66346e-06
-3.23099e-05
-8.12525e-05
-0.00014028
-0.000212312
-0.000300391
-0.00040794
-0.000538866
-0.000697503
-0.000888747
-0.00111781
-0.00138867
-0.00170466
-0.00206793
-0.00247899
-0.00293668
-0.00343796
-0.0039782
-0.00455135
-0.00515038
-0.00576748
-0.00639436
-0.00702237
-0.00764281
-0.00824719
-0.00882748
-0.00937622
-0.00988691
-0.010354
-0.0107728
-0.0111396
-0.0114515
-0.0117066
-0.0119035
-0.0120411
-0.012119
-0.0121372
-0.0120962
-0.0119968
-0.0118398
-0.0116265
-0.0113583
-0.0110364
-0.0106623
-0.0102375
-0.00976336
-0.00924121
-0.00867213
-0.00805726
-0.0073981
-0.00669611
-0.00595288
-0.00517098
-0.00435497
-0.00351013
-0.00264661
-0.0017748
-0.000906445
-6.47556e-05
0.000727659
0.00144367
0.00205533
0.00254143
0.00289115
0.003108
0.00321128
0.00323212
0.00320148
0.00314664
0.00308719
0.00303228
0.00299234
0.00296899
0.000440308
0.000384369
0.000286066
0.000187436
0.000114883
6.16899e-05
1.68406e-05
-2.7109e-05
-7.54459e-05
-0.000132407
-0.000201646
-0.000286605
-0.000390866
-0.000518389
-0.000673541
-0.000861082
-0.00108657
-0.00135462
-0.00166894
-0.00203263
-0.00244682
-0.00291128
-0.00342367
-0.00397978
-0.00457385
-0.0051989
-0.00584704
-0.00650965
-0.00717765
-0.00784181
-0.00849301
-0.00912263
-0.00972272
-0.0102863
-0.0108075
-0.0112815
-0.0117046
-0.0120737
-0.0123867
-0.0126425
-0.0128403
-0.0129797
-0.0130608
-0.0130842
-0.0130506
-0.0129612
-0.0128171
-0.0126197
-0.0123705
-0.012071
-0.0117226
-0.0113268
-0.0108847
-0.0103972
-0.00986507
-0.00928872
-0.0086684
-0.0080041
-0.00729578
-0.00654375
-0.00574892
-0.00491306
-0.00404044
-0.00313756
-0.0022157
-0.00128881
-0.000380051
0.000482901
0.00126686
0.00193581
0.00246042
0.00282607
0.00303824
0.00312262
0.0031181
0.003063
0.00298943
0.00291751
0.00286435
0.00283053
0.000436992
0.000375036
0.000265325
0.000155815
7.53413e-05
1.59431e-05
-3.47959e-05
-8.52605e-05
-0.000141442
-0.000208168
-0.000289621
-0.000389756
-0.000512654
-0.000662717
-0.000844634
-0.00106401
-0.00132617
-0.00163507
-0.00199484
-0.00240743
-0.00287339
-0.0033914
-0.00395783
-0.00456737
-0.00521326
-0.00588755
-0.00658138
-0.0072852
-0.00798919
-0.0086836
-0.00935912
-0.0100072
-0.0106203
-0.0111922
-0.011718
-0.0121935
-0.0126158
-0.0129828
-0.0132932
-0.0135464
-0.0137422
-0.0138807
-0.0139625
-0.0139884
-0.0139596
-0.0138774
-0.013743
-0.0135582
-0.0133246
-0.0130436
-0.012717
-0.0123459
-0.0119316
-0.0114749
-0.0109761
-0.0104354
-0.00985223
-0.00922566
-0.00855437
-0.00783689
-0.00707188
-0.00625858
-0.00539736
-0.00449031
-0.00354274
-0.00256442
-0.0015729
-0.000594473
0.0003375
0.00118138
0.00189123
0.00243042
0.00278446
0.00296336
0.00300446
0.0029595
0.00287431
0.00278431
0.00271489
0.00266914
0.000411546
0.000343945
0.000223426
0.000103414
1.48616e-05
-5.13197e-05
-0.000108841
-0.000166975
-0.000232387
-0.000310471
-0.000405927
-0.000523199
-0.000666782
-0.000841358
-0.00105227
-0.00130567
-0.00160574
-0.00195711
-0.00236314
-0.00282502
-0.00334255
-0.00391303
-0.00453178
-0.00519246
-0.00588721
-0.00660699
-0.00734186
-0.00808143
-0.00881525
-0.00953329
-0.0102263
-0.0108861
-0.011506
-0.0120807
-0.0126059
-0.0130785
-0.0134964
-0.0138583
-0.0141635
-0.0144119
-0.0146037
-0.0147396
-0.0148203
-0.014847
-0.014821
-0.0147436
-0.0146166
-0.0144416
-0.0142202
-0.0139543
-0.0136454
-0.0132949
-0.0129041
-0.0124737
-0.0120041
-0.0114951
-0.0109459
-0.0103551
-0.00972048
-0.00903948
-0.00830905
-0.00752625
-0.00668874
-0.00579534
-0.0048469
-0.00384784
-0.00280911
-0.0017508
-0.000704137
0.000289234
0.00117671
0.00190225
0.00242501
0.00273223
0.00284791
0.00282863
0.00273828
0.00262903
0.00253819
0.00247977
0.000361455
0.000288824
0.000158326
2.83567e-05
-6.83511e-05
-0.000141837
-0.000206966
-0.000273827
-0.000349709
-0.000440541
-0.00055151
-0.00068751
-0.000853365
-0.00105398
-0.00129573
-0.00158399
-0.001923
-0.00231752
-0.00276969
-0.00328042
-0.00384816
-0.00446918
-0.00513778
-0.00584642
-0.00658606
-0.00734651
-0.00811685
-0.00888594
-0.00964298
-0.0103779
-0.0110819
-0.0117475
-0.012369
-0.0129418
-0.0134627
-0.0139294
-0.0143405
-0.0146954
-0.0149939
-0.0152364
-0.0154233
-0.0155555
-0.0156342
-0.0156605
-0.0156358
-0.0155618
-0.0154401
-0.0152724
-0.0150606
-0.0148065
-0.0145118
-0.0141779
-0.0138063
-0.0133978
-0.0129527
-0.012471
-0.0119518
-0.0113934
-0.0107932
-0.010148
-0.00945377
-0.00870599
-0.0079002
-0.00703254
-0.00610051
-0.00510416
-0.00404845
-0.00294625
-0.00182188
-0.000713558
0.00032651
0.00123312
0.00194154
0.00240716
0.00262963
0.00266064
0.00257624
0.00244736
0.0023295
0.00225837
0.000284951
0.000207952
6.85605e-05
-7.06786e-05
-0.000175525
-0.000256756
-0.000330218
-0.000406726
-0.000494135
-0.000598862
-0.00072654
-0.000882435
-0.00107157
-0.00129953
-0.00157297
-0.00189631
-0.00227479
-0.00271198
-0.00320962
-0.00376768
-0.00438359
-0.00505256
-0.0057677
-0.00652026
-0.00729997
-0.00809555
-0.00889522
-0.00968738
-0.0104611
-0.0112067
-0.011916
-0.0125826
-0.0132016
-0.0137693
-0.0142834
-0.0147423
-0.0151454
-0.0154925
-0.0157838
-0.0160199
-0.0162017
-0.01633
-0.0164061
-0.0164314
-0.0164072
-0.0163353
-0.0162174
-0.0160552
-0.0158506
-0.0156055
-0.0153217
-0.0150009
-0.0146445
-0.0142535
-0.0138286
-0.0133696
-0.0128759
-0.0123458
-0.0117767
-0.0111649
-0.0105061
-0.0097947
-0.00902485
-0.0081906
-0.00728689
-0.0063102
-0.00526042
-0.00414418
-0.00297794
-0.00179227
-0.000634863
0.000429482
0.00132083
0.00196689
0.00233159
0.00244265
0.00238021
0.00223517
0.00208542
0.00200256
0.000181032
0.000100208
-4.67859e-05
-0.000194445
-0.000307293
-0.000396597
-0.000478987
-0.000565894
-0.000665671
-0.000785176
-0.000930437
-0.00110698
-0.00131998
-0.00157605
-0.00188107
-0.00223969
-0.0026571
-0.00313589
-0.00367744
-0.00428067
-0.00494203
-0.00565561
-0.00641328
-0.00720503
-0.00801941
-0.00884419
-0.00966698
-0.010476
-0.0112606
-0.0120115
-0.0127217
-0.0133856
-0.0139992
-0.0145597
-0.0150656
-0.015516
-0.0159107
-0.01625
-0.0165343
-0.0167643
-0.0169411
-0.0170656
-0.0171392
-0.0171632
-0.0171391
-0.0170685
-0.0169531
-0.0167948
-0.0165955
-0.0163571
-0.0160815
-0.0157705
-0.0154257
-0.0150484
-0.0146393
-0.0141987
-0.0137259
-0.0132197
-0.0126776
-0.012096
-0.0114702
-0.0107944
-0.0100619
-0.00926509
-0.00839704
-0.0074517
-0.00642483
-0.0053172
-0.00413858
-0.00291083
-0.00167365
-0.000487337
0.000567581
0.00139882
0.00193223
0.00215619
0.00214107
0.0019882
0.00180622
0.00171065
4.92521e-05
-3.47823e-05
-0.000187987
-0.000343076
-0.000463666
-0.000561245
-0.000653004
-0.000750873
-0.000863624
-0.0009985
-0.00116185
-0.00135935
-0.00159664
-0.00188077
-0.00221686
-0.00261033
-0.0030654
-0.00358418
-0.00416735
-0.00481299
-0.00551649
-0.00627074
-0.00706635
-0.00789211
-0.00873552
-0.00958357
-0.0104236
-0.0112439
-0.0120342
-0.0127864
-0.0134941
-0.0141527
-0.0147592
-0.0153116
-0.0158089
-0.0162508
-0.0166375
-0.0169694
-0.0172473
-0.0174719
-0.0176443
-0.0177655
-0.0178368
-0.0178596
-0.0178352
-0.0177653
-0.0176516
-0.017496
-0.0173003
-0.0170666
-0.0167969
-0.016493
-0.0161567
-0.0157895
-0.0153924
-0.014966
-0.01451
-0.0140234
-0.013504
-0.0129486
-0.0123526
-0.0117101
-0.011014
-0.0102561
-0.00942772
-0.00852079
-0.00752857
-0.00644672
-0.0052785
-0.00403825
-0.00275573
-0.00148408
-0.000300025
0.000700244
0.00141654
0.00178722
0.00184531
0.00169867
0.00149341
0.00138173
-0.000110207
-0.000196674
-0.00035464
-0.000516072
-0.000644037
-0.000749962
-0.000851366
-0.000960553
-0.00108664
-0.00123718
-0.00141879
-0.00163716
-0.00189871
-0.00221025
-0.00257679
-0.00300385
-0.00349472
-0.00405124
-0.00467334
-0.00535814
-0.00609995
-0.00689049
-0.00771915
-0.00857357
-0.0094404
-0.0103062
-0.0111581
-0.0119849
-0.0127771
-0.0135273
-0.0142302
-0.0148821
-0.0154807
-0.0160248
-0.0165138
-0.0169479
-0.0173273
-0.0176528
-0.0179252
-0.0181452
-0.018314
-0.0184326
-0.018502
-0.0185237
-0.018499
-0.0184295
-0.0183168
-0.0181629
-0.0179695
-0.0177389
-0.017473
-0.0171738
-0.0168434
-0.0164833
-0.0160949
-0.015679
-0.0152358
-0.0147646
-0.0142638
-0.0137305
-0.0131605
-0.0125482
-0.0118864
-0.0111667
-0.0103794
-0.00951478
-0.00856419
-0.0075202
-0.00637977
-0.00515038
-0.00385297
-0.00252987
-0.00125304
-0.000112633
0.000779129
0.0013171
0.00147829
0.00136076
0.00114659
0.00101321
-0.000296438
-0.000384485
-0.000545737
-0.000712362
-0.000847221
-0.000961426
-0.00107258
-0.00119324
-0.00133278
-0.00149901
-0.0016987
-0.00193763
-0.00222282
-0.00256074
-0.00295663
-0.00341548
-0.0039399
-0.00453149
-0.00518935
-0.00590965
-0.00668562
-0.0075078
-0.00836448
-0.00924232
-0.0101273
-0.0110058
-0.0118652
-0.0126947
-0.0134858
-0.0142319
-0.0149286
-0.0155732
-0.0161639
-0.0167001
-0.0171816
-0.0176087
-0.017982
-0.0183022
-0.0185701
-0.0187867
-0.0189527
-0.0190693
-0.0191374
-0.0191583
-0.0191333
-0.019064
-0.0189519
-0.0187988
-0.0186067
-0.0183778
-0.018114
-0.0178177
-0.0174908
-0.0171352
-0.0167526
-0.0163441
-0.0159102
-0.0154507
-0.0149646
-0.0144494
-0.0139015
-0.0133157
-0.0126852
-0.0120015
-0.0112549
-0.0104342
-0.00952894
-0.00853016
-0.00743015
-0.00622921
-0.00494087
-0.00359695
-0.00226176
-0.00101803
2.35813e-05
0.000734903
0.0010308
0.000967503
0.000759283
0.000599199
-0.000507905
-0.000596647
-0.000759711
-0.000930341
-0.00107151
-0.00119379
-0.00131463
-0.00144672
-0.0015996
-0.00178123
-0.00199843
-0.00225728
-0.00256527
-0.00292832
-0.00335187
-0.00384023
-0.00439562
-0.00501926
-0.0057094
-0.00646125
-0.00726701
-0.00811615
-0.00899592
-0.00989224
-0.0107907
-0.0116775
-0.0125407
-0.0133701
-0.014158
-0.0148988
-0.0155888
-0.0162261
-0.0168094
-0.0173384
-0.0178134
-0.0182348
-0.0186031
-0.0189193
-0.019184
-0.019398
-0.0195622
-0.0196775
-0.0197448
-0.0197653
-0.0197402
-0.0196709
-0.0195589
-0.0194062
-0.0192146
-0.0189862
-0.0187232
-0.018428
-0.0181028
-0.0177496
-0.0173703
-0.0169664
-0.0165388
-0.0160878
-0.0156128
-0.0151121
-0.0145825
-0.0140195
-0.0134168
-0.0127663
-0.0120582
-0.0112812
-0.0104231
-0.00947331
-0.00842202
-0.00726303
-0.00600216
-0.00466155
-0.00329803
-0.00198715
-0.000826805
4.53561e-05
0.000492345
0.000510458
0.000324536
0.000130758
-0.000742515
-0.000831071
-0.000994497
-0.00116792
-0.00131472
-0.00144474
-0.00157504
-0.0017183
-0.00188415
-0.00208062
-0.00231453
-0.00259254
-0.00292207
-0.00330865
-0.00375783
-0.00427309
-0.00485662
-0.00550901
-0.0062277
-0.00700701
-0.00783817
-0.00870966
-0.00960789
-0.0105182
-0.0114259
-0.0123177
-0.0131818
-0.0140091
-0.0147925
-0.0155274
-0.0162108
-0.0168412
-0.0174179
-0.0179409
-0.0184106
-0.0188274
-0.0191922
-0.0195055
-0.019768
-0.0199806
-0.0201439
-0.0202586
-0.0203256
-0.020346
-0.0203209
-0.0202516
-0.0201396
-0.0199867
-0.0197948
-0.0195661
-0.0193028
-0.0190074
-0.0186822
-0.0183296
-0.0179516
-0.01755
-0.0171262
-0.0166809
-0.016214
-0.0157244
-0.0152095
-0.0146657
-0.0140872
-0.0134666
-0.0127943
-0.0120591
-0.0112483
-0.0103492
-0.00935104
-0.00824402
-0.0070262
-0.00570913
-0.00433413
-0.00299281
-0.00175017
-0.000745803
-0.000144015
-1.50238e-05
-0.000165007
-0.000401837
-0.0009977
-0.00108522
-0.00124761
-0.0014226
-0.0015743
-0.00171159
-0.00185094
-0.00200489
-0.00218306
-0.0023936
-0.00264349
-0.00293972
-0.003289
-0.00369726
-0.00416972
-0.00470912
-0.00531773
-0.00599539
-0.00673879
-0.00754144
-0.00839368
-0.00928315
-0.0101956
-0.0111159
-0.0120296
-0.0129234
-0.0137865
-0.0146103
-0.0153887
-0.0161175
-0.0167947
-0.0174191
-0.0179902
-0.0185084
-0.018974
-0.0193876
-0.0197499
-0.0200615
-0.020323
-0.0205351
-0.0206982
-0.0208131
-0.0208804
-0.0209011
-0.0208762
-0.0208069
-0.0206946
-0.0205412
-0.0203485
-0.0201188
-0.0198543
-0.0195575
-0.0192311
-0.0188775
-0.018499
-0.0180979
-0.0176758
-0.0172338
-0.0167724
-0.0162909
-0.0157878
-0.0152598
-0.014702
-0.0141077
-0.0134681
-0.0127721
-0.0120069
-0.0111587
-0.0102153
-0.00916521
-0.00800044
-0.00672538
-0.00536079
-0.00401144
-0.00272698
-0.00162442
-0.000880271
-0.000623567
-0.000724359
-0.00100806
-0.00127051
-0.00135619
-0.00151621
-0.00169157
-0.00184735
-0.00199129
-0.00213905
-0.002303
-0.00249286
-0.00271685
-0.00298185
-0.0032946
-0.00366176
-0.00408972
-0.00458279
-0.00514351
-0.00577397
-0.00647332
-0.00723759
-0.00805954
-0.00892875
-0.00983216
-0.010755
-0.011682
-0.0125988
-0.0134927
-0.0143533
-0.0151729
-0.015946
-0.0166693
-0.0173409
-0.0179602
-0.0185269
-0.0190414
-0.0195041
-0.0199157
-0.0202768
-0.0205878
-0.0208492
-0.0210616
-0.0212254
-0.0213411
-0.0214092
-0.0214305
-0.021406
-0.0213368
-0.0212242
-0.02107
-0.0208761
-0.0206447
-0.0203782
-0.0200792
-0.0197504
-0.0193946
-0.0190144
-0.0186122
-0.0181899
-0.0177493
-0.0172911
-0.0168155
-0.0163212
-0.015806
-0.0152657
-0.0146944
-0.014084
-0.0134241
-0.0127021
-0.011904
-0.0110154
-0.0100247
-0.00891995
-0.00769843
-0.00637139
-0.00501618
-0.00372813
-0.00256459
-0.00170564
-0.00132546
-0.00136658
-0.0016891
-0.00155772
-0.00164081
-0.00179723
-0.00197181
-0.00213076
-0.00228058
-0.0024361
-0.00260952
-0.00281049
-0.00304701
-0.00332554
-0.00365289
-0.00403621
-0.00448153
-0.0049925
-0.00557163
-0.00622064
-0.0069381
-0.00771946
-0.00855683
-0.00943916
-0.0103528
-0.0112828
-0.0122138
-0.0131315
-0.0140239
-0.0148812
-0.0156963
-0.0164644
-0.0171826
-0.0178496
-0.0184647
-0.0190281
-0.0195401
-0.0200011
-0.0204119
-0.0207727
-0.0210841
-0.0213464
-0.0215599
-0.021725
-0.021842
-0.0219114
-0.0219337
-0.0219098
-0.0218407
-0.0217278
-0.0215726
-0.0213772
-0.0211437
-0.0208746
-0.0205726
-0.0202407
-0.0198817
-0.0194985
-0.0190939
-0.0186701
-0.0182292
-0.0177725
-0.0173005
-0.0168129
-0.0163078
-0.0157821
-0.0152306
-0.0146461
-0.0140189
-0.0133371
-0.0125866
-0.0117522
-0.0108212
-0.00978114
-0.00862374
-0.00735164
-0.00599745
-0.00472703
-0.00354252
-0.00260085
-0.00211031
-0.00208873
-0.00243709
-0.00185591
-0.00193575
-0.00208748
-0.00226019
-0.00242141
-0.00257638
-0.00273911
-0.00292133
-0.00313234
-0.00337981
-0.00367017
-0.0040106
-0.00440819
-0.0048684
-0.00539454
-0.00598912
-0.00665339
-0.00738545
-0.00818025
-0.00902937
-0.00992128
-0.010842
-0.0117763
-0.0127089
-0.0136259
-0.0145158
-0.0153693
-0.01618
-0.0169435
-0.0176574
-0.0183206
-0.0189327
-0.0194938
-0.0200044
-0.0204648
-0.0208757
-0.0212372
-0.0215498
-0.0218138
-0.0220291
-0.0221961
-0.022315
-0.022386
-0.0224097
-0.0223866
-0.0223178
-0.0222045
-0.0220483
-0.0218511
-0.0216151
-0.021343
-0.0210375
-0.0207017
-0.0203387
-0.0199516
-0.0195435
-0.019117
-0.0186745
-0.0182178
-0.0177479
-0.0172648
-0.0167677
-0.016254
-0.0157194
-0.0151576
-0.0145598
-0.0139148
-0.013209
-0.0124269
-0.0115545
-0.01058
-0.00949151
-0.0082845
-0.00696026
-0.00570108
-0.00453223
-0.00354261
-0.00295701
-0.00287443
-0.00323533
-0.00216157
-0.00223761
-0.00238371
-0.0025535
-0.00271602
-0.00287543
-0.00304458
-0.00323451
-0.00345412
-0.00371112
-0.0040121
-0.00436402
-0.0047737
-0.00524629
-0.0057849
-0.00639194
-0.00706824
-0.00781151
-0.00861625
-0.00947371
-0.010372
-0.0112969
-0.0122331
-0.0131655
-0.0140807
-0.0149674
-0.015817
-0.0166235
-0.017383
-0.0180934
-0.0187538
-0.0193638
-0.0199237
-0.0204338
-0.0208946
-0.0213064
-0.0216695
-0.021984
-0.0222502
-0.022468
-0.0226374
-0.0227585
-0.0228316
-0.0228568
-0.0228348
-0.0227664
-0.0226528
-0.0224955
-0.0222964
-0.0220578
-0.0217823
-0.0214728
-0.0211326
-0.020765
-0.0203734
-0.0199609
-0.0195308
-0.0190857
-0.0186277
-0.0181584
-0.0176784
-0.0171873
-0.0166834
-0.0161631
-0.0156211
-0.0150495
-0.014438
-0.0137735
-0.013041
-0.0122252
-0.011314
-0.0102935
-0.00915559
-0.00790167
-0.00664128
-0.0055026
-0.00449882
-0.00383933
-0.00370064
-0.00404531
-0.00247123
-0.00254295
-0.00268247
-0.00284827
-0.00301124
-0.00317425
-0.00334877
-0.00354528
-0.00377244
-0.00403786
-0.00434798
-0.00470946
-0.00512899
-0.00561147
-0.00615985
-0.00677642
-0.00746166
-0.00821289
-0.00902426
-0.00988689
-0.0107887
-0.0117153
-0.0126515
-0.0135823
-0.0144947
-0.0153778
-0.0162236
-0.0170264
-0.0177826
-0.0184902
-0.0191486
-0.0197575
-0.020317
-0.0208275
-0.0212894
-0.0217029
-0.0220682
-0.0223853
-0.0226543
-0.022875
-0.0230472
-0.023171
-0.0232463
-0.0232734
-0.0232527
-0.0231849
-0.023071
-0.0229127
-0.0227116
-0.0224702
-0.0221911
-0.0218773
-0.0215323
-0.0211596
-0.0207628
-0.0203455
-0.0199111
-0.0194625
-0.0190024
-0.0185326
-0.0180543
-0.0175677
-0.0170716
-0.0165633
-0.0160385
-0.0154901
-0.0149087
-0.0142823
-0.0135961
-0.0128344
-0.0119841
-0.0110316
-0.00996542
-0.00878675
-0.00753901
-0.0064397
-0.00544374
-0.00473008
-0.00453708
-0.00483241
-0.00278135
-0.00284835
-0.00298049
-0.00314146
-0.00330406
-0.00346971
-0.00364863
-0.00385073
-0.00408435
-0.00435679
-0.00467433
-0.0050434
-0.00547058
-0.00596053
-0.00651604
-0.00713929
-0.0078305
-0.00858674
-0.00940146
-0.0102664
-0.0111691
-0.0120953
-0.0130298
-0.0139579
-0.0148669
-0.0157464
-0.0165885
-0.017388
-0.0181415
-0.0188472
-0.0195044
-0.0201129
-0.0206729
-0.0211845
-0.0216482
-0.022064
-0.022432
-0.0227522
-0.0230243
-0.0232482
-0.0234236
-0.0235503
-0.0236282
-0.0236573
-0.0236381
-0.0235709
-0.023457
-0.0232976
-0.0230946
-0.0228503
-0.0225675
-0.0222493
-0.0218993
-0.0215212
-0.0211188
-0.0206962
-0.0202568
-0.0198042
-0.0193412
-0.0188701
-0.0183925
-0.0179091
-0.0174193
-0.0169212
-0.0164111
-0.0158831
-0.0153289
-0.014737
-0.0140936
-0.013383
-0.0125911
-0.0117066
-0.0107169
-0.00961467
-0.00839402
-0.00732023
-0.00635725
-0.00560901
-0.00535885
-0.00559864
-0.00308863
-0.00315049
-0.0032747
-0.0034303
-0.00359165
-0.00375894
-0.00394127
-0.00414786
-0.00438664
-0.00466461
-0.00498791
-0.0053627
-0.00579537
-0.00629042
-0.00685049
-0.00747764
-0.00817202
-0.00893075
-0.0097455
-0.01061
-0.0115115
-0.0124354
-0.0133668
-0.0142913
-0.0151964
-0.0160722
-0.016911
-0.0177077
-0.0184591
-0.0191636
-0.0198203
-0.0204292
-0.0209902
-0.0215035
-0.0219695
-0.022388
-0.0227592
-0.0230827
-0.0233583
-0.0235857
-0.0237645
-0.0238943
-0.0239748
-0.0240062
-0.0239885
-0.0239222
-0.0238082
-0.0236479
-0.023443
-0.0231959
-0.0229094
-0.0225867
-0.0222315
-0.0218479
-0.0214398
-0.0210114
-0.0205669
-0.0201098
-0.0196434