/*--------------------------------*- C++ -*----------------------------------*\
  =========                 |
  \\      /  F ield         | OpenFOAM: The Open Source CFD Toolbox
   \\    /   O peration     | Website:  https://openfoam.org
    \\  /    A nd           | Version:  13
     \\/     M anipulation  |
\*---------------------------------------------------------------------------*/
FoamFile
{
    format      ascii;
    class       surfaceScalarField;
    location    "2.1";
    object      phi;
}
// * * * * * * * * * * * * * * * * * * * * * * * * * * * * * * * * * * * * * //

dimensions      [0 3 -1 0 0 0 0];

internalField   nonuniform List<scalar> 
12640
(
3.52106e-09
-3.52145e-09
1.00436e-08
-6.5226e-09
1.68184e-08
-6.77475e-09
2.22869e-08
-5.46855e-09
2.59784e-08
-3.69149e-09
2.80886e-08
-2.1102e-09
2.90617e-08
-9.73155e-10
2.93469e-08
-2.8522e-10
2.92815e-08
6.53645e-11
2.90704e-08
2.1112e-10
2.87868e-08
2.8357e-10
2.83992e-08
3.87641e-10
2.77972e-08
6.01927e-10
2.68126e-08
9.84672e-10
2.52535e-08
1.55906e-09
2.2929e-08
2.32452e-09
1.96722e-08
3.25681e-09
1.53574e-08
4.31471e-09
9.90444e-09
5.45299e-09
3.26671e-09
6.63772e-09
-4.60155e-09
7.86826e-09
-1.37936e-08
9.19209e-09
-2.44936e-08
1.06999e-08
-3.69524e-08
1.24588e-08
-5.14997e-08
1.45473e-08
-6.85539e-08
1.70543e-08
-8.86172e-08
2.00633e-08
-1.12241e-07
2.36243e-08
-1.39923e-07
2.76813e-08
-1.72105e-07
3.2182e-08
-2.09175e-07
3.70702e-08
-2.51378e-07
4.22028e-08
-2.98804e-07
4.74267e-08
-3.51274e-07
5.24692e-08
-4.0829e-07
5.70165e-08
-4.69076e-07
6.07856e-08
-5.32541e-07
6.34648e-08
-5.97423e-07
6.48825e-08
-6.62371e-07
6.49481e-08
-7.26016e-07
6.36452e-08
-7.87035e-07
6.10188e-08
-8.44182e-07
5.71466e-08
-8.96308e-07
5.2126e-08
-9.42382e-07
4.60746e-08
-9.81486e-07
3.91035e-08
-1.0128e-06
3.13164e-08
-1.03558e-06
2.27813e-08
-1.04931e-06
1.37288e-08
-1.05423e-06
4.92098e-09
-1.04908e-06
-5.1543e-09
-1.03377e-06
-1.53071e-08
-1.00807e-06
-2.56998e-08
-9.71844e-07
-3.62282e-08
-9.25192e-07
-4.66519e-08
-8.68458e-07
-5.6734e-08
-8.02271e-07
-6.61869e-08
-7.27408e-07
-7.48631e-08
-6.44766e-07
-8.26426e-08
-5.55546e-07
-8.92196e-08
-4.61479e-07
-9.40666e-08
-3.64588e-07
-9.68915e-08
-2.67273e-07
-9.73149e-08
-1.72243e-07
-9.50301e-08
-8.24101e-08
-8.98327e-08
-7.46146e-10
-8.1664e-08
7.06386e-08
-7.13848e-08
1.28314e-07
-5.76754e-08
1.70194e-07
-4.18801e-08
1.95017e-07
-2.48231e-08
2.02817e-07
-7.80022e-09
1.9495e-07
7.86794e-09
1.7444e-07
2.05098e-08
1.45307e-07
2.91329e-08
1.12778e-07
3.25284e-08
8.13183e-08
3.14601e-08
5.36604e-08
2.76579e-08
3.10872e-08
2.25732e-08
1.41298e-08
1.69575e-08
3.51552e-09
1.06142e-08
3.51552e-09
6.57703e-09
-1.00985e-08
1.73927e-08
-1.73383e-08
2.71231e-08
-1.65052e-08
3.35134e-08
-1.18589e-08
3.61983e-08
-6.37642e-09
3.56665e-08
-1.57842e-09
3.27314e-08
1.96198e-09
2.81713e-08
4.27487e-09
2.25593e-08
5.67729e-09
1.6204e-08
6.56644e-09
9.18291e-09
7.30466e-09
1.3764e-09
8.19414e-09
-7.4863e-09
9.46462e-09
-1.77571e-08
1.12554e-08
-2.98355e-08
1.36375e-08
-4.41287e-08
1.66177e-08
-6.10202e-08
2.01483e-08
-8.08587e-08
2.41532e-08
-1.03969e-07
2.85637e-08
-1.30683e-07
3.33518e-08
-1.61367e-07
3.85521e-08
-1.96422e-07
4.42471e-08
-2.36278e-07
5.05553e-08
-2.81423e-07
5.76039e-08
-3.32351e-07
6.54751e-08
-3.89462e-07
7.41655e-08
-4.5295e-07
8.35514e-08
-5.22715e-07
9.33889e-08
-5.98466e-07
1.03433e-07
-6.79725e-07
1.13441e-07
-7.65582e-07
1.22927e-07
-8.54712e-07
1.31332e-07
-9.45574e-07
1.38289e-07
-1.03657e-06
1.43462e-07
-1.12613e-06
1.46582e-07
-1.2128e-06
1.47458e-07
-1.29525e-06
1.4591e-07
-1.37228e-06
1.41916e-07
-1.44291e-06
1.35577e-07
-1.5063e-06
1.27034e-07
-1.56175e-06
1.16469e-07
-1.60869e-06
1.04086e-07
-1.64668e-06
9.01164e-08
-1.6754e-06
7.47914e-08
-1.69455e-06
5.82609e-08
-1.70391e-06
4.06762e-08
-1.70335e-06
2.22199e-08
-1.69231e-06
2.68313e-09
-1.67068e-06
-1.67103e-08
-1.6387e-06
-3.71296e-08
-1.59604e-06
-5.79657e-08
-1.54279e-06
-7.89488e-08
-1.47906e-06
-9.99564e-08
-1.40503e-06
-1.20688e-07
-1.32096e-06
-1.40807e-07
-1.22718e-06
-1.59959e-07
-1.12434e-06
-1.7771e-07
-1.01352e-06
-1.93455e-07
-8.9605e-07
-2.06694e-07
-7.73414e-07
-2.16702e-07
-6.47454e-07
-2.22851e-07
-5.20318e-07
-2.24451e-07
-3.94453e-07
-2.20895e-07
-2.72487e-07
-2.11798e-07
-1.57127e-07
-1.97025e-07
-5.1768e-08
-1.76744e-07
4.14789e-08
-1.50922e-07
1.20042e-07
-1.20443e-07
1.81453e-07
-8.6234e-08
2.24078e-07
-5.04257e-08
2.47185e-07
-1.52386e-08
2.50545e-07
1.71492e-08
2.35841e-07
4.38367e-08
2.05931e-07
6.24392e-08
1.65385e-07
7.20055e-08
1.20571e-07
7.24718e-08
7.7199e-08
6.59456e-08
3.9867e-08
5.42895e-08
1.25651e-08
3.79161e-08
1.60806e-08
7.20731e-09
-1.73058e-08
1.71262e-08
-2.72572e-08
2.36574e-08
-2.30363e-08
2.54245e-08
-1.3626e-08
2.29709e-08
-3.92291e-09
1.72106e-08
4.18195e-09
8.97202e-09
1.02005e-08
-1.11369e-09
1.43606e-08
-1.26354e-08
1.7199e-08
-2.54011e-08
1.93322e-08
-3.94456e-08
2.13491e-08
-5.50005e-08
2.3749e-08
-7.24442e-08
2.69084e-08
-9.22587e-08
3.10699e-08
-1.1497e-07
3.63492e-08
-1.41102e-07
4.27496e-08
-1.71155e-07
5.02011e-08
-2.05602e-07
5.86003e-08
-2.44895e-07
6.7857e-08
-2.89476e-07
7.79326e-08
-3.39774e-07
8.88496e-08
-3.96193e-07
1.00666e-07
-4.59079e-07
1.13441e-07
-5.28647e-07
1.27172e-07
-6.04902e-07
1.4173e-07
-6.87559e-07
1.56822e-07
-7.76004e-07
1.71997e-07
-8.69309e-07
1.86694e-07
-9.66194e-07
2.00318e-07
-1.06507e-06
2.12318e-07
-1.1643e-06
2.22154e-07
-1.2623e-06
2.29332e-07
-1.35757e-06
2.33558e-07
-1.44871e-06
2.34608e-07
-1.53449e-06
2.32358e-07
-1.61391e-06
2.26882e-07
-1.68634e-06
2.18334e-07
-1.75127e-06
2.06847e-07
-1.80834e-06
1.92652e-07
-1.8573e-06
1.7599e-07
-1.89795e-06
1.57121e-07
-1.93017e-06
1.36306e-07
-1.95384e-06
1.13784e-07
-1.96881e-06
8.97591e-08
-1.97495e-06
6.44047e-08
-1.97215e-06
3.78719e-08
-1.9602e-06
1.02759e-08
-1.93927e-06
-1.82444e-08
-1.90855e-06
-4.74369e-08
-1.86828e-06
-7.73933e-08
-1.81839e-06
-1.0786e-07
-1.75874e-06
-1.38601e-07
-1.68933e-06
-1.69362e-07
-1.61025e-06
-1.99774e-07
-1.52166e-06
-2.29391e-07
-1.42393e-06
-2.57695e-07
-1.31762e-06
-2.84015e-07
-1.20353e-06
-3.07543e-07
-1.08282e-06
-3.27404e-07
-9.56779e-07
-3.42745e-07
-8.27022e-07
-3.52609e-07
-6.95372e-07
-3.56101e-07
-5.63949e-07
-3.52319e-07
-4.35126e-07
-3.40621e-07
-3.1151e-07
-3.2064e-07
-1.95826e-07
-2.92428e-07
-9.05204e-08
-2.56228e-07
1.97953e-09
-2.12943e-07
8.00128e-08
-1.64267e-07
1.41568e-07
-1.11981e-07
1.85334e-07
-5.90041e-08
2.10717e-07
-8.23348e-09
2.17235e-07
3.7318e-08
2.06197e-07
7.34774e-08
1.80155e-07
9.80478e-08
1.42803e-07
1.09823e-07
9.9322e-08
1.09427e-07
5.58147e-08
9.77968e-08
1.92241e-08
7.45068e-08
3.53047e-08
6.16978e-09
-2.34756e-08
1.22598e-08
-3.33472e-08
1.31638e-08
-2.39404e-08
9.10704e-09
-9.56921e-09
1.27092e-09
3.9132e-09
-9.44847e-09
1.49013e-08
-2.24426e-08
2.31946e-08
-3.73266e-08
2.92446e-08
-5.39185e-08
3.37909e-08
-7.22389e-08
3.76526e-08
-9.24971e-08
4.16073e-08
-1.15061e-07
4.63128e-08
-1.40414e-07
5.22613e-08
-1.69106e-07
5.97617e-08
-2.01705e-07
6.89481e-08
-2.38766e-07
7.98107e-08
-2.80814e-07
9.22492e-08
-3.2834e-07
1.06126e-07
-3.81797e-07
1.21314e-07
-4.41583e-07
1.37719e-07
-5.08011e-07
1.55277e-07
-5.81253e-07
1.73908e-07
-6.61272e-07
1.9346e-07
-7.47747e-07
2.13647e-07
-8.40015e-07
2.33998e-07
-9.37059e-07
2.53867e-07
-1.03755e-06
2.72485e-07
-1.13993e-06
2.89078e-07
-1.24258e-06
3.02966e-07
-1.34387e-06
3.13609e-07
-1.44233e-06
3.20609e-07
-1.53661e-06
3.23619e-07
-1.6256e-06
3.22545e-07
-1.70849e-06
3.175e-07
-1.78475e-06
3.08615e-07
-1.854e-06
2.96134e-07
-1.916e-06
2.80331e-07
-1.97062e-06
2.61473e-07
-2.01781e-06
2.39842e-07
-2.05754e-06
2.15714e-07
-2.08977e-06
1.89357e-07
-2.11448e-06
1.61012e-07
-2.13158e-06
1.30887e-07
-2.14098e-06
9.91506e-08
-2.14252e-06
6.59528e-08
-2.13607e-06
3.14211e-08
-2.12147e-06
-4.32347e-09
-2.09855e-06
-4.11709e-08
-2.06699e-06
-7.89963e-08
-2.02667e-06
-1.17711e-07
-1.97743e-06
-1.57098e-07
-1.9191e-06
-1.96932e-07
-1.85155e-06
-2.36912e-07
-1.77471e-06
-2.76618e-07
-1.68859e-06
-3.15503e-07
-1.5934e-06
-3.52892e-07
-1.48944e-06
-3.87973e-07
-1.37721e-06
-4.19775e-07
-1.25752e-06
-4.47088e-07
-1.13153e-06
-4.6874e-07
-1.00069e-06
-4.8345e-07
-8.66811e-07
-4.89977e-07
-7.31925e-07
-4.87205e-07
-5.98161e-07
-4.74385e-07
-4.67973e-07
-4.50828e-07
-3.44022e-07
-4.16379e-07
-2.28876e-07
-3.71373e-07
-1.2496e-07
-3.16859e-07
-3.45544e-08
-2.54673e-07
4.07234e-08
-1.87259e-07
9.94322e-08
-1.17713e-07
1.40677e-07
-4.94787e-08
1.64394e-07
1.36009e-08
1.70369e-07
6.7503e-08
1.59787e-07
1.0863e-07
1.35031e-07
1.34579e-07
1.0008e-07
1.44378e-07
5.98714e-08
1.38006e-07
2.17088e-08
1.12669e-07
5.70135e-08
3.97014e-09
-2.74457e-08
4.7689e-09
-3.41459e-08
-4.61044e-10
-1.87105e-08
-1.01196e-08
8.93498e-11
-2.2957e-08
1.67506e-08
-3.82794e-08
3.02237e-08
-5.57322e-08
4.06474e-08
-7.51882e-08
4.87006e-08
-9.66987e-08
5.53014e-08
-1.2048e-07
6.14343e-08
-1.46895e-07
6.80224e-08
-1.76418e-07
7.58355e-08
-2.09591e-07
8.54346e-08
-2.46982e-07
9.71525e-08
-2.89145e-07
1.1111e-07
-3.36597e-07
1.27263e-07
-3.89809e-07
1.45461e-07
-4.4919e-07
1.65507e-07
-5.15066e-07
1.8719e-07
-5.8764e-07
2.10294e-07
-6.66935e-07
2.34572e-07
-7.5272e-07
2.59694e-07
-8.44454e-07
2.85194e-07
-9.41247e-07
3.1044e-07
-1.04188e-06
3.34632e-07
-1.14487e-06
3.56859e-07
-1.24864e-06
3.76252e-07
-1.35163e-06
3.92068e-07
-1.4524e-06
4.0374e-07
-1.5496e-06
4.108e-07
-1.64207e-06
4.13081e-07
-1.72907e-06
4.10623e-07
-1.81009e-06
4.03564e-07
-1.88479e-06
3.92201e-07
-1.95302e-06
3.76844e-07
-2.01469e-06
3.578e-07
-2.06974e-06
3.3538e-07
-2.11818e-06
3.09911e-07
-2.16002e-06
2.81686e-07
-2.19528e-06
2.50971e-07
-2.22393e-06
2.1801e-07
-2.24592e-06
1.83007e-07
-2.26118e-06
1.46144e-07
-2.26961e-06
1.07576e-07
-2.27107e-06
6.74126e-08
-2.26539e-06
2.5748e-08
-2.25239e-06
-1.73256e-08
-2.23184e-06
-6.17249e-08
-2.20348e-06
-1.07354e-07
-2.16709e-06
-1.54101e-07
-2.12241e-06
-2.01774e-07
-2.06921e-06
-2.50141e-07
-2.00722e-06
-2.989e-07
-1.93621e-06
-3.47628e-07
-1.85599e-06
-3.95722e-07
-1.76652e-06
-4.42365e-07
-1.66787e-06
-4.86619e-07
-1.56024e-06
-5.274e-07
-1.44402e-06
-5.63311e-07
-1.32e-06
-5.92762e-07
-1.18922e-06
-6.14229e-07
-1.05332e-06
-6.25878e-07
-9.14361e-07
-6.26163e-07
-7.74786e-07
-6.1396e-07
-6.37053e-07
-5.88561e-07
-5.03691e-07
-5.49742e-07
-3.77445e-07
-4.97619e-07
-2.611e-07
-4.33205e-07
-1.57189e-07
-3.58583e-07
-6.78386e-08
-2.7661e-07
5.28214e-09
-1.90834e-07
6.11222e-08
-1.05319e-07
9.91957e-08
-2.44727e-08
1.19581e-07
4.7118e-08
1.23047e-07
1.05163e-07
1.11339e-07
1.46287e-07
8.72242e-08
1.68493e-07
5.46858e-08
1.70544e-07
2.03954e-08
1.4696e-07
7.74088e-08
1.09123e-09
-2.8537e-08
-3.97524e-09
-2.90795e-08
-1.5129e-08
-7.55673e-09
-3.00837e-08
1.50441e-08
-4.77045e-08
3.43713e-08
-6.75175e-08
5.00368e-08
-8.94148e-08
6.25446e-08
-1.13492e-07
7.27774e-08
-1.39997e-07
8.18069e-08
-1.6931e-07
9.07467e-08
-2.01908e-07
1.0062e-07
-2.38331e-07
1.12259e-07
-2.79138e-07
1.26242e-07
-3.24866e-07
1.42881e-07
-3.76005e-07
1.62249e-07
-4.32979e-07
1.84238e-07
-4.96134e-07
2.08616e-07
-5.65712e-07
2.35085e-07
-6.41816e-07
2.63293e-07
-7.24352e-07
2.9283e-07
-8.1297e-07
3.2319e-07
-9.07013e-07
3.53736e-07
-1.00549e-06
3.83674e-07
-1.10713e-06
4.12081e-07
-1.21046e-06
4.3796e-07
-1.31396e-06
4.60352e-07
-1.41617e-06
4.78468e-07
-1.51575e-06
4.91642e-07
-1.61149e-06
4.99483e-07
-1.70258e-06
5.01893e-07
-1.78846e-06
4.98957e-07
-1.86877e-06
4.90934e-07
-1.94333e-06
4.78121e-07
-2.01201e-06
4.60887e-07
-2.07479e-06
4.39624e-07
-2.13165e-06
4.14662e-07
-2.18261e-06
3.86335e-07
-2.22768e-06
3.54984e-07
-2.26688e-06
3.2089e-07
-2.30022e-06
2.8431e-07
-2.32768e-06
2.45466e-07
-2.34921e-06
2.04542e-07
-2.36476e-06
1.61693e-07
-2.37426e-06
1.17076e-07
-2.3776e-06
7.07492e-08
-2.37461e-06
2.27582e-08
-2.36509e-06
-2.6846e-08
-2.3488e-06
-7.80118e-08
-2.32548e-06
-1.30673e-07
-2.29484e-06
-1.84739e-07
-2.25657e-06
-2.40044e-07
-2.21036e-06
-2.96355e-07
-2.15588e-06
-3.53377e-07
-2.09275e-06
-4.10762e-07
-2.02054e-06
-4.67931e-07
-1.93895e-06
-5.23953e-07
-1.84784e-06
-5.77734e-07
-1.74708e-06
-6.28158e-07
-1.63665e-06
-6.73739e-07
-1.51691e-06
-7.12499e-07
-1.38858e-06
-7.42559e-07
-1.25271e-06
-7.61753e-07
-1.11077e-06
-7.68098e-07
-9.65255e-07
-7.59479e-07
-8.19122e-07
-7.34694e-07
-6.75388e-07
-6.93476e-07
-5.36852e-07
-6.36155e-07
-4.06555e-07
-5.63502e-07
-2.87537e-07
-4.77601e-07
-1.82493e-07
-3.81654e-07
-9.36074e-08
-2.79719e-07
-2.23998e-08
-1.76526e-07
3.03622e-08
-7.72347e-08
6.46202e-08
1.28599e-08
8.10894e-08
8.86941e-08
8.13326e-08
1.46044e-07
6.78395e-08
1.81986e-07
4.43455e-08
1.94038e-07
1.68759e-08
1.74429e-07
9.42847e-08
-2.24178e-09
-2.62952e-08
-1.31473e-08
-1.8174e-08
-2.98856e-08
9.18164e-09
-4.98419e-08
3.50003e-08
-7.20671e-08
5.65966e-08
-9.63215e-08
7.42912e-08
-1.22693e-07
8.89157e-08
-1.51455e-07
1.0154e-07
-1.83013e-07
1.13365e-07
-2.17863e-07
1.25597e-07
-2.56557e-07
1.39314e-07
-2.99656e-07
1.55359e-07
-3.47692e-07
1.74277e-07
-4.0113e-07
1.96319e-07
-4.60356e-07
2.21475e-07
-5.25656e-07
2.49538e-07
-5.97201e-07
2.80161e-07
-6.75013e-07
3.12897e-07
-7.5892e-07
3.47201e-07
-8.48509e-07
3.82418e-07
-9.43079e-07
4.1776e-07
-1.04164e-06
4.52295e-07
-1.14293e-06
4.84966e-07
-1.24555e-06
5.14699e-07
-1.34807e-06
5.40484e-07
-1.44914e-06
5.61415e-07
-1.54747e-06
5.76806e-07
-1.64212e-06
5.8629e-07
-1.73238e-06
5.89744e-07
-1.81781e-06
5.87322e-07
-1.89815e-06
5.79294e-07
-1.97322e-06
5.6601e-07
-2.04295e-06
5.47847e-07
-2.10728e-06
5.25213e-07
-2.16617e-06
4.98523e-07
-2.21966e-06
4.68149e-07
-2.26777e-06
4.34447e-07
-2.31053e-06
3.97743e-07
-2.34796e-06
3.58316e-07
-2.38006e-06
3.16413e-07
-2.40685e-06
2.72258e-07
-2.42832e-06
2.26011e-07
-2.44439e-06
1.7776e-07
-2.45507e-06
1.27756e-07
-2.46034e-06
7.60221e-08
-2.46015e-06
2.25622e-08
-2.45435e-06
-3.26446e-08
-2.4427e-06
-8.96605e-08
-2.42491e-06
-1.48466e-07
-2.40065e-06
-2.08992e-07
-2.36956e-06
-2.71141e-07
-2.33121e-06
-3.34705e-07
-2.28522e-06
-3.99358e-07
-2.23123e-06
-4.64757e-07
-2.16873e-06
-5.30425e-07
-2.09703e-06
-5.95653e-07
-2.0157e-06
-6.59065e-07
-1.92433e-06
-7.19533e-07
-1.82243e-06
-7.75637e-07
-1.70995e-06
-8.24983e-07
-1.58706e-06
-8.65447e-07
-1.45425e-06
-8.94559e-07
-1.31273e-06
-9.09622e-07
-1.16408e-06
-9.08126e-07
-1.01084e-06
-8.87936e-07
-8.56777e-07
-8.47539e-07
-7.05585e-07
-7.87346e-07
-5.60581e-07
-7.08507e-07
-4.25205e-07
-6.12977e-07
-3.02898e-07
-5.03961e-07
-1.96582e-07
-3.86035e-07
-1.0844e-07
-2.64668e-07
-3.9777e-08
-1.45897e-07
9.02594e-09
-3.5943e-08
3.84886e-08
5.92314e-08
5.02593e-08
1.34273e-07
4.69146e-08
1.85331e-07
3.23593e-08
2.08593e-07
1.25619e-08
1.94227e-07
1.06847e-07
-5.75312e-09
-2.05421e-08
-2.22775e-08
-1.64956e-09
-4.41931e-08
3.10972e-08
-6.88657e-08
5.96729e-08
-9.55414e-08
8.32724e-08
-1.24169e-07
1.02919e-07
-1.54996e-07
1.19742e-07
-1.88433e-07
1.34977e-07
-2.24997e-07
1.49928e-07
-2.65258e-07
1.65858e-07
-3.09795e-07
1.83852e-07
-3.59151e-07
2.04715e-07
-4.13792e-07
2.28918e-07
-4.74084e-07
2.5661e-07
-5.40278e-07
2.87669e-07
-6.12496e-07
3.21756e-07
-6.90709e-07
3.58375e-07
-7.74703e-07
3.9689e-07
-8.64036e-07
4.36535e-07
-9.58015e-07
4.76397e-07
-1.05568e-06
5.15427e-07
-1.15586e-06
5.52474e-07
-1.25724e-06
5.86345e-07
-1.35847e-06
6.15927e-07
-1.45827e-06
6.40285e-07
-1.55553e-06
6.58675e-07
-1.64935e-06
6.70633e-07
-1.73912e-06
6.7606e-07
-1.82444e-06
6.75063e-07
-1.90502e-06
6.67903e-07
-1.98069e-06
6.5496e-07
-2.05133e-06
6.36653e-07
-2.11691e-06
6.13426e-07
-2.17741e-06
5.85706e-07
-2.2328e-06
5.53919e-07
-2.28311e-06
5.1846e-07
-2.32835e-06
4.7968e-07
-2.36851e-06
4.37902e-07
-2.40362e-06
3.93427e-07
-2.43371e-06
3.46509e-07
-2.45885e-06
2.9739e-07
-2.4791e-06
2.4626e-07
-2.49434e-06
1.93007e-07
-2.50473e-06
1.38138e-07
-2.51028e-06
8.15735e-08
-2.511e-06
2.32874e-08
-2.50695e-06
-3.66968e-08
-2.49816e-06
-9.84488e-08
-2.48459e-06
-1.62034e-07
-2.46609e-06
-2.27499e-07
-2.44233e-06
-2.94893e-07
-2.41285e-06
-3.64188e-07
-2.37702e-06
-4.3519e-07
-2.33413e-06
-5.07646e-07
-2.28341e-06
-5.81146e-07
-2.2239e-06
-6.55167e-07
-2.15483e-06
-7.28128e-07
-2.07576e-06
-7.98609e-07
-1.98608e-06
-8.65311e-07
-1.88482e-06
-9.26251e-07
-1.77162e-06
-9.78647e-07
-1.64635e-06
-1.01983e-06
-1.5095e-06
-1.04648e-06
-1.36206e-06
-1.05556e-06
-1.20602e-06
-1.04398e-06
-1.04428e-06
-1.00927e-06
-8.81382e-07
-9.50247e-07
-7.21807e-07
-8.68082e-07
-5.69692e-07
-7.65092e-07
-4.29078e-07
-6.44575e-07
-3.03842e-07
-5.11271e-07
-1.97077e-07
-3.71433e-07
-1.10873e-07
-2.32101e-07
-4.61996e-08
-1.00617e-07
-2.78328e-09
1.58151e-08
2.07397e-08
1.1075e-07
2.73642e-08
1.78706e-07
2.12277e-08
2.1473e-07
8.53311e-09
2.06921e-07
1.1538e-07
-9.37297e-09
-1.11691e-08
-3.09974e-08
1.99748e-08
-5.77447e-08
5.78445e-08
-8.6859e-08
8.87872e-08
-1.17804e-07
1.14217e-07
-1.50682e-07
1.35797e-07
-1.85862e-07
1.54922e-07
-2.23856e-07
1.72971e-07
-2.65249e-07
1.91322e-07
-3.10644e-07
2.11253e-07
-3.60608e-07
2.33816e-07
-4.15628e-07
2.59735e-07
-4.76081e-07
2.89371e-07
-5.42214e-07
3.22743e-07
-6.1413e-07
3.59585e-07
-6.91779e-07
3.99406e-07
-7.74933e-07
4.41529e-07
-8.63157e-07
4.85114e-07
-9.55788e-07
5.29165e-07
-1.05193e-06
5.72537e-07
-1.1505e-06
6.13995e-07
-1.25029e-06
6.52264e-07
-1.35005e-06
6.86113e-07
-1.44859e-06
7.14466e-07
-1.54483e-06
7.36519e-07
-1.63793e-06
7.51777e-07
-1.72729e-06
7.59998e-07
-1.81245e-06
7.6122e-07
-1.89311e-06
7.55722e-07
-1.9691e-06
7.43891e-07
-2.04031e-06
7.26166e-07
-2.10666e-06
7.03002e-07
-2.16809e-06
6.74862e-07
-2.22455e-06
6.42164e-07
-2.27597e-06
6.05341e-07
-2.32232e-06
5.64804e-07
-2.36357e-06
5.20933e-07
-2.39977e-06
4.74101e-07
-2.43099e-06
4.24645e-07
-2.45728e-06
3.728e-07
-2.47869e-06
3.18802e-07
-2.49555e-06
2.63121e-07
-2.50832e-06
2.05775e-07
-2.51688e-06
1.46702e-07
-2.52127e-06
8.59661e-08
-2.52152e-06
2.35345e-08
-2.51775e-06
-4.04661e-08
-2.51011e-06
-1.0609e-07
-2.49866e-06
-1.73486e-07
-2.48338e-06
-2.42775e-07
-2.46423e-06
-3.14045e-07
-2.44105e-06
-3.8737e-07
-2.41344e-06
-4.62793e-07
-2.38098e-06
-5.4011e-07
-2.3431e-06
-6.19024e-07
-2.29905e-06
-6.99218e-07
-2.24701e-06
-7.80171e-07
-2.18499e-06
-8.60632e-07
-2.11174e-06
-9.38555e-07
-2.02619e-06
-1.01181e-06
-1.92778e-06
-1.07706e-06
-1.81572e-06
-1.13188e-06
-1.68942e-06
-1.17278e-06
-1.54916e-06
-1.19581e-06
-1.39601e-06
-1.19714e-06
-1.23212e-06
-1.17316e-06
-1.06129e-06
-1.12107e-06
-8.88805e-07
-1.04057e-06
-7.20422e-07
-9.33475e-07
-5.61294e-07
-8.03703e-07
-4.16129e-07
-6.56436e-07
-2.89214e-07
-4.98348e-07
-1.83703e-07
-3.37612e-07
-1.01446e-07
-1.82874e-07
-4.28075e-08
-4.28238e-08
-6.48635e-09
7.4429e-08
1.0333e-08
1.61887e-07
1.23462e-08
2.12717e-07
5.67488e-09
2.13593e-07
1.21055e-07
-1.28505e-08
1.68142e-09
-3.92547e-08
4.6379e-08
-7.03854e-08
8.89752e-08
-1.03639e-07
1.2204e-07
-1.38622e-07
1.49201e-07
-1.75554e-07
1.72728e-07
-2.14893e-07
1.94261e-07
-2.57213e-07
2.15292e-07
-3.03132e-07
2.37241e-07
-3.53247e-07
2.61367e-07
-4.08081e-07
2.8865e-07
-4.68045e-07
3.19699e-07
-5.33409e-07
3.54735e-07
-6.04292e-07
3.93626e-07
-6.80653e-07
4.35946e-07
-7.62277e-07
4.81029e-07
-8.48756e-07
5.28008e-07
-9.39479e-07
5.75837e-07
-1.03362e-06
6.23307e-07
-1.13021e-06
6.69129e-07
-1.22817e-06
7.11954e-07
-1.32631e-06
7.50398e-07
-1.42346e-06
7.83264e-07
-1.51862e-06
8.09632e-07
-1.61095e-06
8.28846e-07
-1.69975e-06
8.40574e-07
-1.78455e-06
8.44796e-07
-1.86505e-06
8.41728e-07
-1.94107e-06
8.31744e-07
-2.01247e-06
8.15287e-07
-2.07909e-06
7.92782e-07
-2.14077e-06
7.64684e-07
-2.19737e-06
7.31461e-07
-2.24878e-06
6.93573e-07
-2.29493e-06
6.51491e-07
-2.3358e-06
6.05676e-07
-2.37144e-06
5.56573e-07
-2.40195e-06
5.04612e-07
-2.42752e-06
4.50218e-07
-2.44855e-06
3.9383e-07
-2.46542e-06
3.35667e-07
-2.47805e-06
2.75751e-07
-2.48675e-06
2.14479e-07
-2.49171e-06
1.51662e-07
-2.49322e-06
8.74715e-08
-2.4916e-06
2.1915e-08
-2.48711e-06
-4.49502e-08
-2.4799e-06
-1.13301e-07
-2.47006e-06
-1.83331e-07
-2.45763e-06
-2.55202e-07
-2.44258e-06
-3.2909e-07
-2.42478e-06
-4.05175e-07
-2.40399e-06
-4.83585e-07
-2.37978e-06
-5.64321e-07
-2.35154e-06
-6.47262e-07
-2.31877e-06
-7.31986e-07
-2.28059e-06
-8.18353e-07
-2.23592e-06
-9.05298e-07
-2.18301e-06
-9.9147e-07
-2.11932e-06
-1.07549e-06
-2.04178e-06
-1.1546e-06
-1.94874e-06
-1.22493e-06
-1.83956e-06
-1.28195e-06
-1.71359e-06
-1.32179e-06
-1.57058e-06
-1.34015e-06
-1.41172e-06
-1.33202e-06
-1.23965e-06
-1.29314e-06
-1.05913e-06
-1.22109e-06
-8.76727e-07
-1.11588e-06
-6.99699e-07
-9.80731e-07
-5.34371e-07
-8.21764e-07
-3.86181e-07
-6.46538e-07
-2.59698e-07
-4.64094e-07
-1.57979e-07
-2.84593e-07
-8.22924e-08
-1.18511e-07
-3.19424e-08
2.4079e-08
-4.18648e-09
1.34131e-07
5.88717e-09
2.02643e-07
4.19527e-09
2.15284e-07
1.2525e-07
-1.6119e-08
1.78004e-08
-4.68587e-08
7.71187e-08
-8.19884e-08
1.24105e-07
-1.1906e-07
1.59112e-07
-1.57805e-07
1.87946e-07
-1.98525e-07
2.13448e-07
-2.41739e-07
2.37475e-07
-2.88053e-07
2.61606e-07
-3.38084e-07
2.87271e-07
-3.92394e-07
3.15678e-07
-4.51443e-07
3.47699e-07
-5.15549e-07
3.83805e-07
-5.84873e-07
4.24059e-07
-6.59408e-07
4.68162e-07
-7.38978e-07
5.15516e-07
-8.23224e-07
5.65275e-07
-9.11597e-07
6.16381e-07
-1.00335e-06
6.67594e-07
-1.09765e-06
7.176e-07
-1.19352e-06
7.64997e-07
-1.28981e-06
8.08246e-07
-1.3854e-06
8.45993e-07
-1.47932e-06
8.77184e-07
-1.57067e-06
9.00981e-07
-1.65872e-06
9.16893e-07
-1.74298e-06
9.24832e-07
-1.82313e-06
9.24947e-07
-1.89893e-06
9.17533e-07
-1.97014e-06
9.02955e-07
-2.0365e-06
8.81645e-07
-2.09777e-06
8.54051e-07
-2.15374e-06
8.20654e-07
-2.20425e-06
7.8197e-07
-2.24922e-06
7.38547e-07
-2.28867e-06
6.90942e-07
-2.32271e-06
6.39713e-07
-2.35154e-06
5.85399e-07
-2.37544e-06
5.2851e-07
-2.3947e-06
4.69479e-07
-2.40952e-06
4.08649e-07
-2.42019e-06
3.4634e-07
-2.42714e-06
2.82701e-07
-2.4307e-06
2.18036e-07
-2.43135e-06
1.52319e-07
-2.42949e-06
8.56069e-08
-2.42542e-06
1.78493e-08
-2.41937e-06
-5.10042e-08
-2.41151e-06
-1.21159e-07
-2.40204e-06
-1.92807e-07
-2.39108e-06
-2.66157e-07
-2.37872e-06
-3.4145e-07
-2.36497e-06
-4.1893e-07
-2.34974e-06
-4.98815e-07
-2.3328e-06
-5.81254e-07
-2.31377e-06
-6.66296e-07
-2.2919e-06
-7.53853e-07
-2.26647e-06
-8.4379e-07
-2.23625e-06
-9.35514e-07
-2.1997e-06
-1.02802e-06
-2.15544e-06
-1.11975e-06
-2.10098e-06
-1.20906e-06
-2.03297e-06
-1.29293e-06
-1.94766e-06
-1.36727e-06
-1.84285e-06
-1.4266e-06
-1.71802e-06
-1.46497e-06
-1.57253e-06
-1.47751e-06
-1.40769e-06
-1.45798e-06
-1.22697e-06
-1.40181e-06
-1.03633e-06
-1.30653e-06
-8.4405e-07
-1.17301e-06
-6.59182e-07
-1.00663e-06
-4.8933e-07
-8.1639e-07
-3.40563e-07
-6.12862e-07
-2.17566e-07
-4.07589e-07
-1.2295e-07
-2.13127e-07
-5.68708e-08
-4.20002e-08
-1.7126e-08
9.43862e-08
1.19163e-09
1.84325e-07
3.74214e-09
2.12734e-07
1.28992e-07
-1.9211e-08
3.70114e-08
-5.37613e-08
1.11669e-07
-9.24735e-08
1.62817e-07
-1.3301e-07
1.99649e-07
-1.7519e-07
2.30125e-07
-2.19369e-07
2.57628e-07
-2.66098e-07
2.84204e-07
-3.15988e-07
3.11496e-07
-3.69631e-07
3.40914e-07
-4.27536e-07
3.73583e-07
-4.90083e-07
4.10246e-07
-5.57495e-07
4.51217e-07
-6.29826e-07
4.96389e-07
-7.06955e-07
5.45291e-07
-7.88588e-07
5.97149e-07
-8.74252e-07
6.50939e-07
-9.63295e-07
7.05423e-07
-1.05498e-06
7.59275e-07
-1.14846e-06
8.11086e-07
-1.24265e-06
8.59191e-07
-1.33645e-06
9.02043e-07
-1.42889e-06
9.38431e-07
-1.51904e-06
9.67338e-07
-1.60616e-06
9.88092e-07
-1.68971e-06
1.00045e-06
-1.76933e-06
1.00445e-06
-1.84466e-06
1.00027e-06
-1.91535e-06
9.88218e-07
-1.98105e-06
9.68658e-07
-2.04144e-06
9.42035e-07
-2.09624e-06
9.08853e-07
-2.14526e-06
8.69677e-07
-2.18842e-06
8.25128e-07
-2.22575e-06
7.75875e-07
-2.2574e-06
7.22596e-07
-2.28364e-06
6.65949e-07
-2.30479e-06
6.06554e-07
-2.32125e-06
5.44966e-07
-2.33341e-06
4.81637e-07
-2.34169e-06
4.16928e-07
-2.34651e-06
3.51161e-07
-2.34835e-06
2.84543e-07
-2.34757e-06
2.17253e-07
-2.34456e-06
1.49312e-07
-2.33967e-06
8.07153e-08
-2.33319e-06
1.13775e-08
-2.3254e-06
-5.87975e-08
-2.31654e-06
-1.3002e-07
-2.30685e-06
-2.02498e-07
-2.29653e-06
-2.76478e-07
-2.28574e-06
-3.52239e-07
-2.27459e-06
-4.30075e-07
-2.26313e-06
-5.10276e-07
-2.25129e-06
-5.931e-07
-2.23883e-06
-6.78751e-07
-2.22532e-06
-7.67361e-07
-2.21017e-06
-8.58939e-07
-2.19247e-06
-9.53217e-07
-2.17089e-06
-1.0496e-06
-2.14357e-06
-1.14708e-06
-2.10845e-06
-1.24418e-06
-2.0631e-06
-1.33828e-06
-2.00387e-06
-1.4265e-06
-1.92629e-06
-1.50418e-06
-1.8266e-06
-1.56466e-06
-1.70301e-06
-1.6011e-06
-1.55467e-06
-1.60632e-06
-1.38327e-06
-1.57321e-06
-1.19324e-06
-1.49655e-06
-9.9219e-07
-1.37406e-06
-7.90604e-07
-1.20822e-06
-5.99544e-07
-1.00745e-06
-4.27892e-07
-7.84514e-07
-2.82074e-07
-5.53407e-07
-1.66642e-07
-3.28559e-07
-8.30594e-08
-1.25583e-07
-2.97888e-08
4.11155e-08
-2.72841e-09
1.57265e-07
4.03772e-09
2.05968e-07
1.3303e-07
-2.20055e-08
5.90169e-08
-5.98923e-08
1.49556e-07
-1.01768e-07
2.04693e-07
-1.45392e-07
2.43272e-07
-1.90637e-07
2.75371e-07
-2.37893e-07
3.04884e-07
-2.87716e-07
3.34027e-07
-3.40702e-07
3.64481e-07
-3.97399e-07
3.97611e-07
-4.5825e-07
4.34434e-07
-5.23554e-07
4.75549e-07
-5.93437e-07
5.21101e-07
-6.67857e-07
5.70809e-07
-7.46594e-07
6.24028e-07
-8.29261e-07
6.79816e-07
-9.15301e-07
7.36978e-07
-1.00406e-06
7.94187e-07
-1.09485e-06
8.50065e-07
-1.18666e-06
9.02895e-07
-1.27838e-06
9.50912e-07
-1.36908e-06
9.92737e-07
-1.45782e-06
1.02717e-06
-1.54381e-06
1.05333e-06
-1.62649e-06
1.07078e-06
-1.70539e-06
1.07935e-06
-1.78004e-06
1.0791e-06
-1.84999e-06
1.07023e-06
-1.91481e-06
1.05304e-06
-1.97411e-06
1.02795e-06
-2.02753e-06
9.95461e-07
-2.07487e-06
9.56188e-07
-2.11603e-06
9.10838e-07
-2.15109e-06
8.6019e-07
-2.18026e-06
8.0505e-07
-2.20388e-06
7.46214e-07
-2.22236e-06
6.8443e-07
-2.23619e-06
6.20377e-07
-2.24583e-06
5.5461e-07
-2.25177e-06
4.87577e-07
-2.25448e-06
4.19644e-07
-2.25442e-06
3.51098e-07
-2.252e-06
2.8212e-07
-2.24756e-06
2.1282e-07
-2.24146e-06
1.4321e-07
-2.234e-06
7.3252e-08
-2.22547e-06
2.84413e-09
-2.21613e-06
-6.81332e-08
-2.20626e-06
-1.39891e-07
-2.19611e-06
-2.12648e-07
-2.18592e-06
-2.8667e-07
-2.1759e-06
-3.62254e-07
-2.16625e-06
-4.39729e-07
-2.15709e-06
-5.19434e-07
-2.14848e-06
-6.01708e-07
-2.14036e-06
-6.8687e-07
-2.13253e-06
-7.75198e-07
-2.12459e-06
-8.66872e-07
-2.11592e-06
-9.61893e-07
-2.10549e-06
-1.06002e-06
-2.09189e-06
-1.16068e-06
-2.07327e-06
-1.2628e-06
-2.04699e-06
-1.36455e-06
-2.01008e-06
-1.46341e-06
-1.95884e-06
-1.55543e-06
-1.88784e-06
-1.63566e-06
-1.79249e-06
-1.69645e-06
-1.66934e-06
-1.72948e-06
-1.5172e-06
-1.72535e-06
-1.3382e-06
-1.67556e-06
-1.13805e-06
-1.5742e-06
-9.26623e-07
-1.41965e-06
-7.17084e-07
-1.21699e-06
-5.22694e-07
-9.78904e-07
-3.5314e-07
-7.22962e-07
-2.15139e-07
-4.6656e-07
-1.12234e-07
-2.28488e-07
-4.39969e-08
-2.71216e-08
-7.23363e-09
1.20502e-07
4.45971e-09
1.94274e-07
1.3749e-07
-2.44593e-08
8.34762e-08
-6.52042e-08
1.90301e-07
-1.09815e-07
2.49304e-07
-1.56123e-07
2.89579e-07
-2.04032e-07
3.2328e-07
-2.5394e-07
3.54792e-07
-3.06393e-07
3.8648e-07
-3.61952e-07
4.2004e-07
-4.21111e-07
4.5677e-07
-4.84243e-07
4.97566e-07
-5.51562e-07
5.42868e-07
-6.23112e-07
5.9265e-07
-6.98762e-07
6.46459e-07
-7.78214e-07
7.03481e-07
-8.6101e-07
7.62612e-07
-9.46583e-07
8.22551e-07
-1.03436e-06
8.81963e-07
-1.12347e-06
9.39181e-07
-1.21282e-06
9.92245e-07
-1.30149e-06
1.03958e-06
-1.38856e-06
1.07981e-06
-1.47324e-06
1.11184e-06
-1.55486e-06
1.13496e-06
-1.63286e-06
1.14878e-06
-1.7067e-06
1.15318e-06
-1.77582e-06
1.14822e-06
-1.83972e-06
1.13413e-06
-1.89791e-06
1.11124e-06
-1.95002e-06
1.08005e-06
-1.99577e-06
1.04122e-06
-2.03511e-06
9.95524e-07
-2.06813e-06
9.43862e-07
-2.09512e-06
8.87173e-07
-2.11646e-06
8.26396e-07
-2.13267e-06
7.62425e-07
-2.1443e-06
6.96056e-07
-2.15187e-06
6.27952e-07
-2.15591e-06
5.58648e-07
-2.1569e-06
4.88569e-07
-2.15531e-06
4.18048e-07
-2.15152e-06
3.47311e-07
-2.1459e-06
2.76495e-07
-2.13874e-06
2.05665e-07
-2.13035e-06
1.34813e-07
-2.12098e-06
6.38814e-08
-2.1109e-06
-7.2361e-09
-2.10035e-06
-7.86801e-08
-2.0896e-06
-1.50643e-07
-2.0789e-06
-2.23349e-07
-2.0685e-06
-2.97062e-07
-2.05867e-06
-3.72085e-07
-2.04965e-06
-4.48758e-07
-2.04163e-06
-5.27448e-07
-2.03479e-06
-6.08548e-07
-2.02921e-06
-6.92455e-07
-2.02485e-06
-7.79557e-07
-2.02153e-06
-8.70189e-07
-2.01885e-06
-9.64574e-07
-2.01611e-06
-1.06276e-06
-2.01225e-06
-1.16454e-06
-2.00576e-06
-1.26929e-06
-1.99451e-06
-1.3758e-06
-1.9758e-06
-1.48212e-06
-1.94604e-06
-1.58518e-06
-1.90103e-06
-1.68067e-06
-1.83506e-06
-1.76241e-06
-1.74231e-06
-1.82223e-06
-1.61796e-06
-1.8497e-06
-1.46038e-06
-1.83313e-06
-1.27231e-06
-1.76227e-06
-1.06129e-06
-1.63067e-06
-8.40178e-07
-1.4381e-06
-6.25303e-07
-1.19378e-06
-4.31802e-07
-9.16463e-07
-2.69872e-07
-6.2849e-07
-1.4572e-07
-3.5264e-07
-6.08953e-08
-1.11946e-07
-1.30578e-08
7.26643e-08
4.43856e-09
1.76778e-07
1.41928e-07
-2.65452e-08
1.10021e-07
-6.96642e-08
2.3342e-07
-1.16571e-07
2.96211e-07
-1.65141e-07
3.38149e-07
-2.15286e-07
3.73426e-07
-2.67395e-07
4.069e-07
-3.21984e-07
4.41069e-07
-3.7957e-07
4.77626e-07
-4.40588e-07
5.17788e-07
-5.05337e-07
5.62315e-07
-5.73956e-07
6.11487e-07
-6.46412e-07
6.65106e-07
-7.22505e-07
7.22553e-07
-8.01878e-07
7.82854e-07
-8.84042e-07
8.44775e-07
-9.68505e-07
9.07015e-07
-1.05461e-06
9.68066e-07
-1.14129e-06
1.02586e-06
-1.22763e-06
1.07858e-06
-1.31276e-06
1.12471e-06
-1.39587e-06
1.16291e-06
-1.47622e-06
1.1922e-06
-1.55319e-06
1.21192e-06
-1.62612e-06
1.22171e-06
-1.6944e-06
1.22146e-06
-1.75744e-06
1.21126e-06
-1.81469e-06
1.19137e-06
-1.86569e-06
1.16224e-06
-1.91018e-06
1.12454e-06
-1.94808e-06
1.07911e-06
-1.97951e-06
1.02696e-06
-2.0048e-06
9.69154e-07
-2.02442e-06
9.0679e-07
-2.03893e-06
8.4091e-07
-2.04895e-06
7.72441e-07
-2.05505e-06
7.02155e-07
-2.05777e-06
6.30676e-07
-2.05762e-06
5.58496e-07
-2.05504e-06
4.85991e-07
-2.05043e-06
4.13431e-07
-2.0441e-06
3.40983e-07
-2.03634e-06
2.68741e-07
-2.02741e-06
1.96735e-07
-2.01754e-06
1.24937e-07
-2.00693e-06
5.3278e-08
-1.99582e-06
-1.83471e-08
-1.98442e-06
-9.00793e-08
-1.97297e-06
-1.62095e-07
-1.96171e-06
-2.34607e-07
-1.95091e-06
-3.07863e-07
-1.94084e-06
-3.82155e-07
-1.93178e-06
-4.57816e-07
-1.92401e-06
-5.35221e-07
-1.91777e-06
-6.14786e-07
-1.91326e-06
-6.96962e-07
-1.91061e-06
-7.82215e-07
-1.90979e-06
-8.71002e-07
-1.91064e-06
-9.63728e-07
-1.91272e-06