/*--------------------------------*- C++ -*----------------------------------*\
  =========                 |
  \\      /  F ield         | OpenFOAM: The Open Source CFD Toolbox
   \\    /   O peration     | Website:  https://openfoam.org
    \\  /    A nd           | Version:  13
     \\/     M anipulation  |
\*---------------------------------------------------------------------------*/
FoamFile
{
    format      ascii;
    class       volVectorField;
    location    "2.1";
    object      U;
}
// * * * * * * * * * * * * * * * * * * * * * * * * * * * * * * * * * * * * * //

dimensions      [0 1 -1 0 0 0 0];

internalField   nonuniform List<vector> 
6400
(
(8.11653e-05 -8.06905e-05 0)
(0.000520031 -0.000145354 0)
(0.00108566 -0.000160484 0)
(0.00159101 -0.000144476 0)
(0.00195827 -0.000117209 0)
(0.00218564 -9.58408e-05 0)
(0.00230233 -8.4589e-05 0)
(0.00234672 -8.1786e-05 0)
(0.00235164 -8.45092e-05 0)
(0.00233843 -9.02368e-05 0)
(0.0023182 -9.73816e-05 0)
(0.00229267 -0.000104467 0)
(0.00225553 -0.000110465 0)
(0.00219532 -0.000114526 0)
(0.0020973 -0.000116406 0)
(0.00194572 -0.000116246 0)
(0.00172596 -0.000114679 0)
(0.00142612 -0.000112939 0)
(0.00103764 -0.000112797 0)
(0.000554221 -0.00011603 0)
(-2.60638e-05 -0.000123527 0)
(-0.000703614 -0.000135416 0)
(-0.00149605 -0.000147491 0)
(-0.00241893 -0.000157866 0)
(-0.00349536 -0.000163338 0)
(-0.00475443 -0.00015774 0)
(-0.00622888 -0.00013223 0)
(-0.00796207 -7.81751e-05 0)
(-0.0100168 5.52179e-06 0)
(-0.0124096 0.000115638 0)
(-0.0151765 0.000264556 0)
(-0.0183453 0.000464773 0)
(-0.0219319 0.000718515 0)
(-0.0259331 0.00101287 0)
(-0.0303253 0.00132829 0)
(-0.0350562 0.00164501 0)
(-0.0400492 0.00194148 0)
(-0.0452104 0.00219852 0)
(-0.0504324 0.00240236 0)
(-0.0556038 0.00254435 0)
(-0.0606146 0.00262043 0)
(-0.0653628 0.0026289 0)
(-0.0697537 0.00256843 0)
(-0.0736966 0.00244015 0)
(-0.0771079 0.00224866 0)
(-0.0799334 0.00199923 0)
(-0.0821325 0.00169931 0)
(-0.083587 0.00138104 0)
(-0.0842438 0.00109063 0)
(-0.0843417 0.000679666 0)
(-0.0834478 0.000266064 0)
(-0.0818285 -0.000164353 0)
(-0.0793226 -0.000608146 0)
(-0.0760024 -0.00105022 0)
(-0.0718518 -0.00147686 0)
(-0.0669067 -0.00186963 0)
(-0.0612336 -0.00223185 0)
(-0.0549359 -0.00257399 0)
(-0.0480453 -0.00286129 0)
(-0.0406977 -0.00306815 0)
(-0.0330452 -0.00318252 0)
(-0.0252642 -0.003188 0)
(-0.017556 -0.003071 0)
(-0.0101313 -0.00282047 0)
(-0.00315795 -0.00244161 0)
(0.00300315 -0.0020077 0)
(0.00813177 -0.00141071 0)
(0.0121498 -0.000749445 0)
(0.0148544 -7.95434e-05 0)
(0.0162032 0.000539817 0)
(0.0161114 0.000960425 0)
(0.0150654 0.00115579 0)
(0.0129227 0.00119327 0)
(0.0103837 0.00104872 0)
(0.00775721 0.000807 0)
(0.00534593 0.000563279 0)
(0.00331193 0.000373248 0)
(0.00171251 0.000233362 0)
(0.000587982 0.00010911 0)
(1.94735e-05 -4.63957e-06 0)
(0.000147506 -0.00051932 0)
(0.000952467 -0.000943744 0)
(0.00182939 -0.000964304 0)
(0.00249258 -0.0007627 0)
(0.0028536 -0.000495457 0)
(0.00292836 -0.000254076 0)
(0.00277474 -7.58138e-05 0)
(0.00246183 3.61025e-05 0)
(0.00204743 9.61755e-05 0)
(0.0015653 0.000125817 0)
(0.00103057 0.000144318 0)
(0.000441189 0.000167659 0)
(-0.000219136 0.00020823 0)
(-0.000977074 0.000274303 0)
(-0.00186276 0.000369763 0)
(-0.00290939 0.00049509 0)
(-0.00414892 0.000647286 0)
(-0.00561075 0.000821278 0)
(-0.00732164 0.00101197 0)
(-0.00930707 0.00121639 0)
(-0.0115941 0.00143626 0)
(-0.0142172 0.00167863 0)
(-0.017205 0.00195344 0)
(-0.020596 0.0022714 0)
(-0.0244307 0.00264326 0)
(-0.0287471 0.00307741 0)
(-0.0335728 0.00357694 0)
(-0.0389134 0.00413839 0)
(-0.0447381 0.00475579 0)
(-0.0510346 0.00542576 0)
(-0.0577466 0.00611754 0)
(-0.0647822 0.00678731 0)
(-0.0720176 0.00740603 0)
(-0.0793217 0.00794485 0)
(-0.0865711 0.00837484 0)
(-0.0936508 0.00866808 0)
(-0.100439 0.00879472 0)
(-0.10684 0.00874877 0)
(-0.112763 0.00853094 0)
(-0.118138 0.00814793 0)
(-0.122904 0.00761037 0)
(-0.12701 0.00693183 0)
(-0.130411 0.00613206 0)
(-0.133079 0.0052326 0)
(-0.134997 0.00424571 0)
(-0.136141 0.00318275 0)
(-0.136496 0.00205871 0)
(-0.136024 0.000889623 0)
(-0.134709 -0.000322772 0)
(-0.132577 -0.00159664 0)
(-0.12957 -0.00290846 0)
(-0.125734 -0.00423267 0)
(-0.121044 -0.00556222 0)
(-0.115525 -0.0068742 0)
(-0.109189 -0.00814325 0)
(-0.102067 -0.00934619 0)
(-0.0941891 -0.0104599 0)
(-0.0856095 -0.0114403 0)
(-0.0764632 -0.0122637 0)
(-0.066835 -0.0128745 0)
(-0.0568653 -0.0132344 0)
(-0.0467121 -0.0132963 0)
(-0.0365592 -0.0130226 0)
(-0.0266104 -0.0123935 0)
(-0.017075 -0.0114006 0)
(-0.00820157 -0.0100819 0)
(-0.000207847 -0.00838852 0)
(0.00671048 -0.00641055 0)
(0.0123524 -0.00422077 0)
(0.0165569 -0.00196427 0)
(0.0192207 0.000164497 0)
(0.0203086 0.00200203 0)
(0.0198219 0.0034193 0)
(0.0179888 0.0042528 0)
(0.0150645 0.0043966 0)
(0.0115068 0.00405902 0)
(0.00785466 0.00342418 0)
(0.00453227 0.00263342 0)
(0.00188176 0.00170366 0)
(0.000206677 0.000633012 0)
(0.000179059 -0.00110753 0)
(0.00101622 -0.00184453 0)
(0.00171971 -0.00168587 0)
(0.00204997 -0.00113725 0)
(0.00200792 -0.000523319 0)
(0.00166322 3.37364e-06 0)
(0.00108965 0.000392983 0)
(0.000346955 0.000653434 0)
(-0.000523667 0.000819803 0)
(-0.00149683 0.000933233 0)
(-0.00256655 0.00103269 0)
(-0.00374435 0.00115117 0)
(-0.00505572 0.00131376 0)
(-0.00653546 0.00153634 0)
(-0.00822569 0.00182708 0)
(-0.0101687 0.00218669 0)
(-0.0124057 0.00261046 0)
(-0.0149759 0.00309094 0)
(-0.0179161 0.00362186 0)
(-0.0212618 0.00420123 0)
(-0.0250481 0.0048325 0)
(-0.0293093 0.00552308 0)
(-0.0340759 0.006283 0)
(-0.0393719 0.00712067 0)
(-0.0452079 0.00803735 0)
(-0.0515741 0.00902307 0)
(-0.0584357 0.0100549 0)
(-0.0657308 0.0110976 0)
(-0.0733695 0.0121098 0)
(-0.0812363 0.0130512 0)
(-0.0891946 0.013883 0)
(-0.0971158 0.0145673 0)
(-0.104879 0.0150696 0)
(-0.112363 0.0153553 0)
(-0.119465 0.0154056 0)
(-0.126085 0.0152244 0)
(-0.132169 0.0148185 0)
(-0.137671 0.014189 0)
(-0.142557 0.0133519 0)
(-0.146802 0.0123242 0)
(-0.150388 0.0111266 0)
(-0.153305 0.00977997 0)
(-0.155541 0.00830148 0)
(-0.157086 0.0067058 0)
(-0.15793 0.00500948 0)
(-0.158064 0.00322707 0)
(-0.157478 0.00137131 0)
(-0.156164 -0.000546752 0)
(-0.154091 -0.00252669 0)
(-0.151254 -0.00456326 0)
(-0.147646 -0.00662812 0)
(-0.143262 -0.00870686 0)
(-0.138095 -0.0107844 0)
(-0.13215 -0.0128343 0)
(-0.125434 -0.0148265 0)
(-0.117972 -0.0167254 0)
(-0.109801 -0.0184824 0)
(-0.100962 -0.0200448 0)
(-0.0915479 -0.0213589 0)
(-0.0816572 -0.0223599 0)
(-0.0713974 -0.0229886 0)
(-0.0609128 -0.0231796 0)
(-0.0503563 -0.022873 0)
(-0.0399064 -0.0220227 0)
(-0.0297666 -0.0206126 0)
(-0.0201532 -0.0186527 0)
(-0.0112697 -0.0161523 0)
(-0.00329937 -0.0131805 0)
(0.00356535 -0.00984192 0)
(0.00917249 -0.00628946 0)
(0.0134136 -0.00272161 0)
(0.0162231 0.000650451 0)
(0.0175259 0.00355232 0)
(0.0172902 0.00573518 0)
(0.0157638 0.0071106 0)
(0.0131423 0.00752508 0)
(0.00976646 0.00714474 0)
(0.00614885 0.00609723 0)
(0.00280831 0.00442434 0)
(0.000360132 0.0019933 0)
(0.000184877 -0.00166472 0)
(0.000831748 -0.0025203 0)
(0.00111849 -0.00200217 0)
(0.000972325 -0.00104224 0)
(0.000479348 -0.00010101 0)
(-0.000275877 0.000673229 0)
(-0.00123404 0.00125094 0)
(-0.00235507 0.00165907 0)
(-0.0036161 0.00194911 0)
(-0.00501049 0.00217937 0)
(-0.00654786 0.00240542 0)
(-0.00825211 0.00267444 0)
(-0.0101582 0.00302205 0)
(-0.0123084 0.00347107 0)
(-0.0147484 0.00403193 0)
(-0.0175234 0.0047047 0)
(-0.020677 0.00548303 0)
(-0.0242498 0.00635794 0)
(-0.0282798 0.00732144 0)
(-0.0328017 0.00836951 0)
(-0.0378447 0.00950225 0)
(-0.0434297 0.0107211 0)
(-0.0495635 0.0120247 0)
(-0.0562333 0.0134033 0)
(-0.0634006 0.0148337 0)
(-0.070998 0.0162769 0)
(-0.0789303 0.0176811 0)
(-0.0870812 0.0189878 0)
(-0.0953186 0.0201423 0)
(-0.103509 0.0211009 0)
(-0.111529 0.0218159 0)
(-0.119265 0.022246 0)
(-0.126616 0.0223841 0)
(-0.133506 0.0222319 0)
(-0.139881 0.0217894 0)
(-0.145705 0.0210662 0)
(-0.150958 0.0200806 0)
(-0.155624 0.0188529 0)
(-0.159696 0.0174045 0)
(-0.163173 0.0157571 0)
(-0.166051 0.0139326 0)
(-0.168328 0.0119513 0)
(-0.170001 0.00983144 0)
(-0.171062 0.00758805 0)
(-0.1715 0.0052339 0)
(-0.171305 0.00278007 0)
(-0.170466 0.000236864 0)
(-0.168967 -0.00238451 0)
(-0.166788 -0.00507137 0)
(-0.163914 -0.00782239 0)
(-0.160332 -0.0106178 0)
(-0.15603 -0.013439 0)
(-0.150994 -0.0162636 0)
(-0.145216 -0.0190597 0)
(-0.138693 -0.0217874 0)
(-0.131434 -0.0243977 0)
(-0.123461 -0.0268304 0)
(-0.114802 -0.0290174 0)
(-0.105504 -0.0308708 0)
(-0.0956588 -0.0323188 0)
(-0.0853563 -0.0332653 0)
(-0.0747374 -0.0336333 0)
(-0.0639556 -0.0333452 0)
(-0.0531756 -0.032346 0)
(-0.0425734 -0.0305868 0)
(-0.0323628 -0.0280639 0)
(-0.0227543 -0.024806 0)
(-0.0139459 -0.0208926 0)
(-0.00612837 -0.0164623 0)
(0.000538614 -0.0116849 0)
(0.00592942 -0.00679426 0)
(0.00995395 -0.00203671 0)
(0.0125691 0.00229922 0)
(0.0137793 0.0058926 0)
(0.0135572 0.00849116 0)
(0.01207 0.00998661 0)
(0.00958153 0.0103207 0)
(0.00646106 0.00953419 0)
(0.00314863 0.00751388 0)
(0.000421018 0.00368685 0)
(0.000169127 -0.00208573 0)
(0.000477751 -0.00280989 0)
(0.0002703 -0.00182462 0)
(-0.000353634 -0.000486253 0)
(-0.00126785 0.000731862 0)
(-0.00240261 0.00171688 0)
(-0.00371857 0.00246717 0)
(-0.00519626 0.00302835 0)
(-0.00683266 0.00346721 0)
(-0.00863874 0.00385661 0)
(-0.0106382 0.00426538 0)
(-0.0128654 0.00475156 0)
(-0.0153619 0.00535822 0)
(-0.0181729 0.00611189 0)
(-0.0213438 0.00702353 0)
(-0.0249179 0.00809156 0)
(-0.0289349 0.00930645 0)
(-0.0334304 0.0106556 0)
(-0.0384343 0.0121266 0)
(-0.043969 0.0137085 0)
(-0.0500451 0.0153906 0)
(-0.0566556 0.0171579 0)
(-0.0637708 0.0189864 0)
(-0.071334 0.020839 0)
(-0.0792598 0.0226623 0)
(-0.0874385 0.0243903 0)
(-0.0957429 0.0259527 0)
(-0.104044 0.0272901 0)
(-0.112226 0.0283478 0)
(-0.120174 0.0290779 0)
(-0.127781 0.0294644 0)
(-0.134973 0.0294957 0)
(-0.141702 0.0291686 0)
(-0.147936 0.0285036 0)
(-0.153654 0.0275218 0)
(-0.158851 0.0262479 0)
(-0.163519 0.0247053 0)
(-0.167658 0.0229187 0)
(-0.171268 0.0209113 0)
(-0.174351 0.018705 0)
(-0.176907 0.01632 0)
(-0.178933 0.0137734 0)
(-0.180424 0.0110808 0)
(-0.181373 0.00825567 0)
(-0.18177 0.00530856 0)
(-0.181603 0.00224849 0)
(-0.180859 -0.000916291 0)
(-0.179519 -0.00417706 0)
(-0.177565 -0.00752454 0)
(-0.174978 -0.0109507 0)
(-0.171738 -0.0144396 0)
(-0.167825 -0.0179726 0)
(-0.16322 -0.0215248 0)
(-0.157901 -0.0250617 0)
(-0.151852 -0.0285356 0)
(-0.145062 -0.0318868 0)
(-0.137533 -0.0350456 0)
(-0.129279 -0.0379268 0)
(-0.120313 -0.0404278 0)
(-0.110688 -0.0424341 0)
(-0.100478 -0.043838 0)
(-0.0897816 -0.0445224 0)
(-0.0787456 -0.0443719 0)
(-0.0675659 -0.0433254 0)
(-0.0564372 -0.0413352 0)
(-0.0455461 -0.0383763 0)
(-0.0351115 -0.0344657 0)
(-0.0253564 -0.0296907 0)
(-0.0164963 -0.0242106 0)
(-0.0087205 -0.0182368 0)
(-0.00218275 -0.0120344 0)
(0.00300426 -0.00590142 0)
(0.0067787 -0.000163547 0)
(0.00912755 0.00483594 0)
(0.0100658 0.00878335 0)
(0.00968879 0.0114403 0)
(0.00817559 0.0126909 0)
(0.00582364 0.0124819 0)
(0.00296494 0.0104673 0)
(0.000386802 0.00540231 0)
(0.000137685 -0.00229039 0)
(2.9241e-05 -0.00263859 0)
(-0.000687617 -0.00116018 0)
(-0.00175409 0.00050605 0)
(-0.00306289 0.00195465 0)
(-0.00456431 0.00312393 0)
(-0.0062336 0.00404089 0)
(-0.0080698 0.00476833 0)
(-0.0100872 0.00538628 0)
(-0.0123115 0.00597932 0)
(-0.0147777 0.00662618 0)
(-0.0175274 0.0073919 0)
(-0.0206054 0.00832305 0)
(-0.0240562 0.00944633 0)
(-0.0279212 0.0107703 0)
(-0.0322373 0.0122893 0)
(-0.0370356 0.0139891 0)
(-0.0423404 0.0158504 0)
(-0.0481664 0.0178519 0)
(-0.0545155 0.0199697 0)
(-0.0613712 0.0221746 0)
(-0.0686942 0.0244279 0)
(-0.0764187 0.0266783 0)
(-0.0844531 0.0288611 0)
(-0.0926851 0.030901 0)
(-0.100989 0.0327208 0)
(-0.109247 0.034253 0)
(-0.117348 0.0354344 0)
(-0.125184 0.0362301 0)
(-0.132672 0.0366166 0)
(-0.13976 0.0365876 0)
(-0.146413 0.0361609 0)
(-0.152612 0.0353577 0)
(-0.158342 0.0342042 0)
(-0.1636 0.0327296 0)
(-0.168386 0.0309588 0)
(-0.172697 0.0289178 0)
(-0.176537 0.0266337 0)
(-0.179907 0.0241294 0)
(-0.182809 0.0214258 0)
(-0.18524 0.0185416 0)
(-0.1872 0.0154926 0)
(-0.188683 0.0122918 0)
(-0.189686 0.00895123 0)
(-0.190201 0.0054781 0)
(-0.190217 0.00187849 0)
(-0.18972 -0.00184155 0)
(-0.188691 -0.00567603 0)
(-0.18711 -0.00961858 0)
(-0.184955 -0.0136611 0)
(-0.182203 -0.0177897 0)
(-0.178829 -0.0219869 0)
(-0.174805 -0.0262288 0)
(-0.170105 -0.0304814 0)
(-0.164696 -0.0346935 0)
(-0.158547 -0.038796 0)
(-0.151641 -0.04271 0)
(-0.143966 -0.0463445 0)
(-0.135518 -0.0495803 0)
(-0.1263 -0.0522766 0)
(-0.116366 -0.0542995 0)
(-0.105781 -0.0554744 0)
(-0.0946435 -0.0556791 0)
(-0.0830937 -0.0547879 0)
(-0.0713721 -0.0527152 0)
(-0.0597328 -0.0494687 0)
(-0.0483924 -0.0450567 0)
(-0.0375792 -0.0395433 0)
(-0.0275462 -0.0331027 0)
(-0.0185286 -0.0259791 0)
(-0.0107248 -0.0184767 0)
(-0.00428582 -0.010946 0)
(0.000695318 -0.00376638 0)
(0.0041847 0.00267074 0)
(0.00620244 0.00799467 0)
(0.00683258 0.0119017 0)
(0.00623695 0.0141984 0)
(0.00466822 0.0147329 0)
(0.00247397 0.0129675 0)
(0.000303448 0.00691933 0)
(8.90911e-05 -0.00225007 0)
(-0.00047032 -0.00199339 0)
(-0.0016689 -3.55075e-05 0)
(-0.00314483 0.00191026 0)
(-0.00483135 0.0035524 0)
(-0.0066914 0.00488846 0)
(-0.00871392 0.00597221 0)
(-0.0109132 0.00688203 0)
(-0.0133173 0.00770933 0)
(-0.0159632 0.0085476 0)
(-0.0188938 0.00948177 0)
(-0.0221545 0.0105797 0)
(-0.0257897 0.0118875 0)
(-0.0298397 0.0134283 0)
(-0.0343389 0.0152053 0)
(-0.0393145 0.0172066 0)
(-0.0447853 0.0194098 0)
(-0.0507599 0.0217857 0)
(-0.0572336 0.0242992 0)
(-0.0641839 0.0269082 0)
(-0.0715672 0.0295607 0)
(-0.0793157 0.0321929 0)
(-0.0873382 0.0347289 0)
(-0.0955257 0.0370857 0)
(-0.103761 0.0391806 0)
(-0.111933 0.0409364 0)
(-0.119935 0.0422934 0)
(-0.127673 0.0432095 0)
(-0.135082 0.0436612 0)
(-0.142117 0.0436578 0)
(-0.148752 0.0432154 0)
(-0.154971 0.0423576 0)
(-0.160765 0.0411116 0)
(-0.166127 0.0395088 0)
(-0.171056 0.0375819 0)
(-0.17555 0.0353598 0)
(-0.179613 0.0328706 0)
(-0.183247 0.0301408 0)
(-0.186453 0.0271925 0)
(-0.189233 0.0240454 0)
(-0.191589 0.020716 0)
(-0.193519 0.0172171 0)
(-0.195019 0.0135616 0)
(-0.196089 0.00976442 0)
(-0.196727 0.00582794 0)
(-0.196929 0.00175402 0)
(-0.196693 -0.00245869 0)
(-0.196 -0.00681045 0)
(-0.194826 -0.0112942 0)
(-0.193149 -0.0159014 0)
(-0.190942 -0.0206194 0)
(-0.188172 -0.0254289 0)
(-0.184802 -0.0303045 0)
(-0.180803 -0.0352181 0)
(-0.176156 -0.0401379 0)
(-0.170801 -0.0449904 0)
(-0.164685 -0.0496792 0)
(-0.15778 -0.0541107 0)
(-0.150059 -0.0581577 0)
(-0.141483 -0.061655 0)
(-0.132066 -0.0644346 0)
(-0.121825 -0.0663184 0)
(-0.110834 -0.0671178 0)
(-0.0992039 -0.0666301 0)
(-0.0870731 -0.0647518 0)
(-0.0746973 -0.0614093 0)
(-0.0624362 -0.0566502 0)
(-0.0505301 -0.050551 0)
(-0.0392404 -0.0432598 0)
(-0.0288639 -0.0350434 0)
(-0.0196595 -0.0262474 0)
(-0.0118349 -0.0172791 0)
(-0.00553237 -0.0085838 0)
(-0.000822711 -0.000618346 0)
(0.00229767 0.00618049 0)
(0.003911 0.0114351 0)
(0.004186 0.0148776 0)
(0.00336853 0.0162556 0)
(0.00186369 0.0148736 0)
(0.00020813 0.00810644 0)
(2.58943e-05 -0.00193007 0)
(-0.000987152 -0.000894197 0)
(-0.00262866 0.00151988 0)
(-0.00448487 0.0037015 0)
(-0.00653275 0.00551224 0)
(-0.00874331 0.0070061 0)
(-0.0111164 0.00826178 0)
(-0.0136783 0.00937178 0)
(-0.0164678 0.0104368 0)
(-0.0195294 0.0115565 0)
(-0.0229101 0.0128181 0)
(-0.0266556 0.0142883 0)
(-0.0308069 0.0160088 0)
(-0.0353975 0.0179962 0)
(-0.0404524 0.0202456 0)
(-0.0459871 0.0227358 0)
(-0.0520057 0.0254337 0)
(-0.0584995 0.0282964 0)
(-0.0654433 0.0312716 0)
(-0.0727921 0.0342966 0)
(-0.0804799 0.0372969 0)
(-0.0884204 0.0401869 0)
(-0.0965114 0.0428735 0)
(-0.104644 0.0452688 0)
(-0.112712 0.0472935 0)
(-0.120617 0.048879 0)
(-0.128277 0.0499782 0)
(-0.135632 0.050577 0)
(-0.142644 0.0506761 0)
(-0.149285 0.0502904 0)
(-0.155538 0.0494477 0)
(-0.161392 0.0481795 0)
(-0.166841 0.0465187 0)
(-0.171885 0.0444998 0)
(-0.176519 0.0421562 0)
(-0.180746 0.0395187 0)
(-0.184568 0.0366153 0)
(-0.187982 0.0334714 0)
(-0.190992 0.0301094 0)
(-0.193599 0.026548 0)
(-0.195807 0.022805 0)
(-0.197619 0.0188952 0)
(-0.199038 0.0148312 0)
(-0.200061 0.0106283 0)
(-0.200698 0.0062841 0)
(-0.200949 0.00179801 0)
(-0.200813 -0.00283464 0)
(-0.200297 -0.00761824 0)
(-0.199404 -0.0125525 0)
(-0.198124 -0.0176385 0)
(-0.196441 -0.0228725 0)
(-0.194321 -0.0282378 0)
(-0.191715 -0.0337052 0)
(-0.188586 -0.0392582 0)
(-0.184849 -0.0448434 0)
(-0.18046 -0.0504056 0)
(-0.175327 -0.0558315 0)
(-0.169394 -0.0610333 0)
(-0.162679 -0.0659409 0)
(-0.155047 -0.07033 0)
(-0.146474 -0.0740107 0)
(-0.136939 -0.0767715 0)
(-0.126446 -0.0783686 0)
(-0.115053 -0.0785953 0)
(-0.102888 -0.0772343 0)
(-0.0901038 -0.0741199 0)
(-0.0770222 -0.069256 0)
(-0.0640553 -0.062741 0)
(-0.0515107 -0.0547576 0)
(-0.0397141 -0.0455425 0)
(-0.0290034 -0.0354796 0)
(-0.0196614 -0.0250379 0)
(-0.0118994 -0.0147377 0)
(-0.00584368 -0.00511827 0)
(-0.00153047 0.00329826 0)
(0.00110909 0.0100471 0)
(0.00225153 0.01476 0)
(0.00217243 0.0170924 0)
(0.00127539 0.0161638 0)
(0.000133987 0.00894194 0)
(-5.11663e-05 -0.00132464 0)
(-0.00149775 0.000641547 0)
(-0.00353954 0.00347501 0)
(-0.00575069 0.00585881 0)
(-0.00814291 0.0078213 0)
(-0.0106925 0.00946968 0)
(-0.0134078 0.0109052 0)
(-0.0163245 0.0122328 0)
(-0.0194884 0.0135602 0)
(-0.0229484 0.0149898 0)
(-0.0267521 0.0166079 0)
(-0.0309427 0.0184765 0)
(-0.0355551 0.0206294 0)
(-0.0406144 0.0230738 0)
(-0.046135 0.0257946 0)
(-0.0521195 0.028759 0)
(-0.0585573 0.0319204 0)
(-0.0654227 0.0352199 0)
(-0.0726722 0.0385869 0)
(-0.0802433 0.0419382 0)
(-0.0880562 0.0451795 0)
(-0.0960165 0.048213 0)
(-0.104025 0.0509416 0)
(-0.111984 0.0532739 0)
(-0.119796 0.0551408 0)
(-0.127384 0.0564944 0)
(-0.134696 0.0573067 0)
(-0.141686 0.0575741 0)
(-0.148324 0.057314 0)
(-0.154593 0.056552 0)
(-0.160483 0.0553224 0)
(-0.165985 0.0536608 0)
(-0.171098 0.0516046 0)
(-0.175815 0.0491871 0)
(-0.180131 0.0464429 0)
(-0.184041 0.0434036 0)
(-0.187544 0.0400978 0)
(-0.190641 0.0365516 0)
(-0.193336 0.03279 0)
(-0.195635 0.0288363 0)
(-0.19754 0.0247191 0)
(-0.199049 0.02046 0)
(-0.200243 0.0160062 0)
(-0.201094 0.0114239 0)
(-0.20161 0.00670997 0)
(-0.201796 0.00186491 0)
(-0.201649 -0.00311058 0)
(-0.201188 -0.00821856 0)
(-0.200425 -0.0134667 0)
(-0.199356 -0.0188641 0)
(-0.197979 -0.0244199 0)
(-0.196286 -0.0301455 0)
(-0.194265 -0.0360455 0)
(-0.19187 -0.0420923 0)
(-0.189065 -0.0482702 0)
(-0.185809 -0.0545612 0)
(-0.182002 -0.0608145 0)
(-0.177486 -0.0669077 0)
(-0.172074 -0.0726621 0)
(-0.165741 -0.077965 0)
(-0.158396 -0.08262 0)
(-0.150001 -0.0864212 0)
(-0.14047 -0.0890609 0)
(-0.129804 -0.0902637 0)
(-0.118047 -0.0897465 0)
(-0.105323 -0.0872893 0)
(-0.0918454 -0.0827086 0)
(-0.078005 -0.0760816 0)
(-0.064268 -0.0675896 0)
(-0.0510745 -0.0575325 0)
(-0.0388032 -0.0462774 0)
(-0.027837 -0.0343539 0)
(-0.0184788 -0.0223679 0)
(-0.010933 -0.0109551 0)
(-0.00529315 -0.000745672 0)
(-0.00153011 0.00768436 0)
(0.000519542 0.0138407 0)
(0.00117217 0.0172654 0)
(0.000835628 0.0169284 0)
(0.000103396 0.00949779 0)
(-0.000128885 -0.000436863 0)
(-0.00198702 0.0025791 0)
(-0.00439252 0.00579813 0)
(-0.00692968 0.00835955 0)
(-0.00964573 0.0104634 0)
(-0.0125179 0.0122666 0)
(-0.0155604 0.0138908 0)
(-0.0188157 0.0154511 0)
(-0.0223335 0.0170599 0)
(-0.0261637 0.0188195 0)
(-0.0303523 0.0208119 0)
(-0.0349372 0.0230909 0)
(-0.039946 0.0256802 0)
(-0.0453946 0.0285758 0)
(-0.0512861 0.03175 0)
(-0.0576108 0.0351568 0)
(-0.0643445 0.0387346 0)
(-0.0714465 0.0424078 0)
(-0.0788595 0.0460875 0)
(-0.0865102 0.0496728 0)
(-0.0943163 0.0530617 0)
(-0.102186 0.0561477 0)
(-0.110022 0.0588302 0)
(-0.117735 0.0610306 0)
(-0.125252 0.0626903 0)
(-0.13251 0.0637756 0)
(-0.139463 0.0642759 0)
(-0.146081 0.0642016 0)
(-0.152345 0.0635807 0)
(-0.158245 0.0624488 0)
(-0.163769 0.0608406 0)
(-0.168904 0.058793 0)
(-0.173638 0.0563428 0)
(-0.177959 0.0535242 0)
(-0.181862 0.050372 0)
(-0.185342 0.0469205 0)
(-0.1884 0.0432022 0)
(-0.191044 0.0392504 0)
(-0.193282 0.0350975 0)
(-0.195129 0.0307654 0)
(-0.196639 0.0262554 0)
(-0.197828 0.0215988 0)
(-0.198672 0.0168539 0)
(-0.199213 0.0119686 0)
(-0.199464 0.00695677 0)
(-0.199451 0.00181989 0)
(-0.199203 -0.00344069 0)
(-0.198733 -0.00882846 0)
(-0.198048 -0.0143567 0)
(-0.197156 -0.0200368 0)
(-0.196057 -0.0258782 0)
(-0.194746 -0.0318883 0)
(-0.193207 -0.0380697 0)
(-0.191416 -0.0444134 0)
(-0.189334 -0.0508948 0)
(-0.186902 -0.0574669 0)
(-0.184076 -0.0641879 0)
(-0.180787 -0.0709609 0)
(-0.176916 -0.0776545 0)
(-0.17233 -0.0840913 0)
(-0.166721 -0.0898806 0)
(-0.1599 -0.0948007 0)
(-0.151841 -0.098649 0)
(-0.142447 -0.101098 0)
(-0.131687 -0.101786 0)
(-0.119589 -0.100372 0)
(-0.106289 -0.0965933 0)
(-0.0920827 -0.0903335 0)
(-0.0774264 -0.0816921 0)
(-0.0629162 -0.0709925 0)
(-0.0491108 -0.0586972 0)
(-0.0364585 -0.0453373 0)
(-0.025386 -0.031614 0)
(-0.0162031 -0.018275 0)
(-0.0090876 -0.00608029 0)
(-0.00407016 0.00425092 0)
(-0.00102184 0.0120815 0)
(0.000378048 0.0167938 0)
(0.000571405 0.0172667 0)
(0.000121595 0.00988281 0)
(-0.000206607 0.000727489 0)
(-0.00244257 0.00487452 0)
(-0.00517539 0.00845599 0)
(-0.00801142 0.0111788 0)
(-0.0110283 0.0134183 0)
(-0.0142018 0.0153784 0)
(-0.0175503 0.0171992 0)
(-0.0211201 0.0190038 0)
(-0.0249624 0.0209069 0)
(-0.0291261 0.0230076 0)
(-0.0336527 0.0253807 0)
(-0.0385738 0.0280697 0)
(-0.043909 0.0310862 0)
(-0.0496646 0.0344133 0)
(-0.0558334 0.03801 0)
(-0.0623944 0.0418158 0)
(-0.0693116 0.0457536 0)
(-0.0765333 0.0497316 0)
(-0.0839935 0.053645 0)
(-0.091622 0.0573886 0)
(-0.0993348 0.0608485 0)
(-0.107033 0.0639097 0)
(-0.114633 0.0664834 0)
(-0.122064 0.0685001 0)
(-0.129254 0.0699114 0)
(-0.136154 0.0706998 0)
(-0.142737 0.0708733 0)
(-0.148981 0.0704552 0)
(-0.154867 0.0694758 0)
(-0.160375 0.0679708 0)
(-0.165485 0.0659741 0)
(-0.170178 0.0635219 0)
(-0.174439 0.0606521 0)
(-0.178259 0.0574046 0)
(-0.181634 0.0538197 0)
(-0.184569 0.0499375 0)
(-0.187078 0.0457976 0)
(-0.189179 0.0414372 0)
(-0.190897 0.0368891 0)
(-0.192259 0.0321876 0)
(-0.19327 0.0273643 0)
(-0.193969 0.0224179 0)
(-0.194376 0.0173663 0)
(-0.194536 0.0122097 0)
(-0.194481 0.00695794 0)
(-0.194237 0.00161164 0)
(-0.193829 -0.00383566 0)
(-0.193268 -0.00939567 0)
(-0.192571 -0.0150835 0)
(-0.191751 -0.0209152 0)
(-0.190817 -0.0269085 0)
(-0.189772 -0.0330808 0)
(-0.188615 -0.0394469 0)
(-0.187335 -0.0460146 0)
(-0.185905 -0.0527818 0)
(-0.18428 -0.0597299 0)
(-0.182407 -0.0668213 0)
(-0.180208 -0.0739898 0)
(-0.177574 -0.0811384 0)
(-0.174358 -0.088164 0)
(-0.17046 -0.095013 0)
(-0.165654 -0.10135 0)
(-0.159578 -0.106625 0)
(-0.151977 -0.110493 0)
(-0.142826 -0.112694 0)
(-0.13201 -0.112756 0)
(-0.119563 -0.110272 0)
(-0.105662 -0.104972 0)
(-0.0906766 -0.096769 0)
(-0.075183 -0.0858453 0)
(-0.0599359 -0.0727171 0)
(-0.0456142 -0.0580566 0)
(-0.0327498 -0.0426 0)
(-0.0217975 -0.0272275 0)
(-0.0130521 -0.0128543 0)
(-0.00663347 -0.000372171 0)
(-0.00246032 0.00941192 0)
(-0.000262573 0.0156599 0)
(0.000441702 0.0172028 0)
(0.000173224 0.0101869 0)
(-0.000286791 0.00215126 0)
(-0.00286266 0.00749468 0)
(-0.00588284 0.0114171 0)
(-0.0089887 0.0142899 0)
(-0.0122799 0.0166618 0)
(-0.0157291 0.0187812 0)
(-0.0193565 0.0208044 0)
(-0.0232102 0.0228606 0)
(-0.027341 0.025064 0)
(-0.0317942 0.0275084 0)
(-0.0366063 0.0302587 0)
(-0.0418017 0.0333465 0)
(-0.0473915 0.0367704 0)
(-0.0533734 0.0404994 0)
(-0.059731 0.0444787 0)
(-0.0664336 0.0486333 0)
(-0.0734362 0.0528711 0)
(-0.0806804 0.0570858 0)
(-0.0881071 0.0611708 0)
(-0.09564 0.065008 0)
(-0.103181 0.0684649 0)
(-0.110651 0.0714415 0)
(-0.117975 0.0738561 0)
(-0.12508 0.0756436 0)
(-0.131916 0.0767761 0)
(-0.138452 0.0772559 0)
(-0.144658 0.0770978 0)
(-0.150506 0.0763258 0)
(-0.155969 0.0749689 0)
(-0.161019 0.0730605 0)
(-0.165631 0.0706384 0)
(-0.169787 0.067743 0)
(-0.173474 0.0644189 0)
(-0.176691 0.0607143 0)
(-0.179445 0.0566784 0)
(-0.181753 0.0523603 0)
(-0.18364 0.0478062 0)
(-0.185135 0.0430589 0)
(-0.186271 0.0381549 0)
(-0.18708 0.033123 0)
(-0.187594 0.0279878 0)
(-0.187852 0.0227653 0)
(-0.187885 0.0174733 0)
(-0.187725 0.0121144 0)
(-0.187403 0.00669023 0)
(-0.186942 0.00119608 0)
(-0.186366 -0.00437824 0)
(-0.185695 -0.0100465 0)
(-0.184948 -0.0158252 0)
(-0.184144 -0.0217332 0)
(-0.183296 -0.0277917 0)
(-0.182417 -0.0340228 0)
(-0.181513 -0.0404474 0)
(-0.180584 -0.0470827 0)
(-0.179617 -0.0539409 0)
(-0.178587 -0.0610265 0)
(-0.177455 -0.0683341 0)
(-0.176162 -0.0758301 0)
(-0.174617 -0.0834493 0)
(-0.172698 -0.0910812 0)
(-0.170252 -0.0985621 0)
(-0.167081 -0.105676 0)
(-0.16296 -0.112282 0)
(-0.157604 -0.117907 0)
(-0.150539 -0.121819 0)
(-0.141649 -0.123717 0)
(-0.130768 -0.123022 0)
(-0.117933 -0.119284 0)
(-0.103373 -0.112206 0)
(-0.0875612 -0.101751 0)
(-0.0712406 -0.0882605 0)
(-0.055339 -0.0724982 0)
(-0.0406795 -0.0554103 0)
(-0.0278612 -0.0379509 0)
(-0.0173393 -0.0212192 0)
(-0.00936576 -0.00632412 0)
(-0.00393668 0.0057177 0)
(-0.00084887 0.0138615 0)
(0.000395733 0.0168676 0)
(0.000252013 0.010501 0)
(-0.000362817 0.00380617 0)
(-0.00323875 0.0104001 0)
(-0.00650953 0.0146481 0)
(-0.00985514 0.0176635 0)
(-0.0133914 0.020166 0)
(-0.0170866 0.0224462 0)
(-0.0209612 0.0246749 0)
(-0.0250633 0.0269853 0)
(-0.0294412 0.0294887 0)
(-0.034136 0.0322713 0)
(-0.0391779 0.0353869 0)
(-0.0445843 0.0388541 0)
(-0.0503586 0.0426573 0)
(-0.0564904 0.0467519 0)
(-0.0629556 0.0510689 0)
(-0.069716 0.0555194 0)
(-0.0767209 0.0599981 0)
(-0.0839202 0.0643971 0)
(-0.0912489 0.0685996 0)
(-0.0986119 0.0724571 0)
(-0.105928 0.0758546 0)
(-0.113126 0.0786977 0)
(-0.120131 0.0809054 0)
(-0.126889 0.0824364 0)
(-0.133363 0.0832782 0)
(-0.139515 0.0834353 0)
(-0.145309 0.0829218 0)
(-0.150709 0.0817616 0)
(-0.155682 0.0799856 0)
(-0.160196 0.0776303 0)
(-0.16423 0.0747394 0)
(-0.167769 0.0713627 0)
(-0.170814 0.0675557 0)
(-0.173377 0.0633778 0)
(-0.17548 0.0588879 0)
(-0.177153 0.0541426 0)
(-0.178434 0.0491945 0)
(-0.179362 0.0440894 0)
(-0.179975 0.0388637 0)
(-0.180311 0.0335462 0)
(-0.180408 0.0281618 0)
(-0.180301 0.0227271 0)
(-0.180019 0.0172535 0)
(-0.17959 0.0117425 0)
(-0.179042 0.00619198 0)
(-0.178396 0.000594961 0)
(-0.177676 -0.00505993 0)
(-0.176902 -0.0107874 0)
(-0.176096 -0.0166053 0)
(-0.175278 -0.0225345 0)
(-0.174466 -0.0285987 0)
(-0.173676 -0.0348229 0)
(-0.172921 -0.0412331 0)
(-0.172211 -0.0478537 0)
(-0.171544 -0.0547064 0)
(-0.170911 -0.0618081 0)
(-0.17029 -0.0691674 0)
(-0.169641 -0.0767756 0)
(-0.168899 -0.0846026 0)
(-0.167969 -0.092588 0)
(-0.16672 -0.100628 0)
(-0.164975 -0.108544 0)
(-0.162516 -0.11608 0)
(-0.159064 -0.122905 0)
(-0.154282 -0.128661 0)
(-0.147704 -0.132582 0)
(-0.139011 -0.134074 0)
(-0.127995 -0.132456 0)
(-0.114689 -0.127214 0)
(-0.0993876 -0.118028 0)
(-0.082713 -0.104964 0)
(-0.0656105 -0.0886058 0)
(-0.049227 -0.0700458 0)
(-0.03451 -0.0505504 0)
(-0.0220929 -0.0313206 0)
(-0.0124089 -0.0137469 0)
(-0.0055918 0.000883211 0)
(-0.00150351 0.0113299 0)
(0.000333727 0.0161433 0)
(0.000347751 0.0108471 0)
(-0.000431979 0.00567035 0)
(-0.00356665 0.0135531 0)
(-0.00705155 0.0181151 0)
(-0.0106055 0.0212682 0)
(-0.0143552 0.0238999 0)
(-0.0182637 0.0263411 0)
(-0.0223503 0.028775 0)
(-0.0266614 0.0313372 0)
(-0.0312421 0.0341343 0)
(-0.0361282 0.0372433 0)
(-0.0413437 0.0407057 0)
(-0.046899 0.0445263 0)
(-0.0527909 0.0486757 0)
(-0.0590022 0.0530953 0)
(-0.0655024 0.0577031 0)
(-0.0722478 0.0623978 0)
(-0.0791953 0.0670705 0)
(-0.0862939 0.0716096 0)
(-0.0934548 0.0758586 0)
(-0.100594 0.0796816 0)
(-0.107644 0.0829739 0)
(-0.11453 0.0856375 0)
(-0.121196 0.087613 0)
(-0.127594 0.08887 0)
(-0.13368 0.0893968 0)
(-0.13941 0.0891975 0)
(-0.144742 0.0882887 0)
(-0.149635 0.0866956 0)
(-0.154054 0.0844535 0)
(-0.157971 0.081607 0)
(-0.161374 0.0782113 0)
(-0.164263 0.0743301 0)
(-0.166655 0.0700324 0)
(-0.168578 0.0653884 0)
(-0.170068 0.0604659 0)
(-0.171169 0.0553281 0)
(-0.171926 0.05003 0)
(-0.172379 0.0446156 0)
(-0.17257 0.0391196 0)
(-0.172537 0.0335707 0)
(-0.172313 0.02799 0)
(-0.17193 0.0223899 0)
(-0.171412 0.0167775 0)
(-0.170785 0.0111528 0)
(-0.170068 0.00551179 0)
(-0.169285 -0.000153633 0)
(-0.168455 -0.00585525 0)
(-0.167598 -0.0116082 0)
(-0.166735 -0.0174309 0)
(-0.165886 -0.0233448 0)
(-0.165072 -0.0293744 0)
(-0.164313 -0.0355467 0)
(-0.163628 -0.0418906 0)
(-0.163032 -0.0484359 0)
(-0.162534 -0.055212 0)
(-0.162138 -0.0622462 0)
(-0.161837 -0.0695599 0)
(-0.161608 -0.0771627 0)
(-0.161407 -0.0850482 0)
(-0.161168 -0.0931859 0)
(-0.160788 -0.10151 0)
(-0.160123 -0.109905 0)
(-0.158982 -0.11819 0)
(-0.157114 -0.12608 0)
(-0.154213 -0.133182 0)
(-0.149883 -0.138984 0)
(-0.143643 -0.142764 0)
(-0.135022 -0.143691 0)
(-0.123734 -0.140907 0)
(-0.109832 -0.133817 0)
(-0.093691 -0.12211 0)
(-0.0761346 -0.106022 0)
(-0.0583818 -0.0864924 0)
(-0.0418007 -0.0650637 0)
(-0.0274252 -0.0432885 0)
(-0.0158801 -0.0227879 0)
(-0.00752436 -0.00520719 0)
(-0.0023054 0.00797564 0)
(0.000210874 0.0149937 0)
(0.000446996 0.0112122 0)
(-0.000492664 0.00771583 0)
(-0.00384356 0.0169151 0)
(-0.00750608 0.0217835 0)
(-0.0112359 0.025071 0)
(-0.0151653 0.0278302 0)
(-0.0192522 0.0304303 0)
(-0.0235132 0.0330661 0)
(-0.027992 0.0358734 0)
(-0.0327296 0.0389528 0)
(-0.0377563 0.0423709 0)
(-0.04309 0.0461564 0)
(-0.048735 0.0503003 0)
(-0.0546822 0.0547595 0)
(-0.0609093 0.0594622 0)
(-0.0673801 0.0643147 0)
(-0.0740553 0.0692091 0)
(-0.0808972 0.0740396 0)
(-0.0878313 0.0786546 0)
(-0.0947703 0.0828936 0)
(-0.101648 0.0866416 0)
(-0.108396 0.0897849 0)
(-0.11495 0.0922428 0)
(-0.121258 0.0939631 0)
(-0.127267 0.0949155 0)
(-0.13293 0.0950907 0)
(-0.138195 0.094494 0)
(-0.143018 0.093144 0)
(-0.147356 0.0910715 0)
(-0.151179 0.0883213 0)
(-0.154473 0.0849524 0)
(-0.15724 0.081036 0)
(-0.1595 0.0766517 0)
(-0.161284 0.0718805 0)
(-0.162635 0.0668025 0)
(-0.163603 0.0614922 0)
(-0.164236 0.0560137 0)
(-0.164577 0.0504186 0)
(-0.164669 0.0447478 0)
(-0.164551 0.0390343 0)
(-0.164256 0.0333024 0)
(-0.163812 0.0275677 0)
(-0.163243 0.0218393 0)
(-0.16257 0.016121 0)
(-0.161813 0.0104112 0)