# vtk DataFile Version 2.0
tracks
ASCII
DATASET POLYDATA
POINTS 12025 float
-0.0206 0.000999968 1e-05 -0.02058 0.00099997 1e-05 -0.02056 0.000999974 1e-05 -0.02054 0.00099998
1e-05 -0.02052 0.000999989 1e-05 -0.0205 0.001 1e-05 -0.0202034 0.00100016 1e-05
-0.0199069 0.00100061 1e-05 -0.0196103 0.00100133 1e-05 -0.0193137 0.00100233 1e-05 -0.0190172
0.0010036 1e-05 -0.0187132 0.00100513 1e-05 -0.0184093 0.00100678 1e-05 -0.0181054 0.00100852
1e-05 -0.0178015 0.00101035 1e-05 -0.0174976 0.00101228 1e-05 -0.0172058 0.00101421 1e-05
-0.016914 0.00101618 1e-05 -0.0166222 0.00101818 1e-05 -0.0163305 0.00102022 1e-05 -0.0160387
0.0010223 1e-05 -0.0159141 0.00102321 1e-05 -0.0157895 0.00102411 1e-05 -0.015665 0.00102502
1e-05 -0.0155404 0.00102594 1e-05 -0.0154218 0.00102682 1e-05 -0.015265 0.00102798 1e-05
-0.0151083 0.00102915 1e-05 -0.0149516 0.00103033 1e-05 -0.0147948 0.00103151 1e-05 -0.0146381
0.00103271 1e-05 -0.0143692 0.00103476 1e-05 -0.0141002 0.00103682 1e-05 -0.0138313 0.00103889
1e-05 -0.0135624 0.00104097 1e-05 -0.0132934 0.00104305 1e-05 -0.0130353 0.00104505 1e-05
-0.0127771 0.00104705 1e-05 -0.0125189 0.00104903 1e-05 -0.0122607 0.00105101 1e-05 -0.0120025
0.00105297 1e-05 -0.0117547 0.00105485 1e-05 -0.0115068 0.00105671 1e-05 -0.0112589 0.00105855
1e-05 -0.0110111 0.00106037 1e-05 -0.0107632 0.00106218 1e-05 -0.0105252 0.00106391 1e-05
-0.0102873 0.00106562 1e-05 -0.0100493 0.00106731 1e-05 -0.00981133 0.00106898 1e-05 -0.00957337
0.00107064 1e-05 -0.00934491 0.00107224 1e-05 -0.00911645 0.00107381 1e-05 -0.00888799 0.00107536
1e-05 -0.00865954 0.00107691 1e-05 -0.00843108 0.00107844 1e-05 -0.00821175 0.00107991 1e-05
-0.00799242 0.00108135 1e-05 -0.00777309 0.00108278 1e-05 -0.00755376 0.0010842 1e-05 -0.00733443
0.0010856 1e-05 -0.00712387 0.00108695 1e-05 -0.0069133 0.00108827 1e-05 -0.00670273 0.00108957
1e-05 -0.00649216 0.00109087 1e-05 -0.0062816 0.00109214 1e-05 -0.00607944 0.00109337 1e-05
-0.00587729 0.00109458 1e-05 -0.00567514 0.00109577 1e-05 -0.00547298 0.00109696 1e-05 -0.00527083
0.00109813 1e-05 -0.00507675 0.00109927 1e-05 -0.00488267 0.00110038 1e-05 -0.0046886 0.00110149
1e-05 -0.00449452 0.00110258 1e-05 -0.00430044 0.00110366 1e-05 -0.00411412 0.0011047 1e-05
-0.0039278 0.00110572 1e-05 -0.00374147 0.00110672 1e-05 -0.00355515 0.0011077 1e-05 -0.00336883
0.00110868 1e-05 -0.00318995 0.00110961 1e-05 -0.00301107 0.00111052 1e-05 -0.00283219 0.00111141
1e-05 -0.00265331 0.00111229 1e-05 -0.00247443 0.00111316 1e-05 -0.0023027 0.00111399 1e-05
-0.00213097 0.0011148 1e-05 -0.00195924 0.00111559 1e-05 -0.0017875 0.00111637 1e-05 -0.00161577
0.00111713 1e-05 -0.0014509 0.00111786 1e-05 -0.00128603 0.00111857 1e-05 -0.00112116 0.00111926
1e-05 -0.000956289 0.00111993 1e-05 -0.000791418 0.00112058 1e-05 -0.000633135 0.0011212 1e-05
-0.000474851 0.00112179 1e-05 -0.000316567 0.00112237 1e-05 -0.000158283 0.00112293 1e-05 0
0.00112347 1e-05 0.000105677 0.00112383 1e-05 0.000211355 0.00112418 1e-05 0.000317032 0.00112452
1e-05 0.00042271 0.00112486 1e-05 0.000528387 0.00112519 1e-05 0.000634886 0.00112552 1e-05
0.000741385 0.00112585 1e-05 0.000847885 0.00112618 1e-05 0.000954384 0.0011265 1e-05 0.00106088
0.00112682 1e-05 0.00116821 0.00112715 1e-05 0.00127554 0.00112747 1e-05 0.00138286 0.00112778
1e-05 0.00149019 0.00112809 1e-05 0.00159752 0.00112839 1e-05 0.00170568 0.0011287 1e-05
0.00181384 0.00112899 1e-05 0.001922 0.00112927 1e-05 0.00203016 0.00112955 1e-05 0.00213833
0.00112982 1e-05 0.00224733 0.00113008 1e-05 0.00235633 0.00113033 1e-05 0.00246533 0.00113058
1e-05 0.00257434 0.00113082 1e-05 0.00268334 0.00113104 1e-05 0.00279319 0.00113126 1e-05
0.00290304 0.00113148 1e-05 0.00301289 0.00113169 1e-05 0.00312274 0.00113189 1e-05 0.00323259
0.00113208 1e-05 0.00334329 0.00113226 1e-05 0.003454 0.00113245 1e-05 0.0035647 0.00113262
1e-05 0.0036754 0.00113279 1e-05 0.00378611 0.00113296 1e-05 0.00389767 0.00113311 1e-05
0.00400924 0.00113327 1e-05 0.0041208 0.00113342 1e-05 0.00423237 0.00113356 1e-05 0.00434393
0.0011337 1e-05 0.00445636 0.00113383 1e-05 0.00456879 0.00113396 1e-05 0.00468123 0.00113409
1e-05 0.00479366 0.00113421 1e-05 0.00490609 0.00113433 1e-05 0.0050194 0.00113444 1e-05
0.0051327 0.00113455 1e-05 0.00524601 0.00113466 1e-05 0.00535931 0.00113476 1e-05 0.00547262
0.00113486 1e-05 0.00558681 0.00113495 1e-05 0.005701 0.00113504 1e-05 0.00581518 0.00113513
1e-05 0.00592937 0.00113521 1e-05 0.00604356 0.00113529 1e-05 0.00615863 0.00113536 1e-05
0.00627371 0.00113544 1e-05 0.00638878 0.00113551 1e-05 0.00650386 0.00113557 1e-05 0.00661893
0.00113563 1e-05 0.0067349 0.00113569 1e-05 0.00685087 0.00113575 1e-05 0.00696684 0.0011358
1e-05 0.00708281 0.00113584 1e-05 0.00719878 0.00113589 1e-05 0.00731565 0.00113592 1e-05
0.00743252 0.00113596 1e-05 0.00754939 0.00113599 1e-05 0.00766626 0.00113602 1e-05 0.00778313
0.00113604 1e-05 0.00790091 0.00113606 1e-05 0.00801869 0.00113607 1e-05 0.00813647 0.00113608
1e-05 0.00825425 0.00113609 1e-05 0.00837203 0.00113609 1e-05 0.00849073 0.00113608 1e-05
0.00860942 0.00113607 1e-05 0.00872812 0.00113605 1e-05 0.00884682 0.00113603 1e-05 0.00896551
0.001136 1e-05 0.00907592 0.00113597 1e-05 0.00918633 0.00113594 1e-05 0.00929673 0.0011359
1e-05 0.00940714 0.00113585 1e-05 0.00951353 0.0011358 1e-05 0.00952355 0.0011358 1e-05
0.00953356 0.00113579 1e-05 0.00954357 0.00113578 1e-05 0.00955359 0.00113578 1e-05 0.0095636
0.00113577 1e-05 0.00968415 0.00113571 1e-05 0.0098047 0.00113564 1e-05 0.00992525 0.00113556
1e-05 0.0100458 0.00113547 1e-05 0.0101663 0.00113537 1e-05 0.0102878 0.00113526 1e-05
0.0104093 0.00113515 1e-05 0.0105308 0.00113503 1e-05 0.0106523 0.0011349 1e-05 0.0107738
0.00113476 1e-05 0.0108962 0.0011346 1e-05 0.0110186 0.00113444 1e-05 0.0111411 0.00113428
1e-05 0.0112635 0.0011341 1e-05 0.0113859 0.00113391 1e-05 0.0115093 0.0011337 1e-05
0.0116327 0.00113349 1e-05 0.0117561 0.00113327 1e-05 0.0118795 0.00113304 1e-05 0.0120028
0.00113279 1e-05 0.0121272 0.00113252 1e-05 0.0122515 0.00113226 1e-05 0.0123759 0.00113198
1e-05 0.0125002 0.00113169 1e-05 0.0126245 0.00113139 1e-05 0.0127498 0.00113106 1e-05
0.0128752 0.00113073 1e-05 0.0130005 0.00113039 1e-05 0.0131258 0.00113004 1e-05 0.0132511
0.00112967 1e-05 0.0133774 0.00112928 1e-05 0.0135036 0.00112889 1e-05 0.0136299 0.00112848
1e-05 0.0137562 0.00112806 1e-05 0.0138825 0.00112764 1e-05 0.0140098 0.00112718 1e-05
0.014137 0.00112672 1e-05 0.0142643 0.00112625 1e-05 0.0143915 0.00112576 1e-05 0.0145188
0.00112527 1e-05 0.0146471 0.00112474 1e-05 0.0147753 0.00112422 1e-05 0.0149036 0.00112368
1e-05 0.0150318 0.00112312 1e-05 0.0151601 0.00112256 1e-05 0.0152893 0.00112197 1e-05
0.0154186 0.00112138 1e-05 0.0155478 0.00112077 1e-05 0.0156771 0.00112015 1e-05 0.0158063
0.00111952 1e-05 0.0159366 0.00111887 1e-05 0.0160668 0.00111821 1e-05 0.0161971 0.00111754
1e-05 0.0163273 0.00111685 1e-05 0.0164576 0.00111616 1e-05 0.0165889 0.00111545 1e-05
0.0167201 0.00111472 1e-05 0.0168514 0.00111398 1e-05 0.0169827 0.00111323 1e-05 0.0171139
0.00111248 1e-05 0.0172462 0.00111171 1e-05 0.0173785 0.00111092 1e-05 0.0175108 0.00111012
1e-05 0.0176431 0.00110931 1e-05 0.0177754 0.0011085 1e-05 0.0179087 0.00110768 1e-05
0.018042 0.00110684 1e-05 0.0181753 0.00110598 1e-05 0.0183087 0.00110511 1e-05 0.018442
0.00110424 1e-05 0.0185763 0.00110338 1e-05 0.0187107 0.00110248 1e-05 0.018845 0.00110157
1e-05 0.0189794 0.00110065 1e-05 0.0191137 0.00109973 1e-05 0.0192491 0.00109882 1e-05
0.0193845 0.00109787 1e-05 0.0195199 0.00109691 1e-05 0.0196553 0.00109594 1e-05 0.0197907
0.00109498 1e-05 0.0199272 0.00109402 1e-05 0.0200636 0.00109304 1e-05 0.0202001 0.00109203
1e-05 0.0203365 0.001091 1e-05 0.020473 0.00109 1e-05 0.0206105 0.00108901 1e-05
0.020748 0.00108799 1e-05 0.0208855 0.00108693 1e-05 0.021023 0.00108587 1e-05 0.0211606
0.00108483 1e-05 0.0212991 0.0010838 1e-05 0.0214377 0.00108274 1e-05 0.0215763 0.00108165
1e-05 0.0217149 0.00108054 1e-05 0.0218535 0.00107947 1e-05 0.0219931 0.00107841 1e-05
0.0221328 0.00107732 1e-05 0.0222724 0.00107618 1e-05 0.0224121 0.00107505 1e-05 0.0225517
0.00107394 1e-05 0.0226925 0.00107285 1e-05 0.0228332 0.00107173 1e-05 0.022974 0.00107056
1e-05 0.0231147 0.00106938 1e-05 0.0232555 0.00106824 1e-05 0.0233973 0.00106712 1e-05
0.0235391 0.00106596 1e-05 0.023681 0.00106476 1e-05 0.0238228 0.00106355 1e-05 0.0239647
0.00106237 1e-05 0.0241076 0.00106123 1e-05 0.0242505 0.00106003 1e-05 0.0243935 0.00105879
1e-05 0.0245364 0.00105754 1e-05 0.0246794 0.00105633 1e-05 0.0248234 0.00105515 1e-05
0.0249675 0.00105391 1e-05 0.0251115 0.00105263 1e-05 0.0252556 0.00105135 1e-05 0.0253996
0.0010501 1e-05 0.0255448 0.00104887 1e-05 0.02569 0.0010476 1e-05 0.0258351 0.00104627
1e-05 0.0259803 0.00104494 1e-05 0.0261255 0.00104365 1e-05 0.0262718 0.00104238 1e-05
0.0264181 0.00104106 1e-05 0.0265644 0.00103969 1e-05 0.0267107 0.00103832 1e-05 0.026857
0.00103697 1e-05 0.0270044 0.00103565 1e-05 0.0271519 0.00103428 1e-05 0.0272993 0.00103286
1e-05 0.0274468 0.00103144 1e-05 0.0275942 0.00103004 1e-05 0.0277428 0.00102866 1e-05
0.0278914 0.00102723 1e-05 0.0280399 0.00102576 1e-05 0.0281885 0.00102429 1e-05 0.0283371
0.00102283 1e-05 0.0284869 0.00102139 1e-05 0.0286366 0.00101989 1e-05 0.0287863 0.00101837
1e-05 0.0289361 0.00101684 1e-05 0.0290858 0.00101531 1e-05 0.0292367 0.0010138 1e-05
0.0293876 0.00101224 1e-05 0.0295385 0.00101065 1e-05 0.0296894 0.00100906 1e-05 0.0298403
0.00100746 1e-05 0.0299924 0.00100588 1e-05 0.0301445 0.00100425 1e-05 0.0302966 0.00100259
1e-05 0.0304486 0.00100093 1e-05 0.0306007 0.000999262 1e-05 0.030754 0.000997607 1e-05
0.0309072 0.0009959 1e-05 0.0310605 0.00099418 1e-05 0.0312138 0.000992451 1e-05 0.031367
0.000990711 1e-05 0.0315215 0.00098898 1e-05 0.0316759 0.000987204 1e-05 0.0318304 0.000985418
1e-05 0.0319848 0.000983621 1e-05 0.0321393 0.000981814 1e-05 0.0322949 0.00098001 1e-05
0.0324506 0.000978168 1e-05 0.0326062 0.000976316 1e-05 0.0327619 0.000974455 1e-05 0.0329175
[...]
POINT_DATA 12025
FIELD attributes 4
age 1 12025 float
-9.99855e-06 -7.99865e-06 -5.99884e-06 -3.99913e-06 -1.99952e-06 0 2.96496e-05 5.92799e-05 8.88911e-05 0.000118483 0.000148056
0.000178332 0.00020859 0.000238825 0.000269038 0.000299229 0.000328182 0.000357122 0.000386042 0.000414943 0.000443823
0.000456144 0.000468462 0.000480777 0.000493089 0.000504808 0.00052029 0.000535767 0.000551239 0.000566705 0.000582166
0.000608684 0.000635188 0.000661678 0.000688154 0.000714616 0.000740003 0.000765383 0.000790752 0.000816109 0.000841453
0.000865767 0.000890081 0.000914386 0.000938682 0.000962969 0.000986266 0.00100957 0.00103287 0.00105616 0.00107944
0.00110177 0.00112411 0.00114645 0.00116878 0.00119111 0.00121253 0.00123395 0.00125538 0.0012768 0.00129821
0.00131875 0.0013393 0.00135985 0.0013804 0.00140095 0.00142065 0.00144037 0.00146009 0.0014798 0.00149952
0.00151843 0.00153735 0.00155627 0.00157518 0.0015941 0.00161225 0.0016304 0.00164856 0.00166671 0.00168486
0.00170228 0.0017197 0.00173713 0.00175455 0.00177197 0.00178869 0.00180542 0.00182214 0.00183886 0.00185558
0.00187164 0.00188769 0.00190374 0.0019198 0.00193585 0.00195127 0.00196668 0.00198209 0.0019975 0.00201292
0.00202321 0.00203351 0.0020438 0.00205409 0.00206439 0.00207477 0.00208514 0.00209552 0.00210589 0.00211627
0.00212674 0.0021372 0.00214766 0.00215812 0.00216858 0.00217914 0.00218968 0.00220022 0.00221077 0.00222132
0.00223196 0.00224259 0.00225322 0.00226385 0.00227449 0.00228522 0.00229594 0.00230666 0.00231738 0.00232811
0.00233893 0.00234974 0.00236055 0.00237137 0.00238219 0.00239311 0.00240401 0.00241492 0.00242583 0.00243675
0.00244776 0.00245877 0.00246978 0.00248079 0.0024918 0.00250292 0.00251402 0.00252513 0.00253624 0.00254736
0.00255858 0.00256979 0.002581 0.00259222 0.00260345 0.00261477 0.00262609 0.00263741 0.00264874 0.00266008
0.00267151 0.00268294 0.00269438 0.00270582 0.00271727 0.00272883 0.00274037 0.00275193 0.00276349 0.00277506
0.00278673 0.0027984 0.00281008 0.00282176 0.00283345 0.00284525 0.00285705 0.00286885 0.00288067 0.00289249
0.0029035 0.00291451 0.00292553 0.00293655 0.00294719 0.00294819 0.00294919 0.00295019 0.00295119 0.0029522
0.00296426 0.00297633 0.00298841 0.0030005 0.0030126 0.00302483 0.00303704 0.00304927 0.00306151 0.00307377
0.00308615 0.00309853 0.00311091 0.00312331 0.00313571 0.00314828 0.00316081 0.00317336 0.00318592 0.00319849
0.00321123 0.00322393 0.00323665 0.00324938 0.00326212 0.00327505 0.00328793 0.00330082 0.00331373 0.00332665
0.00333977 0.00335283 0.00336591 0.00337901 0.00339212 0.00340544 0.00341869 0.00343196 0.00344525 0.00345856
0.00347208 0.00348553 0.00349901 0.0035125 0.00352601 0.00353974 0.0035534 0.00356708 0.00358078 0.00359451
0.00360845 0.00362233 0.00363623 0.00365015 0.0036641 0.00367826 0.00369237 0.00370649 0.00372063 0.00373482
0.0037492 0.00376355 0.0037779 0.00379228 0.0038067 0.00382131 0.0038359 0.00385049 0.0038651 0.00387976
0.00389462 0.00390945 0.00392428 0.00393913 0.00395404 0.00396913 0.00398421 0.00399929 0.0040144 0.00402955
0.00404489 0.00406022 0.00407555 0.00409091 0.00410632 0.0041219 0.00413749 0.00415307 0.00416869 0.00418435
0.00420019 0.00421603 0.00423187 0.00424775 0.00426367 0.00427976 0.00429586 0.00431197 0.00432811 0.00434428
0.00436062 0.00437698 0.00439335 0.00440976 0.00442619 0.00444279 0.0044594 0.00447604 0.00449271 0.0045094
0.00452625 0.00454313 0.00456003 0.00457695 0.00459391 0.00461102 0.00462816 0.00464532 0.0046625 0.00467971
0.00469708 0.00471448 0.00473191 0.00474935 0.00476682 0.00478445 0.0048021 0.00481979 0.00483749 0.00485522
0.00487311 0.00489102 0.00490897 0.00492693 0.00494492 0.00496306 0.00498123 0.00499944 0.00501766 0.0050359
0.0050543 0.00507274 0.0050912 0.00510968 0.00512818 0.00514684 0.00516554 0.00518426 0.005203 0.00522176
0.00524068 0.00525964 0.00527862 0.00529762 0.00531664 0.00533582 0.00535504 0.00537428 0.00539355 0.00541283
0.00543228 0.00545176 0.00547126 0.00549079 0.00551033 0.00553005 0.0055498 0.00556957 0.00558936 0.00560917
0.00562915 0.00564916 0.0056692 0.00568926 0.00570934 0.00572959 0.00574987 0.00577018 0.00579051 0.00581085
0.00583138 0.00585194 0.00587251 0.00589311 0.00591373 0.00592512 0.00593651 0.00594791 0.00595932 0.00597063
0.0059801 0.00598957 0.00599905 0.00600853 0.00601801 0.00603909 0.0060602 0.00608132 0.00610247 0.00612365
0.00614501 0.00616639 0.0061878 0.00620923 0.00623068 0.00625232 0.00627398 0.00629567 0.00631738 0.00633911
0.00636102 0.00638297 0.00640493 0.00642692 0.00644894 0.00647113 0.00649335 0.0065156 0.00653787 0.00656016
0.00658263 0.00660513 0.00662765 0.0066502 0.00667277 0.00669551 0.00671829 0.00674109 0.00676391 0.00678675
0.00680976 0.00683281 0.00685588 0.00687897 0.00690208 0.00692536 0.00694868 0.00697202 0.00699538 0.00701875
0.0070423 0.00706588 0.00708949 0.00711312 0.00713675 0.00716056 0.0071844 0.00720827 0.00723216 0.00725605
0.00728012 0.00730422 0.00732834 0.00735249 0.00737663 0.00740096 0.00742531 0.00744969 0.00747409 0.00749849
0.00752306 0.00754767 0.00757231 0.00759695 0.0076216 0.00764643 0.00767128 0.00769617 0.00772106 0.00774595
0.00777103 0.00779614 0.00782127 0.00784641 0.00787155 0.00789688 0.00792224 0.00794762 0.00797301 0.0079984
0.00802398 0.00804959 0.00807522 0.00810087 0.00812651 0.00815234 0.00817821 0.0082041 0.00822999 0.00825589
0.00828199 0.00830811 0.00833426 0.00836041 0.00838657 0.00841294 0.00843933 0.00846574 0.00849217 0.0085186
0.00854524 0.00857191 0.00859859 0.00862529 0.008652 0.00867893 0.00870588 0.00873285 0.00875984 0.00878684
0.00881406 0.00884131 0.00886858 0.00889586 0.00892316 0.00895069 0.00897824 0.00900582 0.00903341 0.00906103
0.00908888 0.00911675 0.00914465 0.00917257 0.00920051 0.00920588 0.00921125 0.00921661 0.00922198 0.00922726
0.00925011 0.00927299 0.00929587 0.00931878 0.0093417 0.00937023 0.00939879 0.00942737 0.00945599 0.00948463
0.00951352 0.00954244 0.00957139 0.00960037 0.00962939 0.00965865 0.00968795 0.00971728 0.00974665 0.00977605
0.00980569 0.00983538 0.00986511 0.00989487 0.00992467 0.00995471 0.0099848 0.0100149 0.0100451 0.0100753
0.0101058 0.0101363 0.0101668 0.0101974 0.010228 0.0102589 0.0102898 0.0103208 0.0103518 0.0103828
0.0104141 0.0104455 0.0104769 0.0105084 0.0105398 0.0105716 0.0106034 0.0106352 0.0106671 0.010699
0.0107312 0.0107635 0.0107958 0.0108281 0.0108605 0.0108931 0.0109258 0.0109585 0.0109913 0.0110241
0.0110572 0.0110904 0.0111236 0.0111568 0.0111901 0.0112237 0.0112573 0.0112909 0.0113246 0.0113583
0.011374 0.0113897 0.0114054 0.0114211 0.0114367 0.0114551 0.0114736 0.011492 0.0115104 0.0115289
0.0115634 0.0115979 0.0116325 0.0116671 0.0117018 0.0117367 0.0117717 0.0118068 0.0118419 0.011877
0.0119125 0.0119479 0.0119835 0.012019 0.0120547 0.0120906 0.0121265 0.0121625 0.0121986 0.0122347
0.0122711 0.0123075 0.012344 0.0123805 0.0124171 0.012454 0.0124909 0.0125279 0.0125649 0.0126019
0.0126393 0.0126767 0.0127142 0.0127517 0.0127892 0.0128271 0.012865 0.012903 0.012941 0.012979
0.0130174 0.0130558 0.0130943 0.0131328 0.0131713 0.0132102 0.0132491 0.0132881 0.0133271 0.0133662
0.0134055 0.013445 0.0134845 0.013524 0.0135636 0.0135773 0.013591 0.0136047 0.0136184 0.0136318
0.0136582 0.0136845 0.0137109 0.0137373 0.0137638 0.0138043 0.0138448 0.0138853 0.0139259 0.0139666
0.0140076 0.0140487 0.0140898 0.014131 0.0141722 0.0142138 0.0142554 0.0142971 0.0143388 0.0143806
0.0144228 0.014465 0.0145073 0.0145496 0.014592 0.0146348 0.0146776 0.0147205 0.0147634 0.0148064
0.0148498 0.0148933 0.0149368 0.0149804 0.015024 0.015068 0.0151121 0.0151563 0.0152005 0.0152448
0.0152895 0.0153343 0.0153791 0.015424 0.015469 0.0154894 0.0155098 0.0155302 0.0155506 0.0155703
0.0155956 0.0156208 0.0156461 0.0156714 0.0156967 0.0157428 0.015789 0.0158352 0.0158815 0.0159279
0.0159747 0.0160216 0.0160686 0.0161156 0.0161628 0.0162103 0.016258 0.0163057 0.0163535 0.0164014
0.0164497 0.0164982 0.0165467 0.0165952 0.0166439 0.0166931 0.0167423 0.0167917 0.0168411 0.0168906
0.0169406 0.0169906 0.0170408 0.0170911 0.0171415 0.0171745 0.0172075 0.0172406 0.0172737 0.0173058
0.017324 0.0173422 0.0173604 0.0173786 0.0173969 0.0174486 0.0175005 0.0175525 0.0176045 0.0176567
0.0177095 0.0177623 0.0178152 0.0178682 0.0179214 0.0179751 0.0180289 0.0180828 0.0181368 0.018191
0.0182457 0.0183006 0.0183555 0.0184106 0.0184659 0.0185217 0.0185776 0.0186337 0.0186899 0.0187462
0.0188019 0.0188578 0.0189137 0.0189698 0.0190241 0.0190258 0.0190274 0.0190291 0.0190308 0.0190324
0.0190906 0.0191488 0.0192073 0.0192659 0.0193246 0.019384 0.0194435 0.0195032 0.019563 0.0196231
0.0196837 0.0197446 0.0198056 0.0198667 0.0199281 0.0199901 0.0200523 0.0201147 0.0201773 0.02024
0.0203035 0.0203672 0.020431 0.020495 0.0205593 0.0206116 0.0206642 0.0207168 0.0207696 0.0208212
0.0208342 0.0208472 0.0208602 0.0208732 0.0208863 0.0209528 0.0210195 0.0210865 0.0211536 0.021221
0.0212892 0.0213575 0.0214261 0.0214949 0.021564 0.0216339 0.021704 0.0217743 0.0218448 0.0219156
0.0219873 0.0220592 0.0221313 0.0222037 0.0222764 0.0223499 0.0224236 0.0224977 0.022572 0.0226466
0.0226663 0.022686 0.0227058 0.0227256 0.0227452 0.0228012 0.0228575 0.0229138 0.0229703 0.023027
0.0231045 0.0231823 0.0232604 0.0233388 0.0234175 0.0234971 0.023577 0.0236572 0.0237378 0.0238187
0.0239005 0.0239827 0.0240652 0.024148 0.0242312 0.0243154 0.0243999 0.0244847 0.0245699 0.0246555
0.0246884 0.0247213 0.0247543 0.0247873 0.02482 0.0248743 0.0249287 0.0249832 0.0250379 0.0250927
0.0251819 0.0252714 0.0253613 0.0254516 0.0255424 0.0256341 0.0257263 0.0258189 0.0259119 0.0260054
0.0261 0.026195 0.0262904 0.0263862 0.0264826 0.02658 0.026678 0.0267764 0.0268752 0.0269745
0.0269895 0.0270045 0.0270196 0.0270346 0.0270496 0.0271354 0.0272216 0.0273082 0.027395 0.0274823
0.027586 0.0276902 0.0277949 0.0279001 0.0280058 0.0281128 0.0282203 0.0283284 0.0284369 0.0285461
0.0286565 0.0287676 0.0288792 0.0289913 0.029104 0.0291679 0.029232 0.0292963 0.0293607 0.0294238
0.0294751 0.0295264 0.0295779 0.0296295 0.0296812 0.029799 0.0299175 0.0300366 0.0301563 0.0302767
0.0303984 0.0305208 0.0306439 0.0307676 0.0308919 0.0310177 0.0311442 0.0312714 0.0313992 0.0315278
0.0316083 0.0316891 0.0317702 0.0318515 0.031931 0.0319818 0.0320326 0.0320836 0.0321346 0.0321857
0.0323202 0.0324553 0.0325911 0.0327275 0.0328648 0.0330035 0.0331431 0.0332834 0.0334244 0.0335661
0.0337094 0.0338535 0.0339983 0.0341439 0.0342902 0.0343453 0.0344006 0.034456 0.0345115 0.0345665
0.0346603 0.0347544 0.0348488 0.0349435 0.0350384 0.0351911 0.0353446 0.0354988 0.0356537 0.0358093
0.0359667 0.0361249 0.0362839 0.0364436 0.036604 0.036748 0.0368926 0.0370378 0.0371836 0.037327
0.0373462 0.0373654 0.0373846 0.0374038 0.0374231 0.0375903 0.0377582 0.0379269 0.0380963 0.0382665
0.0384386 0.0386115 0.0387853 0.0389598 0.0391349 0.039312 0.03949 0.0396688 0.0398482 0.0400284
0.0400524 0.0400764 0.0401004 0.0401244 0.0401484 0.0403071 0.0404664 0.0406262 0.0407866 0.0409475
0.0411347 0.0413227 0.0415115 0.041701 0.0418912 0.0420833 0.0422763 0.04247 0.0426644 0.0428594
0.0429053 0.0429512 0.0429972 0.0430432 0.0430892 0.0432411 0.0433934 0.043546 0.0436991 0.0438525
0.0440543 0.0442568 0.0444601 0.044664 0.0448683 0.0450746 0.0452817 0.0454894 0.0456976 0.0459062
0.0459631 0.0460201 0.0460772 0.0461342 0.0461918 0.046346 0.0465005 0.0466552 0.0468102 0.0469653
0.04718 0.0473952 0.0476109 0.047827 0.048043 0.0482611 0.0484795 0.0486984 0.0489176 0.0491368
0.0492192 0.0493016 0.0493841 0.0494665 0.049551 0.0496898 0.0498286 0.0499675 0.0501065 0.0502454
0.05046 0.050675 0.0508905 0.0511061 0.0513212 0.0514897 0.0516582 0.0518267 0.0519951 0.0521726
0.0522254 0.0522782 0.052331 0.0523837 0.0524364 0.0526676 0.0528986 0.0531295 0.0533602 0.0535899
0.053799 0.0540079 0.0542166 0.0544248 0.0546521 0.0546772 0.0547024 0.0547275 0.0547526 0.0547778
0.0550228 0.0552673 0.0555111 0.0557542 0.0559958 0.0562461 0.0564956 0.0567442 0.0569917 0.0572374
0.0572463 0.0572552 0.0572641 0.057273 0.0572819 0.0575273 0.0577714 0.0580143 0.058256 0.0584958
0.0587527 0.0590082 0.0592621 0.0595143 0.0597642 0.0598399 0.0599153 0.0599907 0.0600658 0.0601457
0.0603251 0.0605036 0.0606811 0.0608577 0.0610331 0.0612909 0.0615465 0.0618001 0.0620515 0.0623003
0.0625073 0.0627129 0.0629168 0.0631192 0.0633645 0.0634029 0.0634413 0.0634796 0.0635179 0.0635561
0.0638098 0.064061 0.0643096 0.0645557 0.0647991 0.0650494 0.065297 0.0655419 0.0657842 0.0660238
0.06624 0.0664541 0.066666 0.0668758 0.067143 0.0671597 0.0671764 0.0671931 0.0672098 0.0672264
0.067468 0.0677068 0.0679428 0.068176 0.0684066 0.0686433 0.0688772 0.0691082 0.0693365 0.0695622
0.0697938 0.0700226 0.0702486 0.0704718 0.0706925 0.0709189 0.0711425 0.0713634 0.0715815 0.0717971
0.0718223 0.0718474 0.0718725 0.0718975 0.0719236 0.072118 0.0723102 0.0725004 0.0726885 0.0728746
0.0730907 0.0733041 0.0735148 0.0737229 0.0739285 0.0741394 0.0743475 0.0745529 0.0747557 0.0749565
0.0751626 0.0753663 0.0755675 0.0757661 0.0759619 0.0761624 0.0763599 0.0765547 0.0767474 0.0769383
0.077135 0.0773299 0.0775215 0.0777098 0.0778951 0.0780146 0.0781326 0.0782499 0.0783665 0.0784372
0.0785131 0.0785887 0.0786638 0.0787386 0.0788128 -9.99989e-06 -7.9999e-06 -5.99992e-06 -3.99994e-06 -1.99996e-06
0 2.96562e-05 5.93109e-05 8.89629e-05 0.000118612 0.000148256 0.00017863 0.000208998 0.000239361 0.000269717
0.000300065 0.000329193 0.000358312 0.000387425 0.000416529 0.000445626 0.000473553 0.000501472 0.000529384 0.00055729
0.000585189 0.000611966 0.000638738 0.000665503 0.000692262 0.000719016 0.000744694 0.000770368 0.000796036 0.000821699
0.000847357 0.000871985 0.000896608 0.000921227 0.000945841 0.00097045 0.000994072 0.00101769 0.0010413 0.00106492
0.00108852 0.00111118 0.00113384 0.00115649 0.00117914 0.00120179 0.00122353 0.00124526 0.001267 0.00128873
0.00131045 0.00133131 0.00135216 0.00137302 0.00139387 0.00141471 0.00143472 0.00145473 0.00147474 0.00149474
0.00151475 0.00153395 0.00155315 0.00157235 0.00159154 0.00161073 0.00162916 0.00164758 0.001666 0.00168442
0.00170284 0.00172052 0.0017382 0.00175588 0.00177355 0.00179123 0.0018082 0.00182516 0.00184213 0.00185909
0.00187605 0.00189233 0.00190861 0.00192489 0.00194117 0.00195745 0.00197308 0.00198871 0.00200433 0.00201996
0.00203558 0.00204601 0.00205644 0.00206687 0.0020773 0.00208773 0.00209824 0.00210875 0.00211926 0.00212976
0.00214027 0.00215086 0.00216145 0.00217204 0.00218263 0.00219322 0.00220389 0.00221456 0.00222523 0.0022359
0.00224657 0.00225732 0.00226807 0.00227882 0.00228957 0.00230033 0.00231116 0.00232199 0.00233283 0.00234366
0.00235449 0.00236541 0.00237633 0.00238724 0.00239816 0.00240908 0.00242008 0.00243108 0.00244208 0.00245308
0.00246408 0.00247516 0.00248625 0.00249733 0.00250842 0.0025195 0.00253067 0.00254184 0.00255301 0.00256418
0.00257535 0.00258661 0.00259787 0.00260912 0.00262038 0.00263164 0.00264298 0.00265432 0.00266566 0.00267701
0.00268835 0.00269978 0.00271121 0.00272264 0.00273407 0.0027455 0.00275702 0.00276854 0.00278006 0.00279157
0.00280309 0.0028147 0.00282631 0.00283791 0.00284952 0.00286113 0.00287282 0.00288452 0.00289622 0.00290791
0.00291961 0.00293139 0.00294318 0.00295497 0.00296675 0.00297854 0.00299042 0.00300229 0.00301417 0.00302605
0.00303792 0.00304989 0.00306186 0.00307383 0.0030858 0.00309777 0.00310983 0.00312189 0.00313395 0.00314601
0.00315807 0.00317023 0.00318238 0.00319453 0.00320669 0.00321884 0.00323109 0.00324334 0.00325558 0.00326783
0.00328008 0.00329242 0.00330476 0.00331711 0.00332945 0.00334179 0.00335423 0.00336667 0.0033791 0.00339154
0.00340398 0.00341651 0.00342905 0.00344158 0.00345412 0.00346665 0.00347928 0.00349192 0.00350455 0.00351718
0.00352981 0.00354254 0.00355527 0.003568 0.00358073 0.00359346 0.00360629 0.00361912 0.00363195 0.00364477
0.0036576 0.00366794 0.00367827 0.00368861 0.00369894 0.00370928 0.00371187 0.00371447 0.00371706 0.00371965
0.00372224 0.00373527 0.0037483 0.00376133 0.00377436 0.00378739 0.00380052 0.00381365 0.00382678 0.00383991
0.00385304 0.00386627 0.0038795 0.00389273 0.00390597 0.0039192 0.00393253 0.00394587 0.0039592 0.00397254
0.00398587 0.00399931 0.00401274 0.00402618 0.00403962 0.00405305 0.0040666 0.00408014 0.00409368 0.00410722
0.00412076 0.0041344 0.00414805 0.00416169 0.00417534 0.00418898 0.00420273 0.00421648 0.00423023 0.00424398
0.00425773 0.00427158 0.00428543 0.00429929 0.00431314 0.00432699 0.00434095 0.00435491 0.00436887 0.00438283
0.00439679 0.00441086 0.00442492 0.00443899 0.00445305 0.00446712 0.00448129 0.00449546 0.00450963 0.00452381
0.00453798 0.00455226 0.00456654 0.00458082 0.00459509 0.00460937 0.00462376 0.00463815 0.00465254 0.00466692
0.00468131 0.00469581 0.0047103 0.0047248 0.0047393 0.00475379 0.0047684 0.00478301 0.00479761 0.00481222
0.00482682 0.00484154 0.00485626 0.00487098 0.00488569 0.00490041 0.00491524 0.00493007 0.0049449 0.00495973
0.00497456 0.0049895 0.00500444 0.00501939 0.00503433 0.00504927 0.00506433 0.00507939 0.00509444 0.0051095
0.00512456 0.00513973 0.00515491 0.00517008 0.00518525 0.00520042 0.00521572 0.00523101 0.0052463 0.00526159
0.00527688 0.00529229 0.00530769 0.0053231 0.00533851 0.00535392 0.00536945 0.00538497 0.0054005 0.00541603
0.00543156 0.00544721 0.00546285 0.0054785 0.00549415 0.0055098 0.00552557 0.00554134 0.0055571 0.00557287
0.00558864 0.00560454 0.00562043 0.00563632 0.00565221 0.0056681 0.00568412 0.00570013 0.00571615 0.00573216
0.00574818 0.00576432 0.00578046 0.0057966 0.00581274 0.00582887 0.00584514 0.0058614 0.00587767 0.00589393
0.00591019 0.00591689 0.00592359 0.00593029 0.00593698 0.00594368 0.00595338 0.00596307 0.00597276 0.00598245
0.00599214 0.00600866 0.00602518 0.00604169 0.00605821 0.00607472 0.00609137 0.00610802 0.00612466 0.0061413
0.00615795 0.00617473 0.0061915 0.00620827 0.00622504 0.00624181 0.00625873 0.00627563 0.00629253 0.00630943
0.00632633 0.00634338 0.00636042 0.00637745 0.00639448 0.00641151 0.0064287 0.00644586 0.00646303 0.00648019
0.00649736 0.00651469 0.00653199 0.00654929 0.00656659 0.00658389 0.00660136 0.00661881 0.00663624 0.00665367
0.00667112 0.00668874 0.00670633 0.0067239 0.00674147 0.00675906 0.00677683 0.00679456 0.00681228 0.00682999
0.00684773 0.00686565 0.00688353 0.00690139 0.00691925 0.00693714 0.00695521 0.00697325 0.00699126 0.00700927
0.00702732 0.00704555 0.00706375 0.00708192 0.00710009 0.0071183 0.00713669 0.00715505 0.00717338 0.00719171
0.00721009 0.00722865 0.00724718 0.00726567 0.00728418 0.00730272 0.00732145 0.00734015 0.00735882 0.0073775
0.00739622 0.00741513 0.007434 0.00745286 0.00747172 0.00749062 0.00750971 0.00752877 0.00754782 0.00756687
0.00758595 0.00760524 0.00762448 0.00764373 0.00766298 0.00768225 0.00770173 0.00772117 0.00774061 0.00776007
0.00777954 0.00779922 0.00781886 0.00783852 0.00785819 0.00787787 0.00789775 0.00791761 0.00793748 0.00795737
0.00797727 0.00799736 0.00801744 0.00803753 0.00805764 0.00807777 0.00808392 0.00809008 0.00809623 0.00810239
0.00810848 0.00812265 0.00813683 0.00815102 0.00816521 0.00817941 0.00819995 0.00822049 0.00824105 0.00826162
0.00828222 0.008303 0.00832379 0.00834459 0.0083654 0.00838623 0.00840728 0.00842831 0.00844935 0.00847042
0.0084915 0.00851281 0.00853409 0.00855539 0.0085767 0.00859804 0.00861962 0.00864117 0.00866272 0.00868429
0.00870591 0.00872775 0.00874958 0.00877139 0.00879322 0.00881511 0.00883723 0.00885933 0.00888142 0.00890352
0.00892569 0.00894809 0.00897047 0.00899284 0.00901522 0.00903767 0.00906036 0.00908303 0.00910568 0.00912835
0.00915109 0.00917406 0.00919702 0.00921996 0.00924293 0.00926596 0.00928923 0.00931248 0.00933573 0.009359
0.00938232 0.00940589 0.00942944 0.009453 0.00947658 0.0095002 0.00952406 0.00954791 0.00957179 0.00959569
0.00961961 0.00964378 0.00966794 0.00969214 0.00971635 0.0097406 0.00976507 0.00978956 0.00981407 0.00983861
0.00986318 0.00986707 0.00987096 0.00987486 0.00987875 0.00988262 0.00990354 0.00992447 0.00994542 0.00996639
0.00998739 0.0100125 0.0100376 0.0100628 0.010088 0.0101132 0.0101387 0.0101642 0.0101897 0.0102152