/*--------------------------------*- C++ -*----------------------------------*\
  =========                 |
  \\      /  F ield         | OpenFOAM: The Open Source CFD Toolbox
   \\    /   O peration     | Website:  https://openfoam.org
    \\  /    A nd           | Version:  13
     \\/     M anipulation  |
\*---------------------------------------------------------------------------*/
FoamFile
{
    format      ascii;
    class       volScalarField;
    location    "2.5";
    object      epsilon;
}
// * * * * * * * * * * * * * * * * * * * * * * * * * * * * * * * * * * * * * //

dimensions      [0 2 -3 0 0 0 0];

internalField   nonuniform List<scalar> 
400
(
2.23963e-05
5.97674e-05
8.67164e-05
9.88795e-05
0.00010374
0.000111414
0.000146762
0.000256579
0.000470088
0.0007333
0.000960986
0.00114279
0.00130741
0.00146444
0.00154459
0.00157086
0.00149782
0.00112015
0.000622661
0.000380398
6.93367e-05
7.92315e-05
0.00011138
0.000133729
0.000152677
0.000189618
0.0002892
0.000476719
0.000701459
0.000890516
0.00104106
0.00119535
0.00137437
0.00158337
0.00181183
0.00203347
0.00214041
0.00214648
0.00177999
0.00126266
0.000155932
0.000131057
0.000173178
0.000215943
0.000261306
0.00033279
0.000461201
0.000640008
0.000816596
0.000963377
0.00109826
0.00124873
0.00142642
0.00163094
0.00186011
0.00210472
0.0023189
0.00241144
0.00233418
0.00202477
0.000240569
0.000182567
0.000227729
0.000284417
0.000348049
0.000435411
0.000564468
0.000718552
0.000856898
0.000975971
0.0010983
0.00123835
0.00140185
0.00159091
0.00181469
0.00207332
0.00235258
0.00251663
0.00255098
0.00245272
0.00031055
0.000223452
0.000266046
0.00032911
0.000401792
0.000492826
0.000608507
0.000731469
0.000846689
0.000954614
0.00106293
0.0011813
0.00132018
0.00149845
0.00173157
0.00202889
0.00237586
0.00265455
0.00276211
0.00281683
0.000360171
0.000250256
0.000286454
0.000348989
0.000420801
0.000503693
0.000602525
0.000713099
0.000811994
0.00089967
0.000985717
0.00108148
0.0012041
0.00137694
0.00163044
0.00199064
0.00244684
0.00283984
0.00299258
0.00310141
0.000389424
0.000263776
0.000290345
0.000347196
0.000415994
0.000493395
0.000578886
0.000667244
0.000747015
0.0008183
0.000888457
0.000966514
0.00107203
0.00123783
0.00151027
0.00193752
0.00253014
0.00309716
0.00330727
0.00335073
0.000401753
0.000267349
0.000286411
0.000338192
0.000400636
0.000467536
0.000534096
0.000601394
0.000666627
0.000725686
0.00078346
0.000847525
0.000938347
0.00109576
0.00138132
0.00186789
0.00259478
0.00337866
0.0036841
0.00355347
0.000398751
0.000265071
0.00027681
0.000320284
0.000374723
0.000432373
0.000486579
0.000536227
0.000584157
0.000630397
0.000678082
0.000732447
0.000812674
0.000962325
0.00125502
0.00178743
0.00263158
0.00366026
0.00414076
0.00372189
0.000390473
0.000259899
0.000264596
0.000300334
0.000347309
0.000397485
0.000443412
0.00048131
0.000513448
0.000544605
0.000580897
0.000627266
0.000700255
0.000843393
0.00113708
0.00170083
0.00264647
0.0039059
0.00462542
0.00384822
0.000375621
0.000253119
0.00025276
0.000281599
0.000321792
0.000365699
0.000406417
0.000438382
0.000461295
0.000479736
0.000502744
0.000539126
0.000604818
0.000740588
0.00102694
0.00160381
0.0026337
0.00410349
0.00513804
0.00393944
0.000361415
0.000246924
0.000242678
0.000265368
0.000299867
0.000338508
0.000375481
0.00040506
0.00042463
0.000436653
0.000449192
0.000474289
0.000529335
0.000652133
0.000920881
0.00148477
0.00255689
0.00420903
0.00563488
0.0039851
0.000347541
0.000241041
0.000234354
0.000252404
0.000282295
0.000316571
0.000350404
0.000378683
0.000397792
0.000407935
0.000415044
0.000431317
0.000473367
0.000577086
0.000816878
0.00134375
0.00242035
0.00424593
0.00608545
0.00400393
0.000333159
0.000234348
0.000227267
0.000242656
0.000269466
0.00030058
0.000331901
0.000359096
0.000378546
0.000389243
0.000394379
0.000404971
0.000435688
0.000518702
0.000721874
0.00119347
0.00222923
0.00420405
0.0063583
0.00400604
0.000322813
0.000226907
0.000223001
0.000239734
0.000266906
0.000297864
0.000329172
0.000357069
0.000378095
0.000390308
0.000396123
0.000404729
0.000428245
0.000494034
0.000666286
0.00109017
0.0020531
0.00408189
0.00646046
0.00398658
0.000322843
0.000220718
0.000224645
0.000245899
0.000276975
0.000311858
0.000347309
0.000379847
0.000406281
0.00042517
0.000437727
0.000450978
0.000478769
0.000543962
0.000699015
0.00108011
0.00198264
0.00402087
0.00631347
0.00397053
0.000336703
0.00022464
0.000243483
0.00028357
0.000334003
0.000389727
0.000447411
0.000503858
0.000555654
0.000602
0.000643218
0.000686789
0.000745177
0.000843539
0.0010276
0.00141478
0.00223346
0.00414654
0.005784
0.00391328
0.000381519
0.000264036
0.000352362
0.00047371
0.000611203
0.000759494
0.000913746
0.00107155
0.00122472
0.00137751
0.00152452
0.00168375
0.00185819
0.00208778
0.00238456
0.00288594
0.00360198
0.00509158
0.00548482
0.00385067
0.000477083
0.000428024
0.000844042
0.00136099
0.00187102
0.00238331
0.00288979
0.00340248
0.00388074
0.00436414
0.00480576
0.00527495
0.00572701
0.00623769
0.00674194
0.00736187
0.00725973
0.00680058
0.00566845
0.00370196
0.00038209
0.000557737
0.000909185
0.00125789
0.0015901
0.00189262
0.00218395
0.00244273
0.00271152
0.00292992
0.0031806
0.00335319
0.0035851
0.00371222
0.00391291
0.00399316
0.00406877
0.00405793
0.00395457
0.00349697
)
;

boundaryField
{
    movingWall
    {
        type            epsilonWallFunction;
        value           nonuniform List<scalar> 
20
(
0.00038209
0.000557737
0.000909185
0.00125789
0.0015901
0.00189262
0.00218395
0.00244273
0.00271152
0.00292992
0.0031806
0.00335319
0.0035851
0.00371222
0.00391291
0.00399316
0.00406877
0.00405793
0.00395457
0.00349697
)
;
    }
    fixedWalls
    {
        type            epsilonWallFunction;
        value           nonuniform List<scalar> 
60
(
2.23963e-05
6.93367e-05
0.000155932
0.000240569
0.00031055
0.000360171
0.000389424
0.000401753
0.000398751
0.000390473
0.000375621
0.000361415
0.000347541
0.000333159
0.000322813
0.000322843
0.000336703
0.000381519
0.000477083
0.00038209
0.000380398
0.00126266
0.00202477
0.00245272
0.00281683
0.00310141
0.00335073
0.00355347
0.00372189
0.00384822
0.00393944
0.0039851
0.00400393
0.00400604
0.00398658
0.00397053
0.00391328
0.00385067
0.00370196
0.00349697
2.23963e-05
5.97674e-05
8.67164e-05
9.88795e-05
0.00010374
0.000111414
0.000146762
0.000256579
0.000470088
0.0007333
0.000960986
0.00114279
0.00130741
0.00146444
0.00154459
0.00157086
0.00149782
0.00112015
0.000622661
0.000380398
)
;
    }
    frontAndBack
    {
        type            empty;
    }
}


// ************************************************************************* //
