/*--------------------------------*- C++ -*----------------------------------*\
  =========                 |
  \\      /  F ield         | OpenFOAM: The Open Source CFD Toolbox
   \\    /   O peration     | Website:  https://openfoam.org
    \\  /    A nd           | Version:  13
     \\/     M anipulation  |
\*---------------------------------------------------------------------------*/
FoamFile
{
    format      ascii;
    class       volScalarField;
    location    "2.5";
    object      epsilon;
}
// * * * * * * * * * * * * * * * * * * * * * * * * * * * * * * * * * * * * * //

dimensions      [0 2 -3 0 0 0 0];

internalField   nonuniform List<scalar> 
1600
(
1.56089e-05
7.13104e-05
0.000150068
0.000219926
0.000286185
0.00035002
0.000406248
0.000448432
0.000483288
0.000510515
0.000552058
0.00063618
0.000780494
0.000997206
0.00123577
0.00151472
0.0018374
0.00215545
0.00247354
0.00280205
0.00314512
0.00351465
0.00392064
0.00438085
0.00492709
0.00555771
0.00609752
0.00663082
0.00703968
0.00727343
0.00735725
0.00710381
0.00642254
0.00529444
0.00375886
0.0021272
0.000923008
0.000345228
0.00010141
1.93678e-05
7.64797e-05
7.21379e-05
0.00010222
0.000149481
0.000208797
0.000283169
0.000379744
0.000506609
0.000669512
0.00087966
0.00117228
0.00165004
0.00233905
0.00280591
0.00297592
0.00303764
0.00306546
0.0030781
0.00310235
0.00314945
0.00322855
0.00334487
0.00347842
0.00363883
0.00383522
0.00407061
0.00433203
0.00461206
0.0048957
0.00511549
0.00521644
0.00522259
0.00490736
0.00424945
0.00314871
0.00190007
0.000824344
0.000325494
0.000109713
5.76392e-05
0.000193952
0.000142471
0.000178939
0.000255438
0.000370096
0.000534215
0.000767856
0.00110709
0.00159706
0.00224266
0.00280939
0.00301744
0.00303095
0.00288913
0.00281902
0.00273706
0.00261536
0.00252762
0.0024748
0.00245371
0.00245169
0.00249147
0.00256904
0.00268509
0.00282113
0.00298657
0.00317902
0.0033997
0.0036482
0.0039143
0.00417912
0.00434404
0.00439853
0.00415957
0.00361313
0.0025313
0.00104753
0.000320923
0.000108383
7.6667e-05
0.000373261
0.000248191
0.000310482
0.000443969
0.000653152
0.000961293
0.00139666
0.00196087
0.00256728
0.00288695
0.00296527
0.00289987
0.00272606
0.00246474
0.00226357
0.0021096
0.00201888
0.00197416
0.00195755
0.00195701
0.00199307
0.00204869
0.00212392
0.002215
0.00232144
0.00244389
0.00258392
0.00274308
0.00292182
0.00311852
0.00333219
0.00354415
0.00376089
0.00387111
0.00383999
0.00344687
0.00192727
0.000471907
0.000118538
7.23866e-05
0.000641573
0.000399624
0.000499147
0.000714277
0.00104309
0.00149589
0.00204953
0.00257243
0.00280484
0.00284517
0.00273531
0.00243453
0.0021268
0.00194057
0.00180336
0.00172957
0.00169702
0.00168799
0.00170002
0.0017396
0.00179367
0.00186034
0.00193654
0.00202239
0.0021192
0.00222872
0.00235427
0.00249852
0.00266161
0.00284107
0.00303572
0.00323146
0.00342668
0.00363631
0.00380826
0.00384495
0.00332756
0.00107075
0.000192614
7.82304e-05
0.00098478
0.00059655
0.000742311
0.00104778
0.00148001
0.00200235
0.00249105
0.00270655
0.00273847
0.00258903
0.00223464
0.0019356
0.00173138
0.00161146
0.00154986
0.00152593
0.00152195
0.00154483
0.00158667
0.00164161
0.00170476
0.0017756
0.00185338
0.00193944
0.00203578
0.00214529
0.00227236
0.00242081
0.00259365
0.0027881
0.00298622
0.00318142
0.00336298
0.00354321
0.00374645
0.00387602
0.00387762
0.00244778
0.000437044
0.000110242
0.00137383
0.000829071
0.00102069
0.00140249
0.00188725
0.00237688
0.00261835
0.00265876
0.00250825
0.00214877
0.0018271
0.00161039
0.00148584
0.00142717
0.00140521
0.00140201
0.0014228
0.00146069
0.00150742
0.0015609
0.00162004
0.00168563
0.00175892
0.00184262
0.00194017
0.00205616
0.00219604
0.00236475
0.00256537
0.00279631
0.00305195
0.0033075
0.00350582
0.00365366
0.00376935
0.00391844
0.00398558
0.00354768
0.000968014
0.000198456
0.00178058
0.00107784
0.00130408
0.00173432
0.00221934
0.00252928
0.00260536
0.00250449
0.002164
0.00180345
0.00155108
0.00140717
0.00133846
0.00131119
0.00130479
0.00131443
0.00134205
0.00137531
0.0014127
0.0014541
0.00150045
0.0015538
0.00161678
0.00169299
0.00178702
0.00190475
0.00205343
0.00224094
0.00247415
0.00275514
0.00307574
0.00342482
0.00376287
0.00397235
0.00407687
0.00412528
0.00414597
0.00393028
0.00190171
0.000395672
0.00216885
0.00131992
0.00156201
0.00201057
0.00241633
0.00256571
0.00253893
0.00226137
0.00187192
0.00155761
0.00136992
0.00127793
0.0012372
0.0012232
0.00122133
0.00123288
0.00125232
0.0012723
0.00129449
0.00131997
0.001351
0.00139038
0.00144127
0.00150757
0.00159421
0.00170775
0.00185684
0.00205217
0.00230551
0.00262654
0.00301606
0.00345551
0.00392118
0.00429123
0.00445931
0.00451266
0.0045022
0.00431186
0.0032926
0.000978719
0.00251501
0.00153451
0.00177167
0.00220555
0.00249453
0.00255138
0.0024025
0.00203082
0.00164784
0.00138647
0.00124948
0.00118444
0.0011558
0.00114505
0.00114248
0.00114568
0.00115172
0.00115651
0.00116322
0.00117373
0.00119098
0.00121801
0.00125781
0.00131398
0.00139122
0.00149615
0.00163809
0.00182979
0.00208736
0.00242831
0.00286578
0.00339614
0.00397994
0.00457998
0.00488115
0.00497578
0.00494401
0.00468425
0.00415677
0.00195922
0.00278786
0.00170523
0.00191792
0.00231283
0.00250209
0.00250399
0.00224504
0.00183835
0.0014831
0.0012673
0.00116084
0.0011088
0.00108346
0.00107061
0.00106205
0.00105477
0.00104687
0.00103794
0.00103272
0.00103138
0.0010375
0.00105475
0.00108545
0.00113252
0.00120013
0.00129443
0.00142471
0.00160463
0.00185329
0.00219504
0.00265575
0.00325223
0.00397048
0.00473686
0.00531359
0.00551544
0.0055156
0.0051764
0.00462378
0.00302968
0.00297414
0.00182445
0.00200139
0.00234083
0.00247889
0.0024142
0.00209813
0.00168612
0.00136252
0.00117959
0.00108944
0.0010434
0.00101783
0.00100007
0.000983386
0.000965436
0.000945954
0.000926568
0.000910732
0.000902921
0.000901331
0.00091067
0.000934275
0.000973754
0.00103262
0.00111629
0.0012334
0.00139749
0.00162899
0.0019568
0.00241719
0.00304559
0.00385445
0.00479327
0.00569788
0.00609876
0.00614258
0.00576065
0.00526572
0.00406298
0.00307055
0.00189149
0.00202008
0.00231888
0.00242084
0.00231229
0.00197133
0.00156937
0.00127351
0.00111123
0.00103001
0.000985905
0.000957777
0.000934225
0.000909755
0.000882998
0.000854912
0.000828
0.000805453
0.00079165
0.000786582
0.000789803
0.000807866
0.000841276
0.000892788
0.000966985
0.00107151
0.00121905
0.00142999
0.00173571
0.00218074
0.00281897
0.0036945
0.00479544
0.00598838
0.00670755
0.00685748
0.00640721
0.00570961
0.00498733
0.00305481
0.00190148
0.00200091
0.00225981
0.00233556
0.00220937
0.00186587
0.00148189
0.00120766
0.00105717
0.00097976
0.0009352
0.00090371
0.000874894
0.000844195
0.000811086
0.000777283
0.000745521
0.000718757
0.000700569
0.000692919
0.000692611
0.000706258
0.000734887
0.000780519
0.000846893
0.000940514
0.00107271
0.00126279
0.00154253
0.00196131
0.00258755
0.00349574
0.00472082
0.00617248
0.00730164
0.00763922
0.00717482
0.00634613
0.00591912
0.00299644
0.00188677
0.0019484
0.00216796
0.00223562
0.00211032
0.00178084
0.0014181
0.00115931
0.00101419
0.000937353
0.000891103
0.000856368
0.000823466
0.000788482
0.000751448
0.000714345
0.000679886
0.000650793
0.000629602
0.000619557
0.000617604
0.000627802
0.000652685
0.000693768
0.000754048
0.000838864
0.000957975
0.00112897
0.00138261
0.0017704
0.00237137
0.00328726
0.00460117
0.00627453
0.00786146
0.00846881
0.00799689
0.00698515
0.00680784
0.0028725
0.00184603
0.00186352
0.00205866
0.00212653
0.00201647
0.00171372
0.00137461
0.00112669
0.0009818
0.000902481
0.000853674
0.000816171
0.000780526
0.000743177
0.000704293
0.000665827
0.000630325
0.000600228
0.000577553
0.000565621
0.000562471
0.000570192
0.00059217
0.00062983
0.000685605
0.000763723
0.000872293
0.00102688
0.00125623
0.00161183
0.00217945
0.00308398
0.00445678
0.006319
0.00836052
0.00933716
0.0089826
0.00769522
0.00772116
0.0026958
0.00177866
0.00176486
0.00193869
0.00201255
0.00192726
0.00166071
0.0013467
0.00110516
0.000957992
0.000875157
0.000823119
0.000783195
0.000745984
0.00070785
0.000668776
0.000630497
0.000595291
0.000565307
0.000542307
0.000529052
0.000524943
0.000530943
0.000550729
0.00058593
0.000638598
0.000711923
0.00081235
0.000953386
0.0011612
0.00148567
0.00201576
0.00289459
0.0043019
0.00633463
0.00877331
0.0102185
0.0100431
0.00844925
0.00862061
0.00248793
0.00169759
0.00165991
0.00181265
0.00189649
0.00184139
0.00161808
0.00133341
0.00110057
0.000946104
0.000854991
0.000799205
0.000757234
0.000719272
0.00068146
0.000643411
0.000606489
0.000572637
0.000543719
0.000521293
0.000507489
0.000502844
0.000508293
0.00052707
0.000561175
0.000612338
0.00068257
0.00077631
0.000904871
0.00109413
0.00138979
0.00188113
0.0027242
0.00414298
0.00632445
0.00911948
0.0111221
0.0111959
0.00932629
0.00955259
0.00226522
0.00161469
0.00155367
0.00168516
0.00178067
0.00175736
0.00158122
0.00133058
0.00110522
0.000947337
0.000847032
0.000782715
0.000737678
0.000699354
0.000662587
0.000626385
0.000591653
0.000559954
0.000532837
0.000511678
0.000498083
0.000493473
0.000499163
0.000517584
0.000551377
0.000601949
0.00067052
0.000760123
0.000879612
0.00105082
0.00132059
0.00177386
0.00257444
0.00398285
0.00627174
0.009395
0.0120309
0.0124117
0.0102824
0.0104837
0.00207443
0.0015366
0.00145072
0.00155994
0.00166534
0.0016726
0.00154696
0.00133316
0.00111876
0.000956279
0.000849544
0.000778974
0.000727546
0.000686689
0.000650463
0.00061634
0.000584316
0.000555358
0.000530432
0.000510764
0.000497854
0.000493621
0.000499101
0.000516922
0.000550688
0.000601074
0.000668862
0.000756256
0.00087059
0.00102843
0.00127364
0.00169051
0.00244535
0.00382879
0.00619906
0.00962529
0.012914
0.013717
0.0113601
0.0114472
0.00189296
0.0014629
0.00135523
0.00144055
0.00154987
0.00158508
0.00150922
0.00133937
0.00114414
0.000978296
0.000860923
0.000783167
0.000728128
0.000684851
0.000647775
0.000614566
0.000584241
0.000556664
0.000533177
0.000515064
0.000503949
0.000501794
0.000508162
0.000526907
0.000562134
0.000613479
0.00068086
0.000765174
0.000872454
0.00102035
0.00124364
0.00162628
0.00233386
0.00367935
0.00610394
0.00981137
0.0137663
0.0150961
0.01254
0.0124151
0.0017155
0.00139286
0.00126753
0.0013288
0.00143649
0.00149525
0.00146153
0.00134346
0.00117537
0.00101521
0.00088779
0.000797906
0.000735792
0.000689105
0.000650829
0.00061757
0.000587996
0.000562192
0.000540891
0.000525158
0.000516484
0.000516859
0.000524894
0.000545966
0.000583387
0.000636066
0.000703234
0.000784903
0.000885825
0.00102119
0.00122602
0.0015767
0.00223625
0.00353243
0.00598487
0.00995386
0.0145735
0.0165487
0.0138579
0.0134087
0.00154324
0.00132397
0.00118712
0.00122672
0.00132604
0.00140282
0.00140504
0.00133938
0.00120882
0.00106229
0.000932836
0.000831398
0.000757115
0.000703573
0.000661941
0.000627568
0.000598437
0.000574278
0.000555146
0.000541665
0.000535901
0.00053845
0.000549275
0.000573577
0.000612994
0.00066642
0.000732586
0.000811007
0.00090564
0.00103016
0.00121679
0.00153715
0.00214911
0.00338671
0.0058402
0.0100381
0.0153189
0.0180488
0.0153194
0.0144052
0.00137977
0.00125455
0.00111331
0.00113473
0.00122001
0.00130742
0.0013424
0.00131751
0.00123389
0.00111171
0.000990455
0.000885355
0.000801637
0.00073708
0.000688188
0.000650254
0.000620235
0.00059649
0.000578533
0.000566932
0.000564168
0.000568583
0.000582017
0.000609181
0.000649426
0.000702059
0.000765633
0.000839574
0.00092741
0.00104153
0.001211
0.00150282
0.00206834
0.00324008
0.00566722
0.0100698
0.015993
0.019571
0.0169468
0.015416
0.00122853
0.00118444
0.00104466
0.00105183
0.00112029
0.00121111
0.00127097
0.0012769
0.00123673
0.00115623
0.0010536
0.000953363
0.000866078
0.000794587
0.000738096
0.000694073
0.000660046
0.000634256
0.00061583
0.000604822
0.000603732
0.000609135
0.000623851
0.000651436
0.000690295
0.000739775
0.000798657
0.000866612
0.000947057
0.00105046
0.00120453
0.00146971
0.00198927
0.00308889
0.0054603
0.0100396
0.0165861
0.0210968
0.0187405
0.016422
0.00109333
0.00110791
0.000984155
0.000977082
0.0010286
0.0011165
0.00119116
0.00122841
0.0012234
0.00118283
0.00110881
0.00102499
0.00094309
0.000870218
0.000809001
0.00075945
0.000720506
0.000690994
0.000670075
0.000657477
0.000655082
0.000659842
0.000672987
0.000697535
0.000731915
0.000775535
0.000827633
0.000888129
0.00095988
0.00105413
0.00119464
0.00143484
0.0019089
0.00293047
0.00521629
0.00989411
0.0170629
0.0226182
0.0206835
0.0174249
0.000975778
0.00103129
0.000925418
0.000908206
0.000946379
0.001026
0.00110687
0.00116572
0.00119086
0.00117994
0.00114612
0.00108601
0.00101891
0.000952598
0.000892179
0.000840145
0.000797264
0.000763464
0.00073841
0.000721906
0.000714561
0.000716471
0.000724697
0.000742303
0.000769356
0.000804899
0.000847852
0.000899397
0.000964588
0.00105163
0.00117955
0.00139654
0.00182568
0.002764
0.00493814
0.00964036
0.0173451
0.0240844
0.022772
0.018406
0.000875735
0.000954349
0.000867462
0.000844756
0.000873321
0.000941665
0.00102234
0.00109315
0.0011413
0.00116159
0.00115036
0.00112377
0.00107787
0.00102534
0.000972073
0.000922161
0.000877998
0.000840795
0.000811062
0.000789036
0.000774917
0.000769311
0.000771603
0.000780218
0.000797648
0.000822687
0.000856624
0.000901857
0.000961019
0.00104104
0.00115854
0.0013548
0.00174004
0.00259023
0.00462294
0.00926965
0.01745
0.0254505
0.0249836
0.0193637
0.000792266
0.000877206
0.000809441
0.000785906
0.000808011
0.000865559
0.000941662
0.00101661
0.00107842
0.00112002
0.0011372
0.00112875
0.00110862
0.0010738
0.00103235
0.000988837
0.000946632
0.000908008
0.00087439
0.000846673
0.000825475
0.000811201
0.000804327
0.000805521
0.000812525
0.000828501
0.000855264
0.000893991
0.000947961
0.00102317
0.001133
0.00131159
0.00165483
0.00241362
0.00427499
0.00876701
0.0173469
0.0266488
0.0272744
0.0202822
0.000723662
0.000800159
0.000750652
0.000730671
0.000749345
0.000798559
0.000868093
0.000941797
0.00100938
0.00106328
0.00110015
0.00111488
0.00110834
0.00109121
0.0010628
0.00102803
0.000990315
0.000952499
0.000916737
0.000884657
0.000857396
0.000835912
0.000820933
0.000813668
0.00081533
0.000823892
0.000843459
0.000877566
0.000928485
0.0010013
0.00110654
0.00127118
0.00157557
0.00224295
0.00391037
0.00814383
0.0168699
0.0275629
0.0296059
0.0211607
0.000668449
0.000724225
0.000690881
0.000678142
0.000696395
0.000740836
0.000803934
0.000873561
0.000941363
0.00100042
0.00104608
0.00107611
0.00108788
0.00108205
0.00106465
0.00103704
0.00100444
0.000969084
0.000933269
0.000899039
0.000868112
0.000841972
0.000821951
0.000809209
0.000806477
0.000811457
0.000826791
0.000858394
0.000909047
0.000983034
0.00108842
0.00124494
0.00151403
0.00209108
0.00355146
0.00744126
0.0160907
0.0281196
0.031893
0.0219904
0.000624856
0.000650481
0.000629856
0.000627598
0.00064843
0.000692365
0.000750773
0.000815675
0.000880597
0.000939776
0.000988625
0.00102416
0.00104465
0.00104969
0.00104362
0.00102601
0.00099791
0.000965182
0.000930578
0.000896409
0.000864591
0.000836805
0.000814633
0.000799697
0.000795481
0.00079998
0.000815205
0.000847749
0.000900624
0.000977575
0.00108549
0.00123957
0.00148764
0.00199395
0.00323635
0.00671464
0.0151047
0.0283769
0.0340187
0.0227806
0.000592936
0.000580799
0.000568739
0.000578148
0.000606786
0.000653285
0.000709976
0.000771488
0.000832916
0.000889726
0.00093803
0.000974998
0.000998941
0.00100885
0.00100605
0.000995721
0.000975075
0.000947816
0.00091752
0.000886672
0.000857551
0.000832276
0.000812481
0.00080021
0.0007987
0.000805069
0.000823703
0.000861318
0.000919859
0.00100429
0.00112112
0.00128176
0.00151871
0.00197134
0.00307258
0.00611427
0.0139778
0.0284604
0.0358155
0.0235471
0.000582986
0.000515424
0.000509564
0.000531216
0.000572167
0.000625582
0.00068652
0.000748877
0.000809017
0.00086388
0.00091079
0.000947618
0.000973031
0.00098649
0.000987386
0.000981452
0.000967554
0.000947154
0.00092285
0.000897639
0.000874203
0.000855032
0.000841759
0.000837552
0.000842465
0.000857677
0.000888638
0.000937621
0.00100912
0.00110988
0.00124724
0.00143267
0.00168858
0.00211979
0.00310337
0.00586712
0.0133126
0.028484
0.0369636
0.0243561
0.000600451
0.000456818
0.000453671
0.000492866
0.000556229
0.000625437
0.000693068
0.000759304
0.000821774
0.000878231
0.000926712
0.000965637
0.000994078
0.00101183
0.00101894
0.0010179
0.00101239
0.00100135
0.00098853
0.00097635
0.000967078
0.000964072
0.000967377
0.000979364
0.00100477
0.00104381
0.00110017
0.00117819
0.00128368
0.00142447
0.00161068
0.00186206
0.00219603
0.00269724
0.00370434
0.00626569
0.0131869
0.0287499
0.0374762
0.0252682
0.000659305
0.00041109
0.000421594
0.00049433
0.000577506
0.00066466
0.000751019
0.000833215
0.000909615
0.000979042
0.0010406
0.00109341
0.00113714
0.00117209
0.00119908
0.00121946
0.00123692
0.00125278
0.00126969
0.00129029
0.00131735
0.00135418
0.00140255
0.00146551
0.00154756
0.00165145
0.00178257
0.00194744
0.00215455
0.00241908
0.00275415
0.00319252
0.00374715
0.00457669
0.00585558
0.00864097
0.0151805
0.030244
0.0376702
0.0257696
0.000755235
0.00041512
0.000460304
0.000585189
0.000729813
0.000878588
0.00102636
0.00116902
0.00130509
0.0014342
0.00155598
0.0016706
0.00177906
0.00188265
0.00198344
0.00208348
0.00218664
0.00229652
0.00241712
0.00255231
0.00270735
0.00288654
0.00309565
0.00333903
0.00362535
0.00395952
0.00435283
0.00481515
0.00536021
0.00601702
0.00678971
0.00778051
0.00889153
0.0105067
0.0124389
0.0159439
0.0219246
0.0346128
0.038372
0.0259936
0.000994809
0.000531763
0.000795576
0.00118623
0.001598
0.002019
0.00244726
0.00287673
0.00330343
0.00372584
0.00414373
0.0045596
0.00497875
0.00540504
0.00584511
0.00630326
0.00678821
0.00730492
0.00786563
0.00847373
0.00914434
0.00987745
0.0106925
0.0115831
0.0125766
0.0136591
0.0148681
0.0161824
0.017646
0.0192576
0.0210127
0.0230641
0.0251262
0.0279855
0.0308669
0.0353831
0.0394006
0.0441566
0.0413423
0.0257279
0.00163498
0.00125908
0.00298546
0.00513653
0.00711704
0.00902496
0.0109221
0.0128012
0.0146433
0.0164347
0.0181823
0.0198929
0.0215913
0.0232846
0.024999
0.026733
0.0285196
0.0303451
0.0322547
0.034218
0.0362942
0.0384244
0.040693
0.0429975
0.045463
0.0479247
0.0505754
0.0531631
0.0559694
0.0586483
0.0615183
0.0642569
0.0670178
0.0699168
0.071317
0.0699793
0.0650666
0.0536924
0.0437654
0.0237853
0.00112031
0.00202855
0.00330538
0.00463569
0.00589474
0.00703221
0.00806376
0.00901108
0.00989385
0.0107167
0.0114915
0.0122165
0.0129052
0.0135533
0.0141795
0.0147736
0.0153603
0.0159215
0.0164903
0.017039
0.0176112
0.0181667
0.0187619
0.0193414
0.019977
0.0205949
0.0212839
0.0219503
0.0226976
0.0234122
0.0241982
0.0249225
0.0256595
0.0263102
0.0268869
0.0275884
0.0278
0.027442
0.0261404
0.021516
)
;

boundaryField
{
    movingWall
    {
        type            epsilonWallFunction;
        value           nonuniform List<scalar> 
40
(
0.00112031
0.00202855
0.00330538
0.00463569
0.00589474
0.00703221
0.00806376
0.00901108
0.00989385
0.0107167
0.0114915
0.0122165
0.0129052
0.0135533
0.0141795
0.0147736
0.0153603
0.0159215
0.0164903
0.017039
0.0176112
0.0181667
0.0187619
0.0193414
0.019977
0.0205949
0.0212839
0.0219503
0.0226976
0.0234122
0.0241982
0.0249225
0.0256595
0.0263102
0.0268869
0.0275884
0.0278
0.027442
0.0261404
0.021516
)
;
    }
    fixedWalls
    {
        type            epsilonWallFunction;
        value           nonuniform List<scalar> 
120
(
1.56089e-05
7.64797e-05
0.000193952
0.000373261
0.000641573
0.00098478
0.00137383
0.00178058
0.00216885
0.00251501
0.00278786
0.00297414
0.00307055
0.00305481
0.00299644
0.0028725
0.0026958
0.00248793
0.00226522
0.00207443
0.00189296
0.0017155
0.00154324
0.00137977
0.00122853
0.00109333
0.000975778
0.000875735
0.000792266
0.000723662
0.000668449
0.000624856
0.000592936
0.000582986
0.000600451
0.000659305
0.000755235
0.000994809
0.00163498
0.00112031
1.93678e-05
5.76392e-05
7.6667e-05
7.23866e-05
7.82304e-05
0.000110242
0.000198456
0.000395672
0.000978719
0.00195922
0.00302968
0.00406298
0.00498733
0.00591912
0.00680784
0.00772116
0.00862061
0.00955259
0.0104837
0.0114472
0.0124151
0.0134087
0.0144052
0.015416
0.016422
0.0174249
0.018406
0.0193637
0.0202822
0.0211607
0.0219904
0.0227806
0.0235471
0.0243561
0.0252682
0.0257696
0.0259936
0.0257279
0.0237853
0.021516
1.56089e-05
7.13104e-05
0.000150068
0.000219926
0.000286185
0.00035002
0.000406248
0.000448432
0.000483288
0.000510515
0.000552058
0.00063618
0.000780494
0.000997206
0.00123577
0.00151472
0.0018374
0.00215545
0.00247354
0.00280205
0.00314512
0.00351465
0.00392064
0.00438085
0.00492709
0.00555771
0.00609752
0.00663082
0.00703968
0.00727343
0.00735725
0.00710381
0.00642254
0.00529444
0.00375886
0.0021272
0.000923008
0.000345228
0.00010141
1.93678e-05
)
;
    }
    frontAndBack
    {
        type            empty;
    }
}


// ************************************************************************* //
