/*--------------------------------*- C++ -*----------------------------------*\
  =========                 |
  \\      /  F ield         | OpenFOAM: The Open Source CFD Toolbox
   \\    /   O peration     | Website:  https://openfoam.org
    \\  /    A nd           | Version:  13
     \\/     M anipulation  |
\*---------------------------------------------------------------------------*/
FoamFile
{
    format      ascii;
    class       volScalarField;
    location    "2.5";
    object      nut;
}
// * * * * * * * * * * * * * * * * * * * * * * * * * * * * * * * * * * * * * //

dimensions      [0 2 -1 0 0 0 0];

internalField   nonuniform List<scalar> 
1600
(
8.63224e-09
3.94115e-08
8.30081e-08
1.21471e-07
1.5776e-07
1.92596e-07
2.23127e-07
2.45918e-07
2.64511e-07
2.78755e-07
3.01538e-07
3.48877e-07
4.30439e-07
5.51217e-07
6.81163e-07
8.34013e-07
1.01086e-06
1.18444e-06
1.3588e-06
1.53875e-06
1.72699e-06
1.92977e-06
2.15271e-06
2.40548e-06
2.7057e-06
3.05121e-06
3.34788e-06
3.64071e-06
3.86571e-06
3.99443e-06
4.04065e-06
3.9036e-06
3.53047e-06
2.91334e-06
2.07184e-06
1.17571e-06
5.11497e-07
1.91785e-07
5.6359e-08
1.07578e-08
4.22542e-08
2.15454e-06
5.90039e-06
7.91801e-06
9.05619e-06
9.64398e-06
9.68645e-06
9.20998e-06
8.22044e-06
7.10857e-06
6.48014e-06
6.41425e-06
6.82987e-06
8.23412e-06
9.41553e-06
1.07734e-05
1.25913e-05
1.44149e-05
1.62911e-05
1.81547e-05
1.99701e-05
2.16963e-05
2.34091e-05
2.49364e-05
2.6075e-05
2.68134e-05
2.7635e-05
2.81664e-05
2.8453e-05
2.81629e-05
2.79142e-05
2.6253e-05
2.38597e-05
2.0548e-05
1.60693e-05
1.12056e-05
5.97763e-06
2.47901e-06
8.32448e-07
3.17939e-08
1.07113e-07
5.90515e-06
1.41841e-05
1.79197e-05
1.92108e-05
1.93429e-05
1.89104e-05
1.80601e-05
1.69087e-05
1.58709e-05
1.5954e-05
1.6356e-05
1.67182e-05
1.76869e-05
1.88036e-05
2.09035e-05
2.34997e-05
2.6051e-05
2.85619e-05
3.09707e-05
3.33731e-05
3.53427e-05
3.68621e-05
3.78835e-05
3.86704e-05
3.91428e-05
3.93451e-05
3.91274e-05
3.84417e-05
3.68039e-05
3.47698e-05
3.21588e-05
2.80682e-05
2.36884e-05
1.79811e-05
1.21877e-05
7.00852e-06
3.59949e-06
1.5521e-06
4.18877e-08
2.06234e-07
1.01615e-05
2.07553e-05
2.46783e-05
2.54631e-05
2.50105e-05
2.4086e-05
2.30217e-05
2.21038e-05
2.17537e-05
2.16707e-05
2.11509e-05
2.19969e-05
2.42843e-05
2.75432e-05
3.09751e-05
3.40297e-05
3.67431e-05
3.92752e-05
4.1628e-05
4.32683e-05
4.45327e-05
4.53578e-05
4.58062e-05
4.59458e-05
4.57599e-05
4.52204e-05
4.42558e-05
4.28089e-05
4.07216e-05
3.82951e-05
3.51226e-05
3.08784e-05
2.60586e-05
2.03953e-05
1.35136e-05
6.98368e-06
3.24315e-06
1.40501e-06
3.94067e-08
3.54738e-07
1.42416e-05
2.65299e-05
3.00996e-05
3.02995e-05
2.94493e-05
2.83413e-05
2.68814e-05
2.61403e-05
2.55089e-05
2.4303e-05
2.61886e-05
2.9562e-05
3.25185e-05
3.65396e-05
3.97338e-05
4.27514e-05
4.54969e-05
4.79173e-05
4.96408e-05
5.09626e-05
5.1831e-05
5.22856e-05
5.23444e-05
5.19679e-05
5.12097e-05
5.00556e-05
4.85187e-05
4.65387e-05
4.4034e-05
4.12996e-05
3.79467e-05
3.38351e-05
2.91865e-05
2.40429e-05
1.78851e-05
9.77999e-06
3.53533e-06
1.15855e-06
4.26559e-08
5.4581e-07
1.8268e-05
3.17801e-05
3.48923e-05
3.45496e-05
3.32542e-05
3.11383e-05
3.00313e-05
2.88042e-05
2.75209e-05
2.95203e-05
3.30528e-05
3.67265e-05
4.0326e-05
4.40572e-05
4.71803e-05
5.04422e-05
5.30366e-05
5.51556e-05
5.67984e-05
5.80566e-05
5.88889e-05
5.93372e-05
5.94152e-05
5.91199e-05
5.84523e-05
5.7412e-05
5.59536e-05
5.39674e-05
5.12426e-05
4.82138e-05
4.49045e-05
4.03966e-05
3.44666e-05
2.75352e-05
2.09589e-05
1.36479e-05
4.84832e-06
1.26475e-06
6.0378e-08
7.63044e-07
2.20994e-05
3.65528e-05
3.92428e-05
3.83692e-05
3.5694e-05
3.40383e-05
3.2647e-05
3.08046e-05
3.19499e-05
3.5574e-05
3.96869e-05
4.31622e-05
4.69109e-05
5.052e-05
5.40122e-05
5.70888e-05
5.95345e-05
6.16255e-05
6.32859e-05
6.45407e-05
6.53546e-05
6.57244e-05
6.56429e-05
6.51687e-05
6.43755e-05
6.3314e-05
6.20231e-05
6.04452e-05
5.82955e-05
5.47843e-05
5.09648e-05
4.73592e-05
4.22907e-05
3.50082e-05
2.56323e-05
1.64961e-05
8.33251e-06
1.81132e-06
1.08937e-07
9.90415e-07
2.55565e-05
4.0802e-05
4.31766e-05
4.10275e-05
3.84676e-05
3.70095e-05
3.43365e-05
3.42386e-05
3.71118e-05
4.14767e-05
4.53486e-05
4.87151e-05
5.26268e-05
5.64067e-05
5.99259e-05
6.27983e-05
6.52849e-05
6.74112e-05
6.91668e-05
7.05244e-05
7.14319e-05
7.18492e-05
7.1733e-05
7.11478e-05
7.01215e-05
6.87173e-05
6.704e-05
6.52498e-05
6.34276e-05
6.1045e-05
5.66809e-05
5.20055e-05
4.78686e-05
4.19128e-05
3.29609e-05
2.15549e-05
1.04219e-05
2.26484e-06
2.17336e-07
1.20823e-06
2.84812e-05
4.45006e-05
4.63765e-05
4.34682e-05
4.16908e-05
3.89288e-05
3.71461e-05
3.80662e-05
4.22063e-05
4.66912e-05
4.99826e-05
5.36161e-05
5.76374e-05
6.14914e-05
6.48335e-05
6.77343e-05
7.04645e-05
7.29248e-05
7.49202e-05
7.642e-05
7.73859e-05
7.78274e-05
7.77874e-05
7.72032e-05
7.60926e-05
7.45108e-05
7.25445e-05
7.02834e-05
6.78492e-05
6.55535e-05
6.26541e-05
5.72977e-05
5.26291e-05
4.77709e-05
3.96278e-05
2.79473e-05
1.53467e-05
3.82187e-06
5.37626e-07
1.40252e-06
3.07395e-05
4.77296e-05
4.87891e-05
4.629e-05
4.42683e-05
4.09246e-05
3.99036e-05
4.21322e-05
4.6781e-05
5.08779e-05
5.39195e-05
5.77997e-05
6.18719e-05
6.574e-05
6.94157e-05
7.26916e-05
7.56863e-05
7.81487e-05
8.01434e-05
8.17312e-05
8.28782e-05
8.35422e-05
8.36457e-05
8.313e-05
8.1982e-05
8.02372e-05
7.79922e-05
7.53956e-05
7.26032e-05
6.96929e-05
6.692e-05
6.31546e-05
5.66832e-05
5.26056e-05
4.56726e-05
3.38244e-05
1.96126e-05
6.29203e-06
1.07578e-06
1.55627e-06
3.23862e-05
5.01131e-05
5.09431e-05
4.92262e-05
4.6211e-05
4.32722e-05
4.27119e-05
4.58681e-05
5.05284e-05
5.42819e-05
5.74216e-05
6.15366e-05
6.58455e-05
6.99474e-05
7.37248e-05
7.69709e-05
7.98672e-05
8.22967e-05
8.4524e-05
8.6414e-05
8.78343e-05
8.87445e-05
8.90743e-05
8.87417e-05
8.76873e-05
8.58971e-05
8.34349e-05
8.04594e-05
7.71993e-05
7.38654e-05
7.05122e-05
6.72955e-05
6.17481e-05
5.6269e-05
5.09999e-05
3.99879e-05
2.49515e-05
8.48387e-06
1.66339e-06
1.66137e-06
3.3408e-05
5.17537e-05
5.30669e-05
5.15452e-05
4.82212e-05
4.55012e-05
4.53986e-05
4.90462e-05
5.3564e-05
5.72017e-05
6.05439e-05
6.49143e-05
6.93286e-05
7.33439e-05
7.69285e-05
8.02195e-05
8.32164e-05
8.58886e-05
8.80836e-05
9.01834e-05
9.19054e-05
9.30729e-05
9.36999e-05
9.36838e-05
9.2912e-05
9.12934e-05
8.88109e-05
8.5578e-05
8.18588e-05
7.80063e-05
7.42952e-05
7.06953e-05
6.66742e-05
5.95592e-05
5.49369e-05
4.51486e-05
2.9786e-05
1.1476e-05
2.2306e-06
1.7156e-06
3.38076e-05
5.28571e-05
5.46223e-05
5.33867e-05
5.01682e-05
4.7645e-05
4.7822e-05
5.16173e-05
5.60186e-05
5.9646e-05
6.31278e-05
6.75491e-05
7.1827e-05
7.57984e-05
7.9413e-05
8.27406e-05
8.57912e-05
8.85369e-05
9.07708e-05
9.27352e-05
9.47224e-05
9.61299e-05
9.70915e-05
9.75137e-05
9.72357e-05
9.60691e-05
9.38677e-05
9.06243e-05
8.65527e-05
8.20865e-05
7.77264e-05
7.37533e-05
6.9956e-05
6.33849e-05
5.80338e-05
4.98245e-05
3.4487e-05
1.41019e-05
2.7382e-06
1.70671e-06
3.35536e-05
5.3055e-05
5.57734e-05
5.50713e-05
5.20532e-05
4.96443e-05
4.99287e-05
5.36099e-05
5.79018e-05
6.15941e-05
6.51236e-05
6.94526e-05
7.37159e-05
7.75355e-05
8.10699e-05
8.44334e-05
8.74054e-05
9.0124e-05
9.23283e-05
9.40195e-05
9.60041e-05
9.75992e-05
9.88915e-05
9.98406e-05
0.000100255
9.98436e-05
9.82973e-05
9.54227e-05
9.12935e-05
8.63372e-05
8.12391e-05
7.65898e-05
7.24588e-05
6.71153e-05
6.05255e-05
5.36529e-05
3.86394e-05
1.68847e-05
3.24983e-06
1.67381e-06
3.314e-05
5.32465e-05
5.71119e-05
5.67055e-05
5.37977e-05
5.14816e-05
5.17102e-05
5.50895e-05
5.92568e-05
6.30361e-05
6.65665e-05
7.07755e-05
7.48284e-05
7.85408e-05
8.20754e-05
8.52707e-05
8.80609e-05
9.0462e-05
9.26308e-05
9.40377e-05
9.56944e-05
9.73657e-05
9.89418e-05
0.000100458
0.000101716
0.00010233
0.000101807
9.97202e-05
9.59163e-05
9.07072e-05
8.48977e-05
7.94243e-05
7.47186e-05
7.03698e-05
6.28069e-05
5.68351e-05
4.2432e-05
1.93239e-05
3.73792e-06
1.60409e-06
3.22831e-05
5.30367e-05
5.7945e-05
5.79592e-05
5.5426e-05
5.32079e-05
5.33376e-05
5.61071e-05
6.00947e-05
6.39219e-05
6.74859e-05
7.14812e-05
7.52878e-05
7.89571e-05
8.23112e-05
8.52681e-05
8.77718e-05
8.98204e-05
9.15736e-05
9.28087e-05
9.40058e-05
9.55913e-05
9.73691e-05
9.94386e-05
0.000101619
0.000103448
0.000104251
0.000103337
0.000100272
9.51339e-05
8.8742e-05
8.23784e-05
7.70443e-05
7.25862e-05
6.50503e-05
5.92308e-05
4.54249e-05
2.18754e-05
4.23946e-06
1.50484e-06
3.11987e-05
5.23556e-05
5.84329e-05
5.90045e-05
5.69254e-05
5.48178e-05
5.46695e-05
5.70511e-05
6.05958e-05
6.42802e-05
6.78746e-05
7.16035e-05
7.52562e-05
7.87241e-05
8.18398e-05
8.45063e-05
8.66654e-05
8.83178e-05
8.95482e-05
9.05299e-05
9.13112e-05
9.26999e-05
9.4588e-05
9.71434e-05
0.000100235
0.000103361
0.000105681
0.000106215
0.000104249
9.95262e-05
9.2728e-05
8.53603e-05
7.90102e-05
7.41016e-05
6.7366e-05
6.11298e-05
4.79522e-05
2.41312e-05
4.73345e-06
1.38853e-06
3.00128e-05
5.12849e-05
5.86405e-05
5.98511e-05
5.82962e-05
5.63167e-05
5.58035e-05
5.74863e-05
6.07159e-05
6.43065e-05
6.77665e-05
7.12559e-05
7.46966e-05
7.79187e-05
8.07634e-05
8.31197e-05
8.49241e-05
8.61804e-05
8.6984e-05
8.75642e-05
8.8057e-05
8.91243e-05
9.09707e-05
9.38354e-05
9.76929e-05
0.000102093
0.000106162
0.000108641
0.000108056
0.000103968
9.68695e-05
8.85257e-05
8.0977e-05
7.5246e-05
6.92513e-05
6.25272e-05
5.01503e-05
2.63374e-05
5.24523e-06
1.26337e-06
2.86584e-05
4.99435e-05
5.85477e-05
6.05057e-05
5.95466e-05
5.77569e-05
5.69318e-05
5.79223e-05
6.06461e-05
6.37972e-05
6.72538e-05
7.0553e-05
7.37255e-05
7.6665e-05
7.92212e-05
8.1273e-05
8.27541e-05
8.36813e-05
8.41723e-05
8.44512e-05
8.47363e-05
8.55296e-05
8.73781e-05
9.06208e-05
9.52242e-05
0.000100748
0.000106242
0.00011036
0.000111488
0.000108315
0.000101167
9.18812e-05
8.30491e-05
7.63758e-05
7.08224e-05
6.3554e-05
5.20144e-05
2.83026e-05
5.75657e-06
1.15653e-06
2.69095e-05
4.83506e-05
5.81156e-05
6.09849e-05
6.0664e-05
5.91516e-05
5.81576e-05
5.86726e-05
6.06008e-05
6.33815e-05
6.61891e-05
6.93462e-05
7.23651e-05
7.50572e-05
7.73294e-05
7.90873e-05
8.0286e-05
8.09959e-05
8.13526e-05
8.15703e-05
8.19085e-05
8.27877e-05
8.49116e-05
8.85725e-05
9.37283e-05
9.9907e-05
0.00010623
0.000111356
0.000113934
0.000112118
0.000105456
9.53314e-05
8.51583e-05
7.74454e-05
7.18986e-05
6.44183e-05
5.35955e-05
3.02033e-05
6.28556e-06
1.05511e-06
2.49451e-05
4.6488e-05
5.74151e-05
6.1255e-05
6.16471e-05
6.05733e-05
5.94815e-05
5.94535e-05
6.06626e-05
6.29926e-05
6.55694e-05
6.79794e-05
7.0515e-05
7.29349e-05
7.49921e-05
7.65991e-05
7.77896e-05
7.85394e-05
7.89393e-05
7.91699e-05
7.95248e-05
8.04353e-05
8.26409e-05
8.64328e-05
9.194e-05
9.88781e-05
0.000106334
0.000112835
0.000116474
0.000115814
0.000109516
9.87991e-05
8.72783e-05
7.84646e-05
7.26312e-05
6.51334e-05
5.49062e-05
3.1947e-05
6.81703e-06
9.55957e-07
2.29106e-05
4.44084e-05
5.64494e-05
6.12997e-05
6.24899e-05
6.20452e-05
6.10469e-05
6.05408e-05
6.10603e-05
6.2567e-05
6.49168e-05
6.72664e-05
6.93641e-05
7.13055e-05
7.30664e-05
7.45572e-05
7.56799e-05
7.64176e-05
7.6841e-05
7.71601e-05
7.75103e-05
7.86183e-05
8.10462e-05
8.51206e-05
9.10224e-05
9.85038e-05
0.00010673
0.000114259
0.000119161
0.000119382
0.000113495
0.000102221
8.93089e-05
7.91545e-05
7.28572e-05
6.57351e-05
5.60213e-05
3.36139e-05
7.36245e-06
8.5964e-07
2.09195e-05
4.21705e-05
5.51697e-05
6.11511e-05
6.31695e-05
6.3245e-05
6.25903e-05
6.18067e-05
6.18649e-05
6.26764e-05
6.4176e-05
6.63269e-05
6.83674e-05
7.02089e-05
7.18022e-05
7.30909e-05
7.40207e-05
7.4597e-05
7.50003e-05
7.54571e-05
7.60128e-05
7.7457e-05
8.02807e-05
8.4689e-05
9.09256e-05
9.87897e-05
0.000107527
0.000115759
0.000121541
0.00012264
0.000117221
0.000105464
9.12501e-05
7.97015e-05
7.27689e-05
6.6275e-05
5.69701e-05
3.51391e-05
7.90942e-06
7.68152e-07
1.90553e-05
3.98368e-05
5.35765e-05
6.0811e-05
6.36863e-05
6.43937e-05
6.39653e-05
6.35229e-05
6.32679e-05
6.34839e-05
6.42373e-05
6.54124e-05
6.71342e-05
6.88205e-05
7.02558e-05
7.13801e-05
7.21983e-05
7.28143e-05
7.34791e-05
7.41406e-05
7.51083e-05
7.70901e-05
8.0307e-05
8.50768e-05
9.15946e-05
9.96995e-05
0.000108724
0.00011738
0.000123753
0.000125547
0.000120448
0.000108385
9.30028e-05
8.01118e-05
7.2592e-05
6.66814e-05
5.77802e-05
3.65681e-05
8.46414e-06
6.83376e-07
1.7352e-05
3.75049e-05
5.17401e-05
6.02584e-05
6.40431e-05
6.55022e-05
6.57442e-05
6.56496e-05
6.51074e-05
6.49351e-05
6.51952e-05
6.58172e-05
6.66575e-05
6.76959e-05
6.88015e-05
6.98286e-05
7.07027e-05
7.1526e-05
7.26879e-05
7.35389e-05
7.4992e-05
7.75707e-05
8.11787e-05
8.62652e-05
9.29684e-05
0.000101159
0.000110259
0.00011907
0.000125838
0.000127975
0.00012329
0.000110949
9.4488e-05
8.02743e-05
7.19021e-05
6.67133e-05
5.84746e-05
3.79082e-05
9.01614e-06
6.07602e-07
1.59312e-05
3.50899e-05
4.974e-05
5.94674e-05
6.42205e-05
6.6486e-05
6.74226e-05
6.73199e-05
6.72527e-05
6.70568e-05
6.69891e-05
6.71924e-05
6.76265e-05
6.8248e-05
6.8967e-05
6.97441e-05
7.05928e-05
7.1538e-05
7.29743e-05
7.4124e-05
7.59099e-05
7.89442e-05
8.29131e-05
8.82099e-05
9.49546e-05
0.000103051
0.00011203
0.000120855
0.00012747
0.000129763
0.000125492
0.000113019
9.56617e-05
8.02518e-05
7.11996e-05
6.62648e-05
5.89508e-05
3.92359e-05
9.56635e-06
5.41649e-07
1.47122e-05
3.2865e-05
4.77369e-05
5.8412e-05
6.42356e-05
6.73443e-05
6.88995e-05
6.92782e-05
6.95609e-05
6.95887e-05
6.95332e-05
6.95325e-05
6.96915e-05
7.00201e-05
7.05015e-05
7.11226e-05
7.19014e-05
7.28797e-05
7.44764e-05
7.60359e-05
7.79802e-05
8.12589e-05
8.54941e-05
9.08197e-05
9.74164e-05
0.000105327
0.000114047
0.000122183
0.000128518
0.000130989
0.000126925
0.00011446
9.64127e-05
7.98879e-05
7.03369e-05
6.57371e-05
5.92654e-05
4.05079e-05
1.01045e-05
4.85511e-07
1.37046e-05
3.09015e-05
4.58048e-05
5.71681e-05
6.41357e-05
6.81259e-05
7.04153e-05
7.16733e-05
7.20523e-05
7.24669e-05
7.26358e-05
7.26986e-05
7.27861e-05
7.29852e-05
7.33355e-05
7.38645e-05
7.46117e-05
7.5632e-05
7.72307e-05
7.91548e-05
8.13568e-05
8.44621e-05
8.87137e-05
9.39185e-05
0.00010032
0.000107736
0.000115476
0.000123093
0.000129039
0.000131268
0.000127342
0.000115089
9.66571e-05
7.91532e-05
6.91685e-05
6.52618e-05
5.93362e-05
4.17525e-05
1.06298e-05
4.38692e-07
1.29128e-05
2.92556e-05
4.4037e-05
5.59001e-05
6.39465e-05
6.88731e-05
7.19663e-05
7.39527e-05
7.48202e-05
7.55271e-05
7.61511e-05
7.64849e-05
7.6744e-05
7.6984e-05
7.73364e-05
7.78608e-05
7.86162e-05
7.96684e-05
8.11612e-05
8.33113e-05
8.56382e-05
8.85839e-05
9.23977e-05
9.73362e-05
0.00010317
0.000109619
0.000116679
0.000123427
0.000128565
0.000130311
0.000126438
0.000114639
9.62599e-05
7.79623e-05
6.74427e-05
6.37538e-05
5.90807e-05
4.29453e-05
1.11335e-05
4.00247e-07
1.23367e-05
2.79669e-05
4.25305e-05
5.47689e-05
6.37564e-05
6.96594e-05
7.36235e-05
7.63158e-05
7.81532e-05
7.90804e-05
7.98984e-05
8.0725e-05
8.12907e-05
8.18336e-05
8.23016e-05
8.28931e-05
8.36803e-05
8.47322e-05
8.61381e-05
8.80469e-05
9.04844e-05
9.31804e-05
9.64707e-05
0.000100467
0.000105464
0.000111204
0.000117124
0.000122661
0.000126701
0.000127715
0.000123793
0.000112702
9.49167e-05
7.63403e-05
6.53181e-05
6.2262e-05
5.84293e-05
4.40783e-05
1.16152e-05
3.69342e-07
1.19821e-05
2.7064e-05
4.13848e-05
5.39433e-05
6.37125e-05
7.06098e-05
7.5517e-05
7.90286e-05
8.15709e-05
8.33122e-05
8.44749e-05
8.5416e-05
8.6283e-05
8.71129e-05
8.80017e-05
8.87192e-05
8.95177e-05
9.04893e-05
9.17113e-05
9.32703e-05
9.52504e-05
9.7709e-05
0.000100309
0.000103208
0.000107083
0.000111664
0.000116194
0.000120158
0.000122688
0.000122588
0.000118433
0.00010849
9.20933e-05
7.39105e-05
6.25385e-05
6.02057e-05
5.77618e-05
4.50967e-05
1.207e-05
3.44949e-07
1.18429e-05
2.65878e-05
4.0712e-05
5.36294e-05
6.40329e-05
7.19326e-05
7.78599e-05
8.23013e-05
8.56668e-05
8.82153e-05
8.99626e-05
9.12993e-05
9.23672e-05
9.29193e-05
9.37399e-05
9.46121e-05
9.53628e-05
9.61463e-05
9.70228e-05
9.80766e-05
9.93854e-05
0.000101036
0.000103067
0.000104784
0.000107069
0.000110059
0.000112822
0.000114978
0.000115936
0.000114753
0.000110288
0.000101155
8.64521e-05
7.02757e-05
5.91342e-05
5.77385e-05
5.72289e-05
4.59077e-05
1.25032e-05
3.27028e-07
1.19759e-05
2.66124e-05
4.07512e-05
5.39715e-05
6.5077e-05
7.40671e-05
8.11248e-05
8.65487e-05
9.06345e-05
9.36048e-05
9.58931e-05
9.75799e-05
9.88495e-05
9.9634e-05
0.000100072
0.000100583
0.000100869
0.000101087
0.000101292
0.000101528
0.000101845
0.000102318
0.000103007
0.000103553
0.000104267
0.000105269
0.000105975
0.000106198
0.000105475
0.000103154
9.8464e-05
9.06122e-05
7.82242e-05
6.37842e-05
5.45475e-05
5.4693e-05
5.58699e-05
4.61114e-05
1.29234e-05
3.21237e-07
1.24392e-05
2.72039e-05
4.17804e-05
5.55503e-05
6.74491e-05
7.68766e-05
8.42987e-05
9.01188e-05
9.46096e-05
9.80434e-05
0.000100595
0.000102324
0.000103399
0.000103939
0.000103955
0.000103782
0.000103261
0.000102652
0.000101948
0.000101147
0.000100264
9.93811e-05
9.83638e-05
9.75413e-05
9.64969e-05
9.50894e-05
9.38521e-05
9.24081e-05
9.0395e-05
8.74467e-05
8.30954e-05
7.6916e-05
6.82922e-05
5.83682e-05
5.07716e-05
5.13497e-05
5.46416e-05
4.57829e-05
1.33672e-05
3.30671e-07
1.31585e-05
2.89632e-05
4.43526e-05
5.75486e-05
6.86704e-05
7.80837e-05
8.56305e-05
9.14676e-05
9.58445e-05
9.89924e-05
0.000101095
0.000102319
0.000102808
0.000102622
0.00010211
0.000101069
9.96211e-05
9.78599e-05
9.58272e-05
9.35817e-05
9.10524e-05
8.84894e-05
8.59744e-05
8.34337e-05
8.07212e-05
7.78685e-05
7.52482e-05
7.27159e-05
7.01309e-05
6.73172e-05
6.3879e-05
5.97169e-05
5.4563e-05
4.91518e-05
4.62337e-05
4.95386e-05
5.35636e-05
4.52877e-05
1.38674e-05
3.63044e-07
1.46866e-05
3.14302e-05
4.53783e-05
5.77641e-05
6.79752e-05
7.60309e-05
8.21421e-05
8.65725e-05
8.96142e-05
9.14971e-05
9.23897e-05
9.24309e-05
9.17373e-05
9.03375e-05
8.85064e-05
8.62958e-05
8.35713e-05
8.05561e-05
7.73198e-05
7.39496e-05
7.04908e-05
6.70728e-05
6.39022e-05
6.08017e-05
5.78244e-05
5.51903e-05
5.28721e-05
5.09004e-05
4.92374e-05
4.78838e-05
4.65834e-05
4.54184e-05
4.38803e-05
4.27044e-05
4.30044e-05
4.69733e-05
5.11572e-05
4.34723e-05
1.41409e-05
4.15904e-07
1.56876e-05
3.17576e-05
4.29676e-05
5.14433e-05
5.77737e-05
6.22281e-05
6.5153e-05
6.68655e-05
6.76274e-05
6.76247e-05
6.69916e-05
6.58296e-05
6.42298e-05
6.2251e-05
5.99948e-05
5.76042e-05
5.50841e-05
5.25194e-05
4.99951e-05
4.75718e-05
4.53187e-05
4.32669e-05
4.15171e-05
4.00362e-05
3.88465e-05
3.79854e-05
3.74713e-05
3.73159e-05
3.75138e-05
3.81387e-05
3.90632e-05
4.05205e-05
4.19469e-05
4.35181e-05
4.53034e-05
4.85507e-05
4.97733e-05
4.20622e-05
1.42632e-05
5.48017e-07
1.69554e-05
2.63682e-05
3.06444e-05
3.38441e-05
3.61681e-05
3.77176e-05
3.8654e-05
3.91386e-05
3.92972e-05
3.92084e-05
3.89363e-05
3.85252e-05
3.80194e-05
3.7451e-05
3.68557e-05
3.62749e-05
3.57514e-05
3.53008e-05
3.49608e-05
3.47398e-05
3.46748e-05
3.47574e-05
3.5025e-05
3.54624e-05
3.60961e-05
3.69078e-05
3.79227e-05
3.91369e-05
4.05532e-05
4.22119e-05
4.41313e-05
4.63472e-05
4.85929e-05
5.06141e-05
5.19143e-05
5.26832e-05
4.82874e-05
3.90123e-05
1.41145e-05
9.00826e-07
1.7483e-05
2.09396e-05
2.39056e-05
2.65037e-05
2.86221e-05
3.0381e-05
3.18526e-05
3.30914e-05
3.4148e-05
3.50648e-05
3.58807e-05
3.66261e-05
3.73263e-05
3.79983e-05
3.86608e-05
3.93227e-05
4.00002e-05
4.07013e-05
4.14385e-05
4.22134e-05
4.30363e-05
4.39046e-05
4.48248e-05
4.57933e-05
4.68124e-05
4.7886e-05
4.89971e-05
5.01791e-05
5.13668e-05
5.26478e-05
5.38654e-05
5.516e-05
5.64492e-05
5.70995e-05
5.63154e-05
5.3525e-05
4.61837e-05
3.31093e-05
1.30464e-05
6.16986e-07
1.1168e-06
1.81946e-06
2.55227e-06
3.24588e-06
3.87234e-06
4.4402e-06
4.96125e-06
5.44639e-06
5.89804e-06
6.32276e-06
6.71975e-06
7.09639e-06
7.45039e-06
7.79202e-06
8.11589e-06
8.43547e-06
8.74101e-06
9.05051e-06
9.34924e-06
9.66058e-06
9.96318e-06
1.02873e-05
1.06035e-05
1.095e-05
1.12877e-05
1.1664e-05
1.20288e-05
1.24377e-05
1.28293e-05
1.326e-05
1.36573e-05
1.40622e-05
1.44191e-05
1.47377e-05
1.5123e-05
1.5242e-05
1.50465e-05
1.43337e-05
1.17989e-05
)
;

boundaryField
{
    movingWall
    {
        type            nutkWallFunction;
        Cmu             0.09;
        kappa           0.41;
        E               9.8;
        value           uniform 0;
    }
    fixedWalls
    {
        type            nutkWallFunction;
        Cmu             0.09;
        kappa           0.41;
        E               9.8;
        value           uniform 0;
    }
    frontAndBack
    {
        type            empty;
    }
}


// ************************************************************************* //
