/*--------------------------------*- C++ -*----------------------------------*\
  =========                 |
  \\      /  F ield         | OpenFOAM: The Open Source CFD Toolbox
   \\    /   O peration     | Website:  https://openfoam.org
    \\  /    A nd           | Version:  13
     \\/     M anipulation  |
\*---------------------------------------------------------------------------*/
FoamFile
{
    format      ascii;
    class       volScalarField;
    location    "2.5";
    object      p;
}
// * * * * * * * * * * * * * * * * * * * * * * * * * * * * * * * * * * * * * //

dimensions      [0 2 -2 0 0 0 0];

internalField   nonuniform List<scalar> 
400
(
5.17698e-08
-2.22183e-05
-4.98024e-05
-9.29967e-05
-0.000159758
-0.000241703
-0.000313763
-0.00038758
-0.000566832
-0.000914735
-0.00130973
-0.00149647
-0.00129605
-0.000668915
0.000357757
0.00171072
0.00314757
0.00432861
0.00498853
0.00506874
3.15717e-05
1.34276e-05
-4.84706e-06
-3.74225e-05
-0.000102657
-0.000216133
-0.000378786
-0.000591873
-0.000903656
-0.0013289
-0.00174213
-0.00196229
-0.00185331
-0.00134434
-0.000392928
0.00091308
0.00237513
0.00368539
0.00453996
0.00484946
4.34007e-05
1.34991e-05
-7.97919e-06
-3.81771e-05
-0.000110315
-0.000262852
-0.000529727
-0.000924611
-0.00143413
-0.00199419
-0.0024873
-0.00278538
-0.00275245
-0.00232607
-0.0014965
-0.000319011
0.00108235
0.00248103
0.00356717
0.0040737
4.84189e-08
-4.96953e-05
-9.12496e-05
-0.000139327
-0.000242005
-0.000456946
-0.000839785
-0.00140374
-0.0020965
-0.00280843
-0.00340949
-0.00376826
-0.00380339
-0.00346891
-0.00276369
-0.00172954
-0.000448671
0.000918153
0.00210333
0.00270482
-0.000120835
-0.00019373
-0.000267356
-0.000351633
-0.000502864
-0.000788744
-0.00127355
-0.00196622
-0.00278845
-0.00360368
-0.00427402
-0.00469235
-0.00479631
-0.00455463
-0.00397687
-0.00309903
-0.00197872
-0.000724781
0.000437921
0.0010244
-0.00031826
-0.000408918
-0.000514708
-0.000640476
-0.000843054
-0.00119046
-0.0017404
-0.00250773
-0.00339961
-0.00427038
-0.00498371
-0.00544503
-0.00560404
-0.00544356
-0.0049836
-0.00426026
-0.00332111
-0.00223939
-0.001176
-0.000634389
-0.000569645
-0.000667971
-0.000797075
-0.000957632
-0.00120019
-0.00158947
-0.00216606
-0.00294872
-0.00385601
-0.0047429
-0.00547385
-0.00595923
-0.00615749
-0.00606413
-0.00570649
-0.00512237
-0.00435404
-0.0034564
-0.00257337
-0.00206681
-0.000843038
-0.000939411
-0.00107969
-0.00126221
-0.00152708
-0.00192641
-0.00250144
-0.00325299
-0.00412658
-0.00499374
-0.00571664
-0.00620832
-0.00643296
-0.00639316
-0.00612247
-0.00566012
-0.00504307
-0.00431388
-0.0036144
-0.00316461
-0.00110959
-0.00119653
-0.00133581
-0.00152503
-0.00179385
-0.00217883
-0.00272164
-0.00341162
-0.00421587
-0.0050287
-0.00571841
-0.00619963
-0.00643868
-0.00644197
-0.00624451
-0.00588522
-0.00539627
-0.00481148
-0.00427631
-0.0038778
-0.0013471
-0.00142067
-0.00154889
-0.00173106
-0.0019884
-0.00234587
-0.00283346
-0.00344501
-0.00415463
-0.00488138
-0.00551452
-0.00597157
-0.00621559
-0.00625336
-0.00611638
-0.00584038
-0.00545659
-0.00497808
-0.00457256
-0.00421836
-0.00154792
-0.0016025
-0.00171275
-0.00187759
-0.0021118
-0.00243244
-0.00285635
-0.00338224
-0.00398706
-0.00461358
-0.00517471
-0.00559459
-0.00583366
-0.00589487
-0.00580362
-0.00559245
-0.00528914
-0.004869
-0.00456922
-0.00421015
-0.00170531
-0.00174263
-0.00182913
-0.00196927
-0.00217322
-0.00245163
-0.00281354
-0.00325736
-0.00376431
-0.00429196
-0.00477536
-0.0051498
-0.00537529
-0.00544772
-0.00538496
-0.0052128
-0.00495386
-0.00454409
-0.0043523
-0.00389384
-0.0018225
-0.0018426
-0.0019026
-0.0020135
-0.00218397
-0.00242055
-0.00272737
-0.0031012
-0.00352581
-0.00396822
-0.00437923
-0.00470645
-0.00491225
-0.00498485
-0.0049325
-0.00477263
-0.0045219
-0.00407206
-0.00401045
-0.00330065
-0.0019119
-0.00191034
-0.00194042
-0.00201899
-0.00215523
-0.0023534
-0.00261436
-0.00293303
-0.00329423
-0.00367059
-0.00402304
-0.00430836
-0.00449178
-0.0045556
-0.0044992
-0.00432841
-0.00405645
-0.00353324
-0.0035768
-0.00247752
-0.00198436
-0.00195421
-0.00194972
-0.00199331
-0.00209578
-0.00225993
-0.00248421
-0.00276187
-0.00307796
-0.00340785
-0.00371836
-0.00397208
-0.00413592
-0.00418684
-0.00411422
-0.0039137
-0.00359687
-0.00296529
-0.00304789
-0.0014492
-0.00205266
-0.00198329
-0.00193591
-0.00194085
-0.00200949
-0.00214333
-0.00233874
-0.0025874
-0.002874
-0.00317483
-0.00345972
-0.00369404
-0.00384485
-0.00388298
-0.00378891
-0.00354128
-0.00314017
-0.00231883
-0.00230577
-7.26265e-05
-0.00213918
-0.00200407
-0.00189911
-0.00185796
-0.00189064
-0.00199648
-0.00216949
-0.0023999
-0.00267196
-0.00296093
-0.00323634
-0.00346284
-0.00360685
-0.00363189
-0.00351056
-0.00317426
-0.00260955
-0.00146118
-0.00105301
0.00256828
-0.00230331
-0.00204036
-0.00186128
-0.00175845
-0.00175413
-0.0018364
-0.00199466
-0.00221612
-0.0024832
-0.00277044
-0.00304864
-0.00327778
-0.00341959
-0.00341696
-0.00322058
-0.00272542
-0.0018999
-0.000196533
0.0014057
0.00846347
-0.00268928
-0.00218807
-0.00191509
-0.0017671
-0.00173845
-0.00180736
-0.00195858
-0.0021771
-0.00244476
-0.00273261
-0.00301733
-0.00324848
-0.0033979
-0.00337939
-0.00314625
-0.00249129
-0.00117357
0.00155169
0.00575061
0.0183459
-0.00291957
-0.000551296
-0.00032513
-0.000386501
-0.000467998
-0.000603884
-0.000825047
-0.00111914
-0.00146011
-0.00181751
-0.00215667
-0.0024432
-0.00261203
-0.00260418
-0.0022798
-0.00151826
0.000236319
0.00435293
0.0122621
0.0274056
)
;

boundaryField
{
    movingWall
    {
        type            zeroGradient;
    }
    fixedWalls
    {
        type            zeroGradient;
    }
    frontAndBack
    {
        type            empty;
    }
}


// ************************************************************************* //
