/*--------------------------------*- C++ -*----------------------------------*\
  =========                 |
  \\      /  F ield         | OpenFOAM: The Open Source CFD Toolbox
   \\    /   O peration     | Website:  https://openfoam.org
    \\  /    A nd           | Version:  13
     \\/     M anipulation  |
\*---------------------------------------------------------------------------*/
FoamFile
{
    format      ascii;
    class       volScalarField;
    location    "2.5";
    object      p;
}
// * * * * * * * * * * * * * * * * * * * * * * * * * * * * * * * * * * * * * //

dimensions      [0 2 -2 0 0 0 0];

internalField   nonuniform List<scalar> 
1600
(
2.44863e-08
-1.96858e-05
-7.30016e-05
-0.000156293
-0.000261174
-0.000382408
-0.000515928
-0.00065777
-0.00079985
-0.000937168
-0.0010742
-0.00123312
-0.00144013
-0.00168348
-0.00181638
-0.00188415
-0.00205542
-0.00235109
-0.00270829
-0.00304404
-0.00328402
-0.00336955
-0.00325977
-0.00291955
-0.00233398
-0.00152171
-0.00049861
0.000711463
0.00204665
0.00340096
0.00461565
0.00551628
0.00596521
0.00591809
0.00537916
0.00477687
0.00433825
0.00418693
0.00419737
0.00420692
8.55131e-06
-1.5182e-05
-6.85973e-05
-0.00015093
-0.000254747
-0.000374762
-0.00050691
-0.000644797
-0.000780455
-0.000902657
-0.00100576
-0.00110436
-0.00126169
-0.00150995
-0.00178541
-0.00203572
-0.00232496
-0.00268088
-0.00305884
-0.00339782
-0.00363547
-0.00372251
-0.00362189
-0.00331004
-0.00278396
-0.00203263
-0.00105868
9.85383e-05
0.00138305
0.00269822
0.003911
0.00485836
0.0053932
0.00543756
0.00503515
0.00446779
0.00411069
0.00404936
0.00410886
0.00414481
4.81444e-05
1.57268e-05
-4.38763e-05
-0.000126322
-0.000225244
-0.000337326
-0.000456463
-0.000574173
-0.000684662
-0.000797384
-0.000939036
-0.0011265
-0.00137772
-0.001705
-0.0020895
-0.00250355
-0.00293451
-0.00336955
-0.00377459
-0.00410802
-0.00433088
-0.00440839
-0.0043134
-0.00402658
-0.003542
-0.00284817
-0.00195272
-0.000883137
0.000317189
0.0015761
0.00279208
0.00382706
0.00452911
0.00478949
0.00462669
0.00424366
0.00396935
0.00392531
0.00400431
0.00403562
0.000129098
8.25459e-05
1.30365e-05
-6.7744e-05
-0.000157816
-0.000258298
-0.000366534
-0.000480989
-0.000608518
-0.000771742
-0.00100298
-0.00132891
-0.0017497
-0.00223638
-0.00275751
-0.00329289
-0.0038164
-0.0042992
-0.00471311
-0.00503729
-0.00524663
-0.00531589
-0.00522497
-0.00496005
-0.00451017
-0.00387705
-0.00306927
-0.0021043
-0.00100917
0.000170188
0.00136235
0.00246209
0.00334159
0.00389196
0.00408415
0.00401897
0.00392376
0.00387917
0.00392603
0.00392717
0.000251785
0.000185051
0.000104188
2.37353e-05
-6.00442e-05
-0.000156742
-0.000273278
-0.000420961
-0.000620579
-0.000900758
-0.00128794
-0.00178807
-0.00237764
-0.00301116
-0.00364885
-0.00426578
-0.00483591
-0.00533931
-0.00576338
-0.00609299
-0.00629694
-0.00635786
-0.00626579
-0.00601768
-0.00560569
-0.00503632
-0.00431479
-0.0034521
-0.0024674
-0.00139159
-0.000268922
0.000840121
0.00185644
0.00269171
0.00328805
0.00364247
0.00382728
0.00390874
0.00387922
0.00383723
0.000399061
0.000312765
0.00021441
0.00013047
4.509e-05
-6.50898e-05
-0.000219733
-0.000443223
-0.000766373
-0.00121169
-0.00178108
-0.00245081
-0.00318044
-0.00392565
-0.00464763
-0.00531967
-0.00592439
-0.00644752
-0.00687266
-0.00718025
-0.00735878
-0.00740404
-0.00731218
-0.00708218
-0.00671216
-0.00620711
-0.00557204
-0.00481374
-0.00394185
-0.00297109
-0.00192389
-0.000835697
0.000245651
0.00127918
0.002216
0.00298994
0.0035404
0.00384962
0.00380867
0.00373046
0.000549261
0.000437206
0.000316866
0.000222804
0.000122413
-2.46643e-05
-0.00024881
-0.000585338
-0.00106306
-0.0016848
-0.00242497
-0.00323913
-0.0040796
-0.00490579
-0.00568403
-0.00638984
-0.00700783
-0.00752454
-0.00792976
-0.00821307
-0.00837033
-0.00840104
-0.00830605
-0.0080877
-0.00774939
-0.00729651
-0.00673446
-0.00606822
-0.00530182
-0.00443926
-0.00348644
-0.00245374
-0.00135578
-0.000211847
0.00094563
0.00205424
0.00297411
0.00356421
0.00374286
0.00358059
0.000665576
0.000525258
0.000378189
0.000265133
0.000133024
-7.22262e-05
-0.000390132
-0.00086074
-0.00149784
-0.00228155
-0.00316425
-0.00408991
-0.0050113
-0.00589124
-0.00670028
-0.007418
-0.00803156
-0.00853163
-0.0089128
-0.00917138
-0.00930715
-0.00932228
-0.00922073
-0.0090078
-0.00868999
-0.00827432
-0.00776706
-0.00717273
-0.00649281
-0.00572545
-0.00486626
-0.00391013
-0.00285047
-0.00168023
-0.000405812
0.000917588
0.00214044
0.00307265
0.00357226
0.00333572
0.000711437
0.000544213
0.000367085
0.000225333
4.76668e-05
-0.000229472
-0.000655035
-0.00126054
-0.00204254
-0.00296075
-0.00395187
-0.00495685
-0.00593166
-0.0068424
-0.0076635
-0.00837877
-0.00897869
-0.00945783
-0.00981427
-0.0100482
-0.0101621
-0.0101605
-0.0100496
-0.00983682
-0.00953065
-0.00913968
-0.00867131
-0.00813045
-0.007518
-0.00682961
-0.0060552
-0.00517967
-0.004184
-0.00304431
-0.00174176
-0.000302353
0.00113442
0.00236882
0.00312414
0.00303395
0.000661447
0.000470318
0.000261841
8.37807e-05
-0.000146677
-0.000502676
-0.00103395
-0.00176006
-0.0026623
-0.00368229
-0.00474929
-0.00580579
-0.00681151
-0.00773564
-0.00855629
-0.00926098
-0.00984321
-0.0103005
-0.0106333
-0.0108441
-0.0109371
-0.0109185
-0.010796
-0.0105789
-0.010277
-0.0099002
-0.00945719
-0.00895387
-0.00839176
-0.00776629
-0.00706557
-0.00626991
-0.00535294
-0.00428112
-0.00301424
-0.00153982
2.03389e-05
0.00144164
0.00247608
0.00296184
0.000502441
0.000292942
5.4732e-05
-0.000162476
-0.000447675
-0.000880241
-0.00150358
-0.00232744
-0.00331978
-0.00441038
-0.00552556
-0.00661153
-0.00763134
-0.00855693
-0.0093698
-0.0100604
-0.0106244
-0.0110613
-0.0113728
-0.0115628
-0.0116366
-0.0116015
-0.0114664
-0.0112415
-0.010938
-0.010567
-0.0101384
-0.00965947
-0.00913309
-0.00855586
-0.0079164
-0.00719419
-0.00636006
-0.00537714
-0.00419529
-0.00277022
-0.00116573
0.00034128
0.0016279
0.00251276
0.000235727
1.54117e-05
-0.000247634
-0.000502222
-0.00083924
-0.00133755
-0.00203442
-0.0029286
-0.00398145
-0.00511514
-0.00625681
-0.00735595
-0.00837828
-0.00929822
-0.0100999
-0.0107759
-0.0113232
-0.0117423
-0.0120357
-0.0122078
-0.0122645
-0.0122138
-0.0120652
-0.0118301
-0.0115206
-0.0111491
-0.0107268
-0.0102623
-0.00976016
-0.00921902
-0.00862946
-0.00797247
-0.00721904
-0.0063317
-0.0052614
-0.00394668
-0.00237697
-0.000855271
0.000494418
0.00148313
-0.000123549
-0.000346811
-0.000627685
-0.000914763
-0.00129501
-0.00184347
-0.0025946
-0.00353243
-0.00461815
-0.0057735
-0.00692535
-0.00802613
-0.00904362
-0.00995424
-0.010744
-0.0114066
-0.0119398
-0.0123443
-0.012623
-0.0127801
-0.0128218
-0.0127564
-0.0125941
-0.012347
-0.0120284
-0.0116519
-0.0112299
-0.0107726
-0.0102863
-0.00977166
-0.00922212
-0.00862146
-0.00794283
-0.00714971
-0.00619712
-0.00502234
-0.00358639
-0.0020941
-0.000820682
0.000100715
-0.000551272
-0.000769394
-0.00105988
-0.00137188
-0.00178382
-0.00236611
-0.0031513
-0.00411166
-0.00520734
-0.00636735
-0.00751748
-0.00861209
-0.00962035
-0.0105202
-0.0112987
-0.0119501
-0.0124722
-0.0128656
-0.0131326
-0.0132776
-0.0133063
-0.0132273
-0.0130512
-0.012791
-0.0124611
-0.0120765
-0.0116509
-0.011196
-0.0107196
-0.0102246
-0.00970695
-0.00915414
-0.00854268
-0.00783876
-0.00700134
-0.0059746
-0.00471559
-0.0033162
-0.00218792
-0.00140227
-0.00101823
-0.00122407
-0.00151565
-0.00184379
-0.00227639
-0.00287761
-0.00367607
-0.00464166
-0.00573088
-0.00688243
-0.00802206
-0.00910522
-0.0101018
-0.0109908
-0.0117595
-0.0124021
-0.0129161
-0.0133015
-0.01356
-0.0136953
-0.013713
-0.0136216
-0.013432
-0.0131582
-0.0128158
-0.0124212
-0.0119898
-0.0115344
-0.0110642
-0.0105838
-0.0100919
-0.00957922
-0.00902658
-0.00840426
-0.00767521
-0.00679427
-0.00571497
-0.00446261
-0.00348842
-0.00284801
-0.00149314
-0.00168285
-0.0019681
-0.00230445
-0.00274725
-0.00335346
-0.00414803
-0.00510419
-0.00617448
-0.00730711
-0.00842964
-0.00949773
-0.0104814
-0.0113599
-0.0121205
-0.0127567
-0.0132652
-0.0136452
-0.0138978
-0.0140258
-0.0140345
-0.013932
-0.0137298
-0.0134426
-0.0130875
-0.0126824
-0.0122441
-0.0117869
-0.011321
-0.0108522
-0.0103813
-0.00990223
-0.00939989
-0.00884886
-0.00821525
-0.00746272
-0.00654994
-0.00549351
-0.00466178
-0.00413305
-0.0019509
-0.00212197
-0.00239507
-0.00273227
-0.0031757
-0.00377359
-0.00455084
-0.0054855
-0.00652772
-0.00763254
-0.00873245
-0.00978258
-0.0107524
-0.0116209
-0.0123747
-0.0130063
-0.0135114
-0.0138883
-0.0141371
-0.01426
-0.0142616
-0.0141499
-0.0139366
-0.0136371
-0.0132701
-0.012855
-0.0124104
-0.0119514
-0.0114893
-0.0110307
-0.0105777
-0.0101267
-0.00966655
-0.00917612
-0.0086249
-0.00798175
-0.00721227
-0.00634444
-0.00565216
-0.00521438
-0.00237081
-0.0025224
-0.00277896
-0.00311024
-0.00354641
-0.0041265
-0.00487473
-0.00577593
-0.00678208
-0.00785216
-0.00892459
-0.00995387
-0.0109087
-0.0117671
-0.0125149
-0.013143
-0.0136461
-0.0140215
-0.0142684
-0.014388
-0.0143846
-0.0142658
-0.0140435
-0.013734
-0.0133571
-0.012934
-0.0124846
-0.0120254
-0.0115681
-0.0111195
-0.0106824
-0.0102551
-0.00982967
-0.00938956
-0.00890839
-0.00835806
-0.00771134
-0.00700534
-0.00643746
-0.00607456
-0.00274298
-0.00286981
-0.00310786
-0.00342725
-0.00384944
-0.00440507
-0.00511526
-0.00597206
-0.00693323
-0.00796324
-0.00900266
-0.0100074
-0.0109453
-0.0117929
-0.0125344
-0.0131594
-0.0136613
-0.0140362
-0.0142823
-0.0144003
-0.0143938
-0.0142704
-0.014042
-0.0137257
-0.0133424
-0.0129147
-0.0124638
-0.0120071
-0.0115567
-0.0111193
-0.0106975
-0.0102905
-0.00989341
-0.0094941
-0.00907111
-0.00859853
-0.00805459
-0.00747475
-0.00701609
-0.00671784
-0.00305563
-0.00316126
-0.00337617
-0.0036783
-0.00408025
-0.00460584
-0.00527192
-0.00607556
-0.00698409
-0.00796527
-0.00896576
-0.0099416
-0.0108596
-0.0116946
-0.0124288
-0.0130502
-0.0135508
-0.0139255
-0.0141717
-0.0142894
-0.0142819
-0.0141566
-0.0139257
-0.0136068
-0.0132218
-0.0127944
-0.0123467
-0.0118968
-0.0114564
-0.0110321
-0.0106258
-0.0102371
-0.00986315
-0.00949627
-0.00912004
-0.00871049
-0.0082506
-0.0077724
-0.00740123
-0.00715687
-0.00330102
-0.00339044
-0.00358157
-0.00386215
-0.00423905
-0.00472923
-0.00534633
-0.00609106
-0.00694023
-0.00786365
-0.00881856
-0.0097598
-0.0106532
-0.0114721
-0.0121967
-0.012813
-0.0133116
-0.0136861
-0.0139329
-0.0140517
-0.0140453
-0.0139212
-0.0136919
-0.0133756
-0.0129948
-0.0125738
-0.0121353
-0.0116971
-0.0112707
-0.010862
-0.0104722
-0.0101006
-0.00974569
-0.00940412
-0.0090643
-0.00870459
-0.00831242
-0.00791497
-0.00761167
-0.00741107
-0.00348731
-0.00356052
-0.0037272
-0.00398257
-0.00432966
-0.0047799
-0.00534458
-0.00602637
-0.00681031
-0.00767008
-0.00857063
-0.00946972
-0.0103323
-0.0111302
-0.0118415
-0.0124505
-0.0129457
-0.0133195
-0.0135676
-0.0136888
-0.0136861
-0.0135669
-0.0133442
-0.0130366
-0.0126667
-0.0122588
-0.0118355
-0.0114142
-0.011006
-0.0106157
-0.0102437
-0.00988845
-0.00954946
-0.00922683
-0.00891445
-0.00859392
-0.00825682
-0.00792429
-0.00766954
-0.00750092
-0.00362347
-0.00367953
-0.00381965
-0.00404617
-0.00435957
-0.00476668
-0.0052766
-0.00589308
-0.00660687
-0.0073978
-0.00823603
-0.00908452
-0.00990881
-0.0106795
-0.011373
-0.0119713
-0.0124613
-0.0128338
-0.0130836
-0.0132092
-0.0132133
-0.0131035
-0.012893
-0.0126005
-0.0122484
-0.0118604
-0.0114583
-0.011059
-0.0106726
-0.0103031
-0.0099498
-0.00961042
-0.00928458
-0.00897555
-0.00868261
-0.0083924
-0.008098
-0.00781464
-0.00760069
-0.0074479
-0.00371547
-0.00375472
-0.00386662
-0.00406115
-0.00433788
-0.00469993
-0.00515419
-0.00570448
-0.00634574
-0.00706332
-0.00783306
-0.00862315
-0.00940125
-0.0101378
-0.0108078
-0.0113915
-0.0118739
-0.0122444
-0.0124966
-0.0126288
-0.0126434
-0.012548
-0.0123556
-0.0120847
-0.011757
-0.011395
-0.0110194
-0.0106459
-0.0102838
-0.00993639
-0.00960221
-0.00927794
-0.00896301
-0.00866322
-0.00838347
-0.00811527
-0.00785082
-0.00759972
-0.00742766
-0.00727365
-0.00377032
-0.00379313
-0.00387583
-0.00403616
-0.004274
-0.00458998
-0.00498888
-0.00547388
-0.00604302
-0.00668585
-0.00738335
-0.0081091
-0.00883408
-0.00952972
-0.0101705
-0.0107351
-0.0112072
-0.0115747
-0.0118303
-0.0119716
-0.0120004
-0.0119242
-0.0117558
-0.0115124
-0.0112144
-0.010883
-0.0105374
-0.010192
-0.00985526
-0.00952993
-0.00921417
-0.00890377
-0.0085976
-0.00830322
-0.00803091
-0.00777773
-0.00753404
-0.00730166
-0.0071657
-0.00699997
-0.00379501
-0.00380172
-0.00385492
-0.0039796
-0.00417698
-0.00444662
-0.0047914
-0.00521399
-0.00571373
-0.00628351
-0.00690854
-0.0075676
-0.00823521
-0.00888477
-0.00949127
-0.0100329
-0.0104921
-0.0108557
-0.0111153
-0.0112676
-0.0113141
-0.0112613
-0.0111212
-0.0109095
-0.010645
-0.0103471
-0.0100329
-0.00971589
-0.00940378
-0.00909909
-0.00879988
-0.00850142
-0.00820175
-0.00790937
-0.00763908
-0.00739374
-0.00716342
-0.00693767
-0.00683739
-0.00664461
-0.00379516
-0.0037866
-0.00381083
-0.00389915
-0.00405532
-0.00427904
-0.00457199
-0.0049361
-0.00537117
-0.00587248
-0.00642852
-0.00702221
-0.00763176
-0.00823314
-0.00880258
-0.00931852
-0.00976284
-0.0101216
-0.0103855
-0.0105503
-0.0106166
-0.01059
-0.0104808
-0.0103031
-0.0100735
-0.00980929
-0.00952612
-0.00923596
-0.00894613
-0.00865925
-0.00837368
-0.00808451
-0.00778901
-0.00749595
-0.00722347
-0.00697886
-0.00675359
-0.00652108
-0.00645844
-0.00622025
-0.00377508
-0.00375247
-0.0037493
-0.00380159
-0.0039165
-0.00409527
-0.0043393
-0.00464963
-0.00502636
-0.0054658
-0.00595916
-0.00649223
-0.00704663
-0.00760102
-0.00813337
-0.00862291
-0.0090516
-0.0094051
-0.0096734
-0.00985113
-0.00993796
-0.00993839
-0.00986078
-0.00971702
-0.00952154
-0.00928963
-0.00903512
-0.00876883
-0.00849783
-0.00822495
-0.00794908
-0.00766581
-0.00737203
-0.00707606
-0.00679832
-0.00654919
-0.00631987
-0.00606381
-0.00603945
-0.0057233
-0.00373811
-0.00370334
-0.00367514
-0.00369244
-0.00376666
-0.0039018
-0.00409997
-0.00436177
-0.00468699
-0.00507261
-0.0055114
-0.00599122
-0.00649633
-0.00700794
-0.00750583
-0.00797041
-0.00838411
-0.00873251
-0.00900512
-0.00919573
-0.00930269
-0.0093291
-0.00928175
-0.00917027
-0.00900659
-0.00880395
-0.00857472
-0.00832869
-0.00807243
-0.00780911
-0.00753855
-0.00725732
-0.00696243
-0.00666108
-0.00637452
-0.00611523
-0.00587693
-0.00557618
-0.00557422
-0.00512788
-0.00368761
-0.00364306
-0.00359247
-0.00357616
-0.00361062
-0.00370375
-0.00385924
-0.00407778
-0.00435848
-0.00469866
-0.00509185
-0.00552735
-0.00599093
-0.0064659
-0.00693394
-0.00737664
-0.00777719
-0.00812129
-0.00839814
-0.00860102
-0.00872688
-0.00877731
-0.0087576
-0.00867546
-0.00854044
-0.00836371
-0.00815627
-0.00792673
-0.00768128
-0.00742347
-0.00715404
-0.00687089
-0.00657158
-0.00626189
-0.00596262
-0.00568883
-0.00543776
-0.00504364
-0.00504438
-0.00438415
-0.0036275
-0.00357566
-0.0035049
-0.00345621
-0.00345206
-0.00350501
-0.00362106
-0.0038014
-0.00404466
-0.00434769
-0.00470417
-0.00510429
-0.00553488
-0.00598059
-0.00642443
-0.00684917
-0.00723896
-0.00757996
-0.00786101
-0.00807524
-0.00821847
-0.00829077
-0.00829578
-0.00823965
-0.00813014
-0.00797641
-0.00778772
-0.00757172
-0.0073341
-0.00707857
-0.00680671
-0.006518
-0.00621093
-0.00588962
-0.00557321
-0.00528067
-0.0050097
-0.00443763
-0.00443609
-0.00343705
-0.00356248
-0.00350543
-0.00341563
-0.00333525
-0.00329361
-0.0033085
-0.00338865
-0.00353586
-0.00374836
-0.00402207
-0.00435032
-0.00472339
-0.0051288
-0.0055522
-0.00597774
-0.00638904
-0.00677085
-0.0071101
-0.00739579
-0.00762074
-0.0077791
-0.00787106
-0.00789857
-0.00786592
-0.00777938
-0.00764646
-0.00747465
-0.00727051
-0.00703911
-0.00678402
-0.00650728
-0.00620949
-0.00589025
-0.00555295
-0.00521387
-0.00488888
-0.00455596
-0.00378153
-0.00377758
-0.00224972
-0.00349866
-0.00343702
-0.00332729
-0.0032152
-0.00313736
-0.00311685
-0.0031647
-0.00328331
-0.00347055
-0.00372149
-0.00402861
-0.00438195
-0.00476922
-0.00517642
-0.0055887
-0.00599063
-0.00636757
-0.00670679
-0.00699784
-0.00723267
-0.00740538
-0.0075159
-0.00756471
-0.00755439
-0.00748973
-0.00737684
-0.00722174
-0.00702958
-0.00680458
-0.0065497
-0.00626663
-0.00595616
-0.00561878
-0.00525652
-0.00488375
-0.00450597
-0.00406728
-0.0030463
-0.00309471
-0.000805323
-0.00344101
-0.0033756
-0.00324276
-0.00309808
-0.00298475
-0.00293054
-0.00294853
-0.0030418
-0.0032078
-0.00344063
-0.00373186
-0.00407101
-0.0044457
-0.00484214
-0.00524593
-0.00564243
-0.00601776
-0.00635949
-0.00665734
-0.00690336
-0.007092
-0.00722101
-0.00729137
-0.007304
-0.00726225
-0.00717068
-0.00703386
-0.00685562
-0.00663885
-0.00638548
-0.00609585
-0.00576989
-0.00540735
-0.00500749
-0.00457939
-0.00410577
-0.00350144
-0.00221476
-0.00221629
0.00097702
-0.00340173
-0.00332625
-0.0031638
-0.00298264
-0.00283291
-0.00274513
-0.0027337
-0.00280253
-0.00294902
-0.00316635
-0.00344489
-0.00377349
-0.00413966
-0.00452985
-0.00492988
-0.0053257
-0.00570391
-0.00605246
-0.00636096
-0.00662151
-0.00682915
-0.0069801
-0.00707416
-0.00711207
-0.00709573
-0.00702806
-0.00691213
-0.00675028
-0.00654391
-0.0062925
-0.00599489
-0.00564952
-0.00525138
-0.00479067
-0.00426548
-0.00362044
-0.00275389
-0.00114883
-0.00064733
0.0035176
-0.00340244
-0.00330059
-0.00310182
-0.00286765
-0.00267348
-0.00254564
-0.00249999
-0.00254117
-0.00266643
-0.00286829
-0.00313565
-0.00345675
-0.00381893
-0.00420854
-0.00461149
-0.00501384
-0.00540252
-0.00576598
-0.00609321
-0.00637494
-0.0066065
-0.00678403
-0.00690533
-0.00697068
-0.00698105
-0.00693786
-0.00684269
-0.00669648
-0.00649932
-0.0062488
-0.00594034
-0.00556261
-0.00510638
-0.0045385
-0.00383189
-0.00286245
-0.00151717
0.00074059
0.00236527
0.00820455
-0.00348472
-0.00332148
-0.00303647
-0.00273008
-0.0024691
-0.00228933
-0.00220265
-0.00221379
-0.00231949
-0.00251145
-0.00277825
-0.00310513
-0.00347705
-0.00387938
-0.00429753
-0.00471723
-0.0051251
-0.00550916
-0.00585957
-0.00616768
-0.00642695
-0.00663256
-0.00678107
-0.00687166
-0.00690463
-0.00688058
-0.00680019
-0.00666322
-0.0064683
-0.006209
-0.00587599
-0.00544649
-0.00489469
-0.0041401
-0.00310995
-0.00155088
0.000684607
0.00433919
0.00837634
0.0179276
-0.0037893
-0.00345962
-0.00302357
-0.00260854
-0.00227537
-0.00204317
-0.00192154
-0.00191196
-0.00200804
-0.00219802
-0.00246852
-0.0028045
-0.00318996
-0.00360905
-0.00404631
-0.00448685
-0.00491668
-0.00532323
-0.00569609
-0.00602689
-0.00630825
-0.0065346
-0.00670203
-0.00680898
-0.00685512
-0.00684059
-0.00676529
-0.00662768
-0.00642494
-0.00614565
-0.00577289
-0.00526461
-0.00456818
-0.00354462
-0.00203735
0.000419189
0.00413641
0.0105095
0.0192608
0.0356782
-0.00467387
-0.00367606
-0.00296824
-0.00243825
-0.00204463
-0.00177749
-0.0016391
-0.00162614
-0.00172718
-0.00192616
-0.0022064
-0.00255316
-0.00295111
-0.00338432
-0.00383677
-0.00429312
-0.00473886
-0.00516119
-0.00554889
-0.00589311
-0.00618619
-0.00642272
-0.00659871
-0.00671251
-0.00676326
-0.00675101
-0.0066746
-0.00653124
-0.00631393
-0.00600874
-0.00559256
-0.00501519
-0.00418953
-0.0029361
-0.000934171
0.00261156
0.00850153
0.0192256
0.0354778
0.0614775
-0.00641696
-0.00258348
-0.00162606
-0.00130641
-0.00103057
-0.000818559
-0.000731688
-0.000780764
-0.00094676
-0.00120576
-0.00153788
-0.00192834
-0.00236365
-0.00282934
-0.00331002
-0.00379074
-0.00425733
-0.00469742
-0.0051
-0.00545649
-0.0057596
-0.00600454
-0.00618749
-0.00630718
-0.00636242
-0.00635344
-0.00627815
-0.00613306
-0.00590722
-0.00558209
-0.00512127
-0.00447336
-0.00356323
-0.00223117
5.59467e-05
0.00448921
0.0132783
0.0289941
0.0541931
0.0865344
)
;

boundaryField
{
    movingWall
    {
        type            zeroGradient;
    }
    fixedWalls
    {
        type            zeroGradient;
    }
    frontAndBack
    {
        type            empty;
    }
}


// ************************************************************************* //
