/*--------------------------------*- C++ -*----------------------------------*\
  =========                 |
  \\      /  F ield         | OpenFOAM: The Open Source CFD Toolbox
   \\    /   O peration     | Website:  https://openfoam.org
    \\  /    A nd           | Version:  13
     \\/     M anipulation  |
\*---------------------------------------------------------------------------*/
FoamFile
{
    format      ascii;
    class       volVectorField;
    location    "2.5";
    object      U;
}
// * * * * * * * * * * * * * * * * * * * * * * * * * * * * * * * * * * * * * //

dimensions      [0 1 -1 0 0 0 0];

internalField   nonuniform List<vector> 
1600
(
(0.000824506 -0.000798314 0)
(0.00317352 -0.00101579 0)
(0.00525805 -0.000929115 0)
(0.00685353 -0.000752285 0)
(0.00800833 -0.000657562 0)
(0.00886845 -0.000601071 0)
(0.00946202 -0.000510702 0)
(0.00965155 -0.000326851 0)
(0.0092382 -0.000171494 0)
(0.00808845 -6.63345e-05 0)
(0.00616612 -0.000172191 0)
(0.00347012 -0.00060817 0)
(-0.00104292 -0.000766052 0)
(-0.00802049 0.000184938 0)
(-0.0166864 0.00340053 0)
(-0.0312647 0.00790438 0)
(-0.0491399 0.00974779 0)
(-0.0657068 0.00934618 0)
(-0.0800894 0.00840303 0)
(-0.0922452 0.00715132 0)
(-0.10204 0.00583012 0)
(-0.109579 0.00449807 0)
(-0.114858 0.00317007 0)
(-0.117533 0.00197443 0)
(-0.118383 0.000694442 0)
(-0.11659 -0.00118856 0)
(-0.112115 -0.00256292 0)
(-0.104982 -0.00437522 0)
(-0.0948088 -0.0059098 0)
(-0.0820383 -0.00776765 0)
(-0.0664244 -0.00939846 0)
(-0.0485683 -0.0106087 0)
(-0.0292707 -0.0109558 0)
(-0.00934849 -0.00997615 0)
(0.00741675 -0.00806899 0)
(0.0192903 -0.00274558 0)
(0.0211216 0.00253492 0)
(0.0168356 0.00382538 0)
(0.00784765 0.0029643 0)
(0.00163317 0.00194442 0)
(0.00106817 -0.00326995 0)
(0.00382193 -0.00386151 0)
(0.00545572 -0.00294534 0)
(0.00625913 -0.00205806 0)
(0.00644444 -0.00147322 0)
(0.00610681 -0.00102513 0)
(0.00511718 -0.000444201 0)
(0.00314679 0.00044039 0)
(-0.000208958 0.00161506 0)
(-0.0055612 0.00311679 0)
(-0.0138874 0.00525224 0)
(-0.0265898 0.00863093 0)
(-0.0441619 0.0134004 0)
(-0.0649023 0.0191527 0)
(-0.0840723 0.0238197 0)
(-0.0999584 0.0250866 0)
(-0.114336 0.0239486 0)
(-0.126256 0.0214466 0)
(-0.136184 0.018346 0)
(-0.144061 0.0149859 0)
(-0.149997 0.0115993 0)
(-0.154047 0.00822578 0)
(-0.156228 0.00488061 0)
(-0.156547 0.00152505 0)
(-0.155065 -0.00200464 0)
(-0.151502 -0.00577436 0)
(-0.14589 -0.0096841 0)
(-0.138019 -0.0138474 0)
(-0.127636 -0.0181397 0)
(-0.114496 -0.0224988 0)
(-0.098846 -0.0266744 0)
(-0.080691 -0.0299201 0)
(-0.0604428 -0.0312505 0)
(-0.0392947 -0.0296003 0)
(-0.0184859 -0.0238766 0)
(-0.000214767 -0.012269 0)
(0.0120912 0.00134136 0)
(0.0128907 0.00854128 0)
(0.00784284 0.0102854 0)
(0.00140969 0.00721158 0)
(0.0010011 -0.00550236 0)
(0.00233166 -0.00537369 0)
(0.00232287 -0.00338762 0)
(0.00153073 -0.00169987 0)
(-6.65011e-06 -0.00046084 0)
(-0.00250413 0.000804625 0)
(-0.00641939 0.00260908 0)
(-0.0124231 0.00537906 0)
(-0.0213239 0.00947932 0)
(-0.0339705 0.0151672 0)
(-0.0503871 0.0220886 0)
(-0.068736 0.0288101 0)
(-0.0874435 0.0339898 0)
(-0.104549 0.0370237 0)
(-0.118793 0.0378919 0)
(-0.130452 0.0365575 0)
(-0.140011 0.0335641 0)
(-0.147664 0.0294901 0)
(-0.153837 0.0248952 0)
(-0.158555 0.0200839 0)
(-0.161966 0.0152534 0)
(-0.164096 0.010435 0)
(-0.164995 0.00555607 0)
(-0.164577 0.000684379 0)
(-0.162809 -0.00439098 0)
(-0.159733 -0.00969317 0)
(-0.15522 -0.0153982 0)
(-0.149125 -0.0216453 0)
(-0.141272 -0.0283274 0)
(-0.131347 -0.035268 0)
(-0.118984 -0.0419535 0)
(-0.10421 -0.0476918 0)
(-0.0867272 -0.0509982 0)
(-0.0674365 -0.0506259 0)
(-0.0465688 -0.0440838 0)
(-0.0248444 -0.0292327 0)
(-0.00466485 -0.00741756 0)
(0.00378278 0.00821298 0)
(0.00314293 0.0135194 0)
(0.000575517 0.0105435 0)
(0.000611916 -0.00650586 0)
(-4.82078e-05 -0.00503226 0)
(-0.00188978 -0.0020291 0)
(-0.00449799 0.000432136 0)
(-0.00816878 0.00269735 0)
(-0.0134023 0.00554928 0)
(-0.0208928 0.00971604 0)
(-0.0313029 0.0156274 0)
(-0.044934 0.023262 0)
(-0.0612486 0.0317797 0)
(-0.0788436 0.0397336 0)
(-0.0961283 0.0459518 0)
(-0.111527 0.049359 0)
(-0.124015 0.0499792 0)
(-0.133886 0.048456 0)
(-0.141761 0.0451275 0)
(-0.148014 0.0406019 0)
(-0.152912 0.0353274 0)
(-0.156646 0.0296928 0)
(-0.159673 0.0236316 0)
(-0.161864 0.0176042 0)
(-0.163171 0.011584 0)
(-0.163525 0.00564009 0)
(-0.162936 -0.000429919 0)
(-0.161396 -0.00665635 0)
(-0.158924 -0.0131334 0)
(-0.155443 -0.0200186 0)
(-0.150879 -0.0274192 0)
(-0.145128 -0.0355087 0)
(-0.138093 -0.0443177 0)
(-0.129585 -0.0535571 0)
(-0.119375 -0.0625298 0)
(-0.106751 -0.0694451 0)
(-0.090647 -0.071642 0)
(-0.0716352 -0.0670357 0)
(-0.0490901 -0.0520168 0)
(-0.0227786 -0.0242255 0)
(-0.00448393 0.00194725 0)
(-0.000248667 0.0128757 0)
(0.000199536 0.0113924 0)
(-0.00019965 -0.00601091 0)
(-0.00286951 -0.00276549 0)
(-0.00650203 0.00121891 0)
(-0.0110621 0.00470292 0)
(-0.0170815 0.0085086 0)
(-0.025099 0.0136117 0)
(-0.0356866 0.0206105 0)
(-0.0490664 0.0294856 0)
(-0.0646406 0.0393163 0)
(-0.0810748 0.0485828 0)
(-0.0971094 0.0558911 0)
(-0.111114 0.0600957 0)
(-0.122317 0.0610411 0)
(-0.131147 0.0594293 0)
(-0.137995 0.0559499 0)
(-0.143349 0.051066 0)
(-0.147476 0.0452903 0)
(-0.150784 0.0388519 0)
(-0.153352 0.0321222 0)
(-0.15503 0.0254553 0)
(-0.155834 0.0187339 0)
(-0.155925 0.012007 0)
(-0.155433 0.00527942 0)
(-0.154419 -0.00151993 0)
(-0.152922 -0.00846362 0)
(-0.150827 -0.0157211 0)
(-0.148207 -0.023456 0)
(-0.145005 -0.0318125 0)
(-0.141168 -0.0408781 0)
(-0.13656 -0.050632 0)
(-0.130965 -0.0608669 0)
(-0.124055 -0.0712136 0)
(-0.115618 -0.0810723 0)
(-0.104797 -0.0880263 0)
(-0.0896951 -0.0878701 0)
(-0.0697841 -0.0772791 0)
(-0.0435741 -0.0514032 0)
(-0.013049 -0.0118527 0)
(-0.00133429 0.00892596 0)
(0.000596648 0.0112767 0)
(-0.00116168 -0.00371896 0)
(-0.00570728 0.00146577 0)
(-0.0109976 0.00642443 0)
(-0.01746 0.0111302 0)
(-0.0255886 0.0167651 0)
(-0.0357608 0.024222 0)
(-0.0483016 0.0337306 0)
(-0.0628114 0.0445401 0)
(-0.0781441 0.0550472 0)
(-0.093113 0.0637314 0)
(-0.106233 0.0691689 0)
(-0.116617 0.0708161 0)
(-0.124699 0.0695001 0)
(-0.130984 0.0660737 0)
(-0.135746 0.0610725 0)
(-0.139333 0.0549728 0)
(-0.141959 0.0481584 0)
(-0.143663 0.0409991 0)
(-0.144636 0.0336155 0)
(-0.144912 0.0261994 0)
(-0.144718 0.0188247 0)
(-0.144101 0.0115663 0)
(-0.143074 0.00438882 0)
(-0.141706 -0.00279261 0)
(-0.140021 -0.0100838 0)
(-0.138057 -0.017664 0)
(-0.13589 -0.0257035 0)
(-0.133544 -0.034395 0)
(-0.131024 -0.0439049 0)
(-0.128265 -0.0543227 0)
(-0.125107 -0.0655666 0)
(-0.121271 -0.0772592 0)
(-0.116276 -0.0885523 0)
(-0.109264 -0.0980931 0)
(-0.0991819 -0.103661 0)
(-0.0836697 -0.0995413 0)
(-0.0614045 -0.0806381 0)
(-0.0291555 -0.0406121 0)
(-0.0037786 -0.00108157 0)
(0.00109501 0.0107439 0)
(-0.00201962 0.000335298 0)
(-0.00823491 0.007467 0)
(-0.0149678 0.0133527 0)
(-0.0229908 0.0193518 0)
(-0.0326438 0.0267848 0)
(-0.0441429 0.0363131 0)
(-0.0573975 0.0476033 0)
(-0.0715505 0.0591221 0)
(-0.0855609 0.0692486 0)
(-0.0981313 0.0763183 0)
(-0.108169 0.0792884 0)
(-0.115805 0.0787092 0)
(-0.121667 0.0756157 0)
(-0.126056 0.0707101 0)
(-0.129189 0.0644872 0)
(-0.131315 0.0573852 0)
(-0.1326 0.0497333 0)
(-0.133183 0.0418146 0)
(-0.13321 0.033811 0)
(-0.132761 0.0258915 0)
(-0.131924 0.018116 0)
(-0.130741 0.0105014 0)
(-0.12926 0.00301687 0)
(-0.127548 -0.00440691 0)
(-0.125663 -0.0118751 0)
(-0.123684 -0.0195489 0)
(-0.1217 -0.027608 0)
(-0.119788 -0.036261 0)
(-0.118001 -0.0457153 0)
(-0.116341 -0.0561389 0)
(-0.114718 -0.0675969 0)
(-0.112909 -0.0799645 0)
(-0.110496 -0.0927209 0)
(-0.106741 -0.104646 0)
(-0.100408 -0.113618 0)
(-0.0898374 -0.116219 0)
(-0.072853 -0.106062 0)
(-0.0469089 -0.0750712 0)
(-0.0105796 -0.0179859 0)
(0.00190475 0.00931409 0)
(-0.00280235 0.00591285 0)
(-0.0102755 0.0148602 0)
(-0.0180631 0.0216142 0)
(-0.0271397 0.0288143 0)
(-0.0376864 0.0377959 0)
(-0.0496454 0.0488992 0)
(-0.0625457 0.0610015 0)
(-0.0755718 0.0723848 0)
(-0.087672 0.0813041 0)
(-0.0976785 0.0861873 0)
(-0.105258 0.0869095 0)
(-0.110936 0.0845126 0)
(-0.115182 0.0799559 0)
(-0.118175 0.0738019 0)
(-0.120126 0.0665399 0)
(-0.121248 0.0585814 0)
(-0.121694 0.0502346 0)
(-0.121595 0.0417491 0)
(-0.121056 0.0332927 0)
(-0.120138 0.0249909 0)
(-0.11889 0.0168879 0)
(-0.117354 0.00899361 0)
(-0.115579 0.00128467 0)
(-0.11363 -0.00629618 0)
(-0.11158 -0.0138442 0)
(-0.109525 -0.0215005 0)
(-0.107572 -0.0294428 0)
(-0.105832 -0.0378885 0)
(-0.1044 -0.0470789 0)
(-0.103327 -0.057248 0)
(-0.102585 -0.0685602 0)
(-0.102021 -0.0810219 0)
(-0.101269 -0.0943618 0)
(-0.0996547 -0.107787 0)
(-0.0960909 -0.119659 0)
(-0.0890748 -0.126982 0)
(-0.0770604 -0.12469 0)
(-0.057213 -0.104507 0)
(-0.0235955 -0.0495898 0)
(0.00114511 0.00274295 0)
(-0.0033751 0.0125343 0)
(-0.0116771 0.0232338 0)
(-0.0200823 0.0307341 0)
(-0.0296884 0.038918 0)
(-0.0405116 0.0491113 0)
(-0.0521689 0.0610966 0)
(-0.0641207 0.0732786 0)
(-0.0755942 0.083929 0)
(-0.085641 0.091122 0)
(-0.0934632 0.0938587 0)
(-0.0992334 0.0926845 0)
(-0.103517 0.0887994 0)
(-0.106596 0.0830037 0)
(-0.10862 0.0758022 0)
(-0.109801 0.0676876 0)
(-0.110317 0.0590442 0)
(-0.110297 0.0501518 0)
(-0.109843 0.0412222 0)
(-0.109024 0.0323956 0)
(-0.10788 0.0237656 0)
(-0.10644 0.0153736 0)
(-0.104736 0.007234 0)
(-0.102811 -0.000665282 0)
(-0.100724 -0.00836699 0)
(-0.0985521 -0.0159492 0)
(-0.0963949 -0.0235316 0)
(-0.0943728 -0.0312802 0)
(-0.0926178 -0.0394116 0)
(-0.0912588 -0.0481884 0)
(-0.0903943 -0.0579011 0)
(-0.0900544 -0.0688248 0)
(-0.0901531 -0.0811276 0)
(-0.0904266 -0.0947507 0)
(-0.0902881 -0.109203 0)
(-0.0887223 -0.123195 0)
(-0.0842661 -0.134212 0)
(-0.0757144 -0.137484 0)
(-0.0608983 -0.126903 0)
(-0.0365114 -0.0867024 0)
(-0.00313038 -0.0101206 0)
(-0.00367796 0.0198019 0)
(-0.0123842 0.0321515 0)
(-0.0209794 0.0402265 0)
(-0.0306601 0.0491365 0)
(-0.0411965 0.0601134 0)
(-0.0520408 0.0723518 0)
(-0.0627073 0.0841615 0)
(-0.0725325 0.0936381 0)
(-0.0806773 0.099011 0)
(-0.0867961 0.0998457 0)
(-0.09127 0.0971223 0)
(-0.0945575 0.0920052 0)
(-0.0968282 0.0851673 0)
(-0.0982374 0.0771106 0)
(-0.0989787 0.0683149 0)
(-0.0991926 0.059129 0)
(-0.0989801 0.049799 0)
(-0.0984109 0.0405017 0)
(-0.0975234 0.0313518 0)
(-0.0963366 0.0224236 0)
(-0.0948658 0.0137583 0)
(-0.0931322 0.00537805 0)
(-0.0911696 -0.00271531 0)
(-0.0890304 -0.0105454 0)
(-0.0867889 -0.018168 0)
(-0.0845445 -0.0256791 0)
(-0.0824202 -0.0332251 0)
(-0.0805581 -0.0410125 0)
(-0.0791067 -0.0493131 0)
(-0.0781994 -0.0584567 0)
(-0.0779168 -0.0688004 0)
(-0.0782358 -0.08066 0)
(-0.0789769 -0.0941851 0)
(-0.0797062 -0.109216 0)
(-0.0795112 -0.124891 0)
(-0.0768958 -0.139095 0)
(-0.0710108 -0.146693 0)
(-0.05975 -0.143204 0)
(-0.0418705 -0.114601 0)
(-0.010516 -0.026791 0)
(-0.00371043 0.0273035 0)
(-0.0124146 0.0411934 0)
(-0.0208426 0.049664 0)
(-0.030194 0.059032 0)
(-0.040021 0.0703275 0)
(-0.049762 0.0824155 0)
(-0.059008 0.0935301 0)
(-0.0672197 0.101654 0)
(-0.0737731 0.105327 0)
(-0.0785948 0.104573 0)
(-0.0821399 0.1006 0)
(-0.0847237 0.0944625 0)
(-0.0864703 0.0867704 0)
(-0.0875329 0.0780303 0)
(-0.0880742 0.0686951 0)
(-0.0881994 0.0590773 0)
(-0.0879779 0.0493888 0)
(-0.0874495 0.039774 0)
(-0.0866289 0.0303267 0)
(-0.0855198 0.0211111 0)
(-0.0841252 0.0121701 0)
(-0.0824558 0.0035362 0)
(-0.0805368 -0.00477148 0)
(-0.0784148 -0.0127558 0)
(-0.076161 -0.0204478 0)
(-0.0738722 -0.0279184 0)
(-0.0716694 -0.0352911 0)
(-0.0696948 -0.0427561 0)
(-0.0681039 -0.050583 0)
(-0.0670493 -0.0591269 0)
(-0.0666489 -0.0688133 0)
(-0.0669353 -0.0800839 0)
(-0.0677951 -0.0932817 0)
(-0.0689179 -0.108492 0)
(-0.0695657 -0.125296 0)
(-0.0683612 -0.14214 0)
(-0.0638714 -0.154011 0)
(-0.0554105 -0.156221 0)
(-0.0397571 -0.137392 0)
(-0.0148659 -0.0629791 0)
(-0.00350297 0.0346397 0)
(-0.0118549 0.0499843 0)
(-0.0198234 0.0586998 0)
(-0.0285179 0.0682422 0)
(-0.037371 0.0794895 0)
(-0.0458477 0.0911603 0)
(-0.05367 0.101396 0)
(-0.0604212 0.108201 0)
(-0.0656038 0.110373 0)
(-0.0694803 0.108366 0)
(-0.0723407 0.103389 0)
(-0.0744385 0.0964205 0)
(-0.075868 0.088047 0)
(-0.0767684 0.0787712 0)
(-0.0772656 0.0690128 0)
(-0.0774316 0.0590476 0)
(-0.0773074 0.0490549 0)
(-0.0769094 0.0391528 0)
(-0.076235 0.0294201 0)
(-0.0752743 0.0199164 0)
(-0.0740192 0.0106897 0)
(-0.0724728 0.00178272 0)
(-0.070654 -0.00676544 0)
(-0.0686049 -0.0149337 0)
(-0.066395 -0.0227278 0)
(-0.0641187 -0.030194 0)
(-0.0618931 -0.0374333 0)
(-0.0598546 -0.0446179 0)
(-0.0581544 -0.0520078 0)
(-0.0569494 -0.0599679 0)
(-0.0563799 -0.0689715 0)
(-0.0565232 -0.079567 0)
(-0.0573272 -0.0922777 0)
(-0.0585537 -0.107417 0)
(-0.0596611 -0.124899 0)
(-0.0594852 -0.143692 0)
(-0.0560077 -0.15998 0)
(-0.0498663 -0.166062 0)
(-0.0362607 -0.155775 0)
(-0.013183 -0.0914077 0)
(-0.0031166 0.0414827 0)
(-0.0108292 0.0582039 0)
(-0.0181012 0.0670302 0)
(-0.0259049 0.076511 0)
(-0.0336274 0.087465 0)
(-0.0407822 0.0985455 0)
(-0.0472555 0.107886 0)
(-0.052621 0.113436 0)
(-0.0567281 0.114429 0)
(-0.0598474 0.111445 0)
(-0.0621893 0.105679 0)
(-0.0639487 0.0980566 0)
(-0.0651956 0.089156 0)
(-0.0660437 0.0794686 0)
(-0.066582 0.0693774 0)
(-0.0668537 0.0591262 0)
(-0.0668774 0.0488673 0)
(-0.0666512 0.0386982 0)
(-0.0661597 0.0286866 0)
(-0.0653822 0.0188895 0)
(-0.0643011 0.00936331 0)
(-0.0629139 0.00016474 0)
(-0.0612364 -0.00864761 0)
(-0.0593069 -0.0170257 0)
(-0.0571945 -0.0249491 0)
(-0.0549926 -0.0324408 0)
(-0.0528152 -0.0395824 0)
(-0.0507907 -0.0465305 0)
(-0.0490596 -0.053534 0)
(-0.0477705 -0.0609567 0)
(-0.0470697 -0.0692987 0)
(-0.0470654 -0.0791911 0)
(-0.0477614 -0.0913174 0)
(-0.0489763 -0.106223 0)
(-0.0502998 -0.124085 0)
(-0.050745 -0.144262 0)
(-0.0484722 -0.164502 0)
(-0.0431097 -0.174979 0)
(-0.0319319 -0.17138 0)
(-0.0116969 -0.117084 0)
(-0.00256597 0.0475217 0)
(-0.00942037 0.0656131 0)
(-0.0158445 0.0744715 0)
(-0.0226211 0.0837291 0)
(-0.0291355 0.0942105 0)
(-0.0349709 0.104604 0)
(-0.040188 0.113106 0)
(-0.0442215 0.117502 0)
(-0.0474654 0.11766 0)
(-0.0499499 0.113955 0)
(-0.0518759 0.107598 0)
(-0.0533841 0.0994828 0)
(-0.0545205 0.090189 0)
(-0.055366 0.0801899 0)
(-0.055977 0.0698367 0)
(-0.0563733 0.059347 0)
(-0.056555 0.0488511 0)
(-0.0565072 0.0384311 0)
(-0.0562055 0.0281465 0)
(-0.0556226 0.0180538 0)
(-0.054734 0.00821802 0)
(-0.0535316 -0.00128584 0)
(-0.0520286 -0.0103784 0)
(-0.050262 -0.0189838 0)
(-0.0483 -0.0270541 0)
(-0.0462369 -0.0345898 0)
(-0.0441844 -0.0416572 0)
(-0.0422639 -0.0484025 0)
(-0.0406022 -0.0550663 0)
(-0.0393325 -0.062007 0)
(-0.0385932 -0.0697341 0)
(-0.0385072 -0.0789326 0)
(-0.0391225 -0.0904213 0)
(-0.0403199 -0.104977 0)
(-0.0417591 -0.123043 0)
(-0.0426169 -0.14437 0)
(-0.0414821 -0.167053 0)
(-0.0367257 -0.182772 0)
(-0.0279596 -0.184111 0)
(-0.0098491 -0.138308 0)
(-0.00194415 0.0525878 0)
(-0.00776193 0.0720328 0)
(-0.0132213 0.0809004 0)
(-0.0188879 0.0898027 0)
(-0.0241696 0.0996876 0)
(-0.028724 0.109364 0)
(-0.032733 0.117103 0)
(-0.0355722 0.120577 0)
(-0.0380439 0.120173 0)
(-0.0399571 0.115978 0)
(-0.0415146 0.109212 0)
(-0.0428067 0.100752 0)
(-0.0438535 0.0911802 0)
(-0.0447017 0.0809529 0)
(-0.0453787 0.0703962 0)
(-0.0458847 0.0597071 0)
(-0.0462063 0.0490001 0)
(-0.0463202 0.0383461 0)
(-0.0461963 0.0277991 0)
(-0.0458041 0.0174165 0)
(-0.0451164 0.0072715 0)
(-0.044119 -0.00254219 0)
(-0.0428225 -0.0119207 0)
(-0.0412631 -0.0207601 0)
(-0.039508 -0.0289836 0)
(-0.0376519 -0.0365697 0)
(-0.0358052 -0.0435727 0)
(-0.0340823 -0.050135 0)
(-0.0325967 -0.0564948 0)
(-0.0314629 -0.0630054 0)
(-0.0308029 -0.0701744 0)
(-0.0307395 -0.0787148 0)
(-0.031352 -0.0895488 0)
(-0.0325812 -0.103667 0)
(-0.0341291 -0.121778 0)
(-0.0353434 -0.143987 0)
(-0.0349689 -0.168855 0)
(-0.030887 -0.189551 0)
(-0.0245266 -0.195 0)
(-0.00859014 -0.156929 0)
(-0.00127898 0.0565973 0)
(-0.00594689 0.0773311 0)
(-0.010388 0.086217 0)
(-0.0149152 0.0946955 0)
(-0.0189827 0.103935 0)
(-0.0223146 0.112919 0)
(-0.0251183 0.119928 0)
(-0.026909 0.12274 0)
(-0.0286163 0.122012 0)
(-0.0299838 0.117547 0)
(-0.0311768 0.110542 0)
(-0.0322465 0.101871 0)
(-0.0331859 0.0921232 0)
(-0.0340095 0.0817407 0)
(-0.0347185 0.0710313 0)
(-0.0352971 0.0601786 0)
(-0.0357223 0.0492873 0)
(-0.0359657 0.038421 0)
(-0.0359953 0.0276304 0)
(-0.0357798 0.0169748 0)
(-0.0352926 0.00653519 0)
(-0.034517 -0.00357817 0)
(-0.0334596 -0.0132351 0)
(-0.0321555 -0.0223023 0)
(-0.0306698 -0.0306732 0)
(-0.0290955 -0.0383042 0)
(-0.02754 -0.0452412 0)
(-0.0261104 -0.0516283 0)
(-0.0249065 -0.0577077 0)
(-0.024024 -0.063831 0)
(-0.0235651 -0.0704984 0)
(-0.0236434 -0.07843 0)
(-0.0243575 -0.0886179 0)
(-0.0257027 -0.102237 0)
(-0.0274333 -0.120279 0)
(-0.0290195 -0.143142 0)
(-0.0292891 -0.16963 0)
(-0.0264525 -0.194751 0)
(-0.020897 -0.204541 0)
(-0.00743319 -0.172649 0)
(-0.000550994 0.0593024 0)
(-0.00405345 0.0814557 0)
(-0.00746036 0.0903987 0)
(-0.0108593 0.0984332 0)
(-0.0137612 0.107002 0)
(-0.0159219 0.115293 0)
(-0.0175405 0.121642 0)
(-0.0184298 0.124064 0)
(-0.019328 0.123175 0)
(-0.0201264 0.118643 0)
(-0.0209205 0.111566 0)
(-0.0217288 0.102812 0)
(-0.022515 0.0929815 0)
(-0.0232633 0.0825112 0)
(-0.0239521 0.0716972 0)
(-0.0245523 0.0607174 0)
(-0.0250334 0.0496722 0)
(-0.0253645 0.0386222 0)
(-0.0255147 0.027617 0)
(-0.0254548 0.0167184 0)
(-0.0251612 0.00601497 0)
(-0.0246194 -0.00436915 0)
(-0.0238336 -0.0142789 0)
(-0.0228362 -0.0235512 0)
(-0.0216885 -0.0320496 0)
(-0.020478 -0.0397096 0)
(-0.0193045 -0.0465704 0)
(-0.0182647 -0.0527825 0)
(-0.0174443 -0.0585974 0)
(-0.016921 -0.0643684 0)
(-0.0167765 -0.0705865 0)
(-0.0171104 -0.0779633 0)
(-0.0180296 -0.087528 0)
(-0.0195737 -0.10061 0)
(-0.0215609 -0.118492 0)
(-0.0235223 -0.141878 0)
(-0.0243218 -0.169871 0)
(-0.0225328 -0.198669 0)
(-0.0184003 -0.212594 0)
(-0.00655688 -0.186514 0)
(0.000113649 0.0609546 0)
(-0.00215179 0.0844353 0)
(-0.00453432 0.0934619 0)
(-0.00684715 0.101053 0)
(-0.00864835 0.108943 0)
(-0.00970373 0.116532 0)
(-0.0101945 0.122319 0)
(-0.0102422 0.124566 0)
(-0.010316 0.123634 0)
(-0.0104885 0.119224 0)
(-0.0108167 0.112233 0)
(-0.0112959 0.103519 0)
(-0.0118608 0.0936982 0)
(-0.0124667 0.0832061 0)
(-0.0130716 0.0723375 0)
(-0.0136344 0.0612705 0)
(-0.014118 0.0501072 0)
(-0.0144904 0.0389095 0)
(-0.0147236 0.0277292 0)
(-0.0147938 0.0166314 0)
(-0.014683 0.0057116 0)
(-0.0143821 -0.00489394 0)
(-0.0138972 -0.0150098 0)
(-0.0132579 -0.0244452 0)
(-0.0125193 -0.033036 0)
(-0.0117583 -0.0406979 0)
(-0.0110605 -0.0474657 0)
(-0.010507 -0.0534988 0)
(-0.0101668 -0.059062 0)
(-0.010099 -0.0645129 0)
(-0.0103678 -0.0703311 0)
(-0.0110585 -0.0772095 0)
(-0.0122791 -0.0861884 0)
(-0.014103 -0.098712 0)
(-0.0164137 -0.11635 0)
(-0.0187858 -0.140135 0)
(-0.0201686 -0.169586 0)
(-0.0193643 -0.201262 0)
(-0.0161385 -0.219479 0)
(-0.00580054 -0.198629 0)
(0.000904031 0.0611032 0)
(-0.000306501 0.0862309 0)
(-0.00167927 0.095435 0)
(-0.00297885 0.102614 0)
(-0.00375942 0.109831 0)
(-0.00380739 0.11672 0)
(-0.00326849 0.122023 0)
(-0.00245096 0.124242 0)
(-0.00169127 0.123371 0)
(-0.00116131 0.119205 0)
(-0.000948724 0.112455 0)
(-0.00101653 0.103909 0)
(-0.00127817 0.0941926 0)
(-0.00166344 0.0837521 0)
(-0.0021134 0.0728859 0)
(-0.00257566 0.061779 0)
(-0.00300671 0.0505411 0)
(-0.00337413 0.0392406 0)
(-0.00365357 0.0279348 0)
(-0.00382799 0.0166945 0)
(-0.00388783 0.0056223 0)
(-0.00383252 -0.00513536 0)
(-0.00367355 -0.0153875 0)
(-0.00343969 -0.0249211 0)
(-0.0031784 -0.03355 0)
(-0.00295005 -0.0411757 0)
(-0.00281835 -0.047831 0)
(-0.00284126 -0.0536844 0)
(-0.00306673 -0.0590123 0)
(-0.00353592 -0.0641757 0)
(-0.00429793 -0.0696417 0)
(-0.00542631 -0.0760781 0)
(-0.0070265 -0.0845165 0)
(-0.0091973 -0.0964838 0)
(-0.0118843 -0.11381 0)
(-0.0146947 -0.137871 0)
(-0.0166968 -0.168606 0)
(-0.016776 -0.203001 0)
(-0.0145353 -0.225286 0)
(-0.00523306 -0.209509 0)
(0.0013984 0.0603403 0)
(0.0013803 0.0869305 0)
(0.00100001 0.0963801 0)
(0.000653547 0.103192 0)
(0.000805868 0.109759 0)
(0.00166218 0.11597 0)
(0.00311598 0.120812 0)
(0.00481589 0.123034 0)
(0.00642946 0.122294 0)
(0.00769019 0.118559 0)
(0.00854954 0.112153 0)
(0.00899733 0.103894 0)
(0.00913757 0.094385 0)
(0.00905898 0.0840756 0)
(0.00883873 0.0732757 0)
(0.0085411 0.0621847 0)
(0.00821555 0.050925 0)
(0.00789541 0.039576 0)
(0.0076014 0.0282048 0)
(0.00734325 0.0168906 0)
(0.00712068 0.00574431 0)
(0.00692407 -0.00507865 0)
(0.00673399 -0.0153764 0)
(0.00652042 -0.0249222 0)
(0.00624587 -0.0335185 0)
(0.00587173 -0.0410608 0)
(0.00536347 -0.0475828 0)
(0.0046925 -0.0532592 0)
(0.00383442 -0.0583728 0)
(0.00276482 -0.0632848 0)
(0.00144938 -0.0684477 0)
(-0.000174869 -0.0744996 0)
(-0.0022122 -0.0824468 0)
(-0.00478224 -0.0938714 0)
(-0.00788573 -0.110839 0)
(-0.011161 -0.135092 0)
(-0.0137799 -0.16697 0)
(-0.0146584 -0.203833 0)
(-0.0132212 -0.23022 0)
(-0.004768 -0.219321 0)
(0.00189507 0.0585042 0)
(0.00293472 0.0865674 0)
(0.00346003 0.0963644 0)
(0.00398525 0.102871 0)
(0.00496947 0.108823 0)
(0.00662314 0.114372 0)
(0.00888035 0.118756 0)
(0.0114103 0.120943 0)
(0.0138633 0.120434 0)
(0.015926 0.11713 0)
(0.0175194 0.111216 0)
(0.0185863 0.103373 0)
(0.0192307 0.0941807 0)
(0.0195526 0.0840946 0)
(0.0196424 0.0734388 0)
(0.019575 0.0624319 0)
(0.019406 0.0512144 0)
(0.0191706 0.0398825 0)
(0.0188868 0.028517 0)
(0.0185578 0.0172089 0)
(0.0181738 0.00607897 0)
(0.0177148 -0.00470976 0)
(0.0171537 -0.0149492 0)
(0.0164599 -0.0244086 0)
(0.0156075 -0.0328909 0)
(0.0145826 -0.0402946 0)
(0.0133837 -0.0466584 0)
(0.0120162 -0.0521619 0)
(0.0104831 -0.0570882 0)
(0.00877646 -0.0617905 0)
(0.00687282 -0.0667019 0)
(0.00471763 -0.0724259 0)
(0.00220685 -0.0799344 0)
(-0.000795749 -0.0908382 0)
(-0.00433827 -0.107411 0)
(-0.00809891 -0.131781 0)
(-0.0113312 -0.164699 0)
(-0.0129552 -0.203911 0)
(-0.0123107 -0.234429 0)
(-0.00443127 -0.228365 0)
(0.00232314 0.0556125 0)
(0.00432287 0.0852196 0)
(0.00566242 0.0954721 0)
(0.00696094 0.101746 0)
(0.00867077 0.107128 0)
(0.0110108 0.112032 0)
(0.0139543 0.115941 0)
(0.0172256 0.118027 0)
(0.0204696 0.117749 0)
(0.0233723 0.114887 0)
(0.0257579 0.109554 0)
(0.0275405 0.102241 0)
(0.0287898 0.0934763 0)
(0.0296072 0.0837153 0)
(0.0300905 0.0732972 0)
(0.0303214 0.0624597 0)
(0.0303601 0.0513654 0)
(0.0302441 0.0401309 0)
(0.0299904 0.0288552 0)
(0.0295971 0.0176446 0)
(0.0290472 0.00663185 0)
(0.0283123 -0.00401353 0)
(0.0273599 -0.0140822 0)
(0.0261636 -0.023349 0)
(0.0247116 -0.0316301 0)
(0.0230159 -0.0388387 0)
(0.021109 -0.0450232 0)
(0.0190298 -0.0503638 0)
(0.0168083 -0.0551351 0)
(0.0144554 -0.0596727 0)
(0.0119559 -0.0643843 0)
(0.00925898 -0.0698344 0)
(0.00626158 -0.0769536 0)
(0.00281223 -0.0873586 0)
(-0.00117876 -0.103509 0)
(-0.00543454 -0.127945 0)
(-0.00925894 -0.161819 0)
(-0.0115479 -0.203224 0)
(-0.0116223 -0.238065 0)
(-0.0041566 -0.236789 0)
(0.00260347 0.0519846 0)
(0.00548379 0.0830066 0)
(0.00755579 0.0937958 0)
(0.00953445 0.0999164 0)
(0.0118684 0.104784 0)
(0.0147828 0.109065 0)
(0.0182946 0.112477 0)
(0.0221917 0.114381 0)
(0.0261509 0.114254 0)
(0.0298463 0.111822 0)
(0.0330402 0.107091 0)
(0.0356063 0.100394 0)
(0.0375548 0.0921715 0)
(0.0389607 0.0828487 0)
(0.0399194 0.0727744 0)
(0.0405156 0.0622076 0)
(0.0408125 0.0513343 0)
(0.0408499 0.0402944 0)
(0.0406445 0.0292075 0)
(0.040191 0.018198 0)
(0.039469 0.00741169 0)
(0.0384447 -0.00297621 0)
(0.0370873 -0.0127611 0)
(0.0353814 -0.0217331 0)
(0.0333333 -0.0297326 0)
(0.0309809 -0.0366952 0)
(0.0283876 -0.0426817 0)
(0.0256213 -0.0478697 0)
(0.0227352 -0.0525181 0)
(0.019756 -0.0569368 0)
(0.016677 -0.0614985 0)
(0.0134511 -0.066726 0)
(0.00997393 -0.0735016 0)
(0.00608089 -0.0834313 0)
(0.00164368 -0.0991325 0)
(-0.00311338 -0.123585 0)
(-0.00751059 -0.158363 0)
(-0.010379 -0.201788 0)
(-0.0111668 -0.241289 0)
(-0.00394716 -0.24478 0)
(0.00271886 0.0477733 0)
(0.00637643 0.0800288 0)
(0.00909746 0.0914213 0)
(0.0116714 0.0974741 0)
(0.0145362 0.101895 0)
(0.0179207 0.105588 0)
(0.0218846 0.108483 0)
(0.0262806 0.110124 0)
(0.0308257 0.110049 0)
(0.0352086 0.10797 0)
(0.0391682 0.103809 0)
(0.0425239 0.0977629 0)
(0.045224 0.0901709 0)
(0.0472963 0.0814026 0)
(0.0488081 0.0717938 0)
(0.0498357 0.0616163 0)
(0.050442 0.0510792 0)
(0.0506675 0.040347 0)
(0.0505292 0.0295621 0)
(0.0500214 0.018869 0)
(0.049127 0.00842399 0)
(0.0478109 -0.00159662 0)
(0.0460542 -0.0109882 0)
(0.0438587 -0.0195743 0)
(0.0412505 -0.027225 0)
(0.0382935 -0.0339017 0)
(0.035075 -0.0396772 0)
(0.031684 -0.044723 0)
(0.0281912 -0.0492765 0)
(0.024636 -0.0536148 0)
(0.0210193 -0.0580713 0)
(0.017297 -0.0631196 0)
(0.013366 -0.0695921 0)
(0.00905251 -0.0790691 0)
(0.00418999 -0.0943 0)
(-0.00105529 -0.11871 0)
(-0.0060129 -0.154356 0)
(-0.00938861 -0.1998 0)
(-0.0110611 -0.2439 0)
(-0.00351929 -0.252561 0)
(0.00266717 0.0431776 0)
(0.00697471 0.0763972 0)
(0.010253 0.088433 0)
(0.0133466 0.094502 0)
(0.0166594 0.0985544 0)
(0.0204202 0.101706 0)
(0.024728 0.104084 0)
(0.0294891 0.105397 0)
(0.0344723 0.10528 0)
(0.0394058 0.103439 0)
(0.0440202 0.0997654 0)
(0.0480986 0.0943501 0)
(0.0515301 0.0874286 0)
(0.0542883 0.0793042 0)
(0.0563993 0.0702784 0)
(0.0579119 0.0606185 0)
(0.0588757 0.0505479 0)
(0.0593265 0.0402531 0)
(0.0592818 0.0298976 0)
(0.0587386 0.019645 0)
(0.0576868 0.00966201 0)
(0.0561082 0.000120975 0)
(0.0539955 -0.00878865 0)
(0.0513652 -0.0169185 0)
(0.048272 -0.0241714 0)
(0.0448013 -0.0305346 0)
(0.041055 -0.0360904 0)
(0.0371349 -0.041001 0)
(0.0331226 -0.0454792 0)
(0.0290669 -0.0497673 0)
(0.0249731 -0.0541516 0)
(0.020804 -0.0590553 0)
(0.0164618 -0.0652565 0)
(0.0117624 -0.074296 0)
(0.00650672 -0.0890256 0)
(0.00079146 -0.113323 0)
(-0.00470752 -0.149813 0)
(-0.00851399 -0.197317 0)
(-0.0110422 -0.246007 0)
(-0.00321726 -0.260237 0)
(0.00246168 0.0384384 0)
(0.00725684 0.072231 0)
(0.0109995 0.0849159 0)
(0.0145459 0.0910755 0)
(0.0182335 0.0948416 0)
(0.0222921 0.0975139 0)
(0.0268496 0.0993926 0)
(0.0318527 0.10034 0)
(0.0371406 0.10009 0)
(0.042471 0.0983806 0)
(0.047578 0.0950896 0)
(0.0522456 0.0902402 0)
(0.0563179 0.0839833 0)
(0.0597128 0.0765481 0)
(0.0624084 0.0681928 0)
(0.0644173 0.0591665 0)
(0.065765 0.0496931 0)
(0.0664748 0.0399709 0)
(0.0665607 0.0301778 0)
(0.0660246 0.0204904 0)
(0.0648669 0.0110842 0)
(0.063085 0.00212357 0)
(0.0606899 -0.00623278 0)
(0.0577254 -0.0138543 0)
(0.0542649 -0.0206757 0)
(0.050406 -0.0267061 0)
(0.0462587 -0.0320329 0)
(0.0419304 -0.0368085 0)
(0.0375085 -0.0412209 0)
(0.0330427 -0.0454712 0)
(0.0285449 -0.0498019 0)
(0.0239919 -0.0545874 0)
(0.0192902 -0.0605399 0)
(0.0142482 -0.0691504 0)
(0.00863542 -0.0833505 0)
(0.00247912 -0.107449 0)
(-0.00356243 -0.14473 0)
(-0.00771899 -0.194385 0)
(-0.0112244 -0.247621 0)
(-0.00272021 -0.26794 0)
(0.00213055 0.0337933 0)
(0.00721419 0.0676763 0)
(0.0113312 0.0809548 0)
(0.0152613 0.0872602 0)
(0.019264 0.090823 0)
(0.0235615 0.093087 0)
(0.0282951 0.0945056 0)
(0.0334494 0.095075 0)
(0.0389125 0.0946204 0)
(0.0444856 0.0929612 0)
(0.0499261 0.0899524 0)
(0.0550166 0.085583 0)
(0.0595827 0.0799441 0)
(0.0635044 0.073204 0)
(0.0667134 0.0655708 0)
(0.0691822 0.057264 0)
(0.0709069 0.0484961 0)
(0.0718927 0.0394658 0)
(0.0721464 0.0303559 0)
(0.0716731 0.0213458 0)
(0.0704833 0.0126124 0)
(0.0685931 0.00430858 0)
(0.0660329 -0.00343431 0)
(0.0628665 -0.0105083 0)
(0.0591817 -0.0168731 0)
(0.0550811 -0.0225534 0)
(0.0506773 -0.0276398 0)
(0.0460773 -0.0322714 0)
(0.0413605 -0.0366057 0)
(0.0365803 -0.0408124 0)
(0.0317636 -0.0450971 0)
(0.0268963 -0.0497777 0)
(0.0218924 -0.0554947 0)
(0.016561 -0.0636753 0)
(0.010638 -0.0773063 0)
(0.00408481 -0.101125 0)
(-0.00251223 -0.139125 0)
(-0.00693883 -0.191015 0)
(-0.0115378 -0.248775 0)
(-0.00219831 -0.275741 0)
(0.00171491 0.0294526 0)
(0.00686445 0.0628903 0)
(0.0112552 0.0766411 0)
(0.0154953 0.083118 0)
(0.0197647 0.0865487 0)
(0.0242592 0.0884802 0)
(0.0291196 0.0894923 0)
(0.0343621 0.0896985 0)
(0.039899 0.0890172 0)
(0.0455844 0.0873297 0)
(0.0512147 0.0845207 0)
(0.056569 0.0805489 0)
(0.0614694 0.0754672 0)
(0.0657732 0.0693947 0)
(0.0693827 0.0624964 0)
(0.0722352 0.0549576 0)
(0.0742977 0.0469698 0)
(0.0755558 0.0387206 0)
(0.0760064 0.0303879 0)
(0.0756559 0.0221434 0)
(0.0745204 0.0141544 0)
(0.0726347 0.00656348 0)
(0.0700458 -0.00052275 0)
(0.0668247 -0.00702442 0)
(0.0630669 -0.012915 0)
(0.0588784 -0.0182289 0)
(0.0543666 -0.023054 0)
(0.0496221 -0.0275116 0)
(0.0447238 -0.0317396 0)
(0.0397337 -0.0358854 0)
(0.0346822 -0.0401156 0)
(0.029566 -0.0446912 0)
(0.0243154 -0.0501782 0)
(0.0187488 -0.0579255 0)
(0.0125723 -0.0709405 0)
(0.00567655 -0.0943784 0)
(-0.0014645 -0.13301 0)
(-0.00613046 -0.187272 0)
(-0.0120205 -0.249417 0)
(-0.00143029 -0.283687 0)
(0.00126129 0.0255852 0)
(0.00624612 0.0580427 0)
(0.0107933 0.0720773 0)
(0.015263 0.0787102 0)
(0.019754 0.0820571 0)
(0.0244173 0.0837276 0)
(0.0293784 0.0843956 0)
(0.0346696 0.0842757 0)
(0.0402283 0.0833723 0)
(0.0459357 0.0816129 0)
(0.0516336 0.0789367 0)
(0.0571204 0.0752957 0)
(0.062213 0.0707103 0)
(0.0667619 0.0652645 0)
(0.0706477 0.0590851 0)
(0.0737893 0.0523267 0)
(0.0761303 0.0451546 0)
(0.0776392 0.0377373 0)
(0.0783038 0.0302385 0)
(0.0781276 0.0228147 0)
(0.0771321 0.0156146 0)
(0.0753602 0.00876624 0)
(0.0728713 0.00235984 0)
(0.0697382 -0.00355 0)
(0.0660527 -0.00895153 0)
(0.0619169 -0.0138773 0)
(0.0574237 -0.0184052 0)
(0.0526567 -0.0226478 0)
(0.0476919 -0.026732 0)
(0.0425864 -0.0307808 0)
(0.0373748 -0.0349277 0)
(0.0320671 -0.0393847 0)
(0.026616 -0.0446419 0)
(0.0208614 -0.0519537 0)
(0.0144887 -0.0643012 0)
(0.00732148 -0.0872138 0)
(-0.000417421 -0.126361 0)
(-0.00521714 -0.183126 0)
(-0.0126406 -0.249538 0)
(-0.000450199 -0.29172 0)
(0.000809319 0.0223089 0)
(0.0054118 0.0533106 0)
(0.00997919 0.0673797 0)
(0.0145884 0.0741016 0)
(0.0192553 0.077381 0)
(0.0240693 0.0788467 0)
(0.0291255 0.0792334 0)
(0.0344556 0.0788354 0)
(0.0400159 0.0777306 0)
(0.0457035 0.0759003 0)
(0.0513858 0.0733126 0)
(0.0569054 0.0699442 0)
(0.0620828 0.0658006 0)
(0.0667652 0.0609376 0)
(0.0708258 0.055449 0)
(0.0741668 0.0494571 0)
(0.0767245 0.0431022 0)
(0.078455 0.03653 0)
(0.0793395 0.0298833 0)