/*--------------------------------*- C++ -*----------------------------------*\
  =========                 |
  \\      /  F ield         | OpenFOAM: The Open Source CFD Toolbox
   \\    /   O peration     | Website:  https://openfoam.org
    \\  /    A nd           | Version:  13
     \\/     M anipulation  |
\*---------------------------------------------------------------------------*/
FoamFile
{
    format      ascii;
    class       volScalarField;
    location    "8.9";
    object      epsilon;
}
// * * * * * * * * * * * * * * * * * * * * * * * * * * * * * * * * * * * * * //

dimensions      [0 2 -3 0 0 0 0];

internalField   nonuniform List<scalar> 
6400
(
2.88763e-05
0.000148323
0.000360709
0.000580917
0.000746575
0.000839386
0.000873068
0.000876579
0.000882469
0.000915828
0.000996098
0.00115178
0.00139652
0.00173479
0.00214831
0.00261395
0.0031077
0.00362031
0.00412725
0.00461736
0.00511177
0.00565339
0.00629913
0.00708066
0.00796259
0.00884918
0.0097308
0.010606
0.0115026
0.0124442
0.0134175
0.0143905
0.0153476
0.0162925
0.0172484
0.0182212
0.0192305
0.0202825
0.0213896
0.0225551
0.0237873
0.0250958
0.0264878
0.0279792
0.0295838
0.0313583
0.0334093
0.0359646
0.0384896
0.0410765
0.0435989
0.046048
0.0483407
0.0504158
0.0521953
0.0535841
0.0542772
0.0545504
0.0543986
0.0533238
0.0514484
0.0487847
0.0453605
0.0413287
0.036737
0.0318433
0.0268807
0.0220354
0.0174839
0.0134462
0.0101513
0.00738586
0.00515178
0.00344528
0.00221631
0.00137822
0.000831039
0.000478042
0.000226335
4.82589e-05
0.000139534
0.000140236
0.000229727
0.000332753
0.000409856
0.000456515
0.000479605
0.000490348
0.000502713
0.00053066
0.000589197
0.000698732
0.000876078
0.00113385
0.00147555
0.00190197
0.00241488
0.00302087
0.00372576
0.00453993
0.00547112
0.00656171
0.00786258
0.00939638
0.0111511
0.0131556
0.0152115
0.0171852
0.0189695
0.0204696
0.0216032
0.0224728
0.0230611
0.0234635
0.0237184
0.023885
0.0240035
0.024108
0.0242207
0.0243623
0.0245557
0.0248045
0.0251074
0.0254403
0.025831
0.0263156
0.0268786
0.0275236
0.028239
0.0289907
0.0297784
0.0305557
0.0313053
0.0319762
0.0325261
0.0328181
0.0329069
0.0327687
0.0323401
0.0314921
0.0302758
0.0286516
0.0266292
0.0242808
0.0216965
0.0189854
0.0162605
0.0136355
0.0111982
0.00904391
0.00721867
0.00565123
0.00430517
0.00316205
0.00221778
0.0014544
0.000888355
0.000499683
0.000260055
0.000255264
0.00030521
0.000255697
0.000342453
0.000430131
0.00048273
0.000509342
0.000524114
0.000541321
0.000576487
0.000648249
0.000781091
0.00100406
0.00134477
0.00182299
0.00245126
0.00324136
0.00420567
0.00535851
0.0067098
0.00826653
0.0100351
0.0119769
0.014002
0.0159514
0.0176377
0.0188193
0.019529
0.0199139
0.0201049
0.020247
0.0203163
0.0202225
0.0199105
0.0196192
0.0193149
0.0190531
0.018843
0.0187247
0.0186796
0.0186803
0.0188101
0.0190094
0.0193175
0.0197469
0.0202876
0.0209149
0.0216255
0.0224137
0.0232745
0.0241915
0.0251546
0.026139
0.0271216
0.0280655
0.0289305
0.0296668
0.030187
0.0304091
0.0304224
0.0300362
0.0291986
0.0279046
0.0261391
0.0240036
0.0215896
0.0189976
0.0163541
0.0137739
0.0113615
0.00919875
0.0073326
0.00576204
0.00446162
0.0033923
0.00251589
0.0018104
0.00123207
0.000772211
0.000479218
0.000683701
0.000530419
0.000441194
0.000539727
0.000623738
0.000667032
0.00068953
0.000712354
0.000756924
0.000847172
0.00101519
0.00130166
0.00174957
0.00239417
0.00325662
0.00434621
0.00566687
0.00721689
0.00897386
0.0108811
0.0128419
0.0147192
0.0163659
0.0176268
0.0182942
0.0185717
0.018637
0.0185695
0.0182089
0.017647
0.0170474
0.0163927
0.0158843
0.0154953
0.015165
0.0149194
0.0147745
0.0147133
0.0147047
0.0148068
0.0149849
0.0152564
0.0156066
0.0160462
0.0165701
0.0171775
0.0178668
0.0186393
0.0194936
0.020428
0.021436
0.0225103
0.0236361
0.0247934
0.0259528
0.0270762
0.0281129
0.0290035
0.0296438
0.0299316
0.0299656
0.0295131
0.0286361
0.0273119
0.0253639
0.0230211
0.020377
0.0175821
0.0147884
0.0121396
0.00975054
0.00769297
0.00598845
0.00461638
0.00352979
0.00267352
0.00199862
0.00145226
0.00100553
0.000719854
0.00114049
0.000851667
0.000698512
0.000795811
0.000877161
0.000923152
0.000959584
0.00101492
0.00112137
0.00131857
0.00165651
0.00219107
0.00297107
0.00402443
0.0053537
0.00694027
0.00874457
0.0106965
0.0126818
0.0145366
0.0160924
0.0171239
0.0175818
0.0177101
0.0176531
0.017221
0.0164774
0.0156071
0.0147993
0.0141466
0.0135411
0.0130418
0.0126552
0.0123546
0.0121315
0.0119969
0.0119361
0.0119205
0.011971
0.0120974
0.0122789
0.0125252
0.0128315
0.0132027
0.0136395
0.0141463
0.0147266
0.0153853
0.0161272
0.0169569
0.0178778
0.0188904
0.0199918
0.0211738
0.0224218
0.023713
0.0250072
0.0262509
0.027379
0.0283121
0.0288519
0.0290348
0.028766
0.0279457
0.0266563
0.0246198
0.0220783
0.0192075
0.0161955
0.0132382
0.0105147
0.0081549
0.00622011
0.00470261
0.00354606
0.00267076
0.00200836
0.0014994
0.00110458
0.000879728
0.0014579
0.00131044
0.001036
0.00111573
0.00119914
0.00126303
0.00133572
0.0014554
0.00166939
0.00203582
0.00262067
0.00348456
0.00466312
0.00615293
0.00790979
0.00985199
0.011859
0.0137703
0.0154008
0.016488
0.0169553
0.0170639
0.0169121
0.0163514
0.0153687
0.0143649
0.0134754
0.012667
0.0119867
0.0114179
0.010934
0.010547
0.0102371
0.00999366
0.00980923
0.00967842
0.00959905
0.00956345
0.00955574
0.00959702
0.00967642
0.00979564
0.00995651
0.0101607
0.0104125
0.010717
0.0110813
0.0115139
0.0120252
0.0126267
0.0133313
0.0141513
0.0150981
0.01618
0.0173987
0.0187472
0.0202113
0.0217538
0.0233263
0.0248572
0.0262405
0.0273304
0.0278541
0.0279683
0.0274048
0.0262692
0.024137
0.0213987
0.0182593
0.0149697
0.0117991
0.00897993
0.00665722
0.0048685
0.00356072
0.00262311
0.00195537
0.001466
0.00110358
0.000944688
0.00157665
0.00194706
0.00145996
0.00151168
0.00160797
0.00170864
0.00184422
0.00206597
0.00243838
0.00303484
0.00392514
0.00515339
0.00671605
0.00855172
0.0105439
0.0125296
0.0143106
0.0156683
0.0163269
0.0165166
0.0164434
0.0158881
0.0148357
0.0137124
0.0126935
0.0117736
0.0109899
0.0103125
0.00974526
0.0092633
0.00885649
0.0085168
0.00823006
0.00798971
0.00778908
0.00762376
0.00749005
0.00738435
0.00730558
0.00725998
0.00724002
0.0072363
0.00726681
0.00732623
0.00742031
0.00755035
0.00772342
0.00794598
0.00822749
0.00857978
0.00901979
0.00956731
0.0102453
0.0110792
0.0120911
0.0133015
0.0147344
0.0163849
0.0182196
0.0201859
0.0222161
0.0241887
0.0259347
0.0270916
0.027549
0.0274845
0.0264478
0.0242172
0.0211999
0.017672
0.0139927
0.0105368
0.00759892
0.00532513
0.00370417
0.00261432
0.00187785
0.00138831
0.00106606
0.000937486
0.00153226
0.00279874
0.00197521
0.0019975
0.00212114
0.00228084
0.00250848
0.00287039
0.00344526
0.00431024
0.00551827
0.00707178
0.00890476
0.0108817
0.0128118
0.0144754
0.0155516
0.0159841
0.0160527
0.0156758
0.0147407
0.0135179
0.0123751
0.0113235
0.010418
0.00963328
0.00896607
0.00839073
0.00789857
0.00747175
0.00710287
0.0067824
0.00650288
0.00625977
0.0060489
0.00586765
0.00571365
0.00558416
0.00547816
0.00539518
0.00533312
0.00529798
0.00528388
0.00528282
0.0053175
0.0053748
0.00546344
0.00558515
0.00574647
0.00595307
0.00621274
0.00653709
0.00694189
0.00745057
0.00809995
0.00893628
0.0100067
0.0113724
0.0130632
0.0150711
0.0173813
0.0198812
0.0224617
0.0249004
0.0268757
0.0278409
0.028113
0.0272619
0.024863
0.0214346
0.0173742
0.0131964
0.00940734
0.00636034
0.00417014
0.00274666
0.00187092
0.00132045
0.00100023
0.000902013
0.00142525
0.00389128
0.00258534
0.00258271
0.00275551
0.00299448
0.00334058
0.00387175
0.00467134
0.00580228
0.00727799
0.009039
0.0109463
0.0127955
0.014349
0.0152306
0.0155258
0.0155212
0.0148919
0.0137308
0.0124602
0.0112707
0.0102255
0.00931312
0.00853593
0.00786508
0.00728772
0.0067853
0.00634893
0.00596758
0.00563574
0.00534682
0.00509669
0.00488175
0.00469865
0.00454442
0.00441664
0.00431342
0.00423289
0.00417348
0.00413576
0.00411837
0.0041135
0.00412697
0.00416361
0.00421754
0.00429336
0.00439097
0.00451367
0.00466422
0.00484716
0.00506842
0.00533621
0.00566157
0.00605954
0.00655364
0.00717796
0.00798822
0.00908151
0.0105915
0.0125828
0.015053
0.0179532
0.0211006
0.0242709
0.0270541
0.028654
0.0292392
0.0285838
0.0259107
0.0219198
0.0171905
0.0124418
0.00832641
0.00522867
0.00318661
0.00198592
0.00131686
0.000948116
0.000844
0.00130306
0.00523433
0.00329833
0.00328047
0.00351627
0.00385275
0.00433484
0.00504538
0.00605831
0.00740322
0.00903666
0.0108298
0.0125798
0.0140426
0.014835
0.0150876
0.0149489
0.01416
0.012891
0.0116044
0.0103903
0.00933242
0.00842311
0.0076416
0.00697234
0.00639266
0.00589134
0.00545645
0.00508139
0.00475897
0.00448451
0.00425271
0.00405946
0.00390052
0.00377209
0.00367063
0.0035929
0.00353615
0.00349845
0.00348007
0.00347376
0.00347779
0.00350009
0.00353406
0.00358275
0.00364427
0.0037206
0.00381217
0.00392084
0.00404844
0.0041977
0.00437204
0.00457611
0.00481622
0.00510129
0.00544043
0.00585073
0.00635849
0.00700586
0.00786178
0.00904575
0.010794
0.0132475
0.016383
0.020062
0.0239607
0.0276074
0.0298818
0.0307586
0.0302411
0.0271461
0.0224246
0.0169136
0.0115821
0.00721984
0.00418041
0.0023614
0.00140307
0.000941638
0.000792873
0.00120126
0.00685347
0.00413073
0.00409526
0.00440178
0.004845
0.00546512
0.0063393
0.00751698
0.00897988
0.0106217
0.0122539
0.0136373
0.0143917
0.0146323
0.0144249
0.0135383
0.0122514
0.0109196
0.00969688
0.00862095
0.00770596
0.0069232
0.00625271
0.00567769
0.0051834
0.00476159
0.00440389
0.00410425
0.00385602
0.00365347
0.00349054
0.00336188
0.00326227
0.00318721
0.00313277
0.00309574
0.00307612
0.00306813
0.0030672
0.00308049
0.00310284
0.00313653
0.00317973
0.0032341
0.00329954
0.00337752
0.00346898
0.00357541
0.00369828
0.00383936
0.00400055
0.00418409
0.00439266
0.00462987
0.004901
0.00521417
0.00558261
0.00602836
0.00658197
0.00730028
0.00828579
0.00971806
0.0119627
0.0152
0.0193081
0.0239351
0.0285048
0.0314395
0.0325631
0.0320467
0.0283247
0.022692
0.0163308
0.0104938
0.0060494
0.00321048
0.0016895
0.000996575
0.000775405
0.00116212
0.00881964
0.00510662
0.00502265
0.00539822
0.0059455
0.00668695
0.00768232
0.00894482
0.0104027
0.0118946
0.0131958
0.0139358
0.0141768
0.013948
0.0130311
0.0117666
0.0104098
0.00915874
0.00806922
0.00713934
0.00635303
0.00568292
0.00511362
0.0046317
0.00422713
0.00389214
0.00361844
0.00339846
0.00322428
0.00308864
0.00298466
0.00290645
0.00284887
0.00280788
0.00278025
0.00276553
0.00275939
0.00275829
0.00276699
0.00278413
0.00280886
0.00284235
0.00288473
0.00293726
0.00300077
0.00307667
0.0031663
0.00327123
0.0033931
0.00353365
0.00369468
0.00387792
0.00408501
0.00431748
0.0045769
0.00486533
0.00518648
0.00554793
0.00596539
0.0064687
0.00711044
0.00797396
0.00923236
0.0112017
0.0144098
0.018864
0.0242144
0.0297406
0.0332561
0.0345398
0.0337833
0.0291642
0.0224379
0.0152431
0.0091085
0.00481806
0.00234457
0.00118878
0.000806356
0.00119982
0.0110007
0.00618622
0.00604138
0.00647995
0.00711633
0.00794426
0.0089968
0.0102457
0.011571
0.0127745
0.0135044
0.0137487
0.0135372
0.0126567
0.0114168
0.0100552
0.0087702
0.00765435
0.00670781
0.00591063
0.00524015
0.00467599
0.00420614
0.00381917
0.0035055
0.00325551
0.00305937
0.00290776
0.00279189
0.00270417
0.00263814
0.00258869
0.00255189
0.00252492
0.00250587
0.00249413
0.00248861
0.00248706
0.00249244
0.00250516
0.00252491
0.0025528
0.00258963
0.00263656
0.00269475
0.00276561
0.00285066
0.0029516
0.0030703
0.0032088
0.0033692
0.00355365
0.00376413
0.00400233
0.00426935
0.00456564
0.004891
0.00524537
0.00563077
0.00605563
0.00654272
0.00714226
0.00793967
0.00909015
0.0109088
0.014018
0.0187796
0.0248557
0.0313507
0.0352557
0.0365417
0.0351939
0.0293263
0.0213596
0.0135285
0.0074336
0.00358166
0.00163986
0.000931848
0.00136626
0.0133345
0.00734473
0.00712513
0.0076131
0.00831218
0.00917765
0.0102111
0.0113454
0.0124256
0.0131336
0.0133764
0.0132142
0.0124058
0.011202
0.00984006
0.00852332
0.00736789
0.00639517
0.00558197
0.00490478
0.00434315
0.00388163
0.0035086
0.0032119
0.00298009
0.00280156
0.00266536
0.00256185
0.00248279
0.00242168
0.00237355
0.00233487
0.00230328
0.00227735
0.00225633
0.00224003
0.00222881
0.0022235
0.00222213
0.00222765
0.0022411
0.00226244
0.00229284
0.0023333
0.002385
0.00244928
0.00252769
0.00262197
0.00273415
0.0028665
0.00302154
0.00320199
0.00341061
0.00365004
0.00392244
0.00422908
0.0045699
0.00494323
0.00534603
0.0057755
0.00623318
0.00673375
0.00732109
0.00809002
0.00918987
0.0109513
0.0140319
0.0191143
0.0259617
0.0333949
0.037321
0.0384196
0.0359491
0.0283889
0.0192562
0.0111867
0.00557244
0.0024989
0.00124095
0.00177401
0.0157447
0.00855233
0.00824235
0.0087588
0.00948505
0.0103309
0.0112661
0.0121925
0.0128502
0.0130836
0.0129843
0.0122637
0.0111169
0.00976064
0.00841075
0.00720638
0.00619281
0.0053545
0.00466316
0.00409715
0.00363868
0.00327341
0.00298781
0.00276792
0.00260061
0.00247362
0.00237648
0.00230069
0.00223978
0.0021891
0.00214554
0.00210722
0.00207313
0.00204292
0.00201665
0.00199465
0.00197739
0.00196617
0.00196114
0.00196018
0.00196792
0.00198394
0.0020086
0.00204306
0.00208824
0.00214544
0.00221606
0.00230185
0.00240482
0.00252738
0.00267231
0.00284277
0.00304225
0.00327442
0.00354287
0.00385062
0.00419953
0.00458953
0.00501786
0.00547891
0.00596544
0.00647273
0.00700804
0.0076092
0.00837507
0.00946865
0.0112417
0.0144341
0.0199759
0.0277518
0.0357242
0.0393701
0.0400189
0.0355156
0.0260384
0.0161044
0.00841568
0.00383684
0.00180739
0.00243669
0.0181624
0.00977782
0.00935899
0.00987691
0.0105891
0.0113557
0.0121159
0.0126931
0.012912
0.0128412
0.0122279
0.0111526
0.00981532
0.00843185
0.00716875
0.0060987
0.00522066
0.00450526
0.0039259
0.00346273
0.00309839
0.00281709
0.00260311
0.00244141
0.00231868
0.0022237
0.00214775
0.00208445
0.00202945
0.00198004
0.00193472
0.00189285
0.00185435
0.00181948
0.00178866
0.00176238
0.00174118
0.00172556
0.00171728
0.00171424
0.00171669
0.00172907
0.00174907
0.00177836
0.00181755
0.00186779
0.00193037
0.00200689
0.00209929
0.00220993
0.00234165
0.00249779
0.00268229
0.00289956
0.0031544
0.00345162
0.0037955
0.00418886
0.00463195
0.00512115
0.00564826
0.00620136
0.00676921
0.00735222
0.00798439
0.00877244
0.00989671
0.0117517
0.0152011
0.0214013
0.0303539
0.0383833
0.0413866
0.0410382
0.0333627
0.0221527
0.0121909
0.00570421
0.00262886
0.00329435
0.0205334
0.0109888
0.0104412
0.0109292
0.0115846
0.0122156
0.0127049
0.0129025
0.0128074
0.0123055
0.0113041
0.0100006
0.00858974
0.0072591
0.00611547
0.00517931
0.00442545
0.00382201
0.00334463
0.00297334
0.00268954
0.00247559
0.00231477
0.00219247
0.0020968
0.00201869
0.0019518
0.00189197
0.0018368
0.0017851
0.00173649
0.00169107
0.00164921
0.00161137
0.00157801
0.00154959
0.00152649
0.00150908
0.00149884
0.00149457
0.00149418
0.00150356
0.00152005
0.00154496
0.00157885
0.00162267
0.00167758
0.00174501
0.00182672
0.00192491
0.0020423
0.00218217
0.00234855
0.00254617
0.00278055
0.00305778
0.0033842
0.00376563
0.00420626
0.00470692
0.00526326
0.00586422
0.00649252
0.00712952
0.0077683
0.00844213
0.00927441
0.0104658
0.0124948
0.0164048
0.0234539
0.0337748
0.0413629
0.0434599
0.0403298
0.0291964
0.0170194
0.00817461
0.00373018
0.00429312
0.0228141
0.0121533
0.0114553
0.0118816
0.0124415
0.0128623
0.0130273
0.0129147
0.0124942
0.0115738
0.0103136
0.00888726
0.00748602
0.00625136
0.00523523
0.00442387
0.00378233
0.00327981
0.00289247
0.00259902
0.00237939
0.00221515
0.00209025
0.00199185
0.00191045
0.00183951
0.00177498
0.00171462
0.00165744
0.00160325
0.00155226
0.00150489
0.0014616
0.00142281
0.00138888
0.00136012
0.00133676
0.00131901
0.00130773
0.00130261
0.00130144
0.00130811
0.00132195
0.00134318
0.00137246
0.00141059
0.00145856
0.00151763
0.00158936
0.00167573
0.0017792
0.00190285
0.00205049
0.00222682
0.00243752
0.00268931
0.00298981
0.00334714
0.00376903
0.00426127
0.0048255
0.00545638
0.00613936
0.00685069
0.00756311
0.00826246
0.00898618
0.0098819
0.011187
0.0135326
0.0182259
0.0264743
0.0380992
0.043938
0.0447506
0.036783
0.0230262
0.0114055
0.00516009
0.00538503
0.0249152
0.0132424
0.0123749
0.0127111
0.0131248
0.0132976
0.0132108
0.0127844
0.0119602
0.0107553
0.00932622
0.00785943
0.00652028
0.0053997
0.00450681
0.00380865
0.00326757
0.00285377
0.00254258
0.00231132
0.00213939
0.00200912
0.0019064
0.00182095
0.00174588
0.001677
0.00161213
0.00155037
0.00149162
0.00143616
0.00138444
0.00133688
0.00129387
0.0012557
0.00122255
0.00119457
0.00117186
0.0011545
0.00114294
0.00113746
0.00113589
0.00114051
0.00115217
0.00117028
0.00119561
0.00122878
0.00127066
0.00132235
0.0013852
0.00146095
0.00155179
0.00166047
0.00179046
0.00194613
0.00213296
0.00235766
0.00262835
0.00295442
0.00334612
0.00381341
0.00436401
0.00500026
0.00571526
0.00648947
0.00729064
0.00808149
0.00884303
0.00962694
0.010599
0.0120957
0.0150213
0.0209714
0.0311559
0.0423301
0.0463427
0.043847
0.0301697
0.0155797
0.00697155
0.00653652
0.0267622
0.0142283
0.013178
0.0133965
0.0136111
0.0135869
0.0131946
0.0124704
0.0113238
0.00990908
0.00838786
0.00693928
0.00569098
0.00468758
0.00390848
0.00331139
0.00285852
0.00252009
0.00227034
0.00208606
0.00194745
0.00183879
0.00174863
0.00166939
0.00159654
0.00152776
0.00146215
0.00139964
0.00134055
0.00128531
0.00123433
0.00118795
0.00114637
0.00110974
0.00107809
0.00105144
0.0010298
0.00101315
0.00100164
0.000996008
0.000994179
0.000997193
0.00100698
0.00102244
0.00104436
0.00107326
0.00110989
0.00115519
0.00121035
0.00127688
0.00135668
0.00145216
0.0015664
0.00170333
0.00186795
0.0020666
0.00230722
0.00259957
0.00295515
0.00338669
0.00390685
0.00452546
0.0052453
0.00605668
0.0069325
0.00782836
0.00869468
0.00951243
0.0103638
0.0114377
0.0132452
0.0170223
0.0246957
0.03743
0.0464005
0.0479903
0.0380418
0.0208721
0.00920999
0.00773819
0.0283141
0.0150902
0.0138449
0.0139131
0.0139716
0.0137188
0.0130713
0.0120161
0.0106339
0.00907789
0.0075248
0.00613256
0.00498751
0.00409636
0.00341975
0.00291152
0.00253418
0.00225748
0.00205512
0.0019046
0.00178801
0.00169228
0.0016087
0.00153211
0.00145989
0.00139099
0.00132531
0.00126316
0.00120496
0.00115111
0.0011019
0.00105749
0.00101795
0.000983264
0.000953385
0.000928236
0.000907749
0.000891872
0.000880579
0.000874822
0.000872776
0.000874484
0.000882613
0.000895813
0.000914802
0.000940026
0.000972148
0.00101198
0.00106057
0.00111921
0.00118955
0.00127369
0.00137431
0.00149487
0.00163981
0.00181488
0.00202748
0.00228701
0.00260518
0.00299605
0.0034754
0.00405895
0.00475879
0.00557747
0.00650037
0.00748901
0.00848199
0.00941576
0.0102807
0.0112001
0.0124383
0.0147953
0.0200837
0.0303191
0.0440082
0.0494362
0.0456375
0.0273876
0.0119444
0.00898386
0.0295488
0.0158258
0.0143674
0.0142828
0.0141824
0.0136964
0.0128014
0.0114914
0.00992941
0.00828991
0.00674911
0.00543532
0.00439553
0.00360787
0.00302199
0.00259048
0.00227604
0.00204814
0.00188094
0.00175368
0.00165101
0.00156264
0.00148236
0.00140698
0.00133517
0.00126671
0.00120187
0.00114107
0.00108469
0.00103297
0.000986062
0.000943978
0.000906662
0.00087401
0.000845895
0.000822196
0.000802806
0.000787649
0.000776682
0.000770738
0.000768488
0.000769115
0.000775769
0.000787022
0.000803481
0.000825552
0.000853814
0.000888982
0.000931961
0.000983886
0.00104619
0.00112069
0.00120972
0.00131628
0.00144426
0.00159875
0.00178641
0.00201593
0.00229851
0.00264833
0.00308257
0.00362067
0.00428193
0.00508048
0.00601705
0.00706834
0.00817825
0.00926242
0.0102459
0.0111475
0.0121383
0.0136885
0.017071
0.0246814
0.0386127
0.049459
0.0508981
0.0351314
0.01534
0.0103409
0.030463
0.0164333
0.0147484
0.0145147
0.0142494
0.0135853
0.0124355
0.0109276
0.00923826
0.00756172
0.00606333
0.00483851
0.00389995
0.00320542
0.00269865
0.00233207
0.00206863
0.00187815
0.00173622
0.00162447
0.00153035
0.00144612
0.00136765
0.00129315
0.00122215
0.00115486
0.00109165
0.0010329
0.00097885
0.000929618
0.000885194
0.000845487
0.000810354
0.000779633
0.000753157
0.000730781
0.000712383
0.000697878
0.000687224
0.00068106
0.000678561
0.000678413
0.000683693
0.000693272
0.000707549
0.000726908
0.000751856
0.00078303
0.000821223
0.000867434
0.000922915
0.000989252
0.00106847
0.00116316
0.00127673
0.00141362
0.0015797
0.00178278
0.00203318
0.00234441
0.00273374
0.00322232
0.00383405
0.00459214
0.00551198
0.00658938
0.00778611
0.00901955
0.0101759
0.011176
0.0120768
0.0132273
0.0153843
0.0206417
0.0318168
0.0474745
0.0532022
0.0437807
0.0197197
0.0120697
0.0310717
0.0169119
0.0149997
0.0146178
0.0142065
0.0133531
0.0120122
0.0103514
0.00857962
0.00690131
0.00546416
0.00433099
0.00348636
0.00287421
0.00243539
0.00212271
0.00189966
0.00173717
0.00161297
0.00151138
0.00142249
0.00134076
0.00126361
0.0011902
0.00112056
0.00105503
0.000993973
0.000937648
0.000886156
0.000839478
0.000797501
0.000760056
0.000726951
0.000697988
0.000672987
0.00065179
0.000634273
0.000620349
0.000609967
0.000603524
0.000600683
0.000600179
0.000604162
0.000612299
0.000624695
0.000641715
0.00066381
0.000691547
0.000725636
0.000766959
0.000816623
0.00087602
0.000946919
0.00103159
0.00113298
0.00125495
0.00140265
0.00158297
0.00180517
0.00208169
0.00242903
0.00286849
0.00342624
0.00413159
0.00501183
0.00608157
0.00732604
0.00868127
0.0100252
0.0112078
0.012191
0.0131091
0.0145927
0.0180142
0.026424
0.042745
0.053745
0.0519747
0.0253963
0.0144099
0.0313774
0.0172679
0.0151332
0.0146039
0.0140754
0.0130457
0.0115543
0.0097824
0.00796544
0.00631078
0.00494508
0.00390124
0.00314171
0.00260144
0.00222016
0.00195144
0.00175977
0.00161785
0.00150592
0.00141098
0.00132544
0.00124549
0.00116966
0.0010977
0.00102986
0.000966492
0.000907863
0.000854091
0.000805157
0.000760939
0.000721253
0.000685883
0.000654608
0.000627219
0.000603528
0.000583376
0.000566639
0.000553225
0.00054308
0.000536411
0.000533294
0.000532513
0.000535392
0.000542279
0.000553051
0.000568048
0.000587674
0.000612439
0.000642982
0.000680095
0.000724765
0.000778228
0.000842048
0.000918214
0.0010093
0.00111869
0.00125085
0.00141181
0.00160979
0.00185595
0.00216553
0.00255898
0.00306285
0.0037097
0.00453513
0.0055697
0.00682305
0.00826043
0.00977849
0.0112064
0.012368
0.0132239
0.0143142
0.0165511
0.0225939
0.0361777
0.0532484
0.0573111
0.0328814
0.0173648
0.03136
0.0174984
0.0151598
0.0145217
0.0138439
0.0126866
0.0110811
0.00923472
0.00740218
0.00578838
0.00449815
0.00353832
0.00285457
0.00237627
0.0020431
0.00180971
0.00164207
0.00151512
0.00141166
0.00132118
0.00123799
0.00115961
0.00108528
0.00101508
0.000949337
0.000888324
0.000832189
0.00078093
0.000734429
0.000692495
0.000654897
0.000621395
0.000591756
0.000565766
0.00054324
0.000524021
0.000507985
0.000495039
0.00048513
0.000478308
0.000474966
0.000473952
0.00047592
0.000481722
0.000491095
0.000504337
0.000521817
0.000543996
0.000571455
0.000604912
0.000645258
0.000693606
0.000751351
0.000820261
0.000902604
0.00100134
0.00112038
0.001265
0.00144238
0.00166247
0.00193901
0.002291
0.00274417
0.00333207
0.00409527
0.00507617
0.00630574
0.0077791
0.00942235
0.0110696
0.0124952
0.0135263
0.0142851
0.0158705
0.0199039
0.0304842
0.0503094
0.0596554
0.0425239
0.0208106
0.0311956
0.0176446
0.0151211
0.0143441
0.0135509
0.0122933
0.0106071
0.00871773
0.00689236
0.00533012
0.00411508
0.00323232
0.00261515
0.00218972
0.00189632
0.00169099
0.00154161
0.0014255
0.00132797
0.00124063
0.00115933
0.0010825
0.00100987
0.000941648
0.000878134
0.000819509
0.000765804
0.00071692
0.000672667
0.00063281
0.000597091
0.00056526
0.00053708
0.000512342
0.000490862
0.000472487
0.000457093
0.00044459
0.00043492
0.000428056
0.000424513
0.000423307
0.000424534
0.0004294
0.000437564
0.000449282
0.000464888
0.000484806
0.000509565
0.000539822
0.000576394
0.000620291
0.000672777
0.00073544
0.000810304
0.000899985
0.00100793
0.00113874
0.00129873
0.00149664
0.00174473
0.00206026
0.00246735
0.00299892
0.00369767
0.00461397
0.00579644
0.00727025
0.00900018
0.0108453
0.0125429
0.0138625
0.0146356
0.0156549
0.018351
0.0264904
0.0448318
0.0601942
0.0528631
0.0244084
0.0308302
0.0177269
0.0150163
0.0140996
0.013212
0.0118805
0.0101434
0.00823716
0.00643577
0.00493083
0.00378788
0.0029745
0.0024152
0.00203445
0.00177362
0.00159043
0.00145486
0.00134664
0.00125337
0.00116841
0.00108879
0.00101358
0.000942775
0.000876624
0.000815353
0.000759041
0.000707625
0.00066093
0.000618721
0.000580733
0.000546699
0.000516362
0.000489492
0.000465881
0.000445351
0.000427751
0.00041296
0.000400885
0.000391462
0.00038466
0.000380939
0.000379576
0.000380213
0.000384272
0.000391393
0.000401785
0.000415753
0.000433684
0.000456066
0.000483507
0.000516757
0.000556749
0.00060464
0.000661876
0.000730285
0.000812211
0.000910709
0.00102985
0.00117516
0.00135432
0.00157818
0.00186222
0.00222855
0.00270841
0.00334448
0.00419131
0.00531007
0.00675151
0.00852079
0.0105244
0.0125232
0.0141422
0.0150538
0.0157016
0.0175865
0.0233359
0.0390995
0.0593599
0.06162
0.0273433
0.030261
0.0177242
0.01484
0.0138078
0.012842
0.0114602
0.00969792
0.00779595
0.00603046
0.0045849
0.00350919
0.00275737
0.00224786
0.00190458
0.00167025
0.00150443
0.00137931
0.00127691
0.00118681
0.0011038
0.00102578
0.000952239
0.000883307
0.00081922
0.000760115
0.00070598
0.000656673
0.00061197
0.000571603
0.000535292
0.000502767
0.000473774
0.000448085
0.000425499
0.000405841
0.000388964
0.000374746
0.000363093
0.000353938
0.000347241
0.000343386
0.000341896
0.000342082
0.000345449
0.000351668
0.000360907
0.000373438
0.00038962
0.000409903
0.000434851
0.000465162
0.000501703
0.000545544
0.000598022
0.000660809
0.000736031
0.000826434
0.000935638
0.00106853
0.00123187
0.00143523
0.00169235
0.00202322
0.00245684
0.00303438
0.00381175
0.0048581
0.00624408
0.0080109
0.0101144
0.0123559
0.0143556
0.015582
0.0161815
0.0173178
0.0212369
0.0335533
0.0572067
0.0661197
0.0287072
0.0295185
0.0176896
0.0146259
0.0134833
0.0124534
0.0110419
0.00927597
0.00739503
0.00567346
0.00428675
0.00327244
0.00257455
0.00210752
0.00179543
0.00158253
0.00143032
0.00131314
0.00121512
0.00112749
0.00104618
0.000969704
0.000897844
0.000830772
0.000768675
0.000711607
0.000659478
0.00061209
0.000569183
0.000530469
0.000495664
0.000464495
0.000436715
0.0004121
0.000390454
0.000371605
0.000355406
0.000341738
0.000330502
0.000321628
0.000315071
0.000311117
0.000309493
0.000309391
0.000312153
0.000317594
0.000325828
0.000337101
0.00035174
0.000370165
0.000392901
0.0004206
0.000454074
0.000494325
0.000542596
0.000600441
0.000669814
0.000753216
0.00085391
0.000976251
0.00112622
0.00131226
0.00154655
0.00184698
0.00224002
0.00276446
0.00347545
0.00444641
0.00576285
0.00749801
0.00965878
0.0121005
0.0144484
0.0160407
0.0167187
0.0173107
0.0200993
0.0297461
0.0529714
0.0677517
0.0289484
0.0286449
0.0176088
0.0143842
0.0131382
0.0120568
0.0106328
0.0088809
0.0070339
0.00536121
0.00403111
0.00307191
0.0024207
0.00198961
0.00170332
0.00150768
0.00136613
0.00125504
0.00116037
0.00107476
0.00099497
0.000920005
0.000849789
0.000784506
0.00072428
0.000669091
0.000618789
0.000573133
0.000531839
0.000494609
0.000461156
0.000431211
0.00040453
0.000380896
0.000360114
0.000342017
0.000326458
0.000313315
0.000302488
0.000293901
0.000287502
0.000283471
0.000281708
0.000281453
0.0002837
0.000288468
0.000295828
0.000305998
0.000319279
0.000336059
0.000356829
0.000382204
0.000412943
0.000449994
0.000494524
0.000547991
0.000612216
0.000689508
0.000782846
0.000896161
0.00103479
0.00120621
0.00142121
0.00169572
0.00205363
0.00253082
0.00318022
0.00407625
0.00531384
0.00699163
0.00916483
0.0117591
0.0144665
0.016534
0.0174181
0.0178296
0.019564
0.0269643
0.0479657
0.0678169
0.0283695
0.0276743
0.0174972
0.0141258
0.012783
0.0116608
0.0102382
0.00851448
0.00671112
0.00509002
0.00381315
0.00290266
0.00229141
0.00189043
0.00162533
0.00144355
0.00131036
0.00120399
0.00111196
0.00102804
0.000949661
0.000876141
0.000807499
0.000743896
0.000685397
0.000631921
0.000583267
0.000539165
0.000499316
0.000463417
0.00043118
0.000402341
0.00037666
0.000353923
0.000333938
0.000316539
0.00030158
0.000288935
0.000278501
0.000270196
0.000263961
0.000259889
0.000258022
0.000257656
0.000259481
0.000263669
0.00027027
0.000279474
0.000291559
0.000306885
0.000325911
0.000349214
0.000377514
0.000411705
0.000452894
0.00050246
0.000562119
0.000634032
0.000720957
0.000826489
0.000955446
0.0011145
0.00131323
0.00156578
0.0018936
0.00232947
0.00292322
0.00374813
0.00490432
0.00650934
0.00865856
0.0113404
0.0143217
0.0169297
0.018077
0.0184259
0.0193949
0.0248578
0.04341
0.0655153
0.0273676
0.02664
0.0173706
0.0138602
0.0124264
0.011272
0.00986206
0.00817736
0.00642466
0.00485612
0.00362854
0.00276052
0.00218304
0.00180703
0.00155919
0.0013885
0.00126187
0.00115919
0.00106929
0.000986828
0.00090976
0.000837607
0.00077044
0.000708389
0.000651463
0.00059953
0.000552353
0.000509642
0.000471086
0.00043638
0.000405238
0.000377399
0.000352626
0.000330708
0.000311456
0.000294702
0.0002803
0.000268122
0.00025806
0.000250027
0.000243957
0.000239875
0.000237929
0.000237474
0.000238957
0.000242649
0.00024859
0.00025695
0.000267983
0.000282025
0.000299506
0.000320968
0.000347092
0.000378726
0.000416925
0.000463002
0.000518588
0.00058573
0.000667016
0.00076578
0.000886427
0.00103498
0.00121997
0.001454
0.00175622
0.00215632
0.00270051
0.00345928
0.00453455
0.00605767
0.00815972
0.010889
0.0140694
0.0171846
0.0188219
0.0192353
0.0195527
0.0234258
0.0393474
0.0623288
0.0261854
0.0255416
0.0172461
0.0135978
0.0120761
0.0108958
0.00950691
0.00786934
0.00617223
0.00465598
0.00347345
0.00264202
0.00209262
0.00173703
0.00150312
0.00134122
0.00121977
0.00112
0.00103185
0.000950679
0.000874819
0.000803938
0.000738131
0.000677492
0.000621982
0.000571429
0.00052557
0.000484098
0.000446696
0.000413058
0.000382899
0.000355962
0.000332013
0.00031084
0.000292257
0.000276096
0.000262207
0.00025046
0.000240745
0.000232968
0.00022706
0.000222991
0.000220981
0.00022045
0.000221656
0.000224922
0.00023029
0.000237914
0.000248025
0.000260937
0.000277052
0.000296881
0.000321068
0.000350419
0.000385942
0.000428891
0.000480832
0.000543717
0.000620007
0.000712837
0.000826292
0.000965867
0.00113925
0.00135768
0.00163825
0.00200771
0.00250845
0.00320712
0.00420454
0.00564033
0.00767471
0.0104177
0.0137812
0.0172873
0.0195346
0.0201042
0.0201675
0.0226228
0.0357979
0.0584804
0.0249543
0.024452
0.017127
0.0133452
0.011738