/*--------------------------------*- C++ -*----------------------------------*\
  =========                 |
  \\      /  F ield         | OpenFOAM: The Open Source CFD Toolbox
   \\    /   O peration     | Website:  https://openfoam.org
    \\  /    A nd           | Version:  13
     \\/     M anipulation  |
\*---------------------------------------------------------------------------*/
FoamFile
{
    format      ascii;
    class       volScalarField;
    location    "8.9";
    object      k;
}
// * * * * * * * * * * * * * * * * * * * * * * * * * * * * * * * * * * * * * //

dimensions      [0 2 -2 0 0 0 0];

internalField   nonuniform List<scalar> 
6400
(
5.64003e-07
2.89701e-06
7.04528e-06
1.13463e-05
1.45819e-05
1.63946e-05
1.70525e-05
1.7121e-05
1.7236e-05
1.78875e-05
1.94552e-05
2.24957e-05
2.72759e-05
3.38824e-05
4.19591e-05
5.10535e-05
6.0697e-05
7.07091e-05
8.06104e-05
9.01831e-05
9.984e-05
0.000110419
0.000123031
0.000138296
0.000155522
0.000172838
0.000190057
0.000207151
0.000224662
0.000243053
0.000262063
0.000281067
0.00029976
0.000318215
0.000336884
0.000355885
0.000375598
0.000396144
0.000417769
0.000440532
0.000464598
0.000490155
0.000517342
0.000546471
0.000577812
0.00061247
0.000652529
0.00070244
0.000751756
0.000802282
0.000851547
0.000899382
0.000944161
0.000984689
0.00101945
0.00104657
0.00106011
0.00106544
0.00106247
0.00104148
0.00100485
0.000952823
0.000885944
0.000807195
0.000717512
0.000621933
0.000525008
0.000430373
0.000341477
0.000262618
0.000198265
0.000144253
0.000100619
6.72898e-05
4.32868e-05
2.69182e-05
1.62311e-05
9.33674e-06
4.42062e-06
9.42563e-07
2.72533e-06
2.28971e-05
5.55736e-05
8.68127e-05
0.000109856
0.00012357
0.000130114
0.000132819
0.000135321
0.000140769
0.000152706
0.000175085
0.000209013
0.000253767
0.00030718
0.000366525
0.000429377
0.000493299
0.000556512
0.000618453
0.000681381
0.000749786
0.000829212
0.000921944
0.00102372
0.00112541
0.00122433
0.00131844
0.00140875
0.00149625
0.00157919
0.00165661
0.00172706
0.00179155
0.00185239
0.00191048
0.0019678
0.0020252
0.00208401
0.00214477
0.00220818
0.00227494
0.00234509
0.00241879
0.00249539
0.00257485
0.00265526
0.00273374
0.00281821
0.00290456
0.00299336
0.00308102
0.00316596
0.00324442
0.00331303
0.00336768
0.00339606
0.00340481
0.00339218
0.00334543
0.0032608
0.003138
0.00297543
0.00277659
0.00254615
0.00229307
0.00202848
0.00176051
0.00149688
0.00124155
0.000998822
0.000778267
0.00058624
0.00042574
0.000297154
0.000198656
0.000127105
7.67528e-05
3.72908e-05
4.98564e-06
5.96127e-06
4.96622e-05
0.000115419
0.000170392
0.000207732
0.000229752
0.000241945
0.000250394
0.000261211
0.000280413
0.000313873
0.000366356
0.00043947
0.000531277
0.000637647
0.000754329
0.000878033
0.00100606
0.00113588
0.00126539
0.00139297
0.00151787
0.00163785
0.00174748
0.0018418
0.00191701
0.00197055
0.00200806
0.00203721
0.00206506
0.00209565
0.00212812
0.00216308
0.00219808
0.0022367
0.00227807
0.00232395
0.00237423
0.00242996
0.00249111
0.00255745
0.00262969
0.00270716
0.00279011
0.00287838
0.00297188
0.0030699
0.00317369
0.003283
0.00339611
0.00351206
0.00362854
0.0037433
0.00385295
0.00395368
0.00404065
0.00410867
0.00414494
0.0041554
0.00413527
0.00407002
0.00395929
0.00379883
0.00359081
0.00333773
0.00304763
0.00273676
0.00241395
0.00208957
0.00177393
0.00147586
0.00120199
0.000957203
0.000743959
0.000563047
0.000413746
0.000292793
0.000192626
9.80916e-05
1.33536e-05
1.036e-05
8.34849e-05
0.000181289
0.000254586
0.000302496
0.000332206
0.000352353
0.000371566
0.000398325
0.000440906
0.000506634
0.000599944
0.000720471
0.000863329
0.00102157
0.00118857
0.00135856
0.00152592
0.00168456
0.00182866
0.00195257
0.00205432
0.00213126
0.00217635
0.00219555
0.00220008
0.0021956
0.00219305
0.00219263
0.00219833
0.00220935
0.00222378
0.00224334
0.00226773
0.00229746
0.00233224
0.0023727
0.00241871
0.00247024
0.00252765
0.00259086
0.00266021
0.00273548
0.0028167
0.00290342
0.00299612
0.00309558
0.00320154
0.00331356
0.00343073
0.00355204
0.00367582
0.00379992
0.00392141
0.00403671
0.00414125
0.00422987
0.00429434
0.00432449
0.0043292
0.00429029
0.00420615
0.00407924
0.00390237
0.00367248
0.00339098
0.00307491
0.00273505
0.00238685
0.00204444
0.00171971
0.00142129
0.00115418
0.00092035
0.000719841
0.000550998
0.000409481
0.000285621
0.000155857
2.22754e-05
1.66345e-05
0.00012873
0.000259366
0.000350215
0.000408861
0.000447705
0.000478852
0.00051382
0.000563634
0.00063834
0.000745126
0.000885768
0.00105552
0.00124495
0.00144319
0.00163998
0.00182594
0.00199218
0.00212955
0.00223387
0.0022943
0.00231768
0.0023196
0.00228957
0.00225925
0.00223207
0.00220994
0.00219508
0.00218812
0.00218611
0.00218804
0.00219517
0.00220692
0.00222289
0.00224298
0.00226718
0.00229536
0.00232721
0.00236276
0.00240225
0.00244569
0.00249359
0.00254668
0.00260577
0.00267181
0.00274477
0.00282444
0.00291129
0.00300551
0.00310715
0.00321601
0.00333153
0.00345269
0.00357794
0.00370511
0.00383062
0.00394983
0.00405707
0.00414567
0.00419948
0.00421841
0.00419486
0.00411404
0.00397739
0.00379393
0.00355248
0.00325446
0.00291796
0.00256042
0.00220027
0.00185456
0.0015364
0.00125334
0.00100772
0.000798633
0.000622942
0.00047484
0.000342122
0.000195202
2.84748e-05
2.5595e-05
0.000188741
0.000354192
0.000463404
0.000534229
0.000584527
0.000630268
0.000686127
0.000765317
0.000878092
0.00102897
0.00121457
0.00142421
0.00164318
0.00185626
0.00204945
0.00221061
0.00233247
0.0023978
0.00241937
0.00240666
0.00236158
0.00231669
0.00227298
0.00223241
0.00219708
0.00216822
0.00214551
0.00212745
0.00211277
0.00210105
0.00209334
0.00208928
0.00208771
0.00208761
0.00209107
0.0020967
0.00210515
0.00211647
0.00213117
0.00214946
0.00217202
0.00219887
0.0022304
0.00226726
0.00230989
0.00235916
0.00241598
0.00248137
0.00255643
0.00264209
0.00273919
0.00284821
0.00296895
0.00310028
0.00324078
0.00338734
0.00353542
0.00367877
0.00380816
0.00391441
0.00396812
0.00398198
0.00393432
0.00382122
0.0036451
0.00339014
0.00307422
0.00271562
0.00233776
0.0019651
0.00161859
0.00131186
0.00104994
0.000831385
0.000650919
0.000500329
0.000365035
0.000212845
3.07944e-05
3.80292e-05
0.000265443
0.000468093
0.000596995
0.000681708
0.000745934
0.000809743
0.000890667
0.00100279
0.00115417
0.00134409
0.0015624
0.00179217
0.00201398
0.00220958
0.00236388
0.00245732
0.00249231
0.00249009
0.00244073
0.00238711
0.00232427
0.00226363
0.0022031
0.0021491
0.00210244
0.00206172
0.00202498
0.00199153
0.00196171
0.00193576
0.00191271
0.00189177
0.00187283
0.00185596
0.00184158
0.0018294
0.00181987
0.00181304
0.00180971
0.00180859
0.00181012
0.0018158
0.00182491
0.00183851
0.00185661
0.00188031
0.00191023
0.00194759
0.00199399
0.00205128
0.00212147
0.00220687
0.00230959
0.00243051
0.00257064
0.00273051
0.00290653
0.0030932
0.00328358
0.00346924
0.00363394
0.00375112
0.00379994
0.00379879
0.0037071
0.00353705
0.00326621
0.00292065
0.00252735
0.00211914
0.00172839
0.00138005
0.00108659
0.000848126
0.000657271
0.000501394
0.000363737
0.00021182
2.99274e-05
5.46639e-05
0.000359853
0.000601685
0.000751616
0.000851815
0.000932024
0.00101622
0.00112381
0.00126774
0.00145144
0.0016673
0.0018982
0.00212195
0.00231618
0.00246271
0.00253512
0.002554
0.00252294
0.00246733
0.00239164
0.00230833
0.00222086
0.00214306
0.00207262
0.00201252
0.00195713
0.0019064
0.001859
0.00181502
0.00177435
0.0017368
0.00170202
0.00167001
0.00164091
0.00161487
0.00159199
0.00157204
0.00155509
0.00154113
0.00153022
0.00152216
0.00151797
0.00151643
0.00151708
0.00152263
0.00153137
0.00154467
0.00156262
0.00158599
0.0016152
0.0016513
0.00169546
0.00174947
0.00181606
0.00189993
0.00200627
0.00213954
0.00230436
0.00249952
0.00271718
0.00295267
0.0031917
0.00341836
0.00360706
0.0037022
0.00372622
0.00366466
0.00349463
0.00319392
0.00280392
0.00236285
0.00191553
0.00150352
0.00115467
0.000877522
0.000663871
0.000496719
0.000355173
0.000205093
2.78373e-05
7.60029e-05
0.000471734
0.000754291
0.000926316
0.00104309
0.00114018
0.00124484
0.00137689
0.00154606
0.00174956
0.0019726
0.00219241
0.00238401
0.00252027
0.00258081
0.00258928
0.00254502
0.00247668
0.00238016
0.00226951
0.00216634
0.00207506
0.00199339
0.00191939
0.00185241
0.00178945
0.00173096
0.00167633
0.00162596
0.0015798
0.00153793
0.00150035
0.00146716
0.00143829
0.00141355
0.00139275
0.00137572
0.00136222
0.001352
0.00134483
0.00134127
0.00134
0.00134045
0.00134472
0.00135163
0.00136134
0.0013741
0.00138998
0.00140929
0.00143228
0.0014595
0.00149152
0.00152914
0.00157345
0.00162605
0.0016893
0.00176729
0.00186717
0.00200263
0.0021886
0.00242257
0.0026898
0.00297843
0.00326421
0.00351853
0.00366453
0.0037112
0.00367534
0.00349824
0.0031549
0.002708
0.00221013
0.00172045
0.00128957
0.000944871
0.000687123
0.000496804
0.000341977
0.000191416
2.54506e-05
0.000102235
0.000599299
0.000923861
0.00111876
0.00125225
0.0013653
0.00148753
0.00163768
0.00182079
0.00202736
0.00223656
0.0024224
0.00255189
0.00260572
0.00260932
0.00256262
0.00247678
0.00235637
0.00222908
0.00211342
0.00200916
0.00191622
0.00183164
0.00175392
0.00168216
0.00161542
0.00155439
0.00149901
0.0014497
0.00140643
0.00136918
0.00133772
0.00131174
0.00129078
0.00127437
0.00126198
0.00125308
0.00124748
0.00124485
0.00124403
0.00124527
0.00124888
0.00125426
0.00126183
0.00127118
0.00128253
0.00129594
0.00131159
0.00132968
0.00135045
0.00137408
0.0014009
0.00143126
0.00146562
0.0015045
0.00154868
0.00159987
0.00166098
0.00173735
0.00183832
0.00198079
0.00219766
0.00248472
0.00281051
0.00315534
0.003474
0.00367106
0.00373863
0.00371741
0.00352155
0.0031233
0.00260983
0.00205156
0.00152322
0.00108176
0.000748483
0.000511984
0.000336461
0.000178727
2.34621e-05
0.000133859
0.000738695
0.00110725
0.00132528
0.00147431
0.00160024
0.00173415
0.00189254
0.00207519
0.00226667
0.00244225
0.00256651
0.0026171
0.00261864
0.00257156
0.00247143
0.00233389
0.00219518
0.00206547
0.00195019
0.0018464
0.00175266
0.00166674
0.00158807
0.00151647
0.0014521
0.00139553
0.00134673
0.0013057
0.00127198
0.00124502
0.00122408
0.00120835
0.00119704
0.0011894
0.00118521
0.00118342
0.00118307
0.00118501
0.00118846
0.00119348
0.00119999
0.00120792
0.00121738
0.00122835
0.001241
0.00125543
0.00127177
0.00129016
0.00131071
0.00133355
0.0013588
0.00138662
0.00141721
0.00145092
0.00148803
0.00152862
0.00157352
0.00162445
0.00168525
0.0017642
0.00187647
0.00204784
0.00232557
0.00268436
0.00307855
0.003461
0.00370622
0.00379081
0.00377049
0.00353888
0.00307289
0.00248617
0.00187057
0.00131507
0.000875887
0.000561317
0.000345674
0.000174752
2.26975e-05
0.000172261
0.00088553
0.00130073
0.00154107
0.00170295
0.00183664
0.00197392
0.00212853
0.00229541
0.00245487
0.00257296
0.00262199
0.00262332
0.00257685
0.00246835
0.00231984
0.00216895
0.00202757
0.00190032
0.0017872
0.00168501
0.00159262
0.00150904
0.00143448
0.00136918
0.00131339
0.00126705
0.00122961
0.00120028
0.001178
0.0011617
0.00115026
0.0011427
0.0011385
0.00113663
0.00113615
0.00113722
0.00113973
0.00114349
0.00114833
0.00115436
0.0011616
0.00117017
0.00118019
0.0011918
0.00120518
0.00122049
0.00123788
0.0012575
0.00127947
0.00130385
0.00133065
0.00135983
0.00139123
0.00142469
0.00146007
0.00149745
0.00153726
0.00157962
0.00162502
0.0016764
0.00174046
0.00183173
0.00197586
0.00221706
0.0025946
0.00302923
0.00347493
0.00375797
0.00385221
0.00381541
0.00352523
0.00297773
0.00231574
0.00165538
0.00109092
0.000668474
0.000381372
0.000181568
2.34337e-05
0.000214861
0.00103987
0.00150011
0.00176061
0.0019313
0.00206606
0.00219697
0.00233519
0.00247201
0.00258017
0.00262721
0.0026291
0.00258332
0.00247239
0.00231714
0.00215444
0.00200108
0.00186272
0.00173976
0.00163026
0.00153207
0.00144483
0.00136841
0.00130316
0.00124899
0.00120543
0.00117154
0.00114602
0.00112746
0.00111443
0.00110567
0.0011001
0.0010971
0.00109576
0.00109537
0.00109587
0.00109758
0.00110013
0.00110359
0.00110802
0.00111359
0.00112041
0.00112868
0.00113855
0.00115022
0.00116389
0.00117973
0.00119795
0.00121873
0.00124222
0.00126853
0.00129773
0.00132975
0.00136441
0.00140137
0.0014401
0.00147997
0.00152042
0.00156129
0.00160319
0.0016461
0.00169158
0.00174597
0.00182199
0.00194481
0.00215923
0.00253637
0.00301127
0.00351258
0.00381653
0.00390785
0.00383337
0.00345436
0.00281178
0.00208437
0.00139941
0.000849859
0.000463216
0.000206642
2.66839e-05
0.000260444
0.001198
0.00170039
0.00197798
0.00215253
0.0022809
0.00239543
0.00250549
0.00259754
0.00263965
0.00264143
0.00259507
0.00248592
0.00232718
0.00215456
0.00198854
0.00183859
0.00170577
0.00158857
0.00148509
0.00139434
0.00131643
0.00125125
0.00119852
0.00115726
0.00112609
0.0011033
0.00108713
0.00107595
0.00106839
0.00106335
0.00106002
0.00105788
0.00105651
0.00105585
0.00105566
0.00105625
0.00105765
0.00106
0.00106342
0.00106808
0.00107417
0.00108186
0.00109135
0.0011028
0.00111643
0.00113244
0.00115104
0.00117244
0.00119686
0.00122449
0.00125551
0.00128998
0.00132786
0.0013689
0.0014126
0.00145812
0.00150436
0.00155006
0.00159421
0.00163684
0.00167892
0.00172086
0.00176817
0.00183377
0.00194371
0.00214636
0.00251445
0.00302647
0.00357377
0.00387117
0.0039433
0.00380551
0.00329449
0.00256073
0.00178311
0.00110497
0.000601169
0.000261826
3.4647e-05
0.000307518
0.00135572
0.00189642
0.00218744
0.00236047
0.00247506
0.00256405
0.00263471
0.0026672
0.00266612
0.00261645
0.00251109
0.00235158
0.00217107
0.00199249
0.0018296
0.00168603
0.00156046
0.00145105
0.00135657
0.00127661
0.00121099
0.0011589
0.00111905
0.00108954
0.00106832
0.00105335
0.00104285
0.00103538
0.00102986
0.00102555
0.001022
0.00101896
0.00101634
0.00101422
0.00101278
0.00101214
0.00101204
0.00101321
0.00101568
0.00101951
0.00102494
0.0010321
0.00104116
0.0010523
0.0010657
0.00108156
0.00110009
0.00112153
0.00114614
0.0011742
0.00120596
0.00124168
0.00128151
0.00132545
0.00137327
0.00142435
0.00147763
0.00153149
0.0015839
0.00163282
0.00167724
0.00171779
0.0017568
0.00180002
0.00185874
0.00196211
0.00215946
0.00253173
0.00308172
0.00364846
0.00391424
0.00394773
0.00370016
0.00303625
0.00221001
0.00141764
0.000787818
0.000346248
4.75894e-05
0.000354739
0.001509
0.0020835
0.00238399
0.00255
0.00264424
0.00269785
0.00271889
0.00270874
0.00265246
0.00255057
0.00239201
0.00220563
0.00201503
0.00183789
0.00168166
0.00154635
0.00142981
0.00133052
0.00124762
0.00118047
0.00112801
0.00108844
0.00105953
0.00103886
0.00102418
0.00101355
0.00100549
0.000998964
0.000993282
0.000988075
0.000983189
0.000978622
0.000974468
0.000970879
0.000968022
0.000966211
0.000965451
0.000965407
0.000967188
0.000970447
0.000975373
0.000982117
0.000990807
0.0010016
0.00101466
0.00103017
0.00104834
0.0010694
0.00109364
0.00112136
0.0011529
0.00118863
0.00122889
0.00127396
0.00132395
0.00137869
0.00143754
0.00149923
0.00156167
0.001622
0.00167698
0.00172419
0.001764
0.00179653
0.00183678
0.00189283
0.00199461
0.00219477
0.00258553
0.00317896
0.00372951
0.00395123
0.00390231
0.00346162
0.00264876
0.00176772
0.00101178
0.000452336
6.434e-05
0.000401048
0.00165352
0.00225789
0.0025644
0.00271649
0.00278024
0.00279543
0.00277297
0.00270797
0.00260782
0.00245042
0.0022599
0.00205819
0.00186578
0.0016945
0.00154706
0.00142156
0.00131584
0.00122856
0.00115857
0.00110444
0.00106403
0.00103471
0.00101376
0.000998669
0.000987389
0.00097838
0.000970604
0.000963433
0.000956556
0.000949879
0.000943454
0.000937411
0.000931919
0.000927158
0.0009233
0.000920534
0.000919172
0.000918745
0.000919834
0.000922742
0.000927297
0.00093371
0.000942069
0.000952518
0.000965199
0.000980277
0.000997945
0.00101843
0.00104199
0.00106896
0.00109968
0.00113459
0.00117414
0.0012188
0.00126899
0.00132497
0.00138667
0.0014535
0.001524
0.00159562
0.00166462
0.00172634
0.00177792
0.00181748
0.00184081
0.00187694
0.00193429
0.00203868
0.00225131
0.00267683
0.00331286
0.00380131
0.00394963
0.00376155
0.0030716
0.00214113
0.0012638
0.000573778
8.38468e-05
0.000445594
0.00178804
0.00241612
0.00272123
0.00285325
0.00288826
0.00286684
0.00279596
0.0026855
0.00252944
0.00233566
0.00212402
0.00191581
0.00172705
0.0015643
0.0014271
0.00131278
0.00121921
0.00114476
0.00108753
0.00104506
0.00101437
0.000992403
0.000976403
0.000964141
0.000954003
0.000944925
0.000936303
0.00092786
0.000919544
0.000911439
0.000903695
0.000896494
0.000890017
0.000884433
0.000879895
0.00087654
0.000874755
0.000874101
0.000874662
0.000877289
0.000881535
0.000887638
0.000895673
0.000905769
0.000918054
0.00093268
0.00094982
0.000969679
0.000992502
0.00101858
0.00104828
0.00108201
0.00112026
0.00116362
0.00121267
0.00126801
0.00133005
0.00139889
0.00147397
0.00155369
0.00163503
0.00171322
0.00178197
0.00183811
0.00187363
0.00189032
0.00192169
0.00198167
0.00209432
0.00233202
0.00281619
0.00349315
0.00384289
0.00388101
0.00345163
0.00252816
0.00153975
0.000706553
0.000105173
0.000486633
0.00190901
0.00255316
0.00285197
0.00296181
0.00297269
0.00290854
0.00278986
0.00263378
0.00243522
0.00221458
0.0019907
0.00178238
0.00160073
0.00144815
0.00132226
0.00122005
0.00113913
0.00107716
0.00103129
0.000998227
0.00097455
0.000957202
0.000943737
0.000932397
0.000922058
0.000912096
0.000902247
0.000892477
0.000882886
0.000873636
0.000864911
0.000856891
0.000849739
0.000843598
0.000838594
0.000834839
0.000832695
0.000831853
0.000831974
0.000834277
0.000838209
0.000843972
0.000851655
0.000861371
0.000873245
0.000887417
0.000904044
0.000923314
0.000945445
0.000970701
0.000999402
0.00103194
0.00106879
0.00111054
0.00115784
0.00121146
0.00127215
0.00134053
0.00141684
0.00150059
0.00159002
0.00168152
0.00176918
0.00184482
0.00190306
0.00193014
0.00194254
0.00197011
0.00203503
0.00216341
0.0024487
0.00301711
0.00364555
0.00388358
0.00370364
0.00290851
0.00183627
0.000848291
0.000127663
0.000522706
0.00201349
0.0026669
0.00295652
0.00304724
0.00303101
0.00292506
0.00276582
0.00256229
0.00233222
0.00209315
0.00186399
0.00165993
0.00148754
0.00134614
0.00123222
0.00114241
0.00107372
0.00102291
0.000986325
0.000960176
0.000941037
0.000926163
0.000913587
0.000902059
0.000890897
0.000879814
0.000868776
0.000857885
0.000847308
0.000837225
0.000827811
0.000819222
0.000811592
0.000805039
0.000799666
0.000795568
0.000793013
0.000791898
0.000791721
0.000793548
0.000797117
0.000802483
0.000809761
0.000819057
0.000830494
0.000844206
0.000860342
0.000879072
0.000900595
0.000925143
0.000952999
0.000984509
0.0010201
0.00106032
0.00110581
0.00115738
0.00121592
0.00128238
0.00135759
0.00144198
0.00153506
0.00163479
0.00173682
0.00183378
0.00191526
0.00196964
0.00198788
0.00199553
0.00202216
0.0020948
0.00225056
0.00261332
0.0032681
0.00372413
0.00379677
0.00326185
0.00214818
0.000994515
0.000151133
0.000553018
0.0021003
0.00275699
0.00303573
0.00311062
0.00306431
0.00291913
0.00271834
0.00248007
0.00222594
0.0019755
0.00174622
0.00154931
0.00138745
0.00125778
0.00115598
0.00107815
0.00102052
0.000979019
0.000949458
0.000927978
0.000911436
0.000897566
0.000884916
0.000872689
0.000860539
0.000848407
0.000836387
0.000824641
0.000813345
0.000802666
0.000792753
0.000783731
0.00077571
0.000768786
0.000763047
0.000758577
0.000755518
0.000754046
0.000753629
0.000754864
0.000757997
0.000762903
0.000769716
0.000778544
0.000789511
0.000802748
0.0008184
0.000836628
0.000857612
0.000881564
0.000908731
0.000939415
0.000973993
0.00101294
0.00105684
0.00110647
0.00116273
0.00122671
0.00129959
0.00138241
0.00147576
0.00157911
0.00168996
0.00180279
0.00190811
0.00199207
0.00203448
0.00204524
0.00204847
0.00207763
0.00216328
0.0023674
0.00285667
0.00351859
0.00378252
0.0035282
0.00246494
0.00114247
0.000175463
0.000577132
0.00216948
0.00282451
0.00309146
0.00315166
0.00307569
0.00289879
0.00265908
0.00239204
0.00212042
0.00186424
0.00163853
0.0014506
0.00129994
0.00118209
0.00109204
0.0010252
0.000977007
0.000942801
0.000918217
0.000899618
0.000884318
0.00087057
0.000857385
0.000844316
0.000831249
0.000818256
0.000805485
0.000793107
0.000781281
0.000770149
0.000759829
0.000750423
0.000742022
0.000734708
0.00072856
0.000723657
0.00072008
0.000718153
0.000717461
0.000718042
0.000720661
0.000725051
0.000731349
0.000739665
0.000750125
0.000762863
0.000778023
0.00079576
0.000816246
0.000839676
0.000866273
0.000896301
0.000930087
0.000968039
0.00101068
0.00105868
0.00111291
0.00117444
0.00124457
0.00132472
0.0014162
0.00151971
0.00163458
0.00175764
0.00188198
0.00199593
0.00207216
0.00209853
0.00210167
0.00209905
0.0021373
0.00224655
0.00254068
0.00316603
0.00361461
0.00364644
0.00278368
0.00130367
0.000201968
0.000594988
0.00222171
0.00287086
0.00312555
0.00317224
0.00306962
0.00286054
0.00259154
0.00230195
0.0020185
0.0017609
0.00154131
0.00136339
0.00122411
0.00111777
0.00103865
0.000981436
0.000940912
0.000912136
0.000890861
0.000873855
0.000858947
0.000844867
0.000830997
0.000817136
0.00080331
0.000789648
0.000776312
0.000763453
0.000751207
0.000739687
0.000728988
0.000719197
0.000710391
0.000702649
0.000696047
0.000690662
0.000686575
0.000684087
0.000683066
0.000683017
0.000685033
0.000688869
0.000694614
0.000702382
0.000712304
0.000724515
0.000739161
0.000756398
0.000776395
0.000799336
0.00082543
0.000854915
0.000888078
0.000925271
0.000966944
0.00101368
0.00106625
0.00112565
0.00119317
0.00127034
0.00135888
0.00146033
0.00157542
0.00170296
0.00183834
0.00197188
0.00208761
0.00214995
0.00216255
0.00215311
0.00214492
0.00220028
0.00236516
0.00282375
0.00345863
0.00366826
0.00309812
0.001503
0.000235734
0.000606878
0.00225803
0.00289708
0.00313827
0.00317195
0.00305042
0.00281265
0.00251934
0.00221268
0.00192205
0.00166623
0.00145438
0.00128694
0.00115885
0.00106336
0.000994048
0.000944932
0.000910397
0.000885484
0.000866267
0.000850003
0.000835011
0.000820419
0.000805879
0.000791347
0.000776921
0.000762745
0.000748966
0.000735714
0.000723096
0.000711204
0.000700122
0.000689925
0.000680688
0.000672488
0.000665404
0.000659518
0.00065492
0.000651761
0.00065024
0.000649837
0.000651139
0.000654398
0.000659568
0.000666766
0.000676123
0.00068778
0.000701885
0.000718598
0.000738089
0.000760539
0.00078615
0.000815145
0.000847785
0.000884379
0.000925316
0.000971097
0.00102239
0.00108007
0.00114534
0.00121972
0.00130508
0.00140348
0.00151674
0.00164553
0.00178794
0.00193756
0.00208158
0.00218415
0.00222181
0.00222324
0.00219826
0.00219218
0.00228043
0.00255243
0.00318611
0.00356124
0.00335147
0.00175681
0.000281441
0.000612848
0.00227874
0.00290427
0.00313512
0.0031609
0.00301634
0.00275753
0.00244522
0.00212631
0.00183219
0.00158045
0.00137727
0.00122036
0.00110295
0.0010174
0.000956602
0.000914091
0.000884078
0.0008618
0.000843767
0.000827726
0.000812423
0.000797289
0.000782162
0.000767087
0.000752186
0.000737599
0.000723449
0.000709841
0.000696866
0.000684601
0.000673121
0.0006625
0.000652814
0.00064414
0.000636562
0.000630165
0.000625038
0.000621274
0.000619208
0.000618474
0.000619076
0.000621745
0.000626334
0.000632951
0.000641727
0.000652806
0.000666342
0.000682498
0.000701448
0.000723379
0.000748491
0.000777002
0.000809156
0.000845238
0.000885588
0.00093064
0.000980963
0.00103733
0.00110078
0.00117274
0.00125506
0.00135
0.00145999
0.00158697
0.0017311
0.00188871
0.00204991
0.00219649
0.00227655
0.00229197
0.00226582
0.00223303
0.0022532
0.00240637
0.00289663
0.00341805
0.00347291
0.00206144
0.000339154
0.000612509
0.00228664
0.00289944
0.00312081
0.00313515
0.0029733
0.00269788
0.00237136
0.00204427
0.00174955
0.00150341
0.00130933
0.00116264
0.00105519
0.000978504
0.000924926
0.000887663
0.00086097
0.00084042
0.000822992
0.000806884
0.000791187
0.000775551
0.000759933
0.000744418
0.000729132
0.000714194
0.000699708
0.00068576
0.000672427
0.000659782
0.000647897
0.000636848
0.000626712
0.000617572
0.000609511
0.000602619
0.000596982
0.000592692
0.000590059
0.000588993
0.000588977
0.000591045
0.00059506
0.000601096
0.000609284
0.000619769
0.000632708
0.000648272
0.00066664
0.000688007
0.000712578
0.000740574
0.000772235
0.00080783
0.00084767
0.000892138
0.000941723
0.000997086
0.00105914
0.00112915
0.00120885
0.00130053
0.00140695
0.00153099
0.00167459
0.00183696
0.00201184
0.00218473
0.00231196
0.00235719
0.00235234
0.00228609
0.00225646
0.00233051
0.0026498
0.00327848
0.00350403
0.00240608
0.000406456
0.000609297
0.00228468
0.0028835
0.00309125
0.00309678
0.00292318
0.00263574
0.00229937
0.00196753
0.00167434
0.00143474
0.00124979
0.0011128
0.00101442
0.000945485
0.000897889
0.000864711
0.000840398
0.000820933
0.00080375
0.00078743
0.000771331
0.000755257
0.00073923
0.000723351
0.000707733
0.000692478
0.000677672
0.000663389
0.0006497
0.000636677
0.000624393
0.000612928
0.000602363
0.000592782
0.000584275
0.000576928
0.000570834
0.000566087
0.000562864
0.000561342
0.000560993
0.000562434
0.000565888
0.000571355
0.000578956
0.000588836
0.000601157
0.000616096
0.000633839
0.000654591
0.000678567
0.000705995
0.00073712
0.000772209
0.000811556
0.000855511
0.000904504
0.000959102
0.00102009
0.00108857
0.0011661
0.00125485
0.00135765
0.00147783
0.00161858
0.00178129
0.00196283
0.0021518
0.00232502
0.00241589
0.00243116
0.00237939
0.00230738
0.00230454
0.00248064
0.00305269
0.0034259
0.00275271
0.000476728
0.000602161
0.002276
0.00285368
0.00305115
0.0030497
0.00286802
0.0025728
0.00223041
0.00189663
0.00160654
0.00137395
0.00119785
0.00106986
0.000979605
0.000917322
0.000874606
0.000844555
0.000821914
0.000803094
0.000785939
0.000769348
0.000752874
0.000736422
0.000720049
0.000703854
0.000687938
0.000672384
0.000657268
0.000642657
0.000628622
0.000615235
0.000602575
0.000590723
0.000579765
0.000569788
0.00056088
0.000553132
0.000546631
0.00054147
0.000537742
0.000535778
0.000535148
0.000536017
0.000538935
0.000543851
0.000550873
0.000560147
0.000571836
0.000586122
0.000603201
0.000623287
0.000646607
0.000673403
0.000703932
0.000738464
0.000777294
0.000820752
0.000869228
0.000923218
0.000983393
0.0010507
0.00112653
0.00121284
0.00131239
0.00142872
0.00156585
0.00172709
0.00191263
0.00211575
0.00231836
0.00245991
0.00250295
0.00247837
0.00236272
0.00231028
0.0023968
0.0028372
0.00328807
0.0030297
0.000534051
0.000591042
0.00225767
0.00281495
0.00300357
0.00299582
0.00280955
0.00251035
0.0021653
0.00183186
0.00154594
0.00132046
0.00115274
0.00103295
0.000949849
0.000893188
0.000854396
0.00082671
0.000805222
0.000786752
0.000769504
0.000752625
0.000735811
0.000719031
0.000702356
0.000685879
0.000669685
0.000653847
0.000638433
0.00062351
0.000609148
0.000595425
0.000582423
0.000570227
0.000558925
0.000548605
0.000539355
0.000531262
0.000524411
0.000518886
0.00051477
0.00051238
0.000511489
0.000511864
0.000514276
0.000518664
0.000525124
0.000533796
0.000544847
0.00055846
0.000574843
0.000594217
0.000616825
0.000642924
0.000672786
0.000706697
0.000744957
0.000787894
0.000835874
0.000889343
0.000948883
0.00101531
0.00108981
0.00117414
0.00127086
0.00138346
0.00151636
0.00167404
0.00185911
0.00206842
0.0022881
0.00248053
0.00256742
0.0025723
0.0024685
0.00235704
0.00235694
0.00266094
0.00315958
0.00316188
0.000560692
0.000576541
0.0022325
0.0027693
0.00294989
0.00293712
0.00274921
0.00244938
0.00210456
0.00177329
0.00149222
0.00127371
0.00111372
0.00100128
0.000924383
0.000872415
0.000836749
0.000810831
0.000790119
0.000771809
0.000754403
0.000737241
0.000720122
0.000703052
0.000686107
0.000669369
0.000652915
0.000636808
0.000621115
0.000605902
0.000591245
0.000577224
0.000563925
0.000551437
0.000539847
0.000529245
0.000519716
0.000511342
0.000504204
0.000498381
0.000493948
0.000491166
0.000490025
0.000490002
0.000491941
0.000495829
0.000501747
0.00050983
0.000520243
0.000533175
0.000548838
0.000567465
0.000589312
0.000614653
0.00064378
0.000676996
0.00071462
0.000756986
0.000804453
0.000857436
0.000916451
0.000982199
0.0010557
0.00113849
0.00123288
0.00134222
0.00147104
0.00162472
0.00180795
0.00202127
0.00225545
0.00248489
0.00262435
0.00265499
0.00258151
0.00240676
0.00234647
0.00250273
0.0030525
0.0031993
0.000565403
0.000559477
0.00220267
0.00271845
0.00289159
0.0028752
0.0026882
0.00239064
0.0020485
0.00172085
0.00144501
0.00123311
0.00108014
0.000974163
0.000902572
0.000854477
0.000821276
0.000796669
0.000776464
0.00075819
0.000740594
0.000723163
0.000705768
0.000688437
0.000671245
0.000654267
0.00063757
0.000621215
0.000605268
0.000589798
0.000574885
0.000560612
0.000547069
0.000534344
0.000522528
0.000511706
0.00050196
0.000493369
0.000486008
0.00047995
0.000475267
0.000472123
0.000470677
0.00047042
0.000471914
0.000475332
0.000480733
0.000488244
0.00049803
0.000510279
0.00052521
0.000543066
0.000564115
0.000588647
0.000616976
0.000649429
0.000686345
0.000728076
0.000774989
0.000827484
0.000886032
0.000951245
0.00102399
0.00110561
0.00119812
0.00130462
0.00142956
0.00157869
0.00175812
0.00197146
0.00221443
0.00246805
0.00266458
0.00272989
0.00269531
0.00250642
0.0023733
0.00242571
0.00288392
0.00317138
0.000554097
0.000540521
0.00216996
0.00266402
0.00283009
0.00281142
0.00262746
0.00233463
0.00199724
0.00167435
0.0014039
0.00119811
0.00105137
0.000951002
0.000883889
0.000838955
0.000807683
0.000784037
0.00076415
0.000745835
0.000728036
0.000710353
0.000692706
0.000675138
0.000657719
0.00064052
0.000623601
0.000607023
0.000590854
0.000575166
0.000560041
0.000545567
0.000531833
0.000518931
0.000506947
0.000495964
0.000486061
0.000477311
0.000469783
0.000463544
0.000458661
0.00045521
0.000453485
0.000453032
0.000454135
0.000457117
0.000462029
0.000468992
0.000478166
0.000489741
0.00050394
0.000521012
0.000541238
0.000564925
0.000592406
0.000624033
0.000660173
0.000701203
0.000747506
0.000799486
0.000857587
0.000922355
0.000994541
0.00107528
0.00116634
0.00127052
0.00139203
0.00153678
0.00171183
0.00192317
0.00217042
0.00243877
0.0026838
0.00279598
0.00279599
0.00262392
0.00241724
0.00239393
0.00273353
0.0030976
0.000534529
0.000520319
0.0021351
0.00260724
0.00276664
0.00274686
0.00256773
0.00228171
0.00195079
0.00163354
0.00136849
0.00116824
0.00102691
0.000931297
0.000867904
0.000825521
0.000795742
0.000772791
0.000753089
0.000734685
0.000716682
0.000698764
0.000680887
0.000663101
0.000645476
0.000628076
0.000610961
0.000594192
0.000577836
0.000561972
0.000546683
0.000532059
0.000518189
0.000505164
0.000493068
0.00048198
0.000471974
0.000463116
0.000455468
0.00044909
0.00044404
0.000440379
0.000438383