/*--------------------------------*- C++ -*----------------------------------*\
  =========                 |
  \\      /  F ield         | OpenFOAM: The Open Source CFD Toolbox
   \\    /   O peration     | Website:  https://openfoam.org
    \\  /    A nd           | Version:  13
     \\/     M anipulation  |
\*---------------------------------------------------------------------------*/
FoamFile
{
    format      ascii;
    class       volScalarField;
    location    "8.9";
    object      p;
}
// * * * * * * * * * * * * * * * * * * * * * * * * * * * * * * * * * * * * * //

dimensions      [0 2 -2 0 0 0 0];

internalField   nonuniform List<scalar> 
6400
(
4.99823e-09
2.01878e-05
2.91384e-05
1.34133e-05
-3.22196e-05
-0.000102453
-0.000187399
-0.000277749
-0.000367154
-0.000452495
-0.000534547
-0.000617631
-0.000706506
-0.000806416
-0.000922593
-0.00105917
-0.0012191
-0.00140401
-0.0016152
-0.00185331
-0.00211873
-0.00241295
-0.00273896
-0.00310138
-0.00350673
-0.00395971
-0.00445471
-0.00498251
-0.00551957
-0.00603157
-0.0065141
-0.00697518
-0.00741302
-0.00782491
-0.00820533
-0.00854536
-0.0088333
-0.00905566
-0.0091983
-0.00924718
-0.00918896
-0.00901233
-0.0087092
-0.00827569
-0.00770972
-0.00700268
-0.00614616
-0.00516004
-0.00406133
-0.00285714
-0.00156864
-0.000217568
0.00116639
0.00255003
0.00389196
0.00514662
0.00626976
0.00721969
0.00795719
0.00845164
0.00868571
0.00865883
0.00838633
0.00788482
0.00722535
0.00645425
0.00563827
0.0048406
0.00411753
0.00349854
0.00301789
0.00268481
0.00246885
0.00234482
0.00229207
0.00228722
0.00231118
0.00234879
0.00238945
0.00241704
-1.5243e-05
5.34912e-06
9.55241e-06
-1.12449e-05
-5.97902e-05
-0.000129973
-0.000210888
-0.000293868
-0.000373905
-0.000449705
-0.000523435
-0.000599258
-0.000682079
-0.000776686
-0.000886993
-0.00101659
-0.00116877
-0.00134602
-0.00154889
-0.00177757
-0.00203098
-0.00230983
-0.00261746
-0.00295638
-0.00332979
-0.00374522
-0.00421004
-0.00472238
-0.00526776
-0.00582142
-0.00635566
-0.00686164
-0.00734143
-0.00779195
-0.00820733
-0.00857861
-0.00889436
-0.00914173
-0.00930736
-0.0093785
-0.00934296
-0.00919059
-0.00891368
-0.00850649
-0.00796428
-0.00728337
-0.00647055
-0.00553371
-0.00447512
-0.00331329
-0.00206633
-0.000758072
0.000582987
0.00192276
0.00322314
0.00444361
0.00554104
0.00647377
0.00720612
0.00770846
0.00796298
0.00796783
0.00773669
0.00729632
0.00669535
0.0059889
0.00523862
0.0045037
0.00383716
0.00328004
0.00284942
0.00255226
0.00237444
0.00229232
0.00228155
0.00231369
0.00235803
0.00239744
0.00243036
0.00245638
-3.15623e-05
-8.77859e-06
-1.03932e-05
-4.05443e-05
-9.72199e-05
-0.000169966
-0.000246844
-0.000319607
-0.000385651
-0.000446717
-0.000506639
-0.000570471
-0.000643293
-0.00072888
-0.000829748
-0.000947745
-0.00108444
-0.00124209
-0.00142293
-0.00162976
-0.00186623
-0.00213547
-0.00244193
-0.00279062
-0.00318578
-0.00363004
-0.0041238
-0.00466286
-0.00523604
-0.00582553
-0.0064113
-0.00697759
-0.00751523
-0.00801768
-0.00847785
-0.00888645
-0.00923305
-0.00950645
-0.00969477
-0.00978644
-0.00977116
-0.00964001
-0.00938593
-0.0090037
-0.00849013
-0.00784507
-0.00706532
-0.00616361
-0.00514648
-0.00402739
-0.00282352
-0.00155704
-0.000255028
0.00105068
0.00232419
0.00352685
0.00461662
0.00555237
0.006299
0.006828
0.00712057
0.0071726
0.00699699
0.00662084
0.00608788
0.00545111
0.00476716
0.00409745
0.00348993
0.00298106
0.00259494
0.00234381
0.00221493
0.0021787
0.00220503
0.00226869
0.00233928
0.00239804
0.00244604
0.00248369
-4.01867e-05
-1.85348e-05
-2.78508e-05
-6.94106e-05
-0.000136325
-0.00021219
-0.000285275
-0.000349003
-0.000402068
-0.000446855
-0.000489672
-0.000537332
-0.000595396
-0.000667607
-0.000755663
-0.000860375
-0.000983171
-0.00112692
-0.00129554
-0.00149468
-0.00173153
-0.002014
-0.00234941
-0.00274042
-0.00318936
-0.00369746
-0.00426059
-0.00486803
-0.00550387
-0.00615129
-0.00679368
-0.00741579
-0.00800538
-0.0085533
-0.00905098
-0.00948905
-0.00985839
-0.0101491
-0.0103509
-0.0104537
-0.010449
-0.0103289
-0.0100868
-0.00971899
-0.00922379
-0.00859844
-0.00784543
-0.00697038
-0.00598085
-0.00488924
-0.00371162
-0.00246862
-0.00118502
0.000110051
0.00138255
0.00259384
0.0037032
0.00467029
0.00545803
0.00603694
0.00638639
0.00649823
0.006383
0.00606784
0.0055932
0.00500903
0.00437295
0.00374367
0.00317169
0.00269425
0.00233494
0.00210397
0.00199324
0.00198607
0.00205155
0.00215003
0.00225283
0.00234228
0.0024146
0.00246492
-3.42074e-05
-2.03323e-05
-3.99938e-05
-9.32643e-05
-0.000169802
-0.000248499
-0.000317793
-0.000372652
-0.000413147
-0.000443763
-0.000471839
-0.000505055
-0.000549422
-0.000608626
-0.000684821
-0.000779861
-0.000896939
-0.00104187
-0.00122182
-0.00144501
-0.0017213
-0.00205634
-0.00245491
-0.00292134
-0.00345495
-0.00404971
-0.0046953
-0.00537705
-0.00607734
-0.00677981
-0.007469
-0.0081323
-0.00875898
-0.00933853
-0.00986172
-0.0103197
-0.0107037
-0.0110047
-0.0112143
-0.0113242
-0.0113266
-0.0112152
-0.010984
-0.0106291
-0.0101503
-0.00954653
-0.00881855
-0.00796953
-0.00700614
-0.0059399
-0.00478609
-0.00356319
-0.00229268
-0.000999822
0.00028288
0.00151579
0.00265967
0.00367621
0.00452733
0.0051809
0.00561361
0.00581264
0.00578235
0.00554529
0.00514242
0.00462151
0.00403763
0.00344846
0.0029063
0.00245081
0.00210843
0.00188883
0.00178774
0.00178852
0.00186526
0.00198471
0.00211366
0.00223129
0.00232677
0.00238663
-4.70717e-06
-5.19548e-06
-3.75055e-05
-0.000104799
-0.000189532
-0.000269266
-0.000334434
-0.000381501
-0.000411841
-0.000431593
-0.000449271
-0.000472961
-0.000508842
-0.000561307
-0.000634219
-0.000732097
-0.000861578
-0.00103156
-0.00125303
-0.00153315
-0.00187957
-0.00229959
-0.00279478
-0.00336202
-0.00399246
-0.00467401
-0.00539447
-0.0061398
-0.00689442
-0.007643
-0.00837129
-0.0090676
-0.00972162
-0.0103236
-0.0108651
-0.0113374
-0.0117316
-0.0120401
-0.0122561
-0.0123728
-0.0123833
-0.0122836
-0.0120679
-0.0117321
-0.0112795
-0.0107065
-0.0100131
-0.00920138
-0.00827628
-0.00724746
-0.00612841
-0.00493374
-0.00368076
-0.00239152
-0.00109948
0.000156284
0.00134129
0.00242062
0.00335308
0.00410387
0.00464845
0.00496759
0.00506033
0.00493929
0.00464059
0.00421256
0.00370767
0.00318018
0.00268266
0.00225782
0.00193443
0.00172519
0.00162798
0.00162885
0.001704
0.00182512
0.0019616
0.00209028
0.00219595
0.00225917
5.87927e-05
4.04238e-05
-8.4745e-06
-9.27673e-05
-0.000182767
-0.000262818
-0.000324714
-0.000366287
-0.000390902
-0.000405912
-0.000420362
-0.000442636
-0.00047958
-0.000537365
-0.000622917
-0.000743927
-0.000910811
-0.00113546
-0.00142623
-0.00179194
-0.00223912
-0.00276885
-0.00337245
-0.00403925
-0.00475916
-0.00552019
-0.00630858
-0.00711032
-0.00791157
-0.00869885
-0.0094595
-0.0101826
-0.0108583
-0.0114779
-0.0120332
-0.0125157
-0.0129161
-0.0132295
-0.0134507
-0.0135747
-0.0135981
-0.0135155
-0.013323
-0.0130177
-0.0125978
-0.0120609
-0.0114088
-0.0106451
-0.00977471
-0.00880311
-0.00773689
-0.00658725
-0.00537065
-0.00411013
-0.00283081
-0.00156051
-0.000330103
0.000822223
0.00184867
0.00271819
0.0034032
0.00387623
0.00413216
0.00417372
0.00402655
0.00373327
0.00334421
0.00291155
0.00248561
0.00211051
0.00181779
0.0016236
0.00152903
0.00152585
0.00159037
0.00169999
0.00182704
0.00194847
0.00204897
0.00210718
0.000166528
0.000127351
5.62803e-05
-4.19498e-05
-0.000137434
-0.000218945
-0.000279729
-0.000320245
-0.000345523
-0.000363992
-0.000385123
-0.000417753
-0.000470112
-0.000551232
-0.000671079
-0.000841185
-0.00107352
-0.00137982
-0.00176855
-0.00224603
-0.00280887
-0.00344874
-0.00415524
-0.0049167
-0.0057202
-0.0065528
-0.00740118
-0.00825235
-0.00909377
-0.0099134
-0.0107001
-0.0114438
-0.0121354
-0.0127656
-0.0133266
-0.0138103
-0.0142134
-0.0145324
-0.0147622
-0.0148984
-0.0149374
-0.014873
-0.014703
-0.0144259
-0.014039
-0.0135419
-0.0129368
-0.0122276
-0.0114187
-0.0105128
-0.00951327
-0.00842949
-0.00727589
-0.00607039
-0.00482982
-0.00357178
-0.00232615
-0.00113017
-1.43698e-05
0.000991605
0.00183511
0.00249124
0.00294798
0.00319668
0.00325106
0.00314117
0.00291181
0.00261275
0.00229143
0.00199215
0.00174869
0.00158088
0.00149432
0.00148296
0.00153139
0.00162115
0.00172601
0.00182738
0.0019081
0.00195169
0.00032391
0.000263753
0.000167684
5.54553e-05
-4.66762e-05
-0.000131075
-0.00019475
-0.00024023
-0.00027441
-0.000306716
-0.000347116
-0.000405349
-0.000491727
-0.000618355
-0.000798554
-0.00104447
-0.00136897
-0.00178341
-0.00229069
-0.00288656
-0.00356386
-0.00431114
-0.00511532
-0.00596299
-0.00684099
-0.0077364
-0.00863677
-0.00953
-0.0104045
-0.0112494
-0.0120545
-0.0128107
-0.0135087
-0.0141404
-0.0147002
-0.0151858
-0.0155964
-0.0159248
-0.0161652
-0.0163126
-0.0163619
-0.0163122
-0.0161624
-0.015912
-0.0155575
-0.0151018
-0.0145453
-0.01389
-0.0131383
-0.0122942
-0.0113635
-0.0103534
-0.00927464
-0.00814009
-0.00696221
-0.0057513
-0.00452757
-0.00331656
-0.00213991
-0.00104116
-5.25816e-05
0.000806273
0.00148511
0.00197424
0.00227318
0.00239643
0.00237397
0.0022509
0.00207089
0.00187644
0.00170468
0.00157904
0.00150958
0.00149473
0.00152511
0.00158669
0.00166133
0.00173362
0.00178364
0.00180814
0.000538506
0.000454897
0.000331085
0.000203527
9.20764e-05
1.47396e-06
-7.00959e-05
-0.000128042
-0.000181122
-0.00023971
-0.000314463
-0.000416403
-0.000558413
-0.000755413
-0.00102127
-0.00136825
-0.00180824
-0.00234544
-0.00297579
-0.00369089
-0.00447927
-0.00532656
-0.00621927
-0.00714371
-0.00808703
-0.00903665
-0.00998074
-0.0109079
-0.0118075
-0.0126695
-0.0134847
-0.0142451
-0.014944
-0.0155771
-0.0161397
-0.0166278
-0.0170357
-0.0173587
-0.017594
-0.0177402
-0.0177951
-0.0177576
-0.0176269
-0.0174027
-0.0170827
-0.0166688
-0.016162
-0.015564
-0.0148764
-0.0141024
-0.0132462
-0.012313
-0.0113093
-0.0102424
-0.00912113
-0.00796076
-0.00677904
-0.00559121
-0.00440965
-0.0032569
-0.00215421
-0.00114197
-0.00025249
0.000493549
0.00106317
0.0014595
0.00169135
0.0017886
0.00179017
0.00173374
0.00165742
0.0015915
0.00155134
0.00154077
0.00155513
0.00158706
0.00162681
0.00166243
0.00167862
0.00168411
0.000812461
0.000699623
0.000546615
0.000398413
0.000275448
0.000174199
8.83258e-05
8.97813e-06
-7.45317e-05
-0.000173527
-0.00029945
-0.000465183
-0.000685745
-0.000976514
-0.00135066
-0.00181861
-0.00238597
-0.00305097
-0.00380452
-0.00463393
-0.00552524
-0.00646369
-0.00743557
-0.00842738
-0.00942653
-0.0104209
-0.0113991
-0.0123507
-0.0132659
-0.0141361
-0.0149533
-0.0157112
-0.0164045
-0.017029
-0.0175808
-0.0180568
-0.0184533
-0.0187675
-0.0189976
-0.0191426
-0.0192015
-0.0191737
-0.0190587
-0.0188565
-0.0185665
-0.0181898
-0.0177276
-0.0171816
-0.0165537
-0.0158465
-0.0150632
-0.0142078
-0.0132844
-0.0122974
-0.011252
-0.0101565
-0.00902012
-0.00785455
-0.00667939
-0.0055124
-0.00436224
-0.00324718
-0.00218795
-0.00122557
-0.000384558
0.000300531
0.000821754
0.00118346
0.00140924
0.00152989
0.00157848
0.00159053
0.00159201
0.00159394
0.00159844
0.00160315
0.00160708
0.00160333
0.00158736
0.00157622
0.00113359
0.000990789
0.000802203
0.00063046
0.000492707
0.000376323
0.000268841
0.000158095
3.16107e-05
-0.000122727
-0.000317567
-0.000567075
-0.000886898
-0.00129117
-0.0017903
-0.00239008
-0.00309008
-0.00388218
-0.00475321
-0.00568884
-0.00667394
-0.00769385
-0.00873474
-0.00978334
-0.0108273
-0.011855
-0.0128559
-0.0138205
-0.0147402
-0.0156079
-0.0164173
-0.0171634
-0.0178423
-0.0184506
-0.0189857
-0.0194456
-0.0198281
-0.0201316
-0.0203549
-0.0204973
-0.0205583
-0.0205377
-0.0204355
-0.0202519
-0.0199873
-0.0196428
-0.0192195
-0.0187193
-0.0181441
-0.017496
-0.016778
-0.0159929
-0.0151438
-0.0142339
-0.0132668
-0.0122465
-0.0111771
-0.0100637
-0.00891432
-0.00773951
-0.00655662
-0.00538463
-0.00422737
-0.00310371
-0.00204131
-0.00108372
-0.0002659
0.000390787
0.000882365
0.00122254
0.00143507
0.00155097
0.00160737
0.0016295
0.00162944
0.00161188
0.00158294
0.00154297
0.00150011
0.00147474
0.00148757
0.00131304
0.00108414
0.000885958
0.000729631
0.000592195
0.000454903
0.000302171
0.000119981
-0.00010471
-0.000385012
-0.000735981
-0.00117191
-0.00170377
-0.00233765
-0.00307363
-0.00390469
-0.00481799
-0.00579841
-0.00683066
-0.00789923
-0.00898954
-0.0100878
-0.0111809
-0.0122572
-0.0133057
-0.0143171
-0.0152831
-0.0161969
-0.017053
-0.0178466
-0.0185743
-0.0192334
-0.0198217
-0.0203376
-0.0207798
-0.021147
-0.0214386
-0.0216538
-0.0217923
-0.0218538
-0.0218386
-0.021747
-0.0215794
-0.0213366
-0.0210197
-0.0206301
-0.0201696
-0.0196399
-0.0190433
-0.0183821
-0.0176588
-0.0168756
-0.0160348
-0.0151388
-0.0141895
-0.0131889
-0.0121389
-0.0110413
-0.00989836
-0.0087151
-0.00750149
-0.00627596
-0.00505141
-0.0038372
-0.00266323
-0.00157603
-0.000621251
0.00016446
0.000764551
0.00118453
0.00144377
0.0015773
0.00162938
0.00162879
0.00159337
0.00153721
0.00146818
0.0014057
0.00137118
0.00185593
0.00164681
0.00137574
0.0011464
0.000966927
0.000802066
0.000626482
0.000421358
0.000171369
-0.000136756
-0.000517129
-0.000983712
-0.00154762
-0.00221546
-0.00298729
-0.00385699
-0.00481252
-0.00583824
-0.00691795
-0.00803569
-0.00917589
-0.010324
-0.0114665
-0.012591
-0.0136865
-0.0147436
-0.0157542
-0.0167119
-0.0176117
-0.0184495
-0.0192222
-0.0199278
-0.0205645
-0.0211312
-0.0216271
-0.0220513
-0.0224033
-0.0226829
-0.0228899
-0.0230241
-0.0230856
-0.0230748
-0.0229922
-0.0228384
-0.0226143
-0.0223211
-0.0219604
-0.0215338
-0.0210431
-0.0204905
-0.0198779
-0.0192076
-0.0184814
-0.017701
-0.0168677
-0.0159824
-0.0150453
-0.0140565
-0.013015
-0.0119199
-0.01077
-0.00956521
-0.00830888
-0.00701183
-0.00569797
-0.00437674
-0.0030777
-0.00185811
-0.000776525
0.000112802
0.000780989
0.00122968
0.0014797
0.00158018
0.00158717
0.001537
0.00145828
0.00136729
0.00129221
0.00125238
0.00221351
0.00196851
0.00165133
0.00138935
0.00118262
0.000984018
0.000761961
0.000495225
0.000167447
-0.000235655
-0.000727734
-0.00131958
-0.00201817
-0.00282353
-0.00373
-0.00472625
-0.00579658
-0.00692373
-0.00809077
-0.00928134
-0.0104799
-0.0116723
-0.0128455
-0.0139882
-0.0150908
-0.0161457
-0.0171466
-0.0180888
-0.0189689
-0.0197845
-0.0205338
-0.0212157
-0.0218295
-0.0223747
-0.0228511
-0.0232583
-0.0235963
-0.0238649
-0.0240644
-0.0241948
-0.0242563
-0.0242494
-0.0241747
-0.0240328
-0.023825
-0.0235523
-0.0232162
-0.0228185
-0.0223608
-0.0218452
-0.0212737
-0.0206481
-0.0199701
-0.019241
-0.0184617
-0.0176323
-0.0167522
-0.0158198
-0.0148327
-0.0137875
-0.0126804
-0.0115073
-0.0102648
-0.00895257
-0.00757782
-0.00615754
-0.00471643
-0.00328971
-0.00194704
-0.00076428
0.00018612
0.000867705
0.00128434
0.00147097
0.00149974
0.00144098
0.00134215
0.0012327
0.00114986
0.00110611
0.00253265
0.0022524
0.001889
0.00159222
0.00135396
0.00111524
0.000839651
0.000503871
8.99754e-05
-0.000417239
-0.00102823
-0.00174988
-0.00258281
-0.0035214
-0.00455471
-0.00566705
-0.00684025
-0.00805603
-0.00929695
-0.0105465
-0.0117894
-0.0130123
-0.0142031
-0.0153523
-0.0164521
-0.0174964
-0.0184811
-0.0194031
-0.0202605
-0.0210522
-0.0217774
-0.022436
-0.0230278
-0.0235529
-0.0240114
-0.0244033
-0.0247288
-0.024988
-0.0251811
-0.0253085
-0.0253704
-0.0253672
-0.0252997
-0.0251686
-0.024975
-0.02472
-0.0244051
-0.0240319
-0.0236021
-0.0231176
-0.0225803
-0.0219919
-0.0213541
-0.0206678
-0.0199339
-0.0191521
-0.0183213
-0.0174393
-0.0165026
-0.0155067
-0.0144455
-0.0133123
-0.0121005
-0.0108047
-0.00942278
-0.0079583
-0.00642718
-0.00486324
-0.00331756
-0.00187402
-0.000631241
0.000325163
0.000956683
0.00128064
0.00136383
0.00130766
0.00119071
0.00106378
0.000973568
0.000923212
0.00279402
0.0024745
0.00206557
0.00173233
0.00145824
0.00117411
0.000840036
0.000429834
-7.72919e-05
-0.00069362
-0.00142562
-0.00227524
-0.00323708
-0.00430042
-0.0054494
-0.00666499
-0.00792742
-0.00921771
-0.0105181
-0.0118123
-0.0130858
-0.0143262
-0.0155234
-0.0166694
-0.0177584
-0.0187864
-0.0197508
-0.0206502
-0.0214839
-0.0222517
-0.0229538
-0.0235904
-0.0241621
-0.0246691
-0.0251118
-0.0254905
-0.0258054
-0.0260569
-0.026245
-0.0263703
-0.0264331
-0.0264337
-0.0263729
-0.0262516
-0.0260706
-0.025831
-0.0255344
-0.0251821
-0.0247758
-0.0243174
-0.0238086
-0.023251
-0.0226463
-0.0219953
-0.0212988
-0.0205565
-0.0197673
-0.0189286
-0.0180369
-0.0170867
-0.0160713
-0.0149823
-0.0138106
-0.0125471
-0.0111842
-0.00971872
-0.00815493
-0.00651204
-0.00483236
-0.00318708
-0.0016808
-0.000433184
0.000462001
0.000980302
0.00116794
0.00113618
0.00100837
0.000863157
0.000759296
0.000696503
0.00296077
0.00261007
0.00215908
0.00178902
0.00147587
0.00114331
0.000747172
0.000257387
-0.00034525
-0.00107023
-0.00192084
-0.00289217
-0.00397397
-0.00515036
-0.00640145
-0.00770587
-0.00904275
-0.0103927
-0.0117379
-0.0130629
-0.0143541
-0.0156009
-0.016795
-0.0179304
-0.0190033
-0.0200114
-0.0209537
-0.0218298
-0.0226401
-0.0233853
-0.0240659
-0.0246827
-0.0252364
-0.0257277
-0.0261569
-0.0265244
-0.0268307
-0.027076
-0.0272606
-0.0273847
-0.0274489
-0.0274535
-0.0273991
-0.0272867
-0.0271169
-0.026891
-0.0266102
-0.0262759
-0.0258897
-0.0254533
-0.0249682
-0.0244362
-0.0238586
-0.0232365
-0.0225706
-0.0218607
-0.0211058
-0.0203036
-0.0194505
-0.0185411
-0.0175683
-0.0165234
-0.0153959
-0.0141744
-0.0128477
-0.0114067
-0.00984804
-0.00817882
-0.00642601
-0.00464736
-0.00293611
-0.00141737
-0.000230893
0.000533932
0.000886894
0.000922245
0.000795116
0.000630947
0.000502402
0.000422197
0.00302087
0.0026419
0.0021524
0.00174583
0.00139228
0.0010095
0.000548546
-2.18183e-05
-0.000718532
-0.00154888
-0.00251084
-0.00359454
-0.00478436
-0.00605984
-0.00739802
-0.0087759
-0.010172
-0.0115666
-0.0129427
-0.0142855
-0.0155834
-0.0168273
-0.0180112
-0.0191309
-0.0201843
-0.0211708
-0.0220904
-0.0229439
-0.0237322
-0.0244564
-0.0251177
-0.0257171
-0.0262553
-0.0267331
-0.027151
-0.0275095
-0.0278089
-0.0280494
-0.0282315
-0.0283553
-0.0284214
-0.0284301
-0.0283819
-0.0282777
-0.0281182
-0.0279044
-0.0276375
-0.0273189
-0.0269499
-0.0265321
-0.026067
-0.0255562
-0.025001
-0.0244026
-0.0237615
-0.023078
-0.0223512
-0.021579
-0.0207584
-0.0198843
-0.0189498
-0.0179463
-0.016863
-0.0156874
-0.0144063
-0.0130066
-0.011479
-0.00982082
-0.00804446
-0.00619108
-0.00434191
-0.00260692
-0.00113603
-8.12635e-05
0.000491958
0.000645854
0.000545893
0.000363617
0.000198301
9.93688e-05
0.00295913
0.00255656
0.00203344
0.00159206
0.00119799
0.000763433
0.000236979
-0.000410961
-0.00119719
-0.00212599
-0.00318976
-0.00437378
-0.00565752
-0.00701675
-0.00842628
-0.00986204
-0.0113022
-0.0127274
-0.0141214
-0.015471
-0.0167662
-0.0180002
-0.0191687
-0.0202694
-0.0213017
-0.0222661
-0.0231637
-0.0239957
-0.0247638
-0.0254693
-0.0261137
-0.0266978
-0.0272228
-0.0276893
-0.0280979
-0.0284491
-0.028743
-0.0289802
-0.0291608
-0.029285
-0.0293533
-0.0293661
-0.0293239
-0.0292273
-0.0290772
-0.0288743
-0.0286198
-0.0283149
-0.0279608
-0.027559
-0.0271109
-0.026618
-0.0260815
-0.0255025
-0.0248819
-0.0242198
-0.0235158
-0.0227683
-0.0219745
-0.0211303
-0.0202293
-0.0192633
-0.0182219
-0.0170924
-0.0158605
-0.0145112
-0.0130308
-0.01141
-0.00964831
-0.00776799
-0.00583699
-0.00395208
-0.00224385
-0.000894643
-4.95321e-05
0.000285549
0.000250078
5.23268e-05
-0.000156973
-0.000273875
0.00276666
0.00234615
0.00179536
0.00132192
0.000887505
0.000401808
-0.000186856
-0.000907993
-0.00177744
-0.00279497
-0.00394876
-0.00521924
-0.0065816
-0.00800872
-0.00947382
-0.0109522
-0.0124222
-0.013865
-0.0152657
-0.0166127
-0.0178982
-0.019117
-0.0202667
-0.0213466
-0.0223573
-0.0233001
-0.0241768
-0.0249892
-0.025739
-0.026428
-0.0270575
-0.0276287
-0.0281425
-0.0285996
-0.0290006
-0.0293459
-0.0296357
-0.0298704
-0.0300503
-0.0301755
-0.0302463
-0.0302633
-0.0302267
-0.0301373
-0.0299957
-0.0298027
-0.0295593
-0.0292666
-0.0289257
-0.0285378
-0.0281044
-0.0276267
-0.027106
-0.0265434
-0.0259396
-0.0252952
-0.0246098
-0.0238823
-0.0231108
-0.0222915
-0.0214191
-0.0204863
-0.0194832
-0.0183978
-0.0172155
-0.0159203
-0.0144959
-0.0129289
-0.0112101
-0.00934219
-0.00736826
-0.00539689
-0.0035187
-0.00190358
-0.000758654
-0.00018918
-0.000115527
-0.000311218
-0.000564132
-0.000697381
0.00244111
0.00200879
0.00143693
0.000934757
0.000461671
-7.27016e-05
-0.000718993
-0.00150687
-0.00245061
-0.00354591
-0.00477661
-0.00611876
-0.00754413
-0.00902345
-0.0105289
-0.0120357
-0.0135225
-0.0149716
-0.0163695
-0.0177066
-0.0189769
-0.020177
-0.021306
-0.0223645
-0.0233538
-0.024276
-0.0251333
-0.0259278
-0.0266614
-0.0273359
-0.0279526
-0.0285127
-0.0290171
-0.0294664
-0.0298612
-0.0302018
-0.0304885
-0.0307216
-0.0309013
-0.0310277
-0.0311013
-0.0311223
-0.0310912
-0.0310085
-0.0308748
-0.0306909
-0.0304575
-0.0301757
-0.0298464
-0.029471
-0.0290504
-0.028586
-0.0280789
-0.0275302
-0.0269407
-0.0263109
-0.025641
-0.0249301
-0.0241769
-0.0233784
-0.0225303
-0.0216261
-0.0206574
-0.0196128
-0.0184782
-0.0172374
-0.0158725
-0.0143673
-0.0127082
-0.0108853
-0.0089102
-0.00688523
-0.00490594
-0.0030886
-0.00165828
-0.000811415
-0.000568206
-0.000735382
-0.00102106
-0.00117056
0.00198588
0.00154815
0.000961886
0.000434767
-7.40772e-05
-0.000652568
-0.00135073
-0.00219809
-0.00320593
-0.00436682
-0.00566054
-0.00705942
-0.00853253
-0.0100491
-0.0115809
-0.0131031
-0.0145953
-0.0160411
-0.0174288
-0.0187504
-0.0200017
-0.0211809
-0.0222883
-0.0233253
-0.0242941
-0.025197
-0.0260366
-0.0268149
-0.0275342
-0.0281959
-0.0288016
-0.0293521
-0.0298485
-0.0302913
-0.030681
-0.0310179
-0.0313023
-0.0315343
-0.0317143
-0.0318423
-0.0319186
-0.0319436
-0.0319177
-0.0318412
-0.0317148
-0.0315392
-0.0313149
-0.031043
-0.0307243
-0.0303599
-0.0299508
-0.0294982
-0.029003
-0.0284664
-0.0278893
-0.0272721
-0.0266152
-0.0259184
-0.0251805
-0.0243995
-0.0235719
-0.0226925
-0.0217539
-0.0207461
-0.0196561
-0.0184679
-0.0171633
-0.0157237
-0.0141328
-0.0123752
-0.0104436
-0.00838357
-0.00635339
-0.0044061
-0.00273253
-0.00159538
-0.0011343
-0.00123695
-0.00152713
-0.00169831
0.00140939
0.000972683
0.000378221
-0.000169225
-0.000709709
-0.00132725
-0.00207078
-0.00296883
-0.00403013
-0.00524408
-0.00658697
-0.0080281
-0.00953455
-0.0110746
-0.01262
-0.0141465
-0.0156345
-0.0170693
-0.0184409
-0.019743
-0.0209728
-0.02213
-0.0232156
-0.0242317
-0.025181
-0.026066
-0.0268893
-0.0276532
-0.0283597
-0.0290103
-0.0296063
-0.0301487
-0.0306383
-0.0310756
-0.0314611
-0.031795
-0.0320776
-0.032309
-0.0324894
-0.0326191
-0.0326982
-0.0327271
-0.032706
-0.0326354
-0.0325158
-0.0323477
-0.0321318
-0.031869
-0.0315599
-0.0312055
-0.0308068
-0.0303648
-0.0298804
-0.0293546
-0.0287883
-0.0281823
-0.0275368
-0.026852
-0.0261273
-0.0253613
-0.0245513
-0.0236932
-0.022781
-0.021806
-0.0207566
-0.019618
-0.0183721
-0.016999
-0.0154803
-0.0137992
-0.0119355
-0.0098873
-0.00781662
-0.00580503
-0.00395521
-0.00254983
-0.0018362
-0.00181496
-0.00208639
-0.00229096
0.000724172
0.000294825
-0.000301542
-0.000864462
-0.00143163
-0.00208275
-0.00286499
-0.00380476
-0.00490864
-0.00616326
-0.00754203
-0.00901189
-0.0105385
-0.0120899
-0.0136378
-0.015159
-0.0166351
-0.018053
-0.0194042
-0.0206841
-0.0218911
-0.0230257
-0.0240898
-0.0250859
-0.0260169
-0.0268853
-0.0276939
-0.0284448
-0.0291399
-0.0297806
-0.0303681
-0.0309034
-0.0313872
-0.0318198
-0.0322017
-0.0325332
-0.0328144
-0.0330455
-0.0332266
-0.033358
-0.0334397
-0.0334722
-0.0334557
-0.0333905
-0.0332772
-0.0331162
-0.0329081
-0.0326535
-0.0323533
-0.0320082
-0.031619
-0.0311867
-0.0307121
-0.0301962
-0.0296398
-0.0290438
-0.0284086
-0.0277346
-0.0270215
-0.0262685
-0.0254738
-0.0246343
-0.0237453
-0.0227994
-0.0217867
-0.0206938
-0.0195035
-0.0181956
-0.0167498
-0.0151476
-0.0133671
-0.0113886
-0.00927918
-0.00724149
-0.00529169
-0.00366819
-0.00269268
-0.0024848
-0.00271451
-0.00296498
-5.25883e-05
-0.000470468
-0.00106223
-0.00163576
-0.00222512
-0.00290437
-0.00371783
-0.00469035
-0.00582623
-0.00710978
-0.00851212
-0.00999847
-0.0115337
-0.0130858
-0.0146271
-0.0161353
-0.0175935
-0.01899
-0.020318
-0.021574
-0.0227575
-0.0238697
-0.024913
-0.0258901
-0.0268038
-0.027657
-0.0284522
-0.0291913
-0.0298761
-0.030508
-0.0310881
-0.0316171
-0.0320957
-0.0325242
-0.0329031
-0.0332325
-0.0335126
-0.0337435
-0.0339254
-0.0340584
-0.0341427
-0.0341786
-0.0341663
-0.0341062
-0.0339987
-0.0338442
-0.0336432
-0.0333964
-0.0331044
-0.0327678
-0.0323874
-0.0319641
-0.0314987
-0.030992
-0.0304449
-0.0298581
-0.0292324
-0.0285682
-0.0278657
-0.0271245
-0.0263435
-0.0255205
-0.0246519
-0.0237319
-0.0227522
-0.0217009
-0.0205625
-0.0193175
-0.0179439
-0.0164221
-0.0147321
-0.0128432
-0.0107432
-0.0086853
-0.00669966
-0.00492447
-0.00370788
-0.00328132
-0.00342936
-0.00374162
-0.000901856
-0.00130575
-0.00188789
-0.00246769
-0.00307431
-0.00377578
-0.00461317
-0.00560971
-0.00676765
-0.00806937
-0.00948424
-0.0109764
-0.0125104
-0.0140543
-0.0155815
-0.0170707
-0.0185066
-0.0198788
-0.0211817
-0.022413
-0.023573
-0.0246633
-0.0256866
-0.0266456
-0.0275434
-0.0283825
-0.0291653
-0.0298937
-0.0305692
-0.0311932
-0.0317665
-0.0322899
-0.0327639
-0.0331889
-0.0335651
-0.0338926
-0.0341718
-0.0344026
-0.0345852
-0.0347198
-0.0348065
-0.0348456
-0.0348372
-0.0347818
-0.0346797
-0.0345312
-0.0343369
-0.0340972
-0.0338127
-0.0334842
-0.0331121
-0.0326972
-0.0322404
-0.0317424
-0.031204
-0.0306261
-0.0300093
-0.0293544
-0.0286618
-0.0279314
-0.0271629
-0.0263548
-0.0255046
-0.0246079
-0.0236578
-0.0226443
-0.0215536
-0.0203674
-0.019064
-0.0176215
-0.0160193
-0.0142267
-0.0122151
-0.0101264
-0.00814214
-0.00628952
-0.00487728
-0.00422452
-0.00424849
-0.00464864
-0.00180527
-0.00219284
-0.00276141
-0.00334311
-0.00396205
-0.00467992
-0.00553452
-0.00654712
-0.00771812
-0.00902845
-0.0104463
-0.0119352
-0.0134597
-0.0149885
-0.0164958
-0.0179617
-0.0193721
-0.0207181
-0.0219951
-0.0232016
-0.0243384
-0.0254076
-0.0264118
-0.0273539
-0.0282368
-0.0290628
-0.0298342
-0.0305528
-0.0312198
-0.0318366
-0.0324038
-0.0329221
-0.0333919
-0.0338136
-0.0341873
-0.0345133
-0.0347915
-0.0350223
-0.0352056
-0.0353416
-0.0354306
-0.0354725
-0.0354678
-0.0354167
-0.0353195
-0.0351766
-0.0349884
-0.0347554
-0.034478
-0.0341569
-0.0337926
-0.0333858
-0.0329372
-0.0324474
-0.0319174
-0.031348
-0.0307399
-0.0300939
-0.0294106
-0.0286906
-0.0279337
-0.0271394
-0.026306
-0.0254303
-0.024507
-0.0235279
-0.0224809
-0.0213498
-0.0201135
-0.0187485
-0.0172331
-0.015542
-0.0136423
-0.0115554
-0.00959324
-0.00773106
-0.00618524
-0.00531529
-0.00519828
-0.00570377
-0.00274419
-0.00311348
-0.00366505
-0.00424437
-0.00487101
-0.00560008
-0.00646584
-0.00748743
-0.00866367
-0.00997443
-0.0113873
-0.0128655
-0.014374
-0.0158823
-0.0173656
-0.0188052
-0.0201883
-0.0215071
-0.0227579
-0.0239399
-0.0250543
-0.0261032
-0.0270894
-0.0280157
-0.0288846
-0.0296985
-0.0304594
-0.0311689
-0.0318281
-0.0324382
-0.0329998
-0.0335134
-0.0339794
-0.034398
-0.0347695
-0.0350939
-0.0353714
-0.0356021
-0.035786
-0.0359234
-0.0360143
-0.0360589
-0.0360575
-0.0360103
-0.0359177
-0.0357799
-0.0355974
-0.0353705
-0.0350998
-0.0347856
-0.0344287
-0.0340294
-0.0335886
-0.0331069
-0.032585
-0.0320238
-0.0314241
-0.0307868
-0.0301127
-0.0294026
-0.0286568
-0.0278754
-0.0270576
-0.0262011
-0.0253022
-0.0243543
-0.0233474
-0.0222669
-0.0210936
-0.0198041
-0.018377
-0.016791
-0.0150045
-0.0129757
-0.0110166
-0.00919614
-0.00758638
-0.00653864
-0.00630347
-0.00689402
-0.00370058
-0.00404946
-0.00458111
-0.00515466
-0.00578493
-0.00652046
-0.00739204
-0.00841654
-0.00959141
-0.0108959
-0.0122973
-0.0137591
-0.0152468
-0.0167306
-0.018187
-0.0195985
-0.0209534
-0.0222449
-0.02347
-0.0246283
-0.0257211
-0.0267508
-0.02772
-0.0286314
-0.0294873
-0.03029
-0.0310411
-0.0317421
-0.0323942
-0.0329981
-0.0335544
-0.0340636
-0.0345261
-0.0349419
-0.0353113
-0.0356343
-0.035911
-0.0361415
-0.036326
-0.0364645
-0.0365571
-0.0366041
-0.0366057
-0.0365621
-0.0364736
-0.0363405
-0.0361632
-0.0359421
-0.0356775
-0.0353699
-0.0350198
-0.0346278
-0.0341944
-0.0337203
-0.0332063
-0.0326531
-0.0320617
-0.0314329
-0.0307679
-0.0300674
-0.0293324
-0.0285633
-0.02776
-0.0269214
-0.0260449
-0.0251255
-0.024155
-0.0231211
-0.0220063
-0.0207885
-0.0194446
-0.0179537
-0.016281
-0.0143853
-0.0124159
-0.0106458
-0.00902824
-0.00786227
-0.00755644
-0.00818806
-0.00465676
-0.00498348
-0.00549289
-0.00605796
-0.00668843
-0.00742637
-0.00829923
-0.0093216
-0.0104898
-0.0117826
-0.0131676
-0.0146087
-0.0160721
-0.017529
-0.018957
-0.0203397
-0.0216663
-0.0229309
-0.024131
-0.0252665
-0.0263389
-0.0273505
-0.0283038
-0.0292012
-0.0300451
-0.0308372
-0.0315793
-0.0322725
-0.0329178
-0.033516
-0.0340674
-0.0345726
-0.0350317
-0.0354448
-0.0358122
-0.0361338
-0.0364098
-0.0366401
-0.036825
-0.0369645
-0.0370587
-0.0371078
-0.0371121
-0.0370717
-0.036987
-0.0368581
-0.0366856
-0.0364697
-0.0362107
-0.0359092
-0.0355656
-0.0351804
-0.0347541
-0.0342874
-0.033781
-0.0332356
-0.0326523
-0.0320319
-0.0313757
-0.0306848
-0.0299602
-0.0292029
-0.0284135
-0.0275916
-0.0267358
-0.0258425
-0.0249054
-0.0239141
-0.0228535
-0.0217029
-0.0204386
-0.0190388
-0.0174772
-0.0157195
-0.0137797
-0.0120567
-0.0104698
-0.00924366
-0.00889661
-0.00951114
-0.00559639
-0.0058997
-0.00638531
-0.00693964
-0.00756743
-0.00830446
-0.00917489
-0.0101912
-0.0113486
-0.0126255
-0.0139905
-0.015408
-0.016845
-0.0182738
-0.0196728
-0.0210266
-0.0223256
-0.0235642
-0.0247404
-0.0258544
-0.0269077
-0.0279023
-0.0288407
-0.0297252
-0.0305578
-0.0313402
-0.0320738
-0.0327598
-0.0333988
-0.0339916
-0.0345385
-0.0350399
-0.0354958
-0.0359065
-0.0362719
-0.0365922
-0.0368674
-0.0370975
-0.0372827
-0.037423
-0.0375185
-0.0375695
-0.0375762
-0.0375387
-0.0374573
-0.0373324
-0.0371641
-0.036953
-0.0366992
-0.0364034
-0.0360657
-0.0356869
-0.0352673
-0.0348076
-0.0343084
-0.0337707
-0.0331952
-0.0325832
-0.0319357
-0.031254
-0.0305397
-0.0297938
-0.0290175
-0.0282113
-0.0273747
-0.0265054
-0.0255988
-0.0246465
-0.0236353
-0.0225468
-0.021358
-0.020048
-0.0185962
-0.0169601
-0.0151043
-0.0134035
-0.0118657
-0.0106252
-0.0102288
-0.0107457
-0.00650379
-0.00678385
-0.0072447
-0.00778654
-0.00840937
-0.00914283
-0.0100079
-0.011015
-0.012159
-0.0134172
-0.0147596
-0.0161518
-0.0175615
-0.0189617
-0.020332
-0.0216578
-0.0229301
-0.0241441
-0.0252978
-0.0263917
-0.027427
-0.0284059
-0.0293306
-0.0302031
-0.0310253
-0.0317987
-0.0325245
-0.0332036