/*--------------------------------*- C++ -*----------------------------------*\
  =========                 |
  \\      /  F ield         | OpenFOAM: The Open Source CFD Toolbox
   \\    /   O peration     | Website:  https://openfoam.org
    \\  /    A nd           | Version:  13
     \\/     M anipulation  |
\*---------------------------------------------------------------------------*/
FoamFile
{
    format      ascii;
    class       surfaceScalarField;
    location    "8.9";
    object      phi;
}
// * * * * * * * * * * * * * * * * * * * * * * * * * * * * * * * * * * * * * //

dimensions      [0 3 -1 0 0 0 0];

internalField   nonuniform List<scalar> 
12640
(
1.71209e-09
-1.71218e-09
1.56314e-08
-1.39193e-08
4.00614e-08
-2.443e-08
6.81933e-08
-2.81319e-08
9.35305e-08
-2.53372e-08
1.12443e-07
-1.89123e-08
1.23577e-07
-1.11341e-08
1.27881e-07
-4.30408e-09
1.27706e-07
1.7542e-10
1.2543e-07
2.27564e-09
1.23058e-07
2.37238e-09
1.21873e-07
1.18465e-09
1.22272e-07
-3.99408e-10
1.23967e-07
-1.695e-09
1.26098e-07
-2.13035e-09
1.2772e-07
-1.62248e-09
1.27942e-07
-2.22056e-10
1.26246e-07
1.69637e-09
1.21747e-07
4.49922e-09
1.13552e-07
8.19478e-09
1.01117e-07
1.24352e-08
8.38336e-08
1.7283e-08
6.12664e-08
2.25672e-08
3.32275e-08
2.80389e-08
-3.19611e-10
3.35471e-08
-3.95746e-08
3.9255e-08
-8.60203e-08
4.64457e-08
-1.42154e-07
5.61339e-08
-2.10921e-07
6.87665e-08
-2.94437e-07
8.35167e-08
-3.9152e-07
9.70823e-08
-4.98462e-07
1.06943e-07
-6.11681e-07
1.13219e-07
-7.27693e-07
1.16011e-07
-8.43476e-07
1.15783e-07
-9.56412e-07
1.12936e-07
-1.06437e-06
1.07959e-07
-1.16563e-06
1.01258e-07
-1.25884e-06
9.32078e-08
-1.34295e-06
8.41119e-08
-1.4171e-06
7.41558e-08
-1.48062e-06
6.35183e-08
-1.53289e-06
5.22649e-08
-1.57332e-06
4.04281e-08
-1.6013e-06
2.79835e-08
-1.61678e-06
1.54849e-08
-1.6198e-06
3.01301e-09
-1.60841e-06
-1.13893e-08
-1.58355e-06
-2.4862e-08
-1.54403e-06
-3.95108e-08
-1.49008e-06
-5.39551e-08
-1.4215e-06
-6.8576e-08
-1.33868e-06
-8.28278e-08
-1.24207e-06
-9.66049e-08
-1.13235e-06
-1.09722e-07
-1.01045e-06
-1.21895e-07
-8.77848e-07
-1.32606e-07
-7.36394e-07
-1.41454e-07
-5.88502e-07
-1.47891e-07
-4.37084e-07
-1.51418e-07
-2.85693e-07
-1.51391e-07
-1.382e-07
-1.47493e-07
1.36971e-09
-1.39569e-07
1.29996e-07
-1.28626e-07
2.42548e-07
-1.12552e-07
3.35346e-07
-9.27985e-08
4.05241e-07
-6.98949e-08
4.4983e-07
-4.45886e-08
4.67879e-07
-1.80494e-08
4.58244e-07
9.63524e-09
4.24056e-07
3.41878e-08
3.67915e-07
5.61413e-08
2.96105e-07
7.18099e-08
2.18474e-07
7.76309e-08
1.45619e-07
7.28547e-08
8.48594e-08
6.07599e-08
3.99219e-08
4.49375e-08
1.13521e-08
2.85698e-08
-8.20444e-10
1.21725e-08
-8.20445e-10
1.07884e-08
-1.25006e-08
4.42214e-08
-4.73523e-08
9.0368e-08
-7.05766e-08
1.37328e-07
-7.50919e-08
1.77436e-07
-6.54449e-08
2.06909e-07
-4.83858e-08
2.25186e-07
-2.94105e-08
2.33301e-07
-1.24193e-08
2.33082e-07
3.94268e-10
2.26907e-07
8.45107e-09
2.17058e-07
1.22206e-08
2.05099e-07
1.31435e-08
1.91504e-07
1.31963e-08
1.75689e-07
1.41199e-08
1.56597e-07
1.69614e-08
1.33089e-07
2.18857e-08
1.04233e-07
2.86343e-08
6.87356e-08
3.71934e-08
2.53503e-08
4.78845e-08
-2.74824e-08
6.10274e-08
-9.18426e-08
7.67955e-08
-1.69491e-07
9.49311e-08
-2.61606e-07
1.14683e-07
-3.69036e-07
1.35468e-07
-4.92325e-07
1.56836e-07
-6.31161e-07
1.78091e-07
-7.82892e-07
1.98177e-07
-9.43171e-07
2.16412e-07
-1.10645e-06
2.32048e-07
-1.2669e-06
2.43967e-07
-1.42114e-06
2.51319e-07
-1.56817e-06
2.53974e-07
-1.70659e-06
2.51639e-07
-1.83517e-06
2.44589e-07
-1.95293e-06
2.33541e-07
-2.05922e-06
2.19229e-07
-2.15358e-06
2.02318e-07
-2.23572e-06
1.83402e-07
-2.30543e-06
1.62916e-07
-2.36257e-06
1.41257e-07
-2.40704e-06
1.18618e-07
-2.43871e-06
9.51929e-08
-2.45751e-06
7.10646e-08
-2.46339e-06
4.63034e-08
-2.45633e-06
2.09265e-08
-2.43564e-06
-5.20523e-09
-2.40147e-06
-3.11546e-08
-2.35424e-06
-5.86251e-08
-2.29284e-06
-8.62627e-08
-2.21788e-06
-1.14468e-07
-2.12896e-06
-1.42872e-07
-2.02619e-06
-1.71344e-07
-1.90951e-06
-1.99515e-07
-1.77914e-06
-2.26971e-07
-1.63575e-06
-2.53112e-07
-1.48049e-06
-2.77158e-07
-1.31465e-06
-2.98439e-07
-1.14014e-06
-3.15963e-07
-9.59319e-07
-3.28717e-07
-7.74904e-07
-3.35833e-07
-5.89958e-07
-3.36337e-07
-4.07917e-07
-3.29534e-07
-2.32325e-07
-3.15161e-07
-6.76581e-08
-2.93293e-07
8.34091e-08
-2.63619e-07
2.17339e-07
-2.26729e-07
3.30748e-07
-1.83303e-07
4.21068e-07
-1.34909e-07
4.85904e-07
-8.28856e-08
5.24916e-07
-2.93768e-08
5.36322e-07
2.2782e-08
5.20888e-07
7.15752e-08
4.80611e-07
1.12087e-07
4.1648e-07
1.41762e-07
3.32179e-07
1.57156e-07
2.3814e-07
1.54799e-07
1.46829e-07
1.36249e-07
7.07013e-08
1.04697e-07
1.9871e-08
6.30028e-08
1.90506e-08
2.03937e-08
-3.28943e-08
6.74837e-08
-9.44423e-08
1.20152e-07
-1.23245e-07
1.6641e-07
-1.2135e-07
2.01848e-07
-1.00883e-07
2.25546e-07
-7.20843e-08
2.38232e-07
-4.20966e-08
2.40904e-07
-1.50913e-08
2.34752e-07
6.54615e-09
2.21274e-07
2.19295e-08
2.01857e-07
3.16371e-08
1.77075e-07
3.79264e-08
1.4672e-07
4.35509e-08
1.09958e-07
5.08815e-08
6.56124e-08
6.13073e-08
1.22403e-08
7.52578e-08
-5.19116e-08
9.27861e-08
-1.28664e-07
1.13946e-07
-2.19563e-07
1.38784e-07
-3.25827e-07
1.67291e-07
-4.47899e-07
1.98867e-07
-5.85368e-07
2.32401e-07
-7.37135e-07
2.66449e-07
-9.00659e-07
2.98993e-07
-1.07242e-06
3.28597e-07
-1.2481e-06
3.5377e-07
-1.42338e-06
3.73455e-07
-1.59423e-06
3.87262e-07
-1.75707e-06
3.94889e-07
-1.90937e-06
3.96272e-07
-2.04969e-06
3.91633e-07
-2.17712e-06
3.81405e-07
-2.29173e-06
3.66246e-07
-2.39395e-06
3.46816e-07
-2.48411e-06
3.23701e-07
-2.56257e-06
2.97684e-07
-2.62961e-06
2.69359e-07
-2.68548e-06
2.39274e-07
-2.73034e-06
2.07772e-07
-2.76429e-06
1.75212e-07
-2.7874e-06
1.41729e-07
-2.79964e-06
1.07433e-07
-2.80096e-06
7.2377e-08
-2.79123e-06
3.65793e-08
-2.77013e-06
-1.80839e-10
-2.73787e-06
-3.74607e-08
-2.69333e-06
-7.56937e-08
-2.63699e-06
-1.14967e-07
-2.56826e-06
-1.54988e-07
-2.48699e-06
-1.95747e-07
-2.39291e-06
-2.36943e-07
-2.28594e-06
-2.78322e-07
-2.16603e-06
-3.19423e-07
-2.03338e-06
-3.59623e-07
-1.88845e-06
-3.98044e-07
-1.73198e-06
-4.33626e-07
-1.56507e-06
-4.65347e-07
-1.38917e-06
-4.91866e-07
-1.20621e-06
-5.1167e-07
-1.01875e-06
-5.23295e-07
-8.29638e-07
-5.25452e-07
-6.4221e-07
-5.16962e-07
-4.60095e-07
-4.97277e-07
-2.87051e-07
-4.66337e-07
-1.26182e-07
-4.24488e-07
1.94359e-08
-3.72347e-07
1.47224e-07
-3.11091e-07
2.54653e-07
-2.42338e-07
3.40305e-07
-1.68538e-07
4.03369e-07
-9.24406e-08
4.43095e-07
-1.69439e-08
4.58959e-07
5.57104e-08
4.49919e-07
1.21128e-07
4.17252e-07
1.74429e-07
3.62776e-07
2.11632e-07
2.89287e-07
2.28287e-07
2.0352e-07
2.22016e-07
1.16105e-07
1.92112e-07
4.0766e-08
1.38342e-07
5.98166e-08
2.83263e-08
-6.12205e-08
8.17964e-08
-1.47912e-07
1.31885e-07
-1.73334e-07
1.70082e-07
-1.59547e-07
1.95217e-07
-1.26018e-07
2.08564e-07
-8.54307e-08
2.11351e-07
-4.48843e-08
2.04721e-07
-8.46118e-09
1.89459e-07
2.18089e-08
1.66021e-07
4.53672e-08
1.3418e-07
6.34778e-08
9.34184e-08
7.86882e-08
4.29503e-08
9.4019e-08
-1.81735e-08
1.12005e-07
-9.10704e-08
1.34204e-07
-1.77123e-07
1.6131e-07
-2.77795e-07
1.93458e-07
-3.94344e-07
2.30494e-07
-5.27286e-07
2.71726e-07
-6.7607e-07
3.16075e-07
-8.38806e-07
3.61604e-07
-1.01227e-06
4.05861e-07
-1.19253e-06
4.46718e-07
-1.37527e-06
4.81729e-07
-1.55633e-06
5.09655e-07
-1.73179e-06
5.29235e-07
-1.89819e-06
5.39853e-07
-2.0529e-06
5.41967e-07
-2.19462e-06
5.36611e-07
-2.32302e-06
5.24668e-07
-2.43834e-06
5.06962e-07
-2.54121e-06
4.84269e-07
-2.63226e-06
4.57295e-07
-2.71222e-06
4.26778e-07
-2.78179e-06
3.93272e-07
-2.8415e-06
3.57396e-07
-2.89175e-06
3.1961e-07
-2.93283e-06
2.80354e-07
-2.96493e-06
2.39869e-07
-2.98809e-06
1.98376e-07
-3.00232e-06
1.55954e-07
-3.00753e-06
1.12641e-07
-3.00354e-06
6.83858e-08
-2.99008e-06
2.31262e-08
-2.96705e-06
-2.32081e-08
-2.93391e-06
-7.06087e-08
-2.89033e-06
-1.19275e-07
-2.83602e-06
-1.69272e-07
-2.77052e-06
-2.20491e-07
-2.69348e-06
-2.72787e-07
-2.60455e-06
-3.25875e-07
-2.50344e-06
-3.79431e-07
-2.38993e-06
-4.32926e-07
-2.26392e-06
-4.85631e-07
-2.12549e-06
-5.36478e-07
-1.97507e-06
-5.84043e-07
-1.81347e-06
-6.26948e-07
-1.64177e-06
-6.63565e-07
-1.46153e-06
-6.91915e-07
-1.27483e-06
-7.09999e-07
-1.08421e-06
-7.16067e-07
-8.92807e-07
-7.08364e-07
-7.04305e-07
-6.8578e-07
-5.22879e-07
-6.47763e-07
-3.52218e-07
-5.95148e-07
-1.95421e-07
-5.29144e-07
-5.53854e-08
-4.51127e-07
6.5756e-08
-3.63479e-07
1.6638e-07
-2.69162e-07
2.45512e-07
-1.71572e-07
3.02846e-07
-7.42777e-08
3.39119e-07
1.94371e-08
3.54255e-07
1.05991e-07
3.47723e-07
1.80962e-07
3.19516e-07
2.39839e-07
2.70485e-07
2.77318e-07
2.04414e-07
2.88087e-07
1.27152e-07
2.69374e-07
4.92263e-08
2.16268e-07
1.09043e-07
3.43843e-08
-9.56048e-08
8.69995e-08
-2.00528e-07
1.2815e-07
-2.14484e-07
1.54669e-07
-1.86066e-07
1.67441e-07
-1.3879e-07
1.68742e-07
-8.67315e-08
1.59954e-07
-3.60969e-08
1.41804e-07
9.68934e-09
1.14444e-07
4.91687e-08
7.74002e-08
8.24109e-08
2.96913e-08
1.11187e-07
-2.9877e-08
1.38257e-07
-1.02469e-07
1.66611e-07
-1.89165e-07
1.98701e-07
-2.90977e-07
2.36017e-07
-4.08749e-07
2.79082e-07
-5.4288e-07
3.2759e-07
-6.93062e-07
3.80676e-07
-8.57737e-07
4.36401e-07
-1.03374e-06
4.9208e-07
-1.21721e-06
5.4507e-07
-1.40357e-06
5.92219e-07
-1.58849e-06
6.31646e-07
-1.76777e-06
6.61008e-07
-1.9371e-06
6.78976e-07
-2.09398e-06
6.86115e-07
-2.2376e-06
6.83479e-07
-2.36802e-06
6.72389e-07
-2.48571e-06
6.54298e-07
-2.59138e-06
6.30336e-07
-2.6859e-06
6.0148e-07
-2.77008e-06
5.68457e-07
-2.84467e-06
5.31884e-07
-2.9103e-06
4.92404e-07
-2.96755e-06
4.5052e-07
-3.01683e-06
4.06676e-07
-3.05845e-06
3.61232e-07
-3.09262e-06
3.14527e-07
-3.11945e-06
2.66703e-07
-3.13895e-06
2.17876e-07
-3.15101e-06
1.68011e-07
-3.15555e-06
1.17181e-07
-3.15236e-06
6.51952e-08
-3.14111e-06
1.18802e-08
-3.12162e-06
-4.27027e-08
-3.0934e-06
-9.88291e-08
-3.05606e-06
-1.56613e-07
-3.00921e-06
-2.1612e-07
-2.95228e-06
-2.77428e-07
-2.88469e-06
-3.40374e-07
-2.80597e-06
-4.04592e-07
-2.71564e-06
-4.69765e-07
-2.61325e-06
-5.35316e-07
-2.49838e-06
-6.00499e-07
-2.37065e-06
-6.64213e-07
-2.23017e-06
-7.24523e-07
-2.07738e-06
-7.79729e-07
-1.91291e-06
-8.2804e-07
-1.73788e-06
-8.66948e-07
-1.55401e-06
-8.93866e-07
-1.36344e-06
-9.06638e-07
-1.16905e-06
-9.02749e-07
-9.74036e-07
-8.80796e-07
-7.82497e-07
-8.39302e-07
-5.99172e-07
-7.78473e-07
-4.28256e-07
-7.0006e-07
-2.72822e-07
-6.06561e-07
-1.35573e-07
-5.00729e-07
-1.85705e-08
-3.86164e-07
7.70121e-08
-2.67155e-07
1.50807e-07
-1.48072e-07
2.03392e-07
-3.31478e-08
2.35687e-07
7.3696e-08
2.48201e-07
1.68447e-07
2.41228e-07
2.46812e-07
2.15103e-07
3.03444e-07
1.70812e-07
3.32377e-07
1.1144e-07
3.28746e-07
4.47037e-08
2.83004e-07
1.53747e-07
3.78314e-08
-1.33436e-07
8.29736e-08
-2.4567e-07
1.11271e-07
-2.42781e-07
1.23701e-07
-1.98497e-07
1.23208e-07
-1.38298e-07
1.11789e-07
-7.53125e-08
9.0417e-08
-1.47245e-08
5.92065e-08
4.08998e-08
1.76665e-08
9.07087e-08
-3.53571e-08
1.35435e-07
-1.01259e-07
1.77088e-07
-1.81439e-07
2.18436e-07
-2.77071e-07
2.62244e-07
-3.88991e-07
3.1062e-07
-5.17614e-07
3.6464e-07
-6.62672e-07
4.2414e-07
-8.23014e-07
4.87932e-07
-9.96222e-07
5.53884e-07
-1.17877e-06
6.1895e-07
-1.36605e-06
6.79357e-07
-1.55354e-06
7.32561e-07
-1.73632e-06
7.75e-07
-1.90927e-06
8.046e-07
-2.06945e-06
8.21178e-07
-2.21606e-06
8.25596e-07
-2.3494e-06
8.19455e-07
-2.47026e-06
8.04337e-07
-2.57965e-06
7.81779e-07
-2.67845e-06
7.53097e-07
-2.76748e-06
7.19363e-07
-2.84747e-06
6.81476e-07
-2.91908e-06
6.4006e-07
-2.98291e-06
5.95716e-07
-3.03947e-06
5.48963e-07
-3.08916e-06
5.00212e-07
-3.13228e-06
4.49799e-07
-3.16899e-06
3.97935e-07
-3.19942e-06
3.44957e-07
-3.22367e-06
2.90957e-07
-3.24181e-06
2.3602e-07
-3.25366e-06
1.79855e-07
-3.2593e-06
1.22817e-07
-3.25866e-06
6.45604e-08
-3.25134e-06
4.56442e-09
-3.23757e-06
-5.64813e-08
-3.21661e-06
-1.19781e-07
-3.18804e-06
-1.8519e-07
-3.15135e-06
-2.52804e-07
-3.10597e-06
-3.22806e-07
-3.05115e-06
-3.95198e-07
-2.98611e-06
-4.6963e-07
-2.91001e-06
-5.45869e-07
-2.82209e-06
-6.23237e-07
-2.72188e-06
-7.00707e-07
-2.60883e-06
-7.77265e-07
-2.48228e-06
-8.51074e-07
-2.34209e-06
-9.19913e-07
-2.18833e-06
-9.81805e-07
-2.02159e-06
-1.03369e-06
-1.84331e-06
-1.07214e-06
-1.65498e-06
-1.09496e-06
-1.4593e-06
-1.09843e-06
-1.25924e-06
-1.08086e-06
-1.05859e-06
-1.03995e-06
-8.61903e-07
-9.75156e-07
-6.74578e-07
-8.87385e-07
-5.01073e-07
-7.80065e-07
-3.44744e-07
-6.57058e-07
-2.08414e-07
-5.22495e-07
-9.40398e-08
-3.81529e-07
-2.39232e-09
-2.3972e-07
6.69183e-08
-1.02458e-07
1.15153e-07
2.54612e-08
1.43913e-07
1.39687e-07
1.54191e-07
2.36534e-07
1.46617e-07
3.11018e-07
1.21651e-07
3.57343e-07
8.15341e-08
3.68863e-07
3.24889e-08
3.3205e-07
1.86236e-07
3.76513e-08
-1.71088e-07
6.99138e-08
-2.77932e-07
8.32236e-08
-2.5609e-07
8.08286e-08
-1.96102e-07
6.65835e-08
-1.24053e-07
4.18681e-08
-5.0597e-08
6.98556e-09
2.01581e-08
-3.85517e-08
8.64371e-08
-9.58056e-08
1.47963e-07
-1.66188e-07
2.05817e-07
-2.5119e-07
2.6209e-07
-3.52078e-07
3.19324e-07
-4.6966e-07
3.79826e-07
-6.04105e-07
4.45064e-07
-7.54798e-07
5.15333e-07
-9.20135e-07
5.89478e-07
-1.09717e-06
6.64971e-07
-1.28175e-06
7.38462e-07
-1.46918e-06
8.06377e-07
-1.65439e-06
8.64571e-07
-1.83142e-06
9.09591e-07
-1.99632e-06
9.399e-07
-2.1476e-06
9.55873e-07
-2.28537e-06
9.58951e-07
-2.41055e-06
9.50776e-07
-2.52416e-06
9.3307e-07
-2.62727e-06
9.0744e-07
-2.72083e-06
8.75344e-07
-2.80564e-06
8.37901e-07
-2.88233e-06
7.96059e-07
-2.95145e-06
7.50591e-07
-3.01348e-06
7.02097e-07
-3.06889e-06
6.5112e-07
-3.11801e-06
5.98082e-07
-3.16116e-06
5.43362e-07
-3.19862e-06
4.87259e-07
-3.23033e-06
4.29649e-07
-3.25652e-06
3.71145e-07
-3.27732e-06
3.11752e-07
-3.29277e-06
2.51476e-07
-3.30315e-06
1.90231e-07
-3.30817e-06
1.27842e-07
-3.30774e-06
6.4132e-08
-3.30166e-06
-1.51748e-09
-3.29022e-06
-6.79271e-08
-3.27339e-06
-1.3661e-07
-3.2511e-06
-2.07478e-07
-3.22315e-06
-2.80749e-07
-3.18928e-06
-3.56681e-07
-3.1489e-06
-4.35574e-07
-3.10103e-06
-5.17502e-07
-3.04465e-06
-6.02249e-07
-2.97842e-06
-6.89465e-07
-2.90051e-06
-7.7862e-07
-2.80902e-06
-8.68751e-07
-2.70258e-06
-9.57522e-07
-2.58057e-06
-1.04192e-06
-2.44316e-06
-1.11922e-06
-2.29071e-06
-1.18614e-06
-2.1234e-06
-1.23945e-06
-1.94205e-06
-1.27631e-06
-1.74925e-06
-1.29124e-06
-1.54743e-06
-1.28268e-06
-1.34027e-06
-1.24712e-06
-1.13201e-06
-1.18341e-06
-9.28109e-07
-1.09129e-06
-7.35012e-07
-9.73162e-07
-5.57548e-07
-8.34522e-07
-3.99302e-07
-6.80741e-07
-2.63268e-07
-5.17562e-07
-1.51217e-07
-3.51772e-07
-6.3393e-08
-1.90282e-07
1.44684e-09
-3.93786e-08
4.51544e-08
9.59793e-08
7.01951e-08
2.11493e-07
7.8127e-08
3.03087e-07
6.97662e-08
3.65704e-07
4.74002e-08
3.91229e-07
1.73515e-08
3.62098e-07
2.03587e-07
3.26925e-08
-2.0378e-07
4.95375e-08
-2.94777e-07
4.67118e-08
-2.53265e-07
2.92663e-08
-1.78656e-07
9.9112e-10
-9.57774e-08
-3.74777e-08
-1.21282e-08
-8.65927e-08
6.9273e-08
-1.47309e-07
1.47153e-07
-2.20948e-07
2.21601e-07
-3.08935e-07
2.93804e-07
-4.12536e-07
3.65692e-07
-5.32581e-07
4.39369e-07
-6.6919e-07
5.16435e-07
-8.21649e-07
5.97524e-07
-9.88161e-07
6.81845e-07
-1.16544e-06
7.6676e-07
-1.34905e-06
8.48577e-07
-1.53402e-06
9.23435e-07
-1.71429e-06
9.86642e-07
-1.88463e-06
1.03491e-06
-2.042e-06
1.06697e-06
-2.18586e-06
1.08376e-06
-2.31668e-06
1.08669e-06
-2.43544e-06
1.07771e-06
-2.54321e-06
1.05855e-06
-2.64112e-06
1.03097e-06
-2.73006e-06
9.96386e-07
-2.81076e-06
9.56043e-07
-2.88377e-06
9.10912e-07
-2.94956e-06
8.61846e-07
-3.00851e-06
8.09541e-07
-3.06099e-06
7.54582e-07
-3.10732e-06
6.97448e-07
-3.14768e-06
6.38438e-07
-3.18229e-06
5.77975e-07
-3.2117e-06
5.1667e-07
-3.23669e-06
4.54634e-07
-3.25734e-06
3.91796e-07
-3.27365e-06
3.28072e-07
-3.28548e-06
2.63298e-07
-3.29301e-06
1.97766e-07
-3.29614e-06
1.30968e-07
-3.29495e-06
6.29461e-08
-3.28956e-06
-6.91375e-09
-3.28004e-06
-7.7442e-08
-3.26641e-06
-1.50237e-07
-3.24856e-06
-2.25331e-07
-3.22629e-06
-3.03019e-07
-3.19941e-06
-3.83565e-07
-3.16774e-06
-4.67236e-07
-3.13096e-06
-5.54289e-07
-3.08859e-06
-6.44622e-07
-3.03994e-06
-7.38111e-07
-2.98426e-06
-8.343e-07
-2.92046e-06
-9.32547e-07
-2.84574e-06
-1.03224e-06
-2.75607e-06
-1.13159e-06
-2.64762e-06
-1.22767e-06
-2.51885e-06
-1.31491e-06
-2.37054e-06
-1.38776e-06
-2.20484e-06
-1.44201e-06
-2.02227e-06
-1.47381e-06
-1.8251e-06
-1.47985e-06
-1.61681e-06
-1.4554e-06
-1.40142e-06
-1.3988e-06
-1.18383e-06
-1.30888e-06
-9.71295e-07
-1.1857e-06
-7.71337e-07
-1.03448e-06
-5.89268e-07
-8.6281e-07
-4.2898e-07
-6.7785e-07
-2.93593e-07
-4.87159e-07
-1.84602e-07
-2.99273e-07
-1.01609e-07
-1.22372e-07
-4.23077e-08
3.66784e-08
-3.46771e-09
1.72653e-07
1.75515e-08
2.82067e-07
2.31711e-08
3.60084e-07
1.63705e-08
3.98029e-07
3.60237e-09
3.74867e-07
2.07189e-07
2.33487e-08
-2.27129e-07
2.33887e-08
-2.94817e-07
3.83895e-09
-2.33715e-07
-2.8076e-08
-1.46741e-07
-7.03638e-08
-5.34896e-08
-1.22966e-07
4.0474e-08
-1.86698e-07
1.33005e-07
-2.62805e-07
2.2326e-07
-3.52619e-07
3.11415e-07
-4.57333e-07
3.98518e-07
-5.77758e-07
4.86117e-07
-7.14036e-07
5.75647e-07
-8.65528e-07
6.67927e-07
-1.03051e-06
7.62502e-07
-1.20552e-06
8.56856e-07
-1.38598e-06
9.47223e-07
-1.56664e-06
1.02924e-06
-1.74131e-06
1.09811e-06
-1.9053e-06
1.15062e-06
-2.05639e-06
1.186e-06
-2.19418e-06
1.20476e-06
-2.31924e-06
1.20882e-06
-2.43258e-06
1.20003e-06
-2.5353e-06
1.18043e-06
-2.62844e-06
1.15168e-06
-2.71282e-06
1.11536e-06
-2.78911e-06
1.07267e-06
-2.85777e-06
1.02471e-06
-2.91925e-06
9.72383e-07
-2.97389e-06
9.16486e-07
-3.02203e-06
8.5769e-07
-3.06405e-06
7.96596e-07
-3.10039e-06
7.33793e-07
-3.13174e-06
6.69785e-07
-3.15858e-06
6.0481e-07
-3.18071e-06
5.38798e-07
-3.19826e-06
4.72191e-07
-3.21125e-06
4.04788e-07
-3.21993e-06
3.3675e-07
-3.2248e-06
2.68171e-07
-3.22619e-06
1.9915e-07
-3.22454e-06
1.29325e-07
-3.22014e-06
5.85436e-08
-3.21347e-06
-1.35892e-08
-3.20403e-06
-8.68792e-08
-3.19203e-06
-1.62233e-07
-3.17752e-06
-2.39846e-07
-3.16047e-06
-3.20072e-07
-3.14078e-06
-4.03246e-07
-3.11829e-06
-4.89735e-07
-3.0927e-06
-5.79877e-07
-3.06346e-06
-6.73854e-07
-3.02985e-06
-7.71725e-07
-2.99089e-06
-8.73259e-07
-2.94572e-06
-9.77722e-07
-2.89335e-06
-1.08461e-06
-2.83241e-06
-1.19253e-06
-2.76081e-06
-1.29927e-06
-2.6729e-06
-1.40282e-06
-2.56129e-06
-1.49937e-06
-2.42361e-06
-1.57968e-06
-2.26127e-06
-1.63616e-06
-2.07871e-06
-1.66241e-06
-1.87752e-06
-1.65659e-06
-1.66227e-06
-1.61406e-06
-1.43723e-06
-1.53392e-06
-1.20892e-06
-1.41401e-06
-9.86516e-07
-1.25688e-06
-7.79011e-07
-1.07032e-06
-5.9234e-07
-8.64521e-07
-4.30684e-07
-6.48815e-07
-2.97189e-07
-4.32768e-07
-1.92824e-07
-2.26736e-07
-1.16167e-07
-3.99786e-08
-6.36771e-08
1.20163e-07
-3.07146e-08
2.49105e-07
-1.34031e-08
3.42773e-07
-6.82636e-09
3.91452e-07
-5.2646e-09
3.73305e-07
2.01925e-07
1.09294e-08
-2.38058e-07
-6.74542e-09
-2.77142e-07
-4.19371e-08
-1.98523e-07
-8.84365e-08
-1.00242e-07
-1.44816e-07
2.88998e-09
-2.11512e-07
1.0717e-07
-2.89715e-07
2.11208e-07
-3.807e-07
3.14245e-07
-4.85599e-07
4.16314e-07
-6.05183e-07
5.18102e-07
-7.39628e-07
6.20562e-07
-8.88428e-07
7.24446e-07
-1.05007e-06
8.2957e-07
-1.22123e-06
9.33666e-07
-1.39722e-06
1.03284e-06
-1.57262e-06
1.12262e-06
-1.74175e-06
1.19837e-06
-1.90025e-06
1.2566e-06
-2.0461e-06
1.29647e-06
-2.17877e-06
1.31868e-06
-2.29892e-06
1.3249e-06
-2.4075e-06
1.3174e-06
-2.50561e-06
1.29814e-06
-2.59415e-06
1.26897e-06
-2.67388e-06
1.23142e-06
-2.74537e-06
1.18685e-06
-2.80908e-06
1.13638e-06
-2.86541e-06
1.08104e-06
-2.91477e-06
1.02174e-06
-2.95757e-06
9.59285e-07
-2.99427e-06
8.94386e-07
-3.02533e-06
8.27658e-07
-3.05109e-06
7.59561e-07
-3.0718e-06
6.90493e-07
-3.08775e-06
6.20755e-07
-3.09943e-06
5.5048e-07
-3.10727e-06
4.80036e-07
-3.11189e-06
4.09408e-07
-3.1138e-06
3.38657e-07
-3.11332e-06
2.67687e-07
-3.11054e-06
1.96374e-07
-3.10571e-06
1.24494e-07
-3.099e-06
5.18357e-08
-3.09069e-06
-2.18991e-08
-3.08067e-06
-9.69072e-08
-3.0692e-06
-1.73698e-07
-3.05645e-06
-2.52595e-07
-3.04253e-06
-3.33997e-07
-3.02748e-06
-4.1829e-07
-3.01132e-06
-5.05895e-07
-2.99399e-06
-5.97208e-07
-2.97528e-06
-6.92569e-07
-2.95479e-06
-7.92213e-07
-2.93188e-06
-8.96172e-07
-2.90536e-06
-1.00424e-06
-2.87388e-06
-1.11609e-06
-2.83569e-06
-1.23073e-06
-2.78887e-06
-1.34609e-06
-2.73135e-06
-1.46033e-06
-2.66062e-06
-1.5701e-06
-2.5692e-06
-1.67111e-06
-2.44715e-06
-1.75821e-06
-2.29278e-06
-1.81678e-06
-2.10999e-06
-1.83938e-06
-1.90491e-06
-1.81914e-06
-1.68146e-06
-1.75737e-06
-1.4454e-06
-1.65006e-06
-1.20512e-06
-1.49716e-06
-9.72002e-07
-1.30344e-06
-7.56857e-07
-1.07967e-06
-5.66345e-07
-8.39327e-07
-4.04868e-07
-5.94245e-07
-2.75322e-07
-3.56282e-07
-1.77726e-07
-1.37574e-07
-1.0924e-07
5.16758e-08
-6.44225e-08
2.04288e-07
-3.73181e-08
3.15668e-07
-2.04071e-08
3.74542e-07
-9.36974e-09
3.62267e-07
1.92555e-07
-3.26025e-09
-2.34798e-07
-3.81274e-08
-2.42275e-07
-8.88743e-08
-1.47776e-07
-1.49614e-07
-3.95023e-08
-2.19695e-07
7.29708e-08
-3.00097e-07
1.87572e-07
-3.92057e-07
3.03168e-07
-4.96729e-07
4.18917e-07
-6.14888e-07
5.34473e-07
-7.46754e-07
6.49968e-07
-8.91952e-07
7.6576e-07
-1.04924e-06
8.81738e-07
-1.21561e-06
9.95938e-07
-1.38644e-06
1.1045e-06
-1.55645e-06
1.20285e-06
-1.7204e-06
1.28657e-06
-1.87414e-06
1.35211e-06
-2.0155e-06
1.39796e-06
-2.1439e-06
1.42488e-06
-2.25977e-06
1.43455e-06
-2.36413e-06
1.42926e-06
-2.4579e-06
1.41118e-06
-2.54194e-06
1.38218e-06
-2.61689e-06
1.34392e-06
-2.68325e-06
1.29778e-06
-2.74146e-06
1.24506e-06
-2.79195e-06
1.18686e-06
-2.83516e-06
1.12426e-06
-2.8716e-06
1.05818e-06
-2.9018e-06
9.89482e-07
-2.9263e-06
9.18886e-07
-2.94563e-06
8.46993e-07
-2.96034e-06
7.74268e-07
-2.97095e-06
7.01104e-07
-2.97798e-06
6.27786e-07
-2.98201e-06
5.54507e-07
-2.98342e-06
4.81443e-07
-2.98258e-06
4.08571e-07
-2.97977e-06
3.35846e-07
-2.97521e-06
2.63132e-07
-2.9691e-06
1.90264e-07
-2.96163e-06
1.17019e-07
-2.95296e-06
4.31628e-08
-2.94327e-06
-3.1581e-08
-2.93267e-06
-1.07508e-07
-2.92137e-06
-1.85002e-07
-2.90955e-06
-2.64416e-07
-2.8974e-06
-3.46149e-07
-2.88508e-06
-4.30605e-07
-2.87276e-06
-5.18217e-07
-2.86056e-06
-6.09411e-07
-2.84853e-06
-7.04597e-07
-2.83661e-06
-8.04128e-07
-2.82452e-06
-9.08263e-07
-2.81162e-06
-1.01714e-06
-2.79699e-06
-1.13071e-06
-2.77925e-06
-1.24847e-06
-2.75599e-06
-1.36936e-06
-2.72453e-06
-1.49179e-06
-2.68189e-06
-1.61274e-06
-2.62475e-06
-1.72825e-06
-2.54897e-06
-1.83398e-06
-2.44289e-06
-1.92286e-06
-2.29812e-06
-1.98415e-06
-2.11631e-06
-2.00095e-06
-1.90647e-06
-1.96721e-06
-1.6733e-06
-1.88323e-06
-1.42487e-06
-1.74559e-06
-1.17174e-06
-1.55657e-06
-9.27813e-07
-1.32359e-06
-7.05902e-07
-1.06124e-06
-5.1339e-07
-7.86757e-07
-3.54655e-07
-5.15017e-07
-2.3186e-07
-2.60369e-07
-1.43536e-07
-3.66488e-08
-8.47378e-08
1.4549e-07
-4.80347e-08
2.78965e-07
-2.43649e-08
3.50872e-07
-8.79518e-09
3.46698e-07
1.8376e-07
-1.84565e-08
-2.16341e-07
-7.00281e-08
-1.90704e-07
-1.35333e-07
-8.24716e-08
-2.09563e-07
3.4728e-08
-2.92698e-07
1.56106e-07
-3.85892e-07
2.80766e-07
-4.90362e-07
4.07638e-07
-6.06982e-07
5.35537e-07
-7.3607e-07
6.63561e-07
-8.77375e-07
7.91273e-07
-1.02991e-06
9.183e-07
-1.19107e-06
1.04289e-06
-1.35654e-06
1.1614e-06
-1.52129e-06
1.26925e-06
-1.6805e-06
1.36206e-06
-1.83019e-06
1.43626e-06
-1.96782e-06
1.48975e-06
-2.09262e-06
1.52276e-06
-2.2049e-06
1.53716e-06
-2.3055e-06
1.53514e-06
-2.39532e-06
1.51907e-06
-2.47507e-06
1.49093e-06
-2.54535e-06
1.45246e-06
-2.60662e-06
1.40519e-06
-2.65934e-06
1.3505e-06
-2.70399e-06
1.28972e-06
-2.74116e-06
1.22403e-06
-2.77146e-06
1.15456e-06
-2.79558e-06
1.0823e-06
-2.81422e-06
1.00812e-06
-2.82806e-06
9.32728e-07
-2.83776e-06
8.56689e-07
-2.84393e-06
7.8044e-07
-2.84714e-06
7.04309e-07
-2.84786e-06
6.28509e-07
-2.84652e-06
5.53166e-07
-2.8434e-06
4.78329e-07
-2.83876e-06
4.03929e-07
-2.83278e-06
3.29863e-07
-2.82562e-06
2.55976e-07
-2.81744e-06
1.82082e-07
-2.80838e-06
1.07954e-07
-2.79856e-06
3.33502e-08
-2.78814e-06
-4.20024e-08
-2.77725e-06
-1.18403e-07
-2.76606e-06
-1.96188e-07
-2.75478e-06
-2.75702e-07
-2.74361e-06
-3.57319e-07
-2.73278e-06
-4.41432e-07
-2.72254e-06
-5.28459e-07
-2.71312e-06
-6.18829e-07
-2.70474e-06
-7.12974e-07
-2.69756e-06
-8.1131e-07
-2.69161e-06
-9.14216e-07
-2.68673e-06
-1.02202e-06
-2.68255e-06
-1.13489e-06
-2.67824e-06
-1.25278e-06
-2.67231e-06
-1.37529e-06
-2.66262e-06
-1.50147e-06
-2.64588e-06
-1.62948e-06
-2.6177e-06
-1.75643e-06
-2.57409e-06
-1.87759e-06
-2.50958e-06
-1.98736e-06
-2.41613e-06
-2.0776e-06
-2.27919e-06
-2.13789e-06
-2.09822e-06
-2.14818e-06
-1.88196e-06
-2.09949e-06
-1.63743e-06
-1.99012e-06
-1.37538e-06
-1.81862e-06
-1.10914e-06
-1.58983e-06
-8.55434e-07
-1.31494e-06
-6.29035e-07
-1.01316e-06
-4.37747e-07
-7.06306e-07
-2.85504e-07
-4.12612e-07
-1.72929e-07
-1.49223e-07
-9.64657e-08
6.90263e-08
-4.86593e-08
2.31159e-07
-2.02889e-08
3.22501e-07
-4.53325e-09
3.30942e-07
1.79227e-07
-3.36323e-08
-1.82709e-07
-1.00713e-07
-1.23623e-07
-1.79673e-07
-3.51153e-09
-2.66456e-07
1.21511e-07
-3.61609e-07
2.51259e-07
-4.66325e-07
3.85482e-07
-5.81664e-07
5.22977e-07
-7.08148e-07
6.62021e-07
-8.45685e-07
8.01098e-07
-9.93516e-07
9.39104e-07
-1.14943e-06
1.07421e-06
-1.30959e-06
1.20306e-06
-1.46939e-06
1.3212e-06
-1.62435e-06
1.4242e-06
-1.7706e-06
1.50832e-06
-1.90532e-06
1.57098e-06
-2.02728e-06
1.61171e-06
-2.13665e-06
1.63214e-06
-2.23411e-06
1.63462e-06
-2.32047e-06
1.6215e-06
-2.3964e-06
1.595e-06
-2.46243e-06
1.55696e-06
-2.51903e-06
1.50906e-06
-2.56673e-06
1.45288e-06
-2.6061e-06
1.38988e-06
-2.63786e-06
1.32147e-06
-2.66279e-06
1.24896e-06
-2.68172e-06
1.17349e-06
-2.69549e-06
1.09607e-06
-2.70488e-06
1.01751e-06
-2.71063e-06
9.38473e-07
-2.71337e-06
8.59434e-07
-2.71367e-06
7.80743e-07
-2.71199e-06
7.02629e-07
-2.7087e-06
6.25211e-07
-2.70406e-06
5.4853e-07
-2.69828e-06
4.72549e-07
-2.69151e-06
3.9716e-07
-2.68387e-06
3.22225e-07
-2.67546e-06
2.47565e-07
-2.66637e-06
1.72986e-07
-2.65667e-06
9.82619e-08
-2.64648e-06
2.31538e-08
-2.63588e-06
-5.26014e-08
-2.625e-06
-1.2928e-07
-2.614e-06
-2.07186e-07
-2.60307e-06
-2.86634e-07
-2.59242e-06
-3.67964e-07
-2.58232e-06
-4.51537e-07
-2.57304e-06
-5.37738e-07
-2.56489e-06
-6.26976e-07
-2.55819e-06
-7.19676e-07
-2.55322e-06
-8.16277e-07
-2.55022e-06
-9.17218e-07
-2.54932e-06
-1.02292e-06
-2.55049e-06
-1.13373e-06
-2.55341e-06
-1.24986e-06
-2.55737e-06
-1.37133e-06
-2.56109e-06
-1.49776e-06
-2.56233e-06
-1.62823e-06
-2.5578e-06
-1.76097e-06
-2.54253e-06
-1.89285e-06
-2.51078e-06
-2.01912e-06
-2.45635e-06
-2.13203e-06
-2.37042e-06
-2.22381e-06
-2.23855e-06
-2.28006e-06
-2.05636e-06
-2.28168e-06
-1.83146e-06
-2.21502e-06
-1.57378e-06
-2.07631e-06
-1.29733e-06
-1.86628e-06
-1.01872e-06
-1.59355e-06
-7.57857e-07
-1.27402e-06
-5.31094e-07
-9.33069e-07
-3.45958e-07
-5.97747e-07
-2.05197e-07
-2.89985e-07
-1.07142e-07
-2.9028e-08
-4.56526e-08
1.6967e-07
-1.22457e-08
2.89094e-07
1.65324e-09
3.17043e-07
1.8088e-07
-4.81022e-08
-1.34607e-07
-1.29302e-07
-4.24237e-08
-2.20467e-07
8.76535e-08
-3.1872e-07
2.19764e-07
-4.24572e-07
3.5711e-07
-5.3924e-07
5.0015e-07
-6.63559e-07
6.47297e-07
-7.97715e-07
7.96178e-07
-9.4117e-07
9.44552e-07
-1.09209e-06
1.09002e-06
-1.24721e-06
1.22933e-06
-1.40248e-06
1.35833e-06
-1.55368e-06
1.4724e-06
-1.69706e-06
1.56759e-06
-1.8296e-06
1.64085e-06
-1.94956e-06
1.69095e-06
-2.0568e-06
1.71895e-06
-2.15188e-06
1.72721e-06
-2.23548e-06
1.71822e-06
-2.30826e-06
1.69428e-06
-2.37074e-06
1.65748e-06
-2.42341e-06
1.60963e-06
-2.46686e-06
1.55252e-06
-2.50181e-06
1.48782e-06
-2.52909e-06
1.41716e-06
-2.54963e-06
1.34202e-06
-2.5644e-06
1.26373e-06
-2.57435e-06
1.18343e-06
-2.58033e-06
1.10205e-06
-2.58313e-06
1.02031e-06
-2.58341e-06
9.3875e-07
-2.58171e-06
8.57736e-07
-2.57847e-06
7.77505e-07
-2.57402e-06
6.9818e-07
-2.56861e-06
6.19794e-07
-2.56238e-06
5.42309e-07
-2.55547e-06
4.6563e-07
-2.54792e-06
3.89619e-07
-2.53981e-06
3.14113e-07
-2.53117e-06
2.38918e-07
-2.52201e-06
1.63832e-07
-2.51239e-06
8.86448e-08
-2.50237e-06
1.31276e-08
-2.492e-06
-6.29716e-08
-2.48139e-06
-1.39893e-07
-2.47067e-06
-2.17906e-07
-2.46001e-06
-2.97289e-07
-2.44964e-06
-3.7834e-07
-2.4398e-06
-4.61375e-07
-2.4308e-06
-5.46737e-07
-2.42298e-06
-6.34795e-07
-2.41671e-06
-7.25948e-07
-2.41236e-06
-8.20623e-07
-2.4103e-06
-9.19276e-07
-2.41084e-06
-1.02238e-06
-2.41418e-06
-1.13039e-06
-2.42033e-06
-1.24371e-06
-2.42903e-06
-1.36263e-06
-2.4396e-06
-1.48719e-06
-2.45076e-06
-1.61708e-06
-2.46036e-06
-1.75136e-06
-2.46502e-06
-1.8882e-06
-2.45979e-06
-2.02434e-06
-2.43733e-06
-2.15449e-06
-2.39041e-06
-2.27074e-06
-2.3087e-06
-2.36176e-06
-2.17782e-06
-2.41257e-06
-1.99126e-06
-2.40158e-06
-1.75512e-06
-2.31245e-06
-1.48271e-06
-2.13868e-06
-1.19183e-06
-1.88443e-06
-9.03089e-07
-1.56276e-06
-6.39922e-07
-1.19624e-06
-4.19148e-07
-8.18521e-07
-2.4708e-07
-4.62053e-07
-1.24195e-07
-1.51913e-07
-4.60059e-08
9.14801e-08
-5.37461e-09
2.48463e-07
7.26359e-09
3.04405e-07
1.88143e-07
-6.12682e-08
-7.33387e-08
-1.54753e-07
5.10614e-08
-2.56939e-07
1.89839e-07
-3.65168e-07
3.27993e-07
-4.80152e-07
4.72094e-07
-6.03e-07
6.22999e-07
-7.34317e-07
7.78614e-07
-8.73879e-07
9.35739e-07
-1.02023e-06
1.09091e-06
-1.17069e-06
1.24048e-06
-1.32186e-06
1.38051e-06
-1.4698e-06
1.50627e-06
-1.61086e-06
1.61346e-06
-1.74187e-06
1.6986e-06
-1.8607e-06
1.75968e-06
-1.96671e-06
1.79696e-06
-2.06026e-06
1.8125e-06
-2.14198e-06
1.80893e-06
-2.21246e-06
1.78871e-06
-2.27226e-06
1.75408e-06
-2.32192e-06
1.70713e-06
-2.3621e-06
1.64981e-06
-2.39362e-06
1.58404e-06
-2.41745e-06
1.51165e-06
-2.43464e-06
1.43435e-06
-2.44628e-06
1.35365e-06
-2.45339e-06
1.27084e-06
-2.45691e-06
1.18695e-06
-2.45765e-06
1.10279e-06
-2.45628e-06
1.01895e-06
-2.45335e-06
9.35817e-07
-2.44926e-06
8.53648e-07
-2.44432e-06
7.72562e-07
-2.43873e-06
6.9259e-07
-2.43262e-06
6.13688e-07
-2.42607e-06
5.3576e-07
-2.41911e-06
4.58667e-07
-2.41174e-06
3.82247e-07
-2.40395e-06
3.06328e-07
-2.39574e-06
2.30708e-07
-2.38709e-06
1.55182e-07
-2.37801e-06
7.95593e-08
-2.36851e-06
3.63385e-09
-2.35865e-06
-7.28402e-08
-2.34848e-06
-1.50055e-07
-2.33814e-06
-2.28251e-07
-2.32776e-06
-3.07665e-07
-2.31755e-06
-3.8855e-07
-2.30775e-06
-4.71174e-07
-2.29866e-06
-5.55829e-07
-2.29063e-06
-6.42833e-07
-2.28403e-06
-7.32541e-07
-2.27931e-06
-8.25345e-07
-2.2769e-06
-9.21686e-07
-2.27723e-06
-1.02204e-06
-2.28069e-06
-1.12693e-06
-2.28752e-06
-1.23688e-06
-2.29778e-06