/*--------------------------------*- C++ -*----------------------------------*\
  =========                 |
  \\      /  F ield         | OpenFOAM: The Open Source CFD Toolbox
   \\    /   O peration     | Website:  https://openfoam.org
    \\  /    A nd           | Version:  13
     \\/     M anipulation  |
\*---------------------------------------------------------------------------*/
FoamFile
{
    format      ascii;
    class       volVectorField;
    location    "8.9";
    object      U;
}
// * * * * * * * * * * * * * * * * * * * * * * * * * * * * * * * * * * * * * //

dimensions      [0 1 -1 0 0 0 0];

internalField   nonuniform List<vector> 
6400
(
(-0.000127058 8.31989e-05 0)
(0.00045499 -0.000177385 0)
(0.0021283 -0.000442915 0)
(0.00433297 -0.000559826 0)
(0.00652196 -0.000492795 0)
(0.00834336 -0.000328024 0)
(0.00955111 -0.000130705 0)
(0.0101521 1.65313e-05 0)
(0.0102751 7.01938e-05 0)
(0.010166 4.75312e-05 0)
(0.00994857 -3.25581e-05 0)
(0.00979345 -0.000140907 0)
(0.00976341 -0.00025274 0)
(0.0098566 -0.000343328 0)
(0.0100235 -0.000416042 0)
(0.0101851 -0.00046908 0)
(0.0102665 -0.000502201 0)
(0.0102164 -0.000503369 0)
(0.00999045 -0.000482937 0)
(0.00949392 -0.000441054 0)
(0.00869079 -0.000391955 0)
(0.00752006 -0.00034205 0)
(0.00594061 -0.000295064 0)
(0.00392377 -0.000277585 0)
(0.00143506 -0.000327797 0)
(-0.00149605 -0.000445909 0)
(-0.00491228 -0.000484702 0)
(-0.00903918 -0.000287987 0)
(-0.0139879 0.000257958 0)
(-0.0198068 0.00115206 0)
(-0.0272184 0.00220495 0)
(-0.0354445 0.00309373 0)
(-0.044339 0.00380602 0)
(-0.0535891 0.00432985 0)
(-0.0629359 0.00467223 0)
(-0.0721426 0.0048487 0)
(-0.0810231 0.00488459 0)
(-0.0894218 0.00480369 0)
(-0.0972226 0.00462869 0)
(-0.104327 0.00437749 0)
(-0.110659 0.00406192 0)
(-0.116159 0.00369047 0)
(-0.12078 0.00326515 0)
(-0.124502 0.00279025 0)
(-0.1273 0.00228093 0)
(-0.128947 0.00180769 0)
(-0.129619 0.00137517 0)
(-0.129435 0.000635332 0)
(-0.127843 8.43895e-05 0)
(-0.125329 -0.000612205 0)
(-0.121519 -0.00125073 0)
(-0.116628 -0.00192138 0)
(-0.110519 -0.00255842 0)
(-0.103309 -0.00318376 0)
(-0.0950303 -0.00379306 0)
(-0.0857678 -0.00437497 0)
(-0.0755515 -0.00488015 0)
(-0.0645737 -0.00530684 0)
(-0.0529909 -0.00562149 0)
(-0.0410209 -0.00579241 0)
(-0.0289072 -0.00578205 0)
(-0.0169319 -0.00557797 0)
(-0.00530653 -0.00518062 0)
(0.00545237 -0.00468578 0)
(0.0150325 -0.0039039 0)
(0.0232874 -0.00295639 0)
(0.029868 -0.0018874 0)
(0.0344969 -0.000732378 0)
(0.037201 0.000429154 0)
(0.0373719 0.00163087 0)
(0.0358699 0.00229951 0)
(0.0322329 0.00287937 0)
(0.0268818 0.00306898 0)
(0.0207069 0.00276285 0)
(0.0144814 0.00205795 0)
(0.00900382 0.00121254 0)
(0.00471425 0.00052457 0)
(0.00176395 0.000117346 0)
(0.00013502 -0.00017303 0)
(-0.000241043 -0.000349529 0)
(1.68926e-05 -0.000391944 0)
(0.00184549 -0.00213882 0)
(0.00531548 -0.00358908 0)
(0.00917646 -0.00407214 0)
(0.0127266 -0.00367639 0)
(0.0155489 -0.00279079 0)
(0.0174664 -0.0017139 0)
(0.0185097 -0.00073737 0)
(0.018804 -4.60718e-05 0)
(0.0185131 0.000330431 0)
(0.0178365 0.000435028 0)
(0.0169437 0.000351969 0)
(0.0159204 0.000203832 0)
(0.0147583 0.000103191 0)
(0.0133855 0.000113144 0)
(0.0116996 0.00024628 0)
(0.00961634 0.000481299 0)
(0.00706556 0.000805924 0)
(0.0039336 0.00123569 0)
(0.00011357 0.0017807 0)
(-0.00450482 0.00244553 0)
(-0.0101623 0.00324953 0)
(-0.0169353 0.00415436 0)
(-0.0248954 0.0051532 0)
(-0.0340893 0.00626386 0)
(-0.0446233 0.00749162 0)
(-0.0563778 0.00886372 0)
(-0.0689995 0.0103778 0)
(-0.082101 0.0119683 0)
(-0.0951454 0.0134552 0)
(-0.107627 0.0145452 0)
(-0.119739 0.0152115 0)
(-0.131191 0.0154629 0)
(-0.141905 0.0153281 0)
(-0.151783 0.0148783 0)
(-0.160761 0.014165 0)
(-0.168797 0.0132455 0)
(-0.175859 0.0121644 0)
(-0.181934 0.01096 0)
(-0.187006 0.00966057 0)
(-0.191063 0.00828325 0)
(-0.194105 0.00684476 0)
(-0.196119 0.00535145 0)
(-0.197106 0.00381428 0)
(-0.197053 0.00224311 0)
(-0.195925 0.000652009 0)
(-0.193738 -0.000984841 0)
(-0.190486 -0.00271352 0)
(-0.186106 -0.00447014 0)
(-0.180666 -0.0062654 0)
(-0.17409 -0.00807474 0)
(-0.166422 -0.00988395 0)
(-0.157627 -0.0116692 0)
(-0.147738 -0.0133998 0)
(-0.136762 -0.0150415 0)
(-0.124789 -0.0165436 0)
(-0.111928 -0.0178707 0)
(-0.09828 -0.0189597 0)
(-0.0840297 -0.0197427 0)
(-0.069393 -0.0201687 0)
(-0.0545838 -0.020171 0)
(-0.0398612 -0.0197104 0)
(-0.0255082 -0.0187656 0)
(-0.0118512 -0.0173671 0)
(0.000831428 -0.0154318 0)
(0.0122854 -0.0130361 0)
(0.0222336 -0.0102279 0)
(0.0304348 -0.00710378 0)
(0.0367217 -0.00374705 0)
(0.0409203 -0.000343904 0)
(0.0430169 0.00286328 0)
(0.0428883 0.00580649 0)
(0.0406269 0.00821635 0)
(0.0364679 0.00973204 0)
(0.0304273 0.00994301 0)
(0.0230247 0.00898615 0)
(0.0152636 0.00713148 0)
(0.00824953 0.00480952 0)
(0.00306861 0.00232019 0)
(0.000225863 0.000267867 0)
(0.000209299 -0.00166559 0)
(0.00325722 -0.00548129 0)
(0.00758495 -0.00773598 0)
(0.0116168 -0.00799315 0)
(0.0149182 -0.0068662 0)
(0.0172829 -0.00502943 0)
(0.0187417 -0.00306082 0)
(0.0193557 -0.00128809 0)
(0.0192022 0.000107069 0)
(0.0183865 0.00104342 0)
(0.0170536 0.00155524 0)
(0.0152791 0.00178903 0)
(0.0130784 0.00194136 0)
(0.0104132 0.00218662 0)
(0.00719166 0.00263288 0)
(0.00331564 0.00330354 0)
(-0.00134495 0.00419262 0)
(-0.00694821 0.0053113 0)
(-0.013622 0.00668406 0)
(-0.0214872 0.00834477 0)
(-0.030627 0.0102968 0)
(-0.0410111 0.0124751 0)
(-0.0526187 0.0147983 0)
(-0.0652983 0.0171449 0)
(-0.0787922 0.0193879 0)
(-0.0927929 0.0214358 0)
(-0.106927 0.0231892 0)
(-0.120876 0.0245868 0)
(-0.134299 0.0255701 0)
(-0.146941 0.0261169 0)
(-0.158643 0.0262199 0)
(-0.169355 0.0258793 0)
(-0.179017 0.0251414 0)
(-0.187694 0.0240429 0)
(-0.195383 0.0226321 0)
(-0.202123 0.0209796 0)
(-0.207937 0.0191332 0)
(-0.212851 0.0171374 0)
(-0.216874 0.0150234 0)
(-0.220021 0.012827 0)
(-0.2223 0.0105569 0)
(-0.22371 0.00822652 0)
(-0.224251 0.00584336 0)
(-0.223913 0.00340673 0)
(-0.222684 0.000918485 0)
(-0.220546 -0.001628 0)
(-0.21747 -0.00424464 0)
(-0.213441 -0.00692775 0)
(-0.208434 -0.00964452 0)
(-0.202435 -0.0124105 0)
(-0.195416 -0.0151986 0)
(-0.187371 -0.0179924 0)
(-0.178288 -0.0207588 0)
(-0.168176 -0.0234552 0)
(-0.157058 -0.0260222 0)
(-0.14498 -0.0283892 0)
(-0.132027 -0.0304871 0)
(-0.118292 -0.0322196 0)
(-0.1039 -0.033494 0)
(-0.0890449 -0.0342169 0)
(-0.0739443 -0.0342995 0)
(-0.0588311 -0.0336676 0)
(-0.0439937 -0.0322939 0)
(-0.0297383 -0.0301862 0)
(-0.016334 -0.0273321 0)
(-0.00401042 -0.0237758 0)
(0.00698069 -0.0195916 0)
(0.0164267 -0.0148981 0)
(0.0241927 -0.00984755 0)
(0.0301635 -0.00462428 0)
(0.034321 0.000547506 0)
(0.0366267 0.00543427 0)
(0.0369472 0.00968895 0)
(0.0351997 0.0130592 0)
(0.0317149 0.0152804 0)
(0.0265468 0.0157939 0)
(0.0198963 0.0146837 0)
(0.0126569 0.0120262 0)
(0.0059157 0.00794453 0)
(0.000789539 0.0029401 0)
(0.000436635 -0.00365991 0)
(0.00434152 -0.00967387 0)
(0.00875692 -0.0120123 0)
(0.0122842 -0.0114617 0)
(0.0148134 -0.00932848 0)
(0.0163454 -0.00655777 0)
(0.0169844 -0.00372533 0)
(0.0168241 -0.0011739 0)
(0.0159454 0.000899943 0)
(0.0144039 0.00243001 0)
(0.0121973 0.00350242 0)
(0.00930169 0.00430921 0)
(0.00566491 0.00508554 0)
(0.00121568 0.00603437 0)
(-0.00411961 0.00727481 0)
(-0.0104448 0.00885879 0)
(-0.0178813 0.0108023 0)
(-0.0265475 0.0131095 0)
(-0.0365212 0.0157693 0)
(-0.0478108 0.0187447 0)
(-0.0603233 0.0219373 0)
(-0.0738511 0.0251967 0)
(-0.088099 0.0283441 0)
(-0.102695 0.0312115 0)
(-0.117342 0.033703 0)
(-0.13169 0.035631 0)
(-0.145447 0.036905 0)
(-0.158338 0.0375471 0)
(-0.170203 0.0376198 0)
(-0.18101 0.0371724 0)
(-0.190738 0.0362615 0)
(-0.199448 0.0349267 0)
(-0.207182 0.0332088 0)
(-0.214012 0.0311776 0)
(-0.219978 0.028881 0)
(-0.225142 0.026374 0)
(-0.229533 0.0236981 0)
(-0.233182 0.020896 0)
(-0.236105 0.0179905 0)
(-0.238312 0.0150024 0)
(-0.239807 0.0119427 0)
(-0.240583 0.00881723 0)
(-0.240632 0.00562612 0)
(-0.239937 0.00236763 0)
(-0.238483 -0.000960152 0)
(-0.236237 -0.00436659 0)
(-0.233171 -0.0078528 0)
(-0.229259 -0.0114306 0)
(-0.224469 -0.0150823 0)
(-0.21877 -0.0188023 0)
(-0.212132 -0.0225685 0)
(-0.204531 -0.0263577 0)
(-0.195944 -0.0301304 0)
(-0.186359 -0.0338304 0)
(-0.175773 -0.0373769 0)
(-0.164206 -0.0406728 0)
(-0.151708 -0.0436226 0)
(-0.138358 -0.0461101 0)
(-0.124255 -0.0479939 0)
(-0.10954 -0.0491341 0)
(-0.0944121 -0.0494128 0)
(-0.0790861 -0.0487185 0)
(-0.0638278 -0.0469863 0)
(-0.0489588 -0.0441894 0)
(-0.0348246 -0.0404012 0)
(-0.0216748 -0.0356833 0)
(-0.0097434 -0.0301264 0)
(0.000753547 -0.0238915 0)
(0.00966382 -0.0171928 0)
(0.0168818 -0.0102692 0)
(0.022362 -0.00336719 0)
(0.0261188 0.00328398 0)
(0.028204 0.00937681 0)
(0.0286116 0.0145058 0)
(0.0272185 0.0183284 0)
(0.0240686 0.0205435 0)
(0.0193294 0.0207149 0)
(0.0134089 0.0186964 0)
(0.00698485 0.0142898 0)
(0.00108646 0.00674899 0)
(0.000724496 -0.00622147 0)
(0.00502278 -0.0140931 0)
(0.00889356 -0.0158029 0)
(0.0115328 -0.014118 0)
(0.0130882 -0.0108843 0)
(0.0136387 -0.00716431 0)
(0.0133338 -0.00350646 0)
(0.0122594 -0.000215707 0)
(0.0104514 0.00255645 0)
(0.00789489 0.00479985 0)
(0.00452488 0.00663473 0)
(0.00025215 0.00827748 0)
(-0.00501644 0.00997395 0)
(-0.0113694 0.011929 0)
(-0.0188892 0.0142721 0)
(-0.0276539 0.0170606 0)
(-0.0377219 0.0202999 0)
(-0.0491095 0.023953 0)
(-0.0617467 0.0279171 0)
(-0.0754506 0.0320428 0)
(-0.0899244 0.0361013 0)
(-0.104809 0.039894 0)
(-0.119743 0.0432803 0)
(-0.134419 0.0459815 0)
(-0.148451 0.0478748 0)
(-0.161528 0.0489782 0)
(-0.173569 0.0493144 0)
(-0.184519 0.0489442 0)
(-0.194429 0.0479721 0)
(-0.203343 0.0464925 0)
(-0.211324 0.0445868 0)
(-0.218458 0.0423221 0)
(-0.224792 0.0397493 0)
(-0.230387 0.0369204 0)
(-0.23529 0.0338779 0)
(-0.239546 0.030663 0)
(-0.243175 0.0273094 0)
(-0.246203 0.0238474 0)
(-0.248642 0.0202916 0)
(-0.250494 0.0166556 0)
(-0.251757 0.0129431 0)
(-0.252422 0.00915549 0)
(-0.252477 0.00528438 0)
(-0.251901 0.00132416 0)
(-0.25068 -0.00272821 0)
(-0.248776 -0.00688503 0)
(-0.246158 -0.0111551 0)
(-0.242793 -0.0155452 0)
(-0.238649 -0.0200536 0)
(-0.233673 -0.0246658 0)
(-0.227827 -0.029361 0)
(-0.221071 -0.0341139 0)
(-0.213365 -0.0388785 0)
(-0.204671 -0.0435898 0)
(-0.194969 -0.0481525 0)
(-0.184236 -0.0524419 0)
(-0.172495 -0.0563403 0)
(-0.159793 -0.059703 0)
(-0.146195 -0.0623474 0)
(-0.131809 -0.064097 0)
(-0.116801 -0.0647947 0)
(-0.101359 -0.0642682 0)
(-0.0857433 -0.0624158 0)
(-0.0702018 -0.0591756 0)
(-0.0551151 -0.0545871 0)
(-0.0408901 -0.0487864 0)
(-0.0277783 -0.0419123 0)
(-0.0160113 -0.034177 0)
(-0.0057892 -0.0258396 0)
(0.00274907 -0.0172034 0)
(0.00953996 -0.00857823 0)
(0.0146 -0.000253686 0)
(0.0179999 0.00746857 0)
(0.019811 0.0142648 0)
(0.0200477 0.0197675 0)
(0.0187153 0.0235338 0)
(0.015823 0.0251183 0)
(0.0115839 0.0242041 0)
(0.00635962 0.0201738 0)
(0.000960753 0.0105921 0)
(0.00104131 -0.00918055 0)
(0.00520277 -0.0181333 0)
(0.0080957 -0.0186056 0)
(0.00959968 -0.0157207 0)
(0.0100777 -0.011389 0)
(0.00958987 -0.00676813 0)
(0.00828049 -0.0023144 0)
(0.00619252 0.00173205 0)
(0.00330676 0.00527918 0)
(-0.0004474 0.00836655 0)
(-0.00517747 0.0111483 0)
(-0.010999 0.0138504 0)
(-0.0180139 0.0167081 0)
(-0.0263027 0.0199095 0)
(-0.0359188 0.0235641 0)
(-0.0468746 0.0276943 0)
(-0.0591197 0.0322414 0)
(-0.0725214 0.0371035 0)
(-0.0868469 0.0420468 0)
(-0.101727 0.0468143 0)
(-0.116812 0.0512347 0)
(-0.131748 0.0549564 0)
(-0.146076 0.0577906 0)
(-0.159443 0.0596785 0)
(-0.171715 0.0605834 0)
(-0.182902 0.0605962 0)
(-0.193055 0.059845 0)
(-0.202243 0.0584589 0)
(-0.210555 0.0565501 0)
(-0.218046 0.0542058 0)
(-0.22479 0.0515023 0)
(-0.23084 0.0484939 0)
(-0.236244 0.045232 0)
(-0.241049 0.0417606 0)
(-0.245293 0.038113 0)
(-0.249 0.0343193 0)
(-0.252188 0.030405 0)
(-0.25487 0.0263969 0)
(-0.257057 0.0223034 0)
(-0.258751 0.0181306 0)
(-0.259951 0.0138773 0)
(-0.260651 0.0095408 0)
(-0.260848 0.00510385 0)
(-0.260527 0.000551163 0)
(-0.259697 -0.00413983 0)
(-0.258313 -0.00897466 0)
(-0.256339 -0.0139574 0)
(-0.253733 -0.0190899 0)
(-0.250456 -0.024378 0)
(-0.246462 -0.0298153 0)
(-0.241681 -0.0353745 0)
(-0.236049 -0.0410246 0)
(-0.229491 -0.0467083 0)
(-0.22195 -0.0523615 0)
(-0.213442 -0.0579374 0)
(-0.203875 -0.0632747 0)
(-0.193194 -0.0682056 0)
(-0.18143 -0.0725676 0)
(-0.168611 -0.0761381 0)
(-0.15478 -0.078696 0)
(-0.140101 -0.0800446 0)
(-0.124695 -0.0799528 0)
(-0.108826 -0.0782986 0)
(-0.0927438 -0.0749206 0)
(-0.076754 -0.0698125 0)
(-0.0612865 -0.0630966 0)
(-0.0467887 -0.0550346 0)
(-0.0335247 -0.0458649 0)
(-0.021754 -0.0359032 0)
(-0.0116772 -0.0255266 0)
(-0.00341025 -0.0151286 0)
(0.0030313 -0.00508442 0)
(0.00772101 0.00426833 0)
(0.0107901 0.0126098 0)
(0.0123514 0.0196177 0)
(0.0124597 0.0248657 0)
(0.0111221 0.0278771 0)
(0.00843847 0.0281833 0)
(0.00474802 0.0248551 0)
(0.000585642 0.0137774 0)
(0.00129361 -0.012276 0)
(0.00482249 -0.0212792 0)
(0.00639478 -0.0202997 0)
(0.00677244 -0.0161184 0)
(0.00608901 -0.010794 0)
(0.00452997 -0.00532447 0)
(0.00216035 -7.37256e-05 0)
(-0.00103035 0.00478571 0)
(-0.00511003 0.00921545 0)
(-0.0101844 0.0132925 0)
(-0.0163742 0.0171862 0)
(-0.0237911 0.0211134 0)
(-0.0325193 0.025282 0)
(-0.042602 0.0298413 0)
(-0.054028 0.0348491 0)
(-0.0667035 0.0402583 0)
(-0.0804767 0.0459286 0)
(-0.0950416 0.0516101 0)
(-0.110007 0.0570812 0)
(-0.125037 0.0619713 0)
(-0.139661 0.0660046 0)
(-0.153398 0.0689801 0)
(-0.166053 0.0708171 0)
(-0.177599 0.07157 0)
(-0.188102 0.0713799 0)
(-0.197633 0.0703856 0)
(-0.20628 0.0687179 0)
(-0.214128 0.0664987 0)
(-0.221249 0.0638254 0)
(-0.227694 0.0607786 0)
(-0.233514 0.0574236 0)
(-0.238748 0.0538079 0)
(-0.243436 0.0499755 0)
(-0.247611 0.0459623 0)
(-0.251298 0.0417995 0)
(-0.254516 0.0375145 0)
(-0.257278 0.0331333 0)
(-0.259591 0.0286754 0)
(-0.261468 0.0241429 0)
(-0.26291 0.0195399 0)
(-0.26395 0.0148014 0)
(-0.264566 0.0100014 0)
(-0.264751 0.00510008 0)
(-0.264494 8.72602e-05 0)
(-0.263779 -0.00506774 0)
(-0.262649 -0.0103733 0)
(-0.261082 -0.0158605 0)
(-0.259079 -0.0215581 0)
(-0.256609 -0.0274965 0)
(-0.253655 -0.0336703 0)
(-0.250138 -0.0400311 0)
(-0.245982 -0.0465697 0)
(-0.241099 -0.0532459 0)
(-0.235378 -0.0599869 0)
(-0.228623 -0.0666485 0)
(-0.22073 -0.0730668 0)
(-0.211569 -0.07905 0)
(-0.20118 -0.0844755 0)
(-0.189634 -0.0891595 0)
(-0.1768 -0.0927469 0)
(-0.162867 -0.0950243 0)
(-0.147849 -0.0956619 0)
(-0.132039 -0.0945017 0)
(-0.115621 -0.0913311 0)
(-0.0989378 -0.0860795 0)
(-0.082321 -0.0787701 0)
(-0.0663194 -0.0696791 0)
(-0.0514223 -0.0591813 0)
(-0.0379114 -0.0476276 0)
(-0.0260713 -0.0354675 0)
(-0.0161037 -0.0231951 0)
(-0.00809692 -0.0112979 0)
(-0.00201978 -0.000206853 0)
(0.00228692 0.00972661 0)
(0.00502158 0.0181964 0)
(0.00632627 0.0248372 0)
(0.00628671 0.0292031 0)
(0.00496537 0.0306832 0)
(0.00275339 0.0280642 0)
(0.000115485 0.0158136 0)
(0.00138906 -0.0151579 0)
(0.00378139 -0.0232632 0)
(0.00410877 -0.0207388 0)
(0.00323738 -0.0152938 0)
(0.00140137 -0.00908177 0)
(-0.00125678 -0.00279516 0)
(-0.00473769 0.0032828 0)
(-0.00909882 0.00903341 0)
(-0.0144404 0.0144546 0)
(-0.0208778 0.0196419 0)
(-0.0285212 0.0247612 0)
(-0.0374567 0.0300029 0)
(-0.0477262 0.0355281 0)
(-0.0593114 0.0414201 0)
(-0.0721146 0.0476695 0)
(-0.0859516 0.054126 0)
(-0.10048 0.0605306 0)
(-0.115339 0.066607 0)
(-0.130083 0.0719744 0)
(-0.144215 0.0763251 0)
(-0.157354 0.0794373 0)
(-0.169402 0.0813007 0)
(-0.180376 0.082022 0)
(-0.190337 0.0817513 0)
(-0.199376 0.0806251 0)
(-0.207581 0.078786 0)
(-0.215039 0.0763551 0)
(-0.221811 0.0734395 0)
(-0.227949 0.0701216 0)
(-0.23349 0.0664729 0)
(-0.23847 0.0625506 0)
(-0.24292 0.0584017 0)
(-0.246867 0.0540684 0)
(-0.25033 0.0495886 0)
(-0.253323 0.045001 0)
(-0.255852 0.0403393 0)
(-0.25803 0.0355278 0)
(-0.259855 0.0306345 0)
(-0.261332 0.0256606 0)
(-0.262462 0.0206071 0)
(-0.263233 0.0155238 0)
(-0.263656 0.010328 0)
(-0.263732 0.00503375 0)
(-0.263469 -0.00038181 0)
(-0.262862 -0.00592943 0)
(-0.261937 -0.0116227 0)
(-0.260677 -0.0174876 0)
(-0.259078 -0.023536 0)
(-0.257119 -0.0297755 0)
(-0.254774 -0.0362513 0)
(-0.252036 -0.0430282 0)
(-0.248874 -0.0500864 0)
(-0.245246 -0.0574116 0)
(-0.241093 -0.0649738 0)
(-0.236335 -0.072739 0)
(-0.230851 -0.0805003 0)
(-0.224358 -0.0880076 0)
(-0.21652 -0.0949571 0)
(-0.207007 -0.100906 0)
(-0.195841 -0.10566 0)
(-0.183368 -0.109183 0)
(-0.169372 -0.110908 0)
(-0.154167 -0.110654 0)
(-0.13789 -0.108107 0)
(-0.120888 -0.103148 0)
(-0.103468 -0.0957224 0)
(-0.0860867 -0.0859231 0)
(-0.0694563 -0.0742483 0)
(-0.0540863 -0.0612054 0)
(-0.0402984 -0.0472625 0)
(-0.0284019 -0.0330165 0)
(-0.0185935 -0.0190862 0)
(-0.0109233 -0.0060442 0)
(-0.00527824 0.0056519 0)
(-0.0014221 0.0156515 0)
(0.000923269 0.0236666 0)
(0.00195893 0.0292932 0)
(0.0018312 0.0318659 0)
(0.000874001 0.0297693 0)
(-0.000268944 0.0166118 0)
(0.00128865 -0.0175239 0)
(0.00231893 -0.0239447 0)
(0.00132903 -0.0198111 0)
(-0.000773024 -0.013307 0)
(-0.0037467 -0.00625083 0)
(-0.00752175 0.000853608 0)
(-0.012144 0.00780319 0)
(-0.0177046 0.0145183 0)
(-0.024313 0.0210146 0)
(-0.0320734 0.0273861 0)
(-0.0410685 0.0337763 0)
(-0.0513401 0.0403314 0)
(-0.0628676 0.0471456 0)
(-0.0755751 0.054236 0)
(-0.0892675 0.0614758 0)
(-0.103574 0.0686015 0)
(-0.118146 0.0752771 0)
(-0.132507 0.0811381 0)
(-0.146118 0.0858289 0)
(-0.158754 0.0891812 0)
(-0.170306 0.091191 0)
(-0.180805 0.0920002 0)
(-0.190317 0.0917369 0)
(-0.198938 0.0905683 0)
(-0.206752 0.0886309 0)
(-0.213837 0.0860593 0)
(-0.220252 0.0829568 0)
(-0.226041 0.0794161 0)
(-0.231238 0.0755105 0)
(-0.235873 0.071306 0)
(-0.239977 0.0668573 0)
(-0.243577 0.0622129 0)
(-0.246696 0.0574166 0)
(-0.249384 0.0524834 0)
(-0.251702 0.0474302 0)
(-0.253672 0.0422851 0)
(-0.255262 0.0371288 0)
(-0.256477 0.0319153 0)
(-0.257339 0.0266419 0)
(-0.257867 0.0213048 0)
(-0.258105 0.0159019 0)
(-0.258088 0.0104141 0)
(-0.257842 0.00483819 0)
(-0.257392 -0.000847622 0)
(-0.256753 -0.00666028 0)
(-0.25589 -0.0126296 0)
(-0.25483 -0.0187865 0)
(-0.253565 -0.0251595 0)
(-0.252096 -0.031773 0)
(-0.250411 -0.0386439 0)
(-0.248492 -0.0457829 0)
(-0.246306 -0.0531931 0)
(-0.243806 -0.0608635 0)
(-0.240929 -0.0687548 0)
(-0.23758 -0.0767919 0)
(-0.233671 -0.0850638 0)
(-0.229185 -0.0935117 0)
(-0.223933 -0.101909 0)
(-0.217665 -0.10984 0)
(-0.209897 -0.116773 0)
(-0.199846 -0.121869 0)
(-0.187765 -0.12501 0)
(-0.174008 -0.126126 0)
(-0.158587 -0.124712 0)
(-0.141864 -0.120567 0)
(-0.124191 -0.11358 0)
(-0.1059 -0.103672 0)
(-0.0876565 -0.0911585 0)
(-0.0703121 -0.0767438 0)
(-0.0544416 -0.0611028 0)
(-0.0404068 -0.0448381 0)
(-0.0285371 -0.0287071 0)
(-0.019009 -0.0134515 0)
(-0.0118085 0.000289728 0)
(-0.00672198 0.012044 0)
(-0.00338895 0.0215115 0)
(-0.00145601 0.0283562 0)
(-0.000607423 0.0318535 0)
(-0.000462612 0.030177 0)
(-0.00038887 0.0164701 0)
(0.00103362 -0.0188325 0)
(0.000577875 -0.0232151 0)
(-0.00175235 -0.0175821 0)
(-0.00503198 -0.0101547 0)
(-0.00913385 -0.0022943 0)
(-0.0140304 0.00563817 0)
(-0.0197942 0.0134979 0)
(-0.0265326 0.0212277 0)
(-0.0343471 0.0288406 0)
(-0.0433159 0.0364102 0)
(-0.0534799 0.0440403 0)
(-0.0648217 0.0518154 0)
(-0.0772816 0.0597699 0)
(-0.0906873 0.0678071 0)
(-0.104672 0.0756561 0)
(-0.118845 0.0829725 0)
(-0.13276 0.0893822 0)
(-0.145933 0.0945093 0)
(-0.158133 0.0982063 0)
(-0.169279 0.100496 0)
(-0.179371 0.101472 0)
(-0.188499 0.10131 0)
(-0.196744 0.100167 0)
(-0.204193 0.0982006 0)
(-0.21091 0.0955381 0)
(-0.216948 0.0922956 0)
(-0.222347 0.0885639 0)
(-0.22714 0.0844274 0)
(-0.231358 0.0799561 0)
(-0.235034 0.0752144 0)
(-0.238203 0.0702568 0)
(-0.2409 0.0651313 0)
(-0.243166 0.0598772 0)
(-0.245023 0.0545402 0)
(-0.246477 0.0491453 0)
(-0.24758 0.0436904 0)
(-0.248343 0.0381957 0)
(-0.248829 0.0326559 0)
(-0.249079 0.027086 0)
(-0.249136 0.0214873 0)
(-0.248999 0.0158559 0)
(-0.24869 0.0101718 0)
(-0.248225 0.00442022 0)
(-0.247622 -0.00142324 0)
(-0.246884 -0.00738117 0)
(-0.246019 -0.013488 0)
(-0.245048 -0.0197701 0)
(-0.243978 -0.026261 0)
(-0.242817 -0.0329923 0)
(-0.241567 -0.0399973 0)
(-0.240228 -0.0473061 0)
(-0.23879 -0.0549422 0)
(-0.237231 -0.0629187 0)
(-0.235507 -0.0712259 0)
(-0.233545 -0.0798193 0)
(-0.231254 -0.0886125 0)
(-0.228516 -0.0974885 0)
(-0.225153 -0.106281 0)
(-0.220994 -0.115047 0)
(-0.215956 -0.123574 0)
(-0.209621 -0.131217 0)
(-0.201346 -0.137126 0)
(-0.190128 -0.14011 0)
(-0.176604 -0.1404 0)
(-0.161007 -0.137658 0)
(-0.143809 -0.131751 0)
(-0.125319 -0.122439 0)
(-0.106065 -0.109814 0)
(-0.0868696 -0.0943855 0)
(-0.068767 -0.077116 0)
(-0.0524244 -0.0588817 0)
(-0.0382414 -0.0404422 0)
(-0.0265518 -0.0227271 0)
(-0.017483 -0.00659125 0)
(-0.0109233 0.00727873 0)
(-0.00651116 0.018438 0)
(-0.00373713 0.0265746 0)
(-0.0021518 0.0308548 0)
(-0.00116804 0.0296126 0)
(-0.000366108 0.0158694 0)
(0.000706315 -0.0191556 0)
(-0.00133943 -0.0210747 0)
(-0.00493707 -0.0141264 0)
(-0.00935638 -0.00584865 0)
(-0.0145695 0.00278169 0)
(-0.020562 0.0115429 0)
(-0.0274271 0.0203315 0)
(-0.0352705 0.0290905 0)
(-0.0441729 0.0378111 0)
(-0.0541757 0.0465294 0)
(-0.0652674 0.0552951 0)
(-0.0774011 0.0641411 0)
(-0.0904325 0.0730001 0)
(-0.104026 0.0816076 0)
(-0.117773 0.0896084 0)
(-0.131242 0.0966293 0)
(-0.144028 0.102319 0)
(-0.155863 0.10649 0)
(-0.166657 0.109153 0)
(-0.176412 0.110407 0)
(-0.185198 0.110424 0)
(-0.193105 0.109384 0)
(-0.200201 0.107443 0)
(-0.206549 0.104739 0)
(-0.212191 0.101388 0)
(-0.217165 0.0974943 0)
(-0.221502 0.0931442 0)
(-0.22524 0.0884214 0)
(-0.228414 0.0833988 0)
(-0.231067 0.078143 0)
(-0.233242 0.0727113 0)
(-0.234982 0.0671524 0)
(-0.236333 0.0615049 0)
(-0.237334 0.0558002 0)
(-0.238027 0.050061 0)
(-0.238462 0.0443033 0)
(-0.238668 0.0385454 0)
(-0.238684 0.0327895 0)
(-0.238532 0.0270353 0)
(-0.238234 0.0212739 0)
(-0.237802 0.0154945 0)
(-0.237255 0.00967888 0)
(-0.236606 0.00380866 0)
(-0.235868 -0.00213919 0)
(-0.235052 -0.00818789 0)
(-0.234172 -0.0143699 0)
(-0.233243 -0.0207133 0)
(-0.232279 -0.0272507 0)
(-0.231296 -0.0340146 0)
(-0.230307 -0.04104 0)
(-0.229323 -0.048361 0)
(-0.228353 -0.0560092 0)
(-0.227398 -0.0640119 0)
(-0.226443 -0.0723873 0)
(-0.225455 -0.0811414 0)
(-0.224374 -0.0902587 0)
(-0.223107 -0.0996703 0)
(-0.221508 -0.109234 0)
(-0.21939 -0.11872 0)
(-0.216506 -0.127859 0)
(-0.212538 -0.136528 0)
(-0.207358 -0.144581 0)
(-0.200348 -0.150885 0)
(-0.190431 -0.15417 0)
(-0.177146 -0.153496 0)
(-0.161438 -0.149413 0)
(-0.143614 -0.141468 0)
(-0.124192 -0.129591 0)
(-0.103885 -0.114022 0)
(-0.083696 -0.0954995 0)
(-0.0648652 -0.0753071 0)
(-0.0481623 -0.0545537 0)
(-0.0340175 -0.0341921 0)
(-0.0227353 -0.0153269 0)
(-0.0143527 0.00108875 0)
(-0.00860856 0.0143582 0)
(-0.00491384 0.0240394 0)
(-0.00274319 0.0291674 0)
(-0.00125222 0.0284532 0)
(-0.000195176 0.0150409 0)
(0.000116629 -0.0182838 0)
(-0.00334699 -0.0175893 0)
(-0.00810287 -0.00946152 0)
(-0.0136078 -0.000427946 0)
(-0.0198833 0.00893606 0)
(-0.0269126 0.0185143 0)
(-0.0347959 0.0282231 0)
(-0.043627 0.0379855 0)
(-0.053456 0.047754 0)
(-0.0642796 0.0575149 0)
(-0.0760603 0.0672727 0)
(-0.0886812 0.0769768 0)
(-0.101849 0.0863789 0)
(-0.115166 0.0951245 0)
(-0.128222 0.102839 0)
(-0.140658 0.109194 0)
(-0.152197 0.11397 0)
(-0.162696 0.117118 0)
(-0.172168 0.118754 0)
(-0.180663 0.119042 0)
(-0.188262 0.118175 0)
(-0.195032 0.116319 0)
(-0.201021 0.113616 0)
(-0.206274 0.110192 0)
(-0.210822 0.106157 0)
(-0.214705 0.101611 0)
(-0.217964 0.0966477 0)
(-0.220647 0.0913536 0)
(-0.222808 0.0858062 0)
(-0.224503 0.080075 0)
(-0.225787 0.0742177 0)
(-0.226715 0.0682821 0)
(-0.227337 0.0623051 0)
(-0.2277 0.0563155 0)
(-0.227848 0.050334 0)
(-0.227816 0.0443748 0)
(-0.227632 0.0384466 0)
(-0.227316 0.0325451 0)
(-0.226888 0.0266641 0)
(-0.226359 0.0207918 0)
(-0.225742 0.0149139 0)
(-0.225049 0.00901266 0)
(-0.224291 0.00306862 0)
(-0.223478 -0.00294042 0)
(-0.222622 -0.00903836 0)
(-0.221734 -0.0152541 0)
(-0.220831 -0.0216159 0)
(-0.219928 -0.0281552 0)
(-0.219043 -0.0349041 0)
(-0.218194 -0.0418971 0)
(-0.217403 -0.0491691 0)
(-0.216687 -0.0567545 0)
(-0.216062 -0.0646848 0)
(-0.215537 -0.0729876 0)
(-0.215108 -0.0816843 0)
(-0.214757 -0.0907856 0)
(-0.214436 -0.10028 0)
(-0.214057 -0.110122 0)
(-0.213478 -0.120207 0)
(-0.212485 -0.130311 0)
(-0.210792 -0.140066 0)
(-0.208027 -0.149023 0)
(-0.203765 -0.157077 0)
(-0.19768 -0.16359 0)
(-0.188753 -0.166903 0)
(-0.175789 -0.165442 0)
(-0.159851 -0.159828 0)
(-0.141251 -0.149596 0)
(-0.120784 -0.134884 0)
(-0.0993542 -0.116125 0)
(-0.078207 -0.0943555 0)
(-0.0587813 -0.0712328 0)
(-0.0419475 -0.0481412 0)
(-0.0281343 -0.0262642 0)
(-0.0175641 -0.00687973 0)
(-0.0101311 0.00901275 0)
(-0.00530462 0.0206899 0)
(-0.00252753 0.0270653 0)
(-0.000823533 0.0271349 0)
(6.1179e-05 0.0144538 0)
(-0.000471269 -0.0161562 0)
(-0.00530397 -0.0128077 0)
(-0.0111295 -0.00367245 0)
(-0.0176519 0.0060379 0)
(-0.0249151 0.0160949 0)
(-0.0328916 0.0264624 0)
(-0.0416787 0.0370536 0)
(-0.0513498 0.0477547 0)
(-0.0619185 0.0584684 0)
(-0.0733551 0.0691364 0)
(-0.0855655 0.079698 0)
(-0.0983021 0.0899195 0)
(-0.111201 0.0994651 0)
(-0.123883 0.107958 0)
(-0.136011 0.115074 0)
(-0.147306 0.120571 0)
(-0.157584 0.124337 0)
(-0.166826 0.126462 0)
(-0.175085 0.127123 0)
(-0.182421 0.126507 0)
(-0.1889 0.124798 0)
(-0.194567 0.122148 0)
(-0.199461 0.11869 0)
(-0.203621 0.114547 0)
(-0.207089 0.109831 0)
(-0.209917 0.104652 0)
(-0.212166 0.0991088 0)
(-0.213901 0.0932938 0)
(-0.215191 0.0872874 0)
(-0.216101 0.0811581 0)
(-0.216691 0.0749612 0)
(-0.217017 0.0687399 0)
(-0.217128 0.0625256 0)
(-0.217064 0.0563409 0)
(-0.216859 0.0501997 0)
(-0.216536 0.0441082 0)
(-0.216116 0.0380668 0)
(-0.215611 0.0320679 0)
(-0.215032 0.0261019 0)
(-0.214388 0.0201553 0)
(-0.213686 0.0142125 0)
(-0.212932 0.00825545 0)
(-0.212134 0.00226469 0)
(-0.2113 -0.00378127 0)
(-0.210437 -0.00990547 0)
(-0.209559 -0.0161337 0)
(-0.208677 -0.0224924 0)
(-0.207809 -0.0290107 0)
(-0.206973 -0.0357187 0)
(-0.206191 -0.0426492 0)
(-0.205488 -0.0498359 0)
(-0.204888 -0.057314 0)
(-0.204416 -0.0651185 0)
(-0.204093 -0.073283 0)
(-0.203936 -0.0818378 0)
(-0.20395 -0.0908057 0)
(-0.204123 -0.100196 0)
(-0.204417 -0.109998 0)
(-0.204756 -0.120174 0)
(-0.205002 -0.13063 0)
(-0.204938 -0.141189 0)
(-0.204247 -0.151501 0)
(-0.202514 -0.160985 0)
(-0.199179 -0.169009 0)
(-0.193736 -0.175417 0)
(-0.185366 -0.178491 0)
(-0.172631 -0.176199 0)
(-0.156253 -0.168799 0)
(-0.136726 -0.155984 0)
(-0.1151 -0.138106 0)
(-0.0925375 -0.115886 0)
(-0.0705718 -0.0907438 0)
(-0.0508308 -0.064793 0)
(-0.0342424 -0.0397052 0)
(-0.0211767 -0.0169588 0)
(-0.011713 0.00207877 0)
(-0.0054674 0.0163583 0)
(-0.00193588 0.0246159 0)
(-0.000115584 0.0259361 0)
(0.00035818 0.0143542 0)
(-0.00106298 -0.0128564 0)
(-0.0071378 -0.00684659 0)
(-0.0139246 0.00316122 0)
(-0.0213719 0.0134672 0)
(-0.029528 0.0241647 0)
(-0.0383382 0.0352717 0)
(-0.0478918 0.0466791 0)
(-0.0582377 0.0582225 0)
(-0.0693616 0.069756 0)
(-0.0811874 0.0811655 0)
(-0.0935084 0.0922133 0)
(-0.106014 0.102596 0)
(-0.118363 0.111939 0)
(-0.130224 0.119906 0)
(-0.141323 0.126229 0)
(-0.151447 0.130744 0)
(-0.16053 0.133484 0)
(-0.168608 0.134621 0)
(-0.175742 0.134351 0)
(-0.181984 0.132864 0)
(-0.187383 0.130328 0)
(-0.191977 0.126888 0)
(-0.195807 0.122681 0)
(-0.198925 0.117835 0)
(-0.201393 0.112473 0)
(-0.203285 0.106713 0)
(-0.204676 0.100661 0)
(-0.205644 0.0944098 0)
(-0.206263 0.0880371 0)
(-0.206599 0.0816058 0)
(-0.206709 0.0751639 0)
(-0.206641 0.0687462 0)
(-0.206436 0.0623761 0)
(-0.206122 0.0560674 0)
(-0.205723 0.0498262 0)
(-0.205255 0.043652 0)
(-0.204727 0.0375396 0)
(-0.204148 0.0314791 0)
(-0.203521 0.0254579 0)
(-0.202849 0.0194611 0)
(-0.202136 0.013473 0)
(-0.201384 0.00747586 0)
(-0.200597 0.00145059 0)
(-0.199779 -0.00462284 0)
(-0.198937 -0.0107656 0)
(-0.198081 -0.0170006 0)
(-0.197221 -0.0233515 0)
(-0.196375 -0.0298441 0)
(-0.195561 -0.0365056 0)
(-0.194801 -0.0433654 0)
(-0.194121 -0.0504548 0)
(-0.19355 -0.0578073 0)
(-0.193118 -0.0654585 0)
(-0.192856 -0.0734449 0)
(-0.19279 -0.0818032 0)
(-0.192944 -0.0905668 0)
(-0.193326 -0.0997621 0)
(-0.193929 -0.109402 0)
(-0.194719 -0.119475 0)
(-0.195621 -0.129938 0)
(-0.196502 -0.140697 0)
(-0.197146 -0.151582 0)
(-0.197221 -0.162283 0)
(-0.196264 -0.172226 0)
(-0.193676 -0.180552 0)
(-0.188684 -0.18656 0)
(-0.180496 -0.189076 0)
(-0.16773 -0.185712 0)
(-0.150669 -0.176197 0)
(-0.130049 -0.160387 0)
(-0.107193 -0.138952 0)
(-0.083571 -0.112962 0)
(-0.0610875 -0.0843958 0)
(-0.0414899 -0.0558957 0)
(-0.0257036 -0.0294204 0)
(-0.0139417 -0.00671604 0)
(-0.00600296 0.0108095 0)
(-0.00148969 0.0216899 0)
(0.000565828 0.0248864 0)
(0.000567239 0.0147037 0)
(-0.0016242 -0.00845576 0)
(-0.00878107 0.000172682 0)
(-0.0164186 0.0109332 0)
(-0.0246881 0.0217558 0)
(-0.0336176 0.0330303 0)
(-0.0431286 0.044809 0)
(-0.0532987 0.0569428 0)
(-0.0641505 0.0692168 0)
(-0.0756328 0.0814198 0)
(-0.0875678 0.0932803 0)
(-0.0997122 0.10451 0)
(-0.111766 0.114754 0)
(-0.123401 0.123643 0)
(-0.134351 0.130889 0)
(-0.144381 0.136274 0)
(-0.153378 0.139764 0)
(-0.161348 0.141497 0)
(-0.168346 0.141677 0)
(-0.174421 0.140503 0)
(-0.179621 0.138156 0)
(-0.183986 0.1348 0)
(-0.187562 0.130585 0)
(-0.190409 0.125656 0)
(-0.1926 0.120155 0)
(-0.194216 0.114217 0)
(-0.195345 0.107962 0)
(-0.196073 0.101496 0)
(-0.196479 0.0949086 0)
(-0.196633 0.088268 0)
(-0.196595 0.0816278 0)
(-0.196413 0.0750255 0)
(-0.196125 0.0684861 0)
(-0.195758 0.0620235 0)
(-0.195333 0.0556437 0)
(-0.194864 0.049346 0)
(-0.194356 0.0431247 0)
(-0.193815 0.03697 0)
(-0.193242 0.0308702 0)
(-0.192636 0.0248118 0)
(-0.191996 0.0187782 0)
(-0.191321 0.0127535 0)
(-0.190612 0.00672166 0)
(-0.189868 0.000664423 0)
(-0.189092 -0.00543622 0)
(-0.188288 -0.0115994 0)
(-0.187465 -0.0178449 0)
(-0.186633 -0.0241933 0)
(-0.185805 -0.0306666 0)
(-0.184999 -0.0372884 0)
(-0.184237 -0.0440839 0)
(-0.183544 -0.0510811 0)
(-0.182951 -0.0583102 0)
(-0.18249 -0.0658047 0)
(-0.182197 -0.0736011 0)
(-0.182107 -0.0817384 0)
(-0.182253 -0.0902569 0)
(-0.182662 -0.0991952 0)
(-0.183349 -0.108586 0)
(-0.184307 -0.118448 0)
(-0.1855 -0.128776 0)
(-0.186848 -0.139522 0)
(-0.188212 -0.150579 0)