# vtk DataFile Version 2.0
tracks
ASCII
DATASET POLYDATA
POINTS 13020 float
-0.0206 0.000999964 1e-05 -0.02058 0.000999966 1e-05 -0.02056 0.000999971 1e-05 -0.02054 0.000999978
1e-05 -0.02052 0.000999988 1e-05 -0.0205 0.001 1e-05 -0.0202034 0.00100018 1e-05
-0.0199069 0.00100063 1e-05 -0.0196103 0.00100135 1e-05 -0.0193137 0.00100232 1e-05 -0.0190172
0.00100355 1e-05 -0.0187132 0.00100502 1e-05 -0.0184093 0.00100656 1e-05 -0.0181054 0.00100816
1e-05 -0.0178015 0.00100984 1e-05 -0.0174976 0.00101159 1e-05 -0.0172058 0.00101333 1e-05
-0.016914 0.0010151 1e-05 -0.0166222 0.00101691 1e-05 -0.0163305 0.00101875 1e-05 -0.0160387
0.00102064 1e-05 -0.0158511 0.00102187 1e-05 -0.0156635 0.00102312 1e-05 -0.0154759 0.00102438
1e-05 -0.0152882 0.00102565 1e-05 -0.015117 0.00102682 1e-05 -0.0150212 0.00102748 1e-05
-0.0149254 0.00102814 1e-05 -0.0148297 0.00102881 1e-05 -0.0147339 0.00102948 1e-05 -0.0146381
0.00103015 1e-05 -0.0143692 0.00103205 1e-05 -0.0141002 0.00103396 1e-05 -0.0138313 0.00103589
1e-05 -0.0135624 0.00103783 1e-05 -0.0132934 0.00103979 1e-05 -0.0130353 0.0010417 1e-05
-0.0127771 0.00104359 1e-05 -0.0125189 0.0010455 1e-05 -0.0122607 0.0010474 1e-05 -0.0120025
0.0010493 1e-05 -0.0117547 0.00105114 1e-05 -0.0115068 0.00105297 1e-05 -0.0112589 0.00105479
1e-05 -0.0110111 0.00105661 1e-05 -0.0107632 0.00105842 1e-05 -0.0105252 0.00106017 1e-05
-0.0102873 0.0010619 1e-05 -0.0100493 0.00106362 1e-05 -0.00981133 0.00106533 1e-05 -0.00957337
0.00106704 1e-05 -0.00934491 0.00106869 1e-05 -0.00911645 0.00107031 1e-05 -0.00888799 0.00107193
1e-05 -0.00865954 0.00107353 1e-05 -0.00843108 0.00107513 1e-05 -0.00821175 0.00107667 1e-05
-0.00799242 0.00107818 1e-05 -0.00777309 0.00107968 1e-05 -0.00755376 0.00108117 1e-05 -0.00733443
0.00108264 1e-05 -0.00712387 0.00108406 1e-05 -0.0069133 0.00108544 1e-05 -0.00670273 0.0010868
1e-05 -0.00649216 0.00108814 1e-05 -0.0062816 0.00108947 1e-05 -0.00607944 0.00109074 1e-05
-0.00587729 0.00109197 1e-05 -0.00567514 0.00109317 1e-05 -0.00547298 0.00109436 1e-05 -0.00527083
0.00109552 1e-05 -0.00507675 0.00109665 1e-05 -0.00488267 0.00109773 1e-05 -0.0046886 0.0010988
1e-05 -0.00449452 0.00109984 1e-05 -0.00430044 0.00110087 1e-05 -0.00411412 0.00110187 1e-05
-0.0039278 0.00110283 1e-05 -0.00374147 0.00110378 1e-05 -0.00355515 0.00110471 1e-05 -0.00336883
0.00110562 1e-05 -0.00318995 0.0011065 1e-05 -0.00301107 0.00110735 1e-05 -0.00283219 0.00110817
1e-05 -0.00265331 0.00110898 1e-05 -0.00247443 0.00110977 1e-05 -0.0023027 0.00111053 1e-05
-0.00213097 0.00111125 1e-05 -0.00195924 0.00111194 1e-05 -0.0017875 0.00111261 1e-05 -0.00161577
0.00111326 1e-05 -0.0014509 0.00111388 1e-05 -0.00128603 0.00111445 1e-05 -0.00112116 0.00111499
1e-05 -0.000956289 0.00111551 1e-05 -0.000791418 0.00111599 1e-05 -0.000633135 0.00111644 1e-05
-0.000474851 0.00111685 1e-05 -0.000316567 0.00111723 1e-05 -0.000158283 0.00111757 1e-05 0
0.00111789 1e-05 0.000105677 0.0011181 1e-05 0.000211355 0.00111828 1e-05 0.000317032 0.00111846
1e-05 0.00042271 0.00111862 1e-05 0.000528387 0.00111877 1e-05 0.000634886 0.00111891 1e-05
0.000741385 0.00111905 1e-05 0.000847885 0.00111917 1e-05 0.000954384 0.00111929 1e-05 0.00106088
0.00111941 1e-05 0.00116821 0.00111953 1e-05 0.00127554 0.00111963 1e-05 0.00138286 0.00111974
1e-05 0.00149019 0.00111984 1e-05 0.00159752 0.00111993 1e-05 0.00170568 0.00112004 1e-05
0.00181384 0.00112013 1e-05 0.001922 0.00112022 1e-05 0.00203016 0.0011203 1e-05 0.00213833
0.00112038 1e-05 0.00224733 0.00112047 1e-05 0.00235633 0.00112055 1e-05 0.00246533 0.00112063
1e-05 0.00257434 0.00112071 1e-05 0.00268334 0.00112079 1e-05 0.00279319 0.00112087 1e-05
0.00290304 0.00112096 1e-05 0.00301289 0.00112104 1e-05 0.00312274 0.00112112 1e-05 0.00323259
0.00112121 1e-05 0.00334329 0.0011213 1e-05 0.003454 0.00112139 1e-05 0.0035647 0.00112149
1e-05 0.0036754 0.00112159 1e-05 0.00378611 0.00112169 1e-05 0.00389767 0.00112179 1e-05
0.00400924 0.0011219 1e-05 0.0041208 0.00112202 1e-05 0.00423237 0.00112214 1e-05 0.00434393
0.00112226 1e-05 0.00445636 0.00112238 1e-05 0.00456879 0.00112251 1e-05 0.00468123 0.00112265
1e-05 0.00479366 0.00112278 1e-05 0.00490609 0.00112293 1e-05 0.0050194 0.00112307 1e-05
0.0051327 0.00112322 1e-05 0.00524601 0.00112338 1e-05 0.00535931 0.00112354 1e-05 0.00547262
0.0011237 1e-05 0.00558681 0.00112387 1e-05 0.005701 0.00112404 1e-05 0.00581518 0.00112422
1e-05 0.00592937 0.0011244 1e-05 0.00604356 0.00112459 1e-05 0.00615863 0.00112478 1e-05
0.00627371 0.00112497 1e-05 0.00638878 0.00112517 1e-05 0.00650386 0.00112537 1e-05 0.00661893
0.00112558 1e-05 0.0067349 0.00112579 1e-05 0.00685087 0.00112601 1e-05 0.00696684 0.00112623
1e-05 0.00708281 0.00112646 1e-05 0.00719878 0.00112669 1e-05 0.00731565 0.00112693 1e-05
0.00743252 0.00112717 1e-05 0.00754939 0.00112742 1e-05 0.00766626 0.00112767 1e-05 0.00778313
0.00112792 1e-05 0.00790091 0.00112818 1e-05 0.00801869 0.00112845 1e-05 0.00813647 0.00112872
1e-05 0.00825425 0.001129 1e-05 0.00837203 0.00112928 1e-05 0.00849073 0.00112957 1e-05
0.00860942 0.00112986 1e-05 0.00872812 0.00113016 1e-05 0.00884682 0.00113046 1e-05 0.00896551
0.00113077 1e-05 0.00899383 0.00113085 1e-05 0.00902215 0.00113092 1e-05 0.00905047 0.001131
1e-05 0.00907879 0.00113107 1e-05 0.00910748 0.00113115 1e-05 0.0091987 0.00113139 1e-05
0.00928993 0.00113164 1e-05 0.00938115 0.00113189 1e-05 0.00947238 0.00113215 1e-05 0.0095636
0.00113241 1e-05 0.00968415 0.00113275 1e-05 0.0098047 0.0011331 1e-05 0.00992525 0.00113345
1e-05 0.0100458 0.00113381 1e-05 0.0101663 0.00113418 1e-05 0.0102878 0.00113454 1e-05
0.0104093 0.00113492 1e-05 0.0105308 0.0011353 1e-05 0.0106523 0.00113569 1e-05 0.0107738
0.00113608 1e-05 0.0108962 0.00113647 1e-05 0.0110186 0.00113687 1e-05 0.0111411 0.00113728
1e-05 0.0112635 0.00113769 1e-05 0.0113859 0.00113811 1e-05 0.0115093 0.00113852 1e-05
0.0116327 0.00113894 1e-05 0.0117561 0.00113937 1e-05 0.0118795 0.0011398 1e-05 0.0120028
0.00114023 1e-05 0.0121272 0.00114066 1e-05 0.0122515 0.0011411 1e-05 0.0123759 0.00114154
1e-05 0.0125002 0.00114198 1e-05 0.0126245 0.00114243 1e-05 0.0127498 0.00114286 1e-05
0.0128752 0.00114331 1e-05 0.0130005 0.00114375 1e-05 0.0131258 0.00114419 1e-05 0.0132511
0.00114463 1e-05 0.0133774 0.00114506 1e-05 0.0135036 0.00114549 1e-05 0.0136299 0.00114591
1e-05 0.0137562 0.00114633 1e-05 0.0138825 0.00114674 1e-05 0.0140098 0.00114715 1e-05
0.014137 0.00114754 1e-05 0.0142643 0.00114793 1e-05 0.0143915 0.0011483 1e-05 0.0145188
0.00114866 1e-05 0.0146471 0.00114901 1e-05 0.0147753 0.00114934 1e-05 0.0149036 0.00114965
1e-05 0.0150318 0.00114994 1e-05 0.0151601 0.00115022 1e-05 0.0152893 0.00115047 1e-05
0.0154186 0.0011507 1e-05 0.0155478 0.0011509 1e-05 0.0156771 0.00115107 1e-05 0.0158063
0.0011512 1e-05 0.0159366 0.00115132 1e-05 0.0160668 0.0011514 1e-05 0.0161971 0.00115143
1e-05 0.0163274 0.00115141 1e-05 0.0164576 0.00115136 1e-05 0.0165889 0.00115128 1e-05
0.0167201 0.00115113 1e-05 0.0168514 0.00115093 1e-05 0.0169827 0.00115067 1e-05 0.0171139
0.00115035 1e-05 0.0172462 0.00114999 1e-05 0.0173785 0.00114955 1e-05 0.0175108 0.00114903
1e-05 0.0176431 0.00114844 1e-05 0.0177754 0.00114777 1e-05 0.0179087 0.00114705 1e-05
0.018042 0.00114622 1e-05 0.0181753 0.0011453 1e-05 0.0183087 0.00114427 1e-05 0.018442
0.00114315 1e-05 0.0185763 0.00114197 1e-05 0.0187107 0.00114065 1e-05 0.018845 0.0011392
1e-05 0.0189794 0.00113764 1e-05 0.0191137 0.00113596 1e-05 0.0192491 0.00113419 1e-05
0.0193845 0.00113225 1e-05 0.0195199 0.00113017 1e-05 0.0196553 0.00112793 1e-05 0.0197907
0.00112556 1e-05 0.0199272 0.00112307 1e-05 0.0200636 0.00112039 1e-05 0.0202001 0.00111751
1e-05 0.0203365 0.00111446 1e-05 0.020473 0.00111126 1e-05 0.0206105 0.00110791 1e-05
0.020748 0.00110432 1e-05 0.0208855 0.0011005 1e-05 0.021023 0.00109648 1e-05 0.0211606
0.00109229 1e-05 0.0212991 0.00108791 1e-05 0.0214377 0.00108326 1e-05 0.0215763 0.00107834
1e-05 0.0217148 0.00107318 1e-05 0.0218535 0.00106783 1e-05 0.0219931 0.00106225 1e-05
0.0221328 0.00105636 1e-05 0.0222724 0.00105016 1e-05 0.022412 0.00104369 1e-05 0.0225517
0.001037 1e-05 0.0226925 0.00103003 1e-05 0.0228332 0.00102271 1e-05 0.0229739 0.00101505
1e-05 0.0231146 0.00100708 1e-05 0.0232555 0.000998852 1e-05 0.0233973 0.000990299 1e-05
0.0235391 0.000981363 1e-05 0.0236809 0.000972066 1e-05 0.0238227 0.000962433 1e-05 0.0239647
0.000952462 1e-05 0.0241076 0.000942119 1e-05 0.0242505 0.000931361 1e-05 0.0243934 0.000920228
1e-05 0.0245362 0.000908721 1e-05 0.0246794 0.000896814 1e-05 0.0247755 0.000888579 1e-05
0.0248715 0.000880154 1e-05 0.0249676 0.000871547 1e-05 0.0250636 0.000862759 1e-05 0.0251413
0.000855498 1e-05 0.025193 0.000850592 1e-05 0.0252446 0.000845634 1e-05 0.0252963 0.000840623
1e-05 0.0253479 0.00083556 1e-05 0.0253996 0.00083044 1e-05 0.0255448 0.00081592 1e-05
0.0256899 0.000800945 1e-05 0.025835 0.000785536 1e-05 0.02598 0.00076969 1e-05 0.0261255
0.000753355 1e-05 0.0262718 0.000736516 1e-05 0.026418 0.000719161 1e-05 0.0265642 0.000701313
1e-05 0.0267103 0.000683002 1e-05 0.026857 0.000664185 1e-05 0.0270044 0.000644825 1e-05
0.0271518 0.000624929 1e-05 0.0272991 0.000604495 1e-05 0.0274463 0.000583552 1e-05 0.0275942
0.000562051 1e-05 0.0277428 0.000539972 1e-05 0.0278913 0.000517344 1e-05 0.0280397 0.000494192
1e-05 0.028188 0.000470519 1e-05 0.0283371 0.000446187 1e-05 0.0283558 0.000443077 1e-05
0.0283744 0.000439958 1e-05 0.028393 0.000436831 1e-05 0.0284117 0.000433696 1e-05 0.0284298
0.000430634 1e-05 0.028561 0.000408452 1e-05 0.0286922 0.000385854 1e-05 0.0288232 0.000362836
1e-05 0.0289542 0.000339394 1e-05 0.0290858 0.000315396 1e-05 0.0292367 0.000287402 1e-05
0.0293875 0.000258805 1e-05 0.0295382 0.0002296 1e-05 0.0296888 0.000199839 1e-05 0.0298403
0.000169318 1e-05 0.0299924 0.000138122 1e-05 0.0301444 0.000106321 1e-05 0.0302962 7.39296e-05
1e-05 0.0304479 4.09534e-05 1e-05 0.0306007 7.10483e-06 1e-05 0.030607 5.68387e-06 1e-05
[...]
POINT_DATA 13020
FIELD attributes 4
age 1 13020 float
-9.9995e-06 -7.99954e-06 -5.9996e-06 -3.9997e-06 -1.99983e-06 0 2.96543e-05 5.92957e-05 8.89239e-05 0.000118539 0.000148141
0.000178443 0.000208737 0.000239008 0.000269254 0.000299477 0.000328451 0.000357418 0.000386365 0.00041529 0.000444196
0.000462763 0.000481328 0.000499885 0.000518435 0.000535359 0.000544823 0.000554284 0.000563745 0.000573203 0.000582659
0.000609202 0.00063573 0.000662243 0.000688739 0.000715219 0.000740623 0.000766017 0.000791397 0.000816763 0.000842114
0.000866432 0.000890748 0.000915052 0.000939345 0.000963625 0.000986913 0.00101021 0.00103349 0.00105676 0.00108003
0.00110234 0.00112466 0.00114698 0.00116928 0.00119158 0.00121296 0.00123436 0.00125575 0.00127713 0.00129851
0.00131901 0.00133952 0.00136003 0.00138053 0.00140103 0.00142069 0.00144036 0.00146002 0.00147969 0.00149935
0.0015182 0.00153707 0.00155594 0.00157481 0.00159367 0.00161176 0.00162986 0.00164797 0.00166607 0.00168417
0.00170152 0.00171889 0.00173626 0.00175363 0.001771 0.00178766 0.00180433 0.00182099 0.00183766 0.00185433
0.00187032 0.00188632 0.00190231 0.00191831 0.00193431 0.00194966 0.00196502 0.00198037 0.00199573 0.00201109
0.00202135 0.0020316 0.00204186 0.00205212 0.00206238 0.00207272 0.00208306 0.0020934 0.00210375 0.00211409
0.00212452 0.00213495 0.00214538 0.00215581 0.00216624 0.00217676 0.00218728 0.00219779 0.00220831 0.00221883
0.00222944 0.00224005 0.00225065 0.00226126 0.00227187 0.00228257 0.00229326 0.00230396 0.00231466 0.00232536
0.00233614 0.00234693 0.00235772 0.00236851 0.0023793 0.00239018 0.00240106 0.00241194 0.00242282 0.00243371
0.00244468 0.00245565 0.00246663 0.00247761 0.00248859 0.00249966 0.00251073 0.0025218 0.00253288 0.00254396
0.00255513 0.0025663 0.00257747 0.00258865 0.00259983 0.00261111 0.00262238 0.00263366 0.00264494 0.00265623
0.00266761 0.00267899 0.00269038 0.00270177 0.00271316 0.00272466 0.00273615 0.00274765 0.00275915 0.00277066
0.00278227 0.00279388 0.0028055 0.00281712 0.00282875 0.00284047 0.00285221 0.00286394 0.00287569 0.00288744
0.00289025 0.00289305 0.00289586 0.00289867 0.00290151 0.00291056 0.0029196 0.00292866 0.00293772 0.00294678
0.00295877 0.00297076 0.00298276 0.00299477 0.00300679 0.00301893 0.00303106 0.0030432 0.00305534 0.0030675
0.00307979 0.00309207 0.00310435 0.00311664 0.00312895 0.00314139 0.00315381 0.00316625 0.00317869 0.00319114
0.00320375 0.00321632 0.00322891 0.0032415 0.00325411 0.00326687 0.0032796 0.00329234 0.00330509 0.00331785
0.00333078 0.00334366 0.00335656 0.00336947 0.00338239 0.00339547 0.00340851 0.00342157 0.00343463 0.0034477
0.00346094 0.00347414 0.00348735 0.00350057 0.0035138 0.00352719 0.00354054 0.0035539 0.00356727 0.00358065
0.00359419 0.00360769 0.0036212 0.00363471 0.00364823 0.00366191 0.00367555 0.0036892 0.00370286 0.00371651
0.00373033 0.0037441 0.00375788 0.00377166 0.00378545 0.00379939 0.00381328 0.00382718 0.00384109 0.00385499
0.00386905 0.00388306 0.00389707 0.00391108 0.0039251 0.00393926 0.00395338 0.00396749 0.0039816 0.00399572
0.00400999 0.00402421 0.0040384 0.0040526 0.00406682 0.00408118 0.00409549 0.00410977 0.00412404 0.00413836
0.00415281 0.00416721 0.00418157 0.00419592 0.00421032 0.00422487 0.00423936 0.00425381 0.00426824 0.00428273
0.00429738 0.00431197 0.0043265 0.00434103 0.00435562 0.00437037 0.00438506 0.00439972 0.00441438 0.00442908
0.00444394 0.00445875 0.00447356 0.00448837 0.00450322 0.00451321 0.0045232 0.00453319 0.00454318 0.00455128
0.00455666 0.00456204 0.00456743 0.00457282 0.00457821 0.00459337 0.00460853 0.00462371 0.00463892 0.00465419
0.00466959 0.00468499 0.0047004 0.00471584 0.00473139 0.00474708 0.00476277 0.00477847 0.00479419 0.00481006
0.00482609 0.00484212 0.0048582 0.00487433 0.00489059 0.00489263 0.00489467 0.00489672 0.00489876 0.00490076
0.00491516 0.00492962 0.00494412 0.00495866 0.00497334 0.00499026 0.00500722 0.00502424 0.00504134 0.00505868
0.00507619 0.00509378 0.00511145 0.00512923 0.00514725 0.005148 0.00514875 0.0051495 0.00515024 0.00515099
0.00516847 0.00518606 0.00520375 0.00522156 0.00523965 0.00525872 0.00527792 0.00529724 0.00531671 0.00533657
0.00534438 0.00535222 0.00536009 0.00536798 0.00537543 0.00538805 0.00540075 0.00541351 0.00542635 0.00543936
0.00546071 0.00548224 0.00550398 0.00552594 0.00554849 0.00555933 0.00557022 0.00558118 0.00559219 0.00560244
0.00561503 0.00562771 0.00564046 0.0056533 0.00566637 0.0056911 0.00571614 0.00574151 0.00576723 0.00579397
0.00580304 0.00581215 0.0058213 0.00583051 0.00583916 0.00585792 0.00587687 0.00589603 0.00591539 0.00593545
0.00596563 0.00599633 0.00602758 0.00605943 0.00608813 0.00608921 0.00609029 0.00609137 0.00609245 0.00609353
0.00612777 0.00616269 0.00619831 0.00623466 0.00627426 0.00628972 0.00630531 0.00632103 0.0063369 0.00635132
0.00637751 0.00640406 0.00643099 0.00645831 0.00648788 0.00651701 0.00654658 0.00657661 0.00660711 0.00663318
0.00665519 0.00667743 0.00669992 0.00672264 0.00674731 0.00678558 0.00682453 0.00686419 0.00690458 0.00693851
0.00696545 0.0069927 0.00702025 0.0070481 0.00707979 0.00711815 0.00715707 0.00719658 0.00723668 0.00727154
0.00732284 0.00737498 0.00742796 0.00748178 0.00755695 0.00757254 0.00758818 0.00760389 0.00761965 0.00763481
0.00771397 0.00779438 0.00787596 0.00795864 0.00802913 0.00811492 0.00820129 0.00828817 0.00837547 0.00845546
0.00851645 0.00857749 0.00863863 0.00869985 0.00891665 0.00891687 0.0089171 0.00891733 0.00891756 0.00891778
0.00900533 0.00909317 0.0091282 0.00921638 0.00935794 0.00944665 0.00953592 0.00962576 0.00971616 0.00980752
0.00989946 0.00999215 0.0100858 0.0101804 0.0102764 0.0103735 0.0104718 0.0105713 0.0106723 0.0107749
0.0108794 0.0109855 0.0110932 0.0112029 0.0113146 0.0114291 0.0115459 0.011665 0.0117869 0.0119116
0.0120405 0.0121726 0.0123082 0.0124479 0.012594 0.0127451 0.0129009 0.0130614 0.0132267 0.0134165
0.0134805 0.0135451 0.0136101 0.0136755 0.0137106 0.0138577 0.0140065 0.0141565 0.0143071 0.0145394
0.0145881 0.0146366 0.014685 0.0147332 0.0147744 0.0149431 0.0151094 0.015273 0.0154336 0.0155438
0.0156821 0.0158183 0.0159522 0.0160844 0.0162008 0.0163251 0.0164476 0.0165689 0.0166887 0.0168034
0.0169202 0.0170359 0.0171506 0.0172642 0.0173773 0.0174904 0.0176027 0.0177141 0.0178249 0.0179378
0.0180496 0.0181609 0.0182716 0.0183818 0.0184966 0.0186094 0.0187219 0.0188341 0.0189462 0.0190649
0.0191329 0.019201 0.0192692 0.0193376 0.0193914 0.0194448 0.0194982 0.0195516 0.0196051 0.0196608
0.0197848 0.0199097 0.0200353 0.0201618 0.0203057 0.0203877 0.0204702 0.0205534 0.0206373 0.02071
0.0207722 0.0208345 0.0208972 0.02096 0.0210255 0.0211791 0.0213355 0.0214948 0.0216561 0.0218566
0.0218617 0.0218667 0.0218718 0.0218769 0.0218818 0.0220657 0.0222403 0.0224037 0.022555 0.0226186
0.0227263 0.0228276 0.0229234 0.0230148 0.0231004 0.0231844 0.0232651 0.0233428 0.0234186 0.0234933
0.0235666 0.023638 0.0237076 0.0237761 0.0238443 0.0239119 0.0239783 0.0240437 0.0241084 0.0241731
0.0242376 0.0243014 0.0243646 0.0244274 0.0244904 0.0245535 0.0246162 0.0246785 0.0247406 0.0248033
0.0248694 0.0249352 0.0250006 0.0250662 0.0251329 0.0251943 0.0252556 0.0253168 0.0253781 0.0254412
0.0254743 0.0255072 0.0255402 0.0255732 0.0255934 0.0256212 0.025649 0.0256767 0.0257045 0.025733
0.0257878 0.0258423 0.0258967 0.0259508 0.0260094 0.0260617 0.0261136 0.0261651 0.0262162 0.0262702
0.0262707 0.0262713 0.0262718 0.0262723 0.0262728 0.0263225 0.0263718 0.0264206 0.0264689 0.0265237
0.0265593 0.0265946 0.0266295 0.0266641 0.0266928 0.0267069 0.026721 0.026735 0.026749 0.0267636
0.0268092 0.0268541 0.0268984 0.0269421 0.026993 0.026998 0.0270031 0.0270081 0.0270132 0.0270181
0.0270569 0.0270952 0.027133 0.0271703 0.0272137 0.0272287 0.0272437 0.0272586 0.0272733 0.0272875
0.0273153 0.0273429 0.0273701 0.0273971 0.0274277 0.0274463 0.0274647 0.027483 0.0275012 0.0275185
0.0275421 0.0275654 0.0275885 0.0276114 0.0276372 0.0276547 0.0276721 0.0276894 0.0277065 0.0277231
0.0277472 0.027771 0.0277946 0.027818 0.0278445 0.0278576 0.0278706 0.0278836 0.0278965 0.0279092
0.0279418 0.027974 0.028006 0.0280375 0.0280746 0.0280762 0.0280778 0.0280794 0.028081 0.0280826
0.0281162 0.0281494 0.0281823 0.0282149 0.0282464 0.0282631 0.0282797 0.0282963 0.0283128 0.0283308
0.0283452 0.0283596 0.0283739 0.0283881 0.0284022 0.0284328 0.0284631 0.0284932 0.0285231 0.0285523
0.0285666 0.0285809 0.0285952 0.0286094 0.0286248 0.0286394 0.0286539 0.0286684 0.0286829 0.0286972
0.0287258 0.0287542 0.0287825 0.0288106 0.0288382 0.0288658 0.0288932 0.0289205 0.0289476 0.0289759
0.0289767 0.0289776 0.0289785 0.0289794 0.0289803 0.0290066 0.0290328 0.0290589 0.0290849 0.0291106
0.0291373 0.029164 0.0291905 0.0292169 0.029243 0.0292693 0.0292955 0.0293216 0.0293476 0.0293733
0.0293921 0.0294108 0.0294295 0.0294481 0.0294708 0.029477 0.0294833 0.0294895 0.0294957 0.029502
0.0295276 0.0295532 0.0295787 0.0296041 0.0296294 0.0296548 0.0296802 0.0297055 0.0297307 0.0297557
0.029781 0.0298062 0.0298313 0.0298564 0.0298813 0.0299065 0.0299315 0.0299565 0.0299815 0.0300064
0.0300314 0.0300564 0.0300814 0.0301063 0.0301311 0.0301561 0.0301811 0.030206 0.0302309 0.0302558
0.0302808 0.0303058 0.0303307 0.0303557 0.0303805 0.0304056 0.0304307 0.0304557 0.0304807 0.0305057
0.0305308 0.030556 0.0305811 0.0306062 0.0306313 0.0306566 0.0306819 0.0307072 0.0307325 0.0307578
0.0307832 0.0308087 0.0308342 0.0308597 0.0308852 0.0309109 0.0309366 0.0309623 0.030988 0.0310138
0.0310398 0.0310658 0.0310918 0.0311178 0.031144 0.0311579 0.0311718 0.0311858 0.0311997 0.0312115
0.0312244 0.0312372 0.0312501 0.031263 0.0312759 0.0313025 0.0313293 0.031356 0.0313828 0.0314097
0.0314368 0.031464 0.0314912 0.0315184 0.0315458 0.0315734 0.0316011 0.0316288 0.0316565 0.0316845
0.0316948 0.031705 0.0317153 0.0317257 0.0317353 0.0317534 0.0317715 0.0317896 0.0318078 0.0318261
0.0318548 0.0318836 0.0319125 0.0319415 0.0319707 0.0320001 0.0320296 0.0320592 0.0320888 0.0321188
0.0321236 0.0321285 0.0321334 0.0321383 0.032143 0.0321684 0.0321938 0.0322193 0.0322449 0.0322706
0.0323016 0.0323326 0.0323637 0.032395 0.0324265 0.0324428 0.0324591 0.0324754 0.0324918 0.0325074
0.0325232 0.0325391 0.032555 0.0325709 0.0325869 0.0326196 0.0326524 0.0326854 0.0327184 0.0327518
0.032772 0.0327923 0.0328126 0.0328329 0.0328524 0.0328663 0.0328801 0.032894 0.0329079 0.0329219
0.0329565 0.0329914 0.0330263 0.0330615 0.0330969 0.0331157 0.0331345 0.0331533 0.0331722 0.0331906
0.0332079 0.0332252 0.0332426 0.03326 0.0332774 0.0333143 0.0333513 0.0333885 0.0334258 0.0334634
0.0334704 0.0334774 0.0334844 0.0334915 0.0334984 0.0335296 0.0335609 0.0335923 0.0336238 0.0336555
0.033689 0.0337226 0.0337563 0.0337902 0.0338234 0.0338294 0.0338355 0.0338415 0.0338476 0.0338536
0.0338941 0.0339348 0.0339756 0.0340166 0.034058 0.0340804 0.0341029 0.0341255 0.0341481 0.0341706
0.0341902 0.0342099 0.0342296 0.0342493 0.0342692 0.0343123 0.0343556 0.0343992 0.0344429 0.0344869
0.0344986 0.0345103 0.0345221 0.0345338 0.0345456 0.0345786 0.0346118 0.034645 0.0346784 0.0347119
0.0347578 0.034804 0.0348504 0.034897 0.0349438 0.034946 0.0349483 0.0349505 0.0349527 0.0349549
0.0350002 0.0350456 0.0350913 0.0351372 0.0351832 0.0352273 0.0352715 0.0353159 0.0353605 0.0354058
0.0354107 0.0354156 0.0354205 0.0354254 0.0354303 0.0354808 0.0355315 0.0355824 0.0356336 0.035685
0.0357289 0.035773 0.0358173 0.0358618 0.0359072 0.0359153 0.0359234 0.0359315 0.0359396 0.0359477
0.0360014 0.0360552 0.0361094 0.0361637 0.0362182 0.0362677 0.0363174 0.0363672 0.0364173 0.0364687
0.0364744 0.0364801 0.0364857 0.0364914 0.0364971 0.036554 0.0366111 0.0366685 0.0367261 0.0367839
0.0368425 0.0369013 0.0369603 0.0370196 0.037079 0.0370835 0.0370879 0.0370924 0.0370969 0.0371014
0.0371572 0.0372132 0.0372694 0.0373258 0.0373823 0.0374442 0.0375062 0.0375685 0.037631 0.0376936
0.037718 0.0377424 0.0377668 0.0377913 0.0378161 0.0378554 0.0378947 0.0379342 0.0379737 0.0380133
0.0380783 0.0381436 0.038209 0.0382746 0.0383404 0.0383958 0.0384513 0.038507 0.0385628 0.0386199
0.038631 0.0386422 0.0386533 0.0386644 0.0386755 0.0387436 0.0388119 0.0388804 0.0389491 0.0390179
0.0390876 0.0391574 0.0392273 0.0392974 0.0393676 0.0393963 0.0394251 0.0394538 0.0394826 0.0395116
0.0395541 0.0395967 0.0396394 0.0396821 0.0397249 0.0397975 0.0398702 0.0399431 0.0400162 0.0400894
0.0401551 0.0402209 0.0402869 0.040353 0.0404194 0.0404279 0.0404364 0.0404449 0.0404534 0.0404619
0.0405375 0.0406133 0.0406893 0.0407656 0.040842 0.0409194 0.0409969 0.0410745 0.0411524 0.0412305
0.0412549 0.0412792 0.0413037 0.0413281 0.0413525 0.0414074 0.0414624 0.0415174 0.0415727 0.041628
0.0417088 0.0417899 0.0418711 0.0419525 0.0420344 0.0420888 0.0421433 0.042198 0.0422527 0.0423075
0.0423361 0.0423648 0.0423935 0.0424222 0.0424509 0.0425357 0.0426207 0.0427059 0.0427915 0.0428774
0.0429596 0.0430419 0.0431246 0.0432075 0.0432912 0.043296 0.0433007 0.0433054 0.0433102 0.0433149
0.043404 0.0434934 0.0435832 0.0436732 0.0437636 0.0438552 0.043947 0.0440391 0.0441315 0.0442242
0.0442433 0.0442623 0.0442813 0.0443004 0.0443196 0.0443947 0.04447 0.0445456 0.0446214 0.0446974
0.0447939 0.0448906 0.0449876 0.045085 0.0451827 0.0452292 0.0452758 0.0453225 0.0453692 0.0454171
0.0454697 0.0455225 0.0455753 0.0456282 0.0456812 0.0457828 0.0458846 0.0459867 0.0460891 0.0461918
0.0462757 0.0463598 0.0464441 0.0465286 0.0466182 0.0466376 0.046657 0.0466765 0.0466959 0.0467154
0.0468219 0.0469287 0.0470359 0.0471434 0.0472509 0.0473599 0.0474692 0.0475787 0.0476885 0.0477983
0.0478333 0.0478683 0.0479034 0.0479385 0.0479747 0.048051 0.0481274 0.048204 0.0482807 0.0483573
0.0484707 0.0485843 0.0486981 0.0488121 0.048926 0.0490414 0.0491568 0.0492725 0.0493883 0.0495038
0.0495182 0.0495326 0.0495471 0.0495615 0.0495762 0.0496786 0.0497811 0.0498837 0.0499864 0.0500888
0.0502068 0.0503249 0.050443 0.0505611 0.0506788 0.0507976 0.0509164 0.051035 0.0511536 0.0512717
0.0513373 0.0514029 0.0514684 0.0515339 0.0516065 0.0516583 0.0517101 0.0517619 0.0518136 0.0518652
0.0519842 0.0521029 0.0522215 0.0523398 0.0524575 0.0525758 0.052694 0.0528119 0.0529295 0.0530464
0.0531639 0.0532811 0.0533981 0.0535146 0.0536305 0.0537469 0.053863 0.0539787 0.0540941 0.0542088
0.0542853 0.0543618 0.0544381 0.0545142 0.0546045 0.0546398 0.0546749 0.0547101 0.0547452 0.0547802
0.0548941 0.0550076 0.0551207 0.0552333 0.0553454 0.055458 0.0555702 0.055682 0.0557933 0.0559042
0.0560155 0.0561264 0.056237 0.0563472 0.0564569 0.0565671 0.0566769 0.0567865 0.0568957 0.0570044
0.0571135 0.0572223 0.0573308 0.057439 0.0575469 0.0576553 0.0577635 0.0578716 0.0579792 0.0580859
0.0581885 0.0582908 0.0583928 0.0584942 0.058595 0.0586989 0.058802 0.0589045 0.0590061 0.059107
0.0592108 0.0593138 0.059416 0.0595174 0.0596181 0.0596664 0.0597145 0.0597625 0.0598103 0.0598639
0.0599172 0.0599702 0.0600231 0.0600757 0.0601282 0.0602321 0.0603352 0.0604377 0.0605393 0.0606404
0.0607446 0.0608481 0.0609508 0.0610528 0.0611541 0.0612586 0.0613623 0.0614652 0.0615674 0.0616689
0.0617737 0.0618777 0.0619808 0.0620832 0.062185 0.0622901 0.0623944 0.0624979 0.0626006 0.0627028
0.0628082 0.0629129 0.0630168 0.06312 0.0632226 0.0633287 0.0634339 0.0635383 0.0636421 0.0637454
0.0638522 0.0639581 0.0640634 0.064168 0.0642722 0.0643798 0.0644868 0.064593 0.0646987 0.0648039
0.0649128 0.0650209 0.0651283 0.0652353 0.0653417 0.0654519 0.0655614 0.0656703 0.0657787 0.0658866
0.0659984 0.0661095 0.0662201 0.0663302 0.0664399 0.0665536 0.0666666 0.0667792 0.0668914 0.0670032
0.0671192 0.0672345 0.0673494 0.067464 0.0675783 0.0676969 0.0678149 0.0679325 0.0680499 0.068167
0.0682887 0.0684098 0.0685305 0.068651 0.0687715 0.0688966 0.0690212 0.0691454 0.0692694 0.0693935
0.0695225 0.069651 0.069779 0.0699069 0.0700349 0.070168 0.0703006 0.0704325 0.0705643 0.0706962
0.0708334 0.07097 0.071106 0.0712417 0.0713773 0.0715181 0.0716581 0.0717972 0.0719361 0.0720752
-9.99991e-06 -7.99991e-06 -5.99993e-06 -3.99994e-06 -1.99997e-06 0 2.96563e-05 5.93112e-05 8.89635e-05 0.000118613
0.000148258 0.000178632 0.000209002 0.000239365 0.000269722 0.000300072 0.000329202 0.000358324 0.000387439 0.000416547
0.000445648 0.000473579 0.000501503 0.000529421 0.000557333 0.000585238 0.000612021 0.000638799 0.000665571 0.000692337
0.000719098 0.000744783 0.000770464 0.000796139 0.000821809 0.000847474 0.000872108 0.000896737 0.000921362 0.000945981
0.000970596 0.000994223 0.00101785 0.00104146 0.00106508 0.00108869 0.00111135 0.00113401 0.00115666 0.00117931
0.00120196 0.0012237 0.00124543 0.00126716 0.00128889 0.00131061 0.00133147 0.00135232 0.00137316 0.00139401
0.00141485 0.00143485 0.00145486 0.00147486 0.00149485 0.00151485 0.00153404 0.00155323 0.00157242 0.00159161
0.00161079 0.0016292 0.00164762 0.00166603 0.00168444 0.00170284 0.00172051 0.00173818 0.00175585 0.00177351
0.00179117 0.00180813 0.00182508 0.00184204 0.00185899 0.00187594 0.00189221 0.00190848 0.00192475 0.00194101
0.00195728 0.00197289 0.00198851 0.00200412 0.00201974 0.00203535 0.00204577 0.00205619 0.00206661 0.00207704
0.00208746 0.00209796 0.00210846 0.00211896 0.00212946 0.00213996 0.00215055 0.00216113 0.00217171 0.00218229
0.00219287 0.00220353 0.0022142 0.00222486 0.00223552 0.00224618 0.00225693 0.00226767 0.00227841 0.00228916
0.0022999 0.00231073 0.00232155 0.00233238 0.0023432 0.00235403 0.00236494 0.00237584 0.00238675 0.00239766
0.00240857 0.00241956 0.00243055 0.00244154 0.00245253 0.00246352 0.00247459 0.00248566 0.00249674 0.00250781
0.00251888 0.00253004 0.00254119 0.00255235 0.00256351 0.00257466 0.0025859 0.00259714 0.00260838 0.00261962
0.00263085 0.00264218 0.0026535 0.00266482 0.00267614 0.00268747 0.00269887 0.00271028 0.00272168 0.00273309
0.00274449 0.00275598 0.00276747 0.00277896 0.00279045 0.00280193 0.00281351 0.00282508 0.00283665 0.00284822
0.00285979 0.00287145 0.0028831 0.00289476 0.00290641 0.00291806 0.0029298 0.00294154 0.00295328 0.00296501
0.00297674 0.00298857 0.00300039 0.0030122 0.00302402 0.00303583 0.00304774 0.00305964 0.00307154 0.00308343
0.00309533 0.00310731 0.0031193 0.00313128 0.00314325 0.00315523 0.00316729 0.00317935 0.00319141 0.00320347
0.00321552 0.00322766 0.0032398 0.00325194 0.00326408 0.00327621 0.00328843 0.00330065 0.00331286 0.00332507
0.00333728 0.00334958 0.00336187 0.00337416 0.00338645 0.00339873 0.00341111 0.00342348 0.00343584 0.0034482
0.00346056 0.00347301 0.00348545 0.00349789 0.00351033 0.00352276 0.00353528 0.0035478 0.00356031 0.00357282
0.00358532 0.00359125 0.00359718 0.0036031 0.00360902 0.00361464 0.00362136 0.00362809 0.00363481 0.00364153
0.00364825 0.00366091 0.00367358 0.00368623 0.00369889 0.00371154 0.00372428 0.00373701 0.00374974 0.00376247
0.00377519 0.003788 0.00380081 0.00381361 0.00382641 0.00383921 0.00385209 0.00386498 0.00387785 0.00389073
0.0039036 0.00391656 0.00392952 0.00394248 0.00395543 0.00396838 0.00398142 0.00399446 0.0040075 0.00402053
0.00403357 0.00404669 0.00405982 0.00407294 0.00408606 0.00409918 0.0041124 0.00412562 0.00413883 0.00415205
0.00416526 0.00417858 0.00419189 0.00420521 0.00421852 0.00423184 0.00424527 0.00425869 0.00427212 0.00428554
0.00429898 0.00431252 0.00432606 0.00433961 0.00435316 0.00436673 0.0043804 0.00439408 0.00440776 0.00442145
0.00443516 0.00444897 0.0044628 0.00447664 0.00449048 0.00450435 0.00450572 0.00450708 0.00450845 0.00450982
0.00451116 0.00452378 0.00453642 0.00454906 0.00456171 0.00457439 0.00458855 0.00460272 0.00461691 0.00463111
0.00464536 0.00465971 0.00467409 0.00468849 0.0047029 0.00471736 0.00473194 0.00474654 0.00476117 0.00477582
0.00479052 0.00480535 0.0048202 0.00483509 0.00485 0.00486497 0.00488007 0.00489521 0.00491038 0.00492558
0.00494085 0.00494272 0.00494458 0.00494645 0.00494832 0.00495016 0.00496373 0.00497733 0.00499096 0.00500462
0.00501833 0.00503408 0.00504987 0.0050657 0.00508158 0.00509754 0.00511366 0.00512982 0.00514604 0.00516231
0.00517866 0.00519519 0.00521177 0.00522841 0.00524511 0.00526189 0.00527104 0.0052802 0.00528938 0.00529858