/*--------------------------------*- C++ -*----------------------------------*\
  =========                 |
  \\      /  F ield         | OpenFOAM: The Open Source CFD Toolbox
   \\    /   O peration     | Website:  https://openfoam.org
    \\  /    A nd           | Version:  13
     \\/     M anipulation  |
\*---------------------------------------------------------------------------*/
FoamFile
{
    format      ascii;
    class       volScalarField;
    location    "1.7";
    object      k;
}
// * * * * * * * * * * * * * * * * * * * * * * * * * * * * * * * * * * * * * //

dimensions      [0 2 -2 0 0 0 0];

internalField   nonuniform List<scalar> 
6400
(
2.12514e-07
1.04501e-06
2.22287e-06
3.46765e-06
4.67668e-06
5.85052e-06
6.99051e-06
8.11189e-06
9.22326e-06
1.03262e-05
1.14188e-05
1.24991e-05
1.35668e-05
1.46248e-05
1.5679e-05
1.67398e-05
1.78216e-05
1.89434e-05
2.01287e-05
2.14053e-05
2.28053e-05
2.43645e-05
2.61218e-05
2.8119e-05
3.03992e-05
3.30054e-05
3.59785e-05
3.93555e-05
4.31666e-05
4.74341e-05
5.21715e-05
5.73838e-05
6.30689e-05
6.92205e-05
7.58296e-05
8.28833e-05
9.0364e-05
9.82502e-05
0.00010652
0.000115147
0.000124089
0.000133292
0.000142678
0.000152134
0.000161514
0.000170619
0.000179218
0.000187117
0.000194404
0.000202428
0.000209307
0.000214471
0.000218161
0.000219936
0.0002199
0.000216759
0.000210903
0.000202205
0.000190715
0.000176649
0.000160397
0.000142525
0.000123746
0.000104864
8.67096e-05
6.99888e-05
5.52645e-05
4.28685e-05
3.28578e-05
2.50831e-05
1.92986e-05
1.48992e-05
1.15473e-05
8.95192e-06
6.8763e-06
5.13978e-06
3.61756e-06
2.24576e-06
1.05177e-06
2.16074e-07
1.05309e-06
8.83589e-06
1.92227e-05
2.99033e-05
4.00657e-05
4.96011e-05
5.8714e-05
6.75624e-05
7.62231e-05
8.47123e-05
9.30219e-05
0.000101146
0.000109097
0.000116911
0.000124651
0.00013241
0.000140311
0.000148506
0.000157178
0.000166535
0.000176806
0.000188241
0.000201099
0.000215641
0.000232121
0.000250769
0.000271774
0.000295272
0.000321327
0.000349929
0.000380989
0.000414357
0.000449828
0.000487173
0.00052615
0.000566507
0.000607981
0.000650296
0.00069318
0.000736382
0.000779639
0.000822669
0.000865149
0.000906699
0.000946859
0.000985037
0.00102048
0.00105242
0.00107963
0.00110155
0.00111946
0.00113064
0.00113544
0.001136
0.00112768
0.00110933
0.00108095
0.00104209
0.000992564
0.000932686
0.000863325
0.000785984
0.000702802
0.00061645
0.000529966
0.000446474
0.000368907
0.000299591
0.000239985
0.000190426
0.00015002
0.000118005
9.28928e-05
7.30007e-05
5.67926e-05
4.29899e-05
3.0643e-05
1.92114e-05
8.86135e-06
1.07335e-06
2.34792e-06
2.00952e-05
4.26138e-05
6.44506e-05
8.45481e-05
0.000103189
0.000120772
0.000137548
0.000153634
0.000169071
0.000183876
0.000198085
0.000211767
0.00022504
0.00023807
0.00025108
0.000264344
0.000278184
0.000292965
0.000309081
0.000326941
0.000346952
0.0003695
0.000394927
0.000423503
0.0004554
0.000490676
0.000529253
0.000570927
0.000615374
0.000662186
0.000710911
0.000761099
0.000812342
0.000864309
0.00091675
0.000969478
0.00102235
0.00107522
0.00112801
0.00118061
0.0012329
0.00128467
0.00133568
0.00138559
0.00143395
0.00148022
0.00152386
0.00156406
0.0016001
0.00163108
0.00165575
0.00167166
0.00167804
0.00167755
0.00166299
0.00163436
0.001591
0.00153224
0.00145797
0.00136872
0.00126582
0.00115151
0.0010289
0.000901893
0.000774952
0.000652728
0.000539559
0.000438932
0.000352945
0.000282024
0.00022513
0.000180118
0.000144265
0.000114818
8.92975e-05
6.56701e-05
4.25381e-05
2.00546e-05
2.38523e-06
3.97685e-06
3.37808e-05
6.88888e-05
0.000100634
0.000128826
0.000154573
0.000178585
0.000201214
0.000222608
0.000242831
0.000261939
0.000280027
0.000297249
0.00031383
0.000330065
0.000346325
0.000363047
0.000380719
0.000399867
0.000421028
0.000444728
0.000471453
0.00050161
0.000535507
0.000573318
0.000615069
0.000660621
0.000709679
0.000761818
0.000816521
0.000873236
0.000931424
0.00099061
0.00105041
0.00111055
0.00117083
0.00123117
0.00129157
0.00135205
0.00141261
0.00147323
0.00153381
0.00159421
0.00165418
0.00171342
0.0017715
0.00182788
0.00188189
0.00193264
0.00197908
0.00201998
0.00205399
0.00207957
0.00209286
0.0020969
0.0020885
0.00206296
0.00202028
0.00195925
0.00187938
0.00178078
0.00166417
0.00153137
0.00138539
0.00123018
0.00107079
0.000912923
0.000762462
0.000624847
0.00050429
0.000403052
0.00032113
0.000256467
0.000205636
0.000164714
0.000129917
9.78624e-05
6.56073e-05
3.19997e-05
3.84752e-06
5.89841e-06
4.92758e-05
9.67559e-05
0.000137136
0.00017195
0.000203318
0.000232314
0.000259411
0.000284797
0.000308562
0.000330804
0.000351684
0.000371449
0.000390442
0.000409105
0.000427965
0.000447625
0.000468738
0.000491975
0.000517991
0.000547384
0.000580649
0.000618149
0.000660078
0.000706452
0.000757097
0.000811669
0.00086968
0.000930544
0.000993636
0.00105835
0.00112413
0.00119056
0.00125732
0.00132422
0.00139117
0.00145815
0.00152518
0.00159228
0.00165947
0.0017267
0.00179389
0.00186087
0.0019274
0.00199316
0.00205772
0.00212055
0.00218104
0.00223824
0.00229114
0.00233863
0.00237954
0.00241228
0.00243323
0.00244166
0.0024411
0.00242282
0.00238661
0.00233044
0.00225329
0.00215489
0.00203489
0.00189398
0.00173465
0.00156009
0.00137535
0.00118657
0.0010008
0.000825466
0.000667331
0.000531355
0.000419712
0.000331438
0.000262979
0.000209345
0.000165276
0.00012583
8.6279e-05
4.3335e-05
5.27743e-06
8.11139e-06
6.6128e-05
0.000125709
0.000173866
0.000214391
0.000250441
0.000283475
0.00031412
0.000342634
0.000369154
0.000393834
0.000416909
0.000438733
0.000459781
0.000480644
0.000502017
0.000524668
0.0005494
0.000577011
0.000608231
0.000643677
0.000683796
0.000728837
0.000778828
0.000833582
0.000892715
0.000955684
0.00102184
0.00109048
0.00116093
0.00123255
0.00130484
0.00137738
0.00144992
0.00152228
0.00159438
0.00166616
0.00173761
0.00180869
0.00187936
0.00194953
0.00201908
0.00208782
0.00215554
0.00222198
0.00228685
0.00234985
0.0024108
0.00246874
0.0025229
0.00257237
0.00261607
0.00265299
0.00268187
0.00269942
0.00270595
0.00270023
0.00267791
0.0026354
0.00257068
0.00248359
0.00237286
0.00223659
0.00207696
0.00189504
0.0016954
0.00148365
0.00126726
0.00105528
0.000857139
0.000681226
0.000533231
0.000414836
0.000323508
0.000253652
0.000198419
0.000150977
0.00010459
5.35855e-05
6.5936e-06
1.05729e-05
8.40581e-05
0.000155369
0.000210659
0.000256267
0.000296346
0.000332741
0.000366265
0.000397284
0.00042601
0.000452673
0.000477605
0.000501273
0.000524293
0.000547415
0.000571497
0.000597464
0.000626256
0.000658762
0.000695746
0.000737786
0.000785217
0.000838113
0.000896287
0.000959319
0.00102661
0.00109742
0.00117097
0.00124647
0.00132317
0.00140044
0.00147775
0.00155467
0.00163092
0.00170625
0.00178051
0.00185356
0.00192527
0.00199554
0.00206425
0.00213131
0.00219662
0.00226009
0.00232163
0.00238113
0.0024385
0.00249356
0.00254599
0.00259563
0.00264245
0.00268632
0.00272695
0.00276386
0.00279629
0.00282315
0.00284254
0.00285134
0.00285217
0.00283727
0.00280431
0.0027454
0.00265869
0.00254123
0.00239745
0.0022235
0.00202367
0.00180147
0.00156375
0.00132043
0.00108311
0.00086378
0.000672694
0.000516031
0.000394263
0.000302459
0.000232426
0.000175081
0.00012129
6.28262e-05
7.78982e-06
1.32465e-05
0.000102771
0.000185367
0.000247266
0.000297491
0.000341121
0.000380381
0.000416298
0.000449372
0.000479925
0.000508289
0.000534908
0.000560379
0.000585464
0.00061107
0.000638214
0.000667968
0.000701382
0.000739398
0.00078276
0.000831943
0.000887105
0.000948087
0.00101444
0.00108549
0.0011604
0.00123827
0.00131815
0.00139917
0.0014805
0.00156145
0.00164141
0.00171988
0.00179646
0.0018708
0.0019426
0.00201161
0.00207765
0.00214054
0.00220026
0.00225677
0.00231015
0.00236063
0.00240837
0.00245353
0.00249669
0.00253805
0.00257763
0.00261637
0.00265469
0.00269266
0.00273019
0.00276697
0.00280237
0.00283545
0.00286485
0.00288901
0.00290459
0.00291054
0.0029085
0.0028905
0.00285219
0.0027826
0.00267337
0.00252473
0.00234336
0.00212781
0.00188332
0.00161953
0.00134907
0.00108686
0.000848042
0.000644832
0.000483221
0.000361322
0.00027078
0.000200178
0.000137442
7.14163e-05
8.90355e-06
1.60975e-05
0.000121993
0.000215356
0.000283409
0.000337885
0.000384709
0.000426475
0.000464436
0.000499259
0.000531399
0.000561317
0.000589585
0.00061694
0.000644296
0.000672715
0.000703366
0.000737446
0.000776082
0.000820223
0.00087053
0.000927304
0.000990457
0.00105954
0.00113379
0.00121227
0.00129389
0.00137756
0.00146218
0.00154673
0.00163029
0.00171203
0.00179122
0.00186723
0.00193951
0.00200756
0.00207099
0.00212951
0.00218291
0.00223114
0.00227455
0.00231301
0.0023472
0.00237804
0.00240637
0.00243324
0.00245808
0.00248163
0.00250521
0.00253001
0.00255682
0.00258604
0.00261811
0.00265319
0.00269122
0.00273177
0.00277403
0.00281652
0.00285707
0.00289288
0.00291681
0.00292636
0.00292422
0.00290475
0.00286024
0.00277164
0.00263035
0.0024419
0.0022102
0.001943
0.00165197
0.00135345
0.00106679
0.000810888
0.000599526
0.00043716
0.000317892
0.000228792
0.000154369
7.98818e-05
9.99804e-06
1.90825e-05
0.000141468
0.000245022
0.000318816
0.000377246
0.000426993
0.000471011
0.000510787
0.00054717
0.000580775
0.000612208
0.000642187
0.000671598
0.000701507
0.00073313
0.000767773
0.000806731
0.000851169
0.000901981
0.000959672
0.00102429
0.00109544
0.0011723
0.0012538
0.00133868
0.0014256
0.00151325
0.00160035
0.00168572
0.00176828
0.00184703
0.00192109
0.00198969
0.00205214
0.00210788
0.00215652
0.00219793
0.00223191
0.00225851
0.00228036
0.00229892
0.0023131
0.00232276
0.00232869
0.00233166
0.00233482
0.00233963
0.00234704
0.00235768
0.00237277
0.00239271
0.00241816
0.00244964
0.00248746
0.00253162
0.00258175
0.00263709
0.00269629
0.00275729
0.00281718
0.00287184
0.0029114
0.00292822
0.00292942
0.00290573
0.00284336
0.00271545
0.00252001
0.00227245
0.00198063
0.00165982
0.00133193
0.00102197
0.000752764
0.000538423
0.000379583
0.00026428
0.00017378
8.89122e-05
1.11595e-05
2.21581e-05
0.000160957
0.000274086
0.000353243
0.000415373
0.00046784
0.00051394
0.000555396
0.000593251
0.000628294
0.000661293
0.000693122
0.000724823
0.000757616
0.000792862
0.000831984
0.000876344
0.000927088
0.000984986
0.00105031
0.00112277
0.00120157
0.00128553
0.00137317
0.00146293
0.0015532
0.00164242
0.00172911
0.0018119
0.00188953
0.00196084
0.00202482
0.0020806
0.00212751
0.00216499
0.00219278
0.00221215
0.0022252
0.00223105
0.00223178
0.00222518
0.00221203
0.00219683
0.00218142
0.00216755
0.00215598
0.00214845
0.00214526
0.00214493
0.00215145
0.00216409
0.00218317
0.00220934
0.00224318
0.00228521
0.00233585
0.00239533
0.00246344
0.00253918
0.00262041
0.0027049
0.00278826
0.00286404
0.00291672
0.00293791
0.00293426
0.00289337
0.00278156
0.00258094
0.00231505
0.00199397
0.00163978
0.00128168
0.000951232
0.0006745
0.00046332
0.000311234
0.000198011
9.94281e-05
1.25042e-05
2.52822e-05
0.000180254
0.000302319
0.000386482
0.00045209
0.000507124
0.000555202
0.000598279
0.000637597
0.000674129
0.000708813
0.000742687
0.000776953
0.000812983
0.000852269
0.000896327
0.000946541
0.00100397
0.00106919
0.00114213
0.0012221
0.00130787
0.00139779
0.00149003
0.00158268
0.00167383
0.0017617
0.00184458
0.00192093
0.00198931
0.00204846
0.00209736
0.00213511
0.00216166
0.00217649
0.00218243
0.00218274
0.00217258
0.00215043
0.00212363
0.00209415
0.0020639
0.00203482
0.00200863
0.00198653
0.00196917
0.00195727
0.00195152
0.00194981
0.00195379
0.00196429
0.00198013
0.00200169
0.00202946
0.00206411
0.00210661
0.00215823
0.00222034
0.00229414
0.00237925
0.00247503
0.00257972
0.00268905
0.00279552
0.00288935
0.00294068
0.00295533
0.00293124
0.00283484
0.00262697
0.00233479
0.00197819
0.00158704
0.00119954
0.000854162
0.000577876
0.000375765
0.000230326
0.000112717
1.41989e-05
2.84157e-05
0.000199185
0.000329532
0.000418359
0.000487246
0.000544733
0.000594737
0.000639435
0.000680269
0.000718397
0.000754933
0.000791083
0.000828209
0.000867826
0.000911543
0.000960933
0.00101735
0.00108168
0.00115422
0.00123448
0.0013213
0.00141295
0.00150733
0.0016022
0.00169531
0.00178451
0.00186775
0.00194316
0.00200903
0.00206388
0.00210645
0.00213621
0.00215035
0.0021547
0.0021519
0.00213491
0.00210562
0.00206834
0.00202672
0.00198444
0.00194356
0.00190598
0.00187337
0.0018468
0.00182679
0.00181318
0.00180673
0.0018049
0.0018073
0.00181603
0.0018293
0.00184697
0.00186901
0.00189496
0.00192491
0.00195918
0.00199845
0.00204393
0.00209778
0.00216406
0.00224613
0.00234599
0.0024636
0.00259113
0.00272588
0.00285279
0.00293959
0.00297227
0.00296075
0.00287261
0.00265193
0.00232533
0.00192655
0.00149614
0.00108322
0.000732106
0.000465469
0.000275222
0.000130631
1.64882e-05
3.15231e-05
0.000217606
0.000355579
0.000448739
0.000520723
0.000580575
0.000632488
0.000678851
0.000721297
0.000761167
0.000799753
0.000838428
0.000878708
0.000922242
0.000970727
0.00102575
0.00108857
0.00115983
0.00123944
0.00132643
0.0014191
0.0015152
0.00161217
0.00170739
0.00179829
0.00188247
0.00195769
0.00202199
0.00207363
0.00211144
0.00213141
0.00213744
0.00213541
0.00211864
0.00208701
0.00204321
0.00199373
0.00194145
0.00188966
0.0018419
0.00180009
0.00176552
0.00173896
0.00172019
0.00171011
0.00170655
0.00170683
0.00171361
0.00172483
0.00174045
0.00175947
0.00178153
0.00180629
0.00183334
0.00186253
0.00189386
0.0019275
0.00196396
0.00200424
0.00204992
0.00210332
0.0021685
0.0022527
0.00236688
0.00250595
0.00265898
0.00281542
0.0029354
0.00298599
0.00298479
0.00289597
0.00264938
0.00227847
0.00183107
0.00136191
0.000932769
0.000588474
0.000338365
0.000155668
1.97142e-05
3.45735e-05
0.000235403
0.000380346
0.000477516
0.000552428
0.000614576
0.000668408
0.000716506
0.000760686
0.000802468
0.000843314
0.000884761
0.000928471
0.000976207
0.00102972
0.00109057
0.00115983
0.00123783
0.001324
0.00141684
0.00151407
0.00161291
0.00171036
0.00180345
0.00188934
0.00196544
0.00202945
0.00207944
0.00211238
0.00212611
0.00212758
0.00211684
0.00208919
0.00204484
0.00199072
0.00193098
0.00187
0.00181192
0.00175981
0.00171622
0.00168212
0.0016576
0.00164319
0.00163726
0.00163643
0.00164196
0.00165267
0.00166767
0.00168618
0.00170755
0.00173122
0.00175689
0.00178432
0.00181312
0.00184313
0.00187415
0.00190607
0.00193892
0.00197297
0.0020089
0.00204785
0.00209205
0.00214506
0.00221342
0.00230558
0.0024397
0.00260629
0.00278472
0.0029345
0.00300101
0.00300389
0.00290176
0.00261053
0.00218439
0.00168277
0.00118207
0.000751772
0.000426224
0.000191075
2.43515e-05
3.75398e-05
0.000252483
0.000403753
0.000504617
0.000582292
0.000646679
0.00070245
0.000752368
0.000798419
0.000842288
0.000885603
0.000930054
0.000977433
0.0010296
0.00108832
0.00115504
0.0012306
0.00131493
0.00140692
0.00150448
0.00160474
0.00170443
0.00180014
0.00188859
0.00196676
0.00203199
0.00208203
0.00211192
0.0021223
0.00212021
0.00210271
0.00206559
0.00201228
0.00194949
0.00188144
0.00181356
0.0017503
0.00169542
0.00165102
0.00161805
0.00159656
0.00158649
0.00158357
0.00158624
0.0015958
0.00160982
0.00162762
0.00164832
0.00167144
0.00169649
0.00172319
0.00175132
0.00178062
0.00181096
0.00184215
0.00187401
0.00190615
0.00193834
0.00197051
0.00200299
0.00203631
0.00207174
0.00211032
0.00215351
0.0022094
0.00228714
0.00240005
0.00256971
0.00276674
0.00294012
0.0030168
0.00301611
0.00288138
0.00252568
0.00202911
0.00147558
0.00095897
0.000544904
0.00024062
3.10094e-05
4.03966e-05
0.000268773
0.000425746
0.00052999
0.000610267
0.000676836
0.000734574
0.0007864
0.000834456
0.000880582
0.000926558
0.000974213
0.00102545
0.0010822
0.00114618
0.00121869
0.00130025
0.0013903
0.00148715
0.00158811
0.00168974
0.00178831
0.00188005
0.00196147
0.00202946
0.00208131
0.00211109
0.00212063
0.00211587
0.00209417
0.00205027
0.00199058
0.00192042
0.00184553
0.00177146
0.00170365
0.00164595
0.00160072
0.00156847
0.00155006
0.00154257
0.00154148
0.00154749
0.00155931
0.00157555
0.00159489
0.00161674
0.00164055
0.00166608
0.00169315
0.00172173
0.00175182
0.00178347
0.00181684
0.00185163
0.0018873
0.00192317
0.00195848
0.00199219
0.00202416
0.0020535
0.00208123
0.00210928
0.00214169
0.00218062
0.00222735
0.00229319
0.00239304
0.00255272
0.00276419
0.00295213
0.00303245
0.00301258
0.0028158
0.00237469
0.00180105
0.00120848
0.000698316
0.000307773
4.03274e-05
4.31219e-05
0.00028422
0.000446289
0.000553603
0.000636318
0.000705013
0.000764737
0.000818553
0.000868739
0.000917275
0.000966077
0.0010171
0.00107233
0.00113371
0.00120291
0.00128099
0.00136805
0.00146304
0.00156366
0.00166659
0.00176788
0.00186338
0.00194908
0.00202137
0.00207705
0.0021096
0.00212023
0.00211502
0.00209129
0.00204379
0.00197973
0.00190395
0.0018229
0.00174308
0.00167038
0.00160931
0.00156226
0.00152972
0.00151285
0.00150682
0.00150669
0.0015144
0.00152758
0.00154468
0.00156455
0.00158648
0.00161008
0.00163514
0.00166163
0.00168961
0.00171921
0.00175055
0.00178376
0.00181892
0.00185613
0.0018955
0.0019369
0.00197932
0.00202111
0.00205981
0.00209396
0.00212349
0.00214703
0.00216623
0.00218609
0.00221613
0.00225918
0.00231429
0.00240509
0.0025556
0.00277962
0.00296885
0.00304091
0.00298074
0.00268499
0.00213793
0.00149271
0.000886615
0.000394508
5.27746e-05
4.56993e-05
0.000298787
0.000465361
0.000575437
0.000660425
0.000731179
0.000792902
0.000848774
0.000901194
0.000952265
0.00100402
0.00105852
0.0011178
0.00118381
0.00125806
0.00134132
0.00143329
0.00153232
0.0016355
0.00173894
0.00183823
0.00192887
0.00200671
0.00206818
0.00210643
0.00212014
0.00211679
0.00209395
0.00204588
0.00197937
0.00189963
0.00181332
0.00172773
0.00164955
0.0015839
0.00153364
0.00149926
0.00148212
0.00147631
0.00147642
0.00148442
0.00149789
0.00151498
0.0015345
0.00155574
0.00157835
0.00160219
0.00162727
0.00165374
0.00168178
0.00171165
0.00174359
0.00177785
0.00181464
0.00185406
0.00189607
0.00194049
0.00198726
0.00203641
0.00208599
0.00213296
0.00217265
0.00220402
0.00222569
0.00223739
0.00224596
0.00226095
0.00229409
0.00234594
0.00242863
0.00257804
0.00281497
0.00298582
0.00303119
0.00290437
0.00245729
0.00179729
0.00110492
0.000499602
6.83453e-05
4.81158e-05
0.000312446
0.000482956
0.00059549
0.000682577
0.000755314
0.000819029
0.000877003
0.000931735
0.000985433
0.00104023
0.00109825
0.00116159
0.0012321
0.00131112
0.00139911
0.00149526
0.00159735
0.00170187
0.00180441
0.00190014
0.00198433
0.00205285
0.00209992
0.00211942
0.00211996
0.00210085
0.00205513
0.00198866
0.00190676
0.00181629
0.00172507
0.00164066
0.00156906
0.00151384
0.00147583
0.00145645
0.00144959
0.00144923
0.0014564
0.00146928
0.00148571
0.00150432
0.00152437
0.00154553
0.00156766
0.00159082
0.00161519
0.001641
0.00166852
0.00169808
0.00172999
0.00176458
0.00180216
0.00184301
0.0018873
0.00193506
0.00198607
0.0020396
0.0020953
0.00215309
0.00220868
0.00225636
0.00229128
0.00230956
0.00231586
0.00231652
0.00231629
0.00233531
0.00238123
0.00246209
0.00261666
0.0028656
0.00299363
0.00299417
0.00272764
0.00210199
0.0013436
0.000617873
8.65037e-05
5.03606e-05
0.00032518
0.000499078
0.000613766
0.00070277
0.0007774
0.000843082
0.000903177
0.000960268
0.00101665
0.00107452
0.00113607
0.00120337
0.00127818
0.00136163
0.00145378
0.00155332
0.00165746
0.00176215
0.00186249
0.00195332
0.00202969
0.00208716
0.0021166
0.00212311
0.00210975
0.00206969
0.00200605
0.00192427
0.00183116
0.00173487
0.00164374
0.00156485
0.0015028
0.00145915
0.00143539
0.00142612
0.0014246
0.00143003
0.00144159
0.00145684
0.00147422
0.00149284
0.00151231
0.00153253
0.00155356
0.00157558
0.00159885
0.00162365
0.00165032
0.00167919
0.00171063
0.00174502
0.00178275
0.00182419
0.0018697
0.00191954
0.00197381
0.00203228
0.00209429
0.00215835
0.002224
0.00228878
0.00234455
0.00238107
0.00239687
0.00239943
0.00238823
0.00237654
0.00237588
0.00242033
0.00250246
0.00267261
0.00290474
0.00300086
0.00288854
0.00238247
0.00159101
0.000742101
0.000106527
5.24258e-05
0.000336979
0.00051374
0.000630279
0.000721011
0.000797428
0.000865028
0.000927237
0.000986699
0.00104577
0.00110671
0.00117172
0.00124283
0.00132168
0.00140912
0.00150481
0.00160693
0.00171215
0.00181591
0.00191293
0.00199783
0.0020657
0.00210819
0.00212307
0.00211793
0.00208702
0.00202933
0.00195052
0.00185696
0.00175682
0.00165907
0.00157191
0.00150124
0.0014498
0.00141921
0.00140598
0.00140256
0.00140543
0.00141504
0.00142871
0.00144462
0.00146171
0.00147946
0.00149773
0.00151658
0.00153621
0.00155686
0.00157884
0.00160249
0.00162814
0.00165615
0.0016869
0.00172079
0.00175824
0.0017997
0.00184564
0.00189651
0.00195265
0.00201423
0.00208107
0.00215234
0.00222634
0.00230101
0.0023752
0.00243793
0.00247478
0.00248762
0.00248447
0.00245837
0.00242801
0.00241736
0.00245913
0.0025499
0.00274973
0.00292053
0.00294532
0.00262213
0.00183903
0.000869216
0.000127363
5.43052e-05
0.000347841
0.000526958
0.000645049
0.000737312
0.000815393
0.00088484
0.000949123
0.00101093
0.00107266
0.00113661
0.00120496
0.00127968
0.00136223
0.00145317
0.00155175
0.00165566
0.00176105
0.00186291
0.00195563
0.00203365
0.00209135
0.00211856
0.00212252
0.0021038
0.0020556
0.00198313
0.00189205
0.00179019
0.00168681
0.0015911
0.00151051
0.00144932
0.00140893
0.00138962
0.00138323
0.00138311
0.00138999
0.00140171
0.00141598
0.00143148
0.00144754
0.00146393
0.00148067
0.00149795
0.00151602
0.0015352
0.00155583
0.00157826
0.00160284
0.00162994
0.00165993
0.00169321
0.00173022
0.00177142
0.00181733
0.00186851
0.00192551
0.00198881
0.00205869
0.00213495
0.00221666
0.00230169
0.00238657
0.00247004
0.00253755
0.00257167
0.00258088
0.00256638
0.00252094
0.00247204
0.00245455
0.00249749
0.00260691
0.00283106
0.00293565
0.00278205
0.00208026
0.0010042
0.000149568
5.59945e-05
0.000357765
0.000538756
0.000658104
0.000751697
0.000831301
0.000902497
0.000968786
0.00103288
0.0010972
0.00116405
0.00123557
0.00131364
0.00139952
0.00149344
0.00159426
0.0016992
0.00180396
0.00190315
0.00199096
0.00206178
0.00210661
0.00212212
0.00211629
0.00208128
0.00201892
0.00193398
0.00183351
0.00172658
0.00162303
0.0015318
0.0014591
0.00140744
0.00137839
0.00136652
0.0013638
0.00136703
0.00137622
0.00138863
0.00140253
0.00141699
0.00143162
0.00144637
0.00146141
0.00147699
0.00149342
0.00151106
0.00153028
0.00155146
0.00157495
0.00160114
0.0016304
0.00166311
0.00169968
0.00174057
0.0017863
0.00183747
0.00189474
0.00195881
0.0020303
0.00210959
0.0021965
0.00228986
0.00238695
0.00248314
0.00257556
0.0026422
0.00267089
0.00267382
0.00264016
0.00256922
0.00250511
0.0024871
0.00253902
0.00269042
0.00284384
0.00284847
0.00231149
0.00116084
0.000175678
5.74909e-05
0.000366757
0.000549166
0.000669481
0.000764193
0.000845164
0.000917991
0.000986187
0.00105248
0.00111928
0.00118887
0.00126335
0.00134447
0.00143326
0.00152965
0.00163209
0.00173738
0.00184082
0.0019367
0.00201897
0.00208172
0.00211393
0.0021205
0.00210257
0.002054
0.00197933
0.00188427
0.00177713
0.00166785
0.00156646
0.00148118
0.00141673
0.00137446
0.00135423
0.00134737
0.00134694
0.00135275
0.00136292
0.00137513
0.00138807
0.0014011
0.00141406
0.00142702
0.00144022
0.00145399
0.00146869
0.00148472
0.00150247
0.00152235
0.00154476
0.00157007
0.00159865
0.00163087
0.00166713
0.00170783
0.00175346
0.0018046
0.00186194
0.00192627
0.00199848
0.00207936
0.0021694
0.00226835
0.0023746
0.00248455
0.00259266
0.00269159
0.00275227
0.00277258
0.00276035
0.00269919
0.00259552
0.00252543
0.00251725
0.0025941
0.00278095
0.00285789
0.00252067
0.0013485
0.000208238
5.87935e-05
0.000374825
0.000558224
0.000679221
0.000774837
0.000857006
0.000931323
0.0010013
0.00106965
0.00113879
0.00121095
0.00128814
0.00137197
0.00146325
0.0015616
0.00166509
0.00177014
0.00187173
0.00196392
0.00204066
0.00209402
0.00211559
0.00211479
0.00208388
0.00202378
0.00193881
0.00183593
0.00172449
0.00161498
0.00151726
0.00143848
0.00138184
0.00134861
0.00133433
0.00133045
0.00133201
0.00133925
0.00134951
0.00136093
0.00137254
0.00138393
0.00139505
0.00140609
0.00141734
0.0014292
0.00144207
0.00145638
0.00147258
0.00149111
0.00151239
0.00153683
0.0015648
0.00159666
0.00163276
0.00167348
0.00171923
0.00177053
0.00182802
0.00189253
0.00196504
0.00204664
0.00213835
0.00224073
0.00235331
0.00247375
0.00259688
0.0027166
0.00281531
0.00286354
0.00287232
0.0028326
0.00273356
0.00259638
0.00253115
0.00255069
0.00267546
0.00279748
0.0026641
0.00155673
0.00024594
5.99028e-05
0.000381981
0.00056597
0.000687375
0.000783677
0.000866861
0.000942508
0.00101412
0.00108438
0.00115567
0.00123017
0.0013098
0.001396
0.00148934
0.00158916
0.00169319
0.00179753
0.00189688
0.00198512
0.00205606
0.00209983
0.0021139
0.00210379
0.00206232
0.00199232
0.00189901
0.00179039
0.00167659
0.00156838
0.00147512
0.00140288
0.00135344
0.00132737
0.00131715
0.00131505
0.00131821
0.00132594
0.0013357
0.00134598
0.00135604
0.00136562
0.0013748
0.00138381
0.00139301
0.00140284
0.00141376
0.00142624
0.00144078
0.00145788
0.00147798
0.00150154
0.00152893
0.00156053
0.00159665
0.00163762
0.00168378
0.00173554
0.00179347
0.00185832
0.0019311
0.00201303
0.00210551
0.00220977
0.0023264
0.00245446
0.00259037
0.00272651
0.00285562
0.00294285
0.00297416
0.00296083
0.00287828
0.00272939
0.00258397
0.00254075
0.00259959
0.00273135
0.00272686
0.00177375
0.00028596
6.08206e-05
0.000388238
0.000572451
0.000693996
0.000790767
0.000874774
0.000951577
0.00102465
0.00109664
0.00116989
0.00124649
0.00132825
0.00141646
0.00151145
0.0016123
0.00171643
0.00181968
0.00191652
0.00200068
0.00206574
0.00210085
0.00210907
0.00208975
0.00203927
0.00196106
0.00186122
0.00174863
0.00163396
0.00152801
0.00143948
0.00137325
0.00133014
0.00130924
0.00130177
0.00130082
0.00130493
0.00131253
0.00132141
0.00133032
0.00133868
0.00134637
0.00135351
0.00136041
0.00136747
0.00137516
0.00138401
0.00139456
0.00140733
0.00142288
0.00144173
0.00146436
0.0014912
0.00152261
0.00155891
0.00160035
0.0016472
0.00169978
0.00175852
0.00182405
0.00189731
0.00197956
0.00207239
0.00217751
0.00229641
0.00242948
0.00257492
0.00272719
0.00287617
0.00300371
0.0030682
0.00307949
0.00302333
0.00288172
0.00267888
0.0025652
0.00256229
0.00268541
0.00273991
0.00199477
0.000328292
6.15507e-05
0.000393615
0.000577715
0.00069915
0.000796171
0.000880804
0.000958573
0.00103291
0.00110644
0.00118141
0.00125985
0.00134345
0.00143331
0.00152956
0.00163103
0.00173491
0.00183679
0.001931
0.00201118
0.00207066
0.00209866
0.00210106
0.00207389
0.00201593
0.00193113
0.0018264
0.00171128
0.00159681
0.00149357
0.00140954
0.00134849
0.00131075
0.00129332
0.00128762
0.00128738
0.00129185
0.00129891
0.00130666
0.00131405
0.00132064
0.00132638
0.00133144
0.00133617
0.00134102
0.0013465
0.00135318
0.00136167
0.00137257
0.00138647
0.00140398
0.00142563
0.00145189
0.00148315
0.00151972
0.00156183
0.00160966
0.0016634
0.00172334
0.00178998
0.00186409
0.00194688
0.00203999
0.00214546
0.00226541
0.00240142
0.0025533
0.00271741
0.00288457
0.00304269
0.00315072
0.00318771
0.00316247
0.00303909
0.00282656
0.00261551
0.0025524
0.00261137
0.00270357
0.00219327
0.000368514
6.2098e-05
0.000398129
0.000581818
0.000702902
0.000799957
0.000885012
0.000963551
0.00103896
0.0011138
0.00119027
0.00127028
0.00135539
0.00144655
0.00154371
0.00164545
0.00174878
0.00184913
0.00194073
0.00201723
0.00207095
0.0020936
0.00209103
0.00205727
0.00199326
0.00190341
0.00179521
0.0016787
0.00156508
0.00146464
0.00138463
0.00132787
0.00129414
0.00127897
0.00127433
0.00127445
0.00127879
0.00128503
0.00129151
0.00129733
0.00130212
0.00130589
0.00130886
0.0013114
0.00131401
0.00131724
0.0013217
0.00132806
0.00133698
0.00134914
0.00136521
0.00138579
0.00141142
0.00144253
0.00147944
0.00152236
0.00157139
0.0016266
0.00168815
0.00175632
0.00183172
0.00191541
0.00200899
0.00211463
0.00223494
0.00237243
0.0025285
0.00270167
0.0028854
0.0030665
0.00321696
0.00328781
0.00329254
0.00319688
0.00298836
0.00271186
0.00256907
0.0025734
0.00265365
0.00235057
0.000402132
6.2468e-05
0.000401802
0.000584814
0.000705316
0.000802187
0.000887457
0.000966563
0.00104284
0.00111878
0.00119648
0.00127778
0.0013641
0.00145624
0.00155395
0.00165567
0.00175822
0.00185693
0.00194598
0.00201908
0.0020684
0.00208662
0.0020795
0.00204066
0.00197206
0.00187855
0.00176808
0.00165103
0.00153861
0.00144077
0.00136409
0.00131067
0.00127963
0.0012658
0.00126163
0.00126183
0.0012657
0.00127095
0.0012761
0.00128032
0.00128331
0.00128515
0.00128606
0.00128646
0.00128685
0.00128785
0.00129007
0.00129425
0.00130114
0.00131149
0.00132602
0.00134544
0.00137037
0.00140129
0.00143856
0.00148237
0.00153277
0.00158973
0.00165321
0.00172332
0.00180046
0.00188548
0.00197984
0.00208574
0.00220605
0.00234401
0.00250231
0.00268145
0.00287724
0.00307802
0.00326308
0.00338019
0.00341156
0.00334917
0.00315306
0.00285607
0.00260851
0.00255509
0.00261737
0.00244387
0.000422984
6.2668e-05
0.000404652
0.000586745
0.00070642
0.000802859
0.000888136
0.000967616
0.00104456
0.00112139
0.00120008
0.00128239
0.00136962
0.00146241
0.00156036
0.00166176
0.00176332
0.00186028
0.00194693
0.00201753
0.00206285
0.00207813
0.00206725
0.0020247
0.00195287
0.00185697
0.00174524
0.00162827
0.00151716
0.00142152
0.00134739
0.00129631
0.00126681
0.00125353
0.00124941
0.00124942
0.00125258
0.00125675
0.00126057
0.00126324
0.00126439
0.00126442
0.00126338
0.0012617
0.00125991
0.00125886
0.00125887
0.00126088
0.00126572
0.00127419
0.00128713
0.00130531
0.00132944
0.0013601
0.0013977
0.00144243
0.00149432
0.00155321
0.00161892
0.00169134
0.00177062
0.00185739
0.00195292
0.00205929
0.00217953
0.00231736
0.00247656
0.00265948
0.00286436
0.00308188
0.00329494
0.00345861
0.0035225
0.00349555
0.00332212
0.00301504
0.00268102
0.00254946
0.00257644
0.00248711
0.000432357
6.26869e-05
0.000406687
0.000587652
0.000706314
0.000802343
0.000887483
0.000967051
0.00104429
0.00112163
0.00120104
0.00128407
0.00137189
0.00146499
0.00156285
0.00166365
0.0017641
0.00185972
0.00194496
0.00201315
0.00205519
0.00206845
0.00205483
0.00200986
0.00193611
0.00183896
0.00172678
0.00161036
0.00150053
0.00140656
0.00133412
0.00128441
0.00125544
0.00124205
0.00123756
0.00123718
0.00123947
0.00124254
0.001245
0.00124605
0.00124576
0.00124403
0.00124115
0.00123755
0.00123377
0.00123049
0.00122867
0.00122859
0.00123139
0.00123799
0.00124928
0.00126615
0.0012894
0.00131971
0.00135757
0.00140321
0.00145662
0.00151758
0.00158573
0.00166076
0.00174256
0.00183148
0.00192855
0.00203571
0.00215594