/*--------------------------------*- C++ -*----------------------------------*\
  =========                 |
  \\      /  F ield         | OpenFOAM: The Open Source CFD Toolbox
   \\    /   O peration     | Website:  https://openfoam.org
    \\  /    A nd           | Version:  13
     \\/     M anipulation  |
\*---------------------------------------------------------------------------*/
FoamFile
{
    format      ascii;
    class       volScalarField;
    location    "1.7";
    object      nut;
}
// * * * * * * * * * * * * * * * * * * * * * * * * * * * * * * * * * * * * * //

dimensions      [0 2 -1 0 0 0 0];

internalField   nonuniform List<scalar> 
6400
(
3.73376e-10
1.83611e-09
3.90595e-09
6.09372e-09
8.21891e-09
1.02827e-08
1.22875e-08
1.42599e-08
1.62149e-08
1.81552e-08
2.00774e-08
2.19778e-08
2.3856e-08
2.57169e-08
2.75715e-08
2.94377e-08
3.13415e-08
3.33165e-08
3.54044e-08
3.76547e-08
4.01242e-08
4.28761e-08
4.59797e-08
4.95084e-08
5.35384e-08
5.81457e-08
6.34021e-08
6.93723e-08
7.61093e-08
8.36517e-08
9.20223e-08
1.01229e-07
1.11268e-07
1.22127e-07
1.33791e-07
1.46237e-07
1.59433e-07
1.73343e-07
1.87929e-07
2.03142e-07
2.18912e-07
2.35142e-07
2.51693e-07
2.68372e-07
2.84916e-07
3.00978e-07
3.16149e-07
3.3009e-07
3.42951e-07
3.57114e-07
3.69269e-07
3.78407e-07
3.84952e-07
3.88105e-07
3.88091e-07
3.82592e-07
3.72301e-07
3.56993e-07
3.36752e-07
3.11958e-07
2.83294e-07
2.51757e-07
2.18602e-07
1.85252e-07
1.53173e-07
1.23617e-07
9.75822e-08
7.56611e-08
5.79584e-08
4.42145e-08
3.39925e-08
2.62235e-08
2.03101e-08
1.57364e-08
1.20828e-08
9.02913e-09
6.35417e-09
3.94446e-09
1.84734e-09
3.79522e-10
1.85029e-09
1.53643e-07
4.93604e-07
8.34478e-07
1.13602e-06
1.39783e-06
1.63645e-06
1.86113e-06
2.07547e-06
2.27964e-06
2.47256e-06
2.65316e-06
2.82114e-06
2.97717e-06
3.12292e-06
3.2609e-06
3.3943e-06
3.52682e-06
3.66229e-06
3.80463e-06
3.95765e-06
4.1247e-06
4.30858e-06
4.51148e-06
4.73483e-06
4.97917e-06
5.24435e-06
5.52967e-06
5.834e-06
6.15606e-06
6.49483e-06
6.84983e-06
7.22144e-06
7.61102e-06
8.02124e-06
8.45504e-06
8.9146e-06
9.40166e-06
9.91983e-06
1.04711e-05
1.10562e-05
1.16747e-05
1.23244e-05
1.30006e-05
1.36958e-05
1.43979e-05
1.50868e-05
1.57301e-05
1.62853e-05
1.67115e-05
1.71271e-05
1.74266e-05
1.76279e-05
1.78302e-05
1.79097e-05
1.78578e-05
1.76735e-05
1.73469e-05
1.68672e-05
1.62285e-05
1.54297e-05
1.44766e-05
1.33833e-05
1.21728e-05
1.08774e-05
9.53747e-06
8.20064e-06
6.91584e-06
5.72902e-06
4.66778e-06
3.72031e-06
2.93742e-06
2.3124e-06
1.81486e-06
1.41057e-06
1.06642e-06
7.53571e-07
4.47867e-07
1.49756e-07
1.88537e-09
4.1257e-09
5.00654e-07
2.06365e-06
3.75901e-06
5.15087e-06
6.27357e-06
7.21633e-06
8.03884e-06
8.77094e-06
9.42429e-06
1.00025e-05
1.05075e-05
1.09426e-05
1.13143e-05
1.16326e-05
1.19098e-05
1.21603e-05
1.2399e-05
1.26418e-05
1.29034e-05
1.31932e-05
1.35189e-05
1.38861e-05
1.42976e-05
1.47531e-05
1.52488e-05
1.57827e-05
1.63516e-05
1.69512e-05
1.75779e-05
1.82292e-05
1.89043e-05
1.96038e-05
2.03292e-05
2.10854e-05
2.18875e-05
2.27497e-05
2.36811e-05
2.46577e-05
2.56792e-05
2.67399e-05
2.78317e-05
2.8944e-05
3.00639e-05
3.11762e-05
3.22605e-05
3.32916e-05
3.42373e-05
3.5084e-05
3.58374e-05
3.65011e-05
3.70359e-05
3.74419e-05
3.76337e-05
3.77924e-05
3.76875e-05
3.73621e-05
3.68092e-05
3.60106e-05
3.49587e-05
3.36485e-05
3.2082e-05
3.02721e-05
2.82433e-05
2.60309e-05
2.36842e-05
2.12643e-05
1.88405e-05
1.64851e-05
1.4261e-05
1.22055e-05
1.03463e-05
8.69269e-06
7.23644e-06
5.92034e-06
4.66485e-06
3.3734e-06
1.93747e-06
5.08709e-07
4.19033e-09
6.98896e-09
9.24997e-07
4.01628e-06
7.4284e-06
1.01692e-05
1.22871e-05
1.39791e-05
1.53838e-05
1.65778e-05
1.7599e-05
1.84658e-05
1.91897e-05
1.97828e-05
2.02605e-05
2.06429e-05
2.09536e-05
2.12184e-05
2.14628e-05
2.17088e-05
2.19756e-05
2.22816e-05
2.26399e-05
2.30587e-05
2.35425e-05
2.40935e-05
2.47124e-05
2.53929e-05
2.61289e-05
2.69146e-05
2.77453e-05
2.86178e-05
2.95311e-05
3.0486e-05
3.14857e-05
3.25308e-05
3.36076e-05
3.47003e-05
3.58121e-05
3.69502e-05
3.81035e-05
3.92583e-05
4.03991e-05
4.15085e-05
4.25686e-05
4.35716e-05
4.45075e-05
4.53691e-05
4.61564e-05
4.68528e-05
4.74433e-05
4.79174e-05
4.82588e-05
4.84564e-05
4.84478e-05
4.83936e-05
4.80847e-05
4.75335e-05
4.67637e-05
4.57439e-05
4.44707e-05
4.29409e-05
4.11495e-05
3.91023e-05
3.68221e-05
3.43366e-05
3.16928e-05
2.89519e-05
2.61872e-05
2.34806e-05
2.09102e-05
1.85337e-05
1.63823e-05
1.44287e-05
1.2586e-05
1.07539e-05
8.79917e-06
6.52111e-06
3.69844e-06
8.94435e-07
6.75997e-09
1.03674e-08
1.40364e-06
6.0263e-06
1.10224e-05
1.49662e-05
1.79652e-05
2.03097e-05
2.2207e-05
2.37782e-05
2.50881e-05
2.61716e-05
2.70511e-05
2.77467e-05
2.82813e-05
2.86827e-05
2.89832e-05
2.92174e-05
2.94204e-05
2.96245e-05
2.98577e-05
3.01436e-05
3.04994e-05
3.09362e-05
3.14593e-05
3.20691e-05
3.27622e-05
3.35316e-05
3.43683e-05
3.52631e-05
3.62071e-05
3.71925e-05
3.82127e-05
3.92617e-05
4.03335e-05
4.14205e-05
4.25146e-05
4.36104e-05
4.46865e-05
4.57401e-05
4.67611e-05
4.77414e-05
4.86744e-05
4.95555e-05
5.03818e-05
5.11433e-05
5.18344e-05
5.24509e-05
5.29884e-05
5.34358e-05
5.37854e-05
5.40312e-05
5.41687e-05
5.41843e-05
5.39786e-05
5.36547e-05
5.33641e-05
5.26928e-05
5.18649e-05
5.08008e-05
4.94908e-05
4.79507e-05
4.61627e-05
4.41049e-05
4.18078e-05
3.9273e-05
3.65441e-05
3.36727e-05
3.07292e-05
2.7806e-05
2.50056e-05
2.24219e-05
2.01114e-05
1.80585e-05
1.61542e-05
1.42067e-05
1.19554e-05
9.06068e-06
5.1935e-06
1.24786e-06
9.27277e-09
1.42595e-08
1.91838e-06
8.0347e-06
1.44645e-05
1.94768e-05
2.32559e-05
2.61742e-05
2.84975e-05
3.03857e-05
3.19289e-05
3.31778e-05
3.41652e-05
3.49184e-05
3.54668e-05
3.58448e-05
3.60921e-05
3.62522e-05
3.63699e-05
3.64879e-05
3.6644e-05
3.68688e-05
3.7184e-05
3.76023e-05
3.81277e-05
3.87569e-05
3.94813e-05
4.02886e-05
4.11644e-05
4.20942e-05
4.30637e-05
4.40602e-05
4.50718e-05
4.60877e-05
4.70978e-05
4.80922e-05
4.90619e-05
4.99983e-05
5.08921e-05
5.17386e-05
5.25325e-05
5.32699e-05
5.39476e-05
5.45633e-05
5.5115e-05
5.56e-05
5.60173e-05
5.63662e-05
5.66486e-05
5.6854e-05
5.69773e-05
5.70122e-05
5.69502e-05
5.6793e-05
5.65369e-05
5.61061e-05
5.56423e-05
5.51191e-05
5.43623e-05
5.34209e-05
5.21906e-05
5.07677e-05
4.91522e-05
4.72251e-05
4.50765e-05
4.26403e-05
3.99724e-05
3.70949e-05
3.40622e-05
3.09659e-05
2.79233e-05
2.50635e-05
2.24985e-05
2.02727e-05
1.83072e-05
1.63662e-05
1.40622e-05
1.08782e-05
6.34058e-06
1.54875e-06
1.15855e-08
1.85897e-08
2.46125e-06
1.00169e-05
1.77577e-05
2.37341e-05
2.82138e-05
3.16425e-05
3.4337e-05
3.6492e-05
3.82204e-05
3.95877e-05
4.06362e-05
4.13998e-05
4.19139e-05
4.22195e-05
4.23647e-05
4.24033e-05
4.23921e-05
4.23859e-05
4.24328e-05
4.25707e-05
4.28242e-05
4.32047e-05
4.37115e-05
4.43349e-05
4.50588e-05
4.58639e-05
4.67296e-05
4.76359e-05
4.85641e-05
4.94977e-05
5.04218e-05
5.13238e-05
5.21926e-05
5.30187e-05
5.37944e-05
5.45131e-05
5.51703e-05
5.57633e-05
5.62906e-05
5.67512e-05
5.7145e-05
5.74728e-05
5.77355e-05
5.7934e-05
5.80701e-05
5.8142e-05
5.81455e-05
5.80885e-05
5.79714e-05
5.77949e-05
5.75588e-05
5.72622e-05
5.69019e-05
5.64722e-05
5.59491e-05
5.52556e-05
5.46715e-05
5.38999e-05
5.31289e-05
5.20808e-05
5.08086e-05
4.90896e-05
4.72482e-05
4.5033e-05
4.2582e-05
3.98403e-05
3.68387e-05
3.36611e-05
3.04206e-05
2.72616e-05
2.43424e-05
2.17871e-05
1.9604e-05
1.75971e-05
1.53142e-05
1.20669e-05
7.18345e-06
1.79996e-06
1.36874e-08
2.32943e-08
3.02024e-06
1.19492e-05
2.09008e-05
2.77631e-05
3.28832e-05
3.67721e-05
3.97925e-05
4.21704e-05
4.40398e-05
4.54798e-05
4.65417e-05
4.7266e-05
4.76947e-05
4.7877e-05
4.78718e-05
4.77465e-05
4.75725e-05
4.74182e-05
4.7342e-05
4.73865e-05
4.75754e-05
4.79149e-05
4.83962e-05
4.90004e-05
4.97028e-05
5.04768e-05
5.1296e-05
5.21361e-05
5.29752e-05
5.37949e-05
5.45795e-05
5.53161e-05
5.59945e-05
5.66065e-05
5.71462e-05
5.76099e-05
5.79956e-05
5.83038e-05
5.85375e-05
5.86983e-05
5.87888e-05
5.88146e-05
5.87807e-05
5.86914e-05
5.85575e-05
5.83802e-05
5.81628e-05
5.79137e-05
5.76396e-05
5.7342e-05
5.7022e-05
5.6678e-05
5.63058e-05
5.58972e-05
5.54384e-05
5.49132e-05
5.42427e-05
5.33714e-05
5.26093e-05
5.1719e-05
5.08169e-05
4.98528e-05
4.85004e-05
4.65821e-05
4.45209e-05
4.20603e-05
3.92303e-05
3.61115e-05
3.27908e-05
2.94012e-05
2.61197e-05
2.31334e-05
2.05592e-05
1.83156e-05
1.59888e-05
1.2783e-05
7.7943e-06
2.01417e-06
1.56446e-08
2.83117e-08
3.5839e-06
1.38116e-05
2.38866e-05
3.15737e-05
3.72875e-05
4.15965e-05
4.49046e-05
4.74662e-05
4.94351e-05
5.09033e-05
5.1931e-05
5.25664e-05
5.28598e-05
5.28719e-05
5.26762e-05
5.23571e-05
5.20028e-05
5.16954e-05
5.15008e-05
5.14621e-05
5.15975e-05
5.19033e-05
5.23596e-05
5.29372e-05
5.36026e-05
5.43225e-05
5.50659e-05
5.58056e-05
5.65181e-05
5.71845e-05
5.77894e-05
5.83209e-05
5.87703e-05
5.91314e-05
5.94008e-05
5.95775e-05
5.96615e-05
5.96565e-05
5.95775e-05
5.94258e-05
5.92041e-05
5.8926e-05
5.86058e-05
5.82573e-05
5.78602e-05
5.74365e-05
5.69997e-05
5.65602e-05
5.61243e-05
5.56913e-05
5.52655e-05
5.48489e-05
5.44423e-05
5.40449e-05
5.3654e-05
5.32638e-05
5.28653e-05
5.24566e-05
5.1857e-05
5.10094e-05
5.01353e-05
4.9176e-05
4.82964e-05
4.72567e-05
4.57754e-05
4.37089e-05
4.1185e-05
3.82925e-05
3.50598e-05
3.15844e-05
2.80325e-05
2.46193e-05
2.15505e-05
1.88916e-05
1.63673e-05
1.31906e-05
8.2458e-06
2.20762e-06
1.75688e-08
3.35657e-08
4.14125e-06
1.55964e-05
2.67026e-05
3.51676e-05
4.14376e-05
4.61333e-05
4.96957e-05
5.24057e-05
5.44351e-05
5.58888e-05
5.68367e-05
5.73367e-05
5.7451e-05
5.72555e-05
5.68424e-05
5.6316e-05
5.57821e-05
5.5334e-05
5.50405e-05
5.49395e-05
5.50386e-05
5.53208e-05
5.57536e-05
5.62969e-05
5.69095e-05
5.75526e-05
5.81921e-05
5.87992e-05
5.93503e-05
5.98269e-05
6.0215e-05
6.0505e-05
6.06905e-05
6.07683e-05
6.07393e-05
6.06094e-05
6.03768e-05
6.0031e-05
5.96445e-05
5.92235e-05
5.87274e-05
5.81841e-05
5.7602e-05
5.6997e-05
5.64124e-05
5.58352e-05
5.52625e-05
5.46909e-05
5.41591e-05
5.36445e-05
5.31517e-05
5.26832e-05
5.22407e-05
5.18257e-05
5.14374e-05
5.10741e-05
5.0731e-05
5.03997e-05
5.00662e-05
4.97278e-05
4.92269e-05
4.83792e-05
4.76158e-05
4.66273e-05
4.5898e-05
4.46551e-05
4.25546e-05
4.00696e-05
3.71183e-05
3.37456e-05
3.00885e-05
2.63551e-05
2.27966e-05
1.96075e-05
1.67077e-05
1.34513e-05
8.60347e-06
2.40014e-06
1.96124e-08
3.89797e-08
4.68442e-06
1.7284e-05
2.93457e-05
3.85447e-05
4.53382e-05
5.03912e-05
5.41782e-05
5.70041e-05
5.90578e-05
6.04574e-05
6.12842e-05
6.16089e-05
6.15094e-05
6.10815e-05
6.04397e-05
5.97096e-05
5.90127e-05
5.84488e-05
5.80838e-05
5.79447e-05
5.80241e-05
5.82896e-05
5.86957e-05
5.91926e-05
5.97325e-05
6.02731e-05
6.07785e-05
6.12198e-05
6.15742e-05
6.18252e-05
6.19615e-05
6.19766e-05
6.18701e-05
6.16397e-05
6.12912e-05
6.08705e-05
6.03428e-05
5.96189e-05
5.89876e-05
5.83632e-05
5.76191e-05
5.68684e-05
5.61613e-05
5.5484e-05
5.48352e-05
5.42518e-05
5.37119e-05
5.30792e-05
5.25439e-05
5.20244e-05
5.15097e-05
5.10019e-05
5.05026e-05
5.00167e-05
4.955e-05
4.91117e-05
4.87098e-05
4.83469e-05
4.80164e-05
4.77262e-05
4.74632e-05
4.72055e-05
4.67109e-05
4.58912e-05
4.51098e-05
4.42648e-05
4.31847e-05
4.12843e-05
3.88101e-05
3.57372e-05
3.21765e-05
2.83021e-05
2.43643e-05
2.06347e-05
1.72229e-05
1.37233e-05
8.93666e-06
2.61104e-06
2.19808e-08
4.44795e-08
5.20687e-06
1.88634e-05
3.18125e-05
4.17047e-05
4.89914e-05
5.4375e-05
5.83595e-05
6.12715e-05
6.33165e-05
6.46267e-05
6.52973e-05
6.54152e-05
6.5079e-05
6.44081e-05
6.35416e-05
6.26256e-05
6.17931e-05
6.11449e-05
6.07372e-05
6.0581e-05
6.06513e-05
6.09e-05
6.12695e-05
6.17017e-05
6.21444e-05
6.25532e-05
6.28923e-05
6.31337e-05
6.32571e-05
6.32492e-05
6.31036e-05
6.28143e-05
6.24118e-05
6.18598e-05
6.1106e-05
6.05061e-05
5.97623e-05
5.87453e-05
5.79176e-05
5.7152e-05
5.63535e-05
5.56126e-05
5.49496e-05
5.43561e-05
5.37778e-05
5.32747e-05
5.29619e-05
5.24702e-05
5.20148e-05
5.15862e-05
5.11164e-05
5.06038e-05
5.00509e-05
4.946e-05
4.88398e-05
4.82098e-05
4.75985e-05
4.70342e-05
4.65098e-05
4.60471e-05
4.5683e-05
4.53996e-05
4.5158e-05
4.49562e-05
4.42927e-05
4.36346e-05
4.26851e-05
4.18112e-05
3.99959e-05
3.73892e-05
3.41265e-05
3.0326e-05
2.61954e-05
2.2024e-05
1.8056e-05
1.41541e-05
9.31674e-06
2.86227e-06
2.49687e-08
4.99962e-08
5.70363e-06
2.03283e-05
3.41011e-05
4.46472e-05
5.23986e-05
5.80879e-05
6.22447e-05
6.52157e-05
6.7223e-05
6.84139e-05
6.89007e-05
6.87908e-05
6.82072e-05
6.72962e-05
6.62219e-05
6.51477e-05
6.42129e-05
6.3512e-05
6.3086e-05
6.29268e-05
6.29905e-05
6.32143e-05
6.35301e-05
6.3874e-05
6.41912e-05
6.44372e-05
6.45778e-05
6.4588e-05
6.44515e-05
6.41582e-05
6.37289e-05
6.3038e-05
6.22496e-05
6.1617e-05
6.06142e-05
5.96621e-05
5.87276e-05
5.77158e-05
5.68563e-05
5.61039e-05
5.54261e-05
5.48633e-05
5.44138e-05
5.40586e-05
5.37181e-05
5.35133e-05
5.33967e-05
5.30709e-05
5.28316e-05
5.25412e-05
5.22025e-05
5.18075e-05
5.13223e-05
5.07342e-05
5.00328e-05
4.92143e-05
4.8286e-05
4.72828e-05
4.63043e-05
4.54248e-05
4.46992e-05
4.41723e-05
4.37266e-05
4.34786e-05
4.33192e-05
4.27845e-05
4.20971e-05
4.11787e-05
4.03304e-05
3.85469e-05
3.57519e-05
3.22419e-05
2.81462e-05
2.37155e-05
1.92582e-05
1.48604e-05
9.81783e-06
3.18023e-06
2.90081e-08
5.54671e-08
6.17118e-06
2.16755e-05
3.62112e-05
4.73731e-05
5.55617e-05
6.1533e-05
6.58388e-05
6.88448e-05
7.07895e-05
7.18377e-05
7.21218e-05
7.17736e-05
7.09439e-05
6.98074e-05
6.85513e-05
6.73519e-05
6.6348e-05
6.56217e-05
6.51946e-05
6.50376e-05
6.50888e-05
6.52722e-05
6.55119e-05
6.57406e-05
6.59028e-05
6.59564e-05
6.58707e-05
6.56248e-05
6.52227e-05
6.44798e-05
6.36246e-05
6.29407e-05
6.18999e-05
6.08926e-05
5.97776e-05
5.87013e-05
5.77324e-05
5.68333e-05
5.61209e-05
5.55792e-05
5.51821e-05
5.49352e-05
5.47995e-05
5.47674e-05
5.47836e-05
5.48213e-05
5.4864e-05
5.48301e-05
5.47891e-05
5.46731e-05
5.44781e-05
5.41887e-05
5.37843e-05
5.32551e-05
5.25917e-05
5.17856e-05
5.08293e-05
4.97202e-05
4.84626e-05
4.7053e-05
4.55279e-05
4.40591e-05
4.30576e-05
4.23657e-05
4.18825e-05
4.16605e-05
4.11476e-05
4.04513e-05
3.96509e-05
3.87775e-05
3.68799e-05
3.38481e-05
3.00262e-05
2.55651e-05
2.07816e-05
1.59019e-05
1.04961e-05
3.59033e-06
3.47025e-08
6.08376e-08
6.60716e-06
2.29042e-05
3.81443e-05
4.98845e-05
5.84833e-05
6.47139e-05
6.91476e-05
7.21676e-05
7.403e-05
7.4919e-05
7.49902e-05
7.44032e-05
7.33391e-05
7.20004e-05
7.05939e-05
6.93031e-05
6.82595e-05
6.75282e-05
6.71085e-05
6.69504e-05
6.69758e-05
6.70981e-05
6.72363e-05
6.73219e-05
6.73016e-05
6.71378e-05
6.68079e-05
6.62091e-05
6.52796e-05
6.44748e-05
6.35368e-05
6.24286e-05
6.12284e-05
6.00206e-05
5.88868e-05
5.78645e-05
5.70344e-05
5.63905e-05
5.59794e-05
5.57786e-05
5.57432e-05
5.5914e-05
5.61114e-05
5.62687e-05
5.66239e-05
5.68764e-05
5.70851e-05
5.72306e-05
5.72997e-05
5.72649e-05
5.71217e-05
5.68644e-05
5.64778e-05
5.59586e-05
5.53017e-05
5.44998e-05
5.35476e-05
5.24403e-05
5.11726e-05
4.97477e-05
4.8182e-05
4.6454e-05
4.45026e-05
4.25362e-05
4.12479e-05
4.0508e-05
4.01009e-05
3.9573e-05
3.88735e-05
3.81057e-05
3.71445e-05
3.49559e-05
3.16316e-05
2.73813e-05
2.24926e-05
1.72422e-05
1.14054e-05
4.11696e-06
4.28894e-08
6.60601e-08
7.01012e-06
2.40152e-05
3.99027e-05
5.21843e-05
6.11671e-05
6.76356e-05
7.2178e-05
7.51947e-05
7.69603e-05
7.76804e-05
7.75372e-05
7.67203e-05
7.54415e-05
7.39291e-05
7.24053e-05
7.10538e-05
6.9994e-05
6.92696e-05
6.88575e-05
6.86879e-05
6.86691e-05
6.87068e-05
6.87176e-05
6.86348e-05
6.84102e-05
6.80106e-05
6.72101e-05
6.62045e-05
6.53849e-05
6.42674e-05
6.30688e-05
6.17063e-05
6.04173e-05
5.92066e-05
5.81797e-05
5.73695e-05
5.68288e-05
5.65486e-05
5.65213e-05
5.67306e-05
5.71714e-05
5.75269e-05
5.79052e-05
5.85019e-05
5.89715e-05
5.9383e-05
5.97094e-05
5.99408e-05
6.00551e-05
6.00402e-05
5.98881e-05
5.95896e-05
5.91443e-05
5.8555e-05
5.78255e-05
5.69511e-05
5.5935e-05
5.47832e-05
5.35094e-05
5.21102e-05
5.05923e-05
4.89527e-05
4.70891e-05
4.50513e-05
4.27102e-05
4.04227e-05
3.9248e-05
3.8612e-05
3.79807e-05
3.73273e-05
3.65265e-05
3.53991e-05
3.27726e-05
2.89639e-05
2.4208e-05
1.87704e-05
1.25619e-05
4.76764e-06
5.46406e-08
7.10897e-08
7.37926e-06
2.50103e-05
4.14901e-05
5.42765e-05
6.36177e-05
7.0304e-05
7.49384e-05
7.79382e-05
7.95976e-05
8.01463e-05
7.97947e-05
7.8764e-05
7.72959e-05
7.56411e-05
7.40312e-05
7.2645e-05
7.15848e-05
7.08717e-05
7.04603e-05
7.02637e-05
7.01793e-05
7.01083e-05
6.99674e-05
6.96917e-05
6.92302e-05
6.83006e-05
6.7276e-05
6.63669e-05
6.51683e-05
6.3801e-05
6.23632e-05
6.09503e-05
5.96822e-05
5.86144e-05
5.7829e-05
5.73508e-05
5.71914e-05
5.73181e-05
5.77974e-05
5.84277e-05
5.89167e-05
5.95565e-05
6.03577e-05
6.106e-05
6.16749e-05
6.22005e-05
6.26126e-05
6.28984e-05
6.30444e-05
6.30444e-05
6.28953e-05
6.26006e-05
6.21759e-05
6.16105e-05
6.08886e-05
5.99972e-05
5.89271e-05
5.76598e-05
5.62274e-05
5.46041e-05
5.28388e-05
5.09712e-05
4.91739e-05
4.73578e-05
4.52315e-05
4.28063e-05
3.99996e-05
3.80136e-05
3.7097e-05
3.63119e-05
3.58066e-05
3.47893e-05
3.33018e-05
3.01436e-05
2.57384e-05
2.03285e-05
1.3912e-05
5.52507e-06
7.10781e-08
7.58876e-08
7.71436e-06
2.58922e-05
4.29106e-05
5.6166e-05
6.58407e-05
7.27261e-05
7.74382e-05
8.04114e-05
8.1961e-05
8.23419e-05
8.17946e-05
8.05717e-05
7.89426e-05
7.71762e-05
7.55081e-05
7.41068e-05
7.30549e-05
7.23505e-05
7.19279e-05
7.16858e-05
7.15138e-05
7.13114e-05
7.09962e-05
7.04997e-05
6.9511e-05
6.84296e-05
6.74623e-05
6.62151e-05
6.47102e-05
6.31665e-05
6.1654e-05
6.02885e-05
5.91687e-05
5.83641e-05
5.79226e-05
5.78427e-05
5.80947e-05
5.87962e-05
5.96284e-05
6.02546e-05
6.10876e-05
6.21272e-05
6.30613e-05
6.39038e-05
6.465e-05
6.52796e-05
6.57744e-05
6.61216e-05
6.63114e-05
6.6338e-05
6.61982e-05
6.58915e-05
6.54209e-05
6.47996e-05
6.40493e-05
6.31892e-05
6.21946e-05
6.10179e-05
5.95846e-05
5.7889e-05
5.59906e-05
5.3843e-05
5.14936e-05
4.91851e-05
4.71447e-05
4.50941e-05
4.24578e-05
3.94579e-05
3.67433e-05
3.54822e-05
3.45612e-05
3.41274e-05
3.27116e-05
3.08146e-05
2.69223e-05
2.1753e-05
1.53144e-05
6.34688e-06
9.30183e-08
8.04249e-08
8.01562e-06
2.66643e-05
4.4169e-05
5.78581e-05
6.78424e-05
7.491e-05
7.96883e-05
8.26293e-05
8.40699e-05
8.42923e-05
8.3567e-05
8.21771e-05
8.04165e-05
7.85673e-05
7.68637e-05
7.54607e-05
7.44193e-05
7.3716e-05
7.32672e-05
7.296e-05
7.26793e-05
7.23262e-05
7.18203e-05
7.0837e-05
6.96464e-05
6.8672e-05
6.73866e-05
6.57955e-05
6.41417e-05
6.25191e-05
6.10423e-05
5.98287e-05
5.89672e-05
5.85105e-05
5.84666e-05
5.87988e-05
5.96555e-05
6.06863e-05
6.14927e-05
6.24907e-05
6.36956e-05
6.49068e-05
6.5987e-05
6.69741e-05
6.78449e-05
6.85789e-05
6.91599e-05
6.95753e-05
6.98159e-05
6.98758e-05
6.97521e-05
6.9445e-05
6.8958e-05
6.82961e-05
6.7464e-05
6.64714e-05
6.53543e-05
6.41705e-05
6.28703e-05
6.1367e-05
5.95087e-05
5.73518e-05
5.48908e-05
5.20968e-05
4.93108e-05
4.67524e-05
4.44702e-05
4.18546e-05
3.85601e-05
3.54466e-05
3.39688e-05
3.27595e-05
3.20671e-05
3.05829e-05
2.76389e-05
2.28888e-05
1.65949e-05
7.14794e-06
1.20438e-07
8.46787e-08
8.28351e-06
2.73302e-05
4.52712e-05
5.93586e-05
6.96297e-05
7.68645e-05
8.17005e-05
8.46072e-05
8.59446e-05
8.6022e-05
8.51403e-05
8.36104e-05
8.17469e-05
7.984e-05
7.81186e-05
7.67212e-05
7.56878e-05
7.49745e-05
7.44829e-05
7.40913e-05
7.36824e-05
7.31631e-05
7.22902e-05
7.09637e-05
6.99692e-05
6.86975e-05
6.70471e-05
6.52969e-05
6.35568e-05
6.19508e-05
6.06079e-05
5.96384e-05
5.91107e-05
5.90434e-05
5.94048e-05
6.03535e-05
6.15358e-05
6.25757e-05
6.3714e-05
6.50319e-05
6.65008e-05
6.78508e-05
6.90855e-05
7.02131e-05
7.12059e-05
7.2045e-05
7.27142e-05
7.32006e-05
7.34943e-05
7.35884e-05
7.34793e-05
7.31667e-05
7.26541e-05
7.19483e-05
7.10595e-05
7.00004e-05
6.87826e-05
6.74094e-05
6.59348e-05
6.44518e-05
6.28263e-05
6.08856e-05
5.85315e-05
5.56879e-05
5.26022e-05
4.95163e-05
4.64011e-05
4.36681e-05
4.08489e-05
3.72488e-05
3.38529e-05
3.22433e-05
3.08782e-05
2.99242e-05
2.78939e-05
2.36169e-05
1.76091e-05
7.82426e-06
1.52393e-07
8.86301e-08
8.51846e-06
2.78922e-05
4.62271e-05
6.06723e-05
7.12097e-05
7.8599e-05
8.3487e-05
8.6361e-05
8.76046e-05
8.75546e-05
8.65401e-05
8.48975e-05
8.29575e-05
8.10142e-05
7.92875e-05
7.78983e-05
7.68664e-05
7.61306e-05
7.55802e-05
7.50869e-05
7.45291e-05
7.37997e-05
7.24588e-05
7.13467e-05
7.01173e-05
6.84625e-05
6.66338e-05
6.47798e-05
6.30308e-05
6.15278e-05
6.04003e-05
5.97398e-05
5.9582e-05
5.99067e-05
6.0864e-05
6.21608e-05
6.34164e-05
6.47278e-05
6.6189e-05
6.77587e-05
6.94026e-05
7.09111e-05
7.2297e-05
7.35591e-05
7.46707e-05
7.56132e-05
7.63704e-05
7.6929e-05
7.7278e-05
7.74095e-05
7.73184e-05
7.7003e-05
7.64655e-05
7.57127e-05
7.4756e-05
7.3611e-05
7.22964e-05
7.08315e-05
6.92333e-05
6.75032e-05
6.57455e-05
6.39736e-05
6.19235e-05
5.92751e-05
5.61343e-05
5.29736e-05
4.95028e-05
4.59462e-05
4.2549e-05
3.95227e-05
3.54689e-05
3.19487e-05
3.00107e-05
2.92531e-05
2.72511e-05
2.38988e-05
1.82436e-05
8.3201e-06
1.87595e-07
9.22649e-08
8.72142e-06
2.83544e-05
4.70411e-05
6.18054e-05
7.25904e-05
8.01237e-05
8.50606e-05
8.79069e-05
8.90694e-05
8.89116e-05
8.77893e-05
8.60604e-05
8.40677e-05
8.21049e-05
8.03808e-05
7.89987e-05
7.796e-05
7.71886e-05
7.65651e-05
7.59589e-05
7.52527e-05
7.40644e-05
7.27212e-05
7.15829e-05
7.00183e-05
6.81463e-05
6.61962e-05
6.43028e-05
6.26178e-05
6.12898e-05
6.04359e-05
6.01168e-05
6.03294e-05
6.11938e-05
6.25628e-05
6.40054e-05
6.54299e-05
6.70634e-05
6.8813e-05
7.05841e-05
7.23445e-05
7.40243e-05
7.55546e-05
7.69433e-05
7.81671e-05
7.92083e-05
8.00511e-05
8.06822e-05
8.10903e-05
8.12663e-05
8.12034e-05
8.08975e-05
8.03482e-05
7.95596e-05
7.85415e-05
7.73095e-05
7.58852e-05
7.42946e-05
7.25644e-05
7.07165e-05
6.87615e-05
6.67431e-05
6.48016e-05
6.25818e-05
5.96391e-05
5.61848e-05
5.2946e-05
4.91579e-05
4.50136e-05
4.12087e-05
3.77471e-05
3.3208e-05
2.98482e-05
2.76683e-05
2.66773e-05
2.39265e-05
1.85404e-05
8.65164e-06
2.24216e-07
9.55724e-08
8.89344e-06
2.87217e-05
4.77141e-05
6.27659e-05
7.37802e-05
8.14489e-05
8.64345e-05
8.92605e-05
9.0357e-05
9.01129e-05
8.89078e-05
8.71174e-05
8.50924e-05
8.31234e-05
8.14063e-05
8.00277e-05
7.89726e-05
7.8153e-05
7.74418e-05
7.67027e-05
7.57637e-05
7.423e-05
7.30643e-05
7.16985e-05
6.98151e-05
6.78033e-05
6.57823e-05
6.39094e-05
6.23507e-05
6.12523e-05
6.07086e-05
6.07423e-05
6.13708e-05
6.27303e-05
6.43443e-05
6.58669e-05
6.75932e-05
6.94916e-05
7.14613e-05
7.34302e-05
7.5313e-05
7.71045e-05
7.87827e-05
8.02887e-05
8.16144e-05
8.27455e-05
8.36684e-05
8.43707e-05
8.48416e-05
8.50712e-05
8.50512e-05
8.47747e-05
8.42372e-05
8.34383e-05
8.23829e-05
8.10831e-05
7.95594e-05
7.78406e-05
7.59619e-05
7.39598e-05
7.18648e-05
6.96911e-05
6.74416e-05
6.53084e-05
6.28267e-05
5.95058e-05
5.59494e-05
5.24551e-05
4.82559e-05
4.36382e-05
3.94606e-05
3.54248e-05
3.05661e-05
2.73789e-05
2.60181e-05
2.35023e-05
1.8588e-05
8.92241e-06
2.63266e-07
9.85448e-08
9.03554e-06
2.89982e-05
4.82502e-05
6.35607e-05
7.47878e-05
8.25852e-05
8.76214e-05
9.04371e-05
9.14846e-05
9.11763e-05
8.99126e-05
8.80834e-05
8.60437e-05
8.4078e-05
8.23696e-05
8.09894e-05
7.9909e-05
7.90314e-05
7.82278e-05
7.7369e-05
7.60484e-05
7.46018e-05
7.34246e-05
7.16177e-05
6.9586e-05
6.74728e-05
6.5428e-05
6.36269e-05
6.22415e-05
6.14046e-05
6.11803e-05
6.15585e-05
6.27051e-05
6.43591e-05
6.60751e-05
6.7823e-05
6.98157e-05
7.19343e-05
7.40874e-05
7.62076e-05
7.8242e-05
8.01263e-05
8.18871e-05
8.35109e-05
8.49265e-05
8.61349e-05
8.71284e-05
8.78974e-05
8.84324e-05
8.87241e-05
8.87629e-05
8.85392e-05
8.8044e-05
8.72705e-05
8.62164e-05
8.48863e-05
8.32949e-05
8.14686e-05
7.94455e-05
7.72725e-05
7.49981e-05
7.26624e-05
7.02839e-05
6.78576e-05
6.55566e-05
6.26517e-05
5.89034e-05
5.53923e-05
5.14984e-05
4.6772e-05
4.1726e-05
3.71898e-05
3.22986e-05
2.76606e-05
2.44192e-05
2.30064e-05
1.85917e-05
9.3002e-06
3.09233e-07
1.01178e-07
9.14879e-06
2.91876e-05
4.86546e-05
6.41965e-05
7.56216e-05
8.35433e-05
8.86341e-05
9.14512e-05
9.24678e-05
9.21175e-05
9.08184e-05
8.89707e-05
8.69307e-05
8.49755e-05
8.32756e-05
8.18882e-05
8.07738e-05
7.98281e-05
7.89154e-05
7.78865e-05
7.62481e-05
7.49589e-05
7.35237e-05
7.15147e-05
6.936e-05
6.71835e-05
6.51569e-05
6.34688e-05
6.22889e-05
6.17294e-05
6.18206e-05
6.25762e-05
6.41318e-05
6.59889e-05
6.77995e-05
6.98109e-05
7.20256e-05
7.43272e-05
7.66328e-05
7.88807e-05
8.10242e-05
8.3028e-05
8.48294e-05
8.65169e-05
8.80172e-05
8.92874e-05
9.03379e-05
9.11646e-05
9.17613e-05
9.21202e-05
9.22318e-05
9.20843e-05
9.16641e-05
9.09574e-05
8.99525e-05
8.86437e-05
8.7035e-05
8.51445e-05
8.30066e-05
8.0672e-05
7.8202e-05
7.56583e-05
7.30887e-05
7.05119e-05
6.79497e-05
6.54317e-05
6.20515e-05
5.80971e-05
5.44083e-05
5.00489e-05
4.46265e-05
3.92532e-05
3.43075e-05
2.88045e-05
2.45007e-05
2.25391e-05
1.86692e-05
9.84465e-06
3.66548e-07
1.03469e-07
9.23434e-06
2.92942e-05
4.89327e-05
6.46801e-05
7.62902e-05
8.43335e-05
8.94849e-05
9.23166e-05
9.3321e-05
9.29505e-05
9.16375e-05
8.97893e-05
8.77609e-05
8.58211e-05
8.41286e-05
8.27288e-05
8.1574e-05
8.05567e-05
7.95485e-05
7.82425e-05
7.65612e-05
7.53979e-05
7.35382e-05
7.1408e-05
6.91618e-05
6.69562e-05
6.4982e-05
6.34348e-05
6.24747e-05
6.21875e-05
6.2572e-05
6.37544e-05
6.55721e-05
6.75528e-05
6.95263e-05
7.17663e-05
7.41639e-05
7.66155e-05
7.90446e-05
8.13945e-05
8.3623e-05
8.5701e-05
8.75695e-05
8.92408e-05
9.08056e-05
9.21215e-05
9.3212e-05
9.40832e-05
9.47342e-05
9.51607e-05
9.53546e-05
9.53032e-05
9.4989e-05
9.43913e-05
9.34881e-05
9.22606e-05
9.06985e-05
8.88059e-05
8.66069e-05
8.41483e-05
8.14976e-05
7.87346e-05
7.59348e-05
7.3149e-05
7.03826e-05
6.77229e-05
6.48098e-05
6.08231e-05
5.69902e-05
5.29361e-05
4.79279e-05
4.16142e-05
3.60304e-05
3.04797e-05
2.49539e-05
2.14656e-05
1.86495e-05
1.03515e-05
4.32843e-07
1.05419e-07
9.29341e-06
2.93222e-05
4.90902e-05
6.50186e-05
7.6802e-05
8.49661e-05
9.01855e-05
9.30459e-05
9.4057e-05
9.36873e-05
9.23803e-05
9.05474e-05
8.85405e-05
8.66198e-05
8.49331e-05
8.35167e-05
8.23168e-05
8.12236e-05
8.01062e-05
7.85331e-05
7.69584e-05
7.56104e-05
7.3561e-05
7.13215e-05
6.90106e-05
6.68042e-05
6.49068e-05
6.35163e-05
6.27786e-05
6.27555e-05
6.34275e-05
6.49623e-05
6.69653e-05
6.90424e-05
7.12132e-05
7.36359e-05
7.61805e-05
7.87504e-05
8.12736e-05
8.36965e-05
8.59792e-05
8.80924e-05
9.00144e-05
9.168e-05
9.32163e-05
9.45689e-05
9.56806e-05
9.65791e-05
9.72723e-05
9.77614e-05
9.80415e-05
9.81004e-05
9.79186e-05
9.74687e-05
9.67187e-05
9.56355e-05
9.41913e-05
9.23715e-05
9.01831e-05
8.7661e-05
8.48707e-05
8.1903e-05
7.88597e-05
7.58295e-05
7.28598e-05
6.99277e-05
6.71884e-05
6.36577e-05
5.93933e-05
5.551e-05
5.09378e-05
4.47907e-05
3.80211e-05
3.22725e-05
2.60262e-05
2.08918e-05
1.8551e-05
1.07348e-05
5.0322e-07
1.07033e-07
9.32727e-06
2.92761e-05
4.91329e-05
6.52187e-05
7.71655e-05
8.54508e-05
9.07469e-05
9.36508e-05
9.46875e-05
9.43384e-05
9.30556e-05
9.1252e-05
8.9275e-05
8.73761e-05
8.56942e-05
8.42582e-05
8.30105e-05
8.18397e-05
8.06059e-05
7.8806e-05
7.74249e-05
7.57684e-05
7.36002e-05
7.12727e-05
6.89202e-05
6.67339e-05
6.49281e-05
6.36984e-05
6.31746e-05
6.33928e-05
6.43388e-05
6.61316e-05
6.82787e-05
7.04554e-05
7.28079e-05
7.53747e-05
7.80328e-05
8.06903e-05
8.32783e-05
8.57455e-05
8.80544e-05
9.01787e-05
9.21031e-05
9.37688e-05
9.52244e-05
9.65809e-05
9.76927e-05
9.85986e-05
9.93178e-05
9.98591e-05
0.000100223
0.0001004
0.00010037
0.0001001
9.95504e-05
9.86719e-05
9.74183e-05
9.57526e-05
9.36587e-05
9.11516e-05
8.82853e-05
8.51523e-05
8.18734e-05
7.85739e-05
7.53511e-05
7.22428e-05
6.92351e-05
6.6135e-05
6.18104e-05
5.77263e-05
5.36475e-05
4.79684e-05
4.05047e-05
3.39373e-05
2.74262e-05
2.14427e-05
1.83599e-05
1.11872e-05
5.77619e-07
1.08315e-07
9.33728e-06
2.91603e-05
4.90665e-05
6.52876e-05
7.73886e-05
8.5797e-05
9.11796e-05
9.41422e-05
9.52227e-05
9.49131e-05
9.36711e-05
9.19094e-05
8.99695e-05
8.80953e-05
8.64181e-05
8.49619e-05
8.36689e-05
8.24294e-05
8.10531e-05
7.91569e-05
7.78323e-05
7.59177e-05
7.36687e-05
7.1275e-05
6.88994e-05
6.67467e-05
6.50375e-05
6.39616e-05
6.36307e-05
6.40554e-05
6.52616e-05
6.72272e-05
6.94905e-05
7.1769e-05
7.42696e-05
7.69458e-05
7.96857e-05
8.24012e-05
8.50253e-05
8.75084e-05
8.98147e-05
9.19198e-05
9.38099e-05
9.5462e-05
9.68365e-05
9.81242e-05
9.92187e-05
0.000100111
0.000100837
0.000101415
0.000101854
0.00010215
0.000102283
0.000102219
0.000101908
0.000101288
0.000100294
9.88639e-05
9.69536e-05
9.45517e-05
9.16908e-05
8.84547e-05
8.49731e-05
8.14009e-05
7.78807e-05
7.44977e-05
7.12362e-05
6.81592e-05
6.42722e-05
5.9737e-05
5.59663e-05
5.07544e-05
4.35279e-05
3.563e-05
2.90514e-05
2.18788e-05
1.78095e-05
1.16796e-05
6.48245e-07
1.09276e-07
9.32483e-06
2.89796e-05
4.88968e-05
6.52316e-05
7.74787e-05
8.60132e-05
9.14929e-05
9.45301e-05
9.56724e-05
9.54203e-05
9.42347e-05
9.25262e-05
9.06308e-05
8.87857e-05
8.71167e-05
8.56469e-05
8.43238e-05
8.29961e-05
8.13838e-05
7.95724e-05
7.8185e-05
7.61042e-05
7.37807e-05
7.13382e-05
6.89529e-05
6.68402e-05
6.52239e-05
6.42864e-05
6.41228e-05
6.47261e-05
6.61345e-05
6.82226e-05
7.05793e-05
7.29559e-05
7.55664e-05
7.83199e-05
8.11121e-05
8.38573e-05
8.64902e-05
8.89629e-05
9.12407e-05
9.33011e-05
9.51327e-05
9.67336e-05
9.80413e-05
9.91985e-05
0.000100252
0.000101107
0.000101819
0.000102416
0.000102918
0.000103326
0.000103626
0.000103783
0.00010374
0.000103425
0.000102751
0.000101632
9.99938e-05
9.77918e-05
9.50291e-05
9.17697e-05
8.81412e-05
8.43202e-05
8.04966e-05
7.68225e-05
7.33625e-05
7.00932e-05
6.66004e-05
6.17781e-05
5.78928e-05
5.33788e-05
4.6522e-05
3.78257e-05
3.05027e-05
2.32401e-05
1.72184e-05
1.22199e-05
7.07224e-07
1.09925e-07
9.29131e-06
2.87383e-05
4.86284e-05
6.50547e-05
7.74401e-05
8.61056e-05
9.16961e-05
9.48256e-05
9.60484e-05
9.58716e-05
9.47578e-05
9.31145e-05
9.12737e-05
8.94692e-05
8.78245e-05
8.63379e-05
8.4907e-05
8.34602e-05
8.18085e-05
8.00139e-05
7.85103e-05
7.63309e-05
7.39469e-05
7.14696e-05
6.90829e-05
6.701e-05
6.54755e-05
6.46545e-05
6.46283e-05
6.5377e-05
6.69258e-05
6.90982e-05
7.15262e-05
7.39908e-05
7.6675e-05
7.94759e-05
8.22931e-05
8.50421e-05
8.76573e-05
9.00968e-05
9.23228e-05
9.43174e-05
9.60708e-05
9.75902e-05
9.88251e-05
9.98303e-05
0.000100807
0.000101602
0.000102277
0.000102874
0.000103421
0.000103931
0.000104394
0.000104778
0.000105023
0.000105046
0.000104743
0.000104002
0.000102718
0.000100809
9.82417e-05
9.505e-05
9.13465e-05