/*--------------------------------*- C++ -*----------------------------------*\
  =========                 |
  \\      /  F ield         | OpenFOAM: The Open Source CFD Toolbox
   \\    /   O peration     | Website:  https://openfoam.org
    \\  /    A nd           | Version:  13
     \\/     M anipulation  |
\*---------------------------------------------------------------------------*/
FoamFile
{
    format      ascii;
    class       volScalarField;
    location    "1.7";
    object      p;
}
// * * * * * * * * * * * * * * * * * * * * * * * * * * * * * * * * * * * * * //

dimensions      [0 2 -2 0 0 0 0];

internalField   nonuniform List<scalar> 
6400
(
8.80422e-09
-1.29969e-06
-8.96943e-06
-2.22443e-05
-3.95351e-05
-5.95116e-05
-8.13881e-05
-0.000104903
-0.000130036
-0.000156747
-0.000185412
-0.00021606
-0.000248881
-0.000284045
-0.000321746
-0.00036217
-0.000405459
-0.000451733
-0.000501064
-0.000553465
-0.000608869
-0.000667118
-0.000727962
-0.000791052
-0.00085594
-0.000922078
-0.000988813
-0.00105537
-0.00112085
-0.00118418
-0.00124413
-0.00129923
-0.00134781
-0.00138794
-0.00141747
-0.00143402
-0.00143505
-0.00141787
-0.0013797
-0.00131777
-0.00122947
-0.00111235
-0.000964284
-0.000783521
-0.000568911
-0.000320731
-4.12892e-05
0.000269685
0.000614177
0.000985022
0.00137331
0.00177501
0.00218192
0.00258431
0.00297132
0.00333239
0.00365744
0.0039373
0.0041645
0.00433405
0.00444393
0.00449541
0.00449307
0.00444439
0.00435818
0.00424669
0.00412054
0.00398971
0.00386267
0.00374511
0.00364144
0.00355398
0.00348252
0.00342642
0.00338452
0.00335527
0.00333705
0.00332814
0.00332647
0.00332958
1.06416e-06
-3.8318e-07
-7.48683e-06
-1.96682e-05
-3.54542e-05
-5.38555e-05
-7.42837e-05
-9.64366e-05
-0.000120326
-0.000146028
-0.000173745
-0.000203612
-0.00023577
-0.000270375
-0.000307562
-0.000347466
-0.000390226
-0.000435935
-0.000484629
-0.00053628
-0.000590778
-0.000647924
-0.000707429
-0.000768915
-0.000831925
-0.000895917
-0.000960263
-0.00102425
-0.00108705
-0.00114773
-0.0012052
-0.00125819
-0.00130521
-0.00134454
-0.00137422
-0.00139203
-0.00139557
-0.0013823
-0.0013495
-0.00129435
-0.00121415
-0.00110636
-0.000968713
-0.000799356
-0.000597147
-0.000362069
-9.46234e-05
0.000205943
0.00053659
0.000891639
0.00126692
0.00165592
0.00205049
0.00244197
0.00282044
0.00317548
0.0034974
0.00377734
0.00400793
0.00418409
0.0043035
0.00436687
0.00437809
0.00434385
0.00427294
0.00417582
0.00406268
0.00394409
0.00382776
0.00371993
0.00362459
0.00354336
0.00347698
0.00342488
0.00338579
0.00335826
0.0033408
0.00333192
0.00333007
0.00333319
8.57442e-06
6.16469e-06
-1.30693e-06
-1.28479e-05
-2.7232e-05
-4.36002e-05
-6.18923e-05
-8.20642e-05
-0.000104134
-0.000128192
-0.000154385
-0.000182849
-0.000213721
-0.000247144
-0.000283251
-0.000322163
-0.000363982
-0.000408767
-0.000456514
-0.000507141
-0.000560487
-0.00061631
-0.000674293
-0.000734049
-0.000795135
-0.000857062
-0.000919292
-0.000981228
-0.0010422
-0.00110145
-0.0011581
-0.0012111
-0.00125922
-0.00130099
-0.00133469
-0.00135828
-0.00136943
-0.00136554
-0.00134388
-0.00130162
-0.00123594
-0.00114411
-0.00102361
-0.000872273
-0.000688544
-0.000471841
-0.000222634
5.82749e-05
0.000371651
0.000710347
0.00107006
0.0014449
0.00182706
0.00220887
0.00258117
0.00293373
0.00325692
0.0035422
0.0037821
0.00397126
0.00410677
0.00418859
0.00421964
0.00420568
0.00415467
0.00407629
0.00398058
0.00387663
0.00377356
0.00367698
0.00359124
0.00351847
0.00345862
0.00341154
0.00337616
0.00335114
0.00333525
0.00332745
0.00332643
0.00333017
2.24676e-05
1.83635e-05
9.35948e-06
-2.46502e-06
-1.59317e-05
-3.05312e-05
-4.65428e-05
-6.43233e-05
-8.40987e-05
-0.000106029
-0.000130257
-0.000156916
-0.000186138
-0.000218054
-0.00025279
-0.000290455
-0.000331124
-0.000374827
-0.000421527
-0.000471115
-0.000523412
-0.000578175
-0.000635111
-0.000693885
-0.000754139
-0.000815503
-0.000877592
-0.000939987
-0.00100222
-0.00106375
-0.00112391
-0.00118185
-0.00123649
-0.00128652
-0.00133025
-0.00136567
-0.00139035
-0.00140152
-0.00139622
-0.00137137
-0.00132383
-0.00125055
-0.00114869
-0.00101578
-0.000849947
-0.000650214
-0.000416645
-0.000149146
0.000150391
0.000477897
0.000828942
0.00119762
0.00157652
0.00195788
0.0023332
0.00269227
0.003025
0.00332279
0.00357775
0.00378397
0.00393782
0.00403833
0.00408757
0.00409065
0.00405494
0.00398978
0.00390515
0.00381079
0.00371553
0.00362609
0.00354691
0.00348036
0.0034267
0.003385
0.00335368
0.00333164
0.00331808
0.00331236
0.00331305
0.00331778
4.176e-05
3.5207e-05
2.39196e-05
1.02595e-05
-3.55568e-06
-1.72933e-05
-3.17717e-05
-4.77262e-05
-6.56048e-05
-8.56809e-05
-0.000108145
-0.000133151
-0.000160837
-0.000191338
-0.000224781
-0.000261272
-0.000300883
-0.000343641
-0.000389522
-0.000438446
-0.000490282
-0.000544859
-0.00060198
-0.000661434
-0.000723013
-0.000786506
-0.000851699
-0.000918357
-0.000986188
-0.0010548
-0.00112365
-0.00119195
-0.00125866
-0.00132237
-0.00138127
-0.00143315
-0.00147543
-0.00150516
-0.00151905
-0.0015137
-0.00148561
-0.0014314
-0.00134793
-0.00123247
-0.00108288
-0.000897924
-0.000677461
-0.000420266
-0.000129502
0.000191948
0.000539902
0.000908701
0.00129121
0.00167921
0.00206449
0.00243733
0.00278707
0.00310421
0.00338054
0.00360936
0.00378601
0.00390846
0.00397784
0.00399843
0.00397695
0.00392261
0.00384541
0.0037558
0.00366348
0.00357616
0.00349911
0.003435
0.00338445
0.00334615
0.00331834
0.00329945
0.00328873
0.00328578
0.0032886
0.00329419
6.48207e-05
5.55508e-05
4.07421e-05
2.38892e-05
8.35841e-06
-5.72841e-06
-1.97264e-05
-3.47415e-05
-5.14446e-05
-7.02448e-05
-9.14116e-05
-0.000115143
-0.000141605
-0.000170953
-0.00020333
-0.000238863
-0.00027766
-0.000319794
-0.000365303
-0.000414194
-0.000466445
-0.000522014
-0.000580853
-0.000642917
-0.000708173
-0.000776594
-0.000848139
-0.000922729
-0.0010002
-0.00108023
-0.00116229
-0.0012456
-0.00132897
-0.00141085
-0.00148921
-0.00156159
-0.0016251
-0.00167651
-0.00171229
-0.00172876
-0.00172214
-0.00168878
-0.00162525
-0.00152856
-0.0013963
-0.00122669
-0.00101862
-0.000773309
-0.000491223
-0.000175221
0.000170691
0.000541191
0.000929542
0.00132747
0.00172617
0.00211665
0.00248874
0.0028317
0.00313648
0.00339515
0.0036019
0.00375387
0.00385099
0.00389587
0.00389451
0.00385559
0.00378878
0.00370513
0.00361546
0.00352871
0.00345134
0.00338701
0.00333678
0.00329967
0.00327372
0.00325704
0.00324876
0.00324836
0.00325305
0.00325925
8.96856e-05
7.75699e-05
5.83288e-05
3.70262e-05
1.86059e-05
3.09105e-06
-1.14099e-05
-2.63588e-05
-4.26438e-05
-6.08175e-05
-8.12431e-05
-0.00010418
-0.000129836
-0.000158403
-0.000190062
-0.000224994
-0.000263378
-0.000305382
-0.000351165
-0.000400874
-0.000454644
-0.000512604
-0.000574886
-0.000641631
-0.000712993
-0.000789124
-0.000870142
-0.000956092
-0.00104688
-0.00114223
-0.00124156
-0.00134397
-0.00144814
-0.00155229
-0.00165416
-0.00175103
-0.00183974
-0.00191673
-0.00197822
-0.00202025
-0.00203882
-0.00202996
-0.00198996
-0.00191556
-0.00180405
-0.00165319
-0.00146142
-0.00123002
-0.000958911
-0.000650433
-0.000308168
6.29797e-05
0.000456743
0.000865466
0.00128035
0.00169197
0.00209024
0.00246469
0.00280565
0.0031035
0.00335112
0.00354389
0.00367952
0.00375912
0.00378802
0.0037733
0.00372404
0.00365157
0.00356779
0.00348295
0.00340499
0.00333905
0.00328726
0.00324935
0.00322344
0.00320753
0.00320054
0.0032016
0.00320744
0.00321402
0.000114306
9.90822e-05
7.47558e-05
4.80594e-05
2.58381e-05
8.01392e-06
-7.83459e-06
-2.35059e-05
-4.00933e-05
-5.82903e-05
-7.8558e-05
-0.000101225
-0.000126553
-0.000154787
-0.000186174
-0.000220979
-0.000259494
-0.000302031
-0.000348915
-0.000400477
-0.000457044
-0.000518944
-0.00058651
-0.000660083
-0.000740008
-0.000826609
-0.000920152
-0.00102078
-0.00112847
-0.0012429
-0.00136345
-0.00148909
-0.0016183
-0.00174911
-0.00187901
-0.002005
-0.00212368
-0.00223116
-0.0023233
-0.00239597
-0.00244487
-0.00246568
-0.00245436
-0.00240734
-0.00232156
-0.00219447
-0.00202432
-0.00181113
-0.00155517
-0.00125814
-0.000923028
-0.00055411
-0.000156974
0.000261535
0.000693354
0.00112921
0.00155832
0.00197017
0.00235414
0.00270025
0.0030002
0.00324705
0.00343619
0.00356597
0.00363864
0.00366045
0.00363978
0.00358745
0.00351613
0.00343723
0.00336043
0.00329285
0.00323839
0.00319799
0.00317029
0.00315341
0.00314612
0.00314722
0.00315336
0.00315996
0.000136165
0.000117907
8.8e-05
5.52596e-05
2.85676e-05
7.73808e-06
-1.01576e-05
-2.72324e-05
-4.47701e-05
-6.35971e-05
-8.42712e-05
-0.000107194
-0.000132694
-0.000161086
-0.00019271
-0.000227953
-0.000267262
-0.000311133
-0.000360095
-0.000414693
-0.000475474
-0.000542983
-0.000617768
-0.000700385
-0.000791377
-0.000891246
-0.0010004
-0.00111908
-0.0012473
-0.00138474
-0.00153069
-0.00168398
-0.00184294
-0.00200536
-0.00216847
-0.002329
-0.0024833
-0.00262711
-0.0027558
-0.00286506
-0.00295039
-0.00300698
-0.00303043
-0.0030168
-0.00296262
-0.00286508
-0.00272216
-0.00253286
-0.00229728
-0.00201667
-0.00169346
-0.00133113
-0.000934353
-0.000508774
-6.13675e-05
0.00039874
0.000860555
0.00131403
0.00174859
0.00215363
0.00251749
0.00283124
0.00308895
0.00328622
0.00342163
0.0034979
0.00352128
0.00350229
0.00345372
0.003388
0.00331655
0.00324899
0.00319169
0.00314746
0.00311633
0.0030966
0.00308721
0.00308688
0.00309235
0.00309842
0.000153136
0.000131875
9.60985e-05
5.69262e-05
2.53024e-05
9.34539e-07
-1.95676e-05
-3.86099e-05
-5.76527e-05
-7.76469e-05
-9.92437e-05
-0.000122922
-0.000149088
-0.000178149
-0.000210566
-0.000246888
-0.00028775
-0.00033387
-0.000386011
-0.000444954
-0.000511483
-0.000586378
-0.000670422
-0.000764397
-0.000869063
-0.000985111
-0.0011131
-0.00125338
-0.00140601
-0.00157065
-0.00174654
-0.00193237
-0.00212628
-0.00232586
-0.00252802
-0.00272909
-0.00292529
-0.00311184
-0.00328352
-0.00343579
-0.0035639
-0.00366245
-0.00372663
-0.00375228
-0.00373561
-0.0036733
-0.00356279
-0.00340243
-0.00319294
-0.00293496
-0.00263009
-0.00228076
-0.00189002
-0.00146153
-0.00100143
-0.000519911
-2.77748e-05
0.000467199
0.000956962
0.00142926
0.00186834
0.00226413
0.00260686
0.00288878
0.00310662
0.00325936
0.00334873
0.00338124
0.00337001
0.00332857
0.00326994
0.00320641
0.00314758
0.00309911
0.00306292
0.00303853
0.00302514
0.00302185
0.00302543
0.00303044
0.000163157
0.000138964
9.72274e-05
5.14635e-05
1.46288e-05
-1.36602e-05
-3.71975e-05
-5.86576e-05
-7.96637e-05
-0.000101283
-0.00012426
-0.000149154
-0.000176466
-0.000206718
-0.000240527
-0.00027863
-0.000321894
-0.000371282
-0.000427811
-0.000492519
-0.000566442
-0.000650616
-0.000746078
-0.000853861
-0.000974958
-0.00111027
-0.00126053
-0.00142621
-0.00160741
-0.00180382
-0.00201456
-0.00223825
-0.00247276
-0.00271545
-0.00296294
-0.00321092
-0.00345525
-0.00369081
-0.00391177
-0.00411315
-0.00428957
-0.00443518
-0.00454506
-0.00461487
-0.00464029
-0.00461725
-0.00454328
-0.00441669
-0.00424031
-0.00401194
-0.00373168
-0.00340135
-0.00302232
-0.00259686
-0.00213508
-0.0016426
-0.00112441
-0.000586971
-3.79172e-05
0.000504058
0.00102317
0.00151139
0.00195543
0.00234244
0.0026637
0.00291466
0.0030936
0.00320196
0.00324868
0.00324767
0.00321378
0.00316176
0.00310495
0.00305297
0.00301088
0.00298013
0.00296082
0.00295288
0.00295314
0.0029566
0.000164376
0.000137372
8.97635e-05
3.74437e-05
-4.72743e-06
-3.71888e-05
-6.40741e-05
-8.82989e-05
-0.000111637
-0.000135265
-0.00016002
-0.000186556
-0.000215481
-0.000247461
-0.000283296
-0.000323951
-0.000370545
-0.000424311
-0.000486539
-0.000558536
-0.000641612
-0.000737077
-0.000846251
-0.00097044
-0.0011109
-0.00126877
-0.00144496
-0.00164008
-0.0018543
-0.0020873
-0.00233812
-0.00260527
-0.00288641
-0.00317819
-0.00347697
-0.00377815
-0.0040765
-0.0043662
-0.00464135
-0.00489633
-0.00512476
-0.0053206
-0.00547892
-0.00559487
-0.00566331
-0.00567985
-0.00564472
-0.00555745
-0.00541414
-0.0052149
-0.00496052
-0.00465157
-0.00429031
-0.00388227
-0.00342767
-0.00292975
-0.00239144
-0.00182024
-0.00122963
-0.000630167
-3.04445e-05
0.000555227
0.00110809
0.00161337
0.00205849
0.00243173
0.00272496
0.00293545
0.00306684
0.00312909
0.00313712
0.00310865
0.00306072
0.00300795
0.00296001
0.00292159
0.00289448
0.00287986
0.00287548
0.0028768
0.00015521
0.000125567
7.23237e-05
1.36413e-05
-3.38643e-05
-7.0637e-05
-0.000101083
-0.000128331
-0.000154292
-0.00018025
-0.000207136
-0.00023571
-0.00026671
-0.000300974
-0.000339517
-0.000383554
-0.000434484
-0.000493823
-0.000563149
-0.000644056
-0.000738146
-0.000847033
-0.000972342
-0.00111568
-0.0012786
-0.00146249
-0.00166845
-0.00189723
-0.00214908
-0.0024237
-0.00272014
-0.0030363
-0.00336951
-0.00371626
-0.00407179
-0.00443103
-0.00478777
-0.00513532
-0.00546732
-0.00577736
-0.0060583
-0.00630384
-0.00650839
-0.00666623
-0.00677176
-0.00682465
-0.00682463
-0.00676957
-0.00665649
-0.00648401
-0.00625322
-0.00596575
-0.00562473
-0.00523405
-0.00479113
-0.0042977
-0.00375623
-0.00317429
-0.00256048
-0.00192056
-0.00126009
-0.000595886
5.98287e-05
0.000686508
0.00126561
0.0017797
0.00221268
0.00255289
0.00279774
0.00295133
0.00302505
0.00303729
0.00300935
0.00296134
0.00290906
0.00286224
0.00282552
0.00280279
0.00279204
0.00279018
0.000134362
0.0001023
4.37813e-05
-2.09467e-05
-7.36807e-05
-0.000114811
-0.000148949
-0.000179406
-0.000208219
-0.000236776
-0.000266113
-0.000297108
-0.000330654
-0.000367787
-0.000409762
-0.000458073
-0.000514411
-0.000580591
-0.000658492
-0.000750011
-0.000857066
-0.0009816
-0.00112557
-0.00129092
-0.00147951
-0.00169297
-0.00193262
-0.00219935
-0.00249365
-0.002815
-0.0031619
-0.0035323
-0.00392275
-0.00432899
-0.00474518
-0.00516541
-0.00558277
-0.00598931
-0.00637757
-0.00674036
-0.00707012
-0.00736007
-0.00760357
-0.00779596
-0.00793671
-0.00802577
-0.00805708
-0.00802756
-0.00793704
-0.00778773
-0.0075796
-0.00731344
-0.00699049
-0.00661096
-0.00617819
-0.00569296
-0.00515856
-0.00457975
-0.00396111
-0.00330357
-0.00260682
-0.00188415
-0.00115188
-0.000422967
0.000284472
0.000942642
0.00153001
0.00202443
0.00241187
0.00268782
0.00285678
0.00293369
0.00294226
0.00290841
0.00285566
0.00280082
0.00275366
0.00271987
0.0027009
0.00269491
0.000100818
6.66205e-05
3.27334e-06
-6.70912e-05
-0.000124866
-0.000170326
-0.00020822
-0.000242015
-0.000273863
-0.000305258
-0.000337346
-0.000371145
-0.000407724
-0.000448343
-0.000494524
-0.000548053
-0.000610927
-0.000685272
-0.000773278
-0.000877168
-0.000999197
-0.00114166
-0.00130688
-0.00149715
-0.00171462
-0.0019612
-0.00223848
-0.00254762
-0.00288879
-0.00326122
-0.00366329
-0.00409219
-0.00454344
-0.00501188
-0.00549099
-0.00597303
-0.00645
-0.00691295
-0.00735333
-0.00776315
-0.00813462
-0.0084612
-0.00873839
-0.00896304
-0.00913246
-0.00924287
-0.00929291
-0.00928277
-0.00921257
-0.00908332
-0.00889566
-0.00865039
-0.00834831
-0.00798996
-0.00757652
-0.00710864
-0.00658753
-0.00601456
-0.00539082
-0.00471729
-0.00400319
-0.00325342
-0.0024714
-0.00166432
-0.000858779
-7.22662e-05
0.000666043
0.00132567
0.00187908
0.0023081
0.00260577
0.00277827
0.00284659
0.00284182
0.00279587
0.00273486
0.00267607
0.00262902
0.00260033
0.0025887
5.38544e-05
1.78689e-05
-4.98005e-05
-0.00012533
-0.000187898
-0.0002376
-0.000279265
-0.000316485
-0.00035152
-0.000385971
-0.000421106
-0.000458102
-0.000498226
-0.000542984
-0.000594183
-0.000653915
-0.000724491
-0.000808357
-0.000908027
-0.00102607
-0.00116509
-0.00132778
-0.00151682
-0.00173485
-0.00198435
-0.00226756
-0.00258638
-0.00294176
-0.00333367
-0.00376108
-0.0042217
-0.00471169
-0.005226
-0.00575774
-0.00629907
-0.00684071
-0.0073732
-0.00788669
-0.00837191
-0.00882056
-0.00922525
-0.00958015
-0.0098813
-0.0101257
-0.0103114
-0.0104365
-0.0105007
-0.0105047
-0.0104492
-0.0103352
-0.0101637
-0.0099358
-0.00965235
-0.00931399
-0.0089213
-0.00847454
-0.00797385
-0.00741891
-0.006809
-0.00614388
-0.00542582
-0.00465703
-0.00384216
-0.00299245
-0.00211671
-0.00122998
-0.000364251
0.000451204
0.00117915
0.0017841
0.0022427
0.00254628
0.0027055
0.00275075
0.00272376
0.00266096
0.00258997
0.00252825
0.00248833
0.00246831
-6.89649e-06
-4.44103e-05
-0.000115816
-0.00019599
-0.000263051
-0.000316864
-0.000362275
-0.000402977
-0.000441332
-0.000479049
-0.000517534
-0.000558135
-0.000602342
-0.000651924
-0.000708983
-0.000775925
-0.000855383
-0.000950126
-0.00106301
-0.00119696
-0.00135496
-0.0015401
-0.00175543
-0.00200395
-0.00228845
-0.00261159
-0.00297529
-0.00338012
-0.0038258
-0.00431082
-0.00483212
-0.00538476
-0.00596206
-0.0065556
-0.00715569
-0.00775167
-0.0083327
-0.00888829
-0.00940892
-0.0098865
-0.0103144
-0.0106878
-0.0110035
-0.0112593
-0.0114543
-0.0115879
-0.0116605
-0.0116733
-0.0116274
-0.0115241
-0.0113647
-0.0111506
-0.0108828
-0.010562
-0.0101886
-0.00976266
-0.00928366
-0.0087506
-0.00816203
-0.00751652
-0.00681305
-0.0060509
-0.00523113
-0.00435785
-0.00343759
-0.00248674
-0.00152278
-0.000577419
0.000311211
0.00109835
0.00174111
0.00220979
0.0024963
0.00262157
0.00263104
0.00257467
0.00249256
0.00241476
0.00236054
0.00232929
-8.15652e-05
-0.000120413
-0.000194942
-0.000279193
-0.000350403
-0.000408156
-0.000457259
-0.000501482
-0.000543281
-0.000584477
-0.000626625
-0.000671261
-0.000720111
-0.000775221
-0.000838994
-0.000914154
-0.00100366
-0.0011106
-0.00123819
-0.00138973
-0.00156859
-0.00177826
-0.00202218
-0.00230363
-0.00262585
-0.00299183
-0.00340285
-0.00385935
-0.0043609
-0.00490522
-0.00548787
-0.00610248
-0.00674048
-0.00739172
-0.00804471
-0.00868744
-0.00930821
-0.00989628
-0.0104424
-0.0109393
-0.0113814
-0.011765
-0.0120878
-0.0123487
-0.0125474
-0.0126845
-0.0127609
-0.0127782
-0.0127376
-0.0126411
-0.0124903
-0.0122866
-0.0120313
-0.0117252
-0.0113688
-0.0109621
-0.0105043
-0.0099941
-0.0094295
-0.00880808
-0.00812719
-0.00738429
-0.00657768
-0.00570711
-0.00477484
-0.00378868
-0.00276249
-0.00172114
-0.000701197
0.000251377
0.00108268
0.00174116
0.00219167
0.00243401
0.00250661
0.0024698
0.00238047
0.00228463
0.00221122
0.00216657
-0.000170126
-0.00021005
-0.000287098
-0.000374847
-0.000449833
-0.00051133
-0.000564055
-0.000611827
-0.00065719
-0.000702085
-0.00074822
-0.000797336
-0.000851404
-0.00091275
-0.000984083
-0.00106844
-0.0011691
-0.00128949
-0.00143319
-0.00160386
-0.0018053
-0.00204135
-0.00231581
-0.00263231
-0.00299471
-0.00340528
-0.00386516
-0.00437506
-0.00493364
-0.00553727
-0.00618012
-0.00685394
-0.00754828
-0.00825108
-0.00894931
-0.00963
-0.0102811
-0.0108922
-0.0114548
-0.0119628
-0.0124119
-0.0127992
-0.0131236
-0.0133848
-0.0135833
-0.0137202
-0.013797
-0.0138154
-0.0137773
-0.0136846
-0.0135393
-0.0133429
-0.013097
-0.0128026
-0.0124603
-0.0120702
-0.0116317
-0.0111434
-0.010603
-0.0100076
-0.00935359
-0.008637
-0.00785399
-0.00700146
-0.00607812
-0.00508596
-0.0040323
-0.0029339
-0.00181988
-0.000733772
0.00026876
0.00112159
0.00176307
0.00216205
0.0023338
0.00233727
0.0022491
0.00213335
0.00203496
0.00197598
-0.000272312
-0.000313025
-0.000391999
-0.000482658
-0.000561032
-0.000626064
-0.000682329
-0.000733672
-0.000782722
-0.00083154
-0.000881998
-0.000936046
-0.000995905
-0.00106418
-0.00114389
-0.00123836
-0.0013512
-0.00148619
-0.00164724
-0.00183841
-0.00206387
-0.00232782
-0.00263434
-0.00298782
-0.00339172
-0.00384777
-0.00435784
-0.00492179
-0.00553697
-0.00619841
-0.00689855
-0.00762713
-0.00837176
-0.00911864
-0.00985365
-0.0105633
-0.0112359
-0.0118616
-0.0124334
-0.0129462
-0.0133967
-0.0137833
-0.0141057
-0.0143642
-0.0145599
-0.0146943
-0.0147692
-0.0147866
-0.0147486
-0.0146574
-0.014515
-0.0143232
-0.0140838
-0.0137981
-0.0134669
-0.0130904
-0.0126684
-0.0121995
-0.0116817
-0.0111117
-0.0104858
-0.00979892
-0.00904587
-0.00822144
-0.00732135
-0.00634329
-0.00528903
-0.00416767
-0.00299919
-0.00181883
-0.000679044
0.000351666
0.00119265
0.00177874
0.00208961
0.00216534
0.00209155
0.00195656
0.00182693
0.00175372
-0.000387639
-0.000428847
-0.000509168
-0.000602155
-0.000683522
-0.000751865
-0.000811583
-0.000866519
-0.000919379
-0.000972347
-0.00102747
-0.00108689
-0.0011531
-0.00122897
-0.00131779
-0.00142321
-0.00154914
-0.0016997
-0.00187915
-0.00209193
-0.00234255
-0.00263548
-0.00297536
-0.00336699
-0.00381272
-0.00431504
-0.00487557
-0.00549275
-0.00616275
-0.00687907
-0.00763216
-0.00840973
-0.00919757
-0.00998057
-0.010744
-0.0114744
-0.0121608
-0.0127946
-0.0133699
-0.0138829
-0.0143313
-0.0147145
-0.0150327
-0.0152868
-0.0154782
-0.0156088
-0.0156806
-0.0156957
-0.0156563
-0.0155648
-0.0154232
-0.0152338
-0.0149983
-0.0147183
-0.0143951
-0.0140291
-0.0136203
-0.0131678
-0.0126698
-0.0121232
-0.0115242
-0.0108675
-0.010147
-0.00935607
-0.00848832
-0.00753835
-0.00650305
-0.00538499
-0.004196
-0.00296104
-0.00172395
-0.000549901
0.000476186
0.00126462
0.00174972
0.00193368
0.00189917
0.00175001
0.00158507
0.00149741
-0.000515439
-0.000556855
-0.000637956
-0.000732699
-0.000816666
-0.00088809
-0.000951167
-0.00100971
-0.0010665
-0.00112385
-0.00118395
-0.00124919
-0.00132226
-0.00140632
-0.00150492
-0.001622
-0.00176178
-0.00192868
-0.00212735
-0.00236256
-0.00263914
-0.00296176
-0.00333597
-0.00376569
-0.00425329
-0.004802
-0.00541186
-0.00608029
-0.00680223
-0.0075693
-0.00836994
-0.00918995
-0.0100136
-0.010825
-0.0116091
-0.0123533
-0.0130476
-0.0136846
-0.0142597
-0.0147701
-0.0152145
-0.0155928
-0.0159058
-0.0161548
-0.0163415
-0.0164678
-0.0165358
-0.0165477
-0.0165059
-0.0164127
-0.0162705
-0.0160814
-0.0158475
-0.0155708
-0.0152525
-0.0148938
-0.014495
-0.0140555
-0.013574
-0.0130478
-0.0124733
-0.0118452
-0.0111573
-0.010402
-0.00957141
-0.00865793
-0.00765516
-0.00655989
-0.0053767
-0.0041216
-0.002827
-0.00154977
-0.000371176
0.000607968
0.0012897
0.00162355
0.00165838
0.00150595
0.00131038
0.00120585
-0.000654885
-0.000696227
-0.000777561
-0.000873504
-0.000959678
-0.00103395
-0.00110028
-0.00116245
-0.00122328
-0.00128522
-0.00135062
-0.00142205
-0.00150245
-0.00159521
-0.00170414
-0.00183345
-0.00198764
-0.00217146
-0.00238988
-0.00264798
-0.00295081
-0.00330366
-0.00371212
-0.00417919
-0.00470857
-0.00530242
-0.00595952
-0.00667644
-0.00744645
-0.00825931
-0.00910149
-0.00995716
-0.0108095
-0.0116422
-0.0124408
-0.0131934
-0.0138911
-0.0145281
-0.0151007
-0.015607
-0.0160465
-0.0164197
-0.0167275
-0.0169715
-0.0171535
-0.0172754
-0.0173395
-0.0173479
-0.0173031
-0.0172073
-0.017063
-0.0168727
-0.0166385
-0.0163626
-0.0160468
-0.0156925
-0.0153003
-0.0148704
-0.0144019
-0.0138926
-0.0133393
-0.0127373
-0.0120802
-0.0113603
-0.0105687
-0.00969614
-0.00873411
-0.00767528
-0.0065175
-0.00526898
-0.00395175
-0.00261058
-0.00132107
-0.000179379
0.00070052
0.00121313
0.0013487
0.0012174
0.00100308
0.00087611
-0.000805005
-0.000846004
-0.000927046
-0.00102365
-0.00111164
-0.00118852
-0.00125801
-0.00132379
-0.00138877
-0.00145548
-0.00152645
-0.00160441
-0.00169253
-0.00179439
-0.00191407
-0.002056
-0.00222497
-0.00242601
-0.00266439
-0.00294548
-0.00327445
-0.00365748
-0.00409931
-0.00460309
-0.00517307
-0.00580982
-0.00651143
-0.0072732
-0.00808673
-0.00893989
-0.00981744
-0.0107022
-0.0115769
-0.012425
-0.013233
-0.01399
-0.0146884
-0.0153234
-0.0158925
-0.0163944
-0.0168291
-0.0171973
-0.0175005
-0.01774
-0.0179178
-0.0180357
-0.018096
-0.0181009
-0.0180526
-0.0179535
-0.0178063
-0.0176134
-0.0173773
-0.0171003
-0.0167846
-0.016432
-0.0160437
-0.0156201
-0.0151611
-0.0146652
-0.0141296
-0.0135502
-0.012921
-0.0122346
-0.0114817
-0.0106518
-0.00973464
-0.00872084
-0.00760267
-0.00638075
-0.00506861
-0.00369872
-0.00233705
-0.00107339
-2.25069e-05
0.000682116
0.00095829
0.000875784
0.000657271
0.000502226
-0.000964707
-0.0010051
-0.00108536
-0.0011821
-0.00127152
-0.00135077
-0.00142328
-0.00149267
-0.00156187
-0.00163352
-0.00171027
-0.00179504
-0.00189115
-0.00200242
-0.0021331
-0.00228787
-0.00247175
-0.00269006
-0.00294832
-0.00325208
-0.00360694
-0.00401929
-0.00449304
-0.00503256
-0.00564101
-0.0063178
-0.00706046
-0.00786286
-0.0087149
-0.00960275
-0.0105097
-0.0114177
-0.0123091
-0.0131681
-0.0139817
-0.0147404
-0.0154379
-0.0160703
-0.0166356
-0.0171334
-0.0175639
-0.0179282
-0.0182274
-0.0184634
-0.0186376
-0.0187522
-0.018809
-0.0188103
-0.0187584
-0.0186557
-0.0185048
-0.0183083
-0.0180688
-0.0177891
-0.0174716
-0.0171183
-0.0167312
-0.0163111
-0.0158585
-0.0153724
-0.014851
-0.0142906
-0.013686
-0.0130301
-0.0123139
-0.0115264
-0.0106559
-0.0096914
-0.00862223
-0.007442
-0.00615601
-0.00478591
-0.00338736
-0.00204389
-0.000856379
3.04124e-05
0.000471517
0.00046874
0.000265496
7.44066e-05
-0.00113279
-0.00117235
-0.00125134
-0.00134772
-0.00143818
-0.00151955
-0.00159497
-0.00166792
-0.00174138
-0.00181807
-0.00190076
-0.00199252
-0.00209682
-0.00221764
-0.00235942
-0.00252704
-0.00272574
-0.00296108
-0.0032388
-0.00356456
-0.00394457
-0.00438479
-0.00488907
-0.00546235
-0.00610629
-0.00681993
-0.00759974
-0.00843819
-0.00932359
-0.0102406
-0.0111715
-0.0120975
-0.0130013
-0.0138675
-0.0146843
-0.0154433
-0.0161391
-0.0167688
-0.017331
-0.0178255
-0.0182528
-0.018614
-0.0189105
-0.0191438
-0.0193154
-0.0194272
-0.0194811
-0.0194791
-0.0194236
-0.0193169
-0.0191617
-0.0189607
-0.0187169
-0.018433
-0.0181119
-0.0177562
-0.0173679
-0.0169488
-0.0164997
-0.0160204
-0.0155098
-0.0149649
-0.0143813
-0.0137526
-0.0130701
-0.0123232
-0.0114993
-0.0105856
-0.0095706
-0.0084431
-0.00720042
-0.00585298
-0.00443923
-0.00305669
-0.00177444
-0.000738008
-0.000124215
-8.4864e-06
-0.000178637
-0.00041902
-0.00130799
-0.00134647
-0.00142376
-0.00151928
-0.00161042
-0.00169365
-0.00177181
-0.00184827
-0.001926
-0.00200778
-0.0020965
-0.00219533
-0.00230788
-0.00243827
-0.00259108
-0.00277136
-0.00298455
-0.0032364
-0.00353285
-0.00387964
-0.0042835
-0.00474969
-0.00528279
-0.00588718
-0.00656337
-0.00731017
-0.00812288
-0.0089926
-0.0099063
-0.0108474
-0.0117972
-0.0127371
-0.0136497
-0.0145208
-0.0153392
-0.0160977
-0.016792
-0.0174195
-0.0179794
-0.0184716
-0.0188969
-0.0192564
-0.0195513
-0.0197829
-0.0199528
-0.0200626
-0.0201139
-0.020109
-0.0200499
-0.0199391
-0.0197792
-0.0195732
-0.019324
-0.0190348
-0.0187088
-0.0183489
-0.0179576
-0.0175373
-0.0170893
-0.0166141
-0.0161112
-0.0155785
-0.0150125
-0.0144074
-0.0137553
-0.013046
-0.0122671
-0.0114045
-0.0104452
-0.00937629
-0.00818858
-0.00688466
-0.00548157
-0.00408268
-0.00275257
-0.00160547
-0.000831344
-0.000573751
-0.000693104
-0.00098832
-0.00148895
-0.00152616
-0.00160131
-0.00169553
-0.00178696
-0.00187179
-0.00195252
-0.00203238
-0.00211433
-0.0022012
-0.00229595
-0.00240184
-0.00252258
-0.0026624
-0.00282599
-0.00301855
-0.00324566
-0.00351324
-0.00382734
-0.00419396
-0.00461991
-0.00511011
-0.00566963
-0.00630189
-0.00700691
-0.00778289
-0.00862404
-0.0095203
-0.0104574
-0.0114179
-0.0123827
-0.0133328
-0.0142518
-0.015126
-0.0159453
-0.0167033
-0.0173964
-0.0180226
-0.0185812
-0.0190725
-0.0194971
-0.019856
-0.0201504
-0.0203814
-0.0205505
-0.020659
-0.0207085
-0.0207009
-0.0206384
-0.0205234
-0.0203586
-0.0201469
-0.0198917
-0.0195963
-0.0192642
-0.0188987
-0.018503
-0.0180796
-0.0176306
-0.0171571
-0.0166594
-0.016136
-0.0155843
-0.0149993
-0.0143742
-0.0136992
-0.0129626
-0.0121498
-0.0112463
-0.0102385
-0.0091132
-0.00786575
-0.00650519
-0.00509452
-0.00375643
-0.00254293
-0.00163907
-0.00124175
-0.00129515
-0.00163731
-0.00167428
-0.00171001
-0.00178265
-0.00187513
-0.00196648
-0.00205263
-0.00213573
-0.00221886
-0.00230493
-0.00239681
-0.0024975
-0.00261033
-0.00273908
-0.00288804
-0.003062
-0.00326625
-0.00350648
-0.00378872
-0.00411916
-0.00450416
-0.00495012
-0.00546207
-0.00604515
-0.00670184
-0.00743198
-0.00823296
-0.00909807
-0.0100162
-0.0109723
-0.0119481
-0.0129242
-0.013882
-0.0148055
-0.0156818
-0.0165017
-0.0172597
-0.0179524
-0.0185783
-0.0191368
-0.0196283
-0.0200534
-0.0204129
-0.0207079
-0.0209394
-0.0211085
-0.0212164
-0.0212646
-0.0212548
-0.0211892
-0.02107
-0.0209
-0.0206824
-0.0204206
-0.0201183
-0.0197792
-0.0194071
-0.0190055
-0.0185776
-0.0181259
-0.0176522
-0.0171574
-0.0166408
-0.0161005
-0.0155326
-0.0149309
-0.0142868
-0.013589
-0.0128236
-0.0119749
-0.0110286
-0.00997031
-0.00878986
-0.00748744
-0.00608261
-0.00475755
-0.00352375
-0.00252851
-0.00200341
-0.00198418
-0.00236198
-0.00186256
-0.00189663
-0.00196645
-0.00205678
-0.00214767
-0.00223484
-0.00232008
-0.00240629
-0.00249633
-0.00259306
-0.00269952
-0.00281906
-0.0029555
-0.00311317
-0.0032969
-0.00351204
-0.00376438
-0.00406013
-0.00440556
-0.00480702
-0.00527059
-0.00580176
-0.0064052
-0.00708276
-0.00783414
-0.00865588
-0.00954048
-0.0104762
-0.011447
-0.0124345
-0.013419
-0.0143824
-0.0153092
-0.0161871
-0.0170078
-0.0177662
-0.0184594
-0.0190861
-0.0196457
-0.0201386
-0.0205654
-0.0209267
-0.0212233
-0.0214561
-0.021626
-0.0217341
-0.0217816
-0.02177
-0.0217014
-0.0215782
-0.021403
-0.0211793
-0.0209105
-0.0206006
-0.0202538
-0.0198742
-0.0194657
-0.0190321
-0.0185764
-0.0181009
-0.0176072
-0.0170952
-0.0165639
-0.0160102
-0.0154288
-0.0148122
-0.0141499
-0.0134286
-0.0126325
-0.011746
-0.0107554
-0.00964618
-0.00841188
-0.00705262
-0.00572839
-0.00451365
-0.00347092
-0.00283737
-0.00274852
-0.00314776
-0.00205238
-0.00208458
-0.00215132
-0.00223913
-0.00232921
-0.00241708
-0.00250419
-0.00259324
-0.00268702
-0.00278837
-0.00290032
-0.00302623
-0.00316991
-0.0033357
-0.00352845
-0.0037536
-0.00401707
-0.00432509
-0.00468377
-0.00509935
-0.00557802
-0.00612556
-0.006746
-0.00744084
-0.00820955
-0.00904776
-0.00994743
-0.0108964
-0.0118784
-0.0128744
-0.013865
-0.0148324
-0.0157615
-0.0166409
-0.0174627
-0.0182223
-0.0189169
-0.0195453
-0.0201072
-0.0206026
-0.0210321
-0.0213961
-0.0216953
-0.0219302
-0.0221017
-0.0222105
-0.0222578
-0.0222449
-0.0221737
-0.0220466
-0.0218664
-0.0216363
-0.0213603
-0.0210425
-0.0206874
-0.0202996
-0.0198835
-0.0194433
-0.0189825
-0.0185041
-0.0180099
-0.0175009
-0.0169765
-0.0164345
-0.0158706
-0.0152782
-0.0146479
-0.0139671
-0.0132206
-0.0123919
-0.0114671
-0.0104299
-0.00927003
-0.00798798
-0.00665592
-0.00547638
-0.0044252
-0.0037118
-0.00356385
-0.00395046
-0.00224236
-0.0022725
-0.00233593
-0.00242089
-0.00250978
-0.002598
-0.00268667
-0.00277827
-0.00287552
-0.00298119
-0.00309826
-0.00323009
-0.00338049
-0.00355378
-0.00375485
-0.00398913
-0.00426252
-0.00458106
-0.00495077
-0.00537815
-0.00586944
-0.00643027
-0.00706423
-0.00777268
-0.008555