/*--------------------------------*- C++ -*----------------------------------*\
  =========                 |
  \\      /  F ield         | OpenFOAM: The Open Source CFD Toolbox
   \\    /   O peration     | Website:  https://openfoam.org
    \\  /    A nd           | Version:  13
     \\/     M anipulation  |
\*---------------------------------------------------------------------------*/
FoamFile
{
    format      ascii;
    class       volScalarField;
    location    "2.8";
    object      k;
}
// * * * * * * * * * * * * * * * * * * * * * * * * * * * * * * * * * * * * * //

dimensions      [0 2 -2 0 0 0 0];

internalField   nonuniform List<scalar> 
6400
(
4.20035e-07
2.13074e-06
4.93245e-06
7.92299e-06
1.05535e-05
1.26818e-05
1.44207e-05
1.59828e-05
1.75696e-05
1.93374e-05
2.14034e-05
2.38422e-05
2.67117e-05
3.00266e-05
3.38047e-05
3.8051e-05
4.27451e-05
4.78233e-05
5.31874e-05
5.87422e-05
6.44814e-05
7.06217e-05
7.76582e-05
8.59682e-05
9.56717e-05
0.000106395
0.00011742
0.00012852
0.000139922
0.000151882
0.000164513
0.000177692
0.000190731
0.000203574
0.000216162
0.000228636
0.000241177
0.000253918
0.000267045
0.000280683
0.000294981
0.000310021
0.00032595
0.000342906
0.000360792
0.000379659
0.000399611
0.000421324
0.000446051
0.000476989
0.000508733
0.000540936
0.000572616
0.000603176
0.000631606
0.000656775
0.000677389
0.000690852
0.000697388
0.000699419
0.00069019
0.000669208
0.000636888
0.000594044
0.000541377
0.000480899
0.000415666
0.00034923
0.000284364
0.000222869
0.000167354
0.000123372
8.737e-05
5.91311e-05
3.8294e-05
2.3719e-05
1.39851e-05
7.65485e-06
3.4025e-06
7.05524e-07
2.07079e-06
1.74142e-05
4.04926e-05
6.35012e-05
8.30895e-05
9.89174e-05
0.000112049
0.000123922
0.000135863
0.000148917
0.000163864
0.00018123
0.000201322
0.000224358
0.000250446
0.000279597
0.000311676
0.000346286
0.000382856
0.00042086
0.0004603
0.000502359
0.000549603
0.000604016
0.00066586
0.000732667
0.000800432
0.000867564
0.000934196
0.00100085
0.00106728
0.00113279
0.00119408
0.00125119
0.00130393
0.00135316
0.00139986
0.00144479
0.00148893
0.00153298
0.00157773
0.00162366
0.00167142
0.00172149
0.00177363
0.00182776
0.00188354
0.00194099
0.00199871
0.00205538
0.00211509
0.00217613
0.00223804
0.00229845
0.00235577
0.00240722
0.0024502
0.00247676
0.00248692
0.00248601
0.00246013
0.0024054
0.00232027
0.00220544
0.00206105
0.00188935
0.00169835
0.001496
0.00128694
0.00107988
0.00088264
0.000694599
0.000525766
0.000381918
0.000265585
0.000175652
0.000109484
6.26744e-05
2.83772e-05
3.66467e-06
4.64291e-06
3.9025e-05
8.6421e-05
0.000128353
0.000161907
0.000189048
0.00021257
0.000235073
0.000258741
0.000285299
0.00031606
0.000351954
0.000393643
0.000441575
0.000496023
0.000557048
0.00062438
0.000697298
0.000774706
0.000855232
0.000937447
0.00101999
0.00110154
0.0011806
0.00125435
0.00131994
0.00137668
0.00142412
0.00146291
0.00149659
0.001527
0.00155623
0.00158581
0.0016159
0.00164657
0.00167827
0.00171199
0.00174802
0.00178697
0.00182912
0.00187497
0.00192446
0.00197774
0.00203483
0.00209577
0.00216069
0.00222964
0.00230233
0.00237804
0.00245719
0.00253948
0.00262366
0.00270865
0.00279261
0.00287353
0.00294872
0.00301505
0.00306877
0.00310214
0.00311441
0.00310802
0.00306839
0.00299225
0.00287898
0.00272698
0.00253565
0.00231427
0.00207152
0.00181472
0.00155409
0.00129948
0.00105884
0.000839
0.000645383
0.000480785
0.000345281
0.000236429
0.000148279
7.11966e-05
9.23973e-06
8.05152e-06
6.58622e-05
0.000136767
0.000193919
0.000238611
0.000275734
0.000309536
0.000343501
0.000380471
0.0004227
0.000471879
0.000529154
0.000595182
0.000670152
0.000753747
0.000845006
0.000942151
0.00104264
0.00114325
0.00124038
0.0013306
0.00141082
0.00147831
0.00153252
0.00157284
0.00159918
0.0016153
0.00162547
0.00163499
0.00164642
0.00165928
0.0016747
0.00169167
0.00171155
0.00173482
0.00176149
0.00179196
0.00182621
0.00186445
0.00190654
0.00195266
0.0020028
0.00205703
0.00211538
0.00217786
0.00224436
0.00231463
0.00238885
0.00246724
0.00254949
0.00263512
0.00272329
0.002813
0.00290279
0.00299077
0.00307448
0.00315085
0.00321625
0.00326651
0.00329193
0.00329863
0.00327872
0.00322834
0.00314015
0.00301069
0.0028364
0.00261868
0.00237017
0.00209958
0.00181811
0.00153758
0.00126893
0.00102131
0.00080109
0.000611716
0.00045361
0.000323668
0.000214185
0.000109555
1.46901e-05
1.25305e-05
9.92006e-05
0.000193774
0.000265544
0.000321386
0.00036896
0.000413894
0.000460591
0.000512565
0.000572506
0.00064225
0.000722714
0.00081388
0.000914747
0.00102327
0.00113629
0.00124957
0.00135812
0.00145671
0.00154045
0.00160651
0.00165402
0.00167864
0.00168782
0.00168875
0.00168157
0.00167455
0.00166997
0.00166815
0.00166834
0.00167368
0.00168271
0.00169544
0.0017123
0.00173315
0.00175743
0.0017852
0.00181629
0.00185051
0.00188789
0.00192836
0.00197196
0.00201871
0.0020687
0.00212206
0.002179
0.00223986
0.00230476
0.00237374
0.00244677
0.00252376
0.0026044
0.00268818
0.00277437
0.00286188
0.00294908
0.00303363
0.00311267
0.00318258
0.0032387
0.00327027
0.00328
0.00325714
0.00319883
0.0030999
0.00296889
0.00278343
0.00255279
0.00228783
0.00200053
0.00170469
0.00141474
0.00114373
0.000901153
0.000692285
0.000518137
0.000375267
0.000254232
0.000134919
1.83047e-05
1.83997e-05
0.000140425
0.000259763
0.000346775
0.000414665
0.00047366
0.0005308
0.000591442
0.000659695
0.000738413
0.00082906
0.000931579
0.00104435
0.00116418
0.00128645
0.00140533
0.00151424
0.00160686
0.00167877
0.00172447
0.00174406
0.00174773
0.00173261
0.00171326
0.00169502
0.0016785
0.00166594
0.00165659
0.00165171
0.00165005
0.00165208
0.0016583
0.00166793
0.00168076
0.00169623
0.00171407
0.00173412
0.00175634
0.00178057
0.00180689
0.00183525
0.00186579
0.00189861
0.00193389
0.00197188
0.00201286
0.00205711
0.00210471
0.00215607
0.00221152
0.00227144
0.00233612
0.00240573
0.00248023
0.00255932
0.00264247
0.00272867
0.00281615
0.00290265
0.00298441
0.00305674
0.00311207
0.00313776
0.00314124
0.00309989
0.00301287
0.00288647
0.00269447
0.00245267
0.00217145
0.00186602
0.00155482
0.00125645
0.000986077
0.000753129
0.000560461
0.000404534
0.000274394
0.000147449
1.98519e-05
2.5967e-05
0.00019041
0.000335977
0.000439263
0.000520175
0.000591443
0.000661535
0.000736682
0.000821318
0.000917952
0.00102696
0.00114646
0.00127245
0.00139904
0.00151907
0.0016249
0.00170936
0.00176519
0.00178945
0.00179339
0.0017739
0.00174781
0.00172157
0.00169449
0.00166981
0.00164763
0.00162886
0.00161516
0.00160612
0.00160153
0.00159988
0.00160057
0.0016047
0.0016108
0.00161891
0.00162895
0.00164081
0.00165399
0.00166856
0.00168451
0.00170174
0.00172035
0.00174046
0.0017622
0.00178576
0.00181136
0.00183928
0.00186984
0.00190353
0.00194086
0.00198243
0.0020289
0.00208111
0.00213983
0.00220576
0.00227948
0.00236128
0.0024506
0.00254605
0.00264609
0.00274781
0.00284601
0.00293353
0.00299555
0.00302092
0.00301186
0.00294501
0.00282497
0.00262715
0.00236813
0.00206212
0.00173067
0.00139889
0.00109024
0.000821821
0.000601205
0.000425978
0.000284052
0.000151404
1.99551e-05
3.54782e-05
0.000249409
0.000422812
0.00054343
0.000638087
0.00072202
0.000805066
0.000894113
0.000993477
0.00110469
0.00122632
0.00135408
0.0014813
0.00159977
0.00170085
0.00177748
0.00181744
0.00182937
0.0018168
0.00178876
0.00175544
0.00171796
0.00167826
0.00164224
0.00161147
0.00158605
0.00156663
0.0015516
0.00154048
0.00153262
0.00152757
0.00152522
0.00152457
0.00152555
0.00152853
0.00153294
0.00153866
0.00154544
0.00155321
0.00156198
0.00157171
0.00158247
0.00159429
0.0016073
0.00162164
0.00163751
0.00165514
0.00167483
0.00169691
0.00172189
0.00175028
0.00178271
0.00181996
0.0018629
0.00191267
0.00197056
0.00203807
0.00211693
0.00220759
0.00230911
0.00242197
0.00254319
0.00266737
0.00278772
0.00289112
0.00294624
0.00296006
0.00291636
0.00280309
0.00259121
0.00230409
0.00196286
0.00159771
0.00124172
0.00092346
0.000660125
0.00045402
0.000293055
0.000152453
1.96949e-05
4.71145e-05
0.000317115
0.000519924
0.000658721
0.00076741
0.000863698
0.000958647
0.00105949
0.00116992
0.00128993
0.00141583
0.00154086
0.00165625
0.00175273
0.00181966
0.0018491
0.00185298
0.00182972
0.00179784
0.00175293
0.00170076
0.00165145
0.00160786
0.00157175
0.0015414
0.00151662
0.00149673
0.00148071
0.0014681
0.00145841
0.0014513
0.00144647
0.00144396
0.00144304
0.00144322
0.00144539
0.00144864
0.00145305
0.00145843
0.00146477
0.00147201
0.00148015
0.00148922
0.0014993
0.00151052
0.00152304
0.00153707
0.00155287
0.00157078
0.00159102
0.00161391
0.00163976
0.0016689
0.00170175
0.00173885
0.00178092
0.00182911
0.00188532
0.00195257
0.00203524
0.00213524
0.00225443
0.00238727
0.00253413
0.00268462
0.00282431
0.00291388
0.00294505
0.00292125
0.00280882
0.00257185
0.0022456
0.00186061
0.00145766
0.00107883
0.000756141
0.000502942
0.000311187
0.000155758
1.99228e-05
6.12147e-05
0.000392308
0.000626306
0.000783769
0.000906165
0.00101362
0.00111823
0.00122722
0.00134325
0.00146444
0.0015849
0.00169596
0.00178801
0.00184733
0.00187008
0.00186877
0.00184191
0.00179952
0.00174198
0.00167991
0.00162384
0.00157467
0.0015329
0.00149817
0.00146908
0.00144513
0.0014255
0.00140958
0.001397
0.00138741
0.00138054
0.00137633
0.00137441
0.0013739
0.00137504
0.00137807
0.00138225
0.00138757
0.00139383
0.00140099
0.00140896
0.00141774
0.00142736
0.00143788
0.00144943
0.00146214
0.00147619
0.00149179
0.00150913
0.00152841
0.00154984
0.00157361
0.00159983
0.00162867
0.0016603
0.00169489
0.00173278
0.00177485
0.00182242
0.00187732
0.00194317
0.0020261
0.00213777
0.00227718
0.00243902
0.00261648
0.00278977
0.00291182
0.00295782
0.00294568
0.00282219
0.00254805
0.00217249
0.00173811
0.00129891
0.00090483
0.00058685
0.000348139
0.000165941
2.11625e-05
7.82327e-05
0.000473538
0.000740413
0.00091646
0.00105154
0.00116808
0.00127898
0.00139119
0.00150611
0.00162005
0.0017254
0.00181268
0.00186709
0.00188654
0.00187967
0.0018508
0.00179915
0.00173131
0.00166231
0.00159915
0.00154442
0.00149777
0.00145863
0.00142599
0.00139881
0.00137652
0.00135851
0.00134437
0.00133378
0.00132638
0.0013224
0.00132084
0.00132069
0.00132291
0.0013268
0.00133215
0.00133855
0.0013459
0.00135403
0.00136287
0.00137236
0.00138253
0.00139341
0.00140508
0.00141765
0.00143127
0.00144611
0.00146233
0.00148012
0.00149968
0.0015212
0.00154485
0.00157081
0.00159911
0.00162961
0.00166214
0.00169642
0.00173259
0.00177104
0.00181225
0.0018582
0.00191245
0.0019809
0.00207214
0.00220446
0.00237717
0.0025752
0.00278065
0.00293009
0.00298678
0.00297421
0.00282317
0.0024984
0.00206361
0.00157925
0.00111261
0.000716787
0.000414043
0.000189581
2.42595e-05
9.75997e-05
0.000560474
0.000860233
0.00105409
0.00120016
0.0013229
0.00143586
0.00154555
0.00165221
0.00175074
0.00183276
0.00188348
0.00190087
0.00189067
0.0018587
0.00180009
0.0017248
0.00164952
0.00157977
0.00151903
0.00146756
0.00142432
0.0013883
0.00135852
0.0013342
0.00131483
0.00129994
0.00128912
0.00128223
0.001279
0.00127805
0.00127907
0.00128242
0.00128751
0.0012939
0.00130131
0.00130947
0.00131828
0.00132761
0.00133745
0.00134779
0.00135868
0.00137022
0.00138252
0.00139574
0.00141005
0.00142564
0.00144271
0.00146146
0.00148211
0.00150481
0.00152969
0.00155682
0.00158616
0.00161762
0.00165107
0.00168621
0.00172207
0.00175794
0.00179428
0.00183155
0.00187101
0.00191648
0.0019733
0.00205154
0.0021664
0.00234168
0.0025587
0.00279214
0.00296002
0.00302028
0.00299191
0.00279252
0.00239999
0.00189989
0.00137278
0.000895407
0.000515141
0.000232537
3.03021e-05
0.000118937
0.000651496
0.000983231
0.00119354
0.00134834
0.00147388
0.0015842
0.00168545
0.00177703
0.00185325
0.0019007
0.00191666
0.00190475
0.00186985
0.00180642
0.00172573
0.00164332
0.00156701
0.00150002
0.00144328
0.00139588
0.00135655
0.00132429
0.00129825
0.00127781
0.00126245
0.00125166
0.00124554
0.00124296
0.00124248
0.00124453
0.00124865
0.00125441
0.0012613
0.00126899
0.00127725
0.00128594
0.00129499
0.00130437
0.00131412
0.00132431
0.00133506
0.00134649
0.00135878
0.00137212
0.00138671
0.00140279
0.00142058
0.00144034
0.00146229
0.00148664
0.00151354
0.00154305
0.00157513
0.00160956
0.00164596
0.00168373
0.00172219
0.00176015
0.00179562
0.00182993
0.001864
0.00190014
0.00194056
0.00198857
0.00205715
0.00216199
0.00233129
0.00256466
0.00282171
0.00299401
0.00304659
0.00298505
0.00270678
0.00223162
0.00166813
0.00111563
0.000650663
0.000294602
3.94746e-05
0.000141722
0.000744605
0.00110658
0.00133154
0.00149247
0.00161714
0.00172011
0.00180739
0.00187818
0.00192238
0.00193714
0.00192445
0.00188668
0.00182036
0.00173502
0.00164595
0.00156219
0.00148846
0.00142583
0.00137376
0.00133088
0.00129598
0.00126812
0.00124655
0.00123064
0.00121976
0.00121406
0.00121185
0.0012116
0.00121403
0.00121841
0.00122416
0.00123086
0.00123812
0.00124574
0.00125359
0.00126164
0.00126989
0.00127841
0.0012873
0.00129668
0.00130672
0.00131759
0.00132948
0.00134259
0.00135717
0.00137345
0.0013917
0.00141219
0.00143521
0.00146103
0.00148988
0.00152192
0.0015572
0.00159558
0.00163671
0.00167988
0.00172409
0.0017686
0.001813
0.001851
0.00188241
0.00191007
0.00193819
0.00197322
0.00201807
0.00207921
0.00217762
0.00234328
0.00259123
0.00286727
0.00302374
0.00305545
0.00293673
0.00254276
0.00197759
0.00136515
0.000814509
0.000373467
5.15228e-05
0.000165259
0.000837599
0.00122741
0.00146488
0.0016292
0.00174945
0.00184077
0.00190946
0.00195118
0.00196494
0.00195198
0.00191121
0.00184355
0.00175425
0.00165869
0.001567
0.00148541
0.00141604
0.00135846
0.00131139
0.00127339
0.00124333
0.0012203
0.0012035
0.00119216
0.00118632
0.00118408
0.0011838
0.00118597
0.00119004
0.00119526
0.00120118
0.00120747
0.00121394
0.00122047
0.00122707
0.00123379
0.00124072
0.00124798
0.00125572
0.0012641
0.0012733
0.00128348
0.00129486
0.00130763
0.00132202
0.00133827
0.00135665
0.00137747
0.00140105
0.00142773
0.00145783
0.00149167
0.00152946
0.00157125
0.00161689
0.00166586
0.00171722
0.00176952
0.00182103
0.00187199
0.00191608
0.00194729
0.00197004
0.00198836
0.00201338
0.00205468
0.00211165
0.00220726
0.00237556
0.00264023
0.00291796
0.00304467
0.00304028
0.00280386
0.00228023
0.00163171
0.000999284
0.000464633
6.5743e-05
0.000188913
0.000928353
0.00134304
0.0015907
0.00175576
0.00186844
0.00194457
0.00198757
0.00200144
0.00198878
0.00194525
0.00187736
0.00178483
0.001683
0.0015829
0.00149234
0.00141485
0.00135064
0.00129838
0.00125651
0.00122361
0.00119856
0.00118036
0.00116807
0.00116148
0.00115878
0.00115821
0.00115965
0.00116295
0.00116726
0.00117207
0.00117708
0.00118211
0.0011871
0.00119207
0.00119711
0.00120233
0.00120788
0.00121392
0.00122061
0.00122812
0.00123661
0.00124624
0.00125719
0.00126963
0.00128378
0.00129985
0.00131811
0.00133886
0.00136245
0.00138927
0.00141973
0.00145428
0.00149332
0.00153714
0.00158588
0.00163936
0.00169696
0.0017575
0.00181905
0.00187891
0.00193673
0.00198697
0.00201875
0.00203618
0.00204655
0.00206112
0.00209493
0.00215121
0.00224733
0.00242537
0.0027081
0.00296298
0.00305601
0.00296324
0.00255389
0.00190394
0.00119913
0.000563779
8.12802e-05
0.000212015
0.00101494
0.00145112
0.00170663
0.00187012
0.00197272
0.00202724
0.00204518
0.0020343
0.00199055
0.001923
0.00182802
0.00172034
0.0016115
0.00151085
0.00142365
0.00135119
0.00129243
0.00124558
0.00120895
0.00118113
0.00116089
0.00114711
0.00113913
0.00113557
0.0011345
0.00113487
0.00113711
0.00114029
0.00114384
0.00114745
0.00115098
0.00115439
0.00115772
0.0011611
0.00116465
0.00116856
0.00117298
0.00117808
0.00118401
0.00119091
0.00119894
0.00120822
0.0012189
0.00123112
0.00124505
0.00126089
0.00127887
0.00129929
0.00132248
0.00134886
0.00137892
0.00141317
0.00145218
0.00149648
0.00154652
0.0016025
0.00166427
0.0017311
0.00180151
0.00187307
0.00194229
0.00200741
0.00206338
0.00209246
0.00210498
0.00210944
0.00211441
0.00213898
0.00219522
0.002297
0.00249572
0.00279579
0.00298787
0.00302017
0.00278055
0.00217036
0.00140915
0.000666697
9.73288e-05
0.000233924
0.00109569
0.00154975
0.00181095
0.00197125
0.00205833
0.00209051
0.00208875
0.00204983
0.00198025
0.00188475
0.00177203
0.00165446
0.00154277
0.00144415
0.0013615
0.00129445
0.00124118
0.00119966
0.00116814
0.00114512
0.00112922
0.00111923
0.0011143
0.00111232
0.00111188
0.0011127
0.00111466
0.00111692
0.00111916
0.00112124
0.00112315
0.00112495
0.00112679
0.00112881
0.00113119
0.00113411
0.00113774
0.00114222
0.00114768
0.00115425
0.00116204
0.00117116
0.00118171
0.00119381
0.00120759
0.00122321
0.00124088
0.00126084
0.00128344
0.00130906
0.00133822
0.00137148
0.00140951
0.00145303
0.00150274
0.00155922
0.00162281
0.00169338
0.00177006
0.00185104
0.00193326
0.00201231
0.00208524
0.00214301
0.00216801
0.00217503
0.00217277
0.00216814
0.00218448
0.00224244
0.0023575
0.0025897
0.00288055
0.00300539
0.00291169
0.00241538
0.00162456
0.000769984
0.00011392
0.000254084
0.0011692
0.00163743
0.00190229
0.00205555
0.00212541
0.00214101
0.00211472
0.00204851
0.00195579
0.00183905
0.00171334
0.00159008
0.00147846
0.00138342
0.00130588
0.0012443
0.00119639
0.00115998
0.00113322
0.00111445
0.00110216
0.00109511
0.00109178
0.00109046
0.00109015
0.00109066
0.00109169
0.00109266
0.00109343
0.00109399
0.00109442
0.00109487
0.0010955
0.00109649
0.00109803
0.00110029
0.0011034
0.00110751
0.00111273
0.00111913
0.00112683
0.00113589
0.0011464
0.00115844
0.00117213
0.00118757
0.00120495
0.00122449
0.00124647
0.00127126
0.00129934
0.00133129
0.00136783
0.00140977
0.00145799
0.0015134
0.00157676
0.00164853
0.00172858
0.00181586
0.00190808
0.00200135
0.00209007
0.00217014
0.00222572
0.00224506
0.00224746
0.00223174
0.00221876
0.00222995
0.00229437
0.00243263
0.00270572
0.00291973
0.00295732
0.00262939
0.00184366
0.000875032
0.000130763
0.00027211
0.00123437
0.00171309
0.0019797
0.00212308
0.00217683
0.00217756
0.00212735
0.00203866
0.00192167
0.00178928
0.0016547
0.00152892
0.00141932
0.00132871
0.00125645
0.00120021
0.0011574
0.00112573
0.0011032
0.00108803
0.00107854
0.00107324
0.00107059
0.00106929
0.00106869
0.00106843
0.00106826
0.00106788
0.00106725
0.00106648
0.00106569
0.00106512
0.0010649
0.00106511
0.00106605
0.00106785
0.00107063
0.00107449
0.00107954
0.00108584
0.00109347
0.00110249
0.00111297
0.00112497
0.00113858
0.0011539
0.00117106
0.00119024
0.0012117
0.00123575
0.00126283
0.00129349
0.00132842
0.00136847
0.00141461
0.00146796
0.00152961
0.00160054
0.00168133
0.00177183
0.0018707
0.00197494
0.00207952
0.00217712
0.0022632
0.00231053
0.0023241
0.00231671
0.00228306
0.00226233
0.00227667
0.00235522
0.0025397
0.00282298
0.00294347
0.00278656
0.00206302
0.00098983
0.000149234
0.000287973
0.00128992
0.00177576
0.00204172
0.0021744
0.00221608
0.00219921
0.00212644
0.00201752
0.00188237
0.00173806
0.00159791
0.00147193
0.00136554
0.00127974
0.00121269
0.00116153
0.00112346
0.00109603
0.00107709
0.00106472
0.00105714
0.00105278
0.00105027
0.00104863
0.00104734
0.00104611
0.00104474
0.00104312
0.00104131
0.00103947
0.00103774
0.00103633
0.0010355
0.00103523
0.00103565
0.00103708
0.00103956
0.00104319
0.00104804
0.00105418
0.00106168
0.0010706
0.00108099
0.00109291
0.00110643
0.00112163
0.00113862
0.00115756
0.00117864
0.00120215
0.00122845
0.00125803
0.00129154
0.00132978
0.00137375
0.00142462
0.00148374
0.00155246
0.00163197
0.00172297
0.0018252
0.00193688
0.00205409
0.00217032
0.00227616
0.00236179
0.00239703
0.00240281
0.00237734
0.00232324
0.00229767
0.00232681
0.00242982
0.00267818
0.00286061
0.00285949
0.00227904
0.00112785
0.0001721
0.000301103
0.00133608
0.001826
0.00208832
0.00221135
0.00224289
0.00220921
0.00211883
0.00198966
0.00184021
0.00168723
0.00154409
0.00141948
0.00131699
0.00123608
0.00117404
0.00112761
0.0010938
0.00107002
0.001054
0.00104369
0.0010373
0.00103333
0.00103061
0.00102839
0.00102627
0.00102403
0.00102158
0.00101892
0.00101616
0.00101347
0.00101102
0.00100897
0.00100757
0.00100694
0.0010069
0.00100792
0.00101004
0.00101333
0.00101789
0.00102375
0.00103099
0.00103968
0.00104987
0.00106162
0.001075
0.00109007
0.00110693
0.00112571
0.00114657
0.00116974
0.00119553
0.00122436
0.00125679
0.00129355
0.00133559
0.00138408
0.00144043
0.00150625
0.00158316
0.00167261
0.00177533
0.00189082
0.00201657
0.0021473
0.00227453
0.00238652
0.00246077
0.00248328
0.002475
0.00242191
0.00235156
0.00232636
0.00237935
0.0025442
0.00279881
0.00287725
0.00248421
0.00129839
0.000201727
0.000311389
0.00137295
0.00186368
0.00212092
0.00223507
0.0022575
0.00220801
0.00210213
0.00195759
0.00179698
0.00163806
0.00149385
0.00137164
0.00127336
0.00119724
0.0011399
0.00109778
0.00106772
0.001047
0.00103323
0.00102436
0.00101863
0.00101468
0.00101156
0.00100866
0.00100571
0.00100255
0.000999188
0.00099568
0.000992164
0.000988796
0.00098574
0.000983151
0.000981174
0.000980045
0.000979661
0.000980134
0.000981765
0.000984586
0.000988675
0.000994097
0.00100093
0.00100924
0.00101909
0.00103056
0.00104371
0.00105861
0.00107535
0.00109403
0.00111478
0.00113781
0.00116335
0.00119176
0.00122351
0.00125924
0.00129979
0.00134627
0.00140007
0.00146287
0.00153659
0.00162319
0.00172431
0.00184066
0.00197121
0.00211221
0.00225636
0.00239224
0.00250537
0.00255803
0.00256775
0.00253221
0.00244385
0.00237373
0.00236419
0.00245591
0.00269649
0.00284013
0.00265259
0.00149524
0.000237376
0.000318797
0.00140095
0.00188949
0.00214069
0.00224666
0.00226088
0.00220058
0.00207946
0.00192295
0.00175402
0.00159135
0.00144746
0.00132828
0.00123428
0.00116272
0.0011097
0.00107143
0.0010446
0.00102637
0.00101431
0.00100638
0.00100095
0.000996818
0.000993191
0.000989622
0.000985903
0.000981969
0.000977853
0.000973652
0.000969501
0.000965544
0.000961926
0.000958782
0.000956241
0.000954456
0.000953615
0.00095349
0.000954455
0.00095663
0.000960085
0.000964895
0.000971142
0.000978917
0.000988298
0.000999363
0.00101219
0.00102685
0.00104343
0.00106203
0.00108276
0.00110578
0.00113129
0.00115958
0.00119103
0.00122618
0.00126575
0.00131074
0.00136245
0.00142254
0.00149302
0.00157619
0.00167437
0.00178935
0.0019216
0.00206918
0.00222649
0.00238332
0.0025244
0.00262134
0.00265218
0.00263978
0.00256218
0.00243978
0.00238425
0.00241715
0.00258968
0.00277235
0.00274273
0.00170376
0.000275926
0.000323425
0.00142061
0.001904
0.00214806
0.00224687
0.00225635
0.00218485
0.00205279
0.00188712
0.00171228
0.00154759
0.00140499
0.00128915
0.00119935
0.00113204
0.00108295
0.00104806
0.00102394
0.0010077
0.000996889
0.000989555
0.000984196
0.000979769
0.000975632
0.000971442
0.00096706
0.000962469
0.000957726
0.000952933
0.000948212
0.000943692
0.000939497
0.000935749
0.000932567
0.000930068
0.000928442
0.00092777
0.000927904
0.000929265
0.00093192
0.000935958
0.000941468
0.000948557
0.000957322
0.000967856
0.000980248
0.000994585
0.00101096
0.00102946
0.0010502
0.00107331
0.00109895
0.00112735
0.00115882
0.00119379
0.00123289
0.00127695
0.00132714
0.00138502
0.00145259
0.00153229
0.00162686
0.00173896
0.00187041
0.00202108
0.00218742
0.00236104
0.00252783
0.00266622
0.00273002
0.00273969
0.0026841
0.00255226
0.00243121
0.00240596
0.00250627
0.00272775
0.00277497
0.00192669
0.000318358
0.000325132
0.00143226
0.00190778
0.00214623
0.00224084
0.00224436
0.00216355
0.00202339
0.00185113
0.00167244
0.00150706
0.00136638
0.00125398
0.00116817
0.00110477
0.00105917
0.00102721
0.00100536
0.000990673
0.00098077
0.000973783
0.000968358
0.0009636
0.000958983
0.000954246
0.000949299
0.000944148
0.000938859
0.000933525
0.000928253
0.000923152
0.000918334
0.000913912
0.00091
0.000906718
0.000904189
0.000902625
0.000902041
0.000902426
0.000904136
0.000907262
0.000911902
0.000918175
0.000926198
0.000936082
0.000947932
0.000961853
0.000977945
0.000996308
0.00101705
0.00104028
0.00106614
0.00109482
0.00112655
0.00116169
0.00120072
0.00124437
0.00129364
0.00134993
0.00141512
0.00149165
0.0015825
0.0016909
0.00181981
0.00197077
0.00214239
0.00232846
0.0025164
0.00268658
0.00279738
0.00283065
0.00280338
0.00268311
0.00250564
0.00242461
0.00246071
0.00266432
0.00277679
0.0021452
0.000361588
0.000324502
0.00143764
0.00190481
0.0021378
0.00222641
0.0022247
0.00213804
0.00199232
0.00181575
0.00163492
0.00146987
0.00133149
0.00122249
0.00114038
0.0010805
0.00103799
0.00100854
0.000988546
0.000975078
0.000965815
0.000959013
0.000953453
0.000948365
0.000943316
0.000938103
0.000932666
0.000927022
0.00092123
0.000915371
0.000909535
0.000903818
0.000898322
0.000893155
0.000888432
0.000884278
0.000880823
0.000878202
0.000876671
0.000876181
0.000876825
0.000878927
0.000882591
0.000887945
0.00089512
0.000904247
0.000915453
0.000928858
0.000944579
0.000962731
0.000983423
0.00100677
0.00103289
0.00106194
0.0010941
0.00112964
0.00116896
0.00121264
0.00126151
0.00131681
0.00138024
0.00145414
0.00154151
0.00164595
0.00177124
0.00192042
0.00209421
0.0022889
0.00249421
0.00269201
0.00284987
0.00291377
0.0029147
0.00281616
0.00262231
0.00246769
0.0024462
0.00258469
0.00273192
0.00233559
0.000400801
0.000322159
0.00143718
0.00189536
0.00212035
0.00220482
0.00219958
0.00210934
0.0019604
0.00178155
0.00160002
0.00143603
0.00130014
0.00119437
0.00111565
0.00105891
0.00101909
0.000991757
0.000973277
0.000960749
0.000951937
0.000945215
0.000939489
0.000934091
0.000928658
0.000923028
0.000917155
0.000911055
0.000904777
0.000898389
0.000891966
0.000885595
0.000879373
0.000873408
0.000867819
0.000862736
0.000858301
0.00085466
0.000851967
0.000850533
0.000850191
0.000851185
0.0008538
0.000858158
0.000864405
0.000872688
0.000883153
0.000895942
0.000911195
0.000929041
0.000949607
0.000973012
0.000999373
0.00102882
0.0010615
0.00109761
0.00113747
0.00118152
0.00123046
0.00128532
0.00134761
0.00141948
0.00150386
0.00160446
0.00172561
0.00187155
0.00204494
0.00224461
0.00246285
0.00268313
0.00287955
0.00299095
0.00301602
0.0029488
0.00275862
0.00253001
0.00244756
0.00253557
0.00269425
0.00248348
0.000432011
0.000317898
0.0014335
0.00187806
0.00209643
0.00217795
0.00217025
0.00207837
0.00192828
0.00174893
0.00156787
0.0014055
0.00127215
0.00116938
0.00109368
0.0010397
0.00100219
0.000976626
0.000959373
0.000947567
0.000939067
0.00093236
0.000926458
0.000920774
0.000914999
0.000908993
0.000902717
0.000896181
0.000889422
0.000882494
0.000875465
0.000868415
0.000861439
0.000854649
0.00084817
0.00084214
0.000836709
0.000832034
0.000828274
0.000825648
0.000824429
0.00082434
0.000825867
0.000829185
0.000834449
0.00084182
0.000851464
0.000863544
0.000878223
0.000895657
0.000915992
0.000939364
0.000965896
0.000995709
0.00102893
0.00106571
0.00110627
0.00115096
0.00120032
0.0012552
0.00131692
0.00138738
0.00146934
0.00156648
0.00168342
0.00182528
0.00199639
0.00219813
0.0024258
0.00266535
0.00289137
0.00305412
0.00310922
0.0030757
0.00290315
0.00263087
0.00247765
0.00249546
0.00265804
0.00257657
0.000451479
0.000312153
0.00142513
0.00185584
0.00206757
0.00214678
0.0021377
0.00204589
0.00189646
0.00171813
0.00153853
0.00137818
0.00124732
0.00114727
0.00107422
0.00102261
0.000987051
0.000962959
0.000946687
0.000935432
0.000927143
0.000920409
0.000914331
0.000908385
0.000902299
0.000895947
0.000889289
0.000882326
0.000875087
0.000867615
0.000859972
0.000852236
0.000844505
0.000836895
0.000829538
0.00082258
0.000816179
0.000810502
0.000805718
0.000802004
0.00079965
0.000798732
0.000799164
0.000801429
0.000805684
0.000812101
0.000820859
0.000832147
0.000846151
0.000863056
0.000883037
0.000906254
0.00093285
0.000962952
0.000996672
0.00103413
0.00107549
0.00112099
0.00117105
0.00122634
0.00128796
0.00135759
0.00143773
0.00153192
0.00164487
0.00178224
0.00194971
0.002151
0.00238454
0.0026396
0.00289338
0.0031035
0.00319477
0.0031939
0.00304524
0.00276102
0.0025172
0.00247737
0.00262034
0.00262156
0.000460314
0.000304968
0.00141299
0.00182964
0.00203484
0.00211223
0.00210281
0.00201252
0.00186532
0.00168932
0.001512
0.00135394
0.00122546
0.00112782
0.00105704
0.00100743
0.000973492
0.000950594
0.000935098
0.000924257
0.000916104
0.000909315
0.000903064
0.000896875
0.0008905
0.000883822
0.000876796
0.000869418
0.000861705
0.000853696
0.00084545
0.000837046
0.000828587
0.000820192
0.000812001
0.000804169
0.00079686
0.000790247
0.000784506
0.000779818
0.000776368
0.000774518
0.000774068
0.000775289
0.000778538
0.000783982
0.000791814
0.000802241
0.000815477
0.000831737
0.000851229
0.00087415
0.000900671
0.000930938
0.00096507
0.00100317
0.00104534
0.00109176
0.00114271
0.0011987
0.00126063
0.00132992
0.00140883
0.00150065
0.00161
0.00174283
0.00190583
0.00210472
0.00234093
0.00260711
0.00288285
0.00313315
0.00327526
0.00330285
0.00318856
0.00290568
0.00258208
0.00247156
0.00258725
0.00263928
0.000463368
0.000296691
0.00139834
0.00180041
0.00199915
0.00207517
0.00206631
0.00197877
0.00183513
0.00166259
0.00148822
0.00133266
0.00120641
0.00111083
0.00104194
0.000993974
0.000961345
0.000939396
0.000924499
0.000913959
0.000905883
0.00089902
0.0008926
0.000886183
0.000879537
0.000872549
0.000865171
0.000857391
0.000849222
0.000840699
0.000831881
0.000822851
0.000813714
0.000804599
0.000795649
0.000787026
0.0007789
0.000771446
0.000764844
0.000759273
0.00075491
0.000752047
0.000750857
0.000751116
0.000753394
0.000757875
0.000764763
0.000774282
0.00078667
0.000802176
0.000821047
0.000843518
0.000869805
0.000900085
0.000934496
0.000973139
0.00101609
0.00106346
0.00111541
0.00117233
0.00123488
0.00130428
0.00138247
0.00147249
0.00157874
0.00170724
0.00186536
0.00206047
0.00229691
0.00257104
0.00286574
0.00314707
0.00334293
0.00340356
0.00332629
0.00305587
0.002675
0.00248728
0.00254004
0.0026438
0.000463824
0.000287613
0.00138223
0.0017691
0.00196137
0.00203637
0.00202881
0.00194504
0.00180607
0.00163794
0.00146712
0.0013142
0.00119
0.00109614
0.00102876
0.000982077
0.000950469
0.000929247
0.000914793
0.00090446
0.000896415
0.000889462
0.000882875
0.000876242
0.000869342
0.000862062
0.000854351
0.000846193
0.000837598
0.0008286
0.000819261
0.000809666
0.000799927
0.000790177
0.000780566
0.000771259
0.000762429
0.000754253
0.000746911
0.000740582
0.000735447
0.00073169
0.000729687
0.000729211
0.000730567
0.00073412
0.000740071
0.000748657
0.000760139
0.000774797
0.00079292
0.000814792
0.000840675
0.000870796
0.000905326
0.000944383
0.000988032
0.00103632
0.00108934
0.00114732
0.00121076
0.00128061
0.00135855
0.00144729
0.00155097
0.00167549
0.0018286
0.00201897
0.00225351
0.0025324
0.00284245
0.00315172