/*--------------------------------*- C++ -*----------------------------------*\
  =========                 |
  \\      /  F ield         | OpenFOAM: The Open Source CFD Toolbox
   \\    /   O peration     | Website:  https://openfoam.org
    \\  /    A nd           | Version:  13
     \\/     M anipulation  |
\*---------------------------------------------------------------------------*/
FoamFile
{
    format      ascii;
    class       volScalarField;
    location    "2.8";
    object      nut;
}
// * * * * * * * * * * * * * * * * * * * * * * * * * * * * * * * * * * * * * //

dimensions      [0 2 -1 0 0 0 0];

internalField   nonuniform List<scalar> 
6400
(
7.38673e-10
3.74705e-09
8.67414e-09
1.39327e-08
1.85567e-08
2.22959e-08
2.53488e-08
2.80895e-08
3.08732e-08
3.39755e-08
3.76028e-08
4.18869e-08
4.69299e-08
5.27573e-08
5.94007e-08
6.68685e-08
7.51245e-08
8.40558e-08
9.34895e-08
1.03257e-07
1.13349e-07
1.24145e-07
1.36518e-07
1.5113e-07
1.68193e-07
1.8705e-07
2.06433e-07
2.25951e-07
2.45998e-07
2.67025e-07
2.89232e-07
3.12401e-07
3.35324e-07
3.57901e-07
3.80028e-07
4.01957e-07
4.24001e-07
4.464e-07
4.69476e-07
4.93452e-07
5.18588e-07
5.45029e-07
5.73034e-07
6.02844e-07
6.34291e-07
6.67463e-07
7.02543e-07
7.40719e-07
7.84198e-07
8.386e-07
8.94414e-07
9.51038e-07
1.00674e-06
1.06048e-06
1.11046e-06
1.15472e-06
1.19097e-06
1.21464e-06
1.22613e-06
1.22971e-06
1.21349e-06
1.1766e-06
1.11978e-06
1.04445e-06
9.51857e-07
8.45527e-07
7.30836e-07
6.14023e-07
4.99977e-07
3.91858e-07
2.94253e-07
2.16925e-07
1.53626e-07
1.03975e-07
6.73369e-08
4.17092e-08
2.45934e-08
1.34622e-08
5.98424e-09
1.24092e-09
3.64143e-09
2.85978e-07
1.01691e-06
1.74381e-06
2.32698e-06
2.7523e-06
3.06017e-06
3.29968e-06
3.51133e-06
3.72218e-06
3.9479e-06
4.19574e-06
4.4627e-06
4.7444e-06
5.03064e-06
5.30949e-06
5.56823e-06
5.7917e-06
5.96624e-06
6.08417e-06
6.15229e-06
6.20619e-06
6.31177e-06
6.48067e-06
6.71607e-06
6.98288e-06
7.21021e-06
7.41081e-06
7.63762e-06
7.9194e-06
8.27878e-06
8.73078e-06
9.21764e-06
9.7383e-06
1.02815e-05
1.08459e-05
1.14353e-05
1.20476e-05
1.26856e-05
1.33486e-05
1.40398e-05
1.4754e-05
1.54901e-05
1.62768e-05
1.71075e-05
1.79747e-05
1.88389e-05
1.96899e-05
2.0497e-05
2.12278e-05
2.19717e-05
2.2727e-05
2.34828e-05
2.42259e-05
2.49405e-05
2.56071e-05
2.62474e-05
2.671e-05
2.69657e-05
2.72254e-05
2.7258e-05
2.70087e-05
2.6451e-05
2.56145e-05
2.44629e-05
2.29829e-05
2.12544e-05
1.93451e-05
1.72286e-05
1.49891e-05
1.27027e-05
1.01299e-05
7.66498e-06
5.5313e-06
3.82764e-06
2.53972e-06
1.61692e-06
9.60575e-07
3.88063e-07
6.44562e-09
8.16347e-09
8.3089e-07
3.49031e-06
6.29826e-06
8.45223e-06
9.90547e-06
1.08282e-05
1.14119e-05
1.18104e-05
1.21214e-05
1.2421e-05
1.27367e-05
1.30713e-05
1.34169e-05
1.37557e-05
1.40722e-05
1.43583e-05
1.46018e-05
1.47923e-05
1.49234e-05
1.49944e-05
1.50097e-05
1.49847e-05
1.49864e-05
1.50344e-05
1.51443e-05
1.53779e-05
1.57259e-05
1.60766e-05
1.647e-05
1.68604e-05
1.72903e-05
1.7881e-05
1.86381e-05
1.95247e-05
2.04812e-05
2.15283e-05
2.26451e-05
2.38289e-05
2.50496e-05
2.63482e-05
2.76982e-05
2.90718e-05
3.043e-05
3.17442e-05
3.30139e-05
3.42801e-05
3.55236e-05
3.67336e-05
3.79309e-05
3.9117e-05
4.02818e-05
4.14117e-05
4.24934e-05
4.35079e-05
4.44355e-05
4.52532e-05
4.59171e-05
4.63991e-05
4.66134e-05
4.67466e-05
4.6553e-05
4.60202e-05
4.51561e-05
4.38392e-05
4.19433e-05
3.96042e-05
3.68875e-05
3.3787e-05
3.0378e-05
2.67295e-05
2.28566e-05
1.89053e-05
1.50846e-05
1.15902e-05
8.57326e-06
6.07879e-06
3.91203e-06
1.45544e-06
1.62517e-08
1.41553e-08
1.42565e-06
5.77739e-06
1.02839e-05
1.36735e-05
1.59311e-05
1.73125e-05
1.8108e-05
1.85649e-05
1.88661e-05
1.91074e-05
1.9339e-05
1.95781e-05
1.98222e-05
2.00632e-05
2.02851e-05
2.04666e-05
2.05935e-05
2.06598e-05
2.06697e-05
2.06424e-05
2.06048e-05
2.05881e-05
2.0653e-05
2.08404e-05
2.10392e-05
2.12275e-05
2.13928e-05
2.17439e-05
2.24638e-05
2.33601e-05
2.45462e-05
2.57132e-05
2.68556e-05
2.81052e-05
2.93896e-05
3.0708e-05
3.2032e-05
3.34208e-05
3.4786e-05
3.61345e-05
3.74612e-05
3.87503e-05
3.99975e-05
4.12016e-05
4.23656e-05
4.34863e-05
4.45689e-05
4.56295e-05
4.66649e-05
4.76703e-05
4.8637e-05
4.95546e-05
5.04105e-05
5.11889e-05
5.18711e-05
5.24351e-05
5.28567e-05
5.31142e-05
5.3143e-05
5.30895e-05
5.27903e-05
5.22756e-05
5.14403e-05
5.04335e-05
4.88751e-05
4.66899e-05
4.40873e-05
4.10819e-05
3.77167e-05
3.40348e-05
3.00765e-05
2.59163e-05
2.16588e-05
1.74753e-05
1.35513e-05
1.00033e-05
6.60425e-06
2.41002e-06
2.58377e-08
2.20285e-08
2.12978e-06
8.01073e-06
1.37754e-05
1.79081e-05
2.05875e-05
2.21751e-05
2.30463e-05
2.3511e-05
2.37883e-05
2.40056e-05
2.42214e-05
2.44486e-05
2.46757e-05
2.4881e-05
2.50409e-05
2.51366e-05
2.51613e-05
2.51243e-05
2.50441e-05
2.4972e-05
2.49601e-05
2.4952e-05
2.49107e-05
2.48407e-05
2.49214e-05
2.5483e-05
2.64246e-05
2.74606e-05
2.85366e-05
2.97581e-05
3.10646e-05
3.23445e-05
3.36514e-05
3.49854e-05
3.62438e-05
3.7504e-05
3.88071e-05
3.99816e-05
4.11254e-05
4.22001e-05
4.3219e-05
4.41761e-05
4.50786e-05
4.5931e-05
4.67416e-05
4.75219e-05
4.82738e-05
4.89986e-05
4.96951e-05
5.03621e-05
5.09964e-05
5.15936e-05
5.21479e-05
5.2652e-05
5.30958e-05
5.34655e-05
5.37451e-05
5.39159e-05
5.39534e-05
5.37473e-05
5.35531e-05
5.28484e-05
5.20096e-05
5.06225e-05
4.9683e-05
4.80614e-05
4.58926e-05
4.32976e-05
4.03241e-05
3.70041e-05
3.33752e-05
2.94806e-05
2.53731e-05
2.1144e-05
1.6928e-05
1.28236e-05
8.53728e-06
3.05311e-06
3.21941e-08
3.2346e-08
2.99345e-06
1.04223e-05
1.71542e-05
2.1749e-05
2.46045e-05
2.62253e-05
2.70757e-05
2.75149e-05
2.77812e-05
2.80036e-05
2.82298e-05
2.84574e-05
2.86609e-05
2.88098e-05
2.88796e-05
2.88587e-05
2.87553e-05
2.86199e-05
2.84188e-05
2.82597e-05
2.8109e-05
2.76484e-05
2.7703e-05
2.84105e-05
2.93475e-05
3.04541e-05
3.16657e-05
3.29407e-05
3.42257e-05
3.55107e-05
3.6799e-05
3.80344e-05
3.92328e-05
4.03222e-05
4.13361e-05
4.23434e-05
4.32473e-05
4.40403e-05
4.47772e-05
4.54352e-05
4.60353e-05
4.65786e-05
4.70761e-05
4.7534e-05
4.79598e-05
4.83567e-05
4.87163e-05
4.90444e-05
4.93429e-05
4.96149e-05
4.98628e-05
5.00888e-05
5.02943e-05
5.04792e-05
5.06433e-05
5.07841e-05
5.08949e-05
5.09682e-05
5.09906e-05
5.09447e-05
5.0746e-05
5.0389e-05
5.00918e-05
4.92884e-05
4.79453e-05
4.71014e-05
4.54354e-05
4.33085e-05
4.07622e-05
3.78217e-05
3.45414e-05
3.09761e-05
2.71655e-05
2.31423e-05
1.89467e-05
1.45891e-05
9.68274e-06
3.37592e-06
3.49136e-08
4.56498e-08
4.03946e-06
1.30381e-05
2.0544e-05
2.54283e-05
2.83148e-05
2.98676e-05
3.06388e-05
3.1025e-05
3.12682e-05
3.14827e-05
3.1695e-05
3.18842e-05
3.20138e-05
3.20525e-05
3.19863e-05
3.18185e-05
3.14883e-05
3.11993e-05
3.09415e-05
3.02761e-05
3.02192e-05
3.08642e-05
3.18157e-05
3.28524e-05
3.39882e-05
3.51334e-05
3.63359e-05
3.75421e-05
3.87504e-05
3.98792e-05
4.09017e-05
4.18814e-05
4.27654e-05
4.35388e-05
4.42403e-05
4.49303e-05
4.55198e-05
4.601e-05
4.64488e-05
4.6818e-05
4.71343e-05
4.73974e-05
4.76134e-05
4.7784e-05
4.79114e-05
4.7996e-05
4.80386e-05
4.8043e-05
4.80128e-05
4.79519e-05
4.7865e-05
4.77595e-05
4.7644e-05
4.75276e-05
4.74209e-05
4.73338e-05
4.72691e-05
4.72224e-05
4.71933e-05
4.71917e-05
4.719e-05
4.71608e-05
4.69351e-05
4.67072e-05
4.62324e-05
4.51554e-05
4.43729e-05
4.27401e-05
4.06135e-05
3.79883e-05
3.49405e-05
3.15636e-05
2.79364e-05
2.4096e-05
2.00087e-05
1.55293e-05
1.0221e-05
3.47766e-06
3.50925e-08
6.23727e-08
5.26415e-06
1.58117e-05
2.3952e-05
2.90093e-05
3.18381e-05
3.32639e-05
3.39184e-05
3.42236e-05
3.44136e-05
3.45796e-05
3.47245e-05
3.48123e-05
3.48023e-05
3.46701e-05
3.44402e-05
3.39848e-05
3.36017e-05
3.29447e-05
3.25592e-05
3.29726e-05
3.37568e-05
3.45349e-05
3.55032e-05
3.65294e-05
3.76327e-05
3.87762e-05
3.98968e-05
4.09631e-05
4.19587e-05
4.28687e-05
4.37068e-05
4.44357e-05
4.50708e-05
4.5648e-05
4.61314e-05
4.65649e-05
4.69815e-05
4.72766e-05
4.75349e-05
4.773e-05
4.78775e-05
4.79736e-05
4.80223e-05
4.80237e-05
4.79791e-05
4.78887e-05
4.77528e-05
4.75706e-05
4.73467e-05
4.70829e-05
4.67815e-05
4.64463e-05
4.60839e-05
4.57048e-05
4.5326e-05
4.49709e-05
4.46653e-05
4.44134e-05
4.41887e-05
4.40637e-05
4.40233e-05
4.40324e-05
4.41073e-05
4.41564e-05
4.39325e-05
4.36592e-05
4.28143e-05
4.21565e-05
4.05229e-05
3.82453e-05
3.53958e-05
3.20911e-05
2.84628e-05
2.46208e-05
2.05704e-05
1.60606e-05
1.04639e-05
3.49025e-06
3.46326e-08
8.28338e-08
6.63515e-06
1.86585e-05
2.73547e-05
3.24964e-05
3.5211e-05
3.64723e-05
3.69801e-05
3.71715e-05
3.72654e-05
3.73281e-05
3.73431e-05
3.72668e-05
3.70653e-05
3.66324e-05
3.61147e-05
3.56727e-05
3.48377e-05
3.49361e-05
3.54042e-05
3.58922e-05
3.66275e-05
3.74885e-05
3.85283e-05
3.95774e-05
4.06477e-05
4.16817e-05
4.26526e-05
4.35447e-05
4.4355e-05
4.50822e-05
4.57317e-05
4.63277e-05
4.68438e-05
4.72646e-05
4.76456e-05
4.79668e-05
4.82814e-05
4.85041e-05
4.86826e-05
4.88067e-05
4.88844e-05
4.89131e-05
4.88958e-05
4.88334e-05
4.87282e-05
4.8582e-05
4.83978e-05
4.81802e-05
4.79248e-05
4.76293e-05
4.7289e-05
4.68964e-05
4.64447e-05
4.59271e-05
4.53369e-05
4.4678e-05
4.39669e-05
4.32628e-05
4.26884e-05
4.22282e-05
4.19435e-05
4.17117e-05
4.16901e-05
4.17908e-05
4.19623e-05
4.18453e-05
4.16229e-05
4.09549e-05
4.04402e-05
3.86535e-05
3.61215e-05
3.29426e-05
2.92583e-05
2.52504e-05
2.10295e-05
1.64588e-05
1.0699e-05
3.52691e-06
3.50308e-08
1.07625e-07
8.06554e-06
2.15044e-05
3.06964e-05
3.58711e-05
3.84364e-05
3.95059e-05
3.9838e-05
3.98775e-05
3.98261e-05
3.97295e-05
3.95613e-05
3.92833e-05
3.86706e-05
3.80721e-05
3.75187e-05
3.68803e-05
3.69564e-05
3.72536e-05
3.76149e-05
3.82828e-05
3.91375e-05
4.00884e-05
4.11108e-05
4.2106e-05
4.30745e-05
4.39766e-05
4.4808e-05
4.55648e-05
4.62523e-05
4.68747e-05
4.74524e-05
4.79832e-05
4.84259e-05
4.87941e-05
4.91391e-05
4.9469e-05
4.97473e-05
4.99482e-05
5.0109e-05
5.02153e-05
5.02739e-05
5.02832e-05
5.02463e-05
5.01652e-05
5.00432e-05
4.9884e-05
4.96906e-05
4.94642e-05
4.92049e-05
4.89122e-05
4.85824e-05
4.82071e-05
4.77766e-05
4.72807e-05
4.67014e-05
4.60237e-05
4.52582e-05
4.43994e-05
4.34121e-05
4.23294e-05
4.12506e-05
4.05252e-05
4.01052e-05
3.99059e-05
3.99915e-05
4.02218e-05
4.01757e-05
3.99479e-05
3.94801e-05
3.89117e-05
3.68948e-05
3.40407e-05
3.04363e-05
2.62833e-05
2.17804e-05
1.69505e-05
1.10727e-05
3.67305e-06
3.72065e-08
1.37554e-07
9.46542e-06
2.42935e-05
3.39364e-05
3.91109e-05
4.15036e-05
4.23585e-05
4.24846e-05
4.23314e-05
4.20859e-05
4.17807e-05
4.13886e-05
4.06389e-05
3.99987e-05
3.92651e-05
3.88238e-05
3.87859e-05
3.87773e-05
3.91008e-05
3.96647e-05
4.0458e-05
4.13631e-05
4.23154e-05
4.32739e-05
4.41872e-05
4.50542e-05
4.58567e-05
4.66004e-05
4.72872e-05
4.79223e-05
4.85468e-05
4.91172e-05
4.95841e-05
5.00017e-05
5.03939e-05
5.08082e-05
5.11276e-05
5.13997e-05
5.1612e-05
5.1776e-05
5.18847e-05
5.19417e-05
5.19467e-05
5.1902e-05
5.18092e-05
5.16709e-05
5.14899e-05
5.12684e-05
5.10091e-05
5.07146e-05
5.03874e-05
5.00303e-05
4.96462e-05
4.92296e-05
4.87648e-05
4.82336e-05
4.76085e-05
4.6876e-05
4.60205e-05
4.50203e-05
4.39076e-05
4.26859e-05
4.13219e-05
3.98579e-05
3.89046e-05
3.85216e-05
3.84497e-05
3.87104e-05
3.87241e-05
3.85353e-05
3.80867e-05
3.73498e-05
3.50533e-05
3.17676e-05
2.76649e-05
2.29633e-05
1.78116e-05
1.17064e-05
4.03679e-06
4.26463e-08
1.71615e-07
1.08778e-05
2.70014e-05
3.70434e-05
4.21931e-05
4.43964e-05
4.50162e-05
4.49063e-05
4.45215e-05
4.40399e-05
4.34894e-05
4.25993e-05
4.18809e-05
4.10125e-05
4.05693e-05
4.03465e-05
4.01688e-05
4.03643e-05
4.08522e-05
4.15474e-05
4.23946e-05
4.32975e-05
4.42107e-05
4.51015e-05
4.59476e-05
4.675e-05
4.75042e-05
4.82168e-05
4.89077e-05
4.95922e-05
5.01995e-05
5.07244e-05
5.12076e-05
5.16872e-05
5.21698e-05
5.25694e-05
5.29113e-05
5.32008e-05
5.34333e-05
5.36112e-05
5.37315e-05
5.37958e-05
5.38042e-05
5.37582e-05
5.36594e-05
5.35098e-05
5.33122e-05
5.30692e-05
5.27838e-05
5.24589e-05
5.2097e-05
5.16998e-05
5.12674e-05
5.07986e-05
5.02918e-05
4.97472e-05
4.91559e-05
4.84683e-05
4.76447e-05
4.66904e-05
4.55769e-05
4.43247e-05
4.2972e-05
4.14759e-05
3.97902e-05
3.80797e-05
3.73345e-05
3.71206e-05
3.73402e-05
3.73583e-05
3.71819e-05
3.65829e-05
3.56375e-05
3.28984e-05
2.90982e-05
2.44183e-05
1.90475e-05
1.27006e-05
4.64302e-06
5.32657e-08
2.09143e-07
1.22782e-05
2.9589e-05
3.99859e-05
4.50948e-05
4.70979e-05
4.74649e-05
4.70916e-05
4.64419e-05
4.56932e-05
4.46322e-05
4.37895e-05
4.28186e-05
4.22382e-05
4.18201e-05
4.14894e-05
4.15114e-05
4.18747e-05
4.24806e-05
4.3245e-05
4.41012e-05
4.49801e-05
4.58524e-05
4.66986e-05
4.75115e-05
4.82936e-05
4.90447e-05
4.98145e-05
5.05594e-05
5.12063e-05
5.18167e-05
5.23759e-05
5.29338e-05
5.35068e-05
5.39905e-05
5.44199e-05
5.47941e-05
5.51125e-05
5.53724e-05
5.55733e-05
5.57138e-05
5.57938e-05
5.58134e-05
5.57732e-05
5.56744e-05
5.55189e-05
5.53091e-05
5.50482e-05
5.47395e-05
5.43866e-05
5.39929e-05
5.35609e-05
5.30916e-05
5.25838e-05
5.20335e-05
5.14336e-05
5.0774e-05
5.00448e-05
4.92106e-05
4.81868e-05
4.70472e-05
4.57945e-05
4.44869e-05
4.31016e-05
4.14812e-05
3.96734e-05
3.7632e-05
3.62871e-05
3.59182e-05
3.60684e-05
3.59941e-05
3.57052e-05
3.50394e-05
3.35443e-05
3.02584e-05
2.58389e-05
2.0448e-05
1.39459e-05
5.4098e-06
6.93884e-08
2.4922e-07
1.36371e-05
3.20176e-05
4.27348e-05
4.77955e-05
4.9593e-05
4.96936e-05
4.90344e-05
4.80942e-05
4.68328e-05
4.58116e-05
4.47514e-05
4.39151e-05
4.32967e-05
4.27796e-05
4.26126e-05
4.28059e-05
4.3293e-05
4.39721e-05
4.47657e-05
4.56142e-05
4.64723e-05
4.7323e-05
4.81564e-05
4.8971e-05
4.97682e-05
5.06127e-05
5.14237e-05
5.21236e-05
5.28224e-05
5.34833e-05
5.41171e-05
5.4749e-05
5.53557e-05
5.58749e-05
5.63478e-05
5.67637e-05
5.71215e-05
5.74189e-05
5.76538e-05
5.78248e-05
5.79304e-05
5.79699e-05
5.79431e-05
5.78502e-05
5.76924e-05
5.74719e-05
5.71918e-05
5.6856e-05
5.64695e-05
5.60372e-05
5.55644e-05
5.50548e-05
5.45104e-05
5.39297e-05
5.33066e-05
5.26292e-05
5.18797e-05
5.10693e-05
5.02312e-05
4.90732e-05
4.76261e-05
4.60122e-05
4.43814e-05
4.28958e-05
4.13037e-05
3.93477e-05
3.71165e-05
3.52623e-05
3.47172e-05
3.47807e-05
3.45546e-05
3.41379e-05
3.34002e-05
3.09362e-05
2.69637e-05
2.17557e-05
1.52499e-05
6.24195e-06
9.05672e-08
2.90619e-07
1.49269e-05
3.42561e-05
4.52666e-05
5.02793e-05
5.18722e-05
5.16986e-05
5.07374e-05
4.92863e-05
4.80408e-05
4.68876e-05
4.56888e-05
4.48543e-05
4.41122e-05
4.3721e-05
4.37113e-05
4.40385e-05
4.46098e-05
4.53312e-05
4.61371e-05
4.6981e-05
4.7835e-05
4.8689e-05
4.9538e-05
5.03812e-05
5.1289e-05
5.21692e-05
5.29421e-05
5.37101e-05
5.44759e-05
5.52148e-05
5.59318e-05
5.66051e-05
5.72421e-05
5.78288e-05
5.83531e-05
5.88244e-05
5.9235e-05
5.95829e-05
5.98649e-05
6.00788e-05
6.02219e-05
6.02919e-05
6.02872e-05
6.02068e-05
6.00507e-05
5.98202e-05
5.9518e-05
5.91482e-05
5.87166e-05
5.82303e-05
5.76971e-05
5.71251e-05
5.65212e-05
5.58897e-05
5.52304e-05
5.45366e-05
5.37932e-05
5.29751e-05
5.20638e-05
5.11589e-05
4.9998e-05
4.8339e-05
4.64073e-05
4.43527e-05
4.25142e-05
4.08919e-05
3.88369e-05
3.63894e-05
3.4184e-05
3.3512e-05
3.32625e-05
3.31213e-05
3.24742e-05
3.11019e-05
2.76593e-05
2.28026e-05
1.64109e-05
7.02717e-06
1.15565e-07
3.32225e-07
1.61246e-05
3.62803e-05
4.75651e-05
5.25387e-05
5.39367e-05
5.3492e-05
5.20393e-05
5.0579e-05
4.93005e-05
4.76545e-05
4.65754e-05
4.55635e-05
4.49047e-05
4.46486e-05
4.47738e-05
4.51995e-05
4.58269e-05
4.65758e-05
4.73934e-05
4.82457e-05
4.91151e-05
4.9995e-05
5.08813e-05
5.18367e-05
5.27872e-05
5.36508e-05
5.44848e-05
5.53369e-05
5.61747e-05
5.69874e-05
5.77706e-05
5.85134e-05
5.92141e-05
5.98594e-05
6.04375e-05
6.09836e-05
6.14658e-05
6.18811e-05
6.22238e-05
6.2494e-05
6.2687e-05
6.2799e-05
6.28266e-05
6.27671e-05
6.2619e-05
6.23821e-05
6.20578e-05
6.16498e-05
6.1164e-05
6.06085e-05
5.99934e-05
5.93307e-05
5.86326e-05
5.79104e-05
5.71723e-05
5.64206e-05
5.56495e-05
5.48419e-05
5.39671e-05
5.29795e-05
5.19827e-05
5.07952e-05
4.89621e-05
4.67058e-05
4.43326e-05
4.21305e-05
4.02507e-05
3.81177e-05
3.53707e-05
3.28999e-05
3.20543e-05
3.17263e-05
3.15998e-05
3.03254e-05
2.78888e-05
2.34958e-05
1.73426e-05
7.68854e-06
1.42878e-07
3.72859e-07
1.72126e-05
3.80751e-05
4.96237e-05
5.45778e-05
5.58009e-05
5.48896e-05
5.33225e-05
5.18833e-05
4.9973e-05
4.8551e-05
4.72173e-05
4.62402e-05
4.56852e-05
4.5556e-05
4.57893e-05
4.62863e-05
4.69547e-05
4.77283e-05
4.85654e-05
4.94415e-05
5.03442e-05
5.12678e-05
5.22529e-05
5.32705e-05
5.42373e-05
5.51329e-05
5.60646e-05
5.69963e-05
5.79109e-05
5.88003e-05
5.96583e-05
6.04774e-05
6.12533e-05
6.19795e-05
6.2655e-05
6.32557e-05
6.38018e-05
6.43189e-05
6.47357e-05
6.50731e-05
6.53271e-05
6.54917e-05
6.55618e-05
6.55331e-05
6.54019e-05
6.51663e-05
6.4826e-05
6.43831e-05
6.38422e-05
6.32115e-05
6.25019e-05
6.17278e-05
6.09058e-05
6.00536e-05
5.9188e-05
5.83222e-05
5.74619e-05
5.66025e-05
5.57247e-05
5.47922e-05
5.37491e-05
5.26662e-05
5.14372e-05
4.93271e-05
4.68779e-05
4.43262e-05
4.17131e-05
3.9475e-05
3.71455e-05
3.40855e-05
3.15959e-05
3.06457e-05
2.99924e-05
2.95117e-05
2.77943e-05
2.38392e-05
1.79961e-05
8.16808e-06
1.71089e-07
4.11396e-07
1.81777e-05
3.96337e-05
5.14468e-05
5.64255e-05
5.72968e-05
5.6109e-05
5.4811e-05
5.28375e-05
5.08097e-05
4.91637e-05
4.78139e-05
4.68995e-05
4.64528e-05
4.64341e-05
4.67516e-05
4.73033e-05
4.80075e-05
4.88103e-05
4.9679e-05
5.05947e-05
5.15483e-05
5.25416e-05
5.36112e-05
5.46667e-05
5.56641e-05
5.66506e-05
5.76725e-05
5.86872e-05
5.9685e-05
6.06589e-05
6.16021e-05
6.25086e-05
6.3373e-05
6.419e-05
6.4955e-05
6.56608e-05
6.62735e-05
6.68586e-05
6.7382e-05
6.77914e-05
6.81136e-05
6.83383e-05
6.84595e-05
6.8471e-05
6.83675e-05
6.81448e-05
6.78005e-05
6.73341e-05
6.67483e-05
6.60492e-05
6.52471e-05
6.43565e-05
6.33965e-05
6.23894e-05
6.13595e-05
6.03303e-05
5.93207e-05
5.83406e-05
5.7386e-05
5.64348e-05
5.54436e-05
5.43454e-05
5.31921e-05
5.17326e-05
4.93082e-05
4.67353e-05
4.41049e-05
4.11316e-05
3.85011e-05
3.58409e-05
3.23719e-05
3.00974e-05
2.89563e-05
2.85864e-05
2.6978e-05
2.38567e-05
1.83435e-05
8.46462e-06
2.00257e-07
4.46855e-07
1.90108e-05
4.09515e-05
5.30334e-05
5.79386e-05
5.84869e-05
5.75481e-05
5.58306e-05
5.34418e-05
5.15092e-05
4.9722e-05
4.83827e-05
4.75454e-05
4.72014e-05
4.7275e-05
4.76596e-05
4.82577e-05
4.89991e-05
4.9839e-05
5.07507e-05
5.1719e-05
5.27354e-05
5.38149e-05
5.49356e-05
5.60387e-05
5.71103e-05
5.81946e-05
5.93066e-05
6.04108e-05
6.14998e-05
6.25665e-05
6.36045e-05
6.46077e-05
6.55689e-05
6.64815e-05
6.73413e-05
6.81414e-05
6.88404e-05
6.9479e-05
7.01117e-05
7.05962e-05
7.09875e-05
7.12753e-05
7.14525e-05
7.15119e-05
7.14464e-05
7.12499e-05
7.09175e-05
7.04459e-05
6.98346e-05
6.90866e-05
6.82093e-05
6.72152e-05
6.61229e-05
6.49565e-05
6.37453e-05
6.25212e-05
6.13156e-05
6.0154e-05
5.90501e-05
5.8e-05
5.69764e-05
5.59257e-05
5.47676e-05
5.3553e-05
5.17738e-05
4.90007e-05
4.64427e-05
4.35106e-05
4.02751e-05
3.72554e-05
3.41625e-05
3.03975e-05
2.83547e-05
2.69307e-05
2.62531e-05
2.37369e-05
1.84698e-05
8.63377e-06
2.29866e-07
4.78565e-07
1.97041e-05
4.20252e-05
5.43697e-05
5.91269e-05
5.9625e-05
5.87937e-05
5.66989e-05
5.4275e-05
5.20637e-05
5.02382e-05
4.89317e-05
4.8176e-05
4.79239e-05
4.80743e-05
4.85155e-05
4.9158e-05
4.99413e-05
5.08273e-05
5.17933e-05
5.28263e-05
5.39181e-05
5.50629e-05
5.62347e-05
5.74032e-05
5.85738e-05
5.97607e-05
6.09667e-05
6.21668e-05
6.33533e-05
6.45184e-05
6.56543e-05
6.67606e-05
6.78242e-05
6.88244e-05
6.97719e-05
7.06561e-05
7.14402e-05
7.21417e-05
7.28492e-05
7.34138e-05
7.38691e-05
7.42176e-05
7.44515e-05
7.45627e-05
7.45434e-05
7.43856e-05
7.40821e-05
7.36267e-05
7.30154e-05
7.22468e-05
7.1324e-05
7.02553e-05
6.90557e-05
6.77479e-05
6.63621e-05
6.49353e-05
6.35086e-05
6.21221e-05
6.08087e-05
5.95856e-05
5.84463e-05
5.7354e-05
5.62366e-05
5.49865e-05
5.36961e-05
5.14165e-05
4.85635e-05
4.58629e-05
4.25114e-05
3.89837e-05
3.56871e-05
3.19534e-05
2.84735e-05
2.63192e-05
2.54484e-05
2.33976e-05
1.84534e-05
8.79127e-06
2.62335e-07
5.06463e-07
2.02339e-05
4.28397e-05
5.54072e-05
6.00591e-05
6.07879e-05
5.97207e-05
5.7298e-05
5.48882e-05
5.25679e-05
5.0724e-05
4.9463e-05
4.87865e-05
4.86149e-05
4.88306e-05
4.93232e-05
5.00117e-05
5.08427e-05
5.17825e-05
5.28104e-05
5.39126e-05
5.50771e-05
5.62896e-05
5.7529e-05
5.87821e-05
6.00534e-05
6.13453e-05
6.26499e-05
6.39504e-05
6.52375e-05
6.65025e-05
6.77367e-05
6.89318e-05
7.00924e-05
7.1185e-05
7.21999e-05
7.31546e-05
7.4014e-05
7.47711e-05
7.55256e-05
7.61614e-05
7.66713e-05
7.7073e-05
7.73593e-05
7.75224e-05
7.75537e-05
7.74443e-05
7.71851e-05
7.67672e-05
7.61828e-05
7.54262e-05
7.4495e-05
7.33915e-05
7.2125e-05
7.07127e-05
6.91821e-05
6.75703e-05
6.59237e-05
6.42939e-05
6.27313e-05
6.12766e-05
5.99497e-05
5.87402e-05
5.76001e-05
5.64395e-05
5.5124e-05
5.35737e-05
5.07191e-05
4.79585e-05
4.49286e-05
4.11197e-05
3.72614e-05
3.36587e-05
2.91921e-05
2.62441e-05
2.3945e-05
2.27921e-05
1.84151e-05
9.08659e-06
3.02529e-07
5.29555e-07
2.06235e-05
4.34343e-05
5.6144e-05
6.08549e-05
6.1716e-05
6.04686e-05
5.80556e-05
5.54139e-05
5.30296e-05
5.11852e-05
4.99754e-05
4.93724e-05
4.92709e-05
4.95444e-05
5.00869e-05
5.08244e-05
5.17085e-05
5.27081e-05
5.38026e-05
5.49765e-05
5.6215e-05
5.75025e-05
5.88238e-05
6.01719e-05
6.15466e-05
6.29426e-05
6.43483e-05
6.57496e-05
6.71355e-05
6.84954e-05
6.98191e-05
7.10968e-05
7.23287e-05
7.35075e-05
7.45755e-05
7.55799e-05
7.64962e-05
7.72903e-05
7.80704e-05
7.87608e-05
7.9312e-05
7.97553e-05
8.00856e-05
8.02959e-05
8.0378e-05
8.03225e-05
8.01191e-05
7.97568e-05
7.92245e-05
7.85122e-05
7.76116e-05
7.65184e-05
7.5234e-05
7.3768e-05
7.21406e-05
7.03843e-05
6.85452e-05
6.66805e-05
6.48543e-05
6.31282e-05
6.15495e-05
6.01377e-05
5.88731e-05
5.76904e-05
5.64795e-05
5.50905e-05
5.29821e-05
4.98858e-05
4.70541e-05
4.34653e-05
3.9205e-05
3.49645e-05
3.08136e-05
2.65337e-05
2.36181e-05
2.22721e-05
1.84598e-05
9.58423e-06
3.5461e-07
5.47643e-07
2.08825e-05
4.37993e-05
5.66334e-05
6.15152e-05
6.24594e-05
6.10063e-05
5.86252e-05
5.58846e-05
5.34572e-05
5.16242e-05
5.04665e-05
4.993e-05
4.98904e-05
5.02175e-05
5.08103e-05
5.16002e-05
5.2542e-05
5.36057e-05
5.47702e-05
5.60187e-05
5.73355e-05
5.87059e-05
6.01183e-05
6.15663e-05
6.30446e-05
6.45433e-05
6.60489e-05
6.75468e-05
6.90243e-05
7.04691e-05
7.18697e-05
7.32155e-05
7.44975e-05
7.57234e-05
7.68528e-05
7.78785e-05
7.8828e-05
7.96391e-05
8.04202e-05
8.11464e-05
8.17227e-05
8.21929e-05
8.25552e-05
8.28043e-05
8.29329e-05
8.2932e-05
8.27909e-05
8.24973e-05
8.20377e-05
8.1398e-05
8.05647e-05
7.95265e-05
7.82762e-05
7.68137e-05
7.51491e-05
7.33059e-05
7.13238e-05
6.92596e-05
6.71842e-05
6.5176e-05
6.33086e-05
6.16337e-05
6.01648e-05
5.88635e-05
5.76346e-05
5.63303e-05
5.47942e-05
5.18706e-05
4.89693e-05
4.58004e-05
4.14254e-05
3.68523e-05
3.23116e-05
2.73706e-05
2.36487e-05
2.14404e-05
1.855e-05
1.01529e-05
4.17283e-07
5.60669e-07
2.10155e-05
4.39916e-05
5.69109e-05
6.19627e-05
6.28997e-05
6.16276e-05
5.90974e-05
5.63056e-05
5.38554e-05
5.20419e-05
5.09343e-05
5.04572e-05
5.04735e-05
5.08521e-05
5.14966e-05
5.23421e-05
5.33452e-05
5.44763e-05
5.57139e-05
5.70403e-05
5.84399e-05
5.98992e-05
6.14074e-05
6.29563e-05
6.45362e-05
6.61338e-05
6.77335e-05
6.93195e-05
7.0877e-05
7.23922e-05
7.38522e-05
7.52459e-05
7.65638e-05
7.78039e-05
7.89732e-05
8.00117e-05
8.09607e-05
8.17719e-05
8.25271e-05
8.32691e-05
8.38535e-05
8.43339e-05
8.47135e-05
8.49894e-05
8.51561e-05
8.52057e-05
8.51281e-05
8.49104e-05
8.45377e-05
8.39929e-05
8.3258e-05
8.2315e-05
8.11482e-05
7.9747e-05
7.81094e-05
7.62465e-05
7.41867e-05
7.19793e-05
6.96947e-05
6.74213e-05
6.52538e-05
6.32769e-05
6.15431e-05
6.00527e-05
5.87406e-05
5.74744e-05
5.60611e-05
5.38949e-05
5.06717e-05
4.78034e-05
4.39419e-05
3.8671e-05
3.38252e-05
2.88816e-05
2.41126e-05
2.03925e-05
1.84182e-05
1.05618e-05
4.85059e-07
5.68803e-07
2.10347e-05
4.39948e-05
5.69616e-05
6.20957e-05
6.32959e-05
6.20575e-05
5.95026e-05
5.66849e-05
5.4228e-05
5.24385e-05
5.13774e-05
5.09534e-05
5.10212e-05
5.14505e-05
5.21483e-05
5.30519e-05
5.4119e-05
5.53202e-05
5.66335e-05
5.80408e-05
5.95268e-05
6.10781e-05
6.26832e-05
6.43308e-05
6.60074e-05
6.76969e-05
6.93814e-05
7.10434e-05
7.26661e-05
7.42344e-05
7.57349e-05
7.71563e-05
7.84899e-05
7.97293e-05
8.08837e-05
8.19457e-05
8.28684e-05
8.3661e-05
8.43625e-05
8.50969e-05
8.56736e-05
8.61466e-05
8.6527e-05
8.68152e-05
8.70082e-05
8.71e-05
8.70817e-05
8.69412e-05
8.6663e-05
8.62282e-05
8.56152e-05
8.48005e-05
8.37603e-05
8.24738e-05
8.0926e-05
7.91134e-05
7.70492e-05
7.47693e-05
7.23362e-05
6.9839e-05
6.73864e-05
6.50911e-05
6.30456e-05
6.12947e-05
5.98134e-05
5.84987e-05
5.71784e-05
5.55607e-05
5.23731e-05
4.94801e-05
4.61266e-05
4.0985e-05
3.54534e-05
3.02927e-05
2.48425e-05
2.04348e-05
1.81312e-05
1.10443e-05
5.59665e-07
5.71799e-07
2.09484e-05
4.3789e-05
5.68942e-05
6.21748e-05
6.3633e-05
6.23865e-05
5.98474e-05
5.70283e-05
5.45775e-05
5.28142e-05
5.17952e-05
5.1419e-05
5.15352e-05
5.20149e-05
5.27671e-05
5.37308e-05
5.4864e-05
5.61371e-05
5.75279e-05
5.9018e-05
6.05918e-05
6.22353e-05
6.3935e-05
6.56762e-05
6.74422e-05
6.92139e-05
7.09711e-05
7.26946e-05
7.43661e-05
7.59697e-05
7.74917e-05
7.89214e-05
8.0251e-05
8.14757e-05
8.25935e-05
8.36202e-05
8.45375e-05
8.52994e-05
8.59467e-05
8.66101e-05
8.71701e-05
8.7619e-05
8.79829e-05
8.82672e-05
8.8472e-05
8.8594e-05
8.86264e-05
8.85588e-05
8.83761e-05
8.80588e-05
8.75831e-05
8.6921e-05
8.60421e-05
8.49158e-05
8.35145e-05
8.18192e-05
7.98255e-05
7.75514e-05
7.50443e-05
7.23852e-05
6.96873e-05
6.70837e-05
6.47038e-05
6.26403e-05
6.09166e-05
5.94644e-05
5.81215e-05
5.66474e-05
5.41296e-05
5.09044e-05
4.8119e-05
4.34634e-05
3.71172e-05
3.16426e-05
2.58045e-05
2.08234e-05
1.78557e-05
1.15824e-05
6.35676e-07
5.70685e-07
2.07862e-05
4.34734e-05
5.66923e-05
6.21634e-05
6.37848e-05
6.26295e-05
6.01381e-05
5.734e-05
5.49061e-05
5.31698e-05
5.21884e-05
5.1855e-05
5.20172e-05
5.25469e-05
5.33544e-05
5.43792e-05
5.55796e-05
5.69255e-05
5.83944e-05
5.99675e-05
6.16284e-05
6.33615e-05
6.51507e-05
6.69781e-05
6.88237e-05
7.06657e-05
7.24821e-05
7.42517e-05
7.59556e-05
7.75772e-05
7.91032e-05
8.05236e-05
8.18317e-05
8.30241e-05
8.41001e-05
8.50611e-05
8.59335e-05
8.66844e-05
8.72604e-05
8.78221e-05
8.83473e-05
8.87556e-05
8.9086e-05
8.93495e-05
8.95502e-05
8.9688e-05
8.9759e-05
8.97551e-05
8.96629e-05
8.94635e-05
8.91321e-05
8.86378e-05
8.7945e-05
8.70147e-05
8.58077e-05
8.42896e-05
8.24373e-05
8.02478e-05
7.77481e-05
7.50032e-05
7.212e-05
6.9242e-05
6.65285e-05
6.41204e-05
6.20983e-05
6.04469e-05
5.90428e-05
5.7672e-05
5.58034e-05
5.22342e-05
4.96788e-05
4.56343e-05
3.93072e-05
3.30917e-05
2.72475e-05
2.11961e-05
1.71961e-05
1.21296e-05
7.04624e-07
5.66561e-07
2.05468e-05
4.30649e-05
5.63126e-05
6.19983e-05
6.38179e-05
6.27932e-05
6.038e-05
5.76235e-05
5.52157e-05
5.35064e-05
5.2558e-05
5.22632e-05
5.2469e-05
5.30479e-05
5.39107e-05
5.49969e-05
5.62643e-05
5.76828e-05
5.92289e-05
6.08833e-05
6.26282e-05
6.44458e-05
6.63172e-05
6.82215e-05
7.01354e-05
7.20349e-05
7.38963e-05
7.56972e-05
7.7418e-05
7.90422e-05
8.05571e-05
8.19535e-05
8.32258e-05
8.43721e-05
8.53932e-05
8.62929e-05
8.70773e-05
8.77875e-05
8.83166e-05
8.87543e-05
8.92224e-05
8.95751e-05
8.9856e-05
9.00824e-05
9.02625e-05
9.04002e-05
9.04951e-05
9.05422e-05
9.05306e-05
9.04431e-05
9.02553e-05
8.99352e-05
8.94432e-05
8.8734e-05
8.77581e-05
8.64669e-05
8.48187e-05
8.27884e-05
8.03784e-05
7.76308e-05
7.46371e-05
7.15389e-05
6.85151e-05
6.57489e-05
6.33793e-05
6.14507e-05
5.98797e-05
5.84563e-05
5.68878e-05
5.37654e-05
5.09038e-05
4.76306e-05
4.16449e-05
3.44661e-05
2.83718e-05
2.2155e-05
1.67958e-05
1.26339e-05
7.59499e-07
5.59062e-07
2.02795e-05
4.24078e-05
5.58009e-05
6.17315e-05
6.37502e-05
6.2885e-05
6.05774e-05
5.78815e-05
5.55082e-05
5.38254e-05
5.29057e-05
5.26451e-05
5.28919e-05
5.35186e-05
5.44359e-05
5.55825e-05
5.69159e-05
5.84051e-05
6.00261e-05
6.17582e-05
6.35818e-05
6.54769e-05
6.74216e-05
6.93919e-05
7.13622e-05
7.33062e-05
7.5199e-05
7.70174e-05
7.87417e-05
8.03556e-05
8.18471e-05
8.32079e-05
8.44336e-05
8.55234e-05
8.64793e-05
8.73065e-05
8.80118e-05
8.86159e-05
8.91228e-05
8.94467e-05
8.98186e-05
9.01063e-05
9.03242e-05
9.04982e-05
9.0642e-05
9.07635e-05
9.08664e-05
9.09491e-05
9.10044e-05
9.10176e-05
9.09661e-05
9.0818e-05
9.05321e-05
9.00582e-05
8.93387e-05
8.83124e-05
8.69204e-05
8.51151e-05
8.28725e-05
8.0207e-05
7.71857e-05
7.39375e-05
7.06481e-05
6.75343e-05
6.47935e-05
6.25413e-05
6.07582e-05
5.92674e-05
5.77433e-05
5.52509e-05
5.19976e-05
4.92312e-05
4.38238e-05
3.6102e-05
2.95985e-05
2.28958e-05
1.69397e-05
1.29986e-05
7.93712e-07
5.48949e-07
1.99394e-05
4.16759e-05
5.51732e-05
6.13648e-05
6.35937e-05
6.29121e-05
6.07344e-05
5.81166e-05
5.57854e-05
5.41287e-05
5.32333e-05
5.30025e-05
5.32871e-05
5.39594e-05
5.49291e-05
5.61342e-05
5.75311e-05
5.9088e-05
6.07797e-05
6.25841e-05
6.44795e-05
6.64435e-05
6.84514e-05
7.04764e-05
7.24909e-05
7.44672e-05
7.6379e-05
7.82031e-05
7.99197e-05
8.15132e-05
8.29721e-05
8.42892e-05
8.54608e-05
8.64871e-05
8.73714e-05
8.81195e-05
8.87398e-05
8.92427e-05
8.96637e-05
8.99417e-05
9.01734e-05
9.03865e-05
9.05295e-05
9.06383e-05
9.07316e-05
9.08217e-05
9.09164e-05
9.10183e-05
9.11242e-05
9.1223e-05
9.12948e-05
9.13097e-05
9.12262e-05
9.09915e-05
9.05422e-05
8.98066e-05
8.87103e-05
8.71846e-05
8.51787e-05
8.26759e-05
7.97128e-05
7.63945e-05
7.29004e-05
6.94675e-05
6.63443e-05
6.37197e-05
6.16525e-05
6.00322e-05
5.859e-05
5.66689e-05
5.30723e-05
5.05243e-05
4.57468e-05
3.8218e-05
3.0691e-05
2.37573e-05
1.72188e-05
1.31976e-05
8.09234e-07
5.36304e-07
1.95443e-05
4.08661e-05
5.44457e-05
6.09053e-05
6.33579e-05
6.28806e-05
6.08546e-05
5.83309e-05
5.60493e-05
5.44181e-05
5.35427e-05
5.3337e-05
5.36553e-05
5.437e-05
5.53892e-05
5.66494e-05
5.8106e-05
5.97261e-05
6.14829e-05
6.33527e-05
6.53117e-05
6.7335e-05
6.93954e-05
7.14639e-05
7.35112e-05
7.55082e-05
7.74284e-05
7.92485e-05
8.09489e-05
8.25146e-05
8.39348e-05
8.5203e-05
8.63164e-05
8.72759e-05
8.80854e-05
8.8752e-05
8.92853e-05
8.96979e-05
9.00054e-05
9.02123e-05
9.03348e-05
9.04575e-05
9.0516e-05
9.05493e-05
9.05803e-05
9.06255e-05
9.0697e-05
9.08017e-05
9.09407e-05
9.11073e-05
9.12856e-05
9.14483e-05
9.1556e-05
9.15552e-05
9.13788e-05
9.09475e-05
9.01738e-05
8.89697e-05
8.72584e-05
8.49912e-05
8.21693e-05
7.88656e-05
7.52403e-05
7.1536e-05
6.80408e-05