/*--------------------------------*- C++ -*----------------------------------*\
  =========                 |
  \\      /  F ield         | OpenFOAM: The Open Source CFD Toolbox
   \\    /   O peration     | Website:  https://openfoam.org
    \\  /    A nd           | Version:  13
     \\/     M anipulation  |
\*---------------------------------------------------------------------------*/
FoamFile
{
    format      ascii;
    class       surfaceScalarField;
    location    "2.8";
    object      phi;
}
// * * * * * * * * * * * * * * * * * * * * * * * * * * * * * * * * * * * * * //

dimensions      [0 3 -1 0 0 0 0];

internalField   nonuniform List<scalar> 
12640
(
3.33392e-09
-3.33366e-09
1.44797e-08
-1.11458e-08
3.0725e-08
-1.62453e-08
4.82345e-08
-1.75096e-08
6.39552e-08
-1.57207e-08
7.62812e-08
-1.2326e-08
8.48113e-08
-8.53013e-09
9.00838e-08
-5.27255e-09
9.2957e-08
-2.87317e-09
9.42453e-08
-1.28827e-09
9.46579e-08
-4.12592e-10
9.46138e-08
4.40646e-11
9.43522e-08
2.6154e-10
9.39234e-08
4.28863e-10
9.3237e-08
6.86332e-10
9.20877e-08
1.14938e-09
9.01886e-08
1.89905e-09
8.71093e-08
3.07929e-09
8.23055e-08
4.80379e-09
7.52062e-08
7.09931e-09
6.5301e-08
9.9052e-09
5.21621e-08
1.3139e-08
3.55598e-08
1.66022e-08
1.53929e-08
2.01669e-08
-8.33517e-09
2.37281e-08
-3.59184e-08
2.75832e-08
-6.81056e-08
3.21872e-08
-1.05874e-07
3.77687e-08
-1.50596e-07
4.47214e-08
-2.03782e-07
5.31861e-08
-2.65694e-07
6.19125e-08
-3.35299e-07
6.96045e-08
-4.11108e-07
7.58092e-08
-4.91474e-07
8.03656e-08
-5.74696e-07
8.32226e-08
-6.59041e-07
8.43448e-08
-7.42897e-07
8.38563e-08
-8.24789e-07
8.18917e-08
-9.03422e-07
7.86329e-08
-9.77673e-07
7.42507e-08
-1.0466e-06
6.89246e-08
-1.10938e-06
6.27876e-08
-1.16531e-06
5.59289e-08
-1.21374e-06
4.84285e-08
-1.25406e-06
4.03171e-08
-1.28566e-06
3.15994e-08
-1.3079e-06
2.22439e-08
-1.32058e-06
1.26736e-08
-1.3238e-06
3.22075e-09
-1.31578e-06
-8.01543e-09
-1.29693e-06
-1.88487e-08
-1.26637e-06
-3.05662e-08
-1.22396e-06
-4.24103e-08
-1.1695e-06
-5.44613e-08
-1.10309e-06
-6.64015e-08
-1.0251e-06
-7.7998e-08
-9.36221e-07
-8.88748e-08
-8.37462e-07
-9.87585e-08
-7.29858e-07
-1.07604e-07
-6.14891e-07
-1.14967e-07
-4.94652e-07
-1.2024e-07
-3.71775e-07
-1.22877e-07
-2.49314e-07
-1.22461e-07
-1.30686e-07
-1.18628e-07
-1.96162e-08
-1.1107e-07
8.04458e-08
-1.00062e-07
1.65548e-07
-8.51022e-08
2.32296e-07
-6.6748e-08
2.78013e-07
-4.57173e-08
3.01245e-07
-2.32321e-08
3.02119e-07
-8.7389e-10
2.81908e-07
2.02113e-08
2.44103e-07
3.78047e-08
1.94217e-07
4.98868e-08
1.40948e-07
5.32686e-08
9.12668e-08
4.96812e-08
5.01663e-08
4.11005e-08
2.04345e-08
2.97317e-08
3.86039e-09
1.65742e-08
3.86039e-09
1.01402e-08
-1.34738e-08
3.38746e-08
-3.48802e-08
6.30832e-08
-4.54539e-08
9.13715e-08
-4.57979e-08
1.15122e-07
-3.94714e-08
1.32978e-07
-3.01815e-08
1.4495e-07
-2.05028e-08
1.51584e-07
-1.19063e-08
1.53662e-07
-4.9515e-09
1.52031e-07
3.43586e-10
1.47285e-07
4.33264e-09
1.3989e-07
7.43977e-09
1.2999e-07
1.01614e-08
1.17469e-07
1.29495e-08
1.02031e-07
1.61248e-08
8.32751e-08
1.99048e-08
6.05898e-08
2.45843e-08
3.31835e-08
3.04856e-08
1.4814e-10
3.78392e-08
-3.9622e-08
4.68695e-08
-8.73641e-08
5.76473e-08
-1.44065e-07
6.98399e-08
-2.10454e-07
8.29913e-08
-2.87233e-07
9.69463e-08
-3.74954e-07
1.11449e-07
-4.73519e-07
1.26148e-07
-5.81902e-07
1.4057e-07
-6.98212e-07
1.54079e-07
-8.19646e-07
1.66155e-07
-9.42851e-07
1.76391e-07
-1.06508e-06
1.84144e-07
-1.1848e-06
1.89326e-07
-1.30059e-06
1.91594e-07
-1.41105e-06
1.90831e-07
-1.51503e-06
1.87198e-07
-1.61159e-06
1.80905e-07
-1.70005e-06
1.72322e-07
-1.77993e-06
1.61763e-07
-1.85084e-06
1.49544e-07
-1.91252e-06
1.35929e-07
-1.96474e-06
1.21153e-07
-2.00734e-06
1.05385e-07
-2.04014e-06
8.87309e-08
-2.06301e-06
7.12953e-08
-2.07582e-06
5.31232e-08
-2.07845e-06
3.42326e-08
-2.07078e-06
1.45757e-08
-2.05228e-06
-5.82345e-09
-2.02274e-06
-2.6319e-08
-1.98255e-06
-4.82086e-08
-1.93085e-06
-7.05448e-08
-1.86794e-06
-9.34842e-08
-1.79354e-06
-1.1681e-07
-1.70767e-06
-1.40332e-07
-1.61034e-06
-1.63733e-07
-1.50175e-06
-1.86583e-07
-1.38226e-06
-2.08361e-07
-1.25252e-06
-2.285e-07
-1.11385e-06
-2.46279e-07
-9.68031e-07
-2.60784e-07
-8.17017e-07
-2.71253e-07
-6.63153e-07
-2.76741e-07
-5.09178e-07
-2.76437e-07
-3.58139e-07
-2.69667e-07
-2.13277e-07
-2.55932e-07
-7.827e-08
-2.35069e-07
4.36371e-08
-2.07009e-07
1.49334e-07
-1.72445e-07
2.35588e-07
-1.31971e-07
3.00173e-07
-8.78166e-08
3.40973e-07
-4.16744e-08
3.58008e-07
3.17696e-09
3.50066e-07
4.57464e-08
3.19748e-07
8.02042e-08
2.68829e-07
1.04188e-07
2.03478e-07
1.15032e-07
1.33293e-07
1.11286e-07
6.90902e-08
9.3934e-08
2.1493e-08
6.41714e-08
2.53534e-08
1.55219e-08
-2.89957e-08
4.55426e-08
-6.4901e-08
7.65385e-08
-7.64499e-08
1.02607e-07
-7.1866e-08
1.22242e-07
-5.91073e-08
1.35419e-07
-4.33585e-08
1.42568e-07
-2.76513e-08
1.44122e-07
-1.34602e-08
1.40575e-07
-1.40427e-09
1.32267e-07
8.65147e-09
1.19527e-07
1.70721e-08
1.02317e-07
2.46499e-08
8.03599e-08
3.21186e-08
5.31734e-08
4.01359e-08
2.00308e-08
4.92675e-08
-2.0045e-08
5.99805e-08
-6.81177e-08
7.26571e-08
-1.25197e-07
8.75653e-08
-1.9225e-07
1.04892e-07
-2.69999e-07
1.24618e-07
-3.58813e-07
1.46462e-07
-4.58777e-07
1.69804e-07
-5.69547e-07
1.93761e-07
-6.90045e-07
2.17444e-07
-8.18436e-07
2.39839e-07
-9.52146e-07
2.59858e-07
-1.08834e-06
2.76766e-07
-1.22426e-06
2.89999e-07
-1.35734e-06
2.99233e-07
-1.48536e-06
3.04412e-07
-1.60666e-06
3.05448e-07
-1.71984e-06
3.02502e-07
-1.82403e-06
2.95786e-07
-1.91893e-06
2.85726e-07
-2.00448e-06
2.72755e-07
-2.08077e-06
2.57191e-07
-2.14789e-06
2.39438e-07
-2.20599e-06
2.19865e-07
-2.25521e-06
1.98768e-07
-2.29568e-06
1.76394e-07
-2.32747e-06
1.52951e-07
-2.35068e-06
1.28591e-07
-2.36532e-06
1.03372e-07
-2.37137e-06
7.73386e-08
-2.36872e-06
5.04786e-08
-2.35725e-06
2.27568e-08
-2.3368e-06
-5.86967e-09
-2.30731e-06
-3.53113e-08
-2.26795e-06
-6.56803e-08
-2.21901e-06
-9.71508e-08
-2.16006e-06
-1.29498e-07
-2.09086e-06
-1.6268e-07
-2.0112e-06
-1.96468e-07
-1.92093e-06
-2.30604e-07
-1.81999e-06
-2.64672e-07
-1.70849e-06
-2.98087e-07
-1.58673e-06
-3.3012e-07
-1.4553e-06
-3.59926e-07
-1.31516e-06
-3.86424e-07
-1.16759e-06
-4.0835e-07
-1.01439e-06
-4.24455e-07
-8.57661e-07
-4.33469e-07
-6.99994e-07
-4.34104e-07
-5.44278e-07
-4.25383e-07
-3.93601e-07
-4.06609e-07
-2.50968e-07
-3.77703e-07
-1.19531e-07
-3.38447e-07
-2.43533e-09
-2.8954e-07
9.8387e-08
-2.32794e-07
1.80303e-07
-1.69733e-07
2.41942e-07
-1.03314e-07
2.81826e-07
-3.67066e-08
3.00131e-07
2.74412e-08
2.95547e-07
8.47887e-08
2.69135e-07
1.306e-07
2.23556e-07
1.6061e-07
1.63216e-07
1.71626e-07
9.62554e-08
1.60895e-07
3.47057e-08
1.25721e-07
6.0059e-08
1.86564e-08
-4.76521e-08
4.94165e-08
-9.56611e-08
7.64044e-08
-1.03438e-07
9.59319e-08
-9.13935e-08
1.08243e-07
-7.14184e-08
1.1413e-07
-4.92453e-08
1.14103e-07
-2.76246e-08
1.08453e-07
-7.80956e-09
9.72178e-08
9.83043e-09
8.03208e-08
2.55485e-08
5.73996e-08
3.99932e-08
2.79924e-08
5.40571e-08
-8.53431e-09
6.86454e-08
-5.29935e-08
8.45951e-08
-1.06326e-07
1.026e-07
-1.69522e-07
1.23177e-07
-2.43502e-07
1.46637e-07
-3.29002e-07
1.73065e-07
-4.26405e-07
2.02294e-07
-5.35528e-07
2.33742e-07
-6.55528e-07
2.66462e-07
-7.84895e-07
2.99171e-07
-9.21299e-07
3.30165e-07
-1.06203e-06
3.5818e-07
-1.20422e-06
3.82025e-07
-1.34506e-06
4.00698e-07
-1.48203e-06
4.13732e-07
-1.61285e-06
4.20825e-07
-1.73568e-06
4.22062e-07
-1.84937e-06
4.18099e-07
-1.95347e-06
4.09549e-07
-2.04787e-06
3.96902e-07
-2.1328e-06
3.80719e-07
-2.20856e-06
3.61482e-07
-2.27549e-06
3.3969e-07
-2.33403e-06
3.1573e-07
-2.38455e-06
2.89952e-07
-2.42735e-06
2.62667e-07
-2.46268e-06
2.34101e-07
-2.49074e-06
2.04451e-07
-2.51163e-06
1.73843e-07
-2.52542e-06
1.42381e-07
-2.53211e-06
1.10057e-07
-2.53161e-06
7.68465e-08
-2.52381e-06
4.26699e-08
-2.50849e-06
7.44131e-09
-2.48549e-06
-2.88703e-08
-2.45448e-06
-6.63194e-08
-2.41513e-06
-1.05037e-07
-2.36718e-06
-1.45093e-07
-2.31029e-06
-1.86395e-07
-2.2441e-06
-2.28862e-07
-2.16832e-06
-2.7225e-07
-2.08265e-06
-3.16277e-07
-1.98683e-06
-3.60487e-07
-1.88075e-06
-4.04169e-07
-1.76447e-06
-4.46404e-07
-1.63828e-06
-4.86118e-07
-1.50272e-06
-5.21974e-07
-1.35874e-06
-5.5233e-07
-1.20774e-06
-5.75462e-07
-1.05156e-06
-5.89649e-07
-8.92522e-07
-5.93139e-07
-7.33494e-07
-5.84411e-07
-5.77777e-07
-5.62326e-07
-4.28654e-07
-5.26825e-07
-2.89061e-07
-4.78039e-07
-1.61989e-07
-4.16612e-07
-5.03548e-08
-3.44428e-07
4.39249e-08
-2.64012e-07
1.19227e-07
-1.78616e-07
1.74423e-07
-9.19028e-08
2.09605e-07
-7.7409e-09
2.24531e-07
6.98624e-08
2.19103e-07
1.36029e-07
1.9387e-07
1.85843e-07
1.5146e-07
2.14036e-07
9.62503e-08
2.16104e-07
3.73231e-08
1.84648e-07
9.73821e-08
1.97322e-08
-6.73843e-08
4.68492e-08
-1.22778e-07
6.66284e-08
-1.23217e-07
7.80011e-08
-1.02766e-07
8.20107e-08
-7.5428e-08
7.96515e-08
-4.68861e-08
7.13224e-08
-1.92955e-08
5.70017e-08
6.51116e-09
3.63555e-08
3.04766e-08
8.83088e-09
5.30731e-08
-2.63097e-08
7.51338e-08
-6.98968e-08
9.76442e-08
-1.22832e-07
1.2158e-07
-1.86031e-07
1.47794e-07
-2.60355e-07
1.76924e-07
-3.46495e-07
2.09317e-07
-4.44815e-07
2.44957e-07
-5.55182e-07
2.83432e-07
-6.76819e-07
3.23931e-07
-8.08155e-07
3.65078e-07
-9.46765e-07
4.05071e-07
-1.08988e-06
4.42292e-07
-1.23456e-06
4.74836e-07
-1.37787e-06
5.01492e-07
-1.51701e-06
5.21171e-07
-1.64941e-06
5.33093e-07
-1.77316e-06
5.37485e-07
-1.88742e-06
5.35084e-07
-1.99201e-06
5.26654e-07
-2.08702e-06
5.13107e-07
-2.17276e-06
4.95285e-07
-2.24973e-06
4.73871e-07
-2.31845e-06
4.49448e-07
-2.37942e-06
4.22444e-07
-2.43306e-06
3.9333e-07
-2.47979e-06
3.62463e-07
-2.51996e-06
3.3012e-07
-2.55384e-06
2.9655e-07
-2.58166e-06
2.61924e-07
-2.60356e-06
2.26345e-07
-2.61955e-06
1.89836e-07
-2.62969e-06
1.52525e-07
-2.63395e-06
1.14313e-07
-2.63224e-06
7.51324e-08
-2.62441e-06
3.48442e-08
-2.61026e-06
-6.71234e-09
-2.58952e-06
-4.96108e-08
-2.56186e-06
-9.3981e-08
-2.52701e-06
-1.39886e-07
-2.48464e-06
-1.87455e-07
-2.43431e-06
-2.36734e-07
-2.37553e-06
-2.87635e-07
-2.30793e-06
-3.39849e-07
-2.2311e-06
-3.93106e-07
-2.14459e-06
-4.47004e-07
-2.04797e-06
-5.00782e-07
-1.94104e-06
-5.53338e-07
-1.82375e-06
-6.03412e-07
-1.69619e-06
-6.49532e-07
-1.55889e-06
-6.89625e-07
-1.41276e-06
-7.21599e-07
-1.25925e-06
-7.43153e-07
-1.10024e-06
-7.52152e-07
-9.38281e-07
-7.46369e-07
-7.76537e-07
-7.2407e-07
-6.19062e-07
-6.843e-07
-4.69432e-07
-6.2767e-07
-3.30767e-07
-5.55277e-07
-2.0621e-07
-4.68985e-07
-9.837e-08
-3.71853e-07
-9.18003e-09
-2.67806e-07
6.03029e-08
-1.61386e-07
1.09767e-07
-5.72047e-08
1.39658e-07
3.99716e-08
1.50438e-07
1.25249e-07
1.42838e-07
1.93443e-07
1.17978e-07
2.38896e-07
7.85283e-08
2.55554e-07
3.13209e-08
2.31856e-07
1.28703e-07
1.89528e-08
-8.63371e-08
3.92581e-08
-1.43083e-07
5.00175e-08
-1.33976e-07
5.21192e-08
-1.04868e-07
4.71228e-08
-7.04316e-08
3.57639e-08
-3.55272e-08
1.81567e-08
-1.68837e-09
-6.06994e-09
3.07378e-08
-3.75869e-08
6.19935e-08
-7.72869e-08
9.27731e-08
-1.26156e-07
1.24003e-07
-1.85184e-07
1.56672e-07
-2.55278e-07
1.91674e-07
-3.37172e-07
2.29689e-07
-4.31321e-07
2.71073e-07
-5.37759e-07
3.15755e-07
-6.55897e-07
3.63095e-07
-7.84451e-07
4.11986e-07
-9.21344e-07
4.60824e-07
-1.06389e-06
5.07623e-07
-1.209e-06
5.50185e-07
-1.35359e-06
5.86883e-07
-1.4946e-06
6.1584e-07
-1.62878e-06
6.35676e-07
-1.75403e-06
6.46418e-07
-1.86957e-06
6.48634e-07
-1.9753e-06
6.43219e-07
-2.07157e-06
6.31345e-07
-2.1589e-06
6.13991e-07
-2.23786e-06
5.92069e-07
-2.30897e-06
5.6639e-07
-2.37275e-06
5.37649e-07
-2.42969e-06
5.06388e-07
-2.48026e-06
4.73021e-07
-2.52488e-06
4.37948e-07
-2.56386e-06
4.01445e-07
-2.59748e-06
3.63734e-07
-2.62593e-06
3.25001e-07
-2.6494e-06
2.85397e-07
-2.66801e-06
2.44954e-07
-2.68167e-06
2.03492e-07
-2.69049e-06
1.61347e-07
-2.69444e-06
1.18264e-07
-2.69346e-06
7.4153e-08
-2.68747e-06
2.88503e-08
-2.67634e-06
-1.78386e-08
-2.65987e-06
-6.60826e-08
-2.6377e-06
-1.1615e-07
-2.60943e-06
-1.68158e-07
-2.57469e-06
-2.22186e-07
-2.53308e-06
-2.78348e-07
-2.48398e-06
-3.36736e-07
-2.42685e-06
-3.96982e-07
-2.36121e-06
-4.58746e-07
-2.28659e-06
-5.21623e-07
-2.20231e-06
-5.85059e-07
-2.10765e-06
-6.48004e-07
-2.00227e-06
-7.08789e-07
-1.88578e-06
-7.66024e-07
-1.7582e-06
-8.172e-07
-1.61988e-06
-8.59922e-07
-1.47162e-06
-8.91411e-07
-1.31499e-06
-9.08781e-07
-1.15224e-06
-9.09119e-07
-9.86045e-07
-8.90268e-07
-8.20109e-07
-8.50236e-07
-6.5908e-07
-7.88699e-07
-5.07022e-07
-7.07335e-07
-3.67502e-07
-6.08504e-07
-2.43852e-07
-4.95503e-07
-1.38687e-07
-3.72971e-07
-5.36675e-08
-2.46406e-07
1.07099e-08
-1.21582e-07
5.48608e-08
-4.17926e-09
7.98068e-08
1.00303e-07
8.68104e-08
1.8644e-07
7.71471e-08
2.48559e-07
5.33569e-08
2.79344e-07
2.12503e-08
2.63962e-07
1.49953e-07
1.62101e-08
-1.02547e-07
2.76258e-08
-1.54499e-07
2.83082e-08
-1.34659e-07
2.04811e-08
-9.70408e-08
5.86039e-09
-5.58109e-08
-1.51796e-08
-1.44871e-08
-4.29108e-08
2.60428e-08
-7.79982e-08
6.58253e-08
-1.21398e-07
1.05393e-07
-1.74181e-07
1.45556e-07
-2.37401e-07
1.87224e-07
-3.11972e-07
2.31242e-07
-3.98544e-07
2.78246e-07
-4.97392e-07
3.28537e-07
-6.08286e-07
3.81966e-07
-7.30367e-07
4.37837e-07
-8.62057e-07
4.94784e-07
-1.00098e-06
5.50911e-07
-1.14426e-06
6.04097e-07
-1.28866e-06
6.52025e-07
-1.43088e-06
6.92405e-07
-1.56714e-06
7.23142e-07
-1.69476e-06
7.43466e-07
-1.81264e-06
7.53558e-07
-1.9206e-06
7.54377e-07
-2.01902e-06
7.47051e-07
-2.10851e-06
7.32707e-07
-2.18967e-06
7.12511e-07
-2.26315e-06
6.87467e-07
-2.32954e-06
6.58461e-07
-2.38939e-06
6.26238e-07
-2.44314e-06
5.91404e-07
-2.4912e-06
5.54444e-07
-2.53394e-06
5.15758e-07
-2.57167e-06
4.75677e-07
-2.60466e-06
4.34439e-07
-2.63311e-06
3.92188e-07
-2.65712e-06
3.49004e-07
-2.67682e-06
3.05094e-07
-2.69242e-06
2.60562e-07
-2.70423e-06
2.15295e-07
-2.71202e-06
1.69139e-07
-2.71576e-06
1.22006e-07
-2.71536e-06
7.37498e-08
-2.7107e-06
2.41874e-08
-2.70175e-06
-2.67862e-08
-2.68847e-06
-7.9357e-08
-2.67082e-06
-1.33808e-07
-2.64859e-06
-1.9038e-07
-2.62152e-06
-2.49261e-07
-2.58927e-06
-3.106e-07
-2.55144e-06
-3.74565e-07
-2.50718e-06
-4.41247e-07
-2.45544e-06
-5.10482e-07
-2.39527e-06
-5.81788e-07
-2.32588e-06
-6.54455e-07
-2.24628e-06
-7.276e-07
-2.15595e-06
-7.99124e-07
-2.05437e-06
-8.67604e-07
-1.94052e-06
-9.31049e-07
-1.81419e-06
-9.86254e-07
-1.6755e-06
-1.03009e-06
-1.52525e-06
-1.05903e-06
-1.36495e-06
-1.06942e-06
-1.19722e-06
-1.05799e-06
-1.02532e-06
-1.02214e-06
-8.53671e-07
-9.60351e-07
-6.87631e-07
-8.73374e-07
-5.31965e-07
-7.64171e-07
-3.90686e-07
-6.36781e-07
-2.67399e-07
-4.96258e-07
-1.64668e-07
-3.49137e-07
-8.37279e-08
-2.02522e-07
-2.44728e-08
-6.34343e-08
1.42877e-08
6.15419e-08
3.44012e-08
1.66326e-07
3.8083e-08
2.44877e-07
2.82154e-08
2.89212e-07
1.05084e-08
2.81669e-07
1.60462e-07
1.15813e-08
-1.14128e-07
1.28162e-08
-1.55734e-07
2.6535e-09
-1.24496e-07
-1.53159e-08
-7.90714e-08
-3.99588e-08
-3.11681e-08
-7.1207e-08
1.6761e-08
-1.09623e-07
6.44592e-08
-1.56138e-07
1.1234e-07
-2.11849e-07
1.61104e-07
-2.77848e-07
2.11555e-07
-3.5506e-07
2.64436e-07
-4.44104e-07
3.20286e-07
-5.45162e-07
3.79304e-07
-6.5785e-07
4.41226e-07
-7.81164e-07
5.0528e-07
-9.13379e-07
5.70053e-07
-1.05201e-06
6.33411e-07
-1.194e-06
6.92902e-07
-1.33597e-06
7.46075e-07
-1.47398e-06
7.90026e-07
-1.60456e-06
8.22985e-07
-1.72583e-06
8.44414e-07
-1.83719e-06
8.54833e-07
-1.93884e-06
8.55205e-07
-2.03128e-06
8.46812e-07
-2.11514e-06
8.30918e-07
-2.19117e-06
8.08736e-07
-2.26003e-06
7.81364e-07
-2.3223e-06
7.49743e-07
-2.37852e-06
7.14677e-07
-2.42911e-06
6.7683e-07
-2.47444e-06
6.36736e-07
-2.51483e-06
5.94831e-07
-2.55054e-06
5.51466e-07
-2.58178e-06
5.06923e-07
-2.60881e-06
4.6146e-07
-2.63195e-06
4.1533e-07
-2.65155e-06
3.68603e-07
-2.66767e-06
3.21217e-07
-2.6802e-06
2.7309e-07
-2.68933e-06
2.24424e-07
-2.69503e-06
1.74847e-07
-2.6974e-06
1.24374e-07
-2.69649e-06
7.28332e-08
-2.69231e-06
2.00099e-08
-2.68493e-06
-3.41644e-08
-2.6743e-06
-8.99873e-08
-2.66031e-06
-1.47793e-07
-2.64283e-06
-2.07862e-07
-2.62163e-06
-2.70463e-07
-2.5964e-06
-3.35829e-07
-2.56689e-06
-4.04074e-07
-2.53268e-06
-4.75457e-07
-2.49329e-06
-5.49878e-07
-2.44803e-06
-6.27049e-07
-2.39597e-06
-7.06511e-07
-2.33585e-06
-7.87723e-07
-2.26527e-06
-8.69699e-07
-2.18282e-06
-9.50055e-07
-2.08734e-06
-1.02653e-06
-1.9783e-06
-1.09529e-06
-1.855e-06
-1.15339e-06
-1.71709e-06
-1.19694e-06
-1.56524e-06
-1.22127e-06
-1.40106e-06
-1.22217e-06
-1.22743e-06
-1.19577e-06
-1.0485e-06
-1.13928e-06
-8.69815e-07
-1.05206e-06
-6.97796e-07
-9.36191e-07
-5.37951e-07
-7.96626e-07
-3.94793e-07
-6.39416e-07
-2.72163e-07
-4.71767e-07
-1.72436e-07
-3.02249e-07
-9.63394e-08
-1.39531e-07
-4.3027e-08
8.2295e-09
-1.00524e-08
1.33352e-07
5.57384e-09
2.29251e-07
7.93641e-09
2.86849e-07
2.44946e-09
2.87156e-07
1.62911e-07
5.27154e-09
-1.194e-07
-4.50461e-09
-1.45958e-07
-2.54074e-08
-1.03593e-07
-5.38101e-08
-5.06686e-08
-8.87245e-08
3.74633e-09
-1.30418e-07
5.84541e-08
-1.7973e-07
1.13772e-07
-2.37738e-07
1.70348e-07
-3.05551e-07
2.28916e-07
-3.84114e-07
2.90118e-07
-4.74051e-07
3.54374e-07
-5.75525e-07
4.21759e-07
-6.88107e-07
4.91886e-07
-8.10778e-07
5.63897e-07
-9.41794e-07
6.36296e-07
-1.07857e-06
7.06826e-07
-1.21792e-06
7.7276e-07
-1.35622e-06
8.31202e-07
-1.48938e-06
8.79242e-07
-1.61457e-06
9.15214e-07
-1.73034e-06
9.38755e-07
-1.8363e-06
9.50375e-07
-1.93268e-06
9.51209e-07
-2.02004e-06
9.42568e-07
-2.09912e-06
9.25894e-07
-2.17065e-06
9.02444e-07
-2.2353e-06
8.73388e-07
-2.29367e-06
8.39731e-07
-2.34625e-06
8.02323e-07
-2.39346e-06
7.61888e-07
-2.43566e-06
7.19027e-07
-2.47315e-06
6.74233e-07
-2.50624e-06
6.27918e-07
-2.53519e-06
5.80419e-07
-2.56028e-06
5.32009e-07
-2.58169e-06
4.82871e-07
-2.59949e-06
4.33128e-07
-2.61381e-06
3.82923e-07
-2.62481e-06
3.32219e-07
-2.63273e-06
2.81014e-07
-2.63768e-06
2.29367e-07
-2.63989e-06
1.77064e-07
-2.63954e-06
1.24025e-07
-2.63678e-06
7.00661e-08
-2.63172e-06
1.49537e-08
-2.62444e-06
-4.14489e-08
-2.6149e-06
-9.95232e-08
-2.60311e-06
-1.59579e-07
-2.58905e-06
-2.21924e-07
-2.57264e-06
-2.86874e-07
-2.55374e-06
-3.54727e-07
-2.53208e-06
-4.25741e-07
-2.50734e-06
-5.00189e-07
-2.47905e-06
-5.78169e-07
-2.44647e-06
-6.59629e-07
-2.40868e-06
-7.44302e-07
-2.36492e-06
-8.31479e-07
-2.31404e-06
-9.20582e-07
-2.2542e-06
-1.0099e-06
-2.18302e-06
-1.09771e-06
-2.09733e-06
-1.18098e-06
-1.99537e-06
-1.25536e-06
-1.87666e-06
-1.31565e-06
-1.74057e-06
-1.35737e-06
-1.58739e-06
-1.37534e-06
-1.41885e-06
-1.36432e-06
-1.2384e-06
-1.31973e-06
-1.05126e-06
-1.23919e-06
-8.64484e-07
-1.12297e-06
-6.85922e-07
-9.75188e-07
-5.21913e-07
-8.03424e-07
-3.77519e-07
-6.1616e-07
-2.56661e-07
-4.23107e-07
-1.61379e-07
-2.34813e-07
-9.15497e-08
-6.16002e-08
-4.51544e-08
8.69561e-08
-1.8371e-08
2.02468e-07
-5.53251e-09
2.74011e-07
-1.81958e-09
2.83443e-07
1.61092e-07
-2.32911e-09
-1.17071e-07
-2.3249e-08
-1.25038e-07
-5.50033e-08
-7.1839e-08
-9.37383e-08
-1.19336e-08
-1.38851e-07
4.8859e-08
-1.90916e-07
1.10519e-07
-2.50922e-07
1.73777e-07
-3.19977e-07
2.39404e-07
-3.99067e-07
3.08006e-07
-4.88858e-07
3.7991e-07
-5.89549e-07
4.55065e-07
-7.00745e-07
5.32955e-07
-8.21495e-07
6.12636e-07
-9.50118e-07
6.9252e-07
-1.08401e-06
7.7019e-07
-1.21989e-06
8.42699e-07
-1.35399e-06
9.06862e-07
-1.48258e-06
9.5979e-07
-1.60306e-06
9.99722e-07
-1.7142e-06
1.02636e-06
-1.8156e-06
1.04016e-06
-1.90751e-06
1.04228e-06
-1.99052e-06
1.03422e-06
-2.06539e-06
1.01744e-06
-2.13285e-06
9.93352e-07
-2.19355e-06
9.63146e-07
-2.24807e-06
9.27901e-07
-2.29687e-06
8.88532e-07
-2.34037e-06
8.45819e-07
-2.3789e-06
8.00427e-07
-2.4128e-06
7.52919e-07
-2.44233e-06
7.03766e-07
-2.46778e-06
6.53367e-07
-2.4894e-06
6.02042e-07
-2.50742e-06
5.50032e-07
-2.52206e-06
4.97508e-07
-2.53354e-06
4.44609e-07
-2.54207e-06
3.91447e-07
-2.54787e-06
3.38025e-07
-2.5512e-06
2.84344e-07
-2.5522e-06
2.30369e-07
-2.5511e-06
1.75957e-07
-2.54805e-06
1.2098e-07
-2.54323e-06
6.52404e-08
-2.53675e-06
8.47489e-09
-2.52874e-06
-4.94527e-08
-2.51931e-06
-1.08957e-07
-2.50855e-06
-1.70337e-07
-2.49655e-06
-2.33928e-07
-2.48334e-06
-3.00086e-07
-2.4689e-06
-3.69165e-07
-2.45312e-06
-4.41515e-07
-2.43585e-06
-5.17465e-07
-2.41676e-06
-5.97254e-07
-2.39538e-06
-6.8101e-07
-2.37101e-06
-7.6867e-07
-2.34258e-06
-8.59914e-07
-2.30893e-06
-9.54229e-07
-2.26836e-06
-1.05046e-06
-2.2194e-06
-1.14668e-06
-2.15941e-06
-1.24097e-06
-2.08489e-06
-1.32988e-06
-1.9921e-06
-1.40844e-06
-1.87888e-06
-1.47058e-06
-1.74495e-06
-1.50927e-06
-1.59008e-06
-1.51919e-06
-1.41628e-06
-1.49352e-06
-1.22786e-06
-1.42762e-06
-1.03138e-06
-1.31945e-06
-8.35841e-07
-1.17073e-06
-6.50743e-07
-9.88523e-07
-4.83443e-07
-7.8346e-07
-3.39379e-07
-5.67171e-07
-2.2235e-07
-3.51842e-07
-1.33662e-07
-1.50288e-07
-7.20006e-08
2.52944e-08
-3.35204e-08
1.63988e-07
-1.2121e-08
2.52611e-07
-2.62443e-09
2.73947e-07
1.58467e-07
-1.07195e-08
-1.06351e-07
-4.28704e-08
-9.2887e-08
-8.50892e-08
-2.96202e-08
-1.33816e-07
3.67927e-08
-1.88811e-07
1.03854e-07
-2.50821e-07
1.72529e-07
-3.20905e-07
2.43861e-07
-4.00087e-07
3.18586e-07
-4.89118e-07
3.97036e-07
-5.88287e-07
4.79079e-07
-6.97301e-07
5.64078e-07
-8.15323e-07
6.50977e-07
-9.40778e-07
7.38091e-07
-1.07114e-06
8.22887e-07
-1.20317e-06
9.02216e-07
-1.33311e-06
9.7264e-07
-1.45756e-06
1.03131e-06
-1.57408e-06
1.07631e-06
-1.68137e-06
1.10701e-06
-1.77898e-06
1.12396e-06
-1.86712e-06
1.12829e-06
-1.94641e-06
1.12158e-06
-2.01759e-06
1.1054e-06
-2.08137e-06
1.08122e-06
-2.13838e-06
1.05036e-06
-2.18917e-06
1.01394e-06
-2.23421e-06
9.7294e-07
-2.2739e-06
9.28222e-07
-2.3086e-06
8.8052e-07
-2.33865e-06
8.30471e-07
-2.36435e-06
7.7862e-07
-2.38602e-06
7.25434e-07
-2.40395e-06
6.71296e-07
-2.41841e-06
6.16506e-07
-2.42968e-06
5.61297e-07
-2.43801e-06
5.05846e-07
-2.44369e-06
4.50285e-07
-2.44693e-06
3.94691e-07
-2.44798e-06
3.39075e-07
-2.44706e-06
2.83417e-07
-2.44433e-06
2.27646e-07
-2.44001e-06
1.71633e-07
-2.43426e-06
1.1523e-07
-2.42727e-06
5.82448e-08
-2.41915e-06
3.58055e-10
-2.41014e-06
-5.84627e-08
-2.40035e-06
-1.18746e-07
-2.38995e-06
-1.80735e-07
-2.37909e-06
-2.44789e-07
-2.36789e-06
-3.11288e-07
-2.35643e-06
-3.80625e-07
-2.34474e-06
-4.53204e-07
-2.33279e-06
-5.29413e-07
-2.32045e-06
-6.09598e-07
-2.30743e-06
-6.94023e-07
-2.29328e-06
-7.82827e-07
-2.27722e-06
-8.75975e-07
-2.25827e-06
-9.73176e-07
-2.23505e-06
-1.07369e-06
-2.20548e-06
-1.17624e-06
-2.16739e-06
-1.27905e-06
-2.11825e-06
-1.37903e-06
-2.05405e-06
-1.47264e-06
-1.9702e-06
-1.55443e-06
-1.86275e-06
-1.61673e-06
-1.73036e-06
-1.65158e-06
-1.57271e-06
-1.65117e-06
-1.39232e-06
-1.608e-06
-1.19458e-06
-1.5172e-06
-9.8785e-07
-1.37745e-06
-7.83516e-07
-1.19286e-06
-5.92941e-07
-9.74035e-07
-4.24388e-07
-7.35724e-07
-2.8342e-07
-4.92809e-07
-1.73381e-07
-2.60327e-07
-9.42544e-08
-5.38319e-08
-4.2896e-08
1.12629e-07
-1.38552e-08
2.23571e-07
-1.05559e-09
2.61147e-07
1.57412e-07
-1.9571e-08
-8.67804e-08
-6.24619e-08
-4.99961e-08
-1.14613e-07
2.25307e-08
-1.72819e-07
9.49986e-08
-2.37103e-07
1.68138e-07
-3.08324e-07
2.43751e-07
-3.87513e-07
3.2305e-07
-4.7552e-07
4.06593e-07
-5.72781e-07
4.94297e-07
-6.79161e-07
5.85459e-07
-7.93986e-07
6.78904e-07
-9.15845e-07
7.72836e-07
-1.04237e-06
8.64612e-07
-1.17045e-06
9.50975e-07
-1.29652e-06
1.02828e-06
-1.41736e-06
1.09348e-06
-1.53058e-06
1.14453e-06
-1.63472e-06
1.18045e-06
-1.72925e-06
1.20154e-06
-1.81431e-06
1.20903e-06
-1.8905e-06
1.20448e-06
-1.95852e-06
1.1896e-06
-2.01906e-06
1.16594e-06
-2.07274e-06
1.1349e-06
-2.12009e-06
1.09772e-06
-2.16159e-06
1.05544e-06
-2.19766e-06
1.009e-06
-2.22867e-06
9.59235e-07
-2.255e-06
9.0685e-07
-2.27701e-06
8.52479e-07
-2.29505e-06
7.96661e-07
-2.30946e-06
7.39845e-07
-2.32056e-06
6.82396e-07
-2.32865e-06
6.24599e-07
-2.33403e-06
5.66678e-07
-2.33699e-06
5.08798e-07
-2.33777e-06
4.51063e-07
-2.3366e-06
3.93523e-07
-2.3337e-06
3.36174e-07
-2.32926e-06
2.78977e-07
-2.32345e-06
2.21843e-07
-2.31646e-06
1.64644e-07
-2.30845e-06
1.07222e-07
-2.29959e-06
4.93791e-08
-2.29011e-06
-9.12121e-09
-2.28008e-06
-6.84897e-08
-2.26976e-06
-1.29064e-07
-2.25934e-06
-1.91161e-07
-2.24899e-06
-2.55133e-07
-2.23892e-06
-3.21366e-07
-2.22927e-06
-3.90274e-07
-2.22018e-06
-4.62288e-07
-2.21175e-06
-5.3785e-07
-2.20397e-06
-6.1738e-07
-2.19673e-06
-7.01259e-07
-2.18977e-06
-7.89783e-07
-2.18263e-06
-8.83124e-07
-2.17456e-06
-9.81238e-07
-2.16449e-06
-1.08376e-06
-2.15081e-06
-1.18992e-06
-2.13151e-06
-1.29835e-06
-2.10374e-06
-1.4068e-06
-2.06426e-06
-1.51212e-06
-2.00913e-06
-1.60956e-06
-1.93245e-06
-1.69341e-06
-1.82953e-06
-1.7545e-06
-1.69722e-06
-1.78348e-06
-1.53508e-06
-1.77015e-06
-1.34632e-06
-1.70595e-06
-1.13788e-06
-1.58589e-06
-9.20612e-07
-1.41013e-06
-7.08582e-07
-1.18607e-06
-5.15065e-07
-9.29241e-07
-3.48779e-07
-6.59095e-07
-2.15231e-07
-3.93876e-07
-1.16522e-07
-1.52541e-07
-5.07465e-08
4.68536e-08
-1.35952e-08
1.86419e-07
1.59009e-09
2.45962e-07
1.59002e-07
-2.83845e-08
-5.83959e-08
-8.13165e-08
2.93586e-09
-1.42657e-07
8.38713e-08
-2.09612e-07
1.61953e-07
-2.82357e-07
2.40884e-07
-3.61788e-07
3.23182e-07
-4.48828e-07
4.1009e-07
-5.4409e-07
5.01855e-07
-6.47657e-07
5.97864e-07
-7.59074e-07
6.96876e-07
-8.7715e-07
7.96979e-07
-9.99717e-07
8.95403e-07
-1.12393e-06
9.88827e-07
-1.24644e-06
1.07349e-06
-1.36415e-06
1.14599e-06
-1.47468e-06
1.20401e-06
-1.57638e-06
1.24623e-06
-1.66852e-06
1.2726e-06
-1.75121e-06
1.28423e-06
-1.82493e-06
1.28275e-06
-1.89037e-06
1.26992e-06
-1.94819e-06
1.24742e-06
-1.99901e-06
1.21676e-06
-2.04337e-06
1.17926e-06
-2.08174e-06
1.13609e-06
-2.11458e-06
1.08827e-06
-2.14231e-06
1.03673e-06
-2.16533e-06
9.82256e-07
-2.18406e-06
9.25583e-07
-2.19891e-06
8.67327e-07
-2.21025e-06
8.08003e-07
-2.21844e-06
7.48041e-07
-2.22383e-06
6.87783e-07
-2.22673e-06
6.27492e-07
-2.22741e-06
5.67367e-07
-2.22616e-06
5.07541e-07
-2.22318e-06
4.48086e-07
-2.21868e-06
3.89026e-07
-2.21285e-06
3.30337e-07
-2.20583e-06
2.7196e-07
-2.19779e-06
2.13799e-07
-2.18886e-06
1.55722e-07
-2.17921e-06
9.75712e-08
-2.16899e-06
3.91578e-08
-2.15838e-06
-1.97315e-08
-2.14754e-06
-7.93364e-08
-2.13666e-06
-1.39941e-07
-2.12596e-06
-2.01855e-07
-2.11567e-06
-2.65422e-07
-2.10602e-06
-3.31022e-07
-2.09722e-06
-3.99068e-07
-2.08951e-06
-4.70006e-07
-2.08305e-06
-5.44305e-07
-2.07799e-06
-6.22445e-07
-2.07436e-06
-7.0489e-07
-2.07207e-06
-7.92067e-07
-2.07088e-06
-8.84315e-07
-2.0703e-06
-9.81822e-07
-2.06952e-06
-1.08454e-06
-2.06737e-06
-1.19208e-06
-2.06216e-06
-1.30356e-06
-2.05154e-06
-1.41741e-06
-2.03253e-06
-1.53114e-06
-2.0011e-06
-1.64099e-06
-1.95276e-06
-1.74175e-06
-1.88122e-06
-1.82604e-06
-1.78042e-06
-1.88428e-06
-1.64587e-06
-1.9047e-06
-1.47694e-06
-1.87489e-06
-1.27787e-06
-1.78495e-06
-1.05778e-06
-1.63022e-06
-8.30713e-07
-1.41313e-06
-6.13764e-07
-1.14619e-06
-4.21593e-07
-8.51265e-07
-2.63039e-07
-5.52431e-07
-1.42807e-07
-2.72772e-07
-6.0952e-08
-3.50016e-08
-1.43823e-08
1.3985e-07
3.84764e-09
2.27732e-07
1.62849e-07
-3.68615e-08
-2.15344e-08
-9.87149e-08
6.47893e-08
-1.68429e-07
1.53586e-07
-2.43217e-07
2.36741e-07
-3.23399e-07
3.21065e-07
-4.09832e-07
4.09615e-07
-5.03277e-07
5.03536e-07
-6.04082e-07
6.02659e-07
-7.12071e-07
7.05853e-07
-8.26336e-07
8.11141e-07
-9.44952e-07
9.15595e-07
-1.0654e-06
1.01585e-06
-1.18464e-06
1.10807e-06
-1.29965e-06
1.1885e-06
-1.408e-06
1.25435e-06
-1.5079e-06
1.30391e-06
-1.59839e-06
1.33672e-06
-1.67939e-06
1.3536e-06
-1.75132e-06
1.35616e-06
-1.81481e-06
1.34624e-06
-1.87052e-06
1.32563e-06
-1.91906e-06
1.29596e-06
-1.96099e-06
1.25868e-06
-1.99679e-06
1.21507e-06
-2.02696e-06
1.16626e-06
-2.05195e-06
1.11327e-06
-2.07222e-06
1.057e-06
-2.08825e-06
9.98286e-07
-2.10049e-06
9.3782e-07
-2.10936e-06
8.76191e-07
-2.11525e-06
8.13893e-07
-2.11853e-06
7.51323e-07
-2.11953e-06
6.88788e-07
-2.11856e-06
6.26515e-07
-2.11585e-06
5.64662e-07
-2.11164e-06
5.03327e-07
-2.1061e-06
4.42547e-07
-2.09939e-06
3.82318e-07
-2.09165e-06
3.22598e-07
-2.083e-06
2.63311e-07
-2.07356e-06
2.04355e-07
-2.06343e-06
1.45598e-07
-2.05275e-06
8.68893e-08
-2.04164e-06
2.80515e-08
-2.03026e-06
-3.11135e-08
-2.01877e-06
-9.08294e-08
-2.00736e-06
-1.51353e-07
-1.99624e-06
-2.12968e-07
-1.98567e-06
-2.75996e-07
-1.9759e-06
-3.40796e-07
-1.9672e-06
-4.07767e-07
-1.95985e-06
-4.77352e-07
-1.95413e-06
-5.5003e-07
-1.95026e-06
-6.26313e-07
-1.94842e-06
-7.0673e-07
-1.94868e-06
-7.91803e-07
-1.95098e-06
-8.82013e-07
-1.95506e-06
-9.77744e-07
-1.96038e-06
-1.07922e-06
-1.96608e-06
-1.18638e-06
-1.97084e-06
-1.2988e-06
-1.97278e-06
-1.41547e-06
-1.96932e-06
-1.5346e-06
-1.95698e-06
-1.65332e-06
-1.93147e-06
-1.76726e-06
-1.88734e-06
-1.87016e-06
-1.81802e-06
-1.95361e-06
-1.7163e-06
-2.00641e-06
-1.57656e-06
-2.01463e-06
-1.39816e-06
-1.96335e-06
-1.18699e-06
-1.8414e-06
-9.55081e-07
-1.64504e-06
-7.20596e-07
-1.38068e-06
-5.03632e-07
-1.06823e-06
-3.19182e-07
-7.36881e-07
-1.75637e-07
-4.16317e-07
-7.58907e-08
-1.34748e-07
-1.808e-08
8.2039e-08
4.83838e-09
2.04814e-07
1.67688e-07
-4.44168e-08
2.28824e-08
-1.14335e-07
1.34707e-07
-1.91313e-07
2.30564e-07
-2.72859e-07
3.18286e-07
-3.59298e-07
4.07505e-07
-4.51387e-07
5.01704e-07
-5.49695e-07
6.01843e-07
-6.54386e-07
7.0735e-07
-7.64917e-07
8.16384e-07
-8.79663e-07
9.25887e-07
-9.96429e-07
1.03236e-06
-1.1126e-06
1.13202e-06
-1.22524e-06
1.22071e-06
-1.33186e-06
1.29512e-06
-1.43053e-06
1.35301e-06
-1.52003e-06
1.39341e-06
-1.60005e-06
1.41674e-06
-1.67089e-06
1.42444e-06
-1.73312e-06
1.41839e-06
-1.78738e-06
1.4005e-06
-1.83429e-06
1.37254e-06
-1.87441e-06
1.33609e-06
-1.90828e-06
1.29255e-06
-1.93641e-06
1.2432e-06
-1.95931e-06
1.18916e-06
-1.97749e-06
1.13144e-06
-1.99146e-06
1.07097e-06
-2.00172e-06
1.00855e-06
-2.00875e-06
9.44845e-07
-2.01297e-06
8.80409e-07
-2.01477e-06
8.15696e-07
-2.01451e-06
7.5106e-07
-2.01248e-06
6.86758e-07
-2.00893e-06
6.22969e-07
-2.00408e-06
5.59808e-07
-1.99808e-06
4.97331e-07
-1.99108e-06
4.35544e-07
-1.98318e-06
3.74416e-07
-1.97446e-06
3.13884e-07
-1.96502e-06
2.53863e-07
-1.95491e-06
1.94248e-07
-1.94422e-06
1.3491e-07
-1.93304e-06
7.57069e-08
-1.92147e-06
1.64804e-08
-1.90963e-06
-4.29506e-08
-1.89768e-06
-1.02782e-07
-1.88579e-06
-1.6324e-07
-1.87418e-06
-2.24576e-07
-1.8631e-06
-2.87078e-07
-1.85282e-06
-3.51074e-07
-1.84366e-06
-4.16934e-07
-1.83593e-06
-4.85082e-07
-1.82997e-06
-5.5599e-07
-1.8261e-06
-6.30181e-07
-1.8246e-06
-7.08223e-07
-1.8257e-06
-7.90707e-07
-1.82949e-06
-8.78227e-07