/*--------------------------------*- C++ -*----------------------------------*\
  =========                 |
  \\      /  F ield         | OpenFOAM: The Open Source CFD Toolbox
   \\    /   O peration     | Website:  https://openfoam.org
    \\  /    A nd           | Version:  13
     \\/     M anipulation  |
\*---------------------------------------------------------------------------*/
FoamFile
{
    format      ascii;
    class       volVectorField;
    location    "2.8";
    object      U;
}
// * * * * * * * * * * * * * * * * * * * * * * * * * * * * * * * * * * * * * //

dimensions      [0 1 -1 0 0 0 0];

internalField   nonuniform List<vector> 
6400
(
(1.53973e-06 -1.54917e-05 0)
(0.000590718 -0.00017803 0)
(0.00176996 -0.000308427 0)
(0.00316494 -0.000355613 0)
(0.00452454 -0.000328568 0)
(0.00566154 -0.000255509 0)
(0.00649606 -0.000172009 0)
(0.00703949 -0.000107115 0)
(0.00735579 -7.21517e-05 0)
(0.00751325 -6.36658e-05 0)
(0.00757578 -7.59704e-05 0)
(0.0075863 -0.000102183 0)
(0.00757324 -0.000136088 0)
(0.00754691 -0.000173553 0)
(0.00750502 -0.000210479 0)
(0.00743544 -0.000241616 0)
(0.0073199 -0.000265003 0)
(0.00712806 -0.000279398 0)
(0.00682103 -0.000281675 0)
(0.00635538 -0.000271918 0)
(0.0056874 -0.000254151 0)
(0.00477495 -0.000231231 0)
(0.00359395 -0.000207581 0)
(0.00212911 -0.00019822 0)
(0.000348325 -0.00022092 0)
(-0.00169627 -0.000275721 0)
(-0.00408285 -0.00031041 0)
(-0.00688977 -0.000267587 0)
(-0.0101889 -7.6821e-05 0)
(-0.0139985 0.00030295 0)
(-0.0186349 0.000827597 0)
(-0.0239316 0.00136359 0)
(-0.029774 0.00186192 0)
(-0.0360563 0.00231069 0)
(-0.0426359 0.00269267 0)
(-0.0493756 0.0029933 0)
(-0.0561384 0.00320905 0)
(-0.0627982 0.0033416 0)
(-0.0692442 0.0033976 0)
(-0.0753794 0.00338502 0)
(-0.0811229 0.00331295 0)
(-0.0864019 0.00318818 0)
(-0.0911558 0.00301473 0)
(-0.0953326 0.00279423 0)
(-0.0988813 0.00252604 0)
(-0.101771 0.00221307 0)
(-0.103976 0.0018658 0)
(-0.10532 0.0015319 0)
(-0.105885 0.0012251 0)
(-0.105827 0.000700742 0)
(-0.104648 0.000271074 0)
(-0.102717 -0.000253779 0)
(-0.0997515 -0.000765222 0)
(-0.0958807 -0.00129999 0)
(-0.0910175 -0.00182346 0)
(-0.0852249 -0.00233009 0)
(-0.0785198 -0.00280169 0)
(-0.070984 -0.00323473 0)
(-0.0627212 -0.00364094 0)
(-0.0538071 -0.00399032 0)
(-0.0443881 -0.00423777 0)
(-0.0346532 -0.00435782 0)
(-0.0248304 -0.00432931 0)
(-0.0151674 -0.00413803 0)
(-0.00590887 -0.00377298 0)
(0.00258809 -0.00326608 0)
(0.0100073 -0.0025787 0)
(0.0161225 -0.00175236 0)
(0.0206709 -0.000833254 0)
(0.0235367 0.000103319 0)
(0.0244529 0.00107531 0)
(0.0237449 0.00154905 0)
(0.021472 0.00192552 0)
(0.0177368 0.00200823 0)
(0.0134825 0.00174491 0)
(0.00923392 0.00125232 0)
(0.00550952 0.000745417 0)
(0.00261445 0.000355081 0)
(0.00073804 6.97847e-05 0)
(-6.11591e-05 -0.00013233 0)
(0.000123973 -0.000563493 0)
(0.0015988 -0.00168178 0)
(0.00386424 -0.00238108 0)
(0.00623791 -0.00253627 0)
(0.00834843 -0.00226605 0)
(0.0100221 -0.00178146 0)
(0.0112118 -0.00124245 0)
(0.0119505 -0.000772011 0)
(0.0122905 -0.000410135 0)
(0.0122948 -0.000154189 0)
(0.0120365 5.68216e-06 0)
(0.0115451 0.000110486 0)
(0.0108548 0.00018371 0)
(0.009964 0.000251942 0)
(0.00885338 0.000334597 0)
(0.00748986 0.000443792 0)
(0.00584887 0.000589234 0)
(0.00385953 0.000793449 0)
(0.00145646 0.00107179 0)
(-0.00143204 0.00143706 0)
(-0.00489936 0.0018949 0)
(-0.00906666 0.00243199 0)
(-0.0139745 0.00301877 0)
(-0.0196849 0.00365676 0)
(-0.0262472 0.00435122 0)
(-0.0337224 0.00513963 0)
(-0.0420386 0.006029 0)
(-0.051095 0.00698937 0)
(-0.0606939 0.00800178 0)
(-0.070575 0.00902625 0)
(-0.0803808 0.0099144 0)
(-0.0900795 0.01062 0)
(-0.0995279 0.0111178 0)
(-0.108607 0.011386 0)
(-0.117207 0.0114334 0)
(-0.125244 0.0112723 0)
(-0.132658 0.0109296 0)
(-0.1394 0.0104279 0)
(-0.145437 0.00979175 0)
(-0.150742 0.00904227 0)
(-0.155301 0.00819912 0)
(-0.159095 0.00727524 0)
(-0.162111 0.0062795 0)
(-0.164334 0.00522341 0)
(-0.16576 0.00411433 0)
(-0.16638 0.0029561 0)
(-0.166181 0.00175189 0)
(-0.165122 0.000511949 0)
(-0.163204 -0.000775991 0)
(-0.160425 -0.00215072 0)
(-0.156723 -0.00356839 0)
(-0.152148 -0.00502773 0)
(-0.146642 -0.00651489 0)
(-0.14023 -0.00801363 0)
(-0.13289 -0.00950467 0)
(-0.124642 -0.0109572 0)
(-0.115507 -0.0123308 0)
(-0.105527 -0.0135871 0)
(-0.0947562 -0.0146955 0)
(-0.0833444 -0.0155984 0)
(-0.0714494 -0.0162416 0)
(-0.0592246 -0.0165642 0)
(-0.0468765 -0.0165166 0)
(-0.0346388 -0.016055 0)
(-0.0227636 -0.0151415 0)
(-0.0115193 -0.0137758 0)
(-0.00117834 -0.0119418 0)
(0.00798082 -0.00968811 0)
(0.0157045 -0.0070689 0)
(0.021801 -0.004221 0)
(0.0260645 -0.00129167 0)
(0.0284538 0.00147674 0)
(0.0288428 0.00393292 0)
(0.0272774 0.00587744 0)
(0.0240292 0.0069182 0)
(0.0192156 0.00699065 0)
(0.0135285 0.00616993 0)
(0.00787987 0.00470287 0)
(0.00322587 0.00279608 0)
(0.000331461 0.000852057 0)
(0.000255288 -0.00163594 0)
(0.00235304 -0.00394401 0)
(0.00496072 -0.00493269 0)
(0.00727379 -0.00483748 0)
(0.00910432 -0.00410158 0)
(0.0104158 -0.00309942 0)
(0.0112268 -0.00208135 0)
(0.0115701 -0.00116403 0)
(0.0114863 -0.000400773 0)
(0.0110055 0.000203381 0)
(0.0101639 0.000677079 0)
(0.00897021 0.00107173 0)
(0.00741134 0.00143848 0)
(0.00545725 0.0018229 0)
(0.00306118 0.00226119 0)
(0.00015589 0.00278302 0)
(-0.00335144 0.00342204 0)
(-0.00753667 0.00420417 0)
(-0.0124834 0.00515336 0)
(-0.018265 0.0062879 0)
(-0.0249255 0.00760602 0)
(-0.0324706 0.0090714 0)
(-0.0409141 0.0106403 0)
(-0.050197 0.0122688 0)
(-0.0602005 0.0138885 0)
(-0.0707471 0.0154088 0)
(-0.0816095 0.0167745 0)
(-0.092552 0.0179479 0)
(-0.103371 0.0188906 0)
(-0.113866 0.0195742 0)
(-0.123859 0.0199715 0)
(-0.133262 0.0200744 0)
(-0.141959 0.0198824 0)
(-0.149922 0.0194312 0)
(-0.157139 0.0187462 0)
(-0.163611 0.017847 0)
(-0.169344 0.0167664 0)
(-0.174349 0.0155337 0)
(-0.178639 0.0141734 0)
(-0.182223 0.0127048 0)
(-0.18511 0.0111481 0)
(-0.187307 0.00951824 0)
(-0.18882 0.00782213 0)
(-0.189645 0.00606457 0)
(-0.18978 0.0042456 0)
(-0.189217 0.00236493 0)
(-0.187945 0.000424029 0)
(-0.185947 -0.00157996 0)
(-0.18319 -0.00365867 0)
(-0.179664 -0.00581232 0)
(-0.175347 -0.0080139 0)
(-0.170223 -0.0102705 0)
(-0.164266 -0.0125635 0)
(-0.157468 -0.0148746 0)
(-0.149814 -0.0171736 0)
(-0.141309 -0.0194199 0)
(-0.131966 -0.0215644 0)
(-0.121826 -0.023551 0)
(-0.110946 -0.0253039 0)
(-0.0994074 -0.0267386 0)
(-0.0873469 -0.0277821 0)
(-0.0749194 -0.0283419 0)
(-0.0623031 -0.0283405 0)
(-0.0497223 -0.0277072 0)
(-0.0374241 -0.0264011 0)
(-0.0256491 -0.0244023 0)
(-0.0146309 -0.0216988 0)
(-0.00461337 -0.0183458 0)
(0.00415357 -0.0144425 0)
(0.0114887 -0.0101325 0)
(0.0172671 -0.00559804 0)
(0.0213584 -0.0010623 0)
(0.0237649 0.00322804 0)
(0.0243547 0.00691715 0)
(0.0230376 0.00977393 0)
(0.0201678 0.0114001 0)
(0.0157562 0.0116256 0)
(0.0104236 0.010359 0)
(0.00501757 0.00757127 0)
(0.000688976 0.00331699 0)
(0.000372593 -0.00304699 0)
(0.00274437 -0.00648124 0)
(0.00517847 -0.00732932 0)
(0.00702253 -0.00668865 0)
(0.00828222 -0.00538518 0)
(0.00900536 -0.00386805 0)
(0.00923826 -0.00237314 0)
(0.00901183 -0.00101587 0)
(0.00833912 0.000162332 0)
(0.0072209 0.00117055 0)
(0.00563703 0.00205706 0)
(0.00355469 0.00288791 0)
(0.000932115 0.00372912 0)
(-0.00228908 0.00464251 0)
(-0.00618062 0.00568199 0)
(-0.0108211 0.00689108 0)
(-0.0162906 0.00830125 0)
(-0.0226571 0.00993258 0)
(-0.0299691 0.0117921 0)
(-0.0382384 0.0138628 0)
(-0.0474263 0.0160999 0)
(-0.0574385 0.0184267 0)
(-0.0681243 0.0207301 0)
(-0.0792743 0.0229059 0)
(-0.0906513 0.0248697 0)
(-0.10203 0.0265381 0)
(-0.113199 0.0278369 0)
(-0.12396 0.0287036 0)
(-0.134143 0.0291342 0)
(-0.143614 0.0291807 0)
(-0.152332 0.0288758 0)
(-0.160269 0.0282484 0)
(-0.16743 0.0273256 0)
(-0.17385 0.0261353 0)
(-0.179547 0.0247213 0)
(-0.184557 0.0231168 0)
(-0.188911 0.021352 0)
(-0.192639 0.019453 0)
(-0.195758 0.0174426 0)
(-0.19829 0.0153399 0)
(-0.200245 0.0131559 0)
(-0.20163 0.0109021 0)
(-0.202449 0.00858056 0)
(-0.202697 0.00619225 0)
(-0.202366 0.00373383 0)
(-0.201444 0.00120168 0)
(-0.199916 -0.00140758 0)
(-0.197758 -0.00409748 0)
(-0.194946 -0.006873 0)
(-0.191458 -0.00974345 0)
(-0.187268 -0.0126961 0)
(-0.182348 -0.0157259 0)
(-0.176671 -0.0188143 0)
(-0.170215 -0.0219386 0)
(-0.162955 -0.0250623 0)
(-0.154876 -0.0281329 0)
(-0.145976 -0.0310855 0)
(-0.136268 -0.0338424 0)
(-0.125786 -0.036306 0)
(-0.114586 -0.038363 0)
(-0.102758 -0.039889 0)
(-0.0904442 -0.0407745 0)
(-0.0777958 -0.0408895 0)
(-0.0650273 -0.0401458 0)
(-0.0523785 -0.0384701 0)
(-0.0401436 -0.0358796 0)
(-0.0285457 -0.0323499 0)
(-0.0178206 -0.0279392 0)
(-0.00821851 -0.0227902 0)
(6.57205e-05 -0.0170685 0)
(0.00688722 -0.0110149 0)
(0.0121343 -0.00489301 0)
(0.0157744 0.00103942 0)
(0.0178085 0.00644247 0)
(0.0182314 0.0109169 0)
(0.0169563 0.0141286 0)
(0.0141749 0.0156917 0)
(0.0101403 0.0153018 0)
(0.00533358 0.0125405 0)
(0.000790373 0.00632327 0)
(0.000480171 -0.0046211 0)
(0.00279381 -0.0088748 0)
(0.00471404 -0.00925384 0)
(0.00591764 -0.00795087 0)
(0.00651628 -0.00605543 0)
(0.00657875 -0.00402495 0)
(0.00615357 -0.00205971 0)
(0.00525483 -0.000244624 0)
(0.00386728 0.00140207 0)
(0.00195486 0.00291029 0)
(-0.000535194 0.00434039 0)
(-0.00366638 0.00576883 0)
(-0.00750836 0.00727371 0)
(-0.012135 0.00892622 0)
(-0.017619 0.0107838 0)
(-0.0240251 0.0128864 0)
(-0.0313988 0.0152513 0)
(-0.0397531 0.0178712 0)
(-0.049056 0.0207089 0)
(-0.0592142 0.0236828 0)
(-0.0700689 0.0266798 0)
(-0.0814016 0.0295637 0)
(-0.092969 0.032196 0)
(-0.104553 0.0344911 0)
(-0.115913 0.0363198 0)
(-0.126829 0.037594 0)
(-0.137107 0.0383217 0)
(-0.146639 0.038531 0)
(-0.155394 0.0382488 0)
(-0.163371 0.0375318 0)
(-0.170592 0.0364514 0)
(-0.177083 0.0350611 0)
(-0.182901 0.0334106 0)
(-0.188079 0.0315368 0)
(-0.192651 0.0294775 0)
(-0.196658 0.0272619 0)
(-0.200127 0.0249147 0)
(-0.203083 0.0224596 0)
(-0.205547 0.0199109 0)
(-0.207534 0.0172806 0)
(-0.209047 0.0145779 0)
(-0.210092 0.0118092 0)
(-0.210668 0.00897001 0)
(-0.210771 0.00605632 0)
(-0.210391 0.00305987 0)
(-0.209515 -2.76386e-05 0)
(-0.208126 -0.0032136 0)
(-0.206193 -0.00650134 0)
(-0.203695 -0.00989998 0)
(-0.200613 -0.0134208 0)
(-0.196911 -0.0170584 0)
(-0.192552 -0.0208041 0)
(-0.187502 -0.0246384 0)
(-0.181729 -0.0285388 0)
(-0.175199 -0.0324665 0)
(-0.167878 -0.0363614 0)
(-0.159736 -0.0401447 0)
(-0.150764 -0.0437214 0)
(-0.140965 -0.0469742 0)
(-0.130362 -0.0497559 0)
(-0.119004 -0.0519163 0)
(-0.106995 -0.0532903 0)
(-0.0944619 -0.0537279 0)
(-0.0815892 -0.0530886 0)
(-0.0685787 -0.0512537 0)
(-0.0557345 -0.0481852 0)
(-0.0434086 -0.0439375 0)
(-0.0318158 -0.0385601 0)
(-0.0212242 -0.0322111 0)
(-0.0118731 -0.0251115 0)
(-0.00394474 -0.0175478 0)
(0.00243248 -0.00984348 0)
(0.0072065 -0.00232638 0)
(0.0103934 0.00464809 0)
(0.0120344 0.0107033 0)
(0.0121513 0.015424 0)
(0.0108121 0.018371 0)
(0.00815909 0.0191094 0)
(0.00450968 0.0168531 0)
(0.000633466 0.00913806 0)
(0.000567951 -0.00620055 0)
(0.00254491 -0.0108175 0)
(0.00374966 -0.0104872 0)
(0.004212 -0.00851221 0)
(0.00408651 -0.00603047 0)
(0.00343273 -0.00349111 0)
(0.00228183 -0.0010397 0)
(0.000622175 0.00127598 0)
(-0.00158963 0.00346529 0)
(-0.00441803 0.00557648 0)
(-0.00793992 0.00768165 0)
(-0.0122358 0.00986247 0)
(-0.017383 0.0121972 0)
(-0.0234489 0.0147514 0)
(-0.0304838 0.0175694 0)
(-0.0385105 0.0206667 0)
(-0.0475102 0.0240211 0)
(-0.0574103 0.0275702 0)
(-0.0680778 0.0312196 0)
(-0.0793208 0.0348177 0)
(-0.0908902 0.0382016 0)
(-0.102536 0.0412682 0)
(-0.114035 0.0438231 0)
(-0.125113 0.0457396 0)
(-0.135516 0.0469944 0)
(-0.145159 0.0475766 0)
(-0.154006 0.0475268 0)
(-0.162075 0.0469347 0)
(-0.16941 0.0458805 0)
(-0.176051 0.0444386 0)
(-0.182041 0.0426728 0)
(-0.187422 0.0406411 0)
(-0.19224 0.0383897 0)
(-0.196531 0.0359528 0)
(-0.20033 0.0333648 0)
(-0.203668 0.03065 0)
(-0.206566 0.0278283 0)
(-0.209044 0.0249161 0)
(-0.211119 0.0219259 0)
(-0.212799 0.0188646 0)
(-0.214089 0.015737 0)
(-0.214987 0.0125458 0)
(-0.215499 0.0092787 0)
(-0.215618 0.00592867 0)
(-0.215339 0.00248286 0)
(-0.214657 -0.00107426 0)
(-0.213557 -0.00475782 0)
(-0.212019 -0.00857321 0)
(-0.210008 -0.0125227 0)
(-0.207491 -0.0166113 0)
(-0.204444 -0.020847 0)
(-0.200825 -0.025225 0)
(-0.196585 -0.0297218 0)
(-0.191676 -0.0343166 0)
(-0.186073 -0.0389892 0)
(-0.179731 -0.0436854 0)
(-0.172579 -0.0483018 0)
(-0.164579 -0.0527271 0)
(-0.155712 -0.0568371 0)
(-0.145945 -0.060455 0)
(-0.135304 -0.0633984 0)
(-0.123825 -0.0654638 0)
(-0.111603 -0.066461 0)
(-0.0987894 -0.066168 0)
(-0.0856028 -0.0644448 0)
(-0.0722316 -0.061174 0)
(-0.0590698 -0.0563761 0)
(-0.0464902 -0.0501832 0)
(-0.0347518 -0.0427466 0)
(-0.0241562 -0.0343274 0)
(-0.0149468 -0.0252681 0)
(-0.00729964 -0.0159679 0)
(-0.00130418 -0.00683713 0)
(0.00304055 0.00171454 0)
(0.00579965 0.00928204 0)
(0.00706365 0.0154442 0)
(0.00693188 0.019745 0)
(0.00549755 0.021633 0)
(0.003152 0.020068 0)
(0.000352579 0.011298 0)
(0.000606307 -0.00763337 0)
(0.00201571 -0.0121032 0)
(0.00240172 -0.0109666 0)
(0.00207642 -0.0082833 0)
(0.00117265 -0.00525091 0)
(-0.000247613 -0.00220354 0)
(-0.00218513 0.000763052 0)
(-0.00467863 0.00363667 0)
(-0.00779578 0.00645144 0)
(-0.0116202 0.00926951 0)
(-0.0162392 0.0121671 0)
(-0.0217337 0.0152209 0)
(-0.0281681 0.0184957 0)
(-0.0355821 0.0220349 0)
(-0.0439805 0.0258504 0)
(-0.0533236 0.0299123 0)
(-0.0635108 0.0341387 0)
(-0.0743932 0.0384117 0)
(-0.0857485 0.042565 0)
(-0.0973145 0.0464538 0)
(-0.108862 0.0498732 0)
(-0.12008 0.0526399 0)
(-0.130679 0.0546615 0)
(-0.140511 0.0558776 0)
(-0.149538 0.056329 0)
(-0.157786 0.0561038 0)
(-0.165289 0.0552893 0)
(-0.172102 0.0539804 0)
(-0.178275 0.0522589 0)
(-0.183857 0.0501992 0)
(-0.188896 0.0478632 0)
(-0.19343 0.0453014 0)
(-0.197493 0.042555 0)
(-0.201116 0.0396567 0)
(-0.204329 0.0366346 0)
(-0.207154 0.0335082 0)
(-0.209607 0.0302962 0)
(-0.211703 0.0270154 0)
(-0.213447 0.0236788 0)
(-0.214845 0.0202864 0)
(-0.215952 0.0167836 0)
(-0.216734 0.0132283 0)
(-0.217196 0.00959749 0)
(-0.21733 0.00588405 0)
(-0.217131 0.00207486 0)
(-0.216586 -0.00184502 0)
(-0.215695 -0.00589262 0)
(-0.214458 -0.0100882 0)
(-0.212867 -0.0144549 0)
(-0.2109 -0.0190077 0)
(-0.208531 -0.0237611 0)
(-0.205738 -0.0287364 0)
(-0.20247 -0.0338882 0)
(-0.19865 -0.0391865 0)
(-0.194189 -0.0445821 0)
(-0.189012 -0.0500202 0)
(-0.183068 -0.0554324 0)
(-0.176267 -0.0606846 0)
(-0.16862 -0.0657092 0)
(-0.160008 -0.0702683 0)
(-0.150404 -0.0741435 0)
(-0.139803 -0.0770992 0)
(-0.128236 -0.0788711 0)
(-0.115782 -0.0792091 0)
(-0.102621 -0.0779028 0)
(-0.0889864 -0.0747647 0)
(-0.0751462 -0.0697292 0)
(-0.0615399 -0.0629133 0)
(-0.0485945 -0.0545444 0)
(-0.0366299 -0.0448931 0)
(-0.0259725 -0.0343579 0)
(-0.0168754 -0.02342 0)
(-0.00949758 -0.0125916 0)
(-0.00388593 -0.00237393 0)
(1.41567e-05 0.00676177 0)
(0.00233702 0.0143678 0)
(0.00325135 0.0199825 0)
(0.00292492 0.02299 0)
(0.00167792 0.0220508 0)
(6.89897e-05 0.0125598 0)
(0.00057913 -0.00879474 0)
(0.00124276 -0.0126231 0)
(0.000774051 -0.0105845 0)
(-0.000380158 -0.00724982 0)
(-0.00208809 -0.00368187 0)
(-0.00431245 -0.000115194 0)
(-0.00708037 0.00340504 0)
(-0.0104547 0.00689888 0)
(-0.0145199 0.0104183 0)
(-0.0193664 0.0140308 0)
(-0.0250776 0.0178057 0)
(-0.0317178 0.0218014 0)
(-0.0393213 0.0260547 0)
(-0.0478827 0.03057 0)
(-0.0573499 0.0353085 0)
(-0.0676116 0.0401895 0)
(-0.0785057 0.0450711 0)
(-0.0897936 0.0497733 0)
(-0.10123 0.0541277 0)
(-0.112518 0.0578844 0)
(-0.123328 0.0608809 0)
(-0.133422 0.0629955 0)
(-0.142731 0.0642176 0)
(-0.151247 0.0646181 0)
(-0.158997 0.0642938 0)
(-0.166035 0.0633422 0)
(-0.172416 0.0618607 0)
(-0.178198 0.0599388 0)
(-0.183431 0.0576546 0)
(-0.18816 0.0550758 0)
(-0.192424 0.0522594 0)
(-0.196253 0.0492508 0)
(-0.199675 0.0460862 0)
(-0.202713 0.0427959 0)
(-0.205387 0.039406 0)
(-0.207712 0.0359388 0)
(-0.209706 0.0324029 0)
(-0.211413 0.0287877 0)
(-0.212838 0.025108 0)
(-0.213992 0.0213692 0)
(-0.214853 0.0176116 0)
(-0.215445 0.0137715 0)
(-0.215766 0.0098539 0)
(-0.215822 0.00584412 0)
(-0.215618 0.00173004 0)
(-0.215155 -0.00250104 0)
(-0.214435 -0.0068643 0)
(-0.213451 -0.0113822 0)
(-0.212195 -0.0160743 0)
(-0.210651 -0.0209561 0)
(-0.208801 -0.0260378 0)
(-0.206617 -0.0313196 0)
(-0.204071 -0.0368552 0)
(-0.201136 -0.0426408 0)
(-0.19776 -0.0486467 0)
(-0.193882 -0.0548306 0)
(-0.18943 -0.0611391 0)
(-0.184257 -0.0673573 0)
(-0.178132 -0.0732818 0)
(-0.171031 -0.0788133 0)
(-0.16287 -0.0837232 0)
(-0.153593 -0.0877555 0)
(-0.143149 -0.09058 0)
(-0.131547 -0.0918739 0)
(-0.11888 -0.0913298 0)
(-0.105315 -0.0887103 0)
(-0.0911367 -0.0838499 0)
(-0.0767131 -0.0767526 0)
(-0.062562 -0.0676543 0)
(-0.0491933 -0.0569283 0)
(-0.0369753 -0.044984 0)
(-0.0262638 -0.0323867 0)
(-0.0173192 -0.0197615 0)
(-0.0102705 -0.00773136 0)
(-0.00511276 0.00311958 0)
(-0.00171239 0.0122668 0)
(0.000157591 0.0192058 0)
(0.000792116 0.0232908 0)
(0.000511426 0.0229707 0)
(-9.47188e-05 0.0130424 0)
(0.000493063 -0.00945139 0)
(0.00029913 -0.0122789 0)
(-0.00106771 -0.0093306 0)
(-0.00304856 -0.00539079 0)
(-0.0055726 -0.00129735 0)
(-0.00862136 0.0028051 0)
(-0.01224 0.00691849 0)
(-0.0165089 0.0110881 0)
(-0.0215193 0.0153742 0)
(-0.0273568 0.0198379 0)
(-0.0340869 0.0245285 0)
(-0.0417436 0.0294736 0)
(-0.0503187 0.0346675 0)
(-0.0597534 0.0400619 0)
(-0.0699447 0.0455737 0)
(-0.0807205 0.0510517 0)
(-0.0918265 0.0563041 0)
(-0.103022 0.0611103 0)
(-0.11397 0.0652341 0)
(-0.124344 0.0684756 0)
(-0.134004 0.0707414 0)
(-0.142875 0.0720532 0)
(-0.150961 0.0724885 0)
(-0.158296 0.0721394 0)
(-0.164938 0.0711186 0)
(-0.170948 0.0695275 0)
(-0.176381 0.0674624 0)
(-0.18129 0.0650079 0)
(-0.185718 0.0622353 0)
(-0.189701 0.0592051 0)
(-0.19327 0.0559674 0)
(-0.196451 0.0525631 0)
(-0.199268 0.0490257 0)
(-0.201744 0.0453818 0)
(-0.203898 0.0416526 0)
(-0.205753 0.0378537 0)
(-0.207324 0.0340038 0)
(-0.208603 0.0301229 0)
(-0.209612 0.0261971 0)
(-0.210367 0.0222227 0)
(-0.210874 0.0181989 0)
(-0.211158 0.0141109 0)
(-0.211229 0.00995585 0)
(-0.211101 0.00571993 0)
(-0.210785 0.00138824 0)
(-0.210291 -0.00305718 0)
(-0.209618 -0.00763778 0)
(-0.208765 -0.0123788 0)
(-0.207731 -0.0173055 0)
(-0.206514 -0.0224423 0)
(-0.205104 -0.0278112 0)
(-0.203485 -0.0334286 0)
(-0.201635 -0.0393045 0)
(-0.199523 -0.0454362 0)
(-0.197102 -0.0518086 0)
(-0.194308 -0.0583869 0)
(-0.191058 -0.0651059 0)
(-0.187287 -0.0720018 0)
(-0.182892 -0.0789118 0)
(-0.177729 -0.0856399 0)
(-0.171495 -0.0917316 0)
(-0.16399 -0.0969347 0)
(-0.1552 -0.101022 0)
(-0.145016 -0.103582 0)
(-0.133437 -0.104221 0)
(-0.120538 -0.10258 0)
(-0.10651 -0.0983738 0)
(-0.0917029 -0.0915023 0)
(-0.0765886 -0.0820602 0)
(-0.06183 -0.0704619 0)
(-0.0480169 -0.0572592 0)
(-0.03557 -0.0430349 0)
(-0.0248823 -0.0285378 0)
(-0.0161998 -0.0145322 0)
(-0.00960357 -0.00175468 0)
(-0.00500844 0.00913055 0)
(-0.00216443 0.0175278 0)
(-0.000704846 0.0226445 0)
(-0.00018891 0.0229845 0)
(-0.000101858 0.0130069 0)
(0.000355048 -0.00959602 0)
(-0.00078369 -0.011042 0)
(-0.00303161 -0.0072168 0)
(-0.00582815 -0.00269864 0)
(-0.00916767 0.00191133 0)
(-0.0130376 0.00656439 0)
(-0.017498 0.0113034 0)
(-0.0226379 0.0161883 0)
(-0.0285455 0.0212759 0)
(-0.0352903 0.0266077 0)
(-0.0429095 0.032201 0)
(-0.0513976 0.0380401 0)
(-0.0606971 0.0440676 0)
(-0.0707143 0.0501951 0)
(-0.0812809 0.0562619 0)
(-0.0921404 0.0620625 0)
(-0.103024 0.0673442 0)
(-0.113612 0.0718629 0)
(-0.123611 0.0754076 0)
(-0.132895 0.0779156 0)
(-0.141402 0.0794041 0)
(-0.149123 0.0799407 0)
(-0.156106 0.0796358 0)
(-0.162405 0.0786027 0)
(-0.168083 0.0769576 0)
(-0.173197 0.0747989 0)
(-0.177794 0.0722167 0)
(-0.181917 0.0692872 0)
(-0.185601 0.0660752 0)
(-0.188875 0.0626358 0)
(-0.191765 0.0590152 0)
(-0.194296 0.0552515 0)
(-0.196489 0.0513769 0)
(-0.198366 0.0474177 0)
(-0.199946 0.0433945 0)
(-0.201248 0.0393215 0)
(-0.202289 0.035209 0)
(-0.203083 0.0310645 0)
(-0.203652 0.0268889 0)
(-0.204013 0.0226828 0)
(-0.204181 0.0184449 0)
(-0.204174 0.0141638 0)
(-0.204004 0.00983078 0)
(-0.203686 0.00543059 0)
(-0.203231 0.000945629 0)
(-0.202649 -0.00364496 0)
(-0.201949 -0.00836564 0)
(-0.201139 -0.0132415 0)
(-0.200227 -0.0182991 0)
(-0.199218 -0.0235663 0)
(-0.198112 -0.02907 0)
(-0.196905 -0.0348362 0)
(-0.195587 -0.0408886 0)
(-0.194139 -0.0472419 0)
(-0.192531 -0.0538998 0)
(-0.190714 -0.060849 0)
(-0.188619 -0.0680482 0)
(-0.186162 -0.0754226 0)
(-0.183234 -0.0828603 0)
(-0.179675 -0.0902052 0)
(-0.17536 -0.0974185 0)
(-0.170083 -0.104125 0)
(-0.163438 -0.109675 0)
(-0.155212 -0.113721 0)
(-0.145355 -0.115906 0)
(-0.133795 -0.115728 0)
(-0.120606 -0.112748 0)
(-0.106031 -0.1067 0)
(-0.0904903 -0.0975321 0)
(-0.0746123 -0.0854842 0)
(-0.0592198 -0.0712158 0)
(-0.0449916 -0.0554893 0)
(-0.0324224 -0.0391009 0)
(-0.0219125 -0.0229795 0)
(-0.0136702 -0.00804396 0)
(-0.00770232 0.00484696 0)
(-0.0037823 0.014937 0)
(-0.00154671 0.0212559 0)
(-0.000425059 0.0224289 0)
(-1.85445e-05 0.012815 0)
(0.000120133 -0.00907237 0)
(-0.00196196 -0.00890707 0)
(-0.00504354 -0.00424644 0)
(-0.00863056 0.000811568 0)
(-0.0127628 0.00592858 0)
(-0.0174262 0.0111421 0)
(-0.0226888 0.016526 0)
(-0.0286405 0.0221431 0)
(-0.0353573 0.028034 0)
(-0.0428837 0.0342088 0)
(-0.0512219 0.0406416 0)
(-0.0603229 0.0472653 0)
(-0.0701022 0.0539854 0)
(-0.0803962 0.0606339 0)
(-0.0909664 0.0669865 0)
(-0.101527 0.0727732 0)
(-0.111767 0.0777386 0)
(-0.12145 0.0816766 0)
(-0.130423 0.0845093 0)
(-0.138622 0.0862497 0)
(-0.146043 0.0869628 0)
(-0.152724 0.0867646 0)
(-0.158728 0.0857811 0)
(-0.164112 0.0841303 0)
(-0.168931 0.0819221 0)
(-0.173232 0.0792486 0)
(-0.177056 0.0761922 0)
(-0.180436 0.0728229 0)
(-0.183404 0.0692009 0)
(-0.185987 0.0653778 0)
(-0.18821 0.0613975 0)
(-0.190097 0.0572974 0)
(-0.191675 0.0531088 0)
(-0.192965 0.0488568 0)
(-0.193988 0.0445603 0)
(-0.194766 0.040233 0)
(-0.195321 0.0358856 0)
(-0.195673 0.0315257 0)
(-0.19584 0.0271545 0)
(-0.195841 0.0227715 0)
(-0.19569 0.0183722 0)
(-0.195405 0.0139462 0)
(-0.194998 0.00948184 0)
(-0.194484 0.00496364 0)
(-0.193876 0.00037293 0)
(-0.193188 -0.0043132 0)
(-0.192433 -0.00911648 0)
(-0.191622 -0.0140639 0)
(-0.190769 -0.0191837 0)
(-0.189884 -0.0245056 0)
(-0.188976 -0.0300599 0)
(-0.188049 -0.0358774 0)
(-0.187105 -0.0419873 0)
(-0.186137 -0.0484137 0)
(-0.185129 -0.0551733 0)
(-0.184052 -0.0622715 0)
(-0.182857 -0.069697 0)
(-0.181479 -0.0774169 0)
(-0.179821 -0.0853532 0)
(-0.177747 -0.0933758 0)
(-0.175095 -0.101288 0)
(-0.171656 -0.108838 0)
(-0.167191 -0.115842 0)
(-0.161394 -0.121745 0)
(-0.153762 -0.125712 0)
(-0.144209 -0.127421 0)
(-0.132596 -0.126232 0)
(-0.119016 -0.121678 0)
(-0.103774 -0.113502 0)
(-0.087406 -0.101739 0)
(-0.070728 -0.086856 0)
(-0.0547336 -0.0697907 0)
(-0.0402222 -0.0515905 0)
(-0.0277355 -0.0332655 0)
(-0.0176486 -0.0159535 0)
(-0.010106 -0.000750577 0)
(-0.00496565 0.0113619 0)
(-0.00192028 0.019231 0)
(-0.000340071 0.0214928 0)
(0.00014765 0.0126262 0)
(-0.000152311 -0.00785308 0)
(-0.00316259 -0.00588988 0)
(-0.00702932 -0.000456523 0)
(-0.0113672 0.00510448 0)
(-0.0162503 0.0107162 0)
(-0.0216558 0.0164909 0)
(-0.027654 0.0225211 0)
(-0.0343284 0.0288613 0)
(-0.0417352 0.0355236 0)
(-0.0498891 0.0424763 0)
(-0.0587543 0.0496426 0)
(-0.0682589 0.0569198 0)
(-0.0782504 0.064133 0)
(-0.0885066 0.0710434 0)
(-0.0987526 0.0773717 0)
(-0.108688 0.0828387 0)
(-0.118095 0.0872496 0)
(-0.126816 0.090498 0)
(-0.134766 0.0925677 0)
(-0.141941 0.0935354 0)
(-0.148377 0.0935136 0)
(-0.15413 0.092637 0)
(-0.159258 0.0910329 0)
(-0.163814 0.0888155 0)
(-0.167845 0.0860865 0)
(-0.171389 0.0829321 0)
(-0.174483 0.0794294 0)
(-0.177158 0.0756445 0)
(-0.179443 0.071635 0)
(-0.181369 0.0674513 0)
(-0.182963 0.0631368 0)
(-0.184254 0.0587287 0)
(-0.185267 0.0542569 0)
(-0.186028 0.0497448 0)
(-0.186561 0.0452106 0)
(-0.186889 0.0406684 0)
(-0.187033 0.036128 0)
(-0.187012 0.0315944 0)
(-0.186845 0.027068 0)
(-0.186548 0.0225464 0)
(-0.186134 0.0180232 0)
(-0.185619 0.0134881 0)
(-0.185015 0.00892859 0)
(-0.184337 0.00432913 0)
(-0.183599 -0.000328855 0)
(-0.182815 -0.0050675 0)
(-0.181997 -0.009909 0)
(-0.181164 -0.0148803 0)
(-0.180329 -0.0200101 0)
(-0.179509 -0.0253295 0)
(-0.178716 -0.030871 0)
(-0.177965 -0.0366684 0)
(-0.177263 -0.0427554 0)
(-0.176615 -0.0491632 0)
(-0.176017 -0.0559182 0)
(-0.175456 -0.0630388 0)
(-0.174902 -0.0705311 0)
(-0.17431 -0.0783833 0)
(-0.173608 -0.0865544 0)
(-0.172691 -0.0949669 0)
(-0.171415 -0.103493 0)
(-0.169588 -0.111914 0)
(-0.166972 -0.119919 0)
(-0.163263 -0.127116 0)
(-0.158116 -0.133107 0)
(-0.151004 -0.136958 0)
(-0.141637 -0.138037 0)
(-0.129843 -0.13562 0)
(-0.115725 -0.129207 0)
(-0.0996818 -0.118572 0)
(-0.0824181 -0.103901 0)
(-0.0649624 -0.08596 0)
(-0.0485167 -0.0660569 0)
(-0.0339809 -0.0455362 0)
(-0.021896 -0.0256635 0)
(-0.0125933 -0.0078316 0)
(-0.00607418 0.00669724 0)
(-0.0021157 0.0165896 0)
(-0.000103994 0.0203673 0)
(0.000325214 0.0126512 0)
(-0.000446717 -0.00592716 0)
(-0.00433387 -0.00204837 0)
(-0.00892364 0.00410102 0)
(-0.0139571 0.0101287 0)
(-0.0195308 0.0162169 0)
(-0.0256066 0.02254 0)
(-0.0322517 0.029198 0)
(-0.0395369 0.0362253 0)
(-0.0474948 0.0435959 0)
(-0.0561081 0.0512277 0)
(-0.0653208 0.0590086 0)
(-0.074998 0.066757 0)
(-0.0849354 0.0742202 0)
(-0.0948791 0.0811179 0)
(-0.104548 0.0871473 0)
(-0.113724 0.0921 0)
(-0.122242 0.095845 0)
(-0.130003 0.0983364 0)
(-0.136989 0.0996368 0)
(-0.143233 0.099866 0)
(-0.148784 0.0991593 0)
(-0.1537 0.0976544 0)
(-0.158034 0.0954737 0)
(-0.161829 0.0927256 0)
(-0.165129 0.0895052 0)
(-0.167968 0.0858953 0)
(-0.170381 0.08197 0)
(-0.172401 0.0777935 0)
(-0.174062 0.0734231 0)
(-0.175397 0.0689094 0)
(-0.176436 0.0642949 0)
(-0.17721 0.0596147 0)
(-0.177746 0.0548972 0)
(-0.178071 0.0501645 0)
(-0.178208 0.0454338 0)
(-0.178181 0.0407173 0)
(-0.178007 0.0360222 0)
(-0.177704 0.0313513 0)
(-0.177287 0.0267036 0)
(-0.176769 0.0220751 0)
(-0.176164 0.0174583 0)
(-0.175482 0.0128428 0)
(-0.174736 0.00821583 0)
(-0.173937 0.00356191 0)
(-0.173101 -0.00113663 0)
(-0.172239 -0.0058989 0)
(-0.171365 -0.0107495 0)
(-0.170498 -0.0157135 0)
(-0.169654 -0.0208193 0)
(-0.168852 -0.0260978 0)
(-0.16811 -0.0315822 0)
(-0.167445 -0.0373083 0)
(-0.166875 -0.0433129 0)
(-0.166413 -0.0496324 0)
(-0.166065 -0.0563013 0)
(-0.165832 -0.0633492 0)
(-0.165699 -0.0707971 0)
(-0.16564 -0.0786517 0)
(-0.165604 -0.0868975 0)
(-0.165513 -0.0954892 0)
(-0.165256 -0.10434 0)
(-0.164672 -0.113302 0)
(-0.163549 -0.122149 0)
(-0.161611 -0.130534 0)
(-0.158519 -0.137986 0)
(-0.153845 -0.143902 0)
(-0.14706 -0.147442 0)
(-0.1377 -0.147687 0)
(-0.125531 -0.143763 0)
(-0.110702 -0.135129 0)
(-0.0937359 -0.121639 0)
(-0.0755476 -0.103714 0)
(-0.0574634 -0.0825348 0)
(-0.0408662 -0.0598651 0)
(-0.026703 -0.0373212 0)
(-0.0154856 -0.0165554 0)
(-0.00743461 0.00081561 0)
(-0.00242552 0.0132647 0)
(8.58269e-05 0.0190507 0)
(0.000475335 0.0128801 0)
(-0.000749861 -0.00331242 0)
(-0.00543135 0.00256403 0)
(-0.0106668 0.00936324 0)
(-0.0163301 0.0158182 0)
(-0.0225186 0.0223558 0)
(-0.0291764 0.0291996 0)
(-0.036363 0.0364466 0)
(-0.0441333 0.0441015 0)
(-0.0524952 0.0520909 0)
(-0.0614136 0.0602968 0)
(-0.070775 0.0685304 0)
(-0.0803962 0.0765232 0)
(-0.0900521 0.0839995 0)
(-0.099484 0.0906377 0)
(-0.108467 0.0961974 0)
(-0.116831 0.100517 0)
(-0.124459 0.103521 0)
(-0.131314 0.105244 0)
(-0.137419 0.105802 0)
(-0.142821 0.105336 0)
(-0.147575 0.103989 0)
(-0.151732 0.101895 0)
(-0.155339 0.0991703 0)
(-0.158438 0.0959193 0)
(-0.161066 0.0922334 0)
(-0.163262 0.0881941 0)
(-0.165062 0.0838738 0)
(-0.166504 0.0793371 0)
(-0.167625 0.0746421 0)
(-0.168461 0.0698372 0)
(-0.169042 0.0649626 0)
(-0.169402 0.0600517 0)
(-0.169566 0.0551307 0)
(-0.169562 0.0502193 0)
(-0.169409 0.0453322 0)
(-0.169128 0.0404787 0)
(-0.168734 0.035663 0)
(-0.168241 0.030886 0)
(-0.167661 0.0261451 0)
(-0.167003 0.0214348 0)
(-0.166277 0.016747 0)
(-0.165491 0.0120713 0)
(-0.164656 0.00739523 0)
(-0.163782 0.00270397 0)
(-0.162879 -0.00201902 0)
(-0.161961 -0.00679218 0)
(-0.16104 -0.0116376 0)
(-0.160135 -0.016579 0)
(-0.159262 -0.0216434 0)
(-0.158443 -0.0268605 0)
(-0.157699 -0.0322631 0)
(-0.157052 -0.0378872 0)
(-0.156524 -0.0437711 0)
(-0.156137 -0.0499551 0)
(-0.155906 -0.0564793 0)
(-0.155843 -0.0633825 0)
(-0.155949 -0.070698 0)
(-0.156212 -0.0784496 0)
(-0.156601 -0.0866452 0)
(-0.157062 -0.0952683 0)
(-0.15751 -0.104267 0)
(-0.15782 -0.11354 0)
(-0.157815 -0.122919 0)
(-0.157255 -0.132141 0)
(-0.155828 -0.140817 0)
(-0.153148 -0.148399 0)
(-0.148741 -0.154175 0)
(-0.142031 -0.157182 0)
(-0.132436 -0.156301 0)
(-0.119662 -0.15048 0)
(-0.103939 -0.139155 0)
(-0.0859523 -0.122313 0)
(-0.0669108 -0.100767 0)
(-0.0485223 -0.0762648 0)
(-0.0322346 -0.0510317 0)
(-0.0189908 -0.0270699 0)
(-0.00924702 -0.00641114 0)
(-0.0030368 0.0091262 0)
(0.000108033 0.0174406 0)
(0.000597378 0.0132507 0)
(-0.00102579 -4.86601e-05 0)
(-0.00641714 0.00786624 0)
(-0.012221 0.0152518 0)
(-0.0184317 0.0220928 0)
(-0.0251455 0.0290438 0)
(-0.0322849 0.0363666 0)
(-0.0398978 0.0441466 0)
(-0.0480227 0.0523503 0)
(-0.0566544 0.0608683 0)
(-0.0657065 0.0695069 0)
(-0.0750175 0.0779808 0)
(-0.084396 0.0860205 0)
(-0.0936122 0.0932917 0)
(-0.102433 0.0995107 0)
(-0.110682 0.104479 0)
(-0.118227 0.108083 0)
(-0.125008 0.110324 0)
(-0.131032 0.111299 0)
(-0.136341 0.11115 0)
(-0.140986 0.110029 0)
(-0.14502 0.108078 0)
(-0.148489 0.105427 0)
(-0.151437 0.102187 0)
(-0.153906 0.0984612 0)
(-0.155936 0.0943392 0)
(-0.157567 0.0899022 0)
(-0.158842 0.085223 0)
(-0.1598 0.0803673 0)
(-0.160482 0.0753903 0)
(-0.160923 0.0703376 0)
(-0.161156 0.0652472 0)
(-0.16121 0.0601495 0)
(-0.161113 0.0550674 0)
(-0.160885 0.0500172 0)
(-0.160545 0.0450098 0)
(-0.160108 0.0400515 0)
(-0.159585 0.0351439 0)
(-0.158987 0.0302857 0)
(-0.158321 0.0254726 0)
(-0.157593 0.0206982 0)
(-0.156809 0.015954 0)
(-0.155975 0.0112296 0)
(-0.155098 0.0065132 0)
(-0.154186 0.00179124 0)
(-0.153247 -0.00295142 0)
(-0.152292 -0.00773171 0)
(-0.151334 -0.012569 0)
(-0.15039 -0.017485 0)
(-0.149477 -0.0225041 0)
(-0.148617 -0.027654 0)
(-0.147833 -0.0329659 0)
(-0.147151 -0.0384745 0)