/*--------------------------------*- C++ -*----------------------------------*\
  =========                 |
  \\      /  F ield         | OpenFOAM: The Open Source CFD Toolbox
   \\    /   O peration     | Website:  https://openfoam.org
    \\  /    A nd           | Version:  13
     \\/     M anipulation  |
\*---------------------------------------------------------------------------*/
FoamFile
{
    format      ascii;
    class       volScalarField;
    location    "4.9";
    object      k;
}
// * * * * * * * * * * * * * * * * * * * * * * * * * * * * * * * * * * * * * //

dimensions      [0 2 -2 0 0 0 0];

internalField   nonuniform List<scalar> 
6400
(
4.58711e-07
2.35107e-06
5.66532e-06
9.1397e-06
1.18107e-05
1.33633e-05
1.39856e-05
1.4112e-05
1.42354e-05
1.47826e-05
1.60645e-05
1.85138e-05
2.23844e-05
2.77716e-05
3.4445e-05
4.20692e-05
5.02933e-05
5.89476e-05
6.77003e-05
7.62678e-05
8.4799e-05
9.3933e-05
0.000104574
0.000117507
0.000132589
0.000148517
0.000164294
0.000179977
0.000195906
0.00021246
0.000229614
0.000246716
0.000263529
0.000279893
0.000296257
0.000312775
0.000329795
0.000347496
0.000366107
0.000385763
0.000406579
0.000428709
0.000452294
0.000477551
0.000504628
0.000534036
0.000566906
0.000605715
0.000654011
0.000699427
0.000746803
0.000792384
0.000836527
0.000877261
0.000913458
0.000943374
0.000963563
0.000973163
0.000976356
0.00096609
0.000939432
0.000897778
0.000841459
0.000771679
0.000691268
0.000602541
0.000511567
0.000421769
0.000336616
0.000258397
0.000195773
0.000143083
0.000100177
6.71024e-05
4.31568e-05
2.67423e-05
1.59946e-05
9.08058e-06
4.2478e-06
9.0147e-07
2.22579e-06
1.87641e-05
4.53694e-05
7.13139e-05
9.08852e-05
0.000102852
0.000108805
0.000111429
0.00011369
0.000118345
0.000128289
0.000146769
0.000175002
0.000212687
0.000258279
0.0003096
0.000364713
0.000421706
0.000478894
0.000535323
0.000591986
0.000652382
0.000721323
0.000802433
0.000894122
0.000989403
0.00108261
0.00117233
0.00125885
0.00134277
0.00142318
0.00149799
0.00156661
0.00162856
0.0016863
0.00174069
0.00179361
0.00184608
0.00189932
0.00195417
0.00201127
0.00207128
0.00213464
0.00220159
0.00227178
0.00234494
0.00242076
0.00249672
0.00257157
0.00265352
0.00273636
0.00282108
0.00290401
0.00298331
0.00305515
0.00311595
0.00315731
0.0031751
0.00317736
0.003152
0.00308995
0.00299109
0.00285373
0.0026785
0.00246998
0.00223421
0.00198383
0.00172759
0.00147255
0.00122796
0.000991032
0.0007736
0.000583146
0.000423089
0.00029485
0.000196417
0.000124726
7.43581e-05
3.56691e-05
4.75872e-06
4.88078e-06
4.09896e-05
9.55958e-05
0.000142528
0.00017509
0.000194656
0.000205627
0.000213096
0.000222229
0.000238187
0.000266069
0.000310131
0.000372194
0.000451096
0.000543669
0.000646403
0.00075657
0.000871934
0.000990201
0.00110928
0.00122744
0.00134365
0.00145642
0.00156188
0.00165499
0.0017322
0.0017907
0.00183143
0.00186197
0.00188824
0.00191536
0.00194396
0.00197544
0.00200681
0.00204092
0.00207756
0.00211804
0.00216263
0.00221195
0.00226647
0.00232611
0.00239105
0.00246139
0.00253684
0.00261748
0.00270323
0.00279384
0.00288929
0.00299017
0.00309617
0.00320529
0.00331655
0.00342754
0.00353585
0.00363789
0.00372959
0.00380592
0.00385812
0.00388004
0.00388088
0.00384132
0.00375849
0.00362852
0.00345064
0.00322699
0.00296111
0.00267011
0.00236391
0.00205191
0.00174538
0.00145355
0.00118357
0.000941336
0.000729938
0.000550626
0.000402762
0.000283246
0.00018481
9.32936e-05
1.26316e-05
8.47587e-06
6.91628e-05
0.000151698
0.000215229
0.000257436
0.000283853
0.000301669
0.000318232
0.000340825
0.000376655
0.000432281
0.000511998
0.000616167
0.000741173
0.000881339
0.00103108
0.00118546
0.00133956
0.00148794
0.00162517
0.00174578
0.00184664
0.00192579
0.00197816
0.00200276
0.00201046
0.00201022
0.00200591
0.00200466
0.00200739
0.002016
0.00202781
0.00204429
0.00206513
0.00209121
0.00212195
0.00215792
0.00219914
0.00224559
0.00229733
0.00235461
0.00241744
0.00248599
0.00256013
0.00263979
0.00272447
0.00281552
0.00291279
0.00301614
0.00312508
0.00323864
0.00335561
0.0034742
0.00359216
0.0037063
0.00381277
0.00390671
0.00398271
0.00402942
0.00404693
0.00403358
0.00397694
0.00387532
0.00373114
0.0035345
0.00328401
0.00299419
0.00267522
0.00234238
0.00201031
0.00169179
0.00139666
0.0011313
0.000898692
0.000699409
0.000532155
0.000392638
0.000271524
0.000146724
2.07662e-05
1.35659e-05
0.000106843
0.000218384
0.000297819
0.000349758
0.000384286
0.000411654
0.000441779
0.000484253
0.000548008
0.000639784
0.000761896
0.000911061
0.00107966
0.00125846
0.00143858
0.0016117
0.00176956
0.00190352
0.00200868
0.00207746
0.00210815
0.00211515
0.00209494
0.00206644
0.00204102
0.00202046
0.00200479
0.00199709
0.0019941
0.00199417
0.00199998
0.00201
0.00202432
0.00204308
0.00206556
0.00209211
0.00212224
0.00215582
0.00219299
0.00223379
0.00227837
0.00232741
0.00238145
0.00244122
0.0025077
0.00258015
0.00265913
0.00274484
0.00283748
0.00293703
0.00304331
0.00315546
0.00327241
0.0033923
0.00351273
0.0036298
0.00373857
0.00383308
0.00390339
0.00393562
0.00393964
0.0038889
0.00378595
0.00363008
0.00342832
0.00316303
0.00285371
0.00251642
0.00216948
0.00183058
0.00151449
0.00123095
0.000984235
0.000774492
0.000599153
0.00045253
0.000322729
0.000182014
2.61919e-05
2.08076e-05
0.000157055
0.000299585
0.000395717
0.000458713
0.000503467
0.000543658
0.000592048
0.000660317
0.000757871
0.00088946
0.0010531
0.0012403
0.00143864
0.0016348
0.00181631
0.00197206
0.00209383
0.00216677
0.00219455
0.00219548
0.00215744
0.0021171
0.00207891
0.00204016
0.00200691
0.00197907
0.00195634
0.00193865
0.00192446
0.00191426
0.00190944
0.00190768
0.00190775
0.00191194
0.00191808
0.00192692
0.00193806
0.00195161
0.00196795
0.0019874
0.00201018
0.00203642
0.00206642
0.00210067
0.00213969
0.00218395
0.00223438
0.0022919
0.00235752
0.00243225
0.00251717
0.00261292
0.00271982
0.00283745
0.00296441
0.00309881
0.00323737
0.00337507
0.00350473
0.00361734
0.00369429
0.00372503
0.00371517
0.00363626
0.00349621
0.0032853
0.00300589
0.00267585
0.00231734
0.00195424
0.0016091
0.00129878
0.00103181
0.000809048
0.00062634
0.000475671
0.000342536
0.000196804
2.80092e-05
3.08462e-05
0.000221664
0.000397566
0.000511679
0.000587346
0.000644626
0.000700874
0.000771517
0.000869264
0.00100194
0.00116993
0.00136535
0.00157399
0.00177885
0.00196335
0.0021133
0.00221371
0.00225717
0.00226346
0.00222655
0.00218019
0.00212344
0.00206794
0.00201085
0.00195931
0.00191565
0.00187778
0.00184511
0.00181694
0.00179372
0.00177432
0.00175797
0.00174388
0.001732
0.00172255
0.00171483
0.00170926
0.00170612
0.00170488
0.00170482
0.00170783
0.0017128
0.00172043
0.00173095
0.00174458
0.00176187
0.00178329
0.00180958
0.00184166
0.00188079
0.00192829
0.00198586
0.00205585
0.0021404
0.00224168
0.0023605
0.00249675
0.00265115
0.00281916
0.00299482
0.00317033
0.00333542
0.00347386
0.00355061
0.00357314
0.00352311
0.00340756
0.00318476
0.00288034
0.00251793
0.00212697
0.00174
0.00138567
0.00108204
0.000834014
0.000636614
0.00047855
0.000341388
0.000195502
2.71438e-05
4.42864e-05
0.000301696
0.000513097
0.000646539
0.000736405
0.000808168
0.000882775
0.000977526
0.00110442
0.00126749
0.00146111
0.0016711
0.00187818
0.00206232
0.00220648
0.00228669
0.00231288
0.00229571
0.0022476
0.00218342
0.00210855
0.00202645
0.00195391
0.00188816
0.00183376
0.00178506
0.00174196
0.00170349
0.00166924
0.00163881
0.0016115
0.00158702
0.00156517
0.00154592
0.00152922
0.00151477
0.00150258
0.00149254
0.00148452
0.00147861
0.00147544
0.00147419
0.00147421
0.00147773
0.00148347
0.00149234
0.00150453
0.00152064
0.00154104
0.00156623
0.00159691
0.00163403
0.00167879
0.00173281
0.00179878
0.00188131
0.00198657
0.00211802
0.00227994
0.00246887
0.0026773
0.00289834
0.00311619
0.00331466
0.00344776
0.00349941
0.0034795
0.00338001
0.00313557
0.00279416
0.00238584
0.00195176
0.00153586
0.00117257
0.00087859
0.000652023
0.000478158
0.000334291
0.000189083
2.52338e-05
6.15879e-05
0.000397189
0.000645828
0.000799673
0.000904815
0.000992055
0.00108542
0.00120282
0.00135369
0.00153663
0.00173955
0.00194277
0.00212384
0.00226128
0.00232795
0.00234325
0.00231109
0.0022569
0.00217237
0.00207097
0.00197468
0.00189037
0.00181624
0.00175067
0.00169354
0.00164158
0.00159507
0.00155313
0.00151562
0.0014822
0.00145262
0.00142675
0.00140444
0.00138547
0.00136957
0.00135657
0.00134626
0.00133839
0.00133274
0.00132973
0.00132856
0.00132847
0.00133105
0.00133568
0.00134247
0.00135165
0.00136329
0.00137766
0.00139497
0.00141553
0.00143969
0.00146794
0.00150079
0.00153897
0.00158346
0.00163582
0.00169875
0.00177623
0.00187629
0.00201403
0.00220034
0.00243047
0.00268448
0.00295354
0.00321008
0.00340341
0.00348696
0.00349312
0.00339445
0.0031202
0.00272915
0.0022637
0.00178145
0.00133768
0.000970443
0.000690615
0.000485326
0.000325661
0.000177306
2.32869e-05
8.29651e-05
0.000506977
0.000794193
0.000969174
0.00108985
0.00119199
0.00130191
0.00143679
0.00160203
0.00179025
0.00198362
0.00215901
0.00229003
0.00235049
0.00236066
0.00232479
0.00225478
0.00214931
0.00203166
0.00192526
0.00182977
0.00174683
0.00167341
0.00160823
0.00155019
0.00149793
0.00145168
0.00141092
0.00137561
0.00134546
0.00132022
0.00129955
0.00128303
0.00127023
0.00126069
0.00125392
0.00124976
0.00124783
0.00124727
0.00124831
0.00125102
0.00125507
0.00126076
0.0012679
0.00127665
0.00128709
0.00129937
0.00131369
0.00133027
0.00134937
0.00137124
0.00139601
0.00142396
0.00145536
0.0014905
0.00152966
0.00157376
0.00162436
0.00168484
0.00176167
0.00186546
0.00201542
0.00224059
0.00252167
0.00283095
0.0031445
0.00339772
0.00351346
0.00353201
0.00342858
0.00311339
0.00265953
0.00213123
0.00160241
0.00113854
0.0007761
0.00051479
0.000328078
0.000169083
2.19581e-05
0.000108663
0.000628018
0.000955462
0.00115191
0.00128722
0.00140176
0.00152332
0.00166724
0.00183425
0.00201142
0.00217698
0.0023026
0.00235982
0.00236799
0.00233177
0.00224947
0.0021277
0.00199933
0.00188041
0.00177621
0.00168439
0.00160422
0.00153311
0.00147028
0.00141496
0.00136675
0.00132567
0.00129129
0.00126332
0.00124116
0.0012242
0.00121175
0.00120306
0.00119755
0.00119486
0.0011939
0.00119396
0.00119604
0.00119892
0.00120299
0.00120805
0.00121418
0.00122148
0.00123
0.00123993
0.00125142
0.00126464
0.0012798
0.00129705
0.00131654
0.00133838
0.00136264
0.00138941
0.00141878
0.00145086
0.00148596
0.00152355
0.00156392
0.00160773
0.00165724
0.00171788
0.00179982
0.00192062
0.00211038
0.00240039
0.00274462
0.00311246
0.00341817
0.00355841
0.00358182
0.00345969
0.0030867
0.00256087
0.00196928
0.0014033
0.000933786
0.00058619
0.00034752
0.000170684
2.2032e-05
0.000140234
0.000755824
0.00112638
0.00134368
0.00149139
0.00161397
0.00173999
0.00188235
0.00203732
0.0021878
0.00230695
0.00236229
0.00237014
0.00233446
0.00224403
0.0021117
0.00197482
0.0018451
0.00173086
0.0016317
0.00154492
0.00146925
0.00140306
0.00134602
0.00129765
0.00125765
0.00122559
0.0012007
0.00118214
0.00116893
0.00116008
0.00115485
0.00115239
0.00115157
0.00115174
0.00115336
0.00115561
0.00115875
0.0011624
0.00116685
0.00117207
0.00117827
0.0011856
0.00119427
0.00120449
0.00121649
0.00123049
0.00124671
0.00126533
0.0012865
0.00131031
0.00133678
0.00136583
0.00139725
0.00143076
0.001466
0.00150274
0.001541
0.00158072
0.00162122
0.00166422
0.00171422
0.00178008
0.00187898
0.00204196
0.0023167
0.00269274
0.00310908
0.00345661
0.0036102
0.00362895
0.00346861
0.00301499
0.00241006
0.00176242
0.00117794
0.000721105
0.000400761
0.000184098
2.3617e-05
0.000175622
0.000890951
0.00130331
0.0015396
0.00169621
0.00182099
0.00194284
0.00207226
0.00220197
0.00231126
0.00236431
0.00237254
0.00233757
0.00224477
0.0021068
0.0019599
0.0018208
0.00169647
0.00158931
0.00149677
0.00141669
0.00134807
0.00128996
0.00124204
0.00120363
0.00117398
0.001152
0.00113645
0.00112607
0.00111962
0.00111631
0.00111487
0.00111446
0.00111465
0.00111555
0.00111688
0.00111851
0.00112056
0.00112311
0.00112635
0.00113049
0.00113574
0.00114234
0.00115053
0.00116056
0.00117269
0.00118717
0.00120423
0.0012241
0.00124699
0.00127304
0.00130233
0.00133479
0.00137024
0.00140824
0.00144817
0.00148918
0.00153039
0.00157114
0.00161148
0.00165094
0.0016899
0.0017322
0.00178687
0.00187154
0.00201693
0.00227195
0.00267243
0.00313275
0.00350691
0.00365933
0.00366227
0.00342008
0.00287186
0.00218695
0.0015031
0.000926594
0.00050577
0.000220702
2.85457e-05
0.000213785
0.00103013
0.00148181
0.00173439
0.00189553
0.00201588
0.00212453
0.00223024
0.00232367
0.00237221
0.00238032
0.00234499
0.00225383
0.00211343
0.00195828
0.00180854
0.00167446
0.00155846
0.00145967
0.00137539
0.00130416
0.00124514
0.00119748
0.0011604
0.00113263
0.00111278
0.00109927
0.00109055
0.00108524
0.00108216
0.00108045
0.00107931
0.0010784
0.00107759
0.00107692
0.00107639
0.00107616
0.00107618
0.00107697
0.0010786
0.0010814
0.00108556
0.00109132
0.00109892
0.00110862
0.00112064
0.00113526
0.00115272
0.0011733
0.00119725
0.00122481
0.00125619
0.00129148
0.00133064
0.00137341
0.0014192
0.00146708
0.00151567
0.00156333
0.00160844
0.00165015
0.00168794
0.00172352
0.001762
0.00180901
0.0018849
0.00201801
0.00226283
0.00268256
0.00318252
0.00356478
0.00370456
0.00365255
0.00329263
0.00263246
0.00188387
0.00119469
0.000659671
0.000288161
3.85564e-05
0.000253495
0.00116975
0.00165726
0.00192284
0.00208372
0.00219294
0.00228003
0.00235325
0.00239278
0.00239882
0.00236067
0.00227313
0.00213289
0.00197139
0.00181093
0.00166565
0.00154018
0.00143391
0.00134474
0.00127044
0.00120987
0.00116195
0.0011254
0.00109871
0.00108004
0.00106753
0.0010594
0.00105414
0.00105053
0.0010477
0.00104506
0.0010423
0.00103937
0.00103632
0.00103331
0.00103049
0.0010281
0.00102657
0.00102597
0.00102604
0.00102787
0.00103122
0.00103638
0.00104354
0.00105291
0.00106472
0.00107919
0.0010966
0.00111722
0.00114137
0.00116937
0.00120154
0.00123818
0.00127948
0.00132547
0.00137592
0.00143017
0.00148702
0.00154463
0.00160051
0.00165187
0.00169734
0.00173528
0.00176267
0.00179588
0.00184173
0.0019116
0.00203961
0.0022851
0.00272583
0.00326207
0.00361941
0.00372098
0.00358247
0.00305271
0.00228957
0.00150691
0.000854326
0.000378818
5.25433e-05
0.000293481
0.00130623
0.00182532
0.00210032
0.00225603
0.00234803
0.00240595
0.00243232
0.00243311
0.00238912
0.00230494
0.00216646
0.00200058
0.00182985
0.00167201
0.00153521
0.0014201
0.00132453
0.00124615
0.00118306
0.00113388
0.00109697
0.00107038
0.00105199
0.00103961
0.0010313
0.0010254
0.0010207
0.00101636
0.00101188
0.00100705
0.00100188
0.000996505
0.000991138
0.000986018
0.000981392
0.000977518
0.000974645
0.000973215
0.000972761
0.000973846
0.000976872
0.000981737
0.000988663
0.000997805
0.00100935
0.00102352
0.00104054
0.00106071
0.00108435
0.00111183
0.00114357
0.00118
0.00122155
0.00126855
0.00132118
0.00137928
0.0014422
0.00150855
0.00157603
0.00164132
0.00170031
0.00175084
0.00179094
0.00181041
0.00183593
0.00188083
0.00194788
0.00207798
0.00233668
0.00280581
0.00337262
0.00365498
0.00369433
0.00340837
0.00269352
0.00184638
0.00107893
0.00048673
6.96059e-05
0.000332592
0.00143596
0.00198235
0.00226345
0.00240858
0.00247478
0.00249565
0.00248512
0.00243555
0.0023523
0.00221575
0.00204715
0.00186709
0.00169569
0.00154524
0.00141896
0.00131513
0.00123096
0.00116406
0.00111241
0.00107404
0.00104662
0.00102767
0.00101476
0.00100571
0.000998795
0.000992742
0.000986749
0.000980393
0.000973545
0.000966279
0.000958796
0.000951356
0.000944232
0.000937691
0.000931978
0.000927313
0.000923884
0.000922165
0.000921584
0.00092248
0.000925496
0.000930324
0.000937187
0.000946192
0.000957499
0.000971288
0.000987775
0.00100722
0.00102995
0.00105634
0.00108684
0.00112197
0.00116229
0.00120837
0.00126076
0.00131978
0.00138543
0.00145709
0.00153325
0.00161116
0.00168663
0.00175412
0.00181011
0.00184786
0.00186264
0.00187993
0.00192297
0.00199209
0.00213133
0.00242067
0.00293667
0.00347296
0.0036891
0.00360403
0.00306626
0.00220132
0.00132657
0.000606465
8.86908e-05
0.000370537
0.00155629
0.00212562
0.00240708
0.00253456
0.00257307
0.0025633
0.00250892
0.00241698
0.00228298
0.00211253
0.00192434
0.00173899
0.00157257
0.00143212
0.00131736
0.00122526
0.00115275
0.00109722
0.00105615
0.00102691
0.00100666
0.000992657
0.000982525
0.000974383
0.000966915
0.000959319
0.000951217
0.000942541
0.000933426
0.000924122
0.000914923
0.000906124
0.000897996
0.000890774
0.000884657
0.000879807
0.000876419
0.000874778
0.000874277
0.000875379
0.000878543
0.000883475
0.000890362
0.000899285
0.000910377
0.000923791
0.000939715
0.000958383
0.000980086
0.00100518
0.00103411
0.0010674
0.00110567
0.00114965
0.00120007
0.00125767
0.00132301
0.00139625
0.00147683
0.00156308
0.0016518
0.00173779
0.0018139
0.00187491
0.00190736
0.00191834
0.00192862
0.00196894
0.00204328
0.0021997
0.00253694
0.00310694
0.00354737
0.00366194
0.00337992
0.00255976
0.00159379
0.000734785
0.000108972
0.000405781
0.00166522
0.00225018
0.00252663
0.00263419
0.00265086
0.00260304
0.00250486
0.00237238
0.00219863
0.00200333
0.00180431
0.00162009
0.00146207
0.00133291
0.00123002
0.00114965
0.00108843
0.0010433
0.00101115
0.000988823
0.000973239
0.000961756
0.000952308
0.000943473
0.000934418
0.000924776
0.00091452
0.000903828
0.000892987
0.000882319
0.000872129
0.000862687
0.000854216
0.000846893
0.000840854
0.000836204
0.00083317
0.000831782
0.000831452
0.000832902
0.000836245
0.000841301
0.000848215
0.000857056
0.00086794
0.000880997
0.000896392
0.000914331
0.000935068
0.000958922
0.000986294
0.00101768
0.0010537
0.00109508
0.0011427
0.00119749
0.00126042
0.00133228
0.00141341
0.00150333
0.00160018
0.00170017
0.00179706
0.00188198
0.00194305
0.00196783
0.00197446
0.00197907
0.00201878
0.00210207
0.00228883
0.00270561
0.00330633
0.00358744
0.00353656
0.00289757
0.00187529
0.000868292
0.000129872
0.000436956
0.00175981
0.00235415
0.00262269
0.00271132
0.00270578
0.00262009
0.00248486
0.00230865
0.00210597
0.00189397
0.00169098
0.0015122
0.00136447
0.00124705
0.00115591
0.00108678
0.00103588
0.000999572
0.000974282
0.000956584
0.000943491
0.000932688
0.000922581
0.000912248
0.000901297
0.000889712
0.000877699
0.000865574
0.000853676
0.000842319
0.000831769
0.000822235
0.000813872
0.000806794
0.000801082
0.000796794
0.000794186
0.000793076
0.000792917
0.000794667
0.000798131
0.000803246
0.000810127
0.000818842
0.000829494
0.000842204
0.000857118
0.000874415
0.000894318
0.000917103
0.000943121
0.000972813
0.00100674
0.0010456
0.00109025
0.00114173
0.0012012
0.00126986
0.00134876
0.00143843
0.00153838
0.00164639
0.00175779
0.00186486
0.00195686
0.00201425
0.00202889
0.00202975
0.00202855
0.00207267
0.00217047
0.00241334
0.00293169
0.00343867
0.00357773
0.00319542
0.00216612
0.00100308
0.000151832
0.000463214
0.00183858
0.00243648
0.00269526
0.00276934
0.00273723
0.00261571
0.00244354
0.00223489
0.00201029
0.00178842
0.0015865
0.00141585
0.00127925
0.00117351
0.00109359
0.00103475
0.000992713
0.000963377
0.000942883
0.000927849
0.000915606
0.00090431
0.000892878
0.000880843
0.000868164
0.000855057
0.000841856
0.000828917
0.00081656
0.000805047
0.000794575
0.000785281
0.000777258
0.000770565
0.000765241
0.000761312
0.000759044
0.000758142
0.000758102
0.000759999
0.000763475
0.00076854
0.000775294
0.000783811
0.000794189
0.000806543
0.000821008
0.000837744
0.000856947
0.000878857
0.000903774
0.000932079
0.000964258
0.00100094
0.00104291
0.00109118
0.00114696
0.00121166
0.00128678
0.00137364
0.00147295
0.00158413
0.00170433
0.00182745
0.00194323
0.00203671
0.00208323
0.00209095
0.00208165
0.00207534
0.0021279
0.00225846
0.00260192
0.00320045
0.0034942
0.00337441
0.00245684
0.00114346
0.000174665
0.000484177
0.00190147
0.00249821
0.00274647
0.00280728
0.00274879
0.00259864
0.00239052
0.00215568
0.00191543
0.00168914
0.00149179
0.00133078
0.00120549
0.00111094
0.00104136
0.000991529
0.000956703
0.000932485
0.000914998
0.000901128
0.000888666
0.000876283
0.000863363
0.000849801
0.000835796
0.000821691
0.000807856
0.00079462
0.000782245
0.000770918
0.000760763
0.000751854
0.000744232
0.000737916
0.000732919
0.00072925
0.000727153
0.000726337
0.00072635
0.000728211
0.000731572
0.000736468
0.000742994
0.000751232
0.000761282
0.000773256
0.000787284
0.000803514
0.000822124
0.000843323
0.00086737
0.00089459
0.000925398
0.00096033
0.00100009
0.00104558
0.00109796
0.00115868
0.00122942
0.00131201
0.00140809
0.0015185
0.00164246
0.00177637
0.00191257
0.00203847
0.00212227
0.00215091
0.00215126
0.00212899
0.00212235
0.00219017
0.0023895
0.00287653
0.00335148
0.00343901
0.00275189
0.00130884
0.000201959
0.000499689
0.00194906
0.00254069
0.00277793
0.00282654
0.00274375
0.00256461
0.00232978
0.00207456
0.00182406
0.00159748
0.00140699
0.00125627
0.00114201
0.00105787
0.000997499
0.000955223
0.000925962
0.000905231
0.000889354
0.000875637
0.000862382
0.00084874
0.000834478
0.000819746
0.00080488
0.000790262
0.000776235
0.000763066
0.000750939
0.000739968
0.000730214
0.000721699
0.000714428
0.000708398
0.000703609
0.000700066
0.000697973
0.000697126
0.000697081
0.00069874
0.000701866
0.000706483
0.000712688
0.000720571
0.000730235
0.000741796
0.000755382
0.000771136
0.000789222
0.000809829
0.000833184
0.000859567
0.000889329
0.000922925
0.000960953
0.00100421
0.00105373
0.00111088
0.00117738
0.00125525
0.00134668
0.00145357
0.00157676
0.00171476
0.00186227
0.00200868
0.00213713
0.00220648
0.00221949
0.00219879
0.00216919
0.00217142
0.00227873
0.00260492
0.00318366
0.00343035
0.00302681
0.00151861
0.000238358
0.000510014
0.00198229
0.00256485
0.00278983
0.00282655
0.00272693
0.00252157
0.00226466
0.00199424
0.0017379
0.001514
0.00133171
0.00119138
0.00108753
0.00101284
0.000960412
0.000924231
0.000899048
0.000880491
0.000865238
0.000851085
0.000836825
0.000822016
0.000806707
0.000791206
0.0007759
0.000761147
0.00074723
0.000734339
0.000722582
0.00071201
0.000702634
0.000694443
0.000687421
0.000681556
0.000676843
0.00067329
0.000671032
0.000670029
0.000669863
0.000671186
0.000673975
0.000678224
0.00068403
0.000691493
0.000700721
0.000711833
0.00072496
0.000740243
0.000757841
0.000777928
0.000800712
0.000826436
0.000855402
0.000887996
0.000924724
0.00096626
0.00101351
0.00106771
0.00113046
0.00120381
0.00129024
0.00139236
0.00151235
0.00165088
0.00180547
0.00196854
0.00212579
0.00224023
0.00228352
0.00228379
0.00222809
0.00219586
0.00223305
0.00241671
0.002924
0.00330215
0.00321147
0.00177512
0.000285591
0.000515159
0.00200139
0.00257167
0.00278716
0.00281684
0.00269625
0.00247179
0.00219776
0.00191664
0.00165793
0.00143877
0.00126531
0.00113507
0.00104083
0.000974488
0.000928726
0.000897293
0.00087495
0.000857589
0.000842334
0.00082747
0.000812226
0.000796475
0.000780454
0.000764543
0.00074912
0.000734489
0.000720854
0.00070833
0.000696963
0.000686752
0.000677676
0.000669705
0.000662815
0.000656991
0.000652232
0.000648554
0.000646005
0.00064475
0.000644403
0.0006453
0.000647673
0.000651487
0.000656837
0.000663829
0.000672577
0.000683206
0.00069585
0.000710653
0.000727771
0.000747374
0.000769654
0.000794833
0.000823177
0.000855015
0.000890776
0.00093103
0.000976552
0.00102841
0.00108804
0.00115741
0.00123899
0.00133574
0.00145073
0.00158625
0.00174222
0.00191407
0.00209036
0.00225109
0.00234057
0.00235847
0.00232552
0.00224827
0.00222524
0.00232249
0.0026941
0.00319605
0.00328875
0.00206944
0.00034133
0.000514889
0.002009
0.0025675
0.00277443
0.00279379
0.00265729
0.00241777
0.00213107
0.00184307
0.00158465
0.00137151
0.00120703
0.0010863
0.00100076
0.000941641
0.000901333
0.000873484
0.000853011
0.000836174
0.000820567
0.000804931
0.000788847
0.000772419
0.000755987
0.000739945
0.000724626
0.000710261
0.00069698
0.00068483
0.000673808
0.000663881
0.000655007
0.000647149
0.00064028
0.00063439
0.000629483
0.000625581
0.000622717
0.000621105
0.000620526
0.000620948
0.000622853
0.000626187
0.000631042
0.000637526
0.00064576
0.000655876
0.000668011
0.000682314
0.000698942
0.000718066
0.000739872
0.000764568
0.000792393
0.000823641
0.000858676
0.000897982
0.000942215
0.000992284
0.00104946
0.0011155
0.00119279
0.00128438
0.00139385
0.00152472
0.00167912
0.00185559
0.00204627
0.00223443
0.00237466
0.00242585
0.00241931
0.00233061
0.00226257
0.00228056
0.00249561
0.00305104
0.00329901
0.0023926
0.000404701
0.000512085
0.00200752
0.00255342
0.00274789
0.00275906
0.00261178
0.00236141
0.00206607
0.00177437
0.00151817
0.00131177
0.00115606
0.00104412
0.00096629
0.000913318
0.000877381
0.00085216
0.000832839
0.000816097
0.000799986
0.000783636
0.000766906
0.000750047
0.000733444
0.000717464
0.000702376
0.000688337
0.00067541
0.000663592
0.000652843
0.00064311
0.000634343
0.000626503
0.000619567
0.000613531
0.000608408
0.000604226
0.000601028
0.000598988
0.000598126
0.000598087
0.000599486
0.000602315
0.000606651
0.000612606
0.000620303
0.00062988
0.000641481
0.000655259
0.000671377
0.000690008
0.000711338
0.000735569
0.00076293
0.000793682
0.00082815
0.000866747
0.000910028
0.000958765
0.00101405
0.00107743
0.00115108
0.00123796
0.00134183
0.00146696
0.00161712
0.00179358
0.0019919
0.00219828
0.00238678
0.00248674
0.00250369
0.0024408
0.0023137
0.00227338
0.00239048
0.00284306
0.00319859
0.00269378
0.000465839
0.000505867
0.00200018
0.00252673
0.0027115
0.0027164
0.00256162
0.00230426
0.00200382
0.00171101
0.00145839
0.001259
0.00111162
0.00100765
0.000936561
0.000888733
0.000856237
0.000832894
0.00081422
0.000797327
0.00078068
0.000763734
0.00074655
0.000729461
0.000712856
0.000697052
0.000682249
0.000668538
0.000655927
0.000644375
0.000633819
0.000624197
0.000615456
0.00060756
0.000600495
0.000594264
0.000588888
0.000584405
0.000580871
0.000578358
0.000577082
0.000576731
0.000577592
0.000579904
0.000583713
0.000589128
0.000596276
0.000605297
0.000616341
0.000629568
0.000645148
0.000663259
0.000684092
0.000707851
0.000734757
0.000765059
0.000799051
0.000837095
0.000879667
0.000927419
0.000981283
0.0010426
0.00111331
0.00119615
0.00129485
0.00141405
0.00155873
0.00173257
0.00193494
0.00215675
0.00237653
0.00253047
0.00257815
0.00254991
0.00240549
0.00230654
0.0023385
0.00268339
0.00309025
0.00291323
0.000510806
0.000496333
0.00198447
0.00249219
0.0026678
0.00266767
0.00250841
0.00224752
0.00194506
0.00165319
0.00140505
0.00121263
0.00107296
0.000976113
0.00091085
0.000867271
0.000837446
0.00081541
0.000797046
0.000779879
0.000762736
0.000745327
0.00072785
0.000710679
0.000694176
0.0006786
0.000664087
0.000650671
0.000638319
0.000626963
0.000616528
0.000606948
0.000598172
0.000590172
0.000582939
0.000576485
0.000570839
0.000566043
0.000562155
0.000559239
0.000557504
0.000556853
0.000557204
0.000559005
0.000562291
0.000567167
0.000573761
0.000582215
0.000592686
0.000605339
0.000620351
0.000637909
0.000658212
0.00068147
0.000707905
0.000737763
0.000771318
0.0008089
0.000850923
0.000897946
0.000950757
0.0010105
0.00107888
0.00115837
0.00125249
0.00136594
0.00150438
0.0016732
0.00187481
0.00210414
0.00234361
0.00255059
0.0026436
0.00264764
0.00252353
0.00235187
0.00231896
0.00252983
0.00298701
0.00301341
0.000529846
0.000483945
0.0019625
0.00245117
0.00261893
0.00261439
0.00245348
0.0021921
0.00189023
0.00160094
0.00135782
0.0011721
0.00103945
0.000948863
0.000888564
0.000848458
0.000820683
0.000799535
0.000781267
0.000763782
0.000746212
0.000728461
0.000710815
0.000693658
0.00067731
0.000661973
0.000647724
0.000634554
0.000622398
0.000611174
0.0006008
0.00059121
0.000582359
0.000574226
0.000566809
0.000560127
0.000554213
0.000549114
0.00054489
0.000541609
0.000539422
0.000538446
0.000538365
0.000539667
0.000542444
0.000546791
0.000552835
0.00056072
0.000570606
0.000582666
0.000597083
0.000614054
0.000633788
0.000656505
0.000682435
0.000711825
0.000744947
0.000782107
0.000823678
0.000870144
0.000922178
0.000980758
0.00104735
0.00112413
0.00121436
0.0013226
0.00145482
0.00161771
0.00181644
0.00205029
0.00230651
0.0025545
0.00270294
0.00273522
0.00265035
0.00242667
0.00232019
0.00242008
0.0028903
0.00304097
0.000532785
0.000469336
0.00193629
0.00240543
0.00256604
0.00255812
0.00239788
0.00213866
0.0018396
0.00155416
0.00131631
0.00113685
0.00101048
0.000925339
0.000869226
0.000831932
0.000805715
0.000785153
0.000766855
0.000749054
0.000731132
0.000713138
0.00069541
0.000678318
0.000662141
0.000647023
0.000632998
0.000620019
0.000608003
0.000596857
0.000586499
0.000576866
0.00056792
0.000559644
0.000552043
0.000545142
0.000538977
0.0005336
0.000529072
0.000525464
0.000522861
0.000521486
0.000521102
0.000521926
0.000524215
0.000528051
0.000533556
0.000540876
0.000550174
0.000561627
0.000575426
0.000591779
0.000610905
0.000633036
0.000658415
0.0006873
0.000719963
0.000756705
0.000797871
0.000843891
0.000895344
0.000953062
0.0010183
0.00109296
0.00117997
0.00128361
0.00140985
0.0015661
0.00175957
0.00199339
0.00226017
0.00253536
0.00274371
0.00281138
0.00276471
0.00254537
0.00236485
0.00236862
0.00274598
0.00301739
0.000523521
0.000453173
0.00190747
0.00235647
0.00251035
0.00250014
0.00234251
0.00208766
0.00179325
0.00151261
0.00128012
0.00110642
0.000985547
0.00090507
0.000852446
0.00081741
0.000792369
0.000772183
0.000753784
0.000735693
0.000717488
0.000699324
0.000681566
0.000664561
0.000648543
0.000633612
0.000619762
0.000606924
0.000594999
0.000583892
0.00057352
0.000563826
0.000554776
0.000546361
0.00053859
0.00053149
0.000525102
0.000519477
0.000514676
0.000510768
0.000507828
0.000506057
0.000505399
0.000505793
0.000507625
0.000510973
0.000515957
0.000522724
0.000531436
0.000542276
0.000555442
0.00057115
0.000589631
0.000611132
0.000635913
0.000664243
0.000696408
0.000732708
0.000773479
0.000819113
0.000870117
0.000927205
0.00099144
0.00106447
0.00114888
0.00124861
0.00136944
0.00151909
0.00170629
0.00193743
0.00220978
0.00250304
0.00276362
0.00288006
0.00287394
0.0026731
0.00240742
0.00235068
0.00262905
0.00296232
0.000508747
0.000435925
0.00187678
0.00230547
0.00245298
0.00244146
0.00228804
0.0020394
0.00175118
0.00147607
0.00124887
0.00108035
0.000964214
0.000887662
0.00083791
0.000804671
0.00078051
0.000760555
0.000742024
0.000723676
0.000705247
0.000686962
0.000669198
0.000652278
0.000636394
0.000621609
0.000607889
0.000595146
0.000583275
0.000572178
0.000561775
0.000552014
0.000542866
0.000534325
0.000526405
0.000519135
0.000512556
0.000506719
0.000501684
0.000497518