/*--------------------------------*- C++ -*----------------------------------*\
  =========                 |
  \\      /  F ield         | OpenFOAM: The Open Source CFD Toolbox
   \\    /   O peration     | Website:  https://openfoam.org
    \\  /    A nd           | Version:  13
     \\/     M anipulation  |
\*---------------------------------------------------------------------------*/
FoamFile
{
    format      ascii;
    class       volScalarField;
    location    "4.9";
    object      p;
}
// * * * * * * * * * * * * * * * * * * * * * * * * * * * * * * * * * * * * * //

dimensions      [0 2 -2 0 0 0 0];

internalField   nonuniform List<scalar> 
6400
(
1.21513e-08
1.77875e-05
2.56216e-05
1.1915e-05
-2.81917e-05
-9.04316e-05
-0.000166236
-0.000247455
-0.000328275
-0.000405885
-0.000480701
-0.000556205
-0.000636695
-0.000726845
-0.000831266
-0.000953723
-0.00109707
-0.00126311
-0.0014531
-0.00166792
-0.00190812
-0.00217443
-0.00246908
-0.00279586
-0.00316032
-0.00356742
-0.00401517
-0.00449597
-0.00499476
-0.0054815
-0.00594284
-0.00638123
-0.00679616
-0.00718451
-0.00754199
-0.0078619
-0.00813517
-0.00835086
-0.008497
-0.00856142
-0.00853211
-0.0083979
-0.00814941
-0.00778053
-0.00728908
-0.00667426
-0.00592618
-0.00503741
-0.00403178
-0.00292465
-0.00172372
-0.00045036
0.000872911
0.00221599
0.00354487
0.00481743
0.00598929
0.0070183
0.00786367
0.00848929
0.00887026
0.00899615
0.00887233
0.00851954
0.00797576
0.00729741
0.00654821
0.0057896
0.00508097
0.00445885
0.00395644
0.00359919
0.00336209
0.0032172
0.00314866
0.00313232
0.00314815
0.00318013
0.00321703
0.00324369
-1.34998e-05
4.65298e-06
8.57397e-06
-9.477e-06
-5.21105e-05
-0.000114347
-0.000186825
-0.000261817
-0.000334754
-0.000404332
-0.000471967
-0.000541141
-0.000616341
-0.000701751
-0.000800885
-0.00091695
-0.00105316
-0.00121201
-0.00139442
-0.00160093
-0.00183101
-0.00208434
-0.00236304
-0.00267002
-0.00300782
-0.00338162
-0.00379898
-0.004261
-0.00475838
-0.00527217
-0.00577641
-0.00625604
-0.00670926
-0.00713378
-0.00752467
-0.00787498
-0.00817555
-0.00841583
-0.00858439
-0.00866989
-0.00866143
-0.00854889
-0.00832397
-0.00798045
-0.00751419
-0.00692187
-0.00620125
-0.00535785
-0.00439949
-0.00333015
-0.00217002
-0.000936525
0.000345749
0.00164803
0.00293572
0.00417072
0.0053127
0.00631984
0.00715344
0.00778003
0.00817451
0.00832593
0.0082389
0.00793517
0.00745266
0.00682804
0.00614491
0.00544811
0.00479468
0.00422994
0.00378462
0.00346361
0.00326273
0.0031596
0.00313028
0.00315068
0.00318893
0.00322563
0.00325733
0.00328287
-2.76902e-05
-7.41592e-06
-8.28622e-06
-3.42568e-05
-8.39632e-05
-0.000148692
-0.000218174
-0.000284841
-0.000345837
-0.000402559
-0.000458046
-0.000516601
-0.000582838
-0.000660306
-0.000751315
-0.000857562
-0.00098053
-0.00112233
-0.00128516
-0.00147142
-0.00168422
-0.00192672
-0.00220243
-0.0025157
-0.00287068
-0.00326969
-0.00371376
-0.00420072
-0.00472258
-0.00526503
-0.00580974
-0.00634032
-0.0068456
-0.00731822
-0.00775174
-0.00813859
-0.00846989
-0.00873616
-0.00892735
-0.00903321
-0.00904414
-0.00895155
-0.00874816
-0.00842838
-0.00798872
-0.00742691
-0.00673917
-0.00592992
-0.0050092
-0.00398278
-0.00286521
-0.00167403
-0.000432099
0.000833227
0.00208988
0.00330219
0.00443094
0.00543481
0.00627623
0.00692276
0.00734952
0.00754344
0.00750801
0.00726298
0.00684276
0.0062928
0.00567307
0.00504005
0.0044463
0.00393409
0.00352822
0.00325266
0.0030984
0.00304185
0.00305012
0.00310077
0.00316513
0.0032215
0.00326804
0.00330436
-3.50661e-05
-1.51468e-05
-2.25631e-05
-5.84715e-05
-0.000117417
-0.000185446
-0.000252072
-0.00031117
-0.00036119
-0.000403665
-0.00044402
-0.000488201
-0.000541222
-0.000606594
-0.000686174
-0.000780765
-0.000891518
-0.00102085
-0.00117222
-0.00135052
-0.00156187
-0.001813
-0.00211129
-0.00245975
-0.00286067
-0.00331569
-0.00382234
-0.00437266
-0.00495345
-0.00554932
-0.00614466
-0.00672502
-0.00727745
-0.0077923
-0.00826175
-0.00867757
-0.00903182
-0.00931613
-0.0095215
-0.00963906
-0.00966072
-0.00957922
-0.00938818
-0.00908263
-0.00865945
-0.00811682
-0.0074539
-0.00667348
-0.00578157
-0.00478494
-0.00369582
-0.00253095
-0.00131174
-6.33838e-05
0.00118477
0.00239878
0.00353971
0.00456742
0.00544369
0.0061347
0.00661459
0.00686712
0.00689229
0.006708
0.00634677
0.00585283
0.00528182
0.00469245
0.00413302
0.00365388
0.00327782
0.00302226
0.00288425
0.00285034
0.002896
0.00298065
0.00307523
0.00316082
0.00323064
0.00327881
-2.9513e-05
-1.54693e-05
-3.19169e-05
-7.827e-05
-0.000146197
-0.000217316
-0.000281083
-0.000332564
-0.000371602
-0.000401575
-0.000428799
-0.000460074
-0.000500826
-0.000554531
-0.000623252
-0.000708741
-0.000813724
-0.000943005
-0.00110273
-0.00130026
-0.00154492
-0.00184172
-0.00219537
-0.00261038
-0.00308727
-0.00362201
-0.00420579
-0.00482631
-0.00546816
-0.00611578
-0.0067544
-0.00737177
-0.00795717
-0.00850067
-0.00899367
-0.00942814
-0.00979678
-0.0100919
-0.0103054
-0.0104294
-0.0104579
-0.0103849
-0.0102048
-0.00991305
-0.0095066
-0.00898479
-0.008347
-0.00759489
-0.00673218
-0.00576429
-0.00470211
-0.00356115
-0.00236159
-0.00112537
0.000122105
0.00134864
0.00251466
0.0035813
0.00451155
0.00526947
0.00582656
0.00616395
0.00627527
0.00617225
0.00588579
0.00545908
0.00494493
0.00439896
0.00387479
0.00341892
0.00306116
0.00281767
0.00268933
0.00266321
0.00271729
0.00281957
0.00293714
0.00304806
0.00313885
0.0031954
-3.19561e-06
-9.64861e-07
-2.8637e-05
-8.73516e-05
-0.000163243
-0.000235885
-0.000296411
-0.000341258
-0.000371096
-0.000391232
-0.00040892
-0.000431445
-0.000464399
-0.000511789
-0.000576994
-0.000664002
-0.000778689
-0.000928587
-0.00112328
-0.00137067
-0.00167722
-0.00204957
-0.00249054
-0.00299848
-0.00356614
-0.0041834
-0.00483838
-0.0055188
-0.00621097
-0.00690067
-0.00757449
-0.00822082
-0.00882986
-0.00939274
-0.00990131
-0.0103478
-0.0107254
-0.0110273
-0.0112461
-0.0113749
-0.0114107
-0.0113481
-0.0111827
-0.0109106
-0.0105291
-0.0100369
-0.00943291
-0.00871836
-0.00789583
-0.00696984
-0.00594787
-0.00484217
-0.00367116
-0.00245207
-0.00120656
3.22301e-05
0.00122548
0.00233864
0.00333701
0.0041805
0.00483834
0.00528911
0.00552054
0.00553657
0.00535916
0.00503032
0.00460073
0.00412288
0.00364976
0.00322886
0.00289388
0.00266324
0.00254011
0.00251438
0.00256613
0.00266812
0.00279068
0.00290942
0.00300808
0.003067
5.31621e-05
3.9821e-05
-2.1347e-06
-7.62235e-05
-0.000157464
-0.000230783
-0.000288566
-0.000328485
-0.000353009
-0.000368511
-0.000382895
-0.000403688
-0.000437106
-0.000488632
-0.000564083
-0.000670438
-0.000816938
-0.00101436
-0.00127062
-0.00159433
-0.00199126
-0.002464
-0.00300629
-0.00360821
-0.00426035
-0.00495212
-0.00567072
-0.00640356
-0.0071381
-0.00786189
-0.00856321
-0.00923157
-0.00985793
-0.0104342
-0.0109526
-0.011405
-0.011786
-0.0120897
-0.0123107
-0.0124476
-0.0124949
-0.0124477
-0.012302
-0.0120553
-0.0117055
-0.0112493
-0.0106861
-0.0100168
-0.00924365
-0.00837219
-0.00740928
-0.00636291
-0.00524062
-0.00405878
-0.00284001
-0.00160995
-0.00039655
0.000768534
0.0018449
0.00278815
0.00356953
0.00416247
0.00454789
0.00472443
0.00470265
0.00451415
0.00420741
0.00383202
0.00343856
0.00307461
0.00277661
0.00256594
0.00244916
0.00241996
0.00246225
0.00255205
0.00266377
0.00277352
0.00286488
0.00291774
0.000148686
0.000116855
5.58675e-05
-3.1637e-05
-0.000118074
-0.00019268
-0.000249509
-0.000288176
-0.000312855
-0.000330866
-0.000350592
-0.000379989
-0.000426505
-0.000497999
-0.000602953
-0.000751781
-0.000956254
-0.00122649
-0.00157072
-0.00199587
-0.00249984
-0.00307558
-0.00371412
-0.00440438
-0.00513456
-0.00589254
-0.00666601
-0.00744323
-0.00821266
-0.00896331
-0.00968501
-0.0103685
-0.0110052
-0.0115867
-0.012106
-0.0125582
-0.0129398
-0.0132462
-0.0134748
-0.0136233
-0.0136835
-0.0136524
-0.0135266
-0.013304
-0.0129834
-0.0125636
-0.012044
-0.0114253
-0.0107102
-0.00990329
-0.00901017
-0.00803503
-0.00698092
-0.00586136
-0.0046948
-0.00349911
-0.00229341
-0.00110776
2.22082e-05
0.00106635
0.00198892
0.00274475
0.00331465
0.00368865
0.00386831
0.00386785
0.00372802
0.00349501
0.00321595
0.0029369
0.00269643
0.00251909
0.00241532
0.00238288
0.00241088
0.00248043
0.00257023
0.00265924
0.0027292
0.00276696
0.000288388
0.000237826
0.000154336
5.44023e-05
-3.82051e-05
-0.000115547
-0.000174617
-0.000217224
-0.000249227
-0.000278885
-0.000315088
-0.000366635
-0.000442839
-0.000553979
-0.000711674
-0.000927947
-0.00121531
-0.00158332
-0.00203592
-0.00257071
-0.00318117
-0.00385695
-0.0045862
-0.00535601
-0.00615424
-0.0069687
-0.00778797
-0.00860111
-0.00939759
-0.0101676
-0.0109021
-0.0115926
-0.0122306
-0.0128099
-0.0133275
-0.0137818
-0.0141681
-0.0144805
-0.0147152
-0.0148668
-0.0149338
-0.0149141
-0.0148059
-0.0146078
-0.0143186
-0.0139377
-0.0134651
-0.012901
-0.0122469
-0.0115048
-0.0106776
-0.00976906
-0.00878755
-0.00774223
-0.00664568
-0.00551054
-0.00434744
-0.00317589
-0.00202161
-0.000908417
0.000121141
0.00103729
0.00181085
0.00240749
0.00282276
0.00305479
0.00312785
0.00307948
0.00295221
0.00278918
0.00263002
0.00250322
0.00242359
0.00239397
0.00240668
0.00245106
0.00251078
0.00257045
0.00260992
0.00262891
0.000478417
0.000407374
0.00029879
0.000185331
8.46546e-05
1.92965e-06
-6.37467e-05
-0.000116854
-0.000164981
-0.000217304
-0.000283395
-0.000373262
-0.000498322
-0.00067143
-0.000905325
-0.00121282
-0.00160514
-0.00208592
-0.00265217
-0.00329744
-0.00401102
-0.00477924
-0.00558943
-0.00642858
-0.00728475
-0.00814622
-0.00900228
-0.00984272
-0.010658
-0.0114394
-0.0121789
-0.0128694
-0.0135057
-0.014084
-0.0145999
-0.0150488
-0.0154261
-0.01573
-0.0159588
-0.0161095
-0.0161805
-0.0161706
-0.0160786
-0.0159039
-0.0156454
-0.0153028
-0.0148763
-0.0143665
-0.0137743
-0.0131012
-0.0123485
-0.0115189
-0.0106173
-0.00964916
-0.00862117
-0.0075417
-0.00642543
-0.00529076
-0.00415211
-0.00302188
-0.00192359
-0.00088208
6.1925e-05
0.000884894
0.00154934
0.00204281
0.00236999
0.00255026
0.00261458
0.00260184
0.00254988
0.00249221
0.00244938
0.00242979
0.00243132
0.00245069
0.00247753
0.00250101
0.00250812
0.00250899
0.000721706
0.000624248
0.000490556
0.000358699
0.00024781
0.000156069
7.82252e-05
6.74371e-06
-6.77429e-05
-0.000155348
-0.000266426
-0.000412596
-0.000607193
-0.000863989
-0.00119561
-0.00161328
-0.00212232
-0.00272083
-0.00340123
-0.00415219
-0.00496016
-0.00581116
-0.00669212
-0.00759037
-0.00849429
-0.00939277
-0.0102758
-0.011134
-0.0119589
-0.012743
-0.0134797
-0.0141634
-0.0147901
-0.0153559
-0.0158578
-0.0162924
-0.0166571
-0.0169507
-0.0171721
-0.0173197
-0.0173927
-0.01739
-0.0173112
-0.0171562
-0.0169242
-0.0166155
-0.0162304
-0.0157696
-0.015234
-0.0146246
-0.0139429
-0.0131907
-0.0123707
-0.0114861
-0.0105403
-0.0095374
-0.00848469
-0.00739132
-0.00626917
-0.00513956
-0.00401731
-0.00291121
-0.00184249
-0.000841556
5.19401e-05
0.000814755
0.00141989
0.00186715
0.00216494
0.00234093
0.00242763
0.00245965
0.00246694
0.0024665
0.00246518
0.00245993
0.00245366
0.00243978
0.00241712
0.00240221
0.00100754
0.000883962
0.000719026
0.000566216
0.000442476
0.000337683
0.000241203
0.000142444
3.0327e-05
-0.000106071
-0.000278198
-0.000498901
-0.000782341
-0.00114162
-0.00158729
-0.00212568
-0.00275641
-0.00347195
-0.00426046
-0.00510834
-0.0060008
-0.00692403
-0.00786494
-0.00881125
-0.00975177
-0.0106761
-0.011575
-0.0124402
-0.0132645
-0.0140417
-0.0147666
-0.0154352
-0.0160444
-0.0165914
-0.0170743
-0.0174912
-0.0178406
-0.0181218
-0.0183341
-0.0184767
-0.0185492
-0.0185513
-0.0184829
-0.018344
-0.0181347
-0.0178552
-0.0175063
-0.0170886
-0.016603
-0.0160506
-0.0154325
-0.01475
-0.0140049
-0.0131989
-0.0123338
-0.0114118
-0.0104358
-0.00940896
-0.00833593
-0.00722493
-0.00608729
-0.00494335
-0.00380685
-0.00268933
-0.00161504
-0.000617998
0.000261459
0.000993449
0.00156085
0.00196609
0.00223023
0.00238089
0.00245386
0.00248059
0.00247819
0.00245539
0.00242022
0.00237377
0.00232686
0.00229862
0.00132334
0.00117248
0.000972292
0.000795986
0.000656021
0.000533007
0.000410602
0.000275047
0.000113711
-8.51479e-05
-0.000333546
-0.000645235
-0.00103351
-0.00150896
-0.00207808
-0.00274137
-0.00349227
-0.00431866
-0.00520654
-0.00614095
-0.00710696
-0.0080909
-0.00907991
-0.0100622
-0.0110273
-0.0119656
-0.0128691
-0.0137308
-0.014545
-0.015307
-0.0160131
-0.0166605
-0.0172474
-0.0177722
-0.0182336
-0.0186308
-0.0189632
-0.0192305
-0.0194324
-0.0195688
-0.0196395
-0.0196445
-0.0195842
-0.0194588
-0.0192686
-0.0190143
-0.0186965
-0.0183161
-0.017874
-0.0173713
-0.0168089
-0.0161879
-0.0155094
-0.0147742
-0.013983
-0.0131366
-0.0122354
-0.0112802
-0.0102717
-0.00921125
-0.00810121
-0.00694807
-0.00576389
-0.00457183
-0.00337948
-0.0022065
-0.00109172
-8.91472e-05
0.000763061
0.00143323
0.00191614
0.00222602
0.00239157
0.00245709
0.00245942
0.00242178
0.00236226
0.00228977
0.00222556
0.00218917
0.00165342
0.00147267
0.00123477
0.00103142
0.000871397
0.000724547
0.000568626
0.000386813
0.000165137
-0.00010832
-0.000446579
-0.000862663
-0.00136717
-0.00196687
-0.0026624
-0.00344818
-0.0043126
-0.00524078
-0.00621732
-0.00722669
-0.00825417
-0.00928632
-0.0103108
-0.0113165
-0.012294
-0.013235
-0.0141329
-0.0149821
-0.0157786
-0.0165192
-0.0172016
-0.0178244
-0.0183865
-0.0188873
-0.0193263
-0.0197034
-0.0200186
-0.0202718
-0.0204632
-0.020593
-0.0206613
-0.0206683
-0.0206146
-0.0205004
-0.0203266
-0.0200936
-0.0198024
-0.0194539
-0.0190491
-0.0185889
-0.0180744
-0.0175065
-0.0168858
-0.0162128
-0.0154874
-0.0147094
-0.0138777
-0.0129911
-0.0120481
-0.0110466
-0.00998514
-0.00886295
-0.00768173
-0.00644814
-0.00517494
-0.00388648
-0.00260195
-0.00137052
-0.000249093
0.000703151
0.00144173
0.00195451
0.00225511
0.00238408
0.00240105
0.00235194
0.0022711
0.00217774
0.00210246
0.00206099
0.00197576
0.00176375
0.00148543
0.00125297
0.00106905
0.000892699
0.000695829
0.000459033
0.000167663
-0.000191123
-0.000630209
-0.00115989
-0.00178717
-0.00251273
-0.00333141
-0.00423241
-0.00520051
-0.00621916
-0.00727214
-0.0083438
-0.00941977
-0.0104871
-0.0115342
-0.0125513
-0.0135301
-0.0144639
-0.0153478
-0.0161778
-0.0169513
-0.0176667
-0.0183229
-0.0189194
-0.019456
-0.0199328
-0.0203499
-0.0207077
-0.0210065
-0.0212465
-0.0214281
-0.0215517
-0.0216177
-0.0216263
-0.0215781
-0.0214738
-0.0213138
-0.0210992
-0.0208307
-0.0205093
-0.020136
-0.0197119
-0.019238
-0.018715
-0.0181436
-0.0175239
-0.0168556
-0.0161377
-0.0153685
-0.0145456
-0.0136655
-0.0127243
-0.0117175
-0.0106408
-0.00949057
-0.00826499
-0.00696598
-0.00560583
-0.00421149
-0.0028116
-0.00146465
-0.00024423
0.00077082
0.00152597
0.00200932
0.00224462
0.00229704
0.00224517
0.00214481
0.00203297
0.0019496
0.00190259
0.00226621
0.00202298
0.00170352
0.00144007
0.00122846
0.00101678
0.00077214
0.000473418
0.000104658
-0.000348208
-0.000895036
-0.00154287
-0.00229294
-0.00314017
-0.00407423
-0.00507992
-0.00613964
-0.00723586
-0.00835197
-0.00947251
-0.0105837
-0.0116733
-0.0127312
-0.0137487
-0.0147194
-0.0156383
-0.016502
-0.0173083
-0.0180559
-0.0187443
-0.0193735
-0.0199438
-0.0204557
-0.0209097
-0.0213065
-0.0216466
-0.0219305
-0.0221588
-0.0223318
-0.0224501
-0.0225142
-0.0225244
-0.0224813
-0.0223856
-0.0222378
-0.022039
-0.0217898
-0.0214915
-0.0211449
-0.0207511
-0.0203112
-0.0198259
-0.0192958
-0.0187209
-0.018101
-0.0174348
-0.0167202
-0.0159541
-0.0151324
-0.0142497
-0.0132996
-0.0122752
-0.0111693
-0.00997527
-0.0086897
-0.00731412
-0.00585989
-0.00435363
-0.00284209
-0.00139787
-0.000115481
0.000909769
0.00161905
0.00201263
0.00214034
0.00210034
0.00198557
0.00185621
0.0017623
0.00170604
0.00250413
0.00222779
0.00186801
0.00157225
0.00132904
0.00107687
0.000779662
0.000414044
-3.89121e-05
-0.000590611
-0.00124748
-0.00201217
-0.00287989
-0.00384055
-0.00487893
-0.00597658
-0.00711439
-0.0082743
-0.00943968
-0.0105956
-0.0117291
-0.0128292
-0.0138871
-0.0148962
-0.0158516
-0.01675
-0.0175897
-0.0183698
-0.0190903
-0.0197516
-0.0203545
-0.0208999
-0.0213888
-0.021822
-0.0222005
-0.0225249
-0.022796
-0.0230142
-0.0231801
-0.0232943
-0.0233572
-0.0233692
-0.023331
-0.023243
-0.0231061
-0.022921
-0.0226885
-0.0224098
-0.0220858
-0.0217175
-0.021306
-0.020852
-0.0203562
-0.0198187
-0.0192391
-0.0186163
-0.0179482
-0.0172316
-0.016462
-0.0156333
-0.0147384
-0.0137687
-0.0127146
-0.0115662
-0.0103153
-0.00895716
-0.00749299
-0.00593672
-0.00432375
-0.00271658
-0.00120859
8.65242e-05
0.00106046
0.00165959
0.00191183
0.00191499
0.00179647
0.00164873
0.00153612
0.00146564
0.00266149
0.00235693
0.00195931
0.00163063
0.00135265
0.00105685
0.000703851
0.000266493
-0.000273067
-0.00092349
-0.00168852
-0.00256424
-0.00354103
-0.00460374
-0.00573317
-0.00690863
-0.00811016
-0.00931952
-0.0105204
-0.0116987
-0.0128427
-0.0139429
-0.0149923
-0.015986
-0.0169209
-0.0177954
-0.018609
-0.0193622
-0.0200559
-0.0206912
-0.0212694
-0.021792
-0.0222602
-0.022675
-0.0230375
-0.0233485
-0.0236087
-0.0238187
-0.0239791
-0.0240903
-0.0241527
-0.0241669
-0.0241334
-0.0240527
-0.0239254
-0.0237524
-0.0235346
-0.0232727
-0.0229679
-0.022621
-0.0222332
-0.0218053
-0.0213378
-0.0208311
-0.0202848
-0.0196981
-0.019069
-0.0183945
-0.0176701
-0.0168898
-0.0160461
-0.0151297
-0.0141299
-0.0130348
-0.0118327
-0.0105138
-0.00907232
-0.00751144
-0.00585201
-0.00414344
-0.00246976
-0.000940884
0.000306759
0.00115856
0.00159172
0.00168075
0.00157383
0.00140851
0.00126643
0.00117916
0.00272355
0.00239383
0.00196151
0.0016
0.00128553
0.000944625
0.000533336
2.28083e-05
-0.000602141
-0.00134846
-0.00221507
-0.00319301
-0.00426743
-0.00541866
-0.00662454
-0.007863
-0.00911367
-0.0103585
-0.0115819
-0.0127708
-0.013915
-0.0150068
-0.016041
-0.0170144
-0.0179256
-0.0187743
-0.0195614
-0.0202882
-0.0209563
-0.0215674
-0.0221232
-0.0226254
-0.0230753
-0.0234742
-0.0238231
-0.0241229
-0.0243743
-0.0245778
-0.0247339
-0.0248432
-0.024906
-0.0249227
-0.0248938
-0.0248199
-0.0247015
-0.0245393
-0.0243342
-0.024087
-0.0237987
-0.0234701
-0.0231022
-0.0226959
-0.0222519
-0.0217705
-0.0212517
-0.0206946
-0.0200978
-0.0194584
-0.0187726
-0.0180345
-0.0172369
-0.0163704
-0.0154237
-0.0143841
-0.0132379
-0.0119717
-0.010575
-0.00904223
-0.00738053
-0.00562274
-0.00384393
-0.00214081
-0.00064361
0.000485138
0.00114784
0.00137524
0.00131096
0.00113045
0.00094973
0.000845209
0.00267664
0.00232594
0.00186319
0.00147021
0.00111931
0.000731779
0.000261045
-0.000319829
-0.00102616
-0.00186228
-0.00282154
-0.00389025
-0.00504874
-0.00627371
-0.00754094
-0.00882756
-0.0101132
-0.0113803
-0.0126143
-0.0138036
-0.0149395
-0.0160163
-0.0170305
-0.0179805
-0.0188663
-0.0196889
-0.0204501
-0.0211518
-0.0217961
-0.0223852
-0.0229211
-0.0234054
-0.0238396
-0.0242249
-0.0245625
-0.0248531
-0.0250974
-0.0252959
-0.0254491
-0.0255573
-0.025621
-0.0256405
-0.0256163
-0.0255488
-0.0254386
-0.0252862
-0.0250925
-0.0248581
-0.024584
-0.0242711
-0.0239202
-0.0235321
-0.0231077
-0.0226473
-0.0221509
-0.0216182
-0.0210479
-0.0204377
-0.0197841
-0.0190822
-0.018325
-0.0175037
-0.0166072
-0.0156224
-0.0145345
-0.0133281
-0.0119891
-0.0105065
-0.00887641
-0.00711282
-0.0052742
-0.00346037
-0.00176999
-0.000375857
0.00055609
0.000977646
0.000992944
0.000805592
0.000583505
0.00046386
0.00251253
0.00214583
0.00165793
0.00123585
0.000848699
0.000414915
-0.000112446
-0.000759864
-0.0015419
-0.00245873
-0.00349953
-0.00464578
-0.0058737
-0.00715723
-0.00847084
-0.00979135
-0.0110987
-0.0123762
-0.0136105
-0.0147916
-0.0159127
-0.0169696
-0.0179606
-0.0188855
-0.0197455
-0.0205426
-0.021279
-0.0219574
-0.0225803
-0.0231498
-0.0236681
-0.0241369
-0.0245577
-0.0249317
-0.0252599
-0.0255431
-0.0257818
-0.0259766
-0.0261278
-0.0262358
-0.0263009
-0.0263235
-0.0263039
-0.0262425
-0.0261398
-0.0259964
-0.0258128
-0.0255899
-0.0253283
-0.025029
-0.0246926
-0.0243202
-0.0239122
-0.0234693
-0.0229917
-0.022479
-0.0219305
-0.0213444
-0.0207177
-0.0200462
-0.0193239
-0.0185426
-0.0176919
-0.016759
-0.0157288
-0.0145847
-0.0133102
-0.0118909
-0.0103157
-0.00858332
-0.00672429
-0.00484632
-0.00302644
-0.00141051
-0.000204863
0.000455085
0.000599292
0.000427364
0.000170439
3.55542e-05
0.00222877
0.00185146
0.00134433
0.00089623
0.000474129
-3.89912e-06
-0.000583641
-0.00129171
-0.00214131
-0.00312858
-0.00423846
-0.00544817
-0.00673063
-0.00805786
-0.00940358
-0.0107447
-0.0120619
-0.0133394
-0.0145654
-0.0157316
-0.0168329
-0.0178667
-0.0188327
-0.0197319
-0.0205666
-0.0213392
-0.0220527
-0.0227099
-0.0233134
-0.0238656
-0.0243687
-0.0248242
-0.0252337
-0.0255982
-0.0259188
-0.026196
-0.0264305
-0.0266226
-0.0267727
-0.0268811
-0.0269479
-0.0269737
-0.0269586
-0.026903
-0.0268073
-0.0266721
-0.0264978
-0.0262851
-0.0260346
-0.0257473
-0.0254237
-0.0250646
-0.0246708
-0.0242428
-0.0237808
-0.023285
-0.0227546
-0.0221883
-0.021584
-0.0209381
-0.0202455
-0.019499
-0.0186891
-0.017804
-0.0168288
-0.0157467
-0.0145393
-0.0131898
-0.0116839
-0.0100098
-0.0081722
-0.00625156
-0.00436442
-0.00259018
-0.00113796
-0.000214521
0.000110772
-1.67622e-05
-0.000289198
-0.000442544
0.00182819
0.00144592
0.000925605
0.000454874
3.32461e-07
-0.000517783
-0.00114465
-0.00190672
-0.00281435
-0.00386058
-0.0050264
-0.00628538
-0.00760792
-0.0089648
-0.0103295
-0.0116794
-0.012996
-0.0142649
-0.0154758
-0.016622
-0.0177
-0.0187087
-0.019649
-0.0205229
-0.0213331
-0.0220829
-0.0227753
-0.0234133
-0.0239997
-0.0245368
-0.0250266
-0.0254709
-0.0258708
-0.0262275
-0.0265418
-0.0268143
-0.0270455
-0.0272358
-0.0273854
-0.0274945
-0.0275635
-0.0275924
-0.0275818
-0.0275317
-0.0274425
-0.0273148
-0.0271489
-0.0269455
-0.0267051
-0.0264283
-0.026116
-0.0257688
-0.0253873
-0.0249721
-0.0245236
-0.024042
-0.0235268
-0.0229773
-0.0223918
-0.0217674
-0.0210999
-0.0203834
-0.0196095
-0.0187674
-0.0178432
-0.0168203
-0.0156797
-0.0144025
-0.012972
-0.0113726
-0.00959313
-0.00765876
-0.00573744
-0.00386967
-0.00221905
-0.00103487
-0.000492043
-0.000535679
-0.000797839
-0.000977242
0.00131816
0.000936694
0.000408825
-8.03999e-05
-0.000563653
-0.00111716
-0.00178512
-0.00259304
-0.00354873
-0.00464212
-0.00585076
-0.00714531
-0.00849438
-0.00986809
-0.0112401
-0.0125885
-0.0138958
-0.0151491
-0.0163397
-0.0174623
-0.0185149
-0.0194976
-0.0204123
-0.0212616
-0.0220488
-0.0227774
-0.0234506
-0.0240714
-0.0246427
-0.0251666
-0.0256451
-0.0260796
-0.0264715
-0.0268217
-0.0271309
-0.0273997
-0.0276284
-0.0278174
-0.027967
-0.0280772
-0.0281484
-0.0281806
-0.0281741
-0.0281293
-0.0280463
-0.0279255
-0.0277673
-0.0275723
-0.027341
-0.0270739
-0.0267716
-0.0264349
-0.0260643
-0.0256605
-0.0252237
-0.0247544
-0.0242523
-0.0237171
-0.0231475
-0.0225414
-0.0218954
-0.0212047
-0.0204622
-0.0196583
-0.0187805
-0.017813
-0.016737
-0.015532
-0.014179
-0.0126607
-0.0109575
-0.00906619
-0.00711064
-0.00520639
-0.00342197
-0.00200935
-0.00122855
-0.00112979
-0.00136286
-0.00157989
0.000709946
0.000334928
-0.000194787
-0.000698067
-0.00120546
-0.00178927
-0.00249216
-0.00333755
-0.00433107
-0.00545993
-0.00669882
-0.00801621
-0.00937956
-0.0107588
-0.0121281
-0.0134664
-0.0147575
-0.0159899
-0.0171563
-0.018253
-0.0192791
-0.0202358
-0.0211254
-0.0219513
-0.022717
-0.0234261
-0.0240819
-0.0246875
-0.0252454
-0.0257577
-0.0262263
-0.0266527
-0.0270377
-0.0273825
-0.0276875
-0.0279533
-0.0281802
-0.0283684
-0.0285182
-0.0286297
-0.0287031
-0.0287385
-0.0287361
-0.0286962
-0.0286189
-0.0285045
-0.0283535
-0.0281663
-0.0279432
-0.0276849
-0.0273918
-0.0270646
-0.0267038
-0.0263101
-0.0258838
-0.0254253
-0.0249348
-0.024412
-0.0238561
-0.0232657
-0.0226383
-0.0219699
-0.0212547
-0.0204846
-0.0196484
-0.0187318
-0.0177167
-0.0165822
-0.015307
-0.0138724
-0.0122582
-0.0104475
-0.0084734
-0.00656079
-0.00471263
-0.00312509
-0.0021103
-0.00182492
-0.00200172
-0.0022673
1.90632e-05
-0.000345902
-0.000871524
-0.00138437
-0.00191176
-0.00252083
-0.00325165
-0.00412606
-0.00514745
-0.0063007
-0.00755825
-0.00888703
-0.0102539
-0.011629
-0.0129872
-0.0143085
-0.015578
-0.0167857
-0.0179256
-0.0189951
-0.0199944
-0.0209253
-0.0217909
-0.0225948
-0.0233405
-0.0240319
-0.0246721
-0.0252639
-0.02581
-0.0263122
-0.0267723
-0.0271915
-0.0275707
-0.0279109
-0.0282124
-0.0284758
-0.0287013
-0.0288891
-0.0290394
-0.0291523
-0.0292279
-0.0292664
-0.0292678
-0.0292325
-0.0291605
-0.0290521
-0.0289077
-0.0287276
-0.0285122
-0.0282619
-0.0279772
-0.0276587
-0.0273069
-0.0269224
-0.0265056
-0.0260569
-0.0255767
-0.025065
-0.0245213
-0.0239447
-0.0233334
-0.0226844
-0.0219932
-0.0212528
-0.0204538
-0.0195833
-0.0186246
-0.0175574
-0.0163589
-0.0150093
-0.0134897
-0.0117713
-0.00983653
-0.0079024
-0.00604953
-0.00435266
-0.0031329
-0.00264688
-0.00273278
-0.00306183
-0.000737411
-0.00109005
-0.00160699
-0.00212537
-0.00266825
-0.00329707
-0.00404896
-0.00494418
-0.00598405
-0.00715151
-0.00841738
-0.00974759
-0.0111089
-0.0124718
-0.0138123
-0.0151114
-0.0163555
-0.0175359
-0.0186478
-0.0196897
-0.0206624
-0.0215685
-0.0224113
-0.0231946
-0.023922
-0.0245971
-0.0252232
-0.0258028
-0.0263383
-0.0268317
-0.0272842
-0.0276972
-0.0280714
-0.0284076
-0.0287062
-0.0289676
-0.029192
-0.0293796
-0.0295306
-0.0296449
-0.0297227
-0.029764
-0.0297691
-0.0297381
-0.029671
-0.0295682
-0.0294299
-0.0292564
-0.029048
-0.0288051
-0.0285283
-0.0282178
-0.0278743
-0.0274983
-0.0270902
-0.0266506
-0.0261798
-0.0256781
-0.0251454
-0.0245811
-0.0239842
-0.0233524
-0.0226822
-0.0219682
-0.0212023
-0.0203734
-0.0194662
-0.0184617
-0.0173373
-0.0160711
-0.0146435
-0.0130265
-0.0111923
-0.00923176
-0.00739864
-0.00566589
-0.00429096
-0.00360295
-0.00357173
-0.00398394
-0.00154298
-0.00188112
-0.00238573
-0.00290568
-0.00345946
-0.00410257
-0.00486918
-0.00577767
-0.00682753
-0.00800023
-0.00926548
-0.0105888
-0.011937
-0.0132816
-0.0145992
-0.0158723
-0.0170884
-0.01824
-0.0193234
-0.0203379
-0.0212849
-0.0221673
-0.0229886
-0.0237527
-0.0244633
-0.0251237
-0.0257369
-0.0263056
-0.0268317
-0.0273171
-0.027763
-0.0281705
-0.0285404
-0.0288731
-0.0291693
-0.029429
-0.0296526
-0.0298401
-0.0299917
-0.0301074
-0.0301872
-0.0302314
-0.0302398
-0.0302128
-0.0301503
-0.0300527
-0.02992
-0.0297526
-0.0295507
-0.0293148
-0.0290451
-0.0287421
-0.0284064
-0.0280383
-0.0276384
-0.0272072
-0.0267452
-0.0262528
-0.0257301
-0.0251771
-0.024593
-0.0239766
-0.0233252
-0.0226347
-0.0218983
-0.0211067
-0.0202465
-0.0193001
-0.018246
-0.0170605
-0.0157238
-0.0142129
-0.0124941
-0.0105541
-0.00873496
-0.00702476
-0.00555879
-0.00468873
-0.00453794
-0.00503394
-0.00238084
-0.00270274
-0.00319188
-0.00370938
-0.00426973
-0.00492225
-0.00569786
-0.00661295
-0.00766541
-0.00883568
-0.0100929
-0.0114025
-0.0127319
-0.0140533
-0.0153445
-0.016589
-0.0177758
-0.0188981
-0.0199531
-0.0209408
-0.0218632
-0.0227232
-0.0235245
-0.0242709
-0.024966
-0.0256129
-0.0262146
-0.0267733
-0.027291
-0.0277693
-0.0282093
-0.0286119
-0.0289779
-0.0293077
-0.0296016
-0.0298599
-0.0300828
-0.0302703
-0.0304226
-0.0305396
-0.0306214
-0.0306681
-0.0306797
-0.0306563
-0.0305981
-0.0305052
-0.0303777
-0.030216
-0.0300202
-0.0297906
-0.0295277
-0.0292317
-0.0289032
-0.0285426
-0.0281503
-0.0277271
-0.0272734
-0.0267896
-0.0262764
-0.0257337
-0.0251615
-0.0245591
-0.0239246
-0.023255
-0.0225451
-0.021787
-0.0209693
-0.020076
-0.019087
-0.0179788
-0.0167307
-0.0153222
-0.0137161
-0.0118759
-0.010049
-0.00838282
-0.00688694
-0.0058802
-0.00563985
-0.00619195
-0.00323468
-0.00353854
-0.00400959
-0.00452141
-0.00508444
-0.00574194
-0.00652149
-0.00743745
-0.00848634
-0.00964785
-0.0108911
-0.0121817
-0.013488
-0.0147829
-0.0160454
-0.0172601
-0.0184169
-0.01951
-0.0205374
-0.0214995
-0.0223984
-0.0232375
-0.0240202
-0.0247503
-0.0254312
-0.0260659
-0.026657
-0.0272068
-0.0277169
-0.0281887
-0.0286234
-0.0290217
-0.0293842
-0.0297113
-0.0300033
-0.0302603
-0.0304826
-0.0306702
-0.0308231
-0.0309413
-0.0310249
-0.0310739
-0.0310884
-0.0310684
-0.0310141
-0.0309255
-0.0308029
-0.0306463
-0.0304562
-0.0302326
-0.0299759
-0.0296865
-0.0293648
-0.0290112
-0.0286262
-0.0282105
-0.0277646
-0.0272891
-0.0267847
-0.0262518
-0.0256905
-0.0251008
-0.0244817
-0.023831
-0.0231449
-0.022417
-0.0216376
-0.0207928
-0.019864
-0.0188289
-0.0176644
-0.0163505
-0.0148553
-0.0131489
-0.0113333
-0.00971981
-0.00823367
-0.00714162
-0.00685142
-0.00742026
-0.00408878
-0.00437303
-0.00482387
-0.00532744
-0.0058899
-0.00654854
-0.00732773
-0.00823982
-0.00928021
-0.0104278
-0.0116525
-0.0129205
-0.0142007
-0.0154671
-0.0166997
-0.0178841
-0.0190112
-0.020076
-0.0210768
-0.0220146
-0.0228916
-0.0237111
-0.0244767
-0.0251918
-0.0258597
-0.0264832
-0.0270648
-0.0276064
-0.0281096
-0.0285757
-0.0290056
-0.0293999
-0.0297592
-0.0300839
-0.0303741
-0.0306301
-0.0308518
-0.0310394
-0.0311929
-0.0313122
-0.0313975
-0.0314486
-0.0314657
-0.0314488
-0.031398
-0.0313134
-0.0311952
-0.0310434
-0.0308584
-0.0306403
-0.0303895
-0.0301062
-0.0297908
-0.0294439
-0.0290658
-0.0286573
-0.0282188
-0.0277512
-0.0272552
-0.0267314
-0.0261804
-0.0256026
-0.0249975
-0.024364
-0.0236993
-0.0229985
-0.0222537
-0.0214528
-0.0205794
-0.0196121
-0.0185274
-0.017306
-0.0159243
-0.0143497
-0.0125736
-0.0110015
-0.00956212
-0.00843344
-0.00810567
-0.00863223
-0.00492858
-0.0051921
-0.00562123
-0.00611444
-0.00667362
-0.00733021
-0.0081055
-0.00900987
-0.0100382
-0.0111683
-0.0123709
-0.0136138
-0.0148662
-0.0161031
-0.0173056
-0.0184601
-0.0195584
-0.020596
-0.0215717
-0.0224867
-0.0233433
-0.0241448
-0.0248946
-0.025596
-0.0262521
-0.0268655
-0.0274384
-0.0279726
-0.0284695
-0.0289303
-0.0293558
-0.0297465
-0.030103
-0.0304254
-0.0307141
-0.030969
-0.0311902
-0.0313778
-0.0315318
-0.0316521
-0.0317388
-0.0317918
-0.0318113
-0.0317972
-0.0317496
-0.0316686
-0.0315543
-0.0314069
-0.0312266
-0.0310136
-0.0307682
-0.0304906
-0.0301812
-0.0298405
-0.029469
-0.0290672
-0.0286359
-0.0281757
-0.0276877
-0.0271726
-0.0266313
-0.0260644
-0.0254722
-0.0248544
-0.024209
-0.0235327
-0.0228189
-0.0220577
-0.0212343
-0.020329
-0.0193194
-0.0181861
-0.0169099
-0.0154539
-0.0137842
-0.0122271
-0.0108352
-0.00970609
-0.00932712
-0.00973605
-0.00574022
-0.005983
-0.00638956
-0.00687078
-0.0074245
-0.00807652
-0.00884524
-0.00973912
-0.0107522
-0.0118626
-0.013041
-0.0142574
-0.0154814
-0.0166888
-0.0178616
-0.0189873
-0.020058
-0.02107
-0.0220223
-0.0229162
-0.023754
-0.024539
-0.0252744
-0.0259634