/*--------------------------------*- C++ -*----------------------------------*\
  =========                 |
  \\      /  F ield         | OpenFOAM: The Open Source CFD Toolbox
   \\    /   O peration     | Website:  https://openfoam.org
    \\  /    A nd           | Version:  13
     \\/     M anipulation  |
\*---------------------------------------------------------------------------*/
FoamFile
{
    format      ascii;
    class       surfaceScalarField;
    location    "4.9";
    object      phi;
}
// * * * * * * * * * * * * * * * * * * * * * * * * * * * * * * * * * * * * * //

dimensions      [0 3 -1 0 0 0 0];

internalField   nonuniform List<scalar> 
12640
(
1.62487e-09
-1.6251e-09
1.41574e-08
-1.25326e-08
3.61012e-08
-2.19438e-08
6.15211e-08
-2.542e-08
8.46421e-08
-2.3121e-08
1.02129e-07
-1.74872e-08
1.12706e-07
-1.05772e-08
1.17097e-07
-4.39073e-09
1.17341e-07
-2.43373e-10
1.15578e-07
1.76209e-09
1.13621e-07
1.95702e-09
1.12667e-07
9.5492e-10
1.13125e-07
-4.58954e-10
1.14751e-07
-1.6255e-09
1.16815e-07
-2.06412e-09
1.18479e-07
-1.66355e-09
1.18937e-07
-4.5884e-10
1.177e-07
1.2372e-09
1.14055e-07
3.64517e-09
1.07134e-07
6.92091e-09
9.63001e-08
1.08341e-08
8.1053e-08
1.52471e-08
6.0933e-08
2.012e-08
3.57599e-08
2.51732e-08
5.53213e-09
3.02277e-08
-2.98848e-08
3.54169e-08
-7.14456e-08
4.15608e-08
-1.21078e-07
4.96323e-08
-1.81318e-07
6.02399e-08
-2.54513e-07
7.31954e-08
-3.40689e-07
8.61758e-08
-4.37296e-07
9.66071e-08
-5.4123e-07
1.03933e-07
-6.49378e-07
1.08148e-07
-7.58891e-07
1.09514e-07
-8.67229e-07
1.08337e-07
-9.72225e-07
1.04996e-07
-1.07209e-06
9.98681e-08
-1.16537e-06
9.32808e-08
-1.25091e-06
8.55404e-08
-1.32778e-06
7.68624e-08
-1.39519e-06
6.74109e-08
-1.45248e-06
5.72963e-08
-1.49905e-06
4.6564e-08
-1.53425e-06
3.52055e-08
-1.5574e-06
2.31486e-08
-1.56871e-06
1.13085e-08
-1.56768e-06
-1.03354e-09
-1.5526e-06
-1.50781e-08
-1.52436e-06
-2.82432e-08
-1.48154e-06
-4.28196e-08
-1.4245e-06
-5.70376e-08
-1.35301e-06
-7.14849e-08
-1.26753e-06
-8.5481e-08
-1.16857e-06
-9.89621e-08
-1.0569e-06
-1.11671e-07
-9.33636e-07
-1.23264e-07
-8.00352e-07
-1.33284e-07
-6.59083e-07
-1.41269e-07
-5.12497e-07
-1.46586e-07
-3.63847e-07
-1.4865e-07
-2.16848e-07
-1.46999e-07
-7.55248e-08
-1.41323e-07
5.61387e-08
-1.31664e-07
1.74258e-07
-1.1812e-07
2.73721e-07
-9.9463e-08
3.51708e-07
-7.79867e-08
4.05305e-07
-5.35972e-08
4.32684e-07
-2.7379e-08
4.33294e-07
-6.09353e-10
4.08412e-07
2.48822e-08
3.60825e-07
4.75863e-08
2.95794e-07
6.50314e-08
2.22158e-07
7.36362e-08
1.51193e-07
7.09645e-08
9.04672e-08
6.07259e-08
4.44211e-08
4.60461e-08
1.42971e-08
3.0124e-08
5.18352e-10
1.37787e-08
5.18351e-10
9.7723e-09
-1.13974e-08
4.00007e-08
-4.2761e-08
8.21825e-08
-6.41255e-08
1.25686e-07
-6.89238e-08
1.63325e-07
-6.07601e-08
1.91402e-07
-4.55635e-08
2.09168e-07
-2.83432e-08
2.17501e-07
-1.27239e-08
2.18089e-07
-8.31094e-10
2.13103e-07
6.74726e-09
2.0467e-07
1.03906e-08
1.94229e-07
1.13961e-08
1.82255e-07
1.15143e-08
1.68261e-07
1.23693e-08
1.51252e-07
1.49442e-08
1.30109e-07
1.94802e-08
1.03963e-07
2.5687e-08
7.17313e-08
3.34687e-08
3.22489e-08
4.31275e-08
-1.58295e-08
5.49994e-08
-7.42813e-08
6.92858e-08
-1.44918e-07
8.58834e-08
-2.28998e-07
1.042e-07
-3.27335e-07
1.2351e-07
-4.40484e-07
1.43377e-07
-5.68397e-07
1.6333e-07
-7.09371e-07
1.82535e-07
-8.59811e-07
2.00073e-07
-1.01506e-06
2.15485e-07
-1.16974e-06
2.27877e-07
-1.31996e-06
2.36404e-07
-1.46411e-06
2.4075e-07
-1.60087e-06
2.40696e-07
-1.72894e-06
2.36213e-07
-1.84723e-06
2.27803e-07
-1.955e-06
2.16108e-07
-2.05171e-06
2.01708e-07
-2.13701e-06
1.85174e-07
-2.21067e-06
1.66932e-07
-2.27249e-06
1.47367e-07
-2.32237e-06
1.26739e-07
-2.36017e-06
1.05211e-07
-2.38577e-06
8.28956e-08
-2.39905e-06
5.98425e-08
-2.39993e-06
3.60859e-08
-2.38825e-06
1.14727e-08
-2.36354e-06
-1.34022e-08
-2.32563e-06
-3.89435e-08
-2.27487e-06
-6.58384e-08
-2.21021e-06
-9.29011e-08
-2.13231e-06
-1.20722e-07
-2.04063e-06
-1.48719e-07
-1.93531e-06
-1.76802e-07
-1.81628e-06
-2.04516e-07
-1.68382e-06
-2.31415e-07
-1.53872e-06
-2.56773e-07
-1.38218e-06
-2.79805e-07
-1.21573e-06
-2.99734e-07
-1.04154e-06
-3.15457e-07
-8.62121e-07
-3.26005e-07
-6.80353e-07
-3.30418e-07
-4.99534e-07
-3.27818e-07
-3.23337e-07
-3.1752e-07
-1.5566e-07
-2.9934e-07
-6.69127e-10
-2.73111e-07
1.39621e-07
-2.39753e-07
2.60403e-07
-1.98768e-07
3.58969e-07
-1.52164e-07
4.32843e-07
-1.01253e-07
4.8025e-07
-4.80162e-08
5.01291e-07
3.84148e-09
4.94304e-07
5.45735e-08
4.61872e-07
9.7463e-08
4.05645e-07
1.29863e-07
3.281e-07
1.4851e-07
2.38742e-07
1.50084e-07
1.49751e-07
1.35038e-07
7.3682e-08
1.06193e-07
2.1332e-08
6.61288e-08
2.18503e-08
1.82722e-08
-2.96696e-08
6.10761e-08
-8.55649e-08
1.10023e-07
-1.13072e-07
1.53821e-07
-1.12722e-07
1.87929e-07
-9.48686e-08
2.11219e-07
-6.88533e-08
2.24207e-07
-4.13311e-08
2.27795e-07
-1.63121e-08
2.23072e-07
3.89228e-09
2.11351e-07
1.8468e-08
1.94016e-07
2.77261e-08
1.71658e-07
3.37537e-08
1.4412e-07
3.90524e-08
1.10668e-07
4.58215e-08
7.01849e-08
5.54269e-08
2.1336e-08
6.83291e-08
-3.74963e-08
8.45192e-08
-1.08045e-07
1.04017e-07
-1.91774e-07
1.26857e-07
-2.89918e-07
1.53143e-07
-4.03095e-07
1.82464e-07
-5.31083e-07
2.13871e-07
-6.72971e-07
2.46088e-07
-8.2679e-07
2.77329e-07
-9.89558e-07
3.06145e-07
-1.15741e-06
3.31183e-07
-1.32629e-06
3.51413e-07
-1.49241e-06
3.66191e-07
-1.65222e-06
3.75301e-07
-1.80299e-06
3.78645e-07
-1.94295e-06
3.76366e-07
-2.07097e-06
3.68763e-07
-2.1867e-06
3.56432e-07
-2.29046e-06
3.3997e-07
-2.38254e-06
3.19881e-07
-2.46327e-06
2.96841e-07
-2.53297e-06
2.7141e-07
-2.59192e-06
2.4412e-07
-2.64031e-06
2.1532e-07
-2.67828e-06
1.8534e-07
-2.70594e-06
1.54398e-07
-2.7233e-06
1.22571e-07
-2.73032e-06
8.99178e-08
-2.7269e-06
5.64163e-08
-2.71283e-06
2.20199e-08
-2.68809e-06
-1.3266e-08
-2.65207e-06
-4.9419e-08
-2.60439e-06
-8.66278e-08
-2.54521e-06
-1.25018e-07
-2.47382e-06
-1.64288e-07
-2.39009e-06
-2.04458e-07
-2.29373e-06
-2.45076e-07
-2.18466e-06
-2.85867e-07
-2.06287e-06
-3.26312e-07
-1.92858e-06
-3.65704e-07
-1.78229e-06
-4.03061e-07
-1.62484e-06
-4.37254e-07
-1.45747e-06
-4.67103e-07
-1.28182e-06
-4.9111e-07
-1.10015e-06
-5.07681e-07
-9.15083e-07
-5.15481e-07
-7.29765e-07
-5.13136e-07
-5.47748e-07
-4.99537e-07
-3.72733e-07
-4.74356e-07
-2.08155e-07
-4.37689e-07
-5.7711e-08
-3.90197e-07
7.61129e-08
-3.32592e-07
1.90593e-07
-2.66644e-07
2.83572e-07
-1.94231e-07
3.54229e-07
-1.18674e-07
4.01035e-07
-4.29645e-08
4.24763e-07
3.08453e-08
4.23454e-07
9.87729e-08
3.98032e-07
1.55285e-07
3.4985e-07
1.96691e-07
2.82031e-07
2.17903e-07
2.00551e-07
2.16517e-07
1.15646e-07
1.91098e-07
4.10269e-08
1.40747e-07
6.28773e-08
2.5314e-08
-5.49837e-08
7.44438e-08
-1.34695e-07
1.21786e-07
-1.60414e-07
1.58709e-07
-1.49645e-07
1.83615e-07
-1.19775e-07
1.97452e-07
-8.269e-08
2.01304e-07
-4.51826e-08
1.96205e-07
-1.12134e-08
1.82897e-07
1.71998e-08
1.61899e-07
3.94668e-08
1.32987e-07
5.66378e-08
9.57122e-08
7.10285e-08
4.93502e-08
8.54144e-08
-7.00349e-09
1.02175e-07
-7.43837e-08
1.22807e-07
-1.54043e-07
1.47988e-07
-2.47408e-07
1.77884e-07
-3.55736e-07
2.12345e-07
-4.79674e-07
2.50795e-07
-6.18976e-07
2.92445e-07
-7.72236e-07
3.35723e-07
-9.36589e-07
3.78225e-07
-1.1086e-06
4.181e-07
-1.28426e-06
4.52984e-07
-1.45959e-06
4.81483e-07
-1.63083e-06
5.02417e-07
-1.79443e-06
5.15018e-07
-1.94762e-06
5.19375e-07
-2.08872e-06
5.16404e-07
-2.2171e-06
5.07026e-07
-2.3328e-06
4.92062e-07
-2.4363e-06
4.7227e-07
-2.52819e-06
4.48317e-07
-2.60913e-06
4.20909e-07
-2.67982e-06
3.90576e-07
-2.74087e-06
3.57886e-07
-2.79274e-06
3.23281e-07
-2.83578e-06
2.8716e-07
-2.87023e-06
2.49773e-07
-2.89623e-06
2.11337e-07
-2.91382e-06
1.71993e-07
-2.92299e-06
1.31733e-07
-2.92361e-06
9.05385e-08
-2.91548e-06
4.82947e-08
-2.89836e-06
4.89661e-09
-2.87194e-06
-3.96908e-08
-2.83578e-06
-8.5575e-08
-2.78951e-06
-1.32896e-07
-2.73286e-06
-1.81675e-07
-2.66526e-06
-2.31879e-07
-2.58629e-06
-2.83437e-07
-2.49553e-06
-3.35834e-07
-2.39275e-06
-3.88647e-07
-2.27772e-06
-4.4134e-07
-2.15036e-06
-4.93064e-07
-2.01076e-06
-5.42665e-07
-1.85944e-06
-5.88568e-07
-1.69733e-06
-6.29212e-07
-1.52564e-06
-6.62803e-07
-1.34617e-06
-6.87156e-07
-1.16121e-06
-7.00438e-07
-9.73593e-07
-7.0075e-07
-7.86691e-07
-6.86439e-07
-6.04522e-07
-6.56525e-07
-4.3118e-07
-6.11031e-07
-2.70258e-07
-5.51119e-07
-1.24794e-07
-4.78057e-07
2.47414e-09
-3.93912e-07
1.10072e-07
-3.01829e-07
1.9624e-07
-2.04842e-07
2.60291e-07
-1.07015e-07
3.02904e-07
-1.17677e-08
3.24338e-07
7.73389e-08
3.23917e-07
1.55706e-07
3.0169e-07
2.18918e-07
2.58083e-07
2.61509e-07
1.96741e-07
2.7786e-07
1.23205e-07
2.64634e-07
4.78454e-08
2.16107e-07
1.10723e-07
3.07779e-08
-8.57616e-08
7.9897e-08
-1.83814e-07
1.19571e-07
-2.00089e-07
1.45939e-07
-1.76013e-07
1.59401e-07
-1.33236e-07
1.61953e-07
-8.52423e-08
1.54877e-07
-3.81062e-08
1.38901e-07
4.76181e-09
1.14159e-07
4.19422e-08
8.02858e-08
7.33398e-08
3.63864e-08
1.00537e-07
-1.86508e-08
1.26066e-07
-8.59347e-08
1.52698e-07
-1.66493e-07
1.82734e-07
-2.61295e-07
2.17608e-07
-3.71193e-07
2.57886e-07
-4.96719e-07
3.0341e-07
-6.37777e-07
3.53403e-07
-7.93198e-07
4.06217e-07
-9.60339e-07
4.59586e-07
-1.13575e-06
5.11134e-07
-1.31511e-06
5.57583e-07
-1.49431e-06
5.973e-07
-1.66926e-06
6.27936e-07
-1.83569e-06
6.47918e-07
-1.99067e-06
6.57389e-07
-2.13291e-06
6.57266e-07
-2.26232e-06
6.48781e-07
-2.37922e-06
6.333e-07
-2.48425e-06
6.12061e-07
-2.57821e-06
5.86022e-07
-2.66192e-06
5.55977e-07
-2.73612e-06
5.2252e-07
-2.80147e-06
4.86261e-07
-2.8586e-06
4.47705e-07
-2.90799e-06
4.07273e-07
-2.95002e-06
3.6531e-07
-2.98498e-06
3.22119e-07
-3.01304e-06
2.77832e-07
-3.03419e-06
2.32493e-07
-3.0485e-06
1.86305e-07
-3.0559e-06
1.39129e-07
-3.05626e-06
9.08981e-08
-3.04938e-06
4.14181e-08
-3.03495e-06
-9.53142e-09
-3.01264e-06
-6.20101e-08
-2.9819e-06
-1.16307e-07
-2.94231e-06
-1.72488e-07
-2.89345e-06
-2.30538e-07
-2.83487e-06
-2.90456e-07
-2.76595e-06
-3.52363e-07
-2.68588e-06
-4.159e-07
-2.59429e-06
-4.80233e-07
-2.49073e-06
-5.44903e-07
-2.37478e-06
-6.09018e-07
-2.24604e-06
-6.71403e-07
-2.10468e-06
-7.2993e-07
-1.95125e-06
-7.8264e-07
-1.78646e-06
-8.27597e-07
-1.61165e-06
-8.61962e-07
-1.42878e-06
-8.83304e-07
-1.24032e-06
-8.89219e-07
-1.04922e-06
-8.77533e-07
-8.59109e-07
-8.46638e-07
-6.74571e-07
-7.9557e-07
-5.00452e-07
-7.25237e-07
-3.40262e-07
-6.38246e-07
-1.97052e-07
-5.37123e-07
-7.35543e-08
-4.25326e-07
2.88025e-08
-3.07199e-07
1.0924e-07
-1.87452e-07
1.67991e-07
-7.05192e-08
2.05985e-07
3.9345e-08
2.23746e-07
1.37946e-07
2.21771e-07
2.20892e-07
2.00431e-07
2.8285e-07
1.60634e-07
3.17656e-07
1.05337e-07
3.19932e-07
4.21813e-08
2.79262e-07
1.52904e-07
3.40777e-08
-1.19839e-07
7.71732e-08
-2.26909e-07
1.05207e-07
-2.28123e-07
1.18537e-07
-1.89343e-07
1.195e-07
-1.342e-07
1.09989e-07
-7.5731e-08
9.09571e-08
-1.90742e-08
6.25375e-08
3.31814e-08
2.43439e-08
8.01358e-08
-2.46859e-08
1.2237e-07
-8.58603e-08
1.61712e-07
-1.60504e-07
2.0071e-07
-2.4976e-07
2.41954e-07
-3.54471e-07
2.87445e-07
-4.75101e-07
3.38238e-07
-6.11543e-07
3.94329e-07
-7.62959e-07
4.54826e-07
-9.27412e-07
5.17855e-07
-1.10179e-06
5.80597e-07
-1.28182e-06
6.39612e-07
-1.46311e-06
6.92426e-07
-1.64115e-06
7.3562e-07
-1.81072e-06
7.66868e-07
-1.96841e-06
7.85627e-07
-2.11297e-06
7.92486e-07
-2.24443e-06
7.88839e-07
-2.36343e-06
7.76267e-07
-2.47094e-06
7.56296e-07
-2.56788e-06
7.30235e-07
-2.65505e-06
6.99239e-07
-2.73322e-06
6.64187e-07
-2.80305e-06
6.25805e-07
-2.8652e-06
5.84677e-07
-2.92025e-06
5.41303e-07
-2.96863e-06
4.96093e-07
-3.0107e-06
4.49334e-07
-3.04672e-06
4.01333e-07
-3.07694e-06
3.52338e-07
-3.1015e-06
3.02397e-07
-3.12025e-06
2.51239e-07
-3.13338e-06
1.99438e-07
-3.14082e-06
1.46571e-07
-3.1425e-06
9.25786e-08
-3.13831e-06
3.72203e-08
-3.12808e-06
-1.97585e-08
-3.11165e-06
-7.84376e-08
-3.08863e-06
-1.39334e-07
-3.05851e-06
-2.02608e-07
-3.02063e-06
-2.68413e-07
-2.97428e-06
-3.36803e-07
-2.91882e-06
-4.07825e-07
-2.85315e-06
-4.8157e-07
-2.77643e-06
-5.56957e-07
-2.68785e-06
-6.33484e-07
-2.58689e-06
-7.0997e-07
-2.47305e-06
-7.85244e-07
-2.34567e-06
-8.57317e-07
-2.2047e-06
-9.2361e-07
-2.05021e-06
-9.82086e-07
-1.88313e-06
-1.02903e-06
-1.70502e-06
-1.06141e-06
-1.5178e-06
-1.07645e-06
-1.32433e-06
-1.071e-06
-1.1279e-06
-1.04306e-06
-9.32577e-07
-9.90896e-07
-7.43719e-07
-9.14096e-07
-5.66501e-07
-8.15463e-07
-4.04904e-07
-6.9872e-07
-2.62317e-07
-5.67913e-07
-1.41136e-07
-4.2838e-07
-4.26696e-08
-2.85918e-07
3.30376e-08
-1.46226e-07
8.69817e-08
-1.45991e-08
1.20626e-07
1.04302e-07
1.3532e-07
2.06198e-07
1.31868e-07
2.86303e-07
1.1088e-07
3.38643e-07
7.47067e-08
3.56105e-07
2.96474e-08
3.24322e-07
1.82551e-07
3.42833e-08
-1.54123e-07
6.6067e-08
-2.58693e-07
8.03469e-08
-2.42403e-07
7.96789e-08
-1.88675e-07
6.75552e-08
-1.22076e-07
4.53698e-08
-5.35456e-08
1.34562e-08
1.28394e-08
-2.86004e-08
7.5238e-08
-8.176e-08
1.33295e-07
-1.47346e-07
1.87955e-07
-2.26771e-07
2.41137e-07
-3.21273e-07
2.95212e-07
-4.31689e-07
3.5237e-07
-5.58295e-07
4.14051e-07
-7.00624e-07
4.80567e-07
-8.57384e-07
5.51089e-07
-1.0261e-06
6.23541e-07
-1.20306e-06
6.94815e-07
-1.38378e-06
7.61318e-07
-1.56347e-06
8.19308e-07
-1.73636e-06
8.65311e-07
-1.89816e-06
8.97422e-07
-2.04677e-06
9.15475e-07
-2.182e-06
9.20859e-07
-2.30454e-06
9.15024e-07
-2.41538e-06
8.9968e-07
-2.51557e-06
8.76463e-07
-2.6061e-06
8.46821e-07
-2.68781e-06
8.11941e-07
-2.76139e-06
7.72827e-07
-2.82748e-06
7.30278e-07
-2.88662e-06
6.84945e-07
-2.93931e-06
6.3736e-07
-2.98595e-06
5.87948e-07
-3.02693e-06
5.37074e-07
-3.0624e-06
4.84797e-07
-3.09257e-06
4.31504e-07
-3.11767e-06
3.77439e-07
-3.138e-06
3.22724e-07
-3.15398e-06
2.6722e-07
-3.16528e-06
2.10739e-07
-3.17188e-06
1.53167e-07
-3.17362e-06
9.43228e-08
-3.17035e-06
3.39508e-08
-3.16209e-06
-2.80209e-08
-3.1488e-06
-9.17274e-08
-3.13046e-06
-1.57675e-07
-3.10696e-06
-2.26106e-07
-3.07808e-06
-2.9729e-07
-3.04343e-06
-3.71457e-07
-3.00257e-06
-4.48681e-07
-2.95488e-06
-5.29259e-07
-2.89871e-06
-6.13125e-07
-2.83257e-06
-6.99628e-07
-2.75447e-06
-7.88073e-07
-2.66252e-06
-8.77195e-07
-2.5553e-06
-9.64533e-07
-2.43241e-06
-1.04651e-06
-2.29403e-06
-1.12046e-06
-2.1405e-06
-1.18256e-06
-1.97228e-06
-1.22964e-06
-1.79086e-06
-1.25787e-06
-1.59879e-06
-1.26306e-06
-1.39917e-06
-1.24269e-06
-1.19561e-06
-1.19446e-06
-9.93128e-07
-1.11658e-06
-7.98144e-07
-1.01045e-06
-6.16482e-07
-8.80382e-07
-4.52482e-07
-7.31914e-07
-3.09728e-07
-5.71135e-07
-1.9057e-07
-4.05076e-07
-9.58744e-08
-2.40922e-07
-2.49678e-08
-8.55058e-08
2.39828e-08
5.53511e-08
5.32953e-08
1.76885e-07
6.48683e-08
2.7473e-07
6.00453e-08
3.43466e-07
4.11912e-08
3.74959e-07
1.47473e-08
3.50766e-07
1.97299e-07
3.03545e-08
-1.84477e-07
4.80299e-08
-2.76368e-07
4.72575e-08
-2.4163e-07
3.2253e-08
-1.7367e-07
6.75314e-09
-9.65762e-08
-2.85873e-08
-1.82051e-08
-7.40923e-08
5.83444e-08
-1.30638e-07
1.31784e-07
-1.99462e-07
2.0212e-07
-2.81925e-07
2.70418e-07
-3.7926e-07
3.38473e-07
-4.92324e-07
4.08276e-07
-6.2135e-07
4.81395e-07
-7.65771e-07
5.58472e-07
-9.24086e-07
6.38882e-07
-1.09347e-06
7.20475e-07
-1.26988e-06
7.99953e-07
-1.44856e-06
8.73491e-07
-1.62381e-06
9.36571e-07
-1.79025e-06
9.85741e-07
-1.94436e-06
1.01942e-06
-2.08512e-06
1.03818e-06
-2.21276e-06
1.04311e-06
-2.32812e-06
1.03622e-06
-2.43223e-06
1.01914e-06
-2.52625e-06
9.93697e-07
-2.61114e-06
9.61351e-07
-2.6877e-06
9.23381e-07
-2.75659e-06
8.80838e-07
-2.81838e-06
8.34611e-07
-2.87353e-06
7.85429e-07
-2.92246e-06
7.33881e-07
-2.96552e-06
6.80419e-07
-3.00296e-06
6.25385e-07
-3.03526e-06
5.69376e-07
-3.06313e-06
5.12671e-07
-3.08695e-06
4.55322e-07
-3.10676e-06
3.97246e-07
-3.12231e-06
3.38272e-07
-3.1339e-06
2.78817e-07
-3.14149e-06
2.18329e-07
-3.14527e-06
1.56942e-07
-3.14535e-06
9.44059e-08
-3.14184e-06
3.04393e-08
-3.13487e-06
-3.49906e-08
-3.12441e-06
-1.02188e-07
-3.11035e-06
-1.71734e-07
-3.09253e-06
-2.43926e-07
-3.07069e-06
-3.19135e-07
-3.04446e-06
-3.97681e-07
-3.01339e-06
-4.7975e-07
-2.97731e-06
-5.65342e-07
-2.93556e-06
-6.54873e-07
-2.88745e-06
-7.47737e-07
-2.83209e-06
-8.43436e-07
-2.76823e-06
-9.41059e-07
-2.69292e-06
-1.03984e-06
-2.60168e-06
-1.13775e-06
-2.49109e-06
-1.23105e-06
-2.3601e-06
-1.31355e-06
-2.20973e-06
-1.38001e-06
-2.04218e-06
-1.42542e-06
-1.85834e-06
-1.4469e-06
-1.66138e-06
-1.43965e-06
-1.4545e-06
-1.40135e-06
-1.24252e-06
-1.32855e-06
-1.03139e-06
-1.22157e-06
-8.29088e-07
-1.08268e-06
-6.42193e-07
-9.18809e-07
-4.75518e-07
-7.3781e-07
-3.32855e-07
-5.47739e-07
-2.16364e-07
-3.57413e-07
-1.26327e-07
-1.75543e-07
-6.12355e-08
-9.74033e-09
-1.79039e-08
1.33554e-07
6.83956e-09
2.49986e-07
1.5555e-08
3.34751e-07
1.18964e-08
3.78618e-07
2.06013e-09
3.60602e-07
1.99359e-07
2.24442e-08
-2.06921e-07
2.45306e-08
-2.78455e-07
7.85148e-09
-2.24951e-07
-2.10658e-08
-1.44753e-07
-5.99871e-08
-5.76549e-08
-1.0881e-07
3.06176e-08
-1.68283e-07
1.17818e-07
-2.39564e-07
2.03065e-07
-3.23924e-07
2.8648e-07
-4.2253e-07
3.69023e-07
-5.36216e-07
4.52159e-07
-6.65229e-07
5.37288e-07
-8.09039e-07
6.25206e-07
-9.66166e-07
7.15599e-07
-1.13368e-06
8.06393e-07
-1.30733e-06
8.94131e-07
-1.48208e-06
9.74698e-07
-1.65186e-06
1.04327e-06
-1.81183e-06
1.09654e-06
-1.95934e-06
1.13325e-06
-2.09357e-06
1.15365e-06
-2.21481e-06
1.15942e-06
-2.32403e-06
1.15233e-06
-2.42231e-06
1.13449e-06
-2.51073e-06
1.10756e-06
-2.59025e-06
1.07321e-06
-2.66161e-06
1.03271e-06
-2.72544e-06
9.87214e-07
-2.78227e-06
9.37668e-07
-2.83256e-06
8.84898e-07
-2.87672e-06
8.29589e-07
-2.91518e-06
7.72342e-07
-2.94851e-06
7.13746e-07
-2.97729e-06
6.54163e-07
-3.00158e-06
5.9367e-07
-3.02145e-06
5.32545e-07
-3.03695e-06
4.70822e-07
-3.04836e-06
4.0865e-07
-3.05623e-06
3.46141e-07
-3.06079e-06
2.83384e-07
-3.06252e-06
2.20053e-07
-3.06165e-06
1.56075e-07
-3.05843e-06
9.11834e-08
-3.05306e-06
2.50752e-08
-3.04563e-06
-4.24244e-08
-3.03606e-06
-1.11756e-07
-3.02441e-06
-1.83382e-07
-3.01067e-06
-2.57668e-07
-2.99477e-06
-3.35032e-07
-2.9766e-06
-4.15859e-07
-2.95588e-06
-5.00467e-07
-2.93209e-06
-5.89127e-07
-2.9048e-06
-6.82166e-07
-2.87304e-06
-7.795e-07
-2.83566e-06
-8.80811e-07
-2.79154e-06
-9.85185e-07
-2.73961e-06
-1.09177e-06
-2.67832e-06
-1.19904e-06
-2.60508e-06
-1.30429e-06
-2.51336e-06
-1.40527e-06
-2.39685e-06
-1.49652e-06
-2.25436e-06
-1.56791e-06
-2.0884e-06
-1.61286e-06
-1.90313e-06
-1.62492e-06
-1.7005e-06
-1.60398e-06
-1.48552e-06
-1.54354e-06
-1.26371e-06
-1.44338e-06
-1.04268e-06
-1.30372e-06
-8.32141e-07
-1.12934e-06
-6.39804e-07
-9.30147e-07
-4.70985e-07
-7.16559e-07
-3.29525e-07
-4.98872e-07
-2.17239e-07
-2.87829e-07
-1.3344e-07
-9.35395e-08
-7.54754e-08
7.55895e-08
-3.86022e-08
2.13113e-07
-1.83688e-08
3.14518e-07
-9.13059e-09
3.6938e-07
-5.64579e-09
3.57117e-07
1.93713e-07
1.14893e-08
-2.18411e-07
-3.22338e-09
-2.63742e-07
-3.48662e-08
-1.93308e-07
-7.76472e-08
-1.01972e-07
-1.30027e-07
-5.27496e-09
-1.92347e-07
9.29371e-08
-2.65693e-07
1.91164e-07
-3.51285e-07
2.88657e-07
-4.5023e-07
3.85425e-07
-5.63322e-07
4.82116e-07
-6.90826e-07
5.79663e-07
-8.32313e-07
6.78776e-07
-9.86452e-07
7.79345e-07
-1.15036e-06
8.79502e-07
-1.31974e-06
9.75781e-07
-1.48946e-06
1.06384e-06
-1.65371e-06
1.13895e-06
-1.80796e-06
1.19753e-06
-1.94985e-06
1.23843e-06
-2.07848e-06
1.26188e-06
-2.19426e-06
1.26942e-06
-2.29806e-06
1.26323e-06
-2.39105e-06
1.24532e-06
-2.4742e-06
1.21764e-06
-2.5484e-06
1.18176e-06
-2.61435e-06
1.13916e-06
-2.67263e-06
1.091e-06
-2.72378e-06
1.03836e-06
-2.76828e-06
9.82163e-07
-2.80659e-06
9.2321e-07
-2.8392e-06
8.62194e-07
-2.86655e-06
7.99694e-07
-2.88892e-06
7.36114e-07
-2.90662e-06
6.71867e-07
-2.9201e-06
6.07146e-07
-2.92983e-06
5.42272e-07
-2.93638e-06
4.77373e-07
-2.9402e-06
4.12468e-07
-2.9416e-06
3.47546e-07
-2.94078e-06
2.82562e-07
-2.93804e-06
2.17315e-07
-2.9336e-06
1.51636e-07
-2.92766e-06
8.52433e-08
-2.92041e-06
1.782e-08
-2.91195e-06
-5.08796e-08
-2.90241e-06
-1.21301e-07
-2.89194e-06
-1.93851e-07
-2.88066e-06
-2.68948e-07
-2.86865e-06
-3.47038e-07
-2.85595e-06
-4.28558e-07
-2.84249e-06
-5.13931e-07
-2.82804e-06
-6.03575e-07
-2.81234e-06
-6.97865e-07
-2.79485e-06
-7.96992e-07
-2.77474e-06
-9.00925e-07
-2.75061e-06
-1.00931e-06
-2.7208e-06
-1.12158e-06
-2.68336e-06
-1.23647e-06
-2.63627e-06
-1.35138e-06
-2.57719e-06
-1.46435e-06
-2.50272e-06
-1.571e-06
-2.40362e-06
-1.66701e-06
-2.27276e-06
-1.74371e-06
-2.1107e-06
-1.78697e-06
-1.92368e-06
-1.791e-06
-1.71476e-06
-1.75247e-06
-1.49024e-06
-1.66789e-06
-1.25697e-06
-1.53699e-06
-1.02498e-06
-1.36133e-06
-8.05966e-07
-1.14917e-06
-6.0884e-07
-9.13685e-07
-4.39269e-07
-6.68443e-07
-3.01029e-07
-4.2607e-07
-1.95013e-07
-1.99555e-07
-1.19733e-07
3.09416e-10
-6.97729e-08
1.63153e-07
-3.93585e-08
2.84103e-07
-2.049e-08
3.50511e-07
-8.62814e-09
3.45255e-07
1.85085e-07
-1.48379e-09
-2.16927e-07
-3.23108e-08
-2.32915e-07
-7.88983e-08
-1.46721e-07
-1.35328e-07
-4.55419e-08
-2.00855e-07
6.0252e-08
-2.76322e-07
1.68404e-07
-3.62913e-07
2.77754e-07
-4.61748e-07
3.87492e-07
-5.73619e-07
4.97296e-07
-6.98821e-07
6.07317e-07
-8.3702e-07
7.17862e-07
-9.87093e-07
8.28848e-07
-1.1464e-06
9.38652e-07
-1.31075e-06
1.04386e-06
-1.47508e-06
1.14011e-06
-1.63406e-06
1.22282e-06
-1.7833e-06
1.2882e-06
-1.92038e-06
1.33461e-06
-2.04432e-06
1.36237e-06
-2.15533e-06
1.37289e-06
-2.25438e-06
1.36848e-06
-2.34249e-06
1.35134e-06
-2.42061e-06
1.32344e-06
-2.48952e-06
1.28655e-06
-2.54991e-06
1.24215e-06
-2.60233e-06
1.19158e-06
-2.64732e-06
1.13599e-06
-2.68542e-06
1.07646e-06
-2.71715e-06
1.0139e-06
-2.74307e-06
9.49126e-07
-2.7637e-06
8.8283e-07
-2.77957e-06
8.15566e-07
-2.79122e-06
7.47767e-07
-2.79917e-06
6.79815e-07
-2.80398e-06
6.11953e-07
-2.8061e-06
5.44394e-07
-2.80593e-06
4.77201e-07
-2.80381e-06
4.10348e-07
-2.80004e-06
3.43779e-07
-2.79485e-06
2.77372e-07
-2.78846e-06
2.10927e-07
-2.78106e-06
1.44234e-07
-2.77283e-06
7.70088e-08
-2.76395e-06
8.94219e-09
-2.75457e-06
-6.02634e-08
-2.74485e-06
-1.31018e-07
-2.73498e-06
-2.03718e-07
-2.72514e-06
-2.78791e-07
-2.71549e-06
-3.56687e-07
-2.70618e-06
-4.37869e-07
-2.6973e-06
-5.2281e-07
-2.68889e-06
-6.11987e-07
-2.68091e-06
-7.05843e-07
-2.67317e-06
-8.04732e-07
-2.66521e-06
-9.08882e-07
-2.65618e-06
-1.01834e-06
-2.64487e-06
-1.13289e-06
-2.62955e-06
-1.25179e-06
-2.60735e-06
-1.37358e-06
-2.57548e-06
-1.49622e-06
-2.53073e-06
-1.61575e-06
-2.46939e-06
-1.72834e-06
-2.38563e-06
-1.82748e-06
-2.26655e-06
-1.90606e-06
-2.10971e-06
-1.94783e-06
-1.91986e-06
-1.94232e-06
-1.7034e-06
-1.88435e-06
-1.46743e-06
-1.77296e-06
-1.22153e-06
-1.60723e-06
-9.78206e-07
-1.39249e-06
-7.51403e-07
-1.14049e-06
-5.51217e-07
-8.68629e-07
-3.83507e-07
-5.93779e-07
-2.51473e-07
-3.31589e-07
-1.54373e-07
-9.6791e-08
-8.90268e-08
9.78066e-08
-4.80187e-08
2.43095e-07
-2.25969e-08
3.25089e-07
-7.12679e-09
3.29785e-07
1.77958e-07
-1.52851e-08
-2.01642e-07
-6.21926e-08
-1.86008e-07
-1.22764e-07
-8.61496e-08
-1.92161e-07
2.38556e-08
-2.70222e-07
1.38313e-07
-3.58012e-07
2.56194e-07
-4.56704e-07
3.76446e-07
-5.67173e-07
4.97961e-07
-6.89794e-07
6.19917e-07
-8.24334e-07
7.41858e-07
-9.69874e-07
8.63401e-07
-1.12411e-06
9.83087e-07
-1.28316e-06
1.0977e-06
-1.4422e-06
1.2029e-06
-1.5963e-06
1.29421e-06
-1.74123e-06
1.36775e-06
-1.87424e-06
1.42121e-06
-1.99424e-06
1.45461e-06
-2.10127e-06
1.4694e-06
-2.19617e-06
1.46778e-06
-2.2799e-06
1.45222e-06
-2.35335e-06
1.42478e-06
-2.41726e-06
1.38735e-06
-2.47227e-06
1.34156e-06
-2.51897e-06
1.28885e-06
-2.55796e-06
1.23057e-06
-2.58986e-06
1.16789e-06
-2.61532e-06
1.10192e-06
-2.63501e-06
1.03359e-06
-2.6496e-06
9.63715e-07
-2.65974e-06
8.9297e-07
-2.66606e-06
8.21886e-07
-2.66917e-06
7.50873e-07
-2.66959e-06
6.80241e-07
-2.66782e-06
6.10179e-07
-2.66423e-06
5.408e-07
-2.65913e-06
4.72102e-07
-2.6528e-06
4.04018e-07
-2.64546e-06
3.36444e-07
-2.63731e-06
2.69217e-07
-2.6285e-06
2.02119e-07
-2.61918e-06
1.34919e-07
-2.60951e-06
6.7336e-08
-2.59964e-06
-9.27566e-10
-2.58971e-06
-7.01983e-08
-2.57988e-06
-1.40841e-07
-2.57036e-06
-2.13243e-07
-2.56133e-06
-2.87816e-07
-2.55302e-06
-3.65e-07
-2.54564e-06
-4.45253e-07
-2.53939e-06
-5.29059e-07
-2.53446e-06
-6.16916e-07
-2.53099e-06
-7.09314e-07
-2.52901e-06
-8.06705e-07
-2.52842e-06
-9.09479e-07
-2.52884e-06
-1.01792e-06
-2.52962e-06
-1.13211e-06
-2.52959e-06
-1.25181e-06
-2.52683e-06
-1.37634e-06
-2.51876e-06
-1.50429e-06
-2.50132e-06
-1.63318e-06
-2.47028e-06
-1.75939e-06
-2.42096e-06
-1.8768e-06
-2.34729e-06
-1.97973e-06
-2.23811e-06
-2.05702e-06
-2.08496e-06
-2.09546e-06
-1.89161e-06
-2.07771e-06
-1.66562e-06
-1.99895e-06
-1.41674e-06
-1.85611e-06
-1.15755e-06
-1.65168e-06
-9.03503e-07
-1.39454e-06
-6.71061e-07
-1.10107e-06
-4.71106e-07
-7.93734e-07
-3.09078e-07
-4.93617e-07
-1.8683e-07
-2.1904e-07
-1.02188e-07
1.3165e-08
-4.87041e-08
1.89611e-07
-1.79573e-08
2.94343e-07
-2.58563e-09
3.14413e-07
1.75372e-07
-2.9426e-08
-1.72216e-07
-9.12169e-08
-1.24217e-07
-1.64881e-07
-1.2485e-08
-2.46354e-07
1.05328e-07
-3.3599e-07
2.2795e-07
-4.34915e-07
3.55119e-07
-5.44167e-07
4.85698e-07
-6.64299e-07
6.18093e-07
-7.95232e-07
7.5085e-07
-9.36227e-07
8.82853e-07
-1.08533e-06
1.0125e-06
-1.23909e-06
1.13685e-06
-1.3931e-06
1.25171e-06
-1.54277e-06
1.35257e-06
-1.68404e-06
1.43547e-06
-1.81382e-06
1.49754e-06
-1.93068e-06
1.53806e-06
-2.03452e-06
1.55845e-06
-2.12597e-06
1.56085e-06
-2.20596e-06
1.54777e-06
-2.27531e-06
1.52157e-06
-2.33475e-06
1.48422e-06
-2.38491e-06
1.43752e-06
-2.42645e-06
1.3831e-06
-2.46005e-06
1.32245e-06
-2.48643e-06
1.25695e-06
-2.50637e-06
1.18784e-06
-2.52067e-06
1.11622e-06
-2.53011e-06
1.04303e-06
-2.53545e-06
9.69053e-07
-2.53738e-06
8.94899e-07
-2.53653e-06
8.21036e-07
-2.53345e-06
7.47795e-07
-2.52861e-06
6.75396e-07
-2.52238e-06
6.03949e-07
-2.51505e-06
5.33477e-07
-2.50687e-06
4.63922e-07
-2.49803e-06
3.95174e-07
-2.48867e-06
3.27085e-07
-2.47892e-06
2.59466e-07
-2.46889e-06
1.92084e-07
-2.45867e-06
1.24699e-07
-2.44837e-06
5.70378e-08
-2.43811e-06
-1.11882e-08
-2.428e-06
-8.03009e-08
-2.41822e-06
-1.5063e-07
-2.40892e-06
-2.22538e-07
-2.40033e-06
-2.96408e-07
-2.39268e-06
-3.72652e-07
-2.38622e-06
-4.51707e-07
-2.38124e-06
-5.34039e-07
-2.37802e-06
-6.20142e-07
-2.37681e-06
-7.10524e-07
-2.37782e-06
-8.05695e-07
-2.38115e-06
-9.06145e-07
-2.38676e-06
-1.01231e-06
-2.39437e-06
-1.1245e-06
-2.40336e-06
-1.24283e-06
-2.41259e-06
-1.3671e-06
-2.42028e-06
-1.4966e-06
-2.42359e-06
-1.62988e-06
-2.41858e-06
-1.76439e-06
-2.39937e-06
-1.89601e-06
-2.36043e-06
-2.01867e-06
-2.29443e-06
-2.12302e-06
-2.19046e-06
-2.19944e-06
-2.03794e-06
-2.23022e-06
-1.83896e-06
-2.19793e-06
-1.60138e-06
-2.09369e-06
-1.33841e-06
-1.91464e-06
-1.06613e-06
-1.66682e-06
-8.03529e-07
-1.36367e-06
-5.69448e-07
-1.02782e-06
-3.74815e-07
-6.8825e-07
-2.23909e-07
-3.69946e-07
-1.16657e-07
-9.40868e-08
-4.81849e-08
1.21139e-07
-1.11237e-08
2.57282e-07
3.17729e-09
3.00112e-07
1.7855e-07
-4.30163e-08
-1.29199e-07
-1.18367e-07
-4.88658e-08
-2.03881e-07
7.30287e-08
-2.96373e-07
1.9782e-07
-3.96335e-07
3.27911e-07
-5.04905e-07
4.63689e-07
-6.22912e-07
6.03704e-07
-7.50536e-07
7.45718e-07
-8.8728e-07
8.87593e-07
-1.03147e-06
1.02704e-06
-1.18016e-06
1.16119e-06
-1.3295e-06
1.28619e-06
-1.47523e-06
1.39743e-06
-1.61341e-06
1.49075e-06
-1.74078e-06
1.56284e-06
-1.85539e-06
1.61215e-06
-1.9569e-06
1.63957e-06
-2.04576e-06
1.64731e-06
-2.12279e-06
1.63787e-06
-2.18881e-06
1.6138e-06
-2.24453e-06
1.57729e-06
-2.29064e-06
1.53032e-06
-2.32784e-06
1.47472e-06
-2.35691e-06
1.41216e-06
-2.37868e-06
1.34422e-06
-2.39406e-06
1.27233e-06
-2.40395e-06
1.19773e-06
-2.40924e-06
1.12151e-06
-2.41076e-06
1.04455e-06
-2.40926e-06
9.67547e-07
-2.40538e-06
8.91023e-07
-2.39969e-06
8.15344e-07
-2.39264e-06
7.40745e-07
-2.38459e-06
6.67346e-07
-2.37581e-06
5.95174e-07
-2.36652e-06
5.24181e-07
-2.35685e-06
4.54255e-07
-2.34692e-06
3.85246e-07
-2.33681e-06
3.16973e-07
-2.32658e-06
2.49232e-07
-2.31627e-06
1.81778e-07
-2.30594e-06
1.14366e-07
-2.29564e-06
4.67444e-08
-2.28546e-06
-2.13678e-08
-2.2755e-06
-9.02671e-08
-2.26588e-06
-1.60252e-07
-2.25676e-06
-2.31651e-07
-2.24836e-06
-3.04808e-07
-2.24092e-06
-3.80095e-07
-2.23471e-06
-4.57911e-07
-2.23006e-06
-5.38689e-07
-2.22731e-06
-6.22896e-07
-2.2268e-06
-7.11035e-07
-2.22886e-06
-8.03633e-07
-2.23377e-06
-9.01239e-07
-2.24169e-06
-1.00439e-06
-2.25262e-06
-1.11357e-06
-2.26629e-06
-1.22916e-06
-2.28208e-06
-1.35131e-06
-2.29884e-06
-1.47984e-06
-2.3147e-06
-1.61402e-06
-2.32679e-06
-1.75229e-06
-2.33087e-06
-1.89193e-06
-2.32117e-06
-2.02837e-06
-2.28961e-06
-2.15458e-06
-2.22869e-06
-2.26036e-06
-2.12549e-06
-2.33342e-06
-1.9701e-06
-2.35332e-06
-1.76202e-06
-2.30178e-06
-1.5108e-06
-2.16586e-06
-1.23324e-06
-1.94438e-06
-9.49431e-07
-1.64748e-06
-6.826e-07
-1.29465e-06
-4.53341e-07
-9.17508e-07
-2.71208e-07
-5.52079e-07
-1.38606e-07
-2.26689e-07
-5.24988e-08
3.50315e-08
-6.86928e-09
2.11652e-07
7.73452e-09
2.85509e-07
1.86284e-07
-5.54859e-08
-7.37134e-08
-1.4276e-07
3.84081e-08
-2.38864e-07
1.69133e-07
-3.41002e-07
2.99957e-07
-4.49806e-07
4.36715e-07
-5.66324e-07
5.80208e-07
-6.91129e-07
7.28509e-07
-8.24031e-07
8.7862e-07
-9.63701e-07
1.02726e-06
-1.10767e-06
1.17101e-06
-1.25276e-06
1.30629e-06
-1.39503e-06
1.42846e-06
-1.53067e-06
1.53307e-06
-1.65632e-06
1.61641e-06
-1.76961e-06
1.67613e-06
-1.86973e-06
1.71227e-06
-1.95696e-06
1.72679e-06
-2.03197e-06
1.72232e-06
-2.09558e-06
1.70148e-06
-2.14853e-06
1.66674e-06
-2.19153e-06
1.6203e-06
-2.22537e-06
1.56416e-06
-2.2509e-06
1.50025e-06
-2.26908e-06
1.43034e-06
-2.28091e-06
1.35605e-06
-2.28739e-06
1.27881e-06
-2.28951e-06
1.19984e-06
-2.28814e-06
1.12015e-06
-2.2841e-06
1.0405e-06
-2.27804e-06
9.61493e-07
-2.27054e-06
8.83523e-07
-2.26204e-06
8.06848e-07
-2.2529e-06
7.31596e-07
-2.24335e-06
6.57797e-07
-2.23357e-06
5.85399e-07
-2.22368e-06
5.14293e-07
-2.21375e-06
4.44325e-07
-2.20382e-06
3.75312e-07
-2.19389e-06
3.07045e-07
-2.18398e-06
2.39316e-07
-2.17408e-06
1.71877e-07
-2.16419e-06
1.0448e-07
-2.15434e-06
3.68999e-08
-2.14459e-06
-3.11275e-08
-2.13498e-06
-9.98692e-08
-2.12564e-06
-1.69591e-07
-2.11671e-06
-2.40581e-07
-2.10838e-06
-3.1314e-07
-2.10089e-06
-3.87593e-07
-2.09451e-06
-4.6429e-07
-2.08958e-06
-5.43618e-07
-2.08647e-06
-6.26003e-07
-2.08559e-06
-7.11915e-07
-2.08735e-06
-8.01873e-07
-2.09215e-06
-8.96441e-07
-2.10032e-06
-9.96217e-07
-2.11209e-06
-1.1018e-06
-2.12748e-06
-1.21377e-06
-2.14623e-06