/*--------------------------------*- C++ -*----------------------------------*\
  =========                 |
  \\      /  F ield         | OpenFOAM: The Open Source CFD Toolbox
   \\    /   O peration     | Website:  https://openfoam.org
    \\  /    A nd           | Version:  13
     \\/     M anipulation  |
\*---------------------------------------------------------------------------*/
FoamFile
{
    format      ascii;
    class       volScalarField;
    location    "7.3";
    object      epsilon;
}
// * * * * * * * * * * * * * * * * * * * * * * * * * * * * * * * * * * * * * //

dimensions      [0 2 -3 0 0 0 0];

internalField   nonuniform List<scalar> 
6400
(
2.7868e-05
0.000143141
0.000347623
0.000560164
0.000720604
0.000810813
0.000843673
0.000846893
0.000851859
0.000882922
0.000958629
0.00110728
0.00134249
0.00166932
0.00207091
0.00252505
0.00300864
0.00351187
0.00401168
0.00449523
0.00498018
0.00550794
0.006134
0.00689283
0.00775499
0.00862935
0.00949651
0.0103566
0.0112358
0.0121584
0.0131131
0.0140663
0.0150028
0.015924
0.016855
0.0178005
0.0187812
0.0198028
0.0208786
0.0220119
0.023211
0.024485
0.0258415
0.0272972
0.028862
0.030588
0.0325716
0.0350209
0.0375336
0.0400797
0.0425846
0.0450192
0.0473108
0.0493943
0.0511942
0.0526193
0.0533695
0.0536692
0.0536269
0.0526415
0.0508711
0.04831
0.0449898
0.0410293
0.0365272
0.0316982
0.0267775
0.0219646
0.0174377
0.0133938
0.0101114
0.00735629
0.00513037
0.00342703
0.00220116
0.00136634
0.000822088
0.000471684
0.000222847
4.74454e-05
0.000134773
0.000134721
0.00022034
0.000319383
0.000393794
0.000438936
0.000461231
0.000471387
0.000482783
0.000508795
0.000563689
0.000667489
0.000836566
0.00108359
0.00141242
0.00182422
0.00232097
0.00290913
0.00359442
0.00438623
0.00529254
0.00635057
0.00761138
0.00910035
0.010808
0.0127567
0.0147741
0.0167203
0.0184898
0.0199897
0.0211262
0.0220039
0.022599
0.0230077
0.0232667
0.0234345
0.0235518
0.0236524
0.0237596
0.023893
0.0240755
0.0243122
0.0246075
0.0249303
0.0253088
0.0257741
0.0263205
0.0269439
0.0276454
0.0283817
0.0291584
0.029928
0.0306751
0.0313499
0.0319118
0.0322315
0.0323394
0.0322377
0.03185
0.0310567
0.0298919
0.028329
0.0263634
0.0240725
0.0215388
0.0188649
0.0161655
0.0135588
0.0111338
0.00898066
0.00716148
0.00560144
0.00426432
0.0031287
0.00219152
0.00143625
0.000876193
0.000491984
0.000255589
0.000250981
0.000294646
0.00024499
0.000327563
0.000411706
0.000462392
0.000487981
0.000501915
0.00051787
0.000550624
0.000617963
0.000743608
0.000955689
0.00128145
0.00174078
0.00234616
0.00310994
0.00404448
0.00516411
0.00647858
0.00799422
0.00971644
0.0116119
0.0135949
0.0155142
0.0171881
0.0183824
0.0191002
0.0194948
0.0196908
0.0198323
0.0199102
0.0198359
0.0195257
0.0192393
0.0189353
0.018672
0.0184582
0.0183305
0.0182786
0.0182739
0.0183875
0.0185759
0.0188632
0.0192733
0.0197927
0.0204008
0.021091
0.0218581
0.022699
0.0235968
0.0245427
0.0255127
0.0264851
0.0274239
0.0282902
0.0290346
0.0295888
0.0298431
0.0298807
0.0295471
0.0287732
0.0275485
0.0258448
0.0237741
0.0214152
0.0188658
0.0162549
0.0136971
0.0112986
0.00914223
0.00727976
0.0057123
0.00441611
0.00335168
0.00248139
0.00178213
0.00121105
0.000757916
0.000469836
0.000671262
0.000511337
0.000422543
0.000516605
0.000597372
0.000638967
0.00066024
0.0006814
0.000723005
0.000807797
0.000966828
0.00123948
0.00166795
0.00228742
0.00311958
0.00417455
0.00545656
0.00696508
0.00867951
0.0105457
0.0124699
0.0143188
0.0159479
0.0172053
0.0178845
0.0181697
0.018239
0.0181874
0.0178405
0.0172955
0.0167051
0.0160501
0.0155391
0.0151505
0.0148176
0.014568
0.0144146
0.0143472
0.0143341
0.0144218
0.0145897
0.014846
0.0151814
0.0156031
0.0161088
0.0166961
0.0173644
0.018115
0.0189465
0.0198576
0.0208428
0.021895
0.0230006
0.0241411
0.0252883
0.0264056
0.0274449
0.0283469
0.0290261
0.0293489
0.0294126
0.029026
0.0282068
0.0269599
0.0250928
0.0228189
0.0202329
0.017483
0.0147196
0.0120881
0.00970606
0.00764964
0.00594441
0.00457259
0.00348789
0.00263539
0.00196544
0.00142521
0.00098502
0.000704406
0.00111728
0.000819817
0.000669172
0.000762479
0.000840781
0.000884761
0.00091903
0.000970887
0.00107125
0.00125827
0.00158044
0.00209251
0.00284311
0.00386097
0.00515012
0.00669366
0.00845427
0.0103652
0.012316
0.014147
0.015691
0.0167288
0.0171937
0.0173275
0.0172781
0.0168639
0.0161445
0.0152813
0.0144785
0.0138248
0.0132221
0.0127209
0.0123335
0.0120312
0.0118053
0.0116656
0.0116011
0.0115831
0.0116251
0.0117442
0.0119169
0.0121529
0.0124476
0.0128056
0.0132276
0.0137176
0.0142795
0.0149182
0.0156383
0.0164447
0.0173409
0.0183283
0.0194044
0.0205619
0.0217871
0.0230586
0.024341
0.0255808
0.0267162
0.0276692
0.0282557
0.028472
0.0282821
0.027522
0.0263241
0.0243724
0.0219089
0.0191035
0.0161382
0.0132073
0.0104929
0.00813146
0.00619073
0.00466767
0.00350833
0.00263372
0.00197433
0.00146984
0.00108022
0.000859274
0.00142498
0.00126024
0.000993258
0.00106995
0.00115022
0.00121123
0.00128003
0.00139334
0.00159678
0.00194672
0.00250772
0.00334006
0.00448034
0.00592734
0.0076398
0.00953945
0.0115098
0.0133944
0.0150102
0.0161013
0.0165757
0.0166887
0.0165539
0.0160119
0.0150482
0.0140535
0.0131661
0.0123624
0.0116842
0.011117
0.0106355
0.0102496
0.00994202
0.00970004
0.00951709
0.00938748
0.00930929
0.00927422
0.00926654
0.00930681
0.00938428
0.00950059
0.00965729
0.00985545
0.0100996
0.0103943
0.0107465
0.011164
0.0116573
0.0122374
0.0129174
0.0137096
0.0146256
0.0156743
0.0168586
0.0181726
0.0196036
0.021119
0.0226701
0.0241934
0.0255822
0.0267193
0.0272917
0.0274462
0.026956
0.0259457
0.0239133
0.0212714
0.018207
0.0149636
0.0118112
0.00898969
0.00665445
0.00485135
0.00353321
0.00259109
0.00192305
0.00143673
0.00107843
0.000921041
0.00153734
0.0018718
0.00140112
0.00145089
0.00154351
0.00163985
0.00176906
0.00198056
0.00233693
0.0029099
0.00376863
0.0049582
0.00647766
0.00826941
0.0102213
0.0121745
0.0139345
0.0152915
0.0159565
0.0161523
0.0160874
0.0155503
0.0145209
0.0134035
0.0123945
0.0114788
0.0106996
0.0100276
0.00946538
0.00898942
0.00858921
0.00825637
0.00797715
0.00774426
0.00755136
0.00739367
0.00726739
0.00716871
0.00709619
0.0070572
0.00704121
0.00703974
0.00707444
0.00713402
0.00722774
0.00735514
0.00752372
0.00773891
0.00801011
0.00834843
0.00876941
0.00929222
0.00993968
0.0107369
0.0117079
0.012869
0.0142481
0.0158463
0.0176332
0.0195564
0.0215605
0.0235207
0.0252823
0.0265088
0.0270153
0.027021
0.0261189
0.0240231
0.0211238
0.0176803
0.014043
0.0105927
0.0076382
0.00533956
0.00369615
0.00259337
0.00185142
0.00136116
0.00104095
0.000913401
0.00149281
0.00269089
0.00189758
0.00191888
0.00203788
0.00219127
0.00240943
0.00275664
0.00330978
0.00414501
0.005316
0.00682777
0.00861851
0.0105576
0.0124592
0.0141069
0.0151865
0.0156252
0.0156981
0.0153377
0.0144277
0.0132181
0.0120786
0.011035
0.010137
0.00935909
0.00870036
0.00813445
0.00765268
0.00723737
0.00688064
0.00657273
0.00630598
0.00607555
0.00587715
0.00570786
0.00556489
0.00544552
0.00534878
0.00527408
0.00521892
0.00519019
0.00517964
0.00518282
0.0052198
0.00527786
0.00536572
0.00548504
0.00564201
0.005842
0.00609237
0.00640398
0.00679137
0.00727581
0.00789009
0.00868359
0.00969659
0.0109936
0.012613
0.0145401
0.0167794
0.0192292
0.0217678
0.0242053
0.0262463
0.0272889
0.027609
0.0269317
0.0247024
0.0214176
0.0174471
0.0133016
0.00950315
0.00642295
0.00419517
0.00274294
0.00185393
0.00129851
0.000977276
0.000878063
0.00138764
0.00374326
0.00248617
0.00248332
0.00265007
0.00288047
0.00321373
0.00372587
0.00449894
0.00559608
0.00703298
0.00875427
0.010626
0.0124485
0.0139878
0.0148727
0.0151738
0.0151797
0.0145723
0.0134283
0.0121673
0.0109863
0.00994777
0.00904555
0.00827862
0.00761955
0.0070557
0.0065679
0.00614715
0.00578196
0.00546633
0.00519336
0.00495858
0.00475813
0.00458835
0.00444626
0.00432939
0.00423573
0.00416348
0.00411093
0.00407987
0.0040664
0.00406364
0.00408156
0.00411863
0.0041736
0.00424877
0.00434523
0.00446569
0.00461304
0.00479159
0.00500686
0.00526653
0.00558093
0.00596406
0.00643747
0.00703201
0.00779778
0.00882032
0.0102423
0.0121252
0.0144986
0.0173066
0.0203885
0.0235297
0.0263469
0.0280532
0.0286934
0.0282482
0.0257923
0.0219675
0.0173236
0.0125964
0.00845426
0.00530575
0.00321492
0.00198331
0.0013016
0.000928363
0.0008217
0.00126925
0.00503919
0.00317445
0.00315716
0.00338572
0.00371122
0.00417741
0.00486547
0.00584903
0.00715926
0.00875632
0.0105164
0.0122414
0.0136912
0.0144857
0.0147414
0.0146192
0.0138496
0.0125951
0.0113198
0.0101143
0.00906644
0.00816831
0.0074007
0.00674645
0.00618365
0.00570037
0.0052841
0.00492772
0.0046235
0.00436629
0.00415049
0.0039718
0.0038258
0.00370871
0.00361696
0.00354743
0.00349739
0.003466
0.00345136
0.00344715
0.00345527
0.00347849
0.00351419
0.00356306
0.00362493
0.00370084
0.00379188
0.00389954
0.00402581
0.00417319
0.00434498
0.00454553
0.00478077
0.00505896
0.00538899
0.00578592
0.00627354
0.00689047
0.0077002
0.00880934
0.0104283
0.0127437
0.0157528
0.0193264
0.0231596
0.0268312
0.0292245
0.0301651
0.0298924
0.0270859
0.0225279
0.0170999
0.0117782
0.00736745
0.00426069
0.00238671
0.00139949
0.000928287
0.000773542
0.00117294
0.00659957
0.00397759
0.00394524
0.00424358
0.00467385
0.0052758
0.00612569
0.00727369
0.00870435
0.0103158
0.0119245
0.013295
0.0140507
0.0142938
0.0141012
0.0132382
0.0119609
0.0106415
0.00942916
0.00836472
0.00746366
0.00669692
0.00604468
0.00548909
0.00501528
0.00461399
0.00427625
0.00399541
0.00376439
0.00357723
0.00342775
0.00331059
0.00322062
0.00315348
0.00310541
0.00307371
0.00305809
0.00305244
0.0030535
0.00306863
0.00309192
0.00312592
0.00316941
0.0032236
0.00328887
0.00336646
0.00345758
0.00356361
0.0036861
0.00382673
0.00398738
0.00417016
0.00437755
0.00461279
0.00488063
0.00518844
0.00554823
0.00598013
0.00651213
0.0071944
0.00812067
0.00945515
0.0115274
0.0145976
0.0185448
0.0230749
0.0276496
0.0307225
0.0319238
0.0316706
0.0283066
0.0228412
0.0165671
0.0107169
0.00619997
0.00328312
0.00170814
0.000990535
0.000761846
0.00114254
0.00850148
0.00492194
0.00484397
0.00521074
0.00574376
0.00646602
0.00743727
0.00867243
0.0101034
0.0115733
0.0128616
0.0136021
0.0138457
0.0136333
0.0127356
0.0114823
0.0101364
0.00889792
0.00782154
0.00690753
0.00613963
0.00548982
0.00494215
0.00448218
0.0040992
0.00378451
0.00352936
0.00332579
0.00316576
0.00304204
0.00294787
0.00287753
0.00282614
0.00278986
0.00276575
0.0027537
0.00274905
0.00274867
0.00275837
0.00277551
0.00280012
0.00283323
0.00287521
0.00292728
0.00299041
0.003066
0.00315547
0.0032604
0.00338247
0.00352342
0.003685
0.00386892
0.00407672
0.00430977
0.00456935
0.00485711
0.00517605
0.00553267
0.00594091
0.00642796
0.0070415
0.00785535
0.00902592
0.0108352
0.0138305
0.0180837
0.0232936
0.0288
0.0324894
0.033876
0.0334239
0.0291668
0.0226441
0.0155167
0.00933479
0.00495405
0.00240107
0.00119871
0.000797938
0.00118691
0.0106166
0.00596846
0.00583278
0.00626245
0.00688421
0.00769345
0.00872405
0.0099502
0.0112556
0.0124464
0.0131758
0.0134224
0.0132252
0.0123613
0.0111363
0.00978607
0.00851417
0.00741356
0.00648438
0.00570743
0.00505901
0.00451786
0.00407102
0.003706
0.00341252
0.00318038
0.00299957
0.00286074
0.00275524
0.00267571
0.00261597
0.00257118
0.00253767
0.00251287
0.00249511
0.00248388
0.00247851
0.00247697
0.00248182
0.00249375
0.00251277
0.00253987
0.002576
0.00262235
0.00268014
0.0027508
0.00283592
0.00293721
0.00305658
0.00319607
0.00335779
0.00354388
0.00375627
0.00399655
0.00426569
0.0045639
0.0048906
0.00524511
0.00562848
0.00604751
0.00652238
0.0070989
0.00785426
0.00892831
0.0106105
0.0134682
0.0179833
0.0238683
0.0303229
0.0344613
0.0358897
0.0349099
0.0293916
0.0216234
0.0138091
0.00763667
0.00368778
0.00167762
0.000935126
0.00136809
0.0128837
0.0070932
0.00688631
0.00736595
0.00805105
0.00889978
0.0099151
0.0110327
0.0121011
0.0128077
0.0130527
0.0129027
0.0121101
0.0109217
0.00957369
0.00827054
0.00713159
0.00617787
0.00538613
0.00473238
0.00419479
0.00375689
0.00340596
0.00312907
0.00291436
0.00275006
0.00262536
0.00253082
0.00245854
0.00240233
0.00235755
0.00232097
0.00229048
0.00226488
0.00224364
0.00222671
0.00221432
0.00220821
0.00220634
0.00221028
0.00222277
0.00224318
0.00227281
0.00231272
0.00236409
0.00242834
0.00250701
0.0026019
0.00271507
0.0028488
0.00300566
0.00318836
0.00339967
0.00364217
0.00391795
0.00422814
0.00457244
0.0049488
0.00535358
0.00578304
0.0062372
0.00672822
0.00729578
0.00802702
0.00905458
0.0106792
0.0135037
0.018294
0.0248975
0.0322899
0.0365313
0.0377785
0.0357328
0.0285537
0.0195434
0.011443
0.0057311
0.00256966
0.00126371
0.00179735
0.0152288
0.00826734
0.00797391
0.00848332
0.00919724
0.0100295
0.0109515
0.011868
0.0125242
0.0127599
0.012671
0.0119658
0.0108352
0.00949414
0.00815951
0.00697226
0.00597896
0.00516326
0.00449629
0.00395519
0.00352077
0.00317768
0.00291155
0.00270808
0.00255409
0.00243749
0.00234816
0.00227797
0.00222082
0.00217242
0.00212999
0.0020919
0.0020574
0.00202633
0.00199891
0.00197559
0.00195694
0.00194414
0.00193809
0.00193652
0.00194268
0.00195802
0.00198197
0.00201603
0.00206104
0.00211835
0.0021894
0.00227594
0.00238005
0.00250416
0.00265109
0.00282405
0.00302656
0.00326231
0.00353484
0.00384714
0.00420093
0.00459588
0.00502883
0.00549352
0.0059817
0.00648707
0.00701437
0.00759742
0.00832782
0.00934992
0.0109837
0.0139099
0.0191059
0.0265598
0.0346764
0.0385701
0.0393851
0.0354688
0.0262615
0.0163875
0.00862115
0.00394079
0.00184833
0.00247455
0.017579
0.00945974
0.00906216
0.0095751
0.0102775
0.0110345
0.0117873
0.0123637
0.0125851
0.012523
0.0119255
0.0108669
0.00954629
0.0081795
0.00693464
0.00588555
0.00503116
0.00434092
0.00378717
0.00334855
0.00300651
0.00274453
0.0025465
0.00239743
0.00228427
0.00219618
0.00212491
0.00206447
0.00201091
0.00196185
0.00191611
0.00187329
0.0018335
0.00179714
0.00176477
0.00173696
0.0017143
0.00169734
0.00168804
0.00168452
0.00168573
0.0016976
0.00171717
0.00174626
0.00178547
0.00183597
0.00189907
0.00197641
0.00206995
0.00218211
0.00231576
0.00247434
0.00266181
0.00288268
0.00314176
0.00344389
0.00379331
0.00419272
0.00464212
0.00513747
0.00566986
0.00622623
0.00679354
0.00736915
0.00798321
0.00873601
0.00978584
0.0114968
0.0146775
0.0205088
0.0290879
0.0373021
0.0405393
0.0405592
0.0334274
0.0224262
0.0124353
0.00583928
0.00268736
0.00334072
0.0198954
0.0106397
0.0101178
0.0106035
0.0112523
0.0118783
0.0123681
0.0125686
0.0124828
0.0119961
0.0110118
0.00972633
0.00833362
0.00702232
0.00590045
0.00498863
0.00426078
0.0036836
0.00323135
0.00288273
0.00261832
0.00242015
0.00227157
0.00215829
0.00206888
0.00199476
0.00193005
0.00187103
0.00181566
0.00176308
0.00171315
0.00166619
0.0016227
0.00158325
0.00154839
0.0015186
0.00149433
0.00147592
0.00146486
0.00146016
0.00145954
0.00146847
0.00148491
0.00150987
0.00154398
0.00158821
0.00164372
0.00171195
0.00179472
0.00189428
0.00201338
0.0021554
0.00232442
0.0025253
0.00276362
0.00304557
0.00337753
0.00376533
0.00421304
0.00472126
0.00528514
0.00589284
0.00652582
0.00716335
0.00779502
0.00844972
0.00924401
0.0103529
0.0122236
0.0158345
0.0225032
0.0324476
0.0403051
0.042672
0.0401008
0.0293969
0.0172904
0.00834279
0.00380629
0.0043415
0.0221209
0.0117761
0.0111083
0.0115352
0.0120918
0.0125141
0.0126828
0.0125802
0.0121743
0.0112721
0.0100311
0.00862447
0.00724378
0.00603172
0.0050406
0.00425598
0.0036415
0.00316482
0.00280078
0.00252713
0.00232345
0.00217139
0.00205527
0.00196277
0.00188491
0.0018157
0.00175154
0.0016906
0.00163224
0.00157652
0.00152387
0.00147485
0.00143001
0.00138986
0.00135477
0.00132507
0.00130098
0.0012827
0.00127118
0.001266
0.0012649
0.00127164
0.00128572
0.00130726
0.00133698
0.00137565
0.00142427
0.00148412
0.00155681
0.00164434
0.00174923
0.00187464
0.00202446
0.00220351
0.00241757
0.00267351
0.00297907
0.00334247
0.00377147
0.0042718
0.00484478
0.00548454
0.00617555
0.00689256
0.00760594
0.008298
0.00900199
0.00985105
0.011061
0.0132258
0.0175815
0.0254142
0.0367392
0.0430194
0.0440848
0.036806
0.0232976
0.0116071
0.00525406
0.00542963
0.0241738
0.0128397
0.0120072
0.012347
0.0127624
0.0129391
0.012862
0.0124509
0.0116456
0.0104613
0.00905355
0.00760876
0.00629313
0.0051983
0.0043329
0.00366267
0.00314839
0.00275878
0.00246818
0.00225341
0.00209397
0.00197257
0.00187566
0.00179356
0.00171996
0.00165118
0.00158549
0.00152237
0.00146199
0.00140486
0.00135155
0.0013026
0.00125844
0.00121937
0.00118559
0.00115721
0.00113432
0.00111696
0.00110575
0.00110059
0.00109932
0.00110456
0.00111671
0.00113541
0.00116136
0.00119519
0.00123778
0.00129023
0.00135394
0.00143066
0.00152264
0.00163268
0.00176436
0.00192215
0.00211164
0.00233973
0.00261469
0.00294611
0.00334438
0.00381956
0.00437929
0.00502561
0.00575092
0.00653442
0.00734178
0.00813278
0.00888503
0.00964544
0.0105602
0.0119442
0.0146262
0.0201959
0.0298975
0.0411442
0.0454415
0.0435351
0.0303766
0.0158087
0.00707723
0.00656887
0.0259796
0.0138031
0.0127927
0.0130186
0.0132371
0.0132221
0.0128448
0.0121392
0.0110148
0.00962315
0.0081255
0.00670162
0.00547987
0.00450477
0.00375461
0.00318547
0.00275804
0.00244135
0.00220906
0.00203797
0.00190866
0.00180603
0.00171927
0.00164144
0.00156858
0.00149886
0.00143181
0.00136765
0.00130692
0.00125021
0.00119802
0.00115073
0.00110855
0.0010716
0.0010399
0.00101343
0.000992149
0.000976001
0.000965392
0.000960428
0.00095909
0.000963219
0.000973713
0.000989998
0.0010127
0.00104238
0.00107977
0.00112583
0.00118177
0.00124912
0.00132981
0.00142633
0.00154181
0.00168029
0.00184689
0.00204812
0.00229213
0.00258888
0.00295012
0.0033888
0.0039177
0.00454662
0.00527801
0.0061013
0.00698779
0.00789032
0.00875539
0.00955956
0.0103797
0.0113849
0.0130515
0.0165437
0.0237905
0.0360289
0.0453737
0.0472506
0.0380803
0.0211093
0.00932117
0.00776005
0.0274973
0.0146456
0.0134451
0.0135241
0.013589
0.0133493
0.0127211
0.0116884
0.0103309
0.00880037
0.0072734
0.0059087
0.00479285
0.00393174
0.00328447
0.0028032
0.00244915
0.00219133
0.0020033
0.0018629
0.00175288
0.00166085
0.00157882
0.00150227
0.0014291
0.00135875
0.00129143
0.0012277
0.00116817
0.00111329
0.00106341
0.00101868
0.000979135
0.000944736
0.000915377
0.000890938
0.000871302
0.000856375
0.000846379
0.000841619
0.000840239
0.000843444
0.000852486
0.000866687
0.000886598
0.000912697
0.000945638
0.000986245
0.00103556
0.00109491
0.00116597
0.00125088
0.00135239
0.00147403
0.00162036
0.00179728
0.00201239
0.00227533
0.00259811
0.00299507
0.0034823
0.00407569
0.0047873
0.00561921
0.00655569
0.00755611
0.0085555
0.00948541
0.0103308
0.0112034
0.0123548
0.0145298
0.0194508
0.0291602
0.0427734
0.0484888
0.0453516
0.0275975
0.0120553
0.0089864
0.0287048
0.0153636
0.0139568
0.0138852
0.0137948
0.0133256
0.0124518
0.0111676
0.00963294
0.00802134
0.00650931
0.00522572
0.00421715
0.00346036
0.00290328
0.00249701
0.00220331
0.00199134
0.00183554
0.00171575
0.00161739
0.00153093
0.00145088
0.00137464
0.00130142
0.00123136
0.00116503
0.001103
0.00104575
0.000993572
0.00094659
0.000904789
0.00086806
0.000836243
0.000809158
0.000786629
0.000768504
0.000754668
0.000745189
0.000740581
0.000739148
0.000741535
0.000749285
0.000761669
0.000779162
0.00080219
0.000831323
0.000867283
0.000910978
0.000963554
0.00102646
0.00110156
0.00119121
0.00129849
0.00142738
0.00158311
0.00177251
0.00200451
0.00229062
0.00264537
0.00308634
0.00363335
0.0043059
0.00511805
0.0060699
0.0071366
0.008259
0.00934731
0.0103179
0.0111775
0.0121192
0.013552
0.0166826
0.0238872
0.0372269
0.0483892
0.0501688
0.0352689
0.0154617
0.0103435
0.0295978
0.015957
0.0143292
0.014111
0.0138583
0.0132137
0.0120881
0.0106085
0.0089488
0.00730261
0.00583557
0.00464319
0.00373714
0.00307348
0.00259425
0.00225074
0.00200534
0.001828
0.00169487
0.00158837
0.00149678
0.00141315
0.00133404
0.00125823
0.0011857
0.00111696
0.00105261
0.000993119
0.000938776
0.000889677
0.000845772
0.000806911
0.000772887
0.000743472
0.000718445
0.000697606
0.00068079
0.000667879
0.000658803
0.000654282
0.000652773
0.000654422
0.000661016
0.00067181
0.000687204
0.000707583
0.000733451
0.000765444
0.000804359
0.000851199
0.000907227
0.000974047
0.00105371
0.00114888
0.001263
0.00140065
0.00156785
0.00177262
0.00202556
0.00234058
0.00273539
0.00323165
0.00385369
0.00462502
0.00556079
0.00665596
0.00787038
0.00911797
0.0102786
0.0112605
0.0120883
0.0131687
0.0151641
0.0200779
0.0307386
0.0462308
0.0522222
0.0437343
0.0198631
0.0120969
0.0301909
0.0164244
0.0145743
0.0142102
0.0138147
0.0129817
0.0116679
0.0100375
0.00829765
0.00665208
0.0052486
0.00414956
0.00333799
0.00275603
0.00234302
0.00205102
0.00184339
0.00169152
0.00157392
0.00147579
0.0013881
0.00130608
0.0012278
0.00115294
0.0010819
0.00101527
0.000953556
0.000897045
0.000845836
0.00079986
0.000758937
0.000722827
0.000691262
0.000663983
0.00064075
0.000621359
0.000605643
0.000593483
0.000584794
0.000580261
0.000578655
0.000579642
0.000585202
0.0005946
0.000608167
0.000626253
0.000649307
0.000677896
0.000712727
0.000754686
0.000804881
0.000864714
0.000935972
0.00102096
0.00112266
0.00124505
0.00139339
0.00157474
0.00179866
0.00207793
0.00242951
0.0028753
0.00344208
0.00415971
0.00505565
0.00614403
0.00740837
0.00878156
0.010137
0.0113189
0.012272
0.0130874
0.014476
0.017654
0.0256545
0.0414227
0.0526519
0.0515846
0.0255545
0.0144588
0.0304844
0.0167715
0.0147039
0.0141956
0.0136835
0.0126766
0.011214
0.00947433
0.00769133
0.00607164
0.00474157
0.00373296
0.00300641
0.00249513
0.00213767
0.00188724
0.00170856
0.00157508
0.00146793
0.00137507
0.00128978
0.00120899
0.00113184
0.00105852
0.0009896
0.000925589
0.000866825
0.000813423
0.000765314
0.000722306
0.00068413
0.000650493
0.0006211
0.000595677
0.000573984
0.000555822
0.000541029
0.000529492
0.000521134
0.000516542
0.00051483
0.000515242
0.000519879
0.000528051
0.000540022
0.000556112
0.000576726
0.000602373
0.000633689
0.000671463
0.000716681
0.000770581
0.000834729
0.000911134
0.0010024
0.00111197
0.00124442
0.00140593
0.00160493
0.00185295
0.00216566
0.0025641
0.00307559
0.00373343
0.00457387
0.00562758
0.00690326
0.00836335
0.00989896
0.01133
0.0124831
0.0132879
0.01426
0.01634
0.0220118
0.0350367
0.0521191
0.0565022
0.0330866
0.0174101
0.0304653
0.0169957
0.0147283
0.0141134
0.0134539
0.0123208
0.0107453
0.00893286
0.00713621
0.00555935
0.00430626
0.0033822
0.00273085
0.00228
0.00196857
0.00175118
0.0015944
0.00147403
0.00137392
0.00128448
0.00120091
0.00112141
0.0010458
0.000974504
0.000908083
0.000846921
0.000791175
0.000740802
0.000695607
0.000655311
0.000619594
0.000588135
0.000560631
0.000536809
0.000516437
0.000499322
0.000485315
0.000474306
0.000466226
0.000461546
0.000459708
0.000459681
0.000463484
0.000470577
0.000481152
0.000495497
0.000513981
0.000537066
0.00056533
0.000599485
0.000640418
0.000689235
0.000747326
0.000816464
0.000898931
0.000997721
0.00111682
0.00126162
0.00143951
0.0016607
0.00193939
0.00229514
0.00275445
0.0033518
0.00412868
0.00512812
0.00638093
0.00788059
0.0095494
0.0112143
0.0126367
0.0136171
0.0142743
0.0157486
0.019525
0.0295896
0.0490737
0.0586316
0.0426202
0.0208285
0.0303014
0.0171381
0.0146895
0.013937
0.0131639
0.0119316
0.0102766
0.00842243
0.00663462
0.00511098
0.00393415
0.00308722
0.00250149
0.00210182
0.0018281
0.00163672
0.00149633
0.00138529
0.00128998
0.00120295
0.00112089
0.00104289
0.000969147
0.000900179
0.000836438
0.000778153
0.000725325
0.000677781
0.000635241
0.000597369
0.000563819
0.000534261
0.000508394
0.000485956
0.000466723
0.000450516
0.000437191
0.000426648
0.000418821
0.000414025
0.000411985
0.000411733
0.000414761
0.000420905
0.000430254
0.000443066
0.00045968
0.000480518
0.000506109
0.000537105
0.000574312
0.000618732
0.000671616
0.000734543
0.000809535
0.000899225
0.0010071
0.00113786
0.00129795
0.00149638
0.00174578
0.00206397
0.00247582
0.00301525
0.00372613
0.00465985
0.00586547
0.00736714
0.00912624
0.0109951
0.0126996
0.0140041
0.0146937
0.0155765
0.0181214
0.0258924
0.0436126
0.0590804
0.0526554
0.0243338
0.0299402
0.017217
0.0145854
0.0136957
0.0128292
0.0115237
0.00981854
0.00794863
0.00618623
0.00472119
0.0036171
0.00283923
0.00231017
0.00195345
0.00171038
0.00153929
0.00141115
0.00130679
0.00121488
0.00112975
0.00104919
0.000972896
0.000901245
0.000834735
0.000773683
0.000718167
0.000668059
0.000623091
0.000582923
0.000547191
0.000515538
0.000487636
0.000463194
0.000441959
0.000423721
0.000408309
0.000395587
0.000385457
0.000377853
0.000372961
0.000370751
0.000370321
0.000372683
0.000377991
0.000386263
0.000397725
0.000412688
0.000431542
0.000454775
0.000482989
0.000516926
0.000557503
0.000605861
0.000663428
0.000732018
0.000813967
0.00091235
0.00103129
0.00117643
0.00135566
0.00158015
0.00186588
0.00223569
0.00272185
0.00336831
0.00423105
0.00537236
0.00684299
0.00864596
0.0106823
0.0127016
0.0143093
0.0151466
0.0157192
0.0174403
0.0228665
0.0380771
0.0582679
0.060982
0.0271212
0.0293785
0.0172136
0.0144115
0.0134082
0.0124643
0.0111089
0.00937908
0.0075143
0.00578892
0.00438422
0.00334764
0.00263073
0.00215016
0.00182921
0.00161089
0.00145559
0.00133659
0.0012371
0.00114775
0.00106426
0.000985272
0.000910819
0.000841363
0.000777311
0.000718845
0.000665911
0.000618279
0.000575617
0.000537549
0.000503696
0.000473702
0.000447247
0.00042405
0.000403871
0.000386512
0.000371806
0.000359625
0.00034987
0.000342477
0.000337522
0.000335173
0.000334591
0.000336393
0.000340968
0.000348291
0.000358562
0.000372063
0.000389157
0.000410297
0.000436042
0.000467083
0.00050427
0.000548656
0.000601549
0.000664596
0.000739902
0.000830207
0.000939155
0.00107171
0.00123478
0.00143821
0.0016962
0.00202942
0.00246784
0.00305398
0.00384538
0.0049128
0.00632767
0.00813001
0.0102715
0.0125461
0.0145589
0.0156981
0.0162218
0.017221
0.020934
0.0327786
0.0560566
0.0652111
0.0283873
0.0286477
0.0171788
0.0142008
0.0130888
0.0120816
0.0106967
0.00896344
0.00712025
0.00543959
0.00409437
0.00311917
0.0024554
0.00201598
0.00172465
0.00152621
0.00138317
0.00127106
0.0011752
0.00108789
0.00100593
0.000928566
0.000856022
0.000788756
0.000727069
0.000671016
0.000620436
0.000575026
0.000534408
0.000498188
0.000465983
0.000437442
0.000412256
0.000390157
0.000370914
0.000354337
0.000340267
0.000328578
0.000319173
0.000311986
0.000307005
0.00030454
0.000303827
0.000305165
0.0003091
0.000315589
0.000324805
0.000337009
0.000352537
0.00037181
0.000395353
0.000423813
0.000457985
0.000498851
0.000547625
0.000605825
0.000675371
0.000758737
0.000859179
0.000981091
0.00113056
0.00131625
0.00155073
0.0018525
0.00224896
0.00278026
0.00350333
0.00449363
0.00583825
0.00761019
0.00981282
0.0122944
0.0146703
0.0162013
0.0168092
0.0172988
0.0199003
0.0292083
0.0518726
0.0667344
0.0286
0.0277894
0.0170982
0.0139632
0.0127496
0.0116914
0.010294
0.00857484
0.00676586
0.00513457
0.0038463
0.00292597
0.00230801
0.00190321
0.00163625
0.00145373
0.00132023
0.00121337
0.0011203
0.00103471
0.000954239
0.000878504
0.000807857
0.000742698
0.000683222
0.000629374
0.00058091
0.000537473
0.000498658
0.000464061
0.000433301
0.000406038
0.000381973
0.000360846
0.000342439
0.000326566
0.000313073
0.000301835
0.000292756
0.000285765
0.00028082
0.000278246
0.000277419
0.000278374
0.000281751
0.000287507
0.000295792
0.000306844
0.000320975
0.00033858
0.000360152
0.0003863
0.000417774
0.000455498
0.00050061
0.000554528
0.000619027
0.000696372
0.000789509
0.000902372
0.00104036
0.00121111
0.00142573
0.0017007
0.00206077
0.00254313
0.00320256
0.00411579
0.00538009
0.00709499
0.0093132
0.0119533
0.0146973
0.0167249
0.0175249
0.0178498
0.0194265
0.0265255
0.0470762
0.0667828
0.028026
0.0268378
0.0169884
0.0137096
0.0124008
0.0113022
0.00990621
0.00821493
0.00644961
0.00487013
0.00363514
0.00276311
0.0021842
0.00180831
0.00156128
0.00139148
0.00126542
0.00116261
0.00107178
0.0009877
0.000908651
0.000834522
0.0007657
0.000702515
0.000645063
0.0005932
0.000546617
0.000504921
0.00046769
0.000434517
0.000405028
0.000378892
0.000355818
0.000335559
0.000317901
0.000302664
0.000289697
0.000278876
0.000270102
0.000263302
0.000258429
0.000255759
0.000254833
0.000255475
0.00025837
0.000263482
0.000270944
0.000280973
0.00029386
0.000309974
0.00032978
0.000353852
0.000382901
0.000417803
0.000459637
0.000509738
0.00056977
0.000641837
0.000728641
0.000833746
0.000961987
0.00112014
0.00131804
0.0015703
0.00189915
0.00233862
0.00294036
0.00378016
0.00496103
0.00660256
0.00879898
0.0115322
0.014561
0.0171537
0.0182281
0.0184904
0.0192913
0.0245386
0.0426787
0.0645697
0.0270713
0.0258242
0.0168637
0.0134492
0.012051
0.0109206
0.00953697
0.0078843
0.00616938
0.00464235
0.00345654
0.00262649
0.00208045
0.00172845
0.00149759
0.00133793
0.0012177
0.00111807
0.00102907
0.000946355
0.000868672
0.000796081
0.000728969
0.000667595
0.000611966
0.000561867
0.000516944
0.000476775
0.000440933
0.00040901
0.00038064
0.000355499
0.000333306
0.000313822
0.000296837
0.000282176
0.000269689
0.000259252
0.000250766
0.000244153
0.000239362
0.000236616
0.000235604
0.000235991
0.00023847
0.000243019
0.000249755
0.000258878
0.000270657
0.000285439
0.000303661
0.000325868
0.000352735
0.000385096
0.000423978
0.000470654
0.000526699
0.000594093
0.00067535
0.000773744
0.000893655
0.00104115
0.00122496
0.00145807
0.00176031
0.00216253
0.00271273
0.00348397
0.0045815
0.00613974
0.00829005
0.0110741
0.0143005
0.0174366
0.0189977
0.019333
0.0195323
0.0231749
0.0387529
0.0614787
0.0259183
0.0247515
0.0167417
0.0131922
0.0117076
0.0105518
0.00918878
0.00758265
0.00592282
0.00444778
0.00330667
0.00251266
0.00199387
0.00166135
0.00144351
0.00129189
0.00117625
0.00107914
0.000991686
0.000910223
0.000833831
0.00076268
0.000697138
0.000637395
0.000583386
0.000534841
0.00049137
0.000452538
0.00041791
0.000387082
0.000359696
0.000335435
0.000314025
0.000295232
0.000278852
0.000264711
0.000252661
0.000242577
0.000234357
0.000227923
0.000223218
0.00022041
0.00021932
0.000219502
0.000221624
0.00022568
0.000231777
0.000240098
0.000250893
0.000264488
0.000281293
0.000301826
0.00032673
0.000356799
0.000393018
0.000436605
0.000489067
0.000552287
0.000628639
0.000721171
0.000833906
0.000972336
0.00114426
0.00136124
0.00164094
0.00201118
0.00251602
0.00322471
0.00424166
0.00571053
0.00779383
0.0105976
0.0140185
0.0175537
0.0197366
0.0202244
0.0201693
0.0224463
0.0353233
0.0577918