/*--------------------------------*- C++ -*----------------------------------*\
  =========                 |
  \\      /  F ield         | OpenFOAM: The Open Source CFD Toolbox
   \\    /   O peration     | Website:  https://openfoam.org
    \\  /    A nd           | Version:  13
     \\/     M anipulation  |
\*---------------------------------------------------------------------------*/
FoamFile
{
    format      ascii;
    class       volScalarField;
    location    "7.3";
    object      p;
}
// * * * * * * * * * * * * * * * * * * * * * * * * * * * * * * * * * * * * * //

dimensions      [0 2 -2 0 0 0 0];

internalField   nonuniform List<scalar> 
6400
(
7.14839e-09
1.97829e-05
2.87707e-05
1.38033e-05
-3.03716e-05
-9.86945e-05
-0.000181518
-0.000269743
-0.000357103
-0.000440505
-0.000520644
-0.000601712
-0.000688388
-0.000785842
-0.000899222
-0.00103261
-0.00118894
-0.00136992
-0.00157679
-0.00181025
-0.00207071
-0.0023595
-0.00267948
-0.00303513
-0.00343282
-0.00387723
-0.00436365
-0.00488319
-0.00541395
-0.00592098
-0.00639897
-0.00685568
-0.00728907
-0.00769642
-0.00807249
-0.00840879
-0.00869414
-0.00891553
-0.00905922
-0.00911154
-0.00905945
-0.00889174
-0.00860007
-0.00817986
-0.00762834
-0.00693834
-0.00610267
-0.00513697
-0.00405779
-0.00287229
-0.00160065
-0.000263869
0.00110931
0.0024867
0.00382836
0.00508915
0.00622464
0.00719327
0.00795517
0.00847856
0.00874442
0.0087498
0.0085075
0.00803902
0.0074022
0.00664975
0.00584675
0.00505663
0.00433646
0.0037167
0.00323239
0.00289563
0.00267642
0.00254832
0.00249291
0.00248617
0.0025087
0.00254525
0.00258511
0.00261238
-1.49672e-05
5.21764e-06
9.59308e-06
-1.03407e-05
-5.73637e-05
-0.000125634
-0.000204551
-0.000285597
-0.000363831
-0.000437922
-0.000509926
-0.000583894
-0.000664648
-0.000756905
-0.000864526
-0.000991035
-0.00113972
-0.00131307
-0.00151174
-0.00173595
-0.00198473
-0.00225859
-0.00256063
-0.00289344
-0.00326011
-0.00366771
-0.00412373
-0.00462699
-0.00516399
-0.00571086
-0.00623947
-0.00674012
-0.00721474
-0.00766024
-0.00807095
-0.00843831
-0.00875131
-0.00899756
-0.00916405
-0.00923832
-0.00920845
-0.00906434
-0.00879817
-0.00840393
-0.00787651
-0.00721196
-0.00641782
-0.00550071
-0.00446201
-0.00331854
-0.00208826
-0.000793973
0.000536705
0.00187076
0.00317063
0.0043963
0.0055053
0.00645566
0.00721102
0.00774088
0.00802577
0.00806182
0.00786084
0.0074493
0.00687207
0.00618363
0.00544588
0.0047186
0.00405485
0.00349663
0.00306341
0.00276267
0.00258166
0.00249627
0.0024816
0.0025114
0.0025545
0.00259323
0.00262574
0.00265157
-3.10577e-05
-8.63267e-06
-9.8644e-06
-3.88917e-05
-9.38894e-05
-0.000164743
-0.000239826
-0.000310982
-0.000375542
-0.000435175
-0.00049361
-0.000555778
-0.000626696
-0.000710131
-0.000808567
-0.000923808
-0.0010574
-0.00121158
-0.00138858
-0.00159112
-0.00182275
-0.00208668
-0.00238717
-0.00272915
-0.00311689
-0.00355288
-0.00403759
-0.00456729
-0.00513141
-0.00571262
-0.00629102
-0.00685062
-0.00738201
-0.00787865
-0.00833364
-0.00873802
-0.0090817
-0.0093538
-0.00954282
-0.00963746
-0.00962757
-0.00950428
-0.0092604
-0.00889064
-0.00839242
-0.00776516
-0.00700301
-0.00611974
-0.00512168
-0.00402088
-0.00283372
-0.00158147
-0.00029029
0.00100891
0.00228096
0.00348785
0.00458796
0.00554003
0.00630837
0.00686353
0.00718543
0.00726795
0.00712209
0.00677358
0.00626423
0.00564685
0.00497287
0.00431179
0.00370754
0.00319836
0.00280902
0.00255396
0.00242118
0.00238266
0.00240531
0.00246602
0.00253515
0.00259316
0.00264061
0.00267782
-3.97116e-05
-1.81825e-05
-2.68599e-05
-6.70241e-05
-0.000132125
-0.00020619
-0.000277675
-0.000340057
-0.000391967
-0.000435647
-0.000477252
-0.000523496
-0.000579885
-0.000650143
-0.000736003
-0.00083824
-0.000958203
-0.00109868
-0.00126354
-0.00145827
-0.00168989
-0.00196618
-0.00229457
-0.0026777
-0.00311793
-0.00361653
-0.00416964
-0.00476702
-0.00539312
-0.00603133
-0.00666515
-0.00727944
-0.00786182
-0.00840319
-0.00889522
-0.00932874
-0.00969496
-0.00998427
-0.0101867
-0.0102925
-0.0102931
-0.0101807
-0.00994888
-0.00959329
-0.00911221
-0.00850453
-0.00777015
-0.0069144
-0.00594438
-0.00487143
-0.00371101
-0.00248293
-0.00121127
7.57359e-05
0.00134519
0.00255938
0.00367752
0.00465951
0.00546782
0.00607185
0.00645013
0.00659256
0.00650737
0.00621995
0.00576929
0.00520427
0.00458089
0.00395979
0.00339104
0.00291347
0.0025515
0.00231642
0.00220085
0.00218883
0.00225143
0.00234748
0.00244857
0.00253697
0.00260846
0.00265813
-3.41951e-05
-1.99963e-05
-3.87387e-05
-9.0398e-05
-0.000165066
-0.000242063
-0.000309959
-0.0003637
-0.000403295
-0.000433039
-0.000460116
-0.000492124
-0.000535019
-0.000592473
-0.000666611
-0.000759221
-0.000873368
-0.00101474
-0.00119037
-0.00140831
-0.00167838
-0.00200617
-0.00239646
-0.00285367
-0.00337725
-0.0039614
-0.00459615
-0.00526713
-0.00595692
-0.00664935
-0.00732899
-0.00798337
-0.00860191
-0.00917415
-0.00969104
-0.0101439
-0.0105244
-0.0108239
-0.011034
-0.0111466
-0.0111541
-0.0110504
-0.0108294
-0.0104873
-0.010023
-0.00943607
-0.008727
-0.00789828
-0.00695527
-0.00590829
-0.00477225
-0.00356532
-0.00230853
-0.00102617
0.000251298
0.00148552
0.00263609
0.0036656
0.00453578
0.00521297
0.00567355
0.00590305
0.00590335
0.00569466
0.0053167
0.00481593
0.00424656
0.00366629
0.00312803
0.00267285
0.00232792
0.00210414
0.00199829
0.00199421
0.00206714
0.00218358
0.00231029
0.00242635
0.00252053
0.00257951
-5.8123e-06
-5.44409e-06
-3.6549e-05
-0.000101983
-0.00018488
-0.000263044
-0.000326986
-0.000373118
-0.000402673
-0.000421664
-0.00043842
-0.000460972
-0.000495443
-0.000546167
-0.000616916
-0.00071205
-0.000838041
-0.00100362
-0.00121968
-0.00149337
-0.00183228
-0.00224372
-0.00272934
-0.00328623
-0.00390571
-0.00457594
-0.00528477
-0.00601839
-0.00676147
-0.00749889
-0.00821658
-0.0089029
-0.00954771
-0.0101415
-0.0106758
-0.0111421
-0.0115321
-0.0118386
-0.0120548
-0.0121736
-0.0121889
-0.0120966
-0.0118912
-0.0115687
-0.0111302
-0.0105736
-0.00989896
-0.00910791
-0.00820428
-0.00719579
-0.00609574
-0.0049192
-0.00368275
-0.00240696
-0.00112188
0.000133066
0.0013215
0.00241084
0.00336046
0.00413249
0.00470266
0.00505111
0.00517449
0.00508284
0.00481037
0.00440387
0.00391515
0.0033981
0.00290576
0.00248203
0.00215675
0.00194375
0.00184192
0.00183787
0.00190883
0.00202641
0.00216014
0.00228664
0.00239055
0.00245267
5.571e-05
3.86451e-05
-8.61473e-06
-9.08851e-05
-0.000179113
-0.00025766
-0.000318419
-0.000359122
-0.00038295
-0.000397135
-0.000410588
-0.00043161
-0.000466968
-0.000522725
-0.000605622
-0.000723126
-0.000885498
-0.00110463
-0.00138877
-0.00174665
-0.00218482
-0.00270469
-0.00329768
-0.0039532
-0.00466125
-0.00540995
-0.00618564
-0.00697455
-0.00776304
-0.00853786
-0.00928655
-0.00999835
-0.0106636
-0.0112736
-0.0118204
-0.0122954
-0.0126905
-0.0130012
-0.0132219
-0.0133479
-0.0133758
-0.0133004
-0.013117
-0.0128226
-0.012417
-0.0118973
-0.0112638
-0.0105194
-0.00966927
-0.00871951
-0.00767564
-0.00654741
-0.0053496
-0.00410368
-0.00283523
-0.00157159
-0.000342596
0.000816557
0.00185666
0.00274333
0.0034507
0.00395117
0.00423682
0.00430811
0.00418837
0.00391797
0.00354692
0.00312666
0.00270769
0.00233516
0.00204176
0.00184473
0.00174623
0.00173778
0.00179825
0.00190401
0.00202796
0.00214685
0.00224521
0.00230209
0.000160478
0.000122952
5.40399e-05
-4.21078e-05
-0.000135851
-0.000215743
-0.000275432
-0.000314988
-0.000339319
-0.000356728
-0.000376569
-0.000407578
-0.000457866
-0.0005363
-0.000652577
-0.000818022
-0.00104466
-0.00134417
-0.00172482
-0.00219304
-0.00274568
-0.00337455
-0.0040693
-0.00481829
-0.00560871
-0.00642764
-0.00726193
-0.00809881
-0.00892593
-0.00973147
-0.0105045
-0.0112353
-0.0119144
-0.0125331
-0.0130839
-0.0135596
-0.013957
-0.0142725
-0.014501
-0.0146388
-0.0146817
-0.0146239
-0.0144617
-0.0141913
-0.0138207
-0.013341
-0.012754
-0.0120635
-0.0112744
-0.0103911
-0.00941558
-0.00835433
-0.00722049
-0.00603169
-0.00480575
-0.00356016
-0.00231965
-0.00112361
-3.04189e-06
0.00101367
0.00187732
0.00255799
0.0030422
0.00331874
0.00340088
0.00331537
0.00310583
0.0028215
0.00250943
0.00221467
0.00197223
0.00180292
0.00171318
0.00169766
0.00174213
0.00182757
0.00192931
0.00202795
0.00210623
0.00214841
0.000313829
0.000255676
0.000162096
5.23265e-05
-4.80422e-05
-0.000130863
-0.00019324
-0.000237504
-0.000270393
-0.000301196
-0.000339761
-0.000395704
-0.00047919
-0.000602094
-0.000777466
-0.00101739
-0.00133481
-0.00174096
-0.00223876
-0.00282414
-0.00349007
-0.00422505
-0.00501607
-0.00584976
-0.00671306
-0.00759309
-0.0084776
-0.00935469
-0.010213
-0.0110419
-0.0118315
-0.0125727
-0.0132563
-0.013875
-0.0144241
-0.0149019
-0.0153061
-0.0156296
-0.0158671
-0.0160138
-0.0160655
-0.0160211
-0.01588
-0.015643
-0.0153002
-0.0148597
-0.0143212
-0.0136858
-0.0129554
-0.0121332
-0.0112247
-0.0102364
-0.00917795
-0.0080618
-0.00690103
-0.00570594
-0.0044928
-0.0032886
-0.00211488
-0.00100938
-8.47997e-06
0.0008676
0.00156949
0.00208267
0.00240788
0.00255647
0.00255573
0.00244967
0.00228147
0.00209401
0.00192525
0.00179983
0.00172856
0.00171072
0.00173745
0.00179525
0.00186657
0.00193599
0.0019836
0.00200682
0.000523112
0.000442087
0.000321161
0.000196294
8.67624e-05
-1.97133e-06
-7.19401e-05
-0.00012827
-0.000179529
-0.000235951
-0.000308067
-0.000406761
-0.000544728
-0.000736648
-0.000996222
-0.00133573
-0.00176713
-0.00229461
-0.00291412
-0.00361737
-0.00439293
-0.00522635
-0.00610418
-0.00701279
-0.00793943
-0.00887161
-0.00979773
-0.0107066
-0.0115879
-0.0124319
-0.0132295
-0.0139732
-0.0146569
-0.0152764
-0.015827
-0.0163046
-0.0167037
-0.0170201
-0.0172518
-0.0173972
-0.0174542
-0.0174212
-0.0172983
-0.0170855
-0.0167787
-0.0163798
-0.0158905
-0.015312
-0.0146458
-0.0138942
-0.0130607
-0.0121503
-0.0111689
-0.0101234
-0.00902197
-0.00787728
-0.00670849
-0.0055308
-0.00435591
-0.00320402
-0.0021002
-0.00107831
-0.000176096
0.000590039
0.00118257
0.00160319
0.00185756
0.001974
0.00198989
0.00194323
0.00187248
0.00180868
0.00176829
0.00175593
0.00176766
0.00179648
0.00183311
0.00186591
0.00187995
0.00188435
0.000790946
0.000681063
0.000531748
0.000386647
0.000266181
0.000166784
8.28536e-05
5.67089e-06
-7.53064e-05
-0.000171264
-0.000293515
-0.000454787
-0.000669907
-0.000954075
-0.00132035
-0.0017793
-0.00233657
-0.00299033
-0.00373153
-0.00454749
-0.0054242
-0.00634686
-0.00730178
-0.00827553
-0.00925567
-0.0102302
-0.0111882
-0.0121192
-0.0130139
-0.0138639
-0.0146617
-0.0154012
-0.0160777
-0.0166868
-0.0172251
-0.0176895
-0.0180765
-0.0183836
-0.0186095
-0.0187531
-0.0188135
-0.0187898
-0.018682
-0.0184899
-0.0182126
-0.0178508
-0.0174058
-0.0168791
-0.0162722
-0.0155872
-0.0148269
-0.0139948
-0.0130947
-0.0121307
-0.0111073
-0.0100315
-0.00891271
-0.00776156
-0.00659503
-0.00543372
-0.00428796
-0.00317309
-0.0021091
-0.00113413
-0.000277017
0.000428614
0.000970726
0.00135253
0.00159509
0.00172831
0.00178547
0.00180196
0.00180495
0.00180645
0.00180949
0.00181191
0.00181326
0.001807
0.00178933
0.0017773
0.00110546
0.000966245
0.000782123
0.000613858
0.000478796
0.000364789
0.000259812
0.000151936
2.88636e-05
-0.00012138
-0.000311307
-0.000554946
-0.000867772
-0.00126382
-0.00175351
-0.00234273
-0.00303103
-0.00381023
-0.00466715
-0.0055874
-0.00655575
-0.00755755
-0.00857904
-0.00960705
-0.0106294
-0.0116348
-0.012613
-0.0135546
-0.0144517
-0.0152973
-0.0160856
-0.0168118
-0.0174722
-0.0180638
-0.0185843
-0.0190318
-0.0194041
-0.0196999
-0.0199184
-0.0200588
-0.0201206
-0.0201037
-0.0200081
-0.019834
-0.0195816
-0.0192516
-0.0188454
-0.0183641
-0.0178097
-0.0171838
-0.016489
-0.0157276
-0.0149026
-0.0140166
-0.0130726
-0.0120743
-0.0110256
-0.00993078
-0.00879709
-0.00763459
-0.00645831
-0.00529121
-0.00413546
-0.00300817
-0.0019376
-0.00096756
-0.000133077
0.000542103
0.00105191
0.0014074
0.0016317
0.00175507
0.00181482
0.00183794
0.00183729
0.0018184
0.00178768
0.00174597
0.00170193
0.00167584
0.00145264
0.00128251
0.00105904
0.000864748
0.000711477
0.000576939
0.000442813
0.000293789
0.000116036
-0.000103356
-0.000377362
-0.000720921
-0.00114823
-0.00167023
-0.00229307
-0.00301684
-0.00383447
-0.00473298
-0.00569723
-0.00671179
-0.00776113
-0.0088307
-0.0099068
-0.0109766
-0.0120286
-0.0130523
-0.0140385
-0.0149795
-0.0158687
-0.0167009
-0.0174717
-0.0181781
-0.0188175
-0.019388
-0.0198883
-0.0203171
-0.0206734
-0.0209566
-0.0211664
-0.0213023
-0.0213641
-0.0213522
-0.0212667
-0.0211081
-0.020877
-0.0205744
-0.0202015
-0.0197598
-0.0192508
-0.0186765
-0.0180388
-0.0173397
-0.0165812
-0.0157653
-0.0148936
-0.013968
-0.01299
-0.0119611
-0.0108829
-0.0097573
-0.00858847
-0.00738566
-0.00616475
-0.00494308
-0.00372888
-0.00255251
-0.00145566
-0.000486777
0.000316252
0.000933638
0.00136827
0.00163861
0.0017785
0.00183308
0.0018329
0.0017968
0.00173957
0.00166948
0.00160635
0.00157149
0.00181467
0.00161075
0.00134561
0.00112109
0.000945264
0.000783907
0.000612249
0.000411782
0.000167336
-0.000134195
-0.000506794
-0.000964381
-0.00151804
-0.00217438
-0.0029335
-0.00378924
-0.00472939
-0.00573816
-0.0067993
-0.00789674
-0.00901494
-0.0101395
-0.011257
-0.0123554
-0.013424
-0.0144537
-0.0154369
-0.0163676
-0.0172409
-0.0180532
-0.0188017
-0.0194846
-0.0201005
-0.0206484
-0.0211276
-0.0215376
-0.021878
-0.0221486
-0.0223495
-0.0224806
-0.0225419
-0.0225338
-0.0224569
-0.0223116
-0.0220989
-0.0218198
-0.0214756
-0.0210677
-0.0205977
-0.0200674
-0.0194787
-0.0188331
-0.0181324
-0.0173778
-0.0165702
-0.0157102
-0.0147977
-0.0138323
-0.012813
-0.0117385
-0.0106074
-0.00941906
-0.00817613
-0.00688921
-0.005581
-0.0042636
-0.00296314
-0.00173628
-0.000641907
0.000264278
0.000949487
0.00141258
0.00167307
0.00177893
0.0017876
0.00173732
0.0016579
0.0015662
0.00149092
0.00145088
0.00216706
0.00192797
0.00161777
0.00136111
0.00115859
0.000964174
0.000746881
0.000485788
0.000164713
-0.000230437
-0.000713262
-0.00129454
-0.00198127
-0.00277349
-0.0036655
-0.00464582
-0.00569857
-0.00680634
-0.00795212
-0.00911953
-0.0102932
-0.011459
-0.0126043
-0.0137182
-0.0147915
-0.0158167
-0.0167881
-0.0177013
-0.0185533
-0.0193418
-0.0200655
-0.0207235
-0.0213154
-0.0218408
-0.0222996
-0.0226918
-0.0230173
-0.0232763
-0.0234691
-0.0235958
-0.0236566
-0.0236519
-0.0235826
-0.023449
-0.0232522
-0.0229934
-0.0226737
-0.0222946
-0.0218577
-0.0213647
-0.0208173
-0.020217
-0.0195652
-0.0188629
-0.0181106
-0.0173081
-0.0164544
-0.0155478
-0.0145854
-0.0135638
-0.0124789
-0.0113262
-0.0101025
-0.00880755
-0.00744702
-0.00603491
-0.00459967
-0.00317359
-0.00182508
-0.000629834
0.000337434
0.00103597
0.00146709
0.00166352
0.00169648
0.00163864
0.00153921
0.0014291
0.00134626
0.00130205
0.00248301
0.00220896
0.00185331
0.00156247
0.00132906
0.00109527
0.000825309
0.000496174
9.01799e-05
-0.000407746
-0.00100804
-0.00171761
-0.00253712
-0.00346086
-0.00447781
-0.00557204
-0.00672522
-0.00791893
-0.00913569
-0.0103591
-0.0115741
-0.0127675
-0.0139277
-0.0150456
-0.0161135
-0.0171261
-0.0180793
-0.0189705
-0.0197982
-0.0205614
-0.0212597
-0.0218931
-0.0224618
-0.0229661
-0.0234061
-0.0237822
-0.0240946
-0.0243435
-0.0245293
-0.0246525
-0.0247131
-0.0247119
-0.0246494
-0.0245262
-0.0243434
-0.0241021
-0.0238035
-0.0234489
-0.02304
-0.0225784
-0.0220656
-0.0215032
-0.0208923
-0.0202338
-0.0195281
-0.0187747
-0.0179721
-0.0171179
-0.0162085
-0.0152388
-0.0142028
-0.0130936
-0.0119045
-0.0106299
-0.00926719
-0.00781891
-0.00630024
-0.00474423
-0.00320081
-0.00175209
-0.000496608
0.000476834
0.00112593
0.00146459
0.00155629
0.0015026
0.00138567
0.00125818
0.00116747
0.00111613
0.00274119
0.0024296
0.00202936
0.00170279
0.00143424
0.00115581
0.000828212
0.000425671
-7.23696e-05
-0.000678139
-0.00139808
-0.00223417
-0.00318099
-0.00422769
-0.00535823
-0.00655335
-0.0077931
-0.00905845
-0.0103317
-0.0115967
-0.0128394
-0.0140475
-0.0152114
-0.0163236
-0.0173786
-0.0183728
-0.019304
-0.0201709
-0.0209733
-0.0217112
-0.022385
-0.0229953
-0.0235428
-0.024028
-0.0244513
-0.0248134
-0.0251145
-0.0253551
-0.0255354
-0.0256559
-0.025717
-0.0257192
-0.025663
-0.0255494
-0.025379
-0.025153
-0.0248726
-0.0245391
-0.0241539
-0.0237186
-0.0232348
-0.0227038
-0.0221268
-0.0215046
-0.0208376
-0.0201251
-0.0193658
-0.018557
-0.0176947
-0.0167734
-0.015786
-0.0147242
-0.0135786
-0.0123401
-0.0110005
-0.00955616
-0.00801074
-0.00638241
-0.00471235
-0.0030701
-0.0015584
-0.00029702
0.00061715
0.00115309
0.00135377
0.0013282
0.00120165
0.00105587
0.000950449
0.000886129
0.00290894
0.00256622
0.00212452
0.00176173
0.00145478
0.00112862
0.000739821
0.000258684
-0.000333808
-0.00104704
-0.00188428
-0.00284064
-0.00390578
-0.00506362
-0.00629404
-0.00757544
-0.00888686
-0.0102089
-0.011524
-0.0128169
-0.0140744
-0.0152863
-0.0164446
-0.017544
-0.0185808
-0.0195531
-0.0204603
-0.0213023
-0.0220798
-0.0227937
-0.0234448
-0.0240341
-0.0245627
-0.0250311
-0.0254401
-0.0257903
-0.0260821
-0.0263159
-0.026492
-0.0266109
-0.0266731
-0.0266789
-0.0266289
-0.0265239
-0.0263646
-0.0261522
-0.0258876
-0.0255722
-0.0252073
-0.0247943
-0.0243347
-0.0238298
-0.0232808
-0.0226885
-0.0220533
-0.0213746
-0.0206513
-0.0198809
-0.0190593
-0.018181
-0.0172389
-0.016224
-0.0151256
-0.0139324
-0.0126325
-0.0112169
-0.00968147
-0.00803233
-0.00629535
-0.0045269
-0.00281841
-0.00129296
-9.00958e-05
0.000694708
0.0010647
0.00111042
0.000986351
0.000821657
0.000690493
0.000608714
0.00297192
0.00260132
0.00212164
0.00172289
0.00137612
0.00100047
0.00054765
-1.31879e-05
-0.000698741
-0.00151621
-0.00246354
-0.00353083
-0.00470227
-0.00595717
-0.00727231
-0.00862454
-0.00999229
-0.0113562
-0.0126992
-0.0140071
-0.0152686
-0.0164751
-0.0176209
-0.0187024
-0.0197177
-0.0206666
-0.0215494
-0.0223672
-0.0231212
-0.0238128
-0.0244434
-0.0250142
-0.0255262
-0.0259803
-0.0263772
-0.0267175
-0.0270018
-0.0272303
-0.0274035
-0.0275216
-0.0275853
-0.0275948
-0.0275507
-0.0274538
-0.0273047
-0.0271043
-0.0268537
-0.026554
-0.0262065
-0.0258126
-0.0253734
-0.0248904
-0.0243646
-0.0237969
-0.0231878
-0.0225369
-0.0218432
-0.0211046
-0.0203176
-0.0194768
-0.0185755
-0.0176045
-0.016553
-0.0154085
-0.0141573
-0.0127865
-0.011286
-0.00965247
-0.00789721
-0.00606002
-0.00422099
-0.0024881
-0.00100701
6.65179e-05
0.000659201
0.000828027
0.000734396
0.000551874
0.000383206
0.00028293
0.00291526
0.00252143
0.0020086
0.00157554
0.00118884
0.000762092
0.000244502
-0.0003931
-0.00116724
-0.00208208
-0.00312999
-0.00429613
-0.0055597
-0.00689622
-0.00828026
-0.00968768
-0.0110967
-0.0124883
-0.0138465
-0.0151585
-0.0164149
-0.0176091
-0.0187373
-0.0197977
-0.0207901
-0.0217151
-0.0225742
-0.023369
-0.0241014
-0.0247731
-0.0253855
-0.0259401
-0.0264379
-0.0268798
-0.0272666
-0.0275989
-0.0278772
-0.0281017
-0.0282729
-0.0283911
-0.0284566
-0.02847
-0.0284317
-0.0283422
-0.0282023
-0.0280128
-0.0277746
-0.0274888
-0.0271565
-0.0267789
-0.0263573
-0.0258927
-0.0253864
-0.0248392
-0.0242515
-0.0236234
-0.0229541
-0.0222418
-0.0214835
-0.0206747
-0.0198091
-0.0188781
-0.0178711
-0.0167753
-0.0155762
-0.0142585
-0.0128084
-0.0112159
-0.00947974
-0.00762065
-0.00570547
-0.00383131
-0.00212201
-0.000758797
0.000106643
0.000460112
0.000434217
0.000237439
2.48304e-05
-9.2632e-05
0.0027302
0.0023187
0.00177857
0.00131389
0.000887379
0.000410066
-0.000169042
-0.000879053
-0.00173553
-0.00273809
-0.0038748
-0.00512587
-0.0064662
-0.00786842
-0.00930557
-0.010753
-0.0121891
-0.0135956
-0.0149578
-0.0162648
-0.017509
-0.0186859
-0.0197933
-0.020831
-0.0217999
-0.0227016
-0.0235383
-0.024312
-0.0250249
-0.0256788
-0.0262753
-0.0268158
-0.0273015
-0.0277333
-0.0281118
-0.0284376
-0.0287111
-0.0289327
-0.0291027
-0.0292214
-0.0292892
-0.0293064
-0.0292736
-0.0291911
-0.0290597
-0.0288801
-0.0286531
-0.0283796
-0.0280607
-0.0276974
-0.0272909
-0.0268422
-0.0263525
-0.0258224
-0.0252527
-0.0246434
-0.0239942
-0.0233036
-0.0225693
-0.0217874
-0.0209525
-0.0200569
-0.0190906
-0.0180414
-0.0168944
-0.0156334
-0.0142421
-0.0127066
-0.0110171
-0.00917481
-0.00722069
-0.00526629
-0.00339642
-0.00177586
-0.000614534
-2.49338e-05
6.27829e-05
-0.000129319
-0.000384389
-0.000517746
0.00241428
0.00199112
0.00143017
0.000937135
0.000472441
-5.29769e-05
-0.000689083
-0.00146513
-0.00239507
-0.00347442
-0.00468678
-0.00600796
-0.0074094
-0.0088616
-0.0103367
-0.0118099
-0.0132603
-0.0146705
-0.0160275
-0.0173223
-0.0185491
-0.0197052
-0.02079
-0.0218044
-0.0227502
-0.0236298
-0.0244456
-0.0252001
-0.0258955
-0.0265337
-0.0271164
-0.0276449
-0.0281203
-0.0285435
-0.0289151
-0.0292356
-0.0295055
-0.029725
-0.0298944
-0.0300141
-0.0300843
-0.0301054
-0.0300778
-0.0300019
-0.0298783
-0.0297077
-0.0294908
-0.0292284
-0.0289214
-0.0285708
-0.0281776
-0.0277428
-0.0272673
-0.026752
-0.0261976
-0.0256042
-0.0249717
-0.0242992
-0.0235849
-0.0228257
-0.0220169
-0.0211521
-0.0202224
-0.0192162
-0.0181193
-0.0169151
-0.0155858
-0.0141149
-0.0124885
-0.0106955
-0.00874428
-0.00673761
-0.00477577
-0.00296288
-0.00152331
-0.0006579
-0.000397569
-0.000557943
-0.000842766
-0.000992432
0.00197075
0.00154221
0.00096701
0.000449341
-5.06735e-05
-0.000619665
-0.00130706
-0.00214194
-0.00313519
-0.00427913
-0.00555325
-0.00692957
-0.00837683
-0.0098641
-0.0113631
-0.0128494
-0.0143027
-0.0157073
-0.0170518
-0.0183289
-0.0195347
-0.020668
-0.0217293
-0.0227206
-0.0236442
-0.024503
-0.0252997
-0.0260368
-0.0267167
-0.0273411
-0.0279118
-0.0284299
-0.0288966
-0.0293125
-0.0296784
-0.0299947
-0.0302616
-0.0304797
-0.030649
-0.0307699
-0.0308426
-0.0308675
-0.0308448
-0.0307751
-0.0306588
-0.0304965
-0.0302888
-0.0300364
-0.0297402
-0.029401
-0.0290197
-0.0285971
-0.0281343
-0.0276319
-0.0270906
-0.0265109
-0.0258928
-0.0252356
-0.0245382
-0.0237981
-0.0230118
-0.0221736
-0.021276
-0.0203088
-0.0192586
-0.0181093
-0.0168424
-0.0154393
-0.0138835
-0.0121591
-0.0102571
-0.00821749
-0.00620847
-0.00427498
-0.00260133
-0.00145055
-0.000971922
-0.00106425
-0.00134927
-0.00152155
0.00140782
0.0009802
0.000396899
-0.000140822
-0.000672061
-0.00127963
-0.00201187
-0.00289681
-0.00394275
-0.00513874
-0.00646075
-0.00787771
-0.00935641
-0.0108651
-0.0123754
-0.0138636
-0.0153105
-0.016702
-0.0180283
-0.0192839
-0.0204664
-0.0215758
-0.0226137
-0.0235824
-0.0244851
-0.0253246
-0.0261038
-0.0268253
-0.0274913
-0.0281036
-0.0286637
-0.0291729
-0.029632
-0.0300418
-0.0304029
-0.0307157
-0.0309804
-0.0311974
-0.031367
-0.0314892
-0.0315644
-0.0315929
-0.031575
-0.0315111
-0.0314015
-0.0312468
-0.0310475
-0.0308044
-0.030518
-0.0301891
-0.0298185
-0.029407
-0.0289555
-0.0284647
-0.0279352
-0.0273675
-0.0267618
-0.026118
-0.0254351
-0.0247116
-0.0239445
-0.0231294
-0.0222601
-0.0213276
-0.02032
-0.0192224
-0.0180163
-0.0166816
-0.0151998
-0.0135537
-0.0117226
-0.00970319
-0.00765331
-0.00566258
-0.00382248
-0.00241108
-0.00168187
-0.00164602
-0.00190905
-0.00211605
0.000737745
0.000317351
-0.000267844
-0.000820816
-0.0013784
-0.00201915
-0.00278957
-0.00371561
-0.00480334
-0.006039
-0.00739559
-0.00883967
-0.0103367
-0.0118546
-0.0133654
-0.0148462
-0.0162792
-0.0176517
-0.0189558
-0.0201873
-0.0213453
-0.0224305
-0.0234453
-0.0243926
-0.0252755
-0.0260972
-0.0268605
-0.0275679
-0.0282215
-0.028823
-0.0293739
-0.0298752
-0.0303278
-0.0307324
-0.0310894
-0.0313992
-0.0316622
-0.0318785
-0.0320484
-0.0321721
-0.0322498
-0.0322817
-0.0322683
-0.0322097
-0.0321063
-0.0319587
-0.0317672
-0.0315325
-0.0312552
-0.0309358
-0.030575
-0.0301737
-0.0297325
-0.0292522
-0.0287333
-0.0281766
-0.0275821
-0.0269502
-0.0262802
-0.0255711
-0.0248208
-0.0240259
-0.0231815
-0.0222798
-0.0213108
-0.0202607
-0.0191121
-0.0178445
-0.0164374
-0.0148721
-0.0131265
-0.0111815
-0.0090953
-0.00708223
-0.00515151
-0.00353153
-0.00254493
-0.00232095
-0.00253972
-0.00279291
-2.25688e-05
-0.000431633
-0.00101231
-0.00157575
-0.00215523
-0.00282368
-0.00362483
-0.00458297
-0.00570193
-0.0069655
-0.00834436
-0.00980338
-0.0113073
-0.012824
-0.0143262
-0.0157921
-0.0172052
-0.0185546
-0.0198337
-0.0210397
-0.0221725
-0.0232339
-0.0242264
-0.0251533
-0.0260179
-0.0268232
-0.0275719
-0.0282665
-0.028909
-0.0295009
-0.0300435
-0.0305379
-0.0309848
-0.0313848
-0.0317382
-0.0320456
-0.0323071
-0.0325229
-0.0326933
-0.0328184
-0.0328984
-0.0329337
-0.0329243
-0.0328707
-0.0327732
-0.0326321
-0.0324478
-0.0322209
-0.0319519
-0.0316413
-0.0312897
-0.0308978
-0.0304662
-0.0299956
-0.0294866
-0.0289399
-0.0283558
-0.0277347
-0.0270763
-0.0263802
-0.0256449
-0.024868
-0.0240455
-0.0231714
-0.022237
-0.0212303
-0.0201353
-0.0189322
-0.0175991
-0.0161161
-0.0144632
-0.0126094
-0.0105389
-0.00850367
-0.0065455
-0.00478431
-0.00356346
-0.00312288
-0.0032583
-0.0035733
-0.000854316
-0.00124961
-0.00182083
-0.00239043
-0.00298687
-0.00367714
-0.00450171
-0.00548326
-0.00662348
-0.0079042
-0.00929434
-0.0107577
-0.0122586
-0.0137654
-0.0152517
-0.0166969
-0.018086
-0.0194094
-0.0206619
-0.0218417
-0.0229496
-0.0239876
-0.0249588
-0.0258666
-0.026714
-0.0275041
-0.0282396
-0.0289226
-0.029555
-0.0301382
-0.0306735
-0.0311616
-0.0316034
-0.0319992
-0.0323496
-0.0326548
-0.032915
-0.0331304
-0.0333013
-0.0334278
-0.0335101
-0.0335484
-0.0335429
-0.0334939
-0.0334017
-0.0332667
-0.0330891
-0.0328695
-0.0326082
-0.0323058
-0.0319627
-0.0315796
-0.031157
-0.0306955
-0.0301959
-0.0296586
-0.0290842
-0.0284732
-0.0278256
-0.0271414
-0.0264198
-0.0256591
-0.0248564
-0.0240069
-0.0231037
-0.0221362
-0.0210905
-0.0199479
-0.0186865
-0.0172843
-0.0157209
-0.0139657
-0.0119885
-0.00992092
-0.00796825
-0.00614046
-0.00473233
-0.00406969
-0.00408181
-0.00448514
-0.00173941
-0.00211868
-0.00267654
-0.00324794
-0.0038564
-0.00456269
-0.00540397
-0.00640096
-0.00755346
-0.00884179
-0.0102337
-0.0116923
-0.0131822
-0.0146723
-0.0161371
-0.0175574
-0.0189195
-0.0202152
-0.0214403
-0.022594
-0.0236774
-0.0246931
-0.0256441
-0.0265338
-0.0273653
-0.0281415
-0.0288647
-0.0295371
-0.0301603
-0.0307356
-0.0312641
-0.0317467
-0.0321838
-0.0325759
-0.0329235
-0.0332267
-0.0334858
-0.0337009
-0.0338723
-0.0340001
-0.0340844
-0.0341255
-0.0341236
-0.0340789
-0.0339916
-0.0338622
-0.0336908
-0.0334779
-0.0332238
-0.032929
-0.032594
-0.0322191
-0.0318051
-0.0313523
-0.0308615
-0.0303333
-0.0297681
-0.0291667
-0.0285294
-0.0278564
-0.0271474
-0.0264015
-0.0256168
-0.0247896
-0.0239145
-0.0229828
-0.0219822
-0.020896
-0.0197031
-0.0183798
-0.0169048
-0.0152531
-0.0133905
-0.011328
-0.00939495
-0.00756597
-0.00603399
-0.00516119
-0.00503646
-0.00554148
-0.00265954
-0.00302086
-0.00356195
-0.0041309
-0.00474681
-0.0054639
-0.00631585
-0.0073212
-0.00847814
-0.00976594
-0.0111517
-0.0125983
-0.0140708
-0.0155388
-0.0169782
-0.0183708
-0.0197043
-0.0209715
-0.0221692
-0.0232972
-0.024357
-0.0253513
-0.0262833
-0.0271561
-0.0279728
-0.028736
-0.029448
-0.0301106
-0.0307254
-0.0312935
-0.0318158
-0.0322932
-0.032726
-0.0331148
-0.0334598
-0.0337612
-0.0340193
-0.0342341
-0.034406
-0.0345349
-0.0346211
-0.0346647
-0.0346661
-0.0346252
-0.0345426
-0.0344182
-0.0342526
-0.0340459
-0.0337986
-0.033511
-0.0331834
-0.0328164
-0.0324104
-0.031966
-0.0314837
-0.0309641
-0.0304079
-0.0298158
-0.0291883
-0.028526
-0.0278289
-0.0270968
-0.0263286
-0.0255218
-0.0246722
-0.0237729
-0.0228135
-0.0217792
-0.0206503
-0.0194037
-0.0180177
-0.0164712
-0.0147228
-0.0127303
-0.0107953
-0.00900848
-0.00742173
-0.00638002
-0.00614338
-0.00672643
-0.00359696
-0.00393821
-0.00445962
-0.00502278
-0.00564208
-0.00636525
-0.00722252
-0.00823015
-0.00938495
-0.0106655
-0.0120387
-0.0134676
-0.014918
-0.0163604
-0.0177716
-0.0191349
-0.020439
-0.0216777
-0.0228485
-0.0239517
-0.024989
-0.0259631
-0.0268772
-0.0277343
-0.0285372
-0.0292884
-0.02999
-0.0306435
-0.0312505
-0.0318119
-0.0323286
-0.0328012
-0.0332301
-0.0336157
-0.0339583
-0.0342581
-0.0345151
-0.0347297
-0.0349019
-0.0350319
-0.0351197
-0.0351657
-0.03517
-0.0351327
-0.0350542
-0.0349346
-0.0347742
-0.0345733
-0.0343323
-0.0340513
-0.0337308
-0.0333712
-0.0329729
-0.0325364
-0.0320623
-0.0315511
-0.0310036
-0.0304205
-0.0298025
-0.0291504
-0.0284647
-0.0277457
-0.0269928
-0.0262048
-0.0253785
-0.0245087
-0.0235868
-0.0226001
-0.0215308
-0.0203567
-0.0190547
-0.0176041
-0.01597
-0.0141124
-0.0121702
-0.0104343
-0.00884545
-0.00769302
-0.00739012
-0.00800893
-0.00453428
-0.00485373
-0.00535317
-0.00590785
-0.00652711
-0.00725232
-0.00811037
-0.00911525
-0.0102626
-0.0115306
-0.0128863
-0.0142935
-0.0157184
-0.0171327
-0.0185144
-0.0198477
-0.0211225
-0.0223334
-0.0234782
-0.0245577
-0.0255737
-0.0265289
-0.0274263
-0.0282687
-0.0290589
-0.0297989
-0.0304908
-0.0311361
-0.0317358
-0.0322911
-0.0328025
-0.0332706
-0.0336959
-0.0340786
-0.0344189
-0.0347171
-0.0349732
-0.0351874
-0.0353599
-0.0354908
-0.0355801
-0.0356282
-0.0356351
-0.0356011
-0.0355263
-0.035411
-0.0352554
-0.0350599
-0.0348246
-0.0345498
-0.0342359
-0.0338833
-0.0334922
-0.0330633
-0.032597
-0.032094
-0.0315549
-0.0309806
-0.0303719
-0.0297298
-0.029055
-0.0283483
-0.0276099
-0.0268393
-0.0260345
-0.0251916
-0.0243039
-0.0233608
-0.0223464
-0.0212403
-0.0200186
-0.0186601
-0.0171391
-0.0154205
-0.013509
-0.0118176
-0.0102645
-0.00905803
-0.00871495
-0.00931207
-0.00545542
-0.00575187
-0.0062278
-0.00677173
-0.0073881
-0.00811203
-0.00896715
-0.00996532
-0.0111012
-0.0123524
-0.0136872
-0.0150698
-0.0164673
-0.0178525
-0.0192042
-0.0205078
-0.021754
-0.022938
-0.0240582
-0.0251153
-0.0261113
-0.0270489
-0.0279307
-0.0287596
-0.0295379
-0.0302677
-0.0309507
-0.0315882
-0.0321812
-0.0327307
-0.0332373
-0.0337013
-0.0341232
-0.0345031
-0.0348413
-0.035138
-0.0353932
-0.0356071
-0.0357798
-0.0359114
-0.036002
-0.0360519
-0.0360612
-0.03603
-0.0359586
-0.0358472
-0.0356961
-0.0355053
-0.0352753
-0.0350063
-0.0346985
-0.0343523
-0.0339682
-0.0335465
-0.0330877
-0.0325925
-0.0320615
-0.0314957
-0.0308961
-0.0302636
-0.0295994
-0.0289045
-0.0281798
-0.0274253
-0.0266403
-0.0258221
-0.0249656
-0.024062
-0.0230979
-0.0220543
-0.0209085
-0.0196401
-0.0182282
-0.0166313
-0.0148138
-0.0131414
-0.0116352
-0.0104188
-0.0100267
-0.0105231
-0.00634502
-0.00661859
-0.00707008
-0.00760153
-0.00821274
-0.00893274
-0.00978203
-0.0107704
-0.0118922
-0.013124
-0.0144352
-0.0157917
-0.017161
-0.0185167
-0.0198389
-0.0211137
-0.0223325
-0.0234911
-0.0245881
-0.0256244
-0.0266019
-0.0275231
-0.0283906
-0.029207
-0.0299744
-0.0306947
-0.0313694