/*--------------------------------*- C++ -*----------------------------------*\
  =========                 |
  \\      /  F ield         | OpenFOAM: The Open Source CFD Toolbox
   \\    /   O peration     | Website:  https://openfoam.org
    \\  /    A nd           | Version:  13
     \\/     M anipulation  |
\*---------------------------------------------------------------------------*/
FoamFile
{
    format      ascii;
    class       volVectorField;
    location    "7.3";
    object      U;
}
// * * * * * * * * * * * * * * * * * * * * * * * * * * * * * * * * * * * * * //

dimensions      [0 1 -1 0 0 0 0];

internalField   nonuniform List<vector> 
6400
(
(-0.000125735 8.29989e-05 0)
(0.000439242 -0.00017113 0)
(0.00207471 -0.000430804 0)
(0.00423719 -0.000546191 0)
(0.00638971 -0.000481696 0)
(0.00818584 -0.000321621 0)
(0.0093811 -0.000128987 0)
(0.00997899 1.56546e-05 0)
(0.0101047 6.93533e-05 0)
(0.00999856 4.78053e-05 0)
(0.00978468 -3.00512e-05 0)
(0.00963077 -0.000136317 0)
(0.00960125 -0.000246553 0)
(0.00969437 -0.000335969 0)
(0.00986227 -0.000408282 0)
(0.0100263 -0.000461347 0)
(0.0101128 -0.000494982 0)
(0.0100691 -0.000497747 0)
(0.00985463 -0.000479272 0)
(0.00937583 -0.000439219 0)
(0.00859414 -0.000390791 0)
(0.00745236 -0.000341425 0)
(0.00590733 -0.00029516 0)
(0.00393155 -0.000276875 0)
(0.00149051 -0.000324006 0)
(-0.00139035 -0.000438309 0)
(-0.00473559 -0.000487523 0)
(-0.00877533 -0.000313266 0)
(-0.0136259 0.00020039 0)
(-0.0192927 0.001063 0)
(-0.0265549 0.00210027 0)
(-0.0346297 0.00298265 0)
(-0.0433837 0.00369685 0)
(-0.0525105 0.00422872 0)
(-0.0617558 0.00458331 0)
(-0.0708839 0.00477398 0)
(-0.0797095 0.00482487 0)
(-0.0880757 0.00475903 0)
(-0.0958658 0.00459872 0)
(-0.10298 0.00436184 0)
(-0.109344 0.00406047 0)
(-0.114894 0.00370344 0)
(-0.119585 0.00329353 0)
(-0.123391 0.00283476 0)
(-0.12628 0.0023393 0)
(-0.128076 0.00186063 0)
(-0.128851 0.00142338 0)
(-0.128818 0.000728182 0)
(-0.127385 0.000169552 0)
(-0.125037 -0.0005104 0)
(-0.121402 -0.0011501 0)
(-0.116689 -0.00181635 0)
(-0.110762 -0.00245538 0)
(-0.103728 -0.0030805 0)
(-0.0956113 -0.00368747 0)
(-0.0865188 -0.00427396 0)
(-0.0764532 -0.00478804 0)
(-0.0656067 -0.00522502 0)
(-0.0541353 -0.00555568 0)
(-0.0422462 -0.00574462 0)
(-0.0301815 -0.00575861 0)
(-0.0182237 -0.00558219 0)
(-0.00662805 -0.00521315 0)
(0.00418797 -0.00469913 0)
(0.0138928 -0.00395045 0)
(0.0222549 -0.00302448 0)
(0.0289625 -0.00196042 0)
(0.0337298 -0.000809562 0)
(0.0365801 0.000350736 0)
(0.0368998 0.00157874 0)
(0.0355271 0.00223743 0)
(0.0320485 0.00282571 0)
(0.026804 0.00303207 0)
(0.0207 0.00274089 0)
(0.0145086 0.00205397 0)
(0.00904517 0.00122083 0)
(0.00475717 0.000535577 0)
(0.0017993 0.000124943 0)
(0.000159429 -0.000166598 0)
(-0.000234614 -0.00034465 0)
(1.47629e-05 -0.000378114 0)
(0.00180053 -0.00208832 0)
(0.00520673 -0.0035171 0)
(0.00901278 -0.0040028 0)
(0.0125241 -0.00362438 0)
(0.0153221 -0.00275821 0)
(0.01723 -0.00170022 0)
(0.0182725 -0.000736226 0)
(0.0185735 -5.14866e-05 0)
(0.0182946 0.000322547 0)
(0.017634 0.000427234 0)
(0.0167592 0.000345003 0)
(0.0157569 0.000196683 0)
(0.0146196 9.44908e-05 0)
(0.0132762 0.000101739 0)
(0.0116248 0.000231769 0)
(0.00957809 0.000463749 0)
(0.00707068 0.000782239 0)
(0.00399039 0.0012032 0)
(0.000232259 0.00173781 0)
(-0.00431224 0.00239048 0)
(-0.00987123 0.00317909 0)
(-0.0165367 0.00407015 0)
(-0.0243759 0.00505229 0)
(-0.0334358 0.00614297 0)
(-0.0438151 0.00734965 0)
(-0.0554171 0.00869675 0)
(-0.0678966 0.0101823 0)
(-0.0808803 0.0117508 0)
(-0.0938452 0.0132359 0)
(-0.106252 0.0143368 0)
(-0.118312 0.0150243 0)
(-0.12973 0.0153046 0)
(-0.140425 0.015201 0)
(-0.1503 0.0147843 0)
(-0.159287 0.0141039 0)
(-0.167346 0.0132163 0)
(-0.174443 0.0121659 0)
(-0.180565 0.0109906 0)
(-0.185697 0.00971902 0)
(-0.189827 0.00836877 0)
(-0.192952 0.00695634 0)
(-0.195064 0.00548843 0)
(-0.196157 0.00397678 0)
(-0.196221 0.00243035 0)
(-0.195223 0.000855767 0)
(-0.193167 -0.000767659 0)
(-0.190073 -0.00247339 0)
(-0.18585 -0.00421682 0)
(-0.180575 -0.00599865 0)
(-0.174171 -0.0077995 0)
(-0.166678 -0.00960392 0)
(-0.158063 -0.0113898 0)
(-0.148354 -0.0131262 0)
(-0.137558 -0.0147797 0)
(-0.125747 -0.0162986 0)
(-0.113037 -0.0176484 0)
(-0.0995243 -0.0187706 0)
(-0.0853846 -0.0195924 0)
(-0.0708354 -0.0200635 0)
(-0.0560849 -0.0201183 0)
(-0.0413916 -0.0197136 0)
(-0.0270414 -0.0188241 0)
(-0.013344 -0.0174593 0)
(-0.000584329 -0.0155792 0)
(0.0109707 -0.0132281 0)
(0.0210359 -0.0104357 0)
(0.0293637 -0.00732844 0)
(0.0357937 -0.00397795 0)
(0.0401343 -0.00056831 0)
(0.042375 0.00265216 0)
(0.0423792 0.00561503 0)
(0.0402448 0.00804844 0)
(0.0361643 0.00967972 0)
(0.0302582 0.00988754 0)
(0.0229444 0.0089543 0)
(0.0152386 0.00712293 0)
(0.00825682 0.00481876 0)
(0.00308107 0.00234101 0)
(0.000229483 0.00029062 0)
(0.000202031 -0.00162191 0)
(0.00318616 -0.00536696 0)
(0.00745231 -0.00760464 0)
(0.0114455 -0.00788331 0)
(0.0147254 -0.00679115 0)
(0.017083 -0.00498984 0)
(0.0185442 -0.00304872 0)
(0.019169 -0.0012959 0)
(0.0190334 8.67964e-05 0)
(0.0182392 0.00101692 0)
(0.0169327 0.00152536 0)
(0.0151895 0.00175575 0)
(0.0130259 0.00190279 0)
(0.0104037 0.00214054 0)
(0.00723448 0.00257721 0)
(0.00341798 0.00323814 0)
(-0.00117124 0.00411464 0)
(-0.00669194 0.00521659 0)
(-0.0132703 0.00656696 0)
(-0.0210268 0.00819998 0)
(-0.030046 0.0101218 0)
(-0.0403052 0.0122729 0)
(-0.0517801 0.0145712 0)
(-0.0643292 0.0168969 0)
(-0.0777006 0.019125 0)
(-0.091592 0.0211629 0)
(-0.105635 0.0229138 0)
(-0.119514 0.0243174 0)
(-0.132889 0.0253121 0)
(-0.145503 0.0258771 0)
(-0.157191 0.0260052 0)
(-0.167901 0.0256932 0)
(-0.177567 0.0249899 0)
(-0.186254 0.0239295 0)
(-0.193958 0.0225572 0)
(-0.20072 0.0209441 0)
(-0.206561 0.0191362 0)
(-0.211509 0.0171791 0)
(-0.215574 0.0151028 0)
(-0.218772 0.0129422 0)
(-0.22111 0.0107083 0)
(-0.22259 0.00841305 0)
(-0.22321 0.00606475 0)
(-0.222961 0.00366276 0)
(-0.221835 0.0012083 0)
(-0.219817 -0.00130473 0)
(-0.216865 -0.00389343 0)
(-0.212972 -0.00655051 0)
(-0.208112 -0.00924706 0)
(-0.202268 -0.0119939 0)
(-0.195412 -0.0147682 0)
(-0.187536 -0.017553 0)
(-0.178626 -0.020317 0)
(-0.168689 -0.0230195 0)
(-0.157744 -0.0256034 0)
(-0.145832 -0.0279972 0)
(-0.133032 -0.0301315 0)
(-0.119438 -0.0319138 0)
(-0.105168 -0.0332458 0)
(-0.0904125 -0.0340369 0)
(-0.0753854 -0.0341992 0)
(-0.0603166 -0.0336536 0)
(-0.0454905 -0.03236 0)
(-0.0312124 -0.0303248 0)
(-0.0177542 -0.0275434 0)
(-0.00534288 -0.0240499 0)
(0.00574841 -0.0199099 0)
(0.0152998 -0.0152432 0)
(0.0231918 -0.0102039 0)
(0.0292932 -0.00497837 0)
(0.0335695 0.000206999 0)
(0.0359963 0.00512521 0)
(0.0364387 0.00942542 0)
(0.0348209 0.0127965 0)
(0.031429 0.0150994 0)
(0.0263613 0.0156694 0)
(0.0197855 0.0146082 0)
(0.0126013 0.0119925 0)
(0.00589418 0.00794909 0)
(0.000786993 0.00296497 0)
(0.000421885 -0.00357227 0)
(0.0042556 -0.00949233 0)
(0.00862872 -0.0118378 0)
(0.0121393 -0.0113322 0)
(0.0146666 -0.00924929 0)
(0.0162067 -0.00652318 0)
(0.0168607 -0.0037262 0)
(0.0167212 -0.00120087 0)
(0.0158681 0.000855682 0)
(0.014359 0.00237405 0)
(0.0121914 0.00343688 0)
(0.00934234 0.0042333 0)
(0.00576014 0.00499662 0)
(0.00137423 0.00592943 0)
(-0.00388955 0.00715164 0)
(-0.0101313 0.00871408 0)
(-0.0174713 0.0106322 0)
(-0.026029 0.0129095 0)
(-0.035884 0.0155352 0)
(-0.047049 0.0184752 0)
(-0.0594365 0.0216354 0)
(-0.0728466 0.0248696 0)
(-0.0869874 0.0280002 0)
(-0.101493 0.0308588 0)
(-0.116065 0.0333513 0)
(-0.130355 0.0352924 0)
(-0.144074 0.0365853 0)
(-0.15694 0.037248 0)
(-0.168789 0.0373447 0)
(-0.179587 0.0369229 0)
(-0.189308 0.0360429 0)
(-0.198014 0.0347436 0)
(-0.205745 0.0330632 0)
(-0.212576 0.0310727 0)
(-0.218543 0.0288182 0)
(-0.223712 0.0263551 0)
(-0.228113 0.0237238 0)
(-0.231778 0.0209664 0)
(-0.234724 0.0181061 0)
(-0.236964 0.0151633 0)
(-0.2385 0.0121494 0)
(-0.239328 0.00906991 0)
(-0.23944 0.00592482 0)
(-0.23882 0.00271123 0)
(-0.237452 -0.000573958 0)
(-0.235308 -0.00393723 0)
(-0.232357 -0.00737941 0)
(-0.228571 -0.0109181 0)
(-0.223921 -0.0145377 0)
(-0.218371 -0.0182311 0)
(-0.211891 -0.0219755 0)
(-0.204456 -0.0257489 0)
(-0.196042 -0.0295143 0)
(-0.186634 -0.0332186 0)
(-0.176228 -0.0367851 0)
(-0.164837 -0.0401164 0)
(-0.152508 -0.0431133 0)
(-0.139315 -0.0456641 0)
(-0.125353 -0.0476264 0)
(-0.110759 -0.0488572 0)
(-0.0957279 -0.0492432 0)
(-0.080474 -0.0486649 0)
(-0.0652536 -0.0470485 0)
(-0.0503829 -0.0443604 0)
(-0.0362125 -0.0406699 0)
(-0.022997 -0.0360367 0)
(-0.0109792 -0.0305497 0)
(-0.000378447 -0.0243519 0)
(0.00865022 -0.0176688 0)
(0.0159909 -0.0107422 0)
(0.0215908 -0.00382301 0)
(0.0254622 0.00286104 0)
(0.0276516 0.00900017 0)
(0.028168 0.0141818 0)
(0.026875 0.0180629 0)
(0.0238119 0.0203397 0)
(0.0191534 0.0205713 0)
(0.0132997 0.0186087 0)
(0.00692727 0.0142534 0)
(0.00107421 0.00674862 0)
(0.00070065 -0.00608104 0)
(0.00493717 -0.0138589 0)
(0.00879285 -0.0156095 0)
(0.0114364 -0.0139901 0)
(0.0130065 -0.0108174 0)
(0.013578 -0.00714836 0)
(0.0132986 -0.00353079 0)
(0.0122544 -0.000270817 0)
(0.010482 0.00247799 0)
(0.00796818 0.00470271 0)
(0.00464908 0.00652007 0)
(0.000436333 0.00814373 0)
(-0.00476273 0.00981798 0)
(-0.0110361 0.0117472 0)
(-0.0184659 0.0140606 0)
(-0.0271296 0.0168153 0)
(-0.0370866 0.0200176 0)
(-0.0483567 0.0236326 0)
(-0.060876 0.0275599 0)
(-0.0744687 0.0316553 0)
(-0.0888444 0.0356931 0)
(-0.103645 0.0394735 0)
(-0.118511 0.0428609 0)
(-0.133134 0.0455733 0)
(-0.147129 0.0474845 0)
(-0.160179 0.0486091 0)
(-0.172196 0.0489697 0)
(-0.183122 0.0486249 0)
(-0.193008 0.0476798 0)
(-0.201897 0.0462295 0)
(-0.209853 0.0443551 0)
(-0.216963 0.0421263 0)
(-0.223273 0.0395925 0)
(-0.228846 0.0368057 0)
(-0.233729 0.0338083 0)
(-0.237968 0.030641 0)
(-0.241587 0.0273375 0)
(-0.244611 0.0239276 0)
(-0.247054 0.0204254 0)
(-0.24892 0.0168439 0)
(-0.250206 0.0131885 0)
(-0.250906 0.00945875 0)
(-0.251008 0.00564668 0)
(-0.250493 0.00174513 0)
(-0.249347 -0.00225238 0)
(-0.247534 -0.0063562 0)
(-0.245019 -0.0105715 0)
(-0.241768 -0.0149084 0)
(-0.237753 -0.0193684 0)
(-0.232925 -0.0239433 0)
(-0.227236 -0.0286062 0)
(-0.220647 -0.0333335 0)
(-0.213118 -0.0380834 0)
(-0.204609 -0.0427941 0)
(-0.195096 -0.0473753 0)
(-0.184559 -0.0517057 0)
(-0.173005 -0.0556564 0)
(-0.160484 -0.0590955 0)
(-0.147056 -0.0618376 0)
(-0.132817 -0.0636964 0)
(-0.117937 -0.0645247 0)
(-0.102599 -0.0641464 0)
(-0.0870569 -0.0624466 0)
(-0.0715543 -0.0593548 0)
(-0.0564587 -0.0549002 0)
(-0.0421886 -0.0492132 0)
(-0.0290055 -0.0424277 0)
(-0.0171409 -0.0347481 0)
(-0.006804 -0.0264357 0)
(0.00185701 -0.0177972 0)
(0.00877031 -0.00914887 0)
(0.0139453 -0.000784922 0)
(0.0174499 0.00698738 0)
(0.0193561 0.0138408 0)
(0.019679 0.0194119 0)
(0.018428 0.0232491 0)
(0.015613 0.0249025 0)
(0.011443 0.0240528 0)
(0.00627864 0.0200802 0)
(0.000942079 0.0105494 0)
(0.00101053 -0.00898596 0)
(0.00513487 -0.0178735 0)
(0.00803825 -0.0184187 0)
(0.00956346 -0.0156114 0)
(0.0100701 -0.0113472 0)
(0.00961372 -0.00678127 0)
(0.00833936 -0.00237164 0)
(0.00629076 0.00163919 0)
(0.00345059 0.00515638 0)
(-0.000250219 0.00821687 0)
(-0.00491803 0.0109718 0)
(-0.0106676 0.0136449 0)
(-0.0176008 0.0164703 0)
(-0.0257981 0.0196355 0)
(-0.0353141 0.0232505 0)
(-0.0461628 0.0273384 0)
(-0.0582977 0.0318439 0)
(-0.0715923 0.0366703 0)
(-0.0858214 0.0415875 0)
(-0.10062 0.0463372 0)
(-0.115635 0.0507531 0)
(-0.130517 0.0544803 0)
(-0.144806 0.0573292 0)
(-0.15814 0.059236 0)
(-0.17038 0.0601638 0)
(-0.181532 0.0601992 0)
(-0.191645 0.0594697 0)
(-0.20079 0.0581066 0)
(-0.209056 0.0562227 0)
(-0.216501 0.0539068 0)
(-0.223197 0.0512346 0)
(-0.229199 0.0482616 0)
(-0.234555 0.0450399 0)
(-0.239315 0.0416123 0)
(-0.243516 0.0380128 0)
(-0.247186 0.0342713 0)
(-0.250342 0.0304142 0)
(-0.253001 0.0264664 0)
(-0.255174 0.0224359 0)
(-0.256864 0.0183279 0)
(-0.25807 0.0141429 0)
(-0.258787 0.00987523 0)
(-0.259012 0.00550835 0)
(-0.258732 0.00102795 0)
(-0.257952 -0.00358673 0)
(-0.256636 -0.00834994 0)
(-0.254754 -0.0132658 0)
(-0.252256 -0.0183338 0)
(-0.249104 -0.02356 0)
(-0.245251 -0.0289454 0)
(-0.240632 -0.0344625 0)
(-0.235175 -0.0400796 0)
(-0.228809 -0.0457446 0)
(-0.221466 -0.0513909 0)
(-0.213139 -0.0569611 0)
(-0.203794 -0.0623401 0)
(-0.193325 -0.0673249 0)
(-0.181769 -0.0717698 0)
(-0.169159 -0.0754568 0)
(-0.15551 -0.0781395 0)
(-0.140994 -0.0796426 0)
(-0.125732 -0.0797255 0)
(-0.109976 -0.0782548 0)
(-0.0939757 -0.0750637 0)
(-0.0780254 -0.0701373 0)
(-0.0625415 -0.0635707 0)
(-0.0479949 -0.0556293 0)
(-0.034648 -0.0465408 0)
(-0.022768 -0.0366187 0)
(-0.0125677 -0.0262442 0)
(-0.00417365 -0.0158195 0)
(0.00238924 -0.00572723 0)
(0.00718908 0.00368691 0)
(0.0103519 0.0120988 0)
(0.011993 0.0191811 0)
(0.012175 0.0245061 0)
(0.0109073 0.0275918 0)
(0.00828665 0.0279645 0)
(0.00466112 0.0246979 0)
(0.000566945 0.0136851 0)
(0.0012624 -0.0120363 0)
(0.00478579 -0.0210244 0)
(0.00638706 -0.0201329 0)
(0.00680034 -0.0160443 0)
(0.00615617 -0.0107881 0)
(0.00463779 -0.00537599 0)
(0.00231247 -0.000173003 0)
(-0.000829455 0.00464526 0)
(-0.00485388 0.00903798 0)
(-0.00986501 0.0130796 0)
(-0.0159828 0.016937 0)
(-0.0233187 0.0208256 0)
(-0.0319575 0.0249524 0)
(-0.0419438 0.0294675 0)
(-0.0532689 0.0344305 0)
(-0.0658421 0.0397964 0)
(-0.0795194 0.0454311 0)
(-0.0940011 0.0510874 0)
(-0.108894 0.0565443 0)
(-0.123864 0.0614317 0)
(-0.138442 0.065474 0)
(-0.152142 0.068466 0)
(-0.164759 0.0703209 0)
(-0.176264 0.0710922 0)
(-0.18672 0.0709187 0)
(-0.196194 0.069941 0)
(-0.20478 0.0682906 0)
(-0.212562 0.0660907 0)
(-0.219613 0.0634396 0)
(-0.225985 0.060419 0)
(-0.231733 0.0570951 0)
(-0.236895 0.0535151 0)
(-0.241513 0.0497242 0)
(-0.245621 0.0457587 0)
(-0.249247 0.0416502 0)
(-0.252409 0.0374262 0)
(-0.255122 0.0331128 0)
(-0.257395 0.0287267 0)
(-0.259241 0.0242711 0)
(-0.260667 0.0197315 0)
(-0.261711 0.0150757 0)
(-0.26234 0.0103525 0)
(-0.262551 0.0055302 0)
(-0.262328 0.000599077 0)
(-0.261662 -0.0044589 0)
(-0.260586 -0.00967437 0)
(-0.259079 -0.0150675 0)
(-0.257151 -0.0206709 0)
(-0.254765 -0.0265067 0)
(-0.251907 -0.032613 0)
(-0.248524 -0.0389243 0)
(-0.244522 -0.0454158 0)
(-0.239813 -0.0520552 0)
(-0.234289 -0.0587775 0)
(-0.227781 -0.065456 0)
(-0.220132 -0.0719185 0)
(-0.21123 -0.0779618 0)
(-0.201056 -0.0834488 0)
(-0.189774 -0.0882672 0)
(-0.177172 -0.0919997 0)
(-0.163441 -0.0944479 0)
(-0.148621 -0.0952861 0)
(-0.132969 -0.0943427 0)
(-0.116674 -0.09139 0)
(-0.100087 -0.0863725 0)
(-0.0835046 -0.0792646 0)
(-0.0674848 -0.0703291 0)
(-0.0525311 -0.0599479 0)
(-0.0389246 -0.0484582 0)
(-0.0269636 -0.0363125 0)
(-0.0168644 -0.0240139 0)
(-0.00872689 -0.0120591 0)
(-0.00252685 -0.000890125 0)
(0.00188086 0.00912863 0)
(0.00469476 0.0176841 0)
(0.00606862 0.0244105 0)
(0.00609051 0.0288541 0)
(0.00482895 0.0304041 0)
(0.00267142 0.0278394 0)
(0.000102035 0.01567 0)
(0.00136474 -0.0148902 0)
(0.00377999 -0.0230342 0)
(0.00415145 -0.0206148 0)
(0.00332851 -0.0152634 0)
(0.00153928 -0.00912057 0)
(-0.00106958 -0.00289328 0)
(-0.00449704 0.00313266 0)
(-0.00880054 0.00883619 0)
(-0.0140782 0.0142131 0)
(-0.0204442 0.0193569 0)
(-0.0280087 0.0244315 0)
(-0.0368582 0.0296267 0)
(-0.0470363 0.0351042 0)
(-0.0585278 0.0409488 0)
(-0.0712368 0.0471536 0)
(-0.0849861 0.0535736 0)
(-0.0994393 0.0599532 0)
(-0.114233 0.0660169 0)
(-0.128921 0.071383 0)
(-0.143012 0.0757424 0)
(-0.156112 0.0788685 0)
(-0.168115 0.0807464 0)
(-0.179035 0.0814788 0)
(-0.188935 0.0812187 0)
(-0.197902 0.080101 0)
(-0.206027 0.0782716 0)
(-0.213398 0.0758522 0)
(-0.220078 0.0729514 0)
(-0.226121 0.0696529 0)
(-0.231566 0.0660292 0)
(-0.236452 0.0621388 0)
(-0.24081 0.0580293 0)
(-0.244669 0.0537437 0)
(-0.248049 0.0493215 0)
(-0.250964 0.0448014 0)
(-0.253439 0.0401912 0)
(-0.255578 0.0354498 0)
(-0.257367 0.0306341 0)
(-0.258817 0.025742 0)
(-0.259928 0.0207899 0)
(-0.260685 0.0157954 0)
(-0.261107 0.0106971 0)
(-0.261193 0.00550138 0)
(-0.260945 0.000184241 0)
(-0.260376 -0.00527525 0)
(-0.259512 -0.0108761 0)
(-0.258321 -0.0166525 0)
(-0.256803 -0.0226187 0)
(-0.254937 -0.0287878 0)
(-0.252699 -0.0351571 0)
(-0.250063 -0.0418262 0)
(-0.247015 -0.0487988 0)
(-0.243512 -0.056052 0)
(-0.239498 -0.063553 0)
(-0.23489 -0.0712634 0)
(-0.229592 -0.0790518 0)
(-0.223345 -0.0866049 0)
(-0.215813 -0.0936637 0)
(-0.206611 -0.0997642 0)
(-0.195772 -0.104702 0)
(-0.183523 -0.108386 0)
(-0.169783 -0.110329 0)
(-0.154806 -0.110329 0)
(-0.138705 -0.108036 0)
(-0.121854 -0.103352 0)
(-0.104539 -0.0961813 0)
(-0.0871961 -0.0865978 0)
(-0.0705383 -0.0750805 0)
(-0.055098 -0.0621389 0)
(-0.0411989 -0.0482338 0)
(-0.0291694 -0.033971 0)
(-0.0192208 -0.0199793 0)
(-0.0114144 -0.00684341 0)
(-0.00565244 0.00495833 0)
(-0.00170417 0.0150646 0)
(0.000710488 0.0231763 0)
(0.0017996 0.0288869 0)
(0.00172505 0.0315299 0)
(0.000817253 0.0294871 0)
(-0.000270421 0.016426 0)
(0.00127691 -0.0172497 0)
(0.00235379 -0.0237607 0)
(0.00141959 -0.0197432 0)
(-0.000626641 -0.0133273 0)
(-0.00354426 -0.00634222 0)
(-0.00726203 0.000700406 0)
(-0.0118229 0.00759359 0)
(-0.0173179 0.0142561 0)
(-0.0238554 0.0207017 0)
(-0.031539 0.0270228 0)
(-0.0404518 0.0333622 0)
(-0.050637 0.0398662 0)
(-0.0620768 0.0466309 0)
(-0.074697 0.0536752 0)
(-0.0883076 0.0608767 0)
(-0.102543 0.0679761 0)
(-0.117054 0.0746382 0)
(-0.131366 0.0804968 0)
(-0.144933 0.0851948 0)
(-0.157525 0.0885577 0)
(-0.169025 0.0905748 0)
(-0.179459 0.0913877 0)
(-0.188895 0.0911251 0)
(-0.197428 0.089956 0)
(-0.205144 0.088018 0)
(-0.212124 0.0854486 0)
(-0.218428 0.0823521 0)
(-0.224102 0.078823 0)
(-0.229185 0.0749359 0)
(-0.233708 0.0707581 0)
(-0.237705 0.0663451 0)
(-0.241204 0.0617457 0)
(-0.244229 0.0570036 0)
(-0.246845 0.0521248 0)
(-0.249096 0.0471395 0)
(-0.251 0.0420858 0)
(-0.252524 0.0370152 0)
(-0.253684 0.031889 0)
(-0.254499 0.026709 0)
(-0.254999 0.0214715 0)
(-0.255228 0.0161706 0)
(-0.255213 0.0107927 0)
(-0.254979 0.00533126 0)
(-0.254558 -0.000240286 0)
(-0.253956 -0.00595206 0)
(-0.253133 -0.011811 0)
(-0.252129 -0.0178588 0)
(-0.250932 -0.0241238 0)
(-0.249542 -0.0306354 0)
(-0.247944 -0.0374121 0)
(-0.246124 -0.0444662 0)
(-0.244051 -0.0517997 0)
(-0.241677 -0.0594055 0)
(-0.23894 -0.0672498 0)
(-0.235749 -0.0752632 0)
(-0.231989 -0.0834426 0)
(-0.227662 -0.0918753 0)
(-0.222594 -0.100275 0)
(-0.216552 -0.108306 0)
(-0.209095 -0.115399 0)
(-0.199481 -0.120809 0)
(-0.187692 -0.124157 0)
(-0.174252 -0.125571 0)
(-0.15908 -0.12444 0)
(-0.142585 -0.120616 0)
(-0.125075 -0.113936 0)
(-0.106904 -0.104311 0)
(-0.0887013 -0.0920268 0)
(-0.0713174 -0.0777576 0)
(-0.0553586 -0.0621915 0)
(-0.0411958 -0.0459309 0)
(-0.029181 -0.0297453 0)
(-0.0195026 -0.0143873 0)
(-0.0121624 -0.000515686 0)
(-0.00696306 0.0113739 0)
(-0.00355073 0.0209578 0)
(-0.00156337 0.0279002 0)
(-0.000671477 0.0314669 0)
(-0.000486553 0.0298514 0)
(-0.000381986 0.0162722 0)
(0.0010337 -0.0185895 0)
(0.000644065 -0.0230925 0)
(-0.00162118 -0.0175764 0)
(-0.00483769 -0.0102355 0)
(-0.0088757 -0.00244807 0)
(-0.0137074 0.00542095 0)
(-0.0194027 0.0132211 0)
(-0.0260693 0.0208939 0)
(-0.0338082 0.0284513 0)
(-0.0426975 0.035966 0)
(-0.0527793 0.0435419 0)
(-0.0640382 0.051265 0)
(-0.0764161 0.0591711 0)
(-0.0897444 0.0671677 0)
(-0.103661 0.074988 0)
(-0.117776 0.0822886 0)
(-0.131643 0.0886947 0)
(-0.14477 0.0938243 0)
(-0.15692 0.0975255 0)
(-0.168005 0.0998153 0)
(-0.178021 0.100786 0)
(-0.18706 0.100614 0)
(-0.195203 0.0994597 0)
(-0.202538 0.0974825 0)
(-0.209132 0.0948114 0)
(-0.215043 0.0915652 0)
(-0.22031 0.0878366 0)
(-0.224972 0.0837117 0)
(-0.229062 0.0792618 0)
(-0.232616 0.074552 0)
(-0.235669 0.0696371 0)
(-0.238259 0.0645652 0)
(-0.240429 0.0593743 0)
(-0.242187 0.0541141 0)
(-0.243559 0.0487964 0)
(-0.244588 0.0434281 0)
(-0.245293 0.0380236 0)
(-0.245739 0.0325833 0)
(-0.245966 0.02712 0)
(-0.246006 0.0216337 0)
(-0.245856 0.0161162 0)
(-0.245545 0.0105489 0)
(-0.245089 0.00491466 0)
(-0.244508 -0.000810129 0)
(-0.243802 -0.00664372 0)
(-0.242976 -0.0126308 0)
(-0.242054 -0.0187943 0)
(-0.241042 -0.0251686 0)
(-0.239951 -0.031786 0)
(-0.238779 -0.0386802 0)
(-0.237528 -0.0458842 0)
(-0.236187 -0.0534228 0)
(-0.234736 -0.0613118 0)
(-0.233132 -0.069547 0)
(-0.231308 -0.0780901 0)
(-0.229166 -0.0868588 0)
(-0.226593 -0.0957339 0)
(-0.223422 -0.104557 0)
(-0.219439 -0.113286 0)
(-0.214601 -0.121865 0)
(-0.208531 -0.129697 0)
(-0.200659 -0.135902 0)
(-0.189866 -0.139263 0)
(-0.176664 -0.139847 0)
(-0.161387 -0.137476 0)
(-0.144444 -0.131938 0)
(-0.126134 -0.122958 0)
(-0.107018 -0.110648 0)
(-0.087861 -0.0954494 0)
(-0.0697035 -0.0783059 0)
(-0.0532514 -0.0601082 0)
(-0.0389243 -0.0416327 0)
(-0.0270747 -0.0238182 0)
(-0.0178442 -0.00753584 0)
(-0.0111437 0.00650038 0)
(-0.00662872 0.0178127 0)
(-0.00378912 0.026071 0)
(-0.00216682 0.03043 0)
(-0.00115804 0.0292605 0)
(-0.000351381 0.0156674 0)
(0.000720178 -0.0189423 0)
(-0.00124691 -0.0210221 0)
(-0.00477356 -0.0141909 0)
(-0.00912284 -0.00599771 0)
(-0.014264 0.00255981 0)
(-0.0201842 0.0112557 0)
(-0.0269761 0.0199821 0)
(-0.0347438 0.0286811 0)
(-0.0435683 0.0373432 0)
(-0.0534917 0.0460045 0)
(-0.064504 0.0547157 0)
(-0.0765592 0.0635109 0)
(-0.0895163 0.0723261 0)
(-0.103043 0.0809012 0)
(-0.116732 0.0888831 0)
(-0.130153 0.0958969 0)
(-0.14289 0.101584 0)
(-0.154669 0.105752 0)
(-0.165394 0.108407 0)
(-0.175065 0.109646 0)
(-0.18375 0.109643 0)
(-0.191542 0.10858 0)
(-0.198511 0.106615 0)
(-0.204722 0.103892 0)
(-0.21022 0.100526 0)
(-0.215049 0.0966256 0)
(-0.219242 0.092279 0)
(-0.222838 0.0875711 0)
(-0.225877 0.0825755 0)
(-0.228403 0.0773589 0)
(-0.23046 0.0719782 0)
(-0.232091 0.0664814 0)
(-0.233342 0.0609058 0)
(-0.234254 0.0552831 0)
(-0.234872 0.0496338 0)
(-0.23524 0.0439758 0)
(-0.235393 0.0383241 0)
(-0.235365 0.0326812 0)
(-0.235179 0.0270437 0)
(-0.234856 0.0214031 0)
(-0.234409 0.0157478 0)
(-0.233857 0.0100588 0)
(-0.233214 0.00431588 0)
(-0.232494 -0.00150317 0)
(-0.231705 -0.00742024 0)
(-0.230861 -0.0134723 0)
(-0.229978 -0.0196878 0)
(-0.22907 -0.0261001 0)
(-0.228152 -0.0327423 0)
(-0.227235 -0.03965 0)
(-0.226333 -0.0468588 0)
(-0.225452 -0.0544019 0)
(-0.224593 -0.0623081 0)
(-0.223744 -0.0705976 0)
(-0.222872 -0.0792778 0)
(-0.221919 -0.0883369 0)
(-0.220796 -0.0977196 0)
(-0.21936 -0.10729 0)
(-0.217423 -0.116832 0)
(-0.214741 -0.126065 0)
(-0.210993 -0.134736 0)
(-0.206049 -0.142934 0)
(-0.199369 -0.14952 0)
(-0.189947 -0.153258 0)
(-0.177046 -0.15297 0)
(-0.16172 -0.14934 0)
(-0.144173 -0.141794 0)
(-0.124963 -0.130291 0)
(-0.104799 -0.115053 0)
(-0.084644 -0.0967543 0)
(-0.0657395 -0.0766553 0)
(-0.048905 -0.0558962 0)
(-0.0345986 -0.0354511 0)
(-0.0231398 -0.0164361 0)
(-0.0145879 0.000171149 0)
(-0.00870791 0.0136358 0)
(-0.00492444 0.02348 0)
(-0.00271239 0.028716 0)
(-0.00120973 0.0280977 0)
(-0.000174791 0.0148649 0)
(0.000145096 -0.0181361 0)
(-0.00323175 -0.0176184 0)
(-0.00791208 -0.00960252 0)
(-0.0133407 -0.000650767 0)
(-0.0195393 0.00864161 0)
(-0.0264918 0.0181526 0)
(-0.034298 0.0277975 0)
(-0.0430513 0.0374982 0)
(-0.052802 0.0472074 0)
(-0.0635482 0.0569119 0)
(-0.0752524 0.0666163 0)
(-0.0878006 0.0762735 0)
(-0.100902 0.0856394 0)
(-0.114162 0.0943613 0)
(-0.127166 0.102064 0)
(-0.139551 0.108411 0)
(-0.151028 0.113176 0)
(-0.161453 0.116308 0)
(-0.170833 0.11792 0)
(-0.179218 0.118176 0)
(-0.186691 0.117273 0)
(-0.193321 0.115381 0)
(-0.199162 0.112645 0)
(-0.204259 0.109195 0)
(-0.208651 0.105143 0)
(-0.212378 0.100592 0)
(-0.215486 0.0956363 0)
(-0.218025 0.0903634 0)
(-0.22005 0.084851 0)
(-0.221618 0.0791678 0)
(-0.222784 0.073371 0)
(-0.223604 0.0675072 0)
(-0.224128 0.0616125 0)
(-0.224404 0.0557154 0)
(-0.224474 0.0498354 0)
(-0.224375 0.0439866 0)
(-0.224132 0.0381748 0)
(-0.223767 0.0323953 0)
(-0.223299 0.0266408 0)
(-0.222741 0.0208993 0)
(-0.222106 0.0151558 0)
(-0.221405 0.00939158 0)
(-0.220649 0.00358599 0)
(-0.219851 -0.00228338 0)
(-0.219018 -0.00824068 0)
(-0.218165 -0.0143168 0)
(-0.217306 -0.0205409 0)
(-0.216457 -0.0269456 0)
(-0.215635 -0.0335638 0)
(-0.214859 -0.0404311 0)
(-0.214148 -0.0475837 0)
(-0.21352 -0.0550574 0)
(-0.21299 -0.0628855 0)
(-0.212566 -0.0710966 0)
(-0.212245 -0.0797132 0)
(-0.212008 -0.0887473 0)
(-0.211812 -0.098191 0)
(-0.211571 -0.108002 0)
(-0.211146 -0.118084 0)
(-0.210333 -0.128237 0)
(-0.208842 -0.138106 0)
(-0.206318 -0.147222 0)
(-0.202305 -0.155367 0)
(-0.196531 -0.162161 0)
(-0.188065 -0.165923 0)
(-0.175569 -0.164982 0)
(-0.160047 -0.159854 0)
(-0.141767 -0.150084 0)
(-0.121531 -0.135775 0)
(-0.100242 -0.117352 0)
(-0.0791141 -0.0957893 0)
(-0.0595935 -0.0727129 0)
(-0.0426062 -0.0495709 0)
(-0.0286134 -0.0275544 0)
(-0.0178564 -0.00796462 0)
(-0.0102565 0.00815965 0)
(-0.00531047 0.0200504 0)
(-0.00246763 0.026593 0)
(-0.000768678 0.0267944 0)
(8.32452e-05 0.0143135 0)
(-0.00043336 -0.0160804 0)
(-0.00517356 -0.0129223 0)
(-0.0109185 -0.0038931 0)
(-0.0173591 0.00573638 0)
(-0.0245416 0.015722 0)
(-0.0324383 0.0260224 0)
(-0.0411462 0.0365496 0)
(-0.0507389 0.0471893 0)
(-0.0612306 0.057845 0)
(-0.0725917 0.0684579 0)
(-0.0847298 0.0789696 0)
(-0.0974002 0.089151 0)
(-0.11024 0.0986678 0)
(-0.122868 0.107142 0)
(-0.13494 0.114245 0)
(-0.14617 0.119725 0)
(-0.156369 0.123466 0)
(-0.165513 0.125557 0)
(-0.173655 0.126175 0)
(-0.180856 0.125511 0)
(-0.187187 0.123753 0)
(-0.192697 0.121056 0)
(-0.197426 0.11756 0)
(-0.20142 0.113388 0)
(-0.204723 0.108658 0)
(-0.207392 0.103478 0)
(-0.209489 0.0979489 0)
(-0.21108 0.0921633 0)
(-0.212234 0.0862007 0)
(-0.213017 0.0801288 0)
(-0.213489 0.0740018 0)
(-0.213706 0.0678617 0)
(-0.213718 0.0617395 0)
(-0.213563 0.0556568 0)
(-0.213275 0.0496266 0)
(-0.21288 0.0436542 0)
(-0.212396 0.0377383 0)
(-0.211837 0.0318713 0)
(-0.211215 0.026042 0)
(-0.210538 0.0202367 0)
(-0.209814 0.014439 0)
(-0.209049 0.00862981 0)
(-0.208251 0.00278872 0)
(-0.207428 -0.00310642 0)
(-0.206588 -0.00907959 0)
(-0.205742 -0.0151579 0)
(-0.204904 -0.0213689 0)
(-0.204089 -0.0277427 0)
(-0.203317 -0.0343108 0)
(-0.202608 -0.0411068 0)
(-0.201986 -0.0481663 0)
(-0.201475 -0.0555255 0)
(-0.201099 -0.063221 0)
(-0.200879 -0.0712879 0)
(-0.20083 -0.079758 0)
(-0.200958 -0.0886559 0)
(-0.20125 -0.0979925 0)
(-0.20167 -0.107759 0)
(-0.202142 -0.117918 0)
(-0.202537 -0.128381 0)
(-0.202643 -0.138981 0)
(-0.202152 -0.149397 0)
(-0.200653 -0.159058 0)
(-0.197603 -0.167306 0)
(-0.192468 -0.173947 0)
(-0.184536 -0.177519 0)
(-0.172319 -0.175793 0)
(-0.15639 -0.168953 0)
(-0.13722 -0.156652 0)
(-0.115835 -0.1392 0)
(-0.0934104 -0.117314 0)
(-0.0714358 -0.0923383 0)
(-0.0515718 -0.0663765 0)
(-0.0348139 -0.0411801 0)
(-0.021558 -0.0182282 0)
(-0.0119089 0.00106795 0)
(-0.00551599 0.015612 0)
(-0.00189544 0.024105 0)
(-5.86636e-05 0.025613 0)
(0.000374184 0.0142566 0)
(-0.00101633 -0.0128657 0)
(-0.00699417 -0.00705264 0)
(-0.0136993 0.0028547 0)
(-0.0210622 0.0130828 0)
(-0.0291342 0.0237103 0)
(-0.0378625 0.0347515 0)
(-0.0473362 0.0460962 0)
(-0.0576043 0.0575802 0)
(-0.0686524 0.069057 0)
(-0.0804054 0.0804149 0)
(-0.092659 0.0914187 0)
(-0.105103 0.101768 0)
(-0.117394 0.111086 0)
(-0.129196 0.119032 0)
(-0.140229 0.125334 0)
(-0.15027 0.129817 0)
(-0.159251 0.132513 0)
(-0.167208 0.133597 0)
(-0.174202 0.133266 0)
(-0.180289 0.131716 0)
(-0.185523 0.129121 0)
(-0.189945 0.125629 0)
(-0.193602 0.121381 0)
(-0.196549 0.116508 0)
(-0.198851 0.111137 0)
(-0.200583 0.105383 0)
(-0.201821 0.0993529 0)
(-0.202645 0.0931392 0)
(-0.203128 0.0868187 0)
(-0.203334 0.0804531 0)
(-0.203324 0.0740895 0)
(-0.203144 0.0677617 0)
(-0.202834 0.0614924 0)
(-0.202425 0.0552945 0)
(-0.201939 0.0491731 0)
(-0.201394 0.0431272 0)
(-0.200798 0.0371501 0)
(-0.200161 0.0312314 0)
(-0.199488 0.0253579 0)
(-0.198781 0.0195134 0)
(-0.198043 0.0136814 0)
(-0.197278 0.00784342 0)
(-0.19649 0.00197921 0)
(-0.195682 -0.00393213 0)
(-0.194861 -0.00991289 0)
(-0.194036 -0.0159871 0)
(-0.19322 -0.0221798 0)
(-0.192427 -0.0285178 0)
(-0.191676 -0.0350296 0)
(-0.190988 -0.0417459 0)
(-0.19039 -0.0486995 0)
(-0.189909 -0.0559254 0)
(-0.189575 -0.0634604 0)
(-0.189418 -0.0713426 0)
(-0.189463 -0.0796102 0)
(-0.189733 -0.0882982 0)
(-0.190237 -0.0974349 0)
(-0.190967 -0.107035 0)
(-0.191887 -0.11709 0)
(-0.192926 -0.127558 0)
(-0.193953 -0.138348 0)
(-0.194758 -0.149294 0)
(-0.19502 -0.160105 0)
(-0.194285 -0.170244 0)
(-0.191973 -0.178867 0)
(-0.187325 -0.185108 0)
(-0.179576 -0.188134 0)
(-0.167349 -0.185386 0)
(-0.150773 -0.1765 0)
(-0.130536 -0.161249 0)
(-0.107927 -0.140258 0)
(-0.0844287 -0.114582 0)
(-0.0619012 -0.0861195 0)
(-0.042155 -0.0575378 0)
(-0.0261856 -0.0308778 0)
(-0.0142321 -0.00789871 0)
(-0.00612871 0.0099332 0)
(-0.00150175 0.0211142 0)
(0.000597543 0.024565 0)
(0.00058071 0.0146355 0)
(-0.00157008 -0.00855774 0)
(-0.00863083 -0.000128384 0)
(-0.0161845 0.0105365 0)
(-0.024367 0.0212854 0)
(-0.033211 0.0324927 0)
(-0.0426395 0.0442079 0)
(-0.0527298 0.0562816 0)
(-0.0635043 0.0684979 0)
(-0.0749132 0.080648 0)
(-0.0867788 0.092462 0)
(-0.0988582 0.103653 0)
(-0.110851 0.113866 0)
(-0.122424 0.122729 0)
(-0.133305 0.129947 0)
(-0.143251 0.135294 0)
(-0.152145 0.138734 0)
(-0.159992 0.140404 0)
(-0.166846 0.140511 0)
(-0.172763 0.139261 0)
(-0.177792 0.136841 0)
(-0.181981 0.133419 0)
(-0.185378 0.129149 0)
(-0.188049 0.124182 0)
(-0.190067 0.11866 0)
(-0.191516 0.112717 0)
(-0.192485 0.106475 0)
(-0.19306 0.100039 0)
(-0.19332 0.0934966 0)
(-0.193335 0.0869156 0)
(-0.193165 0.0803486 0)
(-0.192858 0.0738323 0)
(-0.192453 0.0673908 0)
(-0.191978 0.0610375 0)
(-0.191454 0.0547773 0)
(-0.190894 0.0486089 0)
(-0.190307 0.0425255 0)
(-0.189696 0.0365164 0)
(-0.189063 0.0305692 0)
(-0.188409 0.0246695 0)
(-0.187732 0.0187996 0)
(-0.187032 0.0129425 0)
(-0.186308 0.00708126 0)
(-0.185562 0.0011967 0)
(-0.184795 -0.00473066 0)
(-0.184012 -0.0107206 0)
(-0.18322 -0.0167944 0)
(-0.182429 -0.0229739 0)
(-0.181654 -0.0292823 0)
(-0.180911 -0.0357444 0)
(-0.180221 -0.0423872 0)
(-0.179611 -0.0492397 0)
(-0.179108 -0.0563339 0)
(-0.178746 -0.0637047 0)
(-0.178558 -0.0713901 0)
(-0.178581 -0.0794307 0)
(-0.178846 -0.0878681 0)
(-0.179379 -0.0967426 0)
(-0.180194 -0.106088 0)
(-0.181285 -0.115926 0)
(-0.182617 -0.126252 0)