/*--------------------------------*- C++ -*----------------------------------*\
  =========                 |
  \\      /  F ield         | OpenFOAM: The Open Source CFD Toolbox
   \\    /   O peration     | Website:  https://openfoam.org
    \\  /    A nd           | Version:  13
     \\/     M anipulation  |
\*---------------------------------------------------------------------------*/
FoamFile
{
    format      ascii;
    class       volScalarField;
    location    "8.1";
    object      epsilon;
}
// * * * * * * * * * * * * * * * * * * * * * * * * * * * * * * * * * * * * * //

dimensions      [0 2 -3 0 0 0 0];

internalField   nonuniform List<scalar> 
6400
(
2.88689e-05
0.000148319
0.000360535
0.000580607
0.000746307
0.000839319
0.00087324
0.000876817
0.00088227
0.000914544
0.000992502
0.00114419
0.00138297
0.00171391
0.00211924
0.00257653
0.00306252
0.00356794
0.00406924
0.00455454
0.0050435
0.00557809
0.00621457
0.00698581
0.0078588
0.00873939
0.00961411
0.0104825
0.0113713
0.0123046
0.0132695
0.0142335
0.0151812
0.0161156
0.0170602
0.0180207
0.0190169
0.0200548
0.0211471
0.022297
0.0235128
0.024804
0.0261777
0.0276501
0.0292337
0.0309831
0.0330013
0.0355087
0.0380155
0.0405747
0.043077
0.0455071
0.0477858
0.0498507
0.0516251
0.0530169
0.0537229
0.0540029
0.0538846
0.0528415
0.0510066
0.0483855
0.045007
0.0410119
0.036469
0.0316179
0.0266916
0.0218784
0.0173564
0.0133364
0.0100631
0.00731756
0.00510105
0.00340856
0.00219079
0.00136123
0.000820239
0.00047164
0.000223296
4.76163e-05
0.000139548
0.000139647
0.000228321
0.000330631
0.000407324
0.000453874
0.000477053
0.000487944
0.000500296
0.000527984
0.000585657
0.000693076
0.000866802
0.0011194
0.00145444
0.00187293
0.00237688
0.00297304
0.00366742
0.00447011
0.00538872
0.00646406
0.00774674
0.00926055
0.0109945
0.0129745
0.0150124
0.0169719
0.0187466
0.0202424
0.0213731
0.0222421
0.0228301
0.0232325
0.0234872
0.0236528
0.0237696
0.0238716
0.0239811
0.0241185
0.0243067
0.0245496
0.0248479
0.0251752
0.0255593
0.0260344
0.0265884
0.0272222
0.0279285
0.0286705
0.0294497
0.0302196
0.0309636
0.0316315
0.0321818
0.0324807
0.0325748
0.0324484
0.0320343
0.0312077
0.0300131
0.0284159
0.0264201
0.0241008
0.0215439
0.018855
0.0161495
0.0135411
0.0111178
0.00897312
0.00715779
0.00560002
0.0042636
0.00312928
0.00219291
0.00143702
0.000877254
0.000493348
0.000256807
0.000251644
0.000305052
0.000254115
0.000339312
0.000425669
0.000477637
0.000504119
0.000519
0.00053626
0.000571242
0.000642211
0.000772897
0.000991826
0.00132621
0.00179579
0.00241314
0.00319039
0.00414019
0.00527711
0.00661132
0.00814973
0.00989847
0.0118204
0.0138269
0.0157616
0.0174393
0.0186208
0.0193284
0.0197119
0.0199018
0.0200422
0.0201124
0.0200229
0.0197108
0.0194204
0.0191157
0.0188531
0.0186413
0.0185189
0.018471
0.0184691
0.018592
0.0187862
0.0190854
0.0195059
0.0200366
0.0206543
0.0213546
0.0221319
0.0229818
0.0238878
0.0248405
0.0258154
0.0267899
0.0277276
0.028589
0.0293246
0.0298546
0.0300871
0.0301088
0.0297427
0.0289313
0.0276674
0.0259309
0.0238267
0.0214417
0.018875
0.0162526
0.0136894
0.0112904
0.00913771
0.00727978
0.00571629
0.00442279
0.00336002
0.00249005
0.00179043
0.00121763
0.000762714
0.000473025
0.000673002
0.000529348
0.000438009
0.00053434
0.000616709
0.000659301
0.000681637
0.000704421
0.000748611
0.000837769
0.00100314
0.00128467
0.00172472
0.00235838
0.00320711
0.00428078
0.0055838
0.00711519
0.00885345
0.0107429
0.0126878
0.0145519
0.0161888
0.017444
0.0181089
0.0183851
0.0184495
0.0183827
0.0180243
0.0174666
0.0168694
0.0162139
0.0157041
0.015315
0.0149834
0.0147361
0.0145873
0.0145234
0.0145127
0.0146081
0.0147815
0.0150458
0.015389
0.0158202
0.0163352
0.0169329
0.0176119
0.0183735
0.0192163
0.0201388
0.0211347
0.022197
0.0233113
0.0244582
0.025609
0.0267261
0.0277602
0.0286519
0.0293045
0.0296045
0.0296495
0.0292231
0.0283709
0.0270824
0.0251703
0.0228616
0.0202482
0.0174794
0.0147061
0.0120725
0.00969409
0.0076443
0.00594614
0.00457971
0.00349855
0.00264759
0.00197759
0.00143586
0.000993339
0.00071019
0.00112175
0.000848438
0.00069279
0.000787524
0.000867103
0.000912311
0.000948376
0.00100317
0.00110823
0.00130243
0.00163481
0.00216046
0.00292798
0.00396572
0.00527719
0.00684481
0.00863016
0.0105645
0.0125346
0.0143779
0.015926
0.0169529
0.0174082
0.0175355
0.0174762
0.0170468
0.0163081
0.0154385
0.014632
0.0139785
0.0133736
0.0128733
0.012486
0.0121844
0.0119597
0.0118224
0.0117596
0.0117426
0.0117887
0.0119115
0.0120886
0.0123299
0.0126307
0.0129957
0.0134256
0.0139247
0.0144966
0.0151461
0.0158779
0.0166968
0.0176061
0.0186065
0.0196954
0.0208649
0.0221006
0.0233804
0.024666
0.0259041
0.0270312
0.0279686
0.0285242
0.028719
0.0284795
0.0276816
0.0264355
0.0244386
0.0219348
0.0190981
0.0161133
0.0131752
0.0104639
0.00811157
0.00618187
0.00466867
0.00351644
0.00264557
0.00198757
0.00148258
0.00109111
0.000867528
0.00143298
0.00130334
0.00102671
0.00110374
0.00118528
0.00124818
0.00132001
0.00143817
0.00164905
0.00200976
0.00258536
0.00343614
0.00459821
0.00606941
0.00780712
0.00973117
0.0117225
0.0136215
0.0152436
0.0163255
0.0167899
0.0168967
0.0167449
0.0161864
0.0152056
0.0142036
0.013314
0.0125066
0.0118269
0.0112583
0.0107749
0.010388
0.0100786
0.00983523
0.00965093
0.00952025
0.00944111
0.00940564
0.00939793
0.00943887
0.00951777
0.00963615
0.00979594
0.00999825
0.0102477
0.0105492
0.0109094
0.0113367
0.0118415
0.0124347
0.0131296
0.013938
0.0148713
0.015938
0.01714
0.0184713
0.0199176
0.0214439
0.0230018
0.0245234
0.0259025
0.0270068
0.0275466
0.0276761
0.02714
0.0260551
0.0239674
0.0212745
0.0181733
0.0149111
0.011757
0.0089458
0.00662638
0.00483943
0.00353396
0.00259958
0.00193536
0.00144953
0.00108999
0.000931081
0.00154853
0.0019339
0.00144605
0.00149506
0.00158926
0.00168851
0.00182241
0.00204117
0.00240815
0.00299574
0.00387322
0.00508512
0.00662927
0.00844619
0.0104213
0.0123929
0.0141638
0.0155147
0.0161696
0.0163573
0.0162819
0.0157277
0.0146773
0.013554
0.0125366
0.011618
0.0108354
0.0101597
0.00959416
0.00911422
0.00870984
0.00837276
0.00808905
0.00785189
0.00765478
0.00749323
0.00736342
0.00726172
0.00718678
0.00714616
0.00712945
0.0071278
0.00716324
0.00722479
0.00732139
0.00745296
0.00762678
0.0078491
0.00812922
0.00847821
0.00891239
0.00945152
0.0101179
0.0109365
0.0119292
0.0131174
0.0145241
0.0161471
0.0179543
0.0198945
0.0219037
0.0238611
0.0256039
0.0267811
0.0272542
0.027218
0.0262337
0.0240614
0.0210984
0.0176131
0.0139608
0.0105167
0.00758106
0.00530559
0.00368305
0.00259409
0.00185967
0.00137278
0.00105271
0.000923765
0.00150444
0.0027769
0.00195564
0.00197522
0.00209633
0.00225398
0.0024788
0.00283589
0.00340281
0.00425603
0.00544873
0.00698457
0.00879957
0.0107603
0.0126775
0.0143321
0.0154022
0.015831
0.0158977
0.0155201
0.0145861
0.0133637
0.0122207
0.0111708
0.0102675
0.00948525
0.00882101
0.0082493
0.00776129
0.0073393
0.00697581
0.00666118
0.0063879
0.0061513
0.00594717
0.00577272
0.00562533
0.00550224
0.00540246
0.00532549
0.00526873
0.00523944
0.00522877
0.00523257
0.00527113
0.00533134
0.00542225
0.00554539
0.00570714
0.00591349
0.00617169
0.00649326
0.00689336
0.00739477
0.00803296
0.00885177
0.00989824
0.0112327
0.0128868
0.0148538
0.0171234
0.0195885
0.0221375
0.024561
0.026555
0.0275422
0.0278316
0.0270485
0.0247219
0.0213589
0.0173458
0.0131919
0.00940861
0.00635686
0.00415949
0.00273151
0.00185578
0.00130649
0.000987703
0.000888453
0.00139899
0.00385787
0.00255901
0.00255351
0.00272337
0.00295942
0.00330135
0.00382582
0.00461526
0.00573253
0.00719204
0.00893618
0.010828
0.0126648
0.0142095
0.0150852
0.0153774
0.0153705
0.0147412
0.0135791
0.0123085
0.0111202
0.0100769
0.00916788
0.00839462
0.00772843
0.00715662
0.00666058
0.00623132
0.00585769
0.00553395
0.00525333
0.00501152
0.00480475
0.00462943
0.00448258
0.00436169
0.00426477
0.00418996
0.00413557
0.00410339
0.00408945
0.00408662
0.00410502
0.00414326
0.00419954
0.00427685
0.00437586
0.00449955
0.00465084
0.00483412
0.00505513
0.00532194
0.00564529
0.00603985
0.00652789
0.00714252
0.00793717
0.00900477
0.0104758
0.0124169
0.0148339
0.0176811
0.0207826
0.0239229
0.0267036
0.0283368
0.0289415
0.0283686
0.0257861
0.0218742
0.017193
0.0124641
0.00834684
0.00523642
0.003182
0.00197508
0.00130537
0.000936743
0.000831211
0.00127927
0.00518645
0.00326396
0.00324324
0.00347556
0.00380818
0.00428479
0.00498706
0.00598845
0.00731911
0.00893712
0.0107157
0.0124536
0.0139075
0.0146937
0.0149434
0.0148024
0.0140124
0.0127417
0.0114555
0.0102429
0.00918819
0.00828309
0.00750705
0.00684413
0.00627179
0.00577874
0.00535278
0.00498706
0.0046741
0.00440891
0.00418598
0.00400102
0.00384965
0.00372801
0.00363253
0.00356
0.00350769
0.00347456
0.00345902
0.00345445
0.00346216
0.0034858
0.00352215
0.00357208
0.0036353
0.00371296
0.003806
0.00391605
0.00404504
0.00419558
0.00437105
0.00457594
0.00481636
0.00510092
0.00543913
0.00584672
0.00634908
0.0069869
0.00782638
0.00898176
0.0106782
0.0130657
0.0161316
0.0197462
0.023596
0.0272306
0.0295417
0.0304412
0.0300241
0.0270464
0.0224089
0.0169461
0.0116293
0.00725492
0.0041948
0.00235996
0.00139495
0.00093215
0.000781146
0.00118018
0.00678687
0.00408668
0.0040489
0.00435142
0.00478995
0.00540357
0.00626854
0.0074343
0.00888361
0.0105119
0.0121324
0.0135069
0.0142546
0.014492
0.014282
0.0133935
0.0121046
0.0107731
0.00955263
0.00848061
0.00757105
0.00679496
0.00613238
0.00556621
0.00508161
0.00466997
0.00432251
0.00403282
0.00379395
0.00359994
0.00344459
0.00332249
0.00322846
0.00315805
0.00310744
0.00307369
0.00305696
0.0030508
0.00305109
0.00306645
0.00309
0.00312476
0.00316916
0.00322454
0.00329122
0.00337043
0.00346332
0.00357129
0.00369588
0.00383882
0.00400202
0.00418765
0.00439832
0.00463745
0.00491005
0.00522388
0.00559162
0.00603443
0.00658229
0.00728891
0.00825294
0.00964654
0.0118193
0.014971
0.018991
0.0235509
0.0280955
0.031073
0.0322248
0.0318213
0.0282491
0.0227045
0.016394
0.0105606
0.00609232
0.00322676
0.00168908
0.000989465
0.000765606
0.00114479
0.00873145
0.00505177
0.00496628
0.00533747
0.00587946
0.00661386
0.00759983
0.00885097
0.0102968
0.0117776
0.0130698
0.0138028
0.0140404
0.0138086
0.0128889
0.0116222
0.0102655
0.00901721
0.00793239
0.0070089
0.00623045
0.0055694
0.00501016
0.00453891
0.00414521
0.00382079
0.00355697
0.0033459
0.00317946
0.00305039
0.00295181
0.00287793
0.00282378
0.00278542
0.00275978
0.0027469
0.00274188
0.00274141
0.00275128
0.00276908
0.00279448
0.00282867
0.00287186
0.0029253
0.00298991
0.00306709
0.00315822
0.00326487
0.00338871
0.00353148
0.00369495
0.00388085
0.00409078
0.00432619
0.00458852
0.00487965
0.00520298
0.00556557
0.00598229
0.00648189
0.00711524
0.00796148
0.00918642
0.0110913
0.0141998
0.0185463
0.0238079
0.0292934
0.0328648
0.0341874
0.0335631
0.0291067
0.0224857
0.0153325
0.00918505
0.0048611
0.00235878
0.00118734
0.000798396
0.00118538
0.0108894
0.00611972
0.00597438
0.0064084
0.00703924
0.00786012
0.00890379
0.0101426
0.0114578
0.0126525
0.0133751
0.0136157
0.0134008
0.0125168
0.0112748
0.00991307
0.00863086
0.0075204
0.00658105
0.00579265
0.00513219
0.00457891
0.00412038
0.00374458
0.00344146
0.00320098
0.00301307
0.00286832
0.00275798
0.00267459
0.00261182
0.00256476
0.00252964
0.00250379
0.0024855
0.00247439
0.00246926
0.00246796
0.0024738
0.00248677
0.00250695
0.00253538
0.00257292
0.00262075
0.00268006
0.0027523
0.00283899
0.00294187
0.00306281
0.00320386
0.00336712
0.00355471
0.0037686
0.00401039
0.00428112
0.0045811
0.00490998
0.00526744
0.0056551
0.00608069
0.0065658
0.0071589
0.00794198
0.0090633
0.0108255
0.0138248
0.0184586
0.0244215
0.0308617
0.0348474
0.03619
0.0350047
0.0293062
0.0214443
0.0136315
0.00750799
0.00361742
0.00164928
0.000928331
0.00135857
0.0131989
0.00726607
0.00704723
0.00753076
0.00822441
0.00908334
0.0101089
0.0112348
0.0123069
0.0130076
0.0132467
0.0130804
0.0122682
0.0110619
0.00969978
0.00838571
0.00723597
0.00627114
0.0054674
0.00480095
0.0042508
0.00380097
0.00343923
0.00315288
0.00293013
0.00275914
0.00262899
0.0025301
0.00245444
0.0023957
0.00234912
0.00231139
0.00228027
0.0022545
0.00223348
0.00221711
0.00220586
0.00220061
0.00219937
0.00220504
0.00221883
0.00224067
0.00227178
0.00231318
0.00236607
0.00243183
0.002512
0.00260839
0.00272302
0.00285819
0.00301643
0.00320044
0.00341297
0.0036566
0.00393341
0.00424456
0.00458984
0.00496738
0.0053739
0.00580623
0.00626532
0.00676483
0.007347
0.00810319
0.00917541
0.0108802
0.0138484
0.0187837
0.0254918
0.0328649
0.0369095
0.038069
0.035794
0.0284253
0.019364
0.0112885
0.00563358
0.00252309
0.00124524
0.0017764
0.0155848
0.00846143
0.00815365
0.00866604
0.00938733
0.0102276
0.0111563
0.0120761
0.0127269
0.0129564
0.0128529
0.0121282
0.0109787
0.00962179
0.00827433
0.00707565
0.00607038
0.00524212
0.00456201
0.00400792
0.00356139
0.00320744
0.002932
0.00272074
0.00256041
0.00243877
0.00234552
0.00227239
0.00221314
0.00216337
0.00212016
0.00208182
0.00204748
0.0020169
0.00199024
0.00196788
0.00195033
0.0019391
0.00193418
0.00193339
0.0019415
0.00195807
0.00198348
0.00201894
0.00206537
0.0021241
0.00219657
0.00228454
0.00239007
0.0025156
0.00266391
0.0028382
0.00304194
0.00327878
0.00355224
0.00386525
0.00421952
0.00461478
0.00504802
0.00551335
0.00600314
0.00651209
0.00704653
0.00764293
0.00839692
0.00946268
0.0111769
0.0142508
0.0196209
0.0272183
0.0352111
0.0389486
0.039669
0.0354491
0.0261162
0.0162222
0.0085019
0.00387769
0.00182011
0.00244786
0.0179776
0.0096747
0.00925985
0.00977438
0.0104824
0.0112445
0.0119997
0.012571
0.0127859
0.0127117
0.0120942
0.0110159
0.00967756
0.00829604
0.00703837
0.00597675
0.00510916
0.0044054
0.00383829
0.00338728
0.00303431
0.00276304
0.00255741
0.00240225
0.00228436
0.00219272
0.00211887
0.0020567
0.00200211
0.00195261
0.0019069
0.00186448
0.00182538
0.00178992
0.00175861
0.00173195
0.0017105
0.00169482
0.0016868
0.00168397
0.00168694
0.00169995
0.00172077
0.00175112
0.00179159
0.00184339
0.00190782
0.00198652
0.00208148
0.00219508
0.00233021
0.00249026
0.00267916
0.00290135
0.0031616
0.00346463
0.00381461
0.00421418
0.00466333
0.00515818
0.00569018
0.00624699
0.00681671
0.00739839
0.00802529
0.00880132
0.00989568
0.0116884
0.0150156
0.0210307
0.0297762
0.0378468
0.0409386
0.040765
0.0333625
0.0222683
0.0123002
0.00576276
0.0026511
0.0033134
0.0203283
0.0108742
0.0103322
0.0108177
0.01147
0.0120978
0.012583
0.0127776
0.0126792
0.0121729
0.0111686
0.0098636
0.00845404
0.00712826
0.00599289
0.00506739
0.00432552
0.00373463
0.00326963
0.00290986
0.00263609
0.00243036
0.00227585
0.00215806
0.00206535
0.00198894
0.00192279
0.00186302
0.00180746
0.00175511
0.00170575
0.00165959
0.00161705
0.00157864
0.00154487
0.00151618
0.00149297
0.00147559
0.00146586
0.00146207
0.00146207
0.00147238
0.00148975
0.00151577
0.00155096
0.00159634
0.00165306
0.00172259
0.00180676
0.00190781
0.00202849
0.00217216
0.00234288
0.00254544
0.00278535
0.00306868
0.00340168
0.00379005
0.00423771
0.00474521
0.00530783
0.00591412
0.00654639
0.00718526
0.00782231
0.00849
0.00930868
0.0104654
0.012424
0.0161944
0.023046
0.0331476
0.0408244
0.043039
0.0401843
0.0292767
0.0171468
0.00825398
0.00376372
0.00431864
0.0225886
0.0120283
0.0113375
0.0117623
0.01232
0.0127381
0.012901
0.0127852
0.0123625
0.011439
0.010177
0.00875126
0.00735405
0.00612714
0.00512163
0.00432253
0.00369385
0.003204
0.00282842
0.00254519
0.00233384
0.00217587
0.00205534
0.0019597
0.00187976
0.00180931
0.0017446
0.00168364
0.00162566
0.00157061
0.0015188
0.00147073
0.00142688
0.00138771
0.00135358
0.00132478
0.00130154
0.00128406
0.00127352
0.00126899
0.0012683
0.00127611
0.00129088
0.00131327
0.00134388
0.00138353
0.00143324
0.0014943
0.00156834
0.00165737
0.00176393
0.00189115
0.00204291
0.00222398
0.0024401
0.002698
0.00300529
0.00337
0.00379966
0.0042998
0.00487164
0.00550938
0.00619796
0.00691315
0.007627
0.00832409
0.00904163
0.00991851
0.0111821
0.0134454
0.0179773
0.0260052
0.0374345
0.043456
0.044388
0.036774
0.0231588
0.0115082
0.00520714
0.00541551
0.0246698
0.0131074
0.0122491
0.0125849
0.0129971
0.0131687
0.0130801
0.0126528
0.0118257
0.0106187
0.00918963
0.00772584
0.00639355
0.00528325
0.00440275
0.00371778
0.00318976
0.00278808
0.00248745
0.00226475
0.00209926
0.00197343
0.00187343
0.00178935
0.00171463
0.00164544
0.00157985
0.00151719
0.00145752
0.00140124
0.00134884
0.00130079
0.00125749
0.00121921
0.00118614
0.0011584
0.00113608
0.00111922
0.00110862
0.00110387
0.00110285
0.00110879
0.00112144
0.00114077
0.00116742
0.00120208
0.00124562
0.00129919
0.00136418
0.00144238
0.00153604
0.00164798
0.00178177
0.00194186
0.0021338
0.00236438
0.00264177
0.00297534
0.00337523
0.0038512
0.00441059
0.00505525
0.00577767
0.00655761
0.0073621
0.00815314
0.00891117
0.00968693
0.0106343
0.0120806
0.014891
0.0206512
0.0305732
0.0417297
0.0458587
0.0436705
0.0302736
0.0157049
0.00703159
0.00656834
0.0264982
0.0140841
0.0130452
0.0132644
0.0134785
0.013454
0.0130615
0.0123353
0.011187
0.00977163
0.00825239
0.00680945
0.00557064
0.00457951
0.00381393
0.00323035
0.00279013
0.00246278
0.00222207
0.00204461
0.00191071
0.00180493
0.00171618
0.00163728
0.00156407
0.00149451
0.00142797
0.00136453
0.00130462
0.00124876
0.00119738
0.00115081
0.00110926
0.00107283
0.00104156
0.00101543
0.000994424
0.000978492
0.000968152
0.000963375
0.000962161
0.000966646
0.000977477
0.000994197
0.00101745
0.00104779
0.00108601
0.00113307
0.00119021
0.00125898
0.00134134
0.00143977
0.00155745
0.00169839
0.0018677
0.00207184
0.00231885
0.00261853
0.00298237
0.003423
0.00395278
0.00458111
0.00531015
0.00612943
0.00701102
0.00790958
0.00877475
0.00958669
0.0104257
0.011469
0.0132112
0.0168499
0.0243006
0.036752
0.0458722
0.0475955
0.0380595
0.021011
0.00928171
0.00777272
0.0280336
0.0149378
0.013706
0.0137759
0.0138347
0.013582
0.0129352
0.0118785
0.0104955
0.00894043
0.00739161
0.00600761
0.00487427
0.0039968
0.00333424
0.0028393
0.00247374
0.00220677
0.00201185
0.00186652
0.00175314
0.00165902
0.00157589
0.00149898
0.00142598
0.00135614
0.00128954
0.00122661
0.00116785
0.00111368
0.0010644
0.00102014
0.000980947
0.000946782
0.00091756
0.000893181
0.000873554
0.000858591
0.000848577
0.000843821
0.000842453
0.000845744
0.000854976
0.000869455
0.000889769
0.000916412
0.000950059
0.000991558
0.00104198
0.00110266
0.00117532
0.00126212
0.00136582
0.00148998
0.00163916
0.00181925
0.00203777
0.00230424
0.00263047
0.00303049
0.00351992
0.00411416
0.00482472
0.00565336
0.00658453
0.00757862
0.00857315
0.009504
0.0103605
0.0112586
0.012457
0.014727
0.01983
0.0297791
0.0433801
0.0489312
0.0454865
0.027521
0.0120261
0.00901606
0.0292542
0.0156659
0.0142236
0.0141416
0.0140424
0.0135575
0.0126617
0.0113517
0.00979008
0.00815343
0.00661923
0.00531603
0.00428969
0.00351654
0.00294472
0.00252585
0.00222204
0.00200243
0.00184113
0.00171762
0.00161695
0.00152925
0.00144877
0.00137267
0.00129995
0.00123059
0.001165
0.0011037
0.00104707
0.000995385
0.000948746
0.000907144
0.000870483
0.000838625
0.000811413
0.0007887
0.000770359
0.000756283
0.00074656
0.000741811
0.000740298
0.000742566
0.000750385
0.000762924
0.000780704
0.000804164
0.000833895
0.000870641
0.000915335
0.00096915
0.00103357
0.00111047
0.00120226
0.00131204
0.00144383
0.00160283
0.00179588
0.00203182
0.00232202
0.00268074
0.00312516
0.00367451
0.00434762
0.00515786
0.00610495
0.00716449
0.00827908
0.00936275
0.010338
0.0112195
0.0121885
0.0136832
0.0169406
0.0243376
0.0379341
0.0489079
0.0505163
0.0352321
0.0154384
0.0103804
0.0301564
0.016267
0.0146003
0.0143702
0.0141063
0.0134441
0.0122941
0.0107866
0.00909888
0.00742711
0.00593759
0.00472533
0.00380143
0.00312175
0.00262865
0.00227379
0.0020197
0.00183607
0.00169867
0.00158949
0.00149642
0.00141222
0.00133315
0.00125779
0.00118592
0.0011179
0.00105423
0.000995297
0.00094136
0.000892499
0.000848671
0.000809741
0.000775527
0.000745829
0.000720454
0.000699228
0.000682015
0.000668708
0.000659256
0.00065446
0.000652802
0.000654186
0.000660751
0.000671606
0.000687194
0.000707912
0.000734282
0.000766963
0.000806775
0.000854748
0.000912178
0.000980702
0.00106241
0.00116
0.00127697
0.00141791
0.00158885
0.00179778
0.00205524
0.00237491
0.0027742
0.00327421
0.00389858
0.0046699
0.00560251
0.00669096
0.00789575
0.00913328
0.0102885
0.0112775
0.0121423
0.0132605
0.0153381
0.0204176
0.0313073
0.0468362
0.0526906
0.0437858
0.0198427
0.0121306
0.0307554
0.0167401
0.0148482
0.0144706
0.0140621
0.0132093
0.0118695
0.0102098
0.008441
0.00676937
0.00534311
0.00422407
0.00339483
0.00279746
0.00237163
0.00206959
0.0018546
0.00169766
0.00157681
0.00147684
0.00138833
0.00130621
0.0012283
0.00115405
0.0010837
0.00101772
0.000956525
0.000900364
0.000849319
0.000803327
0.000762229
0.00072581
0.000693835
0.000666074
0.000642316
0.000622384
0.000606135
0.000593469
0.000584319
0.000579409
0.000577608
0.000578241
0.000583692
0.000593083
0.000606771
0.000625118
0.000648591
0.000677777
0.000713405
0.00075639
0.000807872
0.000869289
0.000942471
0.00102976
0.00113421
0.00125982
0.00141188
0.00159749
0.00182614
0.0021105
0.00246731
0.00291798
0.00348864
0.00420819
0.00510305
0.00618646
0.00744186
0.00880357
0.0101487
0.0113277
0.0122932
0.0131608
0.0145993
0.017896
0.0260867
0.0420794
0.0531764
0.0517949
0.0255414
0.0144911
0.0310515
0.0170913
0.0149794
0.0144557
0.0139294
0.0129011
0.011411
0.0096409
0.00782828
0.00618211
0.00482906
0.00380049
0.00305667
0.0025308
0.00216166
0.00190244
0.00171761
0.0015801
0.00147056
0.00137653
0.00129091
0.00121036
0.00113375
0.00106109
0.000992799
0.00092929
0.000870848
0.000817566
0.000769383
0.000726123
0.000687551
0.000653404
0.000623422
0.000597363
0.000575015
0.000556203
0.000540787
0.000528672
0.000519786
0.000514741
0.000512802
0.000512848
0.000517302
0.000525418
0.000537456
0.000553745
0.000574706
0.000600867
0.000632886
0.00067158
0.000717966
0.000773321
0.000839256
0.000917829
0.0010117
0.00112437
0.00126045
0.00142619
0.00163
0.00188337
0.0022018
0.002606
0.00312267
0.00378421
0.00462563
0.00567628
0.00694399
0.00839171
0.00991361
0.0113362
0.0124908
0.0133202
0.0143541
0.0165088
0.0223547
0.0356202
0.052665
0.0569029
0.0330685
0.0174511
0.0310311
0.0173182
0.015004
0.0143725
0.0136973
0.0125418
0.0109379
0.009094
0.00726711
0.00566343
0.00438726
0.00344345
0.00277541
0.00231092
0.00198894
0.00176395
0.00160205
0.00147853
0.00137672
0.00128663
0.0012031
0.00112404
0.00104904
0.000978366
0.000912452
0.000851613
0.000795977
0.000745501
0.000700011
0.000659259
0.00062296
0.000590831
0.000562602
0.000538033
0.000516917
0.000499084
0.000484403
0.000472779
0.00046415
0.000458937
0.00045676
0.000456525
0.000460047
0.000467052
0.000477653
0.000492147
0.000510917
0.000534443
0.000563322
0.000598295
0.00064028
0.000690421
0.000750154
0.000821304
0.000906214
0.00100794
0.00113054
0.00127946
0.00146213
0.00168877
0.00197347
0.00233557
0.00280111
0.00340373
0.00418371
0.00518257
0.00642961
0.00791768
0.00957048
0.01122
0.0126377
0.0136373
0.0143428
0.0158744
0.0197735
0.0300675
0.0496734
0.0591297
0.042663
0.0208879
0.0308641
0.0174622
0.0149646
0.014194
0.0134043
0.0121489
0.0104646
0.00857841
0.00675987
0.00520914
0.00400925
0.00314292
0.00254121
0.00212888
0.00184571
0.00164777
0.00150317
0.0013897
0.00129325
0.00120596
0.00112417
0.00104672
0.000973582
0.000905141
0.000841751
0.000783598
0.000730673
0.000682823
0.000639796
0.000601296
0.000567018
0.000536668
0.000509979
0.000486718
0.000466686
0.00044972
0.000435695
0.000424516
0.000416124
0.000410778
0.000408398
0.000407954
0.000410678
0.000416712
0.000426059
0.000438982
0.000455831
0.000477046
0.000503173
0.000534891
0.000573038
0.000618653
0.000673033
0.000737813
0.000815077
0.000907527
0.00101872
0.00115345
0.00131822
0.00152207
0.00177762
0.00210253
0.00252135
0.00306729
0.00378308
0.0047185
0.00592074
0.00741251
0.00915545
0.0110055
0.0126971
0.0140049
0.0147344
0.0156813
0.018299
0.0262379
0.0442103
0.0596197
0.0528379
0.0244407
0.0304967
0.0175419
0.0148589
0.0139499
0.0130661
0.011737
0.0100022
0.00809976
0.00630624
0.00481394
0.0036869
0.00289011
0.00234585
0.00197743
0.00172593
0.00154919
0.00141759
0.0013114
0.00121878
0.00113366
0.00105353
0.00097781
0.00090671
0.000840601
0.000779733
0.000724161
0.000673768
0.000628314
0.000587501
0.000551005
0.000518511
0.000489729
0.000464399
0.000442295
0.000423229
0.000407043
0.000393613
0.000382847
0.000374687
0.000369257
0.000366715
0.000366097
0.000368157
0.000373344
0.000381595
0.00039314
0.000408297
0.000427472
0.000451171
0.00048002
0.000514791
0.000556441
0.000606155
0.000665416
0.000736102
0.000820625
0.000922142
0.00104486
0.00119452
0.00137907
0.00160971
0.00190237
0.00227965
0.00277329
0.00342625
0.00429293
0.00543351
0.00689664
0.00868436
0.0106995
0.0126987
0.0143012
0.0151714
0.0157798
0.017579
0.0231528
0.0385899
0.0588011
0.0613484
0.0272981
0.0299249
0.0175381
0.0146826
0.013659
0.0126973
0.0113182
0.00955848
0.00766091
0.00590414
0.00447208
0.00341278
0.00267749
0.0021825
0.00185079
0.00162493
0.00146476
0.00134294
0.00124208
0.00115234
0.00106906
0.000990578
0.000916687
0.000847691
0.000783901
0.000725453
0.00067229
0.000624208
0.000580911
0.000542069
0.000507347
0.000476431
0.000449037
0.000424913
0.000403843
0.000385646
0.000370169
0.000357291
0.000346919
0.000338992
0.000333526
0.000330855
0.000330092
0.000331607
0.000336058
0.00034335
0.000353681
0.000367344
0.000384712
0.000406257
0.000432559
0.000464341
0.000502487
0.000548096
0.000602531
0.000667504
0.000745197
0.000838436
0.000950963
0.00108784
0.00125608
0.00146558
0.00173056
0.00207156
0.00251816
0.00311205
0.00390932
0.00497854
0.00638857
0.00817747
0.0102973
0.0125467
0.0145433
0.0157154
0.0162722
0.0173383
0.0211449
0.0331907
0.0566083
0.0656806
0.0286095
0.0291821
0.0175022
0.0144689
0.0133357
0.0123104
0.0109019
0.00913878
0.00726272
0.0055505
0.00417791
0.00318026
0.00249868
0.00204561
0.00174435
0.00153916
0.00139192
0.0012775
0.00118064
0.00109319
0.00101157
0.000934735
0.000862702
0.000795789
0.000734223
0.000678034
0.000627074
0.000581074
0.000539701
0.000502607
0.000469457
0.000439939
0.000413779
0.000390733
0.000370595
0.000353188
0.000338362
0.000325998
0.000316001
0.000308307
0.000302874
0.000300091
0.000299206
0.000300276
0.000304088
0.000310541
0.000319804
0.000332144
0.000347908
0.000367534
0.000391568
0.000420685
0.000455714
0.000497682
0.000547857
0.000607822
0.000679574
0.000765677
0.000869489
0.000995518
0.00114997
0.00134159
0.00158302
0.00189272
0.00229785
0.00283789
0.00356852
0.00456307
0.00590575
0.00766671
0.00984829
0.0123018
0.0146527
0.0162012
0.0168375
0.0173704
0.0200625
0.0295217
0.0524008
0.0672403
0.0288349
0.0283105
0.0174197
0.014228
0.0129923
0.0119159
0.0104951
0.00874634
0.00690457
0.00524167
0.00392606
0.00298358
0.00234837
0.00193066
0.00165452
0.00146593
0.00132878
0.00122002
0.00112625
0.00104069
0.000960629
0.000885417
0.000815211
0.000750296
0.000690809
0.000636689
0.000587716
0.000543575
0.00050391
0.000468366
0.000436609
0.000408335
0.000383278
0.000361203
0.000341909
0.000325224
0.000311
0.000299117
0.000289478
0.000282011
0.000276668
0.000273787
0.000272798
0.000273509
0.000276771
0.00028249
0.000290812
0.000301981
0.000316318
0.000334234
0.00035624
0.000382973
0.000415215
0.000453934
0.00050032
0.000555854
0.00062239
0.000702283
0.000798588
0.000915354
0.00105811
0.00123462
0.0014561
0.00173903
0.00210806
0.00259989
0.00326824
0.00418792
0.00545319
0.00716019
0.00935931
0.0119701
0.0146803
0.016716
0.0175496
0.0179125
0.01956
0.0267925
0.047521
0.0672901
0.0282591
0.027344
0.0173079
0.0139708
0.0126391
0.0115222
0.0101033
0.00838284
0.00658497
0.00497391
0.00371166
0.0028178
0.00222218
0.00183403
0.00157847
0.00140317
0.00127391
0.00116953
0.00107821
0.000994291
0.000915694
0.00084206
0.000773603
0.000710557
0.000652976
0.000600725
0.000553528
0.000511038
0.000472887
0.000438716
0.000408196
0.000381032
0.000356965
0.000335766
0.00031724
0.000301217
0.00028755
0.000276117
0.000266818
0.000259576
0.000254342
0.000251387
0.000250311
0.000250735
0.000253524
0.000258601
0.000266095
0.000276227
0.000289296
0.000305686
0.000325879
0.000350476
0.000380219
0.000416023
0.000459019
0.000510605
0.000572521
0.000646962
0.00073674
0.000845542
0.000978341
0.00114206
0.00134666
0.00160685
0.00194481
0.00239427
0.00300603
0.00385415
0.00503869
0.00667533
0.00885506
0.0115599
0.0145534
0.0171357
0.0182345
0.0185313
0.0194093
0.0247529
0.0430569
0.0650317
0.0272874
0.0263149
0.0171812
0.0137065
0.0122847
0.0111361
0.00973005
0.00804887
0.00630179
0.00474335
0.00353037
0.00267877
0.0021165
0.0017528
0.00151398
0.00134928
0.00122622
0.00112528
0.00103596
0.000953485
0.000876269
0.000804134
0.000737312
0.000675981
0.000620123
0.000569541
0.00052392
0.000482891
0.000446079
0.000413125
0.000383707
0.000357535
0.000334356
0.00031395
0.000296122
0.000280704
0.00026755
0.000256535
0.000247558
0.000240535
0.000235412
0.000232402
0.000231252
0.00023145
0.000233833
0.00023835
0.000245115
0.00025433
0.000266274
0.000281305
0.000299878
0.000322561
0.00035006
0.000383246
0.000423196
0.000471243
0.000529037
0.000598649
0.000682703
0.000784599
0.000908863
0.00106172
0.00125206
0.00149299
0.00180439
0.00221696
0.00277803
0.00355924
0.00466301
0.00621958
0.00835591
0.0111125
0.0143042
0.0174155
0.018998
0.0193615
0.0196131
0.0233577
0.039074
0.0618937
0.0261234
0.0252242
0.0170571
0.0134458
0.0119368
0.0107628
0.00937802
0.00774414
0.00605271
0.00454647
0.00337832
0.00256299
0.0020284
0.00168466
0.00145931
0.00130303
0.00118484
0.00108663
0.000998981
0.000917812
0.000841886
0.000771148
0.000705827
0.000646045
0.000591725
0.000542622
0.000498392
0.000458652
0.000423021
0.000391146
0.000362706
0.00033742
0.000315039
0.000295347
0.000278151
0.000263284
0.0002506
0.000239971
0.000231292
0.000224476
0.000219463
0.000216407
0.000215186
0.000215213
0.000217249
0.000221276
0.000227401
0.000235807
0.000246754
0.000260577
0.000277705
0.000298676
0.000324161
0.000354993
0.000392202
0.000437064
0.000491161
0.000556464
0.000635454
0.000731311
0.000848207
0.0009918
0.00117007
0.00139473
0.00168359
0.00206437
0.00258073
0.00330071
0.00432619
0.0057966
0.0078692
0.0106468
0.0140299
0.0175321
0.0197298
0.0202439
0.0202404
0.0225966
0.0355933
0.0581428
0.0249187
0.0241407