/*--------------------------------*- C++ -*----------------------------------*\
  =========                 |
  \\      /  F ield         | OpenFOAM: The Open Source CFD Toolbox
   \\    /   O peration     | Website:  https://openfoam.org
    \\  /    A nd           | Version:  13
     \\/     M anipulation  |
\*---------------------------------------------------------------------------*/
FoamFile
{
    format      ascii;
    class       volScalarField;
    location    "8.1";
    object      p;
}
// * * * * * * * * * * * * * * * * * * * * * * * * * * * * * * * * * * * * * //

dimensions      [0 2 -2 0 0 0 0];

internalField   nonuniform List<scalar> 
6400
(
-1.3642e-11
2.01253e-05
2.91589e-05
1.36874e-05
-3.15443e-05
-0.000101305
-0.000185766
-0.000275649
-0.0003646
-0.000449456
-0.000530942
-0.000613329
-0.00070135
-0.000800197
-0.000915098
-0.00105019
-0.00120843
-0.00139151
-0.00160069
-0.00183663
-0.00209974
-0.00239142
-0.00271461
-0.00307389
-0.0034757
-0.00392497
-0.00441611
-0.00494019
-0.00547426
-0.00598369
-0.00646374
-0.0069224
-0.00735779
-0.0077672
-0.00814522
-0.00848306
-0.00876924
-0.00899047
-0.00913282
-0.00918242
-0.00912613
-0.00895275
-0.0086542
-0.00822644
-0.00766725
-0.00696852
-0.00612223
-0.00514684
-0.00405919
-0.0028663
-0.00158892
-0.000248393
0.00112609
0.0025019
0.00383842
0.00509048
0.00621404
0.00716765
0.00791202
0.00841624
0.00866238
0.0086489
0.00839002
0.00790433
0.00725715
0.00649726
0.00569049
0.00489979
0.00418159
0.00356565
0.00308642
0.00275407
0.00253837
0.00241391
0.00236084
0.00235567
0.00237926
0.00241647
0.00245669
0.002484
-1.52383e-05
5.29181e-06
9.58692e-06
-1.09426e-05
-5.90731e-05
-0.000128777
-0.000209231
-0.000291789
-0.00037143
-0.000446823
-0.00052006
-0.000595251
-0.000677251
-0.000770855
-0.000879953
-0.00100812
-0.00115866
-0.00133409
-0.001535
-0.0017616
-0.00201287
-0.00228937
-0.00259434
-0.00293038
-0.00330063
-0.00371252
-0.00417347
-0.00468185
-0.00522353
-0.00577402
-0.00630545
-0.00680867
-0.00728572
-0.00773352
-0.00814628
-0.0085152
-0.00882902
-0.00907509
-0.00924025
-0.00931189
-0.009278
-0.00912853
-0.00885583
-0.00845415
-0.00791873
-0.00724578
-0.00644222
-0.00551566
-0.00446805
-0.00331723
-0.00208115
-0.000783142
0.000548775
0.0018811
0.00317616
0.00439383
0.00549148
0.00642758
0.00716636
0.00767795
0.00794398
0.00796178
0.00774422
0.00731781
0.00672944
0.0060337
0.00529217
0.00456394
0.00390196
0.00334749
0.00291845
0.00262192
0.00244429
0.00236191
0.00235033
0.00238182
0.00242564
0.00246465
0.00249724
0.00252302
-3.15519e-05
-8.82163e-06
-1.02899e-05
-4.01132e-05
-9.63482e-05
-0.000168632
-0.000245109
-0.000317556
-0.000383325
-0.00044408
-0.000503578
-0.000566818
-0.000638861
-0.000723508
-0.000823283
-0.000940029
-0.00107531
-0.00123136
-0.00141042
-0.00161524
-0.00184943
-0.00211622
-0.00241997
-0.00276566
-0.00315756
-0.00359823
-0.0040881
-0.00462315
-0.00519237
-0.00577809
-0.00636035
-0.00692327
-0.00745761
-0.00795686
-0.00841402
-0.00881993
-0.00916432
-0.00943616
-0.00962375
-0.00971569
-0.00970181
-0.00957329
-0.0093231
-0.00894612
-0.00843943
-0.00780242
-0.00703153
-0.00613961
-0.00513307
-0.00402485
-0.00283175
-0.00157551
-0.000282705
0.00101535
0.00228325
0.0034828
0.00457235
0.00551098
0.00626356
0.00680129
0.00710495
0.00716965
0.00700745
0.00664473
0.00612421
0.00549839
0.00482246
0.00415947
0.00355644
0.00305027
0.00266528
0.00241449
0.00228541
0.00224897
0.00227437
0.00233705
0.00240695
0.0024652
0.00251271
0.00254993
-4.01725e-05
-1.85268e-05
-2.75951e-05
-6.87242e-05
-0.000135156
-0.000210608
-0.000283388
-0.000346918
-0.00039983
-0.000444417
-0.000486895
-0.000534031
-0.000591385
-0.000662726
-0.000749801
-0.000853424
-0.000974979
-0.00111728
-0.00128423
-0.00148139
-0.0017159
-0.00199567
-0.00232808
-0.00271574
-0.00316103
-0.0036652
-0.00422414
-0.00482728
-0.00545881
-0.00610198
-0.00674022
-0.00735831
-0.007944
-0.00848817
-0.00898238
-0.00941736
-0.00978414
-0.010073
-0.0102738
-0.0103767
-0.0103732
-0.0102556
-0.0100173
-0.00965447
-0.00916539
-0.00854819
-0.00780436
-0.00693939
-0.00596057
-0.00487992
-0.00371324
-0.00248073
-0.0012068
7.9967e-05
0.00134616
0.00255374
0.00366218
0.00463147
0.00542457
0.00601174
0.006372
0.0064965
0.00639481
0.0060932
0.00563125
0.00505815
0.00443083
0.00380826
0.00324072
0.00276596
0.00240783
0.00217695
0.00206558
0.00205732
0.00212194
0.00221943
0.00232132
0.00240998
0.00248152
0.00253123
-3.42471e-05
-2.02661e-05
-3.9557e-05
-9.22968e-05
-0.000168324
-0.000246668
-0.00031577
-0.000370546
-0.000410998
-0.000441493
-0.000469291
-0.000502048
-0.000545782
-0.000604213
-0.000679511
-0.000773524
-0.000889386
-0.00103284
-0.00121098
-0.001432
-0.00170571
-0.00203779
-0.00243303
-0.00289577
-0.00342534
-0.00401576
-0.00465678
-0.00533382
-0.00602932
-0.00672699
-0.00741139
-0.00806997
-0.00869209
-0.00926729
-0.00978644
-0.0102408
-0.0106218
-0.0109206
-0.0111289
-0.0112386
-0.011242
-0.0111329
-0.0109054
-0.0105555
-0.0100829
-0.00948685
-0.00876815
-0.00792954
-0.00697718
-0.00592202
-0.00477933
-0.00356734
-0.00230726
-0.00102379
0.000251568
0.00147993
0.00262188
0.00363965
0.00449528
0.00515631
0.00559931
0.00581084
0.00579423
0.00557102
0.00518131
0.00467201
0.00409759
0.00351552
0.00297811
0.0025255
0.00218429
0.00196469
0.00186286
0.00186242
0.00193789
0.00205605
0.0021838
0.0023003
0.00239463
0.00245371
-4.94816e-06
-5.1711e-06
-3.7007e-05
-0.000103679
-0.000187921
-0.000267381
-0.000332457
-0.000379535
-0.000409882
-0.000429552
-0.000446974
-0.000470233
-0.000505521
-0.000557243
-0.000629254
-0.000726043
-0.000854174
-0.00102247
-0.00124185
-0.00151946
-0.00186299
-0.00227977
-0.00277131
-0.0033345
-0.00396053
-0.00463737
-0.00535279
-0.00609282
-0.00684197
-0.00758502
-0.0083078
-0.00899864
-0.00964734
-0.0102443
-0.010781
-0.011249
-0.0116395
-0.0119453
-0.0121597
-0.0122758
-0.012287
-0.0121894
-0.0119771
-0.0116461
-0.0111993
-0.0106338
-0.00994947
-0.00914822
-0.00823443
-0.00721674
-0.00610917
-0.00492623
-0.00368483
-0.00240628
-0.00112249
0.000127618
0.00130908
0.00238807
0.00332386
0.00408076
0.00463439
0.00496523
0.0050714
0.0049644
0.0046793
0.00426347
0.00376876
0.00324905
0.00275688
0.00233527
0.00201333
0.0018042
0.00170623
0.00170577
0.00177942
0.00189898
0.00203398
0.00216122
0.00226547
0.00232777
5.81151e-05
4.01678e-05
-8.13753e-06
-9.17611e-05
-0.000181338
-0.000261172
-0.000323034
-0.000364657
-0.000389278
-0.000404178
-0.000418349
-0.000440166
-0.00047648
-0.000533452
-0.000617981
-0.000737712
-0.000902998
-0.00112564
-0.00141402
-0.00177692
-0.0022209
-0.00274703
-0.00334658
-0.00400892
-0.00472397
-0.00547971
-0.00626239
-0.00705808
-0.00785306
-0.00863395
-0.00938817
-0.0101049
-0.0107744
-0.011388
-0.0119376
-0.0124146
-0.0128106
-0.0131209
-0.0133402
-0.013463
-0.0134865
-0.0134054
-0.0132154
-0.0129129
-0.0124997
-0.0119705
-0.0113267
-0.0105721
-0.00971201
-0.00875249
-0.00769893
-0.00656223
-0.00535799
-0.00410853
-0.00283898
-0.00157682
-0.000352345
0.000797673
0.00182535
0.00269865
0.00339073
0.003874
0.00414235
0.00419749
0.00406406
0.00378334
0.00340512
0.00298102
0.00256119
0.00218995
0.0018992
0.00170548
0.00161034
0.00160573
0.0016687
0.00177653
0.0019019
0.00202171
0.00212064
0.00217783
0.00016511
0.000126493
5.6145e-05
-4.14429e-05
-0.00013658
-0.000217843
-0.000278627
-0.000319155
-0.000344372
-0.00036264
-0.000383394
-0.000415459
-0.000467052
-0.000547175
-0.000665768
-0.000834329
-0.00106476
-0.00136876
-0.00175479
-0.00222914
-0.0027884
-0.00342424
-0.00412621
-0.00488263
-0.00568056
-0.00650704
-0.00734883
-0.00819301
-0.00902714
-0.00983928
-0.0106184
-0.0113546
-0.0120386
-0.0126616
-0.0132157
-0.0136935
-0.0140918
-0.0144072
-0.0146342
-0.0147687
-0.0148072
-0.0147436
-0.0145759
-0.0143031
-0.0139207
-0.0134299
-0.0128325
-0.0121318
-0.0113326
-0.0104388
-0.00945227
-0.00838142
-0.00724013
-0.00604617
-0.00481666
-0.00356913
-0.00233123
-0.00114055
-2.76172e-05
0.000978618
0.00182705
0.00249118
0.00295844
0.00321901
0.00328643
0.0031892
0.00297111
0.00268136
0.00236698
0.00207235
0.00183156
0.0016648
0.00157802
0.00156555
0.00161251
0.00170015
0.00180331
0.00190296
0.00198203
0.0020246
0.000321409
0.000261936
0.000166658
5.51196e-05
-4.66878e-05
-0.000130886
-0.000194472
-0.00023985
-0.000273825
-0.000305766
-0.000345608
-0.000403072
-0.000488446
-0.000613808
-0.000792467
-0.00103654
-0.00135881
-0.00177062
-0.00227484
-0.00286721
-0.00354048
-0.00428316
-0.00508211
-0.00592389
-0.00679536
-0.0076836
-0.00857624
-0.00946127
-0.0103272
-0.0111633
-0.0119596
-0.0127069
-0.013396
-0.0140193
-0.0145718
-0.0150514
-0.0154567
-0.0157803
-0.0160167
-0.0161613
-0.0162092
-0.0161596
-0.0160117
-0.015765
-0.0154154
-0.0149659
-0.0144171
-0.0137708
-0.0130292
-0.0121959
-0.0112768
-0.0102789
-0.00921216
-0.00808946
-0.0069234
-0.00572409
-0.00451006
-0.00330721
-0.00213698
-0.00104045
-5.10763e-05
0.000811685
0.0014978
0.001996
0.00230621
0.00244148
0.00243039
0.00231717
0.00214491
0.00195598
0.00178768
0.00166381
0.00159472
0.00157922
0.00160823
0.001668
0.00174079
0.00181127
0.00185972
0.00188334
0.00053449
0.000451744
0.00032881
0.000201944
9.08569e-05
5.5674e-07
-7.0787e-05
-0.000128454
-0.000181116
-0.0002391
-0.00031304
-0.000413934
-0.000554646
-0.000750084
-0.0010141
-0.00135889
-0.00179628
-0.00233047
-0.00295736
-0.00366844
-0.00445214
-0.00529402
-0.00618055
-0.00709802
-0.00803361
-0.00897475
-0.00990974
-0.0108273
-0.0117169
-0.0125687
-0.0133737
-0.0141239
-0.0148134
-0.0154377
-0.015992
-0.0164725
-0.0168735
-0.0171906
-0.0174214
-0.0175647
-0.0176183
-0.0175806
-0.0174514
-0.0172302
-0.0169147
-0.0165066
-0.0160071
-0.0154176
-0.0147399
-0.0139765
-0.0131317
-0.0122106
-0.0112193
-0.0101649
-0.0090561
-0.00790692
-0.00673562
-0.00555732
-0.00438388
-0.00323671
-0.00213828
-0.00112644
-0.000235154
0.000516824
0.00109491
0.00150151
0.00174398
0.00185124
0.00186114
0.00181111
0.00173918
0.00167579
0.00163667
0.00162596
0.0016394
0.00166986
0.00170787
0.00174172
0.00175651
0.00176127
0.000806614
0.000694767
0.000542838
0.000395429
0.000273016
0.000172116
8.66389e-05
7.80564e-06
-7.50144e-05
-0.000173112
-0.000297917
-0.000462293
-0.000681253
-0.000970153
-0.00134211
-0.00180749
-0.00237187
-0.00303341
-0.00378292
-0.00460756
-0.00549329
-0.00642528
-0.00738977
-0.00837327
-0.00936323
-0.0103476
-0.0113152
-0.0122556
-0.0131593
-0.0140178
-0.0148236
-0.0155703
-0.0162531
-0.0168676
-0.0174103
-0.0178782
-0.0182674
-0.0185755
-0.0188008
-0.0189427
-0.0189999
-0.0189717
-0.0188579
-0.0186583
-0.0183724
-0.0180011
-0.0175458
-0.0170079
-0.0163893
-0.0156924
-0.0149202
-0.0140765
-0.0131654
-0.0121911
-0.0111585
-0.0100753
-0.00895081
-0.00779614
-0.00662984
-0.00547062
-0.00432745
-0.00321735
-0.00216051
-0.00119659
-0.000351505
0.000340758
0.00087053
0.00124152
0.00147589
0.00160366
0.00165763
0.0016731
0.00167634
0.00167872
0.00168285
0.00168649
0.00168898
0.00168369
0.00166656
0.00165481
0.00112572
0.0009841
0.000796827
0.000625998
0.000488903
0.000373096
0.000266261
0.000156314
3.0833e-05
-0.000122281
-0.000315679
-0.000563513
-0.000881414
-0.00128347
-0.00178004
-0.00237686
-0.00307341
-0.00386144
-0.00472762
-0.00565752
-0.00663589
-0.00764802
-0.00868005
-0.00971876
-0.0107519
-0.011768
-0.0127566
-0.0137084
-0.0146153
-0.0154701
-0.016267
-0.017001
-0.0176684
-0.0182661
-0.0187916
-0.0192429
-0.0196179
-0.0199151
-0.0201336
-0.0202725
-0.0203315
-0.0203104
-0.0202091
-0.0200279
-0.0197671
-0.0194278
-0.0190111
-0.0185187
-0.0179523
-0.0173143
-0.0166071
-0.0158335
-0.0149965
-0.0140992
-0.0131447
-0.0121371
-0.0110803
-0.009979
-0.00884089
-0.00767628
-0.00650145
-0.00533675
-0.00418507
-0.00306442
-0.00200252
-0.0010427
-0.000219719
0.000444149
0.000943854
0.0012916
0.00151045
0.00163087
0.00168977
0.00171296
0.00171293
0.00169479
0.00166484
0.00162384
0.00158009
0.00155417
0.0014776
0.00130451
0.00107727
0.000880145
0.000724652
0.000588038
0.000451674
0.000300049
0.000119191
-0.000103934
-0.000382474
-0.000731443
-0.00116511
-0.0016944
-0.00232532
-0.00305786
-0.00388485
-0.00479326
-0.00576784
-0.00679313
-0.00785357
-0.00893455
-0.0100222
-0.0111038
-0.0121675
-0.0132027
-0.0142002
-0.0151522
-0.016052
-0.0168941
-0.0176743
-0.0183893
-0.0190363
-0.0196135
-0.0201194
-0.0205527
-0.0209122
-0.0211973
-0.0214075
-0.0215423
-0.0216017
-0.0215858
-0.0214949
-0.0213295
-0.0210903
-0.0207784
-0.0203952
-0.0199422
-0.0194213
-0.0188345
-0.018184
-0.017472
-0.0167008
-0.0158726
-0.0149892
-0.0140528
-0.013065
-0.0120276
-0.0109422
-0.00981104
-0.00863869
-0.00743471
-0.00621637
-0.0049981
-0.00378857
-0.00261783
-0.00152997
-0.000571465
0.00022059
0.000828092
0.00125505
0.00152005
0.00165723
0.001711
0.00171091
0.00167527
0.00161851
0.00154881
0.00148575
0.00145096
0.00184401
0.00163658
0.00136731
0.00113945
0.000961091
0.000797327
0.000622963
0.000419256
0.000170949
-0.000135284
-0.000513574
-0.000977839
-0.00153915
-0.00220404
-0.00297245
-0.00383811
-0.00478876
-0.00580857
-0.00688119
-0.00799053
-0.00912099
-0.0102581
-0.0113883
-0.0124994
-0.0135806
-0.0146228
-0.0156183
-0.0165608
-0.0174455
-0.0182685
-0.0190272
-0.0197194
-0.0203436
-0.0208989
-0.0213844
-0.0217994
-0.0221434
-0.0224165
-0.0226183
-0.0227487
-0.0228079
-0.0227962
-0.0227141
-0.0225623
-0.0223417
-0.0220535
-0.021699
-0.0212798
-0.0207978
-0.0202548
-0.0196529
-0.018994
-0.0182798
-0.017512
-0.0166916
-0.0158194
-0.0148955
-0.0139196
-0.012891
-0.0118085
-0.0106708
-0.00947755
-0.00823185
-0.00694424
-0.00563799
-0.00432332
-0.00302821
-0.00180931
-0.000724854
0.000170396
0.000845732
0.00130115
0.0015564
0.00165975
0.00166783
0.00161772
0.00153862
0.00144718
0.00137181
0.00133183
0.00220004
0.00195697
0.001642
0.00138173
0.00117639
0.000979156
0.000758616
0.000493621
0.000167852
-0.000233047
-0.000722746
-0.001312
-0.00200766
-0.00280964
-0.00371213
-0.00470355
-0.00576799
-0.00688799
-0.00804648
-0.00922702
-0.0104141
-0.0115936
-0.0127527
-0.0138804
-0.0149673
-0.016006
-0.0169905
-0.0179165
-0.0187807
-0.0195808
-0.0203154
-0.0209835
-0.0215844
-0.0221179
-0.0225836
-0.0229813
-0.0233111
-0.023573
-0.0237671
-0.0238935
-0.0239526
-0.0239446
-0.0238704
-0.0237305
-0.023526
-0.0232581
-0.0229282
-0.0225378
-0.0220888
-0.0215829
-0.021022
-0.0204079
-0.0197421
-0.0190258
-0.0182597
-0.0174437
-0.0165771
-0.0156583
-0.0146847
-0.0136528
-0.0125588
-0.0113984
-0.0101683
-0.00886834
-0.00750482
-0.0060933
-0.00465988
-0.00323832
-0.00189719
-0.000711862
0.000244404
0.00093307
0.0013564
0.00154785
0.00157886
0.00152065
0.0014215
0.00131167
0.00122871
0.0011847
0.00251838
0.0022401
0.00187924
0.00158446
0.00134787
0.00111081
0.000837059
0.000503349
9.17337e-05
-0.000413015
-0.0010214
-0.00174018
-0.00256982
-0.00350452
-0.00453313
-0.00563969
-0.0068058
-0.00801301
-0.00924375
-0.0104815
-0.0117112
-0.0129194
-0.0140945
-0.0152271
-0.0163098
-0.0173368
-0.0183041
-0.019209
-0.0200498
-0.0208254
-0.0215355
-0.0221797
-0.0227583
-0.0232712
-0.0237187
-0.024101
-0.0244181
-0.0246703
-0.0248579
-0.0249812
-0.0250404
-0.0250361
-0.0249689
-0.0248397
-0.0246493
-0.0243991
-0.0240903
-0.0237245
-0.0233033
-0.0228286
-0.0223021
-0.0217254
-0.0210999
-0.0204267
-0.0197063
-0.0189383
-0.0181215
-0.0172536
-0.0163311
-0.0153492
-0.0143019
-0.0131824
-0.0119842
-0.0107019
-0.00933307
-0.00788074
-0.00636041
-0.00480531
-0.00326573
-0.00182414
-0.00057862
0.000383927
0.00102292
0.00135367
0.00144107
0.00138623
0.00126928
0.00114202
0.00105147
0.00100056
0.00277869
0.00246191
0.00205593
0.00172504
0.00145293
0.00117077
0.000838853
0.000430966
-7.36585e-05
-0.000687327
-0.00141651
-0.00226295
-0.00322107
-0.0042799
-0.00542332
-0.00663201
-0.00788599
-0.00916613
-0.0104546
-0.0117353
-0.0129938
-0.0142179
-0.0153978
-0.0165259
-0.0175966
-0.0186062
-0.0195524
-0.020434
-0.0212503
-0.0220016
-0.0226879
-0.0233099
-0.0238678
-0.0243623
-0.0247938
-0.0251626
-0.0254689
-0.0257131
-0.0258955
-0.0260165
-0.0260765
-0.0260759
-0.0260153
-0.0258957
-0.0257179
-0.025483
-0.0251924
-0.0248476
-0.0244501
-0.0240015
-0.0235037
-0.022958
-0.022366
-0.0217285
-0.0210459
-0.020318
-0.0195433
-0.0187194
-0.0178424
-0.016907
-0.0159063
-0.0148319
-0.0136748
-0.0124259
-0.0110774
-0.00962593
-0.00807538
-0.00644444
-0.00477461
-0.00313584
-0.0016312
-0.000380115
0.000522347
0.00104843
0.00124235
0.00121364
0.00108638
0.000940788
0.000835993
0.000772316
0.00294609
0.00259811
0.00215034
0.00178291
0.00147202
0.00114174
0.000748028
0.000260744
-0.000339257
-0.00106144
-0.00190898
-0.00287678
-0.00395434
-0.00512548
-0.00637
-0.00766625
-0.00899319
-0.0103313
-0.011663
-0.0129727
-0.0142472
-0.0154762
-0.0166516
-0.0177679
-0.0188215
-0.0198103
-0.0207335
-0.0215911
-0.0223835
-0.0231115
-0.0237759
-0.0243776
-0.0249173
-0.0253957
-0.0258134
-0.0261707
-0.0264682
-0.026706
-0.0268846
-0.0270042
-0.0270654
-0.0270686
-0.0270144
-0.0269035
-0.0267369
-0.0265156
-0.0262409
-0.0259141
-0.0255367
-0.0251103
-0.0246364
-0.0241166
-0.0235521
-0.0229439
-0.0222924
-0.0215975
-0.0208578
-0.020071
-0.0192334
-0.0183395
-0.0173823
-0.0163528
-0.0152408
-0.0140348
-0.0127235
-0.0112979
-0.00975426
-0.00809928
-0.00635927
-0.00459087
-0.00288577
-0.00136786
-0.000176338
0.000596684
0.000957607
0.000998127
0.000872417
0.000707784
0.000577632
0.000496461
0.00300741
0.00263129
0.00214526
0.00174159
0.00139058
0.00101034
0.000551948
-1.57483e-05
-0.000709697
-0.00153708
-0.00249571
-0.00357547
-0.00476043
-0.00602979
-0.00736026
-0.00872862
-0.0101132
-0.0114944
-0.0128552
-0.0141812
-0.0154608
-0.0166856
-0.0178495
-0.018949
-0.0199822
-0.0209485
-0.0218484
-0.0226826
-0.0234524
-0.0241591
-0.0248037
-0.0253875
-0.0259113
-0.0263759
-0.026782
-0.0271299
-0.0274202
-0.0276531
-0.0278289
-0.0279481
-0.028011
-0.028018
-0.0279698
-0.0278671
-0.0277106
-0.0275014
-0.0272406
-0.0269295
-0.0265694
-0.0261618
-0.0257081
-0.0252098
-0.0246681
-0.024084
-0.023458
-0.0227901
-0.0220792
-0.0213233
-0.020519
-0.0196612
-0.0187431
-0.0177559
-0.0166888
-0.0155295
-0.0142646
-0.0128813
-0.01137
-0.00972779
-0.00796645
-0.00612623
-0.00428702
-0.00255774
-0.00108568
-2.40116e-05
0.0005578
0.00071892
0.000622081
0.000439388
0.000271912
0.000172083
0.00294757
0.00254801
0.00202859
0.00159035
0.00119904
0.000767233
0.000243512
-0.000401646
-0.001185
-0.00211063
-0.00317078
-0.00435039
-0.00562855
-0.00698069
-0.00838128
-0.00980609
-0.0112332
-0.0126434
-0.0140205
-0.0153518
-0.0166274
-0.017841
-0.0189884
-0.0200679
-0.0210791
-0.0220226
-0.0228997
-0.0237119
-0.024461
-0.0251484
-0.0257756
-0.0263438
-0.026854
-0.027307
-0.0277034
-0.0280436
-0.0283282
-0.0285574
-0.0287316
-0.0288509
-0.0289159
-0.0289269
-0.0288845
-0.0287893
-0.028642
-0.0284437
-0.0281952
-0.0278978
-0.0275528
-0.0271613
-0.0267248
-0.0262447
-0.0257221
-0.025158
-0.0245529
-0.0239071
-0.0232197
-0.0224893
-0.0217128
-0.0208858
-0.020002
-0.0190533
-0.0180289
-0.0169165
-0.0157016
-0.0143694
-0.0129062
-0.0113025
-0.00955746
-0.0076926
-0.00577434
-0.00389951
-0.00219516
-0.000842225
1.12916e-05
0.000355032
0.000324361
0.000126666
-8.50097e-05
-0.000202422
0.00275773
0.00234035
0.00179348
0.00132338
0.000891903
0.000409087
-0.000176653
-0.000894855
-0.00176128
-0.00277547
-0.00392531
-0.00519083
-0.00654682
-0.00796579
-0.00942069
-0.0108867
-0.0123421
-0.0137684
-0.0151508
-0.0164781
-0.0177427
-0.01894
-0.0200677
-0.0211255
-0.0221142
-0.0230354
-0.023891
-0.0246829
-0.0254132
-0.0260836
-0.0266956
-0.0272504
-0.027749
-0.0281922
-0.0285807
-0.0289148
-0.029195
-0.0294215
-0.0295946
-0.0297146
-0.029782
-0.0297969
-0.02976
-0.0296719
-0.0295331
-0.0293446
-0.0291072
-0.028822
-0.0284901
-0.0281127
-0.0276911
-0.0272265
-0.02672
-0.0261727
-0.0255851
-0.0249575
-0.0242895
-0.02358
-0.0228265
-0.0220255
-0.0211713
-0.0202566
-0.0192716
-0.0182041
-0.0170396
-0.0157621
-0.0143555
-0.0128065
-0.0111055
-0.0092548
-0.00729594
-0.00533744
-0.003468
-0.00185403
-0.000703237
-0.000124639
-4.41211e-05
-0.000238441
-0.000493299
-0.000626849
0.00243551
0.0020064
0.0014386
0.000939927
0.000469939
-6.13602e-05
-0.000704571
-0.00148942
-0.00242999
-0.00352174
-0.00474808
-0.00608465
-0.00750279
-0.00897286
-0.0104669
-0.0119599
-0.0134306
-0.0148618
-0.01624
-0.0175562
-0.0188045
-0.0199821
-0.0210882
-0.0221237
-0.0230904
-0.0239903
-0.0248259
-0.0255994
-0.026313
-0.0269684
-0.0275671
-0.0281104
-0.0285992
-0.0290343
-0.0294162
-0.0297453
-0.0300221
-0.0302467
-0.0304195
-0.0305406
-0.0306104
-0.0306292
-0.0305976
-0.030516
-0.030385
-0.0302054
-0.029978
-0.0297037
-0.0293835
-0.0290186
-0.02861
-0.0281589
-0.0276664
-0.0271333
-0.0265605
-0.0259482
-0.0252965
-0.0246043
-0.0238701
-0.0230908
-0.0222619
-0.0213769
-0.0204271
-0.0194013
-0.0182853
-0.0170629
-0.0157165
-0.01423
-0.0125897
-0.0107854
-0.00882717
-0.00681572
-0.0048496
-0.00303885
-0.00160699
-0.000752198
-0.00050076
-0.000664942
-0.000950994
-0.00110092
0.00198425
0.00154977
0.000967657
0.000444161
-6.14413e-05
-0.000636667
-0.0013316
-0.00217583
-0.00318035
-0.00433741
-0.00562633
-0.00701895
-0.00848391
-0.00999013
-0.0115092
-0.0130163
-0.0144912
-0.0159177
-0.0172845
-0.018584
-0.0198124
-0.0209681
-0.0220518
-0.0230652
-0.0240105
-0.0248905
-0.0257078
-0.0264647
-0.0271634
-0.0278057
-0.0283929
-0.0289263
-0.0294068
-0.029835
-0.0302115
-0.0305367
-0.0308108
-0.0310341
-0.0312069
-0.0313293
-0.0314016
-0.0314243
-0.0313977
-0.0313222
-0.0311984
-0.031027
-0.0308086
-0.0305442
-0.0302346
-0.0298808
-0.0294838
-0.0290446
-0.0285643
-0.0280437
-0.0274836
-0.0268845
-0.0262465
-0.0255691
-0.0248511
-0.0240902
-0.0232828
-0.0224236
-0.0215049
-0.0205168
-0.0194462
-0.0182772
-0.0169917
-0.0155712
-0.0139997
-0.0122616
-0.010349
-0.0083039
-0.00628845
-0.00435247
-0.00268261
-0.00154063
-0.00107138
-0.00116925
-0.0014571
-0.00162952
0.00141229
0.000978821
0.000388585
-0.000155113
-0.000692202
-0.00130635
-0.00204654
-0.00294132
-0.00399911
-0.0052089
-0.00654649
-0.00798064
-0.00947801
-0.0110066
-0.0125381
-0.0140482
-0.0155176
-0.016932
-0.0182816
-0.0195607
-0.0207667
-0.0218995
-0.0229606
-0.0239524
-0.0248777
-0.0257392
-0.0265398
-0.0272817
-0.0279672
-0.0285979
-0.0291751
-0.0297
-0.0301733
-0.0305957
-0.0309677
-0.0312896
-0.0315616
-0.0317841
-0.0319571
-0.032081
-0.0321559
-0.0321822
-0.0321603
-0.0320905
-0.0319734
-0.0318095
-0.0315994
-0.031344
-0.031044
-0.0307003
-0.0303137
-0.0298853
-0.0294159
-0.0289064
-0.0283576
-0.02777
-0.027144
-0.0264794
-0.0257753
-0.0250303
-0.0242414
-0.0234045
-0.0225132
-0.0215589
-0.0205298
-0.0194111
-0.0181849
-0.0168314
-0.0153323
-0.0136707
-0.0118266
-0.00979805
-0.00774189
-0.00574483
-0.00390396
-0.00249829
-0.00177787
-0.00174947
-0.00201659
-0.0022235
0.000732095
0.000305958
-0.000286138
-0.000845209
-0.00140889
-0.00205653
-0.00283529
-0.0037716
-0.00487174
-0.00612184
-0.00749475
-0.00895688
-0.0104735
-0.0120124
-0.0135452
-0.0150489
-0.0165054
-0.0179018
-0.0192301
-0.020486
-0.0216683
-0.0227779
-0.0238169
-0.024788
-0.0256943
-0.0265388
-0.0273242
-0.0280527
-0.0287263
-0.0293467
-0.0299151
-0.0304326
-0.0308997
-0.0313171
-0.0316853
-0.0320044
-0.0322748
-0.0324967
-0.0326702
-0.0327956
-0.032873
-0.0329028
-0.0328853
-0.0328208
-0.0327098
-0.0325529
-0.0323505
-0.0321033
-0.0318121
-0.0314776
-0.0311006
-0.030682
-0.0302226
-0.0297232
-0.0291846
-0.0286074
-0.0279921
-0.0273387
-0.026647
-0.0259158
-0.0251432
-0.0243258
-0.0234587
-0.0225344
-0.0215429
-0.0204707
-0.0193008
-0.018013
-0.0165871
-0.0150048
-0.0132442
-0.0112869
-0.00919386
-0.0071724
-0.0052362
-0.00361783
-0.00263825
-0.00242238
-0.00264648
-0.00289963
-3.92316e-05
-0.000453934
-0.00104144
-0.00161109
-0.00219688
-0.00287252
-0.00368234
-0.00465119
-0.00578305
-0.00706168
-0.00845759
-0.00993546
-0.0114598
-0.0129984
-0.0145235
-0.0160132
-0.0174507
-0.0188249
-0.0201291
-0.0213603
-0.0225184
-0.023605
-0.0246225
-0.025574
-0.0264627
-0.0272915
-0.0280629
-0.0287792
-0.0294423
-0.0300535
-0.0306141
-0.0311249
-0.0315866
-0.0319997
-0.0323645
-0.0326814
-0.0329504
-0.0331719
-0.033346
-0.0334728
-0.0335526
-0.0335857
-0.0335723
-0.0335127
-0.0334075
-0.0332569
-0.0330616
-0.0328221
-0.032539
-0.032213
-0.0318449
-0.0314353
-0.0309851
-0.030495
-0.0299658
-0.0293982
-0.0287928
-0.0281497
-0.0274691
-0.0267504
-0.0259922
-0.0251922
-0.0243465
-0.0234491
-0.0224914
-0.0214617
-0.0203444
-0.0191199
-0.0177667
-0.0162653
-0.0145956
-0.0127274
-0.0106474
-0.00860477
-0.00663682
-0.00487243
-0.00365577
-0.0032225
-0.00336401
-0.00367909
-0.000882718
-0.00128351
-0.00186148
-0.00243737
-0.0030403
-0.00373802
-0.0045716
-0.00556425
-0.00671787
-0.00801423
-0.00942208
-0.010905
-0.0124272
-0.0139567
-0.0154668
-0.0169366
-0.0183509
-0.0196999
-0.0209783
-0.0221842
-0.0233181
-0.0243822
-0.0253791
-0.0263122
-0.0271844
-0.0279987
-0.0287574
-0.0294626
-0.030116
-0.030719
-0.0312726
-0.0317775
-0.0322343
-0.0326435
-0.0330054
-0.0333202
-0.0335881
-0.0338093
-0.033984
-0.0341122
-0.0341943
-0.0342304
-0.0342208
-0.0341658
-0.0340658
-0.0339212
-0.0337325
-0.0335
-0.0332245
-0.0329064
-0.0325465
-0.0321454
-0.0317038
-0.0312225
-0.0307022
-0.0301436
-0.0295473
-0.0289139
-0.0282437
-0.0275364
-0.0267914
-0.026007
-0.0251805
-0.0243072
-0.0233801
-0.022389
-0.02132
-0.020155
-0.0188724
-0.0174506
-0.0158692
-0.0140977
-0.0121076
-0.0100337
-0.00806917
-0.00623296
-0.00482549
-0.00416854
-0.0041865
-0.00458987
-0.00178008
-0.00216467
-0.00272918
-0.00330692
-0.00392204
-0.00463604
-0.00548665
-0.00649512
-0.00766147
-0.00896599
-0.0103763
-0.0118552
-0.0133671
-0.0148807
-0.0163701
-0.0178157
-0.0192038
-0.0205259
-0.0217776
-0.0229581
-0.0240683
-0.0251107
-0.0260882
-0.0270039
-0.0278608
-0.0286616
-0.0294086
-0.0301037
-0.0307483
-0.0313438
-0.0318909
-0.0323905
-0.0328429
-0.0332486
-0.0336078
-0.0339208
-0.0341877
-0.0344087
-0.0345839
-0.0347134
-0.0347976
-0.0348365
-0.0348304
-0.0347796
-0.0346845
-0.0345454
-0.0343627
-0.0341369
-0.0338683
-0.0335577
-0.0332055
-0.0328123
-0.0323789
-0.0319059
-0.031394
-0.0308439
-0.0302565
-0.0296323
-0.0289718
-0.0282752
-0.0275424
-0.0267724
-0.0259634
-0.025112
-0.0242125
-0.0232565
-0.0222321
-0.0211227
-0.0199076
-0.0185635
-0.0170693
-0.0153998
-0.0135217
-0.0114516
-0.00950796
-0.00766636
-0.00613065
-0.00526065
-0.00514023
-0.00564678
-0.0027128
-0.00307923
-0.00362683
-0.00420216
-0.0048249
-0.00554994
-0.00641153
-0.00742873
-0.00859996
-0.00990448
-0.0113092
-0.0127768
-0.014272
-0.0157643
-0.0172289
-0.0186475
-0.0200076
-0.0213019
-0.022527
-0.0236824
-0.0247697
-0.0257914
-0.0267505
-0.0276499
-0.0284926
-0.0292809
-0.0300171
-0.0307028
-0.0313394
-0.031928
-0.0324692
-0.0329638
-0.0334122
-0.0338147
-0.0341715
-0.0344828
-0.0347487
-0.0349695
-0.0351452
-0.0352759
-0.0353619
-0.0354034
-0.0354006
-0.0353537
-0.0352631
-0.035129
-0.0349519
-0.0347322
-0.0344702
-0.0341665
-0.0338215
-0.0334359
-0.0330102
-0.0325451
-0.0320413
-0.0314995
-0.0309205
-0.0303051
-0.029654
-0.0289677
-0.0282464
-0.0274898
-0.026697
-0.0258655
-0.0249911
-0.0240671
-0.0230834
-0.0220253
-0.0208735
-0.0196051
-0.018199
-0.016634
-0.014869
-0.0128631
-0.0109198
-0.00911984
-0.00752502
-0.00648235
-0.0062476
-0.00683496
-0.00366291
-0.00400903
-0.00453679
-0.00510638
-0.00573266
-0.00646402
-0.00733124
-0.00835107
-0.00952058
-0.0108183
-0.0122111
-0.0136617
-0.0151354
-0.0166026
-0.0180397
-0.0194296
-0.020761
-0.0220274
-0.0232262
-0.0243575
-0.0254229
-0.026425
-0.0273667
-0.0282509
-0.0290803
-0.0298571
-0.0305833
-0.0312603
-0.0318895
-0.0324716
-0.0330075
-0.0334975
-0.0339421
-0.0343416
-0.0346961
-0.0350059
-0.0352709
-0.0354914
-0.0356675
-0.0357993
-0.035887
-0.0359308
-0.0359309
-0.0358876
-0.035801
-0.0356716
-0.0354997
-0.0352856
-0.0350297
-0.0347324
-0.0343943
-0.0340158
-0.0335974
-0.0331399
-0.0326439
-0.0321101
-0.0315394
-0.0309326
-0.0302905
-0.029614
-0.0289037
-0.0281598
-0.027382
-0.0265689
-0.0257176
-0.0248228
-0.0238761
-0.0228651
-0.0217722
-0.0205757
-0.0192529
-0.0177831
-0.0161315
-0.0142584
-0.0123064
-0.0105571
-0.00895731
-0.00780064
-0.0074979
-0.00812298
-0.00461281
-0.00493686
-0.00544248
-0.00600363
-0.00663004
-0.00736367
-0.00823195
-0.00924938
-0.0104118
-0.0116975
-0.0130733
-0.0145027
-0.0159515
-0.0173912
-0.0187994
-0.02016
-0.0214626
-0.0227017
-0.0238751
-0.0249833
-0.0260279
-0.0270116
-0.0279371
-0.0288072
-0.0296242
-0.0303903
-0.0311072
-0.0317762
-0.0323984
-0.0329746
-0.0335054
-0.0339912
-0.0344324
-0.034829
-0.0351814
-0.0354896
-0.0357538
-0.035974
-0.0361505
-0.0362832
-0.0363724
-0.0364183
-0.036421
-0.0363809
-0.0362981
-0.0361729
-0.0360057
-0.0357968
-0.0355466
-0.0352553
-0.0349235
-0.0345517
-0.0341404
-0.0336901
-0.0332015
-0.0326755
-0.0321127
-0.0315143
-0.030881
-0.0302141
-0.0295143
-0.0287825
-0.0280189
-0.0272229
-0.0263927
-0.0255247
-0.0246119
-0.0236441
-0.0226058
-0.0214768
-0.0202335
-0.018855
-0.017315
-0.0155792
-0.0136571
-0.0119535
-0.0103868
-0.00917311
-0.00882939
-0.00943382
-0.0055462
-0.00584699
-0.00632892
-0.00687936
-0.00750304
-0.00823562
-0.00910126
-0.0101123
-0.0112637
-0.0125331
-0.0138884
-0.0152937
-0.0167157
-0.0181267
-0.0195054
-0.0208368
-0.0221114
-0.0233241
-0.0244734
-0.0255597
-0.0265848
-0.0275513
-0.0284618
-0.0293187
-0.0301243
-0.0308805
-0.0315888
-0.0322503
-0.0328661
-0.0334368
-0.0339629
-0.0344448
-0.0348826
-0.0352767
-0.035627
-0.0359338
-0.0361971
-0.0364171
-0.0365937
-0.0367273
-0.0368178
-0.0368655
-0.0368706
-0.0368333
-0.0367539
-0.0366326
-0.0364697
-0.0362656
-0.0360204
-0.0357348
-0.0354089
-0.0350434
-0.0346386
-0.0341952
-0.0337138
-0.0331951
-0.0326401
-0.0320498
-0.0314252
-0.0307675
-0.0300779
-0.0293576
-0.0286073
-0.0278273
-0.0270167
-0.0261731
-0.0252914
-0.0243629
-0.0233745
-0.0223077
-0.0211399
-0.0198509
-0.0184198
-0.016805
-0.0149716
-0.0132881
-0.0117691
-0.0105429
-0.0101491
-0.0106523
-0.00644752
-0.00672519
-0.00718251
-0.00772049
-0.00833915
-0.00906803
-0.00992814
-0.0109297
-0.0120673
-0.0133177
-0.0146499
-0.0160296
-0.0174239
-0.0188059
-0.0201555
-0.0214585
-0.0227062
-0.023894
-0.0250205
-0.0260864
-0.0270935
-0.0280441
-0.0289406
-0.0297854
-0.0305804
-0.0313274
-0.0320277
-0.0326824
-0.0332923
-0.0338579