/*--------------------------------*- C++ -*----------------------------------*\
  =========                 |
  \\      /  F ield         | OpenFOAM: The Open Source CFD Toolbox
   \\    /   O peration     | Website:  https://openfoam.org
    \\  /    A nd           | Version:  13
     \\/     M anipulation  |
\*---------------------------------------------------------------------------*/
FoamFile
{
    format      ascii;
    class       surfaceScalarField;
    location    "8.1";
    object      phi;
}
// * * * * * * * * * * * * * * * * * * * * * * * * * * * * * * * * * * * * * //

dimensions      [0 3 -1 0 0 0 0];

internalField   nonuniform List<scalar> 
12640
(
1.69149e-09
-1.69149e-09
1.55333e-08
-1.38418e-08
3.98524e-08
-2.43191e-08
6.78793e-08
-2.80269e-08
9.3144e-08
-2.52648e-08
1.1202e-07
-1.88758e-08
1.23148e-07
-1.11286e-08
1.27458e-07
-4.30943e-09
1.27278e-07
1.80305e-10
1.24977e-07
2.30076e-09
1.22556e-07
2.42047e-09
1.21312e-07
1.24423e-09
1.21648e-07
-3.36113e-10
1.233e-07
-1.6519e-09
1.25413e-07
-2.11305e-09
1.27046e-07
-1.63298e-09
1.27307e-07
-2.60624e-10
1.25665e-07
1.64161e-09
1.21251e-07
4.41375e-09
1.13168e-07
8.08325e-09
1.00858e-07
1.23096e-08
8.37276e-08
1.71309e-08
6.13361e-08
2.23914e-08
3.3498e-08
2.78382e-08
1.77833e-10
3.33201e-08
-3.88043e-08
3.89821e-08
-8.4899e-08
4.60947e-08
-1.40563e-07
5.56643e-08
-2.08721e-07
6.81581e-08
-2.91534e-07
8.28131e-08
-3.8788e-07
9.63456e-08
-4.94085e-07
1.06205e-07
-6.06595e-07
1.12509e-07
-7.21943e-07
1.15349e-07
-8.37128e-07
1.15185e-07
-9.49539e-07
1.12411e-07
-1.05705e-06
1.07515e-07
-1.15796e-06
1.00902e-07
-1.2509e-06
9.29407e-08
-1.33483e-06
8.39373e-08
-1.40891e-06
7.40778e-08
-1.47245e-06
6.35393e-08
-1.52484e-06
5.23907e-08
-1.56551e-06
4.06684e-08
-1.59385e-06
2.83412e-08
-1.60975e-06
1.59012e-08
-1.61331e-06
3.55831e-09
-1.60257e-06
-1.07401e-08
-1.57843e-06
-2.41416e-08
-1.53975e-06
-3.86771e-08
-1.4867e-06
-5.30541e-08
-1.41909e-06
-6.76075e-08
-1.33727e-06
-8.18203e-08
-1.2417e-06
-9.55714e-08
-1.13303e-06
-1.08667e-07
-1.01219e-06
-1.20844e-07
-8.80594e-07
-1.31594e-07
-7.40078e-07
-1.40516e-07
-5.93017e-07
-1.47061e-07
-4.42293e-07
-1.50724e-07
-2.91418e-07
-1.50874e-07
-1.44233e-07
-1.47186e-07
-4.74089e-09
-1.39492e-07
1.23815e-07
-1.28555e-07
2.36556e-07
-1.12741e-07
3.29721e-07
-9.31656e-08
4.00087e-07
-7.03655e-08
4.45222e-07
-4.5135e-08
4.63849e-07
-1.86269e-08
4.54842e-07
9.00659e-09
4.21281e-07
3.35611e-08
3.65748e-07
5.55333e-08
2.94522e-07
7.12258e-08
2.17313e-07
7.72092e-08
1.44857e-07
7.24561e-08
8.44266e-08
6.043e-08
3.9738e-08
4.46885e-08
1.13311e-08
2.8407e-08
-7.85606e-10
1.21167e-08
-7.85606e-10
1.07422e-08
-1.24337e-08
4.40339e-08
-4.71335e-08
8.99935e-08
-7.02786e-08
1.3678e-07
-7.48134e-08
1.76761e-07
-6.52461e-08
2.06168e-07
-4.82825e-08
2.24426e-07
-2.93869e-08
2.32557e-07
-1.24398e-08
2.32375e-07
3.6258e-10
2.26243e-07
8.43274e-09
2.16446e-07
1.22168e-08
2.04554e-07
1.31361e-08
1.91062e-07
1.31558e-08
1.75389e-07
1.40215e-08
1.56481e-07
1.67949e-08
1.33186e-07
2.16623e-08
1.04562e-07
2.83636e-08
6.93308e-08
3.68723e-08
2.62422e-08
4.75024e-08
-2.62442e-08
6.05696e-08
-9.01822e-08
7.62477e-08
-1.67354e-07
9.43025e-08
-2.58953e-07
1.1399e-07
-3.65817e-07
1.34702e-07
-4.88487e-07
1.5599e-07
-6.26668e-07
1.77164e-07
-7.77753e-07
1.9718e-07
-9.3743e-07
2.15341e-07
-1.10019e-06
2.30919e-07
-1.26019e-06
2.4281e-07
-1.41401e-06
2.50163e-07
-1.56066e-06
2.52857e-07
-1.69874e-06
2.50592e-07
-1.82703e-06
2.43635e-07
-1.94454e-06
2.32697e-07
-2.05064e-06
2.18511e-07
-2.14486e-06
2.01737e-07
-2.22693e-06
1.82967e-07
-2.29662e-06
1.62637e-07
-2.35382e-06
1.41139e-07
-2.39842e-06
1.18673e-07
-2.4303e-06
9.54242e-08
-2.44939e-06
7.14791e-08
-2.45564e-06
4.69134e-08
-2.44905e-06
2.1756e-08
-2.42888e-06
-4.26809e-09
-2.39535e-06
-2.9977e-08
-2.34884e-06
-5.72519e-08
-2.28825e-06
-8.47315e-08
-2.21415e-06
-1.12768e-07
-2.12619e-06
-1.41023e-07
-2.02443e-06
-1.69365e-07
-1.90881e-06
-1.97435e-07
-1.77956e-06
-2.24824e-07
-1.63728e-06
-2.50949e-07
-1.4831e-06
-2.75026e-07
-1.3183e-06
-2.96386e-07
-1.14476e-06
-3.1406e-07
-9.64802e-07
-3.2702e-07
-7.81124e-07
-3.34401e-07
-5.96762e-07
-3.35236e-07
-4.15139e-07
-3.28809e-07
-2.39817e-07
-3.14814e-07
-7.50935e-08
-2.93279e-07
7.61405e-08
-2.63975e-07
2.10408e-07
-2.27433e-07
3.24255e-07
-1.84212e-07
4.15122e-07
-1.36002e-07
4.80582e-07
-8.40868e-08
5.20201e-07
-3.06128e-08
5.32244e-07
2.1519e-08
5.17381e-07
7.03958e-08
4.77611e-07
1.10996e-07
4.14051e-07
1.40769e-07
3.30291e-07
1.56217e-07
2.36775e-07
1.53945e-07
1.45973e-07
1.35491e-07
7.02912e-08
1.04088e-07
1.97583e-08
6.26496e-08
1.89727e-08
2.03191e-08
-3.27528e-08
6.72247e-08
-9.40392e-08
1.19685e-07
-1.22739e-07
1.65772e-07
-1.209e-07
2.01101e-07
-1.00575e-07
2.24759e-07
-7.19409e-08
2.37463e-07
-4.20907e-08
2.40205e-07
-1.51813e-08
2.34165e-07
6.4019e-09
2.20833e-07
2.17651e-08
2.01593e-07
3.14565e-08
1.77022e-07
3.77073e-08
1.46919e-07
4.32593e-08
1.1045e-07
5.04899e-08
6.64347e-08
6.08104e-08
1.34292e-08
7.46678e-08
-5.03175e-08
9.21103e-08
-1.2663e-07
1.13185e-07
-2.17056e-07
1.37928e-07
-3.22819e-07
1.66332e-07
-4.44376e-07
1.97805e-07
-5.81329e-07
2.31255e-07
-7.32569e-07
2.6523e-07
-8.95575e-07
2.97709e-07
-1.06685e-06
3.27263e-07
-1.24208e-06
3.52392e-07
-1.41694e-06
3.72044e-07
-1.58742e-06
3.85825e-07
-1.74995e-06
3.9344e-07
-1.90196e-06
3.94828e-07
-2.04202e-06
3.90222e-07
-2.16922e-06
3.8005e-07
-2.2836e-06
3.64973e-07
-2.38562e-06
3.45655e-07
-2.47559e-06
3.22672e-07
-2.55389e-06
2.9681e-07
-2.62081e-06
2.68658e-07
-2.67661e-06
2.38765e-07
-2.72144e-06
2.07469e-07
-2.75543e-06
1.75128e-07
-2.77864e-06
1.41881e-07
-2.79105e-06
1.07833e-07
-2.7926e-06
7.3036e-08
-2.78319e-06
3.7498e-08
-2.76251e-06
1.07903e-09
-2.73078e-06
-3.60048e-08
-2.68682e-06
-7.39325e-08
-2.63115e-06
-1.12919e-07
-2.5632e-06
-1.52684e-07
-2.48277e-06
-1.93198e-07
-2.38963e-06
-2.34167e-07
-2.28364e-06
-2.75346e-07
-2.16479e-06
-3.16285e-07
-2.03324e-06
-3.56378e-07
-1.88943e-06
-3.94765e-07
-1.73406e-06
-4.30388e-07
-1.56823e-06
-4.62221e-07
-1.39334e-06
-4.88948e-07
-1.21132e-06
-5.09042e-07
-1.02467e-06
-5.21045e-07
-8.36229e-07
-5.2368e-07
-6.49301e-07
-5.15737e-07
-4.67498e-07
-4.96617e-07
-2.94548e-07
-4.66229e-07
-1.33596e-07
-4.24927e-07
1.22321e-08
-3.73262e-07
1.40447e-07
-3.12427e-07
2.48389e-07
-2.43944e-07
3.34611e-07
-1.70309e-07
3.98285e-07
-9.42863e-08
4.38592e-07
-1.87885e-08
4.5507e-07
5.39183e-08
4.46598e-07
1.19467e-07
4.14528e-07
1.7284e-07
3.60551e-07
2.10194e-07
2.8756e-07
2.26936e-07
2.02284e-07
2.20768e-07
1.15356e-07
1.91016e-07
4.04729e-08
1.37533e-07
5.94456e-08
2.82015e-08
-6.09543e-08
8.14552e-08
-1.47293e-07
1.31369e-07
-1.72653e-07
1.69458e-07
-1.58989e-07
1.94563e-07
-1.2568e-07
2.07943e-07
-8.53216e-08
2.10824e-07
-4.49716e-08
2.04337e-07
-8.69427e-09
1.89264e-07
2.14753e-08
1.66062e-07
4.49671e-08
1.34503e-07
6.30153e-08
9.40664e-08
7.81439e-08
4.39603e-08
9.33654e-08
-1.67747e-08
1.11225e-07
-8.92597e-08
1.33295e-07
-1.74872e-07
1.6028e-07
-2.75078e-07
1.92316e-07
-3.91138e-07
2.29246e-07
-5.23583e-07
2.70373e-07
-6.71882e-07
3.14631e-07
-8.34159e-07
3.60082e-07
-1.00719e-06
4.0429e-07
-1.18708e-06
4.45115e-07
-1.36947e-06
4.80097e-07
-1.5502e-06
5.08001e-07
-1.72537e-06
5.27562e-07
-1.89149e-06
5.38161e-07
-2.04592e-06
5.40252e-07
-2.18736e-06
5.34881e-07
-2.31547e-06
5.22937e-07
-2.4305e-06
5.05257e-07
-2.53308e-06
4.82622e-07
-2.62384e-06
4.55735e-07
-2.70352e-06
4.25337e-07
-2.77283e-06
3.91981e-07
-2.83231e-06
3.56285e-07
-2.88236e-06
3.18709e-07
-2.92328e-06
2.79688e-07
-2.95527e-06
2.3946e-07
-2.97839e-06
1.98245e-07
-2.99263e-06
1.56125e-07
-2.99793e-06
1.13133e-07
-2.99411e-06
6.92164e-08
-2.98093e-06
2.43151e-08
-2.95821e-06
-2.16427e-08
-2.92552e-06
-6.8687e-08
-2.88249e-06
-1.16969e-07
-2.82883e-06
-1.66578e-07
-2.76407e-06
-2.17443e-07
-2.68785e-06
-2.69415e-07
-2.59983e-06
-3.22186e-07
-2.49972e-06
-3.75463e-07
-2.38728e-06
-4.28719e-07
-2.26241e-06
-4.81251e-07
-2.12516e-06
-5.32019e-07
-1.97592e-06
-5.79623e-07
-1.81549e-06
-6.22652e-07
-1.64492e-06
-6.5952e-07
-1.46572e-06
-6.88239e-07
-1.27997e-06
-7.06794e-07
-1.09018e-06
-7.13469e-07
-8.99443e-07
-7.06479e-07
-7.11399e-07
-6.84661e-07
-5.30208e-07
-6.4742e-07
-3.59573e-07
-5.95562e-07
-2.02597e-07
-5.30238e-07
-6.22376e-08
-4.52786e-07
5.93663e-08
-3.65548e-07
1.60548e-07
-2.71491e-07
2.40288e-07
-1.74026e-07
2.98238e-07
-7.67385e-08
3.35114e-07
1.70421e-08
3.50851e-07
1.0373e-07
3.44863e-07
1.78828e-07
3.17189e-07
2.37868e-07
2.68633e-07
2.75492e-07
2.03021e-07
2.86379e-07
1.2623e-07
2.67808e-07
4.88112e-08
2.14951e-07
1.08257e-07
3.42055e-08
-9.51598e-08
8.66164e-08
-1.99704e-07
1.27671e-07
-2.13707e-07
1.54184e-07
-1.85502e-07
1.67024e-07
-1.3852e-07
1.6845e-07
-8.67476e-08
1.59836e-07
-3.63571e-08
1.41904e-07
9.23708e-09
1.14805e-07
4.85748e-08
7.80665e-08
8.17054e-08
3.07078e-08
1.10374e-07
-2.84725e-08
1.37324e-07
-1.0065e-07
1.65543e-07
-1.86912e-07
1.97487e-07
-2.8828e-07
2.34663e-07
-4.05598e-07
2.77599e-07
-5.39277e-07
3.25994e-07
-6.89019e-07
3.78988e-07
-8.53284e-07
4.34639e-07
-1.02893e-06
4.90274e-07
-1.21208e-06
5.43238e-07
-1.39816e-06
5.90372e-07
-1.58284e-06
6.29787e-07
-1.76186e-06
6.59121e-07
-1.93091e-06
6.77054e-07
-2.0875e-06
6.84145e-07
-2.23079e-06
6.81451e-07
-2.36084e-06
6.70306e-07
-2.47814e-06
6.52177e-07
-2.5834e-06
6.28201e-07
-2.6775e-06
5.99361e-07
-2.76127e-06
5.66394e-07
-2.83545e-06
5.29913e-07
-2.90068e-06
4.90561e-07
-2.95754e-06
4.48846e-07
-3.00647e-06
4.0521e-07
-3.04777e-06
3.60012e-07
-3.08167e-06
3.13589e-07
-3.10829e-06
2.66079e-07
-3.12764e-06
2.17592e-07
-3.13961e-06
1.68099e-07
-3.14415e-06
1.17669e-07
-3.14104e-06
6.61062e-08
-3.12998e-06
1.32564e-08
-3.11075e-06
-4.08704e-08
-3.0829e-06
-9.65376e-08
-3.04602e-06
-1.53844e-07
-2.99976e-06
-2.12844e-07
-2.94355e-06
-2.73653e-07
-2.87677e-06
-3.36194e-07
-2.79896e-06
-3.99992e-07
-2.70964e-06
-4.6479e-07
-2.60835e-06
-5.30008e-07
-2.49467e-06
-5.94925e-07
-2.36822e-06
-6.5847e-07
-2.22904e-06
-7.18806e-07
-2.07758e-06
-7.74112e-07
-1.91441e-06
-8.22686e-07
-1.74061e-06
-8.62043e-07
-1.55788e-06
-8.89517e-07
-1.36834e-06
-9.0301e-07
-1.17483e-06
-8.99988e-07
-9.80509e-07
-8.78987e-07
-7.89423e-07
-8.38506e-07
-6.06295e-07
-7.78689e-07
-4.35348e-07
-7.01185e-07
-2.79674e-07
-6.0846e-07
-1.42002e-07
-5.03219e-07
-2.44516e-08
-3.89042e-07
7.17423e-08
-2.7022e-07
1.46178e-07
-1.51174e-07
1.99384e-07
-3.61648e-08
2.32278e-07
7.0836e-08
2.45334e-07
1.65772e-07
2.3887e-07
2.44332e-07
2.13219e-07
3.01143e-07
1.69378e-07
3.3022e-07
1.10466e-07
3.2672e-07
4.42439e-08
2.81173e-07
1.52501e-07
3.76253e-08
-1.32785e-07
8.26349e-08
-2.44713e-07
1.10933e-07
-2.42006e-07
1.23465e-07
-1.98034e-07
1.23132e-07
-1.38188e-07
1.11919e-07
-7.55337e-08
9.07887e-08
-1.52273e-08
5.98561e-08
4.01697e-08
1.86318e-08
8.97991e-08
-3.40371e-08
1.34374e-07
-9.9551e-08
1.75888e-07
-1.79318e-07
2.17092e-07
-2.74526e-07
2.60751e-07
-3.8602e-07
3.08981e-07
-5.14225e-07
3.62868e-07
-6.58885e-07
4.22259e-07
-8.18862e-07
4.85971e-07
-9.91747e-07
5.51873e-07
-1.17402e-06
6.16915e-07
-1.36107e-06
6.77318e-07
-1.54835e-06
7.30518e-07
-1.7309e-06
7.72928e-07
-1.90359e-06
8.02477e-07
-2.06345e-06
8.1898e-07
-2.2097e-06
8.23302e-07
-2.34261e-06
8.17057e-07
-2.46299e-06
8.01834e-07
-2.57188e-06
7.79189e-07
-2.67014e-06
7.50443e-07
-2.75862e-06
7.16679e-07
-2.83806e-06
6.78796e-07
-2.90909e-06
6.37428e-07
-2.97236e-06
5.93179e-07
-3.02837e-06
5.4657e-07
-3.07753e-06
4.98011e-07
-3.12015e-06
4.47828e-07
-3.15639e-06
3.96254e-07
-3.18642e-06
3.43617e-07
-3.21034e-06
2.89998e-07
-3.22821e-06
2.35465e-07
-3.23986e-06
1.79744e-07
-3.24537e-06
1.23184e-07
-3.24468e-06
6.5415e-08
-3.23741e-06
5.98579e-09
-3.22376e-06
-5.45254e-08
-3.20309e-06
-1.17206e-07
-3.17492e-06
-1.82012e-07
-3.13875e-06
-2.49016e-07
-3.09406e-06
-3.18343e-07
-3.04002e-06
-3.90228e-07
-2.97591e-06
-4.64103e-07
-2.90087e-06
-5.39834e-07
-2.81412e-06
-6.1676e-07
-2.71515e-06
-6.93891e-07
-2.60344e-06
-7.70178e-07
-2.47833e-06
-8.43917e-07
-2.33965e-06
-9.12797e-07
-2.18743e-06
-9.749e-07
-2.02217e-06
-1.0273e-06
-1.8453e-06
-1.06639e-06
-1.65827e-06
-1.09003e-06
-1.46374e-06
-1.09452e-06
-1.26463e-06
-1.07809e-06
-1.06473e-06
-1.03841e-06
-8.68512e-07
-9.74911e-07
-6.81365e-07
-8.88332e-07
-5.07778e-07
-7.82048e-07
-3.51127e-07
-6.5987e-07
-2.14296e-07
-5.25873e-07
-9.93029e-08
-3.85213e-07
-6.98823e-09
-2.43488e-07
6.29856e-08
-1.06139e-07
1.11841e-07
2.19805e-08
1.41151e-07
1.36462e-07
1.5193e-07
2.33553e-07
1.44811e-07
3.08262e-07
1.20274e-07
3.54757e-07
8.06009e-08
3.66393e-07
3.20583e-08
3.29716e-07
1.84559e-07
3.74619e-08
-1.70247e-07
6.97e-08
-2.76952e-07
8.3111e-08
-2.55417e-07
8.09071e-08
-1.9583e-07
6.68944e-08
-1.24175e-07
4.24481e-08
-5.10875e-08
7.86141e-09
1.93594e-08
-3.73524e-08
8.53835e-08
-9.4255e-08
1.46702e-07
-1.64261e-07
2.04381e-07
-2.48869e-07
2.60496e-07
-3.49356e-07
3.17579e-07
-4.66543e-07
3.77938e-07
-6.00612e-07
4.4305e-07
-7.50963e-07
5.13218e-07
-9.16003e-07
5.87299e-07
-1.09279e-06
6.6276e-07
-1.27716e-06
7.36241e-07
-1.4644e-06
8.04158e-07
-1.64942e-06
8.62334e-07
-1.82621e-06
9.07308e-07
-1.99081e-06
9.37528e-07
-2.14171e-06
9.53379e-07
-2.27904e-06
9.56308e-07
-2.4037e-06
9.47963e-07
-2.51674e-06
9.30092e-07
-2.61921e-06
9.04308e-07
-2.71211e-06
8.72084e-07
-2.79621e-06
8.34543e-07
-2.87217e-06
7.92646e-07
-2.94055e-06
7.47172e-07
-3.00185e-06
6.98726e-07
-3.05652e-06
6.47856e-07
-3.10494e-06
5.94985e-07
-3.14743e-06
5.40502e-07
-3.18425e-06
4.84646e-07
-3.21538e-06
4.27384e-07
-3.24106e-06
3.69299e-07
-3.26143e-06
3.10365e-07
-3.27656e-06
2.50602e-07
-3.28672e-06
1.89902e-07
-3.29162e-06
1.28082e-07
-3.29121e-06
6.5004e-08
-3.28502e-06
-1.99914e-10
-3.27375e-06
-6.57945e-08
-3.25711e-06
-1.33848e-07
-3.23508e-06
-2.04043e-07
-3.20746e-06
-2.76633e-07
-3.17397e-06
-3.51832e-07
-3.13423e-06
-4.29975e-07
-3.08712e-06
-5.11203e-07
-3.03166e-06
-5.95295e-07
-2.96651e-06
-6.81911e-07
-2.8899e-06
-7.70506e-07
-2.79991e-06
-8.60166e-07
-2.69507e-06
-9.48755e-07
-2.57474e-06
-1.03313e-06
-2.43907e-06
-1.11058e-06
-2.28839e-06
-1.17798e-06
-2.1228e-06
-1.23198e-06
-1.94311e-06
-1.26973e-06
-1.75181e-06
-1.28582e-06
-1.55126e-06
-1.27864e-06
-1.34518e-06
-1.24449e-06
-1.13773e-06
-1.18236e-06
-9.34313e-07
-1.09175e-06
-7.41369e-07
-9.74992e-07
-5.63756e-07
-8.37483e-07
-4.05105e-07
-6.84525e-07
-2.68483e-07
-5.21835e-07
-1.55742e-07
-3.5623e-07
-6.72086e-08
-1.94672e-07
-1.70983e-09
-4.35182e-08
4.25915e-08
9.21608e-08
6.81466e-08
2.07998e-07
7.65084e-08
2.999e-07
6.85545e-08
3.62711e-07
4.65933e-08
3.88354e-07
1.69973e-08
3.59312e-07
2.01556e-07
3.25643e-08
-2.02811e-07
4.94941e-08
-2.93881e-07
4.6868e-08
-2.5279e-07
2.96844e-08
-1.78646e-07
1.70461e-09
-9.61951e-08
-3.64576e-08
-1.29252e-08
-8.52417e-08
6.81434e-08
-1.45609e-07
1.4575e-07
-2.18884e-07
2.19977e-07
-3.06499e-07
2.91996e-07
-4.09729e-07
3.63726e-07
-5.29414e-07
4.37264e-07
-6.65689e-07
5.14213e-07
-8.17855e-07
5.95215e-07
-9.84124e-07
6.79488e-07
-1.16121e-06
7.64385e-07
-1.34465e-06
8.46197e-07
-1.52945e-06
9.21047e-07
-1.70952e-06
9.84226e-07
-1.87961e-06
1.03242e-06
-2.03664e-06
1.06434e-06
-2.18007e-06
1.08096e-06
-2.31036e-06
1.08367e-06
-2.42851e-06
1.07445e-06
-2.53559e-06
1.05505e-06
-2.63273e-06
1.02723e-06
-2.72086e-06
9.92438e-07
-2.8007e-06
9.51921e-07
-2.87282e-06
9.0666e-07
-2.93769e-06
8.57524e-07
-2.99574e-06
8.05217e-07
-3.04734e-06
7.50326e-07
-3.09281e-06
6.93327e-07
-3.13234e-06
6.34514e-07
-3.16622e-06
5.74382e-07
-3.19505e-06
5.13476e-07
-3.21954e-06
4.51876e-07
-3.23974e-06
3.89499e-07
-3.25567e-06
3.26292e-07
-3.26714e-06
2.62076e-07
-3.27438e-06
1.97142e-07
-3.27732e-06
1.31016e-07
-3.27602e-06
6.37033e-08
-3.27075e-06
-5.46474e-09
-3.26133e-06
-7.52119e-08
-3.24795e-06
-1.47237e-07
-3.23044e-06
-2.21554e-07
-3.2086e-06
-2.98465e-07
-3.18218e-06
-3.78261e-07
-3.15107e-06
-4.61079e-07
-3.11488e-06
-5.47394e-07
-3.07318e-06
-6.36992e-07
-3.0253e-06
-7.29793e-07
-2.97046e-06
-8.25348e-07
-2.90762e-06
-9.23001e-07
-2.83424e-06
-1.02214e-06
-2.7462e-06
-1.12116e-06
-2.63967e-06
-1.21711e-06
-2.513e-06
-1.30466e-06
-2.36677e-06
-1.37821e-06
-2.20296e-06
-1.43354e-06
-2.02233e-06
-1.46646e-06
-1.82685e-06
-1.47412e-06
-1.62005e-06
-1.4513e-06
-1.40585e-06
-1.39655e-06
-1.18914e-06
-1.30847e-06
-9.77093e-07
-1.18704e-06
-7.7723e-07
-1.03735e-06
-5.94925e-07
-8.6683e-07
-4.34128e-07
-6.82632e-07
-2.98056e-07
-4.92301e-07
-1.88301e-07
-3.04427e-07
-1.04558e-07
-1.27261e-07
-4.46172e-08
3.22204e-08
-5.26728e-09
1.68648e-07
1.62172e-08
2.78416e-07
2.22137e-08
3.56715e-07
1.57829e-08
3.94785e-07
3.39405e-09
3.71701e-07
2.0495e-07
2.33207e-08
-2.26132e-07
2.35482e-08
-2.94109e-07
4.27654e-09
-2.33519e-07
-2.73379e-08
-1.47032e-07
-6.93015e-08
-5.42315e-08
-1.21557e-07
3.93305e-08
-1.84936e-07
1.31522e-07
-2.60686e-07
2.21501e-07
-3.50146e-07
3.09436e-07
-4.54515e-07
3.96365e-07
-5.74614e-07
4.83824e-07
-7.10594e-07
5.73245e-07
-8.61833e-07
6.65451e-07
-1.02661e-06
7.59991e-07
-1.20146e-06
8.54338e-07
-1.38177e-06
9.44699e-07
-1.56227e-06
1.0267e-06
-1.73675e-06
1.09553e-06
-1.90046e-06
1.14793e-06
-2.05118e-06
1.18313e-06
-2.18848e-06
1.20164e-06
-2.31293e-06
1.20542e-06
-2.42556e-06
1.1963e-06
-2.52748e-06
1.17637e-06
-2.61973e-06
1.14729e-06
-2.70316e-06
1.11067e-06
-2.77844e-06
1.06772e-06
-2.84608e-06
1.01956e-06
-2.90651e-06
9.6709e-07
-2.96012e-06
9.11139e-07
-3.00728e-06
8.52378e-07
-3.04837e-06
7.91415e-07
-3.0839e-06
7.28854e-07
-3.11454e-06
6.65157e-07
-3.14069e-06
6.00525e-07
-3.16216e-06
5.34955e-07
-3.17912e-06
4.68827e-07
-3.19158e-06
4.01968e-07
-3.19984e-06
3.34551e-07
-3.20444e-06
2.66678e-07
-3.2057e-06
1.98397e-07
-3.20401e-06
1.29326e-07
-3.19963e-06
5.932e-08
-3.19307e-06
-1.20256e-08
-3.18378e-06
-8.44965e-08
-3.172e-06
-1.59018e-07
-3.15777e-06
-2.35788e-07
-3.14106e-06
-3.15175e-07
-3.1218e-06
-3.97512e-07
-3.09975e-06
-4.8313e-07
-3.07471e-06
-5.72434e-07
-3.04612e-06
-6.65587e-07
-3.01324e-06
-7.62672e-07
-2.97511e-06
-8.63478e-07
-2.93078e-06
-9.67329e-07
-2.87935e-06
-1.07357e-06
-2.81943e-06
-1.18108e-06
-2.74902e-06
-1.28751e-06
-2.66281e-06
-1.39087e-06
-2.55345e-06
-1.48757e-06
-2.41817e-06
-1.56881e-06
-2.25814e-06
-1.62649e-06
-2.07776e-06
-1.65449e-06
-1.87857e-06
-1.65049e-06
-1.66499e-06
-1.61013e-06
-1.44126e-06
-1.5322e-06
-1.21389e-06
-1.4144e-06
-9.91952e-07
-1.25929e-06
-7.84456e-07
-1.07433e-06
-5.97427e-07
-8.69661e-07
-4.35141e-07
-6.54587e-07
-3.00852e-07
-4.38716e-07
-1.95649e-07
-2.32465e-07
-1.18218e-07
-4.52101e-08
-6.51072e-08
1.15536e-07
-3.16956e-08
2.45004e-07
-1.40395e-08
3.39059e-07
-7.14785e-09
3.87894e-07
-5.32385e-09
3.69877e-07
1.99626e-07
1.10051e-08
-2.37137e-07
-6.40815e-09
-2.76696e-07
-4.12718e-08
-1.98655e-07
-8.74183e-08
-1.00885e-07
-1.43447e-07
1.79729e-09
-2.09779e-07
1.05662e-07
-2.87623e-07
2.09367e-07
-3.78262e-07
3.1214e-07
-4.82833e-07
4.14007e-07
-6.02115e-07
5.15647e-07
-7.36291e-07
6.18e-07
-8.84865e-07
7.21819e-07
-1.04633e-06
8.2692e-07
-1.21736e-06
9.31017e-07
-1.39321e-06
1.03019e-06
-1.56845e-06
1.11995e-06
-1.73739e-06
1.19563e-06
-1.8956e-06
1.25373e-06
-2.04103e-06
1.29337e-06
-2.17317e-06
1.31527e-06
-2.29264e-06
1.32112e-06
-2.40042e-06
1.3132e-06
-2.49763e-06
1.2935e-06
-2.58517e-06
1.26391e-06
-2.66383e-06
1.22596e-06
-2.73419e-06
1.18103e-06
-2.79675e-06
1.13027e-06
-2.85192e-06
1.07473e-06
-2.90016e-06
1.01532e-06
-2.94189e-06
9.52869e-07
-2.97759e-06
8.88077e-07
-3.00773e-06
8.21561e-07
-3.03264e-06
7.53757e-07
-3.05257e-06
6.85091e-07
-3.06786e-06
6.15814e-07
-3.079e-06
5.46099e-07
-3.08645e-06
4.76277e-07
-3.09082e-06
4.06333e-07
-3.09257e-06
3.36307e-07
-3.09199e-06
2.6609e-07
-3.08915e-06
1.9556e-07
-3.08432e-06
1.24496e-07
-3.07767e-06
5.26726e-08
-3.06949e-06
-2.0211e-08
-3.05963e-06
-9.43485e-08
-3.04839e-06
-1.70261e-07
-3.03591e-06
-2.48272e-07
-3.0223e-06
-3.28787e-07
-3.00762e-06
-4.1219e-07
-2.99185e-06
-4.989e-07
-2.97495e-06
-5.89331e-07
-2.95672e-06
-6.83821e-07
-2.93677e-06
-7.82622e-07
-2.91446e-06
-8.85781e-07
-2.88869e-06
-9.93108e-07
-2.85801e-06
-1.10425e-06
-2.82077e-06
-1.21832e-06
-2.77496e-06
-1.33331e-06
-2.71859e-06
-1.44724e-06
-2.64917e-06
-1.55699e-06
-2.55982e-06
-1.65817e-06
-2.44026e-06
-1.74605e-06
-2.28854e-06
-1.80621e-06
-2.10819e-06
-1.83084e-06
-1.90538e-06
-1.81294e-06
-1.68375e-06
-1.75382e-06
-1.44915e-06
-1.64901e-06
-1.20986e-06
-1.49858e-06
-9.77148e-07
-1.30704e-06
-7.61889e-07
-1.08492e-06
-5.70875e-07
-8.45602e-07
-4.08627e-07
-6.00964e-07
-2.78164e-07
-3.62928e-07
-1.7966e-07
-1.43714e-07
-1.10407e-07
4.62833e-08
-6.50374e-08
1.99635e-07
-3.75746e-08
3.11596e-07
-2.04322e-08
3.70751e-07
-9.2827e-09
3.58727e-07
1.90344e-07
-3.09969e-09
-2.34037e-07
-3.76257e-08
-2.4217e-07
-8.80068e-08
-1.48274e-07
-1.48375e-07
-4.05177e-08
-2.18074e-07
7.14968e-08
-2.98113e-07
1.85701e-07
-3.89725e-07
3.00979e-07
-4.94075e-07
4.16489e-07
-6.11943e-07
5.31876e-07
-7.43556e-07
6.47259e-07
-8.88547e-07
7.62991e-07
-1.04568e-06
8.78956e-07
-1.21193e-06
9.93167e-07
-1.38264e-06
1.10173e-06
-1.5525e-06
1.20005e-06
-1.71625e-06
1.28369e-06
-1.86969e-06
1.34907e-06
-2.0106e-06
1.39465e-06
-2.13842e-06
1.42119e-06
-2.25356e-06
1.4304e-06
-2.35704e-06
1.4246e-06
-2.44983e-06
1.40599e-06
-2.53278e-06
1.37645e-06
-2.60655e-06
1.33768e-06
-2.67169e-06
1.29109e-06
-2.72865e-06
1.238e-06
-2.77791e-06
1.17953e-06
-2.81994e-06
1.11677e-06
-2.85527e-06
1.05065e-06
-2.88445e-06
9.82046e-07
-2.90803e-06
9.11657e-07
-2.92655e-06
8.40078e-07
-2.94055e-06
7.67763e-07
-2.95057e-06
6.95108e-07
-2.95713e-06
6.22373e-07
-2.96078e-06
5.49753e-07
-2.96191e-06
4.77403e-07
-2.96087e-06
4.05288e-07
-2.95791e-06
3.33352e-07
-2.95328e-06
2.61456e-07
-2.94715e-06
1.89433e-07
-2.93971e-06
1.17059e-07
-2.93113e-06
4.40905e-08
-2.92159e-06
-2.97499e-08
-2.91118e-06
-1.04761e-07
-2.90011e-06
-1.81333e-07
-2.88856e-06
-2.59822e-07
-2.87671e-06
-3.4063e-07
-2.86474e-06
-4.24164e-07
-2.85278e-06
-5.10858e-07
-2.84096e-06
-6.01147e-07
-2.82934e-06
-6.95444e-07
-2.81785e-06
-7.9411e-07
-2.80622e-06
-8.9741e-07
-2.79384e-06
-1.00549e-06
-2.77978e-06
-1.11831e-06
-2.76271e-06
-1.2354e-06
-2.7403e-06
-1.35572e-06
-2.70981e-06
-1.47773e-06
-2.66827e-06
-1.59853e-06
-2.61243e-06
-1.714e-06
-2.5383e-06
-1.82019e-06
-2.43474e-06
-1.90977e-06
-2.2928e-06
-1.97278e-06
-2.11383e-06
-1.99191e-06
-1.90647e-06
-1.96118e-06
-1.67534e-06
-1.88014e-06
-1.42847e-06
-1.74544e-06
-1.17634e-06
-1.55917e-06
-9.32746e-07
-1.32851e-06
-7.10562e-07
-1.06779e-06
-5.17383e-07
-7.94142e-07
-3.57717e-07
-5.22594e-07
-2.33896e-07
-2.67535e-07
-1.44616e-07
-4.29967e-08
-8.50995e-08
1.40118e-07
-4.79561e-08
2.74452e-07
-2.41066e-08
3.46902e-07
-8.56562e-09
3.43186e-07
1.81778e-07
-1.82015e-08
-2.15836e-07
-6.93939e-08
-1.90977e-07
-1.34305e-07
-8.33632e-08
-2.08148e-07
3.33254e-08
-2.90902e-07
1.54251e-07
-3.83737e-07
2.78536e-07
-4.87879e-07
4.05121e-07
-6.04208e-07
5.32818e-07
-7.33047e-07
6.60715e-07
-8.74152e-07
7.88364e-07
-1.02655e-06
9.15385e-07
-1.18759e-06
1.04e-06
-1.35295e-06
1.15852e-06
-1.51755e-06
1.26633e-06
-1.67656e-06
1.35906e-06
-1.82594e-06
1.43308e-06
-1.96313e-06
1.48625e-06
-2.08731e-06
1.51883e-06
-2.19882e-06
1.5327e-06
-2.29849e-06
1.53008e-06
-2.38726e-06
1.51336e-06
-2.46585e-06
1.48458e-06
-2.53488e-06
1.44548e-06
-2.59485e-06
1.39766e-06
-2.64627e-06
1.34251e-06
-2.68965e-06
1.28138e-06
-2.72561e-06
1.21548e-06
-2.75479e-06
1.14595e-06
-2.7779e-06
1.07376e-06
-2.79564e-06
9.99783e-07
-2.80869e-06
9.24708e-07
-2.81771e-06
8.49095e-07
-2.82331e-06
7.73363e-07
-2.82603e-06
6.97836e-07
-2.82637e-06
6.22709e-07
-2.82472e-06
5.48099e-07
-2.82136e-06
4.74042e-07
-2.81653e-06
4.00461e-07
-2.81042e-06
3.27244e-07
-2.8032e-06
2.54234e-07
-2.79501e-06
1.81243e-07
-2.78599e-06
1.08039e-07
-2.77627e-06
3.43747e-08
-2.766e-06
-4.00248e-08
-2.7553e-06
-1.15463e-07
-2.74435e-06
-1.92282e-07
-2.73334e-06
-2.7083e-07
-2.72248e-06
-3.51485e-07
-2.712e-06
-4.34643e-07
-2.70214e-06
-5.20728e-07
-2.69311e-06
-6.10173e-07
-2.68514e-06
-7.03415e-07
-2.67837e-06
-8.00876e-07
-2.67284e-06
-9.0294e-07
-2.6684e-06
-1.00993e-06
-2.66466e-06
-1.12204e-06
-2.66083e-06
-1.23923e-06
-2.65546e-06
-1.3611e-06
-2.64643e-06
-1.48675e-06
-2.63059e-06
-1.61438e-06
-2.60345e-06
-1.74114e-06
-2.56114e-06
-1.8625e-06
-2.49824e-06
-1.97266e-06
-2.40706e-06
-2.06397e-06
-2.27308e-06
-2.12589e-06
-2.09522e-06
-2.13903e-06
-1.8817e-06
-2.09366e-06
-1.63939e-06
-1.98775e-06
-1.37898e-06
-1.81959e-06
-1.1137e-06
-1.59379e-06
-8.60189e-07
-1.3213e-06
-6.33337e-07
-1.02099e-06
-4.41204e-07
-7.14728e-07
-2.87882e-07
-4.20857e-07
-1.74208e-07
-1.5667e-07
-9.68185e-08
6.27283e-08
-4.8402e-08
2.26036e-07
-1.98612e-08
3.18361e-07
-4.26133e-09
3.27586e-07
1.77517e-07
-3.33136e-08
-1.82522e-07
-9.9988e-08
-1.24303e-07
-1.78529e-07
-4.82192e-09
-2.64922e-07
1.19718e-07
-3.59702e-07
2.4903e-07
-4.64074e-07
3.82909e-07
-5.7911e-07
5.20157e-07
-7.05339e-07
6.59047e-07
-8.42673e-07
7.98049e-07
-9.90357e-07
9.36048e-07
-1.14616e-06
1.07119e-06
-1.30622e-06
1.20006e-06
-1.46588e-06
1.31818e-06
-1.62063e-06
1.42108e-06
-1.76658e-06
1.50501e-06
-1.90085e-06
1.56734e-06
-2.02218e-06
1.60759e-06
-2.13076e-06
1.62741e-06
-2.22726e-06
1.6292e-06
-2.31253e-06
1.61534e-06
-2.38724e-06
1.58808e-06
-2.45198e-06
1.54931e-06
-2.50725e-06
1.50075e-06
-2.55361e-06
1.44401e-06
-2.59169e-06
1.3806e-06
-2.62224e-06
1.31193e-06
-2.64605e-06
1.2393e-06
-2.66397e-06
1.16387e-06
-2.67684e-06
1.08663e-06
-2.68545e-06
1.00839e-06
-2.69051e-06
9.29767e-07
-2.69266e-06
8.51247e-07
-2.69246e-06
7.73161e-07
-2.69035e-06
6.95726e-07
-2.68669e-06
6.1905e-07
-2.68175e-06
5.43163e-07
-2.67573e-06
4.68019e-07
-2.66877e-06
3.93506e-07
-2.66101e-06
3.19475e-07
-2.65252e-06
2.45749e-07
-2.64341e-06
1.72127e-07
-2.63375e-06
9.83812e-08
-2.62364e-06
2.4266e-08
-2.61318e-06
-5.04844e-08
-2.60249e-06
-1.26152e-07
-2.59173e-06
-2.03043e-07
-2.58108e-06
-2.8148e-07
-2.57076e-06
-3.61806e-07
-2.56101e-06
-4.44387e-07
-2.55213e-06
-5.29615e-07
-2.5444e-06
-6.17903e-07
-2.53813e-06
-7.09683e-07
-2.53361e-06
-8.05399e-07
-2.53105e-06
-9.05493e-07
-2.5306e-06
-1.01039e-06
-2.5322e-06
-1.12044e-06
-2.53556e-06
-1.23587e-06
-2.53996e-06
-1.3567e-06
-2.54414e-06
-1.48256e-06
-2.54595e-06
-1.61257e-06
-2.54212e-06
-1.74497e-06
-2.52788e-06
-1.87674e-06
-2.49737e-06
-2.00317e-06
-2.44458e-06
-2.11676e-06
-2.36076e-06
-2.2097e-06
-2.23197e-06
-2.26783e-06
-2.05307e-06
-2.27256e-06
-1.83115e-06
-2.20967e-06
-1.57583e-06
-2.07491e-06
-1.30104e-06
-1.86858e-06
-1.0233e-06
-1.59904e-06
-7.62425e-07
-1.28187e-06
-5.35013e-07
-9.42139e-07
-3.48869e-07
-6.07002e-07
-2.06941e-07
-2.98598e-07
-1.07813e-07
-3.64e-08
-4.55486e-08
1.63772e-07
-1.18231e-08
2.84635e-07
1.95713e-09
3.13806e-07
1.79474e-07
-4.77301e-08
-1.34792e-07
-1.28497e-07
-4.35358e-08
-2.19267e-07
8.59476e-08
-3.17124e-07
2.17576e-07
-4.22611e-07
3.54518e-07
-5.36956e-07
4.97253e-07
-6.61002e-07
6.44203e-07
-7.94944e-07
7.92989e-07
-9.38242e-07
9.41348e-07
-1.08905e-06
1.08685e-06
-1.24406e-06
1.2262e-06
-1.39919e-06
1.35519e-06
-1.55019e-06
1.46918e-06
-1.69329e-06
1.56418e-06
-1.82538e-06
1.6371e-06
-1.94473e-06
1.68669e-06
-2.05118e-06
1.71403e-06
-2.14529e-06
1.72152e-06
-2.22778e-06
1.71169e-06
-2.29932e-06
1.68689e-06
-2.36047e-06
1.64924e-06
-2.41179e-06
1.60063e-06
-2.4539e-06
1.54286e-06
-2.48754e-06
1.47766e-06
-2.5136e-06
1.40666e-06
-2.53303e-06
1.33135e-06
-2.54679e-06
1.25306e-06
-2.55582e-06
1.17291e-06
-2.561e-06
1.09181e-06
-2.56309e-06
1.01047e-06
-2.56274e-06
9.29415e-07
-2.56048e-06
8.48996e-07
-2.55676e-06
7.69438e-07
-2.55189e-06
6.90854e-07
-2.54611e-06
6.13268e-07
-2.53957e-06
5.36631e-07
-2.5324e-06
4.60843e-07
-2.52465e-06
3.85761e-07
-2.51639e-06
3.11215e-07
-2.50765e-06
2.37008e-07
-2.49846e-06
1.62935e-07
-2.48886e-06
8.87807e-08
-2.4789e-06
1.43111e-08
-2.46866e-06
-6.07277e-08
-2.45823e-06
-1.36583e-07
-2.44774e-06
-2.13529e-07
-2.43737e-06
-2.9185e-07
-2.42733e-06
-3.7185e-07
-2.41787e-06
-4.53851e-07
-2.40928e-06
-5.38202e-07
-2.4019e-06
-6.2528e-07
-2.3961e-06
-7.15489e-07
-2.39223e-06
-8.09263e-07
-2.39066e-06
-9.07063e-07
-2.39169e-06
-1.00936e-06
-2.3955e-06
-1.11663e-06
-2.40211e-06
-1.22926e-06
-2.41126e-06
-1.34755e-06
-2.42227e-06
-1.47155e-06
-2.43388e-06
-1.60097e-06
-2.44397e-06
-1.73488e-06
-2.44923e-06
-1.87148e-06
-2.44483e-06
-2.00758e-06
-2.42357e-06
-2.13802e-06
-2.37823e-06
-2.25504e-06
-2.29879e-06
-2.34726e-06
-2.17098e-06
-2.40038e-06
-1.98789e-06
-2.39276e-06
-1.75491e-06
-2.30788e-06
-1.48497e-06
-2.13852e-06
-1.19573e-06
-1.88828e-06
-9.07697e-07
-1.5699e-06
-6.44265e-07
-1.20557e-06
-4.22638e-07
-8.28629e-07
-2.49443e-07
-4.71792e-07
-1.25412e-07
-1.60432e-07
-4.6298e-08
8.46581e-08
-5.17177e-09
2.43509e-07
7.49235e-09
3.01142e-07
1.86966e-07
-6.08606e-08
-7.39315e-08
-1.53922e-07
4.95256e-08
-2.55704e-07
1.8773e-07
-3.6355e-07
3.25421e-07
-4.78187e-07
4.69155e-07
-6.00738e-07
6.19805e-07
-7.31819e-07
7.75283e-07
-8.71204e-07
9.32374e-07
-1.01742e-06
1.08757e-06
-1.16776e-06
1.23719e-06
-1.3188e-06
1.37724e-06
-1.46656e-06
1.50294e-06
-1.60734e-06
1.60996e-06
-1.73794e-06
1.69478e-06
-1.85618e-06
1.75534e-06
-1.96141e-06
1.79193e-06
-2.05401e-06
1.80663e-06
-2.13461e-06
1.80213e-06
-2.20386e-06
1.78094e-06
-2.26234e-06
1.74536e-06
-2.31064e-06
1.69753e-06
-2.34946e-06
1.63945e-06
-2.37968e-06
1.57308e-06
-2.40228e-06
1.50026e-06
-2.41834e-06
1.42272e-06
-2.42895e-06
1.34196e-06
-2.43514e-06
1.25924e-06
-2.43782e-06
1.17559e-06
-2.43781e-06
1.0918e-06
-2.43576e-06
1.00843e-06
-2.43222e-06
9.25873e-07
-2.42759e-06
8.4436e-07
-2.42215e-06
7.64006e-07
-2.41613e-06
6.84829e-07
-2.40964e-06
6.06779e-07
-2.40276e-06
5.29749e-07
-2.39551e-06
4.53597e-07
-2.38791e-06
3.78162e-07
-2.37996e-06
3.03258e-07
-2.37163e-06
2.2868e-07
-2.36292e-06
1.54223e-07
-2.35383e-06
7.96902e-08
-2.34438e-06
4.86904e-09
-2.33463e-06
-7.04853e-08
-2.32463e-06
-1.46577e-07
-2.31451e-06
-2.23648e-07
-2.30442e-06
-3.01945e-07
-2.29454e-06
-3.81725e-07
-2.28513e-06
-4.63265e-07
-2.27647e-06
-5.46864e-07
-2.2689e-06
-6.3285e-07
-2.2628e-06
-7.21583e-07
-2.2586e-06
-8.13465e-07
-2.25673e-06
-9.08939e-07
-2.2576e-06
-1.00849e-06
-2.26158e-06
-1.11264e-06
-2.26892e-06
-1.22192e-06