/*--------------------------------*- C++ -*----------------------------------*\
  =========                 |
  \\      /  F ield         | OpenFOAM: The Open Source CFD Toolbox
   \\    /   O peration     | Website:  https://openfoam.org
    \\  /    A nd           | Version:  13
     \\/     M anipulation  |
\*---------------------------------------------------------------------------*/
FoamFile
{
    format      ascii;
    class       volVectorField;
    location    "8.1";
    object      U;
}
// * * * * * * * * * * * * * * * * * * * * * * * * * * * * * * * * * * * * * //

dimensions      [0 1 -1 0 0 0 0];

internalField   nonuniform List<vector> 
6400
(
(-0.000126998 8.35591e-05 0)
(0.000451157 -0.000175676 0)
(0.00211616 -0.000440373 0)
(0.0043118 -0.000557495 0)
(0.00649362 -0.000491493 0)
(0.00831044 -0.000327749 0)
(0.00951669 -0.000131094 0)
(0.010118 1.62863e-05 0)
(0.0102411 7.09675e-05 0)
(0.010131 4.94535e-05 0)
(0.00991056 -2.91229e-05 0)
(0.00975097 -0.000136375 0)
(0.00971559 -0.000247918 0)
(0.00980447 -0.000338352 0)
(0.00996892 -0.000411263 0)
(0.0101304 -0.000464764 0)
(0.010214 -0.00049855 0)
(0.0101671 -0.000500753 0)
(0.00994687 -0.000481368 0)
(0.00945844 -0.000440238 0)
(0.00866404 -0.000391064 0)
(0.00750491 -0.000341097 0)
(0.00593842 -0.000294403 0)
(0.00393669 -0.000276609 0)
(0.00146708 -0.000325666 0)
(-0.00144618 -0.000443647 0)
(-0.00483681 -0.000486468 0)
(-0.00893106 -0.000297986 0)
(-0.0138432 0.000236276 0)
(-0.0196032 0.00111922 0)
(-0.0269576 0.00216682 0)
(-0.0351237 0.00305276 0)
(-0.0439594 0.00376432 0)
(-0.0531538 0.00428918 0)
(-0.0624498 0.00463395 0)
(-0.0716113 0.00481368 0)
(-0.080453 0.00485339 0)
(-0.0888196 0.00477671 0)
(-0.0965954 0.00460619 0)
(-0.103682 0.00435976 0)
(-0.110005 0.00404931 0)
(-0.115502 0.00368346 0)
(-0.12013 0.00326446 0)
(-0.123866 0.00279644 0)
(-0.126684 0.00229344 0)
(-0.128372 0.00182018 0)
(-0.129074 0.00138804 0)
(-0.12894 0.000665567 0)
(-0.127404 0.00011461 0)
(-0.124953 -0.000573723 0)
(-0.121213 -0.00120995 0)
(-0.116397 -0.00187652 0)
(-0.110368 -0.00251175 0)
(-0.10324 -0.00313465 0)
(-0.0950419 -0.00374065 0)
(-0.0858661 -0.00432205 0)
(-0.0757319 -0.00482875 0)
(-0.0648316 -0.00525825 0)
(-0.0533196 -0.0055781 0)
(-0.0414094 -0.00575549 0)
(-0.0293432 -0.00575466 0)
(-0.0174033 -0.0055624 0)
(-0.00582013 -0.00517756 0)
(0.00493652 -0.00467352 0)
(0.0145463 -0.00390686 0)
(0.0228228 -0.00296981 0)
(0.0294352 -0.00190584 0)
(0.0341045 -0.000754434 0)
(0.036854 0.000405021 0)
(0.0370739 0.0016123 0)
(0.0356175 0.00227568 0)
(0.0320379 0.00285527 0)
(0.0267314 0.00304692 0)
(0.0205973 0.00274307 0)
(0.0144059 0.00204379 0)
(0.00895748 0.00120516 0)
(0.00469121 0.00052226 0)
(0.00175743 0.000117442 0)
(0.000137504 -0.000171091 0)
(-0.000238544 -0.000346536 0)
(1.67192e-05 -0.000388794 0)
(0.00183758 -0.00212798 0)
(0.00529311 -0.00357384 0)
(0.00913918 -0.00405781 0)
(0.0126772 -0.00366629 0)
(0.0154914 -0.00278532 0)
(0.0174056 -0.00171271 0)
(0.0184489 -0.000738036 0)
(0.0187453 -4.61166e-05 0)
(0.0184577 0.000332322 0)
(0.017785 0.00043908 0)
(0.0168968 0.000357062 0)
(0.0158802 0.000207788 0)
(0.0147277 0.000104293 0)
(0.0133681 0.000110485 0)
(0.0116988 0.000240055 0)
(0.0096329 0.000472563 0)
(0.00710211 0.000794189 0)
(0.00399253 0.00122062 0)
(0.00019771 0.00176202 0)
(-0.00439199 0.00242261 0)
(-0.0100104 0.00322115 0)
(-0.0167444 0.00412197 0)
(-0.0246618 0.00511552 0)
(-0.0338087 0.00621957 0)
(-0.0442891 0.00743918 0)
(-0.0559909 0.00880229 0)
(-0.0685619 0.0103053 0)
(-0.0816185 0.0118861 0)
(-0.0946284 0.0133701 0)
(-0.107073 0.0144605 0)
(-0.119152 0.0151301 0)
(-0.130575 0.0153871 0)
(-0.141264 0.0152593 0)
(-0.151121 0.0148176 0)
(-0.160081 0.0141133 0)
(-0.168104 0.0132033 0)
(-0.175157 0.0121323 0)
(-0.181228 0.0109383 0)
(-0.186302 0.0096497 0)
(-0.190367 0.00828372 0)
(-0.193422 0.00685692 0)
(-0.195457 0.00537572 0)
(-0.19647 0.00385126 0)
(-0.19645 0.00229289 0)
(-0.195362 0.000712077 0)
(-0.19322 -0.000914294 0)
(-0.190025 -0.00262948 0)
(-0.185706 -0.00437543 0)
(-0.180332 -0.00615982 0)
(-0.17383 -0.00795992 0)
(-0.16624 -0.00976126 0)
(-0.157529 -0.0115408 0)
(-0.147727 -0.0132679 0)
(-0.136841 -0.0149087 0)
(-0.124955 -0.0164125 0)
(-0.112179 -0.0177444 0)
(-0.0986121 -0.0188431 0)
(-0.084435 -0.0196394 0)
(-0.0698626 -0.0200821 0)
(-0.0551063 -0.0201052 0)
(-0.0404245 -0.0196681 0)
(-0.0261003 -0.0187481 0)
(-0.0124517 -0.0173657 0)
(0.000240665 -0.0154562 0)
(0.0117158 -0.0130814 0)
(0.0216947 -0.0102857 0)
(0.0299348 -0.00717211 0)
(0.036269 -0.00382131 0)
(0.0405169 -0.000419648 0)
(0.042665 0.00278845 0)
(0.0425849 0.00573361 0)
(0.0403697 0.00814536 0)
(0.0362457 0.00968618 0)
(0.030255 0.00989089 0)
(0.0228952 0.00893738 0)
(0.0151752 0.00709058 0)
(0.00820132 0.00478071 0)
(0.00305106 0.00230806 0)
(0.00022454 0.00026932 0)
(0.000208601 -0.00165796 0)
(0.00324502 -0.00545739 0)
(0.00755585 -0.00770382 0)
(0.011572 -0.00796307 0)
(0.0148618 -0.00684457 0)
(0.0172207 -0.00501839 0)
(0.0186784 -0.00305825 0)
(0.0192957 -0.00129104 0)
(0.0191497 0.000101672 0)
(0.0183445 0.00103787 0)
(0.0170246 0.00154999 0)
(0.0152657 0.00178245 0)
(0.0130836 0.00193071 0)
(0.0104399 0.00216957 0)
(0.0072437 0.00260844 0)
(0.00339517 0.00327287 0)
(-0.00123421 0.00415615 0)
(-0.00680385 0.00526898 0)
(-0.0134412 0.00663477 0)
(-0.021267 0.00828706 0)
(-0.0303653 0.01023 0)
(-0.0407095 0.0124016 0)
(-0.0522742 0.0147186 0)
(-0.0649119 0.0170593 0)
(-0.0783653 0.0192972 0)
(-0.092328 0.0213401 0)
(-0.106427 0.0230897 0)
(-0.120345 0.0244847 0)
(-0.133741 0.025466 0)
(-0.14636 0.0260123 0)
(-0.15804 0.0261175 0)
(-0.168732 0.0257806 0)
(-0.178375 0.0250491 0)
(-0.187034 0.023959 0)
(-0.194707 0.0225581 0)
(-0.201434 0.0209169 0)
(-0.207237 0.0190828 0)
(-0.212143 0.0171007 0)
(-0.216162 0.0150011 0)
(-0.219309 0.0128197 0)
(-0.221593 0.0105658 0)
(-0.223014 0.00825215 0)
(-0.223571 0.00588642 0)
(-0.223255 0.00346793 0)
(-0.222056 0.000998371 0)
(-0.219957 -0.00152822 0)
(-0.216924 -0.00412626 0)
(-0.212946 -0.00679131 0)
(-0.207997 -0.00949174 0)
(-0.202063 -0.0122415 0)
(-0.195115 -0.0150149 0)
(-0.187147 -0.017796 0)
(-0.178146 -0.0205521 0)
(-0.168121 -0.023242 0)
(-0.157092 -0.0258073 0)
(-0.145103 -0.0281773 0)
(-0.132237 -0.0302831 0)
(-0.118586 -0.0320301 0)
(-0.104273 -0.0333241 0)
(-0.0894876 -0.0340728 0)
(-0.0744469 -0.0341874 0)
(-0.0593811 -0.0335924 0)
(-0.0445766 -0.0322557 0)
(-0.0303375 -0.0301828 0)
(-0.0169335 -0.0273649 0)
(-0.00459423 -0.0238408 0)
(0.00642294 -0.0196816 0)
(0.0159028 -0.015006 0)
(0.0237125 -0.00996645 0)
(0.0297318 -0.00474831 0)
(0.033936 0.000423363 0)
(0.0362905 0.00531615 0)
(0.0366593 0.00957993 0)
(0.0349604 0.0129453 0)
(0.0315144 0.0151828 0)
(0.0263897 0.0157038 0)
(0.0197785 0.0146013 0)
(0.012578 0.0119562 0)
(0.00587425 0.00789817 0)
(0.000782131 0.00292442 0)
(0.000434292 -0.00364446 0)
(0.00432273 -0.00963293 0)
(0.0087219 -0.011963 0)
(0.0122378 -0.0114188 0)
(0.0147612 -0.0092999 0)
(0.0162933 -0.00654506 0)
(0.0169373 -0.00372636 0)
(0.0167865 -0.00118502 0)
(0.015921 0.000882717 0)
(0.0143966 0.00240934 0)
(0.0122109 0.0034786 0)
(0.00933978 0.00428048 0)
(0.0057307 0.00504927 0)
(0.00131178 0.00598867 0)
(-0.00399186 0.00721965 0)
(-0.010283 0.00879474 0)
(-0.0176831 0.01073 0)
(-0.026311 0.013029 0)
(-0.036245 0.0156802 0)
(-0.0474949 0.0186469 0)
(-0.0599689 0.0218314 0)
(-0.0734616 0.0250848 0)
(-0.0876769 0.0282278 0)
(-0.102244 0.0310918 0)
(-0.116864 0.0335814 0)
(-0.131188 0.0355086 0)
(-0.144922 0.0367818 0)
(-0.15779 0.0374226 0)
(-0.169634 0.0374944 0)
(-0.180418 0.0370467 0)
(-0.190123 0.0361382 0)
(-0.198809 0.0348083 0)
(-0.20652 0.0330971 0)
(-0.213327 0.0310751 0)
(-0.219271 0.0287898 0)
(-0.224415 0.0262961 0)
(-0.228789 0.0236355 0)
(-0.232423 0.0208502 0)
(-0.235335 0.0179632 0)
(-0.237536 0.014995 0)
(-0.23903 0.0119566 0)
(-0.23981 0.00885371 0)
(-0.23987 0.00568615 0)
(-0.239192 0.00245197 0)
(-0.237761 -0.00085096 0)
(-0.235547 -0.00423087 0)
(-0.232521 -0.00768995 0)
(-0.228656 -0.0112418 0)
(-0.223923 -0.0148699 0)
(-0.218285 -0.0185675 0)
(-0.211717 -0.0223124 0)
(-0.204192 -0.0260826 0)
(-0.195689 -0.0298395 0)
(-0.186192 -0.0335289 0)
(-0.175699 -0.0370716 0)
(-0.164227 -0.040371 0)
(-0.151824 -0.0433307 0)
(-0.138566 -0.0458364 0)
(-0.12455 -0.0477466 0)
(-0.109915 -0.0489207 0)
(-0.094859 -0.0492429 0)
(-0.0795931 -0.0485983 0)
(-0.0643806 -0.0469191 0)
(-0.0495391 -0.0441744 0)
(-0.0354154 -0.0404372 0)
(-0.0222595 -0.0357648 0)
(-0.0103081 -0.0302463 0)
(0.000220992 -0.0240379 0)
(0.0091731 -0.0173559 0)
(0.0164384 -0.0104402 0)
(0.0219681 -0.003539 0)
(0.0257744 0.00311785 0)
(0.0279068 0.00922065 0)
(0.0283621 0.0143601 0)
(0.0270129 0.018192 0)
(0.0239015 0.0204163 0)
(0.0192004 0.0205964 0)
(0.0133161 0.0185896 0)
(0.0069287 0.0142048 0)
(0.00107372 0.00670353 0)
(0.000719359 -0.00619355 0)
(0.0049983 -0.0140338 0)
(0.00885786 -0.0157419 0)
(0.0114932 -0.0140706 0)
(0.013051 -0.0108575 0)
(0.0136094 -0.00715843 0)
(0.0133163 -0.00351856 0)
(0.0122576 -0.000241582 0)
(0.0104687 0.00252079 0)
(0.00793495 0.00475693 0)
(0.00459138 0.00658487 0)
(0.000348437 0.00821932 0)
(-0.00488784 0.00990568 0)
(-0.0112067 0.0118496 0)
(-0.0186914 0.0141815 0)
(-0.0274202 0.0169596 0)
(-0.0374518 0.0201892 0)
(-0.0488032 0.0238338 0)
(-0.061406 0.0277903 0)
(-0.0750789 0.0319105 0)
(-0.0895256 0.035965 0)
(-0.104387 0.039756 0)
(-0.1193 0.0431415 0)
(-0.133956 0.0458413 0)
(-0.147967 0.0477331 0)
(-0.161022 0.0488339 0)
(-0.173038 0.0491672 0)
(-0.183959 0.0487941 0)
(-0.193839 0.0478201 0)
(-0.202721 0.0463401 0)
(-0.210669 0.0444359 0)
(-0.21777 0.0421758 0)
(-0.224071 0.0396101 0)
(-0.229633 0.0367911 0)
(-0.234504 0.0337613 0)
(-0.23873 0.0305617 0)
(-0.242332 0.0272262 0)
(-0.245336 0.0237849 0)
(-0.247756 0.0202518 0)
(-0.249593 0.0166405 0)
(-0.250847 0.0129549 0)
(-0.251508 0.00919602 0)
(-0.251566 0.0053551 0)
(-0.251001 0.00142656 0)
(-0.249797 -0.00259367 0)
(-0.24792 -0.00671821 0)
(-0.245336 -0.0109539 0)
(-0.242011 -0.0153088 0)
(-0.23792 -0.0197848 0)
(-0.233006 -0.0243674 0)
(-0.227228 -0.029033 0)
(-0.22055 -0.0337594 0)
(-0.212928 -0.0385012 0)
(-0.204327 -0.043196 0)
(-0.194722 -0.0477508 0)
(-0.184094 -0.0520426 0)
(-0.172458 -0.0559501 0)
(-0.159861 -0.059334 0)
(-0.146366 -0.0620107 0)
(-0.132075 -0.0638011 0)
(-0.117154 -0.0645513 0)
(-0.101789 -0.064088 0)
(-0.0862366 -0.0623044 0)
(-0.0707422 -0.0591354 0)
(-0.055681 -0.0546163 0)
(-0.0414628 -0.048878 0)
(-0.0283402 -0.0420562 0)
(-0.0165462 -0.0343597 0)
(-0.0062848 -0.0260473 0)
(0.00230093 -0.017423 0)
(0.00914329 -0.00879941 0)
(0.0142547 -0.000468657 0)
(0.0177037 0.00726449 0)
(0.0195608 0.0140734 0)
(0.0198397 0.0195901 0)
(0.0185464 0.0233689 0)
(0.0156913 0.0249638 0)
(0.0114871 0.0240605 0)
(0.00629816 0.0200476 0)
(0.000946199 0.0105114 0)
(0.00103323 -0.00913644 0)
(0.00517775 -0.0180595 0)
(0.00806708 -0.0185416 0)
(0.00957589 -0.015677 0)
(0.0100642 -0.0113718 0)
(0.00959105 -0.00677608 0)
(0.00829959 -0.00234366 0)
(0.00623241 0.00168594 0)
(0.00337047 0.00521998 0)
(-0.000356753 0.00829663 0)
(-0.00505692 0.0110681 0)
(-0.0108461 0.0137593 0)
(-0.0178274 0.0166053 0)
(-0.026082 0.0197947 0)
(-0.0356642 0.023438 0)
(-0.0465872 0.0275582 0)
(-0.0588014 0.0320971 0)
(-0.0721754 0.0369533 0)
(-0.086477 0.0418928 0)
(-0.101337 0.0466596 0)
(-0.116405 0.0510801 0)
(-0.131324 0.0548008 0)
(-0.145632 0.0576331 0)
(-0.158977 0.059517 0)
(-0.171222 0.060417 0)
(-0.182377 0.0604236 0)
(-0.192493 0.0596658 0)
(-0.201642 0.0582741 0)
(-0.209912 0.0563614 0)
(-0.21736 0.0540155 0)
(-0.224059 0.0513129 0)
(-0.230064 0.0483084 0)
(-0.235422 0.045054 0)
(-0.240182 0.0415931 0)
(-0.244383 0.0379596 0)
(-0.248049 0.0341835 0)
(-0.251198 0.0302909 0)
(-0.253845 0.0263077 0)
(-0.256002 0.0222417 0)
(-0.257672 0.0180984 0)
(-0.258853 0.0138772 0)
(-0.259541 0.00957542 0)
(-0.259731 0.0051748 0)
(-0.259409 0.000661189 0)
(-0.258584 -0.00398547 0)
(-0.257216 -0.00877845 0)
(-0.255272 -0.0137198 0)
(-0.252703 -0.018809 0)
(-0.249472 -0.0240535 0)
(-0.245538 -0.0294529 0)
(-0.240826 -0.034973 0)
(-0.235274 -0.0405897 0)
(-0.228807 -0.0462449 0)
(-0.221364 -0.0518752 0)
(-0.212952 -0.0574299 0)
(-0.203502 -0.0627658 0)
(-0.192939 -0.0677029 0)
(-0.181295 -0.072086 0)
(-0.1686 -0.0756944 0)
(-0.154884 -0.078299 0)
(-0.140313 -0.0797102 0)
(-0.125006 -0.079694 0)
(-0.109222 -0.0781224 0)
(-0.0932094 -0.0748337 0)
(-0.0772697 -0.0698175 0)
(-0.0618269 -0.0631841 0)
(-0.0473335 -0.0551934 0)
(-0.0340529 -0.046079 0)
(-0.0222482 -0.0361539 0)
(-0.0121254 -0.0257958 0)
(-0.00380565 -0.0154019 0)
(0.0026902 -0.00535065 0)
(0.00743199 0.00401605 0)
(0.0105482 0.0123746 0)
(0.0121515 0.0193997 0)
(0.012298 0.0246636 0)
(0.0109959 0.0276874 0)
(0.00834491 0.028003 0)
(0.00468978 0.0246892 0)
(0.000572627 0.0136606 0)
(0.00128396 -0.0122152 0)
(0.00480319 -0.0211993 0)
(0.00638057 -0.0202392 0)
(0.00677007 -0.0160875 0)
(0.00610378 -0.0107932 0)
(0.00456482 -0.00535188 0)
(0.00221788 -0.000124967 0)
(-0.000948052 0.00471502 0)
(-0.0050007 0.00912904 0)
(-0.0100458 0.0131928 0)
(-0.0162044 0.0170741 0)
(-0.0235893 0.0209891 0)
(-0.0322855 0.0251457 0)
(-0.0423371 0.0296937 0)
(-0.0537342 0.0346917 0)
(-0.0663838 0.0400938 0)
(-0.0801352 0.0457599 0)
(-0.0946817 0.0514395 0)
(-0.109632 0.0569108 0)
(-0.124648 0.0618005 0)
(-0.139255 0.0658328 0)
(-0.152971 0.0688042 0)
(-0.165598 0.0706345 0)
(-0.177112 0.0713786 0)
(-0.187577 0.0711778 0)
(-0.197063 0.0701728 0)
(-0.205662 0.0684949 0)
(-0.213457 0.0662673 0)
(-0.220523 0.0635877 0)
(-0.22691 0.0605373 0)
(-0.232672 0.0571822 0)
(-0.237847 0.0535698 0)
(-0.242476 0.0497449 0)
(-0.246593 0.0457437 0)
(-0.250224 0.0415977 0)
(-0.25339 0.0373342 0)
(-0.256104 0.0329794 0)
(-0.258373 0.028551 0)
(-0.260213 0.024051 0)
(-0.261622 0.0194836 0)
(-0.262644 0.0147849 0)
(-0.263245 0.0100266 0)
(-0.263425 0.00517052 0)
(-0.263164 0.000205184 0)
(-0.262456 -0.00490102 0)
(-0.261339 -0.0101537 0)
(-0.259787 -0.0155841 0)
(-0.25781 -0.0212221 0)
(-0.255366 -0.0270917 0)
(-0.252452 -0.0332272 0)
(-0.248993 -0.0395418 0)
(-0.244904 -0.0460369 0)
(-0.240101 -0.0526723 0)
(-0.234471 -0.0593791 0)
(-0.227833 -0.0660216 0)
(-0.220064 -0.0724347 0)
(-0.211039 -0.0784228 0)
(-0.200777 -0.0838594 0)
(-0.189379 -0.0885855 0)
(-0.176686 -0.0922264 0)
(-0.162885 -0.0945739 0)
(-0.147997 -0.0952989 0)
(-0.132298 -0.0942382 0)
(-0.115972 -0.091172 0)
(-0.0993687 -0.0860354 0)
(-0.0828042 -0.0788339 0)
(-0.0668276 -0.0698369 0)
(-0.051931 -0.0594162 0)
(-0.0383969 -0.0479162 0)
(-0.0265156 -0.0357861 0)
(-0.0164952 -0.023523 0)
(-0.00843088 -0.0116186 0)
(-0.00229674 -0.000509385 0)
(0.0020605 0.0094465 0)
(0.00483839 0.0179383 0)
(0.00618063 0.0245997 0)
(0.00617408 0.02898 0)
(0.00488455 0.0304696 0)
(0.00270267 0.027859 0)
(0.000107169 0.0156646 0)
(0.00138006 -0.0150837 0)
(0.00377245 -0.0231859 0)
(0.00411221 -0.0206909 0)
(0.00325956 -0.0152815 0)
(0.0014453 -0.00910257 0)
(-0.00118872 -0.00284602 0)
(-0.00464342 0.00320612 0)
(-0.00897722 0.00893536 0)
(-0.0142902 0.014339 0)
(-0.0206979 0.0195117 0)
(-0.0283113 0.024618 0)
(-0.0372174 0.0298477 0)
(-0.0474589 0.0353623 0)
(-0.0590186 0.0412454 0)
(-0.0718002 0.0474889 0)
(-0.0856201 0.0539424 0)
(-0.100134 0.0603464 0)
(-0.11498 0.0664227 0)
(-0.12971 0.07179 0)
(-0.143825 0.0761377 0)
(-0.156941 0.0792432 0)
(-0.168958 0.081096 0)
(-0.179893 0.0818039 0)
(-0.189809 0.081518 0)
(-0.198795 0.0803753 0)
(-0.206942 0.0785205 0)
(-0.214336 0.0760751 0)
(-0.221041 0.0731474 0)
(-0.227108 0.0698203 0)
(-0.232577 0.0661662 0)
(-0.237485 0.0622433 0)
(-0.241863 0.0580989 0)
(-0.245739 0.0537759 0)
(-0.249134 0.0493133 0)
(-0.252063 0.0447497 0)
(-0.25454 0.0401062 0)
(-0.256678 0.0353224 0)
(-0.258464 0.0304648 0)
(-0.259907 0.0255317 0)
(-0.261009 0.0205231 0)
(-0.261752 0.0154863 0)
(-0.262155 0.0103413 0)
(-0.26222 0.00510031 0)
(-0.261957 -0.000260687 0)
(-0.26136 -0.00575698 0)
(-0.260449 -0.0113957 0)
(-0.259212 -0.0172068 0)
(-0.257643 -0.023204 0)
(-0.255721 -0.0293976 0)
(-0.253419 -0.0357922 0)
(-0.250726 -0.0425036 0)
(-0.247614 -0.0494979 0)
(-0.244043 -0.0567653 0)
(-0.239954 -0.0642723 0)
(-0.235267 -0.0719841 0)
(-0.229872 -0.0797242 0)
(-0.223496 -0.0872202 0)
(-0.215804 -0.0941867 0)
(-0.206454 -0.100179 0)
(-0.195464 -0.104998 0)
(-0.183137 -0.108588 0)
(-0.1693 -0.110409 0)
(-0.154245 -0.110273 0)
(-0.138092 -0.107849 0)
(-0.121198 -0.103026 0)
(-0.103864 -0.0957335 0)
(-0.0865389 -0.0860585 0)
(-0.0699308 -0.0744868 0)
(-0.0545552 -0.0615216 0)
(-0.0407357 -0.0476266 0)
(-0.0287895 -0.0334006 0)
(-0.0189212 -0.0194664 0)
(-0.0111886 -0.00640261 0)
(-0.00548642 0.00532335 0)
(-0.00158173 0.0153533 0)
(0.00080178 0.023394 0)
(0.00186732 0.0290387 0)
(0.00176895 0.0316212 0)
(0.000839499 0.0295302 0)
(-0.000269437 0.0164374 0)
(0.0012826 -0.0174423 0)
(0.00232254 -0.0238785 0)
(0.00135149 -0.0197834 0)
(-0.000727255 -0.0133175 0)
(-0.00367522 -0.0062967 0)
(-0.00742333 0.000776291 0)
(-0.0120174 0.00769877 0)
(-0.0175494 0.0143916 0)
(-0.0241292 0.0208699 0)
(-0.0318614 0.0272268 0)
(-0.0408295 0.0336049 0)
(-0.051076 0.0401499 0)
(-0.0625811 0.0469562 0)
(-0.0752702 0.0540418 0)
(-0.0889487 0.0612799 0)
(-0.103243 0.0684056 0)
(-0.117803 0.0750809 0)
(-0.132151 0.0809405 0)
(-0.145744 0.0856265 0)
(-0.158354 0.0889693 0)
(-0.169872 0.0909646 0)
(-0.180327 0.0917549 0)
(-0.189786 0.0914701 0)
(-0.198346 0.0902786 0)
(-0.206092 0.0883184 0)
(-0.213104 0.0857253 0)
(-0.21944 0.0826037 0)
(-0.225147 0.0790475 0)
(-0.23026 0.0751309 0)
(-0.234812 0.070921 0)
(-0.238836 0.0664731 0)
(-0.242358 0.0618364 0)
(-0.245405 0.0570545 0)
(-0.248035 0.0521364 0)
(-0.250298 0.0471087 0)
(-0.252215 0.0420031 0)
(-0.253752 0.0368864 0)
(-0.254922 0.031713 0)
(-0.255745 0.0264847 0)
(-0.256244 0.0211974 0)
(-0.25647 0.0158478 0)
(-0.256445 0.0104172 0)
(-0.256198 0.00490121 0)
(-0.255755 -0.000722354 0)
(-0.255126 -0.00646963 0)
(-0.254277 -0.0123733 0)
(-0.253237 -0.0184632 0)
(-0.251998 -0.0247691 0)
(-0.25056 -0.0313167 0)
(-0.248909 -0.0381238 0)
(-0.24703 -0.0452021 0)
(-0.244892 -0.0525528 0)
(-0.242446 -0.060168 0)
(-0.239631 -0.0680101 0)
(-0.236353 -0.0760065 0)
(-0.232513 -0.0842099 0)
(-0.228103 -0.0926183 0)
(-0.22294 -0.100984 0)
(-0.216782 -0.108924 0)
(-0.209164 -0.115899 0)
(-0.199326 -0.121106 0)
(-0.187417 -0.124337 0)
(-0.17385 -0.125591 0)
(-0.158594 -0.124317 0)
(-0.142021 -0.120333 0)
(-0.124465 -0.113505 0)
(-0.106268 -0.103752 0)
(-0.0880828 -0.0913788 0)
(-0.0707554 -0.0770706 0)
(-0.0548702 -0.0615034 0)
(-0.0407934 -0.0452763 0)
(-0.0288647 -0.0291509 0)
(-0.0192689 -0.0138738 0)
(-0.0120015 -9.4394e-05 0)
(-0.00685806 0.0117019 0)
(-0.00348267 0.0212033 0)
(-0.00151892 0.0280735 0)
(-0.000645611 0.0315805 0)
(-0.000477754 0.0299118 0)
(-0.000384498 0.0162888 0)
(0.00103108 -0.0187557 0)
(0.000593754 -0.0231679 0)
(-0.00171225 -0.0175789 0)
(-0.00496516 -0.0101917 0)
(-0.00903871 -0.00236829 0)
(-0.0139065 0.00553212 0)
(-0.0196412 0.0133646 0)
(-0.0263512 0.0210725 0)
(-0.0341385 0.0286684 0)
(-0.043082 0.0362249 0)
(-0.0532229 0.043845 0)
(-0.0645446 0.0516129 0)
(-0.0769885 0.0595635 0)
(-0.0903824 0.0676 0)
(-0.104357 0.0754493 0)
(-0.118519 0.0827649 0)
(-0.13242 0.0891723 0)
(-0.145575 0.0942932 0)
(-0.157748 0.0979773 0)
(-0.168855 0.100248 0)
(-0.178898 0.101199 0)
(-0.187967 0.101009 0)
(-0.196144 0.0998353 0)
(-0.203517 0.0978387 0)
(-0.21015 0.095147 0)
(-0.2161 0.0918778 0)
(-0.221406 0.0881238 0)
(-0.226106 0.0839704 0)
(-0.230233 0.0794889 0)
(-0.233821 0.0747446 0)
(-0.236906 0.0697924 0)
(-0.239526 0.0646802 0)
(-0.241724 0.0594469 0)
(-0.243512 0.054141 0)
(-0.24491 0.0487783 0)
(-0.245964 0.0433623 0)
(-0.246689 0.0379102 0)
(-0.24715 0.0324194 0)
(-0.247384 0.0269038 0)
(-0.247434 0.0213639 0)
(-0.247288 0.0157936 0)
(-0.246977 0.0101722 0)
(-0.246515 0.00448491 0)
(-0.245919 -0.0012927 0)
(-0.245193 -0.00718243 0)
(-0.244345 -0.0132203 0)
(-0.243393 -0.0194328 0)
(-0.242347 -0.0258534 0)
(-0.241213 -0.0325138 0)
(-0.239993 -0.0394472 0)
(-0.238687 -0.0466858 0)
(-0.237286 -0.0542522 0)
(-0.235767 -0.0621615 0)
(-0.234089 -0.0704062 0)
(-0.23218 -0.0789452 0)
(-0.22995 -0.0876942 0)
(-0.227281 -0.0965362 0)
(-0.224003 -0.105308 0)
(-0.219924 -0.114028 0)
(-0.214981 -0.122545 0)
(-0.208772 -0.130236 0)
(-0.200689 -0.13625 0)
(-0.189688 -0.139388 0)
(-0.176361 -0.139825 0)
(-0.16096 -0.13727 0)
(-0.143927 -0.131554 0)
(-0.125565 -0.122424 0)
(-0.106415 -0.109979 0)
(-0.0872766 -0.0947012 0)
(-0.069183 -0.0775379 0)
(-0.0528141 -0.059367 0)
(-0.0385776 -0.0409503 0)
(-0.026818 -0.0232212 0)
(-0.0176729 -0.00704295 0)
(-0.0110436 0.00688164 0)
(-0.0065786 0.0180912 0)
(-0.00376885 0.0262645 0)
(-0.00216238 0.0305598 0)
(-0.00116331 0.0293312 0)
(-0.000357177 0.0156853 0)
(0.000708195 -0.0190858 0)
(-0.00131242 -0.0210519 0)
(-0.00488245 -0.0141512 0)
(-0.00927251 -0.00591483 0)
(-0.0144552 0.00267824 0)
(-0.0204177 0.0114075 0)
(-0.0272541 0.0201698 0)
(-0.0350705 0.0289085 0)
(-0.0439482 0.0376141 0)
(-0.0539292 0.0463219 0)
(-0.0650021 0.0550806 0)
(-0.0771213 0.0639235 0)
(-0.0901424 0.0727826 0)
(-0.103727 0.081391 0)
(-0.117463 0.0893909 0)
(-0.130919 0.0964083 0)
(-0.143686 0.10209 0)
(-0.155493 0.106245 0)
(-0.166245 0.108884 0)
(-0.175947 0.110108 0)
(-0.184669 0.110089 0)
(-0.192502 0.109012 0)
(-0.199514 0.107031 0)
(-0.20577 0.10429 0)
(-0.211315 0.100905 0)
(-0.21619 0.0969806 0)
(-0.220428 0.0926074 0)
(-0.224068 0.0878696 0)
(-0.22715 0.0828408 0)
(-0.229717 0.0775883 0)
(-0.231814 0.0721689 0)
(-0.233485 0.0666308 0)
(-0.234775 0.0610117 0)
(-0.235724 0.0553432 0)
(-0.236376 0.049646 0)
(-0.236776 0.0439369 0)
(-0.236957 0.0382327 0)
(-0.236953 0.0325349 0)
(-0.236788 0.0268413 0)
(-0.236481 0.021143 0)
(-0.236045 0.0154291 0)
(-0.235499 0.00968103 0)
(-0.234855 0.00387967 0)
(-0.234127 -0.00199804 0)
(-0.233324 -0.00797535 0)
(-0.23246 -0.0140853 0)
(-0.231552 -0.0203564 0)
(-0.230612 -0.0268213 0)
(-0.229655 -0.0335126 0)
(-0.228694 -0.0404653 0)
(-0.22774 -0.0477144 0)
(-0.226802 -0.0552917 0)
(-0.22588 -0.0632248 0)
(-0.224961 -0.0715325 0)
(-0.224011 -0.0802214 0)
(-0.222974 -0.0892776 0)
(-0.221757 -0.0986389 0)
(-0.220217 -0.108167 0)
(-0.21817 -0.117639 0)
(-0.215371 -0.126783 0)
(-0.211498 -0.135425 0)
(-0.206429 -0.14351 0)
(-0.199575 -0.14991 0)
(-0.189895 -0.153379 0)
(-0.176833 -0.152899 0)
(-0.161348 -0.149046 0)
(-0.143702 -0.141318 0)
(-0.124425 -0.129654 0)
(-0.104226 -0.114284 0)
(-0.0840911 -0.0959189 0)
(-0.0652585 -0.0758263 0)
(-0.0485156 -0.0551215 0)
(-0.0343043 -0.0347621 0)
(-0.0229401 -0.0158578 0)
(-0.0144741 0.00062231 0)
(-0.0086613 0.0139612 0)
(-0.00492013 0.023699 0)
(-0.00272703 0.0288563 0)
(-0.00122781 0.0281687 0)
(-0.000182759 0.0148718 0)
(0.000123961 -0.0182327 0)
(-0.0033103 -0.0175958 0)
(-0.00803647 -0.00951692 0)
(-0.0135104 -0.000524682 0)
(-0.0197547 0.00880273 0)
(-0.0267542 0.0183499 0)
(-0.0346098 0.0280343 0)
(-0.043416 0.0377789 0)
(-0.0532233 0.0475355 0)
(-0.0640286 0.0572891 0)
(-0.0757954 0.0670442 0)
(-0.0884069 0.0767493 0)
(-0.101566 0.0861531 0)
(-0.114874 0.0948978 0)
(-0.127916 0.102609 0)
(-0.140334 0.108954 0)
(-0.151842 0.113711 0)
(-0.162299 0.116831 0)
(-0.171716 0.118431 0)
(-0.180143 0.118677 0)
(-0.187662 0.117764 0)
(-0.194342 0.115859 0)
(-0.200234 0.11311 0)
(-0.205384 0.109643 0)
(-0.209828 0.10557 0)
(-0.213607 0.100995 0)
(-0.216766 0.0960121 0)
(-0.219356 0.0907085 0)
(-0.221432 0.0851624 0)
(-0.22305 0.0794426 0)
(-0.224267 0.0736065 0)
(-0.225135 0.0677006 0)
(-0.225707 0.0617609 0)
(-0.226029 0.0558159 0)
(-0.226142 0.0498849 0)
(-0.226083 0.043982 0)
(-0.225876 0.0381137 0)
(-0.225544 0.0322753 0)
(-0.225103 0.0264599 0)
(-0.224566 0.0206554 0)
(-0.223946 0.0148475 0)
(-0.223255 0.00901798 0)
(-0.222503 0.00314705 0)
(-0.2217 -0.00278781 0)
(-0.220857 -0.00881074 0)
(-0.219987 -0.0149511 0)
(-0.219104 -0.0212374 0)
(-0.218225 -0.0277013 0)
(-0.217366 -0.0343752 0)
(-0.216547 -0.0412939 0)
(-0.215786 -0.0484928 0)
(-0.215103 -0.0560065 0)
(-0.214511 -0.0638672 0)
(-0.214019 -0.0721026 0)
(-0.213624 -0.0807342 0)
(-0.213308 -0.089773 0)
(-0.213024 -0.0992089 0)
(-0.212686 -0.108997 0)
(-0.212155 -0.119039 0)
(-0.211222 -0.129122 0)
(-0.209605 -0.138886 0)
(-0.206938 -0.147877 0)
(-0.202786 -0.155945 0)
(-0.196845 -0.162555 0)
(-0.188137 -0.166052 0)
(-0.175429 -0.164847 0)
(-0.159729 -0.159488 0)
(-0.141328 -0.149513 0)
(-0.121017 -0.13504 0)
(-0.0996949 -0.116494 0)
(-0.0785946 -0.094884 0)
(-0.059154 -0.0718467 0)
(-0.042265 -0.0487849 0)
(-0.0283713 -0.0268815 0)
(-0.0177092 -0.00742984 0)
(-0.0101915 0.00854876 0)
(-0.00530274 0.0203074 0)
(-0.00248937 0.0267426 0)
(-0.000793323 0.0268591 0)
(7.47663e-05 0.014305 0)
(-0.000460072 -0.016128 0)
(-0.0052605 -0.0128456 0)
(-0.0110548 -0.00375895 0)
(-0.017545 0.00590998 0)
(-0.0247771 0.0159313 0)
(-0.0327246 0.0262698 0)
(-0.0414856 0.0368395 0)
(-0.0511343 0.0475263 0)
(-0.0616844 0.0582316 0)
(-0.0731071 0.0688968 0)
(-0.085308 0.0794603 0)
(-0.098037 0.0896843 0)
(-0.110926 0.0992295 0)
(-0.123596 0.107718 0)
(-0.135704 0.114824 0)
(-0.14697 0.120301 0)
(-0.157205 0.124035 0)
(-0.16639 0.126119 0)
(-0.174578 0.126731 0)
(-0.181832 0.126061 0)
(-0.188218 0.124296 0)
(-0.193784 0.121589 0)
(-0.198572 0.11808 0)
(-0.202624 0.113891 0)
(-0.205986 0.10914 0)
(-0.208714 0.103936 0)
(-0.210869 0.0983795 0)
(-0.212519 0.0925633 0)
(-0.213733 0.086567 0)
(-0.214575 0.0804584 0)
(-0.215106 0.0742915 0)
(-0.215382 0.0681081 0)
(-0.215449 0.0619389 0)
(-0.215348 0.0558059 0)
(-0.215111 0.0497215 0)
(-0.214762 0.0436912 0)
(-0.21432 0.0377145 0)
(-0.213798 0.0317834 0)
(-0.213207 0.0258875 0)
(-0.212554 0.0200133 0)
(-0.211848 0.0141449 0)
(-0.211096 0.00826383 0)
(-0.210303 0.00235031 0)
(-0.209477 -0.00361742 0)
(-0.208628 -0.00966279 0)
(-0.207767 -0.0158119 0)
(-0.206906 -0.0220917 0)
(-0.206062 -0.0285315 0)
(-0.205254 -0.0351619 0)
(-0.204502 -0.0420158 0)
(-0.203832 -0.0491277 0)
(-0.203266 -0.056533 0)
(-0.202829 -0.0642672 0)
(-0.202542 -0.0723641 0)
(-0.202421 -0.0808546 0)
(-0.20247 -0.0897618 0)
(-0.202677 -0.0990954 0)
(-0.203006 -0.108846 0)
(-0.203381 -0.118974 0)
(-0.203668 -0.12939 0)
(-0.203654 -0.139921 0)
(-0.203029 -0.150234 0)
(-0.201383 -0.159756 0)
(-0.198168 -0.167849 0)
(-0.192864 -0.174338 0)
(-0.184702 -0.177621 0)
(-0.17224 -0.17561 0)
(-0.156117 -0.168508 0)
(-0.136807 -0.155986 0)
(-0.115342 -0.13837 0)
(-0.0928862 -0.116375 0)
(-0.070953 -0.0913834 0)
(-0.0511807 -0.065496 0)
(-0.0345222 -0.0404083 0)
(-0.0213642 -0.0176015 0)
(-0.011806 0.00153315 0)
(-0.00548301 0.01592 0)
(-0.00190459 0.0242746 0)
(-7.89036e-05 0.0256731 0)
(0.000368699 0.0142315 0)
(-0.00104809 -0.0128565 0)
(-0.00708854 -0.0069182 0)
(-0.0138445 0.00304193 0)
(-0.02126 0.0133078 0)
(-0.0293852 0.0239716 0)
(-0.0381675 0.0350524 0)
(-0.0476971 0.0464419 0)
(-0.0580232 0.0579749 0)
(-0.0691322 0.0695052 0)
(-0.0809481 0.0809162 0)
(-0.093261 0.0919679 0)
(-0.105757 0.102352 0)
(-0.118093 0.11169 0)
(-0.129936 0.119647 0)
(-0.141008 0.12595 0)
(-0.15109 0.130431 0)
(-0.160115 0.133126 0)
(-0.168123 0.134207 0)
(-0.175173 0.133876 0)
(-0.18132 0.132323 0)
(-0.186616 0.129723 0)
(-0.191102 0.126223 0)
(-0.194823 0.121962 0)
(-0.197834 0.117073 0)
(-0.200201 0.111681 0)
(-0.201999 0.105903 0)
(-0.203304 0.0998465 0)
(-0.204196 0.0936029 0)
(-0.204747 0.087249 0)
(-0.205022 0.0808465 0)
(-0.205078 0.074442 0)
(-0.204964 0.0680692 0)
(-0.204717 0.0617503 0)
(-0.204367 0.0554985 0)
(-0.203937 0.0493191 0)
(-0.203441 0.0432107 0)
(-0.202891 0.0371673 0)
(-0.202293 0.031179 0)
(-0.201652 0.0252324 0)
(-0.200971 0.0193124 0)
(-0.200252 0.0134031 0)
(-0.1995 0.00748627 0)
(-0.198716 0.00154256 0)
(-0.197906 -0.0044484 0)
(-0.197077 -0.0105082 0)
(-0.196237 -0.01666 0)
(-0.195398 -0.0229282 0)
(-0.194577 -0.0293388 0)
(-0.193791 -0.0359195 0)
(-0.193062 -0.0427 0)
(-0.192417 -0.0497124 0)
(-0.191882 -0.0569906 0)
(-0.191489 -0.0645704 0)
(-0.191265 -0.0724889 0)
(-0.191239 -0.0807828 0)
(-0.191431 -0.0894863 0)
(-0.191851 -0.0986258 0)
(-0.19249 -0.108215 0)
(-0.193316 -0.118243 0)
(-0.194252 -0.128668 0)
(-0.19517 -0.139397 0)
(-0.195856 -0.150262 0)
(-0.195987 -0.160963 0)
(-0.195107 -0.170949 0)
(-0.192629 -0.179373 0)
(-0.187788 -0.185468 0)
(-0.17981 -0.188205 0)
(-0.167325 -0.185151 0)
(-0.150533 -0.175976 0)
(-0.130145 -0.160494 0)
(-0.107454 -0.139342 0)
(-0.083931 -0.113578 0)
(-0.0614619 -0.0851419 0)
(-0.0418123 -0.0566718 0)
(-0.025942 -0.0301559 0)
(-0.0140836 -0.00735116 0)
(-0.00605731 0.0103025 0)
(-0.00148312 0.021316 0)
(0.000592578 0.0246295 0)
(0.000576761 0.0146011 0)
(-0.00160613 -0.00848742 0)
(-0.00872921 6.6385e-05 0)
(-0.0163359 0.0107804 0)
(-0.0245737 0.0215651 0)
(-0.0334735 0.0328086 0)
(-0.0429584 0.0445648 0)
(-0.0531069 0.056685 0)
(-0.0639424 0.0689541 0)
(-0.0754125 0.0811581 0)
(-0.0873386 0.0930226 0)
(-0.0994737 0.104255 0)
(-0.111515 0.114496 0)
(-0.123133 0.123376 0)
(-0.134057 0.130602 0)
(-0.144047 0.135953 0)
(-0.152989 0.139396 0)
(-0.16089 0.141068 0)
(-0.167804 0.14118 0)
(-0.173785 0.139933 0)
(-0.178881 0.137513 0)
(-0.183137 0.134087 0)
(-0.186604 0.12981 0)
(-0.189344 0.12483 0)
(-0.191433 0.119292 0)
(-0.192955 0.11333 0)
(-0.193998 0.107066 0)
(-0.194648 0.100605 0)
(-0.194983 0.0940324 0)
(-0.195074 0.0874181 0)
(-0.194979 0.0808133 0)
(-0.194746 0.0742545 0)
(-0.194411 0.0677652 0)
(-0.194003 0.0613589 0)
(-0.193542 0.0550408 0)
(-0.193039 0.0488091 0)
(-0.192503 0.0426574 0)
(-0.191938 0.0365762 0)
(-0.191344 0.030553 0)
(-0.190722 0.0245734 0)
(-0.19007 0.018621 0)
(-0.189389 0.0126796 0)
(-0.188676 0.00673259 0)
(-0.187934 0.00076149 0)
(-0.187165 -0.0052522 0)
(-0.186372 -0.0113279 0)
(-0.185565 -0.0174859 0)
(-0.184753 -0.0237473 0)
(-0.18395 -0.0301345 0)
(-0.183173 -0.0366718 0)
(-0.182443 -0.0433849 0)
(-0.181787 -0.0503023 0)
(-0.181233 -0.057455 0)
(-0.180813 -0.0648768 0)
(-0.180562 -0.0726046 0)
(-0.180514 -0.0806777 0)
(-0.180703 -0.0891367 0)
(-0.181154 -0.0980204 0)
(-0.181881 -0.107362 0)
(-0.182877 -0.117179 0)
(-0.184107 -0.127469 0)
(-0.185491 -0.138185 0)
(-0.186892 -0.14922 0)