/*--------------------------------*- C++ -*----------------------------------*\
  =========                 |
  \\      /  F ield         | OpenFOAM: The Open Source CFD Toolbox
   \\    /   O peration     | Website:  https://openfoam.org
    \\  /    A nd           | Version:  13
     \\/     M anipulation  |
\*---------------------------------------------------------------------------*/
FoamFile
{
    format      ascii;
    class       volScalarField;
    location    "0.5";
    object      epsilon;
}
// * * * * * * * * * * * * * * * * * * * * * * * * * * * * * * * * * * * * * //

dimensions      [0 2 -3 0 0 0 0];

internalField   nonuniform List<scalar> 
6400
(
9.67757e-05
0.000454585
0.000914453
0.00135179
0.0017353
0.00206513
0.00234753
0.00258877
0.00279419
0.00296829
0.00311499
0.00323777
0.00333979
0.00342395
0.0034929
0.00354903
0.00359453
0.0036313
0.00366105
0.00368523
0.00370506
0.00372158
0.00373563
0.00374789
0.00375891
0.0037691
0.00377879
0.00378824
0.00379764
0.00380713
0.00381681
0.00382679
0.00383711
0.00384783
0.00385898
0.00387061
0.00388273
0.00389536
0.00390853
0.00392223
0.00393648
0.00395126
0.00396658
0.00398241
0.0039987
0.00401537
0.00403228
0.0040493
0.00406741
0.00408567
0.00410384
0.00412168
0.00413888
0.00415506
0.00416972
0.0041823
0.00419202
0.00419774
0.00419931
0.0041951
0.00418374
0.00416387
0.0041339
0.00409211
0.00403662
0.00396541
0.00387632
0.00376706
0.00363518
0.00347804
0.00329283
0.00307649
0.00282565
0.00253657
0.00220519
0.00182746
0.00140101
0.000931551
0.000455645
9.66223e-05
0.000455954
0.000424338
0.000625341
0.000840824
0.00103361
0.00119905
0.00133918
0.00145715
0.00155598
0.00163834
0.00170654
0.00176263
0.00180845
0.00184562
0.00187558
0.0018996
0.0019188
0.00193414
0.00194642
0.00195635
0.00196446
0.00197124
0.00197703
0.00198212
0.00198674
0.00199105
0.00199516
0.00199919
0.00200318
0.00200719
0.00201126
0.0020154
0.00201963
0.00202396
0.0020284
0.00203295
0.00203761
0.00204239
0.00204728
0.00205228
0.00205738
0.00206257
0.00206785
0.0020732
0.0020786
0.00208403
0.00208946
0.00209493
0.00210074
0.00210654
0.00211222
0.00211769
0.00212282
0.0021275
0.00213154
0.00213475
0.00213662
0.00213704
0.00213577
0.00213218
0.00212573
0.00211583
0.00210182
0.00208293
0.00205832
0.00202706
0.00198813
0.00194041
0.00188265
0.00181349
0.00173142
0.0016347
0.00152143
0.00138941
0.00123596
0.00105837
0.000854891
0.000630599
0.000423912
0.000453021
0.000927563
0.000630075
0.000729715
0.000875069
0.00101359
0.00113514
0.00123898
0.00132645
0.00139942
0.0014598
0.00150936
0.00154972
0.00158233
0.0016085
0.00162936
0.00164588
0.00165893
0.00166921
0.00167734
0.00168381
0.00168901
0.00169329
0.00169689
0.0017
0.00170278
0.00170534
0.00170776
0.00171011
0.00171243
0.00171474
0.00171707
0.00171944
0.00172186
0.00172432
0.00172685
0.00172943
0.00173208
0.00173478
0.00173755
0.00174038
0.00174327
0.00174621
0.00174921
0.00175225
0.00175534
0.00175847
0.00176163
0.00176485
0.00176817
0.00177148
0.00177472
0.00177784
0.00178076
0.0017834
0.00178565
0.00178736
0.00178815
0.00178809
0.00178686
0.0017841
0.00177945
0.00177249
0.00176274
0.00174967
0.00173268
0.00171108
0.0016841
0.0016509
0.00161054
0.00156198
0.00150404
0.00143538
0.00135446
0.00125954
0.00114917
0.00102217
0.000879403
0.000729765
0.000624243
0.000908693
0.00138955
0.000852631
0.000878589
0.000979642
0.00108628
0.00118409
0.00126946
0.00134223
0.00140324
0.00145368
0.00149499
0.00152856
0.00155561
0.00157724
0.0015944
0.00160794
0.00161857
0.00162688
0.0016334
0.00163852
0.00164259
0.00164587
0.00164858
0.00165087
0.00165287
0.00165467
0.00165635
0.00165795
0.00165951
0.00166107
0.00166263
0.00166421
0.00166582
0.00166747
0.00166917
0.00167091
0.00167271
0.00167455
0.00167645
0.00167841
0.00168042
0.00168249
0.00168462
0.00168681
0.00168906
0.00169136
0.00169372
0.00169616
0.00169866
0.00170117
0.00170365
0.00170605
0.00170831
0.00171037
0.00171214
0.00171347
0.00171408
0.00171403
0.00171301
0.00171079
0.00170704
0.00170144
0.00169358
0.00168301
0.0016692
0.00165159
0.00162955
0.00160235
0.00156921
0.00152925
0.00148152
0.00142497
0.00135853
0.00128117
0.00119202
0.00109111
0.000981189
0.00087587
0.000838839
0.00133884
0.0018068
0.00105423
0.00102066
0.00108905
0.00117311
0.00125403
0.00132642
0.0013889
0.00144176
0.00148586
0.0015222
0.00155181
0.00157571
0.00159483
0.00161002
0.001622
0.00163139
0.00163873
0.00164445
0.00164892
0.00165243
0.00165522
0.00165749
0.00165936
0.00166096
0.00166237
0.00166365
0.00166485
0.00166601
0.00166715
0.00166829
0.00166944
0.00167062
0.00167183
0.00167308
0.00167438
0.00167572
0.00167711
0.00167856
0.00168007
0.00168164
0.00168327
0.00168497
0.00168673
0.00168856
0.00169047
0.00169244
0.00169449
0.00169659
0.00169872
0.00170084
0.00170291
0.00170487
0.00170667
0.00170822
0.00170941
0.00170997
0.00170993
0.00170907
0.00170714
0.00170389
0.00169902
0.00169217
0.00168295
0.00167092
0.00165558
0.00163638
0.00161269
0.00158383
0.00154907
0.00150762
0.00145868
0.00140144
0.00133529
0.00125999
0.00117646
0.00108887
0.00101519
0.00103032
0.00171333
0.0021752
0.00122988
0.00114683
0.00118951
0.0012562
0.00132427
0.00138685
0.00144182
0.00148884
0.00152837
0.00156112
0.00158793
0.00160966
0.0016271
0.00164098
0.00165194
0.00166054
0.00166726
0.00167249
0.00167656
0.00167974
0.00168224
0.00168424
0.00168586
0.00168721
0.00168837
0.0016894
0.00169034
0.00169124
0.00169211
0.00169298
0.00169386
0.00169476
0.00169569
0.00169666
0.00169768
0.00169874
0.00169986
0.00170104
0.00170228
0.0017036
0.00170498
0.00170645
0.00170799
0.00170961
0.00171131
0.00171309
0.00171493
0.00171683
0.00171876
0.00172069
0.00172259
0.0017244
0.00172608
0.00172753
0.00172866
0.00172921
0.00172921
0.00172845
0.00172673
0.00172381
0.00171941
0.00171321
0.00170487
0.00169399
0.00168012
0.00166277
0.00164139
0.0016154
0.00158418
0.00154706
0.00150343
0.00145273
0.00139465
0.00132941
0.0012586
0.00118761
0.00113684
0.00119391
0.00203313
0.00249804
0.00138138
0.00125629
0.00127814
0.00133109
0.00138906
0.00144396
0.00149302
0.00153549
0.00157149
0.00160151
0.00162624
0.00164638
0.00166262
0.00167559
0.00168588
0.00169397
0.00170031
0.00170525
0.00170909
0.00171207
0.00171441
0.00171624
0.00171771
0.00171891
0.00171991
0.00172078
0.00172155
0.00172227
0.00172297
0.00172365
0.00172434
0.00172505
0.00172579
0.00172657
0.00172739
0.00172826
0.00172919
0.00173018
0.00173124
0.00173238
0.0017336
0.00173489
0.00173628
0.00173775
0.00173931
0.00174095
0.00174266
0.00174443
0.00174625
0.00174808
0.00174988
0.00175162
0.00175322
0.00175462
0.00175571
0.00175628
0.0017563
0.00175562
0.00175403
0.00175132
0.00174723
0.00174147
0.00173372
0.00172362
0.00171075
0.00169469
0.00167495
0.00165101
0.00162233
0.00158839
0.00154869
0.00150285
0.00145081
0.00139311
0.00133186
0.00127344
0.00124017
0.00133157
0.00230477
0.0027799
0.00151159
0.00135028
0.00135494
0.00139681
0.00144672
0.0014955
0.00153986
0.0015787
0.00161191
0.0016398
0.00166291
0.00168183
0.00169716
0.00170947
0.00171926
0.00172701
0.00173309
0.00173783
0.00174152
0.00174439
0.00174662
0.00174835
0.00174972
0.00175082
0.00175172
0.00175247
0.00175313
0.00175373
0.0017543
0.00175485
0.0017554
0.00175597
0.00175657
0.00175721
0.00175789
0.00175862
0.00175942
0.00176028
0.00176121
0.00176222
0.00176331
0.0017645
0.00176577
0.00176714
0.0017686
0.00177015
0.00177178
0.00177348
0.00177522
0.00177698
0.00177873
0.00178041
0.00178197
0.00178333
0.0017844
0.00178496
0.001785
0.00178436
0.00178286
0.00178028
0.00177639
0.00177092
0.00176357
0.001754
0.00174184
0.0017267
0.00170814
0.00168569
0.00165891
0.00162733
0.00159057
0.00154839
0.00150089
0.00144887
0.0013948
0.00134619
0.00132658
0.00144649
0.00253447
0.00302515
0.00162326
0.00143042
0.00142081
0.00145361
0.00149702
0.0015409
0.00158149
0.00161743
0.00164841
0.0016746
0.00169643
0.0017144
0.00172903
0.00174083
0.00175026
0.00175775
0.00176365
0.00176827
0.00177186
0.00177465
0.00177682
0.00177849
0.0017798
0.00178083
0.00178165
0.00178233
0.00178291
0.00178341
0.00178389
0.00178434
0.00178479
0.00178526
0.00178576
0.00178629
0.00178686
0.00178749
0.00178818
0.00178894
0.00178978
0.0017907
0.00179171
0.00179281
0.00179401
0.0017953
0.0017967
0.00179818
0.00179976
0.0018014
0.00180309
0.00180481
0.00180652
0.00180816
0.00180969
0.00181103
0.00181208
0.00181263
0.00181266
0.00181204
0.00181058
0.00180808
0.00180431
0.00179903
0.00179194
0.00178273
0.00177107
0.00175658
0.00173886
0.00171751
0.00169211
0.00166228
0.00162771
0.00158827
0.00154416
0.00149637
0.00144768
0.00140676
0.001398
0.0015417
0.00272749
0.00323777
0.00171874
0.00149847
0.00147688
0.00150221
0.00154035
0.00158028
0.00161785
0.00165146
0.00168065
0.0017055
0.00172631
0.00174352
0.00175761
0.00176902
0.00177818
0.00178548
0.00179125
0.00179578
0.00179931
0.00180206
0.00180418
0.00180582
0.00180709
0.00180807
0.00180885
0.00180947
0.00180999
0.00181044
0.00181084
0.00181122
0.0018116
0.00181199
0.0018124
0.00181285
0.00181335
0.0018139
0.00181452
0.00181521
0.00181597
0.00181682
0.00181777
0.00181881
0.00181995
0.00182119
0.00182254
0.00182399
0.00182552
0.00182713
0.00182879
0.00183048
0.00183216
0.00183378
0.00183529
0.00183661
0.00183764
0.00183817
0.0018382
0.00183757
0.00183613
0.00183366
0.00182996
0.00182478
0.00181786
0.00180889
0.00179756
0.00178351
0.00176639
0.00174581
0.0017214
0.00169284
0.00165986
0.00162241
0.00158079
0.00153614
0.00149147
0.00145643
0.00145638
0.00161991
0.00288826
0.00342131
0.00180008
0.00155605
0.00152431
0.00154345
0.0015773
0.00161406
0.0016492
0.00168096
0.00170873
0.0017325
0.0017525
0.00176913
0.00178278
0.00179389
0.00180285
0.00181001
0.00181569
0.00182016
0.00182366
0.00182638
0.00182849
0.00183011
0.00183135
0.00183231
0.00183306
0.00183364
0.00183412
0.00183452
0.00183487
0.0018352
0.00183552
0.00183586
0.00183621
0.00183661
0.00183704
0.00183754
0.0018381
0.00183873
0.00183945
0.00184025
0.00184115
0.00184215
0.00184326
0.00184447
0.00184579
0.00184721
0.00184872
0.00185031
0.00185196
0.00185364
0.0018553
0.00185691
0.0018584
0.00185971
0.00186073
0.00186125
0.00186126
0.00186062
0.00185917
0.00185672
0.00185304
0.00184792
0.00184108
0.00183225
0.00182112
0.00180735
0.00179062
0.00177056
0.00174683
0.00171914
0.00168727
0.00165122
0.00161138
0.00156899
0.00152735
0.00149654
0.00150361
0.00168351
0.00302064
0.003579
0.00186907
0.00160454
0.00156422
0.00157823
0.00160858
0.00164278
0.00167599
0.00170627
0.00173292
0.00175583
0.00177521
0.00179137
0.00180469
0.00181557
0.00182437
0.00183144
0.00183706
0.0018415
0.00184498
0.00184769
0.00184978
0.0018514
0.00185263
0.00185358
0.00185431
0.00185488
0.00185533
0.0018557
0.00185602
0.00185631
0.00185659
0.00185689
0.0018572
0.00185755
0.00185795
0.00185841
0.00185893
0.00185953
0.00186021
0.00186099
0.00186186
0.00186284
0.00186393
0.00186513
0.00186644
0.00186785
0.00186936
0.00187095
0.0018726
0.00187428
0.00187595
0.00187756
0.00187906
0.00188036
0.00188138
0.00188189
0.00188189
0.00188124
0.00187978
0.00187731
0.00187363
0.00186852
0.00186171
0.00185294
0.00184191
0.0018283
0.00181179
0.00179204
0.00176873
0.00174159
0.00171044
0.00167532
0.00163667
0.00159586
0.00155638
0.00152869
0.00154136
0.00173459
0.00312811
0.00371375
0.00192733
0.0016452
0.00159762
0.00160738
0.00163488
0.00166703
0.0016987
0.00172782
0.00175358
0.00177583
0.00179471
0.00181052
0.00182359
0.0018343
0.00184299
0.00184998
0.00185556
0.00185999
0.00186346
0.00186617
0.00186828
0.0018699
0.00187113
0.00187208
0.0018728
0.00187336
0.0018738
0.00187415
0.00187445
0.00187472
0.00187498
0.00187525
0.00187555
0.00187587
0.00187625
0.00187668
0.00187719
0.00187777
0.00187844
0.0018792
0.00188007
0.00188105
0.00188214
0.00188334
0.00188466
0.00188609
0.00188762
0.00188923
0.0018909
0.00189261
0.0018943
0.00189593
0.00189745
0.00189877
0.0018998
0.00190032
0.00190032
0.00189967
0.00189819
0.00189571
0.00189201
0.00188688
0.00188006
0.00187129
0.00186028
0.00184672
0.00183029
0.00181067
0.00178757
0.00176072
0.00172997
0.00169538
0.00165746
0.00161766
0.00157965
0.00155421
0.00157117
0.00177504
0.00321384
0.00382825
0.00197629
0.00167912
0.00162543
0.00163168
0.00165687
0.00168737
0.00171784
0.00174604
0.00177111
0.00179285
0.00181136
0.00182689
0.00183978
0.00185036
0.00185897
0.00186592
0.00187149
0.00187591
0.00187939
0.00188211
0.00188423
0.00188586
0.00188711
0.00188807
0.0018888
0.00188935
0.00188979
0.00189014
0.00189043
0.0018907
0.00189095
0.00189121
0.00189149
0.00189181
0.00189218
0.00189261
0.00189312
0.0018937
0.00189437
0.00189515
0.00189603
0.00189702
0.00189814
0.00189937
0.00190072
0.00190219
0.00190376
0.00190542
0.00190714
0.00190889
0.00191063
0.00191232
0.00191388
0.00191525
0.00191631
0.00191686
0.00191688
0.00191624
0.00191476
0.00191226
0.00190854
0.00190338
0.00189652
0.0018877
0.00187664
0.00186303
0.00184658
0.00182695
0.00180387
0.00177709
0.00174647
0.00171211
0.00167454
0.00163528
0.00159817
0.00157427
0.00159441
0.00180655
0.00328077
0.00392497
0.00201721
0.00170729
0.00164848
0.00165183
0.00167516
0.00170436
0.00173387
0.00176136
0.00178591
0.00180726
0.00182549
0.00184082
0.00185357
0.00186407
0.00187263
0.00187956
0.00188512
0.00188955
0.00189305
0.00189579
0.00189793
0.00189958
0.00190085
0.00190182
0.00190256
0.00190313
0.00190358
0.00190393
0.00190423
0.0019045
0.00190476
0.00190503
0.00190532
0.00190565
0.00190603
0.00190647
0.00190699
0.0019076
0.0019083
0.0019091
0.00191002
0.00191105
0.00191222
0.0019135
0.00191492
0.00191645
0.00191809
0.00191982
0.00192162
0.00192346
0.00192528
0.00192705
0.00192869
0.00193013
0.00193126
0.00193188
0.00193195
0.00193134
0.00192988
0.00192739
0.00192365
0.00191844
0.00191151
0.00190261
0.00189145
0.00187773
0.00186114
0.00184139
0.00181818
0.00179128
0.00176057
0.00172615
0.00168862
0.00164954
0.00161287
0.0015899
0.00161227
0.00183063
0.00333163
0.00400619
0.00205125
0.00173057
0.00166748
0.00166848
0.00169031
0.00171847
0.00174724
0.0017742
0.00179835
0.00181941
0.00183743
0.00185262
0.00186528
0.00187573
0.00188426
0.00189118
0.00189675
0.0019012
0.00190472
0.00190749
0.00190965
0.00191133
0.00191263
0.00191362
0.00191438
0.00191498
0.00191544
0.00191582
0.00191613
0.00191642
0.0019167
0.00191699
0.0019173
0.00191765
0.00191806
0.00191854
0.00191909
0.00191974
0.00192049
0.00192135
0.00192232
0.00192343
0.00192466
0.00192603
0.00192754
0.00192917
0.00193091
0.00193276
0.00193467
0.00193663
0.00193858
0.00194047
0.00194224
0.0019438
0.00194504
0.00194577
0.00194593
0.00194539
0.00194398
0.00194151
0.00193776
0.00193251
0.00192551
0.0019165
0.00190519
0.00189129
0.00187449
0.00185449
0.00183101
0.00180383
0.00177283
0.00173814
0.00170037
0.00166116
0.00162453
0.001602
0.0016258
0.0018486
0.0033689
0.004074
0.00207946
0.00174973
0.00168308
0.00168217
0.0017028
0.00173016
0.00175836
0.00178491
0.00180877
0.00182962
0.0018475
0.00186259
0.0018752
0.00188561
0.00189414
0.00190107
0.00190665
0.00191112
0.00191467
0.00191747
0.00191967
0.00192138
0.00192271
0.00192373
0.00192453
0.00192515
0.00192564
0.00192604
0.00192639
0.00192671
0.00192702
0.00192734
0.00192769
0.00192809
0.00192855
0.00192907
0.00192969
0.0019304
0.00193121
0.00193215
0.00193322
0.00193442
0.00193576
0.00193724
0.00193887
0.00194064
0.00194253
0.00194453
0.00194661
0.00194874
0.00195087
0.00195294
0.00195488
0.00195661
0.00195802
0.00195893
0.00195922
0.0019588
0.00195749
0.00195507
0.00195134
0.00194607
0.00193899
0.00192985
0.00191836
0.00190422
0.00188712
0.00186678
0.0018429
0.00181528
0.00178381
0.00174865
0.00171041
0.00167077
0.00163385
0.00161135
0.0016359
0.00186163
0.00339485
0.00413032
0.00210273
0.00176546
0.00169584
0.0016934
0.00171308
0.00173981
0.00176758
0.00179383
0.00181748
0.00183818
0.00185596
0.001871
0.00188357
0.00189398
0.00190251
0.00190946
0.00191507
0.00191957
0.00192316
0.00192599
0.00192823
0.00192997
0.00193134
0.0019324
0.00193323
0.00193389
0.00193442
0.00193486
0.00193525
0.00193561
0.00193597
0.00193634
0.00193674
0.0019372
0.00193772
0.00193832
0.00193901
0.00193981
0.00194072
0.00194177
0.00194295
0.00194428
0.00194576
0.0019474
0.0019492
0.00195114
0.00195323
0.00195544
0.00195774
0.00196009
0.00196246
0.00196477
0.00196697
0.00196894
0.00197059
0.00197176
0.00197225
0.00197202
0.00197085
0.00196854
0.00196487
0.00195959
0.00195245
0.00194318
0.00193147
0.00191703
0.00189956
0.00187876
0.00185436
0.00182615
0.00179404
0.0017582
0.00171927
0.00167896
0.00164146
0.00161861
0.00164332
0.00187066
0.0034114
0.00417691
0.00212191
0.00177835
0.00170628
0.00170259
0.00172152
0.00174776
0.00177521
0.00180124
0.00182474
0.00184536
0.00186308
0.00187808
0.00189065
0.00190106
0.00190962
0.00191659
0.00192223
0.00192677
0.00193039
0.00193327
0.00193554
0.00193733
0.00193873
0.00193984
0.00194071
0.00194141
0.00194199
0.00194248
0.00194292
0.00194334
0.00194375
0.00194419
0.00194467
0.0019452
0.0019458
0.0019465
0.00194729
0.0019482
0.00194924
0.00195042
0.00195175
0.00195325
0.00195491
0.00195675
0.00195876
0.00196094
0.00196327
0.00196575
0.00196834
0.00197099
0.00197368
0.00197632
0.00197885
0.00198116
0.00198314
0.00198466
0.00198545
0.00198548
0.00198455
0.00198242
0.00197886
0.00197363
0.00196644
0.00195702
0.00194506
0.00193027
0.00191234
0.00189097
0.00186591
0.00183695
0.00180402
0.0017673
0.00172746
0.00168624
0.00164788
0.00162436
0.00164871
0.00187652
0.00341975
0.00421531
0.00213769
0.0017889
0.00171481
0.00171011
0.00172844
0.00175432
0.00178153
0.0018074
0.00183081
0.00185136
0.00186906
0.00188406
0.00189663
0.00190706
0.00191564
0.00192265
0.00192833
0.0019329
0.00193657
0.00193949
0.0019418
0.00194364
0.00194509
0.00194624
0.00194716
0.00194792
0.00194855
0.0019491
0.0019496
0.00195008
0.00195057
0.00195109
0.00195165
0.00195228
0.00195299
0.00195379
0.00195471
0.00195576
0.00195696
0.00195831
0.00195983
0.00196153
0.00196342
0.0019655
0.00196778
0.00197026
0.00197291
0.00197573
0.00197868
0.00198174
0.00198483
0.0019879
0.00199087
0.00199364
0.00199607
0.00199804
0.00199929
0.00199969
0.0019991
0.00199725
0.00199389
0.00198875
0.00198155
0.001972
0.00195977
0.00194456
0.00192608
0.00190402
0.00187813
0.00184823
0.00181427
0.00177644
0.00173545
0.00169308
0.00165359
0.00162911
0.00165269
0.00188012
0.00342229
0.00424694
0.00215073
0.00179757
0.0017218
0.00171628
0.00173414
0.00175973
0.00178677
0.00181254
0.00183588
0.00185641
0.00187409
0.0018891
0.00190169
0.00191215
0.00192077
0.00192781
0.00193353
0.00193815
0.00194186
0.00194482
0.00194719
0.00194907
0.00195057
0.00195177
0.00195275
0.00195356
0.00195426
0.00195487
0.00195545
0.00195601
0.00195658
0.00195719
0.00195786
0.0019586
0.00195944
0.00196038
0.00196146
0.00196267
0.00196405
0.00196561
0.00196736
0.00196931
0.00197148
0.00197387
0.00197648
0.00197932
0.00198238
0.00198563
0.00198905
0.0019926
0.00199623
0.00199986
0.00200342
0.00200678
0.00200982
0.00201239
0.00201428
0.0020152
0.0020151
0.00201366
0.00201062
0.00200567
0.00199852
0.00198885
0.00197633
0.00196064
0.00194148
0.00191857
0.00189166
0.0018606
0.00182535
0.00178615
0.00174374
0.00169992
0.00165902
0.00163329
0.00165574
0.00188207
0.00342086
0.00427301
0.00216156
0.00180474
0.00172756
0.00172137
0.00173885
0.00176422
0.00179113
0.00181683
0.00184014
0.00186066
0.00187835
0.00189338
0.001906
0.00191649
0.00192515
0.00193223
0.00193799
0.00194265
0.00194641
0.00194942
0.00195183
0.00195377
0.00195532
0.00195658
0.00195762
0.0019585
0.00195926
0.00195995
0.00196061
0.00196126
0.00196193
0.00196265
0.00196344
0.00196431
0.0019653
0.00196641
0.00196766
0.00196908
0.00197068
0.00197248
0.0019745
0.00197676
0.00197926
0.00198202
0.00198505
0.00198834
0.00199189
0.00199568
0.00199969
0.00200388
0.00200819
0.00201255
0.00201687
0.00202102
0.00202487
0.00202826
0.00203097
0.0020327
0.00203325
0.00203243
0.00202987
0.00202526
0.00201825
0.00200849
0.00199566
0.00197941
0.00195944
0.00193548
0.0019073
0.00187477
0.00183792
0.001797
0.00175282
0.00170722
0.00166458
0.0016373
0.00165826
0.00188288
0.00341584
0.00429462
0.00217064
0.00181073
0.00173236
0.0017256
0.00174277
0.00176796
0.00179478
0.00182043
0.00184373
0.00186425
0.00188196
0.00189702
0.00190968
0.00192021
0.0019289
0.00193603
0.00194184
0.00194654
0.00195034
0.0019534
0.00195587
0.00195785
0.00195946
0.00196079
0.00196189
0.00196284
0.00196368
0.00196445
0.0019652
0.00196596
0.00196674
0.00196759
0.00196851
0.00196954
0.00197069
0.00197199
0.00197345
0.00197511
0.00197697
0.00197906
0.00198141
0.00198402
0.00198693
0.00199014
0.00199366
0.00199751
0.00200167
0.00200613
0.00201088
0.00201587
0.00202105
0.00202635
0.00203166
0.00203686
0.00204179
0.00204628
0.00205008
0.00205295
0.00205446
0.00205452
0.00205269
0.00204861
0.00204189
0.00203214
0.00201899
0.00200209
0.00198113
0.00195584
0.00192605
0.00189167
0.00185276
0.00180968
0.00176328
0.00171548
0.0016707
0.00164151
0.00166063
0.00188303
0.00340853
0.00431266
0.00217837
0.0018158
0.0017364
0.00172915
0.00174606
0.00177112
0.00179786
0.00182348
0.00184678
0.00186732
0.00188506
0.00190015
0.00191284
0.00192341
0.00193215
0.00193932
0.00194517
0.00194992
0.00195377
0.00195688
0.0019594
0.00196144
0.00196311
0.00196449
0.00196567
0.00196669
0.00196761
0.00196848
0.00196933
0.0019702
0.00197111
0.0019721
0.00197318
0.00197438
0.00197572
0.00197724
0.00197894
0.00198087
0.00198303
0.00198546
0.00198819
0.00199124
0.00199462
0.00199837
0.00200249
0.00200701
0.00201192
0.00201722
0.00202289
0.0020289
0.00203519
0.00204169
0.00204829
0.00205487
0.00206125
0.00206723
0.00207255
0.00207691
0.00207992
0.00208119
0.00208046
0.00207723
0.00207104
0.00206143
0.00204799
0.00203033
0.00200814
0.00198118
0.00194931
0.00191252
0.00187097
0.0018251
0.00177586
0.00172528
0.00167786
0.00164632
0.00166321
0.00188291
0.00340006
0.00432792
0.00218508
0.00182019
0.00173987
0.00173219
0.00174887
0.00177381
0.00180049
0.0018261
0.0018494
0.00186996
0.00188773
0.00190285
0.00191558
0.00192619
0.00193497
0.00194218
0.00194808
0.00195288
0.00195678
0.00195994
0.00196251
0.0019646
0.00196634
0.00196779
0.00196904
0.00197014
0.00197116
0.00197212
0.00197309
0.00197408
0.00197513
0.00197627
0.00197752
0.00197891
0.00198048
0.00198224
0.00198422
0.00198645
0.00198897
0.00199179
0.00199496
0.00199851
0.00200246
0.00200685
0.0020117
0.00201703
0.00202286
0.00202919
0.00203601
0.0020433
0.00205101
0.00205906
0.00206736
0.00207577
0.00208409
0.00209209
0.0020995
0.00210595
0.00211106
0.00211421
0.00211508
0.0021132
0.00210792
0.0020987
0.00208505
0.00206654
0.00204282
0.00201369
0.00197908
0.0019391
0.00189403
0.00184448
0.00179155
0.00173739
0.00168662
0.0016522
0.0016664
0.001883
0.00339152
0.00434106
0.00219102
0.00182407
0.00174292
0.00173484
0.00175131
0.00177614
0.00180278
0.00182837
0.00185168
0.00187226
0.00189005
0.00190522
0.00191798
0.00192863
0.00193745
0.00194471
0.00195065
0.00195549
0.00195944
0.00196265
0.00196527
0.00196743
0.00196922
0.00197075
0.00197207
0.00197326
0.00197437
0.00197545
0.00197653
0.00197766
0.00197886
0.00198016
0.00198161
0.00198322
0.00198503
0.00198706
0.00198935
0.00199194
0.00199485
0.00199813
0.00200182
0.00200596
0.00201058
0.00201573
0.00202145
0.00202777
0.00203472
0.00204232
0.00205058
0.00205948
0.002069
0.00207907
0.0020896
0.00210042
0.00211136
0.00212215
0.00213245
0.00214186
0.0021499
0.00215598
0.00215924
0.00215945
0.00215572
0.00214735
0.00213369
0.00211424
0.00208861
0.00205663
0.00201835
0.00197403
0.00192419
0.00186966
0.00181177
0.00175288
0.0016978
0.00165972
0.00167068
0.00188378
0.00338421
0.0043526
0.00219643
0.00182759
0.00174566
0.00173721
0.00175347
0.0017782
0.00180479
0.00183037
0.00185368
0.00187428
0.00189211
0.00190731
0.00192011
0.0019308
0.00193966
0.00194695
0.00195294
0.00195783
0.00196182
0.00196508
0.00196775
0.00196997
0.00197183
0.00197343
0.00197483
0.00197611
0.00197732
0.00197851
0.00197972
0.00198099
0.00198236
0.00198385
0.0019855
0.00198735
0.00198943
0.00199177
0.00199441
0.00199739
0.00200076
0.00200457
0.00200885
0.00201367
0.00201908
0.00202513
0.00203189
0.0020394
0.00204772
0.0020569
0.00206695
0.00207791
0.00208975
0.00210244
0.00211589
0.00212996
0.00214445
0.00215906
0.00217343
0.00218707
0.00219936
0.00220961
0.0022169
0.00222023
0.00221912
0.00221239
0.00219917
0.00217878
0.00215078
0.00211503
0.00207172
0.00202138
0.00196486
0.00190339
0.00183865
0.00177334
0.00171251
0.00166969
0.00167664
0.00188585
0.00337985
0.00436298
0.00220147
0.00183087
0.00174818
0.00173936
0.00175543
0.00178005
0.0018066
0.00183216
0.00185548
0.0018761
0.00189395
0.00190918
0.00192202
0.00193274
0.00194164
0.00194897
0.001955
0.00195993
0.00196396
0.00196727
0.00197
0.00197228
0.0019742
0.00197587
0.00197736
0.00197874
0.00198005
0.00198136
0.00198271
0.00198413
0.00198567
0.00198737
0.00198925
0.00199136
0.00199373
0.00199641
0.00199944
0.00200287
0.00200676
0.00201115
0.00201612
0.00202173
0.00202806
0.00203519
0.00204318
0.00205214
0.00206214
0.00207326
0.00208556
0.00209912
0.00211394
0.00213004
0.00214737
0.00216579
0.00218513
0.00220506
0.00222517
0.00224488
0.00226344
0.00227994
0.0022933
0.00230201
0.00230503
0.00230137
0.00228948
0.0022684
0.00223752
0.00219671
0.0021464
0.00208751
0.00202144
0.00195002
0.00187554
0.00180121
0.00173247
0.00168326
0.00168513
0.00189
0.00338034
0.00437255
0.00220628
0.00183399
0.00175056
0.00174138
0.00175725
0.00178177
0.00180826
0.0018338
0.00185712
0.00187775
0.00189563
0.00191088
0.00192375
0.00193451
0.00194344
0.00195081
0.00195687
0.00196184
0.00196592
0.00196928
0.00197206
0.00197439
0.00197639
0.00197813
0.0019797
0.00198117
0.0019826
0.00198403
0.00198552
0.00198711
0.00198884
0.00199075
0.00199287
0.00199526
0.00199796
0.00200101
0.00200448
0.00200841
0.00201287
0.00201794
0.0020237
0.00203023
0.00203764
0.00204602
0.0020555
0.0020662
0.00207825
0.00209177
0.0021069
0.00212375
0.00214243
0.002163
0.00218546
0.00220976
0.00223575
0.00226311
0.00229137
0.00231988
0.0023477
0.00237366
0.0023963
0.00241393
0.00242398
0.00242569
0.00241688
0.00239583
0.00236161
0.00231405
0.00225386
0.00218259
0.00210253
0.0020165
0.00192778
0.0018404
0.00176042
0.00170213
0.00169736
0.00189724
0.00338823
0.00438158
0.00221097
0.00183704
0.00175287
0.00174331
0.00175897
0.00178337
0.0018098
0.00183532
0.00185864
0.00187928
0.00189718
0.00191245
0.00192535
0.00193613
0.00194509
0.0019525
0.00195859
0.0019636
0.00196772
0.00197112
0.00197396
0.00197635
0.0019784
0.00198022
0.00198188
0.00198345
0.00198499
0.00198655
0.00198819
0.00198995
0.00199188
0.00199401
0.0019964
0.0019991
0.00200215
0.00200561
0.00200955
0.00201404
0.00201916
0.00202499
0.00203165
0.00203924
0.0020479
0.00205777
0.00206902
0.00208182
0.00209637
0.00211287
0.00213154
0.0021526
0.00217624
0.00220266
0.00223197
0.00226422
0.00229935
0.00233711
0.00237702
0.00241834
0.00245995
0.00250032
0.00253749
0.00256904
0.00259197
0.00260271
0.00260019
0.00258092
0.00254319
0.00248664
0.00241237
0.0023229
0.00222194
0.00211398
0.00200391
0.00189713
0.00180069
0.0017291
0.00171521
0.00190922
0.00340754
0.00439029
0.00221562
0.00184005
0.00175514
0.0017452
0.00176064
0.00178492
0.00181128
0.00183677
0.00186008
0.00188072
0.00189863
0.00191392
0.00192684
0.00193765
0.00194663
0.00195407
0.00196019
0.00196523
0.00196939
0.00197284
0.00197572
0.00197816
0.00198029
0.00198218
0.00198392
0.00198559
0.00198724
0.00198894
0.00199073
0.00199267
0.00199481
0.00199718
0.00199986
0.00200288
0.00200631
0.00201022
0.00201469
0.00201979
0.00202563
0.00203233
0.00204001
0.00204882
0.00205894
0.00207056
0.00208391
0.00209925
0.00211685
0.00213704
0.00216016
0.00218656
0.00221663
0.00225071
0.00228915
0.00233217
0.00237989
0.00243223
0.00248881
0.00254883
0.00261101
0.00267339
0.00273334
0.00278742
0.0028315
0.00285963
0.00286839
0.00285461
0.00281398
0.0027456
0.00265102
0.00253433
0.00240162
0.00226014
0.0021175
0.00198128
0.00186007
0.00176877
0.00174161
0.00192909
0.0034476
0.00439886
0.0022203
0.00184309
0.00175741
0.00174707
0.00176228
0.00178643
0.00181271
0.00183816
0.00186145
0.00188209
0.0019
0.00191531
0.00192824
0.00193907
0.00194808
0.00195554
0.00196169
0.00196676
0.00197096
0.00197444
0.00197737
0.00197986
0.00198205
0.00198401
0.00198584
0.00198761
0.00198938
0.00199121
0.00199316
0.00199529
0.00199764
0.00200027
0.00200324
0.00200661
0.00201045
0.00201485
0.00201988
0.00202567
0.00203232
0.00203998
0.00204882
0.00205903
0.00207085
0.00208452
0.00210038
0.00211876
0.0021401
0.00216484
0.00219353
0.00222673
0.00226507
0.00230921
0.00235977
0.00241735
0.00248242
0.0025552
0.00263559
0.00272292
0.00281582
0.00291191
0.00300764
0.00309818
0.00317723
0.00323723
0.00326681
0.00326544
0.00322417
0.00314036
0.00301609
0.00285793
0.00267606
0.00248255
0.00228953
0.00210812
0.00194917
0.00182825
0.00178117
0.00196031
0.00351494
0.00440741
0.00222506
0.00184619
0.0017597
0.00174895
0.00176392
0.00178792
0.00181412
0.00183952
0.00186279
0.00188342
0.00190133
0.00191665
0.00192959
0.00194043
0.00194946
0.00195693
0.00196311
0.00196821
0.00197243
0.00197595
0.00197891
0.00198146
0.0019837
0.00198574
0.00198765
0.00198951
0.0019914
0.00199337
0.00199548
0.0019978
0.00200037
0.00200327
0.00200655
0.00201029
0.00201457
0.00201949
0.00202515
0.00203168
0.00203923
0.00204797
0.00205813
0.00206994
0.00208371
0.00209979
0.00211861
0.00214066
0.00216652
0.00219689
0.00223253
0.00227434
0.00232332
0.00238056
0.0024472
0.00252441
0.00261325
0.00271462
0.00282897
0.00295611
0.00309483
0.00324249
0.00339452
0.00354408
0.0036818
0.00379579
0.00386784
0.00388941
0.00385337
0.00374976
0.00358112
0.00335828
0.0030987
0.00282306
0.00255128
0.00230013
0.00208357
0.00191805
0.0018407
0.00200712
0.00361701
0.00441605
0.00222994
0.00184936
0.00176206
0.00175087
0.00176558
0.00178942
0.00181553
0.00184087
0.0018641
0.00188472
0.00190263
0.00191794
0.00193089
0.00194174
0.00195078
0.00195827
0.00196446
0.00196957
0.00197382
0.00197737
0.00198037
0.00198296
0.00198526
0.00198736
0.00198935
0.00199131
0.00199331
0.00199542
0.00199769
0.0020002
0.00200301
0.00200618
0.00200979
0.00201392
0.00201867
0.00202414
0.00203047
0.00203781
0.00204635
0.0020563
0.00206794
0.00208157
0.0020976
0.00211649
0.00213881
0.00216523
0.00219659