/*--------------------------------*- C++ -*----------------------------------*\
  =========                 |
  \\      /  F ield         | OpenFOAM: The Open Source CFD Toolbox
   \\    /   O peration     | Website:  https://openfoam.org
    \\  /    A nd           | Version:  13
     \\/     M anipulation  |
\*---------------------------------------------------------------------------*/
FoamFile
{
    format      ascii;
    class       volScalarField;
    location    "0.5";
    object      nut;
}
// * * * * * * * * * * * * * * * * * * * * * * * * * * * * * * * * * * * * * //

dimensions      [0 2 -1 0 0 0 0];

internalField   nonuniform List<scalar> 
6400
(
3.29828e-09
1.54964e-08
3.11793e-08
4.61002e-08
5.91889e-08
7.04488e-08
8.00927e-08
8.83337e-08
9.53536e-08
1.01306e-07
1.06323e-07
1.10525e-07
1.14019e-07
1.16902e-07
1.19266e-07
1.21191e-07
1.22753e-07
1.24016e-07
1.25039e-07
1.2587e-07
1.26553e-07
1.27122e-07
1.27606e-07
1.28028e-07
1.28407e-07
1.28758e-07
1.29092e-07
1.29418e-07
1.29741e-07
1.30068e-07
1.30402e-07
1.30745e-07
1.311e-07
1.3147e-07
1.31854e-07
1.32255e-07
1.32672e-07
1.33108e-07
1.33561e-07
1.34034e-07
1.34525e-07
1.35035e-07
1.35564e-07
1.3611e-07
1.36672e-07
1.37247e-07
1.37831e-07
1.38418e-07
1.39043e-07
1.39673e-07
1.40299e-07
1.40914e-07
1.41507e-07
1.42064e-07
1.42568e-07
1.43e-07
1.43333e-07
1.43527e-07
1.43579e-07
1.43431e-07
1.43037e-07
1.4235e-07
1.41316e-07
1.39876e-07
1.37967e-07
1.35519e-07
1.32459e-07
1.2871e-07
1.24187e-07
1.18801e-07
1.12458e-07
1.05052e-07
9.64696e-08
8.65836e-08
7.52563e-08
6.23508e-08
4.77876e-08
3.17648e-08
1.55327e-08
3.29309e-09
1.55432e-08
1.02471e-06
2.6363e-06
3.91716e-06
4.89859e-06
5.67336e-06
6.3011e-06
6.81825e-06
7.24843e-06
7.60795e-06
7.90876e-06
8.16014e-06
8.36961e-06
8.54346e-06
8.68711e-06
8.80529e-06
8.90214e-06
8.98131e-06
9.04601e-06
9.09902e-06
9.14275e-06
9.17926e-06
9.21025e-06
9.23716e-06
9.26115e-06
9.28317e-06
9.30396e-06
9.32412e-06
9.34413e-06
9.36433e-06
9.38504e-06
9.40646e-06
9.4288e-06
9.45218e-06
9.47675e-06
9.50259e-06
9.5298e-06
9.55844e-06
9.58859e-06
9.62027e-06
9.65354e-06
9.68839e-06
9.72482e-06
9.76278e-06
9.80219e-06
9.84286e-06
9.8843e-06
9.92539e-06
9.96299e-06
9.99968e-06
1.00358e-05
1.0071e-05
1.01045e-05
1.01355e-05
1.01628e-05
1.01852e-05
1.02015e-05
1.02092e-05
1.02084e-05
1.01951e-05
1.01674e-05
1.01228e-05
1.00584e-05
9.97102e-06
9.85723e-06
9.7132e-06
9.5347e-06
9.31691e-06
9.05433e-06
8.74044e-06
8.36745e-06
7.92567e-06
7.40254e-06
6.78128e-06
6.03945e-06
5.14416e-06
4.04637e-06
2.67406e-06
1.02163e-06
1.5443e-08
3.16284e-08
2.6684e-06
7.56045e-06
1.14565e-05
1.43628e-05
1.66141e-05
1.84149e-05
1.98873e-05
2.11082e-05
2.21284e-05
2.29839e-05
2.37013e-05
2.43018e-05
2.48026e-05
2.52183e-05
2.55617e-05
2.5844e-05
2.60751e-05
2.62639e-05
2.64181e-05
2.65444e-05
2.66487e-05
2.6736e-05
2.68104e-05
2.68754e-05
2.69338e-05
2.69878e-05
2.70393e-05
2.70896e-05
2.714e-05
2.71912e-05
2.7244e-05
2.72989e-05
2.73563e-05
2.74166e-05
2.748e-05
2.75469e-05
2.76173e-05
2.76915e-05
2.77696e-05
2.78515e-05
2.79374e-05
2.80271e-05
2.81205e-05
2.82173e-05
2.83168e-05
2.84183e-05
2.85201e-05
2.86204e-05
2.87195e-05
2.88167e-05
2.89104e-05
2.89984e-05
2.90781e-05
2.91462e-05
2.91992e-05
2.92328e-05
2.92434e-05
2.92256e-05
2.9172e-05
2.90765e-05
2.89322e-05
2.87314e-05
2.84657e-05
2.81259e-05
2.77019e-05
2.71827e-05
2.65556e-05
2.58058e-05
2.49161e-05
2.38648e-05
2.2625e-05
2.11623e-05
1.94288e-05
1.73497e-05
1.48125e-05
1.16349e-05
7.54359e-06
2.61238e-06
3.09815e-08
4.73943e-08
4.02304e-06
1.16093e-05
1.78455e-05
2.25793e-05
2.62629e-05
2.92156e-05
3.16324e-05
3.36396e-05
3.53229e-05
3.67393e-05
3.79308e-05
3.89312e-05
3.97681e-05
4.04651e-05
4.10426e-05
4.15187e-05
4.19095e-05
4.22292e-05
4.24905e-05
4.27045e-05
4.28809e-05
4.30278e-05
4.31522e-05
4.32599e-05
4.33557e-05
4.34434e-05
4.35259e-05
4.36059e-05
4.36851e-05
4.3765e-05
4.38468e-05
4.39315e-05
4.40197e-05
4.41119e-05
4.42087e-05
4.43104e-05
4.44172e-05
4.45294e-05
4.46471e-05
4.47704e-05
4.48991e-05
4.50332e-05
4.51722e-05
4.53157e-05
4.54627e-05
4.5612e-05
4.57616e-05
4.59101e-05
4.60563e-05
4.61979e-05
4.63322e-05
4.64554e-05
4.65631e-05
4.66497e-05
4.67088e-05
4.67353e-05
4.67232e-05
4.66606e-05
4.65382e-05
4.63456e-05
4.60718e-05
4.57047e-05
4.52313e-05
4.46378e-05
4.39085e-05
4.30259e-05
4.19706e-05
4.072e-05
3.92472e-05
3.75189e-05
3.54928e-05
3.31121e-05
3.0298e-05
2.69385e-05
2.28621e-05
1.78007e-05
1.13726e-05
3.86169e-06
4.56554e-08
6.16401e-08
5.09918e-06
1.47333e-05
2.28441e-05
2.91225e-05
3.40715e-05
3.80689e-05
4.13604e-05
4.41039e-05
4.64056e-05
4.8344e-05
4.99779e-05
5.1353e-05
5.25063e-05
5.34693e-05
5.42691e-05
5.493e-05
5.54737e-05
5.59193e-05
5.6284e-05
5.65827e-05
5.68284e-05
5.70325e-05
5.72044e-05
5.73523e-05
5.74825e-05
5.76005e-05
5.77105e-05
5.78159e-05
5.79194e-05
5.8023e-05
5.81285e-05
5.8237e-05
5.83495e-05
5.84669e-05
5.85896e-05
5.87182e-05
5.8853e-05
5.89943e-05
5.91421e-05
5.92965e-05
5.94573e-05
5.96243e-05
5.9797e-05
5.99746e-05
6.0156e-05
6.03395e-05
6.05231e-05
6.07047e-05
6.08819e-05
6.10514e-05
6.12089e-05
6.13495e-05
6.14667e-05
6.15535e-05
6.15982e-05
6.16018e-05
6.15479e-05
6.14237e-05
6.1217e-05
6.0914e-05
6.05002e-05
5.99595e-05
5.92749e-05
5.84275e-05
5.73973e-05
5.61619e-05
5.46962e-05
5.2971e-05
5.09517e-05
4.85959e-05
4.58492e-05
4.26402e-05
3.88706e-05
3.44007e-05
2.90233e-05
2.24296e-05
1.41958e-05
4.80917e-06
5.8434e-08
7.42237e-08
5.97356e-06
1.72191e-05
2.68521e-05
3.44317e-05
4.04758e-05
4.53949e-05
4.94641e-05
5.28676e-05
5.57328e-05
5.81524e-05
6.01968e-05
6.19212e-05
6.33709e-05
6.45845e-05
6.55954e-05
6.6433e-05
6.71234e-05
6.76903e-05
6.81547e-05
6.85351e-05
6.88478e-05
6.91068e-05
6.93241e-05
6.95096e-05
6.96717e-05
6.98171e-05
6.99513e-05
7.00786e-05
7.02024e-05
7.03253e-05
7.04496e-05
7.05767e-05
7.0708e-05
7.08443e-05
7.09864e-05
7.11349e-05
7.12902e-05
7.14524e-05
7.16218e-05
7.17983e-05
7.19816e-05
7.21714e-05
7.2367e-05
7.25674e-05
7.27712e-05
7.29768e-05
7.31819e-05
7.33836e-05
7.35784e-05
7.37617e-05
7.39282e-05
7.40715e-05
7.41837e-05
7.42551e-05
7.42721e-05
7.42387e-05
7.41301e-05
7.39327e-05
7.36316e-05
7.32104e-05
7.26514e-05
7.19355e-05
7.1042e-05
6.99489e-05
6.86322e-05
6.70655e-05
6.5219e-05
6.30584e-05
6.05434e-05
5.76241e-05
5.4238e-05
5.03026e-05
4.57061e-05
4.02912e-05
3.383e-05
2.59932e-05
1.6366e-05
5.55152e-06
6.93495e-08
8.52559e-08
6.69751e-06
1.92541e-05
3.01484e-05
3.88323e-05
4.58249e-05
5.15553e-05
5.63189e-05
6.03179e-05
6.36948e-05
6.65543e-05
6.8976e-05
7.10234e-05
7.27485e-05
7.41959e-05
7.5404e-05
7.64072e-05
7.72358e-05
7.79173e-05
7.84762e-05
7.89343e-05
7.93105e-05
7.96214e-05
7.98811e-05
8.01015e-05
8.02925e-05
8.04623e-05
8.06173e-05
8.07628e-05
8.09031e-05
8.10412e-05
8.11799e-05
8.1321e-05
8.14661e-05
8.16163e-05
8.17725e-05
8.19353e-05
8.21053e-05
8.22825e-05
8.24673e-05
8.26594e-05
8.28586e-05
8.30643e-05
8.32758e-05
8.34917e-05
8.37104e-05
8.39299e-05
8.41473e-05
8.4359e-05
8.45608e-05
8.47473e-05
8.49119e-05
8.50469e-05
8.5143e-05
8.51863e-05
8.51693e-05
8.50869e-05
8.49146e-05
8.46366e-05
8.42355e-05
8.36926e-05
8.29878e-05
8.20992e-05
8.10037e-05
7.96764e-05
7.80902e-05
7.62154e-05
7.40189e-05
7.14625e-05
6.85012e-05
6.50802e-05
6.11305e-05
5.65621e-05
5.12541e-05
4.50382e-05
3.7674e-05
2.88215e-05
1.8087e-05
6.14861e-06
7.86234e-08
9.48915e-08
7.30469e-06
2.09525e-05
3.29098e-05
4.25401e-05
5.03579e-05
5.68037e-05
6.21866e-05
6.67218e-05
7.05629e-05
7.38239e-05
7.65923e-05
7.89382e-05
8.09192e-05
8.25849e-05
8.39783e-05
8.51377e-05
8.60973e-05
8.6888e-05
8.75372e-05
8.80694e-05
8.85063e-05
8.88666e-05
8.91664e-05
8.94194e-05
8.96369e-05
8.98285e-05
9.00016e-05
9.01625e-05
9.03161e-05
9.04661e-05
9.06156e-05
9.07669e-05
9.09218e-05
9.10816e-05
9.12473e-05
9.14198e-05
9.15994e-05
9.17866e-05
9.19813e-05
9.21834e-05
9.23926e-05
9.26082e-05
9.28291e-05
9.30538e-05
9.32805e-05
9.35066e-05
9.37287e-05
9.39428e-05
9.41435e-05
9.43248e-05
9.44791e-05
9.45973e-05
9.46688e-05
9.46763e-05
9.46182e-05
9.44796e-05
9.42377e-05
9.38743e-05
9.33702e-05
9.27047e-05
9.18556e-05
9.07991e-05
8.95098e-05
8.79606e-05
8.61223e-05
8.39626e-05
8.14457e-05
7.85306e-05
7.5169e-05
7.13023e-05
6.68572e-05
6.17385e-05
5.58192e-05
4.89241e-05
4.08059e-05
3.11111e-05
1.94798e-05
6.63596e-06
8.64682e-08
1.0328e-07
7.81794e-06
2.23891e-05
3.52513e-05
4.56996e-05
5.42387e-05
6.13166e-05
6.7252e-05
7.22696e-05
7.65316e-05
8.01591e-05
8.32459e-05
8.58673e-05
8.8086e-05
8.99555e-05
9.15228e-05
9.28296e-05
9.39133e-05
9.48076e-05
9.55428e-05
9.61459e-05
9.66406e-05
9.70479e-05
9.73856e-05
9.76691e-05
9.79111e-05
9.81223e-05
9.83112e-05
9.84851e-05
9.86493e-05
9.88084e-05
9.89657e-05
9.9124e-05
9.92853e-05
9.94512e-05
9.96229e-05
9.98011e-05
9.99864e-05
0.000100179
0.000100379
0.000100587
0.000100801
0.000101022
0.000101247
0.000101475
0.000101704
0.000101931
0.000102152
0.000102362
0.000102556
0.000102725
0.000102863
0.000102958
0.000102996
0.000102966
0.000102859
0.000102659
0.000102344
0.000101892
0.000101284
0.000100497
9.95064e-05
9.82876e-05
9.68135e-05
9.50552e-05
9.29817e-05
9.0559e-05
8.77495e-05
8.451e-05
8.07899e-05
7.65281e-05
7.1648e-05
6.60513e-05
5.96067e-05
5.21347e-05
4.33843e-05
3.29868e-05
2.06193e-05
7.03621e-06
9.30624e-08
1.10555e-07
8.25402e-06
2.3613e-05
3.72526e-05
4.84116e-05
5.75833e-05
6.52205e-05
7.16491e-05
7.71006e-05
8.17438e-05
8.57054e-05
8.90841e-05
9.19598e-05
9.43988e-05
9.64583e-05
9.81885e-05
9.96339e-05
0.000100835
0.000101827
0.000102644
0.000103315
0.000103865
0.000104317
0.00010469
0.000105002
0.000105267
0.000105495
0.000105698
0.000105883
0.000106056
0.000106221
0.000106384
0.000106547
0.000106712
0.000106881
0.000107055
0.000107236
0.000107424
0.000107619
0.000107821
0.00010803
0.000108246
0.000108467
0.000108692
0.00010892
0.000109147
0.000109369
0.000109584
0.000109785
0.000109966
0.000110119
0.000110235
0.000110301
0.000110302
0.00011023
0.00011007
0.000109806
0.000109415
0.000108874
0.000108162
0.000107254
0.000106126
0.000104752
0.000103102
0.000101147
9.88548e-05
9.619e-05
9.31136e-05
8.95811e-05
8.55404e-05
8.09285e-05
7.56671e-05
6.96553e-05
6.27593e-05
5.47967e-05
4.55142e-05
3.45322e-05
2.1555e-05
7.36493e-06
9.85569e-08
1.1684e-07
8.62551e-06
2.46596e-05
3.89711e-05
5.07494e-05
6.0477e-05
6.86095e-05
7.54779e-05
8.13194e-05
8.63074e-05
9.0573e-05
9.42191e-05
9.73287e-05
9.99717e-05
0.000102208
0.00010409
0.000105666
0.000106977
0.000108062
0.000108957
0.000109691
0.000110293
0.000110787
0.000111194
0.000111533
0.000111818
0.000112063
0.000112278
0.000112471
0.000112651
0.000112821
0.000112987
0.000113152
0.000113318
0.000113488
0.000113663
0.000113844
0.000114031
0.000114225
0.000114426
0.000114634
0.000114848
0.000115067
0.000115288
0.000115511
0.000115732
0.000115948
0.000116152
0.00011634
0.000116505
0.000116637
0.000116726
0.000116759
0.000116721
0.000116604
0.000116387
0.000116058
0.000115589
0.000114958
0.000114143
0.000113118
0.000111857
0.000110334
0.000108518
0.000106379
0.000103883
0.000100996
9.76763e-05
9.38796e-05
8.95526e-05
8.46312e-05
7.90358e-05
7.26641e-05
6.53806e-05
5.70008e-05
4.72688e-05
3.58067e-05
2.23212e-05
7.63351e-06
1.03083e-07
1.22242e-07
8.94215e-06
2.5556e-05
4.04497e-05
5.27686e-05
6.29847e-05
7.15555e-05
7.8816e-05
8.50073e-05
9.03066e-05
9.48484e-05
9.87386e-05
0.000102063
0.000104894
0.000107294
0.000109318
0.000111015
0.000112429
0.000113602
0.000114569
0.000115364
0.000116015
0.000116549
0.000116988
0.000117351
0.000117655
0.000117915
0.00011814
0.000118341
0.000118525
0.000118699
0.000118866
0.000119031
0.000119197
0.000119366
0.000119539
0.000119717
0.000119902
0.000120093
0.000120291
0.000120494
0.000120704
0.000120917
0.000121133
0.000121348
0.00012156
0.000121765
0.000121957
0.000122129
0.000122274
0.000122382
0.000122442
0.000122438
0.000122361
0.000122194
0.000121919
0.000121522
0.000120976
0.000120257
0.00011934
0.000118201
0.000116813
0.000115147
0.000113174
0.000110862
0.000108179
0.000105087
0.000101546
9.75117e-05
9.29293e-05
8.77347e-05
8.18475e-05
7.51646e-05
6.75494e-05
5.88161e-05
4.87076e-05
3.68478e-05
2.2944e-05
7.85088e-06
1.06759e-07
1.26862e-07
9.21181e-06
2.63239e-05
4.17222e-05
5.45127e-05
6.51578e-05
7.41161e-05
8.17254e-05
8.82298e-05
9.38094e-05
9.86013e-05
0.000102714
0.000106235
0.000109239
0.00011179
0.000113945
0.000115755
0.000117266
0.00011852
0.000119556
0.000120407
0.000121104
0.000121675
0.000122143
0.00012253
0.000122851
0.000123123
0.000123357
0.000123564
0.000123752
0.000123927
0.000124095
0.000124259
0.000124422
0.000124588
0.000124758
0.000124932
0.000125112
0.000125298
0.000125491
0.000125689
0.000125891
0.000126098
0.000126305
0.000126511
0.000126712
0.000126903
0.000127079
0.000127233
0.000127356
0.000127438
0.000127467
0.000127425
0.000127306
0.000127089
0.000126755
0.000126291
0.000125667
0.00012486
0.000123845
0.000122595
0.000121084
0.000119283
0.000117162
0.00011469
0.000111832
0.000108553
0.000104812
0.000100563
9.57538e-05
9.03184e-05
8.41768e-05
7.72257e-05
6.93279e-05
6.0297e-05
4.98749e-05
3.7688e-05
2.34434e-05
8.02434e-06
1.09694e-07
1.30789e-07
9.44098e-06
2.69806e-05
4.28159e-05
5.60172e-05
6.70383e-05
7.63383e-05
8.42571e-05
9.1041e-05
9.68723e-05
0.00010189
0.000106204
0.000109904
0.000113066
0.000115756
0.000118032
0.000119947
0.000121547
0.000122878
0.000123977
0.00012488
0.000125621
0.000126226
0.000126722
0.000127129
0.000127466
0.00012775
0.000127992
0.000128203
0.000128393
0.000128569
0.000128735
0.000128897
0.000129057
0.000129219
0.000129384
0.000129553
0.000129727
0.000129907
0.000130092
0.000130283
0.000130478
0.000130675
0.000130872
0.000131067
0.000131255
0.000131432
0.000131591
0.000131725
0.000131824
0.000131879
0.000131873
0.000131795
0.000131632
0.000131363
0.000130971
0.00013044
0.00012974
0.000128847
0.000127736
0.00012638
0.000124752
0.000122823
0.000120563
0.00011794
0.000114922
0.000111471
0.000107548
0.000103107
9.80955e-05
9.24485e-05
8.6086e-05
7.89047e-05
7.07675e-05
6.14877e-05
5.08072e-05
3.8354e-05
2.38364e-05
8.1601e-06
1.11986e-07
1.3411e-07
9.63517e-06
2.75409e-05
4.37534e-05
5.73117e-05
6.86615e-05
7.8262e-05
8.64546e-05
9.34873e-05
9.95437e-05
0.000104764
0.00010926
0.000113123
0.000116429
0.000119246
0.000121633
0.000123644
0.000125327
0.000126727
0.000127885
0.000128838
0.000129618
0.000130256
0.000130776
0.000131203
0.000131554
0.000131847
0.000132096
0.000132311
0.000132503
0.000132677
0.000132842
0.000133
0.000133156
0.000133313
0.000133472
0.000133635
0.000133802
0.000133975
0.000134152
0.000134334
0.00013452
0.000134707
0.000134893
0.000135076
0.00013525
0.000135411
0.000135552
0.000135665
0.000135741
0.000135767
0.000135726
0.000135611
0.000135404
0.000135085
0.000134634
0.000134037
0.000133263
0.000132287
0.000131083
0.000129625
0.000127885
0.000125835
0.000123445
0.000120682
0.000117515
0.000113907
0.000109819
0.000105206
0.000100015
9.41824e-05
8.76285e-05
8.02506e-05
7.19119e-05
6.24262e-05
5.15354e-05
3.8869e-05
2.41375e-05
8.26359e-06
1.1373e-07
1.369e-07
9.79913e-06
2.80172e-05
4.45546e-05
5.84218e-05
7.00579e-05
7.99219e-05
8.83558e-05
9.56089e-05
0.000101866
0.000107268
0.000111928
0.000115938
0.000119374
0.000122307
0.000124795
0.000126894
0.000128652
0.000130117
0.000131329
0.000132327
0.000133144
0.00013381
0.000134354
0.000134797
0.000135162
0.000135464
0.000135718
0.000135936
0.000136127
0.000136301
0.000136463
0.000136617
0.000136768
0.000136919
0.000137072
0.000137228
0.000137388
0.000137552
0.000137722
0.000137895
0.00013807
0.000138247
0.000138422
0.000138592
0.000138752
0.000138897
0.000139019
0.000139111
0.000139162
0.000139159
0.000139085
0.000138933
0.000138683
0.000138314
0.000137806
0.000137144
0.000136298
0.000135241
0.000133949
0.000132393
0.000130548
0.000128383
0.00012587
0.000122977
0.000119673
0.000115921
0.000111683
0.000106915
0.000101565
9.55704e-05
8.88515e-05
8.13066e-05
7.27999e-05
6.31456e-05
5.20866e-05
3.92533e-05
2.43594e-05
8.33963e-06
1.15009e-07
1.39232e-07
9.93697e-06
2.84203e-05
4.52366e-05
5.93699e-05
7.12546e-05
8.13484e-05
8.99942e-05
9.74418e-05
0.000103877
0.000109441
0.000114247
0.000118389
0.000121943
0.00012498
0.00012756
0.000129739
0.000131566
0.00013309
0.000134351
0.00013539
0.00013624
0.000136933
0.000137497
0.000137957
0.000138332
0.000138642
0.0001389
0.00013912
0.000139312
0.000139484
0.000139642
0.000139792
0.000139938
0.000140083
0.000140229
0.000140378
0.00014053
0.000140687
0.000140847
0.000141011
0.000141177
0.000141343
0.000141507
0.000141664
0.00014181
0.000141939
0.000142043
0.000142115
0.000142142
0.00014211
0.000142004
0.000141817
0.000141524
0.000141107
0.000140544
0.000139818
0.000138904
0.00013777
0.000136392
0.000134744
0.000132797
0.000130525
0.000127897
0.000124883
0.000121451
0.000117567
0.000113193
0.000108286
0.000102795
9.66584e-05
8.97974e-05
8.21115e-05
7.34657e-05
6.36756e-05
5.24849e-05
3.95252e-05
2.45135e-05
8.3926e-06
1.15901e-07
1.41171e-07
1.00524e-05
2.87601e-05
4.58147e-05
6.01762e-05
7.22756e-05
8.25692e-05
9.14001e-05
9.90186e-05
0.00010561
0.000111318
0.000116255
0.000120514
0.000124174
0.000127305
0.000129967
0.000132218
0.000134108
0.000135685
0.000136991
0.000138066
0.000138947
0.000139664
0.000140247
0.00014072
0.000141106
0.000141422
0.000141684
0.000141906
0.000142097
0.000142266
0.000142421
0.000142567
0.000142707
0.000142846
0.000142986
0.000143127
0.000143272
0.000143421
0.000143573
0.000143728
0.000143885
0.000144041
0.000144193
0.000144338
0.000144471
0.000144585
0.000144673
0.000144724
0.000144729
0.000144669
0.000144535
0.000144312
0.000143979
0.000143516
0.000142901
0.000142115
0.000141134
0.000139927
0.000138468
0.000136732
0.00013469
0.000132316
0.000129579
0.000126452
0.000122902
0.000118897
0.000114399
0.000109366
0.00010375
9.74882e-05
9.0505e-05
8.27005e-05
7.39409e-05
6.40431e-05
5.27524e-05
3.9701e-05
2.46102e-05
8.42653e-06
1.16473e-07
1.42775e-07
1.01486e-05
2.90451e-05
4.63022e-05
6.08586e-05
7.31427e-05
8.36092e-05
9.26011e-05
0.000100369
0.000107099
0.000112933
0.000117985
0.000122349
0.000126103
0.000129317
0.000132054
0.000134369
0.000136315
0.000137939
0.000139286
0.000140395
0.000141302
0.000142041
0.00014264
0.000143126
0.000143521
0.000143842
0.000144108
0.00014433
0.00014452
0.000144687
0.000144839
0.00014498
0.000145115
0.000145248
0.000145381
0.000145516
0.000145654
0.000145796
0.00014594
0.000146087
0.000146235
0.000146382
0.000146525
0.000146659
0.00014678
0.00014688
0.000146952
0.000146986
0.00014697
0.000146887
0.000146724
0.000146469
0.000146099
0.000145594
0.00014493
0.000144085
0.000143042
0.000141766
0.000140231
0.000138411
0.000136279
0.000133808
0.00013097
0.000127736
0.000124076
0.000119958
0.000115346
0.000110199
0.00010447
9.8099e-05
9.10104e-05
8.31062e-05
7.42542e-05
6.42727e-05
5.29087e-05
3.97952e-05
2.46578e-05
8.44359e-06
1.16765e-07
1.44099e-07
1.02285e-05
2.9283e-05
4.67112e-05
6.14336e-05
7.38759e-05
8.44912e-05
9.36225e-05
0.00010152
0.00010837
0.000114315
0.000119469
0.000123925
0.000127762
0.000131051
0.000133853
0.000136226
0.000138222
0.000139889
0.000141271
0.000142409
0.000143341
0.000144099
0.000144713
0.00014521
0.000145612
0.000145938
0.000146206
0.000146429
0.000146618
0.000146783
0.000146931
0.000147068
0.000147199
0.000147326
0.000147454
0.000147583
0.000147715
0.000147849
0.000147987
0.000148127
0.000148268
0.000148407
0.000148541
0.000148667
0.000148778
0.000148867
0.000148926
0.000148945
0.000148911
0.000148807
0.000148619
0.000148336
0.000147932
0.000147388
0.000146679
0.000145783
0.000144679
0.000143339
0.000141732
0.000139833
0.000137616
0.000135053
0.000132119
0.000128784
0.00012502
0.000120796
0.000116079
0.000110828
0.000104996
9.85274e-05
9.13471e-05
8.33588e-05
7.4432e-05
6.43868e-05
5.29718e-05
3.98207e-05
2.46628e-05
8.44718e-06
1.16858e-07
1.4519e-07
1.02947e-05
2.94808e-05
4.7053e-05
6.1916e-05
7.44931e-05
8.52359e-05
9.44872e-05
0.000102497
0.000109452
0.000115494
0.000120736
0.000125273
0.000129183
0.000132537
0.000135397
0.000137821
0.000139861
0.000141565
0.000142979
0.000144143
0.000145096
0.000145871
0.000146498
0.000147005
0.000147413
0.000147744
0.000148014
0.000148237
0.000148425
0.000148588
0.000148733
0.000148866
0.000148993
0.000149116
0.000149239
0.000149363
0.000149489
0.000149618
0.000149751
0.000149885
0.000150021
0.000150154
0.000150282
0.000150401
0.000150504
0.000150585
0.000150634
0.000150641
0.000150593
0.000150474
0.000150265
0.000149957
0.000149525
0.000148946
0.000148197
0.000147255
0.000146094
0.000144696
0.000143022
0.000141049
0.000138751
0.000136102
0.000133075
0.000129644
0.000125782
0.000121458
0.00011664
0.000111291
0.000105366
9.88083e-05
9.15469e-05
8.34868e-05
7.44996e-05
6.44069e-05
5.29593e-05
3.97904e-05
2.46384e-05
8.44369e-06
1.16816e-07
1.4609e-07
1.03494e-05
2.96446e-05
4.73374e-05
6.23192e-05
7.50107e-05
8.58623e-05
9.52164e-05
0.000103323
0.000110368
0.000116493
0.000121813
0.00012642
0.000130394
0.000133805
0.000136716
0.000139184
0.000141262
0.000142999
0.000144441
0.000145629
0.0001466
0.00014739
0.000148028
0.000148543
0.000148957
0.000149291
0.000149563
0.000149787
0.000149974
0.000150135
0.000150277
0.000150408
0.000150531
0.00015065
0.000150769
0.000150889
0.000151011
0.000151137
0.000151266
0.000151397
0.000151529
0.000151659
0.000151784
0.000151899
0.000151998
0.000152073
0.000152116
0.000152116
0.000152059
0.000151929
0.000151703
0.000151377
0.000150921
0.000150314
0.000149532
0.000148549
0.00014734
0.000145884
0.000144151
0.000142109
0.000139735
0.000137003
0.000133888
0.000130365
0.000126407
0.000121987
0.000117073
0.00011163
0.000105616
9.89758e-05
9.16407e-05
8.35178e-05
7.44807e-05
6.43533e-05
5.28883e-05
3.9719e-05
2.45915e-05
8.43324e-06
1.16654e-07
1.46836e-07
1.03947e-05
2.97799e-05
4.75736e-05
6.26553e-05
7.54435e-05
8.63876e-05
9.58294e-05
0.000104019
0.000111141
0.000117338
0.000122724
0.000127392
0.000131421
0.000134882
0.000137836
0.000140343
0.000142455
0.000144221
0.000145686
0.000146894
0.000147881
0.000148684
0.000149332
0.000149854
0.000150273
0.00015061
0.000150884
0.000151107
0.000151294
0.000151454
0.000151594
0.000151722
0.000151843
0.00015196
0.000152076
0.000152193
0.000152314
0.000152438
0.000152565
0.000152695
0.000152826
0.000152955
0.000153079
0.000153194
0.000153293
0.000153368
0.00015341
0.000153407
0.000153346
0.000153211
0.00015298
0.000152638
0.000152167
0.000151539
0.00015073
0.000149714
0.000148465
0.000146956
0.00014517
0.000143064
0.000140618
0.000137808
0.000134608
0.000130994
0.000126943
0.000122427
0.000117419
0.000111884
0.000105783
9.90635e-05
9.16589e-05
8.34787e-05
7.43988e-05
6.42456e-05
5.27741e-05
3.96175e-05
2.45267e-05
8.41849e-06
1.16415e-07
1.4746e-07
1.04321e-05
2.98917e-05
4.77694e-05
6.2935e-05
7.58049e-05
8.68272e-05
9.63434e-05
0.000104603
0.000111791
0.00011805
0.000123493
0.000128213
0.000132289
0.000135792
0.000138785
0.000141324
0.000143465
0.000145255
0.000146741
0.000147966
0.000148967
0.000149781
0.000150437
0.000150965
0.000151389
0.000151729
0.000152004
0.000152228
0.000152414
0.000152573
0.000152713
0.000152839
0.000152958
0.000153074
0.000153189
0.000153306
0.000153426
0.00015355
0.000153677
0.000153809
0.000153941
0.000154073
0.000154201
0.00015432
0.000154423
0.000154503
0.000154549
0.000154551
0.000154493
0.00015436
0.000154133
0.000153784
0.000153305
0.000152665
0.000151839
0.000150798
0.000149517
0.000147966
0.000146125
0.000143966
0.000141452
0.000138565
0.000135281
0.000131578
0.000127433
0.000122822
0.000117718
0.000112091
0.000105903
9.91046e-05
9.16318e-05
8.33966e-05
7.42777e-05
6.41039e-05
5.26325e-05
3.94963e-05
2.44519e-05
8.40284e-06
1.16138e-07
1.47987e-07
1.04634e-05
2.9984e-05
4.79318e-05
6.31679e-05
7.61065e-05
8.71948e-05
9.67739e-05
0.000105093
0.000112337
0.000118649
0.00012414
0.000128904
0.000133021
0.00013656
0.000139584
0.000142152
0.000144317
0.000146128
0.000147632
0.000148871
0.000149884
0.000150706
0.00015137
0.000151903
0.000152331
0.000152673
0.000152949
0.000153174
0.000153361
0.00015352
0.000153658
0.000153785
0.000153903
0.000154019
0.000154134
0.000154252
0.000154374
0.0001545
0.000154631
0.000154767
0.000154905
0.000155043
0.000155179
0.000155306
0.000155419
0.00015551
0.000155567
0.000155581
0.000155535
0.000155413
0.000155195
0.00015486
0.000154378
0.000153737
0.000152904
0.000151849
0.000150544
0.00014896
0.000147071
0.000144857
0.000142283
0.00013932
0.000135952
0.000132158
0.000127917
0.000123207
0.000118006
0.000112285
0.000106008
9.91301e-05
9.15886e-05
8.32987e-05
7.41417e-05
6.39492e-05
5.24812e-05
3.93691e-05
2.43763e-05
8.38933e-06
1.15864e-07
1.4844e-07
1.04896e-05
3.00607e-05
4.8067e-05
6.33622e-05
7.63588e-05
8.75027e-05
9.71349e-05
0.000105504
0.000112796
0.000119151
0.000124683
0.000129485
0.000133635
0.000137204
0.000140256
0.000142847
0.000145033
0.000146861
0.00014838
0.000149631
0.000150654
0.000151484
0.000152154
0.000152691
0.000153122
0.000153467
0.000153745
0.000153971
0.000154158
0.000154317
0.000154456
0.000154583
0.000154703
0.000154819
0.000154937
0.000155058
0.000155183
0.000155314
0.000155451
0.000155594
0.000155741
0.000155891
0.000156039
0.00015618
0.00015631
0.000156418
0.000156496
0.00015653
0.000156506
0.000156406
0.00015621
0.000155895
0.000155436
0.000154799
0.00015397
0.000152911
0.000151592
0.000149983
0.000148054
0.000145778
0.000143148
0.000140108
0.000136651
0.00013276
0.000128418
0.000123606
0.000118303
0.000112486
0.00010612
9.9163e-05
9.15539e-05
8.32101e-05
7.40155e-05
6.38043e-05
5.23395e-05
3.92511e-05
2.43113e-05
8.38318e-06
1.15637e-07
1.48838e-07
1.0512e-05
3.01247e-05
4.81802e-05
6.35253e-05
7.65707e-05
8.77615e-05
9.74383e-05
0.00010585
0.000113181
0.000119573
0.000125139
0.000129972
0.000134151
0.000137745
0.000140819
0.00014343
0.000145633
0.000147476
0.000149006
0.000150267
0.000151298
0.000152135
0.00015281
0.000153351
0.000153784
0.000154131
0.000154411
0.000154638
0.000154826
0.000154986
0.000155127
0.000155256
0.000155378
0.000155497
0.000155619
0.000155744
0.000155875
0.000156014
0.00015616
0.000156314
0.000156475
0.00015664
0.000156806
0.000156968
0.000157121
0.000157256
0.000157363
0.00015743
0.000157439
0.000157375
0.000157214
0.000156933
0.000156505
0.000155901
0.000155079
0.000154026
0.0001527
0.000151068
0.000149098
0.000146765
0.000144049
0.000140935
0.000137378
0.000133378
0.000128923
0.000124001
0.000118595
0.000112683
0.000106234
9.92052e-05
9.15371e-05
8.31471e-05
7.392e-05
6.36922e-05
5.22294e-05
3.91608e-05
2.42669e-05
8.38815e-06
1.1552e-07
1.49196e-07
1.05314e-05
3.01789e-05
4.8276e-05
6.36633e-05
7.67501e-05
8.79804e-05
9.76947e-05
0.000106142
0.000113506
0.000119929
0.000125523
0.000130381
0.000134583
0.000138199
0.000141291
0.000143919
0.000146134
0.000147989
0.00014953
0.000150799
0.000151836
0.000152678
0.000153357
0.000153901
0.000154337
0.000154686
0.000154967
0.000155196
0.000155386
0.000155548
0.000155691
0.000155822
0.000155948
0.000156072
0.000156199
0.000156331
0.000156471
0.00015662
0.000156779
0.000156948
0.000157126
0.000157312
0.000157502
0.000157693
0.000157878
0.00015805
0.000158197
0.000158308
0.000158366
0.000158351
0.000158242
0.000158011
0.000157629
0.000157063
0.000156279
0.000155224
0.000153889
0.000152228
0.000150205
0.000147795
0.000144973
0.000141742
0.000138072
0.000133937
0.00012935
0.000124307
0.000118796
0.000112798
0.000106285
9.92106e-05
9.15117e-05
8.31017e-05
7.38628e-05
6.36308e-05
5.21737e-05
3.91203e-05
2.42598e-05
8.41095e-06
1.15577e-07
1.49525e-07
1.05485e-05
3.02254e-05
4.83579e-05
6.37815e-05
7.69035e-05
8.81673e-05
9.79131e-05
0.000106389
0.000113781
0.000120229
0.000125847
0.000130727
0.000134948
0.00013858
0.000141687
0.000144327
0.000146554
0.000148418
0.000149966
0.000151241
0.000152284
0.00015313
0.000153812
0.00015436
0.000154798
0.000155149
0.000155432
0.000155663
0.000155855
0.000156019
0.000156165
0.0001563
0.000156431
0.000156561
0.000156695
0.000156837
0.000156987
0.00015715
0.000157325
0.000157513
0.000157714
0.000157926
0.000158148
0.000158375
0.000158602
0.000158822
0.000159023
0.000159192
0.000159314
0.000159366
0.000159324
0.000159159
0.000158835
0.000158316
0.000157562
0.000156529
0.000155159
0.000153436
0.000151324
0.000148791
0.000145818
0.000142396
0.000138562
0.000134254
0.000129499
0.000124314
0.000118699
0.00011264
0.000106105
9.90426e-05
9.13785e-05
8.30133e-05
7.38178e-05
6.3621e-05
5.2189e-05
3.91561e-05
2.43104e-05
8.46019e-06
1.15902e-07
1.49835e-07
1.05639e-05
3.02659e-05
4.84293e-05
6.38842e-05
7.70365e-05
8.83288e-05
9.81012e-05
0.000106602
0.000114017
0.000120486
0.000126122
0.000131019
0.000135255
0.000138901
0.00014202
0.00014467
0.000146905
0.000148776
0.00015033
0.000151611
0.000152657
0.000153506
0.000154191
0.000154741
0.000155181
0.000155534
0.000155819
0.000156052
0.000156247
0.000156414
0.000156564
0.000156705
0.000156841
0.000156979
0.000157122
0.000157275
0.000157439
0.000157618
0.000157813
0.000158025
0.000158254
0.0001585
0.000158761
0.000159034
0.000159314
0.000159594
0.000159863
0.000160107
0.000160309
0.000160445
0.000160487
0.000160399
0.000160142
0.000159669
0.000158932
0.00015788
0.000156463
0.00015462
0.000152327
0.000149581
0.000146357
0.000142659
0.000138516
0.000133987
0.000129003
0.000123644
0.000117926
0.000111844
0.000105364
9.84203e-05
9.09165e-05
8.27257e-05
7.36919e-05
6.36236e-05
5.22755e-05
3.92908e-05
2.44425e-05
8.54571e-06
1.1665e-07
1.50135e-07
1.05781e-05
3.03021e-05
4.84926e-05
6.3975e-05
7.71536e-05
8.84705e-05
9.82654e-05
0.000106787
0.00011422
0.000120706
0.000126358
0.000131268
0.000135517
0.000139173
0.000142301
0.000144958
0.0001472
0.000149077
0.000150635
0.000151919
0.000152968
0.000153819
0.000154506
0.000155058
0.0001555
0.000155855
0.000156142
0.000156377
0.000156575
0.000156747
0.000156902
0.000157048
0.000157192
0.000157338
0.000157493
0.000157659
0.00015784
0.000158038
0.000158257
0.000158497
0.000158761
0.000159047
0.000159356
0.000159686
0.000160031
0.000160385
0.000160738
0.000161074
0.000161373
0.000161608
0.000161744
0.000161739
0.000161542
0.000161097
0.00016034
0.000159211
0.000157648
0.000155601
0.00015301
0.000149872
0.000146235
0.000142098
0.000137506
0.000132581