/*--------------------------------*- C++ -*----------------------------------*\
  =========                 |
  \\      /  F ield         | OpenFOAM: The Open Source CFD Toolbox
   \\    /   O peration     | Website:  https://openfoam.org
    \\  /    A nd           | Version:  13
     \\/     M anipulation  |
\*---------------------------------------------------------------------------*/
FoamFile
{
    format      ascii;
    class       volScalarField;
    location    "0.5";
    object      p;
}
// * * * * * * * * * * * * * * * * * * * * * * * * * * * * * * * * * * * * * //

dimensions      [0 2 -2 0 0 0 0];

internalField   nonuniform List<scalar> 
6400
(
9.37172e-09
-1.06432e-06
-3.49954e-06
-6.43295e-06
-9.03292e-06
-1.07158e-05
-1.11273e-05
-1.00085e-05
-7.19277e-06
-2.57683e-06
3.90127e-06
1.22762e-05
2.25643e-05
3.47702e-05
4.88904e-05
6.49163e-05
8.28363e-05
0.000102637
0.000124304
0.000147824
0.000173184
0.000200369
0.000229368
0.00026017
0.000292763
0.000327136
0.000363279
0.000401181
0.000440827
0.000482203
0.000525292
0.000570073
0.000616523
0.000664613
0.000714308
0.00076557
0.000818351
0.000872599
0.00092825
0.000985236
0.00104348
0.00110288
0.00116335
0.00122477
0.00128701
0.00134994
0.00141341
0.00147728
0.00154138
0.00160548
0.00166942
0.00173299
0.00179595
0.00185809
0.00191916
0.00197893
0.00203713
0.00209352
0.00214784
0.00219983
0.00224925
0.00229586
0.00233943
0.00237973
0.00241658
0.00244979
0.0024792
0.00250471
0.00252622
0.00254368
0.0025571
0.00256655
0.00257217
0.00257422
0.00257311
0.00256944
0.00256406
0.002558
0.00255296
0.00255044
1.0721e-06
-4.61699e-09
-2.01399e-06
-4.22951e-06
-6.08437e-06
-7.10314e-06
-6.93675e-06
-5.33534e-06
-2.12846e-06
2.79682e-06
9.51333e-06
1.80661e-05
2.8481e-05
4.07704e-05
5.4938e-05
7.09811e-05
8.8893e-05
0.000108665
0.000130286
0.000153744
0.00017903
0.00020613
0.000235035
0.000265732
0.000298213
0.000332465
0.000368478
0.00040624
0.000445737
0.000486953
0.000529871
0.000574469
0.000620723
0.000668603
0.000718074
0.000769096
0.000821622
0.000875596
0.000930958
0.000987635
0.00104555
0.0011046
0.0011647
0.00122574
0.00128758
0.00135008
0.00141312
0.00147653
0.00154013
0.00160374
0.00166716
0.00173019
0.00179262
0.00185421
0.00191472
0.00197392
0.00203157
0.00208741
0.00214119
0.00219266
0.00224159
0.00228774
0.00233089
0.00237082
0.00240736
0.00244033
0.00246959
0.00249503
0.00251658
0.00253419
0.00254788
0.00255775
0.00256395
0.00256675
0.00256655
0.00256393
0.00255968
0.00255477
0.00255043
0.00254791
3.51496e-06
2.00115e-06
-1.29959e-08
-1.7439e-06
-2.71143e-06
-2.70414e-06
-1.54343e-06
9.48179e-07
4.91868e-06
1.04801e-05
1.77138e-05
2.66767e-05
3.74075e-05
4.99309e-05
6.42615e-05
8.04066e-05
9.83683e-05
0.000118145
0.000139732
0.000163124
0.000188314
0.000215293
0.000244054
0.000274587
0.000306884
0.000340935
0.000376728
0.000414252
0.000453493
0.000494434
0.000537057
0.000581341
0.000627259
0.00067478
0.000723869
0.000774485
0.000826578
0.000880094
0.000934969
0.000991132
0.0010485
0.00110698
0.00116648
0.00122688
0.00128806
0.00134987
0.00141219
0.00147485
0.00153768
0.00160048
0.00166308
0.00172527
0.00178683
0.00184754
0.00190717
0.0019655
0.00202227
0.00207725
0.0021302
0.00218088
0.00222906
0.00227453
0.00231708
0.00235651
0.00239266
0.00242537
0.00245452
0.00248002
0.00250181
0.00251988
0.00253428
0.00254509
0.0025525
0.00255675
0.0025582
0.0025573
0.00255453
0.00255044
0.0025461
0.00254287
6.48431e-06
4.24609e-06
1.71051e-06
-4.429e-08
-4.73864e-07
3.61774e-07
2.42824e-06
5.79558e-06
1.05624e-05
1.68203e-05
2.46455e-05
3.40985e-05
4.52246e-05
5.80572e-05
7.26197e-05
8.89278e-05
0.000106992
0.000126817
0.000148405
0.000171757
0.000196869
0.000223739
0.000252361
0.000282729
0.000314836
0.000348674
0.000384234
0.000421504
0.00046047
0.000501118
0.000543427
0.000587377
0.000632941
0.000680088
0.000728781
0.000778979
0.000830632
0.000883686
0.000938075
0.000993728
0.00105056
0.00110849
0.00116741
0.0012272
0.00128775
0.00134891
0.00141056
0.00147252
0.00153463
0.0015967
0.00165855
0.00171997
0.00178075
0.00184069
0.00189954
0.00195709
0.00201311
0.00206735
0.0021196
0.00216962
0.0022172
0.00226214
0.00230423
0.00234331
0.00237922
0.00241182
0.00244102
0.00246673
0.00248892
0.0025076
0.00252281
0.00253466
0.00254331
0.00254896
0.00255189
0.00255234
0.00255045
0.00254633
0.00254116
0.00253678
9.11156e-06
6.10305e-06
2.61443e-06
2.45016e-07
-2.31135e-07
9.3451e-07
3.51698e-06
7.47153e-06
1.28299e-05
1.9645e-05
2.79723e-05
3.78626e-05
4.93588e-05
6.24956e-05
7.72998e-05
9.37915e-05
0.000111985
0.000131892
0.000153518
0.000176867
0.000201942
0.000228741
0.000257264
0.000287507
0.000319466
0.000353135
0.000388506
0.00042557
0.000464313
0.000504723
0.000546781
0.000590465
0.00063575
0.000682606
0.000730997
0.00078088
0.000832208
0.000884926
0.000938968
0.000994265
0.00105073
0.00110828
0.00116681
0.00122621
0.00128636
0.00134712
0.00140835
0.00146988
0.00153156
0.0015932
0.00165462
0.0017156
0.00177595
0.00183545
0.00189389
0.00195102
0.00200664
0.00206051
0.00211241
0.00216211
0.00220942
0.00225414
0.00229607
0.00233506
0.00237096
0.00240366
0.00243305
0.00245907
0.0024817
0.00250095
0.00251687
0.00252953
0.00253907
0.00254562
0.00254935
0.00255031
0.00254832
0.00254322
0.00253657
0.00253107
1.07333e-05
7.01855e-06
2.40431e-06
-9.07195e-07
-1.83541e-06
-7.40928e-07
2.00563e-06
6.2585e-06
1.19811e-05
1.91798e-05
2.78803e-05
3.81155e-05
4.99185e-05
6.33192e-05
7.83428e-05
9.501e-05
0.000113337
0.000133337
0.000155018
0.000178389
0.000203453
0.000230214
0.000258673
0.000288829
0.000320681
0.000354224
0.000389455
0.000426364
0.000464942
0.000505177
0.000547052
0.000590547
0.000635638
0.000682296
0.000730487
0.000780169
0.000831297
0.000883815
0.000937661
0.000992763
0.00104904
0.00110641
0.00116476
0.00122399
0.00128397
0.00134457
0.00140564
0.00146704
0.00152858
0.00159009
0.00165139
0.00171226
0.00177252
0.00183193
0.00189028
0.00194735
0.00200291
0.00205673
0.00210861
0.00215831
0.00220564
0.0022504
0.00229242
0.00233153
0.0023676
0.00240051
0.00243018
0.00245655
0.00247959
0.00249931
0.00251574
0.00252894
0.00253899
0.00254596
0.0025499
0.00255069
0.00254794
0.00254135
0.002533
0.00252644
1.09155e-05
6.566e-06
8.27521e-07
-3.5364e-06
-5.13087e-06
-4.36508e-06
-1.70993e-06
2.61025e-06
8.49938e-06
1.59191e-05
2.4863e-05
3.53421e-05
4.73753e-05
6.09834e-05
7.61867e-05
9.30032e-05
0.000111448
0.000131536
0.000153275
0.000176676
0.000201744
0.000228485
0.000256902
0.000286998
0.000318774
0.000352228
0.000387357
0.000424156
0.000462619
0.000502734
0.000544487
0.000587861
0.000632835
0.00067938
0.000727465
0.00077705
0.000828092
0.000880535
0.000934321
0.000989379
0.00104563
0.00110299
0.00116135
0.0012206
0.00128063
0.0013413
0.00140247
0.00146397
0.00152564
0.00158731
0.00164877
0.00170983
0.00177027
0.00182989
0.00188847
0.00194577
0.00200157
0.00205564
0.00210776
0.00215772
0.00220531
0.00225034
0.00229262
0.00233201
0.00236837
0.00240159
0.00243157
0.00245827
0.00248164
0.0025017
0.00251845
0.00253193
0.00254216
0.00254915
0.00255286
0.00255305
0.00254919
0.00254094
0.00253091
0.00252341
9.32668e-06
4.42642e-06
-2.35354e-06
-7.76602e-06
-1.01223e-05
-9.83953e-06
-7.45153e-06
-3.23854e-06
2.65616e-06
1.01552e-05
1.9222e-05
2.98451e-05
4.20275e-05
5.5779e-05
7.11124e-05
8.80413e-05
0.000106579
0.000126736
0.000148524
0.000171952
0.000197027
0.000223758
0.000252148
0.000282203
0.000313925
0.000347317
0.000382378
0.000419105
0.000457495
0.000497539
0.000539226
0.000582542
0.000627467
0.000673977
0.000722042
0.000771626
0.000822687
0.000875173
0.000929026
0.000984179
0.00104055
0.00109806
0.00115661
0.00121609
0.00127637
0.00133732
0.0013988
0.00146065
0.0015227
0.00158477
0.00164667
0.00170818
0.0017691
0.00182922
0.00188829
0.0019461
0.0020024
0.00205698
0.0021096
0.00216005
0.00220811
0.00225358
0.0022963
0.00233609
0.00237283
0.0024064
0.0024367
0.00246369
0.00248732
0.00250757
0.00252446
0.00253797
0.0025481
0.0025548
0.00255796
0.00255727
0.0025521
0.00254219
0.00253058
0.00252226
5.74338e-06
3.75424e-07
-7.33319e-06
-1.37347e-05
-1.68772e-05
-1.71608e-05
-1.51545e-05
-1.11753e-05
-5.40139e-06
2.05862e-06
1.11419e-05
2.18163e-05
3.4069e-05
4.7898e-05
6.33079e-05
8.03062e-05
9.89021e-05
0.000119105
0.000140924
0.000164369
0.000189448
0.000216168
0.000244538
0.000274563
0.000306249
0.0003396
0.000374618
0.000411305
0.000449658
0.000489674
0.000531344
0.000574658
0.000619598
0.000666144
0.000714269
0.000763942
0.00081512
0.000867758
0.000921799
0.000977178
0.00103382
0.00109164
0.00115054
0.00121042
0.00127114
0.00133258
0.0013946
0.00145703
0.0015197
0.00158242
0.00164501
0.00170724
0.0017689
0.00182978
0.00188962
0.0019482
0.00200527
0.0020606
0.00211395
0.0021651
0.00221382
0.00225992
0.0023032
0.00234351
0.00238069
0.00241464
0.00244527
0.00247249
0.00249628
0.0025166
0.00253344
0.00254677
0.00255656
0.00256272
0.00256509
0.00256333
0.00255678
0.00254524
0.00253218
0.00252313
2.16518e-08
-5.73754e-06
-1.42563e-05
-2.15618e-05
-2.54725e-05
-2.63571e-05
-2.48008e-05
-2.11424e-05
-1.55839e-05
-8.25769e-06
7.52115e-07
1.13956e-05
2.36452e-05
3.74879e-05
5.29196e-05
6.99414e-05
8.85582e-05
0.000108776
0.000130604
0.000154049
0.000179119
0.000205824
0.000234173
0.000264173
0.000295831
0.000329156
0.000364152
0.000400823
0.000439171
0.000479195
0.000520891
0.000564251
0.000609263
0.00065591
0.000704169
0.000754011
0.0008054
0.000858292
0.000912634
0.000968364
0.00102541
0.00108369
0.0011431
0.00120355
0.00126491
0.00132704
0.0013898
0.00145303
0.00151655
0.00158017
0.0016437
0.00170691
0.00176958
0.00183147
0.00189234
0.00195195
0.00201004
0.00206637
0.00212067
0.00217273
0.0022223
0.00226917
0.00231315
0.00235406
0.00239176
0.00242612
0.00245705
0.00248446
0.00250831
0.00252856
0.00254519
0.00255815
0.00256739
0.00257281
0.00257422
0.00257125
0.00256327
0.00255015
0.00253574
0.00252604
-7.92639e-06
-1.40085e-05
-2.3225e-05
-3.13413e-05
-3.59785e-05
-3.74673e-05
-3.63958e-05
-3.31142e-05
-2.78394e-05
-2.07205e-05
-1.18579e-05
-1.31632e-06
1.08644e-05
2.46609e-05
4.0061e-05
5.70598e-05
7.56573e-05
9.5857e-05
0.000117664
0.000141087
0.000166133
0.000192811
0.000221132
0.000251104
0.000282739
0.000316046
0.000351032
0.000387705
0.000426072
0.000466133
0.000507891
0.00055134
0.000596474
0.000643279
0.000691738
0.000741825
0.000793509
0.000846749
0.000901498
0.000957696
0.00101527
0.00107415
0.00113424
0.00119542
0.00125759
0.00132061
0.00138432
0.00144857
0.00151317
0.00157793
0.00164264
0.00170708
0.00177102
0.00183419
0.00189636
0.00195726
0.00201662
0.00207417
0.00212966
0.00218283
0.00223343
0.00228123
0.00232603
0.00236765
0.00240592
0.0024407
0.0024719
0.00249944
0.00252325
0.00254331
0.00255957
0.00257199
0.00258051
0.002585
0.0025853
0.00258104
0.00257158
0.00255693
0.00254127
0.00253096
-1.81479e-05
-2.44945e-05
-3.43065e-05
-4.31417e-05
-4.8453e-05
-5.05301e-05
-4.99559e-05
-4.70843e-05
-4.21404e-05
-3.52843e-05
-2.66284e-05
-1.62486e-05
-4.19501e-06
9.50037e-06
2.48181e-05
4.17477e-05
6.02849e-05
8.04298e-05
0.000102186
0.00012556
0.000150559
0.000177193
0.000205474
0.000235411
0.000267019
0.000300308
0.000335291
0.000371979
0.00041038
0.000450502
0.000492349
0.000535923
0.00058122
0.000628234
0.00067695
0.000727349
0.000779404
0.000833079
0.000888332
0.000945107
0.00100334
0.00106295
0.00112385
0.00118594
0.00124909
0.00131318
0.00137805
0.00144353
0.00150944
0.00157558
0.00164173
0.00170766
0.00177312
0.00183785
0.00190157
0.00196402
0.0020249
0.00208394
0.00214084
0.00219532
0.00224714
0.00229604
0.00234179
0.00238419
0.00242307
0.0024583
0.00248975
0.00251735
0.00254103
0.00256076
0.0025765
0.00258822
0.00259584
0.00259926
0.00259831
0.00259265
0.0025817
0.00256554
0.00254869
0.00253781
-3.06605e-05
-3.72247e-05
-4.75417e-05
-5.70101e-05
-6.29394e-05
-6.55781e-05
-6.54991e-05
-6.30547e-05
-5.84732e-05
-5.19213e-05
-4.35193e-05
-3.33516e-05
-2.1476e-05
-7.93158e-06
7.25614e-06
2.40717e-05
4.2507e-05
6.25594e-05
8.42305e-05
0.000107525
0.000132452
0.00015902
0.000187242
0.000217131
0.000248702
0.000281969
0.000316948
0.000353653
0.000392098
0.000432295
0.000474253
0.000517978
0.000563473
0.000610735
0.000659758
0.000710527
0.000763021
0.000817211
0.000873057
0.00093051
0.000989511
0.00104998
0.00111184
0.00117499
0.0012393
0.00130464
0.00137086
0.00143779
0.00150523
0.00157299
0.00164083
0.00170851
0.00177577
0.00184232
0.00190788
0.00197215
0.00203482
0.00209559
0.00215414
0.00221017
0.00226339
0.00231354
0.00236037
0.00240366
0.00244322
0.00247889
0.00251057
0.00253816
0.00256161
0.00258088
0.00259595
0.00260678
0.00261334
0.00261552
0.00261319
0.00260605
0.00259355
0.00257589
0.00255788
0.00254646
-4.54625e-05
-5.22065e-05
-6.29504e-05
-7.29742e-05
-7.94663e-05
-8.26352e-05
-8.30405e-05
-8.10299e-05
-7.6831e-05
-7.06137e-05
-6.25032e-05
-5.25895e-05
-4.09363e-05
-2.75881e-05
-1.25752e-05
4.08303e-06
2.23751e-05
4.22961e-05
6.38459e-05
8.7029e-05
0.000111853
0.000138329
0.000166469
0.00019629
0.000227808
0.000261041
0.000296007
0.000332727
0.000371217
0.000411495
0.000453575
0.000497469
0.000543186
0.00059073
0.0006401
0.000691288
0.000744279
0.000799051
0.000855571
0.000913795
0.000973668
0.00103512
0.00109807
0.00116242
0.00122805
0.00129483
0.0013626
0.00143119
0.0015004
0.00157002
0.0016398
0.0017095
0.00177883
0.00184749
0.00191518
0.00198156
0.0020463
0.00210907
0.00216952
0.00222733
0.00228217
0.00233375
0.0023818
0.00242607
0.00246635
0.0025025
0.00253437
0.00256188
0.00258498
0.00260365
0.00261787
0.00262765
0.00263295
0.00263373
0.00262988
0.00262114
0.00260702
0.00258784
0.00256869
0.00255673
-6.25398e-05
-6.94306e-05
-8.05356e-05
-9.10464e-05
-9.80495e-05
-0.000101716
-0.00010259
-0.000101013
-9.72088e-05
-9.13486e-05
-8.35597e-05
-7.39356e-05
-6.25439e-05
-4.94331e-05
-3.46369e-05
-1.81781e-05
-7.03809e-08
1.96793e-05
4.10698e-05
6.41049e-05
8.87926e-05
0.000115144
0.000143175
0.000172902
0.000204344
0.000237524
0.000272463
0.000309186
0.000347714
0.00038807
0.000430275
0.000474347
0.000520301
0.000568148
0.000617894
0.00066954
0.000723077
0.00077849
0.000835753
0.00089483
0.000955672
0.00101822
0.00108238
0.00114808
0.00121519
0.00128358
0.00135309
0.00142355
0.00149476
0.00156648
0.00163848
0.00171047
0.00178217
0.00185324
0.00192335
0.00199214
0.00205926
0.00212432
0.00218696
0.00224679
0.00230348
0.00235668
0.0024061
0.00245145
0.00249253
0.00252915
0.00256117
0.00258852
0.00261115
0.00262906
0.00264226
0.00265078
0.00265463
0.00265381
0.00264827
0.00263779
0.00262197
0.00260122
0.00258091
0.00256842
-8.1867e-05
-8.88771e-05
-0.000100288
-0.000111226
-0.000118693
-0.000122825
-0.000124151
-0.000123002
-0.000119601
-0.000114115
-0.000106672
-9.7368e-05
-8.62728e-05
-7.34373e-05
-5.88978e-05
-4.26792e-05
-2.47971e-05
-5.25959e-06
1.59315e-05
3.87798e-05
6.32937e-05
8.94859e-05
0.000117373
0.000146974
0.000178312
0.000211413
0.000246301
0.000283007
0.000321557
0.00036198
0.000404302
0.00044855
0.000494745
0.000542907
0.000593048
0.000645178
0.000699296
0.000755397
0.000813461
0.000873462
0.000935357
0.00099909
0.00106459
0.00113176
0.0012005
0.00127068
0.00134213
0.00141467
0.0014881
0.00156219
0.00163667
0.00171125
0.0017856
0.0018594
0.00193226
0.00200379
0.00207361
0.00214128
0.0022064
0.00226855
0.00232733
0.00238237
0.00243332
0.00247989
0.00252182
0.00255893
0.00259106
0.00261815
0.00264016
0.00265712
0.00266909
0.00267612
0.00267829
0.00267565
0.00266822
0.00265584
0.00263819
0.00261581
0.00259431
0.00258127
-0.000103411
-0.000110518
-0.000122187
-0.000133502
-0.000141392
-0.00014596
-0.000147719
-0.000146994
-0.000143999
-0.0001389
-0.000131824
-0.000122868
-0.000112101
-9.95762e-05
-8.53318e-05
-6.93937e-05
-5.17785e-05
-3.24951e-05
-1.15456e-05
1.10741e-05
3.53731e-05
6.13654e-05
8.90696e-05
0.000118508
0.000149706
0.000182693
0.0002175
0.00025416
0.000292706
0.000333174
0.000375597
0.000420007
0.000466436
0.00051491
0.000565452
0.00061808
0.000672803
0.000729624
0.000788535
0.000849517
0.000912537
0.000977548
0.00104448
0.00111326
0.00118378
0.0012559
0.00132947
0.00140431
0.0014802
0.00155691
0.00163414
0.00171161
0.00178895
0.0018658
0.00194176
0.00201639
0.00208926
0.00215989
0.00222783
0.0022926
0.00235376
0.00241087
0.00246355
0.00251147
0.00255433
0.00259193
0.00262413
0.00265084
0.00267207
0.00268787
0.00269835
0.00270362
0.00270384
0.00269912
0.00268955
0.00267507
0.00265543
0.00263132
0.0026086
0.00259499
-0.000127132
-0.000134318
-0.000146208
-0.000157855
-0.000166132
-0.000171109
-0.000173287
-0.000172978
-0.000170392
-0.000165691
-0.000159001
-0.000150416
-0.000140007
-0.000127828
-0.000113916
-9.82981e-05
-8.09918e-05
-6.2006e-05
-4.13423e-05
-1.89962e-05
5.04274e-06
3.07903e-05
5.82673e-05
8.74988e-05
0.000118514
0.000151346
0.000186031
0.000222607
0.000261115
0.000301595
0.000344089
0.000388637
0.000435279
0.000484051
0.000534986
0.000588111
0.000643446
0.000701006
0.000760793
0.000822799
0.000887002
0.000953364
0.00102183
0.00109232
0.00116475
0.00123897
0.00131484
0.00139219
0.00147077
0.00155035
0.00163064
0.0017113
0.00179196
0.00187223
0.00195166
0.00202978
0.00210609
0.00218007
0.0022512
0.00231895
0.00238279
0.00244226
0.00249689
0.00254631
0.00259019
0.0026283
0.00266049
0.0026867
0.00270694
0.00272133
0.00273002
0.00273322
0.00273115
0.00272403
0.00271203
0.00269521
0.0026734
0.00264743
0.00262342
0.00260922
-0.000152988
-0.000160237
-0.000172316
-0.00018426
-0.000192892
-0.000198256
-0.000200837
-0.000200939
-0.000198765
-0.000194472
-0.000188184
-0.000179994
-0.000169972
-0.000158171
-0.000144628
-0.000129371
-0.000112417
-9.37736e-05
-7.34427e-05
-5.14182e-05
-2.76884e-05
-2.23536e-06
2.49641e-05
5.39385e-05
8.47209e-05
0.000117349
0.000151863
0.000188308
0.00022673
0.000267178
0.000309701
0.000354349
0.00040117
0.000450211
0.000501515
0.00055512
0.000611061
0.000669361
0.000730037
0.000793092
0.000858518
0.000926289
0.00099636
0.00106866
0.00114311
0.00121959
0.00129794
0.00137798
0.00145949
0.00154222
0.00162584
0.00171003
0.00179437
0.00187844
0.00196175
0.00204377
0.00212396
0.00220172
0.00227647
0.00234759
0.00241449
0.00247662
0.00253346
0.00258456
0.00262956
0.0026682
0.00270031
0.00272584
0.00274486
0.00275752
0.00276407
0.00276481
0.00276007
0.00275016
0.0027354
0.00271594
0.00269172
0.00266374
0.00263837
0.00262355
-0.000180932
-0.000188232
-0.000200474
-0.000212685
-0.000221646
-0.000227377
-0.000230349
-0.000230857
-0.000229097
-0.000225223
-0.000219354
-0.000211581
-0.000201974
-0.000190584
-0.000177448
-0.000162593
-0.000146034
-0.000127781
-0.000107832
-8.61809e-05
-6.28135e-05
-3.77099e-05
-1.08439e-05
1.78163e-05
4.83079e-05
8.06729e-05
0.000114958
0.000151213
0.000189493
0.000229853
0.000272351
0.000317046
0.000363997
0.000413261
0.000464894
0.000518947
0.000575465
0.000634488
0.000696046
0.000760157
0.000826826
0.000896042
0.000967775
0.00104197
0.00111855
0.00119741
0.00127839
0.00136133
0.001446
0.00153213
0.0016194
0.00170745
0.00179585
0.00188413
0.00197175
0.00205814
0.00214268
0.00222471
0.00230355
0.0023785
0.00244888
0.00251404
0.00257339
0.00262639
0.00267264
0.00271182
0.00274376
0.00276842
0.00278593
0.0027965
0.00280048
0.00279829
0.00279039
0.00277725
0.0027593
0.00273684
0.00270995
0.00267978
0.00265295
0.00263749
-0.000210913
-0.000218256
-0.00023064
-0.000243093
-0.000252362
-0.000258444
-0.000261797
-0.000262708
-0.000261366
-0.00025792
-0.000252487
-0.000245154
-0.00023599
-0.000225044
-0.000212353
-0.000197942
-0.000181825
-0.000164011
-0.000144497
-0.000123274
-0.000100327
-7.56327e-05
-4.91624e-05
-2.08804e-05
9.25485e-06
4.12903e-05
7.52782e-05
0.000111276
0.000149343
0.000189546
0.00023195
0.000276625
0.000323641
0.000373066
0.000424969
0.000479415
0.000536464
0.000596171
0.000658582
0.000723731
0.000791641
0.000862318
0.000935747
0.00101189
0.00109069
0.00117203
0.0012558
0.00134182
0.00142986
0.00151966
0.00161088
0.00170314
0.00179599
0.00188892
0.00198134
0.00207261
0.00216203
0.00224887
0.00233235
0.00241166
0.002486
0.00255463
0.00261684
0.00267201
0.00271964
0.00275938
0.00279105
0.00281462
0.00283027
0.0028383
0.0028392
0.00283352
0.00282189
0.00280495
0.00278331
0.00275743
0.00272753
0.00269497
0.0026666
0.00265045
-0.00024288
-0.000250259
-0.000262769
-0.000275443
-0.000285003
-0.000291423
-0.00029515
-0.000296462
-0.000295543
-0.000292537
-0.000287557
-0.000280688
-0.000271995
-0.000261528
-0.00024932
-0.000235396
-0.00021977
-0.000202446
-0.000183422
-0.000162687
-0.000140223
-0.000116003
-8.99971e-05
-6.21644e-05
-3.24593e-05
-8.29471e-07
3.27832e-05
6.84423e-05
0.000106217
0.000146179
0.000188407
0.000232978
0.000279976
0.000329481
0.000381575
0.000436339
0.00049385
0.000554178
0.000617387
0.000683532
0.000752654
0.000824778
0.00089991
0.000978032
0.0010591
0.00114303
0.0012297
0.00131896
0.00141058
0.0015043
0.00159978
0.00169661
0.00179433
0.00189236
0.00199009
0.0020868
0.0021817
0.00227396
0.0023627
0.00244697
0.00252587
0.00259847
0.00266397
0.00272162
0.00277082
0.00281117
0.00284245
0.00286465
0.00287801
0.00288297
0.00288015
0.0028703
0.00285424
0.00283284
0.00280692
0.00277711
0.00274383
0.00270863
0.00267862
0.00266177
-0.000276779
-0.000284189
-0.000296811
-0.000309691
-0.000319528
-0.000326277
-0.000330373
-0.000332088
-0.000331598
-0.000329044
-0.000324535
-0.000318154
-0.000309963
-0.000300009
-0.000288325
-0.000274933
-0.000259847
-0.000243068
-0.000224593
-0.000204409
-0.000182494
-0.000158821
-0.000133353
-0.000106048
-7.68552e-05
-4.57164e-05
-1.25677e-05
2.26617e-05
6.00482e-05
9.96739e-05
0.000141625
0.000185993
0.000232871
0.000282354
0.00033454
0.000389524
0.000447401
0.00050826
0.000572187
0.000639255
0.000709528
0.000783055
0.000859866
0.000939964
0.00102333
0.0011099
0.00119957
0.00129221
0.0013876
0.00148548
0.00158552
0.00168728
0.00179028
0.00189391
0.0019975
0.00210025
0.0022013
0.00229968
0.00239437
0.00248433
0.00256844
0.00264564
0.00271494
0.00277546
0.00282648
0.00286749
0.00289824
0.00291875
0.00292933
0.00293056
0.00292326
0.0029084
0.00288708
0.00286042
0.00282948
0.00279515
0.00275806
0.00271997
0.0026882
0.00267063
-0.000312554
-0.000319991
-0.000332716
-0.000345789
-0.000355892
-0.000362964
-0.000367427
-0.000369546
-0.000369494
-0.000367406
-0.000363388
-0.000357519
-0.000349861
-0.000340457
-0.000329339
-0.000316527
-0.000302032
-0.000285856
-0.000267992
-0.000248425
-0.000227132
-0.000204082
-0.000179234
-0.000152543
-0.000123952
-9.33993e-05
-6.08138e-05
-2.61178e-05
1.07732e-05
4.99504e-05
9.15106e-05
0.000135556
0.000182193
0.000231532
0.000283685
0.000338765
0.000396886
0.000458158
0.000522687
0.000590573
0.000661902
0.000736752
0.000815177
0.00089721
0.000982857
0.00107209
0.00116482
0.00126094
0.00136026
0.00146252
0.00156739
0.00167445
0.00178316
0.0018929
0.00200293
0.00211239
0.0022203
0.00232558
0.00242706
0.0025235
0.00261363
0.00269617
0.00276991
0.00283379
0.00288692
0.00292868
0.00295876
0.00297719
0.00298439
0.0029811
0.00296839
0.00294752
0.00291991
0.00288702
0.00285022
0.00281067
0.00276926
0.00272799
0.00269439
0.0026761
-0.000350148
-0.000357608
-0.000370429
-0.000383686
-0.000394048
-0.000401437
-0.000406268
-0.000408797
-0.000409193
-0.000407586
-0.00040408
-0.00039875
-0.000391657
-0.00038284
-0.000372331
-0.000360148
-0.0003463
-0.000330787
-0.0003136
-0.000294722
-0.000274127
-0.00025178
-0.000227641
-0.000201656
-0.000173767
-0.000143904
-0.000111992
-7.79454e-05
-4.16713e-05
-3.06951e-06
3.79674e-05
8.15533e-05
0.000127808
0.000176856
0.000228828
0.000283853
0.000342066
0.000403599
0.000468582
0.000537141
0.000609391
0.000685439
0.00076537
0.000849252
0.000937122
0.00102898
0.00112479
0.00122446
0.00132782
0.00143464
0.0015446
0.00165727
0.00177213
0.00188849
0.00200559
0.00212247
0.00223804
0.0023511
0.00246029
0.00256418
0.00266126
0.00275003
0.00282899
0.00289684
0.00295249
0.00299514
0.0030244
0.00304031
0.0030434
0.00303463
0.00301536
0.00298726
0.00295213
0.00291184
0.00286816
0.00282259
0.00277629
0.00273155
0.00269604
0.00267704
-0.0003895
-0.000396983
-0.000409893
-0.000423328
-0.000433945
-0.00044165
-0.000446849
-0.000449795
-0.00045065
-0.000449542
-0.000446569
-0.000441808
-0.000435312
-0.000427123
-0.000417268
-0.000405765
-0.000392621
-0.000377833
-0.000361392
-0.000343278
-0.000323462
-0.000301908
-0.00027857
-0.000253392
-0.000226311
-0.000197253
-0.000166136
-0.000132866
-9.73445e-05
-5.94606e-05
-1.90967e-05
2.3873e-05
6.95819e-05
0.00011817
0.000169784
0.000224573
0.000282693
0.0003443
0.00040955
0.000478596
0.000551587
0.000628659
0.000709937
0.000795525
0.0008855
0.000979905
0.00107874
0.00118195
0.00128941
0.00140092
0.00151618
0.00163478
0.00175618
0.0018797
0.00200448
0.00212953
0.00225365
0.00237547
0.00249343
0.00260588
0.00271104
0.00280711
0.00289227
0.00296489
0.00302358
0.00306734
0.00309563
0.00310849
0.00310659
0.00309115
0.00306394
0.00302709
0.00298293
0.00293384
0.00288209
0.00282955
0.00277774
0.00272923
0.00269179
0.00267215
-0.000430549
-0.000438054
-0.00045105
-0.000464658
-0.000475526
-0.000483548
-0.000489121
-0.000492492
-0.000493819
-0.000493228
-0.000490813
-0.000486648
-0.000480786
-0.000473265
-0.000464112
-0.000453342
-0.00044096
-0.000426964
-0.000411341
-0.000394069
-0.000375119
-0.00035445
-0.000332013
-0.000307751
-0.000281594
-0.000253464
-0.000223272
-0.000190921
-0.0001563
-0.000119292
-7.9769e-05
-3.75921e-05
7.38501e-06
5.53179e-05
0.00010637
0.000160712
0.00021852
0.000279975
0.000345261
0.000414562
0.00048806
0.00056593
0.000648334
0.000735422
0.000827315
0.000924106
0.00102584
0.00113252
0.00124406
0.00136032
0.00148102
0.00160579
0.00173411
0.00186527
0.00199839
0.0021324
0.002266
0.00239765
0.00252562
0.00264794
0.00276252
0.0028672
0.00295979
0.0030382
0.00310065
0.00314584
0.00317303
0.00318223
0.00317426
0.00315069
0.0031138
0.00306632
0.00301129
0.00295172
0.00289047
0.0028299
0.00277191
0.00271937
0.00268003
0.00265985
-0.000473233
-0.000480758
-0.000493838
-0.000507617
-0.000518735
-0.000527076
-0.000533028
-0.000536834
-0.000538649
-0.000538594
-0.000536763
-0.000533225
-0.000528033
-0.000521223
-0.00051282
-0.000502837
-0.000491281
-0.000478144
-0.000463414
-0.000447068
-0.000429073
-0.000409386
-0.000387958
-0.000364725
-0.000339615
-0.000312546
-0.000283423
-0.000252141
-0.000218585
-0.000182627
-0.000144129
-0.000102942
-5.89059e-05
-1.18494e-05
3.84082e-05
9.20571e-05
0.000149297
0.000210333
0.00027538
0.000344652
0.000418368
0.000496744
0.000579986
0.000668291
0.000761835
0.000860766
0.000965191
0.00107517
0.00119068
0.00131164
0.00143784
0.00156894
0.00170446
0.0018437
0.0019858
0.00212958
0.00227366
0.00241635
0.00255569
0.00268942
0.00281506
0.00292999
0.00303154
0.0031171
0.00318433
0.00323145
0.00325745
0.00326226
0.00324688
0.00321333
0.00316455
0.0031041
0.00303589
0.00296379
0.00289137
0.00282156
0.0027567
0.00269993
0.00265883
0.00263824
-0.000517486
-0.000525032
-0.000538193
-0.000552141
-0.000563511
-0.000572174
-0.000578514
-0.000582767
-0.000585086
-0.000585588
-0.000584366
-0.000581488
-0.000577003
-0.000570947
-0.000563344
-0.000554207
-0.000543538
-0.000531332
-0.000517573
-0.000502238
-0.000485292
-0.000466691
-0.000446382
-0.000424299
-0.000400368
-0.0003745
-0.000346598
-0.000316551
-0.000284235
-0.000249517
-0.000212248
-0.000172268
-0.000129404
-8.34713e-05
-3.42714e-05
1.84057e-05
7.47816e-05
0.000135089
0.00019957
0.000268474
0.000342057
0.000420577
0.00050429
0.000593446
0.000688278
0.000789
0.000895788
0.00100877
0.00112802
0.00125352
0.00138514
0.00152261
0.00166551
0.00181321
0.00196482
0.0021192
0.00227484
0.0024299
0.00258219
0.00272915
0.00286786
0.00299512
0.00310764
0.00320215
0.00327558
0.00332543
0.00335025
0.00334982
0.00332534
0.00327941
0.00321587
0.0031394
0.00305507
0.00296788
0.00288229
0.0028019
0.00272949
0.00266844
0.00262591
0.00260519
-0.000563241
-0.000570807
-0.000584048
-0.000598165
-0.000609789
-0.000618781
-0.000625517
-0.00063023
-0.000633069
-0.000634152
-0.000633567
-0.00063138
-0.000627642
-0.000622385
-0.000615634
-0.000607399
-0.000597683
-0.00058648
-0.000573774
-0.000559538
-0.000543738
-0.00052633
-0.000507256
-0.00048645
-0.000463835
-0.000439319
-0.000412799
-0.000384161
-0.000353276
-0.000320001
-0.000284181
-0.000245645
-0.000204209
-0.000159674
-0.000111825
-6.04344e-05
-5.25713e-06
5.39642e-05
0.000117501
0.000185638
0.000258668
0.000336896
0.000420626
0.000510167
0.000605817
0.00070786
0.000816554
0.000932116
0.00105471
0.00118441
0.0013212
0.00146493
0.00161525
0.00177163
0.00193325
0.00209897
0.00226728
0.00243621
0.00260332
0.00276568
0.00291993
0.00306223
0.00318842
0.00329436
0.00337601
0.00342991
0.00345376
0.00344707
0.0034113
0.00334983
0.0032677
0.00317114
0.00306686
0.00296131
0.00286011
0.00276761
0.00268705
0.0026219
0.00257856
0.00255813
-0.000610428
-0.000618014
-0.000631336
-0.000645622
-0.000657503
-0.00066683
-0.000673971
-0.000679159
-0.000682538
-0.000684223
-0.000684303
-0.000682843
-0.00067989
-0.000675479
-0.000669631
-0.000662357
-0.000653661
-0.000643535
-0.000631963
-0.000618918
-0.000604365
-0.000588259
-0.000570541
-0.000551145
-0.000529989
-0.00050698
-0.000482014
-0.000454971
-0.000425717
-0.000394104
-0.00035997
-0.000323135
-0.000283404
-0.000240566
-0.000194393
-0.000144637
-9.10343e-05
-3.33029e-05
2.88575e-05
9.57641e-05
0.00016775
0.000245164
0.000328363
0.000417715
0.000513587
0.000616342
0.000726327
0.000843859
0.000969211
0.00110259
0.00124411
0.00139375
0.00155133
0.00171644
0.0018884
0.00206617
0.00224828
0.00243272
0.00261686
0.00279737
0.0029703
0.00313112
0.00327467
0.00339548
0.00348831
0.00354825
0.00357174
0.00355767
0.00350779
0.00342652
0.00332061
0.00319844
0.00306902
0.00294081
0.00282092
0.00271455
0.00262532
0.00255656
0.00251335
0.00249392
-0.000658976
-0.000666581
-0.000679983
-0.000694441
-0.000706583
-0.000716252
-0.00072381
-0.000729486
-0.000733424
-0.000735737
-0.00073651
-0.00073581
-0.000733683
-0.000730163
-0.000725271
-0.000719019
-0.00071141
-0.000702436
-0.000692081
-0.00068032
-0.000667117
-0.000652425
-0.000636188
-0.000618336
-0.000598788
-0.000577451
-0.000554216
-0.000528962
-0.000501551
-0.000471831
-0.000439634
-0.000404774
-0.000367048
-0.000326233
-0.000282088