/*--------------------------------*- C++ -*----------------------------------*\
  =========                 |
  \\      /  F ield         | OpenFOAM: The Open Source CFD Toolbox
   \\    /   O peration     | Website:  https://openfoam.org
    \\  /    A nd           | Version:  13
     \\/     M anipulation  |
\*---------------------------------------------------------------------------*/
FoamFile
{
    format      ascii;
    class       surfaceScalarField;
    location    "0.5";
    object      phi;
}
// * * * * * * * * * * * * * * * * * * * * * * * * * * * * * * * * * * * * * //

dimensions      [0 3 -1 0 0 0 0];

internalField   nonuniform List<scalar> 
12640
(
5.23966e-10
-5.24146e-10
8.55175e-10
-3.31216e-10
5.09565e-10
3.45604e-10
-5.27727e-10
1.03728e-09
-2.13151e-09
1.60377e-09
-4.15701e-09
2.0255e-09
-6.47843e-09
2.32141e-09
-9.00033e-09
2.5219e-09
-1.16535e-08
2.65315e-09
-1.43882e-08
2.73468e-09
-1.71686e-08
2.7804e-09
-1.99688e-08
2.80022e-09
-2.27701e-08
2.80127e-09
-2.55588e-08
2.78873e-09
-2.83253e-08
2.76649e-09
-3.10627e-08
2.73744e-09
-3.37665e-08
2.7038e-09
-3.64337e-08
2.66721e-09
-3.90626e-08
2.62884e-09
-4.16521e-08
2.5895e-09
-4.42018e-08
2.54968e-09
-4.67114e-08
2.5096e-09
-4.91806e-08
2.46927e-09
-5.16091e-08
2.4285e-09
-5.39961e-08
2.38697e-09
-5.63404e-08
2.34428e-09
-5.86403e-08
2.29992e-09
-6.08937e-08
2.25335e-09
-6.30977e-08
2.204e-09
-6.52489e-08
2.15128e-09
-6.73435e-08
2.09459e-09
-6.93769e-08
2.03335e-09
-7.13439e-08
1.96696e-09
-7.32387e-08
1.89486e-09
-7.50552e-08
1.81648e-09
-7.67865e-08
1.73129e-09
-7.84252e-08
1.63875e-09
-7.99636e-08
1.53837e-09
-8.13933e-08
1.42967e-09
-8.27055e-08
1.3122e-09
-8.3891e-08
1.18555e-09
-8.49404e-08
1.04935e-09
-8.58437e-08
9.03271e-10
-8.65907e-08
7.47065e-10
-8.7171e-08
5.80297e-10
-8.75729e-08
4.01843e-10
-8.77857e-08
2.12832e-10
-8.78043e-08
1.85583e-11
-8.7614e-08
-1.90299e-10
-8.72052e-08
-4.08745e-10
-8.65679e-08
-6.3728e-10
-8.5693e-08
-8.749e-10
-8.45721e-08
-1.12098e-09
-8.31974e-08
-1.37471e-09
-8.15623e-08
-1.63506e-09
-7.96615e-08
-1.90083e-09
-7.7491e-08
-2.17052e-09
-7.50484e-08
-2.44252e-09
-7.23336e-08
-2.7148e-09
-6.93487e-08
-2.98493e-09
-6.60982e-08
-3.25053e-09
-6.25894e-08
-3.50877e-09
-5.88328e-08
-3.75658e-09
-5.48423e-08
-3.99054e-09
-5.06354e-08
-4.2069e-09
-4.62339e-08
-4.40146e-09
-4.16645e-08
-4.56942e-09
-3.69594e-08
-4.70508e-09
-3.21581e-08
-4.80135e-09
-2.73091e-08
-4.84893e-09
-2.24729e-08
-4.83628e-09
-1.77237e-08
-4.74913e-09
-1.31572e-08
-4.56651e-09
-8.89926e-09
-4.25796e-09
-5.1169e-09
-3.78236e-09
-2.02864e-09
-3.08826e-09
1.01531e-10
-2.13017e-09
1.07029e-09
-9.68758e-10
8.18778e-10
2.51508e-10
8.18778e-10
3.34206e-10
-8.58354e-10
-6.89714e-11
7.1957e-11
-1.60164e-09
1.87827e-09
-4.17539e-09
3.61103e-09
-7.54523e-09
4.97361e-09
-1.14878e-08
5.96805e-09
-1.58345e-08
6.66814e-09
-2.04609e-08
7.14824e-09
-2.5275e-08
7.46732e-09
-3.02095e-08
7.66911e-09
-3.52142e-08
7.78513e-09
-4.0252e-08
7.83802e-09
-4.52949e-08
7.8442e-09
-5.03219e-08
7.81574e-09
-5.53171e-08
7.76164e-09
-6.02683e-08
7.68869e-09
-6.51666e-08
7.60202e-09
-7.00049e-08
7.5055e-09
-7.4778e-08
7.40193e-09
-7.94817e-08
7.29326e-09
-8.41128e-08
7.18072e-09
-8.86681e-08
7.06492e-09
-9.31448e-08
6.94594e-09
-9.75397e-08
6.82346e-09
-1.0185e-07
6.69681e-09
-1.0607e-07
6.56503e-09
-1.10197e-07
6.42701e-09
-1.14226e-07
6.28146e-09
-1.18149e-07
6.12702e-09
-1.2196e-07
5.96226e-09
-1.25651e-07
5.78575e-09
-1.29213e-07
5.59602e-09
-1.32638e-07
5.39166e-09
-1.35914e-07
5.17124e-09
-1.39031e-07
4.9334e-09
-1.41977e-07
4.67681e-09
-1.44738e-07
4.40022e-09
-1.47302e-07
4.10241e-09
-1.49655e-07
3.78228e-09
-1.51782e-07
3.4388e-09
-1.53667e-07
3.07106e-09
-1.55296e-07
2.67825e-09
-1.56652e-07
2.25972e-09
-1.5772e-07
1.81496e-09
-1.58484e-07
1.34354e-09
-1.58927e-07
8.45068e-10
-1.59035e-07
3.20795e-10
-1.58788e-07
-2.28312e-10
-1.58175e-07
-8.02746e-10
-1.57182e-07
-1.40264e-09
-1.55793e-07
-2.02548e-09
-1.53999e-07
-2.6694e-09
-1.51788e-07
-3.33225e-09
-1.49151e-07
-4.01144e-09
-1.46082e-07
-4.70391e-09
-1.42577e-07
-5.40613e-09
-1.38633e-07
-6.11401e-09
-1.34253e-07
-6.82287e-09
-1.2944e-07
-7.52738e-09
-1.24203e-07
-8.222e-09
-1.18553e-07
-8.90075e-09
-1.12505e-07
-9.55685e-09
-1.06079e-07
-1.0183e-08
-9.92976e-08
-1.07715e-08
-9.21907e-08
-1.13137e-08
-8.47918e-08
-1.18005e-08
-7.71401e-08
-1.22211e-08
-6.92819e-08
-1.25633e-08
-6.12711e-08
-1.28121e-08
-5.31717e-08
-1.29484e-08
-4.50609e-08
-1.2947e-08
-3.70364e-08
-1.27736e-08
-2.92213e-08
-1.23816e-08
-2.17738e-08
-1.17055e-08
-1.4901e-08
-1.06552e-08
-8.87817e-09
-9.11108e-09
-4.06761e-09
-6.94073e-09
-9.29999e-10
-4.10637e-09
2.67477e-10
-9.45969e-10
1.08625e-09
-3.4666e-10
-5.11691e-10
-1.88221e-09
1.60751e-09
-4.55013e-09
4.54618e-09
-8.05031e-09
7.11121e-09
-1.21799e-08
9.10315e-09
-1.6788e-08
1.05762e-08
-2.17564e-08
1.16366e-08
-2.69909e-08
1.23828e-08
-3.24167e-08
1.28931e-08
-3.79746e-08
1.32271e-08
-4.36183e-08
1.34288e-08
-4.93113e-08
1.3531e-08
-5.50248e-08
1.35577e-08
-6.0736e-08
1.3527e-08
-6.64269e-08
1.34525e-08
-7.20827e-08
1.33445e-08
-7.76917e-08
1.3211e-08
-8.32441e-08
1.30579e-08
-8.87319e-08
1.28897e-08
-9.41479e-08
1.27093e-08
-9.94862e-08
1.2519e-08
-1.04741e-07
1.23197e-08
-1.09907e-07
1.21118e-08
-1.14978e-07
1.18949e-08
-1.1995e-07
1.16682e-08
-1.24815e-07
1.14302e-08
-1.29567e-07
1.11795e-08
-1.342e-07
1.0914e-08
-1.38704e-07
1.06316e-08
-1.43072e-07
1.03302e-08
-1.47294e-07
1.00076e-08
-1.51359e-07
9.66131e-09
-1.55257e-07
9.28919e-09
-1.58975e-07
8.88897e-09
-1.625e-07
8.45844e-09
-1.65818e-07
7.99551e-09
-1.68916e-07
7.49817e-09
-1.71779e-07
6.96452e-09
-1.74389e-07
6.39281e-09
-1.76732e-07
5.78149e-09
-1.7879e-07
5.12916e-09
-1.80546e-07
4.43468e-09
-1.81984e-07
3.69717e-09
-1.83085e-07
2.91602e-09
-1.83832e-07
2.09095e-09
-1.84209e-07
1.22211e-09
-1.84199e-07
3.10397e-10
-1.83784e-07
-6.42844e-10
-1.82951e-07
-1.63657e-09
-1.81684e-07
-2.6694e-09
-1.79971e-07
-3.73812e-09
-1.77801e-07
-4.83918e-09
-1.75165e-07
-5.96848e-09
-1.72055e-07
-7.12119e-09
-1.68468e-07
-8.29176e-09
-1.644e-07
-9.47397e-09
-1.59853e-07
-1.06609e-08
-1.54831e-07
-1.18444e-08
-1.49343e-07
-1.30155e-08
-1.434e-07
-1.4165e-08
-1.37018e-07
-1.52829e-08
-1.30217e-07
-1.63584e-08
-1.2302e-07
-1.738e-08
-1.15455e-07
-1.83357e-08
-1.07557e-07
-1.92122e-08
-9.93619e-08
-1.99954e-08
-9.09138e-08
-2.06692e-08
-8.2262e-08
-2.1215e-08
-7.34634e-08
-2.16107e-08
-6.45834e-08
-2.18284e-08
-5.56985e-08
-2.1832e-08
-4.68988e-08
-2.15733e-08
-3.82927e-08
-2.09877e-08
-3.0011e-08
-1.99872e-08
-2.22129e-08
-1.84533e-08
-1.50939e-08
-1.623e-08
-8.90351e-09
-1.31312e-08
-3.99401e-09
-9.01587e-09
-9.0024e-10
-4.03975e-09
1.86013e-10
-1.05565e-09
5.43955e-10
-3.64011e-09
4.19197e-09
-7.14125e-09
8.04732e-09
-1.12262e-08
1.11962e-08
-1.576e-08
1.36369e-08
-2.06594e-08
1.54756e-08
-2.58554e-08
1.68325e-08
-3.12862e-08
1.78136e-08
-3.68976e-08
1.85044e-08
-4.26427e-08
1.89722e-08
-4.84822e-08
1.92683e-08
-5.43834e-08
1.94322e-08
-6.03191e-08
1.94934e-08
-6.62667e-08
1.94746e-08
-7.22074e-08
1.93932e-08
-7.81254e-08
1.92625e-08
-8.40072e-08
1.90928e-08
-8.98413e-08
1.8892e-08
-9.56176e-08
1.86659e-08
-1.01327e-07
1.84188e-08
-1.06962e-07
1.81534e-08
-1.12513e-07
1.78715e-08
-1.17975e-07
1.75736e-08
-1.2334e-07
1.72596e-08
-1.286e-07
1.69283e-08
-1.33748e-07
1.65782e-08
-1.38776e-07
1.62073e-08
-1.43675e-07
1.58131e-08
-1.48436e-07
1.5393e-08
-1.5305e-07
1.4944e-08
-1.57506e-07
1.44632e-08
-1.61792e-07
1.39475e-08
-1.65896e-07
1.33938e-08
-1.69806e-07
1.27991e-08
-1.73508e-07
1.21604e-08
-1.76988e-07
1.14748e-08
-1.80229e-07
1.07396e-08
-1.83217e-07
9.95233e-09
-1.85935e-07
9.11052e-09
-1.88365e-07
8.21212e-09
-1.90491e-07
7.25532e-09
-1.92295e-07
6.23869e-09
-1.93759e-07
5.16115e-09
-1.94865e-07
4.02212e-09
-1.95596e-07
2.82148e-09
-1.95934e-07
1.55975e-09
-1.95861e-07
2.38164e-10
-1.95363e-07
-1.14128e-09
-1.94423e-07
-2.57647e-09
-1.93028e-07
-4.06418e-09
-1.91166e-07
-5.59998e-09
-1.88827e-07
-7.17851e-09
-1.86002e-07
-8.79345e-09
-1.82686e-07
-1.04375e-08
-1.78875e-07
-1.21024e-08
-1.7457e-07
-1.3779e-08
-1.69774e-07
-1.5457e-08
-1.64494e-07
-1.71247e-08
-1.5874e-07
-1.87695e-08
-1.52526e-07
-2.03783e-08
-1.45872e-07
-2.19372e-08
-1.38799e-07
-2.34314e-08
-1.31334e-07
-2.48453e-08
-1.23507e-07
-2.61624e-08
-1.15354e-07
-2.73653e-08
-1.06914e-07
-2.84351e-08
-9.82329e-08
-2.93507e-08
-8.93596e-08
-3.00884e-08
-8.03507e-08
-3.06196e-08
-7.12692e-08
-3.09098e-08
-6.21862e-08
-3.0915e-08
-5.31812e-08
-3.05783e-08
-4.4344e-08
-2.98249e-08
-3.57747e-08
-2.85565e-08
-2.75842e-08
-2.66438e-08
-1.9895e-08
-2.39193e-08
-1.28516e-08
-2.01745e-08
-6.68709e-09
-1.51803e-08
-1.98031e-09
-8.74653e-09
-1.79429e-09
-1.64806e-09
2.19201e-09
-5.03944e-09
7.58335e-09
-9.16999e-09
1.21779e-08
-1.37003e-08
1.57265e-08
-1.85358e-08
1.84724e-08
-2.3635e-08
2.05748e-08
-2.89636e-08
2.21612e-08
-3.44866e-08
2.33365e-08
-4.01686e-08
2.41865e-08
-4.59763e-08
2.47798e-08
-5.18788e-08
2.51708e-08
-5.78488e-08
2.54021e-08
-6.38621e-08
2.55067e-08
-6.98979e-08
2.55104e-08
-7.59379e-08
2.54331e-08
-8.1966e-08
2.52906e-08
-8.79682e-08
2.5095e-08
-9.3932e-08
2.48558e-08
-9.9846e-08
2.45799e-08
-1.057e-07
2.42727e-08
-1.11484e-07
2.39377e-08
-1.1719e-07
2.35771e-08
-1.22808e-07
2.31919e-08
-1.2833e-07
2.27818e-08
-1.33748e-07
2.23459e-08
-1.39052e-07
2.18825e-08
-1.44234e-07
2.13892e-08
-1.49284e-07
2.08631e-08
-1.54192e-07
2.03011e-08
-1.58948e-07
1.96997e-08
-1.6354e-07
1.90551e-08
-1.67956e-07
1.83637e-08
-1.72184e-07
1.76216e-08
-1.7621e-07
1.68251e-08
-1.8002e-07
1.59703e-08
-1.83599e-07
1.50536e-08
-1.86931e-07
1.40718e-08
-1.9e-07
1.30214e-08
-1.92789e-07
1.18997e-08
-1.95281e-07
1.0704e-08
-1.97458e-07
9.43204e-09
-1.99301e-07
8.08219e-09
-2.00793e-07
6.65322e-09
-2.01916e-07
5.14455e-09
-2.02651e-07
3.55629e-09
-2.0298e-07
1.88936e-09
-2.02888e-07
1.45536e-10
-2.02357e-07
-1.67246e-09
-2.01372e-07
-3.56111e-09
-1.9992e-07
-5.51568e-09
-1.9799e-07
-7.53007e-09
-1.95572e-07
-9.59692e-09
-1.92658e-07
-1.17076e-08
-1.89243e-07
-1.38522e-08
-1.85326e-07
-1.60194e-08
-1.80908e-07
-1.8197e-08
-1.75994e-07
-2.03711e-08
-1.70592e-07
-2.25264e-08
-1.64715e-07
-2.46466e-08
-1.58379e-07
-2.67148e-08
-1.51603e-07
-2.8713e-08
-1.44412e-07
-3.06224e-08
-1.36834e-07
-3.24235e-08
-1.289e-07
-3.40957e-08
-1.20648e-07
-3.56174e-08
-1.12118e-07
-3.69656e-08
-1.03354e-07
-3.8115e-08
-9.44047e-08
-3.90372e-08
-8.53249e-08
-3.96994e-08
-7.61728e-08
-4.0062e-08
-6.70114e-08
-4.00764e-08
-5.79083e-08
-3.96813e-08
-4.89347e-08
-3.87985e-08
-4.01634e-08
-3.73277e-08
-3.16675e-08
-3.51397e-08
-2.352e-08
-3.20668e-08
-1.58074e-08
-2.78871e-08
-8.70918e-09
-2.22786e-08
-2.83273e-09
-1.4623e-08
-4.62703e-09
-2.09926e-09
4.29127e-09
-6.0776e-09
1.15617e-08
-1.06882e-08
1.67884e-08
-1.55805e-08
2.06188e-08
-2.06742e-08
2.35661e-08
-2.59483e-08
2.58489e-08
-3.13898e-08
2.76027e-08
-3.69828e-08
2.89296e-08
-4.27078e-08
2.99114e-08
-4.85431e-08
3.06151e-08
-5.44667e-08
3.10944e-08
-6.04573e-08
3.13927e-08
-6.64948e-08
3.15443e-08
-7.25609e-08
3.15765e-08
-7.86388e-08
3.15111e-08
-8.47133e-08
3.13651e-08
-9.07704e-08
3.11521e-08
-9.67972e-08
3.08826e-08
-1.02782e-07
3.05648e-08
-1.08714e-07
3.02046e-08
-1.14582e-07
2.98061e-08
-1.20377e-07
2.93721e-08
-1.26089e-07
2.89037e-08
-1.31708e-07
2.84009e-08
-1.37225e-07
2.78628e-08
-1.4263e-07
2.72876e-08
-1.47914e-07
2.66726e-08
-1.53065e-07
2.60147e-08
-1.58074e-07
2.53101e-08
-1.62929e-07
2.45549e-08
-1.67619e-07
2.37448e-08
-1.72131e-07
2.28753e-08
-1.76451e-07
2.1942e-08
-1.80566e-07
2.09403e-08
-1.84462e-07
1.98658e-08
-1.88122e-07
1.87141e-08
-1.91532e-07
1.74811e-08
-1.94673e-07
1.61629e-08
-1.9753e-07
1.47561e-08
-2.00083e-07
1.32575e-08
-2.02316e-07
1.16645e-08
-2.04208e-07
9.97509e-09
-2.05743e-07
8.188e-09
-2.06901e-07
6.30265e-09
-2.07664e-07
4.31938e-09
-2.08015e-07
2.23952e-09
-2.07935e-07
6.5517e-11
-2.07408e-07
-2.19902e-09
-2.0642e-07
-4.54921e-09
-2.04957e-07
-6.97874e-09
-2.03007e-07
-9.4797e-09
-2.00562e-07
-1.20426e-08
-1.97613e-07
-1.46563e-08
-1.94157e-07
-1.7308e-08
-1.90193e-07
-1.99837e-08
-1.85722e-07
-2.26676e-08
-1.80751e-07
-2.53421e-08
-1.75289e-07
-2.79883e-08
-1.6935e-07
-3.05861e-08
-1.6295e-07
-3.31147e-08
-1.5611e-07
-3.55522e-08
-1.48857e-07
-3.78758e-08
-1.41219e-07
-4.0062e-08
-1.33228e-07
-4.20865e-08
-1.24921e-07
-4.39239e-08
-1.1634e-07
-4.55475e-08
-1.07526e-07
-4.69285e-08
-9.8528e-08
-4.80353e-08
-8.93958e-08
-4.88316e-08
-8.01823e-08
-4.92755e-08
-7.09425e-08
-4.93162e-08
-6.17323e-08
-4.88915e-08
-5.26066e-08
-4.79242e-08
-4.36174e-08
-4.6317e-08
-3.4812e-08
-4.39451e-08
-2.62361e-08
-4.06427e-08
-1.79541e-08
-3.61691e-08
-1.01378e-08
-3.00949e-08
-3.43291e-09
-2.13278e-08
-8.05994e-09
-2.424e-09
6.71527e-09
-6.82328e-09
1.5961e-08
-1.17994e-08
2.17646e-08
-1.69876e-08
2.5807e-08
-2.23074e-08
2.88858e-08
-2.77444e-08
3.1286e-08
-3.32967e-08
3.3155e-08
-3.89605e-08
3.45933e-08
-4.47276e-08
3.56785e-08
-5.05862e-08
3.64736e-08
-5.65219e-08
3.70302e-08
-6.25194e-08
3.73902e-08
-6.8563e-08
3.75879e-08
-7.46376e-08
3.76511e-08
-8.07284e-08
3.76018e-08
-8.68214e-08
3.74582e-08
-9.29037e-08
3.72343e-08
-9.89626e-08
3.69415e-08
-1.04986e-07
3.65886e-08
-1.10964e-07
3.61819e-08
-1.16884e-07
3.57263e-08
-1.22736e-07
3.52245e-08
-1.28511e-07
3.4678e-08
-1.34197e-07
3.40871e-08
-1.39785e-07
3.34508e-08
-1.45264e-07
3.2767e-08
-1.50624e-07
3.2033e-08
-1.55855e-07
3.12453e-08
-1.60945e-07
3.03997e-08
-1.65882e-07
2.94919e-08
-1.70654e-07
2.85169e-08
-1.75248e-07
2.74697e-08
-1.79651e-07
2.63451e-08
-1.83849e-07
2.51379e-08
-1.87826e-07
2.38428e-08
-1.91567e-07
2.24549e-08
-1.95055e-07
2.09693e-08
-1.98273e-07
1.93814e-08
-2.01205e-07
1.76872e-08
-2.0383e-07
1.58831e-08
-2.06132e-07
1.3966e-08
-2.0809e-07
1.19336e-08
-2.09687e-07
9.78446e-09
-2.10902e-07
7.51801e-09
-2.11717e-07
5.13482e-09
-2.12115e-07
2.63669e-09
-2.12076e-07
2.67376e-11
-2.11584e-07
-2.69045e-09
-2.10625e-07
-5.50864e-09
-2.09184e-07
-8.4199e-09
-2.07249e-07
-1.14144e-08
-2.04811e-07
-1.44804e-08
-2.01864e-07
-1.76041e-08
-1.98401e-07
-2.07701e-08
-1.94424e-07
-2.39609e-08
-1.89934e-07
-2.71575e-08
-1.84938e-07
-3.03384e-08
-1.79445e-07
-3.34809e-08
-1.7347e-07
-3.65613e-08
-1.6703e-07
-3.95545e-08
-1.60148e-07
-4.24348e-08
-1.52848e-07
-4.51755e-08
-1.45161e-07
-4.77493e-08
-1.37119e-07
-5.01283e-08
-1.28759e-07
-5.22837e-08
-1.20121e-07
-5.41856e-08
-1.11247e-07
-5.58025e-08
-1.02182e-07
-5.71002e-08
-9.2973e-08
-5.80409e-08
-8.36671e-08
-5.85814e-08
-7.43122e-08
-5.86711e-08
-6.49542e-08
-5.82494e-08
-5.56362e-08
-5.72423e-08
-4.6396e-08
-5.55572e-08
-3.7267e-08
-5.30741e-08
-2.82841e-08
-4.96256e-08
-1.9511e-08
-4.49423e-08
-1.11346e-08
-3.84713e-08
-3.84028e-09
-2.86221e-08
-1.19002e-08
-2.65058e-09
9.36585e-09
-7.34826e-09
2.06586e-08
-1.26004e-08
2.70168e-08
-1.8028e-08
3.12345e-08
-2.35434e-08
3.44012e-08
-2.91313e-08
3.68739e-08
-3.47937e-08
3.88174e-08
-4.05331e-08
4.03328e-08
-4.63491e-08
4.14945e-08
-5.22368e-08
4.23613e-08
-5.81883e-08
4.29817e-08
-6.41935e-08
4.33954e-08
-7.0241e-08
4.36355e-08
-7.63188e-08
4.37288e-08
-8.24145e-08
4.36975e-08
-8.85159e-08
4.35596e-08
-9.46112e-08
4.33295e-08
-1.00688e-07
4.30189e-08
-1.06737e-07
4.26366e-08
-1.12744e-07
4.21896e-08
-1.18701e-07
4.16826e-08
-1.24595e-07
4.11189e-08
-1.30417e-07
4.05e-08
-1.36156e-07
3.98262e-08
-1.41802e-07
3.90963e-08
-1.47343e-07
3.83085e-08
-1.5277e-07
3.74595e-08
-1.5807e-07
3.65457e-08
-1.63233e-07
3.55625e-08
-1.68246e-07
3.4505e-08
-1.73097e-07
3.33678e-08
-1.77772e-07
3.21452e-08
-1.82258e-07
3.08313e-08
-1.86541e-07
2.94201e-08
-1.90604e-07
2.79059e-08
-1.94432e-07
2.62828e-08
-1.98008e-07
2.45452e-08
-2.01314e-07
2.2688e-08
-2.04333e-07
2.07063e-08
-2.07046e-07
1.85961e-08
-2.09434e-07
1.63538e-08
-2.11477e-07
1.39768e-08
-2.13156e-07
1.14634e-08
-2.14451e-07
8.81307e-09
-2.15343e-07
6.02655e-09
-2.15812e-07
3.10604e-09
-2.15841e-07
5.54006e-11
-2.15412e-07
-3.11981e-09
-2.14508e-07
-6.41203e-09
-2.13117e-07
-9.81167e-09
-2.11224e-07
-1.33069e-08
-2.08821e-07
-1.68837e-08
-2.05899e-07
-2.05257e-08
-2.02455e-07
-2.42144e-08
-1.98487e-07
-2.79291e-08
-1.93997e-07
-3.16471e-08
-1.88992e-07
-3.53432e-08
-1.83482e-07
-3.89909e-08
-1.77481e-07
-4.25623e-08
-1.71007e-07
-4.60285e-08
-1.64083e-07
-4.93596e-08
-1.56733e-07
-5.25251e-08
-1.48988e-07
-5.54941e-08
-1.40881e-07
-5.82351e-08
-1.32449e-07
-6.07163e-08
-1.23729e-07
-6.2905e-08
-1.14764e-07
-6.47675e-08
-1.05596e-07
-6.6268e-08
-9.62692e-08
-6.7368e-08
-8.68261e-08
-6.80245e-08
-7.7309e-08
-6.81882e-08
-6.77571e-08
-6.78014e-08
-5.82054e-08
-6.6794e-08
-4.86846e-08
-6.5078e-08
-3.92228e-08
-6.25359e-08
-2.98553e-08
-5.89931e-08
-2.06556e-08
-5.4142e-08
-1.18343e-08
-4.72927e-08
-4.11419e-09
-3.63422e-08
-1.60144e-08
-2.80467e-09
1.21705e-08
-7.71084e-09
2.55648e-08
-1.31691e-08
3.2475e-08
-1.87876e-08
3.6853e-08
-2.44695e-08
4.00831e-08
-3.01944e-08
4.25988e-08
-3.59635e-08
4.45865e-08
-4.17823e-08
4.61516e-08
-4.76542e-08
4.73664e-08
-5.35793e-08
4.82864e-08
-5.95545e-08
4.89569e-08
-6.5574e-08
4.94149e-08
-7.16301e-08
4.96915e-08
-7.77137e-08
4.98124e-08
-8.38151e-08
4.97989e-08
-8.99238e-08
4.96684e-08
-9.60294e-08
4.94351e-08
-1.02121e-07
4.91107e-08
-1.08189e-07
4.8704e-08
-1.14221e-07
4.82218e-08
-1.20207e-07
4.76692e-08
-1.26138e-07
4.70493e-08
-1.32001e-07
4.63637e-08
-1.37788e-07
4.56126e-08
-1.43486e-07
4.47948e-08
-1.49086e-07
4.39081e-08
-1.54576e-07
4.29494e-08
-1.59944e-07
4.19143e-08
-1.6518e-07
4.07981e-08
-1.7027e-07
3.95954e-08
-1.75203e-07
3.83001e-08
-1.79963e-07
3.69059e-08
-1.84538e-07
3.54063e-08
-1.88913e-07
3.37947e-08
-1.93072e-07
3.20644e-08
-1.96998e-07
3.02089e-08
-2.00674e-07
2.82218e-08
-2.04083e-07
2.60971e-08
-2.07207e-07
2.38296e-08
-2.10025e-07
2.14143e-08
-2.12518e-07
1.88473e-08
-2.14667e-07
1.61254e-08
-2.1645e-07
1.32469e-08
-2.17848e-07
1.02109e-08
-2.1884e-07
7.0185e-09
-2.19406e-07
3.67221e-09
-2.19527e-07
1.76526e-10
-2.19185e-07
-3.462e-09
-2.18363e-07
-7.23451e-09
-2.17045e-07
-1.11298e-08
-2.15218e-07
-1.5134e-08
-2.12871e-07
-1.92307e-08
-2.09996e-07
-2.34009e-08
-2.06587e-07
-2.7623e-08
-2.02643e-07
-3.1873e-08
-1.98166e-07
-3.61244e-08
-1.93161e-07
-4.03481e-08
-1.87638e-07
-4.45136e-08
-1.81611e-07
-4.8589e-08
-1.75099e-07
-5.25411e-08
-1.68122e-07
-5.6336e-08
-1.60708e-07
-5.99392e-08
-1.52886e-07
-6.33161e-08
-1.4469e-07
-6.64319e-08
-1.36154e-07
-6.92517e-08
-1.27318e-07
-7.17406e-08
-1.18223e-07
-7.3863e-08
-1.08909e-07
-7.55822e-08
-9.94172e-08
-7.68595e-08
-8.97889e-08
-7.76528e-08
-8.00621e-08
-7.7915e-08
-7.0272e-08
-7.75915e-08
-6.04502e-08
-7.66158e-08
-5.06249e-08
-7.49032e-08
-4.08255e-08
-7.23353e-08
-3.1094e-08
-6.87247e-08
-2.15183e-08
-6.37177e-08
-1.2334e-08
-5.64769e-08
-4.29777e-09
-4.43784e-08
-2.03122e-08
-2.90615e-09
1.50767e-08
-7.95505e-09
3.06137e-08
-1.35652e-08
3.80852e-08
-1.93342e-08
4.2622e-08
-2.51556e-08
4.59044e-08
-3.10022e-08
4.84454e-08
-3.68724e-08
5.04567e-08
-4.27713e-08
5.20505e-08
-4.87043e-08
5.32994e-08
-5.46744e-08
5.42566e-08
-6.06818e-08
5.49642e-08
-6.67239e-08
5.5457e-08
-7.2796e-08
5.57637e-08
-7.88919e-08
5.59083e-08
-8.50039e-08
5.59109e-08
-9.11237e-08
5.57881e-08
-9.72422e-08
5.55536e-08
-1.0335e-07
5.52184e-08
-1.09437e-07
5.47913e-08
-1.15494e-07
5.42788e-08
-1.21511e-07
5.36857e-08
-1.27477e-07
5.30152e-08
-1.33382e-07
5.22687e-08
-1.39215e-07
5.14462e-08
-1.44967e-07
5.05465e-08
-1.50626e-07
4.9567e-08
-1.56181e-07
4.85044e-08
-1.6162e-07
4.7354e-08
-1.66933e-07
4.61105e-08
-1.72105e-07
4.47681e-08
-1.77126e-07
4.33202e-08
-1.81979e-07
4.17598e-08
-1.86653e-07
4.00797e-08
-1.9113e-07
3.82724e-08
-1.95397e-07
3.63306e-08
-1.99435e-07
3.42469e-08
-2.03227e-07
3.20142e-08
-2.06756e-07
2.96257e-08
-2.10001e-07
2.70752e-08
-2.12944e-07
2.43572e-08
-2.15564e-07
2.14671e-08
-2.1784e-07
1.84014e-08
-2.19751e-07
1.51577e-08
-2.21275e-07
1.17352e-08
-2.22392e-07
8.13497e-09
-2.23079e-07
4.35981e-09
-2.23317e-07
4.14801e-10
-2.23087e-07
-3.69259e-09
-2.22369e-07
-7.95227e-09
-2.21148e-07
-1.23514e-08
-2.19407e-07
-1.68741e-08
-2.17136e-07
-2.15017e-08
-2.14325e-07
-2.62123e-08
-2.10967e-07
-3.09814e-08
-2.07058e-07
-3.57812e-08
-2.02601e-07
-4.05815e-08
-1.976e-07
-4.53493e-08
-1.92064e-07
-5.00498e-08
-1.86006e-07
-5.46468e-08
-1.79444e-07
-5.91027e-08
-1.72401e-07
-6.33794e-08
-1.64902e-07
-6.74384e-08
-1.56977e-07
-7.12412e-08
-1.48659e-07
-7.47495e-08
-1.39985e-07
-7.79257e-08
-1.30993e-07
-8.07325e-08
-1.21724e-07
-8.31328e-08
-1.12217e-07
-8.50892e-08
-1.02513e-07
-8.65632e-08
-9.26516e-08
-8.75142e-08
-8.26696e-08
-8.7897e-08
-7.26009e-08
-8.76601e-08
-6.24769e-08
-8.67399e-08
-5.23273e-08
-8.50527e-08
-4.21867e-08
-8.2476e-08
-3.21067e-08
-7.88046e-08
-2.21917e-08
-7.36327e-08
-1.27006e-08
-6.5968e-08
-4.42049e-09
-5.26585e-08
-2.47327e-08
-2.96972e-09
1.80464e-08
-8.11315e-09
3.57571e-08
-1.38335e-08
4.38055e-08
-1.97199e-08
4.85084e-08
-2.56566e-08
5.18411e-08
-3.16098e-08
5.43986e-08
-3.75735e-08
5.64204e-08
-4.35511e-08
5.80282e-08
-4.95483e-08
5.92965e-08
-5.55692e-08
6.02775e-08
-6.16162e-08
6.10112e-08
-6.76889e-08
6.15298e-08
-7.37852e-08
6.186e-08
-7.9901e-08
6.20241e-08
-8.60307e-08
6.20406e-08
-9.21676e-08
6.19251e-08
-9.83043e-08
6.16903e-08
-1.04433e-07
6.13467e-08
-1.10544e-07
6.09025e-08
-1.16629e-07
6.03638e-08
-1.22678e-07
5.97353e-08
-1.28683e-07
5.90196e-08
-1.34632e-07
5.8218e-08
-1.40516e-07
5.73303e-08
-1.46325e-07
5.6355e-08
-1.52047e-07
5.52894e-08
-1.57672e-07
5.41294e-08
-1.63189e-07
5.28704e-08
-1.68585e-07
5.15064e-08
-1.73847e-07
5.0031e-08
-1.78964e-07
4.84371e-08
-1.83922e-07
4.6717e-08
-1.88705e-07
4.48627e-08
-1.93298e-07
4.28661e-08
-1.97686e-07
4.07188e-08
-2.01852e-07
3.84126e-08
-2.05777e-07
3.59395e-08
-2.09443e-07
3.32919e-08
-2.12831e-07
3.04627e-08
-2.15919e-07
2.74456e-08
-2.18688e-07
2.42353e-08
-2.21114e-07
2.08276e-08
-2.23176e-07
1.72197e-08
-2.24851e-07
1.34105e-08
-2.26117e-07
9.40091e-09
-2.26951e-07
5.19399e-09
-2.27332e-07
7.95261e-10
-2.27237e-07
-3.787e-09
-2.26648e-07
-8.54155e-09
-2.25545e-07
-1.3454e-08
-2.23913e-07
-1.85065e-08
-2.21737e-07
-2.3678e-08
-2.19005e-07
-2.89439e-08
-2.1571e-07
-3.42764e-08
-2.11847e-07
-3.96442e-08
-2.07416e-07
-4.5013e-08
-2.02419e-07
-5.03457e-08
-1.96866e-07
-5.56031e-08
-1.90769e-07
-6.07442e-08
-1.84144e-07
-6.57271e-08
-1.77015e-07
-7.05091e-08
-1.69406e-07
-7.50472e-08
-1.61348e-07
-7.92989e-08
-1.52875e-07
-8.32225e-08
-1.44024e-07
-8.67772e-08
-1.34833e-07
-8.99233e-08
-1.25343e-07
-9.26224e-08
-1.15596e-07
-9.48364e-08
-1.05632e-07
-9.65271e-08
-9.5491e-08
-9.76552e-08
-8.52105e-08
-9.81776e-08
-7.48256e-08
-9.8045e-08
-6.43699e-08
-9.71956e-08
-5.38776e-08
-9.55449e-08
-4.33903e-08
-9.29633e-08
-3.29712e-08
-8.92238e-08
-2.27409e-08
-8.3863e-08
-1.29794e-08
-7.57295e-08
-4.50194e-09
-6.1136e-08
-2.92346e-08
-3.00585e-09
2.10522e-08
-8.20853e-09
4.09598e-08
-1.40074e-08
4.96044e-08
-1.99843e-08
5.44853e-08
-2.60156e-08
5.78725e-08
-3.2061e-08
6.0444e-08
-3.81099e-08
6.24693e-08
-4.41632e-08
6.40815e-08
-5.02254e-08
6.53587e-08
-5.63011e-08
6.63532e-08
-6.23936e-08
6.71037e-08
-6.85042e-08
6.76404e-08
-7.46324e-08
6.79882e-08
-8.07758e-08
6.81675e-08
-8.69307e-08
6.81955e-08
-9.3092e-08
6.80864e-08
-9.92536e-08
6.78519e-08
-1.05409e-07
6.75018e-08
-1.1155e-07
6.70434e-08
-1.17668e-07
6.64825e-08
-1.23756e-07
6.58231e-08
-1.29804e-07
6.50676e-08
-1.35803e-07
6.42169e-08
-1.41743e-07
6.32704e-08
-1.47614e-07
6.22263e-08
-1.53406e-07
6.10814e-08
-1.59109e-07
5.98315e-08
-1.64709e-07
5.84713e-08
-1.70197e-07
5.69943e-08
-1.7556e-07
5.53936e-08
-1.80784e-07
5.36614e-08
-1.85856e-07
5.17892e-08
-1.90762e-07
4.97684e-08
-1.95486e-07
4.75898e-08
-2.00012e-07
4.52443e-08
-2.04322e-07
4.27226e-08
-2.08398e-07
4.00158e-08
-2.12221e-07
3.71153e-08
-2.15772e-07
3.40129e-08
-2.19027e-07
3.07016e-08
-2.21967e-07
2.7175e-08
-2.24568e-07
2.34282e-08
-2.26806e-07
1.94578e-08
-2.28658e-07
1.52623e-08
-2.30099e-07
1.08423e-08
-2.31106e-07
6.2009e-09
-2.31655e-07
1.34389e-09
-2.31722e-07
-3.71977e-09
-2.31286e-07
-8.9778e-09
-2.30325e-07
-1.44143e-08
-2.28822e-07
-2.00097e-08
-2.2676e-07
-2.57405e-08
-2.24124e-07
-3.15794e-08
-2.20905e-07
-3.74951e-08
-2.17097e-07
-4.34528e-08
-2.12696e-07
-4.9414e-08
-2.07704e-07
-5.53372e-08
-2.02129e-07
-6.11783e-08
-1.95982e-07
-6.68917e-08
-1.89279e-07
-7.24303e-08
-1.82041e-07
-7.77465e-08
-1.74296e-07
-8.27926e-08
-1.66073e-07
-8.75217e-08
-1.57408e-07
-9.1888e-08
-1.48337e-07
-9.58474e-08
-1.38903e-07
-9.93579e-08
-1.29146e-07
-1.02379e-07
-1.1911e-07
-1.04872e-07
-1.08838e-07
-1.06799e-07
-9.83713e-08
-1.08122e-07
-8.77498e-08
-1.08799e-07
-7.70122e-08
-1.08783e-07
-6.6196e-08
-1.08012e-07
-5.53418e-08
-1.06399e-07
-4.44993e-08
-1.03806e-07
-3.37436e-08
-9.99795e-08
-2.32109e-08
-9.43957e-08
-1.32006e-08
-8.57399e-08
-4.5549e-09
-6.97816e-08
-3.37895e-08
-3.02169e-09
2.40739e-08
-8.25822e-09
4.61963e-08
-1.41114e-08
5.54576e-08
-2.01574e-08
6.05313e-08
-2.62659e-08
6.3981e-08
-3.23906e-08
6.65687e-08
-3.85164e-08
6.85951e-08
-4.46413e-08
7.02064e-08
-5.0768e-08
7.14855e-08
-5.69009e-08
7.2486e-08
-6.30433e-08
7.32461e-08
-6.91976e-08
7.37947e-08
-7.53643e-08
7.41549e-08
-8.15426e-08
7.43458e-08
-8.77301e-08
7.43829e-08
-9.39231e-08
7.42793e-08
-1.00117e-07
7.40457e-08
-1.06306e-07
7.36906e-08
-1.12483e-07
7.32208e-08
-1.18642e-07
7.26413e-08
-1.24774e-07
7.19557e-08
-1.30873e-07
7.11657e-08
-1.36928e-07
7.02719e-08
-1.4293e-07
6.92732e-08
-1.48871e-07
6.81674e-08
-1.54741e-07
6.69508e-08
-1.60528e-07
6.56188e-08
-1.66222e-07
6.41655e-08
-1.71812e-07
6.2584e-08
-1.77285e-07
6.08666e-08
-1.82629e-07
5.90048e-08
-1.87829e-07
5.69894e-08
-1.92871e-07
5.48108e-08
-1.9774e-07
5.2459e-08
-2.0242e-07
4.99238e-08
-2.06892e-07
4.7195e-08
-2.11139e-07
4.42624e-08
-2.1514e-07
4.11164e-08
-2.18875e-07
3.77477e-08
-2.22321e-07
3.41482e-08
-2.25457e-07
3.03104e-08
-2.28257e-07
2.62285e-08
-2.30697e-07
2.18984e-08
-2.32753e-07
1.73177e-08
-2.34397e-07
1.24867e-08
-2.35604e-07
7.40816e-09
-2.36349e-07
2.08818e-09
-2.36605e-07
-3.46392e-09
-2.36347e-07
-9.23497e-09
-2.35554e-07
-1.52078e-08
-2.34203e-07
-2.1361e-08
-2.32274e-07
-2.76688e-08
-2.29752e-07
-3.41013e-08
-2.26624e-07
-4.06237e-08
-2.22879e-07
-4.71972e-08
-2.18514e-07
-5.37792e-08
-2.13528e-07
-6.03235e-08
-2.07925e-07
-6.67808e-08
-2.01717e-07
-7.31002e-08
-1.94918e-07
-7.92292e-08
-1.8755e-07
-8.51146e-08
-1.79639e-07
-9.07034e-08
-1.71217e-07
-9.59436e-08
-1.6232e-07
-1.00785e-07
-1.52987e-07
-1.0518e-07
-1.43262e-07
-1.09083e-07
-1.3319e-07
-1.12452e-07
-1.22816e-07
-1.15246e-07
-1.12186e-07
-1.17429e-07
-1.01347e-07
-1.18961e-07
-9.03421e-08
-1.19804e-07
-7.92145e-08
-1.1991e-07
-6.80081e-08
-1.19218e-07
-5.67703e-08
-1.17637e-07
-4.55601e-08
-1.15016e-07
-3.44639e-08
-1.11076e-07
-2.36327e-08
-1.05227e-07
-1.33841e-08
-9.59884e-08
-4.58764e-09
-7.85781e-08
-3.83772e-08
-3.02265e-09
2.70966e-08
-8.27475e-09
5.14484e-08
-1.41639e-08
6.13467e-08
-2.02621e-08
6.66294e-08
-2.64333e-08
7.01522e-08
-3.26259e-08
7.27613e-08
-3.88207e-08
7.47899e-08
-4.50126e-08
7.63982e-08
-5.12025e-08
7.76753e-08
-5.73934e-08
7.8677e-08
-6.35889e-08
7.94415e-08
-6.97915e-08
7.99972e-08
-7.60025e-08
8.0366e-08
-8.22221e-08
8.05654e-08
-8.8449e-08
8.06098e-08
-9.46808e-08
8.05111e-08
-1.00914e-07
8.02786e-08
-1.07143e-07
7.99202e-08
-1.13364e-07
7.94417e-08
-1.1957e-07
7.88474e-08
-1.25755e-07
7.81401e-08
-1.3191e-07
7.73211e-08
-1.38029e-07
7.63903e-08
-1.44102e-07
7.53463e-08
-1.50121e-07
7.41862e-08
-1.56076e-07
7.2906e-08
-1.61957e-07
7.15003e-08
-1.67754e-07
6.99628e-08
-1.73456e-07
6.8286e-08
-1.79051e-07
6.64614e-08
-1.84526e-07
6.44797e-08
-1.89868e-07
6.2331e-08
-1.95062e-07
6.00046e-08
-2.00092e-07
5.74896e-08
-2.04943e-07
5.47746e-08
-2.09596e-07
5.18483e-08
-2.14033e-07
4.86993e-08
-2.18233e-07
4.53167e-08
-2.22176e-07
4.169e-08
-2.25837e-07
3.78096e-08
-2.29194e-07
3.36671e-08
-2.32221e-07
2.92553e-08
-2.34891e-07
2.4569e-08
-2.37179e-07
1.96051e-08
-2.39055e-07
1.43631e-08
-2.40492e-07
8.84531e-09
-2.41462e-07
3.05765e-09
-2.41935e-07
-2.9903e-09
-2.41886e-07
-9.28475e-09
-2.41286e-07
-1.58074e-08
-2.40112e-07
-2.25353e-08
-2.3834e-07
-2.94405e-08
-2.35951e-07
-3.64901e-08
-2.32929e-07
-4.36462e-08
-2.2926e-07
-5.08659e-08
-2.24937e-07
-5.81021e-08
-2.19957e-07
-6.53035e-08
-2.14322e-07
-7.24154e-08
-2.08042e-07
-7.93809e-08
-2.0113e-07
-8.61412e-08
-1.93607e-07
-9.26372e-08
-1.85501e-07
-9.88096e-08
-1.76844e-07
-1.04601e-07
-1.67674e-07
-1.09955e-07
-1.58033e-07
-1.1482e-07
-1.47968e-07
-1.19147e-07
-1.37529e-07
-1.22891e-07
-1.26764e-07
-1.2601e-07
-1.15727e-07
-1.28466e-07
-1.04466e-07
-1.30222e-07
-9.30328e-08
-1.31237e-07
-8.14764e-08
-1.31467e-07
-6.98472e-08
-1.30847e-07
-5.8201e-08
-1.29283e-07
-4.6606e-08
-1.26611e-07
-3.51598e-08
-1.22522e-07
-2.40269e-08
-1.1636e-07
-1.35431e-08
-1.06472e-07
-4.60531e-09
-8.7516e-08
-4.29825e-08
-3.013e-09
3.01096e-08
-8.26727e-09
5.67027e-08
-1.41786e-08
6.72581e-08
-2.03157e-08
7.27665e-08
-2.65377e-08
7.63742e-08
-3.27885e-08
7.90122e-08
-3.90452e-08
8.10466e-08
-4.52994e-08
8.26525e-08
-5.15502e-08
8.39261e-08
-5.77994e-08
8.49262e-08
-6.40499e-08
8.5692e-08
-7.03042e-08
8.62515e-08
-7.65642e-08
8.66259e-08
-8.28306e-08
8.68318e-08
-8.9103e-08
8.68823e-08
-9.538e-08
8.6788e-08
-1.01659e-07
8.65576e-08
-1.07936e-07
8.61976e-08
-1.14208e-07
8.57131e-08
-1.20468e-07
8.51078e-08
-1.26712e-07
8.43835e-08
-1.32932e-07
8.35411e-08
-1.39121e-07
8.25798e-08
-1.45272e-07
8.14976e-08
-1.51377e-07
8.02911e-08
-1.57427e-07
7.89556e-08
-1.63412e-07
7.74854e-08
-1.69322e-07
7.58733e-08
-1.75148e-07
7.41112e-08
-1.80876e-07
7.21898e-08
-1.86495e-07
7.00991e-08
-1.91992e-07
6.7828e-08
-1.97353e-07
6.53651e-08
-2.02561e-07
6.26982e-08
-2.07601e-07
5.98147e-08
-2.12455e-07
5.6702e-08
-2.17103e-07
5.33474e-08
-2.21525e-07
4.97386e-08
-2.25699e-07
4.58636e-08
-2.296e-07
4.17114e-08
-2.33205e-07
3.72719e-08
-2.36487e-07
3.25367e-08
-2.39417e-07
2.74993e-08
-2.41967e-07
2.21552e-08
-2.44107e-07
1.6503e-08
-2.45806e-07
1.05442e-08
-2.47033e-07
4.28439e-09
-2.47756e-07
-2.26706e-09
-2.47945e-07
-9.09598e-09
-2.47569e-07
-1.61832e-08
-2.466e-07
-2.35044e-08
-2.4501e-07
-3.10297e-08
-2.42777e-07
-3.87234e-08
-2.39879e-07