/*--------------------------------*- C++ -*----------------------------------*\
  =========                 |
  \\      /  F ield         | OpenFOAM: The Open Source CFD Toolbox
   \\    /   O peration     | Website:  https://openfoam.org
    \\  /    A nd           | Version:  13
     \\/     M anipulation  |
\*---------------------------------------------------------------------------*/
FoamFile
{
    format      ascii;
    class       volScalarField;
    location    "2.3";
    object      nut;
}
// * * * * * * * * * * * * * * * * * * * * * * * * * * * * * * * * * * * * * //

dimensions      [0 2 -1 0 0 0 0];

internalField   nonuniform List<scalar> 
6400
(
4.37873e-10
2.20822e-09
4.96955e-09
8.08667e-09
1.12771e-08
1.45372e-08
1.79896e-08
2.17768e-08
2.60132e-08
3.07671e-08
3.60643e-08
4.18974e-08
4.82367e-08
5.50854e-08
6.23916e-08
7.01014e-08
7.81759e-08
8.65763e-08
9.5264e-08
1.04209e-07
1.13409e-07
1.22908e-07
1.32838e-07
1.43472e-07
1.5528e-07
1.68734e-07
1.83732e-07
1.9983e-07
2.16507e-07
2.34119e-07
2.52894e-07
2.72967e-07
2.94296e-07
3.16463e-07
3.38994e-07
3.61712e-07
3.84707e-07
4.08101e-07
4.32045e-07
4.56705e-07
4.82258e-07
5.08892e-07
5.36831e-07
5.66125e-07
5.96466e-07
6.27664e-07
6.59938e-07
6.93827e-07
7.31079e-07
7.76427e-07
8.2465e-07
8.72104e-07
9.18033e-07
9.61133e-07
9.99773e-07
1.03191e-06
1.05419e-06
1.06595e-06
1.07035e-06
1.05999e-06
1.03261e-06
9.89136e-07
9.29041e-07
8.53759e-07
7.67106e-07
6.73572e-07
5.75996e-07
4.76505e-07
3.79766e-07
2.90344e-07
2.12904e-07
1.52382e-07
1.04309e-07
6.81117e-08
4.24314e-08
2.51637e-08
1.41108e-08
7.26932e-09
3.02665e-09
5.9959e-10
2.20034e-09
1.87799e-07
6.681e-07
1.18975e-06
1.67498e-06
2.12169e-06
2.54766e-06
2.96915e-06
3.39444e-06
3.82256e-06
4.24732e-06
4.65999e-06
5.05085e-06
5.40683e-06
5.72766e-06
6.01195e-06
6.26002e-06
6.47175e-06
6.64672e-06
6.78468e-06
6.88693e-06
6.958e-06
7.00775e-06
7.05499e-06
7.1361e-06
7.27876e-06
7.46049e-06
7.65717e-06
7.82506e-06
8.02773e-06
8.28128e-06
8.60203e-06
9.00268e-06
9.47031e-06
9.98367e-06
1.05313e-05
1.11127e-05
1.17265e-05
1.23719e-05
1.30468e-05
1.37489e-05
1.44748e-05
1.52347e-05
1.60536e-05
1.692e-05
1.78018e-05
1.86854e-05
1.95497e-05
2.03614e-05
2.10964e-05
2.17979e-05
2.25177e-05
2.32222e-05
2.39061e-05
2.45508e-05
2.51715e-05
2.56353e-05
2.59128e-05
2.61789e-05
2.62282e-05
2.60456e-05
2.56223e-05
2.49188e-05
2.3915e-05
2.26355e-05
2.11616e-05
1.94223e-05
1.74773e-05
1.53778e-05
1.3186e-05
1.09193e-05
8.49944e-06
6.26968e-06
4.40458e-06
2.9543e-06
1.89099e-06
1.15138e-06
6.38009e-07
2.26869e-07
3.15447e-09
5.0952e-09
6.16541e-07
2.79826e-06
5.37814e-06
7.5074e-06
9.19512e-06
1.05697e-05
1.17315e-05
1.27498e-05
1.36506e-05
1.44374e-05
1.5108e-05
1.56616e-05
1.61014e-05
1.64363e-05
1.66704e-05
1.68239e-05
1.69111e-05
1.69441e-05
1.69344e-05
1.68924e-05
1.68285e-05
1.67519e-05
1.66703e-05
1.65867e-05
1.65286e-05
1.65532e-05
1.66825e-05
1.69807e-05
1.73754e-05
1.78108e-05
1.82811e-05
1.87656e-05
1.938e-05
2.01931e-05
2.11149e-05
2.21249e-05
2.32152e-05
2.43888e-05
2.56382e-05
2.6949e-05
2.83188e-05
2.97169e-05
3.10735e-05
3.23836e-05
3.36833e-05
3.49692e-05
3.62368e-05
3.74474e-05
3.86329e-05
3.97877e-05
4.09128e-05
4.19873e-05
4.30011e-05
4.39352e-05
4.47715e-05
4.54715e-05
4.60135e-05
4.62667e-05
4.64542e-05
4.63561e-05
4.59669e-05
4.51927e-05
4.3959e-05
4.21954e-05
4.00307e-05
3.75135e-05
3.4641e-05
3.1441e-05
2.79674e-05
2.42786e-05
2.04319e-05
1.65941e-05
1.29632e-05
9.71089e-06
6.95763e-06
4.70862e-06
2.79443e-06
8.83815e-07
7.89982e-09
9.11808e-09
1.16625e-06
5.32955e-06
1.00963e-05
1.38054e-05
1.65228e-05
1.85348e-05
2.00847e-05
2.1309e-05
2.22845e-05
2.30514e-05
2.36317e-05
2.40418e-05
2.42995e-05
2.44278e-05
2.44549e-05
2.43952e-05
2.4268e-05
2.40924e-05
2.38872e-05
2.36716e-05
2.34653e-05
2.32897e-05
2.31667e-05
2.31219e-05
2.31842e-05
2.34065e-05
2.36905e-05
2.40039e-05
2.44463e-05
2.50797e-05
2.58855e-05
2.69849e-05
2.8188e-05
2.93827e-05
3.06375e-05
3.19349e-05
3.32872e-05
3.46923e-05
3.60729e-05
3.74554e-05
3.88106e-05
4.0126e-05
4.13895e-05
4.26072e-05
4.37805e-05
4.49012e-05
4.59618e-05
4.69858e-05
4.79747e-05
4.89217e-05
4.98199e-05
5.06571e-05
5.14213e-05
5.20976e-05
5.26699e-05
5.31213e-05
5.34429e-05
5.36247e-05
5.36821e-05
5.34736e-05
5.28935e-05
5.21696e-05
5.11563e-05
4.96564e-05
4.7505e-05
4.50336e-05
4.21944e-05
3.8987e-05
3.54433e-05
3.16105e-05
2.75483e-05
2.33543e-05
1.91499e-05
1.51106e-05
1.14038e-05
8.10658e-06
5.00354e-06
1.54791e-06
1.30537e-08
1.44405e-08
1.85405e-06
7.99864e-06
1.44848e-05
1.93152e-05
2.26793e-05
2.50272e-05
2.67133e-05
2.79579e-05
2.88857e-05
2.95643e-05
3.00312e-05
3.03127e-05
3.04326e-05
3.04162e-05
3.02899e-05
3.00777e-05
2.98045e-05
2.94955e-05
2.91771e-05
2.88776e-05
2.86265e-05
2.84569e-05
2.83977e-05
2.84903e-05
2.85997e-05
2.88101e-05
2.91728e-05
2.98718e-05
3.08908e-05
3.19119e-05
3.3027e-05
3.42767e-05
3.55279e-05
3.67737e-05
3.79998e-05
3.92636e-05
4.05243e-05
4.17195e-05
4.28733e-05
4.39798e-05
4.50333e-05
4.60362e-05
4.69924e-05
4.79034e-05
4.87628e-05
4.95539e-05
5.03038e-05
5.10201e-05
5.17004e-05
5.23419e-05
5.29406e-05
5.34907e-05
5.39845e-05
5.44115e-05
5.47592e-05
5.5011e-05
5.51441e-05
5.51253e-05
5.48316e-05
5.45808e-05
5.39335e-05
5.30247e-05
5.17939e-05
5.07972e-05
4.92747e-05
4.71729e-05
4.46976e-05
4.1822e-05
3.85718e-05
3.49877e-05
3.11215e-05
2.70404e-05
2.28301e-05
1.86125e-05
1.45304e-05
1.06593e-05
6.71539e-06
2.06207e-06
1.72088e-08
2.12731e-08
2.69313e-06
1.0798e-05
1.86741e-05
2.42922e-05
2.80444e-05
3.0548e-05
3.22584e-05
3.34568e-05
3.43017e-05
3.48772e-05
3.52295e-05
3.53885e-05
3.53806e-05
3.52331e-05
3.4975e-05
3.46358e-05
3.42465e-05
3.38396e-05
3.34497e-05
3.31152e-05
3.28686e-05
3.27667e-05
3.27392e-05
3.27704e-05
3.29254e-05
3.36429e-05
3.44689e-05
3.53691e-05
3.64352e-05
3.75042e-05
3.86439e-05
3.98069e-05
4.09516e-05
4.20637e-05
4.31453e-05
4.4247e-05
4.52215e-05
4.61225e-05
4.69453e-05
4.76881e-05
4.83489e-05
4.89291e-05
4.94474e-05
4.99153e-05
5.03451e-05
5.076e-05
5.11412e-05
5.14875e-05
5.18005e-05
5.20807e-05
5.23286e-05
5.25441e-05
5.27266e-05
5.28734e-05
5.29805e-05
5.30431e-05
5.30525e-05
5.29949e-05
5.28538e-05
5.25684e-05
5.21093e-05
5.17625e-05
5.07816e-05
4.94021e-05
4.83822e-05
4.6982e-05
4.50033e-05
4.25583e-05
3.96781e-05
3.6405e-05
3.2795e-05
2.89162e-05
2.48466e-05
2.06776e-05
1.6506e-05
1.23524e-05
7.84364e-06
2.39087e-06
1.99575e-08
2.98059e-08
3.66883e-06
1.36775e-05
2.27411e-05
2.89335e-05
3.29171e-05
3.54705e-05
3.71386e-05
3.8251e-05
3.89893e-05
3.94471e-05
3.96741e-05
3.97021e-05
3.95594e-05
3.92761e-05
3.88857e-05
3.84242e-05
3.79302e-05
3.74447e-05
3.70058e-05
3.66853e-05
3.6391e-05
3.61829e-05
3.61396e-05
3.66036e-05
3.71726e-05
3.79664e-05
3.88973e-05
3.99467e-05
4.10366e-05
4.2087e-05
4.31487e-05
4.41581e-05
4.50975e-05
4.59346e-05
4.66404e-05
4.73068e-05
4.78932e-05
4.83774e-05
4.87978e-05
4.9158e-05
4.94691e-05
4.97426e-05
4.99709e-05
5.01559e-05
5.03026e-05
5.04124e-05
5.04824e-05
5.05153e-05
5.05138e-05
5.04814e-05
5.04217e-05
5.03396e-05
5.02425e-05
5.01352e-05
5.00212e-05
4.99057e-05
4.9792e-05
4.96804e-05
4.95642e-05
4.94288e-05
4.92572e-05
4.88874e-05
4.8436e-05
4.80082e-05
4.6612e-05
4.58015e-05
4.45703e-05
4.26084e-05
4.01239e-05
3.71543e-05
3.37578e-05
3.00173e-05
2.60314e-05
2.19008e-05
1.77035e-05
1.34007e-05
8.52708e-06
2.58762e-06
2.16732e-08
4.0374e-08
4.72453e-06
1.65753e-05
2.66857e-05
3.33263e-05
3.74489e-05
3.99889e-05
4.1573e-05
4.25704e-05
4.31796e-05
4.35001e-05
4.35832e-05
4.34622e-05
4.31683e-05
4.27363e-05
4.2206e-05
4.16221e-05
4.10333e-05
4.05061e-05
3.99364e-05
3.95059e-05
3.92088e-05
3.92062e-05
3.95788e-05
4.02039e-05
4.10138e-05
4.19192e-05
4.28782e-05
4.38224e-05
4.47082e-05
4.55081e-05
4.62551e-05
4.69081e-05
4.74846e-05
4.79809e-05
4.84004e-05
4.87815e-05
4.90934e-05
4.94054e-05
4.96349e-05
4.9822e-05
4.99666e-05
5.00723e-05
5.01342e-05
5.01538e-05
5.01301e-05
5.00624e-05
4.99503e-05
4.97951e-05
4.9598e-05
4.93608e-05
4.90853e-05
4.87748e-05
4.84431e-05
4.80986e-05
4.77454e-05
4.74031e-05
4.70896e-05
4.68207e-05
4.66017e-05
4.64278e-05
4.62858e-05
4.61843e-05
4.60715e-05
4.56578e-05
4.52713e-05
4.4192e-05
4.36396e-05
4.24792e-05
4.04607e-05
3.78457e-05
3.46751e-05
3.10335e-05
2.70435e-05
2.28435e-05
1.85413e-05
1.40926e-05
8.97685e-06
2.73607e-06
2.3147e-08
5.31669e-08
5.83131e-06
1.94531e-05
3.05004e-05
3.75078e-05
4.17133e-05
4.42013e-05
4.56727e-05
4.65312e-05
4.69887e-05
4.71493e-05
4.7066e-05
4.6775e-05
4.63116e-05
4.57171e-05
4.50392e-05
4.43304e-05
4.35787e-05
4.28833e-05
4.24063e-05
4.18808e-05
4.19383e-05
4.22642e-05
4.28698e-05
4.35643e-05
4.43032e-05
4.50407e-05
4.57636e-05
4.64184e-05
4.70269e-05
4.75945e-05
4.80946e-05
4.85281e-05
4.89097e-05
4.92446e-05
4.95419e-05
4.98367e-05
5.00762e-05
5.0232e-05
5.04403e-05
5.0595e-05
5.06928e-05
5.07611e-05
5.07828e-05
5.07612e-05
5.06906e-05
5.0569e-05
5.03959e-05
5.01713e-05
4.9895e-05
4.95663e-05
4.91852e-05
4.87526e-05
4.82599e-05
4.77116e-05
4.71277e-05
4.65168e-05
4.5905e-05
4.53299e-05
4.48361e-05
4.44371e-05
4.40754e-05
4.38601e-05
4.37558e-05
4.37203e-05
4.34855e-05
4.29722e-05
4.23196e-05
4.17637e-05
4.06864e-05
3.85466e-05
3.57122e-05
3.2241e-05
2.82561e-05
2.39256e-05
1.94114e-05
1.47361e-05
9.40436e-06
2.92139e-06
2.53013e-08
6.81039e-08
6.981e-06
2.22781e-05
3.41717e-05
4.14905e-05
4.57445e-05
4.81561e-05
4.94939e-05
5.01925e-05
5.04763e-05
5.0454e-05
5.01821e-05
4.97007e-05
4.90518e-05
4.82851e-05
4.74593e-05
4.64768e-05
4.56541e-05
4.50581e-05
4.446e-05
4.43911e-05
4.46785e-05
4.5073e-05
4.55434e-05
4.60613e-05
4.66186e-05
4.7184e-05
4.77078e-05
4.81803e-05
4.86171e-05
4.90203e-05
4.93853e-05
4.97232e-05
5.00447e-05
5.03534e-05
5.06522e-05
5.09655e-05
5.12127e-05
5.13952e-05
5.16654e-05
5.18571e-05
5.19959e-05
5.21016e-05
5.21566e-05
5.21655e-05
5.2124e-05
5.20337e-05
5.18934e-05
5.17011e-05
5.1455e-05
5.1152e-05
5.07875e-05
5.03553e-05
4.98497e-05
4.92632e-05
4.85878e-05
4.78132e-05
4.69319e-05
4.5951e-05
4.48967e-05
4.3879e-05
4.3084e-05
4.24721e-05
4.20545e-05
4.18151e-05
4.17605e-05
4.17605e-05
4.12464e-05
4.06443e-05
4.01106e-05
3.90395e-05
3.67033e-05
3.35641e-05
2.9713e-05
2.53187e-05
2.05743e-05
1.56013e-05
9.97521e-06
3.21333e-06
2.9102e-08
8.50842e-08
8.15114e-06
2.50157e-05
3.76809e-05
4.52738e-05
4.95555e-05
5.18751e-05
5.30636e-05
5.35844e-05
5.36743e-05
5.34484e-05
5.2968e-05
5.22792e-05
5.1432e-05
5.04855e-05
4.93092e-05
4.83688e-05
4.75896e-05
4.68914e-05
4.66773e-05
4.67508e-05
4.68855e-05
4.71325e-05
4.7508e-05
4.79087e-05
4.83234e-05
4.87293e-05
4.91071e-05
4.94645e-05
4.98149e-05
5.01629e-05
5.05126e-05
5.08712e-05
5.12401e-05
5.16422e-05
5.20537e-05
5.23694e-05
5.26779e-05
5.30445e-05
5.33634e-05
5.36108e-05
5.38152e-05
5.3969e-05
5.40656e-05
5.41063e-05
5.40889e-05
5.40146e-05
5.38819e-05
5.36914e-05
5.34437e-05
5.31389e-05
5.27753e-05
5.23468e-05
5.18503e-05
5.12779e-05
5.06172e-05
4.98584e-05
4.89773e-05
4.79681e-05
4.68315e-05
4.55606e-05
4.41563e-05
4.26732e-05
4.14613e-05
4.0717e-05
4.0283e-05
4.01503e-05
4.01721e-05
3.97041e-05
3.91247e-05
3.8567e-05
3.73698e-05
3.4745e-05
3.12182e-05
2.69335e-05
2.20657e-05
1.68006e-05
1.08374e-05
3.66496e-06
3.56779e-08
1.03881e-07
9.31828e-06
2.76341e-05
4.10086e-05
4.88503e-05
5.31482e-05
5.53668e-05
5.63945e-05
5.67227e-05
5.6602e-05
5.61555e-05
5.54509e-05
5.45414e-05
5.34862e-05
5.21402e-05
5.10371e-05
5.01099e-05
4.92172e-05
4.88224e-05
4.85894e-05
4.84831e-05
4.85596e-05
4.87435e-05
4.90039e-05
4.92877e-05
4.95861e-05
4.98917e-05
5.02046e-05
5.05372e-05
5.08995e-05
5.12941e-05
5.17216e-05
5.21878e-05
5.27273e-05
5.3232e-05
5.36299e-05
5.40854e-05
5.45982e-05
5.50215e-05
5.53966e-05
5.57104e-05
5.59678e-05
5.61607e-05
5.62861e-05
5.63428e-05
5.63292e-05
5.62454e-05
5.60918e-05
5.58704e-05
5.55837e-05
5.52349e-05
5.48283e-05
5.43692e-05
5.38514e-05
5.32687e-05
5.26091e-05
5.18655e-05
5.09985e-05
5.00076e-05
4.88763e-05
4.75974e-05
4.62053e-05
4.46715e-05
4.29538e-05
4.10891e-05
3.96901e-05
3.90202e-05
3.87085e-05
3.87162e-05
3.82487e-05
3.765e-05
3.70457e-05
3.55144e-05
3.24916e-05
2.85291e-05
2.37227e-05
1.8275e-05
1.1999e-05
4.29363e-06
4.60841e-08
1.24206e-07
1.0461e-05
3.01056e-05
4.41359e-05
5.22097e-05
5.65189e-05
5.86324e-05
5.94922e-05
5.96172e-05
5.92736e-05
5.85947e-05
5.76558e-05
5.6515e-05
5.50238e-05
5.37123e-05
5.2681e-05
5.15441e-05
5.08987e-05
5.03696e-05
5.00159e-05
4.9874e-05
4.98775e-05
4.99777e-05
5.01406e-05
5.03434e-05
5.05847e-05
5.08686e-05
5.1202e-05
5.15936e-05
5.20458e-05
5.25537e-05
5.31635e-05
5.38171e-05
5.43896e-05
5.49346e-05
5.5518e-05
5.61693e-05
5.67214e-05
5.72199e-05
5.76586e-05
5.80316e-05
5.83354e-05
5.85643e-05
5.87155e-05
5.87872e-05
5.87782e-05
5.86886e-05
5.85195e-05
5.82729e-05
5.79517e-05
5.7559e-05
5.70979e-05
5.65708e-05
5.59785e-05
5.53223e-05
5.46034e-05
5.37914e-05
5.28563e-05
5.18162e-05
5.06696e-05
4.94134e-05
4.80553e-05
4.66181e-05
4.49548e-05
4.31262e-05
4.10294e-05
3.88877e-05
3.78479e-05
3.73647e-05
3.73028e-05
3.67932e-05
3.61806e-05
3.54765e-05
3.32955e-05
2.98529e-05
2.53019e-05
1.98399e-05
1.33634e-05
5.06753e-06
6.10965e-08
1.45654e-07
1.15601e-05
3.24069e-05
4.70454e-05
5.53409e-05
5.96618e-05
6.16709e-05
6.23599e-05
6.22757e-05
6.17022e-05
6.07865e-05
5.96121e-05
5.80219e-05
5.64371e-05
5.5352e-05
5.39625e-05
5.30016e-05
5.21773e-05
5.15514e-05
5.11668e-05
5.09677e-05
5.09005e-05
5.09315e-05
5.1039e-05
5.12176e-05
5.1472e-05
5.18091e-05
5.22332e-05
5.27438e-05
5.33326e-05
5.40772e-05
5.48433e-05
5.5504e-05
5.6183e-05
5.68914e-05
5.76712e-05
5.83743e-05
5.90032e-05
5.95764e-05
6.00813e-05
6.0513e-05
6.08661e-05
6.11359e-05
6.1319e-05
6.1413e-05
6.14165e-05
6.13292e-05
6.1152e-05
6.08871e-05
6.05375e-05
6.01072e-05
5.96007e-05
5.9022e-05
5.83742e-05
5.76583e-05
5.68719e-05
5.60217e-05
5.51605e-05
5.41479e-05
5.2913e-05
5.1478e-05
4.98929e-05
4.82041e-05
4.6583e-05
4.49622e-05
4.3061e-05
4.08651e-05
3.83494e-05
3.67214e-05
3.60772e-05
3.57192e-05
3.53325e-05
3.4684e-05
3.35341e-05
3.07315e-05
2.65909e-05
2.12892e-05
1.47712e-05
5.91223e-06
8.08936e-08
1.67757e-07
1.25991e-05
3.45194e-05
4.9723e-05
5.82339e-05
6.25713e-05
6.44808e-05
6.50007e-05
6.47057e-05
6.38997e-05
6.27509e-05
6.12102e-05
5.93441e-05
5.8077e-05
5.65567e-05
5.52205e-05
5.40959e-05
5.31697e-05
5.25108e-05
5.20789e-05
5.18238e-05
5.17059e-05
5.17042e-05
5.18099e-05
5.20256e-05
5.23562e-05
5.28034e-05
5.33612e-05
5.403e-05
5.48834e-05
5.57529e-05
5.65225e-05
5.73389e-05
5.81697e-05
5.90397e-05
5.9918e-05
6.06894e-05
6.14055e-05
6.20561e-05
6.26328e-05
6.31296e-05
6.35404e-05
6.38603e-05
6.40849e-05
6.42108e-05
6.42357e-05
6.41582e-05
6.39785e-05
6.36984e-05
6.33211e-05
6.28516e-05
6.22961e-05
6.16615e-05
6.09546e-05
6.01807e-05
5.93423e-05
5.84369e-05
5.74542e-05
5.64471e-05
5.54026e-05
5.41112e-05
5.24745e-05
5.06202e-05
4.85354e-05
4.64602e-05
4.46124e-05
4.27676e-05
4.03722e-05
3.763e-05
3.54925e-05
3.46251e-05
3.4123e-05
3.38783e-05
3.27068e-05
3.10853e-05
2.74592e-05
2.24783e-05
1.60393e-05
6.73243e-06
1.04894e-07
1.90019e-07
1.3564e-05
3.64292e-05
5.21572e-05
6.0881e-05
6.52431e-05
6.70622e-05
6.74194e-05
6.69157e-05
6.58704e-05
6.44537e-05
6.24542e-05
6.08387e-05
5.92812e-05
5.76179e-05
5.62005e-05
5.49474e-05
5.39798e-05
5.32776e-05
5.28e-05
5.25066e-05
5.23712e-05
5.23828e-05
5.25401e-05
5.28456e-05
5.32982e-05
5.38893e-05
5.46102e-05
5.55504e-05
5.65295e-05
5.74009e-05
5.83445e-05
5.93179e-05
6.02859e-05
6.12609e-05
6.22362e-05
6.30985e-05
6.39057e-05
6.46412e-05
6.52977e-05
6.58686e-05
6.63471e-05
6.67273e-05
6.70036e-05
6.71712e-05
6.72262e-05
6.71659e-05
6.69892e-05
6.66966e-05
6.62909e-05
6.57773e-05
6.51632e-05
6.44579e-05
6.36722e-05
6.28167e-05
6.19002e-05
6.09275e-05
5.98965e-05
5.87957e-05
5.76322e-05
5.64983e-05
5.51832e-05
5.34089e-05
5.13026e-05
4.88557e-05
4.63884e-05
4.41276e-05
4.21251e-05
3.96525e-05
3.66655e-05
3.42341e-05
3.31706e-05
3.23944e-05
3.19253e-05
3.06448e-05
2.78601e-05
2.33057e-05
1.7076e-05
7.44896e-06
1.3192e-07
2.11943e-07
1.4444e-05
3.81264e-05
5.43403e-05
6.32766e-05
6.76749e-05
6.94168e-05
6.96236e-05
6.89248e-05
6.76617e-05
6.57523e-05
6.37292e-05
6.21983e-05
6.02203e-05
5.85465e-05
5.69552e-05
5.56466e-05
5.46325e-05
5.38891e-05
5.33804e-05
5.3077e-05
5.29629e-05
5.30332e-05
5.32865e-05
5.37193e-05
5.4321e-05
5.50735e-05
5.60654e-05
5.71404e-05
5.81387e-05
5.91696e-05
6.02678e-05
6.13802e-05
6.24858e-05
6.3564e-05
6.45911e-05
6.55821e-05
6.64858e-05
6.7316e-05
6.80601e-05
6.87133e-05
6.92681e-05
6.97173e-05
7.00543e-05
7.02726e-05
7.03668e-05
7.03324e-05
7.01663e-05
6.98674e-05
6.94372e-05
6.88797e-05
6.82024e-05
6.74158e-05
6.65334e-05
6.55709e-05
6.45441e-05
6.34672e-05
6.23491e-05
6.11904e-05
5.99794e-05
5.86866e-05
5.74094e-05
5.60305e-05
5.41649e-05
5.17444e-05
4.9088e-05
4.63355e-05
4.36477e-05
4.1277e-05
3.86446e-05
3.53108e-05
3.28111e-05
3.16564e-05
3.06077e-05
2.98194e-05
2.78906e-05
2.37531e-05
1.78174e-05
7.98685e-06
1.60628e-07
2.33061e-07
1.52312e-05
3.96057e-05
5.62682e-05
6.54184e-05
6.98665e-05
7.15467e-05
7.16167e-05
7.07359e-05
6.92008e-05
6.69265e-05
6.51913e-05
6.32518e-05
6.11756e-05
5.92519e-05
5.75816e-05
5.62154e-05
5.51574e-05
5.43842e-05
5.38672e-05
5.35863e-05
5.35314e-05
5.36976e-05
5.40781e-05
5.46598e-05
5.54218e-05
5.64246e-05
5.75798e-05
5.87123e-05
5.9819e-05
6.10198e-05
6.22578e-05
6.34987e-05
6.47222e-05
6.59102e-05
6.70483e-05
6.81107e-05
6.91089e-05
7.00543e-05
7.08936e-05
7.16337e-05
7.22692e-05
7.27928e-05
7.31964e-05
7.34727e-05
7.36145e-05
7.36157e-05
7.34711e-05
7.31774e-05
7.27337e-05
7.21419e-05
7.14077e-05
7.05412e-05
6.95566e-05
6.84722e-05
6.73096e-05
6.60909e-05
6.48363e-05
6.35593e-05
6.22625e-05
6.09327e-05
5.95366e-05
5.81286e-05
5.66805e-05
5.45767e-05
5.18522e-05
4.9088e-05
4.61341e-05
4.29841e-05
4.02242e-05
3.72778e-05
3.35585e-05
3.11306e-05
2.96826e-05
2.9063e-05
2.72909e-05
2.38447e-05
1.82325e-05
8.32928e-06
1.9016e-07
2.52956e-07
1.59206e-05
4.08653e-05
5.794e-05
6.73067e-05
7.18209e-05
7.34593e-05
7.34119e-05
7.23607e-05
7.03835e-05
6.81627e-05
6.63689e-05
6.40767e-05
6.19021e-05
5.98497e-05
5.80993e-05
5.66779e-05
5.55847e-05
5.47995e-05
5.43006e-05
5.40737e-05
5.411e-05
5.43995e-05
5.49264e-05
5.56671e-05
5.66319e-05
5.78405e-05
5.9103e-05
6.02908e-05
6.15684e-05
6.29171e-05
6.42859e-05
6.56486e-05
6.69862e-05
6.82821e-05
6.9523e-05
7.06973e-05
7.17819e-05
7.27941e-05
7.37541e-05
7.45831e-05
7.52985e-05
7.58965e-05
7.63686e-05
7.67068e-05
7.69028e-05
7.6949e-05
7.68384e-05
7.65653e-05
7.61256e-05
7.55183e-05
7.47458e-05
7.38155e-05
7.27397e-05
7.15372e-05
7.02318e-05
6.88518e-05
6.74271e-05
6.59847e-05
6.45436e-05
6.31084e-05
6.16634e-05
6.0168e-05
5.86512e-05
5.7094e-05
5.46374e-05
5.16369e-05
4.88562e-05
4.55408e-05
4.20588e-05
3.88848e-05
3.55016e-05
3.15476e-05
2.92617e-05
2.75043e-05
2.65733e-05
2.37514e-05
1.83896e-05
8.53391e-06
2.19876e-07
2.71244e-07
1.65091e-05
4.19074e-05
5.93579e-05
6.89444e-05
7.35414e-05
7.51579e-05
7.50104e-05
7.37801e-05
7.14862e-05
6.95067e-05
6.73447e-05
6.48893e-05
6.25014e-05
6.03523e-05
5.85278e-05
5.70584e-05
5.59432e-05
5.5166e-05
5.47107e-05
5.45647e-05
5.47156e-05
5.51454e-05
5.58291e-05
5.6736e-05
5.79269e-05
5.92654e-05
6.05977e-05
6.19175e-05
6.33528e-05
6.48363e-05
6.63294e-05
6.78091e-05
6.92571e-05
7.06582e-05
7.19996e-05
7.32702e-05
7.44604e-05
7.55364e-05
7.65654e-05
7.75006e-05
7.82897e-05
7.89567e-05
7.94941e-05
7.98938e-05
8.01473e-05
8.0246e-05
8.01815e-05
7.99455e-05
7.95311e-05
7.89333e-05
7.81504e-05
7.71849e-05
7.60453e-05
7.47469e-05
7.33129e-05
7.17739e-05
7.01663e-05
6.85288e-05
6.68963e-05
6.5293e-05
6.37241e-05
6.21689e-05
6.05761e-05
5.89793e-05
5.71625e-05
5.42879e-05
5.12755e-05
4.82526e-05
4.45253e-05
4.0732e-05
3.7191e-05
3.31821e-05
2.94117e-05
2.69832e-05
2.59449e-05
2.355e-05
1.83927e-05
8.70385e-06
2.51716e-07
2.87605e-07
1.69964e-05
4.27366e-05
6.05273e-05
7.03374e-05
7.5037e-05
7.66603e-05
7.64551e-05
7.49239e-05
7.25355e-05
7.06167e-05
6.81099e-05
6.55201e-05
6.30177e-05
6.07777e-05
5.88871e-05
5.73796e-05
5.62572e-05
5.55081e-05
5.51185e-05
5.50737e-05
5.53543e-05
5.59328e-05
5.67742e-05
5.78704e-05
5.92338e-05
6.06772e-05
6.20925e-05
6.357e-05
6.51464e-05
6.67562e-05
6.83673e-05
6.9958e-05
7.15106e-05
7.30103e-05
7.44444e-05
7.58021e-05
7.70742e-05
7.82262e-05
7.92842e-05
8.03147e-05
8.11707e-05
8.18963e-05
8.24906e-05
8.29468e-05
8.32568e-05
8.34119e-05
8.34026e-05
8.3219e-05
8.28513e-05
8.22907e-05
8.15303e-05
8.05668e-05
7.94025e-05
7.80465e-05
7.65175e-05
7.4844e-05
7.30645e-05
7.12253e-05
6.93753e-05
6.75582e-05
6.58026e-05
6.41116e-05
6.24546e-05
6.07643e-05
5.91206e-05
5.68873e-05
5.36124e-05
5.06615e-05
4.72259e-05
4.30222e-05
3.89218e-05
3.50422e-05
3.03582e-05
2.69433e-05
2.45706e-05
2.29909e-05
1.83377e-05
8.98224e-06
2.89966e-07
3.01822e-07
1.73841e-05
4.33601e-05
6.14556e-05
7.14928e-05
7.63126e-05
7.79612e-05
7.77e-05
7.59244e-05
7.36955e-05
7.1577e-05
6.88662e-05
6.6085e-05
6.34687e-05
6.11441e-05
5.91959e-05
5.76615e-05
5.65467e-05
5.58428e-05
5.55357e-05
5.56053e-05
5.60228e-05
5.67513e-05
5.77485e-05
5.9037e-05
6.05274e-05
6.20719e-05
6.35918e-05
6.52225e-05
6.69278e-05
6.86556e-05
7.03768e-05
7.207e-05
7.37173e-05
7.53037e-05
7.68163e-05
7.8244e-05
7.95773e-05
8.08011e-05
8.18904e-05
8.29455e-05
8.38711e-05
8.46417e-05
8.52802e-05
8.57832e-05
8.61441e-05
8.63548e-05
8.64058e-05
8.62863e-05
8.59841e-05
8.54867e-05
8.47825e-05
8.38616e-05
8.27185e-05
8.13542e-05
7.9779e-05
7.8015e-05
7.60976e-05
7.40753e-05
7.20063e-05
6.99515e-05
6.79636e-05
6.60737e-05
6.42775e-05
6.2524e-05
6.07066e-05
5.89783e-05
5.61234e-05
5.28499e-05
4.9664e-05
4.56772e-05
4.09955e-05
3.65088e-05
3.21018e-05
2.74311e-05
2.40658e-05
2.25251e-05
1.83779e-05
9.45379e-06
3.38994e-07
3.13767e-07
1.76753e-05
4.3787e-05
6.21521e-05
7.24193e-05
7.7377e-05
7.90723e-05
7.87742e-05
7.68289e-05
7.46868e-05
7.23429e-05
6.94811e-05
6.65876e-05
6.38701e-05
6.14686e-05
5.94713e-05
5.79205e-05
5.68261e-05
5.61809e-05
5.59675e-05
5.61582e-05
5.67147e-05
5.75921e-05
5.87436e-05
6.01946e-05
6.17951e-05
6.34391e-05
6.50852e-05
6.68525e-05
6.86761e-05
7.05124e-05
7.23333e-05
7.41171e-05
7.58455e-05
7.7503e-05
7.90767e-05
8.05559e-05
8.19321e-05
8.31987e-05
8.43139e-05
8.53535e-05
8.63296e-05
8.713e-05
8.77971e-05
8.83333e-05
8.87349e-05
8.89958e-05
8.91071e-05
8.9058e-05
8.88351e-05
8.84231e-05
8.78057e-05
8.69668e-05
8.58925e-05
8.45741e-05
8.30109e-05
8.12147e-05
7.92123e-05
7.70484e-05
7.47841e-05
7.24927e-05
7.02487e-05
6.81141e-05
6.61208e-05
6.42574e-05
6.24616e-05
6.06206e-05
5.84609e-05
5.50153e-05
5.18687e-05
4.82496e-05
4.35169e-05
3.84637e-05
3.37004e-05
2.85003e-05
2.42762e-05
2.18883e-05
1.84918e-05
1.00033e-05
3.97884e-07
3.23383e-07
1.78747e-05
4.40283e-05
6.26286e-05
7.31302e-05
7.82506e-05
8.00419e-05
7.97161e-05
7.76359e-05
7.56347e-05
7.30726e-05
7.00504e-05
6.70465e-05
6.42373e-05
6.17663e-05
5.97278e-05
5.81696e-05
5.71054e-05
5.65278e-05
5.64139e-05
5.67272e-05
5.74201e-05
5.84396e-05
5.97405e-05
6.13239e-05
6.30272e-05
6.47757e-05
6.65516e-05
6.84395e-05
7.03701e-05
7.23034e-05
7.42113e-05
7.6071e-05
7.7864e-05
7.95743e-05
8.11893e-05
8.26991e-05
8.40961e-05
8.53757e-05
8.65037e-05
8.75031e-05
8.84962e-05
8.93139e-05
8.99919e-05
9.05448e-05
9.09734e-05
9.12742e-05
9.14406e-05
9.14626e-05
9.13267e-05
9.1016e-05
9.05105e-05
8.97883e-05
8.88275e-05
8.76088e-05
8.61193e-05
8.4357e-05
8.23359e-05
8.00903e-05
7.76774e-05
7.51749e-05
7.26737e-05
7.02624e-05
6.80068e-05
6.59283e-05
6.39878e-05
6.20795e-05
6.0195e-05
5.72462e-05
5.38107e-05
5.05125e-05
4.62475e-05
4.05554e-05
3.53669e-05
3.01409e-05
2.48721e-05
2.08457e-05
1.8497e-05
1.03883e-05
4.60915e-07
3.30688e-07
1.79883e-05
4.41056e-05
6.2898e-05
7.36424e-05
7.89565e-05
8.08882e-05
8.04507e-05
7.83343e-05
7.64634e-05
7.36726e-05
7.0572e-05
6.7475e-05
6.45838e-05
6.20506e-05
5.99775e-05
5.84186e-05
5.73908e-05
5.68849e-05
5.68713e-05
5.73039e-05
5.81261e-05
5.92778e-05
6.07214e-05
6.24134e-05
6.42154e-05
6.60725e-05
6.79696e-05
6.9964e-05
7.19889e-05
7.4007e-05
7.5987e-05
7.79038e-05
7.97438e-05
8.14886e-05
8.31239e-05
8.46431e-05
8.60388e-05
8.73044e-05
8.84395e-05
8.94066e-05
9.0338e-05
9.11629e-05
9.18339e-05
9.23851e-05
9.28239e-05
9.31507e-05
9.33621e-05
9.34502e-05
9.34026e-05
9.3202e-05
9.28261e-05
9.22483e-05
9.14394e-05
9.03698e-05
8.90136e-05
8.73533e-05
8.53864e-05
8.31318e-05
8.06351e-05
7.79709e-05
7.52389e-05
7.25507e-05
7.00082e-05
6.76772e-05
6.55628e-05
6.3596e-05
6.16378e-05
5.93476e-05
5.57016e-05
5.24508e-05
4.86105e-05
4.31372e-05
3.70521e-05
3.15971e-05
2.58252e-05
2.08054e-05
1.82942e-05
1.0822e-05
5.29199e-07
3.35724e-07
1.802e-05
4.40387e-05
6.29666e-05
7.39699e-05
7.95164e-05
8.14853e-05
8.09367e-05
7.90776e-05
7.71827e-05
7.42409e-05
7.10615e-05
6.78853e-05
6.49216e-05
6.23328e-05
6.02299e-05
5.86742e-05
5.76852e-05
5.72508e-05
5.7334e-05
5.78793e-05
5.88222e-05
6.00973e-05
6.16647e-05
6.34537e-05
6.53507e-05
6.73135e-05
6.93226e-05
7.14111e-05
7.3509e-05
7.5595e-05
7.76333e-05
7.95952e-05
8.14634e-05
8.32215e-05
8.48569e-05
8.63663e-05
8.77505e-05
8.89837e-05
9.0088e-05
9.10195e-05
9.18574e-05
9.26635e-05
9.33103e-05
9.3841e-05
9.42713e-05
9.46072e-05
9.48494e-05
9.49934e-05
9.50292e-05
9.49405e-05
9.4704e-05
9.42899e-05
9.3663e-05
9.27844e-05
9.16151e-05
9.01217e-05
8.82828e-05
8.60974e-05
8.35936e-05
8.08342e-05
7.79183e-05
7.4972e-05
7.21283e-05
6.94961e-05
6.71263e-05
6.49853e-05
6.29483e-05
6.09411e-05
5.76508e-05
5.41228e-05
5.08172e-05
4.57923e-05
3.89985e-05
3.31102e-05
2.69409e-05
2.13646e-05
1.80629e-05
1.13175e-05
5.99106e-07
3.38856e-07
1.79715e-05
4.3821e-05
6.28387e-05
7.41022e-05
7.97597e-05
8.18143e-05
8.14615e-05
7.97809e-05
7.77601e-05
7.47673e-05
7.15292e-05
6.82878e-05
6.52611e-05
6.26223e-05
6.04928e-05
5.89411e-05
5.79896e-05
5.76226e-05
5.77955e-05
5.84443e-05
5.94974e-05
6.0885e-05
6.25586e-05
6.44359e-05
6.64206e-05
6.84761e-05
7.05881e-05
7.27505e-05
7.49192e-05
7.7058e-05
7.9136e-05
8.11247e-05
8.30048e-05
8.47606e-05
8.63812e-05
8.78605e-05
8.91932e-05
9.03992e-05
9.14525e-05
9.23388e-05
9.30729e-05
9.38139e-05
9.44242e-05
9.49163e-05
9.53191e-05
9.56455e-05
9.59015e-05
9.60871e-05
9.6196e-05
9.62141e-05
9.6119e-05
9.58793e-05
9.54551e-05
9.47997e-05
9.38623e-05
9.25934e-05
9.09518e-05
8.89142e-05
8.64856e-05
8.37098e-05
8.06754e-05
7.75136e-05
7.43817e-05
7.14318e-05
6.87693e-05
6.64141e-05
6.42815e-05
6.21949e-05
5.95221e-05
5.56675e-05
5.26174e-05
4.80825e-05
4.14738e-05
3.45803e-05
2.84053e-05
2.18557e-05
1.75774e-05
1.18521e-05
6.64302e-07
3.39668e-07
1.78468e-05
4.34313e-05
6.25102e-05
7.40388e-05
7.99029e-05
8.22046e-05
8.19288e-05
8.03413e-05
7.82709e-05
7.52615e-05
7.19843e-05
6.86918e-05
6.56112e-05
6.29271e-05
6.0772e-05
5.92224e-05
5.83035e-05
5.79963e-05
5.82491e-05
5.899e-05
6.01413e-05
6.16291e-05
6.3393e-05
6.53496e-05
6.74129e-05
6.95505e-05
7.1746e-05
7.39753e-05
7.61981e-05
7.83765e-05
8.04794e-05
8.24797e-05
8.43569e-05
8.60961e-05
8.76867e-05
8.91232e-05
9.04036e-05
9.15307e-05
9.2525e-05
9.3376e-05
9.40234e-05
9.46345e-05
9.51939e-05
9.56303e-05
9.59871e-05
9.6285e-05
9.65361e-05
9.67462e-05
9.69134e-05
9.70277e-05
9.70687e-05
9.70053e-05
9.67949e-05
9.63847e-05
9.57135e-05
9.4717e-05
9.33343e-05
9.1518e-05
8.92468e-05
8.65388e-05
8.34635e-05
8.01456e-05
7.67564e-05
7.34845e-05
7.04901e-05
6.78519e-05
6.55267e-05
6.33333e-05
6.11812e-05
5.73346e-05
5.40892e-05
5.0257e-05
4.39317e-05
3.62298e-05
2.9701e-05
2.29316e-05
1.71844e-05
1.2379e-05
7.18657e-07
3.38847e-07
1.76703e-05
4.29734e-05
6.21954e-05
7.38511e-05
7.99823e-05
8.24343e-05
8.2269e-05
8.08164e-05
7.87299e-05
7.57311e-05
7.24346e-05
6.91053e-05
6.59796e-05
6.3254e-05
6.10724e-05
5.95203e-05
5.86259e-05
5.8368e-05
5.86883e-05
5.95083e-05
6.07443e-05
6.2318e-05
6.4157e-05
6.61805e-05
6.83153e-05
7.05264e-05
7.27888e-05
7.50711e-05
7.73334e-05
7.95379e-05
8.16529e-05
8.36517e-05
8.55139e-05
8.72247e-05
8.87744e-05
9.0158e-05
9.1375e-05
9.24295e-05
9.33285e-05
9.4108e-05
9.4707e-05
9.51672e-05
9.56487e-05
9.60138e-05
9.63077e-05
9.65589e-05
9.67865e-05
9.70023e-05
9.72104e-05
9.74055e-05
9.75714e-05
9.76785e-05
9.76838e-05
9.75301e-05
9.71483e-05
9.64605e-05
9.53874e-05
9.38575e-05
9.1821e-05
8.92656e-05
8.62336e-05
8.28328e-05
7.92364e-05
7.56607e-05
7.23192e-05
6.93609e-05
6.68135e-05
6.45585e-05
6.23433e-05
5.90102e-05
5.53598e-05
5.20308e-05
4.61727e-05
3.81366e-05
3.09431e-05
2.39089e-05
1.73963e-05
1.28219e-05
7.57439e-07
3.36404e-07
1.74371e-05
4.24381e-05
6.16045e-05
7.34911e-05
7.98546e-05
8.25127e-05
8.25298e-05
8.12115e-05
7.91459e-05
7.61818e-05
7.28861e-05
6.95345e-05
6.63728e-05
6.36087e-05
6.13982e-05
5.98364e-05
5.89559e-05
5.87341e-05
5.91076e-05
5.99916e-05
6.12971e-05
6.29401e-05
6.48418e-05
6.69237e-05
6.91196e-05
7.13907e-05
7.37051e-05
7.60267e-05
7.83156e-05
8.05339e-05
8.26497e-05
8.46366e-05
8.64743e-05
8.81483e-05
8.96492e-05
9.0973e-05
9.21198e-05
9.30945e-05
9.3906e-05
9.45674e-05
9.51143e-05
9.54651e-05
9.58205e-05
9.61054e-05
9.63228e-05
9.65114e-05
9.66978e-05
9.69007e-05
9.71306e-05
9.73885e-05
9.76631e-05
9.79285e-05
9.81428e-05
9.82473e-05
9.81665e-05
9.78117e-05
9.70868e-05
9.58971e-05
9.41637e-05
9.18412e-05
8.89381e-05
8.55356e-05
8.17959e-05
7.79507e-05
7.42585e-05
7.09366e-05
6.80852e-05
6.56387e-05
6.33744e-05
6.05791e-05
5.65932e-05
5.35344e-05
4.82426e-05
4.03976e-05
3.21936e-05
2.48757e-05
1.77005e-05
1.31432e-05
7.79363e-07
3.32337e-07
1.71804e-05
4.17318e-05
6.08483e-05
7.29832e-05
7.96022e-05
8.2486e-05
8.27139e-05
8.15335e-05
7.95249e-05
7.66182e-05
7.33434e-05
6.99847e-05
6.67961e-05
6.3996e-05
6.1753e-05
6.01726e-05
5.9293e-05
5.90919e-05
5.95023e-05
6.04339e-05
6.17925e-05
6.3489e-05
6.54408e-05
6.75707e-05
6.9816e-05
7.21333e-05
7.44857e-05
7.68339e-05
7.91377e-05
8.13593e-05
8.34667e-05
8.54336e-05
8.724e-05
8.88715e-05
9.03193e-05
9.15795e-05
9.26529e-05
9.3545e-05
9.42651e-05
9.48265e-05
9.52575e-05
9.55575e-05
9.57565e-05
9.59507e-05
9.60802e-05
9.61932e-05
9.63233e-05
9.64961e-05
9.67292e-05
9.70301e-05
9.73939e-05
9.78001e-05
9.821e-05
9.8565e-05
9.87864e-05
9.87769e-05
9.84259e-05
9.76174e-05
9.62444e-05
9.42266e-05
9.15347e-05
8.82146e-05
8.44059e-05
8.03416e-05