/*--------------------------------*- C++ -*----------------------------------*\
  =========                 |
  \\      /  F ield         | OpenFOAM: The Open Source CFD Toolbox
   \\    /   O peration     | Website:  https://openfoam.org
    \\  /    A nd           | Version:  13
     \\/     M anipulation  |
\*---------------------------------------------------------------------------*/
FoamFile
{
    format      ascii;
    class       volScalarField;
    location    "3.5";
    object      epsilon;
}
// * * * * * * * * * * * * * * * * * * * * * * * * * * * * * * * * * * * * * //

dimensions      [0 2 -3 0 0 0 0];

internalField   nonuniform List<scalar> 
1600
(
1.78759e-05
7.41139e-05
0.000155732
0.00019215
0.000203914
0.000220524
0.000259385
0.000317935
0.000377335
0.000440385
0.000582021
0.000820666
0.0010181
0.00117385
0.00138223
0.00164414
0.00192936
0.00221809
0.00253179
0.00285854
0.00321877
0.00360925
0.00405167
0.0045561
0.00516127
0.00580982
0.00639456
0.00694831
0.00738501
0.00762871
0.00771788
0.00745178
0.00668755
0.00543401
0.0038528
0.00221885
0.001017
0.000406574
0.000127516
2.61487e-05
8.2545e-05
9.93767e-05
0.000135444
0.000155853
0.000177668
0.000228999
0.000338891
0.000531789
0.000797871
0.00113428
0.00178682
0.00266195
0.00302328
0.00309103
0.00309159
0.00306458
0.00306149
0.00306195
0.00310963
0.0031782
0.00329463
0.0034409
0.00361288
0.003812
0.00405209
0.00433942
0.0046607
0.00501428
0.00536885
0.00563491
0.00575096
0.00575115
0.0053339
0.00457028
0.00329218
0.00190494
0.00081279
0.000347377
0.00012413
6.01396e-05
0.00021989
0.000227763
0.000259374
0.000297073
0.000385288
0.00059023
0.00100491
0.00171807
0.00267594
0.00329356
0.00345542
0.00326121
0.00299549
0.00285652
0.00270546
0.00256517
0.00246989
0.00241188
0.00238839
0.00238391
0.00241803
0.00247278
0.00257153
0.00270166
0.00285876
0.00304529
0.00326359
0.00351534
0.00380286
0.00412611
0.00445245
0.0046696
0.00474191
0.00445809
0.00380773
0.00247951
0.000849657
0.000253477
9.33844e-05
5.46552e-05
0.000476694
0.000432033
0.000486383
0.000605329
0.000883691
0.00145415
0.00236048
0.00316603
0.00345103
0.00337703
0.00313408
0.00274729
0.00241138
0.00215495
0.00200005
0.00191469
0.00187213
0.00185662
0.00185612
0.00189112
0.00194076
0.00200995
0.00209538
0.00219673
0.00231648
0.0024543
0.00261478
0.00279943
0.00300883
0.00324046
0.0034954
0.00376153
0.00405043
0.00421197
0.004202
0.00374491
0.0017335
0.000346766
8.32371e-05
4.29124e-05
0.000893284
0.000733468
0.000864384
0.00114087
0.00168292
0.00250913
0.00316961
0.00337291
0.00327205
0.00288601
0.00232718
0.00201606
0.00179427
0.00167025
0.00161039
0.00158646
0.00158202
0.00160556
0.00164578
0.00170131
0.00176447
0.00183688
0.00191712
0.00200785
0.00211226
0.00223366
0.00237679
0.00254432
0.00273622
0.0029463
0.00317521
0.003408
0.00364654
0.0039268
0.00419761
0.00426658
0.00363308
0.000992856
0.000145484
4.93441e-05
0.00152443
0.00116191
0.00138785
0.00181762
0.00247696
0.00303355
0.00321007
0.00313663
0.00263907
0.00207435
0.0017563
0.00156884
0.00146912
0.00142709
0.00141551
0.001426
0.00146204
0.00150885
0.0015639
0.00162399
0.00168837
0.00175799
0.00183491
0.0019222
0.00202371
0.00214383
0.00228775
0.00245908
0.00265971
0.00288766
0.00312023
0.00334729
0.00356481
0.00379346
0.00406484
0.00427928
0.0043012
0.00252809
0.000397493
8.48328e-05
0.00234381
0.00169567
0.0019805
0.00244857
0.00289765
0.00305887
0.00300573
0.00251963
0.00193023
0.00159555
0.00142019
0.00133462
0.00130102
0.00129394
0.00131084
0.00134486
0.00138695
0.00143187
0.00147916
0.00152872
0.00158182
0.00164128
0.00171052
0.00179396
0.00189674
0.00202486
0.00218455
0.00238078
0.00261553
0.00288427
0.00317361
0.00347039
0.00368955
0.00386613
0.00403879
0.00426839
0.00438097
0.00391642
0.000984826
0.000177153
0.00324679
0.00227318
0.00253245
0.00286109
0.0029931
0.002921
0.00250366
0.00188994
0.00150771
0.00132247
0.00123594
0.0012026
0.0011952
0.00120632
0.0012329
0.00126211
0.0012916
0.00132002
0.00134863
0.00137928
0.00141494
0.00145935
0.00151682
0.00159252
0.00169241
0.00182372
0.00199464
0.00221346
0.00248664
0.00281463
0.0031852
0.00357231
0.00395979
0.0041866
0.00432292
0.00442453
0.00449325
0.00436477
0.00203155
0.000379605
0.00405087
0.00280067
0.00295227
0.00304895
0.00293129
0.002573
0.00196126
0.00149066
0.0012656
0.00116342
0.00112228
0.00111096
0.00111152
0.00112705
0.00114281
0.0011556
0.00116529
0.00117314
0.00118176
0.00119408
0.00121375
0.00124439
0.00129012
0.00135584
0.00144768
0.00157352
0.00174332
0.00196902
0.0022632
0.00263531
0.00308426
0.0035863
0.00409353
0.00451108
0.00470284
0.00479161
0.00482337
0.00471348
0.00364491
0.00100211
0.00469133
0.0032144
0.00320296
0.00309423
0.00274478
0.00214627
0.0015639
0.00125582
0.00111735
0.00105862
0.00103744
0.00103228
0.00103257
0.00103605
0.00103633
0.00103046
0.00102173
0.00101279
0.0010083
0.00100736
0.00101595
0.00103686
0.00107293
0.0011284
0.00120889
0.0013222
0.00147916
0.00169438
0.00198604
0.0023736
0.00287103
0.00347302
0.00413367
0.00478504
0.00511735
0.005231
0.00524143
0.00505515
0.00456197
0.00207341
0.00510882
0.00348362
0.00333202
0.00303512
0.00245011
0.00177801
0.00131683
0.00110741
0.0010161
0.000977841
0.000962268
0.000955284
0.000948478
0.000938453
0.000922405
0.000901984
0.000880865
0.000861928
0.000849401
0.000844285
0.000845243
0.00086029
0.000889106
0.000935327
0.00100371
0.00110138
0.00123901
0.00143222
0.00170282
0.00207864
0.00258929
0.00325382
0.00405534
0.00490253
0.00554945
0.00577502
0.00579652
0.00552291
0.00499383
0.00321245
0.00536456
0.00362593
0.00332623
0.00289251
0.00215723
0.00150037
0.00115568
0.00100352
0.000937012
0.000907145
0.000892463
0.000879505
0.000862527
0.000840027
0.000812611
0.000783586
0.000756275
0.000733258
0.000717481
0.000710285
0.000708944
0.000719768
0.000743181
0.000781479
0.000838615
0.000920771
0.00103768
0.00120451
0.00144419
0.0017895
0.00228241
0.00296569
0.00385967
0.00491973
0.00591387
0.00634077
0.00640865
0.00609103
0.00566554
0.00429187
0.0053708
0.00364302
0.00326846
0.00269337
0.00189345
0.00131137
0.00104164
0.000923215
0.000869959
0.000844211
0.000826438
0.000805959
0.000779838
0.000748712
0.000715046
0.000682236
0.000652987
0.00062923
0.000612694
0.000604806
0.000602803
0.000610541
0.000629548
0.000661125
0.000708499
0.000776874
0.000874727
0.00101584
0.00122237
0.0015288
0.00198501
0.00265309
0.00358706
0.0047831
0.00610817
0.00692125
0.00709977
0.00671487
0.00605118
0.00523131
0.00530569
0.00360913
0.00314154
0.00248519
0.0016781
0.00117748
0.000955328
0.000857506
0.000812038
0.000787161
0.000764785
0.000737612
0.000705028
0.000669126
0.000632901
0.000599275
0.000570274
0.00054716
0.000530713
0.000522531
0.000520083
0.000525277
0.000540438
0.000566303
0.000605481
0.000662289
0.000743896
0.000862314
0.00103774
0.00130378
0.00171395
0.00234545
0.00328759
0.00459252
0.00617104
0.00746254
0.0078482
0.00747562
0.00669833
0.00618048
0.00514563
0.00352252
0.00297677
0.00228585
0.00151051
0.00107743
0.00088705
0.000802401
0.000761751
0.000735731
0.000708944
0.000676869
0.000640514
0.000602578
0.000565947
0.000532931
0.000504932
0.000482681
0.000466518
0.000457799
0.000454784
0.000457678
0.000469418
0.000490457
0.000522903
0.000570322
0.000638688
0.000738193
0.000886539
0.00111468
0.00147574
0.00205507
0.00297022
0.00433383
0.00614713
0.00793217
0.00861682
0.00826755
0.00729881
0.00706609
0.00487026
0.00339148
0.00280076
0.0021065
0.00138343
0.00100049
0.000831726
0.000755796
0.000718018
0.000690213
0.000659967
0.00062482
0.000586678
0.000548336
0.000512321
0.000480372
0.00045341
0.000431833
0.000415788
0.000406234
0.000402474
0.000403312
0.000412036
0.000429036
0.000456041
0.000496012
0.000553905
0.000638241
0.000764151
0.000959144
0.00127335
0.00179465
0.00266025
0.00403296
0.00598613
0.00827641
0.0093982
0.00921453
0.00801631
0.00797859
0.00454074
0.00324028
0.00262675
0.00195201
0.00128693
0.000940413
0.000786516
0.000716696
0.000680234
0.000650739
0.000618148
0.000581379
0.000542703
0.000504784
0.000469736
0.000438847
0.000412718
0.00039156
0.000375452
0.000364878
0.000360054
0.000359368
0.000365439
0.000379089
0.000401735
0.000435879
0.000485662
0.000558172
0.000666127
0.000833324
0.00110528
0.00156788
0.00237064
0.00372494
0.00579878
0.00844269
0.0101651
0.010207
0.00874387
0.00886096
0.00415987
0.00309348
0.00246564
0.00182231
0.00121404
0.000893581
0.000749704
0.000683942
0.000647895
0.0006171
0.000583151
0.000545763
0.00050728
0.000470139
0.000436094
0.000406116
0.000380606
0.000359686
0.000343402
0.00033185
0.000325757
0.000324003
0.000327846
0.000338739
0.000357897
0.000387504
0.000431096
0.00049461
0.000588658
0.00073345
0.000969166
0.00137637
0.00210844
0.00341349
0.00555548
0.0085045
0.0109269
0.0112797
0.00961089
0.0097737
0.00376678
0.00294987
0.00232072
0.00171585
0.00115998
0.000857761
0.000720082
0.000656592
0.000620449
0.0005888
0.000554268
0.000516926
0.000479038
0.000442803
0.0004097
0.000380489
0.00035546
0.000334682
0.000318172
0.000305975
0.000298697
0.000296008
0.000298112
0.000306766
0.000323122
0.000349176
0.000388066
0.000444871
0.000528465
0.000655802
0.000861577
0.00121907
0.0018792
0.00311603
0.00528566
0.00850981
0.0116098
0.0123891
0.0105419
0.010669
0.00334315
0.00282052
0.00219671
0.00163037
0.00112061
0.000831346
0.000696617
0.000633891
0.000597326
0.000565203
0.000530656
0.000493805
0.00045675
0.000421475
0.000389263
0.000360748
0.000336161
0.000315548
0.000298923
0.000286333
0.000278145
0.000274615
0.000275436
0.000282301
0.000296387
0.000319623
0.000354934
0.000406823
0.000482826
0.000597086
0.000779051
0.00109369
0.0016842
0.00283818
0.00499277
0.00842408
0.0122278
0.0135619
0.0115995
0.0115899
0.00300808
0.00270854
0.00209283
0.00156416
0.00109473
0.000813834
0.000678959
0.000615325
0.000577965
0.00054563
0.000511485
0.000475449
0.000439402
0.000405142
0.000373823
0.00034601
0.000321908
0.000301564
0.000284992
0.000272249
0.00026351
0.000259224
0.000259145
0.000264598
0.000276833
0.000297806
0.00033038
0.000378738
0.000449467
0.000554406
0.00071822
0.000997387
0.001524
0.00258815
0.00469527
0.00829096
0.0127586
0.0147716
0.0127485
0.012497
0.00272296
0.00260923
0.00201319
0.00151409
0.00107752
0.000804086
0.00066648
0.000600538
0.000561926
0.000529492
0.000496034
0.000461064
0.000426185
0.000393027
0.00036266
0.000335617
0.0003121
0.000292161
0.000275817
0.000263121
0.000254206
0.000249299
0.000248627
0.000252918
0.000263622
0.000282778
0.000313274
0.000359167
0.000426478
0.000525253
0.000675938
0.000926832
0.00139717
0.00237018
0.0044033
0.0081297
0.0131934
0.0160131
0.014046
0.0134189
0.00246982
0.0025199
0.00196315
0.00148179
0.00107509
0.00080514
0.000660674
0.000589788
0.00054903
0.000516332
0.000483694
0.00044999
0.000416446
0.000384518
0.000355212
0.000329054
0.000306262
0.000286887
0.000270931
0.000258427
0.000249489
0.000244359
0.000243494
0.000246984
0.000256486
0.000274281
0.000303135
0.000347324
0.000412842
0.000508522
0.000650695
0.000878669
0.00130116
0.00218568
0.00412153
0.0079331
0.0135399
0.0172632
0.015478
0.0143245
0.00223715
0.00244598
0.00193201
0.00146448
0.00107943
0.000811311
0.000661918
0.000583264
0.000539294
0.000506003
0.000474115
0.000441761
0.000409688
0.000379122
0.000351021
0.000325982
0.00030419
0.000285558
0.000270077
0.000257794
0.000248851
0.000243544
0.000242473
0.000245366
0.000253994
0.000270963
0.000298715
0.000341904
0.000406623
0.000501107
0.000639187
0.000852745
0.0012333
0.00203565
0.00385499
0.00769451
0.0138134
0.018517
0.0170584
0.015231
0.00201877
0.0023854
0.00192238
0.0014664
0.00109177
0.000825597
0.000667815
0.000583608
0.00053323
0.000498196
0.00046691
0.000435947
0.000405438
0.000376474
0.000350041
0.000326192
0.000305043
0.000286911
0.000271837
0.000259868
0.000251143
0.000245959
0.000244934
0.000247364
0.000254995
0.00027086
0.000297888
0.000340576
0.000405087
0.000499418
0.000636109
0.000842748
0.00119051
0.00191873
0.0036124
0.0074204
0.0139824
0.0197849
0.0187586
0.0161133
0.00181022
0.00233408
0.00192653
0.00147663
0.00111669
0.000850375
0.000681501
0.000587734
0.000533401
0.000494683
0.000462395
0.000432431
0.000403786
0.00037662
0.000351139
0.000328194
0.000308057
0.000290839
0.000276501
0.000265064
0.00025665
0.000251567
0.000250635
0.000252868
0.000259982
0.000275184
0.000301764
0.000344394
0.000409685
0.000505607
0.000642679
0.000842315
0.00117083
0.00183127
0.00339601
0.00711926
0.0140536
0.0210361
0.0205981
0.016977
0.00161011
0.00228515
0.00193836
0.00149924
0.00115146
0.000885081
0.000706139
0.000598703
0.000537046
0.000495703
0.000462564
0.00043269
0.000404624
0.000378333
0.000354245
0.000332766
0.000313967
0.000297751
0.000284159
0.000273232
0.000265093
0.000260074
0.000259292
0.00026148
0.000268403
0.000283379
0.000310077
0.000353309
0.000420095
0.000518725
0.000659009
0.000857816
0.00116667
0.0017691
0.00320599
0.00679598
0.01406
0.0222473
0.0225482
0.0178021
0.00141679
0.00223137
0.00196148
0.00153577
0.00119577
0.000929839
0.000741519
0.000621038
0.000547546
0.000500744
0.000465409
0.00043512
0.000407591
0.000382468
0.000359933
0.000339808
0.000322177
0.000306984
0.000294207
0.000283874
0.000276102
0.000271239
0.000270742
0.000273017
0.000280046
0.000295255
0.000322557
0.000366929
0.000435774
0.000537851
0.000682863
0.000884567
0.00118224
0.0017386
0.00304706
0.00646072
0.0138984
0.0233497
0.0246035
0.0185913
0.00123156
0.00215848
0.00197422
0.00157801
0.00124851
0.000985522
0.000789738
0.000656286
0.000569754
0.000513408
0.000473674
0.000441724
0.000414147
0.000389869
0.000368315
0.000349316
0.000332774
0.000318566
0.00030662
0.000296944
0.000289633
0.000285087
0.000285006
0.000287527
0.000294995
0.000310972
0.000339409
0.0003855
0.000456965
0.000563065
0.000713872
0.00092144
0.00121488
0.00172895
0.00291638
0.00612819
0.0136373
0.0242917
0.0267214
0.019331
0.00106224
0.00205626
0.0019635
0.00163019
0.00130626
0.00104967
0.000850702
0.000706437
0.00060707
0.000539455
0.000491692
0.000455734
0.00042665
0.000401929
0.000380618
0.000362221
0.000346425
0.000332995
0.000321778
0.000312757
0.000305957
0.000302008
0.00030232
0.000305416
0.000313717
0.000331061
0.000361219
0.000409663
0.000484335
0.000594963
0.000752306
0.000968086
0.00126336
0.00174143
0.002825
0.0058055
0.0132792
0.0251122
0.0288374
0.0200244
0.000916359
0.00191263
0.00192687
0.00169023
0.00137396
0.00112399
0.00092613
0.000774738
0.000663629
0.00058381
0.000526039
0.000482917
0.000449323
0.000422113
0.000399578
0.00038073
0.000364936
0.000351771
0.000340949
0.000332428
0.000326065
0.000322952
0.000323754
0.000327704
0.000337291
0.000356694
0.000389234
0.000440771
0.000519363
0.000635164
0.000799782
0.00102588
0.00132963
0.00178554
0.00278649
0.00550046
0.0127728
0.0257461
0.0308577
0.0206666
0.000801429
0.00170509
0.00187415
0.00171397
0.00143792
0.00120453
0.00101518
0.000862883
0.000743767
0.000652635
0.00058336
0.000530409
0.000489325
0.000456838
0.000430757
0.00040962
0.000392419
0.000378472
0.000367282
0.000358789
0.000352531
0.000350324
0.000351709
0.000356796
0.000368323
0.000390326
0.000426165
0.000481847
0.000565481
0.000687711
0.000861052
0.00110023
0.00141992
0.00186616
0.00278708
0.00529548
0.0122286
0.0262212
0.0326705
0.021275
0.000716987
0.00145176
0.00178779
0.00170045
0.00149257
0.00129045
0.00111884
0.000974628
0.000854028
0.000754992
0.000674772
0.000610362
0.000558847
0.000517687
0.000484784
0.000458473
0.000437451
0.000420777
0.000407675
0.000398115
0.000391135
0.000389561
0.000391585
0.000398096
0.000412288
0.00043797
0.000478615
0.00054038
0.000631382
0.000763074
0.000948788
0.00120658
0.00155251
0.00201899
0.00290288
0.00522939
0.0118813
0.0265293
0.0340925
0.0218607
0.00067689
0.0012061
0.00164016
0.00164609
0.00154193
0.00138123
0.00123893
0.0011115
0.000997926
0.000897479
0.000810145
0.000735595
0.000672933
0.000620927
0.000578197
0.000543384
0.000515252
0.000492869
0.000475367
0.000462898
0.000454024
0.000452867
0.000455827
0.000464649
0.000483347
0.000515369
0.000564317
0.000636869
0.000741091
0.000890299
0.00109805
0.00138873
0.00178011
0.00231539
0.00321456
0.00543745
0.0117821
0.02684
0.0349729
0.0225107
0.000712522
0.000996825
0.00143273
0.00155198
0.00154268
0.00148121
0.00139069
0.00129619
0.00120069
0.00110627
0.00101625
0.000932952
0.000858066
0.00079241
0.000736102
0.000688821
0.000649793
0.000619283
0.00059653
0.000581019
0.000572268
0.000573235
0.000579687
0.000595362
0.000625006
0.000670717
0.000737775
0.000834351
0.000968141
0.00115773
0.00141436
0.0017785
0.00226324
0.0029628
0.00400202
0.00633859
0.0124562
0.0276085
0.035395
0.0229194
0.000848758
0.000826888
0.00117414
0.00141043
0.0015566
0.00159376
0.00157687
0.00153265
0.001466
0.00138814
0.00130449
0.00122154
0.00114283
0.00107134
0.00100876
0.000956113
0.000913475
0.000881302
0.000858945
0.000846988
0.000848979
0.000859827
0.000884652
0.000927888
0.000990364
0.00107942
0.00119747
0.00135915
0.00157322
0.00187244
0.00225602
0.00280891
0.0035112
0.00458678
0.00600373
0.00883284
0.0149454
0.0294576
0.0355617
0.0230681
0.0010687
0.000812394
0.00112663
0.00146103
0.00171519
0.00189521
0.00199403
0.00203308
0.00202302
0.00198743
0.00192565
0.00185764
0.00178977
0.0017282
0.00167674
0.00163951
0.00161627
0.00161643
0.00162781
0.00165748
0.00171664
0.0018007
0.00191221
0.00206133
0.00225016
0.00249495
0.00279588
0.00318664
0.00365485
0.00426879
0.00500659
0.00605333
0.00727711
0.00915927
0.0114005
0.0153033
0.021113
0.0333999
0.0358852
0.022988
0.0015613
0.00104714
0.00158451
0.00220241
0.00273479
0.00317472
0.00349584
0.00371547
0.00385162
0.00393688
0.00398344
0.00401581
0.00405012
0.00409862
0.00416844
0.00427
0.00440587
0.00458544
0.00481019
0.00508586
0.00542112
0.00582755
0.00630702
0.00688056
0.00754724
0.00834414
0.00925956
0.0103577
0.0116045
0.0131155
0.0147954
0.0168642
0.019233
0.0226073
0.0262838
0.0315674
0.0361246
0.0411998
0.0379828
0.0219497
0.00274314
0.00245294
0.00491715
0.0073622
0.00910321
0.0104154
0.011417
0.01219
0.0127996
0.013304
0.0137586
0.0141991
0.0146657
0.0151812
0.0157684
0.0164401
0.0172108
0.018092
0.0190899
0.0202237
0.0214888
0.0229203
0.0245006
0.0262834
0.0282308
0.0304166
0.0327854
0.0354137
0.0382622
0.0413265
0.0447359
0.0481075
0.0522566
0.0553658
0.0595001
0.0594144
0.0567171
0.0487656
0.0391866
0.0197945
0.00185454
0.00310623
0.00451317
0.00608288
0.00755351
0.00885313
0.0099704
0.0109141
0.011692
0.0123291
0.0128325
0.0132313
0.0135374
0.0137835
0.0139752
0.0141385
0.014277
0.01441
0.0145378
0.0146734
0.0148231
0.0149847
0.0151828
0.0153867
0.015658
0.0159159
0.0162848
0.0166051
0.0170921
0.0174759
0.018079
0.0185116
0.0191648
0.0196443
0.0205409
0.0211568
0.0219004
0.0217968
0.0209593
0.0174671
)
;

boundaryField
{
    movingWall
    {
        type            epsilonWallFunction;
        value           nonuniform List<scalar> 
40
(
0.00185454
0.00310623
0.00451317
0.00608288
0.00755351
0.00885313
0.0099704
0.0109141
0.011692
0.0123291
0.0128325
0.0132313
0.0135374
0.0137835
0.0139752
0.0141385
0.014277
0.01441
0.0145378
0.0146734
0.0148231
0.0149847
0.0151828
0.0153867
0.015658
0.0159159
0.0162848
0.0166051
0.0170921
0.0174759
0.018079
0.0185116
0.0191648
0.0196443
0.0205409
0.0211568
0.0219004
0.0217968
0.0209593
0.0174671
)
;
    }
    fixedWalls
    {
        type            epsilonWallFunction;
        value           nonuniform List<scalar> 
120
(
1.78759e-05
8.2545e-05
0.00021989
0.000476694
0.000893284
0.00152443
0.00234381
0.00324679
0.00405087
0.00469133
0.00510882
0.00536456
0.0053708
0.00530569
0.00514563
0.00487026
0.00454074
0.00415987
0.00376678
0.00334315
0.00300808
0.00272296
0.00246982
0.00223715
0.00201877
0.00181022
0.00161011
0.00141679
0.00123156
0.00106224
0.000916359
0.000801429
0.000716987
0.00067689
0.000712522
0.000848758
0.0010687
0.0015613
0.00274314
0.00185454
2.61487e-05
6.01396e-05
5.46552e-05
4.29124e-05
4.93441e-05
8.48328e-05
0.000177153
0.000379605
0.00100211
0.00207341
0.00321245
0.00429187
0.00523131
0.00618048
0.00706609
0.00797859
0.00886096
0.0097737
0.010669
0.0115899
0.012497
0.0134189
0.0143245
0.015231
0.0161133
0.016977
0.0178021
0.0185913
0.019331
0.0200244
0.0206666
0.021275
0.0218607
0.0225107
0.0229194
0.0230681
0.022988
0.0219497
0.0197945
0.0174671
1.78759e-05
7.41139e-05
0.000155732
0.00019215
0.000203914
0.000220524
0.000259385
0.000317935
0.000377335
0.000440385
0.000582021
0.000820666
0.0010181
0.00117385
0.00138223
0.00164414
0.00192936
0.00221809
0.00253179
0.00285854
0.00321877
0.00360925
0.00405167
0.0045561
0.00516127
0.00580982
0.00639456
0.00694831
0.00738501
0.00762871
0.00771788
0.00745178
0.00668755
0.00543401
0.0038528
0.00221885
0.001017
0.000406574
0.000127516
2.61487e-05
)
;
    }
    frontAndBack
    {
        type            empty;
    }
}


// ************************************************************************* //
