/*--------------------------------*- C++ -*----------------------------------*\
  =========                 |
  \\      /  F ield         | OpenFOAM: The Open Source CFD Toolbox
   \\    /   O peration     | Website:  https://openfoam.org
    \\  /    A nd           | Version:  13
     \\/     M anipulation  |
\*---------------------------------------------------------------------------*/
FoamFile
{
    format      ascii;
    class       volScalarField;
    location    "3.5";
    object      k;
}
// * * * * * * * * * * * * * * * * * * * * * * * * * * * * * * * * * * * * * //

dimensions      [0 2 -2 0 0 0 0];

internalField   nonuniform List<scalar> 
1600
(
1.39516e-06
5.78241e-06
1.2149e-05
1.4984e-05
1.58958e-05
1.71944e-05
2.02384e-05
2.48338e-05
2.94906e-05
3.44252e-05
4.55077e-05
6.41842e-05
7.96138e-05
9.17883e-05
0.000108082
0.000128569
0.00015088
0.000173467
0.000198006
0.000223568
0.000251749
0.000282295
0.000316904
0.000356363
0.0004037
0.000454411
0.000500139
0.000543433
0.000577572
0.000596614
0.000603578
0.000582726
0.000522962
0.000424893
0.00030116
0.000173401
7.9481e-05
3.17714e-05
9.96222e-06
2.04252e-06
6.44368e-06
3.87601e-05
7.86388e-05
9.76579e-05
0.000108486
0.000122489
0.000149298
0.000186309
0.00022258
0.000259046
0.000339556
0.000454717
0.000522447
0.000553655
0.0005846
0.000619585
0.000661361
0.000698748
0.000742971
0.000786775
0.000836265
0.000887283
0.000941712
0.000995778
0.00104795
0.00110141
0.0011596
0.0012157
0.00126435
0.00128817
0.00129513
0.00124764
0.00113938
0.000966059
0.000709711
0.00044192
0.000203181
8.54216e-05
3.08762e-05
4.69462e-06
1.71767e-05
9.27714e-05
0.000161251
0.000197155
0.000233545
0.000295891
0.000399217
0.00053244
0.000671424
0.000752571
0.000774026
0.00074582
0.000723416
0.000716328
0.000732963
0.000755407
0.000779453
0.000806401
0.000836673
0.000868283
0.000902319
0.000937027
0.000973539
0.00101125
0.00104982
0.00109028
0.00113152
0.00117153
0.00120779
0.0012312
0.00124032
0.00123113
0.00115342
0.00102356
0.000790626
0.000508835
0.000202807
7.92372e-05
2.99741e-05
4.26521e-06
3.72579e-05
0.000180136
0.00027784
0.000339761
0.000421488
0.000552524
0.000720367
0.000840017
0.000876179
0.000832516
0.000779705
0.000755715
0.000747224
0.000747036
0.000765482
0.000781762
0.000805194
0.000829093
0.000854957
0.000880543
0.000907378
0.00093334
0.000959574
0.000986289
0.0010142
0.00104203
0.00106946
0.00109578
0.00111924
0.00113502
0.00114159
0.00114135
0.00110919
0.00105106
0.000932112
0.000698042
0.000292184
8.37993e-05
2.56873e-05
3.34711e-06
6.98413e-05
0.000305209
0.000434832
0.00052661
0.000647652
0.00080231
0.000900083
0.00092247
0.000866989
0.000803481
0.000764089
0.00074853
0.000745094
0.000755075
0.000775646
0.000796455
0.000822456
0.000847642
0.000874427
0.000900038
0.000925245
0.000949403
0.000973185
0.000995977
0.00101895
0.00104206
0.00106566
0.00108846
0.00110841
0.00112162
0.00112683
0.00112639
0.00110132
0.00106207
0.0010011
0.000874703
0.000592946
0.000168928
3.35227e-05
3.84954e-06
0.000119204
0.000458681
0.000616926
0.000724265
0.000845139
0.000927361
0.000946403
0.00089762
0.00081234
0.000761663
0.000742414
0.000737754
0.000745922
0.000765461
0.000791252
0.000818292
0.000847773
0.000876138
0.000904036
0.000929922
0.000954612
0.000977841
0.00100065
0.00102358
0.00104813
0.00107558
0.00110665
0.00114074
0.00117455
0.00119712
0.0012066
0.00120883
0.0011891
0.00113379
0.0010514
0.000946924
0.000768123
0.000329027
6.53184e-05
6.62234e-06
0.000183289
0.000620185
0.000797806
0.000892236
0.000951402
0.000966666
0.000920709
0.000826727
0.000761155
0.000735639
0.000729038
0.000733833
0.000753146
0.000782125
0.000810287
0.000839527
0.000867596
0.000893409
0.000917551
0.000940042
0.000961385
0.000982209
0.00100353
0.00102622
0.00105189
0.0010821
0.00111794
0.00116011
0.00120886
0.00126118
0.00129611
0.00130684
0.00130771
0.00127199
0.00118336
0.00103963
0.000851613
0.000565188
0.000130878
1.38404e-05
0.0002539
0.000779946
0.000948564
0.000998032
0.00100432
0.000949267
0.00085519
0.000767635
0.000730848
0.000719881
0.000719582
0.000737975
0.000765912
0.000793938
0.000820418
0.000845741
0.000868973
0.000890566
0.000909707
0.000926661
0.000942339
0.000958066
0.000975676
0.000997363
0.00102452
0.00105855
0.001101
0.00115263
0.00121278
0.00127947
0.00135097
0.00139757
0.00140856
0.00140148
0.00134216
0.00120818
0.000986734
0.000672147
0.000214302
2.96759e-05
0.000316759
0.000909512
0.00105196
0.00106437
0.00100103
0.000903021
0.000788813
0.000732997
0.00071252
0.000708796
0.000719772
0.000744807
0.000771019
0.000795693
0.000819057
0.000840225
0.000857503
0.000870853
0.000880428
0.000889317
0.000898914
0.000910877
0.000926562
0.000947176
0.000974345
0.00100994
0.00105607
0.00111464
0.00118668
0.0012709
0.0013617
0.00145313
0.00150535
0.00151479
0.00148696
0.00137699
0.00116764
0.000854742
0.000375209
7.8378e-05
0.000366811
0.00100445
0.00112674
0.00110107
0.000980365
0.000843257
0.000749585
0.000711202
0.000700407
0.000701567
0.000720566
0.000745602
0.000769566
0.00079103
0.000808522
0.000820518
0.000827357
0.000831591
0.000835802
0.000840652
0.000847408
0.000857264
0.000871253
0.000890527
0.000916611
0.000951455
0.000997547
0.00105782
0.00113517
0.00123118
0.00134392
0.00146446
0.00157164
0.00161742
0.00162131
0.00154344
0.00133759
0.00100167
0.000549574
0.000162169
0.000399429
0.00106333
0.00116938
0.00109934
0.000941062
0.000794561
0.000722862
0.000695812
0.000689836
0.000697497
0.000719546
0.000742745
0.000762406
0.000776634
0.000784129
0.000787431
0.000788619
0.000788962
0.000789959
0.000792621
0.000797926
0.000806618
0.000819548
0.000837637
0.00086216
0.00089491
0.000938452
0.00099628
0.00107268
0.00117189
0.00129607
0.00144161
0.00159405
0.00170769
0.00173736
0.00170678
0.00153198
0.00118324
0.000659542
0.000251217
0.000419398
0.0010956
0.00118753
0.0010873
0.000897152
0.00076177
0.000703145
0.000683584
0.000680946
0.000693816
0.000715563
0.00073431
0.000746311
0.000751824
0.0007534
0.000752752
0.000750474
0.000748761
0.000748189
0.000749706
0.000754344
0.00076243
0.000774645
0.000791711
0.000814653
0.000845016
0.000885187
0.000938756
0.00101075
0.00110735
0.0012344
0.00139372
0.00157674
0.00175375
0.00184004
0.0018473
0.00170805
0.00136002
0.00082367
0.000335573
0.000419837
0.00109801
0.00118238
0.00106158
0.00085776
0.00073657
0.00068734
0.000672987
0.000672605
0.000688021
0.000706685
0.000718937
0.00072429
0.000725448
0.000723694
0.000720058
0.000715959
0.000713042
0.000711865
0.000712539
0.000716563
0.000724012
0.000735434
0.000751449
0.000772907
0.000801108
0.000838138
0.000887325
0.000953779
0.00104473
0.00116894
0.00133383
0.00153892
0.0017652
0.00193259
0.00197611
0.00188531
0.00153724
0.000940575
0.000408967
0.000414736
0.00108977
0.00116637
0.00102936
0.000824407
0.000716
0.000673697
0.000662486
0.000664314
0.000679658
0.00069398
0.000700576
0.000702213
0.000700631
0.00069639
0.000691052
0.000685864
0.000681972
0.000680162
0.000679936
0.000682912
0.000689314
0.0006996
0.000714375
0.0007344
0.000760794
0.00079533
0.000840913
0.000902269
0.000986742
0.00110466
0.00126773
0.00148314
0.00174172
0.00198547
0.00208766
0.00205075
0.00171819
0.00108732
0.00048312
0.000402201
0.00106844
0.00113612
0.000994685
0.000796647
0.000698534
0.000661345
0.000652252
0.000655819
0.000669706
0.00067929
0.000682355
0.000681992
0.000678183
0.000672384
0.000665916
0.000659787
0.000654757
0.000651641
0.000650498
0.000651832
0.000656664
0.000665403
0.000678685
0.000697262
0.000722147
0.000754858
0.000797858
0.000855288
0.000934044
0.00104493
0.00120259
0.00142096
0.0017002
0.002005
0.00218938
0.00220362
0.00189345
0.00121496
0.000552287
0.000380658
0.00103544
0.00109883
0.000959978
0.000774276
0.00068349
0.000649969
0.000642482
0.000647005
0.000658762
0.000664804
0.000666012
0.000663806
0.000658527
0.000651609
0.000644136
0.000636911
0.000630554
0.000625612
0.000623024
0.000622534
0.000625327
0.000632161
0.000643716
0.000660791
0.000684362
0.00071577
0.00075709
0.000811823
0.000886089
0.000990347
0.00114083
0.00135755
0.00165264
0.0020049
0.00227544
0.00234087
0.00207036
0.00135781
0.000623555
0.000354884
0.000996783
0.00105789
0.00092744
0.000755468
0.000670447
0.000639591
0.000633313
0.000638293
0.00064767
0.000651476
0.000651509
0.000647862
0.000641508
0.000633627
0.000625108
0.000616612
0.0006087
0.000601925
0.000597073
0.000594919
0.00059543
0.000600126
0.000609788
0.000625293
0.00064765
0.000678107
0.000718435
0.000771531
0.000842598
0.00094113
0.00108344
0.00129318
0.0015924
0.00197486
0.00233636
0.00246491
0.00223989
0.00149194
0.000692452
0.000325096
0.000956865
0.00101644
0.000897588
0.000739892
0.000659254
0.000630196
0.00062475
0.000629728
0.000637118
0.000639668
0.000638639
0.000633968
0.000626745
0.000617965
0.000608374
0.000598552
0.00058904
0.000580427
0.000573399
0.000569062
0.000567694
0.000570152
0.000577848
0.000591733
0.0006129
0.000642594
0.000682388
0.000734676
0.000803753
0.000897919
0.00103277
0.00123403
0.00153226
0.00193496
0.00236948
0.00257494
0.00240916
0.00163882
0.00076372
0.000294357
0.00091611
0.000975692
0.000870527
0.000727225
0.00064979
0.000621694
0.000616705
0.000621405
0.000627348
0.000629103
0.000627209
0.000621783
0.000613841
0.000604248
0.000593658
0.000582611
0.000571643
0.000561367
0.0005525
0.00054596
0.0005429
0.000543324
0.000549112
0.000561367
0.000581321
0.000610301
0.000649804
0.000701831
0.000769839
0.000860783
0.00098888
0.00118045
0.00147322
0.00189146
0.00238198
0.00267405
0.00257092
0.00178331
0.000833611
0.000261235
0.000877838
0.000937769
0.000846526
0.000717234
0.000642073
0.000614058
0.000609118
0.000613343
0.000618267
0.000619468
0.000616932
0.000610963
0.000602465
0.000592219
0.000580826
0.000568805
0.000556695
0.000545118
0.000534807
0.0005266
0.000521788
0.000520667
0.000524718
0.000535397
0.000554107
0.000582338
0.000621625
0.000673723
0.00074135
0.000830105
0.000952394
0.00113375
0.00141673
0.00184268
0.00238335
0.00276392
0.00273039
0.00193807
0.000905492
0.000235036
0.000836428
0.000902395
0.000825553
0.000709395
0.000636115
0.000607143
0.000601745
0.00060543
0.000609669
0.000610479
0.000607514
0.000601209
0.000592367
0.000581709
0.000569809
0.000557177
0.000544346
0.000531936
0.000520673
0.000511389
0.000505163
0.000502808
0.000505438
0.000514667
0.000532136
0.000559561
0.000598626
0.000650973
0.000718717
0.000806147
0.000923632
0.00109487
0.00136465
0.00178862
0.00236411
0.00284461
0.00288311
0.0020947
0.000976283
0.000212745
0.000793936
0.000868746
0.00080804
0.00070377
0.000632057
0.000601419
0.000594857
0.000597585
0.000601273
0.000601799
0.000598742
0.000592308
0.000583361
0.000572586
0.000560537
0.000547711
0.000534629
0.000521889
0.000510193
0.000500354
0.000493306
0.000489988
0.000491549
0.000499483
0.000515776
0.00054239
0.000581222
0.000633936
0.000702174
0.000788993
0.00090268
0.00106445
0.00131942
0.00173511
0.00233466
0.00291288
0.00303369
0.00226038
0.00104823
0.000192957
0.000752195
0.000837313
0.000793047
0.000699631
0.00062986
0.000597001
0.000588478
0.000589859
0.00059295
0.000593264
0.000590386
0.000584081
0.000575292
0.000564722
0.000552899
0.0005403
0.000527419
0.000514822
0.00050317
0.000493231
0.000485887
0.000482122
0.000483039
0.000489772
0.000504919
0.000530761
0.000569436
0.000622858
0.000692362
0.00077963
0.00089022
0.00104233
0.00128148
0.00168388
0.00229945
0.00296455
0.00317981
0.00243052
0.00111888
0.000174773
0.000711568
0.000808357
0.000779197
0.000698978
0.000630328
0.000593936
0.000582743
0.00058262
0.000584595
0.000584772
0.000582244
0.000576366
0.000568008
0.000557958
0.000546714
0.000534724
0.000522448
0.000510405
0.000499207
0.000489561
0.00048232
0.000478559
0.000479327
0.000485325
0.000499619
0.000524974
0.000563592
0.000617598
0.00068817
0.000776092
0.00088484
0.00102843
0.00125075
0.00163537
0.00225939
0.00300085
0.00332084
0.00260829
0.00118961
0.000157708
0.000672137
0.000781677
0.00076586
0.000699823
0.00063242
0.000593956
0.000578328
0.000575847
0.000576591
0.000576421
0.000574236
0.000569021
0.000561356
0.0005521
0.00054174
0.000530693
0.000519368
0.00050823
0.000497831
0.000488771
0.000481858
0.000478212
0.000478904
0.000484408
0.000498082
0.000523127
0.00056172
0.000616133
0.000687476
0.000776014
0.000883881
0.00102208
0.00122689
0.00158976
0.00221494
0.00301851
0.00345563
0.00279166
0.00125842
0.000141416
0.000633498
0.000756818
0.00075202
0.000701988
0.000637064
0.000595484
0.000576135
0.000570116
0.000569311
0.000568566
0.000566451
0.000561906
0.000555161
0.000546947
0.000537732
0.000527891
0.000517782
0.000507834
0.000498355
0.000489999
0.000483649
0.000480451
0.000481264
0.000486516
0.000499632
0.000524396
0.000563176
0.000618599
0.000691777
0.000782066
0.000889151
0.00102063
0.00120918
0.00154677
0.00216526
0.00302449
0.00358254
0.00298159
0.00132577
0.000125783
0.000595245
0.000733374
0.000738988
0.000705575
0.000644352
0.000599655
0.000576879
0.000566699
0.00056318
0.000561499
0.000559175
0.000555152
0.000549395
0.000542359
0.000534447
0.000525983
0.000517288
0.000508531
0.000500196
0.000492879
0.000487318
0.000484766
0.000485863
0.00049125
0.00050435
0.000529268
0.000568564
0.000625077
0.000699923
0.000791909
0.000898977
0.00102477
0.00119716
0.00150615
0.00210691
0.00301594
0.00369784
0.00317427
0.00139011
0.000110687
0.0005567
0.000709627
0.000727194
0.000705731
0.000654166
0.000608127
0.000580314
0.000567207
0.000560398
0.000556199
0.00055297
0.000549132
0.000544211
0.000538341
0.00053179
0.000524806
0.000517587
0.000510224
0.000503223
0.000497021
0.000492364
0.000490713
0.000492219
0.000498046
0.000511597
0.000536989
0.000576975
0.000634537
0.000710827
0.000804306
0.000911549
0.00103268
0.00118943
0.00146861
0.00204057
0.00298349
0.00379723
0.00336859
0.00145165
9.62177e-05
0.000516919
0.000684858
0.000715457
0.000704417
0.000665566
0.000620601
0.000588392
0.000570735
0.000561536
0.000555769
0.000550744
0.000545966
0.00054105
0.000535887
0.000530487
0.000524856
0.000518767
0.000512808
0.000507125
0.000502124
0.000498535
0.000497992
0.00050003
0.000506578
0.000521038
0.000547163
0.000587914
0.00064632
0.000723559
0.000817936
0.000925116
0.00104213
0.00118438
0.00143337
0.00196781
0.00293229
0.00387643
0.00356019
0.00150932
8.29944e-05
0.000477332
0.000659561
0.000704134
0.000701204
0.000677931
0.00063658
0.000602937
0.000579871
0.000566796
0.000558597
0.000552357
0.000546855
0.000541618
0.000536474
0.000531372
0.000526285
0.000521289
0.000516511
0.000512058
0.000508249
0.000505967
0.000506369
0.000509231
0.000516815
0.000532574
0.000559558
0.00060097
0.00065976
0.000737103
0.000831323
0.000937724
0.0010508
0.00117963
0.00139851
0.00188961
0.00286266
0.00393838
0.003744
0.00156335
7.15971e-05
0.000437537
0.000633947
0.000690374
0.000696756
0.000686089
0.000656643
0.000624212
0.000598532
0.000579836
0.000567842
0.000559104
0.000551979
0.000545778
0.000540207
0.000535116
0.0005304
0.00052611
0.000522185
0.000518729
0.000515972
0.000515136
0.000516264
0.000520188
0.000529118
0.000546238
0.000574039
0.000615758
0.000674142
0.000750347
0.00084289
0.000947002
0.00105518
0.00117308
0.00136351
0.00180865
0.00276655
0.00397554
0.00391076
0.0016134
6.26055e-05
0.000398711
0.000609788
0.000675905
0.000693714
0.000691375
0.00067802
0.000651648
0.000626866
0.000606017
0.000588906
0.000575861
0.000565806
0.000557537
0.000550581
0.000544685
0.000539646
0.000535382
0.000531772
0.000528871
0.00052692
0.000527145
0.000529005
0.000533976
0.000544359
0.000562464
0.000590737
0.000632041
0.00068884
0.000762302
0.000851361
0.000951309
0.00105611
0.00116484
0.00133051
0.0017285
0.0026564
0.00399216
0.00405313
0.00166081
5.59853e-05
0.000362108
0.000583084
0.00065969
0.000690784
0.000700053
0.000697328
0.000686203
0.000666329
0.000646106
0.000627245
0.000610437
0.000595853
0.000583676
0.000573656
0.000565527
0.000558917
0.000553628
0.000549381
0.000546193
0.000544353
0.000544855
0.000547203
0.000552819
0.000564076
0.000582533
0.00061045
0.000650211
0.00070396
0.000772925
0.000856703
0.000952231
0.00105382
0.00115926
0.00131189
0.00167558
0.00255867
0.00399548
0.00413274
0.00170645
5.28213e-05
0.000336161
0.00055177
0.000642744
0.000686812
0.0007117
0.000723437
0.000722917
0.000716585
0.000702652
0.000685014
0.000666944
0.00064955
0.000633646
0.000619624
0.000607554
0.00059743
0.000589066
0.000582307
0.000577237
0.000573673
0.000573622
0.000575481
0.000580709
0.000591509
0.000609393
0.000635917
0.000673005
0.000722518
0.000785863
0.00086347
0.000954108
0.00105368
0.00116023
0.0013083
0.00165691
0.00251572
0.00398617
0.00416171
0.00175713
5.55821e-05
0.000318307
0.000512986
0.000617597
0.000688193
0.000730827
0.000760841
0.000777094
0.000781429
0.000777749
0.000767598
0.00075131
0.000732954
0.00071408
0.00069578
0.000678746
0.00066343
0.000650044
0.000638705
0.00062975
0.000623057
0.000620188
0.000621258
0.000625429
0.000634799
0.000651653
0.000676577
0.000711229
0.000757253
0.000816671
0.000890763
0.000981436
0.00108743
0.00121332
0.00137753
0.00172203
0.0025164
0.00398395
0.00415076
0.00178881
6.6249e-05
0.00031825
0.00048337
0.000608922
0.00070136
0.000770063
0.000821073
0.000857748
0.000879097
0.000884628
0.000880734
0.00086953
0.000850458
0.00082841
0.000805404
0.000782906
0.000762058
0.000743412
0.000727573
0.000715218
0.000706774
0.00070316
0.000704412
0.000709315
0.000720179
0.000739036
0.000766117
0.000803594
0.000853132
0.000918622
0.00100113
0.00110856
0.00123989
0.00141362
0.00163223
0.0020098
0.0027589
0.00405061
0.004067
0.00180035
8.34782e-05
0.000339672
0.000496518
0.000637069
0.000758656
0.000860225
0.000937137
0.000989924
0.00102238
0.0010354
0.00103401
0.00102644
0.00101017
0.000989616
0.000967766
0.000946832
0.000928236
0.000912227
0.000900605
0.000892613
0.000891808
0.000894887
0.000903459
0.00092082
0.000946344
0.000982264
0.00102912
0.00109124
0.00116767
0.00126685
0.00138685
0.00154605
0.00173303
0.00198788
0.0022812
0.00272034
0.00333422
0.00422317
0.00399897
0.00179384
0.000122055
0.000429884
0.000608349
0.000792393
0.000956196
0.00109437
0.00120051
0.00127502
0.00132429
0.00135238
0.00136374
0.00136694
0.00136522
0.00136098
0.00135576
0.00135481
0.00135711
0.0013639
0.00137828
0.0014002
0.00143145
0.00147238
0.00152313
0.0015865
0.00166255
0.00175494
0.00186227
0.00199143
0.00213797
0.0023142
0.00250931
0.00274499
0.00300928
0.00334893
0.00370684
0.0041456
0.00450186
0.00460601
0.00393871
0.00171281
0.000214612
0.000713197
0.00109422
0.0014704
0.00173921
0.00194302
0.00209777
0.0022134
0.00229995
0.00236585
0.00241765
0.00246178
0.00250429
0.00254904
0.00259772
0.00265315
0.00271671
0.00278895
0.002871
0.00296417
0.00306834
0.00318571
0.00331502
0.00345955
0.00361616
0.00379033
0.00397625
0.00418163
0.00439863
0.00463372
0.00488513
0.00513939
0.00543819
0.00567043
0.00593702
0.00590119
0.00563483
0.00487909
0.00356373
0.00154441
0.000145103
0.000242959
0.00035276
0.000475248
0.000589979
0.000691336
0.000778448
0.00085199
0.000912587
0.000962172
0.00100134
0.00103232
0.00105609
0.00107518
0.00109004
0.00110269
0.00111343
0.00112372
0.00113367
0.00114417
0.00115586
0.00116837
0.00118387
0.00119967
0.0012209
0.0012409
0.00126973
0.00129461
0.00133263
0.00136247
0.00140956
0.00144307
0.00149429
0.00153157
0.00160161
0.00164973
0.00170787
0.00169999
0.00163467
0.00136237
)
;

boundaryField
{
    movingWall
    {
        type            kqRWallFunction;
        value           nonuniform List<scalar> 
40
(
0.000145103
0.000242959
0.00035276
0.000475248
0.000589979
0.000691336
0.000778448
0.00085199
0.000912587
0.000962172
0.00100134
0.00103232
0.00105609
0.00107518
0.00109004
0.00110269
0.00111343
0.00112372
0.00113367
0.00114417
0.00115586
0.00116837
0.00118387
0.00119967
0.0012209
0.0012409
0.00126973
0.00129461
0.00133263
0.00136247
0.00140956
0.00144307
0.00149429
0.00153157
0.00160161
0.00164973
0.00170787
0.00169999
0.00163467
0.00136237
)
;
    }
    fixedWalls
    {
        type            kqRWallFunction;
        value           nonuniform List<scalar> 
120
(
1.39516e-06
6.44368e-06
1.71767e-05
3.72579e-05
6.98413e-05
0.000119204
0.000183289
0.0002539
0.000316759
0.000366811
0.000399429
0.000419398
0.000419837
0.000414736
0.000402201
0.000380658
0.000354884
0.000325096
0.000294357
0.000261235
0.000235036
0.000212745
0.000192957
0.000174773
0.000157708
0.000141416
0.000125783
0.000110687
9.62177e-05
8.29944e-05
7.15971e-05
6.26055e-05
5.59853e-05
5.28213e-05
5.55821e-05
6.6249e-05
8.34782e-05
0.000122055
0.000214612
0.000145103
2.04252e-06
4.69462e-06
4.26521e-06
3.34711e-06
3.84954e-06
6.62234e-06
1.38404e-05
2.96759e-05
7.8378e-05
0.000162169
0.000251217
0.000335573
0.000408967
0.00048312
0.000552287
0.000623555
0.000692452
0.00076372
0.000833611
0.000905492
0.000976283
0.00104823
0.00111888
0.00118961
0.00125842
0.00132577
0.00139011
0.00145165
0.00150932
0.00156335
0.0016134
0.00166081
0.00170645
0.00175713
0.00178881
0.00180035
0.00179384
0.00171281
0.00154441
0.00136237
1.39516e-06
5.78241e-06
1.2149e-05
1.4984e-05
1.58958e-05
1.71944e-05
2.02384e-05
2.48338e-05
2.94906e-05
3.44252e-05
4.55077e-05
6.41842e-05
7.96138e-05
9.17883e-05
0.000108082
0.000128569
0.00015088
0.000173467
0.000198006
0.000223568
0.000251749
0.000282295
0.000316904
0.000356363
0.0004037
0.000454411
0.000500139
0.000543433
0.000577572
0.000596614
0.000603578
0.000582726
0.000522962
0.000424893
0.00030116
0.000173401
7.9481e-05
3.17714e-05
9.96222e-06
2.04252e-06
)
;
    }
    frontAndBack
    {
        type            empty;
    }
}


// ************************************************************************* //
