/*--------------------------------*- C++ -*----------------------------------*\
  =========                 |
  \\      /  F ield         | OpenFOAM: The Open Source CFD Toolbox
   \\    /   O peration     | Website:  https://openfoam.org
    \\  /    A nd           | Version:  13
     \\/     M anipulation  |
\*---------------------------------------------------------------------------*/
FoamFile
{
    format      ascii;
    class       volScalarField;
    location    "3.5";
    object      p;
}
// * * * * * * * * * * * * * * * * * * * * * * * * * * * * * * * * * * * * * //

dimensions      [0 2 -2 0 0 0 0];

internalField   nonuniform List<scalar> 
400
(
3.00414e-08
-3.73828e-05
-6.30192e-05
-0.000106079
-8.81373e-05
-0.000369074
-0.00105259
-0.00191878
-0.00272352
-0.00330663
-0.00356013
-0.00341818
-0.00286979
-0.00191394
-0.000564485
0.00108877
0.00283811
0.00431726
0.00517672
0.0052954
1.59175e-05
-2.55181e-05
-4.38936e-05
-0.000121886
-0.000352207
-0.000825543
-0.00157973
-0.0024207
-0.00318021
-0.00374705
-0.00401426
-0.00393587
-0.00348407
-0.00262971
-0.00138565
0.000189387
0.00192284
0.00351022
0.00458225
0.00495976
9.9673e-05
2.87346e-05
-0.000108035
-0.000372283
-0.000851528
-0.00155851
-0.00240419
-0.00324705
-0.00398647
-0.0045375
-0.00479375
-0.00472465
-0.00432241
-0.00358307
-0.00250757
-0.00112793
0.000466687
0.00207681
0.00337764
0.00398144
0.000119561
-2.15371e-05
-0.000304449
-0.000816102
-0.0015612
-0.00245798
-0.00338868
-0.00425189
-0.00496464
-0.00545085
-0.00567112
-0.00561335
-0.00526365
-0.0046325
-0.00372393
-0.00255228
-0.00115889
0.000344296
0.00171184
0.00239278
-5.73565e-05
-0.000275134
-0.000716678
-0.00143106
-0.0023653
-0.00337531
-0.00434587
-0.00519741
-0.00586355
-0.00630026
-0.00649013
-0.00643296
-0.00613105
-0.0056002
-0.00484859
-0.00388283
-0.00271721
-0.00140037
-9.08493e-05
0.000559623
-0.000466861
-0.000748702
-0.00130428
-0.00214324
-0.00316205
-0.00421399
-0.00518363
-0.00600418
-0.00662445
-0.00701874
-0.00718063
-0.00711922
-0.00685177
-0.00640081
-0.00578061
-0.00499533
-0.00404512
-0.00294871
-0.00183324
-0.00121155
-0.00104636
-0.00136464
-0.00196798
-0.00284417
-0.00387242
-0.00491711
-0.00585981
-0.00664092
-0.00721824
-0.00757446
-0.00771032
-0.00764213
-0.00739641
-0.00700313
-0.00648367
-0.00584374
-0.00507736
-0.00418839
-0.00329918
-0.00273859
-0.00167347
-0.00198862
-0.00259056
-0.00344286
-0.00443745
-0.00544699
-0.00634959
-0.00708919
-0.00762775
-0.00795133
-0.00806457
-0.0079883
-0.00775492
-0.00740066
-0.00695366
-0.00642356
-0.00580368
-0.00509245
-0.0044135
-0.00391315
-0.00222614
-0.00251608
-0.00308025
-0.003878
-0.00481949
-0.0057781
-0.00663537
-0.00733603
-0.0078423
-0.00814049
-0.00823606
-0.00815195
-0.00792471
-0.00759556
-0.00719902
-0.00674886
-0.00624114
-0.00566679
-0.00515333
-0.00471147
-0.00264587
-0.00288574
-0.00339479
-0.00412048
-0.00499876
-0.00589624
-0.00670775
-0.00737486
-0.00785655
-0.00813752
-0.00822183
-0.00813237
-0.00790883
-0.00759508
-0.00723413
-0.00684045
-0.00641764
-0.00593237
-0.00554673
-0.00513433
-0.00289795
-0.00309787
-0.00353335
-0.00417488
-0.00496715
-0.00579981
-0.00656751
-0.00720615
-0.00767148
-0.00794347
-0.00802409
-0.00793565
-0.0077186
-0.00742131
-0.00708393
-0.00672742
-0.00636941
-0.00591738
-0.00564378
-0.0052054
-0.00298585
-0.00314827
-0.00351001
-0.00405989
-0.00475306
-0.00551358
-0.00623533
-0.00684852
-0.00730377
-0.0075755
-0.00766212
-0.00758381
-0.00737969
-0.00709923
-0.00678167
-0.00644988
-0.00612664
-0.00565972
-0.00552449
-0.00494541
-0.00296457
-0.00308169
-0.00336086
-0.00381041
-0.00440243
-0.00507984
-0.00575009
-0.0063382
-0.0067884
-0.00706849
-0.00717186
-0.00711526
-0.00693287
-0.00667268
-0.00637208
-0.00605158
-0.00573405
-0.00521934
-0.00525186
-0.00438281
-0.00289294
-0.00295259
-0.00313631
-0.00347641
-0.00396478
-0.00455611
-0.00517193
-0.0057356
-0.00618535
-0.00648198
-0.006612
-0.00658644
-0.00643498
-0.00619709
-0.00590785
-0.00558508
-0.00525467
-0.00467799
-0.0048413
-0.00355598
-0.00281053
-0.0028024
-0.00287829
-0.00310825
-0.0034976
-0.00400922
-0.00457428
-0.00511722
-0.00557158
-0.00589179
-0.00605665
-0.00606844
-0.00595079
-0.00573311
-0.00544625
-0.00510234
-0.0047361
-0.00407623
-0.00427201
-0.00249391
-0.00273717
-0.00263943
-0.00260762
-0.00273848
-0.00304577
-0.00349497
-0.0040214
-0.00455097
-0.00501557
-0.00536399
-0.0055681
-0.00562153
-0.00553708
-0.005335
-0.00503844
-0.00464698
-0.00419857
-0.00338182
-0.00345216
-0.00105388
-0.00270102
-0.00248117
-0.00234075
-0.00239058
-0.00263761
-0.00304428
-0.0035469
-0.00407251
-0.00455297
-0.0049325
-0.00517676
-0.00527115
-0.0052183
-0.00502538
-0.00470086
-0.00421393
-0.0035953
-0.00247512
-0.00210199
0.00164914
-0.00271145
-0.00230828
-0.00209016
-0.00207364
-0.00228366
-0.00267419
-0.00317426
-0.00370906
-0.00420909
-0.00461751
-0.00489624
-0.0050213
-0.00498338
-0.00476877
-0.00437319
-0.00374039
-0.00284005
-0.00113106
0.000499926
0.00759835
-0.00293377
-0.00225994
-0.00193019
-0.00185228
-0.00203749
-0.00242285
-0.0029331
-0.00349097
-0.00402505
-0.0044705
-0.00479137
-0.00495013
-0.00494277
-0.00473001
-0.00429319
-0.00346765
-0.00206952
0.000810115
0.00530495
0.017808
-0.00339136
-0.000899455
-0.000522106
-0.000634757
-0.000922159
-0.00137723
-0.00197023
-0.00262392
-0.00324893
-0.00377555
-0.00414994
-0.00434697
-0.00433028
-0.00407527
-0.00349526
-0.00247998
-0.000460655
0.00422426
0.0132724
0.0294338
)
;

boundaryField
{
    movingWall
    {
        type            zeroGradient;
    }
    fixedWalls
    {
        type            zeroGradient;
    }
    frontAndBack
    {
        type            empty;
    }
}


// ************************************************************************* //
