/*--------------------------------*- C++ -*----------------------------------*\
  =========                 |
  \\      /  F ield         | OpenFOAM: The Open Source CFD Toolbox
   \\    /   O peration     | Website:  https://openfoam.org
    \\  /    A nd           | Version:  13
     \\/     M anipulation  |
\*---------------------------------------------------------------------------*/
FoamFile
{
    format      ascii;
    class       volScalarField;
    location    "3.5";
    object      p;
}
// * * * * * * * * * * * * * * * * * * * * * * * * * * * * * * * * * * * * * //

dimensions      [0 2 -2 0 0 0 0];

internalField   nonuniform List<scalar> 
1600
(
2.35943e-08
-1.13814e-05
-6.49408e-05
-0.000151078
-0.000243064
-0.000331155
-0.000417875
-0.000514271
-0.000630917
-0.000769112
-0.000935014
-0.00115798
-0.00147712
-0.00171871
-0.001859
-0.0020805
-0.00246008
-0.00294046
-0.00343513
-0.00385719
-0.00413605
-0.00421676
-0.00405936
-0.00362832
-0.00291366
-0.00192763
-0.000680198
0.000799536
0.00243705
0.00409281
0.00556347
0.00662373
0.007102
0.00695764
0.00623838
0.00548378
0.00498697
0.00487055
0.0049208
0.00494571
-5.92932e-06
-2.96535e-05
-8.82314e-05
-0.000173689
-0.000252415
-0.000320804
-0.000387252
-0.000469613
-0.000574221
-0.000692557
-0.000809828
-0.00097473
-0.00125299
-0.00160787
-0.00197639
-0.00237762
-0.0028442
-0.00335376
-0.0038491
-0.0042627
-0.00453492
-0.00461784
-0.00447756
-0.00408872
-0.00344766
-0.00253362
-0.00134938
6.53641e-05
0.00163885
0.00325006
0.00472423
0.00584512
0.00642904
0.00639426
0.00582375
0.00508707
0.00469676
0.00470866
0.00481384
0.00486824
1.61048e-06
-4.44302e-05
-0.000118983
-0.000206883
-0.00027432
-0.000313719
-0.000343762
-0.000382749
-0.000452619
-0.000591985
-0.000821614
-0.00112944
-0.00152013
-0.00198764
-0.00251248
-0.00306967
-0.00363421
-0.00417883
-0.00466566
-0.00505489
-0.00530536
-0.00538434
-0.00526251
-0.0049197
-0.00433956
-0.00350815
-0.0024311
-0.00113624
0.000324752
0.00186167
0.00333803
0.0045715
0.00537009
0.00560576
0.00533199
0.00483621
0.00455759
0.00458844
0.00470172
0.00474331
4.29846e-05
-2.72893e-05
-0.000127239
-0.000210425
-0.000258127
-0.000281523
-0.000305417
-0.00036039
-0.000482672
-0.000719597
-0.00110123
-0.00160476
-0.00218074
-0.00279897
-0.00343995
-0.00407876
-0.00468672
-0.0052381
-0.00571158
-0.00608052
-0.0063167
-0.00639422
-0.00628746
-0.0059831
-0.00546539
-0.00472941
-0.0037796
-0.00263241
-0.00131879
0.000104287
0.00154331
0.00286331
0.00389311
0.00450528
0.00469234
0.00461568
0.00457117
0.00457569
0.00463629
0.0046373
0.00016595
6.14364e-05
-5.91948e-05
-0.000143169
-0.000194079
-0.000235754
-0.000307117
-0.000454424
-0.000723925
-0.00114604
-0.00171648
-0.00239047
-0.00311315
-0.00384466
-0.00455723
-0.00523115
-0.00585187
-0.00640823
-0.00688082
-0.00723744
-0.00745914
-0.00752911
-0.00743785
-0.00717533
-0.00672674
-0.00609134
-0.00526872
-0.00426635
-0.00310447
-0.00182174
-0.000475809
0.00085389
0.00206282
0.00305078
0.00376133
0.00422084
0.00451104
0.00464085
0.00461124
0.0045565
0.000392069
0.000241848
0.000105429
1.39289e-06
-8.78308e-05
-0.000203004
-0.000395566
-0.000716264
-0.00119477
-0.0018244
-0.0025664
-0.00337001
-0.00418997
-0.00498944
-0.00574477
-0.00644368
-0.00707251
-0.00761544
-0.00805325
-0.00837552
-0.00857495
-0.00864068
-0.0085673
-0.00834775
-0.00797237
-0.00743901
-0.0067457
-0.00589328
-0.00488825
-0.00374709
-0.00250065
-0.00119892
9.90824e-05
0.00134908
0.0024995
0.00347601
0.00418756
0.0045844
0.00454644
0.004453
0.000694584
0.000508864
0.000336474
0.000187499
1.70007e-05
-0.000231863
-0.000611049
-0.00115171
-0.00184786
-0.00266176
-0.00354057
-0.00443826
-0.00531834
-0.00615187
-0.00692076
-0.00761293
-0.00821791
-0.00872663
-0.00912986
-0.0094235
-0.00960356
-0.00966523
-0.00960546
-0.00942032
-0.00910572
-0.00865933
-0.00807892
-0.00736248
-0.00650871
-0.00551903
-0.00440087
-0.00316981
-0.00184567
-0.000451447
0.000980582
0.00236675
0.0035218
0.00426093
0.00446704
0.00429056
0.00102276
0.000799531
0.000569763
0.000346056
5.33579e-05
-0.000374704
-0.000971713
-0.00173269
-0.00261946
-0.0035768
-0.00455304
-0.00551
-0.00641785
-0.00725604
-0.00801228
-0.00867837
-0.00924911
-0.00972107
-0.0100914
-0.0103586
-0.0105212
-0.0105778
-0.0105276
-0.0103691
-0.0101013
-0.00972333
-0.00923318
-0.00862771
-0.00790195
-0.00704934
-0.00606304
-0.00493697
-0.00366315
-0.00223146
-0.000650584
0.00100094
0.00252707
0.00368171
0.00428738
0.00403138
0.00129182
0.00101707
0.000719717
0.000401435
-4.06156e-05
-0.000664323
-0.00147061
-0.00242098
-0.00345497
-0.00451161
-0.00554785
-0.00653237
-0.00744282
-0.00826608
-0.00899537
-0.00962752
-0.0101618
-0.0105986
-0.0109382
-0.0111811
-0.0113276
-0.0113785
-0.0113346
-0.0111959
-0.0109638
-0.0106383
-0.0102185
-0.00970139
-0.00908042
-0.00834505
-0.00748028
-0.0064668
-0.00528068
-0.00389142
-0.00227677
-0.000480151
0.00131352
0.00284903
0.00379003
0.0036881
0.00139778
0.00108342
0.000716778
0.000294044
-0.000300921
-0.00110499
-0.00208567
-0.00317987
-0.00431237
-0.00542819
-0.00649186
-0.00747882
-0.00837404
-0.00917069
-0.00986695
-0.0104638
-0.0109636
-0.0113686
-0.0116811
-0.0119031
-0.012036
-0.0120816
-0.0120416
-0.0119177
-0.0117117
-0.0114251
-0.0110581
-0.0106085
-0.0100703
-0.00943222
-0.0086758
-0.00777527
-0.00669742
-0.00540026
-0.00383507
-0.00199633
-4.80884e-05
0.00173593
0.0030362
0.00365424
0.00130326
0.000955444
0.000523735
-2.37505e-07
-0.000730855
-0.00168053
-0.00278933
-0.00397338
-0.00516119
-0.00630199
-0.00736728
-0.00833867
-0.00920757
-0.00997227
-0.0106346
-0.0111983
-0.0116674
-0.0120456
-0.0123361
-0.0125416
-0.0126643
-0.0127061
-0.0126691
-0.0125561
-0.0123691
-0.0121105
-0.0117817
-0.011382
-0.0109068
-0.0103459
-0.00968119
-0.00888519
-0.00792138
-0.00674396
-0.00529206
-0.00351663
-0.00151449
0.000387786
0.00201461
0.00313879
0.00099601
0.00062362
0.000137396
-0.000470426
-0.00130825
-0.00235725
-0.00354389
-0.00477262
-0.00597917
-0.0071179
-0.00816618
-0.00911067
-0.00994781
-0.0106795
-0.0113099
-0.0118444
-0.0122881
-0.0126454
-0.0129196
-0.0131136
-0.0132295
-0.0132694
-0.0132355
-0.0131305
-0.012957
-0.0127182
-0.0124164
-0.0120524
-0.0116239
-0.0111229
-0.0105335
-0.00982983
-0.00897565
-0.00792548
-0.00662028
-0.00498596
-0.00302311
-0.00110391
0.000610091
0.00186614
0.000494866
0.000111121
-0.000413241
-0.00108195
-0.00198972
-0.0030968
-0.00431277
-0.00555224
-0.00674969
-0.00786729
-0.00888655
-0.00979817
-0.0106021
-0.0113024
-0.0119048
-0.0124154
-0.0128396
-0.0131818
-0.0134451
-0.0136319
-0.0137443
-0.0137841
-0.0137533
-0.0136545
-0.0134908
-0.0132656
-0.0129823
-0.0126433
-0.0122482
-0.0117922
-0.011263
-0.0106382
-0.00988433
-0.00895792
-0.00780523
-0.00635022
-0.00454568
-0.0026677
-0.00104941
0.000121277
-0.000154433
-0.000535894
-0.00108001
-0.00178702
-0.0027277
-0.00385559
-0.00506672
-0.00629063
-0.00746058
-0.00854525
-0.00952909
-0.010406
-0.011178
-0.0118505
-0.0124299
-0.0129221
-0.0133324
-0.0136647
-0.0139216
-0.0141052
-0.0142168
-0.0142579
-0.0142305
-0.0141367
-0.0139799
-0.0137638
-0.0134927
-0.0131703
-0.0127986
-0.0123756
-0.0118931
-0.0113337
-0.010668
-0.00985614
-0.00884964
-0.00758397
-0.00600426
-0.00423698
-0.0028012
-0.00180527
-0.000891349
-0.00126023
-0.00180768
-0.00253198
-0.00347817
-0.00459461
-0.0057805
-0.00697155
-0.00810313
-0.00914893
-0.0100954
-0.0109387
-0.0116822
-0.0123315
-0.0128928
-0.0133719
-0.0137732
-0.0141
-0.0143544
-0.0145377
-0.0146507
-0.0146945
-0.0146705
-0.0145809
-0.0144289
-0.0142186
-0.013955
-0.0136429
-0.0132865
-0.0128867
-0.0124394
-0.0119322
-0.0113412
-0.0106317
-0.00976191
-0.00868135
-0.00732953
-0.00574429
-0.00450208
-0.00369046
-0.00165749
-0.00200546
-0.00254409
-0.00326759
-0.00419834
-0.00528274
-0.00643402
-0.0075824
-0.00867092
-0.00967648
-0.010587
-0.0114
-0.0121192
-0.0127499
-0.0132981
-0.0137686
-0.0141652
-0.0144902
-0.0147451
-0.0149305
-0.0150467
-0.0150941
-0.0150738
-0.0149877
-0.014839
-0.0146319
-0.014372
-0.0140654
-0.0137179
-0.0133333
-0.0129114
-0.0124445
-0.0119146
-0.0112923
-0.0105411
-0.00962128
-0.00847974
-0.00713779
-0.0060756
-0.00540379
-0.00239829
-0.00272203
-0.00324306
-0.00395218
-0.0048564
-0.0058998
-0.00701012
-0.00811308
-0.00915888
-0.0101263
-0.0110045
-0.0117917
-0.0124913
-0.0131082
-0.0136476
-0.0141135
-0.0145087
-0.014835
-0.0150928
-0.0152822
-0.0154029
-0.0154547
-0.0154383
-0.0153551
-0.0152083
-0.0150023
-0.0147432
-0.0144381
-0.0140943
-0.0137182
-0.013313
-0.0128757
-0.0123939
-0.0118437
-0.0111925
-0.0104063
-0.00944472
-0.00833685
-0.00744733
-0.00688909
-0.00307175
-0.00336909
-0.00386771
-0.00455491
-0.00542873
-0.00642988
-0.0074972
-0.00855638
-0.00956292
-0.0104966
-0.0113474
-0.0121138
-0.0127987
-0.0134062
-0.0139407
-0.0144053
-0.0148021
-0.0151319
-0.0153946
-0.0155894
-0.0157156
-0.0157723
-0.0157597
-0.015679
-0.015533
-0.0153264
-0.0150657
-0.0147587
-0.0144143
-0.0140409
-0.0136448
-0.013227
-0.0127805
-0.0122868
-0.0117178
-0.0110414
-0.0102308
-0.00932765
-0.00858839
-0.00811982
-0.00364471
-0.00391835
-0.00439176
-0.00505496
-0.00589859
-0.00686072
-0.00788733
-0.00890716
-0.00987968
-0.0107852
-0.0116143
-0.0123651
-0.0130399
-0.0136421
-0.014175
-0.0146412
-0.0150418
-0.015377
-0.015646
-0.0158473
-0.0159795
-0.0160414
-0.0160326
-0.0159538
-0.0158077
-0.015599
-0.0153345
-0.0150229
-0.0146741
-0.0142984
-0.0139047
-0.0134977
-0.013075
-0.0126233
-0.0121182
-0.0115308
-0.0108441
-0.0100987
-0.00948877
-0.00909511
-0.00410432
-0.00434735
-0.00479904
-0.00543986
-0.00625509
-0.00718358
-0.00817486
-0.00916137
-0.010106
-0.0109895
-0.0118026
-0.012543
-0.0132121
-0.0138126
-0.0143471
-0.0148172
-0.0152236
-0.0155656
-0.0158418
-0.0160502
-0.0161888
-0.0162559
-0.0162504
-0.0161729
-0.0160258
-0.0158136
-0.0155434
-0.0152246
-0.0148682
-0.0144859
-0.0140887
-0.0136847
-0.0132754
-0.0128525
-0.0123955
-0.0118774
-0.0112892
-0.010665
-0.0101565
-0.00982237
-0.00443538
-0.00465337
-0.00508546
-0.00570566
-0.00649351
-0.00739392
-0.00835668
-0.00931586
-0.0102391
-0.0111065
-0.0119092
-0.012644
-0.0133115
-0.0139137
-0.0144525
-0.0149288
-0.0153424
-0.0156923
-0.0159764
-0.0161923
-0.0163372
-0.016409
-0.0164064
-0.0163293
-0.01618
-0.0159629
-0.0156853
-0.0153571
-0.0149902
-0.0145975
-0.0141918
-0.0137837
-0.0133786
-0.0129725
-0.0125493
-0.0120835
-0.0115701
-0.0110372
-0.0106047
-0.0103167
-0.00462878
-0.00483247
-0.00525023
-0.00585427
-0.00661589
-0.00749205
-0.00842963
-0.00936749
-0.0102751
-0.0111329
-0.0119304
-0.0126642
-0.013334
-0.0139412
-0.0144867
-0.014971
-0.0153934
-0.015752
-0.0160445
-0.0162677
-0.0164187
-0.0164947
-0.016494
-0.0164163
-0.0162635
-0.0160399
-0.0157531
-0.0154134
-0.0150333
-0.0146269
-0.0142083
-0.0137902
-0.0133808
-0.0129805
-0.0125782
-0.0121515
-0.0116951
-0.0112292
-0.0108493
-0.0105936
-0.00470085
-0.00489163
-0.00529712
-0.00588771
-0.00662651
-0.00747873
-0.00839571
-0.00931722
-0.0102139
-0.0110662
-0.011863
-0.0125997
-0.0132754
-0.0138904
-0.0144452
-0.0149394
-0.0153718
-0.01574
-0.0160412
-0.0162718
-0.0164283
-0.0165077
-0.0165078
-0.0164281
-0.0162702
-0.0160385
-0.0157406
-0.0153872
-0.0149915
-0.0145684
-0.0141332
-0.0136999
-0.0132791
-0.012875
-0.0124819
-0.012082
-0.0116666
-0.0112459
-0.0109084
-0.0106689
-0.00467149
-0.00484773
-0.00523919
-0.00581649
-0.00653361
-0.00735856
-0.00825638
-0.00916475
-0.0100536
-0.0109038
-0.0117033
-0.0124465
-0.0131314
-0.0137573
-0.0143238
-0.0148299
-0.0152737
-0.0156525
-0.0159627
-0.0162006
-0.0163622
-0.016444
-0.0164438
-0.0163606
-0.016196
-0.0159543
-0.0156433
-0.0152739
-0.01486
-0.0144174
-0.0139622
-0.0135093
-0.0130712
-0.0126552
-0.0122609
-0.0118761
-0.0114884
-0.0110942
-0.0107994
-0.0105554
-0.00456199
-0.00472219
-0.00509448
-0.00565239
-0.00634748
-0.0071434
-0.00801489
-0.00891018
-0.00979279
-0.010643
-0.0114482
-0.0122011
-0.0128984
-0.0135381
-0.014119
-0.0146391
-0.0150961
-0.0154866
-0.0158066
-0.0160519
-0.0162183
-0.0163019
-0.0163001
-0.0162121
-0.016039
-0.0157853
-0.0154589
-0.0150712
-0.0146366
-0.0141715
-0.0136929
-0.0132169
-0.0127565
-0.0123215
-0.0119168
-0.0115356
-0.0111658
-0.0107879
-0.0105422
-0.0102617
-0.00439907
-0.00454022
-0.00488445
-0.00541167
-0.00607584
-0.00684055
-0.00767982
-0.0085568
-0.00943156
-0.0102824
-0.011095
-0.0118603
-0.0125729
-0.0132296
-0.0138278
-0.0143647
-0.0148369
-0.0152408
-0.0155717
-0.0158251
-0.0159963
-0.0160813
-0.0160772
-0.015983
-0.0157998
-0.0155322
-0.0151883
-0.0147799
-0.0143219
-0.0138314
-0.0133262
-0.0128232
-0.012336
-0.011876
-0.0114525
-0.0110638
-0.0107027
-0.0103277
-0.0101565
-0.0097939
-0.00421313
-0.00432891
-0.00463143
-0.00511231
-0.00573112
-0.00645499
-0.0072571
-0.0081081
-0.00897075
-0.00982095
-0.0106418
-0.0114216
-0.0121526
-0.0128297
-0.0134485
-0.0140052
-0.0144955
-0.014915
-0.0152586
-0.0155212
-0.0156979
-0.0157843
-0.0157774
-0.0156762
-0.0154817
-0.0151986
-0.0148353
-0.014404
-0.01392
-0.0134012
-0.0128661
-0.0123321
-0.0118138
-0.0113236
-0.0108744
-0.0104705
-0.0101078
-0.00971897
-0.00959181
-0.00916925
-0.00403219
-0.00411229
-0.0043549
-0.00477076
-0.00532763
-0.00599578
-0.00675133
-0.00756789
-0.00841236
-0.00925904
-0.0100879
-0.0108839
-0.0116363
-0.0123372
-0.0129805
-0.0135607
-0.0140725
-0.0145105
-0.0148692
-0.0151429
-0.0153264
-0.015415
-0.0154057
-0.0152972
-0.0150908
-0.0147911
-0.0144069
-0.0139508
-0.0134387
-0.0128888
-0.0123204
-0.0117516
-0.0111977
-0.0106721
-0.0101907
-0.00976558
-0.00939756
-0.00896452
-0.0088566
-0.00838325
-0.00387304
-0.00390524
-0.00406844
-0.00440071
-0.00487813
-0.00547374
-0.00616856
-0.00694044
-0.00775954
-0.00859864
-0.0094345
-0.010248
-0.0110246
-0.0117531
-0.0124251
-0.013033
-0.0135703
-0.0140305
-0.0144074
-0.0146949
-0.0148872
-0.0149797
-0.014969
-0.014854
-0.0146358
-0.0143194
-0.0139137
-0.0134317
-0.0128898
-0.0123064
-0.0117013
-0.0110935
-0.0104992
-0.00993294
-0.00941286
-0.00895972
-0.00857666
-0.00805608
-0.00798502
-0.00739462
-0.0037337
-0.00370475
-0.00377882
-0.0040134
-0.00439359
-0.00489873
-0.00551695
-0.00623222
-0.00701751
-0.00784408
-0.00868502
-0.00951685
-0.0103204
-0.0110807
-0.0117859
-0.0124264
-0.0129938
-0.0134806
-0.0138796
-0.0141842
-0.0143884
-0.0144872
-0.0144773
-0.0143573
-0.0141287
-0.0137966
-0.01337
-0.0128622
-0.0122896
-0.0116711
-0.0110265
-0.0103753
-0.0097354
-0.00912199
-0.00855546
-0.00806147
-0.00763637
-0.00702051
-0.00696728
-0.00615501
-0.00358534
-0.00349661
-0.0034905
-0.00361774
-0.00388233
-0.00427872
-0.00480511
-0.00545168
-0.00619441
-0.00700308
-0.00784682
-0.00869728
-0.00953032
-0.0103263
-0.0110697
-0.011748
-0.0123507
-0.012869
-0.0132946
-0.0136205
-0.0138404
-0.0139491
-0.0139432
-0.0138215
-0.0135851
-0.0132398
-0.0127945
-0.0122625
-0.0116599
-0.0110055
-0.010319
-0.00962013
-0.00892829
-0.00825946
-0.00763651
-0.00708512
-0.00658972
-0.00583347
-0.00582541
-0.00459678
-0.00339878
-0.00328257
-0.00320994
-0.00322034
-0.00335202
-0.00362249
-0.00404322
-0.00461058
-0.00530312
-0.00608894
-0.00693324
-0.00780243
-0.00866692
-0.00950211
-0.0102882
-0.0110094
-0.0116527
-0.0122077
-0.0126651
-0.0130171
-0.0132573
-0.0133804
-0.013383
-0.0132646
-0.0130246
-0.0126704
-0.0122107
-0.0116579
-0.0110279
-0.0103384
-0.00960863
-0.00885792
-0.00810678
-0.00737184
-0.00667741
-0.00604429
-0.00543897
-0.00448777
-0.00456409
-0.00266376
-0.00318417
-0.00307852
-0.00294105
-0.00282518
-0.00280905
-0.00293943
-0.00324331
-0.00372378
-0.00436125
-0.00512167
-0.00596538
-0.00685353
-0.00775104
-0.00862811
-0.00946047
-0.0102287
-0.0109174
-0.011514
-0.0120082
-0.0123916
-0.0126573
-0.0128001
-0.0128167
-0.0127056
-0.0124706
-0.0121147
-0.011647
-0.0110796
-0.0104269
-0.00970514
-0.00893232
-0.00812621
-0.00730743
-0.00649214
-0.00570448
-0.00495254
-0.00419008
-0.00302705
-0.00306082
-0.00035749
-0.00297459
-0.00288751
-0.00268128
-0.00243394
-0.00226079
-0.00224165
-0.00242203
-0.00281244
-0.00339348
-0.0041282
-0.00497203
-0.00588019
-0.00681211
-0.00773294
-0.00861401
-0.00943236
-0.0101698
-0.010812
-0.0113474
-0.011767
-0.0120638
-0.0122327
-0.0122705
-0.0121762
-0.0119528
-0.0116036
-0.011137
-0.0105633
-0.00989502
-0.0091458
-0.00833119
-0.00746575
-0.00656797
-0.00565008
-0.00473406
-0.00380781
-0.00282294
-0.00141345
-0.00108639
0.00233543
-0.00276739
-0.00269461
-0.00242045
-0.00204016
-0.00170842
-0.0015399
-0.00159912
-0.00190286
-0.00243172
-0.00314432
-0.00399057
-0.00492023
-0.00588749
-0.00685263
-0.00778297
-0.00865234
-0.00944014
-0.0101304
-0.0107106
-0.011171
-0.0115044
-0.0117059
-0.0117723
-0.0117031
-0.0115003
-0.0111683
-0.0107127
-0.0101418
-0.00946595
-0.00869437
-0.00783857
-0.0069066
-0.00591135
-0.00485307
-0.00374472
-0.00254333
-0.00120943
0.000619693
0.00157347
0.00583935
-0.00256497
-0.00248955
-0.00215496
-0.00164276
-0.00116201
-0.000857852
-0.000808784
-0.00103628
-0.00151984
-0.0022143
-0.00306424
-0.00401452
-0.00501515
-0.00602252
-0.00700038
-0.00791978
-0.00875802
-0.00949764
-0.0101251
-0.0106301
-0.0110051
-0.0112449
-0.0113469
-0.0113105
-0.0111369
-0.0108289
-0.0103911
-0.00982884
-0.00915037
-0.00835851
-0.00745945
-0.00644834
-0.00532683
-0.00406736
-0.00266064
-0.00100549
0.000932039
0.00356081
0.00568153
0.0115766
-0.00239594
-0.00229304
-0.00186717
-0.00123781
-0.000619203
-0.000203341
-6.61084e-05
-0.000231179
-0.000677206
-0.00135627
-0.00220986
-0.00317927
-0.0042112
-0.00525917
-0.0062839
-0.00725373
-0.00814367
-0.00893464
-0.00961196
-0.0101646
-0.0105844
-0.0108662
-0.011007
-0.0110059
-0.0108634
-0.0105812
-0.0101633
-0.00961115
-0.00892802
-0.00811111
-0.00716255
-0.00605436
-0.0047707
-0.00322774
-0.0013756
0.0010116
0.00399617
0.00819706
0.012798
0.0223908
-0.00244379
-0.00223802
-0.00164093
-0.000875038
-0.000145747
0.000359809
0.00056001
0.000436318
1.25716e-05
-0.000660591
-0.00152212
-0.00251087
-0.00357123
-0.00465477
-0.00572013
-0.0067337
-0.0076685
-0.00850392
-0.00922403
-0.00981723
-0.0102751
-0.0105921
-0.0107649
-0.0107917
-0.0106731
-0.0104096
-0.0100039
-0.00945497
-0.00876463
-0.0079198
-0.00690903
-0.00568963
-0.00422184
-0.0023267
0.000111556
0.00355026
0.00818555
0.0152728
0.0247678
0.0412612
-0.00332455
-0.00248496
-0.00154115
-0.000571264
0.000289169
0.000868511
0.00111636
0.00101776
0.000601701
-7.71648e-05
-0.000954422
-0.00196683
-0.00305682
-0.00417439
-0.00527616
-0.00632711
-0.00729864
-0.00816941
-0.00892213
-0.00954534
-0.0100299
-0.010371
-0.0105643
-0.0106088
-0.0105039
-0.0102502
-0.00984854
-0.00929727
-0.00859272
-0.00772349
-0.00666807
-0.00537383
-0.00375084
-0.0015662
0.00145991
0.00611983
0.0131232
0.0247215
0.0420993
0.0683043
-0.00530563
-0.00152977
-0.000152453
0.000730372
0.00148554
0.00200824
0.00219343
0.00202114
0.00152944
0.000779447
-0.000163622
-0.00123664
-0.00238286
-0.00355213
-0.00470194
-0.00579611
-0.0068067
-0.00771136
-0.00849413
-0.00914227
-0.00964834
-0.0100062
-0.0102139
-0.0102691
-0.0101727
-0.00992436
-0.00952428
-0.00896958
-0.00825102
-0.00734985
-0.00623971
-0.00485699
-0.00322207
-0.000935874
0.00234332
0.00815437
0.0181379
0.0351456
0.0618906
0.0953349
)
;

boundaryField
{
    movingWall
    {
        type            zeroGradient;
    }
    fixedWalls
    {
        type            zeroGradient;
    }
    frontAndBack
    {
        type            empty;
    }
}


// ************************************************************************* //
