/*--------------------------------*- C++ -*----------------------------------*\
  =========                 |
  \\      /  F ield         | OpenFOAM: The Open Source CFD Toolbox
   \\    /   O peration     | Website:  https://openfoam.org
    \\  /    A nd           | Version:  13
     \\/     M anipulation  |
\*---------------------------------------------------------------------------*/
FoamFile
{
    format      ascii;
    class       surfaceScalarField;
    location    "3.5";
    object      phi;
}
// * * * * * * * * * * * * * * * * * * * * * * * * * * * * * * * * * * * * * //

dimensions      [0 3 -1 0 0 0 0];

internalField   nonuniform List<scalar> 
760
(
1.00023e-07
-1.00026e-07
8.11218e-08
1.89011e-08
-1.01436e-07
1.82558e-07
-6.05773e-07
5.04337e-07
-1.54533e-06
9.39555e-07
-2.69945e-06
1.15412e-06
-3.70188e-06
1.00243e-06
-4.52312e-06
8.21248e-07
-5.15851e-06
6.35389e-07
-5.58341e-06
4.24898e-07
-5.84122e-06
2.57809e-07
-5.91587e-06
7.46518e-08
-5.80459e-06
-1.11281e-07
-5.50893e-06
-2.95659e-07
-4.99179e-06
-5.17143e-07
-4.23301e-06
-7.5878e-07
-3.20639e-06
-1.02662e-06
-1.96456e-06
-1.24183e-06
-7.11367e-07
-1.25319e-06
-7.11367e-07
-6.3339e-08
-3.6687e-08
-3.848e-07
3.40362e-07
-1.08637e-06
8.84127e-07
-2.15442e-06
1.57239e-06
-3.21328e-06
1.99842e-06
-4.00316e-06
1.944e-06
-4.6975e-06
1.69677e-06
-5.26665e-06
1.3904e-06
-5.69247e-06
1.0612e-06
-5.99981e-06
7.32241e-07
-6.15826e-06
4.16262e-07
-6.16618e-06
8.25745e-08
-6.03805e-06
-2.39416e-07
-5.75094e-06
-5.82766e-07
-5.29977e-06
-9.68316e-07
-4.64788e-06
-1.41068e-06
-3.76807e-06
-1.90643e-06
-2.62067e-06
-2.38923e-06
-1.25901e-06
-2.61485e-06
-1.97038e-06
-3.83187e-07
3.465e-07
-1.0739e-06
1.03107e-06
-2.00641e-06
1.81663e-06
-2.92078e-06
2.48677e-06
-3.6359e-06
2.71353e-06
-4.21094e-06
2.51904e-06
-4.69319e-06
2.17902e-06
-5.07202e-06
1.76923e-06
-5.33493e-06
1.32411e-06
-5.49473e-06
8.92042e-07
-5.54258e-06
4.64112e-07
-5.49337e-06
3.33721e-08
-5.35083e-06
-3.81957e-07
-5.10277e-06
-8.30823e-07
-4.7351e-06
-1.33599e-06
-4.22544e-06
-1.92034e-06
-3.54115e-06
-2.59071e-06
-2.62801e-06
-3.30237e-06
-1.4316e-06
-3.81126e-06
-3.40198e-06
-6.19315e-07
9.65816e-07
-1.42206e-06
1.83382e-06
-2.26323e-06
2.65781e-06
-2.95862e-06
3.18215e-06
-3.46685e-06
3.22176e-06
-3.87509e-06
2.92728e-06
-4.1957e-06
2.49962e-06
-4.42685e-06
2.00039e-06
-4.57865e-06
1.4759e-06
-4.6478e-06
9.61194e-07
-4.64204e-06
4.58353e-07
-4.57051e-06
-3.81586e-08
-4.42695e-06
-5.25517e-07
-4.21414e-06
-1.04364e-06
-3.92618e-06
-1.62395e-06
-3.54241e-06
-2.30411e-06
-3.02569e-06
-3.10744e-06
-2.31706e-06
-4.011e-06
-1.32198e-06
-4.80634e-06
-4.72396e-06
-6.88516e-07
1.65433e-06
-1.44257e-06
2.58787e-06
-2.12062e-06
3.33586e-06
-2.62864e-06
3.69017e-06
-3.00707e-06
3.60019e-06
-3.29834e-06
3.21855e-06
-3.5134e-06
2.71468e-06
-3.6586e-06
2.14559e-06
-3.73991e-06
1.55721e-06
-3.75693e-06
9.78221e-07
-3.71546e-06
4.1688e-07
-3.62531e-06
-1.28311e-07
-3.48606e-06
-6.6477e-07
-3.30703e-06
-1.22266e-06
-3.08835e-06
-1.84264e-06
-2.81455e-06
-2.5779e-06
-2.44537e-06
-3.47662e-06
-1.91507e-06
-4.54129e-06
-1.12699e-06
-5.59442e-06
-5.85096e-06
-6.21773e-07
2.27611e-06
-1.25335e-06
3.21945e-06
-1.76536e-06
3.84787e-06
-2.13736e-06
4.06217e-06
-2.41767e-06
3.88051e-06
-2.62817e-06
3.42904e-06
-2.77637e-06
2.86288e-06
-2.86898e-06
2.2382e-06
-2.90971e-06
1.59794e-06
-2.89988e-06
9.68391e-07
-2.84368e-06
3.60682e-07
-2.74875e-06
-2.23233e-07
-2.62239e-06
-7.91134e-07
-2.47603e-06
-1.36902e-06
-2.31608e-06
-2.00259e-06
-2.13551e-06
-2.75847e-06
-1.90339e-06
-3.70874e-06
-1.54885e-06
-4.89584e-06
-9.28664e-07
-6.2146e-06
-6.77962e-06
-4.88541e-07
2.76465e-06
-9.62955e-07
3.69386e-06
-1.32173e-06
4.20665e-06
-1.58331e-06
4.32375e-06
-1.78184e-06
4.07904e-06
-1.93124e-06
3.57844e-06
-2.0344e-06
2.96604e-06
-2.09589e-06
2.29969e-06
-2.11741e-06
1.61945e-06
-2.09948e-06
9.50461e-07
-2.04508e-06
3.06287e-07
-1.96087e-06
-3.07442e-07
-1.85676e-06
-8.95244e-07
-1.74621e-06
-1.47957e-06
-1.6398e-06
-2.10899e-06
-1.53562e-06
-2.86265e-06
-1.40825e-06
-3.83611e-06
-1.19206e-06
-5.11202e-06
-7.74693e-07
-6.63197e-06
-7.55431e-06
-3.21044e-07
3.08569e-06
-6.36584e-07
4.0094e-06
-8.54824e-07
4.42489e-06
-1.01395e-06
4.48288e-06
-1.13979e-06
4.20488e-06
-1.23791e-06
3.67656e-06
-1.30714e-06
3.03527e-06
-1.34915e-06
2.3417e-06
-1.36363e-06
1.63393e-06
-1.3499e-06
9.3674e-07
-1.30965e-06
2.66032e-07
-1.24851e-06
-3.68579e-07
-1.17687e-06
-9.66883e-07
-1.10925e-06
-1.5472e-06
-1.05891e-06
-2.15934e-06
-1.02765e-06
-2.89391e-06
-9.92825e-07
-3.87093e-06
-8.90405e-07
-5.21444e-06
-6.19299e-07
-6.90307e-06
-8.17361e-06
-1.57483e-07
3.24317e-06
-3.06489e-07
4.15841e-06
-4.00427e-07
4.51882e-06
-4.63235e-07
4.54568e-06
-5.16158e-07
4.2578e-06
-5.63375e-07
3.72377e-06
-6.00947e-07
3.07284e-06
-6.27128e-07
2.36789e-06
-6.39614e-07
1.64642e-06
-6.36672e-07
9.33798e-07
-6.18809e-07
2.4817e-07
-5.90353e-07
-3.97036e-07
-5.60857e-07
-9.96378e-07
-5.44248e-07
-1.56381e-06
-5.5428e-07
-2.1493e-06
-5.95066e-07
-2.85313e-06
-6.46047e-07
-3.81995e-06
-6.44805e-07
-5.21569e-06
-5.08048e-07
-7.03983e-06
-8.68166e-06
1.50557e-08
3.22812e-06
-1.20576e-09
4.17467e-06
1.56579e-08
4.50196e-06
5.11104e-08
4.51023e-06
7.44656e-08
4.23445e-06
8.22537e-08
3.71598e-06
7.96538e-08
3.07544e-06
7.17602e-08
2.37578e-06
6.18106e-08
1.65637e-06
5.24551e-08
9.43153e-07
4.37762e-08
2.56849e-07
3.23527e-08
-3.85612e-07
1.06175e-08
-9.74643e-07
-3.32775e-08
-1.51991e-06
-1.09753e-07
-2.07283e-06
-2.22715e-07
-2.74016e-06
-3.56249e-07
-3.68642e-06
-4.43862e-07
-5.12807e-06
-4.10336e-07
-7.07336e-06
-9.092e-06
1.44779e-07
3.08334e-06
2.65246e-07
4.0542e-06
3.97614e-07
4.36959e-06
5.28084e-07
4.37976e-06
6.28477e-07
4.13405e-06
6.94218e-07
3.65024e-06
7.30844e-07
3.03882e-06
7.44386e-07
2.36224e-06
7.39095e-07
1.66166e-06
7.17067e-07
9.65181e-07
6.78003e-07
2.95914e-07
6.20014e-07
-3.27624e-07
5.39361e-07
-8.9399e-07
4.29869e-07
-1.41042e-06
2.84506e-07
-1.92747e-06
9.92151e-08
-2.55487e-06
-1.08063e-07
-3.47914e-06
-2.79836e-07
-4.9563e-06
-3.41753e-07
-7.01144e-06
-9.43375e-06
2.55762e-07
2.82758e-06
4.75734e-07
3.83423e-06
7.0288e-07
4.14245e-06
9.2139e-07
4.16125e-06
1.1087e-06
3.94674e-06
1.24291e-06
3.51603e-06
1.32878e-06
2.95295e-06
1.37232e-06
2.3187e-06
1.37773e-06
1.65625e-06
1.34687e-06
9.96043e-07
1.27916e-06
3.63616e-07
1.17327e-06
-2.21727e-07
1.03084e-06
-7.51561e-07
8.52368e-07
-1.23195e-06
6.37559e-07
-1.71266e-06
3.84517e-07
-2.30183e-06
1.05383e-07
-3.20001e-06
-1.46206e-07
-4.70471e-06
-2.85614e-07
-6.87203e-06
-9.71936e-06
3.32241e-07
2.49534e-06
6.24068e-07
3.5424e-06
9.23484e-07
3.84303e-06
1.22052e-06
3.86422e-06
1.48847e-06
3.67879e-06
1.6973e-06
3.30721e-06
1.84182e-06
2.80842e-06
1.92419e-06
2.23633e-06
1.94729e-06
1.63314e-06
1.91274e-06
1.0306e-06
1.82134e-06
4.55011e-07
1.67183e-06
-7.2213e-08
1.47328e-06
-5.53019e-07
1.23236e-06
-9.91027e-07
9.54892e-07
-1.43519e-06
6.39324e-07
-1.98626e-06
2.90527e-07
-2.85121e-06
-3.96125e-08
-4.37457e-06
-2.3125e-07
-6.68039e-06
-9.95061e-06
3.61251e-07
2.13409e-06
6.99045e-07
3.20461e-06
1.04997e-06
3.49211e-06
1.40784e-06
3.50635e-06
1.74356e-06
3.34307e-06
2.02298e-06
3.02778e-06
2.22968e-06
2.60173e-06
2.35762e-06
2.10839e-06
2.40618e-06
1.58459e-06
2.37619e-06
1.06058e-06
2.2701e-06
5.61101e-07
2.09479e-06
1.03096e-07
1.85547e-06
-3.13693e-07
1.56871e-06
-7.04265e-07
1.24296e-06
-1.10944e-06
8.78256e-07
-1.62156e-06
4.76148e-07
-2.4491e-06
9.26981e-08
-3.99112e-06
-1.40759e-07
-6.44694e-06
-1.00914e-05
3.31162e-07
1.80292e-06
6.91333e-07
2.84444e-06
1.07739e-06
3.10605e-06
1.4803e-06
3.10344e-06
1.86911e-06
2.95426e-06
2.20635e-06
2.69054e-06
2.4684e-06
2.33968e-06
2.64283e-06
1.93396e-06
2.72418e-06
1.50323e-06
2.71217e-06
1.07259e-06
2.61095e-06
6.62313e-07
2.42936e-06
2.84693e-07
2.17633e-06
-6.067e-08
1.86863e-06
-3.96565e-07
1.51519e-06
-7.55997e-07
1.11853e-06
-1.2249e-06
6.81227e-07
-2.0118e-06
2.66105e-07
-3.576e-06
1.29159e-08
-6.19375e-06
-1.00785e-05
2.38978e-07
1.56395e-06
5.97521e-07
2.48589e-06
1.01906e-06
2.68451e-06
1.45762e-06
2.66489e-06
1.88357e-06
2.52831e-06
2.26369e-06
2.31041e-06
2.57104e-06
2.03233e-06
2.78941e-06
1.7156e-06
2.90952e-06
1.38312e-06
2.93096e-06
1.05116e-06
2.85791e-06
7.35363e-07
2.69902e-06
4.43584e-07
2.46477e-06
1.73575e-07
2.16582e-06
-9.76083e-08
1.80809e-06
-3.98274e-07
1.40329e-06
-8.20094e-07
9.53376e-07
-1.56189e-06
4.99088e-07
-3.12171e-06
1.59001e-07
-5.85366e-06
-9.91946e-06
9.94596e-08
1.46449e-06
4.56263e-07
2.12909e-06
8.9091e-07
2.24986e-06
1.35761e-06
2.19819e-06
1.81516e-06
2.07077e-06
2.23099e-06
1.89458e-06
2.57963e-06
1.6837e-06
2.8449e-06
1.45032e-06
3.01818e-06
1.20984e-06
3.0961e-06
9.73241e-07
3.07997e-06
7.51489e-07
2.9786e-06
5.44956e-07
2.80089e-06
3.51287e-07
2.55099e-06
1.52286e-07
2.22861e-06
-7.58893e-08
1.8529e-06
-4.44386e-07
1.40069e-06
-1.10968e-06
8.84195e-07
-2.60521e-06
3.85011e-07
-5.35448e-06
-9.53444e-06
-2.35427e-07
1.69991e-06
1.24512e-07
1.76915e-06
6.48771e-07
1.7256e-06
1.20218e-06
1.64478e-06
1.7371e-06
1.53585e-06
2.22854e-06
1.40313e-06
2.65572e-06
1.25652e-06
3.00316e-06
1.10288e-06
3.2613e-06
9.517e-07
3.42937e-06
8.0517e-07
3.51053e-06
6.70336e-07
3.51274e-06
5.4274e-07
3.44002e-06
4.24008e-07
3.29921e-06
2.93101e-07
3.094e-06
1.29313e-07
2.80416e-06
-1.54545e-07
2.35638e-06
-6.61897e-07
1.74306e-06
-1.99189e-06
8.73861e-07
-4.48528e-06
-8.66058e-06
-3.95464e-07
2.09538e-06
1.66373e-07
1.20732e-06
8.66083e-07
1.02589e-06
1.55747e-06
9.53386e-07
2.20941e-06
8.83918e-07
2.8076e-06
8.04942e-07
3.33987e-06
7.24252e-07
3.79929e-06
6.43456e-07
4.17888e-06
5.72107e-07
4.48849e-06
4.95561e-07
4.7213e-06
4.37532e-07
4.90012e-06
3.63912e-07
5.00728e-06
3.16854e-07
5.06849e-06
2.31887e-07
5.02662e-06
1.71189e-07
4.87706e-06
-4.98365e-09
4.54843e-06
-3.33272e-07
3.85471e-06
-1.29817e-06
2.27796e-06
-2.90854e-06
-6.38262e-06
2.09538e-06
3.30269e-06
4.32858e-06
5.28197e-06
6.16589e-06
6.97083e-06
7.69508e-06
8.33854e-06
8.91064e-06
9.40621e-06
9.84374e-06
1.02077e-05
1.05245e-05
1.07564e-05
1.09276e-05
1.09226e-05
1.05893e-05
9.29116e-06
6.38262e-06
)
;

boundaryField
{
    movingWall
    {
        type            calculated;
        value           uniform 0;
    }
    fixedWalls
    {
        type            calculated;
        value           uniform 0;
    }
    frontAndBack
    {
        type            empty;
    }
}


// ************************************************************************* //
