/*--------------------------------*- C++ -*----------------------------------*\
  =========                 |
  \\      /  F ield         | OpenFOAM: The Open Source CFD Toolbox
   \\    /   O peration     | Website:  https://openfoam.org
    \\  /    A nd           | Version:  13
     \\/     M anipulation  |
\*---------------------------------------------------------------------------*/
FoamFile
{
    format      ascii;
    class       volVectorField;
    location    "3.5";
    object      U;
}
// * * * * * * * * * * * * * * * * * * * * * * * * * * * * * * * * * * * * * //

dimensions      [0 1 -1 0 0 0 0];

internalField   nonuniform List<vector> 
400
(
(0.00131905 -0.0013522 0)
(0.00239431 -0.000701997 0)
(0.00105587 -7.71217e-05 0)
(-0.00548628 0.000965579 0)
(-0.0168745 0.00557054 0)
(-0.0432149 0.0126702 0)
(-0.0671416 0.010551 0)
(-0.0842153 0.00843552 0)
(-0.0993326 0.00660497 0)
(-0.108948 0.00430708 0)
(-0.115557 0.00263587 0)
(-0.118349 0.000624284 0)
(-0.118291 -0.001882 0)
(-0.113583 -0.00411977 0)
(-0.105332 -0.00686778 0)
(-0.0916939 -0.00905991 0)
(-0.0736929 -0.0115106 0)
(-0.050978 -0.0126532 0)
(-0.0260437 -0.010767 0)
(-0.00517178 -0.00287204 0)
(0.000334574 -0.00294153 0)
(-0.00313899 0.00135784 0)
(-0.0116137 0.00790644 0)
(-0.0307117 0.0205281 0)
(-0.0543254 0.0319655 0)
(-0.0729221 0.0318153 0)
(-0.0891602 0.0277488 0)
(-0.101022 0.0230036 0)
(-0.110835 0.0179205 0)
(-0.117973 0.0120078 0)
(-0.122524 0.00702734 0)
(-0.124112 0.00180002 0)
(-0.122839 -0.00343636 0)
(-0.11852 -0.00919932 0)
(-0.110956 -0.0157995 0)
(-0.0994955 -0.0235421 0)
(-0.083835 -0.0317969 0)
(-0.0637881 -0.038639 0)
(-0.0391523 -0.0391644 0)
(-0.013535 -0.0237177 0)
(-0.00290021 0.00177471 0)
(-0.0126285 0.0131482 0)
(-0.0295246 0.028244 0)
(-0.0495457 0.0419551 0)
(-0.0668315 0.0478485 0)
(-0.0794389 0.0448364 0)
(-0.0903767 0.0388116 0)
(-0.0983999 0.0314318 0)
(-0.10514 0.0234226 0)
(-0.109054 0.0160968 0)
(-0.110997 0.00862358 0)
(-0.110787 0.00104389 0)
(-0.108975 -0.00668731 0)
(-0.105032 -0.0149012 0)
(-0.0988217 -0.0241244 0)
(-0.0898621 -0.0347243 0)
(-0.0776066 -0.046829 0)
(-0.0615951 -0.0594152 0)
(-0.040568 -0.0671148 0)
(-0.0177037 -0.05564 0)
(-0.00575109 0.012946 0)
(-0.0192262 0.0291375 0)
(-0.0365694 0.0455281 0)
(-0.0536121 0.0575192 0)
(-0.0655186 0.0595479 0)
(-0.0742601 0.0546417 0)
(-0.0816197 0.0469656 0)
(-0.0868816 0.0378238 0)
(-0.0907556 0.0281731 0)
(-0.0926988 0.0185915 0)
(-0.0933123 0.00920842 0)
(-0.0924498 -9.77285e-06 0)
(-0.0903154 -0.00934147 0)
(-0.0867249 -0.0192647 0)
(-0.0817316 -0.0304012 0)
(-0.0750102 -0.0433696 0)
(-0.0658734 -0.0584358 0)
(-0.0534244 -0.0748733 0)
(-0.035855 -0.0883317 0)
(-0.0170409 -0.0841642 0)
(-0.00692696 0.0262249 0)
(-0.0207636 0.0444316 0)
(-0.0361962 0.0602942 0)
(-0.0488677 0.0689733 0)
(-0.057514 0.0683563 0)
(-0.0637513 0.0616429 0)
(-0.0687995 0.0523432 0)
(-0.0722205 0.0416484 0)
(-0.0744352 0.0304826 0)
(-0.0752873 0.0194579 0)
(-0.074997 0.0087531 0)
(-0.073615 -0.00168131 0)
(-0.071294 -0.0120695 0)
(-0.0680927 -0.0229732 0)
(-0.0641387 -0.0351676 0)
(-0.0592921 -0.0495878 0)
(-0.0529531 -0.0669869 0)
(-0.0437997 -0.0871368 0)
(-0.0295661 -0.105708 0)
(-0.0155383 -0.108084 0)
(-0.00640593 0.0390064 0)
(-0.0186919 0.0581263 0)
(-0.0311472 0.0720557 0)
(-0.0400777 0.0776231 0)
(-0.0465632 0.0749417 0)
(-0.0510401 0.0666422 0)
(-0.0545702 0.0559377 0)
(-0.0568335 0.0439635 0)
(-0.0581024 0.0316224 0)
(-0.0583332 0.0194815 0)
(-0.0576126 0.007746 0)
(-0.0560379 -0.00358315 0)
(-0.05378 -0.0146891 0)
(-0.0510275 -0.0261205 0)
(-0.0479811 -0.0387614 0)
(-0.0446523 -0.0538211 0)
(-0.0406423 -0.0725256 0)
(-0.0346926 -0.0953543 0)
(-0.0247353 -0.119739 0)
(-0.0114738 -0.128002 0)
(-0.00520573 0.050392 0)
(-0.0146904 0.0692382 0)
(-0.023815 0.0807727 0)
(-0.0297743 0.0840639 0)
(-0.0345139 0.0797774 0)
(-0.0376007 0.0702323 0)
(-0.0400586 0.0584051 0)
(-0.0415927 0.0454446 0)
(-0.0423622 0.0321894 0)
(-0.0423368 0.0191581 0)
(-0.0415533 0.00659808 0)
(-0.0401036 -0.00541832 0)
(-0.0381646 -0.0170152 0)
(-0.0359832 -0.0286809 0)
(-0.0338258 -0.0413705 0)
(-0.0317938 -0.0565494 0)
(-0.0296017 -0.0758942 0)
(-0.0260183 -0.100687 0)
(-0.0199939 -0.12946 0)
(-0.0096742 -0.144536 0)
(-0.00320746 0.0584663 0)
(-0.00991917 0.0773706 0)
(-0.0157253 0.0867118 0)
(-0.0191023 0.0883792 0)
(-0.0222354 0.0830821 0)
(-0.0241357 0.072725 0)
(-0.0257502 0.0601223 0)
(-0.026777 0.0464633 0)
(-0.0272854 0.0325261 0)
(-0.0272396 0.0188099 0)
(-0.0266435 0.00561379 0)
(-0.0255674 -0.00690955 0)
(-0.0241784 -0.0188066 0)
(-0.0227435 -0.030486 0)
(-0.0215682 -0.0429385 0)
(-0.0208204 -0.0578721 0)
(-0.0202883 -0.0774403 0)
(-0.0187647 -0.103745 0)
(-0.016026 -0.136 0)
(-0.00724656 -0.157959 0)
(-0.00165799 0.0638989 0)
(-0.00481513 0.0822898 0)
(-0.00760101 0.0899288 0)
(-0.0089199 0.0907144 0)
(-0.0102538 0.0849617 0)
(-0.0110223 0.0742455 0)
(-0.0118424 0.0612344 0)
(-0.0124207 0.0471701 0)
(-0.012757 0.032805 0)
(-0.0128027 0.0186396 0)
(-0.0125416 0.00501626 0)
(-0.0120207 -0.00783135 0)
(-0.0113822 -0.0198451 0)
(-0.0108794 -0.0313499 0)
(-0.0108116 -0.0433459 0)
(-0.011378 -0.057756 0)
(-0.0124701 -0.0772225 0)
(-0.0127569 -0.10468 0)
(-0.0129317 -0.139894 0)
(-0.00588987 -0.168967 0)
(0.000673302 0.0652997 0)
(1.44579e-05 0.0839884 0)
(-9.31388e-05 0.0908178 0)
(0.000583096 0.0911595 0)
(0.00113301 0.0853364 0)
(0.00151305 0.0747229 0)
(0.00154462 0.0617067 0)
(0.00146502 0.0475678 0)
(0.00132022 0.0330733 0)
(0.00116902 0.0187336 0)
(0.00102732 0.00493644 0)
(0.000863344 -0.00800484 0)
(0.000568919 -0.0199337 0)
(-5.08521e-05 -0.0310864 0)
(-0.00122837 -0.0424773 0)
(-0.00314805 -0.0561947 0)
(-0.00591338 -0.0753565 0)
(-0.00769856 -0.103754 0)
(-0.010633 -0.141334 0)
(-0.00425315 -0.177945 0)
(0.00193089 0.0639092 0)
(0.00409473 0.0830366 0)
(0.00638123 0.0893732 0)
(0.00917462 0.089444 0)
(0.0113572 0.0842962 0)
(0.0131597 0.0741303 0)
(0.0141993 0.0614819 0)
(0.014748 0.0476077 0)
(0.0148863 0.0333062 0)
(0.0146785 0.0191115 0)
(0.0141321 0.00545286 0)
(0.0132128 -0.00729151 0)
(0.0118481 -0.0189013 0)
(0.00992965 -0.0295481 0)
(0.00737663 -0.040247 0)
(0.00408891 -0.0531836 0)
(-0.000409684 -0.0719133 0)
(-0.00330693 -0.101113 0)
(-0.00891503 -0.141026 0)
(-0.00304059 -0.185402 0)
(0.00313634 0.0601488 0)
(0.00740019 0.0796822 0)
(0.0116307 0.085807 0)
(0.0161837 0.0860682 0)
(0.0201656 0.0814331 0)
(0.023493 0.0722385 0)
(0.0257269 0.0603862 0)
(0.0270743 0.0471622 0)
(0.0276289 0.0334174 0)
(0.0274543 0.0197362 0)
(0.0265423 0.00659276 0)
(0.0248552 -0.00560442 0)
(0.0223634 -0.0166171 0)
(0.0190841 -0.0266223 0)
(0.0151308 -0.0366041 0)
(0.0104861 -0.0487632 0)
(0.00430356 -0.0669864 0)
(0.000755252 -0.0967707 0)
(-0.00790639 -0.138965 0)
(-0.00137534 -0.191534 0)
(0.00395589 0.0538962 0)
(0.00973113 0.0743474 0)
(0.0153992 0.0803917 0)
(0.021373 0.0808439 0)
(0.0270285 0.0768683 0)
(0.0318785 0.0688654 0)
(0.035463 0.058197 0)
(0.037795 0.0460348 0)
(0.0389252 0.0332561 0)
(0.038901 0.0204971 0)
(0.0377123 0.00827646 0)
(0.0353434 -0.0030122 0)
(0.0318251 -0.013129 0)
(0.0273152 -0.022352 0)
(0.0220887 -0.03162 0)
(0.016225 -0.043024 0)
(0.0085251 -0.0606583 0)
(0.00475046 -0.0909222 0)
(-0.00734974 -0.13579 0)
(0.000734209 -0.196675 0)
(0.00414586 0.0466174 0)
(0.0108343 0.0678689 0)
(0.0174895 0.0737364 0)
(0.0244973 0.0741503 0)
(0.0314781 0.0707449 0)
(0.0377126 0.0639255 0)
(0.0426466 0.0546708 0)
(0.0460775 0.043951 0)
(0.0479253 0.032582 0)
(0.0482027 0.021201 0)
(0.0469001 0.0103311 0)
(0.0441092 0.000328526 0)
(0.0399014 -0.00865027 0)
(0.0345226 -0.0169683 0)
(0.028324 -0.0254916 0)
(0.0215322 -0.0361512 0)
(0.012568 -0.0531194 0)
(0.00886722 -0.0838075 0)
(-0.00704299 -0.131565 0)
(0.00405038 -0.200949 0)
(0.00333854 0.0392551 0)
(0.0105569 0.060468 0)
(0.0177087 0.066156 0)
(0.0254722 0.0663624 0)
(0.0334573 0.0632957 0)
(0.0408242 0.0575566 0)
(0.0468956 0.0498104 0)
(0.0513626 0.0408121 0)
(0.0540107 0.031221 0)
(0.0547881 0.0216107 0)
(0.0536954 0.0124461 0)
(0.0508829 0.00402568 0)
(0.0464679 -0.00363705 0)
(0.0407644 -0.0109284 0)
(0.0340483 -0.0186236 0)
(0.0267523 -0.0284784 0)
(0.0167474 -0.0447343 0)
(0.0135411 -0.0760518 0)
(-0.00642022 -0.126987 0)
(0.00872539 -0.204605 0)
(0.00194394 0.0334638 0)
(0.0084056 0.0536199 0)
(0.0162201 0.0582516 0)
(0.0246791 0.0579429 0)
(0.0333592 0.0550369 0)
(0.0415397 0.0502216 0)
(0.0485087 0.0439425 0)
(0.0538674 0.0367256 0)
(0.0573435 0.0290913 0)
(0.0588289 0.0214722 0)
(0.0583473 0.0142045 0)
(0.0560362 0.0074955 0)
(0.0520438 0.00129319 0)
(0.046683 -0.00481597 0)
(0.0399375 -0.0115281 0)
(0.0326139 -0.0205636 0)
(0.0219981 -0.0360439 0)
(0.0198276 -0.067738 0)
(-0.00501905 -0.122714 0)
(0.0151651 -0.206995 0)
(-0.000918942 0.0295514 0)
(0.00561893 0.0456358 0)
(0.0133391 0.0492906 0)
(0.022357 0.0487323 0)
(0.0316648 0.0461689 0)
(0.0405115 0.0422956 0)
(0.0482551 0.0374811 0)
(0.0544829 0.0320437 0)
(0.058928 0.0263568 0)
(0.0615475 0.0206618 0)
(0.0621863 0.0152813 0)
(0.0610118 0.0102709 0)
(0.0581579 0.00557419 0)
(0.053919 0.000762572 0)
(0.0478741 -0.00473854 0)
(0.0414889 -0.0126301 0)
(0.0306796 -0.0269844 0)
(0.0296322 -0.0584999 0)
(-0.00174585 -0.115933 0)
(0.0242189 -0.204465 0)
(-0.00517734 0.0307461 0)
(-0.00269339 0.0409594 0)
(0.0077149 0.0413958 0)
(0.0184289 0.039731 0)
(0.0293336 0.0370749 0)
(0.0396977 0.0337807 0)
(0.048978 0.0300953 0)
(0.0568099 0.0261996 0)
(0.0629416 0.0223389 0)
(0.067239 0.0186198 0)
(0.0697404 0.0151826 0)
(0.0705873 0.0119768 0)
(0.069791 0.00901962 0)
(0.0677482 0.00588003 0)
(0.0638073 0.00219807 0)
(0.0597104 -0.00416593 0)
(0.0496129 -0.0166242 0)
(0.048566 -0.0466775 0)
(0.00931073 -0.103781 0)
(0.0397221 -0.186146 0)
(-0.00902056 0.0368898 0)
(-0.00427981 0.023946 0)
(0.0105107 0.0223439 0)
(0.0242107 0.0216408 0)
(0.0376497 0.0204471 0)
(0.0502302 0.0187781 0)
(0.0615664 0.0169099 0)
(0.0715524 0.0149471 0)
(0.079969 0.0129933 0)
(0.0869233 0.0110755 0)
(0.0923101 0.00926956 0)
(0.0964938 0.00754403 0)
(0.0991872 0.00585794 0)
(0.100955 0.00396176 0)
(0.10064 0.00154716 0)
(0.0992786 -0.00347922 0)
(0.0914991 -0.0122607 0)
(0.0897165 -0.0364976 0)
(0.0472521 -0.0806222 0)
(0.07228 -0.14266 0)
(0.044776 0.0432184 0)
(0.0508119 0.0312657 0)
(0.0735483 0.0252301 0)
(0.0964639 0.0222388 0)
(0.114854 0.0201051 0)
(0.131517 0.0181803 0)
(0.146322 0.0163772 0)
(0.160294 0.0146541 0)
(0.172265 0.0133585 0)
(0.183341 0.0118377 0)
(0.192455 0.0110749 0)
(0.200619 0.00958124 0)
(0.207222 0.00928621 0)
(0.21236 0.0075406 0)
(0.216571 0.0073982 0)
(0.217766 0.00404768 0)
(0.214058 0.002213 0)
(0.203606 -0.00654582 0)
(0.157669 -0.0148173 0)
(0.143707 -0.0769522 0)
)
;

boundaryField
{
    movingWall
    {
        type            fixedValue;
        value           uniform (1 0 0);
    }
    fixedWalls
    {
        type            noSlip;
    }
    frontAndBack
    {
        type            empty;
    }
}


// ************************************************************************* //
