/*--------------------------------*- C++ -*----------------------------------*\
  =========                 |
  \\      /  F ield         | OpenFOAM: The Open Source CFD Toolbox
   \\    /   O peration     | Website:  https://openfoam.org
    \\  /    A nd           | Version:  13
     \\/     M anipulation  |
\*---------------------------------------------------------------------------*/
FoamFile
{
    format      ascii;
    class       volVectorField;
    location    "3.5";
    object      U;
}
// * * * * * * * * * * * * * * * * * * * * * * * * * * * * * * * * * * * * * //

dimensions      [0 1 -1 0 0 0 0];

internalField   nonuniform List<vector> 
1600
(
(0.000830456 -0.000760895 0)
(0.0043015 -0.00123041 0)
(0.0079303 -0.00123379 0)
(0.0104019 -0.000628037 0)
(0.0114458 -0.000153964 0)
(0.0114346 -0.000133657 0)
(0.0111782 -0.000309697 0)
(0.0107748 -0.000589921 0)
(0.0102001 -0.000714502 0)
(0.00903532 -0.000732716 0)
(0.00702769 -0.000986865 0)
(0.00312101 -0.000851905 0)
(-0.00451809 6.55905e-05 0)
(-0.0136195 0.00327828 0)
(-0.0272382 0.00792873 0)
(-0.0470573 0.0103327 0)
(-0.0649444 0.0100987 0)
(-0.0813852 0.00928623 0)
(-0.0954008 0.00811156 0)
(-0.107257 0.00688555 0)
(-0.116789 0.00561209 0)
(-0.124122 0.0043469 0)
(-0.129188 0.00305622 0)
(-0.131651 0.00184464 0)
(-0.132288 0.000377625 0)
(-0.129806 -0.00144939 0)
(-0.124724 -0.00308725 0)
(-0.116318 -0.00499038 0)
(-0.104705 -0.00678114 0)
(-0.0899395 -0.00885305 0)
(-0.0721481 -0.0107575 0)
(-0.0516917 -0.012072 0)
(-0.0298628 -0.0124338 0)
(-0.00749539 -0.0112987 0)
(0.0111286 -0.00910663 0)
(0.0243631 -0.00299352 0)
(0.0254738 0.00308565 0)
(0.0201201 0.00453178 0)
(0.00952818 0.00353639 0)
(0.00197233 0.00238935 0)
(0.00150417 -0.0042975 0)
(0.00729728 -0.00661136 0)
(0.0113885 -0.00530989 0)
(0.0137786 -0.00280102 0)
(0.0143369 -0.000636161 0)
(0.013113 0.000596284 0)
(0.0105547 0.00108315 0)
(0.00672783 0.00144668 0)
(0.000863157 0.00245348 0)
(-0.00799035 0.00453481 0)
(-0.0209278 0.00802013 0)
(-0.0400168 0.0136694 0)
(-0.0627489 0.0197321 0)
(-0.0847383 0.0249671 0)
(-0.103503 0.0271081 0)
(-0.119361 0.0262032 0)
(-0.133021 0.0239655 0)
(-0.144508 0.0209683 0)
(-0.153969 0.0177081 0)
(-0.161514 0.014395 0)
(-0.167175 0.0110856 0)
(-0.171008 0.00779743 0)
(-0.172984 0.00446281 0)
(-0.173096 0.00100515 0)
(-0.171319 -0.00276032 0)
(-0.167372 -0.00683799 0)
(-0.161161 -0.0111756 0)
(-0.152412 -0.015859 0)
(-0.140832 -0.0207682 0)
(-0.125972 -0.0257012 0)
(-0.108299 -0.0304354 0)
(-0.0878785 -0.0341091 0)
(-0.0651038 -0.0353956 0)
(-0.0415648 -0.0332754 0)
(-0.018193 -0.0262497 0)
(0.00184787 -0.0126069 0)
(0.0148878 0.00288613 0)
(0.0148405 0.00978981 0)
(0.00889987 0.0119463 0)
(0.00148612 0.00871527 0)
(0.00220476 -0.00946571 0)
(0.00763176 -0.0115848 0)
(0.00976997 -0.0081909 0)
(0.0101327 -0.00336242 0)
(0.008347 0.000633893 0)
(0.00454925 0.00348386 0)
(-0.00190809 0.00602473 0)
(-0.0119777 0.00960298 0)
(-0.0267039 0.0154226 0)
(-0.0461161 0.0233258 0)
(-0.0682 0.0314432 0)
(-0.0895078 0.0371438 0)
(-0.108751 0.0402989 0)
(-0.124756 0.0412064 0)
(-0.137835 0.0399582 0)
(-0.148514 0.0371228 0)
(-0.157317 0.0332685 0)
(-0.164474 0.0288244 0)
(-0.170246 0.0241715 0)
(-0.174737 0.0194591 0)
(-0.17801 0.0147497 0)
(-0.18019 0.00989716 0)
(-0.181081 0.00508512 0)
(-0.180682 7.21473e-05 0)
(-0.178849 -0.00524113 0)
(-0.175644 -0.0109528 0)
(-0.170899 -0.0172863 0)
(-0.164387 -0.0243421 0)
(-0.155933 -0.0320653 0)
(-0.14513 -0.0401053 0)
(-0.131505 -0.0478648 0)
(-0.115069 -0.0543193 0)
(-0.0955305 -0.0577105 0)
(-0.0742075 -0.0568176 0)
(-0.0510751 -0.0486866 0)
(-0.0268005 -0.0308477 0)
(-0.00442132 -0.00534709 0)
(0.00285653 0.0101891 0)
(0.00252576 0.01582 0)
(0.000133152 0.0122373 0)
(0.00243244 -0.0146704 0)
(0.0051435 -0.0142322 0)
(0.00472093 -0.00812729 0)
(0.00201064 -0.00103095 0)
(-0.00305532 0.00520986 0)
(-0.0111911 0.0111512 0)
(-0.0231949 0.0178545 0)
(-0.0394494 0.0261752 0)
(-0.0590631 0.0355926 0)
(-0.0803766 0.0445481 0)
(-0.100685 0.0510556 0)
(-0.117505 0.0542392 0)
(-0.131115 0.0547435 0)
(-0.141803 0.0530109 0)
(-0.150306 0.0496229 0)
(-0.15714 0.0451787 0)
(-0.16263 0.0400722 0)
(-0.167042 0.0345394 0)
(-0.170886 0.0286392 0)
(-0.173897 0.0227596 0)
(-0.176158 0.0168738 0)
(-0.177474 0.0110997 0)
(-0.177945 0.00512977 0)
(-0.177526 -0.00104308 0)
(-0.1762 -0.00755433 0)
(-0.173872 -0.0145143 0)
(-0.170457 -0.0220947 0)
(-0.165812 -0.030389 0)
(-0.15979 -0.0395546 0)
(-0.152318 -0.0497036 0)
(-0.143168 -0.0604036 0)
(-0.132104 -0.0706993 0)
(-0.118351 -0.0785304 0)
(-0.100334 -0.0802831 0)
(-0.079247 -0.0741222 0)
(-0.0538874 -0.055786 0)
(-0.0236561 -0.0230691 0)
(-0.00540976 0.00413619 0)
(-0.00129222 0.0145859 0)
(-4.68339e-05 0.0123247 0)
(0.00164132 -0.0171181 0)
(0.00103571 -0.0136533 0)
(-0.00272081 -0.00450749 0)
(-0.00871998 0.00488367 0)
(-0.0175155 0.0141465 0)
(-0.0297948 0.0238127 0)
(-0.0457915 0.0344236 0)
(-0.064627 0.0455583 0)
(-0.084567 0.0557877 0)
(-0.103137 0.0631915 0)
(-0.118088 0.0666182 0)
(-0.129782 0.0668684 0)
(-0.138975 0.064844 0)
(-0.146022 0.0610626 0)
(-0.151549 0.0561015 0)
(-0.15597 0.0503108 0)
(-0.159677 0.043992 0)
(-0.16267 0.0375098 0)
(-0.164814 0.0310971 0)
(-0.166133 0.0246441 0)
(-0.166948 0.0181792 0)
(-0.167201 0.0116823 0)
(-0.167035 0.00505525 0)
(-0.166429 -0.00180018 0)
(-0.165371 -0.00903619 0)
(-0.163722 -0.0168317 0)
(-0.161517 -0.0253658 0)
(-0.158649 -0.034774 0)
(-0.155023 -0.0451075 0)
(-0.150456 -0.0562784 0)
(-0.144681 -0.0679938 0)
(-0.137356 -0.0798959 0)
(-0.12835 -0.0911664 0)
(-0.116547 -0.0987062 0)
(-0.0995723 -0.0976516 0)
(-0.0768051 -0.0842118 0)
(-0.0466231 -0.0534939 0)
(-0.0135682 -0.0105704 0)
(-0.00161338 0.0102702 0)
(0.000627623 0.0118624 0)
(-0.000245231 -0.0170743 0)
(-0.00437568 -0.00933198 0)
(-0.0111292 0.00224831 0)
(-0.0202245 0.0142831 0)
(-0.0322628 0.0267185 0)
(-0.0473692 0.039659 0)
(-0.064879 0.0526262 0)
(-0.0833353 0.0643979 0)
(-0.100506 0.0731351 0)
(-0.114154 0.077319 0)
(-0.124467 0.0776791 0)
(-0.132474 0.0755229 0)
(-0.138544 0.0715028 0)
(-0.143087 0.0661733 0)
(-0.146509 0.0599827 0)
(-0.148989 0.0533175 0)
(-0.150618 0.0464003 0)
(-0.151642 0.0393507 0)
(-0.152125 0.0323131 0)
(-0.152392 0.0253314 0)
(-0.152307 0.0184449 0)
(-0.151957 0.0115826 0)
(-0.151361 0.00464255 0)
(-0.150544 -0.00250163 0)
(-0.149501 -0.0100082 0)
(-0.148235 -0.0180865 0)
(-0.146785 -0.0269319 0)
(-0.145135 -0.0367451 0)
(-0.143247 -0.0476784 0)
(-0.141012 -0.0597706 0)
(-0.13822 -0.0728275 0)
(-0.134531 -0.0862735 0)
(-0.129384 -0.0990453 0)
(-0.121811 -0.109804 0)
(-0.110601 -0.115557 0)
(-0.0929067 -0.109829 0)
(-0.0673306 -0.0872231 0)
(-0.0302939 -0.0413734 0)
(-0.00351191 -5.36674e-05 0)
(0.00144589 0.0114767 0)
(-0.00243285 -0.0128996 0)
(-0.00975352 -0.00184593 0)
(-0.0190394 0.0119202 0)
(-0.0306977 0.026424 0)
(-0.0449208 0.0415395 0)
(-0.0610911 0.0564489 0)
(-0.0781379 0.0700289 0)
(-0.0942414 0.0805494 0)
(-0.107139 0.0862133 0)
(-0.116567 0.0872685 0)
(-0.123623 0.0853107 0)
(-0.128856 0.0812753 0)
(-0.132525 0.0757325 0)
(-0.135002 0.0692168 0)
(-0.136565 0.0621069 0)
(-0.137405 0.0546818 0)
(-0.137708 0.0471412 0)
(-0.137651 0.0396396 0)
(-0.137315 0.0322795 0)
(-0.136795 0.0250626 0)
(-0.136081 0.0179675 0)
(-0.135237 0.0109276 0)
(-0.134277 0.00383822 0)
(-0.133241 -0.00342175 0)
(-0.132154 -0.0110042 0)
(-0.131061 -0.0191068 0)
(-0.130014 -0.0279312 0)
(-0.12905 -0.0376932 0)
(-0.12818 -0.0485934 0)
(-0.127367 -0.0607741 0)
(-0.126487 -0.0742373 0)
(-0.125261 -0.0887398 0)
(-0.123162 -0.103516 0)
(-0.119315 -0.116985 0)
(-0.112243 -0.126731 0)
(-0.100156 -0.128891 0)
(-0.0806911 -0.116412 0)
(-0.0509886 -0.0806306 0)
(-0.0108749 -0.0179612 0)
(0.00232581 0.0102673 0)
(-0.00433884 -0.00586645 0)
(-0.0141764 0.00836477 0)
(-0.0253987 0.0237811 0)
(-0.0388832 0.0402848 0)
(-0.0539891 0.0570333 0)
(-0.0698673 0.0725601 0)
(-0.0851681 0.0852411 0)
(-0.0978133 0.0930541 0)
(-0.106931 0.095492 0)
(-0.113416 0.0941264 0)
(-0.118118 0.0903242 0)
(-0.121254 0.0847521 0)
(-0.123153 0.0779827 0)
(-0.124147 0.0705183 0)
(-0.124457 0.0626887 0)
(-0.124277 0.0547353 0)
(-0.123773 0.0468332 0)
(-0.123058 0.039092 0)
(-0.12219 0.0315574 0)
(-0.121211 0.0242099 0)
(-0.120139 0.0170129 0)
(-0.119005 0.00989773 0)
(-0.11783 0.00276717 0)
(-0.11665 -0.00449668 0)
(-0.115506 -0.0120406 0)
(-0.114462 -0.0200451 0)
(-0.113588 -0.0287129 0)
(-0.112957 -0.0382686 0)
(-0.112625 -0.0489385 0)
(-0.112603 -0.0609197 0)
(-0.112825 -0.0743175 0)
(-0.113101 -0.0890393 0)
(-0.112985 -0.104669 0)
(-0.111627 -0.120167 0)
(-0.107755 -0.133481 0)
(-0.0997143 -0.141154 0)
(-0.0859101 -0.137707 0)
(-0.0632997 -0.1142 0)
(-0.025236 -0.0518286 0)
(0.00149499 0.00397821 0)
(-0.00547131 0.00380469 0)
(-0.0172063 0.0205768 0)
(-0.0297608 0.0371571 0)
(-0.0440912 0.0548461 0)
(-0.0591294 0.0721025 0)
(-0.0737768 0.0870894 0)
(-0.0865307 0.0975745 0)
(-0.0959357 0.10224 0)
(-0.102316 0.102007 0)
(-0.106793 0.0987384 0)
(-0.109737 0.0933888 0)
(-0.111387 0.0865564 0)
(-0.112099 0.078843 0)
(-0.112142 0.0706856 0)
(-0.111711 0.0623659 0)
(-0.110982 0.0540881 0)
(-0.110073 0.0459812 0)
(-0.109053 0.0381076 0)
(-0.107955 0.0304791 0)
(-0.106801 0.0230661 0)
(-0.1056 0.0158219 0)
(-0.104362 0.00867722 0)
(-0.103104 0.00154397 0)
(-0.101849 -0.00568269 0)
(-0.100641 -0.0131348 0)
(-0.0995476 -0.0209729 0)
(-0.098654 -0.0293891 0)
(-0.0980596 -0.0386101 0)
(-0.0978602 -0.0488892 0)
(-0.0981203 -0.0604843 0)
(-0.0988363 -0.0736083 0)
(-0.0998834 -0.0883368 0)
(-0.100947 -0.104474 0)
(-0.101319 -0.121344 0)
(-0.0997594 -0.137346 0)
(-0.0946737 -0.149424 0)
(-0.0847936 -0.152332 0)
(-0.0678807 -0.139592 0)
(-0.0403675 -0.0939291 0)
(-0.0032087 -0.0103749 0)
(-0.00625401 0.0151951 0)
(-0.0190023 0.0340069 0)
(-0.032023 0.0511528 0)
(-0.046327 0.069128 0)
(-0.0605307 0.0860649 0)
(-0.0734844 0.0994822 0)
(-0.0836677 0.107214 0)
(-0.0904684 0.108905 0)
(-0.0950558 0.106596 0)
(-0.0980898 0.101736 0)
(-0.0997985 0.0950844 0)
(-0.100491 0.0872679 0)
(-0.100494 0.0788584 0)
(-0.100027 0.0702195 0)
(-0.0992657 0.0615924 0)
(-0.0983412 0.0531338 0)
(-0.0973302 0.0449254 0)
(-0.0962738 0.0369927 0)
(-0.0951868 0.0293216 0)
(-0.094072 0.0218722 0)
(-0.0929204 0.0145916 0)
(-0.0917258 0.00741541 0)
(-0.0904872 0.000265562 0)
(-0.0892189 -0.00694582 0)
(-0.0879581 -0.0143307 0)
(-0.0867675 -0.022023 0)
(-0.0857385 -0.0301925 0)
(-0.084986 -0.0390531 0)
(-0.0846354 -0.0488664 0)
(-0.0847964 -0.0599313 0)
(-0.0855226 -0.0725481 0)
(-0.0867612 -0.0869458 0)
(-0.0882949 -0.10316 0)
(-0.0896246 -0.120887 0)
(-0.0896515 -0.139036 0)
(-0.0866789 -0.155016 0)
(-0.0798452 -0.16297 0)
(-0.0669359 -0.158169 0)
(-0.0468446 -0.125278 0)
(-0.0114194 -0.0278316 0)
(-0.00648953 0.0270915 0)
(-0.0194989 0.0478006 0)
(-0.032325 0.0649922 0)
(-0.0460636 0.0826325 0)
(-0.0590255 0.0985677 0)
(-0.0701594 0.10987 0)
(-0.0777484 0.114454 0)
(-0.0829546 0.113862 0)
(-0.086284 0.109832 0)
(-0.088311 0.10362 0)
(-0.0892307 0.0959091 0)
(-0.0893869 0.0873501 0)
(-0.0890532 0.0784456 0)
(-0.0884116 0.0694974 0)
(-0.0876052 0.0606994 0)
(-0.0867272 0.0521591 0)
(-0.0858275 0.0439158 0)
(-0.0849246 0.0359649 0)
(-0.0840138 0.0282742 0)
(-0.0830772 0.0207944 0)
(-0.0820904 0.0134665 0)
(-0.0810315 0.00623091 0)
(-0.079885 -0.000977055 0)
(-0.0786566 -0.00822901 0)
(-0.077374 -0.0156091 0)
(-0.0760895 -0.023222 0)
(-0.0748901 -0.0312073 0)
(-0.0738945 -0.0397556 0)
(-0.0732458 -0.0491225 0)
(-0.0730893 -0.0596335 0)
(-0.0735326 -0.071663 0)
(-0.0745884 -0.0855723 0)
(-0.076117 -0.101595 0)
(-0.0777676 -0.119686 0)
(-0.0787014 -0.139298 0)
(-0.0772702 -0.158566 0)
(-0.0721367 -0.171279 0)
(-0.0622156 -0.173122 0)
(-0.0445272 -0.151116 0)
(-0.0165443 -0.0691736 0)
(-0.00629289 0.0389619 0)
(-0.0189426 0.0613536 0)
(-0.0310758 0.0781964 0)
(-0.0437966 0.0950461 0)
(-0.0554181 0.109498 0)
(-0.0643708 0.118054 0)
(-0.0702822 0.120148 0)
(-0.0743402 0.117621 0)
(-0.0767899 0.112137 0)
(-0.07816 0.104788 0)
(-0.0786408 0.0962486 0)
(-0.0785686 0.087148 0)
(-0.0781597 0.0779104 0)
(-0.077566 0.0687822 0)
(-0.0768997 0.0599079 0)
(-0.0762255 0.0513497 0)
(-0.0755686 0.0431121 0)
(-0.0749259 0.0351641 0)
(-0.0742747 0.0274555 0)
(-0.0735817 0.0199293 0)
(-0.0728125 0.012526 0)
(-0.0719345 0.00519097 0)
(-0.070925 -0.00212662 0)
(-0.0697795 -0.00948109 0)
(-0.0685146 -0.0169294 0)
(-0.0671722 -0.0245463 0)
(-0.065827 -0.0324372 0)
(-0.0645897 -0.0407593 0)
(-0.0636051 -0.0497455 0)
(-0.0630397 -0.0597257 0)
(-0.0630472 -0.0711278 0)
(-0.0637075 -0.0844335 0)
(-0.0649579 -0.100068 0)
(-0.0665409 -0.118223 0)
(-0.0678756 -0.138699 0)
(-0.0675755 -0.160328 0)
(-0.0634971 -0.17822 0)
(-0.0561035 -0.18443 0)
(-0.0407684 -0.171884 0)
(-0.014522 -0.101122 0)
(-0.00574158 0.0502443 0)
(-0.0175514 0.0741325 0)
(-0.02869 0.0903805 0)
(-0.0401281 0.106097 0)
(-0.050284 0.118766 0)
(-0.0572162 0.124602 0)
(-0.0621093 0.124687 0)
(-0.0652391 0.120528 0)
(-0.0671096 0.113821 0)
(-0.0680857 0.105548 0)
(-0.0683771 0.096382 0)
(-0.0682793 0.0868992 0)
(-0.0679621 0.0774518 0)
(-0.0675518 0.0682355 0)
(-0.0671316 0.0593482 0)
(-0.0667392 0.0508109 0)
(-0.0663786 0.042596 0)
(-0.0660303 0.0346499 0)
(-0.0656595 0.0269092 0)
(-0.0652239 0.0193114 0)
(-0.0646829 0.0117993 0)
(-0.0639997 0.00432509 0)
(-0.0631472 -0.00314974 0)
(-0.0621137 -0.0106609 0)
(-0.0609067 -0.0182435 0)
(-0.0595571 -0.0259439 0)
(-0.0581252 -0.0338343 0)
(-0.056706 -0.0420348 0)
(-0.0554331 -0.0507438 0)
(-0.0544754 -0.0602737 0)
(-0.0540152 -0.0710776 0)
(-0.0541941 -0.0837343 0)
(-0.0550296 -0.0988507 0)
(-0.0563384 -0.116857 0)
(-0.0576867 -0.137807 0)
(-0.0579792 -0.160987 0)
(-0.0549999 -0.183806 0)
(-0.0488339 -0.194503 0)
(-0.0359502 -0.189678 0)
(-0.0129306 -0.130158 0)
(-0.00493892 0.0604444 0)
(-0.0155953 0.0858005 0)
(-0.0255086 0.101327 0)
(-0.0356095 0.11577 0)
(-0.0441037 0.126325 0)
(-0.0495269 0.129959 0)
(-0.0536224 0.128335 0)
(-0.0560737 0.12283 0)
(-0.0575701 0.115118 0)
(-0.058339 0.106118 0)
(-0.0586009 0.0964906 0)
(-0.0585982 0.0867486 0)
(-0.0584657 0.0771826 0)
(-0.0583032 0.0679414 0)
(-0.0581659 0.0590779 0)
(-0.0580699 0.0505762 0)
(-0.0580035 0.0423821 0)
(-0.0579368 0.0344245 0)
(-0.0578289 0.026631 0)
(-0.0576343 0.0189359 0)
(-0.0573098 0.011286 0)
(-0.0568179 0.00364085 0)
(-0.0561291 -0.0040271 0)
(-0.0552271 -0.0117374 0)
(-0.0541124 -0.0195055 0)
(-0.0528062 -0.0273533 0)
(-0.0513555 -0.0353229 0)
(-0.0498382 -0.0434986 0)
(-0.0483699 -0.0520392 0)
(-0.0471071 -0.0612228 0)
(-0.0462399 -0.0714965 0)
(-0.0459536 -0.0835 0)
(-0.0463455 -0.0980039 0)
(-0.0473189 -0.115703 0)
(-0.0485313 -0.136922 0)
(-0.0491271 -0.161356 0)
(-0.0473587 -0.186943 0)
(-0.0416503 -0.203552 0)
(-0.0316121 -0.204138 0)
(-0.0108423 -0.15404 0)
(-0.00403241 0.0693544 0)
(-0.0132902 0.0961021 0)
(-0.0218703 0.110886 0)
(-0.0305868 0.124012 0)
(-0.0373757 0.132392 0)
(-0.0417314 0.134367 0)
(-0.0451362 0.131302 0)
(-0.0470944 0.124707 0)
(-0.0483499 0.116189 0)
(-0.0490311 0.106633 0)
(-0.0493523 0.096678 0)
(-0.0495032 0.0867706 0)
(-0.0495891 0.0771502 0)
(-0.0496827 0.0679214 0)
(-0.0498164 0.0590966 0)
(-0.0499904 0.0506294 0)
(-0.0501833 0.0424445 0)
(-0.0503603 0.0344582 0)
(-0.0504792 0.0265923 0)
(-0.0504959 0.0187802 0)
(-0.0503671 0.010972 0)
(-0.0500559 0.00313455 0)
(-0.0495319 -0.00474993 0)
(-0.0487756 -0.0126876 0)
(-0.0477822 -0.0206766 0)
(-0.046565 -0.0287175 0)
(-0.0451596 -0.0368262 0)
(-0.0436292 -0.045055 0)
(-0.0420705 -0.0535241 0)
(-0.0406211 -0.0624697 0)
(-0.0394624 -0.0723092 0)
(-0.0388006 -0.0837026 0)
(-0.0387973 -0.0975416 0)
(-0.0394475 -0.114771 0)
(-0.0404811 -0.136022 0)
(-0.0412377 -0.161358 0)
(-0.0402058 -0.189344 0)
(-0.0351352 -0.211563 0)
(-0.0278028 -0.216688 0)
(-0.00950911 -0.175114 0)
(-0.00300102 0.0765598 0)
(-0.0107836 0.104877 0)
(-0.0179641 0.118986 0)
(-0.0252373 0.130759 0)
(-0.0304785 0.137273 0)
(-0.0341534 0.13798 0)
(-0.0368306 0.13373 0)
(-0.0384336 0.126274 0)
(-0.0395229 0.117133 0)
(-0.0401812 0.107169 0)
(-0.0405974 0.0969903 0)
(-0.0409139 0.0869866 0)
(-0.0412082 0.077353 0)
(-0.0415295 0.068154 0)
(-0.0418926 0.0593687 0)
(-0.0422876 0.0509267 0)
(-0.0426889 0.042737 0)
(-0.0430611 0.0347074 0)
(-0.0433645 0.0267555 0)
(-0.0435582 0.0188153 0)
(-0.0436016 0.010839 0)
(-0.0434585 0.00279946 0)
(-0.0430987 -0.00531276 0)
(-0.0425002 -0.0134926 0)
(-0.0416538 -0.0217232 0)
(-0.0405661 -0.029986 0)
(-0.0392638 -0.0382742 0)
(-0.0377977 -0.0466119 0)
(-0.0362481 -0.0550843 0)
(-0.0347328 -0.0638851 0)
(-0.0334154 -0.0733884 0)
(-0.0325031 -0.0842405 0)
(-0.0322024 -0.0974121 0)
(-0.0326008 -0.114072 0)
(-0.0335137 -0.135165 0)
(-0.0344208 -0.161048 0)
(-0.033989 -0.19064 0)
(-0.0302279 -0.217887 0)
(-0.0237116 -0.227618 0)
(-0.00822159 -0.192859 0)
(-0.00203158 0.0822826 0)
(-0.0081745 0.112073 0)
(-0.0139503 0.125612 0)
(-0.019815 0.136159 0)
(-0.0237459 0.141173 0)
(-0.0267485 0.14085 0)
(-0.0288067 0.135702 0)
(-0.0301308 0.127601 0)
(-0.0310923 0.118002 0)
(-0.031752 0.107753 0)
(-0.0322619 0.0974314 0)
(-0.0327231 0.0873803 0)
(-0.0331888 0.0777569 0)
(-0.0336884 0.0685925 0)
(-0.0342246 0.0598403 0)
(-0.0347821 0.0514121 0)
(-0.0353351 0.0432061 0)
(-0.0358514 0.0351241 0)
(-0.0362955 0.0270813 0)
(-0.0366312 0.0190113 0)
(-0.0368222 0.010868 0)
(-0.0368338 0.00262833 0)
(-0.0366365 -0.00571083 0)
(-0.0362067 -0.0141349 0)
(-0.0355311 -0.0226141 0)
(-0.0346106 -0.0311131 0)
(-0.0334639 -0.0396042 0)
(-0.032132 -0.0480867 0)
(-0.030682 -0.0566151 0)
(-0.0292138 -0.0653433 0)
(-0.0278707 -0.074597 0)
(-0.0268472 -0.0849825 0)
(-0.0263701 -0.0974973 0)
(-0.0266027 -0.113496 0)
(-0.0274609 -0.134289 0)
(-0.0285023 -0.160531 0)
(-0.0285045 -0.19149 0)
(-0.0258177 -0.222833 0)
(-0.0209374 -0.237007 0)
(-0.00726915 -0.208616 0)
(-0.000920755 0.0860749 0)
(-0.00552688 0.117598 0)
(-0.00994966 0.130834 0)
(-0.01443 0.140276 0)
(-0.0172407 0.144159 0)
(-0.0195737 0.143062 0)
(-0.0211009 0.137279 0)
(-0.0221756 0.128725 0)
(-0.0230201 0.118812 0)
(-0.0236762 0.10838 0)
(-0.0242543 0.0979779 0)
(-0.0248199 0.0879123 0)
(-0.0254054 0.0783105 0)
(-0.0260246 0.0691785 0)
(-0.0266723 0.0604506 0)
(-0.027332 0.0520265 0)
(-0.0279803 0.0437972 0)
(-0.02859 0.0356605 0)
(-0.0291314 0.0275298 0)
(-0.0295741 0.0193379 0)
(-0.0298868 0.0110393 0)
(-0.0300381 0.00261278 0)
(-0.0299997 -0.00594035 0)
(-0.0297471 -0.0145981 0)
(-0.0292641 -0.0233199 0)
(-0.028546 -0.0320555 0)
(-0.0276044 -0.0407582 0)
(-0.0264713 -0.0494043 0)
(-0.0252024 -0.0580211 0)
(-0.023883 -0.0667274 0)
(-0.0226373 -0.0758019 0)
(-0.0216417 -0.0857985 0)
(-0.0211253 -0.0977012 0)
(-0.0213056 -0.112987 0)
(-0.0222014 -0.133306 0)
(-0.0234134 -0.159695 0)
(-0.0239124 -0.191858 0)
(-0.0222369 -0.226321 0)
(-0.0183402 -0.245034 0)
(-0.0064143 -0.222336 0)
(-3.71616e-05 0.0884639 0)
(-0.00292233 0.121601 0)
(-0.00602563 0.134683 0)
(-0.00914902 0.143208 0)
(-0.0110108 0.146335 0)
(-0.0126518 0.144669 0)
(-0.0137032 0.138484 0)
(-0.0145314 0.129655 0)
(-0.0152495 0.119555 0)
(-0.0158769 0.109025 0)
(-0.0164827 0.0985892 0)
(-0.0171023 0.088531 0)
(-0.0177503 0.0789553 0)
(-0.0184284 0.0698503 0)
(-0.0191273 0.0611384 0)
(-0.0198313 0.0527119 0)
(-0.0205211 0.0444573 0)
(-0.0211756 0.03627 0)
(-0.0217721 0.0280619 0)
(-0.0222864 0.0197644 0)
(-0.0226935 0.0113316 0)
(-0.0229666 0.0027421 0)
(-0.02308 -0.00600013 0)
(-0.0230099 -0.0148682 0)
(-0.0227377 -0.0238134 0)
(-0.0222543 -0.0327722 0)
(-0.0215642 -0.041681 0)
(-0.0206903 -0.050495 0)
(-0.0196778 -0.0592163 0)
(-0.0185984 -0.0679322 0)
(-0.0175589 -0.0768777 0)
(-0.0167153 -0.0865497 0)
(-0.0162863 -0.0978892 0)
(-0.0165206 -0.112445 0)
(-0.0175268 -0.132165 0)
(-0.0189807 -0.158522 0)
(-0.0200072 -0.19172 0)
(-0.0192505 -0.228761 0)
(-0.0164852 -0.251885 0)
(-0.00575828 -0.234699 0)
(0.00117858 0.0886971 0)
(-0.000346614 0.124021 0)
(-0.0021513 0.137181 0)
(-0.00400997 0.145055 0)
(-0.00504013 0.147732 0)
(-0.00598268 0.1457 0)
(-0.00658306 0.139336 0)
(-0.00714893 0.130386 0)
(-0.0077163 0.120209 0)
(-0.00827761 0.109648 0)
(-0.00886331 0.0992167 0)
(-0.00948323 0.0891809 0)
(-0.0101364 0.079632 0)
(-0.0108157 0.0705484 0)
(-0.0115095 0.0618462 0)
(-0.0122043 0.053414 0)
(-0.0128862 0.0451367 0)
(-0.0135404 0.0369081 0)
(-0.0141515 0.0286388 0)
(-0.0147026 0.0202589 0)
(-0.0151757 0.011721 0)
(-0.01555 0.00300227 0)
(-0.0158042 -0.00589307 0)
(-0.0159167 -0.0149355 0)
(-0.0158687 -0.0240707 0)
(-0.0156472 -0.0332255 0)
(-0.0152502 -0.0423209 0)
(-0.0146918 -0.0512931 0)
(-0.0140058 -0.060121 0)
(-0.0132507 -0.0688631 0)
(-0.0125164 -0.0777153 0)
(-0.0119388 -0.0871172 0)
(-0.0117191 -0.0979486 0)
(-0.0121177 -0.111777 0)
(-0.0133141 -0.130804 0)
(-0.0150693 -0.156959 0)
(-0.0166545 -0.19091 0)
(-0.0167232 -0.230237 0)
(-0.0148696 -0.257693 0)
(-0.00518408 -0.245752 0)
(0.00198533 0.0875547 0)
(0.00210174 0.124935 0)
(0.00160843 0.13841 0)
(0.000934383 0.145926 0)
(0.000710147 0.148396 0)
(0.000467613 0.146174 0)
(0.000309884 0.139797 0)
(2.27439e-05 0.130877 0)
(-0.00036157 0.120729 0)
(-0.00081217 0.110202 0)
(-0.00132611 0.0998083 0)
(-0.00189277 0.0898067 0)
(-0.002497 0.0802846 0)
(-0.00312445 0.071218 0)
(-0.00376254 0.0625216 0)
(-0.00440083 0.054084 0)
(-0.00503054 0.04579 0)
(-0.00564372 0.0375335 0)
(-0.00623234 0.0292239 0)
(-0.00678737 0.02079 0)
(-0.0072982 0.0121823 0)
(-0.00775171 0.00337596 0)
(-0.00813221 -0.00562672 0)
(-0.00842265 -0.0147957 0)
(-0.00860558 -0.0240746 0)
(-0.0086662 -0.0333834 0)
(-0.0085971 -0.0426314 0)
(-0.00840347 -0.051738 0)
(-0.0081077 -0.0606609 0)
(-0.00775392 -0.0694325 0)
(-0.00741498 -0.0782126 0)
(-0.00720603 -0.0873866 0)
(-0.00730696 -0.097763 0)
(-0.00797561 -0.110883 0)
(-0.00944474 -0.129147 0)
(-0.0115619 -0.154987 0)
(-0.0137301 -0.189526 0)
(-0.0145844 -0.230847 0)
(-0.0136864 -0.262629 0)
(-0.00473239 -0.255895 0)
(0.00284866 0.0848326 0)
(0.00450373 0.124381 0)
(0.00525205 0.138457 0)
(0.00567846 0.145868 0)
(0.00626835 0.148253 0)
(0.00669685 0.146098 0)
(0.00699492 0.139905 0)
(0.00702605 0.131109 0)
(0.00687027 0.121076 0)
(0.00657923 0.11064 0)
(0.00618593 0.100312 0)
(0.0057227 0.0903559 0)
(0.00521715 0.0808619 0)
(0.00468886 0.0718101 0)
(0.00415073 0.0631185 0)
(0.00361014 0.0546788 0)
(0.00307064 0.0463776 0)
(0.00253361 0.0381095 0)
(0.00199966 0.0297838 0)
(0.00146994 0.0213279 0)
(0.00094704 0.0126904 0)
(0.00043601 0.00384379 0)
(-5.48562e-05 -0.00521279 0)
(-0.000514521 -0.0144511 0)
(-0.000928951 -0.0238153 0)
(-0.00128374 -0.0332229 0)
(-0.00156793 -0.0425748 0)
(-0.00177899 -0.0517771 0)
(-0.0019279 -0.0607696 0)
(-0.00204389 -0.069561 0)
(-0.00218143 -0.0782785 0)
(-0.00243384 -0.087256 0)
(-0.00295642 -0.0972271 0)
(-0.00399549 -0.109676 0)
(-0.00582002 -0.127132 0)
(-0.00837062 -0.152536 0)
(-0.0111164 -0.187511 0)
(-0.012683 -0.230583 0)
(-0.0126829 -0.266787 0)
(-0.00432131 -0.265177 0)
(0.00373098 0.0803868 0)
(0.00686007 0.12236 0)
(0.00878038 0.137358 0)
(0.0102266 0.14491 0)
(0.0116192 0.147373 0)
(0.0127147 0.145443 0)
(0.013502 0.139612 0)
(0.0138941 0.13105 0)
(0.0140122 0.121212 0)
(0.0139317 0.110916 0)
(0.0137105 0.10068 0)
(0.0134002 0.0907801 0)
(0.0130396 0.0813179 0)
(0.0126528 0.0722818 0)
(0.0122532 0.0635974 0)
(0.0118453 0.055162 0)
(0.0114277 0.0468657 0)
(0.0109957 0.0386052 0)
(0.0105428 0.03029 0)
(0.0100623 0.021847 0)
(0.00954886 0.0132229 0)
(0.00899917 0.00438724 0)
(0.00841303 -0.00466439 0)
(0.00779473 -0.0139075 0)
(0.00715302 -0.0232899 0)
(0.00649944 -0.0327298 0)
(0.00584635 -0.0421239 0)
(0.00520223 -0.0513693 0)
(0.00456618 -0.0603918 0)
(0.00392367 -0.0691804 0)
(0.00323959 -0.0778328 0)
(0.00244514 -0.0866341 0)
(0.00141026 -0.0962414 0)
(-9.00674e-05 -0.108063 0)
(-0.00234981 -0.1247 0)
(-0.00540105 -0.149572 0)
(-0.0087591 -0.18488 0)
(-0.0109558 -0.229461 0)
(-0.0119214 -0.270319 0)
(-0.00396875 -0.273851 0)
(0.00453583 0.0744769 0)
(0.00911961 0.118931 0)
(0.0121834 0.135155 0)
(0.0145905 0.143075 0)
(0.0168395 0.145735 0)
(0.0184499 0.144207 0)
(0.0198049 0.138887 0)
(0.0206306 0.130655 0)
(0.0210764 0.121083 0)
(0.0212627 0.110974 0)
(0.0212685 0.10086 0)
(0.0211614 0.0910324 0)
(0.0209902 0.08161 0)
(0.0207842 0.0725949 0)
(0.0205574 0.0639242 0)
(0.0203119 0.0555031 0)
(0.0200425 0.0472271 0)
(0.0197385 0.038996 0)
(0.019387 0.0307206 0)
(0.0189741 0.0223274 0)
(0.0184864 0.0137619 0)
(0.0179127 0.00499063 0)
(0.0172442 -0.00399458 0)
(0.0164778 -0.0131743 0)
(0.015616 -0.022501 0)
(0.0146649 -0.0318976 0)
(0.013636 -0.0412611 0)
(0.0125415 -0.0504843 0)
(0.011388 -0.0594833 0)
(0.0101747 -0.0682322 0)
(0.00888549 -0.0768046 0)
(0.0074774 -0.0854418 0)
(0.00585003 -0.0947214 0)
(0.00380542 -0.10596 0)
(0.00103615 -0.121785 0)
(-0.00256797 -0.146044 0)
(-0.00658585 -0.181611 0)
(-0.00932356 -0.227673 0)
(-0.0115073 -0.272973 0)
(-0.00337419 -0.28205 0)
(0.00521409 0.0671684 0)
(0.0112254 0.114136 0)
(0.0154006 0.131889 0)
(0.0187335 0.140405 0)
(0.0216825 0.143511 0)
(0.0240322 0.14232 0)
(0.0258996 0.137612 0)
(0.027227 0.129856 0)
(0.0280633 0.120626 0)
(0.0285748 0.110757 0)
(0.0288652 0.100799 0)
(0.0290137 0.0910657 0)
(0.0290774 0.0816972 0)
(0.0290905 0.0727145 0)
(0.0290682 0.064069 0)
(0.0290118 0.0556766 0)
(0.0289125 0.0474401 0)
(0.0287549 0.0392631 0)
(0.0285203 0.0310588 0)
(0.0281881 0.0227542 0)
(0.0277378 0.0142936 0)
(0.0271508 0.0056414 0)
(0.0264096 -0.00321453 0)
(0.0255038 -0.0122609 0)
(0.0244293 -0.0214563 0)
(0.0231857 -0.0307292 0)
(0.0217806 -0.0399813 0)
(0.0202264 -0.0491056 0)
(0.0185353 -0.0580143 0)
(0.0167179 -0.0666721 0)
(0.0147768 -0.0751341 0)
(0.0126926 -0.0836054 0)
(0.0104059 -0.0925896 0)
(0.00774079 -0.10329 0)
(0.00439048 -0.11832 0)
(0.000188378 -0.141907 0)
(-0.00454292 -0.177674 0)
(-0.00773496 -0.225274 0)
(-0.0111517 -0.274907 0)
(-0.00292163 -0.289891 0)
(0.00570294 0.0585735 0)
(0.0130961 0.108021 0)
(0.0183475 0.127591 0)
(0.0225803 0.136919 0)
(0.0262295 0.140563 0)
(0.029292 0.139872 0)
(0.0317305 0.135758 0)
(0.0336219 0.128584 0)
(0.0349324 0.119776 0)
(0.035846 0.110203 0)
(0.0364875 0.10044 0)
(0.0369497 0.0908303 0)
(0.0372973 0.0815376 0)
(0.0375698 0.0726056 0)
(0.0377849 0.0640034 0)
(0.0379433 0.0556598 0)
(0.0380339 0.047486 0)
(0.038038 0.0393915 0)
(0.037932 0.0312923 0)
(0.0376898 0.0231167 0)
(0.0372847 0.0148088 0)
(0.0366912 0.00633104 0)
(0.0358844 -0.00233231 0)
(0.0348462 -0.0111749 0)
(0.0335657 -0.0201616 0)
(0.0320344 -0.0292275 0)
(0.0302541 -0.0382819 0)
(0.0282356 -0.0472226 0)
(0.0259943 -0.0559635 0)
(0.0235501 -0.0644673 0)
(0.0209222 -0.0727783 0)
(0.0181183 -0.0810683 0)
(0.015111 -0.0897732 0)
(0.0117576 -0.0999811 0)
(0.00776384 -0.11424 0)
(0.00291649 -0.137114 0)
(-0.00260667 -0.173039 0)
(-0.00621515 -0.222254 0)
(-0.0110088 -0.275951 0)
(-0.0021756 -0.297411 0)
(0.00590751 0.0489104 0)
(0.0146205 0.100646 0)
(0.0208937 0.122276 0)
(0.0260124 0.132624 0)
(0.0303833 0.136893 0)
(0.0341199 0.136804 0)
(0.037237 0.13327 0)
(0.0397403 0.126757 0)
(0.0416107 0.118449 0)
(0.0430186 0.109234 0)
(0.0440951 0.0997178 0)
(0.0449417 0.09027 0)
(0.0456317 0.0810848 0)
(0.0462105 0.0722312 0)
(0.0466994 0.0636985 0)
(0.0471002 0.0554302 0)
(0.0474014 0.0473483 0)
(0.0475823 0.039369 0)
(0.0476155 0.0314124 0)
(0.0474708 0.0234088 0)
(0.0471162 0.0153025 0)
(0.0465205 0.00705454 0)
(0.045652 -0.00135345 0)
(0.0444855 -0.00992187 0)
(0.0430031 -0.0186214 0)
(0.0411878 -0.0273947 0)
(0.0390343 -0.0361611 0)
(0.0365504 -0.0448279 0)
(0.033753 -0.0533163 0)
(0.0306691 -0.0615932 0)
(0.0273308 -0.0697003 0)
(0.0237668 -0.0777875 0)
(0.0199867 -0.0862214 0)
(0.0158944 -0.0959741 0)
(0.011207 -0.109489 0)
(0.00567035 -0.131608 0)
(-0.000730536 -0.167645 0)
(-0.00478958 -0.21861 0)
(-0.010944 -0.27635 0)
(-0.00130033 -0.304763 0)
(0.00566703 0.0385343 0)
(0.0156083 0.0921091 0)
(0.0228589 0.115958 0)
(0.0288658 0.127512 0)
(0.0339932 0.132507 0)
(0.0384404 0.13303 0)
(0.0422731 0.130117 0)
(0.0454716 0.124292 0)
(0.0480015 0.116545 0)
(0.0500036 0.107755 0)
(0.0516132 0.0985448 0)
(0.0529328 0.0893124 0)
(0.0540391 0.0802811 0)
(0.0549832 0.0715466 0)
(0.0557913 0.0631202 0)
(0.0564691 0.0549629 0)
(0.0570061 0.0470092 0)
(0.0573809 0.0391834 0)
(0.057565 0.031411 0)
(0.057525 0.0236251 0)
(0.0572253 0.0157709 0)
(0.0566302 0.00780855 0)
(0.0557017 -0.000283203 0)
(0.0544084 -0.00850568 0)
(0.0527256 -0.0168391 0)
(0.0506279 -0.025234 0)
(0.0481028 -0.0336212 0)
(0.0451536 -0.0419212 0)
(0.0417972 -0.0500672 0)
(0.038066 -0.0580358 0)
(0.0340022 -0.0658725 0)
(0.0296505 -0.0737164 0)
(0.0250562 -0.0818812 0)
(0.0201668 -0.0912155 0)
(0.0147429 -0.10404 0)
(0.00849237 -0.125405 0)
(0.00113745 -0.16152 0)
(-0.00329295 -0.214306 0)
(-0.010972 -0.276198 0)
(-0.000225704 -0.311964 0)
(0.00476953 0.0280758 0)
(0.0158257 0.0825069 0)
(0.0240359 0.108603 0)
(0.0309524 0.121537 0)
(0.0368888 0.127369 0)
(0.0420963 0.128519 0)
(0.0466947 0.126225 0)
(0.0506751 0.121091 0)
(0.05398 0.113963 0)
(0.0566955 0.105662 0)
(0.0589468 0.0968228 0)
(0.0608388 0.0878698 0)
(0.0624495 0.0790525 0)
(0.0638327 0.0704922 0)
(0.0650193 0.0622231 0)
(0.0660187 0.0542247 0)
(0.0668239 0.0464451 0)
(0.0674155 0.0388189 0)
(0.0677657 0.0312781 0)
(0.0678398 0.0237599 0)
(0.0675998 0.0162115 0)
(0.067006 0.00859338 0)
(0.0660198 0.00088259 0)
(0.064602 -0.00692457 0)
(0.0627169 -0.0148141 0)
(0.0603359 -0.0227454 0)
(0.0574397 -0.0306621 0)
(0.0540263 -0.038501 0)
(0.0501117 -0.0462121 0)
(0.0457318 -0.0537867 0)
(0.0409361 -0.061279 0)
(0.0357813 -0.068827 0)
(0.0303358 -0.076707 0)
(0.0246023 -0.0856535 0)
(0.0184066 -0.0978484 0)
(0.0113947 -0.118484 0)
(0.00306809 -0.154657 0)
(-0.00153271 -0.20913 0)
(-0.0112767 -0.274796 0)
(0.00093214 -0.318925 0)
(0.00307734 0.0184776 0)
(0.0150108 0.0721409 0)
(0.0242028 0.100215 0)
(0.0320535 0.114656 0)
(0.0388669 0.121423 0)
(0.0448873 0.12321 0)
(0.0503117 0.121507 0)
(0.0551663 0.117043 0)
(0.0593657 0.11057 0)
(0.062937 0.102832 0)
(0.065965 0.0944436 0)
(0.0685476 0.0858458 0)
(0.0707651 0.077315 0)
(0.0726743 0.0689979 0)
(0.0743102 0.060951 0)
(0.0756874 0.0531723 0)
(0.0768037 0.0456248 0)
(0.0776437 0.0382539 0)
(0.0781814 0.0309996 0)
(0.0783834 0.0238049 0)
(0.0782113 0.0166205 0)