/*--------------------------------*- C++ -*----------------------------------*\
  =========                 |
  \\      /  F ield         | OpenFOAM: The Open Source CFD Toolbox
   \\    /   O peration     | Website:  https://openfoam.org
    \\  /    A nd           | Version:  13
     \\/     M anipulation  |
\*---------------------------------------------------------------------------*/
FoamFile
{
    format      ascii;
    class       volVectorField;
    location    "0.9";
    object      U;
}
// * * * * * * * * * * * * * * * * * * * * * * * * * * * * * * * * * * * * * //

dimensions      [0 1 -1 0 0 0 0];

internalField   nonuniform List<vector> 
6400
(
(3.57562e-05 -3.57092e-05 0)
(0.000123533 -3.70164e-05 0)
(0.000157108 -2.04548e-05 0)
(0.000101125 -1.82717e-07 0)
(-4.46023e-05 1.58931e-05 0)
(-0.000260786 2.82647e-05 0)
(-0.000528104 3.71629e-05 0)
(-0.000831849 4.2872e-05 0)
(-0.00116087 4.63859e-05 0)
(-0.001507 4.8463e-05 0)
(-0.00186453 4.9601e-05 0)
(-0.00222943 5.01276e-05 0)
(-0.00259887 5.02599e-05 0)
(-0.00297086 5.01466e-05 0)
(-0.00334397 4.98938e-05 0)
(-0.00371719 4.95805e-05 0)
(-0.00408982 4.92669e-05 0)
(-0.00446137 4.90002e-05 0)
(-0.00483153 4.88181e-05 0)
(-0.00520009 4.87513e-05 0)
(-0.00556692 4.8824e-05 0)
(-0.00593193 4.90543e-05 0)
(-0.00629507 4.94544e-05 0)
(-0.00665623 5.00308e-05 0)
(-0.00701529 5.07847e-05 0)
(-0.00737205 5.17108e-05 0)
(-0.0077262 5.27981e-05 0)
(-0.00807731 5.4029e-05 0)
(-0.0084248 5.53784e-05 0)
(-0.00876791 5.6813e-05 0)
(-0.00910566 5.82901e-05 0)
(-0.00943686 5.97571e-05 0)
(-0.00976003 6.11504e-05 0)
(-0.0100734 6.23946e-05 0)
(-0.010375 6.34021e-05 0)
(-0.0106625 6.4073e-05 0)
(-0.0109332 6.42952e-05 0)
(-0.0111841 6.39457e-05 0)
(-0.011412 6.28937e-05 0)
(-0.0116134 6.10104e-05 0)
(-0.0117844 5.8141e-05 0)
(-0.0119212 5.38797e-05 0)
(-0.0120225 4.77054e-05 0)
(-0.0120775 4.08534e-05 0)
(-0.012091 3.47437e-05 0)
(-0.0120577 2.6771e-05 0)
(-0.0119715 1.74158e-05 0)
(-0.0118331 6.45226e-06 0)
(-0.0116409 -5.53233e-06 0)
(-0.0113942 -1.81378e-05 0)
(-0.0110934 -3.11008e-05 0)
(-0.0107397 -4.41922e-05 0)
(-0.0103356 -5.71069e-05 0)
(-0.00988374 -6.93145e-05 0)
(-0.00938841 -8.06968e-05 0)
(-0.00885451 -9.10652e-05 0)
(-0.00828702 -9.99398e-05 0)
(-0.00769223 -0.000107173 0)
(-0.00707651 -0.000112603 0)
(-0.00644648 -0.000116131 0)
(-0.00580882 -0.000117715 0)
(-0.00517016 -0.000117356 0)
(-0.004537 -0.00011507 0)
(-0.00391547 -0.000110904 0)
(-0.00331207 -0.000105292 0)
(-0.00273171 -9.8445e-05 0)
(-0.00217934 -9.04238e-05 0)
(-0.00165973 -8.12606e-05 0)
(-0.00117759 -7.09497e-05 0)
(-0.000737769 -5.94217e-05 0)
(-0.000345381 -4.6517e-05 0)
(-6.09293e-06 -3.23098e-05 0)
(0.000271982 -1.70096e-05 0)
(0.000480668 6.48173e-07 0)
(0.000611029 2.054e-05 0)
(0.000652678 4.06843e-05 0)
(0.000598376 5.83244e-05 0)
(0.000450351 7.08817e-05 0)
(0.000238537 7.00521e-05 0)
(4.48413e-05 4.5236e-05 0)
(3.749e-05 -0.000124004 0)
(0.000100162 -9.98066e-05 0)
(2.20568e-05 4.52369e-05 0)
(-0.00022661 0.000215052 0)
(-0.000627733 0.000361743 0)
(-0.00114762 0.000475331 0)
(-0.00175383 0.000557164 0)
(-0.00242261 0.000614325 0)
(-0.00313564 0.000653531 0)
(-0.00387948 0.000679989 0)
(-0.00464437 0.000697458 0)
(-0.00542327 0.000708576 0)
(-0.00621107 0.00071518 0)
(-0.007004 0.000718557 0)
(-0.0077993 0.000719624 0)
(-0.00859489 0.000719041 0)
(-0.0093892 0.000717284 0)
(-0.010181 0.000714698 0)
(-0.0109693 0.00071153 0)
(-0.0117533 0.000707947 0)
(-0.0125323 0.000704051 0)
(-0.0133054 0.000699882 0)
(-0.014072 0.000695425 0)
(-0.0148312 0.00069061 0)
(-0.0155819 0.000685317 0)
(-0.0163231 0.000679374 0)
(-0.0170532 0.000672559 0)
(-0.0177706 0.000664602 0)
(-0.0184732 0.000655184 0)
(-0.0191587 0.000643938 0)
(-0.0198244 0.00063045 0)
(-0.0204671 0.000614264 0)
(-0.0210831 0.000594888 0)
(-0.0216685 0.000571804 0)
(-0.0222188 0.000544475 0)
(-0.0227292 0.000512361 0)
(-0.0231944 0.000474941 0)
(-0.0236089 0.000431728 0)
(-0.0239671 0.0003823 0)
(-0.0242631 0.000326326 0)
(-0.024491 0.000263568 0)
(-0.0246457 0.000193793 0)
(-0.0247217 0.00011771 0)
(-0.0247142 3.58504e-05 0)
(-0.0246188 -5.03186e-05 0)
(-0.0244335 -0.000141642 0)
(-0.0241558 -0.000237461 0)
(-0.0237845 -0.000335764 0)
(-0.0233197 -0.000435073 0)
(-0.0227631 -0.000533781 0)
(-0.0221177 -0.000630375 0)
(-0.0213874 -0.000723419 0)
(-0.0205778 -0.000810967 0)
(-0.019695 -0.000891606 0)
(-0.0187461 -0.000964741 0)
(-0.0177392 -0.00102871 0)
(-0.0166832 -0.00108213 0)
(-0.0155875 -0.00112462 0)
(-0.0144615 -0.0011557 0)
(-0.0133151 -0.00117517 0)
(-0.0121578 -0.00118304 0)
(-0.0109992 -0.00117955 0)
(-0.00984837 -0.00116504 0)
(-0.00871411 -0.00113999 0)
(-0.00760425 -0.00110491 0)
(-0.00652727 -0.00106062 0)
(-0.00549091 -0.0010076 0)
(-0.00450253 -0.000946077 0)
(-0.00356944 -0.000875928 0)
(-0.0026992 -0.000796585 0)
(-0.00190003 -0.000706911 0)
(-0.00118137 -0.000605231 0)
(-0.000554867 -0.000489345 0)
(-3.41303e-05 -0.000355685 0)
(0.000362769 -0.000202332 0)
(0.000615213 -3.04204e-05 0)
(0.000703623 0.000149066 0)
(0.000614474 0.000305359 0)
(0.000368101 0.000370416 0)
(6.83132e-05 0.000237853 0)
(2.08543e-05 -0.000158215 0)
(-4.87603e-05 -2.13521e-05 0)
(-0.000314952 0.000309414 0)
(-0.000752318 0.00065112 0)
(-0.00132834 0.000935946 0)
(-0.00201131 0.00115309 0)
(-0.00277511 0.00131159 0)
(-0.00360004 0.00142469 0)
(-0.00447063 0.00150413 0)
(-0.00537481 0.00155908 0)
(-0.00630329 0.00159631 0)
(-0.00724896 0.00162075 0)
(-0.0082064 0.00163584 0)
(-0.00917145 0.00164407 0)
(-0.0101409 0.00164723 0)
(-0.0111122 0.00164659 0)
(-0.0120833 0.00164306 0)
(-0.0130525 0.00163729 0)
(-0.0140183 0.00162969 0)
(-0.0149792 0.00162053 0)
(-0.015934 0.00160995 0)
(-0.0168813 0.00159793 0)
(-0.0178196 0.00158437 0)
(-0.0187474 0.00156903 0)
(-0.0196627 0.00155158 0)
(-0.0205636 0.00153161 0)
(-0.0214478 0.00150858 0)
(-0.0223125 0.00148188 0)
(-0.0231547 0.00145083 0)
(-0.023971 0.00141464 0)
(-0.0247576 0.00137247 0)
(-0.0255101 0.00132344 0)
(-0.0262239 0.00126662 0)
(-0.0268938 0.00120108 0)
(-0.0275145 0.0011259 0)
(-0.0280801 0.00104023 0)
(-0.0285847 0.000943303 0)
(-0.0290221 0.000834509 0)
(-0.0293862 0.000713419 0)
(-0.029671 0.000579848 0)
(-0.0298709 0.000433888 0)
(-0.0299805 0.00027595 0)
(-0.0299954 0.000107083 0)
(-0.0299118 -7.12757e-05 0)
(-0.0297263 -0.000258005 0)
(-0.029437 -0.000451679 0)
(-0.0290435 -0.000649745 0)
(-0.028546 -0.000849443 0)
(-0.0279462 -0.0010481 0)
(-0.0272469 -0.00124298 0)
(-0.0264523 -0.00143128 0)
(-0.0255677 -0.00161032 0)
(-0.0245997 -0.00177723 0)
(-0.0235557 -0.00192987 0)
(-0.0224435 -0.00206655 0)
(-0.0212723 -0.00218489 0)
(-0.0200518 -0.00228318 0)
(-0.0187917 -0.00236063 0)
(-0.0175022 -0.00241666 0)
(-0.0161934 -0.00245108 0)
(-0.0148755 -0.00246407 0)
(-0.0135583 -0.00245615 0)
(-0.0122512 -0.00242809 0)
(-0.0109635 -0.00238086 0)
(-0.00970365 -0.00231542 0)
(-0.00847985 -0.00223274 0)
(-0.00729984 -0.00213365 0)
(-0.00617102 -0.00201859 0)
(-0.00510056 -0.00188743 0)
(-0.00409564 -0.00173923 0)
(-0.00316378 -0.00157203 0)
(-0.00231322 -0.00138263 0)
(-0.00155351 -0.00116653 0)
(-0.00089576 -0.000917914 0)
(-0.000353613 -0.000631399 0)
(5.63939e-05 -0.000304356 0)
(0.00031508 5.31995e-05 0)
(0.000401502 0.000398572 0)
(0.000301 0.000614658 0)
(6.69619e-05 0.000444482 0)
(-2.26083e-06 -9.84916e-05 0)
(-0.000232733 0.000234385 0)
(-0.000676801 0.000750288 0)
(-0.00125714 0.00122974 0)
(-0.0019452 0.00161935 0)
(-0.00271785 0.0019186 0)
(-0.0035576 0.00214173 0)
(-0.00445136 0.00230513 0)
(-0.0053881 0.00242313 0)
(-0.00635839 0.0025071 0)
(-0.0073544 0.00256576 0)
(-0.00836969 0.0026056 0)
(-0.0093991 0.00263141 0)
(-0.0104385 0.00264666 0)
(-0.0114845 0.00265388 0)
(-0.0125342 0.00265487 0)
(-0.0135854 0.00265093 0)
(-0.014636 0.00264295 0)
(-0.0156839 0.00263149 0)
(-0.0167276 0.0026169 0)
(-0.0177651 0.00259928 0)
(-0.0187947 0.00257856 0)
(-0.0198142 0.00255448 0)
(-0.0208217 0.00252663 0)
(-0.0218148 0.00249445 0)
(-0.0227908 0.00245723 0)
(-0.0237468 0.00241412 0)
(-0.0246794 0.00236417 0)
(-0.0255852 0.0023063 0)
(-0.0264599 0.00223932 0)
(-0.0272991 0.002162 0)
(-0.028098 0.00207304 0)
(-0.0288514 0.00197113 0)
(-0.0295536 0.00185502 0)
(-0.0301988 0.00172349 0)
(-0.0307809 0.00157549 0)
(-0.0312938 0.00141016 0)
(-0.031731 0.00122689 0)
(-0.0320867 0.00102541 0)
(-0.0323548 0.000805824 0)
(-0.0325301 0.000568713 0)
(-0.0326077 0.00031515 0)
(-0.0325834 4.68161e-05 0)
(-0.0324542 -0.000234309 0)
(-0.0322174 -0.000525518 0)
(-0.0318718 -0.000824226 0)
(-0.0314176 -0.00112699 0)
(-0.030856 -0.00142995 0)
(-0.0301893 -0.00172917 0)
(-0.0294212 -0.00202068 0)
(-0.0285564 -0.00230053 0)
(-0.0276009 -0.00256489 0)
(-0.0265616 -0.0028101 0)
(-0.0254462 -0.00303327 0)
(-0.0242633 -0.00323183 0)
(-0.0230221 -0.00340264 0)
(-0.0217326 -0.0035438 0)
(-0.020405 -0.0036542 0)
(-0.0190494 -0.00373316 0)
(-0.0176763 -0.00378055 0)
(-0.016296 -0.00379669 0)
(-0.0149184 -0.00378238 0)
(-0.0135532 -0.00373877 0)
(-0.0122096 -0.00366723 0)
(-0.0108964 -0.00356926 0)
(-0.00962168 -0.00344632 0)
(-0.00839305 -0.00329965 0)
(-0.00721766 -0.00313007 0)
(-0.00610223 -0.00293765 0)
(-0.00505321 -0.00272148 0)
(-0.00407691 -0.00247935 0)
(-0.00317981 -0.00220749 0)
(-0.00236871 -0.00190042 0)
(-0.00165098 -0.00155109 0)
(-0.00103489 -0.00115209 0)
(-0.000530394 -0.000698408 0)
(-0.000150604 -0.000195484 0)
(8.6629e-05 0.00031962 0)
(0.000157478 0.000712616 0)
(5.30425e-05 0.000588532 0)
(-2.30164e-05 6.26824e-05 0)
(-0.000401699 0.000653914 0)
(-0.00099257 0.00133598 0)
(-0.00168257 0.00192034 0)
(-0.00245381 0.00238875 0)
(-0.00328914 0.00275302 0)
(-0.00417741 0.00303074 0)
(-0.00511099 0.00323942 0)
(-0.00608286 0.00339421 0)
(-0.00708633 0.00350751 0)
(-0.00811533 0.00358908 0)
(-0.00916456 0.00364643 0)
(-0.0102294 0.00368526 0)
(-0.0113061 0.00370979 0)
(-0.0123911 0.00372317 0)
(-0.0134817 0.00372764 0)
(-0.0145753 0.00372484 0)
(-0.0156697 0.00371587 0)
(-0.0167625 0.00370144 0)
(-0.0178518 0.0036819 0)
(-0.0189355 0.00365733 0)
(-0.0200114 0.00362755 0)
(-0.0210771 0.00359216 0)
(-0.0221301 0.00355055 0)
(-0.0231677 0.00350189 0)
(-0.0241869 0.00344518 0)
(-0.0251843 0.00337924 0)
(-0.0261563 0.00330276 0)
(-0.0270988 0.00321427 0)
(-0.0280074 0.00311222 0)
(-0.0288772 0.00299497 0)
(-0.029703 0.00286088 0)
(-0.0304794 0.0027083 0)
(-0.0312006 0.00253565 0)
(-0.0318603 0.00234154 0)
(-0.0324524 0.00212475 0)
(-0.0329706 0.0018844 0)
(-0.0334087 0.00161998 0)
(-0.0337604 0.00133145 0)
(-0.0340201 0.00101932 0)
(-0.0341826 0.000684692 0)
(-0.0342432 0.000329321 0)
(-0.034198 -4.43774e-05 0)
(-0.0340441 -0.000433431 0)
(-0.0337794 -0.000834174 0)
(-0.033403 -0.00124267 0)
(-0.0329154 -0.00165433 0)
(-0.0323181 -0.0020642 0)
(-0.0316139 -0.00246713 0)
(-0.0308067 -0.00285796 0)
(-0.0299017 -0.00323162 0)
(-0.028905 -0.00358322 0)
(-0.0278239 -0.00390822 0)
(-0.0266662 -0.00420294 0)
(-0.025441 -0.00446401 0)
(-0.0241578 -0.00468757 0)
(-0.0228267 -0.00487144 0)
(-0.0214582 -0.00501421 0)
(-0.020063 -0.00511513 0)
(-0.0186516 -0.00517408 0)
(-0.0172346 -0.00519158 0)
(-0.0158223 -0.0051687 0)
(-0.0144246 -0.00510701 0)
(-0.0130509 -0.00500839 0)
(-0.01171 -0.00487491 0)
(-0.0104101 -0.00470862 0)
(-0.00915868 -0.00451135 0)
(-0.00796261 -0.00428446 0)
(-0.00682804 -0.0040285 0)
(-0.00576059 -0.00374295 0)
(-0.00476532 -0.00342583 0)
(-0.00384689 -0.00307349 0)
(-0.00300962 -0.00268042 0)
(-0.00225755 -0.0022394 0)
(-0.00159464 -0.00174237 0)
(-0.00102561 -0.00118279 0)
(-0.000558316 -0.00056186 0)
(-0.000205733 9.35278e-05 0)
(1.03877e-05 0.000656383 0)
(3.72229e-05 0.000650409 0)
(-4.2576e-05 0.000311592 0)
(-0.000542726 0.00120551 0)
(-0.00124731 0.00203562 0)
(-0.00202383 0.00269929 0)
(-0.00286265 0.00322521 0)
(-0.00374908 0.00363863 0)
(-0.00467568 0.00396002 0)
(-0.00563871 0.00420703 0)
(-0.00663438 0.00439473 0)
(-0.00765848 0.00453564 0)
(-0.00870672 0.00463989 0)
(-0.00977499 0.00471548 0)
(-0.0108595 0.00476859 0)
(-0.0119568 0.00480393 0)
(-0.0130639 0.00482505 0)
(-0.0141778 0.00483455 0)
(-0.0152962 0.0048343 0)
(-0.0164165 0.00482557 0)
(-0.0175366 0.00480915 0)
(-0.018654 0.0047854 0)
(-0.0197666 0.00475434 0)
(-0.020872 0.00471569 0)
(-0.0219674 0.00466887 0)
(-0.0230503 0.00461305 0)
(-0.0241176 0.00454714 0)
(-0.025166 0.00446985 0)
(-0.026192 0.00437968 0)
(-0.0271915 0.00427494 0)
(-0.0281603 0.00415381 0)
(-0.0290938 0.00401436 0)
(-0.0299869 0.00385459 0)
(-0.0308342 0.0036725 0)
(-0.03163 0.00346613 0)
(-0.0323682 0.00323365 0)
(-0.0330426 0.00297347 0)
(-0.0336469 0.00268429 0)
(-0.0341746 0.00236522 0)
(-0.0346193 0.0020159 0)
(-0.034975 0.00163655 0)
(-0.0352357 0.00122812 0)
(-0.0353963 0.000792269 0)
(-0.035452 0.000331458 0)
(-0.0353991 -0.00015108 0)
(-0.0352345 -0.000651319 0)
(-0.0349563 -0.00116465 0)
(-0.0345637 -0.00168585 0)
(-0.0340573 -0.00220916 0)
(-0.0334387 -0.00272842 0)
(-0.0327108 -0.00323729 0)
(-0.0318776 -0.00372944 0)
(-0.0309445 -0.00419865 0)
(-0.0299178 -0.004639 0)
(-0.028805 -0.00504505 0)
(-0.0276142 -0.00541229 0)
(-0.0263546 -0.00573638 0)
(-0.0250365 -0.00601294 0)
(-0.0236702 -0.00623937 0)
(-0.0222665 -0.00641398 0)
(-0.0208367 -0.0065359 0)
(-0.0193917 -0.00660506 0)
(-0.0179426 -0.00662217 0)
(-0.0165002 -0.00658864 0)
(-0.0150747 -0.00650651 0)
(-0.0136758 -0.00637822 0)
(-0.0123126 -0.00620651 0)
(-0.0109934 -0.00599417 0)
(-0.00972541 -0.0057438 0)
(-0.00851529 -0.00545751 0)
(-0.00736863 -0.00513662 0)
(-0.00629013 -0.00478132 0)
(-0.00528362 -0.00439034 0)
(-0.00435205 -0.00396068 0)
(-0.00349753 -0.0034874 0)
(-0.00272133 -0.00296377 0)
(-0.00202413 -0.00238187 0)
(-0.00140692 -0.00173416 0)
(-0.000874087 -0.0010177 0)
(-0.000435583 -0.000247048 0)
(-0.000108535 0.000474147 0)
(2.45841e-05 0.000639454 0)
(-5.84893e-05 0.000628195 0)
(-0.000653376 0.00185903 0)
(-0.00144536 0.00282393 0)
(-0.00229108 0.00354879 0)
(-0.0031864 0.00411606 0)
(-0.00411692 0.00456538 0)
(-0.005077 0.00492028 0)
(-0.00606533 0.00519845 0)
(-0.0070805 0.0054144 0)
(-0.00812028 0.00558024 0)
(-0.00918197 0.00570592 0)
(-0.0102627 0.00579949 0)
(-0.0113594 0.00586731 0)
(-0.0124694 0.00591432 0)
(-0.0135898 0.0059443 0)
(-0.0147183 0.00596005 0)
(-0.0158522 0.00596359 0)
(-0.0169893 0.00595629 0)
(-0.0181273 0.00593896 0)
(-0.0192638 0.00591195 0)
(-0.0203963 0.0058752 0)
(-0.0215225 0.00582829 0)
(-0.0226396 0.00577046 0)
(-0.0237447 0.00570065 0)
(-0.0248346 0.00561753 0)
(-0.0259059 0.00551949 0)
(-0.0269549 0.00540471 0)
(-0.0279775 0.00527116 0)
(-0.0289693 0.00511665 0)
(-0.0299254 0.00493888 0)
(-0.0308406 0.00473549 0)
(-0.0317094 0.00450414 0)
(-0.0325258 0.00424255 0)
(-0.0332838 0.00394865 0)
(-0.0339769 0.00362065 0)
(-0.0345985 0.00325716 0)
(-0.0351421 0.00285731 0)
(-0.0356009 0.00242089 0)
(-0.0359688 0.0019484 0)
(-0.0362396 0.0014412 0)
(-0.036408 0.000901555 0)
(-0.0364689 0.000332633 0)
(-0.0364184 -0.000261464 0)
(-0.0362534 -0.000875755 0)
(-0.0359717 -0.00150451 0)
(-0.0355725 -0.0021413 0)
(-0.0350561 -0.00277914 0)
(-0.0344241 -0.00341065 0)
(-0.0336794 -0.00402826 0)
(-0.0328261 -0.00462442 0)
(-0.0318695 -0.00519175 0)
(-0.0308162 -0.00572322 0)
(-0.0296738 -0.00621245 0)
(-0.0284506 -0.00665407 0)
(-0.0271565 -0.00704257 0)
(-0.0258021 -0.00737311 0)
(-0.0243982 -0.00764258 0)
(-0.0229564 -0.00784898 0)
(-0.0214884 -0.0079913 0)
(-0.020006 -0.0080695 0)
(-0.0185208 -0.0080845 0)
(-0.0170443 -0.00803812 0)
(-0.0155873 -0.00793289 0)
(-0.01416 -0.00777198 0)
(-0.0127718 -0.0075589 0)
(-0.011431 -0.00729735 0)
(-0.0101451 -0.00699089 0)
(-0.00892036 -0.00664267 0)
(-0.00776177 -0.00625504 0)
(-0.00667321 -0.00582927 0)
(-0.00565731 -0.00536515 0)
(-0.00471544 -0.00486071 0)
(-0.0038478 -0.00431207 0)
(-0.00305343 -0.00371336 0)
(-0.00233053 -0.00305705 0)
(-0.00167761 -0.00233473 0)
(-0.00109699 -0.00153911 0)
(-0.000597681 -0.000671321 0)
(-0.000192515 0.000200213 0)
(1.55704e-05 0.000573978 0)
(-7.05828e-05 0.000998804 0)
(-0.000737814 0.00259057 0)
(-0.00159642 0.00368161 0)
(-0.0024974 0.00445589 0)
(-0.00344003 0.0050532 0)
(-0.00440892 0.00552822 0)
(-0.00539905 0.00590806 0)
(-0.00641044 0.00621071 0)
(-0.00744322 0.00645006 0)
(-0.00849668 0.00663757 0)
(-0.00956942 0.00678275 0)
(-0.0106596 0.00689338 0)
(-0.0117651 0.00697574 0)
(-0.0128838 0.00703478 0)
(-0.0140134 0.00707434 0)
(-0.0151516 0.00709729 0)
(-0.0162964 0.0071057 0)
(-0.0174453 0.00710097 0)
(-0.0185963 0.00708389 0)
(-0.0197469 0.00705474 0)
(-0.0208949 0.00701337 0)
(-0.0220375 0.00695919 0)
(-0.0231722 0.00689125 0)
(-0.0242959 0.00680827 0)
(-0.0254055 0.00670863 0)
(-0.0264974 0.00659043 0)
(-0.0275679 0.00645152 0)
(-0.0286127 0.00628952 0)
(-0.0296273 0.00610187 0)
(-0.0306069 0.00588589 0)
(-0.0315461 0.00563886 0)
(-0.0324393 0.00535807 0)
(-0.0332803 0.00504092 0)
(-0.0340628 0.00468508 0)
(-0.0347803 0.00428854 0)
(-0.0354258 0.0038498 0)
(-0.0359924 0.00336798 0)
(-0.0364733 0.002843 0)
(-0.0368618 0.00227562 0)
(-0.0371514 0.00166762 0)
(-0.0373363 0.00102184 0)
(-0.0374113 0.000342178 0)
(-0.0373719 -0.000366391 0)
(-0.0372146 -0.00109789 0)
(-0.036937 -0.00184545 0)
(-0.036538 -0.00260143 0)
(-0.0360176 -0.00335759 0)
(-0.0353771 -0.00410526 0)
(-0.0346193 -0.00483558 0)
(-0.0337481 -0.00553971 0)
(-0.0327691 -0.00620901 0)
(-0.0316888 -0.0068353 0)
(-0.030515 -0.00741118 0)
(-0.0292565 -0.00793022 0)
(-0.0279235 -0.00838572 0)
(-0.0265273 -0.00877223 0)
(-0.0250792 -0.00908607 0)
(-0.0235919 -0.00932487 0)
(-0.0220777 -0.00948743 0)
(-0.0205495 -0.00957375 0)
(-0.0190197 -0.00958497 0)
(-0.0175007 -0.00952334 0)
(-0.016004 -0.00939202 0)
(-0.0145406 -0.00919498 0)
(-0.0131203 -0.00893669 0)
(-0.011752 -0.00862197 0)
(-0.0104432 -0.00825557 0)
(-0.00919981 -0.00784194 0)
(-0.00802654 -0.00738479 0)
(-0.00692643 -0.00688674 0)
(-0.00590102 -0.00634899 0)
(-0.0049503 -0.00577094 0)
(-0.00407279 -0.00514999 0)
(-0.00326573 -0.00448129 0)
(-0.00252545 -0.00375775 0)
(-0.0018488 -0.00296986 0)
(-0.00123696 -0.00210548 0)
(-0.000698878 -0.00115128 0)
(-0.000245007 -0.000135737 0)
(1.01276e-05 0.00047211 0)
(-7.9537e-05 0.00141057 0)
(-0.00080114 0.00338091 0)
(-0.00171008 0.00459321 0)
(-0.00265485 0.0054099 0)
(-0.0036367 0.00602978 0)
(-0.0046387 0.00652305 0)
(-0.0056557 0.00692105 0)
(-0.0066883 0.00724242 0)
(-0.00773756 0.00750065 0)
(-0.00880379 0.00770653 0)
(-0.0098866 0.00786899 0)
(-0.0109851 0.00799537 0)
(-0.0120979 0.00809169 0)
(-0.0132235 0.00816275 0)
(-0.0143601 0.00821231 0)
(-0.015506 0.00824318 0)
(-0.016659 0.00825742 0)
(-0.0178173 0.00825635 0)
(-0.0189788 0.0082407 0)
(-0.0201412 0.00821066 0)
(-0.0213023 0.00816593 0)
(-0.0224595 0.00810576 0)
(-0.0236102 0.00802899 0)
(-0.0247513 0.00793409 0)
(-0.0258799 0.00781917 0)
(-0.0269922 0.00768202 0)
(-0.0280846 0.00752014 0)
(-0.0291529 0.00733081 0)
(-0.0301924 0.00711107 0)
(-0.0311982 0.00685785 0)
(-0.032165 0.00656804 0)
(-0.0330869 0.00623852 0)
(-0.0339576 0.00586635 0)
(-0.0347706 0.00544886 0)
(-0.035519 0.00498381 0)
(-0.0361957 0.00446953 0)
(-0.0367931 0.00390509 0)
(-0.0373042 0.00329048 0)
(-0.0377216 0.00262672 0)
(-0.0380385 0.00191597 0)
(-0.0382484 0.00116163 0)
(-0.0383456 0.000368347 0)
(-0.038325 -0.000458033 0)
(-0.0381828 -0.0013105 0)
(-0.0379159 -0.00218104 0)
(-0.0375227 -0.00306077 0)
(-0.0370029 -0.00394011 0)
(-0.0363574 -0.00480906 0)
(-0.0355887 -0.00565737 0)
(-0.0347006 -0.0064748 0)
(-0.0336985 -0.00725139 0)
(-0.0325892 -0.00797765 0)
(-0.0313805 -0.00864507 0)
(-0.0300815 -0.00924595 0)
(-0.0287032 -0.00977234 0)
(-0.0272573 -0.010218 0)
(-0.0257562 -0.0105785 0)
(-0.0242133 -0.0108511 0)
(-0.0226423 -0.0110344 0)
(-0.021057 -0.0111282 0)
(-0.019471 -0.011134 0)
(-0.0178979 -0.0110546 0)
(-0.0163504 -0.0108937 0)
(-0.0148403 -0.0106564 0)
(-0.0133783 -0.0103482 0)
(-0.0119738 -0.00997522 0)
(-0.0106346 -0.00954381 0)
(-0.00936672 -0.00905995 0)
(-0.00817448 -0.008529 0)
(-0.0070603 -0.00795531 0)
(-0.00602473 -0.00734172 0)
(-0.00506653 -0.00668929 0)
(-0.00418281 -0.00599681 0)
(-0.00336927 -0.00526055 0)
(-0.00262079 -0.00447369 0)
(-0.00193299 -0.00362532 0)
(-0.00130624 -0.00269793 0)
(-0.00074952 -0.00166299 0)
(-0.000271439 -0.000506938 0)
(7.98817e-06 0.000349958 0)
(-8.59905e-05 0.0018531 0)
(-0.000847866 0.00421497 0)
(-0.00179446 0.00554629 0)
(-0.00277352 0.00640167 0)
(-0.00378744 0.00703944 0)
(-0.00481756 0.00754579 0)
(-0.00585823 0.00795681 0)
(-0.00691015 0.00829223 0)
(-0.0079748 0.00856541 0)
(-0.00905317 0.00878658 0)
(-0.0101456 0.00896408 0)
(-0.011252 0.00910476 0)
(-0.0123715 0.00921427 0)
(-0.0135034 0.00929712 0)
(-0.0146462 0.0093569 0)
(-0.0157987 0.00939628 0)
(-0.016959 0.00941719 0)
(-0.0181256 0.00942085 0)
(-0.0192966 0.00940788 0)
(-0.0204699 0.00937833 0)
(-0.0216433 0.00933173 0)
(-0.0228146 0.00926714 0)
(-0.0239811 0.00918318 0)
(-0.0251399 0.00907807 0)
(-0.0262881 0.00894961 0)
(-0.0274222 0.0087953 0)
(-0.0285383 0.00861227 0)
(-0.0296324 0.0083974 0)
(-0.0307 0.00814735 0)
(-0.0317359 0.00785862 0)
(-0.0327348 0.00752762 0)
(-0.0336907 0.00715083 0)
(-0.0345971 0.00672487 0)
(-0.0354472 0.00624669 0)
(-0.0362338 0.00571372 0)
(-0.0369491 0.00512406 0)
(-0.0375855 0.0044767 0)
(-0.0381349 0.00377163 0)
(-0.0385897 0.00301007 0)
(-0.0389422 0.00219458 0)
(-0.0391854 0.00132907 0)
(-0.0393128 0.000418929 0)
(-0.0393188 -0.000529101 0)
(-0.0391986 -0.00150697 0)
(-0.0389487 -0.00250548 0)
(-0.0385668 -0.00351446 0)
(-0.0380521 -0.00452296 0)
(-0.0374049 -0.00551953 0)
(-0.0366273 -0.00649245 0)
(-0.035723 -0.00742999 0)
(-0.034697 -0.00832067 0)
(-0.0335562 -0.0091536 0)
(-0.0323085 -0.009919 0)
(-0.0309635 -0.0106077 0)
(-0.0295325 -0.0112103 0)
(-0.0280282 -0.0117196 0)
(-0.0264637 -0.0121304 0)
(-0.0248536 -0.0124392 0)
(-0.023213 -0.0126443 0)
(-0.0215571 -0.0127455 0)
(-0.0199011 -0.0127446 0)
(-0.0182598 -0.0126446 0)
(-0.0166476 -0.0124503 0)
(-0.0150775 -0.0121677 0)
(-0.0135615 -0.0118037 0)
(-0.0121098 -0.0113662 0)
(-0.0107309 -0.0108632 0)
(-0.00943096 -0.0103025 0)
(-0.00821426 -0.00969164 0)
(-0.00708271 -0.00903686 0)
(-0.00603606 -0.00834304 0)
(-0.00507198 -0.00761304 0)
(-0.00418631 -0.00684726 0)
(-0.00337339 -0.00604302 0)
(-0.00262676 -0.00519365 0)
(-0.00194093 -0.00428657 0)
(-0.00131531 -0.00329856 0)
(-0.000758391 -0.00218556 0)
(-0.000277003 -0.000891336 0)
(8.15458e-06 0.000219897 0)
(-9.04984e-05 0.00231821 0)
(-0.00088169 0.00508105 0)
(-0.00185601 0.00653093 0)
(-0.00286151 0.00742337 0)
(-0.0039012 0.00807642 0)
(-0.00495476 0.00859245 0)
(-0.00601589 0.00901275 0)
(-0.00708505 0.0093586 0)
(-0.00816389 0.00964349 0)
(-0.00925374 0.00987727 0)
(-0.0103555 0.0100678 0)
(-0.0114695 0.0102213 0)
(-0.0125957 0.0103432 0)
(-0.0137337 0.0104375 0)
(-0.0148825 0.0105076 0)
(-0.0160413 0.0105561 0)
(-0.0172087 0.0105845 0)
(-0.0183834 0.010594 0)
(-0.0195637 0.010585 0)
(-0.0207478 0.0105575 0)
(-0.0219338 0.0105107 0)
(-0.0231196 0.0104436 0)
(-0.0243026 0.0103544 0)
(-0.0254803 0.0102412 0)
(-0.0266497 0.0101015 0)
(-0.0278075 0.00993231 0)
(-0.0289501 0.00973053 0)
(-0.0300733 0.00949258 0)
(-0.0311727 0.00921466 0)
(-0.0322433 0.0088928 0)
(-0.0332795 0.00852291 0)
(-0.0342752 0.00810094 0)
(-0.0352238 0.00762303 0)
(-0.0361179 0.00708564 0)
(-0.0369501 0.00648582 0)
(-0.037712 0.00582135 0)
(-0.0383954 0.00509102 0)
(-0.0389917 0.00429483 0)
(-0.0394924 0.00343414 0)
(-0.0398891 0.00251181 0)
(-0.0401741 0.00153233 0)
(-0.0403401 0.00050178 0)
(-0.0403805 -0.000572204 0)
(-0.0402899 -0.00168051 0)
(-0.0400639 -0.00281274 0)
(-0.0396996 -0.00395738 0)
(-0.0391952 -0.00510206 0)
(-0.0385506 -0.00623379 0)
(-0.0377672 -0.00733927 0)
(-0.0368482 -0.00840515 0)
(-0.0357985 -0.0094183 0)
(-0.0346247 -0.0103663 0)
(-0.0333348 -0.0112378 0)
(-0.0319385 -0.012022 0)
(-0.0304478 -0.0127079 0)
(-0.0288759 -0.0132872 0)
(-0.0272371 -0.0137533 0)
(-0.0255472 -0.0141021 0)
(-0.0238229 -0.0143312 0)
(-0.022081 -0.0144406 0)
(-0.0203385 -0.0144318 0)
(-0.0186123 -0.0143086 0)
(-0.0169186 -0.0140766 0)
(-0.0152724 -0.0137429 0)
(-0.0136872 -0.0133163 0)
(-0.0121746 -0.0128063 0)
(-0.0107441 -0.0122231 0)
(-0.00940253 -0.011577 0)
(-0.00815427 -0.0108776 0)
(-0.00700097 -0.0101338 0)
(-0.00594171 -0.00935265 0)
(-0.0049732 -0.00853913 0)
(-0.00409007 -0.00769535 0)
(-0.00328531 -0.00681976 0)
(-0.00255111 -0.00590577 0)
(-0.00188065 -0.00493894 0)
(-0.00127196 -0.00389029 0)
(-0.000732065 -0.00270043 0)
(-0.000265627 -0.00127137 0)
(1.00491e-05 9.16817e-05 0)
(-9.35408e-05 0.00279954 0)
(-0.000905518 0.00597008 0)
(-0.0018997 0.00753908 0)
(-0.00292515 0.00846838 0)
(-0.0039851 0.00913548 0)
(-0.00505779 0.00965915 0)
(-0.0061362 0.0100862 0)
(-0.00722042 0.0104398 0)
(-0.00831203 0.0107339 0)
(-0.00941255 0.0109781 0)
(-0.0105232 0.0111798 0)
(-0.0116447 0.011345 0)
(-0.0127776 0.0114784 0)
(-0.0139217 0.011584 0)
(-0.0150767 0.0116646 0)
(-0.016242 0.0117225 0)
(-0.0174166 0.0117593 0)
(-0.0185996 0.0117759 0)
(-0.0197896 0.0117724 0)
(-0.0209851 0.0117485 0)
(-0.0221843 0.0117035 0)
(-0.0233855 0.011636 0)
(-0.0245864 0.011544 0)
(-0.0257846 0.0114252 0)
(-0.0269773 0.0112769 0)
(-0.0281614 0.0110957 0)
(-0.0293335 0.0108782 0)
(-0.0304896 0.0106202 0)
(-0.0316252 0.0103175 0)
(-0.0327353 0.00996549 0)
(-0.0338144 0.00955961 0)
(-0.034856 0.00909516 0)
(-0.0358533 0.00856769 0)
(-0.0367987 0.00797309 0)
(-0.0376841 0.00730789 0)
(-0.0385007 0.00656951 0)
(-0.0392396 0.00575648 0)
(-0.0398914 0.00486869 0)
(-0.0404469 0.00390761 0)
(-0.0408969 0.00287641 0)
(-0.0412328 0.00178006 0)
(-0.0414464 0.00062535 0)
(-0.0415302 -0.000579199 0)
(-0.041478 -0.00182342 0)
(-0.0412844 -0.00309569 0)
(-0.0409454 -0.00438315 0)
(-0.0404586 -0.00567191 0)
(-0.0398229 -0.00694743 0)
(-0.039039 -0.00819468 0)
(-0.0381094 -0.00939856 0)
(-0.0370385 -0.0105442 0)
(-0.0358325 -0.0116173 0)
(-0.0344991 -0.0126051 0)
(-0.0330483 -0.0134945 0)
(-0.0314922 -0.014273 0)
(-0.0298447 -0.0149305 0)
(-0.028121 -0.0154591 0)
(-0.0263382 -0.0158535 0)
(-0.0245146 -0.0161108 0)
(-0.0226693 -0.0162302 0)
(-0.0208214 -0.0162135 0)
(-0.0189903 -0.0160648 0)
(-0.0171947 -0.0157906 0)
(-0.0154522 -0.0153995 0)
(-0.0137786 -0.014902 0)
(-0.0121876 -0.0143097 0)
(-0.0106902 -0.0136356 0)
(-0.00929441 -0.0128927 0)
(-0.00800498 -0.0120935 0)
(-0.00682358 -0.0112497 0)
(-0.00574878 -0.0103709 0)
(-0.00477637 -0.00946474 0)
(-0.00389974 -0.00853506 0)
(-0.00311048 -0.00758163 0)
(-0.00239921 -0.00659796 0)
(-0.0017574 -0.00556786 0)
(-0.00118103 -0.00445673 0)
(-0.000674596 -0.00319055 0)
(-0.000239989 -0.00163153 0)
(1.30643e-05 -2.5776e-05 0)
(-9.55074e-05 0.00329207 0)
(-0.00092156 0.00687495 0)
(-0.00192928 0.00856425 0)
(-0.00296927 0.00953107 0)
(-0.00404473 0.010212 0)
(-0.0051326 0.0107423 0)
(-0.00622523 0.0111745 0)
(-0.00732226 0.011534 0)
(-0.00842509 0.0118354 0)
(-0.00953528 0.0120883 0)
(-0.0106542 0.0122999 0)
(-0.011783 0.0124757 0)
(-0.0129224 0.0126201 0)
(-0.0140728 0.0127366 0)
(-0.0152341 0.012828 0)
(-0.0164062 0.012896 0)
(-0.0175885 0.0129422 0)
(-0.0187803 0.012967 0)
(-0.0199805 0.0129705 0)
(-0.0211882 0.0129523 0)
(-0.0224018 0.0129112 0)
(-0.0236196 0.0128457 0)
(-0.02484 0.0127535 0)
(-0.0260606 0.0126321 0)
(-0.027279 0.0124784 0)
(-0.0284924 0.0122886 0)
(-0.0296973 0.0120587 0)
(-0.0308901 0.0117843 0)
(-0.0320664 0.0114605 0)
(-0.0332212 0.011082 0)
(-0.0343487 0.0106436 0)
(-0.0354425 0.01014 0)
(-0.0364954 0.00956586 0)
(-0.0374993 0.00891651 0)
(-0.0384457 0.00818789 0)
(-0.0393253 0.0073769 0)
(-0.0401283 0.00648175 0)
(-0.0408447 0.0055022 0)
(-0.0414645 0.00443974 0)
(-0.0419776 0.00329781 0)
(-0.0423746 0.00208185 0)
(-0.0426463 0.000799298 0)
(-0.0427843 -0.000540459 0)
(-0.0427813 -0.00192622 0)
(-0.0426309 -0.00334516 0)
(-0.0423281 -0.00478302 0)
(-0.0418692 -0.00622443 0)
(-0.0412523 -0.00765317 0)
(-0.0404771 -0.00905248 0)
(-0.039545 -0.0104054 0)
(-0.0384597 -0.011695 0)
(-0.0372265 -0.0129054 0)
(-0.0358528 -0.0140216 0)
(-0.034348 -0.0150284 0)
(-0.0327241 -0.0159113 0)
(-0.0309954 -0.0166584 0)
(-0.0291776 -0.0172596 0)
(-0.0272891 -0.0177082 0)
(-0.0253501 -0.018 0)
(-0.0233818 -0.0181338 0)
(-0.0214063 -0.0181108 0)
(-0.0194459 -0.0179355 0)
(-0.0175228 -0.017615 0)
(-0.0156581 -0.0171594 0)
(-0.0138711 -0.0165812 0)
(-0.0121785 -0.015895 0)
(-0.0105935 -0.0151167 0)
(-0.009126 -0.0142625 0)
(-0.00778168 -0.0133487 0)
(-0.00656246 -0.0123902 0)
(-0.00546651 -0.0114 0)
(-0.00448868 -0.0103882 0)
(-0.00362103 -0.00936114 0)
(-0.0028535 -0.00831997 0)
(-0.00217481 -0.00725854 0)
(-0.00157428 -0.00615913 0)
(-0.00104503 -0.00498206 0)
(-0.000587778 -0.00363976 0)
(-0.000200745 -0.00195743 0)
(1.73319e-05 -0.000125379 0)
(-9.66769e-05 0.00379229 0)
(-0.000931302 0.00778967 0)
(-0.0019476 0.00960111 0)
(-0.00299762 0.0106067 0)
(-0.00408442 0.0113019 0)
(-0.00518392 0.0118385 0)
(-0.00628785 0.012275 0)
(-0.00739543 0.0126393 0)
(-0.00850781 0.0129466 0)
(-0.00962651 0.0132071 0)
(-0.010753 0.0134275 0)
(-0.0118887 0.0136132 0)
(-0.0130344 0.0137682 0)
(-0.0141911 0.0138956 0)
(-0.0153589 0.013998 0)
(-0.016538 0.0140769 0)
(-0.0177284 0.0141334 0)
(-0.0189295 0.0141679 0)
(-0.0201408 0.0141803 0)
(-0.0213615 0.0141698 0)
(-0.0225905 0.014135 0)
(-0.0238265 0.0140742 0)
(-0.025068 0.013985 0)
(-0.0263131 0.0138643 0)
(-0.0275597 0.0137087 0)
(-0.0288052 0.0135141 0)
(-0.0300465 0.013276 0)
(-0.03128 0.0129893 0)
(-0.0325015 0.0126485 0)
(-0.0337059 0.0122478 0)
(-0.0348875 0.011781 0)
(-0.0360397 0.0112419 0)
(-0.0371549 0.0106246 0)
(-0.0382247 0.0099235 0)
(-0.03924 0.00913388 0)
(-0.0401909 0.0082521 0)
(-0.0410671 0.00727594 0)
(-0.0418579 0.00620495 0)
(-0.0425524 0.00504065 0)
(-0.0431398 0.00378666 0)
(-0.0436098 0.00244882 0)
(-0.0439521 0.0010352 0)
(-0.0441577 -0.000444021 0)
(-0.0442178 -0.00197665 0)
(-0.0441252 -0.00354869 0)
(-0.0438735 -0.00514455 0)
(-0.043458 -0.00674733 0)
(-0.0428753 -0.00833917 0)
(-0.042124 -0.00990149 0)
(-0.0412042 -0.0114154 0)
(-0.0401183 -0.0128621 0)
(-0.0388702 -0.0142237 0)
(-0.0374662 -0.0154829 0)
(-0.0359149 -0.0166221 0)
(-0.034227 -0.0176248 0)
(-0.0324167 -0.0184765 0)
(-0.0304994 -0.0191647 0)
(-0.0284943 -0.0196804 0)
(-0.0264235 -0.0200175 0)
(-0.0243104 -0.0201736 0)
(-0.0221806 -0.0201492 0)