/*--------------------------------*- C++ -*----------------------------------*\
  =========                 |
  \\      /  F ield         | OpenFOAM: The Open Source CFD Toolbox
   \\    /   O peration     | Website:  https://openfoam.org
    \\  /    A nd           | Version:  13
     \\/     M anipulation  |
\*---------------------------------------------------------------------------*/
FoamFile
{
    format      ascii;
    class       volScalarField;
    location    "9.7";
    object      epsilon;
}
// * * * * * * * * * * * * * * * * * * * * * * * * * * * * * * * * * * * * * //

dimensions      [0 2 -3 0 0 0 0];

internalField   nonuniform List<scalar> 
6400
(
2.91278e-05
0.000149559
0.000363703
0.000585519
0.000751963
0.000844538
0.000877088
0.00087882
0.000882841
0.000913531
0.000990241
0.00114335
0.0013865
0.00172505
0.00214106
0.00261122
0.00311108
0.00363071
0.00414501
0.00464194
0.00514275
0.00569068
0.00634311
0.00713087
0.00801673
0.00890437
0.0097878
0.0106651
0.0115651
0.012511
0.0134889
0.0144669
0.0154294
0.0163804
0.0173425
0.0183221
0.019338
0.0203967
0.0215105
0.0226825
0.0239212
0.0252359
0.0266343
0.0281306
0.0297401
0.0315187
0.0335756
0.0361411
0.0386589
0.0412436
0.043759
0.0462008
0.0484836
0.0505475
0.0523145
0.0536841
0.0543639
0.0546308
0.0544536
0.053361
0.0514667
0.0487869
0.0453436
0.0412974
0.0366982
0.031802
0.0268404
0.0219967
0.0174492
0.013416
0.0101231
0.00736028
0.00512952
0.00342762
0.00220289
0.00136813
0.000823551
0.000472747
0.00022336
4.7559e-05
0.000140598
0.000141619
0.000232216
0.000336296
0.000413978
0.000460679
0.000483337
0.000493269
0.00050466
0.000531077
0.000587417
0.000695119
0.000871088
0.00112861
0.00147166
0.00190131
0.0024194
0.00303237
0.00374568
0.00456906
0.00550951
0.00660974
0.00792031
0.00946265
0.0112235
0.0132332
0.0152879
0.0172566
0.0190343
0.0205262
0.0216552
0.0225207
0.0231077
0.0235101
0.0237664
0.0239352
0.0240564
0.0241638
0.0242795
0.0244244
0.024621
0.0248733
0.0251758
0.0255093
0.0259002
0.0263865
0.0269498
0.0275961
0.0283108
0.0290615
0.0298467
0.0306207
0.0313656
0.0320303
0.0325721
0.032853
0.0329358
0.0327879
0.0323504
0.0314918
0.0302684
0.0286335
0.0266029
0.0242493
0.0216615
0.0189484
0.0162241
0.0136006
0.0111658
0.00901488
0.00719233
0.00562742
0.00428372
0.00314351
0.0022025
0.00144222
0.000879121
0.000493295
0.000256232
0.000251694
0.000306904
0.000257933
0.000345992
0.000434716
0.000487648
0.000513992
0.000528042
0.000544242
0.000577941
0.000647723
0.000778602
0.00100004
0.00134047
0.00182048
0.002453
0.00325006
0.00422389
0.00538827
0.00675213
0.0083211
0.0101004
0.0120492
0.0140765
0.0160222
0.0176993
0.0188679
0.0195704
0.0199524
0.020143
0.020286
0.0203545
0.0202588
0.0199507
0.0196621
0.0193616
0.0191036
0.0188972
0.0187827
0.0187396
0.0187452
0.018877
0.0190787
0.0193915
0.0198244
0.0203683
0.0209972
0.0217095
0.0224987
0.0233598
0.0242764
0.0252383
0.0262204
0.0271996
0.028139
0.0289985
0.0297288
0.0302359
0.0304475
0.030454
0.0300552
0.0292039
0.0278957
0.026122
0.0239797
0.0215607
0.018966
0.0163213
0.0137413
0.0113302
0.00916958
0.00730589
0.00573788
0.00443983
0.00337308
0.00249913
0.00179598
0.00122004
0.000762857
0.000472348
0.000674311
0.000532248
0.000444303
0.000544517
0.000629561
0.00067288
0.000694653
0.000716219
0.000759204
0.000847255
0.00101316
0.00129804
0.00174593
0.00239322
0.00326175
0.00436079
0.00569359
0.00725736
0.00902794
0.0109463
0.0129135
0.0147913
0.0164329
0.0176851
0.0183422
0.0186141
0.018677
0.0186053
0.0182441
0.0176847
0.0170874
0.016439
0.0159362
0.0155505
0.0152241
0.0149821
0.0148417
0.0147836
0.0147769
0.0148841
0.0150653
0.0153405
0.0156945
0.0161381
0.0166655
0.0172766
0.0179692
0.0187449
0.0196019
0.0205383
0.0215477
0.0226226
0.0237478
0.0249033
0.0260594
0.0271778
0.0282074
0.0290891
0.0297142
0.0299904
0.030016
0.0295481
0.0286638
0.0273207
0.0253608
0.0230084
0.0203578
0.0175585
0.0147626
0.0121134
0.00972519
0.00766912
0.00596634
0.0045961
0.00351143
0.00265727
0.00198424
0.00143975
0.000994883
0.000710465
0.00112598
0.000853264
0.000702478
0.000801793
0.000884078
0.000929734
0.000964932
0.00101843
0.00112266
0.00131755
0.00165384
0.00218857
0.00297194
0.00403273
0.0053733
0.00697378
0.00879269
0.0107577
0.0127518
0.0146095
0.0161622
0.0171838
0.0176345
0.0177588
0.0176965
0.0172613
0.0165161
0.0156501
0.0148473
0.0141977
0.0135966
0.0131016
0.0127186
0.0124213
0.0122017
0.0120716
0.0120138
0.012
0.012056
0.0121862
0.012372
0.0126231
0.0129342
0.0133107
0.0137528
0.0142652
0.014851
0.0155152
0.0162624
0.0170971
0.018022
0.0190379
0.0201414
0.0213242
0.0225715
0.0238604
0.025149
0.0263849
0.0275022
0.0284214
0.0289427
0.0291142
0.028825
0.0279987
0.0266833
0.0246309
0.0220777
0.0191979
0.0161802
0.0132201
0.0104957
0.00813614
0.0062021
0.00468553
0.00353005
0.00265596
0.00199531
0.00148787
0.00109421
0.000869249
0.00144086
0.00131164
0.00104091
0.00112289
0.00120705
0.00127024
0.00134121
0.00145861
0.00167022
0.0020349
0.00261989
0.00348732
0.0046739
0.006176
0.00794776
0.00990489
0.011924
0.0138423
0.0154739
0.0165541
0.0170152
0.0171199
0.0169607
0.016396
0.0154125
0.0144118
0.0135265
0.0127218
0.0120453
0.0114798
0.0109994
0.0106155
0.0103085
0.010068
0.00988655
0.00975906
0.0096842
0.00965178
0.00964632
0.00969396
0.00977714
0.00990176
0.0100682
0.0102782
0.0105364
0.0108477
0.0112192
0.0116593
0.0121783
0.0127875
0.0134995
0.014326
0.0152784
0.0163643
0.0175848
0.0189339
0.0203959
0.0219331
0.0234982
0.0250171
0.0263848
0.0274484
0.0279526
0.0280531
0.0274762
0.0263094
0.0241599
0.0214064
0.0182563
0.0149605
0.0117871
0.00896698
0.00664414
0.00485547
0.00354782
0.00261082
0.00194378
0.00145538
0.00109375
0.000934352
0.0015601
0.00194796
0.00146602
0.00152015
0.00161702
0.00171667
0.00185024
0.00206964
0.00244023
0.00303664
0.00393019
0.00516622
0.00674117
0.00859197
0.0105992
0.0125966
0.014384
0.0157389
0.016393
0.0165789
0.0164999
0.01594
0.0148843
0.0137641
0.0127473
0.0118308
0.0110502
0.0103756
0.00981113
0.00933166
0.00892726
0.00858991
0.00830555
0.00806771
0.00786973
0.0077073
0.00757658
0.00747379
0.0073983
0.00735777
0.00734107
0.00733961
0.00737674
0.00743995
0.00753964
0.00767487
0.00785406
0.00808314
0.00837203
0.00873162
0.00918012
0.00973649
0.0104236
0.011266
0.0122831
0.0135014
0.014939
0.01659
0.0184208
0.0203818
0.0223998
0.0243553
0.0260799
0.0272084
0.0276494
0.0275658
0.0265004
0.024246
0.0212113
0.0176723
0.0139874
0.0105292
0.00759069
0.0053164
0.00369489
0.00260482
0.00186834
0.00137927
0.00105725
0.000927589
0.00151699
0.00279983
0.00198277
0.00200758
0.00213178
0.0022903
0.00251596
0.00287608
0.00345061
0.00431821
0.00553315
0.00709809
0.00894562
0.0109373
0.0128791
0.0145488
0.0156225
0.0160512
0.0161169
0.0157345
0.014794
0.0135715
0.0124316
0.0113824
0.010479
0.00969686
0.0090317
0.00845834
0.00796798
0.00754284
0.00717559
0.0068568
0.006579
0.00633765
0.0061286
0.00594919
0.00579706
0.00566961
0.00556574
0.00548496
0.00542476
0.00539254
0.00538039
0.00538124
0.0054194
0.00547898
0.00557066
0.00569524
0.00585976
0.00607069
0.00633523
0.00666546
0.00707759
0.00759593
0.00825922
0.0091064
0.0101911
0.0115692
0.0132659
0.0152804
0.0175887
0.0200798
0.0226467
0.0250643
0.0270056
0.0279474
0.0282073
0.0273203
0.0248942
0.0214471
0.017376
0.0131937
0.00940331
0.00635566
0.00416445
0.00273956
0.00186343
0.00131275
0.000992396
0.000893032
0.00141216
0.00389346
0.00259484
0.00259509
0.00276838
0.0030064
0.00335103
0.00388163
0.00468305
0.00581963
0.0073053
0.00907958
0.0110008
0.0128615
0.0144214
0.0153021
0.0155954
0.0155857
0.0149518
0.0137879
0.0125182
0.0113304
0.0102873
0.00937661
0.00860097
0.00793166
0.00735552
0.00685427
0.0064189
0.00603849
0.00570752
0.00541944
0.00517008
0.00495586
0.00477347
0.00461992
0.00449278
0.0043902
0.00431033
0.0042516
0.00421495
0.0041983
0.00419394
0.00420906
0.00424678
0.00430213
0.0043796
0.0044791
0.00460402
0.00475715
0.004943
0.00516773
0.0054396
0.00576986
0.00617383
0.00667528
0.00730965
0.00813396
0.00924943
0.0107775
0.0127873
0.0152613
0.0181607
0.0212967
0.0244491
0.0272043
0.0287715
0.0293426
0.0286463
0.0259425
0.021932
0.0171929
0.0124411
0.00832511
0.00522648
0.00318258
0.00198011
0.00131052
0.000941082
0.000835839
0.00129159
0.00523891
0.0033103
0.00329573
0.00353252
0.00386853
0.00435012
0.00506174
0.00607887
0.0074319
0.00907683
0.0108828
0.0126439
0.0141136
0.0149064
0.0151579
0.015015
0.0142212
0.0129514
0.0116647
0.0104521
0.0093956
0.00848762
0.00770706
0.00703867
0.00645972
0.00595893
0.00552443
0.00514958
0.00482725
0.00455274
0.00432077
0.00412725
0.00396799
0.00383922
0.00373747
0.00365953
0.00360273
0.00356528
0.00354716
0.00354111
0.00354604
0.003569
0.00360415
0.0036539
0.00371681
0.00379458
0.00388775
0.00399815
0.00412761
0.00427889
0.00445546
0.00466203
0.00490506
0.00519351
0.00553663
0.00595209
0.00646686
0.00712376
0.00799288
0.00919718
0.0109789
0.0134536
0.0165942
0.0202684
0.0241547
0.0277707
0.030009
0.03087
0.0303062
0.0271772
0.0224357
0.0169164
0.0115831
0.00722072
0.00417983
0.00235816
0.0013979
0.000935628
0.00078576
0.00119207
0.00686004
0.00414541
0.00411435
0.00442264
0.00486622
0.00548707
0.00636406
0.00754785
0.00902013
0.0106731
0.0123157
0.0137064
0.0144622
0.0147023
0.0144917
0.0136005
0.0123131
0.0109815
0.00975947
0.00868471
0.00777043
0.0069883
0.00631817
0.00574338
0.0052491
0.00482704
0.00446888
0.00416854
0.00391946
0.00371593
0.00355198
0.00342234
0.00332189
0.00324619
0.00319138
0.00315424
0.00313507
0.00312752
0.003127
0.00314156
0.00316503
0.00320008
0.00324479
0.0033007
0.00336778
0.00344738
0.00354045
0.00364843
0.0037728
0.00391531
0.0040779
0.00426284
0.00447288
0.00471174
0.00498485
0.00530057
0.0056725
0.00612314
0.00668336
0.007412
0.00841348
0.00987009
0.0121548
0.0154095
0.0195255
0.0241425
0.0286816
0.0315758
0.0326809
0.0321127
0.0283539
0.0227018
0.0163339
0.0104966
0.00605189
0.00321063
0.0016864
0.000991523
0.000769839
0.0011558
0.0088326
0.00512579
0.00504683
0.00542502
0.00597364
0.00671702
0.00771656
0.00898613
0.0104532
0.0119544
0.0132627
0.0140047
0.0142458
0.014014
0.0130937
0.0118284
0.010472
0.0092215
0.00813265
0.00720331
0.00641719
0.00574714
0.00517759
0.00469519
0.00428982
0.00395371
0.00367867
0.00345719
0.00328147
0.00314438
0.00303917
0.00296002
0.0029019
0.00286077
0.00283344
0.00281981
0.00281455
0.00281413
0.0028251
0.00284381
0.0028706
0.00290611
0.00295062
0.00300524
0.00307083
0.0031487
0.00324018
0.00334678
0.00347011
0.00361191
0.00377392
0.00395788
0.00416546
0.00439824
0.00465791
0.00494673
0.00526869
0.00563176
0.00605214
0.00656043
0.00720976
0.00808639
0.00936694
0.011375
0.0146179
0.0190872
0.024434
0.0299316
0.0334002
0.0346618
0.0338481
0.0291909
0.0224461
0.0152469
0.00911298
0.00482148
0.00234459
0.00118557
0.000801789
0.00119533
0.0110226
0.00621104
0.00607175
0.00651386
0.0071525
0.00798328
0.00904063
0.0102964
0.0116293
0.0128392
0.0135717
0.0138163
0.0136026
0.0127194
0.011478
0.0101168
0.00883246
0.00771703
0.00677078
0.00597361
0.00530284
0.00473811
0.00426732
0.00387904
0.00356371
0.00331186
0.00311377
0.0029603
0.00284282
0.00275388
0.00268711
0.00263744
0.00260092
0.00257473
0.00255691
0.0025475
0.00254362
0.00254322
0.00255207
0.00256698
0.00258945
0.00261994
0.0026594
0.0027089
0.00276957
0.00284279
0.00293002
0.00303293
0.00315335
0.00329325
0.0034547
0.00363978
0.00385045
0.00408836
0.00435466
0.00464988
0.00497401
0.00532732
0.00571228
0.00613797
0.00662797
0.00723363
0.00804136
0.00921025
0.011059
0.0142195
0.0190064
0.0250878
0.0315554
0.0354051
0.0366643
0.0352562
0.0293491
0.0213664
0.0135343
0.00743961
0.00358529
0.00163969
0.00092934
0.00136562
0.0133671
0.00737624
0.00716266
0.00765503
0.00835705
0.00922573
0.0102637
0.0114036
0.0124891
0.0131994
0.0134426
0.0132786
0.0124675
0.0112622
0.00990036
0.00858444
0.00742948
0.00645688
0.00564354
0.00496586
0.00440335
0.00394054
0.00356577
0.003267
0.00303293
0.00285215
0.00271393
0.0026088
0.00252865
0.00246707
0.00241909
0.00238116
0.00235082
0.00232659
0.0023077
0.00229383
0.00228585
0.00228277
0.00228366
0.00229297
0.0023092
0.00233354
0.00236688
0.00241021
0.00246471
0.00253169
0.00261264
0.00270929
0.0028236
0.00295778
0.00311429
0.00329576
0.00350488
0.00374419
0.00401579
0.00432093
0.00465961
0.00503032
0.00543035
0.00585743
0.00631382
0.00681517
0.0074068
0.00818498
0.00930156
0.011093
0.0142261
0.0193453
0.0262067
0.0336108
0.0374714
0.0385433
0.0360058
0.0284057
0.0192653
0.0111952
0.00557974
0.00250234
0.0012418
0.00177919
0.0157898
0.00859149
0.00828778
0.00880931
0.00953878
0.0103875
0.011326
0.012256
0.0129152
0.0131487
0.0130477
0.0123243
0.0111757
0.00981924
0.00847017
0.00726654
0.00625311
0.00541456
0.0047226
0.0041555
0.00369545
0.00332814
0.00304012
0.00281768
0.00264792
0.00251881
0.00242009
0.00234338
0.00228224
0.00223202
0.00218955
0.00215283
0.00212078
0.00209296
0.00206934
0.00205017
0.00203587
0.00202813
0.0020253
0.00202752
0.00203887
0.00205777
0.00208557
0.00212305
0.00217127
0.00223142
0.00230494
0.0023935
0.00249909
0.00262405
0.00277108
0.00294325
0.00314393
0.00337667
0.00364491
0.00395158
0.00429845
0.00468545
0.00510997
0.00556676
0.00604916
0.00655329
0.00708754
0.00769145
0.00846559
0.00957497
0.0113777
0.0146241
0.0202138
0.0280151
0.0359323
0.0395251
0.040146
0.0355556
0.0260571
0.0161171
0.00842713
0.00384448
0.00181178
0.00244736
0.0182208
0.00982501
0.00941265
0.00993606
0.0106513
0.0114197
0.0121812
0.0127585
0.0129768
0.0129042
0.0122876
0.0112098
0.0098719
0.00848919
0.00722708
0.00615744
0.00527917
0.00456307
0.00398253
0.00351759
0.00315096
0.002867
0.00265023
0.0024859
0.00236098
0.00226444
0.00218767
0.00212432
0.00206998
0.00202185
0.00197831
0.00193863
0.0019026
0.0018704
0.00184237
0.00181897
0.00180067
0.00178864
0.00178311
0.00178183
0.00178869
0.0018037
0.0018269
0.00185927
0.00190161
0.00195501
0.00202076
0.00210042
0.00219592
0.00230953
0.00244404
0.00260269
0.0027893
0.00300814
0.00326382
0.00356097
0.00390368
0.00429463
0.00473403
0.00521839
0.00573989
0.0062873
0.00685036
0.00743055
0.00806429
0.00886002
0.00999977
0.0118849
0.0153887
0.0216405
0.0306256
0.0385976
0.0415571
0.0411473
0.0334025
0.0221734
0.0122078
0.00571691
0.0026374
0.00331098
0.02061
0.0110445
0.010503
0.0109965
0.0116543
0.0122854
0.012773
0.0129691
0.0128708
0.0123649
0.0113602
0.0100551
0.00864469
0.00731526
0.00617242
0.00523625
0.00448171
0.00387705
0.00339781
0.00302408
0.00273743
0.00252049
0.00235688
0.00223228
0.00213501
0.0020561
0.00198921
0.00193012
0.0018763
0.00182643
0.00177999
0.00173699
0.00169769
0.00166249
0.00163183
0.00160614
0.0015858
0.00157123
0.00156396
0.00156148
0.00156484
0.00157711
0.00159663
0.00162464
0.00166172
0.00170882
0.0017671
0.00183795
0.00192313
0.00202479
0.00214558
0.00228873
0.00245812
0.00265838
0.00289481
0.00317329
0.00349991
0.00388024
0.00431822
0.00481459
0.00536508
0.00595908
0.00658016
0.00721087
0.00784557
0.00852036
0.00936022
0.0105678
0.0126296
0.016597
0.023704
0.0340505
0.0415674
0.043625
0.0404102
0.0292325
0.0170439
0.00819386
0.00374359
0.00431616
0.0229065
0.0122182
0.0115253
0.0119567
0.0125175
0.0129354
0.0130974
0.0129798
0.0125546
0.0116295
0.0103665
0.00893974
0.00753966
0.00630625
0.00529051
0.00447866
0.00383593
0.00333156
0.00294171
0.00264528
0.00242248
0.00225526
0.0021279
0.00202779
0.00194552
0.00187454
0.00181072
0.00175166
0.00169623
0.0016441
0.00159536
0.00155033
0.00150943
0.00147305
0.00144154
0.00141518
0.00139425
0.00137893
0.00137078
0.00136772
0.00136887
0.00137901
0.0013956
0.00141991
0.00145237
0.00149383
0.00154527
0.00160794
0.0016834
0.00177359
0.00188094
0.00200846
0.00215989
0.0023398
0.00255371
0.00280811
0.00311035
0.00346824
0.00388915
0.00437858
0.00493794
0.00556199
0.00623663
0.00693918
0.00764391
0.00833842
0.00906351
0.0099666
0.0112906
0.0136772
0.0184311
0.0267494
0.0383587
0.0441314
0.044906
0.0368452
0.0230614
0.0114327
0.00517921
0.00541497
0.0250231
0.013316
0.0124526
0.012793
0.0132049
0.0133741
0.0132809
0.012848
0.0120172
0.0108075
0.00937656
0.00791035
0.00657272
0.00545313
0.00456014
0.00386095
0.00331811
0.00290182
0.00258757
0.002353
0.00217789
0.00204494
0.00194031
0.00185382
0.00177857
0.00171027
0.00164656
0.0015864
0.00152951
0.00147607
0.00142644
0.00138099
0.00134007
0.00130397
0.00127289
0.001247
0.00122641
0.00121123
0.00120271
0.00119934
0.00119924
0.00120756
0.00122176
0.0012429
0.00127135
0.00130784
0.00135322
0.00140859
0.00147531
0.00155509
0.00165011
0.00176308
0.00189741
0.0020574
0.00224836
0.00247685
0.00275073
0.00307905
0.00347166
0.0039381
0.00448566
0.00511641
0.0058235
0.00658793
0.00737866
0.00816042
0.00891682
0.00970263
0.0106834
0.012202
0.0151743
0.02119
0.0314473
0.0425816
0.046546
0.0439553
0.0302214
0.0156165
0.00699794
0.00657378
0.0268848
0.0143099
0.0132624
0.0134836
0.0136956
0.0136648
0.0132639
0.0125308
0.0113771
0.00995826
0.00843622
0.00698892
0.00574217
0.00473932
0.00395957
0.0033609
0.00290566
0.00256419
0.002311
0.00212333
0.00198178
0.00187093
0.00177947
0.00169982
0.00162733
0.00155951
0.00149529
0.00143442
0.00137709
0.00132366
0.00127449
0.00122989
0.00119007
0.00115518
0.0011253
0.00110047
0.0010807
0.00106603
0.00105731
0.00105361
0.00105311
0.00105968
0.0010719
0.00109029
0.00111526
0.00114742
0.00118751
0.0012365
0.00129556
0.00136621
0.00145033
0.00155034
0.00166927
0.00181099
0.00198041
0.00218374
0.00242872
0.0027248
0.0030831
0.00351586
0.00403518
0.00465039
0.00536393
0.00616615
0.00703065
0.00791461
0.00877107
0.00958405
0.0104383
0.0115231
0.0133581
0.0171938
0.0249356
0.0377287
0.0466267
0.0481742
0.0381202
0.0209211
0.00924505
0.00778213
0.0284505
0.0151789
0.0139351
0.0140044
0.0140591
0.0137969
0.0131388
0.0120732
0.0106838
0.00912452
0.00757158
0.00618105
0.00503732
0.00414618
0.00346836
0.00295796
0.00257768
0.00229752
0.00209158
0.00193781
0.00181869
0.00172131
0.001637
0.0015605
0.00148898
0.00142121
0.00135693
0.00129628
0.00123963
0.0011873
0.00113957
0.00109662
0.00105853
0.00102532
0.000996955
0.000973397
0.000954597
0.000940525
0.000931744
0.00092783
0.000927051
0.000932112
0.000942604
0.00095861
0.000980552
0.00100895
0.00104446
0.00108792
0.00114037
0.00120311
0.00127781
0.00136656
0.00147203
0.00159764
0.00174779
0.00192815
0.00214594
0.00241035
0.00273275
0.00312673
0.00360747
0.00419004
0.00488588
0.00569716
0.0066094
0.00758503
0.00856474
0.00948863
0.0103506
0.0112744
0.0125273
0.0149207
0.0202813
0.0305993
0.0442844
0.049666
0.0457629
0.0274531
0.0119901
0.00903526
0.0296972
0.0159208
0.0144625
0.0143777
0.0142713
0.0137739
0.0128659
0.0115449
0.00997617
0.00833442
0.00679456
0.00548262
0.00444377
0.00365555
0.00306788
0.00263364
0.00231579
0.00208418
0.00191345
0.00178325
0.00167852
0.00158902
0.00150848
0.00143349
0.00136254
0.00129522
0.00123164
0.00117213
0.001117
0.00106651
0.0010208
0.000979895
0.000943782
0.000912381
0.000885595
0.000863322
0.000845476
0.000831997
0.000823205
0.000819118
0.000818094
0.000821865
0.000830826
0.000844754
0.000864057
0.000889188
0.000920731
0.000959416
0.00100616
0.00106211
0.00112871
0.0012078
0.0013017
0.0014134
0.00154679
0.0017069
0.00190028
0.00213546
0.0024234
0.00277787
0.00321548
0.00375498
0.00441481
0.00520835
0.00613592
0.00717457
0.00826966
0.0093397
0.0103142
0.0112169
0.0122137
0.0137858
0.0172207
0.0249045
0.0389213
0.0497075
0.0510995
0.0352177
0.0153971
0.0103983
0.030622
0.0165338
0.0148471
0.0146119
0.0143386
0.0136613
0.0124969
0.0109777
0.00928223
0.00760443
0.00610757
0.00488453
0.00394642
0.00325075
0.00274162
0.00237183
0.00210465
0.00191039
0.00176511
0.00165082
0.0015551
0.00147018
0.00139175
0.0013178
0.00124768
0.0011814
0.00111925
0.00106153
0.00100847
0.000960202
0.000916728
0.00087799
0.000843876
0.000814248
0.000788963
0.000767892
0.000750925
0.000737986
0.000729195
0.000724949
0.000723702
0.000726366
0.000733967
0.000746081
0.00076308
0.000785369
0.000813466
0.000848021
0.000889847
0.000939955
0.000999617
0.00107043
0.00115444
0.00125426
0.00137326
0.00151589
0.00168797
0.00189719
0.0021537
0.0024707
0.002865
0.00335709
0.00396999
0.00472594
0.00563939
0.00670579
0.00788752
0.00910416
0.0102458
0.0112386
0.0121458
0.0133072
0.0154969
0.0208241
0.0320907
0.0477662
0.0534521
0.0439002
0.01979
0.0121322
0.0312393
0.017017
0.0151012
0.0147164
0.0142951
0.0134266
0.0120703
0.0103982
0.00862111
0.00694243
0.00550718
0.00437558
0.00353087
0.00291702
0.00247533
0.00215904
0.00193206
0.00176585
0.00163859
0.00153487
0.00144479
0.00136268
0.00128575
0.00121293
0.00114407
0.00107938
0.00101916
0.000963623
0.000912892
0.000866962
0.000825752
0.000789121
0.000756902
0.000728921
0.000705011
0.000685026
0.000668848
0.000656394
0.000647619
0.000643221
0.000641768
0.000643489
0.000649885
0.000660413
0.000675399
0.000695207
0.000720304
0.000751271
0.000788835
0.000833898
0.000887587
0.000951314
0.00102687
0.00111654
0.00122329
0.00135099
0.00150476
0.00169144
0.00192017
0.00220319
0.00255663
0.00300122
0.00356233
0.00426823
0.00514504
0.00620646
0.00743749
0.00877534
0.0101011
0.0112703
0.0122485
0.0131808
0.0146817
0.0181547
0.0266446
0.0430569
0.0540197
0.0521496
0.0254821
0.0144777
0.0315536
0.017377
0.0152364
0.0147025
0.0141629
0.0131166
0.011609
0.0098261
0.00800467
0.00635041
0.00498682
0.00394423
0.00318409
0.0026416
0.00225702
0.00198439
0.00178873
0.00164326
0.00152861
0.0014319
0.00134549
0.00126537
0.00118983
0.0011184
0.0010512
0.000988488
0.000930481
0.000877299
0.000828941
0.000785316
0.000746266
0.000711603
0.000681126
0.000654639
0.000631965
0.00061295
0.00059747
0.000585437
0.000576795
0.000572205
0.000570561
0.00057149
0.000576824
0.000585966
0.000599191
0.000616829
0.0006393
0.000667133
0.000700983
0.000741661
0.000790177
0.000847791
0.000916088
0.000997087
0.00109338
0.00120837
0.00134654
0.0015139
0.00171859
0.00197166
0.00228809
0.00268786
0.00319686
0.00384661
0.00467144
0.00570058
0.00694277
0.00836351
0.00986165
0.0112709
0.0124219
0.0132784
0.0143881
0.0166575
0.0227786
0.0364653
0.053541
0.0575597
0.0329816
0.0174379
0.0315397
0.0176102
0.0152638
0.01462
0.0139295
0.0127546
0.0111325
0.0092755
0.00743933
0.00582655
0.0045385
0.00357956
0.00289469
0.0024137
0.00207687
0.00183939
0.00166781
0.00153753
0.00143168
0.00133975
0.00125592
0.00117747
0.00110343
0.00103368
0.000968417
0.000907877
0.000852188
0.00080136
0.000755302
0.000713852
0.000676804
0.00064394
0.000615039
0.000589898
0.000568334
0.000550192
0.000535348
0.000523713
0.000515231
0.000510461
0.000508647
0.000508935
0.000513335
0.000521267
0.00053295
0.000548683
0.00056885
0.000593929
0.00062452
0.000661359
0.000705362
0.000757664
0.000819688
0.000893228
0.000980583
0.00108474
0.00120963
0.00136054
0.00154465
0.0017718
0.00205558
0.00241468
0.00287426
0.00346699
0.0042322
0.00521077
0.00643221
0.007891
0.00951433
0.0111401
0.0125494
0.0135771
0.0143513
0.0159561
0.0200476
0.0307289
0.0506234
0.0599463
0.0426537
0.0208933
0.0313788
0.0177581
0.0152251
0.0144414
0.0136343
0.0123583
0.0106553
0.00875576
0.00692751
0.00536679
0.00415392
0.00327166
0.00265292
0.00222439
0.00192706
0.00171756
0.00156434
0.00144516
0.00134554
0.00125701
0.00117522
0.00109838
0.00102597
0.000958079
0.000894907
0.000836605
0.000783209
0.000734641
0.000690741
0.000651298
0.000616077
0.00058484
0.000557362
0.000533434
0.000512875
0.000495531
0.000481279
0.000470029
0.000461726
0.000456792
0.000454776
0.000454643
0.000458207
0.000465085
0.000475418
0.000489477
0.000507611
0.000530261
0.000557975
0.00059143
0.000631465
0.000679114
0.000735668
0.000802743
0.000882396
0.000977276
0.00109086
0.00122778
0.00139436
0.00159931
0.0018548
0.00217786
0.00259221
0.00313003
0.00383288
0.00474957
0.00592694
0.00738876
0.00909975
0.0109214
0.0125971
0.0139048
0.0146851
0.0157299
0.018458
0.0266806
0.0451451
0.0605052
0.0530471
0.0245097
0.0310173
0.0178422
0.0151201
0.0141952
0.0132929
0.0119425
0.0101886
0.00827258
0.00646897
0.00496593
0.00382506
0.00301183
0.00245055
0.00206638
0.00180143
0.00161406
0.00147481
0.00136378
0.00126867
0.00118271
0.0011027
0.00102747
0.000956821
0.000890885
0.000829831
0.000773726
0.00072252
0.000676066
0.000634154
0.00059654
0.000562974
0.000533208
0.000507015
0.000484188
0.000464549
0.000447944
0.000434253
0.000423383
0.000415279
0.000410196
0.000407958
0.000407597
0.000410417
0.000416374
0.000425526
0.000438111
0.00045445
0.000474948
0.000500111
0.000530566
0.000567086
0.000610627
0.000662371
0.000723795
0.000796757
0.000883638
0.00098753
0.00111254
0.00126422
0.00145028
0.0016815
0.00197325
0.00234733
0.00283444
0.00347627
0.0043259
0.00544261
0.00687523
0.00862792
0.0106084
0.0125821
0.0141831
0.0150968
0.0157534
0.0176712
0.023496
0.0393774
0.0596779
0.0618774
0.027471
0.0304506
0.01784
0.0149427
0.0139015
0.0129203
0.0115192
0.00974014
0.00782887
0.00606172
0.00461833
0.0035446
0.0027926
0.00228078
0.00193382
0.00169524
0.00152529
0.00139667
0.00129171
0.00119999
0.00111611
0.00103775
0.000964163
0.000895312
0.000831344
0.000772359
0.000718346
0.000669185
0.000624676
0.000584575
0.00054862
0.000516549
0.000488114
0.000463089
0.000441269
0.000422477
0.000406562
0.000393403
0.000382905
0.000375002
0.000369819
0.000367413
0.000366879
0.000369077
0.000374234
0.000382353
0.000393642
0.000408392
0.00042698
0.000449873
0.000477656
0.000511047
0.000550936
0.000598418
0.000654856
0.000721956
0.000801879
0.000897411
0.00101222
0.00115122
0.00132122
0.00153177
0.00179657
0.00213541
0.00257687
0.00316133
0.00394338
0.00499027
0.00637038
0.00812314
0.0102043
0.0124187
0.0143949
0.0156208
0.0162277
0.0173865
0.021361
0.0337846
0.0575348
0.0664295
0.0288511
0.0297089
0.0178059
0.0147272
0.0135747
0.012529
0.011098
0.00931541
0.00742555
0.00570274
0.00431843
0.00330598
0.00260763
0.00213801
0.00182206
0.00160485
0.00144859
0.00132811
0.00122773
0.00113865
0.00105657
0.000979782
0.000907839
0.000840781
0.000778726
0.000721708
0.000669647
0.000622367
0.000579631
0.000541172
0.000506716
0.000475998
0.000448772
0.000424811
0.000403915
0.000385909
0.000370641
0.000357988
0.000347851
0.000340157
0.000334929
0.000332396
0.000331725
0.000333413
0.000337878
0.000345096
0.000355244
0.00036859
0.000385481
0.000406352
0.000431748
0.000462342
0.000498967
0.000542647
0.000594655
0.000656572
0.000730389
0.000818647
0.000924654
0.00105282
0.00120916
0.00140215
0.00164395
0.00195235
0.00235353
0.00288567
0.00360282
0.00457661
0.00589015
0.00761425
0.00975467
0.0121686
0.014488
0.0160711
0.0167543
0.0173707
0.0201947
0.0299292
0.053291
0.0680855
0.0290962
0.0288345
0.0177254
0.014484
0.0132271
0.0121297
0.0106861
0.00891771
0.00706208
0.00538849
0.00406094
0.0031035
0.00245162
0.00201771
0.00172742
0.00152747
0.00138198
0.00126777
0.00117093
0.001084
0.00100352
0.000928243
0.00085791
0.000792587
0.000732348
0.000677164
0.000626899
0.000581334
0.000540204
0.000503229
0.000470128
0.000440637
0.000414509
0.000391522
0.000371477
0.000354199
0.000339538
0.000327365
0.000317579
0.000310101
0.000304877
0.000302251
0.000301467
0.000302742
0.000306613
0.000313044
0.000322191
0.000334297
0.000349681
0.00036875
0.000392013
0.000420102
0.000453801
0.000494075
0.00054212
0.00059942
0.000667831
0.000749703
0.000848061
0.000966887
0.00111157
0.00128964
0.0015119
0.00179422
0.00216033
0.00264565
0.0033022
0.00420284
0.00544012
0.0071099
0.00926532
0.0118324
0.014507
0.0165586
0.017446
0.0178688
0.0196425
0.0271208
0.048246
0.0681566
0.0285135
0.0278617
0.0176134
0.0142238
0.0128694
0.0117309
0.0102889
0.00854884
0.00673704
0.00511524
0.00384102
0.00293224
0.00232016
0.00191621
0.00164702
0.00146095
0.00132395
0.00121461
0.00112058
0.00103544
0.000956429
0.0008826
0.000813813
0.000750134
0.000691587
0.000638091
0.000589462
0.000545449
0.000505769
0.000470133
0.000438257
0.000409877
0.000384749
0.000362653
0.000343392
0.000326789
0.000312694
0.000300975
0.000291524
0.000284255
0.000279107
0.000276396
0.000275519
0.000276462
0.000279824
0.000285571
0.00029384
0.000304851
0.000318899
0.000336364
0.000357722
0.000383568
0.00041464
0.000451853
0.000496339
0.000549502
0.000613092
0.000689308
0.000780954
0.00089168
0.00102636
0.00119173
0.0013974
0.00165753
0.00199344
0.00243762
0.00303917
0.00387001
0.00502805
0.00662785
0.0087621
0.0114187
0.0143678
0.0169508
0.0180969
0.0184586
0.0194639
0.0249846
0.043654
0.0658404
0.0274986
0.0268247
0.0174863
0.0139562
0.0125102
0.0113395
0.00991035
0.00820942
0.00644835
0.00487928
0.00365441
0.00278804
0.00220962
0.00183055
0.00157859
0.00140365
0.00127334
0.00116784
0.00107607
0.000992487
0.000914816
0.000842356
0.000775027
0.000712878
0.000655888
0.000603927
0.000556777
0.000514162
0.000475788
0.000441357
0.000410587
0.000383214
0.000358996
0.000337713
0.00031917
0.000303191
0.000289621
0.000278326
0.000269195
0.000262138
0.00025709
0.000254315
0.000253358
0.000254036
0.000256963
0.000262117
0.000269617
0.000279664
0.000292531
0.000308571
0.00032823
0.000352069
0.000380785
0.000415246
0.000456528
0.000505969
0.000565232
0.0006364
0.000722108
0.000825745
0.000951777
0.00110629
0.00129788
0.00153918
0.00184927
0.00225765
0.00280998
0.00357564
0.00465452
0.00617493
0.00826463
0.0109704
0.0141195
0.0172033
0.0188328
0.0192547
0.0195971
0.0235317
0.0395578
0.0626311
0.026305
0.025721
0.0173608
0.0136917
0.0121572
0.0109608
0.00955295
0.00789928
0.00619378
0.00467708
0.00349726
0.00266745
0.00211707
0.00175837
0.00152034
0.00135427
0.00122924
0.0011268
0.00103688
0.000954663
0.000878232
0.000807052
0.000741077
0.000680332
0.000624756
0.000574182
0.00052836
0.000487
0.000449797
0.000416449
0.000386675
0.000360211
0.000336817
0.000316275
0.000298387
0.000282979
0.000269892
0.000258992
0.000250162
0.000243312
0.000238373
0.000235551
0.000234524
0.00023499
0.000237547
0.000242186
0.000249015
0.000258215
0.000270041
0.000284818
0.000302967
0.000325014
0.00035162
0.000383609
0.000422007
0.000468092
0.000523457
0.000590093
0.000670504
0.000767881
0.000886376
0.00103155
0.00121117
0.00143652
0.00172468
0.00210226
0.00261125
0.00331741
0.00431978
0.00575507
0.00777981
0.0105013
0.0138329
0.0173053
0.0195389
0.0201179
0.0202038
0.0227052
0.0359771
0.0587492
0.0250602
0.0246289
0.0172417
0.013437
0.0118165
0.010599
0.00921842