/*--------------------------------*- C++ -*----------------------------------*\
  =========                 |
  \\      /  F ield         | OpenFOAM: The Open Source CFD Toolbox
   \\    /   O peration     | Website:  https://openfoam.org
    \\  /    A nd           | Version:  13
     \\/     M anipulation  |
\*---------------------------------------------------------------------------*/
FoamFile
{
    format      ascii;
    class       volScalarField;
    location    "9.7";
    object      k;
}
// * * * * * * * * * * * * * * * * * * * * * * * * * * * * * * * * * * * * * //

dimensions      [0 2 -2 0 0 0 0];

internalField   nonuniform List<scalar> 
6400
(
5.68888e-07
2.921e-06
7.10338e-06
1.14356e-05
1.46864e-05
1.64945e-05
1.71302e-05
1.71641e-05
1.72427e-05
1.78422e-05
1.93406e-05
2.23313e-05
2.70806e-05
3.36934e-05
4.18191e-05
5.10024e-05
6.07655e-05
7.09149e-05
8.09598e-05
9.06654e-05
0.000100447
0.000111148
0.000123891
0.000139276
0.000156578
0.000173914
0.000191169
0.000208302
0.000225882
0.000244356
0.000263456
0.000282557
0.000301356
0.000319931
0.000338723
0.000357854
0.000377697
0.000398375
0.00042013
0.000443021
0.000467215
0.000492894
0.000520208
0.000549432
0.000580869
0.000615609
0.000655784
0.000705892
0.00075507
0.000805554
0.000854685
0.000902377
0.000946964
0.000987275
0.00102179
0.00104854
0.00106182
0.00106703
0.00106357
0.00104223
0.00100523
0.000952889
0.000885636
0.000806607
0.000716778
0.000621145
0.000524237
0.000429633
0.000340811
0.000262038
0.000197722
0.00014376
0.000100189
6.69484e-05
4.3027e-05
2.67226e-05
1.60859e-05
9.23389e-06
4.36277e-06
9.28942e-07
2.74598e-06
2.30607e-05
5.5958e-05
8.73732e-05
0.000110496
0.00012418
0.000130593
0.000133079
0.000135312
0.000140399
0.000151881
0.000173971
0.00020778
0.000252664
0.000306477
0.000366451
0.00043009
0.000494866
0.000558892
0.000621545
0.000685102
0.000754095
0.000834105
0.000927314
0.00102929
0.00113093
0.00122984
0.00132389
0.00141423
0.00150181
0.00158485
0.00166241
0.00173305
0.00179779
0.0018589
0.00191731
0.00197494
0.00203267
0.0020918
0.00215287
0.0022166
0.00228365
0.00235409
0.002428
0.00250477
0.00258433
0.00266473
0.00274314
0.00282772
0.00291403
0.00300272
0.00309017
0.00317481
0.00325285
0.00332091
0.00337493
0.00340248
0.00341075
0.00339724
0.00334953
0.00326394
0.00314018
0.00297649
0.00277685
0.0025457
0.00229217
0.00202729
0.00175907
0.00149529
0.00123978
0.000996984
0.000776457
0.000584494
0.000424205
0.000295819
0.000197505
0.000126142
7.59979e-05
3.68326e-05
4.91622e-06
5.99406e-06
4.99072e-05
0.000115982
0.00017117
0.000208572
0.000230494
0.000242438
0.000250502
0.000260835
0.000279481
0.000312405
0.000364581
0.000437789
0.000530164
0.000637532
0.000755519
0.000880687
0.00101018
0.00114128
0.00127176
0.00139996
0.00152518
0.00164523
0.00175474
0.00184877
0.00192374
0.00197719
0.00201486
0.00204444
0.00207283
0.0021039
0.00213687
0.00217222
0.00220771
0.00224676
0.0022886
0.00233492
0.00238564
0.00244182
0.00250337
0.00257014
0.00264276
0.00272059
0.00280389
0.00289251
0.00298635
0.00308469
0.00318874
0.00329825
0.00341146
0.00352742
0.00364377
0.00375828
0.00386752
0.00396766
0.00405388
0.004121
0.00415598
0.00416568
0.00414431
0.00407772
0.00396561
0.00380364
0.00359428
0.00333981
0.00304874
0.00273711
0.00241359
0.00208857
0.00177249
0.00147409
0.00119999
0.000955071
0.000741812
0.000560957
0.000411764
0.000290935
0.000190958
9.69575e-05
1.31711e-05
1.03952e-05
8.37232e-05
0.000181857
0.000255349
0.000303264
0.00033278
0.000352552
0.000371246
0.000397401
0.00043939
0.000504731
0.000598095
0.000719272
0.000863354
0.00102322
0.00119205
0.00136382
0.00153269
0.00169243
0.00183712
0.00196117
0.00206276
0.00213944
0.00218451
0.00220379
0.00220848
0.00220483
0.00220301
0.002203
0.0022095
0.00222094
0.0022359
0.00225595
0.00228085
0.00231107
0.00234635
0.00238732
0.00243383
0.00248586
0.00254379
0.0026075
0.00267733
0.00275307
0.00283476
0.0029219
0.00301504
0.00311488
0.00322116
0.0033334
0.0034507
0.00357205
0.00369572
0.00381958
0.00394068
0.00405541
0.00415919
0.0042469
0.00430975
0.0043386
0.00434233
0.00430182
0.00421611
0.00408845
0.00390982
0.00367802
0.00339494
0.00307735
0.00273635
0.00238724
0.00204407
0.00171874
0.00141982
0.00115232
0.000918222
0.000717566
0.000548673
0.000407177
0.000283435
0.000154234
2.19933e-05
1.6665e-05
0.000128913
0.000259867
0.000350869
0.000409434
0.00044797
0.000478624
0.000512989
0.000562201
0.000636498
0.000743315
0.000884636
0.00105574
0.00124702
0.0014473
0.00164605
0.00183364
0.002001
0.00213897
0.00224345
0.00230393
0.00232737
0.00232941
0.00229987
0.00226995
0.00224322
0.0022215
0.00220702
0.00220035
0.00219872
0.00220143
0.00220909
0.00222143
0.00223799
0.00225873
0.00228358
0.00231244
0.00234498
0.00238128
0.00242153
0.0024658
0.00251455
0.0025684
0.00262828
0.00269506
0.0027687
0.00284901
0.00293643
0.00303114
0.00313315
0.00324226
0.00335786
0.00347894
0.00360393
0.00373066
0.00385542
0.00397362
0.00407954
0.00416652
0.00421815
0.00423566
0.00420949
0.0041265
0.0039879
0.00380298
0.00355921
0.00325939
0.00292138
0.0025626
0.00220141
0.00185482
0.0015359
0.00125218
0.00100603
0.000796561
0.000620634
0.000472422
0.00033975
0.000193352
2.81437e-05
2.56176e-05
0.000188861
0.000354618
0.000463934
0.000534587
0.000584474
0.000629651
0.000684923
0.00076369
0.000876458
0.00102798
0.00121495
0.00142653
0.0016477
0.00186287
0.00205777
0.00222009
0.0023426
0.0024082
0.00242985
0.00241741
0.00237248
0.00232758
0.00228451
0.00224438
0.00220959
0.00218129
0.00215922
0.002142
0.00212791
0.00211726
0.00211026
0.0021069
0.00210577
0.00210667
0.00211088
0.00211737
0.00212665
0.00213882
0.00215435
0.00217347
0.00219689
0.0022246
0.00225701
0.00229471
0.00233817
0.00238822
0.00244577
0.00251184
0.00258745
0.00267353
0.00277088
0.00287996
0.00300048
0.00313134
0.00327121
0.00341678
0.0035637
0.00370541
0.00383287
0.00393626
0.00398738
0.00399951
0.00394883
0.00383283
0.00365483
0.00339764
0.00307981
0.00271964
0.0023405
0.00196674
0.00161925
0.00131162
0.00104891
0.000829736
0.000648836
0.000498014
0.000362732
0.000211022
3.04728e-05
3.80459e-05
0.000265526
0.000468489
0.000597449
0.000681918
0.000745675
0.000808935
0.000889428
0.00100148
0.00115341
0.00134461
0.00156484
0.00179687
0.00202088
0.00221831
0.0023739
0.0024681
0.0025034
0.00250159
0.00245237
0.00239874
0.00233639
0.00227642
0.00221687
0.00216342
0.00211751
0.00207755
0.00204166
0.00200902
0.0019798
0.00195448
0.00193224
0.00191208
0.00189395
0.001878
0.00186445
0.00185314
0.00184445
0.00183869
0.00183606
0.00183538
0.00183808
0.00184435
0.00185424
0.00186844
0.00188718
0.00191142
0.00194184
0.00197967
0.00202654
0.00208424
0.00215479
0.00224047
0.00234336
0.0024641
0.002604
0.00276321
0.00293824
0.00312363
0.00331233
0.00349577
0.00365783
0.00377182
0.00381873
0.00381405
0.00372056
0.00354713
0.00327389
0.0029264
0.00253157
0.0021221
0.00173023
0.00138083
0.00108636
0.000847025
0.000655528
0.000499311
0.000361543
0.000210071
2.96308e-05
5.46842e-05
0.000359964
0.000602135
0.0007521
0.000852018
0.000931769
0.00101554
0.00112299
0.00126732
0.00145213
0.00166977
0.00190288
0.00212888
0.00232507
0.00247317
0.00254651
0.00256582
0.00253513
0.00247961
0.00240442
0.00232195
0.00223532
0.00215837
0.00208847
0.00202912
0.00197452
0.00192458
0.00187798
0.00183478
0.00179487
0.00175815
0.00172426
0.00169311
0.00166489
0.00163971
0.00161765
0.00159853
0.00158235
0.00156913
0.00155882
0.00155142
0.00154777
0.0015465
0.0015478
0.00155356
0.00156261
0.00157608
0.00159419
0.00161763
0.00164691
0.001683
0.00172711
0.00178107
0.00184766
0.00193178
0.00203836
0.00217188
0.0023368
0.00253145
0.00274825
0.00298237
0.00321913
0.00344334
0.00362829
0.00372018
0.00374205
0.00367832
0.00350457
0.00320142
0.00280954
0.00236703
0.0019185
0.00150534
0.00115532
0.000877062
0.000662528
0.000494871
0.000353181
0.000203492
2.7583e-05
7.60446e-05
0.000471964
0.000754917
0.00092698
0.00104348
0.00114021
0.00124466
0.00137695
0.00154699
0.00175205
0.00197715
0.00219919
0.00239284
0.00253089
0.00259251
0.00260146
0.00255756
0.00248983
0.00239413
0.00228434
0.00218199
0.00209152
0.00201062
0.00193733
0.00187118
0.00180905
0.0017514
0.00169764
0.00164813
0.00160286
0.00156189
0.0015252
0.00149286
0.00146481
0.00144084
0.00142076
0.00140438
0.00139148
0.00138177
0.00137517
0.00137197
0.00137089
0.00137182
0.00137629
0.00138338
0.00139321
0.00140598
0.00142179
0.00144098
0.00146382
0.00149082
0.00152255
0.00155981
0.00160369
0.00165583
0.0017188
0.00179655
0.00189651
0.00203284
0.00221937
0.00245374
0.00271946
0.00300652
0.00328959
0.0035409
0.00368293
0.00372726
0.003689
0.00350792
0.00316211
0.0027134
0.00221416
0.0017233
0.00129121
0.000945243
0.000686354
0.000495242
0.000340216
0.000190062
2.5228e-05
0.000102323
0.000599793
0.000924821
0.00111978
0.00125307
0.00136591
0.00148821
0.00163898
0.00182335
0.00203175
0.00224308
0.00243099
0.00256248
0.0026176
0.00262181
0.00257559
0.00249061
0.00237127
0.00224488
0.0021301
0.00202668
0.00193456
0.0018508
0.00177391
0.00170306
0.00163724
0.00157714
0.00152268
0.0014743
0.00143193
0.00139555
0.00136491
0.00133969
0.00131944
0.00130368
0.00129189
0.00128353
0.00127855
0.00127631
0.00127573
0.00127751
0.00128133
0.00128702
0.00129473
0.00130422
0.00131561
0.00132903
0.00134461
0.00136252
0.00138297
0.00140623
0.00143259
0.00146242
0.00149615
0.00153423
0.00157767
0.00162812
0.00168847
0.0017645
0.00186545
0.00200877
0.00222756
0.00251473
0.00283865
0.00318136
0.00349703
0.00368969
0.00375479
0.003731
0.00353092
0.00313017
0.00261495
0.00205539
0.00152589
0.00108315
0.000748513
0.000510964
0.000335129
0.000177649
2.32838e-05
0.000133987
0.000739618
0.0011087
0.00132685
0.00147578
0.00160169
0.00173595
0.00189528
0.00207946
0.00227287
0.00245049
0.00257693
0.002629
0.00263129
0.0025849
0.00248598
0.00234958
0.00221175
0.002083
0.00196861
0.00186571
0.00177285
0.00168786
0.00161014
0.00153953
0.00147614
0.00142054
0.00137268
0.00133255
0.00129968
0.00127352
0.00125333
0.00123832
0.00122769
0.00122075
0.00121733
0.00121607
0.00121606
0.00121877
0.0012226
0.00122812
0.00123494
0.00124317
0.00125279
0.00126386
0.00127647
0.00129076
0.00130684
0.00132484
0.0013449
0.00136716
0.00139176
0.00141888
0.00144877
0.00148182
0.00151786
0.00155744
0.00160117
0.00165101
0.00171089
0.00178949
0.00190229
0.00207481
0.00235482
0.00271243
0.00310535
0.00348431
0.00372501
0.00380697
0.00378388
0.00354787
0.00307939
0.00249099
0.00187421
0.00131751
0.000876981
0.000561093
0.000344719
0.000174024
2.2575e-05
0.000172514
0.000886895
0.00130279
0.00154336
0.00170528
0.00183913
0.00197701
0.00213279
0.00230132
0.00246268
0.00258305
0.00263374
0.00263595
0.00259034
0.00248322
0.00233593
0.00218615
0.00204575
0.0019195
0.00180732
0.0017061
0.00161471
0.00153216
0.00145864
0.00139437
0.00133957
0.00129419
0.00125765
0.00122918
0.00120774
0.00119225
0.00118162
0.001175
0.00117177
0.00117062
0.00117063
0.00117281
0.00117597
0.00118053
0.00118598
0.00119261
0.00120031
0.00120926
0.00121952
0.00123125
0.0012446
0.00125973
0.00127679
0.00129592
0.00131722
0.00134078
0.00136662
0.00139468
0.00142487
0.00145706
0.00149117
0.00152736
0.00156613
0.00160702
0.00165098
0.00170104
0.00176452
0.00185581
0.00200111
0.00224466
0.00262299
0.00305606
0.00349856
0.00377685
0.00386822
0.00382843
0.00353377
0.00298376
0.00232033
0.00165883
0.00109311
0.000669359
0.000381121
0.000181088
2.33468e-05
0.000215289
0.0010418
0.00150293
0.00176377
0.00193462
0.00206971
0.0022014
0.00234091
0.0024794
0.00258982
0.00263863
0.00264151
0.00259674
0.00248734
0.00233345
0.00217201
0.00201979
0.00188247
0.00176057
0.0016521
0.00155498
0.00146884
0.00139352
0.00132933
0.00127619
0.0012336
0.00120066
0.00117605
0.00115841
0.00114633
0.00113856
0.0011343
0.00113239
0.00113184
0.00113235
0.00113414
0.00113691
0.00114041
0.00114481
0.00115006
0.00115636
0.00116379
0.00117253
0.00118273
0.00119459
0.00120826
0.00122394
0.00124182
0.00126205
0.00128479
0.00131015
0.00133818
0.00136883
0.00140193
0.00143716
0.00147405
0.00151204
0.00155068
0.00158994
0.00163047
0.00167154
0.00171556
0.00176883
0.00184468
0.00196822
0.00218427
0.00256424
0.00303789
0.00353645
0.0038353
0.00392349
0.00384599
0.00346216
0.00281751
0.00208874
0.00140263
0.000851831
0.000463999
0.000206636
2.66721e-05
0.000261082
0.00120059
0.00170408
0.00198213
0.00215693
0.00228575
0.00240115
0.00251252
0.0026067
0.00265062
0.00265347
0.00260824
0.00250071
0.00234347
0.00217228
0.00200756
0.00185878
0.00172708
0.00161102
0.00150867
0.00141909
0.00134232
0.00127825
0.00122658
0.00118634
0.00115618
0.0011344
0.00111929
0.00110924
0.00110288
0.00109913
0.00109727
0.00109645
0.00109622
0.00109671
0.00109797
0.00109986
0.00110244
0.00110586
0.00111022
0.00111573
0.00112251
0.00113076
0.00114064
0.00115234
0.00116603
0.00118191
0.00120018
0.00122105
0.00124471
0.00127137
0.00130115
0.00133414
0.00137028
0.00140934
0.00145082
0.00149397
0.00153773
0.00158099
0.00162295
0.00166383
0.00170385
0.00174376
0.00178992
0.00185525
0.0019658
0.00217022
0.00254134
0.00305287
0.00359753
0.00388948
0.00395863
0.00381765
0.00330187
0.00256616
0.00178728
0.00110796
0.00060291
0.000262529
3.47486e-05
0.000308401
0.00135905
0.00190106
0.00219264
0.00236601
0.00248111
0.00257102
0.0026434
0.00267735
0.00267779
0.00262919
0.00252553
0.00236763
0.00218871
0.00201161
0.00185004
0.00170771
0.00158334
0.00147516
0.00138189
0.00130313
0.00123866
0.00118768
0.0011489
0.00112047
0.00110037
0.00108661
0.00107741
0.00107134
0.00106731
0.00106456
0.00106258
0.00106106
0.00105998
0.00105948
0.00105934
0.0010599
0.00106128
0.00106364
0.00106711
0.00107184
0.00107802
0.00108578
0.00109528
0.0011067
0.00112021
0.00113598
0.00115424
0.0011752
0.00119911
0.00122622
0.00125679
0.00129104
0.00132912
0.001371
0.00141647
0.00146492
0.00151531
0.0015661
0.00161539
0.00166138
0.00170335
0.00174123
0.00177846
0.00182075
0.00187917
0.00198314
0.00218216
0.00255777
0.00310817
0.00367065
0.00393255
0.00396355
0.00371039
0.0030431
0.00221517
0.00142157
0.000790465
0.000347563
4.7798e-05
0.000355881
0.0015131
0.00208911
0.00239026
0.00255667
0.00265145
0.00270626
0.00272836
0.00271981
0.00266475
0.00256448
0.00240761
0.00222296
0.00203402
0.00185838
0.00170352
0.00156951
0.00145427
0.00135626
0.00127461
0.00120867
0.00115736
0.00111891
0.00109116
0.00107171
0.00105835
0.00104917
0.00104269
0.00103782
0.00103388
0.00103043
0.00102729
0.00102444
0.00102197
0.00101998
0.00101874
0.00101827
0.00101842
0.00101996
0.00102273
0.00102689
0.00103258
0.00103994
0.0010491
0.0010602
0.00107341
0.00108889
0.00110685
0.0011275
0.00115111
0.00117798
0.00120842
0.00124278
0.00128139
0.00132448
0.00137217
0.00142427
0.00148014
0.00153855
0.00159746
0.00165413
0.00170552
0.00175078
0.00178686
0.00181718
0.0018566
0.00191239
0.00201462
0.00221645
0.00261045
0.00320443
0.00375051
0.00396901
0.00391614
0.00347029
0.00265512
0.00177257
0.00101527
0.000454252
6.46651e-05
0.000402546
0.00165843
0.00226444
0.00257167
0.00272427
0.00278866
0.00280456
0.00278326
0.0027196
0.00262113
0.0024654
0.00227669
0.00207681
0.0018861
0.00171637
0.00157034
0.00144621
0.00134185
0.00125587
0.00118714
0.0011342
0.00109497
0.00106686
0.00104721
0.00103354
0.00102383
0.00101653
0.00101056
0.00100527
0.00100029
0.000995516
0.000990947
0.000986695
0.000982916
0.000979767
0.000977414
0.000976185
0.000975768
0.000976492
0.000978803
0.000982534
0.000987858
0.000994882
0.00100372
0.0010145
0.00102736
0.00104246
0.00105997
0.00108012
0.00110315
0.00112936
0.00115911
0.00119278
0.00123081
0.00127366
0.0013217
0.00137517
0.001434
0.00149757
0.00156447
0.00163219
0.00169708
0.00175468
0.00180393
0.00183928
0.00186038
0.00189597
0.00195294
0.00205783
0.00227217
0.00270134
0.00333774
0.00382117
0.00396581
0.00377404
0.00307958
0.00214697
0.00126809
0.000576282
8.42972e-05
0.000447402
0.0017938
0.00242364
0.00272954
0.00286205
0.00289747
0.00287683
0.00280716
0.00269794
0.00254367
0.00235172
0.00214202
0.00193572
0.0017487
0.00158752
0.00145179
0.00133888
0.00124669
0.00117354
0.00111756
0.0010763
0.00104686
0.00102624
0.00101173
0.00100112
0.000992777
0.000985611
0.000978971
0.000972537
0.000966214
0.000960052
0.000954176
0.000948749
0.000943939
0.000939906
0.000936799
0.00093496
0.000934225
0.000934315
0.000936253
0.000939645
0.000944641
0.000951351
0.00095987
0.000970314
0.000982806
0.000997488
0.00101452
0.00103411
0.00105648
0.00108191
0.00111073
0.00114337
0.00118027
0.001222
0.00126911
0.00132215
0.00138152
0.00144728
0.00151887
0.00159471
0.00167184
0.00174557
0.00180978
0.0018632
0.00189403
0.00190903
0.00193983
0.0019995
0.00211266
0.00235228
0.00283992
0.00351705
0.00386133
0.00389641
0.00346146
0.00253504
0.00154484
0.000709652
0.000105758
0.000488741
0.00191557
0.00256159
0.0028612
0.00297145
0.00298264
0.00291921
0.00280159
0.00264725
0.0024504
0.00223173
0.00200992
0.00180356
0.00162368
0.00147269
0.00134831
0.00124753
0.00116798
0.00110729
0.00106267
0.00103087
0.00100857
0.000992738
0.000980964
0.000971473
0.000963105
0.000955189
0.00094741
0.000939688
0.000932087
0.000924745
0.000917827
0.000911503
0.000905932
0.00090126
0.000897617
0.00089524
0.000894155
0.000893926
0.000895397
0.000898461
0.000903113
0.000909481
0.000917649
0.000927727
0.00093983
0.000954088
0.000970653
0.0009897
0.00101144
0.00103612
0.00106406
0.00109562
0.00113127
0.00117156
0.00121713
0.00126869
0.00132696
0.00139252
0.00146559
0.00154564
0.00163096
0.00171801
0.00180102
0.001872
0.001926
0.0019494
0.00196021
0.00198743
0.00205205
0.0021811
0.0024694
0.0030405
0.00366581
0.00390045
0.00371656
0.00291662
0.00184217
0.000852003
0.000128391
0.000525104
0.00202078
0.00267617
0.00296657
0.00305758
0.00304171
0.00293651
0.00277834
0.00257653
0.00234835
0.00211142
0.00188441
0.00168235
0.00151175
0.00137197
0.00125956
0.00117116
0.00110381
0.00105427
0.00101896
0.000994171
0.000976546
0.000963364
0.000952649
0.000943115
0.000934025
0.000925038
0.00091607
0.000907187
0.000898526
0.000890255
0.00088254
0.000875536
0.00086938
0.000864197
0.000860097
0.000857189
0.000855742
0.000855284
0.000856223
0.000858907
0.000863165
0.000869136
0.000876902
0.000886571
0.000898254
0.000912078
0.000928181
0.000946727
0.000967904
0.000991937
0.0010191
0.00104973
0.00108424
0.00112315
0.00116709
0.00121683
0.00127321
0.00133715
0.00140942
0.00149039
0.00157957
0.00167494
0.00177221
0.00186413
0.00194031
0.00199018
0.00200583
0.00201218
0.00203863
0.00211088
0.00226782
0.00263445
0.00329134
0.0037424
0.00381153
0.00327138
0.00215494
0.000998901
0.000151992
0.000555683
0.00210825
0.00276699
0.00304649
0.0031216
0.00307557
0.00293099
0.00273161
0.00249507
0.00224302
0.00199486
0.00176781
0.00157293
0.00141287
0.00128481
0.0011845
0.00110805
0.00105171
0.00101148
0.000983256
0.000963251
0.000948365
0.00093633
0.000925658
0.000915496
0.000905438
0.000895373
0.000885353
0.000875513
0.000866014
0.000857017
0.000848673
0.000841112
0.000834452
0.000828794
0.000824233
0.00082085
0.000818956
0.000818242
0.000818603
0.000820823
0.000824626
0.000830136
0.000837443
0.000846654
0.000857881
0.000871247
0.000886889
0.000904958
0.00092563
0.000949106
0.00097563
0.0010055
0.00103908
0.00107683
0.00111933
0.00116731
0.00122167
0.00128342
0.00135369
0.00143345
0.00152325
0.00162253
0.00172888
0.00183699
0.00193772
0.00201577
0.00205332
0.00206193
0.00206417
0.00209304
0.00217862
0.00238455
0.00287787
0.00353885
0.00380016
0.00354077
0.00247275
0.00114752
0.000176467
0.000580035
0.002178
0.00283513
0.00310282
0.00316323
0.00308756
0.0029113
0.00267294
0.00240779
0.00213844
0.00188466
0.00166125
0.00147535
0.00132647
0.00121021
0.00112161
0.0010561
0.00100917
0.000976257
0.000953082
0.000936067
0.000922539
0.000910718
0.000899562
0.000888556
0.000877531
0.000866513
0.000855621
0.000845011
0.000834838
0.000825246
0.000816363
0.000808298
0.000801153
0.000795018
0.00078998
0.000786121
0.000783675
0.000782604
0.000782454
0.000784088
0.000787379
0.000792373
0.000799169
0.000807875
0.000818606
0.000831486
0.00084665
0.000864247
0.000884441
0.000907421
0.000933407
0.000962661
0.000995506
0.00103234
0.00107369
0.0011202
0.00117271
0.00123226
0.0013001
0.00137755
0.00146584
0.00156559
0.00167607
0.00179415
0.0019131
0.00202179
0.00209315
0.0021156
0.0021173
0.00211344
0.0021518
0.00226142
0.00255873
0.00318714
0.00363217
0.00366114
0.0027923
0.00130922
0.00020309
0.000598096
0.00223072
0.002882
0.00313742
0.00318431
0.00308177
0.00287349
0.00260594
0.00231842
0.00203742
0.00178233
0.00156507
0.00138918
0.00125165
0.00114685
0.00106912
0.00101318
0.000973909
0.00094646
0.000926669
0.000911336
0.000898272
0.000886154
0.000874296
0.000862433
0.000850543
0.000838722
0.000827114
0.000815868
0.000805125
0.000795005
0.000785619
0.000777063
0.000769427
0.000762797
0.000757257
0.000752893
0.000749788
0.000748215
0.000747724
0.000748669
0.000751399
0.000755836
0.000762081
0.000770245
0.000780444
0.000792806
0.000807466
0.000824574
0.000844292
0.000866799
0.000892302
0.000921039
0.000953296
0.000989427
0.00102988
0.00107523
0.00112623
0.00118385
0.00124934
0.00132416
0.00140994
0.00150814
0.00161939
0.00174245
0.00187272
0.00200057
0.00211024
0.00216796
0.0021784
0.00216672
0.00215795
0.00221368
0.00238024
0.00284264
0.00347714
0.00368408
0.00310795
0.00150894
0.000236954
0.000610153
0.00226746
0.00290866
0.00315053
0.00318426
0.00306299
0.00282597
0.00253423
0.00222982
0.0019418
0.0016886
0.0014791
0.00131366
0.00118727
0.00109326
0.00102526
0.000977374
0.000944086
0.000920538
0.000902866
0.000888329
0.000875203
0.000862547
0.000849946
0.000837299
0.000824665
0.00081217
0.000799956
0.000788159
0.000776898
0.000766279
0.000756397
0.000747342
0.000739198
0.000732047
0.000725972
0.000721052
0.000717362
0.000715195
0.000714354
0.000714613
0.000716743
0.000720601
0.000726271
0.000733865
0.000743504
0.000755317
0.000769444
0.000786035
0.000805255
0.000827281
0.000852313
0.000880575
0.000912331
0.000947894
0.000987657
0.00103212
0.00108195
0.00113801
0.00120144
0.00127374
0.00135668
0.00145223
0.00156209
0.00168686
0.00182462
0.00196912
0.00210789
0.00220421
0.00223762
0.00223737
0.00221079
0.00220482
0.00229379
0.0025684
0.00320551
0.00357874
0.00336376
0.0017631
0.000282763
0.000616293
0.00228853
0.00291617
0.00314758
0.00317351
0.00302917
0.00277115
0.00246054
0.00214406
0.00185271
0.00160366
0.00140283
0.00124788
0.00113211
0.00104795
0.000988402
0.000947079
0.000918312
0.00089743
0.000880976
0.000866673
0.000853205
0.000839931
0.000826626
0.000813288
0.000800015
0.000786939
0.00077419
0.000761886
0.000750131
0.000739021
0.000728643
0.000719081
0.000710418
0.000702738
0.000696123
0.000690654
0.000686417
0.000683602
0.000682305
0.000682056
0.000683528
0.000686797
0.000691884
0.000698895
0.000707954
0.000719193
0.000732755
0.000748796
0.000767483
0.000788997
0.000813538
0.000841325
0.000872607
0.000907676
0.000946881
0.000990663
0.00103959
0.00109444
0.00115622
0.00122633
0.00130654
0.00139901
0.00150606
0.00162947
0.00176928
0.00192182
0.00207732
0.00221791
0.00229309
0.00230623
0.0022772
0.00224411
0.00226565
0.00242012
0.0029139
0.00343419
0.00348687
0.00206799
0.000340579
0.000616021
0.00229669
0.0029115
0.00313352
0.00314807
0.00298632
0.00271172
0.00238704
0.00206255
0.00177073
0.00152734
0.00133561
0.00119083
0.00108493
0.00100956
0.000957155
0.000921042
0.000895592
0.000876451
0.000860604
0.000846202
0.000832265
0.000818374
0.000804428
0.000790482
0.000776649
0.000763053
0.000749808
0.000737021
0.000724784
0.000713187
0.000702314
0.000692248
0.000683073
0.000674874
0.000667734
0.000661737
0.000656971
0.000653524
0.000651688
0.000651083
0.000651893
0.000654578
0.000659086
0.000665514
0.000673984
0.000684631
0.000697603
0.000713059
0.000731172
0.00075213
0.000776137
0.000803415
0.00083421
0.000868801
0.000907511
0.000950735
0.000998976
0.0010529
0.0011134
0.00118173
0.00125956
0.00134911
0.00145301
0.001574
0.00171389
0.00187184
0.00204162
0.00220897
0.00233002
0.00237157
0.00236401
0.00229635
0.00226675
0.0023423
0.00266548
0.00329524
0.00351886
0.00241332
0.000408067
0.000612879
0.00229485
0.00289581
0.00310422
0.00310983
0.00293631
0.00264974
0.00231531
0.00198624
0.00169608
0.00145927
0.00127664
0.0011415
0.00104459
0.000976885
0.000930392
0.000898325
0.000875243
0.000857176
0.000841539
0.000826855
0.000812406
0.00079793
0.000783408
0.00076892
0.000754579
0.0007405
0.000726785
0.000713529
0.000700821
0.000688747
0.00067739
0.000666837
0.000657171
0.000648477
0.00064084
0.000634343
0.000629068
0.000625095
0.000622705
0.000621765
0.000621978
0.000624095
0.00062804
0.000633895
0.000641777
0.000651824
0.000664184
0.000679024
0.000696523
0.000716876
0.000740296
0.000767013
0.000797277
0.000831365
0.000869589
0.000912313
0.000959988
0.00101319
0.00107271
0.00113964
0.0012155
0.00130239
0.00140302
0.00152059
0.00165809
0.00181679
0.00199353
0.00217697
0.00234408
0.00242987
0.00244319
0.00238883
0.00231728
0.0023153
0.00249316
0.00306908
0.00344185
0.00276145
0.000478702
0.000605818
0.00228632
0.00286611
0.00306419
0.00306281
0.0028812
0.00258687
0.00224653
0.00191566
0.00162871
0.00139895
0.00122514
0.00109893
0.00101006
0.000948911
0.000907227
0.000878247
0.000856809
0.000839349
0.000823675
0.000808616
0.000793652
0.000778633
0.000763586
0.000748603
0.000733791
0.000719254
0.000705087
0.000691379
0.000678216
0.000665683
0.000653868
0.000642856
0.000632733
0.000623585
0.000615494
0.000608545
0.000602818
0.000598396
0.00059547
0.000594139
0.000593923
0.000595478
0.000598884
0.000604184
0.000611489
0.000620935
0.000632673
0.000646874
0.000663722
0.000683423
0.0007062
0.000732293
0.000761965
0.000795498
0.000833205
0.000875435
0.000922604
0.000975228
0.00103399
0.00109985
0.00117416
0.00125883
0.00135653
0.00147066
0.00160506
0.00176288
0.00194423
0.00214247
0.00233974
0.00247498
0.00251466
0.00248763
0.00237096
0.002319
0.0024076
0.00285149
0.00330293
0.00304067
0.000536543
0.00059475
0.00226817
0.00282745
0.00301663
0.00300892
0.0028227
0.00252441
0.00218149
0.0018511
0.00156841
0.0013458
0.00118033
0.00106224
0.00098043
0.000924814
0.000886987
0.000860322
0.00083999
0.000822817
0.000806955
0.000791478
0.000776015
0.000760493
0.000744962
0.000729518
0.000714261
0.000699288
0.000684688
0.000670548
0.000656953
0.000643993
0.000631753
0.000620324
0.00060979
0.000600237
0.000591748
0.000584404
0.000578285
0.000573474
0.00057005
0.0005683
0.000567791
0.000568821
0.000571718
0.000576489
0.000583235
0.000592089
0.000603203
0.000616749
0.00063292
0.000651928
0.000674009
0.000699416
0.000728427
0.000761339
0.000798471
0.000840175
0.000886847
0.000938961
0.000997124
0.00106216
0.00113526
0.00121813
0.00131325
0.00142401
0.00155461
0.00170935
0.00189065
0.00209538
0.00231008
0.00249644
0.00257869
0.00258184
0.00247592
0.00236531
0.00236646
0.00267413
0.00317338
0.00317417
0.000563501
0.000580264
0.00224306
0.0027818
0.00296291
0.00295014
0.00276226
0.00246335
0.00212073
0.0017926
0.00151485
0.00129923
0.00114147
0.00103065
0.000954948
0.000903936
0.000869162
0.000844205
0.000824584
0.000807483
0.000791344
0.000775435
0.000759496
0.000743502
0.000727519
0.000711641
0.000695963
0.000680576
0.000665566
0.00065102
0.000637027
0.000623676
0.000611056
0.000599257
0.000588365
0.000578464
0.000569634
0.000561953
0.000555494
0.000550331
0.00054653
0.000544375
0.000543607
0.000544175
0.000546602
0.000550876
0.000557087
0.000565364
0.000575859
0.000588746
0.000604221
0.000622507
0.000643847
0.000668513
0.000696796
0.000729014
0.000765503
0.000806624
0.000852772
0.000904396
0.000962045
0.00102645
0.00109862
0.00118009
0.0012731
0.0013809
0.00150786
0.00165912
0.00183914
0.00204831
0.00227744
0.00250139
0.00263577
0.00266398
0.0025881
0.00241399
0.00235517
0.0025133
0.003066
0.00321204
0.000568289
0.000563186
0.00221324
0.00273089
0.00290451
0.0028881
0.00270109
0.00240444
0.00206454
0.00174011
0.00146767
0.00125868
0.0011079
0.00100347
0.000932984
0.000885756
0.000853369
0.00082965
0.000810453
0.00079328
0.000776814
0.000760474
0.000744082
0.000727644
0.000711235
0.000694947
0.000678871
0.000663094
0.000647703
0.000632786
0.000618433
0.000604736
0.000591785
0.000579669
0.000568474
0.000558282
0.000549169
0.000541208
0.000534467
0.000529011
0.000524904
0.000522385
0.00052138
0.000521554
0.000523552
0.000527363
0.000533068
0.00054079
0.00055068
0.000562912
0.000577686
0.000595229
0.000615796
0.000639674
0.000667171
0.000698627
0.000734399
0.000774868
0.000820441
0.000871559
0.000928736
0.000992618
0.0010641
0.00114449
0.0012358
0.00134102
0.00146444
0.00161163
0.00178842
0.00199825
0.00223681
0.00248536
0.00267623
0.00273864
0.00270173
0.0025121
0.00238033
0.00243473
0.00289649
0.00318408
0.000556907
0.000544186
0.00218051
0.00267637
0.00284288
0.00282414
0.00264014
0.00234819
0.00201305
0.00169344
0.00142646
0.00122361
0.00107902
0.000980123
0.00091402
0.000869863
0.000839322
0.000816478
0.000797497
0.000780158
0.000763339
0.000746577
0.000729753
0.000712895
0.000696084
0.00067941
0.000662961
0.000646824
0.000631086
0.000615836
0.000601167
0.000587171
0.000573939
0.000561561
0.000550119
0.000539692
0.000530353
0.000522167
0.000515199
0.000509509
0.000505158
0.00050232
0.000501067
0.000500943
0.000502547
0.00050593
0.000511161
0.000518356
0.000527661
0.000539251
0.000553326
0.000570119
0.000589895
0.00061295
0.000639614
0.000670247
0.000705234
0.000744981
0.000789915
0.000840487
0.000897195
0.00096063
0.00103158
0.00111117
0.00120117
0.00130428
0.0014246
0.00156782
0.00174073
0.00194905
0.00219232
0.002456
0.00269559
0.00280411
0.00280188
0.00262895
0.00242408
0.00240194
0.0027443
0.00310936
0.000537084
0.000523932
0.00214558
0.00261945
0.00277925
0.00275937
0.00258016
0.00229496
0.00196627
0.00165234
0.00139082
0.00119352
0.00105432
0.000960107
0.000897635
0.000855937
0.000826798
0.000804551
0.00078564
0.000768074
0.000750891
0.00073372
0.000716484
0.000699231
0.000682042
0.000665007
0.000648214
0.000631749
0.0006157
0.000600159
0.000585219
0.000570973
0.000557512
0.000544923
0.000533287
0.000522678
0.000513164
0.000504807
0.000497664
0.000491792
0.00048725
0.000484128
0.00048261
0.000482282
0.000483533
0.000486524
0.000491314