/*--------------------------------*- C++ -*----------------------------------*\
  =========                 |
  \\      /  F ield         | OpenFOAM: The Open Source CFD Toolbox
   \\    /   O peration     | Website:  https://openfoam.org
    \\  /    A nd           | Version:  13
     \\/     M anipulation  |
\*---------------------------------------------------------------------------*/
FoamFile
{
    format      ascii;
    class       volScalarField;
    location    "9.7";
    object      nut;
}
// * * * * * * * * * * * * * * * * * * * * * * * * * * * * * * * * * * * * * //

dimensions      [0 2 -1 0 0 0 0];

internalField   nonuniform List<scalar> 
6400
(
9.99972e-10
5.13444e-09
1.2486e-08
2.01011e-08
2.58152e-08
2.89934e-08
3.0111e-08
3.01706e-08
3.03088e-08
3.13629e-08
3.39971e-08
3.92547e-08
4.76037e-08
5.92285e-08
7.35128e-08
8.96561e-08
1.06818e-07
1.2466e-07
1.42317e-07
1.59377e-07
1.76571e-07
1.95381e-07
2.1778e-07
2.44824e-07
2.75237e-07
3.0571e-07
3.36039e-07
3.66158e-07
3.97058e-07
4.29534e-07
4.63107e-07
4.96684e-07
5.29728e-07
5.62381e-07
5.95413e-07
6.29044e-07
6.63924e-07
7.00274e-07
7.38515e-07
7.78754e-07
8.21283e-07
8.66424e-07
9.14437e-07
9.6581e-07
1.02107e-06
1.08214e-06
1.15276e-06
1.24085e-06
1.32729e-06
1.41604e-06
1.5024e-06
1.58624e-06
1.66462e-06
1.73548e-06
1.79615e-06
1.84318e-06
1.86652e-06
1.87568e-06
1.8696e-06
1.83208e-06
1.76705e-06
1.67504e-06
1.55682e-06
1.41789e-06
1.25999e-06
1.09188e-06
9.21531e-07
7.55231e-07
5.99095e-07
4.60624e-07
3.47567e-07
2.5271e-07
1.7612e-07
1.17687e-07
7.56369e-08
4.69757e-08
2.82776e-08
1.62324e-08
7.66939e-09
1.633e-09
4.82678e-09
3.3796e-07
1.2136e-06
2.04304e-06
2.65434e-06
3.01262e-06
3.17567e-06
3.23129e-06
3.26524e-06
3.34049e-06
3.53428e-06
3.91864e-06
4.46056e-06
5.09077e-06
5.74423e-06
6.35654e-06
6.88104e-06
7.26833e-06
7.50528e-06
7.60958e-06
7.66725e-06
7.74302e-06
7.90573e-06
8.17867e-06
8.4956e-06
8.69859e-06
8.90411e-06
9.14092e-06
9.45689e-06
9.88924e-06
1.0439e-05
1.10442e-05
1.16978e-05
1.23727e-05
1.30855e-05
1.38226e-05
1.45922e-05
1.5389e-05
1.62197e-05
1.70787e-05
1.79602e-05
1.88699e-05
1.98109e-05
2.07989e-05
2.1801e-05
2.27802e-05
2.37134e-05
2.45409e-05
2.54194e-05
2.62974e-05
2.7188e-05
2.80668e-05
2.89218e-05
2.9731e-05
3.04727e-05
3.1203e-05
3.16349e-05
3.19321e-05
3.21082e-05
3.20635e-05
3.16766e-05
3.09939e-05
2.99725e-05
2.86186e-05
2.69258e-05
2.49553e-05
2.2799e-05
2.04762e-05
1.8022e-05
1.53451e-05
1.2438e-05
9.64201e-06
7.17764e-06
5.15204e-06
3.57585e-06
2.43425e-06
1.62898e-06
1.05375e-06
4.76512e-07
8.64234e-09
1.05361e-08
8.69084e-07
3.49908e-06
6.06582e-06
8.02875e-06
9.3026e-06
1.00179e-05
1.0377e-05
1.05947e-05
1.08532e-05
1.12814e-05
1.19623e-05
1.28681e-05
1.38956e-05
1.49124e-05
1.58067e-05
1.65262e-05
1.70446e-05
1.73615e-05
1.74933e-05
1.74638e-05
1.7375e-05
1.73062e-05
1.7296e-05
1.73802e-05
1.76526e-05
1.7978e-05
1.8312e-05
1.86752e-05
1.90622e-05
1.95718e-05
2.02855e-05
2.1286e-05
2.23099e-05
2.34646e-05
2.46755e-05
2.5965e-05
2.72707e-05
2.86357e-05
3.00887e-05
3.14937e-05
3.29464e-05
3.43525e-05
3.56916e-05
3.6969e-05
3.82264e-05
3.94473e-05
4.06747e-05
4.19123e-05
4.31457e-05
4.43707e-05
4.55728e-05
4.67366e-05
4.7841e-05
4.88582e-05
4.97515e-05
5.05504e-05
5.10549e-05
5.12826e-05
5.14312e-05
5.12432e-05
5.0737e-05
4.98465e-05
4.84866e-05
4.65611e-05
4.4107e-05
4.13117e-05
3.81542e-05
3.46502e-05
3.08361e-05
2.6768e-05
2.25865e-05
1.84904e-05
1.46826e-05
1.13322e-05
8.49647e-06
6.24399e-06
4.30205e-06
1.7912e-06
2.31539e-08
1.82724e-08
1.41989e-06
5.46628e-06
9.32126e-06
1.23011e-05
1.43479e-05
1.56186e-05
1.63383e-05
1.67759e-05
1.71501e-05
1.76634e-05
1.84398e-05
1.94557e-05
2.05669e-05
2.16083e-05
2.24618e-05
2.30662e-05
2.34187e-05
2.35503e-05
2.35218e-05
2.34028e-05
2.33037e-05
2.32935e-05
2.34153e-05
2.34823e-05
2.35029e-05
2.35157e-05
2.39416e-05
2.46985e-05
2.57131e-05
2.70048e-05
2.82334e-05
2.9455e-05
3.07542e-05
3.20847e-05
3.33843e-05
3.46963e-05
3.60778e-05
3.73659e-05
3.86568e-05
3.9889e-05
4.11056e-05
4.22694e-05
4.33964e-05
4.4475e-05
4.55302e-05
4.65845e-05
4.76395e-05
4.86914e-05
4.97343e-05
5.07617e-05
5.17629e-05
5.27251e-05
5.36316e-05
5.44626e-05
5.51946e-05
5.58027e-05
5.62577e-05
5.64884e-05
5.65375e-05
5.63659e-05
5.58127e-05
5.50641e-05
5.42491e-05
5.29154e-05
5.09538e-05
4.85411e-05
4.56482e-05
4.23416e-05
3.86668e-05
3.46672e-05
3.04091e-05
2.60016e-05
2.16099e-05
1.74393e-05
1.36545e-05
1.03638e-05
7.26739e-06
3.01341e-06
3.86628e-08
2.92933e-08
2.12915e-06
7.5802e-06
1.25326e-05
1.62275e-05
1.87173e-05
2.02442e-05
2.10964e-05
2.15903e-05
2.20467e-05
2.27211e-05
2.3699e-05
2.48747e-05
2.60462e-05
2.70329e-05
2.77337e-05
2.81288e-05
2.82597e-05
2.81849e-05
2.80269e-05
2.7801e-05
2.76446e-05
2.74993e-05
2.69006e-05
2.68659e-05
2.74208e-05
2.83803e-05
2.95262e-05
3.06907e-05
3.20001e-05
3.32911e-05
3.45328e-05
3.57554e-05
3.69436e-05
3.80369e-05
3.90656e-05
4.01053e-05
4.10504e-05
4.18788e-05
4.26562e-05
4.33504e-05
4.39968e-05
4.46033e-05
4.52059e-05
4.58251e-05
4.64556e-05
4.70838e-05
4.77198e-05
4.83652e-05
4.90232e-05
4.96955e-05
5.03822e-05
5.10815e-05
5.17887e-05
5.24971e-05
5.31942e-05
5.3859e-05
5.44625e-05
5.49724e-05
5.53283e-05
5.54601e-05
5.53265e-05
5.47352e-05
5.36404e-05
5.28457e-05
5.16414e-05
4.98035e-05
4.74718e-05
4.47064e-05
4.15563e-05
3.80565e-05
3.42317e-05
3.01172e-05
2.58038e-05
2.1501e-05
1.73741e-05
1.35002e-05
9.49419e-06
3.87074e-06
4.94748e-08
4.50304e-08
3.084e-06
1.00793e-05
1.60483e-05
2.02486e-05
2.29232e-05
2.44625e-05
2.52786e-05
2.57949e-05
2.6389e-05
2.72723e-05
2.84238e-05
2.9655e-05
3.07436e-05
3.15325e-05
3.19603e-05
3.20462e-05
3.19183e-05
3.15299e-05
3.12295e-05
3.07213e-05
2.98678e-05
2.97381e-05
3.04758e-05
3.14571e-05
3.24849e-05
3.36605e-05
3.48353e-05
3.59705e-05
3.70495e-05
3.80057e-05
3.88793e-05
3.96815e-05
4.03665e-05
4.09285e-05
4.14101e-05
4.18049e-05
4.21962e-05
4.24709e-05
4.2723e-05
4.29376e-05
4.31427e-05
4.33341e-05
4.35128e-05
4.36878e-05
4.38562e-05
4.40268e-05
4.42067e-05
4.4406e-05
4.46345e-05
4.49043e-05
4.52273e-05
4.5616e-05
4.60773e-05
4.66083e-05
4.7219e-05
4.79045e-05
4.86418e-05
4.93944e-05
5.01116e-05
5.08032e-05
5.11913e-05
5.13188e-05
5.10768e-05
5.02541e-05
4.976e-05
4.8535e-05
4.67602e-05
4.44959e-05
4.18265e-05
3.88231e-05
3.55166e-05
3.18879e-05
2.79101e-05
2.37326e-05
1.94924e-05
1.53373e-05
1.08268e-05
4.28931e-06
5.35691e-08
6.68771e-08
4.3283e-06
1.29944e-05
1.98669e-05
2.43792e-05
2.70467e-05
2.8456e-05
2.91765e-05
2.97259e-05
3.04646e-05
3.14965e-05
3.26924e-05
3.38206e-05
3.46777e-05
3.51587e-05
3.52605e-05
3.48332e-05
3.44069e-05
3.39719e-05
3.28043e-05
3.24878e-05
3.30071e-05
3.38843e-05
3.46981e-05
3.5605e-05
3.65195e-05
3.74397e-05
3.82375e-05
3.89271e-05
3.95153e-05
4.00236e-05
4.04574e-05
4.07854e-05
4.10223e-05
4.11842e-05
4.12925e-05
4.13542e-05
4.1385e-05
4.13538e-05
4.13291e-05
4.13069e-05
4.12198e-05
4.11489e-05
4.10417e-05
4.09384e-05
4.08106e-05
4.06792e-05
4.05357e-05
4.03956e-05
4.02628e-05
4.01544e-05
4.00897e-05
4.01009e-05
4.02357e-05
4.04744e-05
4.08511e-05
4.14215e-05
4.21802e-05
4.30842e-05
4.40823e-05
4.5158e-05
4.61724e-05
4.7059e-05
4.74673e-05
4.74948e-05
4.70118e-05
4.67043e-05
4.54781e-05
4.3613e-05
4.12367e-05
3.84927e-05
3.54953e-05
3.22778e-05
2.8747e-05
2.4789e-05
2.06999e-05
1.6268e-05
1.11271e-05
4.28174e-06
5.20888e-08
9.61245e-08
5.8815e-06
1.62539e-05
2.38809e-05
2.85265e-05
3.10567e-05
3.22727e-05
3.28927e-05
3.3474e-05
3.42989e-05
3.53518e-05
3.64296e-05
3.72938e-05
3.77773e-05
3.78377e-05
3.73577e-05
3.69137e-05
3.58891e-05
3.51687e-05
3.51704e-05
3.57535e-05
3.61737e-05
3.68349e-05
3.74609e-05
3.82145e-05
3.88506e-05
3.94121e-05
3.98362e-05
4.01674e-05
4.04063e-05
4.05727e-05
4.06712e-05
4.07084e-05
4.07055e-05
4.06743e-05
4.06261e-05
4.05629e-05
4.04877e-05
4.04003e-05
4.03137e-05
4.01705e-05
4.00719e-05
4e-05
3.97853e-05
3.96457e-05
3.9449e-05
3.9254e-05
3.90338e-05
3.8794e-05
3.85318e-05
3.82455e-05
3.79314e-05
3.75857e-05
3.72006e-05
3.68817e-05
3.66932e-05
3.66954e-05
3.70466e-05
3.77439e-05
3.86475e-05
3.98664e-05
4.11827e-05
4.25741e-05
4.38725e-05
4.45686e-05
4.46787e-05
4.45713e-05
4.44032e-05
4.30091e-05
4.0885e-05
3.82192e-05
3.52279e-05
3.20886e-05
2.88464e-05
2.5271e-05
2.12001e-05
1.67897e-05
1.13123e-05
4.1732e-06
4.84889e-08
1.33673e-07
7.72591e-06
1.97647e-05
2.79355e-05
3.25963e-05
3.49166e-05
3.59196e-05
3.64374e-05
3.70105e-05
3.78178e-05
3.87485e-05
3.95678e-05
4.00664e-05
3.99744e-05
3.95303e-05
3.90553e-05
3.7772e-05
3.73152e-05
3.74146e-05
3.75163e-05
3.78183e-05
3.82705e-05
3.88023e-05
3.92738e-05
3.9729e-05
4.00433e-05
4.02767e-05
4.04085e-05
4.04855e-05
4.05121e-05
4.05124e-05
4.04948e-05
4.04726e-05
4.04547e-05
4.04426e-05
4.0436e-05
4.04322e-05
4.04281e-05
4.0417e-05
4.03799e-05
4.03512e-05
4.03299e-05
4.02394e-05
4.01423e-05
4.00355e-05
3.98879e-05
3.97199e-05
3.95165e-05
3.92835e-05
3.90148e-05
3.87074e-05
3.83549e-05
3.79509e-05
3.74911e-05
3.69663e-05
3.63744e-05
3.57125e-05
3.49976e-05
3.45089e-05
3.46677e-05
3.55066e-05
3.66502e-05
3.81996e-05
3.98348e-05
4.14794e-05
4.24294e-05
4.26111e-05
4.27556e-05
4.26905e-05
4.10317e-05
3.85407e-05
3.54651e-05
3.21051e-05
2.87095e-05
2.52668e-05
2.14116e-05
1.68435e-05
1.10694e-05
3.88965e-06
4.43487e-08
1.79867e-07
9.78086e-06
2.33564e-05
3.19465e-05
3.65297e-05
3.85998e-05
3.93797e-05
3.97708e-05
4.02607e-05
4.09305e-05
4.16091e-05
4.20659e-05
4.18722e-05
4.13691e-05
4.08137e-05
3.97624e-05
3.9257e-05
3.90738e-05
3.88825e-05
3.90695e-05
3.93449e-05
3.96845e-05
4.00011e-05
4.02362e-05
4.04101e-05
4.04855e-05
4.05222e-05
4.05219e-05
4.05241e-05
4.05336e-05
4.05671e-05
4.06246e-05
4.0708e-05
4.08113e-05
4.0927e-05
4.10459e-05
4.11553e-05
4.12652e-05
4.13308e-05
4.13637e-05
4.14215e-05
4.14016e-05
4.1363e-05
4.12901e-05
4.11881e-05
4.10519e-05
4.08896e-05
4.06983e-05
4.0479e-05
4.02289e-05
3.99449e-05
3.96195e-05
3.9241e-05
3.87909e-05
3.82627e-05
3.76362e-05
3.68913e-05
3.60182e-05
3.50575e-05
3.4053e-05
3.30784e-05
3.31944e-05
3.42981e-05
3.57806e-05
3.77108e-05
3.96328e-05
4.08292e-05
4.11034e-05
4.1339e-05
4.12871e-05
3.93043e-05
3.63801e-05
3.28251e-05
2.90207e-05
2.52614e-05
2.13829e-05
1.68092e-05
1.08035e-05
3.61474e-06
4.09308e-08
2.35527e-07
1.18765e-05
2.68884e-05
3.58265e-05
4.02804e-05
4.20782e-05
4.26171e-05
4.28318e-05
4.3145e-05
4.35612e-05
4.3882e-05
4.36038e-05
4.30121e-05
4.23834e-05
4.14965e-05
4.08963e-05
4.03511e-05
4.00916e-05
4.00123e-05
4.01613e-05
4.03167e-05
4.04777e-05
4.05809e-05
4.06259e-05
4.06384e-05
4.06274e-05
4.06398e-05
4.06815e-05
4.0774e-05
4.09117e-05
4.10945e-05
4.13092e-05
4.15453e-05
4.17876e-05
4.2026e-05
4.22827e-05
4.24537e-05
4.25551e-05
4.27524e-05
4.28216e-05
4.28891e-05
4.28917e-05
4.28665e-05
4.27954e-05
4.26868e-05
4.25378e-05
4.23519e-05
4.21287e-05
4.18702e-05
4.15774e-05
4.12519e-05
4.08953e-05
4.05086e-05
4.00923e-05
3.96441e-05
3.91186e-05
3.84848e-05
3.76828e-05
3.6707e-05
3.55427e-05
3.42553e-05
3.29972e-05
3.18751e-05
3.23868e-05
3.39123e-05
3.59486e-05
3.80954e-05
3.95497e-05
3.99123e-05
4.01274e-05
3.99544e-05
3.75934e-05
3.41898e-05
3.01185e-05
2.58144e-05
2.15592e-05
1.68017e-05
1.07862e-05
3.54047e-06
3.96841e-08
3.03253e-07
1.3811e-05
3.02674e-05
3.95164e-05
4.3812e-05
4.532e-05
4.55864e-05
4.5558e-05
4.5598e-05
4.56597e-05
4.52769e-05
4.45772e-05
4.38967e-05
4.30918e-05
4.23848e-05
4.15179e-05
4.10745e-05
4.08458e-05
4.07743e-05
4.08113e-05
4.08233e-05
4.08302e-05
4.08057e-05
4.07833e-05
4.07907e-05
4.08478e-05
4.09777e-05
4.11753e-05
4.14388e-05
4.17498e-05
4.20942e-05
4.24526e-05
4.28186e-05
4.31964e-05
4.3527e-05
4.37382e-05
4.39836e-05
4.42272e-05
4.43978e-05
4.45137e-05
4.4593e-05
4.46189e-05
4.46033e-05
4.45391e-05
4.44305e-05
4.42765e-05
4.4079e-05
4.38386e-05
4.35566e-05
4.32339e-05
4.28715e-05
4.24693e-05
4.20273e-05
4.15447e-05
4.10208e-05
4.04557e-05
3.98495e-05
3.9197e-05
3.84039e-05
3.73933e-05
3.61204e-05
3.4653e-05
3.30913e-05
3.16834e-05
3.10212e-05
3.24409e-05
3.4401e-05
3.68038e-05
3.84373e-05
3.8852e-05
3.89717e-05
3.85011e-05
3.5697e-05
3.17805e-05
2.71758e-05
2.23045e-05
1.71986e-05
1.10266e-05
3.68095e-06
4.10402e-08
3.78444e-07
1.57272e-05
3.34817e-05
4.29823e-05
4.70949e-05
4.82925e-05
4.82436e-05
4.78987e-05
4.75754e-05
4.70159e-05
4.61708e-05
4.54523e-05
4.46147e-05
4.37769e-05
4.26945e-05
4.19683e-05
4.15695e-05
4.13285e-05
4.12011e-05
4.11225e-05
4.10379e-05
4.09813e-05
4.09555e-05
4.10002e-05
4.11308e-05
4.13544e-05
4.16671e-05
4.20494e-05
4.24835e-05
4.29455e-05
4.34177e-05
4.39055e-05
4.4372e-05
4.47796e-05
4.51325e-05
4.54422e-05
4.5734e-05
4.6024e-05
4.62184e-05
4.63726e-05
4.64752e-05
4.65264e-05
4.65271e-05
4.64756e-05
4.63729e-05
4.62188e-05
4.60145e-05
4.57608e-05
4.54591e-05
4.51108e-05
4.47171e-05
4.42787e-05
4.37955e-05
4.32659e-05
4.26872e-05
4.20556e-05
4.13678e-05
4.06236e-05
3.98283e-05
3.89802e-05
3.79399e-05
3.66183e-05
3.50176e-05
3.32517e-05
3.15263e-05
3.01973e-05
3.11358e-05
3.31074e-05
3.56701e-05
3.73917e-05
3.77872e-05
3.77591e-05
3.67572e-05
3.34383e-05
2.90118e-05
2.38002e-05
1.82148e-05
1.18172e-05
4.13503e-06
4.68843e-08
4.58941e-07
1.75871e-05
3.6488e-05
4.61911e-05
5.01029e-05
5.09682e-05
5.05566e-05
4.9822e-05
4.89659e-05
4.79053e-05
4.71396e-05
4.61088e-05
4.51427e-05
4.38872e-05
4.28966e-05
4.2254e-05
4.18543e-05
4.15764e-05
4.13895e-05
4.12512e-05
4.11603e-05
4.11528e-05
4.12403e-05
4.14461e-05
4.17639e-05
4.21812e-05
4.26754e-05
4.32201e-05
4.37929e-05
4.43725e-05
4.49457e-05
4.55073e-05
4.60258e-05
4.64855e-05
4.69076e-05
4.73005e-05
4.76285e-05
4.79171e-05
4.81963e-05
4.83801e-05
4.85174e-05
4.85972e-05
4.86195e-05
4.85834e-05
4.84881e-05
4.83337e-05
4.81206e-05
4.78498e-05
4.75232e-05
4.71429e-05
4.67116e-05
4.62319e-05
4.57059e-05
4.51341e-05
4.45146e-05
4.38425e-05
4.31097e-05
4.23065e-05
4.1426e-05
4.0471e-05
3.94611e-05
3.83377e-05
3.69476e-05
3.52284e-05
3.33038e-05
3.13525e-05
2.97964e-05
3.00463e-05
3.20071e-05
3.46555e-05
3.6335e-05
3.65918e-05
3.64302e-05
3.45428e-05
3.07634e-05
2.56799e-05
1.98006e-05
1.30738e-05
4.99512e-06
6.10795e-08
5.42121e-07
1.93484e-05
3.92461e-05
4.91173e-05
5.28182e-05
5.33361e-05
5.25261e-05
5.13122e-05
4.99518e-05
4.90808e-05
4.76817e-05
4.65784e-05
4.51435e-05
4.39078e-05
4.29971e-05
4.23913e-05
4.19733e-05
4.16707e-05
4.14703e-05
4.13585e-05
4.13574e-05
4.14905e-05
4.17593e-05
4.21614e-05
4.26715e-05
4.32639e-05
4.39093e-05
4.45821e-05
4.52623e-05
4.59331e-05
4.6583e-05
4.72019e-05
4.77779e-05
4.83149e-05
4.88194e-05
4.92635e-05
4.96619e-05
4.9981e-05
5.02742e-05
5.05469e-05
5.07125e-05
5.08271e-05
5.08741e-05
5.0855e-05
5.0768e-05
5.06123e-05
5.0388e-05
5.00958e-05
4.97375e-05
4.9316e-05
4.88352e-05
4.82997e-05
4.77147e-05
4.70847e-05
4.64124e-05
4.5697e-05
4.49324e-05
4.41058e-05
4.31981e-05
4.21889e-05
4.10663e-05
3.98466e-05
3.84998e-05
3.70103e-05
3.52442e-05
3.31924e-05
3.11098e-05
2.93053e-05
2.91284e-05
3.10355e-05
3.37476e-05
3.52143e-05
3.52184e-05
3.48476e-05
3.19852e-05
2.74013e-05
2.15823e-05
1.46275e-05
6.00074e-06
8.40165e-08
6.25584e-07
2.09721e-05
4.17304e-05
5.17508e-05
5.5232e-05
5.54059e-05
5.41117e-05
5.25105e-05
5.13043e-05
4.95247e-05
4.81699e-05
4.65389e-05
4.50512e-05
4.38619e-05
4.3008e-05
4.24169e-05
4.19959e-05
4.17132e-05
4.15693e-05
4.15675e-05
4.17267e-05
4.20484e-05
4.2516e-05
4.31057e-05
4.37832e-05
4.45188e-05
4.52851e-05
4.60608e-05
4.68301e-05
4.75807e-05
4.83041e-05
4.89935e-05
4.96442e-05
5.02552e-05
5.08216e-05
5.1351e-05
5.18241e-05
5.21887e-05
5.25085e-05
5.28324e-05
5.30582e-05
5.32018e-05
5.32771e-05
5.3276e-05
5.31985e-05
5.30426e-05
5.28077e-05
5.2494e-05
5.21026e-05
5.16362e-05
5.10988e-05
5.04962e-05
4.98355e-05
4.91252e-05
4.83735e-05
4.7587e-05
4.67682e-05
4.59118e-05
4.50023e-05
4.40115e-05
4.29019e-05
4.16381e-05
4.02708e-05
3.86726e-05
3.6853e-05
3.50143e-05
3.2916e-05
3.0735e-05
2.87313e-05
2.83403e-05
3.01758e-05
3.27992e-05
3.41162e-05
3.35442e-05
3.24486e-05
2.8614e-05
2.31639e-05
1.62273e-05
7.04142e-06
1.13665e-07
7.07613e-07
2.24125e-05
4.3939e-05
5.41276e-05
5.73134e-05
5.69696e-05
5.54214e-05
5.37578e-05
5.17185e-05
5.00069e-05
4.81538e-05
4.63943e-05
4.49042e-05
4.37667e-05
4.29544e-05
4.2385e-05
4.20015e-05
4.17972e-05
4.17766e-05
4.19422e-05
4.22943e-05
4.28117e-05
4.34631e-05
4.42142e-05
4.503e-05
4.58833e-05
4.67517e-05
4.7619e-05
4.84732e-05
4.93056e-05
5.01096e-05
5.08799e-05
5.1612e-05
5.23016e-05
5.29434e-05
5.35325e-05
5.40828e-05
5.45377e-05
5.48723e-05
5.52199e-05
5.55223e-05
5.56891e-05
5.57932e-05
5.58099e-05
5.57432e-05
5.55895e-05
5.53478e-05
5.50173e-05
5.45982e-05
5.40918e-05
5.35012e-05
5.28316e-05
5.20904e-05
5.12874e-05
5.04345e-05
4.95447e-05
4.86295e-05
4.76962e-05
4.67428e-05
4.57525e-05
4.46896e-05
4.34979e-05
4.21117e-05
4.06157e-05
3.88072e-05
3.65586e-05
3.45636e-05
3.24813e-05
3.01768e-05
2.79957e-05
2.77062e-05
2.94458e-05
3.16141e-05
3.24467e-05
3.17223e-05
2.91985e-05
2.43404e-05
1.76626e-05
7.98407e-06
1.48174e-07
7.86462e-07
2.37019e-05
4.58696e-05
5.60806e-05
5.88949e-05
5.8412e-05
5.68704e-05
5.46399e-05
5.21799e-05
5.00733e-05
4.80157e-05
4.61917e-05
4.47277e-05
4.36417e-05
4.28731e-05
4.23546e-05
4.20589e-05
4.19867e-05
4.21348e-05
4.24923e-05
4.30378e-05
4.37345e-05
4.45442e-05
4.54308e-05
4.63638e-05
4.73207e-05
4.8284e-05
4.92417e-05
5.01844e-05
5.11048e-05
5.19966e-05
5.28536e-05
5.36699e-05
5.44393e-05
5.51551e-05
5.58114e-05
5.64273e-05
5.69645e-05
5.73143e-05
5.76807e-05
5.80507e-05
5.82383e-05
5.83664e-05
5.83992e-05
5.83431e-05
5.81939e-05
5.79501e-05
5.76101e-05
5.71729e-05
5.66384e-05
5.60077e-05
5.5284e-05
5.4473e-05
5.35833e-05
5.26273e-05
5.16207e-05
5.05815e-05
4.95274e-05
4.84722e-05
4.74187e-05
4.63512e-05
4.52272e-05
4.39713e-05
4.24799e-05
4.0874e-05
3.87197e-05
3.61888e-05
3.398e-05
3.18691e-05
2.937e-05
2.70189e-05
2.71358e-05
2.90226e-05
3.04066e-05
3.04276e-05
2.92672e-05
2.50799e-05
1.87871e-05
8.75124e-06
1.85898e-07
8.5913e-07
2.48007e-05
4.74243e-05
5.75925e-05
6.0179e-05
5.98659e-05
5.77494e-05
5.49817e-05
5.24846e-05
5.00025e-05
4.78061e-05
4.59625e-05
4.45408e-05
4.35108e-05
4.28046e-05
4.23766e-05
4.22139e-05
4.23098e-05
4.26456e-05
4.31934e-05
4.39154e-05
4.47683e-05
4.57132e-05
4.67176e-05
4.77565e-05
4.88119e-05
4.98705e-05
5.09222e-05
5.19586e-05
5.29722e-05
5.39553e-05
5.49003e-05
5.57996e-05
5.66457e-05
5.74315e-05
5.8151e-05
5.88145e-05
5.94078e-05
5.97978e-05
6.01634e-05
6.05807e-05
6.07881e-05
6.09315e-05
6.09761e-05
6.0928e-05
6.07835e-05
6.05411e-05
6.01986e-05
5.9754e-05
5.92059e-05
5.85531e-05
5.77961e-05
5.69375e-05
5.59828e-05
5.49417e-05
5.38287e-05
5.26631e-05
5.14686e-05
5.027e-05
4.90883e-05
4.7933e-05
4.67909e-05
4.56151e-05
4.4313e-05
4.27442e-05
4.09114e-05
3.83563e-05
3.56415e-05
3.32747e-05
3.10591e-05
2.82152e-05
2.58998e-05
2.64575e-05
2.84027e-05
2.94163e-05
2.82823e-05
2.53331e-05
1.95578e-05
9.33586e-06
2.25682e-07
9.23051e-07
2.56829e-05
4.86013e-05
5.87419e-05
6.14351e-05
6.09361e-05
5.85107e-05
5.54413e-05
5.25146e-05
4.98409e-05
4.75602e-05
4.57282e-05
4.43609e-05
4.33997e-05
4.27839e-05
4.24839e-05
4.24849e-05
4.2764e-05
4.32859e-05
4.40085e-05
4.48858e-05
4.58744e-05
4.69387e-05
4.80513e-05
4.91921e-05
5.03466e-05
5.15034e-05
5.26531e-05
5.37864e-05
5.48942e-05
5.59673e-05
5.69962e-05
5.79719e-05
5.88859e-05
5.97309e-05
6.05005e-05
6.11911e-05
6.18243e-05
6.22674e-05
6.26236e-05
6.30465e-05
6.32787e-05
6.34256e-05
6.34752e-05
6.343e-05
6.32879e-05
6.30475e-05
6.2707e-05
6.22637e-05
6.1715e-05
6.10581e-05
6.02906e-05
5.94114e-05
5.8422e-05
5.73272e-05
5.61372e-05
5.48682e-05
5.35439e-05
5.21937e-05
5.08503e-05
4.95429e-05
4.8287e-05
4.70713e-05
4.58415e-05
4.44835e-05
4.28112e-05
4.06419e-05
3.77817e-05
3.491e-05
3.246e-05
3.00211e-05
2.69209e-05
2.50498e-05
2.58414e-05
2.70338e-05
2.7141e-05
2.52668e-05
1.99769e-05
9.71355e-06
2.67168e-07
9.76804e-07
2.6354e-05
4.94481e-05
5.96454e-05
6.23792e-05
6.17036e-05
5.88461e-05
5.56233e-05
5.24425e-05
4.96248e-05
4.73022e-05
4.55044e-05
4.42042e-05
4.33308e-05
4.28346e-05
4.26895e-05
4.28681e-05
4.33291e-05
4.40237e-05
4.49019e-05
4.59159e-05
4.70257e-05
4.82005e-05
4.94175e-05
5.06603e-05
5.19159e-05
5.31734e-05
5.44222e-05
5.56515e-05
5.68501e-05
5.80068e-05
5.91107e-05
6.01515e-05
6.11204e-05
6.20098e-05
6.28134e-05
6.35258e-05
6.41791e-05
6.4671e-05
6.50011e-05
6.5409e-05
6.56582e-05
6.57978e-05
6.58433e-05
6.57936e-05
6.56488e-05
6.54083e-05
6.50705e-05
6.46332e-05
6.40932e-05
6.34463e-05
6.26882e-05
6.18143e-05
6.08216e-05
5.97094e-05
5.84815e-05
5.7148e-05
5.57274e-05
5.42478e-05
5.27459e-05
5.12633e-05
4.98384e-05
4.84936e-05
4.72186e-05
4.5951e-05
4.45522e-05
4.26984e-05
3.999e-05
3.69677e-05
3.40128e-05
3.1473e-05
2.86299e-05
2.52324e-05
2.43598e-05
2.54517e-05
2.6169e-05
2.46561e-05
2.00453e-05
9.88427e-06
3.10192e-07
1.01961e-06
2.68159e-05
5.00204e-05
6.02651e-05
6.31019e-05
6.22898e-05
5.92893e-05
5.56967e-05
5.23016e-05
4.93812e-05
4.70488e-05
4.53028e-05
4.40842e-05
4.33198e-05
4.29662e-05
4.29903e-05
4.33464e-05
4.39781e-05
4.48284e-05
4.58448e-05
4.69818e-05
4.82039e-05
4.94849e-05
5.08055e-05
5.2151e-05
5.35088e-05
5.48667e-05
5.62123e-05
5.75324e-05
5.8814e-05
6.00442e-05
6.1211e-05
6.23038e-05
6.33136e-05
6.42335e-05
6.50582e-05
6.5784e-05
6.64344e-05
6.69605e-05
6.72687e-05
6.76346e-05
6.78907e-05
6.80129e-05
6.80439e-05
6.79811e-05
6.78264e-05
6.75803e-05
6.72425e-05
6.68115e-05
6.62842e-05
6.56563e-05
6.49217e-05
6.40737e-05
6.3105e-05
6.20097e-05
6.07843e-05
5.94311e-05
5.79602e-05
5.63927e-05
5.47623e-05
5.31141e-05
5.15e-05
4.99673e-05
4.85432e-05
4.72149e-05
4.59115e-05
4.44866e-05
4.22192e-05
3.90547e-05
3.59696e-05
3.29135e-05
3.02283e-05
2.67272e-05
2.36599e-05
2.34886e-05
2.38866e-05
2.36079e-05
1.99253e-05
1.00192e-05
3.56989e-07
1.05136e-06
2.70869e-05
5.03488e-05
6.06293e-05
6.36455e-05
6.25678e-05
5.94647e-05
5.5675e-05
5.21164e-05
4.91289e-05
4.68115e-05
4.51323e-05
4.40105e-05
4.33736e-05
4.31769e-05
4.33724e-05
4.38972e-05
4.46846e-05
4.56747e-05
4.68158e-05
4.80665e-05
4.93957e-05
5.07808e-05
5.22046e-05
5.36526e-05
5.5111e-05
5.65657e-05
5.80018e-05
5.94043e-05
6.07584e-05
6.20501e-05
6.3267e-05
6.43986e-05
6.54366e-05
6.63748e-05
6.72093e-05
6.7938e-05
6.856e-05
6.90958e-05
6.94093e-05
6.97047e-05
6.99565e-05
7.00521e-05
7.00583e-05
6.99729e-05
6.97995e-05
6.95403e-05
6.91966e-05
6.87681e-05
6.82528e-05
6.76466e-05
6.69432e-05
6.61342e-05
6.52096e-05
6.41588e-05
6.29718e-05
6.16424e-05
6.01706e-05
5.85671e-05
5.68566e-05
5.50804e-05
5.32945e-05
5.15629e-05
4.99411e-05
4.84543e-05
4.70693e-05
4.56679e-05
4.40215e-05
4.12856e-05
3.80019e-05
3.47876e-05
3.14948e-05
2.84595e-05
2.4486e-05
2.26624e-05
2.27806e-05
2.28527e-05
1.98027e-05
1.03547e-05
4.16515e-07
1.07255e-06
2.71918e-05
5.04217e-05
6.07031e-05
6.3837e-05
6.28879e-05
5.95471e-05
5.55873e-05
5.19064e-05
4.8881e-05
4.6598e-05
4.49987e-05
4.39876e-05
4.34914e-05
4.34567e-05
4.38178e-05
4.44983e-05
4.54267e-05
4.6543e-05
4.77989e-05
4.9157e-05
5.05901e-05
5.20777e-05
5.36031e-05
5.51509e-05
5.67053e-05
5.825e-05
5.97679e-05
6.12422e-05
6.2657e-05
6.3998e-05
6.52528e-05
6.64113e-05
6.74657e-05
6.84108e-05
6.92429e-05
6.99598e-05
7.05593e-05
7.1084e-05
7.14018e-05
7.16155e-05
7.18503e-05
7.1911e-05
7.18827e-05
7.17654e-05
7.1564e-05
7.12828e-05
7.0925e-05
7.04921e-05
6.99835e-05
6.93965e-05
6.87253e-05
6.79611e-05
6.70923e-05
6.61049e-05
6.49837e-05
6.37145e-05
6.22872e-05
6.07002e-05
5.89654e-05
5.71132e-05
5.51952e-05
5.3282e-05
5.14526e-05
4.97748e-05
4.82772e-05
4.69203e-05
4.55694e-05
4.32891e-05
3.99835e-05
3.67819e-05
3.33729e-05
2.97996e-05
2.60831e-05
2.22821e-05
2.1478e-05
2.13378e-05
1.95273e-05
1.09789e-05
4.97037e-07
1.08335e-06
2.71258e-05
5.02327e-05
6.06462e-05
6.39986e-05
6.29606e-05
5.95343e-05
5.54528e-05
5.16859e-05
4.86468e-05
4.64131e-05
4.49048e-05
4.40153e-05
4.36668e-05
4.37917e-05
4.4308e-05
4.51305e-05
4.61865e-05
4.74186e-05
4.87818e-05
5.02427e-05
5.17765e-05
5.33638e-05
5.49872e-05
5.66296e-05
5.8273e-05
5.98987e-05
6.1488e-05
6.30229e-05
6.44871e-05
6.58661e-05
6.71481e-05
6.83236e-05
6.93855e-05
7.03294e-05
7.11524e-05
7.18535e-05
7.24333e-05
7.29168e-05
7.32231e-05
7.33805e-05
7.35777e-05
7.35963e-05
7.35252e-05
7.33671e-05
7.31287e-05
7.28162e-05
7.24349e-05
7.19884e-05
7.14784e-05
7.09038e-05
7.02602e-05
6.95396e-05
6.87301e-05
6.78158e-05
6.67778e-05
6.55957e-05
6.425e-05
6.27267e-05
6.10232e-05
5.91541e-05
5.71584e-05
5.51014e-05
5.30697e-05
5.11543e-05
4.94216e-05
4.7878e-05
4.64367e-05
4.48931e-05
4.19883e-05
3.85355e-05
3.51479e-05
3.1501e-05
2.77343e-05
2.31414e-05
2.09563e-05
1.98246e-05
1.90106e-05
1.16699e-05
5.98665e-07
1.08287e-06
2.69577e-05
4.99819e-05
6.04447e-05
6.40315e-05
6.29288e-05
5.94485e-05
5.5287e-05
5.14658e-05
4.84323e-05
4.62596e-05
4.48508e-05
4.40899e-05
4.38899e-05
4.41672e-05
4.48263e-05
4.57778e-05
4.69504e-05
4.82895e-05
4.97538e-05
5.1313e-05
5.29437e-05
5.46263e-05
5.63421e-05
5.80717e-05
5.97951e-05
6.14917e-05
6.31416e-05
6.47264e-05
6.62296e-05
6.76373e-05
6.89382e-05
7.01235e-05
7.1187e-05
7.21247e-05
7.29348e-05
7.36169e-05
7.41723e-05
7.46043e-05
7.48788e-05
7.50065e-05
7.51507e-05
7.51216e-05
7.50009e-05
7.47946e-05
7.45109e-05
7.41581e-05
7.37436e-05
7.32735e-05
7.27518e-05
7.21799e-05
7.15553e-05
7.08718e-05
7.01183e-05
6.92785e-05
6.83315e-05
6.72525e-05
6.60146e-05
6.45928e-05
6.29695e-05
6.11422e-05
5.9132e-05
5.69914e-05
5.48058e-05
5.26845e-05
5.07351e-05
4.90251e-05
4.75403e-05
4.61578e-05
4.38606e-05
4.03361e-05
3.70452e-05
3.30694e-05
2.89815e-05
2.46301e-05
2.08088e-05
1.93048e-05
1.85902e-05
1.22889e-05
7.17297e-07
1.07735e-06
2.66903e-05
4.95704e-05
6.00533e-05
6.38386e-05
6.27898e-05
5.93037e-05
5.5102e-05
5.1254e-05
4.82413e-05
4.6138e-05
4.48345e-05
4.42049e-05
4.41496e-05
4.45693e-05
4.53589e-05
4.64277e-05
4.7707e-05
4.91456e-05
5.07053e-05
5.23578e-05
5.40801e-05
5.58518e-05
5.76523e-05
5.94602e-05
6.12536e-05
6.30108e-05
6.47111e-05
6.63362e-05
6.78699e-05
6.92989e-05
7.06128e-05
7.18033e-05
7.28649e-05
7.37938e-05
7.45883e-05
7.52477e-05
7.57727e-05
7.6164e-05
7.6399e-05
7.65064e-05
7.65811e-05
7.65035e-05
7.63283e-05
7.60678e-05
7.57319e-05
7.53307e-05
7.48739e-05
7.43702e-05
7.38261e-05
7.32456e-05
7.26291e-05
7.19724e-05
7.12663e-05
7.04956e-05
6.96391e-05
6.86693e-05
6.75543e-05
6.626e-05
6.47556e-05
6.30206e-05
6.10554e-05
5.88916e-05
5.66008e-05
5.42924e-05
5.20958e-05
5.01213e-05
4.84077e-05
4.68723e-05
4.52804e-05
4.21833e-05
3.86359e-05
3.49734e-05
3.07237e-05
2.61379e-05
2.09675e-05
1.8778e-05
1.76212e-05
1.29376e-05
8.41463e-07
1.06493e-06
2.63675e-05
4.88961e-05
5.95293e-05
6.3513e-05
6.25597e-05
5.91122e-05
5.49067e-05
5.10557e-05
4.80761e-05
4.60476e-05
4.48523e-05
4.43527e-05
4.44351e-05
4.49858e-05
4.5894e-05
4.70696e-05
4.84469e-05
4.99778e-05
5.16268e-05
5.33664e-05
5.51737e-05
5.70266e-05
5.89029e-05
6.07793e-05
6.26326e-05
6.44403e-05
6.61818e-05
6.78391e-05
6.93966e-05
7.08419e-05
7.21649e-05
7.33583e-05
7.44165e-05
7.53359e-05
7.61144e-05
7.67512e-05
7.72469e-05
7.76033e-05
7.77984e-05
7.78761e-05
7.78882e-05
7.77586e-05
7.75255e-05
7.72067e-05
7.68131e-05
7.63569e-05
7.58501e-05
7.53036e-05
7.47268e-05
7.41265e-05
7.35058e-05
7.28637e-05
7.21933e-05
7.14817e-05
7.07085e-05
6.98458e-05
6.88586e-05
6.77066e-05
6.63479e-05
6.47461e-05
6.28801e-05
6.07579e-05
5.84297e-05
5.59957e-05
5.35981e-05
5.13901e-05
4.94822e-05
4.78814e-05
4.64437e-05
4.3816e-05
4.01264e-05
3.68916e-05
3.21155e-05
2.73892e-05
2.22033e-05
1.85841e-05
1.64523e-05
1.34478e-05
9.43142e-07
1.04548e-06
2.59537e-05
4.81505e-05
5.89149e-05
6.30655e-05
6.22513e-05
5.88838e-05
5.47081e-05
5.0875e-05
4.79375e-05
4.59868e-05
4.48992e-05
4.45254e-05
4.47363e-05
4.54066e-05
4.64221e-05
4.76947e-05
4.91617e-05
5.07777e-05
5.25089e-05
5.43284e-05
5.62125e-05
5.81377e-05
6.008e-05
6.20148e-05
6.3918e-05
6.57671e-05
6.75419e-05
6.92248e-05
7.08011e-05
7.22592e-05
7.35896e-05
7.47851e-05
7.58402e-05
7.67512e-05
7.75156e-05
7.81324e-05
7.86025e-05
7.89288e-05
7.90822e-05
7.91124e-05
7.90853e-05
7.89e-05
7.86074e-05
7.82277e-05
7.77731e-05
7.72572e-05
7.66941e-05
7.60973e-05
7.54788e-05
7.48482e-05
7.42118e-05
7.35715e-05
7.29238e-05
7.22584e-05
7.1557e-05
7.07931e-05
6.99305e-05
6.89253e-05
6.77276e-05
6.62872e-05
6.45635e-05
6.25385e-05
6.02345e-05
5.77293e-05
5.51588e-05
5.26963e-05
5.05007e-05
4.86458e-05
4.70665e-05
4.51655e-05
4.1575e-05
3.84058e-05
3.39985e-05
2.89605e-05
2.3595e-05
1.90497e-05
1.57527e-05
1.36503e-05
9.90534e-07
1.02002e-06
2.54309e-05
4.72902e-05
5.82036e-05
6.25189e-05
6.18768e-05
5.86265e-05
5.45111e-05
5.0714e-05
4.78254e-05
4.5953e-05
4.49702e-05
4.47153e-05
4.50444e-05
4.58229e-05
4.69351e-05
4.82953e-05
4.98436e-05
5.15369e-05
5.33425e-05
5.52336e-05
5.71854e-05
5.91731e-05
6.11711e-05
6.31543e-05
6.50982e-05
6.69805e-05
6.87817e-05
7.0485e-05
7.20766e-05
7.35454e-05
7.48824e-05
7.60805e-05
7.71341e-05
7.80389e-05
7.87918e-05
7.93914e-05
7.98378e-05
8.01329e-05
8.02636e-05
8.02384e-05
8.01742e-05
7.99351e-05
7.95838e-05
7.91426e-05
7.86252e-05
7.80467e-05
7.74233e-05
7.67707e-05
7.61034e-05
7.54339e-05
7.47716e-05
7.41215e-05
7.34834e-05
7.28505e-05
7.22075e-05
7.153e-05
7.07829e-05
6.99209e-05
6.8889e-05
6.7627e-05
6.60771e-05
6.41972e-05
6.19797e-05
5.9473e-05
5.67962e-05
5.41319e-05
5.16827e-05
4.95912e-05
4.78546e-05
4.62767e-05
4.31567e-05
3.97426e-05
3.59815e-05
3.01924e-05
2.472e-05
1.89948e-05
1.58757e-05
1.3638e-05
9.98951e-07
9.89997e-07
2.48716e-05
4.63409e-05
5.74017e-05
6.18896e-05
6.14471e-05
5.83468e-05
5.43194e-05
5.05743e-05
4.77392e-05
4.59434e-05
4.506e-05
4.49154e-05
4.53517e-05
4.62272e-05
4.74259e-05
4.88645e-05
5.04856e-05
5.22477e-05
5.41191e-05
5.60725e-05
5.80821e-05
6.0122e-05
6.21657e-05
6.41876e-05
6.61635e-05
6.80717e-05
6.98934e-05
7.16129e-05
7.3217e-05
7.46953e-05
7.6039e-05
7.72408e-05
7.82947e-05
7.91959e-05
7.99405e-05
8.05264e-05
8.09528e-05
8.1221e-05
8.13351e-05
8.12561e-05
8.11541e-05
8.08664e-05
8.04584e-05
7.99568e-05
7.93767e-05
7.8735e-05
7.80494e-05
7.73378e-05
7.6617e-05
7.59023e-05
7.52059e-05
7.45361e-05
7.38962e-05
7.32827e-05
7.26841e-05
7.2079e-05
7.14349e-05
7.07067e-05
6.98375e-05
6.87601e-05
6.74035e-05
6.57038e-05
6.36234e-05
6.11758e-05
5.845e-05