/*--------------------------------*- C++ -*----------------------------------*\
  =========                 |
  \\      /  F ield         | OpenFOAM: The Open Source CFD Toolbox
   \\    /   O peration     | Website:  https://openfoam.org
    \\  /    A nd           | Version:  13
     \\/     M anipulation  |
\*---------------------------------------------------------------------------*/
FoamFile
{
    format      ascii;
    class       volScalarField;
    location    "9.7";
    object      p;
}
// * * * * * * * * * * * * * * * * * * * * * * * * * * * * * * * * * * * * * //

dimensions      [0 2 -2 0 0 0 0];

internalField   nonuniform List<scalar> 
6400
(
-5.11604e-09
2.03422e-05
2.95555e-05
1.40905e-05
-3.13394e-05
-0.000101403
-0.000186131
-0.000276156
-0.000365113
-0.000449818
-0.000531116
-0.000613418
-0.000701505
-0.000800709
-0.000916333
-0.00105254
-0.00121231
-0.00139725
-0.00160861
-0.001847
-0.00211284
-0.00240765
-0.00273446
-0.00309795
-0.00350468
-0.00395883
-0.00445502
-0.00498353
-0.00552035
-0.00603201
-0.00651452
-0.00697571
-0.00741377
-0.00782586
-0.00820632
-0.00854608
-0.00883337
-0.00905466
-0.00919583
-0.00924285
-0.00918245
-0.0090034
-0.00869779
-0.0082619
-0.00769381
-0.00698474
-0.0061262
-0.0051387
-0.00403927
-0.00283498
-0.00154709
-0.000197341
0.00118457
0.00256546
0.00390398
0.00515474
0.00627375
0.00721953
0.0079531
0.00844416
0.00867557
0.00864682
0.00837324
0.0078722
0.00721347
0.00644394
0.00562992
0.00483431
0.00411313
0.00349574
0.00301625
0.00268375
0.00246787
0.00234378
0.00229067
0.00228535
0.0023088
0.00234593
0.00238615
0.00241346
-1.53752e-05
5.38937e-06
9.82049e-06
-1.07516e-05
-5.91145e-05
-0.000129125
-0.000209799
-0.000292395
-0.000371894
-0.000447015
-0.000519945
-0.000594919
-0.000676913
-0.00077079
-0.000880507
-0.00100968
-0.00116163
-0.00133883
-0.00154183
-0.00177075
-0.00202445
-0.00230374
-0.00261207
-0.0029519
-0.00332644
-0.00374325
-0.0042096
-0.00472323
-0.00526935
-0.00582302
-0.00635705
-0.00686299
-0.00734281
-0.00779334
-0.00820858
-0.00857943
-0.00889442
-0.00914064
-0.00930477
-0.00937406
-0.00933641
-0.00918171
-0.00890238
-0.00849285
-0.00794853
-0.00726568
-0.00645111
-0.00551287
-0.00445341
-0.00329148
-0.0020451
-0.000738168
0.000600857
0.00193789
0.00323498
0.00445171
0.00554514
0.00647386
0.00720248
0.00770156
0.00795354
0.00795667
0.00772474
0.00728462
0.0066846
0.00597974
0.00523138
0.00449844
0.00383371
0.00327805
0.00284841
0.00255172
0.00237386
0.00229144
0.00228035
0.00231186
0.00235545
0.00239422
0.0024267
0.00245246
-3.19635e-05
-8.96368e-06
-1.03775e-05
-4.0365e-05
-9.69249e-05
-0.000169526
-0.000246148
-0.000318457
-0.00038384
-0.000444076
-0.000503056
-0.000565929
-0.000637867
-0.000722712
-0.000822993
-0.000940537
-0.00107691
-0.00123437
-0.00141517
-0.00162214
-0.00185898
-0.0021288
-0.00243607
-0.00278586
-0.00318231
-0.00362795
-0.00412313
-0.00466343
-0.00523745
-0.0058273
-0.00641312
-0.00697933
-0.00751684
-0.00801909
-0.00847891
-0.00888692
-0.00923264
-0.00950487
-0.00969168
-0.00978155
-0.00976424
-0.00963089
-0.00937452
-0.00899012
-0.00847468
-0.00782721
-0.00704569
-0.00614271
-0.0051248
-0.00400558
-0.00280225
-0.00153703
-0.000236949
0.00106618
0.00233653
0.00353559
0.00462148
0.00555331
0.00629629
0.00682209
0.00711211
0.00716251
0.00698618
0.00661023
0.00607825
0.00544305
0.00476108
0.00409334
0.0034876
0.00298012
0.00259494
0.0023442
0.00221518
0.00217825
0.00220403
0.00226699
0.00233671
0.00239472
0.00244216
0.00247943
-4.09853e-05
-1.90858e-05
-2.82388e-05
-6.97177e-05
-0.000136605
-0.000212372
-0.000285179
-0.000348387
-0.000400676
-0.000444479
-0.000486192
-0.000532761
-0.000589856
-0.000661277
-0.000748735
-0.000852995
-0.000975443
-0.00111894
-0.00128746
-0.00148669
-0.00172396
-0.00200718
-0.00234365
-0.00273597
-0.00318635
-0.00369588
-0.00426029
-0.0048687
-0.00550516
-0.00615286
-0.00679531
-0.00741729
-0.00800665
-0.00855422
-0.0090514
-0.00948879
-0.00985722
-0.0101467
-0.010347
-0.0104482
-0.0104415
-0.0103193
-0.010075
-0.00970495
-0.00920725
-0.00858001
-0.00782519
-0.00694867
-0.00595823
-0.00486639
-0.00368922
-0.00244735
-0.00116546
0.000127352
0.00139695
0.00260471
0.00371034
0.00467357
0.0054576
0.00603328
0.00638002
0.00649006
0.00637403
0.00605901
0.00558516
0.00500242
0.00436815
0.00374075
0.00317046
0.00269431
0.00233582
0.00210515
0.00199431
0.00198669
0.00205122
0.0021487
0.00225052
0.0023391
0.00241072
0.00246058
-3.55398e-05
-2.14175e-05
-4.09792e-05
-9.42645e-05
-0.000170871
-0.000249503
-0.000318494
-0.000372759
-0.000412363
-0.000441858
-0.000468701
-0.000500731
-0.000544073
-0.000602462
-0.00067804
-0.000772627
-0.000889384
-0.00103412
-0.00121408
-0.00143754
-0.00171437
-0.00205029
-0.00244997
-0.00291769
-0.00345258
-0.00404854
-0.0046951
-0.0053775
-0.00607821
-0.00678085
-0.00747003
-0.00813322
-0.00875964
-0.0093388
-0.00986145
-0.0103187
-0.0107018
-0.0110016
-0.0112098
-0.0113181
-0.0113186
-0.0112052
-0.0109718
-0.0106145
-0.0101333
-0.00952736
-0.00879722
-0.00794633
-0.00698166
-0.00591504
-0.00476151
-0.00353947
-0.00227019
-0.000979007
0.000301076
0.00153039
0.00267073
0.00368357
0.00453091
0.00518118
0.00561105
0.00580796
0.00577638
0.00553912
0.0051368
0.00461699
0.00403449
0.00344685
0.00290613
0.00245172
0.00211001
0.00189059
0.00178926
0.00178947
0.00186532
0.00198374
0.00211167
0.00222838
0.00232307
0.00238246
-6.68334e-06
-6.96928e-06
-3.92511e-05
-0.000106663
-0.000191552
-0.000271237
-0.000336067
-0.000382462
-0.000411806
-0.000430334
-0.000446701
-0.000469165
-0.000504014
-0.000555672
-0.000627991
-0.000725465
-0.00085472
-0.00102468
-0.00124634
-0.00152692
-0.00187397
-0.00229478
-0.00279092
-0.00335914
-0.00399047
-0.0046728
-0.00539389
-0.00613968
-0.00689459
-0.00764331
-0.00837158
-0.00906777
-0.00972156
-0.0103232
-0.0108643
-0.011336
-0.0117294
-0.0120368
-0.0122514
-0.0123665
-0.0123752
-0.0122733
-0.0120553
-0.0117169
-0.011262
-0.0106866
-0.00999066
-0.00917646
-0.00824931
-0.00721967
-0.00610022
-0.00490553
-0.00365287
-0.00236465
-0.00107546
0.000176654
0.00135849
0.00243429
0.00336271
0.00411001
0.00465132
0.00496799
0.00505885
0.00493678
0.00463794
0.00421049
0.00370646
0.00317996
0.00268344
0.00225938
0.00193639
0.00172716
0.00162959
0.00162974
0.00170403
0.00182417
0.00195969
0.00208751
0.00219242
0.00225521
5.6125e-05
3.78837e-05
-1.10429e-05
-9.55964e-05
-0.000185793
-0.000265779
-0.000327308
-0.000368152
-0.000391705
-0.000405448
-0.000418591
-0.000439671
-0.00047563
-0.000532664
-0.000617691
-0.000738406
-0.000905208
-0.00112998
-0.00142102
-0.00178715
-0.00223488
-0.00276519
-0.00336942
-0.00403677
-0.00475715
-0.00551861
-0.00630738
-0.00710942
-0.00791089
-0.00869831
-0.00945901
-0.0101821
-0.0108577
-0.0114771
-0.0120321
-0.0125142
-0.0129141
-0.0132266
-0.0134466
-0.0135691
-0.0135906
-0.0135058
-0.0133112
-0.0130042
-0.0125812
-0.0120412
-0.0113865
-0.0106205
-0.00974814
-0.00877404
-0.00770574
-0.00655458
-0.00533757
-0.00407798
-0.00280027
-0.0015319
-0.000304028
0.000844276
0.0018664
0.00273213
0.00341316
0.00388306
0.00413635
0.00417608
0.00402773
0.00373411
0.00334518
0.00291282
0.00248728
0.00211248
0.00181981
0.0016254
0.0015304
0.00152622
0.00158992
0.00169866
0.00182481
0.00194548
0.00204538
0.00210325
0.000163226
0.000124068
5.28899e-05
-4.56692e-05
-0.000141397
-0.000222757
-0.000283188
-0.000322957
-0.000347175
-0.000364423
-0.000384335
-0.000415884
-0.000467377
-0.000547866
-0.000667319
-0.000837242
-0.00106955
-0.00137595
-0.0017649
-0.00224264
-0.00280575
-0.00344585
-0.00415256
-0.0049142
-0.00571785
-0.00655067
-0.00739927
-0.00825068
-0.00909232
-0.00991217
-0.010699
-0.0114429
-0.0121346
-0.0127651
-0.0133261
-0.0138099
-0.0142126
-0.0145308
-0.0147595
-0.0148942
-0.0149314
-0.014865
-0.0146929
-0.0144133
-0.014024
-0.0135241
-0.0129164
-0.0122049
-0.0113935
-0.0104841
-0.00948148
-0.00839536
-0.00724053
-0.00603471
-0.00479418
-0.00353658
-0.00229338
-0.00110017
1.28209e-05
0.00101432
0.00185336
0.00250567
0.00295881
0.00320492
0.00325699
0.00314562
0.00291538
0.00261571
0.00229399
0.00199436
0.00175048
0.00158209
0.00149482
0.00148256
0.00153001
0.00161907
0.00172306
0.00182378
0.00190413
0.00194756
0.000320112
0.000259897
0.000163579
5.11335e-05
-5.12588e-05
-0.000135595
-0.000198891
-0.000243649
-0.000276853
-0.000308076
-0.000347438
-0.000404787
-0.000490492
-0.000616663
-0.000796578
-0.00104234
-0.00136679
-0.00178123
-0.00228853
-0.00288433
-0.0035615
-0.00430863
-0.00511266
-0.00596024
-0.00683823
-0.00773374
-0.00863429
-0.0095278
-0.0104027
-0.011248
-0.0120536
-0.0128104
-0.0135091
-0.0141414
-0.0147015
-0.0151871
-0.0155972
-0.0159251
-0.0161648
-0.0163114
-0.0163596
-0.0163082
-0.0161563
-0.0159032
-0.015546
-0.0150874
-0.0145279
-0.0138693
-0.0131142
-0.012267
-0.0113334
-0.0103209
-0.00924026
-0.00810451
-0.00692551
-0.00571364
-0.00449045
-0.00328079
-0.0021065
-0.001011
-2.54018e-05
0.000828704
0.00150332
0.00198913
0.00228471
0.00240511
0.00238053
0.00225577
0.00207443
0.00187886
0.00170606
0.0015794
0.00150892
0.00149308
0.00152254
0.00158334
0.00165729
0.00172911
0.00177896
0.00180344
0.00053443
0.000450776
0.000326636
0.000198852
8.71657e-05
-3.38274e-06
-7.46222e-05
-0.000131956
-0.000184236
-0.000241975
-0.000315958
-0.000417279
-0.00055884
-0.000755522
-0.00102115
-0.00136798
-0.00180783
-0.00234481
-0.00297481
-0.00368947
-0.00447736
-0.00532418
-0.00621649
-0.00714067
-0.0080839
-0.0090336
-0.00997796
-0.0109056
-0.0118058
-0.0126686
-0.0134849
-0.0142463
-0.0149461
-0.01558
-0.0161434
-0.0166321
-0.0170405
-0.0173638
-0.0175992
-0.0177448
-0.0177988
-0.01776
-0.0176275
-0.0174008
-0.0170782
-0.0166614
-0.0161514
-0.0155497
-0.0148584
-0.0140808
-0.013221
-0.0122846
-0.0112779
-0.0102084
-0.00908497
-0.00792372
-0.00674176
-0.00555411
-0.00437311
-0.00322173
-0.00212132
-0.00111264
-0.000226005
0.000515324
0.00108065
0.00147292
0.00170136
0.0017957
0.00179489
0.00173644
0.00165838
0.0015909
0.00154935
0.00153759
0.00155101
0.00158221
0.00162145
0.0016568
0.00167297
0.00167849
0.000808678
0.000695595
0.000542368
0.000393926
0.000270775
0.000169446
8.37651e-05
4.8305e-06
-7.81538e-05
-0.000176626
-0.000302108
-0.00046751
-0.000687823
-0.000978378
-0.00135234
-0.00182006
-0.00238706
-0.0030515
-0.00380436
-0.00463299
-0.00552352
-0.00646128
-0.00743261
-0.00842408
-0.00942316
-0.0104177
-0.0113964
-0.0123488
-0.0132651
-0.0141365
-0.0149554
-0.0157149
-0.0164099
-0.0170361
-0.0175894
-0.0180669
-0.0184647
-0.0187799
-0.0190105
-0.0191556
-0.019214
-0.0191853
-0.0190688
-0.0188645
-0.018572
-0.0181923
-0.0177269
-0.0171772
-0.0165454
-0.0158341
-0.0150468
-0.0141873
-0.0132601
-0.0122694
-0.0112208
-0.0101228
-0.00898453
-0.00781784
-0.00664289
-0.00547632
-0.00432674
-0.00321288
-0.00215645
-0.00119825
-0.000361655
0.000318669
0.000835562
0.00119324
0.0014155
0.00153312
0.00157913
0.00158903
0.00158869
0.00158915
0.0015926
0.00159666
0.00160024
0.00159645
0.0015806
0.00156957
0.00113067
0.000987507
0.000798703
0.000626665
0.000488639
0.000372087
0.000264605
0.000153984
2.76612e-05
-0.000126542
-0.000321298
-0.000570762
-0.000890531
-0.0012947
-0.00179362
-0.00239298
-0.0030923
-0.00388352
-0.00475353
-0.00568812
-0.00667222
-0.0076913
-0.00873162
-0.00977995
-0.010824
-0.0118523
-0.0128541
-0.01382
-0.0147415
-0.0156112
-0.0164231
-0.0171717
-0.0178532
-0.0184641
-0.0190018
-0.0194641
-0.0198487
-0.0201538
-0.0203782
-0.0205213
-0.0205823
-0.0205612
-0.0204578
-0.0202725
-0.0200056
-0.0196583
-0.0192318
-0.0187278
-0.0181485
-0.0174961
-0.0167735
-0.0159839
-0.0151302
-0.0142159
-0.0132446
-0.0122205
-0.0111478
-0.0100316
-0.00888028
-0.00770442
-0.00652192
-0.00535027
-0.00419431
-0.00307321
-0.00201465
-0.00106139
-0.000248303
0.000403643
0.000890652
0.00122676
0.00143575
0.00154877
0.00160292
0.00162326
0.00162197
0.00160375
0.00157461
0.0015348
0.00149214
0.00146689
0.00148603
0.00131109
0.00108201
0.0008834
0.000726678
0.000588897
0.00045133
0.000298352
0.000115898
-0.000109091
-0.000389688
-0.000740912
-0.00117698
-0.00170878
-0.00234232
-0.00307762
-0.0039077
-0.00481981
-0.00579896
-0.00682996
-0.00789743
-0.00898693
-0.0100847
-0.0111779
-0.0122546
-0.0133042
-0.0143172
-0.0152855
-0.016202
-0.0170611
-0.0178582
-0.0185896
-0.0192524
-0.0198443
-0.0203638
-0.0208091
-0.0211792
-0.0214731
-0.0216901
-0.0218298
-0.0218919
-0.0218766
-0.0217842
-0.0216151
-0.0213702
-0.0210507
-0.0206579
-0.0201936
-0.0196597
-0.0190586
-0.0183926
-0.0176642
-0.0168759
-0.01603
-0.0151289
-0.0141748
-0.0131698
-0.0121157
-0.0110145
-0.00986881
-0.00868372
-0.00746939
-0.0062447
-0.00502122
-0.00380896
-0.00263792
-0.0015551
-0.00060525
0.000175216
0.000770287
0.00118578
0.00144126
0.00157197
0.00162196
0.00161994
0.0015838
0.00152747
0.00145869
0.00139645
0.00136204
0.00185635
0.00164673
0.00137513
0.00114548
0.000965507
0.000800064
0.00062386
0.000418063
0.000167318
-0.000141571
-0.000522638
-0.000989747
-0.00155391
-0.00222165
-0.00299295
-0.00386172
-0.004816
-0.00584028
-0.00691854
-0.00803496
-0.0091741
-0.0103216
-0.011464
-0.012589
-0.0136857
-0.0147446
-0.0157579
-0.016719
-0.0176226
-0.0184646
-0.019242
-0.0199524
-0.0205939
-0.0211653
-0.0216656
-0.0220938
-0.0224494
-0.022732
-0.0229414
-0.0230773
-0.0231398
-0.0231293
-0.0230462
-0.0228912
-0.0226652
-0.0223696
-0.0220057
-0.0215754
-0.0210805
-0.0205231
-0.0199055
-0.0192298
-0.018498
-0.0177119
-0.0168728
-0.0159818
-0.0150393
-0.0140452
-0.0129989
-0.0118995
-0.0107461
-0.00953871
-0.00828101
-0.00698365
-0.00567042
-0.00435056
-0.00305468
-0.00183955
-0.000763179
0.000120554
0.000783438
0.00122753
0.00147397
0.00157192
0.00157725
0.00152625
0.00144732
0.00135653
0.00128166
0.0012419
0.00221648
0.00197078
0.00165302
0.0013905
0.00118307
0.000983583
0.000760505
0.000492603
0.000163537
-0.00024082
-0.000733954
-0.00132651
-0.0020254
-0.00283056
-0.00373631
-0.00473138
-0.00580024
-0.00692581
-0.00809135
-0.00928065
-0.0104784
-0.0116705
-0.0128442
-0.0139882
-0.0150931
-0.0161509
-0.0171557
-0.0181025
-0.0189877
-0.0198089
-0.020564
-0.0212519
-0.0218715
-0.0224224
-0.022904
-0.023316
-0.0236582
-0.0239304
-0.0241328
-0.0242654
-0.0243282
-0.0243219
-0.024247
-0.0241043
-0.0238948
-0.0236197
-0.0232806
-0.0228792
-0.0224173
-0.021897
-0.0213202
-0.020689
-0.020005
-0.0192697
-0.018484
-0.0176482
-0.0167617
-0.015823
-0.0148299
-0.0137791
-0.012667
-0.0114897
-0.0102438
-0.00892909
-0.00755308
-0.00613326
-0.00469352
-0.00326993
-0.00193166
-0.000754283
0.000190417
0.000866745
0.00127896
0.0014623
0.00148911
0.00142934
0.00133014
0.00122076
0.00113804
0.00109432
0.00253889
0.00225742
0.00189321
0.00159568
0.00135647
0.00111652
0.000839452
0.000501949
8.62351e-05
-0.000422667
-0.00103498
-0.00175749
-0.00259073
-0.00352898
-0.00456137
-0.00567234
-0.00684394
-0.00805811
-0.00929761
-0.0105461
-0.0117887
-0.013012
-0.0142042
-0.0153558
-0.0164589
-0.0175076
-0.0184975
-0.0194254
-0.0202894
-0.0210879
-0.0218201
-0.0224857
-0.0230843
-0.0236159
-0.0240804
-0.0244778
-0.0248081
-0.0250713
-0.0252678
-0.0253978
-0.0254613
-0.0254591
-0.0253916
-0.0252598
-0.0250647
-0.0248075
-0.0244897
-0.0241129
-0.0236789
-0.0231896
-0.0226469
-0.0220528
-0.0214087
-0.0207158
-0.019975
-0.0191861
-0.0183481
-0.0174589
-0.0165152
-0.0155125
-0.0144449
-0.013306
-0.0120892
-0.0107893
-0.00940429
-0.00793814
-0.00640682
-0.00484413
-0.00330144
-0.0018623
-0.000624928
0.00032582
0.000952273
0.00127215
0.00135274
0.00129533
0.00117779
0.00105074
0.0009605
0.000910122
0.00280236
0.00248217
0.00207233
0.00173817
0.00146285
0.0011771
0.000841041
0.000428595
-8.08246e-05
-0.000699195
-0.00143275
-0.00228334
-0.00324544
-0.0043083
-0.00545619
-0.00667031
-0.00793112
-0.0092199
-0.0105192
-0.0118128
-0.0130867
-0.0143285
-0.0155281
-0.0166778
-0.0177716
-0.0188054
-0.0197765
-0.0206832
-0.0215247
-0.0223005
-0.0230107
-0.0236553
-0.0242346
-0.0247488
-0.0251982
-0.0255829
-0.0259031
-0.026159
-0.0263509
-0.0264791
-0.0265438
-0.0265456
-0.0264852
-0.0263633
-0.0261809
-0.0259393
-0.0256398
-0.025284
-0.0248736
-0.0244104
-0.0238961
-0.0233326
-0.0227214
-0.0220636
-0.0213598
-0.0206099
-0.0198128
-0.0189662
-0.0180665
-0.0171085
-0.0160855
-0.0149893
-0.013811
-0.0125417
-0.0111741
-0.00970513
-0.00813918
-0.00649579
-0.00481732
-0.00317494
-0.00167297
-0.000430758
0.0004588
0.000972435
0.00115671
0.0011232
0.000994542
0.00084899
0.000744951
0.000682091
0.00297267
0.00262072
0.00216849
0.00179723
0.00148254
0.00114792
0.000749277
0.000256769
-0.000348564
-0.00107588
-0.00192827
-0.00290062
-0.0039826
-0.00515839
-0.0064083
-0.00771122
-0.00904659
-0.0103953
-0.0117399
-0.0130651
-0.0143576
-0.015607
-0.0168049
-0.0179454
-0.0190246
-0.02004
-0.0209903
-0.0218751
-0.0226944
-0.0234486
-0.0241383
-0.0247639
-0.0253261
-0.0258251
-0.0262616
-0.0266356
-0.0269476
-0.0271978
-0.0273863
-0.0275136
-0.02758
-0.0275859
-0.0275321
-0.0274193
-0.0272483
-0.0270205
-0.0267369
-0.0263992
-0.0260088
-0.0255675
-0.025077
-0.0245389
-0.0239548
-0.0233256
-0.0226521
-0.0219342
-0.021171
-0.0203602
-0.0194983
-0.0185801
-0.0175987
-0.0165454
-0.01541
-0.0141812
-0.0128481
-0.0114018
-0.00983913
-0.00816749
-0.0064141
-0.0046366
-0.00292796
-0.00141349
-0.000232514
0.000527026
0.00087583
0.000908654
0.00078037
0.000615576
0.000486719
0.000406416
0.00303582
0.00265532
0.00216428
0.00175623
0.00140078
0.00101551
0.000551623
-2.19289e-05
-0.00072171
-0.00155468
-0.00251855
-0.00360326
-0.00479318
-0.00606798
-0.00740495
-0.00878145
-0.0101763
-0.0115702
-0.0129464
-0.0142904
-0.0155907
-0.0168386
-0.0180277
-0.0191541
-0.0202153
-0.0212105
-0.0221395
-0.0230028
-0.0238012
-0.0245356
-0.0252068
-0.0258156
-0.0263629
-0.0268491
-0.0272746
-0.02764
-0.0279454
-0.0281912
-0.0283775
-0.0285047
-0.0285732
-0.0285834
-0.0285359
-0.0284314
-0.0282708
-0.0280552
-0.0277857
-0.0274636
-0.0270904
-0.0266678
-0.0261972
-0.0256803
-0.0251184
-0.0245127
-0.0238639
-0.0231721
-0.0224365
-0.0216553
-0.0208252
-0.0199415
-0.0189975
-0.0179845
-0.0168921
-0.0157078
-0.0144187
-0.0130121
-0.0114788
-0.00981641
-0.00803765
-0.00618371
-0.00433516
-0.00260262
-0.00113648
-8.72114e-05
0.000481379
0.000631875
0.000530114
0.000346922
0.000181186
8.21348e-05
0.00297668
0.00257237
0.00204743
0.00160431
0.001208
0.000770562
0.000240742
-0.000410775
-0.00120039
-0.00213203
-0.00319779
-0.0043828
-0.00566657
-0.00702509
-0.0084335
-0.0098681
-0.0113074
-0.0127326
-0.0141277
-0.0154796
-0.0167787
-0.0180181
-0.0191934
-0.0203022
-0.0213438
-0.0223183
-0.0232265
-0.0240695
-0.0248486
-0.0255651
-0.02622
-0.0268144
-0.0273489
-0.0278243
-0.0282409
-0.0285993
-0.0288996
-0.0291422
-0.0293272
-0.029455
-0.0295259
-0.0295404
-0.029499
-0.0294023
-0.0292512
-0.0290465
-0.0287894
-0.0284811
-0.0281229
-0.0277162
-0.0272626
-0.0267635
-0.0262202
-0.0256338
-0.0250052
-0.0243345
-0.0236214
-0.0228644
-0.0220607
-0.0212063
-0.020295
-0.0193186
-0.018267
-0.0171276
-0.0158864
-0.0145286
-0.0130409
-0.0114141
-0.00964827
-0.00776582
-0.0058338
-0.00394908
-0.00224394
-0.000899814
-5.9845e-05
0.000271096
0.000233177
3.42179e-05
-0.000175648
-0.000292754
0.00278633
0.0023639
0.00181103
0.00133557
0.000898617
0.000409703
-0.00018272
-0.000907788
-0.0017809
-0.00280142
-0.00395723
-0.00522866
-0.00659102
-0.00801749
-0.00948167
-0.0109593
-0.0124291
-0.0138728
-0.0152756
-0.0166263
-0.0179171
-0.0191428
-0.0203009
-0.0213905
-0.0224118
-0.0233659
-0.0242543
-0.0250786
-0.0258404
-0.026541
-0.0271817
-0.0277636
-0.0282874
-0.0287537
-0.0291631
-0.0295159
-0.0298123
-0.0300527
-0.0302372
-0.0303661
-0.0304398
-0.0304586
-0.030423
-0.0303336
-0.0301911
-0.0299963
-0.0297504
-0.0294542
-0.0291092
-0.0287164
-0.0282774
-0.0277935
-0.0272658
-0.0266956
-0.0260836
-0.0254304
-0.0247356
-0.0239984
-0.0232165
-0.0223865
-0.0215032
-0.0205592
-0.0195451
-0.0184487
-0.017256
-0.0159508
-0.0145176
-0.0129429
-0.0112181
-0.00934629
-0.00737082
-0.00539728
-0.00351986
-0.00190861
-0.000768681
-0.0002039
-0.000133546
-0.000330939
-0.000584583
-0.000718119
0.00246233
0.00202791
0.00145373
0.000949302
0.00047342
-6.45003e-05
-0.000714881
-0.00150698
-0.00245461
-0.00355301
-0.00478572
-0.00612881
-0.00755421
-0.00903303
-0.0105379
-0.0120445
-0.0135319
-0.0149828
-0.0163842
-0.0177264
-0.0190035
-0.0202121
-0.021351
-0.0224204
-0.0234216
-0.0243563
-0.0252263
-0.0260336
-0.0267798
-0.0274665
-0.028095
-0.0286662
-0.0291809
-0.0296398
-0.0300433
-0.0303916
-0.0306852
-0.0309242
-0.0311088
-0.0312391
-0.0313157
-0.0313387
-0.0313086
-0.031226
-0.0310915
-0.0309058
-0.0306699
-0.0303847
-0.0300513
-0.0296709
-0.0292446
-0.0287738
-0.0282596
-0.0277031
-0.0271052
-0.0264665
-0.0257869
-0.025066
-0.024302
-0.0234924
-0.0226328
-0.021717
-0.0207364
-0.0196799
-0.0185339
-0.017282
-0.0159069
-0.0143926
-0.0127256
-0.0108968
-0.00891897
-0.00689146
-0.00491006
-0.0030945
-0.00166838
-0.000826457
-0.000587328
-0.000756729
-0.00104338
-0.00119328
0.002008
0.00156803
0.000979238
0.000449645
-6.22397e-05
-0.000644556
-0.00134708
-0.00219892
-0.0032108
-0.00437484
-0.00567059
-0.00707043
-0.00854367
-0.01006
-0.0115916
-0.0131144
-0.0146081
-0.016057
-0.0174494
-0.0187776
-0.0200372
-0.0212263
-0.0223449
-0.0233942
-0.024376
-0.0252923
-0.0261454
-0.0269373
-0.0276698
-0.0283443
-0.0289622
-0.0295242
-0.0300314
-0.030484
-0.0308827
-0.0312276
-0.0315191
-0.0317572
-0.0319423
-0.0320744
-0.0321539
-0.032181
-0.0321562
-0.03208
-0.0319528
-0.0317755
-0.0315487
-0.0312734
-0.0309505
-0.030581
-0.0301661
-0.0297069
-0.0292045
-0.02866
-0.0280742
-0.0274478
-0.0267811
-0.0260738
-0.0253249
-0.0245324
-0.0236929
-0.0228012
-0.0218502
-0.0208298
-0.0197274
-0.0185272
-0.0172112
-0.0157613
-0.0141611
-0.0123959
-0.0104589
-0.00839644
-0.00636274
-0.00441463
-0.00274365
-0.0016111
-0.00115454
-0.00125999
-0.00155149
-0.00172317
0.00143173
0.000992616
0.000395473
-0.000154636
-0.00069838
-0.00131996
-0.00206807
-0.00297078
-0.00403623
-0.00525338
-0.00659833
-0.00804049
-0.00954726
-0.0110875
-0.0126333
-0.014161
-0.0156517
-0.0170908
-0.0184685
-0.0197786
-0.0210182
-0.0221866
-0.0232847
-0.0243142
-0.0252775
-0.0261768
-0.0270144
-0.0277925
-0.0285127
-0.0291765
-0.0297851
-0.0303394
-0.03084
-0.0312875
-0.0316822
-0.0320245
-0.0323144
-0.0325521
-0.0327379
-0.0328719
-0.0329543
-0.0329854
-0.0329656
-0.0328953
-0.032775
-0.0326053
-0.032387
-0.0321206
-0.0318073
-0.0314478
-0.0310431
-0.0305943
-0.0301025
-0.0295685
-0.0289934
-0.0283778
-0.0277222
-0.0270267
-0.0262907
-0.0255128
-0.0246905
-0.0238197
-0.0228945
-0.0219064
-0.0208439
-0.0196924
-0.0184342
-0.0170495
-0.0155203
-0.01383
-0.0119591
-0.00990699
-0.00783289
-0.00581795
-0.00396843
-0.00256661
-0.00185759
-0.00183986
-0.00211307
-0.00231815
0.000745979
0.000314165
-0.000285057
-0.000850802
-0.00142137
-0.0020767
-0.0028637
-0.00380827
-0.00491639
-0.00617427
-0.00755516
-0.00902617
-0.0105534
-0.0121054
-0.0136544
-0.0151778
-0.0166577
-0.0180812
-0.0194399
-0.0207292
-0.0219473
-0.0230944
-0.0241721
-0.0251826
-0.0261284
-0.0270119
-0.0278354
-0.028601
-0.0293103
-0.0299646
-0.0305652
-0.0311126
-0.0316077
-0.0320508
-0.0324423
-0.0327823
-0.0330711
-0.0333087
-0.0334954
-0.0336313
-0.0337166
-0.0337515
-0.0337364
-0.0336717
-0.0335577
-0.0333951
-0.0331844
-0.0329264
-0.0326218
-0.0322714
-0.0318761
-0.0314368
-0.0309546
-0.0304303
-0.0298648
-0.0292589
-0.0286133
-0.0279282
-0.0272035
-0.0264383
-0.025631
-0.0247784
-0.0238759
-0.0229164
-0.02189
-0.0207835
-0.01958
-0.0182596
-0.0168022
-0.0151897
-0.0134003
-0.0114156
-0.00930303
-0.00726077
-0.00530852
-0.0036868
-0.00271546
-0.00251153
-0.00274361
-0.00299453
-3.20877e-05
-0.000452394
-0.00104713
-0.00162362
-0.0022165
-0.00290009
-0.00371845
-0.00469587
-0.00583608
-0.00712296
-0.00852752
-0.0100152
-0.0115515
-0.0131047
-0.0146479
-0.0161593
-0.0176224
-0.0190258
-0.0203626
-0.0216293
-0.0228252
-0.023951
-0.0250089
-0.0260012
-0.0269306
-0.0277995
-0.0286101
-0.0293643
-0.0300638
-0.0307097
-0.0313031
-0.0318446
-0.0323348
-0.0327742
-0.0331628
-0.0335011
-0.033789
-0.0340267
-0.0342144
-0.0343522
-0.0344402
-0.0344787
-0.034468
-0.0344084
-0.0343004
-0.0341443
-0.0339408
-0.0336904
-0.0333938
-0.0330519
-0.0326652
-0.0322348
-0.0317614
-0.031246
-0.0306895
-0.0300926
-0.0294561
-0.0287805
-0.028066
-0.0273123
-0.0265183
-0.0256819
-0.0247994
-0.0238654
-0.0228714
-0.021806
-0.0206537
-0.0193953
-0.0180092
-0.0164761
-0.0147759
-0.0128787
-0.0107745
-0.00871277
-0.00672197
-0.004946
-0.00373267
-0.00331011
-0.00346101
-0.0037736
-0.000883304
-0.00128961
-0.00187481
-0.00245764
-0.00306789
-0.00377381
-0.0046162
-0.00561774
-0.00678009
-0.00808523
-0.00950249
-0.0109963
-0.0125317
-0.0140774
-0.0156073
-0.0171008
-0.0185427
-0.019923
-0.021236
-0.0224793
-0.0236527
-0.0247577
-0.0257964
-0.0267715
-0.0276855
-0.0285408
-0.0293396
-0.0300835
-0.0307741
-0.0314124
-0.0319993
-0.0325355
-0.0330215
-0.0334575
-0.0338438
-0.0341805
-0.0344677
-0.0347056
-0.0348943
-0.0350339
-0.0351245
-0.0351664
-0.0351598
-0.035105
-0.0350023
-0.0348523
-0.0346554
-0.0344121
-0.0341231
-0.0337889
-0.0334104
-0.0329882
-0.0325232
-0.0320162
-0.0314681
-0.0308797
-0.0302518
-0.0295851
-0.0288801
-0.0281369
-0.027355
-0.0265331
-0.0256687
-0.0247575
-0.0237928
-0.0227647
-0.0216595
-0.0204592
-0.0191425
-0.0176877
-0.0160743
-0.014272
-0.0122537
-0.0101625
-0.00817185
-0.00631526
-0.00490476
-0.00425575
-0.00428287
-0.0046831
-0.00178926
-0.00217924
-0.0027509
-0.00333573
-0.00395839
-0.00468079
-0.00554045
-0.00655813
-0.00773365
-0.00904753
-0.010468
-0.0119589
-0.0134853
-0.0150166
-0.0165275
-0.0179987
-0.0194163
-0.0207715
-0.0220598
-0.0232793
-0.0244305
-0.0255152
-0.0265357
-0.0274945
-0.0283941
-0.0292369
-0.0300246
-0.0307591
-0.0314415
-0.032073
-0.0326541
-0.0331855
-0.0336676
-0.0341006
-0.0344847
-0.0348201
-0.0351068
-0.0353449
-0.0355346
-0.0356758
-0.0357688
-0.0358138
-0.035811
-0.0357606
-0.035663
-0.0355186
-0.0353278
-0.0350911
-0.034809
-0.0344822
-0.0341112
-0.0336968
-0.0332397
-0.0327407
-0.0322006
-0.0316204
-0.0310008
-0.0303426
-0.0296467
-0.0289134
-0.0281428
-0.0273343
-0.0264863
-0.0255958
-0.0246574
-0.0236632
-0.0226014
-0.0214556
-0.0202054
-0.0188273
-0.0173
-0.015598
-0.0136893
-0.0115993
-0.00963168
-0.00776295
-0.00621661
-0.00534947
-0.00523535
-0.00574144
-0.00273128
-0.00310297
-0.00365767
-0.00424019
-0.00487062
-0.00560427
-0.00647515
-0.00750189
-0.00868276
-0.00999727
-0.011413
-0.0128936
-0.0144046
-0.0159161
-0.0174039
-0.0188498
-0.0202412
-0.0215703
-0.0228335
-0.0240295
-0.0251591
-0.0262243
-0.0272274
-0.0281709
-0.0290571
-0.0298881
-0.0306657
-0.0313915
-0.0320664
-0.0326915
-0.0332673
-0.0337943
-0.0342729
-0.0347032
-0.0350853
-0.0354195
-0.0357057
-0.035944
-0.0361345
-0.0362773
-0.0363725
-0.0364204
-0.036421
-0.0363746
-0.0362817
-0.0361424
-0.0359573
-0.0357267
-0.0354511
-0.0351311
-0.0347672
-0.0343602
-0.0339106
-0.0334193
-0.032887
-0.0323146
-0.0317031
-0.0310533
-0.0303661
-0.0296423
-0.0288824
-0.0280865
-0.0272537
-0.0263821
-0.0254678
-0.0245045
-0.0234822
-0.0223867
-0.0211989
-0.0198957
-0.018456
-0.0168585
-0.0150621
-0.0130262
-0.0110634
-0.00923622
-0.00762322
-0.00657672
-0.00634364
-0.006936
-0.00369125
-0.00404253
-0.00457734
-0.00515414
-0.00578824
-0.0065284
-0.00740516
-0.0084349
-0.00961454
-0.010923
-0.0123276
-0.0137922
-0.015283
-0.0167708
-0.0182326
-0.0196514
-0.0210156
-0.0223184
-0.0235567
-0.0247298
-0.0258387
-0.0268853
-0.027872
-0.028801
-0.0296747
-0.0304948
-0.031263
-0.0319806
-0.0326487
-0.0332679
-0.0338387
-0.0343617
-0.034837
-0.0352648
-0.0356451
-0.0359782
-0.0362639
-0.0365024
-0.0366936
-0.0368378
-0.036935
-0.0369854
-0.0369891
-0.0369465
-0.0368578
-0.0367232
-0.0365433
-0.0363183
-0.0360488
-0.0357351
-0.035378
-0.0349779
-0.0345355
-0.0340515
-0.0335268
-0.0329621
-0.0323584
-0.0317168
-0.0310382
-0.0303237
-0.0295742
-0.0287901
-0.0279715
-0.0271174
-0.0262252
-0.0252901
-0.024304
-0.0232546
-0.0221248
-0.0208928
-0.0195357
-0.0180329
-0.0163494
-0.014445
-0.0124715
-0.0106944
-0.00907172
-0.00790532
-0.00760084
-0.00823541
-0.00465144
-0.00498054
-0.00549311
-0.0060615
-0.00669584
-0.00743846
-0.00831656
-0.00934426
-0.0105174
-0.0118144
-0.013203
-0.0146474
-0.0161145
-0.0175762
-0.0190104
-0.0204013
-0.0217381
-0.0230149
-0.0242291
-0.0253801
-0.0264693
-0.0274983
-0.0284696
-0.0293851
-0.030247
-0.031057
-0.0318164
-0.0325265
-0.0331881
-0.0338018
-0.0343681
-0.0348873
-0.0353596
-0.035785
-0.0361636
-0.0364956
-0.0367808
-0.0370194
-0.0372113
-0.0373567
-0.0374557
-0.0375083
-0.0375149
-0.0374756
-0.0373907
-0.0372605
-0.0370853
-0.0368655
-0.0366015
-0.0362938
-0.0359429
-0.0355494
-0.0351138
-0.0346369
-0.0341194
-0.0335622
-0.0329663
-0.0323327
-0.0316626
-0.0309572
-0.0302177
-0.0294451
-0.02864
-0.0278022
-0.0269304
-0.0260211
-0.025068
-0.0240611
-0.0229852
-0.02182
-0.020542
-0.0191296
-0.0175562
-0.0157883
-0.013844
-0.0121149
-0.0105213
-0.00929287
-0.00894671
-0.00956525
-0.0055954
-0.00590105
-0.00638984
-0.00694753
-0.00757926
-0.00832102
-0.00919676
-0.0102184
-0.0113809
-0.0126625
-0.0140316
-0.0154529
-0.0168942
-0.0183284
-0.0197344
-0.0210973
-0.0224073
-0.023659
-0.02485
-0.0259801
-0.0270506
-0.0280632
-0.02902
-0.0299229
-0.0307739
-0.0315744
-0.0323257
-0.0330288
-0.0336844
-0.034293
-0.0348551
-0.0353707
-0.0358401
-0.0362633
-0.0366404
-0.0369713
-0.037256
-0.0374946
-0.0376871
-0.0378335
-0.037934
-0.0379887
-0.0379978
-0.0379615
-0.03788
-0.0377536
-0.0375827
-0.0373677
-0.0371088
-0.0368066
-0.0364615
-0.0360742
-0.035645
-0.0351749
-0.0346644
-0.0341144
-0.033526
-0.0329003
-0.0322385
-0.0315421
-0.0308124
-0.0300508
-0.0292585
-0.0284361
-0.0275832
-0.0266976
-0.0257748
-0.0248065
-0.0237799
-0.0226764
-0.0214736
-0.0201507
-0.018687
-0.0170402
-0.0151755
-0.0134698
-0.0119262
-0.0106818
-0.0102858
-0.0108074
-0.00650737
-0.00678975
-0.00725376
-0.007799
-0.00842584
-0.00916411
-0.0100346
-0.0110473
-0.0121963
-0.0134596
-0.0148067
-0.0162033
-0.0176178
-0.0190242
-0.0204022
-0.0217378
-0.0230219
-0.0242496
-0.0254187
-0.0265292
-0.0275823
-0.0285795
-0.0295229
-0.0304142
-0.031255
-0.0320467
-0.0327905
-0.0334871
-0.0341372
-0.0347411