/*--------------------------------*- C++ -*----------------------------------*\
  =========                 |
  \\      /  F ield         | OpenFOAM: The Open Source CFD Toolbox
   \\    /   O peration     | Website:  https://openfoam.org
    \\  /    A nd           | Version:  13
     \\/     M anipulation  |
\*---------------------------------------------------------------------------*/
FoamFile
{
    format      ascii;
    class       volVectorField;
    location    "9.7";
    object      U;
}
// * * * * * * * * * * * * * * * * * * * * * * * * * * * * * * * * * * * * * //

dimensions      [0 1 -1 0 0 0 0];

internalField   nonuniform List<vector> 
6400
(
(-0.000129866 8.55351e-05 0)
(0.000448966 -0.000176162 0)
(0.00212564 -0.000443724 0)
(0.00433795 -0.000561758 0)
(0.00653472 -0.000494072 0)
(0.00836156 -0.000327672 0)
(0.00957019 -0.000128374 0)
(0.0101674 2.0208e-05 0)
(0.010282 7.41072e-05 0)
(0.0101653 5.14082e-05 0)
(0.00993777 -3.0003e-05 0)
(0.00977715 -0.000140031 0)
(0.00974531 -0.000253998 0)
(0.0098403 -0.000345896 0)
(0.0100118 -0.000419752 0)
(0.0101783 -0.00047329 0)
(0.0102633 -0.000506319 0)
(0.0102138 -0.000507018 0)
(0.00998624 -0.000485665 0)
(0.00948506 -0.000442682 0)
(0.00867506 -0.000393052 0)
(0.00749545 -0.000343057 0)
(0.00590598 -0.000296066 0)
(0.00387797 -0.000279225 0)
(0.00137306 -0.000330458 0)
(-0.00156906 -0.000446206 0)
(-0.00500289 -0.00047922 0)
(-0.00915284 -0.000272732 0)
(-0.0141225 0.000284578 0)
(-0.0199838 0.00118535 0)
(-0.0274177 0.00223407 0)
(-0.0356597 0.00311642 0)
(-0.0445594 0.00382122 0)
(-0.0538051 0.00433777 0)
(-0.0631394 0.00467372 0)
(-0.0723276 0.00484503 0)
(-0.0811851 0.00487697 0)
(-0.0895579 0.00479313 0)
(-0.0973308 0.004616 0)
(-0.104406 0.00436324 0)
(-0.110709 0.00404655 0)
(-0.116177 0.00367419 0)
(-0.120769 0.00324815 0)
(-0.124462 0.00277268 0)
(-0.127233 0.00226318 0)
(-0.128847 0.00179252 0)
(-0.129498 0.00136272 0)
(-0.129286 0.000617857 0)
(-0.127674 7.08481e-05 0)
(-0.12514 -0.000625829 0)
(-0.121314 -0.00126147 0)
(-0.116411 -0.00193039 0)
(-0.110294 -0.00256476 0)
(-0.103079 -0.00318785 0)
(-0.0948024 -0.00379498 0)
(-0.0855443 -0.00437426 0)
(-0.0753376 -0.00487636 0)
(-0.064375 -0.00530053 0)
(-0.0528109 -0.00561231 0)
(-0.0408636 -0.00578097 0)
(-0.028775 -0.00576853 0)
(-0.0168288 -0.00556448 0)
(-0.00523947 -0.00516716 0)
(0.00549046 -0.00466671 0)
(0.0150473 -0.00388679 0)
(0.0232741 -0.00294192 0)
(0.0298296 -0.00187557 0)
(0.034438 -0.000723315 0)
(0.0371251 0.000435699 0)
(0.0372853 0.0016319 0)
(0.0357771 0.00229964 0)
(0.0321357 0.00287681 0)
(0.0267871 0.00306354 0)
(0.0206244 0.00275499 0)
(0.0144178 0.00204849 0)
(0.00896044 0.00120441 0)
(0.0046898 0.000520472 0)
(0.00175525 0.000116707 0)
(0.000136374 -0.000171011 0)
(-0.000238242 -0.000345908 0)
(1.41075e-05 -0.000385604 0)
(0.00184243 -0.00213919 0)
(0.00532317 -0.00359948 0)
(0.0091983 -0.00408681 0)
(0.0127625 -0.00368917 0)
(0.0155952 -0.00279735 0)
(0.0175184 -0.00171282 0)
(0.0185619 -0.000728933 0)
(0.0188509 -3.31226e-05 0)
(0.0185523 0.000345053 0)
(0.0178665 0.000447749 0)
(0.0169659 0.000359422 0)
(0.0159372 0.00020495 0)
(0.0147714 9.95785e-05 0)
(0.0133947 0.000107883 0)
(0.0117023 0.000242725 0)
(0.0096082 0.00048179 0)
(0.00704242 0.000811187 0)
(0.00389164 0.0012459 0)
(4.92449e-05 0.00179556 0)
(-0.00459417 0.0024645 0)
(-0.0102824 0.00327251 0)
(-0.0170852 0.00418003 0)
(-0.0250751 0.00518198 0)
(-0.034298 0.00629582 0)
(-0.0448593 0.00752819 0)
(-0.05663 0.00890257 0)
(-0.069256 0.0104179 0)
(-0.0823457 0.0120048 0)
(-0.0953604 0.0134783 0)
(-0.107818 0.0145538 0)
(-0.119898 0.015206 0)
(-0.131318 0.0154448 0)
(-0.141999 0.0153004 0)
(-0.151843 0.0148432 0)
(-0.160788 0.0141248 0)
(-0.168792 0.013202 0)
(-0.175823 0.012119 0)
(-0.181869 0.0109137 0)
(-0.186913 0.00961397 0)
(-0.190942 0.00823704 0)
(-0.193958 0.00679908 0)
(-0.195947 0.00530701 0)
(-0.196911 0.00377151 0)
(-0.196837 0.00220209 0)
(-0.195689 0.000612831 0)
(-0.193485 -0.00102058 0)
(-0.190215 -0.00274688 0)
(-0.185822 -0.0044991 0)
(-0.180371 -0.00628999 0)
(-0.173787 -0.00809408 0)
(-0.166113 -0.00989769 0)
(-0.157317 -0.0116767 0)
(-0.14743 -0.0134006 0)
(-0.136458 -0.0150349 0)
(-0.124497 -0.0165296 0)
(-0.11165 -0.0178498 0)
(-0.0980218 -0.0189312 0)
(-0.083796 -0.0197077 0)
(-0.0691867 -0.0201284 0)
(-0.054408 -0.0201265 0)
(-0.039719 -0.0196638 0)
(-0.0254012 -0.0187185 0)
(-0.0117769 -0.0173186 0)
(0.000874858 -0.0153858 0)
(0.0122987 -0.0129939 0)
(0.0222192 -0.0101911 0)
(0.0303963 -0.00707322 0)
(0.0366629 -0.00372349 0)
(0.0408461 -0.000328032 0)
(0.0429314 0.00287208 0)
(0.0427965 0.00580821 0)
(0.0405308 0.00821229 0)
(0.0363765 0.00970405 0)
(0.0303313 0.0099151 0)
(0.022934 0.00895481 0)
(0.0151891 0.00709915 0)
(0.0082017 0.00478189 0)
(0.00304885 0.0023053 0)
(0.000224401 0.000267891 0)
(0.000206928 -0.0016578 0)
(0.00326068 -0.00548987 0)
(0.00760455 -0.00776091 0)
(0.0116539 -0.00802341 0)
(0.0149712 -0.00689211 0)
(0.017348 -0.0050453 0)
(0.0188141 -0.00306412 0)
(0.019431 -0.00127946 0)
(0.0192756 0.000124686 0)
(0.0184543 0.00106522 0)
(0.0171138 0.00157572 0)
(0.0153305 0.001804 0)
(0.0131196 0.00195007 0)
(0.0104415 0.00219195 0)
(0.00720399 0.00263952 0)
(0.0033073 0.00331627 0)
(-0.0013782 0.00421402 0)
(-0.00701038 0.00534212 0)
(-0.013716 0.00672398 0)
(-0.0216142 0.00839285 0)
(-0.0307862 0.0103512 0)
(-0.0411974 0.0125319 0)
(-0.0528275 0.0148543 0)
(-0.0655211 0.0171972 0)
(-0.0790182 0.0194325 0)
(-0.0930105 0.0214703 0)
(-0.107126 0.0232116 0)
(-0.121046 0.0245951 0)
(-0.134434 0.0255647 0)
(-0.147037 0.026099 0)
(-0.158702 0.0261896 0)
(-0.169378 0.0258384 0)
(-0.179009 0.0250914 0)
(-0.187656 0.0239856 0)
(-0.195319 0.02257 0)
(-0.202036 0.0209142 0)
(-0.207829 0.0190662 0)
(-0.212722 0.0170696 0)
(-0.216726 0.0149558 0)
(-0.219855 0.0127601 0)
(-0.222116 0.0104911 0)
(-0.223509 0.00816236 0)
(-0.224033 0.00578063 0)
(-0.223679 0.00334548 0)
(-0.222435 0.000859375 0)
(-0.220283 -0.001683 0)
(-0.217191 -0.00429526 0)
(-0.213149 -0.00697291 0)
(-0.20813 -0.00968298 0)
(-0.202121 -0.012442 0)
(-0.195095 -0.0152223 0)
(-0.187046 -0.0180079 0)
(-0.177961 -0.0207652 0)
(-0.167851 -0.0234517 0)
(-0.156737 -0.0260075 0)
(-0.144668 -0.0283632 0)
(-0.131729 -0.0304502 0)
(-0.11801 -0.0321711 0)
(-0.103639 -0.0334356 0)
(-0.0888088 -0.03415 0)
(-0.0737364 -0.0342254 0)
(-0.0586541 -0.0335887 0)
(-0.043851 -0.0322152 0)
(-0.0296289 -0.0301083 0)
(-0.0162562 -0.027258 0)
(-0.00396231 -0.0237075 0)
(0.00700163 -0.0195308 0)
(0.0164236 -0.0148468 0)
(0.0241692 -0.00980703 0)
(0.0301237 -0.00459515 0)
(0.034269 0.000565672 0)
(0.0365656 0.00544173 0)
(0.03688 0.00968628 0)
(0.0351262 0.0130556 0)
(0.0316408 0.0152601 0)
(0.0264699 0.0157618 0)
(0.019825 0.0146394 0)
(0.0126006 0.0119744 0)
(0.00588253 0.00790029 0)
(0.000783585 0.00292299 0)
(0.000434893 -0.00365396 0)
(0.00435148 -0.00969656 0)
(0.00878763 -0.0120565 0)
(0.0123352 -0.0115107 0)
(0.0148814 -0.00936927 0)
(0.0164253 -0.00658363 0)
(0.0170711 -0.00373393 0)
(0.016913 -0.00116619 0)
(0.0160326 0.000920168 0)
(0.0144864 0.00245697 0)
(0.0122716 0.00353043 0)
(0.00936374 0.00433477 0)
(0.00570977 0.00510898 0)
(0.0012379 0.00605943 0)
(-0.00412541 0.00730657 0)
(-0.0104821 0.008901 0)
(-0.017952 0.0108565 0)
(-0.0266519 0.0131747 0)
(-0.0366575 0.015843 0)
(-0.0479744 0.0188231 0)
(-0.060507 0.0220157 0)
(-0.0740447 0.0252689 0)
(-0.0882913 0.0284047 0)
(-0.102875 0.0312571 0)
(-0.117497 0.0337297 0)
(-0.131814 0.0356366 0)
(-0.145535 0.0368916 0)
(-0.158387 0.0375182 0)
(-0.170217 0.0375771 0)
(-0.180992 0.0371193 0)
(-0.190692 0.0361999 0)
(-0.199378 0.0348574 0)
(-0.207093 0.0331342 0)
(-0.213906 0.0310989 0)
(-0.219858 0.0288 0)
(-0.225009 0.0262916 0)
(-0.22939 0.0236153 0)
(-0.233027 0.0208135 0)
(-0.235939 0.0179086 0)
(-0.238136 0.0149214 0)
(-0.23962 0.011863 0)
(-0.240384 0.00873876 0)
(-0.24042 0.00554904 0)
(-0.239712 0.00229219 0)
(-0.238243 -0.00103281 0)
(-0.235983 -0.00443473 0)
(-0.232903 -0.00791677 0)
(-0.228977 -0.0114885 0)
(-0.224172 -0.015132 0)
(-0.218461 -0.0188428 0)
(-0.211813 -0.0225993 0)
(-0.204205 -0.0263778 0)
(-0.195613 -0.0301391 0)
(-0.186026 -0.0338263 0)
(-0.17544 -0.0373578 0)
(-0.163878 -0.0406376 0)
(-0.15139 -0.0435729 0)
(-0.138052 -0.0460454 0)
(-0.123965 -0.0479146 0)
(-0.10927 -0.0490425 0)
(-0.0941664 -0.0493103 0)
(-0.078866 -0.0486091 0)
(-0.0636367 -0.0468725 0)
(-0.0488018 -0.0440768 0)
(-0.0347006 -0.0402949 0)
(-0.0215817 -0.0355855 0)
(-0.00967833 -0.0300394 0)
(0.000793695 -0.0238178 0)
(0.00968231 -0.0171339 0)
(0.0168824 -0.0102255 0)
(0.0223487 -0.00333796 0)
(0.026095 0.00329954 0)
(0.0281731 0.00937978 0)
(0.0285742 0.0144983 0)
(0.0271761 0.0183097 0)
(0.0240243 0.0205107 0)
(0.0192849 0.0206656 0)
(0.0133688 0.0186326 0)
(0.00695567 0.0142246 0)
(0.0010796 0.00671244 0)
(0.000724123 -0.00622104 0)
(0.00504075 -0.0141357 0)
(0.00893564 -0.01587 0)
(0.0115958 -0.0141869 0)
(0.0131675 -0.0109395 0)
(0.0137281 -0.00719885 0)
(0.0134276 -0.0035186 0)
(0.012353 -0.000207264 0)
(0.0105409 0.002581 0)
(0.00797669 0.00483485 0)
(0.00459438 0.00667517 0)
(0.000303698 0.00832096 0)
(-0.00498908 0.0100215 0)
(-0.0113718 0.0119838 0)
(-0.0189251 0.0143374 0)
(-0.0277246 0.0171381 0)
(-0.0378255 0.0203884 0)
(-0.0492412 0.0240491 0)
(-0.061899 0.0280153 0)
(-0.0756133 0.0321355 0)
(-0.0900847 0.0361819 0)
(-0.104955 0.0399563 0)
(-0.119865 0.0433187 0)
(-0.134509 0.0459956 0)
(-0.148505 0.0478654 0)
(-0.161548 0.0489481 0)
(-0.173557 0.0492673 0)
(-0.18448 0.0488844 0)
(-0.194369 0.047903 0)
(-0.203265 0.0464162 0)
(-0.211232 0.044506 0)
(-0.218354 0.0422374 0)
(-0.22468 0.039662 0)
(-0.230268 0.0368314 0)
(-0.235166 0.0337881 0)
(-0.239417 0.0305725 0)
(-0.243042 0.0272191 0)
(-0.246065 0.0237569 0)
(-0.248498 0.020201 0)
(-0.250344 0.0165652 0)
(-0.251599 0.012853 0)
(-0.252255 0.00906571 0)
(-0.2523 0.00519542 0)
(-0.251711 0.00123663 0)
(-0.250475 -0.00281281 0)
(-0.248556 -0.00696683 0)
(-0.245922 -0.0112331 0)
(-0.242543 -0.015619 0)
(-0.23838 -0.0201187 0)
(-0.233386 -0.0247198 0)
(-0.227525 -0.0294041 0)
(-0.220755 -0.0341441 0)
(-0.213038 -0.0388947 0)
(-0.204336 -0.0435901 0)
(-0.19463 -0.0481344 0)
(-0.183894 -0.0524027 0)
(-0.172159 -0.0562837 0)
(-0.159463 -0.0596272 0)
(-0.145876 -0.0622518 0)
(-0.131507 -0.0639859 0)
(-0.116519 -0.0646689 0)
(-0.101101 -0.0641328 0)
(-0.0855079 -0.0622733 0)
(-0.0699929 -0.0590314 0)
(-0.0549381 -0.0544473 0)
(-0.0407459 -0.0486578 0)
(-0.0276635 -0.0417979 0)
(-0.0159237 -0.0340791 0)
(-0.0057257 -0.02576 0)
(0.00279222 -0.0171429 0)
(0.00956675 -0.0085362 0)
(0.0146144 -0.000228586 0)
(0.0180054 0.00747897 0)
(0.0198101 0.0142631 0)
(0.0200419 0.0197524 0)
(0.0187055 0.0235034 0)
(0.0158094 0.0250699 0)
(0.0115674 0.024137 0)
(0.00634337 0.0200973 0)
(0.000956758 0.0105422 0)
(0.00104343 -0.00919093 0)
(0.00523012 -0.0182009 0)
(0.00814821 -0.0186959 0)
(0.00967101 -0.015808 0)
(0.0101628 -0.0114558 0)
(0.00968176 -0.00680839 0)
(0.00837377 -0.00232712 0)
(0.00628244 0.00174422 0)
(0.00338906 0.00531147 0)
(-0.000377314 0.0084138 0)
(-0.00512507 0.0112065 0)
(-0.0109702 0.0139178 0)
(-0.0180142 0.0167853 0)
(-0.0263355 0.0199977 0)
(-0.0359848 0.0236639 0)
(-0.0469707 0.0278038 0)
(-0.0592395 0.0323563 0)
(-0.0726551 0.0372163 0)
(-0.0869822 0.0421498 0)
(-0.101852 0.0468993 0)
(-0.116915 0.0512949 0)
(-0.131821 0.0549898 0)
(-0.146117 0.0577958 0)
(-0.159452 0.0596584 0)
(-0.171694 0.0605421 0)
(-0.182858 0.0605387 0)
(-0.192993 0.0597761 0)
(-0.202168 0.0583821 0)
(-0.21047 0.056468 0)
(-0.217954 0.0541198 0)
(-0.224693 0.0514141 0)
(-0.230741 0.0484045 0)
(-0.236144 0.0451418 0)
(-0.240951 0.0416698 0)
(-0.245196 0.038022 0)
(-0.248905 0.0342281 0)
(-0.252094 0.0303132 0)
(-0.254776 0.0263042 0)
(-0.256962 0.0222097 0)
(-0.258654 0.0180359 0)
(-0.259851 0.0137815 0)
(-0.260547 0.00944399 0)
(-0.260738 0.00500711 0)
(-0.260409 0.000454585 0)
(-0.259571 -0.00423759 0)
(-0.258173 -0.00907054 0)
(-0.25618 -0.0140483 0)
(-0.253555 -0.0191754 0)
(-0.250257 -0.0244568 0)
(-0.246237 -0.0298805 0)
(-0.24143 -0.0354268 0)
(-0.235771 -0.0410598 0)
(-0.229189 -0.0467243 0)
(-0.221628 -0.0523587 0)
(-0.21312 -0.0579229 0)
(-0.203537 -0.0632343 0)
(-0.192853 -0.0681442 0)
(-0.18109 -0.0724843 0)
(-0.168272 -0.0760289 0)
(-0.154453 -0.0785682 0)
(-0.139786 -0.0798976 0)
(-0.124401 -0.0797954 0)
(-0.108554 -0.0781321 0)
(-0.0924956 -0.0747499 0)
(-0.0765291 -0.0696423 0)
(-0.0610935 -0.062938 0)
(-0.0466266 -0.054891 0)
(-0.0333913 -0.0457403 0)
(-0.021647 -0.0358004 0)
(-0.0115933 -0.0254468 0)
(-0.00334542 -0.0150714 0)
(0.00308129 -0.00504788 0)
(0.00776046 0.00428691 0)
(0.0108218 0.0126144 0)
(0.0123768 0.019608 0)
(0.0124795 0.0248402 0)
(0.0111356 0.0278335 0)
(0.00844537 0.02812 0)
(0.00474732 0.0247776 0)
(0.00058572 0.0137215 0)
(0.00129914 -0.0123036 0)
(0.00485875 -0.0213743 0)
(0.00645282 -0.0204111 0)
(0.00684739 -0.0162211 0)
(0.00617338 -0.0108688 0)
(0.0046174 -0.00536695 0)
(0.00224572 -8.35238e-05 0)
(-0.00095212 0.00480545 0)
(-0.0050438 0.00926008 0)
(-0.0101353 0.0133573 0)
(-0.0163476 0.0172675 0)
(-0.0237917 0.021209 0)
(-0.0325502 0.0253907 0)
(-0.0426631 0.0299614 0)
(-0.0541158 0.0349775 0)
(-0.0668106 0.0403892 0)
(-0.080592 0.0460539 0)
(-0.0951532 0.051721 0)
(-0.110104 0.05717 0)
(-0.12511 0.0620331 0)
(-0.139705 0.0660359 0)
(-0.153411 0.0689819 0)
(-0.166038 0.070793 0)
(-0.17756 0.0715246 0)
(-0.188045 0.0713193 0)
(-0.197564 0.0703139 0)
(-0.206203 0.068639 0)
(-0.214047 0.0664153 0)
(-0.221166 0.0637396 0)
(-0.227612 0.0606916 0)
(-0.233437 0.0573362 0)
(-0.238676 0.053721 0)
(-0.243371 0.0498892 0)
(-0.247552 0.0458765 0)
(-0.251247 0.0417136 0)
(-0.254473 0.0374281 0)
(-0.257244 0.0330451 0)
(-0.259565 0.0285844 0)
(-0.26145 0.0240489 0)
(-0.262899 0.0194422 0)
(-0.263939 0.014704 0)
(-0.264556 0.00990042 0)
(-0.26474 0.00499689 0)
(-0.264483 -1.87733e-05 0)
(-0.263766 -0.00517674 0)
(-0.26263 -0.0104857 0)
(-0.26106 -0.0159768 0)
(-0.259047 -0.0216779 0)
(-0.256573 -0.0276247 0)
(-0.2536 -0.0337791 0)
(-0.250056 -0.0401255 0)
(-0.245869 -0.0466464 0)
(-0.24095 -0.0533019 0)
(-0.235188 -0.0600168 0)
(-0.228379 -0.066642 0)
(-0.220449 -0.0730257 0)
(-0.211255 -0.0789793 0)
(-0.200869 -0.0843925 0)
(-0.189305 -0.0890445 0)
(-0.176473 -0.0926099 0)
(-0.16254 -0.0948618 0)
(-0.147536 -0.0954853 0)
(-0.131739 -0.0943125 0)
(-0.115343 -0.0911379 0)
(-0.0986782 -0.0858831 0)
(-0.0820873 -0.0785796 0)
(-0.0661177 -0.0695056 0)
(-0.0512493 -0.0590284 0)
(-0.0377663 -0.0474991 0)
(-0.0259517 -0.0353656 0)
(-0.016006 -0.0231199 0)
(-0.00801679 -0.0112475 0)
(-0.00195175 -0.00017768 0)
(0.00234558 0.00973833 0)
(0.00507162 0.0181931 0)
(0.00636958 0.0248183 0)
(0.00632242 0.0291674 0)
(0.00499056 0.0306277 0)
(0.00276753 0.027994 0)
(0.000120023 0.0157623 0)
(0.0013981 -0.0152081 0)
(0.00382141 -0.0233848 0)
(0.00416858 -0.0208703 0)
(0.00331015 -0.0154068 0)
(0.00147871 -0.0091606 0)
(-0.00118029 -0.00283572 0)
(-0.00466692 0.00328 0)
(-0.0090394 0.00906513 0)
(-0.0143975 0.0145162 0)
(-0.020856 0.0197288 0)
(-0.0285248 0.0248689 0)
(-0.0374879 0.0301274 0)
(-0.0477846 0.0356655 0)
(-0.0593932 0.0415651 0)
(-0.072212 0.0478146 0)
(-0.0860532 0.0542624 0)
(-0.100575 0.0606498 0)
(-0.115418 0.0667018 0)
(-0.130138 0.0720391 0)
(-0.144242 0.0763578 0)
(-0.157353 0.0794398 0)
(-0.169375 0.0812765 0)
(-0.180329 0.0819769 0)
(-0.190276 0.0816904 0)
(-0.199308 0.0805543 0)
(-0.20751 0.0787085 0)
(-0.214968 0.0762742 0)
(-0.221744 0.0733574 0)
(-0.227889 0.07004 0)
(-0.23344 0.0663927 0)
(-0.238432 0.0624722 0)
(-0.242895 0.0583252 0)
(-0.246856 0.0539933 0)
(-0.250336 0.0495136 0)
(-0.253349 0.0449246 0)
(-0.255897 0.0402605 0)
(-0.258085 0.0354522 0)
(-0.259923 0.0305567 0)
(-0.261412 0.0255802 0)
(-0.262552 0.0205234 0)
(-0.263338 0.0154331 0)
(-0.263772 0.0102334 0)
(-0.263857 0.00493354 0)
(-0.263599 -0.000486304 0)
(-0.262992 -0.00603511 0)
(-0.262065 -0.0117302 0)
(-0.260799 -0.0175948 0)
(-0.259189 -0.0236396 0)
(-0.257214 -0.02987 0)
(-0.254856 -0.0363637 0)
(-0.252102 -0.0431413 0)
(-0.248921 -0.0501964 0)
(-0.245269 -0.0575119 0)
(-0.241088 -0.0650615 0)
(-0.236298 -0.0728116 0)
(-0.23077 -0.0805309 0)
(-0.224215 -0.0879941 0)
(-0.216301 -0.0948862 0)
(-0.206743 -0.100793 0)
(-0.195559 -0.105528 0)
(-0.183065 -0.109017 0)
(-0.169068 -0.110724 0)
(-0.153864 -0.11045 0)
(-0.1376 -0.107896 0)
(-0.120609 -0.102932 0)
(-0.103206 -0.0955054 0)
(-0.0858517 -0.0857191 0)
(-0.0692521 -0.0740667 0)
(-0.0539106 -0.0610496 0)
(-0.0401499 -0.047136 0)
(-0.0282779 -0.0329205 0)
(-0.0184897 -0.0190194 0)
(-0.0108347 -0.00600273 0)
(-0.00520082 0.00567185 0)
(-0.00135437 0.0156551 0)
(0.000983362 0.0236561 0)
(0.00201106 0.0292681 0)
(0.00187016 0.0318231 0)
(0.000897203 0.0297122 0)
(-0.000262002 0.0165756 0)
(0.0013004 -0.0175997 0)
(0.00235957 -0.0240908 0)
(0.00138552 -0.0199582 0)
(-0.000709046 -0.0134257 0)
(-0.0036816 -0.00632947 0)
(-0.00746151 0.000818976 0)
(-0.0120937 0.00781152 0)
(-0.0176696 0.0145662 0)
(-0.024298 0.021097 0)
(-0.032082 0.0274973 0)
(-0.0411024 0.0339103 0)
(-0.0513987 0.0404816 0)
(-0.062947 0.0473047 0)
(-0.0756673 0.0543946 0)
(-0.0893618 0.0616236 0)
(-0.103661 0.0687301 0)
(-0.118217 0.0753798 0)
(-0.132555 0.0812093 0)
(-0.146139 0.0858665 0)
(-0.158748 0.0891869 0)
(-0.170278 0.0911696 0)
(-0.18076 0.0919577 0)
(-0.190261 0.0916794 0)
(-0.198877 0.0905012 0)
(-0.206691 0.0885584 0)
(-0.21378 0.0859844 0)
(-0.220204 0.0828823 0)
(-0.226004 0.0793436 0)
(-0.231216 0.0754412 0)
(-0.23587 0.0712403 0)
(-0.239995 0.066795 0)
(-0.243618 0.0621532 0)
(-0.246764 0.057358 0)
(-0.249473 0.0524298 0)
(-0.251814 0.0473776 0)
(-0.253806 0.0422326 0)
(-0.255425 0.0370709 0)
(-0.256671 0.0318557 0)
(-0.257562 0.0265789 0)
(-0.25812 0.0212373 0)
(-0.258382 0.0158282 0)
(-0.258385 0.0103334 0)
(-0.258154 0.00474875 0)
(-0.257715 -0.000945856 0)
(-0.257082 -0.00676724 0)
(-0.256221 -0.0127448 0)
(-0.255158 -0.0189093 0)
(-0.253886 -0.0252882 0)
(-0.252403 -0.0319045 0)
(-0.2507 -0.0387755 0)
(-0.248758 -0.0459111 0)
(-0.246543 -0.0533159 0)
(-0.24401 -0.0609771 0)
(-0.241095 -0.068854 0)
(-0.2377 -0.0768703 0)
(-0.233757 -0.0851463 0)
(-0.229228 -0.0935699 0)
(-0.223926 -0.101939 0)
(-0.217594 -0.109813 0)
(-0.209727 -0.116672 0)
(-0.199614 -0.121712 0)
(-0.187508 -0.124834 0)
(-0.173727 -0.125918 0)
(-0.158309 -0.124496 0)
(-0.141585 -0.120339 0)
(-0.123921 -0.113346 0)
(-0.105645 -0.103442 0)
(-0.0874264 -0.0909463 0)
(-0.0701131 -0.07656 0)
(-0.0542709 -0.0609498 0)
(-0.040263 -0.0447187 0)
(-0.0284166 -0.0286213 0)
(-0.0189069 -0.0133959 0)
(-0.01172 0.000320153 0)
(-0.00664358 0.0120558 0)
(-0.00331864 0.02151 0)
(-0.00139477 0.0283421 0)
(-0.000559541 0.0318278 0)
(-0.000434302 0.0301381 0)
(-0.000381511 0.0164464 0)
(0.00104586 -0.0189376 0)
(0.000615095 -0.0233819 0)
(-0.00170404 -0.0177386 0)
(-0.00498091 -0.0102752 0)
(-0.00908566 -0.00236912 0)
(-0.0139909 0.00561298 0)
(-0.0197685 0.013521 0)
(-0.0265255 0.021295 0)
(-0.0343622 0.0289459 0)
(-0.0433547 0.0365459 0)
(-0.0535416 0.0441977 0)
(-0.0649027 0.0519851 0)
(-0.0773741 0.0599406 0)
(-0.0907809 0.0679671 0)
(-0.104759 0.0757965 0)
(-0.118918 0.0830865 0)
(-0.132811 0.0894629 0)
(-0.145958 0.0945544 0)
(-0.158132 0.0982182 0)
(-0.169256 0.10048 0)
(-0.179333 0.101435 0)
(-0.188452 0.101257 0)
(-0.196694 0.100105 0)
(-0.204145 0.0981347 0)
(-0.210869 0.0954714 0)
(-0.216919 0.0922308 0)
(-0.222333 0.0885035 0)
(-0.227146 0.0843728 0)
(-0.231389 0.0799082 0)
(-0.235093 0.0751735 0)
(-0.238294 0.0702227 0)
(-0.241025 0.0651033 0)
(-0.243328 0.0598545 0)
(-0.245229 0.054518 0)
(-0.246727 0.0491253 0)
(-0.247875 0.0436714 0)
(-0.248686 0.0381753 0)
(-0.249214 0.0326327 0)
(-0.249501 0.0270569 0)
(-0.249589 0.0214497 0)
(-0.249484 0.0158076 0)
(-0.2492 0.0101118 0)
(-0.248756 0.00434741 0)
(-0.248168 -0.00150949 0)
(-0.247439 -0.00748172 0)
(-0.246579 -0.0136023 0)
(-0.245607 -0.0198977 0)
(-0.244528 -0.0264003 0)
(-0.243353 -0.0331417 0)
(-0.242082 -0.040155 0)
(-0.240717 -0.0474684 0)
(-0.239247 -0.0551057 0)
(-0.237649 -0.0630787 0)
(-0.23588 -0.071377 0)
(-0.233867 -0.0799546 0)
(-0.231523 -0.0887265 0)
(-0.228728 -0.0975777 0)
(-0.225302 -0.106339 0)
(-0.221092 -0.115099 0)
(-0.215994 -0.123589 0)
(-0.209584 -0.131167 0)
(-0.201194 -0.136984 0)
(-0.189907 -0.139907 0)
(-0.176364 -0.140189 0)
(-0.160753 -0.13743 0)
(-0.143547 -0.131507 0)
(-0.125063 -0.122195 0)
(-0.10582 -0.109577 0)
(-0.0866503 -0.0941707 0)
(-0.0685792 -0.0769349 0)
(-0.0522656 -0.0587361 0)
(-0.0381092 -0.0403339 0)
(-0.0264417 -0.0226542 0)
(-0.0173898 -0.00654818 0)
(-0.0108419 0.00729986 0)
(-0.00643823 0.018445 0)
(-0.00367341 0.0265714 0)
(-0.00210024 0.0308467 0)
(-0.00113718 0.0295959 0)
(-0.000359172 0.0158667 0)
(0.000720217 -0.0192786 0)
(-0.00130829 -0.0212554 0)
(-0.00490033 -0.014288 0)
(-0.00932114 -0.00596732 0)
(-0.014541 0.00271487 0)
(-0.0205458 0.011531 0)
(-0.0274281 0.0203727 0)
(-0.0352925 0.0291794 0)
(-0.0442177 0.0379395 0)
(-0.0542427 0.0466873 0)
(-0.0653532 0.055471 0)
(-0.0774983 0.0643218 0)
(-0.090531 0.073172 0)
(-0.104118 0.0817607 0)
(-0.117853 0.0897353 0)
(-0.131301 0.0967222 0)
(-0.144061 0.102374 0)
(-0.155872 0.10651 0)
(-0.166645 0.109144 0)
(-0.176386 0.110376 0)
(-0.185163 0.110378 0)
(-0.193068 0.109329 0)
(-0.200168 0.107384 0)
(-0.206525 0.104682 0)
(-0.212182 0.101335 0)
(-0.217177 0.0974478 0)
(-0.221542 0.093107 0)
(-0.225312 0.088395 0)
(-0.228525 0.0833838 0)
(-0.231222 0.0781395 0)
(-0.233446 0.0727184 0)
(-0.23524 0.0671689 0)
(-0.236647 0.0615291 0)
(-0.237706 0.0558295 0)
(-0.238457 0.0500932 0)
(-0.238947 0.0443349 0)
(-0.239206 0.0385727 0)
(-0.23927 0.0328095 0)
(-0.239162 0.0270448 0)
(-0.238903 0.0212706 0)
(-0.238506 0.015476 0)
(-0.237987 0.0096433 0)
(-0.237361 0.00375478 0)
(-0.23664 -0.00221243 0)
(-0.235835 -0.00828133 0)
(-0.234959 -0.0144834 0)
(-0.234028 -0.0208463 0)
(-0.233056 -0.0274019 0)
(-0.232058 -0.0341825 0)
(-0.231047 -0.0412226 0)
(-0.230035 -0.0485552 0)
(-0.229031 -0.0562115 0)
(-0.228034 -0.0642176 0)
(-0.227031 -0.0725911 0)
(-0.225988 -0.0813375 0)
(-0.224847 -0.0904411 0)
(-0.223515 -0.09983 0)
(-0.221844 -0.109362 0)
(-0.219653 -0.118809 0)
(-0.216695 -0.127905 0)
(-0.21266 -0.136566 0)
(-0.207408 -0.144567 0)
(-0.200308 -0.150797 0)
(-0.190268 -0.153979 0)
(-0.176952 -0.15329 0)
(-0.16121 -0.149176 0)
(-0.143374 -0.141221 0)
(-0.123952 -0.129341 0)
(-0.103655 -0.113781 0)
(-0.0834921 -0.0952862 0)
(-0.0646941 -0.0751328 0)
(-0.0480214 -0.0544193 0)
(-0.0339029 -0.0340976 0)
(-0.0226418 -0.0152678 0)
(-0.0142745 0.00112092 0)
(-0.00854039 0.0143737 0)
(-0.00485474 0.0240465 0)
(-0.00269411 0.0291761 0)
(-0.00122257 0.028459 0)
(-0.000189322 0.0150562 0)
(0.000128141 -0.0184295 0)
(-0.00332361 -0.0177798 0)
(-0.00807909 -0.00962324 0)
(-0.0135897 -0.000540207 0)
(-0.0198761 0.00888138 0)
(-0.0269212 0.0185192 0)
(-0.0348243 0.0282848 0)
(-0.0436776 0.0380966 0)
(-0.0535287 0.0479042 0)
(-0.0643716 0.0576914 0)
(-0.0761646 0.0674601 0)
(-0.0887881 0.0771593 0)
(-0.101951 0.086545 0)
(-0.115258 0.0952656 0)
(-0.128295 0.102947 0)
(-0.140706 0.109262 0)
(-0.15222 0.114001 0)
(-0.162699 0.117118 0)
(-0.172157 0.118731 0)
(-0.180644 0.119004 0)
(-0.188241 0.118128 0)
(-0.195016 0.116268 0)
(-0.201017 0.113568 0)
(-0.206288 0.110151 0)
(-0.210862 0.106127 0)
(-0.21478 0.101595 0)
(-0.218081 0.0966479 0)
(-0.220814 0.0913712 0)
(-0.223032 0.0858414 0)
(-0.224789 0.0801268 0)
(-0.226139 0.0742843 0)
(-0.227134 0.0683609 0)
(-0.227825 0.0623925 0)
(-0.228256 0.0564074 0)
(-0.228469 0.0504264 0)
(-0.228498 0.0444634 0)
(-0.22837 0.0385267 0)
(-0.228107 0.0326127 0)
(-0.227724 0.0267162 0)
(-0.227236 0.0208257 0)
(-0.226654 0.0149268 0)
(-0.225989 0.00900256 0)
(-0.225254 0.00303401 0)
(-0.224457 -0.00300071 0)
(-0.22361 -0.00912504 0)
(-0.222727 -0.0153672 0)
(-0.221821 -0.0217549 0)
(-0.220909 -0.028319 0)
(-0.220008 -0.0350912 0)
(-0.219138 -0.0421055 0)
(-0.218318 -0.0493958 0)
(-0.217568 -0.0569959 0)
(-0.216901 -0.0649365 0)
(-0.216327 -0.0732445 0)
(-0.215843 -0.0819408 0)
(-0.215429 -0.0910355 0)
(-0.21504 -0.100516 0)
(-0.214585 -0.110336 0)
(-0.213925 -0.12039 0)
(-0.212846 -0.130452 0)
(-0.211066 -0.140156 0)
(-0.208213 -0.149064 0)
(-0.203877 -0.157091 0)
(-0.197702 -0.16353 0)
(-0.188657 -0.166745 0)
(-0.175633 -0.16524 0)
(-0.159652 -0.159595 0)
(-0.141032 -0.149347 0)
(-0.120561 -0.134633 0)
(-0.0991419 -0.115885 0)
(-0.0780224 -0.0941469 0)
(-0.058632 -0.0710688 0)
(-0.0418292 -0.0480205 0)
(-0.0280422 -0.0261842 0)
(-0.0174926 -0.00683275 0)
(-0.0100729 0.00903821 0)
(-0.00525624 0.0207064 0)
(-0.00248665 0.0270873 0)
(-0.000799381 0.0271614 0)
(6.56532e-05 0.0144849 0)
(-0.000462901 -0.0163147 0)
(-0.00529025 -0.0130004 0)
(-0.0111197 -0.0038281 0)
(-0.0176516 0.00593638 0)
(-0.0249297 0.0160555 0)
(-0.032925 0.0264866 0)
(-0.0417337 0.037137 0)
(-0.0514273 0.0478878 0)
(-0.0620163 0.0586382 0)
(-0.0734671 0.0693258 0)
(-0.0856824 0.0798888 0)
(-0.0984168 0.0900981 0)
(-0.111308 0.0996215 0)
(-0.123974 0.108081 0)
(-0.136078 0.115158 0)
(-0.147348 0.120615 0)
(-0.157606 0.124348 0)
(-0.166833 0.126448 0)
(-0.175083 0.127092 0)
(-0.182417 0.126467 0)
(-0.188902 0.124756 0)
(-0.194583 0.12211 0)
(-0.1995 0.118662 0)
(-0.203691 0.114535 0)
(-0.2072 0.109839 0)
(-0.210079 0.104682 0)
(-0.212387 0.0991635 0)
(-0.21419 0.0933731 0)
(-0.215552 0.0873899 0)
(-0.216538 0.0812812 0)
(-0.217206 0.0751012 0)
(-0.217611 0.068892 0)
(-0.217797 0.0626847 0)
(-0.217806 0.0565017 0)
(-0.217668 0.0503569 0)
(-0.217408 0.0442565 0)
(-0.217045 0.0382014 0)
(-0.216591 0.0321845 0)
(-0.216058 0.0261969 0)
(-0.215452 0.0202259 0)
(-0.214782 0.0142559 0)
(-0.214055 0.00826961 0)
(-0.213278 0.00224805 0)
(-0.212457 -0.00382976 0)
(-0.211603 -0.00998643 0)
(-0.210726 -0.0162471 0)
(-0.209841 -0.022638 0)
(-0.208964 -0.0291873 0)
(-0.208112 -0.0359249 0)
(-0.207309 -0.0428829 0)
(-0.206578 -0.0500944 0)
(-0.205944 -0.0575939 0)
(-0.205431 -0.0654154 0)
(-0.205061 -0.073592 0)
(-0.204849 -0.0821531 0)
(-0.204801 -0.0911208 0)
(-0.204906 -0.100503 0)
(-0.205125 -0.11029 0)
(-0.205382 -0.120442 0)
(-0.205541 -0.130866 0)
(-0.205384 -0.141383 0)
(-0.204597 -0.151641 0)
(-0.202767 -0.161068 0)
(-0.199337 -0.169038 0)
(-0.193806 -0.175389 0)
(-0.185323 -0.178357 0)
(-0.17251 -0.17601 0)
(-0.156082 -0.168571 0)
(-0.136527 -0.155734 0)
(-0.114896 -0.137854 0)
(-0.0923453 -0.115648 0)
(-0.0704105 -0.0905433 0)
(-0.0507068 -0.0646428 0)
(-0.0341505 -0.0395987 0)
(-0.0211112 -0.0168916 0)
(-0.0116661 0.00211767 0)
(-0.0054328 0.0163843 0)
(-0.00190817 0.0246477 0)
(-9.84757e-05 0.0259775 0)
(0.000360211 0.0143981 0)
(-0.00105731 -0.013024 0)
(-0.00713215 -0.00703665 0)
(-0.0139285 0.00301486 0)
(-0.0213901 0.0133799 0)
(-0.0295641 0.0241437 0)
(-0.0383952 0.0353173 0)
(-0.0479716 0.0467848 0)
(-0.0583393 0.0583764 0)
(-0.0694799 0.0699406 0)
(-0.0813138 0.0813611 0)
(-0.0936359 0.0924031 0)
(-0.106137 0.102768 0)
(-0.118473 0.112081 0)
(-0.130313 0.120008 0)
(-0.141388 0.12629 0)
(-0.151491 0.130768 0)
(-0.160558 0.13348 0)
(-0.168627 0.134598 0)
(-0.175758 0.134318 0)
(-0.182006 0.132829 0)
(-0.187421 0.1303 0)
(-0.192039 0.126874 0)
(-0.195905 0.122687 0)
(-0.19907 0.117866 0)
(-0.201596 0.112535 0)
(-0.203555 0.106807 0)
(-0.205022 0.100787 0)
(-0.206072 0.094566 0)
(-0.206776 0.0882202 0)
(-0.207197 0.081811 0)
(-0.207392 0.0753854 0)
(-0.207407 0.0689774 0)
(-0.207279 0.0626105 0)
(-0.207039 0.0562987 0)
(-0.206707 0.0500483 0)
(-0.206299 0.0438593 0)
(-0.205826 0.0377271 0)
(-0.205294 0.0316425 0)
(-0.204708 0.0255931 0)
(-0.204072 0.0195655 0)
(-0.203388 0.0135442 0)
(-0.202659 0.00751165 0)
(-0.201889 0.00144967 0)
(-0.201082 -0.00466138 0)
(-0.200247 -0.0108423 0)
(-0.199391 -0.0171153 0)
(-0.198528 -0.023504 0)
(-0.197672 -0.0300334 0)
(-0.196842 -0.0367303 0)
(-0.196062 -0.0436236 0)
(-0.195355 -0.050744 0)
(-0.194752 -0.0581244 0)
(-0.194281 -0.0657993 0)
(-0.193973 -0.0738047 0)
(-0.193855 -0.0821762 0)
(-0.193948 -0.0909466 0)
(-0.194264 -0.100141 0)
(-0.194794 -0.109772 0)
(-0.195504 -0.119827 0)
(-0.196319 -0.130263 0)
(-0.197108 -0.140986 0)
(-0.197655 -0.151824 0)
(-0.197631 -0.162468 0)
(-0.196572 -0.172342 0)
(-0.193882 -0.180594 0)
(-0.188794 -0.186556 0)
(-0.180496 -0.188968 0)
(-0.167643 -0.185539 0)
(-0.150522 -0.175974 0)
(-0.129871 -0.160139 0)
(-0.107009 -0.138701 0)
(-0.0834008 -0.112728 0)
(-0.060953 -0.0842069 0)
(-0.0413951 -0.055758 0)
(-0.02564 -0.0293276 0)
(-0.0139023 -0.00665909 0)
(-0.00597974 0.0108466 0)
(-0.00147415 0.0217288 0)
(0.000575117 0.0249367 0)
(0.000569108 0.0147547 0)
(-0.00162061 -0.00862698 0)
(-0.0087849 -9.72367e-06 0)
(-0.016436 0.0107995 0)
(-0.0247232 0.0216857 0)
(-0.0336736 0.03303 0)
(-0.0432074 0.0448772 0)
(-0.0534005 0.0570708 0)
(-0.0642716 0.0693882 0)
(-0.0757666 0.0816143 0)
(-0.087707 0.0934786 0)
(-0.0998503 0.104697 0)
(-0.111895 0.114915 0)
(-0.123513 0.123766 0)
(-0.134441 0.130968 0)
(-0.144449 0.136313 0)
(-0.153429 0.139772 0)
(-0.161389 0.141483 0)
(-0.168383 0.141651 0)
(-0.174465 0.140476 0)
(-0.179679 0.138137 0)
(-0.184071 0.134798 0)
(-0.187686 0.130608 0)
(-0.190585 0.125711 0)
(-0.192838 0.120248 0)
(-0.194529 0.114349 0)
(-0.19574 0.108135 0)
(-0.196556 0.101707 0)
(-0.197053 0.0951529 0)
(-0.1973 0.0885401 0)
(-0.197352 0.0819206 0)
(-0.197256 0.0753315 0)
(-0.19705 0.0687973 0)
(-0.19676 0.0623326 0)
(-0.196404 0.0559436 0)
(-0.195997 0.0496301 0)
(-0.195546 0.0433872 0)
(-0.195054 0.0372062 0)
(-0.194524 0.0310759 0)
(-0.193954 0.024983 0)
(-0.193345 0.0189122 0)
(-0.192695 0.0128486 0)
(-0.192004 0.00677587 0)
(-0.191274 0.000676541 0)
(-0.190507 -0.00546692 0)
(-0.189708 -0.0116732 0)
(-0.188885 -0.0179618 0)
(-0.188047 -0.0243529 0)
(-0.187209 -0.0308681 0)
(-0.186389 -0.0375305 0)
(-0.185608 -0.044365 0)
(-0.184891 -0.0513989 0)
(-0.184268 -0.0586619 0)
(-0.183772 -0.0661866 0)
(-0.183436 -0.0740087 0)
(-0.183296 -0.0821663 0)
(-0.183386 -0.0906986 0)
(-0.183732 -0.0996433 0)
(-0.184347 -0.109032 0)
(-0.185228 -0.118883 0)
(-0.186336 -0.12919 0)
(-0.187594 -0.139905 0)
(-0.188862 -0.150921 0)