/*--------------------------------*- C++ -*----------------------------------*\
  =========                 |
  \\      /  F ield         | OpenFOAM: The Open Source CFD Toolbox
   \\    /   O peration     | Website:  https://openfoam.org
    \\  /    A nd           | Version:  13
     \\/     M anipulation  |
\*---------------------------------------------------------------------------*/
FoamFile
{
    format      ascii;
    class       volScalarField;
    location    "0.5";
    object      epsilon;
}
// * * * * * * * * * * * * * * * * * * * * * * * * * * * * * * * * * * * * * //

dimensions      [0 2 -3 0 0 0 0];

internalField   nonuniform List<scalar> 
400
(
0.00270609
0.00296574
0.00316192
0.00326674
0.00331468
0.00333506
0.00334411
0.00334909
0.0033529
0.00335647
0.00336016
0.0033648
0.00336862
0.00336998
0.00336478
0.00334358
0.00328865
0.00317186
0.00296362
0.00270599
0.00296508
0.00222552
0.00218774
0.00220918
0.00222456
0.00223076
0.00223203
0.00223111
0.00222938
0.00222746
0.00222587
0.00222557
0.00222516
0.00222375
0.00221968
0.00221013
0.00219242
0.00217403
0.00222682
0.002965
0.0031745
0.00217452
0.00203769
0.00201898
0.00201968
0.00202155
0.002022
0.00202139
0.00202035
0.00201928
0.00201843
0.00201797
0.00201751
0.00201662
0.00201482
0.0020124
0.0020135
0.00203943
0.00219175
0.00315938
0.00329439
0.00219398
0.00201336
0.00197362
0.00196557
0.00196443
0.00196418
0.00196371
0.00196306
0.00196247
0.00196206
0.00196191
0.00196186
0.00196178
0.00196194
0.00196423
0.00197607
0.00202368
0.00221658
0.00326071
0.00335473
0.00221283
0.00201373
0.00196402
0.00195131
0.0019484
0.0019477
0.0019473
0.00194691
0.00194662
0.00194655
0.00194671
0.00194708
0.00194769
0.00194922
0.00195431
0.00197151
0.00202855
0.00223678
0.00330353
0.00338359
0.00222399
0.00201782
0.00196417
0.00194937
0.00194561
0.00194469
0.00194433
0.0019441
0.00194403
0.00194419
0.00194463
0.00194536
0.0019465
0.00194891
0.00195557
0.00197546
0.00203649
0.00224987
0.00331695
0.00339849
0.00223025
0.00202179
0.00196675
0.00195126
0.0019472
0.00194618
0.00194585
0.00194573
0.00194581
0.0019462
0.00194695
0.00194807
0.00194979
0.00195308
0.00196104
0.00198269
0.00204577
0.0022612
0.00331803
0.00340855
0.00223448
0.00202542
0.00197022
0.00195456
0.00195035
0.00194925
0.00194892
0.00194887
0.00194912
0.00194977
0.00195092
0.00195265
0.00195525
0.00195979
0.00196949
0.00199328
0.00205856
0.00227548
0.00331281
0.00341812
0.0022385
0.00202943
0.00197447
0.00195884
0.00195449
0.00195322
0.00195277
0.00195271
0.00195309
0.00195408
0.00195581
0.00195847
0.00196252
0.00196922
0.00198194
0.00200961
0.00207891
0.00229797
0.00330333
0.00342939
0.00224347
0.00203458
0.00197994
0.00196424
0.00195954
0.00195786
0.00195712
0.00195694
0.00195741
0.00195879
0.00196133
0.00196542
0.00197184
0.00198229
0.00200068
0.0020361
0.00211409
0.00233704
0.00328903
0.0034439
0.00225037
0.00204173
0.00198724
0.00197108
0.00196559
0.00196312
0.00196175
0.00196126
0.00196169
0.00196348
0.00196707
0.00197321
0.00198332
0.00200015
0.00202893
0.00207988
0.00217696
0.00240722
0.00326724
0.00346345
0.00226041
0.00205188
0.001997
0.00197962
0.00197263
0.00196879
0.00196632
0.00196522
0.00196542
0.00196757
0.00197238
0.00198122
0.00199666
0.00202347
0.00206998
0.00214996
0.00228645
0.00253081
0.0032345
0.0034907
0.0022753
0.00206618
0.00200975
0.00198994
0.00198063
0.00197486
0.00197099
0.00196917
0.00196912
0.00197164
0.0019778
0.00198979
0.00201189
0.00205206
0.00212419
0.00225015
0.00245618
0.00273885
0.00321871
0.00353002
0.00229707
0.00208551
0.00202583
0.00200282
0.00199143
0.00198459
0.00198048
0.00197895
0.00197963
0.00198339
0.00199154
0.00200699
0.00203564
0.00208869
0.00218657
0.00236499
0.00267188
0.00306187
0.0032764
0.00358646
0.00232735
0.00211053
0.0020489
0.00202694
0.00201842
0.00201613
0.00201739
0.00202146
0.00202795
0.00203738
0.0020512
0.00207245
0.00210692
0.00216572
0.0022733
0.00248902
0.00295619
0.00351282
0.00352946
0.00366123
0.00236594
0.0021524
0.00210542
0.00210365
0.00211947
0.00214295
0.00216954
0.00219697
0.00222451
0.00225285
0.00228403
0.00232082
0.00236605
0.00242261
0.00250592
0.00270064
0.00328172
0.00418544
0.00396267
0.00376318
0.00243967
0.00227728
0.0023073
0.00239726
0.00250695
0.00262072
0.00272899
0.00282618
0.00291147
0.00298799
0.0030615
0.00313694
0.00321281
0.00327341
0.00329884
0.00334341
0.00378458
0.00478483
0.00435999
0.00384722
0.00266665
0.00275417
0.00309069
0.00348339
0.00387998
0.00425003
0.00456877
0.00482469
0.00502284
0.00518051
0.00532123
0.00546137
0.00560095
0.00569687
0.00567425
0.00550293
0.0053772
0.00517761
0.00464965
0.00390622
0.00341039
0.00454356
0.00583823
0.00701628
0.00806941
0.00894886
0.00960039
0.0100235
0.0102704
0.0104185
0.0105525
0.0107167
0.0109192
0.0110718
0.0110018
0.0104154
0.00868007
0.00600592
0.00485217
0.00362312
0.00404521
0.00475829
0.00543791
0.0060354
0.00650635
0.00682031
0.00697378
0.00700588
0.00699112
0.00693076
0.00687829
0.00687058
0.00688034
0.00690786
0.00688748
0.00679534
0.00655708
0.00603894
0.00489652
)
;

boundaryField
{
    movingWall
    {
        type            epsilonWallFunction;
        value           nonuniform List<scalar> 
20
(
0.00362312
0.00404521
0.00475829
0.00543791
0.0060354
0.00650635
0.00682031
0.00697378
0.00700588
0.00699112
0.00693076
0.00687829
0.00687058
0.00688034
0.00690786
0.00688748
0.00679534
0.00655708
0.00603894
0.00489652
)
;
    }
    fixedWalls
    {
        type            epsilonWallFunction;
        value           nonuniform List<scalar> 
60
(
0.00270609
0.00296508
0.0031745
0.00329439
0.00335473
0.00338359
0.00339849
0.00340855
0.00341812
0.00342939
0.0034439
0.00346345
0.0034907
0.00353002
0.00358646
0.00366123
0.00376318
0.00384722
0.00390622
0.00362312
0.00270599
0.002965
0.00315938
0.00326071
0.00330353
0.00331695
0.00331803
0.00331281
0.00330333
0.00328903
0.00326724
0.0032345
0.00321871
0.0032764
0.00352946
0.00396267
0.00435999
0.00464965
0.00485217
0.00489652
0.00270609
0.00296574
0.00316192
0.00326674
0.00331468
0.00333506
0.00334411
0.00334909
0.0033529
0.00335647
0.00336016
0.0033648
0.00336862
0.00336998
0.00336478
0.00334358
0.00328865
0.00317186
0.00296362
0.00270599
)
;
    }
    frontAndBack
    {
        type            empty;
    }
}


// ************************************************************************* //
