/*--------------------------------*- C++ -*----------------------------------*\
  =========                 |
  \\      /  F ield         | OpenFOAM: The Open Source CFD Toolbox
   \\    /   O peration     | Website:  https://openfoam.org
    \\  /    A nd           | Version:  13
     \\/     M anipulation  |
\*---------------------------------------------------------------------------*/
FoamFile
{
    format      ascii;
    class       volScalarField;
    location    "0.5";
    object      epsilon;
}
// * * * * * * * * * * * * * * * * * * * * * * * * * * * * * * * * * * * * * //

dimensions      [0 2 -3 0 0 0 0];

internalField   nonuniform List<scalar> 
1600
(
0.000326408
0.00091987
0.00150245
0.00193586
0.00224279
0.00245572
0.00260048
0.00269694
0.00276028
0.00280181
0.00282967
0.00284942
0.00286468
0.00287768
0.00288974
0.00290159
0.00291364
0.00292608
0.00293899
0.00295232
0.00296599
0.00297984
0.002994
0.00300985
0.00302614
0.00304184
0.00305603
0.00306699
0.00307198
0.00306844
0.0030501
0.00300989
0.0029382
0.00282274
0.00264814
0.00239529
0.00204053
0.00155612
0.000928939
0.000326491
0.000928995
0.000955016
0.0012157
0.00142265
0.00156949
0.0016694
0.00173534
0.00177777
0.00180454
0.00182132
0.00183199
0.00183913
0.00184433
0.00184855
0.00185231
0.00185591
0.0018595
0.00186313
0.00186683
0.00187058
0.00187437
0.00187821
0.00188222
0.00188675
0.00189142
0.00189579
0.00189951
0.00190165
0.0019017
0.00189804
0.00188841
0.00186977
0.00183793
0.00178734
0.00171078
0.00159894
0.00143964
0.00122097
0.000954242
0.00091877
0.00155103
0.00122253
0.00135285
0.0014851
0.00158551
0.00165537
0.00170194
0.0017321
0.00175117
0.00176304
0.00177043
0.00177515
0.00177836
0.00178077
0.00178278
0.00178463
0.00178645
0.0017883
0.00179021
0.00179219
0.00179426
0.00179644
0.00179876
0.00180128
0.00180381
0.00180613
0.00180792
0.00180866
0.00180789
0.00180448
0.00179693
0.00178316
0.00176033
0.0017247
0.00167151
0.00159501
0.0014894
0.0013521
0.00121606
0.00149556
0.00203227
0.00144061
0.00149021
0.00157861
0.0016519
0.00170554
0.00174254
0.00176703
0.00178277
0.00179267
0.00179883
0.00180267
0.00180516
0.00180688
0.00180821
0.00180937
0.00181048
0.00181161
0.00181281
0.0018141
0.00181549
0.00181701
0.00181864
0.00182035
0.00182206
0.00182359
0.00182461
0.00182484
0.00182377
0.00182054
0.00181399
0.00180254
0.00178408
0.00175588
0.00171459
0.00165648
0.0015788
0.00148527
0.00142246
0.00192041
0.00238658
0.00160003
0.00159612
0.00165649
0.00171298
0.00175619
0.00178681
0.00180755
0.00182114
0.00182981
0.00183524
0.0018386
0.00184069
0.00184204
0.00184299
0.00184376
0.00184446
0.00184518
0.00184597
0.00184686
0.00184786
0.00184899
0.00185023
0.00185154
0.00185285
0.001854
0.00185467
0.00185467
0.0018535
0.00185045
0.00184458
0.0018346
0.00181884
0.00179516
0.00176103
0.00171388
0.00165255
0.00158582
0.00156737
0.00221634
0.00264243
0.00171286
0.00167319
0.00171507
0.00176033
0.00179649
0.00182274
0.00184087
0.00185296
0.00186079
0.00186574
0.00186879
0.00187066
0.0018718
0.00187254
0.00187308
0.00187355
0.00187403
0.00187458
0.00187523
0.001876
0.00187689
0.0018779
0.00187898
0.00188006
0.00188099
0.00188147
0.00188135
0.00188014
0.00187725
0.00187186
0.00186287
0.00184886
0.00182805
0.00179838
0.00175789
0.0017063
0.00165503
0.00166426
0.00241567
0.00282395
0.00179138
0.00172751
0.00175727
0.00179516
0.00182658
0.00184984
0.00186614
0.00187714
0.00188436
0.00188897
0.00189183
0.00189355
0.00189458
0.00189519
0.0018956
0.00189594
0.00189627
0.00189668
0.00189718
0.00189781
0.00189857
0.00189945
0.0019004
0.00190135
0.00190216
0.00190254
0.00190235
0.00190115
0.00189839
0.00189333
0.00188499
0.0018721
0.00185306
0.00182604
0.0017894
0.00174338
0.00170036
0.00172638
0.00254413
0.00295038
0.00184508
0.001765
0.00178694
0.00182008
0.00184842
0.00186967
0.0018847
0.00189495
0.00190173
0.00190609
0.00190882
0.00191046
0.00191142
0.00191198
0.00191232
0.00191258
0.00191285
0.00191318
0.00191361
0.00191417
0.00191487
0.00191568
0.00191658
0.00191748
0.00191825
0.00191861
0.00191842
0.00191725
0.00191461
0.00190979
0.00190186
0.00188963
0.00187159
0.00184598
0.0018113
0.00176801
0.0017291
0.00176433
0.00262181
0.00303701
0.00188128
0.00179048
0.00180749
0.00183767
0.00186406
0.00188402
0.00189821
0.00190794
0.00191442
0.00191862
0.00192126
0.00192286
0.0019238
0.00192433
0.00192466
0.0019249
0.00192514
0.00192546
0.00192588
0.00192644
0.00192714
0.00192796
0.00192887
0.0019298
0.00193061
0.00193102
0.00193088
0.0019298
0.00192729
0.00192266
0.001915
0.00190313
0.00188555
0.00186052
0.00182654
0.00178414
0.0017467
0.00178581
0.00266176
0.00309578
0.00190549
0.00180768
0.00182163
0.00185003
0.00187524
0.0018944
0.00190807
0.00191747
0.00192376
0.00192786
0.00193046
0.00193205
0.00193298
0.00193353
0.00193387
0.00193414
0.00193441
0.00193476
0.00193523
0.00193584
0.0019366
0.00193749
0.00193849
0.00193952
0.00194046
0.00194102
0.00194101
0.0019401
0.00193777
0.00193333
0.00192587
0.00191418
0.00189672
0.00187173
0.00183763
0.00179491
0.00175719
0.00179647
0.00267517
0.00313586
0.0019218
0.00181936
0.00183144
0.00185879
0.00188332
0.00190202
0.00191538
0.00192459
0.00193077
0.00193482
0.0019374
0.001939
0.00193997
0.00194056
0.00194094
0.00194126
0.0019416
0.00194203
0.00194259
0.00194331
0.0019442
0.00194524
0.00194641
0.00194762
0.00194877
0.00194962
0.00194986
0.00194923
0.00194717
0.001943
0.00193575
0.00192417
0.00190665
0.00188135
0.00184658
0.00180272
0.00176364
0.00180083
0.00267346
0.00316399
0.00193314
0.00182752
0.0018384
0.00186515
0.00188931
0.00190777
0.00192097
0.00193007
0.0019362
0.00194023
0.00194282
0.00194446
0.00194547
0.00194612
0.00194658
0.00194698
0.00194742
0.00194797
0.00194868
0.00194956
0.00195065
0.00195192
0.00195334
0.00195485
0.00195634
0.0019576
0.00195826
0.00195807
0.00195647
0.00195271
0.00194579
0.00193437
0.00191675
0.00189094
0.00185512
0.00180948
0.00176819
0.00180146
0.00265815
0.00318497
0.00194154
0.00183353
0.00184359
0.00186997
0.00189394
0.00191228
0.00192541
0.00193448
0.00194059
0.00194463
0.00194725
0.00194892
0.00195
0.00195072
0.00195127
0.00195179
0.00195236
0.00195307
0.00195397
0.00195509
0.00195644
0.00195803
0.00195982
0.00196177
0.00196375
0.00196559
0.00196695
0.00196742
0.00196652
0.00196345
0.00195712
0.00194606
0.00192843
0.00190204
0.00186486
0.0018168
0.00177239
0.00179969
0.00263245
0.00320208
0.00194836
0.00183834
0.00184774
0.00187388
0.00189775
0.00191604
0.00192915
0.00193821
0.00194433
0.00194839
0.00195105
0.00195277
0.00195391
0.00195472
0.00195538
0.00195603
0.00195677
0.00195768
0.00195882
0.00196023
0.00196193
0.00196394
0.00196624
0.00196878
0.00197147
0.00197413
0.00197649
0.00197801
0.00197822
0.00197628
0.00197098
0.0019607
0.00194334
0.00191645
0.00187763
0.00182636
0.0017777
0.00179658
0.00259733
0.00321747
0.00195448
0.00184257
0.00185137
0.0018773
0.00190109
0.00191937
0.00193249
0.00194156
0.0019477
0.00195178
0.00195447
0.00195625
0.00195746
0.00195836
0.00195914
0.00195994
0.00196088
0.00196203
0.00196346
0.00196523
0.00196738
0.00196993
0.0019729
0.00197624
0.00197989
0.00198371
0.00198743
0.00199065
0.00199251
0.00199243
0.00198893
0.00198017
0.00196371
0.00193662
0.00189593
0.00184042
0.00178584
0.00179287
0.00255223
0.00323251
0.00196047
0.00184662
0.0018548
0.00188052
0.00190425
0.00192252
0.00193564
0.00194473
0.00195088
0.00195499
0.00195771
0.00195953
0.00196081
0.00196181
0.00196272
0.00196369
0.00196484
0.00196626
0.00196804
0.00197025
0.00197294
0.00197618
0.00198
0.00198441
0.00198937
0.00199479
0.00200046
0.002006
0.00201078
0.00201347
0.00201306
0.00200715
0.0019928
0.00196629
0.00192369
0.00186261
0.00179901
0.00178921
0.00249521
0.00324807
0.00196668
0.00185077
0.00185826
0.00188375
0.00190741
0.00192566
0.00193878
0.00194786
0.00195402
0.00195814
0.00196088
0.00196274
0.00196408
0.00196517
0.0019662
0.00196735
0.00196874
0.00197047
0.00197265
0.00197537
0.00197872
0.00198281
0.0019877
0.00199349
0.00200021
0.00200784
0.00201628
0.00202523
0.00203412
0.00204189
0.00204632
0.00204563
0.00203568
0.00201153
0.00196751
0.00189954
0.00181985
0.00178666
0.00242257
0.00326472
0.00197334
0.00185519
0.00186193
0.00188715
0.00191071
0.00192892
0.00194201
0.00195108
0.00195722
0.00196132
0.00196406
0.00196594
0.00196732
0.00196849
0.00196966
0.00197099
0.00197262
0.00197469
0.00197731
0.00198062
0.00198475
0.00198985
0.00199609
0.00200363
0.00201265
0.0020233
0.00203564
0.00204957
0.00206469
0.00208002
0.00209369
0.00210155
0.00210028
0.00208216
0.00203836
0.00196097
0.00185433
0.00178582
0.00232783
0.00328288
0.00198064
0.00186002
0.00186591
0.00189082
0.00191425
0.00193239
0.00194544
0.00195445
0.00196054
0.0019646
0.00196731
0.00196918
0.00197058
0.00197181
0.00197309
0.00197459
0.00197647
0.00197889
0.001982
0.00198597
0.00199099
0.00199729
0.00200516
0.00201491
0.00202693
0.00204162
0.00205938
0.00208049
0.00210496
0.00213214
0.0021602
0.00218521
0.00219859
0.00219359
0.00215379
0.00206187
0.0019118
0.00178486
0.0021993
0.00330289
0.0019887
0.00186535
0.00187031
0.00189486
0.00191812
0.00193616
0.00194911
0.00195804
0.00196404
0.00196801
0.00197064
0.00197246
0.00197385
0.00197511
0.00197647
0.00197812
0.00198025
0.00198303
0.00198664
0.00199132
0.00199734
0.00200503
0.00201484
0.00202732
0.00204315
0.00206318
0.00208836
0.00211967
0.00215792
0.00220329
0.00225454
0.00230766
0.00235081
0.00236796
0.00234043
0.00222621
0.00200005
0.00177284
0.00201432
0.00332512
0.00199768
0.00187131
0.00187521
0.00189934
0.0019224
0.00194028
0.00195309
0.00196188
0.00196772
0.00197155
0.00197406
0.00197578
0.0019771
0.00197835
0.00197975
0.00198152
0.00198387
0.00198698
0.00199111
0.00199653
0.00200363
0.00201289
0.00202496
0.00204072
0.00206131
0.00208822
0.00212331
0.00216873
0.00222676
0.0022992
0.00238625
0.0024842
0.0025817
0.00263572
0.00263371
0.0024856
0.00212773
0.00171542
0.00173003
0.00334996
0.00200773
0.00187799
0.00188073
0.00190437
0.00192715
0.00194482
0.00195743
0.00196599
0.00197161
0.00197522
0.00197754
0.00197909
0.0019803
0.00198146
0.00198286
0.0019847
0.00198721
0.00199063
0.00199524
0.00200141
0.00200963
0.00202059
0.00203522
0.00205481
0.00208116
0.00211669
0.00216456
0.00222879
0.00231402
0.00242494
0.00256468
0.00273123
0.00291051
0.00303759
0.00307201
0.00289312
0.00237028
0.00165976
0.00140443
0.00337795
0.00201905
0.00188554
0.00188697
0.00191004
0.00193246
0.00194984
0.00196214
0.00197039
0.0019757
0.00197901
0.00198104
0.00198236
0.00198336
0.00198439
0.00198571
0.00198756
0.00199017
0.00199383
0.00199887
0.00200575
0.0020151
0.00202783
0.00204522
0.00206913
0.00210217
0.00214801
0.00221163
0.00229958
0.00242
0.00258188
0.00279302
0.00305453
0.00334955
0.00360384
0.00371952
0.00360451
0.0030434
0.00205074
0.00140886
0.00340972
0.00203188
0.00189411
0.00189408
0.00191645
0.00193841
0.00195537
0.00196725
0.00197507
0.00197996
0.00198286
0.00198452
0.00198552
0.00198625
0.00198707
0.00198824
0.00199002
0.00199267
0.00199649
0.00200187
0.00200938
0.0020198
0.00203429
0.00205454
0.00208306
0.00212346
0.00218092
0.00226264
0.00237833
0.00254046
0.00276336
0.00306054
0.00343703
0.0038768
0.00434295
0.00481566
0.00514351
0.00502302
0.00398274
0.00249469
0.00344611
0.00204652
0.0019039
0.00190219
0.00192371
0.00194506
0.00196145
0.00197277
0.00198002
0.00198436
0.00198674
0.00198794
0.00198854
0.00198895
0.00198949
0.00199046
0.00199211
0.00199473
0.00199863
0.00200427
0.0020123
0.00202366
0.0020398
0.00206284
0.00209597
0.00214389
0.00221338
0.00231401
0.00245876
0.00266436
0.00295003
0.00333415
0.00382816
0.00444646
0.00530074
0.00673902
0.00834368
0.00893513
0.00835255
0.00612988
0.00348821
0.00206334
0.00191516
0.0019115
0.00193194
0.00195248
0.00196812
0.00197869
0.00198523
0.00198887
0.00199063
0.00199132
0.0019915
0.00199154
0.00199179
0.00199255
0.00199407
0.00199663
0.00200057
0.00200641
0.00201485
0.00202703
0.0020446
0.00207014
0.00210749
0.00216234
0.00224292
0.00236075
0.0025313
0.00277396
0.00311004
0.00356045
0.00415256
0.00500094
0.00659388
0.00961008
0.0124009
0.0134782
0.0136599
0.0120371
0.00353736
0.0020828
0.00192816
0.00192218
0.00194126
0.00196073
0.00197539
0.00198502
0.00199068
0.00199353
0.00199463
0.00199484
0.00199463
0.0019944
0.00199445
0.0019951
0.00199659
0.00199919
0.00200325
0.00200931
0.00201816
0.00203102
0.00204981
0.0020774
0.00211816
0.00217851
0.00226759
0.00239793
0.0025857
0.00284981
0.00320955
0.00368766
0.00434826
0.00549389
0.00793793
0.012025
0.0152776
0.0169071
0.0174956
0.0172903
0.00359522
0.00210544
0.00194321
0.00193444
0.00195178
0.00196988
0.0019833
0.00199185
0.00199655
0.00199866
0.00199927
0.00199914
0.00199875
0.00199851
0.00199869
0.00199956
0.00200134
0.00200429
0.00200876
0.00201529
0.00202472
0.00203834
0.00205817
0.00208732
0.00213044
0.00219418
0.00228781
0.00242347
0.00261566
0.00287863
0.00322392
0.00367259
0.00433067
0.0056611
0.00853925
0.0130117
0.0171755
0.0197243
0.020625
0.020908
0.00366378
0.00213187
0.00196065
0.00194847
0.00196362
0.00198002
0.00199206
0.00199953
0.00200348
0.00200519
0.00200571
0.00200576
0.00200578
0.00200617
0.00200714
0.00200889
0.00201163
0.00201559
0.00202112
0.00202877
0.00203936
0.00205422
0.00207538
0.00210591
0.00215034
0.00221516
0.00230887
0.00244187
0.00262515
0.00286701
0.0031743
0.00356084
0.00414427
0.00543816
0.00842401
0.0132173
0.0187942
0.0229311
0.0242045
0.024232
0.00374522
0.00216273
0.00198079
0.00196447
0.00197697
0.00199153
0.00200235
0.00200917
0.00201309
0.00201531
0.00201677
0.00201813
0.00201981
0.00202205
0.00202507
0.00202904
0.0020341
0.00204047
0.00204847
0.00205861
0.00207168
0.00208895
0.00211236
0.0021448
0.0021904
0.00225475
0.00234497
0.002469
0.00263355
0.00283971
0.00308057
0.00336402
0.00381049
0.00494222
0.00773327
0.0127935
0.0195375
0.0259452
0.0279393
0.0271596
0.00384186
0.00219861
0.00200393
0.00198276
0.00199242
0.00200554
0.00201607
0.00202366
0.00202928
0.00203397
0.00203853
0.00204342
0.00204901
0.00205553
0.00206312
0.00207188
0.00208194
0.00209344
0.00210667
0.00212206
0.00214033
0.00216259
0.00219058
0.00222678
0.00227468
0.00233869
0.00242392
0.00253527
0.002675
0.00284001
0.00301066
0.00318785
0.00348007
0.00434424
0.00679621
0.0119324
0.0197607
0.0284155
0.0317959
0.0295823
0.00395697
0.00223993
0.00203043
0.0020041
0.00201165
0.00202512
0.00203803
0.00204969
0.00206072
0.00207177
0.00208343
0.00209613
0.00211012
0.00212556
0.00214252
0.00216107
0.00218125
0.00220318
0.00222706
0.00225321
0.00228221
0.00231495
0.0023528
0.00239768
0.0024521
0.00251897
0.002601
0.00269961
0.00281266
0.00293264
0.00304931
0.0031531
0.00331504
0.00394226
0.00604374
0.0110167
0.0197008
0.0304218
0.0356759
0.0318175
0.00409229
0.00228682
0.00206112
0.00203075
0.00203944
0.00205824
0.00207981
0.00210237
0.00212593
0.00215093
0.00217772
0.00220659
0.0022377
0.00227114
0.00230696
0.00234518
0.00238582
0.00242893
0.00247459
0.00252299
0.00257444
0.00262951
0.00268906
0.00275422
0.00282627
0.00290629
0.00299432
0.00308799
0.00318094
0.00326163
0.00331834
0.00335564
0.00345844
0.00396517
0.00576445
0.0104551
0.0193844
0.0318754
0.0391629
0.0337374
0.00424895
0.00233908
0.00209875
0.00206955
0.00208905
0.00212503
0.00216793
0.00221523
0.00226619
0.00232072
0.00237894
0.00244108
0.0025073
0.00257773
0.00265247
0.00273157
0.00281507
0.00290295
0.00299507
0.00309132
0.00319163
0.003296
0.00340453
0.0035172
0.00363372
0.00375297
0.00387193
0.00398423
0.00407914
0.00414127
0.00415784
0.00414295
0.00419363
0.00461397
0.00618344
0.0103853
0.0192802
0.0333507
0.0422346
0.0355603
0.00442438
0.00239702
0.00215289
0.00214216
0.00219522
0.00227413
0.00236713
0.00246999
0.00258093
0.00269935
0.00282532
0.00295928
0.00310177
0.00325313
0.00341365
0.00358352
0.0037628
0.00395131
0.00414838
0.00435314
0.00456463
0.00478183
0.00500335
0.0052273
0.00545099
0.00567035
0.00587853
0.00606487
0.00621337
0.00630473
0.00632424
0.00629657
0.00632817
0.00669561
0.00808801
0.0118297
0.0201791
0.0352481
0.0446227
0.0373539
0.00464538
0.00247221
0.00225564
0.0023106
0.00245473
0.0026414
0.00285532
0.00309003
0.00334242
0.00361134
0.00389712
0.00420112
0.00452489
0.00486897
0.00523352
0.0056184
0.00602309
0.00644661
0.00688633
0.00733945
0.00780283
0.008273
0.00874558
0.00921562
0.00967646
0.0101203
0.0105348
0.0109048
0.0112076
0.0114208
0.0115224
0.0115377
0.0115821
0.0118986
0.0130781
0.0162769
0.0235852
0.0384242
0.0467933
0.0387472
0.00483529
0.00260202
0.00251305
0.00278159
0.00318705
0.00366975
0.00420974
0.00479759
0.00542676
0.00609331
0.00679644
0.00753792
0.00832041
0.00914173
0.00999872
0.0108865
0.0118009
0.0127366
0.0136873
0.0146473
0.0156098
0.0165679
0.0175141
0.0184406
0.0193343
0.0201858
0.0209741
0.021684
0.0222817
0.0227479
0.0230446
0.0231712
0.0232223
0.0234362
0.0242307
0.0265981
0.0320363
0.0444038
0.0492893
0.0394574
0.0052595
0.00293672
0.00336826
0.00439412
0.00566774
0.00708407
0.00861931
0.0102541
0.0119631
0.0137241
0.0155235
0.0173549
0.0192125
0.0210837
0.022954
0.0248134
0.0266525
0.0284607
0.0302323
0.031965
0.0336501
0.0352866
0.0368782
0.0384164
0.039871
0.0412427
0.0424953
0.0436267
0.0445864
0.0453536
0.0458849
0.0461187
0.0460909
0.0460995
0.0464347
0.0477961
0.0498652
0.0556043
0.0536554
0.0396892
0.00530079
0.00401422
0.00676001
0.0108394
0.0152161
0.0195879
0.0240016
0.028436
0.0328146
0.0370652
0.0411448
0.0450342
0.0487038
0.0521583
0.0553938
0.0584334
0.0612837
0.0639633
0.0664705
0.0688285
0.0710234
0.0730916
0.0749911
0.0767667
0.078381
0.0798713
0.0811955
0.0823461
0.0833222
0.0839981
0.0844663
0.0844109
0.0841467
0.0834935
0.081944
0.0788185
0.0721693
0.0661644
0.0574049
0.0386875
0.00383643
0.00598938
0.00905794
0.0119504
0.0146344
0.0170953
0.0193568
0.0214668
0.0234648
0.0253735
0.0271988
0.0289616
0.0306469
0.0322561
0.0337924
0.0352631
0.0366751
0.0380314
0.0393415
0.0405969
0.0418232
0.0429849
0.0441416
0.045215
0.0463203
0.0473048
0.0483672
0.0492515
0.0502565
0.0510004
0.0518584
0.0523458
0.0527511
0.0526696
0.0524782
0.0520037
0.0510428
0.0493095
0.0458677
0.0365533
)
;

boundaryField
{
    movingWall
    {
        type            epsilonWallFunction;
        value           nonuniform List<scalar> 
40
(
0.00383643
0.00598938
0.00905794
0.0119504
0.0146344
0.0170953
0.0193568
0.0214668
0.0234648
0.0253735
0.0271988
0.0289616
0.0306469
0.0322561
0.0337924
0.0352631
0.0366751
0.0380314
0.0393415
0.0405969
0.0418232
0.0429849
0.0441416
0.045215
0.0463203
0.0473048
0.0483672
0.0492515
0.0502565
0.0510004
0.0518584
0.0523458
0.0527511
0.0526696
0.0524782
0.0520037
0.0510428
0.0493095
0.0458677
0.0365533
)
;
    }
    fixedWalls
    {
        type            epsilonWallFunction;
        value           nonuniform List<scalar> 
120
(
0.000326408
0.000928995
0.00155103
0.00203227
0.00238658
0.00264243
0.00282395
0.00295038
0.00303701
0.00309578
0.00313586
0.00316399
0.00318497
0.00320208
0.00321747
0.00323251
0.00324807
0.00326472
0.00328288
0.00330289
0.00332512
0.00334996
0.00337795
0.00340972
0.00344611
0.00348821
0.00353736
0.00359522
0.00366378
0.00374522
0.00384186
0.00395697
0.00409229
0.00424895
0.00442438
0.00464538
0.00483529
0.0052595
0.00530079
0.00383643
0.000326491
0.00091877
0.00149556
0.00192041
0.00221634
0.00241567
0.00254413
0.00262181
0.00266176
0.00267517
0.00267346
0.00265815
0.00263245
0.00259733
0.00255223
0.00249521
0.00242257
0.00232783
0.0021993
0.00201432
0.00173003
0.00140443
0.00140886
0.00249469
0.00612988
0.0120371
0.0172903
0.020908
0.024232
0.0271596
0.0295823
0.0318175
0.0337374
0.0355603
0.0373539
0.0387472
0.0394574
0.0396892
0.0386875
0.0365533
0.000326408
0.00091987
0.00150245
0.00193586
0.00224279
0.00245572
0.00260048
0.00269694
0.00276028
0.00280181
0.00282967
0.00284942
0.00286468
0.00287768
0.00288974
0.00290159
0.00291364
0.00292608
0.00293899
0.00295232
0.00296599
0.00297984
0.002994
0.00300985
0.00302614
0.00304184
0.00305603
0.00306699
0.00307198
0.00306844
0.0030501
0.00300989
0.0029382
0.00282274
0.00264814
0.00239529
0.00204053
0.00155612
0.000928939
0.000326491
)
;
    }
    frontAndBack
    {
        type            empty;
    }
}


// ************************************************************************* //
