/*--------------------------------*- C++ -*----------------------------------*\
  =========                 |
  \\      /  F ield         | OpenFOAM: The Open Source CFD Toolbox
   \\    /   O peration     | Website:  https://openfoam.org
    \\  /    A nd           | Version:  13
     \\/     M anipulation  |
\*---------------------------------------------------------------------------*/
FoamFile
{
    format      ascii;
    class       volScalarField;
    location    "0.5";
    object      k;
}
// * * * * * * * * * * * * * * * * * * * * * * * * * * * * * * * * * * * * * //

dimensions      [0 2 -2 0 0 0 0];

internalField   nonuniform List<scalar> 
400
(
0.000833459
0.000914608
0.000975998
0.00100889
0.00102398
0.00103043
0.00103331
0.0010349
0.00103612
0.00103726
0.00103844
0.00103991
0.00104113
0.00104155
0.00103989
0.00103316
0.00101583
0.000979145
0.000913935
0.000833427
0.000914399
0.00116285
0.00128902
0.00135304
0.00138407
0.00139864
0.0014058
0.00141004
0.00141334
0.0014164
0.00141932
0.00142173
0.00142327
0.00142306
0.00141816
0.00140313
0.00136819
0.00129701
0.00116132
0.000914374
0.00097998
0.00129889
0.00145923
0.0015422
0.00158363
0.00160329
0.0016125
0.00161722
0.00162029
0.00162285
0.00162521
0.00162714
0.00162792
0.00162588
0.00161723
0.00159505
0.00154769
0.00145612
0.00128575
0.00097519
0.00101765
0.00137158
0.00155181
0.00164684
0.00169536
0.00171869
0.00172942
0.00173448
0.0017373
0.00173937
0.00174112
0.00174226
0.00174201
0.00173807
0.00172608
0.00169831
0.00164215
0.00153739
0.00134702
0.00100696
0.00103669
0.00140935
0.00160158
0.00170427
0.00175741
0.00178315
0.00179482
0.00180002
0.00180257
0.00180415
0.00180529
0.00180572
0.00180443
0.00179885
0.00178419
0.00175221
0.00168985
0.00157642
0.00137405
0.00102042
0.00104585
0.00142853
0.00162765
0.00173486
0.00179071
0.00181779
0.00182993
0.00183508
0.00183736
0.00183855
0.00183918
0.00183907
0.00183696
0.00183014
0.00181351
0.00177854
0.00171191
0.00159277
0.00138305
0.00102464
0.0010506
0.00143878
0.00164161
0.00175117
0.00180829
0.0018359
0.00184812
0.00185313
0.00185516
0.00185607
0.00185641
0.00185595
0.00185335
0.00184573
0.00182776
0.00179067
0.00172098
0.00159781
0.00138349
0.00102496
0.00105381
0.00144547
0.00165024
0.00176077
0.0018182
0.00184575
0.00185776
0.00186254
0.00186437
0.00186512
0.00186535
0.00186478
0.00186197
0.00185391
0.00183506
0.00179642
0.00172431
0.00159786
0.00137909
0.00102327
0.00105685
0.00145145
0.00165729
0.00176797
0.00182502
0.00185207
0.00186363
0.00186809
0.00186973
0.00187041
0.00187066
0.00187017
0.00186742
0.00185924
0.00183985
0.00179996
0.00172559
0.00159547
0.00137124
0.00102022
0.00106042
0.00145822
0.00166481
0.00177508
0.00183122
0.00185734
0.00186818
0.00187217
0.00187357
0.0018742
0.00187453
0.00187427
0.00187181
0.00186381
0.00184422
0.00180333
0.00172662
0.00159201
0.0013597
0.00101559
0.00106501
0.00146683
0.00167408
0.0017834
0.00183801
0.00186269
0.00187244
0.00187571
0.00187673
0.00187721
0.00187766
0.00187768
0.00187568
0.00186814
0.00184868
0.00180714
0.00172808
0.00158787
0.00134272
0.00100853
0.00107118
0.00147835
0.00168616
0.0017937
0.00184592
0.00186844
0.00187659
0.00187883
0.00187923
0.00187942
0.0018799
0.00188016
0.00187866
0.00187166
0.00185248
0.0018103
0.0017288
0.00158195
0.00131629
0.000998087
0.00107976
0.00149411
0.00170193
0.00180634
0.00185491
0.00187439
0.00188045
0.00188146
0.00188108
0.00188092
0.00188132
0.0018817
0.00188049
0.0018737
0.00185415
0.00181023
0.00172485
0.00156999
0.00129078
0.00099378
0.00109212
0.00151544
0.00172159
0.00182091
0.00186457
0.00188067
0.00188494
0.00188523
0.00188466
0.00188462
0.00188533
0.00188598
0.00188486
0.00187738
0.00185529
0.00180568
0.00171161
0.00155476
0.00129614
0.00101481
0.00110981
0.00154291
0.00174412
0.00183679
0.00187649
0.00189174
0.00189699
0.00189919
0.00190106
0.00190359
0.00190682
0.00190961
0.00190988
0.00190203
0.00187523
0.00181454
0.00170839
0.0015698
0.00141739
0.00109988
0.00113313
0.00157401
0.00176863
0.00186025
0.00190466
0.00192783
0.00194295
0.00195563
0.0019677
0.00197955
0.00199116
0.00200203
0.00200864
0.00200557
0.0019772
0.0019039
0.00178271
0.00169332
0.00169936
0.00123936
0.00116484
0.00161041
0.0018125
0.0019257
0.00199911
0.00205493
0.00210289
0.00214601
0.00218454
0.00221852
0.00224861
0.00227588
0.00229929
0.00231058
0.0022917
0.00221371
0.00206654
0.00197389
0.00198564
0.00136338
0.00119109
0.00167007
0.00194236
0.00214351
0.00230705
0.0024481
0.00257113
0.0026749
0.00275888
0.00282473
0.00287696
0.00292233
0.00296462
0.00299878
0.00299905
0.00293416
0.00275678
0.00252068
0.00218104
0.00145437
0.00120886
0.00178671
0.00231707
0.002744
0.00308682
0.00336869
0.00359207
0.00375255
0.0038547
0.00391347
0.00394847
0.00397971
0.00401763
0.00406164
0.0040779
0.00403432
0.00382144
0.00325591
0.00230167
0.00151818
0.00112063
0.00125212
0.00147456
0.00168689
0.00187478
0.00202505
0.00212809
0.00218161
0.00219542
0.00219249
0.00217625
0.00215939
0.00215668
0.00215971
0.00216832
0.00216167
0.00213224
0.00205674
0.00189321
0.00153214
)
;

boundaryField
{
    movingWall
    {
        type            kqRWallFunction;
        value           nonuniform List<scalar> 
20
(
0.00112063
0.00125212
0.00147456
0.00168689
0.00187478
0.00202505
0.00212809
0.00218161
0.00219542
0.00219249
0.00217625
0.00215939
0.00215668
0.00215971
0.00216832
0.00216167
0.00213224
0.00205674
0.00189321
0.00153214
)
;
    }
    fixedWalls
    {
        type            kqRWallFunction;
        value           nonuniform List<scalar> 
60
(
0.000833459
0.000914399
0.00097998
0.00101765
0.00103669
0.00104585
0.0010506
0.00105381
0.00105685
0.00106042
0.00106501
0.00107118
0.00107976
0.00109212
0.00110981
0.00113313
0.00116484
0.00119109
0.00120886
0.00112063
0.000833427
0.000914374
0.00097519
0.00100696
0.00102042
0.00102464
0.00102496
0.00102327
0.00102022
0.00101559
0.00100853
0.000998087
0.00099378
0.00101481
0.00109988
0.00123936
0.00136338
0.00145437
0.00151818
0.00153214
0.000833459
0.000914608
0.000975998
0.00100889
0.00102398
0.00103043
0.00103331
0.0010349
0.00103612
0.00103726
0.00103844
0.00103991
0.00104113
0.00104155
0.00103989
0.00103316
0.00101583
0.000979145
0.000913935
0.000833427
)
;
    }
    frontAndBack
    {
        type            empty;
    }
}


// ************************************************************************* //
