/*--------------------------------*- C++ -*----------------------------------*\
  =========                 |
  \\      /  F ield         | OpenFOAM: The Open Source CFD Toolbox
   \\    /   O peration     | Website:  https://openfoam.org
    \\  /    A nd           | Version:  13
     \\/     M anipulation  |
\*---------------------------------------------------------------------------*/
FoamFile
{
    format      ascii;
    class       volScalarField;
    location    "0.5";
    object      k;
}
// * * * * * * * * * * * * * * * * * * * * * * * * * * * * * * * * * * * * * //

dimensions      [0 2 -2 0 0 0 0];

internalField   nonuniform List<scalar> 
1600
(
2.46823e-05
7.02551e-05
0.000115103
0.000148541
0.000172281
0.000188795
0.000200057
0.000207587
0.000212547
0.000215811
0.000218006
0.000219564
0.000220768
0.000221792
0.000222741
0.000223674
0.000224622
0.000225601
0.000226616
0.000227667
0.000228744
0.000229836
0.000230952
0.000232196
0.00023348
0.000234716
0.000235832
0.000236687
0.00023707
0.000236777
0.000235317
0.000232142
0.00022651
0.000217477
0.000203865
0.000184216
0.000156728
0.000119297
7.09625e-05
2.46884e-05
7.09658e-05
0.000312179
0.000464655
0.000563671
0.000630975
0.000677231
0.000708878
0.000730299
0.000744652
0.000754256
0.000760784
0.000765415
0.000768944
0.000771883
0.00077455
0.000777133
0.000779737
0.000782419
0.000785206
0.000788102
0.000791092
0.000794136
0.000797166
0.000800038
0.000802758
0.000805262
0.000807332
0.000808479
0.000808424
0.000806239
0.000800876
0.000790919
0.000774509
0.000749239
0.00071195
0.000658353
0.000582203
0.00047331
0.000310799
7.01676e-05
0.000118888
0.000473497
0.00067595
0.000805288
0.000893702
0.000955057
0.000997484
0.0010265
0.00104608
0.00105919
0.00106799
0.00107403
0.00107839
0.0010818
0.00108471
0.00108741
0.00109006
0.00109275
0.00109553
0.00109841
0.00110138
0.00110442
0.00110747
0.00111045
0.00111326
0.0011157
0.00111737
0.00111783
0.00111641
0.00111202
0.00110332
0.00108854
0.00106541
0.001031
0.000981468
0.000911594
0.000813611
0.000674111
0.000461417
0.000114555
0.000156061
0.000581785
0.000814755
0.000962674
0.00106443
0.0011358
0.00118577
0.00122038
0.00124402
0.00125997
0.00127068
0.00127793
0.00128302
0.00128681
0.00128989
0.00129262
0.00129521
0.00129781
0.00130046
0.00130321
0.00130605
0.00130895
0.00131185
0.00131466
0.0013172
0.0013192
0.00132017
0.00131964
0.00131666
0.00131008
0.00129837
0.00127956
0.00125117
0.00121002
0.00115197
0.00107137
0.000959654
0.00080144
0.000558304
0.000147314
0.000183506
0.000657812
0.000912546
0.00107403
0.00118574
0.00126478
0.00132072
0.00135992
0.00138699
0.00140541
0.00141782
0.00142619
0.00143194
0.00143608
0.00143929
0.00144201
0.00144451
0.00144696
0.00144944
0.00145199
0.00145462
0.0014573
0.00145994
0.00146244
0.00146456
0.00146592
0.00146612
0.00146444
0.00145988
0.00145117
0.00143667
0.00141428
0.0013814
0.00133472
0.00126994
0.00118113
0.00105923
0.000887465
0.000623122
0.000170179
0.000203384
0.000711858
0.000982807
0.00115482
0.00127441
0.00135967
0.00142053
0.00146358
0.00149359
0.00151418
0.0015281
0.00153747
0.00154382
0.00154827
0.00155158
0.00155427
0.00155665
0.00155892
0.00156119
0.0015635
0.00156588
0.00156827
0.00157059
0.00157269
0.00157429
0.001575
0.00157433
0.00157147
0.00156534
0.00155461
0.00153752
0.00151193
0.00147514
0.00142376
0.00135339
0.00125794
0.00112801
0.000945962
0.00066641
0.000185616
0.000217534
0.000750237
0.00103339
0.0012137
0.00133966
0.00143002
0.00149498
0.00154128
0.00157379
0.00159624
0.00161149
0.00162173
0.00162861
0.00163333
0.00163672
0.00163936
0.0016416
0.00164368
0.00164572
0.00164778
0.00164986
0.00165194
0.0016539
0.00165557
0.0016566
0.00165666
0.0016551
0.00165107
0.00164346
0.00163083
0.0016114
0.00158294
0.00154272
0.0014873
0.00141223
0.00131131
0.00117493
0.000984986
0.000694505
0.000195585
0.000227426
0.000777279
0.00106961
0.00125642
0.00138753
0.00148206
0.00155042
0.00159942
0.00163405
0.00165808
0.00167446
0.00168545
0.00169278
0.00169772
0.00170117
0.00170374
0.00170584
0.00170772
0.00170953
0.00171132
0.00171313
0.00171488
0.00171648
0.00171769
0.0017182
0.0017176
0.00171518
0.00171006
0.00170107
0.00168671
0.00166517
0.00163417
0.00159095
0.00153206
0.00145301
0.00134756
0.001206
0.00101
0.000711755
0.000201626
0.00023423
0.000796143
0.0010953
0.00128717
0.00142237
0.00152029
0.00159142
0.00164265
0.00167902
0.00170437
0.00172168
0.00173329
0.001741
0.00174611
0.00174959
0.00175209
0.00175405
0.00175575
0.00175733
0.00175889
0.00176042
0.00176188
0.00176313
0.00176391
0.00176395
0.00176272
0.00175952
0.00175341
0.00174316
0.00172727
0.00170384
0.00167061
0.00162479
0.00156292
0.0014805
0.00137129
0.00122557
0.00102492
0.000720976
0.000204728
0.000238864
0.000809203
0.00111339
0.00130911
0.00144753
0.00154813
0.00162147
0.0016745
0.00171228
0.00173867
0.00175674
0.00176885
0.00177685
0.00178209
0.00178559
0.00178802
0.00178986
0.00179139
0.00179278
0.00179413
0.00179542
0.00179662
0.00179756
0.001798
0.00179762
0.00179585
0.00179196
0.00178497
0.00177363
0.00175638
0.00173132
0.00169614
0.00164806
0.00158361
0.00149832
0.00138597
0.00123683
0.00103238
0.000724302
0.000205758
0.000242033
0.000818253
0.00112608
0.00132471
0.00146558
0.00156826
0.00164333
0.00169776
0.00173663
0.00176385
0.00178249
0.00179499
0.0018032
0.00180854
0.00181204
0.00181441
0.00181614
0.00181754
0.00181878
0.00181996
0.00182108
0.00182207
0.00182277
0.00182294
0.00182222
0.00182001
0.00181556
0.00180784
0.00179558
0.00177717
0.00175069
0.00171382
0.00166377
0.00159707
0.00150928
0.0013942
0.00124209
0.0010347
0.000723944
0.000205604
0.000244262
0.000824636
0.00113508
0.00133583
0.00147853
0.00158277
0.00165915
0.00171463
0.00175432
0.00178216
0.00180123
0.001814
0.00182237
0.00182777
0.00183127
0.00183359
0.00183524
0.00183654
0.00183768
0.00183874
0.00183975
0.00184061
0.00184115
0.00184116
0.00184019
0.00183768
0.0018328
0.00182451
0.0018115
0.00179213
0.00176445
0.00172612
0.00167433
0.00160564
0.00151558
0.00139802
0.00124339
0.00103358
0.000720437
0.000204373
0.000245924
0.00082933
0.00114163
0.00134391
0.00148794
0.00159332
0.00167065
0.00172689
0.00176717
0.00179543
0.0018148
0.00182775
0.00183622
0.00184166
0.00184514
0.00184743
0.00184903
0.00185028
0.00185136
0.00185238
0.00185333
0.00185415
0.00185463
0.00185457
0.0018535
0.0018508
0.00184566
0.00183698
0.00182341
0.00180329
0.00177462
0.00173504
0.00168171
0.00161117
0.001519
0.00139908
0.00124202
0.00102969
0.000714346
0.000202314
0.000247276
0.000833025
0.00114665
0.00135001
0.00149498
0.00160116
0.00167914
0.0017359
0.00177656
0.0018051
0.00182465
0.00183771
0.00184623
0.00185168
0.00185516
0.00185743
0.00185901
0.00186025
0.00186133
0.00186236
0.00186334
0.0018642
0.00186472
0.00186471
0.00186367
0.00186096
0.00185573
0.00184686
0.00183295
0.0018123
0.00178286
0.00174223
0.00168752
0.00161523
0.00152094
0.00139856
0.00123876
0.00102359
0.000705848
0.000199502
0.000248487
0.000836197
0.00115079
0.00135491
0.00150052
0.00160723
0.00168563
0.00174271
0.0017836
0.00181228
0.00183192
0.00184502
0.00185355
0.001859
0.00186247
0.00186473
0.00186633
0.00186759
0.00186872
0.00186983
0.00187092
0.00187191
0.0018726
0.00187275
0.00187188
0.00186934
0.00186423
0.0018554
0.00184141
0.00182049
0.00179055
0.00174909
0.00169316
0.00161917
0.00152262
0.0013974
0.00123428
0.00101555
0.000694769
0.000195886
0.000249665
0.000839162
0.00115449
0.00135915
0.00150519
0.00161223
0.00169087
0.00174811
0.00178909
0.00181782
0.00183746
0.00185055
0.00185905
0.00186448
0.00186794
0.00187022
0.00187185
0.00187318
0.00187441
0.00187565
0.00187691
0.00187813
0.00187911
0.00187954
0.00187903
0.00187685
0.0018721
0.00186359
0.00184983
0.00182899
0.00179889
0.00175693
0.00169999
0.00162434
0.00152529
0.00139668
0.00122919
0.00100557
0.000680572
0.000191307
0.000250882
0.000842128
0.00115807
0.00136311
0.00150942
0.00161664
0.00169539
0.00175267
0.00179364
0.00182232
0.0018419
0.00185492
0.00186337
0.00186877
0.00187222
0.00187451
0.0018762
0.00187761
0.00187898
0.00188041
0.00188192
0.00188346
0.00188484
0.0018857
0.00188572
0.00188414
0.00188004
0.00187219
0.00185908
0.00183878
0.00180901
0.00176701
0.00170943
0.00163222
0.00153038
0.00139742
0.00122397
0.00099333
0.000662211
0.000185459
0.000252181
0.000845234
0.00116171
0.00136705
0.00151353
0.00162082
0.00169957
0.00175679
0.00179766
0.00182622
0.00184568
0.00185859
0.00186695
0.00187229
0.00187572
0.00187804
0.00187979
0.00188132
0.00188286
0.00188452
0.00188634
0.00188827
0.00189015
0.00189166
0.00189234
0.00189163
0.00188853
0.00188179
0.00186986
0.00185075
0.00182202
0.00178067
0.00172301
0.00164449
0.00153946
0.0014008
0.00121879
0.000977764
0.00063765
0.000177802
0.000253597
0.000848577
0.00116556
0.00137114
0.00151771
0.00162501
0.00170366
0.00176074
0.00180144
0.00182981
0.00184909
0.00186185
0.00187009
0.00187535
0.00187875
0.00188108
0.0018829
0.00188455
0.00188628
0.0018882
0.00189038
0.00189278
0.00189526
0.00189757
0.00189916
0.00189958
0.00189788
0.0018928
0.00188274
0.00186565
0.0018389
0.00179917
0.00174222
0.00166268
0.00155379
0.00140725
0.00121224
0.000955432
0.00060248
0.000167348
0.000255156
0.000852232
0.00116973
0.00137552
0.00152214
0.00162936
0.00170786
0.00176472
0.00180517
0.00183329
0.00185233
0.00186489
0.00187298
0.00187813
0.00188147
0.0018838
0.00188566
0.00188744
0.00188936
0.00189157
0.00189414
0.00189706
0.00190023
0.00190344
0.00190629
0.00190806
0.00190822
0.0019054
0.00189804
0.00188397
0.00186035
0.00182334
0.00176783
0.00168712
0.00157271
0.00141261
0.00119761
0.000916161
0.000546517
0.000152162
0.000256887
0.000856272
0.00117431
0.00138029
0.00152692
0.00163401
0.00171229
0.00176885
0.00180898
0.00183677
0.00185552
0.00186782
0.0018757
0.0018807
0.00188395
0.00188625
0.00188815
0.00189003
0.00189213
0.00189462
0.00189759
0.00190107
0.001905
0.00190923
0.00191343
0.00191712
0.00191939
0.0019195
0.00191568
0.00190567
0.00188624
0.00185274
0.00179863
0.00171488
0.00158831
0.00140649
0.00115576
0.00083584
0.000449008
0.000128528
0.000258821
0.00086077
0.0011794
0.00138556
0.00153216
0.00163906
0.00171703
0.00177322
0.00181294
0.00184033
0.0018587
0.00187068
0.00187829
0.00188309
0.00188621
0.00188844
0.00189034
0.00189229
0.00189454
0.00189728
0.00190064
0.00190467
0.00190939
0.00191471
0.00192041
0.00192613
0.00193126
0.00193453
0.00193495
0.00192972
0.0019149
0.00188443
0.00182919
0.00173445
0.0015854
0.00136151
0.0010505
0.000685619
0.000324597
0.000105851
0.000260999
0.000865815
0.00118508
0.00139142
0.00153794
0.00164458
0.00172216
0.00177787
0.00181708
0.00184397
0.00186189
0.00187346
0.00188075
0.00188529
0.00188822
0.00189033
0.00189218
0.00189415
0.0018965
0.00189944
0.00190313
0.00190767
0.00191315
0.00191955
0.0019268
0.00193467
0.00194266
0.00194988
0.00195417
0.0019537
0.00194241
0.00191169
0.00184728
0.00172988
0.00153525
0.00124811
0.000915903
0.000615428
0.00030652
0.000112173
0.000263472
0.000871513
0.00119147
0.00139798
0.00154436
0.00165065
0.00172771
0.00178282
0.0018214
0.00184768
0.00186504
0.00187613
0.00188301
0.00188723
0.00188991
0.00189184
0.00189358
0.0018955
0.00189789
0.00190095
0.00190489
0.00190985
0.00191597
0.00192337
0.00193207
0.00194198
0.00195273
0.00196343
0.00197124
0.00197362
0.00196244
0.00192425
0.0018386
0.00167704
0.00142125
0.00114042
0.00092532
0.000767299
0.000489106
0.000217223
0.000266304
0.000877995
0.00119871
0.00140535
0.00155151
0.0016573
0.0017337
0.00178805
0.00182586
0.00185139
0.00186808
0.00187858
0.00188498
0.00188881
0.00189118
0.00189288
0.00189445
0.00189626
0.00189859
0.00190169
0.00190576
0.001911
0.00191762
0.00192579
0.00193567
0.00194725
0.00196018
0.00197333
0.00198277
0.00198481
0.00196726
0.00191074
0.0017869
0.00157043
0.00130706
0.00122106
0.00131091
0.00133951
0.000989066
0.00053112
0.000269579
0.000885423
0.00120694
0.00141365
0.00155945
0.00166457
0.00174011
0.00179351
0.00183036
0.001855
0.00187089
0.00188072
0.00188656
0.00188994
0.00189196
0.00189337
0.00189471
0.00189635
0.00189857
0.00190161
0.00190569
0.00191106
0.00191796
0.00192663
0.00193727
0.00194988
0.00196395
0.00197783
0.00198582
0.00198312
0.00195208
0.00186615
0.00169128
0.00145172
0.00139157
0.00166304
0.00197994
0.00202964
0.00160825
0.000998725
0.000273401
0.000893985
0.00121634
0.001423
0.00156822
0.00167243
0.00174685
0.00179907
0.00183477
0.00185836
0.00187334
0.00188242
0.00188765
0.00189055
0.00189219
0.00189332
0.00189444
0.00189591
0.00189799
0.00190092
0.00190494
0.00191031
0.00191728
0.00192612
0.001937
0.00194982
0.00196376
0.00197602
0.00198076
0.00196882
0.00191714
0.0017951
0.00158226
0.00146297
0.00160273
0.00221998
0.00254284
0.00259962
0.00214617
0.00138781
0.000277898
0.000903899
0.00122707
0.00143347
0.00157783
0.00168079
0.00175378
0.00180455
0.00183889
0.0018613
0.00187529
0.00188359
0.00188822
0.00189068
0.00189201
0.00189291
0.00189385
0.00189517
0.00189714
0.00189998
0.00190395
0.00190927
0.00191624
0.00192507
0.00193587
0.00194832
0.00196114
0.00196953
0.0019686
0.00194323
0.00186971
0.00171795
0.00152122
0.0014831
0.00182666
0.00260744
0.00302853
0.00314321
0.00266233
0.00166087
0.000283223
0.000915389
0.00123926
0.00144507
0.00158815
0.00168945
0.00176065
0.0018097
0.00184252
0.00186367
0.00187669
0.00188428
0.00188843
0.0018906
0.00189177
0.00189261
0.00189356
0.00189493
0.00189698
0.00189993
0.001904
0.00190943
0.00191647
0.00192529
0.00193584
0.00194741
0.0019579
0.00196236
0.00195389
0.00191583
0.00182396
0.00165259
0.00148428
0.00148699
0.00193132
0.0027905
0.0034513
0.00368151
0.00321582
0.00191847
0.000289543
0.000928662
0.00125298
0.00145772
0.00159897
0.00169811
0.00176717
0.00181431
0.00184556
0.00186554
0.00187776
0.00188489
0.00188887
0.00189104
0.00189237
0.00189347
0.00189476
0.00189652
0.001899
0.0019024
0.00190694
0.00191285
0.00192033
0.00192948
0.00194008
0.00195121
0.00195975
0.00196135
0.00194635
0.0018988
0.00179621
0.00162063
0.00146174
0.00147232
0.00193057
0.00283929
0.00375779
0.00416023
0.00373518
0.00213954
0.000297035
0.000943851
0.00126816
0.00147113
0.00160989
0.00170642
0.00177311
0.00181835
0.00184825
0.00186742
0.00187932
0.0018865
0.0018908
0.00189355
0.00189563
0.00189764
0.00189994
0.0019028
0.00190644
0.00191106
0.00191687
0.00192408
0.00193284
0.00194317
0.00195466
0.00196609
0.00197354
0.0019734
0.00195553
0.00190499
0.00180248
0.00163565
0.00147634
0.00147618
0.00190161
0.00283337
0.00392031
0.00455749
0.0042263
0.00232617
0.000305948
0.000960875
0.00128452
0.00148486
0.0016205
0.00171414
0.0017786
0.00182239
0.00185163
0.00187085
0.00188329
0.00189145
0.0018971
0.0019015
0.00190548
0.00190955
0.00191409
0.00191932
0.00192545
0.00193267
0.00194118
0.00195117
0.00196276
0.00197589
0.00198999
0.00200356
0.00201242
0.00201262
0.00199409
0.00194339
0.00184526
0.00169438
0.00154322
0.00153749
0.00191892
0.00282111
0.0039879
0.00487257
0.00467579
0.00249777
0.000316418
0.00097957
0.00130157
0.0014984
0.00163058
0.00172166
0.00178479
0.00182844
0.00185852
0.00187925
0.00189389
0.00190481
0.0019137
0.00192172
0.00192963
0.00193792
0.00194693
0.00195688
0.00196795
0.0019803
0.00199411
0.00200956
0.00202675
0.00204555
0.00206529
0.00208428
0.0020986
0.00210309
0.00208896
0.002044
0.00195697
0.00182808
0.00169787
0.00169998
0.00201773
0.00282452
0.00401004
0.00509679
0.00504031
0.00264498
0.00032854
0.000999496
0.00131872
0.00151156
0.00164094
0.00173116
0.00179537
0.00184146
0.00187503
0.00190027
0.00192026
0.00193728
0.00195292
0.00196827
0.00198403
0.00200067
0.00201852
0.00203777
0.00205854
0.00208095
0.0021051
0.00213114
0.0021591
0.00218878
0.00221942
0.00224929
0.0022749
0.00229013
0.0022874
0.00225582
0.00218718
0.00208305
0.0019772
0.00198385
0.00223193
0.00291095
0.00404778
0.00525903
0.00533323
0.00278628
0.000342102
0.00102003
0.00133581
0.00152584
0.00165573
0.00174964
0.0018195
0.00187307
0.0019157
0.00195131
0.00198288
0.00201261
0.00204207
0.00207229
0.00210391
0.0021374
0.00217305
0.00221104
0.00225129
0.0022937
0.00233822
0.00238488
0.00243351
0.0024837
0.00253457
0.00258439
0.00263005
0.0026658
0.00268369
0.00267393
0.00263093
0.00255174
0.00246335
0.00245847
0.00263303
0.00315702
0.00416808
0.0054172
0.00550303
0.00292445
0.000359247
0.00104192
0.00135523
0.00154918
0.00168813
0.00179489
0.00188095
0.00195335
0.00201701
0.0020756
0.00213203
0.00218864
0.00224712
0.00230828
0.00237258
0.00244031
0.0025117
0.0025869
0.00266518
0.00274591
0.00282865
0.00291344
0.00299939
0.00308562
0.00317103
0.00325391
0.00333099
0.00339744
0.00344599
0.00346671
0.00345331
0.0034075
0.00333489
0.00330458
0.00340053
0.00374521
0.00450362
0.00563339
0.00560882
0.00303116
0.000374024
0.00106628
0.00139176
0.00160779
0.00177777
0.00192187
0.00204999
0.00216825
0.00228082
0.00239091
0.00250127
0.00261441
0.00273264
0.00285568
0.00298301
0.00311401
0.0032487
0.00338803
0.00352917
0.00367077
0.00381173
0.0039504
0.00408578
0.00421755
0.00434476
0.00446627
0.00457929
0.00468041
0.00476323
0.0048205
0.0048398
0.00482367
0.00477593
0.00471661
0.00473005
0.00487392
0.00525345
0.00598826
0.00569627
0.00308496
0.000407064
0.0011156
0.00149678
0.00179958
0.00206696
0.00231308
0.00254663
0.00277242
0.00299262
0.00320876
0.00342264
0.00363659
0.00385595
0.00407627
0.00429457
0.00450951
0.00471998
0.00492311
0.00512
0.005311
0.00549574
0.00567392
0.0058442
0.00600703
0.00616127
0.00630702
0.00644142
0.00656321
0.00666679
0.00674763
0.00679871
0.00679987
0.00677627
0.00672073
0.00664467
0.00663182
0.00657778
0.00653518
0.00573794
0.00310224
0.000410943
0.00120532
0.00184238
0.00244597
0.00297661
0.00345408
0.00389578
0.00430975
0.00469693
0.00505768
0.00539382
0.00570842
0.0059968
0.00626337
0.00651111
0.00674344
0.00696184
0.00716759
0.00736102
0.00754386
0.00771569
0.00787823
0.00803077
0.00817542
0.0083098
0.00843538
0.00854962
0.00865135
0.00873965
0.00880471
0.00885443
0.00885284
0.00883275
0.00877222
0.00862113
0.0083054
0.00767078
0.00682932
0.00554017
0.0030196
0.000297268
0.000464826
0.000703501
0.000928586
0.00113755
0.00132921
0.00150538
0.00166982
0.00182556
0.00197443
0.00211677
0.00225429
0.00238586
0.00251151
0.00263147
0.00274631
0.00285659
0.0029625
0.00306487
0.00316291
0.00325877
0.00334953
0.00343997
0.00352386
0.00361033
0.00368734
0.00377044
0.00383968
0.00391821
0.00397647
0.00404325
0.0040814
0.00411268
0.00410684
0.00408994
0.00405739
0.00397909
0.00384621
0.0035788
0.00285353
)
;

boundaryField
{
    movingWall
    {
        type            kqRWallFunction;
        value           nonuniform List<scalar> 
40
(
0.000297268
0.000464826
0.000703501
0.000928586
0.00113755
0.00132921
0.00150538
0.00166982
0.00182556
0.00197443
0.00211677
0.00225429
0.00238586
0.00251151
0.00263147
0.00274631
0.00285659
0.0029625
0.00306487
0.00316291
0.00325877
0.00334953
0.00343997
0.00352386
0.00361033
0.00368734
0.00377044
0.00383968
0.00391821
0.00397647
0.00404325
0.0040814
0.00411268
0.00410684
0.00408994
0.00405739
0.00397909
0.00384621
0.0035788
0.00285353
)
;
    }
    fixedWalls
    {
        type            kqRWallFunction;
        value           nonuniform List<scalar> 
120
(
2.46823e-05
7.09658e-05
0.000118888
0.000156061
0.000183506
0.000203384
0.000217534
0.000227426
0.00023423
0.000238864
0.000242033
0.000244262
0.000245924
0.000247276
0.000248487
0.000249665
0.000250882
0.000252181
0.000253597
0.000255156
0.000256887
0.000258821
0.000260999
0.000263472
0.000266304
0.000269579
0.000273401
0.000277898
0.000283223
0.000289543
0.000297035
0.000305948
0.000316418
0.00032854
0.000342102
0.000359247
0.000374024
0.000407064
0.000410943
0.000297268
2.46884e-05
7.01676e-05
0.000114555
0.000147314
0.000170179
0.000185616
0.000195585
0.000201626
0.000204728
0.000205758
0.000205604
0.000204373
0.000202314
0.000199502
0.000195886
0.000191307
0.000185459
0.000177802
0.000167348
0.000152162
0.000128528
0.000105851
0.000112173
0.000217223
0.00053112
0.000998725
0.00138781
0.00166087
0.00191847
0.00213954
0.00232617
0.00249777
0.00264498
0.00278628
0.00292445
0.00303116
0.00308496
0.00310224
0.0030196
0.00285353
2.46823e-05
7.02551e-05
0.000115103
0.000148541
0.000172281
0.000188795
0.000200057
0.000207587
0.000212547
0.000215811
0.000218006
0.000219564
0.000220768
0.000221792
0.000222741
0.000223674
0.000224622
0.000225601
0.000226616
0.000227667
0.000228744
0.000229836
0.000230952
0.000232196
0.00023348
0.000234716
0.000235832
0.000236687
0.00023707
0.000236777
0.000235317
0.000232142
0.00022651
0.000217477
0.000203865
0.000184216
0.000156728
0.000119297
7.09625e-05
2.46884e-05
)
;
    }
    frontAndBack
    {
        type            empty;
    }
}


// ************************************************************************* //
