/*--------------------------------*- C++ -*----------------------------------*\
  =========                 |
  \\      /  F ield         | OpenFOAM: The Open Source CFD Toolbox
   \\    /   O peration     | Website:  https://openfoam.org
    \\  /    A nd           | Version:  13
     \\/     M anipulation  |
\*---------------------------------------------------------------------------*/
FoamFile
{
    format      ascii;
    class       volScalarField;
    location    "0.5";
    object      nut;
}
// * * * * * * * * * * * * * * * * * * * * * * * * * * * * * * * * * * * * * //

dimensions      [0 2 -1 0 0 0 0];

internalField   nonuniform List<scalar> 
1600
(
1.67978e-07
4.82916e-07
7.93624e-07
1.0258e-06
1.19104e-06
1.3063e-06
1.38515e-06
1.43804e-06
1.473e-06
1.49607e-06
1.51162e-06
1.52268e-06
1.53122e-06
1.53849e-06
1.54521e-06
1.55181e-06
1.55851e-06
1.56544e-06
1.57263e-06
1.58007e-06
1.58771e-06
1.59547e-06
1.60338e-06
1.61215e-06
1.62126e-06
1.63002e-06
1.63791e-06
1.64392e-06
1.64657e-06
1.64439e-06
1.63393e-06
1.61138e-06
1.57158e-06
1.50799e-06
1.41249e-06
1.27508e-06
1.08341e-06
8.23112e-07
4.87881e-07
1.68018e-07
4.87896e-07
9.18418e-06
1.59837e-05
2.01001e-05
2.28301e-05
2.47262e-05
2.60616e-05
2.70003e-05
2.76556e-05
2.81121e-05
2.84342e-05
2.86697e-05
2.88531e-05
2.90078e-05
2.91493e-05
2.9287e-05
2.94268e-05
2.95718e-05
2.97239e-05
2.98835e-05
3.00498e-05
3.02196e-05
3.03858e-05
3.05315e-05
3.06636e-05
3.07841e-05
3.0882e-05
3.0935e-05
3.093e-05
3.08223e-05
3.05686e-05
3.01105e-05
2.93742e-05
2.82667e-05
2.66654e-05
2.43965e-05
2.11904e-05
1.65131e-05
9.11055e-06
4.82291e-07
8.20152e-07
1.65051e-05
3.03964e-05
3.92997e-05
4.53378e-05
4.95913e-05
5.2615e-05
5.47499e-05
5.62401e-05
5.72703e-05
5.79823e-05
5.8484e-05
5.88539e-05
5.91466e-05
5.93986e-05
5.96327e-05
5.98627e-05
6.00963e-05
6.03377e-05
6.05878e-05
6.08457e-05
6.11075e-05
6.13664e-05
6.16116e-05
6.18372e-05
6.20285e-05
6.21521e-05
6.21786e-05
6.20461e-05
6.16755e-05
6.09696e-05
5.9806e-05
5.80343e-05
5.54681e-05
5.18662e-05
4.68901e-05
4.00005e-05
3.0248e-05
1.5757e-05
7.89705e-07
1.07858e-06
2.11456e-05
4.00912e-05
5.28355e-05
6.173e-05
6.80749e-05
7.26208e-05
7.58559e-05
7.81275e-05
7.97011e-05
8.07837e-05
8.15345e-05
8.20715e-05
8.24787e-05
8.28128e-05
8.31102e-05
8.33935e-05
8.36754e-05
8.39627e-05
8.42579e-05
8.456e-05
8.48651e-05
8.51658e-05
8.54504e-05
8.57011e-05
8.58889e-05
8.59664e-05
8.58866e-05
8.55503e-05
8.48478e-05
8.36382e-05
8.17485e-05
7.89694e-05
7.50462e-05
6.96572e-05
6.23636e-05
5.24983e-05
3.89204e-05
1.97217e-05
1.01704e-06
1.26989e-06
2.43399e-05
4.69555e-05
6.26742e-05
7.38697e-05
8.1979e-05
8.78592e-05
9.20828e-05
9.50706e-05
9.71503e-05
9.85813e-05
9.95656e-05
0.000100256
0.000100762
0.000101161
0.000101502
0.000101816
0.000102121
0.000102428
0.000102739
0.000103056
0.000103372
0.000103679
0.00010396
0.000104188
0.000104317
0.000104308
0.000104069
0.000103487
0.000102424
0.000100706
9.81231e-05
9.4425e-05
8.9314e-05
8.24215e-05
7.32581e-05
6.11034e-05
4.46984e-05
2.22955e-05
1.17604e-06
1.40888e-06
2.66261e-05
5.19557e-05
6.99829e-05
8.30365e-05
9.26158e-05
9.96367e-05
0.000104726
0.000108353
0.000110892
0.000112641
0.000113839
0.000114667
0.000115259
0.000115707
0.000116075
0.000116401
0.000116711
0.000117017
0.000117324
0.000117632
0.000117935
0.000118221
0.000118469
0.000118643
0.00011869
0.00011856
0.000118136
0.000117293
0.000115868
0.000113662
0.00011044
0.000105926
9.97992e-05
9.1666e-05
8.10164e-05
6.71134e-05
4.86614e-05
2.40162e-05
1.28361e-06
1.50814e-06
2.82782e-05
5.56357e-05
7.5444e-05
8.99772e-05
0.00010076
0.000108737
0.000114567
0.000118752
0.000121696
0.00012373
0.000125118
0.000126067
0.00012673
0.000127215
0.000127598
0.000127925
0.000128226
0.000128517
0.000128804
0.000129088
0.000129361
0.000129609
0.000129805
0.000129901
0.000129856
0.000129585
0.000128968
0.000127863
0.000126089
0.000123431
0.000119636
0.000114417
0.000107437
9.82983e-05
8.64865e-05
7.12649e-05
5.13526e-05
2.51453e-05
1.35324e-06
1.57778e-06
2.94701e-05
5.83374e-05
7.95062e-05
9.51995e-05
0.000106948
0.000115711
0.000122159
0.000126817
0.000130109
0.000132388
0.00013394
0.000134992
0.000135712
0.000136224
0.000136612
0.00013693
0.000137213
0.00013748
0.000137738
0.000137987
0.00013822
0.000138418
0.00013855
0.000138566
0.000138414
0.000137999
0.00013719
0.000135833
0.000133735
0.000130669
0.000126373
0.000120553
0.000112872
0.000102933
9.02299e-05
7.40378e-05
5.3096e-05
2.58419e-05
1.39551e-06
1.62585e-06
3.0323e-05
6.03033e-05
8.24967e-05
9.90838e-05
0.000111593
0.000120983
0.000127935
0.000132982
0.000136562
0.000139046
0.000140734
0.000141869
0.000142635
0.000143164
0.00014355
0.000143853
0.000144113
0.00014435
0.000144574
0.000144784
0.000144971
0.000145115
0.000145175
0.000145112
0.000144849
0.000144293
0.000143302
0.000141712
0.00013932
0.000135894
0.000131167
0.000124844
0.000116594
0.000106029
9.26558e-05
7.5769e-05
5.4126e-05
2.61969e-05
1.41719e-06
1.65872e-06
3.0928e-05
6.17181e-05
8.46714e-05
0.000101934
0.000115027
0.000124908
0.000132258
0.000137614
0.000141426
0.000144073
0.00014587
0.00014707
0.000147868
0.000148406
0.000148785
0.000149071
0.000149305
0.00014951
0.000149698
0.000149868
0.000150008
0.000150097
0.000150092
0.000149948
0.000149582
0.000148891
0.000147733
0.00014593
0.000143278
0.000139537
0.000134443
0.000127704
0.000118996
0.000107946
9.40788e-05
7.67039e-05
5.45884e-05
2.62823e-05
1.42431e-06
1.68126e-06
3.13553e-05
6.27283e-05
8.62363e-05
0.000103999
0.000117531
0.000127784
0.000135437
0.000141032
0.000145022
0.000147795
0.000149674
0.000150922
0.000151742
0.000152283
0.000152651
0.000152918
0.000153126
0.000153302
0.000153456
0.000153588
0.000153685
0.00015372
0.000153658
0.00015344
0.000152978
0.000152165
0.000150855
0.000148863
0.000145981
0.000141967
0.00013656
0.000129474
0.000120398
0.000108971
9.47382e-05
7.70224e-05
5.46339e-05
2.61926e-05
1.42309e-06
1.69715e-06
3.16595e-05
6.34499e-05
8.73582e-05
0.000105485
0.000119338
0.000129864
0.000137742
0.000143512
0.000147633
0.000150497
0.000152435
0.000153716
0.000154548
0.000155087
0.000155444
0.000155692
0.000155878
0.000156027
0.000156151
0.00015625
0.000156311
0.000156299
0.000156187
0.000155903
0.000155359
0.000154435
0.00015299
0.00015083
0.000147743
0.000143491
0.000137813
0.000130433
0.000121052
0.000109327
9.48188e-05
7.68965e-05
5.43756e-05
2.59304e-05
1.41419e-06
1.70899e-06
3.18824e-05
6.3974e-05
8.81695e-05
0.000106556
0.000120638
0.000131359
0.000139395
0.000145289
0.000149501
0.000152427
0.000154403
0.000155703
0.00015654
0.000157075
0.00015742
0.000157652
0.000157818
0.000157946
0.000158046
0.000158119
0.00015815
0.000158102
0.000157947
0.000157608
0.000156992
0.000155975
0.000154404
0.000152096
0.000148825
0.000144356
0.000138435
0.000130795
0.00012115
0.000109179
9.44667e-05
7.6418e-05
5.38388e-05
2.55188e-05
1.39938e-06
1.71859e-06
3.20545e-05
6.43692e-05
8.87723e-05
0.000107343
0.000121583
0.000132437
0.00014058
0.000146555
0.000150825
0.000153789
0.000155786
0.000157095
0.000157932
0.00015846
0.000158794
0.000159012
0.000159163
0.000159275
0.000159358
0.000159412
0.000159421
0.000159347
0.000159158
0.000158775
0.000158098
0.000156999
0.000155315
0.000152868
0.000149427
0.000144754
0.000138602
0.000130716
0.000120827
0.000108635
9.37558e-05
7.56184e-05
5.30443e-05
2.49585e-05
1.37914e-06
1.72717e-06
3.21979e-05
6.46861e-05
8.9243e-05
0.000107943
0.000122291
0.000133232
0.000141441
0.000147464
0.000151765
0.000154747
0.000156753
0.000158062
0.000158894
0.000159414
0.000159739
0.000159947
0.000160087
0.000160187
0.00016026
0.000160302
0.000160297
0.000160207
0.000159991
0.000159573
0.000158847
0.000157676
0.000155893
0.000153302
0.000149699
0.000144821
0.000138436
0.000130298
0.000120158
0.000107741
9.26957e-05
7.44999e-05
5.1976e-05
2.42312e-05
1.3531e-06
1.73548e-06
3.23276e-05
6.49603e-05
8.96364e-05
0.000108429
0.000122849
0.000133842
0.000142087
0.000148132
0.000152445
0.00015543
0.000157433
0.000158735
0.00015956
0.000160071
0.000160388
0.000160588
0.000160721
0.000160816
0.000160883
0.00016092
0.000160909
0.000160813
0.000160576
0.000160132
0.000159363
0.000158126
0.000156248
0.000153523
0.000149727
0.000144646
0.000138004
0.000129585
0.00011916
0.000106488
9.12641e-05
7.30061e-05
5.0586e-05
2.32985e-05
1.32007e-06
1.74404e-06
3.24538e-05
6.52163e-05
8.9991e-05
0.000108853
0.000123318
0.000134339
0.000142598
0.000148646
0.000152954
0.000155931
0.000157922
0.000159213
0.000160027
0.00016053
0.000160839
0.000161034
0.000161164
0.000161257
0.000161324
0.000161361
0.00016135
0.000161255
0.000161004
0.000160539
0.000159732
0.000158433
0.000156457
0.00015359
0.000149599
0.000144242
0.000137324
0.000128564
0.000117786
0.000104789
8.93259e-05
7.09802e-05
4.87969e-05
2.20899e-05
1.2778e-06
1.75316e-06
3.25832e-05
6.54707e-05
9.0333e-05
0.000109248
0.000123742
0.000134774
0.00014303
0.000149067
0.000153358
0.000156316
0.00015829
0.000159566
0.000160367
0.000160859
0.000161162
0.000161353
0.000161482
0.000161577
0.000161647
0.000161689
0.000161683
0.00016159
0.000161342
0.000160851
0.00016001
0.000158646
0.000156562
0.000153532
0.000149308
0.000143642
0.0001363
0.00012714
0.000115886
0.000102439
8.66388e-05
6.81756e-05
4.64006e-05
2.04913e-05
1.22227e-06
1.76309e-06
3.27205e-05
6.57347e-05
9.06805e-05
0.000109641
0.000124152
0.000135181
0.000143422
0.000149436
0.000153701
0.000156633
0.000158584
0.00015984
0.000160625
0.000161107
0.000161403
0.000161592
0.000161721
0.000161819
0.000161896
0.000161946
0.000161947
0.00016186
0.000161618
0.000161106
0.000160221
0.000158784
0.000156573
0.00015334
0.000148819
0.00014274
0.000134863
0.000125012
0.000113165
9.90538e-05
8.27532e-05
6.41446e-05
4.29734e-05
1.8303e-05
1.14604e-06
1.77402e-06
3.28692e-05
6.60167e-05
9.10461e-05
0.000110046
0.000124567
0.000135584
0.000143799
0.000149781
0.000154012
0.000156912
0.000158833
0.000160066
0.000160834
0.000161304
0.000161592
0.000161777
0.000161908
0.00016201
0.000162094
0.000162153
0.000162164
0.000162082
0.000161837
0.000161324
0.000160372
0.00015884
0.000156463
0.000152962
0.000148032
0.000141371
0.000132716
0.000121885
0.000108973
9.40082e-05
7.67344e-05
5.79844e-05
3.77699e-05
1.51629e-05
1.03449e-06
1.78615e-06
3.30324e-05
6.63232e-05
9.14394e-05
0.000110477
0.000125001
0.000135997
0.000144179
0.00015012
0.000154309
0.000157169
0.000159057
0.000160262
0.000161009
0.000161465
0.000161744
0.000161926
0.000162056
0.000162162
0.000162253
0.00016232
0.000162338
0.000162261
0.00016201
0.000161468
0.000160471
0.000158778
0.000156173
0.000152294
0.000146779
0.00013927
0.000129466
0.000117203
0.000102519
8.61419e-05
6.76003e-05
4.8367e-05
2.9551e-05
1.05774e-05
8.59382e-07
1.79971e-06
3.32133e-05
6.66604e-05
9.18683e-05
0.000110943
0.000125464
0.000136432
0.000144571
0.000150462
0.000154601
0.000157415
0.000159263
0.000160437
0.00016116
0.000161598
0.000161867
0.000162042
0.000162171
0.000162278
0.000162373
0.000162445
0.000162468
0.000162388
0.00016212
0.000161533
0.000160439
0.000158587
0.000155604
0.000151186
0.000144832
0.000136092
0.000124615
0.000110256
9.30247e-05
7.4472e-05
5.43073e-05
3.43298e-05
1.78488e-05
5.7133e-06
7.18005e-07
1.81497e-06
3.34153e-05
6.70346e-05
9.23405e-05
0.00011145
0.000125963
0.000136895
0.000144981
0.000150813
0.000154893
0.000157653
0.000159455
0.000160591
0.000161286
0.000161704
0.000161958
0.000162124
0.000162248
0.000162353
0.000162447
0.000162519
0.000162538
0.000162445
0.000162144
0.000161484
0.000160246
0.000158125
0.000154719
0.000149458
0.000141952
0.000131519
0.000117762
0.000100546
8.0406e-05
5.88618e-05
3.7693e-05
2.09457e-05
1.12005e-05
4.12336e-06
8.03801e-07
1.83228e-06
3.36428e-05
6.74532e-05
9.28634e-05
0.000112007
0.000126504
0.00013739
0.000145411
0.000151171
0.000155182
0.000157879
0.000159628
0.000160721
0.000161382
0.000161775
0.000162011
0.000162163
0.000162276
0.000162374
0.000162461
0.000162525
0.00016253
0.000162409
0.000162051
0.000161281
0.00015984
0.000157358
0.000153341
0.000147045
0.000137994
0.000125429
0.000108885
8.85182e-05
6.52917e-05
4.18599e-05
2.43061e-05
1.49819e-05
1.05489e-05
5.40588e-06
1.7023e-06
1.85212e-06
3.39009e-05
6.79242e-05
9.34447e-05
0.000112619
0.00012709
0.000137915
0.000145857
0.000151532
0.000155461
0.000158085
0.000159772
0.000160813
0.000161434
0.000161796
0.000162008
0.000162141
0.000162238
0.000162321
0.000162393
0.000162438
0.000162415
0.000162248
0.000161807
0.000160888
0.000159179
0.000156235
0.000151453
0.000143903
0.000133071
0.000118069
9.85509e-05
7.50677e-05
4.99187e-05
2.90066e-05
1.99124e-05
1.85366e-05
1.80731e-05
1.05408e-05
4.14167e-06
1.87504e-06
3.41958e-05
6.8456e-05
9.40919e-05
0.000113289
0.00012772
0.000138466
0.00014631
0.000151882
0.000155714
0.000158252
0.000159864
0.000160844
0.000161417
0.000161742
0.000161922
0.000162028
0.0001621
0.000162159
0.000162206
0.00016222
0.000162155
0.000161924
0.000161376
0.000160272
0.000158246
0.00015477
0.000149131
0.00014021
0.000127597
0.000110274
8.80298e-05
6.19949e-05
3.79275e-05
2.6431e-05
2.59013e-05
2.84507e-05
2.75072e-05
1.70414e-05
7.45781e-06
1.90179e-06
3.45347e-05
6.90576e-05
9.48104e-05
0.000114018
0.000128387
0.000139028
0.000146749
0.000152196
0.000155913
0.000158349
0.00015987
0.000160777
0.00016129
0.000161566
0.000161705
0.000161776
0.000161817
0.000161843
0.000161854
0.000161827
0.000161709
0.000161399
0.000160728
0.00015942
0.000157062
0.000153057
0.000146551
0.000136562
0.000122416
0.000103064
7.86442e-05
5.18182e-05
3.50615e-05
2.91244e-05
3.68857e-05
3.80912e-05
3.59744e-05
2.36944e-05
1.00254e-05
1.93325e-06
3.49253e-05
6.97365e-05
9.56011e-05
0.000114797
0.000129071
0.000139573
0.000147137
0.000152431
0.000156004
0.000158311
0.000159724
0.000160542
0.000160979
0.000161192
0.000161275
0.000161291
0.000161279
0.000161255
0.000161215
0.000161134
0.000160955
0.000160568
0.000159789
0.000158317
0.000155701
0.0001513
0.000144056
0.000133345
0.000118061
9.75901e-05
7.23256e-05
4.80917e-05
3.49688e-05
3.51674e-05
4.7026e-05
4.80614e-05
4.50804e-05
3.09296e-05
1.18742e-05
1.97048e-06
3.53747e-05
7.04966e-05
9.64559e-05
0.000115604
0.000129737
0.00014005
0.000147411
0.000152505
0.000155893
0.000158038
0.000159314
0.000160015
0.000160353
0.000160473
0.000160475
0.000160418
0.000160335
0.000160242
0.000160135
0.000159986
0.000159736
0.000159275
0.000158415
0.000156846
0.000154082
0.000149425
0.000141931
0.000130884
0.00011522
9.43243e-05
6.90269e-05
4.7844e-05
3.65939e-05
3.98504e-05
5.30231e-05
5.70406e-05
5.31949e-05
3.84529e-05
1.36699e-05
2.01462e-06
3.58885e-05
7.13335e-05
9.73513e-05
0.000116391
0.000130313
0.000140366
0.000147452
0.000152279
0.000155421
0.000157351
0.00015844
0.000158977
0.000159167
0.000159153
0.000159027
0.000158847
0.000158646
0.000158439
0.000158224
0.000157977
0.000157643
0.000157118
0.000156221
0.000154653
0.000151968
0.000147402
0.000140226
0.000129463
0.000114269
9.42594e-05
7.02667e-05
5.04663e-05
3.9475e-05
4.33762e-05
5.67117e-05
6.50485e-05
6.00373e-05
4.49417e-05
1.51691e-05
2.06688e-06
3.64671e-05
7.22282e-05
9.82363e-05
0.000117073
0.000130672
0.000140349
0.000147048
0.000151503
0.000154305
0.00015593
0.000156747
0.000157033
0.00015699
0.000156757
0.000156424
0.000156046
0.000155656
0.000155272
0.000154894
0.000154508
0.000154068
0.000153489
0.000152611
0.00015117
0.000148756
0.000144615
0.000138245
0.000128661
0.000115003
9.71228e-05
7.55314e-05
5.6367e-05
4.51446e-05
4.78874e-05
6.05509e-05
6.99973e-05
6.57868e-05
5.05581e-05
1.64625e-05
2.129e-06
3.70973e-05
7.31363e-05
9.90139e-05
0.000117487
0.000130582
0.000139697
0.000145827
0.000149738
0.000152047
0.000153214
0.000153608
0.000153503
0.000153096
0.000152519
0.000151858
0.000151168
0.000150483
0.000149822
0.000149196
0.0001486
0.000148009
0.000147364
0.000146546
0.000145347
0.000143425
0.000140132
0.000135041
0.000127238
0.000115905
0.000100498
8.19454e-05
6.4656e-05
5.39661e-05
5.48341e-05
6.5018e-05
7.2652e-05
7.02383e-05
5.51542e-05
1.76474e-05
2.20191e-06
3.77643e-05
7.39732e-05
9.95048e-05
0.000117332
0.000129612
0.000137845
0.000143118
0.000146227
0.00014777
0.000148235
0.000147987
0.000147295
0.000146345
0.000145261
0.000144126
0.000142991
0.000141892
0.000140853
0.00013989
0.000139014
0.000138219
0.000137481
0.00013673
0.000135828
0.000134528
0.000132374
0.000128908
0.000123466
0.000115284
0.00010387
8.96312e-05
7.50187e-05
6.55948e-05
6.35637e-05
6.86761e-05
7.46597e-05
7.33467e-05
5.83826e-05
1.86627e-05
2.28633e-06
3.84378e-05
7.45743e-05
9.93609e-05
0.000116005
0.000126927
0.000133815
0.000137767
0.000139625
0.000140039
0.000139501
0.000138371
0.000136901
0.000135261
0.000133563
0.000131881
0.000130262
0.00012874
0.000127337
0.000126072
0.000124961
0.000124016
0.000123234
0.000122588
0.000122003
0.000121327
0.000120293
0.000118473
0.000115441
0.000110591
0.000103549
9.42608e-05
8.38983e-05
7.67691e-05
7.25062e-05
7.34338e-05
7.64832e-05
7.46359e-05
6.06115e-05
1.96484e-05
2.38069e-06
3.9066e-05
7.4595e-05
9.78158e-05
0.000112394
0.00012115
0.00012587
0.000127837
0.000127974
0.000126951
0.000125247
0.00012319
0.000120997
0.000118807
0.000116702
0.000114737
0.000112946
0.000111351
0.000109958
0.000108771
0.000107797
0.000107048
0.000106524
0.00010621
0.000106066
0.000106011
0.000105901
0.000105457
0.000104323
0.000102065
9.85037e-05
9.307e-05
8.63008e-05
8.12423e-05
7.71457e-05
7.5827e-05
7.74844e-05
7.49302e-05
6.10788e-05
2.06061e-05
2.50039e-06
3.95205e-05
7.32826e-05
9.34805e-05
0.000104484
0.00010977
0.000111517
0.000111133
0.000109546
0.000107364
0.000104975
0.000102619
0.000100435
9.84879e-05
9.68035e-05
9.53937e-05
9.42668e-05
9.34268e-05
9.2834e-05
9.24597e-05
9.22889e-05
9.23402e-05
9.25808e-05
9.29827e-05
9.35245e-05
9.41586e-05
9.47904e-05
9.52644e-05
9.53575e-05
9.47068e-05
9.31473e-05
9.05719e-05
8.64209e-05
8.25996e-05
7.95775e-05
7.75577e-05
7.73975e-05
7.43322e-05
6.05065e-05
2.13412e-05
2.60386e-06
3.93252e-05
6.93699e-05
8.36388e-05
8.92489e-05
9.05847e-05
8.98443e-05
8.81938e-05
8.62749e-05
8.44336e-05
8.28478e-05
8.16092e-05
8.07723e-05
8.02849e-05
8.00955e-05
8.01665e-05
8.04911e-05
8.11117e-05
8.18975e-05
8.2794e-05
8.37704e-05
8.47731e-05
8.57836e-05
8.68133e-05
8.78708e-05
8.89379e-05
8.99817e-05
9.09221e-05
9.16425e-05
9.1936e-05
9.14805e-05
9.03751e-05
8.84003e-05
8.54307e-05
8.31012e-05
8.03802e-05
7.75336e-05
7.26814e-05
5.92477e-05
2.17076e-05
2.83546e-06
3.81412e-05
5.98622e-05
6.63303e-05
6.78419e-05
6.79738e-05
6.77178e-05
6.74625e-05
6.73754e-05
6.75201e-05
6.79164e-05
6.8582e-05
6.96499e-05
7.09286e-05
7.2314e-05
7.3759e-05
7.52289e-05
7.66435e-05
7.80388e-05
7.94181e-05
8.07808e-05
8.21105e-05
8.33533e-05
8.45367e-05
8.56889e-05
8.68048e-05
8.78749e-05
8.88633e-05
8.97168e-05
9.03511e-05
9.06621e-05
9.02331e-05
8.9662e-05
8.81819e-05
8.55749e-05
8.28162e-05
7.80914e-05
6.91272e-05
5.52257e-05
2.18233e-05
2.86724e-06
3.25722e-05
4.5191e-05
4.96752e-05
5.24062e-05
5.48173e-05
5.69103e-05
5.87867e-05
6.05069e-05
6.21124e-05
6.36386e-05
6.51226e-05
6.64536e-05
6.76917e-05
6.88797e-05
7.00396e-05
7.1178e-05
7.22866e-05
7.33651e-05
7.44153e-05
7.5438e-05
7.64245e-05
7.7401e-05
7.83592e-05
7.92889e-05
8.01791e-05
8.10223e-05
8.18027e-05
8.25031e-05
8.30621e-05
8.35372e-05
8.3562e-05
8.34443e-05
8.29485e-05
8.16308e-05
7.87654e-05
7.33785e-05
6.34415e-05
4.81217e-05
2.12114e-05
2.07306e-06
3.2467e-06
4.91748e-06
6.49388e-06
7.9581e-06
9.30141e-06
1.05366e-05
1.169e-05
1.27826e-05
1.38275e-05
1.48265e-05
1.57921e-05
1.67165e-05
1.75994e-05
1.84425e-05
1.92496e-05
2.00248e-05
2.07691e-05
2.14889e-05
2.21781e-05
2.28524e-05
2.34906e-05
2.41271e-05
2.47172e-05
2.53258e-05
2.58681e-05
2.6453e-05
2.6941e-05
2.74932e-05
2.79039e-05
2.83716e-05
2.86404e-05
2.88577e-05
2.88203e-05
2.86879e-05
2.84906e-05
2.79175e-05
2.70009e-05
2.51311e-05
2.00484e-05
)
;

boundaryField
{
    movingWall
    {
        type            nutkWallFunction;
        Cmu             0.09;
        kappa           0.41;
        E               9.8;
        value           uniform 0;
    }
    fixedWalls
    {
        type            nutkWallFunction;
        Cmu             0.09;
        kappa           0.41;
        E               9.8;
        value           uniform 0;
    }
    frontAndBack
    {
        type            empty;
    }
}


// ************************************************************************* //
