/*--------------------------------*- C++ -*----------------------------------*\
  =========                 |
  \\      /  F ield         | OpenFOAM: The Open Source CFD Toolbox
   \\    /   O peration     | Website:  https://openfoam.org
    \\  /    A nd           | Version:  13
     \\/     M anipulation  |
\*---------------------------------------------------------------------------*/
FoamFile
{
    format      ascii;
    class       volScalarField;
    location    "0.5";
    object      p;
}
// * * * * * * * * * * * * * * * * * * * * * * * * * * * * * * * * * * * * * //

dimensions      [0 2 -2 0 0 0 0];

internalField   nonuniform List<scalar> 
400
(
9.28094e-09
-7.66523e-06
-5.45361e-06
5.64736e-06
2.62394e-05
5.61829e-05
9.48836e-05
0.000141557
0.00019525
0.000254822
0.000318969
0.000386044
0.000453678
0.000519393
0.000580188
0.000632749
0.000673782
0.000700758
0.000712775
0.000708267
7.10619e-06
-1.06575e-06
2.4994e-06
1.49923e-05
3.57628e-05
6.47509e-05
0.000101731
0.000146207
0.000197437
0.000254465
0.000316097
0.000380525
0.000445834
0.000509611
0.0005691
0.00062136
0.000663556
0.000693176
0.00070762
0.000703075
3.58848e-06
-7.78639e-06
-5.08272e-06
8.07701e-06
2.95983e-05
5.89292e-05
9.58975e-05
0.000140189
0.000191259
0.000248306
0.00031021
0.000375393
0.000441973
0.000507646
0.000569747
0.00062537
0.000671491
0.00070465
0.00072018
0.000713003
-1.00266e-05
-2.56147e-05
-2.53863e-05
-1.27303e-05
9.37359e-06
3.96896e-05
7.78374e-05
0.000123544
0.0001764
0.000235749
0.000300601
0.000369548
0.000440758
0.000511935
0.000580299
0.000642587
0.000694957
0.000732398
0.000748478
0.000737786
-3.47094e-05
-5.4275e-05
-5.69064e-05
-4.54171e-05
-2.30455e-05
8.4672e-06
4.84839e-05
9.6698e-05
0.000152791
0.000216246
0.000286222
0.000361448
0.000440162
0.000520017
0.000597969
0.000670127
0.000731463
0.000775149
0.000793101
0.000779535
-7.07943e-05
-9.41483e-05
-9.96061e-05
-8.94939e-05
-6.70304e-05
-3.4256e-05
8.00261e-06
5.94135e-05
0.000119751
0.000188653
0.00026546
0.000349071
0.00043784
0.000529387
0.000620369
0.000706153
0.000780291
0.000833767
0.000856257
0.000840694
-0.000118363
-0.000145717
-0.000154069
-0.000145441
-0.000123009
-8.90015e-05
-4.43528e-05
1.06288e-05
7.58477e-05
0.000151143
0.000236094
0.000329854
0.000431007
0.000537262
0.000645099
0.000749176
0.000841468
0.000910151
0.000941326
0.00092478
-0.000177641
-0.00020959
-0.000221151
-0.000214218
-0.000192018
-0.000156948
-0.000109989
-5.13658e-05
1.90097e-05
0.000101236
0.000195216
0.000300483
0.000416051
0.000539976
0.000668876
0.000796995
0.000914747
0.00100672
0.00105326
0.00103734
-0.000249151
-0.000286646
-0.000302014
-0.000297174
-0.000275563
-0.00023979
-0.000190849
-0.000128831
-5.34119e-05
3.5822e-05
0.00013918
0.000256721
0.000388186
0.000532381
0.000686677
0.000845621
0.000998585
0.00112593
0.00119923
0.00118688
-0.000333772
-0.000378147
-0.000398208
-0.000396053
-0.000375559
-0.000339647
-0.000289317
-0.000224478
-0.00014454
-4.87548e-05
6.36348e-05
0.000193324
0.000341162
0.000507223
0.000690628
0.000887653
0.00108819
0.00126884
0.00138913
0.00138544
-0.000432829
-0.000485863
-0.000511762
-0.000513021
-0.000494299
-0.000458994
-0.000408104
-0.000341316
-0.000257781
-0.000156476
-3.62322e-05
0.000104447
0.000267218
0.0004546
0.000668673
0.000909728
0.00117146
0.0014306
0.00163599
0.0016467
-0.000548341
-0.00061231
-0.000645336
-0.00065069
-0.000634401
-0.000600557
-0.000550118
-0.000482451
-0.000396515
-0.000291219
-0.000165265
-1.67116e-05
0.000157447
0.000362013
0.000603536
0.000889314
0.00122195
0.00158885
0.00194631
0.00198052
-0.000683643
-0.000761188
-0.000802421
-0.000812137
-0.000798732
-0.000767198
-0.000718317
-0.000650803
-0.000563566
-0.000455868
-0.00032688
-0.000174872
3.84755e-06
0.000216144
0.000473401
0.000792322
0.00119037
0.00168217
0.00225678
0.00236804
-0.000844451
-0.000937963
-0.000987509
-0.00100086
-0.000990257
-0.000961619
-0.000915216
-0.000848333
-0.000760153
-0.000650925
-0.000521281
-0.000371037
-0.000197387
6.98016e-06
0.000254828
0.00056604
0.000977456
0.00155445
0.00232513
0.00265855
-0.001043
-0.00115097
-0.00120577
-0.00121959
-0.00121032
-0.00118411
-0.00113923
-0.00107263
-0.000983039
-0.000871813
-0.000742516
-0.000598618
-0.000440981
-0.000265972
-6.20091e-05
0.000175643
0.000484651
0.000960493
0.00164558
0.00244732
-0.00129484
-0.00140494
-0.00145347
-0.00145827
-0.00144776
-0.00142494
-0.00138456
-0.00132039
-0.00122886
-0.00111321
-0.000981929
-0.00084492
-0.000710218
-0.000583161
-0.000466363
-0.00033873
-0.000242821
-2.83337e-05
0.000169573
0.00171022
-0.00164488
-0.00170609
-0.00170176
-0.00167843
-0.00167495
-0.00167351
-0.00164949
-0.00158924
-0.00148993
-0.00135972
-0.0012165
-0.00108053
-0.000967447
-0.000890149
-0.000866291
-0.000912666
-0.000942269
-0.000704941
-0.00130702
0.00165535
-0.00207757
-0.00199324
-0.00187333
-0.00184244
-0.00187494
-0.00191162
-0.00190936
-0.00184959
-0.00173258
-0.00157267
-0.00140344
-0.00126041
-0.00116307
-0.0011219
-0.00114834
-0.00121882
-0.00125934
-0.000704598
-0.00146167
0.00502419
-0.00364716
-0.00294102
-0.00255847
-0.00240282
-0.00236063
-0.00233353
-0.00225667
-0.00211129
-0.00191577
-0.00169439
-0.00148571
-0.00133023
-0.00124708
-0.00123461
-0.00129176
-0.00133539
-0.00122642
-0.000400434
0.000863
0.0119504
0.000792204
0.00179812
0.000871308
0.000163164
-0.000319581
-0.000737171
-0.00111518
-0.00139643
-0.00153438
-0.00154104
-0.00146055
-0.00134944
-0.00126701
-0.00124941
-0.00129349
-0.00134378
-0.00111629
0.000202036
0.00396335
0.0155243
)
;

boundaryField
{
    movingWall
    {
        type            zeroGradient;
    }
    fixedWalls
    {
        type            zeroGradient;
    }
    frontAndBack
    {
        type            empty;
    }
}


// ************************************************************************* //
