/*--------------------------------*- C++ -*----------------------------------*\
  =========                 |
  \\      /  F ield         | OpenFOAM: The Open Source CFD Toolbox
   \\    /   O peration     | Website:  https://openfoam.org
    \\  /    A nd           | Version:  13
     \\/     M anipulation  |
\*---------------------------------------------------------------------------*/
FoamFile
{
    format      ascii;
    class       surfaceScalarField;
    location    "0.5";
    object      phi;
}
// * * * * * * * * * * * * * * * * * * * * * * * * * * * * * * * * * * * * * //

dimensions      [0 3 -1 0 0 0 0];

internalField   nonuniform List<scalar> 
760
(
-2.35249e-08
2.3524e-08
-6.10205e-08
3.74955e-08
-1.04185e-07
4.31648e-08
-1.46984e-07
4.27985e-08
-1.86368e-07
3.93838e-08
-2.20876e-07
3.45079e-08
-2.49701e-07
2.88252e-08
-2.7226e-07
2.25597e-08
-2.88007e-07
1.57468e-08
-2.9643e-07
8.42299e-09
-2.97138e-07
7.07781e-10
-2.89566e-07
-7.57198e-09
-2.73376e-07
-1.61899e-08
-2.48372e-07
-2.50039e-08
-2.14673e-07
-3.36994e-08
-1.72991e-07
-4.16822e-08
-1.25146e-07
-4.78449e-08
-7.5042e-08
-5.01039e-08
-3.00366e-08
-4.50054e-08
-3.00366e-08
-3.76353e-08
6.11592e-08
-8.10586e-08
8.09188e-08
-1.26173e-07
8.8279e-08
-1.7058e-07
8.72061e-08
-2.12138e-07
8.09411e-08
-2.49175e-07
7.15453e-08
-2.80474e-07
6.01241e-08
-3.05121e-07
4.72068e-08
-3.22396e-07
3.3022e-08
-3.31677e-07
1.77035e-08
-3.3239e-07
1.42087e-09
-3.24103e-07
-1.58589e-08
-3.06543e-07
-3.37505e-08
-2.797e-07
-5.18465e-08
-2.44009e-07
-6.93908e-08
-2.00547e-07
-8.51436e-08
-1.51231e-07
-9.71611e-08
-9.88149e-08
-1.0252e-07
-4.65671e-08
-9.72533e-08
-7.66037e-08
-4.54962e-08
1.06655e-07
-9.28276e-08
1.2825e-07
-1.39308e-07
1.3476e-07
-1.84305e-07
1.32203e-07
-2.26514e-07
1.2315e-07
-2.64465e-07
1.09496e-07
-2.96857e-07
9.25166e-08
-3.22636e-07
7.29853e-08
-3.40953e-07
5.13394e-08
-3.511e-07
2.78498e-08
-3.52448e-07
2.76893e-09
-3.44559e-07
-2.37478e-08
-3.27141e-07
-5.11685e-08
-3.00213e-07
-7.87745e-08
-2.64238e-07
-1.05366e-07
-2.20242e-07
-1.2914e-07
-1.69801e-07
-1.47601e-07
-1.1473e-07
-1.57592e-07
-5.65958e-08
-1.55388e-07
-1.332e-07
-4.95265e-08
1.56182e-07
-1.00741e-07
1.79465e-07
-1.50255e-07
1.84273e-07
-1.97498e-07
1.79446e-07
-2.4156e-07
1.67212e-07
-2.81234e-07
1.4917e-07
-3.15313e-07
1.26596e-07
-3.4274e-07
1.00412e-07
-3.62622e-07
7.12211e-08
-3.74193e-07
3.94211e-08
-3.76777e-07
5.35297e-09
-3.69828e-07
-3.06963e-08
-3.52943e-07
-6.80536e-08
-3.25979e-07
-1.05739e-07
-2.8917e-07
-1.42175e-07
-2.4322e-07
-1.7509e-07
-1.89279e-07
-2.01542e-07
-1.28792e-07
-2.18079e-07
-6.3632e-08
-2.20547e-07
-1.96832e-07
-5.25978e-08
2.0878e-07
-1.08033e-07
2.349e-07
-1.61812e-07
2.38053e-07
-2.12845e-07
2.30479e-07
-2.60199e-07
2.14566e-07
-3.02796e-07
1.91767e-07
-3.39547e-07
1.63347e-07
-3.69458e-07
1.30323e-07
-3.91658e-07
9.34212e-08
-4.05359e-07
5.31219e-08
-4.09816e-07
9.80951e-09
-4.04336e-07
-3.61757e-08
-3.8829e-07
-8.40998e-08
-3.61209e-07
-1.32821e-07
-3.22905e-07
-1.80479e-07
-2.73605e-07
-2.2439e-07
-2.14067e-07
-2.61079e-07
-1.45769e-07
-2.86377e-07
-7.1579e-08
-2.94738e-07
-2.68411e-07
-5.62404e-08
2.6502e-07
-1.16661e-07
2.9532e-07
-1.75773e-07
2.97165e-07
-2.31877e-07
2.86583e-07
-2.83813e-07
2.66501e-07
-3.30502e-07
2.38457e-07
-3.70943e-07
2.03787e-07
-4.0424e-07
1.6362e-07
-4.29587e-07
1.18769e-07
-4.46215e-07
6.97492e-08
-4.53314e-07
1.69085e-08
-4.50019e-07
-3.94709e-08
-4.35382e-07
-9.87361e-08
-4.08466e-07
-1.59737e-07
-3.68469e-07
-2.20476e-07
-3.14943e-07
-2.77917e-07
-2.48124e-07
-3.27898e-07
-1.69511e-07
-3.6499e-07
-8.30397e-08
-3.81209e-07
-3.5145e-07
-6.11343e-08
3.26155e-07
-1.27701e-07
3.61887e-07
-1.93294e-07
3.62757e-07
-2.55644e-07
3.48934e-07
-3.13298e-07
3.24156e-07
-3.65116e-07
2.90275e-07
-4.1017e-07
2.48841e-07
-4.47697e-07
2.01147e-07
-4.77021e-07
1.48093e-07
-4.97444e-07
9.01723e-08
-5.08135e-07
2.75999e-08
-5.08058e-07
-3.95477e-08
-4.95894e-07
-1.109e-07
-4.70099e-07
-1.85532e-07
-4.29015e-07
-2.61559e-07
-3.71166e-07
-3.35766e-07
-2.95802e-07
-4.03262e-07
-2.03949e-07
-4.56844e-07
-1.00326e-07
-4.84831e-07
-4.51777e-07
-6.76135e-08
3.93768e-07
-1.4181e-07
4.36083e-07
-2.15198e-07
4.36146e-07
-2.84964e-07
4.187e-07
-3.49355e-07
3.88547e-07
-4.07169e-07
3.48088e-07
-4.57588e-07
2.9926e-07
-5.00055e-07
2.43614e-07
-5.34112e-07
1.8215e-07
-5.59235e-07
1.15296e-07
-5.74662e-07
4.30262e-08
-5.7925e-07
-3.496e-08
-5.71307e-07
-1.18843e-07
-5.48576e-07
-2.08263e-07
-5.08254e-07
-3.01882e-07
-4.47253e-07
-3.96767e-07
-3.62905e-07
-4.8761e-07
-2.54526e-07
-5.65222e-07
-1.2664e-07
-6.12718e-07
-5.78417e-07
-7.59455e-08
4.69713e-07
-1.59568e-07
5.19706e-07
-2.42273e-07
5.18851e-07
-3.20657e-07
4.97084e-07
-3.92686e-07
4.60575e-07
-4.5715e-07
4.12552e-07
-5.13439e-07
3.5555e-07
-5.6132e-07
2.91494e-07
-6.00696e-07
2.21526e-07
-6.31376e-07
1.45976e-07
-6.52831e-07
6.44806e-08
-6.6398e-07
-2.38108e-08
-6.62864e-07
-1.19958e-07
-6.4651e-07
-2.24617e-07
-6.10686e-07
-3.37705e-07
-5.4992e-07
-4.57533e-07
-4.58037e-07
-5.79493e-07
-3.30069e-07
-6.93191e-07
-1.67501e-07
-7.75286e-07
-7.45917e-07
-8.65172e-08
5.56231e-07
-1.81759e-07
6.14948e-07
-2.75538e-07
6.1263e-07
-3.63759e-07
5.85305e-07
-4.44146e-07
5.40962e-07
-5.15602e-07
4.84009e-07
-5.77885e-07
4.17833e-07
-6.31266e-07
3.44875e-07
-6.76212e-07
2.66472e-07
-7.13087e-07
1.82852e-07
-7.41862e-07
9.32553e-08
-7.61842e-07
-3.83056e-09
-7.71084e-07
-1.10717e-07
-7.66151e-07
-2.2955e-07
-7.4132e-07
-3.62537e-07
-6.87932e-07
-5.10921e-07
-5.94019e-07
-6.73406e-07
-4.45413e-07
-8.41797e-07
-2.32991e-07
-9.87707e-07
-9.78908e-07
-1.00011e-07
6.56242e-07
-2.09619e-07
7.24556e-07
-3.16471e-07
7.19482e-07
-4.15655e-07
6.84489e-07
-5.04766e-07
6.30073e-07
-5.83037e-07
5.6228e-07
-6.50835e-07
4.85631e-07
-7.09175e-07
4.03215e-07
-7.5933e-07
3.16626e-07
-8.02518e-07
2.2604e-07
-8.3957e-07
1.30307e-07
-8.70661e-07
2.72607e-08
-8.94494e-07
-8.68838e-08
-9.0786e-07
-2.16184e-07
-9.04048e-07
-3.66348e-07
-8.70911e-07
-5.44058e-07
-7.8811e-07
-7.56207e-07
-6.24322e-07
-1.00559e-06
-3.41355e-07
-1.27067e-06
-1.32026e-06
-1.17637e-07
7.73879e-07
-2.45102e-07
8.52021e-07
-3.67131e-07
8.41511e-07
-4.77987e-07
7.95346e-07
-5.75449e-07
7.27535e-07
-6.5945e-07
6.46281e-07
-7.31313e-07
5.57493e-07
-7.93059e-07
4.64961e-07
-8.47023e-07
3.7059e-07
-8.95593e-07
2.7461e-07
-9.40939e-07
1.75653e-07
-9.8455e-07
7.08725e-08
-1.02706e-06
-4.4379e-08
-1.06661e-06
-1.76626e-07
-1.09715e-06
-3.35812e-07
-1.1041e-06
-5.37105e-07
-1.057e-06
-8.03305e-07
-8.95549e-07
-1.16704e-06
-5.27416e-07
-1.63881e-06
-1.84768e-06
-1.41477e-07
9.15356e-07
-2.91035e-07
1.00158e-06
-4.29852e-07
9.80327e-07
-5.51846e-07
9.1734e-07
-6.55747e-07
8.31436e-07
-7.42778e-07
7.33311e-07
-8.15673e-07
6.30389e-07
-8.77675e-07
5.26963e-07
-9.32357e-07
4.25272e-07
-9.83524e-07
3.25777e-07
-1.03503e-06
2.27159e-07
-1.09056e-06
1.26399e-07
-1.15337e-06
1.84299e-08
-1.22513e-06
-1.04858e-07
-1.30335e-06
-2.5759e-07
-1.37501e-06
-4.65452e-07
-1.40185e-06
-7.7646e-07
-1.28467e-06
-1.28422e-06
-8.35142e-07
-2.08834e-06
-2.68282e-06
-1.74722e-07
1.09008e-06
-3.50528e-07
1.17739e-06
-5.05509e-07
1.13531e-06
-6.34949e-07
1.04678e-06
-7.40246e-07
9.36733e-07
-8.24709e-07
8.17774e-07
-8.93018e-07
6.98698e-07
-9.49648e-07
5.83593e-07
-9.99425e-07
4.75049e-07
-1.04758e-06
3.73928e-07
-1.09968e-06
2.79267e-07
-1.16181e-06
1.88527e-07
-1.2404e-06
9.70143e-08
-1.34184e-06
-3.41733e-09
-1.4697e-06
-1.29731e-07
-1.61706e-06
-3.18091e-07
-1.73992e-06
-6.53591e-07
-1.71018e-06
-1.31396e-06
-1.21745e-06
-2.58107e-06
-3.90027e-06
-2.22688e-07
1.31276e-06
-4.24944e-07
1.37964e-06
-5.88233e-07
1.2986e-06
-7.13762e-07
1.17231e-06
-8.09059e-07
1.03203e-06
-8.80443e-07
8.89158e-07
-9.34009e-07
7.52264e-07
-9.75965e-07
6.25549e-07
-1.01206e-06
5.11145e-07
-1.04812e-06
4.09986e-07
-1.09077e-06
3.2192e-07
-1.14742e-06
2.45172e-07
-1.22656e-06
1.76157e-07
-1.33711e-06
1.07135e-07
-1.48417e-06
1.7323e-08
-1.66339e-06
-1.3887e-07
-1.83331e-06
-4.8367e-07
-1.86393e-06
-1.28334e-06
-1.42954e-06
-3.01546e-06
-5.32981e-06
-2.86785e-07
1.59955e-06
-5.03446e-07
1.5963e-06
-6.4975e-07
1.4449e-06
-7.42591e-07
1.26515e-06
-8.03995e-07
1.09343e-06
-8.4745e-07
9.32613e-07
-8.76811e-07
7.81625e-07
-8.95154e-07
6.43892e-07
-9.06818e-07
5.22809e-07
-9.17718e-07
4.20886e-07
-9.35107e-07
3.39308e-07
-9.66766e-07
2.76831e-07
-1.02056e-06
2.29948e-07
-1.10434e-06
1.90918e-07
-1.22518e-06
1.38158e-07
-1.36632e-06
2.2737e-09
-1.50028e-06
-3.49704e-07
-1.46106e-06
-1.32256e-06
-1.2e-06
-3.27653e-06
-6.5298e-06
-3.93847e-07
1.9934e-06
-5.53923e-07
1.75638e-06
-6.06872e-07
1.49785e-06
-6.27585e-07
1.28587e-06
-6.32447e-07
1.09829e-06
-6.24008e-07
9.24174e-07
-6.04426e-07
7.62044e-07
-5.7575e-07
6.15215e-07
-5.41856e-07
4.88915e-07
-5.08384e-07
3.87414e-07
-4.82469e-07
3.13394e-07
-4.7023e-07
2.64592e-07
-4.75704e-07
2.35422e-07
-5.00981e-07
2.16195e-07
-5.45842e-07
1.83019e-07
-6.10268e-07
6.66998e-08
-6.83056e-07
-2.76916e-07
-6.97617e-07
-1.308e-06
-7.66366e-07
-3.20778e-06
-7.29617e-06
-3.80347e-07
2.37374e-06
-3.75071e-07
1.7511e-06
-2.74466e-07
1.39724e-06
-1.60705e-07
1.1721e-06
-4.7225e-08
9.84814e-07
6.43677e-08
8.12581e-07
1.73854e-07
6.52557e-07
2.79824e-07
5.09245e-07
3.80944e-07
3.87796e-07
4.74969e-07
2.93389e-07
5.5604e-07
2.32323e-07
6.20832e-07
1.99799e-07
6.69994e-07
1.8626e-07
7.05175e-07
1.81014e-07
7.215e-07
1.66694e-07
7.1386e-07
7.43397e-08
6.39381e-07
-2.02436e-07
2.69599e-07
-9.3822e-07
8.18923e-08
-3.02007e-06
-7.21428e-06
-1.42736e-07
2.51648e-06
2.20285e-07
1.38808e-06
6.78267e-07
9.39262e-07
1.09523e-06
7.55145e-07
1.45144e-06
6.28603e-07
1.75505e-06
5.08972e-07
2.01516e-06
3.92448e-07
2.23541e-06
2.88991e-07
2.41903e-06
2.04182e-07
2.57186e-06
1.40557e-07
2.69847e-06
1.05711e-07
2.80292e-06
9.53447e-08
2.89176e-06
9.74186e-08
2.97081e-06
1.01973e-07
3.02825e-06
1.09252e-07
3.04886e-06
5.37273e-08
2.93245e-06
-8.60263e-08
2.57038e-06
-5.76147e-07
1.52725e-06
-1.97694e-06
-5.68703e-06
2.51648e-06
3.90456e-06
4.84382e-06
5.59897e-06
6.22757e-06
6.73654e-06
7.12899e-06
7.41798e-06
7.62216e-06
7.76272e-06
7.86843e-06
7.96378e-06
8.0612e-06
8.16317e-06
8.27242e-06
8.32615e-06
8.24012e-06
7.66397e-06
5.68703e-06
)
;

boundaryField
{
    movingWall
    {
        type            calculated;
        value           uniform 0;
    }
    fixedWalls
    {
        type            calculated;
        value           uniform 0;
    }
    frontAndBack
    {
        type            empty;
    }
}


// ************************************************************************* //
