/*--------------------------------*- C++ -*----------------------------------*\
  =========                 |
  \\      /  F ield         | OpenFOAM: The Open Source CFD Toolbox
   \\    /   O peration     | Website:  https://openfoam.org
    \\  /    A nd           | Version:  13
     \\/     M anipulation  |
\*---------------------------------------------------------------------------*/
FoamFile
{
    format      ascii;
    class       surfaceScalarField;
    location    "0.5";
    object      phi;
}
// * * * * * * * * * * * * * * * * * * * * * * * * * * * * * * * * * * * * * //

dimensions      [0 3 -1 0 0 0 0];

internalField   nonuniform List<scalar> 
3120
(
9.99868e-10
-1.00163e-09
-2.61028e-09
3.61008e-09
-1.04532e-08
7.84282e-09
-2.08803e-08
1.0427e-08
-3.25813e-08
1.17009e-08
-4.47614e-08
1.218e-08
-5.6958e-08
1.21966e-08
-6.89018e-08
1.19438e-08
-8.04401e-08
1.15383e-08
-9.14901e-08
1.10499e-08
-1.02008e-07
1.05177e-08
-1.11967e-07
9.95959e-09
-1.21348e-07
9.38008e-09
-1.30123e-07
8.77515e-09
-1.38259e-07
8.13641e-09
-1.45713e-07
7.45359e-09
-1.52429e-07
6.71611e-09
-1.58343e-07
5.91378e-09
-1.6338e-07
5.03707e-09
-1.67457e-07
4.07685e-09
-1.70481e-07
3.02382e-09
-1.72351e-07
1.87087e-09
-1.72999e-07
6.47186e-10
-1.72293e-07
-7.05493e-10
-1.70137e-07
-2.15606e-09
-1.66426e-07
-3.71153e-09
-1.61063e-07
-5.36252e-09
-1.53967e-07
-7.09638e-09
-1.45075e-07
-8.8921e-09
-1.34359e-07
-1.07163e-08
-1.21838e-07
-1.25201e-08
-1.07604e-07
-1.42342e-08
-9.18414e-08
-1.5763e-08
-7.48548e-08
-1.69867e-08
-5.71226e-08
-1.77322e-08
-3.93923e-08
-1.77303e-08
-2.28582e-08
-1.65341e-08
-9.41528e-09
-1.3443e-08
-1.50664e-09
-7.90868e-09
-1.50665e-09
-3.58552e-09
2.58385e-09
-1.25051e-08
1.25296e-08
-2.46551e-08
1.99927e-08
-3.86766e-08
2.44485e-08
-5.37415e-08
2.67657e-08
-6.92875e-08
2.77259e-08
-8.49233e-08
2.78324e-08
-1.00373e-07
2.73932e-08
-1.15439e-07
2.6604e-08
-1.29978e-07
2.55897e-08
-1.43887e-07
2.44261e-08
-1.57082e-07
2.31549e-08
-1.69495e-07
2.17928e-08
-1.8106e-07
2.03404e-08
-1.91712e-07
1.87879e-08
-2.01378e-07
1.712e-08
-2.09981e-07
1.53192e-08
-2.17435e-07
1.33676e-08
-2.23646e-07
1.1248e-08
-2.28514e-07
8.94467e-09
-2.31934e-07
6.44396e-09
-2.33803e-07
3.73968e-09
-2.33982e-07
8.26567e-10
-2.32388e-07
-2.30031e-09
-2.289e-07
-5.6436e-09
-2.23427e-07
-9.18436e-09
-2.1589e-07
-1.28996e-08
-2.06234e-07
-1.67521e-08
-1.94441e-07
-2.06855e-08
-1.80537e-07
-2.46208e-08
-1.64604e-07
-2.84523e-08
-1.46797e-07
-3.20413e-08
-1.2735e-07
-3.521e-08
-1.06611e-07
-3.77261e-08
-8.50581e-08
-3.92849e-08
-6.33374e-08
-3.94511e-08
-4.23258e-08
-3.75457e-08
-2.32417e-08
-3.25271e-08
-7.94186e-09
-2.32085e-08
-9.44854e-09
-7.86216e-09
1.0446e-08
-1.99894e-08
2.46568e-08
-3.36156e-08
3.36189e-08
-4.82484e-08
3.90813e-08
-6.35989e-08
4.21162e-08
-7.93725e-08
4.34995e-08
-9.52991e-08
4.37589e-08
-1.11147e-07
4.32408e-08
-1.26721e-07
4.2178e-08
-1.41859e-07
4.07282e-08
-1.56427e-07
3.89943e-08
-1.70311e-07
3.70387e-08
-1.83412e-07
3.48931e-08
-1.95638e-07
3.25669e-08
-2.06904e-07
3.00541e-08
-2.17124e-07
2.73392e-08
-2.26206e-07
2.44018e-08
-2.34058e-07
2.12192e-08
-2.40579e-07
1.77689e-08
-2.45665e-07
1.40304e-08
-2.49207e-07
9.98647e-09
-2.51094e-07
5.62606e-09
-2.5121e-07
9.43376e-10
-2.49446e-07
-4.06438e-09
-2.45705e-07
-9.38525e-09
-2.39898e-07
-1.49909e-08
-2.31962e-07
-2.08361e-08
-2.21861e-07
-2.68528e-08
-2.09602e-07
-3.29447e-08
-1.95239e-07
-3.89843e-08
-1.78883e-07
-4.48075e-08
-1.60715e-07
-5.02099e-08
-1.40985e-07
-5.494e-08
-1.20023e-07
-5.86881e-08
-9.82412e-08
-6.10666e-08
-7.61297e-08
-6.15626e-08
-5.42309e-08
-5.94445e-08
-3.30986e-08
-5.36594e-08
-1.35939e-08
-4.27132e-08
-2.30425e-08
-1.05602e-08
2.10062e-08
-2.46088e-08
3.87054e-08
-3.92736e-08
4.82836e-08
-5.43421e-08
5.41499e-08
-6.97904e-08
5.75644e-08
-8.55176e-08
5.92266e-08
-1.01371e-07
5.96127e-08
-1.17184e-07
5.9053e-08
-1.32789e-07
5.7783e-08
-1.48031e-07
5.59709e-08
-1.62771e-07
5.37338e-08
-1.7688e-07
5.11481e-08
-1.90245e-07
4.82578e-08
-2.0276e-07
4.50816e-08
-2.14325e-07
4.16192e-08
-2.24843e-07
3.78575e-08
-2.34217e-07
3.37754e-08
-2.42345e-07
2.93476e-08
-2.49124e-07
2.45479e-08
-2.54446e-07
1.93518e-08
-2.58198e-07
1.37384e-08
-2.60265e-07
7.69375e-09
-2.60535e-07
1.21336e-09
-2.58897e-07
-5.70275e-09
-2.55254e-07
-1.30288e-08
-2.49521e-07
-2.07232e-08
-2.4164e-07
-2.8717e-08
-2.31583e-07
-3.69098e-08
-2.19362e-07
-4.51655e-08
-2.05038e-07
-5.33087e-08
-1.88724e-07
-6.11213e-08
-1.70594e-07
-6.83406e-08
-1.50877e-07
-7.46562e-08
-1.29862e-07
-7.97034e-08
-1.07878e-07
-8.30502e-08
-8.52778e-08
-8.41634e-08
-6.23837e-08
-8.23385e-08
-3.94649e-08
-7.65783e-08
-1.71357e-08
-6.50424e-08
-4.01782e-08
-1.20124e-08
3.30187e-08
-2.72684e-08
5.39613e-08
-4.27978e-08
6.3813e-08
-5.8386e-08
6.97381e-08
-7.40869e-08
7.32652e-08
-8.99005e-08
7.50402e-08
-1.0576e-07
7.54725e-08
-1.21559e-07
7.4852e-08
-1.3717e-07
7.33939e-08
-1.52459e-07
7.12599e-08
-1.67294e-07
6.85685e-08
-1.81548e-07
6.54021e-08
-1.95102e-07
6.1812e-08
-2.07845e-07
5.7824e-08
-2.19669e-07
5.34432e-08
-2.30471e-07
4.86592e-08
-2.40146e-07
4.34512e-08
-2.48591e-07
3.77922e-08
-2.55696e-07
3.16528e-08
-2.61349e-07
2.50047e-08
-2.65434e-07
1.78236e-08
-2.67833e-07
1.0093e-08
-2.68428e-07
1.80763e-09
-2.67106e-07
-7.02469e-09
-2.63763e-07
-1.63713e-08
-2.58312e-07
-2.61743e-08
-2.50687e-07
-3.63419e-08
-2.40854e-07
-4.67429e-08
-2.28816e-07
-5.72037e-08
-2.1462e-07
-6.75044e-08
-1.98363e-07
-7.73782e-08
-1.80192e-07
-8.65117e-08
-1.60302e-07
-9.45462e-08
-1.3893e-07
-1.01076e-07
-1.16338e-07
-1.05642e-07
-9.27906e-08
-1.0771e-07
-6.85245e-08
-1.06605e-07
-4.37752e-08
-1.01328e-07
-1.92808e-08
-8.95367e-08
-5.9459e-08
-1.27355e-08
4.57541e-08
-2.87651e-08
6.9991e-08
-4.5005e-08
8.00528e-08
-6.11477e-08
8.58808e-08
-7.72308e-08
8.93483e-08
-9.32876e-08
9.1097e-08
-1.093e-07
9.14849e-08
-1.25206e-07
9.07579e-08
-1.40913e-07
8.91015e-08
-1.56314e-07
8.66602e-08
-1.7129e-07
8.35447e-08
-1.85724e-07
7.9836e-08
-1.995e-07
7.55878e-08
-2.12505e-07
7.08295e-08
-2.24632e-07
6.55695e-08
-2.35772e-07
5.97994e-08
-2.45819e-07
5.34984e-08
-2.54665e-07
4.66376e-08
-2.62196e-07
3.91843e-08
-2.68297e-07
3.11057e-08
-2.72847e-07
2.23735e-08
-2.75722e-07
1.29675e-08
-2.76796e-07
2.88159e-09
-2.75947e-07
-7.87287e-09
-2.73062e-07
-1.92564e-08
-2.68039e-07
-3.11977e-08
-2.60796e-07
-4.35846e-08
-2.5128e-07
-5.6259e-08
-2.39471e-07
-6.90129e-08
-2.25389e-07
-8.15865e-08
-2.09099e-07
-9.36685e-08
-1.90711e-07
-1.049e-07
-1.7038e-07
-1.14877e-07
-1.483e-07
-1.23156e-07
-1.24692e-07
-1.2925e-07
-9.97919e-08
-1.32611e-07
-7.38452e-08
-1.32551e-07
-4.71867e-08
-1.27986e-07
-2.07862e-08
-1.15937e-07
-8.02452e-08
-1.30656e-08
5.88197e-08
-2.96087e-08
8.65341e-08
-4.64354e-08
9.68795e-08
-6.3129e-08
1.02574e-07
-7.96732e-08
1.05892e-07
-9.60954e-08
1.07519e-07
-1.12396e-07
1.07786e-07
-1.2854e-07
1.06902e-07
-1.44463e-07
1.05024e-07
-1.60078e-07
1.02275e-07
-1.75286e-07
9.87526e-08
-1.89981e-07
9.45306e-08
-2.04054e-07
8.96608e-08
-2.17397e-07
8.4173e-08
-2.29904e-07
7.80764e-08
-2.41468e-07
7.1363e-08
-2.5198e-07
6.40109e-08
-2.61331e-07
5.59883e-08
-2.69405e-07
4.72581e-08
-2.76081e-07
3.77819e-08
-2.81233e-07
2.75255e-08
-2.84729e-07
1.64636e-08
-2.86434e-07
4.58628e-09
-2.86212e-07
-8.09491e-09
-2.83931e-07
-2.15372e-08
-2.79469e-07
-3.56599e-08
-2.72719e-07
-5.03352e-08
-2.63595e-07
-6.53826e-08
-2.52043e-07
-8.0565e-08
-2.38043e-07
-9.55864e-08
-2.21617e-07
-1.10094e-07
-2.02833e-07
-1.23684e-07
-1.81805e-07
-1.35905e-07
-1.58696e-07
-1.46266e-07
-1.3371e-07
-1.54236e-07
-1.07098e-07
-1.59222e-07
-7.91762e-08
-1.60473e-07
-5.04369e-08
-1.56725e-07
-2.21102e-08
-1.44264e-07
-1.02355e-07
-1.31971e-08
7.20167e-08
-3.01051e-08
1.03442e-07
-4.74349e-08
1.14209e-07
-6.46664e-08
1.19806e-07
-8.17198e-08
1.22946e-07
-9.85969e-08
1.24396e-07
-1.15298e-07
1.24487e-07
-1.318e-07
1.23404e-07
-1.48056e-07
1.2128e-07
-1.63998e-07
1.18217e-07
-1.79541e-07
1.14296e-07
-1.94594e-07
1.09583e-07
-2.09058e-07
1.04125e-07
-2.22832e-07
9.7947e-08
-2.35814e-07
9.10585e-08
-2.47901e-07
8.34495e-08
-2.58985e-07
7.50952e-08
-2.68956e-07
6.59596e-08
-2.77698e-07
5.59995e-08
-2.85085e-07
4.5169e-08
-2.90985e-07
3.34255e-08
-2.95257e-07
2.07354e-08
-2.97752e-07
7.08144e-09
-2.98317e-07
-7.52956e-09
-2.96798e-07
-2.30566e-08
-2.93042e-07
-3.94156e-08
-2.86908e-07
-5.64696e-08
-2.78268e-07
-7.40221e-08
-2.67021e-07
-9.18123e-08
-2.53095e-07
-1.09513e-07
-2.36458e-07
-1.26731e-07
-2.17129e-07
-1.43013e-07
-1.9518e-07
-1.57853e-07
-1.70749e-07
-1.70697e-07
-1.44046e-07
-1.80939e-07
-1.15366e-07
-1.87902e-07
-8.51301e-08
-1.90709e-07
-5.40157e-08
-1.8784e-07
-2.35309e-08
-1.74749e-07
-1.25886e-07
-1.32442e-08
8.52609e-08
-3.04441e-08
1.20642e-07
-4.82305e-08
1.31996e-07
-6.59921e-08
1.37568e-07
-8.35877e-08
1.40541e-07
-1.00987e-07
1.41795e-07
-1.18177e-07
1.41677e-07
-1.3514e-07
1.40367e-07
-1.51836e-07
1.37977e-07
-1.68211e-07
1.34592e-07
-1.84195e-07
1.3028e-07
-1.99707e-07
1.25096e-07
-2.14661e-07
1.19079e-07
-2.28965e-07
1.12251e-07
-2.42524e-07
1.04617e-07
-2.55239e-07
9.61649e-08
-2.67009e-07
8.68644e-08
-2.77723e-07
7.66736e-08
-2.87264e-07
6.5541e-08
-2.95506e-07
5.34109e-08
-3.0231e-07
4.0229e-08
-3.07523e-07
2.59493e-08
-3.10984e-07
1.05423e-08
-3.12518e-07
-5.99603e-09
-3.11941e-07
-2.36335e-08
-3.09066e-07
-4.22903e-08
-3.03707e-07
-6.18291e-08
-2.95683e-07
-8.20456e-08
-2.84833e-07
-1.02663e-07
-2.71019e-07
-1.23326e-07
-2.54146e-07
-1.43604e-07
-2.34168e-07
-1.62991e-07
-2.11113e-07
-1.80909e-07
-1.85094e-07
-1.96715e-07
-1.56335e-07
-2.09699e-07
-1.25195e-07
-2.19042e-07
-9.22234e-08
-2.23681e-07
-5.83031e-08
-2.2176e-07
-2.52438e-08
-2.07808e-07
-1.5113e-07
-1.32731e-08
9.85339e-08
-3.07476e-08
1.38117e-07
-4.89748e-08
1.50223e-07
-6.72684e-08
1.55861e-07
-8.54337e-08
1.58707e-07
-1.03407e-07
1.59768e-07
-1.2116e-07
1.59431e-07
-1.38669e-07
1.57876e-07
-1.55899e-07
1.55207e-07
-1.72804e-07
1.51497e-07
-1.89326e-07
1.46801e-07
-2.05395e-07
1.41165e-07
-2.20936e-07
1.3462e-07
-2.35869e-07
1.27183e-07
-2.50107e-07
1.18855e-07
-2.63559e-07
1.09617e-07
-2.76128e-07
9.94341e-08
-2.87711e-07
8.8256e-08
-2.9819e-07
7.60206e-08
-3.07439e-07
6.26594e-08
-3.15312e-07
4.81026e-08
-3.2165e-07
3.22871e-08
-3.26273e-07
1.5165e-08
-3.28983e-07
-3.28602e-09
-3.29565e-07
-2.30518e-08
-3.27789e-07
-4.40664e-08
-3.23414e-07
-6.62033e-08
-3.16198e-07
-8.92616e-08
-3.05904e-07
-1.12958e-07
-2.92312e-07
-1.36918e-07
-2.75243e-07
-1.60674e-07
-2.54575e-07
-1.83659e-07
-2.30272e-07
-2.05212e-07
-2.02417e-07
-2.2457e-07
-1.71246e-07
-2.4087e-07
-1.37192e-07
-2.53096e-07
-1.00951e-07
-2.59921e-07
-6.36365e-08
-2.59075e-07
-2.74079e-08
-2.44037e-07
-1.78538e-07
-1.33262e-08
1.1186e-07
-3.10926e-08
1.55883e-07
-4.97685e-08
1.68899e-07
-6.86074e-08
1.747e-07
-8.73698e-08
1.77469e-07
-1.05961e-07
1.7836e-07
-1.24337e-07
1.77806e-07
-1.42463e-07
1.76002e-07
-1.60307e-07
1.73051e-07
-1.77827e-07
1.69017e-07
-1.94974e-07
1.63948e-07
-2.1169e-07
1.57881e-07
-2.2791e-07
1.5084e-07
-2.43565e-07
1.42838e-07
-2.58579e-07
1.33869e-07
-2.72873e-07
1.2391e-07
-2.86357e-07
1.12918e-07
-2.98933e-07
1.00833e-07
-3.10492e-07
8.75791e-08
-3.20905e-07
7.30725e-08
-3.30026e-07
5.72239e-08
-3.37687e-07
3.99477e-08
-3.43692e-07
2.117e-08
-3.4782e-07
8.4245e-10
-3.49821e-07
-2.10514e-08
-3.49417e-07
-4.44706e-08
-3.46306e-07
-6.93139e-08
-3.40169e-07
-9.53988e-08
-3.30677e-07
-1.2245e-07
-3.17511e-07
-1.50084e-07
-3.0038e-07
-1.77804e-07
-2.7906e-07
-2.04979e-07
-2.53426e-07
-2.30846e-07
-2.23507e-07
-2.54489e-07
-1.8954e-07
-2.74837e-07
-1.52032e-07
-2.90604e-07
-1.11845e-07
-3.00108e-07
-7.03689e-08
-3.00551e-07
-3.01838e-08
-2.84222e-07
-2.08722e-07
-1.34287e-08
1.25289e-07
-3.15261e-08
1.7398e-07
-5.06766e-08
1.88049e-07
-7.00845e-08
1.94108e-07
-8.94738e-08
1.96858e-07
-1.08724e-07
1.97609e-07
-1.27771e-07
1.96853e-07
-1.46575e-07
1.94806e-07
-1.651e-07
1.91576e-07
-1.83307e-07
1.87224e-07
-2.01155e-07
1.81796e-07
-2.18595e-07
1.75321e-07
-2.35574e-07
1.6782e-07
-2.52036e-07
1.593e-07
-2.67917e-07
1.49751e-07
-2.8315e-07
1.39143e-07
-2.97657e-07
1.27426e-07
-3.11351e-07
1.14527e-07
-3.24129e-07
1.00357e-07
-3.35869e-07
8.48123e-08
-3.46425e-07
6.77803e-08
-3.55624e-07
4.91467e-08
-3.63259e-07
2.88045e-08
-3.69084e-07
6.66773e-09
-3.72815e-07
-1.73201e-08
-3.74124e-07
-4.31619e-08
-3.72639e-07
-7.07983e-08
-3.67953e-07
-1.00085e-07
-3.59627e-07
-1.30776e-07
-3.47213e-07
-1.62498e-07
-3.3028e-07
-1.94736e-07
-3.08457e-07
-2.26802e-07
-2.8149e-07
-2.57813e-07
-2.49313e-07
-2.86666e-07
-2.12134e-07
-3.12017e-07
-1.70527e-07
-3.32211e-07
-1.25547e-07
-3.45088e-07
-7.89174e-08
-3.47181e-07
-3.37431e-08
-3.29396e-07
-2.42465e-07
-1.35929e-08
1.38882e-07
-3.20743e-08
1.92462e-07
-5.17386e-08
2.07714e-07
-7.17481e-08
2.14117e-07
-9.17972e-08
2.16907e-07
-1.11743e-07
2.17555e-07
-1.31506e-07
2.16617e-07
-1.51038e-07
2.14338e-07
-1.70298e-07
2.10836e-07
-1.89252e-07
2.06178e-07
-2.07862e-07
2.00406e-07
-2.26091e-07
1.93549e-07
-2.43897e-07
1.85626e-07
-2.61237e-07
1.7664e-07
-2.78064e-07
1.66577e-07
-2.94323e-07
1.55402e-07
-3.09952e-07
1.43055e-07
-3.24879e-07
1.29453e-07
-3.39012e-07
1.1449e-07
-3.52241e-07
9.80408e-08
-3.64425e-07
7.99649e-08
-3.75393e-07
6.01143e-08
-3.84929e-07
3.83411e-08
-3.92772e-07
1.45099e-08
-3.98603e-07
-1.1489e-08
-4.02042e-07
-3.9722e-08
-4.02647e-07
-7.01935e-08
-3.99908e-07
-1.02825e-07
-3.93257e-07
-1.37427e-07
-3.82085e-07
-1.7367e-07
-3.65778e-07
-2.11044e-07
-3.43761e-07
-2.48819e-07
-3.15583e-07
-2.8599e-07
-2.81019e-07
-3.21231e-07
-2.40191e-07
-3.52844e-07
-1.93717e-07
-3.78685e-07
-1.4287e-07
-3.95934e-07
-8.97938e-08
-4.00257e-07
-3.82869e-08
-3.80903e-07
-2.80752e-07
-1.3823e-08
1.52705e-07
-3.27498e-08
2.11388e-07
-5.29762e-08
2.2794e-07
-7.3627e-08
2.34768e-07
-9.43722e-08
2.37653e-07
-1.1505e-07
2.38232e-07
-1.35568e-07
2.37135e-07
-1.55868e-07
2.34638e-07
-1.75908e-07
2.30876e-07
-1.95653e-07
2.25923e-07
-2.15074e-07
2.19826e-07
-2.34141e-07
2.12616e-07
-2.52827e-07
2.04312e-07
-2.71102e-07
1.94915e-07
-2.88936e-07
1.84411e-07
-3.06292e-07
1.72759e-07
-3.23129e-07
1.59892e-07
-3.39391e-07
1.45715e-07
-3.55006e-07
1.30105e-07
-3.69879e-07
1.12914e-07
-3.83886e-07
9.39718e-08
-3.96863e-07
7.30907e-08
-4.08596e-07
5.00743e-08
-4.18813e-07
2.47275e-08
-4.27174e-07
-3.12837e-09
-4.3325e-07
-3.36463e-08
-4.36523e-07
-6.69199e-08
-4.36377e-07
-1.02971e-07
-4.32094e-07
-1.4171e-07
-4.2287e-07
-1.82894e-07
-4.07846e-07
-2.26068e-07
-3.86171e-07
-2.70494e-07
-3.571e-07
-3.15061e-07
-3.2014e-07
-3.58192e-07
-2.75234e-07
-3.9775e-07
-2.22986e-07
-4.30933e-07
-1.64903e-07
-4.54017e-07
-1.0368e-07
-4.6148e-07
-4.40752e-08
-4.40508e-07
-3.24827e-07
-1.41188e-08
1.66823e-07
-3.35568e-08
2.30827e-07
-5.43998e-08
2.48783e-07
-7.57372e-08
2.56106e-07
-9.72179e-08
2.59133e-07
-1.18664e-07
2.59678e-07
-1.39971e-07
2.58442e-07
-1.61073e-07
2.5574e-07
-1.81925e-07
2.51728e-07
-2.02495e-07
2.46493e-07
-2.22759e-07
2.4009e-07
-2.42698e-07
2.32555e-07
-2.62297e-07
2.23911e-07
-2.81545e-07
2.14163e-07
-3.00429e-07
2.03295e-07
-3.18935e-07
1.91265e-07
-3.37044e-07
1.78001e-07
-3.54725e-07
1.63395e-07
-3.71931e-07
1.47311e-07
-3.88593e-07
1.29576e-07
-4.04609e-07
1.09988e-07
-4.19836e-07
8.8318e-08
-4.34076e-07
6.43146e-08
-4.47061e-07
3.77119e-08
-4.5844e-07
8.25097e-09
-4.67746e-07
-2.43405e-08
-4.74398e-07
-6.02674e-08
-4.77669e-07
-9.97004e-08
-4.76674e-07
-1.42705e-07
-4.70377e-07
-1.89191e-07
-4.57611e-07
-2.38834e-07
-4.37144e-07
-2.90961e-07
-4.07801e-07
-3.44404e-07
-3.68656e-07
-3.97337e-07
-3.19308e-07
-4.47098e-07
-2.60228e-07
-4.90012e-07
-1.93157e-07
-5.21088e-07
-1.21515e-07
-5.33123e-07
-5.14447e-08
-5.10578e-07
-3.76272e-07
-1.44782e-08
1.81302e-07
-3.44951e-08
2.50843e-07
-5.60139e-08
2.70302e-07
-7.80878e-08
2.7818e-07
-1.00346e-07
2.81391e-07
-1.22596e-07
2.81928e-07
-1.44722e-07
2.80569e-07
-1.66653e-07
2.77671e-07
-1.88341e-07
2.73416e-07
-2.09756e-07
2.67908e-07
-2.3088e-07
2.61214e-07
-2.51705e-07
2.53381e-07
-2.72233e-07
2.44438e-07
-2.92469e-07
2.34399e-07
-3.12423e-07
2.2325e-07
-3.32107e-07
2.10949e-07
-3.51527e-07
1.97421e-07
-3.70685e-07
1.82553e-07
-3.89567e-07
1.66192e-07
-4.08137e-07
1.48146e-07
-4.26331e-07
1.28182e-07
-4.44041e-07
1.06028e-07
-4.61102e-07
8.13749e-08
-4.7727e-07
5.38802e-08
-4.92197e-07
2.31783e-08
-5.0542e-07
-1.11179e-08
-5.16299e-07
-4.93883e-08
-5.24008e-07
-9.1991e-08
-5.27494e-07
-1.39219e-07
-5.25455e-07
-1.9123e-07
-5.16345e-07
-2.47945e-07
-4.98425e-07
-3.0888e-07
-4.69899e-07
-3.7293e-07
-4.2916e-07
-4.38076e-07
-3.75188e-07
-5.0107e-07
-3.08093e-07
-5.57107e-07
-2.29772e-07
-5.99409e-07
-1.44611e-07
-6.18285e-07
-6.08248e-08
-5.94363e-07
-4.37097e-07
-1.48991e-08
1.96201e-07
-3.55644e-08
2.71509e-07
-5.78218e-08
2.92559e-07
-8.06862e-08
3.01044e-07
-1.03767e-07
3.04472e-07
-1.26856e-07
3.05017e-07
-1.4983e-07
3.03543e-07
-1.7261e-07
3.00451e-07
-1.95147e-07
2.95952e-07
-2.17412e-07
2.90174e-07
-2.39397e-07
2.83199e-07
-2.61105e-07
2.75089e-07
-2.82553e-07
2.65887e-07
-3.03769e-07
2.55615e-07
-3.24787e-07
2.44268e-07
-3.45646e-07
2.31808e-07
-3.66386e-07
2.18162e-07
-3.87046e-07
2.03213e-07
-4.07652e-07
1.86798e-07
-4.28216e-07
1.68711e-07
-4.48724e-07
1.4869e-07
-4.69122e-07
1.26426e-07
-4.89298e-07
1.01551e-07
-5.09063e-07
7.36452e-08
-5.28113e-07
4.22289e-08
-5.46005e-07
6.77416e-09
-5.6209e-07
-3.33038e-08
-5.75472e-07
-7.86087e-08
-5.84943e-07
-1.29748e-07
-5.88921e-07
-1.87252e-07
-5.85416e-07
-2.51449e-07
-5.72041e-07
-3.22255e-07
-5.46128e-07
-3.98843e-07
-5.05025e-07
-4.79179e-07
-4.46644e-07
-5.59451e-07
-3.70293e-07
-6.33458e-07
-2.77791e-07
-6.91911e-07
-1.74801e-07
-7.21275e-07
-7.27267e-08
-6.96438e-07
-5.09823e-07
-1.5381e-08
2.11582e-07
-3.67664e-08
2.92894e-07
-5.98297e-08
3.15622e-07
-8.35431e-08
3.24757e-07
-1.07494e-07
3.28423e-07
-1.3146e-07
3.28984e-07
-1.55307e-07
3.2739e-07
-1.78949e-07
3.24093e-07
-2.02337e-07
3.1934e-07
-2.25446e-07
3.13283e-07
-2.48275e-07
3.06027e-07
-2.70841e-07
2.97655e-07
-2.93179e-07
2.88225e-07
-3.15339e-07
2.77775e-07
-3.37383e-07
2.66311e-07
-3.59381e-07
2.53806e-07
-3.81411e-07
2.40192e-07
-4.03554e-07
2.25355e-07
-4.25887e-07
2.09132e-07
-4.48481e-07
1.91305e-07
-4.71388e-07
1.71596e-07
-4.94627e-07
1.49665e-07
-5.18172e-07
1.25096e-07
-5.4192e-07
9.73931e-08
-5.65658e-07
6.59668e-08
-5.89011e-07
3.01278e-08
-6.11387e-07
-1.09285e-08
-6.31875e-07
-5.81202e-08
-6.49163e-07
-1.1246e-07
-6.61413e-07
-1.75003e-07
-6.66152e-07
-2.4671e-07
-6.60207e-07
-3.282e-07
-6.39738e-07
-4.19312e-07
-6.00531e-07
-5.18386e-07
-5.38711e-07
-6.21271e-07
-4.51976e-07
-7.20193e-07
-3.41497e-07
-8.0239e-07
-2.1458e-07
-8.48191e-07
-8.76687e-08
-8.2335e-07
-5.97492e-07
-1.59264e-08
2.27508e-07
-3.81084e-08
3.15076e-07
-6.20506e-08
3.39565e-07
-8.6677e-08
3.49384e-07
-1.1155e-07
3.53295e-07
-1.3643e-07
3.53864e-07
-1.61172e-07
3.52131e-07
-1.85684e-07
3.48605e-07
-2.09916e-07
3.43572e-07
-2.33847e-07
3.37214e-07
-2.57485e-07
3.29666e-07
-2.80863e-07
3.21033e-07
-3.04035e-07
3.11397e-07
-3.27073e-07
3.00814e-07
-3.5007e-07
2.89308e-07
-3.73132e-07
2.76867e-07
-3.96376e-07
2.63437e-07
-4.19933e-07
2.48912e-07
-4.43938e-07
2.33138e-07
-4.68532e-07
2.15898e-07
-4.93847e-07
1.96912e-07
-5.20004e-07
1.75822e-07
-5.4709e-07
1.52181e-07
-5.75131e-07
1.25435e-07
-6.04061e-07
9.48964e-08
-6.3365e-07
5.97169e-08
-6.63442e-07
1.88637e-08
-6.92614e-07
-2.89485e-08
-7.19851e-07
-8.52228e-08
-7.43144e-07
-1.51711e-07
-7.59565e-07
-2.30288e-07
-7.65062e-07
-3.22704e-07
-7.54307e-07
-4.30067e-07
-7.20837e-07
-5.51856e-07
-6.57881e-07
-6.84226e-07
-5.60092e-07
-8.17982e-07
-4.26762e-07
-9.35721e-07
-2.67148e-07
-1.00781e-06
-1.05946e-07
-9.84551e-07
-7.03438e-07
-1.65417e-08
2.4405e-07
-3.96049e-08
3.38139e-07
-6.45077e-08
3.64467e-07
-9.01187e-08
3.74995e-07
-1.1597e-07
3.79147e-07
-1.41804e-07
3.79698e-07
-1.67461e-07
3.77788e-07
-1.92844e-07
3.73988e-07
-2.179e-07
3.68628e-07
-2.42616e-07
3.6193e-07
-2.6701e-07
3.54059e-07
-2.91129e-07
3.45152e-07
-3.15049e-07
3.35317e-07
-3.38869e-07
3.24634e-07
-3.62711e-07
3.13149e-07
-3.86716e-07
3.00873e-07
-4.11048e-07
2.87768e-07
-4.35888e-07
2.73753e-07
-4.61438e-07
2.58688e-07
-4.87916e-07
2.42376e-07
-5.15553e-07
2.2455e-07
-5.44591e-07
2.04859e-07
-5.75262e-07
1.82852e-07
-6.07772e-07
1.57946e-07
-6.42263e-07
1.29387e-07
-6.78744e-07
9.61986e-08
-7.16997e-07
5.71164e-08
-7.56455e-07
1.05097e-08
-7.95957e-07
-4.5721e-08
-8.33504e-07
-1.14164e-07
-8.65866e-07
-1.97926e-07
-8.88134e-07
-3.00435e-07
-8.93251e-07
-4.2495e-07
-8.71696e-07
-5.73411e-07
-8.12152e-07
-7.43771e-07
-7.03739e-07
-9.26395e-07
-5.41366e-07
-1.09809e-06
-3.36212e-07
-1.21296e-06
-1.27225e-07
-1.19354e-06
-8.30663e-07
-1.72383e-08
2.61288e-07
-4.12805e-08
3.62182e-07
-6.72379e-08
3.90425e-07
-9.39152e-08
4.01672e-07
-1.20809e-07
4.06041e-07
-1.47637e-07
4.06526e-07
-1.74226e-07
4.04377e-07
-2.00471e-07
4.00233e-07
-2.26321e-07
3.94478e-07
-2.51767e-07
3.87376e-07
-2.76841e-07
3.79133e-07
-3.01606e-07
3.69918e-07
-3.26161e-07
3.59872e-07
-3.50631e-07
3.49103e-07
-3.75167e-07
3.37686e-07
-3.9995e-07
3.25656e-07
-4.25186e-07
3.13005e-07
-4.51112e-07
2.99678e-07
-4.77995e-07
2.85571e-07
-5.0614e-07
2.70521e-07
-5.35888e-07
2.54297e-07
-5.67616e-07
2.36588e-07
-6.01738e-07
2.16974e-07
-6.3868e-07
1.94888e-07
-6.7886e-07
1.69566e-07
-7.22624e-07
1.39963e-07
-7.70151e-07
1.04643e-07
-8.21281e-07
6.16399e-08
-8.75298e-07
8.29638e-09
-9.30508e-07
-5.89543e-08
-9.83717e-07
-1.44717e-07
-1.02945e-06
-2.54705e-07
-1.0589e-06
-3.95493e-07
-1.05878e-06
-5.7354e-07
-1.01093e-06
-7.91619e-07
-8.94759e-07
-1.04256e-06
-6.95644e-07
-1.29721e-06
-4.26166e-07
-1.48244e-06
-1.51612e-07
-1.46809e-06
-9.82275e-07
-1.80344e-08
2.79322e-07
-4.31724e-08
3.8732e-07
-7.02958e-08
4.17548e-07
-9.81341e-08
4.2951e-07
-1.26141e-07
4.34048e-07
-1.54006e-07
4.34391e-07
-1.8154e-07
4.31911e-07
-2.0863e-07
4.27323e-07
-2.35225e-07
4.21074e-07
-2.61328e-07
4.13478e-07
-2.86981e-07
4.04786e-07
-3.1227e-07
3.95207e-07
-3.37314e-07
3.84916e-07
-3.62265e-07
3.74054e-07
-3.87305e-07
3.62726e-07
-4.1265e-07
3.51e-07
-4.38547e-07
3.38902e-07
-4.65285e-07
3.26416e-07
-4.93199e-07
3.13484e-07
-5.22677e-07
2.99999e-07
-5.54174e-07
2.85794e-07
-5.88217e-07
2.70632e-07
-6.25415e-07
2.54171e-07
-6.66454e-07
2.35927e-07
-7.12088e-07
2.152e-07
-7.63092e-07
1.90967e-07
-8.20183e-07
1.61734e-07
-8.83859e-07
1.25316e-07
-9.54122e-07
7.85597e-08
-1.0301e-06
1.70227e-08
-1.10922e-06
-6.56006e-08
-1.18615e-06
-1.77774e-07
-1.25095e-06
-3.30691e-07
-1.28627e-06
-5.38215e-07
-1.26447e-06
-8.13423e-07
-1.14843e-06
-1.15861e-06
-9.04495e-07
-1.54114e-06
-5.49424e-07
-1.83751e-06
-1.9054e-07
-1.82698e-06
-1.17282e-06
-1.89565e-08
2.98279e-07
-4.53342e-08
4.13697e-07
-7.37577e-08
4.45972e-07
-1.02868e-07
4.58621e-07
-1.32068e-07
4.63247e-07
-1.61013e-07
4.63337e-07
-1.89495e-07
4.60393e-07
-2.17397e-07
4.55225e-07
-2.44672e-07
4.48348e-07
-2.71331e-07
4.40137e-07
-2.97438e-07
4.30893e-07
-3.23097e-07
4.20867e-07
-3.48452e-07
4.1027e-07
-3.73679e-07
3.99281e-07
-3.98989e-07
3.88037e-07
-4.24629e-07
3.7664e-07
-4.50883e-07
3.65156e-07
-4.78085e-07
3.53618e-07
-5.06628e-07
3.42027e-07
-5.36979e-07
3.3035e-07
-5.69699e-07
3.18514e-07
-6.05461e-07
3.06393e-07
-6.45072e-07
2.93782e-07
-6.89492e-07
2.80348e-07
-7.39844e-07
2.65552e-07
-7.974e-07
2.48523e-07
-8.63535e-07
2.27869e-07
-9.39614e-07
2.01395e-07
-1.02675e-06
1.65696e-07
-1.12539e-06
1.15665e-07
-1.23459e-06
4.36006e-08
-1.35044e-06
-6.19232e-08
-1.46339e-06
-2.1775e-07
-1.55287e-06
-4.48734e-07
-1.57911e-06
-7.87176e-07
-1.47843e-06
-1.25929e-06
-1.191e-06
-1.82857e-06
-7.52449e-07
-2.27606e-06
-2.92744e-07
-2.28668e-06
-1.46556e-06
-2.00422e-08
3.18321e-07
-4.78402e-08
4.41495e-07
-7.77271e-08
4.75859e-07
-1.0824e-07
4.89134e-07
-1.38719e-07
4.93726e-07
-1.68783e-07
4.93401e-07
-1.98205e-07
4.89815e-07
-2.26864e-07
4.83884e-07
-2.54723e-07
4.76207e-07
-2.81811e-07
4.67225e-07
-3.0821e-07
4.57293e-07
-3.34051e-07
4.46708e-07
-3.59501e-07
4.3572e-07
-3.84762e-07
4.24541e-07
-4.10067e-07
4.13342e-07
-4.35688e-07
4.0226e-07
-4.61937e-07
3.91405e-07
-4.89181e-07
3.80862e-07
-5.17858e-07
3.70704e-07
-5.48495e-07
3.60987e-07
-5.8174e-07
3.51759e-07
-6.1839e-07
3.43043e-07
-6.5943e-07
3.34822e-07
-7.06071e-07
3.2699e-07
-7.59794e-07
3.19274e-07
-8.22371e-07
3.111e-07
-8.95883e-07
3.01381e-07
-9.82685e-07
2.88197e-07
-1.08529e-06
2.68305e-07
-1.20609e-06
2.36463e-07
-1.34664e-06
1.84149e-07
-1.50628e-06
9.77191e-08
-1.67814e-06
-4.58972e-08
-1.84034e-06
-2.86527e-07
-1.93999e-06
-6.87532e-07
-1.8735e-06
-1.32578e-06
-1.57079e-06
-2.13128e-06
-1.09603e-06
-2.75081e-06
-5.21674e-07
-2.86104e-06
-1.98723e-06
-2.13432e-08
3.39664e-07
-5.07903e-08
4.70942e-07
-8.234e-08
5.07408e-07
-1.14405e-07
5.21199e-07
-1.46253e-07
5.25574e-07
-1.77463e-07
5.2461e-07
-2.0779e-07
5.20143e-07
-2.3712e-07
5.13214e-07
-2.6543e-07
5.04517e-07
-2.92774e-07
4.94569e-07
-3.19265e-07
4.83784e-07
-3.4506e-07
4.72502e-07
-3.70351e-07
4.61012e-07
-3.95363e-07
4.49553e-07
-4.20347e-07
4.38327e-07
-4.45591e-07
4.27504e-07
-4.71421e-07
4.17235e-07
-4.98221e-07
4.07663e-07
-5.26452e-07
3.98935e-07
-5.56675e-07
3.91211e-07
-5.89591e-07
3.84674e-07
-6.26076e-07
3.79528e-07
-6.6724e-07
3.75986e-07
-7.14482e-07
3.74232e-07
-7.69561e-07
3.74352e-07
-8.34663e-07
3.76202e-07
-9.12482e-07
3.79201e-07
-1.0063e-06
3.82011e-07
-1.12004e-06
3.82045e-07
-1.25819e-06
3.74614e-07
-1.42539e-06
3.51352e-07
-1.62494e-06
2.97271e-07
-1.85428e-06
1.83446e-07
-2.08855e-06
-5.22558e-08
-2.2428e-06
-5.33287e-07
-2.20418e-06
-1.3644e-06
-1.94449e-06
-2.39096e-06
-1.48005e-06
-3.21525e-06
-8.21274e-07
-3.51982e-06
-2.80851e-06
-2.29305e-08
3.62595e-07
-5.43173e-08
5.02329e-07
-8.77698e-08
5.40861e-07
-1.21554e-07
5.54983e-07
-1.54853e-07
5.58874e-07
-1.87206e-07
5.56963e-07
-2.18364e-07
5.513e-07
-2.48225e-07
5.43074e-07
-2.76798e-07
5.3309e-07
-3.04174e-07
5.21945e-07
-3.30502e-07
5.10112e-07
-3.55972e-07
4.97973e-07
-3.80806e-07
4.85846e-07
-4.05246e-07
4.73992e-07
-4.29555e-07
4.62636e-07
-4.54024e-07
4.51973e-07
-4.7898e-07
4.42191e-07
-5.04803e-07
4.33485e-07
-5.31946e-07
4.26078e-07
-5.6097e-07
4.20235e-07
-5.92578e-07
4.16282e-07
-6.27667e-07
4.14617e-07
-6.67386e-07
4.15705e-07
-7.1321e-07
4.20056e-07
-7.67023e-07
4.28166e-07
-8.31223e-07
4.40402e-07
-9.08839e-07
4.56817e-07
-1.0037e-06
4.76871e-07
-1.12064e-06
4.98981e-07
-1.26549e-06
5.19472e-07
-1.44487e-06
5.30732e-07
-1.66425e-06
5.16652e-07
-1.92013e-06
4.39321e-07
-2.16899e-06
1.96606e-07
-2.30444e-06
-3.97841e-07
-2.25498e-06
-1.41386e-06
-2.05465e-06
-2.59129e-06
-1.64586e-06
-3.62404e-06
-9.93624e-07
-4.17205e-06
-3.80213e-06
-2.48996e-08
3.87495e-07
-5.85936e-08
5.36023e-07
-9.42322e-08
5.765e-07
-1.29907e-07
5.90658e-07
-1.64713e-07
5.93679e-07
-1.98156e-07
5.90406e-07
-2.29997e-07
5.83141e-07
-2.60171e-07
5.73249e-07
-2.88739e-07
5.61658e-07
-3.15845e-07
5.49051e-07
-3.41687e-07
5.35954e-07
-3.66497e-07
5.22783e-07
-3.90524e-07
5.09872e-07
-4.14025e-07
4.97493e-07
-4.37267e-07
4.85878e-07
-4.60534e-07
4.7524e-07
-4.84132e-07
4.65789e-07
-5.08413e-07
4.57766e-07
-5.33794e-07
4.51459e-07
-5.6079e-07
4.47231e-07
-5.90052e-07
4.45545e-07
-6.22418e-07
4.46984e-07
-6.58972e-07
4.52258e-07
-7.01113e-07
4.62197e-07
-7.50646e-07
4.77699e-07
-8.09876e-07
4.99631e-07
-8.81726e-07
5.28667e-07
-9.69908e-07
5.65053e-07
-1.07909e-06
6.08161e-07
-1.21495e-06
6.55333e-07
-1.38382e-06
6.99602e-07
-1.58988e-06
7.22715e-07
-1.82313e-06
6.72566e-07
-2.02602e-06
3.99503e-07
-2.09438e-06
-3.29485e-07
-2.01616e-06
-1.49209e-06
-1.84924e-06
-2.7582e-06
-1.53441e-06
-3.93888e-06
-9.47109e-07
-4.75936e-06
-4.74924e-06
-2.73791e-08
4.14874e-07
-6.38399e-08
5.72484e-07
-1.01986e-07
6.14645e-07
-1.39707e-07
6.2838e-07
-1.7601e-07
6.29982e-07
-2.10394e-07
6.2479e-07
-2.42661e-07
6.15408e-07
-2.72816e-07
6.03404e-07
-3.00998e-07
5.89841e-07
-3.2743e-07
5.75482e-07
-3.52374e-07
5.60898e-07
-3.76111e-07
5.4652e-07
-3.98918e-07
5.32679e-07
-4.21065e-07
5.1964e-07
-4.42813e-07
5.07627e-07
-4.64423e-07
4.96849e-07
-4.86163e-07
4.8753e-07
-5.08333e-07
4.79936e-07
-5.31279e-07
4.74405e-07
-5.55429e-07
4.71381e-07
-5.81323e-07
4.71439e-07
-6.09659e-07
4.7532e-07
-6.41341e-07
4.83941e-07
-6.7754e-07
4.98396e-07
-7.19748e-07
5.19907e-07
-7.69842e-07
5.49725e-07
-8.30138e-07
5.88964e-07
-9.03449e-07
6.38364e-07
-9.93045e-07
6.97757e-07
-1.10261e-06
7.649e-07
-1.23535e-06
8.32336e-07
-1.38938e-06
8.76749e-07
-1.5475e-06
8.30683e-07
-1.65582e-06
5.07825e-07
-1.65784e-06
-3.27468e-07
-1.59138e-06
-1.55854e-06
-1.48679e-06
-2.8628e-06
-1.26739e-06
-4.15827e-06
-7.83886e-07
-5.24286e-06
-5.53313e-06
-3.0541e-08
4.45415e-07
-7.0334e-08
6.12277e-07
-1.11327e-07
6.55639e-07
-1.51189e-07
6.68242e-07
-1.88862e-07
6.67655e-07
-2.23882e-07
6.5981e-07
-2.56145e-07
6.47671e-07
-2.85778e-07
6.33037e-07
-3.13039e-07
6.17102e-07
-3.38256e-07
6.007e-07
-3.61775e-07
5.84417e-07
-3.83932e-07
5.68676e-07
-4.05033e-07
5.5378e-07
-4.25354e-07
5.39962e-07
-4.4514e-07
5.27413e-07
-4.64614e-07
5.16323e-07
-4.8399e-07
5.06906e-07
-5.0349e-07
4.99436e-07
-5.23364e-07
4.94278e-07
-5.4391e-07
4.91927e-07
-5.6551e-07
4.93039e-07
-5.88649e-07
4.98458e-07
-6.13957e-07
5.09248e-07
-6.42237e-07
5.26676e-07
-6.74484e-07
5.52155e-07
-7.11879e-07
5.87119e-07
-7.55742e-07
6.32827e-07
-8.07405e-07
6.90027e-07
-8.67906e-07
7.58258e-07
-9.37667e-07
8.34661e-07
-1.01572e-06
9.10389e-07
-1.0924e-06
9.53429e-07
-1.15407e-06
8.92354e-07
-1.17397e-06
5.27726e-07
-1.1556e-06
-3.4584e-07
-1.13451e-06
-1.57963e-06
-1.10374e-06
-2.89357e-06
-9.94347e-07
-4.26767e-06
-6.37173e-07
-5.60004e-06
-6.1703e-06
-3.46152e-08
4.8003e-07
-7.84195e-08
6.56081e-07
-1.22579e-07
6.99798e-07
-1.6454e-07
7.10203e-07
-2.03241e-07
7.06356e-07
-2.38343e-07
6.94911e-07
-2.69923e-07
6.79252e-07
-2.98297e-07
6.61411e-07
-3.23896e-07
6.42701e-07
-3.47184e-07
6.23987e-07
-3.68605e-07
6.05839e-07
-3.88557e-07
5.88628e-07
-4.07372e-07
5.72595e-07
-4.25322e-07
5.57912e-07
-4.42625e-07
5.44716e-07
-4.59453e-07
5.3315e-07
-4.75948e-07
5.23401e-07
-4.92238e-07
5.15726e-07
-5.0845e-07
5.10491e-07
-5.24732e-07
5.08209e-07
-5.41265e-07
5.09573e-07
-5.58277e-07
5.15471e-07
-5.76061e-07
5.27032e-07
-5.94974e-07