/*--------------------------------*- C++ -*----------------------------------*\
  =========                 |
  \\      /  F ield         | OpenFOAM: The Open Source CFD Toolbox
   \\    /   O peration     | Website:  https://openfoam.org
    \\  /    A nd           | Version:  13
     \\/     M anipulation  |
\*---------------------------------------------------------------------------*/
FoamFile
{
    format      ascii;
    class       volVectorField;
    location    "0.5";
    object      U;
}
// * * * * * * * * * * * * * * * * * * * * * * * * * * * * * * * * * * * * * //

dimensions      [0 1 -1 0 0 0 0];

internalField   nonuniform List<vector> 
1600
(
(5.27932e-05 -5.28313e-05 0)
(1.29118e-05 2.47266e-05 0)
(-0.00023724 0.000119427 0)
(-0.000615517 0.000178905 0)
(-0.00106506 0.000206736 0)
(-0.0015464 0.00021612 0)
(-0.00203612 0.000215466 0)
(-0.00252026 0.000209486 0)
(-0.00299069 0.000200946 0)
(-0.00344292 0.00019143 0)
(-0.00387457 0.000181735 0)
(-0.00428435 0.00017215 0)
(-0.00467137 0.000162648 0)
(-0.00503473 0.000153037 0)
(-0.00537326 0.000143054 0)
(-0.0056854 0.000132422 0)
(-0.00596918 0.000120876 0)
(-0.00622218 0.00010817 0)
(-0.0064416 9.40641e-05 0)
(-0.00662431 7.82941e-05 0)
(-0.00676711 6.05561e-05 0)
(-0.00686607 4.07626e-05 0)
(-0.00691506 2.12723e-05 0)
(-0.00691586 -2.78263e-06 0)
(-0.00685852 -2.85763e-05 0)
(-0.00674152 -5.6627e-05 0)
(-0.00656034 -8.69054e-05 0)
(-0.00631133 -0.000119278 0)
(-0.00599159 -0.000153478 0)
(-0.00559921 -0.000188915 0)
(-0.00513396 -0.000224598 0)
(-0.00459789 -0.00025902 0)
(-0.00399617 -0.000290035 0)
(-0.00333917 -0.000315352 0)
(-0.00264172 -0.000330632 0)
(-0.0019279 -0.000329225 0)
(-0.00123453 -0.000299809 0)
(-0.000619759 -0.000224409 0)
(-0.000162651 -9.55217e-05 0)
(1.81046e-05 1.77595e-05 0)
(-2.47617e-05 -1.33282e-05 0)
(-0.000290478 0.000292535 0)
(-0.00072414 0.000552844 0)
(-0.00125474 0.00070978 0)
(-0.00184283 0.000789086 0)
(-0.00245903 0.000820286 0)
(-0.00308537 0.000822572 0)
(-0.00370906 0.000807352 0)
(-0.00432084 0.000781632 0)
(-0.00491406 0.000749721 0)
(-0.00548388 0.000714122 0)
(-0.00602667 0.000676093 0)
(-0.00653946 0.000636049 0)
(-0.00701964 0.000593867 0)
(-0.0074646 0.000549117 0)
(-0.00787162 0.000501224 0)
(-0.00823773 0.000449565 0)
(-0.00855962 0.000393534 0)
(-0.00883371 0.000332562 0)
(-0.00905611 0.000266133 0)
(-0.00922277 0.000193764 0)
(-0.00932936 0.000115182 0)
(-0.00937115 3.07017e-05 0)
(-0.00934372 -6.0404e-05 0)
(-0.0092427 -0.000158471 0)
(-0.00906407 -0.000262815 0)
(-0.00880425 -0.000372859 0)
(-0.00846052 -0.000487663 0)
(-0.0080313 -0.000605694 0)
(-0.0075167 -0.000724677 0)
(-0.0069188 -0.000841454 0)
(-0.00624225 -0.000951677 0)
(-0.00549479 -0.0010495 0)
(-0.00468765 -0.00112701 0)
(-0.00383748 -0.00117377 0)
(-0.00296607 -0.00117397 0)
(-0.0021025 -0.00110196 0)
(-0.00129199 -0.000918655 0)
(-0.000592349 -0.000587841 0)
(-9.42038e-05 -0.000162064 0)
(-0.000121877 0.000236518 0)
(-0.000552074 0.000725662 0)
(-0.00106036 0.00106162 0)
(-0.00162701 0.00126657 0)
(-0.00223149 0.00137778 0)
(-0.00285717 0.00142666 0)
(-0.00349352 0.0014346 0)
(-0.00413097 0.0014153 0)
(-0.00476108 0.00137772 0)
(-0.00537673 0.00132775 0)
(-0.00597205 0.00126913 0)
(-0.00654211 0.001204 0)
(-0.0070827 0.00113338 0)
(-0.00759007 0.00105746 0)
(-0.00806075 0.000975922 0)
(-0.00849128 0.000888121 0)
(-0.00887816 0.000793274 0)
(-0.00921773 0.000690552 0)
(-0.0095061 0.000579151 0)
(-0.00973918 0.000458337 0)
(-0.00991271 0.000327493 0)
(-0.0100223 0.000186237 0)
(-0.0100633 3.44481e-05 0)
(-0.0100312 -0.000128327 0)
(-0.00992185 -0.000301629 0)
(-0.00973147 -0.000484623 0)
(-0.00945694 -0.000675968 0)
(-0.00909621 -0.000873573 0)
(-0.00864861 -0.00107437 0)
(-0.00811528 -0.0012742 0)
(-0.00749947 -0.0014676 0)
(-0.00680695 -0.0016476 0)
(-0.00604629 -0.00180544 0)
(-0.00522906 -0.00193003 0)
(-0.00437008 -0.00200706 0)
(-0.00348676 -0.00201688 0)
(-0.00259886 -0.00193048 0)
(-0.00173673 -0.0017059 0)
(-0.000935622 -0.00129196 0)
(-0.000220274 -0.000620485 0)
(-0.000184945 0.000617417 0)
(-0.000715263 0.0012548 0)
(-0.00127261 0.00162723 0)
(-0.00186489 0.00185663 0)
(-0.00247847 0.00198809 0)
(-0.00310416 0.00205059 0)
(-0.00373751 0.00206429 0)
(-0.0043725 0.00204295 0)
(-0.00500244 0.00199618 0)
(-0.00562085 0.00193066 0)
(-0.00622181 0.00185091 0)
(-0.00679996 0.00175978 0)
(-0.00735051 0.00165883 0)
(-0.00786909 0.00154864 0)
(-0.00835163 0.00142909 0)
(-0.00879422 0.00129959 0)
(-0.00919299 0.00115931 0)
(-0.00954398 0.00100728 0)
(-0.00984311 0.000842518 0)
(-0.0100861 0.000664119 0)
(-0.0102686 0.000471324 0)
(-0.010386 0.000263616 0)
(-0.0104338 4.07608e-05 0)
(-0.0104073 -0.0001972 0)
(-0.0103025 -0.000449602 0)
(-0.0101155 -0.000715026 0)
(-0.0098436 -0.000991207 0)
(-0.00948481 -0.00127476 0)
(-0.00903881 -0.00156104 0)
(-0.00850698 -0.00184395 0)
(-0.00789276 -0.0021158 0)
(-0.00720186 -0.00236719 0)
(-0.00644237 -0.00258678 0)
(-0.00562472 -0.00276093 0)
(-0.00476125 -0.00287306 0)
(-0.00386497 -0.00290209 0)
(-0.00294883 -0.0028194 0)
(-0.00203559 -0.00258487 0)
(-0.00115364 -0.00213431 0)
(-0.000298644 -0.00124799 0)
(-0.000216883 0.00107473 0)
(-0.000805954 0.00184565 0)
(-0.00140068 0.00223433 0)
(-0.00201876 0.0024715 0)
(-0.00264685 0.00261195 0)
(-0.00327859 0.002682 0)
(-0.00391319 0.00269921 0)
(-0.00454764 0.00267601 0)
(-0.0051772 0.00262152 0)
(-0.00579656 0.00254245 0)
(-0.00640033 0.00244361 0)
(-0.00698333 0.00232825 0)
(-0.00754063 0.00219833 0)
(-0.00806763 0.00205476 0)
(-0.00855997 0.00189765 0)
(-0.00901348 0.00172655 0)
(-0.00942403 0.00154061 0)
(-0.00978745 0.00133878 0)
(-0.0100995 0.00111995 0)
(-0.0103557 0.00088307 0)
(-0.0105515 0.000627241 0)
(-0.0106823 0.000351848 0)
(-0.0107432 5.66635e-05 0)
(-0.0107297 -0.00025801 0)
(-0.0106372 -0.000591121 0)
(-0.010462 -0.000940632 0)
(-0.0102009 -0.00130332 0)
(-0.00985175 -0.00167452 0)
(-0.00941397 -0.00204801 0)
(-0.00888849 -0.00241586 0)
(-0.00827815 -0.00276832 0)
(-0.00758781 -0.00309383 0)
(-0.00682435 -0.00337895 0)
(-0.0059965 -0.00360823 0)
(-0.00511425 -0.00376384 0)
(-0.00418735 -0.00382454 0)
(-0.00322547 -0.00376313 0)
(-0.00225014 -0.00354071 0)
(-0.00129217 -0.00307532 0)
(-0.000341417 -0.00198245 0)
(-0.000230827 0.00157231 0)
(-0.00085372 0.00247383 0)
(-0.00147707 0.00287136 0)
(-0.00211979 0.00310683 0)
(-0.00276629 0.00324766 0)
(-0.00341014 0.00331911 0)
(-0.00405224 0.00333627 0)
(-0.00469152 0.00330979 0)
(-0.00532489 0.0032477 0)
(-0.00594823 0.00315618 0)
(-0.00655697 0.00303987 0)
(-0.00714636 0.0029021 0)
(-0.00771169 0.00274501 0)
(-0.00824841 0.00256974 0)
(-0.0087521 0.00237658 0)
(-0.00921847 0.00216518 0)
(-0.00964325 0.0019347 0)
(-0.0100222 0.00168404 0)
(-0.0103508 0.00141196 0)
(-0.0106246 0.00111725 0)
(-0.0108387 0.000798865 0)
(-0.0109884 0.000456084 0)
(-0.0110685 8.8681e-05 0)
(-0.0110741 -0.000302885 0)
(-0.0110004 -0.000717192 0)
(-0.010843 -0.00115162 0)
(-0.0105982 -0.00160205 0)
(-0.0102633 -0.00206266 0)
(-0.00983667 -0.00252578 0)
(-0.0093183 -0.00298179 0)
(-0.00870985 -0.00341909 0)
(-0.00801482 -0.00382422 0)
(-0.00723854 -0.00418194 0)
(-0.00638805 -0.00447532 0)
(-0.00547158 -0.00468558 0)
(-0.00449731 -0.00479132 0)
(-0.00347448 -0.00476586 0)
(-0.0024278 -0.00456849 0)
(-0.00139435 -0.00409402 0)
(-0.000367534 -0.00278585 0)
(-0.000235333 0.00208958 0)
(-0.000877899 0.00312657 0)
(-0.00152348 0.0035335 0)
(-0.00218888 0.00376371 0)
(-0.00285565 0.0038998 0)
(-0.00351591 0.00396791 0)
(-0.00417086 0.00398158 0)
(-0.00482042 0.0039498 0)
(-0.00546263 0.00387937 0)
(-0.0060944 0.00377562 0)
(-0.00671194 0.00364277 0)
(-0.00731109 0.00348395 0)
(-0.00788754 0.0033013 0)
(-0.00843694 0.00309603 0)
(-0.008955 0.00286853 0)
(-0.00943746 0.00261848 0)
(-0.00988004 0.00234504 0)
(-0.0102784 0.00204701 0)
(-0.010628 0.001723 0)
(-0.0109242 0.00137162 0)
(-0.011162 0.000991622 0)
(-0.0113362 0.000582128 0)
(-0.0114415 0.000142834 0)
(-0.0114723 -0.000325731 0)
(-0.0114234 -0.000821913 0)
(-0.0112896 -0.00134262 0)
(-0.0110662 -0.001883 0)
(-0.0107492 -0.00243624 0)
(-0.0103359 -0.00299338 0)
(-0.00982472 -0.00354328 0)
(-0.00921559 -0.00407265 0)
(-0.00851029 -0.00456623 0)
(-0.00771245 -0.00500702 0)
(-0.0068276 -0.00537646 0)
(-0.00586293 -0.00565444 0)
(-0.00482643 -0.0058185 0)
(-0.00372902 -0.0058405 0)
(-0.00260098 -0.00567429 0)
(-0.00148725 -0.0051872 0)
(-0.000387986 -0.00364376 0)
(-0.000235234 0.00261526 0)
(-0.000889857 0.0037963 0)
(-0.0015535 0.00421709 0)
(-0.00223987 0.00444228 0)
(-0.00292778 0.0045714 0)
(-0.0036074 0.00463322 0)
(-0.00427937 0.00464073 0)
(-0.00494394 0.00460175 0)
(-0.0055998 0.00452193 0)
(-0.0062446 0.00440576 0)
(-0.00687525 0.00425685 0)
(-0.00748818 0.00407799 0)
(-0.00807953 0.00387115 0)
(-0.00864531 0.0036375 0)
(-0.00918146 0.0033774 0)
(-0.00968387 0.00309053 0)
(-0.0101483 0.00277595 0)
(-0.0105706 0.00243234 0)
(-0.010946 0.00205811 0)
(-0.0112698 0.00165158 0)
(-0.0115368 0.00121126 0)
(-0.0117416 0.000735999 0)
(-0.0118784 0.000225287 0)
(-0.011941 -0.00032044 0)
(-0.0119233 -0.000899466 0)
(-0.0118191 -0.00150843 0)
(-0.0116225 -0.00214197 0)
(-0.011328 -0.00279247 0)
(-0.010931 -0.00344994 0)
(-0.0104278 -0.00410186 0)
(-0.00981637 -0.00473333 0)
(-0.00909635 -0.00532725 0)
(-0.00826946 -0.00586459 0)
(-0.00733984 -0.00632466 0)
(-0.00631414 -0.0066851 0)
(-0.00520117 -0.0069209 0)
(-0.00401488 -0.00700018 0)
(-0.00279256 -0.00686804 0)
(-0.00158791 -0.00636053 0)
(-0.000408995 -0.00455523 0)
(-0.000233478 0.00314427 0)
(-0.000896304 0.00447862 0)
(-0.00157585 0.00491959 0)
(-0.00228214 0.00514213 0)
(-0.00299177 0.0052641 0)
(-0.00369283 0.0053182 0)
(-0.00438505 0.00531784 0)
(-0.00506855 0.00527019 0)
(-0.00574231 0.00518006 0)
(-0.00640446 0.00505115 0)
(-0.00705245 0.00488646 0)
(-0.00768326 0.00468836 0)
(-0.00829352 0.00445858 0)
(-0.00887963 0.00419813 0)
(-0.00943785 0.00390726 0)
(-0.00996433 0.00358556 0)
(-0.0104551 0.00323195 0)
(-0.0109058 0.00284488 0)
(-0.0113121 0.00242249 0)
(-0.0116691 0.00196277 0)
(-0.0119713 0.00146382 0)
(-0.0122132 0.000924081 0)
(-0.0123883 0.000342679 0)
(-0.0124898 -0.000280265 0)
(-0.0125107 -0.00094322 0)
(-0.0124434 -0.00164282 0)
(-0.0122803 -0.0023735 0)
(-0.0120141 -0.00312715 0)
(-0.0116379 -0.00389295 0)
(-0.0111455 -0.00465722 0)
(-0.0105322 -0.00540346 0)
(-0.00979496 -0.00611257 0)
(-0.00893326 -0.00676302 0)
(-0.00794977 -0.00733115 0)
(-0.00685078 -0.00779106 0)
(-0.0056465 -0.00811336 0)
(-0.00435477 -0.00825993 0)
(-0.00302103 -0.0081641 0)
(-0.00170878 -0.00762702 0)
(-0.000434567 -0.0055283 0)
(-0.000231433 0.00367446 0)
(-0.000901528 0.00517196 0)
(-0.00159623 0.00563981 0)
(-0.00232213 0.00586312 0)
(-0.00305409 0.00597904 0)
(-0.00377823 0.00602519 0)
(-0.00449326 0.00601611 0)
(-0.00519892 0.00595888 0)
(-0.00589421 0.00585778 0)
(-0.00657754 0.0057159 0)
(-0.00724679 0.00553569 0)
(-0.00789938 0.00531912 0)
(-0.00853243 0.0050676 0)
(-0.00914278 0.00478194 0)
(-0.00972708 0.00446224 0)
(-0.0102818 0.00410789 0)
(-0.0108032 0.00371763 0)
(-0.0112874 0.0032896 0)
(-0.0117298 0.00282158 0)
(-0.0121256 0.0023111 0)
(-0.0124695 0.00175573 0)
(-0.0127554 0.00115332 0)
(-0.0129764 0.000502396 0)
(-0.013125 -0.000197493 0)
(-0.0131929 -0.000945322 0)
(-0.0131712 -0.00173808 0)
(-0.0130503 -0.00257038 0)
(-0.0128207 -0.00343399 0)
(-0.0124725 -0.00431761 0)
(-0.0119964 -0.0052066 0)
(-0.0113843 -0.00608294 0)
(-0.01063 -0.00692525 0)
(-0.00972989 -0.00770892 0)
(-0.00868476 -0.00840621 0)
(-0.00750033 -0.00898607 0)
(-0.00618834 -0.00941255 0)
(-0.00477117 -0.00963856 0)
(-0.00330352 -0.00958265 0)
(-0.00186027 -0.00900698 0)
(-0.00046767 -0.00657786 0)
(-0.000230005 0.00420606 0)
(-0.000908191 0.00587643 0)
(-0.00161834 0.00637763 0)
(-0.00236423 0.00660555 0)
(-0.0031193 0.0067173 0)
(-0.00386796 0.00675607 0)
(-0.0046079 0.00673815 0)
(-0.00533838 0.00667096 0)
(-0.00605828 0.00655857 0)
(-0.00676611 0.00640366 0)
(-0.00746007 0.00620827 0)
(-0.00813799 0.00597401 0)
(-0.00879743 0.005702 0)
(-0.00943569 0.00539282 0)
(-0.0100499 0.00504637 0)
(-0.0106369 0.00466182 0)
(-0.0111934 0.00423762 0)
(-0.0117156 0.00377158 0)
(-0.0121995 0.00326099 0)
(-0.0126402 0.0027028 0)
(-0.0130324 0.00209388 0)
(-0.0133698 0.00143132 0)
(-0.0136451 0.000712743 0)
(-0.01385 -6.31978e-05 0)
(-0.013975 -0.000896336 0)
(-0.0140096 -0.00178451 0)
(-0.0139422 -0.00272298 0)
(-0.0137602 -0.00370393 0)
(-0.0134505 -0.00471601 0)
(-0.0129999 -0.005744 0)
(-0.0123961 -0.00676847 0)
(-0.0116284 -0.00776557 0)
(-0.0106892 -0.00870692 0)
(-0.00957636 -0.00955943 0)
(-0.00829427 -0.0102849 0)
(-0.00685594 -0.0108381 0)
(-0.00528864 -0.01116 0)
(-0.00365801 -0.0111506 0)
(-0.00205307 -0.0105276 0)
(-0.000511281 -0.00772532 0)
(-0.000229741 0.00474068 0)
(-0.000917849 0.00659322 0)
(-0.00164451 0.0071338 0)
(-0.00241132 0.00737018 0)
(-0.00319054 0.00748001 0)
(-0.0039651 0.00751251 0)
(-0.00473177 0.00748615 0)
(-0.00548929 0.00740904 0)
(-0.00623634 0.00728535 0)
(-0.00697148 0.00711758 0)
(-0.00769311 0.00690749 0)
(-0.00839943 0.00665642 0)
(-0.00908842 0.00636527 0)
(-0.00975789 0.00603438 0)
(-0.0104054 0.00566346 0)
(-0.0110285 0.00525144 0)
(-0.0116241 0.00479643 0)
(-0.0121891 0.00429583 0)
(-0.0127196 0.00374636 0)
(-0.0132113 0.00314429 0)
(-0.0136587 0.0024856 0)
(-0.0140557 0.00176637 0)
(-0.0143945 0.000983063 0)
(-0.0146662 0.000133034 0)
(-0.0148602 -0.000784886 0)
(-0.0149642 -0.00176993 0)
(-0.0149643 -0.00281866 0)
(-0.0148448 -0.00392432 0)
(-0.0145885 -0.00507623 0)
(-0.0141776 -0.00625913 0)
(-0.013594 -0.00745255 0)
(-0.0128214 -0.00863013 0)
(-0.0118466 -0.00975903 0)
(-0.0106623 -0.0107994 0)
(-0.00927056 -0.0117035 0)
(-0.00768449 -0.0124137 0)
(-0.00593669 -0.0128545 0)
(-0.00410617 -0.0129025 0)
(-0.00229942 -0.0122249 0)
(-0.000567829 -0.00899817 0)
(-0.00023088 0.00528058 0)
(-0.000931315 0.00732422 0)
(-0.0016761 0.00790964 0)
(-0.00246519 0.00815815 0)
(-0.00326985 0.00826842 0)
(-0.0040717 0.00829605 0)
(-0.00486672 0.00826196 0)
(-0.00565316 0.00817531 0)
(-0.00642948 0.00804057 0)
(-0.00719421 0.00786028 0)
(-0.00794594 0.00763611 0)
(-0.00868319 0.00736923 0)
(-0.00940438 0.00706039 0)
(-0.0101078 0.00670978 0)
(-0.0107917 0.00631692 0)
(-0.011454 0.00588048 0)
(-0.0120925 0.00539826 0)
(-0.0127044 0.00486716 0)
(-0.0132866 0.00428329 0)
(-0.0138351 0.00364209 0)
(-0.0143449 0.00293853 0)
(-0.0148098 0.00216743 0)
(-0.0152222 0.00132376 0)
(-0.0155725 0.000403186 0)
(-0.0158492 -0.000597395 0)
(-0.0160385 -0.00167926 0)
(-0.0161238 -0.00284105 0)
(-0.0160861 -0.00407802 0)
(-0.0159036 -0.00538114 0)
(-0.0155526 -0.00673604 0)
(-0.0150082 -0.00812194 0)
(-0.014246 -0.00951025 0)
(-0.0132446 -0.0108633 0)
(-0.0119894 -0.0121329 0)
(-0.0104769 -0.013259 0)
(-0.00871891 -0.0141672 0)
(-0.00675323 -0.0147597 0)
(-0.00467515 -0.0148832 0)
(-0.0026138 -0.0141454 0)
(-0.000640121 -0.0104315 0)
(-0.000233461 0.00582835 0)
(-0.000948928 0.00807176 0)
(-0.00171382 0.00870693 0)
(-0.00252691 0.00897091 0)
(-0.0033585 0.00908392 0)
(-0.00418908 0.00910814 0)
(-0.00501394 0.00906723 0)
(-0.00583089 0.00897156 0)
(-0.00663817 0.00882619 0)
(-0.00743429 0.00863386 0)
(-0.00821799 0.00839632 0)
(-0.00898811 0.00811473 0)
(-0.00974353 0.00778978 0)
(-0.0104831 0.00742161 0)
(-0.0112057 0.00700958 0)
(-0.0119099 0.00655216 0)
(-0.0125943 0.00604681 0)
(-0.0132569 0.00548997 0)
(-0.0138953 0.00487707 0)
(-0.0145062 0.00420263 0)
(-0.0150852 0.00346048 0)
(-0.0156267 0.00264395 0)
(-0.0161232 0.00174623 0)
(-0.0165652 0.0007608 0)
(-0.0169404 -0.000317934 0)
(-0.0172335 -0.00149411 0)
(-0.0174258 -0.00276946 0)
(-0.0174945 -0.00414246 0)
(-0.0174129 -0.00560708 0)
(-0.0171502 -0.00715137 0)
(-0.0166728 -0.00875555 0)
(-0.0159456 -0.0103898 0)
(-0.0149357 -0.0120116 0)
(-0.0136167 -0.0135633 0)
(-0.0119753 -0.0149691 0)
(-0.0100186 -0.0161318 0)
(-0.00778884 -0.0169237 0)
(-0.00540123 -0.0171515 0)
(-0.00301545 -0.0163502 0)
(-0.000731479 -0.0120691 0)
(-0.000237426 0.00638664 0)
(-0.00097074 0.00883841 0)
(-0.00175798 0.00952774 0)
(-0.00259701 0.00981019 0)
(-0.00345723 0.00992803 0)
(-0.00431802 0.00995025 0)
(-0.00517411 0.0099034 0)
(-0.00602293 0.0097993 0)
(-0.00686251 0.00964375 0)
(-0.00769134 0.0094399 0)
(-0.00850832 0.00918974 0)
(-0.00931262 0.00889459 0)
(-0.0101036 0.00855521 0)
(-0.0108807 0.00817177 0)
(-0.0116436 0.00774359 0)
(-0.0123916 0.00726899 0)
(-0.0131242 0.00674516 0)
(-0.0138404 0.00616807 0)
(-0.0145388 0.00553247 0)
(-0.015217 0.00483198 0)
(-0.0158718 0.00405914 0)
(-0.0164983 0.00320566 0)
(-0.0170899 0.00226262 0)
(-0.0176374 0.00122091 0)
(-0.0181285 7.1766e-05 0)
(-0.0185472 -0.00119256 0)
(-0.0188725 -0.00257824 0)
(-0.0190784 -0.00408848 0)
(-0.0191327 -0.00572223 0)
(-0.0189968 -0.00747207 0)
(-0.0186263 -0.00932159 0)
(-0.0179721 -0.0112418 0)
(-0.0169847 -0.0131864 0)
(-0.0156199 -0.0150875 0)
(-0.0138478 -0.0168501 0)
(-0.0116644 -0.0183468 0)
(-0.00911346 -0.0194079 0)
(-0.00633491 -0.0197846 0)
(-0.00353035 -0.0189196 0)
(-0.000845632 -0.0139666 0)
(-0.000242678 0.00695805 0)
(-0.000996678 0.00962685 0)
(-0.00180866 0.0103744 0)
(-0.00267579 0.0106779 0)
(-0.00356646 0.0108024 0)
(-0.00445903 0.0108238 0)
(-0.00534767 0.0107718 0)
(-0.00622951 0.0106597 0)
(-0.00710237 0.0104944 0)
(-0.00796475 0.0102794 0)
(-0.00881574 0.0100174 0)
(-0.00965486 0.00970978 0)
(-0.010482 0.00935767 0)
(-0.0112972 0.00896136 0)
(-0.012101 0.00852025 0)
(-0.0128938 0.0080326 0)
(-0.0136759 0.00749544 0)
(-0.0144476 0.00690434 0)
(-0.0152087 0.00625347 0)
(-0.0159582 0.00553551 0)
(-0.0166944 0.00474175 0)
(-0.0174139 0.00386216 0)
(-0.0181113 0.00288557 0)
(-0.0187787 0.00179986 0)
(-0.0194045 0.000592496 0)
(-0.0199728 -0.000748919 0)
(-0.0204616 -0.00223626 0)
(-0.0208422 -0.00387941 0)
(-0.0210769 -0.00568474 0)
(-0.0211188 -0.00765267 0)
(-0.0209105 -0.00977375 0)
(-0.0203855 -0.0120235 0)
(-0.0194712 -0.0143552 0)
(-0.0180964 -0.0166912 0)
(-0.016204 -0.018914 0)
(-0.0137676 -0.020857 0)
(-0.0108258 -0.0222907 0)
(-0.00754785 -0.0228868 0)
(-0.00419393 -0.0219625 0)
(-0.000986127 -0.0161944 0)
(-0.000249135 0.00754506 0)
(-0.00102666 0.0104398 0)
(-0.00186593 0.0112493 0)
(-0.00276346 0.0115761 0)
(-0.00368658 0.0117087 0)
(-0.00461253 0.0117302 0)
(-0.00553501 0.0116735 0)
(-0.00645081 0.0115538 0)
(-0.00735761 0.0113787 0)
(-0.00825394 0.011153 0)
(-0.00913907 0.0108796 0)
(-0.0100129 0.0105606 0)
(-0.0108759 0.0101973 0)
(-0.011729 0.00979055 0)
(-0.0125734 0.00933984 0)
(-0.0134106 0.00884356 0)
(-0.0142423 0.00829867 0)
(-0.0150701 0.00770053 0)
(-0.0158952 0.00704282 0)
(-0.0167187 0.00631745 0)
(-0.0175406 0.00551454 0)
(-0.0183596 0.00462237 0)
(-0.0191726 0.00362744 0)
(-0.0199738 0.00251445 0)
(-0.0207537 0.00126657 0)
(-0.0214978 -0.000134281 0)
(-0.0221846 -0.00170692 0)
(-0.0227838 -0.00347019 0)
(-0.0232537 -0.0054411 0)
(-0.023539 -0.00763208 0)
(-0.0235682 -0.0100463 0)
(-0.023253 -0.0126702 0)
(-0.0224904 -0.0154625 0)
(-0.0211699 -0.0183404 0)
(-0.0191897 -0.0211623 0)
(-0.0164824 -0.023711 0)
(-0.0130656 -0.0256736 0)
(-0.00914205 -0.0266012 0)
(-0.00505378 -0.0256293 0)
(-0.00115419 -0.0188412 0)
(-0.000256759 0.00815011 0)
(-0.00106069 0.0112801 0)
(-0.00192994 0.012155 0)
(-0.00286039 0.0125071 0)
(-0.00381809 0.0126488 0)
(-0.00477913 0.0126709 0)
(-0.00573667 0.0126097 0)
(-0.00668721 0.0124821 0)
(-0.00762829 0.0122972 0)
(-0.00855845 0.0120606 0)
(-0.00947724 0.0117761 0)
(-0.010385 0.0114463 0)
(-0.0112828 0.0110734 0)
(-0.0121723 0.0106585 0)
(-0.0130558 0.0102015 0)
(-0.013936 0.00970114 0)
(-0.0148158 0.00915447 0)
(-0.0156986 0.00855685 0)
(-0.0165875 0.00790169 0)
(-0.0174856 0.00718038 0)
(-0.0183953 0.00638211 0)
(-0.0193184 0.00549371 0)
(-0.0202548 0.00449948 0)
(-0.0212023 0.00338099 0)
(-0.0221549 0.00211684 0)
(-0.0231014 0.000682721 0)
(-0.0240231 -0.000948625 0)
(-0.0248908 -0.00280728 0)
(-0.025661 -0.00492463 0)
(-0.0262715 -0.00733067 0)
(-0.0266369 -0.0100488 0)
(-0.0266439 -0.0130863 0)
(-0.0261507 -0.016419 0)
(-0.0249917 -0.0199689 0)
(-0.0229949 -0.0235741 0)
(-0.0200188 -0.026957 0)
(-0.0160291 -0.0296873 0)
(-0.0112606 -0.0311273 0)
(-0.00617095 -0.0301328 0)
(-0.00134364 -0.0220161 0)
(-0.000265583 0.00877568 0)
(-0.00109895 0.0121507 0)
(-0.0020011 0.0130943 0)
(-0.0029672 0.0134732 0)
(-0.00396184 0.0136247 0)
(-0.00495978 0.0136475 0)
(-0.0059536 0.0135812 0)
(-0.00693947 0.0134451 0)
(-0.0079148 0.0132497 0)
(-0.00887822 0.0130017 0)
(-0.00982951 0.0127058 0)
(-0.0107695 0.0123657 0)
(-0.0117 0.0119843 0)
(-0.0126235 0.0115632 0)
(-0.0135433 0.0111031 0)
(-0.0144635 0.0106031 0)
(-0.0153885 0.0100608 0)
(-0.0163233 0.00947163 0)
(-0.0172733 0.00882915 0)
(-0.0182441 0.00812457 0)
(-0.0192412 0.0073466 0)
(-0.0202698 0.00648107 0)
(-0.0213342 0.00551057 0)
(-0.0224371 0.00441391 0)
(-0.0235781 0.00316538 0)
(-0.0247519 0.00173411 0)
(-0.0259457 8.34385e-05 0)
(-0.0271351 -0.00182984 0)
(-0.0282788 -0.00405558 0)
(-0.0293122 -0.0066479 0)
(-0.0301382 -0.00966047 0)
(-0.0306186 -0.0131359 0)
(-0.0305645 -0.0170864 0)
(-0.0297364 -0.0214595 0)
(-0.0278572 -0.0260886 0)
(-0.0246546 -0.030632 0)
(-0.0199849 -0.0345 0)
(-0.0140974 -0.0367509 0)
(-0.00761543 -0.0357794 0)
(-0.0015292 -0.0258468 0)
(-0.000275729 0.00942441 0)
(-0.00114187 0.0130548 0)
(-0.00208017 0.0140704 0)
(-0.00308499 0.0144772 0)
(-0.00411918 0.0146386 0)
(-0.00515596 0.0146613 0)
(-0.00618725 0.014589 0)
(-0.00720887 0.014443 0)
(-0.00821809 0.0142357 0)
(-0.00921362 0.013975 0)
(-0.0101956 0.013667 0)
(-0.0111654 0.0133164 0)
(-0.0121254 0.012927 0)
(-0.0130792 0.0125014 0)
(-0.0140312 0.012041 0)
(-0.0149868 0.0115457 0)
(-0.0159519 0.0110137 0)
(-0.0169336 0.010441 0)
(-0.0179395 0.00982164 0)
(-0.018978 0.00914728 0)
(-0.0200582 0.00840672 0)
(-0.0211896 0.00758556 0)
(-0.0223818 0.00666553 0)
(-0.023644 0.00562354 0)
(-0.0249836 0.00443049 0)
(-0.0264042 0.00304948 0)
(-0.0279029 0.00143424 0)
(-0.0294655 -0.00047298 0)
(-0.0310596 -0.00274362 0)
(-0.0326249 -0.00546303 0)
(-0.0340603 -0.00872726 0)
(-0.0352067 -0.0126336 0)
(-0.0358268 -0.0172597 0)
(-0.0355848 -0.0226179 0)
(-0.0340554 -0.0285751 0)
(-0.030745 -0.0347449 0)
(-0.0252884 -0.0403287 0)
(-0.0178995 -0.043881 0)
(-0.00945625 -0.0429966 0)
(-0.00164467 -0.0304593 0)
(-0.000287438 0.0100993 0)
(-0.00119019 0.0139959 0)
(-0.0021684 0.0150867 0)
(-0.00321548 0.0155221 0)
(-0.00429216 0.0156929 0)
(-0.00536991 0.0157142 0)
(-0.00643985 0.0156337 0)
(-0.0074974 0.0154757 0)
(-0.0085397 0.0152541 0)
(-0.00956561 0.0149788 0)
(-0.0105756 0.0146572 0)
(-0.0115717 0.0142951 0)
(-0.0125571 0.0138977 0)
(-0.0135364 0.0134685 0)
(-0.0145149 0.0130101 0)
(-0.0154995 0.0125232 0)
(-0.0164979 0.0120069 0)
(-0.0175187 0.0114584 0)
(-0.0185723 0.0108725 0)
(-0.0196699 0.0102421 0)
(-0.0208244 0.00955675 0)
(-0.0220503 0.00880305 0)
(-0.0233635 0.0079631 0)
(-0.024781 0.00701346 0)
(-0.0263201 0.0059232 0)
(-0.0279969 0.00465126 0)
(-0.029823 0.00314291 0)
(-0.0318007 0.00132578 0)
(-0.0339154 -0.00089484 0)
(-0.036123 -0.00364082 0)
(-0.0383315 -0.00706359 0)
(-0.0403749 -0.0113386 0)
(-0.0419758 -0.0166485 0)
(-0.0426924 -0.0231379 0)
(-0.0418903 -0.0307881 0)
(-0.0387321 -0.0392345 0)
(-0.0324032 -0.0474143 0)
(-0.0229788 -0.0530315 0)
(-0.0118125 -0.0523022 0)
(-0.00158598 -0.035929 0)
(-0.000301094 0.0108039 0)
(-0.00124507 0.0149783 0)
(-0.00226767 0.0161471 0)
(-0.00336114 0.0166115 0)
(-0.00448371 0.0167902 0)
(-0.00560474 0.0168076 0)
(-0.00671443 0.0167161 0)
(-0.00780778 0.0165426 0)
(-0.00888185 0.0163036 0)
(-0.00993569 0.0160106 0)
(-0.0109703 0.0156728 0)
(-0.0119882 0.0152975 0)
(-0.0129937 0.0148912 0)
(-0.013992 0.0144587 0)
(-0.01499 0.0140036 0)
(-0.0159955 0.013528 0)
(-0.0170178 0.0130321 0)
(-0.0180676 0.0125144 0)
(-0.0191572 0.0119716 0)
(-0.0203011 0.011398 0)
(-0.021516 0.0107855 0)
(-0.0228216 0.0101226 0)
(-0.0242404 0.00939366 0)
(-0.0257986 0.00857706 0)
(-0.0275251 0.00764267 0)
(-0.0294512 0.00654817 0)
(-0.031608 0.00523383 0)
(-0.0340216 0.00361532 0)
(-0.0367055 0.0015754 0)
(-0.0396474 -0.00104598 0)
(-0.0427866 -0.0044644 0)
(-0.0459777 -0.00895781 0)
(-0.0489332 -0.0148638 0)
(-0.0511259 -0.0225536 0)
(-0.0516453 -0.0322759 0)
(-0.0491205 -0.0438243 0)
(-0.0419261 -0.0558951 0)
(-0.0299146 -0.0649207 0)
(-0.0153376 -0.0644733 0)
(-0.00144268 -0.0424224 0)
(-0.000317275 0.0115427 0)
(-0.00130819 0.0160072 0)
(-0.00238064 0.0172567 0)
(-0.00352543 0.0177493 0)
(-0.00469778 0.0179335 0)
(-0.00586456 0.0179434 0)
(-0.00701496 0.0178364 0)
(-0.00814355 0.0176428 0)
(-0.00924735 0.0173817 0)
(-0.0103258 0.0170669 0)
(-0.0113804 0.0167093 0)
(-0.0124146 0.0163181 0)
(-0.0134333 0.015901 0)
(-0.0144432 0.0154643 0)
(-0.0154518 0.015013 0)
(-0.0164682 0.0145504 0)
(-0.0175032 0.0140782 0)
(-0.0185689 0.0135968 0)
(-0.0196797 0.0131048 0)
(-0.0208527 0.0125993 0)
(-0.0221083 0.0120753 0)
(-0.023471 0.011525 0)
(-0.0249702 0.010937 0)
(-0.0266412 0.0102942 0)
(-0.0285256 0.00957079 0)
(-0.0306716 0.00872773 0)
(-0.0331332 0.00770561 0)
(-0.0359668 0.0064147 0)
(-0.0392251 0.00472125 0)
(-0.0429454 0.00243181 0)
(-0.0471269 -0.000733819 0)
(-0.0516916 -0.00516925 0)
(-0.0564065 -0.0114163 0)
(-0.0607174 -0.0201885 0)
(-0.0633898 -0.0322259 0)
(-0.0622774 -0.0478377 0)
(-0.0544839 -0.0658311 0)
(-0.0400858 -0.0803033 0)
(-0.0225438 -0.0804407 0)
(-0.00215068 -0.0511675 0)
(-0.000336813 0.0123214 0)
(-0.00138192 0.017089 0)
(-0.00251096 0.0184213 0)
(-0.00371297 0.0189405 0)
(-0.00493953 0.0191262 0)
(-0.00615461 0.0191233 0)
(-0.00734629 0.0189947 0)
(-0.0085088 0.0187747 0)
(-0.00963931 0.0184854 0)
(-0.0107378 0.0181433 0)
(-0.0118066 0.0177611 0)
(-0.01285 0.0173501 0)
(-0.0138741 0.0169193 0)
(-0.0148862 0.0164766 0)
(-0.0158951 0.0160281 0)
(-0.0169109 0.0155788 0)
(-0.017945 0.0151319 0)
(-0.019011 0.01469 0)
(-0.0201248 0.0142543 0)
(-0.0213055 0.0138251 0)
(-0.0225763 0.0134017 0)
(-0.0239657 0.0129818 0)
(-0.0255091 0.0125603 0)
(-0.0272501 0.0121278 0)
(-0.0292421 0.0116669 0)
(-0.0315502 0.0111475 0)
(-0.0342518 0.0105178 0)
(-0.0374361 0.00969276 0)
(-0.0412032 0.00853546 0)
(-0.0456558 0.00683392 0)
(-0.0508818 0.00425846 0)
(-0.0569257 0.000307132 0)
(-0.0636979 -0.0057865 0)
(-0.0707 -0.0151969 0)
(-0.0764107 -0.029593 0)
(-0.0778623 -0.0508348 0)
(-0.0698291 -0.0773606 0)
(-0.0552612 -0.0988421 0)
(-0.0358506 -0.100727 0)
(-0.00531877 -0.0651571 0)
(-0.000360891 0.0131476 0)
(-0.00146951 0.0182318 0)
(-0.00266349 0.0196481 0)
(-0.00392972 0.0201906 0)
(-0.00521537 0.020372 0)
(-0.00648109 0.0203486 0)
(-0.00771387 0.0201902 0)
(-0.00890779 0.0199355 0)
(-0.0100605 0.0196103 0)
(-0.0111729 0.0192338 0)
(-0.0122484 0.0188211 0)
(-0.0132924 0.0183852 0)
(-0.0143122 0.0179368 0)
(-0.015316 0.0174849 0)
(-0.0163133 0.0170371 0)
(-0.0173149 0.0165997 0)
(-0.0183329 0.0161777 0)
(-0.0193814 0.0157757 0)
(-0.0204771 0.0153982 0)
(-0.0216401 0.0150494 0)
(-0.0228953 0.0147336 0)
(-0.0242738 0.0144553 0)
(-0.0258147 0.0142178 0)
(-0.0275678 0.0140223 0)
(-0.0295954 0.0138642 0)
(-0.0319759 0.0137278 0)
(-0.0348066 0.0135778 0)
(-0.0382056 0.0133463 0)
(-0.0423188 0.0129118 0)
(-0.0473163 0.0120699 0)
(-0.0533861 0.0104756 0)
(-0.0607183 0.00755378 0)
(-0.0694162 0.00230657 0)
(-0.0791161 -0.00715466 0)
(-0.0880063 -0.0242941 0)
(-0.0907388 -0.053768 0)
(-0.0839645 -0.0908956 0)
(-0.0709991 -0.118461 0)
(-0.049987 -0.12489 0)
(-0.0116365 -0.0895505 0)
(-0.000391172 0.0140311 0)
(-0.00157535 0.0194458 0)
(-0.00284458 0.0209458 0)
(-0.00418319 0.0215061 0)
(-0.00553298 0.0216743 0)
(-0.00685094 0.0216201 0)
(-0.00812317 0.0214209 0)
(-0.00934408 0.021121 0)
(-0.0105124 0.0207501 0)
(-0.0116303 0.0203307 0)
(-0.0127028 0.0198803 0)
(-0.0137368 0.0194135 0)
(-0.0147407 0.0189424 0)
(-0.0157237 0.0184773 0)
(-0.016696 0.0180266 0)
(-0.0176685 0.0175979 0)
(-0.0186536 0.017198 0)
(-0.0196651 0.0168336 0)
(-0.0207194 0.0165121 0)
(-0.0218366 0.0162422 0)
(-0.0230414 0.0160339 0)
(-0.0243654 0.0158991 0)
(-0.0258487 0.0158514 0)
(-0.0275432 0.0159042 0)
(-0.0295151 0.0160689 0)
(-0.0318491 0.0163492 0)
(-0.0346525 0.0167335 0)
(-0.0380598 0.0171824 0)
(-0.0422449 0.0176091 0)
(-0.0474202 0.0178419 0)
(-0.0538337 0.0175543 0)
(-0.0617556 0.0161215 0)
(-0.0714254 0.0122267 0)
(-0.082523 0.00270068 0)
(-0.091623 -0.0189176 0)
(-0.0928885 -0.0562154 0)
(-0.087254 -0.101061 0)
(-0.0757096 -0.137785 0)
(-0.0551436 -0.15301 0)
(-0.018265 -0.129042 0)
(-0.000429993 0.0149853 0)
(-0.00170529 0.0207442 0)
(-0.00306235 0.0223251 0)
(-0.0044824 0.0228938 0)
(-0.00590093 0.0230361 0)
(-0.00727103 0.0229369 0)
(-0.00857852 0.0226827 0)
(-0.00981898 0.0223242 0)
(-0.010993 0.021896 0)
(-0.0121048 0.0214237 0)
(-0.0131618 0.0209272 0)
(-0.0141725 0.0204227 0)
(-0.0151468 0.0199233 0)
(-0.0160948 0.0194399 0)
(-0.0170269 0.0189817 0)
(-0.0179542 0.018557 0)
(-0.0188882 0.0181739 0)
(-0.019842 0.0178412 0)
(-0.0208306 0.0175693 0)
(-0.0218723 0.0173708 0)
(-0.0229901 0.0172616 0)
(-0.0242131 0.0172614 0)
(-0.0255791 0.0173939 0)
(-0.0271369 0.0176861 0)
(-0.0289498 0.018166 0)
(-0.0310987 0.0188587 0)
(-0.0336866 0.019779 0)
(-0.036844 0.020921 0)
(-0.0407375 0.0222412 0)
(-0.0455716 0.0236107 0)
(-0.0515724 0.0247344 0)
(-0.0589791 0.0249116 0)
(-0.0681248 0.022305 0)
(-0.0783571 0.0118915 0)
(-0.0852257 -0.0150933 0)
(-0.0840939 -0.060204 0)
(-0.0779544 -0.110017 0)
(-0.0674078 -0.154309 0)
(-0.0504389 -0.180865 0)
(-0.0200623 -0.174916 0)
(-0.000480642 0.016028 0)
(-0.00186707 0.0221434 0)
(-0.00332687 0.023798 0)
(-0.0048378 0.0243606 0)
(-0.00632798 0.0244589 0)
(-0.00774687 0.0242955 0)
(-0.00908118 0.023968 0)
(-0.010329 0.0235347 0)
(-0.0114942 0.0230353 0)
(-0.0125842 0.0224989 0)
(-0.0136091 0.0219474 0)
(-0.01458 0.021398 0)
(-0.0155082 0.0208643 0)
(-0.0164047 0.0203572 0)
(-0.01728 0.0198859 0)
(-0.0181445 0.0194591 0)
(-0.0190086 0.0190857 0)
(-0.0198836 0.0187759 0)
(-0.0207819 0.0185425 0)
(-0.0217189 0.0184017 0)
(-0.0227134 0.0183747 0)
(-0.0237898 0.0184882 0)
(-0.0249794 0.0187752 0)
(-0.0263231 0.0192748 0)
(-0.0278734 0.0200304 0)
(-0.0296969 0.0210855 0)
(-0.0318761 0.0224776 0)
(-0.0345127 0.0242293 0)
(-0.0377277 0.0263283 0)
(-0.0416569 0.0286791 0)