/*--------------------------------*- C++ -*----------------------------------*\
  =========                 |
  \\      /  F ield         | OpenFOAM: The Open Source CFD Toolbox
   \\    /   O peration     | Website:  https://openfoam.org
    \\  /    A nd           | Version:  13
     \\/     M anipulation  |
\*---------------------------------------------------------------------------*/
FoamFile
{
    format      ascii;
    class       volVectorField;
    location    "0.5";
    object      U;
}
// * * * * * * * * * * * * * * * * * * * * * * * * * * * * * * * * * * * * * //

dimensions      [0 1 -1 0 0 0 0];

internalField   nonuniform List<vector> 
400
(
(-0.000244051 0.000245784 0)
(-0.000776476 0.000445925 0)
(-0.00164583 0.000532119 0)
(-0.00252231 0.000528257 0)
(-0.00335049 0.000482056 0)
(-0.00409309 0.000418829 0)
(-0.00472888 0.000347558 0)
(-0.00524435 0.000270457 0)
(-0.00562999 0.000187051 0)
(-0.00587241 9.79437e-05 0)
(-0.00596359 7.16588e-06 0)
(-0.00589666 -9.42904e-05 0)
(-0.00565848 -0.000198722 0)
(-0.00524564 -0.000306062 0)
(-0.00465634 -0.000413177 0)
(-0.00389832 -0.000513129 0)
(-0.00299566 -0.000590907 0)
(-0.00199772 -0.000614314 0)
(-0.000980022 -0.000529534 0)
(-0.000317277 -0.000312687 0)
(-0.000446209 0.000774997 0)
(-0.00115377 0.00114801 0)
(-0.00206458 0.00129927 0)
(-0.00297604 0.00129171 0)
(-0.00384525 0.00119597 0)
(-0.00463732 0.00105304 0)
(-0.0053251 0.000882316 0)
(-0.00588785 0.00069168 0)
(-0.00630977 0.000483604 0)
(-0.00657725 0.000259425 0)
(-0.00667874 2.0602e-05 0)
(-0.00660403 -0.000231921 0)
(-0.00634551 -0.000495222 0)
(-0.00589998 -0.000763157 0)
(-0.00527102 -0.00102508 0)
(-0.00447303 -0.00126204 0)
(-0.0035341 -0.00144124 0)
(-0.00249816 -0.00150762 0)
(-0.00142392 -0.00137855 0)
(-0.00054999 -0.000982736 0)
(-0.000561521 0.00165809 0)
(-0.00137124 0.0020689 0)
(-0.00231681 0.00221154 0)
(-0.00324348 0.00217969 0)
(-0.00412514 0.00202917 0)
(-0.0049337 0.00180003 0)
(-0.00564252 0.001517 0)
(-0.00622835 0.00119361 0)
(-0.00667253 0.000836734 0)
(-0.00695967 0.000450402 0)
(-0.00707655 3.7959e-05 0)
(-0.00701236 -0.0003969 0)
(-0.00675938 -0.00084726 0)
(-0.00631432 -0.00130112 0)
(-0.00568138 -0.00173867 0)
(-0.00487481 -0.00212899 0)
(-0.00391919 -0.0024271 0)
(-0.00284944 -0.00257253 0)
(-0.0017064 -0.00249224 0)
(-0.000690278 -0.00206935 0)
(-0.000613982 0.00261653 0)
(-0.00149755 0.00305833 0)
(-0.00250934 0.00317038 0)
(-0.003486 0.00309839 0)
(-0.00440793 0.00288784 0)
(-0.00525219 0.0025728 0)
(-0.00599532 0.00217885 0)
(-0.00661481 0.00172319 0)
(-0.0070914 0.00121639 0)
(-0.0074088 0.000665252 0)
(-0.00755269 7.52519e-05 0)
(-0.00751074 -0.000547204 0)
(-0.0072731 -0.00119151 0)
(-0.0068337 -0.00183992 0)
(-0.00619282 -0.00246439 0)
(-0.0053591 -0.00302406 0)
(-0.00434963 -0.00346512 0)
(-0.00319266 -0.00372357 0)
(-0.00192538 -0.00372506 0)
(-0.000777006 -0.00327598 0)
(-0.000648382 0.00363575 0)
(-0.00160122 0.00412295 0)
(-0.00270023 0.00420048 0)
(-0.00375681 0.00407738 0)
(-0.00474929 0.00379806 0)
(-0.00565551 0.00339197 0)
(-0.00645445 0.00288411 0)
(-0.00712545 0.00229386 0)
(-0.00765015 0.00163462 0)
(-0.00801227 0.000915351 0)
(-0.00819666 0.000143106 0)
(-0.00818894 -0.000673944 0)
(-0.00797552 -0.00152269 0)
(-0.00754481 -0.00238106 0)
(-0.00688941 -0.00321428 0)
(-0.00600852 -0.00397288 0)
(-0.00490993 -0.00459376 0)
(-0.00361842 -0.00500331 0)
(-0.00217727 -0.005109 0)
(-0.000868748 -0.00461869 0)
(-0.000689347 0.00472012 0)
(-0.00172139 0.00527697 0)
(-0.00292713 0.0053248 0)
(-0.00408844 0.00514402 0)
(-0.00517786 0.00478638 0)
(-0.0061708 0.00428073 0)
(-0.0070473 0.00365244 0)
(-0.00778875 0.00292273 0)
(-0.00837861 0.00210702 0)
(-0.00880158 0.00121548 0)
(-0.00904217 0.000255435 0)
(-0.00908377 -0.000765034 0)
(-0.00890795 -0.00183252 0)
(-0.00849522 -0.00292307 0)
(-0.00782703 -0.00399744 0)
(-0.00688898 -0.00499831 0)
(-0.0056758 -0.00585037 0)
(-0.00420684 -0.00646058 0)
(-0.00253257 -0.00669934 0)
(-0.00100328 -0.00614888 0)
(-0.000746767 0.0058889 0)
(-0.00187767 0.00654111 0)
(-0.00321323 0.0065665 0)
(-0.00450314 0.00632369 0)
(-0.00571308 0.00587795 0)
(-0.00681457 0.00526209 0)
(-0.00778807 0.00450418 0)
(-0.00861738 0.00362802 0)
(-0.00928883 0.0026507 0)
(-0.00978938 0.00158253 0)
(-0.0101043 0.000429281 0)
(-0.0102151 -0.000803644 0)
(-0.0100983 -0.00210587 0)
(-0.00972458 -0.00345535 0)
(-0.00906051 -0.00481196 0)
(-0.00807204 -0.00611235 0)
(-0.00673212 -0.00726639 0)
(-0.00504454 -0.00815078 0)
(-0.00305843 -0.00857667 0)
(-0.00121075 -0.00795794 0)
(-0.000824809 0.00717047 0)
(-0.00208081 0.00794186 0)
(-0.00357415 0.00795021 0)
(-0.00501787 0.00763982 0)
(-0.0063704 0.00709447 0)
(-0.00759924 0.00635542 0)
(-0.00868565 0.00545656 0)
(-0.00961701 0.00442577 0)
(-0.0103842 0.00328194 0)
(-0.0109785 0.00203447 0)
(-0.0113878 0.000685533 0)
(-0.0115938 -0.000765414 0)
(-0.0115682 -0.0023156 0)
(-0.0112713 -0.00395056 0)
(-0.0106511 -0.0056357 0)
(-0.00964538 -0.00730716 0)
(-0.00818972 -0.00886144 0)
(-0.00624991 -0.0101364 0)
(-0.00384752 -0.0108569 0)
(-0.00153227 -0.0101876 0)
(-0.000926598 0.00859908 0)
(-0.00233971 0.00951182 0)
(-0.00402437 0.00950412 0)
(-0.00564941 0.00911614 0)
(-0.00716561 0.00845533 0)
(-0.00853704 0.00757632 0)
(-0.0097474 0.00652263 0)
(-0.0107899 0.00532834 0)
(-0.0116628 0.00401467 0)
(-0.0123645 0.00258933 0)
(-0.012889 0.00104878 0)
(-0.0132213 -0.000617141 0)
(-0.0133319 -0.00241905 0)
(-0.0131717 -0.00435813 0)
(-0.0126682 -0.00641625 0)
(-0.0117211 -0.00854209 0)
(-0.0102053 -0.0106307 0)
(-0.00800684 -0.0124831 0)
(-0.00505454 -0.0137088 0)
(-0.00204271 -0.0130577 0)
(-0.00105696 0.0102153 0)
(-0.00266661 0.0112905 0)
(-0.00458288 0.011261 0)
(-0.00641932 0.0107772 0)
(-0.00811843 0.00997731 0)
(-0.0096424 0.00893551 0)
(-0.0109805 0.0077095 0)
(-0.0121353 0.0063422 0)
(-0.0131161 0.00485812 0)
(-0.013933 0.00326292 0)
(-0.0145909 0.00154562 0)
(-0.0150839 -0.000317198 0)
(-0.0153875 -0.00235531 0)
(-0.0154496 -0.00459641 0)
(-0.0151802 -0.00705568 0)
(-0.0144342 -0.00971942 0)
(-0.0129973 -0.0125143 0)
(-0.0106073 -0.0152383 0)
(-0.00694814 -0.0173811 0)
(-0.0028942 -0.0169231 0)
(-0.001225 0.01207 0)
(-0.00308203 0.0133269 0)
(-0.00527835 0.0132587 0)
(-0.00735762 0.0126473 0)
(-0.00925404 0.0116725 0)
(-0.0109314 0.0104359 0)
(-0.0123893 0.00901497 0)
(-0.0136449 0.00746418 0)
(-0.0147234 0.00581264 0)
(-0.0156516 0.0040643 0)
(-0.0164517 0.00220003 0)
(-0.0171356 0.000181047 0)
(-0.0176946 -0.00204572 0)
(-0.0180879 -0.0045467 0)
(-0.0182216 -0.00739259 0)
(-0.0179116 -0.0106483 0)
(-0.016833 -0.0143412 0)
(-0.0144839 -0.0183721 0)
(-0.0099591 -0.0222108 0)
(-0.00443626 -0.0224008 0)
(-0.00144791 0.0142337 0)
(-0.00362063 0.0156833 0)
(-0.00615333 0.0155397 0)
(-0.00850319 0.0147472 0)
(-0.0105991 0.0135435 0)
(-0.0124134 0.0120675 0)
(-0.0139643 0.010422 0)
(-0.0152893 0.0086755 0)
(-0.0164344 0.00686284 0)
(-0.0174488 0.00498788 0)
(-0.0183795 0.00302496 0)
(-0.0192652 0.000921165 0)
(-0.0201301 -0.00140258 0)
(-0.0209685 -0.00405714 0)
(-0.0217124 -0.00719189 0)
(-0.0221719 -0.0110065 0)
(-0.0219261 -0.0157496 0)
(-0.0201397 -0.0216604 0)
(-0.0145758 -0.0284971 0)
(-0.00764309 -0.0305404 0)
(-0.00175772 0.0168083 0)
(-0.00433839 0.0184384 0)
(-0.00726316 0.018146 0)
(-0.00989256 0.0170846 0)
(-0.0121608 0.0155727 0)
(-0.0140637 0.0137965 0)
(-0.0156483 0.0118888 0)
(-0.0169792 0.00993139 0)
(-0.0181273 0.00796624 0)
(-0.0191677 0.00599967 0)
(-0.0201778 0.00400387 0)
(-0.0212341 0.00191794 0)
(-0.022409 -0.000356968 0)
(-0.0237593 -0.00297147 0)
(-0.0252936 -0.00616334 0)
(-0.02689 -0.0103194 0)
(-0.0281368 -0.0160824 0)
(-0.0278064 -0.0244868 0)
(-0.0216168 -0.0361977 0)
(-0.013318 -0.0429549 0)
(-0.00221081 0.0199716 0)
(-0.00531142 0.0216867 0)
(-0.00865313 0.0210984 0)
(-0.0115135 0.0196267 0)
(-0.0138614 0.0176966 0)
(-0.0157436 0.0155433 0)
(-0.0172482 0.0133278 0)
(-0.0184713 0.0111432 0)
(-0.0195098 0.00903643 0)
(-0.0204634 0.00701844 0)
(-0.0214406 0.00506602 0)
(-0.0225572 0.00312204 0)
(-0.0239394 0.00108695 0)
(-0.025722 -0.00120848 0)
(-0.0280243 -0.00407462 0)
(-0.0308795 -0.00810656 0)
(-0.0339866 -0.0145247 0)
(-0.0356909 -0.0259234 0)
(-0.0301903 -0.045182 0)
(-0.0196001 -0.0622684 0)
(-0.002918 0.023862 0)
(-0.00663616 0.0254587 0)
(-0.0102823 0.0243122 0)
(-0.0131705 0.0222209 0)
(-0.0153584 0.0197441 0)
(-0.0170029 0.0171446 0)
(-0.0182188 0.0146058 0)
(-0.0191384 0.0121897 0)
(-0.0198898 0.00995187 0)
(-0.0205797 0.00791793 0)
(-0.0213363 0.00607583 0)
(-0.0222968 0.0043819 0)
(-0.0236185 0.00275331 0)
(-0.0254806 0.00102861 0)
(-0.0280565 -0.0011578 0)
(-0.0314657 -0.00469899 0)
(-0.0354325 -0.0116206 0)
(-0.0380254 -0.0262545 0)
(-0.0351708 -0.056336 0)
(-0.0193857 -0.0918436 0)
(-0.00394559 0.0291674 0)
(-0.00826898 0.0297837 0)
(-0.0117608 0.0275177 0)
(-0.0141188 0.024533 0)
(-0.0155722 0.0214469 0)
(-0.0166007 0.0183881 0)
(-0.0173087 0.0154798 0)
(-0.0177606 0.0128244 0)
(-0.0180255 0.0104663 0)
(-0.0182172 0.00843034 0)
(-0.0184662 0.00672947 0)
(-0.0189237 0.00533801 0)
(-0.0197437 0.00419057 0)
(-0.0210852 0.00313605 0)
(-0.0231249 0.00176248 0)
(-0.0259015 -0.00109612 0)
(-0.0291799 -0.00845213 0)
(-0.0303703 -0.0273379 0)
(-0.0319931 -0.0666236 0)
(-0.00920329 -0.126673 0)
(-0.00619583 0.0345064 0)
(-0.0102341 0.0337008 0)
(-0.0117019 0.029957 0)
(-0.0124413 0.0259439 0)
(-0.0127252 0.0222565 0)
(-0.0126515 0.0188716 0)
(-0.012338 0.0157071 0)
(-0.0118219 0.0128256 0)
(-0.0111585 0.010322 0)
(-0.0104516 0.00826782 0)
(-0.0098327 0.00670317 0)
(-0.00943346 0.00559707 0)
(-0.00934927 0.00486091 0)
(-0.00963879 0.00431927 0)
(-0.0103657 0.00350142 0)
(-0.011637 0.00104013 0)
(-0.0135999 -0.00652816 0)
(-0.0108339 -0.0276008 0)
(-0.0240451 -0.0698036 0)
(0.0025971 -0.147274 0)
(-0.00715789 0.0500353 0)
(-0.00794318 0.039269 0)
(-0.00662052 0.0318857 0)
(-0.00448607 0.0268979 0)
(-0.00215408 0.02258 0)
(0.00014961 0.0185922 0)
(0.00239537 0.014921 0)
(0.00458736 0.0116954 0)
(0.00669527 0.00904013 0)
(0.00866341 0.00702039 0)
(0.010413 0.00563833 0)
(0.0118637 0.0048114 0)
(0.0129932 0.00439446 0)
(0.013843 0.00417846 0)
(0.0143311 0.00371179 0)
(0.0143783 0.00167831 0)
(0.0125574 -0.00473121 0)
(0.0167547 -0.0227017 0)
(-0.0120422 -0.0645829 0)
(0.0218163 -0.148237 0)
(-0.00383417 0.0295887 0)
(-0.000384093 0.0188696 0)
(0.00883159 0.0153375 0)
(0.0177801 0.013203 0)
(0.0255993 0.011357 0)
(0.0322705 0.00964082 0)
(0.0379574 0.00810174 0)
(0.0427672 0.00672807 0)
(0.0467898 0.00551 0)
(0.0501111 0.00452262 0)
(0.0528375 0.00382328 0)
(0.0551033 0.00339377 0)
(0.0570111 0.00318349 0)
(0.0586768 0.00308532 0)
(0.0599418 0.0029122 0)
(0.0607495 0.00148614 0)
(0.0594243 -0.00271076 0)
(0.0594968 -0.0156963 0)
(0.0260213 -0.0500845 0)
(0.0581677 -0.115116 0)
(0.0499699 0.090515 0)
(0.0594826 0.0514439 0)
(0.0877417 0.0327988 0)
(0.106013 0.0251747 0)
(0.119294 0.0204032 0)
(0.130246 0.0159429 0)
(0.139244 0.0114284 0)
(0.146113 0.00738142 0)
(0.151002 0.00415948 0)
(0.154298 0.00176499 0)
(0.156542 0.000486037 0)
(0.158409 0.000400793 0)
(0.160248 0.000844483 0)
(0.162253 0.00123486 0)
(0.164061 0.0018027 0)
(0.165838 0.000860426 0)
(0.165019 -0.000403156 0)
(0.160669 -0.00534544 0)
(0.131135 -0.0203552 0)
(0.133184 -0.112999 0)
)
;

boundaryField
{
    movingWall
    {
        type            fixedValue;
        value           uniform (1 0 0);
    }
    fixedWalls
    {
        type            noSlip;
    }
    frontAndBack
    {
        type            empty;
    }
}


// ************************************************************************* //
