/*--------------------------------*- C++ -*----------------------------------*\
  =========                 |
  \\      /  F ield         | OpenFOAM: The Open Source CFD Toolbox
   \\    /   O peration     | Website:  https://openfoam.org
    \\  /    A nd           | Version:  13
     \\/     M anipulation  |
\*---------------------------------------------------------------------------*/
FoamFile
{
    format      ascii;
    class       volScalarField;
    location    "2.7";
    object      epsilon;
}
// * * * * * * * * * * * * * * * * * * * * * * * * * * * * * * * * * * * * * //

dimensions      [0 2 -3 0 0 0 0];

internalField   nonuniform List<scalar> 
6400
(
2.02045e-05
0.000102709
0.000237552
0.000383791
0.000516934
0.000631003
0.000731325
0.000826706
0.000925152
0.00103242
0.00115249
0.00128752
0.00143906
0.00160899
0.00179767
0.00200584
0.00223361
0.00247965
0.002741
0.0030143
0.00329914
0.00360434
0.00395175
0.00436048
0.00483744
0.00536719
0.00591667
0.00646977
0.00704006
0.00763922
0.00827383
0.00893905
0.00960279
0.0102572
0.0109023
0.0115394
0.0121809
0.0128309
0.0134997
0.0141928
0.0149181
0.0156796
0.0164848
0.0173408
0.0182416
0.0191897
0.0201887
0.0212724
0.0225012
0.0240331
0.0256187
0.0272211
0.0287974
0.0303157
0.0317264
0.0329731
0.0339916
0.0346462
0.0349605
0.0350483
0.0345585
0.0334846
0.0318537
0.0296914
0.0270389
0.0240015
0.0207371
0.017423
0.0141737
0.0110931
0.00831573
0.00611467
0.00431867
0.00291429
0.00188134
0.00116082
0.000681034
0.00037016
0.000163111
3.36169e-05
0.00010037
8.86459e-05
0.000133796
0.00019291
0.000250819
0.000305956
0.000360331
0.000417234
0.00048008
0.000552011
0.000635947
0.000734552
0.000850854
0.000988834
0.00115312
0.00134932
0.00158382
0.00186347
0.00219515
0.00258631
0.003046
0.00358564
0.00420831
0.00493617
0.00577487
0.00671313
0.00774577
0.008853
0.0099673
0.011048
0.0120405
0.0128925
0.0135953
0.0141576
0.0145877
0.014914
0.0151565
0.0153388
0.0154824
0.0156053
0.0157221
0.0158488
0.0159993
0.0161507
0.0163085
0.0164786
0.0166914
0.0169515
0.0172585
0.0176128
0.0180101
0.0184201
0.0188446
0.0192539
0.019634
0.0199545
0.020155
0.02023
0.0201881
0.0199708
0.0195205
0.018826
0.0178753
0.0166679
0.0152326
0.0136165
0.0118901
0.0101273
0.00840555
0.00679169
0.00534262
0.00413705
0.00312171
0.00227297
0.00158036
0.00103545
0.000627202
0.000343072
0.000173168
0.000174852
0.000228033
0.000153332
0.000175391
0.00021482
0.000259118
0.000308428
0.000365352
0.000433264
0.000516019
0.000618206
0.000744127
0.000899242
0.00109039
0.00132596
0.00161655
0.00197375
0.00240887
0.00293247
0.00355268
0.00427394
0.00509628
0.00601543
0.00702136
0.00806697
0.00908979
0.0100163
0.0107688
0.0113039
0.0117
0.0119785
0.0121998
0.012374
0.0124383
0.012424
0.0123232
0.0122174
0.0121023
0.0120005
0.0119208
0.0118818
0.0118695
0.0118923
0.0119627
0.0120946
0.0122941
0.0125599
0.0128734
0.0132389
0.013651
0.0141065
0.0146014
0.0151251
0.0156707
0.0162222
0.0167639
0.0172722
0.0177194
0.0180792
0.0182693
0.0183221
0.0181826
0.0177842
0.017097
0.0161241
0.0148952
0.0134555
0.0118658
0.0102021
0.00854048
0.00695735
0.00551792
0.0042729
0.00323175
0.00238548
0.00171318
0.00118616
0.000777631
0.000470444
0.00028961
0.000440032
0.000400137
0.000255892
0.000266129
0.00030045
0.00034858
0.000408911
0.000485123
0.000582088
0.00070567
0.00086263
0.00106166
0.00131283
0.0016278
0.00201957
0.00250106
0.00308384
0.00377536
0.00457464
0.00546846
0.00642875
0.00741251
0.00836351
0.00921583
0.00990738
0.0103855
0.0106773
0.0108227
0.0108894
0.0108803
0.01071
0.010482
0.010186
0.00992477
0.00973363
0.00956009
0.0094287
0.00933876
0.00929769
0.0092877
0.00932749
0.00941634
0.00955153
0.00973662
0.0099715
0.0102555
0.010587
0.0109643
0.0113887
0.0118592
0.0123746
0.0129326
0.0135288
0.0141576
0.014809
0.0154697
0.0161204
0.0167364
0.0172864
0.0177316
0.0179862
0.0180704
0.0179433
0.0175657
0.0168773
0.0158193
0.0144854
0.0129224
0.0112084
0.00943496
0.00770051
0.00609523
0.00468753
0.00351237
0.00257367
0.0018485
0.00130067
0.000888663
0.000583064
0.000415252
0.000701506
0.000627264
0.00039006
0.00038659
0.000423442
0.00048536
0.000568107
0.000676677
0.000818251
0.00100178
0.00123789
0.00153895
0.00191854
0.00239054
0.00296723
0.00365611
0.00445572
0.00535082
0.00630792
0.007274
0.0081815
0.00895807
0.00954678
0.0098892
0.0100487
0.0101047
0.0100403
0.00978001
0.009409
0.00905574
0.00872339
0.00843109
0.00816957
0.00796683
0.00781253
0.00769881
0.00764029
0.00761807
0.0076188
0.0076744
0.00776296
0.0078908
0.00805442
0.00825525
0.00849268
0.00876742
0.00908033
0.00943299
0.00982735
0.0102649
0.0107473
0.0112758
0.0118504
0.0124698
0.0131307
0.0138268
0.0145465
0.0152722
0.0159798
0.0166373
0.0172017
0.0175899
0.01775
0.0177221
0.0173702
0.0167482
0.0156495
0.0142186
0.0125259
0.0106648
0.0087553
0.00692431
0.00528103
0.00389766
0.00279951
0.00197022
0.00136698
0.000936802
0.000638391
0.000499316
0.000878207
0.000923642
0.000557046
0.000536088
0.000583429
0.000667832
0.000783876
0.00093796
0.00114001
0.00140234
0.00173891
0.00216436
0.00269222
0.00333211
0.00408565
0.00494132
0.00586946
0.00681973
0.0077234
0.0085018
0.00908846
0.00940143
0.00953111
0.00956075
0.00939093
0.0090083
0.00858572
0.00816436
0.00778156
0.00744471
0.00715602
0.00691828
0.00672757
0.00658511
0.0064825
0.00642278
0.00639686
0.00639095
0.00641673
0.00647529
0.00655701
0.00666533
0.00679796
0.00695589
0.00713927
0.00734954
0.00758849
0.00785872
0.00816339
0.0085062
0.0088912
0.00932302
0.00980608
0.0103441
0.0109399
0.0115944
0.0123066
0.0130708
0.0138749
0.0147001
0.015513
0.0162682
0.0169081
0.0172903
0.0174209
0.0172364
0.0167304
0.0156292
0.0141214
0.0122811
0.0102336
0.00814851
0.00619426
0.00450541
0.00315479
0.00214811
0.00144033
0.000963632
0.000659583
0.000542265
0.000958249
0.00130284
0.000759146
0.000719535
0.000784469
0.00090015
0.00106027
0.00127267
0.00154983
0.00190653
0.00235785
0.00291653
0.00358931
0.00437218
0.00524501
0.00616723
0.00707687
0.00789641
0.00854721
0.00893305
0.00909574
0.00913441
0.00896401
0.00855222
0.00807936
0.00762342
0.00719233
0.00680993
0.00648246
0.00620744
0.0059818
0.00580127
0.00566081
0.00555637
0.00548218
0.0054378
0.0054173
0.00541147
0.00542607
0.00546271
0.00551444
0.00558316
0.00566736
0.00576819
0.00588613
0.0060227
0.00617971
0.00635974
0.00656599
0.00680258
0.00707429
0.00738693
0.00774727
0.00816367
0.00864452
0.00919832
0.00983357
0.0105564
0.0113676
0.012262
0.0132294
0.0142415
0.0152519
0.0161886
0.0169345
0.017291
0.0173578
0.0169854
0.0159057
0.0142901
0.0122311
0.00992713
0.00761102
0.00550736
0.00377563
0.00247777
0.00158435
0.00101249
0.000674396
0.000558809
0.000971241
0.00177533
0.000999121
0.00094196
0.0010312
0.00118661
0.00140072
0.00168224
0.0020451
0.00250416
0.00307138
0.00375137
0.00453608
0.00539949
0.00629417
0.00715211
0.00789234
0.00842869
0.00868684
0.0087709
0.00867942
0.00831689
0.00782966
0.00733226
0.00685476
0.00642859
0.00605435
0.00573744
0.00547291
0.00525499
0.00507815
0.00493679
0.00482604
0.00474149
0.00467927
0.00463671
0.0046131
0.00460333
0.00460217
0.00461839
0.00464494
0.00468334
0.00473278
0.00479395
0.0048674
0.00495432
0.0050562
0.00517504
0.00531337
0.0054744
0.00566212
0.00588143
0.00613846
0.00644075
0.0067973
0.0072193
0.00771957
0.00831289
0.00901671
0.00984373
0.0108034
0.0118928
0.0130962
0.014372
0.0156399
0.0167726
0.017486
0.0177527
0.0175685
0.0164906
0.0146744
0.0123122
0.00967321
0.00708233
0.00482833
0.00308387
0.00187701
0.00112482
0.000708381
0.000568731
0.000966031
0.00234873
0.00128086
0.00120841
0.00132661
0.0015293
0.00180512
0.0021625
0.00261455
0.00317242
0.00383956
0.00460595
0.00544272
0.00629921
0.00710483
0.0077782
0.00821341
0.00839934
0.0084338
0.00820544
0.00776554
0.00724332
0.00672582
0.00624722
0.00582265
0.00545829
0.00514919
0.00489181
0.00467876
0.00450391
0.00436178
0.00424751
0.00415709
0.00408708
0.00403469
0.00399769
0.00397536
0.00396508
0.00396236
0.00397151
0.00399069
0.00401901
0.00405646
0.00410331
0.00416
0.00422734
0.00430643
0.00439869
0.0045059
0.0046303
0.0047746
0.00494211
0.00513684
0.00536364
0.00562889
0.00594066
0.00630958
0.00675001
0.00728139
0.00792758
0.0087161
0.0096797
0.0108383
0.0121887
0.0137068
0.0153083
0.016838
0.0179486
0.0184231
0.0184205
0.0172618
0.0151626
0.0123965
0.00935588
0.00648204
0.00412029
0.00242708
0.00136322
0.000791395
0.000593464
0.000984883
0.00304871
0.00161483
0.00152167
0.00167184
0.00192681
0.00226832
0.00270223
0.00323759
0.00387735
0.00461135
0.00541069
0.00622486
0.00698403
0.007608
0.00797956
0.00812002
0.00810248
0.00778995
0.00730749
0.00677404
0.00624428
0.00576378
0.00534263
0.00498295
0.00468024
0.00442737
0.0042181
0.00404567
0.00390478
0.00379088
0.00370015
0.00362946
0.00357613
0.00353785
0.00351368
0.00350233
0.00349887
0.00350356
0.00351969
0.00354335
0.00357515
0.0036148
0.00366256
0.0037188
0.00378416
0.00385949
0.00394582
0.00404443
0.00415691
0.00428508
0.00443109
0.00459748
0.00478726
0.00500421
0.00525299
0.00553978
0.00587297
0.00626374
0.0067301
0.00729994
0.00801402
0.00892708
0.0100918
0.0115394
0.0132648
0.0151896
0.0171275
0.0186541
0.0193494
0.0194207
0.0181094
0.0156002
0.0123249
0.00885177
0.00574229
0.00336804
0.00181684
0.000970432
0.000655496
0.00105869
0.00387447
0.00200105
0.00188043
0.00206407
0.0023733
0.00277966
0.00328353
0.00388627
0.00457866
0.00533372
0.00610337
0.00682021
0.00740588
0.00774234
0.00786309
0.00779332
0.00745242
0.00695103
0.0064032
0.00586878
0.00538305
0.00496248
0.00460475
0.00430499
0.0040555
0.00384917
0.00367984
0.00354198
0.00343125
0.00334388
0.00327675
0.00322707
0.00319241
0.00317254
0.00316399
0.00316226
0.00317007
0.00318658
0.00321078
0.00324164
0.00327938
0.00332392
0.0033756
0.00343486
0.00350237
0.00357896
0.00366565
0.00376363
0.0038743
0.00399918
0.00413994
0.00429841
0.00447654
0.0046765
0.00490073
0.0051523
0.00543538
0.00575614
0.00612411
0.00655268
0.00706116
0.00768983
0.00851672
0.00964279
0.0111485
0.0130506
0.0152942
0.017664
0.0195809
0.0204397
0.0205127
0.0188821
0.015796
0.0119309
0.00805349
0.00483166
0.00258908
0.00131003
0.000790233
0.00122921
0.00480838
0.00243373
0.0022802
0.00249679
0.00285871
0.00332372
0.0038837
0.00452916
0.0052362
0.00596088
0.00663993
0.00719793
0.00751742
0.00762785
0.00753344
0.00718141
0.00668426
0.00612477
0.00558195
0.00509036
0.004665
0.00430615
0.00400634
0.00375822
0.00355407
0.00338757
0.0032533
0.00314666
0.00306379
0.00300136
0.00295626
0.00292587
0.00291031
0.00290433
0.00290385
0.00291318
0.00292946
0.00295214
0.00298058
0.0030146
0.00305438
0.00310016
0.00315245
0.00321191
0.00327937
0.00335584
0.00344248
0.00354062
0.00365171
0.00377733
0.00391912
0.00407875
0.00425787
0.00445799
0.00468049
0.00492661
0.00519763
0.00549545
0.0058236
0.006189
0.00660434
0.00708485
0.0076646
0.00841287
0.00946627
0.0109993
0.0130607
0.0156274
0.0184462
0.0206977
0.021647
0.0216082
0.019369
0.0155476
0.0110581
0.00690717
0.00377936
0.00187669
0.00104207
0.00154461
0.0058321
0.00290671
0.00271387
0.00296029
0.00336945
0.0038818
0.00447801
0.00513569
0.00581602
0.00646122
0.00699996
0.00731647
0.00742396
0.00733172
0.00698838
0.00649273
0.00593098
0.00537542
0.00487339
0.00443937
0.00407442
0.00377162
0.00352221
0.00331857
0.00315378
0.00302223
0.002919
0.0028399
0.00278119
0.00273943
0.00271171
0.00269759
0.00269206
0.0026913
0.00269818
0.00271134
0.00272932
0.00275195
0.00277909
0.00281093
0.00284785
0.0028904
0.00293929
0.0029954
0.00305976
0.00313352
0.00321802
0.00331476
0.00342537
0.00355161
0.00369536
0.00385849
0.00404281
0.00424992
0.00448105
0.00473687
0.00501743
0.00532218
0.0056505
0.00600295
0.0063836
0.00680315
0.00727576
0.00783016
0.00853827
0.00954039
0.0110809
0.0133101
0.0162107
0.0194825
0.0219649
0.0229305
0.0224662
0.0193535
0.01464
0.00962006
0.00545894
0.00272854
0.00144071
0.00201582
0.00692049
0.00341134
0.00317192
0.00344237
0.00388974
0.00443401
0.00504269
0.00568005
0.00629456
0.00682016
0.00714467
0.00725554
0.00718425
0.00686243
0.00637674
0.0058117
0.00524426
0.00472529
0.00427734
0.00390145
0.00359128
0.0033376
0.00313182
0.00296675
0.0028361
0.00273457
0.00265748
0.0026006
0.00256012
0.00253279
0.00251675
0.00250933
0.0025069
0.00250792
0.00251515
0.00252596
0.0025403
0.00255823
0.00258
0.00260608
0.00263707
0.00267371
0.00271685
0.00276748
0.00282672
0.00289583
0.00297625
0.00306957
0.00317761
0.00330235
0.00344596
0.00361072
0.00379892
0.00401272
0.00425388
0.00452354
0.00482182
0.00514759
0.00549833
0.00587034
0.00626043
0.00666944
0.00710636
0.00758484
0.00813173
0.00882815
0.00982327
0.0113914
0.0138267
0.0171022
0.0208397
0.0233292
0.0241256
0.0228329
0.0185518
0.0129326
0.00767153
0.00390844
0.00200908
0.00263134
0.00804027
0.00393652
0.00364309
0.0039293
0.00440301
0.00496116
0.00555725
0.00614334
0.00665901
0.00699951
0.00712151
0.00708563
0.00679663
0.00632958
0.00576485
0.00518314
0.00464331
0.00417427
0.00378175
0.00345918
0.00319711
0.00298604
0.00281789
0.00268579
0.00258374
0.00250654
0.00244944
0.00240818
0.00237923
0.00235974
0.00234737
0.00234009
0.00233662
0.00233556
0.00233772
0.00234281
0.00235063
0.00236175
0.00237655
0.00239572
0.00241993
0.00245
0.00248681
0.00253135
0.00258472
0.00264817
0.00272315
0.00281128
0.00291448
0.00303489
0.00317496
0.00333739
0.00352506
0.0037409
0.00398764
0.0042675
0.00458169
0.0049299
0.00530977
0.00571655
0.00614323
0.006582
0.00702939
0.00749298
0.00798564
0.00854004
0.00924118
0.0102614
0.0119287
0.0146421
0.0183695
0.0225518
0.0246777
0.025118
0.0223898
0.0167299
0.0104423
0.00546279
0.00276296
0.00335665
0.00916785
0.00447019
0.00411479
0.0044068
0.00489322
0.00544639
0.00600603
0.00651456
0.0068799
0.0070252
0.00702389
0.00678353
0.00634518
0.0057868
0.00519117
0.00462582
0.00412916
0.00371259
0.0033717
0.00309627
0.00287591
0.00270143
0.00256506
0.00246009
0.00238059
0.00232131
0.00227752
0.00224531
0.00222161
0.00220396
0.00219048
0.0021799
0.0021715
0.00216503
0.00216129
0.00215983
0.00216033
0.00216465
0.0021728
0.00218564
0.00220376
0.00222793
0.00225898
0.00229779
0.00234538
0.00240292
0.00247175
0.00255348
0.00265
0.00276355
0.00289674
0.00305261
0.00323454
0.00344625
0.00369153
0.00397398
0.00429651
0.00466064
0.00506567
0.00550783
0.00597965
0.00646993
0.00696529
0.00745698
0.00795199
0.00846242
0.00903013
0.00975771
0.0108456
0.012709
0.0158358
0.0201753
0.024379
0.0260537
0.0255924
0.02077
0.0137761
0.00743744
0.00371748
0.0041485
0.0102683
0.00500028
0.00457495
0.0048615
0.00534627
0.00587617
0.00637788
0.00677906
0.00696832
0.00698917
0.00681442
0.00641611
0.00587356
0.00526769
0.00467416
0.00414297
0.00369438
0.00332768
0.00303293
0.00279846
0.00261381
0.00247007
0.00235959
0.00227571
0.00221255
0.00216492
0.00212849
0.00209995
0.00207676
0.00205707
0.00203969
0.002024
0.00200985
0.00199743
0.00198716
0.00197921
0.001975
0.00197371
0.00197618
0.00198405
0.00199742
0.00201691
0.00204321
0.00207709
0.00211943
0.00217127
0.00223382
0.00230857
0.00239735
0.00250236
0.00262625
0.00277222
0.00294401
0.00314589
0.00338262
0.00365913
0.00398018
0.00434963
0.00476949
0.00523869
0.00575173
0.00629764
0.00685956
0.00741645
0.00795134
0.00846622
0.00899118
0.00959725
0.0103694
0.0115823
0.0137594
0.0174327
0.0224633
0.0262291
0.0272612
0.0246452
0.0176091
0.00988668
0.0048908
0.00496805
0.0113123
0.00551485
0.00501228
0.00528176
0.00575124
0.00624233
0.00666949
0.00692083
0.00698251
0.00687598
0.00653252
0.00601901
0.00541137
0.00479054
0.00421928
0.00372995
0.00332868
0.00300717
0.00275278
0.00255341
0.00239874
0.00228001
0.00218964
0.00212104
0.00206852
0.00202728
0.00199368
0.00196507
0.00193956
0.00191596
0.00189372
0.00187273
0.0018532
0.00183554
0.00182022
0.00180774
0.00179887
0.00179455
0.00179343
0.00179737
0.00180738
0.00182337
0.00184596
0.00187577
0.00191353
0.00196013
0.00201666
0.00208446
0.0021652
0.00226097
0.00237434
0.00250849
0.00266729
0.00285533
0.00307797
0.00334123
0.00365149
0.00401492
0.00443664
0.00491928
0.00546129
0.00605501
0.00668504
0.00732763
0.00795322
0.00853889
0.0090665
0.0095867
0.0102312
0.0110851
0.0125137
0.0152316
0.0196624
0.0252349
0.0278407
0.0277739
0.0217432
0.0128736
0.00628907
0.0058109
0.0122751
0.00600328
0.00541703
0.00565826
0.00610049
0.00654124
0.00686388
0.00698776
0.00694191
0.00667894
0.00621339
0.00561817
0.00497661
0.00436295
0.0038247
0.00337886
0.00302152
0.00273995
0.00252033
0.00235054
0.00222041
0.00212125
0.00204564
0.00198723
0.00194073
0.00190206
0.00186832
0.00183754
0.00180851
0.00178064
0.00175386
0.00172839
0.00170466
0.00168317
0.00166444
0.00164898
0.0016373
0.00163057
0.00162798
0.00162905
0.00163671
0.00165014
0.00166983
0.00169629
0.00173011
0.00177205
0.00182305
0.0018843
0.00195729
0.00204393
0.00214663
0.00226841
0.00241305
0.0025852
0.00279048
0.00303555
0.00332795
0.00367579
0.00408703
0.00456822
0.00512263
0.00574777
0.00643267
0.00715549
0.00788256
0.00857193
0.00921382
0.00974298
0.0102549
0.0109405
0.0119312
0.0137223
0.017237
0.022738
0.0278828
0.0293807
0.0258314
0.0164394
0.00795585
0.00666678
0.0131354
0.00645652
0.0057813
0.0059839
0.00638765
0.0067657
0.00696897
0.00699598
0.00683508
0.00643943
0.00587895
0.00523086
0.0045786
0.00398584
0.00348508
0.00308109
0.00276325
0.00251639
0.00232631
0.00218096
0.00207031
0.00198585
0.00192043
0.00186815
0.0018244
0.00178586
0.00175039
0.00171668
0.00168409
0.0016525
0.00162215
0.00159346
0.00156693
0.00154306
0.00152235
0.00150523
0.0014921
0.00148387
0.00148033
0.00147989
0.0014857
0.0014972
0.00151456
0.00153819
0.0015686
0.00160643
0.00165247
0.00170777
0.00177365
0.00185181
0.00194442
0.00205429
0.00218494
0.00234086
0.00252763
0.0027521
0.00302245
0.00334811
0.00373931
0.00420611
0.00475672
0.0053949
0.00611653
0.00690584
0.00773243
0.0085502
0.00930343
0.0099633
0.0104859
0.0109861
0.0117491
0.0129702
0.0154212
0.0200003
0.0266523
0.0299986
0.0293582
0.0205622
0.00999148
0.0076098
0.0138886
0.00686863
0.0060999
0.00625531
0.00661349
0.00690979
0.00702231
0.00696016
0.00667132
0.00617542
0.00554546
0.00486756
0.00422075
0.00365645
0.00319383
0.00282846
0.00254543
0.00232838
0.002163
0.00203742
0.00194179
0.0018679
0.00180906
0.00176
0.00171691
0.00167724
0.00163951
0.00160297
0.00156744
0.0015331
0.00150036
0.00146969
0.00144159
0.00141651
0.00139486
0.00137699
0.00136319
0.001354
0.00134971
0.00134868
0.00135295
0.00136284
0.00137821
0.00139939
0.0014268
0.00146098
0.00150264
0.00155266
0.00161221
0.00168278
0.00176631
0.0018653
0.00198298
0.00212351
0.0022922
0.00249574
0.00274247
0.00304246
0.00340743
0.00385016
0.0043832
0.00501646
0.00575361
0.00658725
0.00749382
0.00842975
0.00933175
0.0101517
0.0107867
0.011274
0.0117616
0.0126754
0.0143402
0.0179166
0.0240608
0.0301054
0.031663
0.0250858
0.0125415
0.0087795
0.0145271
0.00723565
0.00636963
0.00647023
0.00677513
0.00698329
0.00702129
0.00687059
0.00647683
0.00590123
0.0052238
0.00453372
0.00390283
0.00337034
0.0029443
0.00261367
0.00236093
0.00216916
0.00202414
0.00191421
0.00182983
0.00176323
0.00170834
0.00166065
0.0016171
0.00157587
0.00153601
0.00149723
0.00145962
0.00142355
0.00138945
0.00135782
0.00132906
0.00130357
0.00128163
0.00126351
0.00124942
0.0012396
0.00123477
0.00123331
0.00123626
0.0012447
0.00125827
0.00127723
0.00130195
0.0013329
0.00137067
0.00141606
0.00147007
0.00153401
0.00160958
0.00169899
0.00180512
0.00193175
0.00208376
0.00226748
0.00249097
0.00276442
0.00310023
0.00351297
0.00401853
0.00463228
0.00536572
0.00622133
0.00718594
0.00822389
0.00927248
0.0102454
0.0110773
0.0116676
0.0120961
0.0126295
0.0138305
0.0163294
0.0215292
0.0291917
0.0327677
0.0296506
0.0157418
0.0102893
0.0150328
0.00755375
0.00658961
0.00662892
0.00687437
0.00700565
0.00698794
0.00673793
0.00626332
0.00562776
0.00492084
0.00423135
0.00362258
0.00312251
0.00273036
0.00243048
0.00220381
0.00203324
0.00190475
0.00180699
0.00173083
0.00166909
0.00161641
0.00156902
0.0015246
0.00148189
0.00144038
0.00140008
0.00136124
0.00132429
0.00128965
0.00125775
0.00122892
0.00120344
0.00118154
0.00116339
0.00114913
0.0011389
0.00113348
0.0011316
0.00113332
0.00114036
0.00115223
0.00116914
0.00119141
0.00121945
0.00125379
0.00129513
0.00134433
0.00140255
0.00147126
0.0015524
0.00164852
0.00176298
0.00190018
0.00206592
0.0022678
0.00251564
0.00282192
0.00320204
0.00367409
0.0042577
0.0049713
0.00582728
0.00682464
0.00794006
0.00911919
0.0102722
0.0113081
0.0120694
0.0125546
0.0129262
0.013678
0.0154281
0.0195205
0.0270464
0.0331448
0.0335324
0.0196868
0.0120904
0.0154014
0.00782374
0.00675851
0.0067351
0.00691486
0.00699225
0.00690822
0.00657967
0.00604068
0.00536256
0.0046404
0.00396032
0.0033768
0.00290808
0.00254661
0.00227362
0.00206918
0.00191622
0.001801
0.00171256
0.00164231
0.00158374
0.00153219
0.00148463
0.00143933
0.00139549
0.00135291
0.00131176
0.00127239
0.0012352
0.00120056
0.00116881
0.0011402
0.00111494
0.00109318
0.00107504
0.00106061
0.00104999
0.00104387
0.00104152
0.00104208
0.0010477
0.00105793
0.00107291
0.00109291
0.00111833
0.00114962
0.0011874
0.00123244
0.00128574
0.00134859
0.00142268
0.00151025
0.00161426
0.00173861
0.00188856
0.00207105
0.0022953
0.00257338
0.00292078
0.0033567
0.00390366
0.00458567
0.00542413
0.00643067
0.00759678
0.00888188
0.0102031
0.0114357
0.0124448
0.0130732
0.0134014
0.0137989
0.0150205
0.017973
0.024538
0.0331844
0.0360337
0.0245115
0.0140304
0.0156385
0.00804854
0.00687734
0.0067937
0.00690908
0.00694625
0.00679218
0.0064039
0.0058166
0.00511067
0.00438416
0.00371919
0.00316193
0.00272255
0.00238844
0.00213873
0.00195311
0.00181465
0.00170998
0.00162863
0.0015626
0.00150607
0.00145508
0.00140723
0.00136127
0.00131673
0.00127362
0.00123218
0.00119277
0.00115575
0.00112141
0.00109002
0.00106175
0.00103675
0.00101512
0.000996939
0.000982288
0.000971242
0.000964271
0.000961251
0.000960873
0.000965016
0.000973642
0.000986784
0.00100469
0.00102771
0.00105627
0.00109091
0.00113233
0.0011814
0.00123926
0.00130738
0.00138771
0.00148284
0.00159624
0.00173255
0.00189807
0.00210126
0.00235347
0.00266971
0.00306941
0.00357667
0.00421948
0.00502675
0.00602192
0.00721234
0.00857489
0.0100402
0.0114806
0.0127614
0.0136068
0.0140121
0.0142535
0.0149181
0.0170342
0.0223707
0.0320301
0.0374263
0.029883
0.016154
0.0157448
0.0082285
0.00695233
0.00680801
0.00687474
0.00686038
0.00665274
0.00621799
0.00559668
0.00487513
0.00415236
0.00350589
0.00297452
0.00256197
0.00225194
0.00202226
0.00185244
0.00172586
0.00162954
0.00155356
0.00149056
0.00143538
0.0013847
0.00133664
0.00129031
0.00124547
0.00120225
0.00116092
0.00112179
0.00108517
0.00105128
0.00102031
0.000992377
0.00096759
0.000946017
0.000927725
0.000912777
0.000901247
0.000893298
0.000889403
0.000888342
0.000890993
0.000898061
0.000909463
0.000925415
0.000946235
0.000972322
0.00100418
0.00104242
0.00108783
0.00114141
0.00120447
0.00127869
0.00136635
0.00147047
0.00159518
0.00174609
0.00193085
0.00215994
0.00244756
0.00281266
0.00327985
0.00387956
0.00464636
0.00561397
0.00680534
0.00821724
0.00980136
0.011447
0.0129762
0.014123
0.0146573
0.014866
0.0151679
0.0165964
0.0208138
0.030032
0.0380423
0.0352066
0.0183087
0.0157274
0.00836711
0.00699194
0.00679126
0.00680434
0.00674622
0.00649651
0.00602773
0.00538485
0.00465757
0.00394434
0.00331807
0.00281134
0.0024229
0.00213388
0.00192129
0.00176468
0.00164777
0.00155806
0.00148617
0.00142538
0.00137116
0.00132073
0.00127261
0.0012262
0.0011814
0.00113838
0.0010974
0.00105874
0.00102262
0.000989206
0.000958636
0.000930994
0.000906348
0.000884752
0.000866261
0.000850934
0.000838838
0.000830053
0.000825163
0.000823429
0.000824671
0.00083024
0.000839994
0.000854119
0.00087291
0.000896745
0.000926088
0.000961512
0.00100373
0.00105363
0.00111236
0.00118142
0.00126279
0.00135912
0.00147403
0.00161249
0.00178137
0.0019902
0.00225215
0.00258528
0.00301386
0.00356939
0.00429026
0.00521845
0.00639092
0.00782409
0.00949161
0.0113002
0.0130737
0.0145865
0.0153496
0.0155985
0.0156951
0.0164586
0.0195335
0.0278028
0.0382404
0.0397414
0.0202667
0.0156357
0.00847111
0.00699902
0.00674456
0.00670784
0.0066109
0.00632908
0.00583753
0.00518371
0.00445858
0.00375892
0.00315336
0.00266949
0.00230244
0.00203156
0.00183346
0.00168784
0.00157879
0.0014943
0.00142557
0.00136646
0.00131299
0.00126284
0.00121485
0.00116859
0.00112406
0.00108144
0.00104096
0.00100284
0.000967242
0.000934291
0.000904075
0.000876655
0.000852081
0.000830399
0.000811659
0.00079592
0.000783247
0.000773716
0.000767796
0.000765381
0.000765368
0.000769505
0.000777708
0.000790126
0.000807036
0.000828799
0.000855855
0.000888743
0.000928122
0.000974805
0.00102982
0.0010945
0.00117056
0.00126035
0.00136702
0.00149497
0.00165031
0.00184162
0.00208096
0.00238522
0.00277777
0.0032901
0.00396276
0.00484388
0.00598266
0.00741495
0.00913966
0.011089
0.0131004
0.0149387
0.0160449
0.0163941
0.0164094
0.0166557
0.0188393
0.0256739
0.038076
0.0430741
0.0218327
0.0154491
0.00854916
0.00698802
0.00666728
0.00658921
0.00646003
0.00615509
0.00565068
0.00499484
0.00427803
0.00359462
0.00300948
0.00254645
0.00219812
0.00194278
0.00175687
0.00162034
0.00151767
0.00143734
0.00137108
0.0013133
0.00126049
0.00121069
0.00116297
0.00111704
0.00107295
0.00103085
0.00099093
0.000953365
0.000918272
0.000885737
0.000855821
0.000828568
0.000804021
0.000782223
0.000763225
0.000747087
0.000733882
0.0007237
0.000716743
0.000713393
0.000712623
0.000715373
0.000722126
0.000732956
0.000748118
0.000767959
0.000792906
0.000823477
0.000860295
0.00090412
0.000955892
0.0010168
0.00108837
0.00117266
0.00127244
0.00139156
0.00153544
0.00171175
0.00193143
0.00221008
0.00256977
0.0030412
0.00366566
0.00449533
0.00558914
0.00700056
0.00875376
0.01081
0.0130336
0.0151769
0.0166992
0.0172575
0.0172709
0.0172009
0.0185399
0.0241317
0.0367632
0.0450487
0.0228513
0.0151985
0.008607
0.00695858
0.00657203
0.00645431
0.00629853
0.00597832
0.00546951
0.00481904
0.00411533
0.00344988
0.00288437
0.00244002
0.00210789
0.00186572
0.00168999
0.00156093
0.00146343
0.00138641
0.00132213
0.00126545
0.00121326
0.00116388
0.00111656
0.00107109
0.00102752
0.000985996
0.000946661
0.000909639
0.000875018
0.000842858
0.000813201
0.000786085
0.000761549
0.000739637
0.000720402
0.000703907
0.000690223
0.000679438
0.000671653
0.000667377
0.000665953
0.00066747
0.000672892
0.000682253
0.00069579
0.00071384
0.000736822
0.000765242
0.000799708
0.000840944
0.000889829
0.000947448
0.00101518
0.00109483
0.00118883
0.00130057
0.00143482
0.0015984
0.00180117
0.00205738
0.00238762
0.00282125
0.00339921
0.00417587
0.00521752
0.00659295
0.00835093
0.0104829
0.0128779
0.0152947
0.0172827
0.0181419
0.018215
0.0179102
0.0184744
0.0229648
0.0351955
0.0459285
0.0233294
0.014875
0.00864459
0.00691013
0.00646275
0.00630805
0.0061306
0.00580179
0.00529566
0.00465654
0.0039696
0.00332309
0.00277613
0.00234833
0.00203003
0.00179888
0.00163155
0.00150859
0.00141525
0.00134091
0.00127823
0.0012225
0.00117093
0.00112203
0.0010752
0.00103026
0.000987269
0.000946333
0.000907571
0.000871069
0.00083689
0.000805074
0.000775657
0.000748673
0.00072416
0.000702166
0.000682745
0.00066596
0.000651882
0.000640587
0.000632164
0.000627034
0.000625013
0.000625491
0.00062971
0.000637726
0.000649758
0.000666134
0.000687271
0.000713673
0.000745942
0.000784787
0.000831052
0.000885755
0.000950153
0.00102586
0.00111502
0.00122061
0.0013468
0.00149966
0.00168801
0.00192477
0.00222896
0.00262827
0.00316246
0.00388657
0.00487186
0.00619989
0.00794288
0.0101253
0.0126691
0.0153383
0.0177697
0.0190377
0.0192666
0.018797
0.0187809
0.0220618
0.0335423
0.0461754
0.0235114
0.0144965
0.00866572
0.00685108
0.00634416
0.00615478
0.00595974
0.00562781
0.00513013
0.00450716
0.00383978
0.00321274
0.00268311
0.00226979
0.00196312
0.00174103
0.00158053
0.00146249
0.0013725
0.0013003
0.00123896
0.00118408
0.00113311
0.00108475
0.00103845
0.000994091
0.000951692
0.000911348
0.000873143
0.00083714
0.000803381
0.000771899
0.000742723
0.000715888
0.000691435
0.000669414
0.000649881
0.000632897
0.000618531
0.000606854
0.000597948
0.000592078
0.000589451
0.000589162
0.000592302
0.000599096
0.000609744
0.000624561
0.000643961
0.000668454
0.000698645
0.000735246
0.000779089
0.000831152
0.000892611
0.00096493
0.00105002
0.00115048
0.00126999
0.00141388
0.00159002
0.00181009
0.00209148
0.00246006
0.00295384
0.00362731
0.00455456
0.00582698
0.00753776
0.00974509
0.0124128
0.0153424
0.0181338
0.0198988
0.0203748
0.019785
0.0193697
0.0215597
0.0318477
0.0459333
0.0235502
0.0140767
0.00867762
0.00678604
0.00622047
0.0059982
0.00578886
0.00545817
0.00497352
0.00437047
0.00372475
0.00311738
0.00260385
0.00220306
0.00190598
0.00169119
0.00153612
0.00142196
0.00133461
0.00126415
0.00120392
0.0011498
0.00109943
0.00105163
0.00100592
0.000962146
0.000920348
0.000880589
0.000842927
0.000807409
0.000774064
0.00074292
0.000714005
0.000687356
0.000663016
0.000641038
0.000621477
0.000604394
0.000589852
0.000577919
0.00056867
0.000562202
0.000558957
0.000558156
0.00056036
0.000566068
0.000575455
0.000588827
0.000606597
0.000629279
0.000657492
0.000691962
0.00073353
0.00078316
0.000841983
0.000911354
0.000992991
0.00108919
0.00120317
0.00133963
0.00150555
0.00171139
0.00197302
0.00231437
0.0027714
0.00339712
0.00426664
0.00547836
0.00714329
0.00935133
0.0121084
0.0152571
0.0184168
0.0207094
0.0214763
0.0209799
0.0201191
0.0213445
0.0302603
0.0450631
0.0234259
0.0136315
0.0086805
0.00671817
0.00609517
0.00584144
0.00562032
0.00529418
0.00482607
0.00424582
0.00362336
0.00303571
0.00253709
0.00214702
0.00185768
0.00164856
0.00149764
0.00138644
0.00130114
0.00123204
0.00117275
0.00111933
0.00106956
0.00102234
0.000977209
0.000934042
0.000892844
0.00085366
0.000816534
0.000781497
0.000748572
0.000717785
0.000689164
0.000662749
0.000638585
0.000616726
0.000597226
0.000580143
0.000565533
0.000553451
0.000543959
0.000537121
0.000533331
0.000532111
0.000533544
0.000538304
0.000546559
0.000558604
0.000574852
0.000595822
0.000622152
0.000654589
0.000693997
0.000741355
0.000797774
0.000864545
0.000943239
0.0010359
0.00114535
0.0012757
0.00143311
0.00162696
0.0018716
0.00218907
0.00261305
0.00319447
0.00400799
0.00515651
0.00676571
0.00895532
0.0117751
0.0151121