/*--------------------------------*- C++ -*----------------------------------*\
  =========                 |
  \\      /  F ield         | OpenFOAM: The Open Source CFD Toolbox
   \\    /   O peration     | Website:  https://openfoam.org
    \\  /    A nd           | Version:  13
     \\/     M anipulation  |
\*---------------------------------------------------------------------------*/
FoamFile
{
    format      ascii;
    class       volScalarField;
    location    "2.7";
    object      p;
}
// * * * * * * * * * * * * * * * * * * * * * * * * * * * * * * * * * * * * * //

dimensions      [0 2 -2 0 0 0 0];

internalField   nonuniform List<scalar> 
6400
(
-1.00222e-08
8.62614e-06
5.6195e-06
-1.3901e-05
-5.12949e-05
-0.000104142
-0.000168385
-0.000240177
-0.000316844
-0.00039698
-0.000480253
-0.000567334
-0.00065944
-0.000758027
-0.000864929
-0.000981984
-0.001111
-0.00125376
-0.00141175
-0.00158602
-0.00177741
-0.00198683
-0.0022155
-0.0024655
-0.00274019
-0.00304085
-0.00336598
-0.0037126
-0.00407308
-0.00443319
-0.00478436
-0.00512386
-0.00544641
-0.00574667
-0.00601986
-0.00626084
-0.00646421
-0.00662389
-0.00673322
-0.00678523
-0.00677287
-0.00668917
-0.00652763
-0.00628294
-0.00595145
-0.0055316
-0.00502302
-0.00442132
-0.00372124
-0.00293496
-0.00207507
-0.00114665
-0.000164344
0.00085637
0.00189451
0.0029267
0.00392599
0.00486338
0.00570711
0.00642539
0.00699094
0.00738319
0.00759087
0.00761366
0.00746315
0.0071601
0.00674615
0.00626397
0.00576001
0.00527881
0.00485034
0.004499
0.00424218
0.00406727
0.00395946
0.00390513
0.00388813
0.0038939
0.00391179
0.00393028
-7.33481e-06
1.10286e-06
-3.35734e-06
-2.41711e-05
-6.18746e-05
-0.000113862
-0.000176115
-0.000245084
-0.000318384
-0.000394984
-0.000474768
-0.000558152
-0.000646333
-0.000740794
-0.000843274
-0.000955708
-0.00107977
-0.00121704
-0.00136895
-0.00153622
-0.00171938
-0.00191952
-0.00213773
-0.00237493
-0.00263255
-0.00291335
-0.00321964
-0.00355159
-0.00390628
-0.00427575
-0.0046459
-0.00500532
-0.00534825
-0.00566967
-0.00596446
-0.00622687
-0.00645085
-0.0066301
-0.00675793
-0.00682753
-0.00683222
-0.00676575
-0.00662226
-0.00639661
-0.00608495
-0.00568496
-0.00519494
-0.00461315
-0.00394351
-0.0031931
-0.00236369
-0.00146686
-0.000515738
0.00047352
0.00148129
0.00248471
0.00345726
0.0043699
0.00519377
0.00590149
0.00646658
0.00686806
0.00709467
0.00714559
0.00703119
0.00677373
0.00640782
0.0059737
0.00551754
0.0050798
0.00469394
0.00438538
0.00415892
0.00401279
0.00393405
0.00390689
0.0039082
0.0039209
0.00393839
0.00395652
-8.30153e-06
-3.30053e-07
-7.17064e-06
-3.11284e-05
-7.11818e-05
-0.000123302
-0.000183309
-0.000248357
-0.000316766
-0.000388089
-0.000462121
-0.000539544
-0.000621452
-0.000709079
-0.000803746
-0.000906962
-0.00102056
-0.00114628
-0.00128581
-0.001441
-0.00161347
-0.00180485
-0.00201747
-0.00225417
-0.00251749
-0.00280903
-0.00312925
-0.00347623
-0.00384576
-0.00423161
-0.00462403
-0.00501213
-0.0053867
-0.00573954
-0.006064
-0.00635396
-0.00660317
-0.00680533
-0.00695408
-0.00704311
-0.00706624
-0.0070179
-0.00689302
-0.00668706
-0.00639655
-0.00601956
-0.00555559
-0.00500402
-0.00436289
-0.0036417
-0.00284564
-0.00198347
-0.00106697
-0.000111054
0.000865938
0.00184257
0.00279425
0.00369342
0.00451162
0.00522245
0.00580095
0.00622614
0.00648563
0.00657819
0.00651256
0.00630942
0.00600021
0.00562415
0.00522063
0.00483304
0.00449073
0.0042155
0.00402582
0.00391489
0.00386508
0.00386003
0.00388014
0.00390726
0.00393501
0.00395991
2.45762e-06
8.29548e-06
-1.9223e-06
-2.99208e-05
-7.31848e-05
-0.000126094
-0.000184261
-0.000245298
-0.000308267
-0.000372896
-0.000439767
-0.000509641
-0.00058352
-0.00066261
-0.000748319
-0.000842284
-0.000946453
-0.00106301
-0.00119432
-0.00134314
-0.0015126
-0.00170637
-0.00192849
-0.00218279
-0.00247135
-0.00279435
-0.00315074
-0.00353683
-0.00394618
-0.00436972
-0.0047977
-0.00522039
-0.00562802
-0.00601183
-0.00636434
-0.00667886
-0.00694938
-0.00716997
-0.00733469
-0.00743781
-0.00747385
-0.00743781
-0.00732531
-0.00713261
-0.00685684
-0.00649634
-0.00605052
-0.00551858
-0.00490192
-0.00420505
-0.00343355
-0.00259551
-0.00170167
-0.000765495
0.000196285
0.00116347
0.00211266
0.0030176
0.00385064
0.00458459
0.0051947
0.00565918
0.00596389
0.00610513
0.00609025
0.00593682
0.00567376
0.00533864
0.00497252
0.00461528
0.00429918
0.0040473
0.00387379
0.00377797
0.00374941
0.00376562
0.00380446
0.00384996
0.00389233
0.00392432
2.92356e-05
3.03583e-05
1.54494e-05
-1.72145e-05
-6.37462e-05
-0.000117421
-0.000173964
-0.000231489
-0.000289493
-0.000348216
-0.000408403
-0.000471068
-0.000537459
-0.000609086
-0.000687786
-0.000775797
-0.00087588
-0.000991381
-0.00112609
-0.00128437
-0.00147082
-0.00169006
-0.0019453
-0.00223864
-0.00257184
-0.00294392
-0.00335069
-0.00378564
-0.00424043
-0.00470463
-0.00516778
-0.0056203
-0.00605348
-0.00645994
-0.00683226
-0.00716371
-0.00744861
-0.00768125
-0.00785623
-0.00796842
-0.00801278
-0.00798528
-0.00788229
-0.00770066
-0.00743779
-0.007092
-0.00666299
-0.0061505
-0.00555562
-0.00488133
-0.00413225
-0.00331544
-0.00244086
-0.00152025
-0.000568553
0.000395374
0.00134968
0.00226985
0.00312945
0.00390058
0.00455801
0.005079
0.00544665
0.00565164
0.0056991
0.00560531
0.00539542
0.00510365
0.00477145
0.00443918
0.00414099
0.00390163
0.0037359
0.00364593
0.00362249
0.00364734
0.00369818
0.00375695
0.00381054
0.00384701
7.57757e-05
6.99652e-05
4.82304e-05
9.01405e-06
-4.09752e-05
-9.53348e-05
-0.000150476
-0.000205072
-0.000259055
-0.000313069
-0.000368163
-0.000425702
-0.000487391
-0.000555373
-0.000632347
-0.000721655
-0.000827447
-0.000954831
-0.00110916
-0.00129587
-0.00151966
-0.00178325
-0.00209
-0.0024412
-0.00283448
-0.00326488
-0.00372494
-0.0042062
-0.0047004
-0.00519857
-0.00569074
-0.00616759
-0.00662096
-0.00704394
-0.00742987
-0.00777287
-0.00806743
-0.00830799
-0.00848996
-0.00860872
-0.00865929
-0.00863941
-0.00854611
-0.00837672
-0.008129
-0.00780158
-0.00739377
-0.00690539
-0.0063369
-0.00568996
-0.00496801
-0.00417708
-0.00332607
-0.00242492
-0.0014875
-0.000530401
0.00042754
0.00136351
0.00225261
0.0030675
0.00378232
0.00437298
0.00481988
0.00511071
0.00524278
0.00522845
0.00509206
0.00486364
0.00458113
0.00428522
0.00401135
0.00378665
0.00362758
0.00353859
0.00351309
0.00353604
0.0035874
0.00364758
0.00370336
0.00373959
0.000145209
0.000130509
9.89744e-05
5.18491e-05
-2.15541e-06
-5.7445e-05
-0.000111597
-0.000164094
-0.00021544
-0.000266739
-0.000319502
-0.000375647
-0.000437625
-0.000508598
-0.000592586
-0.000694436
-0.000819934
-0.000975355
-0.00116708
-0.00139918
-0.00167628
-0.00200145
-0.0023744
-0.00279151
-0.00324617
-0.00373174
-0.00424061
-0.00476406
-0.00529352
-0.00582035
-0.00633584
-0.00683173
-0.00730049
-0.0077356
-0.00813127
-0.00848231
-0.00878324
-0.00902848
-0.00921417
-0.00933642
-0.00939404
-0.00938391
-0.00930291
-0.00914863
-0.00891954
-0.00861444
-0.00823143
-0.00777007
-0.00723149
-0.00661783
-0.00593229
-0.0051797
-0.00436488
-0.00349669
-0.00258558
-0.00164342
-0.000687015
0.000261099
0.00117618
0.00203522
0.00281259
0.00348269
0.00402354
0.00441993
0.0046636
0.00475827
0.00472197
0.0045827
0.00437413
0.00413456
0.00389997
0.00369932
0.00355152
0.00346368
0.00343241
0.00344657
0.00348844
0.00354032
0.0035878
0.00361737
0.000238488
0.000214009
0.000169897
0.000113288
5.4648e-05
-2.08521e-06
-5.60467e-05
-0.000107797
-0.000158611
-0.000210237
-0.000264852
-0.000325179
-0.00039472
-0.000478018
-0.000580709
-0.000708935
-0.000869647
-0.00106968
-0.00131405
-0.00160763
-0.00195309
-0.0023491
-0.00278994
-0.00327018
-0.00378289
-0.00431987
-0.0048729
-0.0054335
-0.00599334
-0.00654424
-0.00707852
-0.00758897
-0.00806889
-0.00851234
-0.00891407
-0.00926918
-0.00957214
-0.00981942
-0.0100082
-0.0101365
-0.0102034
-0.0102042
-0.0101362
-0.00999747
-0.00978667
-0.00950321
-0.00914617
-0.00871553
-0.00821247
-0.00763885
-0.00699746
-0.00629111
-0.00552188
-0.00469583
-0.00382107
-0.00290917
-0.00197559
-0.0010351
-0.00010507
0.00079459
0.00163302
0.00238608
0.00303176
0.0035498
0.00392699
0.0041593
0.00425467
0.00423398
0.00412687
0.00396779
0.00379174
0.003629
0.00350119
0.00341865
0.00338136
0.00338235
0.00340802
0.00344448
0.00347482
0.00349318
0.000357244
0.000320588
0.000261422
0.000193674
0.00012935
7.0379e-05
1.5382e-05
-3.76131e-05
-9.08832e-05
-0.000147045
-0.000209175
-0.000281055
-0.000367491
-0.000474596
-0.00060913
-0.000778279
-0.000989093
-0.00124824
-0.00156011
-0.00192664
-0.00234511
-0.00281107
-0.00331819
-0.00385883
-0.0044248
-0.0050076
-0.00559906
-0.00619113
-0.00677608
-0.00734647
-0.00789537
-0.00841633
-0.00890349
-0.00935147
-0.00975537
-0.0101108
-0.0104151
-0.0106664
-0.010861
-0.0109967
-0.0110696
-0.0110781
-0.0110209
-0.0108968
-0.0107047
-0.0104443
-0.0101154
-0.00971817
-0.00925312
-0.00872121
-0.00812382
-0.00746286
-0.00674241
-0.00596696
-0.00514261
-0.00427774
-0.00338097
-0.00245992
-0.00153033
-0.000615663
0.000267082
0.00109814
0.00184726
0.00249257
0.00301738
0.00340875
0.00366386
0.00379254
0.00381656
0.00376452
0.00366861
0.00356003
0.0034633
0.00339267
0.00335274
0.00333926
0.00334487
0.00335937
0.00336855
0.00337342
0.000499001
0.000448057
0.000371369
0.000290391
0.000219501
0.000157211
9.94238e-05
4.24772e-05
-1.7153e-05
-8.31875e-05
-0.000159826
-0.000252099
-0.000366204
-0.00050937
-0.000689282
-0.000912934
-0.00118731
-0.00151777
-0.00190512
-0.00234667
-0.00283823
-0.00337262
-0.00394172
-0.00453698
-0.00514996
-0.0057724
-0.00639647
-0.00701461
-0.00761969
-0.00820502
-0.00876436
-0.00929207
-0.00978304
-0.0102327
-0.010637
-0.0109926
-0.0112971
-0.0115476
-0.0117418
-0.011878
-0.0119539
-0.0119686
-0.0119212
-0.0118109
-0.0116373
-0.0114001
-0.0110994
-0.0107355
-0.0103089
-0.00982036
-0.00927075
-0.00866145
-0.00799491
-0.00727401
-0.00650251
-0.00568506
-0.00482764
-0.00394089
-0.00303578
-0.00212353
-0.00121436
-0.000332823
0.000500454
0.00126608
0.00193695
0.00249601
0.00292977
0.00323419
0.00341863
0.00350253
0.00351123
0.0034749
0.00342179
0.00337061
0.00333107
0.00330522
0.00329041
0.00327993
0.00326822
0.00325977
0.000657381
0.000591939
0.00049465
0.000398935
0.000320347
0.000253244
0.000190339
0.000126022
5.52877e-05
-2.68923e-05
-0.000125989
-0.00024829
-0.00040105
-0.000592366
-0.000829838
-0.00111994
-0.00146798
-0.00187552
-0.00234013
-0.00285674
-0.00341821
-0.00401573
-0.00464059
-0.00528407
-0.00593779
-0.00659383
-0.00724475
-0.00788352
-0.00850359
-0.00909894
-0.00966409
-0.0101941
-0.0106847
-0.0111321
-0.0115328
-0.0118843
-0.0121845
-0.012431
-0.0126225
-0.0127575
-0.012835
-0.0128543
-0.0128148
-0.0127164
-0.0125588
-0.0123424
-0.0120672
-0.0117338
-0.0113428
-0.010895
-0.010391
-0.00983206
-0.00921948
-0.00855503
-0.00784078
-0.00707917
-0.00627367
-0.00542996
-0.00455445
-0.00365525
-0.00274626
-0.00183946
-0.000945654
-8.93109e-05
0.000709446
0.00142689
0.00204178
0.00253757
0.00290714
0.00315557
0.00329722
0.00335564
0.00336077
0.00333808
0.00330361
0.00326737
0.00323282
0.00319843
0.00316798
0.00314779
0.000826471
0.000744952
0.000624975
0.000512629
0.000424998
0.000351122
0.000280205
0.000204474
0.000117238
1.2023e-05
-0.000117901
-0.000279828
-0.000481692
-0.000731743
-0.00103672
-0.00140139
-0.00182778
-0.00231423
-0.00285509
-0.00344269
-0.00406834
-0.00472268
-0.00539673
-0.00608185
-0.00676992
-0.00745337
-0.00812517
-0.00877883
-0.00940843
-0.0100087
-0.0105748
-0.0111027
-0.0115888
-0.0120299
-0.0124234
-0.0127675
-0.0130603
-0.0133006
-0.0134872
-0.0136193
-0.0136964
-0.0137181
-0.0136843
-0.0135952
-0.0134513
-0.0132523
-0.0129993
-0.0126928
-0.0123335
-0.0119223
-0.0114599
-0.0109472
-0.0103849
-0.00977414
-0.0091158
-0.00841102
-0.0076614
-0.00686931
-0.0060376
-0.00517053
-0.00427496
-0.00335914
-0.00243615
-0.00151891
-0.00062293
0.000226095
0.00100581
0.00169094
0.00225858
0.00269516
0.00299872
0.00318037
0.00326449
0.0032823
0.00325904
0.00321444
0.00316148
0.00310536
0.00305902
0.00302913
0.000996917
0.000898282
0.000753371
0.000623128
0.000524802
0.000441739
0.00035946
0.000267839
0.000158341
2.30128e-05
-0.000145877
-0.000356057
-0.000616054
-0.000933097
-0.00131219
-0.00175537
-0.00226122
-0.00282446
-0.00343701
-0.00408975
-0.00477307
-0.00547741
-0.00619379
-0.00691377
-0.00762954
-0.00833395
-0.00902045
-0.00968313
-0.0103168
-0.0109169
-0.0114795
-0.0120011
-0.0124789
-0.0129105
-0.0132941
-0.0136283
-0.0139118
-0.0141439
-0.0143239
-0.0144514
-0.0145263
-0.0145486
-0.0145185
-0.0144365
-0.0143031
-0.0141189
-0.0138846
-0.0136013
-0.0132696
-0.0128906
-0.0124649
-0.0119934
-0.0114766
-0.010915
-0.0103089
-0.00965834
-0.00896357
-0.00822486
-0.00744272
-0.00661843
-0.00575435
-0.00485412
-0.00392393
-0.00297271
-0.00201532
-0.00106724
-0.000152855
0.000700378
0.00146099
0.00209711
0.00258611
0.00292115
0.00311327
0.00319038
0.0031887
0.00313971
0.0030694
0.00299378
0.00293395
0.00289549
0.00115754
0.00104116
0.00087023
0.000720798
0.000609871
0.000514916
0.000417679
0.000305546
0.000168002
-4.13625e-06
-0.000218771
-0.000484657
-0.000809597
-0.00119897
-0.00165536
-0.00217728
-0.00275979
-0.003395
-0.00407316
-0.00478422
-0.0055181
-0.00626526
-0.00701685
-0.0077647
-0.00850141
-0.00922028
-0.00991536
-0.0105815
-0.0112141
-0.0118096
-0.0123646
-0.0128765
-0.0133432
-0.013763
-0.0141347
-0.0144574
-0.0147303
-0.014953
-0.0151254
-0.0152472
-0.0153188
-0.0153404
-0.0153124
-0.0152355
-0.0151105
-0.0149381
-0.0147194
-0.0144555
-0.0141472
-0.0137956
-0.0134016
-0.012966
-0.0124891
-0.0119713
-0.0114123
-0.0108117
-0.0101687
-0.0094821
-0.00875077
-0.00797356
-0.00714983
-0.00627984
-0.00536523
-0.00440967
-0.0034206
-0.00240987
-0.00139695
-0.000408965
0.000520391
0.00134996
0.0020365
0.00254996
0.00288227
0.00304732
0.00308342
0.00303861
0.00295339
0.00285954
0.00278614
0.00273842
0.00129793
0.00116231
0.000965024
0.000795371
0.000669869
0.000560234
0.000444467
0.000307279
0.000136242
-7.7913e-05
-0.000344048
-0.000671201
-0.00106513
-0.0015292
-0.00206234
-0.00265982
-0.00331393
-0.00401475
-0.00475146
-0.00551339
-0.00629036
-0.00707291
-0.00785245
-0.00862118
-0.00937218
-0.0100993
-0.0107973
-0.0114618
-0.0120892
-0.0126762
-0.0132206
-0.0137203
-0.014174
-0.0145807
-0.0149394
-0.0152499
-0.0155116
-0.0157246
-0.0158889
-0.0160047
-0.0160723
-0.0160923
-0.0160653
-0.0159921
-0.0158735
-0.0157107
-0.0155046
-0.0152566
-0.0149676
-0.014639
-0.0142716
-0.0138663
-0.0134236
-0.0129436
-0.012426
-0.01187
-0.0112741
-0.0106364
-0.00995455
-0.00922568
-0.00844689
-0.00761559
-0.00673013
-0.00579028
-0.00479793
-0.00375892
-0.00268617
-0.00160192
-0.000539034
0.000459288
0.00133883
0.00204629
0.00254667
0.00283304
0.00293353
0.00290655
0.00281218
0.00270002
0.00260954
0.00255106
0.0014039
0.0012504
0.00102712
0.000836658
0.000694781
0.000567857
0.000430148
0.000263531
5.50776e-05
-0.000205005
-0.000527353
-0.00091866
-0.00138304
-0.00192059
-0.00252701
-0.0031948
-0.00391393
-0.00467302
-0.00546056
-0.0062656
-0.00707799
-0.00788848
-0.00868883
-0.00947172
-0.0102308
-0.0109605
-0.0116566
-0.0123154
-0.0129339
-0.0135099
-0.0140415
-0.0145277
-0.0149675
-0.0153604
-0.015706
-0.0160042
-0.016255
-0.0164585
-0.0166149
-0.0167247
-0.0167882
-0.0168063
-0.0167795
-0.0167088
-0.0165952
-0.0164399
-0.0162439
-0.0160087
-0.0157356
-0.0154257
-0.0150802
-0.0147
-0.0142857
-0.0138376
-0.0133553
-0.0128379
-0.0122837
-0.0116903
-0.0110546
-0.0103727
-0.0096402
-0.00885244
-0.00800501
-0.00709446
-0.00611884
-0.00507893
-0.00398095
-0.00284
-0.00168342
-0.000552609
0.000496886
0.00139719
0.00208598
0.00252563
0.00272334
0.00273668
0.0026435
0.00251296
0.00239904
0.00232886
0.00146591
0.00129526
0.00104701
0.000835543
0.000675738
0.000529196
0.000366225
0.000167112
-8.11564e-05
-0.000391131
-0.000771504
-0.00122727
-0.00176062
-0.00236793
-0.00304226
-0.00377364
-0.0045502
-0.00535962
-0.00618999
-0.00703029
-0.0078705
-0.00870172
-0.00951613
-0.010307
-0.0110686
-0.0117963
-0.0124865
-0.0131363
-0.0137436
-0.0143067
-0.0148246
-0.0152967
-0.0157225
-0.0161019
-0.0164349
-0.0167215
-0.0169619
-0.0171566
-0.0173057
-0.0174098
-0.0174695
-0.0174855
-0.0174586
-0.0173897
-0.0172799
-0.0171304
-0.0169425
-0.0167175
-0.016457
-0.0161621
-0.0158342
-0.0154743
-0.0150833
-0.0146614
-0.0142085
-0.0137236
-0.0132053
-0.0126508
-0.0120567
-0.0114187
-0.0107312
-0.0099885
-0.00918403
-0.00831172
-0.00736668
-0.00634575
-0.0052495
-0.0040862
-0.00287533
-0.00165194
-0.000468483
0.0006047
0.00148461
0.00210352
0.00243501
0.00251847
0.0024409
0.00229442
0.00215117
0.00206888
0.00147426
0.001288
0.00101658
0.000784373
0.000605535
0.000437298
0.000246391
1.33145e-05
-0.000277237
-0.000638268
-0.00107612
-0.00159492
-0.00219315
-0.00286483
-0.00360033
-0.00438759
-0.00521348
-0.00606507
-0.00693026
-0.00779811
-0.00865888
-0.00950405
-0.0103264
-0.0111198
-0.0118793
-0.0126012
-0.0132826
-0.0139212
-0.0145158
-0.0150653
-0.0155693
-0.0160275
-0.0164399
-0.0168066
-0.0171279
-0.0174039
-0.0176351
-0.0178218
-0.0179645
-0.0180637
-0.0181199
-0.018134
-0.0181068
-0.0180391
-0.0179323
-0.0177873
-0.0176057
-0.0173888
-0.017138
-0.016855
-0.0165409
-0.0161971
-0.0158246
-0.0154237
-0.0149946
-0.0145366
-0.0140483
-0.0135271
-0.0129695
-0.0123711
-0.0117259
-0.0110272
-0.0102675
-0.00943852
-0.00853296
-0.00754488
-0.00647036
-0.00531126
-0.00407975
-0.00280211
-0.00152419
-0.000312921
0.000743668
0.00155338
0.00204866
0.00223449
0.00219686
0.00204093
0.0018645
0.00177041
0.00142147
0.00122173
0.000929625
0.000677499
0.000478958
0.000287262
6.75667e-05
-0.000200589
-0.000534877
-0.000945633
-0.00143898
-0.00201679
-0.00267467
-0.00340407
-0.0041931
-0.00502807
-0.00589502
-0.00678067
-0.00767293
-0.00856103
-0.00943561
-0.0102887
-0.0111136
-0.011905
-0.0126589
-0.0133722
-0.0140426
-0.0146689
-0.0152501
-0.015786
-0.0162765
-0.0167216
-0.0171216
-0.0174768
-0.0177876
-0.0180544
-0.0182776
-0.0184575
-0.0185947
-0.0186897
-0.0187431
-0.0187556
-0.018728
-0.0186613
-0.0185567
-0.0184153
-0.0182385
-0.0180277
-0.0177846
-0.0175106
-0.0172072
-0.0168758
-0.0165176
-0.0161332
-0.015723
-0.0152865
-0.0148227
-0.0143292
-0.0138029
-0.0132392
-0.0126323
-0.0119751
-0.0112593
-0.0104758
-0.00961499
-0.00866855
-0.00762986
-0.00649511
-0.00526945
-0.00397087
-0.00263541
-0.00132424
-0.000122524
0.000867228
0.00154668
0.00187173
0.00190013
0.00174569
0.00154034
0.00143338
0.00130262
0.001092
0.000782229
0.000511582
0.000293071
7.71751e-05
-0.000171533
-0.000475658
-0.000852049
-0.00131017
-0.00185567
-0.00248722
-0.00319829
-0.00397793
-0.00481238
-0.00568681
-0.0065867
-0.00749864
-0.00841066
-0.0093123
-0.0101947
-0.0110503
-0.0118734
-0.0126594
-0.0134049
-0.0141076
-0.014766
-0.0153794
-0.0159475
-0.0164703
-0.0169481
-0.0173813
-0.0177702
-0.0181154
-0.0184172
-0.0186761
-0.0188926
-0.0190669
-0.0191997
-0.0192913
-0.0193424
-0.0193536
-0.0193258
-0.0192599
-0.0191569
-0.0190182
-0.0188451
-0.018639
-0.0184015
-0.0181343
-0.017839
-0.0175169
-0.0171695
-0.0167976
-0.0164019
-0.0159823
-0.0155379
-0.0150669
-0.0145666
-0.0140327
-0.0134596
-0.0128402
-0.0121662
-0.0114275
-0.0106138
-0.00971417
-0.00872002
-0.00762408
-0.00642451
-0.00513177
-0.00377189
-0.00239654
-0.00108777
5.76286e-05
0.000922609
0.00141395
0.00153503
0.00140075
0.0011813
0.00105688
0.00111543
0.000896935
0.000572905
0.000285536
4.7272e-05
-0.0001924
-0.000469994
-0.000809437
-0.00122532
-0.00172751
-0.00232003
-0.0029993
-0.00375644
-0.00457848
-0.00545021
-0.00635603
-0.00728112
-0.0082121
-0.00913722
-0.0100464
-0.0109314
-0.0117853
-0.0126031
-0.0133809
-0.0141161
-0.0148072
-0.0154532
-0.0160539
-0.0166094
-0.0171201
-0.0175864
-0.018009
-0.0183884
-0.018725
-0.0190193
-0.0192718
-0.0194828
-0.0196528
-0.019782
-0.0198711
-0.0199205
-0.0199308
-0.0199029
-0.0198376
-0.019736
-0.0195993
-0.0194289
-0.0192262
-0.0189929
-0.0187306
-0.018441
-0.0181256
-0.0177861
-0.0174234
-0.0170385
-0.0166316
-0.0162023
-0.0157492
-0.01527
-0.014761
-0.014217
-0.0136313
-0.0129955
-0.0122998
-0.0115328
-0.0106826
-0.00973794
-0.00868987
-0.0075313
-0.00626464
-0.00490726
-0.00349956
-0.00212068
-0.000855042
0.000175848
0.000845244
0.00109267
0.00100161
0.000784739
0.000636641
0.000860078
0.000637351
0.000302667
7.00332e-07
-0.000256457
-0.000519078
-0.000825016
-0.0011971
-0.0016492
-0.00219136
-0.00282524
-0.00354552
-0.00434127
-0.00519783
-0.00609897
-0.00702856
-0.00797169
-0.00891512
-0.00984743
-0.0107591
-0.0116423
-0.012491
-0.0133008
-0.0140686
-0.0147926
-0.0154715
-0.0161052
-0.0166938
-0.0172377
-0.0177374
-0.0181937
-0.0186072
-0.0189785
-0.019308
-0.0195963
-0.0198437
-0.0200506
-0.0202172
-0.0203439
-0.0204312
-0.0204794
-0.0204893
-0.0204614
-0.0203966
-0.0202961
-0.0201609
-0.0199924
-0.0197921
-0.0195616
-0.0193026
-0.0190169
-0.0187062
-0.0183721
-0.0180159
-0.0176387
-0.0172411
-0.0168231
-0.0163837
-0.0159213
-0.0154326
-0.0149131
-0.0143567
-0.0137553
-0.0130993
-0.0123773
-0.0115765
-0.0106841
-0.00968888
-0.0085814
-0.00735654
-0.0060229
-0.00460934
-0.00319244
-0.00184485
-0.000676289
0.00016573
0.000562176
0.000540895
0.000341552
0.00016517
0.000539978
0.000315916
-2.53377e-05
-0.000339482
-0.000614136
-0.00089861
-0.00123119
-0.00163275
-0.00211742
-0.00269434
-0.00336357
-0.00411796
-0.00494488
-0.0058284
-0.00675153
-0.00769788
-0.00865259
-0.00960266
-0.0105371
-0.0114469
-0.0123249
-0.0131658
-0.0139658
-0.0147225
-0.0154346
-0.0161016
-0.0167236
-0.0173009
-0.0178343
-0.0183244
-0.0187721
-0.019178
-0.0195426
-0.0198666
-0.0201501
-0.0203937
-0.0205975
-0.0207618
-0.0208868
-0.020973
-0.0210206
-0.0210302
-0.0210026
-0.0209384
-0.0208386
-0.0207045
-0.0205373
-0.0203385
-0.0201098
-0.0198529
-0.0195696
-0.0192618
-0.018931
-0.018579
-0.018207
-0.0178158
-0.0174059
-0.0169768
-0.0165273
-0.0160549
-0.0155556
-0.0150242
-0.0144531
-0.0138331
-0.0131531
-0.0124002
-0.0115605
-0.0106207
-0.00957007
-0.00839925
-0.00710783
-0.00571069
-0.00427232
-0.00288263
-0.00161242
-0.000618857
-6.44645e-05
1.4122e-05
-0.000155089
-0.000366743
0.000160846
-6.25532e-05
-0.000406311
-0.000729966
-0.00102042
-0.00132539
-0.00168159
-0.00210911
-0.0026223
-0.00322864
-0.00392698
-0.00470864
-0.00555961
-0.00646299
-0.00740134
-0.00835817
-0.00931878
-0.0102705
-0.0112029
-0.0121073
-0.0129775
-0.0138087
-0.0145977
-0.0153428
-0.0160432
-0.0166987
-0.0173096
-0.0178768
-0.0184009
-0.0188828
-0.0193233
-0.0197229
-0.0200823
-0.0204019
-0.020682
-0.0209229
-0.0211246
-0.0212875
-0.0214116
-0.0214973
-0.0215447
-0.0215545
-0.0215272
-0.0214635
-0.0213644
-0.021231
-0.0210646
-0.0208666
-0.0206388
-0.020383
-0.0201008
-0.0197944
-0.0194654
-0.0191157
-0.0187468
-0.0183597
-0.0179553
-0.0175335
-0.0170937
-0.0166339
-0.0161511
-0.0156405
-0.0150956
-0.0145077
-0.0138662
-0.0131585
-0.0123702
-0.0114865
-0.0104951
-0.00938505
-0.00814935
-0.00679298
-0.0053467
-0.00394258
-0.00261423
-0.00150224
-0.000793356
-0.00058965
-0.000715032
-0.00096938
-0.00027076
-0.000491263
-0.000833997
-0.00116447
-0.00146865
-0.00179167
-0.00216833
-0.00261847
-0.00315556
-0.00378597
-0.00450734
-0.00530975
-0.00617812
-0.00709492
-0.00804244
-0.00900426
-0.00996594
-0.0109152
-0.0118421
-0.0127386
-0.013599
-0.0144193
-0.0151967
-0.0159302
-0.0166191
-0.0172637
-0.0178647
-0.0184228
-0.0189389
-0.0194139
-0.0198485
-0.0202432
-0.0205986
-0.0209151
-0.0211928
-0.0214319
-0.0216326
-0.0217947
-0.0219186
-0.0220043
-0.0220521
-0.0220623
-0.0220354
-0.0219723
-0.0218737
-0.0217407
-0.0215746
-0.021377
-0.0211494
-0.0208937
-0.0206117
-0.0203055
-0.019977
-0.0196281
-0.0192604
-0.0188756
-0.0184745
-0.0180576
-0.0176247
-0.0171746
-0.0167048
-0.0162114
-0.0156888
-0.015129
-0.0145223
-0.0138563
-0.0131169
-0.0122886
-0.0113569
-0.0103102
-0.00913745
-0.00783585
-0.00641565
-0.00500187
-0.00365641
-0.00246384
-0.00162178
-0.00128688
-0.00135372
-0.00165301
-0.00074707
-0.000962309
-0.00130083
-0.00163518
-0.00195061
-0.00228895
-0.00268317
-0.00315237
-0.00370887
-0.0043581
-0.00509671
-0.0059138
-0.00679357
-0.00771807
-0.00866951
-0.00963166
-0.0105904
-0.0115339
-0.0124526
-0.0133393
-0.0141887
-0.0149973
-0.0157631
-0.0164851
-0.0171632
-0.0177979
-0.0183899
-0.0189401
-0.0194495
-0.0199187
-0.0203485
-0.0207396
-0.0210921
-0.0214065
-0.0216828
-0.021921
-0.0221213
-0.0222835
-0.0224077
-0.0224939
-0.0225423
-0.0225532
-0.022527
-0.0224644
-0.0223662
-0.0222335
-0.0220674
-0.0218696
-0.0216416
-0.0213853
-0.0211027
-0.0207957
-0.0204666
-0.0201172
-0.0197496
-0.0193653
-0.0189658
-0.0185519
-0.0181237
-0.0176806
-0.017221
-0.0167416
-0.0162376
-0.0157022
-0.0151263
-0.0144984
-0.0138046
-0.0130294
-0.0121569
-0.0111744
-0.0100687
-0.00883174
-0.0074696
-0.00604613
-0.00470891
-0.0034771
-0.00253298
-0.00207771
-0.00207949
-0.00241527
-0.00125912
-0.00146694
-0.00179814
-0.00213352
-0.00245777
-0.002809
-0.0032179
-0.00370237
-0.00427388
-0.00493698
-0.00568748
-0.0065138
-0.00739965
-0.0083269
-0.00927783
-0.0102364
-0.011189
-0.0121241
-0.0130328
-0.0139084
-0.014746
-0.0155428
-0.016297
-0.0170081
-0.0176762
-0.0183019
-0.018886
-0.0194294
-0.0199331
-0.0203977
-0.0208239
-0.0212122
-0.0215629
-0.021876
-0.0221517
-0.0223899
-0.0225904
-0.0227532
-0.0228782
-0.0229653
-0.0230147
-0.0230265
-0.0230011
-0.0229391
-0.0228412
-0.0227086
-0.0225423
-0.022344
-0.0221151
-0.0218577
-0.0215737
-0.0212653
-0.0209346
-0.0205838
-0.020215
-0.0198301
-0.0194307
-0.0190181
-0.0185928
-0.0181546
-0.0177027
-0.0172344
-0.0167459
-0.0162314
-0.0156826
-0.0150889
-0.0144371
-0.013712
-0.0128972
-0.0119779
-0.0109421
-0.00977798
-0.00848197
-0.00707133
-0.00575312
-0.00452123
-0.00350907
-0.00294606
-0.00288357
-0.00324519
-0.00179735
-0.00199576
-0.00231714
-0.00265128
-0.00298205
-0.00334361
-0.00376403
-0.00426012
-0.00484253
-0.00551494
-0.00627253
-0.00710328
-0.00799064
-0.00891647
-0.00986323
-0.0108152
-0.0117591
-0.012684
-0.0135813
-0.014445
-0.0152706
-0.0160556
-0.0167988
-0.0174996
-0.0181585
-0.0187761
-0.0193533
-0.019891
-0.02039
-0.020851
-0.0212746
-0.0216611
-0.0220107
-0.0223234
-0.0225991
-0.0228378
-0.0230392
-0.0232031
-0.0233292
-0.0234176
-0.0234682
-0.0234811
-0.0234566
-0.0233953
-0.0232978
-0.0231651
-0.0229985
-0.0227993
-0.0225692
-0.0223102
-0.0220244
-0.0217138
-0.0213808
-0.0210278
-0.020657
-0.0202704
-0.01987
-0.0194573
-0.0190334
-0.0185984
-0.0181521
-0.0176926
-0.0172169
-0.01672
-0.0161947
-0.0156315
-0.015018
-0.0143394
-0.0135792
-0.0127214
-0.0117546
-0.010665
-0.00944264
-0.00808352
-0.00676918
-0.00556488
-0.00452283
-0.00387011
-0.00374875
-0.00412228
-0.00235212
-0.00253959
-0.00284931
-0.00318025
-0.00351512
-0.00388422
-0.0043132
-0.00481759
-0.00540716
-0.00608482
-0.00684531
-0.00767636
-0.0085614
-0.00948239
-0.0104221
-0.0113651
-0.0122984
-0.0132118
-0.014097
-0.0149484
-0.0157621
-0.0165358
-0.0172684
-0.0179598
-0.0186103
-0.0192208
-0.0197921
-0.020325
-0.0208202
-0.0212785
-0.0217002
-0.0220857
-0.0224348
-0.0227477
-0.0230241
-0.0232638
-0.0234665
-0.0236318
-0.0237595
-0.0238494
-0.0239015
-0.0239157
-0.0238922
-0.0238316
-0.0237345
-0.0236017
-0.0234345
-0.0232344
-0.0230029
-0.0227419
-0.0224538
-0.0221406
-0.0218048
-0.0214489
-0.0210752
-0.0206862
-0.0202839
-0.0198701
-0.0194462
-0.019013
-0.0185706
-0.0181178
-0.0176524
-0.0171704
-0.0166655
-0.0161292
-0.01555
-0.014914
-0.014205
-0.0134064
-0.0125058
-0.0114887
-0.0103426
-0.00906621
-0.00775104
-0.00658433
-0.00554272
-0.00482411
-0.00465182
-0.00500449
-0.00291399
-0.00308975
-0.00338618
-0.00371176
-0.00404856
-0.00442274
-0.00485755
-0.00536725
-0.00596067
-0.00664005
-0.00739985
-0.00822777
-0.00910734
-0.0100208
-0.0109511
-0.0118834
-0.012805
-0.0137061
-0.0145789
-0.0154181
-0.0162201
-0.0169829
-0.0177057
-0.0183885
-0.0190316
-0.0196359
-0.0202021
-0.020731
-0.0212234
-0.0216797
-0.0221002
-0.0224851
-0.0228345
-0.023148
-0.0234256
-0.0236667
-0.023871
-0.0240381
-0.0241676
-0.0242593
-0.0243129
-0.0243285
-0.0243062
-0.0242464
-0.0241496
-0.0240168
-0.023849
-0.0236477
-0.0234146
-0.0231515
-0.0228607
-0.0225446
-0.0222056
-0.0218462
-0.0214692
-0.0210771
-0.0206721
-0.0202563
-0.0198316
-0.0193989
-0.018959
-0.0185112
-0.0180541
-0.0175843
-0.0170969
-0.0165841
-0.0160357
-0.0154386
-0.014777
-0.0140345
-0.0131969
-0.0122514
-0.0111847
-0.00999185
-0.00869461
-0.00756542
-0.00654634
-0.00578417
-0.00556182
-0.00586172
-0.00347436
-0.0036377
-0.00391939
-0.0042378
-0.00457457
-0.00495164
-0.00538987
-0.00590221
-0.0064966
-0.00717472
-0.00793084
-0.00875281
-0.00962444
-0.0105282
-0.0114476
-0.012368
-0.0132772
-0.0141655
-0.0150259
-0.0158532
-0.016644
-0.0173968
-0.0181106
-0.0187855
-0.0194221
-0.0200209
-0.0205829
-0.0211086
-0.0215987
-0.0220536
-0.0224736
-0.0228586
-0.0232085
-0.0235232
-0.0238021
-0.0240449
-0.0242511
-0.0244202
-0.0245517
-0.0246453
-0.0247007
-0.0247179
-0.0246968
-0.0246378
-0.0245415
-0.0244086
-0.0242402
-0.0240377
-0.0238028
-0.0235375
-0.0232439
-0.0229245
-0.0225819
-0.0222188
-0.021838
-0.0214422
-0.0210339
-0.0206155
-0.0201891
-0.019756
-0.0193174
-0.0188732
-0.0184225
-0.017963
-0.0174903
-0.016998
-0.0164769
-0.0159148
-0.0152969
-0.0146068
-0.0138287
-0.0129525
-0.0119646
-0.0108533
-0.00960856
-0.00849798
-0.0075116
-0.00672983
-0.00645623
-0.00669798
-0.00402502
-0.00417538
-0.00444122
-0.00475109
-0.00508612
-0.00546413
-0.00590361
-0.00641628
-0.00700921
-0.00768357
-0.00843358
-0.00924739
-0.0101092
-0.0110018
-0.0119091
-0.0128169
-0.0137133
-0.014589
-0.0154372
-0.016253
-0.0170335
-0.0177768
-0.0184824
-0.0191504
-0.0197812
-0.0203754
-0.0209338
-0.021457
-0.0219455
-0.0223995
-0.0228193
-0.0232048
-0.0235557
-0.0238717
-0.0241523
-0.024397
-0.0246053
-0.0247765
-0.0249101
-0.0250057
-0.025063
-0.0250818
-0.025062
-0.0250039
-0.024908
-0.024775
-0.024606
-0.0244024
-0.0241657
-0.023898
-0.0236015
-0.0232787
-0.0229323
-0.0225652
-0.0221803
-0.0217804
-0.0213685
-0.0209469
-0.0205181
-0.0200839
-0.0196456
-0.0192037
-0.018758
-0.0183068
-0.0178466
-0.017372
-0.0168748
-0.016344
-0.0157657
-0.0151238
-0.0144021
-0.0135906
-0.0126756
-0.0116444
-0.0104842
-0.0093805
-0.00842981
-0.00764741
-0.0073295
-0.0075214
-0.00455897
-0.00469571
-0.00494502
-0.00524516
-0.00557691