/*--------------------------------*- C++ -*----------------------------------*\
  =========                 |
  \\      /  F ield         | OpenFOAM: The Open Source CFD Toolbox
   \\    /   O peration     | Website:  https://openfoam.org
    \\  /    A nd           | Version:  13
     \\/     M anipulation  |
\*---------------------------------------------------------------------------*/
FoamFile
{
    format      ascii;
    class       volVectorField;
    location    "2.7";
    object      U;
}
// * * * * * * * * * * * * * * * * * * * * * * * * * * * * * * * * * * * * * //

dimensions      [0 1 -1 0 0 0 0];

internalField   nonuniform List<vector> 
6400
(
(2.20451e-05 -3.29862e-05 0)
(0.000622063 -0.000183832 0)
(0.0017452 -0.000297099 0)
(0.00304156 -0.000335213 0)
(0.00429099 -0.000311056 0)
(0.00532936 -0.000247046 0)
(0.00610002 -0.00017699 0)
(0.00662246 -0.000123962 0)
(0.00695333 -9.56949e-05 0)
(0.00714755 -8.79097e-05 0)
(0.00725525 -9.58095e-05 0)
(0.00730794 -0.000114147 0)
(0.00732558 -0.000139169 0)
(0.00731506 -0.000167747 0)
(0.0072751 -0.000195619 0)
(0.00719668 -0.000220534 0)
(0.00706361 -0.000240864 0)
(0.00685048 -0.000254271 0)
(0.00652372 -0.000257834 0)
(0.00604614 -0.000252092 0)
(0.00537424 -0.000238692 0)
(0.0044724 -0.000219073 0)
(0.0033148 -0.000198613 0)
(0.00188606 -0.000192483 0)
(0.000153667 -0.000216516 0)
(-0.00182577 -0.000268999 0)
(-0.00414944 -0.00029968 0)
(-0.00688112 -0.000261008 0)
(-0.0100929 -8.39991e-05 0)
(-0.0138024 0.000273849 0)
(-0.0183193 0.000773692 0)
(-0.0234747 0.00128987 0)
(-0.0291772 0.00177856 0)
(-0.0353222 0.00222318 0)
(-0.0417772 0.00260728 0)
(-0.048404 0.00291324 0)
(-0.0550701 0.00313621 0)
(-0.0616464 0.00327678 0)
(-0.0680232 0.00334064 0)
(-0.0741009 0.00333556 0)
(-0.0797978 0.00327034 0)
(-0.0850397 0.00315195 0)
(-0.0897653 0.00298438 0)
(-0.0939226 0.00276948 0)
(-0.0974593 0.00250681 0)
(-0.100344 0.00219956 0)
(-0.10255 0.00185785 0)
(-0.103913 0.00152601 0)
(-0.104495 0.0012211 0)
(-0.104466 0.000712011 0)
(-0.103333 0.000287153 0)
(-0.101456 -0.000226827 0)
(-0.0985612 -0.000730377 0)
(-0.0947725 -0.00125581 0)
(-0.0900067 -0.00177116 0)
(-0.0843245 -0.00226994 0)
(-0.077743 -0.00273402 0)
(-0.0703374 -0.00315859 0)
(-0.0622216 -0.00355976 0)
(-0.0534568 -0.00390361 0)
(-0.0441937 -0.00414859 0)
(-0.0346127 -0.00426792 0)
(-0.0249421 -0.00424336 0)
(-0.0154228 -0.00405842 0)
(-0.00630229 -0.00370231 0)
(0.0020802 -0.00320199 0)
(0.00941011 -0.00253275 0)
(0.015451 -0.00172101 0)
(0.0199525 -0.000822659 0)
(0.0227979 9.52307e-05 0)
(0.0237321 0.0010405 0)
(0.0230565 0.00150496 0)
(0.0208553 0.00186763 0)
(0.0172261 0.00194159 0)
(0.013099 0.00168182 0)
(0.00898163 0.00120608 0)
(0.00537244 0.000721935 0)
(0.0025648 0.000350518 0)
(0.00073656 7.71284e-05 0)
(-5.20915e-05 -0.00011859 0)
(0.000141258 -0.000598999 0)
(0.00157344 -0.00163494 0)
(0.00368231 -0.00223276 0)
(0.00584781 -0.00233428 0)
(0.00774142 -0.00206481 0)
(0.00922806 -0.00161877 0)
(0.0102839 -0.00115145 0)
(0.0109389 -0.000750435 0)
(0.0112452 -0.000441201 0)
(0.0112592 -0.000217036 0)
(0.0110376 -6.69312e-05 0)
(0.0105965 4.51811e-05 0)
(0.00995931 0.000136176 0)
(0.00911841 0.000225322 0)
(0.00805349 0.000326037 0)
(0.00674333 0.000446005 0)
(0.00515007 0.000600095 0)
(0.00321428 0.000805746 0)
(0.000874755 0.00107817 0)
(-0.00193617 0.00143117 0)
(-0.00532167 0.00187182 0)
(-0.00936717 0.0023829 0)
(-0.0141276 0.00294369 0)
(-0.0196655 0.00355393 0)
(-0.0260327 0.00422173 0)
(-0.0332973 0.00498668 0)
(-0.0413808 0.00585567 0)
(-0.0502066 0.00679815 0)
(-0.0595874 0.00779137 0)
(-0.0692739 0.00880125 0)
(-0.0789193 0.00968406 0)
(-0.0884899 0.0103945 0)
(-0.0978327 0.0109082 0)
(-0.106827 0.011197 0)
(-0.115367 0.0112708 0)
(-0.123356 0.0111343 0)
(-0.13074 0.0108154 0)
(-0.13746 0.0103354 0)
(-0.143487 0.00971835 0)
(-0.14879 0.00898575 0)
(-0.153353 0.00815724 0)
(-0.157157 0.0072465 0)
(-0.160188 0.00626251 0)
(-0.162432 0.00521775 0)
(-0.163884 0.00412009 0)
(-0.164536 0.00297373 0)
(-0.164375 0.00178205 0)
(-0.163362 0.000554661 0)
(-0.161495 -0.000720163 0)
(-0.158778 -0.00207757 0)
(-0.155146 -0.00347809 0)
(-0.150651 -0.00491836 0)
(-0.145235 -0.00638565 0)
(-0.138924 -0.00786382 0)
(-0.131697 -0.00933408 0)
(-0.123575 -0.0107664 0)
(-0.114578 -0.012121 0)
(-0.104748 -0.0133616 0)
(-0.0941356 -0.0144564 0)
(-0.0828907 -0.0153504 0)
(-0.0711651 -0.0159907 0)
(-0.0591094 -0.0163166 0)
(-0.0469265 -0.0162788 0)
(-0.0348473 -0.0158332 0)
(-0.0231179 -0.0149416 0)
(-0.0120016 -0.0136011 0)
(-0.00176929 -0.0118012 0)
(0.00729819 -0.00958205 0)
(0.0149531 -0.00701024 0)
(0.0210081 -0.00420421 0)
(0.0252525 -0.00131736 0)
(0.0276458 0.0014112 0)
(0.0280601 0.00382159 0)
(0.0265429 0.00572066 0)
(0.0233679 0.00671959 0)
(0.0186599 0.00678462 0)
(0.0131192 0.00598093 0)
(0.00763635 0.00455993 0)
(0.00312821 0.00272505 0)
(0.000322694 0.000844532 0)
(0.000262481 -0.0016461 0)
(0.00223428 -0.00375204 0)
(0.00460102 -0.00455859 0)
(0.00665124 -0.00439004 0)
(0.00823893 -0.00367936 0)
(0.00935311 -0.00277054 0)
(0.010016 -0.00186719 0)
(0.0102646 -0.00106684 0)
(0.0101355 -0.000403955 0)
(0.00965433 0.000130662 0)
(0.00884495 0.000569074 0)
(0.00770457 0.000956708 0)
(0.00621669 0.00133285 0)
(0.00434793 0.00173182 0)
(0.00204848 0.00218187 0)
(-0.000751876 0.00271038 0)
(-0.00413182 0.00334578 0)
(-0.00816814 0.00411295 0)
(-0.0129409 0.0050352 0)
(-0.0185206 0.00613032 0)
(-0.0249441 0.00739314 0)
(-0.0322385 0.00880084 0)
(-0.0404157 0.0103177 0)
(-0.0494278 0.0118993 0)
(-0.0591665 0.0134856 0)
(-0.0694663 0.014991 0)
(-0.0801093 0.0163556 0)
(-0.0908655 0.0175387 0)
(-0.101526 0.0184982 0)
(-0.111902 0.0192115 0)
(-0.121808 0.0196447 0)
(-0.131155 0.019786 0)
(-0.139819 0.0196361 0)
(-0.147768 0.019221 0)
(-0.15498 0.0185724 0)
(-0.161457 0.017708 0)
(-0.167201 0.016657 0)
(-0.172221 0.0154513 0)
(-0.176531 0.014114 0)
(-0.180136 0.0126659 0)
(-0.183047 0.0111267 0)
(-0.185271 0.00951281 0)
(-0.186812 0.00783181 0)
(-0.187668 0.00608892 0)
(-0.187837 0.004285 0)
(-0.18731 0.00242033 0)
(-0.186079 0.000496849 0)
(-0.184127 -0.00148826 0)
(-0.181423 -0.00354608 0)
(-0.177956 -0.00567652 0)
(-0.173705 -0.00785321 0)
(-0.168657 -0.0100821 0)
(-0.162785 -0.0123461 0)
(-0.156081 -0.0146268 0)
(-0.148534 -0.0168946 0)
(-0.140146 -0.0191099 0)
(-0.130932 -0.0212251 0)
(-0.12093 -0.0231856 0)
(-0.110199 -0.0249168 0)
(-0.0988189 -0.0263377 0)
(-0.0869222 -0.027376 0)
(-0.0746617 -0.0279412 0)
(-0.0622091 -0.0279528 0)
(-0.0497875 -0.0273455 0)
(-0.0376356 -0.0260748 0)
(-0.0259892 -0.0241187 0)
(-0.0150817 -0.0214656 0)
(-0.00516135 -0.0181703 0)
(0.00353656 -0.0143285 0)
(0.0108307 -0.0100808 0)
(0.0165817 -0.00560792 0)
(0.0206618 -0.00113363 0)
(0.023074 0.00309525 0)
(0.0236873 0.00672433 0)
(0.0224139 0.00952807 0)
(0.0196082 0.0111042 0)
(0.0152965 0.0113059 0)
(0.0100976 0.0100572 0)
(0.00484383 0.00734602 0)
(0.000660576 0.00322348 0)
(0.000366649 -0.0029802 0)
(0.0025339 -0.00605981 0)
(0.00467402 -0.00667404 0)
(0.00623965 -0.00597644 0)
(0.00726503 -0.00474394 0)
(0.00780843 -0.00336821 0)
(0.00791405 -0.00204297 0)
(0.00761006 -0.000853915 0)
(0.00690512 0.000180255 0)
(0.0057936 0.00108273 0)
(0.00425235 0.00190387 0)
(0.00224751 0.00270101 0)
(-0.000268149 0.00352852 0)
(-0.00335624 0.00443606 0)
(-0.00708821 0.00546671 0)
(-0.0115421 0.00665678 0)
(-0.0167954 0.00803495 0)
(-0.0229175 0.00962168 0)
(-0.0299582 0.0114234 0)
(-0.0379336 0.0134272 0)
(-0.046813 0.0155944 0)
(-0.056517 0.0178599 0)
(-0.0669094 0.0201239 0)
(-0.077793 0.0222756 0)
(-0.0889395 0.0242336 0)
(-0.100126 0.0259155 0)
(-0.11114 0.0272486 0)
(-0.121784 0.0281698 0)
(-0.131894 0.0286584 0)
(-0.141328 0.0287636 0)
(-0.150028 0.0285172 0)
(-0.157969 0.0279448 0)
(-0.165143 0.0270745 0)
(-0.171586 0.0259327 0)
(-0.177308 0.0245613 0)
(-0.182348 0.0229957 0)
(-0.186733 0.0212638 0)
(-0.190491 0.0193937 0)
(-0.19364 0.0174077 0)
(-0.196201 0.0153268 0)
(-0.198185 0.0131617 0)
(-0.199599 0.0109249 0)
(-0.200446 0.00862003 0)
(-0.200723 0.0062483 0)
(-0.200423 0.0038075 0)
(-0.199533 0.00129447 0)
(-0.19804 -0.00129366 0)
(-0.195921 -0.00396048 0)
(-0.193151 -0.00670934 0)
(-0.189712 -0.00954996 0)
(-0.185576 -0.0124696 0)
(-0.180719 -0.0154631 0)
(-0.175114 -0.0185127 0)
(-0.168738 -0.0215966 0)
(-0.16157 -0.0246781 0)
(-0.153593 -0.0277061 0)
(-0.144806 -0.0306183 0)
(-0.135223 -0.0333381 0)
(-0.124877 -0.0357704 0)
(-0.113822 -0.0378046 0)
(-0.102147 -0.0393186 0)
(-0.0899946 -0.0402047 0)
(-0.0775083 -0.0403368 0)
(-0.0648973 -0.0396268 0)
(-0.0524017 -0.0380016 0)
(-0.0403027 -0.0354725 0)
(-0.0288209 -0.032015 0)
(-0.0181928 -0.0276851 0)
(-0.00866326 -0.022615 0)
(-0.00042739 -0.0169776 0)
(0.00636465 -0.0110054 0)
(0.0115999 -0.00496228 0)
(0.0152429 0.000894217 0)
(0.0172914 0.00622219 0)
(0.0177394 0.0106241 0)
(0.0165069 0.0137672 0)
(0.0137883 0.0152807 0)
(0.00984408 0.0148798 0)
(0.00515553 0.0121718 0)
(0.00075679 0.00612308 0)
(0.000455351 -0.0044266 0)
(0.00250178 -0.00816626 0)
(0.0041094 -0.00829895 0)
(0.00505006 -0.00698366 0)
(0.00544064 -0.0052192 0)
(0.00535437 -0.00338661 0)
(0.00483246 -0.00164169 0)
(0.00388392 -3.98499e-05 0)
(0.0024899 0.00142215 0)
(0.000611834 0.0027857 0)
(-0.0018039 0.00411267 0)
(-0.00482086 0.00547213 0)
(-0.00850997 0.00692995 0)
(-0.0129464 0.00854368 0)
(-0.0182044 0.0103594 0)
(-0.02435 0.0124098 0)
(-0.0314321 0.0147116 0)
(-0.0394711 0.0172606 0)
(-0.0484432 0.0200212 0)
(-0.0582673 0.0229228 0)
(-0.0687997 0.0258596 0)
(-0.0798409 0.0287039 0)
(-0.0911546 0.0313287 0)
(-0.10252 0.0336312 0)
(-0.113715 0.0355027 0)
(-0.124515 0.0368434 0)
(-0.13473 0.03765 0)
(-0.144233 0.0379439 0)
(-0.152992 0.0377484 0)
(-0.160985 0.0371127 0)
(-0.168235 0.0361076 0)
(-0.174764 0.0347834 0)
(-0.18062 0.0331915 0)
(-0.18584 0.0313689 0)
(-0.190452 0.0293533 0)
(-0.194499 0.0271756 0)
(-0.198005 0.02486 0)
(-0.200996 0.0224321 0)
(-0.203491 0.0199066 0)
(-0.205506 0.0172968 0)
(-0.207047 0.0146117 0)
(-0.208118 0.0118588 0)
(-0.208718 0.00903589 0)
(-0.208844 0.00613893 0)
(-0.208487 0.00316103 0)
(-0.207634 9.44556e-05 0)
(-0.206268 -0.00306752 0)
(-0.204362 -0.00632816 0)
(-0.201895 -0.00969672 0)
(-0.198847 -0.0131831 0)
(-0.195183 -0.0167809 0)
(-0.190869 -0.0204821 0)
(-0.185872 -0.0242685 0)
(-0.180163 -0.0281188 0)
(-0.173707 -0.0319941 0)
(-0.166468 -0.0358346 0)
(-0.158422 -0.0395657 0)
(-0.149559 -0.0430933 0)
(-0.139881 -0.0463031 0)
(-0.129411 -0.049052 0)
(-0.118195 -0.0511923 0)
(-0.106335 -0.0525618 0)
(-0.0939585 -0.0530169 0)
(-0.0812407 -0.0524139 0)
(-0.0683841 -0.0506356 0)
(-0.0556867 -0.0476456 0)
(-0.0434871 -0.0434926 0)
(-0.0319991 -0.0382179 0)
(-0.0214882 -0.0319737 0)
(-0.0121928 -0.02498 0)
(-0.0042979 -0.017518 0)
(0.00206617 -0.00990854 0)
(0.00684326 -0.00247999 0)
(0.0100433 0.00440982 0)
(0.0117037 0.0103816 0)
(0.0118471 0.0150206 0)
(0.0105452 0.017899 0)
(0.00794837 0.0186013 0)
(0.00437708 0.0163725 0)
(0.000609813 0.00884448 0)
(0.000517905 -0.00583154 0)
(0.00219917 -0.00978803 0)
(0.00308775 -0.00925544 0)
(0.00333066 -0.00732113 0)
(0.00303435 -0.0050346 0)
(0.00226897 -0.00274822 0)
(0.00105676 -0.000565959 0)
(-0.000618017 0.00149218 0)
(-0.00280056 0.00345443 0)
(-0.00555573 0.00537898 0)
(-0.00895974 0.00733855 0)
(-0.0130928 0.00940782 0)
(-0.0180332 0.0116538 0)
(-0.0238514 0.0141296 0)
(-0.0306019 0.0168691 0)
(-0.0383125 0.0198821 0)
(-0.0469728 0.0231503 0)
(-0.0565243 0.02662 0)
(-0.0668477 0.0301909 0)
(-0.0777645 0.0337329 0)
(-0.0890446 0.0370919 0)
(-0.10045 0.0401491 0)
(-0.111754 0.0427497 0)
(-0.122705 0.0447404 0)
(-0.133051 0.0460902 0)
(-0.142677 0.0467841 0)
(-0.151539 0.0468493 0)
(-0.159637 0.0463658 0)
(-0.167015 0.0454119 0)
(-0.173704 0.044059 0)
(-0.179747 0.042373 0)
(-0.185181 0.0404096 0)
(-0.190052 0.0382171 0)
(-0.194393 0.03583 0)
(-0.198238 0.0332837 0)
(-0.20162 0.0306041 0)
(-0.204557 0.0278116 0)
(-0.20707 0.0249235 0)
(-0.209177 0.021953 0)
(-0.210885 0.0189091 0)
(-0.212199 0.0157961 0)
(-0.21312 0.0126181 0)
(-0.213651 0.00936583 0)
(-0.213788 0.00603149 0)
(-0.213526 0.00260374 0)
(-0.212859 -0.000932402 0)
(-0.211775 -0.00459143 0)
(-0.21025 -0.00837707 0)
(-0.20825 -0.01229 0)
(-0.205749 -0.0163393 0)
(-0.202722 -0.0205301 0)
(-0.199127 -0.0248563 0)
(-0.194915 -0.0292955 0)
(-0.190046 -0.0338315 0)
(-0.1845 -0.0384469 0)
(-0.178218 -0.0430773 0)
(-0.171139 -0.0476284 0)
(-0.163226 -0.0519914 0)
(-0.154459 -0.0560452 0)
(-0.14481 -0.0596192 0)
(-0.134299 -0.0625332 0)
(-0.122959 -0.0645873 0)
(-0.110885 -0.0655959 0)
(-0.0982268 -0.0653377 0)
(-0.0851929 -0.0636757 0)
(-0.0719692 -0.0604941 0)
(-0.0589464 -0.0558101 0)
(-0.0464847 -0.0497427 0)
(-0.034839 -0.0424374 0)
(-0.0243095 -0.0341493 0)
(-0.0151402 -0.0252148 0)
(-0.00750964 -0.0160279 0)
(-0.00151223 -0.00699874 0)
(0.00284597 0.00146053 0)
(0.00562312 0.00894013 0)
(0.00690554 0.0150154 0)
(0.00679416 0.0192373 0)
(0.00538958 0.0210722 0)
(0.00308463 0.0195153 0)
(0.000347577 0.0109465 0)
(0.000533255 -0.00705826 0)
(0.00162563 -0.0107753 0)
(0.00175586 -0.00947446 0)
(0.00124209 -0.00691444 0)
(0.00021539 -0.00413745 0)
(-0.00127577 -0.00139491 0)
(-0.00323458 0.00125479 0)
(-0.00570234 0.00382518 0)
(-0.00874703 0.00636744 0)
(-0.0124516 0.00895279 0)
(-0.016903 0.0116582 0)
(-0.022183 0.0145545 0)
(-0.0283592 0.0176974 0)
(-0.0354769 0.0211201 0)
(-0.0435495 0.0248261 0)
(-0.0525458 0.0287808 0)
(-0.0623808 0.0329092 0)
(-0.0729124 0.0371096 0)
(-0.0839458 0.0412178 0)
(-0.095235 0.0450739 0)
(-0.106554 0.0485241 0)
(-0.117626 0.0513598 0)
(-0.128152 0.0534871 0)
(-0.137965 0.0548381 0)
(-0.147014 0.0554288 0)
(-0.155302 0.0553417 0)
(-0.162858 0.0546562 0)
(-0.169733 0.0534661 0)
(-0.175972 0.051849 0)
(-0.181621 0.0498808 0)
(-0.186726 0.0476237 0)
(-0.191324 0.0451283 0)
(-0.195448 0.0424378 0)
(-0.199127 0.0395857 0)
(-0.202392 0.0366014 0)
(-0.205263 0.0335058 0)
(-0.20776 0.0303175 0)
(-0.209898 0.0270535 0)
(-0.21168 0.0237274 0)
(-0.213112 0.0203504 0)
(-0.214234 0.0168648 0)
(-0.215036 0.0133188 0)
(-0.215513 0.0097004 0)
(-0.21566 0.00600048 0)
(-0.21547 0.00220732 0)
(-0.214935 -0.00169373 0)
(-0.21405 -0.00571903 0)
(-0.212821 -0.00988782 0)
(-0.211237 -0.0142228 0)
(-0.209276 -0.0187357 0)
(-0.206915 -0.0234447 0)
(-0.204132 -0.0283665 0)
(-0.200869 -0.0334488 0)
(-0.197057 -0.038673 0)
(-0.192604 -0.0439876 0)
(-0.187457 -0.0493488 0)
(-0.181554 -0.0546824 0)
(-0.174816 -0.0598643 0)
(-0.167241 -0.0648168 0)
(-0.158718 -0.0693157 0)
(-0.149225 -0.0731481 0)
(-0.138747 -0.0760803 0)
(-0.127318 -0.0778548 0)
(-0.115011 -0.0782237 0)
(-0.102005 -0.0769806 0)
(-0.0885227 -0.0739381 0)
(-0.0748285 -0.0690288 0)
(-0.0613566 -0.0623606 0)
(-0.0485191 -0.0541499 0)
(-0.0366347 -0.0446577 0)
(-0.0260286 -0.0342739 0)
(-0.0169556 -0.0234725 0)
(-0.00957907 -0.012762 0)
(-0.00395339 -0.00264493 0)
(-3.37493e-05 0.00640201 0)
(0.00230566 0.0139233 0)
(0.00323106 0.0194576 0)
(0.00291327 0.0224055 0)
(0.00167738 0.0214662 0)
(8.24049e-05 0.0121931 0)
(0.000490947 -0.00797599 0)
(0.000859015 -0.0110194 0)
(0.000176978 -0.00888781 0)
(-0.00110909 -0.00575223 0)
(-0.00289126 -0.00249486 0)
(-0.00514205 0.000716755 0)
(-0.00788743 0.00387192 0)
(-0.0111905 0.00701453 0)
(-0.0151353 0.0102132 0)
(-0.0198125 0.0135446 0)
(-0.0253069 0.0170799 0)
(-0.0316862 0.0208739 0)
(-0.0389907 0.0249568 0)
(-0.0472241 0.0293264 0)
(-0.0563448 0.0339396 0)
(-0.066253 0.0387063 0)
(-0.0768084 0.0435012 0)
(-0.0877923 0.0481509 0)
(-0.098957 0.0524978 0)
(-0.110053 0.0563053 0)
(-0.120761 0.0594048 0)
(-0.130821 0.0616618 0)
(-0.14014 0.063044 0)
(-0.148698 0.063613 0)
(-0.156513 0.0634469 0)
(-0.163625 0.0626446 0)
(-0.170087 0.0612981 0)
(-0.175954 0.0594976 0)
(-0.18127 0.0573182 0)
(-0.18608 0.0548297 0)
(-0.190422 0.0520892 0)
(-0.194325 0.0491435 0)
(-0.197816 0.0460304 0)
(-0.200919 0.0427811 0)
(-0.203654 0.0394225 0)
(-0.206036 0.0359773 0)
(-0.208072 0.0324672 0)
(-0.209813 0.0288703 0)
(-0.211267 0.0252043 0)
(-0.212447 0.021469 0)
(-0.213338 0.0177131 0)
(-0.213953 0.0138821 0)
(-0.214294 0.00997232 0)
(-0.214365 0.00597287 0)
(-0.214171 0.00187172 0)
(-0.213713 -0.0023428 0)
(-0.212993 -0.00668458 0)
(-0.212007 -0.0111752 0)
(-0.210746 -0.0158335 0)
(-0.209195 -0.0206739 0)
(-0.207337 -0.0257063 0)
(-0.205143 -0.0309339 0)
(-0.202595 -0.0364156 0)
(-0.199657 -0.0421325 0)
(-0.19628 -0.048059 0)
(-0.192405 -0.0541556 0)
(-0.18796 -0.0603694 0)
(-0.182792 -0.0664814 0)
(-0.176698 -0.0723164 0)
(-0.169645 -0.0777662 0)
(-0.161566 -0.0826213 0)
(-0.152385 -0.0866122 0)
(-0.14206 -0.0894257 0)
(-0.130591 -0.0907388 0)
(-0.118071 -0.0902517 0)
(-0.104662 -0.0877307 0)
(-0.0906387 -0.0830025 0)
(-0.0763638 -0.0760713 0)
(-0.0623414 -0.0671579 0)
(-0.0490719 -0.0566203 0)
(-0.036922 -0.0448574 0)
(-0.0262476 -0.032424 0)
(-0.0173121 -0.0199383 0)
(-0.0102516 -0.00802165 0)
(-0.00507219 0.00273781 0)
(-0.00165217 0.0118084 0)
(0.000227808 0.0186771 0)
(0.000857707 0.0227067 0)
(0.000560274 0.0223899 0)
(-7.21967e-05 0.0127018 0)
(0.000408729 -0.00839894 0)
(-5.14996e-05 -0.010446 0)
(-0.00156884 -0.00749306 0)
(-0.00362584 -0.00381337 0)
(-0.00617591 -8.34746e-05 0)
(-0.00920337 0.00361407 0)
(-0.012752 0.00731332 0)
(-0.0169012 0.0110823 0)
(-0.0217424 0.0149985 0)
(-0.0273632 0.0191336 0)
(-0.0338336 0.0235412 0)
(-0.041194 0.028247 0)
(-0.0494455 0.033242 0)
(-0.0585429 0.0384743 0)
(-0.0683856 0.0438528 0)
(-0.0788266 0.0492338 0)
(-0.0896421 0.0544282 0)
(-0.100596 0.0592441 0)
(-0.111384 0.063435 0)
(-0.121696 0.0668107 0)
(-0.131342 0.0692452 0)
(-0.140246 0.0707451 0)
(-0.148398 0.0713685 0)
(-0.155819 0.0712063 0)
(-0.162557 0.070355 0)
(-0.168667 0.0689196 0)
(-0.174204 0.0669926 0)
(-0.179214 0.0646581 0)
(-0.18374 0.061988 0)
(-0.187818 0.0590445 0)
(-0.191476 0.0558784 0)
(-0.19474 0.0525323 0)
(-0.197635 0.0490416 0)
(-0.200181 0.0454338 0)
(-0.2024 0.041732 0)
(-0.20431 0.0379539 0)
(-0.205936 0.0341105 0)
(-0.207265 0.0302361 0)
(-0.208316 0.0263165 0)
(-0.209106 0.0223463 0)
(-0.209644 0.0183255 0)
(-0.209948 0.0142408 0)
(-0.210034 0.0100886 0)
(-0.209915 0.00585746 0)
(-0.209602 0.00153318 0)
(-0.209107 -0.00290074 0)
(-0.208429 -0.00746434 0)
(-0.207567 -0.0121823 0)
(-0.20652 -0.0170792 0)
(-0.205287 -0.0221784 0)
(-0.203858 -0.0275013 0)
(-0.202218 -0.0330635 0)
(-0.200346 -0.038875 0)
(-0.198212 -0.0449332 0)
(-0.195768 -0.051224 0)
(-0.192954 -0.0577141 0)
(-0.189687 -0.0643392 0)
(-0.185909 -0.0711397 0)
(-0.181511 -0.0779448 0)
(-0.176353 -0.0845647 0)
(-0.170131 -0.0905532 0)
(-0.162679 -0.0956903 0)
(-0.153978 -0.0997504 0)
(-0.143905 -0.102313 0)
(-0.132458 -0.102994 0)
(-0.119709 -0.101441 0)
(-0.105841 -0.0973696 0)
(-0.0911949 -0.0906735 0)
(-0.0762324 -0.0814392 0)
(-0.0615996 -0.0700606 0)
(-0.0478783 -0.0570714 0)
(-0.0354886 -0.0430428 0)
(-0.024825 -0.0287125 0)
(-0.0161392 -0.0148393 0)
(-0.00952121 -0.00216011 0)
(-0.0049008 0.00865444 0)
(-0.00204428 0.0169974 0)
(-0.000592867 0.0220826 0)
(-0.000112696 0.022441 0)
(-7.95144e-05 0.0127063 0)
(0.000247421 -0.0083412 0)
(-0.00107491 -0.00904337 0)
(-0.00340628 -0.00529243 0)
(-0.00622343 -0.0010954 0)
(-0.00953757 0.00310127 0)
(-0.0133365 0.00730131 0)
(-0.0176778 0.0115772 0)
(-0.0226497 0.0160125 0)
(-0.0283421 0.0206829 0)
(-0.034829 0.0256436 0)
(-0.0421552 0.0309182 0)
(-0.050325 0.0364922 0)
(-0.0592947 0.042306 0)
(-0.0689763 0.0482634 0)
(-0.0792213 0.0542132 0)
(-0.0897963 0.0599492 0)
(-0.10047 0.0652447 0)
(-0.110931 0.0698521 0)
(-0.120878 0.0735526 0)
(-0.130176 0.076254 0)
(-0.138736 0.0779513 0)
(-0.146547 0.0787075 0)
(-0.153637 0.0786119 0)
(-0.160053 0.0777749 0)
(-0.165853 0.0763049 0)
(-0.171089 0.0743033 0)
(-0.175808 0.0718574 0)
(-0.180048 0.0690446 0)
(-0.183844 0.065931 0)
(-0.187226 0.0625729 0)
(-0.190217 0.059018 0)
(-0.192841 0.0553061 0)
(-0.195121 0.0514709 0)
(-0.197077 0.0475402 0)
(-0.198729 0.0435364 0)
(-0.200095 0.0394759 0)
(-0.201193 0.0353693 0)
(-0.202037 0.0312268 0)
(-0.202646 0.0270499 0)
(-0.203041 0.0228397 0)
(-0.203235 0.0185965 0)
(-0.203246 0.0143106 0)
(-0.203088 0.00997374 0)
(-0.202776 0.00557241 0)
(-0.202321 0.00108986 0)
(-0.201735 -0.00349422 0)
(-0.201025 -0.00820265 0)
(-0.2002 -0.01306 0)
(-0.199268 -0.018092 0)
(-0.198234 -0.0233254 0)
(-0.1971 -0.0287867 0)
(-0.195861 -0.0345013 0)
(-0.194508 -0.0404925 0)
(-0.193022 -0.0467738 0)
(-0.191375 -0.0533496 0)
(-0.189519 -0.0602068 0)
(-0.187386 -0.0673051 0)
(-0.184894 -0.0745727 0)
(-0.181936 -0.0819021 0)
(-0.178357 -0.089141 0)
(-0.174032 -0.0962463 0)
(-0.168759 -0.102849 0)
(-0.162135 -0.108316 0)
(-0.153986 -0.112342 0)
(-0.144232 -0.114544 0)
(-0.132805 -0.114434 0)
(-0.119774 -0.111579 0)
(-0.105368 -0.105708 0)
(-0.0899969 -0.0967593 0)
(-0.0742756 -0.0849602 0)
(-0.0590079 -0.0709417 0)
(-0.0448653 -0.0554463 0)
(-0.032343 -0.0392579 0)
(-0.0218456 -0.0232943 0)
(-0.01359 -0.00847054 0)
(-0.00759684 0.00434996 0)
(-0.00365894 0.0144024 0)
(-0.00142699 0.0207202 0)
(-0.000340837 0.0219388 0)
(-1.63789e-06 0.012567 0)
(3.39536e-05 -0.00764387 0)
(-0.00216747 -0.00680505 0)
(-0.00527012 -0.00229916 0)
(-0.00882256 0.0023852 0)
(-0.0128773 0.00704304 0)
(-0.01742 0.0117575 0)
(-0.0225158 0.0166309 0)
(-0.0282546 0.0217519 0)
(-0.0347161 0.0271836 0)
(-0.0419527 0.0329527 0)
(-0.0499773 0.0390427 0)
(-0.0587537 0.0453892 0)
(-0.0682062 0.0518921 0)
(-0.078197 0.0583927 0)
(-0.0884963 0.064664 0)
(-0.0988593 0.0704613 0)
(-0.108999 0.0755254 0)
(-0.118641 0.0796262 0)
(-0.127641 0.0826725 0)
(-0.135919 0.0846514 0)
(-0.143447 0.0856086 0)
(-0.150259 0.0856484 0)
(-0.156401 0.0848846 0)
(-0.161927 0.0834338 0)
(-0.166889 0.0814022 0)
(-0.171332 0.0788837 0)
(-0.175293 0.07596 0)
(-0.178805 0.0727025 0)
(-0.181899 0.0691728 0)
(-0.184599 0.0654245 0)
(-0.186932 0.0615025 0)
(-0.188921 0.0574461 0)
(-0.19059 0.0532886 0)
(-0.191962 0.0490569 0)
(-0.193059 0.0447719 0)
(-0.193902 0.0404487 0)
(-0.194513 0.036099 0)
(-0.194911 0.0317323 0)
(-0.195117 0.0273513 0)
(-0.195147 0.0229563 0)
(-0.19502 0.0185443 0)
(-0.194749 0.0141063 0)
(-0.194351 0.00963164 0)
(-0.19384 0.00510577 0)
(-0.193229 0.000511182 0)
(-0.192531 -0.00417317 0)
(-0.19176 -0.00896946 0)
(-0.190928 -0.0139035 0)
(-0.190049 -0.0190024 0)
(-0.189133 -0.0242952 0)
(-0.188188 -0.0298115 0)
(-0.187221 -0.0355814 0)
(-0.186232 -0.0416336 0)
(-0.185216 -0.0479914 0)
(-0.184157 -0.0546716 0)
(-0.183026 -0.0616793 0)
(-0.181777 -0.0690038 0)
(-0.180344 -0.0766135 0)
(-0.178633 -0.0844324 0)
(-0.176512 -0.0923344 0)
(-0.173824 -0.10013 0)
(-0.17036 -0.107573 0)
(-0.165888 -0.114474 0)
(-0.160101 -0.120292 0)
(-0.152534 -0.124246 0)
(-0.143082 -0.125989 0)
(-0.13161 -0.124899 0)
(-0.118198 -0.12051 0)
(-0.103139 -0.112556 0)
(-0.086952 -0.101057 0)
(-0.0704368 -0.0864599 0)
(-0.0545664 -0.069668 0)
(-0.0401336 -0.0517061 0)
(-0.027684 -0.0335721 0)
(-0.0176002 -0.0163944 0)
(-0.0100396 -0.00126856 0)
(-0.00487911 0.0108178 0)
(-0.00182858 0.0187142 0)
(-0.000273166 0.0210521 0)
(0.00015867 0.0124238 0)
(-0.000216382 -0.00631005 0)
(-0.00327228 -0.00375775 0)
(-0.00709684 0.00145479 0)
(-0.0113448 0.0065955 0)
(-0.0160999 0.0117055 0)
(-0.0213373 0.0169375 0)
(-0.0271248 0.022413 0)
(-0.0335471 0.0282156 0)
(-0.0406672 0.0343844 0)
(-0.0485106 0.0409081 0)
(-0.0570552 0.0477214 0)
(-0.0662394 0.0547204 0)
(-0.0759374 0.0617425 0)
(-0.0859348 0.0685425 0)
(-0.0959896 0.0748607 0)
(-0.10583 0.0804279 0)
(-0.115212 0.0850078 0)
(-0.123971 0.0884808 0)
(-0.132016 0.0908158 0)
(-0.13932 0.092055 0)
(-0.145904 0.0922978 0)
(-0.151816 0.091669 0)
(-0.157108 0.0902893 0)
(-0.161828 0.0882722 0)
(-0.16602 0.085718 0)
(-0.169722 0.0827144 0)
(-0.172966 0.0793385 0)
(-0.175783 0.0756583 0)
(-0.178203 0.0717334 0)
(-0.180253 0.0676153 0)
(-0.18196 0.0633495 0)
(-0.183354 0.0589753 0)
(-0.18446 0.0545247 0)
(-0.185303 0.0500232 0)
(-0.185907 0.0454907 0)
(-0.186296 0.0409428 0)
(-0.186492 0.0363908 0)
(-0.186514 0.0318415 0)
(-0.186381 0.0272968 0)
(-0.18611 0.0227554 0)
(-0.185715 0.0182121 0)
(-0.185211 0.0136581 0)
(-0.184611 0.00908163 0)
(-0.183931 0.00446812 0)
(-0.183185 -0.000199884 0)
(-0.182386 -0.00494277 0)
(-0.181549 -0.00978305 0)
(-0.180689 -0.0147464 0)
(-0.179824 -0.0198608 0)
(-0.178967 -0.0251562 0)
(-0.178133 -0.0306646 0)
(-0.177334 -0.036419 0)
(-0.176581 -0.0424525 0)
(-0.175878 -0.0487957 0)
(-0.175221 -0.0554747 0)
(-0.174596 -0.0625076 0)
(-0.173977 -0.069901 0)
(-0.173317 -0.0776438 0)
(-0.172547 -0.085696 0)
(-0.171564 -0.0939821 0)
(-0.170227 -0.102378 0)
(-0.168349 -0.110671 0)
(-0.165697 -0.118561 0)
(-0.161971 -0.125665 0)
(-0.156833 -0.13158 0)
(-0.149779 -0.135421 0)
(-0.140517 -0.136556 0)
(-0.128875 -0.134274 0)
(-0.114942 -0.12807 0)
(-0.0990977 -0.117704 0)
(-0.0820277 -0.103341 0)
(-0.0647394 -0.085717 0)
(-0.048414 -0.0660992 0)
(-0.0339477 -0.0458106 0)
(-0.0218891 -0.0261031 0)
(-0.0125821 -0.00836414 0)
(-0.0060461 0.00613993 0)
(-0.00207375 0.0160788 0)
(-7.01807e-05 0.0199573 0)
(0.000326133 0.0124756 0)
(-0.000486048 -0.00432456 0)
(-0.00434019 5.30332e-05 0)
(-0.00882913 0.00592035 0)
(-0.0137216 0.0114859 0)
(-0.0191188 0.0170338 0)
(-0.0249828 0.0227744 0)
(-0.0313786 0.0288385 0)
(-0.0383801 0.0352941 0)
(-0.0460295 0.0421475 0)
(-0.0543234 0.0493407 0)
(-0.0632182 0.0567688 0)
(-0.0726044 0.0642673 0)
(-0.0822867 0.071576 0)
(-0.0920398 0.0784299 0)
(-0.101612 0.0845414 0)
(-0.110766 0.0896645 0)
(-0.119332 0.0936462 0)
(-0.127198 0.096419 0)
(-0.13433 0.0980203 0)
(-0.140739 0.0985426 0)
(-0.146469 0.0981122 0)
(-0.151568 0.0968595 0)
(-0.156085 0.0949039 0)
(-0.160062 0.0923535 0)
(-0.163537 0.0893032 0)
(-0.166545 0.0858372 0)
(-0.169117 0.0820304 0)
(-0.171286 0.0779493 0)
(-0.173085 0.0736528 0)
(-0.174544 0.0691931 0)
(-0.175696 0.0646158 0)
(-0.176571 0.0599582 0)
(-0.177196 0.0552508 0)
(-0.177597 0.0505177 0)
(-0.177801 0.045778 0)
(-0.177829 0.0410457 0)
(-0.177702 0.0363296 0)
(-0.177436 0.0316342 0)
(-0.177048 0.02696 0)
(-0.176552 0.0223039 0)
(-0.17596 0.0176599 0)
(-0.175286 0.0130185 0)
(-0.17454 0.00836815 0)
(-0.173736 0.00369425 0)
(-0.172887 -0.00101995 0)
(-0.172006 -0.00579332 0)
(-0.171109 -0.0106486 0)
(-0.170213 -0.0156105 0)
(-0.169334 -0.0207063 0)
(-0.168492 -0.0259661 0)
(-0.167704 -0.0314226 0)
(-0.166989 -0.0371107 0)
(-0.166363 -0.0430665 0)
(-0.16584 -0.0493258 0)
(-0.165428 -0.0559228 0)
(-0.165126 -0.0628867 0)
(-0.164921 -0.0702387 0)
(-0.164786 -0.0779858 0)
(-0.164673 -0.0861135 0)
(-0.164505 -0.094578 0)
(-0.164171 -0.103295 0)
(-0.163516 -0.112119 0)
(-0.162332 -0.120831 0)
(-0.160348 -0.129094 0)
(-0.157234 -0.136449 0)
(-0.152572 -0.142307 0)
(-0.145845 -0.145851 0)
(-0.136599 -0.146179 0)
(-0.124599 -0.14243 0)
(-0.109976 -0.134054 0)
(-0.0932258 -0.120882 0)
(-0.0752418 -0.103304 0)
(-0.0573241 -0.0824628 0)
(-0.0408374 -0.0600762 0)
(-0.0267295 -0.037739 0)
(-0.0155253 -0.0170924 0)
(-0.00746452 0.000244223 0)
(-0.00243554 0.0127474 0)
(8.47379e-05 0.018648 0)
(0.000472295 0.0127145 0)
(-0.000754825 -0.00173327 0)
(-0.00533696 0.00456046 0)
(-0.0104198 0.0110319 0)
(-0.0158916 0.0169922 0)
(-0.0218588 0.0229567 0)
(-0.0282666 0.029184 0)
(-0.0351723 0.0358048 0)
(-0.0426354 0.0428634 0)
(-0.0506761 0.0503249 0)
(-0.0592739 0.0580919 0)
(-0.0683418 0.0660006 0)
(-0.0777048 0.0737793 0)
(-0.0871628 0.081164 0)
(-0.0964877 0.0878511 0)
(-0.105444 0.0935678 0)
(-0.113856 0.0981291 0)
(-0.121594 0.101429 0)
(-0.128604 0.103476 0)
(-0.134891 0.104359 0)
(-0.140488 0.104199 0)
(-0.145443 0.103134 0)
(-0.149802 0.101293 0)
(-0.153608 0.0987907 0)
(-0.1569 0.0957319 0)
(-0.159713 0.0922083 0)
(-0.162083 0.088303 0)
(-0.164045 0.0840902 0)
(-0.165636 0.0796366 0)
(-0.166892 0.075002 0)
(-0.167849 0.0702383 0)
(-0.168539 0.0653882 0)
(-0.168993 0.0604874 0)
(-0.16924 0.0555645 0)
(-0.169305 0.0506413 0)
(-0.169213 0.0457345 0)
(-0.168981 0.0408552 0)
(-0.168628 0.0360094 0)
(-0.168167 0.0311995 0)
(-0.16761 0.026424 0)
(-0.166968 0.0216788 0)
(-0.166251 0.0169568 0)
(-0.165469 0.0122486 0)
(-0.164631 0.00754273 0)
(-0.163747 0.00282534 0)
(-0.162829 -0.00191931 0)
(-0.16189 -0.00670908 0)
(-0.160943 -0.0115648 0)
(-0.160006 -0.0165096 0)
(-0.159097 -0.0215694 0)
(-0.158235 -0.0267732 0)
(-0.157443 -0.0321532 0)
(-0.156743 -0.0377443 0)
(-0.156158 -0.0435845 0)
(-0.155708 -0.049713 0)
(-0.155409 -0.0561699 0)
(-0.155274 -0.0629932 0)
(-0.155304 -0.0702165 0)
(-0.155487 -0.0778635 0)
(-0.155793 -0.0859428 0)
(-0.15617 -0.094439 0)
(-0.156533 -0.103302 0)
(-0.156761 -0.112434 0)
(-0.156678 -0.121669 0)
(-0.156051 -0.130752 0)
(-0.154574 -0.139304 0)
(-0.151872 -0.146792 0)
(-0.14748 -0.15252 0)
(-0.140836 -0.155551 0)
(-0.131372 -0.154787 0)
(-0.118786 -0.149187 0)
(-0.10329 -0.138174 0)
(-0.0855361 -0.121699 0)
(-0.0667036 -0.100533 0)
(-0.0484716 -0.0763759 0)
(-0.0322751 -0.0514029 0)
(-0.0190649 -0.0275985 0)
(-0.00931846 -0.00699266 0)
(-0.00308675 0.00858878 0)
(8.03342e-05 0.0170224 0)
(0.00059007 0.0130719 0)
(-0.000987088 0.00146097 0)
(-0.00621744 0.00969432 0)
(-0.0118276 0.0167191 0)
(-0.0178051 0.0230398 0)
(-0.0242597 0.029391 0)
(-0.0311177 0.0360699 0)
(-0.0384255 0.0431994 0)
(-0.0462275 0.0507923 0)
(-0.0545318 0.0587772 0)
(-0.0632821 0.0670036 0)
(-0.0723258 0.0751929 0)
(-0.0814933 0.0830744 0)
(-0.0905831 0.0903444 0)
(-0.0993617 0.0966908 0)
(-0.10765 0.101893 0)
(-0.115302 0.105804 0)
(-0.122241 0.108389 0)
(-0.128456 0.109717 0)
(-0.133973 0.109908 0)
(-0.138834 0.109101 0)
(-0.143086 0.107433 0)
(-0.14677 0.105032 0)
(-0.149927 0.102009 0)
(-0.152595 0.0984662 0)
(-0.154813 0.0944955 0)
(-0.156619 0.0901799 0)
(-0.158053 0.0855943 0)
(-0.159156 0.0808066 0)
(-0.159967 0.0758757 0)
(-0.160522 0.0708501 0)
(-0.160854 0.0657706 0)
(-0.160996 0.06067 0)
(-0.160972 0.0555738 0)
(-0.160807 0.0505005 0)
(-0.16052 0.0454632 0)
(-0.160125 0.0404698 0)
(-0.159637 0.0355234 0)
(-0.159065 0.0306243 0)
(-0.158417 0.0257693 0)
(-0.157701 0.020953 0)
(-0.156923 0.0161681 0)
(-0.156089 0.011405 0)
(-0.155206 0.00665288 0)
(-0.154282 0.00189902 0)
(-0.153325 -0.00287093 0)
(-0.152348 -0.00767314 0)
(-0.151363 -0.0125261 0)
(-0.150386 -0.0174507 0)
(-0.149435 -0.0224705 0)
(-0.148532 -0.0276124 0)