/*--------------------------------*- C++ -*----------------------------------*\
  =========                 |
  \\      /  F ield         | OpenFOAM: The Open Source CFD Toolbox
   \\    /   O peration     | Website:  https://openfoam.org
    \\  /    A nd           | Version:  13
     \\/     M anipulation  |
\*---------------------------------------------------------------------------*/
FoamFile
{
    format      ascii;
    class       volScalarField;
    location    "6.5";
    object      epsilon;
}
// * * * * * * * * * * * * * * * * * * * * * * * * * * * * * * * * * * * * * //

dimensions      [0 2 -3 0 0 0 0];

internalField   nonuniform List<scalar> 
400
(
1.38588e-05
4.05083e-05
0.000204442
0.000504108
0.000728691
0.00088978
0.00101892
0.00114152
0.00124784
0.00135652
0.00145753
0.00156423
0.00167101
0.00174604
0.00178058
0.00178479
0.00165959
0.00131397
0.000808257
0.00058439
6.6687e-05
0.000193249
0.000566984
0.00087961
0.000960603
0.000995667
0.00100747
0.00105043
0.00109463
0.00117573
0.00127453
0.0014047
0.00155899
0.00174312
0.00194814
0.00215728
0.00225825
0.00226978
0.00180874
0.00121108
0.000243511
0.000647272
0.000910691
0.000956499
0.000956868
0.000956204
0.000951943
0.000989637
0.00104844
0.00112484
0.00121049
0.00130615
0.00141732
0.00155621
0.00172879
0.00194063
0.00213334
0.0022145
0.00205376
0.00157399
0.000568435
0.000938374
0.000987361
0.000933976
0.000902919
0.000875202
0.000871787
0.000901889
0.000934412
0.000970432
0.00101127
0.00106978
0.00116012
0.00129246
0.00149057
0.00176406
0.00206643
0.00220245
0.00217466
0.00180817
0.000848893
0.00108188
0.000970797
0.000868197
0.00079899
0.000764378
0.00074823
0.000740957
0.000732252
0.000728957
0.000736862
0.000773395
0.000851156
0.000990052
0.00122155
0.00157471
0.00204594
0.0023282
0.00236396
0.0019845
0.00102133
0.00108625
0.000918045
0.000773225
0.000699633
0.000651267
0.000610862
0.000569386
0.000527627
0.000500757
0.000490737
0.000503151
0.000567855
0.000699813
0.000942906
0.00135337
0.00197143
0.00250118
0.00262895
0.00212524
0.00105948
0.00105221
0.000832447
0.000688253
0.000611442
0.000549812
0.000489421
0.000427056
0.000369919
0.000330957
0.000314058
0.000312619
0.000358301
0.00046777
0.000691724
0.0011165
0.0018416
0.00266856
0.00293389
0.00223466
0.00104407
0.000976055
0.000752377
0.000617643
0.000539635
0.000469514
0.000397997
0.000327698
0.000267922
0.00022672
0.000207245
0.000202659
0.000229458
0.000309666
0.000493766
0.000890426
0.00165567
0.00277032
0.00330182
0.0023223
0.001003
0.000882022
0.000681961
0.000560982
0.000484992
0.00041199
0.000337115
0.00026687
0.000210334
0.000172149
0.000153774
0.000149046
0.000165309
0.000218684
0.000358277
0.000707878
0.00149338
0.00280529
0.00366557
0.00238293
0.000919444
0.000802763
0.000625449
0.000518351
0.000446216
0.000374386
0.000301154
0.000234628
0.00018297
0.000148661
0.0001314
0.000127147
0.000138054
0.000175164
0.000276754
0.000567653
0.00132838
0.00280961
0.00405081
0.00242571
0.000831736
0.000731563
0.000578955
0.00048473
0.00041817
0.000351185
0.00028278
0.000221955
0.000175695
0.000144359
0.000126731
0.000121958
0.000130061
0.00015834
0.000237915
0.000475759
0.00118218
0.00276921
0.00439561
0.00244553
0.000755762
0.000688565
0.000547558
0.000462811
0.000401337
0.000339223
0.000277796
0.000223124
0.000179436
0.00014955
0.000132356
0.000126966
0.000132218
0.000154999
0.000224287
0.000430636
0.0010654
0.00272377
0.00469767
0.0024526
0.000672979
0.000644659
0.000528488
0.000446434
0.000389432
0.000335283
0.000280143
0.000229575
0.000189977
0.000162396
0.0001456
0.000140274
0.000144853
0.000164298
0.000223544
0.000413874
0.00100308
0.00268692
0.00485093
0.00245028
0.000597595
0.000625652
0.000531765
0.000448747
0.00039158
0.000339043
0.000287837
0.000243094
0.000207383
0.000181835
0.000165172
0.000160387
0.00016522
0.000184939
0.000242419
0.000417636
0.000978707
0.00267136
0.00490694
0.00243612
0.000509316
0.000595118
0.000538857
0.000460245
0.000402739
0.000351496
0.000303613
0.000262493
0.000229587
0.000206183
0.000189792
0.000186828
0.000192844
0.000215542
0.000278318
0.00046006
0.000994718
0.00267938
0.00482627
0.00240396
0.000423401
0.000577999
0.000556736
0.000495933
0.000434862
0.000382335
0.000334807
0.000293691
0.000260504
0.000237637
0.000220832
0.000221172
0.00023022
0.000260853
0.00034016
0.000555188
0.0011116
0.00278738
0.00454272
0.00232429
0.000320783
0.000514098
0.000558467
0.000542072
0.000500248
0.000447638
0.000397357
0.000352613
0.000316472
0.000291351
0.000278175
0.000282473
0.000301456
0.000355211
0.000480878
0.000794401
0.0014352
0.0030694
0.00406714
0.00220276
0.000215509
0.000460423
0.000612043
0.000664493
0.000654756
0.000615271
0.000558528
0.000507854
0.000469373
0.000449991
0.000456923
0.00048663
0.000554571
0.000694731
0.000975354
0.00162342
0.0024263
0.00370733
0.00381424
0.002026
0.000257254
0.00047957
0.000826109
0.000995801
0.00106571
0.00107331
0.00106997
0.00107777
0.00111181
0.0011889
0.00133882
0.00158031
0.00191047
0.00245481
0.00312494
0.00416162
0.00475774
0.00451221
0.00380512
0.00177498
0.000185355
0.000296607
0.000550386
0.000788084
0.000983209
0.00110833
0.00118223
0.00122899
0.00125353
0.00127698
0.00129059
0.00131794
0.00134045
0.00138974
0.00142498
0.00150305
0.00157954
0.001664
0.00164684
0.00147273
)
;

boundaryField
{
    movingWall
    {
        type            epsilonWallFunction;
        value           nonuniform List<scalar> 
20
(
0.000185355
0.000296607
0.000550386
0.000788084
0.000983209
0.00110833
0.00118223
0.00122899
0.00125353
0.00127698
0.00129059
0.00131794
0.00134045
0.00138974
0.00142498
0.00150305
0.00157954
0.001664
0.00164684
0.00147273
)
;
    }
    fixedWalls
    {
        type            epsilonWallFunction;
        value           nonuniform List<scalar> 
60
(
1.38588e-05
6.6687e-05
0.000243511
0.000568435
0.000848893
0.00102133
0.00105948
0.00104407
0.001003
0.000919444
0.000831736
0.000755762
0.000672979
0.000597595
0.000509316
0.000423401
0.000320783
0.000215509
0.000257254
0.000185355
0.00058439
0.00121108
0.00157399
0.00180817
0.0019845
0.00212524
0.00223466
0.0023223
0.00238293
0.00242571
0.00244553
0.0024526
0.00245028
0.00243612
0.00240396
0.00232429
0.00220276
0.002026
0.00177498
0.00147273
1.38588e-05
4.05083e-05
0.000204442
0.000504108
0.000728691
0.00088978
0.00101892
0.00114152
0.00124784
0.00135652
0.00145753
0.00156423
0.00167101
0.00174604
0.00178058
0.00178479
0.00165959
0.00131397
0.000808257
0.00058439
)
;
    }
    frontAndBack
    {
        type            empty;
    }
}


// ************************************************************************* //
