/*--------------------------------*- C++ -*----------------------------------*\
  =========                 |
  \\      /  F ield         | OpenFOAM: The Open Source CFD Toolbox
   \\    /   O peration     | Website:  https://openfoam.org
    \\  /    A nd           | Version:  13
     \\/     M anipulation  |
\*---------------------------------------------------------------------------*/
FoamFile
{
    format      ascii;
    class       volScalarField;
    location    "6.5";
    object      k;
}
// * * * * * * * * * * * * * * * * * * * * * * * * * * * * * * * * * * * * * //

dimensions      [0 2 -2 0 0 0 0];

internalField   nonuniform List<scalar> 
1600
(
1.88627e-06
6.69672e-06
1.32559e-05
1.35976e-05
1.25843e-05
1.29596e-05
1.67017e-05
2.80362e-05
4.16175e-05
5.823e-05
9.14083e-05
0.000115445
0.000126868
0.000139402
0.000160051
0.000187673
0.000214168
0.000243968
0.000273588
0.000306672
0.000341407
0.000380499
0.000423516
0.000473177
0.000531514
0.000584771
0.00063851
0.000684841
0.000724855
0.000746633
0.00075528
0.000740027
0.000677667
0.000571897
0.000426553
0.000247871
0.000118185
4.86689e-05
1.52499e-05
3.12253e-06
9.15137e-06
4.37548e-05
8.517e-05
9.29937e-05
9.16186e-05
9.83923e-05
0.00013769
0.000232176
0.000322125
0.000430925
0.000634455
0.000738735
0.000763061
0.000765197
0.000765848
0.00079753
0.000819298
0.000858157
0.000892772
0.000938257
0.000984686
0.00103827
0.00109319
0.00114848
0.00120095
0.00126385
0.0013267
0.00139312
0.00145
0.00148328
0.00149505
0.00145957
0.00135329
0.00116253
0.000907667
0.000546475
0.000242613
9.9939e-05
3.48189e-05
5.468e-06
2.77133e-05
0.000114981
0.000184205
0.000199433
0.000219468
0.000288587
0.000471226
0.000759555
0.000998898
0.00108703
0.00103731
0.000931138
0.000879195
0.00086006
0.000855246
0.000860938
0.000872821
0.00089068
0.00091153
0.000937693
0.000964988
0.000991922
0.00102102
0.00105237
0.00108693
0.00112393
0.00116268
0.0012027
0.00124163
0.00127731
0.00129677
0.00130376
0.00128316
0.00116987
0.000986539
0.000618963
0.000226041
8.21183e-05
3.13073e-05
4.50342e-06
6.4429e-05
0.000238505
0.000335309
0.000377179
0.000471989
0.000690914
0.00100813
0.00118303
0.00121079
0.00107785
0.000978692
0.000895303
0.000860222
0.000846553
0.000842426
0.000845329
0.000854706
0.000866734
0.000880948
0.000897009
0.000913633
0.000933916
0.00095444
0.000976897
0.00100026
0.00102506
0.0010511
0.00107816
0.00110486
0.00112777
0.00114304
0.00114977
0.00115029
0.00112104
0.00105791
0.000878522
0.000371225
8.91793e-05
2.39099e-05
3.17798e-06
0.000123238
0.000420526
0.000552334
0.000643582
0.000828542
0.00110996
0.00125349
0.00126554
0.00114245
0.000968174
0.00087808
0.000836084
0.000818434
0.000812206
0.000811158
0.000821068
0.000834559
0.000851235
0.000869207
0.000887733
0.000905857
0.000923811
0.000941207
0.000959325
0.000978633
0.00100001
0.00102381
0.00104948
0.00107481
0.00109562
0.00110824
0.00111396
0.00111484
0.00109858
0.00106746
0.000990364
0.000737097
0.000204101
3.43552e-05
3.80358e-06
0.000208189
0.000648511
0.000815038
0.0009441
0.00114764
0.0012708
0.00128407
0.00118019
0.00096445
0.000858182
0.0008105
0.000790558
0.000784351
0.000784167
0.000797629
0.000813822
0.000832208
0.000850596
0.000868985
0.000886198
0.000902443
0.000918065
0.000933844
0.000950557
0.000969881
0.000992561
0.00101943
0.00105054
0.00108524
0.00112317
0.00114307
0.00114808
0.00114525
0.00112525
0.00108257
0.0010199
0.000880313
0.000422582
7.60419e-05
7.38704e-06
0.000317407
0.000884089
0.00107901
0.00119276
0.00127885
0.00129329
0.00120681
0.000982537
0.000847103
0.000790191
0.000767589
0.000760962
0.000761258
0.000775722
0.000792393
0.000808863
0.000825462
0.000840029
0.000852223
0.000862079
0.000871066
0.000880697
0.000893198
0.00090987
0.000931293
0.000958871
0.00099337
0.00103505
0.00108295
0.00113422
0.00118796
0.0012255
0.00123374
0.00122521
0.00117719
0.00107916
0.000936501
0.000667962
0.000155486
1.69223e-05
0.000434641
0.00111737
0.00128937
0.00132729
0.00132719
0.00123609
0.00103094
0.00085241
0.000777487
0.000748902
0.000740344
0.000739827
0.000752344
0.00076799
0.000781498
0.000793404
0.000800028
0.000802507
0.00080303
0.000803173
0.000805602
0.000811489
0.000821915
0.000837719
0.000860362
0.000891163
0.000931501
0.000982463
0.0010443
0.00111528
0.00118993
0.00125966
0.00130286
0.00131031
0.0012963
0.00121695
0.00104344
0.000766716
0.000267082
4.25821e-05
0.000536228
0.0013052
0.00143823
0.00141564
0.00129594
0.00110606
0.000882371
0.0007769
0.000735613
0.000722454
0.000720396
0.000728751
0.000742287
0.000751016
0.000754169
0.000754086
0.000746291
0.000739471
0.000732782
0.00072916
0.000727987
0.000730748
0.000739676
0.0007546
0.000777178
0.000808626
0.00085072
0.000905405
0.000974626
0.00105934
0.00115751
0.00126072
0.00134539
0.0013834
0.00138548
0.00134074
0.00119857
0.00092503
0.000485498
0.000114682
0.00061089
0.00143294
0.00153536
0.00141761
0.0012168
0.000959078
0.000797795
0.000732002
0.00070901
0.000703644
0.000706219
0.000715046
0.000718716
0.000717385
0.000709198
0.000697658
0.000683379
0.000671219
0.000660773
0.00065484
0.000652532
0.000653372
0.000661808
0.000676034
0.000697933
0.000728465
0.000769463
0.00082321
0.000892679
0.000981079
0.00109054
0.00121895
0.00135445
0.00144661
0.00147335
0.00145406
0.00132898
0.00104472
0.000591814
0.000204437
0.000664082
0.00151747
0.00159382
0.00139313
0.00110393
0.00085843
0.000746047
0.000702551
0.000688823
0.000686349
0.000689119
0.000690574
0.000685683
0.000673811
0.000657175
0.000639115
0.000621404
0.000606595
0.000594799
0.000588161
0.000585563
0.000585888
0.000594059
0.000607803
0.000628875
0.000658114
0.000697192
0.000748352
0.000814837
0.000900948
0.00101145
0.00114921
0.00130968
0.00147125
0.00155342
0.0015646
0.00148414
0.00121358
0.000733996
0.000292291
0.000693703
0.00155128
0.00159828
0.00133811
0.000998289
0.000795286
0.000711196
0.000679922
0.000670204
0.000667665
0.000666769
0.000660458
0.000646634
0.000627253
0.000605548
0.000584357
0.000565277
0.000549639
0.000537683
0.000530966
0.000528344
0.000528556
0.000536261
0.000549445
0.000569573
0.000597482
0.000634639
0.000683088
0.000745941
0.000827866
0.000935344
0.00107564
0.0012525
0.00145623
0.00160819
0.00165211
0.0016062
0.0013487
0.000850893
0.000363683
0.000692942
0.00154845
0.00158299
0.00126497
0.000917151
0.000751707
0.000684856
0.000659969
0.000651103
0.0006471
0.000640788
0.000627
0.000606533
0.000582581
0.00055836
0.000536037
0.000516727
0.000501094
0.000489313
0.000482531
0.000479841
0.000479812
0.000486738
0.000499138
0.000518189
0.000544773
0.0005802
0.000626261
0.000685675
0.000762747
0.000864186
0.000999318
0.0011776
0.00139973
0.00163135
0.00174004
0.00173751
0.00150647
0.000971077
0.000430893
0.000684293
0.00153055
0.00154585
0.00118861
0.000861072
0.000719143
0.000662733
0.000641077
0.000632109
0.000625319
0.000613284
0.000593574
0.000568775
0.000542409
0.000517237
0.000494787
0.000475726
0.000460345
0.000448726
0.00044164
0.000438642
0.000438355
0.000444202
0.000455599
0.000473444
0.000498689
0.000532576
0.000576734
0.000633546
0.00070685
0.000803095
0.000932619
0.00110932
0.00134416
0.00162603
0.00181324
0.00184422
0.00164801
0.00109026
0.000493208
0.000663636
0.00148999
0.00149035
0.0011217
0.000819615
0.000693036
0.000643102
0.000623173
0.000613713
0.000603433
0.000586447
0.000562539
0.000535183
0.00050775
0.000482446
0.000460284
0.0004416
0.000426472
0.00041491
0.000407354
0.000403917
0.000403298
0.000407955
0.000418173
0.000434681
0.000458487
0.000490839
0.000533278
0.000587908
0.000658008
0.00074924
0.000871526
0.00104054
0.00127449
0.00157772
0.00186005
0.00195067
0.00179586
0.00121064
0.000554316
0.000627439
0.00143753
0.0014279
0.00106618
0.000787358
0.000671319
0.000625648
0.000606862
0.000596354
0.00058269
0.00056187
0.0005352
0.000506469
0.000478713
0.000453642
0.000431893
0.000413584
0.000398667
0.000387106
0.000379047
0.000375106
0.000374112
0.000377607
0.000386549
0.000401609
0.000423857
0.000454598
0.000495389
0.000548209
0.00061595
0.000703571
0.000820295
0.000982477
0.00121331
0.00152803
0.00187941
0.00203886
0.00193496
0.00133398
0.000613796
0.000585547
0.00137801
0.00136342
0.00102094
0.000761838
0.00065305
0.000610344
0.000592435
0.000580539
0.000564038
0.000540467
0.000512089
0.000482701
0.000454988
0.000430277
0.00040895
0.000390983
0.000376252
0.000364675
0.000356272
0.000351775
0.000350383
0.000352832
0.000360481
0.000374028
0.000394599
0.000423588
0.000462634
0.000513698
0.000579391
0.00066393
0.00077538
0.000929586
0.00115353
0.00147621
0.00188279
0.00212128
0.00207144
0.00145777
0.000673045
0.00053589
0.00131993
0.00130164
0.000984877
0.000741987
0.000637958
0.000597293
0.000579924
0.000566664
0.000548016
0.000522612
0.000493257
0.000463626
0.000436113
0.000411779
0.000390845
0.000373197
0.000358654
0.000347099
0.000338517
0.000333481
0.000331682
0.000333242
0.000339657
0.000351688
0.000370513
0.000397627
0.000434802
0.000484104
0.000548063
0.000630359
0.000737867
0.000884984
0.00109954
0.00142057
0.00185845
0.00219079
0.00220164
0.00158942
0.000731969
0.000487041
0.00125987
0.00124408
0.000957086
0.000727207
0.000625633
0.000586219
0.000569187
0.000554882
0.000534809
0.000508325
0.000478506
0.00044887
0.000421606
0.000397618
0.000377035
0.000359685
0.000345351
0.000333879
0.000325228
0.000319744
0.000317532
0.000318371
0.000323667
0.000334246
0.000351325
0.000376491
0.000411665
0.000459088
0.000521377
0.00060186
0.000706319
0.000847391
0.00105237
0.00136708
0.00182313
0.00225374
0.00232692
0.00172217
0.000790591
0.00043042
0.00120833
0.00119286
0.000935711
0.00071726
0.000616341
0.000577243
0.000560207
0.000545188
0.000524344
0.000497402
0.000467492
0.000437995
0.00041099
0.000387306
0.00036703
0.000349956
0.00033584
0.000324501
0.000315867
0.000310075
0.000307441
0.00030771
0.000312037
0.000321294
0.000336708
0.000359941
0.000393046
0.000438478
0.00049911
0.000578138
0.000680413
0.000816604
0.00101226
0.00131745
0.00178242
0.00229648
0.00244956
0.00186319
0.000849278
0.000384674
0.00115269
0.00114853
0.000921006
0.000712314
0.000609379
0.000569604
0.000552551
0.000537328
0.000516374
0.00048952
0.000459859
0.000430652
0.00040391
0.000380465
0.000360421
0.000343575
0.000329665
0.000318483
0.000309923
0.000304011
0.000300979
0.000300849
0.000304335
0.000312398
0.000326294
0.000347714
0.00037879
0.000422137
0.000481066
0.000558847
0.000659629
0.000792066
0.00097922
0.00127354
0.00174268
0.00232568
0.00256902
0.00200697
0.000907343
0.000345825
0.00109536
0.00110657
0.000913062
0.000713428
0.000606589
0.000564222
0.000546305
0.000531062
0.000510511
0.000484264
0.000455141
0.000426261
0.000399764
0.000376548
0.000356741
0.000340138
0.000326457
0.000315455
0.000306993
0.000301066
0.000297843
0.000297654
0.000300581
0.000307757
0.000320413
0.000340009
0.000368775
0.000409999
0.000467206
0.000543869
0.000643731
0.000773411
0.000952764
0.00123475
0.00170415
0.00233966
0.00268568
0.00215866
0.000965323
0.000311501
0.00103898
0.00106907
0.000912778
0.000718098
0.000607719
0.00056004
0.000540961
0.000526
0.000506401
0.000481206
0.000453018
0.000425074
0.000399132
0.000376184
0.000356506
0.000339983
0.000326361
0.000315392
0.000306916
0.000300909
0.00029753
0.000297216
0.000299684
0.000306247
0.00031822
0.000336604
0.00036375
0.000402881
0.00045793
0.000533268
0.000632706
0.000760668
0.000932954
0.00120165
0.00166788
0.00234516
0.00279972
0.0023146
0.00102218
0.000280265
0.000984372
0.00103545
0.000914548
0.000728754
0.000611932
0.000559577
0.000537082
0.000521964
0.00050349
0.000479802
0.000453226
0.00042587
0.000400232
0.000377441
0.000357854
0.000341409
0.000327879
0.000317032
0.000308708
0.000302874
0.000299669
0.000299433
0.000301549
0.000307379
0.00031843
0.000335911
0.000362091
0.000400028
0.000453567
0.000528013
0.000627287
0.000754453
0.00092024
0.00117389
0.001631
0.00234598
0.00290938
0.00247712
0.00107826
0.000251085
0.000931388
0.00100618
0.000919552
0.000743522
0.000621044
0.000561208
0.000534531
0.000518713
0.000501578
0.000479847
0.000454411
0.000428144
0.000403167
0.000380735
0.000361357
0.000345077
0.000331728
0.000321096
0.000313013
0.000307416
0.000304412
0.000304405
0.000306448
0.000312
0.000322583
0.000339097
0.000363719
0.000399849
0.000452376
0.000526246
0.000625456
0.000752386
0.000914371
0.00115235
0.00159566
0.00233722
0.00301527
0.00264416
0.00113251
0.000223383
0.000879916
0.000980459
0.000923135
0.000767308
0.000636995
0.000566263
0.000534954
0.000516525
0.000499955
0.000480251
0.00045693
0.00043229
0.000408335
0.000386489
0.000367441
0.000351379
0.000338225
0.000327808
0.000319967
0.000314624
0.000311936
0.000312174
0.000314405
0.000320035
0.00033048
0.000346576
0.000370418
0.000405284
0.000455987
0.000528493
0.000627608
0.000754502
0.000912859
0.00113671
0.00156247
0.00232287
0.0031159
0.00281721
0.00118504
0.000196458
0.000828061
0.000957853
0.000922778
0.000795734
0.000660545
0.000577238
0.000537661
0.000516776
0.000499968
0.000481286
0.000460124
0.000437393
0.000414852
0.000393935
0.000375482
0.000359835
0.000347028
0.000336956
0.00032949
0.000324533
0.000322388
0.000322934
0.000325528
0.000331542
0.000342115
0.000358099
0.000381506
0.000415582
0.000465288
0.000537003
0.000636066
0.00076322
0.000917881
0.00112807
0.00153231
0.0023053
0.00320896
0.00299058
0.00123481
0.000170078
0.000775361
0.000934948
0.000920048
0.000827143
0.000690604
0.000596225
0.000544831
0.000518895
0.000500865
0.000483072
0.000463744
0.000443055
0.000422267
0.000402676
0.000385184
0.000370258
0.00035805
0.000348538
0.000341644
0.000337236
0.000335907
0.000336829
0.000339933
0.000346603
0.000357527
0.000373659
0.000396946
0.000430579
0.000479523
0.000550398
0.000649034
0.000776049
0.000927961
0.00112438
0.00150414
0.00227871
0.00329777
0.00316566
0.00128215
0.000143619
0.000718249
0.000913875
0.000913106
0.000856373
0.000729217
0.000624435
0.000559798
0.000525132
0.000503936
0.000485904
0.000467841
0.000449048
0.000430186
0.000412266
0.000396132
0.000382311
0.000371044
0.00036239
0.000356319
0.000352696
0.00035243
0.000353801
0.000357582
0.000365145
0.000376592
0.000393089
0.000416535
0.000450081
0.000498606
0.000568755
0.00066657
0.000792731
0.000941544
0.00112358
0.0014783
0.00224272
0.00337786
0.00333372
0.00132601
0.000120001
0.00066483
0.000891137
0.00090521
0.00087212
0.000773646
0.000663407
0.000586083
0.000538889
0.000511498
0.000491432
0.000473373
0.00045579
0.000438625
0.000422462
0.000407949
0.000395568
0.000385581
0.000378118
0.000373088
0.000370792
0.000371279
0.000373432
0.000378323
0.000386697
0.000398827
0.000415882
0.000439737
0.000473517
0.000521905
0.000591334
0.000687704
0.000811863
0.00095693
0.00112503
0.00145333
0.00219932
0.00344623
0.00349225
0.00136727
0.000100282
0.000606805
0.000874904
0.000898063
0.000879537
0.00081478
0.000711104
0.000625422
0.000566077
0.000527789
0.000502706
0.000482528
0.000464731
0.000448416
0.000433604
0.00042061
0.00040976
0.00040122
0.000395183
0.000391325
0.000390753
0.000391864
0.00039495
0.000401169
0.000410425
0.00042334
0.000441112
0.000465584
0.00049986
0.000548278
0.000616847
0.000710931
0.000831657
0.000972191
0.00112778
0.00143078
0.00215207
0.00349708
0.00363002
0.00140536
8.25907e-05
0.000534177
0.000867443
0.000895836
0.000884477
0.000845306
0.000762113
0.000677657
0.000609895
0.000560594
0.000525899
0.000500338
0.000479763
0.000462425
0.000447677
0.000435372
0.00042554
0.00041819
0.000413316
0.000410937
0.000411414
0.000413377
0.00041772
0.000424957
0.000435127
0.000448887
0.000467497
0.000492727
0.000527641
0.000576029
0.000643342
0.000734039
0.000849663
0.000984587
0.00112921
0.00141339
0.00210987
0.0035289
0.00373432
0.00144216
6.60739e-05
0.00044728
0.000848561
0.000895814
0.000890593
0.00086844
0.000813347
0.00073907
0.000670654
0.000613901
0.000569516
0.0005353
0.000508435
0.00048697
0.000469769
0.000456213
0.000445899
0.000438675
0.000434039
0.000432589
0.000433454
0.000436015
0.000441268
0.000449197
0.000460099
0.00047459
0.000494005
0.000519939
0.00055538
0.000603338
0.000668722
0.000754879
0.000864109
0.00099326
0.00113142
0.00140627
0.00208942
0.00354862
0.00378418
0.00147937
5.70645e-05
0.000374186
0.000801821
0.000890343
0.000893682
0.000886765
0.000862623
0.000810876
0.000750161
0.000692844
0.000642272
0.000599457
0.000563964
0.000535004
0.000511767
0.000493597
0.000479882
0.000470186
0.000463927
0.000460922
0.000461371
0.000463453
0.000468138
0.000475902
0.000486878
0.000501598
0.000521439
0.000547675
0.000583193
0.000630061
0.00069288
0.000774013
0.000877113
0.00100294
0.00114451
0.00141549
0.00208463
0.0035695
0.0038009
0.00150852
5.80755e-05
0.000346402
0.000714746
0.000866801
0.000898117
0.000907661
0.000903958
0.000886422
0.000847892
0.000798204
0.000748064
0.000700785
0.000658181
0.000621074
0.000589717
0.000563968
0.000543484
0.000527819
0.000516462
0.000509016
0.000505015
0.000505305
0.000507555
0.000512964
0.000522721
0.000536743
0.000556342
0.0005824
0.000617695
0.000663514
0.000724531
0.000802989
0.0009045
0.00103598
0.00119971
0.00149701
0.00216739
0.00361314
0.00378054
0.00151879
8.01672e-05
0.000361914
0.000630306
0.000814942
0.000907374
0.00095074
0.000972224
0.00097495
0.000965448
0.000940142
0.000898927
0.000853346
0.000807312
0.000763563
0.000723516
0.000688077
0.000657616
0.000632232
0.000612001
0.000596436
0.000585891
0.000579335
0.000579593
0.000582405
0.000589314
0.000602509
0.00062241
0.00064976
0.000687236
0.000736259
0.000801827
0.000888222
0.00100271
0.00116191
0.00137546
0.00173144
0.00240265
0.00368903
0.00367791
0.00151815
0.00012622
0.000441846
0.000643317
0.00083391
0.000962362
0.00105326
0.00111172
0.00113874
0.00114269
0.00113426
0.00111124
0.0010714
0.0010247
0.000975638
0.000927303
0.000882464
0.000841593
0.000808005
0.000781348
0.000760709
0.000747675
0.000738708
0.00073924
0.000743589
0.000753915
0.000773728
0.000802087
0.000841185
0.000894404
0.000964337
0.00105702
0.0011799
0.00134146
0.00156703
0.00185959
0.00231267
0.00294123
0.0038261
0.00358469
0.00147197
0.000208827
0.000618135
0.000801242
0.00101753
0.00118964
0.00132682
0.00141928
0.00146976
0.00147753
0.00146973
0.00144855
0.00141155
0.00136761
0.00132335
0.00128
0.00124186
0.00121052
0.00118494
0.00116667
0.00115746
0.00115945
0.00116756
0.00118546
0.00121649
0.00125852
0.00131408
0.0013856
0.00147287
0.00158244
0.00171224
0.00188342
0.00208681
0.00235233
0.00266685
0.0030622
0.00355211
0.00398122
0.00413386
0.00347364
0.00139032
0.000358568
0.00103772
0.00144246
0.00182064
0.00205334
0.00220336
0.00228928
0.00233355
0.00233019
0.00231751
0.00229379
0.00226855
0.00224155
0.00222435
0.00220855
0.00220953
0.00221706
0.00223493
0.00226593
0.00230995
0.00236641
0.00243846
0.00252399
0.00262599
0.00274575
0.002881
0.00304183
0.00321231
0.00342479
0.00363129
0.00390321
0.00413301
0.00448022
0.00469524
0.00510011
0.00514971
0.00498457
0.00436503
0.00304584
0.00121187
0.000242753
0.000377267
0.000494639
0.000616216
0.000726035
0.000825949
0.000907835
0.000978061
0.00102587
0.00105844
0.0010773
0.00108602
0.00108467
0.00108017
0.00107053
0.00105804
0.0010452
0.00103116
0.00101843
0.00100582
0.000995846
0.00098645
0.000980935
0.000975954
0.000976064
0.000977694
0.000982709
0.000989281
0.0010039
0.00101513
0.00103959
0.00105589
0.00109361
0.0011219
0.00118559
0.00122441
0.00129089
0.0012945
0.00125019
0.00104385
)
;

boundaryField
{
    movingWall
    {
        type            kqRWallFunction;
        value           nonuniform List<scalar> 
40
(
0.000242753
0.000377267
0.000494639
0.000616216
0.000726035
0.000825949
0.000907835
0.000978061
0.00102587
0.00105844
0.0010773
0.00108602
0.00108467
0.00108017
0.00107053
0.00105804
0.0010452
0.00103116
0.00101843
0.00100582
0.000995846
0.00098645
0.000980935
0.000975954
0.000976064
0.000977694
0.000982709
0.000989281
0.0010039
0.00101513
0.00103959
0.00105589
0.00109361
0.0011219
0.00118559
0.00122441
0.00129089
0.0012945
0.00125019
0.00104385
)
;
    }
    fixedWalls
    {
        type            kqRWallFunction;
        value           nonuniform List<scalar> 
120
(
1.88627e-06
9.15137e-06
2.77133e-05
6.4429e-05
0.000123238
0.000208189
0.000317407
0.000434641
0.000536228
0.00061089
0.000664082
0.000693703
0.000692942
0.000684293
0.000663636
0.000627439
0.000585547
0.00053589
0.000487041
0.00043042
0.000384674
0.000345825
0.000311501
0.000280265
0.000251085
0.000223383
0.000196458
0.000170078
0.000143619
0.000120001
0.000100282
8.25907e-05
6.60739e-05
5.70645e-05
5.80755e-05
8.01672e-05
0.00012622
0.000208827
0.000358568
0.000242753
3.12253e-06
5.468e-06
4.50342e-06
3.17798e-06
3.80358e-06
7.38704e-06
1.69223e-05
4.25821e-05
0.000114682
0.000204437
0.000292291
0.000363683
0.000430893
0.000493208
0.000554316
0.000613796
0.000673045
0.000731969
0.000790591
0.000849278
0.000907343
0.000965323
0.00102218
0.00107826
0.00113251
0.00118504
0.00123481
0.00128215
0.00132601
0.00136727
0.00140536
0.00144216
0.00147937
0.00150852
0.00151879
0.00151815
0.00147197
0.00139032
0.00121187
0.00104385
1.88627e-06
6.69672e-06
1.32559e-05
1.35976e-05
1.25843e-05
1.29596e-05
1.67017e-05
2.80362e-05
4.16175e-05
5.823e-05
9.14083e-05
0.000115445
0.000126868
0.000139402
0.000160051
0.000187673
0.000214168
0.000243968
0.000273588
0.000306672
0.000341407
0.000380499
0.000423516
0.000473177
0.000531514
0.000584771
0.00063851
0.000684841
0.000724855
0.000746633
0.00075528
0.000740027
0.000677667
0.000571897
0.000426553
0.000247871
0.000118185
4.86689e-05
1.52499e-05
3.12253e-06
)
;
    }
    frontAndBack
    {
        type            empty;
    }
}


// ************************************************************************* //
