/*--------------------------------*- C++ -*----------------------------------*\
  =========                 |
  \\      /  F ield         | OpenFOAM: The Open Source CFD Toolbox
   \\    /   O peration     | Website:  https://openfoam.org
    \\  /    A nd           | Version:  13
     \\/     M anipulation  |
\*---------------------------------------------------------------------------*/
FoamFile
{
    format      ascii;
    class       volScalarField;
    location    "6.5";
    object      nut;
}
// * * * * * * * * * * * * * * * * * * * * * * * * * * * * * * * * * * * * * //

dimensions      [0 2 -1 0 0 0 0];

internalField   nonuniform List<scalar> 
1600
(
1.3271e-08
4.71075e-08
9.32391e-08
9.56292e-08
8.84995e-08
9.1138e-08
1.1746e-07
1.97187e-07
2.92719e-07
4.09642e-07
6.42984e-07
8.11935e-07
8.92201e-07
9.80336e-07
1.12555e-06
1.31981e-06
1.50613e-06
1.71571e-06
1.92401e-06
2.1567e-06
2.40097e-06
2.67591e-06
2.97842e-06
3.32768e-06
3.73794e-06
4.11246e-06
4.49036e-06
4.81617e-06
5.09756e-06
5.25071e-06
5.31152e-06
5.20428e-06
4.76579e-06
4.02209e-06
3.00004e-06
1.74349e-06
8.31381e-07
3.42398e-07
1.07296e-07
2.19711e-08
6.43867e-08
1.15592e-06
3.47062e-06
4.26379e-06
4.2035e-06
4.03872e-06
4.55858e-06
6.11801e-06
6.61067e-06
7.29878e-06
8.87377e-06
9.78287e-06
1.02126e-05
1.09448e-05
1.17223e-05
1.31508e-05
1.42489e-05
1.57817e-05
1.71036e-05
1.85153e-05
1.98014e-05
2.1098e-05
2.23486e-05
2.33811e-05
2.40444e-05
2.48117e-05
2.53944e-05
2.58697e-05
2.60312e-05
2.56502e-05
2.53718e-05
2.4064e-05
2.21344e-05
1.89035e-05
1.55871e-05
9.9005e-06
4.73748e-06
1.87522e-06
6.39682e-07
3.84701e-08
1.94987e-07
3.11578e-06
7.69589e-06
9.35785e-06
9.9639e-06
1.04103e-05
1.29126e-05
1.64485e-05
1.74234e-05
1.76893e-05
1.62288e-05
1.53298e-05
1.49249e-05
1.62313e-05
1.76765e-05
1.93706e-05
2.12535e-05
2.31623e-05
2.49265e-05
2.66914e-05
2.8354e-05
2.96071e-05
3.03957e-05
3.09315e-05
3.12888e-05
3.149e-05
3.1465e-05
3.12035e-05
3.06262e-05
2.9626e-05
2.77375e-05
2.57992e-05
2.40831e-05
2.01434e-05
1.64877e-05
9.67076e-06
4.07722e-06
1.99345e-06
8.15642e-07
3.16829e-08
4.53295e-07
6.78111e-06
1.33168e-05
1.5589e-05
1.67486e-05
1.86043e-05
2.09979e-05
2.1357e-05
2.09758e-05
1.8181e-05
1.72173e-05
1.854e-05
2.03038e-05
2.30268e-05
2.48885e-05
2.7322e-05
2.92507e-05
3.09636e-05
3.23619e-05
3.36218e-05
3.43451e-05
3.50254e-05
3.537e-05
3.5585e-05
3.55666e-05
3.53717e-05
3.49432e-05
3.42798e-05
3.33095e-05
3.18969e-05
2.99567e-05
2.75489e-05
2.46793e-05
2.10474e-05
1.80057e-05
1.34833e-05
4.74838e-06
1.60188e-06
5.64866e-07
2.23548e-08
8.66991e-07
1.22712e-05
1.97945e-05
2.12974e-05
2.22363e-05
2.41015e-05
2.41897e-05
2.35773e-05
2.08494e-05
1.95161e-05
2.15242e-05
2.36374e-05
2.64486e-05
2.91187e-05
3.10001e-05
3.31203e-05
3.48007e-05
3.63652e-05
3.75453e-05
3.84064e-05
3.9003e-05
3.94192e-05
3.9597e-05
3.96277e-05
3.94896e-05
3.91987e-05
3.87057e-05
3.79449e-05
3.68121e-05
3.51387e-05
3.28858e-05
3.03343e-05
2.76403e-05
2.40057e-05
1.96124e-05
1.58755e-05
9.83591e-06
2.63074e-06
5.96734e-07
2.67497e-08
1.46454e-06
1.83121e-05
2.54774e-05
2.60542e-05
2.65922e-05
2.62568e-05
2.55658e-05
2.31191e-05
2.13102e-05
2.34911e-05
2.60171e-05
2.88987e-05
3.17269e-05
3.35987e-05
3.57039e-05
3.74917e-05
3.91492e-05
4.02324e-05
4.12479e-05
4.19545e-05
4.24853e-05
4.27839e-05
4.2887e-05
4.2795e-05
4.2594e-05
4.22726e-05
4.18413e-05
4.1273e-05
4.05253e-05
3.96408e-05
3.73344e-05
3.4175e-05
3.10338e-05
2.73565e-05
2.28428e-05
1.79499e-05
1.27538e-05
4.22483e-06
9.45584e-07
5.19418e-08
2.23267e-06
2.30144e-05
2.9999e-05
2.94278e-05
2.82056e-05
2.74371e-05
2.51289e-05
2.27385e-05
2.47688e-05
2.76686e-05
3.05614e-05
3.33838e-05
3.52722e-05
3.74852e-05
3.94036e-05
4.10903e-05
4.24926e-05
4.36297e-05
4.45095e-05
4.50227e-05
4.53038e-05
4.53482e-05
4.5318e-05
4.52173e-05
4.50102e-05
4.47289e-05
4.43744e-05
4.39349e-05
4.33615e-05
4.25559e-05
4.16852e-05
3.97946e-05
3.64525e-05
3.2975e-05
2.79878e-05
2.14558e-05
1.51682e-05
7.91466e-06
1.54445e-06
1.18985e-07
3.05718e-06
2.71408e-05
3.28896e-05
3.12228e-05
3.00149e-05
2.71279e-05
2.4426e-05
2.5523e-05
2.84868e-05
3.16045e-05
3.43815e-05
3.64006e-05
3.8713e-05
4.08811e-05
4.27016e-05
4.44052e-05
4.55613e-05
4.63462e-05
4.67963e-05
4.69835e-05
4.72784e-05
4.73516e-05
4.73683e-05
4.7252e-05
4.70383e-05
4.67462e-05
4.63985e-05
4.6013e-05
4.55809e-05
4.50362e-05
4.4215e-05
4.29869e-05
4.05937e-05
3.70549e-05
3.37833e-05
2.7702e-05
1.90403e-05
1.00581e-05
2.08055e-06
2.99404e-07
3.7715e-06
2.98701e-05
3.49511e-05
3.33771e-05
2.98505e-05
2.65587e-05
2.57803e-05
2.86689e-05
3.19686e-05
3.49162e-05
3.71834e-05
3.94498e-05
4.18614e-05
4.37995e-05
4.53206e-05
4.67052e-05
4.72891e-05
4.79973e-05
4.85177e-05
4.89536e-05
4.91747e-05
4.95509e-05
4.95558e-05
4.94736e-05
4.92172e-05
4.88344e-05
4.83551e-05
4.78329e-05
4.73226e-05
4.68492e-05
4.63487e-05
4.55828e-05
4.37454e-05
4.03049e-05
3.6626e-05
3.27241e-05
2.47289e-05
1.43374e-05
4.52403e-06
8.06419e-07
4.29646e-06
3.1474e-05
3.66801e-05
3.37479e-05
2.94772e-05
2.64645e-05
2.84136e-05
3.17607e-05
3.49863e-05
3.7603e-05
3.97464e-05
4.2129e-05
4.40523e-05
4.57775e-05
4.70389e-05
4.81246e-05
4.88976e-05
4.97856e-05
5.05257e-05
5.12677e-05
5.17097e-05
5.20525e-05
5.23385e-05
5.2244e-05
5.19712e-05
5.14572e-05
5.07605e-05
4.99367e-05
4.90853e-05
4.83175e-05
4.77138e-05
4.72343e-05
4.65965e-05
4.37976e-05
3.94558e-05
3.61301e-05
2.92202e-05
1.77459e-05
6.01546e-06
1.43761e-06
4.6705e-06
3.26315e-05
3.81589e-05
3.38902e-05
2.89973e-05
2.82322e-05
3.10582e-05
3.4463e-05
3.743e-05
3.96843e-05
4.18354e-05
4.39392e-05
4.577e-05
4.72507e-05
4.84722e-05
4.96359e-05
5.07296e-05
5.18925e-05
5.29491e-05
5.40192e-05
5.46777e-05
5.50855e-05
5.56339e-05
5.55675e-05
5.52982e-05
5.46908e-05
5.38001e-05
5.26658e-05
5.13886e-05
5.01184e-05
4.90267e-05
4.82177e-05
4.75804e-05
4.66114e-05
4.25617e-05
3.92214e-05
3.40873e-05
2.25606e-05
8.60476e-06
2.05542e-06
4.87866e-06
3.29657e-05
3.869e-05
3.40483e-05
2.91452e-05
3.02355e-05
3.34156e-05
3.66601e-05
3.9282e-05
4.1299e-05
4.3445e-05
4.54192e-05
4.7093e-05
4.85425e-05
4.99236e-05
5.13559e-05
5.28194e-05
5.43099e-05
5.56949e-05
5.70587e-05
5.79076e-05
5.84076e-05
5.91337e-05
5.91179e-05
5.88602e-05
5.82169e-05
5.7217e-05
5.58722e-05
5.42513e-05
5.25037e-05
5.08702e-05
4.96205e-05
4.88885e-05
4.84387e-05
4.51898e-05
4.10749e-05
3.72331e-05
2.61552e-05
1.08679e-05
2.55746e-06
4.87328e-06
3.29076e-05
3.89837e-05
3.38882e-05
3.01699e-05
3.20982e-05
3.53622e-05
3.83494e-05
4.0595e-05
4.25953e-05
4.47162e-05
4.65803e-05
4.82339e-05
4.98207e-05
5.14806e-05
5.32563e-05
5.50877e-05
5.68979e-05
5.85639e-05
6.01497e-05
6.11457e-05
6.16872e-05
6.24885e-05
6.25011e-05
6.22404e-05
6.15977e-05
6.05762e-05
5.91526e-05
5.73314e-05
5.51954e-05
5.29636e-05
5.09894e-05
4.96122e-05
4.88321e-05
4.74354e-05
4.30131e-05
4.01304e-05
3.012e-05
1.34077e-05
3.03007e-06
4.81241e-06
3.26318e-05
3.92432e-05
3.38452e-05
3.14302e-05
3.36723e-05
3.68664e-05
3.96132e-05
4.15992e-05
4.36505e-05
4.57196e-05
4.75527e-05
4.93045e-05
5.11267e-05
5.31108e-05
5.52339e-05
5.73962e-05
5.9481e-05
6.13626e-05
6.30678e-05
6.41278e-05
6.46883e-05
6.54421e-05
6.5431e-05
6.51318e-05
6.44965e-05
6.35219e-05
6.2161e-05
6.0353e-05
5.80831e-05
5.54849e-05
5.29307e-05
5.09783e-05
5.0047e-05
4.98559e-05
4.53926e-05
4.18122e-05
3.31601e-05
1.57352e-05
3.46826e-06
4.66708e-06
3.20157e-05
3.90408e-05
3.40341e-05
3.24985e-05
3.49215e-05
3.79957e-05
4.04852e-05
4.24148e-05
4.44956e-05
4.65322e-05
4.84114e-05
5.03323e-05
5.24245e-05
5.4725e-05
5.71594e-05
5.95966e-05
6.1895e-05
6.39215e-05
6.56558e-05
6.67139e-05
6.72518e-05
6.78618e-05
6.77622e-05
6.7374e-05
6.67191e-05
6.58103e-05
6.45956e-05
6.29614e-05
6.07791e-05
5.80205e-05
5.49246e-05
5.20872e-05
5.02389e-05
4.96834e-05
4.73174e-05
4.33845e-05
3.61013e-05
1.80205e-05
3.89796e-06
4.41246e-06
3.11706e-05
3.86086e-05
3.43126e-05
3.33415e-05
3.58521e-05
3.88104e-05
4.11251e-05
4.30748e-05
4.51687e-05
4.72051e-05
4.91784e-05
5.12916e-05
5.36418e-05
5.62175e-05
5.89076e-05
6.15573e-05
6.40086e-05
6.61205e-05
6.78173e-05
6.88209e-05
6.92984e-05
6.97022e-05
6.94586e-05
6.89337e-05
6.82171e-05
6.73564e-05
6.63175e-05
6.49664e-05
6.30913e-05
6.05086e-05
5.72746e-05
5.39134e-05
5.1321e-05
5.00384e-05
4.86331e-05
4.43957e-05
3.83318e-05
2.02075e-05
4.3162e-06
4.11785e-06
3.01595e-05
3.80001e-05
3.45789e-05
3.39678e-05
3.6507e-05
3.93826e-05
4.16182e-05
4.36e-05
4.56999e-05
4.77598e-05
4.9842e-05
5.21326e-05
5.46977e-05
5.74889e-05
6.03696e-05
6.31687e-05
6.57157e-05
6.7861e-05
6.94926e-05
7.04005e-05
7.07879e-05
7.09588e-05
7.05403e-05
6.98503e-05
6.90368e-05
6.81908e-05
6.73128e-05
6.62747e-05
6.48087e-05
6.25799e-05
5.94039e-05
5.56227e-05
5.23025e-05
5.05817e-05
5.00902e-05
4.54831e-05
4.02082e-05
2.22835e-05
4.73281e-06
3.76864e-06
2.91329e-05
3.72717e-05
3.47785e-05
3.44008e-05
3.69249e-05
3.97729e-05
4.19896e-05
4.40023e-05
4.61044e-05
4.8195e-05
5.03712e-05
5.27983e-05
5.55176e-05
5.84547e-05
6.14568e-05
6.43417e-05
6.69294e-05
6.90629e-05
7.06254e-05
7.14155e-05
7.16936e-05
7.16373e-05
7.10428e-05
7.01857e-05
6.92609e-05
6.84014e-05
6.76537e-05
6.69235e-05
6.593e-05
6.42373e-05
6.14212e-05
5.75078e-05
5.34652e-05
5.09259e-05
5.04777e-05
4.64776e-05
4.16794e-05
2.43151e-05
5.14714e-06
3.42513e-06
2.79847e-05
3.6446e-05
3.48942e-05
3.467e-05
3.71748e-05
3.99992e-05
4.22449e-05
4.4291e-05
4.63889e-05
4.84993e-05
5.074e-05
5.32496e-05
5.605e-05
5.90544e-05
6.21039e-05
6.50098e-05
6.75851e-05
6.96691e-05
7.11476e-05
7.18302e-05
7.19939e-05
7.17484e-05
7.10038e-05
7.00012e-05
6.89773e-05
6.80922e-05
6.7442e-05
6.69842e-05
6.64541e-05
6.53655e-05
6.30963e-05
5.93277e-05
5.47687e-05
5.1347e-05
5.05129e-05
4.76592e-05
4.29113e-05
2.61709e-05
5.55934e-06
3.02697e-06
2.705e-05
3.55513e-05
3.48885e-05
3.4822e-05
3.72108e-05
4.01037e-05
4.23907e-05
4.4458e-05
4.65443e-05
4.86607e-05
5.09107e-05
5.34262e-05
5.62317e-05
5.92344e-05
6.22667e-05
6.51319e-05
6.76403e-05
6.96363e-05
7.10138e-05
7.16181e-05
7.16692e-05
7.12515e-05
7.03956e-05
6.93385e-05
6.827e-05
6.73661e-05
6.67914e-05
6.65692e-05
6.64682e-05
6.60041e-05
6.44116e-05
6.10359e-05
5.61764e-05
5.18417e-05
5.0189e-05
4.85468e-05
4.40144e-05
2.79802e-05
5.97199e-06
2.70527e-06
2.57295e-05
3.46452e-05
3.4818e-05
3.48336e-05
3.72149e-05
3.99992e-05
4.24036e-05
4.4513e-05
4.65801e-05
4.86543e-05
5.08955e-05
5.34056e-05
5.61667e-05
5.90794e-05
6.19834e-05
6.46934e-05
6.70528e-05
6.89265e-05
7.02065e-05
7.07935e-05
7.0757e-05
7.01277e-05
6.91415e-05
6.79821e-05
6.68957e-05
6.61188e-05
6.57913e-05
6.57919e-05
6.60685e-05
6.62024e-05
6.53354e-05
6.25386e-05
5.76406e-05
5.25632e-05
5.01103e-05
4.91649e-05
4.50235e-05
2.96053e-05
6.38027e-06
2.43207e-06
2.42457e-05
3.32518e-05
3.48146e-05
3.47975e-05
3.68508e-05
3.98992e-05
4.22885e-05
4.44144e-05
4.64513e-05
4.85306e-05
5.06504e-05
5.29098e-05
5.54073e-05
5.80796e-05
6.07885e-05
6.33839e-05
6.56845e-05
6.75253e-05
6.87922e-05
6.94177e-05
6.94351e-05
6.89279e-05
6.8006e-05
6.67785e-05
6.55691e-05
6.47065e-05
6.42913e-05
6.45268e-05
6.53125e-05
6.60482e-05
6.58985e-05
6.37826e-05
5.90299e-05
5.3325e-05
5.01463e-05
4.94697e-05
4.5954e-05
3.11893e-05
6.78794e-06
2.1907e-06
2.26362e-05
3.17122e-05
3.47351e-05
3.4726e-05
3.66474e-05
3.93022e-05
4.20454e-05
4.42195e-05
4.62521e-05
4.81106e-05
5.00871e-05
5.23562e-05
5.48144e-05
5.7394e-05
5.99808e-05
6.24296e-05
6.45742e-05
6.6267e-05
6.73946e-05
6.78936e-05
6.77634e-05
6.72847e-05
6.65367e-05
6.55466e-05
6.46288e-05
6.37557e-05
6.32224e-05
6.33701e-05
6.42517e-05
6.54133e-05
6.60573e-05
6.48007e-05
6.03058e-05
5.41198e-05
5.03052e-05
4.96036e-05
4.67562e-05
3.26854e-05
7.18769e-06
1.97105e-06
2.09428e-05
2.99062e-05
3.45207e-05
3.46471e-05
3.63155e-05
3.89688e-05
4.14958e-05
4.38053e-05
4.5742e-05
4.76423e-05
4.96632e-05
5.17486e-05
5.39721e-05
5.62921e-05
5.86133e-05
6.07946e-05
6.26969e-05
6.41993e-05
6.52143e-05
6.57042e-05
6.56606e-05
6.52734e-05
6.4622e-05
6.36976e-05
6.28409e-05
6.22574e-05
6.21732e-05
6.26424e-05
6.35405e-05
6.49266e-05
6.60865e-05
6.5484e-05
6.14837e-05
5.48059e-05
5.03821e-05
4.96994e-05
4.74658e-05
3.41439e-05
7.58204e-06
1.76585e-06
1.92029e-05
2.81231e-05
3.4088e-05
3.43762e-05
3.57771e-05
3.84608e-05
4.09047e-05
4.31882e-05
4.52352e-05
4.71458e-05
4.89117e-05
5.0728e-05
5.26648e-05
5.46933e-05
5.6731e-05
5.86626e-05
6.03702e-05
6.17499e-05
6.27268e-05
6.32655e-05
6.33284e-05
6.30756e-05
6.25638e-05
6.1817e-05
6.11166e-05
6.06131e-05
6.05308e-05
6.11358e-05
6.26207e-05
6.45695e-05
6.60413e-05
6.58251e-05
6.24433e-05
5.53787e-05
5.03817e-05
4.96515e-05
4.80858e-05
3.55243e-05
7.96344e-06
1.57106e-06
1.74478e-05
2.6388e-05
3.30991e-05
3.44482e-05
3.53434e-05
3.76845e-05
4.03711e-05
4.25285e-05
4.45419e-05
4.63611e-05
4.80228e-05
4.96687e-05
5.13591e-05
5.31049e-05
5.4857e-05
5.65305e-05
5.80304e-05
5.92701e-05
6.01852e-05
6.07472e-05
6.09232e-05
6.0784e-05
6.04555e-05
5.99474e-05
5.94604e-05
5.91537e-05
5.92407e-05
5.99568e-05
6.14545e-05
6.36058e-05
6.56837e-05
6.62252e-05
6.29872e-05
5.58545e-05
5.02247e-05
4.94025e-05
4.86683e-05
3.68524e-05
8.33279e-06
1.38172e-06
1.56854e-05
2.46514e-05
3.15e-05
3.43589e-05
3.50204e-05
3.68545e-05
3.95395e-05
4.18964e-05
4.38375e-05
4.54892e-05
4.70431e-05
4.85213e-05
4.99875e-05
5.147e-05
5.29502e-05
5.43744e-05
5.56733e-05
5.67787e-05
5.76364e-05
5.82233e-05
5.85397e-05
5.85105e-05
5.83736e-05
5.81369e-05
5.7891e-05
5.78104e-05
5.80887e-05
5.89601e-05
6.06145e-05
6.29718e-05
6.52946e-05
6.62277e-05
6.37527e-05
5.61086e-05
4.9963e-05
4.90069e-05
4.91131e-05
3.80518e-05
8.68273e-06
1.19623e-06
1.39473e-05
2.28244e-05
2.97335e-05
3.41508e-05
3.46801e-05
3.61064e-05
3.84179e-05
4.09178e-05
4.29351e-05
4.45546e-05
4.5999e-05
4.73283e-05
4.86004e-05
4.98534e-05
5.10918e-05
5.22902e-05
5.34046e-05
5.43868e-05
5.51927e-05
5.58014e-05
5.62716e-05
5.63453e-05
5.63953e-05
5.64408e-05
5.64455e-05
5.66031e-05
5.70832e-05
5.81058e-05
5.98567e-05
6.23127e-05
6.47846e-05
6.59423e-05
6.39326e-05
5.61476e-05
4.95791e-05
4.84013e-05
4.94987e-05
3.91974e-05
9.0156e-06
1.01016e-06
1.22519e-05
2.13652e-05
2.74496e-05
3.34264e-05
3.45706e-05
3.55394e-05
3.73771e-05
3.97214e-05
4.18454e-05
4.35006e-05
4.48855e-05
4.61018e-05
4.72204e-05
4.82895e-05
4.9331e-05
5.0342e-05
5.13005e-05
5.2179e-05
5.29387e-05
5.35781e-05
5.4183e-05
5.4351e-05
5.45845e-05
5.49035e-05
5.5147e-05
5.55374e-05
5.62151e-05
5.73814e-05
5.9191e-05
6.16559e-05
6.41103e-05
6.5286e-05
6.3601e-05
5.59458e-05
4.89651e-05
4.74887e-05
4.97663e-05
4.01749e-05
9.324e-06
8.44071e-07
1.08292e-05
2.01115e-05
2.52364e-05
3.15444e-05
3.4425e-05
3.51692e-05
3.65484e-05
3.84449e-05
4.05781e-05
4.23445e-05
4.37318e-05
4.48837e-05
4.58926e-05
4.68227e-05
4.77121e-05
4.85764e-05
4.94097e-05
5.02107e-05
5.09129e-05
5.16716e-05
5.2228e-05
5.25511e-05
5.30337e-05
5.35205e-05
5.39821e-05
5.45855e-05
5.54372e-05
5.6721e-05
5.85285e-05
6.08922e-05
6.31458e-05
6.4136e-05
6.23618e-05
5.49332e-05
4.78384e-05
4.62854e-05
4.993e-05
4.10503e-05
9.61406e-06
7.05392e-07
9.63777e-06
1.92335e-05
2.3348e-05
2.93325e-05
3.37783e-05
3.49453e-05
3.60297e-05
3.75274e-05
3.92655e-05
4.1064e-05
4.24838e-05
4.36261e-05
4.45817e-05
4.54283e-05
4.62185e-05
4.69852e-05
4.77284e-05
4.84855e-05
4.91223e-05
5.00459e-05
5.04694e-05
5.09456e-05
5.16654e-05
5.22702e-05
5.29044e-05
5.36778e-05
5.46504e-05
5.59959e-05
5.77037e-05
5.98325e-05
6.16679e-05
6.22914e-05
6.02804e-05
5.33274e-05
4.65027e-05
4.48528e-05
4.98451e-05
4.17023e-05
9.88193e-06
5.80947e-07
8.6642e-06
1.86969e-05
2.19865e-05
2.71925e-05
3.22208e-05
3.44401e-05
3.57055e-05
3.69973e-05
3.84386e-05
3.99449e-05
4.13328e-05
4.24687e-05
4.33981e-05
4.41922e-05
4.49111e-05
4.56028e-05
4.62787e-05
4.69727e-05
4.76457e-05
4.85097e-05
4.89263e-05
4.95716e-05
5.03609e-05
5.10632e-05
5.18024e-05
5.26758e-05
5.36735e-05
5.498e-05
5.64323e-05
5.81612e-05
5.93346e-05
5.94372e-05
5.70241e-05
5.06738e-05
4.47114e-05
4.33271e-05
4.95145e-05
4.19759e-05
1.01407e-05
4.64755e-07
7.9611e-06
1.82268e-05
2.15434e-05
2.5571e-05
3.04697e-05
3.37638e-05
3.53598e-05
3.66511e-05
3.78963e-05
3.91525e-05
4.03497e-05
4.13972e-05
4.22776e-05
4.30344e-05
4.37146e-05
4.43569e-05
4.50006e-05
4.56187e-05
4.63541e-05
4.7082e-05
4.75391e-05
4.82532e-05
4.9019e-05
4.97471e-05
5.04777e-05
5.13308e-05
5.21892e-05
5.32913e-05
5.42589e-05
5.54018e-05
5.56829e-05
5.52069e-05
5.23979e-05
4.69778e-05
4.24023e-05
4.22586e-05
4.89108e-05
4.15437e-05
1.04023e-05
4.01385e-07
7.83116e-06
1.75288e-05
2.16698e-05
2.40188e-05
2.86185e-05
3.28321e-05
3.53141e-05
3.6835e-05
3.80931e-05
3.92134e-05
4.02289e-05
4.11113e-05
4.18711e-05
4.2492e-05
4.30449e-05
4.35699e-05
4.40906e-05
4.46203e-05
4.51615e-05
4.58834e-05
4.62265e-05
4.67728e-05
4.74201e-05
4.80148e-05
4.85444e-05
4.91783e-05
4.96453e-05
5.03108e-05
5.05246e-05
5.09355e-05
5.02267e-05
4.93171e-05
4.63904e-05
4.24548e-05
3.9272e-05
4.04891e-05
4.80891e-05
4.10444e-05
1.0607e-05
4.08511e-07
8.64082e-06
1.68798e-05
2.17319e-05
2.41662e-05
2.73399e-05
3.12269e-05
3.47594e-05
3.70626e-05
3.84508e-05
3.9523e-05
4.03847e-05
4.10936e-05
4.16662e-05
4.21751e-05
4.26136e-05
4.30334e-05
4.33783e-05
4.37008e-05
4.39438e-05
4.42908e-05
4.45275e-05
4.46728e-05
4.49064e-05
4.5167e-05
4.52421e-05
4.5395e-05
4.51997e-05
4.52157e-05
4.45524e-05
4.42922e-05
4.2882e-05
4.20074e-05
3.96319e-05
3.78313e-05
3.67865e-05
3.96399e-05
4.71346e-05
4.0269e-05
1.06792e-05
5.63966e-07
1.08172e-05
1.73505e-05
2.21562e-05
2.50194e-05
2.80866e-05
3.13496e-05
3.46588e-05
3.77656e-05
4.01768e-05
4.15337e-05
4.24763e-05
4.31207e-05
4.35696e-05
4.36846e-05
4.35775e-05
4.33289e-05
4.29938e-05
4.26428e-05
4.21935e-05
4.1869e-05
4.12409e-05
4.10324e-05
4.0688e-05
4.01619e-05
3.9627e-05
3.91406e-05
3.83112e-05
3.77719e-05
3.66747e-05
3.62485e-05
3.50432e-05
3.49293e-05
3.39838e-05
3.4605e-05
3.57697e-05
3.99095e-05
4.56978e-05
3.81312e-05
1.06744e-05
8.88049e-07
1.41714e-05
1.95742e-05
2.35947e-05
2.67836e-05
3.00606e-05
3.34606e-05
3.61161e-05
3.86645e-05
4.11116e-05
4.30008e-05
4.38446e-05
4.40817e-05
4.38482e-05
4.3279e-05
4.24581e-05
4.13751e-05
4.03445e-05
3.92917e-05
3.82995e-05
3.7234e-05
3.60891e-05
3.54054e-05
3.43781e-05
3.33405e-05
3.24687e-05
3.18022e-05
3.1156e-05
3.07972e-05
3.03673e-05
3.05995e-05
3.06127e-05
3.17234e-05
3.25493e-05
3.49937e-05
3.75411e-05
4.23462e-05
4.36507e-05
3.63451e-05
1.035e-05
1.46929e-06
1.83032e-05
2.16785e-05
2.58271e-05
2.94026e-05
3.26256e-05
3.55626e-05
3.78077e-05
3.88828e-05
4.00208e-05
4.08906e-05
4.10297e-05
4.07139e-05
4.01279e-05
3.92527e-05
3.82565e-05
3.7245e-05
3.60262e-05
3.47818e-05
3.37618e-05
3.28927e-05
3.19106e-05
3.1086e-05
3.05766e-05
3.01425e-05
3.00044e-05
2.99973e-05
3.02947e-05
3.08335e-05
3.16211e-05
3.28049e-05
3.39868e-05
3.60419e-05
3.77652e-05
4.08912e-05
4.3141e-05
4.55431e-05
4.21826e-05
3.29847e-05
9.77656e-06
2.52243e-06
2.17162e-05
2.43817e-05
2.8802e-05
3.1948e-05
3.43146e-05
3.60495e-05
3.74337e-05
3.76541e-05
3.79994e-05
3.81807e-05
3.82205e-05
3.80057e-05
3.78624e-05
3.73102e-05
3.71116e-05
3.6809e-05
3.64308e-05
3.61288e-05
3.59464e-05
3.58529e-05
3.59554e-05
3.60833e-05
3.64524e-05
3.68377e-05
3.74861e-05
3.81462e-05
3.90496e-05
4.00388e-05
4.11354e-05
4.25212e-05
4.36616e-05
4.56203e-05
4.62632e-05
4.87712e-05
4.75479e-05
4.58488e-05
4.00431e-05
2.4992e-05
8.52197e-06
1.70773e-06
2.65387e-06
3.47945e-06
4.33447e-06
5.10688e-06
5.80955e-06
6.38549e-06
6.87933e-06
7.21551e-06
7.44446e-06
7.57711e-06
7.63829e-06
7.62876e-06
7.59705e-06
7.52918e-06
7.44122e-06
7.35089e-06
7.25203e-06
7.16251e-06
7.07367e-06
7.00352e-06
6.93729e-06
6.89847e-06
6.86322e-06
6.86393e-06
6.87528e-06
6.91033e-06
6.95653e-06
7.05897e-06
7.13776e-06
7.31002e-06
7.42383e-06
7.68948e-06
7.88837e-06
8.33552e-06
8.60889e-06
9.07578e-06
9.1017e-06
8.78989e-06
7.3389e-06
)
;

boundaryField
{
    movingWall
    {
        type            nutkWallFunction;
        Cmu             0.09;
        kappa           0.41;
        E               9.8;
        value           uniform 0;
    }
    fixedWalls
    {
        type            nutkWallFunction;
        Cmu             0.09;
        kappa           0.41;
        E               9.8;
        value           uniform 0;
    }
    frontAndBack
    {
        type            empty;
    }
}


// ************************************************************************* //
