/*--------------------------------*- C++ -*----------------------------------*\
  =========                 |
  \\      /  F ield         | OpenFOAM: The Open Source CFD Toolbox
   \\    /   O peration     | Website:  https://openfoam.org
    \\  /    A nd           | Version:  13
     \\/     M anipulation  |
\*---------------------------------------------------------------------------*/
FoamFile
{
    format      ascii;
    class       volScalarField;
    location    "6.5";
    object      p;
}
// * * * * * * * * * * * * * * * * * * * * * * * * * * * * * * * * * * * * * //

dimensions      [0 2 -2 0 0 0 0];

internalField   nonuniform List<scalar> 
1600
(
2.97269e-08
-1.92394e-05
-9.7156e-05
-0.000211652
-0.000318186
-0.000402814
-0.000480568
-0.000582891
-0.000720912
-0.000894233
-0.00110994
-0.00142457
-0.00183867
-0.00206484
-0.00226678
-0.00276632
-0.00354801
-0.00445994
-0.00534762
-0.00607881
-0.0065584
-0.00671851
-0.00650715
-0.00587912
-0.00485303
-0.00344603
-0.00166419
0.000436931
0.00274905
0.0050653
0.00710937
0.00856939
0.00922054
0.00903037
0.00806888
0.00706432
0.00643529
0.00632451
0.00641806
0.00646139
-1.53604e-05
-5.78618e-05
-0.000145047
-0.000256588
-0.00033752
-0.000383381
-0.000426953
-0.000509123
-0.000637693
-0.000788379
-0.000925232
-0.00113457
-0.00153345
-0.00204921
-0.00263103
-0.00335441
-0.00421515
-0.00513368
-0.00599708
-0.0066984
-0.00715579
-0.00731171
-0.00712309
-0.00656662
-0.00563141
-0.00429972
-0.00259828
-0.000577688
0.001649
0.0039131
0.00597022
0.00752025
0.0083181
0.00828026
0.00751879
0.0065426
0.00604794
0.00611203
0.00627623
0.00635498
-3.56217e-05
-0.000118934
-0.000235087
-0.000343415
-0.000391182
-0.000387093
-0.00038423
-0.00041149
-0.000490137
-0.000680811
-0.00101831
-0.00147828
-0.00207811
-0.00281359
-0.00366569
-0.00459189
-0.00553897
-0.0064476
-0.00725183
-0.00788768
-0.00829913
-0.00843372
-0.00825911
-0.00775577
-0.00689882
-0.005682
-0.00412475
-0.00226974
-0.000196767
0.00196831
0.00402317
0.00572517
0.00682961
0.00718364
0.00686273
0.00624825
0.00592553
0.00598378
0.00614469
0.0061971
-3.49481e-05
-0.000159431
-0.000318085
-0.000415207
-0.000423854
-0.000386999
-0.000373369
-0.000427982
-0.000601016
-0.00097507
-0.00158654
-0.0023786
-0.0032753
-0.00424028
-0.0052512
-0.00626347
-0.0072286
-0.00810669
-0.00885698
-0.00943877
-0.00980632
-0.00991482
-0.00974277
-0.00927603
-0.00850138
-0.00741613
-0.00603375
-0.00438345
-0.00251776
-0.000517101
0.00148287
0.00330669
0.00474306
0.00562725
0.00597446
0.00597103
0.00597889
0.00601152
0.00608535
0.00608307
9.14999e-05
-9.30413e-05
-0.000275372
-0.000370423
-0.00038771
-0.000384459
-0.000443804
-0.000649154
-0.00107302
-0.00175722
-0.00267464
-0.00373709
-0.00485683
-0.00598045
-0.00707374
-0.00811282
-0.00907483
-0.00993549
-0.0106483
-0.0111749
-0.0114841
-0.0115634
-0.0113992
-0.0109772
-0.0102892
-0.00933633
-0.00812503
-0.00667146
-0.00500857
-0.0031949
-0.00131479
0.000523641
0.00219778
0.00359502
0.00465991
0.00540427
0.00588863
0.00611451
0.00607458
0.00600647
0.000412803
0.000153845
-5.00141e-05
-0.000181324
-0.000271643
-0.000398434
-0.000662693
-0.0011558
-0.0019212
-0.00293308
-0.00411167
-0.00536427
-0.00662119
-0.00783338
-0.00897656
-0.0100317
-0.0109708
-0.0117666
-0.0123959
-0.0128478
-0.0131069
-0.013164
-0.0130108
-0.0126362
-0.0120362
-0.0112121
-0.0101675
-0.00891039
-0.00745631
-0.00583402
-0.00408864
-0.00228362
-0.000489449
0.00125102
0.00289171
0.00433214
0.00540483
0.00601324
0.00600168
0.0058906
0.000905628
0.000592796
0.000335174
0.000118379
-0.000124494
-0.00049175
-0.00107871
-0.00193913
-0.00305327
-0.00434596
-0.00572025
-0.00710053
-0.00843369
-0.00968148
-0.0108212
-0.0118351
-0.0127098
-0.0134316
-0.0139913
-0.0143839
-0.0146018
-0.0146399
-0.0144934
-0.0141569
-0.0136294
-0.0129121
-0.0120078
-0.010921
-0.00965806
-0.00822916
-0.00664954
-0.00493965
-0.00311702
-0.00119167
0.000805697
0.00276936
0.0044427
0.00554238
0.00593167
0.00571434
0.00150007
0.00114326
0.000784856
0.000427032
-4.65021e-05
-0.000738395
-0.00170534
-0.00293321
-0.00434928
-0.00585323
-0.00736017
-0.00881218
-0.0101679
-0.0114016
-0.0124995
-0.0134536
-0.0142604
-0.0149158
-0.015417
-0.0157616
-0.0159467
-0.0159701
-0.0158297
-0.0155244
-0.0150543
-0.0144211
-0.0136275
-0.0126759
-0.0115682
-0.0103046
-0.00888367
-0.00729982
-0.00553826
-0.00357421
-0.00140215
0.000889394
0.00304878
0.00473441
0.00566838
0.00535151
0.00203399
0.0016044
0.00113773
0.000604952
-0.000148078
-0.00119535
-0.00252531
-0.00406745
-0.00570971
-0.00735605
-0.00893865
-0.0104145
-0.0117556
-0.0129496
-0.0139927
-0.0148855
-0.0156301
-0.0162278
-0.0166797
-0.0169857
-0.0171458
-0.0171597
-0.0170268
-0.0167477
-0.0163237
-0.0157569
-0.0150498
-0.0142043
-0.0132201
-0.0120926
-0.0108112
-0.0093562
-0.00769652
-0.00578802
-0.00358887
-0.0011312
0.00136761
0.00355735
0.00496915
0.00506205
0.00234138
0.00184679
0.0012633
0.000535967
-0.000503965
-0.00187922
-0.00350864
-0.00527823
-0.00707069
-0.0087974
-0.010408
-0.0118729
-0.013178
-0.0143219
-0.0153085
-0.016144
-0.0168345
-0.0173842
-0.0177966
-0.0180735
-0.0182161
-0.0182252
-0.0181011
-0.0178449
-0.0174583
-0.0169435
-0.0163032
-0.0155392
-0.0146508
-0.0136325
-0.0124708
-0.0111408
-0.00960444
-0.00780823
-0.00568488
-0.00320561
-0.000537023
0.00196372
0.00388573
0.00490703
0.00231757
0.00177194
0.00107685
0.00016353
-0.00113362
-0.00276608
-0.00461011
-0.00651926
-0.00839312
-0.0101475
-0.0117495
-0.0131806
-0.0144384
-0.0155292
-0.0164623
-0.0172475
-0.0178928
-0.0184045
-0.0187872
-0.0190436
-0.0191754
-0.0191837
-0.0190695
-0.0188338
-0.0184785
-0.0180057
-0.0174179
-0.0167169
-0.0159027
-0.0149706
-0.013908
-0.012691
-0.0112814
-0.00962561
-0.00764864
-0.00527514
-0.00258212
3.65171e-05
0.00230296
0.00385909
0.00193509
0.0013495
0.000557626
-0.000511499
-0.00199959
-0.00380962
-0.00577426
-0.0077549
-0.00964999
-0.0113915
-0.0129589
-0.0143424
-0.015548
-0.0165872
-0.0174722
-0.0182146
-0.0188238
-0.0193065
-0.0196677
-0.0199103
-0.0200363
-0.0200469
-0.0199432
-0.0197263
-0.0193979
-0.0189598
-0.0184144
-0.0177636
-0.0170082
-0.0161454
-0.0151655
-0.0140485
-0.0127602
-0.0112514
-0.00945322
-0.00727173
-0.00468073
-0.00208437
0.000211432
0.00184132
0.00121744
0.000610242
-0.000250234
-0.00143667
-0.0030408
-0.00494515
-0.00695303
-0.00894783
-0.0108204
-0.0125214
-0.0140377
-0.0153669
-0.0165202
-0.0175114
-0.0183545
-0.0190617
-0.0196424
-0.0201032
-0.020449
-0.0206827
-0.0208063
-0.0208209
-0.0207279
-0.0205282
-0.0202233
-0.0198147
-0.0193046
-0.0186951
-0.0179878
-0.0171818
-0.0162715
-0.015242
-0.0140658
-0.0127002
-0.0110856
-0.00913494
-0.00677755
-0.0042882
-0.00216304
-0.000682274
0.00023954
-0.000368307
-0.00126543
-0.0025221
-0.00418364
-0.00610634
-0.00810376
-0.0100681
-0.0118891
-0.0135326
-0.0149898
-0.0162632
-0.0173666
-0.0183149
-0.0191223
-0.0198006
-0.0203587
-0.020803
-0.0211377
-0.0213658
-0.021489
-0.0215086
-0.0214259
-0.0212418
-0.0209575
-0.0205744
-0.0200945
-0.0195201
-0.0188533
-0.0180955
-0.0172446
-0.0162918
-0.0152173
-0.0139864
-0.0125487
-0.0108346
-0.00876978
-0.00647084
-0.00460429
-0.00335553
-0.000894455
-0.00148909
-0.00239658
-0.00367566
-0.00534021
-0.00723063
-0.0091883
-0.0110917
-0.0128448
-0.0144229
-0.015819
-0.0170387
-0.0180965
-0.0190072
-0.0197845
-0.0204391
-0.0209794
-0.0214109
-0.0217375
-0.021962
-0.022086
-0.0221108
-0.0220375
-0.0218672
-0.0216009
-0.02124
-0.0207863
-0.020242
-0.0196101
-0.0188935
-0.0180936
-0.0172073
-0.0162226
-0.0151141
-0.0138419
-0.0123539
-0.0105798
-0.00854602
-0.00693319
-0.00591135
-0.00208099
-0.00264907
-0.00354769
-0.004813
-0.0064427
-0.00827379
-0.0101704
-0.0119989
-0.0136789
-0.0151906
-0.0165283
-0.0176987
-0.0187162
-0.0195947
-0.0203466
-0.020982
-0.0215079
-0.0219295
-0.0222501
-0.0224722
-0.0225974
-0.022627
-0.0225622
-0.0224038
-0.0221531
-0.0218112
-0.0213799
-0.0208617
-0.0202598
-0.0195787
-0.0188225
-0.017993
-0.0170855
-0.0160836
-0.0149573
-0.0136645
-0.0121525
-0.010442
-0.00906294
-0.00820665
-0.00322235
-0.00375672
-0.00463033
-0.00586489
-0.00744037
-0.00919986
-0.0110243
-0.0127752
-0.0143844
-0.0158341
-0.017119
-0.0182463
-0.0192293
-0.0200807
-0.0208119
-0.0214317
-0.0219462
-0.02236
-0.0226761
-0.0228966
-0.0230231
-0.0230569
-0.0229991
-0.0228507
-0.0226129
-0.0222869
-0.0218745
-0.0213782
-0.0208018
-0.0201505
-0.0194311
-0.0186493
-0.0178069
-0.0168956
-0.0158929
-0.0147629
-0.0134735
-0.0120606
-0.0109003
-0.0101776
-0.00424534
-0.00473824
-0.00557722
-0.00677403
-0.00829153
-0.00998004
-0.0117318
-0.0134103
-0.014956
-0.0163513
-0.0175912
-0.0186825
-0.0196372
-0.0204669
-0.0211816
-0.0217891
-0.0222949
-0.0227028
-0.0230155
-0.023235
-0.0233628
-0.0233999
-0.0233477
-0.0232071
-0.0229795
-0.022666
-0.0222687
-0.0217901
-0.0212342
-0.0206073
-0.0199174
-0.019174
-0.0183841
-0.0175466
-0.0166455
-0.0156513
-0.0145494
-0.0133853
-0.0124156
-0.0117968
-0.00509024
-0.00554735
-0.00634619
-0.00750292
-0.00896587
-0.0105933
-0.0122804
-0.0138966
-0.0153891
-0.0167399
-0.0179439
-0.0190071
-0.0199401
-0.0207533
-0.0214558
-0.0220544
-0.0225539
-0.0229578
-0.0232683
-0.0234873
-0.023616
-0.0236556
-0.0236074
-0.0234724
-0.0232519
-0.0229475
-0.0225611
-0.0220955
-0.0215551
-0.0209463
-0.0202788
-0.0195642
-0.0188141
-0.0180333
-0.0172128
-0.0163305
-0.0153805
-0.0144025
-0.0135948
-0.0130638
-0.00573158
-0.00614434
-0.00690912
-0.00803122
-0.0094473
-0.0110264
-0.0126614
-0.0142283
-0.0156799
-0.0169975
-0.0181753
-0.0192186
-0.0201367
-0.020939
-0.0216337
-0.0222268
-0.0227228
-0.0231245
-0.0234341
-0.0236531
-0.0237827
-0.023824
-0.0237781
-0.0236463
-0.02343
-0.0231308
-0.0227508
-0.022293
-0.021762
-0.0211648
-0.0205118
-0.0198164
-0.0190934
-0.018353
-0.0175929
-0.0167989
-0.0159685
-0.0151331
-0.0144512
-0.0139886
-0.00614291
-0.00651969
-0.00726081
-0.00835387
-0.00972956
-0.0112741
-0.01287
-0.0144013
-0.0158251
-0.0171212
-0.0182829
-0.0193149
-0.0202252
-0.0210224
-0.0217139
-0.0223053
-0.0228006
-0.0232025
-0.0235126
-0.0237324
-0.0238628
-0.023905
-0.02386
-0.023729
-0.0235135
-0.0232154
-0.0228369
-0.0223813
-0.0218533
-0.0212604
-0.0206132
-0.019927
-0.0192188
-0.0185031
-0.0177842
-0.0170554
-0.0163158
-0.0155849
-0.0149977
-0.0145885
-0.00630849
-0.00666978
-0.00740178
-0.00847519
-0.00981737
-0.0113357
-0.0129032
-0.0144134
-0.0158221
-0.017108
-0.018264
-0.0192931
-0.0202029
-0.0210011
-0.0216946
-0.0222885
-0.0227865
-0.023191
-0.0235035
-0.023725
-0.0238566
-0.023899
-0.0238533
-0.0237206
-0.0235026
-0.0232011
-0.0228189
-0.0223592
-0.0218274
-0.0212312
-0.0205796
-0.0198926
-0.0191872
-0.0184814
-0.0177852
-0.0171002
-0.0164285
-0.0157761
-0.0152567
-0.0148803
-0.00625973
-0.00661034
-0.00733918
-0.00840248
-0.00971956
-0.0112142
-0.0127675
-0.014267
-0.0156705
-0.0169559
-0.0181151
-0.0191498
-0.0200665
-0.0208723
-0.0215734
-0.0221745
-0.022679
-0.0230892
-0.0234062
-0.023631
-0.0237641
-0.0238064
-0.0237586
-0.0236219
-0.0233978
-0.0230884
-0.0226965
-0.0222258
-0.021682
-0.021073
-0.0204101
-0.0197111
-0.0189959
-0.0182853
-0.0175943
-0.016932
-0.0163072
-0.0157115
-0.0152528
-0.0148785
-0.00603602
-0.00637381
-0.00709875
-0.00815636
-0.00945278
-0.0109198
-0.0124656
-0.0139624
-0.0153685
-0.0166617
-0.0178325
-0.0188812
-0.0198125
-0.0206327
-0.0213474
-0.021961
-0.0224765
-0.0228959
-0.0232202
-0.02345
-0.0235857
-0.0236276
-0.0235766
-0.0234336
-0.0232
-0.0228779
-0.0224703
-0.0219813
-0.0214169
-0.0207858
-0.0201008
-0.0193792
-0.0186423
-0.017913
-0.0172107
-0.0165522
-0.0159548
-0.0153906
-0.0150029
-0.0145944
-0.00568088
-0.00600357
-0.00671744
-0.00776375
-0.00903929
-0.0104719
-0.0120017
-0.0134998
-0.0149143
-0.016222
-0.0174119
-0.0184822
-0.0194359
-0.0202779
-0.0210131
-0.0216453
-0.022177
-0.0226099
-0.0229448
-0.0231819
-0.0233213
-0.0233632
-0.023308
-0.0231564
-0.0229099
-0.0225704
-0.022141
-0.0216263
-0.0210326
-0.0203695
-0.0196509
-0.0188949
-0.0181243
-0.017363
-0.0166345
-0.0159652
-0.0153802
-0.0148156
-0.0144749
-0.014043
-0.0052516
-0.00555291
-0.00623887
-0.00725432
-0.00849899
-0.00989357
-0.0113886
-0.0128827
-0.0143066
-0.0156328
-0.0168478
-0.017947
-0.0189311
-0.0198031
-0.0205664
-0.021224
-0.021778
-0.0222296
-0.022579
-0.0228263
-0.0229712
-0.0230136
-0.0229534
-0.0227914
-0.0225285
-0.0221669
-0.0217095
-0.0211612
-0.0205293
-0.0198241
-0.0190605
-0.0182582
-0.0174411
-0.0166347
-0.0158669
-0.0151752
-0.0145918
-0.0139987
-0.013697
-0.0132391
-0.00481787
-0.00508261
-0.00571073
-0.00666428
-0.00785223
-0.00919616
-0.0106424
-0.0121178
-0.0135451
-0.01489
-0.0161344
-0.0172693
-0.0182919
-0.0192024
-0.0200024
-0.0206934
-0.0212767
-0.0217528
-0.0221216
-0.0223827
-0.0225355
-0.0225794
-0.0225141
-0.02234
-0.0220577
-0.0216692
-0.0211777
-0.0205882
-0.0199087
-0.0191509
-0.0183311
-0.0174702
-0.0165939
-0.0157289
-0.0149085
-0.0141804
-0.0135789
-0.0129499
-0.0127064
-0.0122003
-0.00444944
-0.00464753
-0.00517463
-0.00602805
-0.00712596
-0.00839257
-0.00977372
-0.0112105
-0.0126298
-0.0139897
-0.0152654
-0.016442
-0.0175113
-0.0184696
-0.0193155
-0.020049
-0.0206697
-0.0211774
-0.0215714
-0.0218508
-0.0220146
-0.0220618
-0.0219917
-0.0218042
-0.0215
-0.0210805
-0.020549
-0.019911
-0.0191751
-0.0183543
-0.0174667
-0.016535
-0.0155867
-0.0146497
-0.0137628
-0.0129832
-0.0123474
-0.0116769
-0.0115086
-0.010918
-0.00419245
-0.00427803
-0.00465847
-0.0053753
-0.00634874
-0.00750243
-0.00879114
-0.0101658
-0.0115609
-0.0129285
-0.0142354
-0.0154584
-0.0165824
-0.0175982
-0.0185006
-0.0192864
-0.0199539
-0.0205014
-0.0209275
-0.0212307
-0.0214094
-0.0214624
-0.0213885
-0.0211873
-0.0208591
-0.0204053
-0.0198289
-0.0191359
-0.0183356
-0.0174423
-0.0164761
-0.0154615
-0.0144282
-0.0134058
-0.0124382
-0.0115904
-0.0109012
-0.0101642
-0.0101092
-0.00935508
-0.00402656
-0.00395333
-0.00417647
-0.00473249
-0.00554476
-0.00654589
-0.00770619
-0.00899046
-0.0103413
-0.0117057
-0.0130409
-0.0143138
-0.0155001
-0.0165834
-0.0175532
-0.0184026
-0.0191272
-0.0197239
-0.02019
-0.0205234
-0.0207221
-0.0207843
-0.0207089
-0.0204946
-0.0201416
-0.0196511
-0.0190263
-0.0182732
-0.0174021
-0.0164283
-0.0153738
-0.0142651
-0.0131342
-0.0120127
-0.0109501
-0.0100165
-0.0092505
-0.00842095
-0.00849706
-0.00742856
-0.00381727
-0.00363287
-0.00374146
-0.00411998
-0.00473118
-0.00553842
-0.00653291
-0.00769586
-0.00897895
-0.0103259
-0.011684
-0.0130082
-0.0142634
-0.015424
-0.0164724
-0.0173971
-0.01819
-0.018846
-0.0193611
-0.0197324
-0.0199571
-0.0200334
-0.0199596
-0.0197343
-0.0193574
-0.0188299
-0.0181552
-0.0173394
-0.0163934
-0.0153335
-0.0141833
-0.0129706
-0.0117301
-0.0104959
-0.00932356
-0.00828439
-0.00741783
-0.00648367
-0.0066265
-0.00506039
-0.00352192
-0.00334981
-0.00337132
-0.00354937
-0.00392067
-0.00449383
-0.00528638
-0.00629758
-0.00748918
-0.00880282
-0.0101758
-0.0115506
-0.0128793
-0.0141257
-0.0152635
-0.0162748
-0.0171476
-0.0178737
-0.0184476
-0.0188651
-0.0191233
-0.0192198
-0.0191525
-0.0189202
-0.0185223
-0.0179601
-0.017237
-0.0163592
-0.0153378
-0.0141898
-0.0129395
-0.0116156
-0.010255
-0.00889446
-0.00759644
-0.00642941
-0.00543833
-0.0043893
-0.00444624
-0.00224746
-0.00326545
-0.0031499
-0.00307428
-0.00302888
-0.00312492
-0.00342621
-0.0039842
-0.00481765
-0.0058975
-0.00716312
-0.00854228
-0.00996452
-0.0113689
-0.0127069
-0.0139427
-0.0150509
-0.0160141
-0.0168207
-0.017463
-0.0179359
-0.0182358
-0.0183598
-0.018306
-0.0180732
-0.0176601
-0.0170689
-0.0163031
-0.0153685
-0.0142763
-0.0130429
-0.0116925
-0.010253
-0.0087634
-0.00726214
-0.00581864
-0.00449489
-0.00334054
-0.00211614
-0.00192845
0.000902188
-0.00307089
-0.00301391
-0.00283387
-0.00255784
-0.00235143
-0.00234897
-0.00264679
-0.00328535
-0.00424159
-0.00544987
-0.00682804
-0.0082935
-0.00977248
-0.0112045
-0.0125432
-0.0137551
-0.0148168
-0.0157127
-0.0164324
-0.0169693
-0.0173194
-0.0174794
-0.0174476
-0.0172233
-0.0168053
-0.0161952
-0.0153972
-0.0144169
-0.0132644
-0.0119542
-0.0105085
-0.00895264
-0.00732524
-0.00566421
-0.00404268
-0.00251026
-0.00112301
0.000375298
0.000936716
0.00438471
-0.00287349
-0.00288669
-0.00260649
-0.0021077
-0.0015886
-0.00127124
-0.00130219
-0.00174265
-0.00257405
-0.00372418
-0.00509924
-0.00660462
-0.00815501
-0.00967901
-0.0111206
-0.012438
-0.0136018
-0.0145919
-0.0153953
-0.0160035
-0.0164116
-0.0166166
-0.0166166
-0.0164111
-0.0160024
-0.0153881
-0.0145737
-0.0135643
-0.012368
-0.010995
-0.00946337
-0.00779162
-0.00601459
-0.00416173
-0.00230206
-0.000461575
0.00129619
0.0032466
0.00437985
0.00860071
-0.00262791
-0.00268936
-0.00234036
-0.00163231
-0.000815218
-0.000204855
1.0157e-05
-0.000249676
-0.000968348
-0.00206707
-0.00344188
-0.00498658
-0.00660461
-0.0082151
-0.00975403
-0.0111728
-0.0124362
-0.0135202
-0.014409
-0.0150924
-0.0155646
-0.0158223
-0.015864
-0.0156894
-0.0153002
-0.0146983
-0.013885
-0.0128645
-0.0116429
-0.0102234
-0.00861712
-0.00682916
-0.00488368
-0.00278589
-0.000585347
0.00174321
0.00413953
0.00691549
0.00914913
0.0149688
-0.00233464
-0.00240555
-0.00197429
-0.00109384
-2.35071e-05
0.000817425
0.00122617
0.0011099
0.00048005
-0.000577762
-0.00195263
-0.0035307
-0.00520746
-0.00689391
-0.00851964
-0.0100305
-0.0113864
-0.0125592
-0.0135311
-0.0142899
-0.0148289
-0.0151438
-0.015234
-0.0150992
-0.0147412
-0.0141601
-0.0133591
-0.0123394
-0.0111054
-0.00965245
-0.00798281
-0.0060787
-0.00394297
-0.0015292
0.00115577
0.00425334
0.00774213
0.0121262
0.0168364
0.0263672
-0.00214376
-0.00216476
-0.00158007
-0.000512847
0.000723204
0.00174848
0.00227962
0.00225426
0.00168034
0.000639946
-0.000747215
-0.00236073
-0.00409107
-0.00584309
-0.00754138
-0.00912844
-0.0105604
-0.0118067
-0.0128482
-0.013671
-0.014268
-0.0146339
-0.0147685
-0.0146713
-0.0143443
-0.013787
-0.0130019
-0.0119837
-0.010737
-0.00925431
-0.00753007
-0.00551666
-0.0031858
-0.000403357
0.00289711
0.00709034
0.0122907
0.0196663
0.0294214
0.0459385
-0.0030958
-0.00251071
-0.00145758
-7.58588e-05
0.00135804
0.00249102
0.00309815
0.0031179
0.00257239
0.0015453
0.0001555
-0.0014775
-0.00324329
-0.00504424
-0.00680015
-0.00844866
-0.00994277
-0.0112492
-0.0123468
-0.0132203
-0.0138625
-0.0142683
-0.0144372
-0.014368
-0.0140636
-0.0135226
-0.0127477
-0.0117358
-0.0104868
-0.00898184
-0.00721111
-0.005119
-0.00264425
0.000439007
0.00434239
0.00980461
0.0174698
0.0295919
0.047552
0.07402
-0.0052392
-0.00167794
-7.29243e-05
0.00128131
0.00259119
0.00362003
0.00414829
0.00409454
0.00348673
0.00242027
0.00100184
-0.000661828
-0.00246569
-0.0043134
-0.00612254
-0.00782597
-0.0093748
-0.0107343
-0.0118794
-0.0127952
-0.0134725
-0.0139085
-0.0141013
-0.0140521
-0.013761
-0.0132298
-0.0124562
-0.0114388
-0.0101689
-0.00863859
-0.0068465
-0.00474388
-0.00231182
0.000939168
0.00515983
0.0117777
0.022659
0.0405769
0.0683233
0.103275
)
;

boundaryField
{
    movingWall
    {
        type            zeroGradient;
    }
    fixedWalls
    {
        type            zeroGradient;
    }
    frontAndBack
    {
        type            empty;
    }
}


// ************************************************************************* //
