/*--------------------------------*- C++ -*----------------------------------*\
  =========                 |
  \\      /  F ield         | OpenFOAM: The Open Source CFD Toolbox
   \\    /   O peration     | Website:  https://openfoam.org
    \\  /    A nd           | Version:  13
     \\/     M anipulation  |
\*---------------------------------------------------------------------------*/
FoamFile
{
    format      ascii;
    class       surfaceScalarField;
    location    "6.5";
    object      phi;
}
// * * * * * * * * * * * * * * * * * * * * * * * * * * * * * * * * * * * * * //

dimensions      [0 3 -1 0 0 0 0];

internalField   nonuniform List<scalar> 
3120
(
8.58588e-08
-8.58616e-08
2.15907e-07
-1.30048e-07
3.15459e-07
-9.9553e-08
3.5164e-07
-3.61807e-08
3.4412e-07
7.51949e-09
3.2624e-07
1.78806e-08
3.19104e-07
7.13538e-09
3.15804e-07
3.30054e-09
2.94969e-07
2.08349e-08
2.40477e-07
5.44918e-08
1.35582e-07
1.04895e-07
-6.27452e-08
1.98327e-07
-3.75454e-07
3.12709e-07
-8.38849e-07
4.63394e-07
-1.40564e-06
5.66796e-07
-1.97126e-06
5.65615e-07
-2.48841e-06
5.17155e-07
-2.93556e-06
4.47144e-07
-3.30813e-06
3.72568e-07
-3.6071e-06
2.9897e-07
-3.83406e-06
2.26967e-07
-3.99095e-06
1.5689e-07
-4.07791e-06
8.69601e-08
-4.09416e-06
1.62448e-08
-4.03401e-06
-6.01532e-08
-3.90051e-06
-1.33493e-07
-3.68031e-06
-2.20204e-07
-3.37241e-06
-3.07903e-07
-2.96913e-06
-4.03277e-07
-2.47156e-06
-4.97565e-07
-1.88151e-06
-5.90054e-07
-1.22007e-06
-6.61439e-07
-5.42169e-07
-6.77902e-07
7.51513e-08
-6.17321e-07
5.63829e-07
-4.88678e-07
7.62495e-07
-1.98666e-07
6.50616e-07
1.11879e-07
4.20617e-07
2.29999e-07
1.7651e-07
2.44106e-07
1.7651e-07
1.57674e-07
-2.43535e-07
3.36422e-07
-3.08796e-07
4.49514e-07
-2.12645e-07
4.83668e-07
-7.03351e-08
4.55276e-07
3.59116e-08
3.8546e-07
8.76958e-08
2.85269e-07
1.07327e-07
1.33661e-07
1.54909e-07
-1.09346e-07
2.63841e-07
-4.87132e-07
4.32278e-07
-1.03049e-06
6.48249e-07
-1.71022e-06
8.78059e-07
-2.4352e-06
1.03769e-06
-3.07569e-06
1.10389e-06
-3.57996e-06
1.07106e-06
-4.00456e-06
9.90217e-07
-4.36467e-06
8.77261e-07
-4.66431e-06
7.46785e-07
-4.90392e-06
6.1218e-07
-5.08435e-06
4.79395e-07
-5.20604e-06
3.48663e-07
-5.27306e-06
2.23906e-07
-5.28385e-06
9.77523e-08
-5.23604e-06
-3.15701e-08
-5.1341e-06
-1.62086e-07
-4.9657e-06
-3.01896e-07
-4.73111e-06
-4.54791e-07
-4.41905e-06
-6.19967e-07
-4.01998e-06
-8.02347e-07
-3.5288e-06
-9.88748e-07
-2.95083e-06
-1.16802e-06
-2.29406e-06
-1.3182e-06
-1.58296e-06
-1.38901e-06
-8.60889e-07
-1.33939e-06
-2.39919e-07
-1.10965e-06
2.23154e-07
-6.61739e-07
3.76993e-07
-4.19603e-08
3.11541e-07
2.95451e-07
1.4495e-07
4.10697e-07
3.21461e-07
1.95421e-07
-4.38956e-07
3.36254e-07
-4.49629e-07
3.87284e-07
-2.63676e-07
3.61432e-07
-4.44827e-08
2.69736e-07
1.27608e-07
1.07539e-07
2.49892e-07
-1.60821e-07
3.75687e-07
-5.71007e-07
5.65095e-07
-1.13899e-06
8.31829e-07
-1.83212e-06
1.1254e-06
-2.55413e-06
1.37026e-06
-3.18988e-06
1.51381e-06
-3.7161e-06
1.56391e-06
-4.13681e-06
1.52459e-06
-4.4801e-06
1.41435e-06
-4.75776e-06
1.26788e-06
-4.98192e-06
1.10142e-06
-5.16139e-06
9.26257e-07
-5.30208e-06
7.52871e-07
-5.40515e-06
5.82457e-07
-5.47392e-06
4.1744e-07
-5.50412e-06
2.54101e-07
-5.49379e-06
8.74271e-08
-5.44537e-06
-7.99933e-08
-5.35624e-06
-2.51217e-07
-5.22382e-06
-4.34316e-07
-5.04497e-06
-6.33635e-07
-4.81399e-06
-8.50957e-07
-4.52606e-06
-1.09027e-06
-4.1669e-06
-1.34791e-06
-3.72233e-06
-1.61259e-06
-3.18338e-06
-1.85715e-06
-2.5516e-06
-2.02079e-06
-1.85213e-06
-2.03886e-06
-1.13829e-06
-1.82348e-06
-4.90258e-07
-1.30977e-06
-7.61213e-08
-4.56097e-07
3.54181e-08
1.83911e-07
2.51864e-08
4.20929e-07
3.46647e-07
1.66424e-07
-6.05381e-07
2.2442e-07
-5.07624e-07
1.82663e-07
-2.21919e-07
6.31576e-08
7.5023e-08
-1.41864e-07
3.32629e-07
-4.66425e-07
5.74452e-07
-9.3868e-07
8.47942e-07
-1.54899e-06
1.17541e-06
-2.23478e-06
1.51761e-06
-2.90429e-06
1.79492e-06
-3.47694e-06
1.94291e-06
-3.93182e-06
1.96869e-06
-4.28101e-06
1.9131e-06
-4.54823e-06
1.79181e-06
-4.76159e-06
1.62772e-06
-4.93116e-06
1.43744e-06
-5.06904e-06
1.2393e-06
-5.18369e-06
1.04091e-06
-5.27564e-06
8.44822e-07
-5.34069e-06
6.47504e-07
-5.37968e-06
4.56436e-07
-5.39042e-06
2.64842e-07
-5.37465e-06
7.16575e-08
-5.33356e-06
-1.21087e-07
-5.26485e-06
-3.19932e-07
-5.16571e-06
-5.33452e-07
-5.03421e-06
-7.65135e-07
-4.86623e-06
-1.01894e-06
-4.66007e-06
-1.29642e-06
-4.41079e-06
-1.59719e-06
-4.11299e-06
-1.91039e-06
-3.75032e-06
-2.21982e-06
-3.28115e-06
-2.48996e-06
-2.6821e-06
-2.6379e-06
-1.96347e-06
-2.54212e-06
-1.18248e-06
-2.09075e-06
-4.55467e-07
-1.18311e-06
-1.28218e-07
-1.43338e-07
-2.50408e-08
3.17752e-07
3.21606e-07
8.12177e-08
-6.86598e-07
2.81559e-08
-4.54562e-07
-1.18507e-07
-7.52562e-08
-3.48869e-07
3.05385e-07
-6.86064e-07
6.69824e-07
-1.15127e-06
1.03965e-06
-1.73663e-06
1.43331e-06
-2.38403e-06
1.82281e-06
-3.00319e-06
2.13677e-06
-3.51573e-06
2.30746e-06
-3.90821e-06
2.33539e-06
-4.20938e-06
2.26986e-06
-4.43491e-06
2.13863e-06
-4.60577e-06
1.96267e-06
-4.74063e-06
1.76259e-06
-4.85069e-06
1.5475e-06
-4.93608e-06
1.32469e-06
-4.99575e-06
1.10057e-06
-5.03029e-06
8.7937e-07
-5.04718e-06
6.6439e-07
-5.04789e-06
4.57144e-07
-5.03522e-06
2.52174e-07
-5.01029e-06
4.67246e-08
-4.97113e-06
-1.60245e-07
-4.91563e-06
-3.75433e-07
-4.84425e-06
-6.04826e-07
-4.75631e-06
-8.53083e-07
-4.65006e-06
-1.12519e-06
-4.52178e-06
-1.4247e-06
-4.36622e-06
-1.75276e-06
-4.17357e-06
-2.10305e-06
-3.93519e-06
-2.45821e-06
-3.63273e-06
-2.79242e-06
-3.22295e-06
-3.04768e-06
-2.63806e-06
-3.12701e-06
-1.86535e-06
-2.86347e-06
-9.28505e-07
-2.11996e-06
-2.19299e-07
-8.52544e-07
-1.30004e-08
1.11454e-07
3.08606e-07
-4.62397e-08
-6.40358e-07
-2.10063e-07
-2.9074e-07
-4.57222e-07
1.71903e-07
-7.93308e-07
6.4147e-07
-1.23512e-06
1.11163e-06
-1.77602e-06
1.58056e-06
-2.37072e-06
2.02801e-06
-2.94287e-06
2.39495e-06
-3.41733e-06
2.61123e-06
-3.77011e-06
2.66024e-06
-4.03216e-06
2.59743e-06
-4.22638e-06
2.46408e-06
-4.36747e-06
2.27972e-06
-4.46972e-06
2.06492e-06
-4.53777e-06
1.83064e-06
-4.57872e-06
1.58844e-06
-4.59954e-06
1.34552e-06
-4.6071e-06
1.10813e-06
-4.60628e-06
8.78546e-07
-4.59816e-06
6.56269e-07
-4.58106e-06
4.40047e-07
-4.55591e-06
2.27022e-07
-4.52349e-06
1.43029e-08
-4.48263e-06
-2.01105e-07
-4.43373e-06
-4.2433e-07
-4.37808e-06
-6.60473e-07
-4.31651e-06
-9.14655e-07
-4.24945e-06
-1.19225e-06
-4.17614e-06
-1.498e-06
-4.09397e-06
-1.83493e-06
-3.99539e-06
-2.20163e-06
-3.86491e-06
-2.58868e-06
-3.68482e-06
-2.97251e-06
-3.42607e-06
-3.30643e-06
-3.03274e-06
-3.52033e-06
-2.41336e-06
-3.48285e-06
-1.52016e-06
-3.01316e-06
-4.97487e-07
-1.87521e-06
-3.38992e-08
-3.52134e-07
2.74706e-07
-1.69169e-07
-4.7119e-07
-4.44486e-07
-1.54223e-08
-7.79302e-07
5.0672e-07
-1.19793e-06
1.0601e-06
-1.69634e-06
1.61004e-06
-2.24092e-06
2.12514e-06
-2.77249e-06
2.55958e-06
-3.22175e-06
2.84422e-06
-3.5507e-06
2.94018e-06
-3.78404e-06
2.89358e-06
-3.95061e-06
2.764e-06
-4.06251e-06
2.57598e-06
-4.13273e-06
2.34994e-06
-4.17082e-06
2.10301e-06
-4.18618e-06
1.84601e-06
-4.18676e-06
1.58902e-06
-4.17836e-06
1.33712e-06
-4.16403e-06
1.09379e-06
-4.1447e-06
8.59223e-07
-4.12081e-06
6.32374e-07
-4.09226e-06
4.11495e-07
-4.05917e-06
1.93934e-07
-4.02191e-06
-2.29562e-08
-3.98021e-06
-2.42804e-07
-3.93493e-06
-4.69611e-07
-3.88744e-06
-7.07965e-07
-3.83934e-06
-9.62751e-07
-3.79235e-06
-1.23925e-06
-3.74763e-06
-1.54271e-06
-3.70496e-06
-1.8776e-06
-3.66069e-06
-2.24591e-06
-3.60539e-06
-2.64398e-06
-3.52071e-06
-3.0572e-06
-3.37418e-06
-3.45295e-06
-3.12358e-06
-3.77094e-06
-2.69653e-06
-3.9099e-06
-2.00416e-06
-3.70553e-06
-9.50648e-07
-2.92873e-06
-1.181e-07
-1.18468e-06
1.56607e-07
-2.78313e-07
-1.92877e-07
-6.32106e-07
3.38371e-07
-1.04186e-06
9.16477e-07
-1.50808e-06
1.52632e-06
-2.01195e-06
2.11391e-06
-2.51185e-06
2.62504e-06
-2.94899e-06
2.99672e-06
-3.27194e-06
3.16717e-06
-3.49023e-06
3.15846e-06
-3.63905e-06
3.04241e-06
-3.73344e-06
2.85838e-06
-3.78502e-06
2.62756e-06
-3.80596e-06
2.37089e-06
-3.80577e-06
2.10281e-06
-3.79291e-06
1.83316e-06
-3.77293e-06
1.56903e-06
-3.74925e-06
1.31344e-06
-3.72319e-06
1.06773e-06
-3.695e-06
8.31039e-07
-3.66471e-06
6.02079e-07
-3.63203e-06
3.78818e-07
-3.59675e-06
1.58656e-07
-3.55869e-06
-6.10211e-08
-3.51795e-06
-2.83544e-07
-3.47527e-06
-5.12282e-07
-3.4321e-06
-7.51141e-07
-3.39042e-06
-1.00443e-06
-3.35269e-06
-1.27698e-06
-3.32128e-06
-1.57412e-06
-3.29758e-06
-1.9013e-06
-3.28048e-06
-2.26301e-06
-3.26416e-06
-2.6603e-06
-3.23468e-06
-3.08668e-06
-3.16551e-06
-3.52211e-06
-3.01441e-06
-3.92205e-06
-2.72447e-06
-4.19984e-06
-2.22479e-06
-4.20521e-06
-1.41379e-06
-3.73973e-06
-3.36318e-07
-2.26215e-06
-1.79711e-07
-3.52438e-07
1.59561e-07
-7.7126e-07
7.57193e-07
-1.22022e-06
1.36543e-06
-1.69514e-06
2.00125e-06
-2.17205e-06
2.59082e-06
-2.60824e-06
3.06123e-06
-2.94104e-06
3.32951e-06
-3.16251e-06
3.38864e-06
-3.30647e-06
3.30242e-06
-3.39471e-06
3.13065e-06
-3.43911e-06
2.90278e-06
-3.45198e-06
2.64043e-06
-3.44425e-06
2.36316e-06
-3.42422e-06
2.08278e-06
-3.39817e-06
1.80711e-06
-3.36962e-06
1.54048e-06
-3.34042e-06
1.28425e-06
-3.31113e-06
1.03843e-06
-3.28163e-06
8.01533e-07
-3.2514e-06
5.71848e-07
-3.21973e-06
3.4715e-07
-3.18603e-06
1.24953e-07
-3.14972e-06
-9.73293e-08
-3.11086e-06
-3.22397e-07
-3.07e-06
-5.53146e-07
-3.0284e-06
-7.9274e-07
-2.98811e-06
-1.04471e-06
-2.95191e-06
-1.31318e-06
-2.92298e-06
-1.60305e-06
-2.90418e-06
-1.92011e-06
-2.89667e-06
-2.27051e-06
-2.89769e-06
-2.65928e-06
-2.89736e-06
-3.08702e-06
-2.87484e-06
-3.54464e-06
-2.79354e-06
-4.00334e-06
-2.60123e-06
-4.39215e-06
-2.25444e-06
-4.55199e-06
-1.67091e-06
-4.32326e-06
-6.23296e-07
-3.30977e-06
-8.03007e-07
-3.96117e-07
5.55678e-07
-8.48462e-07
1.20954e-06
-1.30873e-06
1.8257e-06
-1.76848e-06
2.461e-06
-2.20434e-06
3.02668e-06
-2.55934e-06
3.41622e-06
-2.80011e-06
3.57029e-06
-2.95526e-06
3.54379e-06
-3.04813e-06
3.3953e-06
-3.09543e-06
3.17794e-06
-3.10882e-06
2.91617e-06
-3.10019e-06
2.6318e-06
-3.07875e-06
2.34172e-06
-3.05104e-06
2.05508e-06
-3.02144e-06
1.7775e-06
-2.99215e-06
1.51119e-06
-2.96411e-06
1.25622e-06
-2.93725e-06
1.01157e-06
-2.91098e-06
7.7526e-07
-2.88437e-06
5.45237e-07
-2.85642e-06
3.19202e-07
-2.82631e-06
9.48473e-08
-2.79337e-06
-1.30269e-07
-2.75742e-06
-3.58345e-07
-2.71877e-06
-5.91799e-07
-2.67835e-06
-8.33158e-07
-2.63789e-06
-1.08518e-06
-2.59993e-06
-1.35114e-06
-2.56777e-06
-1.63521e-06
-2.54501e-06
-1.94287e-06
-2.53447e-06
-2.28105e-06
-2.53617e-06
-2.65758e-06
-2.5444e-06
-3.07879e-06
-2.54428e-06
-3.54476e-06
-2.50631e-06
-4.04131e-06
-2.37977e-06
-4.51869e-06
-2.11694e-06
-4.81482e-06
-1.66104e-06
-4.77916e-06
-8.88413e-07
-4.0824e-06
-1.69142e-06
-4.13534e-07
9.69211e-07
-8.70616e-07
1.66662e-06
-1.31947e-06
2.27455e-06
-1.74774e-06
2.88927e-06
-2.12744e-06
3.40637e-06
-2.40024e-06
3.68902e-06
-2.58085e-06
3.7509e-06
-2.69111e-06
3.65405e-06
-2.74998e-06
3.45417e-06
-2.77212e-06
3.20008e-06
-2.76885e-06
2.91291e-06
-2.75085e-06
2.6138e-06
-2.72547e-06
2.31634e-06
-2.6977e-06
2.02731e-06
-2.67048e-06
1.75028e-06
-2.6451e-06
1.48581e-06
-2.62178e-06
1.2329e-06
-2.59994e-06
9.89732e-07
-2.57868e-06
7.53996e-07
-2.55689e-06
5.23443e-07
-2.53351e-06
2.95826e-07
-2.50769e-06
6.90239e-08
-2.47878e-06
-1.59181e-07
-2.44643e-06
-3.90689e-07
-2.41075e-06
-6.27486e-07
-2.37229e-06
-8.71616e-07
-2.33228e-06
-1.12518e-06
-2.29273e-06
-1.39068e-06
-2.25654e-06
-1.6714e-06
-2.22734e-06
-1.97207e-06
-2.20876e-06
-2.29963e-06
-2.20288e-06
-2.66346e-06
-2.20748e-06
-3.07419e-06
-2.21295e-06
-3.5393e-06
-2.19789e-06
-4.05637e-06
-2.11811e-06
-4.59847e-06
-1.90161e-06
-5.03133e-06
-1.53492e-06
-5.14584e-06
-9.36785e-07
-4.68054e-06
-2.6282e-06
-4.0429e-07
1.3735e-06
-8.44831e-07
2.10716e-06
-1.265e-06
2.69473e-06
-1.65302e-06
3.27729e-06
-1.96787e-06
3.72122e-06
-2.1806e-06
3.90176e-06
-2.3201e-06
3.8904e-06
-2.39853e-06
3.73248e-06
-2.43605e-06
3.49168e-06
-2.44449e-06
3.20852e-06
-2.43444e-06
2.90285e-06
-2.41481e-06
2.59418e-06
-2.39135e-06
2.29288e-06
-2.36775e-06
2.00371e-06
-2.34591e-06
1.72844e-06
-2.32638e-06
1.46628e-06
-2.30886e-06
1.21538e-06
-2.2925e-06
9.73375e-07
-2.27629e-06
7.37785e-07
-2.25917e-06
5.06319e-07
-2.24019e-06
2.76843e-07
-2.21857e-06
4.74042e-08
-2.19375e-06
-1.83998e-07
-2.16535e-06
-4.19088e-07
-2.13328e-06
-6.59558e-07
-2.09778e-06
-9.07117e-07
-2.05955e-06
-1.16342e-06
-2.01992e-06
-1.43031e-06
-1.98109e-06
-1.71024e-06
-1.94617e-06
-2.00699e-06
-1.91898e-06
-2.32682e-06
-1.90284e-06
-2.67959e-06
-1.89825e-06
-3.07878e-06
-1.89945e-06
-3.5381e-06
-1.89139e-06
-4.06443e-06
-1.84324e-06
-4.64663e-06
-1.67169e-06
-5.20287e-06
-1.36886e-06
-5.44867e-06
-8.37649e-07
-5.21174e-06
-3.46585e-06
-3.75005e-07
1.74851e-06
-7.83983e-07
2.51614e-06
-1.16634e-06
3.07709e-06
-1.50681e-06
3.61775e-06
-1.75809e-06
3.97251e-06
-1.92994e-06
4.07361e-06
-2.03789e-06
3.99835e-06
-2.09622e-06
3.7908e-06
-2.12147e-06
3.51694e-06
-2.12397e-06
3.21102e-06
-2.11324e-06
2.89212e-06
-2.0964e-06
2.57734e-06
-2.07783e-06
2.27431e-06
-2.0602e-06
1.98608e-06
-2.04459e-06
1.71282e-06
-2.03104e-06
1.45273e-06
-2.01896e-06
1.20331e-06
-2.00747e-06
9.61877e-07
-1.99561e-06
7.25924e-07
-1.98249e-06
4.93205e-07
-1.96737e-06
2.61718e-07
-1.9496e-06
2.9639e-08
-1.92874e-06
-2.04855e-07
-1.90444e-06
-4.43395e-07
-1.87647e-06
-6.87521e-07
-1.84484e-06
-9.38745e-07
-1.80981e-06
-1.19845e-06
-1.77208e-06
-1.46804e-06
-1.73305e-06
-1.74927e-06
-1.69505e-06
-2.04498e-06
-1.6615e-06
-2.36037e-06
-1.6363e-06
-2.7048e-06
-1.62192e-06
-3.09315e-06
-1.61582e-06
-3.5442e-06
-1.60715e-06
-4.0731e-06
-1.57279e-06
-4.68098e-06
-1.44858e-06
-5.32708e-06
-1.18103e-06
-5.71622e-06
-7.33121e-07
-5.65966e-06
-4.19897e-06
-3.32278e-07
2.08078e-06
-6.99752e-07
2.88361e-06
-1.03712e-06
3.41446e-06
-1.32436e-06
3.905e-06
-1.52422e-06
4.17236e-06
-1.66474e-06
4.21413e-06
-1.75031e-06
4.08392e-06
-1.79584e-06
3.83634e-06
-1.81482e-06
3.53592e-06
-1.81619e-06
3.21239e-06
-1.8081e-06
2.88403e-06
-1.79608e-06
2.56531e-06
-1.78342e-06
2.26165e-06
-1.77193e-06
1.97459e-06
-1.76213e-06
1.70303e-06
-1.75378e-06
1.44438e-06
-1.74621e-06
1.19574e-06
-1.73863e-06
9.54297e-07
-1.73028e-06
7.1757e-07
-1.72048e-06
4.8341e-07
-1.70869e-06
2.49926e-07
-1.69444e-06
1.53885e-08
-1.67739e-06
-2.21906e-07
-1.65723e-06
-4.63555e-07
-1.6337e-06
-7.11055e-07
-1.6066e-06
-9.65838e-07
-1.57588e-06
-1.22917e-06
-1.54173e-06
-1.50219e-06
-1.50483e-06
-1.78617e-06
-1.46672e-06
-2.08309e-06
-1.43009e-06
-2.39701e-06
-1.39872e-06
-2.73616e-06
-1.37633e-06
-3.11554e-06
-1.36329e-06
-3.55725e-06
-1.35234e-06
-4.08405e-06
-1.32518e-06
-4.70814e-06
-1.24173e-06
-5.41053e-06
-1.00443e-06
-5.95353e-06
-6.22991e-07
-6.04109e-06
-4.82197e-06
-2.81816e-07
2.3626e-06
-5.99216e-07
3.20101e-06
-8.87678e-07
3.70292e-06
-1.1216e-06
4.13892e-06
-1.2842e-06
4.33496e-06
-1.39902e-06
4.32895e-06
-1.46708e-06
4.15199e-06
-1.50412e-06
3.87338e-06
-1.52032e-06
3.55211e-06
-1.52309e-06
3.21516e-06
-1.51905e-06
2.88e-06
-1.51233e-06
2.55859e-06
-1.50537e-06
2.25469e-06
-1.49931e-06
1.96853e-06
-1.49434e-06
1.69806e-06
-1.49011e-06
1.44015e-06
-1.48602e-06
1.19166e-06
-1.48148e-06
9.49749e-07
-1.47592e-06
7.12013e-07
-1.4689e-06
4.76393e-07
-1.46006e-06
2.41081e-07
-1.44908e-06
4.41028e-09
-1.43572e-06
-2.35261e-07
-1.41974e-06
-4.79534e-07
-1.40086e-06
-7.29937e-07
-1.37878e-06
-9.87919e-07
-1.35321e-06
-1.25474e-06
-1.32396e-06
-1.53144e-06
-1.29118e-06
-1.81895e-06
-1.25569e-06
-2.11858e-06
-1.21943e-06
-2.43327e-06
-1.18574e-06
-2.76986e-06
-1.15882e-06
-3.14245e-06
-1.1411e-06
-3.57497e-06
-1.12798e-06
-4.09717e-06
-1.10502e-06
-4.7311e-06
-1.04447e-06
-5.47109e-06
-8.52393e-07
-6.1456e-06
-5.35051e-07
-6.35843e-06
-5.35702e-06
-2.24632e-07
2.58723e-06
-4.89589e-07
3.46597e-06
-7.29312e-07
3.94264e-06
-9.14843e-07
4.32445e-06
-1.04599e-06
4.46611e-06
-1.13732e-06
4.42027e-06
-1.19258e-06
4.20725e-06
-1.22398e-06
3.90478e-06
-1.23925e-06
3.56738e-06
-1.24443e-06
3.22034e-06
-1.24461e-06
2.88018e-06
-1.24279e-06
2.55677e-06
-1.24068e-06
2.25257e-06
-1.23898e-06
1.96684e-06
-1.23771e-06
1.69679e-06
-1.23655e-06
1.43899e-06
-1.23506e-06
1.19017e-06
-1.23285e-06
9.47534e-07
-1.22957e-06
7.08731e-07
-1.22496e-06
4.71781e-07
-1.21881e-06
2.34936e-07
-1.21095e-06
-3.44515e-09
-1.20124e-06
-2.4498e-07
-1.18947e-06
-4.91302e-07
-1.17539e-06
-7.44017e-07
-1.15865e-06
-1.00466e-06
-1.13882e-06
-1.27457e-06
-1.11546e-06
-1.5548e-06
-1.08829e-06
-1.84611e-06
-1.05759e-06
-2.14929e-06
-1.02462e-06
-2.46624e-06
-9.92196e-07
-2.80227e-06
-9.64662e-07
-3.16999e-06
-9.45904e-07
-3.59372e-06
-9.34207e-07
-4.10887e-06
-9.18771e-07
-4.74654e-06
-8.77957e-07
-5.5119e-06
-7.24797e-07
-6.29876e-06
-4.49441e-07
-6.63379e-06
-5.80646e-06
-1.67846e-07
2.75508e-06
-3.77888e-07
3.67601e-06
-5.68377e-07
4.13313e-06
-7.10024e-07
4.4661e-06
-8.12481e-07
4.56856e-06
-8.8373e-07
4.49152e-06
-9.28669e-07
4.25219e-06
-9.55946e-07
3.93206e-06
-9.71077e-07
3.58251e-06
-9.7874e-07
3.228e-06
-9.82641e-07
2.88408e-06
-9.84844e-07
2.55897e-06
-9.86511e-07
2.25424e-06
-9.88058e-07
1.96839e-06
-9.89456e-07
1.69818e-06
-9.90492e-07
1.44002e-06
-9.90919e-07
1.1906e-06
-9.90526e-07
9.47142e-07
-9.89161e-07
7.07365e-07
-9.86718e-07
4.69339e-07
-9.83125e-07
2.31342e-07
-9.78312e-07
-8.25814e-09
-9.72203e-07
-2.51089e-07
-9.64674e-07
-4.9883e-07
-9.55505e-07
-7.53186e-07
-9.44344e-07
-1.01582e-06
-9.30697e-07
-1.28822e-06
-9.1396e-07
-1.57154e-06
-8.93581e-07
-1.86649e-06
-8.69378e-07
-2.17349e-06
-8.42041e-07
-2.49358e-06
-8.13774e-07
-2.83054e-06
-7.88661e-07
-3.1951e-06
-7.71602e-07
-3.61078e-06
-7.63795e-07
-4.11668e-06
-7.56571e-07
-4.75376e-06
-7.28233e-07
-5.54024e-06
-6.2136e-07
-6.40563e-06
-3.92263e-07
-6.86289e-06
-6.19872e-06
-1.07033e-07
2.86211e-06
-2.64888e-07
3.83387e-06
-4.07293e-07
4.27553e-06
-5.09913e-07
4.56872e-06
-5.86549e-07
4.6452e-06
-6.39807e-07
4.54478e-06
-6.75553e-07
4.28793e-06
-6.99217e-07
3.95572e-06
-7.1426e-07
3.59755e-06
-7.23952e-07
3.23769e-06
-7.30757e-07
2.89089e-06
-7.35988e-07
2.5642e-06
-7.40372e-07
2.25863e-06
-7.44162e-07
1.97218e-06
-7.47365e-07
1.70139e-06
-7.49912e-07
1.44257e-06
-7.51734e-07
1.19242e-06
-7.52799e-07
9.48207e-07
-7.53109e-07
7.07675e-07
-7.52688e-07
4.68918e-07
-7.51566e-07
2.3022e-07
-7.49761e-07
-1.00633e-08
-7.47263e-07
-2.53588e-07
-7.44006e-07
-5.02087e-07
-7.39824e-07
-7.57369e-07
-7.344e-07
-1.02124e-06
-7.27238e-07
-1.29538e-06
-7.17668e-07
-1.58111e-06
-7.04966e-07
-1.87919e-06
-6.88641e-07
-2.18982e-06
-6.68924e-07
-2.5133e-06
-6.47466e-07
-2.852e-06
-6.27922e-07
-3.21465e-06
-6.15632e-07
-3.62307e-06
-6.14097e-07
-4.11821e-06
-6.17076e-07
-4.75078e-06
-6.03323e-07
-5.55399e-06
-5.29489e-07
-6.47947e-06
-3.38198e-07
-7.05418e-06
-6.53692e-06
-5.24298e-08
2.91454e-06
-1.54667e-07
3.93611e-06
-2.49257e-07
4.37012e-06
-3.16499e-07
4.63596e-06
-3.68542e-07
4.69724e-06
-4.05172e-07
4.58141e-06
-4.32251e-07
4.31501e-06
-4.52236e-07
3.97571e-06
-4.66783e-07
3.6121e-06
-4.77784e-07
3.24869e-06
-4.86589e-07
2.89969e-06
-4.93877e-07
2.57149e-06
-5.00044e-07
2.26479e-06
-5.05253e-07
1.97738e-06
-5.09585e-07
1.70572e-06
-5.13118e-07
1.4461e-06
-5.15952e-07
1.19526e-06
-5.18211e-07
9.50465e-07
-5.20027e-07
7.09491e-07
-5.21531e-07
4.70422e-07
-5.22836e-07
2.31526e-07
-5.2403e-07
-8.86955e-09
-5.25158e-07
-2.52459e-07
-5.26211e-07
-5.01034e-07
-5.27078e-07
-7.56502e-07
-5.27502e-07
-1.02082e-06
-5.27032e-07
-1.29585e-06
-5.25008e-07
-1.58314e-06
-5.20631e-07
-1.88357e-06
-5.13203e-07
-2.19724e-06
-5.02595e-07
-2.5239e-06
-4.89963e-07
-2.86463e-06
-4.78488e-07
-3.22612e-06
-4.73556e-07
-3.62801e-06
-4.80102e-07
-4.11166e-06
-4.94287e-07
-4.7366e-06
-4.98175e-07
-5.5501e-06
-4.54975e-07
-6.52267e-06
-2.99439e-07
-7.20971e-06
-6.83636e-06
8.28417e-09
2.90626e-06
-4.37557e-08
3.98815e-06
-9.51956e-08
4.42156e-06
-1.30535e-07
4.6713e-06
-1.58233e-07
4.72494e-06
-1.79028e-07
4.6022e-06
-1.97189e-07
4.33317e-06
-2.12978e-07
3.99149e-06
-2.26395e-07
3.62551e-06
-2.37921e-07
3.26022e-06
-2.47858e-07
2.90963e-06
-2.56364e-07
2.58e-06
-2.63551e-07
2.27198e-06
-2.69528e-07
1.98336e-06
-2.74462e-07
1.71065e-06
-2.78577e-07
1.45022e-06
-2.82128e-07
1.19881e-06
-2.85376e-07
9.53713e-07
-2.88568e-07
7.12683e-07
-2.91922e-07
4.73776e-07
-2.95624e-07
2.35227e-07
-2.99816e-07
-4.67767e-09
-3.04593e-07
-2.47682e-07
-3.09992e-07
-4.95635e-07
-3.15961e-07
-7.50533e-07
-3.22315e-07
-1.01446e-06
-3.28684e-07
-1.28948e-06
-3.34478e-07
-1.57734e-06
-3.38914e-07
-1.87913e-06
-3.41193e-07
-2.19497e-06
-3.4092e-07
-2.52418e-06
-3.38818e-07
-2.86673e-06
-3.3757e-07
-3.22737e-06
-3.42316e-07
-3.62326e-06
-3.58826e-07
-4.09515e-06
-3.85743e-07
-4.70968e-06
-4.07305e-07
-5.52854e-06
-3.89385e-07
-6.54058e-06
-2.6349e-07
-7.33561e-06
-7.09985e-06
6.35702e-08
2.84269e-06
6.41064e-08
3.98761e-06
5.37298e-08
4.43194e-06
4.87942e-08
4.67624e-06
4.54017e-08
4.72833e-06
3.9581e-08
4.60803e-06
3.11677e-08
4.34159e-06
2.04211e-08
4.00224e-06
9.03283e-09
3.6369e-06
-2.05611e-09
3.27131e-06
-1.23491e-08
2.91992e-06
-2.13716e-08
2.58902e-06
-2.8968e-08
2.27958e-06
-3.52141e-08
1.98961e-06
-4.03592e-08
1.7158e-06
-4.47567e-08
1.45461e-06
-4.87994e-08
1.20285e-06
-5.2872e-08
9.57786e-07
-5.73238e-08
7.17135e-07
-6.24564e-08
4.78909e-07
-6.85191e-08
2.4129e-07
-7.57075e-08
2.5108e-09
-8.41609e-08
-2.39228e-07
-9.3953e-08
-4.85842e-07
-1.05078e-07
-7.39408e-07
-1.17421e-07
-1.00212e-06
-1.30713e-07
-1.27619e-06
-1.44491e-07
-1.56356e-06
-1.58085e-07
-1.86554e-06
-1.70761e-07
-2.18229e-06
-1.81725e-07
-2.51321e-06
-1.91531e-07
-2.85693e-06
-2.02289e-07
-3.21661e-06
-2.18715e-07
-3.60683e-06
-2.46994e-07
-4.06687e-06
-2.88057e-07
-4.66862e-06
-3.28181e-07
-5.48842e-06
-3.35903e-07
-6.53286e-06
-2.36561e-07
-7.43495e-06
-7.33641e-06
1.19682e-07
2.72301e-06
1.70285e-07
3.93701e-06
1.99823e-07
4.4024e-06
2.26189e-07
4.64987e-06
2.48079e-07
4.70644e-06
2.57531e-07
4.59857e-06
2.5688e-07
4.34224e-06
2.50867e-07
4.00825e-06
2.41826e-07
3.64594e-06
2.31657e-07
3.28148e-06
2.21734e-07
2.92985e-06
2.12868e-07
2.59788e-06
2.05399e-07
2.28704e-06
1.99299e-07
1.99571e-06
1.94268e-07
1.72083e-06
1.89848e-07
1.45903e-06
1.85528e-07
1.20717e-06
1.80807e-07
9.62507e-07
1.75236e-07
7.22706e-07
1.68431e-07
4.85714e-07
1.60079e-07
2.49643e-07
1.49931e-07
1.26587e-08
1.37808e-07
-2.27106e-07
1.23599e-07
-4.71633e-07
1.07263e-07
-7.23072e-07
8.88515e-08
-9.83709e-07
6.85269e-08
-1.25586e-06
4.66169e-08
-1.54165e-06
2.36936e-08
-1.84261e-06
5.49793e-10
-2.15915e-06
-2.2835e-08
-2.48983e-06
-4.58815e-08
-2.83388e-06
-7.02581e-08
-3.19223e-06
-1.00197e-07
-3.5769e-06
-1.41973e-07
-4.0251e-06
-1.98122e-07
-4.61247e-06
-2.56075e-07
-5.43046e-06
-2.87507e-07
-6.50143e-06
-2.12277e-07
-7.51018e-06
-7.54868e-06
1.75703e-07
2.5473e-06
2.75095e-07
3.83761e-06
3.41755e-07
4.33574e-06
3.97019e-07
4.5946e-06
4.42878e-07
4.66058e-06
4.69762e-07
4.57169e-06
4.78681e-07
4.33332e-06
4.78937e-07
4.008e-06
4.73515e-07
3.65137e-06
4.65319e-07
3.28967e-06
4.5647e-07
2.93869e-06
4.48282e-07
2.60607e-06
4.41356e-07
2.29397e-06
4.35747e-07
2.00132e-06
4.3112e-07
1.72546e-06
4.2693e-07
1.46322e-06
4.22554e-07
1.21155e-06
4.17381e-07
9.67679e-07
4.10865e-07
7.29221e-07
4.0254e-07
4.94039e-07
3.92021e-07
2.60162e-07
3.79005e-07
2.56752e-08
3.63271e-07
-2.11372e-07
3.44669e-07
-4.53031e-07
3.23106e-07
-7.01509e-07
2.98551e-07
-9.59154e-07
2.71043e-07
-1.22835e-06
2.40751e-07
-1.51136e-06
2.08004e-07
-1.80987e-06
1.73232e-07
-2.12437e-06
1.37288e-07
-2.45388e-06
1.00125e-07
-2.79672e-06
6.07747e-08
-3.15288e-06
1.5625e-08
-3.53175e-06
-4.15897e-08
-3.96788e-06
-1.1448e-07
-4.53958e-06
-1.90932e-07
-5.35401e-06
-2.42599e-07
-6.44976e-06
-1.94323e-07
-7.55846e-06
-7.74301e-06
2.2984e-07
2.31746e-06
3.77619e-07
3.68983e-06
4.80436e-07
4.23293e-06
5.63993e-07
4.51105e-06
6.31134e-07
4.59344e-06
6.77445e-07
4.52538e-06
6.98069e-07
4.3127e-06
7.05956e-07
4.00011e-06
7.05406e-07
3.65191e-06
7.0026e-07
3.29482e-06
6.93381e-07
2.94557e-06
6.86577e-07
2.61288e-06
6.80733e-07
2.29981e-06
6.76015e-07
2.00604e-06
6.72102e-07
1.72937e-06
6.68395e-07
1.46693e-06
6.64186e-07
1.21576e-06
6.58769e-07
9.73096e-07
6.51504e-07
7.36487e-07
6.41837e-07
5.03705e-07
6.29314e-07
2.72685e-07
6.13572e-07
4.14177e-08
5.94339e-07
-1.92139e-07
5.71409e-07
-4.30101e-07
5.44614e-07
-6.74714e-07
5.13835e-07
-9.28374e-07
4.79008e-07
-1.19353e-06
4.40139e-07
-1.47249e-06
3.97322e-07
-1.76705e-06
3.50839e-07
-2.07789e-06
3.01213e-07
-2.40426e-06
2.48773e-07
-2.74428e-06
1.92992e-07
-3.0971e-06
1.30973e-07
-3.46973e-06
5.66778e-08
-3.89359e-06
-3.46658e-08
-4.44824e-06
-1.31467e-07
-5.25721e-06
-2.02301e-07
-6.37893e-06
-1.77948e-07
-7.58281e-06
-7.92096e-06
2.81537e-07
2.03593e-06
4.76389e-07
3.49498e-06
6.14434e-07
4.09488e-06
7.26085e-07
4.3994e-06
8.13633e-07
4.5059e-06
8.79803e-07
4.45921e-06
9.15198e-07
4.2773e-06
9.32413e-07
3.9829e-06
9.38275e-07
3.64605e-06
9.37593e-07
3.2955e-06
9.33863e-07
2.9493e-06
9.29361e-07
2.61738e-06
9.25279e-07
2.3039e-06
9.21961e-07
2.00935e-06
9.19154e-07
1.73218e-06
9.16254e-07
1.46983e-06
9.12497e-07
1.21951e-06
9.07099e-07
9.78494e-07
8.9933e-07
7.44257e-07
8.88552e-07
5.14483e-07
8.74232e-07
2.87005e-07
8.55939e-07
5.97111e-08
8.33336e-07
-1.69536e-07
8.06142e-07
-4.02907e-07
7.74115e-07
-6.42687e-07
7.37048e-07
-8.91307e-07
6.94742e-07
-1.15122e-06
6.46996e-07
-1.42475e-06
5.93684e-07
-1.71374e-06
5.34882e-07
-2.01909e-06
4.70856e-07
-2.34023e-06
4.02022e-07
-2.67544e-06
3.28375e-07
-3.02346e-06
2.47816e-07
-3.38917e-06
1.54762e-07
-3.80053e-06
4.35863e-08
-4.33706e-06
-7.49491e-08
-5.13868e-06
-1.6672e-07
-6.28716e-06
-1.65385e-07
-7.58414e-06
-8.08634e-06
3.28666e-07
1.70726e-06
5.68471e-07
3.25518e-06
7.40703e-07
3.92265e-06
8.78798e-07
4.2613e-06
9.89304e-07
4.39539e-06
1.07533e-06
4.37318e-06
1.12884e-06
4.22379e-06
1.15792e-06
3.95382e-06
1.1723e-06
3.63168e-06
1.17792e-06
3.28988e-06
1.1789e-06
2.94832e-06
1.17796e-06
2.61832e-06
1.17663e-06
2.30523e-06
1.17546e-06
2.01052e-06
1.17435e-06
1.73329e-06
1.17272e-06
1.47146e-06
1.1698e-06
1.22243e-06
1.16477e-06
9.83532e-07
1.1568e-06
7.52219e-07
1.1452e-06
5.26085e-07
1.12934e-06
3.02866e-07
1.10871e-06
8.03388e-08
1.0829e-06
-1.43727e-07
1.05154e-06
-3.7154e-07
1.01427e-06
-6.05424e-07
9.70795e-07
-8.47829e-07
9.20755e-07
-1.10118e-06
8.63775e-07
-1.36777e-06
7.99468e-07
-1.64943e-06
7.27577e-07
-1.9472e-06
6.48149e-07
-2.2608e-06
5.61702e-07
-2.589e-06
4.68698e-07
-2.93045e-06
3.67841e-07
-3.28831e-06
2.5437e-07
-3.68706e-06
1.23e-07
-4.20569e-06
-1.47474e-08
-5.00093e-06
-1.26731e-07
-6.17518e-06
-1.49603e-07
-7.56127e-06
-8.23594e-06
3.66315e-07
1.34094e-06
6.4819e-07
2.9733e-06
8.54734e-07
3.71611e-06
1.01977e-06
4.09626e-06
1.15439e-06
4.26077e-06
1.2602e-06
4.26737e-06
1.33514e-06
4.14884e-06
1.38016e-06
3.9088e-06
1.40631e-06
3.60553e-06
1.4209e-06
3.27529e-06
1.42883e-06
2.94039e-06
1.4333e-06
2.61385e-06
1.43618e-06
2.30235e-06
1.43832e-06
2.00838e-06
1.43978e-06
1.73184e-06
1.44011e-06
1.47113e-06
1.43859e-06
1.22395e-06
1.43437e-06
9.8775e-07
1.42661e-06
7.59977e-07
1.41454e-06
5.38163e-07
1.39744e-06
3.19965e-07
1.37473e-06
1.03045e-07
1.34591e-06
-1.14902e-07
1.31047e-06
-3.361e-07
1.26796e-06
-5.62919e-07
1.21793e-06
-7.97797e-07
1.15985e-06
-1.0431e-06
1.09312e-06
-1.30104e-06
1.01709e-06
-1.5734e-06
9.3123e-07
-1.86134e-06
8.35361e-07
-2.16493e-06
7.29921e-07
-2.48356e-06
6.15766e-07
-2.8163e-06
4.92624e-07
-3.16517e-06
3.56467e-07
-3.55091e-06
2.01944e-07
-4.05117e-06
3.89072e-08
-4.83789e-06
-9.58194e-08
-6.04045e-06
-1.40512e-07
-7.51658e-06
-8.37646e-06
3.85378e-07
9.55567e-07
7.06732e-07
2.65195e-06
9.50626e-07
3.47221e-06
1.14393e-06
3.90296e-06
1.30284e-06
4.10186e-06
1.43153e-06
4.13869e-06
1.52996e-06
4.05041e-06
1.59546e-06
3.8433e-06
1.63777e-06
3.56322e-06
1.66509e-06
3.24797e-06
1.68311e-06
2.92237e-06
1.6956e-06
2.60136e-06
1.70483e-06
2.29311e-06
1.71197e-06
2.00124e-06
1.71734e-06
1.72647e-06
1.72067e-06
1.46779e-06
1.72136e-06
1.22326e-06
1.71861e-06
9.90499e-07
1.71159e-06
7.67003e-07
1.69947e-06
5.50283e-07
1.68148e-06
3.3795e-07
1.65698e-06
1.27546e-07
1.62533e-06
-8.32468e-08
1.58589e-06
-2.96662e-07
1.53808e-06
-5.15114e-07
1.48127e-06
-7.40988e-07
1.41472e-06
-9.76549e-07
1.3376e-06
-1.22391e-06
1.24898e-06
-1.48479e-06
1.14808e-06
-1.76043e-06
1.03446e-06
-2.05132e-06
9.08513e-07
-2.35761e-06
7.71335e-07
-2.67912e-06
6.23662e-07
-3.0175e-06
4.62474e-07
-3.38972e-06
2.82572e-07
-3.87127e-06
9.32379e-08
-4.64856e-06
-6.36764e-08
-5.88353e-06
-1.27844e-07
-7.45241e-06
-8.5043e-06
3.67659e-07
5.87908e-07
7.34132e-07
2.28548e-06
1.02017e-06
3.18617e-06
1.2443e-06
3.67883e-06
1.42846e-06
3.91769e-06
1.58273e-06
3.98443e-06
1.70725e-06
3.92589e-06
1.79825e-06
3.7523e-06
1.86223e-06
3.49923e-06
1.9073e-06
3.20291e-06
1.93975e-06
2.88992e-06
1.96391e-06
2.5772e-06
1.98252e-06
2.2745e-06
1.99712e-06
1.98664e-06
2.00835e-06
1.71523e-06
2.01623e-06
1.45992e-06
2.02032e-06
1.21917e-06
2.01996e-06
9.90855e-07
2.01439e-06
7.72576e-07
2.00278e-06
5.61893e-07
1.98433e-06
3.56399e-07
1.95834e-06
1.5354e-07
1.924e-06
-4.89107e-08
1.88059e-06
-2.53251e-07
1.82735e-06
-4.61872e-07
1.76342e-06
-6.77062e-07
1.68783e-06
-9.00959e-07
1.59949e-06
-1.13557e-06
1.49722e-06
-1.38251e-06
1.37998e-06
-1.64319e-06
1.24715e-06
-1.91849e-06
1.09907e-06
-2.20954e-06
9.36958e-07
-2.517e-06
7.62433e-07
-2.84297e-06
5.73648e-07
-3.20093e-06
3.66114e-07
-3.66373e-06
1.48725e-07
-4.43117e-06
-3.71089e-08
-5.6977e-06
-1.22492e-07
-7.36703e-06
-8.62679e-06
2.95239e-07
2.92669e-07
7.23472e-07
1.85724e-06
1.05297e-06
2.85668e-06
1.31136e-06
3.42044e-06
1.52372e-06
3.70533e-06
1.70574e-06
3.80241e-06
1.85982e-06
3.77181e-06
1.98144e-06
3.63068e-06
2.0735e-06
3.40718e-06
2.14256e-06
3.13384e-06
2.19502e-06
2.83746e-06
2.23566e-06
2.53656e-06
2.26771e-06
2.24245e-06
2.29315e-06
1.96121e-06
2.31299e-06
1.69539e-06
2.32759e-06
1.44532e-06
2.33679e-06
1.20996e-06
2.34015e-06
9.87497e-07
2.33703e-06
7.75697e-07
2.32667e-06
5.72258e-07
2.30828e-06
3.7478e-07
2.28112e-06
1.807e-07
2.2442e-06
-1.1989e-08
2.19679e-06
-2.05837e-07
2.13786e-06
-4.02945e-07
2.06635e-06
-6.05546e-07
1.981e-06
-8.15616e-07
1.88049e-06
-1.03505e-06
1.76336e-06
-1.26539e-06
1.62841e-06
-1.50825e-06
1.47487e-06
-1.76494e-06