/*--------------------------------*- C++ -*----------------------------------*\
  =========                 |
  \\      /  F ield         | OpenFOAM: The Open Source CFD Toolbox
   \\    /   O peration     | Website:  https://openfoam.org
    \\  /    A nd           | Version:  13
     \\/     M anipulation  |
\*---------------------------------------------------------------------------*/
FoamFile
{
    format      ascii;
    class       volVectorField;
    location    "6.5";
    object      U;
}
// * * * * * * * * * * * * * * * * * * * * * * * * * * * * * * * * * * * * * //

dimensions      [0 1 -1 0 0 0 0];

internalField   nonuniform List<vector> 
400
(
(0.00204627 -0.00258244 0)
(0.00366305 -0.000825982 0)
(-0.00497537 0.00259605 0)
(-0.0210573 0.00902233 0)
(-0.0535515 0.0140268 0)
(-0.0792107 0.0119448 0)
(-0.102175 0.0104685 0)
(-0.119831 0.00805371 0)
(-0.133737 0.00623496 0)
(-0.143478 0.00401314 0)
(-0.149427 0.00226474 0)
(-0.151873 0.000407178 0)
(-0.15109 -0.00245949 0)
(-0.144978 -0.00463698 0)
(-0.134744 -0.00783293 0)
(-0.118158 -0.0106757 0)
(-0.0959484 -0.0139346 0)
(-0.0675331 -0.0158364 0)
(-0.0360208 -0.014358 0)
(-0.00863356 -0.00400908 0)
(-0.00108211 -0.00396569 0)
(-0.00995337 0.00885525 0)
(-0.0335392 0.0264405 0)
(-0.061372 0.0383176 0)
(-0.085311 0.0377143 0)
(-0.104558 0.0340966 0)
(-0.12101 0.0288655 0)
(-0.133162 0.0233879 0)
(-0.143519 0.0170915 0)
(-0.15053 0.0114993 0)
(-0.154812 0.00601942 0)
(-0.155792 0.000637772 0)
(-0.153584 -0.00528398 0)
(-0.148068 -0.0118533 0)
(-0.138639 -0.0198706 0)
(-0.124475 -0.0291883 0)
(-0.105203 -0.0397986 0)
(-0.0805054 -0.0493533 0)
(-0.0501788 -0.051927 0)
(-0.018414 -0.033883 0)
(-0.00713216 0.0100158 0)
(-0.0286651 0.0349417 0)
(-0.0535628 0.0520123 0)
(-0.0751435 0.0579404 0)
(-0.0923073 0.0547905 0)
(-0.106134 0.0482839 0)
(-0.117274 0.0398653 0)
(-0.125747 0.0309232 0)
(-0.131736 0.0229051 0)
(-0.134703 0.0149338 0)
(-0.135884 0.00709805 0)
(-0.134996 -0.000888024 0)
(-0.132661 -0.00929054 0)
(-0.127551 -0.0185385 0)
(-0.120014 -0.0293741 0)
(-0.109089 -0.0422478 0)
(-0.0942756 -0.0574731 0)
(-0.0749001 -0.0740867 0)
(-0.0494789 -0.0861045 0)
(-0.0215265 -0.0748446 0)
(-0.0111861 0.03181 0)
(-0.034798 0.0576926 0)
(-0.0566305 0.0714911 0)
(-0.0730844 0.0737312 0)
(-0.0854075 0.0680978 0)
(-0.0949606 0.0591574 0)
(-0.101902 0.048396 0)
(-0.1067 0.0373868 0)
(-0.10952 0.0267801 0)
(-0.110957 0.0165939 0)
(-0.11104 0.00694302 0)
(-0.109793 -0.00266319 0)
(-0.107183 -0.0126878 0)
(-0.102917 -0.0238551 0)
(-0.0969737 -0.0368718 0)
(-0.0888976 -0.0524682 0)
(-0.0779397 -0.0710325 0)
(-0.0630761 -0.0919376 0)
(-0.0423253 -0.110601 0)
(-0.0195633 -0.108562 0)
(-0.0115318 0.0529401 0)
(-0.0332408 0.0777688 0)
(-0.0509222 0.0876326 0)
(-0.0634783 0.0863008 0)
(-0.0725622 0.077866 0)
(-0.0790601 0.066355 0)
(-0.0833481 0.0534213 0)
(-0.0861161 0.0405904 0)
(-0.0875904 0.0284414 0)
(-0.0880062 0.0170275 0)
(-0.0873865 0.00617392 0)
(-0.0857919 -0.0045619 0)
(-0.0832203 -0.0156879 0)
(-0.0796304 -0.0279753 0)
(-0.0750056 -0.0423165 0)
(-0.0691696 -0.0597185 0)
(-0.0615177 -0.0810145 0)
(-0.0505567 -0.106206 0)
(-0.0342177 -0.13115 0)
(-0.0173071 -0.136688 0)
(-0.00985624 0.0724485 0)
(-0.0278827 0.0951371 0)
(-0.0414348 0.100928 0)
(-0.0512086 0.0961173 0)
(-0.0578484 0.0848571 0)
(-0.0623391 0.0710305 0)
(-0.0651446 0.056381 0)
(-0.066865 0.0422724 0)
(-0.0676276 0.0290974 0)
(-0.0675664 0.0167722 0)
(-0.0667207 0.00502106 0)
(-0.0651332 -0.00655925 0)
(-0.0628175 -0.0184789 0)
(-0.0598095 -0.0314773 0)
(-0.0561668 -0.0465128 0)
(-0.0518792 -0.0647787 0)
(-0.0466832 -0.0874807 0)
(-0.0391332 -0.115385 0)
(-0.0285006 -0.146464 0)
(-0.0119248 -0.159638 0)
(-0.0080701 0.0887834 0)
(-0.0210828 0.108835 0)
(-0.031223 0.111397 0)
(-0.0384792 0.103521 0)
(-0.0432087 0.0898958 0)
(-0.0463796 0.0742563 0)
(-0.0483429 0.0583467 0)
(-0.0495334 0.0433012 0)
(-0.0500257 0.0293399 0)
(-0.0499201 0.0163055 0)
(-0.0492259 0.00387241 0)
(-0.0479362 -0.00838308 0)
(-0.0460439 -0.0209587 0)
(-0.0436048 -0.0345049 0)
(-0.0407472 -0.0499663 0)
(-0.0375843 -0.0686768 0)
(-0.0341247 -0.0921328 0)
(-0.0288831 -0.122084 0)
(-0.0228889 -0.157201 0)
(-0.00966392 -0.178384 0)
(-0.00529981 0.100704 0)
(-0.014053 0.119116 0)
(-0.0212567 0.119113 0)
(-0.026202 0.10889 0)
(-0.0294201 0.0935482 0)
(-0.0316469 0.0766097 0)
(-0.0330871 0.0598009 0)
(-0.0340291 0.044068 0)
(-0.0345041 0.029537 0)
(-0.0345632 0.0159859 0)
(-0.0341822 0.00303017 0)
(-0.0333229 -0.00977336 0)
(-0.0319604 -0.0228932 0)
(-0.0301445 -0.0368767 0)
(-0.028041 -0.052547 0)
(-0.0258495 -0.0713041 0)
(-0.023871 -0.0949722 0)
(-0.0205774 -0.126205 0)
(-0.0184214 -0.164341 0)
(-0.00631834 -0.193355 0)
(-0.00319305 0.108212 0)
(-0.00748582 0.125425 0)
(-0.0118301 0.123894 0)
(-0.014662 0.112406 0)
(-0.0165986 0.0960192 0)
(-0.0180538 0.0782943 0)
(-0.0190934 0.06093 0)
(-0.0198815 0.0447548 0)
(-0.0204045 0.0298488 0)
(-0.0206633 0.0159384 0)
(-0.0206166 0.00259517 0)
(-0.0202189 -0.0106341 0)
(-0.0194444 -0.024185 0)
(-0.0183428 -0.0385102 0)
(-0.0170929 -0.0542699 0)
(-0.0158722 -0.0728301 0)
(-0.0154417 -0.0963615 0)
(-0.0135522 -0.128439 0)
(-0.0149145 -0.168682 0)
(-0.00458631 -0.205426 0)
(3.00595e-05 0.111176 0)
(-0.00131834 0.129024 0)
(-0.00301865 0.126488 0)
(-0.00382713 0.114282 0)
(-0.0045714 0.0974647 0)
(-0.00526659 0.0794017 0)
(-0.00589467 0.0617927 0)
(-0.00650322 0.0453988 0)
(-0.00703512 0.0302863 0)
(-0.00745432 0.0161591 0)
(-0.0077168 0.00256965 0)
(-0.00778999 -0.0109374 0)
(-0.00766154 -0.0247661 0)
(-0.00737221 -0.0392872 0)
(-0.00711044 -0.0550002 0)
(-0.00691932 -0.0731568 0)
(-0.00831022 -0.0961824 0)
(-0.00746498 -0.128642 0)
(-0.012161 -0.170434 0)
(-0.00223101 -0.21495 0)
(0.00214635 0.109698 0)
(0.00427674 0.128778 0)
(0.00551862 0.126223 0)
(0.00655321 0.114395 0)
(0.00698305 0.0977135 0)
(0.00710929 0.0798122 0)
(0.00697991 0.062302 0)
(0.00663911 0.0459315 0)
(0.00617802 0.0307917 0)
(0.00565784 0.0166058 0)
(0.00511705 0.0029388 0)
(0.0045679 -0.0106558 0)
(0.00399655 -0.0245605 0)
(0.00337173 -0.0390869 0)
(0.00249146 -0.0545881 0)
(0.00154094 -0.0721351 0)
(-0.00186056 -0.0945821 0)
(-0.00184819 -0.126846 0)
(-0.0101343 -0.170281 0)
(-0.000566203 -0.222365 0)
(0.00407946 0.10526 0)
(0.00975427 0.126107 0)
(0.0132994 0.124249 0)
(0.0163808 0.113479 0)
(0.0182422 0.0971486 0)
(0.0193519 0.0796419 0)
(0.019892 0.0624493 0)
(0.019963 0.0462928 0)
(0.0196864 0.0313037 0)
(0.0191416 0.0172412 0)
(0.0183588 0.00369866 0)
(0.0173323 -0.00975438 0)
(0.0160158 -0.0234884 0)
(0.0143904 -0.0377832 0)
(0.0122594 -0.0528728 0)
(0.00981611 -0.0696303 0)
(0.00435861 -0.0912205 0)
(0.00375638 -0.122923 0)
(-0.00862195 -0.168135 0)
(0.00195291 -0.227687 0)
(0.00617972 0.0962505 0)
(0.0148096 0.119588 0)
(0.0211093 0.119046 0)
(0.0258482 0.11014 0)
(0.0293954 0.0949983 0)
(0.031672 0.0783855 0)
(0.0330761 0.061889 0)
(0.0337491 0.0462606 0)
(0.0338113 0.0316868 0)
(0.0333488 0.0179916 0)
(0.0323796 0.00482876 0)
(0.0308899 -0.00820206 0)
(0.0287903 -0.0214573 0)
(0.0260817 -0.0352211 0)
(0.0224856 -0.0496612 0)
(0.0184219 -0.0655796 0)
(0.0108823 -0.0858967 0)
(0.00933307 -0.117027 0)
(-0.00743009 -0.164434 0)
(0.00481745 -0.231147 0)
(0.00791356 0.0841577 0)
(0.0191966 0.111683 0)
(0.0279615 0.113247 0)
(0.0346573 0.105697 0)
(0.0401318 0.0919693 0)
(0.0439623 0.0763758 0)
(0.0465577 0.0607249 0)
(0.0481066 0.045822 0)
(0.048724 0.0318907 0)
(0.0484984 0.0188132 0)
(0.0474332 0.00630926 0)
(0.0455146 -0.00599123 0)
(0.0425997 -0.018413 0)
(0.0387582 -0.0312739 0)
(0.033516 -0.044765 0)
(0.0277497 -0.0596293 0)
(0.0179571 -0.0785012 0)
(0.0151811 -0.109265 0)
(-0.00593505 -0.159087 0)
(0.00906393 -0.232904 0)
(0.00941371 0.0684037 0)
(0.0229874 0.0989089 0)
(0.0338893 0.103294 0)
(0.0427878 0.097751 0)
(0.0503357 0.0861617 0)
(0.0560963 0.0722994 0)
(0.0602427 0.0580738 0)
(0.062965 0.0443765 0)
(0.0643823 0.0315187 0)
(0.0645829 0.0194543 0)
(0.0635544 0.00799549 0)
(0.061286 -0.0032074 0)
(0.0575515 -0.0143664 0)
(0.0525909 -0.0258959 0)
(0.0455746 -0.0380459 0)
(0.0380953 -0.0516369 0)
(0.0257351 -0.0690664 0)
(0.0216794 -0.0998795 0)
(-0.00387497 -0.153037 0)
(0.0142173 -0.233446 0)
(0.00921149 0.0512058 0)
(0.0243997 0.0868954 0)
(0.0372341 0.0936848 0)
(0.0485996 0.0894479 0)
(0.0587785 0.0794968 0)
(0.0670677 0.0672767 0)
(0.0733347 0.0545785 0)
(0.0777052 0.0422911 0)
(0.0802887 0.0307702 0)
(0.0812075 0.0200202 0)
(0.0803931 0.00993477 0)
(0.0779907 0.000190474 0)
(0.0735401 -0.00931886 0)
(0.0676273 -0.0191336 0)
(0.0588359 -0.0295263 0)
(0.0498294 -0.0415862 0)
(0.0347408 -0.057402 0)
(0.0296044 -0.0886477 0)
(-0.000997374 -0.144763 0)
(0.0210513 -0.232107 0)
(0.00705398 0.0334086 0)
(0.0231393 0.0679844 0)
(0.0381545 0.0770906 0)
(0.052334 0.0751678 0)
(0.0654076 0.0677977 0)
(0.0765728 0.0581649 0)
(0.0853339 0.0478356 0)
(0.0916934 0.0377208 0)
(0.0957061 0.0282582 0)
(0.0976175 0.0194893 0)
(0.0972212 0.0113729 0)
(0.095034 0.00362343 0)
(0.0901359 -0.00387413 0)
(0.0838601 -0.011549 0)
(0.0737723 -0.0196058 0)
(0.0639839 -0.0297428 0)
(0.0464802 -0.0434696 0)
(0.0408003 -0.0753295 0)
(0.00415287 -0.134739 0)
(0.0302622 -0.225376 0)
(-0.00452291 0.0227918 0)
(0.0136173 0.0563523 0)
(0.0315686 0.0637172 0)
(0.0497371 0.0622883 0)
(0.0666788 0.0564473 0)
(0.0813723 0.0489002 0)
(0.0932157 0.0410065 0)
(0.102206 0.0332323 0)
(0.108305 0.0259212 0)
(0.111969 0.0192457 0)
(0.112807 0.0132 0)
(0.111812 0.00761634 0)
(0.107654 0.00242441 0)
(0.102749 -0.0028603 0)
(0.0931068 -0.00844065 0)
(0.0845366 -0.0161912 0)
(0.0658894 -0.0280678 0)
(0.0603991 -0.0595622 0)
(0.0172067 -0.119432 0)
(0.0457605 -0.203634 0)
(-0.0154434 0.0299817 0)
(-0.00407679 0.0269756 0)
(0.0209062 0.0316636 0)
(0.0451128 0.0331656 0)
(0.0668777 0.031421 0)
(0.0858001 0.0277938 0)
(0.101643 0.0235958 0)
(0.114291 0.0195527 0)
(0.123783 0.0158243 0)
(0.130551 0.0123858 0)
(0.134469 0.00932916 0)
(0.136394 0.00636027 0)
(0.135475 0.00386387 0)
(0.133349 0.000566529 0)
(0.127027 -0.00227902 0)
(0.121666 -0.00823019 0)
(0.106383 -0.0175407 0)
(0.101889 -0.0449026 0)
(0.056963 -0.0924814 0)
(0.0773088 -0.155437 0)
(0.0399038 0.0380527 0)
(0.0458414 0.0273591 0)
(0.0694393 0.0239043 0)
(0.0979054 0.0235684 0)
(0.123278 0.0227778 0)
(0.146335 0.0210961 0)
(0.167348 0.0187748 0)
(0.185518 0.0167887 0)
(0.201081 0.0145787 0)
(0.213866 0.0130478 0)
(0.224299 0.0111336 0)
(0.232454 0.0100525 0)
(0.238526 0.00824287 0)
(0.242579 0.007417 0)
(0.244604 0.00525134 0)
(0.242992 0.003017 0)
(0.235279 0.00224454 0)
(0.220787 -0.00926789 0)
(0.171598 -0.0128621 0)
(0.145363 -0.0642547 0)
)
;

boundaryField
{
    movingWall
    {
        type            fixedValue;
        value           uniform (1 0 0);
    }
    fixedWalls
    {
        type            noSlip;
    }
    frontAndBack
    {
        type            empty;
    }
}


// ************************************************************************* //
