/*--------------------------------*- C++ -*----------------------------------*\
  =========                 |
  \\      /  F ield         | OpenFOAM: The Open Source CFD Toolbox
   \\    /   O peration     | Website:  https://openfoam.org
    \\  /    A nd           | Version:  13
     \\/     M anipulation  |
\*---------------------------------------------------------------------------*/
FoamFile
{
    format      ascii;
    class       volVectorField;
    location    "6.5";
    object      U;
}
// * * * * * * * * * * * * * * * * * * * * * * * * * * * * * * * * * * * * * //

dimensions      [0 1 -1 0 0 0 0];

internalField   nonuniform List<vector> 
1600
(
(0.00117127 -0.00101745 0)
(0.00608842 -0.00160157 0)
(0.0108317 -0.0013392 0)
(0.0137609 -0.000253113 0)
(0.0141331 0.000310803 0)
(0.0136284 0.000120719 0)
(0.0129372 -0.000625453 0)
(0.0128043 -0.00118954 0)
(0.0124471 -0.00120313 0)
(0.011275 -0.000955941 0)
(0.00862101 -0.00098484 0)
(0.00223828 -0.000559248 0)
(-0.00833077 0.00138456 0)
(-0.0201347 0.00725145 0)
(-0.043657 0.0132657 0)
(-0.0690813 0.0137302 0)
(-0.0910077 0.0125807 0)
(-0.110559 0.011005 0)
(-0.126497 0.00927203 0)
(-0.139801 0.0076049 0)
(-0.149962 0.00596861 0)
(-0.157581 0.00440689 0)
(-0.162081 0.00290665 0)
(-0.163986 0.00148927 0)
(-0.163482 -0.000729336 0)
(-0.159124 -0.00235945 0)
(-0.152054 -0.00460417 0)
(-0.140792 -0.00647132 0)
(-0.12617 -0.00871508 0)
(-0.107745 -0.0109334 0)
(-0.0861033 -0.013209 0)
(-0.0615746 -0.0147131 0)
(-0.0355057 -0.0149992 0)
(-0.00873897 -0.0135569 0)
(0.0128183 -0.0115039 0)
(0.0289247 -0.00428248 0)
(0.0304817 0.00333203 0)
(0.0241854 0.00527108 0)
(0.0115787 0.00434266 0)
(0.00240911 0.00297971 0)
(0.00215237 -0.00600784 0)
(0.0105231 -0.00905689 0)
(0.0160172 -0.00672783 0)
(0.0191415 -0.00269282 0)
(0.0194615 0.000371899 0)
(0.017479 0.00152129 0)
(0.0139388 0.00137522 0)
(0.00900913 0.00156242 0)
(0.00139857 0.00300967 0)
(-0.0104998 0.00587686 0)
(-0.0274966 0.0111179 0)
(-0.0535526 0.0197872 0)
(-0.0842053 0.0282793 0)
(-0.111315 0.0342635 0)
(-0.133691 0.0346654 0)
(-0.152769 0.0321662 0)
(-0.168632 0.0284143 0)
(-0.181921 0.0241354 0)
(-0.192472 0.0198325 0)
(-0.200758 0.0156074 0)
(-0.206607 0.0115239 0)
(-0.210318 0.00750852 0)
(-0.211754 0.00350991 0)
(-0.211047 -0.000629013 0)
(-0.207973 -0.00513729 0)
(-0.202501 -0.00986502 0)
(-0.194339 -0.0149246 0)
(-0.183247 -0.0203029 0)
(-0.168916 -0.0259893 0)
(-0.15067 -0.0315274 0)
(-0.12908 -0.0366622 0)
(-0.104801 -0.040805 0)
(-0.0778767 -0.0419328 0)
(-0.0498108 -0.038951 0)
(-0.0227773 -0.0307192 0)
(0.000520128 -0.0146617 0)
(0.0165197 0.00345602 0)
(0.0166691 0.011293 0)
(0.00991811 0.0138111 0)
(0.00154379 0.0105247 0)
(0.00344837 -0.0138858 0)
(0.0115805 -0.016278 0)
(0.0147757 -0.0108544 0)
(0.0155661 -0.00336737 0)
(0.0134763 0.00217602 0)
(0.00866152 0.00522237 0)
(0.000211987 0.00743475 0)
(-0.0128651 0.0117644 0)
(-0.0322123 0.0200298 0)
(-0.0585266 0.0313469 0)
(-0.0883191 0.0425267 0)
(-0.115798 0.0495252 0)
(-0.139446 0.0526967 0)
(-0.158076 0.0526376 0)
(-0.173352 0.0496329 0)
(-0.185627 0.0449798 0)
(-0.19559 0.0393075 0)
(-0.203587 0.0332812 0)
(-0.209897 0.0271986 0)
(-0.214671 0.0212407 0)
(-0.218117 0.0151112 0)
(-0.220037 0.00934103 0)
(-0.220447 0.00347547 0)
(-0.219247 -0.00244072 0)
(-0.216415 -0.00868638 0)
(-0.211934 -0.0153425 0)
(-0.205678 -0.0227549 0)
(-0.19737 -0.0309136 0)
(-0.186885 -0.0399864 0)
(-0.173861 -0.0493607 0)
(-0.15782 -0.0584635 0)
(-0.138176 -0.0657582 0)
(-0.115192 -0.0691555 0)
(-0.089543 -0.0671222 0)
(-0.0619594 -0.0567331 0)
(-0.0337438 -0.0362188 0)
(-0.00657596 -0.00634337 0)
(0.00165388 0.0114611 0)
(0.00190141 0.0181043 0)
(-0.000184475 0.0141269 0)
(0.00408325 -0.0224548 0)
(0.00846935 -0.0206895 0)
(0.00867435 -0.0112404 0)
(0.00566723 -0.000674864 0)
(-0.00031335 0.00762821 0)
(-0.0105236 0.0147872 0)
(-0.0263673 0.0230893 0)
(-0.0482494 0.0342478 0)
(-0.074875 0.0474562 0)
(-0.103516 0.0595421 0)
(-0.129434 0.0675579 0)
(-0.149535 0.0704944 0)
(-0.165394 0.0698944 0)
(-0.177309 0.0663339 0)
(-0.186957 0.0609073 0)
(-0.194387 0.0543808 0)
(-0.200399 0.0472314 0)
(-0.205385 0.0395593 0)
(-0.209568 0.0318871 0)
(-0.212737 0.024328 0)
(-0.21479 0.0172024 0)
(-0.215729 0.00998376 0)
(-0.21561 0.00278786 0)
(-0.214458 -0.00460098 0)
(-0.212245 -0.0122402 0)
(-0.208852 -0.020366 0)
(-0.204207 -0.0291315 0)
(-0.198169 -0.0386742 0)
(-0.190576 -0.0490419 0)
(-0.181339 -0.0605527 0)
(-0.170354 -0.0727084 0)
(-0.157296 -0.0845882 0)
(-0.141532 -0.0936634 0)
(-0.120996 -0.0958857 0)
(-0.0952336 -0.0872179 0)
(-0.0653226 -0.0654802 0)
(-0.0294829 -0.0275703 0)
(-0.00723474 0.00406707 0)
(-0.00213776 0.0160261 0)
(-0.000214378 0.0137118 0)
(0.00255117 -0.0268851 0)
(0.00303242 -0.0207278 0)
(-0.00113237 -0.00699887 0)
(-0.00825453 0.00647117 0)
(-0.0191723 0.0188804 0)
(-0.0350095 0.0313505 0)
(-0.0563722 0.0453371 0)
(-0.0819059 0.060506 0)
(-0.108404 0.0740967 0)
(-0.132116 0.0830967 0)
(-0.150012 0.0862189 0)
(-0.163469 0.0852527 0)
(-0.173755 0.0814118 0)
(-0.18132 0.07539 0)
(-0.187315 0.0681248 0)
(-0.192088 0.0598261 0)
(-0.196108 0.0512442 0)
(-0.199038 0.0427725 0)
(-0.200844 0.0344392 0)
(-0.201766 0.0262145 0)
(-0.202087 0.0181685 0)
(-0.201831 0.0101701 0)
(-0.201078 0.00218471 0)
(-0.199799 -0.00599571 0)
(-0.197884 -0.0145056 0)
(-0.195327 -0.0235862 0)
(-0.192113 -0.0334273 0)
(-0.188183 -0.0442036 0)
(-0.183443 -0.0559841 0)
(-0.177738 -0.0686722 0)
(-0.170809 -0.0819589 0)
(-0.162231 -0.0951257 0)
(-0.151782 -0.107738 0)
(-0.138409 -0.116508 0)
(-0.119449 -0.115915 0)
(-0.0921864 -0.0994573 0)
(-0.0570152 -0.0643517 0)
(-0.0170921 -0.0140155 0)
(-0.00209991 0.0106004 0)
(0.000767363 0.0128774 0)
(-0.000257725 -0.0276809 0)
(-0.00440599 -0.0157542 0)
(-0.0125493 0.00116891 0)
(-0.0237637 0.0182557 0)
(-0.0390821 0.0351262 0)
(-0.0589129 0.0523512 0)
(-0.0823995 0.0697486 0)
(-0.106855 0.0852361 0)
(-0.12881 0.0959706 0)
(-0.145322 0.10005 0)
(-0.157107 0.0990621 0)
(-0.166041 0.0950208 0)
(-0.172445 0.0886384 0)
(-0.177125 0.0807678 0)
(-0.180572 0.0719926 0)
(-0.182619 0.0628694 0)
(-0.183841 0.0535835 0)
(-0.184263 0.0443478 0)
(-0.184372 0.0352964 0)
(-0.184221 0.0265176 0)
(-0.183685 0.0179935 0)
(-0.182847 0.00959357 0)
(-0.181691 0.00122252 0)
(-0.180211 -0.00729774 0)
(-0.178393 -0.01614 0)
(-0.176285 -0.0255347 0)
(-0.173916 -0.0356968 0)
(-0.171313 -0.0468568 0)
(-0.168471 -0.0592032 0)
(-0.165344 -0.0728186 0)
(-0.161771 -0.0875207 0)
(-0.157386 -0.102703 0)
(-0.151494 -0.117091 0)
(-0.142946 -0.12886 0)
(-0.130304 -0.135516 0)
(-0.110694 -0.129837 0)
(-0.0811801 -0.104147 0)
(-0.0384276 -0.0522424 0)
(-0.00497456 -0.00226558 0)
(0.00156506 0.012164 0)
(-0.00343099 -0.0225653 0)
(-0.0118918 -0.00683062 0)
(-0.0235344 0.0131834 0)
(-0.0383069 0.033819 0)
(-0.0567811 0.0545859 0)
(-0.0781664 0.0746976 0)
(-0.10064 0.092613 0)
(-0.121327 0.105761 0)
(-0.137088 0.111848 0)
(-0.147791 0.111562 0)
(-0.15553 0.107627 0)
(-0.160911 0.10112 0)
(-0.164354 0.0928675 0)
(-0.166411 0.0836208 0)
(-0.167366 0.0737916 0)
(-0.167607 0.0637927 0)
(-0.167414 0.0538746 0)
(-0.166906 0.0442216 0)
(-0.166243 0.0348916 0)
(-0.165374 0.0258666 0)
(-0.164319 0.0170916 0)
(-0.163088 0.0084575 0)
(-0.161676 -0.000147269 0)
(-0.160084 -0.00887007 0)
(-0.158327 -0.0178834 0)
(-0.156452 -0.0273833 0)
(-0.154519 -0.0375736 0)
(-0.152593 -0.0486729 0)
(-0.150738 -0.0608953 0)
(-0.148985 -0.0744166 0)
(-0.147293 -0.0892949 0)
(-0.145458 -0.105308 0)
(-0.142914 -0.121713 0)
(-0.138534 -0.136799 0)
(-0.130601 -0.147742 0)
(-0.117128 -0.150533 0)
(-0.0957988 -0.137554 0)
(-0.0627376 -0.0983132 0)
(-0.0146149 -0.0241322 0)
(0.00259996 0.0110399 0)
(-0.0062381 -0.0134915 0)
(-0.0180927 0.00603418 0)
(-0.032494 0.0283934 0)
(-0.0500417 0.0519787 0)
(-0.0698428 0.0750542 0)
(-0.090648 0.0957816 0)
(-0.110407 0.112001 0)
(-0.12614 0.121149 0)
(-0.136446 0.122534 0)
(-0.143426 0.119161 0)
(-0.148115 0.112825 0)
(-0.15084 0.104384 0)
(-0.152126 0.0946891 0)
(-0.152432 0.0843515 0)
(-0.152075 0.0737854 0)
(-0.151374 0.0633278 0)
(-0.15048 0.0531467 0)
(-0.149473 0.0433382 0)
(-0.148394 0.0338902 0)
(-0.147221 0.0247547 0)
(-0.145966 0.0158555 0)
(-0.144607 0.00708884 0)
(-0.143139 -0.00165098 0)
(-0.141554 -0.0104989 0)
(-0.139872 -0.0196083 0)
(-0.138137 -0.0291495 0)
(-0.136418 -0.0393096 0)
(-0.134808 -0.0502948 0)
(-0.133408 -0.0623215 0)
(-0.132306 -0.0755931 0)
(-0.131535 -0.090244 0)
(-0.130993 -0.106241 0)
(-0.130297 -0.123208 0)
(-0.128526 -0.140171 0)
(-0.124124 -0.155011 0)
(-0.115181 -0.163818 0)
(-0.0998683 -0.160497 0)
(-0.0750706 -0.135516 0)
(-0.0331232 -0.0677314 0)
(0.000449892 -3.15543e-06 0)
(-0.00795579 -0.000727874 0)
(-0.0225948 0.0219071 0)
(-0.038897 0.0457905 0)
(-0.057689 0.0709406 0)
(-0.0773629 0.0946284 0)
(-0.0964737 0.114361 0)
(-0.112767 0.127472 0)
(-0.123416 0.131695 0)
(-0.130313 0.129652 0)
(-0.134687 0.123826 0)
(-0.137177 0.115527 0)
(-0.138127 0.105605 0)
(-0.138102 0.0948741 0)
(-0.137456 0.0838597 0)
(-0.136475 0.0729191 0)
(-0.135363 0.0622762 0)
(-0.134198 0.0520194 0)
(-0.133029 0.0421735 0)
(-0.13186 0.0326899 0)
(-0.13067 0.023508 0)
(-0.129442 0.0145438 0)
(-0.128139 0.00569311 0)
(-0.12674 -0.00314573 0)
(-0.125232 -0.0120868 0)
(-0.123627 -0.0212615 0)
(-0.121961 -0.0308084 0)
(-0.120302 -0.0408863 0)
(-0.11875 -0.0516786 0)
(-0.117429 -0.063399 0)
(-0.11647 -0.0762859 0)
(-0.115974 -0.0905696 0)
(-0.115937 -0.106387 0)
(-0.116137 -0.123636 0)
(-0.115916 -0.141746 0)
(-0.113883 -0.159227 0)
(-0.108147 -0.172851 0)
(-0.0973323 -0.176573 0)
(-0.0788703 -0.163088 0)
(-0.0495721 -0.114116 0)
(-0.00683035 -0.0149828 0)
(-0.00896378 0.0143231 0)
(-0.0252091 0.0393972 0)
(-0.0422941 0.0640052 0)
(-0.0612949 0.0895569 0)
(-0.0799859 0.112791 0)
(-0.0969818 0.13033 0)
(-0.10862 0.138518 0)
(-0.116249 0.13904 0)
(-0.120798 0.134263 0)
(-0.123386 0.126429 0)
(-0.124431 0.116581 0)
(-0.124356 0.105594 0)
(-0.123662 0.0942042 0)
(-0.122612 0.0828296 0)
(-0.121434 0.0717401 0)
(-0.120247 0.0610641 0)
(-0.119099 0.0508274 0)
(-0.11801 0.0410087 0)
(-0.116958 0.0315381 0)
(-0.115912 0.0223396 0)
(-0.114832 0.0133224 0)
(-0.113679 0.00439096 0)
(-0.11242 -0.00455471 0)
(-0.111041 -0.0136096 0)
(-0.109542 -0.0228804 0)
(-0.107948 -0.0324786 0)
(-0.106312 -0.0425287 0)
(-0.104723 -0.0531792 0)
(-0.103302 -0.0646148 0)
(-0.102194 -0.0770687 0)
(-0.101542 -0.0908182 0)
(-0.101424 -0.106142 0)
(-0.101767 -0.123205 0)
(-0.102177 -0.14187 0)
(-0.101562 -0.161303 0)
(-0.0979176 -0.178927 0)
(-0.0901547 -0.188292 0)
(-0.0759226 -0.183783 0)
(-0.0534352 -0.14883 0)
(-0.0158923 -0.0425541 0)
(-0.00940756 0.0305157 0)
(-0.0261464 0.0575962 0)
(-0.0430545 0.082184 0)
(-0.0614205 0.107316 0)
(-0.0787298 0.129048 0)
(-0.0923408 0.142613 0)
(-0.100672 0.146698 0)
(-0.106485 0.144205 0)
(-0.109364 0.13718 0)
(-0.110841 0.127714 0)
(-0.111036 0.11669 0)
(-0.110481 0.104982 0)
(-0.109546 0.0932018 0)
(-0.108437 0.0816663 0)
(-0.107323 0.0705595 0)
(-0.10627 0.0599343 0)
(-0.105303 0.0497706 0)
(-0.104414 0.0400102 0)
(-0.103566 0.0305669 0)
(-0.102718 0.0213536 0)
(-0.101826 0.0122793 0)
(-0.100849 0.00325543 0)
(-0.0997589 -0.00580968 0)
(-0.0985347 -0.0149975 0)
(-0.0971698 -0.024394 0)
(-0.0956787 -0.034089 0)
(-0.0940963 -0.0441775 0)
(-0.0924884 -0.0547744 0)
(-0.0909558 -0.0660298 0)
(-0.0896348 -0.0781538 0)
(-0.0886805 -0.0914354 0)
(-0.0882235 -0.106236 0)
(-0.0882964 -0.122913 0)
(-0.0887164 -0.141639 0)
(-0.0887664 -0.162159 0)
(-0.0866145 -0.182981 0)
(-0.0805888 -0.197511 0)
(-0.0695026 -0.199981 0)
(-0.0498636 -0.177684 0)
(-0.0188427 -0.0914566 0)
(-0.00919177 0.0466731 0)
(-0.0255407 0.0754942 0)
(-0.0415959 0.0994886 0)
(-0.0586705 0.123457 0)
(-0.074234 0.143015 0)
(-0.0843183 0.15206 0)
(-0.0910702 0.153037 0)
(-0.0952215 0.147866 0)
(-0.097094 0.139021 0)
(-0.0979122 0.128246 0)
(-0.097699 0.116356 0)
(-0.0970154 0.104175 0)
(-0.0961032 0.0921812 0)
(-0.0951344 0.0806048 0)
(-0.0942217 0.0695521 0)
(-0.0934006 0.0590164 0)
(-0.0926724 0.0489395 0)
(-0.0920103 0.039236 0)
(-0.0913729 0.0298096 0)
(-0.0907194 0.0205686 0)
(-0.0900072 0.0114255 0)
(-0.0892014 0.00229889 0)
(-0.0882776 -0.00689432 0)
(-0.0872153 -0.0162261 0)
(-0.0860042 -0.0257682 0)
(-0.0846484 -0.0355938 0)
(-0.0831656 -0.0457757 0)
(-0.0815967 -0.0563988 0)
(-0.0800129 -0.0675764 0)
(-0.0785239 -0.079481 0)
(-0.0772749 -0.092384 0)
(-0.0764213 -0.106686 0)
(-0.0760664 -0.122886 0)
(-0.0761615 -0.14142 0)
(-0.0763198 -0.162419 0)
(-0.0751501 -0.185246 0)
(-0.0701393 -0.205339 0)
(-0.0616927 -0.212649 0)
(-0.0447298 -0.199831 0)
(-0.0159085 -0.124824 0)
(-0.00848675 0.062176 0)
(-0.0237537 0.0924926 0)
(-0.0385139 0.115563 0)
(-0.0541984 0.138106 0)
(-0.0671008 0.15418 0)
(-0.0747564 0.159633 0)
(-0.0803974 0.157898 0)
(-0.0833396 0.150538 0)
(-0.0846625 0.14022 0)
(-0.0851268 0.128412 0)
(-0.0848009 0.115897 0)
(-0.0841893 0.103412 0)
(-0.0834433 0.0913155 0)
(-0.0827057 0.0797626 0)
(-0.0820445 0.0687914 0)
(-0.0814723 0.0583481 0)
(-0.0809745 0.0483442 0)
(-0.0805177 0.0386774 0)
(-0.080063 0.0292475 0)
(-0.0795746 0.0199632 0)
(-0.079018 0.010742 0)
(-0.078365 0.00150874 0)
(-0.0775971 -0.00781226 0)
(-0.0766965 -0.0172875 0)
(-0.0756513 -0.0269804 0)
(-0.0744581 -0.0369537 0)
(-0.073121 -0.0472664 0)
(-0.0716589 -0.0579816 0)
(-0.0701134 -0.0691814 0)
(-0.0685605 -0.0809979 0)
(-0.0671188 -0.0936636 0)
(-0.0659434 -0.107574 0)
(-0.0651824 -0.123313 0)
(-0.0648845 -0.141547 0)
(-0.0648505 -0.162714 0)
(-0.0641355 -0.18666 0)
(-0.0602294 -0.211456 0)
(-0.053091 -0.223973 0)
(-0.0391337 -0.219815 0)
(-0.0140456 -0.157598 0)
(-0.00740308 0.0762824 0)
(-0.0212036 0.108065 0)
(-0.0343493 0.130014 0)
(-0.0483346 0.150711 0)
(-0.0584879 0.163069 0)
(-0.0645615 0.16585 0)
(-0.069304 0.161714 0)
(-0.0714106 0.152576 0)
(-0.0724608 0.141069 0)
(-0.0727713 0.128458 0)
(-0.0725047 0.115496 0)
(-0.072062 0.102817 0)
(-0.0715412 0.0906801 0)
(-0.0710545 0.0791747 0)
(-0.070637 0.0682816 0)
(-0.0702869 0.0579112 0)
(-0.0699825 0.0479536 0)
(-0.0696919 0.0382984 0)
(-0.0693833 0.0288454 0)
(-0.0690288 0.0195066 0)
(-0.0686033 0.0102045 0)
(-0.0680861 0.000868255 0)
(-0.0674638 -0.00857198 0)
(-0.0667224 -0.0181803 0)
(-0.06585 -0.0280165 0)
(-0.0648383 -0.0381382 0)
(-0.0636813 -0.0485971 0)
(-0.0623809 -0.0594424 0)
(-0.0609539 -0.0707327 0)
(-0.0594443 -0.0825629 0)
(-0.0579377 -0.0951188 0)
(-0.0565696 -0.108759 0)
(-0.0555052 -0.124096 0)
(-0.0548623 -0.141966 0)
(-0.0545626 -0.163131 0)
(-0.054039 -0.187908 0)
(-0.0513448 -0.215116 0)
(-0.0447737 -0.233862 0)
(-0.0340141 -0.235046 0)
(-0.0115596 -0.182439 0)
(-0.00620036 0.0887291 0)
(-0.0181315 0.121837 0)
(-0.0294573 0.142523 0)
(-0.0414779 0.161154 0)
(-0.0492034 0.170292 0)
(-0.0545298 0.170982 0)
(-0.0581723 0.164763 0)
(-0.059783 0.154209 0)
(-0.0606906 0.141754 0)
(-0.0609695 0.128525 0)
(-0.0608417 0.115244 0)
(-0.0605983 0.102437 0)
(-0.060307 0.0902862 0)
(-0.0600491 0.0788257 0)
(-0.0598385 0.0679901 0)
(-0.0596669 0.0576639 0)
(-0.0595123 0.0477248 0)
(-0.0593494 0.0380595 0)
(-0.0591547 0.02857 0)
(-0.0589093 0.0191724 0)
(-0.0585964 0.00979304 0)
(-0.0582025 0.00036423 0)
(-0.0577187 -0.00918047 0)
(-0.0571347 -0.0189046 0)
(-0.0564397 -0.0288682 0)
(-0.0556226 -0.039128 0)
(-0.0546711 -0.0497334 0)
(-0.0535747 -0.0607268 0)
(-0.0523314 -0.0721502 0)
(-0.0509592 -0.0840685 0)
(-0.0495132 -0.09662 0)
(-0.0481016 -0.110109 0)
(-0.0468855 -0.125125 0)
(-0.0460246 -0.14261 0)
(-0.0455343 -0.163634 0)
(-0.0450815 -0.188895 0)
(-0.0431751 -0.218022 0)
(-0.0373668 -0.2428 0)
(-0.0296853 -0.249002 0)
(-0.0100962 -0.205674 0)
(-0.00473717 0.0988698 0)
(-0.0147347 0.133529 0)
(-0.0242424 0.15314 0)
(-0.0341373 0.169535 0)
(-0.0399767 0.176184 0)
(-0.0445301 0.17509 0)
(-0.047288 0.167231 0)
(-0.0486029 0.155574 0)
(-0.0494281 0.142376 0)
(-0.04974 0.128679 0)
(-0.0497708 0.115165 0)
(-0.0497178 0.102268 0)
(-0.0496288 0.0901087 0)
(-0.0495582 0.0786762 0)
(-0.0495088 0.067871 0)
(-0.0494709 0.0575612 0)
(-0.0494272 0.0476178 0)
(-0.0493602 0.0379276 0)
(-0.0492553 0.0283957 0)
(-0.0491014 0.0189416 0)
(-0.048889 0.00949438 0)
(-0.0486106 -1.17806e-05 0)
(-0.0482611 -0.00964182 0)
(-0.0478336 -0.0194602 0)
(-0.0473191 -0.0295292 0)
(-0.0467056 -0.0399081 0)
(-0.0459773 -0.0506481 0)
(-0.0451155 -0.0617899 0)
(-0.0441046 -0.0733658 0)
(-0.0429427 -0.0854166 0)
(-0.041659 -0.0980379 0)
(-0.0403356 -0.111473 0)
(-0.039121 -0.126262 0)
(-0.0382045 -0.143382 0)
(-0.0376851 -0.164149 0)
(-0.0373291 -0.189608 0)
(-0.0360666 -0.219748 0)
(-0.0317409 -0.24937 0)
(-0.025034 -0.260401 0)
(-0.00852182 -0.223963 0)
(-0.00342407 0.107003 0)
(-0.0112195 0.143156 0)
(-0.0189285 0.161839 0)
(-0.0266921 0.176087 0)
(-0.0309575 0.180852 0)
(-0.0347425 0.17834 0)
(-0.0367936 0.169236 0)
(-0.0379054 0.156747 0)
(-0.0386713 0.142984 0)
(-0.0390396 0.128938 0)
(-0.0392148 0.115251 0)
(-0.0393225 0.102281 0)
(-0.0393951 0.0901062 0)
(-0.0394659 0.0786797 0)
(-0.0395335 0.0678795 0)
(-0.0395905 0.0575636 0)
(-0.0396263 0.0476004 0)
(-0.0396315 0.0378782 0)
(-0.0395994 0.0283046 0)
(-0.0395254 0.0188018 0)
(-0.0394061 0.00930044 0)
(-0.0392389 -0.000264608 0)
(-0.0390216 -0.00995814 0)
(-0.0387506 -0.0198462 0)
(-0.0384188 -0.0299951 0)
(-0.0380153 -0.0404682 0)
(-0.0375228 -0.0513219 0)
(-0.0369185 -0.0625994 0)
(-0.0361776 -0.0743286 0)
(-0.0352832 -0.0865321 0)
(-0.0342436 -0.0992675 0)
(-0.0331155 -0.112716 0)
(-0.0320276 -0.127347 0)
(-0.0311783 -0.144132 0)
(-0.0307316 -0.164574 0)
(-0.0305407 -0.1901 0)
(-0.0298012 -0.22117 0)
(-0.0266708 -0.254625 0)
(-0.0219051 -0.270528 0)
(-0.00743039 -0.241002 0)
(-0.00180034 0.11247 0)
(-0.00764747 0.150541 0)
(-0.0135347 0.168538 0)
(-0.0192968 0.180982 0)
(-0.0222907 0.184448 0)
(-0.0252583 0.180843 0)
(-0.0267284 0.17086 0)
(-0.0276644 0.157772 0)
(-0.0283719 0.143592 0)
(-0.0287924 0.12929 0)
(-0.0290815 0.115471 0)
(-0.0293125 0.102436 0)
(-0.0295034 0.090234 0)
(-0.0296731 0.0787926 0)
(-0.0298199 0.0679766 0)
(-0.0299408 0.0576393 0)
(-0.0300323 0.0476484 0)
(-0.0300925 0.0378938 0)
(-0.0301214 0.0282849 0)
(-0.0301199 0.0187454 0)
(-0.0300894 0.0092067 0)
(-0.0300311 -0.000396607 0)
(-0.0299454 -0.0101301 0)
(-0.0298314 -0.0200619 0)
(-0.0296843 -0.0302624 0)
(-0.029495 -0.0408009 0)
(-0.0292471 -0.0517405 0)
(-0.0289163 -0.0631304 0)
(-0.0284733 -0.0749987 0)
(-0.0278914 -0.0873561 0)
(-0.0271626 -0.100228 0)
(-0.0263231 -0.113736 0)
(-0.0254819 -0.128271 0)
(-0.0248308 -0.144744 0)
(-0.0245686 -0.164771 0)
(-0.0246364 -0.190194 0)
(-0.0244954 -0.222042 0)
(-0.0225301 -0.2579 0)
(-0.0188813 -0.278606 0)
(-0.00633196 -0.254892 0)
(-0.000652782 0.116076 0)
(-0.00413843 0.155828 0)
(-0.00819197 0.173316 0)
(-0.0120691 0.184385 0)
(-0.0139974 0.187061 0)
(-0.0160841 0.182653 0)
(-0.0170633 0.172122 0)
(-0.0178208 0.158651 0)
(-0.0184579 0.14419 0)
(-0.0189093 0.129711 0)
(-0.0192761 0.11579 0)
(-0.0195918 0.102693 0)
(-0.0198616 0.0904511 0)
(-0.0200944 0.0789777 0)
(-0.0202903 0.0681315 0)
(-0.0204512 0.0577641 0)
(-0.0205806 0.0477439 0)
(-0.0206832 0.0379618 0)
(-0.0207647 0.0283285 0)
(-0.0208307 0.0187677 0)
(-0.0208864 0.00921075 0)
(-0.0209359 -0.000408657 0)
(-0.0209821 -0.0101574 0)
(-0.0210261 -0.0201059 0)
(-0.0210656 -0.0303287 0)
(-0.0210937 -0.0409012 0)
(-0.021096 -0.0518942 0)
(-0.0210498 -0.0633649 0)
(-0.0209245 -0.0753455 0)
(-0.0206881 -0.08784 0)
(-0.0203207 -0.100848 0)
(-0.0198406 -0.114436 0)
(-0.019337 -0.128914 0)
(-0.0189868 -0.145113 0)
(-0.0190081 -0.164694 0)
(-0.0194315 -0.189876 0)
(-0.0199084 -0.222265 0)
(-0.0189885 -0.260341 0)
(-0.0167482 -0.285621 0)
(-0.00552137 -0.267881 0)
(0.00112628 0.116838 0)
(-0.000642759 0.158972 0)
(-0.00289202 0.176252 0)
(-0.00506235 0.186448 0)
(-0.00600257 0.18867 0)
(-0.00720813 0.183825 0)
(-0.00773732 0.173048 0)
(-0.00829695 0.159382 0)
(-0.00884315 0.14476 0)
(-0.00929652 0.13017 0)
(-0.00970518 0.116172 0)
(-0.0100711 0.103015 0)
(-0.0103869 0.0907232 0)
(-0.0106544 0.0792055 0)
(-0.0108758 0.06832 0)
(-0.0110584 0.0579194 0)
(-0.0112119 0.0478733 0)
(-0.0113472 0.0380732 0)
(-0.0114748 0.0284295 0)
(-0.0116044 0.0188654 0)
(-0.0117443 0.00931116 0)
(-0.0119011 -0.000300907 0)
(-0.0120797 -0.0100395 0)
(-0.0122829 -0.0199774 0)
(-0.0125107 -0.0301926 0)
(-0.0127585 -0.0407662 0)
(-0.0130153 -0.051777 0)
(-0.0132616 -0.0632911 0)
(-0.0134682 -0.0753475 0)
(-0.0136033 -0.0879491 0)
(-0.0136379 -0.101077 0)
(-0.0135759 -0.114747 0)
(-0.0134878 -0.129187 0)
(-0.0135297 -0.145136 0)
(-0.0139264 -0.164245 0)
(-0.014794 -0.189057 0)
(-0.015904 -0.221727 0)
(-0.0159199 -0.261428 0)
(-0.0148042 -0.291053 0)
(-0.00472604 -0.278743 0)
(0.00226676 0.115524 0)
(0.00270865 0.160041 0)
(0.00227452 0.17747 0)
(0.00169938 0.187276 0)
(0.0017615 0.189354 0)
(0.00143319 0.184348 0)
(0.00132635 0.173587 0)
(0.000987185 0.159924 0)
(0.000559455 0.145266 0)
(0.000135644 0.130631 0)
(-0.000282149 0.116583 0)
(-0.000667023 0.10337 0)
(-0.00100073 0.0910222 0)
(-0.00127987 0.0794526 0)
(-0.00150886 0.0685238 0)
(-0.00169944 0.0580914 0)
(-0.00186688 0.0480265 0)
(-0.00202719 0.0382206 0)
(-0.00219545 0.0285831 0)
(-0.00238495 0.0190357 0)
(-0.00260691 0.0095068 0)
(-0.00287026 -7.2956e-05 0)
(-0.00318177 -0.00977449 0)
(-0.00354592 -0.0196732 0)
(-0.00396394 -0.0298508 0)
(-0.0044337 -0.0403932 0)
(-0.00494765 -0.0513857 0)
(-0.00549014 -0.0629024 0)
(-0.00603846 -0.0749904 0)
(-0.00656558 -0.0876562 0)
(-0.00703388 -0.10087 0)
(-0.00743609 -0.114604 0)
(-0.0078272 -0.129013 0)
(-0.00833824 -0.144733 0)
(-0.00919085 -0.163372 0)
(-0.0105759 -0.187716 0)
(-0.0123674 -0.220522 0)
(-0.0132461 -0.261717 0)
(-0.0133865 -0.295627 0)
(-0.00410887 -0.288973 0)
(0.00349945 0.112164 0)
(0.00603302 0.159107 0)
(0.00731119 0.177132 0)
(0.00822899 0.186873 0)
(0.00933314 0.18898 0)
(0.00984741 0.184322 0)
(0.0101881 0.17378 0)
(0.0101148 0.16027 0)
(0.00983602 0.145684 0)
(0.0094741 0.131063 0)
(0.00907908 0.116992 0)
(0.00870148 0.103733 0)
(0.0083712 0.0913271 0)
(0.00809728 0.0797018 0)
(0.00787427 0.0687287 0)
(0.00768669 0.0582687 0)
(0.00751449 0.0481947 0)
(0.00733679 0.0383975 0)
(0.00713412 0.0287847 0)
(0.00688959 0.0192755 0)
(0.00658908 0.00979602 0)
(0.00622135 0.000274338 0)
(0.00577772 -0.00936255 0)
(0.00525249 -0.0191926 0)
(0.00464264 -0.0293004 0)
(0.00394795 -0.0397763 0)
(0.00317362 -0.0507118 0)
(0.00232968 -0.0621888 0)
(0.00143182 -0.0742635 0)
(0.000498511 -0.0869452 0)
(-0.000429151 -0.100191 0)
(-0.00133666 -0.113958 0)
(-0.00226443 -0.128324 0)
(-0.00331408 -0.143822 0)
(-0.00469542 -0.161986 0)
(-0.00665103 -0.185778 0)
(-0.00916743 -0.218547 0)
(-0.010786 -0.260886 0)
(-0.0121206 -0.298986 0)
(-0.00348876 -0.297711 0)
(0.00484081 0.106277 0)
(0.00935583 0.15616 0)
(0.0122502 0.175247 0)
(0.0145562 0.18526 0)
(0.0167263 0.187648 0)
(0.0180561 0.183633 0)
(0.018907 0.173617 0)
(0.0191411 0.16039 0)
(0.0190494 0.145981 0)
(0.0187891 0.131438 0)
(0.0184499 0.117375 0)
(0.0181045 0.104078 0)
(0.0177977 0.0916169 0)
(0.017545 0.0799375 0)
(0.0173409 0.0689233 0)
(0.0171672 0.0584425 0)
(0.0169996 0.0483703 0)
(0.0168128 0.0385971 0)
(0.0165831 0.0290281 0)
(0.01629 0.0195796 0)
(0.0159166 0.0101748 0)
(0.0154487 0.000738734 0)
(0.014876 -0.00880481 0)
(0.0141914 -0.0185365 0)
(0.0133899 -0.0285435 0)
(0.0124693 -0.0389184 0)
(0.0114304 -0.0497553 0)
(0.0102763 -0.0611432 0)
(0.00901736 -0.073148 0)
(0.00767084 -0.0857874 0)
(0.00625981 -0.099012 0)
(0.00480322 -0.112766 0)
(0.00328868 -0.127064 0)
(0.00163483 -0.142336 0)
(-0.000346777 -0.160023 0)
(-0.00293864 -0.183212 0)
(-0.00626145 -0.215874 0)
(-0.00852017 -0.25923 0)
(-0.0111551 -0.301671 0)
(-0.00295167 -0.305986 0)
(0.0061432 0.0982703 0)
(0.0126185 0.15128 0)
(0.017085 0.171893 0)
(0.0207015 0.182497 0)
(0.0239733 0.185339 0)
(0.0260136 0.182219 0)
(0.0274933 0.173077 0)
(0.0281033 0.160249 0)
(0.0282466 0.146116 0)
(0.0281349 0.131716 0)
(0.0278902 0.117696 0)
(0.0276096 0.104382 0)
(0.0273516 0.0918755 0)
(0.0271385 0.0801462 0)
(0.0269671 0.0690955 0)
(0.0268182 0.0586016 0)
(0.0266646 0.0485431 0)
(0.0264773 0.03881 0)
(0.0262286 0.0293048 0)
(0.0258946 0.0199407 0)
(0.0254549 0.0106369 0)
(0.0248932 0.00131527 0)
(0.0241966 -0.00810418 0)
(0.0233562 -0.0177049 0)
(0.0223647 -0.027576 0)
(0.0212164 -0.0378128 0)
(0.0199079 -0.0485122 0)
(0.0184384 -0.0597654 0)
(0.0168106 -0.071641 0)
(0.0150296 -0.0841645 0)
(0.0131102 -0.0973024 0)
(0.0110735 -0.11098 0)
(0.00892014 -0.125174 0)
(0.00660109 -0.140207 0)
(0.00395301 -0.157405 0)
(0.000661099 -0.179932 0)
(-0.00355203 -0.212401 0)
(-0.00637383 -0.25674 0)
(-0.0105188 -0.303016 0)
(-0.0021313 -0.313258 0)
(0.00733968 0.0881229 0)
(0.0157625 0.144465 0)
(0.0217782 0.167087 0)
(0.0266352 0.178597 0)
(0.0309693 0.182249 0)
(0.0337606 0.179937 0)
(0.0359011 0.172017 0)
(0.0370045 0.159781 0)
(0.0374534 0.146029 0)
(0.0375487 0.131847 0)
(0.0374512 0.117919 0)
(0.0372777 0.104616 0)
(0.0370999 0.0920795 0)
(0.0369498 0.0803102 0)
(0.0368289 0.0692321 0)
(0.0367189 0.0587354 0)
(0.0365913 0.048704 0)
(0.0364142 0.039028 0)
(0.0361568 0.0296075 0)
(0.0357913 0.0203517 0)
(0.0352943 0.011176 0)
(0.0346464 0.00199812 0)
(0.0338322 -0.00726559 0)
(0.0328401 -0.0167009 0)
(0.0316597 -0.0263983 0)
(0.0302823 -0.0364546 0)
(0.0287007 -0.0469685 0)
(0.0269074 -0.0580335 0)
(0.0248948 -0.0697233 0)
(0.0226597 -0.0820681 0)
(0.0202083 -0.0950386 0)
(0.0175533 -0.108563 0)
(0.0147054 -0.122597 0)
(0.0116628 -0.137372 0)
(0.00828144 -0.154075 0)
(0.00422166 -0.175903 0)
(-0.000977051 -0.208131 0)
(-0.00433936 -0.253509 0)
(-0.0100279 -0.303533 0)
(-0.00141 -0.320221 0)
(0.00836375 0.0759458 0)
(0.0186813 0.135805 0)
(0.0262221 0.160899 0)
(0.0322757 0.173615 0)
(0.0374805 0.178348 0)
(0.0413302 0.176857 0)
(0.044081 0.170263 0)
(0.0458077 0.15889 0)
(0.0466623 0.145652 0)
(0.0470457 0.131769 0)
(0.0471643 0.117991 0)
(0.0471541 0.104738 0)
(0.0471016 0.0921972 0)
(0.0470493 0.0804067 0)
(0.0470054 0.0693155 0)
(0.0469551 0.0588298 0)
(0.0468703 0.0488407 0)
(0.0467181 0.0392398 0)
(0.0464648 0.0299252 0)
(0.0460798 0.0208024 0)
(0.0455362 0.0117826 0)
(0.0448118 0.00277936 0)
(0.0438878 -0.0062948 0)
(0.0427491 -0.0155276 0)
(0.041382 -0.0250111 0)
(0.0397736 -0.0348433 0)
(0.0379114 -0.0451219 0)
(0.0357815 -0.0559394 0)
(0.0333678 -0.0673704 0)
(0.0306556 -0.0794547 0)
(0.0276352 -0.0921753 0)
(0.0243163 -0.105468 0)
(0.0207231 -0.119275 0)
(0.016889 -0.133756 0)
(0.0127066 -0.149963 0)
(0.00780077 -0.171072 0)
(0.00155401 -0.203018 0)
(-0.00223543 -0.249412 0)
(-0.00934431 -0.303147 0)
(-0.00048318 -0.326463 0)
(0.00903107 0.0618231 0)
(0.0212046 0.125252 0)
(0.030197 0.153276 0)
(0.0374504 0.167543 0)
(0.0435724 0.173472 0)
(0.048412 0.173079 0)
(0.0519324 0.167702 0)
(0.0543988 0.157447 0)
(0.0558052 0.144879 0)
(0.0565953 0.131396 0)
(0.0570283 0.117838 0)
(0.0572638 0.104687 0)
(0.0574035 0.092182 0)
(0.0575015 0.0803994 0)
(0.0575751 0.069318 0)
(0.0576155 0.0588629 0)
(0.0575983 0.0489351 0)
(0.0574908 0.0394298 0)
(0.0572587 0.030244 0)
(0.0568692 0.0212801 0)
(0.056292 0.0124457 0)
(0.0555025 0.00364979 0)
(0.0544778 -0.0051986 0)
(0.0531986 -0.0141885 0)
(0.0516469 -0.0234135 0)
(0.0498047 -0.0329717 0)
(0.0476533 -0.0429593 0)
(0.045171 -0.0534665 0)
(0.0423319 -0.0645668 0)
(0.0391089 -0.0763033 0)
(0.0354812 -0.0886725 0)
(0.0314544 -0.101636 0)
(0.0270489 -0.115144 0)
(0.0223502 -0.12929 0)
(0.0172736 -0.144985 0)
(0.0114148 -0.165372 0)
(0.00407924 -0.197029 0)
(-8.80915e-05 -0.244556 0)
(-0.00925117 -0.301717 0)
(0.000393792 -0.332518 0)
(0.00906815 0.0462641 0)
(0.0229881 0.112994 0)
(0.0334299 0.14427 0)
(0.0419207 0.160385 0)
(0.0490312 0.167591 0)
(0.0548201 0.168442 0)
(0.0593055 0.164259 0)
(0.0626198 0.155286 0)
(0.0647571 0.143564 0)
(0.0661183 0.130606 0)
(0.0670037 0.11736 0)
(0.067601 0.104382 0)
(0.0680282 0.0919665 0)
(0.0683533 0.0802352 0)
(0.0686051 0.0691983 0)
(0.0687838 0.0588026 0)
(0.0688707 0.0489622 0)
(0.0688371 0.0395776 0)
(0.0686493 0.0305468 0)
(0.0682743 0.0217704 0)
(0.0676793 0.0131531 0)
(0.0668373 0.00459931 0)
(0.0657216 -0.00398413 0)
(0.0643072 -0.0126867 0)
(0.0625715 -0.0216038 0)
(0.0604906 -0.0308322 0)
(0.0580374 -0.040465 0)
(0.0551816 -0.0505889 0)
(0.0518867 -0.0612746 0)
(0.0481146 -0.0725701 0)
(0.043832 -0.0844866 0)
(0.0390405 -0.0970131 0)
(0.0337553 -0.110124 0)
(0.0281129 -0.123886 0)
(0.0220358 -0.139049 0)
(0.0151474 -0.158687 0)
(0.00666631 -0.189983 0)
(0.00221374 -0.238763 0)
(-0.00908808 -0.29957 0)
(0.00155233 -0.338061 0)
(0.00757827 0.0297855 0)
(0.0235736 0.0988814 0)
(0.0355252 0.133647 0)
(0.0453704 0.152065 0)
(0.0535817 0.16073 0)
(0.0603728 0.162793 0)
(0.0659099 0.159852 0)
(0.0702382 0.15222 0)
(0.0733159 0.141508 0)
(0.075461 0.129224 0)
(0.0769873 0.116408 0)
(0.078107 0.103698 0)
(0.0789561 0.091451 0)
(0.0796184 0.0798344 0)
(0.0801367 0.0688939 0)
(0.0805233 0.0586007 0)
(0.0807689 0.0488845 0)
(0.080851 0.0396542 0)
(0.0807405 0.0308109 0)
(0.0804049 0.022255 0)
(0.079812 0.0138908 0)
(0.0789313 0.00561722 0)
(0.0777338 -0.00265786 0)
(0.0761883 -0.0110234 0)
(0.0742664 -0.0195771 0)
(0.0719374 -0.0284128 0)
(0.0691647 -0.0376184 0)
(0.0659077 -0.0472768 0)
(0.0621192 -0.0574549 0)
(0.0577505 -0.0682057 0)
(0.0527574 -0.0795565 0)
(0.0471411 -0.0915324 0)
(0.040907 -0.104141 0)
(0.0342338 -0.117449 0)
(0.0270535 -0.132057 0)
(0.0190384 -0.15094 0)
(0.00931261 -0.181849 0)
(0.00462379 -0.231873 0)
(-0.00938025 -0.296687 0)
(0.00282788 -0.343306 0)
(0.00381939 0.0156105 0)
(0.0221448 0.0834011 0)
(0.0360629 0.12138 0)
(0.047454 0.142416 0)
(0.0569011 0.152811 0)
(0.0647722 0.15607 0)
(0.0714415 0.154315 0)
(0.0769585 0.148038 0)
(0.0812119 0.13848 0)
(0.0844003 0.127035 0)
(0.0868052 0.114795 0)
(0.0886555 0.102476 0)
(0.090105 0.090501 0)
(0.0912541 0.0790869 0)
(0.0921618 0.0683165 0)
(0.0928548 0.0581877 0)
(0.093337 0.0486481 0)
(0.0935951 0.0396183 0)
(0.0936081 0.0310046 0)
(0.0933455 0.022711 0)
(0.0927807 0.0146414 0)
(0.0918778 0.00669219 0)
(0.0906067 -0.00122468 0)
(0.0889321 -0.0091975 0)
(0.0868184 -0.0173253 0)
(0.084227 -0.0256961 0)
(0.0811113 -0.0343925 0)
(0.0774196 -0.0434927 0)
(0.0730939 -0.0530601 0)
(0.0680769 -0.0631549 0)