/*--------------------------------*- C++ -*----------------------------------*\
  =========                 |
  \\      /  F ield         | OpenFOAM: The Open Source CFD Toolbox
   \\    /   O peration     | Website:  https://openfoam.org
    \\  /    A nd           | Version:  13
     \\/     M anipulation  |
\*---------------------------------------------------------------------------*/
FoamFile
{
    format      ascii;
    class       volScalarField;
    location    "5";
    object      epsilon;
}
// * * * * * * * * * * * * * * * * * * * * * * * * * * * * * * * * * * * * * //

dimensions      [0 2 -3 0 0 0 0];

internalField   nonuniform List<scalar> 
1600
(
2.04188e-05
7.73424e-05
0.00015717
0.000172182
0.000164194
0.000172092
0.000217125
0.000337776
0.000467256
0.000604259
0.000928216
0.00124164
0.00141133
0.00155903
0.00179197
0.00209908
0.00241688
0.00275335
0.00310912
0.00348532
0.00389974
0.00434867
0.0048599
0.00543684
0.00612674
0.00678918
0.00743923
0.0080129
0.00850158
0.00876775
0.00887249
0.00867131
0.00789664
0.00659808
0.0047973
0.00270987
0.00125335
0.000500392
0.000152577
3.05148e-05
9.881e-05
0.000125853
0.000164925
0.000166975
0.000171642
0.000210393
0.000348226
0.000681707
0.00116363
0.00180312
0.00319651
0.00420651
0.00441811
0.00425845
0.00401943
0.00388468
0.00380706
0.00377582
0.00377529
0.00385081
0.00396971
0.00413846
0.00433584
0.00457
0.00485595
0.00520575
0.00560032
0.0060547
0.00651576
0.00691669
0.00710221
0.00713318
0.0066571
0.00573912
0.00418511
0.00234226
0.000942149
0.00039308
0.000136286
5.69391e-05
0.000294114
0.000318718
0.000344875
0.000348343
0.000409274
0.000662251
0.00132858
0.00257852
0.00426454
0.00509157
0.00517959
0.00449766
0.0041121
0.00369504
0.00334629
0.00311863
0.00293361
0.00281451
0.00275273
0.00272849
0.00272519
0.00276882
0.00285616
0.00298523
0.00314795
0.00334319
0.00357748
0.00385436
0.00417552
0.00454989
0.00498143
0.0053774
0.00555992
0.00547263
0.00473756
0.003126
0.000975643
0.000258566
8.92012e-05
4.78771e-05
0.000683447
0.000633479
0.000659664
0.000743825
0.00108193
0.00199156
0.00361689
0.00495054
0.00533911
0.00497178
0.00443696
0.00349777
0.00297736
0.00255034
0.00234507
0.00217708
0.0020899
0.00204691
0.00203219
0.00203574
0.00207824
0.00213278
0.00221019
0.00230275
0.0024168
0.00255104
0.00271291
0.00290543
0.00313294
0.00339616
0.00369366
0.00403159
0.00444174
0.00488029
0.00504771
0.00462011
0.00228237
0.000396034
7.9907e-05
3.54113e-05
0.0013175
0.00109325
0.00120442
0.00153957
0.00239018
0.00385357
0.00493383
0.00520068
0.00486558
0.00388926
0.00291149
0.00242404
0.00209261
0.00188843
0.0017872
0.00173452
0.00171691
0.00171645
0.00175045
0.00178949
0.00184361
0.00190001
0.00196706
0.00204231
0.00213302
0.00224224
0.00237836
0.00254537
0.00274681
0.00298154
0.00324407
0.00352968
0.00384446
0.00422568
0.00477425
0.00502798
0.00447057
0.00127847
0.000161816
4.43011e-05
0.00224725
0.00174611
0.00201443
0.00264182
0.00376576
0.00468023
0.00492695
0.0046782
0.003535
0.00256271
0.00207728
0.00179767
0.00163663
0.00156286
0.00153573
0.00153074
0.00155361
0.00158589
0.00162718
0.00166841
0.00171511
0.00176459
0.0018231
0.00189205
0.00197746
0.00208386
0.0022178
0.00238416
0.00258716
0.00282701
0.00309999
0.00339407
0.00368987
0.00398152
0.00434029
0.00478844
0.00496518
0.00337345
0.000501349
8.85571e-05
0.00345927
0.00258095
0.00297132
0.00369359
0.00442484
0.0046635
0.00449117
0.00342325
0.00237304
0.00186554
0.00160806
0.00147412
0.00141512
0.00139652
0.00139479
0.00141275
0.00143444
0.0014561
0.0014782
0.00150048
0.00152696
0.00156057
0.00160635
0.0016686
0.00175329
0.00186656
0.00201535
0.00220581
0.0024422
0.0027235
0.00303937
0.0033686
0.00368691
0.00396219
0.00424465
0.00460799
0.00483372
0.00463445
0.00128755
0.000204015
0.00477437
0.00349449
0.00386179
0.00433168
0.00451763
0.00435964
0.00348116
0.00232657
0.00175792
0.0014878
0.0013588
0.00130164
0.0012813
0.00127665
0.0012772
0.00127969
0.00127951
0.00127408
0.00126979
0.00126807
0.00127207
0.00128842
0.00132065
0.00137302
0.00145196
0.00156427
0.00171879
0.00192534
0.00219359
0.00252918
0.00292683
0.0033608
0.00377994
0.00415806
0.00436338
0.00459014
0.00482057
0.00488655
0.00279194
0.000505091
0.00591739
0.00433216
0.00453125
0.00462575
0.0043602
0.00364678
0.00246839
0.00174451
0.00142369
0.00127709
0.0012107
0.00118173
0.00116859
0.00115656
0.00113951
0.00111688
0.00108905
0.00105967
0.00103384
0.00101683
0.00101005
0.00101044
0.00103349
0.00107551
0.00114413
0.00124567
0.00139003
0.00158996
0.00186113
0.00221966
0.00267528
0.00321784
0.00379883
0.00433856
0.004685
0.0048542
0.00501438
0.0050906
0.00433408
0.00135786
0.00677455
0.00496859
0.00492087
0.00461079
0.00394832
0.00281239
0.00185383
0.00141832
0.00122717
0.00114073
0.00110006
0.00107827
0.0010549
0.00102384
0.000984463
0.000939796
0.000893919
0.000851346
0.00081602
0.000791234
0.000779524
0.000776469
0.000791027
0.000825179
0.000881989
0.000968184
0.00109315
0.00127078
0.00152041
0.00186671
0.00233569
0.00294231
0.00366488
0.00440952
0.00498445
0.00521002
0.00529118
0.00530523
0.00490971
0.0024583
0.00737097
0.00538243
0.0051103
0.00446689
0.00335735
0.00215472
0.00150206
0.00121969
0.00109543
0.00103735
0.00100586
0.000975287
0.000935139
0.000885446
0.000829633
0.000772792
0.000719705
0.000673799
0.000637399
0.000612269
0.000600221
0.000596655
0.000606714
0.00063434
0.000680452
0.000751061
0.000854511
0.00100406
0.00121983
0.00153096
0.00197566
0.00259399
0.00340506
0.0043608
0.00524133
0.00565038
0.0057662
0.00570485
0.00535048
0.00356567
0.00772348
0.00558623
0.00508081
0.00415171
0.00277896
0.00174406
0.00128279
0.00108474
0.000995551
0.000951353
0.000915674
0.000871631
0.000816558
0.000754339
0.000690546
0.000630447
0.000577766
0.000534405
0.000501216
0.000478902
0.000468233
0.000465051
0.000472704
0.000494933
0.000532149
0.000589203
0.000673194
0.000795774
0.000975726
0.00124273
0.00164108
0.00222893
0.00306223
0.00414538
0.00534061
0.00607486
0.00626184
0.00614851
0.00575727
0.00448432
0.00771845
0.00558312
0.00496289
0.00376206
0.00230547
0.00148148
0.00113364
0.000984263
0.000914981
0.000873352
0.000828652
0.000772656
0.000707667
0.000639676
0.000574637
0.000516784
0.000468307
0.000429775
0.000401008
0.000382005
0.000372941
0.000370268
0.000376306
0.000394179
0.000424293
0.000470435
0.000538476
0.000638212
0.000786076
0.00100971
0.00135446
0.0018895
0.00270375
0.00386964
0.00534637
0.00651098
0.00686011
0.00673126
0.00613581
0.0053487
0.00762377
0.00551255
0.00472316
0.00336566
0.0019638
0.00130177
0.00102508
0.000904684
0.000846364
0.000801487
0.000747904
0.000683579
0.000613731
0.000545026
0.000482683
0.000429517
0.000386362
0.000352854
0.000328221
0.000312038
0.000304296
0.000302022
0.000306799
0.000321239
0.000345823
0.000383517
0.000439118
0.000520683
0.000642065
0.000827574
0.00111988
0.00159083
0.00234796
0.00351335
0.00513837
0.00682789
0.00746558
0.00738238
0.00664419
0.00616008
0.00739401
0.00534438
0.0044282
0.00300596
0.00173118
0.00117278
0.000941793
0.000839831
0.000786609
0.000736761
0.000676376
0.000607372
0.000536437
0.000469958
0.000411976
0.000364012
0.000325917
0.000296775
0.000275524
0.0002615
0.000254728
0.000252719
0.000256482
0.00026825
0.000288577
0.000319832
0.000365946
0.000433516
0.000534016
0.000688185
0.000934432
0.00134307
0.00203306
0.00316721
0.00486257
0.00697887
0.00810507
0.00810775
0.00720498
0.00695526
0.00699343
0.00511283
0.00412397
0.00271071
0.00156509
0.00107697
0.000876309
0.000786848
0.000734829
0.000680441
0.000615656
0.000544806
0.000475068
0.000412085
0.000358735
0.000315539
0.000281731
0.000256097
0.000237472
0.000225044
0.00021895
0.0002171
0.000220055
0.00022975
0.000246796
0.000273145
0.000312067
0.000369011
0.000453429
0.000582655
0.000789957
0.00114034
0.00175598
0.00283549
0.00459571
0.00700899
0.00873586
0.00892189
0.00783463
0.00773656
0.00652021
0.00486141
0.00383081
0.00247656
0.0014438
0.00100454
0.000824541
0.000743332
0.000690848
0.000633141
0.000566024
0.000495194
0.000427756
0.000368503
0.000319355
0.000280153
0.000249768
0.000226852
0.00021022
0.000198985
0.000193333
0.000191567
0.000193887
0.000201965
0.000216457
0.000239029
0.000272473
0.000321377
0.000393609
0.000503601
0.000679609
0.000979476
0.00152082
0.00251965
0.00427276
0.00692245
0.00930633
0.00979949
0.00852302
0.0085147
0.00596294
0.00462221
0.00356763
0.00229666
0.00135635
0.000950475
0.000783891
0.000707821
0.000654447
0.000594767
0.000526882
0.000457157
0.000392354
0.000336517
0.000290875
0.000254841
0.000227093
0.000206235
0.000191089
0.000180786
0.000175387
0.000173641
0.000175466
0.000182276
0.000194757
0.000214377
0.000243587
0.000286363
0.000349376
0.000444737
0.000596258
0.00085432
0.00132833
0.00224132
0.00395297
0.00674643
0.00979616
0.0107338
0.00931287
0.00929484
0.0054039
0.0043882
0.00333808
0.00216223
0.00129443
0.000909704
0.000752184
0.00067919
0.00062514
0.000564712
0.000497178
0.000429104
0.000366852
0.000313902
0.000271028
0.000237405
0.000211629
0.000192298
0.000178256
0.000168656
0.000163391
0.000161611
0.000163042
0.000168852
0.000179743
0.000197021
0.00022291
0.000260965
0.000316979
0.000401309
0.000534028
0.000758315
0.00117276
0.00199689
0.00363833
0.00652954
0.0101988
0.0116956
0.0101884
0.0100718
0.00477006
0.00417938
0.00314844
0.00206444
0.00125549
0.000883244
0.00072831
0.000656546
0.000602217
0.000542069
0.000475704
0.000409575
0.000349645
0.000298986
0.000258166
0.000226288
0.000201932
0.000183704
0.00017046
0.000161372
0.000156168
0.000154315
0.000155493
0.000160539
0.000170099
0.000185452
0.00020871
0.000243102
0.00029376
0.000369838
0.000488429
0.000686352
0.00105089
0.00179148
0.00334616
0.00629213
0.0104939
0.0126852
0.0111813
0.0108549
0.00426195
0.00400072
0.00299567
0.00199895
0.00123503
0.000863383
0.00071113
0.000639069
0.000584859
0.000525861
0.000461322
0.000397215
0.000339145
0.000290238
0.000250976
0.000220401
0.000197075
0.000179609
0.000166882
0.000158109
0.00015289
0.000150919
0.000152071
0.000156638
0.000165318
0.000179247
0.000200303
0.000231462
0.000277878
0.000347832
0.000455993
0.000633722
0.000957113
0.00162075
0.00307781
0.00605765
0.0106932
0.0136881
0.0122871
0.0116314
0.00383324
0.00383513
0.00289287
0.00195573
0.00123793
0.000863282
0.000699486
0.000626078
0.00057211
0.000514941
0.000452648
0.00039074
0.000335198
0.000288089
0.000249945
0.000220008
0.000197002
0.000179669
0.00016701
0.000158262
0.000152945
0.000150767
0.000151668
0.000155738
0.000163835
0.000176957
0.00019663
0.000225712
0.000269007
0.000334091
0.000434315
0.000597162
0.00088794
0.00148386
0.00283548
0.0057938
0.0108212
0.0146944
0.0135307
0.0124108
0.00345441
0.00369603
0.00282845
0.00194797
0.00125191
0.000869736
0.000698207
0.00061727
0.00056348
0.0005085
0.00044932
0.000390783
0.000336303
0.000289761
0.000251916
0.000222125
0.000199212
0.000181997
0.000169457
0.000160828
0.000155607
0.000153545
0.000154333
0.000157879
0.000165256
0.000177347
0.000195907
0.000223804
0.000265398
0.000327604
0.000423302
0.000575455
0.000839734
0.00137827
0.00262551
0.00553102
0.0108815
0.0157299
0.0148794
0.0131781
0.00311044
0.00358523
0.00280081
0.0019587
0.00128351
0.000886855
0.000701953
0.000614349
0.000557772
0.000505419
0.000449926
0.000393097
0.000340258
0.00029468
0.000257326
0.000227735
0.000204918
0.000187763
0.000175266
0.000166657
0.000161409
0.00015929
0.000160014
0.000163256
0.000170212
0.000181738
0.000199281
0.000225509
0.000265035
0.000325666
0.00041922
0.000565666
0.000812204
0.00130192
0.00244728
0.00526504
0.0108999
0.016769
0.0163525
0.0139383
0.0027879
0.00349592
0.00280683
0.00198937
0.0013356
0.000921616
0.000713263
0.00061629
0.000557319
0.000505893
0.000452494
0.000398759
0.00034845
0.000304171
0.000267227
0.000237616
0.000214598
0.000197188
0.000184457
0.000175649
0.000170239
0.000168048
0.000168766
0.000171866
0.000178609
0.000189859
0.000206921
0.000232398
0.000270732
0.000329257
0.000419856
0.000563198
0.0008006
0.00124955
0.00230521
0.00500834
0.0108637
0.0178145
0.0179439
0.0146765
0.00248279
0.00343023
0.00282988
0.00204747
0.00140528
0.000973506
0.000737235
0.000623419
0.000559354
0.00050805
0.000457889
0.000407572
0.000359691
0.000316834
0.000280475
0.00025091
0.000227668
0.000209951
0.000196927
0.000187887
0.000182308
0.000180083
0.000180841
0.000183931
0.000190656
0.000201876
0.000218798
0.000243967
0.000281822
0.00033989
0.000430144
0.000571073
0.000798922
0.0012238
0.0021951
0.00477127
0.0107557
0.01884
0.0196555
0.0153938
0.00218497
0.00336654
0.00287548
0.00213177
0.00149824
0.00104539
0.000777811
0.000639527
0.000565702
0.000512902
0.000465187
0.00041816
0.00037307
0.000332065
0.00029666
0.000267403
0.000244098
0.000226161
0.000212897
0.000203666
0.000197956
0.000195775
0.000196619
0.00019981
0.000206701
0.000218106
0.00023519
0.000260481
0.000298443
0.000356744
0.000447683
0.000589772
0.000814205
0.00121557
0.00211481
0.00456215
0.0106257
0.0198052
0.0214935
0.0160773
0.0018964
0.00331121
0.0029463
0.00222172
0.00160818
0.00113925
0.00083853
0.000671289
0.000579843
0.00052195
0.000474542
0.000430134
0.000387918
0.000349175
0.000315215
0.000286709
0.000263691
0.000245793
0.000232477
0.000223206
0.000217477
0.000215491
0.000216476
0.000219878
0.000227112
0.000238905
0.000256441
0.000282285
0.000320968
0.000380334
0.00047303
0.000617923
0.000843326
0.00122522
0.00207204
0.00438125
0.010491
0.0207282
0.0234085
0.0167259
0.00160719
0.00321201
0.00299001
0.00234879
0.00173736
0.00125563
0.000922801
0.000721937
0.000607718
0.000538416
0.000487739
0.000444131
0.000404157
0.000367725
0.000335587
0.000308313
0.000286049
0.000268592
0.000255551
0.000246511
0.000240951
0.000239404
0.000240605
0.000244345
0.000252123
0.00026451
0.000282801
0.000309658
0.000349738
0.000411092
0.000506658
0.000655986
0.000886101
0.00125807
0.00205668
0.00421906
0.0102773
0.0215983
0.0253755
0.0173329
0.00135
0.00309538
0.00299711
0.00248422
0.00188353
0.00139658
0.00103622
0.000799331
0.000655367
0.000567696
0.00050839
0.000462203
0.000422682
0.000387856
0.000357487
0.000331732
0.000310642
0.000294066
0.000281694
0.000273248
0.000268102
0.000267322
0.000268839
0.000273085
0.000281656
0.000294885
0.000314293
0.000342717
0.000384985
0.000449409
0.000549105
0.000704469
0.00094255
0.0013109
0.00206445
0.00409473
0.0100448
0.0223654
0.0273044
0.0178982
0.00113399
0.00287549
0.00299359
0.00261672
0.00203274
0.00155306
0.00117765
0.00090943
0.000732347
0.000619193
0.000544241
0.000490079
0.000447382
0.000411965
0.000382204
0.000357487
0.000337493
0.000321942
0.000310459
0.000302879
0.000298433
0.000298594
0.000300624
0.000305671
0.000315255
0.000329694
0.000350723
0.000381457
0.000426917
0.000495778
0.000601172
0.000764527
0.00101375
0.00139033
0.00211615
0.00403487
0.0097985
0.023002
0.0291136
0.0184268
0.000950108
0.00249564
0.00298324
0.00272721
0.00219187
0.00172648
0.00134803
0.00105774
0.000848807
0.000704956
0.000606474
0.000536946
0.000485328
0.000445263
0.000413422
0.000388066
0.000368177
0.000353117
0.000342278
0.000335377
0.000331983
0.000332649
0.00033548
0.000341768
0.000352621
0.000368781
0.000392165
0.000426297
0.000476328
0.000551554
0.000664835
0.000839284
0.00110341
0.00150116
0.0022095
0.00402159
0.00962425
0.0234987
0.0306613
0.0189267
0.000789741
0.00197493
0.00290878
0.0027471
0.00232517
0.00189882
0.00154178
0.00124797
0.00101757
0.000844091
0.000716673
0.000623361
0.000554318
0.000502375
0.000462779
0.000432534
0.00040966
0.000392884
0.000381168
0.000373854
0.000370738
0.000371699
0.00037517
0.000382656
0.000395204
0.000413897
0.000440786
0.000480068
0.000536811
0.000621594
0.000746402
0.0009379
0.00122341
0.00165879
0.00237839
0.00413998
0.00956742
0.0239063
0.0318374
0.0194298
0.000693851
0.00147149
0.00269187
0.00268723
0.0024595
0.0020777
0.00175382
0.00147723
0.00124187
0.00104814
0.000893139
0.00077175
0.000677809
0.000605718
0.00055072
0.000509098
0.00047793
0.000455222
0.000439208
0.000429121
0.000423761
0.000424488
0.000428098
0.000436375
0.000451196
0.000473884
0.000506385
0.000554218
0.000621801
0.00072272
0.000866622
0.00108838
0.0014097
0.00191512
0.0026928
0.00449389
0.00980038
0.0244582
0.0325006
0.0199164
0.000700259
0.0011535
0.00224686
0.00253312
0.00245856
0.00225476
0.00200131
0.00176565
0.00154868
0.001351
0.00117736
0.00102919
0.00090627
0.00080588
0.000725263
0.00066162
0.000612276
0.000575015
0.000548116
0.000530828
0.00051932
0.000518507
0.000521897
0.00053117
0.000549896
0.000580457
0.00062401
0.000689096
0.000778105
0.000911865
0.00109417
0.00137898
0.00177282
0.00242096
0.00335875
0.00538975
0.0107498
0.0254338
0.0327798
0.0201168
0.000919376
0.000975793
0.0017356
0.00220002
0.00242822
0.00239946
0.00228306
0.00211475
0.00193394
0.00175126
0.00157293
0.00140666
0.00125624
0.00112959
0.00102414
0.000938145
0.0008694
0.00081676
0.000776585
0.00075073
0.000734149
0.000734657
0.000741956
0.000760459
0.000795557
0.000849111
0.000922957
0.00103332
0.00117756
0.00139354
0.00167193
0.00210914
0.00267754
0.00364434
0.00494825
0.00755448
0.013163
0.0273142
0.0327981
0.0201637
0.00133829
0.00104853
0.00160019
0.00219359
0.00256787
0.00276056
0.00280638
0.0027555
0.00263571
0.00247572
0.0023019
0.00212656
0.00195947
0.00180722
0.00167564
0.00156716
0.00148215
0.00142167
0.00137993
0.00136513
0.00137147
0.00139491
0.00144458
0.00152521
0.00163367
0.00178518
0.00197693
0.00223153
0.00255269
0.0030097
0.00357417
0.00441682
0.0054585
0.00716103
0.00928062
0.0131667
0.0188241
0.0309104
0.0327842
0.019737
0.00214723
0.00152339
0.00223475
0.00303963
0.00367471
0.00415079
0.00441612
0.00451236
0.00448426
0.00438603
0.0042329
0.00407002
0.00391534
0.0037816
0.00367841
0.00360998
0.00359431
0.00361468
0.00367133
0.00379022
0.00395845
0.00419023
0.00447483
0.00484607
0.00528968
0.00584293
0.00650458
0.0073124
0.00828751
0.00944133
0.0108674
0.0127362
0.0150835
0.0182861
0.0220435
0.0276516
0.0325815
0.0377748
0.0342162
0.0186854
0.0038492
0.00367728
0.00664297
0.00920645
0.0107356
0.0116948
0.0122164
0.0124672
0.0125156
0.0124726
0.0123714
0.012278
0.0122618
0.0123094
0.0124348
0.0126943
0.0130531
0.0135608
0.0141408
0.014894
0.0157401
0.0167913
0.01796
0.0193557
0.0209215
0.0227181
0.0247834
0.0270372
0.0297415
0.032495
0.03603
0.0391908
0.0436796
0.0468563
0.0519629
0.0532554
0.051399
0.0446562
0.0348672
0.0164894
0.00259772
0.00415219
0.00554858
0.00710246
0.0085027
0.00975158
0.0108149
0.0116597
0.0123373
0.0127979
0.0131025
0.0132832
0.0133709
0.0133658
0.0133376
0.0132755
0.0131891
0.0131004
0.0130149
0.0129429
0.0128904
0.0128623
0.0128706
0.0128999
0.0129761
0.0130633
0.0132526
0.013399
0.0137118
0.0139158
0.0143531
0.0146087
0.0151675
0.0155602
0.0164367
0.0169385
0.0177908
0.0177795
0.0171504
0.0143103
)
;

boundaryField
{
    movingWall
    {
        type            epsilonWallFunction;
        value           nonuniform List<scalar> 
40
(
0.00259772
0.00415219
0.00554858
0.00710246
0.0085027
0.00975158
0.0108149
0.0116597
0.0123373
0.0127979
0.0131025
0.0132832
0.0133709
0.0133658
0.0133376
0.0132755
0.0131891
0.0131004
0.0130149
0.0129429
0.0128904
0.0128623
0.0128706
0.0128999
0.0129761
0.0130633
0.0132526
0.013399
0.0137118
0.0139158
0.0143531
0.0146087
0.0151675
0.0155602
0.0164367
0.0169385
0.0177908
0.0177795
0.0171504
0.0143103
)
;
    }
    fixedWalls
    {
        type            epsilonWallFunction;
        value           nonuniform List<scalar> 
120
(
2.04188e-05
9.881e-05
0.000294114
0.000683447
0.0013175
0.00224725
0.00345927
0.00477437
0.00591739
0.00677455
0.00737097
0.00772348
0.00771845
0.00762377
0.00739401
0.00699343
0.00652021
0.00596294
0.0054039
0.00477006
0.00426195
0.00383324
0.00345441
0.00311044
0.0027879
0.00248279
0.00218497
0.0018964
0.00160719
0.00135
0.00113399
0.000950108
0.000789741
0.000693851
0.000700259
0.000919376
0.00133829
0.00214723
0.0038492
0.00259772
3.05148e-05
5.69391e-05
4.78771e-05
3.54113e-05
4.43011e-05
8.85571e-05
0.000204015
0.000505091
0.00135786
0.0024583
0.00356567
0.00448432
0.0053487
0.00616008
0.00695526
0.00773656
0.0085147
0.00929484
0.0100718
0.0108549
0.0116314
0.0124108
0.0131781
0.0139383
0.0146765
0.0153938
0.0160773
0.0167259
0.0173329
0.0178982
0.0184268
0.0189267
0.0194298
0.0199164
0.0201168
0.0201637
0.019737
0.0186854
0.0164894
0.0143103
2.04188e-05
7.73424e-05
0.00015717
0.000172182
0.000164194
0.000172092
0.000217125
0.000337776
0.000467256
0.000604259
0.000928216
0.00124164
0.00141133
0.00155903
0.00179197
0.00209908
0.00241688
0.00275335
0.00310912
0.00348532
0.00389974
0.00434867
0.0048599
0.00543684
0.00612674
0.00678918
0.00743923
0.0080129
0.00850158
0.00876775
0.00887249
0.00867131
0.00789664
0.00659808
0.0047973
0.00270987
0.00125335
0.000500392
0.000152577
3.05148e-05
)
;
    }
    frontAndBack
    {
        type            empty;
    }
}


// ************************************************************************* //
