/*--------------------------------*- C++ -*----------------------------------*\
  =========                 |
  \\      /  F ield         | OpenFOAM: The Open Source CFD Toolbox
   \\    /   O peration     | Website:  https://openfoam.org
    \\  /    A nd           | Version:  13
     \\/     M anipulation  |
\*---------------------------------------------------------------------------*/
FoamFile
{
    format      ascii;
    class       volScalarField;
    location    "5";
    object      nut;
}
// * * * * * * * * * * * * * * * * * * * * * * * * * * * * * * * * * * * * * //

dimensions      [0 2 -1 0 0 0 0];

internalField   nonuniform List<scalar> 
1600
(
1.12378e-08
4.25363e-08
8.64095e-08
9.461e-08
9.01962e-08
9.45117e-08
1.19249e-07
1.8561e-07
2.56812e-07
3.32219e-07
5.10562e-07
6.8264e-07
7.75675e-07
8.56739e-07
9.84683e-07
1.1535e-06
1.32814e-06
1.51313e-06
1.70866e-06
1.9155e-06
2.1433e-06
2.39012e-06
2.67113e-06
2.98831e-06
3.36753e-06
3.73163e-06
4.08892e-06
4.40423e-06
4.67281e-06
4.81912e-06
4.8767e-06
4.76623e-06
4.34053e-06
3.627e-06
2.63763e-06
1.49029e-06
6.89528e-07
2.754e-07
8.40043e-08
1.68057e-08
5.43797e-08
1.15515e-06
3.49171e-06
4.51459e-06
4.57129e-06
4.43361e-06
4.82865e-06
5.9885e-06
6.12043e-06
6.19847e-06
7.73796e-06
8.87144e-06
9.50828e-06
1.0165e-05
1.10653e-05
1.23221e-05
1.36099e-05
1.49599e-05
1.6478e-05
1.77787e-05
1.92031e-05
2.04341e-05
2.17679e-05
2.28433e-05
2.36247e-05
2.43508e-05
2.5007e-05
2.54876e-05
2.56906e-05
2.52955e-05
2.50052e-05
2.356e-05
2.14418e-05
1.81988e-05
1.45122e-05
8.91293e-06
4.17613e-06
1.6404e-06
5.59128e-07
3.13306e-08
1.6188e-07
3.07375e-06
7.80446e-06
9.81165e-06
1.06318e-05
1.11025e-05
1.31523e-05
1.58544e-05
1.64586e-05
1.66146e-05
1.61468e-05
1.51216e-05
1.48628e-05
1.58614e-05
1.7385e-05
1.90795e-05
2.0993e-05
2.28709e-05
2.46603e-05
2.63682e-05
2.8107e-05
2.94612e-05
3.03804e-05
3.09621e-05
3.13821e-05
3.16332e-05
3.16756e-05
3.14569e-05
3.09204e-05
2.99243e-05
2.80339e-05
2.61472e-05
2.38297e-05
1.96456e-05
1.54644e-05
8.67974e-06
3.57645e-06
1.74323e-06
7.08576e-07
2.63354e-08
3.76126e-07
6.59326e-06
1.34059e-05
1.58965e-05
1.70928e-05
1.85927e-05
2.04268e-05
2.07194e-05
2.04241e-05
1.79756e-05
1.70656e-05
1.8172e-05
1.9842e-05
2.25787e-05
2.44455e-05
2.6971e-05
2.8996e-05
3.08139e-05
3.238e-05
3.37801e-05
3.45725e-05
3.51877e-05
3.55908e-05
3.57927e-05
3.58009e-05
3.56237e-05
3.52377e-05
3.45978e-05
3.36155e-05
3.22152e-05
3.02835e-05
2.79894e-05
2.51218e-05
2.13936e-05
1.77988e-05
1.28205e-05
4.1534e-06
1.44153e-06
5.07875e-07
1.94626e-08
7.24919e-07
1.18346e-05
1.95541e-05
2.12458e-05
2.20339e-05
2.34986e-05
2.35113e-05
2.30066e-05
2.04448e-05
1.91973e-05
2.12811e-05
2.34007e-05
2.62429e-05
2.88771e-05
3.10065e-05
3.3317e-05
3.50682e-05
3.68011e-05
3.78013e-05
3.87778e-05
3.93267e-05
3.97732e-05
3.99258e-05
3.99274e-05
3.97491e-05
3.94082e-05
3.88589e-05
3.80611e-05
3.68839e-05
3.51582e-05
3.28778e-05
3.04249e-05
2.76941e-05
2.40469e-05
1.97927e-05
1.56154e-05
9.27363e-06
2.47901e-06
5.61464e-07
2.43352e-08
1.23625e-06
1.75749e-05
2.50381e-05
2.57733e-05
2.60869e-05
2.57377e-05
2.51564e-05
2.27032e-05
2.10036e-05
2.33836e-05
2.60628e-05
2.8963e-05
3.15375e-05
3.38039e-05
3.60107e-05
3.80101e-05
3.95498e-05
4.08936e-05
4.18298e-05
4.26295e-05
4.3077e-05
4.33785e-05
4.34275e-05
4.33062e-05
4.30384e-05
4.26747e-05
4.22196e-05
4.16934e-05
4.11045e-05
4.02384e-05
3.78854e-05
3.48181e-05
3.17548e-05
2.79032e-05
2.30237e-05
1.78978e-05
1.23933e-05
3.94244e-06
9.05139e-07
4.86373e-08
1.90265e-06
2.21372e-05
2.95025e-05
2.91402e-05
2.79025e-05
2.71676e-05
2.47599e-05
2.25215e-05
2.47836e-05
2.78643e-05
3.08385e-05
3.32784e-05
3.54707e-05
3.78241e-05
3.99447e-05
4.16354e-05
4.30261e-05
4.42837e-05
4.52293e-05
4.58854e-05
4.61909e-05
4.62676e-05
4.61464e-05
4.59548e-05
4.56607e-05
4.52991e-05
4.48796e-05
4.43971e-05
4.3806e-05
4.30957e-05
4.24415e-05
4.04275e-05
3.7274e-05
3.39847e-05
2.882e-05
2.15878e-05
1.48142e-05
7.56842e-06
1.50284e-06
1.12065e-07
2.62564e-06
2.61537e-05
3.243e-05
3.09562e-05
2.97522e-05
2.6874e-05
2.42123e-05
2.56536e-05
2.87792e-05
3.19328e-05
3.44295e-05
3.64923e-05
3.90273e-05
4.12758e-05
4.33597e-05
4.51839e-05
4.66328e-05
4.7691e-05
4.82404e-05
4.84809e-05
4.86023e-05
4.85615e-05
4.84291e-05
4.81934e-05
4.78406e-05
4.74236e-05
4.69706e-05
4.65099e-05
4.60313e-05
4.54589e-05
4.46265e-05
4.35962e-05
4.09515e-05
3.75369e-05
3.45909e-05
2.83484e-05
1.91955e-05
9.65902e-06
2.02695e-06
2.77485e-07
3.25355e-06
2.87775e-05
3.41533e-05
3.30387e-05
2.96696e-05
2.6427e-05
2.58238e-05
2.90317e-05
3.23528e-05
3.5136e-05
3.7122e-05
3.98133e-05
4.23801e-05
4.47897e-05
4.67763e-05
4.82127e-05
4.93268e-05
4.98284e-05
5.03391e-05
5.07154e-05
5.08844e-05
5.10971e-05
5.09722e-05
5.07097e-05
5.02643e-05
4.96961e-05
4.90588e-05
4.84259e-05
4.78617e-05
4.73844e-05
4.69049e-05
4.61562e-05
4.42644e-05
4.0587e-05
3.75038e-05
3.31133e-05
2.48019e-05
1.40708e-05
4.3503e-06
7.46172e-07
3.72425e-06
3.03928e-05
3.60763e-05
3.38814e-05
2.94432e-05
2.66287e-05
2.87595e-05
3.21707e-05
3.52513e-05
3.75921e-05
4.00139e-05
4.29766e-05
4.55292e-05
4.75535e-05
4.91628e-05
5.01584e-05
5.12539e-05
5.20444e-05
5.2867e-05
5.35851e-05
5.40095e-05
5.42254e-05
5.43473e-05
5.40338e-05
5.34836e-05
5.26752e-05
5.16912e-05
5.0631e-05
4.96251e-05
4.8797e-05
4.82031e-05
4.77446e-05
4.70746e-05
4.43373e-05
4.03823e-05
3.71465e-05
2.95703e-05
1.75001e-05
5.87202e-06
1.35095e-06
4.05194e-06
3.14903e-05
3.74698e-05
3.40341e-05
2.9201e-05
2.84424e-05
3.14589e-05
3.48229e-05
3.76801e-05
3.99204e-05
4.29034e-05
4.55083e-05
4.77394e-05
4.94514e-05
5.09498e-05
5.22219e-05
5.35909e-05
5.48345e-05
5.6066e-05
5.72044e-05
5.78909e-05
5.82611e-05
5.86222e-05
5.83111e-05
5.76704e-05
5.66324e-05
5.52767e-05
5.37078e-05
5.20917e-05
5.06327e-05
4.95142e-05
4.87829e-05
4.81941e-05
4.68364e-05
4.29681e-05
4.02044e-05
3.44326e-05
2.24466e-05
8.40042e-06
1.95957e-06
4.24514e-06
3.19117e-05
3.82108e-05
3.42537e-05
2.95268e-05
3.06096e-05
3.38417e-05
3.71005e-05
3.9791e-05
4.22636e-05
4.49185e-05
4.73506e-05
4.94573e-05
5.11911e-05
5.28976e-05
5.46047e-05
5.64213e-05
5.81869e-05
5.98726e-05
6.14227e-05
6.23506e-05
6.295e-05
6.34822e-05
6.321e-05
6.25034e-05
6.12916e-05
5.96258e-05
5.75889e-05
5.53416e-05
5.31355e-05
5.12885e-05
5.00801e-05
4.95676e-05
4.93723e-05
4.59842e-05
4.22194e-05
3.77786e-05
2.61207e-05
1.07085e-05
2.46436e-06
4.24224e-06
3.18696e-05
3.84745e-05
3.43291e-05
3.04679e-05
3.25155e-05
3.58363e-05
3.89702e-05
4.15012e-05
4.39522e-05
4.65197e-05
4.89329e-05
5.10157e-05
5.29864e-05
5.50838e-05
5.7307e-05
5.9635e-05
6.19075e-05
6.40129e-05
6.59021e-05
6.70266e-05
6.78022e-05
6.84282e-05
6.81912e-05
6.74416e-05
6.61306e-05
6.42762e-05
6.19177e-05
5.91597e-05
5.62192e-05
5.34478e-05
5.12638e-05
4.9946e-05
4.9348e-05
4.7788e-05
4.40209e-05
4.09122e-05
3.01366e-05
1.32171e-05
2.93935e-06
4.19003e-06
3.16179e-05
3.87463e-05
3.43171e-05
3.18471e-05
3.41237e-05
3.74316e-05
4.04668e-05
4.28922e-05
4.53205e-05
4.79133e-05
5.03073e-05
5.25477e-05
5.4881e-05
5.74456e-05
6.01884e-05
6.30003e-05
6.56997e-05
6.81309e-05
7.02468e-05
7.15053e-05
7.2334e-05
7.29686e-05
7.2731e-05
7.19458e-05
7.06006e-05
6.86941e-05
6.6221e-05
6.32115e-05
5.98028e-05
5.63238e-05
5.33084e-05
5.13116e-05
5.04863e-05
5.00781e-05
4.58505e-05
4.28863e-05
3.3253e-05
1.55585e-05
3.38515e-06
4.06347e-06
3.10309e-05
3.8558e-05
3.45274e-05
3.29796e-05
3.54305e-05
3.87218e-05
4.16513e-05
4.39442e-05
4.64776e-05
4.90887e-05
5.15685e-05
5.40714e-05
5.68098e-05
5.98348e-05
6.30369e-05
6.62448e-05
6.92545e-05
7.18897e-05
7.41028e-05
7.54223e-05
7.61753e-05
7.67256e-05
7.64347e-05
7.56034e-05
7.4263e-05
7.24103e-05
7.00031e-05
6.69856e-05
6.33625e-05
5.93294e-05
5.53995e-05
5.23549e-05
5.08499e-05
5.07894e-05
4.79378e-05
4.45359e-05
3.6284e-05
1.78137e-05
3.82208e-06
3.84315e-06
3.02069e-05
3.81698e-05
3.48127e-05
3.3874e-05
3.64529e-05
3.97236e-05
4.25228e-05
4.48346e-05
4.74432e-05
5.0102e-05
5.27346e-05
5.55323e-05
5.86516e-05
6.2071e-05
6.56306e-05
6.91169e-05
7.231e-05
7.50277e-05
7.72074e-05
7.84895e-05
7.90966e-05
7.94693e-05
7.90714e-05
7.81763e-05
7.68609e-05
7.51382e-05
7.29504e-05
7.01768e-05
6.66918e-05
6.25102e-05
5.79974e-05
5.39739e-05
5.13903e-05
5.0542e-05
4.92163e-05
4.54399e-05
3.85843e-05
2.0026e-05
4.25133e-06
3.58299e-06
2.92089e-05
3.75964e-05
3.5069e-05
3.4557e-05
3.72234e-05
4.04754e-05
4.31719e-05
4.55764e-05
4.8241e-05
5.09701e-05
5.37748e-05
5.68421e-05
6.02708e-05
6.39827e-05
6.77788e-05
7.14193e-05
7.46764e-05
7.73724e-05
7.93973e-05
8.05224e-05
8.09864e-05
8.11102e-05
8.0564e-05
7.95899e-05
7.83062e-05
7.67527e-05
7.48735e-05
7.2507e-05
6.94136e-05
6.54118e-05
6.06448e-05
5.58798e-05
5.23827e-05
5.09033e-05
5.03501e-05
4.63954e-05
4.05272e-05
2.20838e-05
4.67886e-06
3.27665e-06
2.81764e-05
3.69005e-05
3.52617e-05
3.50466e-05
3.77475e-05
4.10057e-05
4.36791e-05
4.61745e-05
4.88811e-05
5.16813e-05
5.46355e-05
5.79075e-05
6.15463e-05
6.54323e-05
6.934e-05
7.30145e-05
7.62249e-05
7.87972e-05
8.0627e-05
8.1529e-05
8.18165e-05
8.16734e-05
8.09625e-05
7.99057e-05
7.86583e-05
7.72909e-05
7.57646e-05
7.39075e-05
7.13987e-05
6.78751e-05
6.31923e-05
5.7884e-05
5.34037e-05
5.12719e-05
5.11667e-05
4.71967e-05
4.20514e-05
2.41277e-05
5.10745e-06
2.96942e-06
2.70583e-05
3.60767e-05
3.53459e-05
3.53738e-05
3.80922e-05
4.13417e-05
4.40509e-05
4.66233e-05
4.9358e-05
5.22101e-05
5.52645e-05
5.86547e-05
6.23911e-05
6.63294e-05
7.02304e-05
7.38328e-05
7.69077e-05
7.92907e-05
8.08945e-05
8.1565e-05
8.16579e-05
8.1274e-05
8.04102e-05
7.92795e-05
7.80767e-05
7.68963e-05
7.5726e-05
7.44159e-05
7.25971e-05
6.97743e-05
6.5522e-05
6.00129e-05
5.46197e-05
5.14372e-05
5.11393e-05
4.81679e-05
4.33082e-05
2.59753e-05
5.53429e-06
2.62104e-06
2.6113e-05
3.51998e-05
3.53445e-05
3.55633e-05
3.81845e-05
4.15093e-05
4.42927e-05
4.69225e-05
4.96649e-05
5.25329e-05
5.56164e-05
5.90229e-05
6.27468e-05
6.66295e-05
7.04226e-05
7.38647e-05
7.67375e-05
7.8894e-05
8.02654e-05
8.07395e-05
8.06346e-05
8.0034e-05
7.90425e-05
7.78991e-05
7.67789e-05
7.57762e-05
7.49329e-05
7.41601e-05
7.30559e-05
7.105e-05
6.74794e-05
6.21066e-05
5.60345e-05
5.17795e-05
5.0911e-05
4.9015e-05
4.44009e-05
2.77875e-05
5.96449e-06
2.34178e-06
2.479e-05
3.42556e-05
3.51961e-05
3.56185e-05
3.82674e-05
4.14649e-05
4.43623e-05
4.70473e-05
4.97806e-05
5.26212e-05
5.56737e-05
5.90405e-05
6.26645e-05
6.63769e-05
6.99441e-05
7.31316e-05
7.57506e-05
7.76776e-05
7.88479e-05
7.92169e-05
7.89366e-05
7.81106e-05
7.69831e-05
7.57848e-05
7.47367e-05
7.39751e-05
7.35614e-05
7.33207e-05
7.28973e-05
7.17419e-05
6.90157e-05
6.40765e-05
5.75768e-05
5.2233e-05
5.04631e-05
4.96811e-05
4.54009e-05
2.94215e-05
6.39107e-06
2.10617e-06
2.33264e-05
3.29154e-05
3.52074e-05
3.55883e-05
3.7906e-05
4.135e-05
4.42858e-05
4.70105e-05
4.97135e-05
5.25022e-05
5.54656e-05
5.85625e-05
6.18648e-05
6.52556e-05
6.85367e-05
7.14984e-05
7.3956e-05
7.57573e-05
7.68289e-05
7.71622e-05
7.68574e-05
7.60471e-05
7.49404e-05
7.36733e-05
7.25515e-05
7.1832e-05
7.16279e-05
7.18488e-05
7.21686e-05
7.1932e-05
7.01087e-05
6.58195e-05
5.91783e-05
5.29238e-05
5.02759e-05
4.9967e-05
4.63442e-05
3.09895e-05
6.81927e-06
1.89801e-06
2.1737e-05
3.13575e-05
3.49104e-05
3.55016e-05
3.7722e-05
4.0822e-05
4.40092e-05
4.67576e-05
4.94314e-05
5.20941e-05
5.47643e-05
5.77232e-05
6.08637e-05
6.40678e-05
6.71453e-05
6.99051e-05
7.21635e-05
7.37891e-05
7.47114e-05
7.49304e-05
7.45261e-05
7.38103e-05
7.29057e-05
7.18028e-05
7.09021e-05
7.02744e-05
7.00535e-05
7.03534e-05
7.10842e-05
7.15351e-05
7.07427e-05
6.73265e-05
6.0695e-05
5.36677e-05
5.02308e-05
5.00745e-05
4.71529e-05
3.24851e-05
7.24073e-06
1.70904e-06
2.0082e-05
2.96604e-05
3.45686e-05
3.53415e-05
3.73934e-05
4.03705e-05
4.34906e-05
4.63775e-05
4.89742e-05
5.14664e-05
5.41e-05
5.69275e-05
5.98575e-05
6.27622e-05
6.55327e-05
6.79918e-05
6.99769e-05
7.13792e-05
7.21505e-05
7.23114e-05
7.19289e-05
7.12858e-05
7.04931e-05
6.95153e-05
6.88062e-05
6.84847e-05
6.86971e-05
6.93554e-05
7.03213e-05
7.11644e-05
7.10547e-05
6.84888e-05
6.20305e-05
5.44246e-05
5.01989e-05
5.00884e-05
4.78689e-05
3.39425e-05
7.65829e-06
1.53186e-06
1.83826e-05
2.78612e-05
3.39925e-05
3.51051e-05
3.68538e-05
3.98721e-05
4.27511e-05
4.56138e-05
4.82369e-05
5.07528e-05
5.32187e-05
5.57063e-05
5.824e-05
6.0784e-05
6.32123e-05
6.53758e-05
6.71399e-05
6.84124e-05
6.91573e-05
6.93976e-05
6.91691e-05
6.87067e-05
6.80658e-05
6.72343e-05
6.66365e-05
6.63849e-05
6.66721e-05
6.76751e-05
6.92343e-05
7.07695e-05
7.11492e-05
6.91337e-05
6.34393e-05
5.50716e-05
5.00932e-05
4.99435e-05
4.84647e-05
3.53437e-05
8.06374e-06
1.36431e-06
1.66824e-05
2.61482e-05
3.28916e-05
3.50694e-05
3.6395e-05
3.90985e-05
4.21192e-05
4.47854e-05
4.74013e-05
4.98066e-05
5.20757e-05
5.42765e-05
5.64904e-05
5.86881e-05
6.07806e-05
6.26616e-05
6.42291e-05
6.54075e-05
6.61626e-05
6.65054e-05
6.64333e-05
6.61687e-05
6.57041e-05
6.50999e-05
6.47059e-05
6.46236e-05
6.50623e-05
6.61864e-05
6.79496e-05
6.98887e-05
7.10189e-05
6.97783e-05
6.43358e-05
5.56484e-05
4.98542e-05
4.96862e-05
4.89832e-05
3.66926e-05
8.45757e-06
1.20078e-06
1.4981e-05
2.44366e-05
3.13013e-05
3.4815e-05
3.60099e-05
3.82104e-05
4.1294e-05
4.3943e-05
4.6375e-05
4.86489e-05
5.07776e-05
5.27715e-05
5.47086e-05
5.65968e-05
5.83912e-05
6.00207e-05
6.14103e-05
6.24997e-05
6.32572e-05
6.36925e-05
6.3804e-05
6.36908e-05
6.34547e-05
6.31346e-05
6.29654e-05
6.30809e-05
6.36848e-05
6.49642e-05
6.69294e-05
6.91634e-05
7.06696e-05
6.99917e-05
6.49218e-05
5.61465e-05
4.94681e-05
4.91795e-05
4.94263e-05
3.79558e-05
8.83281e-06
1.04235e-06
1.33271e-05
2.26338e-05
2.95326e-05
3.45042e-05
3.55486e-05
3.73801e-05
4.01099e-05
4.302e-05
4.53973e-05
4.74856e-05
4.94252e-05
5.12066e-05
5.29e-05
5.45211e-05
5.60553e-05
5.74637e-05
5.86972e-05
5.97121e-05
6.04787e-05
6.10147e-05
6.13227e-05
6.13467e-05
6.13431e-05
6.13318e-05
6.14008e-05
6.17274e-05
6.24995e-05
6.39063e-05
6.59885e-05
6.83833e-05
7.01174e-05
6.98045e-05
6.55007e-05
5.62156e-05
4.89594e-05
4.85048e-05
4.97334e-05
3.91204e-05
9.18879e-06
8.83548e-07
1.17126e-05
2.11345e-05
2.73433e-05
3.34128e-05
3.53816e-05
3.67715e-05
3.89223e-05
4.17164e-05
4.42378e-05
4.63148e-05
4.80657e-05
4.96437e-05
5.11203e-05
5.25157e-05
5.38328e-05
5.50563e-05
5.61591e-05
5.71138e-05
5.78876e-05
5.85509e-05
5.89862e-05
5.91645e-05
5.94194e-05
5.96787e-05
5.99875e-05
6.05279e-05
6.14648e-05
6.29733e-05
6.50953e-05
6.75145e-05
6.92819e-05
6.90695e-05
6.52356e-05
5.58971e-05
4.83092e-05
4.75582e-05
4.99812e-05
4.0183e-05
9.52195e-06
7.42302e-07
1.03618e-05
1.98707e-05
2.53004e-05
3.14901e-05
3.49282e-05
3.62716e-05
3.80373e-05
4.03086e-05
4.28266e-05
4.4975e-05
4.67011e-05
4.8136e-05
4.94344e-05
5.06416e-05
5.1779e-05
5.28498e-05
5.38433e-05
5.47492e-05
5.5519e-05
5.63605e-05
5.67611e-05
5.71468e-05
5.7698e-05
5.81519e-05
5.86828e-05
5.94216e-05
6.05022e-05
6.2072e-05
6.41407e-05
6.64296e-05
6.80268e-05
6.76899e-05
6.42209e-05
5.51925e-05
4.72858e-05
4.63026e-05
5.00974e-05
4.10829e-05
9.83214e-06
6.23628e-07
9.24624e-06
1.88694e-05
2.35082e-05
2.94108e-05
3.41673e-05
3.5839e-05
3.73834e-05
3.9189e-05
4.13195e-05
4.34527e-05
4.52355e-05
4.66509e-05
4.78395e-05
4.8911e-05
4.99114e-05
5.08625e-05
5.1769e-05
5.26236e-05
5.34334e-05
5.43253e-05
5.47301e-05
5.53383e-05
5.60711e-05
5.66987e-05
5.74114e-05
5.83082e-05
5.94792e-05
6.10377e-05
6.29259e-05
6.49042e-05
6.61026e-05
6.54275e-05
6.19346e-05
5.33555e-05
4.55465e-05
4.47639e-05
5.00736e-05
4.18245e-05
1.01223e-05
5.22493e-07
8.40296e-06
1.82549e-05
2.21824e-05
2.72951e-05
3.24679e-05
3.52717e-05
3.69568e-05
3.86045e-05
4.02856e-05
4.20383e-05
4.37878e-05
4.52523e-05
4.64029e-05
4.73901e-05
4.82869e-05
4.9134e-05
4.99648e-05
5.07341e-05
5.16369e-05
5.23943e-05
5.29066e-05
5.36786e-05
5.44712e-05
5.52249e-05
5.60484e-05
5.70233e-05
5.81767e-05
5.9596e-05
6.11203e-05
6.2583e-05
6.31402e-05
6.20003e-05
5.8285e-05
5.06819e-05
4.38131e-05
4.2963e-05
4.97219e-05
4.22299e-05
1.03967e-05
4.34191e-07
7.87857e-06
1.76684e-05
2.17901e-05
2.57854e-05
3.07161e-05
3.46202e-05
3.65169e-05
3.81447e-05
3.9674e-05
4.11315e-05
4.24824e-05
4.38321e-05
4.50072e-05
4.597e-05
4.68171e-05
4.75976e-05
4.83763e-05
4.90632e-05
4.99838e-05
5.06661e-05
5.12079e-05
5.20034e-05
5.28009e-05
5.35731e-05
5.4373e-05
5.52755e-05
5.62173e-05
5.72947e-05
5.82056e-05
5.89484e-05
5.86537e-05
5.70466e-05
5.31793e-05
4.68956e-05
4.17596e-05
4.17766e-05
4.92026e-05
4.18802e-05
1.06729e-05
3.81425e-07
7.8164e-06
1.67831e-05
2.16464e-05
2.44877e-05
2.89406e-05
3.33353e-05
3.65617e-05
3.83756e-05
3.98897e-05
4.12224e-05
4.23891e-05
4.34056e-05
4.43206e-05
4.51354e-05
4.58553e-05
4.651e-05
4.71513e-05
4.7752e-05
4.84201e-05
4.91531e-05
4.95335e-05
5.01266e-05
5.07956e-05
5.13858e-05
5.19253e-05
5.25075e-05
5.29429e-05
5.34178e-05
5.34524e-05
5.33642e-05
5.21719e-05
5.03357e-05
4.66772e-05
4.1926e-05
3.84876e-05
4.03075e-05
4.83827e-05
4.14137e-05
1.09393e-05
3.85e-07
8.71334e-06
1.64325e-05
2.14008e-05
2.45993e-05
2.79655e-05
3.196e-05
3.55846e-05
3.84924e-05
4.02005e-05
4.14965e-05
4.25387e-05
4.33739e-05
4.40889e-05
4.4721e-05
4.52871e-05
4.57918e-05
4.6248e-05
4.66183e-05
4.68687e-05
4.72119e-05
4.73465e-05
4.74659e-05
4.76452e-05
4.77893e-05
4.77597e-05
4.77261e-05
4.73679e-05
4.7069e-05
4.61797e-05
4.54483e-05
4.37409e-05
4.22623e-05
3.95481e-05
3.7134e-05
3.61381e-05
3.93412e-05
4.73913e-05
4.06322e-05
1.10491e-05
5.05868e-07
1.06528e-05
1.69602e-05
2.19512e-05
2.53272e-05
2.88338e-05
3.23254e-05
3.60852e-05
3.92002e-05
4.19952e-05
4.37887e-05
4.49598e-05
4.58102e-05
4.61982e-05
4.6266e-05
4.61014e-05
4.57896e-05
4.53408e-05
4.49057e-05
4.43265e-05
4.3869e-05
4.31121e-05
4.27877e-05
4.22398e-05
4.14694e-05
4.07166e-05
4.00083e-05
3.89978e-05
3.82198e-05
3.70196e-05
3.63452e-05
3.5123e-05
3.47868e-05
3.38296e-05
3.43244e-05
3.52722e-05
3.98592e-05
4.60867e-05
3.85909e-05
1.10744e-05
7.37061e-07
1.3275e-05
1.90244e-05
2.31589e-05
2.69421e-05
3.07499e-05
3.42087e-05
3.73383e-05
3.99116e-05
4.21482e-05
4.40499e-05
4.49098e-05
4.50796e-05
4.48085e-05
4.40711e-05
4.31887e-05
4.21992e-05
4.10973e-05
4.00138e-05
3.88299e-05
3.75439e-05
3.65258e-05
3.54742e-05
3.42197e-05
3.31661e-05
3.22207e-05
3.14682e-05
3.08458e-05
3.05286e-05
3.02049e-05
3.04677e-05
3.06971e-05
3.1816e-05
3.28418e-05
3.51647e-05
3.7782e-05
4.242e-05
4.41664e-05
3.69173e-05
1.08391e-05
1.18295e-06
1.71552e-05
2.07212e-05
2.49741e-05
2.8832e-05
3.2397e-05
3.5323e-05
3.76264e-05
3.92224e-05
3.99487e-05
4.07137e-05
4.08576e-05
4.04383e-05
3.97502e-05
3.88434e-05
3.77871e-05
3.6452e-05
3.5231e-05
3.4132e-05
3.31552e-05
3.21395e-05
3.12364e-05
3.06127e-05
3.01652e-05
2.98723e-05
2.98395e-05
2.99698e-05
3.04056e-05
3.10461e-05
3.199e-05
3.33038e-05
3.47072e-05
3.67538e-05
3.86375e-05
4.16006e-05
4.38216e-05
4.60707e-05
4.28944e-05
3.36028e-05
1.02627e-05
2.11982e-06
2.03266e-05
2.29437e-05
2.74008e-05
3.06337e-05
3.31802e-05
3.50328e-05
3.62943e-05
3.71706e-05
3.73517e-05
3.7541e-05
3.76629e-05
3.74124e-05
3.72906e-05
3.70865e-05
3.6768e-05
3.64731e-05
3.62326e-05
3.60804e-05
3.60561e-05
3.61291e-05
3.63348e-05
3.66132e-05
3.70824e-05
3.75885e-05
3.83212e-05
3.90564e-05
4.00414e-05
4.103e-05
4.22297e-05
4.35337e-05
4.48134e-05
4.66426e-05
4.74434e-05
4.96798e-05
4.84601e-05
4.66347e-05
4.09259e-05
2.56873e-05
9.0558e-06
1.43074e-06
2.28592e-06
3.05395e-06
3.90785e-06
4.67749e-06
5.36367e-06
5.94797e-06
6.41173e-06
6.78362e-06
7.03609e-06
7.20242e-06
7.30158e-06
7.34865e-06
7.34556e-06
7.32971e-06
7.29487e-06
7.24717e-06
7.19778e-06
7.15078e-06
7.1105e-06
7.08167e-06
7.06536e-06
7.06966e-06
7.08536e-06
7.12653e-06
7.17404e-06
7.27729e-06
7.35735e-06
7.52812e-06
7.63955e-06
7.87881e-06
8.02002e-06
8.32439e-06
8.54258e-06
9.02065e-06
9.29754e-06
9.76524e-06
9.76039e-06
9.41437e-06
7.85549e-06
)
;

boundaryField
{
    movingWall
    {
        type            nutkWallFunction;
        Cmu             0.09;
        kappa           0.41;
        E               9.8;
        value           uniform 0;
    }
    fixedWalls
    {
        type            nutkWallFunction;
        Cmu             0.09;
        kappa           0.41;
        E               9.8;
        value           uniform 0;
    }
    frontAndBack
    {
        type            empty;
    }
}


// ************************************************************************* //
