/*--------------------------------*- C++ -*----------------------------------*\
  =========                 |
  \\      /  F ield         | OpenFOAM: The Open Source CFD Toolbox
   \\    /   O peration     | Website:  https://openfoam.org
    \\  /    A nd           | Version:  13
     \\/     M anipulation  |
\*---------------------------------------------------------------------------*/
FoamFile
{
    format      ascii;
    class       surfaceScalarField;
    location    "5";
    object      phi;
}
// * * * * * * * * * * * * * * * * * * * * * * * * * * * * * * * * * * * * * //

dimensions      [0 3 -1 0 0 0 0];

internalField   nonuniform List<scalar> 
3120
(
7.67758e-08
-7.67795e-08
1.95925e-07
-1.19149e-07
2.90494e-07
-9.45695e-08
3.29748e-07
-3.92546e-08
3.28214e-07
1.53445e-09
3.14073e-07
1.41405e-08
3.05537e-07
8.53574e-09
2.99869e-07
5.66845e-09
2.7964e-07
2.0229e-08
2.31252e-07
4.83875e-08
1.39223e-07
9.20292e-08
-3.49764e-08
1.74199e-07
-3.10553e-07
2.75576e-07
-7.20814e-07
4.10262e-07
-1.23926e-06
5.18446e-07
-1.77153e-06
5.32266e-07
-2.26493e-06
4.93399e-07
-2.69671e-06
4.31786e-07
-3.05962e-06
3.6291e-07
-3.35404e-06
2.94422e-07
-3.58094e-06
2.26899e-07
-3.74244e-06
1.61496e-07
-3.83776e-06
9.53176e-08
-3.86667e-06
2.89097e-08
-3.82201e-06
-4.46552e-08
-3.70682e-06
-1.15192e-07
-3.50912e-06
-1.97702e-07
-3.22594e-06
-2.83181e-07
-2.8501e-06
-3.75835e-07
-2.3817e-06
-4.68402e-07
-1.82252e-06
-5.59181e-07
-1.19077e-06
-6.31751e-07
-5.39925e-07
-6.50842e-07
5.57313e-08
-5.95657e-07
5.29474e-07
-4.73743e-07
7.20793e-07
-1.91319e-07
6.126e-07
1.08192e-07
3.93759e-07
2.18842e-07
1.63768e-07
2.29991e-07
1.63768e-07
1.41286e-07
-2.18066e-07
3.06127e-07
-2.8399e-07
4.13422e-07
-2.01865e-07
4.49278e-07
-7.51108e-08
4.28149e-07
2.26642e-08
3.65099e-07
7.71896e-08
2.72439e-07
1.01196e-07
1.33703e-07
1.44404e-07
-8.64216e-08
2.40354e-07
-4.29714e-07
3.9168e-07
-9.26762e-07
5.89077e-07
-1.55292e-06
8.00353e-07
-2.23089e-06
9.53554e-07
-2.84735e-06
1.02672e-06
-3.33838e-06
1.00948e-06
-3.74621e-06
9.40091e-07
-4.09332e-06
8.40514e-07
-4.3828e-06
7.21266e-07
-4.61662e-06
5.96728e-07
-4.79498e-06
4.72782e-07
-4.91816e-06
3.50076e-07
-4.98975e-06
2.33086e-07
-5.00939e-06
1.14954e-07
-4.9705e-06
-9.97555e-09
-4.88357e-06
-1.31591e-07
-4.73366e-06
-2.65097e-07
-4.51971e-06
-4.11656e-07
-4.23203e-06
-5.70855e-07
-3.86083e-06
-7.47038e-07
-3.39934e-06
-9.29892e-07
-2.85201e-06
-1.10651e-06
-2.22618e-06
-1.25758e-06
-1.54372e-06
-1.33331e-06
-8.46454e-07
-1.29292e-06
-2.42179e-07
-1.07802e-06
2.11416e-07
-6.44914e-07
3.61214e-07
-4.16048e-08
2.97034e-07
2.83021e-07
1.36971e-07
3.90054e-07
3.00738e-07
1.75324e-07
-3.9339e-07
3.04444e-07
-4.1311e-07
3.53069e-07
-2.5049e-07
3.30743e-07
-5.27852e-08
2.46538e-07
1.06869e-07
9.75555e-08
2.26172e-07
-1.4824e-07
3.46991e-07
-5.24795e-07
5.20959e-07
-1.0478e-06
7.6336e-07
-1.68923e-06
1.03311e-06
-2.36378e-06
1.26362e-06
-2.96811e-06
1.40469e-06
-3.47457e-06
1.46002e-06
-3.88183e-06
1.43398e-06
-4.21231e-06
1.33995e-06
-4.48033e-06
1.20812e-06
-4.69594e-06
1.05612e-06
-4.8685e-06
8.93828e-07
-5.00467e-06
7.32901e-07
-5.10589e-06
5.73999e-07
-5.17556e-06
4.19742e-07
-5.20944e-06
2.66966e-07
-5.20541e-06
1.10928e-07
-5.16659e-06
-4.87942e-08
-5.08795e-06
-2.10235e-07
-4.96908e-06
-3.83969e-07
-4.80655e-06
-5.74185e-07
-4.5945e-06
-7.82903e-07
-4.32791e-06
-1.01363e-06
-3.99397e-06
-1.26383e-06
-3.57734e-06
-1.52314e-06
-3.06927e-06
-1.76565e-06
-2.46864e-06
-1.93394e-06
-1.79824e-06
-1.96332e-06
-1.10897e-06
-1.76729e-06
-4.76086e-07
-1.2778e-06
-6.83415e-08
-4.49349e-07
4.00474e-08
1.74632e-07
2.80995e-08
4.02002e-07
3.28838e-07
1.49031e-07
-5.4242e-07
2.01042e-07
-4.65121e-07
1.61133e-07
-2.10581e-07
4.94076e-08
5.89397e-08
-1.41747e-07
2.98024e-07
-4.41225e-07
5.2565e-07
-8.75001e-07
7.80767e-07
-1.43674e-06
1.0827e-06
-2.07318e-06
1.3998e-06
-2.70232e-06
1.66225e-06
-3.24779e-06
1.80909e-06
-3.68592e-06
1.84282e-06
-4.02387e-06
1.79797e-06
-4.28207e-06
1.69217e-06
-4.48613e-06
1.54402e-06
-4.6479e-06
1.36989e-06
-4.77912e-06
1.18733e-06
-4.88881e-06
1.00353e-06
-4.97724e-06
8.21328e-07
-5.04064e-06
6.374e-07
-5.08005e-06
4.59145e-07
-5.09331e-06
2.80233e-07
-5.08264e-06
1.00253e-07
-5.04896e-06
-8.24719e-08
-4.98994e-06
-2.69254e-07
-4.9027e-06
-4.71205e-07
-4.78515e-06
-6.91744e-07
-4.63306e-06
-9.34985e-07
-4.44396e-06
-1.20274e-06
-4.21322e-06
-1.49456e-06
-3.93559e-06
-1.80077e-06
-3.59595e-06
-2.10529e-06
-3.15499e-06
-2.37491e-06
-2.58783e-06
-2.53048e-06
-1.90247e-06
-2.45265e-06
-1.14934e-06
-2.03093e-06
-4.38584e-07
-1.1601e-06
-1.16512e-07
-1.4744e-07
-1.91604e-08
3.0465e-07
3.09677e-07
7.20433e-08
-6.14463e-07
2.05136e-08
-4.13591e-07
-1.175e-07
-7.25677e-08
-3.32823e-07
2.74263e-07
-6.4621e-07
6.1141e-07
-1.0766e-06
9.56042e-07
-1.61739e-06
1.32156e-06
-2.21891e-06
1.68422e-06
-2.80153e-06
1.98241e-06
-3.29023e-06
2.15095e-06
-3.66738e-06
2.18624e-06
-3.95686e-06
2.13229e-06
-4.17407e-06
2.01518e-06
-4.33748e-06
1.85558e-06
-4.46548e-06
1.67202e-06
-4.56961e-06
1.47401e-06
-4.64967e-06
1.2674e-06
-4.70551e-06
1.05936e-06
-4.73752e-06
8.53342e-07
-4.75332e-06
6.53196e-07
-4.75458e-06
4.60412e-07
-4.74416e-06
2.69812e-07
-4.72294e-06
7.90261e-08
-4.69052e-06
-1.14893e-07
-4.64356e-06
-3.16209e-07
-4.58262e-06
-5.32149e-07
-4.50682e-06
-7.67542e-07
-4.4142e-06
-1.0276e-06
-4.30081e-06
-1.31613e-06
-4.16091e-06
-1.63446e-06
-3.98488e-06
-1.9768e-06
-3.76388e-06
-2.32629e-06
-3.48051e-06
-2.65828e-06
-3.09495e-06
-2.91603e-06
-2.54137e-06
-3.00624e-06
-1.80522e-06
-2.76708e-06
-9.0227e-07
-2.06305e-06
-2.10724e-07
-8.38986e-07
-1.01624e-08
1.04089e-07
2.99515e-07
-4.34692e-08
-5.70994e-07
-1.98313e-07
-2.58748e-07
-4.30268e-07
1.59387e-07
-7.43951e-07
5.87946e-07
-1.15459e-06
1.02205e-06
-1.656e-06
1.45745e-06
-2.20927e-06
1.87482e-06
-2.74765e-06
2.2226e-06
-3.19921e-06
2.43397e-06
-3.53736e-06
2.48911e-06
-3.78864e-06
2.43752e-06
-3.97459e-06
2.31825e-06
-4.10955e-06
2.15014e-06
-4.20637e-06
1.9524e-06
-4.26955e-06
1.73521e-06
-4.30569e-06
1.51015e-06
-4.32212e-06
1.28383e-06
-4.32562e-06
1.06286e-06
-4.32158e-06
8.493e-07
-4.31141e-06
6.43026e-07
-4.29378e-06
4.42785e-07
-4.26985e-06
2.45874e-07
-4.24026e-06
4.94355e-08
-4.20496e-06
-1.50193e-07
-4.16363e-06
-3.57532e-07
-4.1176e-06
-5.78183e-07
-4.06753e-06
-8.17606e-07
-4.01357e-06
-1.08157e-06
-3.95451e-06
-1.37519e-06
-3.88717e-06
-1.7018e-06
-3.80368e-06
-2.06028e-06
-3.68845e-06
-2.44152e-06
-3.52404e-06
-2.82269e-06
-3.28244e-06
-3.15763e-06
-2.91075e-06
-3.37793e-06
-2.323e-06
-3.35483e-06
-1.4713e-06
-2.91475e-06
-4.83545e-07
-1.82674e-06
-3.26036e-08
-3.46853e-07
2.66911e-07
-1.56546e-07
-4.14448e-07
-4.15167e-07
-1.27084e-10
-7.27222e-07
4.71442e-07
-1.11675e-06
9.77474e-07
-1.57995e-06
1.48525e-06
-2.08743e-06
1.96493e-06
-2.58736e-06
2.37475e-06
-3.01435e-06
2.64959e-06
-3.3292e-06
2.74883e-06
-3.55288e-06
2.71279e-06
-3.7122e-06
2.59683e-06
-3.81869e-06
2.42474e-06
-3.88392e-06
2.21537e-06
-3.91696e-06
1.98544e-06
-3.92725e-06
1.74549e-06
-3.92248e-06
1.50538e-06
-3.90875e-06
1.2701e-06
-3.88934e-06
1.04345e-06
-3.8657e-06
8.25665e-07
-3.83856e-06
6.15884e-07
-3.80818e-06
4.12404e-07
-3.77496e-06
2.12649e-07
-3.73944e-06
1.39213e-08
-3.70189e-06
-1.87744e-07
-3.66314e-06
-3.96284e-07
-3.62459e-06
-6.1673e-07
-3.58775e-06
-8.54449e-07
-3.55403e-06
-1.11529e-06
-3.52412e-06
-1.4051e-06
-3.4971e-06
-1.72883e-06
-3.46857e-06
-2.08881e-06
-3.42849e-06
-2.4816e-06
-3.35855e-06
-2.89263e-06
-3.22675e-06
-3.28943e-06
-2.99277e-06
-3.61191e-06
-2.58805e-06
-3.75954e-06
-1.92881e-06
-3.57399e-06
-9.18734e-07
-2.83682e-06
-1.1387e-07
-1.15172e-06
1.53042e-07
-2.5787e-07
-1.56578e-07
-5.85931e-07
3.27935e-07
-9.67535e-07
8.53046e-07
-1.40143e-06
1.41137e-06
-1.87136e-06
1.95519e-06
-2.34091e-06
2.43447e-06
-2.75531e-06
2.78915e-06
-3.06381e-06
2.95809e-06
-3.27314e-06
2.95816e-06
-3.41534e-06
2.85499e-06
-3.50464e-06
2.68613e-06
-3.55154e-06
2.47165e-06
-3.56749e-06
2.23132e-06
-3.5619e-06
1.97985e-06
-3.5431e-06
1.7267e-06
-3.51679e-06
1.47908e-06
-3.48678e-06
1.24009e-06
-3.45468e-06
1.01135e-06
-3.42113e-06
7.92115e-07
-3.38643e-06
5.81187e-07
-3.35068e-06
3.7665e-07
-3.31395e-06
1.75917e-07
-3.27644e-06
-2.35871e-08
-3.23848e-06
-2.257e-07
-3.20109e-06
-4.33671e-07
-3.16585e-06
-6.51978e-07
-3.13478e-06
-8.85518e-07
-3.1102e-06
-1.13987e-06
-3.09411e-06
-1.42119e-06
-3.08724e-06
-1.7357e-06
-3.08758e-06
-2.08847e-06
-3.08835e-06
-2.48083e-06
-3.07484e-06
-2.90615e-06
-3.02027e-06
-3.344e-06
-2.88332e-06
-3.74886e-06
-2.61033e-06
-4.03253e-06
-2.13586e-06
-4.04846e-06
-1.35958e-06
-3.61309e-06
-3.22479e-07
-2.18882e-06
-1.69438e-07
-3.24131e-07
1.67553e-07
-7.13298e-07
7.17101e-07
-1.13147e-06
1.27122e-06
-1.57437e-06
1.85427e-06
-2.02075e-06
2.40157e-06
-2.43208e-06
2.84581e-06
-2.74897e-06
3.10604e-06
-2.96121e-06
3.17033e-06
-3.09892e-06
3.09587e-06
-3.18226e-06
2.93832e-06
-3.22226e-06
2.72613e-06
-3.23025e-06
2.47964e-06
-3.2171e-06
2.21817e-06
-3.19103e-06
1.95377e-06
-3.15835e-06
1.69402e-06
-3.12286e-06
1.44359e-06
-3.08673e-06
1.20396e-06
-3.05078e-06
9.75389e-07
-3.01527e-06
7.56608e-07
-2.98e-06
5.45922e-07
-2.94458e-06
3.41222e-07
-2.90865e-06
1.39992e-07
-2.87185e-06
-6.03858e-08
-2.83462e-06
-2.62931e-07
-2.79768e-06
-4.70616e-07
-2.76257e-06
-6.87089e-07
-2.73156e-06
-9.16523e-07
-2.70753e-06
-1.16391e-06
-2.6935e-06
-1.43521e-06
-2.69185e-06
-1.73734e-06
-2.70291e-06
-2.07741e-06
-2.72283e-06
-2.4609e-06
-2.74071e-06
-2.88827e-06
-2.73493e-06
-3.34978e-06
-2.66851e-06
-3.81528e-06
-2.48923e-06
-4.21181e-06
-2.16105e-06
-4.37664e-06
-1.60309e-06
-4.17105e-06
-5.95032e-07
-3.19688e-06
-7.6447e-07
-3.647e-07
5.32253e-07
-7.84499e-07
1.1369e-06
-1.21277e-06
1.69949e-06
-1.64139e-06
2.28289e-06
-2.04991e-06
2.81008e-06
-2.38672e-06
3.18262e-06
-2.61714e-06
3.33646e-06
-2.76554e-06
3.31873e-06
-2.85352e-06
3.18386e-06
-2.89652e-06
2.98133e-06
-2.90537e-06
2.73498e-06
-2.89159e-06
2.46585e-06
-2.8644e-06
2.19099e-06
-2.83028e-06
1.91965e-06
-2.79376e-06
1.6575e-06
-2.75734e-06
1.40717e-06
-2.72232e-06
1.16894e-06
-2.68893e-06
9.41995e-07
-2.65688e-06
7.24559e-07
-2.62546e-06
5.14499e-07
-2.59382e-06
3.09586e-07
-2.56127e-06
1.07444e-07
-2.52726e-06
-9.43979e-08
-2.49188e-06
-2.98316e-07
-2.45564e-06
-5.06849e-07
-2.41983e-06
-7.22899e-07
-2.38655e-06
-9.49804e-07
-2.35872e-06
-1.19174e-06
-2.33984e-06
-1.4541e-06
-2.33337e-06
-1.74381e-06
-2.34148e-06
-2.06929e-06
-2.36307e-06
-2.43932e-06
-2.39108e-06
-2.86025e-06
-2.4096e-06
-3.33126e-06
-2.3883e-06
-3.83659e-06
-2.27602e-06
-4.32409e-06
-2.0285e-06
-4.62416e-06
-1.59503e-06
-4.60452e-06
-8.49537e-07
-3.94237e-06
-1.61401e-06
-3.80191e-07
9.12444e-07
-8.04314e-07
1.56102e-06
-1.22185e-06
2.11702e-06
-1.62149e-06
2.68253e-06
-1.97899e-06
3.16758e-06
-2.23918e-06
3.44282e-06
-2.41112e-06
3.5084e-06
-2.51586e-06
3.42346e-06
-2.57045e-06
3.23845e-06
-2.58832e-06
2.9992e-06
-2.58037e-06
2.72702e-06
-2.55711e-06
2.44259e-06
-2.52586e-06
2.15974e-06
-2.49166e-06
1.88545e-06
-2.45776e-06
1.6236e-06
-2.42577e-06
1.37518e-06
-2.39626e-06
1.13942e-06
-2.36886e-06
9.14601e-07
-2.3428e-06
6.98501e-07
-2.31706e-06
4.88754e-07
-2.29059e-06
2.83119e-07
-2.26254e-06
7.93982e-08
-2.23233e-06
-1.24616e-07
-2.19974e-06
-3.309e-07
-2.16508e-06
-5.41514e-07
-2.12925e-06
-7.58731e-07
-2.09393e-06
-9.85118e-07
-2.06171e-06
-1.22396e-06
-2.03603e-06
-1.47977e-06
-2.02086e-06
-1.75899e-06
-2.01965e-06
-2.0705e-06
-2.03358e-06
-2.4254e-06
-2.05888e-06
-2.83495e-06
-2.08443e-06
-3.30572e-06
-2.08769e-06
-3.83333e-06
-2.02368e-06
-4.3881e-06
-1.82004e-06
-4.82781e-06
-1.47343e-06
-4.95112e-06
-8.99619e-07
-4.51618e-06
-2.51363e-06
-3.71641e-07
1.28409e-06
-7.80375e-07
1.96976e-06
-1.17158e-06
2.50822e-06
-1.53375e-06
3.04471e-06
-1.83136e-06
3.46519e-06
-2.03307e-06
3.64453e-06
-2.16553e-06
3.64086e-06
-2.2396e-06
3.49753e-06
-2.27302e-06
3.27186e-06
-2.27718e-06
3.00337e-06
-2.26247e-06
2.71231e-06
-2.23768e-06
2.4178e-06
-2.20859e-06
2.13065e-06
-2.17911e-06
1.85597e-06
-2.15146e-06
1.59595e-06
-2.12651e-06
1.35023e-06
-2.10416e-06
1.11707e-06
-2.08367e-06
8.94109e-07
-2.064e-06
6.78831e-07
-2.04405e-06
4.68804e-07
-2.02279e-06
2.61861e-07
-1.99938e-06
5.59888e-08
-1.97324e-06
-1.5076e-07
-1.94404e-06
-3.60092e-07
-1.91186e-06
-5.73693e-07
-1.87724e-06
-7.93354e-07
-1.84134e-06
-1.02102e-06
-1.80612e-06
-1.25918e-06
-1.77453e-06
-1.51137e-06
-1.7504e-06
-1.78311e-06
-1.73793e-06
-2.08297e-06
-1.74006e-06
-2.42327e-06
-1.75587e-06
-2.81914e-06
-1.77762e-06
-3.28397e-06
-1.7886e-06
-3.82234e-06
-1.75742e-06
-4.41928e-06
-1.59992e-06
-4.98531e-06
-1.31326e-06
-5.23779e-06
-8.05636e-07
-5.0238e-06
-3.31926e-06
-3.44578e-07
1.62866e-06
-7.23859e-07
2.34904e-06
-1.07958e-06
2.86394e-06
-1.39774e-06
3.36287e-06
-1.63609e-06
3.70354e-06
-1.79837e-06
3.8068e-06
-1.90068e-06
3.74317e-06
-1.95479e-06
3.55165e-06
-1.97601e-06
3.29308e-06
-1.97439e-06
3.00175e-06
-1.95924e-06
2.69716e-06
-1.93766e-06
2.39621e-06
-1.91416e-06
2.10715e-06
-1.89166e-06
1.83347e-06
-1.87157e-06
1.57586e-06
-1.85411e-06
1.33277e-06
-1.83877e-06
1.10174e-06
-1.82464e-06
8.79976e-07
-1.81065e-06
6.64849e-07
-1.79581e-06
4.53961e-07
-1.77921e-06
2.45257e-07
-1.76011e-06
3.68918e-08
-1.73799e-06
-1.72875e-07
-1.71252e-06
-3.85569e-07
-1.68358e-06
-6.02629e-07
-1.65143e-06
-8.25509e-07
-1.61673e-06
-1.05572e-06
-1.58082e-06
-1.29509e-06
-1.5459e-06
-1.54629e-06
-1.51525e-06
-1.81377e-06
-1.49309e-06
-2.10513e-06
-1.48354e-06
-2.43281e-06
-1.48822e-06
-2.81446e-06
-1.50252e-06
-3.26967e-06
-1.51353e-06
-3.81133e-06
-1.49685e-06
-4.43596e-06
-1.38632e-06
-5.09584e-06
-1.13165e-06
-5.49246e-06
-7.05212e-07
-5.45024e-06
-4.02447e-06
-3.04953e-07
1.93362e-06
-6.45549e-07
2.68963e-06
-9.59764e-07
3.17816e-06
-1.22905e-06
3.63216e-06
-1.41803e-06
3.89252e-06
-1.55053e-06
3.9393e-06
-1.63106e-06
3.8237e-06
-1.67261e-06
3.5932e-06
-1.68779e-06
3.30825e-06
-1.68539e-06
2.99935e-06
-1.6734e-06
2.68517e-06
-1.65738e-06
2.38019e-06
-1.64081e-06
2.09059e-06
-1.62577e-06
1.81843e-06
-1.61296e-06
1.56305e-06
-1.60223e-06
1.32204e-06
-1.59288e-06
1.09238e-06
-1.584e-06
8.711e-07
-1.57468e-06
6.55525e-07
-1.56408e-06
4.43361e-07
-1.55148e-06
2.32659e-07
-1.53629e-06
2.17053e-08
-1.51808e-06
-1.91091e-07
-1.4965e-06
-4.07149e-07
-1.47135e-06
-6.27772e-07
-1.44266e-06
-8.54206e-07
-1.4107e-06
-1.08767e-06
-1.37625e-06
-1.32954e-06
-1.34077e-06
-1.58177e-06
-1.30679e-06
-1.84775e-06
-1.27805e-06
-2.13387e-06
-1.25913e-06
-2.45173e-06
-1.2535e-06
-2.82008e-06
-1.25975e-06
-3.26343e-06
-1.26806e-06
-3.80302e-06
-1.25788e-06
-4.44614e-06
-1.18869e-06
-5.16503e-06
-9.63974e-07
-5.71717e-06
-5.99785e-07
-5.81443e-06
-4.62426e-06
-2.58212e-07
2.19183e-06
-5.52774e-07
2.9842e-06
-8.21289e-07
3.44667e-06
-1.0413e-06
3.85217e-06
-1.19408e-06
4.0453e-06
-1.30218e-06
4.0474e-06
-1.36602e-06
3.88754e-06
-1.39947e-06
3.62666e-06
-1.41232e-06
3.3211e-06
-1.41191e-06
2.99893e-06
-1.40472e-06
2.67798e-06
-1.39498e-06
2.37046e-06
-1.38532e-06
2.08092e-06
-1.37707e-06
1.81017e-06
-1.3705e-06
1.55648e-06
-1.36524e-06
1.31678e-06
-1.36061e-06
1.08775e-06
-1.35585e-06
8.66334e-07
-1.35022e-06
6.49901e-07
-1.34312e-06
4.36255e-07
-1.33399e-06
2.23535e-07
-1.3224e-06
1.01092e-08
-1.30798e-06
-2.0551e-07
-1.29043e-06
-4.247e-07
-1.26949e-06
-6.4871e-07
-1.24501e-06
-8.78685e-07
-1.217e-06
-1.11568e-06
-1.18579e-06
-1.36075e-06
-1.15223e-06
-1.61532e-06
-1.1181e-06
-1.88188e-06
-1.08645e-06
-2.16553e-06
-1.06168e-06
-2.4765e-06
-1.04844e-06
-2.83333e-06
-1.04806e-06
-3.26381e-06
-1.05332e-06
-3.79775e-06
-1.04698e-06
-4.45249e-06
-9.99422e-07
-5.21259e-06
-8.18933e-07
-5.89766e-06
-5.15572e-07
-6.11779e-06
-5.13983e-06
-2.05448e-07
2.39728e-06
-4.51169e-07
3.22992e-06
-6.74284e-07
3.66979e-06
-8.49274e-07
4.02716e-06
-9.72246e-07
4.16827e-06
-1.05826e-06
4.13341e-06
-1.10983e-06
3.93911e-06
-1.13814e-06
3.65497e-06
-1.1507e-06
3.33366e-06
-1.15344e-06
3.00167e-06
-1.15138e-06
2.67593e-06
-1.14764e-06
2.36671e-06
-1.14405e-06
2.07733e-06
-1.14142e-06
1.80755e-06
-1.13977e-06
1.55483e-06
-1.13869e-06
1.31571e-06
-1.13763e-06
1.08669e-06
-1.136e-06
8.64709e-07
-1.13331e-06
6.47211e-07
-1.12913e-06
4.32074e-07
-1.12309e-06
2.17499e-07
-1.11487e-06
1.88447e-09
-1.1042e-06
-2.16183e-07
-1.09079e-06
-4.38106e-07
-1.07437e-06
-6.65127e-07
-1.05468e-06
-8.98375e-07
-1.03153e-06
-1.13883e-06
-1.00491e-06
-1.38737e-06
-9.7524e-07
-1.645e-06
-9.43663e-07
-1.91346e-06
-9.12557e-07
-2.19663e-06
-8.85901e-07
-2.50315e-06
-8.68829e-07
-2.8504e-06
-8.64782e-07
-3.26785e-06
-8.6968e-07
-3.79286e-06
-8.69808e-07
-4.45236e-06
-8.4121e-07
-5.24119e-06
-6.98031e-07
-6.04084e-06
-4.34209e-07
-6.38161e-06
-5.57404e-06
-1.52688e-07
2.54996e-06
-3.47481e-07
3.42471e-06
-5.25345e-07
3.84765e-06
-6.59094e-07
4.16091e-06
-7.55294e-07
4.26447e-06
-8.22285e-07
4.2004e-06
-8.64157e-07
3.98098e-06
-8.8898e-07
3.67979e-06
-9.02155e-07
3.34684e-06
-9.08234e-07
3.00775e-06
-9.10881e-07
2.67857e-06
-9.12254e-07
2.36808e-06
-9.13576e-07
2.07866e-06
-9.15281e-07
1.80925e-06
-9.17282e-07
1.55683e-06
-9.1925e-07
1.31768e-06
-9.20796e-07
1.08824e-06
-9.21558e-07
8.65472e-07
-9.21233e-07
6.46886e-07
-9.1957e-07
4.3041e-07
-9.16347e-07
2.14276e-07
-9.11368e-07
-3.09426e-09
-9.0441e-07
-2.23141e-07
-8.95249e-07
-4.47266e-07
-8.83602e-07
-6.76774e-07
-8.69144e-07
-9.12833e-07
-8.51546e-07
-1.15643e-06
-8.30576e-07
-1.40834e-06
-8.06286e-07
-1.66928e-06
-7.79342e-07
-1.9404e-06
-7.51502e-07
-2.22447e-06
-7.26175e-07
-2.52848e-06
-7.0854e-07
-2.86803e-06
-7.03581e-07
-3.27281e-06
-7.10381e-07
-3.78606e-06
-7.17177e-07
-4.44556e-06
-6.99789e-07
-5.25857e-06
-6.00221e-07
-6.14041e-06
-3.79903e-07
-6.60193e-06
-5.95394e-06
-9.67336e-08
2.6467e-06
-2.42941e-07
3.57092e-06
-3.76503e-07
3.98121e-06
-4.7357e-07
4.25797e-06
-5.45564e-07
4.33646e-06
-5.95677e-07
4.25052e-06
-6.29104e-07
4.01441e-06
-6.51054e-07
3.70174e-06
-6.64954e-07
3.36074e-06
-6.73951e-07
3.01675e-06
-6.80479e-07
2.6851e-06
-6.85895e-07
2.3735e-06
-6.90922e-07
2.08368e-06
-6.95765e-07
1.81409e-06
-7.00333e-07
1.5614e-06
-7.04429e-07
1.32177e-06
-7.07853e-07
1.09166e-06
-7.1044e-07
8.68059e-07
-7.12065e-07
6.48511e-07
-7.12628e-07
4.30974e-07
-7.12037e-07
2.13685e-07
-7.10186e-07
-4.94527e-09
-7.06934e-07
-2.26393e-07
-7.02094e-07
-4.52105e-07
-6.95404e-07
-6.83465e-07
-6.86513e-07
-9.21723e-07
-6.75014e-07
-1.16793e-06
-6.60518e-07
-1.42284e-06
-6.42827e-07
-1.68698e-06
-6.22234e-07
-1.96099e-06
-5.99986e-07
-2.24672e-06
-5.78892e-07
-2.54957e-06
-5.63814e-07
-2.88311e-06
-5.60688e-07
-3.27594e-06
-5.71577e-07
-3.77517e-06
-5.87016e-07
-4.43013e-06
-5.82787e-07
-5.2628e-06
-5.14442e-07
-6.20876e-06
-3.2937e-07
-6.787e-06
-6.28331e-06
-4.60331e-08
2.69273e-06
-1.40987e-07
3.66587e-06
-2.30513e-07
4.07074e-06
-2.94455e-07
4.32192e-06
-3.43587e-07
4.3856e-06
-3.78121e-07
4.28505e-06
-4.0365e-07
4.03994e-06
-4.22699e-07
3.72079e-06
-4.36914e-07
3.37495e-06
-4.48085e-07
3.02792e-06
-4.57519e-07
2.69454e-06
-4.65889e-07
2.38187e-06
-4.73526e-07
2.09132e-06
-4.80501e-07
1.82107e-06
-4.86772e-07
1.56767e-06
-4.92291e-07
1.32729e-06
-4.9704e-07
1.09641e-06
-5.01034e-07
8.72053e-07
-5.04304e-07
6.5178e-07
-5.06879e-07
4.33549e-07
-5.08774e-07
2.1558e-07
-5.0997e-07
-3.74934e-09
-5.10397e-07
-2.25966e-07
-5.09918e-07
-4.52584e-07
-5.08305e-07
-6.85078e-07
-5.05219e-07
-9.2481e-07
-5.00219e-07
-1.17293e-06
-4.92829e-07
-1.43023e-06
-4.82682e-07
-1.69712e-06
-4.69792e-07
-1.97388e-06
-4.54993e-07
-2.26152e-06
-4.40556e-07
-2.56401e-06
-4.30876e-07
-2.89279e-06
-4.3224e-07
-3.27457e-06
-4.48868e-07
-3.75854e-06
-4.73694e-07
-4.4053e-06
-4.8527e-07
-5.25123e-06
-4.45562e-07
-6.24846e-06
-2.9335e-07
-6.93921e-06
-6.57666e-06
1.01673e-08
2.68256e-06
-3.86253e-08
3.71467e-06
-8.82529e-08
4.12037e-06
-1.2243e-07
4.35609e-06
-1.49024e-07
4.41219e-06
-1.68779e-07
4.30481e-06
-1.86235e-07
4.05739e-06
-2.01847e-07
3.7364e-06
-2.1567e-07
3.38878e-06
-2.28148e-07
3.0404e-06
-2.39511e-07
2.7059e-06
-2.49853e-07
2.39221e-06
-2.59185e-07
2.10065e-06
-2.67487e-07
1.82937e-06
-2.74791e-07
1.57498e-06
-2.81198e-07
1.3337e-06
-2.8686e-07
1.10207e-06
-2.91949e-07
8.77142e-07
-2.96632e-07
6.56463e-07
-3.01051e-07
4.37967e-07
-3.05313e-07
2.19842e-07
-3.09475e-07
4.12847e-10
-3.13537e-07
-2.21904e-07
-3.17417e-07
-4.48704e-07
-3.20937e-07
-6.81558e-07
-3.23798e-07
-9.2195e-07
-3.25578e-07
-1.17115e-06
-3.25776e-07
-1.43003e-06
-3.23923e-07
-1.69898e-06
-3.19831e-07
-1.97797e-06
-3.13998e-07
-2.26735e-06
-3.08213e-07
-2.5698e-06
-3.06353e-07
-2.89465e-06
-3.14658e-07
-3.26627e-06
-3.38826e-07
-3.73437e-06
-3.74415e-07
-4.36971e-06
-4.01938e-07
-5.22371e-06
-3.85756e-07
-6.26465e-06
-2.60602e-07
-7.06437e-06
-6.83726e-06
6.07955e-08
2.62177e-06
6.0576e-08
3.71489e-06
4.90259e-08
4.13192e-06
4.30052e-08
4.36211e-06
3.89067e-08
4.41629e-06
3.31479e-08
4.31057e-06
2.4551e-08
4.06599e-06
1.33209e-08
3.74763e-06
8.40859e-10
3.40126e-06
-1.1829e-08
3.05307e-06
-2.41615e-08
2.71823e-06
-3.56142e-08
2.40366e-06
-4.58823e-08
2.11092e-06
-5.48823e-08
1.83837e-06
-6.27183e-08
1.58281e-06
-6.96238e-08
1.3406e-06
-7.58963e-08
1.10834e-06
-8.18443e-08
8.8309e-07
-8.77539e-08
6.62373e-07
-9.38694e-08
4.44083e-07
-1.00384e-07
2.26357e-07
-1.07432e-07
7.46066e-09
-1.15073e-07
-2.14263e-07
-1.23285e-07
-4.40492e-07
-1.31944e-07
-6.72898e-07
-1.40816e-07
-9.13078e-07
-1.49542e-07
-1.16242e-06
-1.57663e-07
-1.42191e-06
-1.64711e-07
-1.69193e-06
-1.70303e-07
-1.97238e-06
-1.7472e-07
-2.26294e-06
-1.79282e-07
-2.56523e-06
-1.87304e-07
-2.88663e-06
-2.04712e-07
-3.24886e-06
-2.38114e-07
-3.70097e-06
-2.85811e-07
-4.32201e-06
-3.30075e-07
-5.17944e-06
-3.37624e-07
-6.2571e-06
-2.36182e-07
-7.16581e-06
-7.07345e-06
1.11991e-07
2.50978e-06
1.57941e-07
3.66894e-06
1.83141e-07
4.10672e-06
2.06009e-07
4.33925e-06
2.25258e-07
4.39704e-06
2.34032e-07
4.30179e-06
2.32736e-07
4.06729e-06
2.25808e-07
3.75456e-06
2.15283e-07
3.41178e-06
2.03035e-07
3.06532e-06
1.90541e-07
2.73073e-06
1.78757e-07
2.41545e-06
1.68193e-07
2.12148e-06
1.58989e-07
1.84758e-06
1.51004e-07
1.5908e-06
1.43906e-07
1.3477e-06
1.37277e-07
1.11497e-06
1.30685e-07
8.89683e-07
1.2373e-07
6.69328e-07
1.1607e-07
4.51743e-07
1.07429e-07
2.34998e-07
9.7601e-08
1.72891e-08
8.64634e-08
-2.03125e-07
7.39761e-08
-4.28004e-07
6.01931e-08
-6.59115e-07
4.52725e-08
-8.98157e-07
2.94895e-08
-1.14664e-06
1.32333e-08
-1.40565e-06
-3.04252e-09
-1.67565e-06
-1.91709e-08
-1.95625e-06
-3.49896e-08
-2.24712e-06
-5.14128e-08
-2.54881e-06
-7.11695e-08
-2.86687e-06
-9.97052e-08
-3.22032e-06
-1.4407e-07
-3.6566e-06
-2.04766e-07
-4.26132e-06
-2.65207e-07
-5.119e-06
-2.94875e-07
-6.22743e-06
-2.1435e-07
-7.24633e-06
-7.2878e-06
1.62887e-07
2.34689e-06
2.53631e-07
3.57819e-06
3.13125e-07
4.04722e-06
3.62613e-07
4.28976e-06
4.04034e-07
4.35562e-06
4.29123e-07
4.2767e-06
4.37042e-07
4.05937e-06
4.36013e-07
3.75559e-06
4.28794e-07
3.419e-06
4.18228e-07
3.07588e-06
4.06508e-07
2.74245e-06
3.95094e-07
2.42686e-06
3.84773e-07
2.1318e-06
3.75797e-07
1.85655e-06
3.68014e-07
1.59858e-06
3.61016e-07
1.3547e-06
3.54278e-07
1.12171e-06
3.47255e-07
8.96706e-07
3.39444e-07
6.77139e-07
3.30409e-07
4.60778e-07
3.19791e-07
2.45615e-07
3.07316e-07
2.97648e-08
2.92797e-07
-1.88607e-07
2.76129e-07
-4.11337e-07
2.57279e-07
-6.40265e-07
2.36299e-07
-8.77177e-07
2.13334e-07
-1.12367e-06
1.88619e-07
-1.38094e-06
1.6246e-07
-1.64949e-06
1.35275e-07
-1.92907e-06
1.07115e-07
-2.21896e-06
7.75035e-08
-2.5192e-06
4.43521e-08
-2.83372e-06
2.7763e-09
-3.17875e-06
-5.44246e-08
-3.5994e-06
-1.29542e-07
-4.1862e-06
-2.06648e-07
-5.04189e-06
-2.55725e-07
-6.17835e-06
-1.98728e-07
-7.30333e-06
-7.48652e-06
2.11733e-07
2.13516e-06
3.46766e-07
3.44316e-06
4.39603e-07
3.95438e-06
5.15228e-07
4.21413e-06
5.7648e-07
4.29437e-06
6.19478e-07
4.2337e-06
6.38813e-07
4.04003e-06
6.45207e-07
3.7492e-06
6.42739e-07
3.42147e-06
6.35119e-07
3.08351e-06
6.25237e-07
2.75233e-06
6.15042e-07
2.43706e-06
6.05625e-07
2.14122e-06
5.97375e-07
1.8648e-06
5.90168e-07
1.60579e-06
5.83558e-07
1.36131e-06
5.76948e-07
1.12832e-06
5.69704e-07
9.0395e-07
5.61229e-07
6.85614e-07
5.50998e-07
4.71008e-07
5.38576e-07
2.58038e-07
5.23612e-07
4.47286e-08
5.05849e-07
-1.70844e-07
4.85105e-07
-3.90592e-07
4.61242e-07
-6.16403e-07
4.34191e-07
-8.50126e-07
4.03947e-07
-1.09343e-06
3.70582e-07
-1.34757e-06
3.34259e-07
-1.61317e-06
2.95231e-07
-1.89004e-06
2.53709e-07
-2.17744e-06
2.09542e-07
-2.47503e-06
1.6131e-07
-2.78549e-06
1.04853e-07
-3.12229e-06
3.2942e-08
-3.52749e-06
-5.80253e-08
-4.09523e-06
-1.52892e-07
-4.94703e-06
-2.18457e-07
-6.11279e-06
-1.85781e-07
-7.33601e-06
-7.67231e-06
2.57863e-07
1.87729e-06
4.3581e-07
3.26521e-06
5.61087e-07
3.82911e-06
6.6262e-07
4.1126e-06
7.43005e-07
4.21398e-06
8.04369e-07
4.17234e-06
8.38065e-07
4.00634e-06
8.53791e-07
3.73347e-06
8.578e-07
3.41746e-06
8.54715e-07
3.08659e-06
8.48031e-07
2.75901e-06
8.40145e-07
2.44494e-06
8.32455e-07
2.14891e-06
8.25538e-07
1.87172e-06
8.19358e-07
1.61197e-06
8.13486e-07
1.36718e-06
8.07292e-07
1.13451e-06
8.00077e-07
9.11165e-07
7.91166e-07
6.94525e-07
7.79951e-07
4.82223e-07
7.65915e-07
2.72074e-07
7.48631e-07
6.20126e-08
7.27759e-07
-1.49972e-07
7.03014e-07
-3.65847e-07
6.74149e-07
-5.87538e-07
6.40958e-07
-8.16935e-07
6.0326e-07
-1.05573e-06
5.60925e-07
-1.30524e-06
5.13931e-07
-1.56618e-06
4.62401e-07
-1.83851e-06
4.06573e-07
-2.12161e-06
3.46572e-07
-2.41503e-06
2.81655e-07
-2.72057e-06
2.08497e-07
-3.04913e-06
1.19918e-07
-3.43891e-06
1.06201e-08
-3.98593e-06
-1.03609e-07
-4.8328e-06
-1.87248e-07
-6.02915e-06
-1.74231e-07
-7.34902e-06
-7.84654e-06
2.99077e-07
1.57822e-06
5.18013e-07
3.04628e-06
6.74795e-07
3.67233e-06
8.00752e-07
3.98664e-06
9.02555e-07
4.11218e-06
9.82438e-07
4.09246e-06
1.03348e-06
3.9553e-06
1.06118e-06
3.70577e-06
1.07396e-06
3.40467e-06
1.07745e-06
3.0831e-06
1.07571e-06
2.76075e-06
1.07156e-06
2.44909e-06
1.06673e-06
2.15375e-06
1.06201e-06
1.87644e-06
1.05752e-06
1.61646e-06
1.0529e-06
1.3718e-06
1.04753e-06
1.13988e-06
1.04068e-06
9.18012e-07
1.03163e-06
7.03582e-07
1.01968e-06
4.94168e-07
1.00425e-06
2.87508e-07
9.84814e-07
8.14447e-08
9.60947e-07
-1.26105e-07
9.32238e-07
-3.37138e-07
8.98314e-07
-5.53614e-07
8.58818e-07
-7.77439e-07
8.1339e-07
-1.0103e-06
7.61685e-07
-1.25353e-06
7.03447e-07
-1.50794e-06
6.38614e-07
-1.77368e-06
5.67411e-07
-2.0504e-06
4.90286e-07
-2.33791e-06
4.07124e-07
-2.63741e-06
3.15433e-07
-2.95744e-06
2.08821e-07
-3.3323e-06
8.11715e-08
-3.85829e-06
-5.45753e-08
-4.69705e-06
-1.57023e-07
-5.9267e-06
-1.63226e-07
-7.34282e-06
-8.00976e-06
3.31305e-07
1.24691e-06
5.88199e-07
2.78938e-06
7.76422e-07
3.4841e-06
9.27335e-07
3.83573e-06
1.05159e-06
3.98792e-06
1.15023e-06
3.99382e-06
1.22154e-06
3.88398e-06
1.26504e-06
3.66227e-06
1.28992e-06
3.37979e-06
1.3028e-06
3.07023e-06
1.30839e-06
2.75516e-06
1.30997e-06
2.44751e-06
1.3096e-06
2.15412e-06
1.30835e-06
1.87769e-06
1.30653e-06
1.61827e-06
1.30392e-06
1.37441e-06
1.29997e-06
1.14384e-06
1.29396e-06
9.24021e-07
1.28514e-06
7.12404e-07
1.27277e-06
5.06536e-07
1.25618e-06
3.04099e-07
1.23478e-06
1.02847e-07
1.20801e-06
-9.93343e-08
1.17533e-06
-3.04458e-07
1.13623e-06
-5.14515e-07
1.09019e-06
-7.31395e-07
1.03663e-06
-9.56747e-07
9.75001e-07
-1.1919e-06
9.04789e-07
-1.43773e-06
8.25754e-07
-1.69464e-06
7.38058e-07
-1.96271e-06
6.42331e-07
-2.24218e-06
5.39089e-07
-2.53417e-06
4.26867e-07
-2.84522e-06
3.00221e-07
-3.20566e-06
1.53483e-07
-3.71155e-06
1.9665e-09
-4.54553e-06
-1.21984e-07
-5.80275e-06
-1.53962e-07
-7.31084e-06
-8.16372e-06
3.46385e-07
9.00527e-07
6.38788e-07
2.49698e-06
8.60764e-07
3.26213e-06
1.03777e-06
3.65873e-06
1.1846e-06
3.84109e-06
1.3049e-06
3.87352e-06
1.39843e-06
3.79046e-06
1.46187e-06
3.59883e-06
1.50303e-06
3.33863e-06
1.52905e-06
3.04421e-06
1.54522e-06
2.73899e-06
1.55526e-06
2.43747e-06
1.56162e-06
2.14777e-06
1.56566e-06
1.87365e-06
1.56795e-06
1.61598e-06
1.56847e-06
1.37389e-06
1.56679e-06
1.14551e-06
1.56229e-06
9.28529e-07
1.55421e-06
7.20479e-07
1.5418e-06
5.18942e-07
1.52434e-06
3.21568e-07
1.50114e-06
1.26042e-07
1.47152e-06
-6.97133e-08
1.4348e-06
-2.67736e-07
1.39032e-06
-4.70036e-07
1.33736e-06
-6.78435e-07
1.27514e-06
-8.94525e-07
1.20285e-06
-1.11962e-06
1.11978e-06
-1.35465e-06
1.02548e-06
-1.60035e-06
9.2004e-07
-1.85726e-06
8.04195e-07
-2.12633e-06
6.79029e-07
-2.409e-06
5.44213e-07
-2.7104e-06
3.95092e-07
-3.05653e-06
2.25596e-07
-3.54205e-06
4.68598e-08
-4.3668e-06
-9.72525e-08
-5.65864e-06
-1.46137e-07
-7.26196e-06
-8.30986e-06
3.30824e-07
5.69702e-07
6.60447e-07
2.16736e-06
9.20188e-07
3.00239e-06
1.12572e-06
3.4532e-06
1.29618e-06
3.67063e-06
1.44041e-06
3.72929e-06
1.55852e-06
3.67235e-06
1.64648e-06
3.51087e-06
1.70903e-06
3.27608e-06
1.75296e-06
3.00028e-06
1.78394e-06
2.708e-06
1.80611e-06
2.41529e-06
1.82227e-06
2.13161e-06
1.83413e-06
1.86179e-06
1.84257e-06
1.60754e-06
1.84782e-06
1.36864e-06
1.84966e-06
1.14367e-06
1.8476e-06
9.30592e-07
1.84097e-06
7.27108e-07
1.82902e-06
5.30889e-07
1.81101e-06
3.39581e-07
1.78619e-06
1.5086e-07
1.75371e-06
-3.72291e-08
1.71281e-06
-2.26837e-07
1.66264e-06
-4.19862e-07
1.60226e-06
-6.18056e-07
1.53067e-06
-8.22941e-07
1.44686e-06
-1.0358e-06
1.34989e-06
-1.25768e-06
1.23917e-06
-1.48962e-06
1.11469e-06
-1.73279e-06
9.77283e-07
-1.98893e-06
8.28336e-07
-2.26006e-06
6.68666e-07
-2.55073e-06
4.94848e-07
-2.88272e-06
3.01103e-07
-3.34831e-06
9.80872e-08
-4.16378e-06
-6.91784e-08
-5.49137e-06
-1.37586e-07
-7.19355e-06
-8.44745e-06
2.68993e-07
3.0071e-07
6.49343e-07
1.78701e-06
9.464e-07
2.70533e-06
1.18276e-06
3.21684e-06
1.37951e-06
3.47387e-06
1.54972e-06
3.55909e-06
1.69544e-06
3.52662e-06
1.81234e-06
3.39397e-06
1.902e-06
3.18641e-06
1.9696e-06
2.93268e-06
2.02065e-06
2.65696e-06
2.05956e-06
2.37638e-06
2.0895e-06
2.10167e-06
2.11253e-06
1.83875e-06
2.12987e-06
1.5902e-06
2.14206e-06
1.35645e-06
2.14915e-06
1.13658e-06
2.15084e-06
9.28896e-07
2.14663e-06
7.31327e-07
2.13581e-06
5.41707e-07
2.11768e-06
3.57708e-07
2.09145e-06
1.77094e-07
2.05602e-06
-1.80774e-09
2.01076e-06
-1.81572e-07
1.95448e-06
-3.63581e-07
1.88608e-06
-5.49653e-07
1.80433e-06
-7.412e-07
1.70804e-06
-9.3951e-07
1.59609e-06
-1.14572e-06
1.46778e-06
-1.36132e-06
1.32303e-06
-1.58804e-06
1.16268e-06
-1.82858e-06