/*--------------------------------*- C++ -*----------------------------------*\
  =========                 |
  \\      /  F ield         | OpenFOAM: The Open Source CFD Toolbox
   \\    /   O peration     | Website:  https://openfoam.org
    \\  /    A nd           | Version:  13
     \\/     M anipulation  |
\*---------------------------------------------------------------------------*/
FoamFile
{
    format      ascii;
    class       volScalarField;
    location    "5.7";
    object      epsilon;
}
// * * * * * * * * * * * * * * * * * * * * * * * * * * * * * * * * * * * * * //

dimensions      [0 2 -3 0 0 0 0];

internalField   nonuniform List<scalar> 
6400
(
2.48333e-05
0.000127491
0.000308742
0.000498429
0.000643021
0.000725343
0.000756142
0.000759723
0.000764022
0.000791625
0.000859487
0.000993984
0.00120877
0.00150887
0.00188063
0.00230415
0.00275856
0.00323363
0.00370976
0.00417201
0.00463213
0.00512687
0.00570757
0.00641328
0.00722735
0.00807128
0.00890746
0.00973605
0.0105791
0.0114587
0.0123702
0.0132762
0.0141671
0.015036
0.0159101
0.0167936
0.0177074
0.0186581
0.0196589
0.0207145
0.0218324
0.0230207
0.0242868
0.0256461
0.0271059
0.0287053
0.0305182
0.0327051
0.0352125
0.0376202
0.0400955
0.0424682
0.0447507
0.046835
0.0486681
0.0501531
0.0510585
0.0514677
0.0515695
0.0508315
0.0492918
0.0469714
0.043899
0.0401481
0.0358543
0.0311834
0.0264027
0.0217025
0.0172672
0.0132438
0.0100147
0.00730015
0.00509888
0.00340857
0.00218929
0.00135702
0.000813752
0.00046442
0.000218396
4.6373e-05
0.000120394
0.000119755
0.000195843
0.000284671
0.000352148
0.000393516
0.000414158
0.000423564
0.000433644
0.000456683
0.000505653
0.000599203
0.000752751
0.000978336
0.0012802
0.00165992
0.00211955
0.00266499
0.00330168
0.00403742
0.00487982
0.00585917
0.0070248
0.00840704
0.0100023
0.0118214
0.0137459
0.0156272
0.0173639
0.0188655
0.0200207
0.0209208
0.0215468
0.0219771
0.0222553
0.0224332
0.022554
0.0226502
0.0227479
0.0228648
0.023023
0.0232315
0.023502
0.0238032
0.0241508
0.0245672
0.0250744
0.0256501
0.0263115
0.0270101
0.0277531
0.0285014
0.029234
0.0299117
0.0304919
0.0308661
0.0310129
0.030993
0.0306852
0.030018
0.028969
0.027545
0.0257152
0.0235501
0.0211264
0.0185417
0.0159141
0.0133626
0.0109779
0.00883859
0.00704198
0.00550533
0.00419054
0.0030746
0.00215396
0.00141398
0.000862582
0.000483453
0.000250256
0.000245145
0.000264024
0.000217952
0.00029206
0.000369112
0.000416202
0.000440104
0.000452808
0.000466755
0.000495388
0.000554888
0.00066742
0.000859066
0.00115573
0.00157664
0.00213376
0.00283961
0.00370613
0.00474742
0.00597315
0.00738947
0.00900172
0.0107857
0.0126668
0.0145131
0.0161571
0.0173845
0.018131
0.01856
0.0187757
0.0189136
0.0190115
0.0189869
0.0187139
0.0184378
0.0181446
0.0178821
0.0176645
0.0175181
0.0174517
0.0174363
0.0175139
0.0176783
0.0179234
0.0182844
0.0187523
0.0193161
0.0199585
0.0206777
0.0214699
0.0223229
0.0232257
0.0241599
0.0251036
0.0260262
0.0268895
0.0276473
0.0282559
0.0285772
0.0286656
0.0284462
0.0278087
0.0267336
0.0251762
0.023241
0.0210003
0.0185537
0.0160236
0.0135235
0.0111624
0.00902693
0.00717863
0.00562212
0.00433674
0.0032844
0.00242713
0.00173899
0.00118034
0.000737909
0.000456783
0.00065282
0.000459466
0.000377392
0.000463646
0.00053932
0.000578806
0.00059874
0.000617575
0.000654248
0.000729559
0.000872251
0.00111904
0.00150981
0.00207854
0.00284679
0.00382545
0.00501922
0.00642979
0.00804042
0.00980354
0.0116346
0.0134108
0.0149942
0.0162441
0.016962
0.0172731
0.0173568
0.0173586
0.0170585
0.0165678
0.0160103
0.0153699
0.0148639
0.0144623
0.014135
0.0138777
0.0137088
0.0136291
0.0136064
0.0136638
0.0138095
0.0140325
0.0143352
0.0147169
0.0151807
0.0157228
0.0163435
0.0170431
0.0178215
0.0186778
0.0196089
0.0206082
0.0216647
0.022762
0.0238762
0.0249736
0.0260107
0.0269308
0.0276695
0.0280706
0.0281952
0.0279492
0.0272638
0.0261643
0.0244965
0.0223644
0.0199124
0.0172686
0.0145771
0.0119872
0.00962534
0.00757611
0.00587249
0.0045018
0.00342035
0.0025743
0.00191237
0.00138227
0.000953007
0.000680641
0.00107975
0.000738141
0.000600558
0.000688322
0.000762963
0.000804958
0.000836663
0.000883234
0.000973254
0.00114203
0.00143486
0.00190344
0.00259457
0.00353703
0.0047367
0.00617994
0.00783455
0.00964156
0.0115009
0.0132649
0.0147732
0.0158309
0.016321
0.016474
0.0164594
0.0161028
0.0154635
0.0146312
0.0138509
0.013201
0.0126138
0.0121137
0.0117272
0.0114218
0.0111945
0.0110442
0.0109723
0.0109489
0.0109724
0.0110751
0.0112278
0.0114398
0.0117078
0.0120344
0.0124217
0.0128723
0.0133908
0.0139816
0.0146498
0.0154003
0.0162375
0.0171639
0.0181791
0.0192771
0.0204471
0.0216702
0.0229189
0.0241442
0.0252869
0.026275
0.0269515
0.0272306
0.0272224
0.0266016
0.0255687
0.0238258
0.0215483
0.0188945
0.0160314
0.0131571
0.0104668
0.00810701
0.00615643
0.00462127
0.0034539
0.00257816
0.00192138
0.00142269
0.00104096
0.000826366
0.00136938
0.00113683
0.000895861
0.000970427
0.00104778
0.00110569
0.00116912
0.00127209
0.001457
0.00177652
0.00229159
0.00306005
0.00411849
0.00546868
0.00707508
0.00886758
0.0107403
0.0125489
0.0141183
0.0152199
0.0157182
0.0158497
0.0157642
0.0152783
0.0144028
0.0134411
0.0125722
0.011789
0.0111224
0.0105643
0.0100926
0.00971197
0.00941034
0.00917232
0.00899296
0.00886476
0.00878638
0.00875015
0.0087407
0.00877399
0.00884436
0.00895002
0.00909321
0.00927396
0.00949681
0.00976511
0.0100856
0.0104652
0.0109137
0.0114421
0.0120624
0.0127878
0.0136313
0.0146026
0.0157079
0.0169443
0.0182995
0.019754
0.0212591
0.022759
0.02416
0.0253503
0.0260623
0.0263127
0.0260337
0.0252251
0.0234406
0.0210245
0.0181206
0.0149686
0.0118583
0.00903994
0.00668308
0.00484966
0.00350605
0.00255024
0.00187562
0.00139104
0.00103807
0.000882722
0.00147075
0.0016918
0.00126946
0.00132103
0.0014106
0.00150153
0.00162096
0.00181492
0.00214199
0.00266989
0.00346478
0.00457138
0.00599216
0.00767684
0.00952378
0.0113866
0.0130838
0.014428
0.0151131
0.0153286
0.0152982
0.0148228
0.0138795
0.0128052
0.0118252
0.010933
0.0101723
0.00951834
0.00897107
0.00851062
0.00812537
0.00780651
0.00754163
0.00732216
0.00714232
0.00699661
0.00688139
0.00679257
0.00672816
0.00669513
0.00668208
0.00668162
0.00671593
0.00677108
0.00685709
0.00697279
0.00712516
0.00731865
0.00756162
0.00786453
0.0082407
0.00870635
0.00928308
0.00999636
0.010872
0.0119312
0.0131903
0.0146701
0.0163529
0.01819
0.0201243
0.0220538
0.0238354
0.0252182
0.0258628
0.0259756
0.0254106
0.0236428
0.0210012
0.0177123
0.0141635
0.0107385
0.00775939
0.00541163
0.00371705
0.0025771
0.00182034
0.00132189
0.00100166
0.000874688
0.00142672
0.00243713
0.00172592
0.00175282
0.00186792
0.00201236
0.00221481
0.00253556
0.00304716
0.00382234
0.00491385
0.00632984
0.00801633
0.0098545
0.0116721
0.0132656
0.0143491
0.0148084
0.0148983
0.0145951
0.0137741
0.0126237
0.011515
0.0105053
0.00963185
0.00887798
0.00824169
0.00769861
0.00723929
0.00684712
0.00651309
0.00622761
0.00598294
0.00577359
0.00559533
0.0054447
0.00531845
0.00521398
0.00513035
0.00506661
0.00502071
0.00499792
0.00499013
0.00499755
0.00503259
0.00508744
0.00516884
0.00527856
0.00542215
0.00560383
0.00583052
0.00611128
0.00645854
0.00688957
0.00743002
0.00812165
0.00901529
0.0101599
0.0116142
0.0133861
0.0154701
0.0178059
0.0202614
0.0226894
0.0248127
0.0260541
0.0264792
0.0262159
0.0244301
0.0213929
0.0175963
0.0135387
0.00973964
0.00660026
0.00429401
0.00277351
0.00184331
0.00127333
0.000943941
0.000840486
0.00132637
0.00339772
0.00226857
0.00227516
0.00243557
0.00265278
0.00296345
0.00343951
0.00415916
0.00518393
0.00653183
0.00815486
0.00993091
0.0116747
0.0131656
0.0140601
0.0143844
0.0144118
0.0138807
0.0128088
0.0115987
0.010459
0.00945049
0.00857988
0.00784046
0.00721038
0.00667519
0.00621676
0.0058252
0.00548897
0.00520127
0.00495507
0.00474546
0.00456827
0.00441961
0.00429637
0.00419619
0.00411685
0.00405667
0.00401377
0.00399089
0.00398193
0.00398131
0.00400282
0.00403837
0.00409127
0.00416203
0.00425238
0.00436452
0.00450125
0.00466647
0.00486515
0.00510376
0.00539111
0.00573917
0.0061653
0.00669586
0.0073697
0.008253
0.00946783
0.0111263
0.0132812
0.0158794
0.0188236
0.021887
0.0247684
0.0266955
0.0274651
0.0274915
0.0255677
0.0220337
0.0175943
0.0129405
0.00876198
0.00551743
0.00332158
0.00201312
0.00129159
0.000905494
0.000789097
0.00121802
0.00458495
0.00290414
0.00289972
0.00311978
0.00342713
0.00386362
0.00450678
0.00542774
0.00665882
0.00816638
0.00983777
0.0114891
0.0128943
0.0136914
0.0139573
0.0138848
0.0131829
0.0119982
0.0107772
0.00961314
0.00860166
0.0077365
0.00700306
0.00638188
0.00585346
0.00540406
0.00502142
0.00469734
0.00442375
0.00419493
0.00400511
0.0038497
0.00372425
0.00362498
0.00354835
0.00349141
0.00345144
0.00342887
0.00341924
0.00341754
0.00343003
0.00345326
0.00348919
0.00353593
0.00359532
0.00366742
0.00375377
0.00385571
0.00397519
0.00411457
0.00427678
0.00446568
0.00468636
0.00494586
0.00525268
0.00561783
0.00606066
0.00661171
0.00732252
0.00827785
0.00963386
0.0116491
0.0143707
0.0177
0.0213925
0.0250693
0.0277286
0.0288685
0.0290322
0.0268898
0.022702
0.017485
0.0122057
0.00771862
0.00448024
0.00248384
0.00142089
0.000916176
0.000748974
0.00113708
0.00601234
0.00364533
0.00363162
0.0039196
0.00432702
0.00489314
0.00569172
0.00677263
0.00812477
0.00965587
0.0111956
0.0125224
0.0132771
0.0135275
0.0133818
0.0125982
0.0113805
0.0101192
0.00895148
0.00792644
0.00706318
0.00633378
0.00571966
0.00520166
0.00476529
0.00439975
0.0040958
0.00384595
0.00364294
0.00348051
0.00335256
0.00325376
0.00317917
0.00312464
0.00308666
0.00306363
0.00305296
0.00304986
0.00305515
0.00307046
0.00309428
0.00312667
0.00316829
0.00321943
0.00328134
0.00335489
0.00344156
0.00354273
0.00366003
0.00379514
0.00394985
0.0041261
0.00432608
0.00455244
0.00480895
0.00510146
0.00543952
0.00583938
0.00632455
0.00693269
0.00773837
0.00887544
0.0105943
0.0132725
0.0168928
0.0212023
0.025717
0.0290958
0.03053
0.0307379
0.0281827
0.0231268
0.0170386
0.0111978
0.00655748
0.00348409
0.00178362
0.00100165
0.000751246
0.00112884
0.00776496
0.00452086
0.0044687
0.00482372
0.00533006
0.00601241
0.0069297
0.00809911
0.0094598
0.0108665
0.0121122
0.012849
0.0130988
0.0129347
0.0121112
0.0109171
0.00962818
0.00843945
0.00740552
0.00653287
0.00580599
0.00519718
0.00469011
0.00426913
0.00392304
0.00364201
0.00341709
0.00323995
0.00310266
0.00299811
0.00291981
0.00286234
0.00282115
0.00279265
0.00277472
0.00276607
0.00276307
0.00276406
0.00277388
0.00278958
0.00281233
0.00284258
0.00288135
0.00292963
0.00298874
0.00306001
0.00314505
0.00324548
0.00336306
0.00349957
0.0036568
0.00383643
0.00403998
0.00426862
0.00452326
0.00480483
0.00511509
0.00545839
0.00584507
0.00629663
0.00685281
0.00756893
0.00857041
0.0100882
0.0125861
0.0164164
0.0213104
0.026709
0.0307493
0.0323725
0.0324924
0.02915
0.0230051
0.0160562
0.00982131
0.00527869
0.00256067
0.00124971
0.000801633
0.0011902
0.00972487
0.00549416
0.00539196
0.00580929
0.00640212
0.0071702
0.0081487
0.00931642
0.0105663
0.0117165
0.0124396
0.0126913
0.0125383
0.0117405
0.0105812
0.00928823
0.00806908
0.00701524
0.00613012
0.00539721
0.0047922
0.00429334
0.00388659
0.00355841
0.00329799
0.00309464
0.00293844
0.00282017
0.00273156
0.00266559
0.00261648
0.00257976
0.00255209
0.00253122
0.00251578
0.00250487
0.0024991
0.00249704
0.00249934
0.00250847
0.00252412
0.00254745
0.00257952
0.0026216
0.00267501
0.00274126
0.00282202
0.00291907
0.0030344
0.00317011
0.0033284
0.00351142
0.00372117
0.00395921
0.00422643
0.00452276
0.00484711
0.0051978
0.00557405
0.00597944
0.00642854
0.0069581
0.00763029
0.0085528
0.00995916
0.0123109
0.0162945
0.0217523
0.0280647
0.0326439
0.0343431
0.0340831
0.029417
0.0220846
0.0143641
0.00807438
0.00394434
0.0017909
0.000967381
0.00140641
0.0118338
0.006543
0.00637793
0.00684573
0.00750165
0.0083113
0.0092809
0.0103524
0.0113846
0.012083
0.0123322
0.0122203
0.0114889
0.0103678
0.00908182
0.00783358
0.0067453
0.00583873
0.0050932
0.00448489
0.00399077
0.00359345
0.00327915
0.00303435
0.00284704
0.00270555
0.00259948
0.00251979
0.00245909
0.00241159
0.00237307
0.00234063
0.00231249
0.00228774
0.00226609
0.00224768
0.002233
0.00222348
0.00221945
0.00221899
0.00222704
0.00224327
0.00226841
0.00230386
0.00235078
0.00241066
0.00248511
0.00257599
0.00268541
0.00281576
0.00296966
0.00314994
0.00335945
0.00360085
0.00387627
0.0041868
0.00453195
0.00490921
0.00531406
0.00574103
0.00618719
0.00665942
0.00718835
0.00784514
0.00873171
0.0100878
0.0124027
0.0165693
0.0226219
0.0298499
0.0347119
0.036315
0.0351486
0.0287407
0.0200635
0.0119548
0.00607713
0.0027459
0.00133977
0.00188407
0.0140235
0.0076408
0.00739801
0.00789744
0.00858419
0.00938267
0.0102691
0.0111556
0.0118037
0.0120441
0.0119866
0.0113401
0.0102762
0.00900108
0.00772569
0.00659213
0.0056493
0.00488188
0.0042619
0.00376538
0.00337187
0.00306516
0.00283032
0.00265301
0.00252036
0.00242076
0.00234463
0.00228437
0.00223435
0.0021907
0.00215101
0.002114
0.00207921
0.00204673
0.00201703
0.00199075
0.00196863
0.00195148
0.00194131
0.0019373
0.00193743
0.00194862
0.00196815
0.00199782
0.00203855
0.00209166
0.00215867
0.00224136
0.00234187
0.0024627
0.00260679
0.00277744
0.00297832
0.00321327
0.00348599
0.00379957
0.00415578
0.00455416
0.00499115
0.00545957
0.00594943
0.00645131
0.00696459
0.0075138
0.00817529
0.00906005
0.0104237
0.0128274
0.0173077
0.0240685
0.032196
0.03681
0.0380202
0.0351278
0.0266026
0.0169172
0.00903742
0.00417264
0.00195803
0.00258369
0.0162243
0.00875807
0.0084207
0.00892702
0.00960655
0.0103379
0.0110689
0.011641
0.0118688
0.0118311
0.0112904
0.010297
0.00904502
0.00774222
0.00655506
0.00555941
0.00475577
0.00411397
0.00360586
0.00320869
0.00290299
0.0026718
0.00249907
0.00237023
0.00227284
0.00219666
0.00213402
0.00207943
0.00202942
0.001982
0.00193633
0.00189233
0.0018504
0.00181118
0.00177542
0.00174385
0.00171721
0.00169616
0.00168174
0.00167487
0.00167293
0.00167933
0.00169524
0.00172018
0.00175546
0.00180205
0.00186133
0.00193495
0.00202492
0.00213373
0.00226434
0.00242031
0.00260579
0.00282545
0.00308435
0.00338758
0.00373957
0.00414318
0.00459835
0.00510065
0.00564023
0.00620214
0.00676996
0.00733518
0.0079177
0.00860309
0.00951205
0.010944
0.0135801
0.0186103
0.0263388
0.0349288
0.0388212
0.0393041
0.0333967
0.0229025
0.0129038
0.0061179
0.00282476
0.00345337
0.0183878
0.00986501
0.00941418
0.00989833
0.0105306
0.0111417
0.0116303
0.0118377
0.0117796
0.0113447
0.0104248
0.00920969
0.00788558
0.00663684
0.00557202
0.00471354
0.00403599
0.00350564
0.0030957
0.00278377
0.00255008
0.0023768
0.00224778
0.00214944
0.00207101
0.00200456
0.00194475
0.00188836
0.00183378
0.00178053
0.00172881
0.00167922
0.00163254
0.00158952
0.00155087
0.00151721
0.00148906
0.00146683
0.00145098
0.00144313
0.00144048
0.00144414
0.00145753
0.00147883
0.00150946
0.00155014
0.00160209
0.00166675
0.00174597
0.00184204
0.00195778
0.00209671
0.00226305
0.00246189
0.00269908
0.00298114
0.0033148
0.00370624
0.00415978
0.00467602
0.00524973
0.00586795
0.00650993
0.00715102
0.0077744
0.00839812
0.00912139
0.0100783
0.011648
0.0146801
0.0205333
0.0295896
0.0379295
0.0408485
0.0394084
0.0296888
0.0177842
0.0086697
0.00396753
0.00444004
0.0204781
0.0109337
0.0103481
0.0107797
0.0113278
0.0117528
0.0119311
0.0118595
0.0114976
0.0106604
0.00949154
0.0081578
0.00684514
0.00569471
0.00476015
0.00402812
0.00346214
0.00302898
0.00270254
0.00246005
0.00228133
0.00214863
0.00204703
0.00196496
0.00189415
0.00182919
0.00176702
0.00170627
0.00164673
0.00158882
0.00153329
0.00148094
0.00143256
0.00138877
0.00135008
0.00131686
0.00128938
0.00126785
0.00125241
0.00124467
0.00124194
0.00124437
0.0012559
0.00127439
0.0013011
0.00133663
0.001382
0.00143848
0.00150767
0.00159161
0.00169287
0.0018147
0.00196113
0.00213716
0.00234888
0.0026035
0.0029092
0.00327471
0.00370829
0.00421607
0.00479949
0.00545221
0.00615731
0.0068867
0.00760602
0.00829037
0.00896129
0.00972826
0.0107649
0.0125788
0.0162576
0.0232257
0.0338352
0.0409508
0.0425078
0.0366963
0.0237552
0.011978
0.00543538
0.00549965
0.0224129
0.0119361
0.0111969
0.0115488
0.0119693
0.0121559
0.0121079
0.0117409
0.0110002
0.00989054
0.00855981
0.0071888
0.00594049
0.00490648
0.00409668
0.0034772
0.00300825
0.00265766
0.00239928
0.00221012
0.00207033
0.00196345
0.0018768
0.00180145
0.00173173
0.00166457
0.00159871
0.00153411
0.00147133
0.00141121
0.0013546
0.00130225
0.00125472
0.00121241
0.00117556
0.00114432
0.00111875
0.00109888
0.0010847
0.00107758
0.00107506
0.00107701
0.00108708
0.00110332
0.00112673
0.00115784
0.00119752
0.00124684
0.00130718
0.00138032
0.00146851
0.00157462
0.00170232
0.00185626
0.00204225
0.00226754
0.00254084
0.00287234
0.00327308
0.00375383
0.00432283
0.0049823
0.00572409
0.00652551
0.00734838
0.00814619
0.00888809
0.00960883
0.0104255
0.0115964
0.0138261
0.0185971
0.0272615
0.0385733
0.0434414
0.0426226
0.0306568
0.0162082
0.00726113
0.00659052
0.0241197
0.012846
0.0119404
0.0121875
0.0124193
0.0124272
0.0120948
0.011451
0.010403
0.00909297
0.0076752
0.00632523
0.00516995
0.00425456
0.0035582
0.00303685
0.00265053
0.00236778
0.00216236
0.00201172
0.00189743
0.00180527
0.00172529
0.00165126
0.00157986
0.00150983
0.00144116
0.00137453
0.00131083
0.00125094
0.00119556
0.00114521
0.00110018
0.00106064
0.0010266
0.000998014
0.000974808
0.000956893
0.000944188
0.000937824
0.000935586
0.000937339
0.000946191
0.000960533
0.000981146
0.0010085
0.00104332
0.00108653
0.0011393
0.00120317
0.00128006
0.00137248
0.00148364
0.00161767
0.00177987
0.00197705
0.00221775
0.0025125
0.00287379
0.00331548
0.00385126
0.00449172
0.00523959
0.00608355
0.00699233
0.00791332
0.00878411
0.00957035
0.0103385
0.0112148
0.0126244
0.0155696
0.0219354
0.0330457
0.0430484
0.0455132
0.0379742
0.0214992
0.00949689
0.007744
0.0255563
0.0136431
0.0125587
0.0126688
0.0127528
0.0125525
0.0119814
0.0110255
0.00975368
0.00830956
0.00686396
0.00557278
0.00452225
0.00371912
0.00312296
0.00268564
0.00236796
0.00213894
0.00197279
0.00184838
0.00174946
0.00166459
0.00158657
0.00151156
0.0014381
0.00136614
0.00129639
0.00122979
0.00116723
0.0011094
0.00105676
0.00100956
0.000967854
0.000931586
0.000900622
0.000874795
0.000853936
0.000837899
0.00082656
0.000820881
0.000818898
0.000820478
0.000828263
0.000840964
0.000859174
0.00088332
0.000914022
0.000952068
0.000998471
0.00105453
0.0011219
0.00120272
0.00129977
0.00141663
0.00155798
0.00172995
0.00194043
0.0021996
0.00252015
0.00291738
0.0034085
0.00401064
0.00473682
0.00558941
0.00655153
0.0075789
0.00859873
0.0095289
0.0103378
0.0111238
0.0121283
0.0139663
0.0181685
0.0267762
0.0401155
0.0463696
0.0445433
0.0279096
0.0122198
0.00892568
0.0267021
0.0143209
0.0130468
0.0130113
0.012951
0.0125322
0.0117301
0.0105322
0.00909009
0.00756814
0.00613805
0.00492712
0.00398226
0.00328102
0.00277161
0.00240493
0.00214273
0.00195477
0.00181648
0.00170887
0.00161841
0.00153645
0.00145827
0.00138195
0.00130726
0.00123489
0.00116581
0.00110093
0.00104094
0.000986293
0.000937172
0.000893581
0.000855394
0.000822408
0.000794389
0.000771104
0.000752342
0.000737934
0.000727742
0.000722593
0.000720795
0.000722147
0.000728969
0.000740217
0.000756347
0.000777747
0.000804953
0.000838648
0.000879705
0.000929234
0.000988657
0.0010598
0.00114503
0.00124744
0.00137107
0.0015213
0.00170518
0.00193205
0.00221404
0.00256657
0.0030084
0.00356083
0.0042449
0.00507586
0.00605399
0.00715265
0.00830737
0.00941694
0.0103763
0.0111858
0.0119976
0.0132357
0.0158931
0.0222543
0.0343007
0.0460051
0.0484691
0.0354014
0.0156455
0.0102892
0.0275502
0.0148836
0.0134016
0.013227
0.0130144
0.0124288
0.0113864
0.0100017
0.00843953
0.00688495
0.00549971
0.00437866
0.00353416
0.00292301
0.00248752
0.00217906
0.00196056
0.00180294
0.0016836
0.00158615
0.00149988
0.00141869
0.00133987
0.00126286
0.00118821
0.00111689
0.00104984
0.000987811
0.000931225
0.000880255
0.000834866
0.000794881
0.000760046
0.000730073
0.000704676
0.000683594
0.000666605
0.000653538
0.000644257
0.000639477
0.000637788
0.000638851
0.000644789
0.00065474
0.000669058
0.000688096
0.000712324
0.00074234
0.000778901
0.00082297
0.000875769
0.000938864
0.00101428
0.00110466
0.00121348
0.00134537
0.00150654
0.00170527
0.00195269
0.00226344
0.00265639
0.00315468
0.00378453
0.00457125
0.0055313
0.00665946
0.00791284
0.00919833
0.0103813
0.0113464
0.012074
0.0129973
0.0146976
0.0189362
0.0285047
0.0435443
0.0500385
0.0434323
0.0200773
0.0120934
0.0281142
0.0153281
0.0136358
0.0133231
0.0129746
0.0122117
0.0109884
0.00945947
0.00782065
0.00626767
0.00494526
0.00391575
0.00316308
0.00263014
0.00225672
0.00199539
0.00181046
0.00167462
0.0015677
0.00147609
0.00139169
0.00131055
0.00123148
0.00115476
0.00108133
0.00101217
0.000948061
0.000889479
0.0008366
0.000789371
0.000747584
0.000710945
0.000679121
0.000651784
0.000628629
0.000609394
0.000593862
0.00058187
0.000573294
0.000568748
0.000567106
0.000567841
0.000572968
0.000581757
0.000594488
0.000611482
0.000633156
0.000660038
0.000692798
0.000732275
0.000779531
0.00083592
0.000903183
0.000983584
0.00108011
0.00119673
0.00133881
0.00151362
0.00173106
0.00200455
0.00235206
0.00279692
0.00336788
0.00409708
0.00501409
0.00613406
0.00743915
0.0088571
0.0102507
0.0114465
0.0123431
0.0129852
0.0141963
0.0169188
0.0240735
0.038596
0.0502597
0.0505234
0.0257777
0.0144871
0.0283962
0.0156593
0.0137604
0.0133104
0.0128527
0.0119235
0.010558
0.00892458
0.00724497
0.00571808
0.00446784
0.00352653
0.00285583
0.00238984
0.00206786
0.00184403
0.00168439
0.00156382
0.00146481
0.00137642
0.00129286
0.00121186
0.00113323
0.00105775
0.000986444
0.00092016
0.000859438
0.000804497
0.000755293
0.000711604
0.000673109
0.00063944
0.000610231
0.000585141
0.000563868
0.000546159
0.000531811
0.000520675
0.000512639
0.000508227
0.000506587
0.000506985
0.000511368
0.000519118
0.000530453
0.000545666
0.000565131
0.000589324
0.000618839
0.000654421
0.000697003
0.000747769
0.000808228
0.000880336
0.000966658
0.00107061
0.0011968
0.00135154
0.00154351
0.00178471
0.00209164
0.00248666
0.00299897
0.00366442
0.00452207
0.00560493
0.00692216
0.00843283
0.0100181
0.0114776
0.01263
0.0133364
0.0140704
0.0158962
0.0208447
0.0327076
0.0495372
0.054593
0.0333693
0.0173983
0.028381
0.0158751
0.0137862
0.0132344
0.0126365
0.0115868
0.0101135
0.0084106
0.0067186
0.00523412
0.00405921
0.00319987
0.00260107
0.00219175
0.00191191
0.00171748
0.00157659
0.00146655
0.00137251
0.00128596
0.00120297
0.00112251
0.00104504
0.000971535
0.000902933
0.000839874
0.000782653
0.000731268
0.000685505
0.000645027
0.000609441
0.000578348
0.000551371
0.000528173
0.000508468
0.000492018
0.000478636
0.000468184
0.000460563
0.000456214
0.000454545
0.000454634
0.000458335
0.000465153
0.000475256
0.000488907
0.000506448
0.000528309
0.000555027
0.00058727
0.000625871
0.000671877
0.000726613
0.000791784
0.000869612
0.000963043
0.00107605
0.00121408
0.00138467
0.0015984
0.0018701
0.00222046
0.00267773
0.00327888
0.00406859
0.00509318
0.0063856
0.00793872
0.00966943
0.011391
0.0128329
0.0137273
0.0142744
0.0154755
0.0187501
0.027861
0.0462402
0.0562962
0.0426234
0.0207293
0.0282284
0.0160126
0.013751
0.0130697
0.0123631
0.0112184
0.00966899
0.00792645
0.00624375
0.00481156
0.0037109
0.00292588
0.00238932
0.00202753
0.00178183
0.00161024
0.00148309
0.00138026
0.00128938
0.00120402
0.00112172
0.0010423
0.00096656
0.0008955
0.000829885
0.000770127
0.0007163
0.000668227
0.000625575
0.000587932
0.000554872
0.000525984
0.000500899
0.000479294
0.000460899
0.000445495
0.00043291
0.000423018
0.000415734
0.000411386
0.000409617
0.000409507
0.000412572
0.000418555
0.000427565
0.000439839
0.000455689
0.00047551
0.000499791
0.00052914
0.000564311
0.000606242
0.000656115
0.000715432
0.000786138
0.000870796
0.000972842
0.00109698
0.00124974
0.00144036
0.00168198
0.00199331
0.00240079
0.00294071
0.00366025
0.00461474
0.00585663
0.00741093
0.00923523
0.011172
0.0129286
0.01416
0.014736
0.0153908
0.017632
0.0245906
0.0410815
0.056578
0.0519988
0.0240215
0.0278893
0.0160925
0.0136554
0.0128428
0.0120471
0.0108323
0.00923484
0.00747749
0.00581997
0.00444506
0.00341489
0.002696
0.00221277
0.00189051
0.00167229
0.00151828
0.00140116
0.00130329
0.00121453
0.00113015
0.00104879
0.000970828
0.00089721
0.000828832
0.000766261
0.000709694
0.000659024
0.000613946
0.000574044
0.00053887
0.000507981
0.000480974
0.000457492
0.000437232
0.000419942
0.000405419
0.000393503
0.00038408
0.000377073
0.000372699
0.000370811
0.000370553
0.000373046
0.000378283
0.000386322
0.000397374
0.000411728
0.000429748
0.000451885
0.000478699
0.000510879
0.000549282
0.000594972
0.000649295
0.000713975
0.000791263
0.000884154
0.000996728
0.00113465
0.00130596
0.00152217
0.0018
0.0021636
0.00264738
0.00329858
0.00417753
0.00535113
0.00687303
0.00874451
0.0108579
0.0129458
0.0145448
0.0152901
0.0157181
0.0171189
0.0219164
0.0358847
0.0558128
0.0594128
0.0265101
0.0273651
0.0160921
0.0134935
0.0125722
0.0117025
0.0104397
0.00881854
0.00706641
0.00544513
0.00412891
0.00316386
0.00250299
0.00206507
0.00177547
0.00157923
0.0014387
0.00132893
0.00123454
0.00114732
0.00106392
0.000983774
0.000907571
0.000836276
0.000770631
0.000711005
0.000657409
0.000609598
0.000567175
0.000529675
0.000496632
0.000467605
0.000442203
0.000420087
0.000400973
0.000384624
0.000370852
0.00035951
0.000350489
0.000343717
0.000339315
0.000337313
0.000336924
0.000338919
0.000343489
0.000350663
0.000360629
0.000373653
0.000390071
0.000410306
0.000434876
0.000464422
0.000499732
0.000541782
0.000591795
0.000651319
0.000722357
0.000807549
0.000910459
0.00103602
0.00119122
0.00138612
0.00163551
0.00196111
0.0023948
0.00298217
0.00378524
0.0048802
0.00634319
0.00821495
0.0104406
0.0127997
0.0148552
0.0158646
0.016265
0.0169885
0.020292
0.0311524
0.0535101
0.0630981
0.0275902
0.0266819
0.0160636
0.0132968
0.0122716
0.011341
0.0100497
0.00842509
0.00669389
0.00511609
0.00385752
0.00295141
0.00234083
0.0019411
0.00167835
0.00149962
0.00136943
0.00126507
0.0011732
0.00108725
0.00100491
0.000926181
0.000851906
0.000782984
0.000719992
0.000663116
0.000612218
0.000566949
0.000526851
0.000491434
0.000460225
0.000432796
0.00040877
0.000387826
0.000369696
0.00035416
0.00034104
0.000330198
0.000321529
0.000314964
0.000310541
0.000308436
0.000307928
0.000309495
0.000313474
0.000319878
0.000328875
0.00034071
0.000355698
0.000374233
0.000396803
0.000424005
0.000456576
0.000495423
0.000541669
0.00059673
0.000662412
0.000741068
0.000835847
0.000951069
0.00109283
0.00126993
0.00149534
0.00178845
0.00217828
0.00270776
0.00343822
0.00445107
0.00583967
0.00768022
0.00997155
0.012547
0.0149998
0.0164533
0.016953
0.017266
0.019481
0.0280578
0.0494621
0.0643969
0.0277571
0.0258774
0.015994
0.0130752
0.0119523
0.0109726
0.00966888
0.00805751
0.00635927
0.00482929
0.00362566
0.00277201
0.00220456
0.00183679
0.00159599
0.00143116
0.00130892
0.0012086
0.00111866
0.00103384
0.000952663
0.000875468
0.000803171
0.000736563
0.000676058
0.000621687
0.000573196
0.00053016
0.000492083
0.000458465
0.000428836
0.000402782
0.00037994
0.000360009
0.000342734
0.000327907
0.00031536
0.00030496
0.000296606
0.00029023
0.000285803
0.000283604
0.000282988
0.00028419
0.000287645
0.000293364
0.000301496
0.000312267
0.000325973
0.000342984
0.000363758
0.000388862
0.000418987
0.000454984
0.000497904
0.000549055
0.00061009
0.000683141
0.00077102
0.000877547
0.00100807
0.00117029
0.0013756
0.00164115
0.00199307
0.00247103
0.00313393
0.0040647
0.00536802
0.00714926
0.00945985
0.0122052
0.0150413
0.0170242
0.0176913
0.0178547
0.0191355
0.025599
0.0451145
0.0644117
0.0272212
0.0249868
0.0158954
0.0128387
0.0116242
0.0106053
0.0093023
0.00771736
0.006061
0.00458091
0.00342861
0.00262097
0.00209011
0.00174886
0.00152591
0.00137211
0.00125602
0.00115878
0.00107039
0.000986651
0.000906684
0.000831069
0.000760712
0.000696284
0.000638052
0.000585922
0.000539549
0.000498458
0.000462131
0.000430064
0.000401797
0.000376929
0.000355115
0.000336065
0.000319538
0.000305335
0.000293295
0.000283289
0.000275217
0.00026901
0.000264625
0.000262327
0.000261608
0.000262502
0.000265496
0.000270606
0.000277965
0.000287784
0.000300339
0.000315979
0.000335138
0.000358352
0.000386277
0.00041972
0.000459673
0.000507361
0.000564321
0.000632509
0.000714474
0.000813634
0.000934718
0.0010845
0.00127297
0.00151529
0.00183479
0.00226767
0.0028694
0.00372185
0.0049363
0.00664037
0.00893044
0.0117783
0.0149213
0.0175072
0.0184882
0.0185934
0.0190709
0.0238591
0.0410581
0.0623745
0.026381
0.0240374
0.0157829
0.0125958
0.0112952
0.0102452
0.00895343
0.00740509
0.005797
0.00436727
0.00326213
0.00249438
0.00199417
0.00167474
0.0014662
0.00132114
0.00120983
0.00111499
0.00102791
0.00094522
0.000866488
0.000792429
0.000723909
0.00066148
0.000605286
0.00055513
0.000510604
0.000471197
0.000436379
0.000405649
0.000378558
0.000354718
0.000333796
0.000315517
0.000299647
0.000285997
0.000274408
0.000264756
0.000256942
0.000250893
0.000246564
0.000244176
0.000243363
0.000243995
0.000246587
0.000251156
0.000257827
0.000266794
0.000278316
0.000292723
0.000310425
0.000331932
0.000357872
0.000389012
0.000426297
0.00047089
0.000524236
0.000588159
0.000665001
0.00075786
0.000870967
0.00101032
0.00118471
0.00140751
0.00169947
0.00209329
0.00264039
0.0034197
0.00454511
0.00616098
0.0084041
0.0113083
0.0146622
0.0178363
0.0193068
0.0194951
0.0194869
0.02267
0.0374365
0.0594887
0.025311
0.0230375
0.0156735
0.0123565
0.0109725
0.00989735
0.00862466
0.00712046
0.00556475
0.00418492
0.00312263
0.00238895
0.00191406
0.00161235
0.00141536
0.0012772
0.00116963
0.00107672
0.000990779
0.000909115
0.000831597
0.000759022
0.000692193
0.00063156
0.000577162
0.000528727
0.000485796
0.000447838
0.000414317
0.000384739
0.000358663
0.000335714
0.000315571
0.000297966
0.000282677
0.000269516
0.000258331
0.000248997
0.000241416
0.000235516
0.000231246
0.000228779
0.000227879
0.000228292
0.000230531
0.000234622
0.000240681
0.000248888
0.000259484
0.000272782
0.000289171
0.000309138
0.000333281
0.000362338
0.000397212
0.000439017
0.00048913
0.00054927
0.000621625
0.000709044
0.000815356
0.000945918
0.00110853
0.00131497
0.00158367
0.00194397
0.00244303
0.00315554
0.00419468
0.00571557
0.00788965
0.0108175
0.0143638
0.0179875