/*--------------------------------*- C++ -*----------------------------------*\
  =========                 |
  \\      /  F ield         | OpenFOAM: The Open Source CFD Toolbox
   \\    /   O peration     | Website:  https://openfoam.org
    \\  /    A nd           | Version:  13
     \\/     M anipulation  |
\*---------------------------------------------------------------------------*/
FoamFile
{
    format      ascii;
    class       volScalarField;
    location    "5.7";
    object      k;
}
// * * * * * * * * * * * * * * * * * * * * * * * * * * * * * * * * * * * * * //

dimensions      [0 2 -2 0 0 0 0];

internalField   nonuniform List<scalar> 
6400
(
4.85069e-07
2.49027e-06
6.03068e-06
9.73586e-06
1.25602e-05
1.41681e-05
1.47696e-05
1.48395e-05
1.49234e-05
1.54626e-05
1.6788e-05
1.94151e-05
2.36104e-05
2.9472e-05
3.67332e-05
4.50053e-05
5.38808e-05
6.31597e-05
7.24593e-05
8.14877e-05
9.04745e-05
0.000100138
0.00011148
0.000125264
0.000141164
0.000157648
0.00017398
0.000190164
0.00020663
0.000223811
0.000241614
0.000259309
0.00027671
0.000293682
0.000310755
0.000328012
0.00034586
0.00036443
0.000383976
0.000404596
0.000426431
0.00044964
0.00047437
0.00050092
0.000529434
0.000560673
0.000596085
0.000638802
0.000687776
0.000734803
0.00078315
0.000829494
0.000874075
0.000914785
0.000950587
0.000979591
0.000997274
0.00100526
0.00100725
0.000992832
0.000962758
0.000917434
0.000857423
0.00078416
0.000700292
0.000609062
0.000515686
0.000423883
0.000337253
0.000258671
0.000195601
0.000142582
9.95882e-05
6.65739e-05
4.27598e-05
2.65043e-05
1.58937e-05
9.07076e-06
4.26557e-06
9.05728e-07
2.35166e-06
1.98194e-05
4.8094e-05
7.55477e-05
9.60817e-05
0.000108434
0.000114352
0.000116724
0.000118805
0.00012341
0.00013369
0.000153431
0.000183809
0.000224452
0.000273553
0.000328623
0.000387442
0.000447829
0.000507942
0.000566873
0.000626031
0.000689353
0.000762052
0.000847464
0.00094307
0.00104096
0.00113645
0.00122777
0.00131554
0.00140064
0.00148181
0.00155717
0.00162612
0.0016884
0.00174683
0.00180201
0.00185607
0.00190981
0.00196461
0.00202114
0.00208008
0.0021421
0.00220749
0.00227658
0.00234883
0.00242407
0.00250157
0.00257827
0.00265678
0.00274009
0.0028253
0.00291109
0.00299502
0.00307426
0.00314531
0.00320421
0.00324075
0.00325476
0.00325352
0.00322043
0.00315056
0.00304333
0.00289702
0.00271312
0.00249649
0.00225389
0.00199773
0.00173649
0.00147774
0.00122883
0.000989746
0.000771342
0.000580744
0.000420887
0.000293068
0.000195264
0.000124257
7.4435e-05
3.58866e-05
4.78804e-06
5.15717e-06
4.32404e-05
0.000101052
0.000150381
0.000184281
0.000204328
0.000215263
0.000222526
0.000231672
0.000248225
0.0002777
0.000324784
0.000391366
0.00047599
0.000574977
0.000684328
0.000800943
0.000922306
0.00104592
0.0011696
0.00129166
0.00141127
0.0015267
0.00163355
0.00172693
0.00180301
0.00185896
0.00189759
0.00192661
0.00195245
0.00197996
0.00200927
0.00204158
0.00207342
0.00210867
0.00214636
0.00218828
0.00223437
0.00228552
0.00234195
0.00240357
0.00247073
0.0025433
0.00262108
0.00270415
0.00279239
0.00288526
0.0029835
0.00308725
0.0031957
0.00330732
0.00342056
0.00353318
0.00364235
0.00374443
0.00383502
0.00390891
0.00395626
0.00397435
0.0039686
0.00392039
0.00382843
0.00368784
0.0034993
0.00326501
0.00298974
0.0026911
0.00237809
0.00206091
0.00175058
0.00145626
0.00118498
0.00094217
0.00073055
0.00055126
0.000403563
0.000284251
0.000185906
9.40782e-05
1.27506e-05
8.97472e-06
7.30166e-05
0.000160168
0.0002267
0.000270485
0.000297519
0.000315489
0.000332244
0.000355598
0.000393296
0.000452434
0.000537597
0.000648946
0.000782235
0.000931033
0.00108911
0.00125104
0.00141152
0.00156477
0.00170511
0.00182698
0.00192791
0.00200567
0.00205377
0.00207511
0.00208073
0.00207624
0.00207157
0.00207
0.00207253
0.00208152
0.00209335
0.00211036
0.00213173
0.00215853
0.00219008
0.00222709
0.00226945
0.00231719
0.00237043
0.00242934
0.00249405
0.00256459
0.00264087
0.00272271
0.00280976
0.00290357
0.00300372
0.00311003
0.00322191
0.00333833
0.00345796
0.00357891
0.00369866
0.00381388
0.00392047
0.0040133
0.00408686
0.00412832
0.00414182
0.00412017
0.00405542
0.00394467
0.00378937
0.0035813
0.00331934
0.00301972
0.00269233
0.00235311
0.0020167
0.00169565
0.00139946
0.00113386
0.000901376
0.000702311
0.000535212
0.000395718
0.000274356
0.000148647
2.10895e-05
1.44181e-05
0.000113032
0.000230614
0.000313649
0.000367442
0.000402817
0.000430725
0.000461767
0.000506229
0.000573711
0.000671398
0.000801551
0.000960234
0.00113884
0.00132718
0.00151557
0.00169511
0.00185723
0.00199292
0.00209758
0.00216161
0.00218804
0.00219199
0.00216526
0.00213501
0.00210763
0.00208554
0.00206947
0.00206104
0.00205766
0.00205747
0.00206274
0.00207266
0.0020867
0.00210509
0.00212738
0.00215367
0.0021836
0.00221703
0.00225415
0.00229499
0.00233983
0.00238952
0.00244455
0.00250577
0.00257402
0.00264841
0.00272971
0.00281804
0.00291364
0.00301646
0.00312616
0.0032419
0.00336239
0.00348567
0.00360913
0.00372841
0.00383841
0.00393276
0.00399856
0.00402608
0.00402493
0.00396421
0.00385012
0.00368511
0.00347035
0.00319238
0.00287228
0.00252669
0.0021742
0.0018324
0.00151561
0.00123264
0.000986978
0.000778253
0.000603618
0.000457279
0.000327209
0.000185167
2.67465e-05
2.22058e-05
0.00016649
0.00031656
0.000416925
0.000482125
0.000528093
0.000569441
0.000619813
0.000691712
0.000795153
0.000935006
0.00110873
0.00130673
0.00151533
0.00172012
0.00190776
0.00206653
0.00218871
0.00225761
0.00228179
0.00227529
0.0022325
0.00218937
0.00214712
0.00210651
0.00207106
0.00204165
0.00201754
0.00199842
0.00198294
0.00197058
0.00196355
0.00196012
0.00195903
0.00196019
0.0019646
0.00197127
0.00198055
0.00199243
0.0020073
0.00202545
0.00204743
0.00207289
0.00210257
0.0021368
0.00217621
0.0022213
0.00227314
0.00233268
0.00240097
0.00247911
0.00256814
0.00266871
0.00278105
0.00290457
0.00303752
0.00317794
0.00332192
0.00346415
0.0035963
0.00370941
0.00378181
0.00380869
0.00378732
0.00369755
0.00354679
0.00331972
0.0030266
0.0026852
0.00231856
0.0019512
0.00160531
0.00129654
0.00103206
0.000811702
0.000630762
0.00048105
0.000347988
0.000200876
2.87266e-05
3.30459e-05
0.000235341
0.000420348
0.000539367
0.00061767
0.000676679
0.000734929
0.000808887
0.000912073
0.00105264
0.00123061
0.00143702
0.00165622
0.0018699
0.00206051
0.00221317
0.00231007
0.00234886
0.00235112
0.00230678
0.00225632
0.002195
0.00213553
0.00207471
0.00202093
0.00197447
0.00193405
0.00189835
0.00186707
0.00184043
0.00181759
0.00179782
0.00178038
0.0017651
0.00175204
0.00174128
0.00173261
0.00172624
0.0017227
0.00172132
0.00172129
0.00172501
0.00173104
0.00174048
0.00175334
0.00177019
0.00179157
0.00181824
0.00185139
0.00189218
0.00194213
0.00200323
0.00207783
0.00216827
0.00227676
0.0024038
0.00254926
0.00271323
0.00289048
0.00307431
0.00325652
0.003425
0.00356238
0.00363038
0.0036461
0.00358112
0.00345106
0.00321166
0.00289157
0.00251657
0.00211802
0.00172883
0.00137647
0.00107696
0.000833255
0.000639282
0.000483043
0.000346719
0.000199664
2.78665e-05
4.76043e-05
0.000320677
0.000542733
0.000681775
0.000774786
0.000848925
0.000926527
0.00102599
0.00115994
0.0013323
0.00153653
0.00175697
0.00197275
0.00216247
0.0023087
0.00238494
0.00240729
0.00238263
0.00233045
0.0022588
0.00217783
0.00209134
0.00201465
0.00194563
0.00188749
0.00183471
0.00178743
0.00174443
0.00170562
0.00167056
0.00163873
0.00160988
0.00158383
0.0015606
0.0015402
0.00152248
0.00150726
0.00149457
0.00148436
0.0014765
0.00147129
0.0014689
0.00146825
0.00147047
0.00147593
0.00148452
0.00149687
0.0015134
0.00153442
0.00156056
0.00159257
0.00163147
0.00167857
0.00173577
0.00180613
0.00189505
0.00200906
0.00215155
0.00232642
0.00252763
0.00274891
0.00298053
0.00320574
0.00340565
0.00353002
0.00357441
0.00353983
0.00342019
0.00315553
0.00279537
0.00237349
0.00193309
0.00151757
0.00115931
0.000872021
0.000651174
0.000480889
0.00033899
0.00019315
2.59064e-05
6.63672e-05
0.00042242
0.000683254
0.00084342
0.000952269
0.00104259
0.00113993
0.00126324
0.00142223
0.00161494
0.00182791
0.00203984
0.00222685
0.00236431
0.00242809
0.0024398
0.00240109
0.00233868
0.00224636
0.00213831
0.00203708
0.00194797
0.00186915
0.00179887
0.00173654
0.0016792
0.00162722
0.00157979
0.00153699
0.00149851
0.00146424
0.00143408
0.0014079
0.00138551
0.00136666
0.00135113
0.00133868
0.00132908
0.00132203
0.00131774
0.00131585
0.00131541
0.00131734
0.00132179
0.0013286
0.00133785
0.00134972
0.0013644
0.00138213
0.00140322
0.00142806
0.00145715
0.0014911
0.00153073
0.00157717
0.00163225
0.00169909
0.00178234
0.0018914
0.00204404
0.00224673
0.00249358
0.00276352
0.00304408
0.00330537
0.00348652
0.00355809
0.00355429
0.00343221
0.00313294
0.00272037
0.00224139
0.00175454
0.00131414
0.000954866
0.000683825
0.000485194
0.000328236
0.000180534
2.37901e-05
8.95571e-05
0.000539276
0.00084019
0.00102223
0.00114717
0.00125302
0.00136769
0.0015092
0.00168286
0.00188024
0.00208195
0.00226324
0.00239407
0.00245136
0.0024581
0.00241632
0.00233703
0.002222
0.00209765
0.00198503
0.00188409
0.00179545
0.00171622
0.00164499
0.00158072
0.0015223
0.0014701
0.00142377
0.00138339
0.00134871
0.00131952
0.00129545
0.00127609
0.00126096
0.00124952
0.00124126
0.00123578
0.00123308
0.00123211
0.00123234
0.00123496
0.00123879
0.00124442
0.00125162
0.00126048
0.00127108
0.00128356
0.00129811
0.00131496
0.00133437
0.00135657
0.00138173
0.00141015
0.00144216
0.00147811
0.00151837
0.00156407
0.00161717
0.00168162
0.00176489
0.00187919
0.00204778
0.0022947
0.0025966
0.00292346
0.00324505
0.00348505
0.00358586
0.00359493
0.00346407
0.00311836
0.00264191
0.00210053
0.00156951
0.00111234
0.000760253
0.000509087
0.000328394
0.000170584
2.2209e-05
0.000117438
0.000667909
0.00101059
0.00121483
0.00135489
0.00147357
0.00160025
0.00175087
0.00192569
0.00211042
0.00228168
0.00240718
0.00246121
0.00246592
0.00242381
0.00233096
0.00219923
0.00206393
0.00193809
0.00182738
0.00172917
0.00164229
0.0015644
0.00149478
0.00143291
0.0013786
0.00133203
0.00129283
0.00126074
0.00123515
0.00121538
0.00120066
0.00119018
0.00118316
0.00117932
0.00117766
0.00117729
0.00117873
0.00118143
0.00118525
0.00119035
0.00119648
0.00120389
0.00121258
0.0012227
0.0012344
0.00124786
0.00126324
0.00128071
0.00130039
0.0013224
0.00134682
0.00137374
0.00140328
0.00143561
0.0014711
0.00150923
0.00155051
0.00159587
0.00164798
0.00171321
0.00180327
0.0019379
0.0021532
0.00247151
0.00283594
0.00321773
0.00350986
0.00363339
0.00364596
0.00349267
0.00308471
0.00253532
0.00193228
0.00136749
0.000907647
0.000571874
0.000343261
0.000170696
2.20477e-05
0.000151671
0.000803538
0.00119099
0.00141676
0.00156953
0.00169635
0.00182734
0.00197576
0.0021371
0.00229275
0.00241197
0.00246433
0.0024688
0.00242733
0.00232631
0.00218384
0.00203809
0.00190114
0.00177953
0.00167318
0.0015791
0.00149606
0.00142273
0.00135897
0.00130455
0.00125928
0.00122277
0.00119421
0.00117271
0.00115714
0.00114644
0.00113955
0.00113595
0.0011344
0.00113405
0.00113501
0.00113699
0.00113987
0.00114347
0.00114791
0.00115326
0.00115961
0.00116717
0.00117609
0.0011866
0.00119888
0.00121317
0.00122965
0.00124851
0.00126987
0.00129383
0.00132039
0.00134947
0.00138087
0.00141432
0.0014495
0.00148624
0.00152467
0.00156479
0.00160617
0.00165091
0.00170445
0.00177664
0.00188715
0.00207055
0.00238159
0.0027825
0.00321856
0.00355201
0.00368747
0.00369433
0.00349235
0.0030053
0.00237778
0.00172245
0.00114278
0.000697692
0.000389674
0.000181036
2.32458e-05
0.000189953
0.00094674
0.00137751
0.00162282
0.00178456
0.00191329
0.00203939
0.00217356
0.00230756
0.00241697
0.00246728
0.00247231
0.00243169
0.00232839
0.00217978
0.0020231
0.00187548
0.00174339
0.00162829
0.00152792
0.0014401
0.00136407
0.00129921
0.00124535
0.00120194
0.00116818
0.00114291
0.00112476
0.00111232
0.00110425
0.00109941
0.00109701
0.00109599
0.00109572
0.00109603
0.00109708
0.00109857
0.0011006
0.00110324
0.00110667
0.00111107
0.00111663
0.00112359
0.00113216
0.00114257
0.00115507
0.00116988
0.00118724
0.00120735
0.00123042
0.00125657
0.00128588
0.00131829
0.0013536
0.0013914
0.00143106
0.00147177
0.0015127
0.00155329
0.00159373
0.0016336
0.00167407
0.00171929
0.00177912
0.00187381
0.00203926
0.0023299
0.00276096
0.00324506
0.00360539
0.00374141
0.00372202
0.00343641
0.00285441
0.0021512
0.00146395
0.000895331
0.000486539
0.000212717
2.7468e-05
0.000231145
0.00109401
0.00156546
0.00182744
0.00199347
0.00211704
0.00222867
0.00233716
0.00243106
0.00247666
0.00248167
0.00244077
0.00233941
0.00218798
0.00202219
0.00186292
0.0017202
0.00159587
0.00148872
0.00139639
0.00131758
0.00125178
0.00119832
0.00115643
0.00112482
0.00110194
0.00108604
0.00107544
0.00106861
0.00106431
0.0010616
0.00105979
0.00105838
0.00105719
0.00105624
0.00105571
0.00105552
0.00105575
0.00105684
0.00105888
0.00106212
0.00106675
0.00107301
0.00108111
0.00109128
0.00110374
0.00111874
0.00113651
0.00115732
0.0011814
0.001209
0.00124031
0.00127542
0.0013143
0.00135668
0.00140201
0.00144936
0.00149741
0.00154458
0.00158937
0.00163113
0.00166959
0.00170689
0.00174696
0.00179831
0.00188337
0.00203591
0.00231555
0.0027713
0.00329773
0.00366277
0.00378391
0.00370565
0.00329888
0.00260972
0.00184773
0.00116014
0.000635474
0.000276612
3.67963e-05
0.000273914
0.00124151
0.00174996
0.00202514
0.00219039
0.00230167
0.00238992
0.00246325
0.00249958
0.00250246
0.00245864
0.0023613
0.00220977
0.00203693
0.00186596
0.00171117
0.00157679
0.00146184
0.00136428
0.00128226
0.00121484
0.00116117
0.00111996
0.00108959
0.00106805
0.00105329
0.00104337
0.00103666
0.00103189
0.00102813
0.0010248
0.00102157
0.00101832
0.00101514
0.00101217
0.00100957
0.00100751
0.00100648
0.00100618
0.00100697
0.00100942
0.00101338
0.00101917
0.00102692
0.00103684
0.00104914
0.00106403
0.00108177
0.00110262
0.00112688
0.00115487
0.00118689
0.00122324
0.0012641
0.00130953
0.00135928
0.00141272
0.00146869
0.00152538
0.00158039
0.0016311
0.00167557
0.00171371
0.00174437
0.00178017
0.00182866
0.00190782
0.00205477
0.00233564
0.00281687
0.00338016
0.00371269
0.00379532
0.00362736
0.00305052
0.0022625
0.00147382
0.000828077
0.000365316
5.04603e-05
0.000316901
0.00138544
0.00192649
0.00221112
0.00237038
0.00246308
0.00251949
0.00254377
0.00254
0.00249007
0.00239643
0.00224657
0.00206875
0.00188661
0.00171833
0.00157195
0.00144774
0.00134352
0.00125719
0.00118716
0.0011322
0.00109067
0.00106049
0.0010393
0.00102474
0.00101467
0.00100736
0.00100152
0.000996279
0.000991135
0.000985871
0.000980474
0.000975063
0.000969841
0.000965026
0.000960838
0.000957495
0.000955455
0.000954618
0.000954587
0.00095666
0.000960334
0.000965903
0.000973475
0.000983218
0.000995302
0.00100993
0.00102732
0.00104775
0.00107153
0.00109901
0.0011306
0.00116671
0.00120775
0.00125406
0.00130582
0.00136289
0.00142464
0.00148972
0.00155588
0.00161985
0.00167769
0.00172693
0.00176696
0.00178862
0.00181847
0.00186647
0.00194332
0.0020921
0.00238939
0.00290612
0.00347967
0.00374582
0.00376602
0.00343105
0.00268002
0.00181819
0.00105315
0.000472856
6.7446e-05
0.000359159
0.00152179
0.00209126
0.00238201
0.00252911
0.00259382
0.00261216
0.00259639
0.00253957
0.002448
0.00230007
0.00211906
0.00192672
0.00174392
0.00158308
0.00144722
0.0013344
0.00124202
0.00116799
0.00111045
0.0010674
0.00103637
0.00101464
0.000999551
0.000988762
0.000980433
0.000973246
0.000966373
0.000959385
0.000952146
0.000944717
0.000937279
0.000930067
0.000923331
0.000917307
0.000912208
0.000908229
0.000905749
0.000904676
0.000904519
0.000906489
0.000910168
0.00091572
0.000923251
0.000932884
0.000944766
0.000959065
0.000975985
0.000995773
0.00101873
0.00104521
0.00107564
0.0011105
0.00115035
0.00119575
0.0012472
0.00130506
0.00136934
0.00143948
0.00151399
0.0015902
0.00166398
0.0017299
0.00178442
0.00182247
0.00183857
0.00186132
0.00190953
0.0019874
0.00214594
0.0024758
0.00304079
0.00357559
0.00377661
0.00365953
0.00307122
0.00218077
0.001303
0.000593467
8.67171e-05
0.000399986
0.00164865
0.00224138
0.00253149
0.00265973
0.0026961
0.00268084
0.00261877
0.00251822
0.00237262
0.00218938
0.00198813
0.00179037
0.00161264
0.00146191
0.00133774
0.0012371
0.00115716
0.0010955
0.00104961
0.00101667
0.000993583
0.000977374
0.000965478
0.000955909
0.000947299
0.000938828
0.000930113
0.000921077
0.000911842
0.00090263
0.000893706
0.000885333
0.000877748
0.000871155
0.000865725
0.000861598
0.000859153
0.00085815
0.000858069
0.000860194
0.000864007
0.00086964
0.000877191
0.000886755
0.000898454
0.000912434
0.000928871
0.000947984
0.000970041
0.000995375
0.00102439
0.00105759
0.00109555
0.00113895
0.00118852
0.00124497
0.00130885
0.00138036
0.00145902
0.00154324
0.00162987
0.00171384
0.00178805
0.00184743
0.00187971
0.00189143
0.00190742
0.00195649
0.00203918
0.00221751
0.0026015
0.00321575
0.00364042
0.0037358
0.00340893
0.00255071
0.00157402
0.000723656
0.000107413
0.000437778
0.00176312
0.00237165
0.00265601
0.00276313
0.00277649
0.00272078
0.00261295
0.00246859
0.00228174
0.00207267
0.00186022
0.00166361
0.00149444
0.00135525
0.00124338
0.00115519
0.00108752
0.00103729
0.00100126
0.000975982
0.000958118
0.00094482
0.000933908
0.000923906
0.000913962
0.000903705
0.000893095
0.000882294
0.000871557
0.000861168
0.000851396
0.000842474
0.000834594
0.000827905
0.000822525
0.000818544
0.000816346
0.000815514
0.000815635
0.000817966
0.000821924
0.00082764
0.000835202
0.00084469
0.000856212
0.000869895
0.000885893
0.000904395
0.000925635
0.000949907
0.000977577
0.0010091
0.00104504
0.0010861
0.00113307
0.00118686
0.00124842
0.00131852
0.00139756
0.00148514
0.00157953
0.00167704
0.00177154
0.00185424
0.00191395
0.00193864
0.00194593
0.00195578
0.00200669
0.00209936
0.00231411
0.00278386
0.00340731
0.00368311
0.00359492
0.00290435
0.00186134
0.000860398
0.00012872
0.000471115
0.00186226
0.00248005
0.00275575
0.00284387
0.00283226
0.00273644
0.00258978
0.00239953
0.0021824
0.00195596
0.00173938
0.00154835
0.00138974
0.00126273
0.00116327
0.00108722
0.00103084
0.000990369
0.000961944
0.000941846
0.000926861
0.000914534
0.000903213
0.000891954
0.00088036
0.0008684
0.000856256
0.000844208
0.000832555
0.000821566
0.000811471
0.000802446
0.000794623
0.000788101
0.000782949
0.000779223
0.000777279
0.000776583
0.000776964
0.000779411
0.000783451
0.000789185
0.0007967
0.000806071
0.000817398
0.000830795
0.000846401
0.00086438
0.000884937
0.000908322
0.000934853
0.000964929
0.000999059
0.00103788
0.0010822
0.00113296
0.00119129
0.00125834
0.00133516
0.00142234
0.00151952
0.00162462
0.00173318
0.0018376
0.00192718
0.00198342
0.0019986
0.00200097
0.00200562
0.00205945
0.00217301
0.0024534
0.00302117
0.00352749
0.00365159
0.0032225
0.00215961
0.000998659
0.000151249
0.000499174
0.00194474
0.0025659
0.00283118
0.00290406
0.00286395
0.00273054
0.00254381
0.00232011
0.00208007
0.00184336
0.00162785
0.00144522
0.00129817
0.00118343
0.001096
0.00103117
0.000984566
0.000951819
0.00092875
0.000911708
0.000897859
0.00088528
0.000872862
0.000860128
0.000847022
0.000833733
0.000820552
0.000807789
0.000795718
0.000784562
0.000774486
0.000765607
0.000758005
0.000751735
0.000746834
0.000743333
0.000741564
0.000740958
0.000741489
0.000743946
0.000747963
0.000753622
0.000761009
0.000770201
0.000781296
0.000794401
0.000809644
0.000827174
0.00084717
0.000869847
0.000895478
0.000924401
0.000957056
0.000994006
0.00103598
0.00108388
0.00113886
0.00120224
0.00127547
0.00135988
0.00145625
0.00156416
0.00168101
0.00180095
0.00191392
0.00200508
0.00205049
0.00205854
0.00205537
0.00205519
0.00211714
0.00227161
0.00266104
0.00329297
0.00358557
0.00342751
0.00245838
0.00114019
0.000174329
0.000521553
0.00201053
0.00263022
0.00288422
0.00294297
0.00287446
0.00271061
0.00248643
0.00223516
0.00197875
0.00173741
0.00152665
0.00135402
0.00121883
0.00111602
0.00103979
0.00098486
0.000946237
0.000919192
0.000899537
0.000883948
0.000870111
0.000856657
0.000842957
0.000828889
0.000814622
0.000800454
0.000786703
0.000773648
0.00076151
0.000750445
0.00074056
0.000731919
0.000724563
0.000718516
0.000713798
0.000710429
0.000708717
0.000708134
0.000708664
0.000711017
0.000714902
0.000720387
0.000727562
0.000736508
0.000747323
0.000760115
0.000775004
0.00079213
0.000811653
0.000833765
0.000858697
0.000886739
0.000918261
0.000953745
0.000993818
0.0010393
0.00109127
0.00115104
0.00122024
0.0013006
0.00139377
0.00150073
0.00162089
0.00175099
0.00188373
0.00200675
0.00208825
0.00211602
0.00211666
0.00210391
0.00210529
0.00218812
0.00241539
0.00295244
0.00343243
0.00350619
0.00276161
0.0013024
0.000200959
0.000538116
0.00206025
0.0026744
0.00291663
0.0029624
0.0028684
0.00267346
0.00242111
0.00214839
0.00188124
0.00163957
0.00143594
0.0012741
0.00115059
0.00105899
0.000992819
0.000946219
0.000913775
0.000890652
0.000872907
0.000857697
0.000843264
0.000828737
0.000813865
0.00079877
0.000783738
0.000769094
0.000755129
0.000742065
0.000730056
0.0007192
0.00070955
0.000701135
0.00069397
0.000688063
0.000683426
0.000680076
0.000678297
0.000677666
0.000678054
0.0006802
0.000683857
0.000689082
0.000695969
0.000704606
0.000715093
0.000727539
0.000742065
0.000758803
0.000777905
0.000799543
0.000823922
0.000851292
0.000881965
0.000916347
0.000954971
0.000998549
0.00104803
0.00110465
0.00117
0.001246
0.00133477
0.00143822
0.00155734
0.00169098
0.00183426
0.00197702
0.00210279
0.00217051
0.00218337
0.00216456
0.00214211
0.00216241
0.00228447
0.00265488
0.00326504
0.00350931
0.00305047
0.0015078
0.000236196
0.000549132
0.00209488
0.00269941
0.00292868
0.00296199
0.00284962
0.00262704
0.0023514
0.00206263
0.00178932
0.00155044
0.0013554
0.00120452
0.00109215
0.00101078
0.000953334
0.000913476
0.000885585
0.000864957
0.000848064
0.000832602
0.000817332
0.00080179
0.000785996
0.000770209
0.000754756
0.00073994
0.000725993
0.000713073
0.000701273
0.000690642
0.000681197
0.000672943
0.000665881
0.000660014
0.000655353
0.000651917
0.000649959
0.000649216
0.000649365
0.000651219
0.00065457
0.000659468
0.000666007
0.000674281
0.000684394
0.000696459
0.000710598
0.000726944
0.000745642
0.000766855
0.00079077
0.000817607
0.000847636
0.000881201
0.000918749
0.000960885
0.00100842
0.00106247
0.0011245
0.00119642
0.00128056
0.00137947
0.00149538
0.0016292
0.00177887
0.00193738
0.0020909
0.00220293
0.00224551
0.00224639
0.00219702
0.00217284
0.00222672
0.0024401
0.00299183
0.00338036
0.00325659
0.00176395
0.000282948
0.000554639
0.00211471
0.00270633
0.00292563
0.00295128
0.00281664
0.00257377
0.00227998
0.00197989
0.00170405
0.00147012
0.00128439
0.00114423
0.0010422
0.000969932
0.000919823
0.000885232
0.000860537
0.000841347
0.00082463
0.00080861
0.000792491
0.000776116
0.000759676
0.000743491
0.000727876
0.000713082
0.000699277
0.000686558
0.000674969
0.000664524
0.000655217
0.000647042
0.000639995
0.000634079
0.000629309
0.000625709
0.000623472
0.000622526
0.000622437
0.00062392
0.000626912
0.000631433
0.000637579
0.000645448
0.000655148
0.000666797
0.000680519
0.000696451
0.000714738
0.000735538
0.000759029
0.000785413
0.000814929
0.000847874
0.000884627
0.000925697
0.000971774
0.00102381
0.00108313
0.0011515
0.00123123
0.00132515
0.00143624
0.00156691
0.00171747
0.00188397
0.0020557
0.00221326
0.00230068
0.00231818
0.00228781
0.00222544
0.00221272
0.00232882
0.00274327
0.0032618
0.00334741
0.00206409
0.000339808
0.000554343
0.00212245
0.00270181
0.00291194
0.0029265
0.00277513
0.00251623
0.00220897
0.00190153
0.00162594
0.00139834
0.00122212
0.00109213
0.000999501
0.000935145
0.000891052
0.000860449
0.000837891
0.000819408
0.000802481
0.00078581
0.000768949
0.000751958
0.000735118
0.000718757
0.000703147
0.000688479
0.000674859
0.000662337
0.00065092
0.000640598
0.000631356
0.000623182
0.000616074
0.000610041
0.000605101
0.000601289
0.000598701
0.00059747
0.000597179
0.000598242
0.00060084
0.000604953
0.000610676
0.000618109
0.000627364
0.000638564
0.000651838
0.000667325
0.000685176
0.000705549
0.00072862
0.000754581
0.000783653
0.000816099
0.000852249
0.000892532
0.000937532
0.00098806
0.00104526
0.00111072
0.00118663
0.00127583
0.00138175
0.00150787
0.00165657
0.00182694
0.00201195
0.00219576
0.00233356
0.00238412
0.00237825
0.00229521
0.00224053
0.00227621
0.00252572
0.00311513
0.00336349
0.00239631
0.000404868
0.000551363
0.00212073
0.00268676
0.00288373
0.00288977
0.00272693
0.00245644
0.00213991
0.00182845
0.00155514
0.00133464
0.00116775
0.0010472
0.000962952
0.000905333
0.000866064
0.000838399
0.000817193
0.000798944
0.000781623
0.000764327
0.000746878
0.00072947
0.000712421
0.00069603
0.000680517
0.000666012
0.000652573
0.000640211
0.000628909
0.000618646
0.000609403
0.000601168
0.000593944
0.000587745
0.000582594
0.00057853
0.000575599
0.000574041
0.000573537
0.000574175
0.000576362
0.000580053
0.000585336
0.000592313
0.0006011
0.000611822
0.000624615
0.000639624
0.000657004
0.000676919
0.000699548
0.00072508
0.00075373
0.000785738
0.0008214
0.000861086
0.00090529
0.000954699
0.00101029
0.00107345
0.00114616
0.00123113
0.0013319
0.00145258
0.001597
0.00176686
0.00195858
0.00215953
0.00234487
0.0024435
0.00246034
0.00240158
0.00229093
0.00226319
0.00240043
0.00289752
0.00326713
0.00271349
0.000469174
0.00054474
0.00211275
0.00265856
0.00284547
0.00284482
0.00267402
0.00239601
0.00207391
0.00176113
0.00149154
0.00127845
0.00112044
0.00100849
0.00093159
0.000879613
0.000844145
0.000818589
0.000798179
0.000779884
0.000762109
0.000744274
0.00072639
0.000708724
0.000691595
0.000675258
0.000659878
0.000645534
0.000632243
0.000619992
0.00060875
0.000598491
0.000589195
0.000580857
0.000573483
0.000567091
0.00056171
0.000557379
0.000554143
0.000552229
0.000551502
0.000551738
0.000553511
0.000556778
0.000561615
0.000568126
0.000576429
0.000586651
0.000598934
0.00061343
0.0006303
0.000649717
0.000671865
0.00069694
0.000725153
0.000756739
0.000791969
0.000831171
0.000874774
0.000923357
0.000977749
0.00103915
0.0011093
0.0011907
0.0012868
0.00140198
0.00154111
0.0017081
0.00190302
0.00211796
0.00233277
0.00248507
0.00253274
0.00250679
0.00237073
0.00228769
0.00233803
0.00271839
0.00314843
0.00295045
0.000517785
0.000534501
0.00209575
0.00262191
0.0028002
0.00279342
0.00261806
0.00233619
0.00201175
0.00169981
0.00143486
0.00122916
0.00107942
0.000975163
0.000904609
0.000857292
0.000824774
0.000800698
0.000780708
0.000762215
0.000743997
0.000725724
0.000707531
0.000689723
0.000672591
0.000656346
0.000641099
0.00062689
0.000613706
0.000601518
0.000590289
0.000579993
0.000570613
0.000562148
0.000554609
0.000548019
0.000542411
0.000537827
0.000534313
0.000532037
0.000531049
0.000530963
0.000532327
0.000535175
0.00053957
0.000545613
0.000553422
0.000563129
0.000574879
0.00058883
0.000605152
0.000624026
0.000645647
0.000670219
0.00069796
0.000729105
0.000763914
0.00080269
0.000845811
0.000893775
0.000947284
0.00100736
0.00107552
0.00115399
0.001246
0.00135593
0.00148918
0.00165118
0.00184485
0.00206629
0.00229936
0.00250361
0.00259691
0.00260187
0.00248514
0.00233319
0.00231185
0.00255504
0.0030365
0.00305982
0.000538886
0.000521156
0.00207224
0.00257874
0.00274922
0.00273749
0.00256042
0.00227791
0.0019539
0.00164449
0.00138476
0.00118617
0.00104395
0.000946489
0.000881347
0.000837833
0.000807577
0.000784515
0.000764698
0.000745938
0.000727322
0.000708704
0.000690301
0.000672422
0.000655327
0.000639178
0.000624046
0.000609936
0.000596819
0.000584655
0.000573406
0.000563046
0.000553566
0.000544967
0.000537266
0.000530489
0.000524672
0.000519858
0.000516099
0.000513473
0.00051218
0.000511867
0.000512833
0.000515277
0.000519241
0.000524821
0.000532136
0.000541318
0.000552517
0.000565896
0.000581634
0.000599923
0.000620968
0.000644986
0.000672205
0.000702869
0.000737237
0.0007756
0.000818303
0.000865783
0.000918637
0.000977736
0.00104438
0.00112053
0.00120912
0.00131437
0.00144188
0.00159815
0.00178866
0.00201374
0.00226247
0.00250632
0.0026542
0.00268693
0.00260681
0.00239926
0.00230868
0.00242924
0.0029334
0.00308994
0.000542147
0.000505441
0.00204433
0.00253069
0.00269393
0.0026786
0.00250224
0.00222188
0.00190062
0.00159507
0.00134083
0.00114889
0.00101341
0.000921847
0.000861264
0.000820822
0.000792283
0.000769896
0.0007501
0.000731055
0.000712093
0.000693207
0.000674659
0.00065675
0.000639702
0.000623637
0.000608591
0.000594546
0.000581462
0.000569293
0.000558003
0.000547569
0.000537985
0.000529259
0.000521409
0.000514464
0.00050846
0.00050344
0.000499452
0.000496549
0.000494951
0.000494431
0.000495035
0.000497095
0.000500644
0.000505773
0.000512598
0.000521253
0.000531891
0.00054468
0.000559806
0.000577471
0.000597893
0.000621304
0.000647946
0.000678077
0.000711963
0.000749896
0.000792201
0.000839273
0.000891631
0.000950014
0.00101553
0.00108988
0.00117568
0.00127685
0.00139892
0.00154894
0.00173415
0.00195843
0.00221604
0.00248468
0.00269221
0.00276127
0.00272033
0.00251152
0.00234797
0.00236935
0.00277838
0.00306285
0.00053168
0.000488046
0.00201373
0.00247931
0.00263569
0.00261801
0.00244443
0.00216857
0.00185201
0.00155133
0.00130264
0.00111678
0.000987228
0.000900713
0.000843923
0.00080594
0.00077869
0.000756739
0.000736874
0.00071755
0.000698294
0.000679196
0.000660545
0.000642621
0.000625614
0.000609611
0.000594621
0.000580612
0.000567535
0.000555342
0.000544001
0.000533492
0.000523813
0.000514974
0.000506996
0.000499908
0.000493745
0.000488548
0.000484361
0.000481232
0.000479348
0.000478633
0.000478916
0.000480619
0.000483774
0.000488467
0.000494813
0.000502945
0.000513018
0.000525204
0.000539697
0.000556708
0.000576467
0.000599221
0.000625232
0.000654772
0.000688125
0.000725589
0.000767487
0.000814186
0.000866147
0.000924004
0.000988698
0.00106169
0.00114528
0.00124304
0.00136025
0.00150418
0.00168335
0.00190461
0.00216681
0.00245195
0.00270996
0.00282785
0.00282544
0.0026349
0.00239028
0.00234667
0.00265018
0.00300156
0.000515266
0.000469501
0.00198117
0.00242579
0.00257567
0.00255678
0.00238768
0.00211829
0.00180804
0.00151299
0.00126977
0.00108939
0.000964917
0.000882649
0.000828971
0.000792936
0.000766645
0.000744962
0.000724979
0.000705394
0.000685888
0.000666618
0.000647884
0.000629946
0.000612964
0.000596998
0.000582038
0.00056804
0.000554953
0.000542728
0.000531335
0.000520759
0.000510999
0.000502067
0.000493985
0.000486782
0.00048049
0.000475148
0.000470796
0.000467479
0.000465335