/*--------------------------------*- C++ -*----------------------------------*\
  =========                 |
  \\      /  F ield         | OpenFOAM: The Open Source CFD Toolbox
   \\    /   O peration     | Website:  https://openfoam.org
    \\  /    A nd           | Version:  13
     \\/     M anipulation  |
\*---------------------------------------------------------------------------*/
FoamFile
{
    format      ascii;
    class       volScalarField;
    location    "5.7";
    object      nut;
}
// * * * * * * * * * * * * * * * * * * * * * * * * * * * * * * * * * * * * * //

dimensions      [0 2 -1 0 0 0 0];

internalField   nonuniform List<scalar> 
6400
(
8.52736e-10
4.37783e-09
1.06018e-08
1.71154e-08
2.20804e-08
2.4907e-08
2.59644e-08
2.60871e-08
2.62346e-08
2.71823e-08
2.95122e-08
3.41303e-08
4.15054e-08
5.18095e-08
6.45738e-08
7.91152e-08
9.47171e-08
1.11028e-07
1.27375e-07
1.43245e-07
1.59043e-07
1.7603e-07
1.95968e-07
2.20199e-07
2.4815e-07
2.77125e-07
3.05835e-07
3.34284e-07
3.63228e-07
3.93432e-07
4.24726e-07
4.55831e-07
4.86421e-07
5.16256e-07
5.46267e-07
5.76603e-07
6.07979e-07
6.40622e-07
6.74983e-07
7.1123e-07
7.49614e-07
7.90414e-07
8.33887e-07
8.80558e-07
9.30684e-07
9.856e-07
1.04785e-06
1.12295e-06
1.20904e-06
1.29171e-06
1.37669e-06
1.45816e-06
1.53653e-06
1.60809e-06
1.67102e-06
1.722e-06
1.75308e-06
1.76713e-06
1.77062e-06
1.74527e-06
1.6924e-06
1.61272e-06
1.50722e-06
1.37843e-06
1.23101e-06
1.07064e-06
9.06493e-07
7.45117e-07
5.92834e-07
4.54701e-07
3.43833e-07
2.50635e-07
1.75058e-07
1.17025e-07
7.51639e-08
4.65897e-08
2.79381e-08
1.59448e-08
7.49813e-09
1.59211e-09
4.13413e-09
2.9521e-07
1.06296e-06
1.80444e-06
2.35938e-06
2.68914e-06
2.8416e-06
2.89498e-06
2.92941e-06
3.00143e-06
3.18117e-06
3.53588e-06
4.03948e-06
4.63447e-06
5.26077e-06
5.85531e-06
6.374e-06
6.77286e-06
7.03292e-06
7.16325e-06
7.22819e-06
7.29944e-06
7.44009e-06
7.6885e-06
8.00261e-06
8.24975e-06
8.45613e-06
8.68154e-06
8.97021e-06
9.35897e-06
9.87076e-06
1.04313e-05
1.1045e-05
1.16742e-05
1.23399e-05
1.30277e-05
1.37469e-05
1.44928e-05
1.52706e-05
1.60793e-05
1.69138e-05
1.77764e-05
1.86611e-05
1.95963e-05
2.05596e-05
2.15267e-05
2.24614e-05
2.33244e-05
2.41439e-05
2.50177e-05
2.58857e-05
2.67601e-05
2.76155e-05
2.84369e-05
2.92001e-05
2.99365e-05
3.04784e-05
3.07622e-05
3.1047e-05
3.10948e-05
3.08379e-05
3.0262e-05
2.93735e-05
2.81313e-05
2.65507e-05
2.46581e-05
2.25702e-05
2.03093e-05
1.79026e-05
1.53761e-05
1.25198e-05
9.72642e-06
7.24338e-06
5.18544e-06
3.58873e-06
2.42683e-06
1.61096e-06
1.03144e-06
4.63151e-07
8.41657e-09
9.06612e-09
7.72079e-07
3.14676e-06
5.51403e-06
7.3434e-06
8.53777e-06
9.21018e-06
9.54805e-06
9.75087e-06
9.99377e-06
1.03991e-05
1.10511e-05
1.19276e-05
1.29332e-05
1.39444e-05
1.48427e-05
1.55785e-05
1.61263e-05
1.64829e-05
1.6661e-05
1.66806e-05
1.66193e-05
1.65608e-05
1.65479e-05
1.66123e-05
1.68297e-05
1.71537e-05
1.74609e-05
1.77924e-05
1.81396e-05
1.85584e-05
1.91366e-05
2.00453e-05
2.09851e-05
2.20553e-05
2.31861e-05
2.43976e-05
2.56487e-05
2.69385e-05
2.83103e-05
2.96876e-05
3.10781e-05
3.248e-05
3.3816e-05
3.50954e-05
3.63308e-05
3.75393e-05
3.8743e-05
3.99536e-05
4.11742e-05
4.23862e-05
4.35855e-05
4.47547e-05
4.5877e-05
4.69279e-05
4.78769e-05
4.86681e-05
4.92937e-05
4.95923e-05
4.98302e-05
4.97418e-05
4.93432e-05
4.86178e-05
4.74186e-05
4.56864e-05
4.33591e-05
4.06765e-05
3.76367e-05
3.42454e-05
3.05538e-05
2.65877e-05
2.24785e-05
1.8422e-05
1.46247e-05
1.12684e-05
8.42883e-06
6.16083e-06
4.21527e-06
1.74386e-06
2.24136e-08
1.57773e-08
1.27143e-06
4.97973e-06
8.57628e-06
1.13762e-05
1.33056e-05
1.45051e-05
1.5185e-05
1.55992e-05
1.59603e-05
1.6463e-05
1.7228e-05
1.82348e-05
1.93447e-05
2.03934e-05
2.1269e-05
2.19073e-05
2.23017e-05
2.2478e-05
2.24904e-05
2.24004e-05
2.23097e-05
2.22876e-05
2.23806e-05
2.24366e-05
2.24493e-05
2.23503e-05
2.26413e-05
2.32766e-05
2.41461e-05
2.53709e-05
2.65336e-05
2.77151e-05
2.89341e-05
3.02163e-05
3.14894e-05
3.2753e-05
3.40676e-05
3.53667e-05
3.66202e-05
3.78517e-05
3.90525e-05
4.02219e-05
4.13473e-05
4.24341e-05
4.34746e-05
4.45203e-05
4.55635e-05
4.66065e-05
4.76447e-05
4.86699e-05
4.96741e-05
5.06445e-05
5.15663e-05
5.24199e-05
5.31824e-05
5.38266e-05
5.43276e-05
5.46433e-05
5.47584e-05
5.46643e-05
5.42909e-05
5.35249e-05
5.27562e-05
5.16138e-05
4.97992e-05
4.75246e-05
4.47538e-05
4.15729e-05
3.80285e-05
3.41561e-05
3.00153e-05
2.57027e-05
2.13789e-05
1.72442e-05
1.3481e-05
1.01958e-05
7.10844e-06
2.92172e-06
3.70722e-08
2.53466e-08
1.91465e-06
6.95382e-06
1.16045e-05
1.50955e-05
1.74545e-05
1.89046e-05
1.9718e-05
2.01956e-05
2.06453e-05
2.13139e-05
2.22864e-05
2.34616e-05
2.46429e-05
2.56517e-05
2.63863e-05
2.6822e-05
2.69926e-05
2.69474e-05
2.68045e-05
2.6564e-05
2.64002e-05
2.62494e-05
2.56359e-05
2.54765e-05
2.58537e-05
2.67547e-05
2.78279e-05
2.89607e-05
3.02094e-05
3.14508e-05
3.26541e-05
3.38504e-05
3.50073e-05
3.6112e-05
3.71223e-05
3.81269e-05
3.91101e-05
3.99428e-05
4.07297e-05
4.14368e-05
4.20859e-05
4.27009e-05
4.32972e-05
4.39002e-05
4.45306e-05
4.515e-05
4.57765e-05
4.64096e-05
4.70539e-05
4.77112e-05
4.83832e-05
4.90682e-05
4.97629e-05
5.04604e-05
5.1151e-05
5.18176e-05
5.24382e-05
5.29779e-05
5.33907e-05
5.35736e-05
5.35589e-05
5.31676e-05
5.21772e-05
5.12974e-05
5.0301e-05
4.85439e-05
4.63153e-05
4.36702e-05
4.06467e-05
3.72755e-05
3.35805e-05
2.95906e-05
2.53833e-05
2.11434e-05
1.70669e-05
1.3228e-05
9.25674e-06
3.73418e-06
4.70167e-08
3.9037e-08
2.78469e-06
9.29376e-06
1.49309e-05
1.89203e-05
2.14686e-05
2.29415e-05
2.37303e-05
2.42395e-05
2.48317e-05
2.57124e-05
2.68631e-05
2.81015e-05
2.92095e-05
3.003e-05
3.04982e-05
3.06281e-05
3.05377e-05
3.0139e-05
2.98119e-05
2.93965e-05
2.84548e-05
2.82362e-05
2.88077e-05
2.97123e-05
3.07057e-05
3.18221e-05
3.29373e-05
3.40232e-05
3.50637e-05
3.59851e-05
3.6874e-05
3.7699e-05
3.8408e-05
3.90097e-05
3.95349e-05
3.99685e-05
4.03894e-05
4.07204e-05
4.10017e-05
4.12536e-05
4.14901e-05
4.16993e-05
4.18952e-05
4.20817e-05
4.2261e-05
4.24337e-05
4.26109e-05
4.28003e-05
4.30112e-05
4.32554e-05
4.35457e-05
4.38948e-05
4.43143e-05
4.48108e-05
4.53777e-05
4.6013e-05
4.67172e-05
4.74551e-05
4.81791e-05
4.88505e-05
4.93888e-05
4.96169e-05
4.95872e-05
4.87795e-05
4.82998e-05
4.71758e-05
4.5497e-05
4.33525e-05
4.07997e-05
3.79038e-05
3.47043e-05
3.11966e-05
2.73421e-05
2.32517e-05
1.9091e-05
1.49721e-05
1.04989e-05
4.11409e-06
5.04976e-08
5.80936e-08
3.92662e-06
1.20378e-05
1.85613e-05
2.28676e-05
2.54236e-05
2.6784e-05
2.74916e-05
2.8042e-05
2.87825e-05
2.9815e-05
3.10157e-05
3.21587e-05
3.30423e-05
3.35581e-05
3.3693e-05
3.32878e-05
3.28553e-05
3.24556e-05
3.13053e-05
3.09112e-05
3.12419e-05
3.20528e-05
3.27604e-05
3.36206e-05
3.44925e-05
3.53686e-05
3.61535e-05
3.6864e-05
3.7518e-05
3.8087e-05
3.85717e-05
3.89611e-05
3.92591e-05
3.94861e-05
3.96554e-05
3.9775e-05
3.98608e-05
3.98938e-05
3.99077e-05
3.99089e-05
3.98767e-05
3.98288e-05
3.97593e-05
3.96798e-05
3.9581e-05
3.94711e-05
3.93488e-05
3.92251e-05
3.91022e-05
3.89908e-05
3.89057e-05
3.88705e-05
3.89187e-05
3.91016e-05
3.9426e-05
3.98693e-05
4.05156e-05
4.13379e-05
4.22687e-05
4.3278e-05
4.42936e-05
4.52906e-05
4.58639e-05
4.60609e-05
4.5422e-05
4.53367e-05
4.42036e-05
4.2485e-05
4.02431e-05
3.75975e-05
3.46671e-05
3.151e-05
2.80828e-05
2.42475e-05
2.02058e-05
1.58862e-05
1.08013e-05
4.10195e-06
4.89857e-08
8.36866e-08
5.36238e-06
1.51243e-05
2.23958e-05
2.68473e-05
2.92849e-05
3.04708e-05
3.1091e-05
3.168e-05
3.25104e-05
3.35685e-05
3.46573e-05
3.55427e-05
3.60575e-05
3.61618e-05
3.56757e-05
3.52204e-05
3.42941e-05
3.34901e-05
3.33376e-05
3.38147e-05
3.41842e-05
3.47721e-05
3.53716e-05
3.61158e-05
3.6759e-05
3.73498e-05
3.78317e-05
3.82386e-05
3.85638e-05
3.88094e-05
3.89866e-05
3.91031e-05
3.9174e-05
3.92125e-05
3.92248e-05
3.92146e-05
3.91858e-05
3.91382e-05
3.90792e-05
3.89808e-05
3.89148e-05
3.88227e-05
3.86692e-05
3.85366e-05
3.83725e-05
3.8203e-05
3.80171e-05
3.78135e-05
3.7592e-05
3.73513e-05
3.70908e-05
3.68067e-05
3.64952e-05
3.6149e-05
3.58511e-05
3.57552e-05
3.58719e-05
3.63885e-05
3.71687e-05
3.81945e-05
3.94603e-05
4.07641e-05
4.20695e-05
4.30448e-05
4.34257e-05
4.30171e-05
4.30941e-05
4.18908e-05
3.99667e-05
3.7449e-05
3.45306e-05
3.14037e-05
2.81693e-05
2.46755e-05
2.07032e-05
1.63452e-05
1.09565e-05
3.99487e-06
4.55401e-08
1.16671e-07
7.07913e-06
1.8467e-05
2.62864e-05
3.07652e-05
3.30118e-05
3.40017e-05
3.45308e-05
3.51177e-05
3.5935e-05
3.68754e-05
3.77092e-05
3.82276e-05
3.82129e-05
3.77385e-05
3.72444e-05
3.60033e-05
3.54629e-05
3.54563e-05
3.54794e-05
3.57083e-05
3.61371e-05
3.66479e-05
3.7145e-05
3.76405e-05
3.80177e-05
3.83328e-05
3.85595e-05
3.87342e-05
3.88556e-05
3.8942e-05
3.90039e-05
3.90514e-05
3.90912e-05
3.91254e-05
3.91544e-05
3.91769e-05
3.91901e-05
3.91899e-05
3.91593e-05
3.91345e-05
3.91143e-05
3.90184e-05
3.89367e-05
3.88302e-05
3.87037e-05
3.85566e-05
3.83874e-05
3.81951e-05
3.79758e-05
3.77257e-05
3.74421e-05
3.71175e-05
3.67444e-05
3.63117e-05
3.58104e-05
3.52552e-05
3.46428e-05
3.40064e-05
3.37965e-05
3.42065e-05
3.52417e-05
3.65144e-05
3.81039e-05
3.96995e-05
4.09817e-05
4.14854e-05
4.13571e-05
4.14666e-05
4.00921e-05
3.78552e-05
3.49403e-05
3.16204e-05
2.81701e-05
2.47049e-05
2.09056e-05
1.64039e-05
1.07085e-05
3.71733e-06
4.18197e-08
1.57437e-07
9.01256e-06
2.19099e-05
3.01449e-05
3.45595e-05
3.65733e-05
3.73551e-05
3.77673e-05
3.82772e-05
3.89618e-05
3.96538e-05
4.01252e-05
4.00055e-05
3.95011e-05
3.89621e-05
3.78453e-05
3.72874e-05
3.7035e-05
3.67453e-05
3.68903e-05
3.71419e-05
3.75011e-05
3.78531e-05
3.81612e-05
3.84184e-05
3.85941e-05
3.87358e-05
3.88391e-05
3.89352e-05
3.90259e-05
3.91252e-05
3.92338e-05
3.93521e-05
3.94764e-05
3.96008e-05
3.97163e-05
3.9822e-05
3.99093e-05
3.99587e-05
3.99939e-05
4.00172e-05
3.99955e-05
3.99439e-05
3.98734e-05
3.97721e-05
3.96484e-05
3.9501e-05
3.93336e-05
3.91479e-05
3.89468e-05
3.87266e-05
3.8477e-05
3.81891e-05
3.78464e-05
3.74349e-05
3.69341e-05
3.63275e-05
3.55991e-05
3.47566e-05
3.38657e-05
3.29901e-05
3.23978e-05
3.29775e-05
3.4283e-05
3.59564e-05
3.78044e-05
3.94215e-05
4.00872e-05
4.00631e-05
4.01633e-05
3.85506e-05
3.59262e-05
3.25339e-05
2.87232e-05
2.48549e-05
2.09428e-05
1.64159e-05
1.05939e-05
3.49664e-06
3.90399e-08
2.0645e-07
1.10139e-05
2.53102e-05
3.38869e-05
3.81824e-05
3.99389e-05
4.04926e-05
4.07376e-05
4.10774e-05
4.15136e-05
4.18509e-05
4.16459e-05
4.10618e-05
4.0456e-05
3.95117e-05
3.88153e-05
3.82493e-05
3.78867e-05
3.77655e-05
3.79161e-05
3.80992e-05
3.83247e-05
3.85095e-05
3.86595e-05
3.87785e-05
3.8877e-05
3.89878e-05
3.91129e-05
3.92685e-05
3.9449e-05
3.96544e-05
3.98745e-05
4.01009e-05
4.03211e-05
4.05525e-05
4.0742e-05
4.0859e-05
4.10005e-05
4.11174e-05
4.11774e-05
4.12128e-05
4.12072e-05
4.11713e-05
4.11037e-05
4.10044e-05
4.08766e-05
4.07209e-05
4.05393e-05
4.03326e-05
4.01015e-05
3.9846e-05
3.95658e-05
3.92609e-05
3.89302e-05
3.85714e-05
3.81797e-05
3.76872e-05
3.70532e-05
3.62416e-05
3.52568e-05
3.41363e-05
3.29743e-05
3.1903e-05
3.14384e-05
3.25437e-05
3.41391e-05
3.62345e-05
3.81059e-05
3.89171e-05
3.89216e-05
3.8956e-05
3.70302e-05
3.39527e-05
3.0009e-05
2.56656e-05
2.12808e-05
1.65021e-05
1.05871e-05
3.49066e-06
3.87559e-08
2.66629e-07
1.28539e-05
2.85677e-05
3.745e-05
4.15958e-05
4.30751e-05
4.33678e-05
4.33786e-05
4.34519e-05
4.35378e-05
4.3228e-05
4.25371e-05
4.18778e-05
4.09964e-05
4.0215e-05
3.93164e-05
3.88278e-05
3.85439e-05
3.84855e-05
3.85678e-05
3.8653e-05
3.87588e-05
3.88422e-05
3.89335e-05
3.90425e-05
3.91872e-05
3.93799e-05
3.96157e-05
3.98921e-05
4.01944e-05
4.05123e-05
4.08308e-05
4.11654e-05
4.14724e-05
4.17149e-05
4.19158e-05
4.2108e-05
4.23062e-05
4.24236e-05
4.25127e-05
4.25625e-05
4.25746e-05
4.25513e-05
4.24925e-05
4.23995e-05
4.2274e-05
4.21171e-05
4.19304e-05
4.17149e-05
4.14714e-05
4.11999e-05
4.08996e-05
4.05686e-05
4.02035e-05
3.98003e-05
3.93551e-05
3.88657e-05
3.83292e-05
3.77021e-05
3.68738e-05
3.5795e-05
3.45444e-05
3.31465e-05
3.17719e-05
3.06565e-05
3.10957e-05
3.2698e-05
3.49067e-05
3.69281e-05
3.78027e-05
3.78035e-05
3.76565e-05
3.53343e-05
3.16915e-05
2.71872e-05
2.22659e-05
1.71087e-05
1.09354e-05
3.67955e-06
4.08612e-08
3.33925e-07
1.46826e-05
3.16726e-05
4.08001e-05
4.47692e-05
4.59486e-05
4.59363e-05
4.56391e-05
4.5355e-05
4.48733e-05
4.40427e-05
4.33455e-05
4.24441e-05
4.15594e-05
4.04143e-05
3.96593e-05
3.92324e-05
3.89934e-05
3.89256e-05
3.89293e-05
3.89484e-05
3.90052e-05
3.9087e-05
3.92257e-05
3.94237e-05
3.96871e-05
4.00082e-05
4.03724e-05
4.07657e-05
4.11704e-05
4.1576e-05
4.19838e-05
4.23605e-05
4.26885e-05
4.29749e-05
4.3245e-05
4.34623e-05
4.3659e-05
4.38288e-05
4.39409e-05
4.40163e-05
4.40509e-05
4.40472e-05
4.40038e-05
4.39224e-05
4.38034e-05
4.36482e-05
4.34583e-05
4.32353e-05
4.29807e-05
4.26956e-05
4.23801e-05
4.20328e-05
4.16501e-05
4.12261e-05
4.07525e-05
4.02199e-05
3.96213e-05
3.89562e-05
3.82304e-05
3.73613e-05
3.62493e-05
3.48659e-05
3.33076e-05
3.17302e-05
3.04015e-05
2.99829e-05
3.15397e-05
3.37698e-05
3.58381e-05
3.66838e-05
3.65815e-05
3.61289e-05
3.32037e-05
2.89952e-05
2.38882e-05
1.82909e-05
1.18962e-05
4.2097e-06
4.82818e-08
4.06337e-07
1.64631e-05
3.45815e-05
4.39044e-05
4.76768e-05
4.85323e-05
4.81662e-05
4.74872e-05
4.67214e-05
4.56876e-05
4.49457e-05
4.38746e-05
4.28723e-05
4.15566e-05
4.05242e-05
3.9872e-05
3.94821e-05
3.92573e-05
3.91633e-05
3.91298e-05
3.91509e-05
3.92453e-05
3.94116e-05
3.96657e-05
3.99958e-05
4.03927e-05
4.08367e-05
4.13091e-05
4.17933e-05
4.22744e-05
4.2742e-05
4.3187e-05
4.35956e-05
4.39682e-05
4.43092e-05
4.46273e-05
4.49038e-05
4.51164e-05
4.52911e-05
4.54756e-05
4.55889e-05
4.56548e-05
4.56805e-05
4.56594e-05
4.55937e-05
4.54824e-05
4.53268e-05
4.51281e-05
4.48886e-05
4.46111e-05
4.42986e-05
4.39541e-05
4.35793e-05
4.31741e-05
4.27349e-05
4.22536e-05
4.17168e-05
4.11068e-05
4.04052e-05
3.96007e-05
3.87016e-05
3.76728e-05
3.64776e-05
3.50112e-05
3.33327e-05
3.16459e-05
3.00777e-05
2.91236e-05
3.05549e-05
3.27892e-05
3.47843e-05
3.54845e-05
3.51611e-05
3.40784e-05
3.05509e-05
2.57027e-05
1.99326e-05
1.32359e-05
5.1399e-06
6.46774e-08
4.8152e-07
1.81554e-05
3.72549e-05
4.67378e-05
5.0302e-05
5.08163e-05
5.00582e-05
4.89517e-05
4.76387e-05
4.67955e-05
4.53875e-05
4.42513e-05
4.27664e-05
4.1486e-05
4.05611e-05
3.99765e-05
3.96092e-05
3.93961e-05
3.93046e-05
3.92993e-05
3.93922e-05
3.95895e-05
3.98854e-05
4.02746e-05
4.07344e-05
4.12461e-05
4.17871e-05
4.234e-05
4.28901e-05
4.34265e-05
4.39415e-05
4.44295e-05
4.48867e-05
4.53145e-05
4.57127e-05
4.60788e-05
4.64063e-05
4.67187e-05
4.69347e-05
4.71064e-05
4.73326e-05
4.74311e-05
4.74981e-05
4.75071e-05
4.74619e-05
4.73603e-05
4.72024e-05
4.69892e-05
4.67229e-05
4.64072e-05
4.60468e-05
4.56477e-05
4.52159e-05
4.47569e-05
4.42736e-05
4.37646e-05
4.32217e-05
4.26278e-05
4.19561e-05
4.11728e-05
4.02463e-05
3.91671e-05
3.79508e-05
3.64468e-05
3.48868e-05
3.32184e-05
3.14266e-05
2.96232e-05
2.8367e-05
2.96707e-05
3.19385e-05
3.37019e-05
3.40976e-05
3.37112e-05
3.14823e-05
2.72328e-05
2.16315e-05
1.47901e-05
6.13425e-06
8.86953e-08
5.57088e-07
1.97248e-05
3.96667e-05
4.92901e-05
5.26393e-05
5.28159e-05
5.16134e-05
5.00271e-05
4.89218e-05
4.71673e-05
4.57786e-05
4.41135e-05
4.25843e-05
4.13752e-05
4.05396e-05
4.00028e-05
3.96647e-05
3.94882e-05
3.94486e-05
3.95308e-05
3.97416e-05
4.00709e-05
4.05018e-05
4.10142e-05
4.15813e-05
4.21823e-05
4.27974e-05
4.34128e-05
4.40182e-05
4.46071e-05
4.51756e-05
4.57211e-05
4.62426e-05
4.67392e-05
4.72085e-05
4.76467e-05
4.80498e-05
4.84392e-05
4.87688e-05
4.89656e-05
4.92356e-05
4.94254e-05
4.95312e-05
4.95813e-05
4.95622e-05
4.9475e-05
4.93172e-05
4.90892e-05
4.87922e-05
4.84298e-05
4.80073e-05
4.75323e-05
4.70139e-05
4.64629e-05
4.58896e-05
4.53022e-05
4.47036e-05
4.40878e-05
4.34362e-05
4.27137e-05
4.18693e-05
4.08436e-05
3.96468e-05
3.83075e-05
3.63648e-05
3.4594e-05
3.29619e-05
3.10567e-05
2.90071e-05
2.76098e-05
2.88585e-05
3.11986e-05
3.25287e-05
3.24765e-05
3.17243e-05
2.82251e-05
2.30569e-05
1.63164e-05
7.12392e-06
1.18553e-07
6.31372e-07
2.11278e-05
4.18094e-05
5.15901e-05
5.46667e-05
5.4346e-05
5.28024e-05
5.12526e-05
4.92758e-05
4.75414e-05
4.56729e-05
4.38817e-05
4.23686e-05
4.12416e-05
4.04797e-05
3.99911e-05
3.97067e-05
3.96036e-05
3.96608e-05
3.98661e-05
4.02106e-05
4.06705e-05
4.12204e-05
4.18338e-05
4.24858e-05
4.31578e-05
4.38352e-05
4.45089e-05
4.51731e-05
4.58248e-05
4.64622e-05
4.70839e-05
4.76879e-05
4.82717e-05
4.8831e-05
4.9361e-05
4.98566e-05
5.03361e-05
5.07653e-05
5.10239e-05
5.13407e-05
5.16268e-05
5.17785e-05
5.18756e-05
5.18892e-05
5.18228e-05
5.16716e-05
5.14348e-05
5.11124e-05
5.07062e-05
5.02208e-05
4.96634e-05
4.90442e-05
4.83766e-05
4.76764e-05
4.69602e-05
4.62428e-05
4.55337e-05
4.48313e-05
4.41177e-05
4.3352e-05
4.24669e-05
4.13722e-05
4.00744e-05
3.84502e-05
3.62261e-05
3.41839e-05
3.25618e-05
3.05183e-05
2.82326e-05
2.68667e-05
2.81238e-05
3.03362e-05
3.14247e-05
3.05848e-05
2.85938e-05
2.40674e-05
1.76249e-05
7.98943e-06
1.52428e-07
7.03142e-07
2.23732e-05
4.3693e-05
5.35042e-05
5.62045e-05
5.5664e-05
5.42127e-05
5.2044e-05
4.96389e-05
4.75254e-05
4.54516e-05
4.36071e-05
4.21451e-05
4.11002e-05
4.04076e-05
3.99838e-05
3.97837e-05
3.97863e-05
3.99667e-05
4.03049e-05
4.0777e-05
4.13512e-05
4.19991e-05
4.26946e-05
4.34171e-05
4.41528e-05
4.48925e-05
4.56315e-05
4.63673e-05
4.70984e-05
4.78232e-05
4.85393e-05
4.92429e-05
4.99289e-05
5.05911e-05
5.12228e-05
5.18168e-05
5.23982e-05
5.29203e-05
5.32392e-05
5.3621e-05
5.39915e-05
5.41958e-05
5.43412e-05
5.43925e-05
5.4353e-05
5.42171e-05
5.3982e-05
5.36461e-05
5.32091e-05
5.26734e-05
5.20441e-05
5.133e-05
5.05442e-05
4.97041e-05
4.88313e-05
4.79495e-05
4.70814e-05
4.62441e-05
4.54422e-05
4.46595e-05
4.38508e-05
4.29331e-05
4.17823e-05
4.03852e-05
3.83574e-05
3.59296e-05
3.36588e-05
3.20029e-05
2.9752e-05
2.72218e-05
2.62253e-05
2.75066e-05
2.91261e-05
2.95489e-05
2.85008e-05
2.46494e-05
1.86155e-05
8.67115e-06
1.88808e-07
7.69575e-07
2.34393e-05
4.52112e-05
5.49752e-05
5.74085e-05
5.70752e-05
5.5025e-05
5.23362e-05
4.98587e-05
4.73758e-05
4.51689e-05
4.33226e-05
4.19299e-05
4.09666e-05
4.03505e-05
4.00148e-05
3.99245e-05
4.0051e-05
4.0361e-05
4.08246e-05
4.14083e-05
4.20785e-05
4.28078e-05
4.35741e-05
4.43626e-05
4.51646e-05
4.59754e-05
4.67932e-05
4.76168e-05
4.84443e-05
4.92727e-05
5.00969e-05
5.09107e-05
5.17064e-05
5.24757e-05
5.32099e-05
5.39006e-05
5.45812e-05
5.51816e-05
5.55628e-05
5.6012e-05
5.64526e-05
5.67104e-05
5.69018e-05
5.69925e-05
5.69844e-05
5.68712e-05
5.66492e-05
5.63147e-05
5.58654e-05
5.53005e-05
5.46221e-05
5.38355e-05
5.29509e-05
5.19839e-05
5.09564e-05
4.98961e-05
4.88344e-05
4.78033e-05
4.68284e-05
4.5921e-05
4.50678e-05
4.42203e-05
4.32844e-05
4.21099e-05
4.04713e-05
3.80564e-05
3.54673e-05
3.30207e-05
3.12522e-05
2.86891e-05
2.59159e-05
2.55851e-05
2.70881e-05
2.81039e-05
2.72886e-05
2.47636e-05
1.92379e-05
9.17565e-06
2.26263e-07
8.28177e-07
2.42971e-05
4.63603e-05
5.608e-05
5.8609e-05
5.80947e-05
5.57206e-05
5.27134e-05
4.98125e-05
4.71419e-05
4.48616e-05
4.30482e-05
4.17345e-05
4.08562e-05
4.03307e-05
4.01035e-05
4.0137e-05
4.03908e-05
4.08234e-05
4.13975e-05
4.20762e-05
4.28281e-05
4.36295e-05
4.44638e-05
4.53219e-05
4.61993e-05
4.70943e-05
4.8006e-05
4.89322e-05
4.98691e-05
5.08108e-05
5.17493e-05
5.26755e-05
5.35794e-05
5.4451e-05
5.52807e-05
5.60593e-05
5.68241e-05
5.74857e-05
5.79325e-05
5.84376e-05
5.89345e-05
5.92409e-05
5.9473e-05
5.96013e-05
5.96258e-05
5.95406e-05
5.93409e-05
5.90218e-05
5.85788e-05
5.80084e-05
5.73089e-05
5.64814e-05
5.55311e-05
5.44691e-05
5.33136e-05
5.2091e-05
5.08358e-05
4.95885e-05
4.83907e-05
4.72769e-05
4.62637e-05
4.53368e-05
4.44396e-05
4.34632e-05
4.22403e-05
4.03064e-05
3.75634e-05
3.48552e-05
3.22811e-05
3.02368e-05
2.72954e-05
2.46963e-05
2.48586e-05
2.60146e-05
2.63675e-05
2.46116e-05
1.95242e-05
9.45138e-06
2.65866e-07
8.77501e-07
2.49489e-05
4.7182e-05
5.69431e-05
5.95179e-05
5.8809e-05
5.6006e-05
5.28219e-05
4.96695e-05
4.68618e-05
4.45539e-05
4.27958e-05
4.15675e-05
4.07814e-05
4.03609e-05
4.02543e-05
4.04138e-05
4.07882e-05
4.13304e-05
4.2e-05
4.27612e-05
4.35865e-05
4.44576e-05
4.53636e-05
4.62998e-05
4.72645e-05
4.82569e-05
4.92747e-05
5.03134e-05
5.13659e-05
5.24228e-05
5.34734e-05
5.45061e-05
5.55091e-05
5.64715e-05
5.73831e-05
5.8235e-05
5.90674e-05
5.97799e-05
6.02799e-05
6.08268e-05
6.13672e-05
6.17136e-05
6.19789e-05
6.21398e-05
6.21949e-05
6.21392e-05
6.19674e-05
6.16738e-05
6.12527e-05
6.0698e-05
6.00048e-05
5.91695e-05
5.81919e-05
5.70766e-05
5.58353e-05
5.44888e-05
5.30688e-05
5.16179e-05
5.0187e-05
4.88291e-05
4.75884e-05
4.64856e-05
4.55007e-05
4.45559e-05
4.34995e-05
4.20796e-05
3.97114e-05
3.68922e-05
3.41796e-05
3.13435e-05
2.88843e-05
2.55618e-05
2.38011e-05
2.4328e-05
2.49531e-05
2.37366e-05
1.94888e-05
9.57484e-06
3.06437e-07
9.1684e-07
2.54035e-05
4.77226e-05
5.7541e-05
6.01881e-05
5.93373e-05
5.63735e-05
5.28292e-05
4.94641e-05
4.65626e-05
4.42607e-05
4.25724e-05
4.14348e-05
4.07495e-05
4.04439e-05
4.04608e-05
4.07402e-05
4.12238e-05
4.18624e-05
4.26158e-05
4.34517e-05
4.43479e-05
4.52915e-05
4.62766e-05
4.73012e-05
4.83643e-05
4.94639e-05
5.05948e-05
5.17491e-05
5.2916e-05
5.40831e-05
5.52369e-05
5.63641e-05
5.74523e-05
5.84901e-05
5.94676e-05
6.03766e-05
6.12591e-05
6.20149e-05
6.25503e-05
6.31234e-05
6.36957e-05
6.40716e-05
6.43611e-05
6.45472e-05
6.46281e-05
6.45996e-05
6.4457e-05
6.41946e-05
6.38055e-05
6.32825e-05
6.26178e-05
6.1804e-05
6.08354e-05
5.97098e-05
5.84309e-05
5.70108e-05
5.54735e-05
5.38568e-05
5.2213e-05
5.06052e-05
4.90994e-05
4.77506e-05
4.65845e-05
4.55793e-05
4.46489e-05
4.36279e-05
4.16773e-05
3.88365e-05
3.60478e-05
3.3205e-05
3.01384e-05
2.71128e-05
2.35941e-05
2.28719e-05
2.30484e-05
2.2827e-05
1.93886e-05
9.75756e-06
3.53245e-07
9.45956e-07
2.5667e-05
4.80327e-05
5.78822e-05
6.06883e-05
5.95789e-05
5.64942e-05
5.27473e-05
4.92212e-05
4.62627e-05
4.39908e-05
4.23815e-05
4.13396e-05
4.0762e-05
4.0575e-05
4.07111e-05
4.11004e-05
4.16813e-05
4.24054e-05
4.32349e-05
4.41423e-05
4.5111e-05
4.61329e-05
4.72054e-05
4.83273e-05
4.94966e-05
5.0708e-05
5.1953e-05
5.32196e-05
5.44937e-05
5.57603e-05
5.70041e-05
5.82112e-05
5.93687e-05
6.04657e-05
6.14932e-05
6.24437e-05
6.33594e-05
6.41526e-05
6.47062e-05
6.52889e-05
6.58829e-05
6.62775e-05
6.65815e-05
6.67839e-05
6.68835e-05
6.68771e-05
6.6761e-05
6.65301e-05
6.61776e-05
6.56957e-05
6.50747e-05
6.43046e-05
6.3375e-05
6.22774e-05
6.1007e-05
5.95664e-05
5.79684e-05
5.62412e-05
5.44305e-05
5.26001e-05
5.08273e-05
4.91905e-05
4.77504e-05
4.65255e-05
4.54698e-05
4.44562e-05
4.32637e-05
4.08428e-05
3.78129e-05
3.49246e-05
3.17742e-05
2.86334e-05
2.48039e-05
2.22545e-05
2.20337e-05
2.21504e-05
1.92825e-05
1.01912e-05
4.15183e-07
9.6532e-07
2.57675e-05
4.80949e-05
5.794e-05
6.08575e-05
5.98464e-05
5.65253e-05
5.26051e-05
4.89602e-05
4.5974e-05
4.37486e-05
4.22244e-05
4.12822e-05
4.08157e-05
4.07453e-05
4.09924e-05
4.14808e-05
4.21488e-05
4.29505e-05
4.38518e-05
4.48308e-05
4.58759e-05
4.69825e-05
4.81494e-05
4.93744e-05
5.06528e-05
5.19755e-05
5.333e-05
5.47006e-05
5.60707e-05
5.74233e-05
5.87424e-05
6.00139e-05
6.12255e-05
6.2367e-05
6.34301e-05
6.44082e-05
6.53414e-05
6.61673e-05
6.67269e-05
6.73026e-05
6.79091e-05
6.83123e-05
6.86211e-05
6.88305e-05
6.894e-05
6.89483e-05
6.88528e-05
6.86495e-05
6.83327e-05
6.78946e-05
6.73252e-05
6.66125e-05
6.57431e-05
6.47031e-05
6.34805e-05
6.20677e-05
6.04658e-05
5.86896e-05
5.67729e-05
5.47722e-05
5.27669e-05
5.0852e-05
4.91215e-05
4.7643e-05
4.64284e-05
4.54097e-05
4.4424e-05
4.26081e-05
3.9646e-05
3.6795e-05
3.34549e-05
2.99313e-05
2.63758e-05
2.22597e-05
2.08724e-05
2.0462e-05
1.8892e-05
1.08635e-05
4.97362e-07
9.75e-07
2.57024e-05
4.79041e-05
5.78749e-05
6.09915e-05
5.9883e-05
5.64677e-05
5.24224e-05
4.86952e-05
4.57042e-05
4.35362e-05
4.21006e-05
4.12604e-05
4.09047e-05
4.09452e-05
4.12936e-05
4.18712e-05
4.26183e-05
4.34923e-05
4.4464e-05
4.55165e-05
4.66422e-05
4.78386e-05
4.91039e-05
5.04338e-05
5.18197e-05
5.32484e-05
5.47036e-05
5.6167e-05
5.76198e-05
5.90444e-05
6.04246e-05
6.17467e-05
6.29992e-05
6.41729e-05
6.52606e-05
6.62567e-05
6.71907e-05
6.80372e-05
6.86081e-05
6.91587e-05
6.97687e-05
7.0172e-05
7.04765e-05
7.06835e-05
7.07938e-05
7.08077e-05
7.07244e-05
7.05417e-05
7.02553e-05
6.98583e-05
6.93413e-05
6.86917e-05
6.78943e-05
6.69317e-05
6.57858e-05
6.44402e-05
6.28844e-05
6.11187e-05
5.91609e-05
5.70532e-05
5.48664e-05
5.26986e-05
5.06631e-05
4.88644e-05
4.73641e-05
4.61474e-05
4.51013e-05
4.40071e-05
4.15055e-05
3.82943e-05
3.53217e-05
3.16787e-05
2.77205e-05
2.34163e-05
2.07076e-05
1.93297e-05
1.84724e-05
1.14909e-05
5.97314e-07
9.74478e-07
2.55389e-05
4.76548e-05
5.76638e-05
6.09974e-05
5.982e-05
5.63431e-05
5.22148e-05
4.84363e-05
4.54578e-05
4.33539e-05
4.20083e-05
4.12702e-05
4.1022e-05
4.11656e-05
4.1606e-05
4.22644e-05
4.30846e-05
4.40278e-05
4.50697e-05
4.61978e-05
4.74074e-05
4.86963e-05
5.00609e-05
5.14934e-05
5.29811e-05
5.45072e-05
5.60522e-05
5.75957e-05
5.9118e-05
6.06013e-05
6.20301e-05
6.33912e-05
6.46744e-05
6.58713e-05
6.69758e-05
6.79834e-05
6.89043e-05
6.97567e-05
7.03529e-05
7.08631e-05
7.14658e-05
7.18627e-05
7.21553e-05
7.23511e-05
7.2453e-05
7.24631e-05
7.23825e-05
7.22111e-05
7.19464e-05
7.15834e-05
7.1114e-05
7.05263e-05
6.98045e-05
6.89292e-05
6.78782e-05
6.66281e-05
6.51582e-05
6.34546e-05
6.15182e-05
5.93725e-05
5.70725e-05
5.47092e-05
5.24052e-05
5.02955e-05
4.84923e-05
4.70422e-05
4.5891e-05
4.48755e-05
4.30248e-05
3.98633e-05
3.70828e-05
3.32146e-05
2.91945e-05
2.48694e-05
2.06071e-05
1.88875e-05
1.8086e-05
1.21249e-05
7.11681e-07
9.6924e-07
2.52785e-05
4.7246e-05
5.72645e-05
6.07914e-05
5.96567e-05
5.61661e-05
5.1994e-05
4.81906e-05
4.52371e-05
4.32009e-05
4.19452e-05
4.13071e-05
4.11609e-05
4.13992e-05
4.1923e-05
4.26556e-05
4.35442e-05
4.45546e-05
4.5667e-05
4.68723e-05
4.81671e-05
4.95483e-05
5.10094e-05
5.25389e-05
5.41201e-05
5.5733e-05
5.73558e-05
5.8967e-05
6.05467e-05
6.20775e-05
6.35446e-05
6.49359e-05
6.62418e-05
6.7455e-05
6.85697e-05
6.9582e-05
7.04893e-05
7.13367e-05
7.19642e-05
7.24357e-05
7.30082e-05
7.33971e-05
7.36716e-05
7.38486e-05
7.39336e-05
7.39305e-05
7.38428e-05
7.36722e-05
7.34188e-05
7.30799e-05
7.26492e-05
7.21166e-05
7.1467e-05
7.06805e-05
6.97326e-05
6.85951e-05
6.72389e-05
6.5638e-05
6.37764e-05
6.16572e-05
5.93137e-05
5.68195e-05
5.42919e-05
5.18812e-05
4.97398e-05
4.79731e-05
4.65858e-05
4.54477e-05
4.42943e-05
4.1564e-05
3.84741e-05
3.52255e-05
3.06907e-05
2.61446e-05
2.10887e-05
1.83929e-05
1.69797e-05
1.2744e-05
8.24726e-07
9.57596e-07
2.4964e-05
4.65833e-05
5.67402e-05
6.046e-05
5.94091e-05
5.59487e-05
5.17688e-05
4.7963e-05
4.50436e-05
4.30761e-05
4.19084e-05
4.13665e-05
4.13155e-05
4.16402e-05
4.22402e-05
4.30413e-05
4.39948e-05
4.50708e-05
4.62533e-05
4.75357e-05
4.89147e-05
5.03852e-05
5.19373e-05
5.35557e-05
5.52204e-05
5.69088e-05
5.85978e-05
6.02655e-05
6.18923e-05
6.34614e-05
6.4959e-05
6.63739e-05
6.76973e-05
6.8922e-05
7.00428e-05
7.10551e-05
7.19556e-05
7.27873e-05
7.34476e-05
7.38849e-05
7.44124e-05
7.47902e-05
7.5042e-05
7.51941e-05
7.52547e-05
7.52301e-05
7.51256e-05
7.49454e-05
7.46922e-05
7.43658e-05
7.39626e-05
7.34746e-05
7.28887e-05
7.21858e-05
7.13407e-05
7.03227e-05
6.90967e-05
6.76268e-05
6.58822e-05
6.38459e-05
6.15271e-05
5.89756e-05
5.62921e-05
5.36287e-05
5.11671e-05
4.90709e-05
4.74223e-05
4.61683e-05
4.51065e-05
4.29329e-05
3.96932e-05
3.69886e-05
3.21815e-05
2.75145e-05
2.24478e-05
1.85335e-05
1.59844e-05
1.31868e-05
9.10187e-07
9.39596e-07
2.45646e-05
4.58518e-05
5.61318e-05
6.00118e-05
5.90896e-05
5.57007e-05
5.15458e-05
4.77567e-05
4.48776e-05
4.29779e-05
4.18949e-05
4.14441e-05
4.14811e-05
4.18845e-05
4.2554e-05
4.34188e-05
4.44339e-05
4.55735e-05
4.68248e-05
4.81826e-05
4.96424e-05
5.11967e-05
5.28322e-05
5.453e-05
5.62675e-05
5.80204e-05
5.9765e-05
6.14794e-05
6.31448e-05
6.47453e-05
6.6268e-05
6.77023e-05
6.90401e-05
7.02744e-05
7.14001e-05
7.24128e-05
7.33095e-05
7.41183e-05
7.48013e-05
7.5221e-05
7.5695e-05
7.60569e-05
7.62826e-05
7.64051e-05
7.64355e-05
7.6382e-05
7.62522e-05
7.60527e-05
7.57888e-05
7.54632e-05
7.50751e-05
7.46194e-05
7.40854e-05
7.34562e-05
7.27074e-05
7.18074e-05
7.07178e-05
6.93954e-05
6.77973e-05
6.58884e-05
6.36537e-05
6.11146e-05
5.8346e-05
5.54864e-05
5.27286e-05
5.02796e-05
4.82898e-05
4.67757e-05
4.55753e-05
4.40732e-05
4.08582e-05
3.84048e-05
3.41734e-05
2.88397e-05
2.37049e-05
1.88603e-05
1.55079e-05
1.33542e-05
9.47285e-07
9.16137e-07
2.40591e-05
4.50101e-05
5.5432e-05
5.94697e-05
5.87099e-05
5.54298e-05
5.13298e-05
4.75738e-05
4.4739e-05
4.29047e-05
4.1902e-05
4.15361e-05
4.16536e-05
4.21286e-05
4.28617e-05
4.37855e-05
4.48589e-05
4.60595e-05
4.7377e-05
4.88063e-05
5.03417e-05
5.19725e-05
5.36823e-05
5.54494e-05
5.72492e-05
5.90564e-05
6.08472e-05
6.26003e-05
6.42978e-05
6.59246e-05
6.74687e-05
6.89201e-05
7.0271e-05
7.15147e-05
7.2646e-05
7.36609e-05
7.4557e-05
7.53386e-05
7.60271e-05
7.64526e-05
7.68679e-05
7.72093e-05
7.74067e-05
7.74963e-05
7.74919e-05
7.74039e-05
7.72418e-05
7.70148e-05
7.67305e-05
7.63946e-05
7.60095e-05
7.55731e-05
7.50779e-05
7.45097e-05
7.38463e-05
7.30568e-05
7.21015e-05
7.09329e-05
6.94991e-05
6.77496e-05
6.56474e-05
6.31847e-05
6.04047e-05
5.74207e-05
5.4421e-05
5.16434e-05
4.93072e-05
4.75199e-05
4.62004e-05
4.50585e-05
4.22693e-05
3.94913e-05
3.60757e-05
3.00059e-05
2.46241e-05
1.89291e-05
1.56571e-05
1.33437e-05
9.5302e-07
8.88511e-07
2.35173e-05
4.40829e-05
5.46466e-05
5.885e-05
5.82807e-05
5.51422e-05
5.11241e-05
4.74156e-05
4.46275e-05
4.2855e-05
4.19269e-05
4.16391e-05
4.18298e-05
4.23696e-05
4.31608e-05
4.41391e-05
4.5267e-05
4.65251e-05
4.79046e-05
4.94001e-05
5.10039e-05
5.27027e-05
5.44771e-05
5.63033e-05
5.81554e-05
6.00077e-05
6.18368e-05
6.36221e-05
6.53466e-05
6.69962e-05
6.85594e-05
7.00269e-05
7.13906e-05
7.26441e-05
7.37817e-05
7.47989e-05
7.5692e-05
7.64583e-05
7.71434e-05
7.75785e-05
7.79376e-05
7.82551e-05
7.8423e-05
7.84779e-05
7.8436e-05
7.83095e-05
7.811e-05
7.78487e-05
7.75361e-05
7.71804e-05
7.67873e-05
7.63579e-05
7.58883e-05
7.53675e-05
7.47762e-05
7.40857e-05
7.32568e-05
7.22402e-05
7.09778e-05
6.94078e-05
6.74739e-05
6.51407e-05
6.24167e-05
5.93808e-05