/*--------------------------------*- C++ -*----------------------------------*\
  =========                 |
  \\      /  F ield         | OpenFOAM: The Open Source CFD Toolbox
   \\    /   O peration     | Website:  https://openfoam.org
    \\  /    A nd           | Version:  13
     \\/     M anipulation  |
\*---------------------------------------------------------------------------*/
FoamFile
{
    format      ascii;
    class       volScalarField;
    location    "1600";
    object      k;
}
// * * * * * * * * * * * * * * * * * * * * * * * * * * * * * * * * * * * * * //

dimensions      [0 2 -2 0 0 0 0];

internalField   nonuniform List<scalar> 
12225
(
0.665892
1.30434
1.55159
1.64328
1.64446
1.61457
2.31203
1.94784
1.88007
1.56418
1.71617
1.49129
1.43618
1.38147
1.66125
1.46202
1.35019
2.45809
0.401425
0.444536
0.482691
0.551531
0.600472
0.618305
0.657325
0.698748
0.728147
0.731306
0.764559
0.796669
0.824405
0.829232
0.830089
0.829726
0.822303
0.865312
0.379164
0.38211
0.384279
0.386369
0.387593
0.386285
0.375986
0.352507
0.3284
0.293534
0.278186
0.267417
0.258545
0.256061
0.247608
0.25366
0.249048
0.25234
0.375024
0.374258
0.372194
0.370422
0.367734
0.363871
0.347961
0.314661
0.274909
0.22927
0.187952
0.153004
0.123831
0.104205
0.0854816
0.0743169
0.0649878
0.0600519
0.374134
0.372279
0.370039
0.367656
0.364915
0.359808
0.344821
0.317568
0.284128
0.244825
0.209867
0.177674
0.154264
0.133791
0.120578
0.106974
0.0998712
0.0895766
0.373916
0.37181
0.369616
0.36723
0.364647
0.359655
0.347648
0.328784
0.307311
0.28069
0.258702
0.237296
0.222247
0.207311
0.197932
0.186559
0.180304
0.169098
0.373852
0.371688
0.369534
0.36726
0.364961
0.360581
0.352497
0.339965
0.327921
0.312708
0.299904
0.286232
0.277679
0.266877
0.261028
0.25214
0.247783
0.239412
0.373835
0.371631
0.369518
0.367346
0.365362
0.36189
0.35679
0.349345
0.342206
0.333769
0.326942
0.318971
0.313758
0.307188
0.30345
0.297535
0.294501
0.288805
0.373836
0.371588
0.369492
0.367396
0.365527
0.36287
0.359596
0.355189
0.350882
0.345936
0.341834
0.337177
0.333795
0.329681
0.32699
0.323162
0.32085
0.317064
0.373837
0.37157
0.36946
0.367407
0.365539
0.363383
0.361027
0.358155
0.355315
0.352164
0.349394
0.346391
0.343963
0.341211
0.339124
0.336511
0.334661
0.33207
0.373835
0.371563
0.369434
0.367394
0.365507
0.363574
0.361631
0.359502
0.357401
0.355171
0.353114
0.350971
0.349094
0.347089
0.3454
0.343483
0.341949
0.340067
0.373832
0.371561
0.369421
0.367383
0.365474
0.363611
0.361814
0.359983
0.358203
0.356388
0.354676
0.352945
0.351361
0.349735
0.348282
0.346732
0.3454
0.343895
0.37383
0.371558
0.369412
0.367373
0.365451
0.363609
0.361859
0.360151
0.358514
0.356902
0.355372
0.353863
0.352449
0.35104
0.349738
0.348412
0.347212
0.345948
0.373828
0.371555
0.369405
0.367364
0.365434
0.363595
0.361853
0.360185
0.358599
0.357072
0.355621
0.354219
0.352891
0.3516
0.350383
0.349187
0.348068
0.346954
0.373826
0.371553
0.369399
0.367357
0.36542
0.363581
0.361835
0.360175
0.358596
0.357091
0.355659
0.354292
0.352989
0.351742
0.350555
0.349414
0.348328
0.347282
0.373826
0.371551
0.369395
0.367349
0.36541
0.363567
0.361819
0.360155
0.358576
0.35707
0.35564
0.354275
0.352976
0.351736
0.350553
0.349424
0.348346
0.347316
0.373825
0.37155
0.369392
0.367345
0.365402
0.363558
0.361806
0.360141
0.358557
0.35705
0.355615
0.354248
0.352946
0.351704
0.35052
0.34939
0.348311
0.347282
0.373825
0.371549
0.36939
0.367342
0.365398
0.363553
0.361799
0.360132
0.358545
0.357036
0.355598
0.35423
0.352924
0.351681
0.350494
0.349362
0.348281
0.34725
0.373825
0.371549
0.36939
0.367342
0.365398
0.363552
0.361797
0.360129
0.358542
0.357031
0.355592
0.354222
0.352915
0.35167
0.350482
0.349349
0.348267
0.347235
0.373825
0.37155
0.369392
0.367346
0.365402
0.363557
0.361803
0.360136
0.358549
0.35704
0.355601
0.354231
0.352925
0.351679
0.350492
0.349359
0.348278
0.347245
0.373826
0.371552
0.369396
0.367351
0.36541
0.363567
0.361815
0.36015
0.358565
0.357057
0.35562
0.354252
0.352947
0.351704
0.350517
0.349385
0.348305
0.347274
0.373827
0.371555
0.369401
0.367359
0.365421
0.363582
0.361833
0.360172
0.358591
0.357087
0.355653
0.354288
0.352985
0.351745
0.350559
0.34943
0.348349
0.347319
0.373828
0.371562
0.369408
0.367373
0.365438
0.363608
0.361864
0.360214
0.358636
0.357142
0.355706
0.354349
0.35304
0.351804
0.350606
0.349477
0.348381
0.347344
0.373834
0.371567
0.369415
0.367393
0.365472
0.363668
0.361939
0.360316
0.358733
0.357254
0.35579
0.354433
0.353079
0.351829
0.35057
0.349416
0.348247
0.347163
0.37384
0.37153
0.369394
0.36744
0.365585
0.363862
0.362169
0.360594
0.358959
0.35748
0.355879
0.354481
0.352949
0.351622
0.350166
0.348904
0.347531
0.346288
0.373648
0.371208
0.369299
0.367667
0.366051
0.364532
0.362886
0.361342
0.359519
0.357935
0.35595
0.354372
0.352388
0.35081
0.348906
0.34734
0.345553
0.343907
0.372207
0.370399
0.369686
0.368983
0.367924
0.366783
0.365245
0.363721
0.361457
0.359516
0.356671
0.354572
0.351671
0.34948
0.346801
0.344584
0.342196
0.339792
0.369768
0.370438
0.374666
0.375647
0.37648
0.376581
0.376841
0.375859
0.373687
0.371188
0.367666
0.364978
0.361918
0.359435
0.357538
0.355517
0.354593
0.352819
0.3888
0.401415
0.429741
0.457488
0.479489
0.497066
0.509894
0.521981
0.532342
0.54201
0.55272
0.562636
0.575603
0.58627
0.602033
0.613541
0.629513
0.640287
0.840823
1.18923
1.41604
1.53844
1.59492
1.59465
1.57813
1.55259
1.51497
1.47684
1.4402
1.40609
1.37506
1.34716
1.32222
1.30022
1.28072
1.26348
1.5436e-08
3.82901e-07
1.95876e-06
7.72099e-06
2.58609e-05
7.86566e-05
0.000209177
0.000422139
0.000692482
0.000981209
0.00124255
0.00144667
0.00158463
0.00163684
0.00161791
0.00155361
0.00142585
0.00122599
0.00103187
0.000871922
0.000724173
0.000582685
0.000448289
0.000323808
0.000213319
0.000127241
6.91498e-05
3.55496e-05
1.82599e-05
9.8743e-06
5.83924e-06
4.09496e-06
4.02056e-06
7.18251e-06
1.73623e-05
4.41843e-05
0.000181595
0.000412826
0.000730193
0.000931911
0.000899037
0.000763687
0.000603169
0.000542001
0.000588016
0.00077534
0.00104129
0.00182237
0.00351894
0.00873522
0.0267261
0.0605745
0.0900932
0.107391
0.119683
0.147444
0.160297
0.167244
0.172984
0.167081
0.144666
0.162993
0.178776
0.145238
0.1712
0.174227
0.183605
0.19179
0.199265
0.207265
0.214641
0.222209
0.229507
0.236807
0.243988
0.251117
0.258178
0.265176
0.272124
0.279004
0.285847
0.292618
0.299355
0.306016
0.312647
0.319199
0.325716
0.33215
0.338535
0.344836
0.351071
0.35722
0.363287
0.369247
0.375104
0.38083
0.386433
0.391878
0.397177
0.402298
0.40726
0.412046
0.416693
0.421252
0.425671
0.429924
0.434013
0.437949
0.441706
0.445305
0.448715
0.451957
0.455005
0.457876
0.46055
0.46304
0.465331
0.467434
0.469339
0.471051
0.472568
0.473895
0.475033
0.475982
0.476752
0.477336
0.477751
0.477992
0.478085
0.478071
0.477855
0.47718
0.476827
0.475684
0.474907
0.473793
0.472696
0.471385
0.469788
0.468077
0.466184
0.46416
0.461996
0.459707
0.457296
0.454768
0.452131
0.44939
0.446556
0.44363
0.440618
0.437525
0.434355
0.431117
0.427813
0.424458
0.421057
0.417623
0.414166
0.410697
0.407236
0.403795
0.400384
0.397013
0.393687
0.390415
0.387197
0.384041
0.380952
0.377933
0.374987
0.372109
0.369293
0.366516
0.363732
0.360845
0.357744
0.354067
0.349297
0.334704
7.86637e-08
2.22844e-06
1.49314e-05
6.32902e-05
0.000231498
0.000665764
0.00156517
0.00286946
0.00440657
0.00600095
0.00746862
0.00868185
0.00958483
0.0101494
0.0104393
0.010407
0.0102576
0.00990571
0.00935195
0.00857604
0.00759808
0.00645686
0.00521628
0.00395069
0.00274856
0.00182656
0.00116259
0.00072093
0.000437838
0.000266083
0.000168319
0.000116301
9.75321e-05
0.000120957
0.000237742
0.00046887
0.00192999
0.00424685
0.00715777
0.00929674
0.00992064
0.00968345
0.00921991
0.00967233
0.0121539
0.0170666
0.0236866
0.0359831
0.0567507
0.0811496
0.105414
0.127534
0.143847
0.156887
0.169955
0.186889
0.201415
0.21745
0.233604
0.249493
0.266648
0.285556
0.303476
0.320582
0.340756
0.358559
0.376803
0.394755
0.412347
0.429864
0.447141
0.464319
0.481362
0.498318
0.515192
0.531999
0.548751
0.565447
0.582098
0.598697
0.615257
0.631762
0.648226
0.664632
0.680996
0.697296
0.713545
0.729723
0.745834
0.76187
0.777826
0.793702
0.809481
0.825149
0.840689
0.856085
0.871314
0.886351
0.90117
0.915735
0.930014
0.943954
0.957514
0.970647
0.983489
0.996044
1.00831
1.02027
1.03192
1.04323
1.05419
1.06479
1.07501
1.08484
1.09428
1.1033
1.11191
1.12008
1.12782
1.13511
1.14196
1.14836
1.15431
1.15981
1.16486
1.16945
1.17359
1.17728
1.18051
1.18331
1.18565
1.18755
1.18908
1.19003
1.1906
1.19082
1.1908
1.1905
1.19003
1.18913
1.18779
1.18605
1.18392
1.1814
1.17851
1.17525
1.17164
1.16769
1.16341
1.15881
1.15391
1.14871
1.14322
1.13746
1.13144
1.12519
1.11872
1.11205
1.10522
1.09826
1.09119
1.08405
1.07686
1.06966
1.06244
1.05524
1.04805
1.0409
1.03379
1.02673
1.01974
1.01281
1.00594
0.999074
0.99217
0.985074
0.977594
0.969302
0.958364
0.933684
1.88927e-07
5.61777e-06
4.24023e-05
0.000192711
0.000713143
0.00177586
0.00369383
0.00595072
0.00824083
0.0103315
0.0120936
0.0134585
0.0144232
0.015013
0.0152925
0.0152698
0.0151315
0.0147868
0.0142916
0.0136616
0.0128997
0.0119949
0.0109303
0.00971664
0.00834056
0.00678707
0.00518445
0.00375454
0.00251181
0.00166123
0.00112888
0.000818817
0.000628262
0.000587337
0.00123177
0.00271624
0.00813071
0.0153061
0.0214945
0.0257917
0.0281232
0.0296244
0.0335439
0.0434388
0.0603257
0.0775872
0.0957973
0.116196
0.136006
0.15511
0.174909
0.194156
0.214185
0.23622
0.261538
0.28857
0.315708
0.343273
0.370804
0.398039
0.425281
0.45216
0.47844
0.504248
0.52964
0.55434
0.57863
0.602537
0.626091
0.649395
0.672464
0.69536
0.718106
0.740732
0.763257
0.785693
0.808051
0.830333
0.852542
0.874677
0.896736
0.918715
0.94061
0.962415
0.984127
1.00574
1.02724
1.04862
1.06988
1.09102
1.11201
1.13288
1.15358
1.17412
1.19448
1.21466
1.23462
1.25436
1.27386
1.2931
1.31207
1.33075
1.34913
1.3672
1.38494
1.40231
1.41929
1.43587
1.45201
1.46769
1.48291
1.49762
1.51182
1.52549
1.53861
1.55117
1.56314
1.57453
1.58532
1.5955
1.60507
1.61403
1.62236
1.63008
1.63718
1.64366
1.64952
1.65476
1.65939
1.66341
1.66682
1.66962
1.67184
1.67345
1.67444
1.6749
1.67504
1.6746
1.67357
1.67198
1.66981
1.66709
1.66383
1.66003
1.65571
1.65089
1.64558
1.63979
1.63355
1.62686
1.61974
1.61222
1.60431
1.59603
1.5874
1.57845
1.5692
1.55969
1.54995
1.54003
1.52996
1.51977
1.50951
1.49921
1.48888
1.47855
1.46824
1.45796
1.44772
1.43755
1.42745
1.41744
1.40752
1.39767
1.38785
1.37795
1.36777
1.35698
1.34365
1.32063
6.9626e-07
2.0884e-05
0.000163031
0.000647095
0.0020357
0.00475632
0.00815536
0.0114984
0.0144277
0.0167713
0.0184865
0.0196119
0.0202299
0.020413
0.020322
0.0200395
0.0195431
0.0189276
0.018226
0.0174546
0.016617
0.0157076
0.0147151
0.0136167
0.012391
0.0110155
0.00950578
0.00792464
0.00643323
0.00496095
0.00383206
0.00286393
0.00246996
0.0030081
0.00624056
0.0153297
0.0282599
0.0393277
0.0478178
0.0548736
0.0630215
0.0742346
0.0886233
0.104419
0.119624
0.135465
0.152952
0.172948
0.193682
0.216959
0.241873
0.268655
0.297353
0.327873
0.359758
0.392136
0.424582
0.456956
0.489068
0.520771
0.552105
0.582921
0.613167
0.642901
0.672128
0.700891
0.729271
0.757332
0.785125
0.81271
0.840123
0.867404
0.894577
0.921664
0.948678
0.975626
1.00251
1.02933
1.05609
1.08277
1.10937
1.13587
1.16228
1.18857
1.21474
1.24078
1.26668
1.29243
1.31801
1.34343
1.36867
1.39374
1.41862
1.4433
1.46776
1.492
1.51601
1.53977
1.56326
1.58647
1.60939
1.63198
1.65423
1.67611
1.69757
1.7186
1.73917
1.75924
1.77878
1.79777
1.81618
1.83399
1.85116
1.86769
1.88355
1.89872
1.91318
1.92692
1.93993
1.95219
1.96371
1.97448
1.98449
1.99374
2.00224
2.00998
2.01697
2.0232
2.02869
2.03343
2.03743
2.04069
2.04322
2.04504
2.04606
2.04647
2.04641
2.04554
2.04397
2.04171
2.03877
2.03516
2.03089
2.02598
2.02044
2.01428
2.00754
2.00022
1.99234
1.98392
1.975
1.96558
1.9557
1.94538
1.93464
1.92351
1.91202
1.90022
1.88814
1.87584
1.86334
1.8507
1.83796
1.82514
1.81229
1.79942
1.78655
1.77371
1.76092
1.74819
1.73555
1.72301
1.7106
1.6983
1.6861
1.67393
1.66164
1.64899
1.63432
1.61288
2.29786e-06
6.89021e-05
0.00051475
0.00201303
0.00556535
0.0106038
0.0153795
0.0192677
0.0220906
0.0239186
0.0249213
0.0252943
0.0252176
0.0248895
0.0242771
0.0235301
0.0227023
0.0218323
0.0209445
0.0200497
0.019146
0.0182257
0.0172753
0.016271
0.0151888
0.0139948
0.0126688
0.0112431
0.00981432
0.00844748
0.00694692
0.00633801
0.00774908
0.0141326
0.0292673
0.0469252
0.0627648
0.0756458
0.0863782
0.0965772
0.1074
0.119194
0.131943
0.145613
0.161505
0.180429
0.201945
0.226211
0.252727
0.281493
0.311829
0.343673
0.376674
0.410535
0.444884
0.479412
0.513965
0.548444
0.582758
0.616828
0.650621
0.684075
0.717153
0.749885
0.782282
0.814384
0.846234
0.877878
0.90936
0.940717
0.971983
1.00318
1.03434
1.06546
1.09656
1.12764
1.15868
1.18969
1.22065
1.25155
1.28237
1.3131
1.34372
1.37422
1.40459
1.4348
1.46484
1.4947
1.52436
1.55382
1.58308
1.61212
1.64094
1.66952
1.69786
1.72593
1.75373
1.78125
1.80846
1.83534
1.86188
1.88803
1.91377
1.93908
1.9639
1.98822
2.012
2.0352
2.0578
2.07975
2.10103
2.12161
2.14146
2.16055
2.17886
2.19637
2.21305
2.2289
2.24388
2.25801
2.27125
2.28362
2.29511
2.30571
2.31543
2.32427
2.33223
2.33931
2.34552
2.35085
2.35533
2.35894
2.3617
2.36361
2.3646
2.36491
2.36454
2.36327
2.36118
2.3583
2.35464
2.3502
2.34501
2.33907
2.33241
2.32504
2.31698
2.30826
2.2989
2.28893
2.27836
2.26723
2.25557
2.24339
2.23074
2.21764
2.20413
2.19025
2.17605
2.16158
2.14688
2.132
2.11698
2.10187
2.08669
2.07149
2.05627
2.04107
2.0259
2.0108
1.99579
1.98089
1.96614
1.95155
1.93712
1.92283
1.90857
1.89417
1.87822
1.85721
7.15985e-06
0.000210572
0.00152031
0.00543637
0.0126818
0.0192577
0.024081
0.0271595
0.0288585
0.0295828
0.0296153
0.0293087
0.0286241
0.0277259
0.0267166
0.0256583
0.0245955
0.0235568
0.0225579
0.021602
0.0206821
0.0197852
0.0188915
0.017972
0.017004
0.0159487
0.0147601
0.0134064
0.012039
0.0112404
0.0117608
0.0157002
0.0265551
0.046088
0.0676023
0.0864993
0.101227
0.112126
0.12093
0.129517
0.139053
0.15025
0.164505
0.181869
0.202365
0.226125
0.252587
0.281321
0.311729
0.343493
0.376272
0.409905
0.444208
0.47903
0.514219
0.549669
0.585306
0.621059
0.656862
0.69265
0.728367
0.763973
0.799438
0.83476
0.869944
0.905006
0.93997
0.974865
1.00972
1.04456
1.07941
1.11429
1.14921
1.18417
1.21918
1.25421
1.28928
1.32434
1.3594
1.39441
1.42937
1.46424
1.499
1.53364
1.56813
1.60245
1.63658
1.67051
1.7042
1.73767
1.77089
1.80386
1.83657
1.869
1.90115
1.93299
1.96452
1.99572
2.02656
2.05702
2.08707
2.11669
2.14583
2.17447
2.20256
2.23008
2.25699
2.28325
2.30882
2.33366
2.35774
2.38103
2.40348
2.42507
2.44578
2.46557
2.48442
2.50231
2.51922
2.53514
2.55007
2.56399
2.5769
2.58881
2.5997
2.60958
2.61846
2.62634
2.63322
2.6391
2.644
2.64792
2.65087
2.65284
2.65377
2.65395
2.65326
2.65158
2.64899
2.6455
2.64113
2.63588
2.62979
2.62285
2.6151
2.60656
2.59724
2.58718
2.57639
2.56491
2.55276
2.53998
2.52659
2.51264
2.49814
2.48314
2.46767
2.45178
2.43553
2.41896
2.40213
2.38507
2.36785
2.35049
2.33306
2.31556
2.29804
2.28052
2.26302
2.24558
2.22823
2.211
2.19394
2.17707
2.16042
2.14399
2.12772
2.11148
2.09406
2.07259
2.23014e-05
0.000619786
0.00410494
0.0129665
0.0219811
0.0279867
0.0314281
0.0331539
0.0337663
0.0336579
0.0330975
0.0321137
0.0309191
0.0296146
0.0282785
0.0269686
0.025723
0.0245627
0.023494
0.0225111
0.0215999
0.020738
0.0198912
0.0190059
0.0180239
0.0169363
0.0158052
0.015058
0.0153973
0.0185685
0.0271372
0.0437897
0.0654158
0.0869317
0.105819
0.12004
0.129781
0.137071
0.144111
0.152652
0.164391
0.179527
0.198142
0.220172
0.245222
0.272819
0.302246
0.333024
0.364803
0.397416
0.430734
0.464685
0.499207
0.534253
0.569775
0.605731
0.642078
0.678757
0.715708
0.752876
0.790209
0.827664
0.865209
0.902824
0.940504
0.978248
1.01607
1.05398
1.09199
1.13013
1.1684
1.20681
1.24538
1.28408
1.32292
1.36187
1.40091
1.44002
1.47916
1.5183
1.5574
1.59644
1.63538
1.67419
1.71285
1.75132
1.78959
1.82762
1.8654
1.90291
1.94014
1.97708
2.01371
2.05004
2.08603
2.12168
2.15695
2.19185
2.22634
2.2604
2.294
2.32709
2.35965
2.39164
2.42303
2.45377
2.48384
2.51317
2.54174
2.56949
2.5964
2.6224
2.64748
2.67159
2.69471
2.71679
2.73781
2.75776
2.7766
2.79432
2.81092
2.82639
2.84071
2.8539
2.86594
2.87685
2.88662
2.89527
2.90279
2.9092
2.91449
2.91869
2.9218
2.92379
2.92465
2.92467
2.92363
2.92154
2.91842
2.91431
2.90922
2.90315
2.89615
2.88821
2.87937
2.86965
2.85907
2.84766
2.83544
2.82246
2.80873
2.7943
2.7792
2.76346
2.74712
2.73022
2.7128
2.69491
2.67661
2.65794
2.63897
2.61974
2.6003
2.58071
2.561
2.54121
2.52136
2.5015
2.48165
2.46184
2.44213
2.42254
2.40313
2.38394
2.36501
2.34638
2.32799
2.30976
2.29062
2.26806
6.58339e-05
0.00169323
0.00970986
0.0223804
0.0305315
0.0349728
0.0371464
0.0379129
0.0377771
0.0370494
0.035818
0.0343197
0.0326838
0.0310158
0.0293957
0.027879
0.026497
0.0252607
0.0241655
0.0231981
0.0223429
0.0215978
0.0209427
0.0203989
0.0200998
0.0202944
0.0214688
0.0244396
0.0308037
0.0436458
0.0621014
0.0822489
0.102034
0.119031
0.131812
0.140539
0.147013
0.153807
0.162963
0.175396
0.191438
0.211015
0.233798
0.25933
0.286989
0.316216
0.346524
0.377654
0.409478
0.441952
0.475057
0.508793
0.543165
0.578177
0.613825
0.650087
0.686928
0.724309
0.762183
0.8005
0.839213
0.878278
0.91766
0.957333
0.99728
1.03749
1.07797
1.11872
1.15974
1.20105
1.24264
1.28451
1.32666
1.36907
1.41173
1.4546
1.49765
1.54084
1.58412
1.62744
1.67077
1.71405
1.75724
1.80031
1.84322
1.88593
1.92842
1.97066
2.01261
2.05425
2.09558
2.13657
2.17722
2.21751
2.25742
2.29694
2.33604
2.37471
2.41291
2.45063
2.48782
2.52446
2.5605
2.59591
2.63065
2.66467
2.69794
2.73041
2.76202
2.79273
2.82249
2.85126
2.87899
2.90564
2.93118
2.95557
2.97878
3.00078
3.02155
3.04108
3.05934
3.07633
3.09205
3.10649
3.11966
3.13155
3.14219
3.15156
3.15969
3.16657
3.17221
3.17665
3.17987
3.18185
3.18263
3.1824
3.181
3.17844
3.17477
3.17
3.16415
3.15724
3.14929
3.14032
3.13036
3.11943
3.10756
3.09478
3.08111
3.0666
3.05127
3.03517
3.01833
3.00079
2.98259
2.96376
2.94436
2.92444
2.90406
2.88327
2.86214
2.84071
2.81904
2.79717
2.77516
2.75304
2.73084
2.70859
2.68634
2.66413
2.642
2.62
2.59819
2.57662
2.55535
2.53441
2.51379
2.49343
2.47233
2.44821
0.00017039
0.0040199
0.0183083
0.0309559
0.0376843
0.0409643
0.0422582
0.0422808
0.0415211
0.0401068
0.0383239
0.0363397
0.0342949
0.0323032
0.0304485
0.0287856
0.0273432
0.0261269
0.0251262
0.024319
0.0236632
0.0231926
0.0229122
0.0231093
0.024298
0.0273336
0.0336107
0.0443241
0.0592777
0.0765431
0.0944846
0.111451
0.126017
0.137286
0.14567
0.152685
0.160391
0.170448
0.18375
0.200516
0.220558
0.24347
0.268756
0.295886
0.324337
0.353716
0.383791
0.41448
0.445775
0.477706
0.51031
0.543629
0.577701
0.612552
0.648189
0.684606
0.72179
0.759712
0.798337
0.837623
0.87753
0.918017
0.959049
1.0006
1.04265
1.08518
1.12818
1.17165
1.21559
1.25998
1.30484
1.35014
1.39587
1.44201
1.48851
1.53535
1.58247
1.6298
1.6773
1.7249
1.77254
1.82016
1.8677
1.91512
1.96237
2.00943
2.05625
2.10278
2.149
2.19487
2.24039
2.28552
2.33028
2.37462
2.41854
2.46202
2.50502
2.54753
2.58953
2.63097
2.67184
2.71208
2.75166
2.79054
2.82868
2.86603
2.90254
2.93816
2.97284
3.00653
3.03916
3.0707
3.10109
3.13028
3.15824
3.18492
3.21029
3.23432
3.25699
3.27826
3.29814
3.31661
3.33367
3.34931
3.36354
3.37637
3.38779
3.39782
3.40648
3.41376
3.41969
3.42428
3.42755
3.42944
3.43008
3.42952
3.4277
3.42462
3.42033
3.41484
3.40817
3.40036
3.39141
3.38136
3.37023
3.35805
3.34485
3.33066
3.31551
3.29944
3.28248
3.26467
3.24606
3.22668
3.20657
3.18578
3.16437
3.14239
3.11991
3.09698
3.07366
3.05001
3.02607
3.00191
2.97756
2.95307
2.92847
2.90381
2.87912
2.85446
2.82988
2.80542
2.78116
2.75716
2.73347
2.71015
2.6872
2.66457
2.64133
2.61532
0.000380224
0.00819921
0.0272149
0.0386753
0.0441717
0.0465903
0.0471951
0.0466237
0.0452147
0.0432483
0.0409547
0.0385271
0.036129
0.0338903
0.0319041
0.03023
0.0289058
0.0279419
0.0273271
0.0271276
0.0273612
0.0282151
0.02996
0.0331391
0.0386915
0.0472466
0.0586124
0.072218
0.0872272
0.102422
0.116632
0.128977
0.1392
0.147722
0.155674
0.164571
0.175706
0.18981
0.207026
0.227124
0.249704
0.274308
0.30048
0.327806
0.355957
0.384738
0.414076
0.443985
0.474518
0.505742
0.537726
0.570535
0.604218
0.63881
0.674336
0.710808
0.748224
0.786569
0.82582
0.865947
0.906918
0.948699
0.991261
1.03458
1.07862
1.12338
1.16884
1.21498
1.2618
1.30928
1.35741
1.40617
1.45552
1.50543
1.55585
1.60672
1.65798
1.70956
1.76137
1.81333
1.86537
1.91741
1.96938
2.02123
2.07292
2.12439
2.17561
2.22652
2.27709
2.32727
2.37704
2.4264
2.47533
2.5238
2.5718
2.6193
2.66626
2.71268
2.75851
2.80374
2.84832
2.8922
2.93535
2.97773
3.01928
3.05996
3.09971
3.13848
3.17622
3.21286
3.24834
3.2826
3.3156
3.34727
3.37759
3.40649
3.43396
3.45994
3.48441
3.50735
3.52875
3.5486
3.56689
3.58362
3.5988
3.61244
3.62454
3.63512
3.64419
3.65176
3.65785
3.66249
3.66569
3.66742
3.66779
3.66683
3.66449
3.6608
3.65581
3.64952
3.64196
3.63317
3.62316
3.61196
3.5996
3.58611
3.57152
3.55587
3.53918
3.52151
3.50287
3.48332
3.4629
3.44164
3.41959
3.39681
3.37336
3.34929
3.32468
3.29958
3.27405
3.24814
3.22192
3.19543
3.16871
3.14183
3.11481
3.08769
3.06054
3.0334
3.00633
2.97938
2.95264
2.92615
2.89999
2.87422
2.84885
2.82386
2.79839
2.77042
0.000731471
0.0143775
0.0352408
0.0456555
0.0504178
0.052253
0.0523214
0.0512023
0.0492686
0.0468165
0.0441015
0.0413474
0.0387438
0.0364406
0.0345471
0.0331287
0.032263
0.0319588
0.0321698
0.033129
0.0351033
0.0384566
0.0435683
0.0506984
0.0596946
0.0703002
0.0821999
0.0948085
0.107394
0.119254
0.129968
0.139517
0.148309
0.157215
0.167293
0.179446
0.194171
0.211549
0.231367
0.253271
0.276876
0.301817
0.327773
0.354492
0.381808
0.409653
0.438041
0.467032
0.49671
0.527165
0.558481
0.590727
0.623967
0.658251
0.693617
0.730089
0.767679
0.806387
0.846205
0.887114
0.929095
0.972124
1.01618
1.06123
1.10726
1.15426
1.20219
1.25104
1.3008
1.35143
1.40291
1.45521
1.50827
1.56206
1.61649
1.6715
1.72699
1.78289
1.83908
1.89548
1.95199
2.00851
2.06496
2.12129
2.17743
2.23335
2.289
2.34431
2.39925
2.45376
2.50783
2.56143
2.61455
2.66718
2.71927
2.77081
2.82175
2.87208
2.92176
2.97076
3.01904
3.06655
3.11325
3.15908
3.204
3.24795
3.29089
3.33274
3.37344
3.41294
3.45116
3.48804
3.52352
3.55755
3.59009
3.62107
3.65047
3.67824
3.70436
3.7288
3.75155
3.7726
3.79195
3.8096
3.82556
3.83983
3.85243
3.86339
3.87269
3.88039
3.88648
3.89101
3.89399
3.89542
3.89539
3.89389
3.89091
3.8865
3.88069
3.8735
3.86496
3.8551
3.84394
3.83151
3.81785
3.80298
3.78695
3.76978
3.75151
3.73219
3.71184
3.69051
3.66824
3.64507
3.62106
3.59626
3.57075
3.54458
3.51782
3.49054
3.46279
3.43464
3.40612
3.3773
3.34822
3.31893
3.28947
3.25989
3.23026
3.20064
3.17107
3.14164
3.11239
3.0834
3.05474
3.02648
2.99864
2.97123
2.94344
2.91347
0.00119801
0.0211808
0.0425818
0.0524729
0.0567936
0.0581905
0.0578579
0.0563106
0.0539672
0.0511716
0.048224
0.0453836
0.0428682
0.0408596
0.0395231
0.0389827
0.0390672
0.0400078
0.0418788
0.0448472
0.049071
0.0546739
0.0616876
0.0700053
0.0793907
0.0895188
0.100009
0.110474
0.120594
0.130224
0.139441
0.148623
0.158404
0.169482
0.182416
0.197503
0.214768
0.234031
0.255008
0.277397
0.30092
0.32534
0.350471
0.376188
0.402432
0.429208
0.456573
0.484611
0.513425
0.54311
0.573758
0.605452
0.638266
0.67226
0.707485
0.74398
0.78177
0.820871
0.86129
0.903026
0.946073
0.990417
1.03604
1.08292
1.13105
1.18039
1.23093
1.28265
1.33549
1.38944
1.44444
1.50045
1.55741
1.61523
1.67383
1.7331
1.79293
1.85322
1.91387
1.97474
2.03573
2.09673
2.15764
2.21841
2.27897
2.33929
2.39929
2.45894
2.51817
2.57694
2.63521
2.69298
2.75024
2.80694
2.86307
2.91857
2.97342
3.02758
3.08102
3.1337
3.18558
3.23661
3.28674
3.33591
3.38407
3.43115
3.4771
3.52186
3.56536
3.60753
3.64829
3.68757
3.72532
3.76148
3.79599
3.8288
3.85989
3.8892
3.9167
3.94238
3.96622
3.98821
4.00836
4.02666
4.04314
4.05779
4.07065
4.08172
4.09104
4.09862
4.1045
4.1087
4.11126
4.11219
4.11157
4.10938
4.10561
4.10033
4.09357
4.08535
4.07571
4.06467
4.05227
4.03853
4.02349
4.00717
3.98963
3.97089
3.951
3.92999
3.90791
3.88478
3.86064
3.83554
3.80956
3.78274
3.75517
3.72692
3.69803
3.66859
3.63864
3.60825
3.57746
3.54634
3.51491
3.48323
3.45136
3.41935
3.38727
3.35518
3.32315
3.29124
3.25951
3.22804
3.19688
3.16612
3.1358
3.10595
3.07581
3.04379
0.00175408
0.0276096
0.0496883
0.0594475
0.0634909
0.0645923
0.0639333
0.0620542
0.0594408
0.0565042
0.0536029
0.0510247
0.0489892
0.0477712
0.0473814
0.0477822
0.0491331
0.0514562
0.0547781
0.0591377
0.0645501
0.0709765
0.0782968
0.0863345
0.0948864
0.103737
0.112714
0.121712
0.130727
0.139893
0.149517
0.160023
0.171828
0.185243
0.200416
0.217326
0.235827
0.255708
0.276747
0.298742
0.321528
0.344975
0.369002
0.393568
0.418679
0.444382
0.47076
0.497908
0.525932
0.554936
0.585018
0.616271
0.648778
0.682614
0.717843
0.754513
0.792662
0.832323
0.873521
0.91627
0.960576
1.00644
1.05385
1.10281
1.15328
1.20526
1.25871
1.3136
1.36987
1.42747
1.48633
1.54637
1.6075
1.66961
1.73258
1.79627
1.86053
1.92525
1.99032
2.0556
2.12097
2.18632
2.25155
2.3166
2.38141
2.44594
2.51011
2.57385
2.63715
2.69994
2.76221
2.82393
2.8851
2.94567
3.00561
3.06487
3.12341
3.18118
3.23816
3.2943
3.34955
3.40387
3.45718
3.50944
3.56056
3.6105
3.65919
3.70656
3.75254
3.79706
3.84003
3.88138
3.92105
3.95897
3.9951
4.02938
4.06178
4.09225
4.12077
4.14731
4.17187
4.19443
4.21501
4.23361
4.25025
4.26494
4.27771
4.28858
4.29759
4.30476
4.31012
4.31373
4.3156
4.31579
4.31439
4.31127
4.30651
4.30018
4.2923
4.28291
4.27204
4.2597
4.24595
4.2308
4.21429
4.19647
4.17735
4.157
4.13545
4.11274
4.0889
4.06399
4.03798
4.01097
3.98303
3.95424
3.92465
3.89435
3.86339
3.83183
3.79974
3.76717
3.73417
3.70081
3.66709
3.63309
3.59886
3.56447
3.53001
3.49553
3.4611
3.42678
3.39263
3.35872
3.32512
3.2919
3.25912
3.22686
3.1944
3.16037
0.00252342
0.0330615
0.0565409
0.0664888
0.070434
0.0713532
0.0704175
0.0682785
0.0655206
0.0626318
0.0600497
0.058062
0.0568976
0.0565377
0.0569901
0.0584214
0.06077
0.0639972
0.0680826
0.072991
0.0786564
0.0849914
0.0918888
0.0992518
0.106994
0.115059
0.123438
0.132197
0.141481
0.151506
0.162519
0.174745
0.188333
0.203329
0.219689
0.237296
0.256
0.275648
0.296102
0.317251
0.339018
0.361356
0.384253
0.407726
0.431822
0.456613
0.482194
0.508671
0.536148
0.564725
0.594508
0.625596
0.658083
0.692055
0.727587
0.764746
0.803591
0.844172
0.886532
0.930703
0.976706
1.02455
1.07425
1.12578
1.17914
1.23429
1.29121
1.34983
1.4101
1.4719
1.53512
1.59964
1.66533
1.73202
1.79956
1.86776
1.93645
2.0055
2.07478
2.14419
2.21363
2.283
2.3522
2.4212
2.48991
2.55828
2.62623
2.69363
2.76055
2.82694
2.89277
2.95802
3.02267
3.08669
3.15001
3.21261
3.27441
3.33538
3.39547
3.45464
3.51284
3.57
3.62606
3.68095
3.7346
3.78694
3.8379
3.88741
3.93539
3.98176
4.02644
4.06936
4.11043
4.14961
4.18684
4.22206
4.25525
4.28637
4.31539
4.34229
4.36707
4.38971
4.41024
4.42867
4.44501
4.4593
4.47156
4.48182
4.49011
4.49649
4.50098
4.50365
4.50453
4.50372
4.5012
4.49689
4.49092
4.48333
4.47415
4.46341
4.45114
4.43738
4.42216
4.40551
4.38746
4.36806
4.34733
4.32533
4.3021
4.27768
4.25211
4.22544
4.1976
4.16873
4.13891
4.10822
4.07671
4.04444
4.01149
3.97791
3.94377
3.90912
3.87402
3.83852
3.80262
3.76639
3.72991
3.69327
3.65653
3.61978
3.58306
3.54644
3.50998
3.47374
3.43777
3.40218
3.36703
3.33244
3.29773
3.26181
0.00333425
0.0390018
0.0635372
0.0736533
0.0775085
0.0782649
0.077013
0.0745197
0.0716321
0.0690076
0.0670205
0.0659184
0.0655602
0.065879
0.0671401
0.0692707
0.0721947
0.0758518
0.0801924
0.0851687
0.0907266
0.0968234
0.103426
0.110516
0.118092
0.126196
0.134906
0.144338
0.154624
0.165898
0.178253
0.191745
0.206369
0.222069
0.238756
0.256324
0.274673
0.293717
0.313394
0.333665
0.354518
0.375962
0.398027
0.420768
0.444262
0.468573
0.493801
0.520051
0.547434
0.576063
0.606051
0.637508
0.670538
0.705242
0.741712
0.780035
0.820284
0.862528
0.906826
0.953226
1.00176
1.05245
1.10529
1.16027
1.21737
1.27654
1.33774
1.40088
1.46585
1.53252
1.6007
1.67019
1.74077
1.81221
1.88432
1.9569
2.02977
2.10277
2.17571
2.24859
2.32146
2.39421
2.46675
2.53906
2.61105
2.68262
2.75366
2.82412
2.89409
2.96348
3.03226
3.1004
3.16789
3.23468
3.30071
3.36595
3.43032
3.49378
3.55628
3.61777
3.6782
3.7375
3.79561
3.85243
3.9079
3.96193
4.01445
4.06539
4.11467
4.16219
4.20788
4.25166
4.29345
4.33319
4.37083
4.40632
4.43964
4.47074
4.49961
4.52623
4.55059
4.57271
4.59258
4.61025
4.62573
4.63907
4.65028
4.65942
4.66651
4.67161
4.67479
4.6761
4.67562
4.67346
4.6694
4.66361
4.65613
4.64701
4.63627
4.62397
4.61012
4.59476
4.57792
4.55963
4.53994
4.51887
4.49646
4.47276
4.44781
4.42166
4.39436
4.36593
4.33637
4.30576
4.2742
4.24174
4.20844
4.17436
4.13956
4.10409
4.06804
4.03145
3.9944
3.95692
3.919
3.88071
3.84216
3.80344
3.76461
3.72574
3.6869
3.64814
3.60953
3.57111
3.53293
3.49511
3.45774
3.42095
3.38411
3.34651
0.00422578
0.0449271
0.0705191
0.0808236
0.0845761
0.0851071
0.0834397
0.0807172
0.0780028
0.075885
0.074677
0.0742518
0.0743823
0.0753539
0.0771555
0.0797078
0.0829414
0.0868028
0.0912585
0.0962888
0.101882
0.10804
0.114776
0.122127
0.130145
0.138899
0.148462
0.158907
0.17029
0.182635
0.195944
0.210196
0.225333
0.241282
0.257971
0.275338
0.293339
0.311946
0.331155
0.350971
0.371424
0.392559
0.414458
0.437233
0.460912
0.485509
0.5112
0.538097
0.566311
0.595963
0.627178
0.660073
0.694765
0.731373
0.770003
0.810753
0.853713
0.89895
0.94652
0.996478
1.04887
1.10369
1.1609
1.22044
1.28229
1.34637
1.41261
1.48091
1.55114
1.62311
1.69661
1.77133
1.84692
1.92294
1.99926
2.0758
2.15237
2.22877
2.30478
2.38058
2.45621
2.53152
2.60651
2.68126
2.75564
2.8295
2.90283
2.97565
3.04786
3.11938
3.19017
3.26022
3.32951
3.39801
3.46567
3.53242
3.59822
3.66301
3.72677
3.78944
3.85097
3.91129
3.97031
4.02795
4.08413
4.13875
4.19175
4.24305
4.29256
4.34019
4.38586
4.42949
4.471
4.51031
4.54739
4.5822
4.61472
4.64491
4.67274
4.69822
4.72134
4.74211
4.76055
4.77671
4.79061
4.80229
4.81179
4.81916
4.82444
4.82771
4.82902
4.82852
4.82632
4.82217
4.81624
4.8086
4.79928
4.78833
4.77579
4.76169
4.74606
4.72894
4.71035
4.69033
4.66891
4.64612
4.622
4.59659
4.56994
4.54209
4.51308
4.48296
4.45181
4.41964
4.38649
4.35242
4.31749
4.28174
4.24525
4.20806
4.17025
4.13187