/*--------------------------------*- C++ -*----------------------------------*\
  =========                 |
  \\      /  F ield         | OpenFOAM: The Open Source CFD Toolbox
   \\    /   O peration     | Website:  https://openfoam.org
    \\  /    A nd           | Version:  13
     \\/     M anipulation  |
\*---------------------------------------------------------------------------*/
FoamFile
{
    format      ascii;
    class       volScalarField;
    location    "1600";
    object      nut;
}
// * * * * * * * * * * * * * * * * * * * * * * * * * * * * * * * * * * * * * //

dimensions      [0 2 -1 0 0 0 0];

internalField   nonuniform List<scalar> 
12225
(
6.6201e-06
1.31869e-05
1.59863e-05
1.72851e-05
1.76541e-05
1.76664e-05
2.57269e-05
2.20536e-05
2.16057e-05
1.82086e-05
2.02415e-05
1.78042e-05
1.73327e-05
1.68277e-05
2.04247e-05
1.81342e-05
1.68539e-05
3.08768e-05
0.000221404
4.73375e-05
4.08657e-05
3.78887e-05
4.21887e-05
3.80225e-05
4.25813e-05
3.76361e-05
4.00498e-05
4.29592e-05
4.4216e-05
4.5758e-05
4.68124e-05
5.01432e-05
4.54993e-05
4.55052e-05
4.50536e-05
4.85461e-05
0.000585895
0.000294673
0.000185105
0.000117809
9.3709e-05
7.67009e-05
6.82803e-05
5.74956e-05
4.89569e-05
4.1387e-05
3.66142e-05
3.38797e-05
3.12057e-05
3.05997e-05
2.89121e-05
2.8941e-05
2.81027e-05
2.82689e-05
0.000773006
0.000671694
0.000510712
0.000366124
0.000298685
0.000239619
0.000195513
0.000151111
0.000112816
8.03816e-05
5.77419e-05
4.23421e-05
3.20943e-05
2.57421e-05
2.07147e-05
1.76781e-05
1.50416e-05
1.36476e-05
0.000834778
0.000810492
0.000744623
0.00063708
0.000563428
0.000463841
0.000393555
0.000313509
0.000221593
0.000147269
0.000104339
8.00184e-05
6.78798e-05
5.72625e-05
5.1654e-05
4.22712e-05
3.65981e-05
3.28795e-05
0.000849476
0.000842332
0.000823627
0.000776596
0.000725254
0.00063316
0.000537009
0.000469895
0.000316532
0.000202652
0.000165664
0.000137666
0.000119163
0.000109362
0.000104638
9.46736e-05
8.94891e-05
7.53959e-05
0.000851184
0.000850431
0.000842235
0.000824087
0.000803519
0.000718594
0.000641624
0.000536577
0.00042837
0.000306205
0.000239193
0.000212436
0.000198048
0.000169978
0.000165426
0.000160472
0.000153815
0.000143456
0.000850803
0.000852368
0.000847537
0.00084157
0.0008348
0.000792388
0.000720729
0.000610892
0.000516629
0.000430069
0.000366829
0.000324364
0.000300121
0.000278091
0.000265738
0.000253865
0.000251955
0.000247301
0.000851034
0.000851446
0.000849259
0.000847475
0.00084573
0.000832511
0.000791862
0.000719417
0.000649048
0.00058422
0.00053388
0.00049304
0.000466887
0.000443677
0.000430697
0.000416314
0.000409694
0.000400833
0.000851339
0.000850898
0.000849753
0.000848849
0.000849921
0.00084565
0.000830925
0.000795439
0.000756231
0.000716143
0.000683031
0.000653087
0.000631737
0.000611902
0.000599336
0.000585638
0.000578015
0.000566821
0.000851485
0.000850718
0.000849813
0.00084893
0.00084982
0.000849804
0.000845125
0.000832771
0.000815641
0.000796124
0.000779019
0.000762053
0.000748914
0.000735624
0.000726314
0.00071586
0.000709509
0.000699933
0.000851521
0.0008507
0.000849732
0.000849257
0.000848731
0.00084828
0.000848534
0.000844443
0.000837974
0.000829348
0.000821309
0.000812921
0.000805923
0.000798544
0.000792775
0.00078633
0.000781821
0.000775702
0.00085153
0.000850696
0.00084979
0.000849145
0.000848533
0.000847764
0.000847362
0.000846092
0.000844119
0.000841221
0.000838274
0.000834941
0.000831932
0.000828649
0.000825747
0.000822712
0.000820072
0.000816669
0.000851537
0.000850679
0.000849851
0.000849084
0.000848399
0.00084767
0.00084706
0.000846303
0.000845524
0.000844483
0.000843496
0.000842276
0.000841231
0.000839913
0.000838879
0.000837471
0.000836528
0.000835027
0.00085154
0.000850673
0.000849861
0.000849075
0.000848352
0.000847637
0.000846984
0.000846321
0.000845711
0.000845063
0.000844475
0.000843834
0.000843268
0.000842633
0.000842086
0.000841457
0.000840928
0.000840309
0.000851539
0.000850673
0.000849855
0.000849072
0.000848334
0.000847625
0.000846956
0.000846312
0.000845704
0.000845115
0.000844559
0.000844017
0.000843507
0.000843006
0.000842534
0.000842069
0.00084163
0.000841197
0.000851537
0.000850673
0.000849851
0.000849069
0.000848326
0.000847617
0.000846944
0.0008463
0.000845688
0.000845102
0.000844545
0.00084401
0.000843501
0.000843011
0.000842545
0.000842096
0.000841668
0.000841256
0.000851539
0.000850677
0.000849857
0.000849077
0.000848334
0.000847626
0.000846952
0.000846308
0.000845694
0.000845108
0.000844548
0.000844013
0.000843501
0.000843011
0.000842543
0.000842094
0.000841665
0.000841254
0.000851537
0.000850673
0.000849851
0.000849069
0.000848324
0.000847614
0.000846938
0.000846293
0.000845676
0.000845088
0.000844526
0.000843989
0.000843475
0.000842983
0.000842513
0.000842063
0.000841633
0.00084122
0.000851538
0.000850673
0.000849852
0.00084907
0.000848324
0.000847617
0.000846939
0.000846296
0.000845678
0.000845092
0.000844528
0.000843991
0.000843477
0.000842985
0.000842515
0.000842064
0.000841634
0.000841221
0.000851545
0.000850666
0.000849862
0.00084907
0.000848335
0.000847626
0.000846948
0.000846313
0.000845689
0.000845111
0.000844545
0.000844005
0.0008435
0.000842991
0.000842533
0.000842068
0.000841634
0.000841219
0.000851564
0.000850655
0.000849873
0.000849069
0.000848348
0.000847638
0.000846963
0.000846338
0.000845699
0.000845125
0.000844532
0.000843944
0.000843461
0.000842803
0.000842422
0.000841771
0.000841339
0.000840828
0.000851673
0.000850627
0.000849821
0.000849101
0.000848304
0.000847657
0.00084689
0.000846249
0.000845437
0.000844717
0.000843748
0.000842971
0.000841889
0.000841036
0.000839958
0.00083898
0.000837837
0.000836834
0.000852794
0.00084959
0.000849496
0.000848625
0.000847848
0.000846659
0.000845388
0.000843847
0.00084163
0.000839389
0.000836277
0.000833527
0.000830178
0.000826933
0.000823339
0.000820105
0.000816316
0.00081308
0.000857734
0.000837339
0.000844437
0.000841355
0.000839937
0.000834372
0.000829497
0.000822461
0.000813046
0.000804006
0.000792228
0.000782988
0.000771096
0.000762298
0.000751504
0.000743115
0.000733046
0.000724978
0.000841233
0.000731105
0.000791176
0.000792296
0.000786458
0.000767137
0.000742471
0.000717936
0.00069092
0.00066806
0.000642429
0.000623639
0.000601154
0.000586478
0.000567619
0.000555572
0.000539631
0.000528962
0.000519882
0.000529104
0.000612794
0.000616293
0.00057821
0.000531935
0.000487218
0.000451358
0.000416956
0.000392577
0.000366208
0.000349531
0.000329515
0.000317564
0.000302644
0.000292943
0.000281952
0.000272974
0.00013818
0.000191124
0.00024695
0.000248078
0.000224755
0.00019875
0.000178601
0.00016284
0.000150084
0.000140838
0.000132037
0.000126353
0.000120144
0.000116335
0.000111815
0.000108947
0.00010553
0.000103102
2.84536e-05
4.31634e-05
5.6925e-05
5.88464e-05
5.69133e-05
5.53436e-05
5.42125e-05
5.38816e-05
5.40241e-05
5.44938e-05
5.54474e-05
5.65024e-05
5.79376e-05
5.92657e-05
6.10459e-05
6.10402e-05
6.14929e-05
6.15648e-05
1.09827e-05
1.56858e-05
1.88894e-05
2.07872e-05
2.1833e-05
2.21058e-05
2.21418e-05
2.2034e-05
2.17321e-05
2.13976e-05
2.10602e-05
2.0737e-05
2.04386e-05
2.01683e-05
1.9926e-05
1.97146e-05
1.95296e-05
1.93679e-05
1.34656e-12
1.52293e-10
7.78392e-10
3.06557e-09
1.02589e-08
3.1175e-08
8.28319e-08
1.67011e-07
2.73719e-07
3.87489e-07
4.90242e-07
5.70245e-07
6.2404e-07
6.43991e-07
6.35934e-07
6.10072e-07
5.59358e-07
4.80484e-07
4.04008e-07
3.41043e-07
2.82968e-07
2.27452e-07
1.74812e-07
1.2614e-07
8.30128e-08
4.94639e-08
2.68531e-08
1.37904e-08
7.07576e-09
3.82219e-09
2.25782e-09
1.58163e-09
1.55117e-09
2.76799e-09
6.68352e-09
1.69892e-08
6.97446e-08
1.5837e-07
2.79794e-07
3.56668e-07
3.43679e-07
2.91589e-07
2.30024e-07
2.06446e-07
2.23699e-07
2.94598e-07
3.95156e-07
6.90698e-07
1.33203e-06
3.30233e-06
1.00907e-05
2.28409e-05
3.39271e-05
4.03876e-05
4.49504e-05
4.9614e-05
4.85432e-05
4.61479e-05
4.42143e-05
3.99877e-05
3.2726e-05
3.50979e-05
3.68348e-05
2.88238e-05
3.28796e-05
3.24525e-05
3.32526e-05
3.38659e-05
3.43749e-05
3.49901e-05
3.55141e-05
3.60819e-05
3.66164e-05
3.71606e-05
3.76945e-05
3.82283e-05
3.87591e-05
3.92874e-05
3.98151e-05
4.03397e-05
4.08654e-05
4.13872e-05
4.19107e-05
4.24301e-05
4.29519e-05
4.34695e-05
4.39889e-05
4.45042e-05
4.50203e-05
4.55333e-05
4.60458e-05
4.65555e-05
4.70631e-05
4.75663e-05
4.80669e-05
4.85623e-05
4.90548e-05
4.95416e-05
5.00257e-05
5.05051e-05
5.09835e-05
5.14604e-05
5.19411e-05
5.24321e-05
5.2927e-05
5.3424e-05
5.39252e-05
5.44335e-05
5.49472e-05
5.54701e-05
5.59999e-05
5.65404e-05
5.70896e-05
5.76511e-05
5.82232e-05
5.88091e-05
5.94079e-05
6.00221e-05
6.06514e-05
6.12976e-05
6.19614e-05
6.26444e-05
6.33483e-05
6.40739e-05
6.4824e-05
6.55991e-05
6.6403e-05
6.72364e-05
6.81052e-05
6.90169e-05
6.99603e-05
7.08995e-05
7.19527e-05
7.29562e-05
7.40888e-05
7.5247e-05
7.64897e-05
7.77769e-05
7.77108e-05
7.74612e-05
7.7196e-05
7.69195e-05
7.66308e-05
7.6331e-05
7.60204e-05
7.56994e-05
7.53684e-05
7.50279e-05
7.46787e-05
7.43205e-05
7.39541e-05
7.35794e-05
7.31971e-05
7.28074e-05
7.24107e-05
7.20083e-05
7.16004e-05
7.11882e-05
7.07727e-05
7.03547e-05
6.9936e-05
6.95172e-05
6.90998e-05
6.8684e-05
6.82709e-05
6.78609e-05
6.74545e-05
6.70516e-05
6.66541e-05
6.6261e-05
6.5874e-05
6.54913e-05
6.51142e-05
6.47389e-05
6.43633e-05
6.39766e-05
6.35708e-05
6.3112e-05
6.25558e-05
6.10958e-05
6.86226e-12
1.119e-09
1.50674e-08
7.86407e-08
3.37383e-07
1.09511e-06
2.56092e-06
4.71172e-06
7.35466e-06
1.03841e-05
1.34564e-05
1.63395e-05
1.87736e-05
2.05587e-05
2.16419e-05
2.19349e-05
2.16968e-05
2.05513e-05
1.87666e-05
1.55925e-05
1.20656e-05
8.86304e-06
6.23203e-06
4.17968e-06
2.63511e-06
1.63311e-06
9.96053e-07
6.18734e-07
3.86416e-07
2.49762e-07
1.76783e-07
1.4164e-07
1.44042e-07
2.06592e-07
4.61438e-07
1.00371e-06
4.33181e-06
9.4839e-06
1.56281e-05
1.92491e-05
1.93012e-05
1.77964e-05
1.53018e-05
1.38821e-05
1.48689e-05
1.62827e-05
1.70942e-05
2.14387e-05
3.03892e-05
4.08033e-05
5.16017e-05
6.20139e-05
7.05899e-05
7.81583e-05
8.65165e-05
9.87068e-05
0.000109634
0.000122361
0.000134925
0.000147223
0.000158241
0.00017268
0.000187269
0.000195882
0.000208997
0.000220263
0.000231633
0.000242532
0.000252947
0.000262976
0.000272719
0.000282116
0.00029128
0.000300185
0.00030889
0.000317396
0.000325736
0.000333913
0.000341948
0.000349844
0.000357617
0.000365269
0.00037281
0.000380245
0.000387585
0.000394831
0.000401995
0.000409077
0.00041609
0.000423036
0.000429929
0.000436768
0.000443565
0.000450312
0.000457019
0.000463668
0.000470259
0.000476764
0.000483167
0.00048942
0.000495472
0.000501226
0.000506566
0.000511336
0.000515916
0.000520383
0.000524734
0.000528954
0.000533048
0.000537006
0.000540825
0.0005445
0.000548027
0.000551401
0.000554618
0.000557676
0.00056057
0.0005633
0.000565861
0.000568253
0.000570472
0.000572522
0.0005744
0.000576108
0.000577645
0.000579011
0.000580206
0.00058123
0.000582084
0.000582772
0.000583321
0.000583667
0.000583944
0.000583935
0.000583823
0.000583546
0.000583266
0.000583018
0.000582901
0.00058268
0.000582312
0.000581801
0.000581153
0.000580369
0.000579452
0.000578404
0.000577225
0.000575913
0.000574498
0.000572963
0.000571311
0.000569545
0.000567667
0.000565675
0.000563581
0.000561382
0.000559084
0.000556708
0.000554242
0.000551716
0.000549124
0.000546488
0.000543809
0.000541098
0.000538363
0.000535604
0.000532826
0.00053003
0.000527225
0.000524411
0.000521592
0.000518758
0.000515906
0.000513012
0.000510026
0.000506857
0.00050339
0.000499313
0.00049394
0.000478747
1.64811e-11
2.80616e-09
5.29069e-08
3.14443e-07
1.10722e-06
2.71791e-06
5.86092e-06
1.02609e-05
1.57851e-05
2.20928e-05
2.88953e-05
3.55086e-05
4.14918e-05
4.65137e-05
5.03878e-05
5.29059e-05
5.44246e-05
5.47179e-05
5.34439e-05
5.05593e-05
4.64263e-05
4.04296e-05
3.33934e-05
2.6286e-05
1.97044e-05
1.4075e-05
9.53067e-06
6.35101e-06
4.00235e-06
2.6443e-06
1.84136e-06
1.41908e-06
1.21164e-06
1.30249e-06
3.12502e-06
7.49841e-06
2.23349e-05
4.05966e-05
5.35526e-05
5.7818e-05
5.29389e-05
4.1342e-05
3.59867e-05
3.8418e-05
4.58917e-05
5.36347e-05
6.4069e-05
7.61635e-05
8.82734e-05
0.000101459
0.000118246
0.000136311
0.00015703
0.000180422
0.000207867
0.000238167
0.000268584
0.000299718
0.000329947
0.000359588
0.00038787
0.00041534
0.000442071
0.0004667
0.000491054
0.00051413
0.000536249
0.000557487
0.00057794
0.000597735
0.000616972
0.00063568
0.000653961
0.000671834
0.00068936
0.00070656
0.000723468
0.000740101
0.000756479
0.000772614
0.000788522
0.000804212
0.000819696
0.000834982
0.000850082
0.000865004
0.000879757
0.000894346
0.000908783
0.000923076
0.000937229
0.000951246
0.000965127
0.000978864
0.000992449
0.00100586
0.00101909
0.00103209
0.00104484
0.00105728
0.00106937
0.00108105
0.00109231
0.00110321
0.0011139
0.00112435
0.00113454
0.00114447
0.00115412
0.00116347
0.00117253
0.00118126
0.00118967
0.00119775
0.00120548
0.00121286
0.00121989
0.00122654
0.00123284
0.00123876
0.0012443
0.00124948
0.00125428
0.00125872
0.0012628
0.0012665
0.00126985
0.00127284
0.00127547
0.00127775
0.00127969
0.00128127
0.00128255
0.00128345
0.00128403
0.00128432
0.00128455
0.0012846
0.00128441
0.00128392
0.00128311
0.00128198
0.00128054
0.00127879
0.00127673
0.00127439
0.00127175
0.00126882
0.00126564
0.00126218
0.00125846
0.00125448
0.00125026
0.00124579
0.00124109
0.00123616
0.00123102
0.0012257
0.0012202
0.00121456
0.00120879
0.00120291
0.00119695
0.00119092
0.00118484
0.00117872
0.00117256
0.00116637
0.00116016
0.00115395
0.00114772
0.00114147
0.00113519
0.00112881
0.00112225
0.00111532
0.00110774
0.00109881
0.00108667
0.00105923
6.07385e-11
1.02887e-08
1.67561e-07
7.01983e-07
2.34877e-06
6.35105e-06
1.27744e-05
2.14375e-05
3.17183e-05
4.25845e-05
5.31309e-05
6.28614e-05
7.12827e-05
7.79445e-05
8.29593e-05
8.63889e-05
8.79619e-05
8.80252e-05
8.67097e-05
8.39516e-05
7.97503e-05
7.41419e-05
6.73742e-05
5.87565e-05
4.91432e-05
3.94183e-05
3.03271e-05
2.27662e-05
1.68916e-05
1.22625e-05
9.23266e-06
6.96516e-06
6.24641e-06
8.08247e-06
1.62052e-05
3.47996e-05
5.49745e-05
6.87752e-05
7.12248e-05
6.73782e-05
6.55692e-05
6.74061e-05
7.28895e-05
8.19061e-05
9.40184e-05
0.000107907
0.000120654
0.00014223
0.000163303
0.000191589
0.000223319
0.000258998
0.000298144
0.000340139
0.000384344
0.000429208
0.00047358
0.000517186
0.000559294
0.000600009
0.000639126
0.000676673
0.000712915
0.000747571
0.00078101
0.000813128
0.000844147
0.000874205
0.000903403
0.00093186
0.000959662
0.000986874
0.00101357
0.00103978
0.00106557
0.00109094
0.00111594
0.00114058
0.00116487
0.00118883
0.00121246
0.00123578
0.0012588
0.00128152
0.00130396
0.00132612
0.00134801
0.00136963
0.001391
0.00141212
0.00143299
0.00145362
0.001474
0.00149413
0.00151398
0.00153355
0.00155282
0.00157176
0.00159035
0.00160855
0.00162636
0.00164375
0.00166074
0.00167737
0.00169367
0.00170961
0.00172517
0.00174031
0.00175504
0.00176932
0.00178314
0.00179648
0.00180934
0.00182169
0.00183352
0.00184483
0.0018556
0.00186584
0.00187552
0.00188466
0.00189325
0.00190129
0.00190878
0.00191574
0.00192217
0.00192806
0.00193343
0.00193827
0.0019426
0.00194643
0.00194974
0.00195254
0.00195486
0.0019567
0.00195801
0.00195896
0.00195972
0.00196
0.00195985
0.00195924
0.00195816
0.00195662
0.00195461
0.00195215
0.00194924
0.00194589
0.00194211
0.0019379
0.0019333
0.00192829
0.0019229
0.00191712
0.00191098
0.00190447
0.00189762
0.00189043
0.00188293
0.00187515
0.00186711
0.00185886
0.0018504
0.00184179
0.00183305
0.0018242
0.00181527
0.00180627
0.00179722
0.00178812
0.00177898
0.00176983
0.00176066
0.00175147
0.00174222
0.00173286
0.00172326
0.0017132
0.00170227
0.00168947
0.00167247
0.00164004
2.00455e-10
3.04762e-08
3.69806e-07
1.76374e-06
6.08735e-06
1.48565e-05
2.77903e-05
4.34099e-05
5.98367e-05
7.56522e-05
8.95781e-05
0.000100877
0.000109302
0.000115349
0.000118773
0.000120269
0.000120145
0.000118652
0.000115977
0.000112218
0.000107144
0.000101278
9.45674e-05
8.62144e-05
7.65106e-05
6.56979e-05
5.43974e-05
4.3944e-05
3.50844e-05
2.80721e-05
2.20648e-05
1.93088e-05
2.10316e-05
3.11801e-05
5.33535e-05
7.21004e-05
8.23139e-05
8.6758e-05
8.89275e-05
9.20104e-05
9.80363e-05
0.000108071
0.000123002
0.000134903
0.000149168
0.000172953
0.000201468
0.000235217
0.000273306
0.000317902
0.00036507
0.000415703
0.000468251
0.000522082
0.000576237
0.000629839
0.000682368
0.000733574
0.000783044
0.000831028
0.00087731
0.000922565
0.000966038
0.00100806
0.00104878
0.00108828
0.00112671
0.00116417
0.00120078
0.00123662
0.00127177
0.00130629
0.00134024
0.00137367
0.00140659
0.00143904
0.00147103
0.00150258
0.00153369
0.00156439
0.00159466
0.00162452
0.00165398
0.00168304
0.00171171
0.00173999
0.0017679
0.00179544
0.00182261
0.00184942
0.00187587
0.00190196
0.0019277
0.00195307
0.00197807
0.00200268
0.00202689
0.00205069
0.00207406
0.002097
0.00211949
0.00214154
0.00216314
0.00218429
0.002205
0.00222522
0.00224494
0.00226412
0.00228276
0.00230083
0.00231831
0.00233518
0.00235143
0.00236703
0.00238199
0.00239629
0.00240992
0.00242288
0.00243516
0.00244677
0.00245769
0.00246795
0.00247753
0.00248645
0.00249472
0.00250234
0.00250932
0.00251566
0.00252138
0.00252648
0.00253096
0.0025348
0.00253802
0.00254068
0.00254267
0.00254426
0.00254546
0.00254604
0.00254606
0.0025455
0.00254437
0.00254266
0.00254039
0.00253756
0.00253418
0.00253025
0.00252579
0.00252081
0.00251532
0.00250935
0.00250288
0.00249595
0.00248856
0.00248072
0.00247245
0.00246377
0.0024547
0.00244527
0.00243552
0.00242549
0.0024152
0.0024047
0.00239402
0.0023832
0.00237225
0.00236121
0.00235007
0.00233887
0.00232761
0.0023163
0.00230496
0.00229356
0.0022821
0.00227051
0.00225867
0.00224636
0.00223317
0.002218
0.00219834
0.00216574
6.24592e-10
7.49157e-08
9.09968e-07
4.62166e-06
1.54086e-05
3.29852e-05
5.44022e-05
7.66237e-05
9.68339e-05
0.000112889
0.000124841
0.000133892
0.000139896
0.000143485
0.000145134
0.000145145
0.000143748
0.000141121
0.000137457
0.000132804
0.000127089
0.000120781
0.000113617
0.000105216
9.57103e-05
8.24438e-05
6.76908e-05
5.37594e-05
4.18618e-05
3.43246e-05
3.20588e-05
3.67141e-05
5.17592e-05
7.38028e-05
9.1317e-05
0.000102284
0.000108679
0.000113583
0.000120437
0.000131914
0.000148588
0.000158182
0.000173902
0.00019883
0.000228477
0.000265515
0.00030808
0.00035616
0.000408369
0.00046434
0.000521958
0.000581355
0.000641369
0.000701521
0.000761167
0.000819867
0.000877331
0.000933149
0.000987702
0.00104111
0.00109285
0.00114331
0.00119228
0.00123994
0.0012864
0.00133174
0.00137606
0.00141946
0.00146202
0.00150383
0.00154493
0.00158539
0.00162525
0.00166453
0.00170327
0.00174147
0.00177915
0.00181631
0.00185297
0.00188911
0.00192474
0.00195987
0.0019945
0.00202863
0.00206228
0.00209543
0.00212811
0.00216031
0.00219204
0.0022233
0.00225409
0.00228441
0.00231428
0.00234368
0.00237261
0.00240106
0.00242903
0.00245649
0.00248346
0.00250991
0.00253585
0.00256128
0.00258617
0.00261052
0.0026343
0.0026575
0.00268009
0.00270205
0.00272336
0.00274401
0.00276396
0.00278321
0.00280174
0.00281954
0.00283659
0.0028529
0.00286846
0.00288325
0.00289729
0.00291057
0.00292309
0.00293486
0.00294589
0.00295618
0.00296575
0.00297459
0.00298273
0.00299016
0.0029969
0.00300297
0.00300834
0.00301294
0.00301693
0.00302024
0.00302282
0.00302498
0.00302658
0.0030275
0.00302778
0.00302741
0.00302641
0.00302477
0.0030225
0.00301962
0.00301612
0.00301202
0.00300731
0.00300204
0.0029962
0.0029898
0.00298287
0.00297541
0.00296743
0.00295895
0.00294999
0.00294056
0.00293068
0.0029204
0.00290975
0.00289875
0.00288746
0.00287591
0.00286413
0.00285216
0.00284003
0.00282775
0.00281535
0.00280285
0.00279025
0.00277758
0.00276484
0.00275204
0.00273917
0.00272617
0.00271294
0.0026993
0.00268486
0.00266867
0.00264832
0.00261761
1.94547e-09
1.86302e-07
2.36988e-06
1.25938e-05
3.37361e-05
6.12087e-05
8.90829e-05
0.000112817
0.000131135
0.000144507
0.000153949
0.000159644
0.000162599
0.000163578
0.000163091
0.000161437
0.000158786
0.000155244
0.000150782
0.000145368
0.000139077
0.000131975
0.000123646
0.000111088
9.44744e-05
7.94041e-05
6.53944e-05
5.38066e-05
4.74427e-05
5.02623e-05
6.34438e-05
8.34616e-05
0.00010418
0.000118107
0.000128235
0.000135719
0.000143463
0.000155228
0.00017076
0.000179264
0.000195131
0.000219171
0.000248302
0.000285349
0.000328181
0.000377747
0.000431919
0.000489922
0.000550464
0.000612889
0.000676193
0.000740123
0.000804007
0.000867489
0.000930213
0.000991582
0.00105199
0.00111145
0.00116947
0.00122625
0.00128168
0.00133589
0.00138883
0.00144061
0.0014913
0.00154098
0.00158971
0.00163758
0.00168465
0.00173098
0.00177662
0.00182162
0.001866
0.00190978
0.00195299
0.00199562
0.00203767
0.00207916
0.00212006
0.00216039
0.00220013
0.00223928
0.00227784
0.00231583
0.00235322
0.00239005
0.00242629
0.00246197
0.00249707
0.0025316
0.00256558
0.00259899
0.00263184
0.00266414
0.00269587
0.00272704
0.00275764
0.00278766
0.0028171
0.00284593
0.00287416
0.00290176
0.00292873
0.00295506
0.00298073
0.00300574
0.00303006
0.00305367
0.00307657
0.00309872
0.00312013
0.00314078
0.00316066
0.00317979
0.00319813
0.00321568
0.00323243
0.00324839
0.00326354
0.0032779
0.00329146
0.00330423
0.00331622
0.00332743
0.00333788
0.00334757
0.00335652
0.00336472
0.0033722
0.003379
0.00338499
0.00339023
0.00339481
0.00339865
0.00340173
0.00340437
0.00340634
0.0034076
0.00340817
0.00340807
0.0034073
0.00340586
0.00340376
0.00340101
0.00339762
0.00339365
0.00338908
0.00338391
0.00337814
0.0033718
0.00336488
0.00335741
0.0033494
0.00334086
0.00333179
0.00332223
0.00331219
0.00330171
0.00329082
0.00327955
0.00326794
0.00325602
0.00324384
0.00323142
0.00321879
0.00320598
0.00319299
0.00317986
0.00316659
0.00315321
0.00313973
0.00312617
0.00311252
0.00309875
0.00308478
0.00307047
0.00305553
0.00303913
0.00301943
0.00299156
5.74305e-09
4.84105e-07
6.2209e-06
2.72079e-05
5.89705e-05
9.19591e-05
0.00011953
0.000140518
0.000155662
0.00016589
0.000171794
0.000174686
0.000175413
0.000174623
0.000172694
0.000169849
0.000166134
0.000161434
0.000155776
0.000149295
0.00014222
0.000134395
0.000121849
0.000105634
9.18315e-05
8.14768e-05
7.63909e-05
7.79643e-05
7.92821e-05
9.24738e-05
0.000114766
0.000136923
0.000152642
0.00016172
0.000170814
0.000182555
0.000191075
0.000198891
0.000213445
0.000235179
0.000262696
0.000297722
0.000338772
0.000386702
0.000439931
0.000498023
0.000559172
0.000622553
0.000687323
0.000752961
0.000818933
0.000884941
0.00095062
0.00101536
0.0010793
0.00114276
0.00120499
0.00126615
0.00132614
0.00138499
0.00144268
0.00149926
0.00155475
0.0016092
0.00166268
0.00171524
0.00176694
0.00181783
0.00186798
0.00191743
0.00196623
0.00201439
0.00206196
0.00210893
0.00215532
0.00220111
0.00224631
0.0022909
0.00233487
0.00237821
0.0024209
0.00246294
0.00250433
0.00254506
0.00258514
0.00262456
0.00266333
0.00270144
0.0027389
0.00277571
0.00281187
0.00284739
0.00288227
0.00291651
0.00295011
0.00298306
0.00301537
0.00304702
0.00307801
0.00310833
0.00313796
0.00316688
0.00319511
0.00322265
0.00324949
0.0032756
0.00330098
0.00332562
0.00334949
0.0033726
0.00339494
0.00341648
0.00343724
0.00345718
0.00347631
0.00349464
0.00351215
0.00352885
0.00354473
0.00355981
0.00357408
0.00358754
0.00360022
0.00361211
0.00362322
0.00363356
0.00364315
0.00365198
0.0036601
0.00366751
0.00367405
0.0036799
0.00368506
0.00368944
0.00369311
0.00369626
0.0036987
0.00370042
0.00370146
0.0037018
0.00370147
0.00370046
0.00369878
0.00369645
0.00369347
0.00368985
0.0036856
0.00368073
0.00367527
0.0036692
0.00366256
0.00365534
0.00364756
0.00363923
0.00363036
0.00362097
0.00361109
0.00360073
0.00358993
0.00357873
0.00356715
0.00355523
0.003543
0.00353049
0.00351773
0.00350473
0.00349152
0.0034781
0.00346452
0.00345078
0.0034369
0.00342292
0.00340882
0.0033946
0.00338022
0.00336557
0.00335043
0.00333426
0.00331559
0.00329097
1.48641e-08
1.18495e-06
1.40896e-05
4.64607e-05
8.58918e-05
0.000120806
0.000147309
0.000165147
0.000176354
0.000182698
0.000185444
0.000185462
0.00018354
0.000180339
0.000176318
0.000171651
0.000166332
0.000160377
0.000153729
0.000146112
0.000137543
0.000126855
0.000111444
0.000100211
9.44844e-05
9.06017e-05
9.22259e-05
0.000103131
0.000121329
0.000141531
0.000161173
0.000178159
0.000191371
0.000199934
0.000207262
0.000215909
0.000229069
0.000248
0.00027313
0.00030513
0.000343309
0.000387941
0.00043815
0.000493723
0.000553336
0.000616017
0.000680539
0.000746274
0.000812718
0.000879498
0.00094628
0.00101264
0.00107827
0.00114366
0.00120823
0.00127194
0.00133463
0.00139632
0.00145697
0.00151659
0.00157519
0.00163278
0.00168942
0.00174512
0.00179996
0.00185397
0.00190721
0.00195972
0.00201154
0.00206272
0.00211332
0.00216334
0.0022128
0.00226173
0.00231011
0.00235791
0.00240513
0.00245175
0.00249774
0.00254309
0.00258776
0.00263174
0.00267502
0.0027176
0.00275947
0.00280063
0.0028411
0.00288089
0.00291998
0.00295835
0.00299598
0.0030329
0.00306909
0.00310457
0.00313932
0.00317335
0.00320665
0.00323922
0.00327105
0.00330215
0.00333253
0.00336216
0.00339106
0.00341922
0.00344662
0.00347326
0.00349914
0.00352424
0.00354856
0.0035721
0.00359485
0.0036168
0.00363796
0.00365831
0.00367785
0.00369659
0.00371453
0.00373166
0.00374799
0.00376352
0.00377826
0.0037922
0.00380537
0.00381775
0.00382937
0.00384023
0.00385034
0.00385971
0.00386839
0.0038763
0.0038834
0.00388982
0.00389555
0.0039005
0.00390479
0.00390848
0.00391146
0.00391375
0.00391534
0.00391626
0.0039165
0.00391608
0.003915
0.00391327
0.0039109
0.00390789
0.00390427
0.00390003
0.0038952
0.00388977
0.00388377
0.00387719
0.00387005
0.00386235
0.00385411
0.00384534
0.00383605
0.00382628
0.00381605
0.00380539
0.00379432
0.00378288
0.00377109
0.00375898
0.00374657
0.00373388
0.00372093
0.00370772
0.0036943
0.00368067
0.00366687
0.00365292
0.00363884
0.00362462
0.00361025
0.00359567
0.00358072
0.00356491
0.00354711
0.0035252
3.3169e-08
2.71803e-06
2.57764e-05
6.84799e-05
0.000111004
0.000144814
0.000168604
0.000183825
0.000191981
0.000194549
0.000193372
0.000189819
0.000184851
0.000179063
0.000172839
0.000166054
0.000159057
0.000151538
0.000143744
0.00013582
0.000127928
0.000119989
0.000112963
0.000108607
0.000110024
0.000118179
0.000131178
0.000147325
0.000164826
0.000181652
0.000196439
0.000207901
0.000217699
0.000228512
0.000241363
0.000258494
0.000280876
0.00030949
0.000344255
0.000385027
0.000431272
0.000482734
0.000538708
0.000598535
0.000661123
0.000725567
0.000791097
0.00085726
0.000923711
0.000990185
0.00105609
0.00112166
0.00118695
0.0012515
0.00131523
0.00137808
0.00143999
0.00150095
0.00156096
0.00162001
0.00167812
0.00173532
0.00179165
0.00184715
0.00190189
0.00195592
0.00200928
0.00206199
0.00211408
0.00216564
0.00221672
0.00226733
0.0023175
0.00236724
0.00241658
0.00246557
0.00251416
0.00256217
0.00260956
0.00265628
0.0027023
0.0027476
0.00279216
0.00283597
0.00287901
0.00292131
0.00296284
0.00300359
0.00304354
0.00308275
0.00312119
0.00315888
0.00319581
0.00323198
0.00326738
0.00330201
0.00333587
0.00336895
0.00340126
0.00343279
0.00346355
0.00349353
0.00352273
0.00355115
0.00357878
0.00360562
0.00363168
0.00365695
0.00368143
0.00370513
0.00372804
0.00375016
0.0037715
0.00379205
0.00381182
0.0038308
0.00384901
0.00386644
0.00388309
0.00389898
0.00391409
0.00392844
0.00394204
0.00395488
0.00396697
0.00397832
0.00398894
0.00399885
0.00400809
0.00401651
0.00402423
0.00403126
0.0040376
0.0040432
0.00404816
0.00405249
0.00405612
0.00405907
0.00406135
0.00406296
0.00406392
0.00406422
0.00406388
0.00406291
0.00406132
0.00405911
0.00405629
0.00405288
0.00404888
0.0040443
0.00403916
0.00403345
0.00402717
0.00402035
0.00401298
0.00400507
0.00399665
0.00398772
0.00397833
0.00396848
0.0039582
0.00394752
0.00393646
0.00392504
0.00391328
0.00390118
0.00388877
0.00387607
0.00386309
0.00384987
0.00383643
0.00382279
0.00380899
0.00379504
0.00378093
0.00376665
0.0037521
0.00373693
0.00372016
0.0037011
6.38102e-08
5.60899e-06
3.98485e-05
9.01392e-05
0.000134946
0.000167341
0.000188184
0.000199233
0.000202831
0.000201355
0.000196616
0.000189917
0.000182181
0.000173711
0.000165127
0.000156387
0.000147812
0.000140118
0.000133511
0.000128162
0.000124445
0.000123573
0.00012649
0.000133453
0.00014368
0.000156353
0.000170667
0.000185591
0.000200066
0.00021277
0.000223858
0.00023627
0.000250233
0.000266684
0.000286996
0.000312563
0.000343697
0.000380447
0.00042245
0.000469332
0.000520638
0.000575956
0.000634656
0.000696019
0.000759205
0.000823514
0.000888419
0.000953576
0.00101857
0.00108307
0.00114757
0.00121145
0.00127469
0.00133713
0.0013987
0.00145935
0.00151907
0.00157787
0.00163577
0.00169279
0.00174895
0.00180421
0.00185868
0.00191245
0.00196558
0.00201815
0.00207026
0.00212208
0.00217375
0.00222503
0.00227592
0.00232643
0.00237658
0.0024264
0.00247588
0.00252497
0.00257362
0.00262183
0.00266952
0.00271664
0.00276315
0.002809
0.00285416
0.0028986
0.0029423
0.00298526
0.00302748
0.00306897
0.00310971
0.0031497
0.0031889
0.00322732
0.00326495
0.00330177
0.00333778
0.00337298
0.00340734
0.00344088
0.00347359
0.00350547
0.00353652
0.00356674
0.00359615
0.00362473
0.0036525
0.00367945
0.00370561
0.00373097
0.00375554
0.00377933
0.00380235
0.0038246
0.00384609
0.00386681
0.00388678
0.003906
0.00392448
0.00394222
0.00395921
0.00397547
0.003991
0.0040058
0.00401987
0.00403322
0.00404585
0.00405776
0.00406896
0.00407951
0.00408931
0.00409841
0.00410681
0.00411454
0.0041216
0.00412796
0.0041337
0.00413878
0.00414318
0.00414692
0.00415001
0.00415245
0.00415425
0.00415542
0.00415597
0.0041559
0.00415522
0.00415395
0.00415209
0.00414965
0.00414664
0.00414307
0.00413894
0.00413425
0.00412902
0.00412323
0.00411689
0.00411002
0.00410264
0.00409474
0.00408636
0.00407752
0.00406822
0.0040585
0.00404837
0.00403784
0.00402692
0.00401563
0.00400398
0.00399198
0.00397967
0.00396705
0.00395418
0.00394106
0.00392774
0.00391424
0.00390057
0.00388673
0.0038727
0.0038582
0.00384239
0.0038259
1.04509e-07
9.72146e-06
5.29978e-05
0.00010814
0.000154412
0.000186107
0.000203862
0.000211051
0.000210972
0.00020622
0.000198703
0.00018964
0.00018001
0.00017069
0.000162019
0.00015466
0.000148352
0.000144276
0.000142096
0.000142076
0.000144581
0.0001498
0.000157626
0.000167648
0.000179251
0.000191865
0.000204814
0.000217157
0.000228777
0.00024156
0.000256485
0.000273105
0.000292289
0.00031554
0.000343434
0.000376325
0.000414063
0.000456356