/*--------------------------------*- C++ -*----------------------------------*\
  =========                 |
  \\      /  F ield         | OpenFOAM: The Open Source CFD Toolbox
   \\    /   O peration     | Website:  https://openfoam.org
    \\  /    A nd           | Version:  13
     \\/     M anipulation  |
\*---------------------------------------------------------------------------*/
FoamFile
{
    format      ascii;
    class       volScalarField;
    location    "1600";
    object      omega;
}
// * * * * * * * * * * * * * * * * * * * * * * * * * * * * * * * * * * * * * //

dimensions      [0 0 -1 0 0 0 0];

internalField   nonuniform List<scalar> 
12225
(
31477.7
41861.3
39979.6
40880.1
38551.1
39858.4
31477.7
47038.9
41498.6
36964
43580.9
43978.7
43492.1
40893.2
44467.9
46012.8
41599.3
31477.7
1813.09
9390.77
11811.6
14556.6
14233
16261.6
15437
18565.9
18181
17023.3
17291.5
17410.5
17610.8
16519.5
18244
18233.7
18251.7
17824.5
647.153
1296.72
2076.01
3279.61
4136.13
5036.26
5506.51
6131.02
6707.94
7092.42
7597.77
7893.14
8285.21
8368.08
8564.17
8764.74
8862.05
8926.41
485.151
557.186
728.774
1011.74
1231.18
1518.54
1779.73
2082.32
2436.8
2852.27
3255.03
3613.52
3858.37
4048.05
4126.61
4203.9
4320.54
4400.17
448.184
459.324
496.948
577.096
647.669
775.715
876.169
1012.94
1282.21
1662.43
2011.39
2220.41
2272.6
2336.45
2334.34
2530.65
2728.86
2724.39
440.173
441.405
448.766
472.871
502.785
568.032
647.378
699.697
970.868
1385.09
1561.6
1723.71
1865.06
1895.64
1891.59
1970.55
2014.81
2242.8
439.214
437.058
438.754
445.657
454.204
501.787
549.382
633.58
765.509
1021.24
1253.82
1347.38
1402.08
1570.07
1577.92
1571.24
1610.92
1668.89
439.39
435.999
435.991
436.501
437.664
456.708
495.041
571.861
662.383
776.083
891.265
983.373
1045.44
1104.63
1141.92
1172.02
1168.86
1167.83
439.273
436.419
435.075
433.518
432.203
435.874
454.114
493.718
540.61
592.133
640.281
683.875
714.938
743.066
759.213
776.246
783.147
791.013
439.117
436.679
434.785
432.829
430.086
429.708
434.488
450.261
469.85
491.751
511.534
530.39
544.472
557.623
565.834
574.606
578.983
585.847
439.039
436.764
434.724
432.773
430.099
427.833
427.903
431.694
438.184
446.125
453.28
460.56
466.133
471.829
475.551
479.819
481.952
485.857
439.017
436.771
434.75
432.593
430.613
428.645
426.399
426.296
427.463
429.721
431.842
434.169
435.973
437.966
439.321
440.949
441.79
443.334
439.009
436.77
434.71
432.639
430.686
428.904
427.042
425.663
424.72
424.267
423.933
423.818
423.651
423.63
423.541
423.492
423.392
423.608
439.003
436.775
434.671
432.659
430.733
428.935
427.187
425.598
424.114
422.83
421.603
420.55
419.493
418.615
417.68
416.954
416.086
415.5
439
436.776
434.658
432.655
430.741
428.935
427.204
425.577
424.017
422.561
421.16
419.859
418.597
417.433
416.294
415.249
414.218
413.279
439
436.773
434.657
432.648
430.739
428.925
427.199
425.559
423.997
422.511
421.095
419.748
418.462
417.24
416.07
414.959
413.894
412.883
439
436.772
434.655
432.644
430.734
428.918
427.19
425.547
423.982
422.493
421.073
419.721
418.43
417.2
416.025
414.906
413.835
412.814
438.999
436.769
434.65
432.638
430.725
428.907
427.177
425.532
423.965
422.474
421.052
419.697
418.404
417.172
415.995
414.873
413.801
412.777
439
436.771
434.653
432.641
430.729
428.912
427.183
425.537
423.97
422.478
421.055
419.7
418.406
417.173
415.996
414.872
413.8
412.775
439
436.772
434.655
432.645
430.734
428.917
427.189
425.544
423.979
422.486
421.065
419.709
418.416
417.184
416.007
414.884
413.812
412.787
438.997
436.778
434.654
432.651
430.738
428.923
427.199
425.552
423.992
422.497
421.079
419.728
418.432
417.209
416.027
414.913
413.844
412.822
438.989
436.787
434.654
432.661
430.744
428.935
427.212
425.566
424.017
422.526
421.124
419.801
418.496
417.351
416.132
415.112
414.041
413.068
438.934
436.809
434.689
432.661
430.786
428.956
427.286
425.66
424.201
422.795
421.578
420.357
419.343
418.299
417.409
416.55
415.81
415.07
438.364
437.349
434.863
432.928
431.059
429.533
428.134
426.992
426.235
425.613
425.445
425.221
425.305
425.463
425.791
426.062
426.609
426.972
435.845
443.703
437.444
436.724
435.253
436.092
436.613
438.433
441.499
444.624
449.213
452.729
457.724
461.266
465.953
469.515
474.092
477.653
444.166
507.735
466.772
464.053
465.443
475.185
488.754
503.306
520.348
535.782
554.069
568.232
586.186
598.164
614.683
625.194
640.352
650.153
715.945
700.05
603.28
598.714
636.315
689.525
749.655
805.838
866.896
915.784
973.958
1014.42
1067.24
1100.5
1145.9
1176.28
1213.67
1244.78
2675.98
1938.21
1517.17
1514.23
1675.07
1894.74
2109.96
2308.15
2489.85
2635.56
2784.56
2888.56
3012.36
3089.66
3197.59
3263.21
3360.11
3422.04
13664.3
9299.89
7549.25
7774.27
8424.91
8981.46
9405.47
9687.56
9853.8
9946.27
9968.37
9957.75
9934.87
9892.23
9861.98
9827.7
9813.08
9801.25
18117.5
22939.2
25144.3
26276.2
26750.9
26732.6
26644.1
26389.4
26076
25747.8
25426.6
25124.1
24845.6
24592.8
24364.5
24161.4
23980.1
23818.6
11463.2
2514.24
2516.41
2518.61
2520.83
2523.07
2525.32
2527.6
2529.9
2532.22
2534.57
2536.93
2539.31
2541.72
2544.15
2546.6
2549.08
2551.57
2554.09
2556.64
2559.2
2561.79
2564.41
2567.05
2569.71
2572.4
2575.12
2577.86
2580.62
2583.41
2586.23
2589.08
2591.95
2594.85
2597.77
2600.73
2603.71
2606.72
2609.76
2612.82
2615.92
2619.05
2622.2
2625.39
2628.61
2631.86
2635.14
2638.45
2641.79
2645.17
2648.58
2652.02
2655.5
2659.01
2662.55
2666.13
2669.74
2673.39
2677.08
2680.8
3153.92
3294.78
2692.19
3196.79
3338.52
3431.72
3502.55
3589.66
3660.4
3735.88
3805.16
3874.42
3940.89
4006.21
4069.9
4132.32
4193.57
4253.63
4312.74
4370.71
4427.93
4484.03
4539.49
4593.86
4647.65
4700.42
4752.61
4803.83
4854.39
4904.04
4952.86
5000.79
5047.89
5093.97
5139.11
5183.11
5226.04
5267.72
5308.24
5347.44
5385.45
5422.26
5458.09
5493.31
5527.49
5560.64
5592.65
5623.68
5653.54
5682.4
5710.06
5736.68
5762.12
5786.47
5809.64
5831.7
5852.61
5872.39
5891.03
5908.52
5924.9
5940.16
5954.35
5967.44
5979.52
5990.52
6000.55
6009.57
6017.74
6025.34
6030.52
6036.88
6039.15
6043.33
6044.27
6046.31
6047.3
6047.26
6045.33
6042.74
6038.96
6034.36
6028.86
6022.55
6015.43
6007.55
5998.94
5989.64
5979.7
5969.15
5957.99
5946.29
5934.05
5921.34
5908.15
5894.57
5880.65
5866.47
5852.05
5837.52
5822.98
5808.56
5794.29
5780.28
5766.54
5753.16
5740.12
5727.53
5715.35
5703.69
5692.49
5681.8
5671.47
5661.44
5651.24
5640.26
5627.5
5610.14
5583.77
5478.34
11463.2
1991.46
990.973
804.802
686.156
607.942
611.174
609.004
599.153
577.897
555.023
531.34
510.547
493.676
482.366
474.45
472.772
481.999
498.329
550.01
629.73
728.515
837.012
945.213
1043.05
1118.45
1167.2
1165.17
1133.07
1065.35
952.124
821.104
677.109
585.487
515.219
467.139
445.538
447.796
458.006
482.97
513.991
544.125
602.538
696.747
817.403
1048.15
1385.65
1678.42
1867.46
1988.8
2042.85
2056.55
2037.79
2007.3
1964.42
1893.37
1837.17
1777.12
1731.36
1694.67
1685.07
1653.67
1620.53
1636.61
1630.44
1627.87
1626.73
1627.64
1630.17
1634.62
1639.57
1645.84
1652.58
1660.04
1667.88
1676.14
1684.65
1693.39
1702.3
1711.32
1720.44
1729.58
1738.75
1747.9
1757.02
1766.06
1775.01
1783.83
1792.48
1800.96
1809.19
1817.22
1824.94
1832.39
1839.51
1846.33
1852.84
1859.1
1865.13
1871.06
1877.03
1883.29
1890.21
1898.26
1906.3
1914.06
1921.57
1928.85
1935.88
1942.67
1949.22
1955.53
1961.6
1967.43
1973.03
1978.39
1983.53
1988.43
1993.1
1997.55
2001.78
2005.8
2009.6
2013.19
2016.56
2019.74
2022.71
2025.49
2028.09
2030.48
2032.59
2034.63
2036.29
2037.96
2039.32
2040.65
2041.6
2041.97
2041.56
2040.79
2039.79
2038.59
2037.19
2035.6
2033.83
2031.89
2029.78
2027.54
2025.09
2022.49
2019.75
2016.89
2013.89
2010.81
2007.6
2004.32
2000.98
1997.55
1994.11
1990.62
1987.14
1983.66
1980.23
1976.82
1973.47
1970.18
1966.97
1963.85
1960.82
1957.88
1955.06
1952.38
1949.84
1947.47
1945.33
1943.5
1942.02
1941.27
1940.24
1950.27
11463.2
2001.94
801.452
612.866
644.087
653.393
630.247
579.942
522.065
467.643
418.534
379.02
347.615
322.766
303.496
288.623
278.028
270.237
267.414
270.21
277.853
296.685
327.319
369.651
423.284
482.207
543.975
591.172
627.584
628.231
613.07
577.007
518.522
450.934
394.164
362.242
364.035
377.031
401.372
446.084
531.24
652.495
819.385
1014.2
1181.48
1322.67
1452.49
1525.62
1540.74
1528.79
1479.19
1424.36
1363.97
1309.26
1258.2
1211.63
1175.45
1145.32
1123.83
1106.93
1096.45
1088.65
1082.27
1080.45
1078.58
1078.21
1079.03
1080.81
1083.31
1086.43
1089.94
1093.88
1098.09
1102.55
1107.2
1112
1116.91
1121.92
1126.99
1132.1
1137.24
1142.38
1147.51
1152.62
1157.68
1162.7
1167.64
1172.5
1177.27
1181.94
1186.49
1190.94
1195.26
1199.48
1203.57
1207.58
1211.49
1215.36
1219.19
1223.05
1226.96
1230.98
1235.12
1239.3
1243.32
1247.22
1250.98
1254.61
1258.11
1261.48
1264.71
1267.81
1270.79
1273.63
1276.35
1278.93
1281.39
1283.71
1285.91
1287.99
1289.94
1291.76
1293.46
1295.03
1296.47
1297.79
1298.99
1300.06
1301.01
1301.83
1302.51
1303.1
1303.53
1303.86
1304.05
1304.12
1303.99
1303.6
1302.99
1302.24
1301.38
1300.41
1299.32
1298.13
1296.83
1295.44
1293.95
1292.37
1290.69
1288.93
1287.09
1285.17
1283.18
1281.14
1279.04
1276.89
1274.71
1272.48
1270.24
1267.97
1265.69
1263.41
1261.13
1258.86
1256.61
1254.37
1252.17
1249.99
1247.86
1245.77
1243.73
1241.77
1239.9
1238.18
1236.67
1235.47
1234.74
1234.95
1236.48
1246.79
11463.2
2029.8
972.961
921.811
866.709
748.903
638.415
536.369
454.869
393.835
347.942
311.987
283.797
261.891
244.964
231.969
222.177
215.025
210.195
207.913
208.362
211.858
218.408
231.747
252.141
279.452
313.442
348.088
380.854
404.562
415.055
411.179
395.42
372.176
385.096
440.514
514.054
571.83
632.004
710.996
824.604
962.932
1071.14
1144.84
1209.05
1255.39
1267.69
1215.98
1186.03
1132.42
1083.08
1037.28
997.346
963.939
936.033
913.627
896.537
883.542
874.439
867.939
863.844
861.452
860.085
859.985
860.588
861.97
863.915
866.31
869.075
872.138
875.437
878.941
882.602
886.4
890.304
894.295
898.355
902.467
906.616
910.788
914.971
919.152
923.321
927.467
931.581
935.652
939.672
943.633
947.529
951.357
955.116
958.807
962.427
965.98
969.47
972.904
976.292
979.643
982.967
986.273
989.565
992.84
996.08
999.245
1002.3
1005.26
1008.12
1010.87
1013.53
1016.08
1018.53
1020.87
1023.12
1025.25
1027.29
1029.21
1031.03
1032.74
1034.34
1035.83
1037.22
1038.49
1039.66
1040.71
1041.66
1042.49
1043.21
1043.82
1044.31
1044.7
1044.97
1045.14
1045.2
1045.15
1044.97
1044.67
1044.24
1043.64
1042.92
1042.09
1041.16
1040.14
1039.02
1037.82
1036.53
1035.15
1033.69
1032.15
1030.54
1028.85
1027.09
1025.28
1023.4
1021.48
1019.51
1017.5
1015.45
1013.37
1011.26
1009.13
1006.99
1004.84
1002.68
1000.52
998.357
996.206
994.067
991.946
989.845
987.774
985.739
983.755
981.848
980.056
978.435
977.079
976.131
976.04
977.192
983.436
11463.2
2260.85
1391.95
1141.35
914.25
713.75
553.413
443.855
369.181
316.165
278.207
250.744
230.714
215.775
204.399
195.646
188.957
184.004
180.591
178.668
178.694
179.956
182.677
188.727
198.519
213.017
232.895
255.85
279.735
300.921
314.842
328.245
366.408
434.616
529.368
602.725
669.452
742.439
821.08
893.759
956.56
1010.85
1056.04
1079.39
1082.71
1043.23
1002.37
961.713
924.704
885.47
854.162
826.727
804.427
786.342
772.05
761.166
753.209
747.633
744.221
742.247
741.609
741.492
742.366
743.889
745.897
748.32
751.068
754.08
757.31
760.719
764.278
767.964
771.756
775.636
779.591
783.606
787.668
791.767
795.89
800.027
804.167
808.301
812.42
816.514
820.576
824.598
828.574
832.496
836.362
840.169
843.92
847.611
851.246
854.821
858.343
861.812
865.234
868.608
871.939
875.222
878.454
881.623
884.721
887.736
890.659
893.495
896.239
898.893
901.45
903.913
906.277
908.543
910.707
912.768
914.723
916.571
918.308
919.936
921.451
922.853
924.141
925.313
926.37
927.309
928.132
928.838
929.427
929.897
930.251
930.486
930.607
930.621
930.528
930.307
929.967
929.508
928.925
928.213
927.387
926.458
925.43
924.306
923.087
921.777
920.378
918.896
917.331
915.685
913.959
912.161
910.294
908.362
906.373
904.33
902.237
900.099
897.921
895.708
893.464
891.194
888.904
886.598
884.279
881.953
879.625
877.3
874.981
872.672
870.379
868.106
865.866
863.676
861.551
859.522
857.638
855.973
854.644
853.998
854.383
857.541
11463.2
2810.79
1670.73
1176.28
823.034
583.829
442.648
354.452
298.021
262.052
237.224
218.898
204.609
193.232
184.082
176.777
171.102
166.926
164.109
162.661
162.737
163.81
166.274
170.81
177.661
187.615
201.941
220.432
243.412
274.901
322.539
387.387
485.604
582.072
654.375
719.852
780.5
830.419
869.707
904.156
935.827
949.855
945.963
914.697
885.71
851.644
819.875
789.872
763.35
739.744
720.887
705.085
692.593
682.844
675.567
670.437
667.144
665.551
665.041
665.3
666.481
668.209
670.512
673.225
676.264
679.569
683.089
686.787
690.632
694.603
698.68
702.85
707.098
711.414
715.786
720.204
724.658
729.138
733.632
738.132
742.627
747.109
751.568
755.997
760.388
764.734
769.03
773.271
777.451
781.574
785.634
789.637
793.58
797.464
801.289
805.057
808.769
812.424
816.022
819.558
823.027
826.418
829.732
832.963
836.108
839.165
842.131
845.005
847.781
850.457
853.03
855.495
857.851
860.096
862.224
864.231
866.117
867.877
869.51
871.015
872.389
873.633
874.746
875.726
876.574
877.29
877.874
878.327
878.648
878.831
878.89
878.849
878.666
878.352
877.911
877.344
876.651
875.832
874.896
873.848
872.693
871.432
870.068
868.604
867.041
865.387
863.642
861.808
859.887
857.886
855.807
853.657
851.441
849.164
846.83
844.444
842.011
839.536
837.026
834.484
831.917
829.329
826.725
824.111
821.49
818.87
816.253
813.643
811.046
808.466
805.915
803.404
800.952
798.584
796.339
794.278
792.488
791.211
790.714
791.787
11463.2
3326.78
1732.13
1029.59
651.559
457.234
352.795
293.874
257.492
232.915
214.99
201.158
190.156
181.043
173.391
167.053
161.997
158.22
155.814
154.856
155.308
157.135
160.872
166.793
175.741
188.593
206.252
232.428
273.178
334.951
427.737
524.669
603.044
667.296
722.191
764.965
797.337
824.268
843.938
851.548
842.466
819.121
797.989
771.587
747.216
722.225
699.775
679.75
662.72
648.431
636.998
627.848
620.899
615.862
612.521
610.874
610.343
610.698
611.994
613.968
616.539
619.56
622.975
626.694
630.659
634.824
639.153
643.619
648.201
652.883
657.651
662.495
667.404
672.369
677.381
682.43
687.505
692.598
697.696
702.79
707.87
712.927
717.951
722.935
727.872
732.756
737.582
742.342
747.037
751.662
756.219
760.711
765.135
769.494
773.786
778.013
782.174
786.27
790.297
794.257
798.144
801.958
805.692
809.339
812.897
816.362
819.732
822.999
826.161
829.211
832.144
834.954
837.636
840.18
842.588
844.857
846.982
848.962
850.793
852.475
854.006
855.385
856.612
857.687
858.61
859.383
860.005
860.477
860.8
860.963
861.003
860.912
860.668
860.281
859.754
859.091
858.292
857.361
856.302
855.12
853.819
852.401
850.868
849.222
847.466
845.594
843.612
841.53
839.35
837.078
834.719
832.277
829.76
827.172
824.518
821.804
819.034
816.216
813.356
810.46
807.534
804.583
801.613
798.63
795.639
792.646
789.656
786.672
783.699
780.743
777.814
774.923
772.086
769.325
766.672
764.174
761.895
760.006
758.627
758.152
11463.2
3497.65
1560.85
822.571
517.742
380.309
310.771
269.808
242.687
223.337
208.494
196.465
186.324
177.615
170.218
164.14
159.492
156.477
155.13
155.384
157.101
160.704
166.906
176.206
191.156
214.746
250.506
308.478
388.533
471.981
541.112
600.696
652.799
695.299
728.127
754.893
769.4
773.324
763.488
745.799
728.743
708.766
690.135
670.62
652.35
634.942
619.71
606.622
595.758
586.952
580.092
574.946
571.38
569.432
568.725
568.873
570.069
572.054
574.737
577.984
581.705
585.808
590.231
594.911
599.803
604.869
610.08
615.415
620.854
626.383
631.99
637.665
643.398
649.179
654.999
660.849
666.717
672.592
678.462
684.316
690.144
695.935
701.681
707.373
713.005
718.571
724.066
729.485
734.824
740.082
745.26
750.36
755.383
760.329
765.199
769.993
774.711
779.353
783.919
788.407
792.817
797.145
801.381
805.52
809.558
813.492
817.315
821.023
824.607
828.063
831.382
834.56
837.589
840.467
843.187
845.745
848.136
850.358
852.406
854.281
855.979
857.502
858.849
860.021
861.018
861.841
862.493
862.974
863.28
863.41
863.411
863.243
862.91
862.42
861.774
860.978
860.032
858.94
857.708
856.338
854.835
853.201
851.438
849.55
847.538
845.408
843.162
840.804
838.338
835.768
833.1
830.34
827.494
824.568
821.567
818.497
815.366
812.179
808.945
805.67
802.361
799.024
795.666
792.291
788.907
785.52
782.135
778.756
775.388
772.038
768.715
765.43
762.197
759.035
755.971
753.042
750.291
747.82
745.667
743.918
11463.2
3392.48
1299.42
666.282
438.741
339.091
286.868
256.019
235.442
219.526
206.66
195.942
186.852
179.125
172.691
167.699
164.389
162.91
163.445
166.441
172.042
181.718
196.945
218.732
252.367
301.69
364.439
429.785
488.57
540.824
586.23
625.57
658.494
686.655
702.83
707.174
700.187
687.289
672.756
657.15
642.447
627.595
613.388
599.295
586.148
574.199
563.952
555.398
548.499
543.158
539.28
536.843
535.768
535.606
536.479
538.239
540.815
544.08
547.942
552.306
557.096
562.24
567.681
573.369
579.261
585.325
591.534
597.867
604.307
610.835
617.437
624.101
630.816
637.569
644.349
651.149
657.955
664.751
671.528
678.272
684.972
691.617
698.198
704.709
711.142
717.491
723.75
729.907
735.965
741.927
747.797
753.577
759.273
764.88
770.404
775.842
781.196
786.465
791.649
796.744
801.745
806.647
811.445
816.135
820.711
825.169
829.501
833.701
837.759
841.669
845.421
849.009
852.425
855.664
858.718
861.583
864.253
866.725
868.996
871.063
872.927
874.587
876.044
877.299
878.353
879.209
879.868
880.333
880.593
880.674
880.59
880.317
879.862
879.231
878.428
877.457
876.321
875.024
873.57
871.964
870.208
868.306
866.261
864.076
861.755
859.3
856.716
854.008
851.179
848.234
845.178
842.019
838.764
835.418
831.987
828.48
824.903
821.265
817.575
813.841
810.069
806.266
802.439
798.595
794.741
790.883
787.027
783.178
779.342
775.527
771.741
767.995
764.3
760.675
757.141
753.726
750.462
747.442
744.643
741.891
11463.2
3016.6
1055.81
564.769
397.93
321.725
279.917
253.631
235.516
222.3
211.793
202.967
195.45
189.264
184.588
182.05
181.733
184.388
190.109
199.732
213.88
235.147
265.219
305.128
351.665
399.787
446.815
490.194
529.209
563.835
593.73
620.379
639.417
646.454
644.977
636.652
625.564
613.3
601.374
589.892
578.994
568.239
557.779
547.68
538.413
530.258
523.419
517.911
513.709
510.755
509.168
508.653
509.05
510.435
512.714
515.797
519.603
524.047
529.048
534.532
540.436
546.7
553.268
560.092
567.13
574.35
581.722
589.229
596.858
604.571
612.352
620.185
628.055
635.942
643.823
651.664
659.46
667.23
674.967
682.658
690.289
697.847
705.325
712.714
720.01
727.207
734.3
741.288
748.169
754.934
761.582
768.121
774.554
780.885
787.114
793.242
799.271
805.2
811.028
816.753
822.369
827.873
833.26
838.525
843.662
848.663
853.52
858.225
862.768
867.138
871.326
875.323
879.119
882.709
886.083
889.238
892.166
894.863
897.327
899.557
901.55
903.309
904.834
906.127
907.192
908.031
908.649
909.041
909.209
909.187
908.957
908.523
907.888
907.059
906.039
904.834
903.447
901.883
900.146
898.241
896.171
893.94
891.551
889.007
886.313
883.472
880.489
877.368
874.114
870.732
867.228
863.609
859.882
856.055
852.134
848.128
844.047
839.9
835.697
831.446
827.155
822.831
818.481
814.113
809.735
805.353
800.974
796.604
792.25
787.921
783.626
779.374
775.175
771.046
767.004
763.071
759.269
755.664
752.221
748.539
11463.2
2563.3
884.369
506.5
373.615
312.255
278.033
256.997
242.904
232.507
224.303
217.713
212.666
209.778
209.215
211.837
218.271
228.084
240.952
258.494
282.078
311.205
344.441
379.897
415.468
449.624
481.639
510.846
536.792
560.484
580.583
590.496
592.684
589.517
582.912
574.112
564.949
556.054
547.678
539.641
531.801
524.028
516.459
509.313
502.905
497.446
493.057
489.769
487.654
486.734
486.662
487.619
489.505
492.285
495.902
500.285
505.362
511.061
517.313
524.054
531.231
538.809
546.721
554.907
563.326
571.937
580.695
589.538
598.414
607.377
616.415
625.51
634.639
643.776
652.896
661.988
671.036
680.014
688.918
697.732
706.437
715.025
723.491
731.832
740.046
748.127
756.073
763.876
771.534
779.047
786.423
793.67
800.794
807.803
814.694
821.473
828.139
834.694
841.136
847.465
853.675
859.761
865.717
871.535
877.208
882.727
888.083
893.263
898.258
903.053
907.638
912.001
916.132
920.023
923.666
927.053
930.179
933.039
935.63
937.952
940.003
941.786
943.302
944.556
945.552
946.294
946.786
947.022
947.028
946.804
946.35
945.673
944.776
943.667
942.349
940.829
939.111
937.201
935.104
932.823
930.363
927.728
924.921
921.947
918.808
915.511
912.059
908.458
904.712
900.827
896.81
892.667
888.405
884.034
879.561
874.998
870.354
865.641
860.868
856.045
851.18
846.282
841.357
836.413
831.459
826.502
821.55
816.61
811.692
806.804
801.955
797.154
792.411
787.74
783.153
778.669
774.303
770.108
766.044
761.513
11463.2
2178.76
803.463
485.232
367.805
312.672
283.809
266.811
255.802
248.141
242.694
239.314
238.143
239.379
243.942
252.054
263.342
277.301
294.722
315.656
339.403
364.979
391.354
417.572
442.902
466.571
488.293
508.726
527.126
539.093
543.661
544.199
541.943
537.118
531.152
524.82
518.685
512.825
507.167
501.575
495.995
490.466
485.161
480.306
476.132
472.804
470.411
469.165
468.837
469.458
471.032
473.545
476.955
481.231
486.345
492.255
498.854
506.079
513.864
522.142
530.825
539.777
549.038
558.621
568.496
578.624
588.964
599.492
610.189
620.976
631.808
642.648
653.475
664.239
674.896
685.419
695.787
705.981
715.988
725.815
735.472
744.962
754.289
763.457
772.465
781.312
789.992
798.497
806.828
814.989
822.988
830.837
838.55
846.131
853.585
860.912
868.117
875.201
882.165
889.006
895.719
902.298
908.735
915.02
921.144
927.094
932.861
938.431
943.789
948.92
953.811
958.446
962.815
966.908
970.717
974.233
977.45
980.363
982.971
985.272
987.266
988.956
990.347
991.443
992.251
992.775
993.023
992.998
992.713
992.171
991.381
990.348
989.079
987.581
985.859
983.92
981.77
979.414
976.858
974.107
971.166
968.037
964.725
961.235
957.571
953.737
949.739
945.581
941.27
936.812
932.212
927.478
922.616
917.636
912.55
907.37
902.107
896.772
891.375
885.927
880.435
874.91
869.358
863.789
858.209
852.628
847.055
841.5
835.972
830.482
825.039
819.649
814.323
809.071
803.905
798.839
793.884
789.084
784.412
779.089
11463.2
1889.63
742.931
467.119
365.254
318.396
294.112
280.376
272.132
267.17
264.853
264.458
266.509
271.339
279.045
289.423
302.182
317.176
334.088
352.548
372.029
391.868
411.328
429.846
447.493
464.568
480.346
492.507
498.829
501.419
502.148
501.094
498.461
494.98
491.211
487.414
483.691
480.006
476.307
472.571
468.849
465.26
461.983
459.209
457.115
455.969
455.662
456.325
458.054
460.703
464.252
468.687
473.971
480.043
486.78
494.117
502.167
510.912
520.299
530.269
540.77
551.793
563.261
575.111
587.298
599.776
612.483
625.365
638.391
651.45
664.446
677.305
689.954
702.356
714.482
726.305
737.809
748.993
759.868
770.466
780.824
790.963
800.898
810.647
820.215
829.594
838.774
847.738
856.498
865.06
873.44
881.653
889.716
897.636
905.422
913.074
920.599
927.999
935.274
942.425
949.445
956.327
963.059
969.63
976.026
982.236
988.243
994.034
999.589
1004.89
1009.92
1014.67
1019.11
1023.24
1027.05
1030.53
1033.67
1036.47
1038.93
1041.04
1042.81
1044.24
1045.34
1046.11
1046.57
1046.71
1046.56
1046.11
1045.38
1044.37
1043.09
1041.56
1039.78
1037.75
1035.49
1033
1030.29
1027.37
1024.24
1020.9
1017.37
1013.64
1009.72
1005.61
1001.33
996.867
992.234
987.436
982.479
977.37
972.114
966.72
961.188
955.536
949.776
943.922
937.984
931.973
925.899
919.774
913.605
907.403
901.177
894.934
888.682
882.431
876.193
869.98
863.803
857.672
851.596
845.581
839.635
833.769
827.991
822.314
816.746
811.326
806.052
799.974
11463.2
1888.58
738.823
468.25
371.697
328.62
307.228
295.823
289.73
286.995
286.364
287.993
292.113
298.545
307.067
317.381
329.202
342.258
356.264
370.806
385.421
399.677
413.652
427.524
440.454
450.852
457.891
462.432
465.129
466.264
466.529
466.004
464.789
463.261
461.599
459.867
458.083
456.249
454.394
452.595
451.002
449.858
449.266
449.18
449.826
451.284
453.519
456.47
459.954
464.33
469.662
475.955
483.19
491.336
500.39
510.351
521.147
532.743
545.062
558.035
571.602
585.715
600.287
615.236
630.502
646.074
661.789
677.523
693.144
708.572
723.728
738.525
752.88
766.727
780.026
792.756
804.917
816.532
827.641
838.334
848.751
858.93
868.895
878.687
888.315
897.755
906.97
915.909
924.623
933.125
941.429
949.559
957.531
965.36
973.053
980.618
988.061
995.386
1002.6
1009.69
1016.66
1023.5
1030.2
1036.73
1043.09
1049.26
1055.21
1060.94
1066.41
1071.62
1076.52
1081.11
1085.37
1089.29
1092.85
1096.04
1098.87
1101.31
1103.38
1105.08
1106.39
1107.33
1107.92
1108.14
1108.03
1107.59
1106.83
1105.75
1104.37
1102.7
1100.76
1098.54
1096.07
1093.35
1090.38
1087.18
1083.76
1080.12
1076.27
1072.21
1067.96
1063.5
1058.86
1054.03
1049.01
1043.82
1038.45
1032.92
1027.23
1021.39
1015.4
1009.27
1003
996.614
990.124
983.541
976.875
970.137
963.337
956.485
949.591
942.666
935.718
928.759
921.792
914.829
907.887
900.981
894.12
887.315
880.573
873.9
867.303
860.792
854.374
848.06
841.857
835.793
829.912
823.106
11463.2
1836.22
725.289
470.29
380.217
340.735
321.392
311.208
306.113
304.111
303.91
306.27
310.856
317.248
325.047
333.911
343.616
353.93
364.591
375.318
386.142
397.173
407.341
415.619
422.253
427.524
431.809
435.004
437.423
439.276
440.791
442.057
443.224
444.349
445.349
446.246
447.078
447.885
448.722
449.64
450.653
451.625
453.063
455.236
458.417
462.57
467.659
473.71
480.843
488.995
498.195
508.46
519.78
532.103
545.401
559.647
574.802
590.887
607.681
625.059
642.919
661.164
679.687
698.382
717.127
735.75
754.21
772.416
790.257
807.621
824.399
840.472
855.724
870.05
883.434
895.91
907.523
918.321
928.33
937.744
947.054
956.214
965.205
974.144
983.019
991.753
1000.29
1008.61
1016.71
1024.57
1032.2
1039.64
1046.9
1054.02
1060.99
1067.84
1074.58
1081.21
1087.75
1094.19
1100.54
1106.78
1112.91
1118.89
1124.71
1130.36
1135.8
1141.02
1146
1150.7
1155.09
1159.15
1162.86
1166.2
1169.18
1171.76
1173.94
1175.71
1177.07
1178.05
1178.61
1178.75
1178.54
1177.94
1176.98
1175.67
1174.02
1172.04
1169.76
1167.18
1164.31
1161.17
1157.77
1154.12
1150.23
1146.1
1141.76
1137.2
1132.44
1127.47
1122.31
1116.97
1111.43
1105.71
1099.82
1093.76
1087.52
1081.13
1074.58
1067.89
1061.05
1054.09
1047.02
1039.85
1032.58
1025.21
1017.77
1010.26
1002.69
995.063
987.4
979.708
971.999
964.285
956.566
948.86
941.188
933.562
925.99
918.484
911.049
903.691
896.416
889.231
882.141
875.164
868.304
861.579
855.082
847.576
11463.7
1816.24
725.056
477.862
390.455
352.213
333.689
323.826
318.689
316.619
316.325
318.452
322.519
327.968
334.363
341.422
349.006
356.981
365.226
373.435
381.267
388.454
395.13
401.516
407.392
412.879
418.07
422.994
427.717
432.249
436.559
440.565
444.087
447.283
450.456
453.676
457.006
460.511
464.274
468.382
472.962
478.261
484.405
491.627
500.18
509.794
520.432
532.139
544.964
558.851
573.812
589.908
607.207
625.441
644.468
664.165
684.38
704.924
725.773
746.841
768.023
789.214
810.315
831.228
851.857
872.101
891.888
911.14
929.778
947.716
964.861
981.11
996.338
1010.32
1023.15
1034.95
1045.82
1055.8
1064.95
1073.4
1081.32
1088.79
1096.01
1103.46
1111.02
1118.44
1125.65
1132.66
1139.38
1145.8
1151.93
1157.82
1163.51
1169.03
1174.41
1179.66
1184.8
1189.87
1194.86
1199.81
1204.71
1209.55
1214.31
1218.98
1223.53
1227.93
1232.17
1236.22
1240.05
1243.63
1246.91
1249.84
1252.43
1254.66
1256.51
1257.98
1259.02
1259.64
1259.85
1259.69
1259.05
1258.02
1256.61
1254.81
1252.65
1250.14
1247.3
1244.13
1240.66
1236.89
1232.85
1228.55
1223.99
1219.19
1214.17
1208.93
1203.48
1197.83
1191.99
1185.97
1179.77
1173.39
1166.84
1160.12
1153.24
1146.2
1139
1131.65
1124.16
1116.54
1108.79
1100.91
1092.95
1084.9
1076.76
1068.53
1060.22
1051.84
1043.41
1034.93
1026.42
1017.88
1009.33
1000.79
992.271
983.794
975.364
966.988
958.673
950.428
942.26
934.176
926.184
918.288
910.496
902.828
895.289
887.882
880.755
872.573
11462.8
1796.8
724.847
483.723
397.617
360.037
341.713
331.715
326.457
324.309
323.918
325.726
329.309
334.097
339.828
346.297
353.26
360.546
367.978
375.574
383.204
390.706
398.094
405.395
412.613
419.854
427.185
434.669
442.353
450.179
458.097
466.15
474.475
483.117
492.079
501.413
511.179
521.443
532.288
543.804
556.1
569.31
583.439
598.456
614.151
630.67
648.121
666.564
685.929
706.134
727.133
748.923
771.191
793.848
816.765
839.808
862.834
885.691
908.279
930.505
952.289
973.576
994.316
1014.47
1033.99
1052.86
1071.03
1088.48
1105.18
1121.12
1136.25
1150.52
1163.92
1176.39
1187.84
1198.47
1208.32
1217.42
1225.8
1233.49
1240.26
1246.42
1252.4
1258.37
1264.06
1269.34
1274.2
1278.68
1282.77
1286.52
1289.95
1293.16
1296.23
1299.13
1301.91
1304.64
1307.32
1309.97
1312.61
1315.27
1317.94
1320.63
1323.29
1325.92
1328.47
1330.94
1333.28
1335.49
1337.52
1339.37
1340.91
1342.12
1343.01
1343.57
1343.81
1343.72
1343.13
1342.19
1340.88
1339.19
1337.1
1334.64
1331.82
1328.65
1325.15
1321.32
1317.2
1312.79
1308.1
1303.15
1297.95
1292.52
1286.86
1280.99
1274.93
1268.67
1262.22
1255.61
1248.82
1241.87
1234.76
1227.49
1220.07
1212.49
1204.76
1196.89
1188.88
1180.73
1172.44
1164.03
1155.5
1146.84
1138.09
1129.23
1120.28
1111.24
1102.13
1092.94
1083.71
1074.42
1065.11
1055.77
1046.43
1037.09
1027.79
1018.54
1009.34
1000.19
991.113
982.104
973.178
964.342
955.608
946.992
938.508
930.163
921.955
913.881
906.13
897.329
11461.8
1785.22
726.871
486.108
400.85
365.208
347.392
338.029
333.475
331.937
332.13
334.738
338.943
344.356
350.67
357.903
366.065
374.741
383.597
393.035
403.21
414.156
425.657
437.623
450.293
463.747
478.019
493.128
509.04
525.768
543.383
561.861
581.197
601.257
621.918
643.122
664.844
687.077
709.875
733.325
757.281
781.691
806.415
831.304
856.174
881.098
906.295
932.18
958.133
983.92
1009.37
1034.1
1057.96
1081.03
1103.3
1124.71
1145.2
1164.74
1183.34
1200.99
1217.72
1233.57
1248.57
1262.75
1276.15
1288.8
1300.73
1311.95
1322.49
1332.37
1341.59
1350.17
1358.13
1365.74
1373.06
1379.97
1386.33
1392.06
1397.03
1401.45
1405.53
1409.71
1413.72
1416.96
1419.39
1421.14
1422.36
1423.17
1423.64
1423.83
1423.7
1423.44
1423.33
1422.89
1422.48
1422.24
1422
1421.8
1421.68
1421.67
1421.75
1421.91
1422.13
1422.38
1422.62
1422.84
1423
1423.07
1423.05
1422.93
1422.5
1421.7
1420.69
1419.41
1417.85
1415.96
1413.74
1411.19
1408.31