/*--------------------------------*- C++ -*----------------------------------*\
  =========                 |
  \\      /  F ield         | OpenFOAM: The Open Source CFD Toolbox
   \\    /   O peration     | Website:  https://openfoam.org
    \\  /    A nd           | Version:  13
     \\/     M anipulation  |
\*---------------------------------------------------------------------------*/
FoamFile
{
    format      ascii;
    class       volScalarField;
    location    "1600";
    object      p;
}
// * * * * * * * * * * * * * * * * * * * * * * * * * * * * * * * * * * * * * //

dimensions      [0 2 -2 0 0 0 0];

internalField   nonuniform List<scalar> 
12225
(
-4.36769
-5.23845
-5.62602
-5.75868
-5.89599
-6.04912
-6.17922
-6.28049
-6.36677
-6.4495
-6.52943
-6.60273
-6.67032
-6.73945
-6.8153
-6.89779
-6.98966
-7.10039
-4.62529
-5.26751
-5.59384
-5.72193
-5.85893
-6.01433
-6.14356
-6.24517
-6.33662
-6.42185
-6.50367
-6.58027
-6.65139
-6.71988
-6.79286
-6.87579
-6.96041
-7.02699
-4.83724
-5.26936
-5.58202
-5.73556
-5.8748
-6.02328
-6.14948
-6.25112
-6.34254
-6.42703
-6.50638
-6.58041
-6.64978
-6.71792
-6.78947
-6.86511
-6.93655
-6.9923
-4.97855
-5.28965
-5.58907
-5.7531
-5.88329
-6.01898
-6.1404
-6.24136
-6.33133
-6.41435
-6.49257
-6.56649
-6.63674
-6.70529
-6.77433
-6.84348
-6.90794
-6.96019
-5.09663
-5.33572
-5.60517
-5.76766
-5.89042
-6.01708
-6.13523
-6.23588
-6.32488
-6.40707
-6.48492
-6.55875
-6.62871
-6.69576
-6.76135
-6.82532
-6.88464
-6.93383
-5.20433
-5.38953
-5.62152
-5.77876
-5.89796
-6.01772
-6.1315
-6.23041
-6.31788
-6.39889
-6.4757
-6.54842
-6.61696
-6.68199
-6.74463
-6.80469
-6.85994
-6.90653
-5.30206
-5.4407
-5.63983
-5.7907
-5.90677
-6.01991
-6.12855
-6.22513
-6.3113
-6.3913
-6.46705
-6.53855
-6.6057
-6.66903
-6.72928
-6.78613
-6.838
-6.88233
-5.38992
-5.49372
-5.66344
-5.80528
-5.9171
-6.02378
-6.12707
-6.22092
-6.30559
-6.38422
-6.45849
-6.52842
-6.59391
-6.65535
-6.71315
-6.767
-6.81585
-6.85799
-5.46894
-5.54848
-5.69146
-5.82199
-5.92868
-6.0293
-6.12727
-6.21802
-6.30083
-6.3778
-6.45034
-6.51853
-6.58227
-6.64178
-6.69729
-6.74856
-6.79492
-6.8353
-5.54014
-5.60191
-5.72106
-5.83949
-5.94062
-6.03568
-6.12856
-6.21595
-6.29653
-6.37159
-6.44222
-6.50852
-6.57037
-6.62791
-6.68126
-6.73026
-6.77451
-6.81329
-5.60431
-5.65258
-5.75149
-5.85782
-5.95294
-6.0427
-6.1306
-6.21431
-6.29229
-6.36515
-6.43367
-6.49794
-6.55785
-6.61345
-6.66482
-6.71182
-6.75428
-6.79173
-5.65736
-5.69641
-5.78002
-5.87565
-5.96492
-6.04985
-6.13316
-6.21321
-6.28843
-6.359
-6.42542
-6.48775
-6.54584
-6.59972
-6.64938
-6.69478
-6.73583
-6.77218
-5.70499
-5.73721
-5.80817
-5.89381
-5.97714
-6.05731
-6.13611
-6.21241
-6.28473
-6.35288
-6.41712
-6.47743
-6.53372
-6.58588
-6.63397
-6.67789
-6.71769
-6.75311
-5.75346
-5.78001
-5.83927
-5.91452
-5.99103
-6.06584
-6.13969
-6.21174
-6.28067
-6.34598
-6.40766
-6.46567
-6.51985
-6.57015
-6.6165
-6.65893
-6.69746
-6.73198
-5.80097
-5.82274
-5.8718
-5.93691
-6.00602
-6.07504
-6.14365
-6.21114
-6.27629
-6.3384
-6.39722
-6.45266
-6.50453
-6.55277
-6.59732
-6.63821
-6.6755
-6.70916
-5.84474
-5.86267
-5.90333
-5.95928
-6.02099
-6.08407
-6.14744
-6.21026
-6.27144
-6.33011
-6.38592
-6.43861
-6.48809
-6.53419
-6.57695
-6.6163
-6.65241
-6.68523
-5.88086
-5.89587
-5.9302
-5.97866
-6.03378
-6.09136
-6.14986
-6.2083
-6.2656
-6.32093
-6.37374
-6.42379
-6.4709
-6.51499
-6.55598
-6.59393
-6.62891
-6.66097
-5.90345
-5.9166
-5.94688
-5.99036
-6.04076
-6.09418
-6.14891
-6.20388
-6.25804
-6.31054
-6.36082
-6.40859
-6.45367
-6.49598
-6.53546
-6.57216
-6.60616
-6.63754
-5.90311
-5.91574
-5.94499
-5.98714
-6.03604
-6.08792
-6.14109
-6.19451
-6.24713
-6.2981
-6.3469
-6.39325
-6.437
-6.47811
-6.51655
-6.55237
-6.58566
-6.61656
-5.87173
-5.88609
-5.91893
-5.96515
-6.0174
-6.07167
-6.12672
-6.18158
-6.23522
-6.28675
-6.3358
-6.38214
-6.42575
-6.46658
-6.50471
-6.54022
-6.57324
-6.60394
-5.82628
-5.84374
-5.88314
-5.93667
-5.99469
-6.05333
-6.11194
-6.16981
-6.22564
-6.27871
-6.32876
-6.37581
-6.41981
-6.46083
-6.49894
-6.53434
-6.56718
-6.59775
-5.76767
-5.79043
-5.84039
-5.90437
-5.96979
-6.03392
-6.09744
-6.15942
-6.2183
-6.2734
-6.32482
-6.37281
-6.41745
-6.45884
-6.49709
-6.53246
-6.56516
-6.59554
-5.69791
-5.72929
-5.79474
-5.87174
-5.94498
-6.01506
-6.08417
-6.15083
-6.21316
-6.27067
-6.32373
-6.37271
-6.41792
-6.45955
-6.49793
-6.53323
-6.56577
-6.5958
-5.61771
-5.66287
-5.74985
-5.84118
-5.92174
-5.99817
-6.07346
-6.14465
-6.21007
-6.26997
-6.3249
-6.3751
-6.42082
-6.46252
-6.50076
-6.53599
-6.56847
-6.59857
-5.52678
-5.59412
-5.70943
-5.81395
-5.90005
-5.98317
-6.06541
-6.1413
-6.20926
-6.27084
-6.32727
-6.37864
-6.42488
-6.46644
-6.5042
-6.53887
-6.57082
-6.60051
-5.42471
-5.52577
-5.6758
-5.79112
-5.88051
-5.9697
-6.05805
-6.13878
-6.20978
-6.27312
-6.33076
-6.38304
-6.42984
-6.47162
-6.50924
-6.5435
-6.57499
-6.60457
-5.31212
-5.46199
-5.64582
-5.76776
-5.86171
-5.95865
-6.05157
-6.13548
-6.20916
-6.27455
-6.33344
-6.38615
-6.43286
-6.47432
-6.51141
-6.54487
-6.57547
-6.60461
-5.18263
-5.41929
-5.62576
-5.74078
-5.8399
-5.94882
-6.04999
-6.13764
-6.21398
-6.28201
-6.34332
-6.39795
-6.44576
-6.48744
-6.52396
-6.5562
-6.58542
-6.61427
-4.99007
-5.39106
-5.62771
-5.7263
-5.82112
-5.93406
-6.04186
-6.13231
-6.20923
-6.27776
-6.33981
-6.39584
-6.44571
-6.48898
-6.52541
-6.55585
-6.58243
-6.60705
-4.73518
-5.32363
-5.62418
-5.73476
-5.83654
-5.95471
-6.06934
-6.16346
-6.24062
-6.30818
-6.36867
-6.42339
-6.47325
-6.5167
-6.55147
-6.57822
-6.60017
-6.61749
-7.55285
-7.55294
-7.55299
-7.55298
-7.55272
-7.55162
-7.54932
-7.54623
-7.54327
-7.54133
-7.54133
-7.54348
-7.54736
-7.5523
-7.55761
-7.56265
-7.56693
-7.57003
-7.57191
-7.57284
-7.57309
-7.5728
-7.57218
-7.57145
-7.57084
-7.57042
-7.57018
-7.56999
-7.56973
-7.56934
-7.56881
-7.56816
-7.56736
-7.56632
-7.56504
-7.56364
-7.56252
-7.5623
-7.56333
-7.56532
-7.56751
-7.56925
-7.57046
-7.57156
-7.57299
-7.57526
-7.57867
-7.58252
-7.58582
-7.58855
-7.59307
-7.60328
-7.62264
-7.65085
-7.68646
-7.72916
-7.77974
-7.83814
-7.90267
-7.9711
-8.04131
-8.11145
-8.17998
-8.24557
-8.30757
-8.36546
-8.41869
-8.46704
-8.5106
-8.5493
-8.58332
-8.61266
-8.63749
-8.65779
-8.67374
-8.68528
-8.69258
-8.69561
-8.69452
-8.68925
-8.67993
-8.66655
-8.64922
-8.62791
-8.60272
-8.57363
-8.54067
-8.50379
-8.46296
-8.41808
-8.36914
-8.31606
-8.25879
-8.19723
-8.13128
-8.06079
-7.98563
-7.90565
-7.82076
-7.73093
-7.63616
-7.53629
-7.4308
-7.31924
-7.20147
-7.07749
-6.94723
-6.81067
-6.66775
-6.51845
-6.36279
-6.20081
-6.03259
-5.85822
-5.67784
-5.49159
-5.29966
-5.10223
-4.89951
-4.69171
-4.47904
-4.26172
-4.04001
-3.81417
-3.58445
-3.3511
-3.11435
-2.87444
-2.63161
-2.38607
-2.13806
-1.88779
-1.63549
-1.38137
-1.12567
-0.868595
-0.610434
-0.351411
-0.0915302
0.169158
0.430331
0.691712
0.953041
1.21407
1.47455
1.73427
1.99299
2.25048
2.50653
2.76091
3.01343
3.26387
3.51204
3.75776
4.00086
4.24117
4.47856
4.7129
4.94409
5.17204
5.39671
5.61804
5.83602
6.05063
6.26186
6.46972
6.67422
6.87536
7.07315
7.2676
7.45872
7.64651
7.83098
8.01212
8.18992
8.36438
8.53557
8.70346
8.87104
9.0288
-7.55395
-7.55412
-7.55445
-7.55479
-7.55476
-7.55399
-7.55221
-7.54992
-7.54825
-7.54806
-7.54966
-7.55292
-7.55739
-7.5625
-7.56768
-7.57246
-7.57651
-7.57963
-7.58162
-7.5823
-7.58174
-7.58021
-7.5781
-7.57581
-7.57373
-7.57209
-7.57093
-7.57011
-7.56942
-7.56876
-7.56815
-7.56758
-7.56699
-7.56626
-7.56532
-7.56436
-7.56393
-7.56459
-7.56641
-7.56877
-7.57078
-7.57173
-7.57167
-7.57118
-7.5704
-7.56963
-7.5701
-7.57386
-7.5808
-7.58766
-7.59495
-7.60656
-7.62383
-7.64795
-7.6815
-7.72654
-7.78226
-7.84568
-7.9139
-7.9848
-8.05642
-8.12691
-8.19478
-8.2593
-8.31979
-8.37532
-8.42606
-8.47215
-8.51363
-8.55055
-8.58303
-8.61112
-8.6349
-8.65439
-8.66966
-8.6807
-8.6876
-8.69035
-8.68902
-8.68361
-8.67418
-8.66076
-8.64339
-8.62212
-8.59699
-8.56802
-8.53524
-8.49861
-8.45809
-8.41363
-8.36517
-8.31268
-8.25608
-8.19528
-8.13016
-8.0606
-7.98645
-7.90756
-7.82377
-7.73489
-7.64069
-7.54093
-7.43553
-7.32448
-7.2076
-7.08466
-6.95551
-6.82006
-6.67825
-6.53006
-6.37549
-6.21459
-6.04741
-5.87407
-5.69468
-5.5094
-5.31839
-5.12186
-4.92
-4.71303
-4.50115
-4.2846
-4.06363
-3.8385
-3.60946
-3.37676
-3.14064
-2.90133
-2.65907
-2.41408
-2.16658
-1.91679
-1.66492
-1.41118
-1.15577
-0.898841
-0.640583
-0.381214
-0.121134
0.139421
0.400397
0.661596
0.922778
1.1837
1.44411
1.7038
1.96254
2.22009
2.47623
2.73075
2.98343
3.23408
3.48249
3.72848
3.97188
4.21253
4.45027
4.68498
4.91655
5.1449
5.36997
5.5917
5.81007
6.02506
6.23668
6.44492
6.64978
6.85128
7.04942
7.24422
7.43569
7.62385
7.80869
7.99026
8.16861
8.34373
8.51585
8.68447
8.85456
9.01165
-7.55517
-7.55517
-7.55521
-7.55527
-7.55532
-7.55528
-7.55538
-7.55611
-7.55793
-7.56097
-7.56507
-7.56991
-7.57511
-7.58028
-7.58508
-7.58922
-7.59252
-7.59485
-7.59615
-7.59634
-7.59544
-7.59355
-7.59082
-7.58744
-7.58363
-7.57962
-7.57568
-7.57205
-7.56894
-7.56645
-7.56457
-7.56311
-7.56181
-7.56057
-7.55969
-7.55974
-7.56123
-7.5642
-7.56788
-7.57087
-7.57187
-7.5704
-7.56766
-7.56557
-7.56532
-7.56641
-7.56874
-7.57464
-7.58517
-7.59968
-7.61865
-7.64317
-7.6737
-7.71072
-7.75466
-7.80535
-7.8615
-7.9213
-7.98315
-8.04577
-8.10806
-8.16909
-8.22805
-8.2844
-8.3377
-8.38747
-8.43355
-8.47583
-8.51424
-8.54872
-8.57927
-8.60584
-8.62843
-8.647
-8.66156
-8.67208
-8.67857
-8.68103
-8.67947
-8.67391
-8.66437
-8.65089
-8.63351
-8.61225
-8.58717
-8.55829
-8.52565
-8.48923
-8.449
-8.4049
-8.35689
-8.30493
-8.24892
-8.18881
-8.12444
-8.0557
-7.98245
-7.90455
-7.82184
-7.73414
-7.64121
-7.54278
-7.43873
-7.32899
-7.21341
-7.09181
-6.96404
-6.82997
-6.68957
-6.54277
-6.38958
-6.23003
-6.06418
-5.89213
-5.714
-5.52994
-5.34012
-5.14474
-4.944
-4.73809
-4.52724
-4.31169
-4.09169
-3.8675
-3.63936
-3.40754
-3.17226
-2.93378
-2.6923
-2.44807
-2.2013
-1.95223
-1.70104
-1.44797
-1.19319
-0.9369
-0.679283
-0.420553
-0.161023
0.0990918
0.35967
0.62051
0.881369
1.14201
1.40221
1.66173
1.92034
2.17781
2.43393
2.68847
2.94123
3.19198
3.44054
3.68672
3.93034
4.17123
4.40925
4.64426
4.87615
5.10483
5.33022
5.55227
5.77096
5.98625
6.19814
6.40663
6.61173
6.81344
7.01178
7.20674
7.39836
7.58665
7.77163
7.95332
8.13177
8.30702
8.47956
8.64825
8.82082
8.97345
-7.55623
-7.55598
-7.55564
-7.5556
-7.55653
-7.55885
-7.56246
-7.56702
-7.57222
-7.57777
-7.58341
-7.58891
-7.59408
-7.59874
-7.60273
-7.60592
-7.60822
-7.60955
-7.60989
-7.60921
-7.60752
-7.60487
-7.60135
-7.59701
-7.59195
-7.58628
-7.58017
-7.57386
-7.56768
-7.56195
-7.55694
-7.55281
-7.54972
-7.54797
-7.54814
-7.55072
-7.55516
-7.56002
-7.56371
-7.56534
-7.56493
-7.56345
-7.56259
-7.56362
-7.5671
-7.57349
-7.58354
-7.59808
-7.61754
-7.64196
-7.67106
-7.70449
-7.74204
-7.78356
-7.82879
-7.87737
-7.92868
-7.98203
-8.03666
-8.09183
-8.14681
-8.20091
-8.25356
-8.30425
-8.35255
-8.39812
-8.44069
-8.48007
-8.5161
-8.54866
-8.57765
-8.60297
-8.62457
-8.64236
-8.6563
-8.66634
-8.67246
-8.67462
-8.67284
-8.66711
-8.65745
-8.64388
-8.62644
-8.60517
-8.58012
-8.55132
-8.5188
-8.48257
-8.44261
-8.39889
-8.35133
-8.29991
-8.24456
-8.18516
-8.12161
-8.05376
-7.98147
-7.90457
-7.82291
-7.73631
-7.64456
-7.54743
-7.44474
-7.33636
-7.22213
-7.10188
-6.97546
-6.84276
-6.7037
-6.55824
-6.40636
-6.24809
-6.08349
-5.91264
-5.73567
-5.55273
-5.364
-5.16966
-4.96992
-4.76497
-4.55504
-4.34039
-4.12126
-3.89791
-3.6706
-3.43957
-3.20507
-2.96733
-2.72659
-2.48308
-2.237
-1.9886
-1.73808
-1.48564
-1.23147
-0.975777
-0.718744
-0.460598
-0.20159
0.0580877
0.318276
0.578758
0.839301
1.09967
1.35965
1.61899
1.87748
2.13488
2.39098
2.64554
2.89836
3.14922
3.39792
3.64429
3.88812
4.12926
4.36755
4.60285
4.83505
5.06404
5.28975
5.51212
5.73111
5.94669
6.15886
6.36761
6.57294
6.77485
6.97335
7.16846
7.36018
7.54855
7.7336
7.91535
8.09388
8.2692
8.4419
8.61021
8.78331
8.92949
-7.5583
-7.55776
-7.55736
-7.55849
-7.56214
-7.56777
-7.57443
-7.58141
-7.58829
-7.59478
-7.60074
-7.60612
-7.61085
-7.61488
-7.61812
-7.62049
-7.62194
-7.62241
-7.62189
-7.62034
-7.61778
-7.61423
-7.60974
-7.60434
-7.5981
-7.59108
-7.58336
-7.5751
-7.56655
-7.55812
-7.55036
-7.5439
-7.53951
-7.53805
-7.5399
-7.54395
-7.54841
-7.55227
-7.55513
-7.55703
-7.5586
-7.56083
-7.56489
-7.5717
-7.58214
-7.59687
-7.61607
-7.63938
-7.66631
-7.69656
-7.72978
-7.76574
-7.80434
-7.84551
-7.88913
-7.93497
-7.98263
-8.03165
-8.08151
-8.13167
-8.18159
-8.23078
-8.27879
-8.3252
-8.36966
-8.41184
-8.45148
-8.48835
-8.52227
-8.55307
-8.58058
-8.60468
-8.62526
-8.6422
-8.65542
-8.66485
-8.67044
-8.67215
-8.66996
-8.66387
-8.6539
-8.64007
-8.6224
-8.60095
-8.57576
-8.54687
-8.51434
-8.47818
-8.4384
-8.3949
-8.34773
-8.29676
-8.24199
-8.18327
-8.1205
-8.0535
-7.98215
-7.90626
-7.82567
-7.74019
-7.64961
-7.55371
-7.45229
-7.34519
-7.2322
-7.11318
-6.98796
-6.85645
-6.71855
-6.57421
-6.42342
-6.26619
-6.10259
-5.93269
-5.75662
-5.57454
-5.38663
-5.19306
-4.99405
-4.78979
-4.58054
-4.36653
-4.14803
-3.9253
-3.69859
-3.46815
-3.23423
-2.99706
-2.75688
-2.51392
-2.2684
-2.02053
-1.77053
-1.5186
-1.26493
-1.00971
-0.753146
-0.495449
-0.236842
0.0224826
0.282346
0.54253
0.802812
1.06296
1.32275
1.58196
1.84035
2.09769
2.35377
2.60836
2.86124
3.11221
3.36105
3.60757
3.85159
4.09293
4.33145
4.56699
4.79943
5.02868
5.25465
5.47728
5.69652
5.91235
6.12474
6.3337
6.53921
6.74128
6.93993
7.13516
7.32699
7.51545
7.70055
7.88233
8.06087
8.2361
8.40865
8.57615
8.74874
8.88793
-7.56219
-7.56133
-7.56166
-7.5655
-7.57217
-7.57992
-7.58783
-7.59543
-7.60248
-7.60887
-7.61461
-7.61967
-7.624
-7.62754
-7.63023
-7.63201
-7.63283
-7.63265
-7.63146
-7.62924
-7.626
-7.62176
-7.61655
-7.61035
-7.60319
-7.5951
-7.58623
-7.57672
-7.56684
-7.55709
-7.54826
-7.54126
-7.53712
-7.53621
-7.53756
-7.53975
-7.5422
-7.54512
-7.54882
-7.55356
-7.55947
-7.5671
-7.57763
-7.59194
-7.61013
-7.63193
-7.6569
-7.68477
-7.7152
-7.74796
-7.78286
-7.81976
-7.85856
-7.89915
-7.94138
-7.98505
-8.02989
-8.07556
-8.12173
-8.168
-8.21401
-8.25938
-8.30377
-8.34683
-8.38826
-8.42774
-8.46501
-8.49984
-8.532
-8.56128
-8.5875
-8.61049
-8.63011
-8.6462
-8.65866
-8.6674
-8.67235
-8.67346
-8.67071
-8.66409
-8.65363
-8.63934
-8.62127
-8.59945
-8.57396
-8.54484
-8.51216
-8.47595
-8.43618
-8.3929
-8.34596
-8.29542
-8.24115
-8.18307
-8.12103
-8.05487
-7.98444
-7.90954
-7.83001
-7.74563
-7.65619
-7.56145
-7.46121
-7.35525
-7.24338
-7.12544
-7.00128
-6.87077
-6.73382
-6.59038
-6.44043
-6.28399
-6.1211
-5.95187
-5.77642
-5.59491
-5.40751
-5.21442
-5.01584
-4.812
-4.60314
-4.38951
-4.1714
-3.94904
-3.7227
-3.49263
-3.25908
-3.02229
-2.7825
-2.53992
-2.29479
-2.04732
-1.79771
-1.54617
-1.29288
-1.03803
-0.781827
-0.524477
-0.266184
-0.00713859
0.252466
0.512416
0.772491
1.03247
1.29212
1.55122
1.80954
2.06685
2.32293
2.57755
2.8305
3.08155
3.3305
3.57715
3.82132
4.06282
4.3015
4.53722
4.76984
4.99927
5.22542
5.44822
5.66763
5.8836
6.09613
6.30522
6.51083
6.713
6.91171
7.10699
7.29884
7.48729
7.67236
7.85407
8.03248
8.20745
8.37959
8.54604
8.71792
8.85026
-7.56721
-7.56665
-7.56887
-7.57526
-7.58332
-7.59142
-7.59916
-7.60642
-7.61313
-7.61925
-7.62474
-7.62953
-7.63355
-7.63675
-7.63905
-7.64041
-7.6408
-7.64018
-7.63855
-7.63588
-7.63221
-7.62754
-7.62184
-7.61504
-7.6072
-7.59845
-7.589
-7.57907
-7.56903
-7.55949
-7.55133
-7.54546
-7.542
-7.54007
-7.53907
-7.5392
-7.54096
-7.54482
-7.55065
-7.5585
-7.56897
-7.58264
-7.59956
-7.61961
-7.64257
-7.66821
-7.69619
-7.72631
-7.75843
-7.79239
-7.82802
-7.8652
-7.90378
-7.94365
-7.98464
-8.0266
-8.06932
-8.11257
-8.1561
-8.19964
-8.2429
-8.28559
-8.32743
-8.3681
-8.40733
-8.44484
-8.48037
-8.51365
-8.54446
-8.57255
-8.59773
-8.61978
-8.63854
-8.65383
-8.66554
-8.67354
-8.67777
-8.67817
-8.67471
-8.66741
-8.65628
-8.64136
-8.62269
-8.60034
-8.57438
-8.54487
-8.5119
-8.47548
-8.43569
-8.39243
-8.34572
-8.29553
-8.24172
-8.18425
-8.12291
-8.05758
-7.98804
-7.91413
-7.83564
-7.75234
-7.66402
-7.57039
-7.47124
-7.36633
-7.25549
-7.13851
-7.01525
-6.88557
-6.74939
-6.60664
-6.4573
-6.30139
-6.13897
-5.97014
-5.79504
-5.61382
-5.42667
-5.23378
-5.03537
-4.83168
-4.62296
-4.40949
-4.19151
-3.96931
-3.74313
-3.51325
-3.27989
-3.04332
-2.80375
-2.56143
-2.31656
-2.06937
-1.82004
-1.56879
-1.31579
-1.06123
-0.805306
-0.548229
-0.290186
-0.0313657
0.228032
0.487799
0.747714
1.00756
1.26711
1.52614
1.78442
2.04172
2.29781
2.55246
2.80547
3.0566
3.30565
3.5524
3.79668
4.0383
4.27709
4.51292
4.74565
4.97518
5.20143
5.42431
5.6438
5.85985
6.07244
6.28156
6.48719
6.68935
6.88803
7.08325
7.27504
7.46339
7.64834
7.82988
8.00805
8.18262
8.35421
8.51951
8.69074
8.81666
-7.57137
-7.57189
-7.57644
-7.58396
-7.59183
-7.59938
-7.6066
-7.61346
-7.61988
-7.62577
-7.63105
-7.63564
-7.63946
-7.64244
-7.64452
-7.64566
-7.64581
-7.64495
-7.64308
-7.6402
-7.63632
-7.63138
-7.62531
-7.61817
-7.61018
-7.6015
-7.59227
-7.58281
-7.57367
-7.56561
-7.55913
-7.55401
-7.5496
-7.54587
-7.54369
-7.54376
-7.54621
-7.55143
-7.55983
-7.57145
-7.5862
-7.60388
-7.62434
-7.64739
-7.67279
-7.70035
-7.72987
-7.76119
-7.79418
-7.82867
-7.86453
-7.90164
-7.93986
-7.97907
-8.01915
-8.05994
-8.10127
-8.14297
-8.18484
-8.22665
-8.26817
-8.30915
-8.34934
-8.38847
-8.42628
-8.46249
-8.49685
-8.52909
-8.55896
-8.58621
-8.6106
-8.63191
-8.64994
-8.66451
-8.67548
-8.68272
-8.68616
-8.68574
-8.68145
-8.6733
-8.66134
-8.6456
-8.62617
-8.60311
-8.5765
-8.54644
-8.51302
-8.47631
-8.43632
-8.39309
-8.34652
-8.29659
-8.24324
-8.18632
-8.12569
-8.06116
-7.99253
-7.91961
-7.84217
-7.75995
-7.6727
-7.58015
-7.48202
-7.37811
-7.26819
-7.15207
-7.02958
-6.9006
-6.76501
-6.62277
-6.47384
-6.31826
-6.15608
-5.98742
-5.81243
-5.63126
-5.44411
-5.25119
-5.05271
-4.84895
-4.64016
-4.42663
-4.2086
-3.98637
-3.76018
-3.53031
-3.29701
-3.06051
-2.82105
-2.57887
-2.33417
-2.08716
-1.83804
-1.58701
-1.33423
-1.07989
-0.8242
-0.567343
-0.309502
-0.05087
0.208358
0.467973
0.727761
0.987505
1.24698
1.50596
1.76422
2.02151
2.27763
2.53233
2.7854
3.03661
3.28575
3.5326
3.77696
4.01865
4.25752
4.49342
4.72622
4.9558
5.1821
5.40502
5.62453
5.84058
6.05317
6.26225
6.46783
6.6699
6.86849
7.06359
7.25523
7.44342
7.62818
7.80948
7.98733
8.16143
8.33239
8.49654
8.66719
8.78723
-7.57298
-7.57496
-7.58105
-7.58844
-7.59568
-7.60273
-7.60959
-7.6162
-7.62243
-7.6282
-7.6334
-7.63791
-7.64167
-7.64459
-7.64661
-7.64769
-7.64781
-7.64693
-7.64504
-7.64215
-7.63823
-7.63319
-7.62708
-7.6201
-7.61247
-7.60433
-7.59597
-7.58784
-7.58035
-7.57372
-7.56776
-7.56223
-7.55719
-7.55328
-7.55143
-7.55232
-7.55631
-7.56368
-7.57442
-7.58828
-7.6051
-7.62466
-7.64675
-7.67117
-7.6977
-7.72618
-7.75643
-7.78832
-7.82169
-7.85641
-7.89234
-7.92937
-7.96737
-8.00622
-8.04578
-8.08594
-8.12654
-8.16741
-8.2084
-8.24929
-8.28988
-8.32995
-8.36926
-8.40757
-8.44462
-8.48015
-8.51388
-8.54554
-8.57487
-8.60159
-8.62545
-8.64621
-8.66365
-8.67757
-8.68782
-8.69428
-8.69686
-8.69552
-8.69025
-8.6811
-8.66813
-8.65141
-8.63103
-8.60708
-8.57967
-8.5489
-8.51489
-8.47774
-8.43753
-8.39415
-8.3477
-8.29801
-8.24509
-8.18873
-8.12881
-8.06509
-7.9974
-7.92548
-7.84908
-7.76795
-7.68174
-7.59023
-7.49308
-7.3901
-7.28103
-7.16568
-7.04386
-6.91545
-6.78031
-6.63841
-6.48973
-6.33429
-6.17216
-6.00348
-5.82839
-5.64707
-5.45971
-5.26655
-5.06782
-4.8638
-4.65477
-4.44099
-4.22277
-4.00035
-3.77403
-3.54404
-3.31067
-3.07415
-2.83471
-2.59257
-2.34797
-2.10108
-1.85211
-1.60124
-1.34864
-1.09448
-0.838979
-0.582304
-0.324637
-0.066166
0.192914
0.452398
0.712077
0.971733
1.23114
1.49009
1.74832
2.00563
2.26176
2.5165
2.76963
3.02092
3.27013
3.51705
3.76148
4.00322
4.24213
4.47806
4.71088
4.94048
5.16676
5.38967
5.60914
5.82515
6.03767
6.24667
6.45213
6.65407
6.85249
7.04742
7.23887
7.42685
7.61137
7.79238
7.96986
8.14344
8.31374
8.47677
8.64688
8.76172
-7.57066
-7.57394
-7.58038
-7.5873
-7.59419
-7.60102
-7.60775
-7.61428
-7.62051
-7.62631
-7.63158
-7.6362
-7.64008
-7.64313
-7.6453
-7.64653
-7.64679
-7.64603
-7.64427
-7.64147
-7.63763
-7.63275
-7.62695
-7.62047
-7.61355
-7.60641
-7.59935
-7.59252
-7.58594
-7.57965
-7.57372
-7.56828
-7.56379
-7.56091
-7.56037
-7.56265
-7.56799
-7.57655
-7.58831
-7.60311
-7.62077
-7.64108
-7.66382
-7.68879
-7.71578
-7.74464
-7.77522
-7.80737
-7.84094
-7.87582
-7.91187
-7.94897
-7.98697
-8.02577
-8.06525
-8.10527
-8.14569
-8.18636
-8.22711
-8.26776
-8.30811
-8.34795
-8.38705
-8.42517
-8.46204
-8.49741
-8.53099
-8.56249
-8.59164
-8.61813
-8.64169
-8.66205
-8.67898
-8.69229
-8.70181
-8.70741
-8.70902
-8.70662
-8.70022
-8.6899
-8.67576
-8.65789
-8.6364
-8.61141
-8.58304
-8.55142
-8.51671
-8.47905
-8.43843
-8.395
-8.34854
-8.29911
-8.24659
-8.19083
-8.13162
-8.06876
-8.00202
-7.93112
-7.85579
-7.77571
-7.69056
-7.60004
-7.50386
-7.40175
-7.29348
-7.17883
-7.05759
-6.92962
-6.79482
-6.65313
-6.50454
-6.34909
-6.18686
-6.01799
-5.84263
-5.66099
-5.47326
-5.27969
-5.08056
-4.87614
-4.66673
-4.45259
-4.23403
-4.01132
-3.78475
-3.55457
-3.32105
-3.08443
-2.84493
-2.6028
-2.35824
-2.11143
-1.86257
-1.61183
-1.35938
-1.10539
-0.850052
-0.593542
-0.336035
-0.0777151
0.181225
0.440586
0.700159
0.95973
1.21908
1.47797
1.73619
1.99349
2.24964
2.50442
2.7576
3.00896
3.25825
3.50524
3.7497
3.99146
4.23038
4.46631
4.6991
4.92867
5.15491
5.37775
5.59714
5.81307
6.02549
6.23437
6.43968
6.64143
6.83965
7.03436
7.22558
7.41331
7.59754
7.77823
7.9553
8.12834
8.29795
8.45989
8.62949
8.73982
-7.56275
-7.56676
-7.57306
-7.57988
-7.58687
-7.59384
-7.60071
-7.6074
-7.61382
-7.61984
-7.62536
-7.63024
-7.63438
-7.63769
-7.64011
-7.64157
-7.64204
-7.6415
-7.63996
-7.6374
-7.63387
-7.62946
-7.62434
-7.61872
-7.61274
-7.60653
-7.6002
-7.59386
-7.58759
-7.58153
-7.57593
-7.57119
-7.56774
-7.56604
-7.5666
-7.56984
-7.57601
-7.58523
-7.5975
-7.6127
-7.63068
-7.65123
-7.67415
-7.69927
-7.72641
-7.75543
-7.78618
-7.81852
-7.85231
-7.88742
-7.92372
-7.96106
-7.99935
-8.03844
-8.07822
-8.11855
-8.15928
-8.20027
-8.24135
-8.28233
-8.32303
-8.36323
-8.40267
-8.44112
-8.4783
-8.51393
-8.54773
-8.5794
-8.60862
-8.63509
-8.65852
-8.6786
-8.6951
-8.7078
-8.71654
-8.72121
-8.72173
-8.7181
-8.7104
-8.69873
-8.68323
-8.66404
-8.64129
-8.6151
-8.58562
-8.55302
-8.5175
-8.4792
-8.43826
-8.39459
-8.34822
-8.29906
-8.24697
-8.19182
-8.13337
-8.07141
-8.00565
-7.93579
-7.86155
-7.78252
-7.69842
-7.60888
-7.51365
-7.41239
-7.30488
-7.19085
-7.07012
-6.94251
-6.80795
-6.66636
-6.51775
-6.36217
-6.19971
-6.03052
-5.85477
-5.67267
-5.48445
-5.29038
-5.09073
-4.88582
-4.67591
-4.46134
-4.24237
-4.01932
-3.79244
-3.56202
-3.32829
-3.09153
-2.85195
-2.60979
-2.36524
-2.1185
-1.86974
-1.61913
-1.36682
-1.11299
-0.857826
-0.601486
-0.344144
-0.0859829
0.172811
0.43204
0.6915
0.950978
1.21025
1.4691
1.72729
1.98458
2.24074
2.49554
2.74876
3.00018
3.24954
3.49656
3.74103
3.98277
4.22166
4.45754
4.69029
4.91978
5.14594
5.36867
5.58796
5.80376
6.01606
6.22478
6.4299
6.63144
6.82943
7.02389
7.21484
7.40229
7.58623
7.76657
7.94322
8.11571
8.28465
8.44556
8.61463
8.72114
-7.54781
-7.55197
-7.5584
-7.56585
-7.57345
-7.58087
-7.58808
-7.59508
-7.60183
-7.60821
-7.6141
-7.61935
-7.62384
-7.62746
-7.63018
-7.63195
-7.63275
-7.63256
-7.63143
-7.62935
-7.62642
-7.62271
-7.61834
-7.61344
-7.60811
-7.60246
-7.59656
-7.59054
-7.58457
-7.57893
-7.57392
-7.56987
-7.56716
-7.56627
-7.56763
-7.57156
-7.5783
-7.58795
-7.6005
-7.61587
-7.63391
-7.65447
-7.67737
-7.70249
-7.72967
-7.75878
-7.78969
-7.82226
-7.85634
-7.8918
-7.9285
-7.96634
-8.00519
-8.04491
-8.08537
-8.12642
-8.16789
-8.20964
-8.25149
-8.29326
-8.33474
-8.3757
-8.41591
-8.45509
-8.49297
-8.52923
-8.56357
-8.59567
-8.6252
-8.65183
-8.67523
-8.69509
-8.71113
-8.72316
-8.73101
-8.73457
-8.73381
-8.72874
-8.71948
-8.70623
-8.68919
-8.66852
-8.64437
-8.61686
-8.58614
-8.55244
-8.51601
-8.47707
-8.43572
-8.392
-8.34573
-8.29686
-8.24527
-8.19076
-8.13313
-8.0721
-8.00737
-7.93862
-7.86545
-7.78751
-7.70444
-7.61591
-7.5216
-7.42119
-7.31441
-7.20098
-7.0807
-6.95341
-6.81901
-6.67745
-6.52876
-6.37297
-6.21021
-6.04063
-5.86441
-5.68178
-5.493
-5.29836
-5.09815
-4.89269
-4.68227
-4.46722
-4.24782
-4.02439
-3.79719
-3.56651
-3.33258
-3.09567
-2.85602
-2.61383
-2.36931
-2.12265
-1.874
-1.62353
-1.37138
-1.11773
-0.862746
-0.606593
-0.349435
-0.0914504
0.167179
0.42626
0.68559
0.944959
1.20415
1.46293
1.72107
1.97833
2.23448
2.48928
2.74253
2.99401
3.24344
3.49051
3.73497
3.97666
4.21549
4.45131
4.68397
4.91337
5.1394
5.36202
5.58116
5.79682
6.00899
6.21753
6.42243
6.62372
6.82145
7.01564
7.20632
7.39347
7.57709
7.75709
7.93331
8.10523
8.27352
8.43346
8.60196
8.70535
-7.52536
-7.52937
-7.53657
-7.54527
-7.55384
-7.56184
-7.56946
-7.57687
-7.5841
-7.59104
-7.5975
-7.60325
-7.60816
-7.61218
-7.6153
-7.61748
-7.61873
-7.61906
-7.61849
-7.61704
-7.61477
-7.61175
-7.60806
-7.60378
-7.59898
-7.59374
-7.5882
-7.58255
-7.577
-7.57179
-7.56722
-7.56367
-7.56154
-7.56127
-7.5632
-7.56763
-7.57474
-7.58462
-7.59726
-7.6126
-7.63053
-7.65095
-7.67373
-7.69877
-7.72595
-7.75517
-7.78629
-7.81918
-7.85368
-7.88966
-7.92698
-7.96553
-8.00517
-8.04577
-8.08716
-8.12921
-8.17174
-8.2146
-8.2576
-8.30053
-8.34316
-8.38526
-8.42657
-8.4668
-8.50566
-8.5428
-8.5779
-8.61061
-8.64059
-8.66743
-8.69078
-8.71028
-8.72566
-8.73674
-8.74341
-8.74559
-8.74324
-8.73642
-8.72535
-8.71035
-8.69166
-8.66948
-8.64391
-8.61505
-8.58306
-8.54823
-8.51091
-8.47136
-8.42979
-8.38598
-8.33993
-8.29137
-8.24028
-8.18644
-8.12966
-8.06962
-8.00596
-7.93833
-7.86627
-7.78945
-7.70743
-7.61994
-7.52657
-7.42704
-7.32099
-7.20817
-7.08832
-6.96133
-6.82708
-6.68554
-6.53674
-6.38074
-6.21765
-6.04765
-5.87094
-5.68778
-5.49844
-5.30322
-5.10246
-4.89644
-4.68552
-4.46999
-4.25019
-4.02639
-3.7989
-3.56798
-3.33389
-3.09687
-2.85718
-2.61501
-2.37057
-2.12402
-1.87554
-1.62524
-1.37329
-1.11985
-0.865103
-0.609186
-0.352263
-0.0945051
0.16391
0.422793
0.681945
0.941159
1.20021
1.45888
1.71693
1.97412
2.23021
2.48497
2.73819
2.98971
3.23922
3.48638
3.73087
3.97252
4.21127
4.447
4.67955
4.90883
5.13474
5.35721
5.57619
5.79173
6.00379
6.21216
6.41681
6.61785
6.8153
7.00922
7.19961
7.38647
7.56979
7.74945
7.92524
8.09661
8.26426
8.42328
8.59117
8.69211
-7.49608
-7.50032
-7.50885
-7.51918
-7.52882
-7.53742
-7.54566
-7.55377
-7.56164
-7.56921
-7.57639
-7.58286
-7.58833
-7.59273
-7.59622
-7.59886
-7.60066
-7.60158
-7.60164
-7.60086
-7.59927
-7.59692
-7.59385
-7.59011
-7.58578
-7.581
-7.57588
-7.5706
-7.56538
-7.56051
-7.55633
-7.55322
-7.55156
-7.55171
-7.554
-7.55868
-7.56589
-7.57573
-7.58821
-7.60332
-7.621
-7.64118
-7.66376
-7.68868
-7.71583
-7.74514
-7.77646
-7.80969
-7.84466
-7.88125
-7.91933
-7.95875
-7.99938
-8.04106
-8.08363
-8.12693
-8.1708
-8.21504
-8.25945
-8.3038
-8.34783
-8.39129
-8.43389
-8.47529
-8.5152
-8.55323
-8.58905
-8.62227
-8.65251
-8.67938
-8.70243
-8.72127
-8.73562
-8.74535
-8.75045
-8.75088
-8.74665
-8.73781
-8.72479
-8.70804
-8.68788
-8.6644
-8.63767
-8.60767
-8.5746
-8.5388
-8.50074
-8.46075
-8.41893
-8.37521
-8.32923
-8.28092
-8.23018
-8.17692
-8.12095
-8.06189
-7.99934
-7.93281
-7.86188
-7.78613
-7.70521
-7.61875
-7.52639
-7.42776
-7.32249
-7.21027
-7.09087
-6.96416
-6.83005
-6.68853
-6.53961
-6.38339
-6.21997
-6.04952
-5.87229
-5.68856
-5.49864
-5.30285
-5.10152
-4.89496
-4.68353
-4.46753
-4.2473
-4.02313
-3.79535
-3.56422
-3.33001
-3.09297
-2.85331
-2.61125
-2.36697
-2.12064
-1.8724
-1.6224
-1.37077
-1.1177
-0.863311
-0.607763
-0.351214
-0.0938255
0.164228
0.422763
0.681584
0.940485
1.19925
1.45765
1.71544
1.97239
2.22826
2.48279
2.73579
2.98712
3.23654
3.48371
3.7282
3.96978
4.20843
4.44404
4.67646
4.9056
5.13136
5.35366
5.57249
5.78796
6.00001
6.20827
6.41268
6.61345
6.81065
7.00431
7.19443
7.38101
7.56407
7.74344
7.91883
8.08965
8.25668
8.41483
8.58206
8.6812
-7.46232
-7.46738
-7.47775
-7.49011
-7.50101
-7.51016
-7.51869
-7.52736
-7.53615
-7.54465
-7.55263
-7.55985
-7.5659
-7.57063
-7.57439
-7.57744
-7.57973
-7.58123
-7.58192
-7.5818
-7.58087
-7.57916
-7.5767
-7.57354
-7.56976
-7.56543
-7.56071
-7.55579
-7.55092
-7.5464
-7.54257
-7.53977
-7.53837
-7.53868
-7.54099
-7.54553
-7.55245
-7.56188
-7.57388
-7.58846
-7.60563
-7.62534
-7.64755
-7.67223
-7.69928
-7.72863
-7.76014
-7.7937
-7.82919
-7.86648
-7.90541
-7.94583
-7.9876
-8.03053
-8.07447
-8.1192
-8.16455
-8.21026
-8.25612
-8.30185
-8.3472
-8.39186
-8.43554
-8.47788
-8.51855
-8.55718
-8.59339
-8.62679
-8.65698
-8.68351
-8.70588
-8.72361
-8.73639
-8.74432
-8.74748
-8.74592
-8.73954
-8.72846
-8.71335
-8.69502
-8.6737
-8.64933
-8.62186
-8.59129
-8.55781
-8.5218
-8.48362
-8.44358
-8.4017
-8.3579
-8.31201
-8.26394
-8.21362
-8.161
-8.1058
-8.04766
-7.98615
-7.92071
-7.85091
-7.77627
-7.69649
-7.6111
-7.51978
-7.42204
-7.31756
-7.20594
-7.087
-6.96055
-6.82656
-6.685
-6.53591
-6.37938
-6.21553
-6.04456
-5.86671
-5.68232
-5.49171
-5.29525
-5.09324
-4.88605
-4.674
-4.45746
-4.23672
-4.01215
-3.78402
-3.55266
-3.31831
-3.08123
-2.8416
-2.59966
-2.35556
-2.10947
-1.86151
-1.61185
-1.36063
-1.10799
-0.854058
-0.598978
-0.342906
-0.0860008
0.171573
0.429635
0.687995
0.946448
1.20478
1.46276
1.72015
1.9767
2.23216
2.48626
2.73876
2.9894
3.23799
3.48432
3.72822
3.96946
4.20783
4.44316
4.6753
4.90414
5.1296
5.35158
5.57008
5.78532
5.99728
6.20536
6.40952
6.61003
6.80699
7.00041
7.1903
7.37665
7.55953
7.73872
7.91378
8.08409
8.25052
8.40786
8.57437
8.67237
-7.42623
-7.43242
-7.44513
-7.45961
-7.4711
-7.48052
-7.48988
-7.49953
-7.50911
-7.5183
-7.52693
-7.53473
-7.54125
-7.54633
-7.55044
-7.55392
-7.55674
-7.55884
-7.56018
-7.56078
-7.5606
-7.55965
-7.55793
-7.55548
-7.55233
-7.54858
-7.54435
-7.53984
-7.53529
-7.53097
-7.52722
-7.52435
-7.5227
-7.52258
-7.52428
-7.52803
-7.53405
-7.54248
-7.55344
-7.56701
-7.58324
-7.60217
-7.62379
-7.64808
-7.67496
-7.70434
-7.73608
-7.7701
-7.80623
-7.84435
-7.88425
-7.9258
-7.96876
-8.01296
-8.05819
-8.10426
-8.1509
-8.19788
-8.24493
-8.29177
-8.33812
-8.38366
-8.42808
-8.47101
-8.51212
-8.551
-8.5873
-8.62059
-8.65047
-8.67633
-8.69752
-8.71338
-8.72371
-8.72918
-8.73078
-8.72836
-8.72137
-8.70989
-8.69417
-8.67505
-8.65259
-8.62718
-8.59866
-8.56729
-8.53316
-8.49678
-8.45834
-8.41795
-8.37572
-8.33166
-8.28569
-8.23777
-8.1879
-8.1359
-8.08146
-8.02421
-7.96368
-7.89935
-7.83071
-7.75733
-7.67879
-7.59464
-7.50443
-7.40773
-7.30412
-7.19326
-7.07489
-6.94888
-6.81516
-6.67371
-6.52457
-6.36785
-6.2037