/*--------------------------------*- C++ -*----------------------------------*\
  =========                 |
  \\      /  F ield         | OpenFOAM: The Open Source CFD Toolbox
   \\    /   O peration     | Website:  https://openfoam.org
    \\  /    A nd           | Version:  13
     \\/     M anipulation  |
\*---------------------------------------------------------------------------*/
FoamFile
{
    format      ascii;
    class       surfaceScalarField;
    location    "1600";
    object      phi;
}
// * * * * * * * * * * * * * * * * * * * * * * * * * * * * * * * * * * * * * //

dimensions      [0 3 -1 0 0 0 0];

internalField   nonuniform List<scalar> 
24170
(
3.06053e-06
1.2792e-07
2.91541e-06
1.45139e-07
2.78589e-06
1.29453e-07
2.67017e-06
1.15687e-07
2.57007e-06
1.00087e-07
2.48708e-06
8.29588e-08
2.41755e-06
6.95746e-08
2.35878e-06
5.88272e-08
2.31032e-06
4.8419e-08
2.26847e-06
4.18379e-08
2.2319e-06
3.65765e-08
2.20044e-06
3.1467e-08
2.17339e-06
2.7036e-08
2.14955e-06
2.38272e-08
2.12821e-06
2.13424e-08
2.11154e-06
1.66771e-08
2.10215e-06
9.41218e-09
5.46159e-09
2.0967e-06
3.4693e-06
7.58934e-08
3.50165e-06
1.12828e-07
3.51696e-06
1.14109e-07
3.51768e-06
1.14965e-07
3.50565e-06
1.12117e-07
3.48467e-06
1.03931e-07
3.45737e-06
9.69088e-08
3.42675e-06
8.94785e-08
3.39631e-06
7.88466e-08
3.36523e-06
7.29223e-08
3.33348e-06
6.83335e-08
3.30288e-06
6.20846e-08
3.27461e-06
5.53042e-08
3.24834e-06
5.0095e-08
3.22366e-06
4.60362e-08
3.20079e-06
3.9559e-08
3.1792e-06
3.10183e-08
2.60709e-08
3.1586e-06
3.6826e-06
5.58412e-08
3.70017e-06
9.52671e-08
3.71407e-06
1.00146e-07
3.72658e-06
1.02427e-07
3.7365e-06
1.02171e-07
3.74306e-06
9.73497e-08
3.74778e-06
9.22302e-08
3.75087e-06
8.64372e-08
3.75104e-06
7.8641e-08
3.75023e-06
7.37101e-08
3.74867e-06
6.98957e-08
3.7458e-06
6.49537e-08
3.74173e-06
5.93585e-08
3.73726e-06
5.45501e-08
3.733e-06
5.02862e-08
3.72805e-06
4.45189e-08
3.7214e-06
3.76767e-08
3.21375e-08
3.71535e-06
3.93707e-06
4.41795e-08
3.94943e-06
8.29317e-08
3.9586e-06
9.09717e-08
3.96704e-06
9.39967e-08
3.97478e-06
9.44409e-08
3.98109e-06
9.10503e-08
3.98686e-06
8.64989e-08
3.99222e-06
8.1101e-08
3.9962e-06
7.46503e-08
4.00009e-06
6.98213e-08
4.00424e-06
6.57559e-08
4.00809e-06
6.11122e-08
4.01139e-06
5.60551e-08
4.01454e-06
5.14049e-08
4.01786e-06
4.69666e-08
4.02073e-06
4.166e-08
4.02261e-06
3.58106e-08
3.07039e-08
4.02406e-06
4.2157e-06
3.56391e-08
4.22605e-06
7.25869e-08
4.23406e-06
8.29143e-08
4.24126e-06
8.67671e-08
4.2479e-06
8.77756e-08
4.25356e-06
8.53714e-08
4.25866e-06
8.14314e-08
4.26327e-06
7.6521e-08
4.26694e-06
7.09601e-08
4.27041e-06
6.63357e-08
4.27398e-06
6.21731e-08
4.27741e-06
5.76759e-08
4.28053e-06
5.29232e-08
4.28354e-06
4.8375e-08
4.28662e-06
4.38768e-08
4.2894e-06
3.88882e-08
4.29158e-06
3.3641e-08
2.89256e-08
4.29337e-06
4.51581e-06
2.89358e-08
4.52496e-06
6.3461e-08
4.53253e-06
7.53405e-08
4.53938e-06
7.99303e-08
4.5457e-06
8.14585e-08
4.55125e-06
7.98351e-08
4.55622e-06
7.64929e-08
4.56058e-06
7.21858e-08
4.5642e-06
6.73355e-08
4.56764e-06
6.29058e-08
4.57106e-06
5.87537e-08
4.57433e-06
5.44139e-08
4.57734e-06
4.99035e-08
4.58023e-06
4.54823e-08
4.58305e-06
4.10629e-08
4.58555e-06
3.63939e-08
4.58758e-06
3.16304e-08
2.72373e-08
4.58928e-06
4.83806e-06
2.36205e-08
4.8463e-06
5.52281e-08
4.85358e-06
6.80146e-08
4.86028e-06
7.32015e-08
4.8665e-06
7.5225e-08
4.87205e-06
7.42697e-08
4.87705e-06
7.15121e-08
4.88146e-06
6.77927e-08
4.88524e-06
6.35441e-08
4.88878e-06
5.93528e-08
4.89225e-06
5.52769e-08
4.89555e-06
5.1101e-08
4.89863e-06
4.68168e-08
4.90154e-06
4.25566e-08
4.90431e-06
3.82936e-08
4.90677e-06
3.39372e-08
4.90883e-06
2.95747e-08
2.54945e-08
4.91058e-06
5.18384e-06
1.93748e-08
5.19129e-06
4.78035e-08
5.19829e-06
6.10121e-08
5.20489e-06
6.66104e-08
5.21108e-06
6.90392e-08
5.21668e-06
6.86874e-08
5.22173e-06
6.64829e-08
5.22628e-06
6.32592e-08
5.23031e-06
5.95133e-08
5.23403e-06
5.56336e-08
5.23759e-06
5.17216e-08
5.24096e-06
4.77255e-08
5.24412e-06
4.36611e-08
5.24707e-06
3.95991e-08
5.24983e-06
3.55409e-08
5.2523e-06
3.14699e-08
5.25443e-06
2.74558e-08
2.3683e-08
5.25625e-06
5.55477e-06
1.59554e-08
5.56146e-06
4.11325e-08
5.56816e-06
5.42723e-08
5.57464e-06
6.01046e-08
5.58086e-06
6.28024e-08
5.58658e-06
6.29642e-08
5.59177e-06
6.12997e-08
5.59649e-06
5.85474e-08
5.60078e-06
5.52253e-08
5.60474e-06
5.16633e-08
5.60846e-06
4.79875e-08
5.61197e-06
4.42131e-08
5.61524e-06
4.03798e-08
5.61829e-06
3.65439e-08
5.6211e-06
3.27278e-08
5.62363e-06
2.89457e-08
5.62584e-06
2.52487e-08
2.17672e-08
5.62776e-06
5.95257e-06
1.31665e-08
5.95854e-06
3.51917e-08
5.96494e-06
4.78781e-08
5.97127e-06
5.37758e-08
5.97748e-06
5.66007e-08
5.98334e-06
5.7123e-08
5.98874e-06
5.59142e-08
5.9937e-06
5.36033e-08
5.99825e-06
5.068e-08
6.00247e-06
4.74459e-08
6.00642e-06
4.40412e-08
6.01011e-06
4.05231e-08
6.01355e-06
3.69443e-08
6.01673e-06
3.33625e-08
6.01965e-06
2.98125e-08
6.02228e-06
2.63211e-08
6.0246e-06
2.29334e-08
1.97432e-08
6.02663e-06
6.37911e-06
1.08807e-08
6.38441e-06
2.99028e-08
6.3905e-06
4.17786e-08
6.39668e-06
4.75787e-08
6.40284e-06
5.04355e-08
6.40877e-06
5.11846e-08
6.41436e-06
5.03385e-08
6.41955e-06
4.84197e-08
6.42437e-06
4.5867e-08
6.42885e-06
4.29605e-08
6.43304e-06
3.98525e-08
6.43695e-06
3.66176e-08
6.44057e-06
3.33206e-08
6.44391e-06
3.00179e-08
6.44697e-06
2.67554e-08
6.44974e-06
2.35647e-08
6.4522e-06
2.0485e-08
1.75851e-08
6.45436e-06
5.74249e-06
9.23466e-09
5.74651e-06
2.58993e-08
5.7514e-06
3.68846e-08
5.75651e-06
4.24705e-08
5.76165e-06
4.52944e-08
5.76669e-06
4.6157e-08
5.7715e-06
4.5538e-08
5.77603e-06
4.38986e-08
5.78027e-06
4.16292e-08
5.78423e-06
3.89934e-08
5.78795e-06
3.61422e-08
5.79141e-06
3.31553e-08
5.79461e-06
3.0108e-08
5.79757e-06
2.70582e-08
5.80028e-06
2.40494e-08
5.80273e-06
2.11202e-08
5.80492e-06
1.82996e-08
1.56536e-08
5.80685e-06
6.99979e-06
7.60565e-09
7.00395e-06
2.17533e-08
7.00925e-06
3.15886e-08
7.01493e-06
3.67868e-08
7.02074e-06
3.94876e-08
7.0265e-06
4.04026e-08
7.03208e-06
3.99775e-08
7.03738e-06
3.86057e-08
7.04239e-06
3.66288e-08
7.0471e-06
3.42874e-08
7.05152e-06
3.17204e-08
7.05565e-06
2.90258e-08
7.05948e-06
2.62726e-08
7.06301e-06
2.35184e-08
7.06625e-06
2.08118e-08
7.06919e-06
1.8184e-08
7.07182e-06
1.5666e-08
1.33095e-08
7.07417e-06
8.53244e-06
6.01225e-09
8.53669e-06
1.75196e-08
8.54234e-06
2.59361e-08
8.54858e-06
3.05459e-08
8.55507e-06
3.29989e-08
8.56159e-06
3.38894e-08
8.56796e-06
3.36075e-08
8.57409e-06
3.24836e-08
8.57993e-06
3.08012e-08
8.58544e-06
2.87691e-08
8.59064e-06
2.65277e-08
8.5955e-06
2.41621e-08
8.60002e-06
2.17469e-08
8.6042e-06
1.93371e-08
8.60803e-06
1.69748e-08
8.61152e-06
1.46924e-08
8.61467e-06
1.25142e-08
1.0487e-08
8.6175e-06
1.04008e-05
4.45699e-09
1.0405e-05
1.32559e-08
1.0411e-05
1.99867e-08
1.04178e-05
2.3767e-08
1.0425e-05
2.58225e-08
1.04323e-05
2.6583e-08
1.04395e-05
2.63801e-08
1.04465e-05
2.54704e-08
1.04532e-05
2.408e-08
1.04596e-05
2.23825e-08
1.04656e-05
2.04951e-08
1.04713e-05
1.85048e-08
1.04766e-05
1.64741e-08
1.04814e-05
1.44539e-08
1.04859e-05
1.24798e-08
1.049e-05
1.05846e-08
1.04938e-05
8.78224e-09
7.11987e-09
1.04971e-05
1.26783e-05
2.92991e-09
1.26826e-05
8.96139e-09
1.26888e-05
1.37612e-08
1.26961e-05
1.6465e-08
1.2704e-05
1.79359e-08
1.27122e-05
1.84465e-08
1.27203e-05
1.82363e-08
1.27283e-05
1.74976e-08
1.2736e-05
1.63885e-08
1.27433e-05
1.50384e-08
1.27503e-05
1.35426e-08
1.27568e-05
1.19687e-08
1.27629e-05
1.03696e-08
1.27686e-05
8.78428e-09
1.27738e-05
7.2458e-09
1.27786e-05
5.77546e-09
1.2783e-05
4.39079e-09
3.1219e-09
1.2787e-05
1.54547e-05
1.39094e-09
1.54591e-05
4.56066e-09
1.54657e-05
7.20127e-09
1.54736e-05
8.57229e-09
1.54823e-05
9.25891e-09
1.54913e-05
9.38097e-09
1.55005e-05
9.07254e-09
1.55095e-05
8.44957e-09
1.55183e-05
7.60372e-09
1.55268e-05
6.61342e-09
1.55348e-05
5.53724e-09
1.55423e-05
4.42068e-09
1.55494e-05
3.29873e-09
1.5556e-05
2.19766e-09
1.55621e-05
1.14032e-09
1.55677e-05
1.4115e-10
1.55729e-05
-7.88429e-10
-1.62384e-09
1.55777e-05
1.88393e-05
-2.37834e-10
1.8844e-05
-1.69587e-10
1.88512e-05
4.38035e-11
1.88599e-05
-1.81949e-10
1.88697e-05
-4.82446e-10
1.88799e-05
-8.84403e-10
1.88904e-05
-1.37371e-09
1.89008e-05
-1.92262e-09
1.89109e-05
-2.51185e-09
1.89206e-05
-3.12259e-09
1.89299e-05
-3.73995e-09
1.89387e-05
-4.34984e-09
1.89469e-05
-4.94047e-09
1.89547e-05
-5.50197e-09
1.89618e-05
-6.02545e-09
1.89685e-05
-6.50426e-09
1.89746e-05
-6.93462e-09
-7.29745e-09
1.89803e-05
2.29653e-05
-2.15079e-09
2.29708e-05
-5.74842e-09
2.29793e-05
-8.41117e-09
2.29897e-05
-1.05347e-08
2.30012e-05
-1.20056e-08
2.30133e-05
-1.30337e-08
2.30257e-05
-1.37365e-08
2.3038e-05
-1.41991e-08
2.305e-05
-1.4478e-08
2.30615e-05
-1.46372e-08
2.30725e-05
-1.47083e-08
2.30829e-05
-1.47235e-08
2.30926e-05
-1.46925e-08
2.31018e-05
-1.46314e-08
2.31103e-05
-1.45411e-08
2.31182e-05
-1.44298e-08
2.31256e-05
-1.42959e-08
-1.41318e-08
2.31324e-05
1.68123e-05
-3.77629e-09
1.68169e-05
-1.0348e-08
1.68237e-05
-1.52053e-08
1.68319e-05
-1.86703e-08
1.68408e-05
-2.09119e-08
1.68501e-05
-2.23095e-08
1.68594e-05
-2.30953e-08
1.68687e-05
-2.34077e-08
1.68776e-05
-2.33957e-08
1.68861e-05
-2.31591e-08
1.68942e-05
-2.27908e-08
1.69018e-05
-2.23311e-08
1.69089e-05
-2.1829e-08
1.69156e-05
-2.12948e-08
1.69218e-05
-2.07578e-08
1.69276e-05
-2.02119e-08
1.6933e-05
-1.96778e-08
-1.9132e-08
1.6938e-05
1.46363e-05
-5.53166e-09
1.46412e-05
-1.51805e-08
1.4648e-05
-2.2076e-08
1.4656e-05
-2.66152e-08
1.46645e-05
-2.94032e-08
1.46732e-05
-3.10229e-08
1.46819e-05
-3.1759e-08
1.46903e-05
-3.18384e-08
1.46984e-05
-3.14664e-08
1.47061e-05
-3.08172e-08
1.47133e-05
-2.99945e-08
1.472e-05
-2.90784e-08
1.47263e-05
-2.81175e-08
1.47322e-05
-2.71512e-08
1.47376e-05
-2.61982e-08
1.47427e-05
-2.52728e-08
1.47474e-05
-2.43759e-08
-2.35073e-08
1.47517e-05
1.27422e-05
-7.57046e-09
1.27476e-05
-2.05628e-08
1.27547e-05
-2.92577e-08
1.27627e-05
-3.4549e-08
1.2771e-05
-3.7676e-08
1.27793e-05
-3.93681e-08
1.27875e-05
-3.99306e-08
1.27953e-05
-3.96638e-08
1.28027e-05
-3.88728e-08
1.28097e-05
-3.77693e-08
1.28162e-05
-3.64856e-08
1.28222e-05
-3.51136e-08
1.28278e-05
-3.37121e-08
1.2833e-05
-3.23337e-08
1.28378e-05
-3.09956e-08
1.28423e-05
-2.9722e-08
1.28464e-05
-2.85055e-08
-2.73508e-08
1.28502e-05
1.10934e-05
-1.00844e-08
1.10996e-05
-2.67372e-08
1.11072e-05
-3.68507e-08
1.11152e-05
-4.25189e-08
1.11233e-05
-4.58022e-08
1.11314e-05
-4.74287e-08
1.11391e-05
-4.76906e-08
1.11465e-05
-4.69955e-08
1.11533e-05
-4.57274e-08
1.11597e-05
-4.41385e-08
1.11656e-05
-4.23772e-08
1.1171e-05
-4.05464e-08
1.1176e-05
-3.87208e-08
1.11807e-05
-3.69428e-08
1.11849e-05
-3.52515e-08
1.11889e-05
-3.3647e-08
1.11925e-05
-3.21433e-08
-3.07203e-08
1.11959e-05
9.65849e-06
-1.33637e-08
9.66563e-06
-3.38634e-08
9.67359e-06
-4.48129e-08
9.68158e-06
-5.05077e-08
9.6896e-06
-5.38222e-08
9.69741e-06
-5.52476e-08
9.7048e-06
-5.50824e-08
9.7117e-06
-5.38933e-08
9.71809e-06
-5.21172e-08
9.72398e-06
-5.00213e-08
9.72938e-06
-4.77714e-08
9.73432e-06
-4.54813e-08
9.73884e-06
-4.32328e-08
9.74298e-06
-4.1079e-08
9.74678e-06
-3.90454e-08
9.75028e-06
-3.71453e-08
9.75351e-06
-3.53746e-08
-3.37208e-08
9.75651e-06
8.40982e-06
-1.7828e-08
8.41796e-06
-4.20006e-08
8.42618e-06
-5.30363e-08
8.4342e-06
-5.85321e-08
8.44217e-06
-6.17936e-08
8.44982e-06
-6.2892e-08
8.45693e-06
-6.2196e-08
8.46349e-06
-6.04495e-08
8.4695e-06
-5.81298e-08
8.47499e-06
-5.55182e-08
8.48e-06
-5.27723e-08
8.48454e-06
-5.00235e-08
8.48867e-06
-4.73555e-08
8.49242e-06
-4.48285e-08
8.49585e-06
-4.24689e-08
8.49899e-06
-4.02836e-08
8.50189e-06
-3.82702e-08
-3.64041e-08
8.50457e-06
7.32345e-06
-2.39911e-08
7.33264e-06
-5.11908e-08
7.34123e-06
-6.16244e-08
7.34948e-06
-6.67856e-08
7.35756e-06
-6.98759e-08
7.3652e-06
-7.05343e-08
7.37227e-06
-6.92566e-08
7.37872e-06
-6.69029e-08
7.38459e-06
-6.4e-08
7.3899e-06
-6.08329e-08
7.3947e-06
-5.75735e-08
7.39903e-06
-5.43436e-08
7.40292e-06
-5.12456e-08
7.40642e-06
-4.83311e-08
7.40958e-06
-4.56292e-08
7.41245e-06
-4.31514e-08
7.41509e-06
-4.08996e-08
-3.88588e-08
7.41755e-06
6.37881e-06
-3.273e-08
6.38957e-06
-6.1947e-08
6.39927e-06
-7.13218e-08
6.40864e-06
-7.6151e-08
6.41766e-06
-7.89055e-08
6.42602e-06
-7.88977e-08
6.4337e-06
-7.69323e-08
6.44065e-06
-7.38558e-08
6.44689e-06
-7.02438e-08
6.45245e-06
-6.63886e-08
6.45734e-06
-6.24608e-08
6.46161e-06
-5.86221e-08
6.46534e-06
-5.49664e-08
6.46857e-06
-5.15625e-08
6.47135e-06
-4.84172e-08
6.47377e-06
-4.55638e-08
6.47588e-06
-4.30103e-08
-4.07236e-08
6.47775e-06
5.56056e-06
-4.78267e-08
5.57632e-06
-7.76888e-08
5.59073e-06
-8.57281e-08
5.60466e-06
-9.00907e-08
5.61759e-06
-9.18386e-08
5.62893e-06
-9.02357e-08
5.63864e-06
-8.66448e-08
5.64671e-06
-8.19307e-08
5.65321e-06
-7.67422e-08
5.65823e-06
-7.14107e-08
5.66189e-06
-6.61146e-08
5.66429e-06
-6.10274e-08
5.66559e-06
-5.62655e-08
5.66594e-06
-5.19185e-08
5.6655e-06
-4.79752e-08
5.66442e-06
-4.44894e-08
5.66289e-06
-4.14774e-08
-3.90998e-08
5.66127e-06
4.87208e-06
-9.2294e-08
4.90913e-06
-1.14729e-07
4.93652e-06
-1.13112e-07
4.95502e-06
-1.08601e-07
4.96449e-06
-1.01306e-07
4.96629e-06
-9.20439e-08
4.96209e-06
-8.24388e-08
4.95325e-06
-7.30983e-08
4.94097e-06
-6.44625e-08
4.92617e-06
-5.66105e-08
4.90958e-06
-4.95229e-08
4.89175e-06
-4.32009e-08
4.87315e-06
-3.76632e-08
4.8541e-06
-3.28763e-08
4.83505e-06
-2.89284e-08
4.81638e-06
-2.58203e-08
4.79827e-06
-2.3365e-08
-2.18593e-08
4.78104e-06
4.11038e-06
3.99565e-06
3.88254e-06
3.77394e-06
3.67263e-06
3.58059e-06
3.49815e-06
3.42505e-06
3.36059e-06
3.30398e-06
3.25446e-06
3.21125e-06
3.17359e-06
3.14071e-06
3.11178e-06
3.08597e-06
3.0626e-06
3.04074e-06
-7.65983e-09
7.62893e-09
-2.09826e-08
1.32517e-08
-3.56031e-08
1.45704e-08
-4.83884e-08
1.27172e-08
-5.45652e-08
6.13177e-09
-4.83923e-08
-6.24146e-09
-2.75607e-08
-2.08674e-08
5.82677e-09
-3.3451e-08
4.80488e-08
-4.22532e-08
9.46162e-08
-4.66106e-08
1.41246e-07
-4.6655e-08
1.84883e-07
-4.3667e-08
2.23531e-07
-3.86726e-08
2.55948e-07
-3.24395e-08
2.81411e-07
-2.54893e-08
2.99522e-07
-1.81304e-08
3.09997e-07
-1.05041e-08
3.12578e-07
-2.59836e-09
3.07036e-07
5.51086e-09
2.93515e-07
1.35048e-08
2.72498e-07
2.09807e-08
2.44901e-07
2.75863e-08
2.11921e-07
3.29389e-08
1.75291e-07
3.66209e-08
1.37032e-07
3.82124e-08
9.96055e-08
3.74083e-08
6.54028e-08
3.41422e-08
3.66011e-08
2.87645e-08
1.44209e-08
2.21101e-08
-9.37506e-10
1.52997e-08
-1.02842e-08
9.27555e-09
-1.43724e-08
4.02741e-09
-1.32638e-08
-1.16686e-09
-6.16309e-09
-7.15337e-09
8.179e-09
-1.43785e-08
3.07394e-08
-2.25925e-08
5.97942e-08
-2.90705e-08
9.06929e-08
-3.09173e-08
1.18036e-07
-2.73507e-08
1.37725e-07
-1.97046e-08
1.4796e-07
-1.02404e-08
1.49971e-07
-2.02603e-09
1.4713e-07
2.83732e-09
1.43259e-07
3.85578e-09
1.4172e-07
1.55225e-09
1.41524e-07
1.69392e-10
1.34489e-07
7.08017e-09
1.12842e-07
2.16133e-08
6.94201e-08
4.3492e-08
6.35139e-10
6.87783e-08
-9.02418e-08
9.0937e-08
-1.98803e-07
1.08567e-07
-3.22484e-07
1.23713e-07
-4.58257e-07
1.35786e-07
-5.99534e-07
1.41302e-07
-7.42587e-07
1.4307e-07
-8.8543e-07
1.42864e-07
-1.02376e-06
1.38354e-07
-1.15521e-06
1.31467e-07
-1.27847e-06
1.23278e-07
-1.39256e-06
1.14103e-07
-1.49788e-06
1.05332e-07
-1.59423e-06
9.63522e-08
-1.68181e-06
8.7599e-08
-1.76203e-06
8.02161e-08
-1.83583e-06
7.38235e-08
-1.90374e-06
6.79012e-08
-1.96638e-06
6.26522e-08
-2.02448e-06
5.80882e-08
-2.07852e-06
5.40548e-08
-2.12904e-06
5.05045e-08
-2.17637e-06
4.73462e-08
-2.22091e-06
4.45252e-08
-2.26288e-06
4.19803e-08
-2.30255e-06
3.96675e-08
-2.34009e-06
3.75463e-08
-2.37567e-06
3.55867e-08
-2.40943e-06
3.37607e-08
-2.44148e-06
3.20505e-08
-2.47191e-06
3.04384e-08
-2.50082e-06
2.89144e-08
-2.52828e-06
2.74644e-08
-2.55435e-06
2.60817e-08
-2.57909e-06
2.47579e-08
-2.60256e-06
2.34871e-08
-2.62479e-06
2.22642e-08
-2.64584e-06
2.10829e-08
-2.66573e-06
1.9939e-08
-2.68446e-06
1.88227e-08
-2.70207e-06
1.77376e-08
-2.71861e-06
1.66614e-08
-2.73408e-06
1.55996e-08
-2.7485e-06
1.45281e-08
-2.76182e-06
1.34435e-08
-2.77403e-06
1.2318e-08
-2.78506e-06
1.11563e-08
-2.79489e-06
9.92812e-09
-2.80342e-06
8.64321e-09
-2.81059e-06
7.26652e-09
-2.81628e-06
5.80361e-09
-2.82039e-06
4.21653e-09
-2.82281e-06
2.52125e-09
-2.82349e-06
7.69405e-10
-2.82254e-06
-8.9051e-10
-2.82012e-06
-2.37686e-09
-2.81632e-06
-3.78518e-09
-2.81114e-06
-5.1694e-09
-2.80457e-06
-6.57457e-09
-2.79659e-06
-7.9797e-09
-2.78719e-06
-9.41143e-09
-2.77634e-06
-1.08411e-08
-2.76406e-06
-1.22925e-08
-2.7503e-06
-1.3737e-08
-2.73511e-06
-1.51941e-08
-2.71844e-06
-1.66385e-08
-2.70033e-06
-1.80846e-08
-2.68078e-06
-1.95121e-08
-2.65981e-06
-2.09312e-08
-2.63743e-06
-2.23267e-08
-2.61368e-06
-2.37033e-08
-2.58859e-06
-2.50518e-08
-2.56217e-06
-2.63711e-08
-2.53446e-06
-2.76648e-08
-2.50547e-06
-2.89242e-08
-2.47525e-06
-3.01617e-08
-2.44382e-06
-3.13613e-08
-2.41123e-06
-3.25394e-08
-2.37749e-06
-3.36754e-08
-2.34266e-06
-3.47893e-08
-2.30675e-06
-3.58565e-08
-2.26982e-06
-3.69072e-08
-2.23187e-06
-3.79089e-08
-2.19296e-06
-3.88883e-08
-2.15312e-06
-3.98182e-08
-2.11242e-06
-4.0705e-08
-2.07089e-06
-4.15228e-08
-2.02862e-06
-4.22832e-08
-1.98568e-06
-4.2958e-08
-1.94198e-06
-4.37454e-08
-1.89745e-06
-4.4596e-08
-1.85217e-06
-4.53441e-08
-1.8062e-06
-4.60376e-08
-1.75957e-06
-4.66893e-08
-1.71233e-06
-4.73015e-08
-1.66451e-06
-4.78796e-08
-1.61614e-06
-4.84209e-08
-1.56726e-06
-4.89285e-08
-1.51791e-06
-4.93991e-08
-1.46812e-06
-4.98354e-08
-1.41793e-06
-5.02342e-08
-1.36738e-06
-5.05967e-08
-1.31649e-06
-5.09197e-08
-1.26532e-06
-5.12019e-08
-1.21391e-06
-5.14402e-08
-1.1623e-06
-5.16326e-08
-1.11055e-06
-5.17809e-08
-1.05868e-06
-5.1886e-08
-1.00674e-06
-5.19542e-08
-9.54764e-07
-5.19884e-08
-9.02779e-07
-5.1998e-08
-8.50798e-07
-5.19854e-08
-7.98842e-07
-5.19615e-08
-7.46912e-07
-5.19276e-08
-6.95016e-07
-5.1894e-08
-6.43149e-07
-5.18585e-08
-5.91311e-07
-5.18283e-08
-5.39499e-07
-5.17974e-08
-4.87707e-07
-5.17734e-08
-4.35935e-07
-5.17516e-08
-3.84169e-07
-5.17388e-08
-3.32416e-07
-5.17254e-08
-2.80677e-07
-5.17043e-08
-2.28993e-07
-5.16497e-08
-1.77423e-07
-5.15278e-08
-1.26148e-07
-5.12332e-08
-7.55501e-08
-5.05474e-08
-2.62136e-08
-4.92907e-08
2.01975e-08
-4.63647e-08
6.36427e-08
-4.3405e-08
-2.09378e-08
8.46014e-08
-3.50242e-09
1.1075e-08
-9.80318e-09
1.94179e-08
-1.31103e-08
1.77786e-08
-7.0072e-09
6.47036e-09
1.36147e-08
-1.45669e-08
4.82164e-08
-4.09213e-08
9.2943e-08
-6.56241e-08
1.42643e-07
-8.31902e-08
1.92369e-07
-9.19987e-08
2.38727e-07
-9.2996e-08
2.8019e-07
-8.81368e-08
3.15994e-07
-7.94929e-08
3.4599e-07
-6.86872e-08
3.70338e-07
-5.68053e-08
3.89336e-07
-4.45077e-08
4.03349e-07
-3.21603e-08
4.12761e-07
-1.99376e-08
4.1809e-07
-7.94435e-09
4.19719e-07
3.85812e-09
4.17635e-07
1.55754e-08
4.11407e-07
2.71827e-08
4.00495e-07
3.84845e-08
3.84321e-07
4.90872e-08
3.62524e-07
5.84049e-08
3.35021e-07
6.56862e-08
3.02307e-07
7.01041e-08
2.65485e-07
7.09305e-08
2.26443e-07
6.77803e-08
1.87736e-07
6.07738e-08
1.52478e-07
5.05188e-08
1.23882e-07
3.78177e-08
1.04566e-07
2.32899e-08
9.61289e-08
7.21606e-09
9.87464e-08
-9.81615e-09
1.11629e-07
-2.72937e-08
1.31459e-07
-4.24468e-08
1.52537e-07
-5.01616e-08
1.68927e-07
-4.73209e-08
1.77375e-07
-3.58047e-08
1.7708e-07
-1.9419e-08
1.68486e-07
-1.64849e-09
1.53506e-07
1.29453e-08
1.32232e-07
2.41202e-08
9.72786e-08
3.87968e-08
3.8541e-08
6.03126e-08
-5.149e-08
9.01958e-08
-1.70363e-07
1.25972e-07
-3.095e-07
1.60752e-07
-4.59143e-07
1.93148e-07
-6.13009e-07
2.2265e-07
-7.6858e-07
2.46518e-07
-9.23431e-07
2.63423e-07
-1.07341e-06
2.73702e-07
-1.21456e-06
2.76942e-07
-1.34583e-06
2.72584e-07
-1.46501e-06
2.62253e-07
-1.5706e-06
2.48462e-07
-1.66415e-06
2.31911e-07
-1.74673e-06
2.14057e-07
-1.81963e-06
1.96197e-07
-1.88454e-06
1.79021e-07
-1.94237e-06
1.63162e-07
-1.99465e-06
1.48645e-07
-2.04263e-06
1.35585e-07
-2.0867e-06
1.24285e-07
-2.12739e-06
1.14519e-07
-2.16544e-06
1.05951e-07
-2.20123e-06
9.84507e-08
-2.23503e-06
9.18857e-08
-2.26706e-06
8.60853e-08
-2.29748e-06
8.09237e-08
-2.32641e-06
7.62838e-08
-2.35396e-06
7.20752e-08
-2.3802e-06
6.82184e-08
-2.40519e-06
6.46541e-08
-2.42897e-06
6.13311e-08
-2.45159e-06
5.82114e-08
-2.47309e-06
5.52625e-08
-2.4935e-06
5.24631e-08
-2.51284e-06
4.97928e-08
-2.53116e-06
4.72378e-08
-2.54848e-06
4.47838e-08
-2.56481e-06
4.24214e-08
-2.58018e-06
4.014e-08
-2.59461e-06
3.79297e-08
-2.60811e-06
3.57839e-08
-2.62069e-06
3.36921e-08
-2.63236e-06
3.16444e-08
-2.6431e-06
2.96351e-08
-2.65292e-06
2.76456e-08
-2.66183e-06
2.56697e-08
-2.66984e-06
2.3697e-08
-2.67692e-06
2.17047e-08
-2.68308e-06
1.96854e-08
-2.68828e-06
1.7612e-08
-2.69253e-06
1.54848e-08
-2.69579e-06
1.32789e-08
-2.69807e-06
1.10015e-08
-2.69936e-06
8.63017e-09
-2.69967e-06
6.18681e-09
-2.69905e-06
3.67167e-09
-2.69758e-06
1.12934e-09
-2.69534e-06
-1.42692e-09
-2.69218e-06
-4.01006e-09
-2.68789e-06
-6.65313e-09
-2.68231e-06
-9.34957e-09
-2.6754e-06
-1.20831e-08
-2.66712e-06
-1.48566e-08
-2.65744e-06
-1.76601e-08
-2.64636e-06
-2.04971e-08
-2.63385e-06
-2.3353e-08
-2.61991e-06
-2.62303e-08
-2.60453e-06
-2.91116e-08
-2.58771e-06
-3.19986e-08
-2.56947e-06
-3.48728e-08
-2.54979e-06
-3.7735e-08
-2.52871e-06
-4.05677e-08
-2.50624e-06
-4.33729e-08
-2.48239e-06
-4.61352e-08
-2.45721e-06
-4.88538e-08
-2.43072e-06
-5.15162e-08
-2.40294e-06
-5.41222e-08
-2.37389e-06
-5.66688e-08
-2.34363e-06
-5.91549e-08
-2.31216e-06
-6.15832e-08
-2.27954e-06
-6.39474e-08
-2.24578e-06
-6.62517e-08
-2.21093e-06
-6.84879e-08
-2.17503e-06
-7.06631e-08
-2.13809e-06
-7.27685e-08
-2.10015e-06
-7.48142e-08
-2.06125e-06
-7.67875e-08
-2.02142e-06
-7.86981e-08
-1.9807e-06
-8.05349e-08
-1.9391e-06
-8.22989e-08
-1.89664e-06
-8.39852e-08
-1.85332e-06
-8.56085e-08
-1.80912e-06
-8.71731e-08
-1.76415e-06
-8.87476e-08
-1.71849e-06
-9.03011e-08
-1.67212e-06
-9.17604e-08
-1.62506e-06
-9.3136e-08
-1.57736e-06
-9.44308e-08
-1.52905e-06
-9.56536e-08
-1.48016e-06
-9.68022e-08
-1.43074e-06
-9.78817e-08
-1.38082e-06
-9.88863e-08
-1.33044e-06
-9.9821e-08
-1.27962e-06
-1.00679e-07
-1.22843e-06
-1.01466e-07
-1.17688e-06
-1.02175e-07
-1.12502e-06
-1.02809e-07
-1.0729e-06
-1.03357e-07
-1.02054e-06
-1.03821e-07
-9.6801e-07
-1.04193e-07
-9.15339e-07
-1.0448e-07
-8.62569e-07
-1.0468e-07
-8.09739e-07
-1.04808e-07
-7.56879e-07
-1.04869e-07
-7.04018e-07
-1.04879e-07
-6.51172e-07
-1.04847e-07
-5.98356e-07
-1.04789e-07
-5.45576e-07
-1.04716e-07
-4.92833e-07
-1.04639e-07
-4.40122e-07
-1.04569e-07
-3.87436e-07
-1.04503e-07
-3.3477e-07
-1.0445e-07
-2.82113e-07
-1.04406e-07
-2.29456e-07
-1.04382e-07
-1.76784e-07
-1.04369e-07
-1.24092e-07
-1.04375e-07
-7.13727e-08
-1.04365e-07
-1.86712e-08
-1.04294e-07
3.39361e-08
-1.0406e-07
8.6313e-08
-1.0354e-07
1.38276e-07
-1.02424e-07
1.89368e-07
-1.00304e-07
2.39285e-07
-9.61926e-08
2.84787e-07
-8.88274e-08
-6.50167e-08
3.28942e-07
2.99711e-10
1.07195e-08
3.43554e-09
1.61485e-08
1.64935e-08
4.62916e-09
4.70665e-08
-2.41817e-08
9.44395e-08
-6.19743e-08
1.50032e-07
-9.65503e-08
2.04454e-07
-1.20064e-07
2.52041e-07
-1.30802e-07
2.90909e-07
-1.30882e-07
3.21499e-07
-1.23606e-07
3.45252e-07
-1.11905e-07
3.63616e-07
-9.78735e-08
3.77734e-07
-8.28207e-08
3.88403e-07
-6.74886e-08
3.96151e-07
-5.22712e-08
4.01343e-07
-3.73651e-08
4.04248e-07
-2.28597e-08
4.05095e-07
-8.80378e-09
4.0415e-07
4.78521e-09
4.0177e-07
1.79431e-08
3.98209e-07
3.0725e-08
3.9355e-07
4.31323e-08
3.87557e-07
5.50595e-08
3.79717e-07
6.6233e-08
3.69222e-07
7.61594e-08
3.55212e-07
8.40986e-08
3.37018e-07
8.91001e-08
3.14638e-07
9.01414e-08
2.88995e-07
8.63896e-08
2.62088e-07
7.74015e-08
2.36609e-07
6.3267e-08
2.15262e-07
4.46083e-08
1.99906e-07
2.25419e-08
1.91449e-07
-1.38717e-09
1.87935e-07
-2.37995e-08
1.83352e-07
-3.78806e-08
1.71832e-07
-3.86505e-08
1.51499e-07
-2.69968e-08
1.22919e-07
-7.22761e-09
8.61202e-08
1.73743e-08
3.80759e-08
4.63979e-08
-2.78868e-08
7.89067e-08
-1.17887e-07
1.14125e-07
-2.32449e-07
1.53359e-07
-3.67608e-07
1.95475e-07
-5.15309e-07
2.37897e-07
-6.66698e-07
2.77365e-07
-8.16983e-07
3.11038e-07
-9.61301e-07
3.37469e-07
-1.09498e-06
3.56331e-07
-1.21563e-06
3.67167e-07
-1.32233e-06
3.70123e-07
-1.41444e-06
3.65825e-07
-1.49259e-06
3.55091e-07
-1.55908e-06
3.39081e-07
-1.6164e-06
3.19571e-07
-1.6663e-06
2.98367e-07
-1.71094e-06
2.76556e-07
-1.75197e-06
2.55094e-07
-1.79047e-06
2.347e-07
-1.82724e-06
2.15803e-07
-1.86267e-06
1.98595e-07
-1.89713e-06
1.83104e-07
-1.93081e-06
1.69272e-07
-1.96359e-06
1.57071e-07
-1.99541e-06
1.46335e-07
-2.02629e-06
1.36833e-07
-2.05622e-06
1.28386e-07
-2.08517e-06
1.20841e-07
-2.11313e-06
1.14046e-07
-2.14009e-06
1.07876e-07
-2.16602e-06
1.02221e-07
-2.19094e-06
9.69935e-08
-2.21484e-06
9.21189e-08
-2.23773e-06
8.75395e-08
-2.2596e-06
8.3208e-08
-2.28047e-06
7.90887e-08
-2.30036e-06
7.51529e-08
-2.31927e-06
7.13797e-08
-2.33723e-06
6.7752e-08
-2.35424e-06
6.42562e-08
-2.37033e-06
6.08806e-08
-2.38552e-06
5.76145e-08
-2.39982e-06
5.44478e-08
-2.41325e-06
5.13704e-08
-2.42582e-06
4.83719e-08
-2.43756e-06
4.544e-08
-2.44845e-06
4.25668e-08
-2.4585e-06
3.97333e-08
-2.46772e-06
3.69282e-08
-2.4761e-06
3.41339e-08
-2.48368e-06
3.13307e-08
-2.49041e-06
2.85133e-08
-2.49632e-06
2.56457e-08
-2.50136e-06
2.27259e-08
-2.50555e-06
1.97214e-08
-2.50884e-06
1.6638e-08
-2.51124e-06
1.34489e-08
-2.51272e-06
1.01667e-08
-2.51327e-06
6.77983e-09
-2.51285e-06
3.30677e-09
-2.51144e-06
-2.50522e-10
-2.50895e-06
-3.89384e-09
-2.50531e-06
-7.64224e-09
-2.50045e-06
-1.15102e-08
-2.49433e-06
-1.54728e-08
-2.48691e-06
-1.95196e-08
-2.47814e-06
-2.36299e-08
-2.46801e-06
-2.78018e-08
-2.45649e-06
-3.20165e-08
-2.44358e-06
-3.62709e-08
-2.42926e-06
-4.05455e-08
-2.41354e-06
-4.48343e-08
-2.39641e-06
-4.91185e-08
-2.37788e-06
-5.33896e-08
-2.35797e-06
-5.76304e-08
-2.33668e-06
-6.18325e-08
-2.31405e-06
-6.59825e-08
-2.29009e-06
-7.00714e-08
-2.26483e-06
-7.40875e-08
-2.2383e-06
-7.80223e-08
-2.21052e-06
-8.18708e-08
-2.18153e-06
-8.56289e-08
-2.15135e-06
-8.92982e-08
-2.12003e-06
-9.28753e-08
-2.08758e-06
-9.63608e-08
-2.05405e-06
-9.97508e-08
-2.01946e-06
-1.03046e-07
-1.98385e-06
-1.06246e-07
-1.94725e-06
-1.09352e-07
-1.90968e-06
-1.12362e-07
-1.87118e-06
-1.15278e-07
-1.83176e-06
-1.18098e-07
-1.79147e-06
-1.20824e-07
-1.75031e-06
-1.23451e-07
-1.70832e-06
-1.25983e-07
-1.6655e-06
-1.28434e-07
-1.62188e-06
-1.30811e-07
-1.57751e-06
-1.33137e-07
-1.53245e-06
-1.35393e-07
-1.4867e-06
-1.37543e-07
-1.44028e-06
-1.39581e-07
-1.39322e-06
-1.41509e-07
-1.34557e-06
-1.43328e-07
-1.29735e-06
-1.4504e-07
-1.2486e-06
-1.46643e-07
-1.19937e-06
-1.48136e-07
-1.14968e-06
-1.49518e-07
-1.09959e-06
-1.50789e-07
-1.04911e-06
-1.51946e-07
-9.98308e-07
-1.52989e-07
-9.47206e-07
-1.53915e-07
-8.9585e-07
-1.54718e-07
-8.44279e-07
-1.55394e-07
-7.92538e-07
-1.55937e-07
-7.40666e-07
-1.56351e-07
-6.88703e-07
-1.56643e-07
-6.36684e-07
-1.56826e-07
-5.84638e-07
-1.56913e-07
-5.3259e-07
-1.56924e-07
-4.80558e-07
-1.56876e-07
-4.28554e-07
-1.56791e-07
-3.76581e-07
-1.56686e-07
-3.2464e-07
-1.56579e-07
-2.72722e-07
-1.56486e-07
-2.20818e-07
-1.56408e-07
-1.68917e-07
-1.56353e-07
-1.17006e-07
-1.56322e-07
-6.50679e-08
-1.56324e-07
-1.30906e-08
-1.56355e-07
3.89352e-08
-1.5641e-07
9.10189e-08
-1.56461e-07
1.43166e-07
-1.56456e-07
1.95358e-07
-1.56269e-07
2.47515e-07
-1.55714e-07
2.99495e-07
-1.54424e-07
3.51036e-07
-1.51865e-07
4.01848e-07
-1.47024e-07
4.5104e-07
-1.3804e-07
-1.15789e-07
5.01786e-07
-2.00072e-10
1.0862e-08
1.14772e-08
4.35547e-09
4.7666e-08
-3.16178e-08
1.05615e-07
-8.21753e-08
1.697e-07
-1.26081e-07
2.26049e-07
-1.52925e-07
2.68638e-07
-1.62667e-07
2.97794e-07
-1.59978e-07
3.1675e-07
-1.49853e-07
3.28983e-07
-1.35857e-07
3.37122e-07
-1.20057e-07
3.4276e-07
-1.03527e-07
3.46735e-07
-8.68081e-08
3.49414e-07
-7.01806e-08
3.50933e-07
-5.38027e-08
3.51332e-07
-3.77757e-08
3.50632e-07
-2.2173e-08
3.48872e-07
-7.0544e-09
3.46114e-07
7.5275e-09
3.42498e-07
2.15499e-08
3.38213e-07
3.49931e-08
3.33502e-07
4.78327e-08
3.2853e-07
6.00144e-08
3.23348e-07
7.14031e-08
3.17746e-07
8.17414e-08
3.1127e-07
9.05602e-08
3.03217e-07
9.71312e-08
2.92873e-07
1.00468e-07
2.7979e-07
9.94501e-08
2.64083e-07
9.30877e-08
2.46552e-07
8.07733e-08
2.28523e-07
6.26129e-08
2.11134e-07
3.99064e-08
1.93228e-07
1.64969e-08
1.69118e-07
2.91925e-10
1.33816e-07
-2.59034e-09
8.6901e-08
8.25508e-09
2.87223e-08
3.11747e-08
-4.28454e-08
6.43358e-08
-1.30601e-07
1.05127e-07
-2.35157e-07
1.50953e-07
-3.55268e-07
1.99016e-07
-4.88083e-07
2.46941e-07
-6.2772e-07
2.92995e-07
-7.67727e-07
3.35483e-07
-9.02014e-07
3.72182e-07
-1.02542e-06
4.00773e-07
-1.13506e-06
4.20673e-07
-1.22976e-06
4.32176e-07
-1.30915e-06
4.3572e-07
-1.37418e-06
4.322e-07
-1.42671e-06
4.22648e-07
-1.46907e-06
4.08185e-07
-1.50396e-06
3.89991e-07
-1.53414e-06
3.69264e-07
-1.56179e-06
3.4722e-07
-1.58831e-06
3.24892e-07
-1.61472e-06
3.02972e-07
-1.64159e-06
2.81964e-07
-1.66911e-06
2.62225e-07
-1.69727e-06
2.43963e-07
-1.72592e-06
2.27248e-07
-1.75488e-06
2.12068e-07
-1.78396e-06
1.98351e-07
-1.8129e-06
1.86016e-07
-1.84149e-06
1.74935e-07
-1.8696e-06
1.64944e-07
-1.89711e-06
1.55893e-07
-1.92391e-06
1.47646e-07
-1.94994e-06
1.40078e-07
-1.97514e-06
1.33078e-07
-1.99948e-06
1.26553e-07
-2.02291e-06
1.20425e-07
-2.04542e-06
1.1463e-07
-2.06699e-06
1.09117e-07
-2.08763e-06
1.03847e-07
-2.10732e-06
9.87872e-08
-2.12608e-06
9.39161e-08
-2.14392e-06
8.92162e-08
-2.16083e-06
8.46744e-08
-2.17685e-06
8.02799e-08
-2.19199e-06
7.60231e-08
-2.20626e-06
7.18945e-08
-2.21969e-06
6.78848e-08
-2.2323e-06
6.39825e-08
-2.24409e-06
6.01771e-08
-2.25509e-06
5.6455e-08
-2.26531e-06
5.28008e-08
-2.27473e-06
4.92012e-08
-2.28338e-06
4.56232e-08
-2.29126e-06
4.20635e-08
-2.29836e-06
3.84898e-08
-2.30469e-06
3.48903e-08
-2.31022e-06
3.12313e-08
-2.31496e-06
2.75012e-08
-2.31886e-06
2.3668e-08
-2.32191e-06
1.97298e-08
-2.32408e-06
1.56591e-08
-2.32534e-06
1.14639e-08
-2.32565e-06
7.12601e-09
-2.32498e-06
2.65478e-09
-2.32325e-06
-1.95929e-09
-2.32043e-06
-6.72118e-09
-2.31644e-06
-1.1638e-08
-2.31125e-06
-1.67099e-08
-2.30482e-06
-2.19118e-08
-2.29712e-06
-2.72332e-08
-2.28811e-06
-3.26467e-08
-2.27777e-06
-3.81475e-08
-2.26609e-06
-4.37071e-08
-2.25304e-06
-4.93211e-08
-2.23862e-06
-5.49597e-08
-2.22284e-06
-6.06169e-08
-2.20569e-06
-6.62631e-08
-2.18718e-06
-7.18911e-08
-2.16732e-06
-7.74733e-08
-2.14613e-06
-8.30032e-08
-2.12364e-06
-8.84583e-08
-2.09986e-06