/*--------------------------------*- C++ -*----------------------------------*\
  =========                 |
  \\      /  F ield         | OpenFOAM: The Open Source CFD Toolbox
   \\    /   O peration     | Website:  https://openfoam.org
    \\  /    A nd           | Version:  13
     \\/     M anipulation  |
\*---------------------------------------------------------------------------*/
FoamFile
{
    format      ascii;
    class       volVectorField;
    location    "1600";
    object      U;
}
// * * * * * * * * * * * * * * * * * * * * * * * * * * * * * * * * * * * * * //

dimensions      [0 1 -1 0 0 0 0];

internalField   nonuniform List<vector> 
12225
(
(9.79262 0.0554029 0)
(9.36086 0.10236 0)
(8.94347 0.102809 0)
(8.551 0.0978084 0)
(8.20539 0.0874622 0)
(7.92032 0.0662275 0)
(7.68523 0.0613798 0)
(7.48362 0.0570098 0)
(7.31687 0.0346931 0)
(7.17774 0.0323337 0)
(7.05401 0.0351982 0)
(6.94846 0.029069 0)
(6.8569 0.0191331 0)
(6.77829 0.0171531 0)
(6.70631 0.0213319 0)
(6.6446 0.0116851 0)
(6.60169 -0.00579658 0)
(6.58628 0.00115166 0)
(10.0669 0.0527272 0)
(10.2083 0.0815958 0)
(10.2871 0.0821796 0)
(10.3034 0.0791188 0)
(10.2854 0.0756636 0)
(10.2306 0.0734905 0)
(10.1667 0.0681495 0)
(10.0717 0.0626456 0)
(9.98305 0.0604293 0)
(9.89699 0.05627 0)
(9.80188 0.0517122 0)
(9.70958 0.0487088 0)
(9.62213 0.0466389 0)
(9.54495 0.0433705 0)
(9.46957 0.039054 0)
(9.39819 0.0355846 0)
(9.33333 0.0301563 0)
(9.2746 0.0223852 0)
(10.0204 0.0428663 0)
(10.0781 0.068058 0)
(10.1244 0.0714554 0)
(10.1603 0.0766323 0)
(10.1897 0.0805679 0)
(10.2123 0.0800102 0)
(10.2283 0.0786363 0)
(10.2383 0.07665 0)
(10.2422 0.0727283 0)
(10.2417 0.0710468 0)
(10.2384 0.0701085 0)
(10.2321 0.0677655 0)
(10.2224 0.0642887 0)
(10.2106 0.0614905 0)
(10.1987 0.0592915 0)
(10.186 0.0548313 0)
(10.1704 0.0482758 0)
(10.1519 0.0427925 0)
(10.0091 0.0319031 0)
(10.0445 0.0572221 0)
(10.0744 0.0645605 0)
(10.0965 0.0698657 0)
(10.1162 0.0731086 0)
(10.1343 0.0729467 0)
(10.1498 0.0718513 0)
(10.1637 0.069961 0)
(10.1755 0.0665756 0)
(10.1855 0.0647814 0)
(10.1957 0.0635062 0)
(10.2059 0.0612588 0)
(10.215 0.0583522 0)
(10.2232 0.0558284 0)
(10.2314 0.0533886 0)
(10.2393 0.0492166 0)
(10.2454 0.0436642 0)
(10.25 0.0390733 0)
(10.0052 0.0248297 0)
(10.0313 0.0507171 0)
(10.0555 0.0596419 0)
(10.0735 0.0646006 0)
(10.0892 0.0676442 0)
(10.1038 0.068095 0)
(10.1169 0.0675005 0)
(10.1282 0.0660351 0)
(10.138 0.0636294 0)
(10.1464 0.0620545 0)
(10.1547 0.0607948 0)
(10.163 0.0588646 0)
(10.1708 0.0563305 0)
(10.1781 0.0537808 0)
(10.1853 0.0510061 0)
(10.1922 0.0470729 0)
(10.1981 0.0422646 0)
(10.2034 0.0378421 0)
(10.0035 0.0201072 0)
(10.0234 0.0445244 0)
(10.044 0.05426 0)
(10.0604 0.0595151 0)
(10.0744 0.0628516 0)
(10.0875 0.0639229 0)
(10.0994 0.0636797 0)
(10.1097 0.0624979 0)
(10.1183 0.0605411 0)
(10.1261 0.0588802 0)
(10.1337 0.0573681 0)
(10.1411 0.0553769 0)
(10.1481 0.0528761 0)
(10.1546 0.050207 0)
(10.1609 0.0472524 0)
(10.1668 0.0435722 0)
(10.1719 0.0393078 0)
(10.1763 0.035186 0)
(10.0024 0.0164361 0)
(10.0179 0.0388017 0)
(10.0356 0.0489596 0)
(10.0507 0.0545591 0)
(10.0637 0.0581888 0)
(10.0757 0.059652 0)
(10.0868 0.059713 0)
(10.0966 0.0588463 0)
(10.1049 0.057273 0)
(10.1124 0.0557324 0)
(10.1196 0.0541531 0)
(10.1267 0.052195 0)
(10.1333 0.04985 0)
(10.1394 0.0472791 0)
(10.1453 0.044399 0)
(10.1507 0.0409981 0)
(10.1554 0.0371776 0)
(10.1596 0.0333863 0)
(10.0017 0.01348 0)
(10.0138 0.0336334 0)
(10.029 0.0440343 0)
(10.0429 0.0498186 0)
(10.0551 0.0535968 0)
(10.0663 0.0553315 0)
(10.0767 0.0556609 0)
(10.086 0.0550615 0)
(10.0942 0.0538598 0)
(10.1016 0.0524134 0)
(10.1086 0.0507962 0)
(10.1153 0.0488676 0)
(10.1216 0.046592 0)
(10.1275 0.0440512 0)
(10.133 0.041225 0)
(10.1381 0.0380267 0)
(10.1425 0.0345241 0)
(10.1465 0.0310007 0)
(10.0012 0.0110899 0)
(10.0107 0.0290445 0)
(10.0237 0.0393578 0)
(10.0363 0.0451478 0)
(10.0478 0.048968 0)
(10.0584 0.0509576 0)
(10.0683 0.0515257 0)
(10.0772 0.0511561 0)
(10.0853 0.0501911 0)
(10.0927 0.0488893 0)
(10.0996 0.0473181 0)
(10.1061 0.0454378 0)
(10.1122 0.043256 0)
(10.1179 0.0408173 0)
(10.1232 0.0381133 0)
(10.128 0.0351277 0)
(10.1323 0.0319194 0)
(10.1362 0.0286751 0)
(10.0009 0.00915294 0)
(10.0084 0.0249309 0)
(10.0195 0.0348419 0)
(10.0308 0.0405184 0)
(10.0415 0.0442804 0)
(10.0515 0.0464257 0)
(10.061 0.0472339 0)
(10.0698 0.0470968 0)
(10.0777 0.0463342 0)
(10.0851 0.0451686 0)
(10.0919 0.0436866 0)
(10.0984 0.0418959 0)
(10.1044 0.0398188 0)
(10.1099 0.0374931 0)
(10.115 0.0349343 0)
(10.1197 0.0321534 0)
(10.1239 0.0291984 0)
(10.1277 0.0262051 0)
(10.0007 0.00757115 0)
(10.0066 0.0212663 0)
(10.016 0.0305551 0)
(10.0262 0.0360267 0)
(10.036 0.0396596 0)
(10.0455 0.0418311 0)
(10.0545 0.0427816 0)
(10.063 0.0428193 0)
(10.0709 0.0422273 0)
(10.0782 0.0411985 0)
(10.0849 0.0398265 0)
(10.0913 0.0381469 0)
(10.0972 0.0361926 0)
(10.1027 0.0340035 0)
(10.1077 0.0316103 0)
(10.1123 0.0290353 0)
(10.1163 0.0263247 0)
(10.1201 0.023577 0)
(10.0005 0.00634405 0)
(10.0054 0.0182806 0)
(10.0135 0.0268558 0)
(10.0227 0.0320585 0)
(10.0318 0.0355182 0)
(10.0406 0.0376335 0)
(10.0492 0.0386274 0)
(10.0574 0.0387568 0)
(10.0651 0.0382697 0)
(10.0722 0.0373402 0)
(10.0789 0.036067 0)
(10.0851 0.0344918 0)
(10.0909 0.0326603 0)
(10.0963 0.0306129 0)
(10.1012 0.0283843 0)
(10.1057 0.026007 0)
(10.1098 0.0235169 0)
(10.1135 0.0209981 0)
(10.0004 0.00528462 0)
(10.0044 0.0155525 0)
(10.0114 0.0233247 0)
(10.0197 0.0281686 0)
(10.0281 0.031417 0)
(10.0364 0.0334312 0)
(10.0445 0.034423 0)
(10.0523 0.034611 0)
(10.0597 0.0342087 0)
(10.0666 0.0333757 0)
(10.0731 0.032201 0)
(10.0792 0.0307366 0)
(10.0849 0.0290319 0)
(10.0902 0.0271289 0)
(10.095 0.0250655 0)
(10.0995 0.0228763 0)
(10.1034 0.0205935 0)
(10.1071 0.0182949 0)
(10.0003 0.00427334 0)
(10.0036 0.0127914 0)
(10.0095 0.0195526 0)
(10.0168 0.0238862 0)
(10.0245 0.0268208 0)
(10.0322 0.0286559 0)
(10.0397 0.0295833 0)
(10.0471 0.0297869 0)
(10.0541 0.0294439 0)
(10.0608 0.0286919 0)
(10.0671 0.0276139 0)
(10.073 0.0262698 0)
(10.0785 0.0247071 0)
(10.0836 0.0229686 0)
(10.0883 0.0210956 0)
(10.0926 0.0191177 0)
(10.0965 0.0170706 0)
(10.1 0.0150173 0)
(10.0003 0.00329321 0)
(10.0029 0.0100087 0)
(10.0079 0.0155677 0)
(10.0143 0.019216 0)
(10.0212 0.0217143 0)
(10.0282 0.0232773 0)
(10.0352 0.0240707 0)
(10.0421 0.0242398 0)
(10.0487 0.0239251 0)
(10.055 0.0232373 0)
(10.061 0.022258 0)
(10.0666 0.0210408 0)
(10.0719 0.0196346 0)
(10.0768 0.0180823 0)
(10.0813 0.0164171 0)
(10.0854 0.0146754 0)
(10.0892 0.0128789 0)
(10.0927 0.0110929 0)
(10.0002 0.00233022 0)
(10.0024 0.00720607 0)
(10.0065 0.0113982 0)
(10.0121 0.0141782 0)
(10.0182 0.0160959 0)
(10.0246 0.0172769 0)
(10.0311 0.0178491 0)
(10.0374 0.0179208 0)
(10.0436 0.0175933 0)
(10.0496 0.0169539 0)
(10.0552 0.0160673 0)
(10.0606 0.0149855 0)
(10.0656 0.0137504 0)
(10.0702 0.0123984 0)
(10.0745 0.0109608 0)
(10.0785 0.00946767 0)
(10.0821 0.0079398 0)
(10.0855 0.00643027 0)
(10.0002 0.00136743 0)
(10.002 0.00436578 0)
(10.0055 0.00703796 0)
(10.0103 0.00876829 0)
(10.0158 0.00994184 0)
(10.0216 0.010616 0)
(10.0276 0.0108656 0)
(10.0335 0.0107647 0)
(10.0393 0.0103757 0)
(10.0449 0.00975734 0)
(10.0502 0.00895666 0)
(10.0553 0.00801228 0)
(10.06 0.0069569 0)
(10.0644 0.00581695 0)
(10.0685 0.00462064 0)
(10.0723 0.00338732 0)
(10.0758 0.00213786 0)
(10.0791 0.000910536 0)
(10.0002 0.000366553 0)
(10.0017 0.00139449 0)
(10.0049 0.00239117 0)
(10.0092 0.00287873 0)
(10.0142 0.00313581 0)
(10.0196 0.00315925 0)
(10.0252 0.00297509 0)
(10.0307 0.00261516 0)
(10.0362 0.00210647 0)
(10.0415 0.00147527 0)
(10.0465 0.000744152 0)
(10.0513 -6.6862e-05 0)
(10.0559 -0.000939712 0)
(10.0601 -0.00185806 0)
(10.064 -0.00280559 0)
(10.0677 -0.00376858 0)
(10.0711 -0.00473559 0)
(10.0743 -0.00567454 0)
(10.0002 -0.000756926 0)
(10.0017 -0.00192426 0)
(10.0047 -0.00282385 0)
(10.0089 -0.00377517 0)
(10.0138 -0.0046 0)
(10.019 -0.00535636 0)
(10.0244 -0.00607247 0)
(10.0298 -0.00676189 0)
(10.0351 -0.00743547 0)
(10.0402 -0.00810569 0)
(10.0451 -0.00877751 0)
(10.0498 -0.00945674 0)
(10.0542 -0.0101415 0)
(10.0583 -0.0108325 0)
(10.0622 -0.0115237 0)
(10.0657 -0.012213 0)
(10.0691 -0.0128947 0)
(10.0722 -0.0135487 0)
(10.0002 -0.00187755 0)
(10.0019 -0.00520893 0)
(10.0053 -0.00794365 0)
(10.0099 -0.0102583 0)
(10.0151 -0.0120825 0)
(10.0206 -0.013547 0)
(10.0261 -0.0147326 0)
(10.0317 -0.015696 0)
(10.0371 -0.0164915 0)
(10.0423 -0.0171662 0)
(10.0473 -0.0177593 0)
(10.0519 -0.0182945 0)
(10.0563 -0.0187935 0)
(10.0604 -0.0192655 0)
(10.0643 -0.0197235 0)
(10.0678 -0.0201665 0)
(10.0712 -0.0206032 0)
(10.0742 -0.021013 0)
(10.0002 -0.00294725 0)
(10.0023 -0.00827325 0)
(10.0064 -0.012577 0)
(10.0116 -0.0159657 0)
(10.0174 -0.0185343 0)
(10.0234 -0.0205018 0)
(10.0293 -0.0219927 0)
(10.0352 -0.0230978 0)
(10.0409 -0.0239146 0)
(10.0462 -0.0245286 0)
(10.0513 -0.0250042 0)
(10.0561 -0.025383 0)
(10.0606 -0.0257001 0)
(10.0647 -0.0259752 0)
(10.0686 -0.0262304 0)
(10.0722 -0.0264707 0)
(10.0755 -0.0267084 0)
(10.0786 -0.0269292 0)
(10.0003 -0.00414415 0)
(10.0031 -0.0115785 0)
(10.0081 -0.0173343 0)
(10.0143 -0.0215999 0)
(10.0209 -0.0247441 0)
(10.0274 -0.0270858 0)
(10.0339 -0.0287688 0)
(10.0402 -0.029921 0)
(10.0462 -0.0306852 0)
(10.0519 -0.0311817 0)
(10.0572 -0.0314959 0)
(10.0621 -0.0316917 0)
(10.0667 -0.0318109 0)
(10.0709 -0.0318899 0)
(10.0748 -0.0319462 0)
(10.0784 -0.032001 0)
(10.0818 -0.0320556 0)
(10.0849 -0.0321161 0)
(10.0005 -0.00557285 0)
(10.0042 -0.0153086 0)
(10.0106 -0.0223452 0)
(10.0181 -0.0272697 0)
(10.0255 -0.030838 0)
(10.0328 -0.0334278 0)
(10.0399 -0.0351808 0)
(10.0468 -0.0362804 0)
(10.0532 -0.0369267 0)
(10.0592 -0.0372636 0)
(10.0647 -0.0373856 0)
(10.0698 -0.0373691 0)
(10.0745 -0.0372732 0)
(10.0789 -0.0371424 0)
(10.0829 -0.0370045 0)
(10.0866 -0.0368737 0)
(10.09 -0.0367591 0)
(10.0931 -0.0366574 0)
(10.0007 -0.00737415 0)
(10.006 -0.0196014 0)
(10.0143 -0.027634 0)
(10.0231 -0.0329606 0)
(10.0315 -0.0368466 0)
(10.0396 -0.0395949 0)
(10.0475 -0.0413125 0)
(10.055 -0.0422615 0)
(10.0619 -0.0427139 0)
(10.0682 -0.0428447 0)
(10.0741 -0.0427528 0)
(10.0794 -0.0425145 0)
(10.0843 -0.0421976 0)
(10.0888 -0.0418555 0)
(10.0929 -0.0415281 0)
(10.0967 -0.0412294 0)
(10.1002 -0.0409695 0)
(10.1034 -0.0407349 0)
(10.0011 -0.00972142 0)
(10.0088 -0.0245271 0)
(10.0194 -0.0332211 0)
(10.0298 -0.0386988 0)
(10.0392 -0.0427704 0)
(10.0483 -0.0455809 0)
(10.0571 -0.0472037 0)
(10.0654 -0.0479674 0)
(10.0728 -0.0481739 0)
(10.0797 -0.0480342 0)
(10.0859 -0.0476732 0)
(10.0916 -0.0471795 0)
(10.0967 -0.0466189 0)
(10.1014 -0.0460491 0)
(10.1057 -0.0455081 0)
(10.1096 -0.0450221 0)
(10.1132 -0.044598 0)
(10.1165 -0.0442257 0)
(10.0018 -0.0128993 0)
(10.0131 -0.0299367 0)
(10.0266 -0.0390985 0)
(10.0389 -0.0447146 0)
(10.0497 -0.0488203 0)
(10.0602 -0.0514498 0)
(10.0703 -0.0528049 0)
(10.0797 -0.0533439 0)
(10.0881 -0.0533262 0)
(10.0957 -0.0529383 0)
(10.1026 -0.0523142 0)
(10.1089 -0.0515735 0)
(10.1145 -0.0508043 0)
(10.1195 -0.0500605 0)
(10.124 -0.0493702 0)
(10.1282 -0.0487526 0)
(10.1319 -0.048224 0)
(10.1354 -0.0477713 0)
(10.0032 -0.0177789 0)
(10.0205 -0.0359548 0)
(10.0384 -0.0446907 0)
(10.0539 -0.0505498 0)
(10.0678 -0.0549872 0)
(10.0812 -0.0574817 0)
(10.094 -0.0584173 0)
(10.1055 -0.0585001 0)
(10.1159 -0.0580809 0)
(10.1251 -0.0572974 0)
(10.1333 -0.0562533 0)
(10.1405 -0.0550813 0)
(10.1468 -0.0538986 0)
(10.1522 -0.0528003 0)
(10.1569 -0.0518238 0)
(10.161 -0.0509799 0)
(10.1645 -0.0502824 0)
(10.1676 -0.0497154 0)
(10.0081 -0.0272893 0)
(10.0392 -0.0459779 0)
(10.0698 -0.0519152 0)
(10.0952 -0.0572259 0)
(10.1186 -0.0621631 0)
(10.1405 -0.0651403 0)
(10.1598 -0.0663752 0)
(10.1759 -0.0664519 0)
(10.189 -0.0658941 0)
(10.1993 -0.0648898 0)
(10.2072 -0.0635485 0)
(10.2126 -0.0619857 0)
(10.2159 -0.0603219 0)
(10.2173 -0.0586736 0)
(10.2172 -0.0571583 0)
(10.2158 -0.0558629 0)
(10.2134 -0.0547906 0)
(10.2102 -0.0540616 0)
(10.0341 -0.0353834 0)
(10.1324 -0.0605211 0)
(10.2043 -0.0661436 0)
(10.2507 -0.0682182 0)
(10.2775 -0.0695286 0)
(10.2884 -0.069326 0)
(10.2857 -0.0681335 0)
(10.2718 -0.0661117 0)
(10.2494 -0.0636246 0)
(10.2209 -0.0609527 0)
(10.1881 -0.0581876 0)
(10.1522 -0.0554531 0)
(10.1143 -0.0528187 0)
(10.0752 -0.0503506 0)
(10.0354 -0.048013 0)
(9.99631 -0.0459602 0)
(9.95803 -0.0443232 0)
(9.92139 -0.0434848 0)
(9.89288 -0.0398019 0)
(9.64204 -0.0740831 0)
(9.37962 -0.0858286 0)
(9.11017 -0.0881198 0)
(8.85586 -0.0850281 0)
(8.62518 -0.0790389 0)
(8.41794 -0.0720145 0)
(8.23328 -0.0644491 0)
(8.06977 -0.0569287 0)
(7.92586 -0.0498171 0)
(7.79986 -0.0432785 0)
(7.6898 -0.0373752 0)
(7.59398 -0.0321404 0)
(7.51035 -0.0274608 0)
(7.4375 -0.0234253 0)
(7.37265 -0.020149 0)
(7.31423 -0.0175514 0)
(7.26186 -0.0159033 0)
(-0.00251098 0.0069932 -1.02587e-18)
(-0.012067 0.0117707 1.1393e-18)
(-0.0250462 0.0128919 0)
(-0.0389806 0.0111532 0)
(-0.049407 0.00591425 0)
(-0.0492849 -0.00289007 -7.98668e-19)
(-0.0349438 -0.0148825 0)
(-0.00949491 -0.0276502 0)
(0.0241278 -0.0375491 0)
(0.0630487 -0.0426682 0)
(0.104538 -0.0434799 4.38222e-19)
(0.145257 -0.0410547 0)
(0.182508 -0.0363784 0)
(0.214646 -0.0302272 0)
(0.2408 -0.023164 0)
(0.260535 -0.0155528 2.45359e-19)
(0.273523 -0.00760288 0)
(0.279912 0.00072425 0)
(0.278801 0.00936315 0)
(0.270222 0.0178604 0)
(0.254731 0.0254944 0)
(0.232933 0.0314998 0)
(0.205652 0.0351937 0)
(0.174142 0.0360212 3.3446e-19)
(0.140099 0.0336223 -3.88933e-19)
(0.105577 0.0280232 4.68057e-19)
(0.0728454 0.0198419 5.83407e-19)
(0.044092 0.0105006 0)
(0.0210283 0.00215888 0)
(0.0044335 -0.00322519 -1.31825e-18)
(-0.00624864 -0.00556761 -1.45736e-18)
(-0.0124448 -0.00665985 0)
(-0.0140993 -0.0078769 0)
(-0.00998994 -0.0102535 -1.41603e-18)
(-7.90884e-05 -0.0140853 0)
(0.0170921 -0.0191364 0)
(0.0405615 -0.0236215 7.66711e-19)
(0.0679596 -0.025679 0)
(0.09481 -0.0238278 4.98025e-19)
(0.116825 -0.0184242 8.92683e-19)
(0.130899 -0.011084 0)
(0.13664 -0.00408064 0)
(0.135597 0.000509415 0)
(0.13168 0.0017317 0)
(0.128877 -0.00117202 0)
(0.128457 -0.0084781 8.96461e-19)
(0.126297 -0.0189553 8.95934e-19)
(0.115484 -0.0263574 9.18405e-19)
(0.0893696 -0.0204226 0)
(0.0425934 -0.000217208 -1.1864e-18)
(-0.0351697 0.0221171 0)
(-0.130304 0.0437862 5.08856e-19)
(-0.235736 0.0677071 3.5223e-19)
(-0.353266 0.088457 0)
(-0.481243 0.0956159 0)
(-0.614825 0.100762 0)
(-0.744878 0.107619 1.68656e-19)
(-0.874412 0.106863 0)
(-0.999155 0.103328 0)
(-1.11631 0.0982291 0)
(-1.22584 0.0910621 0)
(-1.327 0.0846842 0)
(-1.42026 0.0764906 0)
(-1.50561 0.0676453 0)
(-1.58346 0.0614534 0)
(-1.65511 0.0566456 -9.51779e-20)
(-1.72138 0.051642 0)
(-1.7826 0.0471386 0)
(-1.8394 0.0433315 8.80792e-20)
(-1.89236 0.0399415 8.62292e-20)
(-1.94194 0.0369941 0)
(-1.98852 0.0343786 -8.30217e-20)
(-2.03244 0.0320698 8.1601e-20)
(-2.07398 0.0300028 0)
(-2.11335 0.0281484 -7.90168e-20)
(-2.15074 0.0264682 0)
(-2.18632 0.0249402 0)
(-2.22023 0.0235382 7.55667e-20)
(-2.25256 0.0222511 0)
(-2.28342 0.0210617 -7.34352e-20)
(-2.31289 0.0199624 0)
(-2.34104 0.0189403 7.13829e-20)
(-2.36794 0.017991 7.03752e-20)
(-2.39363 0.0171055 6.9382e-20)
(-2.41817 0.0162767 1.3679e-19)
(-2.4416 0.0154985 -1.3484e-19)
(-2.46396 0.014762 0)
(-2.48528 0.014061 0)
(-2.50558 0.0133832 0)
(-2.52486 0.012725 -1.2719e-19)
(-2.54316 0.0120706 -1.25326e-19)
(-2.5605 0.0114174 1.23483e-19)
(-2.57691 0.0107467 0)
(-2.59236 0.0100502 -1.19845e-19)
(-2.60683 0.00930622 -1.18049e-19)
(-2.62026 0.00851115 -1.16272e-19)
(-2.63261 0.00764356 0)
(-2.64382 0.00670724 0)
(-2.65382 0.00568993 0)
(-2.66252 0.00461998 -1.09345e-19)
(-2.66984 0.00352382 0)
(-2.67565 0.00246388 0)
(-2.67983 0.00148003 1.04396e-19)
(-2.68234 0.000607785 0)
(-2.68343 -0.000166116 0)
(-2.68324 -0.000904276 9.94143e-20)
(-2.68176 -0.00163042 0)
(-2.67897 -0.0023654 0)
(-2.67486 -0.00309722 -9.42149e-20)
(-2.66941 -0.0038382 -9.23967e-20)
(-2.6626 -0.00457285 0)
(-2.65441 -0.00531215 8.85875e-20)
(-2.64483 -0.00604067 0)
(-2.63385 -0.00676772 -8.45021e-20)
(-2.62147 -0.00747981 0)
(-2.60768 -0.00818405 -8.00979e-20)
(-2.5925 -0.0088699 -7.77668e-20)
(-2.57592 -0.00954261 0)
(-2.55796 -0.0101945 0)
(-2.53864 -0.0108282 0)
(-2.51798 -0.0114395 0)
(-2.496 -0.0120295 0)
(-2.47272 -0.0125996 0)
(-2.44817 -0.013148 0)
(-2.42236 -0.01368 -5.57816e-20)
(-2.39532 -0.0141903 5.26067e-20)
(-2.36708 -0.014686 0)
(-2.33767 -0.0151591 0)
(-2.30711 -0.0156175 0)
(-2.27543 -0.0160477 0)
(-2.24266 -0.0164745 7.06542e-20)
(-2.20883 -0.0168709 0)
(-2.17397 -0.0172501 -5.54967e-20)
(-2.1381 -0.01759 4.76153e-20)
(-2.10127 -0.0178589 0)
(-2.06352 -0.018008 0)
(-2.02494 -0.0179627 0)
(-1.98559 -0.0177108 -1.38806e-20)
(-1.94544 -0.0177409 -4.84046e-21)
(-1.90438 -0.0180982 0)
(-1.86245 -0.0184049 1.4126e-20)
(-1.81971 -0.0186997 2.40931e-20)
(-1.77619 -0.0189854 -3.44077e-20)
(-1.73193 -0.0192636 0)
(-1.68697 -0.0195359 0)
(-1.64133 -0.0198009 -6.76466e-20)
(-1.59504 -0.0200592 0)
(-1.54815 -0.0203088 0)
(-1.50066 -0.0205498 0)
(-1.45263 -0.0207794 0)
(-1.40408 -0.0209973 1.32154e-19)
(-1.35505 -0.0212008 1.46671e-19)
(-1.30556 -0.0213889 0)
(-1.25567 -0.0215594 1.77586e-19)
(-1.20542 -0.021712 0)
(-1.15484 -0.0218467 0)
(-1.10398 -0.0219642 2.29257e-19)
(-1.05288 -0.0220664 0)
(-1.00156 -0.0221553 2.67798e-19)
(-0.950066 -0.0222345 0)
(-0.898408 -0.022306 0)
(-0.846602 -0.0223739 3.32999e-19)
(-0.794656 -0.0224406 0)
(-0.742571 -0.0225103 3.82393e-19)
(-0.690346 -0.0225844 0)
(-0.637975 -0.0226664 0)
(-0.585454 -0.022757 0)
(-0.532775 -0.0228607 -5.00042e-19)
(-0.479932 -0.0229789 0)
(-0.426912 -0.0231161 5.71418e-19)
(-0.373711 -0.023272 0)
(-0.320322 -0.0234443 0)
(-0.266764 -0.0236255 0)
(-0.213081 -0.0238196 0)
(-0.159384 -0.0239929 0)
(-0.105928 -0.0240234 0)
(-0.0531256 -0.0237488 0)
(-0.0036568 -0.0226789 -1.99785e-18)
(0.0512572 -0.0203218 0)
(0.0664017 -0.00929227 0)
(-0.000189966 0.0191888 3.12371e-18)
(-0.00596148 0.034011 -3.56027e-18)
(-0.0123628 0.0353422 0)
(-0.0135434 0.0267479 2.4843e-18)
(-0.0013244 0.00647119 0)
(0.0260494 -0.0280385 7.93206e-19)
(0.0627564 -0.067428 -9.94965e-19)
(0.10525 -0.10038 -7.06698e-19)
(0.149697 -0.121248 0)
(0.192659 -0.129308 -4.57796e-19)
(0.231905 -0.126886 -1.99688e-19)
(0.266434 -0.117168 0)
(0.295876 -0.102948 0)
(0.320229 -0.0862649 0)
(0.339686 -0.0684558 0)
(0.354538 -0.0503054 -1.53821e-19)
(0.365143 -0.0321995 0)
(0.371678 -0.0143377 3.12433e-19)
(0.375014 0.00332343 0)
(0.375166 0.0207155 0)
(0.371814 0.0375041 -3.24651e-19)
(0.364496 0.0532427 0)
(0.352679 0.0672348 3.45708e-19)
(0.335889 0.0785732 -1.80815e-19)
(0.313876 0.0862045 1.92005e-19)
(0.286777 0.0891014 -2.07451e-19)
(0.255315 0.0865385 -2.28948e-19)
(0.220871 0.0784839 0)
(0.185462 0.0657737 0)
(0.151657 0.0500155 3.56128e-19)
(0.122289 0.0328566 -4.26936e-19)
(0.10024 0.0153151 0)
(0.0874548 -0.00257803 0)
(0.085147 -0.0206418 5.75177e-19)
(0.093084 -0.0385369 0)
(0.109192 -0.0557605 0)
(0.128969 -0.0677271 -3.48349e-19)
(0.146619 -0.0689185 0)
(0.157923 -0.0591227 2.71833e-19)
(0.161546 -0.0421873 -5.35445e-19)
(0.157582 -0.0232234 0)
(0.147155 -0.00832362 0)
(0.13137 6.13876e-06 -1.31642e-18)
(0.107723 0.00325626 -1.44939e-18)
(0.0686743 0.00731022 -1.67579e-18)
(0.00409821 0.0242144 8.49976e-19)
(-0.0954476 0.0613382 -5.84546e-19)
(-0.217629 0.104893 -1.1145e-18)
(-0.348722 0.148581 5.19992e-19)
(-0.485736 0.188742 1.96764e-19)
(-0.628114 0.22135 0)
(-0.770706 0.245543 -1.32669e-19)
(-0.910711 0.262035 1.15953e-19)
(-1.04491 0.270771 0)
(-1.17139 0.271347 0)
(-1.28633 0.264311 0)
(-1.38972 0.252486 -8.18932e-20)
(-1.48148 0.237073 0)
(-1.56256 0.21936 1.49136e-19)
(-1.63447 0.201062 0)
(-1.6983 0.183109 1.38883e-19)
(-1.75534 0.166232 0)
(-1.80695 0.150764 -1.31899e-19)
(-1.85397 0.136843 0)
(-1.89733 0.124572 1.26191e-19)
(-1.93757 0.113818 -6.1982e-20)
(-1.97512 0.104421 0)
(-2.01047 0.0962222 -1.19667e-19)
(-2.04399 0.0890691 -5.88938e-20)
(-2.07583 0.0827931 -5.80343e-20)
(-2.10619 0.0772546 0)
(-2.13519 0.0723255 -5.64021e-20)
(-2.16293 0.0679039 -5.56736e-20)
(-2.18947 0.0639 0)
(-2.21489 0.0602466 5.42201e-20)
(-2.23923 0.056883 -1.06984e-19)
(-2.26252 0.0537664 0)
(-2.28481 0.0508571 -5.21305e-20)
(-2.30612 0.0481308 0)
(-2.32648 0.0455623 1.52249e-19)
(-2.34592 0.0431364 0)
(-2.36446 0.0408353 -1.48159e-19)
(-2.38212 0.0386493 -4.87155e-20)
(-2.39893 0.0365667 4.7994e-20)
(-2.41488 0.0345783 9.46144e-20)
(-2.43002 0.0326772 -9.3238e-20)
(-2.44433 0.0308531 0)
(-2.45784 0.0290985 0)
(-2.47053 0.0274039 0)
(-2.48239 0.0257598 2.63424e-19)
(-2.49342 0.0241535 8.64876e-20)
(-2.50363 0.0225812 -8.51385e-20)
(-2.51303 0.0210221 0)
(-2.5216 0.0194706 -8.23434e-20)
(-2.52932 0.0179025 8.11237e-20)
(-2.53617 0.0163194 7.97979e-20)
(-2.54213 0.0146958 0)
(-2.5472 0.013036 0)
(-2.55136 0.0113091 0)
(-2.55461 0.0095233 7.458e-20)
(-2.55697 0.00766418 0)
(-2.5585 0.0057709 -1.44064e-19)
(-2.5593 0.00388169 -2.12317e-19)
(-2.55941 0.00205573 1.3898e-19)
(-2.55854 0.000302326 0)
(-2.5565 -0.00141848 6.69303e-20)
(-2.55322 -0.00312222 0)
(-2.54865 -0.00482759 1.28555e-19)
(-2.54278 -0.00652314 -6.30025e-20)
(-2.53557 -0.00822037 -6.16448e-20)
(-2.52702 -0.00990269 0)
(-2.51709 -0.0115799 -1.76e-19)
(-2.50579 -0.0132342 1.14438e-19)
(-2.4931 -0.0148736 5.55349e-20)
(-2.47902 -0.016481 0)
(-2.46356 -0.0180625 5.22912e-20)
(-2.44672 -0.0196038 1.52167e-19)
(-2.42851 -0.0211102 0)
(-2.40895 -0.0225701 9.45198e-20)
(-2.38806 -0.0239857 9.08346e-20)
(-2.36585 -0.025349 8.70444e-20)
(-2.34235 -0.0266608 0)
(-2.31759 -0.0279215 0)
(-2.29157 -0.0291293 0)
(-2.26434 -0.0302895 -3.57063e-20)
(-2.23592 -0.031396 -3.30044e-20)
(-2.20633 -0.0324559 0)
(-2.17561 -0.033461 -5.77431e-20)
(-2.14377 -0.0344212 -5.32039e-20)
(-2.11085 -0.0353279 0)
(-2.07688 -0.0361919 -4.32661e-20)
(-2.04188 -0.0370038 -7.8252e-20)
(-2.00588 -0.0377758 3.36357e-20)
(-1.9689 -0.0385 3.00329e-20)
(-1.93098 -0.0391894 0)
(-1.89212 -0.0398484 0)
(-1.85232 -0.0405069 0)
(-1.81157 -0.0411564 8.24372e-21)
(-1.7699 -0.0417772 -4.33167e-21)
(-1.72742 -0.0423253 3.53863e-21)
(-1.68414 -0.0428062 -7.98644e-21)
(-1.64006 -0.0432344 1.21002e-20)
(-1.59521 -0.0436171 1.92799e-20)
(-1.54963 -0.0439595 0)
(-1.50333 -0.0442633 0)
(-1.45636 -0.0445308 -3.5401e-20)
(-1.40875 -0.0447613 0)
(-1.36052 -0.0449569 0)
(-1.31173 -0.0451165 1.09748e-19)
(-1.26238 -0.0452427 0)
(-1.21253 -0.0453333 6.7053e-20)
(-1.16221 -0.0453899 -7.54828e-20)
(-1.11145 -0.0454089 0)
(-1.06029 -0.0453913 8.74884e-20)
(-1.00877 -0.0453341 0)
(-0.956939 -0.0452413 0)
(-0.904831 -0.0451136 -1.10841e-19)
(-0.852483 -0.0449578 2.34719e-19)
(-0.799928 -0.0447772 -1.25816e-19)
(-0.747192 -0.0445794 0)
(-0.694296 -0.0443689 0)
(-0.641255 -0.0441534 1.47306e-19)
(-0.588074 -0.0439376 0)
(-0.534755 -0.0437273 1.6341e-19)
(-0.481291 -0.0435257 0)
(-0.427674 -0.043334 0)
(-0.373895 -0.0431539 0)
(-0.319942 -0.0429855 1.98768e-19)
(-0.2658 -0.0428324 0)
(-0.211455 -0.0426934 -2.1625e-19)
(-0.156891 -0.0425704 0)
(-0.102097 -0.0424523 0)
(-0.0470758 -0.0423204 4.85291e-19)
(0.00810323 -0.0421216 -4.99484e-19)
(0.0633336 -0.0417842 0)
(0.118443 -0.0411833 0)
(0.173394 -0.0401462 0)
(0.226227 -0.0382663 1.52923e-18)
(0.282364 -0.0347711 0)
(0.317473 -0.0237668 -1.05127e-18)
(0.000346425 0.0219142 3.14888e-22)
(0.000489199 0.0383507 4.9566e-18)
(0.00551277 0.0318873 0)
(0.0235233 0.00144649 -3.52335e-18)
(0.0599936 -0.0537797 0)
(0.10837 -0.116384 0)
(0.158951 -0.167522 -3.30625e-22)
(0.204902 -0.198091 4.03208e-19)
(0.243318 -0.208085 3.45055e-19)
(0.273974 -0.202112 3.07344e-19)
(0.297913 -0.185686 0)
(0.316504 -0.163419 0)
(0.330924 -0.138475 -2.5444e-19)
(0.342009 -0.112762 -4.94079e-19)
(0.350311 -0.0873171 4.86109e-19)
(0.356208 -0.0626424 0)
(0.359962 -0.0389362 4.87036e-19)
(0.361761 -0.0162772 -2.47066e-19)
(0.361827 0.00535503 0)
(0.360481 0.0260987 5.0617e-19)
(0.357981 0.0461039 2.57207e-19)
(0.354502 0.0653499 -5.30389e-19)
(0.350013 0.0835443 -2.75298e-19)
(0.344171 0.100066 0)
(0.336357 0.113943 6.07386e-19)
(0.325756 0.123905 6.42596e-19)
(0.311585 0.128571 0)
(0.293427 0.126764 7.37596e-19)
(0.271637 0.117903 0)
(0.247527 0.102212 8.92686e-19)
(0.223354 0.0806967 5.01875e-19)
(0.201798 0.0546914 0)
(0.185337 0.0256126 0)
(0.174852 -0.00545944 0)
(0.170603 -0.0373607 0)
(0.168599 -0.0634609 0)
(0.162118 -0.0738022 0)
(0.147323 -0.0654583 8.43363e-19)
(0.124911 -0.044363 -1.24336e-18)
(0.0954516 -0.0169627 0)
(0.0588875 0.0132877 0)
(0.011456 0.0424127 0)
(-0.0591492 0.0716921 6.16853e-22)
(-0.154246 0.111607 7.28762e-19)
(-0.268891 0.16176 1.05777e-18)
(-0.398408 0.216446 -8.0386e-19)
(-0.536002 0.270802 -3.1963e-19)
(-0.675017 0.319885 2.6373e-19)
(-0.810135 0.360518 4.23211e-22)
(-0.937691 0.392138 1.9828e-19)
(-1.05423 0.413391 0)
(-1.15859 0.423918 1.61956e-19)
(-1.24996 0.424324 1.14846e-21)
(-1.32818 0.415379 0)
(-1.39461 0.398206 0)
(-1.45136 0.375266 -1.25703e-19)
(-1.5008 0.349222 0)
(-1.54461 0.3216 0)
(-1.58451 0.293995 1.11866e-19)
(-1.62176 0.267574 2.14881e-19)
(-1.65722 0.24306 -1.03766e-19)
(-1.69139 0.220857 0)
(-1.72459 0.200994 9.87746e-20)
(-1.75708 0.183398 0)
(-1.78887 0.168099 9.48467e-20)
(-1.81987 0.154844 9.26603e-20)
(-1.85005 0.143254 -1.82011e-19)
(-1.87942 0.133086 -8.93952e-20)
(-1.90796 0.12413 0)
(-1.93564 0.116176 1.72712e-19)
(-1.96245 0.109053 0)
(-1.98838 0.102617 2.50936e-19)
(-2.01342 0.0967488 1.6471e-19)
(-2.03756 0.0913533 1.62227e-19)
(-2.06082 0.0863541 -1.59807e-19)
(-2.08318 0.0816898 2.36191e-19)
(-2.10467 0.0773127 0)
(-2.12527 0.0731847 0)
(-2.14501 0.0692773 -1.50527e-19)
(-2.1639 0.0655667 -2.22421e-19)
(-2.18195 0.0620344 0)
(-2.19918 0.0586638 7.19032e-20)
(-2.2156 0.0554411 0)
(-2.23123 0.0523534 -2.08916e-19)
(-2.24608 0.0493884 -5.15663e-23)
(-2.26017 0.0465356 5.5286e-23)
(-2.27351 0.0437821 1.3253e-19)
(-2.2861 0.0411178 0)
(-2.29795 0.0385289 -1.28076e-19)
(-2.30904 0.0359999 -8.1408e-23)
(-2.31939 0.0335181 0)
(-2.329 0.0310686 0)
(-2.33787 0.0286397 0)
(-2.346 0.0262099 1.17319e-19)
(-2.35335 0.0237688 0)
(-2.35993 0.0213014 0)
(-2.36571 0.018804 0)
(-2.37068 0.0162693 0)
(-2.37482 0.0137006 0)
(-2.37811 0.0111027 1.04829e-19)
(-2.38053 0.00848304 0)
(-2.38205 0.00585028 1.00944e-19)
(-2.38261 0.00320084 9.8921e-20)
(-2.38214 0.000517082 -9.68961e-20)
(-2.38055 -0.00221339 0)
(-2.37779 -0.00496842 -9.28542e-20)
(-2.37382 -0.00773578 0)
(-2.36859 -0.0105061 -8.87737e-20)
(-2.36208 -0.0132753 8.66994e-20)
(-2.35425 -0.0160354 2.54054e-19)
(-2.3451 -0.0187805 0)
(-2.3346 -0.0215025 2.41149e-19)
(-2.32276 -0.0241933 7.84463e-20)
(-2.30955 -0.0268452 0)
(-2.29498 -0.0294489 1.47263e-19)
(-2.27907 -0.0319977 1.42484e-19)
(-2.2618 -0.0344832 -2.06068e-19)
(-2.24321 -0.0369014 0)
(-2.2233 -0.0392445 -6.33643e-20)
(-2.2021 -0.0415085 -6.07146e-20)
(-2.17962 -0.0436872 -1.7476e-19)
(-2.15588 -0.0457796 0)
(-2.13092 -0.0477848 0)
(-2.10475 -0.049705 0)
(-2.0774 -0.0515409 -4.74598e-20)
(-2.0489 -0.0532927 0)
(-2.01928 -0.0549615 0)
(-1.98855 -0.0565471 3.76277e-20)
(-1.95676 -0.0580524 3.45514e-20)
(-1.92391 -0.0594771 0)
(-1.89004 -0.0608253 0)
(-1.85517 -0.0620947 5.02823e-20)
(-1.81932 -0.0632896 0)
(-1.78252 -0.0644088 -3.74693e-20)
(-1.74477 -0.0654522 -3.19482e-20)
(-1.70611 -0.0664215 0)
(-1.66653 -0.0673292 0)
(-1.62606 -0.0681851 1.22355e-20)
(-1.58472 -0.0690105 -1.02311e-21)
(-1.54258 -0.0697876 -1.03762e-21)
(-1.49965 -0.070489 0)
(-1.45593 -0.0711167 -3.06442e-20)
(-1.41146 -0.071674 0)
(-1.36625 -0.0721652 0)
(-1.32035 -0.072592 0)
(-1.27378 -0.0729564 4.38773e-20)
(-1.22658 -0.0732582 0)
(-1.17878 -0.0734992 -1.14194e-19)
(-1.13041 -0.0736789 -6.55408e-20)
(-1.08151 -0.0737995 0)
(-1.03212 -0.0738598 -8.02808e-20)
(-0.982274 -0.0738609 0)
(-0.932 -0.0737994 0)
(-0.881341 -0.0736752 -3.05912e-19)
(-0.830336 -0.073486 2.183e-19)
(-0.779024 -0.073236 0)
(-0.727443 -0.0729284 2.48877e-19)
(-0.675627 -0.0725716 -1.33366e-19)
(-0.623606 -0.0721723 0)
(-0.571405 -0.0717407 0)
(-0.519045 -0.0712851 0)
(-0.466536 -0.0708161 -4.9032e-19)
(-0.413885 -0.0703422 0)
(-0.36109 -0.0698713 -1.79681e-19)
(-0.308143 -0.0694096 0)
(-0.255032 -0.0689586 0)
(-0.201743 -0.0685205 0)
(-0.148261 -0.068095 0)
(-0.0945667 -0.0676868 0)
(-0.0406396 -0.0672935 0)
(0.013533 -0.0669139 -4.60809e-19)
(0.0679632 -0.0665319 0)
(0.122672 -0.0661234 -2.38716e-19)
(0.177657 -0.0656273 7.2285e-19)
(0.232884 -0.0649622 0)
(0.288203 -0.0639724 0)
(0.343653 -0.0624322 -4.97852e-19)
(0.397766 -0.0598723 -5.05766e-19)
(0.454758 -0.0555146 5.11693e-19)
(0.499434 -0.0443719 5.25541e-19)
(-0.0010632 0.0219568 -6.26642e-18)
(0.00157461 0.0262904 -7.80581e-18)
(0.0209098 -0.0106776 -3.52861e-18)
(0.0649281 -0.0874897 -9.52833e-19)
(0.122507 -0.171524 0)
(0.178269 -0.234887 8.67414e-19)
(0.222808 -0.267636 -3.50066e-19)
(0.254273 -0.273311 0)
(0.274967 -0.260556 -2.69107e-19)
(0.288282 -0.237465 0)
(0.297037 -0.209535 4.66674e-19)
(0.303067 -0.179897 0)
(0.307377 -0.150143 2.14943e-19)
(0.310446 -0.121017 4.21312e-19)
(0.312457 -0.0928483 -4.17684e-19)
(0.313465 -0.0657864 0)
(0.313483 -0.0398958 -4.2363e-19)
(0.312532 -0.0152132 0)
(0.310649 0.00825167 0)
(0.307932 0.0305364 -4.42552e-19)
(0.304509 0.0516882 0)
(0.300584 0.0717327 -6.51749e-22)
(0.296374 0.0906083 0)
(0.291998 0.108065 0)
(0.287407 0.123591 5.56263e-22)
(0.28231 0.136325 -5.65386e-19)
(0.276165 0.145027 -6.06628e-19)
(0.268247 0.14817 -6.52439e-19)
(0.257935 0.144267 0)
(0.245001 0.132179 -1.54388e-18)
(0.229932 0.111543 0)
(0.213786 0.0830925 -9.59745e-19)
(0.197917 0.0485725 0)
(0.183023 0.0106409 0)
(0.165236 -0.0236473 1.07626e-18)
(0.138582 -0.040713 0)
(0.101133 -0.0351368 -8.45311e-19)
(0.0539572 -0.0115022 -6.27621e-22)
(-0.00315911 0.024532 1.66481e-18)
(-0.0742562 0.0696093 -1.43366e-18)
(-0.16122 0.123162 0)
(-0.263372 0.182636 0)
(-0.379598 0.244127 -3.66933e-19)
(-0.504809 0.306251 0)
(-0.633246 0.366974 -2.51151e-19)
(-0.759249 0.422084 2.155e-19)
(-0.877664 0.466932 1.89466e-19)
(-0.984395 0.500222 0)
(-1.07804 0.521868 -1.53603e-19)
(-1.15782 0.532193 -1.40971e-19)
(-1.2238 0.531958 2.63082e-19)
(-1.27762 0.522314 -1.22106e-19)
(-1.32109 0.50478 -1.14934e-19)
(-1.35656 0.481027 0)
(-1.38656 0.452843 0)