/*--------------------------------*- C++ -*----------------------------------*\
  =========                 |
  \\      /  F ield         | OpenFOAM: The Open Source CFD Toolbox
   \\    /   O peration     | Website:  https://openfoam.org
    \\  /    A nd           | Version:  13
     \\/     M anipulation  |
\*---------------------------------------------------------------------------*/
FoamFile
{
    format      ascii;
    class       volScalarField;
    location    "4.5";
    object      epsilon;
}
// * * * * * * * * * * * * * * * * * * * * * * * * * * * * * * * * * * * * * //

dimensions      [0 2 -3 0 0 0 0];

internalField   nonuniform List<scalar> 
400
(
7.21656e-06
2.00406e-05
8.60539e-05
0.000279545
0.00049945
0.000652927
0.000782013
0.000890877
0.000996939
0.0010924
0.0011912
0.00128581
0.00138803
0.00146789
0.00150707
0.00151676
0.00142615
0.0011208
0.00067582
0.00048103
3.70927e-05
9.4931e-05
0.00028356
0.000585082
0.00071535
0.000771501
0.000805714
0.000838884
0.000887615
0.000949273
0.00103711
0.00114514
0.00128092
0.00144081
0.00162456
0.0018186
0.00192198
0.0019435
0.00158601
0.00110599
0.000151626
0.00036151
0.000621961
0.000709908
0.000738882
0.000755549
0.000771209
0.000799916
0.000858415
0.0009267
0.0010131
0.00110975
0.00122208
0.00135979
0.00152979
0.00173398
0.001924
0.0020032
0.00190162
0.00153924
0.00037843
0.00063672
0.000710017
0.000709703
0.000713478
0.000710042
0.000719501
0.000753167
0.000798114
0.000849027
0.000905565
0.000974265
0.00106884
0.00119947
0.0013848
0.00163726
0.00192446
0.00205926
0.00206135
0.00182202
0.000599098
0.000752549
0.000729357
0.000684574
0.000655548
0.000643763
0.000642897
0.000658298
0.000675043
0.000696404
0.000727653
0.000778672
0.000862924
0.000999134
0.00121548
0.00153848
0.00196099
0.00222853
0.00227311
0.00204209
0.000758939
0.000799565
0.000710828
0.000630736
0.000589564
0.000568307
0.000554857
0.000546492
0.000538692
0.000535931
0.000544777
0.000577888
0.00064961
0.000784164
0.00102093
0.00140929
0.00197141
0.00243794
0.00255265
0.00222003
0.000824358
0.000784326
0.000665594
0.000573451
0.000528471
0.000498928
0.000472223
0.000445786
0.000419401
0.000402807
0.000397564
0.000412878
0.000467536
0.00058611
0.00081878
0.00124437
0.00193765
0.00265954
0.00287872
0.00236515
0.000817334
0.000743745
0.000610479
0.000522561
0.000476378
0.000440874
0.000405177
0.0003684
0.000333235
0.000307516
0.000296486
0.000298764
0.000335303
0.000429406
0.000637164
0.00106326
0.00183818
0.002858
0.0032744
0.00248352
0.000790202
0.000683575
0.000559133
0.00047955
0.000434199
0.00039609
0.000356357
0.000315823
0.000278428
0.000249182
0.00023369
0.00023021
0.000251217
0.000319703
0.000491322
0.000890132
0.0017097
0.00297692
0.00367941
0.00257208
0.000730061
0.000630025
0.000515804
0.000444914
0.000401569
0.000363446
0.000323457
0.000283378
0.000247225
0.000218747
0.000201382
0.000195818
0.000208292
0.000255754
0.000389138
0.00074456
0.00157929
0.00303158
0.00411241
0.00264004
0.000658105
0.000580403
0.000479106
0.000416505
0.000376194
0.000340046
0.000302436
0.000265243
0.000232132
0.000206083
0.000189014
0.000182984
0.000191421
0.000226615
0.000330952
0.000634264
0.00144268
0.0030481
0.00453134
0.00267809
0.000597746
0.000550369
0.000454286
0.000396649
0.000358679
0.000324622
0.000290037
0.000256501
0.000227267
0.000204118
0.000188051
0.0001819
0.000188239
0.000217618
0.000305634
0.000566557
0.00131617
0.00303818
0.00491914
0.00269571
0.000528337
0.000515648
0.000438305
0.000382095
0.000345652
0.000313993
0.000283462
0.000254498
0.000228446
0.000207228
0.000192618
0.000188102
0.000194023
0.000219645
0.000298824
0.000536122
0.00122393
0.00300032
0.00516792
0.00270015
0.000469417
0.0005011
0.000439124
0.000383347
0.000346604
0.000314947
0.000285131
0.000257389
0.000233235
0.000214389
0.000201158
0.000199082
0.000206318
0.00023331
0.000309137
0.000529509
0.00117986
0.00296398
0.00526851
0.00269157
0.000392069
0.000471594
0.000440099
0.000390914
0.000355011
0.000323236
0.000293656
0.000266694
0.00024367
0.000225877
0.00021353
0.000214201
0.000224319
0.000256826
0.000339792
0.000561132
0.00117277
0.0029502
0.00526439
0.00267935
0.000326101
0.000449773
0.000443125
0.000414527
0.000380217
0.000348067
0.000317146
0.000288974
0.000265196
0.000246657
0.000236306
0.000239377
0.000255388
0.000300391
0.000405624
0.000662176
0.00127212
0.00300421
0.00493594
0.00262347
0.000227556
0.000376848
0.000439346
0.000445985
0.000432943
0.000404846
0.000372423
0.000341687
0.000316667
0.000298251
0.000296764
0.000307594
0.000341518
0.000422342
0.000589476
0.000965715
0.00163156
0.00329378
0.00447103
0.00253597
0.000181354
0.000355735
0.000492987
0.000557263
0.000574955
0.000564045
0.000538355
0.000512015
0.000500049
0.000506595
0.000535219
0.000600483
0.000722514
0.000941968
0.00127775
0.00201838
0.00280452
0.00411789
0.00422572
0.00239016
0.000253866
0.000407604
0.000746142
0.000941454
0.00105466
0.00112282
0.00118213
0.00125391
0.00137266
0.00153841
0.00178861
0.00212512
0.00260087
0.00328077
0.00411221
0.00530688
0.00563522
0.00525661
0.00430667
0.00216348
0.000186777
0.000304326
0.000565863
0.000822623
0.0010313
0.00118533
0.00130063
0.00137915
0.00144769
0.00150021
0.00155548
0.00161366
0.00167634
0.0017631
0.00184619
0.001963
0.00206121
0.00214476
0.00211548
0.00188924
)
;

boundaryField
{
    movingWall
    {
        type            epsilonWallFunction;
        value           nonuniform List<scalar> 
20
(
0.000186777
0.000304326
0.000565863
0.000822623
0.0010313
0.00118533
0.00130063
0.00137915
0.00144769
0.00150021
0.00155548
0.00161366
0.00167634
0.0017631
0.00184619
0.001963
0.00206121
0.00214476
0.00211548
0.00188924
)
;
    }
    fixedWalls
    {
        type            epsilonWallFunction;
        value           nonuniform List<scalar> 
60
(
7.21656e-06
3.70927e-05
0.000151626
0.00037843
0.000599098
0.000758939
0.000824358
0.000817334
0.000790202
0.000730061
0.000658105
0.000597746
0.000528337
0.000469417
0.000392069
0.000326101
0.000227556
0.000181354
0.000253866
0.000186777
0.00048103
0.00110599
0.00153924
0.00182202
0.00204209
0.00222003
0.00236515
0.00248352
0.00257208
0.00264004
0.00267809
0.00269571
0.00270015
0.00269157
0.00267935
0.00262347
0.00253597
0.00239016
0.00216348
0.00188924
7.21656e-06
2.00406e-05
8.60539e-05
0.000279545
0.00049945
0.000652927
0.000782013
0.000890877
0.000996939
0.0010924
0.0011912
0.00128581
0.00138803
0.00146789
0.00150707
0.00151676
0.00142615
0.0011208
0.00067582
0.00048103
)
;
    }
    frontAndBack
    {
        type            empty;
    }
}


// ************************************************************************* //
