/*--------------------------------*- C++ -*----------------------------------*\
  =========                 |
  \\      /  F ield         | OpenFOAM: The Open Source CFD Toolbox
   \\    /   O peration     | Website:  https://openfoam.org
    \\  /    A nd           | Version:  13
     \\/     M anipulation  |
\*---------------------------------------------------------------------------*/
FoamFile
{
    format      ascii;
    class       volScalarField;
    location    "4.5";
    object      epsilon;
}
// * * * * * * * * * * * * * * * * * * * * * * * * * * * * * * * * * * * * * //

dimensions      [0 2 -3 0 0 0 0];

internalField   nonuniform List<scalar> 
1600
(
1.84432e-05
7.23599e-05
0.000149083
0.000168672
0.000164584
0.000174663
0.000218851
0.000326877
0.00044526
0.000556365
0.00080775
0.00114986
0.00136426
0.00153346
0.00178377
0.00209084
0.00242179
0.0027526
0.00311672
0.00348504
0.00390256
0.00434315
0.00485309
0.0054226
0.00610972
0.00676401
0.00740585
0.00796747
0.00844214
0.00869009
0.00878512
0.00853544
0.00776176
0.00642887
0.00458186
0.00252842
0.00114913
0.000450898
0.000136175
2.7163e-05
8.86503e-05
0.000112313
0.000149438
0.000155999
0.000164331
0.000205293
0.000333665
0.000629395
0.00106733
0.00162262
0.0027986
0.00396215
0.0042757
0.00422748
0.00402674
0.00388974
0.00382201
0.00378943
0.003789
0.00385639
0.00397361
0.0041346
0.00432843
0.00455474
0.00483458
0.00517393
0.00555692
0.00599438
0.00643536
0.00680054
0.00696369
0.00698124
0.00648683
0.00558108
0.00402686
0.00221504
0.000880029
0.000361593
0.000124242
5.35179e-05
0.000259178
0.00028057
0.000309742
0.000322463
0.000390049
0.000628389
0.001224
0.00233136
0.00391251
0.00484333
0.00502258
0.00449719
0.00407517
0.00373665
0.00339227
0.00316043
0.00297584
0.00284957
0.00278411
0.00275716
0.00275271
0.00279296
0.00288013
0.00300668
0.00316777
0.00335999
0.00359109
0.00386348
0.00417956
0.00454884
0.0049705
0.0053381
0.00550273
0.00537031
0.00464114
0.00301809
0.000935366
0.00024668
8.44105e-05
4.59914e-05
0.000599344
0.00055796
0.000594433
0.000690509
0.00101351
0.00183347
0.0032935
0.00463618
0.00508787
0.00486369
0.00440896
0.00359851
0.00305412
0.00262324
0.00239236
0.00222698
0.00212876
0.00208129
0.00206417
0.0020637
0.00210502
0.00215849
0.00223564
0.00232762
0.00244076
0.00257337
0.00273257
0.0029218
0.00314482
0.00340261
0.00369321
0.00402345
0.00442697
0.00483066
0.00497446
0.00452665
0.00219553
0.000385764
7.83301e-05
3.51248e-05
0.00116072
0.000967438
0.00109046
0.00141505
0.00219074
0.00351998
0.00463728
0.00497538
0.00476495
0.00401034
0.0030111
0.00251379
0.00215818
0.00194299
0.00182691
0.00176806
0.00174542
0.00174254
0.00177189
0.00181149
0.00186546
0.00192308
0.0019909
0.00206691
0.00215765
0.00226634
0.00240099
0.00256506
0.0027626
0.0029923
0.00324861
0.0035266
0.00383405
0.00420255
0.00471553
0.0049459
0.00435987
0.00123846
0.000159235
4.42638e-05
0.00199517
0.0015544
0.00182429
0.0024158
0.00345634
0.00440768
0.00471418
0.00458374
0.003679
0.00267357
0.00216307
0.00186564
0.00168304
0.00159819
0.00156416
0.00155621
0.00157383
0.00160748
0.00164864
0.00169248
0.00174075
0.00179221
0.001852
0.00192177
0.00200721
0.00211282
0.00224507
0.00240886
0.00260838
0.00284384
0.00311247
0.00339879
0.00368509
0.00396799
0.00430932
0.00471744
0.0048704
0.0032466
0.000488939
8.80455e-05
0.00309611
0.00230871
0.00269711
0.00339302
0.00415944
0.0044484
0.00438876
0.0035537
0.0024948
0.00195462
0.00167278
0.00151853
0.00144801
0.00142382
0.00141998
0.00143648
0.00146018
0.00148495
0.00150959
0.00153504
0.00156347
0.00159871
0.00164528
0.00170767
0.00179178
0.00190379
0.00205056
0.00223824
0.0024711
0.00274816
0.00305909
0.00338296
0.00369098
0.00395438
0.0042225
0.00456623
0.00476415
0.00453136
0.00125415
0.000202219
0.00429773
0.00314061
0.00353134
0.00406087
0.0042979
0.00423527
0.00356836
0.00247825
0.0018503
0.00155097
0.00140367
0.00133579
0.00131087
0.00130507
0.00130764
0.00131409
0.00131623
0.00131624
0.001314
0.00131335
0.00131886
0.00133488
0.00136659
0.00141825
0.00149607
0.00160722
0.00176026
0.00196499
0.00223078
0.002563
0.00295619
0.00338488
0.00380058
0.0041685
0.00435979
0.00456125
0.00475727
0.00480638
0.00269866
0.000494938
0.00539047
0.00391819
0.00418195
0.00434245
0.00420282
0.00367646
0.00263437
0.00185151
0.00149172
0.00132489
0.00124808
0.00121485
0.00120086
0.00119325
0.00118138
0.00116352
0.00113898
0.00111223
0.00108629
0.00106781
0.00105984
0.00105901
0.001079
0.00111985
0.00118691
0.00128773
0.00143172
0.00163169
0.00190297
0.00226109
0.00271488
0.00325318
0.00382714
0.00436561
0.0046972
0.00485856
0.00497946
0.00502934
0.00424379
0.00133207
0.00624122
0.00453127
0.00456031
0.00440283
0.00390441
0.00295274
0.00197851
0.00149828
0.00128124
0.00118243
0.00113666
0.00111464
0.00109641
0.00107202
0.00103806
0.000996672
0.000951798
0.000908342
0.000870185
0.000841121
0.000826222
0.000821229
0.000830745
0.000863214
0.000918214
0.00100387
0.00112929
0.00130858
0.00156098
0.00191078
0.00238307
0.00299116
0.00371104
0.00444597
0.00500738
0.00522215
0.00528788
0.00526151
0.00485038
0.00244069
0.00680558
0.00493023
0.00476667
0.00430685
0.0034154
0.00232833
0.00160137
0.00128448
0.0011431
0.00107763
0.00104528
0.00101991
0.000987296
0.000943972
0.000891608
0.000835158
0.000779929
0.000730105
0.0006887
0.000657781
0.000641244
0.000635176
0.000639339
0.000664732
0.00070885
0.000778747
0.000882806
0.00103461
0.00125455
0.00157186
0.00202432
0.0026507
0.003468
0.00442702
0.00529359
0.00568319
0.00578561
0.00567014
0.00527416
0.0035438
0.00716233
0.00513897
0.00475959
0.00407624
0.00292038
0.00187726
0.00136542
0.00114186
0.0010413
0.000992932
0.000961552
0.000925409
0.000877861
0.000820035
0.000756837
0.000694171
0.000636785
0.000587592
0.000548248
0.00051949
0.000503844
0.000497947
0.000499665
0.000519166
0.000554215
0.000610213
0.000694496
0.000819162
0.00100357
0.00127798
0.00168681
0.00228714
0.00313169
0.00422036
0.005417
0.0061313
0.00630752
0.0061482
0.00571529
0.00447155
0.00716816
0.00515323
0.00467321
0.00375325
0.00247753
0.00159399
0.00120621
0.00103745
0.000959934
0.000918935
0.000881755
0.000834387
0.000775472
0.000709316
0.00064219
0.000579543
0.000524816
0.000479573
0.000444276
0.000418788
0.000404638
0.000399228
0.000399737
0.000414472
0.000442214
0.00048691
0.00055473
0.000655987
0.000807926
0.00103929
0.00139662
0.00194944
0.00278433
0.00396572
0.0054381
0.00659082
0.00692957
0.00674264
0.00609047
0.00533201
0.00708392
0.00509799
0.00448138
0.0034165
0.0021303
0.00140138
0.00109116
0.000955957
0.00089231
0.000851919
0.000807498
0.000751269
0.000685513
0.000616291
0.000549868
0.000490575
0.000440486
0.000400057
0.00036895
0.000346556
0.000333653
0.000328563
0.000328469
0.000339451
0.000361439
0.000397322
0.00045216
0.00053452
0.000659119
0.000851618
0.00115653
0.0016476
0.00243272
0.00362978
0.00527887
0.00695439
0.00756854
0.00742722
0.00662264
0.00614984
0.00687434
0.00495882
0.00422746
0.0031
0.00187025
0.00126275
0.0010039
0.000889985
0.000834419
0.000791753
0.000741074
0.000679076
0.000610357
0.000541573
0.000478274
0.000423558
0.000378376
0.000342422
0.000314907
0.000295015
0.000282991
0.000277976
0.000277519
0.000285639
0.000303167
0.000332313
0.000377218
0.000444949
0.000547845
0.000708112
0.000966442
0.00139614
0.00211844
0.0032932
0.00502351
0.00715161
0.00823667
0.00817575
0.00719028
0.00694211
0.00650298
0.00475207
0.00395451
0.00281689
0.00168874
0.00116007
0.000935478
0.000835794
0.000784625
0.000739113
0.000683995
0.000619006
0.000550012
0.000483557
0.000424251
0.000374125
0.000333331
0.000301102
0.000276432
0.000258441
0.000246979
0.000241888
0.000241088
0.00024706
0.000261145
0.000285153
0.000322515
0.000379091
0.000465143
0.000599462
0.000817825
0.00118916
0.00184036
0.00297114
0.00478439
0.00721008
0.00890221
0.00903452
0.00783245
0.00772824
0.00605653
0.00451747
0.00368407
0.00258189
0.00155701
0.00108244
0.00088112
0.00079145
0.000742232
0.000694427
0.00063673
0.000570836
0.000503158
0.000439783
0.000384443
0.000338366
0.000301189
0.000271896
0.000249401
0.000232824
0.000221712
0.000216408
0.000215245
0.000219588
0.000231001
0.00025106
0.000282687
0.00033082
0.000404059
0.000518214
0.000704091
0.00102399
0.00160221
0.00266054
0.00448912
0.00719557
0.00952725
0.00994631
0.00852937
0.00850423
0.00553461
0.00429296
0.00343537
0.002393
0.00146134
0.00102409
0.000838086
0.000755134
0.000706751
0.000657599
0.000598909
0.000533525
0.00046795
0.000407736
0.000355911
0.000313164
0.000278832
0.000251778
0.000230901
0.000215343
0.000204549
0.000198881
0.000197302
0.000200381
0.000209693
0.000226671
0.000253883
0.000295595
0.000359122
0.000457812
0.000617919
0.000894468
0.00140488
0.00238205
0.00418419
0.00705679
0.0100722
0.0109268
0.00933314
0.00928829
0.00499895
0.00407146
0.00321255
0.00224448
0.00139237
0.000980335
0.000804341
0.0007256
0.000677608
0.000628081
0.00056965
0.000505682
0.000442512
0.000385207
0.000336303
0.000296173
0.000264003
0.000238619
0.000218929
0.000204097
0.000193579
0.00018748
0.000185402
0.000187465
0.000195108
0.000209635
0.000233399
0.000270184
0.000326355
0.000413318
0.000553395
0.000794368
0.00124365
0.00213453
0.00388214
0.00688525
0.0105398
0.0119351
0.0102198
0.0100644
0.00441031
0.00387219
0.00302432
0.0021312
0.00134804
0.000950811
0.000778485
0.000701766
0.000654071
0.000605033
0.000547824
0.000485852
0.000425147
0.000370393
0.000323826
0.000285675
0.000255098
0.00023093
0.000212095
0.000197775
0.000187449
0.000181007
0.000178418
0.000179693
0.000185861
0.00019832
0.000219347
0.000252311
0.000302886
0.000381027
0.000505796
0.000718396
0.00111518
0.00192197
0.00359232
0.00667574
0.0109075
0.012977
0.0112277
0.0108514
0.00393749
0.00369825
0.00286713
0.00204477
0.00132023
0.000930402
0.000759788
0.000682985
0.000635348
0.000587448
0.000532212
0.000472661
0.000414414
0.000361827
0.000317083
0.000280426
0.00025106
0.000227777
0.000209508
0.000195475
0.000185205
0.000178543
0.000175569
0.000176347
0.000181393
0.000192135
0.000210729
0.000240416
0.000286702
0.000358271
0.000471502
0.000661833
0.00101433
0.001742
0.00332221
0.00646813
0.0111752
0.0140353
0.0123474
0.011629
0.00353574
0.0035363
0.00275468
0.001986
0.00131496
0.000927624
0.00074724
0.000668449
0.00062065
0.000574347
0.000521645
0.000464831
0.000408978
0.000358738
0.000315776
0.000280272
0.000251467
0.000228454
0.000210339
0.000196368
0.000186036
0.000179113
0.000175668
0.000175963
0.000180126
0.000189833
0.000206785
0.000234133
0.0002769
0.000343207
0.000447914
0.000621235
0.000937376
0.00159301
0.00307011
0.00622341
0.0113738
0.0151012
0.0136083
0.0124132
0.00317833
0.00339693
0.00267557
0.00194818
0.00132118
0.00093319
0.00074529
0.000658536
0.000609369
0.000564677
0.000514915
0.000461176
0.000408645
0.000359869
0.000317614
0.00028254
0.000254138
0.000231443
0.000213541
0.000199695
0.000189383
0.000182347
0.000178562
0.000178428
0.000181618
0.00018995
0.000205802
0.000231853
0.000272481
0.000335601
0.000434216
0.000593915
0.000880917
0.00147359
0.00284365
0.00596549
0.0114956
0.0161908
0.0149811
0.0131835
0.00285139
0.00328215
0.00262802
0.00193956
0.00133866
0.000948195
0.000749098
0.000654095
0.00060139
0.000557966
0.000511245
0.000461257
0.000410504
0.000363453
0.000322432
0.000288062
0.000260043
0.000237578
0.000219767
0.000205877
0.000195421
0.000188136
0.000184041
0.000183605
0.000186218
0.000193534
0.00020803
0.000232304
0.000271431
0.000332915
0.00042831
0.000579846
0.000841814
0.00138081
0.00264408
0.00569282
0.0115494
0.0172858
0.0164793
0.0139498
0.00254365
0.00318334
0.00260639
0.0019475
0.00137393
0.00097861
0.000760452
0.000655808
0.000597109
0.000553153
0.000509388
0.000462558
0.000414907
0.000370248
0.000330534
0.000296779
0.000268944
0.000246446
0.000228528
0.000214508
0.000203888
0.000196393
0.000192038
0.00019142
0.000193699
0.000200367
0.000213998
0.000237228
0.000274728
0.000334007
0.000427145
0.000574772
0.000820528
0.00131123
0.00247304
0.00541637
0.0115604
0.0183853
0.0181006
0.0146931
0.00225251
0.00310443
0.00260976
0.00196944
0.00142266
0.00102285
0.000784182
0.000662838
0.000598141
0.000552252
0.000509875
0.000465671
0.00042132
0.000378961
0.000340727
0.000307741
0.000280197
0.000257723
0.000239714
0.000225569
0.000214814
0.000207171
0.000202632
0.000201972
0.000204098
0.000210418
0.000223549
0.000246212
0.000283007
0.000341483
0.000432996
0.000575983
0.000812647
0.0012615
0.00232902
0.00514176
0.0114745
0.0194643
0.0198429
0.0154175
0.0019697
0.00302302
0.00262206
0.00201333
0.00148659
0.00108181
0.00082241
0.000678956
0.000603301
0.000554015
0.000511777
0.000470253
0.000428815
0.00038895
0.000352465
0.000320515
0.000293483
0.000271202
0.000253226
0.000239053
0.000228262
0.00022059
0.000215983
0.000215467
0.000217595
0.000223851
0.000236898
0.000259451
0.000296097
0.000354512
0.000446149
0.000588145
0.000814017
0.00123605
0.00221454
0.0048823
0.0113288
0.020486
0.0217054
0.0161075
0.00169985
0.00294784
0.00265197
0.00206351
0.001561
0.00115594
0.000876674
0.000709837
0.000616324
0.000559951
0.00051617
0.000476078
0.000437087
0.000399707
0.000365212
0.00033463
0.000308437
0.00028663
0.000268921
0.00025492
0.000244273
0.000236759
0.000232263
0.000232116
0.000234405
0.000240893
0.000254307
0.000277232
0.000314306
0.000373336
0.000465992
0.000609059
0.00083157
0.00122761
0.00212473
0.00463819
0.0111415
0.0214258
0.0236554
0.0167643
0.00143652
0.00282868
0.00265027
0.00213536
0.00164489
0.00124371
0.000948673
0.000757662
0.000643128
0.000573687
0.000525156
0.000484459
0.000446795
0.000411393
0.000378815
0.000349785
0.000324729
0.000303723
0.00028659
0.000273041
0.000262795
0.000255682
0.000251644
0.000251939
0.000254687
0.000261768
0.000276052
0.000299866
0.000338012
0.000398405
0.000492964
0.000638653
0.000861041
0.00123453
0.00206835
0.00441275
0.0108792
0.0222957
0.0256534
0.0173779
0.00120829
0.00269938
0.0026322
0.00221907
0.00173714
0.0013433
0.00103875
0.000825954
0.000688505
0.000601551
0.000543083
0.000498167
0.00045964
0.000424991
0.000393756
0.000366124
0.000342302
0.00032232
0.000306042
0.000293231
0.000283695
0.000277212
0.000274141
0.000274924
0.000278448
0.000286648
0.000302254
0.000327579
0.000367552
0.000430185
0.000527597
0.000677407
0.000903729
0.00126482
0.00204605
0.00420967
0.0105439
0.0230307
0.0276224
0.0179518
0.00101918
0.00248401
0.00259406
0.00229482
0.00183326
0.00145216
0.00114638
0.000917716
0.000758164
0.000650611
0.000577087
0.000523162
0.00048011
0.000443701
0.000412217
0.000385063
0.000362018
0.000342897
0.000327502
0.000315544
0.000306958
0.000301238
0.000299636
0.00030107
0.000305673
0.000315584
0.000333007
0.000360602
0.000403336
0.000469352
0.000570846
0.000726453
0.000960423
0.00131628
0.00204593
0.00405689
0.0101798
0.0236154
0.0294738
0.0184868
0.000863886
0.00216189
0.00255358
0.00234502
0.00192443
0.00156525
0.00126941
0.00103432
0.00085709
0.000728464
0.000635895
0.000567769
0.000515389
0.000473393
0.000438847
0.0004102
0.000386606
0.000367489
0.000352464
0.000341057
0.000333328
0.000328355
0.000328432
0.000330681
0.000336684
0.00034891
0.000368875
0.000399743
0.000446489
0.000517556
0.000625046
0.00078913
0.00103518
0.00140097
0.00210206
0.0039932
0.00985204
0.0240278
0.0310741
0.0189947
0.000731462
0.00174314
0.0024582
0.00233165
0.00200326
0.00167711
0.00140492
0.00117753
0.000992729
0.000847141
0.000734605
0.000647857
0.00058034
0.000527058
0.000484556
0.000450511
0.000423378
0.000402029
0.000385722
0.000373726
0.00036587
0.000361633
0.000362347
0.000365804
0.000373795
0.000388922
0.000412473
0.000448196
0.000500952
0.000580033
0.000697031
0.000875078
0.00113985
0.0015357
0.00222943
0.00401039
0.00970594
0.0243498
0.0322679
0.0194998
0.000647266
0.00133313
0.00224777
0.00225728
0.00207124
0.00179059
0.0015511
0.00134455
0.00116468
0.00101089
0.000882331
0.00077667
0.000690812
0.000621508
0.000565873
0.00052149
0.000486419
0.000459094
0.00043835
0.000423368
0.000413446
0.00040872
0.000409832
0.000414494
0.000424984
0.000444356
0.000473625
0.000517557
0.000580451
0.000674057
0.000808147
0.00101296
0.00131074
0.00176869
0.0025069
0.00429434
0.00975286
0.0247281
0.032892
0.0200356
0.00064869
0.0010452
0.00189627
0.00210703
0.00205607
0.00190717
0.001727
0.00155784
0.00139826
0.00124855
0.00111128
0.000988785
0.00088218
0.000791403
0.000715574
0.000653344
0.000603224
0.000563633
0.000534022
0.000513264
0.000499321
0.000493856
0.000495791
0.000502936
0.000518499
0.000546609
0.000587414
0.000648652
0.000732607
0.000857886
0.00102851
0.00129309
0.00165971
0.00225408
0.00314048
0.00512688
0.0105888
0.0255895
0.0331404
0.0202856
0.00082306
0.000870037
0.00148145
0.00182362
0.00201355
0.00200762
0.00193518
0.00181729
0.00168742
0.00155048
0.00141327
0.00128232
0.00116203
0.00105522
0.000963055
0.000885825
0.000822814
0.000773474
0.000735513
0.000710915
0.00069576
0.000696411
0.000704334
0.000724308
0.000759872
0.000815484
0.000887689
0.000996571
0.00113676
0.00134564
0.00161124
0.00202914
0.00256759
0.00348375
0.00473716
0.00729661
0.0129846
0.0274234
0.0331575
0.0203669
0.00113573
0.000900777
0.00135396
0.00182493
0.00213059
0.00229496
0.00236009
0.00233612
0.00226387
0.0021488
0.0020187
0.00188319
0.00175134
0.00163109
0.00152605
0.00144057
0.0013742
0.00132814
0.00130035
0.00130154
0.00131485
0.00135027
0.00141358
0.00150676
0.00162692
0.00179283
0.00199571
0.00227075
0.00259186
0.00305443
0.00361049
0.00445199
0.00546184
0.00714171
0.00922403
0.0130594
0.0188081
0.0311408
0.0331767
0.0200637
0.00179537
0.00126723
0.00188411
0.00256323
0.00310605
0.00351817
0.00377735
0.00389747
0.00391346
0.00387326
0.00378586
0.00368654
0.00359033
0.00351491
0.00346079
0.00345609
0.00347603
0.00353312
0.00364439
0.00381517
0.00402782
0.00431186
0.00464877
0.0050823
0.00558108
0.00620606
0.00692407
0.00780812
0.00883813
0.0100945
0.0115214
0.0134012
0.0156858
0.01894
0.0226883
0.0282766
0.0332204
0.038452
0.0348161
0.0190353
0.00329709
0.00311807
0.0058033
0.00818028
0.00963316
0.0106083
0.0112207
0.0115912
0.011793
0.0119102
0.0119755
0.0120579
0.0121767
0.012388
0.0126695
0.0130747
0.0135631
0.0142006
0.0149269
0.0158495
0.0168634
0.0181128
0.0194562
0.021078
0.0228112
0.0248544
0.0270569
0.0295564
0.0323453
0.0352899
0.0388793
0.0421672
0.0466963
0.0498404
0.0548101
0.0554851
0.0532598
0.0457998
0.0355635
0.0169001
0.00222477
0.00362588
0.00491049
0.00637331
0.00768697
0.00884672
0.00983598
0.010643
0.0112912
0.0117742
0.0121077
0.0123309
0.0124673
0.0125401
0.0125625
0.0125573
0.0125435
0.0125197
0.0125054
0.0125104
0.012529
0.0125694
0.0126581
0.0127457
0.012927
0.0130693
0.0133598
0.0135626
0.0139763
0.0142369
0.0147705
0.0150774
0.0156864
0.0161017
0.0169848
0.017515
0.0183494
0.0183231
0.0176562
0.0147226
)
;

boundaryField
{
    movingWall
    {
        type            epsilonWallFunction;
        value           nonuniform List<scalar> 
40
(
0.00222477
0.00362588
0.00491049
0.00637331
0.00768697
0.00884672
0.00983598
0.010643
0.0112912
0.0117742
0.0121077
0.0123309
0.0124673
0.0125401
0.0125625
0.0125573
0.0125435
0.0125197
0.0125054
0.0125104
0.012529
0.0125694
0.0126581
0.0127457
0.012927
0.0130693
0.0133598
0.0135626
0.0139763
0.0142369
0.0147705
0.0150774
0.0156864
0.0161017
0.0169848
0.017515
0.0183494
0.0183231
0.0176562
0.0147226
)
;
    }
    fixedWalls
    {
        type            epsilonWallFunction;
        value           nonuniform List<scalar> 
120
(
1.84432e-05
8.86503e-05
0.000259178
0.000599344
0.00116072
0.00199517
0.00309611
0.00429773
0.00539047
0.00624122
0.00680558
0.00716233
0.00716816
0.00708392
0.00687434
0.00650298
0.00605653
0.00553461
0.00499895
0.00441031
0.00393749
0.00353574
0.00317833
0.00285139
0.00254365
0.00225251
0.0019697
0.00169985
0.00143652
0.00120829
0.00101918
0.000863886
0.000731462
0.000647266
0.00064869
0.00082306
0.00113573
0.00179537
0.00329709
0.00222477
2.7163e-05
5.35179e-05
4.59914e-05
3.51248e-05
4.42638e-05
8.80455e-05
0.000202219
0.000494938
0.00133207
0.00244069
0.0035438
0.00447155
0.00533201
0.00614984
0.00694211
0.00772824
0.00850423
0.00928829
0.0100644
0.0108514
0.011629
0.0124132
0.0131835
0.0139498
0.0146931
0.0154175
0.0161075
0.0167643
0.0173779
0.0179518
0.0184868
0.0189947
0.0194998
0.0200356
0.0202856
0.0203669
0.0200637
0.0190353
0.0169001
0.0147226
1.84432e-05
7.23599e-05
0.000149083
0.000168672
0.000164584
0.000174663
0.000218851
0.000326877
0.00044526
0.000556365
0.00080775
0.00114986
0.00136426
0.00153346
0.00178377
0.00209084
0.00242179
0.0027526
0.00311672
0.00348504
0.00390256
0.00434315
0.00485309
0.0054226
0.00610972
0.00676401
0.00740585
0.00796747
0.00844214
0.00869009
0.00878512
0.00853544
0.00776176
0.00642887
0.00458186
0.00252842
0.00114913
0.000450898
0.000136175
2.7163e-05
)
;
    }
    frontAndBack
    {
        type            empty;
    }
}


// ************************************************************************* //
