/*--------------------------------*- C++ -*----------------------------------*\
  =========                 |
  \\      /  F ield         | OpenFOAM: The Open Source CFD Toolbox
   \\    /   O peration     | Website:  https://openfoam.org
    \\  /    A nd           | Version:  13
     \\/     M anipulation  |
\*---------------------------------------------------------------------------*/
FoamFile
{
    format      ascii;
    class       volScalarField;
    location    "4.5";
    object      k;
}
// * * * * * * * * * * * * * * * * * * * * * * * * * * * * * * * * * * * * * //

dimensions      [0 2 -2 0 0 0 0];

internalField   nonuniform List<scalar> 
1600
(
1.44225e-06
5.65669e-06
1.16535e-05
1.31797e-05
1.2856e-05
1.36412e-05
1.70938e-05
2.55473e-05
3.48146e-05
4.35243e-05
6.32512e-05
8.99632e-05
0.000106666
0.000119858
0.000139385
0.000163367
0.000189203
0.000215041
0.000243475
0.000272244
0.000304855
0.000339269
0.000379104
0.00042359
0.000477264
0.00052837
0.000578514
0.000622391
0.000659489
0.000678882
0.000686319
0.000666893
0.000606462
0.000502396
0.000358197
0.000197715
8.98596e-05
3.52584e-05
1.0647e-05
2.12345e-06
6.93333e-06
3.79253e-05
7.64236e-05
8.93492e-05
9.3019e-05
0.00010316
0.000136265
0.000204074
0.000268746
0.000328949
0.000469954
0.000613206
0.000668406
0.000686471
0.000704801
0.000729351
0.000765239
0.000796012
0.000839159
0.000878053
0.000928095
0.000976058
0.00103101
0.00108306
0.00113468
0.0011913
0.00125088
0.0013112
0.00136371
0.00139154
0.00140058
0.0013566
0.00124767
0.00106577
0.00080312
0.000464054
0.000198932
7.98852e-05
2.75189e-05
4.18122e-06
2.02766e-05
9.74407e-05
0.000164692
0.00018986
0.000217776
0.000284164
0.000426156
0.000635215
0.000846392
0.00094731
0.000961727
0.000884007
0.000838721
0.00082076
0.000818283
0.00082803
0.000842726
0.000860709
0.000884349
0.000909412
0.00093867
0.000967883
0.00099935
0.0010305
0.00106526
0.00110129
0.0011392
0.00117711
0.0012133
0.00124316
0.00125708
0.00125998
0.00121427
0.00108873
0.00089178
0.000536978
0.000192428
6.87047e-05
2.54981e-05
3.59243e-06
4.6898e-05
0.000200349
0.000297952
0.000351007
0.000441284
0.000619128
0.000869032
0.0010447
0.00109284
0.00101292
0.000927288
0.00085698
0.000826919
0.000816562
0.000815137
0.000825441
0.000838113
0.000854907
0.000873304
0.000892596
0.000912775
0.000932938
0.000954641
0.000977211
0.00100066
0.00102473
0.00104971
0.00107473
0.00109806
0.00111745
0.0011284
0.0011324
0.00112252
0.00108626
0.000998667
0.000804227
0.000318755
7.90728e-05
2.12358e-05
2.74363e-06
9.0831e-05
0.00035297
0.000485936
0.000580143
0.000736907
0.000964882
0.00111271
0.00114469
0.00106014
0.000937215
0.000851879
0.000815037
0.00080177
0.000798704
0.000803458
0.000819319
0.000835879
0.000855829
0.000875981
0.000897184
0.000917623
0.000937156
0.000955781
0.000974028
0.000992878
0.00101286
0.00103455
0.00105734
0.00107855
0.0010945
0.00110294
0.00110576
0.0010975
0.00107072
0.00102971
0.000932315
0.000669937
0.000185033
3.18211e-05
3.45857e-06
0.000156127
0.00054547
0.000711829
0.000835623
0.00100774
0.00113535
0.00116552
0.00109524
0.000943203
0.000842502
0.000798771
0.000782193
0.000778131
0.000784423
0.000801697
0.000821542
0.00084406
0.000867951
0.00088997
0.000910796
0.000929414
0.00094681
0.000963513
0.000980336
0.000998884
0.00102035
0.00104589
0.00107626
0.00111189
0.00114534
0.0011606
0.00116304
0.00115494
0.00112116
0.00105992
0.000977677
0.000822104
0.00037566
7.04184e-05
6.88144e-06
0.000242272
0.000748226
0.000942037
0.00105663
0.00115059
0.00117838
0.00111966
0.000964139
0.000838829
0.000785041
0.000764766
0.000759664
0.000765175
0.000783804
0.000804657
0.000827062
0.000848266
0.000867828
0.00088559
0.000900502
0.000913232
0.000925429
0.000938634
0.000954806
0.000975214
0.00100115
0.00103369
0.00107311
0.00111845
0.00116875
0.00122277
0.00125066
0.00125541
0.00123904
0.00117641
0.00105552
0.000890459
0.000617758
0.000145606
1.58047e-05
0.000336293
0.000950162
0.00113653
0.00119663
0.00121109
0.00114717
0.00100532
0.000848062
0.000777333
0.000750212
0.000742959
0.000745277
0.000762948
0.000783152
0.000803552
0.000822454
0.000837683
0.000848616
0.000854953
0.00085816
0.000862013
0.000868062
0.00087803
0.000893161
0.000914592
0.000944055
0.000983093
0.00103293
0.00109372
0.00116332
0.00123575
0.00130338
0.00133447
0.00133891
0.00131228
0.00121245
0.00101604
0.000719346
0.000247561
3.86909e-05
0.000421771
0.00111795
0.00126932
0.00127962
0.00119967
0.00106572
0.000880631
0.000781051
0.000740606
0.000728208
0.000727017
0.000740301
0.000760156
0.00077831
0.000793182
0.000800258
0.000801833
0.000798719
0.000793629
0.000791217
0.000790432
0.000793009
0.000801141
0.000815082
0.000836486
0.000866919
0.00090837
0.000963008
0.0010328
0.00111833
0.00121669
0.00131822
0.00139694
0.00142415
0.00142096
0.001353
0.00118295
0.000891511
0.000449275
0.000104112
0.0004883
0.0012391
0.00136473
0.00131275
0.00115621
0.000959263
0.000805741
0.000739912
0.000716535
0.000711516
0.000717681
0.000735728
0.000752254
0.000760674
0.000762338
0.000755093
0.000746286
0.000735688
0.000726188
0.000720425
0.000718089
0.000718323
0.000725814
0.000739065
0.000759878
0.000789534
0.000830136
0.000884372
0.000955519
0.00104673
0.00115922
0.00128881
0.00142052
0.00150617
0.00152435
0.00148997
0.00133171
0.00102044
0.000566692
0.000190688
0.000532447
0.00131498
0.00141911
0.00130366
0.00108575
0.000869019
0.000757415
0.000712916
0.000699764
0.000698883
0.000711559
0.00072496
0.000730023
0.00072736
0.000717671
0.000703132
0.00068831
0.000674178
0.000662827
0.000656127
0.00065348
0.00065351
0.000660971
0.000673998
0.000694101
0.000722372
0.000760766
0.000812068
0.000880202
0.000970073
0.00108645
0.00123085
0.00139537
0.00154557
0.00161436
0.00161913
0.00150405
0.00119875
0.000702952
0.000276849
0.000560358
0.00135547
0.00143879
0.0012759
0.00100664
0.00081078
0.000724947
0.00069328
0.000685535
0.000688197
0.000698837
0.000702652
0.000699763
0.000687915
0.000671055
0.000652336
0.00063483
0.000619759
0.000608362
0.00060207
0.000599701
0.000600339
0.000607878
0.000620713
0.000640033
0.000666819
0.00070277
0.000750466
0.000813844
0.000898586
0.00101194
0.00116077
0.00134613
0.00155282
0.00169272
0.00172465
0.00164815
0.0013491
0.000830326
0.000349297
0.000560818
0.00135662
0.00142994
0.0012292
0.000939404
0.000770035
0.000700668
0.000676762
0.000671773
0.000675341
0.000679062
0.000677302
0.000666158
0.00064816
0.000627399
0.000606936
0.000588904
0.000574262
0.000563615
0.000558012
0.000556009
0.000557203
0.000564543
0.000576955
0.000595371
0.00062073
0.000654511
0.000698984
0.000757728
0.000836334
0.000942986
0.00108782
0.0012788
0.00151136
0.00173331
0.00182616
0.00179904
0.00151667
0.000950725
0.000416514
0.000554233
0.00134502
0.00140593
0.00117792
0.000884187
0.000739018
0.000680755
0.000661569
0.00065785
0.000658915
0.000658537
0.000650087
0.000633195
0.000611614
0.00058919
0.000568516
0.000551027
0.000537285
0.000527477
0.000522355
0.000520568
0.000521897
0.000528694
0.000540389
0.00055776
0.000581746
0.000613685
0.000655568
0.000710545
0.000783764
0.000883528
0.001022
0.00121297
0.00146187
0.00174469
0.00191171
0.00192789
0.00167333
0.00107693
0.000480385
0.000537849
0.00131555
0.0013638
0.00112393
0.000843959
0.000714309
0.00066351
0.000647143
0.000643372
0.000642292
0.000637318
0.000623788
0.000603293
0.000579955
0.000557202
0.000537076
0.000520476
0.000507613
0.000498432
0.00049345
0.000491667
0.000492725
0.000498707
0.000509438
0.000525637
0.000548266
0.000578591
0.000618392
0.000670391
0.000739086
0.000832174
0.000962323
0.00114741
0.00140364
0.00172385
0.00198501
0.0020506
0.00183344
0.00119949
0.000542277
0.000508808
0.00127128
0.00131325
0.00107454
0.000813091
0.000693987
0.00064822
0.000633554
0.000629176
0.000625998
0.000617142
0.000600122
0.000577602
0.000553647
0.000531232
0.000511907
0.000496171
0.000483987
0.000475163
0.000470015
0.000468039
0.000468578
0.000473574
0.000483177
0.00049811
0.000519376
0.000548236
0.000586344
0.000636092
0.000701361
0.000788981
0.000911092
0.00108723
0.00134074
0.00167866
0.00202329
0.00215511
0.00198704
0.00132793
0.000603677
0.000473896
0.00121992
0.00125874
0.00103167
0.000788716
0.000677032
0.000634581
0.000620929
0.00061608
0.000610875
0.000599124
0.000579914
0.000556423
0.000532482
0.000510658
0.000492116
0.000477082
0.000465361
0.000456687
0.000451153
0.000448787
0.000448736
0.000452671
0.000461053
0.000474656
0.000494542
0.000522008
0.000558661
0.000606664
0.000669358
0.000752664
0.000867774
0.00103485
0.00128307
0.00163205
0.0020393
0.00225082
0.00213658
0.00145404
0.000664298
0.000433074
0.00116784
0.00120458
0.000994874
0.000769525
0.00066293
0.000622551
0.000609542
0.00060431
0.000597473
0.000583794
0.000563375
0.000539575
0.00051595
0.000494742
0.000476853
0.000462335
0.000450902
0.000442258
0.000436267
0.000433276
0.000432695
0.000435562
0.000442696
0.000454935
0.000473418
0.000499517
0.000534858
0.00058147
0.000642254
0.000722216
0.000831191
0.000988662
0.00122799
0.0015849
0.00204082
0.00233312
0.00228104
0.00158918
0.000725539
0.000391185
0.00111457
0.00115215
0.000964177
0.000754937
0.000651475
0.000612084
0.000599436
0.000593933
0.000586
0.000571239
0.000550333
0.000526636
0.000503449
0.000482785
0.000465388
0.000451217
0.000439934
0.000431213
0.000424882
0.000421188
0.000420017
0.000421893
0.000427804
0.000438676
0.000455743
0.000480478
0.000514585
0.000560054
0.000619471
0.000697023
0.000801074
0.000949446
0.0011766
0.00152983
0.00201829
0.00240705
0.00241909
0.00172398
0.000786165
0.000345131
0.00106582
0.0011043
0.000938165
0.000744999
0.000642599
0.000603108
0.000590567
0.000584891
0.000576398
0.000561258
0.000540412
0.00051709
0.000494383
0.000474167
0.000457116
0.000443157
0.000431934
0.000423106
0.000416488
0.000412173
0.000410356
0.000411348
0.000416101
0.000425637
0.000441296
0.000464666
0.000497572
0.000542059
0.000600515
0.000676425
0.000776702
0.000917164
0.00113195
0.00147687
0.00198407
0.00247021
0.00255251
0.00186758
0.000847644
0.000308137
0.0010129
0.00106037
0.000917158
0.000738786
0.000636433
0.000595443
0.000582623
0.000576918
0.000568387
0.000553466
0.000533121
0.000510391
0.000488199
0.000468354
0.000451532
0.000437682
0.000426459
0.000417516
0.000410655
0.000405891
0.000403422
0.000403659
0.00040733
0.000415578
0.000429874
0.000451901
0.000483628
0.000527235
0.000585038
0.000659935
0.00075742
0.000890996
0.00109319
0.0014259
0.00194427
0.00251597
0.00268286
0.0020136
0.000908385
0.000276706
0.000958689
0.00101861
0.000901536
0.000737034
0.000633618
0.000589769
0.000575747
0.000569838
0.000561612
0.000547384
0.000527919
0.000505996
0.000484377
0.000464859
0.000448187
0.00043438
0.00042313
0.000414088
0.000407033
0.000401941
0.000399004
0.000398646
0.000401303
0.000408326
0.000421348
0.000442072
0.000472627
0.000515426
0.000572815
0.000647223
0.000742809
0.00087062
0.00106067
0.00137875
0.00190167
0.00254552
0.00280964
0.00216783
0.000969639
0.000248744
0.000905061
0.000979935
0.000889739
0.000738376
0.000634489
0.000585621
0.000569519
0.000563272
0.000555629
0.000542488
0.000524245
0.000503341
0.000482406
0.000463269
0.00044678
0.00043301
0.000421718
0.000412585
0.00040538
0.000400057
0.000396813
0.00039613
0.000398139
0.000404102
0.000415901
0.000435239
0.000464591
0.000506584
0.00056371
0.000638058
0.000732516
0.000855549
0.00103388
0.00133516
0.00185794
0.00255956
0.00293283
0.00232651
0.00102981
0.000223164
0.000853006
0.000944579
0.000880398
0.00074236
0.000637759
0.000584965
0.000564887
0.000557376
0.000550151
0.000538283
0.000521526
0.000501911
0.000481921
0.000463369
0.000447041
0.000433288
0.000421959
0.000412762
0.000405464
0.000399988
0.000396523
0.000395615
0.000397245
0.000402551
0.000413517
0.00043187
0.000460165
0.000501367
0.000558307
0.000633024
0.000727141
0.00084585
0.00101275
0.00129517
0.00181266
0.00256416
0.00305112
0.00249223
0.00108967
0.000199086
0.000801886
0.000912355
0.00087044
0.00075077
0.000644885
0.000586468
0.000561176
0.000551903
0.000544887
0.000534337
0.000519266
0.000501177
0.000482233
0.000464153
0.000448117
0.000434476
0.000423184
0.000414015
0.00040676
0.000401348
0.000397929
0.000396989
0.000398365
0.000403062
0.000413231
0.000430926
0.000458582
0.000499332
0.000556122
0.000631144
0.000725219
0.000841274
0.000997063
0.00125877
0.00176302
0.00255988
0.00316382
0.00266326
0.00114774
0.000176304
0.00075248
0.000882118
0.000859091
0.000762834
0.000657005
0.000591034
0.000561279
0.000547642
0.000539958
0.000530414
0.000517029
0.000500628
0.000482973
0.0004658
0.000450262
0.000436872
0.000425722
0.000416681
0.000409577
0.000404326
0.00040105
0.000400307
0.000401658
0.000406118
0.000415795
0.000432735
0.000459432
0.000499364
0.00055597
0.00063132
0.000725694
0.000840015
0.00098636
0.00122695
0.00171029
0.00253901
0.00326905
0.00283951
0.00120432
0.000154168
0.000701991
0.00085392
0.000845841
0.000775991
0.000672652
0.000600554
0.000563509
0.00054601
0.00053573
0.000526512
0.000514645
0.000499983
0.000483842
0.000467793
0.00045299
0.000440073
0.000429259
0.000420515
0.000413717
0.00040879
0.000405854
0.000405547
0.00040706
0.000411633
0.000421326
0.000437981
0.000464186
0.000503606
0.000559993
0.000635728
0.000730499
0.000842782
0.000981083
0.00120004
0.00165631
0.00250778
0.0033649
0.00301901
0.00125822
0.000133041
0.000652551
0.000825142
0.000830752
0.000787391
0.000692896
0.000615819
0.000569783
0.000547392
0.00053439
0.000523488
0.00051201
0.000498807
0.000484344
0.000469679
0.000455905
0.000443738
0.000433507
0.000425279
0.000418997
0.000414604
0.000412317
0.000412548
0.000414486
0.000419538
0.00042971
0.000446448
0.000472493
0.000511569
0.000567648
0.000643363
0.000738187
0.000848867
0.000979229
0.00117656
0.00160157
0.00246441
0.00344821
0.00319888
0.00130952
0.000112418
0.000598659
0.000796164
0.00081674
0.000789971
0.000715354
0.000637017
0.000582931
0.000552663
0.000536004
0.000523769
0.000511774
0.000498963
0.000485287
0.000471687
0.000458966
0.00044772
0.000438291
0.000430804
0.000425261
0.00042161
0.000420356
0.000421099
0.000423774
0.000429782
0.000440676
0.000457884
0.000484115
0.000523029
0.000578658
0.000653834
0.000748053
0.0008568
0.00097911
0.00115536
0.00154676
0.00240666
0.00352135
0.00337491
0.00135745
9.45414e-05
0.000549608
0.000764501
0.000801108
0.000787962
0.000736585
0.000662442
0.000603893
0.000564765
0.000542045
0.00052676
0.000513538
0.000500463
0.000487273
0.000474376
0.000462529
0.000452188
0.000443645
0.000437039
0.000432384
0.000429675
0.000429687
0.000431028
0.000434664
0.000442009
0.000453865
0.000471869
0.000498587
0.000537479
0.000592433
0.000666351
0.000758925
0.000865051
0.000979581
0.00113523
0.00149012
0.00233289
0.00357849
0.0035406
0.00140229
7.97302e-05
0.000498248
0.000736475
0.000785527
0.000782313
0.000753734
0.000691398
0.000632503
0.000587803
0.000556328
0.000535787
0.00051974
0.000505326
0.000491788
0.000479022
0.000467607
0.000457879
0.000450052
0.000444271
0.000440423
0.000439045
0.000439733
0.000442063
0.000447097
0.000455707
0.000468721
0.000487745
0.000515125
0.000553998
0.000607894
0.000679629
0.000769162
0.000870794
0.0009788
0.00111553
0.00143318
0.00224691
0.00361516
0.00368935
0.00144407
6.75686e-05
0.000444384
0.000712267
0.000769741
0.000773798
0.000760966
0.000721537
0.000667964
0.000621659
0.000584956
0.000556302
0.000534868
0.000517265
0.000501893
0.000488264
0.000476379
0.000466561
0.000458902
0.000453568
0.000450159
0.000449955
0.000451163
0.000454347
0.000460719
0.000470521
0.000484692
0.000504728
0.000532683
0.000571271
0.000623479
0.000691915
0.000776668
0.000872869
0.000974359
0.00109511
0.00138005
0.00215891
0.00363119
0.00380798
0.00148375
5.71956e-05
0.000387434
0.000684841
0.000754887
0.000767809
0.000764312
0.000747154
0.000708919
0.000666326
0.000628004
0.00059488
0.000566692
0.000543055
0.000523439
0.000507053
0.00049325
0.000482082
0.000473516
0.000467718
0.000464025
0.000464054
0.00046548
0.000469115
0.000476146
0.000486751
0.000501708
0.00052235
0.000550372
0.000588019
0.000637639
0.000701604
0.000780301
0.000870615
0.000966915
0.00108129
0.0013506
0.00209877
0.00363488
0.00386618
0.0015232
5.06052e-05
0.000337619
0.000638971
0.000733816
0.000761334
0.000770306
0.00076724
0.000753119
0.00072322
0.000688303
0.000654073
0.000621937
0.000592895
0.000567232
0.000545319
0.000527137
0.000512469
0.000501057
0.00049297
0.00048753
0.000485752
0.00048664
0.000489625
0.000496004
0.000506406
0.000521247
0.000541614
0.000568798
0.000604594
0.000650795
0.000709561
0.000781981
0.000867767
0.000963623
0.00107711
0.00134127
0.00207554
0.00363314
0.00388488
0.00156506
5.07167e-05
0.000312493
0.000579621
0.000699482
0.000749814
0.000781317
0.000796953
0.000796619
0.000787802
0.000766534
0.000736346
0.000704055
0.000671969
0.000641583
0.00061396
0.000589726
0.000569167
0.000552315
0.000539166
0.000529582
0.000523304
0.00052146
0.000522786
0.000526948
0.000535664
0.000549394
0.000568659
0.000594467
0.000628239
0.000671664
0.000726711
0.000796265
0.000881069
0.000987442
0.0011207
0.00140605
0.0021181
0.00364771
0.00385417
0.00158452
6.43674e-05
0.000313605
0.000517668
0.000658739
0.000751848
0.000808871
0.000846866
0.00086848
0.00087378
0.000867774
0.000850879
0.000822076
0.000788858
0.000754173
0.000720292
0.000688767
0.000660625
0.000636455
0.000616582
0.000601207
0.000590534
0.000584527
0.000584813
0.000587679
0.000594805
0.00060846
0.00062797
0.000655098
0.00069073
0.000737822
0.000797736
0.000878185
0.000979845
0.00112462
0.00131401
0.00165978
0.00236816
0.00373065
0.00376281
0.00159087
8.88703e-05
0.000350429
0.000523069
0.000673817
0.000791624
0.000884601
0.000951557
0.000993455
0.00101153
0.00100975
0.000999154
0.00097508
0.00094175
0.000905737
0.000869946
0.000836155
0.000806064
0.00078039
0.000760245
0.000745897
0.000735342
0.000733315
0.000736099
0.000743959
0.000759761
0.000784191
0.000816764
0.000860864
0.00091551
0.000989279
0.00108091
0.00120715
0.0013626
0.00158793
0.00186795
0.00231066
0.00294711
0.00389453
0.0036796
0.00156716
0.000140503
0.000471634
0.000637396
0.000819717
0.000973519
0.00110284
0.00119752
0.00125881
0.00129166
0.00129592
0.00129043
0.00127574
0.0012515
0.00122437
0.00119846
0.00117554
0.00115845
0.00114734
0.00114764
0.00115288
0.00116545
0.00119092
0.00122518
0.00127239
0.00132915
0.00140276
0.00148813
0.00159448
0.00171801
0.00186701
0.00203849
0.0022516
0.00250804
0.00283544
0.00321489
0.00369268
0.00410744
0.00427711
0.00360676
0.00148689
0.000257972
0.000807824
0.00116974
0.00152266
0.0017503
0.00191514
0.00202863
0.00210344
0.00215118
0.00217408
0.00218506
0.00219481
0.00220413
0.00221748
0.00223576
0.00226385
0.00230052
0.00235026
0.00241037
0.00248762
0.00257333
0.00267907
0.00279268
0.00292943
0.00307317
0.00324255
0.00341923
0.00362179
0.00383676
0.00406935
0.00433568
0.00458577
0.00491718
0.00513925
0.00548782
0.00547672
0.00525663
0.00456959
0.00319428
0.00132016
0.000174062
0.000283645
0.00038407
0.000498429
0.000601125
0.000691804
0.000769161
0.000832248
0.000882933
0.000920665
0.000946701
0.000964136
0.000974719
0.000980403
0.000982058
0.000981618
0.000980464
0.000978591
0.000977326
0.000977672
0.000979063
0.000982162
0.000988954
0.00099576
0.00100982
0.0010209
0.00104351
0.00105928
0.00109159
0.0011117
0.00115373
0.00117711
0.00122515
0.00125735
0.00132644
0.00136784
0.00143295
0.001431
0.00137886
0.00114974
)
;

boundaryField
{
    movingWall
    {
        type            kqRWallFunction;
        value           nonuniform List<scalar> 
40
(
0.000174062
0.000283645
0.00038407
0.000498429
0.000601125
0.000691804
0.000769161
0.000832248
0.000882933
0.000920665
0.000946701
0.000964136
0.000974719
0.000980403
0.000982058
0.000981618
0.000980464
0.000978591
0.000977326
0.000977672
0.000979063
0.000982162
0.000988954
0.00099576
0.00100982
0.0010209
0.00104351
0.00105928
0.00109159
0.0011117
0.00115373
0.00117711
0.00122515
0.00125735
0.00132644
0.00136784
0.00143295
0.001431
0.00137886
0.00114974
)
;
    }
    fixedWalls
    {
        type            kqRWallFunction;
        value           nonuniform List<scalar> 
120
(
1.44225e-06
6.93333e-06
2.02766e-05
4.6898e-05
9.0831e-05
0.000156127
0.000242272
0.000336293
0.000421771
0.0004883
0.000532447
0.000560358
0.000560818
0.000554233
0.000537849
0.000508808
0.000473896
0.000433074
0.000391185
0.000345131
0.000308137
0.000276706
0.000248744
0.000223164
0.000199086
0.000176304
0.000154168
0.000133041
0.000112418
9.45414e-05
7.97302e-05
6.75686e-05
5.71956e-05
5.06052e-05
5.07167e-05
6.43674e-05
8.88703e-05
0.000140503
0.000257972
0.000174062
2.12345e-06
4.18122e-06
3.59243e-06
2.74363e-06
3.45857e-06
6.88144e-06
1.58047e-05
3.86909e-05
0.000104112
0.000190688
0.000276849
0.000349297
0.000416514
0.000480385
0.000542277
0.000603677
0.000664298
0.000725539
0.000786165
0.000847644
0.000908385
0.000969639
0.00102981
0.00108967
0.00114774
0.00120432
0.00125822
0.00130952
0.00135745
0.00140229
0.00144407
0.00148375
0.0015232
0.00156506
0.00158452
0.00159087
0.00156716
0.00148689
0.00132016
0.00114974
1.44225e-06
5.65669e-06
1.16535e-05
1.31797e-05
1.2856e-05
1.36412e-05
1.70938e-05
2.55473e-05
3.48146e-05
4.35243e-05
6.32512e-05
8.99632e-05
0.000106666
0.000119858
0.000139385
0.000163367
0.000189203
0.000215041
0.000243475
0.000272244
0.000304855
0.000339269
0.000379104
0.00042359
0.000477264
0.00052837
0.000578514
0.000622391
0.000659489
0.000678882
0.000686319
0.000666893
0.000606462
0.000502396
0.000358197
0.000197715
8.98596e-05
3.52584e-05
1.0647e-05
2.12345e-06
)
;
    }
    frontAndBack
    {
        type            empty;
    }
}


// ************************************************************************* //
