/*--------------------------------*- C++ -*----------------------------------*\
  =========                 |
  \\      /  F ield         | OpenFOAM: The Open Source CFD Toolbox
   \\    /   O peration     | Website:  https://openfoam.org
    \\  /    A nd           | Version:  13
     \\/     M anipulation  |
\*---------------------------------------------------------------------------*/
FoamFile
{
    format      ascii;
    class       volScalarField;
    location    "4.5";
    object      k;
}
// * * * * * * * * * * * * * * * * * * * * * * * * * * * * * * * * * * * * * //

dimensions      [0 2 -2 0 0 0 0];

internalField   nonuniform List<scalar> 
400
(
2.26041e-06
6.27394e-06
2.69379e-05
8.74099e-05
0.000156056
0.000204031
0.000244356
0.0002784
0.000311547
0.000341402
0.00037229
0.00040188
0.000433841
0.000458825
0.000471086
0.000474121
0.000445818
0.000350372
0.000211249
0.000150366
1.1618e-05
4.86433e-05
0.000114459
0.000229302
0.000324603
0.000390777
0.000456722
0.000509328
0.000570258
0.000624336
0.000684021
0.000740859
0.000797553
0.000850216
0.000900078
0.000925921
0.000934096
0.000843903
0.000560648
0.00034567
4.74661e-05
0.00017718
0.000317914
0.000416235
0.000490494
0.000550464
0.000606195
0.000655272
0.00070732
0.000755948
0.000803707
0.000848222
0.000891613
0.000938272
0.000986785
0.00101801
0.00102854
0.000985469
0.000722853
0.000480996
0.000118438
0.000359509
0.000457678
0.000519045
0.000575113
0.000624445
0.000666311
0.000705874
0.000746174
0.000783749
0.000820569
0.000856664
0.000895603
0.000944444
0.00100494
0.0010671
0.00109277
0.00109228
0.000870055
0.000569298
0.000187369
0.000471973
0.000536607
0.000567946
0.00060777
0.000639025
0.000668835
0.00070004
0.0007281
0.000750164
0.000770014
0.000794927
0.000834493
0.000893286
0.000979097
0.00108901
0.00116969
0.00118655
0.0010063
0.00063802
0.000237331
0.00053789
0.000571271
0.000582719
0.000608475
0.00063408
0.000655763
0.000668938
0.000673794
0.000675757
0.000682924
0.000701248
0.000738661
0.000805753
0.000916177
0.00107651
0.00123592
0.00129224
0.00115031
0.000693577
0.000257722
0.000546467
0.000571578
0.000580785
0.000602746
0.000617807
0.000622402
0.000617987
0.000608029
0.000599991
0.00059764
0.000606993
0.000638326
0.000704384
0.000824673
0.00101651
0.00126377
0.00139201
0.00129228
0.000738888
0.00025552
0.000539311
0.000565312
0.000573659
0.000587839
0.000591913
0.000587093
0.000572718
0.000554076
0.000537692
0.000530208
0.000531562
0.000554954
0.000614295
0.00073512
0.000950179
0.00126545
0.00148292
0.00144418
0.000775845
0.000247033
0.00052067
0.000550115
0.000558948
0.000568083
0.000568419
0.000557938
0.00053856
0.000515748
0.000494871
0.000482001
0.000478634
0.000493326
0.000541704
0.000651381
0.000867594
0.00122366
0.00155529
0.00158221
0.000803496
0.000228237
0.000498302
0.000530353
0.00054159
0.00054942
0.000548121
0.000535575
0.000514887
0.000491072
0.000468765
0.000452131
0.000445061
0.000453494
0.000491504
0.000587763
0.000793911
0.0011661
0.00160307
0.00171915
0.000824717
0.00020574
0.000466346
0.000506673
0.000522007
0.000531169
0.000530119
0.000518586
0.000498835
0.000476159
0.000454426
0.000437106
0.000428527
0.000434709
0.000465974
0.000548218
0.000738109
0.00111148
0.00162377
0.0018427
0.000836603
0.000186887
0.000436463
0.000487601
0.000504986
0.000514569
0.000513818
0.000504993
0.000487479
0.000467158
0.0004473
0.000431077
0.000423475
0.000429267
0.000457174
0.000530387
0.00070145
0.00106265
0.00162983
0.00195337
0.000842109
0.0001652
0.000395954
0.000462321
0.000485805
0.000498056
0.000498652
0.000492695
0.000478701
0.000461162
0.000443923
0.000429815
0.000424475
0.000430832
0.000457237
0.000525888
0.000684912
0.00101998
0.00162897
0.00202029
0.000843498
0.000146794
0.000369053
0.000446961
0.000474704
0.000486865
0.000486658
0.000482043
0.000471038
0.000456564
0.000442311
0.000430756
0.00042937
0.000437985
0.000466809
0.000533728
0.000681615
0.000991463
0.0016106
0.00204626
0.000840838
0.00012265
0.000322105
0.000418673
0.000460109
0.000479781
0.000483033
0.000479545
0.000470459
0.000457263
0.000444105
0.00043463
0.000436328
0.000448536
0.00048219
0.000552348
0.000697535
0.000982298
0.00158746
0.0020223
0.000837035
0.00010205
0.000293178
0.000403422
0.000455129
0.000484117
0.000490127
0.000486801
0.000477809
0.00046453
0.00045167
0.000444819
0.000448709
0.000465207
0.000506507
0.000584042
0.000741538
0.000996682
0.00157618
0.00191353
0.000819539
7.12823e-05
0.00022701
0.000366638
0.000456097
0.000499995
0.000513919
0.00051165
0.000503703
0.000490403
0.0004783
0.000476937
0.000484936
0.000509869
0.0005679
0.00066262
0.000858153
0.00109576
0.00159327
0.00175083
0.000792144
5.66821e-05
0.000230021
0.000390635
0.000498353
0.000562513
0.00058962
0.000591771
0.000589121
0.000583586
0.000585543
0.000598054
0.000628102
0.00068768
0.000792467
0.000931108
0.00121262
0.0014483
0.00172963
0.00158908
0.000746523
7.93382e-05
0.000279123
0.000494977
0.000630474
0.000722459
0.00078587
0.000830695
0.000874519
0.000928034
0.000993422
0.00108747
0.0012027
0.00136451
0.00156822
0.00181112
0.00211986
0.00211907
0.00194665
0.00151334
0.000675596
5.83785e-05
9.51073e-05
0.000176803
0.00025699
0.000322137
0.000370227
0.000406172
0.000430699
0.000452042
0.000468493
0.00048568
0.000503918
0.000523397
0.000550546
0.000576389
0.000612885
0.000643541
0.000669648
0.000660515
0.000589852
)
;

boundaryField
{
    movingWall
    {
        type            kqRWallFunction;
        value           nonuniform List<scalar> 
20
(
5.83785e-05
9.51073e-05
0.000176803
0.00025699
0.000322137
0.000370227
0.000406172
0.000430699
0.000452042
0.000468493
0.00048568
0.000503918
0.000523397
0.000550546
0.000576389
0.000612885
0.000643541
0.000669648
0.000660515
0.000589852
)
;
    }
    fixedWalls
    {
        type            kqRWallFunction;
        value           nonuniform List<scalar> 
60
(
2.26041e-06
1.1618e-05
4.74661e-05
0.000118438
0.000187369
0.000237331
0.000257722
0.00025552
0.000247033
0.000228237
0.00020574
0.000186887
0.0001652
0.000146794
0.00012265
0.00010205
7.12823e-05
5.66821e-05
7.93382e-05
5.83785e-05
0.000150366
0.00034567
0.000480996
0.000569298
0.00063802
0.000693577
0.000738888
0.000775845
0.000803496
0.000824717
0.000836603
0.000842109
0.000843498
0.000840838
0.000837035
0.000819539
0.000792144
0.000746523
0.000675596
0.000589852
2.26041e-06
6.27394e-06
2.69379e-05
8.74099e-05
0.000156056
0.000204031
0.000244356
0.0002784
0.000311547
0.000341402
0.00037229
0.00040188
0.000433841
0.000458825
0.000471086
0.000474121
0.000445818
0.000350372
0.000211249
0.000150366
)
;
    }
    frontAndBack
    {
        type            empty;
    }
}


// ************************************************************************* //
