/*--------------------------------*- C++ -*----------------------------------*\
  =========                 |
  \\      /  F ield         | OpenFOAM: The Open Source CFD Toolbox
   \\    /   O peration     | Website:  https://openfoam.org
    \\  /    A nd           | Version:  13
     \\/     M anipulation  |
\*---------------------------------------------------------------------------*/
FoamFile
{
    format      ascii;
    class       volScalarField;
    location    "4.5";
    object      nut;
}
// * * * * * * * * * * * * * * * * * * * * * * * * * * * * * * * * * * * * * //

dimensions      [0 2 -1 0 0 0 0];

internalField   nonuniform List<scalar> 
400
(
6.37213e-08
1.76771e-07
7.58925e-07
2.45987e-06
4.38844e-06
5.73811e-06
6.87188e-06
7.83005e-06
8.76238e-06
9.60272e-06
1.04718e-05
1.13047e-05
1.2204e-05
1.29076e-05
1.32528e-05
1.33384e-05
1.25427e-05
9.85761e-06
5.94293e-06
4.2303e-06
3.27506e-07
2.24327e-06
4.15815e-06
8.08798e-06
1.32565e-05
1.78141e-05
2.33005e-05
2.78314e-05
3.29731e-05
3.69563e-05
4.0603e-05
4.31377e-05
4.46931e-05
4.51539e-05
4.48816e-05
4.24282e-05
4.0858e-05
3.29794e-05
1.78368e-05
9.72337e-06
1.33732e-06
7.81538e-06
1.46251e-05
2.19643e-05
2.93045e-05
3.60943e-05
4.2884e-05
4.83105e-05
5.24538e-05
5.54992e-05
5.73832e-05
5.83496e-05
5.85457e-05
5.82679e-05
5.72869e-05
5.37901e-05
4.94854e-05
4.36319e-05
2.47298e-05
1.35275e-05
3.33609e-06
1.8269e-05
2.65518e-05
3.41645e-05
4.17222e-05
4.94251e-05
5.55348e-05
5.95395e-05
6.27853e-05
6.5114e-05
6.69196e-05
6.77933e-05
6.75403e-05
6.69278e-05
6.56355e-05
6.25945e-05
5.58461e-05
5.2143e-05
3.3051e-05
1.60092e-05
5.27399e-06
2.66405e-05
3.55316e-05
4.24069e-05
5.07126e-05
5.7089e-05
6.26238e-05
6.69987e-05
7.06795e-05
7.27266e-05
7.33356e-05
7.30369e-05
7.26298e-05
7.18787e-05
7.09815e-05
6.93771e-05
6.27927e-05
5.68587e-05
4.0094e-05
1.79405e-05
6.67954e-06
3.25668e-05
4.13203e-05
4.84521e-05
5.65194e-05
6.36718e-05
6.97517e-05
7.36938e-05
7.585e-05
7.66859e-05
7.70493e-05
7.65847e-05
7.55928e-05
7.45142e-05
7.39955e-05
7.40073e-05
6.97339e-05
6.16463e-05
4.66528e-05
1.95018e-05
7.25155e-06
3.42668e-05
4.41758e-05
5.29392e-05
6.18714e-05
6.88511e-05
7.38308e-05
7.71035e-05
7.93343e-05
8.04331e-05
8.08564e-05
8.03135e-05
7.84355e-05
7.61874e-05
7.47547e-05
7.47334e-05
7.41826e-05
6.55724e-05
5.22104e-05
2.0775e-05
7.18941e-06
3.51963e-05
4.71139e-05
5.66778e-05
6.52841e-05
7.15226e-05
7.65616e-05
8.01318e-05
8.29144e-05
8.46139e-05
8.53358e-05
8.51183e-05
8.26645e-05
7.90913e-05
7.63322e-05
7.64214e-05
7.84055e-05
6.9249e-05
5.73263e-05
2.18135e-05
6.95044e-06
3.56928e-05
4.87119e-05
5.86343e-05
6.68925e-05
7.34151e-05
7.86192e-05
8.26545e-05
8.59815e-05
8.84525e-05
8.94742e-05
8.95625e-05
8.71891e-05
8.26076e-05
7.77225e-05
7.61064e-05
7.88212e-05
7.31305e-05
6.12337e-05
2.25904e-05
6.42176e-06
3.54707e-05
4.90782e-05
5.93346e-05
6.76536e-05
7.4397e-05
7.98117e-05
8.41976e-05
8.7789e-05
9.04087e-05
9.13587e-05
9.10395e-05
8.88613e-05
8.5011e-05
7.98995e-05
7.6188e-05
7.74917e-05
7.62915e-05
6.46806e-05
2.31869e-05
5.78876e-06
3.37233e-05
4.82244e-05
5.88809e-05
6.74989e-05
7.43791e-05
8.00294e-05
8.44328e-05
8.79047e-05
9.01831e-05
9.09752e-05
9.03203e-05
8.88482e-05
8.62338e-05
8.17304e-05
7.7306e-05
7.70677e-05
7.78509e-05
6.74409e-05
2.3521e-05
5.25878e-06
3.11518e-05
4.71023e-05
5.78621e-05
6.6439e-05
7.31953e-05
7.91334e-05
8.33805e-05
8.6424e-05
8.82182e-05
8.89361e-05
8.8729e-05
8.81024e-05
8.64393e-05
8.28372e-05
7.81613e-05
7.72161e-05
7.86891e-05
6.98106e-05
2.36759e-05
4.64892e-06
2.73639e-05
4.38887e-05
5.55897e-05
6.45892e-05
7.12717e-05
7.70731e-05
8.10376e-05
8.37848e-05
8.5587e-05
8.63194e-05
8.62094e-05
8.61005e-05
8.56651e-05
8.32939e-05
7.87496e-05
7.6501e-05
7.95979e-05
7.1081e-05
2.3715e-05
4.13144e-06
2.44622e-05
4.09444e-05
5.29049e-05
6.15498e-05
6.7679e-05
7.33447e-05
7.75825e-05
8.04363e-05
8.21286e-05
8.30168e-05
8.33437e-05
8.36802e-05
8.40597e-05
8.29338e-05
7.89674e-05
7.49832e-05
7.87666e-05
7.15281e-05
2.36408e-05
3.45315e-06
1.98002e-05
3.5846e-05
4.87397e-05
5.83563e-05
6.49645e-05
7.04794e-05
7.46919e-05
7.72277e-05
7.85854e-05
7.96201e-05
7.9992e-05
8.07181e-05
8.1478e-05
8.08082e-05
7.80385e-05
7.40483e-05
7.68771e-05
6.99176e-05
2.35343e-05
2.8742e-06
1.71994e-05
3.30549e-05
4.49737e-05
5.54768e-05
6.21152e-05
6.7249e-05
7.11037e-05
7.32321e-05
7.44372e-05
7.53588e-05
7.5699e-05
7.62667e-05
7.68648e-05
7.56844e-05
7.47371e-05
7.02792e-05
7.44264e-05
6.67642e-05
2.30413e-05
2.00964e-06
1.23074e-05
2.75366e-05
4.19794e-05
5.19689e-05
5.8714e-05
6.32635e-05
6.68287e-05
6.83512e-05
6.90338e-05
6.89847e-05
6.88071e-05
6.85087e-05
6.87261e-05
6.70356e-05
6.86315e-05
6.62318e-05
6.93626e-05
6.17056e-05
2.22693e-05
1.59444e-06
1.3386e-05
2.78579e-05
4.01104e-05
4.95307e-05
5.54719e-05
5.85439e-05
6.10054e-05
6.12971e-05
6.09115e-05
6.01439e-05
5.91292e-05
5.89073e-05
6.00025e-05
6.10658e-05
6.55672e-05
6.73135e-05
6.53844e-05
5.37816e-05
2.09846e-05
2.23153e-06
1.72026e-05
2.95523e-05
3.79996e-05
4.45409e-05
4.95032e-05
5.25364e-05
5.48927e-05
5.64688e-05
5.77346e-05
5.95065e-05
6.12598e-05
6.44286e-05
6.74649e-05
7.17898e-05
7.62113e-05
7.1717e-05
6.48803e-05
4.78603e-05
1.89873e-05
1.6422e-06
2.67504e-06
4.97175e-06
7.22563e-06
9.05607e-06
1.04073e-05
1.14159e-05
1.21054e-05
1.27035e-05
1.31673e-05
1.36484e-05
1.41628e-05
1.47076e-05
1.54722e-05
1.61956e-05
1.72218e-05
1.80831e-05
1.88173e-05
1.85609e-05
1.65746e-05
)
;

boundaryField
{
    movingWall
    {
        type            nutkWallFunction;
        Cmu             0.09;
        kappa           0.41;
        E               9.8;
        value           uniform 0;
    }
    fixedWalls
    {
        type            nutkWallFunction;
        Cmu             0.09;
        kappa           0.41;
        E               9.8;
        value           uniform 0;
    }
    frontAndBack
    {
        type            empty;
    }
}


// ************************************************************************* //
