/*--------------------------------*- C++ -*----------------------------------*\
  =========                 |
  \\      /  F ield         | OpenFOAM: The Open Source CFD Toolbox
   \\    /   O peration     | Website:  https://openfoam.org
    \\  /    A nd           | Version:  13
     \\/     M anipulation  |
\*---------------------------------------------------------------------------*/
FoamFile
{
    format      ascii;
    class       volScalarField;
    location    "4.5";
    object      p;
}
// * * * * * * * * * * * * * * * * * * * * * * * * * * * * * * * * * * * * * //

dimensions      [0 2 -2 0 0 0 0];

internalField   nonuniform List<scalar> 
400
(
4.70013e-08
-5.60927e-05
-0.00014567
-0.000177941
-0.000412807
-0.00106121
-0.00201351
-0.00302447
-0.00390103
-0.00451064
-0.00477559
-0.00461712
-0.00399901
-0.00290437
-0.00132717
0.000649904
0.00279997
0.00467779
0.00580578
0.00599501
3.15845e-05
-1.54975e-05
-9.11124e-05
-0.000330214
-0.000818867
-0.00160515
-0.0025757
-0.00355178
-0.00438863
-0.00498701
-0.0052688
-0.00517626
-0.00467613
-0.00371159
-0.0022752
-0.000409008
0.00169949
0.00368327
0.0050605
0.00558329
0.000186043
3.03004e-05
-0.000259861
-0.000763857
-0.00152928
-0.00248064
-0.00349135
-0.00444353
-0.00525478
-0.00583528
-0.00610762
-0.00603713
-0.00560844
-0.00479639
-0.00358105
-0.00197534
-6.89999e-05
0.00190723
0.00355251
0.00435918
0.000175507
-0.000112928
-0.000660568
-0.00146811
-0.00247253
-0.00355155
-0.00460104
-0.0055334
-0.00627863
-0.00678153
-0.00701874
-0.00697247
-0.00662455
-0.00596084
-0.00496603
-0.00363559
-0.00200333
-0.000189517
0.0015103
0.00239296
-0.000169983
-0.000582568
-0.00133772
-0.00235922
-0.00349783
-0.00462758
-0.0056625
-0.00653672
-0.0072077
-0.00764969
-0.00785562
-0.00782197
-0.00754122
-0.00701081
-0.00621922
-0.0051548
-0.00382096
-0.00226349
-0.000670918
0.000162794
-0.000866206
-0.00135703
-0.00222325
-0.00332038
-0.004488
-0.00560142
-0.00658528
-0.00739126
-0.00799533
-0.00838629
-0.00856439
-0.00853455
-0.00830377
-0.00787716
-0.00725102
-0.00641308
-0.00535254
-0.00408436
-0.00276752
-0.00197335
-0.00177349
-0.00228893
-0.00316502
-0.00423976
-0.00536933
-0.00642715
-0.00734528
-0.00808531
-0.00863173
-0.00898017
-0.0091353
-0.00910705
-0.00890957
-0.00855624
-0.00805224
-0.00738977
-0.00655495
-0.00554816
-0.00452917
-0.00381845
-0.00268383
-0.00318583
-0.00401504
-0.00502742
-0.00609171
-0.00708166
-0.00793521
-0.00861872
-0.00911971
-0.00943636
-0.00957474
-0.00954678
-0.00936992
-0.00906382
-0.0086425
-0.00810543
-0.00744192
-0.00664956
-0.00588999
-0.00525844
-0.00344388
-0.00391643
-0.00467775
-0.0056234
-0.00662119
-0.00754929
-0.00835052
-0.00899259
-0.00946281
-0.00975904
-0.00988664
-0.00985751
-0.00969043
-0.00940947
-0.00903703
-0.00858149
-0.00804016
-0.00740128
-0.00683268
-0.00627619
-0.00397979
-0.00439835
-0.00509896
-0.00599396
-0.00693643
-0.00781885
-0.00858611
-0.00920447
-0.00965904
-0.00994564
-0.0100678
-0.0100361
-0.00986961
-0.00959532
-0.00924272
-0.00883017
-0.00837519
-0.00782377
-0.0073986
-0.00686964
-0.00425663
-0.00461985
-0.00526928
-0.00612422
-0.00702636
-0.00788281
-0.00863562
-0.00924806
-0.0097015
-0.00998859
-0.0101102
-0.0100753
-0.00990242
-0.00962049
-0.00926485
-0.0088596
-0.0084669
-0.00792477
-0.00762922
-0.00705169
-0.00426599
-0.00459042
-0.00519796
-0.00601106
-0.00689051
-0.00773793
-0.00849354
-0.00911637
-0.0095824
-0.00987979
-0.0100061
-0.009968
-0.00978366
-0.00948319
-0.00910616
-0.00869152
-0.00831268
-0.00771358
-0.00758978
-0.00681815
-0.00405328
-0.00434999
-0.00491554
-0.00567675
-0.00653864
-0.00738748
-0.00815953
-0.00880705
-0.00929862
-0.00961634
-0.00975345
-0.00971392
-0.00951488
-0.00918794
-0.00877732
-0.00832968
-0.00791496
-0.00724688
-0.00730526
-0.00617518
-0.00369717
-0.00395012
-0.00445508
-0.00515388
-0.00598552
-0.00683993
-0.00763975
-0.00832553
-0.0088558
-0.00920486
-0.00936075
-0.00932432
-0.00911047
-0.00875232
-0.008298
-0.00779521
-0.00731803
-0.00659545
-0.00672258
-0.00515415
-0.00331163
-0.00348408
-0.00387689
-0.00448303
-0.00526583
-0.00612292
-0.00695792
-0.00769373
-0.00827568
-0.00866839
-0.0088536
-0.00882858
-0.0086054
-0.00821524
-0.00770928
-0.00713115
-0.0065642
-0.00574811
-0.0058148
-0.00379791
-0.0029912
-0.00300764
-0.00322086
-0.00369555
-0.00441609
-0.00527472
-0.00615205
-0.00694972
-0.00759757
-0.00804875
-0.00827754
-0.00827574
-0.00805844
-0.00764225
-0.00707866
-0.00639755
-0.00568812
-0.00468864
-0.00453563
-0.00191365
-0.00280697
-0.00259048
-0.00255133
-0.0028627
-0.00351093
-0.00437061
-0.00529505
-0.00616388
-0.00689032
-0.00741561
-0.00770629
-0.00774785
-0.00754864
-0.00711279
-0.00647985
-0.00564741
-0.00469284
-0.00333151
-0.00260748
0.00137139
-0.00273287
-0.0021657
-0.00188267
-0.00203799
-0.00262088
-0.00348849
-0.00446713
-0.0054149
-0.00622965
-0.00684183
-0.00720781
-0.00730209
-0.00712302
-0.00666402
-0.00595091
-0.00491152
-0.00357908
-0.00150389
0.000634956
0.00794977
-0.0027578
-0.00182183
-0.00134998
-0.00138821
-0.00192339
-0.00280433
-0.00383826
-0.00486495
-0.00576562
-0.00646182
-0.00690446
-0.00706645
-0.00693129
-0.00647853
-0.00565978
-0.00436878
-0.00248832
0.000982478
0.00625406
0.0189704
-0.00338308
-0.000600648
-6.30714e-06
-0.000226522
-0.000847029
-0.0017843
-0.00290187
-0.00403232
-0.00503519
-0.00581683
-0.00632154
-0.00651454
-0.00637095
-0.00585983
-0.00493248
-0.00342753
-0.000647779
0.00506763
0.0155754
0.0326549
)
;

boundaryField
{
    movingWall
    {
        type            zeroGradient;
    }
    fixedWalls
    {
        type            zeroGradient;
    }
    frontAndBack
    {
        type            empty;
    }
}


// ************************************************************************* //
