/*--------------------------------*- C++ -*----------------------------------*\
  =========                 |
  \\      /  F ield         | OpenFOAM: The Open Source CFD Toolbox
   \\    /   O peration     | Website:  https://openfoam.org
    \\  /    A nd           | Version:  13
     \\/     M anipulation  |
\*---------------------------------------------------------------------------*/
FoamFile
{
    format      ascii;
    class       volScalarField;
    location    "4.5";
    object      p;
}
// * * * * * * * * * * * * * * * * * * * * * * * * * * * * * * * * * * * * * //

dimensions      [0 2 -2 0 0 0 0];

internalField   nonuniform List<scalar> 
1600
(
2.81634e-08
-1.32411e-05
-7.77968e-05
-0.000178025
-0.000277477
-0.000362943
-0.000442612
-0.000537559
-0.000660184
-0.000810582
-0.000994493
-0.00125476
-0.00162736
-0.00187876
-0.00202679
-0.0023644
-0.00294743
-0.00366516
-0.00439011
-0.00500252
-0.00541381
-0.00555854
-0.00538817
-0.00486338
-0.00399059
-0.0027843
-0.00124961
0.000569016
0.00258176
0.00461327
0.00641927
0.00772097
0.00831272
0.00815782
0.0073077
0.00643413
0.0058901
0.00578746
0.00585254
0.00588143
-1.06309e-05
-4.18216e-05
-0.000113693
-0.000213208
-0.000294106
-0.000350569
-0.000401967
-0.000479132
-0.000590254
-0.000721537
-0.000844951
-0.00102077
-0.00134905
-0.00178357
-0.00225558
-0.00281935
-0.00349767
-0.00423669
-0.00494815
-0.0055378
-0.00593078
-0.00607217
-0.00592012
-0.00545102
-0.004664
-0.00353274
-0.0020741
-0.000329992
0.00160625
0.00358814
0.00540381
0.00678566
0.00751018
0.00749378
0.0068302
0.00598806
0.00556235
0.00560986
0.00573445
0.00579491
-1.6316e-05
-7.9843e-05
-0.000175017
-0.000275787
-0.000336112
-0.000354844
-0.000363813
-0.000388692
-0.000451658
-0.000604993
-0.000882711
-0.00126313
-0.00175765
-0.00236466
-0.00306345
-0.00382491
-0.00460554
-0.00535877
-0.00603138
-0.00656963
-0.00692471
-0.0070483
-0.0069118
-0.00649666
-0.00577485
-0.00474217
-0.00341169
-0.00181595
-2.06781e-05
0.0018686
0.00367824
0.00519182
0.00618786
0.00652145
0.00625345
0.005728
0.0054489
0.00549416
0.00562059
0.00566184
5.22116e-06
-9.08251e-05
-0.000221874
-0.000315597
-0.000348182
-0.000341852
-0.000341463
-0.00038512
-0.000516363
-0.000805634
-0.00129663
-0.00195413
-0.00270981
-0.00352412
-0.00437463
-0.00522731
-0.00604003
-0.00677978
-0.00741534
-0.00791267
-0.0082326
-0.00833486
-0.00820085
-0.00781604
-0.00716709
-0.00624965
-0.00507336
-0.00366044
-0.00205265
-0.00031566
0.00143575
0.00304897
0.00433509
0.00513788
0.00546224
0.00547175
0.00548223
0.00550413
0.00556159
0.00555697
0.000127974
-1.39242e-05
-0.000169396
-0.000262942
-0.000300112
-0.000317425
-0.000373682
-0.000534905
-0.000865044
-0.00141009
-0.00216299
-0.00305684
-0.00401247
-0.00497488
-0.00591002
-0.00679612
-0.0076142
-0.00834832
-0.00896232
-0.00941846
-0.00968907
-0.00976473
-0.0096347
-0.00928825
-0.00871491
-0.00791497
-0.00689142
-0.00565511
-0.00423067
-0.00266525
-0.00102886
0.000586661
0.00207289
0.00332483
0.00428501
0.00495405
0.0053844
0.00558201
0.005541
0.00547766
0.000399029
0.000195882
2.37644e-05
-9.61387e-05
-0.000186155
-0.000301347
-0.000516892
-0.000909349
-0.00152508
-0.00235582
-0.00334385
-0.00441137
-0.00549324
-0.00653937
-0.0075253
-0.00843489
-0.00924449
-0.00993154
-0.0104737
-0.010863
-0.0110889
-0.0111432
-0.0110209
-0.0107142
-0.0102181
-0.00953266
-0.00865895
-0.00760075
-0.00636743
-0.00497909
-0.00347027
-0.00189345
-0.000311877
0.00123456
0.00269944
0.00398469
0.00493871
0.00548111
0.00546492
0.0053636
0.000796589
0.000545699
0.000333708
0.000152447
-4.96108e-05
-0.000347333
-0.000817965
-0.00151399
-0.00243119
-0.00351541
-0.00468663
-0.00587551
-0.00703091
-0.00811531
-0.00910559
-0.00998425
-0.0107404
-0.0113623
-0.0118419
-0.0121769
-0.0123636
-0.0123987
-0.0122799
-0.012004
-0.0115702
-0.010979
-0.0102312
-0.00932797
-0.00827089
-0.0070635
-0.00571367
-0.00423479
-0.00264024
-0.000939989
0.000832409
0.00257822
0.00406554
0.00504601
0.00539643
0.00519471
0.00126479
0.000977605
0.000683878
0.000397987
2.48228e-05
-0.00052349
-0.00130041
-0.00230665
-0.00349098
-0.00477128
-0.00606981
-0.00733084
-0.00851312
-0.00958993
-0.0105456
-0.0113719
-0.012066
-0.0126255
-0.0130497
-0.0133386
-0.013492
-0.01351
-0.0133926
-0.0131404
-0.0127545
-0.0122365
-0.0115874
-0.0108072
-0.00989362
-0.00884214
-0.00764577
-0.00629442
-0.00477135
-0.00305276
-0.00113496
0.000896801
0.00281045
0.00431138
0.00515243
0.00485616
0.00167629
0.00132555
0.000948028
0.000532629
-5.16983e-05
-0.000879713
-0.00195677
-0.00323376
-0.00462355
-0.00603849
-0.00741233
-0.00870099
-0.00987411
-0.0109163
-0.0118217
-0.0125901
-0.0132245
-0.0137276
-0.0141027
-0.0143519
-0.0144776
-0.0144817
-0.0143658
-0.0141323
-0.0137836
-0.0133219
-0.0127491
-0.012065
-0.0112661
-0.0103441
-0.00928386
-0.00806249
-0.00664749
-0.00499583
-0.00306734
-0.000893727
0.00131483
0.00325643
0.00451534
0.00457971
0.00190366
0.00149795
0.00102854
0.000467237
-0.000338028
-0.00143163
-0.00276074
-0.00424236
-0.00577097
-0.00726443
-0.00866858
-0.00995051
-0.0110915
-0.0120863
-0.0129367
-0.0136485
-0.0142284
-0.0146824
-0.0150158
-0.0152329
-0.0153371
-0.0153314
-0.015218
-0.0149998
-0.0146798
-0.014261
-0.0137457
-0.0131345
-0.0124243
-0.0116064
-0.0106636
-0.00956808
-0.00828019
-0.00674687
-0.00490217
-0.00271662
-0.000356211
0.00184908
0.00355448
0.00445624
0.00186583
0.00141768
0.00086037
0.000155371
-0.000849521
-0.00215755
-0.00367737
-0.00528731
-0.00689419
-0.00841786
-0.00981708
-0.0110688
-0.0121644
-0.0131066
-0.0139027
-0.0145623
-0.0150946
-0.0155078
-0.0158082
-0.016001
-0.0160901
-0.0160784
-0.0159687
-0.0157638
-0.015467
-0.0150813
-0.0146096
-0.0140534
-0.0134107
-0.0126744
-0.0118286
-0.0108458
-0.00968597
-0.0082949
-0.00659882
-0.00452277
-0.00213641
0.000167085
0.00217414
0.00356567
0.00154203
0.00106104
0.000428699
-0.000397662
-0.00156436
-0.00302124
-0.00465461
-0.00633092
-0.00796494
-0.00948095
-0.01085
-0.0120567
-0.0131005
-0.0139896
-0.0147351
-0.0153487
-0.0158413
-0.0162219
-0.0164972
-0.0166726
-0.0167518
-0.0167375
-0.0166326
-0.0164399
-0.0161622
-0.0158029
-0.0153651
-0.0148509
-0.0142602
-0.0135881
-0.0128219
-0.0119378
-0.0108986
-0.00965345
-0.00813357
-0.00624547
-0.00395524
-0.00166682
0.00036049
0.00182131
0.000950831
0.000452367
-0.00023529
-0.00115247
-0.00242227
-0.00396947
-0.00564679
-0.00734235
-0.00896212
-0.0104437
-0.0117661
-0.0129199
-0.0139105
-0.0147491
-0.0154491
-0.0160237
-0.016484
-0.0168392
-0.0170959
-0.0172591
-0.0173323
-0.017318
-0.0172187
-0.017037
-0.0167757
-0.016438
-0.0160272
-0.0155461
-0.014996
-0.0143746
-0.0136734
-0.0128736
-0.0119436
-0.0108371
-0.00949337
-0.00782536
-0.00576418
-0.0035644
-0.00168802
-0.00036385
0.000150264
-0.000347891
-0.00106643
-0.00204404
-0.00336349
-0.00494115
-0.00661498
-0.00829166
-0.00986981
-0.0113004
-0.0125672
-0.0136658
-0.0146048
-0.0153975
-0.0160581
-0.0166
-0.0170344
-0.01737
-0.017613
-0.0177679
-0.0178378
-0.0178249
-0.0177314
-0.0175598
-0.0173126
-0.0169929
-0.0166042
-0.0161499
-0.0156325
-0.0150523
-0.0144046
-0.0136764
-0.0128427
-0.011864
-0.010687
-0.0092408
-0.00745407
-0.00543115
-0.00378627
-0.00267096
-0.00077727
-0.00126176
-0.00198808
-0.00299312
-0.00432598
-0.005886
-0.00752537
-0.00915633
-0.0106768
-0.012048
-0.0132566
-0.0143013
-0.0151928
-0.0159448
-0.0165717
-0.0170868
-0.0175005
-0.017821
-0.0180538
-0.018203
-0.0182712
-0.0182604
-0.0181726
-0.01801
-0.0177749
-0.0174704
-0.0171001
-0.0166678
-0.0161772
-0.0156307
-0.0150273
-0.0143595
-0.0136092
-0.0127446
-0.0117209
-0.0104844
-0.00896529
-0.00718557
-0.00577108
-0.00486298
-0.00174981
-0.00221053
-0.00292791
-0.00393136
-0.0052443
-0.00675882
-0.00835014
-0.00991956
-0.0113752
-0.012685
-0.0138371
-0.0148322
-0.0156813
-0.0163983
-0.0169971
-0.0174902
-0.0178875
-0.0181962
-0.0184213
-0.0185665
-0.018634
-0.0186255
-0.0185428
-0.0183879
-0.018163
-0.0178712
-0.017516
-0.0171019
-0.0166333
-0.0161144
-0.0155474
-0.0149295
-0.0142493
-0.0134829
-0.0125933
-0.0115358
-0.0102563
-0.00877239
-0.00757023
-0.00681529
-0.00269033
-0.00312223
-0.00381907
-0.00480059
-0.00607416
-0.00753106
-0.00906525
-0.0105682
-0.0119593
-0.0132107
-0.0143111
-0.0152624
-0.0160752
-0.0167629
-0.0173387
-0.0178142
-0.0181983
-0.0184978
-0.0187172
-0.0188594
-0.0189266
-0.0189203
-0.0188419
-0.0186933
-0.0184768
-0.0181952
-0.0178523
-0.0174528
-0.017002
-0.0165055
-0.0159679
-0.0153906
-0.0147677
-0.0140827
-0.013306
-0.0123983
-0.011321
-0.0101078
-0.00910633
-0.00847552
-0.00353991
-0.0039371
-0.00460598
-0.00555653
-0.00678482
-0.00818149
-0.00965497
-0.0110933
-0.0124252
-0.0136243
-0.0146801
-0.0155945
-0.0163775
-0.0170415
-0.0175991
-0.0180607
-0.0184348
-0.0187272
-0.0189421
-0.0190822
-0.0191492
-0.0191446
-0.0190697
-0.018926
-0.0187158
-0.0184421
-0.0181086
-0.0177204
-0.0172832
-0.0168039
-0.0162892
-0.0157437
-0.0151667
-0.0145475
-0.0138626
-0.0130776
-0.0121707
-0.0111843
-0.0103576
-0.0098248
-0.00425019
-0.00461611
-0.00525218
-0.00616911
-0.00735293
-0.0086939
-0.0101094
-0.0114894
-0.01277
-0.0139253
-0.0149446
-0.0158297
-0.0165895
-0.0172356
-0.0177795
-0.0182309
-0.0185976
-0.0188849
-0.0190966
-0.0192352
-0.0193021
-0.0192986
-0.019226
-0.0190858
-0.01888
-0.0186116
-0.0182847
-0.0179041
-0.0174765
-0.0170095
-0.0165112
-0.0159889
-0.0154462
-0.014878
-0.0142659
-0.0135805
-0.0128112
-0.0119959
-0.011318
-0.0108679
-0.00480126
-0.00512841
-0.00573653
-0.00662256
-0.00776396
-0.00905695
-0.0104224
-0.0117532
-0.0129918
-0.0141126
-0.0151044
-0.015968
-0.0167116
-0.0173454
-0.0178802
-0.0183251
-0.018687
-0.0189712
-0.019181
-0.0193185
-0.0193853
-0.0193825
-0.0193111
-0.0191727
-0.0189693
-0.0187038
-0.0183802
-0.0180038
-0.0175815
-0.0171215
-0.0166332
-0.016126
-0.0156066
-0.0150746
-0.0145176
-0.0139116
-0.0132505
-0.0125665
-0.0120043
-0.0116192
-0.00517297
-0.00546901
-0.0060548
-0.0069133
-0.00801352
-0.00926659
-0.0105911
-0.0118824
-0.0130893
-0.0141854
-0.0151586
-0.0160088
-0.0167429
-0.0173704
-0.0179009
-0.0183429
-0.0187031
-0.0189862
-0.0191954
-0.0193327
-0.0193994
-0.0193967
-0.0193255
-0.0191873
-0.0189841
-0.0187188
-0.0183954
-0.0180194
-0.0175979
-0.0171396
-0.0166549
-0.0161546
-0.0156481
-0.0151389
-0.0146203
-0.0140747
-0.0134961
-0.012908
-0.0124326
-0.0120992
-0.00535528
-0.00563487
-0.0062066
-0.00704408
-0.0081062
-0.00932429
-0.0106149
-0.0118768
-0.0130617
-0.0141424
-0.0151058
-0.0159506
-0.0166822
-0.0173093
-0.0178405
-0.0182838
-0.0186454
-0.0189298
-0.01914
-0.019278
-0.019345
-0.019342
-0.01927
-0.0191303
-0.018925
-0.0186571
-0.0183306
-0.0179511
-0.0175257
-0.0170638
-0.0165761
-0.0160749
-0.0155712
-0.0150723
-0.0145769
-0.0140744
-0.0135586
-0.013041
-0.0126261
-0.0123287
-0.00537331
-0.0056391
-0.00619976
-0.00702125
-0.00805167
-0.00923558
-0.0104986
-0.011739
-0.0129097
-0.0139829
-0.0149443
-0.0157911
-0.0165274
-0.0171602
-0.0176976
-0.0181467
-0.0185134
-0.0188019
-0.0190152
-0.0191551
-0.0192229
-0.0192194
-0.0191456
-0.0190028
-0.0187931
-0.0185196
-0.0181863
-0.0177989
-0.017365
-0.0168939
-0.016397
-0.0158871
-0.0153769
-0.0148766
-0.0143902
-0.0139137
-0.013443
-0.0129752
-0.0126123
-0.0123264
-0.00525758
-0.00550788
-0.00605542
-0.00686209
-0.00786399
-0.00901013
-0.0102468
-0.0114711
-0.0126333
-0.0137054
-0.0146719
-0.0155279
-0.0162756
-0.0169208
-0.0174701
-0.01793
-0.0183059
-0.0186019
-0.0188209
-0.0189645
-0.0190339
-0.01903
-0.0189537
-0.0188063
-0.0185899
-0.0183076
-0.0179636
-0.0175638
-0.017116
-0.01663
-0.0161174
-0.0155915
-0.015066
-0.0145534
-0.0140629
-0.0135969
-0.0131552
-0.0127206
-0.0124222
-0.0121069
-0.00504127
-0.00527453
-0.00580226
-0.00658615
-0.00755991
-0.00866705
-0.00986669
-0.0110756
-0.0122327
-0.0133085
-0.0142858
-0.0151576
-0.0159238
-0.0165879
-0.0171553
-0.0176317
-0.0180217
-0.0183293
-0.018557
-0.0187065
-0.0187789
-0.0187751
-0.018696
-0.0185426
-0.0183174
-0.0180233
-0.0176648
-0.0172479
-0.0167806
-0.0162734
-0.0157383
-0.0151889
-0.0146396
-0.0141047
-0.0135978
-0.0131277
-0.0127018
-0.0122808
-0.0120598
-0.0116834
-0.00476632
-0.00497821
-0.00547358
-0.00621942
-0.00715241
-0.00821743
-0.00937266
-0.010559
-0.0117095
-0.0127909
-0.0137833
-0.0146768
-0.0154679
-0.0161579
-0.0167503
-0.0172493
-0.0176591
-0.017983
-0.0182232
-0.0183815
-0.0184588
-0.0184561
-0.0183739
-0.0182137
-0.0179776
-0.0176689
-0.0172921
-0.0168534
-0.0163614
-0.0158267
-0.015262
-0.0146815
-0.0141003
-0.0135337
-0.0129994
-0.012515
-0.0120932
-0.0116631
-0.0114903
-0.0110716
-0.00448061
-0.00466133
-0.00510325
-0.00578874
-0.00666101
-0.00767053
-0.00877483
-0.00992729
-0.0110654
-0.0121515
-0.0131617
-0.0140816
-0.014904
-0.015627
-0.0162516
-0.0167803
-0.0172162
-0.0175618
-0.0178192
-0.0179898
-0.0180745
-0.0180743
-0.0179896
-0.0178219
-0.0175733
-0.0172474
-0.0168485
-0.0163835
-0.0158613
-0.0152931
-0.0146921
-0.0140729
-0.0134512
-0.0128438
-0.0122723
-0.0117649
-0.0113412
-0.0108738
-0.0107287
-0.0102824
-0.0042293
-0.00435972
-0.00471909
-0.00531763
-0.00610706
-0.00704062
-0.00808086
-0.00918661
-0.0103031
-0.0113901
-0.0124186
-0.0133688
-0.0142285
-0.0149916
-0.015656
-0.016222
-0.016691
-0.0170647
-0.0173446
-0.0175318
-0.0176273
-0.0176317
-0.0175456
-0.0173704
-0.0171084
-0.016763
-0.0163389
-0.0158433
-0.0152857
-0.014678
-0.0140338
-0.0133684
-0.0126979
-0.0120407
-0.0114224
-0.0108816
-0.0104414
-0.00992154
-0.00982531
-0.00930762
-0.00403673
-0.00409226
-0.00433888
-0.00482591
-0.00550994
-0.00634425
-0.00729963
-0.008343
-0.00942657
-0.0105081
-0.0115535
-0.0125365
-0.0134388
-0.014249
-0.0149611
-0.0155724
-0.0160823
-0.0164912
-0.0167997
-0.0170088
-0.0171191
-0.017131
-0.0170454
-0.0168636
-0.0165878
-0.0162216
-0.0157699
-0.0152403
-0.0146427
-0.0139898
-0.0132959
-0.0125765
-0.0118491
-0.0111327
-0.0104578
-0.00987128
-0.00939772
-0.00881892
-0.00876989
-0.00811665
-0.00389398
-0.0038411
-0.00396864
-0.00433011
-0.00488514
-0.00559483
-0.00644212
-0.00740486
-0.00844199
-0.00950988
-0.0105689
-0.0115857
-0.012535
-0.0133991
-0.0141668
-0.0148317
-0.0153907
-0.0158423
-0.0161865
-0.0164233
-0.0165531
-0.0165765
-0.0164943
-0.0163075
-0.0160187
-0.0156315
-0.015151
-0.014585
-0.0139441
-0.0132413
-0.0124914
-0.0117106
-0.0109175
-0.0101324
-0.00939081
-0.00874515
-0.00821907
-0.00754877
-0.00756927
-0.00665055
-0.0037193
-0.00357832
-0.00361678
-0.0038431
-0.00424371
-0.0048029
-0.00551939
-0.00638284
-0.0073591
-0.00840386
-0.00947187
-0.0105223
-0.0115219
-0.0124457
-0.0132765
-0.0140033
-0.0146196
-0.0151221
-0.0155091
-0.0157802
-0.0159353
-0.0159749
-0.0158998
-0.0157112
-0.0154114
-0.0150045
-0.0144957
-0.0138929
-0.0132068
-0.0124507
-0.0116399
-0.0107906
-0.0099232
-0.00905935
-0.00823956
-0.0075181
-0.00691253
-0.00610957
-0.00622176
-0.00483339
-0.00347401
-0.00332809
-0.00329735
-0.00337355
-0.00359428
-0.00397811
-0.00454312
-0.00529041
-0.00619265
-0.00720499
-0.00827691
-0.00935971
-0.0104116
-0.0113996
-0.0122999
-0.013096
-0.0137777
-0.0143388
-0.0147763
-0.0150885
-0.0152753
-0.0153367
-0.0152736
-0.0150876
-0.0147806
-0.0143572
-0.0138228
-0.013185
-0.0124543
-0.0116439
-0.0107689
-0.00984539
-0.00889514
-0.00794138
-0.00702929
-0.00621016
-0.00549373
-0.00453483
-0.00468031
-0.00262645
-0.00322696
-0.00312177
-0.00301667
-0.00292589
-0.00294404
-0.00312998
-0.00352549
-0.00414391
-0.00496315
-0.00593658
-0.00700814
-0.00812157
-0.00922643
-0.0102816
-0.0112558
-0.0121271
-0.0128808
-0.0135077
-0.0140026
-0.0143629
-0.0145878
-0.0146775
-0.0146327
-0.0144555
-0.0141471
-0.013713
-0.0131584
-0.0124904
-0.0117191
-0.0108562
-0.00991627
-0.00891428
-0.00787301
-0.00681681
-0.00579515
-0.00484775
-0.00398081
-0.00285094
-0.00284556
-6.74394e-05
-0.00302162
-0.0029555
-0.00276511
-0.00249883
-0.00229755
-0.0022684
-0.00248248
-0.00296557
-0.00369842
-0.00463132
-0.00570117
-0.00684405
-0.00800157
-0.00912467
-0.0101751
-0.011125
-0.0119551
-0.0126529
-0.013211
-0.0136255
-0.013895
-0.0140197
-0.0140001
-0.0138382
-0.0135382
-0.0131024
-0.0125365
-0.0118471
-0.0110429
-0.0101331
-0.00913027
-0.00804702
-0.00690595
-0.00572909
-0.00456689
-0.00344158
-0.00236085
-0.000989656
-0.000624821
0.00284466
-0.00281874
-0.00279107
-0.00251644
-0.00207547
-0.0016485
-0.00139965
-0.0014323
-0.00178363
-0.00243474
-0.00333083
-0.00440163
-0.0055751
-0.00678498
-0.00797517
-0.00910118
-0.0101298
-0.0110375
-0.0118086
-0.0124335
-0.0129071
-0.0132273
-0.0133939
-0.013408
-0.0132714
-0.0129883
-0.0125618
-0.0119963
-0.0112971
-0.0104707
-0.00952221
-0.0084605
-0.00729222
-0.00603682
-0.00470617
-0.00334417
-0.00194479
-0.00052158
0.00126341
0.00222651
0.00652153
-0.0026035
-0.002587
-0.00224622
-0.00163518
-0.000991687
-0.000540635
-0.000409561
-0.000644343
-0.00122572
-0.00209297
-0.00316827
-0.00437265
-0.00563305
-0.00688704
-0.00808492
-0.00918913
-0.0101725
-0.0110165
-0.0117095
-0.0122449
-0.0126202
-0.0128347
-0.0128896
-0.0127871
-0.0125307
-0.0121232
-0.0115683
-0.010869
-0.0100297
-0.0090503
-0.00793294
-0.00667239
-0.0052787
-0.00373832
-0.00207292
-0.000220371
0.00180725
0.00438597
0.00649134
0.01242
-0.00236216
-0.00235033
-0.00191866
-0.00116147
-0.000324923
0.000289696
0.000550065
0.000407118
-0.00011939
-0.000965113
-0.00204648
-0.00327894
-0.00458497
-0.00589743
-0.00716222
-0.00833788
-0.00939417
-0.0103096
-0.0110707
-0.0116691
-0.0121017
-0.0123674
-0.0124675
-0.0124035
-0.0121791
-0.0117958
-0.0112569
-0.010561
-0.00971069
-0.00870357
-0.00753111
-0.00616911
-0.00460726
-0.00277864
-0.000661247
0.00192955
0.00501952
0.00918663
0.0138015
0.0234757
-0.00229311
-0.00220738
-0.00160816
-0.000689391
0.000284876
0.00103236
0.0013779
0.00129126
0.000793865
-4.65292e-05
-0.00114227
-0.00240377
-0.00375042
-0.00511241
-0.00643308
-0.00766811
-0.00878509
-0.00976024
-0.0105788
-0.0112311
-0.011713
-0.0120225
-0.0121616
-0.0121308
-0.0119338
-0.0115709
-0.011046
-0.0103553
-0.00949797
-0.00845184
-0.00721688
-0.00574797
-0.0040018
-0.00182022
0.000893296
0.0045527
0.00933496
0.0164765
0.026147
0.0428427
-0.00320041
-0.00249156
-0.00149209
-0.000312427
0.000821928
0.00165353
0.00206022
0.00200709
0.00152262
0.000680177
-0.000429783
-0.00171659
-0.00309859
-0.0045036
-0.00587251
-0.00715753
-0.00832405
-0.00934614
-0.0102089
-0.0109015
-0.0114198
-0.0117604
-0.0119263
-0.011917
-0.0117371
-0.0113854
-0.0108655
-0.0101716
-0.009302
-0.00823977
-0.00696464
-0.00540193
-0.00350383
-0.00103748
0.00226788
0.00717883
0.0144107
0.026269
0.0441528
0.0707925
-0.00532333
-0.00168456
-0.000186925
0.000959304
0.00199169
0.00275158
0.00309055
0.0029696
0.00242287
0.00152392
0.000362289
-0.000974143
-0.00240669
-0.00386409
-0.0052854
-0.00662052
-0.00783262
-0.0088958
-0.00979343
-0.010516
-0.0110589
-0.0114207
-0.0116016
-0.0116047
-0.0114313
-0.0110845
-0.0105617
-0.0098618
-0.00897128
-0.00787542
-0.00655475
-0.00495432
-0.00305188
-0.000453086
0.00311561
0.00920765
0.0195918
0.0372192
0.0648766
0.0996212
)
;

boundaryField
{
    movingWall
    {
        type            zeroGradient;
    }
    fixedWalls
    {
        type            zeroGradient;
    }
    frontAndBack
    {
        type            empty;
    }
}


// ************************************************************************* //
