/*--------------------------------*- C++ -*----------------------------------*\
  =========                 |
  \\      /  F ield         | OpenFOAM: The Open Source CFD Toolbox
   \\    /   O peration     | Website:  https://openfoam.org
    \\  /    A nd           | Version:  13
     \\/     M anipulation  |
\*---------------------------------------------------------------------------*/
FoamFile
{
    format      ascii;
    class       surfaceScalarField;
    location    "4.5";
    object      phi;
}
// * * * * * * * * * * * * * * * * * * * * * * * * * * * * * * * * * * * * * //

dimensions      [0 3 -1 0 0 0 0];

internalField   nonuniform List<scalar> 
760
(
1.51669e-07
-1.51673e-07
7.86761e-08
7.29925e-08
-3.10944e-07
3.8962e-07
-1.14413e-06
8.33182e-07
-2.28064e-06
1.13652e-06
-3.37495e-06
1.09431e-06
-4.32783e-06
9.5288e-07
-5.10938e-06
7.81545e-07
-5.70952e-06
6.00143e-07
-6.13026e-06
4.20738e-07
-6.38227e-06
2.52009e-07
-6.46715e-06
8.48806e-08
-6.36212e-06
-1.0503e-07
-6.06965e-06
-2.92472e-07
-5.5361e-06
-5.33546e-07
-4.73221e-06
-8.03888e-07
-3.6193e-06
-1.11291e-06
-2.24324e-06
-1.37606e-06
-8.21081e-07
-1.42216e-06
-8.21081e-07
-1.49056e-07
-2.6178e-09
-7.31482e-07
6.55419e-07
-1.74924e-06
1.40738e-06
-2.89113e-06
1.97507e-06
-3.80488e-06
2.05027e-06
-4.60598e-06
1.89541e-06
-5.28352e-06
1.63042e-06
-5.82668e-06
1.3247e-06
-6.2438e-06
1.01727e-06
-6.5394e-06
7.16337e-07
-6.69911e-06
4.11718e-07
-6.70787e-06
9.36366e-08
-6.58407e-06
-2.28828e-07
-6.29411e-06
-5.82425e-07
-5.82824e-06
-9.99418e-07
-5.13889e-06
-1.49324e-06
-4.19026e-06
-2.06155e-06
-2.93301e-06
-2.63332e-06
-1.41944e-06
-2.93572e-06
-2.24052e-06
-6.19981e-07
6.17364e-07
-1.59675e-06
1.63219e-06
-2.61842e-06
2.42905e-06
-3.44473e-06
2.80139e-06
-4.12951e-06
2.73505e-06
-4.70037e-06
2.46626e-06
-5.16311e-06
2.09316e-06
-5.51909e-06
1.68068e-06
-5.76214e-06
1.26031e-06
-5.89961e-06
8.53812e-07
-5.93994e-06
4.52047e-07
-5.89074e-06
4.44353e-08
-5.75362e-06
-3.65949e-07
-5.50944e-06
-8.26597e-07
-5.13859e-06
-1.37028e-06
-4.61081e-06
-2.02101e-06
-3.88478e-06
-2.78758e-06
-2.89966e-06
-3.61843e-06
-1.59174e-06
-4.24365e-06
-3.83226e-06
-8.83112e-07
1.50048e-06
-1.86673e-06
2.6158e-06
-2.70511e-06
3.26743e-06
-3.34175e-06
3.43803e-06
-3.84136e-06
3.23466e-06
-4.22978e-06
2.85468e-06
-4.51876e-06
2.38214e-06
-4.71934e-06
1.88125e-06
-4.84305e-06
1.38402e-06
-4.89579e-06
9.06547e-07
-4.88591e-06
4.42174e-07
-4.81857e-06
-2.29117e-08
-4.68549e-06
-4.99025e-07
-4.48344e-06
-1.02865e-06
-4.20256e-06
-1.65116e-06
-3.81598e-06
-2.4076e-06
-3.28032e-06
-3.32323e-06
-2.52763e-06
-4.37113e-06
-1.45182e-06
-5.31945e-06
-5.28408e-06
-8.96203e-07
2.39668e-06
-1.75327e-06
3.47287e-06
-2.42416e-06
3.93832e-06
-2.91773e-06
3.9316e-06
-3.28395e-06
3.60088e-06
-3.54841e-06
3.11914e-06
-3.73089e-06
2.56462e-06
-3.84547e-06
1.99583e-06
-3.9021e-06
1.44066e-06
-3.90558e-06
9.10028e-07
-3.86112e-06
3.9771e-07
-3.77576e-06
-1.08276e-07
-3.64711e-06
-6.27666e-07
-3.48009e-06
-1.19567e-06
-3.27138e-06
-1.85987e-06
-3.0016e-06
-2.67737e-06
-2.62634e-06
-3.69849e-06
-2.0723e-06
-4.92517e-06
-1.22989e-06
-6.16186e-06
-6.51398e-06
-7.70256e-07
3.16693e-06
-1.4676e-06
4.17022e-06
-1.98931e-06
4.46003e-06
-2.36939e-06
4.31167e-06
-2.64158e-06
3.87307e-06
-2.82815e-06
3.30571e-06
-2.94909e-06
2.68556e-06
-3.01725e-06
2.064e-06
-3.04024e-06
1.46364e-06
-3.02125e-06
8.91035e-07
-2.96381e-06
3.40272e-07
-2.87249e-06
-1.99595e-07
-2.75232e-06
-7.47832e-07
-2.61121e-06
-1.33677e-06
-2.45375e-06
-2.01734e-06
-2.27169e-06
-2.85943e-06
-2.03414e-06
-3.93604e-06
-1.66419e-06
-5.29512e-06
-1.00468e-06
-6.82137e-06
-7.51866e-06
-6.03372e-07
3.77031e-06
-1.12187e-06
4.68871e-06
-1.51373e-06
4.8519e-06
-1.7971e-06
4.59505e-06
-1.99799e-06
4.07396e-06
-2.13393e-06
3.44165e-06
-2.22099e-06
2.77262e-06
-2.26843e-06
2.11144e-06
-2.28091e-06
1.47613e-06
-2.25985e-06
8.69977e-07
-2.20672e-06
2.87136e-07
-2.12406e-06
-2.82255e-07
-2.01784e-06
-8.54048e-07
-1.89878e-06
-1.45584e-06
-1.77834e-06
-2.13778e-06
-1.65708e-06
-2.98068e-06
-1.51252e-06
-4.08061e-06
-1.2773e-06
-5.53033e-06
-8.38191e-07
-7.26049e-06
-8.35685e-06
-4.06076e-07
4.17638e-06
-7.68473e-07
5.05111e-06
-1.04248e-06
5.12591e-06
-1.24119e-06
4.79376e-06
-1.38482e-06
4.21759e-06
-1.48505e-06
3.54188e-06
-1.55254e-06
2.84011e-06
-1.59264e-06
2.15155e-06
-1.60717e-06
1.49065e-06
-1.59561e-06
8.58415e-07
-1.55733e-06
2.48865e-07
-1.49321e-06
-3.46378e-07
-1.40811e-06
-9.39155e-07
-1.31356e-06
-1.55039e-06
-1.22655e-06
-2.22478e-06
-1.15723e-06
-3.05e-06
-1.08957e-06
-4.14827e-06
-9.59237e-07
-5.66066e-06
-6.66027e-07
-7.5537e-06
-9.02287e-06
-2.2422e-07
4.4006e-06
-4.323e-07
5.25919e-06
-5.92753e-07
5.28636e-06
-7.14555e-07
4.91556e-06
-8.0735e-07
4.31038e-06
-8.77207e-07
3.61173e-06
-9.29574e-07
2.89247e-06
-9.66182e-07
2.18815e-06
-9.86418e-07
1.51089e-06
-9.88275e-07
8.60272e-07
-9.69724e-07
2.30315e-07
-9.30392e-07
-3.8571e-07
-8.73895e-07
-9.95652e-07
-8.1079e-07
-1.61349e-06
-7.59715e-07
-2.27585e-06
-7.38429e-07
-3.07129e-06
-7.38285e-07
-4.14842e-06
-6.98915e-07
-5.70003e-06
-5.46348e-07
-7.70626e-06
-9.56922e-06
-3.70376e-08
4.43764e-06
-1.15254e-07
5.33741e-06
-1.70379e-07
5.34148e-06
-2.18448e-07
4.96363e-06
-2.59187e-07
4.35112e-06
-2.9705e-07
3.6496e-06
-3.32058e-07
2.92748e-06
-3.62838e-07
2.21893e-06
-3.87012e-07
1.53506e-06
-4.01733e-07
8.74994e-07
-4.04502e-07
2.33084e-07
-3.94217e-07
-3.95995e-07
-3.7352e-07
-1.01635e-06
-3.51555e-07
-1.63546e-06
-3.46191e-07
-2.28122e-06
-3.7555e-07
-3.04193e-06
-4.44774e-07
-4.07919e-06
-4.88274e-07
-5.65653e-06
-4.35398e-07
-7.75914e-06
-1.00046e-05
1.36633e-07
4.30101e-06
1.9293e-07
5.28111e-06
2.40692e-07
5.29372e-06
2.62676e-07
4.94164e-06
2.72687e-07
4.34111e-06
2.70221e-07
3.65206e-06
2.57779e-07
2.93992e-06
2.38298e-07
2.23841e-06
2.14773e-07
1.55858e-06
1.90033e-07
8.99735e-07
1.66262e-07
2.56854e-07
1.44559e-07
-3.74292e-07
1.23142e-07
-9.94933e-07
9.51189e-08
-1.60743e-06
4.59423e-08
-2.23204e-06
-4.99146e-08
-2.94607e-06
-1.82993e-07
-3.94611e-06
-3.08647e-07
-5.53088e-06
-3.57543e-07
-7.71024e-06
-1.03622e-05
2.92246e-07
4.00876e-06
4.78958e-07
5.0944e-06
6.27136e-07
5.14555e-06
7.25871e-07
4.84291e-06
7.93348e-07
4.27363e-06
8.33805e-07
3.61161e-06
8.51569e-07
2.92216e-06
8.50511e-07
2.23947e-06
8.33587e-07
1.57551e-06
8.02781e-07
9.30541e-07
7.59162e-07
3.00473e-07
7.03153e-07
-3.18282e-07
6.33808e-07
-9.25587e-07
5.47044e-07
-1.52067e-06
4.31974e-07
-2.11697e-06
2.73661e-07
-2.78776e-06
7.18046e-08
-3.74426e-06
-1.4999e-07
-5.30908e-06
-2.82618e-07
-7.57762e-06
-1.06448e-05
4.4224e-07
3.56652e-06
7.51153e-07
4.78548e-06
9.86041e-07
4.91066e-06
1.1676e-06
4.66135e-06
1.30143e-06
4.13981e-06
1.39468e-06
3.51836e-06
1.45236e-06
2.86447e-06
1.47848e-06
2.21336e-06
1.47536e-06
1.57862e-06
1.44388e-06
9.62022e-07
1.38349e-06
3.60863e-07
1.29322e-06
-2.28017e-07
1.1727e-06
-8.05061e-07
1.02049e-06
-1.36846e-06
8.32456e-07
-1.92893e-06
5.97859e-07
-2.55316e-06
3.02962e-07
-3.44936e-06
-2.12576e-08
-4.98486e-06
-2.04164e-07
-7.39471e-06
-1.08489e-05
5.54819e-07
3.0117e-06
9.69526e-07
4.37078e-06
1.29584e-06
4.58434e-06
1.57216e-06
4.38503e-06
1.78597e-06
3.926e-06
1.94581e-06
3.35851e-06
2.05575e-06
2.75453e-06
2.11922e-06
2.14989e-06
2.13792e-06
1.55992e-06
2.11175e-06
9.88192e-07
2.03873e-06
4.33882e-07
1.9157e-06
-1.04982e-07
1.74351e-06
-6.32871e-07
1.52276e-06
-1.14772e-06
1.25582e-06
-1.662e-06
9.38524e-07
-2.23586e-06
5.59794e-07
-3.07063e-06
1.78987e-07
-4.60406e-06
-5.8166e-08
-7.15756e-06
-1.09071e-05
6.38553e-07
2.37315e-06
1.14168e-06
3.86765e-06
1.56158e-06
4.16445e-06
1.93104e-06
4.01558e-06
2.23493e-06
3.62211e-06
2.4734e-06
3.12004e-06
2.64755e-06
2.58037e-06
2.75911e-06
2.03833e-06
2.80853e-06
1.5105e-06
2.7948e-06
1.00192e-06
2.71528e-06
5.13404e-07
2.56432e-06
4.5973e-08
2.34435e-06
-4.129e-07
2.05764e-06
-8.6101e-07
1.71092e-06
-1.31528e-06
1.30969e-06
-1.83463e-06
8.50337e-07
-2.61128e-06
4.00965e-07
-4.15468e-06
8.76242e-08
-6.84422e-06
-1.08195e-05
6.05008e-07
1.76814e-06
1.16799e-06
3.30466e-06
1.69968e-06
3.63276e-06
2.18633e-06
3.52893e-06
2.60282e-06
3.20562e-06
2.94054e-06
2.78232e-06
3.19655e-06
2.32436e-06
3.37055e-06
1.86434e-06
3.46207e-06
1.41898e-06
3.46984e-06
9.94153e-07
3.39128e-06
5.91963e-07
3.2276e-06
2.09649e-07
2.97111e-06
-1.56405e-07
2.6326e-06
-5.22504e-07
2.21805e-06
-9.00729e-07
1.74184e-06
-1.35842e-06
1.20964e-06
-2.07908e-06
6.81162e-07
-3.62621e-06
2.58222e-07
-6.42128e-06
-1.05613e-05
4.59832e-07
1.30831e-06
1.10313e-06
2.66136e-06
1.74914e-06
2.98675e-06
2.35414e-06
2.92393e-06
2.88562e-06
2.67415e-06
3.32762e-06
2.34032e-06
3.67238e-06
1.97959e-06
3.91686e-06
1.61986e-06
4.06067e-06
1.27518e-06
4.10366e-06
9.51163e-07
4.0464e-06
6.4922e-07
3.89068e-06
3.65368e-07
3.63201e-06
1.02263e-07
3.28112e-06
-1.71612e-07
2.83877e-06
-4.5838e-07
2.32232e-06
-8.41968e-07
1.7384e-06
-1.49516e-06
1.1175e-06
-3.0053e-06
5.18442e-07
-5.82222e-06
-1.00428e-05
-1.73084e-08
1.32562e-06
6.49377e-07
1.99468e-06
1.45081e-06
2.18532e-06
2.23093e-06
2.1438e-06
2.92555e-06
1.97953e-06
3.51028e-06
1.75559e-06
3.97937e-06
1.5105e-06
4.33013e-06
1.2691e-06
4.56579e-06
1.03952e-06
4.69024e-06
8.26713e-07
4.70818e-06
6.31276e-07
4.62361e-06
4.49942e-07
4.44237e-06
2.835e-07
4.1776e-06
9.31609e-08
3.80556e-06
-8.63399e-08
3.34079e-06
-3.77195e-07
2.74072e-06
-8.95087e-07
2.02376e-06
-2.28834e-06
1.04364e-06
-4.84211e-06
-8.99918e-06
-5.95996e-07
1.92161e-06
2.17757e-07
1.18092e-06
1.26864e-06
1.13444e-06
2.2723e-06
1.14014e-06
3.16266e-06
1.08917e-06
3.9271e-06
9.91152e-07
4.56329e-06
8.74307e-07
5.07357e-06
7.58821e-07
5.46361e-06
6.49479e-07
5.74151e-06
5.4882e-07
5.9181e-06
4.54682e-07
5.9994e-06
3.68637e-07
5.99864e-06
2.84262e-07
5.89558e-06
1.9622e-07
5.70665e-06
1.02595e-07
5.42364e-06
-9.41909e-08
4.95134e-06
-4.22783e-07
4.1654e-06
-1.5024e-06
2.46795e-06
-3.14466e-06
-6.53123e-06
1.92161e-06
3.10254e-06
4.23698e-06
5.37712e-06
6.46629e-06
7.45744e-06
8.33174e-06
9.09057e-06
9.74004e-06
1.02889e-05
1.07435e-05
1.11122e-05
1.13964e-05
1.15927e-05
1.16953e-05
1.16011e-05
1.11783e-05
9.67589e-06
6.53123e-06
)
;

boundaryField
{
    movingWall
    {
        type            calculated;
        value           uniform 0;
    }
    fixedWalls
    {
        type            calculated;
        value           uniform 0;
    }
    frontAndBack
    {
        type            empty;
    }
}


// ************************************************************************* //
