/*--------------------------------*- C++ -*----------------------------------*\
  =========                 |
  \\      /  F ield         | OpenFOAM: The Open Source CFD Toolbox
   \\    /   O peration     | Website:  https://openfoam.org
    \\  /    A nd           | Version:  13
     \\/     M anipulation  |
\*---------------------------------------------------------------------------*/
FoamFile
{
    format      ascii;
    class       volScalarField;
    location    "2.5";
    object      epsilon;
}
// * * * * * * * * * * * * * * * * * * * * * * * * * * * * * * * * * * * * * //

dimensions      [0 2 -3 0 0 0 0];

internalField   nonuniform List<scalar> 
6400
(
1.61656e-05
8.2327e-05
0.000189579
0.000310663
0.000430232
0.000545574
0.000660504
0.000780212
0.000908631
0.00104793
0.00119857
0.00136038
0.00153277
0.00171522
0.00190899
0.0021138
0.0023302
0.00255887
0.00279998
0.00305322
0.00331952
0.0036033
0.0039165
0.00427927
0.00470074
0.0051764
0.00568578
0.00620341
0.00673857
0.00730166
0.00790311
0.00854211
0.00919959
0.00985365
0.010505
0.0111542
0.0118048
0.0124655
0.0131412
0.0138395
0.014566
0.0153256
0.0161253
0.0169722
0.0178567
0.0187806
0.019746
0.0207816
0.0219425
0.0233771
0.0248835
0.0263903
0.0278667
0.0292784
0.0305791
0.0317152
0.0326277
0.0331499
0.0333768
0.0333864
0.0327742
0.0316364
0.0299908
0.0278363
0.0252348
0.0223115
0.0192346
0.0161148
0.0130327
0.0101275
0.00753559
0.00549426
0.0038405
0.00256314
0.00163488
0.000994867
0.000573738
0.00030481
0.000130802
2.64644e-05
8.13559e-05
6.92998e-05
0.000103476
0.000151341
0.000202971
0.000257519
0.000316683
0.000382661
0.000457595
0.000543183
0.000640821
0.00075182
0.000877759
0.00102087
0.00118482
0.00137345
0.00159179
0.00184601
0.00214326
0.00249144
0.0028997
0.0033789
0.00393979
0.00458156
0.00532107
0.00615314
0.00706479
0.00807106
0.00910606
0.0101347
0.0111125
0.0119946
0.0127366
0.0133524
0.0138455
0.0142288
0.0145258
0.0147552
0.0149379
0.0150924
0.0152337
0.0153791
0.0155422
0.0156943
0.0158473
0.0160094
0.0162083
0.0164477
0.0167293
0.0170527
0.0174169
0.0177875
0.0181681
0.0185296
0.0188581
0.0191244
0.0192635
0.0193039
0.0192078
0.0189577
0.0184707
0.0177622
0.0168034
0.0156123
0.0142128
0.0126557
0.0110059
0.00933018
0.00769947
0.00617819
0.00482064
0.00369709
0.00275603
0.00197707
0.00135005
0.000865333
0.000510717
0.00027144
0.000134631
0.000138454
0.000189147
0.000119178
0.000131682
0.00016312
0.000205203
0.000256545
0.000318954
0.000394897
0.000487148
0.000598527
0.000731789
0.000890553
0.00107933
0.00130386
0.00157187
0.00189194
0.00227327
0.00272567
0.00325823
0.0038779
0.00458833
0.00538738
0.00626629
0.00720822
0.00815885
0.00906124
0.00985612
0.0104698
0.010933
0.0112892
0.011559
0.0117922
0.0119347
0.0119793
0.011964
0.011896
0.011823
0.0117484
0.0116898
0.0116617
0.011654
0.0116803
0.0117438
0.0118714
0.0120612
0.0123115
0.0126059
0.0129492
0.013336
0.0137623
0.0142243
0.0147106
0.0152144
0.0157195
0.0162104
0.0166643
0.0170552
0.0173467
0.017481
0.0175001
0.0173076
0.0168687
0.016152
0.0151874
0.0139843
0.0125906
0.0110659
0.00947556
0.00789243
0.00638965
0.00502862
0.00385616
0.00288039
0.00209337
0.001475
0.000997598
0.000635211
0.000371218
0.000223568
0.00034791
0.000339944
0.000200099
0.000199126
0.000227803
0.000276184
0.00034044
0.000422959
0.000527101
0.000656754
0.000816524
0.00101207
0.00125004
0.0015384
0.00188632
0.0023034
0.00279947
0.00338278
0.00405708
0.00481854
0.00565252
0.00653061
0.00741068
0.00824162
0.00896926
0.00954044
0.00992856
0.0101825
0.0103265
0.010388
0.010374
0.010222
0.0100271
0.00979405
0.00962152
0.00948529
0.00936628
0.00928891
0.00925292
0.00924455
0.00928339
0.00936763
0.00949697
0.00967352
0.00989931
0.0101716
0.0104896
0.0108512
0.0112575
0.011707
0.0121979
0.0127276
0.0132912
0.0138824
0.0144909
0.015103
0.0156995
0.0162565
0.0167433
0.0171237
0.0173132
0.0173597
0.0171852
0.0167929
0.0160613
0.0150071
0.013699
0.0121813
0.0105281
0.00882625
0.00716796
0.00563724
0.00429816
0.00318348
0.00229722
0.00161794
0.00111089
0.000736334
0.000466141
0.000324578
0.000561507
0.000542162
0.000307194
0.000290642
0.00032424
0.000386829
0.000473485
0.000587062
0.000732216
0.000914671
0.00114117
0.00141959
0.00175889
0.00216878
0.00265876
0.00323629
0.00390425
0.00465734
0.00547805
0.00633383
0.00717708
0.00795016
0.00859466
0.00906604
0.00935745
0.00950001
0.00955532
0.00948997
0.00924511
0.00895643
0.00868817
0.00843696
0.00820749
0.00801503
0.00787226
0.0077668
0.00770903
0.00768707
0.00768675
0.00773959
0.00782549
0.00794986
0.00810988
0.00830651
0.00853953
0.00880904
0.00911588
0.0094612
0.00984654
0.0102731
0.0107417
0.0112529
0.0118062
0.0123996
0.0130292
0.0136874
0.0143619
0.0150352
0.0156836
0.0162748
0.0167686
0.0170798
0.0171957
0.0170939
0.0167395
0.0160584
0.0149554
0.0135437
0.0118932
0.0100936
0.00825661
0.0064996
0.00492462
0.00359968
0.00254955
0.00175986
0.00119033
0.000790184
0.000519086
0.000396929
0.000715264
0.00080636
0.000441016
0.000406995
0.000450793
0.00053455
0.000652096
0.000806762
0.0010046
0.00125307
0.00156066
0.00193655
0.0023899
0.00292848
0.00355622
0.00426976
0.0050545
0.00588109
0.00670445
0.00746729
0.00810795
0.00857722
0.00884076
0.00895516
0.0089764
0.00881023
0.00849063
0.00816154
0.00783835
0.00753743
0.00727676
0.00705326
0.00687056
0.00672999
0.00662903
0.00656744
0.00653992
0.00653287
0.00655585
0.00661303
0.00669354
0.00680109
0.00693335
0.00709128
0.00727514
0.00748607
0.00772575
0.00799648
0.00830116
0.008643
0.00902557
0.00945252
0.00992732
0.0104529
0.0110311
0.0116622
0.0123438
0.0130685
0.0138246
0.0145906
0.0153343
0.0160118
0.0165667
0.0168526
0.0169274
0.0167065
0.0161399
0.0150186
0.0135236
0.0117273
0.0097483
0.00774005
0.00585996
0.0042342
0.00293252
0.0019625
0.00128322
0.000830407
0.00054695
0.000439407
0.000796651
0.00114166
0.000603539
0.000551208
0.000610003
0.000721409
0.000877777
0.00108266
0.00134317
0.00166783
0.00206553
0.00254438
0.00310995
0.00376243
0.00449295
0.00527958
0.00608467
0.00685578
0.00753211
0.0080566
0.00836786
0.00850458
0.0085312
0.0083589
0.00803582
0.0076691
0.0073043
0.00696735
0.00666469
0.00640318
0.00618406
0.00600385
0.00586111
0.00575269
0.00567445
0.00562441
0.00560032
0.00559229
0.00560226
0.00563681
0.0056869
0.00575497
0.00583969
0.00594158
0.00606128
0.0062002
0.00636005
0.00654331
0.00675305
0.00699312
0.00726805
0.00758355
0.00794602
0.00836251
0.00884042
0.0093872
0.0100097
0.0107115
0.0114913
0.0123443
0.0132564
0.0141998
0.0151266
0.0159677
0.0165888
0.0168632
0.0168918
0.0164412
0.0153284
0.0137245
0.0117248
0.00950035
0.00727003
0.00524353
0.00357097
0.00231356
0.00144681
0.000893739
0.000571914
0.000462906
0.000827121
0.00155519
0.000797473
0.000727113
0.0008043
0.000949487
0.00115165
0.00141411
0.0017442
0.00215007
0.00263862
0.00321339
0.00387149
0.00459994
0.00537198
0.00614512
0.00686313
0.00746365
0.00788883
0.00809686
0.00816927
0.00807367
0.00777049
0.00739619
0.00700505
0.00662711
0.00628323
0.00598117
0.00572054
0.00550076
0.00531825
0.00516895
0.00504952
0.00495611
0.00488527
0.0048345
0.00480199
0.00478646
0.00478175
0.00479078
0.00481467
0.00485003
0.00489773
0.00495788
0.00503118
0.00511868
0.00522185
0.00534263
0.00548345
0.00564752
0.0058388
0.00606222
0.0063237
0.00663056
0.00699161
0.00741725
0.00791925
0.00851166
0.00920788
0.0100185
0.0109491
0.0119927
0.0131325
0.014323
0.0154849
0.0164941
0.0170907
0.0173041
0.0170213
0.0158942
0.0141171
0.011827
0.00928382
0.00679153
0.00461851
0.00292943
0.00175568
0.00102256
0.000617895
0.000482868
0.000843108
0.00206224
0.00102914
0.000937381
0.00103558
0.00121938
0.00147257
0.00179712
0.00219917
0.00268428
0.00325433
0.0039043
0.00461868
0.00536812
0.00610812
0.00678178
0.00732817
0.00767367
0.00782166
0.00784137
0.00763019
0.00728339
0.00688123
0.00647239
0.00608726
0.00573992
0.00543605
0.00517466
0.00495215
0.00476504
0.00460906
0.00448044
0.00437586
0.00429219
0.00422695
0.00417814
0.00414396
0.00412474
0.00411662
0.00411557
0.00412933
0.00415253
0.0041862
0.00423009
0.0042847
0.00435069
0.0044291
0.0045213
0.00462902
0.00475446
0.00490032
0.00506986
0.0052672
0.00549741
0.00576689
0.00608388
0.00645916
0.00690693
0.00744533
0.008096
0.00888435
0.00983609
0.0109642
0.0122612
0.0137
0.0151909
0.0165858
0.0175533
0.0179582
0.0178393
0.0166474
0.0145918
0.0119165
0.00899427
0.00623138
0.00395307
0.0023107
0.0012745
0.000713926
0.000518338
0.000881108
0.00266917
0.00130108
0.00118248
0.00130346
0.00152922
0.00183626
0.00222368
0.00269449
0.0032491
0.00388121
0.00457416
0.00529782
0.00600758
0.00664716
0.00715622
0.0074516
0.00756444
0.00753275
0.00727029
0.00689277
0.0064716
0.00605028
0.00565761
0.00530593
0.00499862
0.00473404
0.0045082
0.00431677
0.00415595
0.00402202
0.00391188
0.00382278
0.00375233
0.0036986
0.00365977
0.00363516
0.00362365
0.00362018
0.00362604
0.00364451
0.00367104
0.00370689
0.00375157
0.00380551
0.00386916
0.00394326
0.00402875
0.00412681
0.00423897
0.00436702
0.00451312
0.00467987
0.00487042
0.00508865
0.00533951
0.00562942
0.00596703
0.00636473
0.00684061
0.00742194
0.00814756
0.00906448
0.0102125
0.0116218
0.0132729
0.0150883
0.0168822
0.0182326
0.0188201
0.0188081
0.017458
0.0150045
0.0118522
0.00851764
0.00552894
0.00323663
0.00173053
0.000904333
0.000592824
0.000974873
0.00336655
0.00161046
0.0014607
0.00160529
0.00187446
0.00223523
0.00268203
0.00321261
0.00381971
0.00448651
0.00518332
0.00586652
0.00648095
0.00696689
0.00723743
0.00733365
0.00725871
0.00698203
0.00659102
0.00615429
0.0057214
0.00531948
0.00496109
0.0046483
0.00437909
0.00414928
0.00395451
0.00379086
0.00365495
0.00354368
0.0034544
0.0033847
0.00333241
0.0032955
0.00327378
0.00326429
0.00326221
0.00327041
0.00328866
0.00331544
0.00334979
0.00339202
0.00344199
0.00350008
0.00356676
0.00364272
0.00372884
0.00382622
0.00393614
0.00406006
0.00419961
0.00435662
0.0045331
0.00473132
0.00495393
0.0052043
0.00548701
0.00580863
0.00617916
0.00661216
0.00712874
0.00777109
0.00861741
0.00974473
0.011219
0.0130545
0.0151789
0.0173874
0.0191078
0.0198547
0.0198577
0.018178
0.0151927
0.0114766
0.00775682
0.00465791
0.00249008
0.00124621
0.000739251
0.00116435
0.00414555
0.00195444
0.00176862
0.0019362
0.00224801
0.0026592
0.00315767
0.00373386
0.00437102
0.00504073
0.00570119
0.00629904
0.00677543
0.00704108
0.00713181
0.00704555
0.00676472
0.00636736
0.00591953
0.00547365
0.00506009
0.00469181
0.00437125
0.00409574
0.00386125
0.0036633
0.00349795
0.00336172
0.00325151
0.0031644
0.00309775
0.00304898
0.00301568
0.00299812
0.00299121
0.00299051
0.00300067
0.00301896
0.00304463
0.00307695
0.00311575
0.00316118
0.00321347
0.00327313
0.00334084
0.00341745
0.003504
0.0036017
0.00371192
0.00383612
0.0039759
0.00413289
0.00430874
0.00450502
0.00472323
0.00496484
0.00523151
0.00552565
0.00585138
0.00621616
0.00663307
0.00711817
0.00770636
0.0084672
0.0095394
0.0110562
0.0130476
0.0154856
0.0181156
0.0201589
0.0210149
0.0208792
0.0186483
0.0149564
0.0106485
0.00666327
0.00364876
0.00180476
0.000992729
0.00148298
0.00499015
0.00232819
0.00210102
0.00228934
0.0026407
0.00309599
0.0036348
0.00423874
0.00488071
0.00552132
0.00610952
0.00658753
0.00686476
0.00695941
0.00688445
0.00661262
0.00621512
0.00575884
0.00529908
0.00487067
0.00448903
0.00415753
0.00387362
0.00363292
0.00343101
0.00326367
0.00312718
0.00301812
0.0029332
0.00286935
0.00282345
0.00279271
0.00277698
0.00277088
0.00277018
0.00277864
0.00279435
0.0028159
0.00284296
0.00287534
0.00291322
0.00295696
0.0030071
0.00306438
0.00312969
0.00320409
0.00328881
0.00338524
0.00349492
0.00361951
0.0037608
0.00392059
0.00410064
0.00430253
0.00452754
0.00477646
0.00504962
0.00534689
0.00566827
0.00601518
0.00639238
0.00681105
0.00728515
0.00784499
0.00856241
0.00957232
0.0111136
0.0132743
0.0160377
0.0190975
0.0213543
0.0222217
0.0216769
0.0186353
0.0141033
0.00928527
0.00527991
0.00263794
0.00138701
0.00194916
0.00588165
0.00272531
0.00245122
0.00265639
0.00304199
0.00353254
0.00409783
0.00470981
0.00533139
0.00591444
0.00640288
0.00670579
0.0068132
0.00676679
0.00651712
0.00612819
0.00566655
0.00519219
0.00474565
0.00434665
0.00400042
0.00370499
0.00345579
0.00324803
0.00307723
0.0029392
0.00283003
0.00274595
0.00268329
0.00263845
0.00260818
0.00259109
0.00258355
0.00258142
0.00258465
0.00259499
0.0026098
0.00262896
0.00265245
0.00268049
0.00271352
0.00275214
0.00279711
0.00284931
0.0029098
0.00297975
0.00306051
0.00315362
0.00326079
0.0033839
0.00352501
0.00368628
0.0038699
0.00407793
0.0043121
0.00457355
0.00486254
0.00517822
0.0055185
0.00588038
0.00626197
0.006665
0.0070991
0.00757703
0.00812726
0.00883013
0.00983124
0.0113941
0.0137561
0.0168802
0.0203793
0.0226419
0.023354
0.0220255
0.0178895
0.012494
0.00743188
0.00379227
0.0019474
0.00255693
0.00679981
0.0031382
0.00281139
0.00302808
0.00344085
0.00395607
0.00453272
0.005133
0.00571124
0.00621409
0.00655547
0.00668626
0.00668216
0.00646892
0.0060992
0.00563806
0.00514969
0.00468202
0.00426112
0.00389564
0.00358466
0.00332364
0.00310729
0.00293061
0.00278889
0.00267759
0.00259234
0.00252888
0.00248309
0.0024513
0.00243055
0.00241883
0.00241334
0.00241156
0.00241343
0.00242025
0.00243023
0.00244374
0.00246106
0.00248268
0.00250921
0.00254138
0.00258004
0.00262614
0.00268074
0.00274504
0.00282043
0.00290849
0.00301102
0.00313008
0.00326799
0.0034273
0.00361074
0.00382107
0.00406088
0.00433229
0.00463648
0.00497328
0.00534062
0.00573426
0.00614796
0.00657541
0.00701462
0.00747391
0.00796468
0.00852108
0.00922674
0.0102484
0.0118998
0.0145283
0.0180823
0.0219861
0.0239245
0.0243041
0.0216168
0.0161772
0.0101312
0.00531633
0.00269245
0.00327699
0.00772049
0.00355842
0.0031732
0.0033949
0.00382653
0.00435497
0.0049279
0.00549825
0.00601361
0.00640649
0.00658681
0.00661484
0.00645574
0.00611961
0.00566812
0.00516918
0.00467871
0.0042313
0.0038412
0.00350973
0.00323259
0.00300404
0.00281837
0.00267019
0.00255431
0.00246564
0.00239935
0.00235073
0.00231567
0.00229087
0.00227366
0.00226194
0.00225393
0.00224925
0.0022474
0.00224764
0.0022514
0.00225821
0.00226892
0.002284
0.00230414
0.00233011
0.0023627
0.00240281
0.00245146
0.00250978
0.00257909
0.00266093
0.00275713
0.0028698
0.00300146
0.00315495
0.00333349
0.00354057
0.00377977
0.00405446
0.00436739
0.00471999
0.00511166
0.00553901
0.0059952
0.00646998
0.00695163
0.00743339
0.00792318
0.00843185
0.00900044
0.00972973
0.0108126
0.0126439
0.0156591
0.0197864
0.0237086
0.0252558
0.0247439
0.0200959
0.013377
0.00725404
0.00363763
0.00406748
0.00862037
0.00397725
0.00352831
0.00374779
0.00418931
0.00471963
0.00527529
0.00580106
0.00623899
0.00649117
0.00655957
0.00646568
0.00617733
0.00574967
0.00524781
0.00473559
0.00425796
0.0038374
0.00347948
0.00318096
0.00293571
0.00273726
0.0025794
0.00245617
0.00236177
0.00229071
0.00223774
0.00219824
0.00216852
0.00214578
0.00212783
0.00211318
0.00210096
0.00209097
0.00208313
0.00207814
0.00207614
0.00207639
0.00208125
0.00209077
0.00210558
0.00212632
0.00215372
0.00218856
0.00223173
0.00228426
0.00234734
0.00242244
0.00251129
0.002616
0.00273912
0.00288366
0.00305318
0.00325172
0.00348375
0.00375392
0.00406667
0.00442562
0.00483263
0.00528668
0.00578269
0.00631049
0.00685451
0.00739566
0.00791997
0.00842822
0.00895398
0.00955833
0.0103302
0.0115289
0.0136531
0.0171759
0.021939
0.0254492
0.0264064
0.0238514
0.0170996
0.00965331
0.004799
0.00489165
0.00947786
0.00438629
0.00386893
0.00407862
0.00452101
0.00504269
0.00556979
0.00604119
0.00637144
0.00649715
0.00648238
0.00625899
0.00587165
0.00538044
0.0048522
0.00434301
0.00388654
0.00349541
0.00316915
0.00290177
0.002686
0.0025147
0.00238106
0.00227849
0.00220077
0.0021421
0.00209732
0.00206228
0.00203394
0.00201004
0.00198906
0.00197017
0.00195306
0.00193783
0.00192478
0.00191438
0.00190735
0.00190422
0.00190384
0.00190897
0.00191971
0.00193637
0.00195957
0.00198998
0.00202834
0.00207555
0.00213267
0.00220101
0.0022822
0.00237824
0.00249159
0.0026253
0.00278303
0.00296915
0.00318874
0.00344746
0.00375133
0.00410613
0.0045166
0.00498517
0.00551029
0.0060847
0.00669398
0.00731596
0.00792331
0.00849799
0.00901783
0.00954196
0.0101871
0.0110334
0.0124353
0.0150654
0.0192973
0.0245484
0.026995
0.0268874
0.0211019
0.0125701
0.00618026
0.00573354
0.0102741
0.00477797
0.0041882
0.00438064
0.00481529
0.00531889
0.00580724
0.00621201
0.00642786
0.00647144
0.00634232
0.00601905
0.0055574
0.00502558
0.00448827
0.00399231
0.00356109
0.0031997
0.00290362
0.00266506
0.00247588
0.00232828
0.00221481
0.00212843
0.0020627
0.00201188
0.00197128
0.00193746
0.00190804
0.00188139
0.00185661
0.0018334
0.00181182
0.00179221
0.001775
0.0017607
0.00174982
0.00174344
0.001741
0.00174238
0.00175009
0.00176365
0.00178351
0.00181023
0.00184444
0.00188689
0.00193851
0.00200047
0.00207423
0.00216162
0.00226497
0.00238718
0.00253186
0.00270345
0.00290731
0.00314975
0.0034379
0.00377941
0.00418174
0.00465097
0.00519007
0.00579656
0.00645994
0.00715958
0.00786359
0.0085324
0.0091605
0.0096842
0.0101996
0.0108876
0.0118645
0.0136064
0.0169791
0.0222038
0.0270471
0.02846
0.0250464
0.016041
0.00782119
0.00658551
0.0109941
0.00514595
0.00448058
0.00464876
0.00506803
0.00554644
0.00599129
0.00630915
0.00642878
0.00640259
0.00616741
0.00576269
0.00524768
0.00469307
0.00415857
0.00368171
0.00327724
0.00294467
0.00267669
0.00246425
0.00229844
0.0021708
0.00207342
0.00199904
0.00194128
0.00189482
0.00185568
0.00182116
0.0017895
0.00175968
0.0017313
0.00170441
0.00167932
0.00165647
0.00163633
0.0016194
0.00160613
0.00159736
0.00159339
0.00159265
0.00159782
0.00160896
0.00162611
0.00164972
0.00168032
0.00171856
0.00176523
0.00182136
0.00188823
0.00196751
0.0020613
0.0021723
0.00230392
0.00246046
0.00264727
0.00287088
0.00313909
0.00346082
0.00384573
0.00430327
0.00484106
0.0054625
0.00616348
0.00692893
0.00773007
0.00852353
0.00925768
0.00990156
0.0104212
0.0109255
0.0116858
0.012881
0.0152426
0.019611
0.0259026
0.0290692
0.0284454
0.0200406
0.00982084
0.0075213
0.0116262
0.00548509
0.00474201
0.00487956
0.00527667
0.00572352
0.00611782
0.00634862
0.00640535
0.00628737
0.00597002
0.00550213
0.00495108
0.00438691
0.00386298
0.00340822
0.00303041
0.00272498
0.00248266
0.00229339
0.00214756
0.00203621
0.00195115
0.0018852
0.00183233
0.00178787
0.00174858
0.00171247
0.00167832
0.00164562
0.00161432
0.00158469
0.00155714
0.00153212
0.00151011
0.00149154
0.00147681
0.0014663
0.00146097
0.00145927
0.00146229
0.00147142
0.00148626
0.00150716
0.00153458
0.00156907
0.00161133
0.00166224
0.00172293
0.00179488
0.00187997
0.00198063
0.00209999
0.00224208
0.00241201
0.00261622
0.00286269
0.00316103
0.00352235
0.00395874
0.00448198
0.00510128
0.00581986
0.00663037
0.0075101
0.00841728
0.00929152
0.0100932
0.0107172
0.0112053
0.0116981
0.0125991
0.0142114
0.0176279
0.0234523
0.0291775
0.0306654
0.0244086
0.0123182
0.00867639
0.012161
0.00579183
0.00497005
0.00507132
0.00544061
0.00585185
0.00618976
0.00634289
0.00634663
0.00614598
0.00576111
0.00524614
0.00467279
0.00410852
0.00359989
0.00316832
0.00281614
0.00253577
0.00231644
0.00214728
0.00201811
0.00191967
0.00184374
0.00178344
0.0017333
0.0016894
0.00164922
0.00161132
0.00157498
0.00154001
0.00150661
0.00147514
0.00144602
0.00141969
0.00139656
0.00137698
0.00136126
0.00134969
0.00134318
0.00134075
0.00134199
0.0013493
0.00136206
0.00138053
0.0014051
0.00143624
0.00147456
0.00152085
0.00157609
0.00164157
0.00171896
0.00181041
0.00191876
0.00204765
0.00220184
0.00238743
0.00261224
0.002886
0.0032206
0.00362988
0.00412887
0.00473204
0.00545002
0.00628482
0.00722356
0.00823211
0.00925077
0.0101983
0.0110078
0.0115923
0.0120256
0.0125578
0.0137291
0.016122
0.02106
0.0283162
0.0317291
0.0287962
0.0154449
0.0101611
0.0125994
0.00606472
0.00516366
0.00522395
0.00556122
0.00593414
0.00621043
0.0063149
0.0062528
0.00598689
0.00554892
0.00500059
0.00441559
0.00385772
0.00336696
0.00295846
0.0026303
0.00237262
0.00217355
0.00202153
0.00190598
0.00181752
0.00174817
0.00169151
0.00164275
0.00159868
0.00155739
0.00151792
0.00147989
0.00144335
0.0014086
0.00137601
0.001346
0.00131893
0.00129514
0.00127492
0.00125852
0.00124614
0.00123854
0.00123537
0.00123517
0.00124068
0.00125149
0.00126771
0.00128966
0.00131777
0.00135259
0.00139479
0.00144525
0.0015051
0.0015758
0.00165925
0.00175795
0.00187518
0.00201525
0.00218381
0.00238823
0.00263801
0.00294515
0.00332441
0.00379303
0.00436958
0.00507138
0.00590982
0.0068834
0.00796914
0.00911447
0.0102328
0.0112448
0.0119917
0.0124794
0.0128553
0.0135886
0.0152788
0.0191686
0.0262836
0.0320933
0.0325006
0.0192895
0.0119216
0.0129416
0.00630355
0.00532303
0.00533844
0.00564034
0.00597316
0.00619566
0.00625528
0.00613641
0.0058177
0.00533963
0.00476927
0.00418063
0.00363337
0.00316157
0.00277522
0.00246912
0.00223171
0.0020502
0.00191254
0.00180793
0.00172708
0.00166239
0.00160802
0.00155986
0.00151535
0.00147308
0.00143242
0.00139325
0.00135574
0.00132022
0.00128704
0.00125656
0.0012291
0.00120491
0.00118423
0.00116725
0.00115418
0.00114535
0.00114115
0.00114011
0.00114377
0.0011527
0.00116679
0.00118632
0.00121167
0.00124334
0.00128192
0.00132821
0.00138318
0.00144811
0.00152469
0.00161509
0.00172223
0.00184997
0.00200342
0.00218938
0.00241684
0.00269748
0.00304624
0.00348153
0.00402484
0.00469892
0.00552386
0.00651021
0.00764921
0.00890134
0.0101869
0.0113875
0.0123681
0.0129948
0.0133287
0.0137254
0.0149034
0.0177101
0.0239246
0.0321279
0.0348799
0.0239532
0.0138071
0.0131818
0.00650927
0.00544649
0.00541718
0.00568021
0.00597162
0.00615119
0.00617112
0.0060041
0.00564432
0.00513757
0.00455438
0.00396795
0.00343386
0.00298107
0.00261545
0.00232929
0.00210971
0.00194323
0.00181744
0.00172152
0.00164642
0.00158501
0.00153208
0.00148416
0.00143922
0.00139621
0.00135478
0.00131494
0.00127693
0.00124104
0.00120761
0.00117692
0.00114923
0.00112474
0.00110365
0.00108612
0.0010723
0.00106237
0.00105701
0.00105518
0.00105707
0.00106416
0.00107622
0.00109348
0.0011163
0.00114512
0.00118049
0.00122311
0.00127385
0.00133384
0.00140454
0.00148788
0.00158641
0.00170355
0.00184388
0.00201357
0.00222092
0.00247701
0.00279642
0.0031979
0.00370459
0.00434322
0.00514113
0.00612021
0.00728668
0.00861725
0.010044
0.0114421
0.01269
0.0135281
0.0139345
0.0141786
0.0148166
0.0168453
0.0218989
0.0310246
0.0362033
0.0291043
0.0158544
0.0133259
0.00668343
0.00553686
0.00546213
0.00568245
0.00594641
0.00607785
0.00606684
0.0058615
0.0054713
0.00494568
0.00435698
0.00377694
0.00325735
0.00282292
0.00247632
0.00220791
0.00200382
0.00185004
0.00173399
0.00164492
0.00157415
0.00151508
0.00146311
0.0014153
0.00137005
0.0013266
0.00128476
0.00124463
0.00120642
0.00117044
0.00113694
0.00110616
0.00107831
0.00105355
0.00103205
0.00101393
0.000999351
0.000988431
0.000981784
0.000979115
0.000979402
0.000984694
0.00099482
0.00100996
0.00103043
0.00105665
0.00108913
0.0011285
0.00117555
0.00123128
0.00129698
0.00137433
0.00146558
0.00157371
0.00170281
0.0018584
0.00204805
0.00228204
0.00257424
0.00294309
0.00341239
0.00401137
0.00477301
0.0057292
0.00690122
0.00828497
0.00983305
0.0114383
0.0129286
0.0140465
0.0145802
0.014794
0.01509
0.0164488
0.0204393
0.0291596
0.0367962
0.0341763
0.0179275
0.0133648
0.0068252
0.00559727
0.00547575
0.00566512
0.0058885
0.00598737
0.00594651
0.00571293
0.00530196
0.00476579
0.00417736
0.0036066
0.00310195
0.00268479
0.00235532
0.00210251
0.0019117
0.00176856
0.00166041
0.00157673
0.00150925
0.00145191
0.00140063
0.00135295
0.00130756
0.00126394
0.00122197
0.00118179
0.00114362
0.00110768
0.00107421
0.0010434
0.0010154
0.000990367
0.000968437
0.000949738
0.000934406
0.000922581
0.000914574
0.000910785
0.000909972
0.000913447
0.000921722
0.000934857
0.000953143
0.000976972
0.00100683
0.00104329
0.0010871
0.00113913
0.00120054
0.00127282
0.00135791
0.00145845
0.00157803
0.00172157
0.00189589
0.00211037
0.002378
0.00271644
0.00314935
0.00370717
0.00442678
0.00534816
0.00650607
0.007915
0.00954807
0.0113144
0.0130465
0.0145137
0.015271
0.0155228
0.0156193
0.0163326
0.0192497
0.0270663
0.0369966
0.0384863
0.0198249
0.0133319
0.00693982
0.00563396
0.00546825
0.00562097
0.00580548
0.00588045
0.00581504
0.00556186
0.00513862
0.00459891
0.00401528
0.00345569
0.00296584
0.00256455
0.00225028
0.00201097
0.00183143
0.00169709
0.00159534
0.00151591
0.00145097
0.00139495
0.00134424
0.00129674
0.00125139
0.0012078
0.00116591
0.00112586
0.00108784
0.00105204
0.00101864
0.000987805
0.000959668
0.000934359
0.000912004
0.000892726
0.00087666
0.000863947
0.000854744
0.000849686
0.000847984
0.000849773
0.000856299
0.000867554
0.0008838
0.000905413
0.000932856
0.000966688
0.00100758
0.00105637
0.00111407
0.00118201
0.00126191
0.00135607
0.00146765
0.00160098
0.00176217
0.00195971
0.00220555
0.00251636
0.00291501
0.00343221
0.00410715
0.00498602
0.00611554
0.00752898
0.00922329
0.01113
0.0130875
0.0148818
0.0159706
0.0163209
0.0163415
0.0165727
0.0186334
0.0250884
0.0368609
0.0416661
0.0213623
0.0132289
0.00702996
0.00564903
0.00544291
0.00555246
0.00570481
0.00576021
0.00567614
0.00541093
0.00498284
0.00444545
0.00387014
0.00332292
0.0028473
0.00246034
0.00215933
0.00193153
0.00176141
0.0016343
0.00153769
0.00146162
0.00139867
0.00134371
0.00129353
0.0012463
0.00120113
0.00115773
0.00111606
0.00107625
0.00103845
0.00100282
0.000969522
0.000938675
0.000910407
0.000884836
0.000862079
0.000842261
0.000825511
0.000811965
0.000801765
0.000795436
0.000792877
0.00079321
0.000798103
0.000807599
0.00082194
0.000841485
0.000866688
0.000898091
0.000936342
0.000982218
0.00103667
0.00110087
0.00117637
0.00126517
0.00137004
0.0014948
0.00164485
0.00182784
0.00205466
0.00234078
0.00270798
0.00318639
0.00381619
0.00464779
0.00573762
0.00713612
0.00886485
0.0108841
0.0130595
0.0151438
0.0166334
0.017184
0.0171991
0.017121
0.0183782
0.0236644
0.0356394
0.0435928
0.022425
0.0130604
0.00709999
0.00564664
0.00539411
0.00546676
0.00559048
0.00562983
0.00553274
0.00526215
0.00483555
0.00430535
0.00374113
0.00320696
0.00274477
0.00237052
0.00208086
0.00186271
0.00170036
0.0015791
0.00148659
0.00141318
0.00135182
0.00129776
0.0012481
0.00120121
0.00115634
0.00111324
0.00107188
0.00103237
0.000994839
0.000959417
0.00092623
0.000895394
0.000867022
0.000841226
0.000818122
0.000797835
0.000780491
0.00076623
0.000755199
0.000747683
0.00074412
0.000743439
0.000746786
0.00075465
0.000767214
0.000784825
0.00080793
0.000837067
0.000872872
0.000916096
0.000967635
0.00102858
0.0011003
0.00118459
0.00128385
0.00140145
0.00154215
0.00171276
0.00192316
0.00218755
0.00252638
0.00296867
0.00355455
0.00433688
0.00537955
0.006748
0.00848738
0.0105866
0.0129365
0.0153027
0.0172327
0.0180756
0.0181498
0.0178405
0.0183364
0.0225827
0.034186
0.0444616
0.0229666
0.0128456
0.00715606
0.00563568
0.0053321
0.00536799
0.00546603
0.00549226
0.00538721
0.00511692
0.00469719
0.00417824
0.0036273
0.00310656
0.00265685
0.00229368
0.00201355
0.0018033
0.00164721
0.00153061
0.00144134
0.00137003
0.00130996
0.00125669
0.00120754
0.00116106
0.00111657
0.00107384
0.00103286
0.000993701
0.000956469
0.000921277
0.000888233
0.000857441
0.00082901
0.00080305
0.000779678
0.000759014
0.000741187
0.00072633
0.000714587
0.000706118
0.000701512
0.000700059
0.000702037
0.00070841
0.000719332
0.000735135
0.000756265
0.000783265
0.000816773
0.000857535
0.00090642
0.00096446
0.00103291
0.00111337
0.00120795
0.0013196
0.00145249
0.00161268
0.00180903
0.00205452
0.00236813
0.00277741
0.00332163
0.00405467
0.00504569
0.00637289
0.00810419
0.0102598
0.0127602
0.0153777
0.0177393
0.0189791
0.0192054
0.0187332
0.0186946
0.0217606
0.0326487
0.044719
0.0231961
0.0125758
0.00719687
0.00561247
0.00525966
0.0052597
0.00533451
0.00535008
0.00524142
0.00497622
0.00456786
0.00406354
0.00352763
0.0030205
0.00258231
0.00222863
0.00195628
0.00175232
0.00160111
0.00148812
0.00140135
0.00133168
0.00127266
0.0012201
0.00117147
0.00112544
0.00108139
0.0010391
0.000998536
0.00095976
0.00092286
0.000887929
0.000855065
0.000824367
0.000795942
0.000769898
0.000746352
0.000725423
0.000707236
0.000691916
0.000679595
0.00067041
0.000664857
0.000662726
0.000663548
0.000668587
0.000678003
0.000692125
0.000711398
0.000736373
0.000767702
0.000806143
0.000852565
0.000907968
0.000973534
0.00105071
0.00114138
0.0012481
0.00137454
0.00152603
0.00171049
0.00193969
0.00223112
0.00261068
0.00311617
0.00380132
0.00473851
0.00601603
0.0077225
0.00991052
0.0125384
0.0154031
0.0181353
0.0198543
0.0203166
0.0197296
0.0192929
0.0213357
0.0310941
0.0445363
0.0232618
0.0122659
0.00722688
0.00558203
0.00517831
0.00514536
0.00519867
0.00520553
0.00509682
0.00484063
0.00444736
0.0039605
0.0034411
0.00294766
0.00252004
0.00217436
0.00190815
0.00170895
0.00156138
0.00145106
0.00136615
0.00129773
0.00123956
0.00118762
0.00113952
0.00109398
0.00105041
0.00100859
0.000968481
0.000930123
0.000893587
0.000858957
0.000826323
0.000795782
0.000767439
0.000741402
0.000717788
0.000696714
0.000678298
0.00066266
0.00064992
0.000640201
0.000633846
0.000631091
0.000630995
0.000634854
0.000642909
0.00065548
0.000673013
0.000696072
0.000725327
0.000761561
0.000805662
0.000858633
0.000921614
0.000995951
0.00108333
0.00118599
0.00130713
0.00145144
0.00162594
0.00184124
0.00211338
0.00246646
0.0029365
0.00357615
0.00445928
0.00568166
0.0073498
0.00954762
0.0122753
0.0153721
0.0184568
0.020687
0.021431
0.0209285
0.0200567
0.0211654
0.0296158
0.0437771
0.0232236
0.0119228
0.0072448
0.00554676
0.00509211
0.00502731
0.00506076
0.00506048
0.00495454
0.00471049
0.00433532
0.0038683
0.00336661
0.002887
0.00246914
0.00213007
0.00186845
0.00167258
0.00152748
0.00141895
0.00133532
0.0012678
0.00121031
0.00115893
0.00111134
0.00106631
0.00102325
0.000981942
0.000942318
0.00090441
0.000868278
0.000833996
0.00080165
0.000771337
0.000743158
0.000717225
0.00069365
0.00067255
0.000654035
0.000638218
0.000625208
0.000615123
0.000608123
0.000604688
0.000604002
0.000606835
0.000613677
0.000624835
0.000640755
0.000662008
0.000689293
0.000723423
0.000765324
0.000816024
0.000876657
0.000948507
0.00103311
0.00113244
0.00124929
0.00138773
0.00155398
0.00175754
0.00201303
0.00234277
0.00278075
0.00337789
0.00420816
0.00537238
0.00699199
0.00918003
0.0119784
0.0152687
0.018694
0.0214727