/*--------------------------------*- C++ -*----------------------------------*\
  =========                 |
  \\      /  F ield         | OpenFOAM: The Open Source CFD Toolbox
   \\    /   O peration     | Website:  https://openfoam.org
    \\  /    A nd           | Version:  13
     \\/     M anipulation  |
\*---------------------------------------------------------------------------*/
FoamFile
{
    format      ascii;
    class       volScalarField;
    location    "2.5";
    object      k;
}
// * * * * * * * * * * * * * * * * * * * * * * * * * * * * * * * * * * * * * //

dimensions      [0 2 -2 0 0 0 0];

internalField   nonuniform List<scalar> 
6400
(
3.16154e-07
1.61011e-06
3.70792e-06
6.07589e-06
8.41335e-06
1.0667e-05
1.29115e-05
1.52483e-05
1.77547e-05
2.04731e-05
2.34129e-05
2.65707e-05
2.99352e-05
3.34966e-05
3.72796e-05
4.12788e-05
4.55051e-05
4.99715e-05
5.46814e-05
5.96288e-05
6.48314e-05
7.03761e-05
7.64968e-05
8.35879e-05
9.18266e-05
0.000101124
0.000111079
0.000121192
0.000131648
0.00014265
0.000154401
0.000166885
0.000179727
0.000192502
0.000205222
0.0002179
0.000230606
0.000243508
0.000256704
0.000270341
0.00028453
0.000299365
0.000314983
0.000331525
0.000348801
0.000366848
0.000385705
0.000405937
0.000428618
0.000456648
0.000486078
0.000515519
0.000544365
0.00057195
0.000597366
0.000619569
0.000637403
0.000647619
0.000652067
0.000652267
0.000640329
0.000618114
0.000585978
0.000543902
0.000493087
0.000435979
0.000375863
0.000314908
0.000254692
0.000197928
0.00014728
0.00010739
7.50711e-05
5.01062e-05
3.19625e-05
1.94519e-05
1.12192e-05
5.96131e-06
2.55858e-06
5.17721e-07
1.59104e-06
1.34983e-05
3.14337e-05
5.05728e-05
6.88023e-05
8.60117e-05
0.000102847
0.000120024
0.000138056
0.000157219
0.00017759
0.000199188
0.000222003
0.000246046
0.000271278
0.000297877
0.000326042
0.000355925
0.000387614
0.000421112
0.000456555
0.000494427
0.000535948
0.000582986
0.000636304
0.000695026
0.000756635
0.000818462
0.000880688
0.000943493
0.00100715
0.00107114
0.00113329
0.00119179
0.00124687
0.00129866
0.00134766
0.00139483
0.00144074
0.00148622
0.00153193
0.00157841
0.00162628
0.00167605
0.00172731
0.00178005
0.00183392
0.00188891
0.00194373
0.00199723
0.00205246
0.00210882
0.00216537
0.00222003
0.00227116
0.00231617
0.00235255
0.00237217
0.00237866
0.00237136
0.00233943
0.00227964
0.00219248
0.00207681
0.0019333
0.00176608
0.0015838
0.00138847
0.00118789
0.000990106
0.000802571
0.000624986
0.000467209
0.000334457
0.000228549
0.000147982
8.98643e-05
4.97154e-05
2.16023e-05
2.70846e-06
3.69885e-06
3.15781e-05
7.02096e-05
0.000107066
0.000140152
0.000171039
0.00020146
0.000232747
0.000265761
0.000300982
0.000338638
0.000378888
0.000421902
0.000467922
0.000517255
0.000570269
0.000627306
0.000688558
0.000753953
0.000823091
0.000895276
0.000969406
0.00104405
0.00111742
0.00118786
0.00125332
0.00131245
0.00136507
0.00141039
0.00145004
0.00148629
0.00151946
0.00155249
0.00158529
0.0016185
0.00165266
0.00168787
0.00172514
0.00176466
0.00180696
0.00185243
0.00190113
0.00195321
0.00200861
0.00206752
0.00213003
0.00219621
0.00226585
0.00233789
0.00241281
0.00249023
0.00256904
0.00264802
0.00272539
0.00279916
0.00286674
0.00292514
0.00297081
0.00299552
0.00300302
0.00298934
0.0029424
0.00286142
0.00274477
0.00259025
0.00240028
0.00218433
0.00194762
0.00169846
0.00144639
0.00120084
0.000969621
0.000759592
0.000576121
0.000421812
0.000296446
0.000197288
0.000118945
5.44028e-05
6.80589e-06
6.64725e-06
5.54508e-05
0.000115461
0.000167477
0.000212966
0.000255715
0.000298382
0.000342734
0.000389885
0.000440479
0.000494887
0.000553376
0.000616188
0.000683561
0.000755676
0.000832533
0.000913781
0.000998568
0.00108542
0.00117224
0.00125638
0.00133489
0.00140518
0.00146511
0.00151368
0.00155132
0.00157882
0.00159922
0.00161551
0.00163128
0.00164884
0.00166711
0.00168749
0.00170925
0.00173404
0.00176192
0.00179292
0.00182742
0.00186546
0.00190701
0.00195222
0.00200121
0.00205401
0.00211066
0.00217116
0.00223539
0.00230309
0.00237414
0.00244892
0.00252703
0.00260795
0.00269084
0.00277463
0.00285783
0.00293855
0.0030144
0.00308251
0.00313944
0.00317943
0.00319768
0.00320021
0.00317767
0.00311975
0.00302628
0.00289189
0.00271455
0.0024977
0.0022531
0.00198831
0.00171372
0.00144052
0.00117936
0.00093927
0.000726768
0.000545486
0.000395863
0.000274748
0.000175152
8.52842e-05
1.09833e-05
1.06008e-05
8.57155e-05
0.000167669
0.000234302
0.000291964
0.00034647
0.000401343
0.000458787
0.000520152
0.000586219
0.000657411
0.000733928
0.00081579
0.000902789
0.000994346
0.00108934
0.0011859
0.00128136
0.00137239
0.00145527
0.00152658
0.00158353
0.00162585
0.00165367
0.00166749
0.0016736
0.00167619
0.00167851
0.00168076
0.00168464
0.00169197
0.00170223
0.0017159
0.00173275
0.00175328
0.00177715
0.00180443
0.00183505
0.00186882
0.00190603
0.00194662
0.00199019
0.00203685
0.00208663
0.0021396
0.00219582
0.00225535
0.00231865
0.00238568
0.0024563
0.00253032
0.00260737
0.00268688
0.00276804
0.00284964
0.00292992
0.00300667
0.00307703
0.00313735
0.0031815
0.00320166
0.00320368
0.00317149
0.00310692
0.00300836
0.00287096
0.00268171
0.00245206
0.00219066
0.00190838
0.00161829
0.00133415
0.00106857
0.000831179
0.000627688
0.000459581
0.000323751
0.000211667
0.000107189
1.39892e-05
1.57661e-05
0.000122986
0.000227882
0.000309649
0.000379996
0.000446656
0.000513999
0.000584662
0.000660204
0.000741428
0.000828593
0.000921506
0.00101951
0.00112139
0.00122516
0.001328
0.00142621
0.00151556
0.00159194
0.00165185
0.0016942
0.0017149
0.00172157
0.00172021
0.00170944
0.00169887
0.00168893
0.00168268
0.00168012
0.00167998
0.00168404
0.00169104
0.00170137
0.0017146
0.00173078
0.00174954
0.00177075
0.00179403
0.00181913
0.00184587
0.00187446
0.00190523
0.00193824
0.00197371
0.00201183
0.00205292
0.00209735
0.00214497
0.00219611
0.00225103
0.00230993
0.00237298
0.00244019
0.00251141
0.00258627
0.00266412
0.0027437
0.00282336
0.00290057
0.00297182
0.00303282
0.00307355
0.00308955
0.00308046
0.00302873
0.00293803
0.00280483
0.00261057
0.00236982
0.00209207
0.00179162
0.00148568
0.00119183
0.000925018
0.000695174
0.000506112
0.000355222
0.000232746
0.00011969
1.55787e-05
2.23216e-05
0.000167454
0.000296544
0.000394236
0.000477857
0.000556999
0.000636856
0.000720454
0.000809449
0.000904471
0.00100531
0.00111098
0.00121967
0.00132867
0.00143435
0.00153223
0.00161748
0.00168567
0.0017341
0.00175749
0.00176407
0.00175619
0.00173851
0.00172013
0.00170253
0.00168653
0.00167294
0.00166306
0.00165605
0.00165213
0.00165091
0.00165177
0.00165587
0.00166196
0.00167009
0.00167993
0.00169138
0.00170424
0.00171857
0.00173462
0.0017521
0.00177114
0.00179175
0.00181408
0.00183832
0.00186466
0.00189333
0.0019246
0.00195889
0.00199665
0.00203846
0.00208493
0.00213666
0.00219426
0.00225823
0.00232895
0.00240626
0.00248933
0.00257709
0.00266796
0.0027586
0.0028438
0.00291715
0.0029619
0.00297713
0.00295202
0.00288247
0.00275402
0.00255402
0.00229673
0.00199553
0.00167014
0.00134376
0.00103882
0.000772526
0.000553737
0.000381773
0.000246174
0.000125956
1.6172e-05
3.04068e-05
0.000218863
0.000373513
0.000487921
0.000585233
0.000676873
0.000768809
0.000864372
0.000965148
0.00107133
0.00118191
0.00129474
0.00140657
0.00151314
0.00160946
0.00169031
0.0017514
0.0017856
0.00179734
0.00179327
0.00177286
0.00174965
0.00172362
0.00169795
0.0016724
0.00164995
0.00163146
0.00161644
0.00160434
0.00159536
0.00158898
0.00158541
0.00158392
0.00158365
0.0015853
0.00158849
0.00159311
0.00159911
0.00160636
0.00161483
0.00162444
0.00163523
0.00164727
0.00166062
0.0016754
0.00169179
0.00170998
0.00173024
0.00175291
0.00177835
0.00180718
0.00183999
0.00187751
0.00192061
0.0019703
0.00202769
0.00209403
0.00217014
0.00225559
0.00235136
0.00245576
0.00256617
0.00267751
0.00278243
0.00286569
0.00290448
0.00290849
0.00285737
0.0027352
0.00252198
0.00223886
0.00190486
0.00154739
0.00119732
0.000882298
0.000620405
0.000416284
0.000260359
0.000130305
1.64818e-05
4.03194e-05
0.000276325
0.000458191
0.000589944
0.000701052
0.000804754
0.000907733
0.0010135
0.00112336
0.00123683
0.00135183
0.00146489
0.00157135
0.00166585
0.0017429
0.00179692
0.00182186
0.00182684
0.00181128
0.0017863
0.0017547
0.00171936
0.00168215
0.00164845
0.00161852
0.00159354
0.00157214
0.00155404
0.00153888
0.00152655
0.00151674
0.00150933
0.00150388
0.00150054
0.00149911
0.00149882
0.00150033
0.00150339
0.00150774
0.00151331
0.00152005
0.00152792
0.00153692
0.00154705
0.00155841
0.0015711
0.00158527
0.00160117
0.00161907
0.00163931
0.00166208
0.00168775
0.00171668
0.00174931
0.00178623
0.00182828
0.00187671
0.0019335
0.00200177
0.00208288
0.00217966
0.00229146
0.00241509
0.00254909
0.00268278
0.00280366
0.00287332
0.0028936
0.00286057
0.00273893
0.00250298
0.00218378
0.00180862
0.00141507
0.00104277
0.000723273
0.000471937
0.000284119
0.000137413
1.72216e-05
5.21868e-05
0.000339304
0.000549644
0.000699018
0.000823631
0.000938463
0.00105082
0.00116425
0.00127961
0.00139554
0.00150882
0.00161476
0.00170781
0.00178234
0.00183027
0.00184904
0.0018492
0.00182648
0.00179628
0.00175576
0.00170892
0.00166379
0.00162333
0.00158746
0.00155611
0.00152917
0.00150576
0.00148571
0.0014688
0.00145489
0.00144381
0.0014354
0.00142943
0.00142622
0.00142499
0.00142492
0.00142727
0.00143118
0.00143645
0.00144297
0.00145061
0.0014593
0.001469
0.00147973
0.00149154
0.00150454
0.00151886
0.00153463
0.00155204
0.00157124
0.00159239
0.00161572
0.00164142
0.00166965
0.00170061
0.00173463
0.00177224
0.00181426
0.00186176
0.00191672
0.00198297
0.00206648
0.00217471
0.00230682
0.00245527
0.00261569
0.00276856
0.00286853
0.00290288
0.00288028
0.00274877
0.00247876
0.0021132
0.00169119
0.00126297
0.000875905
0.000561664
0.0003268
0.000152043
1.90511e-05
6.58237e-05
0.000407312
0.000646548
0.000813404
0.000950817
0.00107537
0.00119489
0.00131282
0.00142946
0.00154255
0.00164785
0.00173989
0.00181285
0.0018575
0.00187358
0.00186944
0.00184365
0.00180575
0.00175522
0.00170021
0.00164829
0.00160086
0.00155897
0.00152211
0.00148996
0.00146212
0.00143815
0.00141797
0.00140143
0.00138841
0.00137873
0.00137228
0.00136917
0.00136821
0.001369
0.00137228
0.00137739
0.00138395
0.00139172
0.00140056
0.00141033
0.00142097
0.00143243
0.00144473
0.00145792
0.00147209
0.00148735
0.00150385
0.00152176
0.00154127
0.00156257
0.00158577
0.00161099
0.00163827
0.00166754
0.00169874
0.00173191
0.00176729
0.00180495
0.00184582
0.0018918
0.00194626
0.00201427
0.00210423
0.00223278
0.00239309
0.00257387
0.00275658
0.00288192
0.00292621
0.00290342
0.00274704
0.0024294
0.0020077
0.00153819
0.00108335
0.000694858
0.000397158
0.000179583
2.27505e-05
8.10571e-05
0.000479281
0.000747204
0.000931019
0.00108015
0.00121262
0.00133666
0.00145556
0.00156902
0.00167401
0.00176563
0.00183819
0.00188202
0.00189718
0.00189061
0.00186185
0.00181798
0.00175907
0.00169681
0.00163737
0.00158332
0.00153519
0.00149298
0.00145613
0.00142429
0.00139715
0.00137451
0.00135629
0.00134231
0.00133235
0.00132664
0.00132428
0.00132394
0.00132635
0.00133095
0.00133748
0.00134539
0.00135442
0.00136435
0.00137506
0.00138644
0.00139846
0.00141113
0.00142451
0.00143867
0.00145375
0.00146988
0.00148723
0.00150599
0.00152634
0.00154843
0.00157241
0.00159837
0.00162637
0.00165643
0.0016883
0.00172144
0.00175535
0.00178982
0.00182528
0.00186164
0.00190103
0.00194644
0.00200318
0.00208045
0.0021921
0.00235643
0.00255482
0.00276375
0.00290605
0.00295361
0.00291691
0.0027155
0.00233358
0.00185035
0.0013392
0.000873372
0.000500348
0.000223889
2.89742e-05
9.75743e-05
0.000553874
0.000849692
0.00104957
0.00120901
0.00134733
0.00147306
0.00158929
0.00169526
0.00178743
0.00186074
0.00190576
0.00192149
0.00191457
0.00188322
0.00183463
0.00176919
0.0017003
0.0016333
0.00157206
0.00151762
0.00146987
0.00142842
0.0013928
0.00136275
0.00133806
0.00131855
0.00130399
0.00129411
0.00128925
0.0012876
0.001288
0.00129159
0.00129729
0.00130471
0.00131339
0.001323
0.00133332
0.00134423
0.00135563
0.00136752
0.00137992
0.00139291
0.00140658
0.00142108
0.00143657
0.00145324
0.00147129
0.00149094
0.00151239
0.00153585
0.00156145
0.00158931
0.0016194
0.00165157
0.00168554
0.00172088
0.0017568
0.00179169
0.00182545
0.00185881
0.00189242
0.00192827
0.00196821
0.00201606
0.00208321
0.00218378
0.0023432
0.00255668
0.00278758
0.00293426
0.00297489
0.00290807
0.00263146
0.00217296
0.00162809
0.00109093
0.000635871
0.000286288
3.80806e-05
0.000115008
0.000629607
0.000951987
0.0011667
0.00133485
0.00147681
0.00160138
0.00171152
0.0018062
0.00188172
0.00192975
0.0019475
0.00194234
0.00190957
0.00185831
0.00178801
0.00171207
0.00163756
0.00156863
0.00150727
0.00145363
0.00140728
0.00136776
0.00133473
0.00130792
0.00128707
0.00127183
0.00126209
0.00125753
0.00125618
0.00125723
0.00126125
0.00126743
0.00127508
0.0012838
0.00129324
0.0013032
0.00131357
0.00132428
0.00133536
0.00134686
0.00135887
0.00137152
0.00138495
0.00139933
0.00141487
0.00143177
0.00145026
0.0014706
0.00149304
0.00151783
0.00154519
0.00157528
0.00160816
0.00164374
0.00168172
0.00172153
0.00176248
0.00180488
0.00184477
0.00187943
0.00190949
0.00193653
0.00196486
0.00199979
0.00204387
0.00210327
0.00219696
0.00235132
0.00257781
0.00282584
0.00295871
0.00298105
0.00285875
0.00247631
0.0019306
0.00133659
0.000798578
0.000364869
4.99526e-05
0.000132964
0.000704998
0.00105207
0.00128013
0.00145525
0.00159869
0.00171947
0.00182055
0.00190095
0.00195424
0.00197542
0.00197344
0.00194153
0.00188991
0.00181613
0.0017339
0.00165145
0.00157433
0.00150526
0.00144498
0.00139315
0.00134924
0.00131282
0.00128351
0.00126096
0.00124468
0.00123451
0.00122981
0.00122844
0.00122948
0.00123345
0.00123942
0.00124672
0.00125488
0.00126358
0.00127261
0.00128191
0.00129144
0.00130126
0.00131144
0.00132209
0.00133336
0.00134538
0.00135834
0.0013724
0.00138777
0.00140467
0.00142334
0.00144405
0.00146709
0.00149278
0.0015214
0.00155325
0.00158853
0.00162732
0.00166947
0.00171455
0.00176175
0.00180978
0.00185847
0.00190557
0.00194455
0.00197361
0.00199534
0.00201384
0.00203897
0.00207927
0.00213413
0.002224
0.00237878
0.00261967
0.00286717
0.00297853
0.00296375
0.00273121
0.00222619
0.00159868
0.000981812
0.00045573
6.40172e-05
0.000150969
0.000778566
0.00114804
0.00138778
0.00156813
0.00171105
0.00182574
0.00191534
0.00197765
0.00200567
0.00200815
0.00198119
0.00192921
0.00185414
0.00176669
0.00167645
0.00159047
0.00151277
0.00144481
0.00138656
0.00133747
0.00129696
0.00126452
0.00123966
0.00122176
0.00121042
0.00120508
0.00120339
0.00120383
0.00120724
0.00121257
0.00121908
0.00122628
0.00123387
0.00124166
0.0012496
0.0012577
0.00126602
0.00127468
0.00128381
0.00129354
0.00130403
0.00131543
0.0013279
0.00134161
0.00135675
0.00137351
0.00139214
0.00141291
0.00143612
0.00146213
0.00149131
0.00152405
0.00156073
0.00160163
0.00164686
0.00169627
0.00174932
0.00180489
0.00186127
0.00191697
0.00197144
0.00201599
0.00204497
0.00206147
0.00207171
0.00208618
0.00211854
0.00217222
0.00226103
0.00242255
0.00267811
0.00290282
0.00298262
0.00288874
0.00249271
0.00186537
0.00117953
0.000554582
7.94562e-05
0.000168567
0.000848941
0.00123821
0.00148788
0.0016718
0.00181247
0.00191923
0.00199528
0.00203509
0.00204447
0.00202506
0.00197543
0.00190239
0.00181107
0.00171369
0.00161849
0.00153113
0.00145423
0.00138832
0.00133293
0.00128735
0.00125093
0.001223
0.00120279
0.00118943
0.00118281
0.00118037
0.0011801
0.00118241
0.00118678
0.00119224
0.00119828
0.00120459
0.001211
0.00121748
0.00122406
0.00123083
0.00123793
0.0012455
0.00125367
0.00126262
0.00127247
0.00128336
0.00129545
0.00130887
0.00132379
0.00134037
0.00135884
0.00137944
0.00140249
0.00142834
0.00145744
0.00149024
0.00152727
0.00156899
0.00161582
0.00166794
0.00172522
0.00178698
0.00185188
0.00191766
0.00198139
0.00204325
0.00209311
0.0021194
0.00213077
0.00213485
0.00213927
0.00216172
0.00221438
0.00230674
0.00248519
0.002755
0.00292185
0.00294597
0.00271231
0.00212462
0.00138612
0.000656662
9.55523e-05
0.000185335
0.000914934
0.00132119
0.00157898
0.00176498
0.0019021
0.00199994
0.00205818
0.0020787
0.00207016
0.00202754
0.0019591
0.00186708
0.00176394
0.00165974
0.00156189
0.00147465
0.00139954
0.00133642
0.00128453
0.00124302
0.00121103
0.00118765
0.00117177
0.00116294
0.00115918
0.00115819
0.0011591
0.00116223
0.00116653
0.00117134
0.00117634
0.00118138
0.00118641
0.0011915
0.00119675
0.00120231
0.00120835
0.001215
0.00122242
0.00123075
0.00124013
0.00125066
0.00126248
0.00127569
0.00129043
0.00130684
0.00132511
0.00134545
0.00136817
0.00139361
0.0014222
0.00145448
0.00149103
0.00153249
0.00157951
0.00163261
0.0016921
0.00175784
0.00182905
0.00190402
0.00197991
0.00205261
0.00212183
0.00217315
0.00219558
0.00220174
0.00219859
0.00219315
0.00220601
0.00225891
0.00236161
0.0025676
0.00282617
0.00293588
0.00284002
0.00236121
0.00159661
0.000758707
0.000111995
0.000200906
0.000975577
0.00139588
0.00166001
0.00184677
0.00197936
0.00206624
0.00210634
0.0021121
0.0020834
0.00202133
0.00193296
0.00182717
0.0017152
0.00160662
0.0015078
0.00142178
0.0013492
0.00128943
0.00124147
0.00120428
0.00117673
0.00115758
0.00114571
0.00114001
0.00113791
0.00113762
0.00113923
0.00114227
0.00114587
0.00114963
0.00115336
0.00115704
0.00116073
0.00116455
0.00116864
0.00117318
0.00117834
0.00118426
0.00119108
0.00119894
0.00120795
0.00121821
0.00122982
0.00124288
0.00125748
0.00127375
0.00129183
0.00131193
0.00133429
0.00135923
0.00138718
0.00141865
0.00145427
0.00149477
0.00154097
0.00159365
0.00165352
0.001721
0.00179594
0.00187738
0.00196315
0.00204959
0.00213137
0.00220738
0.00225631
0.00227359
0.00227518
0.00225817
0.00224387
0.00224949
0.0023068
0.00242853
0.00266903
0.00285547
0.00288501
0.00256621
0.0018094
0.000862257
0.000128634
0.000214983
0.00103016
0.00146154
0.00173032
0.00191679
0.00204428
0.00211783
0.00214338
0.00213401
0.00208536
0.00200625
0.00190176
0.00178494
0.00166659
0.0015555
0.00145693
0.00137292
0.00130338
0.00124732
0.00120351
0.0011706
0.0011472
0.00113176
0.00112315
0.00111932
0.0011181
0.0011181
0.00111976
0.00112218
0.00112479
0.00112735
0.00112982
0.00113223
0.00113472
0.00113744
0.00114055
0.00114422
0.00114863
0.00115392
0.00116023
0.00116766
0.00117632
0.00118632
0.00119772
0.00121062
0.00122509
0.00124124
0.00125918
0.00127908
0.00130115
0.00132567
0.00135302
0.00138368
0.00141827
0.00145753
0.00150236
0.00155375
0.00161268
0.00168006
0.00175638
0.00184151
0.00193418
0.00203161
0.00212907
0.00221961
0.00230075
0.00234202
0.002354
0.00234531
0.0023103
0.00228705
0.002293
0.00236146
0.00252074
0.00276948
0.00287501
0.00271727
0.00202157
0.000975652
0.000146913
0.000227342
0.00107818
0.00151771
0.00178951
0.00197467
0.00209621
0.00215681
0.00217106
0.00214573
0.00208065
0.00198445
0.00186743
0.00174207
0.00161931
0.0015071
0.00140969
0.00132821
0.00126206
0.0012099
0.0011702
0.00114134
0.00112162
0.00110925
0.00110287
0.00110008
0.00109922
0.00109924
0.00110047
0.00110203
0.00110356
0.00110496
0.00110625
0.00110754
0.00110898
0.00111073
0.00111297
0.00111587
0.00111958
0.00112425
0.00113002
0.00113698
0.00114524
0.0011549
0.00116604
0.00117872
0.00119303
0.00120905
0.00122688
0.00124665
0.00126854
0.00129278
0.0013197
0.00134973
0.00138342
0.00142151
0.00146487
0.00151459
0.00157184
0.00163787
0.00171374
0.00180008
0.00189663
0.00200169
0.00211163
0.00222042
0.00231996
0.00239784
0.00242926
0.00243401
0.00240737
0.00235048
0.00232128
0.00233865
0.00242787
0.00263934
0.00279822
0.00278802
0.00222911
0.00111164
0.000169476
0.000237796
0.0011194
0.00156432
0.00183771
0.00202117
0.00213533
0.00218476
0.00218916
0.00214834
0.00206911
0.00195891
0.0018316
0.00169979
0.00157417
0.00146188
0.00136623
0.00128765
0.00122505
0.00117678
0.001141
0.00111579
0.00109919
0.00108919
0.00108417
0.00108189
0.00108105
0.0010809
0.00108142
0.00108205
0.00108254
0.00108287
0.00108312
0.00108341
0.00108391
0.00108477
0.00108618
0.00108829
0.00109127
0.00109526
0.00110039
0.00110678
0.00111452
0.00112373
0.00113447
0.00114685
0.00116092
0.00117676
0.00119448
0.00121417
0.00123599
0.00126012
0.00128683
0.00131649
0.00134958
0.00138675
0.00142885
0.00147694
0.00153229
0.00159633
0.00167057
0.00175627
0.0018541
0.00196353
0.00208214
0.0022049
0.00232373
0.00243014
0.00249608
0.00251693
0.00250707
0.00245338
0.00237779
0.00234707
0.00238737
0.0025231
0.00274093
0.00280616
0.00242515
0.00127854
0.000198477
0.000246369
0.00115367
0.0016015
0.00187511
0.00205618
0.00216289
0.00220335
0.00219845
0.00214496
0.0020521
0.00193096
0.00179553
0.00165897
0.00153169
0.00142007
0.0013266
0.0012511
0.00119207
0.00114752
0.00111533
0.00109329
0.0010792
0.00107096
0.00106669
0.00106456
0.00106353
0.00106302
0.00106279
0.00106252
0.00106205
0.00106141
0.0010607
0.00106006
0.00105973
0.00105969
0.00106024
0.00106151
0.00106366
0.00106685
0.00107121
0.00107688
0.00108395
0.00109254
0.00110276
0.00111469
0.00112842
0.00114403
0.00116161
0.00118124
0.00120306
0.00122722
0.00125393
0.00128349
0.00131631
0.00135295
0.00139416
0.00144094
0.00149453
0.00155647
0.00162849
0.00171237
0.00180959
0.00192076
0.00204486
0.00217831
0.00231413
0.00244129
0.00254773
0.00259456
0.00260251
0.0025651
0.00247615
0.00239524
0.00237766
0.00245149
0.00265246
0.00277423
0.00258505
0.00146884
0.000232866
0.000253056
0.00118105
0.00162954
0.00190206
0.00208008
0.00217996
0.00221374
0.00219919
0.002136
0.00203196
0.00190186
0.00176013
0.00162023
0.00149221
0.00138176
0.00129069
0.00121832
0.00116274
0.00112167
0.00109266
0.00107327
0.00106114
0.00105408
0.00105024
0.00104808
0.00104674
0.00104573
0.00104477
0.00104366
0.00104231
0.00104079
0.00103919
0.00103766
0.00103637
0.00103549
0.00103517
0.00103548
0.00103668
0.00103893
0.00104237
0.00104715
0.00105339
0.00106121
0.00107074
0.0010821
0.00109536
0.00111064
0.00112801
0.00114758
0.00116944
0.00119373
0.00122061
0.00125032
0.00128319
0.00131968
0.00136044
0.00140635
0.00145858
0.00151864
0.00158837
0.00166985
0.00176518
0.00187599
0.00200265
0.00214326
0.00229253
0.00244086
0.00257412
0.00266173
0.00269004
0.00267548
0.00259735
0.00246964
0.00240543
0.00242244
0.00255976
0.0027122
0.00267167
0.00166849
0.000269697
0.000257747
0.00120202
0.00164893
0.00191916
0.00209375
0.00218771
0.00221614
0.00219501
0.00212201
0.00200963
0.00187255
0.00172612
0.00158398
0.00145588
0.00134693
0.00125836
0.00118904
0.00113671
0.00109876
0.0010725
0.00105528
0.00104462
0.00103836
0.00103472
0.00103243
0.00103072
0.00102916
0.00102751
0.00102562
0.00102346
0.0010211
0.00101864
0.00101622
0.001014
0.00101212
0.00101078
0.0010102
0.00101031
0.00101147
0.00101384
0.00101758
0.00102282
0.00102973
0.00103842
0.00104905
0.00106172
0.00107656
0.00109365
0.00111309
0.001135
0.00115946
0.00118663
0.00121669
0.00124988
0.00128658
0.00132731
0.00137284
0.0014242
0.00148281
0.00155049
0.00162948
0.00172229
0.00183132
0.00195821
0.00210271
0.00226133
0.00242594
0.00258283
0.00271343
0.00277104
0.00277829
0.00272015
0.00258838
0.00245382
0.00241686
0.00249291
0.00267172
0.00270385
0.001879
0.000309689
0.00026056
0.00121705
0.00166019
0.00192683
0.00209749
0.0021871
0.00221275
0.00218504
0.00210488
0.00198605
0.00184377
0.00169399
0.0015505
0.0014228
0.00131551
0.00122942
0.00116297
0.00111361
0.00107842
0.00105447
0.00103898
0.00102942
0.00102367
0.00102011
0.00101761
0.0010155
0.0010134
0.00101109
0.00100848
0.00100556
0.00100239
0.000999071
0.000995743
0.000992548
0.000989647
0.00098721
0.000985424
0.000984581
0.000984532
0.000985702
0.000988266
0.000992391
0.000998233
0.00100596
0.00101573
0.00102768
0.00104195
0.00105865
0.0010779
0.0010998
0.00112446
0.00115198
0.0011825
0.00121622
0.00125341
0.00129449
0.00134009
0.0013911
0.00144878
0.00151486
0.00159159
0.0016817
0.00178816
0.00191365
0.00205953
0.00222435
0.00240211
0.00258081
0.00274196
0.0028431
0.00287296
0.00284229
0.00272165
0.00253822
0.00244458
0.00245961
0.00262017
0.00270703
0.00208365
0.000350185
0.00026131
0.00122627
0.00166345
0.00192612
0.00209459
0.00218155
0.00220367
0.00217033
0.00208535
0.00196196
0.00181607
0.00166409
0.00151996
0.00139296
0.00128739
0.00120363
0.00113983
0.0010931
0.00106028
0.00103825
0.00102412
0.00101536
0.00100994
0.00100636
0.00100361
0.0010011
0.000998477
0.000995561
0.000992272
0.000988613
0.000984646
0.000980471
0.000976213
0.00097202
0.000968052
0.000964485
0.000961505
0.000959315
0.000958253
0.000958151
0.000959435
0.000962333
0.000967009
0.000973653
0.000982442
0.000993548
0.00100713
0.00102333
0.00104228
0.00106411
0.0010889
0.00111677
0.00114783
0.0011822
0.0012201
0.00126184
0.0013079
0.00135902
0.0014163
0.00148132
0.00155622
0.00164379
0.00174735
0.00187038
0.00201562
0.00218358
0.0023705
0.00256627
0.00275303
0.00290082
0.00295991
0.00295669
0.00285531
0.00266172
0.0024887
0.00245103
0.00255458
0.00267208
0.00226299
0.000387247
0.000260665
0.00123104
0.00166152
0.00192069
0.00208571
0.00216916
0.00218865
0.00215216
0.00206412
0.00193792
0.00178986
0.00163668
0.00149243
0.00136633
0.00126241
0.0011808
0.00111934
0.00107489
0.00104406
0.00102359
0.00101051
0.00100233
0.000997109
0.000993447
0.000990436
0.000987529
0.000984412
0.000980921
0.000976986
0.000972615
0.000967865
0.000962831
0.000957639
0.000952433
0.000947381
0.000942665
0.00093848
0.00093503
0.000932569
0.00093143
0.00093139
0.000932987
0.000936424
0.000941898
0.000949612
0.000959763
0.000972539
0.000988116
0.00100665
0.00102829
0.00105314
0.00108131
0.0011129
0.00114799
0.00118674
0.00122935
0.00127618
0.00132782
0.00138519
0.00144968
0.00152327
0.00160867
0.00170938
0.0018294
0.00197261
0.00214137
0.00233436
0.00254401
0.00275427
0.00294094
0.00304175
0.00306255
0.00299063
0.00280027
0.00256251
0.00246368
0.00251639
0.00264178
0.00240397
0.000417274
0.000258642
0.00123121
0.00165509
0.00190844
0.00206956
0.00215101
0.00216931
0.00213122
0.00204179
0.00191436
0.00176542
0.0016119
0.00146797
0.00134284
0.00124044
0.00116071
0.00110126
0.00105872
0.00102953
0.00101029
0.000998006
0.000990236
0.000985113
0.000981333
0.000978053
0.000974768
0.000971185
0.00096715
0.0009626
0.000957541
0.000952028
0.000946154
0.000940041
0.00093384
0.000927722
0.000921876
0.000916507
0.000911831
0.000908074
0.000905546
0.00090448
0.000904745
0.000906902
0.000911154
0.000917723
0.000926831
0.000938694
0.000953522
0.000971507
0.000992821
0.00101761
0.00104599
0.00107805
0.00111386
0.00115352
0.00119714
0.00124498
0.00129747
0.00135535
0.0014198
0.00149261
0.00157633
0.00167445
0.00179129
0.00193158
0.00209926
0.0022954
0.00251515
0.0027449
0.00296071
0.00311057
0.00316021
0.00312036
0.00294467
0.00267041
0.0024968
0.00249108
0.00261408
0.00250007
0.000438025
0.000255344
0.00122913
0.00164276
0.00189037
0.00204824
0.00212847
0.00214641
0.00210811
0.00201881
0.00189161
0.00174295
0.00158983
0.00144655
0.0013224
0.00122133
0.00114317
0.00108536
0.00104438
0.00101647
0.000998179
0.000986486
0.000978989
0.000973895
0.00096997
0.000966425
0.000962781
0.000958759
0.000954213
0.000949082
0.00094337
0.000937129
0.000930451
0.00092346
0.00091631
0.000909177
0.000902258
0.000895765
0.000889924
0.000884968
0.000881133
0.000878804
0.00087802
0.000878885
0.000881896
0.00088728
0.000895279
0.000906139
0.000920104
0.000937404
0.000958251
0.000982828
0.00101128
0.00104371
0.00108017
0.00112073
0.00116545
0.00121445
0.00126804
0.00132677
0.00139162
0.00146414
0.0015467
0.00164263
0.00175639
0.00189329
0.00205857
0.0022555
0.0024821
0.00272741
0.00296854
0.00316656
0.00325087
0.00324336
0.00309027
0.00280514
0.00254171
0.00248165
0.00258178
0.00255072
0.000448596
0.000251138
0.0012239
0.00162659
0.00186804
0.00202266
0.0021023
0.00212064
0.00208336
0.00199555
0.00186989
0.00172256
0.0015705
0.00142814
0.00130494
0.00120495
0.00112801
0.00107148
0.00103167
0.00100474
0.000987136
0.00097585
0.000968513
0.000963393
0.000959308
0.000955504
0.000951521
0.000947093
0.000942073
0.000936403
0.000930083
0.000923166
0.000915743
0.000907942
0.000899918
0.000891855
0.000883953
0.000876433
0.000869523
0.00086346
0.00085849
0.000854858
0.000853046
0.000852782
0.000854568
0.000858762
0.000865619
0.000875409
0.00088841
0.000904896
0.000925125
0.000949326
0.000977684
0.00101033
0.00104734
0.00108874
0.00113455
0.0011848
0.00123967
0.00129952
0.00136513
0.00143782
0.00151969
0.00161391
0.00172487
0.00185822
0.00202022
0.00221608
0.00244676
0.00270466
0.00296935
0.0032064
0.00333624
0.00335738
0.00323559
0.00295154
0.00261465
0.0024808
0.00255375
0.00257373
0.000453074
0.000245857
0.00121536
0.00160715
0.00184222
0.00199364
0.00207318
0.0020926
0.0020574
0.00197229
0.00184935
0.00170429
0.00155391
0.00141269
0.00129036
0.00119118
0.0011151
0.00105945
0.00102047
0.000994198
0.000977049
0.000966008
0.000958737
0.000953545
0.000949288
0.000945235
0.00094094
0.00093614
0.000930691
0.000924532
0.000917665
0.000910142
0.000902055
0.000893533
0.000884737
0.000875854
0.000867089
0.000858664
0.000850811
0.000843769
0.000837779
0.000833083
0.000830081
0.000828925
0.000829552
0.000832587
0.000838298
0.00084698
0.000858942
0.000874501
0.000893966
0.000917621
0.000945706
0.000978398
0.0010158
0.00105794
0.00110478
0.00115631
0.00121255
0.00127373
0.0013404
0.00141363
0.00149528
0.00158825
0.00169679
0.00182667
0.00198485
0.00217817
0.00241035
0.00267732
0.00296201
0.0032312
0.0034112
0.00346369
0.00337676
0.0031019
0.00271655
0.00250341
0.00252294
0.00258105
0.000454354
0.000239792
0.00120481
0.00158521
0.00181367
0.0019619
0.00204172
0.00206281
0.00203058
0.00194922
0.00183004
0.00168814
0.00153999
0.00140014
0.00127859
0.00117994
0.00110433
0.00104917
0.00101064
0.000984741
0.000967829
0.000956886
0.000949595
0.000944291
0.000939853
0.000935566
0.000930986
0.000925855
0.000920027
0.000913443
0.000906103
0.000898058
0.000889403
0.000880271
0.000870825
0.000861253
0.000851763
0.000842579
0.000833932
0.00082606
0.000819204
0.000813609
0.000809533
0.000807466
0.000807141
0.000809075
0.000813672
0.000821239
0.000832115
0.000846657
0.00086523
0.000888178
0.000915808
0.000948356
0.000985969
0.00102869
0.00107649
0.00112925
0.00118693
0.00124956
0.00131752
0.00139162
0.00147345
0.00156562
0.00167215
0.00179878
0.0019529
0.00214265
0.00237424
0.00264709
0.00294767
0.00324488
0.00347522
0.00356326
0.00351293
0.00325238
0.00284233
0.0025334