/*--------------------------------*- C++ -*----------------------------------*\
  =========                 |
  \\      /  F ield         | OpenFOAM: The Open Source CFD Toolbox
   \\    /   O peration     | Website:  https://openfoam.org
    \\  /    A nd           | Version:  13
     \\/     M anipulation  |
\*---------------------------------------------------------------------------*/
FoamFile
{
    format      ascii;
    class       surfaceScalarField;
    location    "2.5";
    object      phi;
}
// * * * * * * * * * * * * * * * * * * * * * * * * * * * * * * * * * * * * * //

dimensions      [0 3 -1 0 0 0 0];

internalField   nonuniform List<scalar> 
12640
(
4.0322e-09
-4.03261e-09
1.38237e-08
-9.79147e-09
2.6367e-08
-1.25433e-08
3.893e-08
-1.2563e-08
4.97449e-08
-1.08149e-08
5.81687e-08
-8.42377e-09
6.43425e-08
-6.17381e-09
6.87389e-08
-4.39645e-09
7.1856e-08
-3.11706e-09
7.40848e-08
-2.22878e-09
7.56732e-08
-1.58844e-09
7.67456e-08
-1.07244e-09
7.73373e-08
-5.91658e-10
7.74225e-08
-8.51673e-11
7.68939e-08
5.28572e-10
7.56168e-08
1.27704e-09
7.33861e-08
2.23073e-09
6.99317e-08
3.45442e-09
6.49603e-08
4.97136e-09
5.80588e-08
6.90151e-09
4.88137e-08
9.24507e-09
3.68713e-08
1.19424e-08
2.20159e-08
1.48555e-08
4.16896e-09
1.78469e-08
-1.67853e-08
2.09543e-08
-4.12586e-08
2.44732e-08
-6.99565e-08
2.86979e-08
-1.03736e-07
3.37797e-08
-1.43742e-07
4.00062e-08
-1.91271e-07
4.75284e-08
-2.46725e-07
5.54543e-08
-3.09437e-07
6.2712e-08
-3.7849e-07
6.90526e-08
-4.52591e-07
7.41013e-08
-5.30229e-07
7.76376e-08
-6.09827e-07
7.95984e-08
-6.8976e-07
7.99326e-08
-7.6851e-07
7.87507e-08
-8.44698e-07
7.61876e-08
-9.17101e-07
7.24029e-08
-9.84679e-07
6.75781e-08
-1.04653e-06
6.18527e-08
-1.10187e-06
5.53338e-08
-1.14998e-06
4.81163e-08
-1.19024e-06
4.02539e-08
-1.22201e-06
3.17749e-08
-1.24469e-06
2.26787e-08
-1.25795e-06
1.32564e-08
-1.26205e-06
4.1038e-09
-1.2553e-06
-6.74488e-09
-1.23805e-06
-1.7254e-08
-1.20955e-06
-2.85015e-08
-1.16966e-06
-3.989e-08
-1.11824e-06
-5.14233e-08
-1.0554e-06
-6.28348e-08
-9.81508e-07
-7.38933e-08
-8.97275e-07
-8.4233e-08
-8.03662e-07
-9.36128e-08
-7.01656e-07
-1.02006e-07
-5.92703e-07
-1.08953e-07
-4.78783e-07
-1.1392e-07
-3.62441e-07
-1.16342e-07
-2.46564e-07
-1.15877e-07
-1.34417e-07
-1.12147e-07
-2.95347e-08
-1.04882e-07
6.47311e-08
-9.42658e-08
1.44841e-07
-8.01104e-08
2.07434e-07
-6.25925e-08
2.50134e-07
-4.27003e-08
2.71558e-07
-2.14236e-08
2.72135e-07
-5.76805e-10
2.53088e-07
1.90465e-08
2.182e-07
3.48882e-08
1.72975e-07
4.52251e-08
1.25383e-07
4.75921e-08
8.14156e-08
4.39672e-08
4.52281e-08
3.61875e-08
1.8955e-08
2.62731e-08
3.9261e-09
1.50289e-08
3.9261e-09
9.41168e-09
-1.34443e-08
2.82446e-08
-2.86244e-08
4.92899e-08
-3.35886e-08
6.82134e-08
-3.14865e-08
8.3115e-08
-2.57165e-08
9.36526e-08
-1.89614e-08
1.00192e-07
-1.27131e-08
1.03342e-07
-7.54697e-09
1.03703e-07
-3.47805e-09
1.01754e-07
-2.79155e-10
9.76543e-08
2.51102e-09
9.15054e-08
5.07638e-09
8.32277e-08
7.68607e-09
7.26312e-08
1.05113e-08
5.94199e-08
1.37398e-08
4.31421e-08
1.75549e-08
2.32587e-08
2.21141e-08
-8.92357e-10
2.76055e-08
-3.01653e-08
3.42443e-08
-6.539e-08
4.21262e-08
-1.0739e-07
5.12449e-08
-1.57019e-07
6.15712e-08
-2.15143e-07
7.29802e-08
-2.82549e-07
8.52524e-08
-3.59829e-07
9.82349e-08
-4.47085e-07
1.11728e-07
-5.43733e-07
1.25347e-07
-6.48621e-07
1.38667e-07
-7.59591e-07
1.50976e-07
-8.73747e-07
1.61685e-07
-9.88703e-07
1.7041e-07
-1.10279e-06
1.76801e-07
-1.21433e-06
1.80593e-07
-1.32176e-06
1.81532e-07
-1.42371e-06
1.79584e-07
-1.51909e-06
1.74975e-07
-1.60704e-06
1.67885e-07
-1.68692e-06
1.58631e-07
-1.75825e-06
1.47519e-07
-1.82066e-06
1.34816e-07
-1.87387e-06
1.20785e-07
-1.91763e-06
1.05613e-07
-1.95174e-06
8.94475e-08
-1.97606e-06
7.24304e-08
-1.99045e-06
5.46431e-08
-1.9948e-06
3.61297e-08
-1.98903e-06
1.69031e-08
-1.97253e-06
-3.23526e-09
-1.94528e-06
-2.31457e-08
-1.90761e-06
-4.4423e-08
-1.85873e-06
-6.61296e-08
-1.79892e-06
-8.83161e-08
-1.72799e-06
-1.10816e-07
-1.64599e-06
-1.33422e-07
-1.55299e-06
-1.55837e-07
-1.44923e-06
-1.77657e-07
-1.33507e-06
-1.98386e-07
-1.21116e-06
-2.17525e-07
-1.07882e-06
-2.34347e-07
-9.39664e-07
-2.48108e-07
-7.95558e-07
-2.58026e-07
-6.48726e-07
-2.63174e-07
-5.01833e-07
-2.62769e-07
-3.57687e-07
-2.56293e-07
-2.19368e-07
-2.43202e-07
-9.03794e-08
-2.23254e-07
2.59742e-08
-1.96464e-07
1.2689e-07
-1.63508e-07
2.09303e-07
-1.25113e-07
2.70912e-07
-8.30325e-08
3.09597e-07
-3.92622e-08
3.25557e-07
3.08689e-09
3.17748e-07
4.26969e-08
2.88788e-07
7.41857e-08
2.40997e-07
9.53825e-08
1.80944e-07
1.04021e-07
1.1772e-07
9.94111e-08
6.08123e-08
8.31809e-08
1.8941e-08
5.69002e-08
2.28671e-08
1.26515e-08
-2.60958e-08
3.42668e-08
-5.02397e-08
5.45033e-08
-5.38251e-08
6.98533e-08
-4.68365e-08
7.99909e-08
-3.58541e-08
8.5391e-08
-2.43615e-08
8.66335e-08
-1.39555e-08
8.4216e-08
-5.12953e-09
7.84804e-08
2.25753e-09
6.95613e-08
8.64001e-09
5.74999e-08
1.45724e-08
4.20405e-08
2.05357e-08
2.27839e-08
2.69427e-08
-8.44185e-10
3.41394e-08
-2.95394e-08
4.24351e-08
-6.40784e-08
5.20939e-08
-1.05336e-07
6.33715e-08
-1.54219e-07
7.64885e-08
-2.11568e-07
9.15936e-08
-2.78145e-07
1.08703e-07
-3.54617e-07
1.27716e-07
-4.4136e-07
1.48315e-07
-5.3837e-07
1.6999e-07
-6.45095e-07
1.91977e-07
-7.60245e-07
2.13385e-07
-8.81881e-07
2.33364e-07
-1.00758e-06
2.51048e-07
-1.13479e-06
2.65876e-07
-1.26103e-06
2.77217e-07
-1.3841e-06
2.84749e-07
-1.50219e-06
2.88505e-07
-1.61372e-06
2.88324e-07
-1.71745e-06
2.84324e-07
-1.81271e-06
2.76798e-07
-1.89919e-06
2.66066e-07
-1.97677e-06
2.52546e-07
-2.04543e-06
2.36551e-07
-2.10523e-06
2.18434e-07
-2.15625e-06
1.98536e-07
-2.19856e-06
1.77126e-07
-2.23223e-06
1.54452e-07
-2.25731e-06
1.3069e-07
-2.27382e-06
1.05966e-07
-2.28176e-06
8.03632e-08
-2.28102e-06
5.39101e-08
-2.27152e-06
2.66292e-08
-2.25301e-06
-1.61239e-09
-2.22574e-06
-3.04988e-08
-2.18866e-06
-6.02349e-08
-2.14215e-06
-9.09334e-08
-2.08588e-06
-1.22395e-07
-2.01964e-06
-1.54555e-07
-1.94325e-06
-1.87207e-07
-1.8566e-06
-2.20076e-07
-1.75968e-06
-2.52756e-07
-1.65264e-06
-2.84697e-07
-1.5358e-06
-3.15228e-07
-1.40977e-06
-3.4355e-07
-1.27548e-06
-3.68641e-07
-1.13419e-06
-3.89395e-07
-9.876e-07
-4.04618e-07
-8.3769e-07
-4.13084e-07
-6.86899e-07
-4.1356e-07
-5.37924e-07
-4.05268e-07
-3.93576e-07
-3.8755e-07
-2.56765e-07
-3.60065e-07
-1.3051e-07
-3.22719e-07
-1.77891e-08
-2.7623e-07
7.91325e-08
-2.22035e-07
1.5805e-07
-1.6195e-07
2.1745e-07
-9.86618e-08
2.55889e-07
-3.5353e-08
2.73387e-07
2.51991e-08
2.68921e-07
7.86522e-08
2.43821e-07
1.20483e-07
2.01085e-07
1.46756e-07
1.45387e-07
1.5511e-07
8.46948e-08
1.43873e-07
3.01098e-08
1.11485e-07
5.29768e-08
1.38011e-08
-3.98968e-08
3.3649e-08
-7.00876e-08
4.87279e-08
-6.8904e-08
5.75477e-08
-5.56563e-08
6.1e-08
-3.93064e-08
5.99263e-08
-2.32878e-08
5.48093e-08
-8.83848e-09
4.58522e-08
3.82751e-09
3.30482e-08
1.50615e-08
1.61981e-08
2.54901e-08
-5.04795e-09
3.58185e-08
-3.12145e-08
4.67023e-08
-6.29738e-08
5.8702e-08
-1.01123e-07
7.22886e-08
-1.46544e-07
8.78564e-08
-2.00174e-07
1.05724e-07
-2.62927e-07
1.26124e-07
-3.35602e-07
1.49163e-07
-4.18773e-07
1.74765e-07
-5.12666e-07
2.02596e-07
-6.1702e-07
2.3207e-07
-7.30924e-07
2.6222e-07
-8.52843e-07
2.91909e-07
-9.8066e-07
3.19794e-07
-1.11183e-06
3.44557e-07
-1.24378e-06
3.65308e-07
-1.37402e-06
3.81293e-07
-1.50032e-06
3.92171e-07
-1.62072e-06
3.9762e-07
-1.7337e-06
3.97728e-07
-1.83826e-06
3.93072e-07
-1.934e-06
3.84061e-07
-2.02079e-06
3.71118e-07
-2.09877e-06
3.54775e-07
-2.16813e-06
3.35426e-07
-2.22914e-06
3.13554e-07
-2.28211e-06
2.8952e-07
-2.3273e-06
2.63628e-07
-2.36493e-06
2.36168e-07
-2.39519e-06
2.07386e-07
-2.4182e-06
1.77456e-07
-2.43401e-06
1.46499e-07
-2.44262e-06
1.1458e-07
-2.44399e-06
8.17302e-08
-2.43799e-06
4.79102e-08
-2.42444e-06
1.30771e-08
-2.40326e-06
-2.27868e-08
-2.37409e-06
-5.967e-08
-2.33664e-06
-9.76893e-08
-2.2907e-06
-1.36865e-07
-2.23601e-06
-1.77091e-07
-2.17227e-06
-2.18296e-07
-2.09919e-06
-2.60283e-07
-2.01652e-06
-3.02752e-07
-1.92405e-06
-3.45222e-07
-1.82174e-06
-3.87007e-07
-1.70967e-06
-4.273e-07
-1.58813e-06
-4.65089e-07
-1.45767e-06
-4.99095e-07
-1.31926e-06
-5.27803e-07
-1.17428e-06
-5.49599e-07
-1.02448e-06
-5.6289e-07
-8.71928e-07
-5.66109e-07
-7.19468e-07
-5.57728e-07
-5.70133e-07
-5.36885e-07
-4.26861e-07
-5.03336e-07
-2.92448e-07
-4.57133e-07
-1.69881e-07
-3.98797e-07
-6.18658e-08
-3.3005e-07
2.9534e-08
-2.5335e-07
1.02733e-07
-1.71861e-07
1.56558e-07
-8.9178e-08
1.9093e-07
-9.17293e-09
2.05579e-07
6.40034e-08
2.00539e-07
1.25522e-07
1.76622e-07
1.70673e-07
1.36818e-07
1.94914e-07
8.58294e-08
1.94861e-07
3.26722e-08
1.64642e-07
8.5649e-08
1.31574e-08
-5.30543e-08
2.80514e-08
-8.49815e-08
3.60251e-08
-7.68777e-08
3.75249e-08
-5.7156e-08
3.38886e-08
-3.56702e-08
2.58655e-08
-1.52647e-08
1.37197e-08
3.30733e-09
-2.63774e-09
2.0185e-08
-2.35338e-08
3.59576e-08
-4.94766e-08
5.14329e-08
-8.11173e-08
6.74592e-08
-1.19226e-07
8.48115e-08
-1.64668e-07
1.04143e-07
-2.18357e-07
1.25978e-07
-2.81204e-07
1.50703e-07
-3.5403e-07
1.78549e-07
-4.37444e-07
2.09539e-07
-5.31709e-07
2.43428e-07
-6.36609e-07
2.79665e-07
-7.51287e-07
3.17275e-07
-8.74219e-07
3.55002e-07
-1.00324e-06
3.91236e-07
-1.13578e-06
4.24455e-07
-1.26928e-06
4.53289e-07
-1.40122e-06
4.76503e-07
-1.52923e-06
4.93316e-07
-1.65111e-06
5.03174e-07
-1.76531e-06
5.06366e-07
-1.87113e-06
5.03439e-07
-1.96829e-06
4.94895e-07
-2.05675e-06
4.8153e-07
-2.13674e-06
4.64048e-07
-2.20862e-06
4.43001e-07
-2.27276e-06
4.18916e-07
-2.32953e-06
3.92193e-07
-2.37926e-06
3.63285e-07
-2.42225e-06
3.32511e-07
-2.45877e-06
3.00148e-07
-2.48902e-06
2.66418e-07
-2.51315e-06
2.31509e-07
-2.53124e-06
1.95549e-07
-2.54333e-06
1.5859e-07
-2.54936e-06
1.20615e-07
-2.54929e-06
8.1657e-08
-2.54299e-06
4.16114e-08
-2.53024e-06
3.2794e-10
-2.51091e-06
-4.21143e-08
-2.48467e-06
-8.59114e-08
-2.45123e-06
-1.31136e-07
-2.41025e-06
-1.77838e-07
-2.36142e-06
-2.25926e-07
-2.30438e-06
-2.75336e-07
-2.23876e-06
-3.259e-07
-2.16415e-06
-3.7736e-07
-2.08014e-06
-4.29234e-07
-1.98644e-06
-4.80708e-07
-1.88287e-06
-5.30869e-07
-1.76938e-06
-5.78579e-07
-1.64614e-06
-6.22334e-07
-1.51362e-06
-6.60324e-07
-1.3727e-06
-6.90519e-07
-1.22481e-06
-7.10782e-07
-1.0717e-06
-7.19219e-07
-9.1582e-07
-7.1361e-07
-7.60347e-07
-6.92358e-07
-6.08881e-07
-6.54802e-07
-4.6459e-07
-6.01424e-07
-3.30546e-07
-5.32841e-07
-2.09769e-07
-4.50827e-07
-1.0484e-07
-3.58279e-07
-1.77155e-08
-2.58985e-07
5.04288e-08
-1.57322e-07
9.91447e-08
-5.78888e-08
1.28679e-07
3.4469e-08
1.39446e-07
1.14755e-07
1.32281e-07
1.77839e-07
1.08628e-07
2.18567e-07
7.15512e-08
2.31938e-07
2.80557e-08
2.08138e-07
1.13705e-07
1.08827e-08
-6.3937e-08
1.89476e-08
-9.30464e-08
1.89435e-08
-7.68736e-08
1.26924e-08
-5.0905e-08
1.59004e-09
-2.45678e-08
-1.38607e-08
1.86051e-10
-3.36891e-08
2.31358e-08
-5.82539e-08
4.47498e-08
-8.81514e-08
6.58551e-08
-1.2414e-07
8.74217e-08
-1.67083e-07
1.10402e-07
-2.17899e-07
1.35627e-07
-2.77509e-07
1.63753e-07
-3.46767e-07
1.95237e-07
-4.26368e-07
2.30304e-07
-5.16717e-07
2.68898e-07
-6.17785e-07
3.10607e-07
-7.28963e-07
3.54605e-07
-8.49013e-07
3.99715e-07
-9.76021e-07
4.44283e-07
-1.10754e-06
4.86517e-07
-1.24101e-06
5.24715e-07
-1.37372e-06
5.57166e-07
-1.50305e-06
5.82617e-07
-1.62657e-06
6.00022e-07
-1.74255e-06
6.09297e-07
-1.85027e-06
6.10888e-07
-1.94944e-06
6.05542e-07
-2.0402e-06
5.94203e-07
-2.12291e-06
5.77596e-07
-2.1979e-06
5.56527e-07
-2.26559e-06
5.31734e-07
-2.32637e-06
5.03785e-07
-2.38062e-06
4.73167e-07
-2.42871e-06
4.40283e-07
-2.47094e-06
4.05507e-07
-2.50755e-06
3.69125e-07
-2.53878e-06
3.31377e-07
-2.56475e-06
2.92386e-07
-2.58556e-06
2.5232e-07
-2.60129e-06
2.11277e-07
-2.61198e-06
1.69287e-07
-2.61756e-06
1.26193e-07
-2.61804e-06
8.21369e-08
-2.61336e-06
3.69288e-08
-2.6034e-06
-9.62976e-09
-2.58791e-06
-5.76079e-08
-2.56656e-06
-1.07258e-07
-2.53907e-06
-1.58625e-07
-2.50506e-06
-2.11855e-07
-2.46412e-06
-2.66866e-07
-2.41581e-06
-3.23639e-07
-2.35973e-06
-3.81987e-07
-2.29545e-06
-4.41634e-07
-2.22243e-06
-5.02256e-07
-2.13996e-06
-5.6318e-07
-2.04759e-06
-6.23234e-07
-1.94495e-06
-6.81225e-07
-1.83177e-06
-7.35512e-07
-1.70806e-06
-7.8403e-07
-1.5741e-06
-8.24487e-07
-1.43068e-06
-8.54195e-07
-1.27938e-06
-8.7052e-07
-1.12218e-06
-8.70813e-07
-9.61699e-07
-8.52837e-07
-8.01576e-07
-8.14925e-07
-6.46106e-07
-7.56894e-07
-4.9894e-07
-6.80006e-07
-3.63469e-07
-5.86298e-07
-2.42948e-07
-4.788e-07
-1.39986e-07
-3.61948e-07
-5.63204e-08
-2.40987e-07
7.33473e-09
-1.21544e-07
5.11401e-08
-9.33637e-09
7.59035e-08
8.99915e-08
8.28221e-08
1.7092e-07
7.33796e-08
2.28009e-07
5.04337e-08
2.54884e-07
1.99751e-08
2.38597e-07
1.3368e-07
7.29126e-09
-7.12283e-08
7.37268e-09
-9.31278e-08
-1.07806e-09
-6.84229e-08
-1.52463e-08
-3.67367e-08
-3.41184e-08
-5.69581e-09
-5.74418e-08
2.35095e-08
-8.54878e-08
5.11819e-08
-1.18858e-07
7.812e-08
-1.58363e-07
1.0536e-07
-2.04931e-07
1.3399e-07
-2.59529e-07
1.65e-07
-3.23087e-07
1.99185e-07
-3.96414e-07
2.37081e-07
-4.80097e-07
2.7892e-07
-5.74378e-07
3.24584e-07
-6.79019e-07
3.73539e-07
-7.93176e-07
4.24764e-07
-9.15365e-07
4.76794e-07
-1.04348e-06
5.2783e-07
-1.17509e-06
5.75892e-07
-1.30743e-06
6.18859e-07
-1.43774e-06
6.55021e-07
-1.56316e-06
6.82588e-07
-1.68151e-06
7.00968e-07
-1.79175e-06
7.10266e-07
-1.89358e-06
7.11118e-07
-1.98715e-06
7.0446e-07
-2.0728e-06
6.91196e-07
-2.15093e-06
6.72329e-07
-2.222e-06
6.48669e-07
-2.28647e-06
6.20992e-07
-2.3447e-06
5.89972e-07
-2.39705e-06
5.56132e-07
-2.44383e-06
5.19944e-07
-2.48533e-06
4.81787e-07
-2.52181e-06
4.41987e-07
-2.5535e-06
4.00811e-07
-2.58059e-06
3.58466e-07
-2.60313e-06
3.14928e-07
-2.62122e-06
2.70406e-07
-2.63493e-06
2.24994e-07
-2.64432e-06
1.78678e-07
-2.64952e-06
1.31387e-07
-2.65037e-06
8.29903e-08
-2.6468e-06
3.33589e-08
-2.63879e-06
-1.764e-08
-2.62632e-06
-7.00767e-08
-2.60935e-06
-1.24228e-07
-2.58771e-06
-1.80267e-07
-2.56117e-06
-2.38394e-07
-2.52926e-06
-2.98776e-07
-2.49141e-06
-3.61487e-07
-2.44691e-06
-4.26494e-07
-2.39495e-06
-4.93589e-07
-2.33488e-06
-5.62329e-07
-2.26587e-06
-6.32185e-07
-2.18723e-06
-7.01881e-07
-2.09846e-06
-7.69995e-07
-1.99878e-06
-8.35188e-07
-1.88752e-06
-8.95291e-07
-1.76439e-06
-9.4762e-07
-1.62955e-06
-9.89029e-07
-1.48372e-06
-1.01635e-06
-1.32838e-06
-1.02615e-06
-1.16594e-06
-1.01528e-06
-9.99437e-07
-9.81428e-07
-8.33343e-07
-9.22988e-07
-6.72488e-07
-8.40861e-07
-5.2122e-07
-7.37566e-07
-3.83416e-07
-6.16604e-07
-2.6262e-07
-4.82744e-07
-1.61433e-07
-3.42175e-07
-8.1279e-08
-2.01698e-07
-2.23506e-08
-6.82647e-08
1.61934e-08
5.14475e-08
3.59791e-08
1.51134e-07
3.92295e-08
2.24759e-07
2.89707e-08
2.65143e-07
1.11382e-08
2.56429e-07
1.44818e-07
2.58034e-09
-7.38086e-08
-5.87879e-09
-8.46687e-08
-2.27497e-08
-5.1552e-08
-4.50778e-08
-1.44086e-08
-7.19492e-08
2.11756e-08
-1.03416e-07
5.49765e-08
-1.39989e-07
8.77548e-08
-1.82462e-07
1.20593e-07
-2.31784e-07
1.54683e-07
-2.88956e-07
1.91162e-07
-3.54926e-07
2.30969e-07
-4.30487e-07
2.74746e-07
-5.16172e-07
3.22765e-07
-6.12125e-07
3.74874e-07
-7.17986e-07
4.30445e-07
-8.32808e-07
4.88361e-07
-9.55041e-07
5.46997e-07
-1.08253e-06
6.04282e-07
-1.21271e-06
6.58009e-07
-1.34276e-06
7.05947e-07
-1.46969e-06
7.45783e-07
-1.59065e-06
7.75979e-07
-1.70406e-06
7.96007e-07
-1.80927e-06
8.0617e-07
-1.90625e-06
8.07246e-07
-1.99528e-06
8.00154e-07
-2.07677e-06
7.8595e-07
-2.15121e-06
7.65634e-07
-2.21904e-06
7.40161e-07
-2.28069e-06
7.10321e-07
-2.33654e-06
6.76837e-07
-2.38689e-06
6.40318e-07
-2.43202e-06
6.01266e-07
-2.47219e-06
5.60116e-07
-2.50762e-06
5.17215e-07
-2.53849e-06
4.72855e-07
-2.56495e-06
4.27276e-07
-2.58722e-06
3.80734e-07
-2.60569e-06
3.33399e-07
-2.62054e-06
2.85251e-07
-2.63179e-06
2.36251e-07
-2.63941e-06
1.86292e-07
-2.64348e-06
1.35459e-07
-2.64396e-06
8.34685e-08
-2.64084e-06
3.02397e-08
-2.63416e-06
-2.43139e-08
-2.62395e-06
-8.0291e-08
-2.61014e-06
-1.38041e-07
-2.5926e-06
-1.97803e-07
-2.57123e-06
-2.59762e-07
-2.54579e-06
-3.24219e-07
-2.51599e-06
-3.91285e-07
-2.48146e-06
-4.61022e-07
-2.44171e-06
-5.33346e-07
-2.39603e-06
-6.08006e-07
-2.34353e-06
-6.8468e-07
-2.28257e-06
-7.62844e-07
-2.21144e-06
-8.41125e-07
-2.12902e-06
-9.17605e-07
-2.03445e-06
-9.89863e-07
-1.92725e-06
-1.05483e-06
-1.8064e-06
-1.10987e-06
-1.67172e-06
-1.15103e-06
-1.52381e-06
-1.17406e-06
-1.3642e-06
-1.17489e-06
-1.1956e-06
-1.15003e-06
-1.02197e-06
-1.09662e-06
-8.48613e-07
-1.01421e-06
-6.81438e-07
-9.04742e-07
-5.25547e-07
-7.72494e-07
-3.85359e-07
-6.22932e-07
-2.64668e-07
-4.62866e-07
-1.6597e-07
-3.00396e-07
-9.02585e-08
-1.43976e-07
-3.7119e-08
-1.69201e-09
-4.44868e-09
1.18464e-07
1.03255e-08
2.09985e-07
1.13902e-08
2.64078e-07
4.28476e-09
2.63534e-07
1.49103e-07
-3.0122e-09
-7.07964e-08
-2.01297e-08
-6.75513e-08
-4.54491e-08
-2.62326e-08
-7.58661e-08
1.60085e-08
-1.1077e-07
5.60794e-08
-1.50441e-07
9.46477e-08
-1.95579e-07
1.32893e-07
-2.47105e-07
1.72119e-07
-3.06025e-07
2.13603e-07
-3.73306e-07
2.58443e-07
-4.49756e-07
3.07419e-07
-5.35904e-07
3.60894e-07
-6.31877e-07
4.18738e-07
-7.37284e-07
4.80281e-07
-8.51187e-07
5.44348e-07
-9.72049e-07
6.09224e-07
-1.09768e-06
6.72625e-07
-1.22545e-06
7.3206e-07
-1.3525e-06
7.85055e-07
-1.47561e-06
8.29055e-07
-1.5924e-06
8.62571e-07
-1.70154e-06
8.85118e-07
-1.80263e-06
8.97103e-07
-1.89569e-06
8.99231e-07
-1.98102e-06
8.92571e-07
-2.05905e-06
8.78187e-07
-2.13027e-06
8.57171e-07
-2.19514e-06
8.30505e-07
-2.25406e-06
7.99073e-07
-2.30736e-06
7.63623e-07
-2.35535e-06
7.24832e-07
-2.39831e-06
6.83271e-07
-2.43647e-06
6.39433e-07
-2.47008e-06
5.93727e-07
-2.49937e-06
5.46499e-07
-2.52457e-06
4.98057e-07
-2.54597e-06
4.48673e-07
-2.56366e-06
3.9843e-07
-2.57775e-06
3.47483e-07
-2.58829e-06
2.95799e-07
-2.59543e-06
2.43384e-07
-2.59939e-06
1.90258e-07
-2.60035e-06
1.3642e-07
-2.59855e-06
8.16649e-08
-2.59417e-06
2.58584e-08
-2.58733e-06
-3.11571e-08
-2.57799e-06
-8.96246e-08
-2.56617e-06
-1.49867e-07
-2.55184e-06
-2.12128e-07
-2.53493e-06
-2.76676e-07
-2.51533e-06
-3.43819e-07
-2.49282e-06
-4.13789e-07
-2.46708e-06
-4.86769e-07
-2.43759e-06
-5.62834e-07
-2.40367e-06
-6.41924e-07
-2.36463e-06
-7.23717e-07
-2.31971e-06
-8.07767e-07
-2.26764e-06
-8.93192e-07
-2.20666e-06
-9.7859e-07
-2.13425e-06
-1.06227e-06
-2.04803e-06
-1.14104e-06
-1.9467e-06
-1.2112e-06
-1.82977e-06
-1.26797e-06
-1.69627e-06
-1.30756e-06
-1.54661e-06
-1.32455e-06
-1.38246e-06
-1.31418e-06
-1.20691e-06
-1.27217e-06
-1.025e-06
-1.19613e-06
-8.43442e-07
-1.0863e-06
-6.69479e-07
-9.46457e-07
-5.09125e-07
-7.83285e-07
-3.67314e-07
-6.04677e-07
-2.47983e-07
-4.19727e-07
-1.53401e-07
-2.38559e-07
-8.37522e-08
-7.13406e-08
-3.76379e-08
7.23498e-08
-1.16259e-08
1.83973e-07
-6.42371e-10
2.53095e-07
5.01198e-10
2.62391e-07
1.49604e-07
-9.12527e-09
-6.16712e-08
-3.48978e-08
-4.17788e-08
-6.84244e-08
7.29404e-09
-1.06752e-07
5.43364e-08
-1.49532e-07
9.8859e-08
-1.97234e-07
1.42349e-07
-2.50686e-07
1.86346e-07
-3.10869e-07
2.32301e-07
-3.78757e-07
2.81491e-07
-4.55188e-07
3.34874e-07
-5.40729e-07
3.92961e-07
-6.35553e-07
4.55718e-07
-7.39319e-07
5.22504e-07
-8.51178e-07
5.9214e-07
-9.69679e-07
6.62849e-07
-1.09262e-06
7.32166e-07
-1.21739e-06
7.97389e-07
-1.34106e-06
8.55734e-07
-1.46052e-06
9.0452e-07
-1.57364e-06
9.42167e-07
-1.67929e-06
9.68221e-07
-1.77702e-06
9.82856e-07
-1.86684e-06
9.86918e-07
-1.94904e-06
9.81437e-07
-2.02407e-06
9.67594e-07
-2.09237e-06
9.46494e-07
-2.1544e-06
9.19194e-07
-2.21051e-06
8.86619e-07
-2.26103e-06
8.49596e-07
-2.30626e-06
8.08847e-07
-2.34645e-06
7.65022e-07
-2.38186e-06
7.1868e-07
-2.41273e-06
6.70306e-07
-2.43932e-06
6.20313e-07
-2.46187e-06
5.69056e-07
-2.48063e-06
5.16819e-07
-2.49574e-06
4.63777e-07
-2.50739e-06
4.10084e-07
-2.51581e-06
3.55896e-07
-2.52126e-06
3.01257e-07
-2.52405e-06
2.46174e-07
-2.5244e-06
1.90605e-07
-2.52245e-06
1.34471e-07
-2.51841e-06
7.76216e-08
-2.51243e-06
1.98808e-08
-2.50465e-06
-3.89344e-08
-2.49517e-06
-9.91036e-08
-2.48412e-06
-1.60918e-07
-2.47158e-06
-2.24669e-07
-2.45758e-06
-2.90675e-07
-2.44213e-06
-3.59269e-07
-2.42516e-06
-4.30766e-07
-2.40648e-06
-5.05443e-07
-2.38581e-06
-5.83511e-07
-2.36266e-06
-6.65068e-07
-2.33634e-06
-7.50036e-07
-2.30594e-06
-8.3817e-07
-2.27024e-06
-9.28894e-07
-2.22773e-06
-1.0211e-06
-2.17695e-06
-1.11305e-06
-2.11519e-06
-1.20281e-06
-2.03926e-06
-1.28713e-06
-1.94601e-06
-1.36122e-06
-1.83383e-06
-1.41974e-06
-1.70198e-06
-1.4564e-06
-1.55039e-06
-1.46577e-06
-1.38091e-06
-1.44166e-06
-1.19746e-06
-1.37958e-06
-1.00634e-06
-1.27742e-06
-8.16046e-07
-1.13675e-06
-6.35468e-07
-9.63863e-07
-4.71636e-07
-7.6851e-07
-3.29872e-07
-5.61491e-07
-2.14112e-07
-3.54319e-07
-1.25945e-07
-1.59507e-07
-6.45921e-08
1.09964e-08
-2.68407e-08
1.46221e-07
-7.18213e-09
2.33436e-07
-4.40743e-10
2.55649e-07
1.49163e-07
-1.557e-08
-4.61012e-08
-4.96577e-08
-7.6911e-09
-9.10119e-08
4.86483e-08
-1.36926e-07
1.00251e-07
-1.87239e-07
1.49172e-07
-2.42569e-07
1.97679e-07
-3.03814e-07
2.47591e-07
-3.71941e-07
3.00428e-07
-4.4782e-07
3.57369e-07
-5.32081e-07
4.19135e-07
-6.24985e-07
4.85864e-07
-7.26306e-07
5.57039e-07
-8.35341e-07
6.31539e-07
-9.50776e-07
7.07575e-07
-1.07047e-06
7.82544e-07
-1.19185e-06
8.53547e-07
-1.31206e-06
9.17595e-07
-1.42822e-06
9.71893e-07
-1.53824e-06
1.01454e-06
-1.64102e-06
1.04494e-06
-1.73598e-06
1.06319e-06
-1.82311e-06
1.06999e-06
-1.90267e-06
1.06647e-06
-1.97507e-06
1.05383e-06
-2.04072e-06
1.03325e-06
-2.10004e-06
1.00581e-06
-2.15336e-06
9.72519e-07
-2.201e-06
9.34262e-07
-2.24325e-06
8.91839e-07
-2.28036e-06
8.45966e-07
-2.31263e-06
7.97285e-07
-2.34031e-06
7.4636e-07
-2.36368e-06
6.93684e-07
-2.38305e-06
6.39677e-07
-2.39867e-06
5.84681e-07
-2.41081e-06
5.28958e-07
-2.41974e-06
4.72706e-07
-2.42576e-06
4.16097e-07
-2.42911e-06
3.59251e-07
-2.43006e-06
3.02209e-07
-2.42885e-06
2.44958e-07
-2.42568e-06
1.87439e-07
-2.42076e-06
1.29551e-07
-2.41428e-06
7.11439e-08
-2.40643e-06
1.20291e-08
-2.39738e-06
-4.7987e-08
-2.38729e-06
-1.09189e-07
-2.37635e-06
-1.71862e-07
-2.3647e-06
-2.36319e-07
-2.35247e-06
-3.02907e-07
-2.33975e-06
-3.71986e-07
-2.32659e-06
-4.43922e-07
-2.31297e-06
-5.19066e-07
-2.29875e-06
-5.97731e-07
-2.28366e-06
-6.80159e-07
-2.26722e-06
-7.66474e-07
-2.24874e-06
-8.56647e-07
-2.22727e-06
-9.5037e-07
-2.20144e-06
-1.04694e-06
-2.16932e-06
-1.14516e-06
-2.12881e-06
-1.24332e-06
-2.07748e-06
-1.33846e-06
-2.01132e-06
-1.42738e-06
-1.92646e-06
-1.5046e-06
-1.81944e-06
-1.56342e-06
-1.68886e-06
-1.59635e-06
-1.53448e-06
-1.59604e-06
-1.35856e-06
-1.5555e-06
-1.16605e-06
-1.46992e-06
-9.64975e-07
-1.33783e-06
-7.66043e-07
-1.1628e-06
-5.80014e-07
-9.54538e-07
-4.14771e-07
-7.26734e-07
-2.75925e-07
-4.93164e-07
-1.6702e-07
-2.68412e-07
-8.8455e-08
-6.75691e-08
-3.77434e-08
9.55098e-08
-1.00235e-08
2.05716e-07
5.59129e-10
2.45067e-07
1.49722e-07
-2.20903e-08
-2.40108e-08
-6.3898e-08
3.41166e-08
-1.12631e-07
9.73817e-08
-1.65643e-07
1.53263e-07
-2.22969e-07
2.06497e-07
-2.85316e-07
2.60026e-07
-3.53595e-07
3.15871e-07
-4.28699e-07
3.75532e-07
-5.11333e-07
4.40003e-07
-6.01871e-07
5.09673e-07
-7.0024e-07
5.84233e-07
-8.05919e-07
6.62719e-07
-9.17795e-07
7.43415e-07
-1.03386e-06
8.2364e-07
-1.15166e-06
9.00347e-07
-1.26849e-06
9.70376e-07
-1.38163e-06
1.03074e-06
-1.48902e-06
1.07928e-06
-1.58941e-06
1.11494e-06
-1.68215e-06
1.13768e-06
-1.76709e-06
1.14812e-06
-1.84445e-06
1.14736e-06
-1.9146e-06
1.13662e-06
-1.97791e-06
1.11715e-06
-2.03476e-06
1.0901e-06
-2.08547e-06
1.05652e-06
-2.13035e-06
1.0174e-06
-2.16968e-06
9.73597e-07
-2.20377e-06
9.25927e-07
-2.23292e-06
8.75112e-07
-2.25744e-06
8.21806e-07
-2.27767e-06
7.6659e-07
-2.29395e-06
7.0996e-07
-2.30659e-06
6.52323e-07
-2.31592e-06
5.94008e-07
-2.32224e-06
5.35274e-07
-2.32585e-06
4.76323e-07
-2.32706e-06
4.17299e-07
-2.32609e-06
3.58289e-07
-2.3232e-06
2.99313e-07
-2.31858e-06
2.40343e-07
-2.31245e-06
1.81308e-07
-2.305e-06
1.22096e-07
-2.29641e-06
6.25594e-08
-2.28689e-06
2.50702e-09
-2.27662e-06
-5.8257e-08
-2.2658e-06
-1.2001e-07
-2.25463e-06
-1.83031e-07
-2.24331e-06
-2.4764e-07
-2.23203e-06
-3.14191e-07
-2.22095e-06
-3.83061e-07
-2.21022e-06
-4.54649e-07
-2.19993e-06
-5.29359e-07
-2.19008e-06
-6.07581e-07
-2.18057e-06
-6.8967e-07
-2.17114e-06
-7.75906e-07
-2.16133e-06
-8.66449e-07
-2.15046e-06
-9.61249e-07
-2.13743e-06
-1.05996e-06
-2.12074e-06
-1.16185e-06
-2.09847e-06
-1.26559e-06
-2.06784e-06
-1.36908e-06
-2.02585e-06
-1.46937e-06
-1.96853e-06
-1.56192e-06
-1.89064e-06
-1.64131e-06
-1.78785e-06
-1.69913e-06
-1.65733e-06
-1.72656e-06
-1.49867e-06
-1.71416e-06
-1.31478e-06
-1.65381e-06
-1.11206e-06
-1.54055e-06
-9.00798e-07
-1.37406e-06
-6.94374e-07
-1.16096e-06
-5.05359e-07
-9.1575e-07
-3.42221e-07
-6.56302e-07
-2.10614e-07
-4.00019e-07
-1.12949e-07
-1.65234e-07
-4.78494e-08
3.04099e-08
-1.15398e-08
1.69406e-07
2.36554e-09
2.31161e-07
1.52088e-07
-2.83115e-08
4.30063e-09
-7.72955e-08
8.31006e-08
-1.32755e-07
1.52841e-07
-1.92242e-07
2.12749e-07
-2.55901e-07
2.70157e-07
-3.24481e-07
3.28605e-07
-3.98849e-07
3.90239e-07
-4.79779e-07
4.56461e-07
-5.67771e-07
5.27996e-07
-6.62925e-07
6.04826e-07
-7.64924e-07
6.86232e-07
-8.72919e-07
7.70714e-07
-9.85099e-07
8.55594e-07
-1.09919e-06
9.37727e-07
-1.2127e-06
1.01387e-06
-1.32307e-06
1.08074e-06
-1.42817e-06
1.13584e-06
-1.5266e-06
1.1777e-06
-1.61755e-06
1.2059e-06
-1.70079e-06
1.22091e-06
-1.77641e-06
1.22375e-06
-1.84473e-06
1.21568e-06
-1.9061e-06
1.19798e-06
-1.96083e-06
1.17188e-06
-2.00926e-06
1.13852e-06
-2.05169e-06
1.09895e-06
-2.08843e-06
1.05413e-06
-2.1198e-06
1.00497e-06
-2.14616e-06
9.52284e-07
-2.16787e-06
8.96823e-07
-2.18533e-06
8.39262e-07
-2.19891e-06
7.80177e-07
-2.209e-06
7.20046e-07
-2.21594e-06
6.59261e-07
-2.22006e-06
5.98132e-07
-2.22169e-06
5.369e-07
-2.22111e-06
4.7574e-07
-2.21857e-06
4.14759e-07
-2.21429e-06
3.54012e-07
-2.20848e-06
2.935e-07
-2.20131e-06
2.33178e-07
-2.19297e-06
1.72967e-07
-2.18363e-06
1.12752e-07
-2.17345e-06
5.23863e-08
-2.16264e-06
-8.30761e-09
-2.15136e-06
-6.95347e-08
-2.13983e-06
-1.31541e-07
-2.12826e-06
-1.94601e-07
-2.11687e-06
-2.59024e-07
-2.10591e-06
-3.25157e-07
-2.09559e-06
-3.93379e-07
-2.08614e-06
-4.64102e-07
-2.07774e-06
-5.37761e-07
-2.07051e-06
-6.14805e-07
-2.06451e-06
-6.95672e-07
-2.05965e-06
-7.80767e-07
-2.05569e-06
-8.70412e-07
-2.05215e-06
-9.64787e-07
-2.04826e-06
-1.06385e-06
-2.04287e-06
-1.16724e-06
-2.03436e-06
-1.2741e-06
-2.02047e-06
-1.38297e-06
-1.99837e-06
-1.49148e-06
-1.96422e-06
-1.59606e-06
-1.9137e-06
-1.69184e-06
-1.84096e-06
-1.77187e-06
-1.74035e-06
-1.82717e-06
-1.60785e-06
-1.84666e-06
-1.44285e-06
-1.81881e-06
-1.24923e-06
-1.73416e-06
-1.03541e-06
-1.58788e-06
-8.14706e-07
-1.38166e-06
-6.03443e-07
-1.12701e-06
-4.1555e-07
-8.44195e-07
-2.59814e-07
-5.55755e-07
-1.41193e-07
-2.83855e-07
-6.01655e-08
-5.06173e-08
-1.40288e-08
1.2327e-07
3.80539e-09
2.13327e-07
1.55893e-07
-3.40011e-08
3.83017e-08
-8.94615e-08
1.38561e-07
-1.50932e-07
2.14312e-07
-2.16156e-07
2.77973e-07
-2.85347e-07
3.39348e-07
-3.59242e-07
4.025e-07
-4.38629e-07
4.69626e-07
-5.24124e-07
5.41956e-07
-6.1601e-07
6.19882e-07
-7.1418e-07
7.02996e-07
-8.1809e-07
7.90143e-07
-9.26236e-07
8.78859e-07
-1.0365e-06
9.65859e-07
-1.14671e-06
1.04793e-06
-1.2544e-06
1.12155e-06
-1.35744e-06
1.18378e-06
-1.45426e-06
1.23266e-06
-1.54385e-06
1.2673e-06
-1.62582e-06
1.28787e-06
-1.70017e-06
1.29526e-06
-1.76713e-06
1.29071e-06
-1.82699e-06
1.27554e-06
-1.88007e-06
1.25106e-06
-1.92668e-06
1.21849e-06
-1.96713e-06
1.17897e-06
-2.00174e-06
1.13357e-06
-2.03089e-06
1.08328e-06
-2.05497e-06
1.02905e-06
-2.07439e-06
9.7171e-07
-2.08962e-06
9.12046e-07
-2.10107e-06
8.50715e-07
-2.10916e-06
7.88269e-07
-2.11428e-06
7.25162e-07
-2.11677e-06
6.61758e-07
-2.11697e-06
5.98331e-07
-2.11516e-06
5.35086e-07
-2.11158e-06
4.72157e-07
-2.10643e-06
4.09615e-07
-2.0999e-06
3.47485e-07
-2.09215e-06
2.85748e-07
-2.08332e-06
2.24347e-07
-2.07355e-06
1.63197e-07
-2.06298e-06
1.02183e-07
-2.05176e-06
4.11661e-08
-2.04005e-06
-2.00191e-08
-2.02802e-06
-8.15645e-08
-2.01587e-06
-1.43692e-07
-2.00382e-06
-2.06655e-07
-1.9921e-06
-2.70741e-07
-1.98098e-06
-3.36276e-07
-1.97073e-06
-4.03628e-07
-1.96163e-06
-4.73204e-07
-1.95394e-06
-5.45452e-07
-1.94789e-06
-6.20852e-07
-1.94366e-06
-6.99902e-07
-1.94133e-06
-7.83103e-07
-1.94083e-06
-8.70913e-07
-1.94191e-06
-9.63706e-07
-1.94406e-06
-1.0617e-06
-1.94644e-06
-1.16486e-06
-1.94777e-06
-1.27277e-06
-1.94623e-06
-1.38451e-06
-1.93934e-06
-1.49836e-06
-1.9238e-06
-1.6116e-06
-1.89552e-06
-1.72012e-06
-1.84936e-06
-1.81803e-06
-1.77909e-06
-1.89744e-06
-1.67796e-06
-1.94779e-06
-1.54079e-06
-1.95598e-06
-1.36699e-06
-1.90796e-06
-1.16193e-06
-1.79294e-06
-9.36775e-07
-1.60682e-06
-7.08855e-07
-1.35493e-06
-4.97311e-07
-1.05574e-06
-3.16603e-07
-7.36464e-07
-1.75226e-07
-4.25231e-07
-7.64985e-08
-1.49345e-07
-1.88807e-08
6.56519e-08
4.2497e-09
1.90197e-07
1.60143e-07
-3.91822e-08
7.74839e-08
-1.00172e-07
1.99551e-07
-1.66817e-07
2.80957e-07
-2.3694e-07
3.48096e-07
-3.10765e-07
4.13173e-07
-3.88976e-07
4.80711e-07
-4.72243e-07
5.52894e-07
-5.6101e-07
6.30723e-07
-6.55377e-07
7.14249e-07
-7.55096e-07
8.02715e-07
-8.59083e-07
8.9413e-07
-9.65435e-07
9.85211e-07
-1.07226e-06
1.07268e-06
-1.17728e-06
1.15296e-06
-1.27836e-06
1.22263e-06
-1.37379e-06
1.27921e-06
-1.46237e-06
1.32123e-06
-1.54349e-06
1.34842e-06
-1.61702e-06
1.3614e-06
-1.6831e-06
1.36133e-06
-1.74196e-06
1.34957e-06
-1.7939e-06
1.32748e-06
-1.83921e-06
1.29638e-06
-1.87822e-06
1.2575e-06
-1.91128e-06
1.21203e-06
-1.93879e-06
1.16107e-06
-1.96118e-06
1.10567e-06
-1.97893e-06
1.04679e-06
-1.99252e-06
9.85306e-07
-2.00245e-06
9.21974e-07
-2.00916e-06
8.57422e-07
-2.01306e-06
7.92169e-07
-2.01453e-06
7.2663e-07
-2.01389e-06
6.61122e-07
-2.01143e-06
5.95873e-07
-2.00739e-06
5.31039e-07
-2.00194e-06
4.66712e-07
-1.99526e-06
4.02929e-07
-1.98746e-06
3.39687e-07
-1.97866e-06
2.76948e-07
-1.96896e-06
2.14646e-07
-1.95845e-06
1.52694e-07
-1.94725e-06
9.09814e-08
-1.93547e-06
2.93809e-08
-1.92323e-06
-3.2256e-08
-1.91069e-06
-9.40987e-08
-1.89805e-06
-1.56341e-07
-1.88549e-06
-2.19207e-07
-1.87328e-06
-2.82953e-07
-1.86168e-06
-3.47873e-07
-1.851e-06
-4.14309e-07
-1.84156e-06
-4.82649e-07
-1.83368e-06
-5.53333e-07
-1.82768e-06
-6.26851e-07
-1.82384e-06
-7.0374e-07
-1.82238e-06
-7.84565e-07
-1.8234e-06
-8.69894e-07