/*--------------------------------*- C++ -*----------------------------------*\
  =========                 |
  \\      /  F ield         | OpenFOAM: The Open Source CFD Toolbox
   \\    /   O peration     | Website:  https://openfoam.org
    \\  /    A nd           | Version:  13
     \\/     M anipulation  |
\*---------------------------------------------------------------------------*/
FoamFile
{
    format      ascii;
    class       volVectorField;
    location    "2.5";
    object      U;
}
// * * * * * * * * * * * * * * * * * * * * * * * * * * * * * * * * * * * * * //

dimensions      [0 1 -1 0 0 0 0];

internalField   nonuniform List<vector> 
6400
(
(5.86469e-05 -6.40669e-05 0)
(0.000642077 -0.00018447 0)
(0.00159378 -0.000258346 0)
(0.00262721 -0.00027627 0)
(0.00357933 -0.000252563 0)
(0.00435173 -0.000207926 0)
(0.0049309 -0.000166742 0)
(0.00534805 -0.000140348 0)
(0.00564345 -0.000128422 0)
(0.00585389 -0.000127471 0)
(0.00600469 -0.000132851 0)
(0.00611067 -0.000142607 0)
(0.00617803 -0.000154952 0)
(0.006206 -0.000169093 0)
(0.00619071 -0.000182395 0)
(0.00612418 -0.000195823 0)
(0.00598706 -0.000207358 0)
(0.00576549 -0.000214913 0)
(0.00543598 -0.000218181 0)
(0.00496781 -0.00021603 0)
(0.00432962 -0.000207518 0)
(0.00349053 -0.000194195 0)
(0.00242696 -0.000182741 0)
(0.00111755 -0.00018403 0)
(-0.000443087 -0.000207086 0)
(-0.00224696 -0.000243664 0)
(-0.00437564 -0.000264396 0)
(-0.00687908 -0.000236737 0)
(-0.00982731 -9.79227e-05 0)
(-0.0132392 0.000194202 0)
(-0.017403 0.000619128 0)
(-0.0221402 0.00107265 0)
(-0.0274313 0.00152991 0)
(-0.0331826 0.00196595 0)
(-0.0392841 0.00235758 0)
(-0.0456084 0.00268561 0)
(-0.0520239 0.00293667 0)
(-0.0584034 0.00310747 0)
(-0.0646283 0.00320051 0)
(-0.0705952 0.00322174 0)
(-0.076213 0.00317938 0)
(-0.0814027 0.00308005 0)
(-0.0860969 0.00292821 0)
(-0.0902408 0.00272593 0)
(-0.0937757 0.00247363 0)
(-0.0966675 0.00217532 0)
(-0.0988867 0.0018409 0)
(-0.100291 0.00150997 0)
(-0.100905 0.00120662 0)
(-0.100925 0.000721983 0)
(-0.0998701 0.000304552 0)
(-0.0980809 -0.000190315 0)
(-0.0953033 -0.000679345 0)
(-0.0916529 -0.00118624 0)
(-0.0870567 -0.00168399 0)
(-0.0815721 -0.00216445 0)
(-0.0752212 -0.00261034 0)
(-0.0680709 -0.0030158 0)
(-0.0602479 -0.00340202 0)
(-0.0517927 -0.00372459 0)
(-0.0428682 -0.00395264 0)
(-0.0336433 -0.00405679 0)
(-0.0243469 -0.00402477 0)
(-0.0152063 -0.00383713 0)
(-0.00646661 -0.00348593 0)
(0.00155451 -0.0029971 0)
(0.00855218 -0.00236025 0)
(0.0142981 -0.00157896 0)
(0.0185552 -0.00072286 0)
(0.0212158 0.00014809 0)
(0.0220442 0.00102035 0)
(0.0213663 0.00143869 0)
(0.019226 0.0017411 0)
(0.0158143 0.00176624 0)
(0.0119889 0.00149977 0)
(0.00821634 0.00106454 0)
(0.00493463 0.000643687 0)
(0.00238895 0.000327036 0)
(0.000715028 8.99057e-05 0)
(-3.05317e-05 -8.55205e-05 0)
(0.000163344 -0.000628196 0)
(0.00142357 -0.00144949 0)
(0.00311944 -0.00181943 0)
(0.0047635 -0.00179965 0)
(0.00612657 -0.00153349 0)
(0.00714319 -0.00118497 0)
(0.00781997 -0.000856065 0)
(0.00819825 -0.000589247 0)
(0.00833107 -0.00038935 0)
(0.00826282 -0.00024239 0)
(0.00801975 -0.000131468 0)
(0.00761089 -3.62872e-05 0)
(0.00703757 5.57195e-05 0)
(0.00628634 0.000153696 0)
(0.005343 0.00026339 0)
(0.00417355 0.000395401 0)
(0.00273811 0.000558583 0)
(0.000989886 0.000763396 0)
(-0.00112591 0.00102275 0)
(-0.00369132 0.00134794 0)
(-0.00676493 0.00173752 0)
(-0.0104121 0.00218697 0)
(-0.0147044 0.00268577 0)
(-0.0197061 0.00322836 0)
(-0.0254822 0.00383126 0)
(-0.0320798 0.00452577 0)
(-0.0394511 0.0053245 0)
(-0.0475585 0.0062125 0)
(-0.0562689 0.00715841 0)
(-0.0653602 0.00812409 0)
(-0.0745226 0.00899656 0)
(-0.0837207 0.0097284 0)
(-0.0927738 0.0103004 0)
(-0.101563 0.0106728 0)
(-0.109962 0.010832 0)
(-0.117876 0.0107891 0)
(-0.125223 0.0105522 0)
(-0.131948 0.0101457 0)
(-0.138004 0.00959053 0)
(-0.143359 0.00890832 0)
(-0.147987 0.00811979 0)
(-0.151868 0.00723948 0)
(-0.154985 0.0062788 0)
(-0.157318 0.00525251 0)
(-0.158865 0.00417098 0)
(-0.159616 0.00303888 0)
(-0.15956 0.00186174 0)
(-0.15866 0.000649588 0)
(-0.15691 -0.000609962 0)
(-0.154325 -0.00194295 0)
(-0.150836 -0.00331802 0)
(-0.146497 -0.00472717 0)
(-0.141255 -0.00615947 0)
(-0.135135 -0.00759817 0)
(-0.128123 -0.00902514 0)
(-0.120241 -0.0104115 0)
(-0.111513 -0.0117176 0)
(-0.10198 -0.012914 0)
(-0.0916948 -0.0139629 0)
(-0.0808079 -0.014818 0)
(-0.0694555 -0.015427 0)
(-0.0577883 -0.0157273 0)
(-0.0460057 -0.0156749 0)
(-0.0343309 -0.0152272 0)
(-0.0229939 -0.0143496 0)
(-0.0122499 -0.0130373 0)
(-0.00237107 -0.011286 0)
(0.00637175 -0.0091323 0)
(0.0137455 -0.00664728 0)
(0.0195672 -0.00393939 0)
(0.0236245 -0.0011715 0)
(0.0258803 0.00141965 0)
(0.0262224 0.00367823 0)
(0.0247156 0.00541299 0)
(0.0216242 0.00626498 0)
(0.0171394 0.00624001 0)
(0.0119661 0.00544346 0)
(0.00693539 0.00413467 0)
(0.00284201 0.00249965 0)
(0.000296088 0.000807255 0)
(0.00025366 -0.00155595 0)
(0.00185926 -0.00316682 0)
(0.00363793 -0.00358796 0)
(0.00507142 -0.00326916 0)
(0.00608247 -0.00261063 0)
(0.00669642 -0.00187604 0)
(0.00695465 -0.00120221 0)
(0.00690133 -0.000638894 0)
(0.00657129 -0.000183699 0)
(0.00598401 0.000191276 0)
(0.00514849 0.000519763 0)
(0.00405412 0.000835715 0)
(0.00267553 0.00116591 0)
(0.000974118 0.00153191 0)
(-0.00110438 0.00195466 0)
(-0.00361634 0.00245217 0)
(-0.0066294 0.00304288 0)
(-0.0102165 0.00374646 0)
(-0.0144516 0.00458146 0)
(-0.0193917 0.00555437 0)
(-0.025101 0.00666908 0)
(-0.0316246 0.00792196 0)
(-0.0389794 0.00929587 0)
(-0.0471465 0.0107515 0)
(-0.0560569 0.0122385 0)
(-0.0655789 0.0136953 0)
(-0.0755275 0.0150529 0)
(-0.085704 0.0162743 0)
(-0.0958946 0.0173088 0)
(-0.105914 0.0181168 0)
(-0.115593 0.0186843 0)
(-0.124807 0.0189672 0)
(-0.133434 0.0189632 0)
(-0.141397 0.0186894 0)
(-0.14867 0.0181667 0)
(-0.155232 0.0174215 0)
(-0.161081 0.0164746 0)
(-0.166218 0.0153539 0)
(-0.170648 0.0140869 0)
(-0.174379 0.0126937 0)
(-0.177415 0.0111977 0)
(-0.179762 0.00961536 0)
(-0.181425 0.00795892 0)
(-0.182401 0.00623526 0)
(-0.182688 0.00444723 0)
(-0.182277 0.00259861 0)
(-0.181163 0.000692747 0)
(-0.179332 -0.00127285 0)
(-0.176752 -0.00330632 0)
(-0.173414 -0.00540644 0)
(-0.169301 -0.00754748 0)
(-0.164402 -0.00973275 0)
(-0.158695 -0.0119471 0)
(-0.152171 -0.0141708 0)
(-0.144823 -0.016375 0)
(-0.136657 -0.0185217 0)
(-0.127689 -0.0205656 0)
(-0.117963 -0.0224535 0)
(-0.10753 -0.0241126 0)
(-0.096479 -0.0254765 0)
(-0.084936 -0.0264667 0)
(-0.0730488 -0.026997 0)
(-0.0609784 -0.026983 0)
(-0.048948 -0.0263808 0)
(-0.037176 -0.0251404 0)
(-0.025885 -0.0232316 0)
(-0.0153088 -0.0206508 0)
(-0.005693 -0.0174569 0)
(0.00274179 -0.013736 0)
(0.00981666 -0.00962619 0)
(0.0153856 -0.00531065 0)
(0.0193305 -0.00101195 0)
(0.0216412 0.00301853 0)
(0.0221895 0.00643114 0)
(0.0209303 0.00901224 0)
(0.0182075 0.0103833 0)
(0.0140959 0.0104538 0)
(0.00921884 0.00920976 0)
(0.00436864 0.00669375 0)
(0.000584067 0.00294568 0)
(0.000323358 -0.00265091 0)
(0.00196778 -0.00490333 0)
(0.00342407 -0.00504799 0)
(0.00435499 -0.00424421 0)
(0.00482884 -0.0031467 0)
(0.00491688 -0.0020414 0)
(0.00466562 -0.00104622 0)
(0.00410209 -0.00019124 0)
(0.00323429 0.000542344 0)
(0.00205381 0.00119757 0)
(0.000539115 0.00182483 0)
(-0.00134509 0.00247045 0)
(-0.00364689 0.00317407 0)
(-0.00642553 0.00396932 0)
(-0.00974946 0.0048856 0)
(-0.013692 0.00594865 0)
(-0.0183288 0.00718116 0)
(-0.0237306 0.00860018 0)
(-0.0299555 0.0102138 0)
(-0.0370366 0.0120161 0)
(-0.0449763 0.0139847 0)
(-0.0537293 0.016072 0)
(-0.0631997 0.0182086 0)
(-0.0732414 0.0202997 0)
(-0.0836597 0.022245 0)
(-0.0942375 0.0239749 0)
(-0.104777 0.0254229 0)
(-0.11509 0.026527 0)
(-0.124995 0.0272353 0)
(-0.13436 0.02755 0)
(-0.143072 0.0275144 0)
(-0.151092 0.0271461 0)
(-0.158387 0.0264642 0)
(-0.164971 0.0254985 0)
(-0.170861 0.0242758 0)
(-0.176066 0.0228385 0)
(-0.180619 0.0212159 0)
(-0.184541 0.0194326 0)
(-0.187848 0.0175162 0)
(-0.19056 0.0154884 0)
(-0.192688 0.0133637 0)
(-0.194239 0.0111552 0)
(-0.195214 0.00887052 0)
(-0.195614 0.00651443 0)
(-0.195429 0.00408706 0)
(-0.194649 0.00158821 0)
(-0.193264 -0.000983281 0)
(-0.191252 -0.00363096 0)
(-0.188589 -0.00635178 0)
(-0.185256 -0.0091557 0)
(-0.181234 -0.0120296 0)
(-0.176499 -0.0149678 0)
(-0.171028 -0.0179544 0)
(-0.164799 -0.020965 0)
(-0.157793 -0.023963 0)
(-0.149998 -0.0268993 0)
(-0.141417 -0.0297149 0)
(-0.132064 -0.0323353 0)
(-0.121973 -0.0346711 0)
(-0.111198 -0.0366153 0)
(-0.0998327 -0.0380534 0)
(-0.0880199 -0.0388798 0)
(-0.0758883 -0.0389801 0)
(-0.0636366 -0.0382713 0)
(-0.051519 -0.0366974 0)
(-0.0397744 -0.0342431 0)
(-0.0286165 -0.0308916 0)
(-0.0182821 -0.0266987 0)
(-0.0090073 -0.0217873 0)
(-0.000982902 -0.0163297 0)
(0.0056395 -0.0105551 0)
(0.010748 -0.00472511 0)
(0.0143007 0.000896484 0)
(0.0162912 0.00596522 0)
(0.0167077 0.010089 0)
(0.0154924 0.0129593 0)
(0.0128609 0.0142496 0)
(0.00909773 0.0137465 0)
(0.00469258 0.0111449 0)
(0.000670641 0.00556256 0)
(0.000371941 -0.00375662 0)
(0.00179506 -0.00633741 0)
(0.00269846 -0.00598879 0)
(0.00304117 -0.00466748 0)
(0.00294121 -0.0031463 0)
(0.00247089 -0.00168717 0)
(0.00166516 -0.000369793 0)
(0.000530181 0.000802794 0)
(-0.000951216 0.00186828 0)
(-0.00281298 0.00288434 0)
(-0.00510182 0.0039139 0)
(-0.00787496 0.0050152 0)
(-0.0111984 0.00623833 0)
(-0.0151443 0.00762515 0)
(-0.0197871 0.00920965 0)
(-0.025198 0.0110174 0)
(-0.0314369 0.0130632 0)
(-0.0385417 0.0153464 0)
(-0.0465173 0.0178458 0)
(-0.0553233 0.0205122 0)
(-0.064866 0.0232676 0)
(-0.0749934 0.0260001 0)
(-0.0855122 0.0285959 0)
(-0.0962067 0.0309466 0)
(-0.106876 0.03295 0)
(-0.117328 0.0345188 0)
(-0.127371 0.035589 0)
(-0.136837 0.0361786 0)
(-0.145646 0.0362971 0)
(-0.153772 0.0359602 0)
(-0.161192 0.035224 0)
(-0.167922 0.0341429 0)
(-0.173985 0.0327603 0)
(-0.179419 0.0311213 0)
(-0.184247 0.0292576 0)
(-0.188498 0.0272057 0)
(-0.192202 0.0249925 0)
(-0.195377 0.022643 0)
(-0.198042 0.0201764 0)
(-0.200215 0.0176096 0)
(-0.201901 0.0149557 0)
(-0.203108 0.0122209 0)
(-0.203833 0.00940802 0)
(-0.204072 0.00651854 0)
(-0.203818 0.00354729 0)
(-0.203059 0.000489752 0)
(-0.201781 -0.00265925 0)
(-0.199961 -0.00590208 0)
(-0.197577 -0.00924566 0)
(-0.194605 -0.0126931 0)
(-0.191017 -0.0162383 0)
(-0.186787 -0.0198754 0)
(-0.181885 -0.0235889 0)
(-0.17628 -0.0273539 0)
(-0.16994 -0.0311291 0)
(-0.162833 -0.034857 0)
(-0.154941 -0.0384677 0)
(-0.146256 -0.0418719 0)
(-0.136783 -0.0449563 0)
(-0.126544 -0.0475878 0)
(-0.115585 -0.0496245 0)
(-0.104006 -0.0509118 0)
(-0.0919443 -0.0513227 0)
(-0.0795414 -0.050706 0)
(-0.0670258 -0.0489639 0)
(-0.0546892 -0.0460685 0)
(-0.0428158 -0.0420565 0)
(-0.0316231 -0.0369563 0)
(-0.0213705 -0.0309139 0)
(-0.0122883 -0.0241442 0)
(-0.00456043 -0.016924 0)
(0.00168197 -0.00956883 0)
(0.00637594 -0.00240818 0)
(0.00952061 0.00419597 0)
(0.0111439 0.00986162 0)
(0.0112711 0.0141856 0)
(0.00998822 0.0167787 0)
(0.00747469 0.017295 0)
(0.00405519 0.015078 0)
(0.00055207 0.00804695 0)
(0.000388958 -0.0047385 0)
(0.00138132 -0.00727374 0)
(0.00164362 -0.00631938 0)
(0.00135831 -0.00448079 0)
(0.000656236 -0.00256291 0)
(-0.000405558 -0.000757189 0)
(-0.00181158 0.000897804 0)
(-0.00357705 0.00242646 0)
(-0.00574164 0.00388597 0)
(-0.0083606 0.00534812 0)
(-0.0114996 0.00688612 0)
(-0.0152307 0.00856585 0)
(-0.0196287 0.010442 0)
(-0.0247664 0.0125567 0)
(-0.0307079 0.0149381 0)
(-0.0375 0.0175971 0)
(-0.0451609 0.0205223 0)
(-0.0536675 0.023674 0)
(-0.0629484 0.0269804 0)
(-0.0728767 0.0303321 0)
(-0.0832717 0.0336037 0)
(-0.0939251 0.0366524 0)
(-0.104629 0.0393584 0)
(-0.115167 0.0416003 0)
(-0.125332 0.0432724 0)
(-0.134939 0.0443483 0)
(-0.143899 0.04482 0)
(-0.152174 0.0447255 0)
(-0.159765 0.0441387 0)
(-0.166699 0.0431141 0)
(-0.172998 0.0417164 0)
(-0.178695 0.040004 0)
(-0.183824 0.038023 0)
(-0.188417 0.0358143 0)
(-0.192502 0.033411 0)
(-0.196109 0.0308458 0)
(-0.199257 0.0281427 0)
(-0.201966 0.0253211 0)
(-0.204251 0.0223957 0)
(-0.20612 0.0193807 0)
(-0.20758 0.0162842 0)
(-0.208636 0.0131087 0)
(-0.209287 0.00985343 0)
(-0.209529 0.00651648 0)
(-0.209361 0.00308646 0)
(-0.208777 -0.000448112 0)
(-0.207768 -0.00410052 0)
(-0.206297 -0.00786738 0)
(-0.204347 -0.0117558 0)
(-0.201893 -0.0157701 0)
(-0.198901 -0.0199069 0)
(-0.195338 -0.0241613 0)
(-0.191166 -0.0285199 0)
(-0.186355 -0.0329685 0)
(-0.180878 -0.0374806 0)
(-0.174664 -0.0419804 0)
(-0.167674 -0.0463869 0)
(-0.159879 -0.0506043 0)
(-0.15125 -0.054506 0)
(-0.141772 -0.057938 0)
(-0.131461 -0.060721 0)
(-0.120346 -0.062669 0)
(-0.108533 -0.0636024 0)
(-0.0961636 -0.0633164 0)
(-0.0834174 -0.0616725 0)
(-0.0705095 -0.0585772 0)
(-0.0578164 -0.0540593 0)
(-0.0456575 -0.0481995 0)
(-0.0342802 -0.0411394 0)
(-0.023974 -0.0331227 0)
(-0.0149784 -0.0244786 0)
(-0.00747258 -0.0155901 0)
(-0.00155695 -0.00686203 0)
(0.00274922 0.00129006 0)
(0.00548938 0.00844933 0)
(0.0067401 0.0141928 0)
(0.00660571 0.0180958 0)
(0.00521171 0.0196887 0)
(0.0029512 0.0180763 0)
(0.000339761 0.0100184 0)
(0.000365988 -0.00549648 0)
(0.000788125 -0.00760993 0)
(0.00036902 -0.00597818 0)
(-0.000561728 -0.0036648 0)
(-0.00188824 -0.00136718 0)
(-0.00357157 0.000788906 0)
(-0.00561639 0.0028066 0)
(-0.00805846 0.0047373 0)
(-0.0109558 0.00665644 0)
(-0.0143793 0.00864751 0)
(-0.0184061 0.0107899 0)
(-0.0231137 0.013151 0)
(-0.0285735 0.015781 0)
(-0.0348435 0.0187109 0)
(-0.0419598 0.0219485 0)
(-0.0499256 0.0254731 0)
(-0.0586998 0.029228 0)
(-0.0681895 0.0331178 0)
(-0.07825 0.0370272 0)
(-0.0886954 0.0407963 0)
(-0.0993063 0.0442756 0)
(-0.109876 0.0473296 0)
(-0.120167 0.0497883 0)
(-0.129953 0.0515801 0)
(-0.13911 0.0526632 0)
(-0.147592 0.0530614 0)
(-0.155406 0.0528451 0)
(-0.162567 0.052083 0)
(-0.169107 0.0508539 0)
(-0.175067 0.0492231 0)
(-0.180479 0.0472546 0)
(-0.185379 0.0450047 0)
(-0.189794 0.0425168 0)
(-0.193752 0.0398294 0)
(-0.197277 0.0369736 0)
(-0.200391 0.0339759 0)
(-0.203114 0.0308572 0)
(-0.205461 0.0276355 0)
(-0.207443 0.0243229 0)
(-0.209066 0.0209323 0)
(-0.210336 0.0174692 0)
(-0.211256 0.0139342 0)
(-0.211843 0.0102942 0)
(-0.212085 0.0065783 0)
(-0.211978 0.0027684 0)
(-0.211515 -0.00114745 0)
(-0.210691 -0.00518479 0)
(-0.209516 -0.0093608 0)
(-0.207974 -0.0136922 0)
(-0.206053 -0.0182017 0)
(-0.203723 -0.0228725 0)
(-0.200942 -0.027705 0)
(-0.197662 -0.0326865 0)
(-0.193819 -0.0377881 0)
(-0.189342 -0.0429678 0)
(-0.184192 -0.0481856 0)
(-0.178291 -0.0533473 0)
(-0.171608 -0.0583803 0)
(-0.164086 -0.0631532 0)
(-0.155653 -0.0674752 0)
(-0.146285 -0.0711464 0)
(-0.135963 -0.0739387 0)
(-0.124725 -0.0756086 0)
(-0.112649 -0.0759301 0)
(-0.0999043 -0.0746847 0)
(-0.0866911 -0.0717159 0)
(-0.0732895 -0.066962 0)
(-0.0601303 -0.0605264 0)
(-0.0475713 -0.0526011 0)
(-0.0359252 -0.0434278 0)
(-0.0255075 -0.033386 0)
(-0.0165722 -0.0229324 0)
(-0.0092846 -0.0125616 0)
(-0.00371167 -0.00277456 0)
(0.000173722 0.0059451 0)
(0.00247752 0.0131354 0)
(0.00335711 0.0183435 0)
(0.00299249 0.0210251 0)
(0.00172425 0.0199997 0)
(0.000120349 0.0112569 0)
(0.000312388 -0.00587897 0)
(7.2645e-05 -0.00727244 0)
(-0.00105288 -0.00495997 0)
(-0.0026278 -0.002203 0)
(-0.00459055 0.000462669 0)
(-0.00691624 0.00297965 0)
(-0.00962456 0.00539035 0)
(-0.0127687 0.00777106 0)
(-0.0164206 0.0102122 0)
(-0.0206602 0.0128045 0)
(-0.0255673 0.0156272 0)
(-0.0312136 0.0187401 0)
(-0.0376546 0.0221785 0)
(-0.0449199 0.0259485 0)
(-0.0530038 0.0300226 0)
(-0.0618564 0.0343335 0)
(-0.0713736 0.0387748 0)
(-0.0814142 0.0432066 0)
(-0.0917771 0.0474551 0)
(-0.102244 0.0513715 0)
(-0.112594 0.0547502 0)
(-0.122562 0.0574533 0)
(-0.131959 0.0593802 0)
(-0.14071 0.0605209 0)
(-0.148795 0.0609242 0)
(-0.156229 0.0606584 0)
(-0.163042 0.0598057 0)
(-0.169268 0.0584453 0)
(-0.174949 0.0566558 0)
(-0.18012 0.0545014 0)
(-0.184813 0.0520426 0)
(-0.189054 0.0493302 0)
(-0.192866 0.0464051 0)
(-0.196273 0.0433032 0)
(-0.199292 0.0400535 0)
(-0.201941 0.0366818 0)
(-0.204232 0.0332112 0)
(-0.206168 0.029666 0)
(-0.207793 0.0260228 0)
(-0.209125 0.022296 0)
(-0.210167 0.0184944 0)
(-0.210924 0.0146148 0)
(-0.211389 0.0106794 0)
(-0.211571 0.00664656 0)
(-0.211465 0.0025147 0)
(-0.211072 -0.00172653 0)
(-0.210393 -0.00608622 0)
(-0.209434 -0.010582 0)
(-0.208183 -0.0152281 0)
(-0.20663 -0.0200319 0)
(-0.20476 -0.0250356 0)
(-0.202554 -0.0302486 0)
(-0.199988 -0.035675 0)
(-0.197025 -0.041306 0)
(-0.193618 -0.0471203 0)
(-0.189711 -0.0530895 0)
(-0.185216 -0.0591026 0)
(-0.179953 -0.0649796 0)
(-0.173818 -0.0706094 0)
(-0.166746 -0.0758455 0)
(-0.158708 -0.0805177 0)
(-0.149592 -0.0843313 0)
(-0.139376 -0.0870007 0)
(-0.128064 -0.0882226 0)
(-0.115736 -0.0877087 0)
(-0.10256 -0.0852446 0)
(-0.0887903 -0.080641 0)
(-0.0747998 -0.0739401 0)
(-0.0610716 -0.0653427 0)
(-0.0480588 -0.0551685 0)
(-0.0361191 -0.0437983 0)
(-0.0256064 -0.0317658 0)
(-0.0167788 -0.0196657 0)
(-0.00978095 -0.00810984 0)
(-0.00463706 0.00231194 0)
(-0.00125057 0.0110615 0)
(0.000579638 0.0176244 0)
(0.00113147 0.021393 0)
(0.000732423 0.0209819 0)
(-1.43911e-05 0.0118462 0)
(0.000209291 -0.00588395 0)
(-0.000738303 -0.00624457 0)
(-0.0025553 -0.00326778 0)
(-0.00476703 -8.93344e-05 0)
(-0.00736926 0.00293719 0)
(-0.0103424 0.00582848 0)
(-0.0137192 0.00866307 0)
(-0.0175664 0.0115377 0)
(-0.021964 0.0145527 0)
(-0.0269933 0.0177995 0)
(-0.0327277 0.021349 0)
(-0.0392231 0.0252438 0)
(-0.0465083 0.029492 0)
(-0.0545752 0.0340625 0)
(-0.0633718 0.0388805 0)
(-0.0727988 0.0438361 0)
(-0.082711 0.0487725 0)
(-0.0929005 0.0535008 0)
(-0.103162 0.0578407 0)
(-0.113236 0.0615757 0)
(-0.122872 0.0645468 0)
(-0.131925 0.0666634 0)
(-0.14034 0.0679384 0)
(-0.148104 0.0684183 0)
(-0.155231 0.0681815 0)
(-0.161756 0.0673091 0)
(-0.167716 0.0658876 0)
(-0.173151 0.0639973 0)
(-0.178094 0.0617116 0)
(-0.182575 0.0590917 0)
(-0.186621 0.0561933 0)
(-0.190253 0.053063 0)
(-0.193492 0.0497407 0)
(-0.196358 0.0462598 0)
(-0.198869 0.0426474 0)
(-0.201043 0.0389271 0)
(-0.202895 0.0351183 0)
(-0.204461 0.0312242 0)
(-0.205733 0.0272833 0)
(-0.206715 0.0232866 0)
(-0.207419 0.019227 0)
(-0.207857 0.0150997 0)
(-0.208049 0.0108998 0)
(-0.208011 0.00661436 0)
(-0.207758 0.0022363 0)
(-0.207308 -0.00224684 0)
(-0.206663 -0.00685034 0)
(-0.205815 -0.0115974 0)
(-0.204769 -0.0165097 0)
(-0.20352 -0.0216072 0)
(-0.202062 -0.0269082 0)
(-0.200382 -0.0324255 0)
(-0.198458 -0.038167 0)
(-0.196258 -0.0441304 0)
(-0.193736 -0.0502987 0)
(-0.190834 -0.0566347 0)
(-0.187483 -0.0631398 0)
(-0.183624 -0.0697694 0)
(-0.179141 -0.0763687 0)
(-0.173883 -0.0827243 0)
(-0.167543 -0.0884358 0)
(-0.160055 -0.0933622 0)
(-0.151362 -0.0972368 0)
(-0.141352 -0.0996634 0)
(-0.130016 -0.10027 0)
(-0.117436 -0.0987223 0)
(-0.103784 -0.0947559 0)
(-0.0893794 -0.0882625 0)
(-0.0746975 -0.0793435 0)
(-0.0603462 -0.0683636 0)
(-0.0468645 -0.055812 0)
(-0.0346716 -0.0422381 0)
(-0.0241493 -0.0283454 0)
(-0.0155504 -0.0148738 0)
(-0.00898036 -0.00255372 0)
(-0.00439216 0.00794551 0)
(-0.00158473 0.0160112 0)
(-0.000219231 0.0208925 0)
(0.000116775 0.0211887 0)
(-2.89023e-05 0.0119992 0)
(6.32543e-05 -0.00539626 0)
(-0.00161001 -0.00452095 0)
(-0.00408625 -0.000906823 0)
(-0.00691892 0.00266757 0)
(-0.0101493 0.00605124 0)
(-0.0137577 0.00933081 0)
(-0.0177873 0.0126161 0)
(-0.0223132 0.0160188 0)
(-0.0274172 0.0196429 0)
(-0.0331747 0.0235725 0)
(-0.0396445 0.0278613 0)
(-0.0468587 0.0325246 0)
(-0.0548132 0.037533 0)
(-0.0634589 0.0428092 0)
(-0.0727095 0.0482408 0)
(-0.0824216 0.0536608 0)
(-0.0923813 0.0588631 0)
(-0.102388 0.0636351 0)
(-0.112181 0.0677577 0)
(-0.121513 0.0710468 0)
(-0.130282 0.0734337 0)
(-0.138424 0.0749171 0)
(-0.145923 0.0755512 0)
(-0.152795 0.0754069 0)
(-0.159075 0.0745762 0)
(-0.164799 0.0731472 0)
(-0.170003 0.0712066 0)
(-0.174721 0.0688306 0)
(-0.17898 0.0660871 0)
(-0.182804 0.0630345 0)
(-0.186214 0.0597255 0)
(-0.189233 0.0562051 0)
(-0.191878 0.0525121 0)
(-0.194171 0.0486789 0)
(-0.19613 0.0447338 0)
(-0.197777 0.0407003 0)
(-0.19913 0.0365951 0)
(-0.200197 0.0324329 0)
(-0.200993 0.0282194 0)
(-0.201541 0.0239555 0)
(-0.201864 0.0196434 0)
(-0.201987 0.0152833 0)
(-0.201919 0.0108713 0)
(-0.201675 0.00639454 0)
(-0.201271 0.00184088 0)
(-0.200718 -0.00280752 0)
(-0.200025 -0.00757105 0)
(-0.199202 -0.012472 0)
(-0.198256 -0.0175333 0)
(-0.197193 -0.0227795 0)
(-0.196015 -0.0282361 0)
(-0.19472 -0.0339258 0)
(-0.193298 -0.0398679 0)
(-0.19173 -0.0460751 0)
(-0.189987 -0.0525494 0)
(-0.18802 -0.0592746 0)
(-0.185769 -0.0662095 0)
(-0.183152 -0.0732843 0)
(-0.180059 -0.0803983 0)
(-0.176345 -0.0874331 0)
(-0.171896 -0.0942985 0)
(-0.166486 -0.100618 0)
(-0.159735 -0.105806 0)
(-0.151551 -0.109652 0)
(-0.141813 -0.111719 0)
(-0.130466 -0.111555 0)
(-0.117585 -0.108754 0)
(-0.103384 -0.103052 0)
(-0.0882627 -0.0943852 0)
(-0.0728261 -0.0829909 0)
(-0.0578326 -0.0694454 0)
(-0.0439296 -0.0544541 0)
(-0.0315955 -0.0387594 0)
(-0.0212244 -0.023247 0)
(-0.0130458 -0.0088167 0)
(-0.00709752 0.00368112 0)
(-0.00320738 0.0134833 0)
(-0.00105542 0.0196517 0)
(-0.000114282 0.0208437 0)
(3.65104e-05 0.0119732 0)
(-0.000112847 -0.00440786 0)
(-0.0025002 -0.00212243 0)
(-0.00559882 0.00209835 0)
(-0.0090259 0.00604671 0)
(-0.0128592 0.00978467 0)
(-0.0170743 0.0134633 0)
(-0.0217208 0.0172179 0)
(-0.0268774 0.0211691 0)
(-0.032622 0.0254167 0)
(-0.0390173 0.0300297 0)
(-0.0461018 0.0350358 0)
(-0.0538794 0.0404144 0)
(-0.0623109 0.0460916 0)
(-0.0713234 0.0519552 0)
(-0.0807816 0.0578329 0)
(-0.0904787 0.0634977 0)
(-0.100206 0.068722 0)
(-0.109721 0.0732717 0)
(-0.118802 0.0769448 0)
(-0.127333 0.0796726 0)
(-0.13525 0.0814443 0)
(-0.142531 0.0822963 0)
(-0.149191 0.0823096 0)
(-0.15526 0.0815763 0)
(-0.160773 0.080192 0)
(-0.165764 0.0782447 0)
(-0.170262 0.0758168 0)
(-0.174295 0.07298 0)
(-0.177884 0.0697989 0)
(-0.181052 0.0663307 0)
(-0.183821 0.0626269 0)
(-0.186212 0.0587319 0)
(-0.188248 0.0546846 0)
(-0.189951 0.0505184 0)
(-0.191345 0.0462614 0)
(-0.192449 0.0419355 0)
(-0.193286 0.0375557 0)
(-0.193878 0.033135 0)
(-0.194247 0.0286838 0)
(-0.194413 0.0242064 0)
(-0.194398 0.0197029 0)
(-0.194219 0.0151693 0)
(-0.193891 0.0105986 0)
(-0.193431 0.0059787 0)
(-0.192854 0.00129548 0)
(-0.192174 -0.00346929 0)
(-0.191405 -0.0083362 0)
(-0.19056 -0.0133285 0)
(-0.189653 -0.0184709 0)
(-0.188696 -0.0237904 0)
(-0.187696 -0.0293151 0)
(-0.18666 -0.0350728 0)
(-0.18559 -0.0410892 0)
(-0.18448 -0.047386 0)
(-0.183313 -0.0539781 0)
(-0.182062 -0.0608699 0)
(-0.18068 -0.0680511 0)
(-0.179103 -0.0754859 0)
(-0.177238 -0.0831 0)
(-0.174957 -0.0907688 0)
(-0.172104 -0.0983128 0)
(-0.168473 -0.105496 0)
(-0.163853 -0.112143 0)
(-0.157905 -0.117666 0)
(-0.150258 -0.121425 0)
(-0.140789 -0.123036 0)
(-0.129379 -0.121924 0)
(-0.116115 -0.117642 0)
(-0.101267 -0.109929 0)
(-0.0853454 -0.0988014 0)
(-0.069123 -0.0846866 0)
(-0.0535373 -0.0684385 0)
(-0.039348 -0.051027 0)
(-0.0270766 -0.0333997 0)
(-0.0171136 -0.0166625 0)
(-0.00962689 -0.0018836 0)
(-0.00452049 0.00996389 0)
(-0.00153592 0.0177561 0)
(-9.82952e-05 0.0201328 0)
(0.00017238 0.0119616 0)
(-0.000311196 -0.00289946 0)
(-0.00337498 0.000926339 0)
(-0.00704981 0.00571458 0)
(-0.0110356 0.0100154 0)
(-0.0154332 0.0141027 0)
(-0.0202106 0.0181848 0)
(-0.0254203 0.0224164 0)
(-0.0311399 0.0269198 0)
(-0.037438 0.0317836 0)
(-0.0443605 0.0370536 0)
(-0.0519222 0.0427245 0)
(-0.0600977 0.0487334 0)
(-0.06883 0.0549734 0)
(-0.0779967 0.0612721 0)
(-0.0874043 0.067384 0)
(-0.0968505 0.073072 0)
(-0.106105 0.0780852 0)
(-0.114962 0.0822149 0)
(-0.123296 0.0853568 0)
(-0.131031 0.0874842 0)
(-0.138137 0.0886273 0)
(-0.144622 0.0888621 0)
(-0.150515 0.0882854 0)
(-0.155845 0.0869951 0)
(-0.160644 0.0850854 0)
(-0.164939 0.0826417 0)
(-0.168756 0.0797423 0)
(-0.172118 0.0764571 0)
(-0.175048 0.0728499 0)
(-0.17757 0.0689784 0)
(-0.179709 0.0648936 0)
(-0.181492 0.0606413 0)
(-0.182945 0.0562615 0)
(-0.184095 0.0517878 0)
(-0.184966 0.0472471 0)
(-0.185585 0.0426598 0)
(-0.185976 0.0380425 0)
(-0.186163 0.0334083 0)
(-0.186168 0.0287656 0)
(-0.186009 0.0241169 0)
(-0.185704 0.0194606 0)
(-0.18527 0.0147912 0)
(-0.184722 0.0101001 0)
(-0.184077 0.00537543 0)
(-0.183348 0.000602526 0)
(-0.182553 -0.0042366 0)
(-0.181705 -0.00916239 0)
(-0.180821 -0.0141983 0)
(-0.179917 -0.01937 0)
(-0.17901 -0.0247057 0)
(-0.178112 -0.0302354 0)
(-0.177237 -0.0359901 0)
(-0.176395 -0.0420004 0)
(-0.17559 -0.048295 0)
(-0.174819 -0.0548984 0)
(-0.174067 -0.0618276 0)
(-0.173309 -0.0690885 0)
(-0.172497 -0.0766685 0)
(-0.171564 -0.0845285 0)
(-0.170407 -0.092594 0)
(-0.16889 -0.100741 0)
(-0.166828 -0.108766 0)
(-0.163994 -0.116381 0)
(-0.160094 -0.123214 0)
(-0.154798 -0.128858 0)
(-0.147637 -0.132498 0)
(-0.138341 -0.133516 0)
(-0.12676 -0.131253 0)
(-0.112985 -0.125219 0)
(-0.0973751 -0.115175 0)
(-0.0805899 -0.101268 0)
(-0.0636149 -0.0841984 0)
(-0.0475872 -0.0651857 0)
(-0.0333592 -0.0454602 0)
(-0.0214721 -0.0262498 0)
(-0.0122802 -0.0088995 0)
(-0.00581684 0.00535217 0)
(-0.00190096 0.0152021 0)
(2.28169e-05 0.0191479 0)
(0.000319432 0.0120789 0)
(-0.000509062 -0.000884457 0)
(-0.00420483 0.00457818 0)
(-0.00840493 0.00989604 0)
(-0.0129016 0.0145289 0)
(-0.0178124 0.0189568 0)
(-0.0230945 0.0234387 0)
(-0.0287991 0.0281423 0)
(-0.0349988 0.0331848 0)
(-0.0417491 0.0386366 0)
(-0.0490766 0.0445135 0)
(-0.0569723 0.050772 0)
(-0.0653973 0.0573174 0)
(-0.0742491 0.0639861 0)
(-0.0833486 0.0705186 0)
(-0.0925091 0.076673 0)
(-0.101519 0.0821819 0)
(-0.110176 0.0868179 0)
(-0.118345 0.090446 0)
(-0.125932 0.0930039 0)
(-0.132901 0.0945112 0)
(-0.13925 0.0950373 0)
(-0.145001 0.0946783 0)
(-0.150181 0.0935365 0)
(-0.154817 0.0917101 0)
(-0.158937 0.0892908 0)
(-0.162565 0.0863621 0)
(-0.165724 0.0830012 0)
(-0.168441 0.0792786 0)
(-0.170742 0.0752592 0)
(-0.172656 0.0710016 0)
(-0.174214 0.0665589 0)
(-0.175447 0.0619784 0)
(-0.176386 0.0572992 0)
(-0.17706 0.0525532 0)
(-0.177495 0.0477662 0)
(-0.177718 0.0429586 0)
(-0.177754 0.0381458 0)
(-0.177624 0.0333379 0)
(-0.177347 0.0285406 0)
(-0.176939 0.0237548 0)
(-0.176416 0.0189776 0)
(-0.175793 0.0142027 0)
(-0.175081 0.009421 0)
(-0.174297 0.00462072 0)
(-0.173454 -0.000212689 0)
(-0.172566 -0.00509649 0)
(-0.171649 -0.0100507 0)
(-0.170721 -0.015098 0)
(-0.169798 -0.0202639 0)
(-0.168899 -0.0255766 0)
(-0.168044 -0.0310668 0)
(-0.167249 -0.0367674 0)
(-0.166532 -0.0427123 0)
(-0.165905 -0.0489357 0)
(-0.165376 -0.0554699 0)
(-0.164945 -0.0623428 0)
(-0.164598 -0.0695745 0)
(-0.16431 -0.0771709 0)
(-0.16403 -0.0851176 0)
(-0.163685 -0.0933714 0)
(-0.163165 -0.101849 0)
(-0.162316 -0.110409 0)
(-0.160936 -0.11884 0)
(-0.158762 -0.126813 0)
(-0.155469 -0.133891 0)
(-0.150652 -0.139495 0)
(-0.143817 -0.142849 0)
(-0.134539 -0.143091 0)
(-0.122614 -0.139408 0)
(-0.108171 -0.131274 0)
(-0.0916864 -0.118507 0)
(-0.0740139 -0.101464 0)
(-0.0564326 -0.0812518 0)
(-0.0402429 -0.0594956 0)
(-0.0263584 -0.0377169 0)
(-0.0153131 -0.0175164 0)
(-0.00734941 -0.000470161 0)
(-0.00237362 0.0119302 0)
(0.000101473 0.0178987 0)
(0.000453929 0.0123372 0)
(-0.000698012 0.00162082 0)
(-0.00496196 0.00877187 0)
(-0.00963116 0.0145877 0)
(-0.0145836 0.0195323 0)
(-0.0199469 0.0242871 0)
(-0.0256654 0.0291561 0)
(-0.0317864 0.0343137 0)
(-0.0383734 0.0398663 0)
(-0.0454669 0.0458597 0)
(-0.0530739 0.0522755 0)
(-0.0611762 0.0590389 0)
(-0.0696986 0.0660076 0)
(-0.078479 0.0729166 0)
(-0.0873477 0.079519 0)
(-0.0961183 0.0855407 0)
(-0.104589 0.0907227 0)
(-0.112614 0.0948961 0)
(-0.120087 0.0979611 0)
(-0.126953 0.0999109 0)
(-0.133204 0.100803 0)
(-0.13885 0.10073 0)
(-0.143916 0.0997964 0)
(-0.148427 0.0981062 0)
(-0.152407 0.0957565 0)
(-0.155882 0.092838 0)
(-0.158877 0.0894349 0)
(-0.161419 0.085626 0)
(-0.163538 0.0814837 0)
(-0.165268 0.077075 0)
(-0.166645 0.0724609 0)
(-0.167702 0.0676959 0)
(-0.168475 0.0628252 0)
(-0.168996 0.0578861 0)
(-0.169293 0.0529092 0)
(-0.169394 0.047918 0)
(-0.169324 0.0429308 0)
(-0.169103 0.0379601 0)
(-0.16875 0.0330129 0)
(-0.168279 0.0280924 0)
(-0.167705 0.0231977 0)
(-0.167039 0.018325 0)
(-0.166292 0.0134675 0)
(-0.165475 0.00861594 0)
(-0.1646 0.00375882 0)
(-0.16368 -0.00111766 0)
(-0.162726 -0.00602953 0)
(-0.161755 -0.0109957 0)
(-0.160782 -0.0160373 0)
(-0.159826 -0.0211786 0)
(-0.158907 -0.0264468 0)
(-0.158047 -0.0318719 0)
(-0.157268 -0.0374873 0)
(-0.156592 -0.0433285 0)
(-0.156038 -0.0494334 0)
(-0.155625 -0.0558399 0)
(-0.155362 -0.0625847 0)
(-0.155252 -0.0697 0)
(-0.155283 -0.0772086 0)
(-0.155425 -0.0851187 0)
(-0.155626 -0.0934149 0)
(-0.155803 -0.102048 0)
(-0.155835 -0.110924 0)
(-0.155552 -0.11988 0)
(-0.154723 -0.128668 0)
(-0.153052 -0.136923 0)
(-0.150175 -0.144132 0)
(-0.145642 -0.149622 0)
(-0.138907 -0.152487 0)
(-0.129434 -0.151679 0)
(-0.116952 -0.146208 0)
(-0.10167 -0.135515 0)
(-0.0842118 -0.119532 0)
(-0.0657217 -0.0989864 0)
(-0.0478277 -0.0755047 0)
(-0.0319099 -0.0511657 0)
(-0.018898 -0.027879 0)
(-0.00927176 -0.00761975 0)
(-0.00309775 0.00781166 0)
(4.75127e-05 0.0162894 0)
(0.000566016 0.0126757 0)
(-0.000881361 0.00457104 0)
(-0.00563662 0.0134453 0)
(-0.0107055 0.0197278 0)
(-0.0160501 0.0249622 0)
(-0.0217971 0.0300251 0)
(-0.0278768 0.0352596 0)
(-0.034329 0.0408415 0)
(-0.0412062 0.046861 0)
(-0.0485321 0.0533359 0)
(-0.0563071 0.060216 0)
(-0.0644896 0.0673922 0)
(-0.0729418 0.0746173 0)
(-0.0815129 0.0816223 0)
(-0.090039 0.0881466 0)
(-0.0983264 0.0938968 0)
(-0.106222 0.0986643 0)
(-0.113603 0.102307 0)
(-0.1204 0.104781 0)
(-0.126586 0.10612 0)
(-0.132166 0.106409 0)
(-0.137157 0.105753 0)
(-0.141582 0.104259 0)
(-0.145465 0.102033 0)
(-0.14883 0.0991713 0)
(-0.151705 0.0957667 0)
(-0.154118 0.0919065 0)
(-0.156103 0.087672 0)
(-0.157698 0.0831384 0)
(-0.15894 0.0783756 0)
(-0.159871 0.0734458 0)
(-0.160527 0.0684005 0)
(-0.160943 0.0632825 0)
(-0.16115 0.0581272 0)
(-0.161177 0.052962 0)
(-0.161048 0.047807 0)
(-0.160783 0.0426769 0)
(-0.160399 0.0375808 0)
(-0.159911 0.0325229 0)
(-0.159329 0.0275041 0)
(-0.158663 0.0225221 0)
(-0.157921 0.0175718 0)
(-0.15711 0.0126464 0)
(-0.15624 0.00773669 0)
(-0.155318 0.00283201 0)
(-0.154354 -0.00208028 0)
(-0.15336 -0.00701471 0)
(-0.152349 -0.0119881 0)
(-0.151336 -0.0170196 0)
(-0.15034 -0.0221311 0)