/*--------------------------------*- C++ -*----------------------------------*\
  =========                 |
  \\      /  F ield         | OpenFOAM: The Open Source CFD Toolbox
   \\    /   O peration     | Website:  https://openfoam.org
    \\  /    A nd           | Version:  13
     \\/     M anipulation  |
\*---------------------------------------------------------------------------*/
FoamFile
{
    format      ascii;
    class       volScalarField;
    location    "5";
    object      epsilon;
}
// * * * * * * * * * * * * * * * * * * * * * * * * * * * * * * * * * * * * * //

dimensions      [0 2 -3 0 0 0 0];

internalField   nonuniform List<scalar> 
400
(
9.18686e-06
2.25938e-05
9.49188e-05
0.000295784
0.000514711
0.000679128
0.000810607
0.000930024
0.00103934
0.00114439
0.00124765
0.00135121
0.00145899
0.00154553
0.0015875
0.00159802
0.00150384
0.00118518
0.000712954
0.00050872
4.51453e-05
0.000108544
0.000310882
0.0006182
0.000748218
0.000811264
0.000841781
0.000886391
0.000935926
0.00100851
0.00110245
0.00122235
0.00136857
0.0015423
0.00173959
0.00194789
0.0020559
0.00207745
0.00168152
0.00114573
0.000176602
0.00040045
0.000647703
0.000737706
0.000769906
0.000791812
0.000807668
0.000845439
0.000906407
0.000982674
0.00107198
0.00117311
0.00128859
0.00143202
0.00160904
0.00182188
0.00201795
0.00210055
0.00198185
0.00156564
0.00042185
0.000669365
0.000733665
0.000734333
0.000740568
0.00073882
0.000753145
0.000792045
0.000838526
0.000889588
0.000942794
0.00100978
0.00110511
0.0012405
0.00143586
0.00170388
0.00200161
0.00213681
0.00213174
0.00183783
0.000630221
0.000785145
0.000742314
0.000703374
0.000675257
0.000665262
0.000667277
0.000683813
0.000696582
0.000711595
0.000736428
0.000783016
0.000866261
0.00100646
0.00123357
0.00157468
0.00202077
0.00230018
0.0023414
0.00204921
0.000789668
0.00082299
0.000719427
0.00064016
0.000601233
0.000580745
0.000567188
0.000555166
0.000539412
0.000531904
0.000531347
0.000559536
0.000629153
0.000766066
0.00101172
0.00141874
0.00201408
0.00250351
0.0026221
0.0022198
0.000841248
0.000803246
0.000666513
0.00057626
0.000532614
0.000502265
0.000473151
0.00044109
0.000407536
0.000383953
0.000374564
0.000384025
0.000436352
0.000554472
0.000790122
0.0012257
0.00194373
0.00271015
0.00294689
0.002358
0.000832297
0.000754428
0.000606196
0.000519699
0.000474077
0.00043683
0.000397525
0.000355088
0.00031421
0.000283712
0.000269957
0.000269085
0.00030345
0.000395127
0.000600225
0.00102675
0.00181471
0.00288126
0.0033382
0.00247045
0.000802969
0.00068819
0.000551311
0.000472232
0.000427169
0.000386793
0.000343067
0.000297576
0.000256074
0.000224243
0.000207413
0.000203124
0.000222924
0.000288491
0.000453801
0.000844421
0.00166702
0.00296402
0.00373107
0.00255366
0.000740611
0.000630166
0.000505866
0.00043494
0.000391625
0.00035088
0.000306808
0.000262447
0.000223295
0.000193464
0.000175965
0.000170533
0.000182785
0.000228228
0.00035513
0.000697021
0.0015222
0.00299664
0.00415028
0.0026176
0.000668537
0.000578104
0.00046796
0.00040471
0.00036427
0.00032552
0.000283969
0.000242946
0.000207349
0.000180424
0.000163624
0.00015813
0.000166607
0.000200401
0.000299344
0.00058838
0.00137782
0.00300116
0.00454429
0.00265112
0.000608242
0.000545138
0.000442677
0.000384544
0.000346161
0.000309436
0.000270899
0.000233723
0.000202352
0.000178377
0.000162471
0.00015681
0.000163129
0.000191305
0.000274484
0.000523717
0.00125022
0.0029729
0.00490162
0.00266629
0.000540909
0.000513069
0.000424605
0.000368457
0.000331742
0.000298033
0.000264345
0.000232355
0.000203978
0.000181808
0.000167063
0.000162601
0.000168069
0.000192046
0.000267078
0.000494399
0.00116608
0.00293985
0.00511496
0.00266941
0.000482472
0.000497851
0.000426037
0.000369264
0.000332112
0.000298632
0.000266067
0.000235689
0.000209725
0.00019007
0.000176694
0.000174092
0.000180307
0.00020468
0.000275701
0.000487827
0.00112802
0.00291323
0.00519839
0.00265894
0.000410327
0.000471338
0.000429449
0.000376586
0.000339542
0.000306034
0.000274373
0.000245527
0.000221539
0.000203584
0.000191178
0.000191269
0.000199467
0.000228026
0.000304982
0.000519049
0.00112452
0.00290605
0.00515981
0.00264623
0.000346684
0.00045472
0.000440078
0.000400758
0.000363649
0.000329265
0.000296896
0.000267876
0.000244058
0.000226063
0.000215963
0.000218351
0.00023177
0.000271184
0.000368126
0.000616741
0.00123042
0.00298183
0.00486317
0.00257193
0.00026117
0.000393661
0.000441673
0.000436142
0.000415643
0.000382995
0.000349084
0.000318179
0.000294065
0.000276901
0.000275273
0.000284648
0.000313936
0.000385181
0.000538695
0.000898641
0.0015792
0.00326828
0.0043858
0.00246993
0.000190296
0.000373208
0.000495411
0.00054686
0.000551499
0.000535534
0.000503558
0.000475367
0.000462599
0.000468177
0.000493274
0.000551545
0.000658946
0.000849399
0.00116696
0.0018827
0.00268814
0.00401326
0.00413957
0.00230308
0.000246348
0.000416008
0.00073136
0.000904441
0.000996221
0.00104592
0.00109211
0.00114996
0.00125651
0.00141061
0.00163678
0.00195224
0.00237636
0.00301226
0.00377696
0.0048947
0.00532171
0.00501353
0.00418221
0.00206205
0.000182571
0.000294164
0.000540582
0.000781325
0.000974355
0.00111931
0.00121622
0.00129294
0.00134499
0.00140408
0.00144314
0.00151008
0.0015552
0.00164585
0.00170811
0.00182037
0.00191302
0.0020017
0.00197768
0.0017666
)
;

boundaryField
{
    movingWall
    {
        type            epsilonWallFunction;
        value           nonuniform List<scalar> 
20
(
0.000182571
0.000294164
0.000540582
0.000781325
0.000974355
0.00111931
0.00121622
0.00129294
0.00134499
0.00140408
0.00144314
0.00151008
0.0015552
0.00164585
0.00170811
0.00182037
0.00191302
0.0020017
0.00197768
0.0017666
)
;
    }
    fixedWalls
    {
        type            epsilonWallFunction;
        value           nonuniform List<scalar> 
60
(
9.18686e-06
4.51453e-05
0.000176602
0.00042185
0.000630221
0.000789668
0.000841248
0.000832297
0.000802969
0.000740611
0.000668537
0.000608242
0.000540909
0.000482472
0.000410327
0.000346684
0.00026117
0.000190296
0.000246348
0.000182571
0.00050872
0.00114573
0.00156564
0.00183783
0.00204921
0.0022198
0.002358
0.00247045
0.00255366
0.0026176
0.00265112
0.00266629
0.00266941
0.00265894
0.00264623
0.00257193
0.00246993
0.00230308
0.00206205
0.0017666
9.18686e-06
2.25938e-05
9.49188e-05
0.000295784
0.000514711
0.000679128
0.000810607
0.000930024
0.00103934
0.00114439
0.00124765
0.00135121
0.00145899
0.00154553
0.0015875
0.00159802
0.00150384
0.00118518
0.000712954
0.00050872
)
;
    }
    frontAndBack
    {
        type            empty;
    }
}


// ************************************************************************* //
