/*--------------------------------*- C++ -*----------------------------------*\
  =========                 |
  \\      /  F ield         | OpenFOAM: The Open Source CFD Toolbox
   \\    /   O peration     | Website:  https://openfoam.org
    \\  /    A nd           | Version:  13
     \\/     M anipulation  |
\*---------------------------------------------------------------------------*/
FoamFile
{
    format      ascii;
    class       volScalarField;
    location    "5";
    object      k;
}
// * * * * * * * * * * * * * * * * * * * * * * * * * * * * * * * * * * * * * //

dimensions      [0 2 -2 0 0 0 0];

internalField   nonuniform List<scalar> 
400
(
2.87696e-06
7.06621e-06
2.96869e-05
9.25158e-05
0.000160985
0.000212409
0.000253519
0.000290869
0.000325049
0.000357906
0.000390193
0.000422582
0.000456284
0.000483339
0.000496459
0.000499745
0.000470284
0.000370653
0.000222974
0.0001591
1.41291e-05
5.29325e-05
0.00011887
0.000239133
0.000326351
0.000403637
0.000462357
0.000522908
0.00058204
0.000641452
0.000702409
0.000763742
0.000823105
0.000880255
0.000934323
0.000962875
0.000972237
0.000882186
0.000583379
0.000358237
5.52553e-05
0.000192444
0.000320802
0.000417716
0.000494215
0.000557178
0.000610972
0.00066476
0.000716539
0.000768319
0.000816614
0.00086306
0.000907936
0.000957573
0.00100988
0.00104684
0.00105912
0.00101854
0.000745755
0.000489445
0.000131913
0.000365963
0.000453241
0.000517843
0.000575247
0.000622476
0.000663341
0.000705139
0.000745559
0.00078372
0.000820271
0.000857031
0.000897422
0.000950201
0.00101598
0.00108558
0.00111723
0.00111937
0.000894743
0.000574488
0.000197019
0.000473272
0.000530506
0.000560226
0.000597803
0.000628051
0.000660759
0.000692963
0.000718551
0.000736936
0.00075153
0.000774575
0.000816194
0.000880499
0.000976011
0.00109906
0.00118899
0.00120961
0.00103105
0.000640526
0.000246855
0.000534371
0.000557829
0.000566805
0.000594967
0.000619776
0.000639965
0.000647258
0.000647438
0.000644472
0.00064679
0.00066319
0.000702441
0.00077514
0.000895193
0.00106875
0.00124539
0.00131184
0.00117651
0.000693816
0.000262935
0.00053719
0.00055592
0.000562423
0.000584363
0.000594684
0.000595816
0.000585225
0.000569804
0.000556852
0.000552101
0.000559764
0.000593426
0.000664985
0.000794267
0.000999539
0.00126631
0.0014074
0.00131823
0.00073698
0.00026013
0.000528905
0.00054704
0.000551018
0.000561761
0.00056287
0.000552846
0.000532376
0.000509136
0.000490142
0.000481863
0.000483475
0.000509627
0.000573162
0.000699464
0.000923206
0.00125585
0.00149321
0.00146932
0.000772098
0.000250956
0.000508111
0.000528229
0.000532387
0.000538479
0.000534884
0.000518921
0.000494298
0.000468499
0.000446976
0.000435897
0.000434387
0.000452753
0.000504496
0.000616396
0.000835208
0.00120129
0.00156035
0.00160403
0.000798071
0.000231451
0.000484907
0.000507595
0.000513561
0.000518067
0.000512285
0.000494459
0.000469452
0.000443976
0.000422659
0.000409581
0.00040622
0.000419016
0.000460192
0.000557441
0.000762946
0.00113971
0.00159956
0.00173891
0.000818023
0.000208926
0.000452918
0.000484124
0.000494009
0.000499476
0.000494076
0.000477383
0.000454036
0.000430459
0.000410558
0.000397209
0.000393387
0.000403373
0.000437735
0.000521123
0.000709377
0.0010842
0.00161622
0.00185759
0.000828455
0.000190081
0.000424009
0.00046566
0.000478094
0.000483593
0.000479264
0.000465254
0.00044453
0.00042355
0.000405644
0.000393308
0.000390201
0.000398816
0.000429649
0.000504407
0.000675079
0.001036
0.00162119
0.00196259
0.000833173
0.000169041
0.000385611
0.000442594
0.000460623
0.000468828
0.000466281
0.00045611
0.000438413
0.000420392
0.000405206
0.000394438
0.00039299
0.000401233
0.000429737
0.000499894
0.000659912
0.000994963
0.00162057
0.00202095
0.000834134
0.000150777
0.000359588
0.000428746
0.000451649
0.000458851
0.00045654
0.00044879
0.000434971
0.0004205
0.000407288
0.000398758
0.00039978
0.000409789
0.000439697
0.000507796
0.00065764
0.000973125
0.00160623
0.00204258
0.000830817
0.000128242
0.000316977
0.000404313
0.00043894
0.000455017
0.0004548
0.000449568
0.00043752
0.000424122
0.000412741
0.000407114
0.000409967
0.000422929
0.000456555
0.000527354
0.000676099
0.000967435
0.00158831
0.00200695
0.000826838
0.000108353
0.000290906
0.000391318
0.000438543
0.000460889
0.000462407
0.000458162
0.000447855
0.000435342
0.000424746
0.000421818
0.000426514
0.000443056
0.00048287
0.00056065
0.000722473
0.000987418
0.00157958
0.00190722
0.000803553
8.16594e-05
0.000228706
0.000358265
0.000440096
0.000477943
0.00048611
0.000483132
0.000474697
0.000463276
0.000454361
0.000455455
0.000464552
0.000488994
0.00054435
0.00063768
0.000836485
0.00108494
0.00159764
0.00173997
0.00077165
5.94879e-05
0.000225874
0.00037724
0.000477552
0.000536807
0.000557323
0.000557832
0.000554895
0.000551789
0.000554889
0.000568367
0.000599353
0.000654281
0.000752993
0.000888348
0.00117085
0.00142066
0.00170957
0.00156986
0.000719461
7.69516e-05
0.000263322
0.000462724
0.000588497
0.000676046
0.000731964
0.00077351
0.000814042
0.000868294
0.000932509
0.00102366
0.00113722
0.00128904
0.00149028
0.00172123
0.00202902
0.00205207
0.00189493
0.00148651
0.000644125
5.70291e-05
9.18778e-05
0.00016884
0.000244019
0.000304304
0.000349574
0.00037982
0.000403782
0.000420019
0.000438483
0.000450667
0.000471577
0.00048567
0.000513988
0.00053341
0.000568483
0.000597427
0.000625157
0.000617663
0.000551748
)
;

boundaryField
{
    movingWall
    {
        type            kqRWallFunction;
        value           nonuniform List<scalar> 
20
(
5.70291e-05
9.18778e-05
0.00016884
0.000244019
0.000304304
0.000349574
0.00037982
0.000403782
0.000420019
0.000438483
0.000450667
0.000471577
0.00048567
0.000513988
0.00053341
0.000568483
0.000597427
0.000625157
0.000617663
0.000551748
)
;
    }
    fixedWalls
    {
        type            kqRWallFunction;
        value           nonuniform List<scalar> 
60
(
2.87696e-06
1.41291e-05
5.52553e-05
0.000131913
0.000197019
0.000246855
0.000262935
0.00026013
0.000250956
0.000231451
0.000208926
0.000190081
0.000169041
0.000150777
0.000128242
0.000108353
8.16594e-05
5.94879e-05
7.69516e-05
5.70291e-05
0.0001591
0.000358237
0.000489445
0.000574488
0.000640526
0.000693816
0.00073698
0.000772098
0.000798071
0.000818023
0.000828455
0.000833173
0.000834134
0.000830817
0.000826838
0.000803553
0.00077165
0.000719461
0.000644125
0.000551748
2.87696e-06
7.06621e-06
2.96869e-05
9.25158e-05
0.000160985
0.000212409
0.000253519
0.000290869
0.000325049
0.000357906
0.000390193
0.000422582
0.000456284
0.000483339
0.000496459
0.000499745
0.000470284
0.000370653
0.000222974
0.0001591
)
;
    }
    frontAndBack
    {
        type            empty;
    }
}


// ************************************************************************* //
