/*--------------------------------*- C++ -*----------------------------------*\
  =========                 |
  \\      /  F ield         | OpenFOAM: The Open Source CFD Toolbox
   \\    /   O peration     | Website:  https://openfoam.org
    \\  /    A nd           | Version:  13
     \\/     M anipulation  |
\*---------------------------------------------------------------------------*/
FoamFile
{
    format      ascii;
    class       volScalarField;
    location    "5";
    object      k;
}
// * * * * * * * * * * * * * * * * * * * * * * * * * * * * * * * * * * * * * //

dimensions      [0 2 -2 0 0 0 0];

internalField   nonuniform List<scalar> 
1600
(
1.59674e-06
6.04599e-06
1.22841e-05
1.34537e-05
1.28278e-05
1.34432e-05
1.69614e-05
2.63933e-05
3.65144e-05
4.72283e-05
7.2565e-05
9.70448e-05
0.000110289
0.000121823
0.000140021
0.000164022
0.000188855
0.000215153
0.000242955
0.000272359
0.000304746
0.000339834
0.000379787
0.000424879
0.000478795
0.000530563
0.000581363
0.000626194
0.000664382
0.000685183
0.000693369
0.000677655
0.000617123
0.000515657
0.000374959
0.00021183
9.79918e-05
3.91305e-05
1.19337e-05
2.38705e-06
7.72676e-06
4.01911e-05
7.99909e-05
9.15196e-05
9.33705e-05
0.000101806
0.000136685
0.000212979
0.000281305
0.000352398
0.00052424
0.000643927
0.0006832
0.00069352
0.00070298
0.000729287
0.000758755
0.000792226
0.000831393
0.000872176
0.00092033
0.000969341
0.00102406
0.001077
0.00112901
0.0011868
0.00124743
0.00130945
0.00136379
0.00139428
0.00140472
0.00136649
0.00125937
0.00107726
0.000821485
0.000481622
0.000209086
8.46436e-05
2.90978e-05
4.45214e-06
2.30003e-05
0.000104332
0.000172934
0.000194874
0.000219882
0.000285825
0.00044063
0.000673967
0.000883103
0.000969504
0.000963982
0.000869303
0.000824064
0.000806973
0.000803984
0.000813101
0.000827213
0.000845711
0.000868479
0.000894087
0.000922537
0.000952033
0.000981897
0.00101341
0.00104769
0.001084
0.0011221
0.00116068
0.00119772
0.00122996
0.00124565
0.00124991
0.00121331
0.00109297
0.000902242
0.000549068
0.000196902
7.07689e-05
2.65007e-05
3.74294e-06
5.34439e-05
0.000215424
0.000313464
0.000362464
0.0004533
0.000641426
0.000906039
0.00106756
0.00110074
0.000996498
0.000917238
0.000840381
0.000810189
0.000799885
0.000798098
0.000807727
0.00082056
0.000837147
0.000855066
0.000874119
0.000893494
0.000913161
0.000934893
0.000956972
0.000980498
0.00100486
0.00103062
0.00105684
0.00108174
0.00110256
0.00111483
0.00111973
0.00111348
0.00107707
0.00099913
0.000811257
0.000324544
7.96449e-05
2.12349e-05
2.76726e-06
0.000103015
0.000379153
0.000511549
0.000602857
0.000764961
0.00100307
0.0011353
0.00115302
0.00105133
0.000910819
0.000829724
0.000793895
0.00078114
0.000778405
0.000784678
0.000801313
0.000817917
0.000837769
0.000857446
0.000878083
0.000897546
0.000916329
0.000934144
0.000951865
0.000970599
0.000990862
0.00101336
0.00103751
0.00106099
0.00107922
0.00108862
0.00109235
0.00108765
0.00106257
0.00102467
0.000934012
0.000678711
0.000187656
3.17724e-05
3.46101e-06
0.000175694
0.000583932
0.000748609
0.000869791
0.00104476
0.0011569
0.00117352
0.00108633
0.00090828
0.000815987
0.000775599
0.000760598
0.000757301
0.000766166
0.000783885
0.000804043
0.00082627
0.000848874
0.00086964
0.000888966
0.000906039
0.000922226
0.000937922
0.000954158
0.000972436
0.000994027
0.00101999
0.00105094
0.00108701
0.00112425
0.00114234
0.00114589
0.00114101
0.00111104
0.00105372
0.000975832
0.000826875
0.000384413
7.10078e-05
6.91792e-06
0.000270427
0.000796763
0.000986923
0.00109358
0.00117125
0.00118648
0.00111156
0.000925545
0.000808375
0.000759985
0.000742296
0.000738287
0.000746809
0.000766103
0.000786796
0.000808431
0.000828106
0.00084644
0.000861896
0.000874643
0.000885261
0.000895692
0.000907544
0.000923038
0.000943143
0.000969269
0.00100249
0.00104313
0.00109028
0.00114198
0.0011972
0.00123011
0.0012357
0.00122317
0.00116586
0.00105133
0.000891988
0.000624281
0.000146628
1.59384e-05
0.000373211
0.00100771
0.00117963
0.00122062
0.00122206
0.00114096
0.000967741
0.00081435
0.000749753
0.000726557
0.000720978
0.000726483
0.0007454
0.000765176
0.000784426
0.000801535
0.000814228
0.000821666
0.000824994
0.000826487
0.000828824
0.000833784
0.000842997
0.000857455
0.000878525
0.000907886
0.000947116
0.000997481
0.00105921
0.00113026
0.00120469
0.00127592
0.00131146
0.0013169
0.001295
0.00120242
0.00101398
0.00072418
0.000250757
3.94624e-05
0.000462512
0.00117695
0.00131131
0.00130311
0.00119891
0.0010348
0.000841579
0.000750157
0.000715388
0.000706099
0.000706664
0.000723024
0.000741807
0.000758667
0.000769575
0.000773504
0.000772581
0.000765954
0.000760427
0.000756961
0.000755689
0.000757413
0.000765065
0.000778452
0.000799366
0.000829358
0.000870462
0.000924932
0.000994858
0.00108103
0.00118079
0.00128462
0.00136688
0.00139877
0.00139724
0.00133641
0.00117552
0.000892118
0.000457706
0.000106103
0.000529466
0.00129533
0.00140446
0.00131749
0.00113652
0.000912203
0.000769669
0.000712026
0.000693296
0.000690269
0.000699347
0.00071756
0.000730517
0.000735504
0.000733325
0.000723715
0.000713496
0.000701647
0.000692343
0.000686362
0.000683957
0.000683978
0.000691136
0.000703859
0.00072397
0.000752767
0.000792369
0.000845518
0.000915609
0.00100604
0.00111847
0.00124935
0.00138453
0.00147387
0.00149549
0.00146642
0.00131851
0.00101567
0.000565979
0.000192095
0.000576066
0.00137232
0.00145862
0.00129969
0.0010437
0.000825197
0.000724594
0.000686967
0.000677215
0.000678328
0.000692459
0.000702248
0.000704296
0.000697508
0.000685319
0.000669632
0.000654638
0.000640724
0.000630136
0.000623828
0.000621354
0.000621484
0.00062864
0.000641085
0.000660319
0.000687462
0.00072445
0.000774065
0.000840257
0.000928061
0.00104256
0.00118576
0.00135032
0.00150645
0.00158188
0.00158874
0.00148528
0.00119282
0.000706685
0.000278631
0.000603575
0.00140739
0.00146872
0.00125703
0.000954834
0.000770174
0.000694516
0.000668702
0.000663442
0.000668395
0.000676024
0.000677186
0.000669865
0.000655027
0.000637078
0.000618469
0.000601833
0.000587796
0.000577438
0.000571698
0.000569548
0.000570331
0.00057743
0.000589583
0.000607921
0.000633449
0.00066783
0.00071358
0.000774584
0.000856563
0.000967059
0.00111368
0.00129866
0.001508
0.00165188
0.00168812
0.00162126
0.00133584
0.000827658
0.000350412
0.000603172
0.00140607
0.00145657
0.00119791
0.000883446
0.000731596
0.000671857
0.00065283
0.000649554
0.000653076
0.00065446
0.000648145
0.000633352
0.000613679
0.000593045
0.000573637
0.00055705
0.000543714
0.000534058
0.000528887
0.000527014
0.000528152
0.000534893
0.0005465
0.000563865
0.000587935
0.000620136
0.000662626
0.000718826
0.000794179
0.000896865
0.00103743
0.00122493
0.00145663
0.00168488
0.00178456
0.00176592
0.00150132
0.000949253
0.000417954
0.000595761
0.00139162
0.00142597
0.00113284
0.000833608
0.000702546
0.000652944
0.000637789
0.000635106
0.000635293
0.000631001
0.000618143
0.000598611
0.000576499
0.000555057
0.000535952
0.000520052
0.000507526
0.000498464
0.00049351
0.000491695
0.000492685
0.00049874
0.00050951
0.000525785
0.000548498
0.000578934
0.000618961
0.000671531
0.000741554
0.000837165
0.000970708
0.001157
0.00140387
0.00169089
0.00186507
0.00188612
0.00165155
0.00107173
0.00048135
0.000577787
0.00135745
0.00137737
0.00107387
0.000796476
0.00067948
0.000636553
0.000623432
0.000619739
0.000616828
0.000607384
0.000589927
0.000567704
0.000544653
0.00052335
0.000504933
0.000489788
0.000477877
0.000469129
0.000464015
0.000462027
0.000462493
0.000467603
0.000477303
0.000492357
0.000513719
0.000542609
0.000580684
0.000630444
0.000696061
0.000784852
0.000909244
0.00108751
0.00133771
0.00165653
0.00192801
0.00200268
0.00180795
0.00119419
0.000543482
0.000546472
0.00130997
0.0013225
0.00102398
0.000767507
0.000660459
0.000621916
0.000609726
0.000605032
0.000598909
0.000585431
0.000564998
0.000541414
0.000518217
0.000497405
0.000479688
0.000465145
0.000453608
0.000444934
0.000439382
0.000436975
0.000436805
0.000440803
0.00044928
0.000463005
0.000482978
0.000510427
0.000546906
0.000594607
0.000657084
0.000740723
0.000857235
0.0010262
0.00127243
0.0016065
0.00195777
0.00210015
0.00195575
0.00132034
0.000604526
0.000509486
0.00125608
0.00126502
0.000982346
0.00074456
0.000644569
0.000608948
0.000597133
0.00059148
0.000582555
0.000566179
0.000543946
0.000519771
0.000496767
0.000476482
0.000459329
0.000445199
0.000433852
0.000425118
0.000418978
0.000415901
0.000415188
0.000418014
0.000425195
0.000437516
0.000456039
0.000482044
0.000517071
0.00056312
0.000623225
0.000702807
0.000812405
0.000971729
0.001211
0.00155455
0.00196793
0.00219031
0.00210065
0.00144615
0.000665324
0.000465933
0.00120295
0.00120944
0.000948589
0.000726755
0.000631383
0.000597625
0.000586107
0.000579452
0.000568359
0.00055005
0.000526804
0.000502441
0.000479715
0.000459862
0.000443103
0.000429225
0.000417934
0.000409027
0.00040244
0.000398596
0.000397306
0.000399039
0.000404935
0.000415829
0.000432853
0.000457372
0.000490987
0.000535636
0.000593985
0.000670581
0.0007745
0.000924297
0.00115323
0.00150065
0.00195844
0.00226654
0.00223947
0.00158008
0.000726276
0.000422248
0.00114861
0.00115675
0.000921507
0.000713279
0.000620507
0.000587807
0.00057657
0.000569074
0.000556507
0.000537047
0.000513314
0.000488963
0.000466484
0.00044693
0.000430414
0.000416669
0.000405369
0.000396289
0.000389349
0.000384809
0.000382925
0.000383712
0.000388408
0.00039791
0.000413424
0.000436411
0.000468589
0.000511949
0.000568955
0.000643441
0.000743014
0.000884311
0.00110086
0.00144201
0.00192618
0.00233632
0.00237233
0.0017148
0.000786977
0.000372715
0.00110119
0.00110968
0.000900412
0.000704346
0.000612157
0.000579575
0.000568431
0.000560333
0.000546929
0.000526942
0.000503091
0.000478854
0.000456562
0.000437181
0.00042079
0.000407099
0.000395769
0.000386555
0.000379365
0.000374299
0.00037183
0.000371853
0.000375491
0.000383704
0.000397754
0.000419196
0.000449893
0.000491994
0.000547914
0.000620957
0.000717361
0.000851582
0.00105612
0.00138749
0.00188662
0.00239063
0.00250163
0.00185801
0.00084816
0.000333009
0.00104975
0.0010678
0.000884152
0.000699127
0.000605892
0.000572392
0.000561254
0.000552932
0.000539317
0.000519352
0.000495698
0.000471679
0.000449538
0.000430232
0.000413867
0.000400172
0.000388809
0.000379517
0.000372179
0.00036684
0.000363823
0.000363292
0.000366037
0.000373104
0.000385808
0.000405757
0.000434954
0.000475794
0.000530786
0.000602899
0.000697111
0.000825486
0.00101826
0.00133651
0.00184297
0.00242956
0.00262774
0.00200418
0.000908826
0.000299508
0.000996994
0.00102859
0.000874682
0.000699651
0.000602988
0.0005669
0.000555041
0.000546658
0.000533328
0.000513864
0.000490721
0.000467024
0.000445004
0.000425707
0.000409317
0.000395606
0.000384239
0.00037494
0.000367561
0.000362117
0.000358819
0.000357987
0.000360109
0.000366216
0.000377691
0.000396153
0.000423836
0.000463416
0.000517589
0.000589172
0.000682041
0.000805838
0.00098777
0.00129127
0.00179904
0.00245108
0.00275076
0.00215847
0.000969725
0.000269907
0.000944814
0.000992713
0.000869256
0.000702732
0.000603767
0.000562753
0.000549399
0.000541058
0.000528476
0.000509977
0.000487636
0.000464429
0.000442668
0.000423474
0.000407085
0.000393361
0.000382006
0.000372739
0.000365386
0.000359934
0.000356575
0.000355767
0.00035762
0.000363102
0.000373783
0.000391113
0.000417376
0.000455481
0.000508675
0.000580047
0.000672551
0.000792579
0.0009641
0.00125125
0.00175698
0.00246055
0.00287076
0.00231747
0.00102966
0.000243033
0.000894418
0.000960747
0.000867369
0.00070994
0.00060702
0.000561132
0.000544859
0.000536118
0.000524431
0.000507237
0.000486102
0.000463921
0.000442704
0.000423613
0.000407214
0.000393457
0.000382086
0.000372833
0.00036552
0.000360119
0.0003568
0.000356008
0.000357591
0.000362589
0.000372748
0.000389411
0.000414887
0.000451929
0.000504438
0.000575747
0.000668275
0.000786178
0.000947268
0.00121652
0.00171367
0.00246297
0.00298647
0.00248338
0.00108905
0.000217835
0.000845012
0.000932153
0.000866818
0.000721776
0.00061432
0.000562132
0.000541059
0.00053147
0.000520712
0.000505144
0.000485586
0.000464409
0.000443658
0.000424828
0.000408524
0.000394821
0.000383539
0.000374449
0.000367385
0.00036231
0.000359378
0.000358939
0.000360527
0.00036528
0.00037493
0.000390675
0.000414922
0.000451194
0.000503277
0.000574582
0.000667259
0.000784208
0.0009385
0.00118768
0.00166961
0.00245531
0.00309727
0.00265456
0.00114672
0.000194002
0.000797388
0.000906743
0.000865028
0.000739986
0.000627435
0.000565929
0.000540143
0.000527583
0.000517282
0.000503388
0.000485622
0.000465746
0.000445946
0.000427662
0.000411643
0.000398135
0.000387082
0.000378308
0.00037165
0.000367037
0.000364592
0.000364631
0.00036644
0.00037136
0.000380972
0.000396366
0.000419961
0.00045525
0.000506572
0.000577949
0.000671292
0.00078703
0.00093532
0.00116502
0.00162572
0.00243677
0.00320216
0.0028308
0.00120275
0.000170739
0.000748586
0.000883597
0.000861053
0.000761294
0.00064674
0.000574655
0.000541691
0.000525554
0.000514088
0.000501452
0.00048572
0.000467707
0.000449281
0.000431921
0.00041652
0.00040347
0.000392833
0.000384505
0.000378349
0.00037429
0.000372547
0.000373018
0.000375335
0.000380788
0.000390629
0.000406011
0.000429324
0.000464137
0.000515069
0.000586546
0.000680514
0.000795736
0.000936405
0.00114862
0.00158353
0.00240963
0.00329798
0.00301072
0.00125613
0.000148201
0.000700229
0.000860787
0.000853836
0.000785202
0.000670809
0.000590144
0.000546964
0.000526465
0.000513108
0.000500376
0.000486021
0.000469799
0.000453031
0.000436983
0.000422578
0.00041032
0.00040038
0.000392735
0.000387287
0.000383975
0.000383181
0.000384131
0.000387126
0.000393407
0.000403718
0.000419384
0.000442753
0.000477399
0.000528075
0.000599512
0.000693839
0.000808757
0.000944297
0.00113764
0.00154382
0.00237782
0.00338442
0.00318983
0.00130678
0.000125611
0.000646538
0.000837936
0.000844746
0.00080312
0.000702583
0.000614028
0.000558763
0.000530742
0.00051444
0.000500994
0.000487025
0.000472157
0.000457022
0.000442512
0.000429436
0.000418314
0.000409388
0.000402706
0.000398189
0.000395922
0.000396114
0.000397706
0.000401647
0.000408879
0.000419885
0.00043611
0.000459868
0.000494685
0.000545284
0.000616502
0.000710617
0.000824639
0.000954934
0.0011302
0.00150488
0.00233041
0.00346331
0.00336595
0.00135418
0.00010552
0.000596971
0.000813461
0.000835676
0.000811807
0.000736206
0.000646232
0.000581228
0.000541776
0.000519748
0.000504038
0.000489732
0.000475467
0.000461561
0.0004485
0.000436867
0.000427101
0.000419438
0.000413959
0.000410561
0.000409747
0.000410602
0.000413162
0.000418416
0.0004266
0.000438491
0.000455531
0.00047999
0.000515286
0.000565935
0.00063663
0.000729709
0.000841963
0.000967169
0.00112518
0.00146675
0.00227327
0.00352838
0.00353041
0.00139832
8.86435e-05
0.000543522
0.000792234
0.000826737
0.00081503
0.000767854
0.000684803
0.000614614
0.000564702
0.000533174
0.000512605
0.000496308
0.000481557
0.000467953
0.000455753
0.000445255
0.000436727
0.000430331
0.000426061
0.000424053
0.000424427
0.00042612
0.000429935
0.000436391
0.000445653
0.000458599
0.000476679
0.000502093
0.000538083
0.000588758
0.000658437
0.000749349
0.000858468
0.000978146
0.00112006
0.00142896
0.00220761
0.00357739
0.00367826
0.0014396
7.42686e-05
0.000482709
0.00077788
0.000819864
0.000815322
0.000789198
0.000726846
0.000659044
0.000603395
0.000561739
0.00053224
0.000511117
0.000493988
0.000479137
0.000466573
0.000456296
0.000448331
0.000442762
0.000439256
0.000438658
0.000439622
0.000442208
0.000447314
0.000454808
0.000465157
0.00047923
0.00049847
0.000524939
0.000561617
0.00061202
0.000679929
0.000767337
0.000871856
0.000985985
0.00111546
0.0013992
0.00214343
0.00360308
0.00379301
0.00147864
6.17251e-05
0.000415794
0.00075567
0.000815541
0.000816193
0.000805014
0.000770112
0.000711588
0.000656716
0.000609995
0.000572303
0.000542441
0.000519583
0.000501226
0.000486186
0.000474342
0.00046546
0.000459544
0.000455843
0.000455663
0.000456847
0.000459879
0.000465595
0.000473809
0.000485023
0.000500053
0.000520306
0.000547602
0.000584584
0.000634037
0.0006992
0.000781816
0.000880604
0.000990024
0.00111323
0.00138598
0.00210738
0.00361518
0.00384903
0.00151794
5.42271e-05
0.000357488
0.000708504
0.000803941
0.000818043
0.00081738
0.000805977
0.000774669
0.000727686
0.000681582
0.000639595
0.000602899
0.000571749
0.000546156
0.000525536
0.000509301
0.000496974
0.000488356
0.000482736
0.000480487
0.000481077
0.000483349
0.000488297
0.000496274
0.000507555
0.000522883
0.000543538
0.000570983
0.000607501
0.00065516
0.000716834
0.000794307
0.000887934
0.00099662
0.00112001
0.00138628
0.00209504
0.00362607
0.00386719
0.00155589
5.47317e-05
0.00033418
0.0006405
0.000776108
0.000819749
0.000837028
0.000843022
0.00083553
0.000813856
0.000776822
0.000736782
0.000697459
0.000660879
0.000628317
0.000600319
0.000576993
0.000558144
0.000543582
0.000532836
0.000525772
0.000521942
0.000522276
0.000524641
0.00053028
0.000540362
0.000555002
0.000575244
0.000602228
0.000637919
0.000684021
0.000743328
0.000818656
0.000912405
0.00103142
0.00117721
0.00147111
0.00216772
0.0036596
0.00384696
0.00157152
7.18859e-05
0.000339852
0.000571898
0.000732523
0.000826639
0.000876772
0.000905543
0.000920815
0.000917791
0.00090397
0.000874813
0.000838274
0.000799642
0.000761469
0.000725588
0.000693219
0.000665077
0.000641461
0.000622478
0.000608068
0.000598205
0.000593227
0.000593919
0.000597417
0.00060545
0.000619793
0.000640537
0.000669138
0.000707154
0.000757102
0.000821697
0.00090725
0.00101731
0.00117041
0.00137374
0.00172067
0.00241446
0.00373991
0.00375012
0.00157516
0.00010469
0.000393265
0.000581594
0.000751304
0.000876761
0.000971177
0.00103281
0.00106919
0.00108113
0.00107676
0.00106144
0.00103012
0.000990692
0.000948558
0.00090583
0.000867201
0.000833638
0.000805722
0.00078327
0.000767448
0.000756383
0.000752406
0.000754581
0.000761521
0.000775905
0.000799443
0.000831402
0.000874539
0.000930533
0.00100503
0.00109998
0.00122739
0.00138911
0.00161652
0.00190424
0.00235104
0.00297866
0.00389473
0.00366713
0.00154175
0.000167997
0.000538868
0.000717299
0.000918405
0.00108499
0.00122235
0.00131652
0.00137349
0.00139795
0.00139529
0.00138378
0.00135929
0.00132636
0.00129237
0.00125999
0.00123113
0.00120656
0.00118953
0.00117997
0.00118164
0.00118894
0.00120595
0.00123372
0.00127446
0.00132504
0.00139184
0.00147174
0.00157176
0.00169081
0.0018319
0.00200534
0.0022162
0.00248188
0.00280184
0.00319204
0.0036693
0.00408391
0.00424307
0.00357423
0.00145969
0.000301102
0.000911328
0.00130134
0.0016742
0.00191157
0.00207642
0.00218066
0.00224224
0.00227355
0.00227516
0.00227165
0.00226673
0.00225769
0.00225838
0.00226363
0.00227729
0.00229997
0.00233653
0.00238095
0.00244272
0.00251368
0.00260365
0.00270303
0.00282401
0.00295599
0.00311017
0.00327948
0.00346828
0.00368223
0.00390477
0.00417468
0.00441748
0.00475784
0.00496994
0.00535569
0.00535491
0.00516072
0.00450628
0.00315462
0.00128808
0.000203215
0.000324749
0.000433911
0.000555331
0.000664758
0.000762337
0.000845424
0.000911403
0.000964315
0.00100026
0.00102399
0.0010381
0.00104487
0.00104445
0.00104223
0.00103732
0.00103055
0.00102358
0.0010169
0.00101122
0.00100712
0.00100486
0.00100549
0.00100775
0.00101365
0.00102044
0.00103518
0.00104659
0.00107095
0.00108684
0.00112094
0.00114097
0.00118443
0.00121529
0.00128353
0.00132282
0.00138937
0.00138858
0.0013394
0.00111761
)
;

boundaryField
{
    movingWall
    {
        type            kqRWallFunction;
        value           nonuniform List<scalar> 
40
(
0.000203215
0.000324749
0.000433911
0.000555331
0.000664758
0.000762337
0.000845424
0.000911403
0.000964315
0.00100026
0.00102399
0.0010381
0.00104487
0.00104445
0.00104223
0.00103732
0.00103055
0.00102358
0.0010169
0.00101122
0.00100712
0.00100486
0.00100549
0.00100775
0.00101365
0.00102044
0.00103518
0.00104659
0.00107095
0.00108684
0.00112094
0.00114097
0.00118443
0.00121529
0.00128353
0.00132282
0.00138937
0.00138858
0.0013394
0.00111761
)
;
    }
    fixedWalls
    {
        type            kqRWallFunction;
        value           nonuniform List<scalar> 
120
(
1.59674e-06
7.72676e-06
2.30003e-05
5.34439e-05
0.000103015
0.000175694
0.000270427
0.000373211
0.000462512
0.000529466
0.000576066
0.000603575
0.000603172
0.000595761
0.000577787
0.000546472
0.000509486
0.000465933
0.000422248
0.000372715
0.000333009
0.000299508
0.000269907
0.000243033
0.000217835
0.000194002
0.000170739
0.000148201
0.000125611
0.00010552
8.86435e-05
7.42686e-05
6.17251e-05
5.42271e-05
5.47317e-05
7.18859e-05
0.00010469
0.000167997
0.000301102
0.000203215
2.38705e-06
4.45214e-06
3.74294e-06
2.76726e-06
3.46101e-06
6.91792e-06
1.59384e-05
3.94624e-05
0.000106103
0.000192095
0.000278631
0.000350412
0.000417954
0.00048135
0.000543482
0.000604526
0.000665324
0.000726276
0.000786977
0.00084816
0.000908826
0.000969725
0.00102966
0.00108905
0.00114672
0.00120275
0.00125613
0.00130678
0.00135418
0.00139832
0.0014396
0.00147864
0.00151794
0.00155589
0.00157152
0.00157516
0.00154175
0.00145969
0.00128808
0.00111761
1.59674e-06
6.04599e-06
1.22841e-05
1.34537e-05
1.28278e-05
1.34432e-05
1.69614e-05
2.63933e-05
3.65144e-05
4.72283e-05
7.2565e-05
9.70448e-05
0.000110289
0.000121823
0.000140021
0.000164022
0.000188855
0.000215153
0.000242955
0.000272359
0.000304746
0.000339834
0.000379787
0.000424879
0.000478795
0.000530563
0.000581363
0.000626194
0.000664382
0.000685183
0.000693369
0.000677655
0.000617123
0.000515657
0.000374959
0.00021183
9.79918e-05
3.91305e-05
1.19337e-05
2.38705e-06
)
;
    }
    frontAndBack
    {
        type            empty;
    }
}


// ************************************************************************* //
