/*--------------------------------*- C++ -*----------------------------------*\
  =========                 |
  \\      /  F ield         | OpenFOAM: The Open Source CFD Toolbox
   \\    /   O peration     | Website:  https://openfoam.org
    \\  /    A nd           | Version:  13
     \\/     M anipulation  |
\*---------------------------------------------------------------------------*/
FoamFile
{
    format      ascii;
    class       volScalarField;
    location    "5";
    object      p;
}
// * * * * * * * * * * * * * * * * * * * * * * * * * * * * * * * * * * * * * //

dimensions      [0 2 -2 0 0 0 0];

internalField   nonuniform List<scalar> 
1600
(
3.82329e-08
-1.53084e-05
-8.44714e-05
-0.000189588
-0.00029159
-0.000376811
-0.000455994
-0.000553843
-0.000681931
-0.000840689
-0.00103703
-0.00131678
-0.00170302
-0.00195321
-0.00211881
-0.00250283
-0.00313732
-0.00390165
-0.00466394
-0.00530345
-0.00573134
-0.00588157
-0.00570569
-0.00516267
-0.00425838
-0.00300671
-0.00141158
0.000482679
0.00258415
0.0047111
0.00660786
0.00798088
0.00861224
0.00846084
0.00757424
0.00664296
0.00605436
0.00594409
0.00602083
0.00605546
-1.20221e-05
-4.71714e-05
-0.000124243
-0.000227925
-0.000308899
-0.000361758
-0.000410722
-0.000490324
-0.0006079
-0.000747463
-0.000877732
-0.00106567
-0.00141761
-0.00187959
-0.00238594
-0.00299372
-0.00371658
-0.00449691
-0.00524207
-0.00585639
-0.00626457
-0.00641144
-0.00625474
-0.00576957
-0.00495424
-0.00378055
-0.00226455
-0.000447757
0.00157375
0.00364738
0.00555166
0.00700587
0.0077731
0.00776283
0.0070673
0.00616353
0.00569938
0.00575077
0.00589145
0.0059593
-2.2375e-05
-9.28109e-05
-0.000195222
-0.000298709
-0.000354778
-0.000365726
-0.000370982
-0.000396984
-0.00046584
-0.00063537
-0.000936444
-0.00134389
-0.0018714
-0.00251489
-0.00325415
-0.0040554
-0.00487232
-0.00565788
-0.00635814
-0.00691713
-0.00728546
-0.00741452
-0.00727465
-0.00684653
-0.00610069
-0.0050314
-0.00365021
-0.00198952
-0.000117225
0.00185641
0.00375006
0.00533704
0.00638357
0.00673426
0.00644871
0.00588073
0.00557803
0.0056274
0.00576885
0.00581464
-7.62368e-06
-0.000113615
-0.000254439
-0.000349633
-0.000374203
-0.000357329
-0.000352247
-0.000400035
-0.000548407
-0.000871643
-0.00140435
-0.00210159
-0.00289448
-0.00374413
-0.00462866
-0.0055124
-0.00635352
-0.00712065
-0.00777955
-0.00829481
-0.00862684
-0.00873462
-0.008599
-0.00820439
-0.00753644
-0.00658916
-0.00537074
-0.00390313
-0.00222942
-0.0004184
0.00141057
0.00309707
0.00444107
0.00527666
0.00560763
0.00560714
0.00561485
0.00564183
0.00570797
0.00570433
0.000117142
-3.9698e-05
-0.000204973
-0.000299361
-0.00032973
-0.000339927
-0.000398136
-0.000576883
-0.000942623
-0.00153642
-0.0023387
-0.0032747
-0.00426557
-0.00525772
-0.00621906
-0.00713028
-0.00797441
-0.00873281
-0.00936336
-0.00983285
-0.0101137
-0.0101957
-0.0100673
-0.00971617
-0.00912983
-0.00830741
-0.00725072
-0.00597004
-0.00449026
-0.00286023
-0.00115393
0.00053122
0.00207959
0.00337958
0.0043726
0.00506499
0.00551628
0.00572857
0.00568996
0.00562473
0.000406795
0.000183847
3.75626e-07
-0.000123877
-0.000214517
-0.000334935
-0.000569836
-0.000999849
-0.00166672
-0.00255215
-0.00358812
-0.00469344
-0.0058048
-0.00687555
-0.00788439
-0.00881476
-0.00964264
-0.0103441
-0.0108998
-0.0113022
-0.0115386
-0.0116011
-0.0114833
-0.0111763
-0.010673
-0.00997238
-0.00907424
-0.00798153
-0.00670335
-0.00526056
-0.00369014
-0.00204846
-0.000402803
0.00120335
0.00272266
0.0040579
0.0050548
0.0056257
0.0056139
0.00550872
0.000838543
0.000564914
0.000337611
0.000143097
-7.50117e-05
-0.000399976
-0.000914264
-0.00166682
-0.00264361
-0.00378084
-0.00499302
-0.00621281
-0.00739181
-0.00849464
-0.00950008
-0.0103924
-0.0111614
-0.0117952
-0.0122875
-0.0126355
-0.0128341
-0.0128794
-0.0127681
-0.0124956
-0.0120598
-0.0114598
-0.0106951
-0.00976596
-0.00867336
-0.00742106
-0.00601802
-0.00447968
-0.00282149
-0.00105461
0.000787034
0.00260168
0.00415088
0.00517555
0.00554347
0.00533546
0.00135124
0.00104153
0.000723572
0.00041
-2.05073e-06
-0.000604784
-0.00144922
-0.00252492
-0.00377053
-0.00509735
-0.00642891
-0.0077125
-0.00891006
-0.00999752
-0.0109624
-0.0117981
-0.0125027
-0.0130741
-0.0135116
-0.0138145
-0.0139815
-0.0140121
-0.0139052
-0.0136599
-0.0132764
-0.0127547
-0.0120949
-0.0112959
-0.0103547
-0.00926652
-0.00802459
-0.00661948
-0.00503485
-0.00324662
-0.00125144
0.000861448
0.0028526
0.00441446
0.00528887
0.00498512
0.00180304
0.00142598
0.00101654
0.000556691
-9.2165e-05
-0.00100064
-0.00216102
-0.00351353
-0.0049602
-0.00641375
-0.00781171
-0.0091141
-0.0102949
-0.0113424
-0.0122537
-0.0130302
-0.0136752
-0.0141913
-0.0145811
-0.0148461
-0.0149877
-0.0150069
-0.0149041
-0.014681
-0.0143382
-0.0138772
-0.0132985
-0.0126011
-0.0117808
-0.0108285
-0.00972913
-0.00845948
-0.00698656
-0.00526623
-0.00325754
-0.000995246
0.00130237
0.00332073
0.00462848
0.00469866
0.00205389
0.00161905
0.00110941
0.000485627
-0.000408282
-0.00160023
-0.00302183
-0.00457552
-0.00615453
-0.00767757
-0.00909717
-0.0103855
-0.0115291
-0.0125267
-0.0133825
-0.0141031
-0.0146951
-0.0151642
-0.0155147
-0.0157501
-0.0158727
-0.0158845
-0.0157868
-0.0155816
-0.0152707
-0.0148558
-0.0143382
-0.0137177
-0.0129905
-0.0121472
-0.0111701
-0.0100309
-0.00868892
-0.00708988
-0.00516633
-0.00289007
-0.000435276
0.00185856
0.00362804
0.00456307
0.00201733
0.00153745
0.0009317
0.000148867
-0.000965687
-0.00238092
-0.0039916
-0.00566711
-0.00731609
-0.00886038
-0.0102679
-0.0115209
-0.0126169
-0.0135617
-0.0143646
-0.0150353
-0.0155827
-0.016014
-0.0163345
-0.0165483
-0.0166583
-0.0166665
-0.0165747
-0.0163851
-0.0160995
-0.0157202
-0.015249
-0.0146863
-0.0140297
-0.0132713
-0.0123947
-0.0113718
-0.0101615
-0.00870849
-0.00693702
-0.00477186
-0.00229001
0.000107257
0.00219054
0.00363162
0.00166975
0.0011549
0.000465905
-0.00045064
-0.00173161
-0.00330157
-0.00501799
-0.00675394
-0.00841934
-0.00994815
-0.0113201
-0.0125255
-0.0135696
-0.0144632
-0.0152184
-0.0158468
-0.0163583
-0.0167606
-0.0170592
-0.0172583
-0.0173607
-0.0173684
-0.0172834
-0.0171076
-0.016843
-0.0164919
-0.0160564
-0.0155378
-0.0149351
-0.014243
-0.0134483
-0.0125267
-0.0114403
-0.0101367
-0.00854609
-0.00657353
-0.00418818
-0.00180767
0.00029963
0.00181412
0.00103216
0.000498791
-0.000249737
-0.00126733
-0.00265006
-0.00430351
-0.00605622
-0.00780303
-0.00944544
-0.010934
-0.0122559
-0.0134081
-0.0144008
-0.0152472
-0.0159612
-0.016555
-0.0170384
-0.0174191
-0.0177022
-0.0178918
-0.0179903
-0.0179997
-0.0179219
-0.0177586
-0.0175118
-0.0171836
-0.0167763
-0.016292
-0.0157311
-0.015091
-0.0143627
-0.0135272
-0.0125521
-0.0113908
-0.00998114
-0.00823486
-0.00608222
-0.00379395
-0.001842
-0.000466804
0.000169279
-0.000364033
-0.0011443
-0.00222363
-0.00365628
-0.00532712
-0.00706883
-0.00878737
-0.010381
-0.0118147
-0.0130799
-0.0141782
-0.0151226
-0.0159275
-0.0166069
-0.0171728
-0.0176347
-0.0179994
-0.0182719
-0.0184555
-0.0185526
-0.018565
-0.0184943
-0.0183423
-0.0181106
-0.0178015
-0.0174172
-0.0169604
-0.0164329
-0.0158344
-0.0151603
-0.0143974
-0.0135207
-0.0124902
-0.0112516
-0.00973337
-0.00786365
-0.00575487
-0.00404167
-0.00288252
-0.000829223
-0.00134956
-0.00213825
-0.00323931
-0.00467543
-0.00631786
-0.00802286
-0.00968629
-0.0112169
-0.0125892
-0.0137967
-0.014844
-0.0157451
-0.0165142
-0.0171652
-0.017709
-0.0181544
-0.0185075
-0.0187725
-0.0189526
-0.0190498
-0.0190657
-0.0190019
-0.0188598
-0.0186412
-0.018348
-0.0179827
-0.0175483
-0.0170477
-0.016483
-0.0158531
-0.015151
-0.0143589
-0.0134448
-0.0123639
-0.0110618
-0.00946838
-0.00760891
-0.00613317
-0.00518779
-0.00187422
-0.00237028
-0.00314989
-0.00424074
-0.00564759
-0.00723678
-0.00888755
-0.0104832
-0.0119465
-0.0132573
-0.0144102
-0.0154116
-0.016275
-0.0170144
-0.0176422
-0.0181687
-0.0186015
-0.0189461
-0.019206
-0.0193841
-0.0194822
-0.0195018
-0.0194441
-0.0193107
-0.0191031
-0.0188232
-0.0184735
-0.0180575
-0.0175787
-0.0170412
-0.0164472
-0.0157948
-0.0150731
-0.0142588
-0.0133154
-0.012198
-0.0108523
-0.00929682
-0.00804002
-0.00725225
-0.0028819
-0.00334728
-0.00410455
-0.00516806
-0.00652836
-0.0080541
-0.00964078
-0.0111662
-0.0125648
-0.0138185
-0.0149229
-0.0158847
-0.0167167
-0.0174317
-0.0180413
-0.0185544
-0.0189778
-0.0193162
-0.0195728
-0.0197499
-0.0198493
-0.0198723
-0.01982
-0.0196937
-0.0194951
-0.019226
-0.018889
-0.0184875
-0.0180262
-0.0175102
-0.0169447
-0.016332
-0.0156677
-0.014936
-0.0141079
-0.013144
-0.0120073
-0.0107309
-0.00968024
-0.00902001
-0.00378901
-0.00421715
-0.00494357
-0.00597363
-0.00728329
-0.00874571
-0.0102674
-0.0117272
-0.0130678
-0.014272
-0.0153356
-0.016265
-0.0170718
-0.0177679
-0.0183636
-0.0188668
-0.0192834
-0.0196176
-0.0198722
-0.0200491
-0.02015
-0.0201759
-0.020128
-0.0200074
-0.0198158
-0.0195549
-0.0192275
-0.0188371
-0.0183888
-0.017889
-0.0173449
-0.0167625
-0.016143
-0.0154775
-0.0147427
-0.0139044
-0.0129428
-0.0119012
-0.0110295
-0.0104691
-0.00454393
-0.00493979
-0.00563065
-0.00662523
-0.00788661
-0.0092938
-0.0107569
-0.01216
-0.0134523
-0.0146164
-0.0156478
-0.0165523
-0.0173405
-0.0180229
-0.0186088
-0.0191053
-0.0195177
-0.0198495
-0.0201032
-0.0202806
-0.0203829
-0.0204113
-0.0203666
-0.0202502
-0.0200634
-0.0198082
-0.0194872
-0.0191042
-0.0186646
-0.0181755
-0.0176458
-0.0170846
-0.0164976
-0.0158821
-0.0152206
-0.0144842
-0.0136636
-0.0127981
-0.0120785
-0.011602
-0.00512547
-0.00548136
-0.00614205
-0.00710533
-0.0083243
-0.00968692
-0.0111022
-0.0124601
-0.0137151
-0.0148494
-0.0158579
-0.0167454
-0.0175214
-0.0181953
-0.0187756
-0.0192688
-0.0196794
-0.0200106
-0.0202647
-0.0204431
-0.020547
-0.0205772
-0.0205348
-0.0204208
-0.0202366
-0.0199841
-0.0196662
-0.0192865
-0.0188509
-0.018367
-0.0178449
-0.0172958
-0.0167294
-0.0161481
-0.0155409
-0.014885
-0.0141749
-0.0134435
-0.0128415
-0.0124304
-0.0055113
-0.0058349
-0.00647324
-0.00740944
-0.00859089
-0.00992044
-0.0112994
-0.012624
-0.0138534
-0.0149687
-0.0159634
-0.0168418
-0.0176122
-0.018283
-0.0188621
-0.0193553
-0.0197668
-0.0200996
-0.0203554
-0.0205356
-0.020641
-0.0206726
-0.0206312
-0.0205177
-0.0203337
-0.0200811
-0.0197625
-0.0193819
-0.0189453
-0.0184606
-0.0179389
-0.0173932
-0.016836
-0.0162744
-0.0157036
-0.0151076
-0.014481
-0.0138466
-0.0133323
-0.0129727
-0.00568831
-0.00599673
-0.00662407
-0.00754122
-0.00869049
-0.00999394
-0.0113454
-0.0126493
-0.0138646
-0.0149708
-0.0159611
-0.0168383
-0.0176097
-0.0182832
-0.0188657
-0.0193628
-0.0197782
-0.0201147
-0.0203739
-0.0205567
-0.0206641
-0.0206965
-0.0206549
-0.0205401
-0.0203536
-0.0200973
-0.019774
-0.0193879
-0.0189449
-0.0184529
-0.0179245
-0.0173734
-0.0168147
-0.0162591
-0.0157083
-0.0151533
-0.0145892
-0.0140253
-0.0135715
-0.0132467
-0.00568309
-0.00597991
-0.00660082
-0.00750631
-0.00863046
-0.00990962
-0.0112452
-0.0125376
-0.0137474
-0.0148533
-0.0158474
-0.0167311
-0.0175103
-0.0181923
-0.0187834
-0.0192885
-0.0197114
-0.0200543
-0.0203188
-0.0205056
-0.0206152
-0.0206483
-0.0206053
-0.0204872
-0.0202953
-0.0200316
-0.019699
-0.0193018
-0.0188462
-0.018341
-0.0177984
-0.0172333
-0.0166626
-0.0161004
-0.0155541
-0.0150216
-0.0145009
-0.0139865
-0.0135838
-0.0132683
-0.00552883
-0.00581201
-0.00642533
-0.00732198
-0.00842432
-0.00967581
-0.0110007
-0.0122884
-0.0134996
-0.0146126
-0.015618
-0.0165156
-0.0173097
-0.0180065
-0.0186116
-0.0191296
-0.0195639
-0.0199164
-0.0201885
-0.0203808
-0.0204936
-0.0205271
-0.0204818
-0.0203584
-0.0201583
-0.0198832
-0.0195364
-0.0191223
-0.0186475
-0.0181214
-0.0175568
-0.0169694
-0.0163767
-0.015796
-0.0152396
-0.0147124
-0.0142188
-0.0137366
-0.0133978
-0.0130493
-0.0052618
-0.00552932
-0.00612848
-0.00701074
-0.0080905
-0.00930822
-0.0106152
-0.0119013
-0.0131187
-0.0142447
-0.0152681
-0.0161866
-0.0170026
-0.0177209
-0.0183461
-0.0188825
-0.0193327
-0.0196988
-0.0199815
-0.0201813
-0.0202983
-0.0203324
-0.0202839
-0.0201534
-0.0199419
-0.0196516
-0.0192856
-0.0188485
-0.0183476
-0.0177928
-0.0171977
-0.0165788
-0.0159549
-0.0153445
-0.0147642
-0.0142268
-0.0137467
-0.0132741
-0.0130116
-0.0126012
-0.00492916
-0.00517577
-0.00574608
-0.00659664
-0.00764514
-0.00882608
-0.0100989
-0.0113786
-0.012603
-0.0137454
-0.0147921
-0.015738
-0.016583
-0.01733
-0.0179823
-0.0185431
-0.0190149
-0.0193989
-0.0196958
-0.0199057
-0.0200283
-0.0200634
-0.0200111
-0.0198717
-0.0196461
-0.0193365
-0.018946
-0.0184798
-0.0179456
-0.0173543
-0.0167201
-0.0160607
-0.0153958
-0.0147452
-0.0141297
-0.0135727
-0.0130936
-0.0126016
-0.0123915
-0.0119372
-0.00458683
-0.00480062
-0.00531729
-0.0061097
-0.00710446
-0.00823773
-0.00946497
-0.0107255
-0.0119515
-0.0131104
-0.0141841
-0.0151633
-0.0160445
-0.0168277
-0.0175146
-0.0181071
-0.0186065
-0.0190138
-0.0193291
-0.0195523
-0.0196827
-0.0197198
-0.0196634
-0.0195137
-0.0192714
-0.0189385
-0.0185185
-0.0180169
-0.0174423
-0.0168063
-0.0161245
-0.0154154
-0.0146996
-0.0139987
-0.0133378
-0.0127523
-0.0122686
-0.0117249
-0.0115448
-0.0110661
-0.00428995
-0.00444761
-0.00487555
-0.00557772
-0.00649059
-0.00755349
-0.00872171
-0.00994629
-0.0111639
-0.0123359
-0.0134382
-0.0144557
-0.0153801
-0.0162078
-0.0169376
-0.0175695
-0.0181038
-0.0185405
-0.0188794
-0.0191198
-0.0192607
-0.0193013
-0.0192412
-0.0190803
-0.0188192
-0.0184597
-0.0180056
-0.0174629
-0.0168408
-0.0161524
-0.0154142
-0.0146461
-0.0138698
-0.0131081
-0.0123911
-0.0117636
-0.0112514
-0.0106663
-0.0105303
-0.00998262
-0.00407206
-0.00414103
-0.00444309
-0.00502441
-0.0058266
-0.00678939
-0.00787584
-0.00904503
-0.0102406
-0.0114192
-0.0125496
-0.0136094
-0.0145838
-0.0154641
-0.0162457
-0.0169258
-0.0175032
-0.0179766
-0.018345
-0.0186074
-0.0187624
-0.0188089
-0.0187462
-0.0185739
-0.0182925
-0.0179039
-0.017412
-0.0168233
-0.0161478
-0.0153997
-0.014597
-0.0137607
-0.0129141
-0.0120809
-0.0112965
-0.0106133
-0.010059
-0.00941739
-0.00934261
-0.00865207
-0.00392142
-0.00386271
-0.00402938
-0.00447055
-0.00513206
-0.00596209
-0.00693716
-0.00802782
-0.00918465
-0.0103605
-0.0115162
-0.0126207
-0.0136512
-0.0145927
-0.0154353
-0.0161731
-0.0168024
-0.0173205
-0.0177255
-0.0180156
-0.0181891
-0.0182448
-0.0181819
-0.0179989
-0.0176971
-0.0172782
-0.0167461
-0.0161079
-0.0153744
-0.0145608
-0.0136865
-0.0127732
-0.0118464
-0.010931
-0.0100672
-0.00931301
-0.00869575
-0.00796066
-0.0079848
-0.00701051
-0.00373577
-0.00357883
-0.00364459
-0.0039326
-0.00442108
-0.00508465
-0.00591783
-0.00690498
-0.00800403
-0.00916527
-0.0103412
-0.0114911
-0.0125829
-0.0135932
-0.0145063
-0.0153115
-0.0160022
-0.0165738
-0.0170231
-0.0173476
-0.0175452
-0.0176144
-0.0175537
-0.0173632
-0.0170425
-0.0165938
-0.0160214
-0.0153325
-0.0145387
-0.0136558
-0.0127042
-0.0117064
-0.0106897
-0.0096804
-0.0087242
-0.00788128
-0.00717418
-0.00631241
-0.00643871
-0.00497639
-0.00347195
-0.00331605
-0.00330449
-0.00342072
-0.00370433
-0.00416919
-0.00483188
-0.00569126
-0.00671348
-0.00784707
-0.0090365
-0.0102306
-0.0113869
-0.0124727
-0.0134647
-0.0143469
-0.0151086
-0.0157427
-0.0162446
-0.016611
-0.0168392
-0.0169276
-0.0168748
-0.0166803
-0.016344
-0.0158685
-0.0152583
-0.0145207
-0.0136673
-0.0127142
-0.0116821
-0.0105938
-0.00947782
-0.00836279
-0.00729986
-0.00634492
-0.005517
-0.00451351
-0.0046409
-0.00252055
-0.00322302
-0.00311207
-0.00301645
-0.00294146
-0.00299142
-0.00322787
-0.00369497
-0.00440694
-0.00533695
-0.0064313
-0.00762699
-0.00886246
-0.0100843
-0.0112499
-0.0123274
-0.0132945
-0.0141357
-0.0148411
-0.015404
-0.01582
-0.0160863
-0.0162007
-0.016162
-0.0159704
-0.0156246
-0.0151285
-0.0144865
-0.0137058
-0.0127978
-0.0117774
-0.0106649
-0.00948214
-0.00825874
-0.0070246
-0.00583601
-0.00473874
-0.00375272
-0.00258492
-0.00250382
0.000296452
-0.0030205
-0.00295795
-0.00276739
-0.00249332
-0.00228896
-0.00227364
-0.00252682
-0.00307911
-0.00390864
-0.00495752
-0.00615421
-0.00742749
-0.00871358
-0.00996002
-0.0111264
-0.0121834
-0.0131105
-0.0138941
-0.0145253
-0.0149985
-0.0153105
-0.0154586
-0.0154419
-0.0152606
-0.0149163
-0.0144096
-0.0137463
-0.012933
-0.0119799
-0.0108997
-0.00971056
-0.00843128
-0.00709133
-0.00571864
-0.00437159
-0.0030808
-0.00187141
-0.000448187
5.68528e-06
0.00347081
-0.00281727
-0.00280716
-0.00252401
-0.00205515
-0.00158941
-0.00131501
-0.00135161
-0.00174447
-0.00247422
-0.00347807
-0.00467532
-0.00598466
-0.00733278
-0.00865829
-0.00991289
-0.0110605
-0.0120757
-0.0129413
-0.0136458
-0.0141823
-0.0145468
-0.014737
-0.0147519
-0.014592
-0.0142599
-0.0137559
-0.0130854
-0.012254
-0.0112697
-0.0101409
-0.00888129
-0.00750342
-0.00603284
-0.00448806
-0.00292175
-0.0013389
0.000227951
0.00208611
0.003134
0.00739925
-0.00258879
-0.00260152
-0.00225255
-0.00159788
-0.000883005
-0.000368742
-0.000207971
-0.00045782
-0.00109915
-0.0020644
-0.00326463
-0.00460935
-0.00601618
-0.00741592
-0.00875372
-0.00998795
-0.0110889
-0.0120358
-0.0128152
-0.0134184
-0.0138407
-0.0140798
-0.014135
-0.0140068
-0.0136976
-0.0132097
-0.012546
-0.0117101
-0.0107086
-0.00954229
-0.00821877
-0.00673768
-0.005114
-0.0033416
-0.00145218
0.000603651
0.00279465
0.00546765
0.00764206
0.0135183
-0.00232521
-0.00234433
-0.00190836
-0.00109753
-0.000166508
0.000539785
0.000854265
0.00071716
0.000146158
-0.000788613
-0.00199213
-0.00336712
-0.00482533
-0.0062912
-0.00770432
-0.00901835
-0.0101999
-0.0112251
-0.0120783
-0.0127489
-0.0132317
-0.0135237
-0.013625
-0.0135355
-0.013258
-0.0127929
-0.0121434
-0.0113094
-0.0102983
-0.0091014
-0.00771895
-0.00612917
-0.00432514
-0.00224921
0.000109102
0.00292061
0.00619036
0.0104645
0.0151299
0.0247289
-0.00221185
-0.00216818
-0.00156719
-0.000586175
0.000489703
0.00135463
0.00176756
0.00170069
0.00116943
0.000246038
-0.000970495
-0.00237612
-0.00387915
-0.00540063
-0.00687587
-0.00825516
-0.00950306
-0.0105931
-0.0115081
-0.012236
-0.0127712
-0.0131095
-0.0132518
-0.0131971
-0.0129486
-0.0125057
-0.0118723
-0.0110436
-0.0100178
-0.00878617
-0.00734652
-0.00564849
-0.00365082
-0.00121181
0.00175063
0.0056444
0.0106133
0.0178659
0.0275659
0.0441567
-0.00313729
-0.00247689
-0.00145302
-0.00019061
0.00106397
0.00201336
0.00249839
0.00247314
0.00196174
0.00104332
-0.000181875
-0.00160984
-0.00314803
-0.00471429
-0.00624144
-0.0076753
-0.00897824
-0.0101202
-0.011084
-0.0118556
-0.0124309
-0.0128035
-0.0129759
-0.0129451
-0.0127166
-0.0122862
-0.0116602
-0.0108298
-0.00979998
-0.00855208
-0.00706927
-0.00528475
-0.00313213
-0.000395976
0.00315822
0.00831131
0.0157272
0.0276941
0.0455703
0.0720902
-0.00525372
-0.00164704
-0.000103023
0.00113441
0.00227944
0.0031441
0.00355238
0.00345436
0.00288178
0.00191228
0.000644293
-0.000827146
-0.00241278
-0.00403012
-0.00561022
-0.00709853
-0.00845224
-0.00964174
-0.0106458
-0.0114535
-0.0120572
-0.0124556
-0.0126464
-0.0126326
-0.0124128
-0.0119908
-0.0113618
-0.0105268
-0.00947057
-0.00818773
-0.00665487
-0.00486836
-0.00273806
0.000141361
0.00398652
0.0103183
0.0209013
0.0386169
0.0662301
0.100963
)
;

boundaryField
{
    movingWall
    {
        type            zeroGradient;
    }
    fixedWalls
    {
        type            zeroGradient;
    }
    frontAndBack
    {
        type            empty;
    }
}


// ************************************************************************* //
