/*--------------------------------*- C++ -*----------------------------------*\
  =========                 |
  \\      /  F ield         | OpenFOAM: The Open Source CFD Toolbox
   \\    /   O peration     | Website:  https://openfoam.org
    \\  /    A nd           | Version:  13
     \\/     M anipulation  |
\*---------------------------------------------------------------------------*/
FoamFile
{
    format      ascii;
    class       volScalarField;
    location    "5";
    object      p;
}
// * * * * * * * * * * * * * * * * * * * * * * * * * * * * * * * * * * * * * //

dimensions      [0 2 -2 0 0 0 0];

internalField   nonuniform List<scalar> 
400
(
4.41719e-08
-6.52815e-05
-0.000158256
-0.000177304
-0.000451896
-0.00120252
-0.00228732
-0.00343645
-0.00443445
-0.00513795
-0.00545718
-0.00530315
-0.00463339
-0.00342459
-0.00166871
0.000542405
0.00295731
0.00508284
0.00637361
0.00660882
2.61876e-05
-2.80282e-05
-0.00010985
-0.000380051
-0.000936484
-0.00183037
-0.00292763
-0.00403096
-0.0049817
-0.00567012
-0.00600568
-0.00592392
-0.0053839
-0.00432095
-0.00272565
-0.000646133
0.00171409
0.00394678
0.00551292
0.00612259
0.000211255
2.19224e-05
-0.000311455
-0.000885681
-0.00175233
-0.00282252
-0.00395796
-0.00503099
-0.00595169
-0.00661605
-0.00693864
-0.00688005
-0.00641966
-0.00552764
-0.00418064
-0.00239444
-0.000271162
0.00193464
0.00378431
0.00470418
0.000200721
-0.000140158
-0.000770967
-0.00168654
-0.00281702
-0.0040248
-0.00519871
-0.00624295
-0.0070784
-0.00764865
-0.00792891
-0.00789724
-0.00752799
-0.00680268
-0.00570247
-0.00422539
-0.00241429
-0.000405093
0.00148036
0.00247248
-0.000201877
-0.000677782
-0.0015375
-0.00268712
-0.00396025
-0.00521696
-0.00636501
-0.00733342
-0.00807849
-0.00857683
-0.00882115
-0.00880437
-0.00851312
-0.00793878
-0.00706623
-0.00588563
-0.00440826
-0.00269327
-0.000950518
-1.71535e-05
-0.00100079
-0.00155675
-0.00252981
-0.00375401
-0.00504894
-0.00627638
-0.00735614
-0.008239
-0.00890418
-0.00934364
-0.0095578
-0.00954865
-0.00931759
-0.00886354
-0.00817845
-0.00725076
-0.00607704
-0.0046847
-0.00326075
-0.0023762
-0.00202366
-0.00259889
-0.00357266
-0.00476135
-0.00600207
-0.00715571
-0.00815147
-0.00895287
-0.00954963
-0.00994101
-0.0101321
-0.0101299
-0.00994297
-0.00957774
-0.00903426
-0.00830426
-0.0073812
-0.00627744
-0.00518116
-0.00439504
-0.0030355
-0.00358768
-0.00450055
-0.00561123
-0.00676791
-0.00783481
-0.00874927
-0.00948128
-0.0100244
-0.0103808
-0.010557
-0.0105617
-0.010406
-0.0101021
-0.00965785
-0.00907123
-0.00833872
-0.00746976
-0.00665202
-0.00595872
-0.00386588
-0.00438057
-0.00521098
-0.00624178
-0.00731431
-0.00830323
-0.00915206
-0.00983306
-0.0103399
-0.0106745
-0.0108428
-0.0108528
-0.0107164
-0.0104491
-0.0100664
-0.00957464
-0.00897891
-0.0082754
-0.00765998
-0.00705419
-0.00443991
-0.00489338
-0.00565193
-0.00662044
-0.00762425
-0.00855626
-0.00936213
-0.0100132
-0.0105011
-0.0108257
-0.0109911
-0.011004
-0.0108756
-0.0106234
-0.0102689
-0.00982797
-0.00932896
-0.00871597
-0.00825463
-0.00768084
-0.00472143
-0.00511618
-0.00581707
-0.0067367
-0.00769273
-0.00859273
-0.00937963
-0.0100217
-0.0105068
-0.0108317
-0.0109982
-0.0110111
-0.010881
-0.0106259
-0.0102719
-0.00983975
-0.00940895
-0.00879825
-0.00848187
-0.0078519
-0.00470436
-0.00505894
-0.00571556
-0.00659314
-0.00752476
-0.00841475
-0.00920403
-0.00985618
-0.0103534
-0.0106884
-0.0108598
-0.0108705
-0.0107299
-0.0104566
-0.0100804
-0.00963701
-0.00920675
-0.00854248
-0.00840725
-0.00756243
-0.00444019
-0.00476894
-0.00538567
-0.00621386
-0.00713263
-0.00802824
-0.00883737
-0.00951648
-0.0100401
-0.0103952
-0.0105764
-0.0105839
-0.0104259
-0.0101218
-0.00970531
-0.00921871
-0.00873848
-0.00800814
-0.0080379
-0.00682455
-0.00401238
-0.00430073
-0.00486226
-0.00563213
-0.00653119
-0.00744138
-0.00828547
-0.00900782
-0.00957252
-0.00995885
-0.0101565
-0.0101629
-0.00998341
-0.00963871
-0.0091658
-0.00860719
-0.00804744
-0.00725882
-0.00731681
-0.00568072
-0.00353624
-0.00374953
-0.00420592
-0.00489055
-0.00575316
-0.00667915
-0.00756939
-0.00834944
-0.00896972
-0.00939973
-0.00962286
-0.00963246
-0.00943424
-0.00904353
-0.00850129
-0.00784559
-0.00717584
-0.00627526
-0.00623421
-0.00417123
-0.00311665
-0.00317398
-0.00345712
-0.00401923
-0.00483267
-0.00577555
-0.0067217
-0.00757348
-0.00826495
-0.00875378
-0.00901648
-0.00904127
-0.00883369
-0.00839894
-0.00777838
-0.00699533
-0.0061595
-0.00504626
-0.00475989
-0.00209063
-0.00284769
-0.00265464
-0.00268468
-0.00308835
-0.00384256
-0.00480298
-0.00581185
-0.00674678
-0.00752343
-0.00808691
-0.00840629
-0.00846358
-0.00826025
-0.00778823
-0.00707842
-0.00612057
-0.00501059
-0.00350557
-0.00261484
0.00142542
-0.00272248
-0.00216043
-0.00191225
-0.00215476
-0.00285232
-0.00383262
-0.0049087
-0.00593605
-0.00681174
-0.0074664
-0.00785896
-0.0079609
-0.00776614
-0.00725753
-0.00645612
-0.00527203
-0.00375364
-0.00149978
0.000846419
0.00823234
-0.00273874
-0.00174034
-0.00128532
-0.00140659
-0.00206003
-0.0030622
-0.00420387
-0.00532006
-0.00628931
-0.00703513
-0.00750605
-0.00767671
-0.00752137
-0.00701361
-0.00608628
-0.00463566
-0.00254511
0.00116286
0.00669544
0.0194835
-0.00335731
-0.000505274
5.51534e-05
-0.000253378
-0.000981156
-0.00203576
-0.00326396
-0.00448237
-0.00555085
-0.00637665
-0.00690711
-0.00710372
-0.00693899
-0.0063731
-0.00535372
-0.00369521
-0.000645067
0.00539776
0.0162852
0.0335411
)
;

boundaryField
{
    movingWall
    {
        type            zeroGradient;
    }
    fixedWalls
    {
        type            zeroGradient;
    }
    frontAndBack
    {
        type            empty;
    }
}


// ************************************************************************* //
