/*--------------------------------*- C++ -*----------------------------------*\
  =========                 |
  \\      /  F ield         | OpenFOAM: The Open Source CFD Toolbox
   \\    /   O peration     | Website:  https://openfoam.org
    \\  /    A nd           | Version:  13
     \\/     M anipulation  |
\*---------------------------------------------------------------------------*/
FoamFile
{
    format      ascii;
    class       volVectorField;
    location    "5";
    object      U;
}
// * * * * * * * * * * * * * * * * * * * * * * * * * * * * * * * * * * * * * //

dimensions      [0 1 -1 0 0 0 0];

internalField   nonuniform List<vector> 
1600
(
(0.00103699 -0.000920305 0)
(0.00547441 -0.00147906 0)
(0.00990775 -0.00131236 0)
(0.0127617 -0.000391328 0)
(0.0133854 0.00016986 0)
(0.0130392 5.35077e-05 0)
(0.0124584 -0.000495174 0)
(0.0122058 -0.000964819 0)
(0.0117924 -0.00105166 0)
(0.0107073 -0.000910208 0)
(0.00836248 -0.000989253 0)
(0.00307317 -0.000726679 0)
(-0.00662435 0.000756034 0)
(-0.0175745 0.00564647 0)
(-0.0370671 0.0115395 0)
(-0.0614493 0.0128819 0)
(-0.0822252 0.0119353 0)
(-0.101134 0.0106143 0)
(-0.116638 0.00901658 0)
(-0.129681 0.00748377 0)
(-0.139812 0.00595685 0)
(-0.147486 0.00449651 0)
(-0.152377 0.00304937 0)
(-0.154579 0.00169002 0)
(-0.154653 -0.000272438 0)
(-0.151027 -0.00192236 0)
(-0.144814 -0.00402089 0)
(-0.134552 -0.00589962 0)
(-0.121 -0.00803463 0)
(-0.103626 -0.0101802 0)
(-0.0832174 -0.0124205 0)
(-0.0598064 -0.0139327 0)
(-0.0347989 -0.0142521 0)
(-0.00902024 -0.012931 0)
(0.0118434 -0.0109556 0)
(0.027375 -0.00389464 0)
(0.0287593 0.00329812 0)
(0.0227033 0.00503228 0)
(0.010735 0.00398371 0)
(0.00222642 0.00274845 0)
(0.00193113 -0.00540793 0)
(0.00951367 -0.00832277 0)
(0.0146866 -0.00639377 0)
(0.0176685 -0.00283396 0)
(0.0181674 -1.32269e-05 0)
(0.0164737 0.00124548 0)
(0.0132308 0.00134867 0)
(0.00868533 0.00153233 0)
(0.00180336 0.0027386 0)
(-0.00901952 0.00522484 0)
(-0.0245595 0.00982655 0)
(-0.0482839 0.0175667 0)
(-0.0766831 0.0254135 0)
(-0.102698 0.0313692 0)
(-0.124272 0.0326263 0)
(-0.142601 0.0305761 0)
(-0.157872 0.0273006 0)
(-0.170756 0.0233673 0)
(-0.181009 0.0193744 0)
(-0.18918 0.0154213 0)
(-0.19502 0.0115867 0)
(-0.198872 0.00781524 0)
(-0.200554 0.00403838 0)
(-0.200203 0.000132959 0)
(-0.19768 -0.0041497 0)
(-0.192841 -0.0086771 0)
(-0.185501 -0.0135622 0)
(-0.175303 -0.0187622 0)
(-0.162026 -0.0243063 0)
(-0.145012 -0.0297875 0)
(-0.124534 -0.0348323 0)
(-0.101501 -0.039055 0)
(-0.0756699 -0.0403343 0)
(-0.0487048 -0.0376386 0)
(-0.0225868 -0.0298372 0)
(0.000243587 -0.0142539 0)
(0.0158734 0.00334047 0)
(0.0158884 0.0107953 0)
(0.00938378 0.0131565 0)
(0.00146918 0.00980883 0)
(0.00306795 -0.0124086 0)
(0.0104746 -0.0149667 0)
(0.0134541 -0.0102645 0)
(0.0142086 -0.00359318 0)
(0.012281 0.0015594 0)
(0.00786768 0.00463892 0)
(0.000182845 0.00691944 0)
(-0.0118207 0.0108855 0)
(-0.0295789 0.0182611 0)
(-0.0538978 0.0285388 0)
(-0.0815312 0.0390243 0)
(-0.107402 0.0458026 0)
(-0.130098 0.0490729 0)
(-0.148118 0.0494044 0)
(-0.162816 0.0469802 0)
(-0.17467 0.0428682 0)
(-0.184234 0.0377497 0)
(-0.191955 0.0321993 0)
(-0.198029 0.026553 0)
(-0.202703 0.0209932 0)
(-0.206117 0.0152373 0)
(-0.208145 0.00981963 0)
(-0.208758 0.00430012 0)
(-0.207902 -0.0012859 0)
(-0.205455 -0.00721788 0)
(-0.201487 -0.0135357 0)
(-0.195813 -0.0205845 0)
(-0.188245 -0.0284161 0)
(-0.178561 -0.0371585 0)
(-0.166476 -0.0463191 0)
(-0.151492 -0.0553107 0)
(-0.132995 -0.0626538 0)
(-0.111234 -0.0663899 0)
(-0.0867183 -0.0648376 0)
(-0.0602924 -0.0551997 0)
(-0.0328821 -0.0354237 0)
(-0.0062895 -0.00624143 0)
(0.0018966 0.0110061 0)
(0.00202542 0.0171941 0)
(-6.97143e-05 0.0133033 0)
(0.00364987 -0.0200835 0)
(0.00764529 -0.0189148 0)
(0.00774609 -0.0106231 0)
(0.00489688 -0.00107778 0)
(-0.000733504 0.00667379 0)
(-0.0101867 0.0135009 0)
(-0.0247212 0.0212589 0)
(-0.0448169 0.0314935 0)
(-0.0693953 0.0436218 0)
(-0.0960838 0.0549177 0)
(-0.120584 0.0626705 0)
(-0.139982 0.0658371 0)
(-0.155305 0.0655964 0)
(-0.166826 0.0626104 0)
(-0.176069 0.0577797 0)
(-0.183183 0.0518675 0)
(-0.188877 0.0453298 0)
(-0.193671 0.0381966 0)
(-0.19766 0.0310683 0)
(-0.20074 0.0240031 0)
(-0.202758 0.0173486 0)
(-0.203771 0.010595 0)
(-0.203804 0.00384276 0)
(-0.202911 -0.0031092 0)
(-0.201046 -0.0103234 0)
(-0.198094 -0.0180339 0)
(-0.193975 -0.0263962 0)
(-0.188544 -0.0355489 0)
(-0.181631 -0.0455492 0)
(-0.173105 -0.0566743 0)
(-0.16289 -0.0685475 0)
(-0.150657 -0.0802656 0)
(-0.135837 -0.08943 0)
(-0.116504 -0.0921837 0)
(-0.0920578 -0.0844447 0)
(-0.0634488 -0.063914 0)
(-0.0286799 -0.0272595 0)
(-0.00675067 0.00366511 0)
(-0.00175259 0.0153405 0)
(-7.88292e-05 0.0130655 0)
(0.00235723 -0.0240508 0)
(0.00264509 -0.018919 0)
(-0.00130179 -0.00663448 0)
(-0.00802816 0.00561983 0)
(-0.0182198 0.0171091 0)
(-0.0328914 0.0287587 0)
(-0.0526013 0.0417505 0)
(-0.076183 0.0557798 0)
(-0.10092 0.0685434 0)
(-0.123393 0.0772691 0)
(-0.140569 0.0805804 0)
(-0.153566 0.0800073 0)
(-0.163459 0.0766696 0)
(-0.170732 0.0712939 0)
(-0.176406 0.0646686 0)
(-0.180944 0.0570326 0)
(-0.184729 0.0490839 0)
(-0.187478 0.0412418 0)
(-0.189154 0.033485 0)
(-0.190011 0.0258231 0)
(-0.190319 0.0183225 0)
(-0.19012 0.0108607 0)
(-0.189492 0.00340091 0)
(-0.188421 -0.00425419 0)
(-0.186827 -0.0122524 0)
(-0.184648 -0.0208306 0)
(-0.181898 -0.0301902 0)
(-0.178491 -0.0405123 0)
(-0.174331 -0.0518767 0)
(-0.169244 -0.0641953 0)
(-0.162957 -0.0771633 0)
(-0.155043 -0.0900903 0)
(-0.145283 -0.102615 0)
(-0.132715 -0.11157 0)
(-0.114856 -0.111599 0)
(-0.0890324 -0.0964121 0)
(-0.0553766 -0.062989 0)
(-0.0165628 -0.0139742 0)
(-0.0018674 0.0101529 0)
(0.000800342 0.0124713 0)
(-0.000134217 -0.0247453 0)
(-0.00419447 -0.0142442 0)
(-0.0118437 0.00102413 0)
(-0.0223601 0.0166138 0)
(-0.0366436 0.0322054 0)
(-0.0550323 0.0482159 0)
(-0.0767613 0.0643852 0)
(-0.0995893 0.0789396 0)
(-0.120387 0.0893118 0)
(-0.136189 0.0935212 0)
(-0.147519 0.0929197 0)
(-0.156094 0.0893776 0)
(-0.162231 0.0836114 0)
(-0.166684 0.0764025 0)
(-0.169928 0.0682981 0)
(-0.171778 0.0598618 0)
(-0.172817 0.0512302 0)
(-0.173068 0.0426398 0)
(-0.173028 0.0342114 0)
(-0.172773 0.026051 0)
(-0.172184 0.0181358 0)
(-0.171356 0.0103421 0)
(-0.170283 0.00256968 0)
(-0.168977 -0.00535489 0)
(-0.167427 -0.0136068 0)
(-0.165665 -0.0224266 0)
(-0.163727 -0.0320388 0)
(-0.161623 -0.0426855 0)
(-0.159339 -0.0545667 0)
(-0.156799 -0.0677756 0)
(-0.153823 -0.0821451 0)
(-0.150027 -0.0970845 0)
(-0.144738 -0.111347 0)
(-0.136837 -0.123131 0)
(-0.124963 -0.1301 0)
(-0.106407 -0.125185 0)
(-0.0783372 -0.101004 0)
(-0.0373475 -0.0512555 0)
(-0.00477927 -0.00238676 0)
(0.00150689 0.0118326 0)
(-0.00302416 -0.0200664 0)
(-0.0110998 -0.00591576 0)
(-0.0219879 0.0122597 0)
(-0.0357612 0.0311071 0)
(-0.0529411 0.0502711 0)
(-0.0727932 0.0689536 0)
(-0.0937719 0.0857617 0)
(-0.113333 0.0983847 0)
(-0.128388 0.104476 0)
(-0.138673 0.104548 0)
(-0.146089 0.101102 0)
(-0.151243 0.0951963 0)
(-0.154496 0.0876005 0)
(-0.156354 0.0790311 0)
(-0.1571 0.069887 0)
(-0.15714 0.0605657 0)
(-0.156726 0.0513144 0)
(-0.156009 0.0423255 0)
(-0.155151 0.0336558 0)
(-0.154133 0.0252946 0)
(-0.152972 0.0171881 0)
(-0.1517 0.00923099 0)
(-0.15032 0.00130695 0)
(-0.148849 -0.00673391 0)
(-0.147308 -0.0150673 0)
(-0.145746 -0.0239049 0)
(-0.144222 -0.0334663 0)
(-0.142794 -0.0439888 0)
(-0.141509 -0.0557032 0)
(-0.140371 -0.0688007 0)
(-0.139309 -0.0833473 0)
(-0.138088 -0.0991296 0)
(-0.136127 -0.11542 0)
(-0.132331 -0.130522 0)
(-0.125056 -0.141637 0)
(-0.112383 -0.144855 0)
(-0.0920914 -0.132845 0)
(-0.0604655 -0.0954869 0)
(-0.0140705 -0.023627 0)
(0.00250124 0.0106983 0)
(-0.00565093 -0.0116472 0)
(-0.0167978 0.00607582 0)
(-0.030181 0.0263814 0)
(-0.0464958 0.0479473 0)
(-0.0649296 0.0692843 0)
(-0.084358 0.0886634 0)
(-0.102991 0.104097 0)
(-0.117965 0.113043 0)
(-0.127872 0.114703 0)
(-0.134566 0.111801 0)
(-0.139039 0.106042 0)
(-0.141589 0.0982537 0)
(-0.142687 0.0892171 0)
(-0.142786 0.0795523 0)
(-0.142201 0.0696566 0)
(-0.141254 0.059866 0)
(-0.140099 0.0503506 0)
(-0.138845 0.0412161 0)
(-0.137532 0.032453 0)
(-0.136164 0.0240208 0)
(-0.134754 0.0158466 0)
(-0.133304 0.00782798 0)
(-0.131816 -0.000147591 0)
(-0.130298 -0.00821747 0)
(-0.128779 -0.0165457 0)
(-0.12731 -0.0253189 0)
(-0.125965 -0.0347466 0)
(-0.124835 -0.0450615 0)
(-0.12401 -0.0565079 0)
(-0.123558 -0.0693141 0)
(-0.123477 -0.0836318 0)
(-0.123628 -0.0994318 0)
(-0.123593 -0.116331 0)
(-0.122428 -0.13334 0)
(-0.118606 -0.148316 0)
(-0.11033 -0.157371 0)
(-0.095883 -0.154659 0)
(-0.0721381 -0.131138 0)
(-0.0318103 -0.0657908 0)
(0.00051633 0.000129327 0)
(-0.00716327 0.000131173 0)
(-0.0208832 0.0208627 0)
(-0.0360505 0.0425847 0)
(-0.0535307 0.0656486 0)
(-0.0718834 0.0876116 0)
(-0.0898175 0.106201 0)
(-0.105241 0.118788 0)
(-0.115459 0.123132 0)
(-0.122093 0.121507 0)
(-0.126262 0.116228 0)
(-0.128585 0.108554 0)
(-0.129358 0.0992786 0)
(-0.129127 0.0891913 0)
(-0.128253 0.0788284 0)
(-0.127017 0.068534 0)
(-0.12563 0.058545 0)
(-0.124183 0.04895 0)
(-0.122741 0.0397887 0)
(-0.121312 0.0310185 0)
(-0.119901 0.0225793 0)
(-0.118493 0.014392 0)
(-0.11707 0.00635275 0)
(-0.115615 -0.00164449 0)
(-0.114129 -0.00971839 0)
(-0.112634 -0.018013 0)
(-0.111177 -0.0266848 0)
(-0.109835 -0.0359178 0)
(-0.108714 -0.0459287 0)
(-0.107938 -0.0569689 0)
(-0.107626 -0.069314 0)
(-0.10785 -0.0832227 0)
(-0.108567 -0.0988458 0)
(-0.109515 -0.116074 0)
(-0.109999 -0.134318 0)
(-0.108593 -0.152025 0)
(-0.103461 -0.165835 0)
(-0.093339 -0.16987 0)
(-0.0756968 -0.157486 0)
(-0.0474607 -0.110415 0)
(-0.00638572 -0.0144491 0)
(-0.00811638 0.0140221 0)
(-0.0233066 0.0371384 0)
(-0.0391833 0.0595846 0)
(-0.0568098 0.0830295 0)
(-0.0742659 0.104633 0)
(-0.0902465 0.121268 0)
(-0.101424 0.129369 0)
(-0.108728 0.13016 0)
(-0.113087 0.125899 0)
(-0.115508 0.118651 0)
(-0.116386 0.10943 0)
(-0.11612 0.0990635 0)
(-0.115208 0.0882927 0)
(-0.113916 0.0775424 0)
(-0.112468 0.067078 0)
(-0.110995 0.0570443 0)
(-0.109562 0.0474736 0)
(-0.108199 0.0383533 0)
(-0.106898 0.0296237 0)
(-0.105639 0.0212067 0)
(-0.104387 0.0130155 0)
(-0.103111 0.00495221 0)
(-0.101781 -0.00308558 0)
(-0.100391 -0.0111994 0)
(-0.0989503 -0.0195039 0)
(-0.0974954 -0.028128 0)
(-0.0960943 -0.0372214 0)
(-0.0948503 -0.0469694 0)
(-0.0938974 -0.0576039 0)
(-0.0933844 -0.0694104 0)
(-0.0934376 -0.0827121 0)
(-0.0940997 -0.0978116 0)
(-0.0952444 -0.114867 0)
(-0.0964302 -0.133708 0)
(-0.0965266 -0.15345 0)
(-0.0934933 -0.171453 0)
(-0.0864653 -0.180851 0)
(-0.0729191 -0.177167 0)
(-0.0512893 -0.143759 0)
(-0.0151553 -0.040445 0)
(-0.0085089 0.0288983 0)
(-0.0241517 0.0540181 0)
(-0.0398561 0.0764879 0)
(-0.0568801 0.0995782 0)
(-0.0730385 0.119917 0)
(-0.0860293 0.133025 0)
(-0.0939926 0.137166 0)
(-0.0995205 0.135092 0)
(-0.102265 0.128641 0)
(-0.103571 0.119769 0)
(-0.103595 0.109351 0)
(-0.102844 0.0982391 0)
(-0.101686 0.0870535 0)
(-0.10033 0.0761171 0)
(-0.0989485 0.0656199 0)
(-0.0976248 0.0556328 0)
(-0.0963998 0.0461459 0)
(-0.095272 0.0371067 0)
(-0.0942158 0.028435 0)
(-0.0931934 0.0200398 0)
(-0.0921605 0.0118313 0)
(-0.0910773 0.00371791 0)
(-0.0899163 -0.0043926 0)
(-0.0886603 -0.0125863 0)
(-0.0873096 -0.020954 0)
(-0.085889 -0.0295976 0)
(-0.0844497 -0.0386336 0)
(-0.0830785 -0.0482115 0)
(-0.0818995 -0.0585327 0)
(-0.0810688 -0.0698723 0)
(-0.0807466 -0.0825888 0)
(-0.0810428 -0.0970944 0)
(-0.0819387 -0.113754 0)
(-0.0831851 -0.132702 0)
(-0.0840105 -0.153611 0)
(-0.08256 -0.174869 0)
(-0.0771026 -0.189589 0)
(-0.0668069 -0.192483 0)
(-0.0478942 -0.171431 0)
(-0.0181444 -0.0871864 0)
(-0.0083144 0.0437783 0)
(-0.023594 0.0706456 0)
(-0.0384951 0.0926191 0)
(-0.0543323 0.114706 0)
(-0.0688786 0.133077 0)
(-0.0785769 0.141995 0)
(-0.0849113 0.143198 0)
(-0.0889275 0.138564 0)
(-0.0906577 0.130317 0)
(-0.0913022 0.120128 0)
(-0.0909223 0.108827 0)
(-0.0900409 0.0972205 0)
(-0.088912 0.0857991 0)
(-0.0877093 0.0748044 0)
(-0.0865578 0.0643576 0)
(-0.0855083 0.0544697 0)
(-0.0845735 0.04509 0)
(-0.0837307 0.0361352 0)
(-0.082942 0.0275097 0)
(-0.0821635 0.0191164 0)
(-0.0813502 0.0108672 0)
(-0.0804635 0.00267754 0)
(-0.0794778 -0.00553409 0)
(-0.0783724 -0.013841 0)
(-0.0771419 -0.0223163 0)
(-0.0757988 -0.0310393 0)
(-0.0743761 -0.0400983 0)
(-0.0729368 -0.0496066 0)
(-0.0715805 -0.0597259 0)
(-0.0704477 -0.0706989 0)
(-0.069709 -0.0828852 0)
(-0.0695221 -0.0967698 0)
(-0.0699546 -0.112895 0)
(-0.0708838 -0.131663 0)
(-0.0718472 -0.15312 0)
(-0.071419 -0.176518 0)
(-0.0670294 -0.19692 0)
(-0.0593703 -0.20439 0)
(-0.0429921 -0.19265 0)
(-0.0153506 -0.119467 0)
(-0.00766548 0.0580374 0)
(-0.021942 0.0864199 0)
(-0.0356321 0.107576 0)
(-0.0501075 0.128339 0)
(-0.062322 0.143697 0)
(-0.0696229 0.149172 0)
(-0.0749265 0.147816 0)
(-0.0777572 0.141065 0)
(-0.0789265 0.131352 0)
(-0.0792243 0.120125 0)
(-0.0787386 0.108185 0)
(-0.0779401 0.0962566 0)
(-0.0769991 0.0847189 0)
(-0.076061 0.0737438 0)
(-0.0752089 0.0633884 0)
(-0.0744665 0.0536129 0)
(-0.0738248 0.0443318 0)
(-0.0732503 0.0354408 0)
(-0.0727018 0.0268357 0)
(-0.0721377 0.0184195 0)
(-0.071518 0.0101077 0)
(-0.07081 0.00182332 0)
(-0.0699907 -0.00650638 0)
(-0.0690411 -0.0149455 0)
(-0.0679519 -0.023555 0)
(-0.0667261 -0.0323983 0)
(-0.0653813 -0.0415425 0)
(-0.0639569 -0.0510719 0)
(-0.0625235 -0.0611094 0)
(-0.0611929 -0.0718547 0)
(-0.0601215 -0.0836371 0)
(-0.0594895 -0.0969649 0)
(-0.059435 -0.112512 0)
(-0.0599443 -0.130949 0)
(-0.0607276 -0.152611 0)
(-0.0607574 -0.177154 0)
(-0.0575809 -0.202478 0)
(-0.0509152 -0.215284 0)
(-0.0376447 -0.211686 0)
(-0.0135358 -0.150869 0)
(-0.00666947 0.0710007 0)
(-0.0195697 0.100855 0)
(-0.0317582 0.121022 0)
(-0.0446766 0.140164 0)
(-0.0543487 0.152119 0)
(-0.0600817 0.155024 0)
(-0.0645506 0.151419 0)
(-0.0665617 0.142939 0)
(-0.0674534 0.132042 0)
(-0.0676136 0.120011 0)
(-0.0672023 0.107616 0)
(-0.0665967 0.0954849 0)
(-0.0659163 0.0839046 0)
(-0.0652762 0.0729861 0)
(-0.0647248 0.0627284 0)
(-0.0642661 0.0530506 0)
(-0.0638789 0.0438415 0)
(-0.0635279 0.0349846 0)
(-0.0631756 0.0263731 0)
(-0.0627873 0.0179131 0)
(-0.0623308 0.00952456 0)
(-0.0617801 0.00113681 0)
(-0.0611163 -0.00731617 0)
(-0.060323 -0.0158926 0)
(-0.059389 -0.0246463 0)
(-0.0583106 -0.0336301 0)
(-0.0570933 -0.0428969 0)
(-0.0557571 -0.0525091 0)
(-0.054346 -0.0625575 0)
(-0.0529396 -0.0731975 0)
(-0.0516664 -0.0847117 0)
(-0.0507024 -0.0975893 0)
(-0.0502294 -0.112576 0)
(-0.0503276 -0.13057 0)
(-0.0508224 -0.152257 0)
(-0.0510187 -0.177757 0)
(-0.0490112 -0.205519 0)
(-0.0430283 -0.224619 0)
(-0.0327207 -0.22628 0)
(-0.0111682 -0.174897 0)
(-0.00555002 0.0824093 0)
(-0.0167261 0.113635 0)
(-0.0272357 0.1327 0)
(-0.0383284 0.149943 0)
(-0.0457424 0.158908 0)
(-0.0506677 0.159863 0)
(-0.0541593 0.154281 0)
(-0.0556722 0.144418 0)
(-0.0564321 0.132581 0)
(-0.0565852 0.119937 0)
(-0.0563364 0.10722 0)
(-0.0559648 0.0949626 0)
(-0.0555578 0.083378 0)
(-0.0551988 0.0725222 0)
(-0.0549113 0.0623458 0)
(-0.0546874 0.0527372 0)
(-0.0545027 0.0435683 0)
(-0.0543261 0.0347174 0)
(-0.0541275 0.0260787 0)
(-0.0538805 0.0175622 0)
(-0.0535617 0.00909189 0)
(-0.0531512 0.000601445 0)
(-0.0526344 -0.00797031 0)
(-0.0519978 -0.0166787 0)
(-0.0512293 -0.0255741 0)
(-0.0503212 -0.0347034 0)
(-0.0492697 -0.0441107 0)
(-0.0480805 -0.0538437 0)
(-0.0467762 -0.0639678 0)
(-0.0454086 -0.0745992 0)
(-0.0440743 -0.0859673 0)
(-0.0429278 -0.0985131 0)
(-0.0421651 -0.112996 0)
(-0.0419381 -0.130481 0)
(-0.0421838 -0.151996 0)
(-0.0424541 -0.17805 0)
(-0.0411677 -0.207918 0)
(-0.0359146 -0.233067 0)
(-0.0285945 -0.239548 0)
(-0.00974463 -0.197198 0)
(-0.00421449 0.0916997 0)
(-0.0135807 0.124473 0)
(-0.0223655 0.142547 0)
(-0.0315623 0.157861 0)
(-0.0371491 0.164436 0)
(-0.0413651 0.163731 0)
(-0.0440113 0.156584 0)
(-0.0452319 0.145645 0)
(-0.045932 0.13308 0)
(-0.046148 0.119977 0)
(-0.0460886 0.107032 0)
(-0.0459485 0.094694 0)
(-0.0457906 0.0831173 0)
(-0.0456699 0.0723113 0)
(-0.0455942 0.0621891 0)
(-0.0455511 0.0526181 0)
(-0.0455189 0.0434611 0)
(-0.0454737 0.0345951 0)
(-0.0453941 0.0259166 0)
(-0.0452621 0.0173393 0)
(-0.045062 0.00879046 0)
(-0.0447798 0.000205954 0)
(-0.0444045 -0.00847284 0)
(-0.0439255 -0.0173 0)
(-0.0433311 -0.0263253 0)
(-0.0426103 -0.0355934 0)
(-0.0417535 -0.0451441 0)
(-0.0407559 -0.0550153 0)
(-0.0396241 -0.0652538 0)
(-0.0383878 -0.0759431 0)
(-0.0371167 -0.0872615 0)
(-0.0359391 -0.0995875 0)
(-0.0350471 -0.113646 0)
(-0.0346426 -0.130602 0)
(-0.0347682 -0.151815 0)
(-0.0350898 -0.178135 0)
(-0.0344013 -0.209137 0)
(-0.0305768 -0.239212 0)
(-0.0241742 -0.250521 0)
(-0.00826724 -0.21493 0)
(-0.00298654 0.0991063 0)
(-0.0103224 0.133401 0)
(-0.0174303 0.150652 0)
(-0.0246773 0.164031 0)
(-0.0287707 0.168818 0)
(-0.0322684 0.166784 0)
(-0.0342425 0.158451 0)
(-0.0352727 0.146705 0)
(-0.0359437 0.133592 0)
(-0.0362489 0.120153 0)
(-0.0363694 0.107047 0)
(-0.0364329 0.094652 0)
(-0.0364816 0.0830793 0)
(-0.0365478 0.072301 0)
(-0.0366312 0.0622041 0)
(-0.03672 0.052643 0)
(-0.0367982 0.0434766 0)
(-0.0368504 0.0345825 0)
(-0.0368637 0.0258597 0)
(-0.0368274 0.0172249 0)
(-0.0367325 0.00860677 0)
(-0.0365706 -5.74778e-05 0)
(-0.0363339 -0.00882576 0)
(-0.0360138 -0.0177527 0)
(-0.0355998 -0.0268894 0)
(-0.0350797 -0.0362811 0)
(-0.03444 -0.0459665 0)
(-0.0336682 -0.055978 0)
(-0.0327593 -0.0663486 0)
(-0.0317258 -0.0771349 0)
(-0.0306145 -0.0884689 0)
(-0.0295277 -0.100663 0)
(-0.0286414 -0.11438 0)
(-0.0281858 -0.130819 0)
(-0.0282991 -0.151606 0)
(-0.028723 -0.178027 0)
(-0.0284838 -0.210109 0)
(-0.0257787 -0.244113 0)
(-0.0212177 -0.260194 0)
(-0.00723027 -0.23135 0)
(-0.00151426 0.104068 0)
(-0.0070156 0.140236 0)
(-0.0124436 0.156921 0)
(-0.017844 0.168652 0)
(-0.0207217 0.172184 0)
(-0.0234641 0.169133 0)
(-0.0248906 0.159964 0)
(-0.0257656 0.147644 0)
(-0.0264121 0.134137 0)
(-0.0268031 0.12046 0)
(-0.0270744 0.107237 0)
(-0.0273021 0.0947953 0)
(-0.0275098 0.0832143 0)
(-0.0277133 0.0724398 0)
(-0.0279094 0.0623425 0)
(-0.0280897 0.0527702 0)
(-0.0282455 0.0435807 0)
(-0.0283696 0.0346531 0)
(-0.0284565 0.0258885 0)
(-0.0285022 0.0172048 0)
(-0.0285031 0.00853174 0)
(-0.0284556 -0.000193725 0)
(-0.0283549 -0.00902992 0)
(-0.0281949 -0.0180335 0)
(-0.0279664 -0.0272579 0)
(-0.0276571 -0.0367513 0)
(-0.0272515 -0.0465538 0)
(-0.0267323 -0.0566957 0)
(-0.0260865 -0.0672004 0)
(-0.0253138 -0.0781027 0)
(-0.024443 -0.0894936 0)
(-0.0235536 -0.10162 0)
(-0.0228003 -0.115066 0)
(-0.0224176 -0.13101 0)
(-0.0226087 -0.151274 0)
(-0.0232192 -0.177589 0)
(-0.0235236 -0.210548 0)
(-0.0219004 -0.247171 0)
(-0.0183923 -0.268025 0)
(-0.0062232 -0.244909 0)
(-0.000440045 0.107308 0)
(-0.00376619 0.145142 0)
(-0.00751167 0.161415 0)
(-0.0111648 0.171874 0)
(-0.0130352 0.174641 0)
(-0.0149635 0.170835 0)
(-0.0159284 0.161147 0)
(-0.0166495 0.148468 0)
(-0.0172593 0.134705 0)
(-0.017714 0.12087 0)
(-0.0180984 0.107564 0)
(-0.0184479 0.0950786 0)
(-0.0187694 0.083475 0)
(-0.0190674 0.0726828 0)
(-0.0193384 0.0625649 0)
(-0.0195789 0.0529672 0)
(-0.0197875 0.0437478 0)
(-0.0199642 0.0347876 0)
(-0.0201105 0.0259885 0)
(-0.020228 0.0172692 0)
(-0.0203179 0.00855898 0)
(-0.0203802 -0.000206089 0)
(-0.0204134 -0.0090861 0)
(-0.0204136 -0.01814 0)
(-0.0203735 -0.0274249 0)
(-0.0202819 -0.0369928 0)
(-0.0201225 -0.0468874 0)
(-0.0198761 -0.0571393 0)
(-0.0195245 -0.0677663 0)
(-0.0190582 -0.0787856 0)
(-0.0184919 -0.0902525 0)
(-0.0178859 -0.102354 0)
(-0.0173735 -0.115589 0)
(-0.0171789 -0.131069 0)
(-0.0175434 -0.15074 0)
(-0.0184153 -0.176812 0)
(-0.0192818 -0.210445 0)
(-0.0186238 -0.249408 0)
(-0.0164162 -0.27482 0)
(-0.00547649 -0.257546 0)
(0.00117014 0.107881 0)
(-0.000536402 0.148062 0)
(-0.00262606 0.164208 0)
(-0.00469593 0.173842 0)
(-0.00563921 0.176166 0)
(-0.00675458 0.171939 0)
(-0.00729736 0.162025 0)
(-0.00784567 0.149175 0)
(-0.00839558 0.135276 0)
(-0.00888209 0.121351 0)
(-0.00934014 0.107987 0)
(-0.00977167 0.0954599 0)
(-0.0101681 0.0838206 0)
(-0.0105258 0.0729937 0)
(-0.0108422 0.0628408 0)
(-0.0111191 0.0532092 0)
(-0.0113617 0.0439588 0)
(-0.0115769 0.0349714 0)
(-0.011772 0.0261492 0)
(-0.0119535 0.0174104 0)
(-0.0121266 0.0086832 0)
(-0.0122949 -9.80558e-05 0)
(-0.0124594 -0.00899586 0)
(-0.0126189 -0.0180719 0)
(-0.0127681 -0.0273873 0)
(-0.0128975 -0.0369986 0)
(-0.0129924 -0.0469541 0)
(-0.0130335 -0.0572873 0)
(-0.0130004 -0.068013 0)
(-0.0128772 -0.0791357 0)
(-0.0126676 -0.0906798 0)
(-0.0124158 -0.102777 0)
(-0.0122334 -0.115842 0)
(-0.0123263 -0.1309 0)
(-0.0129581 -0.149943 0)
(-0.0141772 -0.175608 0)
(-0.0156105 -0.209628 0)
(-0.0158222 -0.250416 0)
(-0.014643 -0.280207 0)
(-0.00476795 -0.268287 0)
(0.00221314 0.1066 0)
(0.00255435 0.149072 0)
(0.00212856 0.165414 0)
(0.00153484 0.174662 0)
(0.0015247 0.176834 0)
(0.00122032 0.172444 0)
(0.0010775 0.162549 0)
(0.000724761 0.149723 0)
(0.000267146 0.135812 0)
(-0.000214533 0.121863 0)
(-0.000708257 0.108469 0)
(-0.00118495 0.0959018 0)
(-0.00162262 0.0842173 0)
(-0.00201172 0.0733435 0)
(-0.0023509 0.0631466 0)
(-0.00264656 0.0534778 0)
(-0.00290968 0.0441994 0)
(-0.00315289 0.0351937 0)
(-0.00338852 0.0263624 0)
(-0.00362744 0.0176222 0)
(-0.0038787 0.00889981 0)
(-0.0041489 0.000127237 0)
(-0.00444205 -0.0087608 0)
(-0.00475914 -0.0178294 0)
(-0.0050971 -0.0271435 0)
(-0.00544874 -0.0367649 0)
(-0.00580192 -0.0467464 0)
(-0.00613982 -0.0571251 0)
(-0.00644335 -0.0679155 0)
(-0.00669295 -0.0791141 0)
(-0.00688387 -0.0907202 0)
(-0.00704627 -0.102817 0)
(-0.00726958 -0.115738 0)
(-0.00773649 -0.130406 0)
(-0.00871837 -0.148807 0)
(-0.0103591 -0.173963 0)
(-0.0123905 -0.208228 0)
(-0.0134084 -0.250657 0)
(-0.0133662 -0.284785 0)
(-0.004218 -0.278402 0)
(0.00333987 0.103397 0)
(0.00561171 0.148237 0)
(0.00675399 0.165181 0)
(0.00753636 0.174344 0)
(0.00849377 0.176525 0)
(0.00897006 0.172422 0)
(0.00925137 0.162761 0)
(0.00914232 0.150097 0)
(0.00881373 0.136282 0)
(0.00837593 0.12237 0)
(0.0078851 0.108972 0)
(0.00739639 0.0963721 0)
(0.00694463 0.0846385 0)
(0.00654553 0.0737107 0)
(0.00620021 0.063465 0)
(0.00589901 0.0537593 0)
(0.00562625 0.0444588 0)
(0.00536428 0.0354458 0)
(0.00509595 0.0266211 0)
(0.00480617 0.0178991 0)
(0.00448235 0.00920423 0)
(0.0041148 0.000465899 0)
(0.00369674 -0.00838397 0)
(0.00322498 -0.0174139 0)
(0.00269997 -0.0266929 0)
(0.00212573 -0.0362875 0)
(0.00151135 -0.0462558 0)
(0.000869967 -0.0566394 0)
(0.000216167 -0.0674539 0)
(-0.000429821 -0.078688 0)
(-0.00105803 -0.0903268 0)
(-0.00168784 -0.102412 0)
(-0.00238431 -0.115201 0)
(-0.00330362 -0.129509 0)
(-0.00471498 -0.147272 0)
(-0.00683624 -0.1718 0)
(-0.00949713 -0.206118 0)
(-0.0112039 -0.249872 0)
(-0.0122471 -0.288297 0)
(-0.00368201 -0.28722 0)
(0.00454751 0.0979105 0)
(0.00865121 0.145544 0)
(0.0112754 0.163516 0)
(0.0133329 0.172914 0)
(0.0152752 0.175329 0)
(0.0165114 0.171777 0)
(0.0172788 0.162634 0)
(0.0174603 0.150264 0)
(0.0173055 0.136648 0)
(0.0169577 0.122835 0)
(0.0165111 0.109464 0)
(0.0160426 0.0968418 0)
(0.0156018 0.0850598 0)
(0.0152123 0.0740767 0)
(0.0148766 0.0637824 0)
(0.0145825 0.0540431 0)
(0.0143108 0.0447278 0)
(0.0140391 0.0357198 0)
(0.013746 0.026918 0)
(0.0134125 0.0182346 0)
(0.0130225 0.00959095 0)
(0.0125632 0.000913343 0)
(0.0120252 -0.0078697 0)
(0.0114032 -0.01683 0)
(0.0106944 -0.0260399 0)
(0.00989897 -0.0355691 0)
(0.00902152 -0.04548 0)
(0.00806947 -0.0558187 0)
(0.00705383 -0.0666055 0)
(0.00598983 -0.0778263 0)
(0.004888 -0.0894567 0)
(0.00374285 -0.101506 0)
(0.00251172 -0.114159 0)
(0.00106568 -0.128124 0)
(-0.000851837 -0.145261 0)
(-0.00351252 -0.169105 0)
(-0.0068784 -0.203387 0)
(-0.00916978 -0.248288 0)
(-0.0114101 -0.291196 0)
(-0.00322482 -0.295604 0)
(0.00569928 0.0904864 0)
(0.0116169 0.14108 0)
(0.0156828 0.160497 0)
(0.0189442 0.170422 0)
(0.0219033 0.173235 0)
(0.0238023 0.170456 0)
(0.0251647 0.162137 0)
(0.0257116 0.150179 0)
(0.0257862 0.136858 0)
(0.0255836 0.123213 0)
(0.0252275 0.109906 0)
(0.0248171 0.0972805 0)
(0.0244181 0.0854591 0)
(0.0240614 0.0744246 0)
(0.0237521 0.0640846 0)
(0.0234781 0.054317 0)
(0.0232176 0.0449962 0)
(0.022945 0.0360064 0)
(0.0226352 0.0272449 0)
(0.0222653 0.0186212 0)
(0.0218161 0.010053 0)
(0.0212717 0.00146351 0)
(0.0206199 -0.00722271 0)
(0.0198527 -0.0160807 0)
(0.0189633 -0.0251852 0)
(0.0179479 -0.0346094 0)
(0.0168054 -0.0444184 0)
(0.015537 -0.0546612 0)
(0.014147 -0.0653598 0)
(0.0126433 -0.0765052 0)
(0.0110349 -0.0880683 0)
(0.00932797 -0.10004 0)
(0.00750144 -0.112546 0)
(0.00545348 -0.12618 0)
(0.00295775 -0.142693 0)
(-0.000301616 -0.165786 0)
(-0.00444206 -0.199944 0)
(-0.00722622 -0.245989 0)
(-0.0108701 -0.292995 0)
(-0.00250177 -0.303165 0)
(0.00673819 0.0811595 0)
(0.0144512 0.134842 0)
(0.0199324 0.156139 0)
(0.0243361 0.16688 0)
(0.0282728 0.170404 0)
(0.0308751 0.168341 0)
(0.0328668 0.161128 0)
(0.0338968 0.14977 0)
(0.0342784 0.136848 0)
(0.0342867 0.123444 0)
(0.0340802 0.11025 0)
(0.033778 0.0976525 0)
(0.0334589 0.0858087 0)
(0.0331631 0.0747328 0)
(0.0329011 0.0643555 0)
(0.0326629 0.0545687 0)
(0.0324261 0.0452539 0)
(0.0321631 0.0362971 0)
(0.031846 0.0275942 0)
(0.0314486 0.0190517 0)
(0.0309483 0.0105839 0)
(0.0303261 0.00211015 0)
(0.0295667 -0.0064484 0)
(0.0286585 -0.0151695 0)
(0.0275906 -0.0241297 0)
(0.0263541 -0.0334038 0)
(0.0249422 -0.0430594 0)
(0.023348 -0.053149 0)
(0.0215673 -0.0636986 0)
(0.0196007 -0.0747024 0)
(0.0174554 -0.0861306 0)
(0.0151412 -0.0979661 0)
(0.0126562 -0.110297 0)
(0.00994314 -0.123604 0)
(0.00679555 -0.139495 0)
(0.00286755 -0.161792 0)
(-0.00215572 -0.195771 0)
(-0.00539889 -0.243021 0)
(-0.0104933 -0.293856 0)
(-0.00186276 -0.310443 0)
(0.00758621 0.0699984 0)
(0.0170513 0.126929 0)
(0.0239248 0.150515 0)
(0.0294331 0.162344 0)
(0.0341749 0.166815 0)
(0.0377564 0.165487 0)
(0.0403357 0.159455 0)
(0.0419729 0.148937 0)
(0.0427676 0.136542 0)
(0.0430752 0.123459 0)
(0.0430949 0.110438 0)
(0.0429646 0.0979085 0)
(0.0427764 0.0860709 0)
(0.0425811 0.0749741 0)
(0.0423968 0.0645751 0)
(0.0422176 0.0547831 0)
(0.0420227 0.0454888 0)
(0.0417842 0.0365814 0)
(0.0414722 0.0279564 0)
(0.0410581 0.0195175 0)
(0.0405161 0.0111758 0)
(0.0398241 0.00284668 0)
(0.038963 -0.00555178 0)
(0.037917 -0.0140992 0)
(0.0366703 -0.0228731 0)
(0.0352088 -0.0319498 0)
(0.0335187 -0.0413971 0)
(0.0315852 -0.0512684 0)
(0.0293949 -0.0615946 0)
(0.0269391 -0.0723779 0)
(0.0242189 -0.0835971 0)
(0.0212492 -0.0952352 0)
(0.0180496 -0.107348 0)
(0.0146041 -0.120323 0)
(0.0107356 -0.135609 0)
(0.00606667 -0.157071 0)
(6.34226e-05 -0.190804 0)
(-0.00363093 -0.239281 0)
(-0.0102355 -0.294081 0)
(-0.000910421 -0.317163 0)
(0.00809782 0.0572141 0)
(0.0192616 0.117293 0)
(0.0274548 0.143562 0)
(0.0340666 0.156792 0)
(0.0396666 0.162313 0)
(0.0441576 0.161975 0)
(0.04748 0.157015 0)
(0.0498307 0.14755 0)
(0.0511805 0.135828 0)
(0.051912 0.123166 0)
(0.0522629 0.110389 0)
(0.0523925 0.0979827 0)
(0.0524075 0.0861933 0)
(0.0523706 0.0751078 0)
(0.0523088 0.0647124 0)
(0.0522232 0.0549362 0)
(0.0520969 0.0456819 0)
(0.0519038 0.0368439 0)
(0.0516138 0.0283184 0)
(0.0511966 0.0200076 0)
(0.0506238 0.0118196 0)
(0.0498705 0.00366631 0)
(0.0489133 -0.00453663 0)
(0.0477313 -0.0128697 0)
(0.0463037 -0.0214116 0)
(0.0446102 -0.0302387 0)
(0.0426294 -0.0394182 0)
(0.0403381 -0.0490034 0)
(0.0377125 -0.0590282 0)
(0.0347344 -0.0695037 0)
(0.0313994 -0.0804231 0)
(0.0277247 -0.0917852 0)
(0.0237444 -0.103631 0)
(0.0194841 -0.116258 0)
(0.0148219 -0.130962 0)
(0.009329 -0.151602 0)
(0.00229039 -0.185067 0)
(-0.00177597 -0.234733 0)
(-0.00983099 -0.293293 0)
(-5.8145e-06 -0.323689 0)
(0.00799664 0.0431366 0)
(0.0207898 0.106165 0)
(0.0302861 0.13537 0)
(0.0380284 0.150247 0)
(0.0445443 0.156881 0)
(0.0499164 0.157638 0)
(0.0541537 0.153745 0)
(0.0573234 0.145456 0)
(0.0593948 0.134557 0)
(0.060709 0.122436 0)
(0.0615321 0.109996 0)
(0.0620424 0.0977853 0)
(0.0623612 0.0861026 0)
(0.0625643 0.0750753 0)
(0.0626903 0.0647214 0)
(0.0627491 0.0549926 0)
(0.0627307 0.045806 0)
(0.0626132 0.0370634 0)
(0.0623685 0.0286638 0)
(0.061966 0.0205092 0)
(0.0613757 0.0125059 0)
(0.0605701 0.00456268 0)
(0.0595216 -0.00340523 0)
(0.0582033 -0.0114789 0)
(0.0565895 -0.019738 0)
(0.0546527 -0.0282575 0)
(0.0523632 -0.0371024 0)
(0.0496888 -0.0463256 0)
(0.0465957 -0.0559638 0)
(0.0430566 -0.0660392 0)
(0.039061 -0.0765637 0)
(0.0346276 -0.087559 0)
(0.0297951 -0.0990728 0)
(0.0246485 -0.111328 0)
(0.0190872 -0.125457 0)
(0.0126532 -0.145288 0)
(0.00459047 -0.178488 0)
(0.00024642 -0.229528 0)
(-0.0100363 -0.29161 0)
(0.00109191 -0.329833 0)
(0.00667962 0.0286721 0)
(0.0212148 0.0933417 0)
(0.0320567 0.125691 0)
(0.0410277 0.142617 0)
(0.0485631 0.150544 0)
(0.0548695 0.152357 0)
(0.0600894 0.149557 0)
(0.0642308 0.142488 0)
(0.0672207 0.132549 0)
(0.0693172 0.1211 0)
(0.070793 0.10911 0)
(0.0718427 0.0971913 0)
(0.072601 0.0856954 0)
(0.073157 0.0747931 0)
(0.0735621 0.064536 0)
(0.073838 0.054901 0)
(0.0739842 0.0458216 0)
(0.0739856 0.03721 0)
(0.0738188 0.0289702 0)
(0.0734545 0.0210061 0)
(0.0728638 0.013224 0)
(0.0720154 0.00552974 0)
(0.0708788 -0.00215811 0)
(0.0694218 -0.00992165 0)
(0.0676126 -0.0178411 0)
(0.0654164 -0.0259878 0)
(0.0627944 -0.0344241 0)
(0.0597052 -0.0432021 0)
(0.0561061 -0.0523615 0)
(0.0519618 -0.0619375 0)
(0.0472562 -0.0719643 0)
(0.0420115 -0.0824939 0)
(0.0362629 -0.0935932 0)
(0.0301472 -0.105446 0)
(0.02358 -0.119004 0)
(0.0161527 -0.138018 0)
(0.00698102 -0.170835 0)
(0.00251152 -0.223258 0)
(-0.0101754 -0.28932 0)
(0.00237191 -0.335728 0)
(0.00345041 0.0155695 0)
(0.0199992 0.0795726 0)
(0.0324344 0.114603 0)
(0.0427625 0.133777 0)
(0.0514334 0.143209 0)
(0.0587503 0.146076 0)
(0.0650262 0.144312 0)
(0.0702866 0.138448 0)
(0.0744034 0.129585 0)
(0.0775195 0.118953 0)
(0.0798693 0.107547 0)
(0.081656 0.0960387 0)
(0.0830267 0.084834 0)
(0.0840831 0.0741473 0)
(0.0848899 0.0640645 0)
(0.0854822 0.0545887 0)
(0.0858716 0.0456729 0)
(0.0860525 0.0372418 0)
(0.0860088 0.0292069 0)
(0.085715 0.0214777 0)
(0.0851454 0.0139601 0)
(0.0842667 0.00656126 0)
(0.0830447 -0.000795754 0)
(0.0814437 -0.00819079 0)
(0.079427 -0.0157055 0)
(0.0769509 -0.0234063 0)
(0.0739682 -0.0313521 0)