/*--------------------------------*- C++ -*----------------------------------*\
  =========                 |
  \\      /  F ield         | OpenFOAM: The Open Source CFD Toolbox
   \\    /   O peration     | Website:  https://openfoam.org
    \\  /    A nd           | Version:  13
     \\/     M anipulation  |
\*---------------------------------------------------------------------------*/
FoamFile
{
    format      ascii;
    class       volScalarField;
    location    "8";
    object      k;
}
// * * * * * * * * * * * * * * * * * * * * * * * * * * * * * * * * * * * * * //

dimensions      [0 2 -2 0 0 0 0];

internalField   nonuniform List<scalar> 
1600
(
2.18089e-06
7.45552e-06
1.45373e-05
1.44916e-05
1.3249e-05
1.35682e-05
1.75652e-05
3.00018e-05
4.5247e-05
6.61926e-05
0.000101571
0.000125582
0.000136904
0.0001513
0.000174516
0.00020474
0.000232648
0.000264941
0.00029593
0.000331615
0.00036802
0.00040982
0.000455009
0.000507817
0.000569321
0.000623701
0.000679464
0.000726773
0.000767893
0.000790075
0.00079888
0.00078272
0.000719176
0.000611157
0.000459861
0.000272519
0.000132515
5.56598e-05
1.77645e-05
3.693e-06
1.05509e-05
4.80956e-05
9.2222e-05
9.84627e-05
9.57158e-05
0.000102458
0.000145078
0.000248791
0.000348812
0.000482046
0.000690291
0.00078876
0.000807927
0.000808449
0.000807806
0.00084458
0.000863073
0.000906732
0.000939169
0.000988752
0.00103525
0.00109211
0.00114776
0.00120512
0.00125807
0.00132487
0.00138928
0.00145872
0.00151704
0.00155135
0.00156349
0.00152785
0.00142006
0.00122535
0.000964862
0.000593272
0.000268736
0.000112357
3.96612e-05
6.3322e-06
3.19267e-05
0.000126269
0.000198236
0.000211512
0.000230641
0.000303953
0.00050351
0.000816773
0.00106413
0.00114996
0.00108658
0.000975341
0.000921879
0.000902789
0.000897819
0.000903121
0.000913863
0.000932419
0.00095251
0.000980127
0.00100543
0.00103327
0.0010622
0.00109503
0.00113034
0.00116889
0.00120856
0.00124996
0.00129014
0.00132803
0.00134908
0.00135714
0.0013402
0.00122955
0.00104422
0.00066946
0.000249132
9.21074e-05
3.55798e-05
5.19091e-06
7.34934e-05
0.000260272
0.000359482
0.000400496
0.000500232
0.000736094
0.00107763
0.0012546
0.00127804
0.00113292
0.00102314
0.000938267
0.000901929
0.000887337
0.000882441
0.000882578
0.0008893
0.000899336
0.000911011
0.000925556
0.000941861
0.000962419
0.000982994
0.00100631
0.00103029
0.00105603
0.00108278
0.00111044
0.00113736
0.00116175
0.001179
0.00118704
0.00118871
0.00116561
0.00110468
0.000927664
0.000401619
9.6775e-05
2.6508e-05
3.57536e-06
0.000138909
0.000455573
0.000590561
0.000684685
0.000882771
0.00118134
0.00132761
0.00133537
0.00120119
0.00101341
0.000920267
0.00087554
0.000855063
0.000846081
0.000843209
0.000846605
0.000859058
0.000872349
0.000889242
0.000906435
0.000924522
0.000942453
0.000960558
0.000979591
0.00100004
0.0010227
0.00104773
0.00107463
0.00110118
0.00112288
0.00113775
0.00114479
0.00114686
0.00113706
0.00110806
0.00103595
0.000778893
0.000214706
3.65456e-05
4.11975e-06
0.000232381
0.000697743
0.000869109
0.00100331
0.00121918
0.00134408
0.0013545
0.00124193
0.00101079
0.000897926
0.000846003
0.000822454
0.000813289
0.000811277
0.00081873
0.000832408
0.000848777
0.000864865
0.000881797
0.000897928
0.000914117
0.000930042
0.000946846
0.000964948
0.00098579
0.00100991
0.00103796
0.00106989
0.00110481
0.00114121
0.00116067
0.00116583
0.00116339
0.00114792
0.00111466
0.00105979
0.000923133
0.00044522
7.92552e-05
7.71073e-06
0.000350491
0.000947181
0.00114779
0.0012642
0.00135142
0.00136386
0.00127064
0.0010299
0.00088513
0.000822752
0.000796163
0.000786598
0.000784908
0.000793623
0.000807124
0.000821129
0.000834571
0.000846884
0.000858142
0.000867746
0.000877338
0.000888559
0.000902902
0.000921379
0.000944688
0.000973979
0.00100984
0.00105237
0.00110055
0.00115154
0.00120423
0.001242
0.00125072
0.00124206
0.00119747
0.0011082
0.000975377
0.0007002
0.000161257
1.74526e-05
0.000476667
0.00119349
0.00136793
0.00140434
0.00139855
0.00130166
0.00108171
0.00089016
0.000808581
0.00077565
0.000764107
0.000761905
0.00076848
0.000780106
0.000789666
0.000797195
0.000801431
0.000803407
0.000804283
0.000805808
0.000810072
0.000817647
0.00082992
0.000847755
0.000872415
0.000905078
0.000946918
0.000998852
0.001061
0.0011316
0.00120538
0.00127368
0.00131753
0.00132545
0.00131316
0.00123818
0.00107155
0.000800687
0.000276523
4.37645e-05
0.000584936
0.00139159
0.00152603
0.00149399
0.00136396
0.00116145
0.000922255
0.000808156
0.000761751
0.00074513
0.00074104
0.000743085
0.00075056
0.000754132
0.000755046
0.000752033
0.000745877
0.000739164
0.000733587
0.000731018
0.000730531
0.000735373
0.000745853
0.000762781
0.000787351
0.000820773
0.000864589
0.000920537
0.000990327
0.00107475
0.0011718
0.00127335
0.0013569
0.00139528
0.00139834
0.00135929
0.0012245
0.000954279
0.000503284
0.000118812
0.000664246
0.00152514
0.00162662
0.00149271
0.00127759
0.0010053
0.000830914
0.000758321
0.000730698
0.000721903
0.000720202
0.000721613
0.000722203
0.000717125
0.000707948
0.000695543
0.000682163
0.000669907
0.000660046
0.000654736
0.000652823
0.000655155
0.000664844
0.000680804
0.000704644
0.000737309
0.000780444
0.000836089
0.000906891
0.000995726
0.00110451
0.00123125
0.00136462
0.00145516
0.00148197
0.0014652
0.00134875
0.00107356
0.000613211
0.000212068
0.000721096
0.00161378
0.00168754
0.00146487
0.00115778
0.000896554
0.000774537
0.000724984
0.000706372
0.000699824
0.000697264
0.000694162
0.000686085
0.000672165
0.000655042
0.000636488
0.000618805
0.000603502
0.000591574
0.000584919
0.00058237
0.000583275
0.000592357
0.000607459
0.000630354
0.000661829
0.000703444
0.000757208
0.000825997
0.000913619
0.00102435
0.00116082
0.00131894
0.00147844
0.00156027
0.00157239
0.00149912
0.00123786
0.000756617
0.000302385
0.000751814
0.00164694
0.00168924
0.00140398
0.00104656
0.000828571
0.000736031
0.000698667
0.000683808
0.000677212
0.000671509
0.000661579
0.000645508
0.000624856
0.000602531
0.0005805
0.000560601
0.000543866
0.000531004
0.000523579
0.000520636
0.000520618
0.00052884
0.000543047
0.000564836
0.00059501
0.000634988
0.000686638
0.000752745
0.000837433
0.000946445
0.00108633
0.00126065
0.00146072
0.00161139
0.00165585
0.00161627
0.00137023
0.000874479
0.000375263
0.000750819
0.00164326
0.0016726
0.00132728
0.000959289
0.000781102
0.000706283
0.000675375
0.000661913
0.000653889
0.000643264
0.000626684
0.000604502
0.000579389
0.000554072
0.000530308
0.000509406
0.000492047
0.000478709
0.00047051
0.000467
0.000466576
0.000473497
0.000486687
0.000507227
0.000536029
0.000574398
0.000624032
0.00068741
0.00076836
0.000872797
0.00100901
0.00118568
0.00140394
0.00163298
0.00174135
0.0017424
0.00152463
0.000994403
0.000443525
0.000741389
0.00162354
0.00163274
0.00124688
0.000898969
0.000745338
0.00068125
0.000653869
0.00064092
0.000630022
0.000614289
0.000592311
0.000565943
0.000538153
0.000511297
0.000486774
0.000465466
0.000447812
0.000434129
0.000425164
0.000421078
0.000420257
0.000425784
0.000437802
0.000456983
0.000484337
0.000521143
0.000569012
0.000630195
0.000708167
0.000808633
0.000940703
0.00111682
0.00134739
0.00162353
0.00181168
0.00184528
0.00166336
0.00111384
0.000506635
0.000718799
0.00158019
0.00157327
0.00117629
0.000854242
0.000716564
0.000659264
0.000634122
0.000620851
0.000606592
0.000586419
0.000560483
0.000531453
0.000502191
0.000474643
0.000449869
0.000428446
0.000410659
0.000396725
0.000387072
0.000382428
0.000381212
0.000385419
0.000396145
0.000413858
0.000439624
0.000474755
0.000520849
0.000579987
0.000655239
0.000751686
0.000878073
0.00104827
0.00127885
0.00157502
0.00185523
0.00194824
0.00180776
0.001234
0.000568307
0.00067993
0.00152489
0.00150687
0.00111764
0.000819388
0.000692658
0.000639949
0.000616482
0.000602082
0.000584668
0.000561004
0.000532355
0.000501735
0.000471748
0.000443984
0.000419231
0.000397867
0.000380076
0.000366011
0.000355859
0.000350695
0.000349114
0.000352171
0.000361561
0.00037772
0.000401755
0.000435056
0.000479295
0.000536532
0.000609599
0.000703047
0.000825057
0.000990075
0.00121896
0.00152632
0.00187271
0.00203439
0.00194427
0.00135747
0.000628205
0.000635402
0.00146184
0.00143861
0.00106984
0.000791836
0.000672672
0.000623224
0.000600883
0.000585079
0.000565049
0.000538838
0.000508435
0.000476934
0.000446673
0.000418962
0.000394394
0.00037322
0.00035555
0.000341478
0.000331133
0.000325474
0.000323559
0.000325676
0.000333761
0.000348328
0.000370515
0.000401804
0.000443994
0.000499225
0.000570196
0.000660919
0.000778598
0.000937171
0.00116075
0.00147672
0.0018749
0.00211548
0.0020781
0.00148119
0.000687718
0.000582398
0.00140044
0.00137335
0.00103175
0.000770487
0.000656336
0.000609054
0.000587325
0.000570187
0.000548194
0.000520261
0.000488809
0.000456894
0.000426634
0.000399139
0.000374873
0.000353999
0.000336573
0.00032264
0.000312281
0.000306216
0.000303994
0.000305378
0.000312259
0.000325263
0.000345555
0.000374705
0.000414675
0.000467787
0.000536804
0.000625426
0.000739901
0.000892842
0.00110878
0.00142333
0.00184941
0.0021849
0.00220635
0.00161309
0.000746774
0.000530577
0.00133663
0.00131273
0.00100245
0.000754728
0.00064304
0.000597104
0.000575704
0.000557549
0.000534258
0.000505304
0.000473339
0.000441331
0.000411243
0.000384063
0.000360173
0.000339679
0.000322591
0.000308906
0.000298656
0.000292286
0.000289758
0.000290585
0.000296399
0.000307938
0.000326382
0.000353351
0.000390968
0.000441794
0.000508787
0.000595537
0.000707462
0.000855644
0.00106405
0.00137402
0.00181705
0.00224563
0.00233054
0.00174602
0.000805412
0.000469895
0.00128233
0.00125874
0.000980285
0.000744158
0.000633301
0.000587515
0.000565977
0.00054714
0.000523178
0.000493808
0.000461735
0.000429858
0.000400061
0.000373264
0.000349797
0.000329728
0.000313028
0.000299655
0.000289595
0.000283037
0.000280177
0.000280564
0.000285455
0.000295687
0.000312427
0.000337283
0.000372519
0.00042096
0.00048587
0.000570978
0.000681052
0.00082545
0.00102641
0.00132866
0.00178018
0.00228779
0.00245212
0.00188733
0.000863986
0.000420542
0.00122361
0.00121252
0.000964838
0.000739463
0.000625908
0.000579573
0.000557859
0.000538776
0.00051473
0.000485473
0.000453691
0.000422184
0.000392767
0.000366352
0.0003433
0.000323656
0.000307355
0.00029431
0.000284469
0.000277877
0.000274709
0.000274942
0.000279133
0.000288201
0.000303263
0.000326024
0.000358965
0.000405003
0.000467744
0.00055131
0.000660065
0.000801666
0.000995999
0.00128961
0.00174584
0.0023178
0.00257111
0.0020312
0.000921806
0.000378427
0.00116312
0.00116857
0.000957823
0.000741011
0.000623769
0.00057411
0.000551281
0.000532185
0.000508597
0.000479975
0.000448736
0.000417644
0.000388674
0.000362857
0.000340359
0.000321198
0.000305283
0.000292505
0.000282796
0.000276178
0.00027281
0.000273007
0.00027669
0.000284937
0.000298857
0.000319938
0.000350459
0.000393719
0.000454264
0.000536369
0.000644247
0.000783921
0.00097221
0.0012557
0.00171319
0.00233364
0.00268735
0.00218299
0.00097944
0.000341101
0.00110371
0.0011295
0.000958433
0.000746675
0.000625374
0.000570462
0.00054618
0.000527119
0.00050437
0.000476781
0.000446718
0.000416822
0.000388687
0.000363154
0.000340854
0.000321862
0.000306099
0.000293455
0.000283849
0.000277275
0.000273856
0.000273908
0.000276885
0.000284356
0.00029756
0.000317701
0.000346633
0.000387889
0.000446057
0.000526366
0.000633698
0.000772527
0.000955151
0.0012277
0.00168245
0.00234139
0.00280139
0.00233877
0.00103582
0.000307052
0.00104616
0.00109442
0.000961484
0.000759293
0.000630643
0.000570808
0.000542434
0.000523363
0.000501804
0.000475801
0.000447141
0.000417897
0.000390212
0.000365148
0.000343209
0.000324523
0.000309038
0.000296665
0.0002873
0.000280909
0.000277614
0.000277713
0.000280336
0.000287072
0.000299288
0.000318008
0.000345745
0.000385827
0.00044252
0.000521603
0.000628637
0.000767211
0.000945942
0.00120536
0.00165242
0.00234405
0.0029116
0.00250102
0.00109136
0.000275182
0.000990371
0.00106419
0.000968844
0.00077628
0.000641745
0.000573422
0.000541472
0.000520601
0.000500089
0.000476139
0.000448765
0.000420771
0.000394006
0.000369689
0.000348323
0.000330093
0.000314984
0.000302885
0.000293707
0.000287427
0.000284195
0.000284384
0.000286892
0.000293279
0.000305002
0.000322903
0.000349114
0.000387019
0.000441944
0.000520221
0.000627084
0.000765669
0.000942386
0.00118908
0.0016247
0.00234307
0.00301878
0.00266757
0.00114495
0.000244869
0.000936147
0.00103772
0.000974578
0.000803543
0.000660262
0.000580149
0.000542698
0.000520239
0.000500145
0.000477307
0.00045208
0.000425799
0.000400255
0.000376764
0.000355991
0.000338204
0.000323443
0.00031164
0.000302715
0.000296634
0.000293609
0.000293954
0.000296531
0.000302856
0.000314351
0.000331781
0.000357206
0.000393952
0.000447158
0.000523774
0.000630334
0.000769261
0.000942374
0.00117993
0.00159886
0.00233455
0.00311995
0.0028397
0.00119682
0.000215331
0.00088152
0.00101483
0.000975928
0.000836461
0.000687442
0.000594061
0.000547024
0.000521373
0.00050095
0.000479662
0.00045643
0.000432069
0.000408065
0.000385699
0.000365745
0.000348575
0.000334306
0.000322922
0.000314375
0.000308609
0.000305989
0.000306551
0.00030935
0.00031587
0.000327363
0.000344587
0.000369528
0.000405454
0.000457601
0.000533313
0.000639682
0.000779188
0.000950712
0.00117625
0.00157606
0.00232636
0.00321635
0.00301209
0.00124589
0.000186276
0.000825761
0.000991215
0.000973992
0.000872133
0.000721962
0.000616696
0.0005568
0.000525192
0.000503246
0.00048288
0.000461499
0.000439185
0.000417006
0.000396098
0.000377273
0.000360988
0.000347442
0.000336679
0.000328704
0.000323407
0.000321449
0.000322296
0.000325452
0.000332409
0.000344101
0.00036136
0.000386118
0.000421609
0.00047303
0.000547906
0.000653786
0.000793239
0.000962551
0.00117567
0.0015543
0.00230662
0.00330829
0.00318567
0.00129253
0.000156913
0.000765162
0.000970121
0.00096836
0.000905812
0.0007658
0.00064932
0.000575909
0.000534138
0.00050839
0.000487577
0.000467405
0.000446957
0.000426717
0.000407545
0.000390181
0.000375113
0.000362597
0.000352729
0.000345585
0.000340953
0.000339954
0.000341161
0.00034481
0.000352429
0.000364494
0.000381996
0.000406842
0.000442257
0.000493344
0.000567618
0.000672723
0.000811464
0.000978443
0.00118003
0.00153598
0.00227978
0.00339228
0.003352
0.00133572
0.000130395
0.000707956
0.000946117
0.000960553
0.000924445
0.000816443
0.000694006
0.000606836
0.000552474
0.000519081
0.000495455
0.000475117
0.000455826
0.000437268
0.000419865
0.000404162
0.000390586
0.000379399
0.000370725
0.000364659
0.00036102
0.000361113
0.000362805
0.000367165
0.000375609
0.000388189
0.00040612
0.000431295
0.000466966
0.000518039
0.000591808
0.000695589
0.000832426
0.000996025
0.00118598
0.00151807
0.00224515
0.00346324
0.00350795
0.00137633
0.000108579
0.000647461
0.000930997
0.000953515
0.00093326
0.000862872
0.00074812
0.000652031
0.000584527
0.00054033
0.000510213
0.000487077
0.000467284
0.000449468
0.000433388
0.000419213
0.000407191
0.00039747
0.000390236
0.000385311
0.000383309
0.000384005
0.000386523
0.00039203
0.000401227
0.000414454
0.000432991
0.000458713
0.000494919
0.000546169
0.000619361
0.000721006
0.000854404
0.00101331
0.00119199
0.00150166
0.00220741
0.00351801
0.00364235
0.0014139
8.86613e-05
0.000568147
0.000924374
0.000953167
0.000940037
0.000896949
0.0008055
0.000711246
0.000634682
0.000578704
0.000538806
0.000509247
0.000485942
0.000466662
0.000450409
0.000436797
0.000425767
0.000417159
0.000411261
0.000407304
0.000407054
0.000408304
0.000411645
0.000418358
0.000428359
0.000442316
0.000461608
0.000488032
0.000524939
0.000576316
0.000648552
0.000746935
0.000875128
0.00102789
0.00119641
0.00148907
0.00217426
0.00355511
0.00374438
0.00145039
6.99914e-05
0.000471368
0.000905774
0.000954635
0.000948212
0.00092314
0.000861948
0.000779695
0.000702993
0.000639103
0.000588927
0.000550102
0.00051977
0.000495725
0.000476557
0.000461361
0.000449701
0.000441033
0.000435472
0.000432194
0.000432526
0.000434339
0.00043851
0.000445909
0.000456596
0.000471223
0.000491286
0.000518392
0.000555918
0.000607006
0.000677562
0.000771414
0.000892894
0.0010389
0.00120084
0.00148409
0.00215882
0.00357937
0.00379382
0.00148739
6.02358e-05
0.000390669
0.000857577
0.000950127
0.000952117
0.000943927
0.000916467
0.000858255
0.000790498
0.000726398
0.000669861
0.000622011
0.000582453
0.000550241
0.000524463
0.000504151
0.000488773
0.000477351
0.000470048
0.000465208
0.000464958
0.000466343
0.000470006
0.000477232
0.000488011
0.000502846
0.00052333
0.000550732
0.000588417
0.000638489
0.000706575
0.000795203
0.000909884
0.00105117
0.00121505
0.00149651
0.00215716
0.00360386
0.00381159
0.00151163
6.2033e-05
0.000361419
0.000761063
0.000926017
0.000957998
0.000966269
0.000961301
0.000940933
0.000897031
0.000841675
0.000786022
0.000733684
0.000686654
0.000645755
0.000611246
0.000582801
0.000560132
0.000542506
0.000529573
0.000520757
0.000515276
0.00051477
0.000516455
0.000521098
0.000530533
0.000544583
0.000564789
0.000591964
0.000629422
0.000678361
0.000744457
0.000829872
0.000941725
0.00108678
0.00126889
0.00157703
0.00224175
0.0036483
0.00379379
0.00152031
8.76247e-05
0.000383285
0.000671175
0.000871604
0.000968867
0.00101272
0.00103436
0.00103429
0.00102282
0.000993478
0.000947861
0.000897964
0.000847924
0.000800494
0.000757335
0.000719092
0.000686323
0.000658708
0.000636611
0.000619125
0.000607201
0.000598768
0.000597691
0.000599951
0.000606236
0.000619029
0.000639395
0.000667597
0.000706972
0.000758638
0.000828583
0.000920657
0.00104334
0.00121306
0.00143837
0.00180782
0.0024693
0.00371657
0.00368835
0.00151272
0.000141143
0.000477076
0.000687566
0.000892716
0.00102874
0.00112317
0.00118426
0.00121083
0.00121528
0.00120574
0.00118017
0.00113698
0.00108687
0.0010341
0.000982398
0.00093363
0.00089026
0.000851514
0.000821125
0.000796577
0.00078078
0.000769328
0.000767758
0.000770957
0.000779803
0.000797847
0.000825805
0.000864709
0.00091886
0.00098979
0.00108513
0.00121083
0.00137731
0.00160743
0.00190669
0.00236393
0.00298761
0.00384414
0.00358883
0.00146599
0.000234256
0.000668918
0.000859847
0.00108928
0.00127103
0.00141409
0.00151056
0.00156
0.00156443
0.00155504
0.00153086
0.0014894
0.00144148
0.00139143
0.00134387
0.00129999
0.00126322
0.00123369
0.00121252
0.00119618
0.0011949
0.00119957
0.00121233
0.00123829
0.00127679
0.00132755
0.00139634
0.001479
0.0015855
0.00171411
0.00188628
0.00208935
0.00235507
0.00266911
0.00306526
0.00355734
0.00398503
0.00412567
0.00346649
0.00137985
0.000389879
0.00110852
0.00152839
0.00191668
0.0021555
0.00230469
0.00238751
0.00241982
0.00241113
0.00239013
0.00236153
0.00232811
0.00229592
0.00226729
0.00224765
0.00223459
0.00223699
0.00224673
0.00226863
0.00230361
0.00235195
0.00241475
0.00249221
0.00258479
0.00269679
0.00282302
0.00297764
0.00313982
0.00335067
0.00354801
0.003819
0.00404361
0.00438927
0.00460856
0.00501521
0.00509033
0.00493742
0.00433524
0.00303483
0.00120037
0.000264277
0.000406373
0.00053035
0.000654392
0.000768662
0.00087133
0.000958785
0.00102963
0.00107962
0.00111093
0.00113043
0.00113634
0.00113407
0.00112763
0.00111531
0.00110011
0.00108337
0.00106733
0.00105034
0.00103573
0.00102098
0.00100982
0.000998989
0.000992459
0.000986602
0.000985756
0.000986923
0.000991127
0.000999724
0.00100902
0.00102782
0.00104339
0.00107856
0.00110628
0.00116748
0.0012067
0.00127271
0.00127796
0.00123463
0.00103089
)
;

boundaryField
{
    movingWall
    {
        type            kqRWallFunction;
        value           nonuniform List<scalar> 
40
(
0.000264277
0.000406373
0.00053035
0.000654392
0.000768662
0.00087133
0.000958785
0.00102963
0.00107962
0.00111093
0.00113043
0.00113634
0.00113407
0.00112763
0.00111531
0.00110011
0.00108337
0.00106733
0.00105034
0.00103573
0.00102098
0.00100982
0.000998989
0.000992459
0.000986602
0.000985756
0.000986923
0.000991127
0.000999724
0.00100902
0.00102782
0.00104339
0.00107856
0.00110628
0.00116748
0.0012067
0.00127271
0.00127796
0.00123463
0.00103089
)
;
    }
    fixedWalls
    {
        type            kqRWallFunction;
        value           nonuniform List<scalar> 
120
(
2.18089e-06
1.05509e-05
3.19267e-05
7.34934e-05
0.000138909
0.000232381
0.000350491
0.000476667
0.000584936
0.000664246
0.000721096
0.000751814
0.000750819
0.000741389
0.000718799
0.00067993
0.000635402
0.000582398
0.000530577
0.000469895
0.000420542
0.000378427
0.000341101
0.000307052
0.000275182
0.000244869
0.000215331
0.000186276
0.000156913
0.000130395
0.000108579
8.86613e-05
6.99914e-05
6.02358e-05
6.2033e-05
8.76247e-05
0.000141143
0.000234256
0.000389879
0.000264277
3.693e-06
6.3322e-06
5.19091e-06
3.57536e-06
4.11975e-06
7.71073e-06
1.74526e-05
4.37645e-05
0.000118812
0.000212068
0.000302385
0.000375263
0.000443525
0.000506635
0.000568307
0.000628205
0.000687718
0.000746774
0.000805412
0.000863986
0.000921806
0.00097944
0.00103582
0.00109136
0.00114495
0.00119682
0.00124589
0.00129253
0.00133572
0.00137633
0.0014139
0.00145039
0.00148739
0.00151163
0.00152031
0.00151272
0.00146599
0.00137985
0.00120037
0.00103089
2.18089e-06
7.45552e-06
1.45373e-05
1.44916e-05
1.3249e-05
1.35682e-05
1.75652e-05
3.00018e-05
4.5247e-05
6.61926e-05
0.000101571
0.000125582
0.000136904
0.0001513
0.000174516
0.00020474
0.000232648
0.000264941
0.00029593
0.000331615
0.00036802
0.00040982
0.000455009
0.000507817
0.000569321
0.000623701
0.000679464
0.000726773
0.000767893
0.000790075
0.00079888
0.00078272
0.000719176
0.000611157
0.000459861
0.000272519
0.000132515
5.56598e-05
1.77645e-05
3.693e-06
)
;
    }
    frontAndBack
    {
        type            empty;
    }
}


// ************************************************************************* //
