/*--------------------------------*- C++ -*----------------------------------*\
  =========                 |
  \\      /  F ield         | OpenFOAM: The Open Source CFD Toolbox
   \\    /   O peration     | Website:  https://openfoam.org
    \\  /    A nd           | Version:  13
     \\/     M anipulation  |
\*---------------------------------------------------------------------------*/
FoamFile
{
    format      ascii;
    class       surfaceScalarField;
    location    "8";
    object      phi;
}
// * * * * * * * * * * * * * * * * * * * * * * * * * * * * * * * * * * * * * //

dimensions      [0 3 -1 0 0 0 0];

internalField   nonuniform List<scalar> 
760
(
1.32004e-07
-1.32009e-07
-1.11426e-07
2.4343e-07
-9.00552e-07
7.89125e-07
-2.18059e-06
1.28004e-06
-3.56932e-06
1.38873e-06
-4.80907e-06
1.23975e-06
-5.8593e-06
1.05023e-06
-6.69145e-06
8.32147e-07
-7.30168e-06
6.10232e-07
-7.70808e-06
4.064e-07
-7.92316e-06
2.15077e-07
-7.93893e-06
1.57706e-08
-7.74841e-06
-1.90517e-07
-7.35154e-06
-3.96871e-07
-6.68279e-06
-6.68746e-07
-5.71678e-06
-9.66019e-07
-4.39938e-06
-1.3174e-06
-2.77366e-06
-1.62572e-06
-1.06338e-06
-1.71028e-06
-1.06338e-06
-3.57423e-07
2.25414e-07
-1.31749e-06
1.2035e-06
-2.66703e-06
2.13866e-06
-3.92503e-06
2.53804e-06
-4.98377e-06
2.44747e-06
-5.91676e-06
2.17274e-06
-6.67677e-06
1.81023e-06
-7.27289e-06
1.42827e-06
-7.71961e-06
1.05695e-06
-8.01106e-06
6.97845e-07
-8.13309e-06
3.37115e-07
-8.08209e-06
-3.52308e-08
-7.88004e-06
-3.92566e-07
-7.485e-06
-7.9192e-07
-6.89169e-06
-1.26206e-06
-6.0536e-06
-1.80411e-06
-4.93317e-06
-2.43782e-06
-3.46962e-06
-3.08927e-06
-1.70041e-06
-3.47949e-06
-2.76379e-06
-9.68976e-07
1.19439e-06
-2.27128e-06
2.5058e-06
-3.4326e-06
3.29998e-06
-4.38942e-06
3.49487e-06
-5.19607e-06
3.25412e-06
-5.86146e-06
2.83813e-06
-6.3829e-06
2.33167e-06
-6.7524e-06
1.79778e-06
-6.99002e-06
1.29457e-06
-7.09731e-06
8.0514e-07
-7.09828e-06
3.38083e-07
-7.00437e-06
-1.29142e-07
-6.79634e-06
-6.006e-07
-6.4601e-06
-1.12816e-06
-5.9828e-06
-1.73936e-06
-5.32817e-06
-2.45874e-06
-4.46483e-06
-3.30115e-06
-3.32651e-06
-4.2276e-06
-1.83367e-06
-4.97233e-06
-4.59746e-06
-1.20838e-06
2.40277e-06
-2.40863e-06
3.70605e-06
-3.37902e-06
4.27037e-06
-4.12557e-06
4.24143e-06
-4.71273e-06
3.84128e-06
-5.15471e-06
3.2801e-06
-5.46759e-06
2.64455e-06
-5.67927e-06
2.00946e-06
-5.7986e-06
1.41389e-06
-5.84156e-06
8.48104e-07
-5.80961e-06
3.06125e-07
-5.70532e-06
-2.33423e-07
-5.51546e-06
-7.90459e-07
-5.23861e-06
-1.40501e-06
-4.86463e-06
-2.11334e-06
-4.36853e-06
-2.95483e-06
-3.7148e-06
-3.95488e-06
-2.84427e-06
-5.09812e-06
-1.62785e-06
-6.18875e-06
-6.22531e-06
-1.14736e-06
3.55013e-06
-2.16364e-06
4.72233e-06
-2.94736e-06
5.05409e-06
-3.53028e-06
4.82435e-06
-3.95673e-06
4.26773e-06
-4.25312e-06
3.5765e-06
-4.45107e-06
2.8425e-06
-4.57666e-06
2.13505e-06
-4.63684e-06
1.47408e-06
-4.63982e-06
8.51085e-07
-4.58664e-06
2.52938e-07
-4.47804e-06
-3.42021e-07
-4.31009e-06
-9.58407e-07
-4.08411e-06
-1.63099e-06
-3.79626e-06
-2.40119e-06
-3.43176e-06
-3.31933e-06
-2.95463e-06
-4.43201e-06
-2.29871e-06
-5.75405e-06
-1.36152e-06
-7.12594e-06
-7.58683e-06
-9.46358e-07
4.49649e-06
-1.75827e-06
5.53424e-06
-2.37566e-06
5.67148e-06
-2.82205e-06
5.27073e-06
-3.13395e-06
4.57963e-06
-3.34158e-06
3.78413e-06
-3.47579e-06
2.97671e-06
-3.55499e-06
2.21425e-06
-3.58631e-06
1.5054e-06
-3.57424e-06
8.39013e-07
-3.51931e-06
1.98011e-07
-3.42097e-06
-4.40366e-07
-3.27829e-06
-1.10108e-06
-3.09379e-06
-1.81549e-06
-2.87007e-06
-2.62492e-06
-2.60414e-06
-3.58526e-06
-2.27771e-06
-4.75844e-06
-1.82501e-06
-6.20675e-06
-1.09931e-06
-7.85164e-06
-8.68614e-06
-7.17682e-07
5.21417e-06
-1.31836e-06
6.13492e-06
-1.77791e-06
6.13103e-06
-2.10631e-06
5.59913e-06
-2.33353e-06
4.80686e-06
-2.48435e-06
3.93494e-06
-2.58191e-06
3.07427e-06
-2.63889e-06
2.27122e-06
-2.66152e-06
1.52803e-06
-2.65242e-06
8.29912e-07
-2.61041e-06
1.56003e-07
-2.53338e-06
-5.17399e-07
-2.42014e-06
-1.21432e-06
-2.27389e-06
-1.96174e-06
-2.10206e-06
-2.79674e-06
-1.90969e-06
-3.77763e-06
-1.68786e-06
-4.98027e-06
-1.38267e-06
-6.51194e-06
-9.00425e-07
-8.33389e-06
-9.58656e-06
-4.66808e-07
5.68098e-06
-8.84289e-07
6.5524e-06
-1.19942e-06
6.44616e-06
-1.42679e-06
5.82649e-06
-1.58695e-06
4.96702e-06
-1.69695e-06
4.04494e-06
-1.77157e-06
3.1489e-06
-1.81853e-06
2.31818e-06
-1.842e-06
1.5515e-06
-1.84293e-06
8.30845e-07
-1.81918e-06
1.32254e-07
-1.76803e-06
-5.68547e-07
-1.68811e-06
-1.29424e-06
-1.58236e-06
-2.06749e-06
-1.46064e-06
-2.91846e-06
-1.33464e-06
-3.90363e-06
-1.20173e-06
-5.11318e-06
-1.01742e-06
-6.69626e-06
-6.96339e-07
-8.65497e-06
-1.02829e-05
-2.48875e-07
5.92985e-06
-4.79447e-07
6.78297e-06
-6.56488e-07
6.6232e-06
-7.93351e-07
5.96336e-06
-8.94836e-07
5.06851e-06
-9.70374e-07
4.12047e-06
-1.02669e-06
3.20522e-06
-1.06677e-06
2.35826e-06
-1.0924e-06
1.57713e-06
-1.10344e-06
8.41882e-07
-1.09801e-06
1.2683e-07
-1.07395e-06
-5.92607e-07
-1.03028e-06
-1.33791e-06
-9.69752e-07
-2.12802e-06
-9.0226e-07
-2.98595e-06
-8.42258e-07
-3.96363e-06
-7.92263e-07
-5.16317e-06
-7.15601e-07
-6.77292e-06
-5.53357e-07
-8.81722e-06
-1.08363e-05
-2.40366e-08
5.95389e-06
-9.85813e-08
6.85751e-06
-1.55724e-07
6.68035e-06
-2.02791e-07
6.01043e-06
-2.45209e-07
5.11093e-06
-2.8503e-07
4.1603e-06
-3.21719e-07
3.24191e-06
-3.53313e-07
2.38986e-06
-3.79002e-07
1.60281e-06
-3.98198e-07
8.61078e-07
-4.1009e-07
1.38722e-07
-4.13702e-07
-5.88994e-07
-4.08959e-07
-1.34266e-06
-3.98357e-07
-2.13862e-06
-3.9113e-07
-2.99318e-06
-3.97793e-07
-3.95697e-06
-4.40189e-07
-5.12077e-06
-4.63191e-07
-6.74992e-06
-4.15837e-07
-8.86457e-06
-1.12521e-05
1.8435e-07
5.76954e-06
2.78233e-07
6.76363e-06
3.47611e-07
6.61097e-06
3.75221e-07
5.98281e-06
3.86413e-07
5.09974e-06
3.82441e-07
4.16427e-06
3.68217e-07
3.25613e-06
3.48408e-07
2.40967e-06
3.25475e-07
1.62575e-06
3.0001e-07
8.86543e-07
2.71585e-07
1.67148e-07
2.39666e-07
-5.57075e-07
2.03117e-07
-1.30611e-06
1.59578e-07
-2.09508e-06
1.01659e-07
-2.93526e-06
2.54519e-09
-3.85786e-06
-1.07876e-07
-5.01035e-06
-2.46802e-07
-6.61099e-06
-3.20955e-07
-8.79042e-06
-1.1573e-05
3.8066e-07
5.38888e-06
6.31954e-07
6.51234e-06
8.19612e-07
6.42331e-06
9.35435e-07
5.86699e-06
1.00886e-06
5.02631e-06
1.04864e-06
4.12448e-06
1.0636e-06
3.24117e-06
1.06081e-06
2.41245e-06
1.04411e-06
1.64245e-06
1.01423e-06
9.16424e-07
9.69513e-07
2.11862e-07
9.07918e-07
-4.9548e-07
8.26533e-07
-1.22472e-06
7.22552e-07
-1.9911e-06
5.89115e-07
-2.80182e-06
4.21924e-07
-3.69067e-06
1.9833e-07
-4.78676e-06
-6.42257e-08
-6.34844e-06
-2.14902e-07
-8.63974e-06
-1.1788e-05
5.72138e-07
4.81674e-06
9.75505e-07
6.10897e-06
1.27841e-06
6.12041e-06
1.48836e-06
5.65703e-06
1.63204e-06
4.88263e-06
1.72559e-06
4.03093e-06
1.7791e-06
3.18767e-06
1.80078e-06
2.39077e-06
1.79546e-06
1.64777e-06
1.76412e-06
9.47769e-07
1.70402e-06
2.71955e-07
1.61205e-06
-4.03507e-07
1.48354e-06
-1.09621e-06
1.31452e-06
-1.82208e-06
1.10107e-06
-2.58838e-06
8.38283e-07
-3.42788e-06
5.02964e-07
-4.45144e-06
1.44772e-07
-5.99024e-06
-8.99119e-08
-8.40506e-06
-1.18779e-05
7.34686e-07
4.08206e-06
1.27961e-06
5.56405e-06
1.69484e-06
5.70518e-06
2.01701e-06
5.33487e-06
2.25024e-06
4.6494e-06
2.41413e-06
3.86704e-06
2.52048e-06
3.08133e-06
2.57813e-06
2.33312e-06
2.59244e-06
1.63346e-06
2.56468e-06
9.75525e-07
2.49154e-06
3.45102e-07
2.36839e-06
-2.80363e-07
2.19032e-06
-9.1814e-07
1.95178e-06
-1.58354e-06
1.64928e-06
-2.28588e-06
1.28227e-06
-3.06086e-06
8.3751e-07
-4.00668e-06
3.87388e-07
-5.54012e-06
6.55204e-08
-8.08319e-06
-1.18123e-05
8.69975e-07
3.21208e-06
1.53635e-06
4.89767e-06
2.07056e-06
5.17097e-06
2.51567e-06
4.88975e-06
2.85752e-06
4.30756e-06
3.10972e-06
3.61484e-06
3.28481e-06
2.90624e-06
3.39193e-06
2.22599e-06
3.43634e-06
1.58905e-06
3.41971e-06
9.92153e-07
3.33829e-06
4.26522e-07
3.18468e-06
-1.26746e-07
2.95632e-06
-6.89783e-07
2.64551e-06
-1.27273e-06
2.24787e-06
-1.88824e-06
1.77145e-06
-2.58444e-06
1.20861e-06
-3.44385e-06
6.48013e-07
-4.97952e-06
2.0437e-07
-7.63955e-06
-1.1608e-05
8.77365e-07
2.33471e-06
1.6501e-06
4.12494e-06
2.32915e-06
4.49191e-06
2.9204e-06
4.29851e-06
3.40165e-06
3.8263e-06
3.77193e-06
3.24457e-06
4.04054e-06
2.63762e-06
4.21723e-06
2.04931e-06
4.30716e-06
1.49912e-06
4.31282e-06
9.86493e-07
4.23177e-06
5.07571e-07
4.05679e-06
4.8227e-08
3.78166e-06
-4.14647e-07
3.40276e-06
-8.93835e-07
2.91231e-06
-1.39778e-06
2.32827e-06
-2.00041e-06
1.64399e-06
-2.75957e-06
9.65351e-07
-4.30088e-06
3.99264e-07
-7.07346e-06
-1.12087e-05
7.81516e-07
1.5532e-06
1.62874e-06
3.27772e-06
2.46853e-06
3.65213e-06
3.22283e-06
3.54421e-06
3.85987e-06
3.18926e-06
4.3706e-06
2.73383e-06
4.75365e-06
2.25457e-06
5.01704e-06
1.78592e-06
5.16647e-06
1.34969e-06
5.20625e-06
9.46708e-07
5.13696e-06
5.76867e-07
4.95931e-06
2.25877e-07
4.65491e-06
-1.1025e-07
4.23528e-06
-4.74203e-07
3.68046e-06
-8.42966e-07
3.01313e-06
-1.33307e-06
2.23164e-06
-1.97807e-06
1.43271e-06
-3.50195e-06
6.75991e-07
-6.31674e-06
-1.05327e-05
2.80499e-07
1.2727e-06
1.25372e-06
2.3045e-06
2.2819e-06
2.62395e-06
3.24236e-06
2.58374e-06
4.07157e-06
2.36005e-06
4.75202e-06
2.05338e-06
5.28128e-06
1.72531e-06
5.66292e-06
1.40428e-06
5.9055e-06
1.1071e-06
6.01642e-06
8.35789e-07
6.00086e-06
5.92427e-07
5.86789e-06
3.58851e-07
5.61536e-06
1.4228e-07
5.23832e-06
-9.71626e-08
4.70721e-06
-3.11857e-07
4.04843e-06
-6.74291e-07
3.23704e-06
-1.16668e-06
2.34874e-06
-2.61366e-06
1.21159e-06
-5.17959e-06
-9.32112e-06
-5.48576e-07
1.82128e-06
5.24025e-07
1.23189e-06
1.86173e-06
1.28625e-06
3.09875e-06
1.34672e-06
4.16918e-06
1.28962e-06
5.06777e-06
1.15479e-06
5.79835e-06
9.94741e-07
6.35707e-06
8.45557e-07
6.76353e-06
7.00644e-07
7.0239e-06
5.75417e-07
7.1619e-06
4.54433e-07
7.17201e-06
3.48737e-07
7.07081e-06
2.43485e-07
6.83678e-06
1.36865e-07
6.49797e-06
2.69492e-08
6.03731e-06
-2.1363e-07
5.39213e-06
-5.215e-07
4.47884e-06
-1.70037e-06
2.63994e-06
-3.3407e-06
-6.68118e-06
1.82128e-06
3.05317e-06
4.33942e-06
5.68613e-06
6.97575e-06
8.13055e-06
9.12529e-06
9.97084e-06
1.06715e-05
1.12469e-05
1.17013e-05
1.20501e-05
1.22936e-05
1.24304e-05
1.24574e-05
1.22437e-05
1.17222e-05
1.00219e-05
6.68118e-06
)
;

boundaryField
{
    movingWall
    {
        type            calculated;
        value           uniform 0;
    }
    fixedWalls
    {
        type            calculated;
        value           uniform 0;
    }
    frontAndBack
    {
        type            empty;
    }
}


// ************************************************************************* //
