/*--------------------------------*- C++ -*----------------------------------*\
  =========                 |
  \\      /  F ield         | OpenFOAM: The Open Source CFD Toolbox
   \\    /   O peration     | Website:  https://openfoam.org
    \\  /    A nd           | Version:  13
     \\/     M anipulation  |
\*---------------------------------------------------------------------------*/
FoamFile
{
    format      ascii;
    class       volScalarField;
    location    "8";
    object      epsilon;
}
// * * * * * * * * * * * * * * * * * * * * * * * * * * * * * * * * * * * * * //

dimensions      [0 2 -3 0 0 0 0];

internalField   nonuniform List<scalar> 
6400
(
2.87443e-05
0.000147687
0.000358994
0.000578214
0.000743399
0.000836289
0.000870413
0.000874421
0.000880367
0.000913396
0.000992434
0.00114514
0.00138495
0.00171664
0.00212238
0.00257962
0.00306509
0.00356955
0.00406942
0.00455306
0.00504024
0.00557305
0.00620769
0.0069771
0.00784846
0.00872786
0.00960152
0.0104686
0.0113559
0.0122873
0.0132503
0.0142122
0.0151577
0.0160898
0.0170321
0.0179902
0.018984
0.0200195
0.0211095
0.0222571
0.0234707
0.0247596
0.026131
0.0276016
0.0291833
0.0309309
0.0329466
0.0354501
0.037959
0.0405186
0.0430229
0.0454553
0.0477371
0.0498057
0.0515844
0.0529811
0.0536922
0.0539743
0.0538644
0.0528276
0.0509994
0.0483845
0.0450125
0.0410209
0.0364817
0.0316325
0.0267067
0.0218938
0.0173711
0.0133497
0.0100757
0.00732886
0.00511066
0.00341594
0.00219609
0.00136485
0.000822544
0.000472962
0.000223892
4.77355e-05
0.000138981
0.000139047
0.000227343
0.000329266
0.000405712
0.000452161
0.000475353
0.000486344
0.000498835
0.000526764
0.000584829
0.000692684
0.000866903
0.00111995
0.00145531
0.00187393
0.00237774
0.00297339
0.00366684
0.00446816
0.00538504
0.00645819
0.00773836
0.0092495
0.0109808
0.0129583
0.0149946
0.0169534
0.0187282
0.0202251
0.0213567
0.0222268
0.0228155
0.0232184
0.0234733
0.0236389
0.0237555
0.023857
0.0239661
0.0241028
0.02429
0.0245319
0.0248304
0.0251575
0.0255415
0.0260159
0.0265694
0.0272027
0.027909
0.028651
0.0294307
0.0302013
0.0309466
0.031616
0.0321683
0.0324701
0.0325659
0.0324421
0.0320306
0.0312072
0.0300153
0.0284209
0.0264274
0.0241099
0.0215543
0.0188661
0.0161605
0.0135517
0.0111277
0.00898184
0.00716561
0.00560697
0.00426972
0.00313434
0.00219702
0.00144007
0.000879249
0.000494443
0.000257319
0.000252337
0.000303972
0.000253108
0.000337984
0.000424087
0.000475946
0.000502415
0.000517346
0.000534701
0.000569835
0.000641043
0.000772067
0.0009914
0.00132617
0.001796
0.00241336
0.00319029
0.0041393
0.00527487
0.00660714
0.00814307
0.00988898
0.0118081
0.0138123
0.0157456
0.0174233
0.0186063
0.0193154
0.0197002
0.0198906
0.0200308
0.0201018
0.020014
0.0197017
0.0194115
0.0191065
0.0188435
0.0186313
0.0185082
0.0184597
0.0184575
0.0185794
0.0187734
0.019071
0.0194905
0.02002
0.0206372
0.0213369
0.0221137
0.0229633
0.0238692
0.024822
0.0257972
0.0267723
0.0277111
0.0285739
0.029311
0.0298442
0.0300793
0.0301028
0.0297399
0.0289319
0.0276714
0.0259368
0.0238347
0.0214509
0.0188846
0.0162624
0.0136988
0.0112991
0.00914549
0.00728657
0.00572212
0.00442773
0.00336406
0.00249313
0.0017928
0.00121939
0.000763878
0.000473833
0.000674994
0.00052778
0.000436477
0.000532487
0.000614674
0.000657238
0.000679637
0.00070254
0.000746898
0.00083631
0.001002
0.0012839
0.00172427
0.00235804
0.00320653
0.00427948
0.00558123
0.00711074
0.00884657
0.0107333
0.0126756
0.0145376
0.0161734
0.0174288
0.0180953
0.0183727
0.0184377
0.0183726
0.0180153
0.0174587
0.016862
0.0162061
0.0156957
0.0153066
0.0149746
0.0147268
0.0145774
0.014513
0.0145019
0.0145965
0.0147692
0.0150328
0.0153751
0.0158053
0.0163194
0.0169161
0.0175941
0.0183548
0.0191968
0.0201185
0.0211139
0.0221757
0.0232899
0.024437
0.0255883
0.0267064
0.027742
0.0286357
0.0292919
0.0295946
0.0296416
0.0292191
0.0283695
0.0270846
0.0251759
0.0228692
0.020257
0.0174887
0.0147154
0.0120812
0.00970182
0.00765091
0.00595159
0.0045841
0.00350198
0.00265014
0.00197949
0.00143727
0.000994406
0.000711249
0.00112487
0.00084634
0.000690671
0.000785104
0.000864553
0.000909791
0.000945986
0.00100098
0.00110631
0.00130085
0.0016336
0.00215954
0.00292707
0.00396435
0.00527476
0.00684073
0.00862388
0.0105556
0.0125232
0.0143643
0.0159111
0.0169386
0.0173947
0.0175226
0.0174647
0.0170369
0.0163001
0.015431
0.0146248
0.0139712
0.0133663
0.0128656
0.0124782
0.0121763
0.0119513
0.0118133
0.0117501
0.0117328
0.011778
0.0119001
0.0120763
0.0123166
0.0126163
0.01298
0.0134086
0.0139062
0.0144766
0.0151246
0.0158549
0.0166723
0.0175802
0.0185795
0.0196675
0.0208363
0.0220718
0.0233518
0.0246385
0.0258783
0.0270078
0.0279485
0.0285086
0.0287064
0.0284728
0.0276784
0.0264367
0.0244432
0.0219418
0.0191068
0.0161226
0.0131842
0.0104721
0.00811855
0.00618752
0.00467304
0.00351967
0.0026479
0.00198913
0.00148364
0.00109193
0.000868627
0.00143662
0.00130062
0.00102395
0.00110072
0.00118217
0.00124516
0.00131719
0.00143564
0.00164687
0.00200796
0.00258384
0.0034346
0.00459611
0.00606607
0.00780188
0.00972355
0.0117123
0.013609
0.0152294
0.0163113
0.0167761
0.0168834
0.0167332
0.0161764
0.0151973
0.0141962
0.0133069
0.0124998
0.0118202
0.0112515
0.0107681
0.0103809
0.0100713
0.0098277
0.00964304
0.00951184
0.00943184
0.0093957
0.00938747
0.00942696
0.0095049
0.00962192
0.0097802
0.00998093
0.0102286
0.0105281
0.0108863
0.0113113
0.0118138
0.0124047
0.0130973
0.0139036
0.0148352
0.0159005
0.0171016
0.0184324
0.0198789
0.0214064
0.0229662
0.0244908
0.0258738
0.0269845
0.0275293
0.0276621
0.0271308
0.0260542
0.0239707
0.0212813
0.0181821
0.0149205
0.0117659
0.00895349
0.00663259
0.00484415
0.00353733
0.00260181
0.00193678
0.00145044
0.00109067
0.000932068
0.00155201
0.00193044
0.00144259
0.00149139
0.00158555
0.00168495
0.00181911
0.00203823
0.00240559
0.00299346
0.00387094
0.0050823
0.0066252
0.00844016
0.0104128
0.0123819
0.0141508
0.0155009
0.016156
0.0163441
0.0162695
0.0157168
0.0146685
0.0135461
0.0125296
0.0116114
0.0108291
0.0101536
0.00958801
0.00910803
0.00870354
0.00836623
0.00808221
0.00784461
0.00764696
0.0074847
0.00735411
0.00725158
0.0071757
0.00713345
0.00711564
0.00711322
0.00714648
0.00720667
0.00730148
0.00743121
0.00760308
0.0078232
0.00810094
0.00844759
0.00887915
0.00941553
0.0100792
0.0108953
0.0118866
0.0130723
0.0144775
0.0161004
0.0179087
0.0198505
0.0218635
0.0238252
0.025574
0.0267593
0.0272371
0.0272059
0.0262301
0.024064
0.0211053
0.0176223
0.0139702
0.0105251
0.00758802
0.00531091
0.0036868
0.00259657
0.00186113
0.00137356
0.00105323
0.000924672
0.00150765
0.00277259
0.00195142
0.00197085
0.00209197
0.0022498
0.00247494
0.0028324
0.00339963
0.0042529
0.00544516
0.00697988
0.00879305
0.0107514
0.0126664
0.0143191
0.0153888
0.0158179
0.0158849
0.0155086
0.0145767
0.0133558
0.0122135
0.0111643
0.0102615
0.00947947
0.00881542
0.00824377
0.00775571
0.00733359
0.00696984
0.00665484
0.00638109
0.00614393
0.00593917
0.00576401
0.00561585
0.00549192
0.00539127
0.00531335
0.00525573
0.00522536
0.00521408
0.00521632
0.00525407
0.00531307
0.00540295
0.00552493
0.00568556
0.00589038
0.00614693
0.00646653
0.00686425
0.00736258
0.00799645
0.0088121
0.0098544
0.0111853
0.0128379
0.014803
0.0170733
0.0195419
0.0220944
0.0245245
0.0265285
0.0275226
0.0278155
0.0270432
0.0247242
0.0213662
0.0173552
0.0132009
0.00941626
0.00636283
0.00416377
0.00273429
0.00185748
0.00130736
0.0009882
0.000889236
0.00140173
0.00385263
0.00255399
0.00254836
0.00271827
0.00295454
0.0032968
0.00382159
0.00461117
0.00572815
0.00718675
0.00892932
0.0108191
0.0126538
0.014197
0.0150723
0.0153646
0.0153585
0.0147308
0.0135705
0.0123011
0.0111138
0.010071
0.00916243
0.00838947
0.00772343
0.00715167
0.00665555
0.00622611
0.0058522
0.0055281
0.00524706
0.00500479
0.00479755
0.00462175
0.0044744
0.00435304
0.00425566
0.00418039
0.00412557
0.00409277
0.00407839
0.00407526
0.00409281
0.00413067
0.00418628
0.00426297
0.0043612
0.00448405
0.00463433
0.00481651
0.00503623
0.00530157
0.00562316
0.00601564
0.00650126
0.0071127
0.00790298
0.00896384
0.0104297
0.0123655
0.0147819
0.0176296
0.0207346
0.0238808
0.0266703
0.0283134
0.0289221
0.0283617
0.0257883
0.0218821
0.0172017
0.012472
0.0083533
0.00524119
0.0031852
0.00197701
0.00130645
0.000937317
0.000831943
0.00128163
0.00518022
0.00325809
0.00323725
0.00346962
0.00380247
0.00427939
0.00498187
0.00598316
0.00731319
0.00892996
0.0107068
0.0124429
0.0138954
0.0146814
0.0149311
0.0147911
0.0140029
0.0127337
0.0114488
0.0102371
0.00918294
0.00827824
0.00750249
0.0068397
0.00626737
0.00577422
0.00534807
0.0049821
0.00466885
0.00440338
0.00418018
0.00399499
0.00384342
0.00372162
0.003626
0.00355334
0.00350089
0.0034675
0.00345176
0.00344703
0.00345432
0.0034777
0.00351357
0.00356309
0.00362576
0.00370284
0.0037952
0.00390452
0.0040327
0.00418236
0.00435686
0.00456069
0.00479995
0.00508318
0.00541981
0.00582551
0.00632547
0.00696013
0.00779549
0.00894476
0.0106313
0.0130131
0.0160776
0.0196939
0.0235481
0.0271927
0.0295146
0.0304187
0.0300159
0.0270501
0.0224159
0.0169535
0.0116358
0.00725992
0.00419831
0.00236217
0.00139619
0.000932903
0.000781883
0.00118216
0.00677981
0.00407997
0.00404199
0.00434453
0.00478328
0.00539716
0.0062622
0.00742763
0.00887607
0.010503
0.012122
0.0134953
0.0142429
0.0144803
0.0142713
0.0133848
0.0120973
0.010767
0.00954745
0.00847598
0.00756682
0.00679097
0.00612849
0.0055623
0.0050776
0.00466579
0.00431816
0.00402833
0.00378936
0.0035953
0.00343995
0.00331791
0.00322394
0.00315359
0.00310301
0.0030692
0.00305239
0.00304615
0.00304617
0.00306131
0.00308451
0.0031189
0.00316284
0.00321773
0.00328384
0.00336245
0.00345468
0.00356196
0.00368582
0.00382799
0.00399038
0.00417516
0.00438492
0.00462306
0.00489457
0.00520717
0.00557345
0.00601444
0.00655991
0.00726312
0.00822219
0.00960866
0.0117699
0.0149168
0.0189348
0.0234985
0.0280532
0.0310426
0.0321996
0.031809
0.0282519
0.0227097
0.0163998
0.0105653
0.00609572
0.0032291
0.00169049
0.000990334
0.000766421
0.00114636
0.00872309
0.00504405
0.00495834
0.00532953
0.00587171
0.0066063
0.00759223
0.00884291
0.0102879
0.0117675
0.0130588
0.0137917
0.0140294
0.0137988
0.0128809
0.0116157
0.0102601
0.00901266
0.00792839
0.00700525
0.00622701
0.00556603
0.00500677
0.00453542
0.00414162
0.00381714
0.00355332
0.00334231
0.00317602
0.00304712
0.00294874
0.00287504
0.00282103
0.00278275
0.00275714
0.00274408
0.0027389
0.00273829
0.00274774
0.00276522
0.00279016
0.00282387
0.00286651
0.00291937
0.00298335
0.00305987
0.00315032
0.00325627
0.00337939
0.00352144
0.00368418
0.00386935
0.00407855
0.00431322
0.00457479
0.0048651
0.0051875
0.00554899
0.00596431
0.00646201
0.00709268
0.00793477
0.00915318
0.0110471
0.0141457
0.0184882
0.0237518
0.0292469
0.0328321
0.0341608
0.0335505
0.0291067
0.0224893
0.0153362
0.00918772
0.00486301
0.00236017
0.00118832
0.000799235
0.00118659
0.0108796
0.00611094
0.00596534
0.00639933
0.00703033
0.00785137
0.00889494
0.0101333
0.0114478
0.0126418
0.0133645
0.0136053
0.0133915
0.0125093
0.0112689
0.00990833
0.00862692
0.00751698
0.00657796
0.00578973
0.00512933
0.00457602
0.00411744
0.00374161
0.00343852
0.00319816
0.00301045
0.00286596
0.0027559
0.00267276
0.00261021
0.0025633
0.00252823
0.00250236
0.00248394
0.00247248
0.00246708
0.00246558
0.00247082
0.00248335
0.00250298
0.00253084
0.00256776
0.00261495
0.00267359
0.00274512
0.00283109
0.00293323
0.00305343
0.00319372
0.00335623
0.00354311
0.00375631
0.00399745
0.00426758
0.004567
0.00489534
0.00525221
0.00563915
0.00606376
0.00654743
0.00713831
0.00791802
0.00903394
0.0107877
0.0137729
0.0183998
0.0243623
0.0308119
0.0348138
0.0361639
0.0349946
0.0293052
0.0214463
0.0136327
0.0075087
0.00361817
0.00165018
0.000929128
0.00135881
0.0131878
0.00725621
0.00703704
0.0075205
0.00821431
0.00907341
0.010099
0.0112246
0.0122964
0.0129973
0.0132367
0.0130716
0.0122611
0.0110565
0.00969565
0.00838235
0.00723311
0.00626858
0.005465
0.00479859
0.00424842
0.00379856
0.00343685
0.00315062
0.00292808
0.00275738
0.00262754
0.00252897
0.00245358
0.00239504
0.00234858
0.00231085
0.00227965
0.00225371
0.00223242
0.00221571
0.00220391
0.00219825
0.0021967
0.00220164
0.00221488
0.00223612
0.00226658
0.00230731
0.00235949
0.00242452
0.00250394
0.00259954
0.00271337
0.00284773
0.00300515
0.00318837
0.00340015
0.00364308
0.00391927
0.0042299
0.00457476
0.00495198
0.0053582
0.00579018
0.00624872
0.00674724
0.00732759
0.00808085
0.0091482
0.0108447
0.013799
0.0187244
0.0254299
0.0328132
0.0368762
0.0380429
0.0357841
0.0284243
0.0193632
0.0112873
0.00563283
0.00252324
0.00124579
0.00177492
0.0155722
0.00845043
0.00814228
0.00865457
0.00937606
0.0102166
0.0111455
0.0120653
0.0127167
0.0129466
0.0128443
0.0121214
0.0109737
0.00961816
0.00827156
0.00707334
0.00606835
0.00524021
0.00456014
0.00400603
0.0035595
0.00320562
0.00293035
0.00271936
0.00255935
0.00243806
0.00234513
0.00227227
0.00221319
0.00216349
0.00212025
0.00208177
0.00204721
0.00201634
0.00198933
0.00196657
0.00194858
0.00193671
0.00193131
0.00193019
0.00193749
0.00195353
0.00197829
0.00201308
0.00205882
0.0021168
0.00218849
0.00227565
0.00238033
0.00250497
0.00265238
0.00282576
0.00302862
0.00326462
0.00353733
0.00384969
0.00420348
0.00459841
0.0050315
0.00549678
0.00598655
0.00649532
0.00702918
0.00762416
0.00837549
0.00943675
0.0111432
0.0142033
0.019561
0.027153
0.0351628
0.0389149
0.0396422
0.0354426
0.0261124
0.0162185
0.00849885
0.00387628
0.00181977
0.00244393
0.0179634
0.00966258
0.0092473
0.00976174
0.0104701
0.0112326
0.0119884
0.0125605
0.0127762
0.012703
0.0120874
0.0110111
0.00967431
0.00829377
0.00703661
0.00597522
0.00510774
0.004404
0.00383687
0.00338587
0.00303299
0.00276192
0.00255658
0.00240177
0.00228424
0.00219291
0.0021193
0.00205727
0.00200272
0.00195316
0.00190729
0.00186463
0.00182522
0.00178942
0.0017577
0.00173062
0.00170872
0.00169256
0.001684
0.00168087
0.00168307
0.00169557
0.00171578
0.00174549
0.00178528
0.00183635
0.0019
0.00197787
0.00207194
0.0021846
0.00231875
0.00247777
0.00266565
0.00288683
0.00314612
0.0034483
0.00379757
0.00419664
0.00464555
0.00514039
0.00567257
0.00622964
0.0067995
0.00738099
0.00800677
0.00878035
0.00987043
0.0116555
0.0149694
0.0209717
0.0297109
0.0377985
0.0409024
0.0407428
0.0333543
0.0222621
0.0122943
0.00575895
0.00264916
0.00330627
0.0203118
0.0108609
0.0103185
0.010804
0.0114567
0.0120853
0.0125717
0.0127672
0.0126701
0.012166
0.0111637
0.00986051
0.00845217
0.00712701
0.00599188
0.00506645
0.00432458
0.00373366
0.00326867
0.00290898
0.00263542
0.00242998
0.00227582
0.00215838
0.00206598
0.00198979
0.00192375
0.001864
0.00180835
0.00175584
0.00170624
0.00165979
0.00161692
0.00157816
0.00154401
0.00151494
0.00149133
0.00147356
0.00146322
0.00145899
0.00145869
0.00146829
0.00148515
0.00151057
0.00154512
0.00158979
0.00164575
0.00171446
0.00179773
0.0018978
0.00201744
0.00216002
0.00232959
0.00253097
0.00276971
0.00305194
0.00338396
0.00377153
0.00421866
0.00472595
0.00528871
0.00589542
0.00652826
0.00716759
0.00780474
0.00847148
0.00928779
0.0104403
0.012391
0.0161476
0.0229867
0.0330837
0.0407785
0.0430044
0.0401681
0.0292671
0.0171378
0.00824697
0.00375943
0.00430786
0.02257
0.0120137
0.0113227
0.0117476
0.0123059
0.0127256
0.0128896
0.0127758
0.0123549
0.0114337
0.0101738
0.00874962
0.00735325
0.00612664
0.00512118
0.00432205
0.00369332
0.00320346
0.00282794
0.00254489
0.00233382
0.00217619
0.002056
0.00196066
0.00188092
0.00181057
0.00174587
0.00168483
0.00162668
0.0015714
0.00151932
0.00147095
0.00142679
0.00138729
0.00135282
0.00132368
0.0013001
0.00128225
0.00127118
0.00126628
0.00126533
0.00127248
0.0012868
0.00130863
0.00133863
0.00137762
0.0014266
0.00148686
0.00156002
0.00164808
0.00175358
0.00187966
0.0020302
0.00220998
0.00242477
0.00268134
0.00298736
0.00335093
0.00377969
0.00427926
0.00485093
0.00548896
0.00617821
0.00689429
0.00760892
0.0083063
0.00902284
0.00989751
0.0111566
0.0134114
0.017929
0.0259442
0.0373738
0.0434154
0.0443561
0.0367595
0.0231468
0.0114975
0.00519987
0.005401
0.0246499
0.0130919
0.0122334
0.0125694
0.0129828
0.0131558
0.0130693
0.0126441
0.0118196
0.0106151
0.00918793
0.00772534
0.00639354
0.0052833
0.00440273
0.00371768
0.00318961
0.00278796
0.00248747
0.00226502
0.00209985
0.00197435
0.00187463
0.00179075
0.00171614
0.00164695
0.00158127
0.00151846
0.00145858
0.00140205
0.00134938
0.00130106
0.00125747
0.0012189
0.00118554
0.00115751
0.00113489
0.00111771
0.00110666
0.00110158
0.00110034
0.00110568
0.00111792
0.00113672
0.00116282
0.00119686
0.00123971
0.00129251
0.00135666
0.00143392
0.00152655
0.00163735
0.0017699
0.00192864
0.00211914
0.00234824
0.00262413
0.00295626
0.00335486
0.00382982
0.0043886
0.00503316
0.00575605
0.00653696
0.0073427
0.00813484
0.00889326
0.00966796
0.0106129
0.0120541
0.014854
0.0206
0.0305094
0.0416768
0.0458171
0.0436469
0.030258
0.0156903
0.00702061
0.00655051
0.0264773
0.0140678
0.0130287
0.0132483
0.0134637
0.0134412
0.0130512
0.0123279
0.0111824
0.0097695
0.00825193
0.00680982
0.00557121
0.00457998
0.00381426
0.00323058
0.00279034
0.00246308
0.00222258
0.00204541
0.00191182
0.00180631
0.00171776
0.00163897
0.00156576
0.00149614
0.00142945
0.00136583
0.0013057
0.00124959
0.00119797
0.00115115
0.00110935
0.00107268
0.00104116
0.00101479
0.000993518
0.000977316
0.000966574
0.000961511
0.00096009
0.000964045
0.000974493
0.000990737
0.00101347
0.00104324
0.00108082
0.00112717
0.00118351
0.00125138
0.00133275
0.00143008
0.00154653
0.00168613
0.00185397
0.00205654
0.0023019
0.00259991
0.00296213
0.00340133
0.00393002
0.00455773
0.00528679
0.00610678
0.00698966
0.00788983
0.00875632
0.00956861
0.0104064
0.011447
0.0131833
0.0168101
0.024247
0.0366891
0.0458268
0.0475587
0.0380395
0.0209924
0.00926681
0.00775203
0.0280119
0.0149208
0.0136889
0.0137595
0.0138196
0.0135696
0.0129257
0.0118724
0.0104924
0.00893962
0.00739213
0.00600863
0.00487526
0.00399759
0.00333486
0.00283983
0.0024743
0.00220749
0.00201281
0.00186776
0.00175465
0.00166074
0.00157772
0.00150083
0.00142778
0.00135782
0.00129104
0.00122791
0.00116894
0.00111456
0.00106505
0.00102058
0.000981182
0.00094681
0.000917379
0.000892787
0.000872935
0.000857736
0.000847366
0.000842352
0.000840796
0.000843608
0.000852485
0.000866528
0.000886366
0.000912475
0.000945528
0.000986361
0.00103604
0.00109589
0.00116761
0.00125336
0.0013559
0.00147875
0.00162648
0.00180498
0.00202178
0.00228644
0.00261082
0.00300906
0.00349694
0.00409003
0.00480002
0.00562887
0.00656104
0.00755684
0.00855333
0.00948557
0.0103421
0.011239
0.012434
0.0146965
0.0197856
0.0297196
0.0433255
0.0488879
0.0454588
0.0274984
0.0120071
0.00899312
0.0292319
0.0156483
0.0142061
0.0141249
0.0140274
0.0135456
0.0126535
0.0113469
0.00978832
0.00815371
0.00662053
0.00531753
0.00429099
0.00351759
0.00294561
0.00252669
0.00222295
0.00200352
0.00184248
0.00171922
0.00161875
0.00153118
0.00145075
0.00137461
0.00130178
0.00123227
0.00116651
0.00110501
0.00104819
0.000996314
0.000949488
0.000907704
0.000870866
0.000838832
0.000811443
0.000788543
0.000770004
0.000755722
0.00074568
0.000740691
0.000739005
0.000740838
0.000748325
0.000760463
0.000777802
0.00080077
0.000829952
0.000866083
0.000910088
0.000963129
0.00102668
0.0011026
0.00119329
0.00130183
0.00143222
0.00158967
0.001781
0.00201507
0.00230329
0.00266
0.00310249
0.00365019
0.00432215
0.00513198
0.0060796
0.0071406
0.00825734
0.00934323
0.0103199
0.0112008
0.0121682
0.0136583
0.0169059
0.0242897
0.0378717
0.0488581
0.0504758
0.0352057
0.0154155
0.0103559
0.0301338
0.016249
0.0145827
0.0143533
0.0140917
0.0134327
0.0122868
0.0107831
0.0090983
0.00742831
0.00593947
0.00472719
0.00380299
0.00312303
0.00262977
0.0022749
0.00202092
0.0018375
0.00170032
0.00159134
0.00149842
0.00141428
0.0013352
0.00125976
0.00118776
0.00111958
0.00105573
0.000996627
0.000942515
0.000893487
0.000849499
0.000810415
0.000776051
0.000746201
0.000720669
0.000699277
0.000681881
0.000668377
0.000658698
0.00065364
0.000651819
0.000652806
0.000659057
0.000669543
0.000684724
0.000704986
0.00073085
0.000762963
0.000802139
0.000849398
0.000906024
0.000973641
0.00105432
0.00115075
0.0012664
0.00140585
0.00157512
0.0017822
0.00203762
0.00235515
0.00275225
0.0032502
0.00387285
0.00464309
0.00557554
0.00666494
0.00787176
0.00911196
0.0102696
0.0112599
0.0121232
0.0132389
0.0153103
0.0203776
0.0312529
0.0467809
0.0526422
0.0437543
0.0198156
0.0121047
0.0307326
0.0167219
0.0148305
0.0144539
0.0140477
0.0131988
0.0118633
0.0102074
0.00844143
0.0067713
0.00534545
0.0042262
0.00339659
0.00279894
0.00237298
0.00207096
0.00185609
0.00169935
0.0015787
0.00147888
0.00139046
0.00130835
0.00123037
0.00115602
0.00108553
0.00101939
0.000958029
0.000901707
0.000850509
0.000804374
0.000763139
0.000726589
0.000694484
0.00066659
0.000642693
0.00062261
0.000606197
0.000593352
0.000584001
0.000578829
0.000576871
0.000577162
0.000582306
0.000591357
0.000604667
0.000622594
0.000645599
0.000674262
0.000709305
0.000751632
0.000802372
0.000862951
0.000935182
0.00102139
0.00112461
0.00124881
0.00139928
0.00158309
0.00180973
0.0020919
0.00244638
0.00289472
0.00346322
0.00418108
0.00507504
0.00615868
0.00741562
0.00877999
0.0101282
0.0113094
0.0122761
0.0131407
0.0145757
0.0178635
0.0260409
0.0420209
0.0531242
0.0517552
0.02551
0.0144642
0.0310286
0.0170729
0.0149616
0.0144391
0.0139155
0.0128914
0.0114058
0.00963954
0.00782957
0.00618463
0.00483174
0.00380283
0.00305859
0.00253245
0.00216321
0.00190403
0.00171934
0.001582
0.00147262
0.00137869
0.0012931
0.00121251
0.00113582
0.00106304
0.0009946
0.00093094
0.000872347
0.000818923
0.000770606
0.000727223
0.000688533
0.000654273
0.000624177
0.000598001
0.000575529
0.000556581
0.000541018
0.00052874
0.000519679
0.000514352
0.000512196
0.000512056
0.000516172
0.000523975
0.000535663
0.000551563
0.000572092
0.000597772
0.000629252
0.00066734
0.000713044
0.000767626
0.000832683
0.000910255
0.00100298
0.00111434
0.00124892
0.00141294
0.00161481
0.001866
0.00218206
0.00258375
0.00309795
0.0037573
0.00459717
0.0056473
0.00691588
0.00836595
0.00989128
0.0113174
0.0124739
0.013303
0.0143331
0.0164822
0.0223157
0.0355662
0.0526103
0.0568529
0.0330326
0.0174235
0.0310082
0.0172997
0.0149864
0.0143562
0.0136839
0.0125327
0.0109334
0.00909352
0.00726911
0.00566641
0.0043902
0.00344595
0.00277747
0.00231273
0.00199067
0.00176573
0.00160397
0.0014806
0.0013789
0.00128886
0.00120532
0.00112619
0.00105109
0.000980282
0.000914224
0.000853241
0.00079747
0.000746868
0.000701262
0.000660403
0.000624003
0.000591775
0.000563446
0.000538771
0.000517541
0.000499584
0.000484764
0.000472987
0.000464189
0.000458709
0.000456323
0.000455936
0.000459133
0.000465847
0.000476124
0.000490259
0.00050863
0.000531712
0.000560095
0.00059451
0.000635866
0.000685295
0.000744219
0.000814444
0.000898295
0.000998805
0.00112
0.0012673
0.00144812
0.00167265
0.00195499
0.00231452
0.00277739
0.00337744
0.00415529
0.00515287
0.00639995
0.00788969
0.00954566
0.011199
0.0126197
0.0136205
0.0143231
0.0158513
0.0197413
0.0300202
0.0496165
0.0590738
0.0426212
0.020859
0.0308412
0.0174436
0.0149471
0.0141781
0.0133913
0.0121404
0.0104609
0.00857866
0.00676245
0.00521249
0.0040124
0.00314556
0.00254341
0.00213083
0.00184761
0.00164971
0.00150523
0.00139188
0.0012955
0.00120822
0.00112639
0.00104885
0.000975595
0.000907019
0.000843491
0.000785204
0.000732157
0.000684195
0.000641067
0.000602475
0.000568108
0.00053767
0.000510891
0.000487533
0.000467395
0.000450312
0.000436155
0.00042483
0.000416277
0.000410683
0.000408109
0.000407524
0.000409945
0.000415708
0.000424755
0.000437347
0.000453828
0.000474633
0.000500302
0.000531506
0.000569073
0.000614032
0.000667665
0.000731591
0.000807875
0.000899195
0.00100909
0.0011423
0.00130532
0.00150716
0.00176041
0.00208276
0.00249881
0.00304193
0.00375514
0.00468864
0.00589016
0.00738291
0.0091287
0.0109829
0.0126783
0.0139891
0.0147173
0.0156599
0.0182724
0.0261988
0.0441548
0.0595612
0.0527877
0.0244089
0.030474
0.0175233
0.0148418
0.0139343
0.0130536
0.0117291
0.00999913
0.00810062
0.00630928
0.00481757
0.00369022
0.00289286
0.00234815
0.00197951
0.00172795
0.00155127
0.00141976
0.00131365
0.00122107
0.00113593
0.00105573
0.000979907
0.00090868
0.000842436
0.000781436
0.000725742
0.000675238
0.000629686
0.000588785
0.000552207
0.000519636
0.000490775
0.000465361
0.000443168
0.000424001
0.000407703
0.000394148
0.000383245
0.000374932
0.000369271
0.000366547
0.000365797
0.000367577
0.000372512
0.000380485
0.000391723
0.000406541
0.000425338
0.000448614
0.000476988
0.000511224
0.000552268
0.000601291
0.000659763
0.000729542
0.000813019
0.000913322
0.00103463
0.00118265
0.00136529
0.00159374
0.00188388
0.00225839
0.00274906
0.00339911
0.00426331
0.00540238
0.0068656
0.00865545
0.0106747
0.0126793
0.014285
0.0151549
0.0157618
0.0175556
0.0231188
0.0385406
0.0587417
0.0612889
0.027263
0.0299031
0.0175197
0.0146658
0.0136438
0.0126853
0.0113108
0.00955595
0.00766226
0.00590755
0.00447594
0.00341622
0.00268033
0.00218491
0.00185298
0.00162707
0.00146694
0.00134519
0.00124437
0.00115465
0.00107132
0.000992748
0.000918741
0.000849614
0.000785691
0.000727118
0.000673843
0.000625661
0.000582277
0.000543358
0.000508564
0.000477578
0.000450112
0.00042591
0.000404756
0.000386463
0.000370879
0.000357881
0.000347377
0.000339307
0.000333635
0.000330789
0.0003299
0.000331156
0.000335372
0.000342408
0.000352456
0.000365805
0.000382825
0.000403979
0.000429843
0.000461129
0.000498714
0.000543684
0.000597387
0.00066152
0.000738241
0.000830354
0.000941567
0.00107691
0.00124336
0.00145077
0.00171333
0.00205159
0.00249517
0.00308596
0.00388034
0.00494742
0.00635673
0.00814697
0.0102703
0.0125248
0.0145263
0.0156993
0.016255
0.0173166
0.0211162
0.0331479
0.0565508
0.0656178
0.028573
0.0291612
0.017484
0.0144525
0.013321
0.0122988
0.0108949
0.00913665
0.00726443
0.00555419
0.00418194
0.0031838
0.00250161
0.0020481
0.00174664
0.00154139
0.00139418
0.0012798
0.00118296
0.00109549
0.00101381
0.000936864
0.000864706
0.000797661
0.000735967
0.00067966
0.000628596
0.000582506
0.000541056
0.000503894
0.000470679
0.000441098
0.000414871
0.000391753
0.000371534
0.000354035
0.000339107
0.000326628
0.000316503
0.000308666
0.000303073
0.000300109
0.000299103
0.000299935
0.000303529
0.000309746
0.000318748
0.000330798
0.00034624
0.000365505
0.000389134
0.000417791
0.000452301
0.000493675
0.000543171
0.000602354
0.000673203
0.000758257
0.000860847
0.000985443
0.00113821
0.00132786
0.00156698
0.00187403
0.00227615
0.00281296
0.0035404
0.00453226
0.00587346
0.00763497
0.00981962
0.0122784
0.0146349
0.016186
0.016822
0.0173525
0.020038
0.0294849
0.0523475
0.0671779
0.0287991
0.0282905
0.0174019
0.014212
0.012978
0.0119047
0.0104884
0.00874449
0.00690654
0.00524557
0.00393023
0.00298722
0.00235138
0.00193324
0.00165688
0.00146824
0.00133109
0.00122235
0.00112858
0.00104297
0.000962826
0.0008875
0.000817165
0.000752117
0.000692505
0.000638274
0.000589206
0.000544983
0.000505249
0.000469644
0.000437829
0.000409497
0.000384378
0.000362234
0.000342863
0.00032609
0.000311768
0.000299775
0.000290014
0.000282413
0.000276927
0.000273873
0.000272769
0.000273263
0.000276322
0.000281822
0.000289904
0.000300806
0.000314845
0.000332428
0.000354059
0.000380367
0.000412126
0.000450292
0.000496046
0.000550851
0.000616545
0.00069546
0.000790623
0.000906051
0.00104723
0.00122189
0.00144117
0.00172155
0.00208764
0.00257622
0.00324119
0.00415775
0.00542085
0.00712748
0.00932881
0.0119446
0.0146618
0.0167009
0.0175342
0.0178954
0.019538
0.0267604
0.0474738
0.06723
0.0282269
0.0273249
0.0172903
0.0139552
0.0126252
0.0115114
0.0100968
0.00838118
0.00658709
0.00497794
0.00371593
0.00282151
0.00222526
0.00183667
0.0015809
0.00140553
0.00127626
0.00117188
0.00108053
0.000996548
0.000917853
0.000844096
0.000775505
0.000712326
0.000654625
0.000602268
0.000554982
0.000512419
0.000474205
0.000439979
0.000409407
0.00038219
0.000358064
0.0003368
0.0003182
0.000302092
0.000288331
0.000276793
0.000267379
0.000260013
0.000254643
0.000251525
0.000250341
0.000250569
0.00025317
0.000258045
0.000265317
0.000275203
0.000287998
0.00030408
0.000323926
0.000348128
0.000377422
0.000412712
0.000455118
0.000506023
0.000567151
0.000640677
0.000729386
0.000836935
0.000968256
0.00113023
0.00133276
0.00159051
0.00192563
0.00237186
0.00298014
0.00382485
0.00500666
0.00664217
0.00882329
0.0115324
0.0145323
0.0171205
0.0182204
0.0185159
0.0193887
0.0247249
0.0430152
0.0649773
0.0272573
0.0262966
0.0171638
0.0136913
0.0122713
0.0111256
0.00972376
0.00804729
0.00630398
0.00474744
0.00353472
0.00268255
0.00211964
0.00175551
0.00151646
0.00135169
0.0012286
0.00112763
0.00103826
0.000955712
0.000878386
0.000806121
0.000739162
0.0006777
0.000621725
0.000571043
0.000525339
0.000484242
0.000447373
0.000414369
0.000384902
0.00035868
0.000335447
0.000314978
0.000297079
0.000281581
0.000268337
0.000257224
0.000248138
0.000240998
0.000235747
0.00023258
0.000231324
0.000231354
0.000233561
0.000237891
0.000244451
0.00025344
0.000265131
0.000279878
0.00029813
0.000320447
0.000347527
0.000380234
0.000419633
0.000467042
0.000524098
0.000592851
0.000675901
0.000776619
0.000899495
0.00105071
0.0012391
0.00147771
0.00178639
0.0021958
0.00275336
0.00353094
0.00463152
0.00618623
0.00832315
0.0110835
0.0142814
0.0173993
0.0189843
0.0193472
0.0195957
0.0233327
0.0390373
0.0618452
0.0260957
0.025207
0.0170399
0.013431
0.0119237
0.0107525
0.00937184
0.00774256
0.00605488
0.00455057
0.00338271
0.00256684
0.00203159
0.00168742
0.00146184
0.00130547
0.00118724
0.00108899
0.00100127
0.000920007
0.00084396
0.000773087
0.000707627
0.000647715
0.000593281
0.000544082
0.000499774
0.00045997
0.000424287
0.000392365
0.000363881
0.000338548
0.000316115
0.000296363
0.0002791
0.000264156
0.000251387
0.000240664
0.000231884
0.00022496
0.00021983
0.00021662
0.000215269
0.000215181
0.000217047
0.000220901
0.000226837
0.000235035
0.000245749
0.00025931
0.00027614
0.000296772
0.000321868
0.000352252
0.000388945
0.00043321
0.000486613
0.000551107
0.000629152
0.0007239
0.000839486
0.00098153
0.00115796
0.00138043
0.00166667
0.0020444
0.00255728
0.00327352
0.00429546
0.00576337
0.00783569
0.0106163
0.0140057
0.0175153
0.0197165
0.0202303
0.0202239
0.0225746
0.0355609
0.0580993