/*--------------------------------*- C++ -*----------------------------------*\
  =========                 |
  \\      /  F ield         | OpenFOAM: The Open Source CFD Toolbox
   \\    /   O peration     | Website:  https://openfoam.org
    \\  /    A nd           | Version:  13
     \\/     M anipulation  |
\*---------------------------------------------------------------------------*/
FoamFile
{
    format      ascii;
    class       volScalarField;
    location    "8";
    object      k;
}
// * * * * * * * * * * * * * * * * * * * * * * * * * * * * * * * * * * * * * //

dimensions      [0 2 -2 0 0 0 0];

internalField   nonuniform List<scalar> 
6400
(
5.6144e-07
2.88465e-06
7.01193e-06
1.12938e-05
1.45202e-05
1.63344e-05
1.70009e-05
1.70791e-05
1.71952e-05
1.78401e-05
1.93836e-05
2.2366e-05
2.70495e-05
3.35277e-05
4.14521e-05
5.03827e-05
5.98645e-05
6.97172e-05
7.94804e-05
8.89267e-05
9.84424e-05
0.000108849
0.000121245
0.000136273
0.000153292
0.000170468
0.000187532
0.000204467
0.000221797
0.00023999
0.000258797
0.000277585
0.000296053
0.000314258
0.000332662
0.000351376
0.000370786
0.000391012
0.000412301
0.000434716
0.000458419
0.000483593
0.000510379
0.000539102
0.000569994
0.000604128
0.000643498
0.000692394
0.000741397
0.000791388
0.0008403
0.000887807
0.000932373
0.000972774
0.00100751
0.00103479
0.00104868
0.00105419
0.00105204
0.00103179
0.000996081
0.000945007
0.000879145
0.000801184
0.000712527
0.000617817
0.000521611
0.000427608
0.000339275
0.000260732
0.000196788
0.000143139
9.98153e-05
6.6716e-05
4.28912e-05
2.66565e-05
1.60649e-05
9.23731e-06
4.37281e-06
9.32316e-07
2.7146e-06
2.28186e-05
5.53489e-05
8.64609e-05
0.000109437
0.000123146
0.000129726
0.00013248
0.000134987
0.000140376
0.000152121
0.000174079
0.000207378
0.000251326
0.000303829
0.000362227
0.000424162
0.000487256
0.000549734
0.000610983
0.000673134
0.000740608
0.000818913
0.000910502
0.00101134
0.00111241
0.00121073
0.00130433
0.00139415
0.00148123
0.00156379
0.00164083
0.00171092
0.00177497
0.00183537
0.00189295
0.00194972
0.00200651
0.00206468
0.00212476
0.00218745
0.00225345
0.00232282
0.00239578
0.00247167
0.00255044
0.00263029
0.00270836
0.0027919
0.00287761
0.00296575
0.00305291
0.0031375
0.00321579
0.00328447
0.00333942
0.00336863
0.00337795
0.00336666
0.00332157
0.00323886
0.00311812
0.00295774
0.00276111
0.00253283
0.00228154
0.00201843
0.00175175
0.00148918
0.00123507
0.000993327
0.000773619
0.000582422
0.000422588
0.00029468
0.000196828
0.000125834
7.59355e-05
3.68764e-05
4.92835e-06
5.9372e-06
4.94879e-05
0.000114919
0.000169631
0.000206828
0.000228814
0.000241035
0.000249509
0.000260259
0.000279207
0.000312126
0.000363703
0.000435572
0.000525901
0.000630686
0.000745774
0.000867948
0.00099457
0.00112312
0.00125147
0.00137798
0.00150189
0.00162098
0.00172995
0.00182387
0.00189889
0.00195236
0.00198969
0.00201851
0.00204589
0.00207599
0.00210794
0.00214248
0.00217695
0.00221506
0.00225586
0.00230117
0.00235083
0.00240592
0.00246639
0.00253207
0.00260359
0.00268036
0.00276256
0.0028501
0.00294286
0.00304008
0.00314307
0.00325154
0.00336389
0.00347912
0.00359499
0.00370926
0.00381862
0.00391927
0.00400646
0.00407498
0.00411245
0.00412374
0.00410526
0.00404212
0.00393379
0.00377592
0.00357061
0.00332018
0.00303235
0.00272344
0.00240229
0.00207926
0.00176478
0.00146771
0.00119477
0.000950892
0.000738519
0.000558488
0.000410041
0.000289907
0.00019054
9.69335e-05
1.31832e-05
1.03086e-05
8.31169e-05
0.000180364
0.000253261
0.000300958
0.000330592
0.000350708
0.000369831
0.00039631
0.000438291
0.00050299
0.000594825
0.000713535
0.000854405
0.00101064
0.00117575
0.00134404
0.00150992
0.00166736
0.00181049
0.00193364
0.00203484
0.00211142
0.00215621
0.00217521
0.0021796
0.00217455
0.00217149
0.00217078
0.00217591
0.00218665
0.00220068
0.00221986
0.00224386
0.0022732
0.00230757
0.0023476
0.00239316
0.00244424
0.00250115
0.00256385
0.00263263
0.00270734
0.00278796
0.00287407
0.00296607
0.00306483
0.00317005
0.00328133
0.00339777
0.00351837
0.00364149
0.00376503
0.00388611
0.00400115
0.00410569
0.00419453
0.00426005
0.00429122
0.00429688
0.00425998
0.00417824
0.00405352
0.00387942
0.00365239
0.00337356
0.00305981
0.00272184
0.00237516
0.00203394
0.00171021
0.00141269
0.00114647
0.000913561
0.000713977
0.000546064
0.000405459
0.000282526
0.000153962
2.19697e-05
1.65306e-05
0.000128013
0.000257828
0.000348146
0.000406507
0.000445207
0.000476209
0.000510879
0.00056008
0.000633721
0.000738936
0.000877581
0.00104511
0.00123229
0.00142844
0.0016234
0.00180785
0.00197292
0.00210943
0.00221315
0.00227299
0.00229598
0.00229766
0.00226722
0.00223669
0.00220928
0.00218699
0.00217201
0.00216495
0.00216272
0.00216424
0.00217114
0.00218264
0.00219839
0.0022183
0.00224233
0.00227035
0.00230207
0.00233749
0.00237683
0.00242013
0.00246784
0.00252074
0.00257956
0.00264524
0.00271783
0.00279706
0.00288342
0.00297706
0.00307809
0.00318628
0.0033011
0.00342155
0.00354607
0.00367251
0.00379747
0.00391632
0.00402347
0.00411231
0.00416706
0.00418678
0.00416556
0.00408707
0.00395307
0.00377217
0.00353382
0.00323845
0.00290417
0.00254835
0.00218947
0.00184469
0.00152731
0.001245
0.0010002
0.000791996
0.000617233
0.000470071
0.00033833
0.000192743
2.80583e-05
2.54034e-05
0.000187497
0.000351846
0.000460396
0.000530852
0.000580903
0.000626325
0.0006816
0.00075977
0.000870998
0.00101985
0.00120312
0.00141038
0.00162715
0.00183835
0.00203004
0.00219008
0.00231116
0.00237589
0.00239715
0.00238385
0.00233865
0.00229383
0.00224968
0.00220895
0.00217341
0.00214437
0.00212144
0.00210304
0.00208824
0.00207615
0.0020687
0.00206489
0.00206352
0.00206379
0.00206772
0.00207383
0.00208283
0.00209469
0.00210989
0.0021287
0.00215178
0.00217896
0.00221082
0.00224787
0.00229062
0.00233983
0.00239646
0.00246148
0.00253601
0.00262098
0.0027172
0.00282519
0.00294477
0.0030749
0.00321396
0.00335924
0.00350608
0.00364856
0.00377735
0.00388354
0.00393876
0.00395378
0.00390879
0.00379841
0.00362544
0.00337363
0.00306051
0.00270407
0.00232768
0.00195593
0.00160996
0.00130367
0.00104229
0.000824448
0.00064483
0.000495156
0.000360827
0.000210018
3.03122e-05
3.77048e-05
0.000263489
0.000464748
0.000592851
0.000677093
0.000740934
0.0008042
0.000884212
0.00099491
0.00114436
0.00133198
0.00154788
0.0017754
0.00199527
0.00218932
0.00234251
0.00243512
0.00246968
0.00246677
0.00241721
0.00236353
0.00230039
0.00223933
0.0021782
0.00212414
0.0020773
0.00203651
0.00199979
0.00196655
0.00193732
0.00191217
0.00188983
0.00186976
0.00185175
0.00183595
0.0018227
0.00181167
0.00180331
0.00179799
0.00179564
0.00179515
0.00179821
0.00180462
0.00181473
0.00182899
0.00184773
0.00187182
0.00190197
0.00193936
0.00198542
0.00204207
0.00211126
0.00219529
0.00229633
0.00241555
0.0025532
0.00271064
0.00288426
0.00306865
0.00325686
0.00344083
0.00360471
0.00372292
0.00377304
0.00377402
0.00368508
0.00351957
0.00325243
0.00290992
0.00251873
0.00211168
0.00172131
0.00137296
0.00107954
0.000841391
0.000651163
0.000496134
0.000359467
0.000208945
2.94458e-05
5.41534e-05
0.00035701
0.000597164
0.000746153
0.000845759
0.000925417
0.00100883
0.00111519
0.00125738
0.00143893
0.00165245
0.00188109
0.00210287
0.00229552
0.00244072
0.00251225
0.00253065
0.00249905
0.00244328
0.00236715
0.00228316
0.00219531
0.0021172
0.00204693
0.00198692
0.00193179
0.00188154
0.00183485
0.00179185
0.00175238
0.00171614
0.00168277
0.0016523
0.0016248
0.00160043
0.00157919
0.00156086
0.0015455
0.00153308
0.00152353
0.00151707
0.00151405
0.00151319
0.00151544
0.00152166
0.00153127
0.00154517
0.00156364
0.00158729
0.00161662
0.00165262
0.00169639
0.00174963
0.0018149
0.00189654
0.00200043
0.00213037
0.00229149
0.00248329
0.00269696
0.00292919
0.00316552
0.00339025
0.00357873
0.00367628
0.0037023
0.00364374
0.00347942
0.00318312
0.00279655
0.00235758
0.00191096
0.00149861
0.00114911
0.00087161
0.000658133
0.000491602
0.000350912
0.000202223
2.73772e-05
7.52482e-05
0.000467836
0.000748437
0.000919371
0.00103542
0.00113179
0.00123543
0.00136602
0.00153328
0.00173459
0.00195542
0.00217324
0.00236321
0.00249804
0.00255762
0.00256559
0.00252094
0.00245192
0.00235467
0.00224351
0.00214008
0.00204873
0.00196722
0.00189368
0.00182727
0.0017652
0.00170786
0.00165465
0.00160591
0.00156152
0.00152152
0.00148587
0.00145464
0.00142769
0.00140482
0.00138582
0.00137047
0.00135856
0.00134976
0.00134425
0.00134176
0.00134111
0.00134306
0.00134808
0.00135578
0.00136619
0.00137953
0.00139592
0.00141564
0.00143896
0.00146637
0.00149844
0.00153591
0.00157981
0.00163164
0.00169375
0.00176986
0.00186678
0.00199735
0.00217835
0.00240645
0.00266962
0.00295351
0.00323674
0.00348974
0.00363853
0.00368758
0.00365522
0.0034852
0.00314717
0.0027042
0.00220831
0.00171864
0.00128658
0.000940599
0.00068223
0.00049202
0.000337906
0.000188628
2.50315e-05
0.000101178
0.000594227
0.000916554
0.0011102
0.00124284
0.00135502
0.00147606
0.0016246
0.00180576
0.00201025
0.00221749
0.00240164
0.00252955
0.0025823
0.00258533
0.00253816
0.00245152
0.00233017
0.00220248
0.00208661
0.00198244
0.00188986
0.00180593
0.00172917
0.00165863
0.00159343
0.00153419
0.00148078
0.00143358
0.00139245
0.00135734
0.00132797
0.00130397
0.00128489
0.00127021
0.00125939
0.0012519
0.00124794
0.00124636
0.0012462
0.00124887
0.00125316
0.00125953
0.00126776
0.00127785
0.00128982
0.00130385
0.00132005
0.00133867
0.00135991
0.00138395
0.00141109
0.00144167
0.00147609
0.0015148
0.00155858
0.00160894
0.00166863
0.00174291
0.00184079
0.00197834
0.00218696
0.0024668
0.00278747
0.00312751
0.00344405
0.00364456
0.00371498
0.00369796
0.0035107
0.00311877
0.00260962
0.00205291
0.00152369
0.00108023
0.00074522
0.000508007
0.000332896
0.000176213
2.30887e-05
0.00013242
0.000732388
0.00109841
0.00131503
0.00146309
0.00158802
0.00172064
0.00187739
0.00205816
0.00224776
0.00242163
0.00254417
0.00259353
0.0025944
0.00254674
0.0024455
0.0023071
0.00216809
0.00203824
0.00192317
0.00181992
0.00172706
0.00164236
0.00156523
0.00149546
0.00143317
0.00137881
0.00133229
0.00129351
0.00126196
0.00123704
0.00121797
0.00120395
0.00119417
0.00118812
0.00118525
0.00118433
0.00118505
0.00118806
0.0011923
0.00119827
0.00120548
0.00121422
0.00122437
0.00123606
0.00124938
0.00126448
0.00128147
0.00130049
0.00132164
0.00134504
0.00137081
0.00139909
0.00143006
0.00146406
0.00150119
0.00154155
0.00158581
0.00163563
0.00169463
0.00177098
0.00187931
0.00204432
0.0023113
0.00266275
0.00304978
0.00342986
0.00367894
0.00376702
0.00375187
0.00353037
0.00307162
0.00248927
0.00187443
0.00131713
0.000875343
0.000558822
0.000342677
0.000172684
2.23896e-05
0.000170375
0.000877922
0.00129029
0.00152909
0.0016899
0.00182251
0.00195847
0.00211149
0.00227664
0.00243442
0.00255068
0.00259835
0.00259894
0.0025518
0.00244212
0.00229277
0.00214139
0.002
0.00187304
0.00176061
0.00165949
0.00156854
0.00148673
0.00141422
0.00135118
0.00129773
0.00125372
0.0012185
0.00119125
0.00117086
0.00115623
0.00114628
0.00114024
0.00113737
0.00113641
0.00113664
0.00113889
0.0011422
0.00114681
0.00115242
0.00115926
0.00116725
0.00117661
0.00118739
0.00119979
0.00121395
0.00123004
0.00124822
0.00126861
0.00129132
0.00131642
0.0013439
0.00137369
0.00140562
0.00143951
0.00147521
0.00151276
0.00155258
0.00159441
0.00163878
0.00168852
0.00175038
0.001838
0.00197618
0.00220689
0.00257331
0.00300013
0.00344209
0.00372979
0.00382842
0.00379793
0.00351926
0.00297973
0.00232144
0.00166086
0.00109378
0.000668446
0.000379586
0.000179887
2.31752e-05
0.000212496
0.00103093
0.00148807
0.00174689
0.00191642
0.00205009
0.00217971
0.00231644
0.0024517
0.00255798
0.00260357
0.00260464
0.00255814
0.00244598
0.00228981
0.00212659
0.00197316
0.00183519
0.00171303
0.00160474
0.00150813
0.00142284
0.00134862
0.00128571
0.00123391
0.00119265
0.00116089
0.00113728
0.0011204
0.00110884
0.00110135
0.00109713
0.00109521
0.00109461
0.00109478
0.00109633
0.0010988
0.0011021
0.00110634
0.00111155
0.00111793
0.00112558
0.00113471
0.00114546
0.00115804
0.00117263
0.00118942
0.00120859
0.00123031
0.00125474
0.00128196
0.00131202
0.00134483
0.00138021
0.00141775
0.00145694
0.0014971
0.00153766
0.00157845
0.00162004
0.00166186
0.00170588
0.00175795
0.00183068
0.00194827
0.00215421
0.00251596
0.00298166
0.00347785
0.00378772
0.00388456
0.00381722
0.00345169
0.00281655
0.00209165
0.00140542
0.000852732
0.000463416
0.00020575
2.6539e-05
0.000257578
0.00118772
0.00168677
0.00196255
0.00213589
0.00226317
0.00237648
0.00248519
0.00257543
0.00261604
0.00261695
0.00256983
0.0024594
0.00229968
0.00212644
0.00196032
0.00181076
0.00167882
0.00156291
0.00146113
0.00137242
0.00129679
0.00123399
0.00118361
0.00114456
0.00111539
0.00109433
0.00107964
0.00106973
0.00106323
0.00105912
0.00105662
0.00105522
0.00105457
0.00105441
0.00105501
0.00105636
0.00105851
0.00106166
0.00106591
0.00107145
0.00107847
0.00108715
0.00109765
0.00111016
0.00112488
0.00114201
0.00116174
0.00118428
0.00120984
0.00123859
0.00127069
0.00130617
0.00134498
0.00138682
0.00143115
0.00147712
0.00152357
0.00156924
0.00161314
0.00165533
0.00169616
0.00173635
0.00178129
0.00184392
0.00194905
0.00214297
0.00249487
0.00299593
0.00353747
0.00384288
0.00392067
0.00379132
0.00329524
0.00256731
0.00179089
0.00111043
0.000603425
0.000262118
3.46662e-05
0.000304149
0.00134415
0.00188128
0.00217036
0.00234214
0.00245565
0.00254346
0.00261259
0.00264398
0.00264143
0.00259117
0.00248452
0.00232397
0.00214274
0.00196396
0.00180143
0.00165875
0.00153453
0.00142687
0.00133448
0.00125683
0.00119359
0.0011438
0.00110605
0.00107839
0.00105872
0.00104504
0.00103558
0.00102896
0.00102415
0.00102045
0.00101745
0.00101494
0.00101286
0.00101138
0.00101072
0.00101058
0.00101142
0.0010135
0.00101688
0.00102171
0.0010282
0.00103647
0.00104671
0.00105907
0.00107372
0.00109087
0.00111071
0.00113349
0.00115943
0.0011888
0.00122186
0.00125881
0.00129979
0.00134476
0.00139345
0.00144521
0.00149891
0.00155287
0.00160501
0.0016533
0.00169675
0.00173527
0.00177213
0.00181388
0.00186959
0.0019687
0.0021567
0.00251197
0.0030483
0.00361458
0.00388557
0.00392461
0.00369095
0.00303935
0.00221774
0.00142475
0.000791831
0.00034747
4.77332e-05
0.000350852
0.00149624
0.00206692
0.00236536
0.00253007
0.00262325
0.00267556
0.00269563
0.00268416
0.00262702
0.00252395
0.00236432
0.00217714
0.0019862
0.00180932
0.00165395
0.00151999
0.00140522
0.00130804
0.00122744
0.00116265
0.00111243
0.00107487
0.00104767
0.00102838
0.00101478
0.00100498
0.00099757
0.000991545
0.000986291
0.000981481
0.000976999
0.000972877
0.000969235
0.000966247
0.000964169
0.000963214
0.000963021
0.000964238
0.00096706
0.000971443
0.000977574
0.000985585
0.000995603
0.00100778
0.00102226
0.00103922
0.00105887
0.00108143
0.00110717
0.00113638
0.00116939
0.00120654
0.00124815
0.00129448
0.00134558
0.00140125
0.00146081
0.00152291
0.0015854
0.00164533
0.00169936
0.00174652
0.00178369
0.00181225
0.00185003
0.00190461
0.00200156
0.00219208
0.00256553
0.00314457
0.00369636
0.0039227
0.00388421
0.00345936
0.00265476
0.00177548
0.00101708
0.000454279
6.45762e-05
0.000396721
0.00163967
0.00224002
0.00254433
0.00269502
0.00275766
0.00277204
0.00274855
0.00268257
0.0025811
0.00242266
0.00223126
0.00202908
0.00183678
0.00166626
0.00152013
0.00139639
0.00129276
0.00120776
0.00114011
0.00108817
0.00104968
0.00102195
0.00100223
0.000988052
0.000977415
0.000968852
0.000961394
0.000954476
0.000947841
0.000941441
0.000935359
0.000929751
0.000924801
0.000920699
0.000917616
0.000915996
0.00091543
0.000915976
0.000918512
0.00092264
0.000928564
0.000936396
0.000946239
0.000958221
0.000972475
0.000989158
0.00100845
0.00103058
0.00105578
0.00108437
0.00111671
0.00115318
0.00119424
0.00124033
0.00129182
0.00134896
0.00141161
0.00147913
0.00155
0.00162161
0.00169011
0.00175072
0.00180209
0.00183882
0.00185803
0.0018909
0.0019463
0.00204543
0.00224752
0.00265448
0.00327689
0.00377007
0.00392572
0.00374855
0.00307379
0.00214864
0.00127001
0.000576252
8.41392e-05
0.000440826
0.00177318
0.002397
0.00269978
0.00283035
0.00286452
0.00284209
0.00277011
0.00265894
0.00250159
0.0023069
0.00209464
0.00188638
0.0016982
0.00153667
0.00140117
0.00128891
0.00119761
0.00112546
0.00107039
0.00102979
0.0010006
0.000979746
0.00096451
0.000952727
0.00094286
0.000933926
0.000925392
0.000917043
0.000908875
0.000901008
0.000893617
0.000886899
0.000881042
0.000876216
0.000872569
0.000870552
0.000869794
0.000869958
0.000872317
0.000876286
0.000882062
0.000889739
0.00089941
0.000911187
0.000925188
0.000941556
0.000960452
0.000982074
0.00100665
0.00103448
0.00106588
0.00110129
0.00114117
0.00118607
0.00123657
0.00129322
0.0013564
0.00142615
0.00150185
0.00158186
0.00166307
0.00174064
0.00180811
0.00186379
0.00189447
0.00190862
0.00193588
0.00199349
0.00209997
0.00232577
0.00279121
0.00345517
0.0038145
0.00386047
0.00344809
0.00253431
0.00154651
0.000709411
0.00010549
0.000481449
0.00189321
0.00253291
0.0028293
0.0029377
0.00294781
0.00288268
0.00276314
0.00260571
0.00240631
0.00218496
0.00196083
0.00175289
0.00157229
0.00142132
0.00129743
0.00119746
0.00111882
0.001059
0.00101498
0.000983373
0.000960735
0.000944042
0.000930919
0.000919698
0.000909344
0.000899314
0.000889413
0.000879663
0.000870201
0.000861218
0.000852912
0.000845469
0.000839052
0.000833799
0.000829826
0.000827539
0.000826644
0.000826629
0.000828791
0.000832607
0.000838214
0.000845705
0.000855169
0.000866707
0.000880432
0.000896471
0.000914974
0.000936113
0.000960099
0.000987184
0.00101768
0.00105197
0.00109051
0.00113388
0.00118273
0.00123777
0.00129973
0.0013692
0.00144634
0.00153062
0.00162019
0.00171144
0.00179843
0.00187292
0.00192844
0.00195158
0.00196135
0.00198423
0.00204603
0.00216664
0.00243706
0.00298728
0.00361341
0.00385734
0.00369005
0.00291144
0.00184286
0.000851219
0.000127942
0.00051714
0.00199681
0.00264561
0.00293271
0.00302215
0.00300483
0.00289775
0.0027377
0.00253318
0.00230238
0.00206289
0.00183385
0.00163061
0.00145968
0.00132021
0.00120849
0.00112095
0.00105442
0.00100548
0.000970347
0.000945206
0.000926655
0.000912023
0.000899439
0.000887754
0.000876377
0.0008651
0.00085395
0.000843074
0.000832668
0.00082293
0.000814038
0.000806149
0.00079939
0.000793868
0.000789674
0.000787135
0.000786071
0.000785947
0.000787821
0.00079143
0.000796804
0.000804043
0.000813239
0.00082449
0.000837904
0.000853603
0.000871724
0.000892424
0.000915889
0.000942342
0.000972056
0.00100537
0.0010427
0.00108459
0.00113166
0.00118472
0.00124462
0.00131229
0.0013885
0.0014736
0.00156703
0.00166668
0.00176812
0.00186395
0.00194359
0.00199469
0.00200969
0.00201469
0.00203572
0.00210388
0.00225058
0.00259622
0.00323342
0.00369644
0.00377746
0.00325975
0.00215358
0.000996941
0.00015141
0.000547114
0.00208287
0.00273482
0.00301098
0.00308461
0.00303714
0.00289109
0.00268915
0.00245
0.00219532
0.00194477
0.00171603
0.00152035
0.00136029
0.00123276
0.00113323
0.00105759
0.00100187
0.000961878
0.000933347
0.000912439
0.00089608
0.000882106
0.000869177
0.000856597
0.000844113
0.000831735
0.000819608
0.000807927
0.000796887
0.000786662
0.000777397
0.000769213
0.000762205
0.000756459
0.000752045
0.000749199
0.00074792
0.000747658
0.00074915
0.000752467
0.000757529
0.000764441
0.000773302
0.000784208
0.000797271
0.000812606
0.000830347
0.000850638
0.000873649
0.000899576
0.000928659
0.00096119
0.000997537
0.00103817
0.00108368
0.00113481
0.00119248
0.00125775
0.00133174
0.00141545
0.00150939
0.00161295
0.00172357
0.00183579
0.00194031
0.00202116
0.00205966
0.00206734
0.00206796
0.00208947
0.0021696
0.00236323
0.00283265
0.00348727
0.00375493
0.00351604
0.00246792
0.00114438
0.000175651
0.000570943
0.00215138
0.00280156
0.00306582
0.00312469
0.00304734
0.00286955
0.0026289
0.00236112
0.00208918
0.00183323
0.00160846
0.00142212
0.00127351
0.00115791
0.00107009
0.00100525
0.000958654
0.000925557
0.000901584
0.000883158
0.000867698
0.000853574
0.000839915
0.000826376
0.000812925
0.000799692
0.000786866
0.00077464
0.000763181
0.000752628
0.000743093
0.000734665
0.00072742
0.000721427
0.00071675
0.000713515
0.000711952
0.000711506
0.00071253
0.000715471
0.000720146
0.000726662
0.000735124
0.000745632
0.000758297
0.000773238
0.000790584
0.000810476
0.000833071
0.000858548
0.000887118
0.000919037
0.000954622
0.000994276
0.00103852
0.00108803
0.00114367
0.0012065
0.00127781
0.00135896
0.00145118
0.00155508
0.00166983
0.00179214
0.00191508
0.00202731
0.00210077
0.00212348
0.00212441
0.00211761
0.00214653
0.00224995
0.00252873
0.00313704
0.00358879
0.00362753
0.00278437
0.00130616
0.000202267
0.000588558
0.00220305
0.00284723
0.00309915
0.00314443
0.00304069
0.00283041
0.0025605
0.00227032
0.0019868
0.00172978
0.00151148
0.00133544
0.00119837
0.0010943
0.00101728
0.000961799
0.000922519
0.000894455
0.000873401
0.000856225
0.00084088
0.000826225
0.000811757
0.000797371
0.000783164
0.000769313
0.000756006
0.000743407
0.000731649
0.000720839
0.000711059
0.00070238
0.000694864
0.000688572
0.000683567
0.000679915
0.000677971
0.000677296
0.000677798
0.00068029
0.000684523
0.000690589
0.0006986
0.000708661
0.000720886
0.000735396
0.000752322
0.000771802
0.000793989
0.000819051
0.000847182
0.000878607
0.000913603
0.000952517
0.000995797
0.00104403
0.00109799
0.00115868
0.00122738
0.00130562
0.00139506
0.00149717
0.00161254
0.00173981
0.00187419
0.00200577
0.00211847
0.00217778
0.00218823
0.00217342
0.00216084
0.00220851
0.00236207
0.00280391
0.00343132
0.00364607
0.00309472
0.00150719
0.000236425
0.000600253
0.00223887
0.00287288
0.00311126
0.00314369
0.00302061
0.00278172
0.00248755
0.00218047
0.00189003
0.00163513
0.00142487
0.00125953
0.00113373
0.00104044
0.000973025
0.000925337
0.000891679
0.000867102
0.000847764
0.000831046
0.000815407
0.000800103
0.000784901
0.00076984
0.000755075
0.000740788
0.00072714
0.000714263
0.000702258
0.000691203
0.000681164
0.0006722
0.000664369
0.000657729
0.000652342
0.00064827
0.000645842
0.000644892
0.000644894
0.000646876
0.000650629
0.000656209
0.000663734
0.00067331
0.000685057
0.000699099
0.00071557
0.00073461
0.000756371
0.000781018
0.000808735
0.000839728
0.000874246
0.000912589
0.000955144
0.00100241
0.00105507
0.00111402
0.00118045
0.00125588
0.00134218
0.00144135
0.00155511
0.00168398
0.00182589
0.00197434
0.00211653
0.00221532
0.00224962
0.00224831
0.00221422
0.00220311
0.0022825
0.00254313
0.00315891
0.00353521
0.00333999
0.00176217
0.00028251
0.000606033
0.00225919
0.00287966
0.00310779
0.00313209
0.00298592
0.00272595
0.00241283
0.00209365
0.00179999
0.00154946
0.00134813
0.00119345
0.00107833
0.000994853
0.000935708
0.0008943
0.000864809
0.000842529
0.000824082
0.000807363
0.00079126
0.000775335
0.000759527
0.000743954
0.000728785
0.00071418
0.00070027
0.000687154
0.000674908
0.000663595
0.000653271
0.000643991
0.000635813
0.000628798
0.000623014
0.000618532
0.000615544
0.000614165
0.000613869
0.000615257
0.00061851
0.000623587
0.000630603
0.000639669
0.000650907
0.000664446
0.000680422
0.000698983
0.000720282
0.000744487
0.000771778
0.000802354
0.000836443
0.000874316
0.000916309
0.000962856
0.00101453
0.00107213
0.0011367
0.0012097
0.00129296
0.00138874
0.00149938
0.00162668
0.00177057
0.00192715
0.00208626
0.00222959
0.00230648
0.00231992
0.00228848
0.00224854
0.00225784
0.00240298
0.00287772
0.00339594
0.00345613
0.00206686
0.000340309
0.000605635
0.0022668
0.00287463
0.00309304
0.0031057
0.00294234
0.00266575
0.00233849
0.0020113
0.00171726
0.0014726
0.00128056
0.00113618
0.00103096
0.000956169
0.000903967
0.000867483
0.000840983
0.000820134
0.000802054
0.000785097
0.0007685
0.000752037
0.000735754
0.000719797
0.000704325
0.000689469
0.00067533
0.000661982
0.000649487
0.000637897
0.000627266
0.000617649
0.000609108
0.000601708
0.00059552
0.000590621
0.000587094
0.000585274
0.0005847
0.000585509
0.000588255
0.000592826
0.000599326
0.000607866
0.000618572
0.000631576
0.00064702
0.000665057
0.000685848
0.000709564
0.00073639
0.000766524
0.000800186
0.000837629
0.000879154
0.000925138
0.000976079
0.00103265
0.00109579
0.00116679
0.00124741
0.00133993
0.0014471
0.00157169
0.00171548
0.00187745
0.00205107
0.00222166
0.00234472
0.00238676
0.00237843
0.00230332
0.0022676
0.0023324
0.00263686
0.0032555
0.0034845
0.00240981
0.000407408
0.000602375
0.00226471
0.00285835
0.003063
0.00306697
0.00289181
0.0026032
0.00226614
0.00193435
0.00164207
0.00140415
0.00122137
0.00108671
0.000990455
0.000923204
0.000876706
0.000843998
0.000819583
0.000799567
0.000781541
0.000764249
0.000747192
0.000730287
0.000713634
0.000697382
0.000681666
0.000666591
0.000652232
0.000638648
0.000625891
0.000614012
0.000603063
0.000593106
0.000584204
0.000576425
0.000569844
0.000564533
0.000560567
0.000558281
0.000557431
0.000557721
0.000559967
0.000564041
0.000570027
0.000578037
0.000588196
0.00060064
0.000615517
0.000632985
0.000653215
0.000676386
0.00070269
0.000732333
0.000765535
0.00080254
0.000843629
0.000889141
0.000939509
0.000995313
0.00105736
0.00112678
0.00120519
0.00129476
0.00139832
0.00151915
0.00166029
0.00182291
0.00200353
0.00219032
0.00235958
0.0024463
0.00245964
0.00240237
0.00231786
0.00230907
0.00247622
0.00303172
0.0034028
0.00275132
0.000476743
0.000595201
0.00225585
0.00282827
0.00302292
0.00301959
0.00283637
0.00253997
0.00219695
0.00186334
0.00157433
0.00134359
0.00116976
0.00104406
0.000955794
0.000894968
0.000853074
0.00082321
0.000800209
0.000780628
0.000762483
0.000744835
0.000727376
0.000710112
0.000693167
0.000676675
0.000660748
0.000645465
0.000630887
0.000617062
0.000604038
0.000591869
0.00058061
0.000570326
0.000561084
0.000552956
0.000546015
0.000540335
0.000535991
0.000533238
0.000532077
0.000531987
0.000533741
0.000537336
0.00054282
0.000550302
0.000559907
0.000571772
0.000586051
0.00060291
0.000622527
0.000645093
0.000670811
0.000699897
0.00073258
0.000769106
0.000809748
0.00085482
0.00090471
0.000959921
0.00102115
0.00108937
0.00116602
0.0012531
0.0013534
0.00147045
0.00160817
0.00176969
0.00195495
0.0021569
0.00235711
0.00249335
0.0025329
0.00250456
0.00237896
0.00231864
0.00239668
0.00282304
0.00326814
0.00302067
0.000532487
0.00058405
0.00223727
0.00278943
0.00297533
0.00296554
0.00277772
0.00247734
0.0021317
0.00179854
0.00151385
0.00129035
0.00112493
0.00100737
0.00092609
0.000870658
0.000832429
0.000804674
0.000782604
0.000763204
0.000744855
0.000726865
0.000709063
0.000691505
0.000674318
0.000657619
0.000641495
0.000626011
0.000611213
0.000597149
0.000583865
0.000571419
0.000559871
0.000549289
0.000539744
0.000531309
0.000524057
0.000518062
0.000513399
0.000510212
0.000508704
0.000508366
0.000509648
0.000512785
0.000517786
0.00052475
0.0005338
0.000545076
0.000558735
0.000574949
0.000593906
0.000615809
0.000640875
0.000669333
0.000701426
0.00073741
0.000777561
0.000822182
0.000871631
0.000926356
0.000986954
0.00105427
0.00112955
0.00121461
0.00131203
0.00142535
0.00155892
0.00171709
0.00190214
0.00211062
0.00232855
0.00251627
0.00259786
0.00260002
0.00248857
0.00236517
0.00235959
0.00264997
0.00314295
0.00314841
0.000558074
0.00056956
0.00221203
0.00274377
0.00292168
0.0029068
0.00271732
0.00241632
0.00207093
0.00174002
0.00146028
0.00124382
0.00108615
0.00097584
0.000900595
0.000849634
0.000814291
0.00078808
0.000766598
0.000747222
0.000728634
0.000710332
0.000692236
0.00067443
0.000657034
0.000640146
0.000623835
0.000608153
0.000593143
0.00057885
0.000565325
0.000552628
0.000540824
0.000529984
0.000520181
0.000511488
0.000503976
0.000497717
0.00049278
0.000489241
0.000487407
0.000486856
0.00048772
0.00049043
0.000494971
0.000501432
0.000509933
0.000520616
0.000533639
0.000549182
0.00056744
0.000588629
0.000612979
0.000640739
0.000672166
0.000707535
0.00074713
0.000791259
0.000840264
0.000894554
0.000954653
0.00102129
0.00109554
0.001179
0.00127405
0.00138408
0.00151363
0.00166798
0.00185155
0.00206442
0.00229672
0.00252236
0.00265696
0.00268471
0.00260438
0.00241885
0.00235056
0.00249806
0.00303661
0.00318433
0.000562489
0.000552554
0.00218219
0.002693
0.00286346
0.00284494
0.00265634
0.00235761
0.00201492
0.00168767
0.00141323
0.00120343
0.00105274
0.0009488
0.000878691
0.000831393
0.0007983
0.000773204
0.000752075
0.000732628
0.000713793
0.00069521
0.000676859
0.000658837
0.000641253
0.000624188
0.000607699
0.000591829
0.00057662
0.000562118
0.000548379
0.000535466
0.000523447
0.000512396
0.000502386
0.000493486
0.000485767
0.000479293
0.000474127
0.000470332
0.000468196
0.00046745
0.000467955
0.000470272
0.000474378
0.000480356
0.000488321
0.000498413
0.000510794
0.000525647
0.000543177
0.00056361
0.000587192
0.000614188
0.000644877
0.000679552
0.000718518
0.000762094
0.000810622
0.000864487
0.000924162
0.000990282
0.00106377
0.001146
0.00123911
0.00134626
0.00147192
0.00162184
0.00180194
0.00201546
0.00225763
0.00250884
0.0026996
0.00276083
0.00271968
0.00252174
0.00237987
0.00242449
0.00287074
0.00315643
0.000551314
0.000533695
0.00214953
0.00263871
0.00280212
0.0027813
0.00259573
0.00230173
0.00196379
0.00164132
0.00137231
0.00116863
0.00102412
0.000925666
0.000859868
0.00081554
0.000784185
0.000759884
0.000738945
0.000719374
0.000700298
0.000681461
0.000662884
0.000644669
0.000626911
0.00060968
0.000593024
0.000576982
0.000561595
0.000546913
0.000532994
0.000519905
0.000507718
0.000496505
0.000486338
0.000477286
0.000469411
0.000462774
0.000457431
0.000453436
0.000451032
0.000450109
0.000450314
0.000452275
0.000455975
0.000461492
0.000468937
0.000478448
0.000490189
0.000504345
0.000521128
0.000540774
0.000563544
0.000589721
0.000619605
0.000653514
0.000691775
0.000734728
0.000782725
0.000836147
0.00089543
0.000961137
0.00103406
0.00111539
0.00120699
0.00131175
0.00143396
0.00157952
0.00175538
0.00196718
0.00221401
0.00248058
0.00272071
0.00282789
0.00282273
0.0026416
0.00242339
0.00239456
0.00272485
0.00308521
0.000532375
0.000513611
0.00211477
0.00258214
0.00273887
0.00271696
0.00253622
0.00224901
0.00191754
0.00160069
0.00133709
0.00113892
0.000999761
0.000905946
0.000843713
0.000801764
0.000771737
0.000747991
0.000727133
0.000707411
0.000688105
0.000669038
0.000650258
0.000631866
0.000613948
0.000596564
0.000579756
0.000563562
0.000548024
0.000533194
0.000519134
0.000505914
0.000493604
0.000482279
0.000472006
0.00046285
0.00045487
0.000448119
0.000442646
0.000438498
0.000435856