/*--------------------------------*- C++ -*----------------------------------*\
  =========                 |
  \\      /  F ield         | OpenFOAM: The Open Source CFD Toolbox
   \\    /   O peration     | Website:  https://openfoam.org
    \\  /    A nd           | Version:  13
     \\/     M anipulation  |
\*---------------------------------------------------------------------------*/
FoamFile
{
    format      ascii;
    class       volScalarField;
    location    "8";
    object      nut;
}
// * * * * * * * * * * * * * * * * * * * * * * * * * * * * * * * * * * * * * //

dimensions      [0 2 -1 0 0 0 0];

internalField   nonuniform List<scalar> 
6400
(
9.86953e-10
5.07092e-09
1.23263e-08
1.98532e-08
2.55249e-08
2.87141e-08
2.98855e-08
3.00229e-08
3.02267e-08
3.13602e-08
3.40731e-08
3.93151e-08
4.75476e-08
5.89348e-08
7.28641e-08
8.85622e-08
1.0523e-07
1.22549e-07
1.39711e-07
1.56316e-07
1.73043e-07
1.91337e-07
2.13127e-07
2.39544e-07
2.69461e-07
2.99653e-07
3.29649e-07
3.59418e-07
3.89882e-07
4.21862e-07
4.54923e-07
4.87949e-07
5.20413e-07
5.52413e-07
5.84766e-07
6.17662e-07
6.51782e-07
6.87336e-07
7.24759e-07
7.6416e-07
8.05827e-07
8.50078e-07
8.97164e-07
9.47655e-07
1.00196e-06
1.06196e-06
1.13117e-06
1.21712e-06
1.30325e-06
1.39113e-06
1.47711e-06
1.56061e-06
1.63895e-06
1.70997e-06
1.77103e-06
1.81898e-06
1.84339e-06
1.85307e-06
1.84929e-06
1.81369e-06
1.75092e-06
1.66114e-06
1.54536e-06
1.40832e-06
1.25248e-06
1.086e-06
9.16884e-07
7.51645e-07
5.96374e-07
4.58311e-07
3.4591e-07
2.51606e-07
1.75452e-07
1.17271e-07
7.53927e-08
4.68558e-08
2.82383e-08
1.62371e-08
7.68641e-09
1.63881e-09
4.77198e-09
3.37023e-07
1.21277e-06
2.04331e-06
2.65676e-06
3.01847e-06
3.18627e-06
3.24789e-06
3.28753e-06
3.36674e-06
3.56117e-06
3.9373e-06
4.46477e-06
5.07596e-06
5.70878e-06
6.3016e-06
6.80992e-06
7.18629e-06
7.41747e-06
7.51922e-06
7.57282e-06
7.64379e-06
7.79954e-06
8.06653e-06
8.38307e-06
8.59455e-06
8.7984e-06
9.03156e-06
9.34044e-06
9.76333e-06
1.03054e-05
1.09017e-05
1.15471e-05
1.22122e-05
1.29156e-05
1.36424e-05
1.44019e-05
1.51884e-05
1.60085e-05
1.68575e-05
1.77293e-05
1.86297e-05
1.95564e-05
2.05339e-05
2.15267e-05
2.25027e-05
2.3435e-05
2.42686e-05
2.51361e-05
2.60115e-05
2.68975e-05
2.77744e-05
2.86283e-05
2.94382e-05
3.01818e-05
3.09102e-05
3.13608e-05
3.16549e-05
3.18474e-05
3.18181e-05
3.14547e-05
3.07886e-05
2.97926e-05
2.84587e-05
2.67868e-05
2.48322e-05
2.2689e-05
2.03794e-05
1.79361e-05
1.52849e-05
1.23929e-05
9.60658e-06
7.15022e-06
5.12778e-06
3.55721e-06
2.42122e-06
1.6208e-06
1.04958e-06
4.75628e-07
8.66294e-09
1.04369e-08
8.70832e-07
3.51664e-06
6.10657e-06
8.08916e-06
9.37878e-06
1.0107e-05
1.04786e-05
1.06981e-05
1.09448e-05
1.13566e-05
1.20084e-05
1.28755e-05
1.38594e-05
1.48336e-05
1.56901e-05
1.63796e-05
1.68772e-05
1.71823e-05
1.73098e-05
1.72812e-05
1.71924e-05
1.71212e-05
1.71061e-05
1.71832e-05
1.74414e-05
1.77606e-05
1.80861e-05
1.84355e-05
1.88065e-05
1.92956e-05
1.99815e-05
2.09688e-05
2.19725e-05
2.31116e-05
2.43056e-05
2.55797e-05
2.68734e-05
2.82215e-05
2.96616e-05
3.1057e-05
3.2497e-05
3.39043e-05
3.52407e-05
3.65172e-05
3.77686e-05
3.89835e-05
4.02058e-05
4.14369e-05
4.26666e-05
4.3888e-05
4.50884e-05
4.62521e-05
4.73589e-05
4.83821e-05
4.92871e-05
5.00765e-05
5.06031e-05
5.08415e-05
5.10018e-05
5.08257e-05
5.03308e-05
4.94732e-05
4.81413e-05
4.62508e-05
4.38221e-05
4.10482e-05
3.79148e-05
3.44362e-05
3.06488e-05
2.66073e-05
2.24518e-05
1.83791e-05
1.45916e-05
1.12597e-05
8.44042e-06
6.20325e-06
4.27749e-06
1.7847e-06
2.3173e-08
1.81212e-08
1.42449e-06
5.49834e-06
9.39152e-06
1.24032e-05
1.44727e-05
1.57566e-05
1.64812e-05
1.69023e-05
1.72544e-05
1.7735e-05
1.84678e-05
1.94322e-05
2.04897e-05
2.14806e-05
2.22918e-05
2.2864e-05
2.3194e-05
2.33113e-05
2.32738e-05
2.31473e-05
2.3041e-05
2.3021e-05
2.31237e-05
2.31778e-05
2.31893e-05
2.31638e-05
2.3557e-05
2.42919e-05
2.52707e-05
2.65536e-05
2.777e-05
2.89746e-05
3.02607e-05
3.15798e-05
3.28754e-05
3.4177e-05
3.55436e-05
3.68369e-05
3.8121e-05
3.93541e-05
4.057e-05
4.17375e-05
4.28658e-05
4.39479e-05
4.50027e-05
4.60579e-05
4.71137e-05
4.81666e-05
4.92109e-05
5.02398e-05
5.12429e-05
5.22075e-05
5.31167e-05
5.39507e-05
5.4686e-05
5.52968e-05
5.57603e-05
5.60006e-05
5.60592e-05
5.58971e-05
5.53831e-05
5.4599e-05
5.38011e-05
5.24984e-05
5.05643e-05
4.81809e-05
4.53102e-05
4.2026e-05
3.83763e-05
3.44054e-05
3.01788e-05
2.58057e-05
2.14489e-05
1.73118e-05
1.35574e-05
1.02944e-05
7.22428e-06
2.9995e-06
3.86178e-08
2.90585e-08
2.1354e-06
7.62038e-06
1.26175e-05
1.6347e-05
1.88574e-05
2.03897e-05
2.12325e-05
2.17027e-05
2.21254e-05
2.27559e-05
2.36801e-05
2.47966e-05
2.591e-05
2.68451e-05
2.75038e-05
2.78667e-05
2.79735e-05
2.78797e-05
2.77053e-05
2.74511e-05
2.72748e-05
2.71154e-05
2.64891e-05
2.6428e-05
2.69497e-05
2.78959e-05
2.9032e-05
3.01928e-05
3.14944e-05
3.2766e-05
3.39992e-05
3.52122e-05
3.63948e-05
3.74896e-05
3.85124e-05
3.95389e-05
4.04957e-05
4.13231e-05
4.2102e-05
4.27985e-05
4.34455e-05
4.40578e-05
4.46635e-05
4.52858e-05
4.5922e-05
4.65547e-05
4.71948e-05
4.78435e-05
4.85043e-05
4.91787e-05
4.98669e-05
5.0567e-05
5.12742e-05
5.19815e-05
5.26766e-05
5.33412e-05
5.39455e-05
5.44571e-05
5.48182e-05
5.4957e-05
5.48478e-05
5.43158e-05
5.3199e-05
5.23924e-05
5.12223e-05
4.94003e-05
4.70819e-05
4.43308e-05
4.1199e-05
3.77236e-05
3.39297e-05
2.98526e-05
2.55809e-05
2.132e-05
1.72376e-05
1.34042e-05
9.43472e-06
3.84918e-06
4.93203e-08
4.46556e-08
3.08997e-06
1.01222e-05
1.6137e-05
2.03688e-05
2.3057e-05
2.45922e-05
2.53888e-05
2.58733e-05
2.64247e-05
2.72546e-05
2.83447e-05
2.95126e-05
3.05422e-05
3.12805e-05
3.16672e-05
3.17202e-05
3.15659e-05
3.11462e-05
3.08278e-05
3.02929e-05
2.94168e-05
2.92741e-05
2.99722e-05
3.09345e-05
3.19482e-05
3.31082e-05
3.42671e-05
3.53773e-05
3.64473e-05
3.73701e-05
3.82428e-05
3.90468e-05
3.97417e-05
4.03003e-05
4.07973e-05
4.11966e-05
4.1591e-05
4.189e-05
4.21517e-05
4.23849e-05
4.26081e-05
4.28124e-05
4.30065e-05
4.31953e-05
4.33782e-05
4.35609e-05
4.37516e-05
4.39591e-05
4.41939e-05
4.44673e-05
4.47912e-05
4.5178e-05
4.56363e-05
4.61659e-05
4.67659e-05
4.74439e-05
4.81722e-05
4.89195e-05
4.96315e-05
5.03018e-05
5.07185e-05
5.08608e-05
5.06832e-05
4.98389e-05
4.93495e-05
4.81328e-05
4.63645e-05
4.41057e-05
4.14443e-05
3.84554e-05
3.51716e-05
3.15762e-05
2.76403e-05
2.35122e-05
1.9322e-05
1.52134e-05
1.07435e-05
4.25899e-06
5.32823e-08
6.62796e-08
4.33137e-06
1.30343e-05
1.99504e-05
2.4488e-05
2.71607e-05
2.85574e-05
2.92506e-05
2.97602e-05
3.04474e-05
3.14179e-05
3.25477e-05
3.36111e-05
3.44095e-05
3.48397e-05
3.49e-05
3.4429e-05
3.39775e-05
3.35075e-05
3.23219e-05
3.19888e-05
3.24683e-05
3.33167e-05
3.408e-05
3.49723e-05
3.58631e-05
3.67618e-05
3.7539e-05
3.82144e-05
3.88107e-05
3.93337e-05
3.977e-05
4.01089e-05
4.03572e-05
4.05312e-05
4.06576e-05
4.07352e-05
4.07868e-05
4.07864e-05
4.07817e-05
4.07733e-05
4.07224e-05
4.06705e-05
4.05935e-05
4.05138e-05
4.04137e-05
4.03075e-05
4.01898e-05
4.00705e-05
3.99555e-05
3.98601e-05
3.98017e-05
3.98094e-05
3.99261e-05
4.01716e-05
4.05244e-05
4.10724e-05
4.18068e-05
4.26937e-05
4.36638e-05
4.47232e-05
4.57283e-05
4.6616e-05
4.70395e-05
4.71183e-05
4.65947e-05
4.63291e-05
4.51092e-05
4.32458e-05
4.08699e-05
3.81304e-05
3.51426e-05
3.19441e-05
2.8449e-05
2.45379e-05
2.05043e-05
1.61284e-05
1.10417e-05
4.24933e-06
5.17594e-08
9.51935e-08
5.87831e-06
1.62846e-05
2.39521e-05
2.86148e-05
3.11425e-05
3.23386e-05
3.29239e-05
3.34573e-05
3.42226e-05
3.52086e-05
3.62178e-05
3.70168e-05
3.74415e-05
3.74422e-05
3.69117e-05
3.64381e-05
3.53841e-05
3.46432e-05
3.45967e-05
3.51272e-05
3.55137e-05
3.61356e-05
3.67483e-05
3.74815e-05
3.80994e-05
3.86494e-05
3.90682e-05
3.94029e-05
3.96529e-05
3.98301e-05
3.99389e-05
3.99919e-05
4.00054e-05
3.99935e-05
3.99666e-05
3.9925e-05
3.98739e-05
3.98112e-05
3.97476e-05
3.96403e-05
3.95679e-05
3.9506e-05
3.93391e-05
3.9222e-05
3.90585e-05
3.88926e-05
3.87027e-05
3.84956e-05
3.82649e-05
3.80117e-05
3.77311e-05
3.742e-05
3.70722e-05
3.67358e-05
3.65475e-05
3.65179e-05
3.68119e-05
3.7493e-05
3.83421e-05
3.95159e-05
4.0818e-05
4.21801e-05
4.34496e-05
4.41946e-05
4.43506e-05
4.41854e-05
4.40689e-05
4.26799e-05
4.05563e-05
3.78939e-05
3.49034e-05
3.17667e-05
2.85415e-05
2.50059e-05
2.09868e-05
1.6637e-05
1.12149e-05
4.13893e-06
4.81232e-08
1.32275e-07
7.71278e-06
1.9783e-05
2.79854e-05
3.26577e-05
3.49688e-05
3.59449e-05
3.64203e-05
3.69376e-05
3.76792e-05
3.85394e-05
3.92887e-05
3.97217e-05
3.9559e-05
3.90603e-05
3.85564e-05
3.72408e-05
3.67306e-05
3.67712e-05
3.68262e-05
3.70886e-05
3.75093e-05
3.80133e-05
3.84698e-05
3.8908e-05
3.92123e-05
3.94425e-05
3.95766e-05
3.96609e-05
3.96973e-05
3.97081e-05
3.97027e-05
3.9695e-05
3.9692e-05
3.9696e-05
3.97065e-05
3.97208e-05
3.97361e-05
3.97439e-05
3.97362e-05
3.97284e-05
3.97205e-05
3.96656e-05
3.9596e-05
3.9518e-05
3.94049e-05
3.92733e-05
3.91106e-05
3.89189e-05
3.86909e-05
3.84261e-05
3.81171e-05
3.77569e-05
3.73396e-05
3.68546e-05
3.63002e-05
3.56721e-05
3.49894e-05
3.44256e-05
3.4537e-05
3.52588e-05
3.63831e-05
3.78637e-05
3.9483e-05
4.10961e-05
4.20826e-05
4.23151e-05
4.23973e-05
4.23911e-05
4.07376e-05
3.82604e-05
3.51904e-05
3.18239e-05
2.84239e-05
2.49986e-05
2.11883e-05
1.66769e-05
1.09634e-05
3.8491e-06
4.4e-08
1.77855e-07
9.75401e-06
2.33551e-05
3.19718e-05
3.65602e-05
3.86145e-05
3.93603e-05
3.97014e-05
4.01287e-05
4.0728e-05
4.13337e-05
4.17194e-05
4.14436e-05
4.08781e-05
4.02887e-05
3.91995e-05
3.86274e-05
3.83762e-05
3.81336e-05
3.8278e-05
3.85177e-05
3.88296e-05
3.91237e-05
3.93441e-05
3.95051e-05
3.95747e-05
3.96097e-05
3.96109e-05
3.96163e-05
3.96294e-05
3.96666e-05
3.97284e-05
3.98163e-05
3.99246e-05
4.00465e-05
4.01722e-05
4.02907e-05
4.04218e-05
4.05031e-05
4.05481e-05
4.06365e-05
4.06407e-05
4.06362e-05
4.05967e-05
4.05323e-05
4.04359e-05
4.03144e-05
4.01657e-05
3.99938e-05
3.9796e-05
3.95648e-05
3.92937e-05
3.89708e-05
3.85774e-05
3.8104e-05
3.75291e-05
3.68325e-05
3.60035e-05
3.50709e-05
3.40945e-05
3.3133e-05
3.30783e-05
3.40633e-05
3.55083e-05
3.73838e-05
3.92581e-05
4.05038e-05
4.08333e-05
4.10031e-05
4.10072e-05
3.90529e-05
3.61524e-05
3.25976e-05
2.87809e-05
2.50151e-05
2.11593e-05
1.66355e-05
1.06911e-05
3.57417e-06
4.0585e-08
2.32774e-07
1.18323e-05
2.68642e-05
3.58239e-05
4.02769e-05
4.20522e-05
4.25496e-05
4.27071e-05
4.29518e-05
4.32938e-05
4.35394e-05
4.3167e-05
4.25036e-05
4.18349e-05
4.09021e-05
4.0213e-05
3.95993e-05
3.92916e-05
3.9162e-05
3.92723e-05
3.93944e-05
3.95297e-05
3.96117e-05
3.96409e-05
3.964e-05
3.96196e-05
3.96234e-05
3.96564e-05
3.97392e-05
3.98658e-05
4.00366e-05
4.02395e-05
4.04647e-05
4.06979e-05
4.09429e-05
4.11943e-05
4.1357e-05
4.14923e-05
4.17026e-05
4.17932e-05
4.18951e-05
4.19336e-05
4.19526e-05
4.19291e-05
4.18734e-05
4.17806e-05
4.16541e-05
4.14925e-05
4.12971e-05
4.10673e-05
4.08035e-05
4.05065e-05
4.01763e-05
3.98127e-05
3.94135e-05
3.89502e-05
3.83737e-05
3.76313e-05
3.67043e-05
3.55852e-05
3.43306e-05
3.30809e-05
3.1957e-05
3.22314e-05
3.3701e-05
3.56237e-05
3.7741e-05
3.924e-05
3.96633e-05
3.98279e-05
3.97041e-05
3.7391e-05
3.40054e-05
2.99296e-05
2.56138e-05
2.13559e-05
1.66256e-05
1.06716e-05
3.50172e-06
3.9356e-08
2.99492e-07
1.37523e-05
3.02191e-05
3.94837e-05
4.37721e-05
4.52506e-05
4.54682e-05
4.53759e-05
4.53423e-05
4.5326e-05
4.48385e-05
4.40578e-05
4.33307e-05
4.24711e-05
4.16705e-05
4.07304e-05
4.02236e-05
3.99438e-05
3.98246e-05
3.98241e-05
3.98027e-05
3.97821e-05
3.97328e-05
3.96882e-05
3.96732e-05
3.97074e-05
3.98117e-05
3.99805e-05
4.02128e-05
4.04911e-05
4.08034e-05
4.11319e-05
4.14789e-05
4.18377e-05
4.21553e-05
4.23735e-05
4.26218e-05
4.2879e-05
4.30773e-05
4.32247e-05
4.33484e-05
4.34236e-05
4.34662e-05
4.34654e-05
4.3426e-05
4.33453e-05
4.32244e-05
4.30628e-05
4.28607e-05
4.26178e-05
4.23341e-05
4.20086e-05
4.16401e-05
4.12266e-05
4.07665e-05
4.02587e-05
3.97031e-05
3.90962e-05
3.83605e-05
3.7404e-05
3.61781e-05
3.47514e-05
3.32172e-05
3.18161e-05
3.0987e-05
3.22354e-05
3.41056e-05
3.64593e-05
3.81341e-05
3.86148e-05
3.86935e-05
3.82959e-05
3.55322e-05
3.16256e-05
2.70209e-05
2.21411e-05
1.70385e-05
1.09126e-05
3.6439e-06
4.0737e-08
3.73533e-07
1.56529e-05
3.34082e-05
4.29178e-05
4.70164e-05
4.81774e-05
4.80727e-05
4.76577e-05
4.72556e-05
4.65832e-05
4.56488e-05
4.48776e-05
4.39805e-05
4.30441e-05
4.18757e-05
4.10779e-05
4.06174e-05
4.03239e-05
4.01494e-05
4.00306e-05
3.99082e-05
3.98166e-05
3.9755e-05
3.97624e-05
3.98512e-05
4.00284e-05
4.02895e-05
4.06167e-05
4.09945e-05
4.14016e-05
4.1823e-05
4.22633e-05
4.26989e-05
4.30933e-05
4.34267e-05
4.37511e-05
4.40449e-05
4.43365e-05
4.45836e-05
4.47775e-05
4.49379e-05
4.50537e-05
4.51289e-05
4.51586e-05
4.51437e-05
4.50821e-05
4.49738e-05
4.48183e-05
4.46157e-05
4.4366e-05
4.40695e-05
4.37256e-05
4.33331e-05
4.28892e-05
4.239e-05
4.18304e-05
4.12059e-05
4.05153e-05
3.97638e-05
3.89539e-05
3.79631e-05
3.66897e-05
3.5127e-05
3.33881e-05
3.16673e-05
3.03245e-05
3.09626e-05
3.28429e-05
3.53302e-05
3.70892e-05
3.75535e-05
3.74744e-05
3.65899e-05
3.32909e-05
2.88829e-05
2.3675e-05
1.80875e-05
1.17126e-05
4.10058e-06
4.66501e-08
4.52779e-07
1.7497e-05
3.63885e-05
4.60932e-05
4.99837e-05
5.08051e-05
5.03309e-05
4.95212e-05
4.85474e-05
4.73892e-05
4.65644e-05
4.54697e-05
4.43988e-05
4.30484e-05
4.19733e-05
4.126e-05
4.07982e-05
4.0465e-05
4.02273e-05
4.00411e-05
3.99016e-05
3.98437e-05
3.98752e-05
4.00185e-05
4.0266e-05
4.06066e-05
4.10196e-05
4.1482e-05
4.19748e-05
4.248e-05
4.29857e-05
4.34822e-05
4.39599e-05
4.44118e-05
4.48213e-05
4.52106e-05
4.55693e-05
4.58731e-05
4.61787e-05
4.64445e-05
4.66487e-05
4.68131e-05
4.69297e-05
4.69961e-05
4.70108e-05
4.69713e-05
4.68768e-05
4.67264e-05
4.65203e-05
4.62593e-05
4.59446e-05
4.55776e-05
4.51593e-05
4.46893e-05
4.41647e-05
4.35794e-05
4.29243e-05
4.21881e-05
4.13621e-05
4.04478e-05
3.94659e-05
3.83749e-05
3.70301e-05
3.5339e-05
3.34495e-05
3.1526e-05
2.99519e-05
2.99177e-05
3.17659e-05
3.43226e-05
3.6042e-05
3.63655e-05
3.6152e-05
3.43816e-05
3.06353e-05
2.55736e-05
1.97016e-05
1.29877e-05
4.96355e-06
6.09364e-08
5.34644e-07
1.92425e-05
3.91204e-05
4.89849e-05
5.26561e-05
5.31212e-05
5.2239e-05
5.0915e-05
4.94751e-05
4.85027e-05
4.70462e-05
4.58327e-05
4.42945e-05
4.29626e-05
4.19683e-05
4.12907e-05
4.0807e-05
4.0443e-05
4.01824e-05
4.00085e-05
3.99399e-05
3.99979e-05
4.01814e-05
4.04882e-05
4.08942e-05
4.13774e-05
4.19119e-05
4.24765e-05
4.30545e-05
4.36326e-05
4.42017e-05
4.47546e-05
4.52857e-05
4.57911e-05
4.62773e-05
4.67511e-05
4.71702e-05
4.75383e-05
4.78669e-05
4.82146e-05
4.84909e-05
4.8705e-05
4.88731e-05
4.89814e-05
4.9031e-05
4.90169e-05
4.89375e-05
4.87912e-05
4.85777e-05
4.8298e-05
4.79542e-05
4.75498e-05
4.70888e-05
4.6575e-05
4.60106e-05
4.53943e-05
4.47197e-05
4.39729e-05
4.31335e-05
4.21785e-05
4.10931e-05
3.98911e-05
3.85541e-05
3.70715e-05
3.53549e-05
3.33359e-05
3.13035e-05
2.94735e-05
2.90322e-05
3.07993e-05
3.34407e-05
3.49169e-05
3.49685e-05
3.45934e-05
3.18387e-05
2.7293e-05
2.14961e-05
1.45577e-05
5.97118e-06
8.39064e-08
6.1674e-07
2.08522e-05
4.15792e-05
5.15833e-05
5.50246e-05
5.51365e-05
5.37416e-05
5.20663e-05
5.07525e-05
4.88947e-05
4.7432e-05
4.56905e-05
4.40955e-05
4.28093e-05
4.18708e-05
4.12035e-05
4.07093e-05
4.03539e-05
4.01335e-05
4.00475e-05
4.01116e-05
4.03253e-05
4.06719e-05
4.113e-05
4.16688e-05
4.22637e-05
4.28913e-05
4.3535e-05
4.41823e-05
4.48245e-05
4.54559e-05
4.60722e-05
4.66705e-05
4.72487e-05
4.7805e-05
4.83444e-05
4.88672e-05
4.93141e-05
4.96899e-05
5.00742e-05
5.0463e-05
5.07256e-05
5.09528e-05
5.11089e-05
5.11991e-05
5.1216e-05
5.11568e-05
5.10185e-05
5.07997e-05
5.05004e-05
5.01227e-05
4.96705e-05
4.915e-05
4.85689e-05
4.79353e-05
4.72561e-05
4.6534e-05
4.57645e-05
4.49319e-05
4.40072e-05
4.29503e-05
4.17208e-05
4.03751e-05
3.87941e-05
3.69166e-05
3.50822e-05
3.30766e-05
3.09349e-05
2.88903e-05
2.82464e-05
2.99536e-05
3.25324e-05
3.38582e-05
3.3327e-05
3.2291e-05
2.84923e-05
2.30765e-05
1.61664e-05
7.011e-06
1.13514e-07
6.97369e-07
2.22787e-05
4.37651e-05
5.39268e-05
5.70568e-05
5.66328e-05
5.50109e-05
5.32542e-05
5.11169e-05
4.92841e-05
4.73173e-05
4.54407e-05
4.38403e-05
4.2604e-05
4.17029e-05
4.10488e-05
4.05797e-05
4.0285e-05
4.01639e-05
4.02154e-05
4.04374e-05
4.08089e-05
4.13012e-05
4.18843e-05
4.25282e-05
4.32109e-05
4.39145e-05
4.46272e-05
4.53408e-05
4.60498e-05
4.67507e-05
4.74402e-05
4.81157e-05
4.8774e-05
4.94114e-05
5.00231e-05
5.06355e-05
5.1183e-05
5.1606e-05
5.20425e-05
5.25224e-05
5.2851e-05
5.31362e-05
5.33461e-05
5.34824e-05
5.35375e-05
5.35069e-05
5.3386e-05
5.31715e-05
5.28616e-05
5.24566e-05
5.19594e-05
5.13759e-05
5.07154e-05
4.99896e-05
4.92123e-05
4.83964e-05
4.75506e-05
4.66745e-05
4.57526e-05
4.47494e-05
4.36073e-05
4.22549e-05
4.07777e-05
3.89907e-05
3.66768e-05
3.46471e-05
3.26549e-05
3.0388e-05
2.81541e-05
2.75883e-05
2.92114e-05
3.13697e-05
3.22528e-05
3.14838e-05
2.90543e-05
2.42446e-05
1.76019e-05
7.94959e-06
1.47903e-07
7.749e-07
2.35543e-05
4.56698e-05
5.58405e-05
5.85881e-05
5.80322e-05
5.63999e-05
5.40568e-05
5.15017e-05
4.92592e-05
4.70776e-05
4.51309e-05
4.35532e-05
4.23642e-05
4.14986e-05
4.08823e-05
4.04826e-05
4.02951e-05
4.03116e-05
4.05187e-05
4.0895e-05
4.14063e-05
4.2019e-05
4.27026e-05
4.34319e-05
4.41896e-05
4.49631e-05
4.57445e-05
4.65285e-05
4.73112e-05
4.80894e-05
4.88594e-05
4.96171e-05
5.0358e-05
5.10768e-05
5.17676e-05
5.24633e-05
5.3101e-05
5.35835e-05
5.40829e-05
5.46173e-05
5.50288e-05
5.53676e-05
5.56343e-05
5.58207e-05
5.59209e-05
5.59284e-05
5.58372e-05
5.56418e-05
5.5338e-05
5.49234e-05
5.4398e-05
5.37655e-05
5.30335e-05
5.22144e-05
5.13248e-05
5.03846e-05
4.94143e-05
4.84304e-05
4.74384e-05
4.64251e-05
4.53497e-05
4.41366e-05
4.26777e-05
4.10878e-05
3.88873e-05
3.63363e-05
3.4078e-05
3.20582e-05
2.95934e-05
2.71531e-05
2.70263e-05
2.87484e-05
3.0163e-05
3.02392e-05
2.91091e-05
2.4973e-05
1.87218e-05
8.71056e-06
1.85436e-07
8.46307e-07
2.46399e-05
4.71994e-05
5.73175e-05
5.98258e-05
5.9446e-05
5.72248e-05
5.43452e-05
5.17e-05
4.90932e-05
4.67642e-05
4.47924e-05
4.32522e-05
4.21114e-05
4.12954e-05
4.07512e-05
4.04599e-05
4.04092e-05
4.05768e-05
4.09344e-05
4.14468e-05
4.20752e-05
4.27867e-05
4.35544e-05
4.4359e-05
4.51876e-05
4.60318e-05
4.68863e-05
4.77467e-05
4.86091e-05
4.9469e-05
5.03216e-05
5.11612e-05
5.19819e-05
5.27774e-05
5.35416e-05
5.43083e-05
5.50235e-05
5.55713e-05
5.61197e-05
5.67019e-05
5.71905e-05
5.75798e-05
5.79016e-05
5.81398e-05
5.82897e-05
5.83436e-05
5.82941e-05
5.81339e-05
5.7856e-05
5.74551e-05
5.69275e-05
5.62728e-05
5.54949e-05
5.4603e-05
5.36127e-05
5.25457e-05
5.14291e-05
5.0292e-05
4.91595e-05
4.80451e-05
4.69391e-05
4.57974e-05
4.45301e-05
4.29959e-05
4.11437e-05
3.85438e-05
3.58111e-05
3.3388e-05
3.12557e-05
2.84428e-05
2.59483e-05
2.63245e-05
2.81957e-05
2.92274e-05
2.80772e-05
2.52126e-05
1.94803e-05
9.28861e-06
2.24904e-07
9.09046e-07
2.55089e-05
4.83497e-05
5.84278e-05
6.10538e-05
6.04564e-05
5.79045e-05
5.47172e-05
5.16462e-05
4.88342e-05
4.64128e-05
4.44464e-05
4.29532e-05
4.18694e-05
4.11262e-05
4.06861e-05
4.05281e-05
4.06245e-05
4.09384e-05
4.14301e-05
4.20581e-05
4.27846e-05
4.35804e-05
4.44237e-05
4.53003e-05
4.62011e-05
4.712e-05
4.80521e-05
4.89927e-05
4.99364e-05
5.08772e-05
5.18085e-05
5.27235e-05
5.36154e-05
5.44779e-05
5.53049e-05
5.61261e-05
5.69024e-05
5.75168e-05
5.80957e-05
5.87159e-05
5.92718e-05
5.97066e-05
6.00787e-05
6.03673e-05
6.05685e-05
6.06739e-05
6.06754e-05
6.05639e-05
6.03306e-05
5.9967e-05
5.94655e-05
5.88213e-05
5.80329e-05
5.7104e-05
5.60455e-05
5.48763e-05
5.36239e-05
5.23234e-05
5.10133e-05
4.97285e-05
4.84894e-05
4.72882e-05
4.60738e-05
4.47357e-05
4.30908e-05
4.0895e-05
3.79886e-05
3.51039e-05
3.25827e-05
3.02177e-05
2.71182e-05
2.50189e-05
2.56466e-05
2.68344e-05
2.7003e-05
2.51406e-05
1.9884e-05
9.65275e-06
2.66157e-07
9.61735e-07
2.61682e-05
4.91733e-05
5.92998e-05
6.1965e-05
6.11795e-05
5.81982e-05
5.48194e-05
5.14874e-05
4.85196e-05
4.60478e-05
4.41077e-05
4.2671e-05
4.16591e-05
4.1013e-05
4.06992e-05
4.0684e-05
4.09233e-05
4.13694e-05
4.19766e-05
4.27031e-05
4.35146e-05
4.43869e-05
4.5303e-05
4.62525e-05
4.72284e-05
4.82249e-05
4.92365e-05
5.02567e-05
5.12782e-05
5.22934e-05
5.32942e-05
5.42732e-05
5.52235e-05
5.61389e-05
5.70141e-05
5.78702e-05
5.86947e-05
5.93714e-05
5.99635e-05
6.06076e-05
6.1221e-05
6.16941e-05
6.21095e-05
6.24443e-05
6.2695e-05
6.28534e-05
6.29108e-05
6.28575e-05
6.2683e-05
6.23763e-05
6.19267e-05
6.13245e-05
6.05628e-05
5.96388e-05
5.85559e-05
5.73267e-05
5.59739e-05
5.45319e-05
5.30453e-05
5.15637e-05
5.01325e-05
4.87797e-05
4.74986e-05
4.62293e-05
4.48377e-05
4.29842e-05
4.02505e-05
3.71927e-05
3.42452e-05
3.16012e-05
2.88263e-05
2.54043e-05
2.42988e-05
2.52621e-05
2.59563e-05
2.44755e-05
1.99342e-05
9.81616e-06
3.08768e-07
1.00362e-06
2.66201e-05
4.9724e-05
5.98896e-05
6.26437e-05
6.17002e-05
5.8568e-05
5.48167e-05
5.1259e-05
4.8177e-05
4.56861e-05
4.37878e-05
4.24186e-05
4.14954e-05
4.09655e-05
4.07881e-05
4.09129e-05
4.12831e-05
4.18453e-05
4.25524e-05
4.3365e-05
4.4254e-05
4.51995e-05
4.61886e-05
4.72128e-05
4.82655e-05
4.93399e-05
5.04286e-05
5.1523e-05
5.2614e-05
5.36925e-05
5.475e-05
5.57789e-05
5.67725e-05
5.77257e-05
5.86344e-05
5.95052e-05
6.03645e-05
6.11008e-05
6.16895e-05
6.23417e-05
6.3003e-05
6.35065e-05
6.39567e-05
6.43313e-05
6.46269e-05
6.4836e-05
6.495e-05
6.49591e-05
6.48518e-05
6.46156e-05
6.42372e-05
6.37033e-05
6.30015e-05
6.21224e-05
6.10614e-05
5.9822e-05
5.84184e-05
5.68785e-05
5.52447e-05
5.35727e-05
5.19244e-05
5.03556e-05
4.88993e-05
4.75457e-05
4.62254e-05
4.47963e-05
4.2511e-05
3.93245e-05
3.62637e-05
3.31672e-05
3.03612e-05
2.69494e-05
2.36932e-05
2.33867e-05
2.37248e-05
2.34629e-05
1.9819e-05
9.96044e-06
3.55556e-07
1.03459e-06
2.68821e-05
5.00324e-05
6.02246e-05
6.31486e-05
6.19473e-05
5.86816e-05
5.47202e-05
5.09866e-05
4.78257e-05
4.53393e-05
4.34952e-05
4.22051e-05
4.13855e-05
4.09826e-05
4.09415e-05
4.11967e-05
4.16837e-05
4.23475e-05
4.31426e-05
4.40337e-05
4.49962e-05
4.60142e-05
4.7077e-05
4.81765e-05
4.9305e-05
5.04538e-05
5.16131e-05
5.27724e-05
5.39213e-05
5.50499e-05
5.61495e-05
5.72132e-05
5.82352e-05
5.92114e-05
6.01389e-05
6.10159e-05
6.18932e-05
6.26777e-05
6.32563e-05
6.39004e-05
6.46004e-05
6.51266e-05
6.56027e-05
6.60092e-05
6.6343e-05
6.65974e-05
6.67646e-05
6.68351e-05
6.67975e-05
6.66385e-05
6.63433e-05
6.58957e-05
6.52794e-05
6.44787e-05
6.34814e-05
6.22812e-05
6.08814e-05
5.9299e-05
5.75685e-05
5.57429e-05
5.38914e-05
5.20897e-05
5.04028e-05
4.88609e-05
4.74322e-05
4.59975e-05
4.43278e-05
4.1564e-05
3.82732e-05
3.50681e-05
3.17423e-05
2.86719e-05
2.4642e-05
2.26402e-05
2.26514e-05
2.27279e-05
1.96999e-05
1.03174e-05
4.15599e-07
1.05514e-06
2.69785e-05
5.00867e-05
6.02742e-05
6.33166e-05
6.22153e-05
5.87038e-05
5.45596e-05
5.06906e-05
4.74796e-05
4.50154e-05
4.32359e-05
4.20356e-05
4.133e-05
4.10568e-05
4.11453e-05
4.15185e-05
4.21091e-05
4.28631e-05
4.37379e-05
4.47028e-05
4.5737e-05
4.68272e-05
4.79633e-05
4.91363e-05
5.03365e-05
5.15527e-05
5.27732e-05
5.39859e-05
5.51795e-05
5.63443e-05
5.74721e-05
5.85569e-05
5.9594e-05
6.05806e-05
6.15143e-05
6.23936e-05
6.32679e-05
6.40919e-05
6.46649e-05
6.52839e-05
6.60104e-05
6.65543e-05
6.70472e-05
6.74771e-05
6.78408e-05
6.81329e-05
6.83467e-05
6.84735e-05
6.85026e-05
6.8421e-05
6.82132e-05
6.78616e-05
6.73468e-05
6.66487e-05
6.57482e-05
6.46297e-05
6.32851e-05
6.17182e-05
5.99505e-05
5.80252e-05
5.60093e-05
5.39888e-05
5.20565e-05
5.02891e-05
4.87196e-05
4.73085e-05
4.59197e-05
4.36098e-05
4.02736e-05
3.70592e-05
3.35786e-05
2.99699e-05
2.62481e-05
2.23524e-05
2.13724e-05
2.11729e-05
1.9399e-05
1.09554e-05
4.96609e-07
1.0653e-06
2.69054e-05
4.98822e-05
6.02013e-05
6.34473e-05
6.22443e-05
5.86344e-05
5.43551e-05
5.03865e-05
4.71485e-05
4.47196e-05
4.30133e-05
4.19114e-05
4.13245e-05
4.11777e-05
4.13856e-05
4.18647e-05
4.25478e-05
4.33831e-05
4.43321e-05
4.53677e-05
4.64723e-05
4.76334e-05
4.88404e-05
5.00825e-05
5.13475e-05
5.26221e-05
5.38927e-05
5.51465e-05
5.63721e-05
5.75604e-05
5.87044e-05
5.97991e-05
6.08415e-05
6.18299e-05
6.27638e-05
6.36436e-05
6.44939e-05
6.53248e-05
6.59376e-05
6.65151e-05
6.72387e-05
6.78019e-05
6.83037e-05
6.87483e-05
6.9133e-05
6.94537e-05
6.9705e-05
6.98797e-05
6.99683e-05
6.99586e-05
6.98357e-05
6.95816e-05
6.91754e-05
6.85939e-05
6.78126e-05
6.68083e-05
6.55619e-05
6.40638e-05
6.23196e-05
6.03573e-05
5.82323e-05
5.60285e-05
5.38505e-05
5.18032e-05
4.99608e-05
4.83308e-05
4.68235e-05
4.52313e-05
4.23054e-05
3.88318e-05
3.54315e-05
3.17471e-05
2.78365e-05
2.3288e-05
2.09558e-05
1.97284e-05
1.8909e-05
1.16391e-05
5.98209e-07
1.0646e-06
2.67321e-05
4.96262e-05
5.99757e-05
6.34383e-05
6.21704e-05
5.84958e-05
5.41231e-05
5.00859e-05
4.68392e-05
4.44555e-05
4.28288e-05
4.18302e-05
4.1362e-05
4.13344e-05
4.16507e-05
4.22249e-05
4.29913e-05
4.39015e-05
4.49205e-05
4.60244e-05
4.71973e-05
4.84265e-05
4.97001e-05
5.10047e-05
5.23259e-05
5.36485e-05
5.49579e-05
5.62412e-05
5.74876e-05
5.8689e-05
5.98396e-05
6.0936e-05
6.19764e-05
6.29606e-05
6.38891e-05
6.47634e-05
6.55858e-05
6.6415e-05
6.70766e-05
6.76141e-05
6.83077e-05
6.88904e-05
6.93945e-05
6.98456e-05
7.02422e-05
7.05816e-05
7.08601e-05
7.10721e-05
7.12097e-05
7.12624e-05
7.12165e-05
7.10548e-05
7.0756e-05
7.02955e-05
6.96453e-05
6.87761e-05
6.76599e-05
6.62744e-05
6.4609e-05
6.26734e-05
6.05059e-05
5.81798e-05
5.58024e-05
5.35023e-05
5.14001e-05
4.95679e-05
4.79892e-05
4.65365e-05
4.41821e-05
4.06267e-05
3.73792e-05
3.33361e-05
2.91952e-05
2.48013e-05
2.08451e-05
1.92244e-05
1.84982e-05
1.22626e-05
7.16158e-07
1.05887e-06
2.64626e-05
4.91945e-05
5.9555e-05
6.32177e-05
6.1994e-05
5.83028e-05
5.38763e-05
4.97974e-05
4.65563e-05
4.42246e-05
4.26818e-05
4.17882e-05
4.14346e-05
4.15173e-05
4.19316e-05
4.25914e-05
4.34338e-05
4.44135e-05
4.54988e-05
4.66683e-05
4.79063e-05
4.91993e-05
5.05332e-05
5.18924e-05
5.32603e-05
5.46207e-05
5.59586e-05
5.72615e-05
5.85196e-05
5.97262e-05
6.08769e-05
6.19697e-05
6.30039e-05
6.39801e-05
6.48993e-05
6.57627e-05
6.65707e-05
6.73854e-05
6.80955e-05
6.85962e-05
6.9249e-05
6.98455e-05
7.03469e-05
7.07971e-05
7.11968e-05
7.15451e-05
7.18397e-05
7.20771e-05
7.22514e-05
7.23542e-05
7.23736e-05
7.22938e-05
7.20948e-05
7.17516e-05
7.12346e-05
7.05107e-05
6.95448e-05
6.83037e-05
6.67619e-05
6.49099e-05
6.27643e-05
6.03789e-05
5.78501e-05
5.53121e-05
5.29134e-05
5.07744e-05
4.89334e-05
4.72987e-05
4.56239e-05
4.24815e-05
3.89219e-05
3.52936e-05
3.08766e-05
2.62617e-05
2.10639e-05
1.87346e-05
1.74966e-05
1.2906e-05
8.38035e-07
1.04626e-06
2.61364e-05
4.85063e-05
5.90216e-05
6.28648e-05
6.17307e-05
5.8068e-05
5.36245e-05
4.95275e-05
4.6303e-05
4.40276e-05
4.25703e-05
4.17802e-05
4.15349e-05
4.17182e-05
4.2221e-05
4.29583e-05
4.38704e-05
4.4915e-05
4.6063e-05
4.72944e-05
4.85932e-05
4.99442e-05
5.13311e-05
5.27363e-05
5.41417e-05
5.55305e-05
5.6888e-05
5.82027e-05
5.94661e-05
6.06728e-05
6.182e-05
6.29069e-05
6.39337e-05
6.49018e-05
6.58124e-05
6.66668e-05
6.74653e-05
6.82546e-05
6.89996e-05
6.9489e-05
7.00913e-05
7.06945e-05
7.11892e-05
7.1632e-05
7.20268e-05
7.23743e-05
7.26742e-05
7.29247e-05
7.31225e-05
7.32614e-05
7.3332e-05
7.33207e-05
7.32091e-05
7.29734e-05
7.25841e-05
7.20059e-05
7.11992e-05
7.01224e-05
6.87373e-05
6.7016e-05
6.49529e-05
6.25774e-05
5.99668e-05
5.72503e-05
5.45958e-05
5.21738e-05
5.00995e-05
4.83743e-05
4.68432e-05
4.4128e-05
4.04202e-05
3.72521e-05
3.23155e-05
2.75609e-05
2.23613e-05
1.86105e-05
1.63643e-05
1.33989e-05
9.36025e-07
1.02666e-06
2.57132e-05
4.77494e-05
5.83953e-05
6.23954e-05
6.1394e-05
5.78018e-05
5.33751e-05
4.92806e-05
4.60812e-05
4.38641e-05
4.24915e-05
4.18009e-05
4.16562e-05
4.19307e-05
4.25133e-05
4.33211e-05
4.42971e-05
4.5402e-05
4.66086e-05
4.78974e-05
4.92514e-05
5.06537e-05
5.20859e-05
5.35286e-05
5.49631e-05
5.63724e-05
5.77428e-05
5.90638e-05
6.03285e-05
6.15329e-05
6.26756e-05
6.37568e-05
6.47777e-05
6.57399e-05
6.6645e-05
6.74944e-05
6.82889e-05
6.9048e-05
6.98072e-05
7.03146e-05
7.08599e-05
7.14629e-05
7.19476e-05
7.23775e-05
7.27602e-05
7.30982e-05
7.33929e-05
7.36449e-05
7.3853e-05
7.40137e-05
7.41203e-05
7.41618e-05
7.41226e-05
7.39807e-05
7.37076e-05
7.32681e-05
7.26201e-05
7.17164e-05
7.05084e-05
6.89527e-05
6.70216e-05
6.47177e-05
6.20911e-05
5.92514e-05
5.63667e-05
5.3635e-05
5.12264e-05
4.92117e-05
4.7515e-05
4.54977e-05
4.18139e-05
3.87538e-05
3.42889e-05
2.9074e-05
2.37302e-05
1.90664e-05
1.57209e-05
1.35957e-05
9.81004e-07
1.00119e-06
2.51874e-05
4.68809e-05
5.76727e-05
6.18313e-05
6.09962e-05
5.75127e-05
5.3134e-05
4.906e-05
4.58919e-05
4.3733e-05
4.24424e-05
4.18454e-05
4.17926e-05
4.21495e-05
4.2804e-05
4.36756e-05
4.47102e-05
4.58705e-05
4.7131e-05
4.84718e-05
4.98749e-05
5.13213e-05
5.2791e-05
5.42636e-05
5.57199e-05
5.71437e-05
5.8522e-05
5.9846e-05
6.11102e-05
6.23121e-05
6.34514e-05
6.45291e-05
6.5547e-05
6.65069e-05
6.74102e-05
6.8258e-05
6.90512e-05
6.9791e-05
7.05471e-05
7.10829e-05
7.15753e-05
7.21722e-05
7.26442e-05
7.30569e-05
7.34213e-05
7.37419e-05
7.4022e-05
7.42644e-05
7.44703e-05
7.4639e-05
7.47665e-05
7.48451e-05
7.48617e-05
7.47974e-05
7.46258e-05
7.43127e-05
7.38157e-05
7.30843e-05
7.20629e-05
7.06954e-05
6.89347e-05
6.67571e-05
6.41819e-05
6.12913e-05
5.82414e-05
5.52473e-05
5.25314e-05
5.02377e-05
4.83466e-05
4.66352e-05
4.34132e-05
4.00773e-05
3.62889e-05
3.03457e-05
2.48159e-05
1.90479e-05
1.58535e-05
1.35848e-05
9.88764e-07
9.71295e-07
2.46282e-05
4.59262e-05
5.68614e-05
6.11885e-05
6.05482e-05
5.72073e-05
5.29052e-05
4.8868e-05
4.57355e-05
4.36331e-05
4.24195e-05
4.1909e-05
4.19394e-05
4.23701e-05
4.30891e-05
4.40183e-05
4.51059e-05
4.63166e-05
4.76255e-05
4.90125e-05
5.04579e-05
5.19413e-05
5.34414e-05
5.49371e-05
5.64095e-05
5.78432e-05
5.92265e-05
6.05521e-05
6.18158e-05
6.30166e-05
6.4155e-05
6.52327e-05
6.62516e-05
6.72133e-05
6.81188e-05
6.89683e-05
6.97612e-05
7.04965e-05
7.12414e-05
7.18066e-05
7.22528e-05
7.28383e-05
7.32954e-05
7.36874e-05
7.40285e-05
7.43251e-05
7.45826e-05
7.48056e-05
7.49981e-05
7.51619e-05
7.52962e-05
7.53964e-05
7.54526e-05
7.5449e-05
7.53622e-05
7.51601e-05
7.48014e-05
7.42346e-05
7.33999e-05
7.22319e-05
7.06674e-05
6.86583e-05
6.6192e-05
6.33161e-05
6.01602e-05
5.69377e-05
5.39081e-05