/*--------------------------------*- C++ -*----------------------------------*\
  =========                 |
  \\      /  F ield         | OpenFOAM: The Open Source CFD Toolbox
   \\    /   O peration     | Website:  https://openfoam.org
    \\  /    A nd           | Version:  13
     \\/     M anipulation  |
\*---------------------------------------------------------------------------*/
FoamFile
{
    format      ascii;
    class       volScalarField;
    location    "8";
    object      p;
}
// * * * * * * * * * * * * * * * * * * * * * * * * * * * * * * * * * * * * * //

dimensions      [0 2 -2 0 0 0 0];

internalField   nonuniform List<scalar> 
6400
(
-1.83407e-09
2.00656e-05
2.90377e-05
1.35366e-05
-3.16805e-05
-0.000101396
-0.000185812
-0.000275673
-0.000364641
-0.000449578
-0.000531195
-0.00061374
-0.000701943
-0.000800979
-0.000916058
-0.0010513
-0.00120967
-0.00139285
-0.00160209
-0.00183808
-0.0021012
-0.00239287
-0.00271602
-0.00307521
-0.00347688
-0.00392584
-0.0044168
-0.00494073
-0.00547484
-0.00598439
-0.00646454
-0.00692327
-0.0073587
-0.00776813
-0.00814615
-0.00848404
-0.00877033
-0.00899177
-0.00913441
-0.00918442
-0.00912862
-0.00895579
-0.00865781
-0.00823058
-0.00767181
-0.00697347
-0.00612758
-0.00515237
-0.00406467
-0.00287152
-0.00159367
-0.000252428
0.00112299
0.00249994
0.0038378
0.00509134
0.00621641
0.00717152
0.00791731
0.00842276
0.00866987
0.00865705
0.00839847
0.00791287
0.00726538
0.00650501
0.00569759
0.00490618
0.00418726
0.00357063
0.00309079
0.00275799
0.002542
0.00241731
0.00236412
0.00235891
0.00238251
0.00241976
0.00246006
0.00248744
-1.51952e-05
5.27651e-06
9.52569e-06
-1.10204e-05
-5.91286e-05
-0.000128787
-0.000209202
-0.000291755
-0.000371437
-0.000446918
-0.000520293
-0.000595657
-0.000677852
-0.000771651
-0.000880935
-0.00100927
-0.00115996
-0.0013355
-0.00153649
-0.00176314
-0.00201445
-0.00229098
-0.00259595
-0.00293193
-0.00330209
-0.00371378
-0.00417445
-0.00468256
-0.00522407
-0.00577453
-0.00630603
-0.00680931
-0.0072864
-0.00773424
-0.00814705
-0.00851606
-0.00883003
-0.00907634
-0.00924181
-0.00931386
-0.00928045
-0.0091315
-0.00885934
-0.00845819
-0.00792323
-0.00725064
-0.00644737
-0.00552099
-0.00447337
-0.00332229
-0.00208572
-0.000786997
0.000545858
0.00187934
0.00317571
0.0043948
0.00549395
0.0064315
0.00717163
0.00768439
0.00795133
0.00796974
0.00775245
0.00732604
0.00673738
0.00604114
0.00529898
0.00457005
0.00390737
0.00335226
0.00292267
0.00262573
0.00244783
0.00236527
0.00235354
0.00238501
0.00242892
0.00246802
0.0025007
0.00252655
-3.14371e-05
-8.77068e-06
-1.02713e-05
-4.00871e-05
-9.62759e-05
-0.000168503
-0.000244945
-0.000317401
-0.000383235
-0.000444111
-0.000503782
-0.000567224
-0.000639474
-0.000724314
-0.000824263
-0.000941169
-0.00107659
-0.00123278
-0.00141195
-0.00161687
-0.00185113
-0.00211795
-0.00242168
-0.00276728
-0.00315902
-0.00359947
-0.00408907
-0.00462383
-0.00519284
-0.00577845
-0.00636068
-0.00692363
-0.00745803
-0.00795735
-0.00841461
-0.00882067
-0.00916527
-0.00943738
-0.00962533
-0.0097177
-0.00970429
-0.00957628
-0.0093266
-0.00895012
-0.00844394
-0.00780735
-0.00703669
-0.00614487
-0.00513828
-0.00402978
-0.00283619
-0.00157923
-0.0002855
0.00101367
0.00228286
0.00348381
0.00457482
0.00551488
0.00626877
0.00680763
0.00711217
0.00717744
0.00701548
0.00665271
0.00613185
0.00550551
0.00482889
0.00416519
0.00356147
0.0030547
0.00266919
0.00241802
0.00228869
0.0022522
0.00227752
0.00234019
0.00241019
0.00246855
0.00251618
0.0025535
-3.99784e-05
-1.8391e-05
-2.74791e-05
-6.8577e-05
-0.000134937
-0.000210317
-0.00028306
-0.000346609
-0.00039961
-0.000444352
-0.000487034
-0.000534395
-0.000591966
-0.000663498
-0.000750733
-0.000854494
-0.000976181
-0.00111862
-0.00128569
-0.00148297
-0.00171756
-0.00199734
-0.00232968
-0.00271718
-0.00316224
-0.00366611
-0.00422476
-0.00482765
-0.005459
-0.00610207
-0.00674029
-0.00735842
-0.00794419
-0.00848849
-0.00898287
-0.00941806
-0.00978511
-0.0100743
-0.0102755
-0.0103789
-0.0103759
-0.0102587
-0.010021
-0.0096586
-0.00916989
-0.00855313
-0.00780962
-0.00694481
-0.00596597
-0.00488505
-0.00371788
-0.00248466
-0.00120984
7.79851e-05
0.00134541
0.00255437
0.00366425
0.00463497
0.00542939
0.00601767
0.00637885
0.00650396
0.00640252
0.00610082
0.00563852
0.00506488
0.00443687
0.00381357
0.00324533
0.00276998
0.00241139
0.00218017
0.00206856
0.00206016
0.00212481
0.00222238
0.00232439
0.0024132
0.0024849
0.00253473
-3.39679e-05
-2.00282e-05
-3.9322e-05
-9.20075e-05
-0.00016794
-0.000246199
-0.000315263
-0.000370069
-0.000410631
-0.000441304
-0.000469325
-0.000502312
-0.000546258
-0.000604868
-0.000680314
-0.000774455
-0.000890436
-0.001034
-0.00121225
-0.00143335
-0.00170708
-0.00203912
-0.00243423
-0.00289675
-0.00342606
-0.00401619
-0.00465696
-0.00533381
-0.00602918
-0.00672681
-0.00741123
-0.00806989
-0.00869216
-0.00926755
-0.00978692
-0.0102415
-0.0106228
-0.010922
-0.0111308
-0.0112409
-0.0112448
-0.0111363
-0.0109093
-0.0105599
-0.0100878
-0.00949211
-0.00877378
-0.00793546
-0.00698315
-0.00592773
-0.00478457
-0.00357192
-0.00231106
-0.00102667
0.000249847
0.00147963
0.00262298
0.00364217
0.00449917
0.00516133
0.00560528
0.00581752
0.00580125
0.00557799
0.00518798
0.00467818
0.00410313
0.00352036
0.00298228
0.00252909
0.00218745
0.00196753
0.00186552
0.00186499
0.00194049
0.00205875
0.00218663
0.00230331
0.00239784
0.00245705
-4.58583e-06
-4.82616e-06
-3.66426e-05
-0.000103233
-0.000187359
-0.000266725
-0.000331765
-0.000378882
-0.000409352
-0.000429211
-0.000446857
-0.000470338
-0.000505824
-0.000557708
-0.00062985
-0.000726749
-0.000854974
-0.00102334
-0.00124277
-0.00152038
-0.00186388
-0.00228055
-0.00277191
-0.00333488
-0.00396069
-0.00463731
-0.00535256
-0.00609248
-0.00684158
-0.00758465
-0.00830751
-0.0089985
-0.0096474
-0.0102446
-0.0107816
-0.0112498
-0.0116408
-0.011947
-0.0121618
-0.0122784
-0.0122901
-0.012193
-0.0119813
-0.011651
-0.0112047
-0.0106397
-0.00995575
-0.00915486
-0.0082413
-0.00722353
-0.00611566
-0.00493228
-0.00369033
-0.00241103
-0.00112602
0.000125545
0.00130835
0.00238877
0.00332608
0.00408418
0.00463881
0.00497048
0.00507719
0.00497037
0.00468514
0.00426892
0.00377369
0.00325338
0.00276059
0.00233844
0.00201609
0.0018067
0.00170858
0.00170807
0.00178177
0.00190144
0.00203659
0.00216401
0.00226847
0.00233091
5.8545e-05
4.06027e-05
-7.65766e-06
-9.11662e-05
-0.000180611
-0.000260349
-0.000322173
-0.000363839
-0.000388584
-0.000403665
-0.000418043
-0.000440059
-0.000476546
-0.000533655
-0.00061829
-0.000738096
-0.000903434
-0.0011261
-0.00141446
-0.0017773
-0.00222118
-0.00274716
-0.00334654
-0.00400871
-0.00472362
-0.00547924
-0.00626184
-0.00705752
-0.00785254
-0.00863351
-0.00938789
-0.0101048
-0.0107746
-0.0113884
-0.0119384
-0.0124157
-0.0128121
-0.0131228
-0.0133425
-0.0134658
-0.0134899
-0.0134094
-0.01322
-0.0129181
-0.0125055
-0.0119768
-0.0113335
-0.0105792
-0.00971936
-0.00876017
-0.00770676
-0.00657004
-0.00536545
-0.00411528
-0.00284483
-0.00158165
-0.00035597
0.000795659
0.00182499
0.00269957
0.00339279
0.00387718
0.00414638
0.00420202
0.00406876
0.00378787
0.00340932
0.00298477
0.00256444
0.00219274
0.00190164
0.00170769
0.00161242
0.0016078
0.00167084
0.0017788
0.00190433
0.00202433
0.00212345
0.00218076
0.000165572
0.000126983
5.67104e-05
-4.07404e-05
-0.000135729
-0.000216903
-0.00027764
-0.000318206
-0.000343532
-0.000361956
-0.000382882
-0.000415108
-0.000466833
-0.000547052
-0.000665706
-0.000834298
-0.00106473
-0.0013687
-0.00175465
-0.0022289
-0.00278803
-0.00342375
-0.0041256
-0.00488193
-0.0056798
-0.00650627
-0.00734809
-0.00819235
-0.00902661
-0.00983892
-0.0106182
-0.0113548
-0.012039
-0.0126622
-0.0132166
-0.0136947
-0.0140934
-0.0144092
-0.0146367
-0.0147718
-0.0148108
-0.0147478
-0.0145807
-0.0143082
-0.0139266
-0.0134365
-0.0128396
-0.0121393
-0.0113404
-0.0104471
-0.00946105
-0.00839042
-0.007249
-0.00605462
-0.00482459
-0.00357644
-0.00233739
-0.00114548
-3.13735e-05
0.000976113
0.00182617
0.00249179
0.00296027
0.00322162
0.00328958
0.00319253
0.00297438
0.00268443
0.00236974
0.00207479
0.00183374
0.00166681
0.00157995
0.00156748
0.00161452
0.0017023
0.00180563
0.00190547
0.0019847
0.00202737
0.000321852
0.000262424
0.000167257
5.58508e-05
-4.57975e-05
-0.000129889
-0.000193426
-0.000238824
-0.000272879
-0.000304933
-0.000344895
-0.000402463
-0.000487909
-0.000613306
-0.000791973
-0.00103602
-0.00135824
-0.00176996
-0.00227407
-0.00286633
-0.00353951
-0.00428212
-0.00508103
-0.00592281
-0.00679433
-0.00768266
-0.00857544
-0.00946064
-0.0103268
-0.0111631
-0.0119596
-0.0127072
-0.0133965
-0.01402
-0.0145727
-0.0150528
-0.0154585
-0.0157824
-0.0160192
-0.0161643
-0.0162127
-0.0161636
-0.0160163
-0.0157703
-0.0154213
-0.0149724
-0.0144243
-0.0137786
-0.0130377
-0.0122048
-0.0112861
-0.0102884
-0.00922172
-0.00809882
-0.00693249
-0.00573292
-0.00451825
-0.00331465
-0.00214357
-0.0010456
-5.47266e-05
0.000809531
0.00149707
0.00199629
0.0023074
0.00244331
0.00243256
0.00231944
0.00214712
0.00195807
0.00178965
0.00166571
0.0015966
0.00158114
0.00161023
0.00167012
0.00174308
0.00181374
0.00186233
0.00188602
0.000534847
0.000452149
0.00032935
0.000202628
9.17072e-05
1.51098e-06
-6.97701e-05
-0.000127428
-0.000180122
-0.000238159
-0.000312147
-0.000413067
-0.000553774
-0.000749181
-0.00101314
-0.00135784
-0.00179512
-0.00232919
-0.00295597
-0.00366697
-0.00445063
-0.00529252
-0.00617911
-0.0070967
-0.00803244
-0.00897379
-0.009909
-0.0108268
-0.0117166
-0.0125687
-0.0133739
-0.0141243
-0.0148139
-0.0154385
-0.015993
-0.0164737
-0.016875
-0.0171923
-0.0174233
-0.0175669
-0.0176209
-0.0175837
-0.017455
-0.0172344
-0.0169196
-0.0165121
-0.0160133
-0.0154245
-0.0147475
-0.0139848
-0.0131406
-0.0122199
-0.0112289
-0.0101748
-0.00906606
-0.00791658
-0.00674481
-0.00556595
-0.00439181
-0.0032436
-0.00214425
-0.00113113
-0.000238791
0.000514625
0.00109393
0.00150159
0.00174481
0.00185255
0.00186271
0.00181281
0.00174095
0.00167762
0.00163858
0.00162796
0.0016415
0.00167206
0.0017102
0.00174422
0.00175913
0.00176394
0.000806766
0.000695002
0.000543198
0.000395934
0.00027366
0.000172907
8.75258e-05
8.74815e-06
-7.40394e-05
-0.000172109
-0.000296871
-0.000461181
-0.000680051
-0.00096884
-0.00134066
-0.00180589
-0.00237012
-0.00303154
-0.00378097
-0.00460559
-0.00549136
-0.00642347
-0.00738814
-0.00837186
-0.00936209
-0.0103467
-0.0113146
-0.0122553
-0.0131593
-0.014018
-0.0148239
-0.0155707
-0.0162536
-0.0168682
-0.0174108
-0.0178787
-0.018268
-0.0185761
-0.0188015
-0.0189435
-0.019001
-0.0189732
-0.0188598
-0.0186607
-0.0183754
-0.0180048
-0.0175501
-0.017013
-0.0163952
-0.0156991
-0.0149276
-0.0140845
-0.013174
-0.0122002
-0.011168
-0.0100849
-0.00896047
-0.0078056
-0.00663864
-0.00547866
-0.00433489
-0.00322408
-0.00216623
-0.00120096
-0.000354577
0.000338998
0.000869844
0.0012417
0.00147669
0.00160488
0.00165918
0.00167487
0.00167831
0.00168086
0.00168513
0.00168887
0.00169146
0.00168628
0.00166925
0.00165754
0.00112555
0.000984038
0.000796887
0.000626212
0.000489275
0.000373622
0.00026692
0.000157089
3.17246e-05
-0.000121261
-0.000314511
-0.000562175
-0.000879886
-0.00128174
-0.00177809
-0.00237471
-0.00307111
-0.00385905
-0.00472521
-0.00565517
-0.00663368
-0.00764604
-0.00867836
-0.0097174
-0.0107509
-0.0117673
-0.0127562
-0.0137083
-0.0146153
-0.0154702
-0.016267
-0.0170009
-0.0176682
-0.0182657
-0.018791
-0.0192421
-0.0196169
-0.019914
-0.0201323
-0.0202713
-0.0203304
-0.0203095
-0.0202085
-0.0200278
-0.0197675
-0.0194288
-0.0190128
-0.0185212
-0.0179557
-0.0173185
-0.0166121
-0.0158393
-0.0150031
-0.0141065
-0.0131527
-0.0121455
-0.0110891
-0.00998804
-0.00884993
-0.00768507
-0.00650964
-0.00534437
-0.00419195
-0.00307033
-0.00200725
-0.0010462
-0.000221954
0.000443064
0.000943754
0.00129226
0.00151171
0.00163257
0.00169178
0.00171524
0.00171541
0.0016974
0.00166753
0.00162658
0.00158291
0.00155704
0.00147701
0.00130403
0.0010769
0.000879942
0.000724627
0.000588194
0.000452015
0.000300585
0.000119945
-0.000102936
-0.000381207
-0.000729886
-0.00116326
-0.00169224
-0.00232289
-0.00305522
-0.00388207
-0.00479044
-0.00576507
-0.00679053
-0.00785122
-0.00893252
-0.0100206
-0.0111025
-0.0121666
-0.0132021
-0.0141998
-0.0151519
-0.0160516
-0.0168936
-0.0176736
-0.0183881
-0.0190348
-0.0196116
-0.020117
-0.0205498
-0.0209089
-0.0211937
-0.0214037
-0.0215384
-0.0215978
-0.021582
-0.0214913
-0.0213262
-0.0210875
-0.0207762
-0.0203937
-0.0199415
-0.0194214
-0.0188355
-0.0181859
-0.0174749
-0.0167046
-0.0158772
-0.0149947
-0.0140591
-0.013072
-0.012035
-0.0109501
-0.00981919
-0.00864686
-0.00744264
-0.00622364
-0.00500469
-0.00379438
-0.00262273
-0.00153364
-0.000573855
0.000219466
0.000828072
0.00125591
0.0015216
0.00165928
0.00171341
0.00171358
0.00167811
0.00162144
0.00155178
0.00148877
0.00145403
0.00184289
0.00163559
0.00136648
0.00113874
0.000960572
0.000797029
0.000622917
0.000419501
0.000171529
-0.000134328
-0.000512214
-0.000976063
-0.00153697
-0.00220148
-0.00296959
-0.00383503
-0.00478558
-0.00580541
-0.00687818
-0.00798779
-0.00911859
-0.0102561
-0.0113867
-0.0124982
-0.0135797
-0.0146221
-0.0156176
-0.0165599
-0.0174443
-0.018267
-0.0190251
-0.0197167
-0.0203402
-0.0208948
-0.0213796
-0.021794
-0.0221375
-0.02241
-0.0226114
-0.0227416
-0.0228006
-0.022789
-0.0227071
-0.0225555
-0.0223353
-0.0220476
-0.0216937
-0.0212753
-0.0207941
-0.0202521
-0.0196511
-0.0189932
-0.0182801
-0.0175133
-0.016694
-0.0158227
-0.0148998
-0.0139248
-0.0128969
-0.011815
-0.0106777
-0.00948477
-0.00823903
-0.00695114
-0.00564435
-0.00432905
-0.00303297
-0.00181285
-0.000727056
0.000169541
0.00084606
0.00130243
0.0015584
0.00166225
0.00167067
0.00162078
0.00154181
0.00145041
0.00137508
0.00133515
0.00219829
0.00195538
0.00164056
0.00138043
0.0011753
0.000978349
0.000758145
0.000493546
0.000168245
-0.000232132
-0.000721289
-0.00131001
-0.00200516
-0.00280671
-0.00370887
-0.00470011
-0.0057645
-0.0068846
-0.00804333
-0.00922421
-0.0104117
-0.0115916
-0.0127511
-0.013879
-0.0149661
-0.0160047
-0.016989
-0.0179146
-0.0187783
-0.0195777
-0.0203115
-0.0209787
-0.0215787
-0.0221113
-0.0225761
-0.022973
-0.0233021
-0.0235633
-0.0237568
-0.0238829
-0.0239417
-0.0239337
-0.0238595
-0.0237198
-0.0235157
-0.0232482
-0.0229189
-0.0225293
-0.0220811
-0.0215761
-0.0210163
-0.0204032
-0.0197386
-0.0190234
-0.0182584
-0.0174437
-0.0165782
-0.0156605
-0.0146879
-0.013657
-0.0125638
-0.011404
-0.0101744
-0.00887469
-0.00751115
-0.00609919
-0.00466517
-0.00324265
-0.0019003
-0.000713594
0.000244058
0.000933937
0.00135823
0.00155038
0.00158183
0.0015239
0.00142492
0.00131518
0.00123226
0.0011883
0.00251589
0.00223785
0.00187716
0.00158254
0.0013462
0.00110948
0.000836148
0.000502959
9.19542e-05
-0.000412131
-0.00101984
-0.00173797
-0.00256701
-0.00350124
-0.00452953
-0.00563594
-0.00680207
-0.00800945
-0.0092405
-0.0104787
-0.0117087
-0.0129173
-0.0140927
-0.0152254
-0.0163079
-0.0173346
-0.0183014
-0.0192057
-0.0200456
-0.0208203
-0.0215293
-0.0221724
-0.0227498
-0.0232617
-0.0237081
-0.0240894
-0.0244056
-0.0246571
-0.024844
-0.0249668
-0.0250257
-0.0250212
-0.024954
-0.0248249
-0.0246348
-0.024385
-0.0240768
-0.0237116
-0.0232913
-0.0228175
-0.022292
-0.0217164
-0.0210922
-0.0204203
-0.0197011
-0.0189344
-0.018119
-0.0172524
-0.0163312
-0.0153505
-0.0143043
-0.0131859
-0.0119885
-0.0107069
-0.00933837
-0.00788614
-0.00636556
-0.00480989
-0.00326939
-0.00182659
-0.000579686
0.00038424
0.00102443
0.00135611
0.00144413
0.00138965
0.00127293
0.0011458
0.00105533
0.00100448
0.0027757
0.00245904
0.00205321
0.0017225
0.00145067
0.00116892
0.000837525
0.00043029
-7.35831e-05
-0.000686447
-0.00141482
-0.00226051
-0.00321797
-0.00427631
-0.00541943
-0.00662801
-0.00788207
-0.00916244
-0.0104513
-0.0117323
-0.0129911
-0.0142155
-0.0153954
-0.0165234
-0.0175937
-0.0186028
-0.0195482
-0.0204288
-0.021244
-0.021994
-0.0226791
-0.0232997
-0.0238564
-0.0243496
-0.0247798
-0.0251475
-0.0254528
-0.0256961
-0.0258778
-0.0259983
-0.0260578
-0.0260569
-0.0259963
-0.0258767
-0.0256991
-0.0254647
-0.0251746
-0.0248304
-0.0244337
-0.0239861
-0.0234892
-0.0229447
-0.0223539
-0.0217177
-0.0210365
-0.02031
-0.0195368
-0.0187144
-0.017839
-0.0169051
-0.0159057
-0.0148327
-0.0136768
-0.0124289
-0.0110812
-0.00963018
-0.00807982
-0.0064487
-0.00477832
-0.00313865
-0.00163283
-0.000380365
0.00052348
0.00105067
0.0012454
0.00121719
0.00109025
0.000944849
0.000840202
0.000776596
0.00294235
0.00259458
0.002147
0.00177977
0.00146921
0.00113942
0.000746335
0.000259835
-0.000339274
-0.00106051
-0.00190712
-0.00287408
-0.00395095
-0.0051216
-0.00636584
-0.00766203
-0.00898908
-0.0103275
-0.0116595
-0.0129694
-0.0142442
-0.0154732
-0.0166484
-0.0177643
-0.0188172
-0.0198052
-0.0207273
-0.0215837
-0.0223747
-0.0231013
-0.0237642
-0.0243644
-0.0249026
-0.0253796
-0.0257959
-0.026152
-0.0264484
-0.0266852
-0.026863
-0.026982
-0.0270427
-0.0270456
-0.0269912
-0.0268804
-0.026714
-0.026493
-0.0262188
-0.0258926
-0.025516
-0.0250904
-0.0246176
-0.0240989
-0.0235356
-0.0229288
-0.0222787
-0.0215853
-0.0208472
-0.0200621
-0.0192262
-0.018334
-0.0173784
-0.0163505
-0.01524
-0.0140353
-0.0127252
-0.0113005
-0.00975745
-0.0081027
-0.00636251
-0.00459357
-0.00288764
-0.00136854
-0.000175612
0.000598712
0.00096062
0.0010018
0.000876492
0.000712155
0.000582224
0.000501126
0.00300305
0.00262719
0.00214138
0.00173794
0.0013873
0.00100762
0.000549974
-1.68102e-05
-0.000709729
-0.00153604
-0.00249363
-0.00357248
-0.00475674
-0.00602561
-0.00735583
-0.00872415
-0.0101088
-0.0114903
-0.0128514
-0.0141775
-0.0154571
-0.0166817
-0.0178452
-0.018944
-0.0199762
-0.0209414
-0.0218399
-0.0226727
-0.0234409
-0.0241459
-0.0247889
-0.025371
-0.0258932
-0.0263563
-0.0267609
-0.0271075
-0.0273966
-0.0276285
-0.0278035
-0.0279219
-0.0279843
-0.027991
-0.0279426
-0.0278398
-0.0276835
-0.0274746
-0.0272143
-0.0269037
-0.0265444
-0.0261376
-0.025685
-0.0251878
-0.0246473
-0.0240646
-0.0234401
-0.0227737
-0.0220644
-0.0213103
-0.0205078
-0.0196519
-0.0187356
-0.0177503
-0.016685
-0.0155273
-0.0142639
-0.0128818
-0.0113715
-0.00972989
-0.00796876
-0.00612834
-0.00428869
-0.00255859
-0.00108525
-2.22198e-05
0.000560738
0.000722689
0.000626384
0.000444093
0.000276907
0.000177153
0.00294272
0.00254344
0.00202426
0.00158628
0.0011954
0.000764232
0.00024136
-0.000402762
-0.00118495
-0.0021094
-0.00316843
-0.00434709
-0.00562453
-0.00697619
-0.00837655
-0.00980132
-0.0112285
-0.0126389
-0.0140161
-0.0153473
-0.0166228
-0.0178359
-0.0189826
-0.0200611
-0.0210711
-0.0220132
-0.0228887
-0.0236992
-0.0244465
-0.0251322
-0.0257576
-0.026324
-0.0268325
-0.0272838
-0.0276787
-0.0280176
-0.0283009
-0.028529
-0.0287022
-0.0288208
-0.0288852
-0.0288958
-0.0288532
-0.0287579
-0.0286108
-0.0284127
-0.0281647
-0.0278679
-0.0275235
-0.0271329
-0.0266974
-0.0262184
-0.025697
-0.0251343
-0.0245307
-0.0238865
-0.0232008
-0.0224722
-0.0216975
-0.0208725
-0.0199908
-0.019044
-0.0180217
-0.0169112
-0.0156981
-0.0143675
-0.0129056
-0.0113029
-0.00955844
-0.0076937
-0.00577533
-0.00390013
-0.00219485
-0.000840617
1.41664e-05
0.00035891
0.000328901
0.000131715
-7.96004e-05
-0.000196931
0.00275253
0.00233545
0.00178884
0.00131903
0.000888043
0.000405936
-0.000178865
-0.000895923
-0.00176108
-0.00277398
-0.00392264
-0.00518717
-0.00654242
-0.00796092
-0.00941559
-0.0108816
-0.012337
-0.0137633
-0.0151456
-0.0164727
-0.0177368
-0.0189334
-0.0200601
-0.0211167
-0.0221039
-0.0230235
-0.0238773
-0.0246674
-0.0253958
-0.0260642
-0.0266743
-0.0272272
-0.027724
-0.0281655
-0.0285524
-0.028885
-0.0291639
-0.0293893
-0.0295615
-0.0296807
-0.0297474
-0.0297619
-0.0297248
-0.0296365
-0.0294978
-0.0293095
-0.0290725
-0.0287879
-0.0284567
-0.0280802
-0.0276596
-0.0271961
-0.0266909
-0.0261448
-0.0255587
-0.0249328
-0.0242665
-0.0235588
-0.0228074
-0.0220083
-0.0211563
-0.0202438
-0.0192609
-0.0181956
-0.0170331
-0.0157575
-0.0143526
-0.0128049
-0.0111049
-0.00925464
-0.00729574
-0.00533735
-0.00346743
-0.00185242
-0.00070041
-0.000120676
-3.93196e-05
-0.000233022
-0.000487476
-0.000620923
0.00243011
0.00200132
0.00143381
0.000935464
0.000466004
-6.45256e-05
-0.000706716
-0.00149031
-0.00242952
-0.00351989
-0.004745
-0.00608056
-0.00749795
-0.00896754
-0.0104613
-0.0119542
-0.0134249
-0.0148559
-0.0162339
-0.0175496
-0.0187972
-0.0199737
-0.0210786
-0.0221127
-0.0230776
-0.0239757
-0.0248094
-0.0255809
-0.0262924
-0.0269458
-0.0275425
-0.0280838
-0.0285707
-0.0290041
-0.0293843
-0.029712
-0.0299874
-0.0302108
-0.0303825
-0.0305028
-0.0305719
-0.0305903
-0.0305584
-0.0304767
-0.0303458
-0.0301664
-0.0299394
-0.0296656
-0.0293462
-0.0289821
-0.0285745
-0.0281245
-0.0276332
-0.0271015
-0.0265302
-0.0259195
-0.0252695
-0.0245792
-0.023847
-0.0230698
-0.0222431
-0.0213604
-0.0204129
-0.0193894
-0.0182757
-0.0170554
-0.015711
-0.0142261
-0.0125872
-0.0107838
-0.0088257
-0.00681442
-0.00484837
-0.00303695
-0.00160403
-0.000748084
-0.000495672
-0.000659149
-0.00094477
-0.00109455
0.00197881
0.00154467
0.00096288
0.000439742
-6.52905e-05
-0.000639697
-0.00133354
-0.00217643
-0.00317949
-0.00433512
-0.00562276
-0.00701435
-0.00847854
-0.00998426
-0.011503
-0.0130099
-0.0144846
-0.0159108
-0.0172771
-0.018576
-0.0198033
-0.0209578
-0.02204
-0.0230517
-0.0239952
-0.0248732
-0.0256884
-0.0264432
-0.0271397
-0.0277798
-0.028365
-0.0288963
-0.0293749
-0.0298013
-0.0301761
-0.0304997
-0.0307724
-0.0309945
-0.0311662
-0.0312877
-0.0313594
-0.0313816
-0.0313546
-0.031279
-0.0311552
-0.030984
-0.030766
-0.0305022
-0.0301933
-0.0298403
-0.0294443
-0.0290063
-0.0285272
-0.028008
-0.0274494
-0.026852
-0.0262157
-0.0255402
-0.0248242
-0.0240655
-0.0232603
-0.0224034
-0.0214872
-0.0205015
-0.0194333
-0.0182667
-0.0169833
-0.0155648
-0.0139949
-0.0122581
-0.0103462
-0.00830122
-0.00628611
-0.00434994
-0.00267928
-0.00153624
-0.00106596
-0.00116305
-0.00145048
-0.00162268
0.00140699
0.000973889
0.000383992
-0.000159322
-0.000695808
-0.00130909
-0.00204813
-0.00294149
-0.00399776
-0.00520607
-0.00654233
-0.00797542
-0.009472
-0.0110001
-0.0125311
-0.0140409
-0.01551
-0.0169239
-0.0182728
-0.0195509
-0.0207557
-0.0218871
-0.0229465
-0.0239364
-0.0248597
-0.0257191
-0.0265174
-0.0272572
-0.0279404
-0.0285688
-0.0291438
-0.0296666
-0.030138
-0.0305585
-0.0309287
-0.031249
-0.0315196
-0.0317408
-0.0319128
-0.0320357
-0.0321099
-0.0321357
-0.0321134
-0.0320434
-0.0319263
-0.0317626
-0.031553
-0.0312981
-0.0309988
-0.0306559
-0.0302704
-0.0298431
-0.029375
-0.0288669
-0.0283196
-0.0277338
-0.0271095
-0.0264468
-0.0257448
-0.0250019
-0.0242153
-0.0233808
-0.022492
-0.0215402
-0.0205136
-0.0193975
-0.0181737
-0.0168223
-0.0153251
-0.0136651
-0.0118222
-0.00979393
-0.0077381
-0.00574132
-0.00390006
-0.00249349
-0.00177206
-0.00174285
-0.0020095
-0.00221614
0.000727117
0.000301353
-0.000290379
-0.000849044
-0.00141209
-0.00205882
-0.00283637
-0.00377122
-0.00486977
-0.00611835
-0.00748991
-0.00895094
-0.0104668
-0.012005
-0.0135374
-0.0150406
-0.0164965
-0.0178923
-0.0192196
-0.0204744
-0.0216553
-0.0227632
-0.0238003
-0.0247694
-0.0256736
-0.0265158
-0.0272989
-0.028025
-0.0286963
-0.0293145
-0.0298806
-0.0303959
-0.030861
-0.0312765
-0.0316429
-0.0319604
-0.0322293
-0.0324498
-0.0326222
-0.0327466
-0.0328233
-0.0328525
-0.0328346
-0.0327699
-0.0326589
-0.0325022
-0.0323002
-0.0320535
-0.0317631
-0.0314294
-0.0310535
-0.030636
-0.0301779
-0.02968
-0.0291429
-0.0285675
-0.027954
-0.0273026
-0.0266129
-0.0258839
-0.0251136
-0.0242987
-0.023434
-0.0225124
-0.0215235
-0.020454
-0.0192865
-0.0180012
-0.0165774
-0.0149969
-0.0132378
-0.0112813
-0.0091885
-0.00716756
-0.00523146
-0.00361247
-0.00263199
-0.0024153
-0.00263884
-0.00289171
-4.37169e-05
-0.00045805
-0.00104517
-0.00161438
-0.00219952
-0.00287421
-0.00368279
-0.00465013
-0.00578036
-0.00705742
-0.00845194
-0.00992868
-0.0114522
-0.01299
-0.0145146
-0.0160036
-0.0174405
-0.0188138
-0.0201168
-0.0213467
-0.0225032
-0.0235879
-0.0246034
-0.0255528
-0.0264392
-0.0272656
-0.0280346
-0.0287485
-0.0294092
-0.0300181
-0.0305764
-0.031085
-0.0315446
-0.0319557
-0.0323187
-0.0326338
-0.0329013
-0.0331214
-0.0332943
-0.0334202
-0.0334992
-0.0335316
-0.0335178
-0.033458
-0.0333528
-0.0332024
-0.0330074
-0.0327685
-0.0324861
-0.0321611
-0.031794
-0.0313856
-0.0309367
-0.0304482
-0.0299206
-0.0293548
-0.0287512
-0.0281101
-0.0274316
-0.0267151
-0.0259593
-0.0251617
-0.0243185
-0.0234237
-0.0224688
-0.0214418
-0.0203271
-0.0191052
-0.0177544
-0.016255
-0.0145871
-0.0127202
-0.0106405
-0.0085983
-0.00663093
-0.00486636
-0.00364895
-0.00321488
-0.00335577
-0.00367058
-0.000886565
-0.00128698
-0.00186454
-0.00243997
-0.00304223
-0.00373898
-0.00457128
-0.0055624
-0.00671434
-0.00800909
-0.00941552
-0.0108973
-0.0124185
-0.0139473
-0.0154567
-0.0169257
-0.0183391
-0.019687
-0.0209641
-0.0221685
-0.0233006
-0.0243627
-0.0253575
-0.0262883
-0.0271582
-0.02797
-0.0287262
-0.0294289
-0.0300799
-0.0306805
-0.0312317
-0.0317343
-0.032189
-0.0325962
-0.0329562
-0.0332692
-0.0335356
-0.0337553
-0.0339288
-0.034056
-0.0341372
-0.0341726
-0.0341626
-0.0341074
-0.0340074
-0.0338629
-0.0336745
-0.0334427
-0.0331679
-0.0328507
-0.0324919
-0.0320921
-0.0316519
-0.0311721
-0.0306535
-0.0300967
-0.0295023
-0.028871
-0.0282028
-0.0274978
-0.0267552
-0.0259733
-0.0251494
-0.0242787
-0.0233543
-0.0223661
-0.0212999
-0.0201375
-0.0188574
-0.0174378
-0.0158583
-0.0140884
-0.0120993
-0.0100255
-0.00806183
-0.00622597
-0.00481801
-0.00416031
-0.00417761
-0.00458071
-0.00178316
-0.00216736
-0.00273144
-0.0033087
-0.00392313
-0.00463614
-0.00548546
-0.00649236
-0.007657
-0.00895987
-0.0103687
-0.0118464
-0.0133573
-0.0148699
-0.0163585
-0.0178033
-0.0191903
-0.0205111
-0.0217614
-0.0229402
-0.0240485
-0.0250887
-0.026064
-0.0269773
-0.0278317
-0.02863
-0.0293745
-0.030067
-0.0307091
-0.0313021
-0.0318469
-0.0323441
-0.0327943
-0.0331979
-0.0335552
-0.0338664
-0.0341317
-0.0343512
-0.0345251
-0.0346536
-0.0347368
-0.034775
-0.0347685
-0.0347175
-0.0346223
-0.0344834
-0.034301
-0.0340757
-0.033808
-0.0334983
-0.0331472
-0.0327554
-0.0323234
-0.031852
-0.0313418
-0.0307937
-0.0302082
-0.0295861
-0.0289277
-0.0282335
-0.0275031
-0.0267356
-0.0259292
-0.0250804
-0.0241837
-0.0232306
-0.022209
-0.0211023
-0.0198899
-0.0185482
-0.0170562
-0.0153884
-0.0135117
-0.0114419
-0.00949894
-0.00765815
-0.00612234
-0.00525175
-0.00513069
-0.00563687
-0.00271499
-0.00308103
-0.00362817
-0.00420302
-0.00482505
-0.00554909
-0.00640936
-0.00742497
-0.00859447
-0.00989729
-0.0113005
-0.0127668
-0.0142609
-0.0157522
-0.0172158
-0.0186334
-0.0199923
-0.0212852
-0.0225087
-0.0236623
-0.0247475
-0.025767
-0.0267237
-0.0276207
-0.0284608
-0.0292466
-0.0299801
-0.0306632
-0.0312973
-0.0318833
-0.0324221
-0.0329143
-0.0333605
-0.0337608
-0.0341156
-0.0344251
-0.0346893
-0.0349086
-0.0350829
-0.0352125
-0.0352976
-0.0353384
-0.035335
-0.0352879
-0.0351972
-0.0350633
-0.0348865
-0.0346673
-0.0344062
-0.0341034
-0.0337596
-0.0333754
-0.0329512
-0.0324877
-0.0319857
-0.0314459
-0.030869
-0.0302558
-0.0296069
-0.0289229
-0.028204
-0.02745
-0.0266598
-0.025831
-0.0249595
-0.0240383
-0.0230574
-0.0220022
-0.0208532
-0.0195873
-0.0181835
-0.0166204
-0.014857
-0.012852
-0.0109091
-0.00911012
-0.00751565
-0.00647267
-0.00623738
-0.0068242
-0.00366412
-0.00400985
-0.00453714
-0.00510622
-0.00573178
-0.00646212
-0.00732801
-0.00834622
-0.00951397
-0.01081
-0.0122012
-0.0136504
-0.0151229
-0.016589
-0.018025
-0.0194138
-0.0207438
-0.0220087
-0.0232057
-0.024335
-0.0253983
-0.0263981
-0.0273374
-0.0282191
-0.0290458
-0.02982
-0.0305435
-0.0312179
-0.0318444
-0.032424
-0.0329573
-0.0334449
-0.0338873
-0.0342846
-0.034637
-0.0349448
-0.0352081
-0.0354271
-0.0356018
-0.0357325
-0.0358192
-0.0358622
-0.0358618
-0.0358181
-0.0357315
-0.0356023
-0.0354307
-0.0352172
-0.0349621
-0.0346658
-0.0343289
-0.0339518
-0.033535
-0.0330792
-0.0325851
-0.0320533
-0.0314847
-0.0308801
-0.0302404
-0.0295663
-0.0288585
-0.0281172
-0.027342
-0.0265317
-0.0256832
-0.0247912
-0.0238475
-0.0228393
-0.0217493
-0.0205555
-0.019235
-0.0177673
-0.0161174
-0.0142456
-0.0122942
-0.0105459
-0.00894672
-0.00779004
-0.00748687
-0.00811129
-0.00461297
-0.00493663
-0.00544177
-0.00600238
-0.00662805
-0.00736066
-0.0082276
-0.0092434
-0.0104041
-0.011688
-0.0130621
-0.01449
-0.0159376
-0.0173761
-0.0187831
-0.0201423
-0.0214435
-0.0226809
-0.0238525
-0.0249586
-0.026001
-0.0269823
-0.0279053
-0.0287727
-0.0295871
-0.0303505
-0.0310647
-0.031731
-0.0323505
-0.0329241
-0.0334523
-0.0339357
-0.0343745
-0.0347689
-0.0351192
-0.0354254
-0.0356878
-0.0359064
-0.0360814
-0.036213
-0.0363012
-0.0363462
-0.0363484
-0.0363079
-0.036225
-0.0361
-0.0359332
-0.0357248
-0.0354754
-0.0351852
-0.0348547
-0.0344843
-0.0340746
-0.0336261
-0.0331395
-0.0326155
-0.032055
-0.0314588
-0.030828
-0.0301635
-0.0294663
-0.0287371
-0.0279762
-0.027183
-0.0263557
-0.0254905
-0.0245807
-0.0236158
-0.0225803
-0.021454
-0.0202133
-0.018837
-0.0172989
-0.0155648
-0.0136433
-0.0119406
-0.0103749
-0.00916143
-0.00881746
-0.00942125
-0.00554527
-0.00584567
-0.00632712
-0.00687699
-0.0074999
-0.00823145
-0.00909573
-0.0101051
-0.0112547
-0.0125222
-0.0138759
-0.0152797
-0.0167003
-0.01811
-0.0194874
-0.0208173
-0.0220903
-0.0233013
-0.0244486
-0.0255327
-0.0265556
-0.0275196
-0.0284275
-0.0292818
-0.0300847
-0.0308381
-0.0315436
-0.0322024
-0.0328155
-0.0333835
-0.033907
-0.0343863
-0.0348218
-0.0352135
-0.0355617
-0.0358665
-0.036128
-0.0363463
-0.0365215
-0.0366537
-0.0367432
-0.0367901
-0.0367946
-0.036757
-0.0366774
-0.0365562
-0.0363937
-0.0361901
-0.0359458
-0.0356612
-0.0353367
-0.0349726
-0.0345695
-0.0341279
-0.0336485
-0.0331321
-0.0325794
-0.0319914
-0.0313693
-0.0307142
-0.0300272
-0.0293096
-0.0285621
-0.0277849
-0.0269771
-0.0261364
-0.0252576
-0.0243321
-0.0233466
-0.0222825
-0.0211174
-0.0198306
-0.0184016
-0.0167886
-0.0149565
-0.0132738
-0.0117556
-0.01053
-0.0101362
-0.0106391
-0.00644549
-0.00672277
-0.00717958
-0.00771697
-0.00833485
-0.00906268
-0.0099214
-0.0109213
-0.0120572
-0.0133056
-0.014636
-0.0160141
-0.0174069
-0.0187876
-0.0201357
-0.0214372
-0.0226832
-0.0238691
-0.0249936
-0.0260573
-0.027062
-0.0280101
-0.028904
-0.029746
-0.0305383
-0.0312825
-0.03198
-0.0326319
-0.033239
-0.0338019
-0.034321