/*--------------------------------*- C++ -*----------------------------------*\
  =========                 |
  \\      /  F ield         | OpenFOAM: The Open Source CFD Toolbox
   \\    /   O peration     | Website:  https://openfoam.org
    \\  /    A nd           | Version:  13
     \\/     M anipulation  |
\*---------------------------------------------------------------------------*/
FoamFile
{
    format      ascii;
    class       surfaceScalarField;
    location    "8";
    object      phi;
}
// * * * * * * * * * * * * * * * * * * * * * * * * * * * * * * * * * * * * * //

dimensions      [0 3 -1 0 0 0 0];

internalField   nonuniform List<scalar> 
12640
(
1.69793e-09
-1.69789e-09
1.55241e-08
-1.38262e-08
3.98049e-08
-2.42808e-08
6.7787e-08
-2.79821e-08
9.30153e-08
-2.52283e-08
1.11872e-07
-1.88564e-08
1.23e-07
-1.11287e-08
1.27327e-07
-4.32666e-09
1.27178e-07
1.49607e-10
1.24911e-07
2.26663e-09
1.22522e-07
2.38851e-09
1.21301e-07
1.22179e-09
1.21648e-07
-3.47482e-10
1.23299e-07
-1.65084e-09
1.25403e-07
-2.10443e-09
1.27026e-07
-1.62233e-09
1.27279e-07
-2.53039e-10
1.25636e-07
1.64277e-09
1.21228e-07
4.40824e-09
1.13158e-07
8.06976e-09
1.0087e-07
1.22881e-08
8.37665e-08
1.71034e-08
6.1407e-08
2.23595e-08
3.36052e-08
2.78018e-08
3.26396e-10
3.32788e-08
-3.86142e-08
3.89405e-08
-8.46472e-08
4.6033e-08
-1.40226e-07
5.55793e-08
-2.08276e-07
6.80497e-08
-2.90974e-07
8.2698e-08
-3.87218e-07
9.62437e-08
-4.93344e-07
1.06126e-07
-6.05803e-07
1.1246e-07
-7.21134e-07
1.15331e-07
-8.36332e-07
1.15197e-07
-9.48783e-07
1.12452e-07
-1.05636e-06
1.07579e-07
-1.15735e-06
1.00985e-07
-1.25039e-06
9.30391e-08
-1.33443e-06
8.40466e-08
-1.40863e-06
7.41948e-08
-1.47229e-06
6.36613e-08
-1.52481e-06
5.25159e-08
-1.5656e-06
4.07963e-08
-1.59407e-06
2.84699e-08
-1.61009e-06
1.60168e-08
-1.61376e-06
3.67258e-09
-1.60313e-06
-1.0634e-08
-1.57908e-06
-2.40498e-08
-1.54048e-06
-3.85932e-08
-1.4875e-06
-5.29861e-08
-1.41994e-06
-6.75543e-08
-1.33816e-06
-8.1785e-08
-1.2426e-06
-9.55542e-08
-1.13394e-06
-1.08668e-07
-1.01307e-06
-1.20864e-07
-8.8144e-07
-1.31632e-07
-7.40869e-07
-1.40572e-07
-5.93736e-07
-1.47132e-07
-4.42928e-07
-1.50809e-07
-2.91955e-07
-1.50973e-07
-1.44662e-07
-1.47293e-07
-5.05913e-09
-1.39603e-07
1.23595e-07
-1.28654e-07
2.36435e-07
-1.12841e-07
3.29696e-07
-9.32605e-08
4.00148e-07
-7.04516e-08
4.45359e-07
-4.52117e-08
4.64054e-07
-1.86945e-08
4.55107e-07
8.9462e-09
4.21599e-07
3.35084e-08
3.66104e-07
5.54947e-08
2.94898e-07
7.1206e-08
2.17644e-07
7.72547e-08
1.45122e-07
7.25214e-08
8.46124e-08
6.05098e-08
3.98449e-08
4.47676e-08
1.13744e-08
2.84705e-08
-7.77078e-10
1.21514e-08
-7.77079e-10
1.07343e-08
-1.24322e-08
4.39797e-08
-4.70716e-08
8.98759e-08
-7.01771e-08
1.36604e-07
-7.47099e-08
1.7654e-07
-6.51648e-08
2.05918e-07
-4.82348e-08
2.24165e-07
-2.93757e-08
2.32301e-07
-1.24625e-08
2.32136e-07
3.14896e-10
2.26029e-07
8.37388e-09
2.16256e-07
1.21608e-08
2.04383e-07
1.30955e-08
1.90899e-07
1.31359e-08
1.75231e-07
1.40178e-08
1.56329e-07
1.67973e-08
1.33049e-07
2.16577e-08
1.04452e-07
2.83434e-08
6.92621e-08
3.68331e-08
2.62276e-08
4.74427e-08
-2.61923e-08
6.04897e-08
-9.00528e-08
7.61486e-08
-1.67137e-07
9.41871e-08
-2.58639e-07
1.13862e-07
-3.65398e-07
1.34561e-07
-4.87958e-07
1.55839e-07
-6.26028e-07
1.7701e-07
-7.7702e-07
1.97025e-07
-9.36637e-07
2.15196e-07
-1.09938e-06
2.30795e-07
-1.2594e-06
2.42717e-07
-1.41327e-06
2.50108e-07
-1.55999e-06
2.52846e-07
-1.69815e-06
2.50629e-07
-1.82654e-06
2.43717e-07
-1.94416e-06
2.32819e-07
-2.05038e-06
2.18667e-07
-2.14472e-06
2.0192e-07
-2.2269e-06
1.83172e-07
-2.29672e-06
1.62856e-07
-2.35404e-06
1.41369e-07
-2.39876e-06
1.18908e-07
-2.43076e-06
9.56612e-08
-2.44996e-06
7.17141e-08
-2.4563e-06
4.71444e-08
-2.44982e-06
2.19846e-08
-2.42973e-06
-4.07063e-09
-2.39628e-06
-2.97816e-08
-2.34984e-06
-5.70731e-08
-2.28931e-06
-8.45779e-08
-2.21526e-06
-1.12638e-07
-2.12733e-06
-1.40921e-07
-2.02559e-06
-1.69291e-07
-1.90998e-06
-1.97393e-07
-1.78072e-06
-2.24816e-07
-1.63841e-06
-2.50978e-07
-1.48419e-06
-2.75092e-07
-1.31933e-06
-2.96486e-07
-1.14571e-06
-3.14196e-07
-9.65654e-07
-3.27185e-07
-7.81871e-07
-3.34591e-07
-5.97395e-07
-3.35449e-07
-4.15652e-07
-3.29036e-07
-2.40215e-07
-3.1504e-07
-7.53743e-08
-2.93495e-07
7.59649e-08
-2.6418e-07
2.10329e-07
-2.27625e-07
3.24259e-07
-1.84382e-07
4.15198e-07
-1.3615e-07
4.80716e-07
-8.42131e-08
5.20381e-07
-3.07186e-08
5.32463e-07
2.14263e-08
5.17632e-07
7.03255e-08
4.77885e-07
1.10953e-07
4.14366e-07
1.40773e-07
3.30624e-07
1.56263e-07
2.37085e-07
1.54049e-07
1.46211e-07
1.35642e-07
7.04281e-08
1.04254e-07
1.98025e-08
6.2777e-08
1.90254e-08
2.02936e-08
-3.27257e-08
6.71349e-08
-9.39129e-08
1.19533e-07
-1.22575e-07
1.65569e-07
-1.20746e-07
2.00861e-07
-1.00456e-07
2.24492e-07
-7.18658e-08
2.37178e-07
-4.20621e-08
2.39911e-07
-1.51951e-08
2.33871e-07
6.35501e-09
2.20544e-07
2.1701e-08
2.01312e-07
3.13922e-08
1.76752e-07
3.76557e-08
1.46664e-07
4.32237e-08
1.10219e-07
5.04631e-08
6.62385e-08
6.07777e-08
1.32822e-08
7.4614e-08
-5.04007e-08
9.20263e-08
-1.26635e-07
1.13067e-07
-2.16969e-07
1.37777e-07
-3.22632e-07
1.66152e-07
-4.44084e-07
1.97601e-07
-5.8093e-07
2.31034e-07
-7.3207e-07
2.65001e-07
-8.94988e-07
2.9748e-07
-1.0662e-06
3.27048e-07
-1.24139e-06
3.52205e-07
-1.41626e-06
3.7189e-07
-1.58678e-06
3.85716e-07
-1.74936e-06
3.93382e-07
-1.90147e-06
3.94823e-07
-2.04163e-06
3.9027e-07
-2.16893e-06
3.80149e-07
-2.28343e-06
3.6512e-07
-2.38555e-06
3.45846e-07
-2.47563e-06
3.22899e-07
-2.55404e-06
2.97069e-07
-2.62106e-06
2.6894e-07
-2.67695e-06
2.39064e-07
-2.72187e-06
2.07781e-07
-2.75595e-06
1.75447e-07
-2.77925e-06
1.42202e-07
-2.79174e-06
1.08153e-07
-2.79337e-06
7.33506e-08
-2.78403e-06
3.7802e-08
-2.76343e-06
1.38086e-09
-2.73176e-06
-3.57354e-08
-2.68787e-06
-7.36786e-08
-2.63225e-06
-1.12687e-07
-2.56435e-06
-1.52483e-07
-2.48395e-06
-1.93033e-07
-2.39083e-06
-2.34041e-07
-2.28486e-06
-2.75261e-07
-2.16601e-06
-3.16244e-07
-2.03444e-06
-3.56384e-07
-1.8906e-06
-3.94823e-07
-1.73519e-06
-4.305e-07
-1.56929e-06
-4.62384e-07
-1.39433e-06
-4.89161e-07
-1.21221e-06
-5.093e-07
-1.02546e-06
-5.21339e-07
-8.36907e-07
-5.24007e-07
-6.49855e-07
-5.16087e-07
-4.67927e-07
-4.96968e-07
-2.94856e-07
-4.66566e-07
-1.33796e-07
-4.2524e-07
1.21278e-08
-3.73548e-07
1.40426e-07
-3.1268e-07
2.48433e-07
-2.44157e-07
3.34703e-07
-1.70483e-07
3.98409e-07
-9.44249e-08
4.38736e-07
-1.89001e-08
4.55232e-07
5.38293e-08
4.46778e-07
1.19408e-07
4.14745e-07
1.72806e-07
3.60784e-07
2.10225e-07
2.87798e-07
2.27035e-07
2.02499e-07
2.2094e-07
1.15513e-07
1.91239e-07
4.05414e-08
1.37749e-07
5.95668e-08
2.81656e-08
-6.08913e-08
8.13526e-08
-1.471e-07
1.31208e-07
-1.72431e-07
1.69251e-07
-1.58789e-07
1.94319e-07
-1.25523e-07
2.0767e-07
-8.52175e-08
2.10529e-07
-4.4921e-08
2.04027e-07
-8.69244e-09
1.88943e-07
2.14382e-08
1.65738e-07
4.49059e-08
1.34186e-07
6.2945e-08
9.37669e-08
7.80744e-08
4.3694e-08
9.32967e-08
-1.69905e-08
1.11147e-07
-8.94083e-08
1.33196e-07
-1.7494e-07
1.60146e-07
-2.75055e-07
1.92141e-07
-3.91017e-07
2.29029e-07
-5.2336e-07
2.7012e-07
-6.71559e-07
3.14351e-07
-8.33742e-07
3.59784e-07
-1.0067e-06
4.0399e-07
-1.18653e-06
4.44832e-07
-1.36889e-06
4.79844e-07
-1.54964e-06
5.07793e-07
-1.72485e-06
5.27414e-07
-1.89103e-06
5.38077e-07
-2.04555e-06
5.4023e-07
-2.18709e-06
5.3492e-07
-2.3153e-06
5.23034e-07
-2.43043e-06
5.05405e-07
-2.5331e-06
4.8282e-07
-2.62396e-06
4.55975e-07
-2.70373e-06
4.25615e-07
-2.77312e-06
3.9229e-07
-2.83267e-06
3.5662e-07
-2.88279e-06
3.19064e-07
-2.92379e-06
2.80058e-07
-2.95585e-06
2.3984e-07
-2.97903e-06
1.98631e-07
-2.99334e-06
1.56512e-07
-2.99871e-06
1.13518e-07
-2.99495e-06
6.95958e-08
-2.98183e-06
2.46848e-08
-2.95917e-06
-2.12863e-08
-2.92655e-06
-6.83531e-08
-2.88357e-06
-1.16658e-07
-2.82996e-06
-1.66293e-07
-2.76525e-06
-2.17194e-07
-2.68907e-06
-2.69214e-07
-2.60108e-06
-3.22034e-07
-2.50098e-06
-3.75363e-07
-2.38855e-06
-4.28674e-07
-2.26367e-06
-4.81265e-07
-2.12639e-06
-5.32098e-07
-1.97712e-06
-5.79776e-07
-1.81663e-06
-6.22869e-07
-1.64599e-06
-6.59803e-07
-1.46671e-06
-6.88583e-07
-1.28086e-06
-7.07184e-07
-1.09096e-06
-7.13904e-07
-9.00103e-07
-7.06948e-07
-7.11927e-07
-6.85143e-07
-5.30602e-07
-6.47891e-07
-3.59842e-07
-5.96e-07
-2.02756e-07
-5.30634e-07
-6.23057e-08
-4.5313e-07
5.93701e-08
-3.65833e-07
1.60604e-07
-2.71717e-07
2.40376e-07
-1.74197e-07
2.98341e-07
-7.68652e-08
3.35221e-07
1.69496e-08
3.50961e-07
1.03667e-07
3.44974e-07
1.78793e-07
3.17314e-07
2.37886e-07
2.68769e-07
2.7558e-07
2.0316e-07
2.86549e-07
1.26348e-07
2.68051e-07
4.88736e-08
2.15224e-07
1.0844e-07
3.41626e-08
-9.50538e-08
8.65111e-08
-1.99449e-07
1.27512e-07
-2.13432e-07
1.53979e-07
-1.85256e-07
1.66782e-07
-1.38327e-07
1.68179e-07
-8.66141e-08
1.59542e-07
-3.62845e-08
1.41596e-07
9.25353e-09
1.1449e-07
4.85444e-08
7.77549e-08
8.16409e-08
3.04125e-08
1.10287e-07
-2.87343e-08
1.37221e-07
-1.00859e-07
1.65421e-07
-1.8705e-07
1.97339e-07
-2.88331e-07
2.34476e-07
-4.05554e-07
2.77369e-07
-5.39132e-07
3.25719e-07
-6.88776e-07
3.78674e-07
-8.52951e-07
4.34295e-07
-1.02852e-06
4.89919e-07
-1.21162e-06
5.42888e-07
-1.39768e-06
5.90047e-07
-1.58236e-06
6.29509e-07
-1.76142e-06
6.58904e-07
-1.93053e-06
6.76908e-07
-2.08719e-06
6.84074e-07
-2.23057e-06
6.81452e-07
-2.36071e-06
6.70373e-07
-2.4781e-06
6.52304e-07
-2.58345e-06
6.28384e-07
-2.67763e-06
5.99593e-07
-2.76148e-06
5.66669e-07
-2.83573e-06
5.30226e-07
-2.90103e-06
4.90908e-07
-2.95796e-06
4.49219e-07
-3.00694e-06
4.05605e-07
-3.0483e-06
3.60425e-07
-3.08226e-06
3.14016e-07
-3.10893e-06
2.66515e-07
-3.12834e-06
2.18033e-07
-3.14037e-06
1.68542e-07
-3.14496e-06
1.1811e-07
-3.14191e-06
6.65443e-08
-3.13091e-06
1.36881e-08
-3.11174e-06
-4.04534e-08
-3.08396e-06
-9.61419e-08
-3.04714e-06
-1.53476e-07
-3.00092e-06
-2.12506e-07
-2.94477e-06
-2.73349e-07
-2.87804e-06
-3.35944e-07
-2.80027e-06
-3.99802e-07
-2.71097e-06
-4.64664e-07
-2.60969e-06
-5.29949e-07
-2.49602e-06
-5.94935e-07
-2.36957e-06
-6.58555e-07
-2.23035e-06
-7.18992e-07
-2.07884e-06
-7.74377e-07
-1.91562e-06
-8.23029e-07
-1.74173e-06
-8.62472e-07
-1.55891e-06
-8.90003e-07
-1.36926e-06
-9.0355e-07
-1.17564e-06
-9.00572e-07
-9.81188e-07
-8.79596e-07
-7.89966e-07
-8.39113e-07
-6.06695e-07
-7.79271e-07
-4.35618e-07
-7.01711e-07
-2.79832e-07
-6.08916e-07
-1.42069e-07
-5.03596e-07
-2.44501e-08
-3.89336e-07
7.17881e-08
-2.70435e-07
1.46245e-07
-1.51323e-07
1.99457e-07
-3.62616e-08
2.32345e-07
7.07789e-08
2.4539e-07
1.65748e-07
2.38923e-07
2.44352e-07
2.13278e-07
3.01225e-07
1.69446e-07
3.30381e-07
1.10534e-07
3.26963e-07
4.42851e-08
2.81472e-07
1.52726e-07
3.75767e-08
-1.3263e-07
8.25287e-08
-2.44401e-07
1.10777e-07
-2.4168e-07
1.23266e-07
-1.97745e-07
1.22899e-07
-1.37959e-07
1.11658e-07
-7.53735e-08
9.05105e-08
-1.5137e-08
5.95698e-08
4.01942e-08
1.8348e-08
8.97662e-08
-3.43054e-08
1.34294e-07
-9.97872e-08
1.75769e-07
-1.79504e-07
2.16938e-07
-2.74642e-07
2.6056e-07
-3.8605e-07
3.08747e-07
-5.1416e-07
3.62586e-07
-6.58723e-07
4.21932e-07
-8.18608e-07
4.85604e-07
-9.91415e-07
5.5148e-07
-1.17363e-06
6.16513e-07
-1.36064e-06
6.76928e-07
-1.54792e-06
7.30163e-07
-1.7305e-06
7.72627e-07
-1.90324e-06
8.02248e-07
-2.06316e-06
8.18831e-07
-2.20949e-06
8.23235e-07
-2.34248e-06
8.17068e-07
-2.46295e-06
8.01916e-07
-2.57191e-06
7.79336e-07
-2.67025e-06
7.50648e-07
-2.75881e-06
7.16937e-07
-2.83831e-06
6.79099e-07
-2.90941e-06
6.37769e-07
-2.97274e-06
5.93553e-07
-3.02881e-06
5.46973e-07
-3.07802e-06
4.98438e-07
-3.12069e-06
4.48271e-07
-3.15698e-06
3.96713e-07
-3.18705e-06
3.44087e-07
-3.21101e-06
2.90477e-07
-3.22893e-06
2.35949e-07
-3.24061e-06
1.80229e-07
-3.24617e-06
1.23667e-07
-3.24552e-06
6.5893e-08
-3.2383e-06
6.46608e-09
-3.22469e-06
-5.4064e-08
-3.20407e-06
-1.16758e-07
-3.17596e-06
-1.81585e-07
-3.13985e-06
-2.48615e-07
-3.09524e-06
-3.17964e-07
-3.04127e-06
-3.8991e-07
-2.97723e-06
-4.63845e-07
-2.90225e-06
-5.39648e-07
-2.81554e-06
-6.16659e-07
-2.71658e-06
-6.93887e-07
-2.60488e-06
-7.70263e-07
-2.47976e-06
-8.44113e-07
-2.34104e-06
-9.1309e-07
-2.18879e-06
-9.75282e-07
-2.02345e-06
-1.02781e-06
-1.84648e-06
-1.06697e-06
-1.65936e-06
-1.09067e-06
-1.46472e-06
-1.09522e-06
-1.26548e-06
-1.07883e-06
-1.06545e-06
-1.03914e-06
-8.69082e-07
-9.75642e-07
-6.81785e-07
-8.89008e-07
-5.08063e-07
-7.82638e-07
-3.51297e-07
-6.60362e-07
-2.14375e-07
-5.26259e-07
-9.93169e-08
-3.85493e-07
-6.96482e-09
-2.43675e-07
6.30226e-08
-1.06249e-07
1.11874e-07
2.19275e-08
1.4117e-07
1.36452e-07
1.51938e-07
2.33585e-07
1.44817e-07
3.08346e-07
1.20287e-07
3.54911e-07
8.06214e-08
3.66629e-07
3.20747e-08
3.30019e-07
1.848e-07
3.74091e-08
-1.7004e-07
6.95953e-08
-2.76587e-07
8.29615e-08
-2.55046e-07
8.07198e-08
-1.95503e-07
6.66782e-08
-1.23918e-07
4.22116e-08
-5.09069e-08
7.61546e-09
1.94592e-08
-3.75962e-08
8.54059e-08
-9.44833e-08
1.46653e-07
-1.64459e-07
2.0427e-07
-2.49018e-07
2.60329e-07
-3.4944e-07
3.17359e-07
-4.66546e-07
3.77666e-07
-6.00525e-07
4.42725e-07
-7.50783e-07
5.12845e-07
-9.15738e-07
5.86887e-07
-1.09246e-06
6.62324e-07
-1.27678e-06
7.35799e-07
-1.464e-06
8.03733e-07
-1.64902e-06
8.61949e-07
-1.82584e-06
9.06985e-07
-1.9905e-06
9.37284e-07
-2.14147e-06
9.53221e-07
-2.27888e-06
9.56239e-07
-2.40362e-06
9.47977e-07
-2.51673e-06
9.30183e-07
-2.61929e-06
9.04469e-07
-2.71226e-06
8.72307e-07
-2.79643e-06
8.34821e-07
-2.87246e-06
7.9297e-07
-2.9409e-06
7.47536e-07
-3.00225e-06
6.99123e-07
-3.05698e-06
6.4828e-07
-3.10544e-06
5.95431e-07
-3.14797e-06
5.40967e-07
-3.18481e-06
4.85117e-07
-3.21597e-06
4.27865e-07
-3.24167e-06
3.69786e-07
-3.26205e-06
3.10858e-07
-3.2772e-06
2.511e-07
-3.28737e-06
1.90403e-07
-3.29229e-06
1.28581e-07
-3.29188e-06
6.54915e-08
-3.28572e-06
3.06273e-10
-3.27446e-06
-6.53278e-08
-3.25783e-06
-1.33388e-07
-3.23582e-06
-2.03598e-07
-3.20822e-06
-2.76212e-07
-3.17475e-06
-3.51436e-07
-3.13505e-06
-4.29605e-07
-3.08802e-06
-5.10874e-07
-3.03265e-06
-5.95021e-07
-2.9676e-06
-6.81708e-07
-2.89111e-06
-7.70381e-07
-2.80124e-06
-8.60135e-07
-2.69647e-06
-9.48877e-07
-2.57616e-06
-1.0334e-06
-2.44048e-06
-1.11097e-06
-2.28977e-06
-1.17851e-06
-2.12412e-06
-1.23263e-06
-1.94434e-06
-1.27045e-06
-1.75294e-06
-1.28662e-06
-1.55228e-06
-1.27949e-06
-1.34607e-06
-1.24535e-06
-1.13848e-06
-1.18323e-06
-9.34903e-07
-1.09258e-06
-7.41805e-07
-9.75736e-07
-5.64055e-07
-8.38112e-07
-4.05287e-07
-6.85027e-07
-2.68576e-07
-5.22204e-07
-1.55776e-07
-3.56475e-07
-6.72129e-08
-1.94812e-07
-1.709e-09
-4.35764e-08
4.25812e-08
9.21623e-08
6.81215e-08
2.08044e-07
7.64753e-08
2.99992e-07
6.85258e-08
3.6286e-07
4.65763e-08
3.88579e-07
1.69893e-08
3.59606e-07
2.0179e-07
3.25119e-08
-2.02551e-07
4.93947e-08
-2.9347e-07
4.67296e-08
-2.52381e-07
2.95159e-08
-1.7829e-07
1.51425e-09
-9.59161e-08
-3.6657e-08
-1.27357e-08
-8.5439e-08
6.82412e-08
-1.45791e-07
1.45757e-07
-2.19036e-07
2.19898e-07
-3.06605e-07
2.91839e-07
-4.09773e-07
3.63497e-07
-5.29383e-07
4.36969e-07
-6.65573e-07
5.13856e-07
-8.17652e-07
5.94804e-07
-9.83845e-07
6.79038e-07
-1.16087e-06
7.63911e-07
-1.34426e-06
8.45717e-07
-1.52905e-06
9.20586e-07
-1.70913e-06
9.83811e-07
-1.87925e-06
1.03207e-06
-2.03634e-06
1.06408e-06
-2.17985e-06
1.08079e-06
-2.31022e-06
1.0836e-06
-2.42845e-06
1.07446e-06
-2.53561e-06
1.05514e-06
-2.63283e-06
1.02741e-06
-2.72104e-06
9.92674e-07
-2.80094e-06
9.52213e-07
-2.87312e-06
9.07e-07
-2.93806e-06
8.57901e-07
-2.99614e-06
8.05624e-07
-3.04778e-06
7.50756e-07
-3.09327e-06
6.93772e-07
-3.1328e-06
6.34965e-07
-3.16668e-06
5.74843e-07
-3.19551e-06
5.13946e-07
-3.21999e-06
4.52352e-07
-3.24018e-06
3.89977e-07
-3.2561e-06
3.26771e-07
-3.26755e-06
2.62554e-07
-3.27477e-06
1.97618e-07
-3.27767e-06
1.3149e-07
-3.27637e-06
6.41829e-08
-3.27105e-06
-5.00999e-09
-3.26164e-06
-7.47366e-08
-3.24826e-06
-1.4677e-07
-3.23076e-06
-2.21096e-07
-3.20895e-06
-2.9802e-07
-3.18255e-06
-3.77843e-07
-3.15148e-06
-4.60672e-07
-3.11533e-06
-5.47027e-07
-3.07368e-06
-6.3667e-07
-3.02585e-06
-7.2953e-07
-2.97108e-06
-8.25158e-07
-2.90832e-06
-9.2289e-07
-2.83509e-06
-1.02211e-06
-2.74724e-06
-1.12124e-06
-2.64088e-06
-1.21734e-06
-2.51431e-06
-1.30508e-06
-2.36811e-06
-1.37883e-06
-2.20423e-06
-1.43433e-06
-2.02355e-06
-1.4673e-06
-1.82797e-06
-1.47507e-06
-1.62106e-06
-1.45226e-06
-1.40676e-06
-1.39754e-06
-1.1899e-06
-1.30944e-06
-9.77693e-07
-1.18794e-06
-7.77671e-07
-1.03813e-06
-5.95226e-07
-8.67472e-07
-4.34314e-07
-6.83116e-07
-2.98159e-07
-4.92629e-07
-1.88354e-07
-3.04617e-07
-1.04591e-07
-1.27339e-07
-4.46533e-08
3.2225e-08
-5.31799e-09
1.68709e-07
1.61555e-08
2.78518e-07
2.2153e-08
3.56863e-07
1.57385e-08
3.94993e-07
3.37003e-09
3.71974e-07
2.0516e-07
2.32716e-08
-2.25823e-07
2.34574e-08
-2.93655e-07
4.15501e-09
-2.33079e-07
-2.74778e-08
-1.46657e-07
-6.94503e-08
-5.39436e-08
-1.21705e-07
3.95192e-08
-1.8507e-07
1.31606e-07
-2.6079e-07
2.21478e-07
-3.50206e-07
3.09313e-07
-4.54516e-07
3.9615e-07
-5.74544e-07
4.83525e-07
-7.10445e-07
5.7287e-07
-8.61603e-07
6.65014e-07
-1.02631e-06
7.59509e-07
-1.2011e-06
8.53828e-07
-1.38137e-06
9.44183e-07
-1.56185e-06
1.0262e-06
-1.73635e-06
1.09508e-06
-1.9001e-06
1.14756e-06
-2.05087e-06
1.18285e-06
-2.18825e-06
1.20146e-06
-2.31279e-06
1.20533e-06
-2.42551e-06
1.19631e-06
-2.52751e-06
1.17647e-06
-2.61984e-06
1.14747e-06
-2.70335e-06
1.11091e-06
-2.7787e-06
1.06802e-06
-2.84639e-06
1.0199e-06
-2.90686e-06
9.67472e-07
-2.9605e-06
9.11543e-07
-3.00767e-06
8.52794e-07
-3.04875e-06
7.91837e-07
-3.08426e-06
7.2928e-07
-3.11488e-06
6.65585e-07
-3.14099e-06
6.00948e-07
-3.16241e-06
5.35375e-07
-3.1793e-06
4.69237e-07
-3.19169e-06
4.02368e-07
-3.19987e-06
3.34946e-07
-3.20438e-06
2.67072e-07
-3.20556e-06
1.98795e-07
-3.2038e-06
1.29733e-07
-3.19936e-06
5.97377e-08
-3.19276e-06
-1.16058e-08
-3.18344e-06
-8.40576e-08
-3.17164e-06
-1.58568e-07
-3.15741e-06
-2.3533e-07
-3.14071e-06
-3.14716e-07
-3.1215e-06
-3.97058e-07
-3.09949e-06
-4.82682e-07
-3.07451e-06
-5.72005e-07
-3.046e-06
-6.65186e-07
-3.01321e-06
-7.62315e-07
-2.97519e-06
-8.63181e-07
-2.93096e-06
-9.67121e-07
-2.87964e-06
-1.07343e-06
-2.81982e-06
-1.18106e-06
-2.74955e-06
-1.28761e-06
-2.66355e-06
-1.39108e-06
-2.55444e-06
-1.48794e-06
-2.41931e-06
-1.56946e-06
-2.2593e-06
-1.62731e-06
-2.0789e-06
-1.65547e-06
-1.87966e-06
-1.65151e-06
-1.66599e-06
-1.6112e-06
-1.44215e-06
-1.53328e-06
-1.21465e-06
-1.41544e-06
-9.92542e-07
-1.26024e-06
-7.84885e-07
-1.07513e-06
-5.97716e-07
-8.70285e-07
-4.35321e-07
-6.55024e-07
-3.00959e-07
-4.38979e-07
-1.95717e-07
-2.32581e-07
-1.18277e-07
-4.52152e-08
-6.51748e-08
1.15607e-07
-3.17771e-08
2.45121e-07
-1.41242e-08
3.3921e-07
-7.21423e-09
3.88083e-07
-5.35875e-09
3.70119e-07
1.99801e-07
1.09627e-08
-2.36786e-07
-6.47986e-09
-2.76213e-07
-4.13636e-08
-1.98195e-07
-8.75212e-08
-1.00499e-07
-1.43546e-07
2.08121e-09
-2.09865e-07
1.05838e-07
-2.87681e-07
2.09422e-07
-3.78277e-07
3.12075e-07
-4.82792e-07
4.13828e-07
-6.02006e-07
5.15364e-07
-7.36105e-07
6.17624e-07
-8.84603e-07
7.21367e-07
-1.046e-06
8.26414e-07
-1.21697e-06
9.30478e-07
-1.39278e-06
1.02964e-06
-1.56801e-06
1.11941e-06
-1.73696e-06
1.19515e-06
-1.89521e-06
1.25333e-06
-2.04071e-06
1.29306e-06
-2.17292e-06
1.31506e-06
-2.29248e-06
1.32102e-06
-2.40036e-06
1.3132e-06
-2.49765e-06
1.2936e-06
-2.58527e-06
1.26409e-06
-2.66401e-06
1.22621e-06
-2.73444e-06
1.18134e-06
-2.79704e-06
1.13062e-06
-2.85225e-06
1.07511e-06
-2.90049e-06
1.01571e-06
-2.94221e-06
9.53258e-07
-2.97787e-06
8.88457e-07
-3.00796e-06
8.21925e-07
-3.03278e-06
7.541e-07
-3.05261e-06
6.85413e-07
-3.06777e-06
6.16113e-07
-3.07878e-06
5.46381e-07
-3.08609e-06
4.76547e-07
-3.09032e-06
4.06599e-07
-3.09195e-06
3.36577e-07
-3.09125e-06
2.6637e-07
-3.08831e-06
1.95856e-07
-3.08339e-06
1.24813e-07
-3.07666e-06
5.30141e-08
-3.06843e-06
-1.98444e-08
-3.05853e-06
-9.39512e-08
-3.04726e-06
-1.69834e-07
-3.03478e-06
-2.47819e-07
-3.02118e-06
-3.28312e-07
-3.00654e-06
-4.11698e-07
-2.99082e-06
-4.98398e-07
-2.974e-06
-5.88827e-07
-2.95586e-06
-6.83327e-07
-2.93602e-06
-7.82152e-07
-2.91385e-06
-8.85355e-07
-2.88823e-06
-9.92742e-07
-2.85771e-06
-1.10395e-06
-2.82064e-06
-1.21813e-06
-2.775e-06
-1.33325e-06
-2.71879e-06
-1.44729e-06
-2.64954e-06
-1.55719e-06
-2.56048e-06
-1.65851e-06
-2.44116e-06
-1.74663e-06
-2.28959e-06
-1.80704e-06
-2.10923e-06
-1.83187e-06
-1.90641e-06
-1.81403e-06
-1.68471e-06
-1.75498e-06
-1.45e-06
-1.65015e-06
-1.21058e-06
-1.49966e-06
-9.77709e-07
-1.308e-06
-7.6229e-07
-1.0857e-06
-5.7114e-07
-8.46173e-07
-4.08793e-07
-6.01326e-07
-2.78268e-07
-3.63107e-07
-1.79737e-07
-1.43746e-07
-1.10484e-07
4.63532e-08
-6.5127e-08
1.99764e-07
-3.76717e-08
3.11754e-07
-2.05128e-08
3.70924e-07
-9.32471e-09
3.58931e-07
1.90476e-07
-3.13112e-09
-2.33655e-07
-3.76782e-08
-2.41666e-07
-8.80665e-08
-1.47807e-07
-1.48431e-07
-4.0135e-08
-2.18119e-07
7.17691e-08
-2.98129e-07
1.85849e-07
-3.897e-07
3.00993e-07
-4.93995e-07
4.1637e-07
-6.11797e-07
5.31631e-07
-7.43336e-07
6.46902e-07
-8.88252e-07
7.6254e-07
-1.04532e-06
8.78436e-07
-1.21151e-06
9.92604e-07
-1.38218e-06
1.10114e-06
-1.55202e-06
1.19948e-06
-1.71579e-06
1.28318e-06
-1.86927e-06
1.34864e-06
-2.01025e-06
1.39431e-06
-2.13815e-06
1.42096e-06
-2.25337e-06
1.43029e-06
-2.35695e-06
1.42459e-06
-2.44983e-06
1.40608e-06
-2.53286e-06
1.37663e-06
-2.6067e-06
1.33794e-06
-2.6719e-06
1.2914e-06
-2.7289e-06
1.23834e-06
-2.77816e-06
1.17988e-06
-2.82016e-06
1.11712e-06
-2.85543e-06
1.05098e-06
-2.88452e-06
9.82346e-07
-2.90798e-06
9.1192e-07
-2.92636e-06
8.40302e-07
-2.94021e-06
7.67948e-07
-2.95006e-06
6.95259e-07
-2.95644e-06
6.22497e-07
-2.95992e-06
5.49862e-07
-2.96088e-06
4.77507e-07
-2.95968e-06
4.05398e-07
-2.95658e-06
3.33477e-07
-2.95181e-06
2.61605e-07
-2.94557e-06
1.89614e-07
-2.93804e-06
1.17278e-07
-2.92938e-06
4.43519e-08
-2.91978e-06
-2.94427e-08
-2.90932e-06
-1.04405e-07
-2.89823e-06
-1.80929e-07
-2.88668e-06
-2.59372e-07
-2.87485e-06
-3.40137e-07
-2.86292e-06
-4.23632e-07
-2.85102e-06
-5.10296e-07
-2.83928e-06
-6.00563e-07
-2.82776e-06
-6.94849e-07
-2.81639e-06
-7.93519e-07
-2.80491e-06
-8.9684e-07
-2.79269e-06
-1.00496e-06
-2.77882e-06
-1.11783e-06
-2.76194e-06
-1.235e-06
-2.73976e-06
-1.35543e-06
-2.70948e-06
-1.47756e-06
-2.66814e-06
-1.59853e-06
-2.61251e-06
-1.71415e-06
-2.5386e-06
-1.82053e-06
-2.43537e-06
-1.91028e-06
-2.29365e-06
-1.97359e-06
-2.11475e-06
-1.99292e-06
-1.90741e-06
-1.96232e-06
-1.67624e-06
-1.88133e-06
-1.42928e-06
-1.74662e-06
-1.17702e-06
-1.56026e-06
-9.33267e-07
-1.32946e-06
-7.10922e-07
-1.06852e-06
-5.17615e-07
-7.94634e-07
-3.57859e-07
-5.22862e-07
-2.33988e-07
-2.67617e-07
-1.44693e-07
-4.29419e-08
-8.5184e-08
1.40255e-07
-4.80515e-08
2.74622e-07
-2.41916e-08
3.47064e-07
-8.61011e-09
3.43349e-07
1.81866e-07
-1.82234e-08
-2.15431e-07
-6.94221e-08
-1.90467e-07
-1.34329e-07
-8.29002e-08
-2.08156e-07
3.36923e-08
-2.90884e-07
1.54497e-07
-3.83679e-07
2.78644e-07
-4.87767e-07
4.05081e-07
-6.04031e-07
5.32634e-07
-7.32797e-07
6.60397e-07
-8.73826e-07
7.87931e-07
-1.02615e-06
9.14866e-07
-1.18714e-06
1.03942e-06
-1.35245e-06
1.15791e-06
-1.51703e-06
1.26573e-06
-1.67605e-06
1.3585e-06
-1.82548e-06
1.4326e-06
-1.96272e-06
1.48588e-06
-2.08699e-06
1.51857e-06
-2.19858e-06
1.53256e-06
-2.29835e-06
1.53005e-06
-2.38721e-06
1.51345e-06
-2.46588e-06
1.48475e-06
-2.53497e-06
1.44573e-06
-2.59499e-06
1.39795e-06
-2.64642e-06
1.34283e-06
-2.68978e-06
1.2817e-06
-2.72567e-06
1.21578e-06
-2.75475e-06
1.1462e-06
-2.77773e-06
1.07396e-06
-2.7953e-06
9.9992e-07
-2.80817e-06
9.24787e-07
-2.81699e-06
8.49119e-07
-2.82238e-06
7.73343e-07
-2.8249e-06
6.97782e-07
-2.82504e-06
6.22634e-07
-2.8232e-06
5.48019e-07
-2.81966e-06
4.73968e-07
-2.81467e-06
4.00407e-07
-2.80841e-06
3.27221e-07
-2.80106e-06
2.54252e-07
-2.79276e-06
1.81311e-07
-2.78364e-06
1.08163e-07
-2.77385e-06
3.45604e-08
-2.76352e-06
-3.97738e-08
-2.75278e-06
-1.15144e-07
-2.74181e-06
-1.91896e-07
-2.73081e-06
-2.70378e-07
-2.71997e-06
-3.5097e-07
-2.70953e-06
-4.34071e-07
-2.69973e-06
-5.20104e-07
-2.69078e-06
-6.09507e-07
-2.68291e-06
-7.02719e-07
-2.67627e-06
-8.00162e-07
-2.67088e-06
-9.02225e-07
-2.66661e-06
-1.00923e-06
-2.66306e-06
-1.12138e-06
-2.65943e-06
-1.23862e-06
-2.65429e-06
-1.36058e-06
-2.64551e-06
-1.48634e-06
-2.62994e-06
-1.61411e-06
-2.60305e-06
-1.74104e-06
-2.56099e-06
-1.86259e-06
-2.49834e-06
-1.97293e-06
-2.40746e-06
-2.06446e-06
-2.27374e-06
-2.12664e-06
-2.09603e-06
-2.14003e-06
-1.88256e-06
-2.0948e-06
-1.64022e-06
-1.98895e-06
-1.37973e-06
-1.82076e-06
-1.11432e-06
-1.59486e-06
-8.6065e-07
-1.32219e-06
-6.3364e-07
-1.02164e-06
-4.41388e-07
-7.15115e-07
-2.87989e-07
-4.21016e-07
-1.7428e-07
-1.56651e-07
-9.68868e-08
6.28612e-08
-4.84813e-08
2.26216e-07
-1.99395e-08
3.18523e-07
-4.30474e-09
3.27714e-07
1.77561e-07
-3.33228e-08
-1.82108e-07
-9.99885e-08
-1.23801e-07
-1.78515e-07
-4.3735e-09
-2.64879e-07
1.20056e-07
-3.59619e-07
2.49237e-07
-4.63939e-07
3.82964e-07
-5.78911e-07
5.20053e-07
-7.05067e-07
6.5879e-07
-8.42326e-07
7.97655e-07
-9.89938e-07
9.35544e-07
-1.14568e-06
1.07061e-06
-1.30569e-06
1.19943e-06
-1.46532e-06
1.31754e-06
-1.62008e-06
1.42048e-06
-1.76607e-06
1.50449e-06
-1.90039e-06
1.56693e-06
-2.0218e-06
1.60729e-06
-2.13046e-06
1.62724e-06
-2.22706e-06
1.62915e-06
-2.31241e-06
1.61541e-06
-2.38721e-06
1.58824e-06
-2.452e-06
1.54954e-06
-2.5073e-06
1.50103e-06
-2.55364e-06
1.4443e-06
-2.59167e-06
1.38086e-06
-2.62212e-06
1.31215e-06
-2.6458e-06
1.23945e-06
-2.66355e-06
1.16395e-06
-2.67622e-06
1.08663e-06
-2.68461e-06
1.00831e-06
-2.68944e-06
9.2962e-07
-2.69137e-06
8.51044e-07
-2.69094e-06
7.72917e-07
-2.68861e-06
6.95456e-07
-2.68475e-06
6.18771e-07
-2.67962e-06
5.42892e-07
-2.67343e-06
4.67771e-07
-2.66631e-06
3.93294e-07
-2.65841e-06
3.19313e-07
-2.6498e-06
2.45646e-07
-2.64058e-06
1.72092e-07
-2.63084e-06
9.84199e-08
-2.62066e-06
2.43846e-08
-2.61015e-06
-5.02825e-08
-2.59943e-06
-1.25864e-07
-2.58866e-06
-2.02671e-07
-2.57801e-06
-2.81023e-07
-2.56772e-06
-3.61268e-07
-2.55801e-06
-4.43773e-07
-2.54919e-06
-5.28931e-07
-2.54154e-06
-6.17157e-07
-2.53537e-06
-7.08887e-07
-2.53097e-06
-8.04565e-07
-2.52855e-06
-9.04637e-07
-2.52826e-06
-1.00953e-06
-2.53004e-06
-1.1196e-06
-2.5336e-06
-1.23507e-06
-2.53823e-06
-1.35595e-06
-2.54266e-06
-1.48191e-06
-2.54473e-06
-1.61203e-06
-2.54118e-06
-1.74459e-06
-2.52724e-06
-1.87653e-06
-2.49701e-06
-2.00316e-06
-2.4445e-06
-2.11698e-06
-2.36098e-06
-2.21015e-06
-2.23248e-06
-2.26853e-06
-2.05376e-06
-2.27352e-06
-1.83192e-06
-2.21079e-06
-1.57659e-06
-2.07609e-06
-1.30172e-06
-1.86973e-06
-1.02385e-06
-1.60006e-06
-7.62808e-07
-1.28268e-06
-5.35247e-07
-9.42675e-07
-3.48998e-07
-6.07265e-07
-2.07009e-07
-2.98639e-07
-1.07861e-07
-3.62875e-08
-4.56022e-08
1.63958e-07
-1.18835e-08
2.84804e-07
1.91884e-09
3.13912e-07
1.7948e-07
-4.77279e-08
-1.3438e-07
-1.28475e-07
-4.3054e-08
-2.19209e-07
8.63605e-08
-3.17028e-07
2.17874e-07
-4.22464e-07
3.54673e-07
-5.36746e-07
4.97246e-07
-6.60719e-07
6.44026e-07
-7.94583e-07
7.92654e-07
-9.37807e-07
9.40879e-07
-1.08855e-06
1.08628e-06
-1.2435e-06
1.22556e-06
-1.39859e-06
1.35453e-06
-1.54959e-06
1.46854e-06
-1.69272e-06
1.56361e-06
-1.82486e-06
1.63664e-06
-1.94428e-06
1.68635e-06
-2.05081e-06
1.71382e-06
-2.14501e-06
1.72144e-06
-2.22759e-06
1.71173e-06
-2.2992e-06
1.68702e-06
-2.3604e-06
1.64944e-06
-2.41173e-06
1.60087e-06
-2.4538e-06
1.5431e-06
-2.48737e-06
1.47787e-06
-2.51331e-06
1.4068e-06
-2.53257e-06
1.33141e-06
-2.54613e-06
1.25302e-06
-2.55494e-06
1.17277e-06
-2.55989e-06
1.09157e-06
-2.56173e-06
1.01015e-06
-2.56113e-06
9.29026e-07
-2.55865e-06
8.48557e-07
-2.5547e-06
7.68968e-07
-2.54962e-06
6.90373e-07
-2.54364e-06
6.12793e-07
-2.53693e-06
5.36182e-07
-2.52959e-06
4.60434e-07
-2.5217e-06
3.85406e-07
-2.51332e-06
3.10928e-07
-2.50447e-06
2.36797e-07
-2.49519e-06
1.62809e-07
-2.48551e-06
8.87458e-08
-2.4755e-06
1.43728e-08
-2.46522e-06
-6.05669e-08
-2.45476e-06
-1.36321e-07
-2.44426e-06
-2.13166e-07
-2.4339e-06
-2.91387e-07
-2.42388e-06
-3.71289e-07
-2.41445e-06
-4.53197e-07
-2.40592e-06
-5.37462e-07
-2.39862e-06
-6.2446e-07
-2.39291e-06
-7.146e-07
-2.38916e-06
-8.08316e-07
-2.38772e-06
-9.06073e-07
-2.3889e-06
-1.00835e-06
-2.39289e-06
-1.1156e-06
-2.3997e-06
-1.22825e-06
-2.40907e-06
-1.34659e-06
-2.42032e-06
-1.47066e-06
-2.43218e-06
-1.60018e-06
-2.44254e-06
-1.73422e-06
-2.44809e-06
-1.87098e-06
-2.44398e-06
-2.00727e-06
-2.42303e-06
-2.13793e-06
-2.37798e-06
-2.2552e-06
-2.29887e-06
-2.34764e-06
-2.17135e-06
-2.40104e-06
-1.98847e-06
-2.39367e-06
-1.7556e-06
-2.30897e-06
-1.48566e-06
-2.13967e-06
-1.19634e-06
-1.88939e-06
-9.08162e-07
-1.57086e-06
-6.44565e-07
-1.20627e-06
-4.228e-07
-8.2903e-07
-2.49518e-07
-4.71922e-07
-1.25444e-07
-1.60361e-07
-4.63256e-08
8.48398e-08
-5.21013e-09
2.43688e-07
7.46112e-09
3.01241e-07
1.86941e-07
-6.08468e-08
-7.35337e-08
-1.53871e-07
4.99702e-08
-2.55608e-07
1.88098e-07
-3.63402e-07
3.25668e-07
-4.77978e-07
4.69249e-07
-6.00457e-07
6.19725e-07
-7.31459e-07
7.75028e-07
-8.70765e-07
9.3196e-07
-1.01691e-06
1.08703e-06
-1.16719e-06
1.23656e-06
-1.31818e-06
1.37656e-06
-1.46592e-06
1.50226e-06
-1.60672e-06
1.60934e-06
-1.73736e-06
1.69425e-06
-1.85566e-06
1.75494e-06
-1.96097e-06
1.79166e-06
-2.05365e-06
1.8065e-06
-2.13434e-06
1.80212e-06
-2.20365e-06
1.78104e-06
-2.26216e-06
1.74554e-06
-2.31046e-06
1.69774e-06
-2.34924e-06
1.63965e-06
-2.37936e-06
1.57322e-06
-2.40182e-06
1.50033e-06
-2.4177e-06
1.42268e-06
-2.42809e-06
1.3418e-06
-2.43404e-06
1.25896e-06
-2.43647e-06
1.1752e-06
-2.43621e-06
1.09131e-06
-2.43392e-06
1.00786e-06
-2.43014e-06
9.25244e-07
-2.42527e-06
8.43694e-07
-2.41963e-06
7.63324e-07
-2.41341e-06
6.84152e-07
-2.40674e-06
6.06127e-07
-2.3997e-06
5.29141e-07
-2.39231e-06
4.53047e-07
-2.38459e-06
3.77682e-07
-2.37653e-06
3.02863e-07
-2.36811e-06
2.28378e-07
-2.35932e-06
1.54021e-07
-2.35017e-06
7.95942e-08
-2.34068e-06
4.88378e-09
-2.33089e-06
-7.03582e-08
-2.32087e-06
-1.46335e-07
-2.31075e-06
-2.23293e-07
-2.30066e-06
-3.01476e-07
-2.2908e-06
-3.81145e-07
-2.28142e-06
-4.62578e-07
-2.27281e-06
-5.46075e-07
-2.2653e-06
-6.31965e-07
-2.25929e-06
-7.20611e-07
-2.25519e-06
-8.12416e-07
-2.25344e-06
-9.07827e-07
-2.25445e-06
-1.00733e-06
-2.2586e-06
-1.11146e-06
-2.26613e-06
-1.22072e-06
-2.27709e-06