/*--------------------------------*- C++ -*----------------------------------*\
  =========                 |
  \\      /  F ield         | OpenFOAM: The Open Source CFD Toolbox
   \\    /   O peration     | Website:  https://openfoam.org
    \\  /    A nd           | Version:  13
     \\/     M anipulation  |
\*---------------------------------------------------------------------------*/
FoamFile
{
    format      ascii;
    class       volVectorField;
    location    "8";
    object      U;
}
// * * * * * * * * * * * * * * * * * * * * * * * * * * * * * * * * * * * * * //

dimensions      [0 1 -1 0 0 0 0];

internalField   nonuniform List<vector> 
6400
(
(-0.000126355 8.30454e-05 0)
(0.000451586 -0.000175647 0)
(0.00211408 -0.00043961 0)
(0.00430618 -0.000556379 0)
(0.00648463 -0.00049059 0)
(0.00829912 -0.000327444 0)
(0.00950457 -0.000131515 0)
(0.0101065 1.53166e-05 0)
(0.0102319 6.97546e-05 0)
(0.010124 4.8099e-05 0)
(0.00990675 -3.0293e-05 0)
(0.00974928 -0.000137211 0)
(0.0097153 -0.000248212 0)
(0.00980455 -0.000338292 0)
(0.00996851 -0.000410874 0)
(0.0101291 -0.000464138 0)
(0.0102119 -0.000497796 0)
(0.0101648 -0.000500002 0)
(0.00994459 -0.00048077 0)
(0.00945689 -0.000439906 0)
(0.00866394 -0.000390964 0)
(0.00750676 -0.000341101 0)
(0.00594268 -0.000294411 0)
(0.00394374 -0.000276571 0)
(0.00147641 -0.000325475 0)
(-0.00143381 -0.000442671 0)
(-0.0048191 -0.000486697 0)
(-0.0089075 -0.000300369 0)
(-0.0138134 0.00023105 0)
(-0.0195626 0.00111155 0)
(-0.0269086 0.00215865 0)
(-0.035067 0.00304495 0)
(-0.0438973 0.00375767 0)
(-0.053089 0.00428415 0)
(-0.0623848 0.00463074 0)
(-0.0715485 0.00481223 0)
(-0.0803946 0.00485354 0)
(-0.0887673 0.00477824 0)
(-0.0965505 0.00460885 0)
(-0.103646 0.00436332 0)
(-0.109978 0.0040536 0)
(-0.115485 0.00368836 0)
(-0.120123 0.00326993 0)
(-0.123869 0.00280244 0)
(-0.126696 0.00229969 0)
(-0.128395 0.00182545 0)
(-0.129105 0.0013924 0)
(-0.128981 0.000671748 0)
(-0.127452 0.000119463 0)
(-0.125008 -0.000568789 0)
(-0.121274 -0.00120596 0)
(-0.116463 -0.0018731 0)
(-0.110438 -0.00250922 0)
(-0.103312 -0.00313286 0)
(-0.0951142 -0.00373958 0)
(-0.0859377 -0.00432188 0)
(-0.0758013 -0.00482952 0)
(-0.0648969 -0.00525973 0)
(-0.0533799 -0.00558042 0)
(-0.0414635 -0.00575858 0)
(-0.02939 -0.00575861 0)
(-0.017442 -0.00556697 0)
(-0.00585171 -0.00518257 0)
(0.00491362 -0.00467743 0)
(0.0145328 -0.00391115 0)
(0.0228169 -0.00297406 0)
(0.0294365 -0.00190971 0)
(0.0341123 -0.000757881 0)
(0.0368678 0.000401827 0)
(0.0370927 0.00161059 0)
(0.0356403 0.00227383 0)
(0.0320656 0.0028543 0)
(0.0267617 0.00304743 0)
(0.0206264 0.00274514 0)
(0.0144304 0.002047 0)
(0.00897574 0.00120832 0)
(0.00470283 0.000524307 0)
(0.00176304 0.000118264 0)
(0.000139062 -0.000171061 0)
(-0.000238812 -0.000347081 0)
(1.71157e-05 -0.000389336 0)
(0.00183571 -0.00212537 0)
(0.00528616 -0.00356825 0)
(0.00912723 -0.0040515 0)
(0.0126611 -0.00366117 0)
(0.0154724 -0.0027824 0)
(0.017385 -0.00171225 0)
(0.0184279 -0.000739884 0)
(0.0187254 -4.95302e-05 0)
(0.0184395 0.000328116 0)
(0.0177689 0.000435046 0)
(0.0168824 0.000354151 0)
(0.0158668 0.000206476 0)
(0.0147149 0.000104368 0)
(0.0133555 0.000111341 0)
(0.0116869 0.000240916 0)
(0.00962281 0.000472737 0)
(0.00709474 0.000793425 0)
(0.00398896 0.00121873 0)
(0.000199007 0.00175898 0)
(-0.00438499 0.00241852 0)
(-0.00999681 0.00321615 0)
(-0.0167234 0.00411614 0)
(-0.0246327 0.00510872 0)
(-0.0337712 0.00621162 0)
(-0.0442419 0.00743013 0)
(-0.0559352 0.0087913 0)
(-0.0684996 0.0102929 0)
(-0.0815533 0.0118733 0)
(-0.0945648 0.0133591 0)
(-0.107011 0.0144524 0)
(-0.119095 0.0151254 0)
(-0.130525 0.0153862 0)
(-0.141221 0.015262 0)
(-0.151086 0.0148235 0)
(-0.160055 0.0141219 0)
(-0.168087 0.0132141 0)
(-0.17515 0.0121448 0)
(-0.181231 0.0109521 0)
(-0.186315 0.00966432 0)
(-0.190389 0.00829891 0)
(-0.193454 0.00687245 0)
(-0.195498 0.00539128 0)
(-0.196519 0.00386666 0)
(-0.196507 0.00230796 0)
(-0.195427 0.00072617 0)
(-0.193292 -0.000901347 0)
(-0.190103 -0.0026173 0)
(-0.185788 -0.00436472 0)
(-0.180419 -0.0061506 0)
(-0.17392 -0.00795244 0)
(-0.166332 -0.00975566 0)
(-0.157622 -0.0115372 0)
(-0.147821 -0.0132665 0)
(-0.136934 -0.0149097 0)
(-0.125044 -0.0164158 0)
(-0.112264 -0.0177498 0)
(-0.0986912 -0.0188509 0)
(-0.084507 -0.0196489 0)
(-0.0699266 -0.0200933 0)
(-0.0551616 -0.0201178 0)
(-0.0404704 -0.0196817 0)
(-0.0261369 -0.0187619 0)
(-0.0124789 -0.0173787 0)
(0.000222484 -0.0154688 0)
(0.0117057 -0.0130934 0)
(0.0216918 -0.0102966 0)
(0.0299381 -0.00718173 0)
(0.0362775 -0.00382978 0)
(0.0405295 -0.000426935 0)
(0.0426811 0.00278216 0)
(0.0426037 0.00572865 0)
(0.0403916 0.00814209 0)
(0.0362679 0.00969181 0)
(0.0302816 0.00989782 0)
(0.0229223 0.00894708 0)
(0.0151984 0.00710172 0)
(0.00821673 0.00479076 0)
(0.00305771 0.00231415 0)
(0.000225234 0.000271042 0)
(0.000208606 -0.00165707 0)
(0.00324058 -0.00545003 0)
(0.00754584 -0.00769312 0)
(0.0115577 -0.00795267 0)
(0.014844 -0.00683646 0)
(0.0172002 -0.00501345 0)
(0.0186562 -0.00305673 0)
(0.0192724 -0.00129266 0)
(0.019126 9.76649e-05 0)
(0.018321 0.00103265 0)
(0.0170016 0.0015449 0)
(0.0152435 0.00177864 0)
(0.0130625 0.0019286 0)
(0.0104203 0.00216872 0)
(0.0072263 0.00260784 0)
(0.00338118 0.00327126 0)
(-0.00124375 0.00415276 0)
(-0.00680764 0.00526338 0)
(-0.0134381 0.00662685 0)
(-0.0212562 0.00827688 0)
(-0.0303462 0.0102177 0)
(-0.0406818 0.0123876 0)
(-0.0522382 0.0147033 0)
(-0.064868 0.0170432 0)
(-0.0783152 0.0192812 0)
(-0.0922739 0.0213251 0)
(-0.106372 0.0230761 0)
(-0.120291 0.0244737 0)
(-0.133692 0.0254582 0)
(-0.146317 0.0260081 0)
(-0.158004 0.0261173 0)
(-0.168705 0.0257843 0)
(-0.178357 0.0250567 0)
(-0.187025 0.0239703 0)
(-0.194707 0.0225724 0)
(-0.201442 0.0209338 0)
(-0.207253 0.0191017 0)
(-0.212166 0.0171212 0)
(-0.216193 0.0150227 0)
(-0.219347 0.0128419 0)
(-0.221638 0.0105882 0)
(-0.223066 0.00827457 0)
(-0.223629 0.0059085 0)
(-0.22332 0.00348945 0)
(-0.222127 0.0010191 0)
(-0.220033 -0.0015084 0)
(-0.217005 -0.00410791 0)
(-0.213032 -0.00677469 0)
(-0.208087 -0.00947739 0)
(-0.202156 -0.0122295 0)
(-0.195211 -0.0150056 0)
(-0.187244 -0.0177895 0)
(-0.178244 -0.0205486 0)
(-0.168218 -0.0232418 0)
(-0.157187 -0.0258106 0)
(-0.145195 -0.0281842 0)
(-0.132325 -0.0302934 0)
(-0.118668 -0.0320439 0)
(-0.104348 -0.0333408 0)
(-0.0895551 -0.0340918 0)
(-0.0745057 -0.0342087 0)
(-0.0594306 -0.0336151 0)
(-0.0446159 -0.0322781 0)
(-0.030367 -0.0302043 0)
(-0.0169537 -0.0273851 0)
(-0.00460613 -0.0238594 0)
(0.00641823 -0.0196983 0)
(0.015904 -0.0150205 0)
(0.0237182 -0.00997856 0)
(0.0297408 -0.00475834 0)
(0.0339468 0.000414956 0)
(0.0363026 0.00530946 0)
(0.0366728 0.00957562 0)
(0.0349767 0.0129411 0)
(0.031532 0.015185 0)
(0.0264092 0.0157119 0)
(0.0197976 0.0146148 0)
(0.0125938 0.0119726 0)
(0.00588384 0.00791259 0)
(0.000783944 0.00293144 0)
(0.000433868 -0.00364098 0)
(0.004317 -0.00962006 0)
(0.00871108 -0.0119475 0)
(0.012223 -0.0114047 0)
(0.0147431 -0.00928894 0)
(0.0162725 -0.00653795 0)
(0.0169145 -0.00372323 0)
(0.0167622 -0.00118554 0)
(0.0158956 0.000879359 0)
(0.0143706 0.00240438 0)
(0.012185 0.00347336 0)
(0.00931475 0.00427591 0)
(0.00570769 0.00504552 0)
(0.00129212 0.00598502 0)
(-0.00400668 0.00721482 0)
(-0.0102919 0.00878763 0)
(-0.0176851 0.01072 0)
(-0.0263054 0.0130158 0)
(-0.0362313 0.0156639 0)
(-0.047473 0.0186281 0)
(-0.0599392 0.0218107 0)
(-0.0734248 0.0250631 0)
(-0.0876346 0.0282063 0)
(-0.102199 0.0310714 0)
(-0.116818 0.0335633 0)
(-0.131143 0.0354945 0)
(-0.144882 0.0367721 0)
(-0.157757 0.0374173 0)
(-0.169608 0.0374939 0)
(-0.180401 0.0370506 0)
(-0.190113 0.0361462 0)
(-0.198808 0.0348205 0)
(-0.206526 0.033113 0)
(-0.213341 0.0310942 0)
(-0.219291 0.0288115 0)
(-0.224441 0.0263201 0)
(-0.228821 0.0236612 0)
(-0.232461 0.0208771 0)
(-0.235378 0.017991 0)
(-0.237585 0.0150232 0)
(-0.239084 0.011985 0)
(-0.23987 0.00888194 0)
(-0.239935 0.00571391 0)
(-0.239262 0.00247891 0)
(-0.237836 -0.000825232 0)
(-0.235627 -0.00420646 0)
(-0.232605 -0.00766707 0)
(-0.228745 -0.011221 0)
(-0.224015 -0.0148518 0)
(-0.218382 -0.0185527 0)
(-0.211816 -0.022301 0)
(-0.204293 -0.0260749 0)
(-0.19579 -0.0298356 0)
(-0.186293 -0.0335292 0)
(-0.175799 -0.0370768 0)
(-0.164324 -0.0403813 0)
(-0.151917 -0.0433455 0)
(-0.138655 -0.0458558 0)
(-0.124633 -0.0477703 0)
(-0.10999 -0.0489477 0)
(-0.0949256 -0.049273 0)
(-0.0796509 -0.0486306 0)
(-0.0644285 -0.0469519 0)
(-0.0495761 -0.0442063 0)
(-0.0354417 -0.0404666 0)
(-0.0222764 -0.0357916 0)
(-0.010317 -0.0302698 0)
(0.000218688 -0.0240575 0)
(0.00917583 -0.0173717 0)
(0.0164445 -0.0104525 0)
(0.021976 -0.0035486 0)
(0.0257831 0.00311048 0)
(0.0279152 0.00921554 0)
(0.0283708 0.0143577 0)
(0.0270224 0.0181937 0)
(0.0239119 0.0204237 0)
(0.0192117 0.0206102 0)
(0.0133271 0.0186086 0)
(0.00693711 0.0142248 0)
(0.00107575 0.00671596 0)
(0.000718423 -0.00618686 0)
(0.004992 -0.0140156 0)
(0.00884708 -0.0157218 0)
(0.0114786 -0.0140527 0)
(0.0130331 -0.0108435 0)
(0.0135887 -0.00714885 0)
(0.0132936 -0.00351353 0)
(0.0122334 -0.000240745 0)
(0.0104435 0.00251825 0)
(0.00790957 0.00475211 0)
(0.00456671 0.00657887 0)
(0.000325723 0.00821277 0)
(-0.00490707 0.00989844 0)
(-0.011221 0.0118409 0)
(-0.0186992 0.0141703 0)
(-0.0274206 0.0169451 0)
(-0.0374442 0.0201712 0)
(-0.0487877 0.0238123 0)
(-0.0613827 0.027766 0)
(-0.0750488 0.0318844 0)
(-0.0894904 0.0359383 0)
(-0.104349 0.0397301 0)
(-0.119261 0.0431183 0)
(-0.133918 0.045822 0)
(-0.147934 0.0477187 0)
(-0.160995 0.048825 0)
(-0.173017 0.0491639 0)
(-0.183945 0.0487961 0)
(-0.193833 0.047827 0)
(-0.202722 0.0463516 0)
(-0.210676 0.0444514 0)
(-0.217784 0.042195 0)
(-0.22409 0.0396326 0)
(-0.229658 0.0368163 0)
(-0.234535 0.0337888 0)
(-0.238766 0.0305911 0)
(-0.242373 0.027257 0)
(-0.245381 0.0238169 0)
(-0.247805 0.0202847 0)
(-0.249647 0.0166738 0)
(-0.250905 0.0129883 0)
(-0.251571 0.00922937 0)
(-0.251633 0.00538812 0)
(-0.251073 0.00145885 0)
(-0.249874 -0.00256273 0)
(-0.248002 -0.00668909 0)
(-0.245423 -0.0109268 0)
(-0.242102 -0.0152841 0)
(-0.238016 -0.0197627 0)
(-0.233106 -0.0243492 0)
(-0.227332 -0.0290188 0)
(-0.220655 -0.0337496 0)
(-0.213035 -0.0384962 0)
(-0.204435 -0.0431963 0)
(-0.19483 -0.047757 0)
(-0.184201 -0.0520555 0)
(-0.172561 -0.0559687 0)
(-0.15996 -0.0593585 0)
(-0.146459 -0.0620411 0)
(-0.132161 -0.0638356 0)
(-0.117232 -0.0645898 0)
(-0.101858 -0.0641299 0)
(-0.0862963 -0.0623479 0)
(-0.0707917 -0.0591785 0)
(-0.0557189 -0.0546568 0)
(-0.0414893 -0.0489145 0)
(-0.0283572 -0.0420877 0)
(-0.0165549 -0.0343857 0)
(-0.00628702 -0.0260677 0)
(0.00230328 -0.0174382 0)
(0.00914826 -0.00881028 0)
(0.0142606 -0.000476191 0)
(0.0177094 0.00725957 0)
(0.0195657 0.0140709 0)
(0.0198439 0.0195915 0)
(0.0185507 0.0233756 0)
(0.0156963 0.024977 0)
(0.011493 0.0240802 0)
(0.00630371 0.0200708 0)
(0.000947586 0.0105279 0)
(0.00103177 -0.00912603 0)
(0.00517114 -0.0180366 0)
(0.00805647 -0.0185174 0)
(0.00956171 -0.0156555 0)
(0.0100468 -0.0113548 0)
(0.00957118 -0.00676416 0)
(0.0082779 -0.00233695 0)
(0.00620962 0.0016878 0)
(0.00334736 0.00521773 0)
(-0.000379225 0.00829119 0)
(-0.00507753 0.0110603 0)
(-0.0108634 0.0137494 0)
(-0.0178398 0.0165931 0)
(-0.0260881 0.0197796 0)
(-0.0356629 0.0234194 0)
(-0.0465781 0.0275357 0)
(-0.0587846 0.0320711 0)
(-0.0721516 0.0369246 0)
(-0.0864476 0.0418623 0)
(-0.101304 0.0466291 0)
(-0.11637 0.0510513 0)
(-0.13129 0.0547752 0)
(-0.145601 0.0576125 0)
(-0.158951 0.0595023 0)
(-0.171202 0.0604084 0)
(-0.182363 0.0604213 0)
(-0.192486 0.0596692 0)
(-0.201641 0.0582828 0)
(-0.209918 0.0563748 0)
(-0.217371 0.0540333 0)
(-0.224077 0.0513344 0)
(-0.230087 0.0483331 0)
(-0.23545 0.0450816 0)
(-0.240215 0.0416232 0)
(-0.24442 0.0379916 0)
(-0.24809 0.0342171 0)
(-0.251243 0.0303259 0)
(-0.253894 0.0263436 0)
(-0.256054 0.0222784 0)
(-0.257728 0.0181356 0)
(-0.258912 0.0139146 0)
(-0.259603 0.00961272 0)
(-0.259797 0.00521168 0)
(-0.259479 0.000697299 0)
(-0.258657 -0.00395054 0)
(-0.257293 -0.00874527 0)
(-0.255353 -0.0136892 0)
(-0.252789 -0.0187811 0)
(-0.249564 -0.0240291 0)
(-0.245635 -0.029433 0)
(-0.240928 -0.0349581 0)
(-0.235382 -0.0405806 0)
(-0.228919 -0.046242 0)
(-0.221479 -0.0518785 0)
(-0.213066 -0.0574375 0)
(-0.203617 -0.0627816 0)
(-0.193052 -0.0677255 0)
(-0.181405 -0.0721157 0)
(-0.168706 -0.0757318 0)
(-0.154983 -0.0783411 0)
(-0.140404 -0.0797573 0)
(-0.125089 -0.0797451 0)
(-0.109295 -0.078176 0)
(-0.0932725 -0.0748875 0)
(-0.077322 -0.0698697 0)
(-0.0618664 -0.0632315 0)
(-0.0473615 -0.0552347 0)
(-0.0340709 -0.0461132 0)
(-0.0222578 -0.0361805 0)
(-0.0121286 -0.0258152 0)
(-0.00380475 -0.015415 0)
(0.00269308 -0.00535875 0)
(0.0074351 0.00401165 0)
(0.0105504 0.0123731 0)
(0.0121524 0.0194017 0)
(0.0122982 0.0246701 0)
(0.0109965 0.0276999 0)
(0.00834637 0.0280222 0)
(0.00469214 0.0247136 0)
(0.000573162 0.0136797 0)
(0.00128211 -0.0122007 0)
(0.00479639 -0.021172 0)
(0.0063704 -0.0202112 0)
(0.00675657 -0.0160626 0)
(0.00608755 -0.0107736 0)
(0.00454658 -0.00533802 0)
(0.00219837 -0.000117102 0)
(-0.000967923 0.00471719 0)
(-0.00501993 0.00912613 0)
(-0.0100632 0.0131855 0)
(-0.0162187 0.017063 0)
(-0.023599 0.0209745 0)
(-0.0322892 0.0251273 0)
(-0.0423338 0.0296714 0)
(-0.0537234 0.0346653 0)
(-0.0663657 0.0400639 0)
(-0.0801109 0.0457273 0)
(-0.0946526 0.0514056 0)
(-0.1096 0.0568771 0)
(-0.124615 0.0617689 0)
(-0.139224 0.0658052 0)
(-0.152943 0.0687821 0)
(-0.165575 0.0706188 0)
(-0.177096 0.0713698 0)
(-0.187567 0.0711756 0)
(-0.19706 0.0701769 0)
(-0.205665 0.0685046 0)
(-0.213467 0.0662821 0)
(-0.220538 0.0636069 0)
(-0.226931 0.0605605 0)
(-0.232698 0.0572089 0)
(-0.237877 0.0535993 0)
(-0.242511 0.0497767 0)
(-0.246631 0.0457773 0)
(-0.250266 0.0416329 0)
(-0.253434 0.0373707 0)
(-0.25615 0.0330172 0)
(-0.258421 0.0285897 0)
(-0.260262 0.0240904 0)
(-0.261672 0.0195234 0)
(-0.262695 0.0148245 0)
(-0.263298 0.0100659 0)
(-0.263479 0.00520909 0)
(-0.263219 0.000243155 0)
(-0.262512 -0.00486302 0)
(-0.261397 -0.0101163 0)
(-0.259845 -0.0155473 0)
(-0.257869 -0.0211862 0)
(-0.255427 -0.0270553 0)
(-0.252516 -0.0331972 0)
(-0.249062 -0.0395176 0)
(-0.24498 -0.0460192 0)
(-0.240183 -0.0526618 0)
(-0.234562 -0.059377 0)
(-0.227936 -0.0660304 0)
(-0.220174 -0.0724541 0)
(-0.211154 -0.0784513 0)
(-0.200888 -0.0838927 0)
(-0.189492 -0.0886289 0)
(-0.176795 -0.0922765 0)
(-0.162986 -0.0946292 0)
(-0.148092 -0.0953593 0)
(-0.132384 -0.094302 0)
(-0.116048 -0.091236 0)
(-0.0994351 -0.0860997 0)
(-0.082858 -0.0788944 0)
(-0.0668684 -0.0698898 0)
(-0.0519602 -0.0594605 0)
(-0.0384158 -0.0479511 0)
(-0.026526 -0.0358115 0)
(-0.0164996 -0.0235398 0)
(-0.00843183 -0.0116283 0)
(-0.00229643 -0.000513626 0)
(0.00206036 0.00944619 0)
(0.00483695 0.0179413 0)
(0.00617808 0.0246066 0)
(0.00617131 0.028992 0)
(0.00488274 0.0304882 0)
(0.00270206 0.027883 0)
(0.000106687 0.0156839 0)
(0.00137803 -0.0150649 0)
(0.00376603 -0.0231546 0)
(0.00410266 -0.0206595 0)
(0.00324722 -0.015254 0)
(0.00143097 -0.00908088 0)
(-0.00120435 -0.00283095 0)
(-0.00465954 0.00321431 0)
(-0.00899271 0.00893686 0)
(-0.0143039 0.0143343 0)
(-0.0207086 0.0195013 0)
(-0.0283177 0.0246024 0)
(-0.0372182 0.0298273 0)
(-0.0474531 0.0353372 0)
(-0.0590057 0.0412159 0)
(-0.0717807 0.0474556 0)
(-0.0855949 0.0539066 0)
(-0.100105 0.0603093 0)
(-0.114948 0.066386 0)
(-0.129678 0.0717559 0)
(-0.143794 0.0761079 0)
(-0.156914 0.0792194 0)
(-0.168937 0.0810792 0)
(-0.179879 0.0817944 0)
(-0.189801 0.0815156 0)
(-0.198794 0.0803796 0)
(-0.206947 0.0785309 0)
(-0.214348 0.076091 0)
(-0.221058 0.073168 0)
(-0.227131 0.0698451 0)
(-0.232604 0.0661944 0)
(-0.237516 0.0622742 0)
(-0.241897 0.0581321 0)
(-0.245775 0.053811 0)
(-0.249172 0.0493501 0)
(-0.2521 0.0447884 0)
(-0.254576 0.0401447 0)
(-0.256715 0.0353612 0)
(-0.2585 0.0305036 0)
(-0.259942 0.0255706 0)
(-0.261042 0.020562 0)
(-0.261784 0.0155253 0)
(-0.262185 0.0103799 0)
(-0.262248 0.00513856 0)
(-0.261983 -0.000222975 0)
(-0.261384 -0.00572019 0)
(-0.260473 -0.0113602 0)
(-0.259237 -0.0171731 0)
(-0.257669 -0.0231733 0)
(-0.25575 -0.0293715 0)
(-0.253451 -0.0357639 0)
(-0.25076 -0.0424764 0)
(-0.247651 -0.0494732 0)
(-0.244084 -0.0567449 0)
(-0.24 -0.0642569 0)
(-0.235319 -0.0719739 0)
(-0.229933 -0.0797272 0)
(-0.22357 -0.0872362 0)
(-0.215896 -0.0942196 0)
(-0.206555 -0.100226 0)
(-0.195573 -0.105057 0)
(-0.18324 -0.10865 0)
(-0.169399 -0.110476 0)
(-0.15434 -0.110346 0)
(-0.138178 -0.107923 0)
(-0.121276 -0.103101 0)
(-0.103932 -0.0958062 0)
(-0.0865938 -0.0861245 0)
(-0.0699722 -0.074543 0)
(-0.0545847 -0.0615669 0)
(-0.0407547 -0.0476601 0)
(-0.0288003 -0.0334229 0)
(-0.0189268 -0.0194791 0)
(-0.0111915 -0.00640767 0)
(-0.00548878 0.0053238 0)
(-0.00158504 0.0153576 0)
(0.000797165 0.0234016 0)
(0.00186207 0.0290504 0)
(0.00176456 0.0316386 0)
(0.000836846 0.0295531 0)
(-0.000270635 0.0164551 0)
(0.00128059 -0.0174193 0)
(0.00231671 -0.0238437 0)
(0.00134303 -0.0197491 0)
(-0.000737676 -0.013288 0)
(-0.00368691 -0.00627377 0)
(-0.00743541 0.000791693 0)
(-0.0120289 0.00770629 0)
(-0.0175593 0.0143913 0)
(-0.0241361 0.0208622 0)
(-0.0318642 0.0272121 0)
(-0.040827 0.0335839 0)
(-0.0510674 0.0401231 0)
(-0.0625658 0.0469243 0)
(-0.0752486 0.0540058 0)
(-0.0889219 0.0612412 0)
(-0.103212 0.0683656 0)
(-0.117769 0.0750413 0)
(-0.132117 0.0809036 0)
(-0.145712 0.0855944 0)
(-0.158327 0.0889437 0)
(-0.169851 0.0909464 0)
(-0.180313 0.0917444 0)
(-0.189779 0.0914673 0)
(-0.198345 0.0902829 0)
(-0.206098 0.0883292 0)
(-0.213116 0.0857419 0)
(-0.219458 0.0826253 0)
(-0.225169 0.0790733 0)
(-0.230287 0.07516 0)
(-0.234842 0.0709526 0)
(-0.238867 0.0665066 0)
(-0.242389 0.0618712 0)
(-0.245434 0.0570903 0)
(-0.248063 0.052172 0)
(-0.250324 0.0471439 0)
(-0.252238 0.0420388 0)
(-0.25377 0.0369222 0)
(-0.254934 0.0317486 0)
(-0.255751 0.02652 0)
(-0.256243 0.0212325 0)
(-0.256462 0.015883 0)
(-0.256431 0.0104527 0)
(-0.256179 0.0049373 0)
(-0.255732 -0.000685851 0)
(-0.2551 -0.00643351 0)
(-0.254249 -0.0123371 0)
(-0.253208 -0.018427 0)
(-0.25197 -0.0247334 0)
(-0.250534 -0.0312823 0)
(-0.248886 -0.0380914 0)
(-0.247011 -0.0451727 0)
(-0.244878 -0.052527 0)
(-0.24244 -0.0601468 0)
(-0.239632 -0.0679949 0)
(-0.236364 -0.0759994 0)
(-0.232532 -0.0842023 0)
(-0.22813 -0.0926186 0)
(-0.222976 -0.100993 0)
(-0.216831 -0.108948 0)
(-0.209231 -0.11594 0)
(-0.199416 -0.121173 0)
(-0.187507 -0.124406 0)
(-0.173944 -0.12567 0)
(-0.158683 -0.124398 0)
(-0.142104 -0.120416 0)
(-0.124541 -0.113588 0)
(-0.106335 -0.103831 0)
(-0.0881371 -0.0914486 0)
(-0.0707959 -0.0771278 0)
(-0.0548986 -0.061547 0)
(-0.0408115 -0.0453063 0)
(-0.0288755 -0.0291684 0)
(-0.0192752 -0.0138811 0)
(-0.012006 -9.40287e-05 0)
(-0.00686284 0.0117073 0)
(-0.00348869 0.0212121 0)
(-0.00152582 0.0280854 0)
(-0.000651957 0.0315964 0)
(-0.000481893 0.0299327 0)
(-0.000385954 0.0163045 0)
(0.00102932 -0.0187288 0)
(0.000588863 -0.0231302 0)
(-0.00171908 -0.0175426 0)
(-0.00497307 -0.010161 0)
(-0.00904696 -0.00234487 0)
(-0.0139141 0.00554696 0)
(-0.0196473 0.0133704 0)
(-0.0263544 0.0210693 0)
(-0.0341378 0.0286566 0)
(-0.0430762 0.0362051 0)
(-0.0532113 0.0438181 0)
(-0.0645267 0.0515797 0)
(-0.0769646 0.0595255 0)
(-0.0903534 0.0675588 0)
(-0.104324 0.0754065 0)
(-0.118483 0.0827224 0)
(-0.132385 0.0891327 0)
(-0.145542 0.0942587 0)
(-0.157719 0.0979497 0)
(-0.168832 0.100228 0)
(-0.178882 0.101188 0)
(-0.187959 0.101005 0)
(-0.196142 0.0998394 0)
(-0.203522 0.0978498 0)
(-0.210162 0.0951642 0)
(-0.216117 0.0919002 0)
(-0.221429 0.0881502 0)
(-0.226131 0.0839997 0)
(-0.23026 0.0795202 0)
(-0.233847 0.0747768 0)
(-0.236931 0.0698247 0)
(-0.239547 0.0647121 0)
(-0.241739 0.0594779 0)
(-0.24352 0.0541715 0)
(-0.244908 0.0488078 0)
(-0.245952 0.0433908 0)
(-0.246666 0.0379377 0)
(-0.247115 0.0324462 0)
(-0.247339 0.0269304 0)
(-0.24738 0.0213908 0)
(-0.247224 0.0158212 0)
(-0.246906 0.010201 0)
(-0.246437 0.00451511 0)
(-0.245836 -0.00126101 0)
(-0.245106 -0.0071491 0)
(-0.244255 -0.0131855 0)
(-0.243303 -0.0193967 0)
(-0.242256 -0.0258164 0)
(-0.241125 -0.0324762 0)
(-0.239909 -0.0394095 0)
(-0.238608 -0.0466489 0)
(-0.237213 -0.0542171 0)
(-0.235703 -0.0621293 0)
(-0.234034 -0.0703784 0)
(-0.232137 -0.0789235 0)
(-0.229919 -0.0876804 0)
(-0.227264 -0.0965312 0)
(-0.224 -0.105313 0)
(-0.219933 -0.114036 0)
(-0.215002 -0.122563 0)
(-0.208811 -0.130275 0)
(-0.200755 -0.136313 0)
(-0.189769 -0.139469 0)
(-0.176444 -0.13991 0)
(-0.161043 -0.137358 0)
(-0.144007 -0.131645 0)
(-0.125638 -0.122513 0)
(-0.106479 -0.110062 0)
(-0.0873287 -0.0947722 0)
(-0.0692213 -0.0775938 0)
(-0.0528403 -0.0594066 0)
(-0.0385941 -0.0409747 0)
(-0.0268281 -0.0232324 0)
(-0.0176794 -0.00704393 0)
(-0.0110494 0.00688762 0)
(-0.00658523 0.0181011 0)
(-0.00377653 0.0262768 0)
(-0.00216993 0.0305742 0)
(-0.00116854 0.0293491 0)
(-0.000358766 0.0156976 0)
(0.0007064 -0.0190566 0)
(-0.0013161 -0.0210122 0)
(-0.0048871 -0.0141139 0)
(-0.00927728 -0.00588382 0)
(-0.0144595 0.002701 0)
(-0.0204204 0.0114207 0)
(-0.027254 0.0201728 0)
(-0.0350666 0.0289013 0)
(-0.0439394 0.0375973 0)
(-0.0539147 0.0462964 0)
(-0.0649815 0.0550474 0)
(-0.0770948 0.0638844 0)
(-0.0901109 0.0727397 0)
(-0.103691 0.0813458 0)
(-0.117425 0.0893456 0)
(-0.130881 0.0963658 0)
(-0.14365 0.102053 0)
(-0.155461 0.106215 0)
(-0.166219 0.108863 0)
(-0.175929 0.110095 0)
(-0.184658 0.110085 0)
(-0.192498 0.109015 0)
(-0.199517 0.107042 0)
(-0.20578 0.104308 0)
(-0.21133 0.100927 0)
(-0.216208 0.0970072 0)
(-0.220448 0.0926363 0)
(-0.224087 0.0878995 0)
(-0.227166 0.0828705 0)
(-0.229727 0.0776167 0)
(-0.231816 0.0721954 0)
(-0.233477 0.066655 0)
(-0.234755 0.0610335 0)
(-0.23569 0.0553627 0)
(-0.236328 0.0496634 0)
(-0.236714 0.0439529 0)
(-0.236881 0.0382479 0)
(-0.236864 0.0325501 0)
(-0.236687 0.0268571 0)
(-0.236369 0.0211601 0)
(-0.235923 0.0154481 0)
(-0.235369 0.00970229 0)
(-0.234718 0.0039036 0)
(-0.233984 -0.00197119 0)
(-0.233177 -0.00794532 0)
(-0.232311 -0.0140522 0)
(-0.231401 -0.0203204 0)
(-0.230462 -0.0267827 0)
(-0.229507 -0.0334717 0)
(-0.22855 -0.0404227 0)
(-0.227602 -0.0476709 0)
(-0.226671 -0.0552482 0)
(-0.225758 -0.0631825 0)
(-0.22485 -0.0714927 0)
(-0.223912 -0.0801855 0)
(-0.222889 -0.0892473 0)
(-0.221687 -0.0986165 0)
(-0.220164 -0.108155 0)
(-0.218134 -0.11764 0)
(-0.215352 -0.126798 0)
(-0.211496 -0.135443 0)
(-0.206443 -0.143542 0)
(-0.19961 -0.149963 0)
(-0.18996 -0.153461 0)
(-0.176904 -0.152985 0)
(-0.161424 -0.14914 0)
(-0.143777 -0.141413 0)
(-0.124494 -0.129745 0)
(-0.104286 -0.114367 0)
(-0.0841398 -0.0959883 0)
(-0.0652935 -0.075878 0)
(-0.0485385 -0.055155 0)
(-0.0343185 -0.0347793 0)
(-0.0229486 -0.0158618 0)
(-0.0144803 0.000627761 0)
(-0.00866759 0.0139721 0)
(-0.00492749 0.0237121 0)
(-0.00273478 0.0288696 0)
(-0.0012335 0.0281834 0)
(-0.000184341 0.0148807 0)
(0.000122743 -0.0182009 0)
(-0.00331255 -0.017555 0)
(-0.00803873 -0.00947948 0)
(-0.0135118 -0.000494462 0)
(-0.0197545 0.00882369 0)
(-0.0267514 0.0183603 0)
(-0.0346032 0.0280334 0)
(-0.0434046 0.0377668 0)
(-0.0532063 0.047513 0)
(-0.0640055 0.0572574 0)
(-0.0757664 0.0670052 0)
(-0.0883728 0.0767053 0)
(-0.101528 0.0861059 0)
(-0.114832 0.0948499 0)
(-0.127875 0.102563 0)
(-0.140294 0.108914 0)
(-0.151807 0.113678 0)
(-0.16227 0.116807 0)
(-0.171693 0.118416 0)
(-0.180128 0.118671 0)
(-0.187654 0.117767 0)
(-0.194342 0.11587 0)
(-0.20024 0.113127 0)
(-0.205394 0.109666 0)
(-0.20984 0.105596 0)
(-0.213619 0.101023 0)
(-0.216775 0.0960389 0)
(-0.219358 0.0907335 0)
(-0.221424 0.0851844 0)
(-0.22303 0.0794609 0)
(-0.224233 0.0736208 0)
(-0.225086 0.067711 0)
(-0.225641 0.0617679 0)
(-0.225947 0.05582 0)
(-0.226044 0.0498871 0)
(-0.225969 0.0439832 0)
(-0.225747 0.0381149 0)
(-0.225401 0.0322775 0)
(-0.224948 0.0264639 0)
(-0.2244 0.020662 0)
(-0.22377 0.0148574 0)
(-0.223071 0.00903163 0)
(-0.222312 0.00316487 0)
(-0.221503 -0.00276552 0)
(-0.220657 -0.00878377 0)
(-0.219784 -0.0149194 0)
(-0.218901 -0.0212012 0)
(-0.218023 -0.0276608 0)
(-0.217167 -0.0343309 0)
(-0.216351 -0.0412463 0)
(-0.215596 -0.0484426 0)
(-0.21492 -0.0559547 0)
(-0.214337 -0.0638148 0)
(-0.213856 -0.0720509 0)
(-0.213474 -0.0806846 0)
(-0.213171 -0.0897271 0)
(-0.212903 -0.0991684 0)
(-0.212583 -0.108964 0)
(-0.212071 -0.119016 0)
(-0.211159 -0.129112 0)
(-0.209562 -0.138892 0)
(-0.206917 -0.147899 0)
(-0.202783 -0.155974 0)
(-0.196863 -0.162604 0)
(-0.188183 -0.166127 0)
(-0.175489 -0.164936 0)
(-0.159797 -0.159583 0)
(-0.141397 -0.14961 0)
(-0.121081 -0.135131 0)
(-0.0997509 -0.116575 0)
(-0.0786384 -0.0949492 0)
(-0.0591841 -0.0718915 0)
(-0.0422837 -0.0488105 0)
(-0.0283821 -0.0268904 0)
(-0.0177156 -0.00742633 0)
(-0.0101967 0.00855992 0)
(-0.00530868 0.0203216 0)
(-0.0024963 0.0267554 0)
(-0.000798825 0.0268705 0)
(7.32086e-05 0.0143103 0)
(-0.000460738 -0.0160952 0)
(-0.00526107 -0.012805 0)
(-0.0110545 -0.00372273 0)
(-0.0175429 0.00593837 0)
(-0.0247723 0.0159496 0)
(-0.0327161 0.0262765 0)
(-0.0414725 0.0368339 0)
(-0.0511156 0.0475087 0)
(-0.0616596 0.058203 0)
(-0.0730762 0.0688592 0)
(-0.0852718 0.0794161 0)
(-0.0979962 0.0896359 0)
(-0.110882 0.0991794 0)
(-0.123551 0.107669 0)
(-0.135661 0.11478 0)
(-0.146931 0.120265 0)
(-0.157171 0.124008 0)
(-0.166363 0.126102 0)
(-0.174559 0.126723 0)
(-0.181819 0.126062 0)
(-0.188212 0.124305 0)
(-0.193784 0.121606 0)
(-0.198576 0.118101 0)
(-0.202628 0.113916 0)
(-0.205988 0.109165 0)
(-0.208709 0.103958 0)
(-0.210855 0.0983983 0)
(-0.212493 0.0925773 0)
(-0.213691 0.0865755 0)
(-0.214517 0.0804612 0)
(-0.21503 0.0742891 0)
(-0.215288 0.0681012 0)
(-0.215337 0.0619285 0)
(-0.215218 0.0557929 0)
(-0.214964 0.0497073 0)
(-0.214599 0.0436771 0)
(-0.214142 0.0377015 0)
(-0.213607 0.0317727 0)
(-0.213004 0.02588 0)
(-0.212341 0.0200098 0)
(-0.211626 0.0141461 0)
(-0.210866 0.00827034 0)
(-0.210067 0.00236252 0)
(-0.209237 -0.00359924 0)
(-0.208385 -0.00963844 0)
(-0.207521 -0.0157814 0)
(-0.20666 -0.0220552 0)
(-0.205817 -0.0284891 0)
(-0.205012 -0.0351141 0)
(-0.204264 -0.0419632 0)
(-0.203599 -0.0490709 0)
(-0.203041 -0.056473 0)
(-0.202613 -0.0642049 0)
(-0.202336 -0.0723009 0)
(-0.202227 -0.0807919 0)
(-0.20229 -0.0897012 0)
(-0.202513 -0.0990388 0)
(-0.202859 -0.108795 0)
(-0.203252 -0.118931 0)
(-0.203559 -0.129357 0)
(-0.203567 -0.139901 0)
(-0.202965 -0.150229 0)
(-0.201343 -0.159769 0)
(-0.198151 -0.167878 0)
(-0.192868 -0.174382 0)
(-0.184733 -0.177693 0)
(-0.17229 -0.175697 0)
(-0.156177 -0.168604 0)
(-0.136869 -0.156083 0)
(-0.115401 -0.13846 0)
(-0.0929367 -0.116452 0)
(-0.0709907 -0.091442 0)
(-0.0512048 -0.065532 0)
(-0.0345359 -0.0404246 0)
(-0.0213712 -0.0176018 0)
(-0.01181 0.0015434 0)
(-0.00548686 0.0159349 0)
(-0.00190968 0.0242878 0)
(-8.35402e-05 0.0256823 0)
(0.000367462 0.0142333 0)
(-0.00104832 -0.0128233 0)
(-0.00708772 -0.00687872 0)
(-0.0138415 0.00307616 0)
(-0.0212541 0.0133335 0)
(-0.0293757 0.0239862 0)
(-0.0381535 0.0350545 0)
(-0.0476777 0.0464308 0)
(-0.0579976 0.0579513 0)
(-0.0691002 0.0694706 0)
(-0.0809105 0.0808731 0)
(-0.0932183 0.091919 0)
(-0.10571 0.1023 0)
(-0.118045 0.111639 0)
(-0.129889 0.1196 0)
(-0.140964 0.12591 0)
(-0.151051 0.130401 0)
(-0.160083 0.133105 0)
(-0.168098 0.134197 0)
(-0.175154 0.133875 0)
(-0.181308 0.132332 0)
(-0.186609 0.129738 0)
(-0.191097 0.126242 0)
(-0.194817 0.121984 0)
(-0.197824 0.117094 0)
(-0.200183 0.111698 0)
(-0.201969 0.105915 0)
(-0.20326 0.0998518 0)
(-0.204135 0.0936009 0)
(-0.204667 0.0872399 0)
(-0.204923 0.0808308 0)
(-0.20496 0.0744207 0)
(-0.204826 0.0680435 0)
(-0.204561 0.0617217 0)
(-0.204193 0.0554684 0)
(-0.203747 0.0492888 0)
(-0.203236 0.0431818 0)
(-0.202672 0.0371409 0)
(-0.202062 0.0311562 0)
(-0.20141 0.0252143 0)
(-0.20072 0.0192998 0)
(-0.199994 0.0133966 0)
(-0.199234 0.00748644 0)
(-0.198446 0.00154982 0)
(-0.197632 -0.00443377 0)
(-0.196799 -0.010486 0)
(-0.195958 -0.0166304 0)
(-0.19512 -0.0228911 0)
(-0.194299 -0.0292945 0)
(-0.193516 -0.0358683 0)
(-0.192791 -0.0426426 0)
(-0.192151 -0.0496493 0)
(-0.191623 -0.0569227 0)
(-0.191238 -0.0644986 0)
(-0.191024 -0.0724145 0)
(-0.191009 -0.0807072 0)
(-0.191214 -0.0894111 0)
(-0.191649 -0.0985529 0)
(-0.192306 -0.108146 0)
(-0.193149 -0.118181 0)
(-0.194106 -0.128615 0)
(-0.195044 -0.139355 0)
(-0.195753 -0.150233 0)
(-0.195908 -0.160951 0)
(-0.195051 -0.170956 0)
(-0.192598 -0.179402 0)
(-0.187781 -0.185509 0)
(-0.179828 -0.188272 0)
(-0.167364 -0.185235 0)
(-0.150586 -0.17607 0)
(-0.130201 -0.160589 0)
(-0.107506 -0.139428 0)
(-0.0839751 -0.11365 0)
(-0.0614925 -0.0851913 0)
(-0.0418301 -0.0566975 0)
(-0.0259507 -0.0301622 0)
(-0.014087 -0.00734337 0)
(-0.00605917 0.0103175 0)
(-0.00148606 0.0213299 0)
(0.000589185 0.0246375 0)
(0.000575374 0.0146003 0)
(-0.00160603 -0.0084548 0)
(-0.00872665 0.000103694 0)
(-0.0163302 0.0108118 0)
(-0.0245643 0.0215871 0)
(-0.0334595 0.0328187 0)
(-0.042939 0.0445615 0)
(-0.0530813 0.0566678 0)
(-0.0639104 0.0689241 0)
(-0.0753743 0.0811175 0)
(-0.0872947 0.0929742 0)
(-0.0994254 0.104202 0)
(-0.111464 0.114442 0)
(-0.123082 0.123325 0)
(-0.134008 0.130558 0)
(-0.144003 0.135918 0)
(-0.152951 0.139371 0)
(-0.160858 0.141054 0)
(-0.167779 0.141176 0)
(-0.173766 0.139938 0)
(-0.178866 0.137526 0)
(-0.183124 0.134105 0)
(-0.186589 0.129828 0)
(-0.189324 0.124847 0)
(-0.191403 0.119304 0)
(-0.192911 0.113335 0)
(-0.193938 0.107063 0)
(-0.19457 0.100592 0)
(-0.194886 0.0940114 0)
(-0.194956 0.0873892 0)
(-0.194841 0.0807777 0)
(-0.194588 0.0742136 0)
(-0.194235 0.0677208 0)
(-0.193809 0.0613127 0)
(-0.193332 0.0549942 0)
(-0.192814 0.0487638 0)
(-0.192265 0.042615 0)
(-0.191687 0.0365376 0)
(-0.191083 0.0305194 0)
(-0.190451 0.024546 0)
(-0.189792 0.0186004 0)
(-0.189103 0.0126664 0)
(-0.188386 0.00672736 0)
(-0.187639 0.000764575 0)
(-0.186867 -0.00524057 0)
(-0.186072 -0.0113076 0)
(-0.185264 -0.0174569 0)
(-0.184451 -0.0237097 0)
(-0.183649 -0.0300885 0)
(-0.182874 -0.0366177 0)
(-0.182148 -0.0433232 0)
(-0.181496 -0.0502335 0)
(-0.180948 -0.0573799 0)
(-0.180536 -0.0647962 0)
(-0.180294 -0.0725198 0)
(-0.180257 -0.08059 0)
(-0.180458 -0.0890477 0)
(-0.180923 -0.0979319 0)
(-0.181665 -0.107276 0)
(-0.182679 -0.117099 0)
(-0.183928 -0.127395 0)