/*--------------------------------*- C++ -*----------------------------------*\
  =========                 |
  \\      /  F ield         | OpenFOAM: The Open Source CFD Toolbox
   \\    /   O peration     | Website:  https://openfoam.org
    \\  /    A nd           | Version:  13
     \\/     M anipulation  |
\*---------------------------------------------------------------------------*/
FoamFile
{
    format      ascii;
    class       volScalarField;
    location    "5.5";
    object      epsilon;
}
// * * * * * * * * * * * * * * * * * * * * * * * * * * * * * * * * * * * * * //

dimensions      [0 2 -3 0 0 0 0];

internalField   nonuniform List<scalar> 
400
(
1.08038e-05
2.47759e-05
0.000110517
0.00034588
0.000587954
0.000764066
0.000902658
0.00103076
0.00114529
0.0012576
0.00136576
0.00147589
0.00158888
0.00167372
0.00171413
0.00172222
0.00161391
0.00127651
0.000773133
0.000552879
5.06473e-05
0.000124337
0.000371369
0.000712687
0.000837888
0.000897136
0.000922917
0.000971323
0.00102094
0.00110066
0.00120074
0.0013296
0.00148438
0.00166772
0.00187362
0.00208793
0.00219422
0.00221156
0.00178565
0.00120859
0.000195541
0.000456757
0.000731588
0.00082294
0.000850404
0.000870194
0.000879881
0.0009198
0.00098309
0.00106287
0.00115386
0.00125611
0.00137304
0.00151863
0.00169748
0.00191343
0.00211272
0.00219901
0.0020627
0.00161579
0.000445744
0.000744982
0.000817312
0.000812986
0.000812238
0.000803475
0.000811895
0.000852019
0.000894801
0.000941065
0.000990496
0.00105514
0.00115119
0.00128859
0.00148988
0.00176613
0.00207008
0.00220666
0.00219742
0.00187633
0.000665693
0.00086942
0.000815805
0.000769476
0.000729562
0.000713494
0.000710742
0.000719962
0.000724282
0.0007322
0.000750124
0.000792477
0.000874598
0.00101699
0.00125064
0.00160316
0.00206788
0.00235296
0.00239469
0.00207699
0.000833658
0.000899302
0.00078566
0.000691024
0.000643339
0.00061589
0.000594139
0.00057212
0.000544889
0.000528373
0.000523158
0.000543957
0.000612089
0.000749627
0.000999073
0.00141396
0.00202469
0.00253983
0.00266771
0.0022372
0.000878308
0.000874845
0.000720209
0.000616623
0.000565134
0.000526657
0.000487509
0.000444361
0.000399957
0.000368404
0.000355231
0.000358613
0.000408782
0.000525907
0.00076218
0.00120162
0.0019309
0.00273003
0.00298466
0.00236487
0.000866786
0.000816758
0.000650415
0.000552518
0.000499391
0.000453658
0.000403979
0.000351121
0.000301441
0.000264592
0.000247133
0.000244067
0.000275689
0.000365144
0.000567265
0.000991502
0.00178182
0.00287696
0.00336799
0.00246709
0.000833124
0.000739591
0.000587542
0.000499147
0.000447412
0.000398895
0.000345381
0.000290671
0.000242134
0.000205969
0.000186904
0.00018158
0.000199898
0.000262591
0.00042355
0.000808544
0.00163071
0.002944
0.00375237
0.00254008
0.000762376
0.000673267
0.00053622
0.000457832
0.000408766
0.000360533
0.000307583
0.000255175
0.000210295
0.000177274
0.000158254
0.00015218
0.000163552
0.000206813
0.000328972
0.000662568
0.0014797
0.00296693
0.00416167
0.00259213
0.000686489
0.000613227
0.000493374
0.000424025
0.00037891
0.000333778
0.000284587
0.00023659
0.000196005
0.000166272
0.000148109
0.000142053
0.000149714
0.000181553
0.000276426
0.000557413
0.00133514
0.00296702
0.00454118
0.00261685
0.000622137
0.000575339
0.000465287
0.000402063
0.000359791
0.000317628
0.000272331
0.000228875
0.000193169
0.000166324
0.000148626
0.000141872
0.000147304
0.000173554
0.000253043
0.000494562
0.00120942
0.00293226
0.00487846
0.00262601
0.000552154
0.000536181
0.000445102
0.000383146
0.000343264
0.000305205
0.000266247
0.000229089
0.000196096
0.000171077
0.00015458
0.000148648
0.000153188
0.000175122
0.000246196
0.000465853
0.00112633
0.00289673
0.00506866
0.002624
0.00049027
0.000518503
0.000445414
0.000383371
0.000342599
0.000305441
0.000268126
0.000233065
0.000203491
0.000181193
0.000165839
0.000161262
0.000166336
0.000188234
0.000254751
0.000459259
0.0010886
0.00287035
0.00514165
0.00260416
0.000417113
0.000489073
0.000447176
0.000389853
0.000349191
0.000312069
0.000276282
0.000243318
0.000216227
0.000196005
0.000181613
0.000179726
0.000186475
0.000211864
0.000283217
0.000488562
0.00108441
0.00286265
0.0050797
0.0025856
0.000350155
0.000471588
0.000455859
0.000413045
0.000372387
0.000334207
0.000298051
0.00026541
0.000238518
0.0002186
0.000206061
0.00020738
0.000218528
0.00025367
0.000343365
0.000581156
0.0011862
0.00293807
0.00478299
0.0025001
0.000268535
0.000411325
0.000456495
0.000448432
0.000423381
0.000386146
0.00034812
0.000313585
0.000286005
0.000266692
0.000261727
0.00026925
0.000294589
0.00035918
0.00050235
0.000845113
0.00152355
0.00321432
0.004293
0.00239064
0.000192262
0.000381582
0.000506614
0.000555971
0.000554575
0.000532937
0.000493881
0.000459924
0.0004386
0.000440815
0.00045993
0.00050884
0.000607199
0.000781349
0.00108828
0.00178613
0.00259829
0.00392012
0.00404481
0.0022144
0.000238364
0.000414723
0.000727175
0.000891129
0.00097161
0.00100712
0.00103626
0.00107858
0.00116431
0.0013025
0.00151016
0.00181051
0.00221233
0.00283398
0.00357909
0.00467489
0.00514978
0.00485954
0.00406773
0.00196948
0.000175655
0.000281593
0.000519979
0.000747889
0.000933865
0.00106881
0.00115398
0.00122119
0.00126301
0.00131351
0.00134553
0.00140445
0.00144523
0.00152997
0.00158414
0.00169343
0.00178307
0.00187813
0.00185879
0.00166527
)
;

boundaryField
{
    movingWall
    {
        type            epsilonWallFunction;
        value           nonuniform List<scalar> 
20
(
0.000175655
0.000281593
0.000519979
0.000747889
0.000933865
0.00106881
0.00115398
0.00122119
0.00126301
0.00131351
0.00134553
0.00140445
0.00144523
0.00152997
0.00158414
0.00169343
0.00178307
0.00187813
0.00185879
0.00166527
)
;
    }
    fixedWalls
    {
        type            epsilonWallFunction;
        value           nonuniform List<scalar> 
60
(
1.08038e-05
5.06473e-05
0.000195541
0.000445744
0.000665693
0.000833658
0.000878308
0.000866786
0.000833124
0.000762376
0.000686489
0.000622137
0.000552154
0.00049027
0.000417113
0.000350155
0.000268535
0.000192262
0.000238364
0.000175655
0.000552879
0.00120859
0.00161579
0.00187633
0.00207699
0.0022372
0.00236487
0.00246709
0.00254008
0.00259213
0.00261685
0.00262601
0.002624
0.00260416
0.0025856
0.0025001
0.00239064
0.0022144
0.00196948
0.00166527
1.08038e-05
2.47759e-05
0.000110517
0.00034588
0.000587954
0.000764066
0.000902658
0.00103076
0.00114529
0.0012576
0.00136576
0.00147589
0.00158888
0.00167372
0.00171413
0.00172222
0.00161391
0.00127651
0.000773133
0.000552879
)
;
    }
    frontAndBack
    {
        type            empty;
    }
}


// ************************************************************************* //
