/*--------------------------------*- C++ -*----------------------------------*\
  =========                 |
  \\      /  F ield         | OpenFOAM: The Open Source CFD Toolbox
   \\    /   O peration     | Website:  https://openfoam.org
    \\  /    A nd           | Version:  13
     \\/     M anipulation  |
\*---------------------------------------------------------------------------*/
FoamFile
{
    format      ascii;
    class       volScalarField;
    location    "5.5";
    object      k;
}
// * * * * * * * * * * * * * * * * * * * * * * * * * * * * * * * * * * * * * //

dimensions      [0 2 -2 0 0 0 0];

internalField   nonuniform List<scalar> 
400
(
3.38029e-06
7.75248e-06
3.46217e-05
0.000108327
0.000184041
0.000239097
0.000282417
0.000322464
0.000358259
0.000393368
0.00042717
0.000461592
0.000496901
0.000523393
0.000536006
0.000538522
0.000504617
0.000399128
0.000241768
0.000172902
1.58428e-05
5.65195e-05
0.000131573
0.000272639
0.00035894
0.00044278
0.000499321
0.000564778
0.000624333
0.000687083
0.000749665
0.000813057
0.000872957
0.000932349
0.00098761
0.00101532
0.00102342
0.00092708
0.000615313
0.000377826
6.1166e-05
0.00020663
0.000348988
0.000456995
0.000532077
0.000597525
0.000649861
0.000706182
0.000758579
0.000811954
0.000860524
0.000907672
0.000952442
0.00100253
0.00105366
0.00109138
0.00110371
0.00105896
0.00077569
0.000505004
0.000139375
0.000387297
0.00048458
0.000554663
0.000607401
0.000653446
0.000692497
0.000735941
0.000775838
0.000814138
0.000850327
0.000885224
0.000926574
0.000980241
0.00104757
0.00111779
0.00115072
0.00115263
0.00092188
0.000586379
0.000208224
0.000500862
0.00056036
0.000587701
0.000619967
0.00065217
0.000685169
0.000715925
0.000736821
0.000749551
0.000760032
0.000782874
0.000825628
0.000893126
0.000993651
0.00112274
0.00121441
0.00123603
0.00105565
0.000649048
0.000260728
0.000557688
0.000578333
0.00058668
0.000614147
0.000638657
0.00065238
0.00065503
0.000646133
0.000638785
0.000637244
0.000652706
0.00069357
0.000770188
0.000895953
0.00107643
0.00126097
0.00133202
0.0011992
0.000699076
0.000274675
0.000556391
0.000573872
0.000579078
0.000597219
0.000603586
0.000596534
0.000579087
0.000555244
0.000537485
0.000530603
0.000537502
0.000573402
0.000649134
0.000784433
0.000997834
0.00127613
0.00142268
0.00133838
0.000738938
0.000271067
0.000545523
0.000560763
0.000561655
0.000567828
0.000564084
0.000544992
0.000516499
0.000485923
0.000463497
0.000454117
0.000456092
0.00048487
0.000551969
0.000682718
0.000911955
0.00125324
0.00150309
0.00148671
0.000770851
0.000260532
0.000520073
0.000536583
0.000538063
0.000540044
0.000530194
0.000505126
0.000472429
0.000440517
0.000416882
0.000406088
0.000405632
0.000427099
0.000482275
0.000597929
0.000820639
0.00119263
0.00156644
0.00161797
0.000793633
0.000238394
0.000494243
0.000512643
0.000515617
0.000516084
0.000503586
0.000477157
0.000444552
0.000414042
0.000391132
0.000378997
0.000377363
0.000392853
0.000437523
0.000538316
0.000747022
0.0011276
0.0015994
0.00174945
0.000809866
0.000214658
0.000459088
0.000486177
0.000492986
0.000494549
0.000483296
0.000458415
0.000428125
0.00040009
0.000378755
0.000366268
0.000364545
0.000376364
0.000413227
0.0004994
0.000691704
0.00106998
0.00161269
0.00186315
0.000817575
0.000194526
0.000428094
0.00046579
0.000475092
0.000476558
0.000467681
0.000446028
0.000418932
0.000393714
0.000374208
0.000362285
0.000361127
0.00037105
0.000403547
0.000480523
0.000653912
0.00101934
0.00161596
0.00196163
0.000820425
0.000172636
0.000387821
0.000440866
0.000455575
0.00045985
0.000454016
0.000437447
0.000413843
0.000391947
0.000374685
0.000363703
0.000363505
0.000372397
0.00040226
0.000474494
0.000636139
0.000975435
0.00161035
0.00201118
0.000819764
0.000153278
0.000360896
0.00042604
0.000445698
0.000448544
0.000443676
0.000430623
0.000411764
0.000393107
0.000377742
0.000368807
0.000370069
0.000380284
0.000410465
0.00047945
0.000631861
0.000951103
0.00159435
0.0020285
0.000813567
0.000130399
0.000317326
0.000400492
0.000431677
0.000442644
0.000440219
0.000431317
0.000414353
0.000397763
0.000384322
0.00037821
0.000380986
0.000393558
0.000426446
0.000496889
0.000646753
0.000943648
0.00157296
0.00198242
0.000807722
0.000109453
0.000291269
0.000387343
0.000430818
0.000448038
0.000446681
0.000439511
0.000424581
0.000409517
0.00039708
0.000393658
0.000398116
0.000413856
0.000451903
0.000528569
0.000690673
0.000960404
0.00156251
0.00188209
0.000781004
8.39362e-05
0.000231518
0.000354094
0.000431809
0.000464615
0.000467801
0.000462879
0.000450577
0.000436618
0.000425797
0.000426435
0.000434678
0.000457572
0.00051033
0.000601782
0.000799893
0.00105297
0.00157322
0.00170875
0.000746765
6.00832e-05
0.000220333
0.000369775
0.000465336
0.000520759
0.000533883
0.000531921
0.000525104
0.000517651
0.000519145
0.000530321
0.000558283
0.000610179
0.000705361
0.000838841
0.00112038
0.00138015
0.00167379
0.00153471
0.000691678
7.44792e-05
0.000251454
0.000445331
0.000562908
0.000647295
0.000693866
0.000728245
0.000761789
0.000809372
0.000869001
0.000955992
0.0010671
0.00121578
0.00141794
0.00164811
0.00195742
0.00199726
0.0018458
0.00144785
0.000615125
5.48789e-05
8.79767e-05
0.000162466
0.000233664
0.000291773
0.000333912
0.000360493
0.000381456
0.00039449
0.000410228
0.000420206
0.000438573
0.000451294
0.000477736
0.000494648
0.000528774
0.000556775
0.000586493
0.000580465
0.00052005
)
;

boundaryField
{
    movingWall
    {
        type            kqRWallFunction;
        value           nonuniform List<scalar> 
20
(
5.48789e-05
8.79767e-05
0.000162466
0.000233664
0.000291773
0.000333912
0.000360493
0.000381456
0.00039449
0.000410228
0.000420206
0.000438573
0.000451294
0.000477736
0.000494648
0.000528774
0.000556775
0.000586493
0.000580465
0.00052005
)
;
    }
    fixedWalls
    {
        type            kqRWallFunction;
        value           nonuniform List<scalar> 
60
(
3.38029e-06
1.58428e-05
6.1166e-05
0.000139375
0.000208224
0.000260728
0.000274675
0.000271067
0.000260532
0.000238394
0.000214658
0.000194526
0.000172636
0.000153278
0.000130399
0.000109453
8.39362e-05
6.00832e-05
7.44792e-05
5.48789e-05
0.000172902
0.000377826
0.000505004
0.000586379
0.000649048
0.000699076
0.000738938
0.000770851
0.000793633
0.000809866
0.000817575
0.000820425
0.000819764
0.000813567
0.000807722
0.000781004
0.000746765
0.000691678
0.000615125
0.00052005
3.38029e-06
7.75248e-06
3.46217e-05
0.000108327
0.000184041
0.000239097
0.000282417
0.000322464
0.000358259
0.000393368
0.00042717
0.000461592
0.000496901
0.000523393
0.000536006
0.000538522
0.000504617
0.000399128
0.000241768
0.000172902
)
;
    }
    frontAndBack
    {
        type            empty;
    }
}


// ************************************************************************* //
