/*--------------------------------*- C++ -*----------------------------------*\
  =========                 |
  \\      /  F ield         | OpenFOAM: The Open Source CFD Toolbox
   \\    /   O peration     | Website:  https://openfoam.org
    \\  /    A nd           | Version:  13
     \\/     M anipulation  |
\*---------------------------------------------------------------------------*/
FoamFile
{
    format      ascii;
    class       volScalarField;
    location    "5.5";
    object      k;
}
// * * * * * * * * * * * * * * * * * * * * * * * * * * * * * * * * * * * * * //

dimensions      [0 2 -2 0 0 0 0];

internalField   nonuniform List<scalar> 
1600
(
1.71754e-06
6.3177e-06
1.26708e-05
1.35125e-05
1.27078e-05
1.31393e-05
1.65512e-05
2.64032e-05
3.74692e-05
4.94316e-05
7.77362e-05
0.000102988
0.000115983
0.000127802
0.000146984
0.000172753
0.000198964
0.000227074
0.000256372
0.000287699
0.000321842
0.000359094
0.000401163
0.000448838
0.000505616
0.000558658
0.000611385
0.000657281
0.00069652
0.000717686
0.000726
0.000709296
0.000647223
0.000542196
0.000397651
0.000226853
0.00010664
4.32223e-05
1.33433e-05
2.6967e-06
8.28243e-06
4.15412e-05
8.18587e-05
9.19824e-05
9.22777e-05
9.9029e-05
0.000133935
0.000215204
0.000290108
0.000369176
0.000558907
0.000679273
0.000715839
0.000723868
0.000730321
0.000758113
0.00078659
0.000821963
0.000861235
0.000903981
0.000953147
0.00100455
0.00106089
0.00111556
0.00116891
0.00122976
0.0012924
0.00135704
0.001413
0.00144443
0.0014552
0.00141608
0.00130737
0.00111856
0.000859886
0.000506146
0.000221524
9.03996e-05
3.12757e-05
4.85221e-06
2.47104e-05
0.000107934
0.00017641
0.000195111
0.000216972
0.000280733
0.000441502
0.000693073
0.000917945
0.00100983
0.000995357
0.000895639
0.000847641
0.000829594
0.000826074
0.000834432
0.000848394
0.000866966
0.000889885
0.00091617
0.000945251
0.000974321
0.0010046
0.0010369
0.00107233
0.00110994
0.00114943
0.00118959
0.00122815
0.00126276
0.00127993
0.00128541
0.00125421
0.00113212
0.000941971
0.000574777
0.000204737
7.423e-05
2.81715e-05
4.01924e-06
5.71513e-05
0.00022243
0.000318847
0.000363233
0.000452683
0.000648088
0.0009302
0.00110297
0.00113826
0.00102742
0.000944694
0.000863375
0.00083098
0.000819372
0.000816742
0.000824234
0.000835523
0.000850374
0.000866964
0.000884978
0.000903641
0.000923988
0.000946223
0.000969151
0.0009937
0.00101919
0.00104616
0.00107397
0.00110039
0.0011227
0.00113674
0.00114259
0.00114118
0.00110761
0.0010346
0.000845765
0.000336968
8.11873e-05
2.17769e-05
2.87273e-06
0.000109362
0.000390543
0.00052047
0.000608725
0.000775969
0.00102909
0.00117076
0.00119002
0.00108444
0.000935533
0.000848964
0.000810098
0.000795331
0.000791358
0.000793369
0.000807644
0.000822777
0.000841885
0.000860952
0.000880927
0.000900107
0.0009192
0.000937767
0.00095676
0.000976977
0.000999017
0.00102332
0.00104914
0.00107451
0.00109424
0.00110561
0.0011103
0.00111017
0.00108897
0.0010556
0.000969083
0.000708403
0.000192653
3.21355e-05
3.51789e-06
0.000185229
0.000600872
0.000763191
0.000884591
0.00106898
0.00118911
0.00120755
0.00111848
0.000930241
0.000831435
0.000787385
0.00077004
0.000765429
0.000769895
0.000785532
0.000804681
0.000824504
0.000845574
0.000865205
0.000884103
0.000901527
0.000918437
0.000935193
0.000952775
0.000972825
0.000996294
0.00102397
0.00105598
0.00109245
0.00113069
0.0011493
0.00115317
0.0011503
0.00112516
0.00107591
0.00100686
0.000859886
0.000400293
7.24645e-05
6.99816e-06
0.0002837
0.000818587
0.00100733
0.00111516
0.00119843
0.00121583
0.00114125
0.000945793
0.000820744
0.000768396
0.00074834
0.000743085
0.000747758
0.000764926
0.000783828
0.000803387
0.00082217
0.000839162
0.000853275
0.000865361
0.000875699
0.000886315
0.000899072
0.000916259
0.000938269
0.000966562
0.00100194
0.0010446
0.00109345
0.0011458
0.00120121
0.00123613
0.00124231
0.00123146
0.00117836
0.00107208
0.000922062
0.000649658
0.000150799
1.62265e-05
0.000389841
0.00103431
0.00120356
0.00124407
0.00124689
0.00116679
0.000986983
0.000824814
0.000756012
0.000730479
0.000723678
0.000726121
0.00074275
0.00076079
0.000777981
0.000793054
0.000803592
0.000808696
0.000810648
0.000811596
0.000814055
0.000819858
0.000830479
0.000846622
0.00086979
0.000901416
0.000942892
0.000995259
0.0010586
0.00113084
0.00120612
0.00127711
0.00131557
0.00132189
0.00130369
0.00121667
0.00103483
0.000751235
0.000259258
4.04708e-05
0.000482481
0.00120856
0.00134024
0.00132752
0.0012209
0.00105277
0.000851017
0.000754958
0.000717594
0.000706668
0.000705855
0.000718979
0.000736189
0.000750425
0.000758211
0.000760239
0.000755957
0.000748281
0.00074281
0.000739055
0.000737839
0.000740448
0.000749434
0.000764562
0.000787644
0.000819991
0.000863454
0.000920012
0.000991519
0.00107863
0.00117878
0.00128284
0.00136586
0.00139984
0.0014003
0.00134699
0.00119472
0.000914573
0.000475223
0.000109992
0.000550825
0.00132822
0.00143264
0.00133521
0.0011523
0.000921226
0.000773357
0.000713016
0.000692612
0.000688648
0.000695172
0.000710941
0.000720226
0.000722916
0.000717222
0.000707086
0.000694375
0.000681924
0.000672099
0.000665967
0.000663605
0.000664332
0.000672756
0.000687117
0.000709365
0.000740584
0.000782736
0.000838262
0.000910224
0.00100172
0.00111436
0.00124495
0.0013803
0.00147041
0.00149362
0.00146904
0.0013318
0.00103697
0.000582683
0.000198977
0.000599155
0.00140685
0.00148747
0.00131451
0.00105251
0.000828365
0.000724914
0.000685645
0.000674815
0.00067442
0.000685487
0.000690994
0.000691067
0.000682141
0.000667388
0.000650505
0.000633707
0.000619088
0.000607813
0.000601298
0.000598791
0.000599319
0.000607521
0.000621368
0.000642571
0.000672109
0.000711805
0.000764161
0.000832726
0.000922041
0.00103677
0.00117891
0.00134182
0.00149971
0.00157784
0.00158661
0.00149412
0.00121142
0.000726442
0.000287851
0.000625869
0.00143932
0.00149361
0.00126667
0.000957218
0.000769761
0.000692508
0.000665344
0.000659093
0.000661038
0.000665342
0.000664598
0.000654586
0.000637577
0.000617506
0.000597519
0.000579452
0.000564572
0.000553451
0.000547322
0.00054501
0.000545806
0.000553615
0.000566851
0.000586878
0.000614653
0.000651782
0.000700577
0.00076455
0.000848864
0.000960404
0.00110632
0.00128911
0.0014962
0.00164176
0.00168052
0.00162344
0.00135086
0.000845962
0.000360378
0.000624998
0.00143692
0.00147984
0.00120175
0.000882001
0.000728684
0.000667859
0.000647624
0.000643317
0.000643327
0.000642627
0.000633649
0.000616353
0.000594605
0.000572136
0.000551374
0.000533549
0.000519278
0.00050877
0.000502979
0.000500793
0.000501555
0.000508631
0.000520979
0.000539709
0.000565795
0.000600657
0.000646321
0.0007059
0.000784279
0.000888834
0.00102926
0.0012143
0.00144224
0.00167083
0.00177389
0.00176255
0.00151379
0.000968166
0.000428549
0.000616722
0.00142051
0.00144607
0.00113201
0.000829519
0.00069809
0.000647686
0.000630999
0.000626207
0.000624029
0.000617504
0.000602039
0.000580196
0.000556184
0.000533153
0.000512797
0.000495768
0.000482247
0.000472232
0.000466422
0.000464144
0.000464444
0.000470467
0.00048166
0.000498988
0.000523462
0.00055641
0.000599636
0.000655866
0.000729535
0.000827953
0.00096235
0.00114667
0.00138947
0.00167389
0.00185171
0.00187688
0.0016603
0.00108959
0.000491917
0.000597103
0.00138309
0.00139429
0.00106967
0.000790435
0.000673593
0.000629736
0.000614854
0.000609343
0.000604145
0.000592423
0.00057249
0.000548172
0.000523445
0.000500785
0.000481249
0.000465057
0.000452124
0.000442348
0.000436138
0.000433441
0.000433171
0.000437889
0.00044773
0.000463555
0.000486422
0.000517626
0.000558818
0.000612352
0.000682018
0.000774359
0.000900526
0.00107722
0.00132192
0.00163414
0.0019089
0.00198947
0.00181352
0.00121192
0.000553991
0.000563939
0.00133302
0.00133633
0.00101738
0.000759888
0.000653189
0.000613635
0.000599664
0.000593322
0.000584965
0.000569219
0.000546495
0.000521054
0.000496431
0.000474487
0.000455792
0.000440279
0.000427725
0.000417985
0.000411136
0.000407759
0.000406957
0.000410288
0.000418673
0.000432923
0.000454154
0.000483692
0.00052314
0.000574626
0.000641432
0.000729311
0.000848768
0.00101758
0.00125908
0.00158511
0.00193509
0.0020836
0.00195786
0.00133723
0.000614527
0.000525101
0.00127639
0.001276
0.000974019
0.000735533
0.000636002
0.000599358
0.000585943
0.000578635
0.000567531
0.000548948
0.000524636
0.000498855
0.000474675
0.000453474
0.000435486
0.000420466
0.000408112
0.000398253
0.000390897
0.000386692
0.000385305
0.000387342
0.00039426
0.000406899
0.000426441
0.000454286
0.000492062
0.000541778
0.0006063
0.000690531
0.000803866
0.000964027
0.00119907
0.00153424
0.00194305
0.00217109
0.00209977
0.00146265
0.000674774
0.000479379
0.00122122
0.00121783
0.000939204
0.000716525
0.0006216
0.000586927
0.000574026
0.000565668
0.000552459
0.000532042
0.000506935
0.000481212
0.000457549
0.000436984
0.000419539
0.000404868
0.00039263
0.000382636
0.000374892
0.000369884
0.000367878
0.0003688
0.000374324
0.000385369
0.000403191
0.000429286
0.000465378
0.000513489
0.000576238
0.000657807
0.000766283
0.000918178
0.0011437
0.00148094
0.00192933
0.00224523
0.00223542
0.00159588
0.000734797
0.000433809
0.00116477
0.001163
0.000911392
0.000701855
0.00060974
0.000576312
0.000563803
0.000554583
0.000539962
0.000518507
0.000493115
0.000467628
0.000444433
0.000424359
0.000407314
0.000392902
0.000380758
0.000370681
0.000362671
0.000357005
0.000354359
0.000354383
0.000358653
0.000368178
0.000384288
0.000408585
0.000442924
0.000489445
0.000550686
0.000630277
0.000735024
0.000879656
0.00109436
0.00142558
0.00189629
0.00231393
0.00236529
0.00173001
0.000794487
0.000382237
0.00111573
0.0011142
0.000889974
0.000692189
0.000600465
0.000567417
0.000555149
0.000545364
0.000529978
0.000508107
0.000482776
0.000457596
0.000434777
0.000415055
0.000398297
0.000384087
0.000372046
0.000361957
0.0003538
0.00034775
0.000344392
0.000343777
0.000346964
0.000355093
0.000369563
0.000392063
0.000424583
0.000469474
0.00052935
0.000607484
0.000709524
0.000848164
0.00105241
0.00137463
0.00185808
0.00236387
0.00249233
0.00187238
0.000854331
0.00034084
0.00106285
0.00107093
0.000873609
0.00068579
0.000593646
0.000559945
0.000547737
0.000537756
0.000522215
0.000500457
0.000475452
0.000450628
0.000428115
0.000408635
0.000392073
0.000378023
0.0003661
0.000356066
0.000347868
0.000341647
0.000337776
0.000336612
0.000338922
0.000345813
0.000358783
0.00037957
0.000410248
0.000453455
0.00051202
0.000589054
0.000689223
0.000823004
0.00101717
0.00132777
0.00181766
0.0024002
0.00261596
0.00201743
0.000913535
0.000305923
0.00100871
0.00103048
0.000864459
0.000686049
0.000589801
0.000554067
0.000541412
0.000531492
0.000516316
0.000495123
0.000470708
0.000446313
0.000424042
0.000404714
0.000388284
0.000374374
0.000362594
0.000352679
0.000344541
0.000338278
0.000334195
0.00033278
0.000334536
0.000340399
0.000352018
0.00037102
0.000399822
0.00044133
0.000498598
0.000574771
0.000673782
0.000803831
0.00098871
0.00128617
0.00177732
0.00241936
0.00273652
0.00217038
0.000972717
0.000275147
0.000955373
0.000993628
0.000859496
0.000688821
0.000590306
0.000549858
0.000535907
0.000526155
0.000511791
0.000491611
0.000468019
0.000444173
0.000422309
0.000403179
0.000386862
0.000373067
0.000361424
0.000351651
0.000343619
0.000337388
0.000333235
0.000331712
0.000333158
0.00033838
0.000349105
0.000366831
0.000393936
0.000433483
0.000489102
0.000564547
0.000663014
0.000790264
0.000966605
0.00124959
0.00173953
0.00242775
0.00285396
0.00232767
0.00103079
0.000247308
0.000904042
0.000960789
0.000858391
0.000695828
0.000593118
0.000547884
0.000531482
0.000521606
0.000508281
0.000489444
0.000467115
0.00044427
0.000422685
0.000403648
0.000387373
0.000373631
0.000362083
0.000352451
0.000344594
0.000338545
0.000334542
0.000333071
0.000334279
0.00033884
0.000348713
0.00036562
0.000391742
0.000429949
0.000484378
0.000559241
0.000657654
0.000783306
0.000950766
0.00121763
0.00169941
0.00242994
0.00296684
0.00249158
0.00108811
0.000221339
0.000854062
0.000931654
0.000858871
0.000707078
0.000599669
0.000548691
0.000527941
0.000517504
0.000505264
0.000488092
0.000467334
0.000445224
0.000424152
0.000405352
0.000389207
0.000375606
0.000364268
0.000354936
0.000347438
0.000341763
0.000338099
0.000336936
0.000338154
0.000342449
0.000351728
0.000367592
0.000392227
0.000429221
0.000482847
0.000557333
0.000655762
0.000780758
0.000942175
0.00119135
0.00165964
0.0024233
0.0030752
0.0026602
0.00114358
0.000196916
0.000806141
0.000905782
0.000857939
0.000724892
0.000612045
0.000552048
0.000526923
0.000514125
0.000502642
0.000487257
0.000468089
0.00044736
0.000427181
0.000408853
0.000392975
0.000379614
0.000368574
0.000359599
0.000352519
0.000347289
0.000344067
0.000343404
0.000344791
0.00034915
0.000358326
0.00037369
0.000397424
0.000433005
0.000485098
0.000558718
0.000657155
0.000781299
0.000938851
0.00117041
0.00162
0.00240702
0.00317794
0.00283469
0.00119729
0.000173243
0.00075754
0.000882799
0.000855109
0.000746806
0.000630475
0.000559813
0.00052825
0.000512363
0.000500214
0.000486275
0.000469172
0.000450183
0.000431204
0.000413645
0.00039827
0.000385308
0.00037468
0.000366191
0.000359674
0.000355057
0.000352501
0.000352531
0.000354249
0.000358984
0.00036846
0.000383661
0.000406874
0.000441598
0.000492725
0.000565742
0.000664288
0.000788053
0.000938933
0.00115492
0.00158214
0.00238501
0.00327198
0.00301019
0.00124822
0.000150469
0.000709624
0.000860011
0.000849227
0.000771115
0.000654263
0.000574444
0.000532949
0.000513177
0.000499728
0.000486303
0.000470556
0.000453298
0.000435804
0.000419361
0.000404808
0.000392514
0.000382522
0.000374714
0.000368946
0.000365133
0.0003636
0.000364175
0.000366595
0.000372157
0.00038208
0.000397442
0.000420479
0.000454657
0.00050496
0.000577195
0.000675395
0.00079871
0.000945587
0.00114443
0.00154541
0.0023547
0.00335952
0.00318691
0.00129655
0.000127809
0.000657087
0.000838611
0.000839534
0.000792135
0.000684728
0.000596621
0.000543495
0.000516943
0.000500996
0.000487153
0.000472336
0.000456619
0.00044073
0.000425689
0.000412298
0.000401
0.000391934
0.000385062
0.000380267
0.000377496
0.000377249
0.000378431
0.000381767
0.000388493
0.000399078
0.000414874
0.000438054
0.000472022
0.000521714
0.000593045
0.000690313
0.000812408
0.000954831
0.00113757
0.00151028
0.0023111
0.00343756
0.00335776
0.00134139
0.000107865
0.000609212
0.000816105
0.000830787
0.000802834
0.000719542
0.000627501
0.000563879
0.000526698
0.000505744
0.00049017
0.000475434
0.000460652
0.000446139
0.000432553
0.000420536
0.00041051
0.000402652
0.000396979
0.000393366
0.000392133
0.00039278
0.000394997
0.000399746
0.000407546
0.000419008
0.000435487
0.0004591
0.000493162
0.000542413
0.000612628
0.000708157
0.000827956
0.000965679
0.00113257
0.00147502
0.00225811
0.00350327
0.00351868
0.00138334
9.11112e-05
0.00055724
0.000798023
0.000822265
0.000806882
0.000751786
0.000665407
0.000595179
0.000547089
0.000517586
0.000497934
0.000481817
0.000466848
0.000452984
0.000440477
0.000429719
0.000421005
0.000414486
0.000410119
0.000407989
0.000408269
0.000409823
0.000413425
0.000419625
0.000428572
0.000441055
0.00045841
0.000482683
0.000517065
0.000565932
0.000634677
0.000727419
0.000843437
0.000975692
0.00112786
0.00144086
0.00219814
0.00355094
0.0036602
0.00142212
7.63068e-05
0.00049504
0.000789729
0.000817514
0.000808824
0.000776157
0.000706504
0.000637352
0.000582545
0.000542815
0.000515295
0.000495221
0.000478312
0.000463724
0.000451296
0.000441118
0.000433259
0.000427839
0.000424481
0.000424118
0.000425155
0.000427861
0.000433001
0.000440423
0.000450518
0.000464069
0.000482398
0.000507439
0.000542212
0.000590538
0.000657258
0.000745999
0.000856663
0.000982959
0.001123
0.00141298
0.0021397
0.00357761
0.00376775
0.00145919
6.26857e-05
0.000422664
0.000771918
0.000815588
0.000811945
0.000794366
0.00074915
0.000687955
0.000632495
0.0005867
0.000550672
0.000522825
0.000501249
0.000483619
0.000469313
0.000458169
0.000449962
0.000444639
0.000441739
0.000442022
0.000443628
0.000447241
0.000453247
0.00046156
0.000472611
0.000487079
0.000506287
0.000531974
0.000566945
0.000614286
0.000678262
0.000761854
0.000865948
0.000986545
0.00112043
0.00140027
0.00210735
0.00359054
0.00381917
0.00149657
5.47296e-05
0.000359569
0.000730951
0.000808673
0.000813994
0.00080918
0.00079055
0.000749472
0.000700077
0.000653573
0.000612271
0.000577051
0.000547649
0.000523667
0.000504463
0.000489598
0.000478576
0.000471328
0.000466772
0.000466223
0.000467357
0.000470394
0.000476233
0.000484579
0.00049586
0.000510719
0.000530397
0.000556315
0.000591043
0.000636847
0.000697603
0.000775794
0.000873815
0.000991982
0.00112574
0.0013999
0.00209599
0.00360313
0.00383501
0.00153066
5.5458e-05
0.000335587
0.000659147
0.000787757
0.000817534
0.000828767
0.000827152
0.000814497
0.00078506
0.000744799
0.000703652
0.000664471
0.000628876
0.000597781
0.000571506
0.000550053
0.000533156
0.000520564
0.000511781
0.000506335
0.000504893
0.00050594
0.000509227
0.000516067
0.000526468
0.000540938
0.000560545
0.000586387
0.000620823
0.000665495
0.000724274
0.000799955
0.000897024
0.00102267
0.00117912
0.00147881
0.00216703
0.00363652
0.00381065
0.0015433
7.43856e-05
0.000344559
0.000585724
0.000744701
0.000826727
0.000868751
0.000890298
0.000896846
0.000890415
0.000871576
0.000837872
0.00079975
0.000760672
0.000723019
0.000688373
0.000657765
0.000631647
0.000610302
0.000593525
0.000581389
0.000573563
0.000571124
0.000572435
0.000576702
0.000585708
0.000600105
0.000620481
0.000648217
0.00068535
0.000733896
0.000797998
0.000882885
0.000994746
0.001151
0.00136152
0.00171681
0.00240459
0.00371133
0.0037101
0.00154497
0.000112118
0.000407274
0.000595767
0.000763509
0.000879616
0.000964454
0.00101932
0.0010473
0.00105135
0.00104441
0.00102491
0.000990287
0.000949447
0.000906954
0.000864517
0.000826924
0.000794664
0.000768398
0.00074732
0.00073325
0.000722825
0.000720511
0.000722942
0.000730035
0.000744475
0.000767299
0.000798162
0.000839393
0.000893744
0.000965387
0.00105885
0.0011832
0.00134521
0.00157226
0.00186495
0.00231887
0.00295144
0.0038544
0.00362108
0.0015046
0.000182701
0.000563864
0.000738437
0.000936001
0.00109503
0.00122219
0.00130905
0.00135812
0.00137065
0.00136504
0.00134883
0.00131847
0.00128274
0.00124626
0.00121258
0.00118263
0.00115761
0.00114043
0.00113018
0.00113159
0.00113822
0.00115396
0.00118022
0.00121855
0.00126665
0.00132971
0.00140613
0.00150128
0.00161643
0.00175081
0.00192288
0.00212924
0.00239717
0.00271494
0.00311157
0.00359829
0.00402378
0.00418228
0.00351897
0.00142321
0.000324405
0.000957636
0.00134665
0.00171225
0.00193819
0.00208665
0.00217605
0.00222691
0.00223693
0.00223215
0.00222078
0.00220758
0.0021943
0.00218816
0.00219091
0.00220053
0.00222025
0.00225379
0.00229545
0.00235343
0.00242127
0.0025065
0.00260211
0.0027171
0.00284501
0.00299185
0.00315753
0.00333833
0.00355015
0.00376662
0.00403656
0.00427272
0.00461842
0.00482717
0.00522771
0.00524655
0.00506798
0.00443073
0.00309637
0.00124785
0.00021983
0.000345806
0.000456853
0.000576208
0.000683334
0.000778919
0.000857468
0.000922936
0.000969774
0.00100239
0.00102125
0.00103317
0.00103429
0.00103233
0.00102783
0.00101969
0.00101147
0.00100213
0.000994602
0.000986699
0.000982117
0.000977511
0.000977055
0.000978187
0.000981989
0.000987499
0.000999774
0.00100958
0.00103081
0.00104484
0.00107545
0.00109332
0.00113401
0.00116363
0.00123035
0.00126881
0.00133633
0.00133736
0.00129125
0.0010786
)
;

boundaryField
{
    movingWall
    {
        type            kqRWallFunction;
        value           nonuniform List<scalar> 
40
(
0.00021983
0.000345806
0.000456853
0.000576208
0.000683334
0.000778919
0.000857468
0.000922936
0.000969774
0.00100239
0.00102125
0.00103317
0.00103429
0.00103233
0.00102783
0.00101969
0.00101147
0.00100213
0.000994602
0.000986699
0.000982117
0.000977511
0.000977055
0.000978187
0.000981989
0.000987499
0.000999774
0.00100958
0.00103081
0.00104484
0.00107545
0.00109332
0.00113401
0.00116363
0.00123035
0.00126881
0.00133633
0.00133736
0.00129125
0.0010786
)
;
    }
    fixedWalls
    {
        type            kqRWallFunction;
        value           nonuniform List<scalar> 
120
(
1.71754e-06
8.28243e-06
2.47104e-05
5.71513e-05
0.000109362
0.000185229
0.0002837
0.000389841
0.000482481
0.000550825
0.000599155
0.000625869
0.000624998
0.000616722
0.000597103
0.000563939
0.000525101
0.000479379
0.000433809
0.000382237
0.00034084
0.000305923
0.000275147
0.000247308
0.000221339
0.000196916
0.000173243
0.000150469
0.000127809
0.000107865
9.11112e-05
7.63068e-05
6.26857e-05
5.47296e-05
5.5458e-05
7.43856e-05
0.000112118
0.000182701
0.000324405
0.00021983
2.6967e-06
4.85221e-06
4.01924e-06
2.87273e-06
3.51789e-06
6.99816e-06
1.62265e-05
4.04708e-05
0.000109992
0.000198977
0.000287851
0.000360378
0.000428549
0.000491917
0.000553991
0.000614527
0.000674774
0.000734797
0.000794487
0.000854331
0.000913535
0.000972717
0.00103079
0.00108811
0.00114358
0.00119729
0.00124822
0.00129655
0.00134139
0.00138334
0.00142212
0.00145919
0.00149657
0.00153066
0.0015433
0.00154497
0.0015046
0.00142321
0.00124785
0.0010786
1.71754e-06
6.3177e-06
1.26708e-05
1.35125e-05
1.27078e-05
1.31393e-05
1.65512e-05
2.64032e-05
3.74692e-05
4.94316e-05
7.77362e-05
0.000102988
0.000115983
0.000127802
0.000146984
0.000172753
0.000198964
0.000227074
0.000256372
0.000287699
0.000321842
0.000359094
0.000401163
0.000448838
0.000505616
0.000558658
0.000611385
0.000657281
0.00069652
0.000717686
0.000726
0.000709296
0.000647223
0.000542196
0.000397651
0.000226853
0.00010664
4.32223e-05
1.33433e-05
2.6967e-06
)
;
    }
    frontAndBack
    {
        type            empty;
    }
}


// ************************************************************************* //
