/*--------------------------------*- C++ -*----------------------------------*\
  =========                 |
  \\      /  F ield         | OpenFOAM: The Open Source CFD Toolbox
   \\    /   O peration     | Website:  https://openfoam.org
    \\  /    A nd           | Version:  13
     \\/     M anipulation  |
\*---------------------------------------------------------------------------*/
FoamFile
{
    format      ascii;
    class       volScalarField;
    location    "5.5";
    object      nut;
}
// * * * * * * * * * * * * * * * * * * * * * * * * * * * * * * * * * * * * * //

dimensions      [0 2 -1 0 0 0 0];

internalField   nonuniform List<scalar> 
400
(
9.51862e-08
2.1832e-07
9.76137e-07
3.05345e-06
5.18475e-06
6.73379e-06
7.95245e-06
9.07923e-06
1.00861e-05
1.10738e-05
1.20245e-05
1.29928e-05
1.39859e-05
1.47304e-05
1.50847e-05
1.51552e-05
1.42e-05
1.12317e-05
6.80431e-06
4.86646e-06
4.46016e-07
2.31227e-06
4.19535e-06
9.38683e-06
1.38389e-05
1.9668e-05
2.4313e-05
2.95552e-05
3.43616e-05
3.86017e-05
4.21238e-05
4.47471e-05
4.62045e-05
4.69112e-05
4.68524e-05
4.44359e-05
4.29602e-05
3.49766e-05
1.90826e-05
1.06303e-05
1.72197e-06
8.41291e-06
1.49829e-05
2.28401e-05
2.99617e-05
3.69265e-05
4.31976e-05
4.87957e-05
5.26807e-05
5.58245e-05
5.77582e-05
5.903e-05
5.94614e-05
5.95643e-05
5.88628e-05
5.60248e-05
5.18933e-05
4.58962e-05
2.62533e-05
1.42052e-05
3.92216e-06
1.81211e-05
2.58574e-05
3.40579e-05
4.08799e-05
4.78288e-05
5.31593e-05
5.72109e-05
6.05421e-05
6.33897e-05
6.56994e-05
6.68406e-05
6.71208e-05
6.71111e-05
6.62915e-05
6.36707e-05
5.75699e-05
5.41861e-05
3.48079e-05
1.64926e-05
5.8618e-06
2.59686e-05
3.4641e-05
4.03981e-05
4.74151e-05
5.36505e-05
5.94464e-05
6.40719e-05
6.74619e-05
6.90583e-05
6.93063e-05
6.96048e-05
7.01459e-05
7.05913e-05
7.10521e-05
7.0766e-05
6.41874e-05
5.84364e-05
4.18822e-05
1.82541e-05
7.33887e-06
3.11257e-05
3.83145e-05
4.48283e-05
5.27651e-05
5.96039e-05
6.44697e-05
6.7496e-05
6.8957e-05
6.95043e-05
6.98587e-05
7.04875e-05
7.07308e-05
7.12181e-05
7.23129e-05
7.37525e-05
7.06791e-05
6.28727e-05
4.85158e-05
1.96602e-05
7.73096e-06
3.18473e-05
4.11542e-05
4.89437e-05
5.68013e-05
6.22577e-05
6.56946e-05
6.79195e-05
6.93741e-05
7.05749e-05
7.13298e-05
7.25065e-05
7.23883e-05
7.21111e-05
7.26601e-05
7.4575e-05
7.59053e-05
6.67251e-05
5.40143e-05
2.07803e-05
7.62928e-06
3.27926e-05
4.35121e-05
5.13849e-05
5.8108e-05
6.31249e-05
6.61705e-05
6.83794e-05
7.04977e-05
7.30734e-05
7.51012e-05
7.67075e-05
7.67492e-05
7.50945e-05
7.39501e-05
7.54911e-05
7.93317e-05
7.0677e-05
5.90644e-05
2.16769e-05
7.33256e-06
3.29139e-05
4.4104e-05
5.22011e-05
5.8667e-05
6.3424e-05
6.6488e-05
6.91056e-05
7.21295e-05
7.59392e-05
7.94078e-05
8.15529e-05
8.21277e-05
7.97171e-05
7.5969e-05
7.49623e-05
7.85008e-05
7.50125e-05
6.27885e-05
2.23169e-05
6.70911e-06
3.2654e-05
4.41092e-05
5.22626e-05
5.86419e-05
6.33062e-05
6.66195e-05
6.97026e-05
7.33672e-05
7.76682e-05
8.16885e-05
8.42177e-05
8.49272e-05
8.33038e-05
7.92789e-05
7.58018e-05
7.73355e-05
7.75981e-05
6.61875e-05
2.27726e-05
6.04092e-06
3.09323e-05
4.31177e-05
5.15846e-05
5.80932e-05
6.29812e-05
6.64577e-05
6.97249e-05
7.35005e-05
7.76498e-05
8.15194e-05
8.41965e-05
8.51523e-05
8.46478e-05
8.12008e-05
7.72515e-05
7.71732e-05
7.889e-05
6.87973e-05
2.29889e-05
5.47406e-06
2.86679e-05
4.19665e-05
5.05247e-05
5.681e-05
6.1976e-05
6.57461e-05
6.90129e-05
7.22216e-05
7.57729e-05
7.94785e-05
8.27306e-05
8.41186e-05
8.44492e-05
8.21254e-05
7.78144e-05
7.73213e-05
8.01494e-05
7.09893e-05
2.30687e-05
4.85789e-06
2.52461e-05
3.93003e-05
4.87527e-05
5.54431e-05
6.07846e-05
6.46856e-05
6.72837e-05
7.05066e-05
7.38553e-05
7.7016e-05
8.00024e-05
8.14758e-05
8.31601e-05
8.23042e-05
7.81804e-05
7.60281e-05
8.05706e-05
7.18207e-05
2.30492e-05
4.31286e-06
2.26077e-05
3.66758e-05
4.66342e-05
5.28525e-05
5.80025e-05
6.22442e-05
6.54729e-05
6.83468e-05
7.08745e-05
7.38165e-05
7.64318e-05
7.82477e-05
8.05558e-05
8.12109e-05
7.82398e-05
7.47877e-05
7.97034e-05
7.20264e-05
2.2875e-05
3.66893e-06
1.85302e-05
3.22814e-05
4.3019e-05
5.04998e-05
5.58895e-05
6.06015e-05
6.35052e-05
6.5854e-05
6.78213e-05
7.08859e-05
7.26857e-05
7.47551e-05
7.72526e-05
7.84591e-05
7.70548e-05
7.39039e-05
7.77875e-05
6.96299e-05
2.27094e-05
3.07917e-06
1.61908e-05
2.96212e-05
4.0442e-05
4.85151e-05
5.37306e-05
5.83298e-05
6.11289e-05
6.32796e-05
6.49154e-05
6.76839e-05
6.87852e-05
7.05398e-05
7.24544e-05
7.32302e-05
7.38745e-05
6.99832e-05
7.47865e-05
6.66536e-05
2.19579e-05
2.36124e-06
1.17281e-05
2.47198e-05
3.74222e-05
4.58878e-05
5.10051e-05
5.53922e-05
5.82673e-05
5.99892e-05
6.11839e-05
6.25317e-05
6.31571e-05
6.39652e-05
6.52577e-05
6.48806e-05
6.81383e-05
6.54959e-05
6.93002e-05
6.12126e-05
2.0994e-05
1.68988e-06
1.14502e-05
2.42907e-05
3.50528e-05
4.40104e-05
4.81348e-05
5.15602e-05
5.3957e-05
5.49856e-05
5.50255e-05
5.50336e-05
5.51276e-05
5.51857e-05
5.73088e-05
5.81916e-05
6.32502e-05
6.59791e-05
6.43199e-05
5.24082e-05
1.94444e-05
2.09446e-06
1.37215e-05
2.45454e-05
3.20019e-05
3.8811e-05
4.30241e-05
4.60605e-05
4.8424e-05
5.06373e-05
5.21802e-05
5.44663e-05
5.66046e-05
6.01313e-05
6.38506e-05
6.83032e-05
7.37634e-05
6.97148e-05
6.30983e-05
4.63806e-05
1.72909e-05
1.54309e-06
2.47375e-06
4.5686e-06
6.57035e-06
8.20441e-06
9.38866e-06
1.01353e-05
1.07238e-05
1.10894e-05
1.15308e-05
1.18106e-05
1.2326e-05
1.26831e-05
1.34256e-05
1.39008e-05
1.48599e-05
1.56471e-05
1.64833e-05
1.63142e-05
1.46167e-05
)
;

boundaryField
{
    movingWall
    {
        type            nutkWallFunction;
        Cmu             0.09;
        kappa           0.41;
        E               9.8;
        value           uniform 0;
    }
    fixedWalls
    {
        type            nutkWallFunction;
        Cmu             0.09;
        kappa           0.41;
        E               9.8;
        value           uniform 0;
    }
    frontAndBack
    {
        type            empty;
    }
}


// ************************************************************************* //
