/*--------------------------------*- C++ -*----------------------------------*\
  =========                 |
  \\      /  F ield         | OpenFOAM: The Open Source CFD Toolbox
   \\    /   O peration     | Website:  https://openfoam.org
    \\  /    A nd           | Version:  13
     \\/     M anipulation  |
\*---------------------------------------------------------------------------*/
FoamFile
{
    format      ascii;
    class       volScalarField;
    location    "5.5";
    object      p;
}
// * * * * * * * * * * * * * * * * * * * * * * * * * * * * * * * * * * * * * //

dimensions      [0 2 -2 0 0 0 0];

internalField   nonuniform List<scalar> 
400
(
3.95985e-08
-6.7104e-05
-0.000158259
-0.000162125
-0.000519901
-0.00143505
-0.002697
-0.0039957
-0.00509715
-0.00585868
-0.00618728
-0.00599383
-0.00524618
-0.00392488
-0.00202533
0.000346796
0.00292707
0.00519798
0.00658469
0.00685146
1.9749e-05
-3.31327e-05
-0.000126455
-0.000442141
-0.0011015
-0.002152
-0.00340699
-0.00464532
-0.0056957
-0.00643973
-0.00678258
-0.00666562
-0.00605338
-0.00488317
-0.00315582
-0.00092687
0.0015904
0.00397082
0.00564869
0.00630391
0.000219691
2.12408e-06
-0.000381071
-0.00104987
-0.00205278
-0.00327673
-0.00455592
-0.00575053
-0.00675974
-0.00746433
-0.00778561
-0.00768958
-0.00715912
-0.00617057
-0.00470486
-0.00278436
-0.000521434
0.00181869
0.00378007
0.00475483
0.000182379
-0.000206275
-0.000930532
-0.00198175
-0.00327025
-0.00463114
-0.0059362
-0.0070789
-0.00797272
-0.00856672
-0.00883983
-0.00877192
-0.00833633
-0.00752203
-0.00631502
-0.00471973
-0.00278743
-0.00066344
0.00131951
0.00236277
-0.000292283
-0.000832545
-0.00181518
-0.00312302
-0.00455758
-0.00595758
-0.00721799
-0.00826226
-0.00904792
-0.00955789
-0.00978819
-0.00973288
-0.00938195
-0.00872827
-0.00776088
-0.00647621
-0.00489365
-0.0030817
-0.00126097
-0.000279351
-0.00120619
-0.00183349
-0.00293792
-0.00432002
-0.00576808
-0.00712335
-0.00829628
-0.00923696
-0.00992955
-0.0103713
-0.0105666
-0.0105196
-0.0102338
-0.00970952
-0.00894132
-0.00792266
-0.00665768
-0.00518213
-0.00369772
-0.0027698
-0.00235485
-0.00300275
-0.00410137
-0.00543553
-0.00681512
-0.00807932
-0.00915072
-0.00999497
-0.010608
-0.0109946
-0.0111641
-0.011126
-0.01089
-0.0104632
-0.00984731
-0.00903788
-0.00803536
-0.00686037
-0.00571401
-0.00489045
-0.00347826
-0.00409555
-0.00512126
-0.00636392
-0.00764376
-0.00880481
-0.00978003
-0.0105427
-0.0110932
-0.0114394
-0.0115925
-0.0115636
-0.0113643
-0.0110067
-0.0104995
-0.0098435
-0.0090416
-0.00811053
-0.00725052
-0.00652432
-0.00438456
-0.00495871
-0.00588843
-0.00703873
-0.00822042
-0.00929018
-0.0101885
-0.0108913
-0.0113989
-0.0117194
-0.0118635
-0.0118418
-0.0116662
-0.0113516
-0.0109134
-0.0103606
-0.00970473
-0.00894583
-0.00829385
-0.00765888
-0.00499739
-0.00550052
-0.00634801
-0.00742711
-0.00852921
-0.00953324
-0.0103817
-0.0110492
-0.0115336
-0.0118414
-0.0119818
-0.011964
-0.0117994
-0.0115045
-0.0111002
-0.0106046
-0.0100524
-0.0093871
-0.00889945
-0.0082956
-0.00527811
-0.00571487
-0.00649761
-0.0075204
-0.00856823
-0.00953629
-0.0103635
-0.0110201
-0.0115
-0.0118068
-0.0119476
-0.0119302
-0.0117655
-0.0114707
-0.0110708
-0.0105891
-0.0101074
-0.00944405
-0.00911615
-0.00845031
-0.00522017
-0.00561601
-0.00634972
-0.00732608
-0.00834784
-0.00930614
-0.0101372
-0.0108055
-0.0112985
-0.0116156
-0.0117612
-0.0117414
-0.0115668
-0.0112551
-0.0108352
-0.0103439
-0.00986017
-0.00915262
-0.00900664
-0.00812079
-0.00489093
-0.00526042
-0.00595171
-0.0068748
-0.00788511
-0.00885263
-0.00970833
-0.0104083
-0.0109312
-0.0112704
-0.0114264
-0.0114033
-0.011211
-0.0108683
-0.0104082
-0.00987229
-0.00933812
-0.00857532
-0.00857094
-0.00732503
-0.0043873
-0.00471534
-0.00534707
-0.00620681
-0.00719852
-0.0081862
-0.00908446
-0.00983547
-0.0104057
-0.0107802
-0.0109545
-0.0109301
-0.0107154
-0.0103304
-0.00981192
-0.00920084
-0.00858601
-0.00776166
-0.0077765
-0.00611171
-0.00383577
-0.00408437
-0.00460316
-0.00537084
-0.00632565
-0.0073353
-0.00828915
-0.0091079
-0.00974232
-0.0101664
-0.0103696
-0.0103504
-0.0101133
-0.00967883
-0.00908721
-0.00837464
-0.00764633
-0.0067027
-0.00661325
-0.0045229
-0.0033534
-0.0034355
-0.00376583
-0.00440032
-0.00530383
-0.00633627
-0.0073563
-0.00825825
-0.00897415
-0.00946428
-0.00971034
-0.0097051
-0.00945938
-0.00897701
-0.00830175
-0.00745615
-0.00655653
-0.00539246
-0.00505098
-0.00235154
-0.00303768
-0.00285142
-0.00290985
-0.0033734
-0.0042142
-0.00526878
-0.0063613
-0.00735801
-0.00817012
-0.0087431
-0.00905088
-0.00908044
-0.00883761
-0.00831234
-0.00754227
-0.00651574
-0.00533453
-0.00377196
-0.00281498
0.0012589
-0.00287746
-0.00230069
-0.00205813
-0.00234897
-0.00313049
-0.00420853
-0.00537653
-0.00647647
-0.00739867
-0.00807167
-0.00845787
-0.00853266
-0.00829569
-0.00773425
-0.00687128
-0.00561256
-0.00401322
-0.00168934
0.00073918
0.00815912
-0.00286473
-0.00182482
-0.00136618
-0.00152993
-0.00226501
-0.00336713
-0.00460705
-0.00580491
-0.00682978
-0.00760263
-0.00807392
-0.00822329
-0.00802936
-0.00746677
-0.0064657
-0.00493434
-0.00275322
0.00105917
0.00672011
0.0195524
-0.0034931
-0.000595123
-3.41958e-05
-0.000385528
-0.00118796
-0.00233993
-0.00366855
-0.00497106
-0.00609771
-0.00695188
-0.00748286
-0.0076558
-0.00744788
-0.00682408
-0.00573632
-0.00399385
-0.000812863
0.0054069
0.0165527
0.0339684
)
;

boundaryField
{
    movingWall
    {
        type            zeroGradient;
    }
    fixedWalls
    {
        type            zeroGradient;
    }
    frontAndBack
    {
        type            empty;
    }
}


// ************************************************************************* //
