/*--------------------------------*- C++ -*----------------------------------*\
  =========                 |
  \\      /  F ield         | OpenFOAM: The Open Source CFD Toolbox
   \\    /   O peration     | Website:  https://openfoam.org
    \\  /    A nd           | Version:  13
     \\/     M anipulation  |
\*---------------------------------------------------------------------------*/
FoamFile
{
    format      ascii;
    class       surfaceScalarField;
    location    "5.5";
    object      phi;
}
// * * * * * * * * * * * * * * * * * * * * * * * * * * * * * * * * * * * * * //

dimensions      [0 3 -1 0 0 0 0];

internalField   nonuniform List<scalar> 
3120
(
8.08066e-08
-8.08081e-08
2.05225e-07
-1.24418e-07
3.02468e-07
-9.72432e-08
3.40568e-07
-3.81005e-08
3.36122e-07
4.44579e-09
3.19598e-07
1.65243e-08
3.10896e-07
8.70158e-09
3.05954e-07
4.94218e-09
2.86062e-07
1.98919e-08
2.3655e-07
4.95123e-08
1.4175e-07
9.48002e-08
-3.89847e-08
1.80734e-07
-3.25894e-07
2.86909e-07
-7.542e-07
4.28306e-07
-1.29348e-06
5.39283e-07
-1.84431e-06
5.50832e-07
-2.3534e-06
5.09087e-07
-2.79746e-06
4.44055e-07
-3.16952e-06
3.72067e-07
-3.47018e-06
3.00655e-07
-3.7004e-06
2.30222e-07
-3.86224e-06
1.61839e-07
-3.95519e-06
9.2956e-08
-3.97904e-06
2.38413e-08
-3.92683e-06
-5.22056e-08
-3.80192e-06
-1.24906e-07
-3.59181e-06
-2.10113e-07
-3.29446e-06
-2.97354e-07
-2.90275e-06
-3.91707e-07
-2.41725e-06
-4.85499e-07
-1.83992e-06
-5.77332e-07
-1.19137e-06
-6.48547e-07
-5.25826e-07
-6.65545e-07
8.11044e-08
-6.06931e-07
5.596e-07
-4.78496e-07
7.5001e-07
-1.9041e-07
6.35691e-07
1.14319e-07
4.08863e-07
2.26827e-07
1.70582e-07
2.38281e-07
1.70582e-07
1.48495e-07
-2.29303e-07
3.20169e-07
-2.96092e-07
4.30941e-07
-2.08015e-07
4.66735e-07
-7.3895e-08
4.42787e-07
2.83945e-08
3.77222e-07
8.20885e-08
2.82433e-07
1.03491e-07
1.40992e-07
1.46383e-07
-8.44734e-08
2.45357e-07
-4.36617e-07
4.01656e-07
-9.48182e-07
6.06365e-07
-1.59536e-06
8.27917e-07
-2.29641e-06
9.87957e-07
-2.93147e-06
1.06336e-06
-3.4358e-06
1.04361e-06
-3.85552e-06
9.70549e-07
-4.21268e-06
8.66252e-07
-4.51046e-06
7.41839e-07
-4.75047e-06
6.12068e-07
-4.9328e-06
4.82987e-07
-5.05776e-06
3.55181e-07
-5.12913e-06
2.3321e-07
-5.14595e-06
1.09775e-07
-5.10327e-06
-1.88331e-08
-5.00911e-06
-1.46371e-07
-4.8495e-06
-2.84514e-07
-4.624e-06
-4.35618e-07
-4.32229e-06
-5.99061e-07
-3.93461e-06
-7.79389e-07
-3.45599e-06
-9.6412e-07
-2.89112e-06
-1.1422e-06
-2.24759e-06
-1.29208e-06
-1.54975e-06
-1.36339e-06
-8.40216e-07
-1.31646e-06
-2.28644e-07
-1.09007e-06
2.26226e-07
-6.4528e-07
3.73855e-07
-3.33104e-08
3.07172e-07
2.93511e-07
1.41912e-07
4.03541e-07
3.12494e-07
1.84271e-07
-4.13574e-07
3.1937e-07
-4.31191e-07
3.7038e-07
-2.59026e-07
3.47824e-07
-5.1339e-08
2.62021e-07
1.14197e-07
1.10019e-07
2.34091e-07
-1.40831e-07
3.54341e-07
-5.26254e-07
5.31806e-07
-1.06406e-06
7.83159e-07
-1.72663e-06
1.06423e-06
-2.42498e-06
1.30471e-06
-3.0488e-06
1.45174e-06
-3.57052e-06
1.50968e-06
-3.98956e-06
1.4824e-06
-4.33015e-06
1.3842e-06
-4.60659e-06
1.24699e-06
-4.82933e-06
1.089e-06
-5.00804e-06
9.20547e-07
-5.14881e-06
7.52839e-07
-5.25308e-06
5.87259e-07
-5.32427e-06
4.26364e-07
-5.35801e-06
2.66949e-07
-5.35223e-06
1.04005e-07
-5.30943e-06
-6.16349e-08
-5.22595e-06
-2.29854e-07
-5.10025e-06
-4.10214e-07
-4.92889e-06
-6.06978e-07
-4.70613e-06
-8.21824e-07
-4.42694e-06
-1.05857e-06
-4.07746e-06
-1.31361e-06
-3.64401e-06
-1.57564e-06
-3.11778e-06
-1.81831e-06
-2.49987e-06
-1.9813e-06
-1.81491e-06
-2.00142e-06
-1.11329e-06
-1.7917e-06
-4.75399e-07
-1.28317e-06
-6.98073e-08
-4.38903e-07
3.76165e-08
1.86087e-07
2.64324e-08
4.14725e-07
3.38926e-07
1.57164e-07
-5.70738e-07
2.1322e-07
-4.87247e-07
1.74366e-07
-2.20171e-07
6.17008e-08
6.1326e-08
-1.31872e-07
3.0777e-07
-4.37635e-07
5.39854e-07
-8.83802e-07
8.00508e-07
-1.46423e-06
1.11223e-06
-2.12258e-06
1.44152e-06
-2.77293e-06
1.71458e-06
-3.33598e-06
1.86776e-06
-3.78781e-06
1.90357e-06
-4.13632e-06
1.85819e-06
-4.40285e-06
1.74894e-06
-4.61443e-06
1.59578e-06
-4.7828e-06
1.41536e-06
-4.91941e-06
1.2256e-06
-5.03334e-06
1.03448e-06
-5.12552e-06
8.45018e-07
-5.19191e-06
6.53645e-07
-5.2333e-06
4.67758e-07
-5.24718e-06
2.80831e-07
-5.23556e-06
9.23766e-08
-5.19921e-06
-9.79856e-08
-5.13595e-06
-2.93112e-07
-5.04282e-06
-5.0334e-07
-4.91781e-06
-7.3199e-07
-4.75676e-06
-9.82873e-07
-4.55787e-06
-1.25746e-06
-4.31618e-06
-1.5553e-06
-4.02628e-06
-1.86554e-06
-3.67232e-06
-2.17227e-06
-3.21333e-06
-2.44028e-06
-2.62762e-06
-2.58714e-06
-1.92476e-06
-2.49455e-06
-1.15713e-06
-2.0508e-06
-4.42499e-07
-1.15353e-06
-1.22755e-07
-1.33657e-07
-2.29737e-08
3.14944e-07
3.15953e-07
7.72289e-08
-6.47967e-07
2.72665e-08
-4.37284e-07
-1.12042e-07
-8.08623e-08
-3.30831e-07
2.80115e-07
-6.51e-07
6.27939e-07
-1.09319e-06
9.82039e-07
-1.65153e-06
1.35886e-06
-2.27362e-06
1.73431e-06
-2.87555e-06
2.04345e-06
-3.37995e-06
2.21898e-06
-3.76927e-06
2.25708e-06
-4.06867e-06
2.20297e-06
-4.29369e-06
2.08321e-06
-4.46366e-06
1.9189e-06
-4.59723e-06
1.72935e-06
-4.70629e-06
1.52442e-06
-4.79142e-06
1.31073e-06
-4.8517e-06
1.09477e-06
-4.88735e-06
8.80667e-07
-4.90567e-06
6.7197e-07
-4.90849e-06
4.70574e-07
-4.89861e-06
2.70953e-07
-4.87703e-06
7.07904e-08
-4.84266e-06
-1.32351e-07
-4.79247e-06
-3.43307e-07
-4.72686e-06
-5.68943e-07
-4.64504e-06
-8.13812e-07
-4.54509e-06
-1.08282e-06
-4.42311e-06
-1.37944e-06
-4.27375e-06
-1.70467e-06
-4.08721e-06
-2.05207e-06
-3.85524e-06
-2.40425e-06
-3.55966e-06
-2.73586e-06
-3.15778e-06
-2.98902e-06
-2.58461e-06
-3.06772e-06
-1.82722e-06
-2.80819e-06
-9.06457e-07
-2.0743e-06
-2.12755e-07
-8.27359e-07
-1.18242e-08
1.14013e-07
3.04128e-07
-4.30264e-08
-6.04941e-07
-1.99157e-07
-2.81154e-07
-4.35269e-07
1.5525e-07
-7.5589e-07
6.00736e-07
-1.1775e-06
1.04955e-06
-1.69444e-06
1.49897e-06
-2.2659e-06
1.93032e-06
-2.82153e-06
2.28994e-06
-3.28749e-06
2.50941e-06
-3.63689e-06
2.56838e-06
-3.89716e-06
2.51735e-06
-4.09031e-06
2.39612e-06
-4.231e-06
2.2239e-06
-4.33288e-06
2.02079e-06
-4.40073e-06
1.7972e-06
-4.44113e-06
1.56482e-06
-4.46129e-06
1.33089e-06
-4.46813e-06
1.10161e-06
-4.46715e-06
8.79685e-07
-4.45978e-06
6.64602e-07
-4.44434e-06
4.55131e-07
-4.42185e-06
2.48461e-07
-4.39283e-06
4.17741e-08
-4.35674e-06
-1.68443e-07
-4.31329e-06
-3.86752e-07
-4.26372e-06
-6.18515e-07
-4.20868e-06
-8.68855e-07
-4.14836e-06
-1.14314e-06
-4.08175e-06
-1.44605e-06
-4.00595e-06
-1.78046e-06
-3.91325e-06
-2.14477e-06
-3.78813e-06
-2.52937e-06
-3.61331e-06
-2.91068e-06
-3.3602e-06
-3.24213e-06
-2.97344e-06
-3.45447e-06
-2.36457e-06
-3.41706e-06
-1.48576e-06
-2.95311e-06
-4.82675e-07
-1.83044e-06
-3.1197e-08
-3.37465e-07
2.72931e-07
-1.60214e-07
-4.44727e-07
-4.23127e-07
-1.82403e-08
-7.43404e-07
4.75526e-07
-1.14368e-06
1.00101e-06
-1.62074e-06
1.52661e-06
-2.14407e-06
2.0223e-06
-2.65926e-06
2.44551e-06
-3.09925e-06
2.72993e-06
-3.42436e-06
2.83452e-06
-3.65601e-06
2.80003e-06
-3.82159e-06
2.68293e-06
-3.93298e-06
2.50751e-06
-4.00243e-06
2.29335e-06
-4.03905e-06
2.05741e-06
-4.05257e-06
1.81072e-06
-4.05106e-06
1.56331e-06
-4.04057e-06
1.3204e-06
-4.02463e-06
1.08567e-06
-4.00447e-06
8.59524e-07
-3.98067e-06
6.408e-07
-3.95331e-06
4.27767e-07
-3.92257e-06
2.17719e-07
-3.88874e-06
7.95246e-09
-3.85175e-06
-2.05438e-07
-3.8122e-06
-4.263e-07
-3.77133e-06
-6.59385e-07
-3.73054e-06
-9.09651e-07
-3.69124e-06
-1.18244e-06
-3.65431e-06
-1.48299e-06
-3.61912e-06
-1.81565e-06
-3.5817e-06
-2.1822e-06
-3.53238e-06
-2.57869e-06
-3.45287e-06
-2.99019e-06
-3.31106e-06
-3.38395e-06
-3.06559e-06
-3.69994e-06
-2.64476e-06
-3.83789e-06
-1.96272e-06
-3.63514e-06
-9.2609e-07
-2.86707e-06
-1.13312e-07
-1.15024e-06
1.5962e-07
-2.64278e-07
-1.80449e-07
-6.0295e-07
3.20431e-07
-9.94903e-07
8.6748e-07
-1.44154e-06
1.44765e-06
-1.92566e-06
2.01073e-06
-2.40896e-06
2.50561e-06
-2.83522e-06
2.87176e-06
-3.15307e-06
3.04778e-06
-3.36934e-06
3.05079e-06
-3.5168e-06
2.94748e-06
-3.61004e-06
2.77618e-06
-3.66001e-06
2.55748e-06
-3.67852e-06
2.31185e-06
-3.67528e-06
2.05417e-06
-3.65894e-06
1.79438e-06
-3.63539e-06
1.53976e-06
-3.60849e-06
1.2935e-06
-3.57992e-06
1.05711e-06
-3.55017e-06
8.29771e-07
-3.51942e-06
6.10051e-07
-3.48756e-06
3.95904e-07
-3.4544e-06
1.84562e-07
-3.41984e-06
-2.66068e-08
-3.38387e-06
-2.41403e-07
-3.34721e-06
-4.62969e-07
-3.31113e-06
-6.95465e-07
-3.27745e-06
-9.43322e-07
-3.24839e-06
-1.2115e-06
-3.22599e-06
-1.50539e-06
-3.21121e-06
-1.83043e-06
-3.20248e-06
-2.19093e-06
-3.19355e-06
-2.58762e-06
-3.17022e-06
-3.01353e-06
-3.10601e-06
-3.44815e-06
-2.95948e-06
-3.84647e-06
-2.675e-06
-4.12237e-06
-2.1829e-06
-4.12725e-06
-1.38121e-06
-3.66876e-06
-3.24397e-07
-2.20706e-06
-1.64777e-07
-3.35074e-07
1.54625e-07
-7.36064e-07
7.21421e-07
-1.1666e-06
1.29802e-06
-1.62273e-06
1.90378e-06
-2.08236e-06
2.47036e-06
-2.5051e-06
2.92835e-06
-2.8308e-06
3.19746e-06
-3.04927e-06
3.26625e-06
-3.19134e-06
3.19286e-06
-3.27771e-06
3.03385e-06
-3.31975e-06
2.81821e-06
-3.32925e-06
2.56699e-06
-3.31737e-06
2.29997e-06
-3.29267e-06
2.02947e-06
-3.26173e-06
1.76344e-06
-3.2285e-06
1.50653e-06
-3.19524e-06
1.26024e-06
-3.16282e-06
1.02468e-06
-3.13137e-06
7.98321e-07
-3.10054e-06
5.79221e-07
-3.0697e-06
3.65065e-07
-3.03825e-06
1.53115e-07
-3.00553e-06
-5.93291e-08
-2.97161e-06
-2.75329e-07
-2.93687e-06
-4.97701e-07
-2.90253e-06
-7.29805e-07
-2.87054e-06
-9.75314e-07
-2.84352e-06
-1.23852e-06
-2.82441e-06
-1.5245e-06
-2.81569e-06
-1.83915e-06
-2.81801e-06
-2.1886e-06
-2.82807e-06
-2.57757e-06
-2.83551e-06
-3.00609e-06
-2.81927e-06
-3.46439e-06
-2.74284e-06
-3.92289e-06
-2.55484e-06
-4.31037e-06
-2.21407e-06
-4.46802e-06
-1.63863e-06
-4.2442e-06
-6.05693e-07
-3.23999e-06
-7.70471e-07
-3.77332e-07
5.31957e-07
-8.10631e-07
1.15472e-06
-1.25224e-06
1.73963e-06
-1.69399e-06
2.34552e-06
-2.11403e-06
2.8904e-06
-2.45966e-06
3.27398e-06
-2.69592e-06
3.43372e-06
-2.84816e-06
3.41849e-06
-2.93846e-06
3.28317e-06
-2.98267e-06
3.07806e-06
-2.99201e-06
2.82755e-06
-2.97838e-06
2.55336e-06
-2.95132e-06
2.27292e-06
-2.91766e-06
1.99581e-06
-2.88218e-06
1.72795e-06
-2.84755e-06
1.4719e-06
-2.81514e-06
1.22783e-06
-2.78517e-06
9.94716e-07
-2.75724e-06
7.70386e-07
-2.73046e-06
5.52447e-07
-2.7038e-06
3.38402e-07
-2.67632e-06
1.25638e-07
-2.6472e-06
-8.84556e-08
-2.61621e-06
-3.06319e-07
-2.58354e-06
-5.30369e-07
-2.5501e-06
-7.63248e-07
-2.51759e-06
-1.00782e-06
-2.48858e-06
-1.26753e-06
-2.46628e-06
-1.5468e-06
-2.45406e-06
-1.85137e-06
-2.45429e-06
-2.18838e-06
-2.46634e-06
-2.56552e-06
-2.48387e-06
-2.98856e-06
-2.4916e-06
-3.45667e-06
-2.45981e-06
-3.95468e-06
-2.33843e-06
-4.43176e-06
-2.08156e-06
-4.72488e-06
-1.63388e-06
-4.69188e-06
-8.68445e-07
-4.00543e-06
-1.63892e-06
-3.93945e-07
9.25902e-07
-8.3184e-07
1.59262e-06
-1.26239e-06
2.17017e-06
-1.67402e-06
2.75716e-06
-2.04124e-06
3.25762e-06
-2.30766e-06
3.5404e-06
-2.48326e-06
3.60931e-06
-2.58999e-06
3.52523e-06
-2.64523e-06
3.3384e-06
-2.66282e-06
3.09565e-06
-2.65402e-06
2.81876e-06
-2.62973e-06
2.52906e-06
-2.59762e-06
2.24082e-06
-2.5631e-06
1.96128e-06
-2.52961e-06
1.69447e-06
-2.49895e-06
1.44124e-06
-2.47169e-06
1.20058e-06
-2.44745e-06
9.70471e-07
-2.42533e-06
7.48271e-07
-2.40418e-06
5.31294e-07
-2.38277e-06
3.16992e-07
-2.36006e-06
1.02923e-07
-2.3352e-06
-1.13311e-07
-2.30776e-06
-3.33761e-07
-2.27771e-06
-5.60414e-07
-2.24563e-06
-7.95335e-07
-2.21278e-06
-1.04066e-06
-2.18131e-06
-1.299e-06
-2.15421e-06
-1.57389e-06
-2.13511e-06
-1.87046e-06
-2.12742e-06
-2.19607e-06
-2.13262e-06
-2.56032e-06
-2.14768e-06
-2.9735e-06
-2.16228e-06
-3.44206e-06
-2.15465e-06
-3.96232e-06
-2.08056e-06
-4.50584e-06
-1.86939e-06
-4.93605e-06
-1.51038e-06
-5.05089e-06
-9.22321e-07
-4.59349e-06
-2.56124e-06
-3.85184e-07
1.31109e-06
-8.07334e-07
2.01477e-06
-1.21068e-06
2.57352e-06
-1.58365e-06
3.13013e-06
-1.88864e-06
3.56261e-06
-2.09409e-06
3.74585e-06
-2.22863e-06
3.74386e-06
-2.30323e-06
3.59983e-06
-2.33592e-06
3.37109e-06
-2.33855e-06
3.09828e-06
-2.32186e-06
2.80206e-06
-2.29506e-06
2.50226e-06
-2.26431e-06
2.21007e-06
-2.23382e-06
1.93079e-06
-2.20603e-06
1.66668e-06
-2.18192e-06
1.41712e-06
-2.1614e-06
1.18006e-06
-2.14367e-06
9.52745e-07
-2.12761e-06
7.32212e-07
-2.11199e-06
5.15671e-07
-2.09563e-06
3.00629e-07
-2.07752e-06
8.4819e-08
-2.05691e-06
-1.33925e-07
-2.03327e-06
-3.57405e-07
-2.0064e-06
-5.8728e-07
-1.97655e-06
-8.25186e-07
-1.9445e-06
-1.07271e-06
-1.91176e-06
-1.33174e-06
-1.88077e-06
-1.60489e-06
-1.85485e-06
-1.89638e-06
-1.83784e-06
-2.21308e-06
-1.8327e-06
-2.56546e-06
-1.83914e-06
-2.96706e-06
-1.85045e-06
-3.43075e-06
-1.85093e-06
-3.96183e-06
-1.80957e-06
-4.54721e-06
-1.64349e-06
-5.10212e-06
-1.3476e-06
-5.34679e-06
-8.25471e-07
-5.11562e-06
-3.38671e-06
-3.57039e-07
1.66812e-06
-7.4877e-07
2.4065e-06
-1.11547e-06
2.94022e-06
-1.44262e-06
3.45728e-06
-1.68567e-06
3.80566e-06
-1.8504e-06
3.91058e-06
-1.95354e-06
3.84699e-06
-2.00684e-06
3.65313e-06
-2.02617e-06
3.39042e-06
-2.02197e-06
3.09408e-06
-2.00392e-06
2.78402e-06
-1.97955e-06
2.47789e-06
-1.95372e-06
2.18424e-06
-1.92965e-06
1.90672e-06
-1.90891e-06
1.64594e-06
-1.89182e-06
1.40003e-06
-1.87785e-06
1.1661e-06
-1.86603e-06
9.40918e-07
-1.8552e-06
7.21387e-07
-1.84426e-06
5.04733e-07
-1.8322e-06
2.88567e-07
-1.81816e-06
7.07805e-08
-1.80149e-06
-1.50596e-07
-1.78169e-06
-3.77209e-07
-1.75845e-06
-6.10519e-07
-1.73175e-06
-8.51882e-07
-1.70194e-06
-1.10252e-06
-1.66992e-06
-1.36376e-06
-1.63736e-06
-1.63744e-06
-1.60697e-06
-1.92678e-06
-1.58238e-06
-2.23767e-06
-1.56743e-06
-2.5804e-06
-1.56401e-06
-2.97049e-06
-1.56847e-06
-3.42629e-06
-1.56908e-06
-3.96122e-06
-1.54227e-06
-4.57401e-06
-1.42357e-06
-5.22082e-06
-1.16203e-06
-5.60834e-06
-7.22653e-07
-5.55499e-06
-4.10936e-06
-3.15947e-07
1.98407e-06
-6.67615e-07
2.75817e-06
-9.91052e-07
3.26366e-06
-1.26708e-06
3.7333e-06
-1.45899e-06
3.99757e-06
-1.59282e-06
4.04441e-06
-1.67301e-06
3.92719e-06
-1.7127e-06
3.69283e-06
-1.72505e-06
3.40277e-06
-1.71922e-06
3.08825e-06
-1.70362e-06
2.76841e-06
-1.6842e-06
2.45847e-06
-1.66479e-06
2.16483e-06
-1.64771e-06
1.88964e-06
-1.63382e-06
1.63205e-06
-1.623e-06
1.38921e-06
-1.61453e-06
1.15763e-06
-1.60744e-06
9.33823e-07
-1.60072e-06
7.14673e-07
-1.59348e-06
4.97492e-07
-1.58492e-06
2.80007e-07
-1.57438e-06
6.02342e-08
-1.56132e-06
-1.63652e-07
-1.54531e-06
-3.93218e-07
-1.526e-06
-6.29836e-07
-1.50316e-06
-8.74715e-07
-1.47681e-06
-1.12887e-06
-1.44731e-06
-1.39326e-06
-1.41565e-06
-1.66911e-06
-1.38374e-06
-1.95869e-06
-1.35467e-06
-2.26674e-06
-1.33245e-06
-2.60262e-06
-1.32047e-06
-2.98247e-06
-1.31807e-06
-3.42869e-06
-1.31681e-06
-3.96249e-06
-1.29747e-06
-4.59335e-06
-1.21991e-06
-5.29838e-06
-9.88281e-07
-5.83997e-06
-6.13911e-07
-5.92936e-06
-4.72327e-06
-2.67385e-07
2.25146e-06
-5.7106e-07
3.06184e-06
-8.47229e-07
3.53982e-06
-1.07171e-06
3.95779e-06
-1.22626e-06
4.15211e-06
-1.33468e-06
4.15284e-06
-1.39711e-06
3.98961e-06
-1.42784e-06
3.72356e-06
-1.43711e-06
3.41204e-06
-1.43261e-06
3.08375e-06
-1.42127e-06
2.75707e-06
-1.40769e-06
2.44488e-06
-1.39479e-06
2.15193e-06
-1.38413e-06
1.87898e-06
-1.37608e-06
1.62401e-06
-1.37029e-06
1.38342e-06
-1.36603e-06
1.15337e-06
-1.36247e-06
9.30261e-07
-1.35883e-06
7.11032e-07
-1.35444e-06
4.93103e-07
-1.34873e-06
2.74299e-07
-1.34122e-06
5.27252e-08
-1.33152e-06
-1.73354e-07
-1.31925e-06
-4.05482e-07
-1.30407e-06
-6.45025e-07
-1.28562e-06
-8.93158e-07
-1.26368e-06
-1.15082e-06
-1.2382e-06
-1.41874e-06
-1.2096e-06
-1.69771e-06
-1.17908e-06
-1.98921e-06
-1.14901e-06
-2.29681e-06
-1.1231e-06
-2.62853e-06
-1.10554e-06
-3.00002e-06
-1.09805e-06
-3.43619e-06
-1.0947e-06
-3.96583e-06
-1.07991e-06
-4.60814e-06
-1.02521e-06
-5.35308e-06
-8.38396e-07
-6.02679e-06
-5.27147e-07
-6.24061e-06
-5.25042e-06
-2.12529e-07
2.46399e-06
-4.65572e-07
3.31488e-06
-6.94611e-07
3.76886e-06
-8.72091e-07
4.13527e-06
-9.95905e-07
4.27592e-06
-1.08126e-06
4.2382e-06
-1.13057e-06
4.03892e-06
-1.15547e-06
3.74846e-06
-1.16387e-06
3.42044e-06
-1.16205e-06
3.08194e-06
-1.15547e-06
2.75049e-06
-1.14755e-06
2.43697e-06
-1.14044e-06
2.14481e-06
-1.13509e-06
1.87364e-06
-1.13159e-06
1.62051e-06
-1.12952e-06
1.38136e-06
-1.12828e-06
1.15213e-06
-1.12724e-06
9.29222e-07
-1.12586e-06
7.0965e-07
-1.12369e-06
4.90931e-07
-1.12036e-06
2.70973e-07
-1.11557e-06
4.793e-08
-1.10903e-06
-1.7989e-07
-1.10047e-06
-4.14044e-07
-1.08954e-06
-6.55952e-07
-1.07586e-06
-9.06839e-07
-1.05902e-06
-1.16766e-06
-1.03869e-06
-1.43906e-06
-1.01486e-06
-1.72154e-06
-9.88124e-07
-2.01594e-06
-9.60217e-07
-2.32472e-06
-9.34383e-07
-2.65437e-06
-9.15124e-07
-3.01928e-06
-9.05853e-07
-3.44546e-06
-9.03582e-07
-3.9681e-06
-8.96251e-07
-4.61547e-06
-8.61337e-07
-5.388e-06
-7.12876e-07
-6.17525e-06
-4.42772e-07
-6.51071e-06
-5.69319e-06
-1.57813e-07
2.6218e-06
-3.58108e-07
3.51518e-06
-5.3996e-07
3.95072e-06
-6.74772e-07
4.27008e-06
-7.70874e-07
4.37203e-06
-8.36396e-07
4.30372e-06
-8.75376e-07
4.0779e-06
-8.96273e-07
3.76935e-06
-9.0487e-07
3.42903e-06
-9.06083e-07
3.08315e-06
-9.03957e-07
2.74836e-06
-9.00948e-07
2.43396e-06
-8.98515e-07
2.14237e-06
-8.97218e-07
1.87234e-06
-8.97003e-07
1.62029e-06
-8.97521e-07
1.38188e-06
-8.98335e-07
1.15294e-06
-8.99045e-07
9.29932e-07
-8.99325e-07
7.09931e-07
-8.9893e-07
4.90536e-07
-8.97666e-07
2.69709e-07
-8.95366e-07
4.56303e-08
-8.9187e-07
-1.83385e-07
-8.86977e-07
-4.18937e-07
-8.80399e-07
-6.6253e-07
-8.71741e-07
-9.15497e-07
-8.60508e-07
-1.17889e-06
-8.46186e-07
-1.45339e-06
-8.28419e-07
-1.73931e-06
-8.07349e-07
-2.03701e-06
-7.84096e-07
-2.34797e-06
-7.61324e-07
-2.67714e-06
-7.43454e-07
-3.03715e-06
-7.35146e-07
-3.45377e-06
-7.36334e-07
-3.96691e-06
-7.36918e-07
-4.61489e-06
-7.14307e-07
-5.41061e-06
-6.11216e-07
-6.27834e-06
-3.86483e-07
-6.73545e-06
-6.07967e-06
-9.97812e-08
2.72158e-06
-2.4978e-07
3.66518e-06
-3.85558e-07
4.08649e-06
-4.82647e-07
4.36717e-06
-5.53875e-07
4.44325e-06
-6.01795e-07
4.35164e-06
-6.31835e-07
4.10794e-06
-6.49504e-07
3.78702e-06
-6.58564e-07
3.43809e-06
-6.62518e-07
3.0871e-06
-6.64136e-07
2.74998e-06
-6.65032e-07
2.43486e-06
-6.66119e-07
2.14346e-06
-6.67692e-07
1.87391e-06
-6.69677e-07
1.62228e-06
-6.71854e-07
1.38405e-06
-6.73985e-07
1.15507e-06
-6.75879e-07
9.31826e-07
-6.77407e-07
7.11459e-07
-6.78491e-07
4.9162e-07
-6.79084e-07
2.70301e-07
-6.7914e-07
4.56866e-08
-6.786e-07
-1.83925e-07
-6.77351e-07
-4.20187e-07
-6.75173e-07
-6.64708e-07
-6.71708e-07
-9.18962e-07
-6.66445e-07
-1.18415e-06
-6.58765e-07
-1.46107e-06
-6.48096e-07
-1.74998e-06
-6.34224e-07
-2.05088e-06
-6.17772e-07
-2.36442e-06
-6.00822e-07
-2.69409e-06
-5.87431e-07
-3.05054e-06
-5.82932e-07
-3.45827e-06
-5.89845e-07
-3.96e-06
-6.00345e-07
-4.60439e-06
-5.92025e-07
-5.41893e-06
-5.21424e-07
-6.34894e-06
-3.33558e-07
-6.92331e-06
-6.41323e-06
-4.7373e-08
2.76895e-06
-1.44293e-07
3.7621e-06
-2.34489e-07
4.17669e-06
-2.97683e-07
4.43037e-06
-3.45355e-07
4.49093e-06
-3.77231e-07
4.38352e-06
-3.99048e-07
4.12976e-06
-4.136e-07
3.80158e-06
-4.22853e-07
3.44735e-06
-4.28914e-07
3.09316e-06
-4.33392e-07
2.75446e-06
-4.37162e-07
2.43863e-06
-4.40693e-07
2.14699e-06
-4.44128e-07
1.87735e-06
-4.47445e-07
1.62559e-06
-4.50576e-07
1.38718e-06
-4.53478e-07
1.15797e-06
-4.56153e-07
9.34501e-07
-4.58642e-07
7.13948e-07
-4.6101e-07
4.93989e-07
-4.6333e-07
2.7262e-07
-4.65659e-07
4.80163e-08
-4.68028e-07
-1.81556e-07
-4.70406e-07
-4.17809e-07
-4.72657e-07
-6.62457e-07
-4.74489e-07
-9.1713e-07
-4.7543e-07
-1.18321e-06
-4.74839e-07
-1.46166e-06
-4.72019e-07
-1.7528e-06
-4.66499e-07
-2.0564e-06
-4.58492e-07
-2.37243e-06
-4.49553e-07
-2.70303e-06
-4.43275e-07
-3.05682e-06
-4.45183e-07
-3.45636e-06
-4.59524e-07
-3.94566e-06
-4.80781e-07
-4.58313e-06
-4.89593e-07
-5.41011e-06
-4.48948e-07
-6.38958e-06
-2.95783e-07
-7.07648e-06
-6.70901e-06
1.06616e-08
2.75829e-06
-3.86545e-08
3.81141e-06
-8.78019e-08
4.22584e-06
-1.20643e-07
4.46321e-06
-1.4511e-07
4.51539e-06
-1.61945e-07
4.40035e-06
-1.75456e-07
4.14327e-06
-1.86498e-07
3.81262e-06
-1.95382e-07
3.45623e-06
-2.02767e-07
3.10055e-06
-2.09196e-07
2.76089e-06
-2.14908e-07
2.44434e-06
-2.19969e-07
2.15205e-06
-2.24464e-07
1.88184e-06
-2.28449e-07
1.62958e-06
-2.32007e-07
1.39074e-06
-2.35281e-07
1.16125e-06
-2.38447e-07
9.37668e-07
-2.41697e-07
7.17198e-07
-2.45218e-07
4.9751e-07
-2.49184e-07
2.76586e-07
-2.53742e-07
5.25741e-08
-2.58997e-07
-1.76301e-07
-2.65e-07
-4.11805e-07
-2.71701e-07
-6.55757e-07
-2.78897e-07
-9.09934e-07
-2.86195e-07
-1.17591e-06
-2.93001e-07
-1.45485e-06
-2.98589e-07
-1.74721e-06
-3.02322e-07
-2.05267e-06
-3.04086e-07
-2.37066e-06
-3.0495e-07
-2.70216e-06
-3.08002e-07
-3.05377e-06
-3.18635e-07
-3.44573e-06
-3.42199e-07
-3.92209e-06
-3.75634e-07
-4.54969e-06
-4.01592e-07
-5.38416e-06
-3.8561e-07
-6.40556e-06
-2.61035e-07
-7.20105e-06
-6.97005e-06
6.28418e-08
2.69545e-06
6.36073e-08
3.81065e-06
5.34944e-08
4.23595e-06
4.94786e-08
4.46722e-06
4.80598e-08
4.51681e-06
4.53841e-08
4.40303e-06
4.06559e-08
4.148e-06
3.38377e-08
3.81944e-06
2.61433e-08
3.46392e-06
1.83303e-08
3.10836e-06
1.09028e-08
2.76831e-06
4.19009e-09
2.45105e-06
-1.74203e-09
2.15798e-06
-6.77094e-09
1.88687e-06
-1.09561e-08
1.63376e-06
-1.45649e-08
1.39435e-06
-1.7923e-08
1.16461e-06
-2.13699e-08
9.41115e-07
-2.52327e-08
7.21061e-07
-2.98111e-08
5.02088e-07
-3.53691e-08
2.82144e-07
-4.2131e-08
5.93361e-08
-5.02723e-08
-1.68159e-07
-5.99138e-08
-4.02164e-07
-7.10869e-08
-6.44584e-07
-8.36881e-08
-8.97333e-07
-9.74403e-08
-1.16216e-06
-1.11854e-07
-1.44044e-06
-1.26248e-07
-1.73282e-06
-1.39924e-07
-2.03899e-06
-1.52542e-07
-2.35805e-06
-1.64629e-07
-2.69008e-06
-1.78839e-07
-3.03956e-06
-2.00179e-07
-3.42439e-06
-2.34628e-07
-3.88764e-06
-2.81559e-07
-4.50276e-06
-3.25461e-07
-5.34025e-06
-3.34365e-07
-6.39666e-06
-2.35181e-07
-7.30024e-06
-7.20523e-06
1.15758e-07
2.57969e-06
1.63884e-07
3.76252e-06
1.91304e-07
4.20853e-06
2.16522e-07
4.442e-06
2.38757e-07
4.49458e-06
2.50308e-07
4.39148e-06
2.52783e-07
4.14552e-06
2.50032e-07
3.82219e-06
2.44021e-07
3.46994e-06
2.36487e-07
3.1159e-06
2.28689e-07
2.77611e-06
2.21511e-07
2.45823e-06
2.15449e-07
2.16405e-06
2.10559e-07
1.89176e-06
2.06628e-07
1.63769e-06
2.03289e-07
1.39769e-06
2.00083e-07
1.16781e-06
1.96531e-07
9.44666e-07
1.92183e-07
7.2541e-07
1.86633e-07
5.07638e-07
1.79531e-07
2.89245e-07
1.70581e-07
6.82862e-08
1.59541e-07
-1.5712e-07
1.46231e-07
-3.88854e-07
1.30544e-07
-6.28896e-07
1.12481e-07
-8.7927e-07
9.2192e-08
-1.14187e-06
7.00288e-08
-1.41828e-06
4.65612e-08
-1.70935e-06
2.24906e-08
-2.01492e-06
-1.65068e-09
-2.3339e-06
-2.64056e-08
-2.66532e-06
-5.34247e-08
-3.01254e-06
-8.72932e-08
-3.39052e-06
-1.34264e-07
-3.84067e-06
-1.95513e-07
-4.44151e-06
-2.56594e-07
-5.27917e-06
-2.8846e-07
-6.36479e-06
-2.12078e-07
-7.37662e-06
-7.41731e-06
1.68216e-07
2.41148e-06
2.62328e-07
3.66841e-06
3.24654e-07
4.1462e-06
3.76854e-07
4.3898e-06
4.21382e-07
4.45005e-06
4.48987e-07
4.36387e-06
4.60262e-07
4.13425e-06
4.63048e-07
3.8194e-06
4.59969e-07
3.47301e-06
4.53766e-07
3.1221e-06
4.46539e-07
2.78334e-06
4.39682e-07
2.46509e-06
4.33921e-07
2.16981e-06
4.29452e-07
1.89623e-06
4.26042e-07
1.6411e-06
4.23206e-07
1.40052e-06
4.20347e-07
1.17067e-06
4.1685e-07
9.48163e-07
4.12144e-07
7.30116e-07
4.05719e-07
5.14063e-07
3.97138e-07
2.97826e-07
3.86034e-07
7.9391e-08
3.72101e-07
-1.43187e-07
3.55103e-07
-3.71856e-07
3.34856e-07
-6.08649e-07
3.11253e-07
-8.55668e-07
2.84315e-07
-1.11493e-06
2.5423e-07
-1.38819e-06
2.2138e-07
-1.6765e-06
1.86323e-07
-1.97987e-06
1.49607e-07
-2.29719e-06
1.11459e-07
-2.62717e-06
7.03734e-08
-2.97145e-06
2.23486e-08
-3.34249e-06
-3.8916e-08
-3.77941e-06
-1.15964e-07
-4.36447e-06
-1.9477e-07
-5.20037e-06
-2.46247e-07
-6.31332e-06
-1.9537e-07
-7.4275e-06
-7.61268e-06
2.18594e-07
2.19288e-06
3.58153e-07
3.52885e-06
4.54356e-07
4.05e-06
5.328e-07
4.31136e-06
5.97098e-07
4.38575e-06
6.42577e-07
4.31839e-06
6.64594e-07
4.11223e-06
6.7424e-07
3.80976e-06
6.75392e-07
3.47186e-06
6.71688e-07
3.1258e-06
6.65975e-07
2.78905e-06
6.60158e-07
2.4709e-06
6.55277e-07
2.17469e-06
6.51657e-07
1.89985e-06
6.49072e-07
1.64369e-06
6.4697e-07
1.40263e-06
6.44644e-07
1.173e-06
6.41361e-07
9.51445e-07
6.36434e-07
7.35043e-07
6.29252e-07
5.21246e-07
6.19288e-07
3.07789e-07
6.06099e-07
9.25801e-08
5.8931e-07
-1.26398e-07
5.6862e-07
-3.51166e-07
5.43767e-07
-5.83796e-07
5.14544e-07
-8.26445e-07
4.80837e-07
-1.08123e-06
4.42642e-07
-1.35e-06
4.00133e-07
-1.63399e-06
3.53721e-07
-1.93346e-06
3.03947e-07
-2.24741e-06
2.51167e-07
-2.57439e-06
1.94609e-07
-2.9149e-06
1.30898e-07
-3.27878e-06
5.37657e-08
-3.70228e-06
-4.05468e-08
-4.27015e-06
-1.38635e-07
-5.10228e-06
-2.08327e-07
-6.24363e-06
-1.80401e-07
-7.45542e-06
-7.79308e-06
2.66288e-07
1.92659e-06
4.49928e-07
3.34521e-06
5.79102e-07
3.92083e-06
6.83659e-07
4.2068e-06
7.66599e-07
4.30281e-06
8.30265e-07
4.25473e-06
8.65913e-07
4.07658e-06
8.84174e-07
3.79149e-06
8.91147e-07
3.46489e-06
8.91402e-07
3.12555e-06
8.88425e-07
2.79203e-06
8.84606e-07
2.47472e-06
8.8131e-07
2.17798e-06
8.79034e-07
1.90213e-06
8.77625e-07
1.6451e-06
8.76516e-07
1.40374e-06
8.74931e-07
1.17458e-06
8.72041e-07
9.54336e-07
8.67052e-07
7.40033e-07
8.59252e-07
5.29045e-07
8.48022e-07
3.19019e-07
8.32841e-07
1.07762e-07
8.13255e-07
-1.06812e-07
7.88884e-07
-3.26795e-07
7.59387e-07
-5.543e-07
7.24445e-07
-7.91503e-07
6.83786e-07
-1.04057e-06
6.37219e-07
-1.30343e-06
5.84725e-07
-1.5815e-06
5.26497e-07
-1.87523e-06
4.62943e-07
-2.18386e-06
3.94562e-07
-2.50601e-06
3.2119e-07
-2.84152e-06
2.40274e-07
-3.19787e-06
1.45722e-07
-3.60772e-06
3.26657e-08
-4.1571e-06
-8.57841e-08
-4.98383e-06
-1.75346e-07
-6.15406e-06
-1.69098e-07
-7.46167e-06
-7.96218e-06
3.09155e-07
1.61744e-06
5.34912e-07
3.11945e-06
6.96113e-07
3.75963e-06
8.25201e-07
4.07772e-06
9.29098e-07
4.19892e-06
1.01117e-06
4.17266e-06
1.06337e-06
4.02438e-06
1.09262e-06
3.76224e-06
1.10751e-06
3.45001e-06
1.11359e-06
3.11946e-06
1.11494e-06
2.79068e-06
1.11439e-06
2.47528e-06
1.11363e-06
2.17874e-06
1.1134e-06
1.90236e-06
1.11367e-06
1.64483e-06
1.11393e-06
1.40348e-06
1.11337e-06
1.17514e-06
1.11111e-06
9.566e-07
1.10626e-06
7.44883e-07
1.09801e-06
5.37288e-07
1.08567e-06
3.31367e-07
1.0686e-06
1.24823e-07
1.0463e-06
-8.45047e-08
1.01826e-06
-2.98754e-07
9.84043e-07
-5.20087e-07
9.43232e-07
-7.50691e-07
8.95403e-07
-9.92739e-07
8.4017e-07
-1.2482e-06
7.77235e-07
-1.51856e-06
7.06531e-07
-1.80452e-06
6.28368e-07
-2.1057e-06
5.43385e-07
-2.42103e-06
4.51883e-07
-2.75002e-06
3.52129e-07
-3.09811e-06
2.38761e-07
-3.49436e-06
1.06555e-07
-4.02489e-06
-3.16772e-08
-4.8456e-06
-1.3894e-07
-6.0468e-06
-1.55505e-07
-7.4451e-06
-8.11768e-06
3.42878e-07
1.27456e-06
6.0792e-07
2.85441e-06
8.01219e-07
3.56633e-06
9.55354e-07
3.92358e-06
1.08146e-06
4.07281e-06
1.18164e-06
4.07247e-06
1.25346e-06
3.95256e-06
1.29753e-06
3.71816e-06
1.32349e-06
3.42405e-06
1.33804e-06
3.10492e-06
1.34592e-06
2.7828e-06
1.35043e-06
2.47077e-06
1.35361e-06
2.17555e-06
1.35648e-06
1.89949e-06
1.35921e-06
1.6421e-06
1.3614e-06
1.4013e-06
1.36228e-06
1.17425e-06
1.36097e-06
9.57914e-07
1.35652e-06
7.49329e-07
1.34806e-06
5.4575e-07
1.33478e-06
3.4465e-07
1.31598e-06
1.43619e-07
1.29104e-06
-5.95675e-08
1.25935e-06
-2.67063e-07
1.22035e-06
-4.81085e-07
1.1735e-06
-7.03836e-07
1.1182e-06
-9.37441e-07
1.05385e-06
-1.18385e-06
9.79899e-07
-1.44461e-06
8.96022e-07
-1.72065e-06
8.02328e-07
-2.012e-06
6.99502e-07
-2.3182e-06
5.88337e-07
-2.63886e-06
4.67967e-07
-2.97774e-06
3.33848e-07
-3.36024e-06
1.8077e-07
-3.87181e-06
2.13769e-08
-4.6862e-06
-1.09399e-07
-5.91603e-06
-1.4728e-07
-7.40722e-06
-8.26496e-06
3.58981e-07
9.15582e-07
6.61039e-07
2.55235e-06
8.89144e-07
3.33822e-06
1.06958e-06
3.74314e-06
1.21816e-06
3.92423e-06
1.33928e-06
3.95136e-06
1.43272e-06
3.85911e-06
1.49573e-06
3.65516e-06
1.53685e-06
3.38293e-06
1.56344e-06
3.07832e-06
1.58091e-06
2.76533e-06
1.59301e-06
2.45867e-06
1.60217e-06
2.16639e-06
1.60971e-06
1.89194e-06
1.61608e-06
1.63573e-06
1.62107e-06
1.39631e-06
1.62405e-06
1.17127e-06
1.62417e-06
9.57794e-07
1.6205e-06
7.53002e-07
1.6121e-06
5.54145e-07
1.59811e-06
3.58642e-07
1.57775e-06
1.63978e-07
1.55026e-06
-3.2071e-08
1.51492e-06
-2.31725e-07
1.47104e-06
-4.37206e-07
1.41792e-06
-6.50712e-07
1.35476e-06
-8.74287e-07
1.28075e-06
-1.10983e-06
1.19506e-06
-1.35892e-06
1.09712e-06
-1.62271e-06
9.86826e-07
-1.90171e-06
8.64822e-07
-2.1962e-06
7.32298e-07
-2.50633e-06
5.89437e-07
-2.83488e-06
4.32386e-07
-3.20319e-06
2.55927e-07
-3.69536e-06
7.08782e-08
-4.50115e-06
-7.98732e-08
-5.76528e-06
-1.36257e-07
-7.35084e-06
-8.40122e-06
3.42515e-07
5.73067e-07
6.84877e-07
2.20999e-06
9.52213e-07
3.07089e-06
1.16151e-06
3.53384e-06
1.33367e-06
3.75207e-06
1.47836e-06
3.80667e-06
1.59581e-06
3.74167e-06
1.68239e-06
3.56858e-06
1.74375e-06
3.32158e-06
1.78708e-06
3.03499e-06
1.81822e-06
2.73419e-06
1.84137e-06
2.43552e-06
1.85936e-06
2.14841e-06
1.87386e-06
1.87744e-06
1.88564e-06
1.62394e-06
1.89478e-06
1.38717e-06
1.90084e-06
1.1652e-06
1.90313e-06
9.55509e-07
1.90077e-06
7.55363e-07
1.89283e-06
5.62086e-07
1.87841e-06
3.7306e-07
1.8567e-06
1.85684e-07
1.82668e-06
-2.0512e-09
1.78768e-06
-1.92725e-07
1.73877e-06
-3.88292e-07
1.67906e-06
-5.91002e-07
1.60755e-06
-8.02776e-07
1.52317e-06
-1.02546e-06
1.42486e-06
-1.26061e-06
1.3118e-06
-1.50964e-06
1.18369e-06
-1.7736e-06
1.04115e-06
-2.05366e-06
8.85492e-07
-2.35068e-06
7.17915e-07
-2.6673e-06
5.35643e-07
-3.02091e-06
3.33867e-07
-3.49358e-06
1.23005e-07
-4.29029e-06
-5.35386e-08
-5.58873e-06
-1.30792e-07
-7.27359e-06
-8.53201e-06
2.77464e-07
2.95603e-07
6.74633e-07
1.81282e-06
9.81658e-07
2.76386e-06
1.22268e-06
3.29282e-06
1.42116e-06
3.55359e-06
1.59167e-06
3.63616e-06
1.73641e-06
3.59692e-06
1.85129e-06
3.45369e-06
1.93874e-06
3.23414e-06
2.00457e-06
2.96916e-06
2.05457e-06
2.68419e-06
2.09329e-06
2.3968e-06
2.12392e-06
2.11778e-06
2.14852e-06
1.85284e-06
2.16824e-06
1.60423e-06
2.18348e-06
1.37193e-06
2.19412e-06
1.15456e-06
2.19968e-06
9.49954e-07
2.19943e-06
7.55616e-07
2.1925e-06
5.69014e-07
2.17803e-06
3.87532e-07
2.15509e-06
2.08625e-07
2.12277e-06
3.02621e-08
2.07996e-06
-1.49917e-07
2.02577e-06
-3.34102e-07
1.95905e-06
-5.2428e-07
1.87856e-06
-7.22283e-07
1.783e-06
-9.29893e-07
1.67106e-06
-1.14868e-06
1.54174e-06
-1.38033e-06
1.39457e-06
-1.62643e-06
1.23009e-06
-1.88917e-06