/*--------------------------------*- C++ -*----------------------------------*\
  =========                 |
  \\      /  F ield         | OpenFOAM: The Open Source CFD Toolbox
   \\    /   O peration     | Website:  https://openfoam.org
    \\  /    A nd           | Version:  13
     \\/     M anipulation  |
\*---------------------------------------------------------------------------*/
FoamFile
{
    format      ascii;
    class       volVectorField;
    location    "5.5";
    object      U;
}
// * * * * * * * * * * * * * * * * * * * * * * * * * * * * * * * * * * * * * //

dimensions      [0 1 -1 0 0 0 0];

internalField   nonuniform List<vector> 
400
(
(0.0020315 -0.00262721 0)
(0.00522358 -0.00114648 0)
(-0.00232946 0.00115691 0)
(-0.012814 0.0058062 0)
(-0.042762 0.0134497 0)
(-0.0699039 0.0122036 0)
(-0.0925752 0.0106119 0)
(-0.111276 0.00838242 0)
(-0.125352 0.00645227 0)
(-0.135829 0.00434217 0)
(-0.142213 0.00244545 0)
(-0.145015 0.000628328 0)
(-0.14472 -0.00220487 0)
(-0.139047 -0.0044647 0)
(-0.129358 -0.00763443 0)
(-0.113335 -0.0104122 0)
(-0.0918932 -0.0135217 0)
(-0.0644587 -0.0153211 0)
(-0.0340739 -0.0136653 0)
(-0.00770598 -0.00363793 0)
(-0.000392222 -0.00571452 0)
(-0.00753527 0.00568216 0)
(-0.026701 0.020729 0)
(-0.0543547 0.0357084 0)
(-0.0775828 0.0370237 0)
(-0.0972872 0.0340741 0)
(-0.113301 0.0291683 0)
(-0.126003 0.023837 0)
(-0.135947 0.0178557 0)
(-0.143588 0.0121335 0)
(-0.147968 0.00671138 0)
(-0.149523 0.00130828 0)
(-0.147653 -0.00451498 0)
(-0.142598 -0.0110351 0)
(-0.133621 -0.0188801 0)
(-0.120059 -0.0280946 0)
(-0.101437 -0.0383852 0)
(-0.0776279 -0.0475479 0)
(-0.0483307 -0.0496662 0)
(-0.017488 -0.0317548 0)
(-0.00608366 0.00604661 0)
(-0.0246209 0.0284426 0)
(-0.0483133 0.0465622 0)
(-0.0699294 0.0551346 0)
(-0.0864771 0.0536204 0)
(-0.100246 0.0481339 0)
(-0.110977 0.0403 0)
(-0.119633 0.0316848 0)
(-0.125853 0.0236135 0)
(-0.129135 0.0158734 0)
(-0.130524 0.00805589 0)
(-0.129934 0.000150782 0)
(-0.127822 -0.00823543 0)
(-0.123206 -0.0174043 0)
(-0.116054 -0.0281241 0)
(-0.105638 -0.0407704 0)
(-0.0913413 -0.0555946 0)
(-0.0726069 -0.0715653 0)
(-0.0479944 -0.0828188 0)
(-0.0209297 -0.0713365 0)
(-0.00986735 0.0256227 0)
(-0.0316728 0.0502969 0)
(-0.0530641 0.065843 0)
(-0.0693711 0.070371 0)
(-0.081059 0.0663377 0)
(-0.0904819 0.058568 0)
(-0.097175 0.0485752 0)
(-0.101974 0.0381089 0)
(-0.104736 0.0277662 0)
(-0.106305 0.017789 0)
(-0.10652 0.0082539 0)
(-0.105547 -0.00124423 0)
(-0.103267 -0.0112173 0)
(-0.0993829 -0.0222778 0)
(-0.0938547 -0.035166 0)
(-0.0862231 -0.0505404 0)
(-0.0757308 -0.068724 0)
(-0.0613785 -0.0889572 0)
(-0.041193 -0.106661 0)
(-0.0191312 -0.104163 0)
(-0.010577 0.0453746 0)
(-0.0310297 0.0695977 0)
(-0.0485339 0.0814954 0)
(-0.0606778 0.0823271 0)
(-0.0692134 0.0756541 0)
(-0.0755119 0.0654726 0)
(-0.0794956 0.0534535 0)
(-0.0821243 0.0412254 0)
(-0.0834597 0.0294266 0)
(-0.0839073 0.0182806 0)
(-0.0833879 0.00762566 0)
(-0.0820304 -0.00292328 0)
(-0.0797812 -0.013887 0)
(-0.0765848 -0.0260195 0)
(-0.0723961 -0.0401974 0)
(-0.0670104 -0.057372 0)
(-0.059799 -0.0782942 0)
(-0.0492958 -0.102827 0)
(-0.0333611 -0.126643 0)
(-0.0170278 -0.131569 0)
(-0.00899083 0.0635298 0)
(-0.026607 0.0865007 0)
(-0.0396517 0.0941186 0)
(-0.0489961 0.0916234 0)
(-0.0551634 0.082262 0)
(-0.0593603 0.0698478 0)
(-0.0618111 0.0561747 0)
(-0.063304 0.0427274 0)
(-0.0638907 0.0300036 0)
(-0.0637984 0.0180598 0)
(-0.0630134 0.00663706 0)
(-0.0616188 -0.00465113 0)
(-0.0596096 -0.016314 0)
(-0.0570098 -0.0290893 0)
(-0.0538444 -0.0439317 0)
(-0.0500523 -0.0619887 0)
(-0.0453001 -0.0843761 0)
(-0.0382191 -0.111667 0)
(-0.0276968 -0.141709 0)
(-0.0118708 -0.153917 0)
(-0.00734534 0.0790487 0)
(-0.0203942 0.0996891 0)
(-0.0297185 0.103996 0)
(-0.0367291 0.0985677 0)
(-0.040975 0.0868948 0)
(-0.0437863 0.0727118 0)
(-0.0453697 0.0578351 0)
(-0.0462872 0.0435237 0)
(-0.0465817 0.0301242 0)
(-0.046399 0.0175839 0)
(-0.0457318 0.00560234 0)
(-0.0445959 -0.00623088 0)
(-0.0429801 -0.0184246 0)
(-0.0409439 -0.0316448 0)
(-0.0385874 -0.0468569 0)
(-0.0359671 -0.0653727 0)
(-0.0329707 -0.0886144 0)
(-0.0281996 -0.118045 0)
(-0.022223 -0.152161 0)
(-0.00970868 -0.172211 0)
(-0.00475383 0.0904673 0)
(-0.013732 0.109506 0)
(-0.0200127 0.111245 0)
(-0.0248416 0.103469 0)
(-0.0275524 0.0901112 0)
(-0.029393 0.0746705 0)
(-0.0304486 0.0589581 0)
(-0.031101 0.0440429 0)
(-0.0313743 0.0301756 0)
(-0.0313414 0.0172224 0)
(-0.0309698 0.00482959 0)
(-0.0302306 -0.00743259 0)
(-0.0291036 -0.0200431 0)
(-0.0276516 -0.0335741 0)
(-0.0260273 -0.0489109 0)
(-0.024401 -0.0674706 0)
(-0.0228969 -0.0910048 0)
(-0.0201168 -0.121835 0)
(-0.017798 -0.159158 0)
(-0.00654165 -0.186829 0)
(-0.00280206 0.0976586 0)
(-0.00732861 0.115455 0)
(-0.0110088 0.115648 0)
(-0.0136946 0.10656 0)
(-0.015127 0.0921612 0)
(-0.0161925 0.075963 0)
(-0.0168592 0.0597593 0)
(-0.0173631 0.0444888 0)
(-0.0176954 0.0303438 0)
(-0.0178646 0.0171281 0)
(-0.0178199 0.00444615 0)
(-0.0175162 -0.00814238 0)
(-0.0169351 -0.0210712 0)
(-0.0161389 -0.034816 0)
(-0.0152983 -0.0501282 0)
(-0.0146194 -0.0684506 0)
(-0.0145919 -0.0919395 0)
(-0.013321 -0.123741 0)
(-0.0143675 -0.163333 0)
(-0.00489176 -0.198633 0)
(0.000257624 0.100498 0)
(-0.0014559 0.11881 0)
(-0.00263995 0.117929 0)
(-0.00332433 0.108003 0)
(-0.00360654 0.0931702 0)
(-0.00392999 0.0766724 0)
(-0.00420591 0.0602971 0)
(-0.00454393 0.0449027 0)
(-0.00489608 0.0306478 0)
(-0.00522516 0.017303 0)
(-0.00547683 0.0044572 0)
(-0.0056145 -0.00832518 0)
(-0.00562923 -0.0214386 0)
(-0.00558205 -0.0352688 0)
(-0.00564753 -0.050417 0)
(-0.0059797 -0.0682671 0)
(-0.00764997 -0.091331 0)
(-0.00747396 -0.123691 0)
(-0.0117062 -0.164992 0)
(-0.00269387 -0.208007 0)
(0.00214217 0.0991317 0)
(0.00384073 0.118513 0)
(0.00528958 0.117456 0)
(0.00642856 0.10784 0)
(0.00726075 0.0930591 0)
(0.00773347 0.0767323 0)
(0.00793219 0.0605106 0)
(0.00784969 0.0452192 0)
(0.00756857 0.031022 0)
(0.00715057 0.0176965 0)
(0.0066419 0.00484287 0)
(0.00606004 -0.0079594 0)
(0.00539462 -0.0210757 0)
(0.00459326 -0.0348166 0)
(0.00348766 -0.0496444 0)
(0.00205423 -0.0668357 0)
(-0.00149062 -0.0892996 0)
(-0.00216581 -0.12172 0)
(-0.00975044 -0.164785 0)
(-0.00113368 -0.215395 0)
(0.00388725 0.0950751 0)
(0.00878813 0.116087 0)
(0.01241 0.115325 0)
(0.0154275 0.106568 0)
(0.0176163 0.0921133 0)
(0.0190333 0.0761966 0)
(0.0198691 0.0603472 0)
(0.0201898 0.0453522 0)
(0.0201004 0.0313856 0)
(0.0196777 0.0182543 0)
(0.018955 0.00558816 0)
(0.017932 -0.00701586 0)
(0.016572 -0.0199024 0)
(0.0148306 -0.0333379 0)
(0.0125693 -0.0476665 0)
(0.00978656 -0.0640301 0)
(0.00434885 -0.0856658 0)
(0.00307031 -0.117744 0)
(-0.00834522 -0.162666 0)
(0.00119737 -0.220872 0)
(0.00574241 0.0867464 0)
(0.013347 0.10997 0)
(0.0193753 0.110356 0)
(0.0238808 0.103089 0)
(0.0276274 0.0897296 0)
(0.030152 0.0746809 0)
(0.0318066 0.0595415 0)
(0.0327078 0.0451094 0)
(0.0329612 0.0316077 0)
(0.0326416 0.0188992 0)
(0.0317699 0.00666274 0)
(0.0303265 -0.00547911 0)
(0.0282412 -0.0178497 0)
(0.0254847 -0.0307122 0)
(0.0219026 -0.0443409 0)
(0.0176615 -0.0597743 0)
(0.0103241 -0.0802266 0)
(0.00829644 -0.111907 0)
(-0.00731786 -0.159135 0)
(0.00391163 -0.224674 0)
(0.00717458 0.075938 0)
(0.0170642 0.102779 0)
(0.0251854 0.104866 0)
(0.0315454 0.0985123 0)
(0.0370018 0.0864094 0)
(0.0409812 0.0723628 0)
(0.0437651 0.0580899 0)
(0.0454972 0.0444188 0)
(0.0462878 0.0316053 0)
(0.0462105 0.0195603 0)
(0.0452822 0.00802352 0)
(0.0434611 -0.00335902 0)
(0.0406453 -0.0148747 0)
(0.0368405 -0.0268389 0)
(0.0318018 -0.039524 0)
(0.0260594 -0.0538618 0)
(0.0167307 -0.0729225 0)
(0.0137578 -0.104326 0)
(-0.00611213 -0.154009 0)
(0.00800448 -0.226938 0)
(0.00834527 0.0619517 0)
(0.0202805 0.0911528 0)
(0.030156 0.0956325 0)
(0.0384531 0.0909484 0)
(0.045724 0.0806773 0)
(0.0514385 0.0682166 0)
(0.0556544 0.0553086 0)
(0.0584822 0.0428244 0)
(0.0600316 0.0310763 0)
(0.0603732 0.0200478 0)
(0.0595161 0.00955308 0)
(0.0574145 -0.000737025 0)
(0.0539072 -0.0110046 0)
(0.0491072 -0.0216878 0)
(0.0425415 -0.0331173 0)
(0.0353084 -0.046224 0)
(0.0237906 -0.0639095 0)
(0.0198899 -0.0953865 0)
(-0.00432532 -0.148567 0)
(0.0130384 -0.227993 0)
(0.00777827 0.0473452 0)
(0.0209549 0.0805899 0)
(0.0325897 0.0867542 0)
(0.0431359 0.0829529 0)
(0.0527468 0.0740311 0)
(0.0607151 0.0630585 0)
(0.0668543 0.0516146 0)
(0.0711932 0.0405126 0)
(0.0738268 0.0300859 0)
(0.0748515 0.0203652 0)
(0.074225 0.0112267 0)
(0.0720569 0.00238191 0)
(0.068016 -0.00630664 0)
(0.062444 -0.0153733 0)
(0.0544196 -0.0251921 0)
(0.045941 -0.0368662 0)
(0.0320733 -0.0530408 0)
(0.0275529 -0.0848264 0)
(-0.00172551 -0.140987 0)
(0.01983 -0.227439 0)
(0.00559794 0.0325658 0)
(0.019648 0.0637335 0)
(0.033194 0.0717444 0)
(0.0462096 0.0698415 0)
(0.058321 0.0631129 0)
(0.0687608 0.0543985 0)
(0.0770761 0.0451327 0)
(0.0831772 0.0360788 0)
(0.0871158 0.0276021 0)
(0.0890664 0.0197564 0)
(0.0889249 0.012478 0)
(0.0870485 0.00550865 0)
(0.0827987 -0.00130526 0)
(0.0771099 -0.00844917 0)
(0.0681828 -0.0161341 0)
(0.05922 -0.0260019 0)
(0.043333 -0.0401537 0)
(0.0386318 -0.0723977 0)
(0.00314295 -0.131563 0)
(0.0290396 -0.221363 0)
(-0.00459391 0.0243085 0)
(0.0103356 0.0538709 0)
(0.0268886 0.0597237 0)
(0.0436229 0.0579774 0)
(0.059283 0.0525125 0)
(0.0728518 0.0456137 0)
(0.0839137 0.0384536 0)
(0.0923774 0.0315231 0)
(0.0982899 0.0250353 0)
(0.101948 0.0191357 0)
(0.10317 0.0137916 0)
(0.102631 0.00882968 0)
(0.099373 0.00418021 0)
(0.0952732 -0.000661895 0)
(0.0871627 -0.00597034 0)
(0.079678 -0.0135949 0)
(0.0629409 -0.0259492 0)
(0.0583719 -0.0574159 0)
(0.0159456 -0.116684 0)
(0.0446102 -0.200211 0)
(-0.0143165 0.0312419 0)
(-0.00454225 0.0266142 0)
(0.0188318 0.0300293 0)
(0.0410845 0.031037 0)
(0.0612378 0.0293361 0)
(0.0788031 0.026031 0)
(0.0936192 0.0222526 0)
(0.105552 0.0186366 0)
(0.114747 0.0152889 0)
(0.121423 0.0122161 0)
(0.125734 0.00946717 0)
(0.128151 0.00678529 0)
(0.128257 0.00446835 0)
(0.127035 0.00134411 0)
(0.122191 -0.0014011 0)
(0.117757 -0.00738266 0)
(0.1041 -0.0167897 0)
(0.100078 -0.0437366 0)
(0.0553685 -0.0905649 0)
(0.0764049 -0.152921 0)
(0.0407999 0.0386856 0)
(0.0467976 0.0279308 0)
(0.0703061 0.0239741 0)
(0.0976547 0.023026 0)
(0.121789 0.0220194 0)
(0.14343 0.0203703 0)
(0.163393 0.018227 0)
(0.180528 0.01636 0)
(0.195594 0.0143592 0)
(0.207831 0.0129355 0)
(0.218309 0.0111849 0)
(0.226292 0.0101726 0)
(0.23282 0.00845979 0)
(0.236966 0.007667 0)
(0.239737 0.00552188 0)
(0.238516 0.0033394 0)
(0.231539 0.00232698 0)
(0.217722 -0.00866761 0)
(0.168451 -0.0131402 0)
(0.145087 -0.0665086 0)
)
;

boundaryField
{
    movingWall
    {
        type            fixedValue;
        value           uniform (1 0 0);
    }
    fixedWalls
    {
        type            noSlip;
    }
    frontAndBack
    {
        type            empty;
    }
}


// ************************************************************************* //
