/*--------------------------------*- C++ -*----------------------------------*\
  =========                 |
  \\      /  F ield         | OpenFOAM: The Open Source CFD Toolbox
   \\    /   O peration     | Website:  https://openfoam.org
    \\  /    A nd           | Version:  13
     \\/     M anipulation  |
\*---------------------------------------------------------------------------*/
FoamFile
{
    format      ascii;
    class       volVectorField;
    location    "5.5";
    object      U;
}
// * * * * * * * * * * * * * * * * * * * * * * * * * * * * * * * * * * * * * //

dimensions      [0 1 -1 0 0 0 0];

internalField   nonuniform List<vector> 
1600
(
(0.0010946 -0.000963745 0)
(0.00575378 -0.00153978 0)
(0.0103426 -0.00132861 0)
(0.013248 -0.000331249 0)
(0.0137569 0.000245873 0)
(0.0133244 0.000106409 0)
(0.0126581 -0.000520962 0)
(0.0124339 -0.0010326 0)
(0.0120455 -0.00110729 0)
(0.0109616 -0.00092012 0)
(0.00856151 -0.000955674 0)
(0.00305276 -0.000687218 0)
(-0.00698653 0.000881125 0)
(-0.0182663 0.00606084 0)
(-0.0388621 0.0121558 0)
(-0.0641005 0.013362 0)
(-0.0855539 0.0123273 0)
(-0.105029 0.0109222 0)
(-0.120923 0.009243 0)
(-0.134273 0.00764058 0)
(-0.144564 0.00604129 0)
(-0.152323 0.00451549 0)
(-0.157108 0.00302051 0)
(-0.159206 0.00161505 0)
(-0.159031 -0.000488452 0)
(-0.155016 -0.00214992 0)
(-0.148343 -0.00433154 0)
(-0.137504 -0.00622232 0)
(-0.123337 -0.00842061 0)
(-0.10536 -0.0106295 0)
(-0.0842276 -0.0128821 0)
(-0.0601637 -0.0143803 0)
(-0.0345855 -0.0146786 0)
(-0.00834181 -0.0132823 0)
(0.0128523 -0.0111785 0)
(0.0286221 -0.00397681 0)
(0.0298891 0.00338004 0)
(0.0235602 0.00522767 0)
(0.0111737 0.004143 0)
(0.00231828 0.00285925 0)
(0.00202788 -0.00567516 0)
(0.00996929 -0.00868004 0)
(0.0153187 -0.00657588 0)
(0.0183944 -0.00278836 0)
(0.0188354 0.000167957 0)
(0.0170291 0.0014036 0)
(0.0136824 0.0013988 0)
(0.0090415 0.00154698 0)
(0.0020191 0.00279579 0)
(-0.00911039 0.00533455 0)
(-0.0249906 0.0100716 0)
(-0.049482 0.0181909 0)
(-0.0789096 0.0263931 0)
(-0.105704 0.0325649 0)
(-0.127908 0.0337288 0)
(-0.146789 0.0315387 0)
(-0.162508 0.0280989 0)
(-0.175761 0.0239973 0)
(-0.186291 0.0198411 0)
(-0.194656 0.0157281 0)
(-0.200603 0.0117364 0)
(-0.20448 0.00780621 0)
(-0.206102 0.00387437 0)
(-0.20562 -0.000191099 0)
(-0.202845 -0.00463353 0)
(-0.197677 -0.00930434 0)
(-0.189886 -0.0143144 0)
(-0.179179 -0.0196403 0)
(-0.165286 -0.0252804 0)
(-0.147539 -0.030796 0)
(-0.126451 -0.0359134 0)
(-0.102691 -0.0400592 0)
(-0.0762578 -0.041211 0)
(-0.0487473 -0.0383166 0)
(-0.0221388 -0.0301495 0)
(0.000882215 -0.014202 0)
(0.0164905 0.00362979 0)
(0.0164209 0.0111473 0)
(0.0097181 0.0135913 0)
(0.00151318 0.0102099 0)
(0.0032332 -0.0130598 0)
(0.0109772 -0.0156072 0)
(0.0140941 -0.0106032 0)
(0.0149185 -0.00355068 0)
(0.0129732 0.00181144 0)
(0.00847456 0.00488057 0)
(0.00058835 0.00706177 0)
(-0.0116538 0.0110343 0)
(-0.0298405 0.0186507 0)
(-0.0549038 0.0293329 0)
(-0.0835382 0.0402556 0)
(-0.110268 0.0473198 0)
(-0.133668 0.0507321 0)
(-0.15221 0.051066 0)
(-0.167363 0.0485184 0)
(-0.179584 0.0442223 0)
(-0.189468 0.038885 0)
(-0.197449 0.0331027 0)
(-0.203734 0.0272289 0)
(-0.20856 0.0214401 0)
(-0.212063 0.0154443 0)
(-0.214118 0.00979972 0)
(-0.214686 0.0040437 0)
(-0.213706 -0.00177193 0)
(-0.211084 -0.00793303 0)
(-0.206867 -0.0144907 0)
(-0.200886 -0.0217943 0)
(-0.192907 -0.0298525 0)
(-0.182763 -0.0388151 0)
(-0.17011 -0.048084 0)
(-0.154463 -0.0571035 0)
(-0.135305 -0.0643818 0)
(-0.112828 -0.0678395 0)
(-0.0877626 -0.0659902 0)
(-0.0607403 -0.0558132 0)
(-0.0328718 -0.0354286 0)
(-0.00620849 -0.00590446 0)
(0.00175827 0.011447 0)
(0.00196192 0.0177795 0)
(-0.000145179 0.0137724 0)
(0.00384731 -0.021133 0)
(0.00804735 -0.0197896 0)
(0.00826007 -0.0110374 0)
(0.00542669 -0.00103038 0)
(-0.000244788 0.00695777 0)
(-0.00984773 0.0138612 0)
(-0.0247547 0.0217243 0)
(-0.0454885 0.0322641 0)
(-0.0708901 0.0448664 0)
(-0.0985125 0.0566235 0)
(-0.123837 0.0647021 0)
(-0.143815 0.0679975 0)
(-0.159621 0.0677759 0)
(-0.171501 0.0646806 0)
(-0.181078 0.0596692 0)
(-0.18847 0.0535257 0)
(-0.194421 0.0467202 0)
(-0.19937 0.0393466 0)
(-0.203539 0.0319182 0)
(-0.206745 0.024566 0)
(-0.208874 0.0176264 0)
(-0.209933 0.0105774 0)
(-0.20996 0.00352971 0)
(-0.208989 -0.00372168 0)
(-0.206981 -0.0112363 0)
(-0.20382 -0.0192437 0)
(-0.199428 -0.0278965 0)
(-0.193663 -0.0373258 0)
(-0.186357 -0.0475786 0)
(-0.177419 -0.0589745 0)
(-0.166741 -0.0710062 0)
(-0.154007 -0.0827786 0)
(-0.138604 -0.0917802 0)
(-0.118498 -0.0940233 0)
(-0.0933777 -0.0856607 0)
(-0.0640259 -0.06424 0)
(-0.028634 -0.0267028 0)
(-0.00697471 0.00421185 0)
(-0.00199896 0.015814 0)
(-0.000171909 0.0134224 0)
(0.00246056 -0.0253436 0)
(0.00289126 -0.0199026 0)
(-0.00105287 -0.00702933 0)
(-0.00784247 0.00574091 0)
(-0.0182087 0.0175796 0)
(-0.0332333 0.0295124 0)
(-0.0535469 0.0428681 0)
(-0.0779448 0.0573936 0)
(-0.103519 0.0706365 0)
(-0.126726 0.0796991 0)
(-0.144453 0.0831686 0)
(-0.157871 0.0826293 0)
(-0.168113 0.0792244 0)
(-0.175655 0.0736781 0)
(-0.181595 0.0668364 0)
(-0.18632 0.0589423 0)
(-0.190302 0.0507051 0)
(-0.193248 0.0425359 0)
(-0.195107 0.0344747 0)
(-0.196064 0.0264963 0)
(-0.196465 0.0186694 0)
(-0.196301 0.0108673 0)
(-0.195678 0.00305975 0)
(-0.194558 -0.00495486 0)
(-0.192857 -0.0133146 0)
(-0.190517 -0.0222548 0)
(-0.187548 -0.0319661 0)
(-0.183867 -0.0426185 0)
(-0.179383 -0.0542781 0)
(-0.173929 -0.066843 0)
(-0.167244 -0.0800036 0)
(-0.158904 -0.0930423 0)
(-0.148725 -0.105557 0)
(-0.135641 -0.11425 0)
(-0.117031 -0.113647 0)
(-0.0903502 -0.0975253 0)
(-0.0557237 -0.0628967 0)
(-0.0166167 -0.0134567 0)
(-0.00199008 0.0105505 0)
(0.000765576 0.01267 0)
(-0.000145563 -0.026139 0)
(-0.00417781 -0.015194 0)
(-0.0119416 0.00074751 0)
(-0.0226519 0.0169556 0)
(-0.0372676 0.0330568 0)
(-0.0561864 0.0495531 0)
(-0.0786381 0.0662582 0)
(-0.102222 0.0813152 0)
(-0.123675 0.092053 0)
(-0.139995 0.0964644 0)
(-0.151715 0.0959209 0)
(-0.160609 0.0923371 0)
(-0.166995 0.08643 0)
(-0.171647 0.079026 0)
(-0.175098 0.0706668 0)
(-0.177118 0.061942 0)
(-0.17832 0.0530163 0)
(-0.17872 0.0441068 0)
(-0.178791 0.0353503 0)
(-0.178665 0.0268403 0)
(-0.178173 0.0185664 0)
(-0.177422 0.0103962 0)
(-0.17639 0.00223628 0)
(-0.175077 -0.00609098 0)
(-0.173467 -0.0147558 0)
(-0.171589 -0.0239918 0)
(-0.169477 -0.0340118 0)
(-0.167141 -0.0450447 0)
(-0.164571 -0.0572744 0)
(-0.161707 -0.0707772 0)
(-0.158379 -0.0853636 0)
(-0.154214 -0.100425 0)
(-0.148528 -0.114687 0)
(-0.140197 -0.126342 0)
(-0.127816 -0.132952 0)
(-0.108517 -0.127301 0)
(-0.0795087 -0.101989 0)
(-0.0373676 -0.0508161 0)
(-0.0047361 -0.00197642 0)
(0.00157732 0.0120527 0)
(-0.00314671 -0.0213375 0)
(-0.0113257 -0.00665906 0)
(-0.0224445 0.0122336 0)
(-0.0365736 0.0318201 0)
(-0.0542384 0.0516532 0)
(-0.074711 0.070959 0)
(-0.0963537 0.0883222 0)
(-0.116505 0.101355 0)
(-0.132036 0.107706 0)
(-0.142676 0.107874 0)
(-0.150371 0.104416 0)
(-0.155738 0.0984016 0)
(-0.15916 0.0906283 0)
(-0.161182 0.08183 0)
(-0.162051 0.0724249 0)
(-0.162222 0.0628126 0)
(-0.161937 0.0532557 0)
(-0.161356 0.0439381 0)
(-0.160636 0.0349293 0)
(-0.159758 0.0262087 0)
(-0.158725 0.0177234 0)
(-0.157567 0.00936374 0)
(-0.156271 0.00101479 0)
(-0.154845 -0.00747345 0)
(-0.153299 -0.0162723 0)
(-0.151674 -0.0255828 0)
(-0.150021 -0.0356103 0)
(-0.148399 -0.0465741 0)
(-0.146857 -0.0586855 0)
(-0.145411 -0.0721148 0)
(-0.144006 -0.0869094 0)
(-0.142426 -0.102836 0)
(-0.140098 -0.119146 0)
(-0.135914 -0.134129 0)
(-0.128195 -0.144981 0)
(-0.114973 -0.147745 0)
(-0.0939342 -0.134872 0)
(-0.0613006 -0.0961457 0)
(-0.0141313 -0.0233676 0)
(0.00259991 0.0109177 0)
(-0.00581122 -0.0127233 0)
(-0.0172582 0.00564174 0)
(-0.0310299 0.0267704 0)
(-0.0478125 0.0491797 0)
(-0.0667943 0.0712651 0)
(-0.086809 0.0912791 0)
(-0.105979 0.107193 0)
(-0.121393 0.116463 0)
(-0.131619 0.118278 0)
(-0.138549 0.1154 0)
(-0.143199 0.109567 0)
(-0.145881 0.101625 0)
(-0.147084 0.0923878 0)
(-0.14728 0.0824798 0)
(-0.146783 0.0723166 0)
(-0.145943 0.0622394 0)
(-0.144904 0.0524233 0)
(-0.143784 0.0429714 0)
(-0.142618 0.0338766 0)
(-0.141408 0.0250873 0)
(-0.140158 0.0165266 0)
(-0.138859 0.00808678 0)
(-0.137505 -0.000345172 0)
(-0.136087 -0.0089063 0)
(-0.134623 -0.0177544 0)
(-0.133152 -0.0270649 0)
(-0.131737 -0.0370291 0)
(-0.130463 -0.0478565 0)
(-0.129419 -0.0597648 0)
(-0.128679 -0.0729541 0)
(-0.128256 -0.0875503 0)
(-0.128029 -0.103505 0)
(-0.127602 -0.120425 0)
(-0.126049 -0.137319 0)
(-0.121841 -0.152068 0)
(-0.11312 -0.160805 0)
(-0.0980996 -0.157527 0)
(-0.0736142 -0.132879 0)
(-0.0321439 -0.065825 0)
(0.000629091 0.000447738 0)
(-0.00745032 -0.000594865 0)
(-0.0215564 0.0208145 0)
(-0.0371752 0.0434356 0)
(-0.0551842 0.0673906 0)
(-0.0740897 0.0901289 0)
(-0.0925407 0.109304 0)
(-0.108385 0.122295 0)
(-0.118898 0.126861 0)
(-0.125732 0.12531 0)
(-0.130043 0.119998 0)
(-0.132459 0.112204 0)
(-0.133296 0.102749 0)
(-0.133116 0.0924448 0)
(-0.132291 0.0818352 0)
(-0.131113 0.0712817 0)
(-0.129806 0.0610211 0)
(-0.128461 0.0511466 0)
(-0.127148 0.0416913 0)
(-0.125873 0.0326047 0)
(-0.124635 0.0238186 0)
(-0.12341 0.0152477 0)
(-0.122171 0.00677916 0)
(-0.12089 -0.00169555 0)
(-0.119554 -0.0102954 0)
(-0.118172 -0.0191584 0)
(-0.116775 -0.0284286 0)
(-0.115429 -0.0382706 0)
(-0.114228 -0.0488739 0)
(-0.113289 -0.0604569 0)
(-0.112732 -0.0732594 0)
(-0.112636 -0.0875061 0)
(-0.112978 -0.10332 0)
(-0.113515 -0.120578 0)
(-0.113573 -0.138683 0)
(-0.111763 -0.156114 0)
(-0.106229 -0.169651 0)
(-0.0956578 -0.173309 0)
(-0.0774704 -0.160073 0)
(-0.0484738 -0.11165 0)
(-0.0064063 -0.0144964 0)
(-0.00842963 0.0137484 0)
(-0.0240837 0.0375816 0)
(-0.0404589 0.0609319 0)
(-0.0586648 0.0852889 0)
(-0.0766361 0.107642 0)
(-0.0930389 0.124769 0)
(-0.104505 0.133162 0)
(-0.111988 0.134086 0)
(-0.116464 0.129836 0)
(-0.118948 0.122507 0)
(-0.119851 0.113133 0)
(-0.119592 0.102571 0)
(-0.118682 0.091577 0)
(-0.117397 0.0805886 0)
(-0.115976 0.0698839 0)
(-0.11456 0.059605 0)
(-0.113215 0.0497828 0)
(-0.111973 0.0403983 0)
(-0.110827 0.0313774 0)
(-0.109745 0.0226327 0)
(-0.108689 0.0140674 0)
(-0.107616 0.00557467 0)
(-0.106488 -0.00295303 0)
(-0.105286 -0.0116179 0)
(-0.104007 -0.0205301 0)
(-0.102672 -0.0298068 0)
(-0.101336 -0.0395779 0)
(-0.100086 -0.0499994 0)
(-0.0990414 -0.0612652 0)
(-0.0983439 -0.0736162 0)
(-0.0981208 -0.0873315 0)
(-0.0984291 -0.102679 0)
(-0.0991669 -0.119798 0)
(-0.0999181 -0.13852 0)
(-0.0995817 -0.157974 0)
(-0.0961734 -0.175555 0)
(-0.0886852 -0.184781 0)
(-0.0747093 -0.180407 0)
(-0.0525714 -0.145839 0)
(-0.0154119 -0.0406358 0)
(-0.0088516 0.0291696 0)
(-0.0249823 0.0550129 0)
(-0.041184 0.0783614 0)
(-0.0587735 0.102338 0)
(-0.0753988 0.123327 0)
(-0.0887028 0.136819 0)
(-0.0968357 0.141134 0)
(-0.102479 0.139131 0)
(-0.105264 0.132635 0)
(-0.10657 0.123642 0)
(-0.106564 0.113047 0)
(-0.105769 0.10173 0)
(-0.104568 0.0903247 0)
(-0.103186 0.079167 0)
(-0.101804 0.0684558 0)
(-0.100516 0.0582577 0)
(-0.0993623 0.048555 0)
(-0.0983451 0.0392856 0)
(-0.0974333 0.0303527 0)
(-0.0965837 0.0216538 0)
(-0.0957463 0.0130874 0)
(-0.0948736 0.00455249 0)
(-0.0939286 -0.00405047 0)
(-0.0928849 -0.0128093 0)
(-0.0917319 -0.0218117 0)
(-0.0904809 -0.0311498 0)
(-0.0891686 -0.0409219 0)
(-0.0878644 -0.0512492 0)
(-0.0866745 -0.0622927 0)
(-0.0857381 -0.0742767 0)
(-0.0852061 -0.0875027 0)
(-0.0851926 -0.102332 0)
(-0.0857011 -0.119101 0)
(-0.0865145 -0.137943 0)
(-0.0868935 -0.158557 0)
(-0.0850135 -0.179389 0)
(-0.0792299 -0.193789 0)
(-0.0684308 -0.196311 0)
(-0.049091 -0.174313 0)
(-0.0186169 -0.0888404 0)
(-0.00864771 0.0445732 0)
(-0.0244092 0.072171 0)
(-0.0397931 0.0949823 0)
(-0.0561515 0.117894 0)
(-0.0711171 0.136847 0)
(-0.0809935 0.145976 0)
(-0.0874078 0.147277 0)
(-0.0915023 0.14265 0)
(-0.0932026 0.134308 0)
(-0.0937992 0.123964 0)
(-0.0933385 0.112467 0)
(-0.0923718 0.10065 0)
(-0.0911654 0.0890196 0)
(-0.0899067 0.0778277 0)
(-0.0887311 0.0671993 0)
(-0.0876964 0.0571381 0)
(-0.0868161 0.0475818 0)
(-0.0860676 0.0384335 0)
(-0.0854087 0.0295799 0)
(-0.084791 0.0209107 0)
(-0.0841642 0.0123246 0)
(-0.0834838 0.00372755 0)
(-0.0827165 -0.00497077 0)
(-0.0818345 -0.0138465 0)
(-0.0808235 -0.0229711 0)
(-0.0796844 -0.0324166 0)
(-0.0784371 -0.0422554 0)
(-0.0771279 -0.0525754 0)
(-0.0758368 -0.0634994 0)
(-0.0746832 -0.0752174 0)
(-0.0738184 -0.088023 0)
(-0.0733918 -0.102333 0)
(-0.0734832 -0.118639 0)
(-0.0740052 -0.137336 0)
(-0.0745371 -0.158496 0)
(-0.0736813 -0.181421 0)
(-0.0689429 -0.201405 0)
(-0.0607885 -0.20866 0)
(-0.0440745 -0.196105 0)
(-0.0157075 -0.121852 0)
(-0.00796835 0.0593434 0)
(-0.0226936 0.0884584 0)
(-0.0368262 0.110403 0)
(-0.051801 0.131939 0)
(-0.0642881 0.147687 0)
(-0.0716912 0.153271 0)
(-0.0770517 0.151955 0)
(-0.0798914 0.145144 0)
(-0.0809802 0.135289 0)
(-0.0811879 0.123878 0)
(-0.0805807 0.111726 0)
(-0.0796648 0.099589 0)
(-0.0786173 0.0878586 0)
(-0.0775992 0.0767148 0)
(-0.0767026 0.0662137 0)
(-0.0759559 0.0563049 0)
(-0.0753506 0.0468876 0)
(-0.0748518 0.0378408 0)
(-0.0744145 0.029042 0)
(-0.0739935 0.0203795 0)
(-0.0735444 0.0117553 0)
(-0.0730301 0.0030824 0)
(-0.0724223 -0.00572134 0)
(-0.0716964 -0.014724 0)
(-0.0708364 -0.0239867 0)
(-0.0698359 -0.0335676 0)
(-0.0687006 -0.0435212 0)
(-0.067455 -0.0539093 0)
(-0.0661506 -0.06482 0)
(-0.0648766 -0.0764018 0)
(-0.0637649 -0.0889151 0)
(-0.0629756 -0.102786 0)
(-0.0626442 -0.118614 0)
(-0.0627836 -0.137036 0)
(-0.0631514 -0.15842 0)
(-0.062769 -0.182519 0)
(-0.0591718 -0.207323 0)
(-0.0522567 -0.219772 0)
(-0.0385525 -0.215734 0)
(-0.0138884 -0.154102 0)
(-0.00693204 0.0727734 0)
(-0.0202366 0.103367 0)
(-0.0328111 0.124259 0)
(-0.0461588 0.144073 0)
(-0.0559907 0.156257 0)
(-0.0617684 0.159198 0)
(-0.0662754 0.155567 0)
(-0.0682303 0.146965 0)
(-0.069008 0.135885 0)
(-0.0690415 0.123643 0)
(-0.0684777 0.111026 0)
(-0.0677291 0.0986923 0)
(-0.0669198 0.0869395 0)
(-0.0661809 0.0758837 0)
(-0.0655677 0.0655182 0)
(-0.0650872 0.0557475 0)
(-0.0647178 0.0464421 0)
(-0.0644221 0.0374663 0)
(-0.0641593 0.0286952 0)
(-0.0638917 0.0200191 0)
(-0.0635844 0.011345 0)
(-0.0632084 0.00259127 0)
(-0.0627416 -0.00631726 0)
(-0.0621641 -0.0154442 0)
(-0.0614595 -0.0248452 0)
(-0.0606169 -0.0345703 0)
(-0.0596313 -0.0446628 0)
(-0.0585093 -0.0551664 0)
(-0.0572773 -0.0661407 0)
(-0.0559932 -0.0776943 0)
(-0.0547594 -0.090042 0)
(-0.053725 -0.103584 0)
(-0.0530551 -0.118969 0)
(-0.0528417 -0.137029 0)
(-0.0529588 -0.158459 0)
(-0.052781 -0.183472 0)
(-0.0503928 -0.210727 0)
(-0.0440786 -0.229418 0)
(-0.0334989 -0.230705 0)
(-0.0114213 -0.178657 0)
(-0.00577175 0.0845946 0)
(-0.0172832 0.116551 0)
(-0.0281083 0.136258 0)
(-0.0395611 0.154092 0)
(-0.0470373 0.163144 0)
(-0.0519931 0.164075 0)
(-0.0554729 0.158393 0)
(-0.0568812 0.148352 0)
(-0.057502 0.136296 0)
(-0.0574978 0.123418 0)
(-0.0570743 0.110474 0)
(-0.0565402 0.0980237 0)
(-0.0559881 0.0862898 0)
(-0.0555159 0.0753298 0)
(-0.0551517 0.0650836 0)
(-0.0548894 0.0554211 0)
(-0.0547033 0.0461936 0)
(-0.0545598 0.0372589 0)
(-0.0544263 0.028493 0)
(-0.0542744 0.0197904 0)
(-0.0540789 0.0110624 0)
(-0.0538192 0.00223171 0)
(-0.053479 -0.00677228 0)
(-0.0530432 -0.0160113 0)
(-0.0524966 -0.0255394 0)
(-0.0518258 -0.0354034 0)
(-0.0510185 -0.045641 0)
(-0.0500682 -0.0562846 0)
(-0.0489812 -0.0673727 0)
(-0.0477889 -0.0789791 0)
(-0.0465631 -0.0912694 0)
(-0.0454292 -0.104595 0)
(-0.0445572 -0.119601 0)
(-0.044094 -0.137255 0)
(-0.0440126 -0.158568 0)
(-0.0439278 -0.184129 0)
(-0.0423164 -0.213411 0)
(-0.0367642 -0.238133 0)
(-0.0292251 -0.244373 0)
(-0.00997872 -0.201501 0)
(-0.00437902 0.0942094 0)
(-0.0140189 0.127723 0)
(-0.0230722 0.146396 0)
(-0.0325078 0.162133 0)
(-0.0381082 0.168728 0)
(-0.0423365 0.167937 0)
(-0.0449238 0.160624 0)
(-0.0460079 0.149457 0)
(-0.0465482 0.136639 0)
(-0.0465837 0.123284 0)
(-0.0463344 0.110111 0)
(-0.046018 0.0975934 0)
(-0.0457037 0.0858926 0)
(-0.0454584 0.0750155 0)
(-0.0452927 0.0648598 0)
(-0.0451948 0.0552713 0)
(-0.045141 0.0460901 0)
(-0.0451055 0.0371725 0)
(-0.0450648 0.028397 0)
(-0.0449998 0.0196626 0)
(-0.0448942 0.0108842 0)
(-0.044735 0.00198733 0)
(-0.0445114 -0.00709627 0)
(-0.0442123 -0.0164282 0)
(-0.0438252 -0.0260638 0)
(-0.0433356 -0.0360504 0)
(-0.0427272 -0.0464247 0)
(-0.0419842 -0.0572134 0)
(-0.0410981 -0.0684406 0)
(-0.0400793 -0.0801514 0)
(-0.0389734 -0.0924653 0)
(-0.0378807 -0.105674 0)
(-0.0369635 -0.120383 0)
(-0.0364068 -0.137626 0)
(-0.0362739 -0.158699 0)
(-0.0362836 -0.184525 0)
(-0.0353102 -0.214905 0)
(-0.031226 -0.24451 0)
(-0.0246484 -0.255576 0)
(-0.00842511 -0.219565 0)
(-0.0031066 0.101878 0)
(-0.0106414 0.136914 0)
(-0.0179612 0.154707 0)
(-0.0253529 0.168383 0)
(-0.0294109 0.173119 0)
(-0.0329052 0.170948 0)
(-0.034781 0.16239 0)
(-0.0356543 0.150371 0)
(-0.0361491 0.136977 0)
(-0.0362582 0.123271 0)
(-0.0361791 0.109939 0)
(-0.0360574 0.0973794 0)
(-0.0359418 0.0857082 0)
(-0.0358738 0.0748902 0)
(-0.0358544 0.0647931 0)
(-0.0358717 0.0552472 0)
(-0.0359079 0.0460874 0)
(-0.0359456 0.0371705 0)
(-0.0359706 0.0283785 0)
(-0.0359721 0.0196139 0)
(-0.0359416 0.0107945 0)
(-0.0358723 0.00184695 0)
(-0.0357583 -0.00729593 0)
(-0.0355926 -0.0166971 0)
(-0.0353657 -0.0264148 0)
(-0.0350638 -0.0364997 0)
(-0.0346689 -0.0469913 0)
(-0.0341596 -0.0579151 0)
(-0.0335171 -0.0692861 0)
(-0.0327352 -0.0811266 0)
(-0.0318372 -0.093514 0)
(-0.030898 -0.106677 0)
(-0.0300628 -0.121161 0)
(-0.0295351 -0.138013 0)
(-0.0294562 -0.15875 0)
(-0.0296222 -0.184692 0)
(-0.0291505 -0.216096 0)
(-0.0262434 -0.24959 0)
(-0.02157 -0.265491 0)
(-0.00735581 -0.236311 0)
(-0.00157618 0.107 0)
(-0.00721713 0.14394 0)
(-0.0127935 0.161098 0)
(-0.0182603 0.173024 0)
(-0.0210867 0.176477 0)
(-0.0237946 0.173226 0)
(-0.0250935 0.163776 0)
(-0.0257987 0.151145 0)
(-0.0262573 0.137332 0)
(-0.0264433 0.123378 0)
(-0.02651 0.109934 0)
(-0.0265474 0.0973439 0)
(-0.0265851 0.0856887 0)
(-0.0266457 0.0749031 0)
(-0.0267264 0.0648353 0)
(-0.0268184 0.0553068 0)
(-0.0269112 0.0461509 0)
(-0.0269964 0.0372262 0)
(-0.0270679 0.0284174 0)
(-0.0271221 0.0196298 0)
(-0.0271569 0.0107825 0)
(-0.0271707 0.00180328 0)
(-0.0271619 -0.0073757 0)
(-0.0271274 -0.0168194 0)
(-0.0270608 -0.0265899 0)
(-0.0269506 -0.0367433 0)
(-0.0267791 -0.0473242 0)
(-0.026523 -0.058361 0)
(-0.0261567 -0.0698647 0)
(-0.0256623 -0.0818404 0)
(-0.0250458 -0.094329 0)
(-0.0243596 -0.107499 0)
(-0.0237285 -0.121817 0)
(-0.0233555 -0.138296 0)
(-0.0234296 -0.158605 0)
(-0.0238386 -0.184479 0)
(-0.023958 -0.216734 0)
(-0.0221884 -0.252742 0)
(-0.0186148 -0.273434 0)
(-0.00628218 -0.250039 0)
(-0.000468107 0.110349 0)
(-0.00385829 0.148963 0)
(-0.00768822 0.165651 0)
(-0.0113502 0.176232 0)
(-0.0131527 0.178889 0)
(-0.0150196 0.174832 0)
(-0.0158389 0.164818 0)
(-0.0163833 0.151794 0)
(-0.0167988 0.137703 0)
(-0.0170452 0.123585 0)
(-0.0172239 0.110063 0)
(-0.017381 0.0974444 0)
(-0.0175282 0.0857882 0)
(-0.0176746 0.0750099 0)
(-0.0178174 0.064947 0)
(-0.0179526 0.0554175 0)
(-0.0180774 0.046255 0)
(-0.0181915 0.0373202 0)
(-0.018296 0.0284997 0)
(-0.0183936 0.0197003 0)
(-0.0184873 0.0108419 0)
(-0.0185801 0.00185189 0)
(-0.018674 -0.00733834 0)
(-0.0187694 -0.0167961 0)
(-0.0188631 -0.0265881 0)
(-0.0189468 -0.0367761 0)
(-0.0190051 -0.047412 0)
(-0.019015 -0.0585298 0)
(-0.0189482 -0.0701407 0)
(-0.0187793 -0.0822385 0)
(-0.0185003 -0.0948331 0)
(-0.0181443 -0.108037 0)
(-0.0178153 -0.122234 0)
(-0.0177045 -0.138371 0)
(-0.0180281 -0.158198 0)
(-0.0187662 -0.183869 0)
(-0.0194908 -0.216757 0)
(-0.0187437 -0.255052 0)
(-0.0165354 -0.280317 0)
(-0.00549688 -0.262826 0)
(0.00119459 0.110934 0)
(-0.000525915 0.151935 0)
(-0.00264232 0.168448 0)
(-0.00468053 0.17816 0)
(-0.00553928 0.180345 0)
(-0.00657022 0.175824 0)
(-0.00695835 0.165541 0)
(-0.00732956 0.152318 0)
(-0.00768447 0.138075 0)
(-0.00796427 0.123861 0)
(-0.00821872 0.110287 0)
(-0.00845769 0.0976399 0)
(-0.00867631 0.0859658 0)
(-0.00887396 0.0751734 0)
(-0.00904917 0.0650971 0)
(-0.00920392 0.0555546 0)
(-0.0093426 0.0463811 0)
(-0.00947202 0.0374389 0)
(-0.00960004 0.0286159 0)
(-0.00973461 0.0198191 0)
(-0.00988327 0.0109683 0)
(-0.0100527 0.0019902 0)
(-0.010248 -0.00718541 0)
(-0.0104727 -0.0166281 0)
(-0.010727 -0.0264086 0)
(-0.011006 -0.0365953 0)
(-0.011298 -0.0472475 0)
(-0.0115824 -0.0584071 0)
(-0.0118321 -0.0700892 0)
(-0.0120173 -0.0822814 0)
(-0.0121207 -0.0949693 0)
(-0.012158 -0.108214 0)
(-0.0122116 -0.122318 0)
(-0.012455 -0.138141 0)
(-0.0131184 -0.157455 0)
(-0.0142721 -0.182778 0)
(-0.0156095 -0.216028 0)
(-0.0157797 -0.256062 0)
(-0.0146585 -0.28569 0)
(-0.00472942 -0.273597 0)
(0.00227043 0.109607 0)
(0.00265965 0.15294 0)
(0.00225772 0.169615 0)
(0.00172721 0.178917 0)
(0.0018192 0.180916 0)
(0.0016117 0.176205 0)
(0.00162194 0.165911 0)
(0.00144369 0.152686 0)
(0.00117568 0.138416 0)
(0.000895259 0.124173 0)
(0.000601051 0.110572 0)
(0.000313091 0.0978955 0)
(5.47002e-05 0.0861906 0)
(-0.000165365 0.0753675 0)
(-0.000350068 0.0652635 0)
(-0.000506933 0.0557003 0)
(-0.00064614 0.0465155 0)
(-0.000781121 0.0375726 0)
(-0.000925621 0.0287591 0)
(-0.00109248 0.0199818 0)
(-0.0012932 0.0111593 0)
(-0.00153773 0.00221698 0)
(-0.00183402 -0.0069172 0)
(-0.00218841 -0.016315 0)
(-0.00260394 -0.0260512 0)
(-0.00307945 -0.0361997 0)
(-0.00360715 -0.0468271 0)
(-0.0041719 -0.0579838 0)
(-0.0047496 -0.0696921 0)
(-0.00531029 -0.0819384 0)
(-0.00583168 -0.0946906 0)
(-0.00631285 -0.107967 0)
(-0.00681452 -0.121989 0)
(-0.00748998 -0.13752 0)
(-0.00857095 -0.156311 0)
(-0.0102103 -0.18119 0)
(-0.0121988 -0.214663 0)
(-0.0132179 -0.256278 0)
(-0.0132997 -0.290221 0)
(-0.0041399 -0.28372 0)
(0.00343214 0.106296 0)
(0.00580602 0.152044 0)
(0.00701457 0.16931 0)
(0.00788532 0.178512 0)
(0.00895754 0.180494 0)
(0.00953713 0.176068 0)
(0.00996556 0.165966 0)
(0.0100219 0.152886 0)
(0.00987198 0.138698 0)
(0.00962393 0.124487 0)
(0.00932364 0.110882 0)
(0.00902007 0.098177 0)
(0.00874976 0.0864338 0)
(0.00852654 0.075569 0)
(0.0083476 0.065428 0)
(0.00820189 0.0558408 0)
(0.00807249 0.0466481 0)
(0.00793984 0.0377136 0)
(0.00778474 0.0289242 0)
(0.00758974 0.0201851 0)
(0.00733957 0.011413 0)
(0.00702126 0.00253165 0)
(0.00662394 -0.00653315 0)
(0.00613893 -0.0158554 0)
(0.00556073 -0.0255131 0)
(0.00488705 -0.0355856 0)
(0.00412083 -0.0461462 0)
(0.00327157 -0.0572538 0)
(0.00235866 -0.0689379 0)
(0.00140739 -0.0811881 0)
(0.000439207 -0.0939622 0)
(-0.00052861 -0.10724 0)
(-0.00153495 -0.121178 0)
(-0.00271145 -0.136433 0)
(-0.00428152 -0.154699 0)
(-0.00645976 -0.17903 0)
(-0.0091311 -0.212548 0)
(-0.0108782 -0.255421 0)
(-0.0121025 -0.293612 0)
(-0.00355046 -0.292453 0)
(0.00467562 0.100631 0)
(0.00893187 0.149242 0)
(0.0116584 0.167546 0)
(0.0138244 0.176979 0)
(0.015898 0.179173 0)
(0.0172264 0.175314 0)
(0.0181291 0.165695 0)
(0.0184612 0.152892 0)
(0.0184693 0.13889 0)
(0.0182955 0.12477 0)
(0.0180275 0.111189 0)
(0.0177391 0.0984627 0)
(0.0174801 0.0866739 0)
(0.0172715 0.0757581 0)
(0.0171126 0.0655761 0)
(0.0169889 0.0559654 0)
(0.0168779 0.0467705 0)
(0.0167547 0.0378557 0)
(0.0165947 0.0291065 0)
(0.016376 0.0204256 0)
(0.0160796 0.0117276 0)
(0.0156895 0.00293343 0)
(0.0151918 -0.00603336 0)
(0.0145759 -0.0152492 0)
(0.013834 -0.0247943 0)
(0.0129598 -0.0347516 0)
(0.011951 -0.0452001 0)
(0.0108123 -0.0562069 0)
(0.00955587 -0.0678111 0)
(0.0081991 -0.0800084 0)
(0.00676548 -0.0927519 0)
(0.00527517 -0.105993 0)
(0.00370838 -0.119829 0)
(0.0019688 -0.13481 0)
(-0.000157561 -0.152552 0)
(-0.00293161 -0.17628 0)
(-0.00636351 -0.209765 0)
(-0.00873704 -0.25375 0)
(-0.0112024 -0.29636 0)
(-0.00304571 -0.300728 0)
(0.00586672 0.0929734 0)
(0.0119837 0.144623 0)
(0.0161836 0.164403 0)
(0.0195693 0.174374 0)
(0.0226624 0.176957 0)
(0.0246495 0.173898 0)
(0.0261324 0.165071 0)
(0.0268048 0.152661 0)
(0.0270197 0.138942 0)
(0.0269702 0.12498 0)
(0.0267772 0.111457 0)
(0.026537 0.0987218 0)
(0.0263155 0.0868901 0)
(0.0261417 0.0759222 0)
(0.0260171 0.0656977 0)
(0.0259257 0.0560655 0)
(0.0258414 0.0468753 0)
(0.0257342 0.0379923 0)
(0.0255751 0.0293001 0)
(0.0253379 0.0206987 0)
(0.0249995 0.0120994 0)
(0.024541 0.00342011 0)
(0.0239451 -0.00541829 0)
(0.0231991 -0.0144952 0)
(0.0222926 -0.0238927 0)
(0.0212151 -0.0336965 0)
(0.0199602 -0.0439893 0)
(0.018527 -0.054843 0)
(0.0169171 -0.0663041 0)
(0.0151406 -0.0783791 0)
(0.0132189 -0.091025 0)
(0.0111718 -0.104183 0)
(0.00899961 -0.117887 0)
(0.00663547 -0.132587 0)
(0.00389205 -0.149794 0)
(0.000465834 -0.172856 0)
(-0.0038013 -0.20622 0)
(-0.00672176 -0.251297 0)
(-0.0106255 -0.297857 0)
(-0.00226079 -0.308096 0)
(0.0069466 0.0833438 0)
(0.0149066 0.138187 0)
(0.0205527 0.159903 0)
(0.0250923 0.170716 0)
(0.0291753 0.174003 0)
(0.0318354 0.171687 0)
(0.0339327 0.163974 0)
(0.0350597 0.152136 0)
(0.0355525 0.138799 0)
(0.0356887 0.125064 0)
(0.0356238 0.111642 0)
(0.0354765 0.0989228 0)
(0.0353258 0.0870593 0)
(0.0352102 0.0760437 0)
(0.0351365 0.0657797 0)
(0.0350893 0.0561311 0)
(0.0350406 0.0469546 0)
(0.0349571 0.0381168 0)
(0.0348056 0.0294996 0)
(0.0345558 0.0209996 0)
(0.0341807 0.0125245 0)
(0.0336579 0.00398869 0)
(0.0329671 -0.00468974 0)
(0.0320924 -0.0135932 0)
(0.0310206 -0.0228053 0)
(0.0297374 -0.032413 0)
(0.0282315 -0.0425026 0)
(0.0264941 -0.0531503 0)
(0.0245191 -0.0644092 0)
(0.0223095 -0.0762919 0)
(0.0198762 -0.0887633 0)
(0.0172372 -0.101765 0)
(0.0144109 -0.115302 0)
(0.0113684 -0.12971 0)
(0.00794663 -0.146374 0)
(0.00380763 -0.168724 0)
(-0.00138341 -0.201912 0)
(-0.00482661 -0.248136 0)
(-0.0101945 -0.298495 0)
(-0.001578 -0.315172 0)
(0.00784306 0.0718294 0)
(0.0175978 0.130024 0)
(0.0246685 0.154112 0)
(0.0303228 0.166058 0)
(0.0352036 0.170327 0)
(0.0388369 0.168738 0)
(0.0414986 0.162235 0)
(0.0431968 0.151217 0)
(0.0440666 0.138388 0)
(0.044469 0.124957 0)
(0.0446027 0.111691 0)
(0.0446057 0.0990234 0)
(0.0445701 0.0871497 0)
(0.0445458 0.0761003 0)
(0.0445467 0.0658068 0)
(0.0445609 0.0561512 0)
(0.0445606 0.0469998 0)
(0.044511 0.038222 0)
(0.0443758 0.0296984 0)
(0.0441208 0.0213224 0)
(0.0437154 0.0129979 0)
(0.0431336 0.00463528 0)
(0.0423519 -0.00385026 0)
(0.0413504 -0.0125438 0)
(0.0401123 -0.0215306 0)
(0.0386191 -0.0308978 0)
(0.0368545 -0.0407329 0)
(0.0348031 -0.0511142 0)
(0.0324497 -0.062101 0)
(0.0297846 -0.0737166 0)
(0.0268087 -0.085936 0)
(0.0235433 -0.0987065 0)
(0.0200143 -0.112013 0)
(0.0162377 -0.126111 0)
(0.0120733 -0.142231 0)
(0.00715595 -0.163836 0)
(0.000970355 -0.1968 0)
(-0.00288462 -0.244179 0)
(-0.00964232 -0.298398 0)
(-0.000683497 -0.321617 0)
(0.00839885 0.0585979 0)
(0.0199019 0.120095 0)
(0.0283274 0.146975 0)
(0.0351004 0.160381 0)
(0.0408254 0.165748 0)
(0.0453729 0.16514 0)
(0.0487352 0.159766 0)
(0.051116 0.149787 0)
(0.0525004 0.137608 0)
(0.0532871 0.124576 0)
(0.053717 0.111531 0)
(0.0539506 0.0989638 0)
(0.0540947 0.0871162 0)
(0.054211 0.0760588 0)
(0.0543229 0.065755 0)
(0.0544247 0.0561084 0)
(0.0544922 0.0469977 0)
(0.054491 0.0382971 0)
(0.0543836 0.0298874 0)
(0.0541332 0.0216593 0)
(0.0537054 0.0135131 0)
(0.0530714 0.00535494 0)
(0.0522036 -0.00290306 0)
(0.0510778 -0.0113474 0)
(0.0496722 -0.0200651 0)
(0.0479644 -0.029144 0)
(0.0459322 -0.0386708 0)
(0.0435523 -0.048724 0)
(0.0407995 -0.0593652 0)
(0.037653 -0.0706268 0)
(0.0341044 -0.0825017 0)
(0.0301697 -0.0949576 0)
(0.0258836 -0.107969 0)
(0.0213024 -0.121719 0)
(0.016323 -0.137299 0)
(0.0105364 -0.158148 0)
(0.00329744 -0.190865 0)
(-0.000905176 -0.239448 0)
(-0.00956905 -0.297181 0)
(0.000174737 -0.327882 0)
(0.00834038 0.0440434 0)
(0.0215082 0.10859 0)
(0.0312852 0.138555 0)
(0.0392116 0.153702 0)
(0.0458502 0.160248 0)
(0.0512705 0.160764 0)
(0.0555187 0.156478 0)
(0.0586824 0.147688 0)
(0.0607458 0.136314 0)
(0.0620713 0.123798 0)
(0.0629315 0.111062 0)
(0.0635083 0.0986632 0)
(0.0639238 0.0868944 0)
(0.0642529 0.0758701 0)
(0.0645308 0.0655879 0)
(0.0647613 0.0559761 0)
(0.0649266 0.0469287 0)
(0.0649961 0.0383275 0)
(0.0649332 0.0300551 0)
(0.0647002 0.0220009 0)
(0.0642603 0.0140626 0)
(0.0635821 0.00614163 0)
(0.0626332 -0.00185164 0)
(0.0613846 -0.0100041 0)
(0.0598103 -0.0184052 0)
(0.0578821 -0.0271431 0)
(0.0555702 -0.0363013 0)
(0.0528432 -0.0459572 0)
(0.0496659 -0.0561739 0)
(0.0460063 -0.0669929 0)
(0.0418452 -0.0784253 0)
(0.0371955 -0.0904654 0)
(0.0320887 -0.103106 0)
(0.0266359 -0.116465 0)
(0.0207489 -0.131484 0)
(0.0140042 -0.151564 0)
(0.00569904 -0.183991 0)
(0.00123225 -0.233916 0)
(-0.00950996 -0.295344 0)
(0.00130951 -0.333722 0)
(0.00696951 0.0289257 0)
(0.0219914 0.095351 0)
(0.0331747 0.128615 0)
(0.0423651 0.145932 0)
(0.0500284 0.153838 0)
(0.056377 0.155461 0)
(0.0615909 0.15231 0)
(0.0656916 0.144755 0)
(0.0686297 0.134328 0)
(0.0706906 0.122459 0)
(0.0721576 0.110144 0)
(0.0732297 0.0980045 0)
(0.0740438 0.08639 0)
(0.0746889 0.0754604 0)
(0.0752139 0.0652495 0)
(0.075635 0.0557129 0)
(0.0759444 0.0467626 0)
(0.0761186 0.038291 0)
(0.0761252 0.030185 0)
(0.0759277 0.022335 0)
(0.0754895 0.0146373 0)
(0.074776 0.00698871 0)
(0.0737515 -0.000700611 0)
(0.0723813 -0.00851374 0)
(0.0706343 -0.0165461 0)
(0.0684765 -0.0248837 0)
(0.0658689 -0.033606 0)
(0.0627709 -0.0427882 0)
(0.0591372 -0.0524932 0)
(0.0549255 -0.0627724 0)
(0.0501064 -0.0736573 0)
(0.0446919 -0.0851753 0)
(0.0387037 -0.0973449 0)
(0.0323009 -0.110265 0)
(0.0253988 -0.124706 0)
(0.0176268 -0.144 0)
(0.00815602 -0.176067 0)
(0.00352195 -0.227327 0)
(-0.0098047 -0.292725 0)
(0.00257021 -0.339295 0)
(0.00358159 0.0154904 0)
(0.0207165 0.0809626 0)
(0.0336423 0.117179 0)
(0.0442577 0.136929 0)
(0.0530691 0.146437 0)
(0.0604238 0.149163 0)
(0.0666838 0.147099 0)
(0.0718838 0.140787 0)
(0.0759137 0.131434 0)
(0.0789483 0.120358 0)
(0.0812419 0.108596 0)
(0.0830041 0.0968333 0)
(0.0843848 0.0854748 0)
(0.0854861 0.0747264 0)
(0.086372 0.064659 0)
(0.0870733 0.0552571 0)
(0.0875955 0.0464535 0)
(0.0879257 0.0381541 0)
(0.0880395 0.030253 0)
(0.0879039 0.0226451 0)
(0.0874861 0.0152258 0)
(0.0867467 0.00789016 0)
(0.0856527 0.000553019 0)
(0.0841627 -0.00687061 0)
(0.0822365 -0.014478 0)
(0.0798353 -0.0223498 0)
(0.0769112 -0.0305612 0)
(0.0734131 -0.0391849 0)
(0.0692862 -0.0482837 0)