/*--------------------------------*- C++ -*----------------------------------*\
  =========                 |
  \\      /  F ield         | OpenFOAM: The Open Source CFD Toolbox
   \\    /   O peration     | Website:  https://openfoam.org
    \\  /    A nd           | Version:  13
     \\/     M anipulation  |
\*---------------------------------------------------------------------------*/
FoamFile
{
    format      ascii;
    class       volScalarField;
    location    "0.7";
    object      nut;
}
// * * * * * * * * * * * * * * * * * * * * * * * * * * * * * * * * * * * * * //

dimensions      [0 2 -1 0 0 0 0];

internalField   nonuniform List<scalar> 
6400
(
1.76326e-09
8.40881e-09
1.71669e-08
2.57666e-08
3.34911e-08
4.02702e-08
4.61956e-08
5.13742e-08
5.58981e-08
5.98429e-08
6.32724e-08
6.62424e-08
6.88035e-08
7.10025e-08
7.28831e-08
7.44862e-08
7.58502e-08
7.70105e-08
7.79999e-08
7.88478e-08
7.9581e-08
8.02232e-08
8.0795e-08
8.13146e-08
8.17975e-08
8.22567e-08
8.27036e-08
8.31474e-08
8.3596e-08
8.4056e-08
8.4533e-08
8.50317e-08
8.55559e-08
8.61091e-08
8.66942e-08
8.73135e-08
8.7969e-08
8.86621e-08
8.93935e-08
9.01635e-08
9.09715e-08
9.18157e-08
9.26934e-08
9.35996e-08
9.45258e-08
9.54618e-08
9.64397e-08
9.74219e-08
9.8389e-08
9.93292e-08
1.00227e-07
1.01063e-07
1.01817e-07
1.02467e-07
1.02993e-07
1.03336e-07
1.035e-07
1.03486e-07
1.03221e-07
1.02687e-07
1.01857e-07
1.00707e-07
9.92091e-08
9.73392e-08
9.50723e-08
9.23842e-08
8.92503e-08
8.56455e-08
8.1544e-08
7.6918e-08
7.17367e-08
6.59661e-08
5.95696e-08
5.25088e-08
4.47518e-08
3.62815e-08
2.71444e-08
1.76199e-08
8.45594e-09
1.76818e-09
8.44666e-09
6.08682e-07
1.66856e-06
2.56673e-06
3.27714e-06
3.84959e-06
4.322e-06
4.71867e-06
5.05546e-06
5.34325e-06
5.58987e-06
5.80138e-06
5.98263e-06
6.13768e-06
6.27007e-06
6.3829e-06
6.47893e-06
6.56066e-06
6.63035e-06
6.69004e-06
6.74153e-06
6.78646e-06
6.82628e-06
6.86227e-06
6.89555e-06
6.92709e-06
6.95775e-06
6.98825e-06
7.01924e-06
7.05126e-06
7.08479e-06
7.12025e-06
7.15802e-06
7.19841e-06
7.24171e-06
7.28818e-06
7.33801e-06
7.39137e-06
7.44839e-06
7.50911e-06
7.57353e-06
7.64154e-06
7.71295e-06
7.78737e-06
7.86398e-06
7.94071e-06
8.01298e-06
8.08214e-06
8.14996e-06
8.21573e-06
8.27832e-06
8.33643e-06
8.38859e-06
8.43322e-06
8.47132e-06
8.49351e-06
8.50643e-06
8.50619e-06
8.48933e-06
8.45467e-06
8.40057e-06
8.32528e-06
8.22702e-06
8.10396e-06
7.95412e-06
7.7754e-06
7.56549e-06
7.32171e-06
7.04087e-06
6.71915e-06
6.35181e-06
5.93294e-06
5.45495e-06
4.90758e-06
4.27851e-06
3.55045e-06
2.7002e-06
1.6999e-06
6.06077e-07
8.41607e-09
1.75499e-08
1.70122e-06
5.32707e-06
8.4131e-06
1.07495e-05
1.25673e-05
1.40277e-05
1.52302e-05
1.62375e-05
1.70906e-05
1.78175e-05
1.8439e-05
1.89706e-05
1.9425e-05
1.98128e-05
2.0143e-05
2.04236e-05
2.06617e-05
2.08638e-05
2.10355e-05
2.11823e-05
2.13087e-05
2.1419e-05
2.1517e-05
2.1606e-05
2.1689e-05
2.17684e-05
2.18466e-05
2.19254e-05
2.20066e-05
2.20916e-05
2.21818e-05
2.22781e-05
2.23817e-05
2.24933e-05
2.26136e-05
2.27433e-05
2.28827e-05
2.30322e-05
2.31918e-05
2.33613e-05
2.35404e-05
2.37284e-05
2.39239e-05
2.4125e-05
2.43287e-05
2.45308e-05
2.47302e-05
2.49261e-05
2.51157e-05
2.52956e-05
2.54619e-05
2.56104e-05
2.57367e-05
2.58419e-05
2.59029e-05
2.59367e-05
2.59297e-05
2.58752e-05
2.57691e-05
2.56069e-05
2.53837e-05
2.50947e-05
2.47348e-05
2.42981e-05
2.37788e-05
2.31703e-05
2.24645e-05
2.1652e-05
2.07206e-05
1.96552e-05
1.84364e-05
1.70387e-05
1.54297e-05
1.35534e-05
1.13308e-05
8.64024e-06
5.32797e-06
1.67113e-06
1.7135e-08
2.69222e-08
2.68419e-06
8.61337e-06
1.37954e-05
1.77562e-05
2.08282e-05
2.32848e-05
2.52972e-05
2.6977e-05
2.83975e-05
2.96111e-05
3.06492e-05
3.15381e-05
3.22991e-05
3.29498e-05
3.3505e-05
3.39779e-05
3.43799e-05
3.47217e-05
3.50127e-05
3.52616e-05
3.54759e-05
3.56626e-05
3.58281e-05
3.59778e-05
3.61165e-05
3.62486e-05
3.63777e-05
3.65071e-05
3.66396e-05
3.67775e-05
3.69231e-05
3.7078e-05
3.72438e-05
3.74217e-05
3.76129e-05
3.78182e-05
3.8038e-05
3.82727e-05
3.85221e-05
3.87859e-05
3.90632e-05
3.93524e-05
3.96515e-05
3.99575e-05
4.02661e-05
4.05734e-05
4.08762e-05
4.11708e-05
4.14524e-05
4.17154e-05
4.19534e-05
4.21599e-05
4.23279e-05
4.24521e-05
4.2514e-05
4.25265e-05
4.24685e-05
4.23333e-05
4.21141e-05
4.18037e-05
4.13947e-05
4.08798e-05
4.02514e-05
3.95021e-05
3.86226e-05
3.76015e-05
3.64262e-05
3.50815e-05
3.35479e-05
3.18011e-05
2.98087e-05
2.7527e-05
2.48937e-05
2.18237e-05
1.81871e-05
1.37886e-05
8.39343e-06
2.56387e-06
2.55628e-08
3.57546e-08
3.51091e-06
1.12495e-05
1.81351e-05
2.34888e-05
2.76871e-05
3.10632e-05
3.3841e-05
3.61634e-05
3.81262e-05
3.97949e-05
4.12217e-05
4.24443e-05
4.34922e-05
4.43894e-05
4.51564e-05
4.58105e-05
4.63676e-05
4.6842e-05
4.72465e-05
4.75926e-05
4.78909e-05
4.81507e-05
4.83804e-05
4.85875e-05
4.87787e-05
4.89597e-05
4.91356e-05
4.93108e-05
4.94891e-05
4.96736e-05
4.98673e-05
5.00724e-05
5.02911e-05
5.05253e-05
5.0776e-05
5.10439e-05
5.13296e-05
5.16332e-05
5.19545e-05
5.22925e-05
5.2646e-05
5.30127e-05
5.33898e-05
5.37734e-05
5.41585e-05
5.45405e-05
5.49143e-05
5.52741e-05
5.56131e-05
5.59238e-05
5.6198e-05
5.64268e-05
5.66013e-05
5.67073e-05
5.67433e-05
5.67025e-05
5.65664e-05
5.63268e-05
5.59747e-05
5.5501e-05
5.48964e-05
5.41515e-05
5.32562e-05
5.21997e-05
5.09699e-05
4.95535e-05
4.79342e-05
4.60922e-05
4.40027e-05
4.16338e-05
3.89436e-05
3.58758e-05
3.23525e-05
2.82637e-05
2.34485e-05
1.76754e-05
1.06813e-05
3.25766e-06
3.31013e-08
4.38469e-08
4.21067e-06
1.34013e-05
2.16835e-05
2.82214e-05
3.34045e-05
3.76e-05
4.10625e-05
4.39625e-05
4.64168e-05
4.85078e-05
5.02973e-05
5.1832e-05
5.31487e-05
5.42775e-05
5.52439e-05
5.60701e-05
5.67756e-05
5.73774e-05
5.78912e-05
5.83313e-05
5.87106e-05
5.90408e-05
5.93323e-05
5.95944e-05
5.98354e-05
6.00623e-05
6.02815e-05
6.04983e-05
6.07174e-05
6.09428e-05
6.11778e-05
6.14252e-05
6.16874e-05
6.19659e-05
6.22625e-05
6.25783e-05
6.29138e-05
6.3269e-05
6.36434e-05
6.40358e-05
6.44443e-05
6.48661e-05
6.52979e-05
6.57351e-05
6.61727e-05
6.66045e-05
6.70236e-05
6.74223e-05
6.77923e-05
6.81242e-05
6.84081e-05
6.86336e-05
6.87897e-05
6.88542e-05
6.88406e-05
6.87287e-05
6.84966e-05
6.81378e-05
6.76416e-05
6.69972e-05
6.61938e-05
6.52204e-05
6.40655e-05
6.27164e-05
6.11593e-05
5.93784e-05
5.73547e-05
5.5065e-05
5.24802e-05
4.9563e-05
4.62647e-05
4.25202e-05
3.82402e-05
3.32997e-05
2.75194e-05
2.06512e-05
1.24406e-05
3.81125e-06
3.96724e-08
5.11885e-08
4.80973e-06
1.52005e-05
2.46503e-05
3.2202e-05
3.82462e-05
4.31702e-05
4.72502e-05
5.06763e-05
5.35812e-05
5.60601e-05
5.8184e-05
6.00073e-05
6.15733e-05
6.29173e-05
6.40691e-05
6.50548e-05
6.58971e-05
6.66163e-05
6.72308e-05
6.77573e-05
6.8211e-05
6.86055e-05
6.8953e-05
6.92644e-05
6.95494e-05
6.98164e-05
7.00727e-05
7.03247e-05
7.05778e-05
7.08367e-05
7.11053e-05
7.13868e-05
7.16839e-05
7.19987e-05
7.23328e-05
7.26873e-05
7.30627e-05
7.34589e-05
7.3875e-05
7.43096e-05
7.47602e-05
7.52236e-05
7.56956e-05
7.61712e-05
7.66441e-05
7.71072e-05
7.75525e-05
7.79709e-05
7.83525e-05
7.86866e-05
7.89618e-05
7.91659e-05
7.92863e-05
7.92952e-05
7.92178e-05
7.90228e-05
7.8685e-05
7.82001e-05
7.7556e-05
7.67406e-05
7.57421e-05
7.45483e-05
7.31466e-05
7.15233e-05
6.96632e-05
6.75488e-05
6.51591e-05
6.24685e-05
5.94448e-05
5.6047e-05
5.22215e-05
4.7897e-05
4.29765e-05
3.73255e-05
3.0754e-05
2.30059e-05
1.38426e-05
4.26615e-06
4.53827e-08
5.7823e-08
5.3275e-06
1.67326e-05
2.7176e-05
3.56051e-05
4.24064e-05
4.79797e-05
5.26164e-05
5.6521e-05
5.98382e-05
6.26736e-05
6.5106e-05
6.71966e-05
6.8994e-05
7.05383e-05
7.18632e-05
7.2998e-05
7.39686e-05
7.4798e-05
7.55072e-05
7.61149e-05
7.66383e-05
7.70928e-05
7.74923e-05
7.78491e-05
7.81742e-05
7.84771e-05
7.87662e-05
7.90487e-05
7.93308e-05
7.96177e-05
7.9914e-05
8.02233e-05
8.05486e-05
8.08922e-05
8.12558e-05
8.16405e-05
8.20468e-05
8.24744e-05
8.29223e-05
8.33885e-05
8.38702e-05
8.43637e-05
8.48643e-05
8.53658e-05
8.58615e-05
8.63431e-05
8.68015e-05
8.72265e-05
8.76069e-05
8.79306e-05
8.81849e-05
8.83563e-05
8.84279e-05
8.83752e-05
8.82239e-05
8.79387e-05
8.74903e-05
8.68764e-05
8.60838e-05
8.50997e-05
8.39114e-05
8.25063e-05
8.08709e-05
7.89909e-05
7.68503e-05
7.44304e-05
7.17091e-05
6.86591e-05
6.52462e-05
6.14267e-05
5.71436e-05
5.23215e-05
4.6858e-05
4.06122e-05
3.33874e-05
2.49204e-05
1.49909e-05
4.64762e-06
5.03463e-08
6.38062e-08
5.77792e-06
1.80564e-05
2.93537e-05
3.85508e-05
4.60221e-05
5.21761e-05
5.73155e-05
6.16554e-05
6.53502e-05
6.85136e-05
7.12311e-05
7.35696e-05
7.55823e-05
7.73134e-05
7.88001e-05
8.00749e-05
8.11662e-05
8.20995e-05
8.28979e-05
8.35822e-05
8.41712e-05
8.46821e-05
8.51302e-05
8.55291e-05
8.58909e-05
8.62263e-05
8.65446e-05
8.68539e-05
8.7161e-05
8.74717e-05
8.77911e-05
8.81233e-05
8.84714e-05
8.88381e-05
8.92252e-05
8.96338e-05
9.00644e-05
9.05165e-05
9.09888e-05
9.14792e-05
9.19844e-05
9.25002e-05
9.3021e-05
9.35404e-05
9.40505e-05
9.45423e-05
9.50054e-05
9.54287e-05
9.57996e-05
9.61051e-05
9.63309e-05
9.64625e-05
9.6477e-05
9.63617e-05
9.61284e-05
9.57492e-05
9.5188e-05
9.44443e-05
9.35042e-05
9.23546e-05
9.09823e-05
8.93744e-05
8.75172e-05
8.53961e-05
8.29947e-05
8.02939e-05
7.72708e-05
7.38972e-05
7.01376e-05
6.59466e-05
6.12647e-05
5.60137e-05
5.00877e-05
4.33411e-05
3.55729e-05
2.65065e-05
1.5949e-05
4.97171e-06
5.46581e-08
6.91936e-08
6.17207e-06
1.92089e-05
3.125e-05
4.11241e-05
4.91916e-05
5.58669e-05
6.14609e-05
6.61974e-05
7.02383e-05
7.37037e-05
7.6685e-05
7.92536e-05
8.1467e-05
8.33728e-05
8.50114e-05
8.64177e-05
8.76228e-05
8.86542e-05
8.9537e-05
9.02937e-05
9.09448e-05
9.15089e-05
9.20026e-05
9.24407e-05
9.28366e-05
9.32018e-05
9.35466e-05
9.38796e-05
9.42085e-05
9.45398e-05
9.48788e-05
9.52301e-05
9.55972e-05
9.59829e-05
9.63891e-05
9.68172e-05
9.72675e-05
9.77393e-05
9.82313e-05
9.8741e-05
9.92648e-05
9.97979e-05
0.000100334
0.000100867
0.000101387
0.000101884
0.000102347
0.000102764
0.000103121
0.000103404
0.000103598
0.000103686
0.00010364
0.000103459
0.000103141
0.000102665
0.000101991
0.000101118
0.000100032
9.87196e-05
9.71686e-05
9.53656e-05
9.3297e-05
9.09484e-05
8.83032e-05
8.53424e-05
8.20429e-05
7.8376e-05
7.43054e-05
6.97847e-05
6.47531e-05
5.913e-05
5.28069e-05
4.56351e-05
3.74093e-05
2.78405e-05
1.67588e-05
5.24935e-06
5.83966e-08
7.4037e-08
6.51834e-06
2.02176e-05
3.29129e-05
4.33872e-05
5.19874e-05
5.91319e-05
6.51381e-05
7.02363e-05
7.45945e-05
7.83384e-05
8.15639e-05
8.43464e-05
8.67471e-05
8.88164e-05
9.05976e-05
9.21278e-05
9.34403e-05
9.45646e-05
9.55273e-05
9.63527e-05
9.70627e-05
9.76771e-05
9.82139e-05
9.8689e-05
9.91166e-05
9.95094e-05
9.98783e-05
0.000100233
0.000100581
0.000100931
0.000101287
0.000101655
0.000102038
0.00010244
0.000102863
0.000103307
0.000103774
0.000104263
0.000104772
0.000105299
0.000105839
0.000106387
0.000106937
0.000107481
0.000108009
0.00010851
0.000108972
0.000109382
0.000109724
0.000109984
0.000110143
0.000110187
0.00011008
0.000109832
0.000109427
0.000108852
0.000108066
0.000107063
0.000105833
0.000104361
0.000102636
0.000100644
9.83731e-05
9.58085e-05
9.29342e-05
8.97314e-05
8.6177e-05
8.22422e-05
7.78907e-05
7.30752e-05
6.77342e-05
6.17855e-05
5.51187e-05
4.75822e-05
3.89675e-05
2.89742e-05
1.74493e-05
5.48863e-06
6.16298e-08
7.83835e-08
6.82331e-06
2.11042e-05
3.43779e-05
4.53867e-05
5.44646e-05
6.20324e-05
6.84127e-05
7.3841e-05
7.84906e-05
8.24912e-05
8.59428e-05
8.89243e-05
9.14997e-05
9.37223e-05
9.56374e-05
9.72845e-05
9.86984e-05
9.99106e-05
0.000100949
0.00010184
0.000102606
0.000103268
0.000103846
0.000104356
0.000104813
0.000105232
0.000105623
0.000105998
0.000106364
0.00010673
0.000107101
0.000107484
0.000107882
0.000108299
0.000108736
0.000109196
0.000109679
0.000110184
0.00011071
0.000111253
0.000111809
0.000112373
0.000112937
0.000113493
0.000114031
0.000114537
0.000115
0.000115404
0.000115733
0.00011597
0.000116097
0.000116095
0.000115928
0.000115609
0.000115118
0.000114442
0.000113543
0.00011241
0.000111035
0.000109406
0.00010751
0.000105335
0.00010287
0.0001001
9.70099e-05
9.35811e-05
8.97908e-05
8.56105e-05
8.10036e-05
7.59227e-05
7.03057e-05
6.40695e-05
5.71022e-05
4.92498e-05
4.03009e-05
2.99463e-05
1.80429e-05
5.69603e-06
6.44209e-08
8.22763e-08
7.09234e-06
2.18855e-05
3.56728e-05
4.7159e-05
5.6666e-05
6.46163e-05
7.13365e-05
7.70664e-05
8.19833e-05
8.62207e-05
8.98817e-05
9.30483e-05
9.57868e-05
9.81529e-05
0.000100194
0.000101951
0.000103461
0.000104756
0.000105867
0.00010682
0.000107639
0.000108347
0.000108963
0.000109507
0.000109993
0.000110436
0.000110848
0.000111241
0.000111624
0.000112006
0.000112392
0.000112789
0.000113201
0.000113632
0.000114084
0.000114559
0.000115059
0.000115581
0.000116124
0.000116686
0.000117261
0.000117843
0.000118425
0.000118998
0.000119549
0.000120065
0.000120533
0.000120934
0.000121253
0.000121469
0.000121563
0.000121517
0.000121289
0.000120895
0.000120315
0.000119532
0.000118519
0.000117252
0.000115731
0.000113944
0.00011188
0.000109527
0.000106876
0.000103911
0.000100619
9.69807e-05
9.29736e-05
8.85691e-05
8.37304e-05
7.84103e-05
7.2546e-05
6.60541e-05
5.88214e-05
5.06924e-05
4.14526e-05
3.07894e-05
1.85577e-05
5.87726e-06
6.68308e-08
8.57546e-08
7.32981e-06
2.25751e-05
3.68193e-05
4.87328e-05
5.86259e-05
6.69222e-05
7.39512e-05
7.99566e-05
8.51188e-05
8.95745e-05
9.34295e-05
9.6768e-05
9.96587e-05
0.000102159
0.000104318
0.000106179
0.00010778
0.000109154
0.000110333
0.000111345
0.000112215
0.000112966
0.00011362
0.000114195
0.000114708
0.000115175
0.000115608
0.000116019
0.000116418
0.000116815
0.000117215
0.000117626
0.000118053
0.000118499
0.000118967
0.00011946
0.000119977
0.000120519
0.000121084
0.000121668
0.000122267
0.000122873
0.000123479
0.000124074
0.000124645
0.000125178
0.000125656
0.000126059
0.00012637
0.000126566
0.000126627
0.000126532
0.000126241
0.000125759
0.000125081
0.00012418
0.000123046
0.000121638
0.000119965
0.000118018
0.000115787
0.000113263
0.000110434
0.000107289
0.000103812
9.99851e-05
9.5784e-05
9.11797e-05
8.61352e-05
8.06023e-05
7.45182e-05
6.77991e-05
6.03312e-05
5.19577e-05
4.2462e-05
3.15301e-05
1.90105e-05
6.03769e-06
6.89216e-08
8.88546e-08
7.53943e-06
2.31841e-05
3.78354e-05
5.01316e-05
6.03723e-05
6.89815e-05
7.62913e-05
8.25482e-05
8.79355e-05
9.25922e-05
9.66266e-05
0.000100125
0.000103157
0.000105784
0.000108054
0.000110012
0.000111698
0.000113148
0.000114392
0.000115459
0.000116378
0.000117171
0.00011786
0.000118466
0.000119005
0.000119495
0.000119948
0.000120377
0.000120792
0.000121204
0.00012162
0.000122046
0.000122488
0.000122951
0.000123438
0.000123951
0.000124491
0.000125058
0.000125649
0.000126263
0.000126892
0.000127531
0.000128169
0.000128795
0.000129394
0.000129949
0.000130442
0.000130851
0.000131153
0.000131326
0.000131345
0.00013119
0.000130823
0.000130232
0.000129437
0.000128396
0.000127123
0.00012556
0.000123724
0.00012161
0.000119212
0.000116523
0.000113531
0.000110226
0.00010659
0.000102603
9.82407e-05
9.34706e-05
8.82539e-05
8.25412e-05
7.62688e-05
6.93524e-05
6.1678e-05
5.30881e-05
4.33649e-05
3.21939e-05
1.94174e-05
6.18267e-06
7.07572e-08
9.16099e-08
7.72432e-06
2.37218e-05
3.8736e-05
5.13747e-05
6.19284e-05
7.08206e-05
7.83855e-05
8.48719e-05
9.04654e-05
9.53072e-05
9.95074e-05
0.000103154
0.000106319
0.000109062
0.000111436
0.000113487
0.000115254
0.000116773
0.000118079
0.0001192
0.000120165
0.000120998
0.000121722
0.000122357
0.000122922
0.000123434
0.000123907
0.000124354
0.000124786
0.000125214
0.000125646
0.00012609
0.000126551
0.000127034
0.000127543
0.000128081
0.000128649
0.000129247
0.000129873
0.000130524
0.000131194
0.000131875
0.000132555
0.000133221
0.000133856
0.000134439
0.000134949
0.00013536
0.000135646
0.000135781
0.00013574
0.000135498
0.000135029
0.000134291
0.00013334
0.000132128
0.000130669
0.000128935
0.000126913
0.00012462
0.000122054
0.000119208
0.000116074
0.000112638
0.000108883
0.000104782
0.000100308
9.54227e-05
9.00842e-05
8.42393e-05
7.78218e-05
7.07462e-05
6.28981e-05
5.41204e-05
4.41946e-05
3.28071e-05
1.9795e-05
6.3178e-06
7.24051e-08
9.40515e-08
7.88713e-06
2.41955e-05
3.95347e-05
5.24783e-05
6.33138e-05
7.24618e-05
8.02583e-05
8.6954e-05
9.27362e-05
9.77482e-05
0.000102101
0.000105885
0.000109173
0.000112026
0.000114497
0.000116634
0.000118477
0.000120064
0.000121428
0.0001226
0.000123609
0.00012448
0.000125237
0.000125901
0.000126492
0.000127026
0.000127519
0.000127985
0.000128435
0.000128881
0.000129332
0.000129795
0.000130278
0.000130785
0.000131322
0.000131892
0.000132495
0.000133133
0.000133804
0.000134504
0.000135225
0.000135959
0.000136691
0.000137405
0.00013808
0.000138692
0.000139213
0.000139613
0.000139862
0.000139929
0.000139786
0.00013941
0.00013878
0.000137846
0.000136667
0.000135226
0.000133523
0.000131577
0.000129338
0.000126847
0.000124108
0.000121119
0.000117872
0.000114351
0.000110533
0.000106387
0.000101875
9.69532e-05
9.15696e-05
8.56646e-05
7.91671e-05
7.19883e-05
6.40125e-05
5.50825e-05
4.49807e-05
3.33953e-05
2.01605e-05
6.44906e-06
7.39382e-08
9.62084e-08
8.03025e-06
2.46125e-05
4.02409e-05
5.3457e-05
6.45457e-05
7.39246e-05
8.1931e-05
8.88171e-05
9.4772e-05
9.994e-05
0.000104434
0.000108345
0.000111747
0.000114702
0.000117265
0.000119482
0.000121397
0.000123047
0.000124466
0.000125687
0.000126738
0.000127646
0.000128436
0.000129128
0.000129744
0.0001303
0.000130814
0.0001313
0.00013177
0.000132236
0.000132709
0.000133195
0.000133704
0.000134242
0.000134813
0.000135422
0.000136071
0.00013676
0.000137487
0.000138247
0.000139031
0.000139828
0.000140621
0.000141388
0.000142102
0.000142732
0.000143244
0.000143602
0.000143769
0.000143711
0.000143399
0.000142809
0.000141927
0.000140716
0.000139208
0.000137452
0.000135427
0.000133196
0.000130705
0.000127987
0.00012507
0.000121956
0.000118636
0.000115091
0.00011129
0.000107193
0.00010275
9.79018e-05
9.25848e-05
8.67272e-05
8.02479e-05
7.30511e-05
6.50171e-05
5.59874e-05
4.57453e-05
3.39823e-05
2.05314e-05
6.58292e-06
7.54363e-08
9.81076e-08
8.15577e-06
2.49786e-05
4.08637e-05
5.4323e-05
6.56388e-05
7.52259e-05
8.34223e-05
9.04815e-05
9.65939e-05
0.000101905
0.000106529
0.000110557
0.000114064
0.000117114
0.000119762
0.000122056
0.000124038
0.000125747
0.000127219
0.000128486
0.000129578
0.000130522
0.000131343
0.000132063
0.000132704
0.000133284
0.00013382
0.000134327
0.000134819
0.000135308
0.000135806
0.000136321
0.000136862
0.000137437
0.000138051
0.000138709
0.000139414
0.000140165
0.00014096
0.000141793
0.000142652
0.000143521
0.000144377
0.000145192
0.00014593
0.000146553
0.000147016
0.000147274
0.000147286
0.000147012
0.000146424
0.000145503
0.000144242
0.000142633
0.000140667
0.000138478
0.000136037
0.00013342
0.000130638
0.00012766
0.000124559
0.000121341
0.000117998
0.000114505
0.000110823
0.000106896
0.000102657
9.80305e-05
9.29314e-05
8.72699e-05
8.09485e-05
7.38585e-05
6.58713e-05
5.68233e-05
4.64965e-05
3.4586e-05
2.09241e-05
6.72569e-06
7.6987e-08
9.97742e-08
8.26552e-06
2.52989e-05
4.14111e-05
5.50873e-05
6.66064e-05
7.63807e-05
8.47487e-05
9.1965e-05
9.82209e-05
0.000103663
0.000108406
0.000112542
0.000116147
0.000119285
0.000122013
0.000124377
0.000126422
0.000128188
0.00012971
0.000131021
0.000132152
0.00013313
0.000133982
0.00013473
0.000135396
0.000136
0.000136559
0.00013709
0.000137607
0.000138123
0.00013865
0.000139199
0.00013978
0.0001404
0.000141066
0.000141784
0.000142557
0.000143383
0.000144259
0.000145176
0.000146117
0.00014706
0.000147974
0.000148819
0.00014955
0.000150115
0.000150459
0.000150527
0.000150272
0.000149652
0.000148643
0.000147234
0.000145434
0.000143267
0.000140705
0.000137935
0.000134968
0.000131865
0.000128739
0.000125474
0.000122186
0.000118891
0.000115581
0.000112225
0.000108774
0.000105154
0.00010128
9.70489e-05
9.23525e-05
8.70747e-05
8.10941e-05
7.42808e-05
6.64893e-05
5.75441e-05
4.72197e-05
3.52127e-05
2.13505e-05
6.88022e-06
7.872e-08
1.01232e-07
8.36114e-06
2.55779e-05
4.18905e-05
5.57593e-05
6.74602e-05
7.74026e-05
8.59254e-05
9.32838e-05
9.96701e-05
0.000105232
0.000110084
0.000114319
0.000118015
0.000121235
0.000124036
0.000126466
0.000128571
0.00013039
0.000131959
0.000133312
0.000134481
0.000135492
0.000136374
0.00013715
0.000137843
0.000138472
0.000139056
0.000139613
0.000140158
0.000140705
0.000141267
0.000141857
0.000142484
0.000143159
0.000143888
0.000144678
0.000145531
0.000146445
0.000147414
0.000148421
0.000149446
0.000150455
0.000151406
0.000152245
0.000152912
0.000153339
0.000153459
0.000153208
0.000152534
0.000151399
0.000149788
0.000147706
0.000145184
0.000142276
0.000138983
0.000135482
0.000131882
0.000128222
0.000124678
0.00012113
0.000117657
0.000114315
0.000111094
0.00010796
0.000104848
0.000101672
9.83208e-05
9.46685e-05
9.05751e-05
8.58928e-05
8.04681e-05
7.41409e-05
6.67385e-05
5.80625e-05
4.78696e-05
3.58499e-05
2.18135e-05
7.04765e-06
8.07466e-08
1.02502e-07
8.44409e-06
2.58198e-05
4.23084e-05
5.6348e-05
6.82109e-05
7.83038e-05
8.69658e-05
9.44527e-05
0.000100957
0.000106628
0.000111579
0.000115906
0.000119685
0.000122981
0.00012585
0.000128342
0.000130503
0.000132371
0.000133985
0.000135379
0.000136583
0.000137628
0.00013854
0.000139344
0.000140063
0.000140719
0.000141331
0.000141917
0.000142493
0.000143076
0.00014368
0.000144317
0.000145
0.000145739
0.000146543
0.000147417
0.000148363
0.000149376
0.000150443
0.000151543
0.000152643
0.000153697
0.000154645
0.000155416
0.000155931
0.000156107
0.000155861
0.000155126
0.000153848
0.000152
0.000149584
0.000146633
0.000143208
0.000139396
0.000135245
0.000130899
0.000126591
0.000122336
0.000118334
0.000114531
0.000110891
0.000107535
0.000104451
0.000101601
9.89138e-05
9.62873e-05
9.35933e-05
9.06794e-05
8.73748e-05
8.34962e-05
7.88512e-05
7.32405e-05
6.64528e-05
5.82538e-05
4.83666e-05
3.64605e-05
2.23065e-05
7.23636e-06
8.3119e-08
1.03605e-07
8.51572e-06
2.60282e-05
4.26708e-05
5.68613e-05
6.88681e-05
7.90954e-05
8.78823e-05
9.5485e-05
0.000102097
0.000107866
0.000112909
0.000117319
0.000121174
0.00012454
0.000127473
0.000130023
0.000132235
0.000134151
0.000135807
0.000137239
0.000138478
0.000139555
0.000140497
0.00014133
0.000142077
0.000142761
0.000143403
0.000144021
0.000144633
0.000145258
0.000145909
0.000146602
0.00014735
0.000148165
0.000149055
0.000150025
0.000151073
0.000152191
0.000153359
0.000154543
0.000155697
0.000156754
0.000157636
0.000158249
0.000158494
0.000158269
0.000157486
0.000156072
0.000153986
0.000151219
0.000147803
0.000143806
0.000139329
0.0001345
0.000129419
0.000124186
0.000119157
0.000114322
0.000109884
0.00010588
0.000102112
9.87765e-05
9.58603e-05
9.33243e-05
9.10957e-05
8.90682e-05
8.71024e-05
8.50278e-05
8.26467e-05
7.97402e-05
7.60738e-05
7.14012e-05
6.54621e-05
5.79721e-05
4.86039e-05
3.6978e-05
2.28087e-05
7.44741e-06
8.59199e-08
1.04559e-07
8.57724e-06
2.62065e-05
4.29831e-05
5.73063e-05
6.94407e-05
7.97878e-05
8.86865e-05
9.63933e-05
0.000103102
0.00010896
0.000114086
0.000118573
0.000122498
0.000125928
0.000128919
0.000131523
0.000133784
0.000135744
0.00013744
0.000138909
0.000140182
0.00014129
0.000142262
0.000143124
0.000143901
0.000144615
0.000145289
0.000145943
0.000146597
0.000147268
0.000147974
0.000148732
0.000149555
0.000150456
0.000151442
0.000152518
0.000153676
0.000154901
0.000156162
0.000157409
0.000158577
0.000159576
0.000160302
0.000160638
0.000160464
0.000159666
0.00015815
0.000155855
0.00015276
0.000148889
0.000144315
0.000139151
0.000133547
0.000127669
0.000121677
0.000115618
0.000109935
0.000104618
9.98343e-05
9.5722e-05
9.18951e-05
8.86122e-05
8.58675e-05
8.36266e-05
8.18236e-05
8.03599e-05
7.91005e-05
7.78715e-05
7.64597e-05
7.46167e-05
7.20662e-05
6.85099e-05
6.36293e-05
5.7077e-05
4.84577e-05
3.73157e-05
2.3279e-05
7.67493e-06
8.91975e-08
1.05383e-07
8.62974e-06
2.63578e-05
4.32502e-05
5.76898e-05
6.99368e-05
8.03903e-05
8.93889e-05
9.71889e-05
0.000103984
0.000109924
0.000115125
0.000119681
0.00012367
0.000127159
0.000130205
0.000132858
0.000135165
0.000137166
0.000138901
0.000140405
0.000141711
0.00014285
0.000143852
0.000144744
0.000145551
0.000146298
0.000147007
0.000147701
0.0001484
0.000149125
0.000149894
0.000150724
0.000151632
0.000152628
0.000153721
0.000154909
0.00015618
0.000157505
0.00015884
0.000160115
0.000161238
0.000162093
0.00016255
0.000162466
0.000161704
0.000160144
0.000157702
0.000154337
0.000150065
0.000144958
0.000139141
0.000132782
0.000126077
0.000119232
0.000112448
0.000105754
9.95681e-05
9.39608e-05
8.89913e-05
8.4895e-05
8.11165e-05
7.79185e-05
7.53271e-05
7.33147e-05
7.18294e-05
7.07956e-05
7.01043e-05
6.96022e-05
6.90824e-05
6.82824e-05
6.68896e-05
6.45519e-05
6.08843e-05
5.54646e-05
4.78134e-05
3.73761e-05
2.36586e-05
7.90518e-06
9.29311e-08
1.06091e-07
8.67424e-06
2.64847e-05
4.34768e-05
5.80178e-05
7.03639e-05
8.09117e-05
8.99991e-05
9.78825e-05
0.000104756
0.000110769
0.000116037
0.000120657
0.000124705
0.000128248
0.000131344
0.000134043
0.000136392
0.000138432
0.000140203
0.00014174
0.000143078
0.000144248
0.000145281
0.000146203
0.000147042
0.000147824
0.000148572
0.00014931
0.00015006
0.000150844
0.000151683
0.000152595
0.000153596
0.000154697
0.000155903
0.000157205
0.000158583
0.000159994
0.000161371
0.00016262
0.000163621
0.000164228
0.00016428
0.000163617
0.000162091
0.00015959
0.000156049
0.000151468
0.000145915
0.000139522
0.000132477
0.000125003
0.000117343
0.000109735
0.000102391
9.53419e-05
8.89086e-05
8.32729e-05
7.83427e-05
7.43954e-05
7.08221e-05
6.77457e-05
6.52867e-05
6.34115e-05
6.20826e-05
6.12584e-05
6.08791e-05
6.08436e-05
6.09876e-05
6.10649e-05
6.07447e-05
5.96237e-05
5.72425e-05
5.30908e-05
4.65901e-05
3.70684e-05
2.38792e-05
8.11695e-06
9.7e-08
1.06699e-07
8.71164e-06
2.659e-05
4.36669e-05
5.8296e-05
7.0729e-05
8.136e-05
9.05262e-05
9.8484e-05
0.000105427
0.000111506
0.000116836
0.000121512
0.000125614
0.000129206
0.000132348
0.000135089
0.000137478
0.000139555
0.00014136
0.00014293
0.000144299
0.000145499
0.000146562
0.000147516
0.000148389
0.000149207
0.000149997
0.000150783
0.00015159
0.00015244
0.000153355
0.000154356
0.000155458
0.000156671
0.000157992
0.000159407
0.000160879
0.000162348
0.000163722
0.000164877
0.000165661
0.000165897
0.000165402
0.000163999
0.000161544
0.000157946
0.000153181
0.000147305
0.000140453
0.000132827
0.000124679
0.000116288
0.00010793
9.98567e-05
9.22781e-05
8.52264e-05
7.88559e-05
7.34717e-05
6.88425e-05
6.51999e-05
6.19831e-05
5.90917e-05
5.67701e-05
5.49637e-05
5.36355e-05
5.27719e-05
5.23767e-05
5.24261e-05
5.28469e-05
5.3463e-05
5.39689e-05
5.39291e-05
5.28045e-05
4.99786e-05
4.47548e-05
3.6327e-05
2.38757e-05
8.28397e-06
1.01163e-07
1.07219e-07
8.74277e-06
2.6676e-05
4.38245e-05
5.85296e-05
7.10385e-05
8.17426e-05
9.09785e-05
9.90023e-05
0.000106008
0.000112145
0.00011753
0.000122259
0.000126408
0.000130046
0.00013323
0.000136011
0.000138435
0.000140547
0.000142384
0.000143985
0.000145385
0.000146615
0.000147709
0.000148695
0.000149603
0.000150461
0.000151296
0.000152134
0.000153002
0.000153924
0.000154923
0.00015602
0.000157229
0.000158555
0.00015999
0.000161507
0.000163053
0.000164543
0.000165855
0.000166835
0.000167295
0.000167033
0.000165845
0.000163554
0.000160036
0.000155235
0.000149188
0.000142023
0.00013395
0.000125247
0.000116227
0.000107209
9.84867e-05
9.03034e-05
8.2838e-05
7.61417e-05
7.01783e-05
6.52656e-05
6.11774e-05
5.79556e-05
5.52237e-05
5.26068e-05
5.04587e-05
4.87225e-05
4.73245e-05
4.6247e-05
4.55535e-05
4.5286e-05
4.54976e-05
4.6148e-05
4.70424e-05
4.7776e-05
4.7747e-05
4.62121e-05
4.23246e-05
3.51219e-05
2.35985e-05
8.37948e-06
1.0506e-07
1.07664e-07
8.76838e-06
2.67447e-05
4.3953e-05
5.87232e-05
7.12981e-05
8.20663e-05
9.13637e-05
9.9446e-05
0.000106507
0.000112697
0.000118131
0.000122906
0.0001271
0.000130778
0.000134001
0.000136818
0.000139276
0.00014142
0.000143288
0.000144919
0.000146348
0.000147608
0.000148733
0.000149753
0.000150697
0.000151597
0.00015248
0.000153374
0.000154308
0.000155307
0.000156395
0.000157592
0.000158911
0.000160351
0.000161893
0.000163497
0.000165086
0.000166548
0.000167731
0.000168444
0.00016847
0.000167583
0.000165575
0.000162279
0.000157607
0.000151562
0.000144253
0.000135892
0.000126771
0.000117237
0.00010765
9.835e-05
8.96219e-05
8.16749e-05
7.46324e-05
6.85415e-05
6.32583e-05
5.89813e-05
5.55948e-05
5.28069e-05
5.05743e-05
4.83755e-05
4.63999e-05
4.47982e-05
4.3388e-05
4.2087e-05
4.10023e-05
4.01803e-05
3.97785e-05
3.99101e-05
4.05939e-05
4.15884e-05
4.23192e-05
4.19231e-05
3.93582e-05
3.34606e-05
2.30248e-05
8.38221e-06
1.08255e-07
1.08042e-07
8.78914e-06
2.67982e-05
4.40557e-05
5.88814e-05
7.15133e-05
8.23375e-05
9.16888e-05
9.98228e-05
0.000106933
0.000113169
0.000118648
0.000123465
0.000127698
0.000131414
0.000134671
0.000137521
0.000140011
0.000142185
0.000144082
0.000145742
0.000147199
0.000148489
0.000149645
0.000150699
0.000151682
0.000152625
0.000153558
0.000154512
0.000155516
0.000156596
0.000157778
0.000159079
0.000160508
0.000162056
0.000163694
0.00016536
0.000166955
0.000168334
0.000169312
0.000169666
0.000169152
0.000167531
0.0001646
0.000160225
0.000154368
0.000147107
0.000138637
0.000129255
0.000119332
0.000109267
9.94469e-05
9.02031e-05
8.1785e-05
7.43428e-05
6.79229e-05
6.25428e-05
5.79513e-05
5.42575e-05
5.1293e-05
4.88751e-05
4.69469e-05
4.53729e-05
4.38785e-05
4.25738e-05
4.1283e-05
3.99513e-05
3.85874e-05
3.72859e-05
3.61701e-05
3.54356e-05
3.53339e-05
3.59229e-05
3.68614e-05
3.72861e-05
3.59388e-05
3.13753e-05
2.21371e-05
8.27228e-06
1.10271e-07
1.08365e-07
8.80565e-06
2.68382e-05
4.41354e-05
5.90079e-05
7.1689e-05
8.25619e-05
9.19605e-05
0.00010014
0.000107294
0.000113571
0.000119089
0.000123943
0.000128211
0.000131961
0.00013525
0.00013813
0.000140649
0.000142851
0.000144776
0.000146463
0.000147948
0.000149268
0.000150455
0.000151543
0.000152566
0.000153554
0.000154541
0.000155558
0.000156634
0.000157799
0.000159077
0.000160482
0.000162018
0.000163667
0.000165383
0.000167082
0.000168638
0.000169875
0.000170573
0.000170479
0.000169333
0.000166893
0.000162978
0.000157499
0.000150489
0.000142109
0.000132646
0.000122478
0.000112037
0.000101753
9.20071e-05
8.30922e-05
7.51996e-05
6.84166e-05
6.24976e-05
5.75408e-05
5.39286e-05
5.11629e-05
4.8951e-05
4.70395e-05
4.52978e-05
4.36682e-05
4.21982e-05
4.10163e-05
3.97214e-05
3.87762e-05