/*--------------------------------*- C++ -*----------------------------------*\
  =========                 |
  \\      /  F ield         | OpenFOAM: The Open Source CFD Toolbox
   \\    /   O peration     | Website:  https://openfoam.org
    \\  /    A nd           | Version:  13
     \\/     M anipulation  |
\*---------------------------------------------------------------------------*/
FoamFile
{
    format      ascii;
    class       volVectorField;
    location    "0.7";
    object      U;
}
// * * * * * * * * * * * * * * * * * * * * * * * * * * * * * * * * * * * * * //

dimensions      [0 1 -1 0 0 0 0];

internalField   nonuniform List<vector> 
6400
(
(2.6754e-05 -2.67931e-05 0)
(8.57463e-05 -2.56619e-05 0)
(9.47754e-05 -1.04356e-05 0)
(2.89648e-05 6.67247e-06 0)
(-0.000106992 2.10969e-05 0)
(-0.000297274 3.23907e-05 0)
(-0.000526701 4.03981e-05 0)
(-0.00078404 4.56954e-05 0)
(-0.00106067 4.90734e-05 0)
(-0.0013503 5.11295e-05 0)
(-0.00164844 5.22763e-05 0)
(-0.00195184 5.27954e-05 0)
(-0.00225819 5.28813e-05 0)
(-0.00256578 5.26719e-05 0)
(-0.00287338 5.22667e-05 0)
(-0.00318006 5.17395e-05 0)
(-0.00348516 5.11457e-05 0)
(-0.00378818 5.05272e-05 0)
(-0.00408878 4.99159e-05 0)
(-0.00438668 4.93346e-05 0)
(-0.00468168 4.87987e-05 0)
(-0.00497361 4.83173e-05 0)
(-0.00526234 4.78936e-05 0)
(-0.00554769 4.75257e-05 0)
(-0.00582949 4.72071e-05 0)
(-0.00610751 4.69276e-05 0)
(-0.00638146 4.66735e-05 0)
(-0.006651 4.6428e-05 0)
(-0.0069157 4.6172e-05 0)
(-0.00717504 4.58841e-05 0)
(-0.00742841 4.55405e-05 0)
(-0.0076751 4.51158e-05 0)
(-0.00791428 4.45827e-05 0)
(-0.00814502 4.39118e-05 0)
(-0.00836629 4.30721e-05 0)
(-0.00857691 4.20306e-05 0)
(-0.00877562 4.07526e-05 0)
(-0.00896103 3.92018e-05 0)
(-0.00913165 3.73409e-05 0)
(-0.00928589 3.51316e-05 0)
(-0.00942207 3.2538e-05 0)
(-0.00953841 2.95325e-05 0)
(-0.00963293 2.60437e-05 0)
(-0.00970435 2.17644e-05 0)
(-0.00975047 1.67955e-05 0)
(-0.00976703 1.23104e-05 0)
(-0.00975802 7.02588e-06 0)
(-0.00971693 8.7535e-07 0)
(-0.00964407 -5.80384e-06 0)
(-0.00953795 -1.29042e-05 0)
(-0.00939754 -2.03694e-05 0)
(-0.00922219 -2.81434e-05 0)
(-0.00901159 -3.61413e-05 0)
(-0.0087658 -4.4273e-05 0)
(-0.00848546 -5.24202e-05 0)
(-0.00817132 -6.03962e-05 0)
(-0.00782498 -6.81003e-05 0)
(-0.00744826 -7.53729e-05 0)
(-0.00704344 -8.2048e-05 0)
(-0.0066133 -8.80071e-05 0)
(-0.00616092 -9.31189e-05 0)
(-0.00568971 -9.72735e-05 0)
(-0.00520335 -0.000100378 0)
(-0.00470573 -0.000102355 0)
(-0.00420094 -0.000103135 0)
(-0.00369322 -0.000102644 0)
(-0.00318701 -0.000100772 0)
(-0.00268702 -9.74489e-05 0)
(-0.00219855 -9.27928e-05 0)
(-0.00172663 -8.66543e-05 0)
(-0.00127734 -7.8724e-05 0)
(-0.000857891 -6.85603e-05 0)
(-0.000477037 -5.55447e-05 0)
(-0.000144551 -3.9018e-05 0)
(0.000124203 -1.96105e-05 0)
(0.000311991 4.19833e-06 0)
(0.000402051 3.22531e-05 0)
(0.000377094 5.78022e-05 0)
(0.000245059 7.49095e-05 0)
(6.36494e-05 6.38449e-05 0)
(2.57442e-05 -8.59446e-05 0)
(5.17498e-05 -5.17449e-05 0)
(-4.11176e-05 7.17601e-05 0)
(-0.000263798 0.000206564 0)
(-0.000595721 0.000319661 0)
(-0.00101085 0.00040518 0)
(-0.00148627 0.000466334 0)
(-0.00200494 0.000508923 0)
(-0.00255403 0.000537997 0)
(-0.00312411 0.000557377 0)
(-0.0037083 0.000569812 0)
(-0.0043015 0.000577238 0)
(-0.00489997 0.000581019 0)
(-0.00550089 0.000582125 0)
(-0.00610214 0.000581258 0)
(-0.00670209 0.000578928 0)
(-0.00729947 0.000575507 0)
(-0.0078933 0.000571271 0)
(-0.00848274 0.000566419 0)
(-0.00906714 0.000561087 0)
(-0.00964587 0.00055536 0)
(-0.0102184 0.000549279 0)
(-0.0107841 0.000542844 0)
(-0.0113425 0.000536023 0)
(-0.0118929 0.000528751 0)
(-0.0124346 0.000520936 0)
(-0.0129667 0.000512463 0)
(-0.0134883 0.000503195 0)
(-0.0139984 0.000492979 0)
(-0.0144956 0.000481646 0)
(-0.0149786 0.000469015 0)
(-0.0154459 0.000454898 0)
(-0.0158956 0.000439096 0)
(-0.0163258 0.000421409 0)
(-0.0167345 0.000401633 0)
(-0.0171194 0.000379564 0)
(-0.017478 0.000355006 0)
(-0.0178078 0.000327768 0)
(-0.018106 0.000297672 0)
(-0.0183699 0.00026456 0)
(-0.0185964 0.000228296 0)
(-0.0187827 0.00018878 0)
(-0.0189256 0.000145924 0)
(-0.0190225 9.95502e-05 0)
(-0.0190707 4.97991e-05 0)
(-0.0190668 -2.31646e-06 0)
(-0.019009 -5.70997e-05 0)
(-0.018895 -0.000115184 0)
(-0.0187229 -0.00017569 0)
(-0.0184914 -0.000238018 0)
(-0.0181996 -0.000301619 0)
(-0.0178472 -0.000365882 0)
(-0.0174344 -0.000430131 0)
(-0.0169623 -0.000493665 0)
(-0.0164323 -0.00055558 0)
(-0.0158468 -0.000615163 0)
(-0.0152086 -0.00067185 0)
(-0.0145212 -0.000724628 0)
(-0.0137885 -0.00077278 0)
(-0.0130152 -0.000815733 0)
(-0.0122062 -0.000852909 0)
(-0.0113669 -0.000883823 0)
(-0.010503 -0.00090808 0)
(-0.00962032 -0.000925356 0)
(-0.00872488 -0.000935372 0)
(-0.00782288 -0.000937846 0)
(-0.00692066 -0.000932426 0)
(-0.00602472 -0.000918594 0)
(-0.00514178 -0.000895642 0)
(-0.00427984 -0.000862653 0)
(-0.00344755 -0.000817989 0)
(-0.00265499 -0.000759194 0)
(-0.00191434 -0.000682794 0)
(-0.00124071 -0.000584204 0)
(-0.000653953 -0.000458846 0)
(-0.000177986 -0.00029967 0)
(0.000154284 -0.000106404 0)
(0.000309229 0.000103092 0)
(0.00026924 0.000268244 0)
(7.4545e-05 0.000244227 0)
(1.03989e-05 -9.52037e-05 0)
(-7.37557e-05 4.15548e-05 0)
(-0.000307386 0.000304899 0)
(-0.00065955 0.000560617 0)
(-0.00110535 0.000767182 0)
(-0.00162267 0.000922211 0)
(-0.00219407 0.00103462 0)
(-0.00280639 0.0011145 0)
(-0.00344926 0.0011703 0)
(-0.00411449 0.00120842 0)
(-0.00479571 0.00123361 0)
(-0.00548795 0.00124925 0)
(-0.00618737 0.00125778 0)
(-0.00689096 0.001261 0)
(-0.00759635 0.00126017 0)
(-0.00830164 0.00125626 0)
(-0.00900528 0.00124993 0)
(-0.00970597 0.00124171 0)
(-0.0104026 0.00123193 0)
(-0.0110942 0.00122084 0)
(-0.0117797 0.00120858 0)
(-0.0124584 0.00119519 0)
(-0.0131294 0.00118067 0)
(-0.0137916 0.00116493 0)
(-0.0144441 0.00114782 0)
(-0.0150858 0.00112916 0)
(-0.0157155 0.0011087 0)
(-0.0163319 0.00108618 0)
(-0.0169334 0.00106128 0)
(-0.0175184 0.00103366 0)
(-0.0180852 0.00100297 0)
(-0.0186317 0.000968845 0)
(-0.0191556 0.000930894 0)
(-0.0196548 0.000888736 0)
(-0.0201265 0.000841992 0)
(-0.0205681 0.000790291 0)
(-0.0209767 0.000733284 0)
(-0.0213493 0.000670648 0)
(-0.0216828 0.000602099 0)
(-0.021974 0.000527403 0)
(-0.0222196 0.000446389 0)
(-0.0224163 0.000358961 0)
(-0.022561 0.000265106 0)
(-0.0226507 0.000164901 0)
(-0.0226826 5.86674e-05 0)
(-0.0226538 -5.29619e-05 0)
(-0.0225619 -0.000169782 0)
(-0.022405 -0.000291237 0)
(-0.0221816 -0.000416428 0)
(-0.0218906 -0.000544332 0)
(-0.0215317 -0.000673823 0)
(-0.0211049 -0.000803666 0)
(-0.020611 -0.000932529 0)
(-0.0200517 -0.00105902 0)
(-0.0194289 -0.0011816 0)
(-0.0187456 -0.00129891 0)
(-0.0180052 -0.00140964 0)
(-0.017212 -0.00151221 0)
(-0.0163707 -0.00160543 0)
(-0.0154864 -0.00168825 0)
(-0.014565 -0.00175972 0)
(-0.0136122 -0.00181905 0)
(-0.0126343 -0.00186561 0)
(-0.0116377 -0.00189892 0)
(-0.010629 -0.00191858 0)
(-0.0096147 -0.00192419 0)
(-0.00860163 -0.00191528 0)
(-0.00759664 -0.00189114 0)
(-0.0066068 -0.00185063 0)
(-0.00563965 -0.00179199 0)
(-0.00470337 -0.00171257 0)
(-0.0038071 -0.00160843 0)
(-0.00296134 -0.00147391 0)
(-0.00217854 -0.00130129 0)
(-0.00147381 -0.00108085 0)
(-0.000865494 -0.000801232 0)
(-0.000377632 -0.000456335 0)
(-4.02606e-05 -5.79513e-05 0)
(0.000114603 0.000310049 0)
(5.79549e-05 0.000377084 0)
(-8.28179e-06 -2.70178e-05 0)
(-0.000215101 0.000267336 0)
(-0.000571343 0.000658369 0)
(-0.00101494 0.00100396 0)
(-0.00152936 0.00127887 0)
(-0.00209887 0.00148789 0)
(-0.00271234 0.001643 0)
(-0.00336138 0.0017562 0)
(-0.00403875 0.0018375 0)
(-0.00473816 0.00189471 0)
(-0.00545428 0.00193377 0)
(-0.00618273 0.00195913 0)
(-0.00691992 0.00197409 0)
(-0.00766291 0.00198106 0)
(-0.00840927 0.00198183 0)
(-0.00915699 0.00197771 0)
(-0.00990435 0.00196969 0)
(-0.0106499 0.00195846 0)
(-0.0113922 0.00194452 0)
(-0.0121301 0.00192819 0)
(-0.0128625 0.00190967 0)
(-0.0135883 0.00188901 0)
(-0.0143062 0.00186616 0)
(-0.0150151 0.00184101 0)
(-0.0157138 0.00181332 0)
(-0.0164009 0.0017828 0)
(-0.017075 0.00174909 0)
(-0.0177344 0.00171178 0)
(-0.0183775 0.0016704 0)
(-0.0190024 0.00162446 0)
(-0.019607 0.00157342 0)
(-0.020189 0.00151675 0)
(-0.0207461 0.00145386 0)
(-0.0212757 0.00138422 0)
(-0.0217749 0.00130726 0)
(-0.0222409 0.00122248 0)
(-0.0226706 0.00112936 0)
(-0.0230607 0.00102749 0)
(-0.023408 0.000916499 0)
(-0.0237092 0.000796103 0)
(-0.0239608 0.000666134 0)
(-0.0241596 0.000526548 0)
(-0.0243022 0.000377451 0)
(-0.0243857 0.000219119 0)
(-0.0244071 5.20705e-05 0)
(-0.0243638 -0.000122946 0)
(-0.0242536 -0.000305144 0)
(-0.0240744 -0.000493537 0)
(-0.0238251 -0.000686789 0)
(-0.0235049 -0.000883334 0)
(-0.0231135 -0.00108144 0)
(-0.0226513 -0.0012792 0)
(-0.0221196 -0.00147463 0)
(-0.0215202 -0.00166562 0)
(-0.0208556 -0.00185003 0)
(-0.0201291 -0.00202588 0)
(-0.0193444 -0.00219105 0)
(-0.0185064 -0.00234347 0)
(-0.01762 -0.00248146 0)
(-0.0166908 -0.00260351 0)
(-0.0157248 -0.00270832 0)
(-0.0147284 -0.00279486 0)
(-0.013708 -0.00286228 0)
(-0.0126704 -0.00290996 0)
(-0.0116223 -0.00293742 0)
(-0.0105706 -0.00294419 0)
(-0.0095221 -0.00292972 0)
(-0.00848369 -0.00289318 0)
(-0.00746232 -0.00283323 0)
(-0.0064651 -0.00274777 0)
(-0.00549942 -0.0026336 0)
(-0.00457312 -0.00248597 0)
(-0.00369465 -0.00229817 0)
(-0.00287319 -0.00206104 0)
(-0.00211888 -0.00176291 0)
(-0.00144328 -0.00139002 0)
(-0.000861721 -0.000930625 0)
(-0.000395508 -0.000387151 0)
(-6.92279e-05 0.000173373 0)
(3.65628e-05 0.000412443 0)
(-2.55623e-05 0.00011687 0)
(-0.00033786 0.000606127 0)
(-0.000789907 0.00110689 0)
(-0.00130274 0.00151882 0)
(-0.00186821 0.00184407 0)
(-0.00247435 0.0020952 0)
(-0.00311437 0.00228591 0)
(-0.00378366 0.00242871 0)
(-0.00447772 0.00253403 0)
(-0.00519219 0.00261028 0)
(-0.00592304 0.00266405 0)
(-0.00666668 0.00270043 0)
(-0.00742 0.00272328 0)
(-0.00818028 0.00273552 0)
(-0.0089452 0.00273934 0)
(-0.00971273 0.00273638 0)
(-0.0104811 0.00272786 0)
(-0.0112488 0.00271466 0)
(-0.0120142 0.0026974 0)
(-0.0127762 0.00267648 0)
(-0.0135333 0.00265213 0)
(-0.0142842 0.00262441 0)
(-0.0150277 0.00259326 0)
(-0.0157624 0.00255848 0)
(-0.0164868 0.00251978 0)
(-0.0171996 0.00247676 0)
(-0.0178989 0.00242894 0)
(-0.0185832 0.00237578 0)
(-0.0192505 0.00231665 0)
(-0.0198987 0.00225089 0)
(-0.0205256 0.00217781 0)
(-0.0211289 0.00209667 0)
(-0.021706 0.00200675 0)
(-0.0222541 0.00190731 0)
(-0.0227703 0.00179763 0)
(-0.0232516 0.00167705 0)
(-0.0236948 0.00154496 0)
(-0.0240965 0.0014008 0)
(-0.0244534 0.00124416 0)
(-0.024762 0.00107472 0)
(-0.0250188 0.000892325 0)
(-0.0252205 0.000697012 0)
(-0.0253637 0.000489018 0)
(-0.0254454 0.00026882 0)
(-0.0254626 3.71667e-05 0)
(-0.0254128 -0.000204926 0)
(-0.0252935 -0.000456215 0)
(-0.0251031 -0.000715205 0)
(-0.0248402 -0.000980047 0)
(-0.0245043 -0.0012486 0)
(-0.0240952 -0.0015185 0)
(-0.0236136 -0.00178716 0)
(-0.0230608 -0.00205187 0)
(-0.0224388 -0.00230981 0)
(-0.0217504 -0.00255817 0)
(-0.0209991 -0.00279426 0)
(-0.0201891 -0.00301524 0)
(-0.0193254 -0.00321851 0)
(-0.0184134 -0.00340184 0)
(-0.0174588 -0.00356331 0)
(-0.0164681 -0.00370125 0)
(-0.0154479 -0.00381435 0)
(-0.0144051 -0.0039016 0)
(-0.0133465 -0.00396229 0)
(-0.0122791 -0.00399586 0)
(-0.01121 -0.00400187 0)
(-0.010146 -0.00397981 0)
(-0.00909381 -0.00392885 0)
(-0.0080602 -0.00384766 0)
(-0.0070517 -0.00373407 0)
(-0.00607479 -0.00358474 0)
(-0.00513596 -0.00339473 0)
(-0.0042416 -0.00315703 0)
(-0.00339807 -0.00286222 0)
(-0.00261151 -0.00249813 0)
(-0.00188843 -0.00205012 0)
(-0.00123842 -0.00150294 0)
(-0.000677381 -0.00084742 0)
(-0.000222351 -0.000116888 0)
(1.67426e-05 0.000352527 0)
(-4.02962e-05 0.000322187 0)
(-0.00043462 0.00103275 0)
(-0.00095895 0.00162858 0)
(-0.00152637 0.00208916 0)
(-0.00213383 0.00245006 0)
(-0.00277056 0.00273217 0)
(-0.00343226 0.00295067 0)
(-0.00411688 0.00311798 0)
(-0.00482215 0.00324435 0)
(-0.00554537 0.00333821 0)
(-0.00628378 0.00340634 0)
(-0.00703464 0.00345407 0)
(-0.00779543 0.00348557 0)
(-0.00856381 0.00350408 0)
(-0.00933768 0.00351206 0)
(-0.0101151 0.00351138 0)
(-0.0108945 0.00350345 0)
(-0.0116741 0.00348929 0)
(-0.0124524 0.00346963 0)
(-0.0132281 0.00344492 0)
(-0.0139998 0.00341541 0)
(-0.014766 0.00338118 0)
(-0.0155253 0.00334211 0)
(-0.0162763 0.00329796 0)
(-0.0170174 0.00324835 0)
(-0.017747 0.00319279 0)
(-0.0184634 0.00313068 0)
(-0.0191647 0.00306133 0)
(-0.0198489 0.00298398 0)
(-0.0205138 0.0028978 0)
(-0.0211571 0.00280193 0)
(-0.0217763 0.00269547 0)
(-0.0223688 0.00257752 0)
(-0.0229316 0.00244716 0)
(-0.0234618 0.00230353 0)
(-0.0239563 0.00214581 0)
(-0.0244116 0.00197326 0)
(-0.0248245 0.00178525 0)
(-0.0251914 0.00158128 0)
(-0.0255088 0.00136101 0)
(-0.0257731 0.00112433 0)
(-0.0259808 0.000871332 0)
(-0.0261285 0.000602407 0)
(-0.026213 0.000318229 0)
(-0.0262314 1.98057e-05 0)
(-0.0261809 -0.00029152 0)
(-0.0260591 -0.000614075 0)
(-0.0258644 -0.000945842 0)
(-0.0255954 -0.00128442 0)
(-0.0252513 -0.00162706 0)
(-0.0248322 -0.00197073 0)
(-0.0243388 -0.00231214 0)
(-0.0237724 -0.00264783 0)
(-0.0231352 -0.00297424 0)
(-0.0224302 -0.00328784 0)
(-0.0216611 -0.00358518 0)
(-0.0208324 -0.00386271 0)
(-0.0199493 -0.00411724 0)
(-0.0190174 -0.00434602 0)
(-0.018043 -0.00454665 0)
(-0.0170328 -0.00471711 0)
(-0.0159938 -0.00485584 0)
(-0.0149332 -0.00496168 0)
(-0.0138581 -0.00503386 0)
(-0.0127759 -0.00507187 0)
(-0.0116935 -0.00507538 0)
(-0.010618 -0.005044 0)
(-0.00955593 -0.00497713 0)
(-0.00851361 -0.00487365 0)
(-0.00749703 -0.00473162 0)
(-0.00651176 -0.00454795 0)
(-0.00556293 -0.00431796 0)
(-0.00465519 -0.00403501 0)
(-0.00379252 -0.00369006 0)
(-0.00297823 -0.00327126 0)
(-0.00221555 -0.00276364 0)
(-0.00151119 -0.00214874 0)
(-0.000879672 -0.00140439 0)
(-0.000331814 -0.000520852 0)
(3.55688e-06 0.000220927 0)
(-5.15603e-05 0.000573841 0)
(-0.000507118 0.0015249 0)
(-0.00108568 0.00220629 0)
(-0.00169654 0.00270369 0)
(-0.00233928 0.00308939 0)
(-0.00300293 0.00339336 0)
(-0.00368423 0.00363254 0)
(-0.00438275 0.00381922 0)
(-0.00509773 0.0039632 0)
(-0.00582785 0.00407258 0)
(-0.00657139 0.00415396 0)
(-0.0073265 0.00421268 0)
(-0.00809124 0.00425301 0)
(-0.00886374 0.00427829 0)
(-0.0096422 0.00429116 0)
(-0.0104249 0.00429362 0)
(-0.0112103 0.0042872 0)
(-0.0119968 0.00427301 0)
(-0.0127829 0.00425184 0)
(-0.0135672 0.00422419 0)
(-0.0143483 0.00419032 0)
(-0.0151248 0.00415027 0)
(-0.0158951 0.00410391 0)
(-0.0166577 0.00405092 0)
(-0.0174111 0.00399085 0)
(-0.0181535 0.00392309 0)
(-0.0188831 0.00384693 0)
(-0.0195979 0.00376155 0)
(-0.0202959 0.00366604 0)
(-0.0209749 0.00355941 0)
(-0.0216324 0.00344064 0)
(-0.0222659 0.00330865 0)
(-0.0228726 0.00316236 0)
(-0.0234496 0.00300071 0)
(-0.0239939 0.00282265 0)
(-0.024502 0.00262722 0)
(-0.0249707 0.00241356 0)
(-0.0253965 0.00218093 0)
(-0.0257757 0.00192876 0)
(-0.0261047 0.00165669 0)
(-0.0263797 0.00136463 0)
(-0.0265973 0.00105275 0)
(-0.0267537 0.000721574 0)
(-0.0268457 0.000371973 0)
(-0.02687 5.22519e-06 0)
(-0.026824 -0.000376983 0)
(-0.026705 -0.000772544 0)
(-0.0265111 -0.00117892 0)
(-0.0262409 -0.00159313 0)
(-0.0258937 -0.0020118 0)
(-0.0254692 -0.00243118 0)
(-0.0249681 -0.00284725 0)
(-0.0243919 -0.00325576 0)
(-0.0237428 -0.00365236 0)
(-0.0230239 -0.00403276 0)
(-0.022239 -0.00439267 0)
(-0.0213929 -0.00472781 0)
(-0.020491 -0.00503437 0)
(-0.0195395 -0.005309 0)
(-0.0185449 -0.00554883 0)
(-0.0175144 -0.00575147 0)
(-0.0164555 -0.00591511 0)
(-0.0153755 -0.00603848 0)
(-0.0142823 -0.00612081 0)
(-0.0131832 -0.00616172 0)
(-0.0120857 -0.00616107 0)
(-0.0109966 -0.0061188 0)
(-0.00992241 -0.00603468 0)
(-0.0088692 -0.00590804 0)
(-0.00784234 -0.00573746 0)
(-0.00684657 -0.0055204 0)
(-0.00588588 -0.00525286 0)
(-0.00496343 -0.00492891 0)
(-0.00408151 -0.00454027 0)
(-0.00324151 -0.00407565 0)
(-0.00244489 -0.00351959 0)
(-0.00169736 -0.00284986 0)
(-0.00101405 -0.00202976 0)
(-0.000402856 -0.00100056 0)
(-3.95467e-06 4.14721e-05 0)
(-5.97021e-05 0.000860415 0)
(-0.000560082 0.00206543 0)
(-0.00117904 0.00282712 0)
(-0.00182424 0.00335418 0)
(-0.00249647 0.00375737 0)
(-0.00318377 0.00407637 0)
(-0.00388313 0.00433036 0)
(-0.0045949 0.00453171 0)
(-0.00531932 0.00468982 0)
(-0.00605603 0.00481229 0)
(-0.0068042 0.00490542 0)
(-0.00756269 0.00497433 0)
(-0.00833017 0.00502322 0)
(-0.00910523 0.00505542 0)
(-0.0098864 0.00507359 0)
(-0.0106722 0.0050798 0)
(-0.0114613 0.00507562 0)
(-0.0122522 0.00506221 0)
(-0.0130436 0.00504038 0)
(-0.0138339 0.00501065 0)
(-0.0146219 0.00497325 0)
(-0.0154061 0.00492821 0)
(-0.016185 0.00487532 0)
(-0.016957 0.00481422 0)
(-0.0177205 0.00474435 0)
(-0.0184738 0.00466501 0)
(-0.019215 0.00457537 0)
(-0.0199421 0.00447446 0)
(-0.0206531 0.00436123 0)
(-0.0213455 0.00423454 0)
(-0.022017 0.00409318 0)
(-0.022665 0.00393591 0)
(-0.0232865 0.00376147 0)
(-0.0238787 0.00356862 0)
(-0.0244384 0.00335615 0)
(-0.0249622 0.00312294 0)
(-0.0254467 0.00286799 0)
(-0.0258881 0.00259045 0)
(-0.0262828 0.00228967 0)
(-0.0266269 0.00196525 0)
(-0.0269167 0.00161711 0)
(-0.0271482 0.00124548 0)
(-0.0273178 0.000850994 0)
(-0.0274218 0.00043473 0)
(-0.0274568 -1.77629e-06 0)
(-0.0274199 -0.00045649 0)
(-0.0273082 -0.00092687 0)
(-0.0271195 -0.00140986 0)
(-0.0268523 -0.00190187 0)
(-0.0265054 -0.00239888 0)
(-0.0260787 -0.00289639 0)
(-0.0255725 -0.00338958 0)
(-0.0249883 -0.00387338 0)
(-0.0243284 -0.00434258 0)
(-0.0235957 -0.00479206 0)
(-0.0227945 -0.00521659 0)
(-0.0219296 -0.00561113 0)
(-0.021007 -0.00597115 0)
(-0.020033 -0.00629268 0)
(-0.0190149 -0.00657229 0)
(-0.0179601 -0.00680723 0)
(-0.0168767 -0.00699544 0)
(-0.0157728 -0.00713557 0)
(-0.0146565 -0.00722689 0)
(-0.0135357 -0.00726925 0)
(-0.0124179 -0.00726285 0)
(-0.0113102 -0.0072081 0)
(-0.0102193 -0.00710533 0)
(-0.00915066 -0.00695455 0)
(-0.00810939 -0.00675508 0)
(-0.00709948 -0.00650522 0)
(-0.00612402 -0.00620186 0)
(-0.00518507 -0.00584001 0)
(-0.00428374 -0.00541224 0)
(-0.00342033 -0.00490765 0)
(-0.00259559 -0.00430991 0)
(-0.00181524 -0.0035921 0)
(-0.00109589 -0.002702 0)
(-0.000444988 -0.0015302 0)
(-7.44138e-06 -0.000167033 0)
(-6.53885e-05 0.00117243 0)
(-0.00059808 0.00264121 0)
(-0.00124681 0.00348084 0)
(-0.00191885 0.0040337 0)
(-0.00261537 0.0044498 0)
(-0.00332315 0.004779 0)
(-0.00403894 0.00504324 0)
(-0.00476333 0.00525533 0)
(-0.00549711 0.00542438 0)
(-0.00624056 0.00555757 0)
(-0.00699351 0.00566077 0)
(-0.00775542 0.00573882 0)
(-0.00852549 0.00579572 0)
(-0.00930273 0.00583469 0)
(-0.010086 0.00585834 0)
(-0.0108742 0.0058687 0)
(-0.0116661 0.00586733 0)
(-0.0124603 0.00585539 0)
(-0.0132557 0.00583368 0)
(-0.014051 0.00580269 0)
(-0.0148447 0.00576262 0)
(-0.0156355 0.00571345 0)
(-0.0164219 0.00565493 0)
(-0.0172023 0.00558658 0)
(-0.0179752 0.00550778 0)
(-0.0187389 0.0054177 0)
(-0.0194913 0.00531538 0)
(-0.0202307 0.00519974 0)
(-0.0209547 0.00506955 0)
(-0.0216611 0.00492351 0)
(-0.0223475 0.00476024 0)
(-0.0230111 0.00457831 0)
(-0.0236491 0.00437629 0)
(-0.0242584 0.00415273 0)
(-0.0248359 0.00390627 0)
(-0.025378 0.0036356 0)
(-0.0258812 0.00333957 0)
(-0.0263418 0.0030172 0)
(-0.0267557 0.00266774 0)
(-0.0271191 0.00229073 0)
(-0.0274278 0.00188605 0)
(-0.0276779 0.00145398 0)
(-0.0278653 0.000995274 0)
(-0.027986 0.000511158 0)
(-0.0280365 3.42477e-06 0)
(-0.0280132 -0.000525556 0)
(-0.0279132 -0.00107281 0)
(-0.0277338 -0.00163476 0)
(-0.0274731 -0.00220721 0)
(-0.0271297 -0.00278542 0)
(-0.026703 -0.00336414 0)
(-0.0261934 -0.00393767 0)
(-0.025602 -0.00450004 0)
(-0.024931 -0.00504513 0)
(-0.0241835 -0.00556683 0)
(-0.0233639 -0.00605893 0)
(-0.0224774 -0.00651553 0)
(-0.0215301 -0.00693128 0)
(-0.020529 -0.00730146 0)
(-0.0194818 -0.00762208 0)
(-0.0183968 -0.00788994 0)
(-0.0172826 -0.00810276 0)
(-0.016148 -0.0082591 0)
(-0.0150017 -0.00835838 0)
(-0.0138522 -0.00840073 0)
(-0.0127076 -0.00838687 0)
(-0.0115751 -0.00831781 0)
(-0.0104613 -0.00819466 0)
(-0.00937193 -0.00801829 0)
(-0.00831154 -0.00778898 0)
(-0.00728368 -0.00750608 0)
(-0.00629074 -0.00716751 0)
(-0.00533403 -0.0067693 0)
(-0.00441393 -0.00630477 0)
(-0.00353019 -0.00576318 0)
(-0.00268347 -0.00512675 0)
(-0.00188 -0.0043631 0)
(-0.00113788 -0.00340366 0)
(-0.000465267 -0.00208789 0)
(-8.2709e-06 -0.00039113 0)
(-6.92181e-05 0.00150257 0)
(-0.000624806 0.0032423 0)
(-0.00129519 0.00415935 0)
(-0.00198791 0.00473631 0)
(-0.00270411 0.00516268 0)
(-0.00342928 0.00549886 0)
(-0.00415969 0.00577 0)
(-0.00489586 0.0059897 0)
(-0.00563879 0.006167 0)
(-0.00638914 0.00630871 0)
(-0.00714719 0.00642034 0)
(-0.00791287 0.0065064 0)
(-0.00868582 0.00657063 0)
(-0.00946543 0.00661607 0)
(-0.0102509 0.00664519 0)
(-0.0110414 0.00665995 0)
(-0.0118358 0.00666184 0)
(-0.0126332 0.00665198 0)
(-0.0134323 0.00663111 0)
(-0.0142321 0.00659967 0)
(-0.0150311 0.00655782 0)
(-0.0158282 0.00650547 0)
(-0.0166219 0.00644227 0)
(-0.0174108 0.00636769 0)
(-0.0181931 0.00628097 0)
(-0.0189673 0.00618119 0)
(-0.0197315 0.00606725 0)
(-0.0204836 0.00593791 0)
(-0.0212217 0.00579179 0)
(-0.0219433 0.00562742 0)
(-0.022646 0.00544324 0)
(-0.0233271 0.00523762 0)
(-0.0239837 0.00500893 0)
(-0.0246127 0.00475553 0)
(-0.0252108 0.00447585 0)
(-0.0257744 0.0041684 0)
(-0.0263 0.00383184 0)
(-0.0267835 0.00346504 0)
(-0.0272209 0.00306711 0)
(-0.0276079 0.0026375 0)
(-0.0279404 0.00217604 0)
(-0.0282138 0.00168301 0)
(-0.0284239 0.00115923 0)
(-0.0285664 0.000606059 0)
(-0.0286372 2.55232e-05 0)
(-0.0286324 -0.000579695 0)
(-0.0285484 -0.00120621 0)
(-0.0283824 -0.00184991 0)
(-0.0281317 -0.00250598 0)
(-0.0277945 -0.00316895 0)
(-0.02737 -0.00383272 0)
(-0.0268581 -0.00449069 0)
(-0.0262596 -0.00513587 0)
(-0.0255768 -0.0057611 0)
(-0.0248126 -0.00635921 0)
(-0.0239716 -0.00692287 0)
(-0.0230592 -0.00744517 0)
(-0.022082 -0.0079198 0)
(-0.0210477 -0.00834122 0)
(-0.0199645 -0.00870474 0)
(-0.0188418 -0.00900669 0)
(-0.0176888 -0.0092445 0)
(-0.0165153 -0.0094167 0)
(-0.0153308 -0.00952289 0)
(-0.0141447 -0.00956364 0)
(-0.0129654 -0.00954027 0)
(-0.0118008 -0.0094546 0)
(-0.0106577 -0.0093087 0)
(-0.00954182 -0.00910452 0)
(-0.00845763 -0.00884349 0)
(-0.00740829 -0.00852614 0)
(-0.00639575 -0.00815155 0)
(-0.00542083 -0.00771673 0)
(-0.00448344 -0.00721566 0)
(-0.00358313 -0.00663742 0)
(-0.00272076 -0.00596231 0)
(-0.00190314 -0.00515191 0)
(-0.00114961 -0.00412079 0)
(-0.000468981 -0.0026572 0)
(-7.13127e-06 -0.000621224 0)
(-7.16795e-05 0.00184533 0)
(-0.0006431 0.00386119 0)
(-0.00132891 0.00485624 0)
(-0.00203728 0.00545696 0)
(-0.00276913 0.00589232 0)
(-0.00350879 0.00623353 0)
(-0.00425194 0.00650925 0)
(-0.00499884 0.0067342 0)
(-0.00575048 0.00691756 0)
(-0.00650773 0.00706594 0)
(-0.00727114 0.00718452 0)
(-0.00804099 0.0072775 0)
(-0.00881724 0.00734833 0)
(-0.00959962 0.00739986 0)
(-0.0103876 0.00743437 0)
(-0.0111807 0.00745369 0)
(-0.011978 0.00745922 0)
(-0.0127786 0.00745198 0)
(-0.0135816 0.00743264 0)
(-0.014386 0.00740157 0)
(-0.0151906 0.00735885 0)
(-0.0159943 0.00730431 0)
(-0.0167956 0.00723752 0)
(-0.0175931 0.00715783 0)
(-0.0183855 0.00706437 0)
(-0.0191709 0.00695611 0)
(-0.0199476 0.00683179 0)
(-0.0207138 0.00669003 0)
(-0.0214672 0.00652929 0)
(-0.0222056 0.00634789 0)
(-0.0229266 0.0061441 0)
(-0.0236274 0.00591607 0)
(-0.0243051 0.00566196 0)
(-0.0249567 0.00537992 0)
(-0.0255787 0.00506814 0)
(-0.0261675 0.00472492 0)
(-0.0267193 0.00434871 0)
(-0.02723 0.00393819 0)
(-0.0276954 0.00349229 0)
(-0.0281109 0.00301032 0)
(-0.0284721 0.00249202 0)
(-0.0287742 0.00193764 0)
(-0.0290123 0.00134798 0)
(-0.0291819 0.000724526 0)
(-0.0292782 6.94748e-05 0)
(-0.0292969 -0.000614204 0)
(-0.0292339 -0.00132273 0)
(-0.0290854 -0.00205147 0)
(-0.0288484 -0.00279499 0)
(-0.0285205 -0.00354702 0)
(-0.0281002 -0.0043006 0)
(-0.027587 -0.00504809 0)
(-0.0269815 -0.00578141 0)
(-0.0262854 -0.00649223 0)
(-0.025502 -0.0071721 0)
(-0.0246357 -0.00781248 0)
(-0.0236923 -0.00840525 0)
(-0.0226791 -0.00894299 0)
(-0.0216041 -0.00941913 0)
(-0.0204769 -0.00982819 0)
(-0.0193074 -0.0101659 0)
(-0.0181063 -0.0104294 0)
(-0.0168844 -0.0106173 0)
(-0.0156523 -0.0107292 0)
(-0.0144202 -0.0107664 0)
(-0.0131977 -0.0107309 0)
(-0.0119932 -0.0106256 0)
(-0.0108139 -0.0104537 0)
(-0.00966578 -0.0102184 0)
(-0.00855329 -0.00992258 0)
(-0.00747944 -0.00956796 0)
(-0.00644586 -0.00915491 0)
(-0.00545302 -0.00868143 0)
(-0.00450057 -0.00814197 0)
(-0.00358796 -0.00752519 0)
(-0.00271629 -0.00680911 0)
(-0.00189283 -0.00594885 0)
(-0.00113771 -0.00484198 0)
(-0.000460025 -0.0032263 0)
(-4.24715e-06 -0.000849105 0)
(-7.3151e-05 0.00219653 0)
(-0.000655081 0.00449224 0)
(-0.00135149 0.00556645 0)
(-0.00207142 0.00619145 0)
(-0.00281547 0.00663547 0)
(-0.00356696 0.00698066 0)
(-0.00432096 0.00725948 0)
(-0.0050774 0.00748799 0)
(-0.00583715 0.00767576 0)
(-0.0066011 0.00782931 0)
(-0.00736998 0.00795358 0)
(-0.00814428 0.00805251 0)
(-0.00892424 0.00812929 0)
(-0.00970984 0.00818651 0)
(-0.0105009 0.0082263 0)
(-0.0112969 0.00825031 0)
(-0.0120975 0.00825981 0)
(-0.0129018 0.00825572 0)
(-0.0137092 0.0082386 0)
(-0.0145186 0.00820873 0)
(-0.0153293 0.0081661 0)
(-0.0161399 0.00811043 0)
(-0.0169494 0.0080412 0)
(-0.0177564 0.00795764 0)
(-0.0185596 0.00785879 0)
(-0.0193573 0.00774343 0)
(-0.0201478 0.0076102 0)
(-0.0209293 0.00745753 0)
(-0.0216998 0.00728371 0)
(-0.0224569 0.00708687 0)
(-0.0231984 0.00686506 0)
(-0.0239214 0.00661623 0)
(-0.0246231 0.00633828 0)
(-0.0253004 0.00602913 0)
(-0.0259498 0.00568672 0)
(-0.0265676 0.00530909 0)
(-0.0271499 0.00489445 0)
(-0.0276924 0.00444123 0)
(-0.0281907 0.00394815 0)
(-0.02864 0.00341433 0)
(-0.0290354 0.00283935 0)
(-0.0293717 0.00222334 0)
(-0.0296437 0.00156708 0)
(-0.0298462 0.000872083 0)
(-0.0299739 0.000140665 0)
(-0.0300217 -0.000623964 0)
(-0.0299847 -0.00141766 0)
(-0.0298586 -0.0022353 0)
(-0.0296394 -0.00307078 0)
(-0.0293241 -0.00391707 0)
(-0.0289103 -0.0047662 0)
(-0.0283969 -0.00560946 0)
(-0.0277841 -0.00643749 0)
(-0.0270733 -0.00724064 0)
(-0.0262676 -0.00800901 0)
(-0.0253715 -0.00873263 0)
(-0.0243913 -0.00940194 0)
(-0.0233346 -0.0100082 0)
(-0.0222105 -0.0105436 0)
(-0.0210296 -0.0110016 0)
(-0.0198032 -0.0113775 0)
(-0.0185432 -0.0116677 0)
(-0.017262 -0.0118709 0)
(-0.0159715 -0.0119872 0)
(-0.0146834 -0.0120184 0)
(-0.0134082 -0.0119675 0)
(-0.0121553 -0.0118385 0)
(-0.0109326 -0.0116362 0)
(-0.00974649 -0.0113651 0)
(-0.00860149 -0.0110298 0)
(-0.00750057 -0.0106335 0)
(-0.00644515 -0.0101778 0)
(-0.00543541 -0.00966179 0)
(-0.00447077 -0.00908021 0)
(-0.00355053 -0.00842111 0)
(-0.00267594 -0.00765994 0)
(-0.00185446 -0.00674521 0)
(-0.00110647 -0.00555753 0)
(-0.000440955 -0.00378553 0)
(5.81424e-09 -0.00106862 0)
(-7.39088e-05 0.00255324 0)
(-0.000662229 0.00513098 0)
(-0.00136555 0.00628598 0)
(-0.00209372 0.00693629 0)
(-0.00284703 0.00738925 0)
(-0.00360794 0.00773805 0)
(-0.00437099 0.00801914 0)
(-0.00513572 0.00825013 0)
(-0.00590281 0.00844111 0)
(-0.0066731 0.00859868 0)
(-0.00744739 0.00872766 0)
(-0.00822631 0.00883175 0)
(-0.00901028 0.0089139 0)
(-0.00979952 0.00897651 0)
(-0.010594 0.00902148 0)
(-0.0113936 0.00905031 0)
(-0.0121979 0.00906413 0)
(-0.0130064 0.00906371 0)
(-0.0138187 0.00904951 0)
(-0.0146338 0.0090217 0)
(-0.015451 0.00898015 0)
(-0.0162694 0.00892449 0)
(-0.0170879 0.00885408 0)
(-0.0179052 0.00876804 0)
(-0.0187202 0.00866525 0)
(-0.0195314 0.00854438 0)
(-0.020337 0.00840389 0)
(-0.0211355 0.00824205 0)
(-0.0219248 0.00805695 0)
(-0.0227028 0.00784653 0)
(-0.023467 0.0076086 0)
(-0.024215 0.00734088 0)
(-0.0249437 0.00704101 0)
(-0.0256501 0.00670664 0)
(-0.0263307 0.00633542 0)
(-0.0269816 0.00592511 0)
(-0.027599 0.00547362 0)
(-0.0281782 0.00497908 0)
(-0.0287147 0.00443996 0)
(-0.0292034 0.00385509 0)
(-0.0296389 0.00322383 0)
(-0.0300157 0.00254612 0)
(-0.030328 0.00182263 0)
(-0.0305699 0.00105482 0)
(-0.0307353 0.000245064 0)
(-0.0308184 -0.000603266 0)
(-0.0308135 -0.00148571 0)
(-0.0307151 -0.00239669 0)
(-0.0305185 -0.00332945 0)
(-0.0302194 -0.00427611 0)
(-0.0298148 -0.00522769 0)
(-0.0293027 -0.00617425 0)
(-0.0286825 -0.00710502 0)
(-0.0279553 -0.00800878 0)
(-0.0271239 -0.00887396 0)
(-0.0261929 -0.00968892 0)
(-0.025169 -0.0104424 0)
(-0.0240605 -0.0111239 0)
(-0.0228775 -0.0117242 0)
(-0.021632 -0.0122357 0)
(-0.0203367 -0.0126525 0)
(-0.0190056 -0.0129709 0)
(-0.0176526 -0.0131892 0)
(-0.0162917 -0.013308 0)
(-0.014936 -0.0133299 0)
(-0.0135977 -0.0132592 0)
(-0.0122874 -0.0131013 0)
(-0.0110138 -0.0128625 0)
(-0.00978392 -0.0125495 0)
(-0.00860248 -0.0121684 0)
(-0.00747245 -0.0117242 0)
(-0.00639505 -0.0112199 0)
(-0.00537015 -0.0106555 0)
(-0.00439682 -0.0100263 0)
(-0.00347412 -0.00931951 0)
(-0.00260314 -0.00850777 0)
(-0.00179124 -0.00753292 0)
(-0.00105846 -0.0062589 0)
(-0.000413334 -0.0043267 0)
(5.3329e-06 -0.00127473 0)
(-7.40439e-05 0.00291294 0)
(-0.000665652 0.00577418 0)
(-0.00137304 0.00701167 0)
(-0.00210675 0.00768858 0)
(-0.00286681 0.00815118 0)
(-0.00363501 0.0085037 0)
(-0.00440541 0.00878672 0)
(-0.00517717 0.00901956 0)
(-0.00595075 0.00921298 0)
(-0.00672688 0.00937379 0)
(-0.00750636 0.00950673 0)
(-0.00828991 0.00961538 0)
(-0.00907808 0.00970248 0)
(-0.00987124 0.00977024 0)
(-0.0106696 0.00982037 0)
(-0.0114731 0.0098542 0)
(-0.0122817 0.0098727 0)
(-0.013095 0.00987651 0)
(-0.0139126 0.00986597 0)
(-0.0147341 0.00984112 0)
(-0.0155586 0.00980173 0)
(-0.0163855 0.0097473 0)
(-0.0172137 0.00967707 0)
(-0.0180424 0.00959002 0)
(-0.0188703 0.00948492 0)
(-0.0196962 0.00936028 0)
(-0.0205185 0.00921439 0)
(-0.0213356 0.00904534 0)
(-0.0221456 0.00885102 0)
(-0.0229466 0.00862916 0)
(-0.0237362 0.00837732 0)
(-0.0245119 0.00809296 0)
(-0.0252708 0.00777345 0)
(-0.0260098 0.00741612 0)
(-0.0267255 0.00701831 0)
(-0.027414 0.00657745 0)
(-0.0280712 0.0060911 0)
(-0.0286924 0.00555704 0)
(-0.0292728 0.00497338 0)
(-0.0298069 0.00433861 0)
(-0.030289 0.00365179 0)
(-0.0307131 0.00291256 0)
(-0.0310727 0.00212137 0)
(-0.0313611 0.00127954 0)
(-0.0315716 0.000389378 0)
(-0.0316971 -0.000545648 0)
(-0.031731 -0.00152085 0)
(-0.0316666 -0.00253023 0)
(-0.0314979 -0.00356641 0)
(-0.0312196 -0.00462064 0)
(-0.0308275 -0.00568285 0)
(-0.0303184 -0.00674171 0)