/*--------------------------------*- C++ -*----------------------------------*\
  =========                 |
  \\      /  F ield         | OpenFOAM: The Open Source CFD Toolbox
   \\    /   O peration     | Website:  https://openfoam.org
    \\  /    A nd           | Version:  13
     \\/     M anipulation  |
\*---------------------------------------------------------------------------*/
FoamFile
{
    format      ascii;
    class       volScalarField;
    location    "900";
    object      k;
}
// * * * * * * * * * * * * * * * * * * * * * * * * * * * * * * * * * * * * * //

dimensions      [0 2 -2 0 0 0 0];

internalField   nonuniform List<scalar> 
12225
(
0.739505
1.40095
1.65036
1.70749
1.72594
1.58364
1.51395
2.01344
3.08169
3.03489
2.26977
2.85061
2.17634
2.6067
2.04869
2.05075
2.55033
2.67519
0.212612
0.158338
0.144357
0.156858
0.172803
0.174653
0.212831
0.232514
0.300725
0.334942
0.390782
0.443771
0.477732
0.584897
0.692875
0.770066
0.821756
0.863167
0.37528
0.154264
0.0870636
0.0625073
0.0478128
0.0646793
0.0880611
0.0916686
0.095336
0.142704
0.189508
0.227377
0.268746
0.291947
0.31052
0.317164
0.318819
0.32472
0.430899
0.229914
0.144306
0.105134
0.107801
0.138554
0.185831
0.230413
0.2648
0.24725
0.245014
0.276207
0.277538
0.289959
0.296405
0.290812
0.274595
0.257304
0.376701
0.304622
0.230654
0.18706
0.186866
0.212523
0.257964
0.264194
0.265457
0.266771
0.296846
0.301543
0.302359
0.313592
0.315189
0.305577
0.288892
0.269813
0.369481
0.337937
0.30166
0.268469
0.268844
0.282416
0.308154
0.306611
0.303701
0.31634
0.331979
0.328181
0.330258
0.332566
0.329721
0.319395
0.306494
0.290101
0.368499
0.356407
0.336379
0.317279
0.318804
0.328139
0.326582
0.335924
0.329541
0.337177
0.337982
0.342233
0.34284
0.341715
0.338339
0.329569
0.320542
0.308158
0.369721
0.365728
0.360031
0.349713
0.347485
0.345137
0.343405
0.348601
0.344341
0.346944
0.347568
0.348921
0.348566
0.346448
0.343542
0.337098
0.330992
0.322485
0.371045
0.369329
0.366295
0.36246
0.359731
0.358059
0.356332
0.356092
0.354752
0.354121
0.353538
0.352458
0.351445
0.349101
0.346768
0.34245
0.338457
0.332868
0.373124
0.370741
0.368377
0.365923
0.363787
0.361899
0.360282
0.358937
0.35765
0.356303
0.355254
0.35382
0.352558
0.350592
0.348701
0.345827
0.343178
0.339619
0.37369
0.371366
0.369172
0.367025
0.365057
0.363186
0.361513
0.359899
0.358462
0.356988
0.35571
0.354279
0.352968
0.351346
0.349783
0.34777
0.345914
0.343567
0.373803
0.371514
0.369366
0.367294
0.365369
0.363514
0.361808
0.360148
0.358631
0.35713
0.355768
0.354375
0.353073
0.351646
0.350281
0.348702
0.347249
0.345545
0.373827
0.371548
0.369407
0.367356
0.365435
0.363589
0.361865
0.3602
0.358647
0.357143
0.355743
0.354369
0.353076
0.351764
0.350515
0.349189
0.347953
0.346615
0.373829
0.371553
0.369407
0.367362
0.365433
0.363592
0.361855
0.360193
0.358623
0.357119
0.3557
0.354334
0.353042
0.351781
0.350585
0.349393
0.348267
0.347134
0.373827
0.371553
0.369401
0.367357
0.365421
0.36358
0.361835
0.360172
0.358595
0.35709
0.355662
0.354297
0.353001
0.351758
0.350575
0.349435
0.348347
0.347298
0.373826
0.371551
0.369396
0.36735
0.36541
0.363568
0.361818
0.360154
0.358571
0.357065
0.355631
0.354266
0.352965
0.351725
0.350542
0.349413
0.348334
0.347304
0.373825
0.37155
0.369392
0.367346
0.365403
0.363559
0.361806
0.360139
0.358554
0.357046
0.35561
0.354242
0.352938
0.351696
0.350511
0.349381
0.348302
0.347273
0.373825
0.371549
0.369391
0.367343
0.365399
0.363553
0.361799
0.360131
0.358544
0.357034
0.355596
0.354226
0.35292
0.351676
0.350489
0.349357
0.348277
0.347246
0.373825
0.371549
0.369391
0.367343
0.365399
0.363552
0.361798
0.360129
0.358542
0.357031
0.355592
0.354221
0.352915
0.351669
0.350481
0.349348
0.348267
0.347235
0.373825
0.37155
0.369393
0.367346
0.365403
0.363558
0.361804
0.360137
0.35855
0.357039
0.355601
0.35423
0.352925
0.351679
0.350492
0.349357
0.348273
0.347236
0.373825
0.371553
0.369397
0.367354
0.365409
0.363562
0.361804
0.360135
0.358544
0.357034
0.355595
0.354228
0.352922
0.351679
0.350484
0.349337
0.348224
0.347149
0.373817
0.371563
0.369414
0.367359
0.365366
0.363468
0.361661
0.359951
0.35833
0.356807
0.355364
0.354002
0.352702
0.351449
0.350216
0.348977
0.34772
0.346443
0.373781
0.371622
0.369452
0.367198
0.364799
0.362575
0.360469
0.358526
0.35673
0.35512
0.353644
0.352263
0.350967
0.349661
0.348287
0.346762
0.345069
0.343206
0.373709
0.371711
0.369141
0.365694
0.361325
0.357798
0.354418
0.351478
0.349036
0.346942
0.345322
0.343737
0.342353
0.34099
0.339378
0.337653
0.335243
0.332495
0.373478
0.371876
0.366635
0.3575
0.345789
0.336632
0.328691
0.321603
0.316601
0.311852
0.307829
0.304814
0.301629
0.300216
0.295556
0.299227
0.295885
0.297628
0.37357
0.372328
0.358586
0.330674
0.30513
0.275607
0.260455
0.238185
0.226842
0.217283
0.209846
0.205402
0.197622
0.201127
0.197245
0.212935
0.212746
0.225977
0.374522
0.369918
0.333689
0.253481
0.2028
0.147476
0.118781
0.0936205
0.0863563
0.0799196
0.0756349
0.0726711
0.0828633
0.113815
0.137786
0.142257
0.147012
0.158091
0.376274
0.320665
0.178609
0.0909227
0.0429461
0.0234365
0.0155963
0.0146534
0.0187484
0.0170128
0.0303237
0.0341881
0.0564391
0.0994015
0.133446
0.142455
0.160216
0.177833
0.403234
0.175355
0.0870529
0.0699545
0.079315
0.0835785
0.0932303
0.130632
0.177117
0.182568
0.18309
0.225999
0.305001
0.395263
0.473338
0.528621
0.565927
0.595378
0.863708
1.20695
1.4302
1.55381
1.59592
1.58964
1.55665
1.5173
1.46212
1.42312
1.38241
1.34214
1.30771
1.2804
1.25902
1.24258
1.228
1.21608
1.50461e-08
3.71259e-07
1.90939e-06
7.58703e-06
2.55786e-05
7.81355e-05
0.000209814
0.000426021
0.000702114
0.000996192
0.00126508
0.00147423
0.00161788
0.00167339
0.00165273
0.00158648
0.00145745
0.0012452
0.0010554
0.00089539
0.000744409
0.000598389
0.000457564
0.00032802
0.000213631
0.000125703
6.78559e-05
3.51298e-05
1.8487e-05
1.03593e-05
6.43682e-06
4.83234e-06
6.1531e-06
1.23713e-05
3.90351e-05
0.000102297
0.000327206
0.000716815
0.00111347
0.00129882
0.00121738
0.000995818
0.000774775
0.000610508
0.000609691
0.000733201
0.000945692
0.00167117
0.0030673
0.00756373
0.0222729
0.0527372
0.0866964
0.113641
0.129728
0.137265
0.111811
0.120145
0.145579
0.137531
0.162071
0.162478
0.179642
0.145959
0.172326
0.175373
0.184927
0.193229
0.200794
0.208955
0.216398
0.224124
0.23149
0.23894
0.246199
0.253466
0.26062
0.267751
0.274806
0.281823
0.288782
0.295697
0.302558
0.309372
0.316129
0.322836
0.329479
0.336065
0.34258
0.349027
0.355401
0.361686
0.367882
0.373967
0.379942
0.385784
0.391492
0.397042
0.402435
0.407649
0.412689
0.417551
0.422252
0.426831
0.431342
0.435661
0.439828
0.443839
0.447678
0.45136
0.454862
0.458201
0.461354
0.464338
0.467134
0.469755
0.472188
0.474445
0.476513
0.478404
0.480108
0.481632
0.482973
0.484134
0.485116
0.485918
0.48654
0.486978
0.487224
0.487263
0.487153
0.487018
0.486777
0.486262
0.485633
0.484843
0.483981
0.482958
0.481803
0.480347
0.478749
0.476958
0.47504
0.472957
0.470775
0.468388
0.465949
0.463286
0.460601
0.457667
0.454678
0.451638
0.448336
0.445097
0.441577
0.438155
0.434452
0.430864
0.426996
0.423217
0.419239
0.415332
0.411326
0.407325
0.403293
0.399256
0.395212
0.391184
0.387173
0.383201
0.379263
0.375373
0.371523
0.367701
0.363865
0.359958
0.355766
0.350955
0.344954
0.326836
7.17266e-08
2.02213e-06
1.37066e-05
5.93211e-05
0.000220289
0.000655983
0.00156724
0.00289547
0.004467
0.00609587
0.00760362
0.00885481
0.00978692
0.010394
0.0106752
0.0106346
0.0104916
0.0101531
0.0095944
0.00880473
0.00779726
0.00663409
0.0053561
0.00407553
0.00283268
0.00187822
0.00119779
0.000745676
0.000457637
0.000283349
0.000185403
0.000134055
0.000128155
0.000182614
0.000488865
0.00111095
0.0033326
0.00680837
0.0100271
0.0121083
0.0122535
0.0116806
0.0102626
0.00982623
0.0113697
0.0158633
0.0224521
0.0339119
0.0534686
0.0787657
0.103298
0.1271
0.14568
0.160741
0.174407
0.189789
0.201683
0.220042
0.235575
0.251681
0.270307
0.287834
0.306727
0.323457
0.344342
0.362138
0.380704
0.398849
0.416675
0.4344
0.451876
0.469245
0.486467
0.503599
0.52064
0.537617
0.554532
0.5714
0.588225
0.60501
0.62176
0.638473
0.65515
0.67179
0.688388
0.704941
0.721444
0.737893
0.754277
0.770604
0.786853
0.803019
0.819081
0.835027
0.850837
0.866493
0.881973
0.897249
0.912298
0.927085
0.941582
0.955744
0.969537
0.982922
0.99589
1.0086
1.02102
1.03313
1.04493
1.0564
1.06754
1.07832
1.08875
1.0988
1.10847
1.11775
1.12664
1.13512
1.14319
1.15085
1.1581
1.16492
1.17132
1.17729
1.18283
1.18795
1.19263
1.19689
1.20072
1.20411
1.20708
1.20963
1.21175
1.21344
1.21467
1.21526
1.21619
1.21629
1.21645
1.21646
1.21607
1.21505
1.21365
1.21181
1.20959
1.20695
1.20389
1.20044
1.19656
1.19226
1.18762
1.18254
1.17708
1.17121
1.165
1.15838
1.15145
1.14414
1.13651
1.12855
1.12035
1.11188
1.1032
1.09431
1.08522
1.07596
1.06654
1.057
1.04736
1.03765
1.02789
1.0181
1.00827
0.998373
0.988384
0.978201
0.967498
0.956015
0.942022
0.911193
1.94397e-07
5.8175e-06
4.43985e-05
0.000210301
0.000681833
0.00181246
0.00377001
0.00607006
0.00840792
0.0105465
0.0123526
0.0137541
0.0147483
0.0153571
0.0156278
0.0156003
0.0154565
0.015104
0.014598
0.0139533
0.0131735
0.0122458
0.0111609
0.00991877
0.00854553
0.0069834
0.00538039
0.00393034
0.0026822
0.00179104
0.0012389
0.000915709
0.000761523
0.000666219
0.0023351
0.00541553
0.0131931
0.0211669
0.0271588
0.0307673
0.0321848
0.0321252
0.0342446
0.0423157
0.0587933
0.0763412
0.0947881
0.115507
0.136274
0.155743
0.176385
0.196678
0.217843
0.240598
0.26531
0.291312
0.317373
0.344923
0.373052
0.401477
0.428983
0.456232
0.482969
0.509122
0.534971
0.560021
0.5847
0.608966
0.632856
0.656478
0.679846
0.703025
0.726038
0.748919
0.771688
0.794363
0.816955
0.839472
0.86192
0.884302
0.906616
0.928863
0.95104
0.973142
0.995163
1.0171
1.03894
1.06068
1.08231
1.10382
1.12522
1.14647
1.16757
1.1885
1.20924
1.22979
1.25011
1.27021
1.29005
1.30962
1.32891
1.3479
1.36658
1.38492
1.40291
1.42054
1.43777
1.45459
1.47097
1.4869
1.50236
1.51733
1.5318
1.54575
1.55917
1.57205
1.58437
1.59612
1.60731
1.61792
1.62795
1.6374
1.64626
1.65452
1.6622
1.66929
1.67579
1.68171
1.68704
1.69178
1.69595
1.69954
1.70256
1.70501
1.7069
1.70814
1.709
1.70928
1.70911
1.7084
1.70713
1.70524
1.70277
1.69972
1.69608
1.69189
1.68709
1.68176
1.67581
1.66931
1.66228
1.65463
1.6465
1.63775
1.62855
1.61876
1.60854
1.59781
1.58669
1.57513
1.56325
1.55101
1.53847
1.52566
1.5126
1.49932
1.48584
1.47221
1.45846
1.44462
1.43074
1.41684
1.40293
1.38902
1.37509
1.3611
1.34684
1.33212
1.31513
1.28627
7.22851e-07
2.172e-05
0.000168861
0.000740647
0.00206091
0.00493117
0.0084061
0.0118303
0.0148367
0.0172385
0.0189945
0.0201358
0.0207563
0.0209173
0.0208141
0.020506
0.0199805
0.0193344
0.0186035
0.0178009
0.0169326
0.0159906
0.0149659
0.0138329
0.0125815
0.011191
0.00968305
0.00812184
0.00664888
0.0052083
0.0041455
0.00305732
0.00305571
0.00431984
0.0102199
0.0231615
0.0365457
0.0469761
0.0544279
0.0600538
0.0665211
0.0763076
0.0896227
0.105094
0.12046
0.13649
0.154248
0.174452
0.195592
0.21896
0.244228
0.271272
0.300269
0.33089
0.362668
0.395046
0.427686
0.46054
0.493213
0.525597
0.557426
0.588775
0.619574
0.649821
0.679563
0.708812
0.737663
0.766169
0.794382
0.822361
0.850142
0.877766
0.905259
0.932646
0.959941
0.987156
1.0143
1.04137
1.06837
1.0953
1.12216
1.14894
1.17563
1.20223
1.22872
1.25511
1.28138
1.30751
1.33351
1.35936
1.38506
1.41059
1.43594
1.46109
1.48603
1.51074
1.53521
1.55942
1.58335
1.607
1.63033
1.65333
1.67597
1.69822
1.72005
1.74142
1.76232
1.78271
1.80257
1.82187
1.8406
1.85872
1.87623
1.89309
1.90929
1.92483
1.93968
1.95383
1.96727
1.98001
1.99202
2.00331
2.01388
2.02372
2.03283
2.04122
2.04888
2.05583
2.06205
2.06756
2.07235
2.07643
2.07981
2.08249
2.08448
2.08569
2.08624
2.08621
2.08548
2.08404
2.0819
2.07905
2.07548
2.07122
2.06624
2.06057
2.05418
2.04713
2.03934
2.0309
2.0218
2.01198
2.00156
1.99044
1.97874
1.96638
1.95349
1.94002
1.92607
1.91162
1.89677
1.88152
1.86593
1.85002
1.83383
1.81739
1.80073
1.78391
1.76696
1.74993
1.73287
1.71584
1.69887
1.68197
1.66517
1.64846
1.63172
1.61483
1.5962
1.56946
2.47733e-06
7.43612e-05
0.000554139
0.00210863
0.00584567
0.0110367
0.0159467
0.0199264
0.0227983
0.0246362
0.0256278
0.0259738
0.0258793
0.0255149
0.0248674
0.0240856
0.0232251
0.0223224
0.021403
0.0204749
0.0195374
0.0185806
0.0175919
0.0165464
0.0154242
0.0141935
0.0128479
0.0114279
0.01003
0.00870002
0.00718962
0.00726268
0.00993958
0.0197951
0.0382727
0.056086
0.0709012
0.0822025
0.0912729
0.10019
0.110229
0.121516
0.133991
0.147576
0.163561
0.182455
0.204033
0.228304
0.254928
0.283781
0.31437
0.346484
0.379822
0.414012
0.448704
0.483657
0.518732
0.553819
0.588765
0.623491
0.6579
0.691977
0.725684
0.759022
0.79201
0.824682
0.857079
0.889244
0.921217
0.953038
0.984735
1.01634
1.04786
1.07933
1.11074
1.1421
1.17342
1.20468
1.23589
1.26703
1.29809
1.32908
1.35997
1.39075
1.42142
1.45196
1.48237
1.51262
1.54271
1.57262
1.60236
1.6319
1.66123
1.69033
1.71919
1.74779
1.77612
1.80415
1.83188
1.85927
1.88629
1.91293
1.93914
1.96489
1.99015
2.01488
2.03906
2.06266
2.08563
2.10795
2.1296
2.15054
2.17076
2.19022
2.20892
2.22682
2.24392
2.2602
2.27564
2.29025
2.30401
2.31692
2.32897
2.34017
2.3505
2.35999
2.36862
2.37639
2.38332
2.38941
2.39465
2.39905
2.40262
2.40537
2.40728
2.40826
2.40854
2.40804
2.4067
2.40454
2.40156
2.39776
2.39314
2.3877
2.38145
2.3744
2.36653
2.35788
2.34841
2.33818
2.32719
2.31542
2.30293
2.28969
2.27575
2.26111
2.24584
2.22994
2.21348
2.19649
2.17903
2.16113
2.14284
2.12421
2.10527
2.08606
2.06661
2.04699
2.02725
2.00745
1.98764
1.96789
1.94826
1.92878
1.9095
1.89044
1.87158
1.85281
1.83281
1.80691
7.8302e-06
0.000229871
0.00163812
0.00581682
0.0133483
0.0201127
0.025017
0.0280985
0.0297561
0.0304247
0.0304067
0.0300544
0.0293116
0.0283725
0.0273291
0.0262406
0.0251523
0.0240899
0.023069
0.0220893
0.0211443
0.0202183
0.0192911
0.0183322
0.0173263
0.0162294
0.0150091
0.0136421
0.0123467
0.0119038
0.0131215
0.0191777
0.0335654
0.0549449
0.0761976
0.0938825
0.107147
0.11678
0.124775
0.132901
0.14211
0.153165
0.167228
0.184465
0.204844
0.228487
0.254942
0.283736
0.314338
0.346372
0.379539
0.41363
0.448444
0.483801
0.519553
0.555598
0.591864
0.628279
0.664756
0.701226
0.73762
0.773905
0.81005
0.846042
0.881883
0.917584
0.953167
0.988656
1.02408
1.05945
1.0948
1.13013
1.16547
1.20081
1.23615
1.27149
1.30683
1.34214
1.37741
1.41264
1.4478
1.48288
1.51786
1.55274
1.58749
1.6221
1.65655
1.69084
1.72493
1.75884
1.79253
1.82601
1.85924
1.89222
1.92492
1.95734
1.98944
2.02121
2.05262
2.08365
2.11427
2.14443
2.17411
2.20326
2.23186
2.25986
2.28724
2.31395
2.33995
2.36522
2.38971
2.4134
2.43626
2.45826
2.47937
2.49958
2.51887
2.53721
2.55459
2.571
2.58644
2.60089
2.61436
2.62684
2.63834
2.64884
2.65836
2.6669
2.67446
2.68105
2.68666
2.69131
2.695
2.69775
2.69949
2.70022
2.70017
2.69916
2.69721
2.69432
2.6905
2.68576
2.6801
2.67352
2.66603
2.65764
2.64834
2.63816
2.6271
2.61517
2.60239
2.58877
2.57434
2.55909
2.54307
2.52629
2.50879
2.49062
2.47183
2.45246
2.43257
2.4122
2.39141
2.37024
2.34873
2.32694
2.3049
2.28269
2.26035
2.23796
2.21559
2.19331
2.17119
2.14929
2.12768
2.10642
2.08549
2.06487
2.04339
2.01733
2.48633e-05
0.000686913
0.00446982
0.0138573
0.0231301
0.0291807
0.0325837
0.0342437
0.0347792
0.034604
0.0339507
0.0328901
0.0316299
0.030271
0.0288935
0.0275523
0.026285
0.0251081
0.0240265
0.0230299
0.0221032
0.0212196
0.0203446
0.0194109
0.0183684
0.0172156
0.0160444
0.0153526
0.0161453
0.0205403
0.0314485
0.0502331
0.0727513
0.0940447
0.112095
0.125318
0.134343
0.141254
0.148059
0.156402
0.167848
0.18275
0.201108
0.22295
0.2479
0.275507
0.305094
0.336146
0.368306
0.40137
0.435208
0.469729
0.504857
0.540531
0.576701
0.613323
0.650352
0.687729
0.725386
0.763268
0.801322
0.839503
0.877779
0.916123
0.954524
0.992978
1.03149
1.07007
1.10872
1.14746
1.1863
1.22523
1.26426
1.30338
1.34258
1.38185
1.42115
1.46048
1.4998
1.5391
1.57835
1.61753
1.65661
1.69558
1.73442
1.77312
1.81164
1.84997
1.88809
1.926
1.96367
2.0011
2.03825
2.07512
2.11168
2.14792
2.1838
2.21932
2.25443
2.2891
2.32332
2.35702
2.39018
2.42276
2.45471
2.486
2.5166
2.54644
2.5755
2.60373
2.63109
2.65755
2.68307
2.70762
2.73117
2.75369
2.77516
2.79556
2.81487
2.83308
2.85018
2.86617
2.88103
2.89477
2.90739
2.91889
2.92926
2.93852
2.94667
2.95372
2.95966
2.96451
2.96828
2.97097
2.9725
2.97299
2.97252
2.97098
2.96838
2.96475
2.96008
2.95439
2.94769
2.93998
2.93126
2.92155
2.91085
2.89918
2.88655
2.87297
2.85846
2.84303
2.82672
2.80953
2.7915
2.77265
2.75302
2.73267
2.71164
2.68998
2.66776
2.64502
2.62182
2.59821
2.57425
2.54997
2.52545
2.50073
2.4759
2.45102
2.42617
2.40144
2.3769
2.35264
2.32873
2.30525
2.28224
2.25966
2.23651
2.20955
7.44735e-05
0.00189472
0.0106422
0.0237658
0.0319849
0.0363729
0.0384636
0.0391297
0.0389004
0.0380478
0.0367092
0.0351118
0.0333916
0.0316556
0.0299859
0.0284345
0.0270311
0.0257806
0.0246759
0.0236974
0.0228277
0.0220607
0.0213805
0.0208327
0.0205792
0.0208964
0.0223968
0.0259567
0.033317
0.0474836
0.0668762
0.0875948
0.107383
0.124037
0.136516
0.145058
0.151445
0.15817
0.167093
0.179233
0.194953
0.214275
0.236887
0.262383
0.290153
0.319618
0.350274
0.381833
0.414153
0.447174
0.480871
0.515233
0.550256
0.585938
0.622272
0.659234
0.696785
0.734887
0.773495
0.812559
0.852032
0.891868
0.932032
0.972493
1.01323
1.05423
1.09548
1.13698
1.17873
1.22072
1.26295
1.30541
1.34808
1.39096
1.434
1.47719
1.5205
1.56387
1.60729
1.65071
1.6941
1.73743
1.78067
1.8238
1.86679
1.90963
1.95228
1.99472
2.03693
2.0789
2.12061
2.16205
2.20318
2.244
2.28447
2.32458
2.3643
2.4036
2.44246
2.48083
2.51869
2.55598
2.59268
2.62873
2.6641
2.69873
2.73258
2.76561
2.79777
2.82901
2.85928
2.88853
2.91674
2.94387
2.96987
2.99471
3.01838
3.04085
3.06209
3.08209
3.10084
3.11834
3.13457
3.14954
3.16325
3.1757
3.18689
3.19683
3.20552
3.21298
3.2192
3.2242
3.22799
3.23057
3.23185
3.23206
3.23111
3.229
3.22572
3.2213
3.21576
3.2091
3.20133
3.19246
3.18251
3.17148
3.15938
3.14623
3.13204
3.11682
3.10061
3.08342
3.06527
3.04618
3.02618
3.0053
2.9836
2.96112
2.93791
2.91404
2.88955
2.86451
2.83898
2.81301
2.78665
2.75997
2.73301
2.70586
2.67858
2.65125
2.62397
2.59682
2.56989
2.54327
2.51705
2.49133
2.46615
2.44151
2.41647
2.38804
0.000194395
0.0045135
0.0198294
0.03269
0.0393845
0.042576
0.0437528
0.0436502
0.0427332
0.0411712
0.0392478
0.0371355
0.0349823
0.0329034
0.0309846
0.0292765
0.0278042
0.0265655
0.0255439
0.0247101
0.0240217
0.0235152
0.0232494
0.0234781
0.0248083
0.0280977
0.0347573
0.046079
0.061824
0.0796721
0.0980166
0.115232
0.129946
0.141428
0.150044
0.157198
0.164868
0.174753
0.18776
0.204244
0.224074
0.246898
0.272221
0.29952
0.328262
0.358031
0.388572
0.419783
0.451646
0.484178
0.517414
0.551386
0.586132
0.621671
0.658009
0.695139
0.733048
0.77171
0.811092
0.851155
0.891858
0.933162
0.975031
1.01743
1.06034
1.10373
1.14759
1.19191
1.23666
1.28184
1.32743
1.37339
1.41972
1.46637
1.5133
1.56047
1.60783
1.65533
1.70291
1.75053
1.79814
1.84571
1.89319
1.94057
1.9878
2.03486
2.08172
2.12835
2.17473
2.22083
2.26665
2.31216
2.35734
2.40216
2.44661
2.49065
2.53426
2.5774
2.62006
2.66218
2.70373
2.74467
2.78494
2.82451
2.86331
2.90132
2.93847
2.9747
3.00998
3.04424
3.07742
3.10949
3.14039
3.17008
3.19853
3.22569
3.25153
3.27603
3.29917
3.32092
3.34128
3.36023
3.37778
3.39392
3.40866
3.422
3.43393
3.44447
3.45364
3.46143
3.46785
3.47293
3.47667
3.47905
3.48006
3.47987
3.47838
3.47562
3.47159
3.46633
3.45985
3.45217
3.44329
3.43324
3.42202
3.40964
3.39613
3.38149
3.36574
3.34891
3.331
3.31205
3.29209
3.27113
3.2492
3.22634
3.20261
3.17806
3.15274
3.12671
3.10003
3.07275
3.04495
3.01668
2.98799
2.95895
2.92962
2.90007
2.8704
2.84067
2.81099
2.78145
2.75213
2.72315
2.6946
2.66658
2.63916
2.61235
2.58527
2.55515
0.000435438
0.00919293
0.0291835
0.0406728
0.0461076
0.0484174
0.0488799
0.0481412
0.046545
0.0443915
0.0419172
0.0393231
0.0367809
0.0344233
0.0323455
0.0306037
0.0292291
0.028226
0.0275719
0.0273329
0.0275181
0.0284084
0.0301867
0.0333923
0.038946
0.0477653
0.0595648
0.0737016
0.0891994
0.104842
0.119493
0.13229
0.142967
0.151893
0.160095
0.169029
0.180022
0.193906
0.210902
0.230859
0.253409
0.278107
0.304495
0.332147
0.360717
0.389987
0.419866
0.450353
0.481493
0.513346
0.545978
0.579451
0.613812
0.649093
0.685321
0.722508
0.760656
0.799752
0.839779
0.880709
0.922511
0.965155
1.00861
1.05284
1.09783
1.14353
1.18994
1.23703
1.28477
1.33314
1.3821
1.43161
1.48163
1.53212
1.583
1.63423
1.68574
1.73744
1.78928
1.8412
1.89312
1.94501
1.99682
2.04852
2.10006
2.15142
2.20256
2.25345
2.30405
2.35436
2.40434
2.45397
2.50325
2.55213
2.6006
2.64861
2.69615
2.74317
2.78964
2.83554
2.8808
2.92539
2.96925
3.01233
3.05458
3.09595
3.13637
3.1758
3.21416
3.25141
3.28747
3.32231
3.35585
3.38806
3.41889
3.44829
3.47624
3.5027
3.52764
3.55105
3.57292
3.59323
3.61199
3.6292
3.64485
3.65895
3.67152
3.68255
3.69206
3.70007
3.70658
3.71162
3.71519
3.71728
3.71793
3.71721
3.71508
3.71158
3.70672
3.70053
3.69303
3.68425
3.6742
3.6629
3.65036
3.6366
3.62163
3.60548
3.58817
3.56971
3.55012
3.52943
3.50767
3.48486
3.46104
3.43624
3.41053
3.38396
3.35659
3.32847
3.29966
3.27023
3.24023
3.20972
3.17877
3.14743
3.11578
3.0839
3.05188
3.0198
2.98775
2.95584
2.92416
2.89281
2.8619
2.83156
2.80183
2.77277
2.74354
2.71173
0.00083531
0.01597
0.0374473
0.0479602
0.0526659
0.0543558
0.0542462
0.0529136
0.0507483
0.0480602
0.0451168
0.0421492
0.0393539
0.0368831
0.0348456
0.0333117
0.0323247
0.0319408
0.0320411
0.0328896
0.0347694
0.0380795
0.0432242
0.0504991
0.0598266
0.0707641
0.0830705
0.0961435
0.109228
0.121621
0.132902
0.143
0.152256
0.161451
0.171618
0.183699
0.198275
0.215513
0.235259
0.257193
0.28094
0.306131
0.332436
0.359587
0.3874
0.41579
0.444755
0.474346
0.504642
0.535728
0.567686
0.600587
0.634491
0.669451
0.705506
0.742685
0.781005
0.820469
0.861075
0.90281
0.945658
0.989596
1.0346
1.08064
1.1277
1.17573
1.22472
1.27462
1.32541
1.37703
1.42944
1.48259
1.53641
1.59083
1.64577
1.70115
1.75688
1.81289
1.86907
1.92535
1.98166
2.03793
2.09413
2.1502
2.20611
2.26182
2.31728
2.37246
2.42733
2.48185
2.53601
2.5898
2.64318
2.69613
2.74861
2.8006
2.85205
2.90293
2.95321
3.00284
3.05178
3.09997
3.14737
3.1939
3.23953
3.28417
3.32778
3.3703
3.41166
3.45178
3.49062
3.52809
3.56415
3.59874
3.63182
3.66333
3.69324
3.7215
3.74809
3.773
3.7962
3.81769
3.83748
3.85557
3.87195
3.88665
3.89966
3.911
3.92069
3.92874
3.93516
3.93999
3.94324
3.9449
3.94503
3.94364
3.94073
3.93635
3.93053
3.92329
3.91468
3.9047
3.89339
3.88076
3.86683
3.85162
3.83516
3.81747
3.79856
3.77847
3.7572
3.73478
3.71125
3.68662
3.66094
3.63426
3.60664
3.57812
3.54878
3.51866
3.48782
3.45632
3.42421
3.39156
3.35843
3.32487
3.29099
3.25685
3.22256
3.18819
3.15384
3.11961
3.0856
3.05191
3.01866
2.98597
2.95391
2.92254
2.8911
2.85741
0.00135505
0.0230977
0.0450632
0.0550505
0.0593213
0.0605902
0.0600535
0.0582485
0.0556226
0.0525431
0.049324
0.0462307
0.0434827
0.0412618
0.0396947
0.0389761
0.0389223
0.0397419
0.0415146
0.0444366
0.0486664
0.054338
0.0614977
0.0700425
0.0797328
0.0902264
0.101155
0.112118
0.122783
0.132976
0.142738
0.152373
0.162453
0.173667
0.186607
0.201637
0.218848
0.23811
0.25917
0.281736
0.305528
0.330301
0.355857
0.382056
0.408825
0.436156
0.464095
0.492721
0.522131
0.552421
0.583682
0.615996
0.649441
0.68408
0.719969
0.75715
0.795657
0.835512
0.876729
0.919313
0.963264
1.00857
1.05521
1.10317
1.15241
1.2029
1.2546
1.30747
1.36145
1.41648
1.4725
1.52944
1.58721
1.64569
1.7048
1.76443
1.82448
1.88484
1.94542
2.00612
2.06684
2.12752
2.18812
2.24857
2.30884
2.36887
2.42863
2.48807
2.54715
2.60586
2.66415
2.72202
2.77945
2.8364
2.89283
2.94871
3.00398
3.05863
3.11259
3.16585
3.21834
3.27001
3.32079
3.37063
3.41945
3.46721
3.51382
3.55924
3.60338
3.64618
3.68756
3.72746
3.7658
3.80254
3.83762
3.871
3.90262
3.93244
3.96043
3.98656
4.01083
4.03324
4.05379
4.0725
4.08936
4.10438
4.11758
4.12897
4.13857
4.14641
4.15251
4.1569
4.1596
4.16063
4.16004
4.1578
4.15392
4.14849
4.14154
4.13311
4.12324
4.11194
4.09925
4.08519
4.06978
4.05306
4.03505
4.01577
3.99524
3.9735
3.95057
3.92645
3.90118
3.87478
3.84731
3.81881
3.78936
3.759
3.7278
3.69579
3.66304
3.62959
3.59551
3.56083
3.52563
3.48998
3.45398
3.4177
3.38125
3.34471
3.30815
3.2717
3.23543
3.19945
3.1639
3.12889
3.0945
3.06083
3.02716
2.99152
0.00199274
0.0297111
0.0524769
0.0623795
0.0663722
0.0673415
0.0664409
0.0642463
0.0612909
0.0580311
0.0548398
0.0520079
0.0497507
0.0482978
0.0477513
0.0479326
0.0491542
0.0513969
0.0546828
0.0590597
0.0645424
0.0710995
0.0786179
0.0869163
0.0957958
0.105042
0.114475
0.123976
0.133508
0.14317
0.153218
0.164033
0.176028
0.189534
0.204743
0.221684
0.24025
0.260256
0.28149
0.303751
0.32687
0.350708
0.375174
0.400215
0.425827
0.452049
0.478956
0.506639
0.535201
0.564749
0.595381
0.627193
0.660273
0.694701
0.730549
0.767872
0.806717
0.847126
0.889133
0.93276
0.978021
1.02492
1.07344
1.12357
1.17528
1.22853
1.28326
1.3394
1.39689
1.45564
1.51556
1.57654
1.63846
1.70118
1.76457
1.82851
1.89289
1.95761
2.02254
2.08758
2.15264
2.21765
2.28254
2.34727
2.41178
2.47601
2.53992
2.60347
2.66662
2.72934
2.79161
2.85341
2.91471
2.97547
3.03566
3.09522
3.15411
3.2123
3.26974
3.32638
3.38217
3.43705
3.49095
3.54381
3.59555
3.64611
3.69541
3.7434
3.78999
3.83512
3.8787
3.92066
3.96093
3.99945
4.03617
4.07103
4.104
4.13501
4.16404
4.19103
4.216
4.23895
4.25991
4.27886
4.29584
4.31083
4.32386
4.33495
4.34413
4.35143
4.35689
4.36053
4.3624
4.36251
4.36096
4.35761
4.35254
4.34584
4.33756
4.32775
4.31645
4.30367
4.28947
4.27386
4.25687
4.23855
4.21891
4.198
4.17583
4.15244
4.12784
4.10207
4.07511
4.047
4.01781
3.98762
3.95645
3.92438
3.89145
3.85771
3.8232
3.78797
3.75207
3.71553
3.67843
3.64085
3.60289
3.56465
3.5262
3.48763
3.44903
3.41047
3.37206
3.33392
3.29615
3.25891
3.22226
3.18634
3.15047
3.11294
0.00279738
0.0353428
0.0595706
0.0697395
0.0736708
0.0744612
0.0732693
0.070765
0.067576
0.0643182
0.0614725
0.0593066
0.0579974
0.0575167
0.057753
0.0590503
0.0613241
0.0645235
0.0686311
0.0736089
0.0793948
0.0859052
0.0930355
0.100691
0.108787
0.117261
0.126091
0.135314
0.145047
0.155476
0.166817
0.179284
0.19304
0.208157
0.224622
0.242346
0.261202
0.281043
0.301739
0.323176
0.345272
0.367974
0.391261
0.415142
0.439659
0.46488
0.490895
0.517805
0.545718
0.574737
0.604968
0.636516
0.669485
0.703968
0.740051
0.777812
0.817324
0.858647
0.901839
0.946941
0.993982
1.04298
1.09392
1.14679
1.20154
1.25813
1.31648
1.37648
1.43802
1.50097
1.56519
1.63054
1.69684
1.76392
1.83162
1.89979
1.96834
2.03717
2.1062
2.17533
2.24446
2.31352
2.38244
2.45117
2.51962
2.58773
2.65547
2.72281
2.7897
2.85612
2.92203
2.98741
3.05223
3.11645
3.18002
3.2429
3.30503
3.36636
3.42686
3.48647
3.54513
3.60279
3.65937
3.71478
3.76897
3.82185
3.87336
3.92342
3.97196
4.0189
4.06416
4.10766
4.14932
4.1891
4.22693
4.26276
4.29655
4.32824
4.35782
4.38521
4.41044
4.43352
4.45443
4.4732
4.48984
4.50436
4.51677
4.52712
4.53543
4.54176
4.54615
4.54864
4.54927
4.54814
4.54519
4.54039
4.53385
4.52564
4.5158
4.5044
4.49146
4.47703
4.46115
4.44385
4.42517
4.40515
4.38382
4.36121
4.33737
4.31233
4.2861
4.25873
4.23015
4.20042
4.16965
4.13789
4.10517
4.07155
4.03707
4.00177
3.9657
3.9289
3.89141
3.85321
3.81442
3.77514
3.73546
3.69547
3.65524
3.61486
3.5744
3.53394
3.49357
3.45341
3.4136
3.37426
3.33549
3.29743
3.25945
3.22016
0.00365577
0.0414052
0.0667888
0.0772206
0.0811031
0.0817293
0.0801388
0.0772552
0.0740301
0.0711576
0.0690041
0.0677779
0.0673441
0.0674884
0.0686222
0.0706793
0.0735804
0.077262
0.0816737
0.0867693
0.0924992
0.098821
0.105702
0.113125
0.121085
0.129609
0.138756
0.148617
0.159303
0.170928
0.183575
0.197301
0.212116
0.22798
0.244822
0.26255
0.281076
0.300317
0.320214
0.340725
0.361837
0.383549
0.405887
0.428897
0.452651
0.477242
0.502756
0.529288
0.556946
0.585849
0.616117
0.647871
0.68123
0.716312
0.753226
0.792076
0.832957
0.875955
0.921149
0.968597
1.01834
1.0704
1.12474
1.18134
1.24012
1.30101
1.36387
1.42857
1.4949
1.56265
1.63162
1.70158
1.77231
1.84365
1.9154
1.98742
2.05955
2.13188
2.20436
2.27698
2.34959
2.4221
2.49448
2.56665
2.6385
2.70996
2.78102
2.85163
2.92173
2.9913
3.06028
3.12867
3.19641
3.26348
3.32982
3.39538
3.46011
3.52394
3.58685
3.64877
3.70965
3.76941
3.82799
3.88529
3.94124
3.99575
4.04877
4.10021
4.15001
4.19807
4.24432
4.28866
4.33104
4.37137
4.40963
4.44574
4.47968
4.51139
4.54086
4.56808
4.593
4.61562
4.63593
4.65394
4.66967
4.68315
4.6944
4.70345
4.71036
4.71519
4.718
4.71884
4.71783
4.71496
4.71013
4.7035
4.69514
4.68509
4.6734
4.66012
4.6453
4.62899
4.61123
4.59206
4.57154
4.54969
4.52656
4.50219
4.47661
4.44988
4.42202
4.39305
4.36296
4.33177
4.29959
4.26644
4.23236
4.1974
4.16159
4.12496
4.08757
4.04945
4.01064
3.97106
3.93087
3.89018
3.84906
3.8076
3.76587
3.72395
3.6819
3.63979
3.5977
3.55577
3.51413
3.47291
3.43221
3.39219
3.35227
3.31142
0.00458359
0.0474698
0.0740368
0.0847465
0.0885664
0.0889924
0.0869635
0.0839091
0.0809713
0.0787353
0.0774748
0.0770159
0.0770415
0.0778733
0.0795987
0.0821326
0.085399
0.0893458
0.0939363
0.0991554
0.104992
0.111449
0.118538
0.126291
0.134748
0.143962
0.153988
0.164874
0.176649
0.189336
0.202941
0.217444
0.232788
0.248913
0.265759
0.283271
0.301411
0.320151
0.339489
0.359432
0.380004
0.401238
0.423198
0.445963
0.469656
0.494359
0.520103
0.547008
0.575202
0.604821
0.636009
0.668907
0.703665
0.740427
0.779334
0.820516
0.864096
0.910171
0.958816
1.0101
1.06406
1.12068
1.17988
1.24155
1.3056
1.37187
1.44019
1.51036
1.58211
1.65514
1.72912
1.80365
1.87845
1.95354
2.0288
2.10403
2.17916
2.25443
2.32978
2.40511
2.48023
2.5552
2.63008
2.70483
2.77926
2.85332
2.92687
2.99987
3.07227
3.14403
3.21513
3.28554
3.35523
3.42415
3.49225
3.55948
3.62576
3.69107
3.75533
3.81852
3.88057
3.9414
4.00094
4.05909
4.11576
4.17088
4.22437
4.27617
4.3262
4.37438
4.42062
4.46483
4.50693
4.54687
4.58459
4.62005
4.65321
4.68402
4.71246
4.7385
4.76212
4.78331
4.80208
4.81847
4.83248
4.84415
4.85351
4.8606
4.86549
4.86825
4.86899
4.86785
4.86477
4.85966
4.85266
4.84385
4.83329
4.82105
4.80716
4.79171
4.77474
4.75631
4.73647
4.71528
4.69277
4.669
4.644
4.61783
4.59053
4.56212
4.53266
4.50217
4.47069
4.43825
4.40487
4.37056
4.33535
4.29928
4.26237
4.22467
4.1862
4.14702
4.10716