/*--------------------------------*- C++ -*----------------------------------*\
  =========                 |
  \\      /  F ield         | OpenFOAM: The Open Source CFD Toolbox
   \\    /   O peration     | Website:  https://openfoam.org
    \\  /    A nd           | Version:  13
     \\/     M anipulation  |
\*---------------------------------------------------------------------------*/
FoamFile
{
    format      ascii;
    class       volScalarField;
    location    "900";
    object      nut;
}
// * * * * * * * * * * * * * * * * * * * * * * * * * * * * * * * * * * * * * //

dimensions      [0 2 -1 0 0 0 0];

internalField   nonuniform List<scalar> 
12225
(
7.3535e-06
1.4157e-05
1.69835e-05
1.79419e-05
1.85274e-05
1.73515e-05
1.69177e-05
2.28802e-05
3.5563e-05
3.5518e-05
2.69107e-05
3.41568e-05
2.63236e-05
3.18032e-05
2.51878e-05
2.53791e-05
3.1713e-05
3.34672e-05
3.20293e-06
3.48411e-06
7.77959e-06
8.33046e-06
8.17047e-06
7.40033e-06
1.07805e-05
9.4765e-06
1.44669e-05
1.5256e-05
2.16321e-05
2.23434e-05
2.35441e-05
2.91576e-05
3.62347e-05
4.03548e-05
4.48828e-05
4.88915e-05
2.35423e-05
1.11077e-05
4.63059e-06
3.59748e-06
4.00853e-06
5.74725e-06
6.53423e-06
6.67235e-06
7.70559e-06
1.37601e-05
1.93103e-05
2.45571e-05
3.14369e-05
3.4474e-05
3.78698e-05
3.90795e-05
3.92588e-05
3.99252e-05
9.87222e-05
2.65856e-05
2.01689e-05
1.40409e-05
1.3637e-05
1.42625e-05
2.05857e-05
3.61168e-05
3.70849e-05
3.8327e-05
4.96837e-05
7.30615e-05
9.15249e-05
8.80449e-05
9.7191e-05
9.80007e-05
9.25271e-05
8.26647e-05
0.00408788
3.8264e-05
7.93039e-05
2.54948e-05
2.00089e-05
2.61554e-05
4.03999e-05
7.01727e-05
6.12585e-05
6.97799e-05
0.000108459
0.000174149
0.000161756
0.000194675
0.00021542
0.000213201
0.000194505
0.000173914
0.000131906
7.49867e-05
0.00013188
5.82668e-05
5.1222e-05
6.41557e-05
8.99009e-05
0.000148995
0.000126518
0.000148258
0.000213301
0.000319153
0.000295375
0.000338821
0.000359908
0.000347229
0.000316959
0.00030102
7.03249e-05
9.55268e-05
0.000104722
0.000106736
0.000118864
0.000152867
0.000189583
0.000292769
0.000247134
0.000276538
0.000356693
0.000481711
0.000453227
0.000505723
0.00051279
0.000482771
0.000468649
0.000402385
0.000156755
0.000243443
0.000313032
0.000347801
0.000303489
0.000335692
0.0003813
0.000489215
0.000427178
0.000454504
0.000548689
0.000549796
0.000576948
0.000622206
0.000627213
0.00058133
0.000558727
0.000512091
0.000371949
0.000488672
0.000598435
0.000664782
0.000576516
0.000566916
0.000623827
0.000602187
0.00061189
0.000677149
0.000682457
0.000682359
0.000699629
0.000724703
0.000726495
0.000683235
0.00065499
0.000595034
0.000752504
0.000655593
0.000734777
0.000780537
0.000797301
0.000746671
0.000765632
0.000793857
0.000758398
0.000762978
0.00079148
0.000777682
0.000785624
0.00079302
0.000788125
0.000766052
0.000730591
0.000712313
0.000826959
0.000819524
0.000826849
0.000835632
0.00083741
0.000833818
0.000832687
0.000833634
0.000833363
0.000832815
0.000836579
0.000828734
0.000827295
0.000827226
0.000820798
0.000812223
0.000790879
0.000774623
0.000846387
0.000844712
0.000845666
0.000846517
0.0008469
0.000845733
0.000845055
0.00084403
0.000843756
0.000842999
0.000843127
0.000843946
0.000842237
0.000840376
0.000836693
0.000829341
0.000827675
0.000820461
0.000850752
0.000849585
0.000849312
0.00084863
0.000848379
0.00084747
0.000847043
0.00084606
0.000845707
0.000844742
0.000844607
0.000844326
0.000843576
0.000844169
0.000842636
0.000841032
0.000838699
0.000832791
0.000851493
0.000850471
0.000849854
0.000848983
0.000848426
0.000847628
0.000847081
0.000846329
0.000845814
0.000845081
0.000844697
0.000844071
0.000843716
0.00084318
0.000842813
0.000841655
0.000840683
0.000838898
0.000851553
0.000850638
0.000849873
0.000849057
0.000848362
0.000847629
0.000846993
0.000846326
0.000845743
0.000845123
0.00084461
0.000844041
0.000843587
0.000843057
0.000842634
0.000842058
0.000841546
0.000840874
0.000851542
0.000850669
0.000849858
0.00084907
0.000848335
0.000847623
0.000846956
0.00084631
0.000845703
0.000845113
0.000844561
0.000844023
0.000843521
0.000843028
0.000842567
0.000842107
0.00084167
0.000841231
0.000851537
0.000850673
0.000849852
0.000849069
0.000848326
0.000847617
0.000846943
0.000846298
0.000845685
0.000845098
0.000844539
0.000844003
0.000843494
0.000843004
0.000842538
0.000842089
0.000841662
0.000841249
0.000851539
0.000850677
0.000849858
0.000849077
0.000848334
0.000847626
0.000846951
0.000846307
0.000845693
0.000845105
0.000844545
0.000844009
0.000843497
0.000843007
0.000842539
0.00084209
0.000841661
0.000841251
0.000851537
0.000850674
0.000849851
0.000849069
0.000848324
0.000847615
0.000846937
0.000846292
0.000845676
0.000845088
0.000844525
0.000843988
0.000843473
0.000842983
0.000842512
0.000842063
0.000841631
0.000841218
0.000851537
0.000850673
0.000849852
0.000849069
0.000848325
0.000847612
0.000846932
0.000846287
0.000845662
0.00084508
0.00084451
0.00084398
0.000843458
0.000842978
0.000842501
0.000842051
0.000841587
0.000841136
0.000851541
0.000850668
0.000849878
0.000849046
0.000848306
0.000847464
0.00084678
0.000846023
0.000845361
0.000844774
0.000844167
0.000843644
0.000843101
0.000842703
0.000842217
0.000841701
0.000840911
0.000840027
0.000851566
0.000850699
0.000850152
0.000848781
0.000847459
0.000845224
0.000844056
0.000842013
0.000840822
0.000839651
0.000838549
0.000837536
0.00083705
0.000836892
0.000836761
0.000834952
0.000832521
0.000829065
0.000852682
0.000851469
0.000854625
0.000846681
0.000836339
0.000825808
0.000813766
0.000803371
0.000795642
0.000790658
0.000778818
0.000774292
0.000771083
0.000768534
0.000764883
0.000763003
0.000763696
0.000760342
0.00085025
0.000854175
0.000857249
0.000808134
0.000744639
0.000698613
0.000655002
0.0006234
0.000604216
0.000588384
0.000580063
0.000566463
0.000561016
0.00056751
0.000560122
0.000578508
0.000559432
0.000569142
0.000856075
0.000859832
0.000829196
0.000528634
0.000443447
0.000363202
0.000323598
0.000291049
0.00026709
0.000258215
0.000253579
0.000244225
0.000241775
0.000259791
0.000255243
0.000280893
0.000270078
0.000279282
0.000909599
0.000818376
0.000360784
0.00025989
0.000142097
0.000175772
0.000139362
8.07993e-05
8.59197e-05
6.96238e-05
6.35374e-05
6.22502e-05
6.1165e-05
6.82168e-05
7.17245e-05
8.26701e-05
9.29242e-05
0.000115445
0.00176432
0.00042853
5.40961e-05
5.66692e-05
3.94302e-05
2.67462e-05
1.53393e-05
1.0657e-05
9.83619e-06
9.57673e-06
9.995e-06
1.03886e-05
1.29385e-05
2.03748e-05
2.86365e-05
3.5395e-05
4.09454e-05
5.25904e-05
0.000996832
5.5933e-05
1.20622e-05
5.27725e-06
1.8675e-06
1.25458e-06
9.4752e-07
1.03238e-06
1.20894e-06
1.13619e-06
2.1947e-06
2.71391e-06
5.17537e-06
1.06319e-05
1.65501e-05
2.03128e-05
2.57435e-05
3.08643e-05
0.000431942
1.49864e-06
1.18492e-06
2.2429e-06
5.84344e-06
4.53605e-06
4.37038e-06
1.39712e-05
1.18825e-05
1.09597e-05
1.37479e-05
1.78611e-05
2.1158e-05
2.91609e-05
4.02973e-05
4.37498e-05
4.78085e-05
5.1347e-05
1.12866e-05
1.59245e-05
1.90772e-05
2.10087e-05
2.18772e-05
2.20887e-05
2.19193e-05
2.16341e-05
2.10896e-05
2.07608e-05
2.03746e-05
1.99612e-05
1.96031e-05
1.93268e-05
1.91211e-05
1.89775e-05
1.88519e-05
1.87566e-05
1.31255e-12
1.47663e-10
7.58776e-10
3.01239e-09
1.01469e-08
3.09685e-08
8.30841e-08
1.68547e-07
2.77526e-07
3.93406e-07
4.99132e-07
5.8111e-07
6.37134e-07
6.58367e-07
6.49621e-07
6.22978e-07
5.71757e-07
4.88015e-07
4.13218e-07
3.50222e-07
2.90875e-07
2.33582e-07
1.78429e-07
1.27781e-07
8.31341e-08
4.88661e-08
2.63506e-08
1.36275e-08
7.16379e-09
4.00994e-09
2.48888e-09
1.86644e-09
2.37393e-09
4.76765e-09
1.50264e-08
3.93339e-08
1.25669e-07
2.74988e-07
4.26657e-07
4.97096e-07
4.65374e-07
3.80221e-07
2.95467e-07
2.3254e-07
2.31945e-07
2.78587e-07
3.58878e-07
6.33391e-07
1.16107e-06
2.85945e-06
8.40936e-06
1.98857e-05
3.26479e-05
4.27382e-05
4.87232e-05
4.70558e-05
3.42787e-05
3.35124e-05
3.75233e-05
3.31299e-05
3.68196e-05
3.50957e-05
3.71743e-05
2.90977e-05
3.32244e-05
3.2782e-05
3.36031e-05
3.4227e-05
3.47422e-05
3.53769e-05
3.59042e-05
3.64904e-05
3.70279e-05
3.75874e-05
3.81244e-05
3.8669e-05
3.92023e-05
3.97372e-05
4.02659e-05
4.07936e-05
4.13173e-05
4.1839e-05
4.23575e-05
4.28737e-05
4.33869e-05
4.38979e-05
4.44055e-05
4.49111e-05
4.54136e-05
4.59147e-05
4.64137e-05
4.69093e-05
4.7402e-05
4.78905e-05
4.8376e-05
4.88568e-05
4.93343e-05
4.98068e-05
5.02761e-05
5.07414e-05
5.12046e-05
5.16667e-05
5.21304e-05
5.26012e-05
5.3086e-05
5.35697e-05
5.40594e-05
5.45563e-05
5.50596e-05
5.55725e-05
5.6093e-05
5.66245e-05
5.71651e-05
5.77179e-05
5.82814e-05
5.88585e-05
5.94482e-05
6.00531e-05
6.06725e-05
6.13087e-05
6.19615e-05
6.26326e-05
6.3323e-05
6.40341e-05
6.47675e-05
6.55245e-05
6.63065e-05
6.71146e-05
6.79495e-05
6.88113e-05
6.97104e-05
7.06677e-05
7.16749e-05
7.27109e-05
7.38036e-05
7.4951e-05
7.61712e-05
7.74537e-05
7.8652e-05
7.84233e-05
7.8186e-05
7.79291e-05
7.76625e-05
7.73798e-05
7.70961e-05
7.6785e-05
7.64818e-05
7.61458e-05
7.58238e-05
7.54618e-05
7.51084e-05
7.47574e-05
7.43619e-05
7.39983e-05
7.35813e-05
7.32031e-05
7.27683e-05
7.23751e-05
7.1924e-05
7.15081e-05
7.10482e-05
7.0611e-05
7.01528e-05
6.96975e-05
6.92362e-05
6.87724e-05
6.83061e-05
6.78385e-05
6.73704e-05
6.6903e-05
6.64367e-05
6.59719e-05
6.55085e-05
6.50451e-05
6.4579e-05
6.41036e-05
6.36008e-05
6.30407e-05
6.23676e-05
6.05781e-05
6.2571e-12
1.01411e-09
1.37924e-08
7.32655e-08
3.18061e-07
1.07536e-06
2.55569e-06
4.73227e-06
7.4014e-06
1.04508e-05
1.35535e-05
1.64531e-05
1.89079e-05
2.07624e-05
2.18172e-05
2.21034e-05
2.18448e-05
2.07989e-05
1.89481e-05
1.56614e-05
1.20877e-05
8.89438e-06
6.2671e-06
4.23326e-06
2.68076e-06
1.66046e-06
1.02868e-06
6.45093e-07
4.11636e-07
2.75421e-07
2.04624e-07
1.7665e-07
2.01026e-07
3.25699e-07
9.88647e-07
2.43088e-06
7.45954e-06
1.50137e-05
2.13777e-05
2.43568e-05
2.32233e-05
2.07273e-05
1.6038e-05
1.31158e-05
1.32458e-05
1.52146e-05
1.65564e-05
2.04796e-05
2.88326e-05
3.97426e-05
5.05862e-05
6.17686e-05
7.13552e-05
8.02737e-05
8.9222e-05
9.9348e-05
0.000106147
0.000119812
0.000131784
0.000144555
0.000159512
0.000172406
0.000188387
0.000195455
0.000209398
0.000220697
0.000232155
0.000242878
0.000253444
0.000263455
0.000273261
0.000282644
0.000291833
0.000300713
0.000309414
0.000317889
0.000326208
0.000334354
0.000342365
0.000350239
0.000357997
0.000365641
0.000373187
0.000380638
0.000388004
0.00039529
0.000402503
0.000409651
0.000416737
0.000423768
0.000430754
0.000437689
0.000444581
0.000451423
0.000458218
0.000464952
0.000471621
0.000478201
0.000484675
0.000491001
0.000497136
0.000503005
0.000508513
0.000513565
0.000518038
0.000522522
0.00052683
0.000531028
0.000535089
0.000539019
0.000542809
0.000546459
0.000549964
0.000553323
0.00055653
0.000559586
0.000562487
0.000565235
0.000567826
0.000570262
0.000572541
0.000574664
0.00057663
0.000578441
0.000580097
0.0005816
0.000582949
0.000584145
0.000585188
0.000586074
0.000586795
0.000587343
0.000587748
0.000587995
0.000588088
0.0005879
0.000587962
0.000587723
0.000587718
0.000587861
0.00058789
0.000587673
0.000587327
0.000586877
0.000586192
0.0005857
0.000584622
0.000583936
0.000582582
0.000581246
0.000580185
0.000578318
0.00057701
0.000574847
0.000573262
0.000570836
0.000568949
0.000566303
0.000564077
0.000561251
0.000558687
0.000555757
0.00055287
0.000549832
0.000546711
0.000543491
0.000540186
0.000536797
0.000533336
0.000529808
0.000526222
0.00052258
0.000518877
0.000515086
0.000511175
0.000507068
0.000502583
0.000497422
0.000490733
0.00047307
1.69583e-11
2.88996e-09
5.48868e-08
3.40863e-07
1.0535e-06
2.75761e-06
5.92975e-06
1.03514e-05
1.58806e-05
2.21988e-05
2.89754e-05
3.56569e-05
4.17054e-05
4.67793e-05
5.06167e-05
5.31217e-05
5.45922e-05
5.48809e-05
5.34747e-05
5.05166e-05
4.62535e-05
4.01265e-05
3.31026e-05
2.60278e-05
1.96446e-05
1.41001e-05
9.71198e-06
6.53745e-06
4.27828e-06
2.86586e-06
2.06424e-06
1.63588e-06
1.52379e-06
1.54683e-06
6.12484e-06
1.47865e-05
3.54589e-05
5.43956e-05
6.57646e-05
6.74519e-05
6.02642e-05
4.48364e-05
3.71507e-05
3.80039e-05
4.52167e-05
5.29343e-05
6.32652e-05
7.58546e-05
8.83147e-05
0.000101359
0.00011843
0.000136866
0.000158071
0.000181921
0.000208965
0.000237618
0.000266111
0.000297269
0.000327615
0.000358159
0.000387477
0.000414535
0.000442864
0.00046696
0.000491535
0.000514738
0.000536847
0.000558238
0.000578819
0.000598677
0.000617986
0.000636712
0.000655016
0.000672876
0.000690391
0.000707563
0.000724448
0.000741056
0.00075742
0.000773552
0.000789474
0.000805197
0.000820735
0.000836098
0.000851297
0.00086634
0.000881234
0.000895985
0.0009106
0.000925082
0.000939434
0.000953651
0.000967728
0.000981652
0.000995413
0.00100899
0.00102236
0.00103549
0.00104835
0.00106089
0.00107308
0.00108486
0.00109623
0.00110718
0.00111778
0.0011282
0.00113832
0.00114817
0.00115773
0.001167
0.00117596
0.00118461
0.00119294
0.00120094
0.00120861
0.00121594
0.00122293
0.00122958
0.00123589
0.00124186
0.00124749
0.00125277
0.00125772
0.00126233
0.00126661
0.00127056
0.00127419
0.00127749
0.00128046
0.00128311
0.00128543
0.00128744
0.00128914
0.00129056
0.00129169
0.00129246
0.00129313
0.00129358
0.00129394
0.00129414
0.00129406
0.00129365
0.00129294
0.00129201
0.00129057
0.00128921
0.00128707
0.00128518
0.00128242
0.00127951
0.00127674
0.00127289
0.00126955
0.00126503
0.00126108
0.00125597
0.00125135
0.00124572
0.00124046
0.00123441
0.00122851
0.00122212
0.00121565
0.00120891
0.00120199
0.00119486
0.00118756
0.00118009
0.00117247
0.00116473
0.00115687
0.00114892
0.00114084
0.00113259
0.00112409
0.00111516
0.00110548
0.00109431
0.00107955
0.00104737
6.30582e-11
1.06795e-08
1.71956e-07
7.96234e-07
2.35642e-06
6.52338e-06
1.30334e-05
2.17903e-05
3.22067e-05
4.32191e-05
5.39127e-05
6.3737e-05
7.22027e-05
7.87991e-05
8.3747e-05
8.70397e-05
8.84516e-05
8.83545e-05
8.6892e-05
8.388e-05
7.95309e-05
7.3744e-05
6.67646e-05
5.8029e-05
4.84696e-05
3.88733e-05
3.01004e-05
2.27842e-05
1.71919e-05
1.27089e-05
1.00468e-05
7.54309e-06
7.90428e-06
1.14516e-05
2.52704e-05
4.92323e-05
6.95082e-05
8.25313e-05
8.3013e-05
7.58486e-05
7.11155e-05
7.09226e-05
7.51244e-05
8.35625e-05
9.5347e-05
0.000108784
0.000121483
0.000142282
0.000163933
0.000191453
0.000223227
0.000258468
0.000297453
0.000339139
0.000383026
0.000427342
0.000471488
0.000515511
0.000557965
0.00059939
0.000639233
0.000676557
0.000714042
0.000748723
0.000782362
0.000814759
0.000845978
0.000876238
0.000905583
0.000934141
0.000962013
0.000989254
0.00101595
0.00104215
0.0010679
0.00109323
0.00111819
0.00114278
0.00116704
0.00119099
0.00121464
0.001238
0.00126109
0.00128392
0.0013065
0.00132882
0.00135091
0.00137276
0.00139437
0.00141575
0.0014369
0.0014578
0.00147845
0.00149882
0.00151892
0.00153871
0.00155817
0.00157727
0.001596
0.00161432
0.00163222
0.00164969
0.00166673
0.00168336
0.0016996
0.00171548
0.00173094
0.00174598
0.00176059
0.00177475
0.00178844
0.00180166
0.00181439
0.00182663
0.00183837
0.0018496
0.00186032
0.00187053
0.00188023
0.00188942
0.00189809
0.00190627
0.00191394
0.00192112
0.0019278
0.00193401
0.00193973
0.00194497
0.00194975
0.00195405
0.0019579
0.00196129
0.00196421
0.00196674
0.00196887
0.0019705
0.00197179
0.00197285
0.00197355
0.00197386
0.00197377
0.00197324
0.00197224
0.00197088
0.00196893
0.00196678
0.00196389
0.00196089
0.00195711
0.00195292
0.00194858
0.00194332
0.00193808
0.00193187
0.00192571
0.0019186
0.00191151
0.00190359
0.00189561
0.00188698
0.00187819
0.00186894
0.00185943
0.00184959
0.00183946
0.00182904
0.00181837
0.00180747
0.00179636
0.00178506
0.00177361
0.00176202
0.00175026
0.00173828
0.00172596
0.00171309
0.00169926
0.00168349
0.00166281
0.00162454
2.16111e-10
3.26154e-08
3.9318e-07
1.83064e-06
6.33933e-06
1.53217e-05
2.85386e-05
4.44386e-05
6.12846e-05
7.74198e-05
9.15693e-05
0.000103012
0.000111574
0.000117617
0.000120887
0.000122077
0.000121576
0.000119699
0.000116668
0.000112484
0.000107127
0.000101037
9.39888e-05
8.53758e-05
7.55076e-05
6.46455e-05
5.35547e-05
4.34293e-05
3.50048e-05
2.83239e-05
2.25066e-05
2.07754e-05
2.4888e-05
4.06704e-05
6.76615e-05
8.59412e-05
9.43096e-05
9.67969e-05
9.70323e-05
9.85199e-05
0.000103477
0.000112682
0.000126866
0.000136883
0.000150989
0.000173892
0.000202238
0.000235158
0.000273156
0.000316917
0.000363982
0.00041417
0.000466672
0.000520477
0.000574797
0.000628589
0.000681522
0.000733324
0.000783572
0.000832155
0.000879087
0.000924585
0.000968822
0.00101117
0.00105223
0.00109206
0.00113075
0.00116843
0.00120519
0.00124114
0.00127636
0.00131091
0.00134486
0.00137825
0.00141112
0.00144351
0.00147544
0.00150693
0.001538
0.00156868
0.00159896
0.00162886
0.0016584
0.00168758
0.0017164
0.00174487
0.001773
0.00180078
0.00182822
0.00185532
0.00188207
0.00190846
0.00193448
0.00196013
0.00198539
0.00201023
0.00203465
0.00205862
0.00208214
0.00210519
0.00212777
0.00214987
0.0021715
0.00219264
0.00221329
0.00223345
0.00225308
0.00227216
0.00229068
0.00230863
0.00232597
0.00234271
0.00235884
0.00237433
0.00238919
0.0024034
0.00241697
0.0024299
0.00244219
0.00245383
0.00246484
0.00247521
0.00248497
0.0024941
0.00250262
0.00251054
0.00251787
0.00252461
0.00253077
0.00253636
0.00254139
0.00254587
0.0025497
0.00255309
0.00255596
0.00255821
0.0025601
0.00256157
0.00256253
0.00256298
0.00256292
0.00256233
0.00256117
0.00255953
0.00255728
0.00255459
0.00255123
0.00254747
0.00254303
0.00253801
0.00253259
0.00252641
0.00251987
0.00251256
0.00250489
0.00249648
0.0024877
0.00247826
0.00246845
0.00245808
0.00244733
0.00243613
0.00242454
0.00241257
0.00240023
0.00238755
0.00237455
0.00236125
0.0023477
0.00233391
0.00231994
0.00230577
0.00229141
0.00227677
0.00226177
0.00224619
0.00222963
0.00221114
0.00218728
0.00214863
6.8307e-10
8.06387e-08
9.70728e-07
4.90677e-06
1.61123e-05
3.42542e-05
5.62092e-05
7.87609e-05
9.83707e-05
0.000113772
0.0001254
0.000134464
0.000140586
0.000144438
0.000146277
0.000146344
0.000144874
0.000142088
0.000138188
0.000133203
0.000127267
0.000120678
0.000113126
0.00010438
9.43331e-05
7.92465e-05
6.49066e-05
5.15855e-05
4.05304e-05
3.43847e-05
3.37669e-05
4.24478e-05
6.24423e-05
8.54702e-05
0.000102624
0.000112907
0.000118071
0.000121772
0.000127882
0.000138825
0.000152931
0.000161933
0.000176675
0.000200842
0.000229966
0.00026608
0.000308181
0.00035553
0.000407514
0.000463041
0.000520679
0.000580085
0.000640401
0.00070096
0.000761153
0.000820448
0.00087855
0.000935146
0.000990344
0.00104458
0.00109698
0.0011479
0.00119745
0.00124554
0.00129239
0.00133808
0.00138269
0.00142632
0.00146906
0.00151099
0.00155218
0.00159268
0.00163254
0.00167179
0.00171048
0.00174863
0.00178625
0.00182335
0.00185996
0.00189607
0.00193171
0.00196687
0.00200156
0.0020358
0.00206957
0.0021029
0.00213577
0.00216819
0.00220016
0.00223167
0.00226273
0.00229333
0.00232346
0.00235311
0.00238227
0.00241093
0.00243909
0.00246671
0.00249381
0.00252038
0.0025464
0.00257188
0.00259681
0.00262116
0.00264493
0.00266809
0.00269063
0.00271253
0.00273376
0.00275431
0.00277418
0.00279333
0.00281177
0.00282949
0.00284648
0.00286272
0.00287823
0.002893
0.00290703
0.00292033
0.0029329
0.00294476
0.0029559
0.00296634
0.00297609
0.00298515
0.00299354
0.00300126
0.00300834
0.00301477
0.00302062
0.00302574
0.0030302
0.00303416
0.00303747
0.00304013
0.00304241
0.00304411
0.00304524
0.00304578
0.00304575
0.00304513
0.00304391
0.00304212
0.00303971
0.00303676
0.00303317
0.00302902
0.00302423
0.00301881
0.00301285
0.0030062
0.00299901
0.00299114
0.00298272
0.00297363
0.00296401
0.00295377
0.00294303
0.00293174
0.00291998
0.00290772
0.00289503
0.0028819
0.00286836
0.00285442
0.00284011
0.00282547
0.00281053
0.00279532
0.00277987
0.00276422
0.00274834
0.00273219
0.0027157
0.00269867
0.00268076
0.00266113
0.00263681
0.00260016
2.16896e-09
2.04347e-07
2.56326e-06
1.34235e-05
3.5464e-05
6.37496e-05
9.19546e-05
0.000115744
0.000134112
0.000147481
0.000156672
0.000162109
0.000164853
0.00016559
0.000164898
0.000163051
0.000160188
0.000156405
0.000151682
0.000145988
0.000139469
0.000132017
0.000123292
0.00010663
9.06416e-05
7.60985e-05
6.26922e-05
5.19758e-05
4.7337e-05
5.31746e-05
7.00863e-05
9.27065e-05
0.000115278
0.000129082
0.000138568
0.000145364
0.000152473
0.000163651
0.000177066
0.000184866
0.000199111
0.000222417
0.000250672
0.000286885
0.000329039
0.000377863
0.000431663
0.000489328
0.000549858
0.0006123
0.000675886
0.000740201
0.000804651
0.00086879
0.00093226
0.000994415
0.00105553
0.00111592
0.00117472
0.00123224
0.00128834
0.00134311
0.00139663
0.0014489
0.00150002
0.00155008
0.00159915
0.0016473
0.00169459
0.0017411
0.00178687
0.00183195
0.00187637
0.00192017
0.00196336
0.00200595
0.00204795
0.00208937
0.00213022
0.00217049
0.0022102
0.00224934
0.00228791
0.00232593
0.0023634
0.00240031
0.00243667
0.00247248
0.00250773
0.00254243
0.00257659
0.00261018
0.00264322
0.0026757
0.0027076
0.00273893
0.00276967
0.00279983
0.00282938
0.00285832
0.00288665
0.00291433
0.00294137
0.00296775
0.00299347
0.00301852
0.00304286
0.00306649
0.00308939
0.00311154
0.00313294
0.00315356
0.00317341
0.00319248
0.00321077
0.00322828
0.003245
0.00326092
0.00327605
0.00329039
0.00330394
0.00331672
0.00332873
0.00333998
0.00335047
0.00336023
0.00336926
0.00337757
0.00338518
0.00339212
0.00339842
0.00340391
0.00340874
0.00341299
0.00341651
0.00341945
0.00342189
0.00342369
0.00342488
0.00342545
0.00342541
0.00342476
0.0034235
0.00342163
0.00341915
0.00341608
0.00341244
0.00340822
0.00340338
0.00339792
0.00339185
0.00338515
0.00337784
0.00336988
0.00336131
0.00335211
0.00334233
0.00333194
0.003321
0.00330951
0.0032975
0.00328499
0.003272
0.00325855
0.00324465
0.00323032
0.00321559
0.00320048
0.00318505
0.00316931
0.00315331
0.00313707
0.0031206
0.00310386
0.00308681
0.00306931
0.0030511
0.00303145
0.00300812
0.00297485
6.49672e-09
5.37895e-07
6.82527e-06
2.90602e-05
6.19898e-05
9.53822e-05
0.000122854
0.000143741
0.000159027
0.000169133
0.000174845
0.000177471
0.0001779
0.00017687
0.000174736
0.000171692
0.000167751
0.000162808
0.00015689
0.000150107
0.000142706
0.000134136
0.000117219
0.000102399
9.00172e-05
8.08423e-05
7.7346e-05
8.09435e-05
8.33421e-05
9.83979e-05
0.000122179
0.000145702
0.00016507
0.000173646
0.000181855
0.000192716
0.000198728
0.000205858
0.000218947
0.000239702
0.00026614
0.000300361
0.000340613
0.000387879
0.000440633
0.000498371
0.000559427
0.000622835
0.00068783
0.000753803
0.000820279
0.0008869
0.000953298
0.00101886
0.00108359
0.001148
0.00121117
0.00127322
0.00133402
0.00139363
0.00145203
0.00150926
0.00156536
0.00162037
0.00167435
0.00172736
0.00177947
0.00183072
0.00188118
0.00193088
0.00197988
0.00202821
0.00207588
0.00212292
0.00216934
0.00221512
0.00226027
0.00230479
0.00234866
0.0023919
0.00243449
0.00247643
0.00251773
0.00255838
0.00259839
0.00263776
0.00267649
0.00271459
0.00275205
0.00278887
0.00282506
0.00286062
0.00289556
0.00292985
0.00296352
0.00299654
0.00302892
0.00306066
0.00309174
0.00312215
0.00315189
0.00318092
0.00320927
0.00323692
0.00326387
0.0032901
0.0033156
0.00334036
0.00336435
0.00338757
0.00340999
0.00343162
0.00345243
0.00347243
0.0034916
0.00350995
0.00352745
0.00354413
0.00355997
0.00357499
0.00358918
0.00360256
0.00361513
0.0036269
0.00363789
0.0036481
0.00365755
0.00366624
0.0036742
0.00368148
0.00368808
0.00369383
0.00369895
0.00370342
0.00370712
0.00371029
0.00371287
0.00371481
0.00371611
0.0037168
0.00371687
0.00371634
0.0037152
0.00371345
0.00371111
0.00370819
0.00370469
0.00370058
0.00369587
0.00369054
0.00368462
0.00367808
0.00367092
0.00366315
0.00365476
0.00364575
0.00363615
0.00362596
0.00361521
0.0036039
0.00359207
0.00357973
0.00356688
0.00355356
0.00353977
0.00352552
0.00351086
0.00349579
0.00348037
0.00346461
0.00344857
0.00343227
0.00341571
0.00339891
0.00338182
0.00336436
0.00334635
0.0033272
0.00330535
0.00327608
1.69581e-08
1.33294e-06
1.54059e-05
4.95295e-05
9.00422e-05
0.000125382
0.000151878
0.000169607
0.000180393
0.000186383
0.000188773
0.00018847
0.000186313
0.0001829
0.000178699
0.000173865
0.000168363
0.000162201
0.000155379
0.000147605
0.000138697
0.000123457
0.000109679
9.98653e-05
9.55365e-05
9.26039e-05
9.4717e-05
0.000106284
0.000125784
0.000147239
0.000168092
0.000186027
0.000199748
0.000208555
0.00021556
0.000223839
0.000235753
0.000253906
0.000277801
0.0003089
0.00034626
0.000390267
0.00043994
0.000495131
0.000554539
0.000617185
0.000681864
0.000747895
0.000814784
0.000882121
0.000949575
0.00101675
0.00108324
0.00114948
0.00121507
0.00127977
0.00134342
0.00140603
0.00146754
0.00152798
0.00158735
0.00164568
0.001703
0.00175935
0.00181479
0.00186937
0.00192313
0.00197612
0.00202837
0.00207994
0.00213087
0.00218117
0.00223085
0.00227993
0.0023284
0.00237625
0.00242343
0.00246996
0.00251581
0.00256097
0.00260543
0.00264917
0.0026922
0.00273452
0.00277613
0.00281703
0.00285723
0.00289674
0.0029356
0.00297376
0.00301121
0.00304796
0.00308402
0.00311937
0.00315403
0.003188
0.00322126
0.00325382
0.00328569
0.00331685
0.00334731
0.00337707
0.00340612
0.00343446
0.00346207
0.00348894
0.00351505
0.00354041
0.00356499
0.00358878
0.00361176
0.00363394
0.00365528
0.0036758
0.00369547
0.0037143
0.00373229
0.00374942
0.0037657
0.00378114
0.00379574
0.00380951
0.00382244
0.00383456
0.00384587
0.00385639
0.00386612
0.00387508
0.00388328
0.00389081
0.00389759
0.00390358
0.00390891
0.00391354
0.00391745
0.00392082
0.00392355
0.00392564
0.00392711
0.00392797
0.00392824
0.00392791
0.00392701
0.00392553
0.00392348
0.00392087
0.0039177
0.00391397
0.00390967
0.00390481
0.00389937
0.00389335
0.00388675
0.00387957
0.00387179
0.00386343
0.0038545
0.00384501
0.00383496
0.00382438
0.00381328
0.00380167
0.00378956
0.00377695
0.00376387
0.00375033
0.00373633
0.00372193
0.00370713
0.00369198
0.00367652
0.00366076
0.00364473
0.00362844
0.00361189
0.00359503
0.00357774
0.00355957
0.00353915
0.0035135
3.79856e-08
3.08365e-06
2.79902e-05
7.161e-05
0.000114609
0.000148996
0.00017302
0.000188354
0.000196248
0.00019847
0.000196941
0.000193085
0.000187878
0.000181924
0.000175578
0.000168747
0.000161702
0.000154225
0.000146492
0.00013858
0.000130332
0.000122462
0.000115257
0.000110548
0.00011129
0.000119692
0.000133423
0.000150722
0.000169481
0.000187513
0.000203318
0.000215605
0.000225667
0.000236486
0.000248924
0.000265462
0.00028678
0.000314518
0.000348372
0.000388464
0.000434151
0.000485194
0.000540871
0.000600568
0.000663205
0.000727875
0.000793793
0.000860475
0.000927562
0.000994771
0.00106153
0.00112795
0.00119425
0.0012598
0.00132457
0.00138844
0.00145135
0.00151327
0.0015742
0.00163414
0.00169311
0.00175114
0.00180826
0.00186455
0.00192004
0.00197479
0.00202885
0.00208224
0.00213497
0.00218713
0.00223875
0.00228985
0.00234042
0.00239047
0.00243999
0.002489
0.00253755
0.00258548
0.00263269
0.00267915
0.00272484
0.00276975
0.00281387
0.0028572
0.00289975
0.00294152
0.00298251
0.00302273
0.00306213
0.00310078
0.0031387
0.00317589
0.00321236
0.00324812
0.00328316
0.00331749
0.00335111
0.00338401
0.00341622
0.00344771
0.00347851
0.0035086
0.00353798
0.00356663
0.00359455
0.00362172
0.00364815
0.00367381
0.00369871
0.00372282
0.00374613
0.00376864
0.00379033
0.00381119
0.00383122
0.0038504
0.00386874
0.00388623
0.00390286
0.00391865
0.0039336
0.0039477
0.00396096
0.0039734
0.00398502
0.00399584
0.00400586
0.00401509
0.00402356
0.00403135
0.00403835
0.00404462
0.0040502
0.00405506
0.00405926
0.00406286
0.00406581
0.00406814
0.00406987
0.00407101
0.00407158
0.00407158
0.00407104
0.00406996
0.00406835
0.00406622
0.00406356
0.0040604
0.00405672
0.00405251
0.00404778
0.00404252
0.00403672
0.00403037
0.00402347
0.00401603
0.00400806
0.00399955
0.00399053
0.00398099
0.00397094
0.0039604
0.00394936
0.00393783
0.00392582
0.00391332
0.00390037
0.00388699
0.00387319
0.00385902
0.00384449
0.00382965
0.0038145
0.00379908
0.0037834
0.00376744
0.00375113
0.00373415
0.00371534
0.00369355
7.28687e-08
6.37077e-06
4.27867e-05
9.49853e-05
0.000140634
0.00017303
0.000193721
0.000204211
0.000207322
0.000205415
0.000200292
0.00019326
0.000185224
0.000176559
0.000167679
0.000158893
0.000150076
0.000142207
0.000135103
0.000129217
0.000125059
0.000123847
0.000126673
0.000133882
0.000144811
0.000158252
0.00017358
0.000189691
0.000205299
0.000219035
0.000231029
0.000243709
0.00025796
0.000274261
0.00029398
0.000318751
0.00034901
0.000385012
0.000426369
0.000472778
0.000523743
0.000578854
0.000637491
0.000698962
0.000762428
0.000827174
0.000892654
0.000958493
0.00102432
0.00108969
0.00115508
0.00121996
0.00128424
0.00134774
0.00141036
0.00147204
0.00153278
0.00159257
0.00165144
0.00170942
0.00176652
0.00182273
0.00187815
0.00193288
0.00198698
0.00204051
0.00209354
0.0021462
0.00219871
0.00225089
0.00230266
0.00235399
0.00240488
0.00245531
0.00250528
0.00255474
0.00260358
0.00265178
0.0026993
0.00274606
0.00279207
0.00283731
0.00288176
0.0029254
0.00296824
0.00301029
0.00305155
0.00309204
0.00313177
0.00317074
0.00320896
0.00324644
0.00328319
0.0033192
0.00335448
0.00338904
0.00342287
0.00345598
0.00348838
0.00352006
0.00355103
0.00358129
0.00361084
0.00363966
0.00366776
0.00369513
0.00372176
0.00374765
0.00377279
0.00379717
0.00382077
0.00384359
0.00386561
0.00388682
0.00390721
0.00392677
0.00394551
0.0039634
0.00398045
0.00399665
0.00401202
0.00402654
0.00404023
0.00405309
0.00406513
0.00407635
0.00408677
0.0040964
0.00410528
0.00411342
0.0041208
0.00412745
0.00413341
0.00413866
0.00414326
0.00414722
0.00415054
0.00415324
0.00415536
0.00415691
0.00415791
0.00415839
0.00415835
0.00415781
0.00415679
0.00415528
0.00415331
0.00415086
0.00414796
0.00414458
0.00414074
0.00413641
0.00413159
0.00412626
0.00412043
0.0041141
0.00410728
0.00409997
0.00409217
0.00408389
0.00407513
0.00406589
0.00405616
0.00404594
0.00403523
0.00402404
0.00401237
0.00400026
0.00398771
0.00397476
0.00396142
0.00394772
0.0039337
0.00391937
0.00390476
0.00388987
0.00387469
0.00385897
0.00384169
0.00382324
1.18209e-07
1.06971e-05
5.52973e-05
0.000111882
0.00015949
0.000191605
0.000209133
0.00021595
0.000215458
0.000210287
0.000202353
0.00019291
0.000182744
0.000173129
0.000163854
0.000156022
0.000149338
0.000144923
0.000142477
0.0001423
0.000144775
0.000150142
0.00015834
0.000168977
0.0001814
0.000194944
0.000208907
0.000222319
0.000234979
0.000248318
0.000263742
0.000280811
0.000299896
0.00032268
0.000349919
0.000382095
0.000419166
0.000460914