/*--------------------------------*- C++ -*----------------------------------*\
  =========                 |
  \\      /  F ield         | OpenFOAM: The Open Source CFD Toolbox
   \\    /   O peration     | Website:  https://openfoam.org
    \\  /    A nd           | Version:  13
     \\/     M anipulation  |
\*---------------------------------------------------------------------------*/
FoamFile
{
    format      ascii;
    class       volScalarField;
    location    "900";
    object      omega;
}
// * * * * * * * * * * * * * * * * * * * * * * * * * * * * * * * * * * * * * //

dimensions      [0 0 -1 0 0 0 0];

internalField   nonuniform List<scalar> 
12225
(
31477.7
40542.5
39100.3
38739.2
37831.6
37344.7
38255.6
31477.7
31477.7
31477.7
40435.6
31477.7
37974.9
31477.7
37162.4
31477.7
31477.7
31477.7
66380.6
45445.6
18555.9
18829.5
21149.7
23600.8
19742.3
24535.8
20787
21954.8
18064.9
19861.4
20291
20059.9
19121.9
19082.4
18308.9
17208.1
15940.7
13888
18801.9
17375.3
11927.7
11254
13476.9
13738.6
12372.3
10370.9
9813.8
9259.12
8548.77
8468.61
8199.67
8115.87
8120.97
8133.21
4364.76
8648.06
7154.87
7487.65
7905.04
9714.57
9027.21
6379.65
7140.39
6451.06
4931.48
3780.47
3032.37
3293.31
3049.71
2967.45
2967.72
3112.63
0.38807
7961.05
2908.49
7337.18
9339.17
8125.41
6385.27
3764.91
4333.39
3823.04
2736.95
1731.52
1869.23
1610.84
1463.14
1433.28
1485.26
1551.41
2801.1
4506.63
2287.38
4607.58
5248.6
4402.04
3427.71
2057.87
2400.46
2133.71
1556.39
1028.28
1118.1
981.536
916.126
919.839
966.981
963.726
5239.95
3730.96
3212.11
2972.56
2682.08
2146.57
1722.64
1147.4
1333.45
1219.28
947.545
710.452
756.441
675.696
659.8
682.661
683.969
765.829
2358.59
1502.31
1150.14
1005.5
1144.97
1028.14
900.616
712.572
806.082
763.346
633.452
634.637
604.156
556.806
547.728
579.874
592.404
629.741
997.57
755.781
612.088
545.231
623.974
631.59
571.203
591.332
579.765
522.958
518.037
516.528
502.33
481.716
477.317
501.219
516.736
559.41
495.843
565.505
501.345
468.81
456.273
484.684
470.568
452.143
471.587
466.99
448.848
454.968
448.762
442.098
442.443
451.44
469.727
476.784
451.885
453.149
446.481
439.218
435.936
435.57
434.152
431.722
430.14
428.652
425.196
427.495
426.653
424.728
426.15
428.17
437.38
443.528
441.646
439.812
436.776
433.889
431.42
429.821
428.148
426.7
425.041
423.643
421.962
419.903
419.209
418.439
418.65
420.457
419.548
421.16
439.408
437.328
434.948
432.881
430.744
429.029
427.209
425.738
424.08
422.783
421.193
419.706
418.546
416.698
415.974
415.191
414.872
416.209
439.027
436.879
434.671
432.708
430.719
428.953
427.178
425.594
423.997
422.585
421.098
419.792
418.437
417.208
415.97
415.127
414.267
413.797
438.994
436.793
434.654
432.664
430.737
428.937
427.199
425.571
423.999
422.53
421.096
419.763
418.453
417.241
416.047
414.977
413.937
413.02
438.999
436.776
434.656
432.65
430.738
428.926
427.198
425.558
423.992
422.506
421.084
419.735
418.442
417.217
416.04
414.927
413.86
412.853
439
436.772
434.655
432.645
430.734
428.918
427.19
425.547
423.981
422.49
421.069
419.716
418.424
417.193
416.018
414.897
413.827
412.806
438.999
436.769
434.65
432.638
430.726
428.907
427.178
425.532
423.965
422.472
421.05
419.694
418.402
417.168
415.992
414.869
413.797
412.773
439
436.771
434.653
432.642
430.73
428.912
427.184
425.538
423.971
422.478
421.056
419.699
418.406
417.172
415.996
414.872
413.8
412.776
439.001
436.772
434.655
432.646
430.735
428.92
427.194
425.549
423.988
422.492
421.074
419.714
418.426
417.187
416.013
414.888
413.829
412.818
438.998
436.778
434.647
432.666
430.751
429
427.271
425.679
424.131
422.639
421.237
419.879
418.6
417.323
416.144
415.037
414.103
413.26
438.976
436.774
434.527
432.807
431.131
430.026
428.479
427.489
426.166
424.946
423.784
422.671
421.363
419.946
418.537
417.96
417.671
417.872
438.359
436.448
432.298
433.692
436.185
439.056
442.963
446.278
448.355
449.145
454.077
454.948
455.161
454.972
455.347
454.469
451.84
451.385
439.528
435.169
430.611
452.517
485.235
512.155
541.095
563.808
577.668
589.653
595.318
606.814
610.238
600.853
605.9
583.662
599.256
584.203
436.268
432.499
442.157
676.271
779.775
926.846
1015.74
1104.98
1185.37
1207.72
1213.94
1248.09
1247.56
1155.6
1157.94
1065.27
1095.55
1065.69
410.698
454.96
993.908
1272.36
2147.33
1567.98
1868.91
2947.86
2640.17
3120.82
3302.71
3299.62
3230.96
2948.34
2750.03
2575.72
2289.46
1957.45
212.275
863.224
6168.44
4473
5143.25
5513.9
7743.59
8784.91
8779.45
8345.19
7567.28
6995.29
6404.38
5586.07
4811.56
4019.12
3590.43
3006.08
377.47
5733.03
14807.3
17229.2
22996.6
18680.8
16460.1
14193.8
15508.2
14973.6
13816.8
12597.4
10905.3
9349.39
8063.16
7013.04
6223.55
5761.79
933.537
117009
73467.5
31189.2
13573.3
18425.4
21332.3
9350.1
14905.7
16658.2
13317.7
12653.1
14415.4
13554.6
11746.2
12082.8
11837.4
11299
18117.5
22846.6
25178.5
26379.4
26710.9
26616
26478.5
26140.1
25743.5
25330.9
24958.9
24587.2
24308.6
24089.6
23900.5
23738.4
23587.2
23459.6
11463.2
2514.24
2516.41
2518.61
2520.83
2523.07
2525.32
2527.6
2529.9
2532.22
2534.57
2536.93
2539.31
2541.72
2544.15
2546.6
2549.08
2551.57
2554.09
2556.64
2559.2
2561.79
2564.41
2567.05
2569.71
2572.4
2575.12
2577.86
2580.62
2583.41
2586.23
2589.08
2591.95
2594.85
2597.77
2600.73
2603.71
2606.72
2609.76
2612.82
2615.92
2619.05
2622.2
2625.39
2628.61
2631.86
2635.14
2638.45
2641.79
2645.17
2648.58
2652.02
2655.5
2659.01
2662.55
2666.13
3201.36
3386.8
3432.14
3459.85
3394.93
3177.14
2692.19
3204.75
3350.75
3444.82
3516.77
3605.33
3676.34
3753.42
3822.96
3893.63
3960.43
4026.96
4091.11
4154.55
4216.37
4277.33
4337.06
4395.92
4453.76
4510.75
4566.83
4622.09
4676.49
4730.09
4782.84
4834.8
4885.89
4936.16
4985.58
5034.08
5081.66
5128.23
5173.79
5218.22
5261.52
5303.58
5344.41
5383.92
5422.16
5459.18
5495.13
5530.37
5564.92
5598.28
5630.63
5661.98
5692.26
5721.54
5749.73
5776.91
5802.99
5828.05
5852
5874.92
5896.76
5917.57
5937.31
5956.02
5973.68
5990.3
6005.89
6020.46
6034
6046.54
6058.04
6068.51
6077.86
6086.02
6093.14
6100.3
6106.64
6112.27
6116.31
6119.92
6122.63
6124.78
6125.76
6125.05
6123.21
6120.41
6116.72
6112.15
6106.34
6099.99
6092.29
6084.19
6074.62
6064.88
6053.62
6041.37
6029.11
6014.97
6001.22
5985.47
5970.34
5953.21
5936.76
5918.45
5900.78
5881.98
5863.28
5844.19
5824.88
5805.46
5785.91
5766.4
5746.93
5727.7
5708.63
5689.9
5671.37
5653.02
5634.42
5615.25
5593.74
5567.11
5530.97
5395.27
11463.2
1994
993.779
809.673
692.599
610.013
613.236
611.856
603.534
583.293
561.007
538.186
517.609
500.616
489.302
481.128
480.281
488.154
506.353
562.191
645.058
745.874
854.637
962.742
1056.67
1131.15
1164.4
1155.92
1111.75
1028.78
906.069
758.87
637.503
560.683
494.479
457.016
446.757
453.476
469.045
497.124
527.636
563.537
639.896
749.189
858.363
1042.64
1356.1
1655.89
1854.45
1981.9
2042.03
2057.68
2041.61
2002.41
1954.76
1910.35
1900.04
1836.57
1787.59
1741.08
1694.59
1669.52
1628.18
1654.9
1644.43
1640.88
1639.87
1642.18
1644.05
1648.86
1653.64
1660.2
1666.94
1674.69
1682.66
1691.21
1699.93
1708.97
1718.12
1727.42
1736.78
1746.17
1755.56
1764.9
1774.18
1783.35
1792.39
1801.27
1809.96
1818.46
1826.69
1834.68
1842.37
1849.77
1856.84
1863.62
1870.09
1876.3
1882.29
1888.15
1894.01
1900.07
1906.61
1913.92
1922.43
1930.26
1938.04
1945.53
1952.82
1959.87
1966.7
1973.29
1979.67
1985.82
1991.76
1997.46
2002.96
2008.23
2013.28
2018.12
2022.73
2027.13
2031.31
2035.27
2039.02
2042.55
2045.86
2048.96
2051.84
2054.53
2057.07
2059.49
2061.69
2063.69
2065.46
2067.12
2068.48
2069.49
2069.78
2069.29
2068.53
2067.56
2066.39
2064.84
2063.46
2060.69
2059.26
2055.78
2053.89
2051.22
2046.97
2044.78
2039.97
2037.44
2032.23
2029.27
2023.82
2020.37
2014.81
2010.78
2005.33
2000.67
1995.41
1990.26
1985
1979.72
1974.4
1969.09
1963.78
1958.54
1953.33
1948.21
1943.17
1938.27
1933.55
1929.13
1925.05
1921.94
1919.62
1926.13
11463.2
2013.01
808.91
616.965
647.204
657.258
635.78
586.398
529.446
475.092
426.314
385.736
353.632
328.288
308.747
293.67
283.127
275.214
272.989
276.212
284.811
305.18
337.16
381.084
435.006
495.274
553.995
601.204
626.933
624.957
600.174
559.765
499.754
430.698
381.251
366.247
372.067
389.13
412.969
456.137
534.061
647.034
811.509
1008.96
1175.95
1314.52
1443.87
1522.74
1543.05
1536.56
1489.36
1437.02
1378.14
1322.54
1269.64
1225.97
1192.63
1160.3
1138.69
1120.95
1107.12
1100.59
1090.56
1090.29
1088.37
1087.97
1089.14
1090.87
1093.36
1096.55
1100.1
1104.15
1108.43
1113.01
1117.75
1122.67
1127.69
1132.81
1137.97
1143.17
1148.38
1153.59
1158.77
1163.91
1169
1174.02
1178.96
1183.81
1188.57
1193.22
1197.76
1202.19
1206.5
1210.71
1214.81
1218.83
1222.77
1226.67
1230.55
1234.45
1238.41
1242.46
1246.61
1250.85
1255.09
1259.12
1263.07
1266.87
1270.56
1274.12
1277.56
1280.87
1284.06
1287.12
1290.06
1292.87
1295.55
1298.1
1300.53
1302.82
1304.99
1307.02
1308.92
1310.69
1312.32
1313.82
1315.18
1316.42
1317.52
1318.5
1319.36
1320.1
1320.69
1321.15
1321.45
1321.62
1321.61
1321.35
1320.85
1320.11
1319.21
1318.16
1316.98
1315.56
1314.21
1312.35
1310.81
1308.58
1306.76
1304.65
1301.97
1299.9
1296.91
1294.64
1291.39
1288.85
1285.44
1282.63
1279.12
1276.02
1272.48
1269.11
1265.56
1262.01
1258.42
1254.81
1251.18
1247.55
1243.92
1240.31
1236.73
1233.2
1229.74
1226.41
1223.3
1220.54
1218.34
1217.32
1218.22
1228.1
11463.2
2033.8
981.998
930.187
874.593
755.922
644.965
542.915
460.67
398.864
352.319
315.92
287.473
265.451
248.536
235.593
225.892
218.828
214.099
212.219
212.906
216.84
224.159
238.379
259.575
287.885
321.691
356.468
386.744
409.814
412.618
405.314
386.589
377.227
404.42
470.452
525.775
569.191
620.958
696.8
811.332
951.017
1064.06
1140.01
1205.7
1254.69
1269.7
1226.1
1193.12
1143.68
1094.08
1049.54
1009.47
975.676
946.849
924.427
907.098
893.366
883.949
876.887
872.024
870.251
867.699
867.905
868.604
869.966
871.965
874.385
877.205
880.339
883.711
887.301
891.043
894.925
898.906
902.971
907.094
911.26
915.452
919.658
923.863
928.057
932.228
936.369
940.471
944.526
948.528
952.47
956.351
960.171
963.927
967.621
971.252
974.826
978.347
981.824
985.264
988.679
992.076
995.463
998.842
1002.21
1005.54
1008.83
1012.03
1015.12
1018.13
1021.04
1023.84
1026.55
1029.16
1031.67
1034.08
1036.38
1038.58
1040.67
1042.66
1044.53
1046.29
1047.95
1049.48
1050.91
1052.22
1053.41
1054.48
1055.44
1056.27
1056.99
1057.6
1058.08
1058.46
1058.71
1058.85
1058.85
1058.72
1058.46
1058.04
1057.46
1056.72
1055.82
1054.79
1053.62
1052.35
1050.91
1049.42
1047.69
1045.98
1043.98
1042.02
1039.93
1037.57
1035.33
1032.75
1030.32
1027.54
1024.9
1021.97
1019.14
1016.07
1013.06
1009.89
1006.73
1003.5
1000.23
996.941
993.627
990.298
986.964
983.633
980.316
977.031
973.795
970.639
967.608
964.776
962.268
960.254
959.215
959.943
966.092
11463.2
2279.94
1409.38
1151.86
922.128
720.331
558.775
448.402
372.007
318.216
279.873
252.144
231.948
216.932
205.709
197.299
191.033
186.488
183.452
182.025
182.377
183.9
187.17
193.807
204.274
219.56
239.902
263.138
286.533
307.162
319.445
341.942
380.721
468.448
549.525
607.006
664.663
732.832
807.734
880.84
946.542
1003.04
1051.42
1078.12
1083.26
1049.25
1008.88
970.854
933.271
895.443
863.696
836.573
813.895
795.446
780.63
769.432
761.138
755.217
751.386
749.248
748.39
748.419
749.038
750.639
752.697
755.164
757.977
761.06
764.373
767.87
771.518
775.291
779.163
783.117
787.135
791.201
795.303
799.428
803.565
807.704
811.836
815.952
820.046
824.111
828.142
832.132
836.079
839.978
843.829
847.629
851.384
855.088
858.746
862.355
865.923
869.449
872.938
876.389
879.805
883.181
886.513
889.789
892.997
896.13
899.179
902.139
905.012
907.794
910.482
913.077
915.573
917.971
920.266
922.46
924.547
926.529
928.4
930.16
931.806
933.337
934.751
936.047
937.224
938.281
939.217
940.031
940.723
941.292
941.739
942.062
942.26
942.329
942.314
942.138
941.828
941.384
940.796
940.064
939.19
938.18
937.042
935.775
934.391
932.867
931.245
929.462
927.602
925.574
923.472
921.266
918.897
916.487
913.907
911.297
908.523
905.722
902.776
899.801
896.708
893.58
890.368
887.116
883.813
880.476
877.11
873.722
870.319
866.911
863.507
860.12
856.765
853.463
850.244
847.154
844.247
841.622
839.412
837.945
837.94
840.961
11463.2
2850.63
1687.52
1185.47
828.454
587.16
445.07
356.757
302.49
267.418
242.477
223.512
208.496
196.433
186.831
179.308
173.615
169.542
166.939
165.832
166.142
167.539
170.527
175.629
183.134
194.015
209.221
228.479
252.392
286.247
337.479
409.822
507.929
593.249
654.589
713.108
769.556
818.335
858.446
894.567
929.247
945.854
946.529
918.454
890.754
858.716
827.248
798.067
771.355
748.039
728.929
713.051
700.255
690.198
682.586
677.189
673.683
671.851
671.238
671.303
672.41
674.191
676.478
679.255
682.365
685.749
689.358
693.151
697.094
701.161
705.329
709.581
713.901
718.275
722.691
727.137
731.604
736.082
740.56
745.032
749.49
753.927
758.337
762.716
767.059
771.362
775.623
779.837
784.003
788.125
792.197
796.224
800.203
804.135
808.02
811.858
815.649
819.393
823.085
826.722
830.296
833.798
837.223
840.567
843.826
846.996
850.075
853.059
855.946
858.732
861.413
863.986
866.449
868.799
871.033
873.15
875.146
877.017
878.763
880.381
881.87
883.228
884.455
885.55
886.512
887.34
888.034
888.593
889.017
889.304
889.441
889.472
889.38
889.127
888.731
888.192
887.51
886.683
885.713
884.605
883.363
881.986
880.479
878.835
877.066
875.155
873.128
870.963
868.684
866.291
863.765
861.144
858.395
855.558
852.602
849.564
846.419
843.201
839.893
836.521
833.079
829.584
826.039
822.456
818.842
815.206
811.554
807.897
804.245
800.612
797.012
793.466
790.002
786.655
783.475
780.538
777.948
775.935
774.948
775.847
11463.2
3361.51
1743.81
1032.32
652.214
457.739
354.345
295.856
259.328
234.635
216.699
202.888
191.867
182.807
175.22
168.98
164.088
160.532
158.4
157.751
158.481
160.734
165.012
171.629
181.491
195.396
214.234
242.084
286.004
352.317
448.711
541.851
607.437
663.964
713.814
754.068
786.281
813.869
836.179
846.028
842.985
821.656
802.275
777.14
753.407
729.12
706.789
686.954
669.82
655.512
643.908
634.596
627.423
622.166
618.606
616.767
616.138
616.29
617.499
619.417
621.978
625.043
628.5
632.29
636.339
640.596
645.023
649.59
654.271
659.046
663.899
668.814
673.781
678.787
683.822
688.876
693.94
699.004
704.061
709.103
714.122
719.112
724.07
728.99
733.869
738.703
743.489
748.224
752.909
757.541
762.121
766.65
771.124
775.544
779.909
784.219
788.47
792.663
796.792
800.855
804.849
808.767
812.608
816.36
820.021
823.585
827.05
830.41
833.661
836.798
839.817
842.713
845.484
848.123
850.628
852.99
855.212
857.291
859.227
861.017
862.661
864.158
865.506
866.705
867.755
868.657
869.408
870.01
870.462
870.759
870.893
870.915
870.784
870.488
870.038
869.435
868.68
867.771
866.712
865.505
864.153
862.656
861.017
859.232
857.307
855.233
853.011
850.643
848.14
845.508
842.741
839.855
836.843
833.72
830.479
827.134
823.684
820.142
816.512
812.804
809.024
805.182
801.288
797.352
793.383
789.388
785.378
781.361
777.351
773.36
769.404
765.503
761.681
757.97
754.411
751.064
748.007
745.406
743.49
742.742
11463.2
3522.47
1559.24
817.812
515.971
381.339
313.083
272.223
244.615
224.958
209.953
197.845
187.698
178.976
171.607
165.613
161.138
158.35
157.281
157.87
159.963
163.936
170.57
180.668
196.427
220.906
258.186
317.486
399.763
482.567
547.362
601.192
647.076
686.295
718.231
745.002
762.07
768.342
763.165
747.731
732.519
713.39
695.474
676.456
658.492
641.325
626.129
613.056
602.115
593.224
586.229
580.936
577.213
575.092
574.268
574.244
575.299
577.19
579.822
583.051
586.785
590.932
595.412
600.169
605.149
610.31
615.621
621.055
626.59
632.206
637.889
643.625
649.402
655.208
661.034
666.869
672.706
678.533
684.341
690.124
695.874
701.585
707.253
712.873
718.443
723.958
729.416
734.814
740.152
745.429
750.644
755.795
760.884
765.908
770.865
775.755
780.574
785.322
789.995
794.59
799.104
803.536
807.873
812.109
816.239
820.257
824.159
827.94
831.593
835.115
838.499
841.741
844.837
847.783
850.574
853.208
855.683
857.996
860.144
862.127
863.942
865.59
867.071
868.384
869.53
870.508
871.319
871.963
872.44
872.741
872.865
872.862
872.679
872.322
871.798
871.106
870.247
869.223
868.036
866.686
865.178
863.51
861.685
859.701
857.561
855.263
852.805
850.198
847.443
844.544
841.501
838.323
835.012
831.574
828.011
824.331
820.539
816.644
812.654
808.578
804.425
800.204
795.926
791.602
787.242
782.852
778.446
774.032
769.625
765.238
760.887
756.591
752.373
748.261
744.288
740.505
736.968
733.803
731.077
728.931
11463.2
3386.13
1287.13
660.011
437.4
339.57
288.079
257.361
236.889
220.895
207.91
197.037
187.761
179.899
173.39
168.386
165.145
163.781
164.398
167.407
173.195
182.87
198.065
220.311
253.641
303.418
366.96
433.546
491.51
541.107
583.114
619.434
650.552
678.131
696.066
702.28
699.324
688.258
675.878
661.196
647.126
632.637
618.77
604.931
591.955
580.104
569.868
561.286
554.313
548.88
544.89
542.302
541.094
540.828
541.541
543.174
545.657
548.859
552.687
557.044
561.852
567.038
572.538
578.299
584.276
590.431
596.733
603.157
609.682
616.286
622.95
629.661
636.403
643.163
649.93
656.694
663.45
670.183
676.882
683.541
690.153
696.712
703.214
709.655
716.033
722.342
728.58
734.739
740.813
746.81
752.737
758.59
764.372
770.078
775.708
781.259
786.729
792.115
797.415
802.623
807.733
812.736
817.628
822.402
827.054
831.577
835.966
840.215
844.316
848.265
852.055
855.681
859.137
862.42
865.525
868.45
871.19
873.744
876.109
878.284
880.27
882.065
883.671
885.088
886.317
887.357
888.211
888.878
889.359
889.642
889.742
889.677
889.421
888.977
888.348
887.535
886.54
885.363
884.007
882.474
880.765
878.882
876.824
874.593
872.19
869.614
866.868
863.954
860.876
857.637
854.241
850.695
847.002
843.169
839.198
835.098
830.876
826.542
822.103
817.572
812.955
808.264
803.511
798.706
793.861
788.985
784.089
779.187
774.291
769.417
764.581
759.801
755.1
750.5
746.034
741.74
737.663
733.896
730.476
727.236
11463.2
2981.18
1042.63
567.977
402.304
324.959
282.509
255.589
237.174
223.669
212.842
203.657
195.77
189.218
184.223
181.359
180.759
183.018
188.215
197.236
211.139
231.978
261.907
302.061
349.952
399.069
446.436
488.992
526.309
559.116
587.715
613.576
633.53
642.293
643.147
636.736
627.733
616.518
605.394
594.287
583.689
573.188
562.971
553.055
543.9
535.788
528.936
523.377
519.095
516.045
514.331
513.719
513.973
515.233
517.393
520.374
524.104
528.494
533.465
538.944
544.862
551.159
557.777
564.662
571.771
579.066
586.513
594.086
601.775
609.537
617.351
625.198
633.063
640.928
648.775
656.582
664.316
672
679.64
687.231
694.765
702.234
709.635
716.966
724.222
731.399
738.493
745.504
752.435
759.279
766.03
772.689
779.255
785.727
792.102
798.379
804.554
810.625
816.589
822.44
828.171
833.776
839.25
844.588
849.783
854.827
859.716
864.441
868.996
873.373
877.565
881.566
885.372
888.976
892.376
895.567
898.546
901.311
903.86
906.193
908.309
910.21
911.897
913.372
914.637
915.691
916.538
917.177
917.61
917.823
917.845
917.668
917.286
916.701
915.913
914.925
913.737
912.351
910.77
908.995
907.028
904.87
902.522
899.984
897.258
894.344
891.245
887.963
884.501
880.863
877.052
873.076
868.94
864.65
860.211
855.63
850.918
846.084
841.138
836.091
830.952
825.732
820.444
815.099
809.709
804.286
798.842
793.391
787.949
782.53
777.151
771.831
766.59
761.45
756.437
751.586
746.93
742.544
738.437
734.18
11463.2
2506.76
875.209
504.922
374.489
314.141
280.022
259.112
244.78
233.966
225.255
218.095
212.466
208.899
207.811
209.649
215.389
224.608
237.16
254.53
278.023
307.472
341.227
377.192
413.135
447.161
478.572
506.843
532.043
555.256
575.26
586.764
590.232
588.678
583.775
576.308
568.107
559.758
551.775
544.004
536.408
528.857
521.476
514.458
508.114
502.662
498.239
494.888
492.662
491.633
491.471
492.3
494.059
496.722
500.232
504.527
509.535
515.184
521.408
528.14
535.324
542.92
550.863
559.086
567.545
576.197
584.999
593.898
602.812
611.77
620.78
629.821
638.873
647.913
656.92
665.879
674.796
683.648
692.428
701.133
709.745
718.263
726.685
735.011
743.239
751.363
759.379
767.281
775.067
782.735
790.29
797.734
805.065
812.283
819.386
826.37
833.233
839.973
846.585
853.065
859.407
865.602
871.646
877.528
883.244
888.784
894.142
899.31
904.279
909.041
913.589
917.916
922.016
925.885
929.518
932.911
936.061
938.967
941.626
944.039
946.206
948.131
949.817
951.266
952.48
953.463
954.216
954.742
955.036
955.103
954.952
954.583
953.993
953.184
952.156
950.912
949.452
947.779
945.894
943.801
941.501
938.994
936.281
933.365
930.244
926.922
923.4
919.68
915.767
911.663
907.374
902.905
898.263
893.454
888.486
883.368
878.109
872.72
867.212
861.596
855.881
850.078
844.202
838.263
832.276
826.253
820.21
814.161
808.123
802.11
796.14
790.231
784.402
778.675
773.073
767.625
762.36
757.337
752.559
747.379
11463.2
2159.26
814.927
492.04
371.943
316.224
287.155
269.731
258.16
249.863
243.752
239.648
237.943
238.33
242.256
249.811
260.633
274.227
291.377
312.275
336.152
361.911
388.389
414.51
439.542
462.832
484.212
504.313
522.529
535.508
541.206
542.617
541.699
538.202
533.286
527.713
522.104
516.604
511.238
505.893
500.533
495.189
490.02
485.242
481.089
477.733
475.276
473.922
473.505
474.01
475.468
477.861
481.157
485.327
490.342
496.182
502.729
509.917
517.684
525.96
534.661
543.663
552.944
562.535
572.408
582.516
592.815
603.263
613.846
624.498
635.163
645.803
656.393
666.91
677.312
687.586
697.729
707.733
717.591
727.305
736.888
746.347
755.689
764.919
774.033
783.025
791.886
800.61
809.195
817.642
825.952
834.129
842.176
850.088
857.865
865.501
872.995
880.344
887.545
894.592
901.478
908.196
914.736
921.09
927.248
933.203
938.946
944.468
949.76
954.812
959.617
964.166
968.456
972.479
976.234
979.715
982.92
985.848
988.497
990.867
992.96
994.782
996.339
997.633
998.668
999.45
999.981
1000.26
1000.3
1000.09
999.644
998.962
998.047
996.899
995.52
993.911
992.072
990.007
987.718
985.209
982.479
979.53
976.363
972.979
969.379
965.564
961.538
957.303
952.862
948.221
943.382
938.353
933.14
927.75
922.194
916.48
910.62
904.624
898.503
892.267
885.927
879.495
872.983
866.404
859.774
853.107
846.421
839.733
833.057
826.41
819.809
813.272
806.816
800.462
794.235
788.16
782.26
776.585
771.15
765.116
11463.2
1887.97
745.106
471.585
370.197
323.208
298.503
284.117
275.086
269.292
266.196
265.236
266.467
270.706
277.949
287.949
300.39
315.068
331.686
349.956
369.25
388.907
408.163
426.399
443.775
460.614
476.322
488.707
496.139
499.832
501.256
501.224
499.509
496.918
493.84
490.566
487.245
483.874
480.434
476.913
473.363
469.897
466.688
463.924
461.787
460.537
460.138
460.658
462.225
464.755
468.203
472.549
477.763
483.791
490.527
497.836
505.871
514.615
524.017
534.013
544.543
555.577
567.047
578.87
590.987
603.34
615.863
628.489
641.173
653.849
666.41
678.791
690.935
702.805
714.406
725.742
736.823
747.674
758.322
768.798
779.114
789.287
799.335
809.27
819.084
828.762
838.294
847.671
856.892
865.953
874.861
883.616
892.221
900.673
908.97
917.106
925.079
932.887
940.523
947.986
955.264
962.352
969.235
975.905
982.35
988.562
994.529
1000.24
1005.7
1010.87
1015.77
1020.37
1024.67
1028.68
1032.38
1035.77
1038.86
1041.63
1044.1
1046.25
1048.09
1049.63
1050.88
1051.84
1052.52
1052.92
1053.05
1052.92
1052.53
1051.87
1050.96
1049.81
1048.41
1046.77
1044.89
1042.78
1040.42
1037.83
1035.01
1031.96
1028.68
1025.18
1021.45
1017.49
1013.31
1008.9
1004.28
999.435
994.381
989.119
983.654
977.994
972.14
966.104
959.899
953.535
947.022
940.368
933.584
926.682
919.673
912.568
905.38
898.119
890.806
883.46
876.098
868.736
861.392
854.079
846.816
839.62
832.506
825.497
818.619
811.893
805.341
799.004
792.929
786.098
11463.2
1884.42
744.584
475.136
378.512
334.847
312.886
300.687
293.456
289.751
288.483
289.101
292.583
298.517
306.629
316.561
328.004
340.675
354.329
368.538
382.838
396.818
410.48
424.067
436.883
447.388
454.845
460.096
463.931
466.039
466.975
467.206
466.734
465.887
464.765
463.452
461.991
460.402
458.726
457.039
455.483
454.28
453.547
453.324
453.761
455.014
457.099
459.961
463.433
467.718
472.966
479.202
486.412
494.565
503.651
513.687
524.592
536.321
548.791
561.916
575.617
589.823
604.437
619.348
634.468
649.738
665.053
680.259
695.23
709.855
724.088
737.87
751.158
763.936
776.214
788.009
799.357
810.344
821.072
831.652
842.09
852.396
862.62
872.786
882.858
892.797
902.596
912.242
921.728
931.052
940.21
949.207
958.042
966.713
975.214
983.542
991.691
999.658
1007.44
1015.03
1022.42
1029.59
1036.54
1043.25
1049.72
1055.92
1061.84
1067.49
1072.84
1077.88
1082.6
1087
1091.06
1094.79
1098.19
1101.23
1103.94
1106.31
1108.35
1110.06
1111.44
1112.48
1113.2
1113.61
1113.7
1113.51
1113.02
1112.25
1111.19
1109.87
1108.28
1106.44
1104.34
1102
1099.42
1096.6
1093.56
1090.29
1086.78
1083.04
1079.07
1074.87
1070.44
1065.78
1060.9
1055.79
1050.45
1044.9
1039.14
1033.16
1026.99
1020.62
1014.05
1007.3
1000.39
993.323
986.105
978.744
971.252
963.64
955.919
948.103
940.203
932.226
924.201
916.148
908.086
900.029
891.992
883.991
876.045
868.168
860.374
852.692
845.147
837.762
830.556
823.558
816.856
809.278
11463.2
1844.39
735.889
480.064
389.138
348.352
327.932
316.729
310.424
307.519
306.744
308.088
312.051
317.916
325.266
333.728
343.048
353.007
363.363
373.86
384.26
394.748
404.528
412.896
419.834
425.657
430.656
434.72
438.085
440.819
443.139
445.239
447.052
448.561
449.822
450.88
451.784
452.585
453.346
454.127
454.958
455.738
456.855
458.6
461.174
464.803
469.541
475.312
482.21
490.235
499.396
509.716
521.173
533.72
547.329
561.977
577.615
594.232
611.58
629.494
647.833
666.458
685.225
703.986
722.594
740.879
758.714
776.02
792.687
808.606
823.689
837.865
851.112
863.504
875.103
885.946
896.034
905.598
914.861
924.249
933.617
942.936
952.327
961.856
971.425
980.955
990.39
999.694
1008.85
1017.84
1026.67
1035.35
1043.86
1052.22
1060.4
1068.4
1076.23
1083.86
1091.31
1098.56
1105.6
1112.43
1119.02
1125.36
1131.43
1137.23
1142.73
1147.94
1152.82
1157.37
1161.57
1165.42
1168.91
1172.04
1174.8
1177.18
1179.18
1180.83
1182.12
1183.07
1183.64
1183.86
1183.74
1183.29
1182.49
1181.39
1179.98
1178.27
1176.29
1174.02
1171.49
1168.7
1165.66
1162.38
1158.86
1155.11
1151.15
1146.96
1142.55
1137.91
1133.04
1127.95
1122.64
1117.1
1111.34
1105.36
1099.17
1092.76
1086.15
1079.33
1072.32
1065.12
1057.76
1050.24
1042.57
1034.74
1026.77
1018.65
1010.41
1002.05
993.576
985.013
976.372
967.655
958.9
950.126
941.351
932.584
923.841
915.14
906.5
897.934
889.459
881.106
872.898
864.859
857.004
849.349
842.035
833.76
11463.7
1825.5
736.76
488.825
400.013
360.382
340.94
329.975
323.679
320.804
320.012
321.12
324.574
329.498
335.496
342.25
349.608
357.47
365.726
374.08
382.055
389.542
396.729
403.6
410.079
416.265
422.19
427.814
433.107
438.041
442.56
446.496
450.029
453.368
456.579
459.717
462.85
466.048
469.398
472.993
476.955
481.494
486.743
492.845
500.033
508.575
518.459
529.535
541.895
555.541
570.503
586.879
604.649
623.568
643.494
664.284
685.746
707.637
729.859
752.246
774.613
796.782
818.587
839.874
860.506
880.359
899.335
917.361
934.37
950.304
965.103
978.648
990.918
1002.19
1012.64
1022.37
1031.42
1039.85
1047.73
1055.22
1062.38
1069.44
1076.83
1084.79
1092.96
1101.19
1109.36
1117.4
1125.31
1133.07
1140.68
1148.16
1155.5
1162.7
1169.75
1176.62
1183.33
1189.86
1196.21
1202.38
1208.37
1214.14
1219.69
1224.99
1230.02
1234.77
1239.22
1243.38
1247.22
1250.7
1253.8
1256.55
1258.92
1260.92
1262.54
1263.74
1264.55
1265
1265.05
1264.75
1264.04
1262.98
1261.57
1259.83
1257.76
1255.39
1252.72
1249.77
1246.55
1243.08
1239.35
1235.39
1231.18
1226.75
1222.1
1217.23
1212.15
1206.86
1201.35
1195.64
1189.72
1183.58
1177.24
1170.69
1163.94
1156.98
1149.82
1142.45
1134.9
1127.15
1119.22
1111.11
1102.87
1094.48
1085.95
1077.27
1068.45
1059.49
1050.4
1041.2
1031.91
1022.53
1013.08
1003.6
994.097
984.588
975.083
965.595
956.139
946.732
937.392
928.134
918.978
909.956
901.089
892.398
883.897
875.59
867.67
858.743
11462.8
1807.78
738.595
494.891
407.777
368.94
349.97
338.981
332.666
329.763
328.917
329.788
332.956
337.523
343.239
349.725
356.791
364.281
372.048
380.05
388.303
396.458
404.59
412.73
420.88
429.103
437.41
445.716
453.914
462.04
470.116
478.233
486.392
494.613
502.946
511.443
520.169
529.193
538.603
548.487
558.964
570.183
582.22
595.127
608.974
623.721
639.444
656.38
674.585
694.054
714.813
736.897
759.923
783.845
808.514
833.733
859.269
884.849
910.232
935.164
959.423
982.844
1005.28
1026.59
1046.68
1065.48
1082.97
1099.12
1113.97
1127.58
1140.03
1151.43
1161.72
1171.05
1179.67
1187.74
1195.32
1202.32
1208.72
1214.28
1219.34
1224.32
1229.69
1235.34
1241.02
1246.67
1252.25
1257.73
1263.13
1268.44
1273.69
1278.86
1283.95
1288.95
1293.84
1298.61
1303.25
1307.75
1312.12
1316.35
1320.42
1324.32
1328.01
1331.47
1334.69
1337.63
1340.31
1342.74
1344.86
1346.61
1347.95
1348.98
1349.65
1349.97
1349.96
1349.48
1348.63
1347.44
1345.89
1343.99
1341.74
1339.16
1336.25
1333.05
1329.56
1325.79
1321.77
1317.51
1313.01
1308.29
1303.35
1298.21
1292.86
1287.32
1281.57
1275.64
1269.53
1263.23
1256.75
1250.08
1243.22
1236.18
1228.95
1221.53
1213.92
1206.13
1198.15
1189.99
1181.65
1173.12
1164.43
1155.56
1146.54
1137.37
1128.05
1118.59
1108.99
1099.25
1089.39
1079.43
1069.37
1059.23
1049.03
1038.82
1028.6
1018.37
1008.15
997.95
987.788
977.683
967.653
957.728
947.936
938.289
928.803
919.498
910.387
901.465
892.967
883.465
11461.8
1795.79
741.21
497.467
412.648
374.937
356.871
346.41
341.23
339.235
339.032
341.343
345.806
351.706
358.823
367.289
376.523
386.12
396.547
408.029
420.285
432.856
446.029
459.836
474.263
489.271
504.767
520.687
537.051
553.84
571.027
588.618
606.513
624.625
642.931
661.423
680.107
698.995
718.147
737.619
757.356
777.374
797.694
818.308
839.219
860.439
882.117
904.853
928.562
953.01
978.04
1003.26
1028.73
1054.4
1080.11
1105.67
1130.83
1155.38
1179.1
1201.71
1222.95
1242.81
1261.18
1277.94
1293.05
1306.47
1318.26
1328.39
1337
1344.25
1350.35
1355.73
1360.75
1365.26
1369.18
1372.56
1375.34
1377.57
1379.58
1381.46
1383.46
1386.01
1388.6
1390.68
1392.56
1394.39
1396.21
1398.08
1399.99
1401.97
1403.99
1406.05
1408.11
1410.17
1412.21
1414.21
1416.17
1418.08
1419.93
1421.7
1423.37
1424.91
1426.29
1427.48
1428.47
1429.24
1429.79
1430.17
1430.33
1430.05
1429.31
1428.37
1427.13
1425.59
1423.71
1421.49
1418.95
1416.09
1412.92
1409.45
1405.69