/*--------------------------------*- C++ -*----------------------------------*\
  =========                 |
  \\      /  F ield         | OpenFOAM: The Open Source CFD Toolbox
   \\    /   O peration     | Website:  https://openfoam.org
    \\  /    A nd           | Version:  13
     \\/     M anipulation  |
\*---------------------------------------------------------------------------*/
FoamFile
{
    format      ascii;
    class       volScalarField;
    location    "900";
    object      p;
}
// * * * * * * * * * * * * * * * * * * * * * * * * * * * * * * * * * * * * * //

dimensions      [0 2 -2 0 0 0 0];

internalField   nonuniform List<scalar> 
12225
(
-4.12357
-4.97538
-5.36631
-5.4881
-5.61677
-5.77382
-5.9187
-6.03328
-6.12022
-6.19704
-6.26975
-6.34366
-6.42086
-6.49365
-6.56228
-6.63359
-6.71161
-6.80422
-4.38845
-5.0015
-5.33348
-5.45724
-5.58234
-5.73372
-5.88069
-6.00166
-6.0954
-6.1728
-6.24713
-6.31812
-6.38709
-6.46126
-6.53388
-6.6072
-6.67701
-6.71985
-4.55989
-5.00506
-5.31472
-5.46631
-5.59621
-5.74276
-5.88327
-5.99995
-6.09433
-6.17343
-6.24761
-6.31745
-6.38506
-6.45573
-6.52465
-6.59011
-6.64657
-6.6819
-4.69034
-5.02435
-5.31663
-5.47973
-5.60528
-5.7405
-5.87215
-5.98446
-6.07996
-6.1614
-6.23574
-6.30534
-6.37259
-6.44048
-6.50579
-6.56572
-6.61686
-6.65308
-4.8181
-5.06742
-5.33311
-5.49397
-5.61417
-5.74086
-5.86724
-5.97867
-6.07442
-6.15638
-6.23032
-6.29936
-6.36544
-6.43022
-6.49165
-6.54739
-6.59539
-6.63173
-4.93971
-5.11953
-5.34919
-5.50514
-5.62335
-5.74476
-5.86662
-5.9757
-6.0692
-6.15007
-6.22319
-6.2913
-6.35586
-6.41786
-6.47603
-6.52865
-6.57422
-6.61034
-5.04649
-5.17287
-5.36915
-5.51905
-5.63603
-5.75216
-5.86865
-5.97375
-6.0643
-6.14375
-6.21595
-6.28297
-6.34594
-6.40554
-6.46108
-6.51125
-6.55488
-6.5907
-5.13152
-5.22833
-5.39511
-5.53637
-5.65037
-5.76098
-5.87142
-5.97182
-6.0593
-6.137
-6.20786
-6.27344
-6.33465
-6.39201
-6.44525
-6.49333
-6.53542
-6.57088
-5.20334
-5.28355
-5.42444
-5.55525
-5.6648
-5.77019
-5.8742
-5.9696
-6.05399
-6.12973
-6.19905
-6.26314
-6.32272
-6.37819
-6.42946
-6.47586
-6.51685
-6.55204
-5.2721
-5.33683
-5.4552
-5.57469
-5.67896
-5.77864
-5.87612
-5.9666
-6.04801
-6.12178
-6.18953
-6.25216
-6.31021
-6.36399
-6.41351
-6.45841
-6.49843
-6.53328
-5.33804
-5.38803
-5.48682
-5.59446
-5.69251
-5.78603
-5.87732
-5.96321
-6.04173
-6.11346
-6.17954
-6.24065
-6.2972
-6.34943
-6.3974
-6.44099
-6.48015
-6.51465
-5.39287
-5.43272
-5.51638
-5.61312
-5.70471
-5.79255
-5.87853
-5.96035
-6.03607
-6.10574
-6.17013
-6.22974
-6.2849
-6.3358
-6.38255
-6.42511
-6.46356
-6.49772
-5.44183
-5.4744
-5.54537
-5.63179
-5.71682
-5.79923
-5.8802
-5.958
-6.0308
-6.09828
-6.16085
-6.21893
-6.27271
-6.32237
-6.368
-6.40963
-6.44741
-6.48121
-5.4913
-5.51786
-5.57709
-5.65286
-5.73059
-5.80711
-5.88269
-5.95602
-6.02542
-6.09028
-6.15073
-6.20699
-6.25921
-6.30747
-6.35187
-6.3925
-6.42951
-6.46285
-5.53941
-5.56106
-5.61006
-5.67555
-5.74557
-5.81589
-5.88589
-5.95444
-6.02008
-6.08198
-6.14
-6.1942
-6.24464
-6.29134
-6.33442
-6.37393
-6.41009
-6.44287
-5.58343
-5.6012
-5.64186
-5.69815
-5.76061
-5.82475
-5.88926
-5.95303
-6.01474
-6.07348
-6.12888
-6.18084
-6.22933
-6.27438
-6.31601
-6.35437
-6.38958
-6.42173
-5.61941
-5.63431
-5.66874
-5.71764
-5.77352
-5.8321
-5.89168
-5.95108
-6.00907
-6.06471
-6.1175
-6.1672
-6.21374
-6.25709
-6.2973
-6.33445
-6.36873
-6.40018
-5.64135
-5.65449
-5.68507
-5.72923
-5.7806
-5.8352
-5.89117
-5.94729
-6.00239
-6.05552
-6.10611
-6.15387
-6.19868
-6.2405
-6.2794
-6.31544
-6.3488
-6.37954
-5.63951
-5.65233
-5.68224
-5.72554
-5.77595
-5.82948
-5.88433
-5.93932
-5.99329
-6.04529
-6.09476
-6.14139
-6.18511
-6.22588
-6.26381
-6.29899
-6.33161
-6.36179
-5.60563
-5.62042
-5.6544
-5.70254
-5.7571
-5.81387
-5.87132
-5.92845
-5.98403
-6.0371
-6.08717
-6.13402
-6.17769
-6.21817
-6.2557
-6.29037
-6.32249
-6.35217
-5.55721
-5.57536
-5.6165
-5.67274
-5.734
-5.79596
-5.85786
-5.91877
-5.97732
-6.03252
-6.084
-6.13175
-6.17581
-6.21639
-6.25369
-6.28805
-6.31966
-6.34891
-5.49481
-5.51875
-5.57124
-5.63902
-5.70871
-5.77708
-5.8447
-5.9106
-5.97301
-6.03097
-6.08437
-6.13332
-6.17803
-6.21878
-6.25593
-6.28989
-6.32098
-6.34963
-5.42017
-5.45344
-5.52259
-5.60476
-5.6835
-5.75871
-5.8328
-5.90428
-5.97086
-6.03182
-6.08732
-6.13762
-6.18304
-6.22392
-6.26086
-6.2943
-6.32478
-6.35272
-5.33392
-5.38153
-5.47296
-5.57062
-5.65775
-5.74013
-5.82152
-5.89902
-5.96996
-6.03405
-6.09178
-6.14347
-6.18949
-6.23047
-6.26701
-6.29987
-6.32961
-6.35689
-5.23969
-5.30857
-5.42721
-5.53826
-5.63098
-5.72011
-5.80938
-5.89332
-5.96899
-6.03671
-6.0971
-6.15046
-6.19722
-6.23805
-6.27384
-6.30558
-6.33393
-6.35979
-5.1388
-5.23802
-5.38975
-5.51343
-5.60984
-5.70487
-5.80099
-5.8903
-5.9701
-6.04132
-6.10449
-6.15991
-6.2079
-6.2491
-6.28451
-6.31539
-6.34284
-6.36799
-5.02493
-5.16118
-5.35446
-5.48918
-5.59192
-5.69609
-5.79938
-5.89292
-5.97556
-6.04885
-6.11318
-6.16895
-6.21669
-6.25694
-6.29094
-6.32011
-6.34574
-6.3697
-4.89147
-5.12292
-5.338
-5.46426
-5.57103
-5.68728
-5.79981
-5.89894
-5.98606
-6.06318
-6.1298
-6.18647
-6.23395
-6.27306
-6.30542
-6.33267
-6.35624
-6.37889
-4.6989
-5.11067
-5.35737
-5.46187
-5.56156
-5.6811
-5.79677
-5.89743
-5.985
-6.06299
-6.13202
-6.19116
-6.24014
-6.27971
-6.31124
-6.33635
-6.35706
-6.37513
-4.4192
-5.03399
-5.34401
-5.45752
-5.56527
-5.69467
-5.81967
-5.92757
-6.01624
-6.09317
-6.16575
-6.22917
-6.2801
-6.31988
-6.3494
-6.37009
-6.38502
-6.39515
-7.28207
-7.28216
-7.28222
-7.28223
-7.28201
-7.28097
-7.27869
-7.27553
-7.27243
-7.2703
-7.27014
-7.27217
-7.27597
-7.28084
-7.28605
-7.29096
-7.29503
-7.29787
-7.29942
-7.29999
-7.29989
-7.29933
-7.29854
-7.29777
-7.29722
-7.29697
-7.29693
-7.2969
-7.2967
-7.29631
-7.29577
-7.29512
-7.29433
-7.29331
-7.29208
-7.29084
-7.29013
-7.29071
-7.29295
-7.29637
-7.29989
-7.30253
-7.30403
-7.30484
-7.30563
-7.30708
-7.30972
-7.31307
-7.31617
-7.31868
-7.32261
-7.33156
-7.34942
-7.37625
-7.41111
-7.45407
-7.50525
-7.56353
-7.62722
-7.69453
-7.76372
-7.8331
-7.90102
-7.96599
-8.02734
-8.08454
-8.13701
-8.18464
-8.22749
-8.26561
-8.29917
-8.32832
-8.3532
-8.37398
-8.39078
-8.40372
-8.4129
-8.4184
-8.42028
-8.4186
-8.41337
-8.40461
-8.39228
-8.3764
-8.35688
-8.33369
-8.30672
-8.27588
-8.24103
-8.20205
-8.15887
-8.11135
-8.05934
-8.00268
-7.94121
-7.87474
-7.80308
-7.72604
-7.6435
-7.55541
-7.46176
-7.36246
-7.2572
-7.14549
-7.02712
-6.90216
-6.77064
-6.63259
-6.48802
-6.33698
-6.1795
-6.01571
-5.84568
-5.66956
-5.48751
-5.29968
-5.10623
-4.90734
-4.70321
-4.49404
-4.28004
-4.06141
-3.83835
-3.61106
-3.37972
-3.14452
-2.90564
-2.66327
-2.41756
-2.16868
-1.91677
-1.66201
-1.40452
-1.14449
-0.88208
-0.617535
-0.351091
-0.0828955
0.187071
0.458793
0.73204
1.00651
1.28195
1.55813
1.8348
2.11172
2.38863
2.66526
2.94132
3.21653
3.49057
3.76316
4.03397
4.30267
4.56895
4.83249
5.09299
5.35014
5.60369
5.85335
6.09889
6.34007
6.57667
6.80847
7.03529
7.25694
7.47327
7.68412
7.88938
8.08894
8.28271
8.47063
8.65268
8.8288
8.99898
9.16356
9.32296
9.47696
9.62912
9.77185
-7.28317
-7.28335
-7.2837
-7.28409
-7.28413
-7.2834
-7.2816
-7.27921
-7.27738
-7.27704
-7.2785
-7.28166
-7.28606
-7.29109
-7.29617
-7.30081
-7.30466
-7.30753
-7.30924
-7.30961
-7.30871
-7.30685
-7.30444
-7.30195
-7.29978
-7.29818
-7.29717
-7.29653
-7.296
-7.29545
-7.29494
-7.29451
-7.29406
-7.29348
-7.29273
-7.29212
-7.29236
-7.2941
-7.29733
-7.30113
-7.3043
-7.30592
-7.30597
-7.30512
-7.3037
-7.30206
-7.30156
-7.30444
-7.31097
-7.31756
-7.32431
-7.33517
-7.35161
-7.37498
-7.40818
-7.45251
-7.50679
-7.56876
-7.6362
-7.70676
-7.77819
-7.84836
-7.91572
-7.97974
-8.03952
-8.09427
-8.14419
-8.18943
-8.23006
-8.26624
-8.29812
-8.32585
-8.34956
-8.36937
-8.3854
-8.39772
-8.40642
-8.41156
-8.41319
-8.41133
-8.40601
-8.39724
-8.38498
-8.36923
-8.34991
-8.32699
-8.30036
-8.26993
-8.23555
-8.19715
-8.1546
-8.10778
-8.05652
-8.00068
-7.94008
-7.87456
-7.80394
-7.72801
-7.64662
-7.55955
-7.46662
-7.36762
-7.26241
-7.15102
-7.03341
-6.90941
-6.77891
-6.64189
-6.49835
-6.34832
-6.19185
-6.02903
-5.85996
-5.68477
-5.50362
-5.31666
-5.12406
-4.926
-4.72267
-4.51428
-4.30104
-4.08316
-3.86082
-3.63424
-3.4036
-3.16909
-2.9309
-2.68919
-2.44415
-2.19592
-1.94467
-1.69054
-1.43367
-1.17423
-0.912331
-0.648099
-0.381669
-0.113281
0.156771
0.428253
0.701073
0.97511
1.25014
1.52594
1.80228
2.07889
2.35553
2.63193
2.90782
3.18289
3.45685
3.72941
4.00024
4.26901
4.53543
4.79915
5.05989
5.31733
5.5712
5.82123
6.06719
6.30881
6.54589
6.77821
7.00558
7.22782
7.44476
7.65624
7.86217
8.06243
8.25691
8.4456
8.62851
8.80557
8.97679
9.14214
9.30223
9.45684
9.6114
9.7538
-7.28438
-7.28438
-7.28443
-7.28453
-7.28461
-7.2846
-7.28469
-7.28537
-7.28713
-7.29012
-7.29418
-7.29898
-7.30414
-7.30925
-7.31394
-7.31794
-7.32103
-7.32312
-7.32414
-7.32401
-7.32277
-7.32052
-7.31745
-7.31378
-7.30974
-7.30559
-7.30159
-7.29797
-7.29491
-7.29254
-7.29084
-7.28961
-7.28854
-7.28752
-7.28693
-7.28754
-7.29001
-7.29437
-7.29956
-7.30384
-7.30574
-7.30472
-7.3019
-7.29929
-7.29832
-7.29858
-7.2999
-7.30474
-7.31449
-7.3284
-7.34687
-7.37103
-7.40119
-7.43781
-7.48131
-7.53125
-7.58636
-7.64521
-7.70644
-7.76875
-7.83086
-7.89162
-7.95012
-8.00585
-8.05835
-8.10718
-8.15222
-8.1934
-8.23072
-8.2642
-8.29389
-8.31984
-8.34212
-8.36078
-8.37587
-8.38747
-8.3956
-8.4003
-8.4016
-8.39953
-8.39409
-8.38527
-8.37306
-8.35743
-8.33832
-8.31568
-8.28941
-8.25941
-8.22557
-8.18776
-8.14589
-8.09982
-8.04936
-7.99436
-7.93465
-7.87005
-7.80038
-7.72549
-7.64521
-7.55933
-7.46766
-7.36995
-7.26606
-7.15594
-7.03957
-6.91681
-6.78758
-6.65184
-6.50957
-6.36081
-6.2056
-6.04401
-5.87616
-5.70215
-5.52215
-5.33631
-5.14482
-4.94783
-4.74556
-4.5382
-4.32597
-4.10908
-3.88772
-3.6621
-3.4324
-3.19884
-2.96158
-2.7208
-2.47667
-2.22934
-1.97898
-1.72574
-1.46977
-1.21122
-0.950241
-0.686943
-0.42144
-0.153918
0.115351
0.38612
0.658254
0.931617
1.206
1.4812
1.75697
2.03307
2.30925
2.58524
2.86076
3.13554
3.40926
3.68164
3.95236
4.2211
4.48753
4.75133
5.0122
5.26984
5.52396
5.77429
6.02057
6.26257
6.50006
6.73282
6.96066
7.1834
7.40086
7.6129
7.81938
8.02022
8.21531
8.40456
8.58795
8.76552
8.93735
9.10353
9.26486
9.42038
9.57769
9.71579
-7.2854
-7.28515
-7.2848
-7.28478
-7.28575
-7.28813
-7.29181
-7.29645
-7.30171
-7.30731
-7.31298
-7.31848
-7.32362
-7.3282
-7.33206
-7.33508
-7.33716
-7.33823
-7.33827
-7.33724
-7.33517
-7.33213
-7.32819
-7.32347
-7.31804
-7.31205
-7.30566
-7.29913
-7.29276
-7.28693
-7.2819
-7.27783
-7.27488
-7.27337
-7.27404
-7.27755
-7.28335
-7.28981
-7.29502
-7.29771
-7.29783
-7.29647
-7.29533
-7.29579
-7.29852
-7.30411
-7.3133
-7.3269
-7.34548
-7.36923
-7.3979
-7.43109
-7.46856
-7.51006
-7.55524
-7.60361
-7.65461
-7.7076
-7.7619
-7.81675
-7.87139
-7.92505
-7.97706
-8.0269
-8.07417
-8.11854
-8.15979
-8.19779
-8.23243
-8.26368
-8.29151
-8.31592
-8.33692
-8.35453
-8.36877
-8.37967
-8.38725
-8.39154
-8.39254
-8.39027
-8.38472
-8.37589
-8.36375
-8.34827
-8.32941
-8.30709
-8.28124
-8.25174
-8.21848
-8.18135
-8.14023
-8.09498
-8.04542
-7.99137
-7.93266
-7.8691
-7.8005
-7.72669
-7.64749
-7.56272
-7.47218
-7.37567
-7.27304
-7.1642
-7.04905
-6.9275
-6.79947
-6.66492
-6.52384
-6.37625
-6.22218
-6.06172
-5.89496
-5.72202
-5.54306
-5.35823
-5.16771
-4.97169
-4.77035
-4.56392
-4.35259
-4.13659
-3.91612
-3.69138
-3.46257
-3.22988
-2.9935
-2.7536
-2.51035
-2.2639
-2.01441
-1.76203
-1.50692
-1.24922
-0.98909
-0.726645
-0.462013
-0.195358
0.073093
0.343118
0.614552
0.887239
1.16098
1.43557
1.71077
1.98636
2.26207
2.53765
2.81281
3.08728
3.36076
3.63296
3.90355
4.17223
4.43866
4.70253
4.96352
5.22133
5.47566
5.72626
5.97285
6.21519
6.45306
6.68624
6.91453
7.13773
7.35568
7.56822
7.77522
7.97658
8.1722
8.36203
8.54604
8.72427
8.89683
9.0638
9.22606
9.38192
9.54006
9.67176
-7.28746
-7.28692
-7.28652
-7.28768
-7.29143
-7.29723
-7.30406
-7.3112
-7.3182
-7.32478
-7.3308
-7.33617
-7.34086
-7.34478
-7.34788
-7.35005
-7.35125
-7.35143
-7.35057
-7.34864
-7.34565
-7.34163
-7.33665
-7.33075
-7.324
-7.31648
-7.30828
-7.29956
-7.2906
-7.28179
-7.27372
-7.26708
-7.26272
-7.26164
-7.26434
-7.26979
-7.27585
-7.28115
-7.28507
-7.28754
-7.28929
-7.29139
-7.29507
-7.30135
-7.31118
-7.32534
-7.34403
-7.36685
-7.39332
-7.42323
-7.45627
-7.4922
-7.53093
-7.57231
-7.61614
-7.6621
-7.70979
-7.75874
-7.80843
-7.8583
-7.90779
-7.95636
-8.00352
-8.04886
-8.09202
-8.13271
-8.17072
-8.20587
-8.23805
-8.26716
-8.29316
-8.316
-8.33565
-8.35211
-8.36537
-8.37545
-8.38236
-8.38609
-8.38666
-8.38407
-8.37831
-8.36937
-8.35723
-8.34184
-8.32317
-8.30114
-8.27566
-8.24664
-8.21395
-8.17746
-8.13709
-8.09264
-8.04396
-7.99084
-7.93312
-7.87059
-7.80306
-7.73033
-7.65221
-7.56853
-7.47907
-7.38368
-7.28217
-7.17443
-7.06034
-6.93983
-6.81279
-6.67922
-6.53908
-6.3924
-6.23922
-6.07962
-5.91368
-5.74154
-5.56334
-5.37925
-5.18944
-4.99411
-4.79345
-4.58768
-4.37702
-4.16169
-3.94189
-3.71783
-3.4897
-3.2577
-3.02202
-2.78284
-2.54031
-2.29459
-2.04583
-1.79419
-1.53981
-1.28284
-1.02341
-0.761667
-0.497739
-0.231799
0.0359567
0.305329
0.576153
0.848256
1.12145
1.39553
1.67027
1.94543
2.22076
2.49601
2.7709
3.04514
3.31846
3.59054
3.86108
4.12975
4.39623
4.66019
4.92133
5.17932
5.43389
5.68474
5.93164
6.17432
6.41256
6.64612
6.87483
7.09847
7.31688
7.5299
7.7374
7.93927
8.13543
8.32581
8.51039
8.68919
8.8623
9.02975
9.19235
9.34778
9.50558
9.63023
-7.29138
-7.2905
-7.29086
-7.29482
-7.30171
-7.30969
-7.31782
-7.3256
-7.33278
-7.33926
-7.34504
-7.35009
-7.35436
-7.35779
-7.36031
-7.36187
-7.36241
-7.3619
-7.36033
-7.35768
-7.35395
-7.34918
-7.34338
-7.33659
-7.3288
-7.32008
-7.31058
-7.30046
-7.29
-7.27971
-7.27044
-7.2632
-7.2592
-7.25895
-7.26151
-7.26512
-7.26876
-7.27245
-7.2766
-7.28151
-7.28737
-7.29475
-7.30493
-7.31888
-7.33676
-7.35831
-7.38313
-7.41095
-7.44143
-7.47433
-7.50946
-7.54667
-7.58584
-7.62683
-7.66944
-7.71342
-7.75846
-7.80421
-7.85028
-7.89628
-7.94177
-7.98638
-8.02972
-8.07145
-8.11126
-8.1489
-8.18415
-8.21682
-8.2468
-8.27395
-8.29821
-8.3195
-8.3378
-8.35306
-8.36527
-8.37444
-8.38057
-8.38364
-8.38368
-8.38068
-8.37463
-8.36551
-8.3533
-8.33797
-8.31945
-8.29768
-8.27258
-8.24403
-8.2119
-8.1761
-8.13645
-8.09282
-8.04501
-7.99283
-7.93608
-7.87456
-7.80806
-7.73637
-7.6593
-7.57664
-7.4882
-7.39379
-7.29324
-7.18642
-7.07321
-6.95351
-6.82726
-6.69442
-6.55497
-6.40894
-6.25636
-6.09732
-5.93191
-5.76026
-5.58253
-5.39888
-5.20949
-5.01456
-4.8143
-4.60893
-4.39868
-4.18377
-3.96441
-3.74081
-3.51316
-3.28167
-3.04651
-2.80787
-2.5659
-2.32077
-2.07261
-1.82158
-1.56781
-1.31144
-1.05261
-0.791456
-0.528115
-0.262766
0.00440763
0.273229
0.543534
0.81515
1.08789
1.36156
1.63592
1.91075
2.1858
2.46081
2.7355
3.0096
3.28282
3.55486
3.82541
4.09412
4.3607
4.62479
4.88609
5.14428
5.39909
5.65021
5.8974
6.1404
6.37899
6.61293
6.84203
7.06608
7.28491
7.49836
7.7063
7.90862
8.10522
8.29604
8.48106
8.66025
8.83368
9.00128
9.16377
9.31834
9.47549
9.59316
-7.29636
-7.29583
-7.29815
-7.30478
-7.31312
-7.32146
-7.32941
-7.33684
-7.34367
-7.34988
-7.3554
-7.36018
-7.36414
-7.36722
-7.36934
-7.37046
-7.37055
-7.36957
-7.36751
-7.36435
-7.36013
-7.35486
-7.34852
-7.34105
-7.33252
-7.32308
-7.31292
-7.30231
-7.29162
-7.28149
-7.27291
-7.26698
-7.26406
-7.2631
-7.26307
-7.26391
-7.26605
-7.27007
-7.27589
-7.28355
-7.29376
-7.30718
-7.32392
-7.34385
-7.3668
-7.39253
-7.42074
-7.45121
-7.48378
-7.51829
-7.55457
-7.59243
-7.63172
-7.67228
-7.71393
-7.75643
-7.79955
-7.84302
-7.88653
-7.92978
-7.97244
-8.0142
-8.05474
-8.09376
-8.13101
-8.16623
-8.19924
-8.22984
-8.25791
-8.28331
-8.30596
-8.32579
-8.34274
-8.35678
-8.3679
-8.37609
-8.38136
-8.38369
-8.38312
-8.37962
-8.3732
-8.36385
-8.35153
-8.3362
-8.31782
-8.29631
-8.27158
-8.24352
-8.21199
-8.17685
-8.13798
-8.09519
-8.04826
-7.99703
-7.94125
-7.88072
-7.81523
-7.74454
-7.66847
-7.58676
-7.49926
-7.40571
-7.306
-7.19993
-7.08743
-6.96835
-6.84268
-6.71034
-6.57135
-6.4257
-6.27346
-6.11471
-5.94956
-5.77812
-5.60058
-5.41709
-5.22785
-5.03305
-4.83293
-4.62771
-4.41763
-4.20293
-3.9838
-3.76046
-3.53312
-3.30197
-3.06718
-2.82894
-2.58741
-2.34274
-2.09508
-1.84455
-1.5913
-1.33545
-1.07713
-0.816479
-0.553649
-0.288813
-0.022141
0.246205
0.516063
0.787269
1.05963
1.33296
1.60703
1.88161
2.15645
2.4313
2.70587
2.9799
3.25309
3.52516
3.79576
4.06459
4.33129
4.59555
4.85703
5.11545
5.37049
5.62189
5.86937
6.1127
6.35162
6.58593
6.81539
7.03981
7.259
7.47282
7.68112
7.8838
8.08074
8.2719
8.4572
8.63662
8.81018
8.97771
9.13985
9.29335
9.44983
9.56085
-7.30037
-7.30097
-7.30575
-7.31356
-7.32171
-7.32949
-7.33691
-7.34393
-7.35049
-7.35647
-7.36181
-7.36639
-7.37015
-7.373
-7.37489
-7.37577
-7.3756
-7.37435
-7.37202
-7.36861
-7.36413
-7.35856
-7.35183
-7.34398
-7.33527
-7.32588
-7.31595
-7.3058
-7.296
-7.28742
-7.28074
-7.27598
-7.27225
-7.269
-7.26697
-7.26699
-7.26922
-7.27408
-7.28207
-7.29333
-7.30778
-7.32528
-7.34571
-7.36887
-7.39454
-7.42253
-7.45263
-7.48468
-7.51852
-7.55398
-7.5909
-7.62911
-7.66845
-7.70875
-7.74982
-7.79145
-7.83343
-7.87552
-7.91746
-7.95898
-7.99981
-8.03967
-8.07827
-8.11538
-8.15073
-8.18413
-8.21537
-8.24428
-8.27072
-8.29457
-8.31575
-8.33418
-8.34982
-8.36263
-8.37261
-8.37977
-8.3841
-8.38562
-8.38435
-8.38029
-8.37345
-8.36381
-8.35134
-8.336
-8.31774
-8.29649
-8.27214
-8.24458
-8.21366
-8.17925
-8.14117
-8.09923
-8.05323
-8.00294
-7.94814
-7.88861
-7.82411
-7.75441
-7.67927
-7.59848
-7.5118
-7.41904
-7.32002
-7.21458
-7.10261
-6.98401
-6.85872
-6.72669
-6.58793
-6.44245
-6.29032
-6.13162
-5.96647
-5.79501
-5.6174
-5.43383
-5.24449
-5.0496
-4.84938
-4.64411
-4.43401
-4.21932
-4.00025
-3.77703
-3.54984
-3.31888
-3.08435
-2.8464
-2.6052
-2.36091
-2.11365
-1.86355
-1.61074
-1.35534
-1.09747
-0.837267
-0.574892
-0.310514
-0.0442879
0.223635
0.493101
0.763948
1.03599
1.30904
1.58286
1.85724
2.13193
2.40667
2.68117
2.95518
3.22839
3.50052
3.77123
4.04019
4.30705
4.5715
4.83319
5.09184
5.34714
5.59882
5.84661
6.09025
6.32952
6.56417
6.79397
7.01872
7.23825
7.45239
7.661
7.86397
8.0612
8.2526
8.43812
8.61766
8.79123
8.95854
9.12022
9.27261
9.42845
9.53333
-7.3017
-7.30382
-7.31021
-7.31789
-7.3254
-7.33268
-7.33976
-7.34654
-7.35294
-7.35882
-7.36408
-7.3686
-7.3723
-7.3751
-7.37694
-7.37776
-7.37755
-7.37628
-7.37392
-7.37048
-7.36596
-7.3603
-7.35351
-7.34583
-7.33749
-7.32864
-7.31958
-7.31077
-7.30274
-7.29582
-7.28987
-7.28453
-7.27958
-7.27544
-7.2731
-7.27334
-7.27664
-7.28333
-7.29347
-7.30686
-7.32338
-7.34283
-7.36502
-7.38975
-7.41681
-7.44603
-7.47723
-7.51025
-7.54491
-7.58106
-7.61852
-7.65714
-7.69673
-7.73711
-7.77807
-7.81943
-7.86097
-7.90245
-7.94363
-7.98424
-8.02405
-8.06278
-8.10018
-8.13602
-8.17008
-8.20214
-8.23202
-8.25956
-8.28463
-8.30711
-8.32693
-8.34402
-8.35834
-8.3699
-8.37869
-8.38474
-8.38806
-8.38869
-8.38665
-8.38197
-8.37465
-8.36468
-8.35203
-8.33667
-8.31852
-8.29752
-8.27357
-8.24654
-8.21629
-8.18261
-8.14538
-8.10434
-8.05929
-8.00998
-7.95619
-7.89766
-7.83414
-7.7654
-7.69116
-7.61122
-7.52529
-7.43322
-7.33477
-7.22984
-7.11827
-7
-6.87492
-6.74303
-6.6043
-6.4588
-6.30657
-6.14772
-5.98237
-5.81067
-5.6328
-5.44893
-5.25928
-5.06409
-4.86361
-4.65809
-4.44781
-4.23299
-4.01386
-3.79062
-3.56347
-3.33262
-3.09824
-2.8605
-2.61956
-2.37557
-2.12865
-1.87892
-1.6265
-1.3715
-1.11403
-0.854227
-0.592268
-0.328307
-0.0624848
0.205056
0.474173
0.744698
1.01646
1.28926
1.5629
1.83712
2.11169
2.38635
2.66083
2.93483
3.20811
3.48033
3.7512
4.02032
4.28738
4.55203
4.81396
5.07285
5.32842
5.58038
5.82847
6.07242
6.31201
6.54698
6.7771
7.00216
7.22197
7.43638
7.64525
7.84847
8.04592
8.23751
8.42315
8.60273
8.7762
8.94321
9.10433
9.25561
9.41084
9.5102
-7.29892
-7.30235
-7.30908
-7.3163
-7.32346
-7.33055
-7.33752
-7.34427
-7.35069
-7.35665
-7.36202
-7.36669
-7.37055
-7.37352
-7.37554
-7.37654
-7.37649
-7.37536
-7.37315
-7.36984
-7.36543
-7.35994
-7.35348
-7.3463
-7.33865
-7.3308
-7.32305
-7.31566
-7.30863
-7.30197
-7.2957
-7.28988
-7.28482
-7.28115
-7.27965
-7.28089
-7.28523
-7.29288
-7.30389
-7.31814
-7.33548
-7.35574
-7.37871
-7.40419
-7.43198
-7.46191
-7.49382
-7.52754
-7.5629
-7.59974
-7.63787
-7.6771
-7.71725
-7.7581
-7.79947
-7.84114
-7.88286
-7.9244
-7.96551
-8.00593
-8.0454
-8.08366
-8.12047
-8.1556
-8.18883
-8.21995
-8.24881
-8.27525
-8.29913
-8.32036
-8.33886
-8.3546
-8.36757
-8.3778
-8.3853
-8.39013
-8.39233
-8.39197
-8.3891
-8.38374
-8.37591
-8.36559
-8.35276
-8.33737
-8.31936
-8.29864
-8.27513
-8.24869
-8.21912
-8.18628
-8.14992
-8.10984
-8.06577
-8.01748
-7.96471
-7.90718
-7.84465
-7.77683
-7.70346
-7.62428
-7.53905
-7.44756
-7.34962
-7.24507
-7.1338
-7.0157
-6.89071
-6.75879
-6.61996
-6.47426
-6.32177
-6.16259
-5.99687
-5.82476
-5.64644
-5.46211
-5.27199
-5.07635
-4.87545
-4.66958
-4.459
-4.24394
-4.02464
-3.8013
-3.57412
-3.3433
-3.10901
-2.87142
-2.63069
-2.38696
-2.14034
-1.89095
-1.63888
-1.38424
-1.12713
-0.867712
-0.606143
-0.342573
-0.0771316
0.190054
0.458843
0.729077
1.00058
1.27316
1.54661
1.82069
2.09516
2.36976
2.64423
2.91827
3.19161
3.46398
3.73501
4.00432
4.27158
4.53645
4.79861
5.05775
5.31359
5.56583
5.81421
6.05847
6.29838
6.53367
6.76408
6.98941
7.20948
7.42413
7.63323
7.83664
8.03427
8.226
8.41172
8.59127
8.76457
8.93122
9.09176
9.24194
9.39656
9.49109
-7.29021
-7.29434
-7.30093
-7.30809
-7.3154
-7.32267
-7.32982
-7.33678
-7.34345
-7.3497
-7.35541
-7.36042
-7.36463
-7.36794
-7.37028
-7.37158
-7.37182
-7.37097
-7.36904
-7.36602
-7.36196
-7.35695
-7.35118
-7.34485
-7.33818
-7.33126
-7.32422
-7.31719
-7.31022
-7.30338
-7.29691
-7.29118
-7.28661
-7.28364
-7.28284
-7.28472
-7.28962
-7.29773
-7.3091
-7.32368
-7.34135
-7.36192
-7.38522
-7.41107
-7.43929
-7.46975
-7.50226
-7.53667
-7.5728
-7.61047
-7.64948
-7.68962
-7.73071
-7.7725
-7.81479
-7.85731
-7.8998
-7.94201
-7.98366
-8.02449
-8.06421
-8.10256
-8.13928
-8.17412
-8.20687
-8.23735
-8.26538
-8.29082
-8.31357
-8.33355
-8.35071
-8.36504
-8.37656
-8.38534
-8.39144
-8.39493
-8.39591
-8.39449
-8.39072
-8.38466
-8.3763
-8.36564
-8.35263
-8.33723
-8.31936
-8.29897
-8.27595
-8.25014
-8.22137
-8.18938
-8.15398
-8.1149
-8.07186
-8.02461
-7.97286
-7.91635
-7.85479
-7.78787
-7.71534
-7.63687
-7.55227
-7.46128
-7.36377
-7.25952
-7.14844
-7.03041
-6.90538
-6.77332
-6.63425
-6.48822
-6.33533
-6.17569
-6.00945
-5.83679
-5.65789
-5.47298
-5.28228
-5.08609
-4.88469
-4.67839
-4.46744
-4.2521
-4.03259
-3.8091
-3.58185
-3.35102
-3.11679
-2.87933
-2.63878
-2.39528
-2.14895
-1.89987
-1.64814
-1.39385
-1.13711
-0.87806
-0.616879
-0.353706
-0.0886491
0.178179
0.446641
0.716589
0.987839
1.26021
1.53348
1.80744
2.08183
2.3564
2.63086
2.90496
3.17841
3.45095
3.72218
3.9917
4.25915
4.52424
4.78663
5.04604
5.30213
5.55465
5.80331
6.04787
6.28809
6.52369
6.75437
6.97994
7.20023
7.41509
7.62437
7.82795
8.02572
8.21755
8.40329
8.58275
8.75584
8.92206
9.08199
9.2311
9.38511
9.47548
-7.27408
-7.27831
-7.28508
-7.29294
-7.30093
-7.30869
-7.31623
-7.32356
-7.33066
-7.33741
-7.34364
-7.34918
-7.35388
-7.35764
-7.36041
-7.36215
-7.36283
-7.36244
-7.36101
-7.35854
-7.35513
-7.35086
-7.34585
-7.34022
-7.33411
-7.3276
-7.32077
-7.31372
-7.3066
-7.29967
-7.29325
-7.28765
-7.28328
-7.28064
-7.28024
-7.28248
-7.28768
-7.29602
-7.30754
-7.32222
-7.33996
-7.36061
-7.38405
-7.41013
-7.4387
-7.46965
-7.50281
-7.53801
-7.57507
-7.6138
-7.65398
-7.69541
-7.73787
-7.78109
-7.8248
-7.86872
-7.91254
-7.95595
-7.99867
-8.04037
-8.08077
-8.11957
-8.15652
-8.19135
-8.22386
-8.25385
-8.28116
-8.30567
-8.32728
-8.34595
-8.36165
-8.37443
-8.38435
-8.39152
-8.39603
-8.39804
-8.39768
-8.3951
-8.39037
-8.38357
-8.37469
-8.36369
-8.35053
-8.33514
-8.31746
-8.29743
-8.27495
-8.24986
-8.22193
-8.19092
-8.15653
-8.11848
-8.07651
-8.03032
-7.97964
-7.92415
-7.86356
-7.79754
-7.72579
-7.64802
-7.56398
-7.47347
-7.3763
-7.2723
-7.16134
-7.04331
-6.91815
-6.78585
-6.64645
-6.5
-6.34661
-6.18641
-6.01957
-5.84627
-5.66672
-5.48116
-5.28985
-5.09308
-4.89116
-4.68441
-4.47309
-4.25746
-4.03771
-3.81406
-3.58672
-3.35588
-3.12171
-2.88437
-2.64401
-2.40075
-2.1547
-1.90595
-1.65458
-1.40067
-1.14432
-0.885674
-0.624914
-0.362162
-0.0975036
0.168953
0.437081
0.706729
0.977725
1.24988
1.52299
1.79682
2.07114
2.34568
2.62016
2.89433
3.1679
3.44066
3.71214
3.98186
4.2495
4.51479
4.77742
5.03706
5.29342
5.54621
5.79515
6.04
6.28055
6.51646
6.74738
6.97316
7.19365
7.40869
7.61814
7.82186
8.01975
8.21166
8.39739
8.57673
8.74956
8.91534
9.07464
9.22274
9.37608
9.46298
-7.25009
-7.25418
-7.26182
-7.27103
-7.28004
-7.28841
-7.29642
-7.30428
-7.31205
-7.31957
-7.32658
-7.33283
-7.33817
-7.34253
-7.34589
-7.34823
-7.34953
-7.34981
-7.34907
-7.34733
-7.34463
-7.34104
-7.33665
-7.33151
-7.3257
-7.3193
-7.31243
-7.30527
-7.29804
-7.29099
-7.28441
-7.27873
-7.2744
-7.2719
-7.27165
-7.27404
-7.27932
-7.28767
-7.29913
-7.3137
-7.3313
-7.35188
-7.37533
-7.40157
-7.43048
-7.46197
-7.49588
-7.53206
-7.57031
-7.6104
-7.65213
-7.69524
-7.73948
-7.78455
-7.83013
-7.87588
-7.92147
-7.96654
-8.01073
-8.0537
-8.09511
-8.13463
-8.172
-8.20697
-8.23932
-8.26886
-8.29545
-8.31898
-8.33936
-8.35654
-8.37054
-8.38147
-8.38949
-8.39476
-8.39743
-8.39771
-8.39584
-8.39199
-8.3863
-8.3788
-8.36947
-8.35825
-8.34504
-8.32976
-8.31235
-8.29277
-8.27094
-8.24666
-8.21969
-8.18965
-8.15629
-8.11928
-8.07838
-8.03328
-7.98368
-7.92925
-7.86964
-7.80453
-7.73354
-7.65645
-7.57295
-7.48289
-7.38604
-7.28228
-7.1714
-7.05334
-6.92801
-6.79543
-6.65565
-6.50874
-6.35481
-6.19402
-6.02654
-5.85259
-5.67238
-5.48619
-5.29429
-5.09696
-4.89456
-4.68736
-4.47568
-4.25973
-4.03974
-3.81591
-3.58847
-3.35761
-3.1235
-2.88631
-2.64616
-2.40319
-2.15747
-1.90911
-1.65817
-1.40473
-1.14888
-0.890749
-0.630494
-0.36822
-0.104005
0.162043
0.429802
0.699121
0.969837
1.24175
1.51468
1.78837
2.06259
2.33708
2.61158
2.88579
3.15951
3.43255
3.70436
3.9743
4.24214
4.50762
4.77048
5.03036
5.28698
5.54003
5.78925
6.03441
6.27532
6.51155
6.74269
6.96864
7.18931
7.4045
7.61408
7.81793
8.01591
8.2079
8.3936
8.57277
8.7453
8.91061
9.06929
9.21642
9.36903
9.45315
-7.2192
-7.22359
-7.23269
-7.24364
-7.25374
-7.26279
-7.27154
-7.2802
-7.28874
-7.29715
-7.30522
-7.31252
-7.31871
-7.32373
-7.32773
-7.33079
-7.33287
-7.33394
-7.33399
-7.33301
-7.33101
-7.32802
-7.32407
-7.31921
-7.31352
-7.30711
-7.30013
-7.29276
-7.28523
-7.27788
-7.27106
-7.26522
-7.26078
-7.2582
-7.25787
-7.26011
-7.26517
-7.27321
-7.2843
-7.29849
-7.31577
-7.33613
-7.3595
-7.38585
-7.4151
-7.44717
-7.48192
-7.51921
-7.55883
-7.60056
-7.64416
-7.68933
-7.73575
-7.78308
-7.83093
-7.87892
-7.92664
-7.97368
-8.01963
-8.06408
-8.10665
-8.147
-8.18483
-8.21987
-8.25193
-8.28084
-8.30646
-8.32871
-8.3475
-8.36279
-8.37466
-8.38335
-8.38914
-8.39226
-8.39283
-8.39113
-8.38754
-8.38238
-8.37581
-8.36782
-8.35831
-8.34713
-8.33414
-8.31921
-8.30226
-8.28328
-8.26223
-8.23889
-8.21288
-8.18389
-8.15148
-8.11542
-8.07553
-8.0315
-7.98299
-7.92963
-7.87103
-7.8068
-7.73657
-7.66008
-7.57712
-7.48747
-7.39095
-7.28737
-7.17656
-7.05841
-6.93286
-6.79995
-6.65975
-6.51236
-6.35791
-6.19656
-6.02848
-5.8539
-5.67307
-5.48628
-5.29382
-5.096
-4.89311
-4.68545
-4.47329
-4.25689
-4.03651
-3.81237
-3.58472
-3.35376
-3.11965
-2.88256
-2.64263
-2.39996
-2.15466
-1.9068
-1.65645
-1.40368
-1.14857
-0.891221
-0.631688
-0.37006
-0.106437
0.159064
0.426314
0.695163
0.965447
1.23698
1.50955
1.78295
2.05691
2.3312
2.60552
2.87961
3.15326
3.4264
3.6984
3.96851
4.23651
4.50217
4.76521
5.02532
5.28217
5.53547
5.78493
6.03038
6.27172
6.50837
6.73974
6.96587
7.18669
7.40203
7.61175
7.81571
8.01381
8.2059
8.39158
8.57056
8.74278
8.90762
9.06568
9.21188
9.36371
9.44571
-7.18413
-7.1894
-7.20049
-7.21355
-7.22482
-7.23426
-7.24338
-7.25294
-7.26272
-7.27233
-7.28153
-7.28999
-7.29719
-7.30295
-7.30762
-7.31144
-7.31434
-7.31625
-7.3171
-7.31685
-7.31548
-7.31297
-7.30936
-7.30468
-7.29901
-7.29247
-7.28523
-7.27751
-7.2696
-7.26187
-7.25471
-7.24852
-7.24374
-7.24077
-7.23996
-7.24163
-7.24602
-7.2533
-7.26361
-7.27705
-7.29368
-7.31354
-7.33663
-7.36297
-7.39252
-7.4252
-7.4609
-7.49946
-7.54068
-7.58432
-7.63009
-7.67763
-7.72656
-7.77647
-7.8269
-7.87737
-7.9274
-7.9765
-8.02418
-8.06999
-8.11353
-8.15442
-8.19236
-8.2271
-8.25847
-8.28633
-8.31057
-8.3311
-8.34784
-8.36072
-8.36988
-8.37577
-8.379
-8.37987
-8.37825
-8.37433
-8.36869
-8.36199
-8.35457
-8.34628
-8.33687
-8.3261
-8.31372
-8.29955
-8.28355
-8.2657
-8.24588
-8.22376
-8.1991
-8.17143
-8.14039
-8.10564
-8.06696
-8.02409
-7.97671
-7.92442
-7.86683
-7.80345
-7.73399
-7.6581
-7.57566
-7.48639
-7.39015
-7.2867
-7.17591
-7.0576
-6.93178
-6.79846
-6.65775
-6.50978
-6.3547
-6.19267
-6.02388
-5.84856
-5.66698
-5.47948
-5.28635
-5.08791
-4.88443
-4.67619
-4.46344
-4.24651
-4.02564
-3.80113
-3.57319
-3.34205
-3.10788
-2.87084
-2.63106
-2.38866
-2.14372
-1.89632
-1.64652
-1.3944
-1.14006
-0.883493
-0.624719
-0.363796
-0.100843
0.164022
0.43066
0.698929
0.968661
1.23968
1.51177
1.78471
2.05826
2.33215
2.60609
2.87978
3.15293
3.42523
3.69639
3.96609
4.23393
4.49955
4.76259
5.02273
5.27962
5.53296
5.78247
6.02797
6.26952
6.50646
6.73804
6.96431
7.18526
7.40073
7.61056
7.81463
8.01286
8.20513
8.39087
8.56968
8.74158
8.90596
9.06344
9.20875
9.35975
9.44029
-7.14719
-7.15364
-7.16715
-7.18217
-7.19379
-7.20359
-7.21374
-7.22446
-7.23533
-7.24606
-7.25642
-7.26605
-7.2743
-7.28097
-7.28653
-7.29129
-7.29516
-7.29801
-7.29974
-7.30027
-7.29955
-7.29755
-7.29425
-7.2897
-7.28397
-7.27721
-7.26962
-7.26143
-7.25298
-7.24462
-7.23675
-7.22976
-7.22406
-7.22005
-7.21807
-7.21844
-7.22142
-7.22727
-7.23617
-7.24829
-7.26378
-7.28277
-7.30534
-7.33155
-7.36139
-7.3948
-7.43164
-7.47176
-7.51491
-7.56079
-7.60902
-7.65919
-7.71082
-7.7634
-7.81641
-7.86931
-7.92152
-7.97248
-8.02164
-8.06849
-8.11262
-8.15364
-8.19126
-8.22526
-8.2555
-8.28186
-8.30433
-8.32282
-8.33719
-8.34715
-8.35274
-8.35474
-8.35464
-8.35335
-8.35068
-8.34628
-8.34026
-8.33311
-8.32519
-8.31654
-8.307
-8.29638
-8.28439
-8.27082
-8.2557
-8.23897
-8.22028
-8.19937
-8.1759
-8.14958
-8.11996
-8.08662
-8.04927
-8.00768
-7.9615
-7.91034
-7.85375
-7.79133
-7.72268
-7.64756
-7.56575
-7.47702
-7.38116
-7.27797
-7.16728
-7.04897
-6.923
-6.78944
-6.64837
-6.49992
-6.34426
-6.18158
-6.01208
-5.83603
-5.65372
-5.46551
-5.2717
-5.07262
-4.86856