/*--------------------------------*- C++ -*----------------------------------*\
  =========                 |
  \\      /  F ield         | OpenFOAM: The Open Source CFD Toolbox
   \\    /   O peration     | Website:  https://openfoam.org
    \\  /    A nd           | Version:  13
     \\/     M anipulation  |
\*---------------------------------------------------------------------------*/
FoamFile
{
    format      ascii;
    class       surfaceScalarField;
    location    "900";
    object      phi;
}
// * * * * * * * * * * * * * * * * * * * * * * * * * * * * * * * * * * * * * //

dimensions      [0 3 -1 0 0 0 0];

internalField   nonuniform List<scalar> 
24170
(
3.04126e-06
1.47162e-07
2.8846e-06
1.56736e-07
2.74317e-06
1.41423e-07
2.61456e-06
1.28622e-07
2.50163e-06
1.12956e-07
2.40552e-06
9.60886e-08
2.32879e-06
7.67405e-08
2.26612e-06
6.26271e-08
2.21208e-06
5.40651e-08
2.16825e-06
4.38078e-08
2.13499e-06
3.32568e-08
2.11079e-06
2.41795e-08
2.09357e-06
1.72163e-08
2.08248e-06
1.108e-08
2.07602e-06
6.46352e-09
2.07306e-06
2.94581e-09
2.0742e-06
-1.17885e-09
-3.81065e-09
2.07797e-06
3.49455e-06
6.98751e-08
3.54345e-06
1.07839e-07
3.57292e-06
1.1193e-07
3.58413e-06
1.17443e-07
3.57928e-06
1.17846e-07
3.56274e-06
1.12668e-07
3.53662e-06
1.02894e-07
3.50778e-06
9.14735e-08
3.48038e-06
8.14974e-08
3.45074e-06
7.3462e-08
3.4198e-06
6.42123e-08
3.3884e-06
5.55879e-08
3.35575e-06
4.98707e-08
3.32234e-06
4.44879e-08
3.28993e-06
3.88736e-08
3.25971e-06
3.3154e-08
3.23103e-06
2.74612e-08
2.43488e-08
3.20284e-06
3.67893e-06
5.34807e-08
3.6935e-06
9.33454e-08
3.70964e-06
9.57679e-08
3.72741e-06
9.96605e-08
3.74421e-06
1.01065e-07
3.75837e-06
9.84853e-08
3.7689e-06
9.23624e-08
3.77556e-06
8.47793e-08
3.77891e-06
7.81617e-08
3.77987e-06
7.2495e-08
3.77813e-06
6.59578e-08
3.77391e-06
5.97993e-08
3.76826e-06
5.55234e-08
3.76136e-06
5.13932e-08
3.75335e-06
4.68943e-08
3.74434e-06
4.21578e-08
3.73419e-06
3.75958e-08
3.41669e-08
3.72438e-06
3.93705e-06
4.18319e-08
3.94512e-06
8.52906e-08
3.95126e-06
8.96144e-08
3.95821e-06
9.27301e-08
3.96566e-06
9.36399e-08
3.97317e-06
9.10076e-08
3.98028e-06
8.52749e-08
3.98667e-06
7.84173e-08
3.9924e-06
7.24592e-08
3.99769e-06
6.72194e-08
4.00193e-06
6.17432e-08
4.00505e-06
5.66813e-08
4.00775e-06
5.28326e-08
4.00999e-06
4.91618e-08
4.01167e-06
4.52199e-08
4.01269e-06
4.11313e-08
4.01305e-06
3.72105e-08
3.39255e-08
4.01327e-06
4.21636e-06
3.26085e-08
4.22545e-06
7.62744e-08
4.2316e-06
8.34323e-08
4.23776e-06
8.65479e-08
4.24379e-06
8.76083e-08
4.24938e-06
8.53917e-08
4.25439e-06
8.02593e-08
4.25883e-06
7.39626e-08
4.26292e-06
6.83652e-08
4.26693e-06
6.32148e-08
4.27055e-06
5.81234e-08
4.27372e-06
5.35144e-08
4.27679e-06
4.9776e-08
4.2797e-06
4.62527e-08
4.28234e-06
4.25866e-08
4.28462e-06
3.886e-08
4.28654e-06
3.52754e-08
3.20555e-08
4.28842e-06
4.51613e-06
2.55733e-08
4.52671e-06
6.57352e-08
4.53297e-06
7.718e-08
4.53896e-06
8.05729e-08
4.5448e-06
8.17975e-08
4.55012e-06
8.00932e-08
4.55472e-06
7.56835e-08
4.55863e-06
7.00685e-08
4.56221e-06
6.48044e-08
4.56568e-06
5.97684e-08
4.56887e-06
5.49412e-08
4.57179e-06
5.06041e-08
4.57465e-06
4.69195e-08
4.57744e-06
4.3476e-08
4.58002e-06
4.00063e-08
4.58235e-06
3.65324e-08
4.58446e-06
3.31475e-08
2.99495e-08
4.58655e-06
4.83616e-06
2.21416e-08
4.8458e-06
5.61306e-08
4.85287e-06
7.00904e-08
4.85926e-06
7.41609e-08
4.86543e-06
7.56108e-08
4.87113e-06
7.43811e-08
4.87612e-06
7.06784e-08
4.88041e-06
6.57687e-08
4.88426e-06
6.09585e-08
4.88781e-06
5.62193e-08
4.89104e-06
5.17152e-08
4.894e-06
4.7652e-08
4.89683e-06
4.40892e-08
4.89957e-06
4.07511e-08
4.90214e-06
3.74425e-08
4.9045e-06
3.41693e-08
4.90666e-06
3.09702e-08
2.78873e-08
4.90876e-06
5.18209e-06
1.96457e-08
5.19016e-06
4.80944e-08
5.19736e-06
6.29067e-08
5.20385e-06
6.76947e-08
5.2101e-06
6.93842e-08
5.21598e-06
6.85235e-08
5.22123e-06
6.54425e-08
5.22583e-06
6.11866e-08
5.22996e-06
5.68498e-08
5.23369e-06
5.25002e-08
5.23707e-06
4.83493e-08
5.24016e-06
4.45679e-08
5.24307e-06
4.11827e-08
5.24584e-06
3.79942e-08
5.24843e-06
3.48528e-08
5.25085e-06
3.17538e-08
5.25308e-06
2.87427e-08
2.58021e-08
5.25516e-06
5.55402e-06
1.69692e-08
5.56068e-06
4.14563e-08
5.56766e-06
5.59163e-08
5.57415e-06
6.11939e-08
5.5804e-06
6.3127e-08
5.58632e-06
6.25959e-08
5.59169e-06
6.00646e-08
5.59645e-06
5.6423e-08
5.60076e-06
5.25391e-08
5.60465e-06
4.86156e-08
5.60817e-06
4.48293e-08
5.61141e-06
4.13341e-08
5.61446e-06
3.81465e-08
5.61732e-06
3.51399e-08
5.61998e-06
3.21959e-08
5.62245e-06
2.92874e-08
5.62474e-06
2.64493e-08
2.36957e-08
5.62688e-06
5.95298e-06
1.37783e-08
5.95846e-06
3.60153e-08
5.96504e-06
4.93556e-08
5.97146e-06
5.48047e-08
5.97769e-06
5.69267e-08
5.9836e-06
5.67044e-08
5.98903e-06
5.46635e-08
5.99389e-06
5.15796e-08
5.99831e-06
4.81345e-08
6.00233e-06
4.46088e-08
6.006e-06
4.11737e-08
6.00938e-06
3.79567e-08
6.01256e-06
3.49737e-08
6.01556e-06
3.21512e-08
6.01835e-06
2.94092e-08
6.02092e-06
2.67107e-08
6.02331e-06
2.40704e-08
2.14978e-08
6.02552e-06
6.37953e-06
1.10717e-08
6.3847e-06
3.08602e-08
6.39096e-06
4.30972e-08
6.39727e-06
4.8495e-08
6.40347e-06
5.07308e-08
6.4094e-06
5.0779e-08
6.41489e-06
4.91845e-08
6.41987e-06
4.65993e-08
6.42442e-06
4.35943e-08
6.42857e-06
4.04582e-08
6.43239e-06
3.73647e-08
6.43593e-06
3.44184e-08
6.43925e-06
3.16567e-08
6.44238e-06
2.90203e-08
6.44531e-06
2.64793e-08
6.44803e-06
2.39941e-08
6.45053e-06
2.15586e-08
1.9204e-08
6.45285e-06
5.7427e-06
9.20755e-09
5.74679e-06
2.67981e-08
5.75184e-06
3.8073e-08
5.75707e-06
4.32818e-08
5.76227e-06
4.55467e-08
5.76729e-06
4.57707e-08
5.77198e-06
4.44971e-08
5.7763e-06
4.22874e-08
5.78027e-06
3.96329e-08
5.78392e-06
3.6815e-08
5.78728e-06
3.39969e-08
5.79041e-06
3.13017e-08
5.79335e-06
2.87169e-08
5.79611e-06
2.62716e-08
5.79869e-06
2.38893e-08
5.80109e-06
2.15956e-08
5.80331e-06
1.9345e-08
1.71872e-08
5.80535e-06
6.99995e-06
7.4242e-09
7.00432e-06
2.24444e-08
7.00982e-06
3.25892e-08
7.01565e-06
3.7462e-08
7.02154e-06
3.96728e-08
7.02728e-06
4.00456e-08
7.0327e-06
3.90779e-08
7.03774e-06
3.72536e-08
7.04241e-06
3.49751e-08
7.04671e-06
3.25047e-08
7.05071e-06
3.00182e-08
7.05443e-06
2.75755e-08
7.05793e-06
2.52448e-08
7.0612e-06
2.29891e-08
7.06427e-06
2.08306e-08
7.06713e-06
1.87281e-08
7.06979e-06
1.67124e-08
1.47483e-08
7.07223e-06
8.53254e-06
5.73459e-09
8.53708e-06
1.79167e-08
8.54299e-06
2.6697e-08
8.54941e-06
3.10409e-08
8.55599e-06
3.31032e-08
8.56248e-06
3.35523e-08
8.5687e-06
3.28677e-08
8.57454e-06
3.14089e-08
8.57999e-06
2.95276e-08
8.58507e-06
2.74398e-08
8.58979e-06
2.53033e-08
8.59422e-06
2.31765e-08
8.59835e-06
2.11178e-08
8.60223e-06
1.91196e-08
8.60585e-06
1.72008e-08
8.60925e-06
1.5351e-08
8.61238e-06
1.3567e-08
1.18708e-08
8.61531e-06
1.04008e-05
4.13668e-09
1.04054e-05
1.33337e-08
1.04117e-05
2.04607e-08
1.04186e-05
2.40652e-08
1.04259e-05
2.58195e-08
1.04332e-05
2.62771e-08
1.04403e-05
2.57881e-08
1.0447e-05
2.46824e-08
1.04533e-05
2.31805e-08
1.04593e-05
2.15086e-08
1.04649e-05
1.97348e-08
1.04701e-05
1.79842e-08
1.0475e-05
1.62286e-08
1.04796e-05
1.45576e-08
1.04839e-05
1.29142e-08
1.04878e-05
1.13692e-08
1.04916e-05
9.85637e-09
8.44293e-09
1.0495e-05
1.26783e-05
2.59866e-09
1.26829e-05
8.7385e-09
1.26895e-05
1.39369e-08
1.2697e-05
1.65356e-08
1.2705e-05
1.78234e-08
1.27131e-05
1.81426e-08
1.27212e-05
1.77858e-08
1.27289e-05
1.6953e-08
1.27362e-05
1.58389e-08
1.27432e-05
1.45522e-08
1.27498e-05
1.3211e-08
1.27559e-05
1.18284e-08
1.27617e-05
1.04833e-08
1.27671e-05
9.14974e-09
1.27721e-05
7.88692e-09
1.27768e-05
6.65642e-09
1.27812e-05
5.50173e-09
4.38937e-09
1.27852e-05
1.54547e-05
1.07207e-09
1.54594e-05
4.07584e-09
1.54663e-05
7.06814e-09
1.54744e-05
8.39762e-09
1.54833e-05
8.99695e-09
1.54924e-05
9.04261e-09
1.55015e-05
8.69863e-09
1.55103e-05
8.08656e-09
1.55189e-05
7.3103e-09
1.5527e-05
6.43863e-09
1.55347e-05
5.52586e-09
1.55419e-05
4.59957e-09
1.55487e-05
3.68702e-09
1.55551e-05
2.79575e-09
1.5561e-05
1.9409e-09
1.55666e-05
1.12403e-09
1.55717e-05
3.47738e-10
-3.76898e-10
1.55765e-05
1.88393e-05
-5.3951e-10
1.88442e-05
-8.7572e-10
1.88517e-05
-4.19539e-10
1.88608e-05
-6.56667e-10
1.88708e-05
-9.72016e-10
1.88812e-05
-1.35629e-09
1.88917e-05
-1.78363e-09
1.8902e-05
-2.22887e-09
1.8912e-05
-2.67387e-09
1.89216e-05
-3.11079e-09
1.89306e-05
-3.53442e-09
1.89392e-05
-3.94384e-09
1.89472e-05
-4.33704e-09
1.89547e-05
-4.71401e-09
1.89617e-05
-5.07266e-09
1.89683e-05
-5.41058e-09
1.89743e-05
-5.73076e-09
-6.01824e-09
1.898e-05
2.29653e-05
-2.44869e-09
2.29711e-05
-6.68302e-09
2.298e-05
-9.29512e-09
2.29908e-05
-1.14537e-08
2.30027e-05
-1.28949e-08
2.30152e-05
-1.38344e-08
2.30278e-05
-1.43802e-08
2.30403e-05
-1.46462e-08
2.30523e-05
-1.46844e-08
2.30638e-05
-1.45928e-08
2.30746e-05
-1.44018e-08
2.30849e-05
-1.41748e-08
2.30945e-05
-1.3917e-08
2.31034e-05
-1.36671e-08
2.31118e-05
-1.34155e-08
2.31196e-05
-1.31832e-08
2.31267e-05
-1.29597e-08
-1.27454e-08
2.31335e-05
1.68124e-05
-4.10549e-09
1.68172e-05
-1.14741e-08
1.68244e-05
-1.64773e-08
1.6833e-05
-2.0026e-08
1.68423e-05
-2.22416e-08
1.68521e-05
-2.34965e-08
1.68617e-05
-2.4077e-08
1.68712e-05
-2.40943e-08
1.68803e-05
-2.37718e-08
1.68889e-05
-2.31766e-08
1.68969e-05
-2.24837e-08
1.69045e-05
-2.16961e-08
1.69115e-05
-2.09325e-08
1.69181e-05
-2.01561e-08
1.6924e-05
-1.94521e-08
1.69297e-05
-1.87644e-08
1.69348e-05
-1.81566e-08
-1.75571e-08
1.69397e-05
1.46364e-05
-5.94341e-09
1.46415e-05
-1.6513e-08
1.46488e-05
-2.37857e-08
1.46573e-05
-2.8487e-08
1.46663e-05
-3.12357e-08
1.46755e-05
-3.26881e-08
1.46846e-05
-3.31503e-08
1.46934e-05
-3.28721e-08
1.47017e-05
-3.20634e-08
1.47095e-05
-3.09616e-08
1.47167e-05
-2.96846e-08
1.47234e-05
-2.83686e-08
1.47295e-05
-2.70514e-08
1.47352e-05
-2.58068e-08
1.47404e-05
-2.4634e-08
1.47451e-05
-2.3566e-08
1.47496e-05
-2.25803e-08
-2.16769e-08
1.47537e-05
1.27423e-05
-8.15314e-09
1.2748e-05
-2.21595e-08
1.27557e-05
-3.14276e-08
1.27642e-05
-3.69901e-08
1.2773e-05
-4.00497e-08
1.27819e-05
-4.154e-08
1.27906e-05
-4.17765e-08
1.27988e-05
-4.10569e-08
1.28064e-05
-3.97147e-08
1.28135e-05
-3.80061e-08
1.28199e-05
-3.61292e-08
1.28258e-05
-3.42368e-08
1.28312e-05
-3.23847e-08
1.2836e-05
-3.06592e-08
1.28405e-05
-2.90545e-08
1.28445e-05
-2.76192e-08
1.28482e-05
-2.63098e-08
-2.5116e-08
1.28517e-05
1.10936e-05
-1.08383e-08
1.11003e-05
-2.88014e-08
1.11084e-05
-3.95275e-08
1.11169e-05
-4.54711e-08
1.11254e-05
-4.85999e-08
1.11339e-05
-4.99737e-08
1.1142e-05
-4.98773e-08
1.11496e-05
-4.86474e-08
1.11566e-05
-4.66897e-08
1.1163e-05
-4.43354e-08
1.11686e-05
-4.18222e-08
1.11738e-05
-3.93314e-08
1.11783e-05
-3.69661e-08
1.11825e-05
-3.47538e-08
1.11862e-05
-3.27732e-08
1.11896e-05
-3.09799e-08
1.11926e-05
-2.94029e-08
-2.79481e-08
1.11955e-05
9.6581e-06
-1.37218e-08
9.66636e-06
-3.70541e-08
9.67464e-06
-4.778e-08
9.68277e-06
-5.3592e-08
9.69092e-06
-5.67372e-08
9.69889e-06
-5.79435e-08
9.70644e-06
-5.74108e-08
9.71343e-06
-5.56218e-08
9.71976e-06
-5.30159e-08
9.72542e-06
-4.99748e-08
9.73041e-06
-4.68001e-08
9.73479e-06
-4.37091e-08
9.73868e-06
-4.08201e-08
9.74212e-06
-3.81977e-08
9.74521e-06
-3.58468e-08
9.74799e-06
-3.37696e-08
9.75054e-06
-3.19582e-08
-3.03332e-08
9.75293e-06
8.40911e-06
-1.74746e-08
8.41779e-06
-4.57291e-08
8.42601e-06
-5.60099e-08
8.43371e-06
-6.12785e-08
8.44159e-06
-6.46086e-08
8.44922e-06
-6.55539e-08
8.45631e-06
-6.45026e-08
8.46285e-06
-6.21557e-08
8.46872e-06
-5.88681e-08
8.47381e-06
-5.50629e-08
8.47818e-06
-5.11564e-08
8.48192e-06
-4.74393e-08
8.48515e-06
-4.40464e-08
8.48797e-06
-4.10034e-08
8.49046e-06
-3.83387e-08
8.4927e-06
-3.60192e-08
8.49479e-06
-3.40171e-08
-3.22528e-08
8.49669e-06
7.32313e-06
-2.33234e-08
7.33137e-06
-5.39537e-08
7.33949e-06
-6.41196e-08
7.34709e-06
-6.88765e-08
7.35465e-06
-7.21579e-08
7.36176e-06
-7.26683e-08
7.36834e-06
-7.10694e-08
7.37446e-06
-6.82736e-08
7.37991e-06
-6.43127e-08
7.38454e-06
-5.96789e-08
7.38844e-06
-5.5048e-08
7.39169e-06
-5.06911e-08
7.39445e-06
-4.67918e-08
7.39683e-06
-4.33859e-08
7.39896e-06
-4.04614e-08
7.40093e-06
-3.79935e-08
7.40286e-06
-3.5935e-08
-3.41378e-08
7.40477e-06
6.37833e-06
-3.15908e-08
6.38642e-06
-6.20337e-08
6.39429e-06
-7.19903e-08
6.40217e-06
-7.67527e-08
6.40959e-06
-7.95638e-08
6.41646e-06
-7.95338e-08
6.42295e-06
-7.75628e-08
6.42932e-06
-7.46468e-08
6.43516e-06
-7.01389e-08
6.44023e-06
-6.47467e-08
6.44473e-06
-5.95377e-08
6.44869e-06
-5.46493e-08
6.45236e-06
-5.0466e-08
6.45591e-06
-4.69309e-08
6.45933e-06
-4.38858e-08
6.46264e-06
-4.12971e-08
6.46584e-06
-3.91365e-08
-3.72791e-08
6.46903e-06
5.5597e-06
-4.58253e-08
5.56985e-06
-7.21778e-08
5.58209e-06
-8.42232e-08
5.59677e-06
-9.14294e-08
5.61194e-06
-9.47276e-08
5.62715e-06
-9.47445e-08
5.64234e-06
-9.27563e-08
5.6574e-06
-8.97057e-08
5.67058e-06
-8.33219e-08
5.68152e-06
-7.56703e-08
5.69099e-06
-6.90071e-08
5.69888e-06
-6.25313e-08
5.7052e-06
-5.67858e-08
5.70985e-06
-5.15788e-08
5.71283e-06
-4.68669e-08
5.71435e-06
-4.28234e-08
5.71475e-06
-3.95038e-08
-3.69661e-08
5.71445e-06
4.88862e-06
-1.06833e-07
4.94358e-06
-1.27131e-07
4.98744e-06
-1.28081e-07
5.02097e-06
-1.24955e-07
5.04406e-06
-1.17816e-07
5.05753e-06
-1.08219e-07
5.05965e-06
-9.48742e-08
5.05093e-06
-8.09894e-08
5.04194e-06
-7.43241e-08
5.03482e-06
-6.85346e-08
5.02338e-06
-5.75556e-08
5.00565e-06
-4.48049e-08
4.98211e-06
-3.32411e-08
4.95532e-06
-2.4787e-08
4.9279e-06
-1.94521e-08
4.90136e-06
-1.62786e-08
4.87603e-06
-1.41613e-08
-1.28754e-08
4.85198e-06
4.09584e-06
3.96871e-06
3.84063e-06
3.71568e-06
3.59786e-06
3.48964e-06
3.39477e-06
3.31378e-06
3.23946e-06
3.17092e-06
3.11337e-06
3.06856e-06
3.03532e-06
3.01054e-06
2.99108e-06
2.97481e-06
2.96065e-06
2.94778e-06
-7.73798e-09
7.75014e-09
-2.08626e-08
1.31768e-08
-3.55389e-08
1.46825e-08
-4.84239e-08
1.29396e-08
-5.48661e-08
6.42878e-09
-4.89588e-08
-5.82574e-09
-2.8527e-08
-2.04883e-08
4.72597e-09
-3.31574e-08
4.6653e-08
-4.20066e-08
9.31573e-08
-4.64163e-08
1.39577e-07
-4.65013e-08
1.8317e-07
-4.35171e-08
2.21587e-07
-3.84954e-08
2.53844e-07
-3.21908e-08
2.78911e-07
-2.51419e-08
2.96615e-07
-1.76467e-08
3.06405e-07
-9.86603e-09
3.08226e-07
-1.77497e-09
3.01658e-07
6.49689e-09
2.87105e-07
1.45892e-08
2.64968e-07
2.20649e-08
2.36436e-07
2.85632e-08
2.02694e-07
3.36709e-08
1.65757e-07
3.69638e-08
1.2768e-07
3.8002e-08
9.11838e-08
3.65072e-08
5.85978e-08
3.24896e-08
3.20957e-08
2.6479e-08
1.24902e-08
1.94916e-08
-2.32619e-10
1.26587e-08
-7.12313e-09
6.75962e-09
-8.75268e-09
1.54249e-09
-5.12858e-09
-3.76912e-09
5.01403e-09
-1.02273e-08
2.34205e-08
-1.85591e-08
5.1132e-08
-2.77569e-08
8.46856e-08
-3.36764e-08
1.18406e-07
-3.3729e-08
1.4646e-07
-2.81468e-08
1.65411e-07
-1.89433e-08
1.73779e-07
-8.43417e-09
1.73097e-07
6.87433e-10
1.66569e-07
6.48052e-09
1.58431e-07
8.13472e-09
1.52825e-07
5.54063e-09
1.5069e-07
2.14925e-09
1.43411e-07
7.16814e-09
1.22867e-07
2.06239e-08
8.12016e-08
4.15177e-08
1.40063e-08
6.7325e-08
-7.67649e-08
9.06462e-08
-1.85912e-07
1.09262e-07
-3.10283e-07
1.24297e-07
-4.44864e-07
1.3465e-07
-5.85314e-07
1.40387e-07
-7.2871e-07
1.43439e-07
-8.71416e-07
1.42662e-07
-1.00967e-06
1.38284e-07
-1.14143e-06
1.31717e-07
-1.26517e-06
1.23761e-07
-1.38024e-06
1.15033e-07
-1.48594e-06
1.05706e-07
-1.58249e-06
9.65093e-08
-1.67055e-06
8.8068e-08
-1.75125e-06
8.06639e-08
-1.82543e-06
7.41872e-08
-1.89364e-06
6.81766e-08
-1.95649e-06
6.28544e-08
-2.01473e-06
5.82265e-08
-2.06889e-06
5.41514e-08
-2.11948e-06
5.05806e-08
-2.1669e-06
4.74257e-08
-2.21154e-06
4.46318e-08
-2.25367e-06
4.21346e-08
-2.29356e-06
3.989e-08
-2.3314e-06
3.78567e-08
-2.36739e-06
3.5999e-08
-2.40166e-06
3.42906e-08
-2.43435e-06
3.2706e-08
-2.46556e-06
3.12287e-08
-2.49538e-06
2.98397e-08
-2.52389e-06
2.85273e-08
-2.55114e-06
2.72781e-08
-2.5772e-06
2.60825e-08
-2.6021e-06
2.49307e-08
-2.62589e-06
2.38131e-08
-2.64857e-06
2.27258e-08
-2.67017e-06
2.16551e-08
-2.69068e-06
2.05907e-08
-2.71006e-06
1.95431e-08
-2.7284e-06
1.84746e-08
-2.74565e-06
1.73991e-08
-2.76183e-06
1.62901e-08
-2.77685e-06
1.51543e-08
-2.79071e-06
1.3966e-08
-2.80332e-06
1.27338e-08
-2.81465e-06
1.14328e-08
-2.82461e-06
1.00705e-08
-2.83314e-06
8.62292e-09
-2.84014e-06
7.08893e-09
-2.84552e-06
5.44741e-09
-2.84917e-06
3.69532e-09
-2.85104e-06
1.88159e-09
-2.85117e-06
8.98304e-11
-2.8497e-06
-1.51473e-09
-2.84679e-06
-2.98095e-09
-2.84244e-06
-4.40203e-09
-2.83667e-06
-5.8361e-09
-2.82944e-06
-7.2589e-09
-2.82078e-06
-8.70185e-09
-2.81065e-06
-1.01334e-08
-2.79908e-06
-1.15786e-08
-2.78605e-06
-1.30092e-08
-2.7716e-06
-1.44451e-08
-2.7557e-06
-1.58627e-08
-2.7384e-06
-1.72761e-08
-2.71968e-06
-1.86659e-08
-2.6996e-06
-2.00434e-08
-2.67815e-06
-2.13954e-08
-2.65538e-06
-2.27306e-08
-2.63131e-06
-2.40402e-08
-2.60596e-06
-2.53273e-08
-2.57935e-06
-2.65889e-08
-2.5515e-06
-2.78239e-08
-2.52245e-06
-2.90347e-08
-2.49221e-06
-3.02203e-08
-2.46081e-06
-3.13841e-08
-2.42827e-06
-3.25262e-08
-2.39462e-06
-3.3648e-08
-2.35986e-06
-3.47528e-08
-2.32402e-06
-3.58376e-08
-2.28712e-06
-3.69049e-08
-2.24917e-06
-3.79473e-08
-2.2102e-06
-3.8975e-08
-2.17022e-06
-3.99681e-08
-2.12927e-06
-4.09352e-08
-2.0874e-06
-4.1848e-08
-2.04465e-06
-4.27143e-08
-2.00106e-06
-4.35387e-08
-1.9565e-06
-4.44955e-08
-1.91092e-06
-4.55076e-08
-1.86441e-06
-4.64272e-08
-1.81702e-06
-4.73314e-08
-1.76874e-06
-4.82085e-08
-1.71961e-06
-4.9077e-08
-1.66964e-06
-4.99174e-08
-1.61885e-06
-5.07483e-08
-1.56727e-06
-5.1547e-08
-1.51491e-06
-5.23353e-08
-1.4618e-06
-5.30949e-08
-1.40799e-06
-5.38106e-08
-1.35349e-06
-5.45133e-08
-1.29835e-06
-5.51627e-08
-1.24261e-06
-5.57747e-08
-1.18632e-06
-5.63325e-08
-1.12953e-06
-5.68469e-08
-1.07229e-06
-5.73061e-08
-1.01465e-06
-5.77221e-08
-9.56641e-07
-5.80901e-08
-8.98325e-07
-5.84158e-08
-8.39723e-07
-5.87032e-08
-7.80892e-07
-5.89471e-08
-7.21853e-07
-5.91555e-08
-6.62665e-07
-5.93188e-08
-6.03353e-07
-5.94391e-08
-5.43982e-07
-5.95117e-08
-4.84577e-07
-5.9539e-08
-4.25204e-07
-5.95205e-08
-3.65881e-07
-5.94594e-08
-3.06668e-07
-5.93632e-08
-2.47605e-07
-5.9201e-08
-1.88779e-07
-5.8976e-08
-1.30209e-07
-5.87073e-08
-7.20017e-08
-5.83546e-08
-1.43399e-08
-5.77954e-08
4.24487e-08
-5.69231e-08
9.7534e-08
-5.52045e-08
1.48712e-07
-5.13008e-08
1.94457e-07
-4.58617e-08
-1.83542e-08
2.1274e-07
-3.3765e-09
1.11354e-08
-9.11726e-09
1.89921e-08
-1.20568e-08
1.76011e-08
-5.58629e-09
6.56236e-09
1.49604e-08
-1.41611e-08
4.94155e-08
-4.02184e-08
9.3813e-08
-6.4929e-08
1.43374e-07
-8.26758e-08
1.93001e-07
-9.16731e-08
2.39431e-07
-9.28065e-08
2.8089e-07
-8.79962e-08
3.16723e-07
-7.93129e-08
3.4659e-07
-6.83983e-08
3.70786e-07
-5.63538e-08
3.89468e-07
-4.38601e-08
4.03138e-07
-3.12907e-08
4.12064e-07
-1.88323e-08
4.16902e-07
-6.59532e-09
4.17906e-07
5.45098e-09
4.15097e-07
1.74074e-08
4.07911e-07
2.92088e-08
3.95862e-07
4.06133e-08
3.78325e-07
5.11667e-08
3.55065e-07
6.02212e-08
3.26056e-07
6.69666e-08
2.91998e-07
7.05512e-08
2.54161e-07
7.02692e-08
2.14779e-07
6.58359e-08
1.76677e-07
5.75164e-08
1.43259e-07
4.60233e-08
1.1773e-07
3.21718e-08
1.02628e-07
1.65545e-08
9.92034e-08
-4.94493e-10
1.07307e-07
-1.8418e-08
1.25336e-07
-3.67115e-08
1.48422e-07
-5.08844e-08
1.6992e-07
-5.52597e-08
1.84827e-07
-4.86433e-08
1.90934e-07
-3.43132e-08
1.88417e-07
-1.64176e-08
1.77999e-07
1.93296e-09
1.62044e-07
1.66558e-08
1.40809e-07
2.76366e-08
1.07401e-07
4.15531e-08
5.13304e-08
6.14916e-08
-3.55798e-08
8.90323e-08
-1.52437e-07
1.23945e-07
-2.90721e-07
1.589e-07
-4.40677e-07
1.91444e-07
-5.9458e-07
2.21233e-07
-7.4968e-07
2.45734e-07
-9.03607e-07
2.63204e-07
-1.053e-06
2.73684e-07
-1.1951e-06
2.76762e-07
-1.32749e-06
2.72771e-07
-1.44758e-06
2.63532e-07
-1.55523e-06
2.50301e-07
-1.65104e-06
2.34103e-07
-1.73586e-06
2.16525e-07
-1.81073e-06
1.9863e-07
-1.87694e-06
1.81241e-07
-1.93611e-06
1.64871e-07
-1.98958e-06
1.49966e-07
-2.03824e-06
1.36726e-07
-2.08281e-06
1.25217e-07
-2.12389e-06
1.15266e-07
-2.16225e-06
1.06531e-07
-2.1983e-06
9.88955e-08
-2.2323e-06
9.22281e-08
-2.26453e-06
8.63683e-08
-2.29514e-06
8.11875e-08
-2.32428e-06
7.65703e-08
-2.35208e-06
7.24221e-08
-2.3786e-06
6.86643e-08
-2.40394e-06
6.52313e-08
-2.42815e-06
6.20695e-08
-2.45128e-06
5.91357e-08
-2.47337e-06
5.6394e-08
-2.49447e-06
5.38142e-08
-2.51459e-06
5.13724e-08
-2.53379e-06
4.90464e-08
-2.55206e-06
4.68184e-08
-2.56944e-06
4.46712e-08
-2.58593e-06
4.25901e-08
-2.60154e-06
4.0561e-08
-2.61628e-06
3.85721e-08
-2.63013e-06
3.66112e-08
-2.64311e-06
3.46603e-08
-2.65515e-06
3.27202e-08
-2.66628e-06
3.07612e-08
-2.67647e-06
2.87838e-08
-2.68574e-06
2.67716e-08
-2.69406e-06
2.47058e-08
-2.70141e-06
2.25894e-08
-2.70776e-06
2.04011e-08
-2.71309e-06
1.81471e-08
-2.71739e-06
1.58073e-08
-2.72063e-06
1.33912e-08
-2.72283e-06
1.08836e-08
-2.72398e-06
8.3034e-09
-2.72415e-06
5.65408e-09
-2.7234e-06
2.971e-09
-2.72181e-06
2.78054e-10
-2.71933e-06
-2.42145e-09
-2.71575e-06
-5.15357e-09
-2.71085e-06
-7.92776e-09
-2.70459e-06
-1.07226e-08
-2.69692e-06
-1.35411e-08
-2.68784e-06
-1.63726e-08
-2.67734e-06
-1.92211e-08
-2.66541e-06
-2.20722e-08
-2.65206e-06
-2.49281e-08
-2.63729e-06
-2.77742e-08
-2.62111e-06
-3.06117e-08
-2.60353e-06
-3.34263e-08
-2.58456e-06
-3.6218e-08
-2.56422e-06
-3.89734e-08
-2.54254e-06
-4.16949e-08
-2.51953e-06
-4.4373e-08
-2.49522e-06
-4.70099e-08
-2.46964e-06
-4.95989e-08
-2.44281e-06
-5.21396e-08
-2.41475e-06
-5.463e-08
-2.38549e-06
-5.70689e-08
-2.35506e-06
-5.946e-08
-2.32346e-06
-6.18025e-08
-2.29074e-06
-6.41019e-08
-2.2569e-06
-6.6357e-08
-2.22197e-06
-6.85732e-08
-2.18597e-06
-7.07499e-08
-2.14892e-06
-7.28905e-08
-2.11083e-06
-7.49936e-08
-2.07172e-06
-7.70603e-08
-2.03159e-06
-7.90945e-08
-1.99046e-06
-8.10904e-08
-1.94833e-06
-8.30471e-08
-1.90521e-06
-8.49581e-08
-1.86106e-06
-8.68277e-08
-1.81587e-06
-8.86824e-08
-1.76974e-06
-9.05782e-08
-1.72271e-06
-9.24763e-08
-1.67477e-06
-9.43109e-08
-1.62594e-06
-9.61144e-08
-1.57622e-06
-9.78746e-08
-1.52565e-06
-9.9606e-08
-1.47423e-06
-1.01293e-07
-1.422e-06
-1.02944e-07
-1.36898e-06
-1.04546e-07
-1.31519e-06
-1.06103e-07
-1.26066e-06
-1.07614e-07
-1.20542e-06
-1.09044e-07
-1.14951e-06
-1.10426e-07
-1.09297e-06
-1.11715e-07
-1.03585e-06
-1.12922e-07
-9.78197e-07
-1.14021e-07
-9.20063e-07
-1.15029e-07
-8.61493e-07
-1.15926e-07
-8.02549e-07
-1.16734e-07
-7.43266e-07
-1.17441e-07
-6.83703e-07
-1.18065e-07
-6.23892e-07
-1.18599e-07
-5.63884e-07
-1.19056e-07
-5.03713e-07
-1.19427e-07
-4.43429e-07
-1.19718e-07
-3.83067e-07
-1.19913e-07
-3.22685e-07
-1.20021e-07
-2.62316e-07
-1.20029e-07
-2.02015e-07
-1.19954e-07
-1.41816e-07
-1.19785e-07
-8.17611e-08
-1.19553e-07
-2.18377e-08
-1.19252e-07
3.79399e-08
-1.18888e-07
9.74605e-08
-1.18352e-07
1.56508e-07
-1.17529e-07
2.1485e-07
-1.16256e-07
2.72003e-07
-1.14193e-07
3.27283e-07
-1.10592e-07
3.80148e-07
-1.04274e-07
4.27491e-07
-9.33059e-08
-6.26435e-08
4.71706e-07
5.2062e-10
1.0612e-08
4.17516e-09
1.53804e-08
1.7621e-08
4.13791e-09
4.84146e-08
-2.41945e-08
9.58624e-08
-6.16307e-08
1.51798e-07
-9.61247e-08
2.06579e-07
-1.19734e-07
2.54537e-07
-1.30606e-07
2.93614e-07
-1.30772e-07
3.24333e-07
-1.23499e-07
3.4803e-07
-1.11714e-07
3.66269e-07
-9.75263e-08
3.80118e-07
-8.2268e-08
3.90486e-07
-6.66998e-08
3.97833e-07
-5.12303e-08
4.02622e-07
-3.60631e-08
4.05058e-07
-2.12956e-08
4.05458e-07
-6.98554e-09
4.04024e-07
6.85442e-09
4.01176e-07
2.02587e-08
3.97095e-07
3.32571e-08
3.91876e-07
4.58275e-08
3.85185e-07
5.7824e-08
3.76479e-07
6.89155e-08
3.6487e-07
7.85372e-08
3.49527e-07
8.5872e-08
3.29842e-07
8.99108e-08
3.06031e-07
8.9616e-08
2.79317e-07
8.41788e-08
2.52072e-07
7.32252e-08
2.27207e-07
5.69704e-08
2.07504e-07
3.61989e-08
1.94644e-07
1.22801e-08
1.88864e-07
-1.26934e-08
1.86473e-07
-3.43921e-08
1.80552e-07
-4.49895e-08
1.66965e-07
-4.17193e-08
1.45502e-07
-2.71863e-08
1.16763e-07
-5.61571e-09
8.06376e-08
1.97145e-08
3.40805e-08
4.84416e-08
-2.91412e-08
7.98649e-08
-1.15104e-07
1.13559e-07
-2.25139e-07
1.51565e-07
-3.56609e-07
1.92934e-07
-5.02501e-07
2.34908e-07
-6.53165e-07
2.74589e-07
-8.03166e-07
3.08895e-07
-9.47783e-07
3.36048e-07
-1.08215e-06
3.556e-07
-1.20355e-06
3.6713e-07
-1.31105e-06
3.70709e-07
-1.40429e-06
3.66919e-07
-1.48412e-06
3.56595e-07
-1.55247e-06
3.41122e-07
-1.6112e-06
3.22263e-07
-1.66236e-06
3.01461e-07
-1.70804e-06
2.79777e-07
-1.74979e-06
2.58278e-07
-1.78881e-06
2.3765e-07
-1.82594e-06
2.1837e-07
-1.86177e-06
2.00694e-07
-1.89658e-06
1.84776e-07
-1.93046e-06
1.70604e-07
-1.96334e-06
1.58097e-07
-1.99518e-06
1.47101e-07
-2.02603e-06
1.37379e-07
-2.0559e-06
1.28759e-07
-2.08476e-06
1.21092e-07
-2.11263e-06
1.14232e-07
-2.1395e-06
1.08054e-07
-2.16538e-06
1.02448e-07
-2.19028e-06
9.73252e-08
-2.21423e-06
9.26074e-08
-2.23723e-06
8.82328e-08
-2.2593e-06
8.41497e-08
-2.28047e-06
8.03139e-08
-2.30076e-06
7.66901e-08
-2.32019e-06
7.32477e-08
-2.33877e-06
6.99606e-08
-2.35652e-06
6.68056e-08
-2.37345e-06
6.37621e-08
-2.38958e-06
6.08104e-08
-2.40491e-06
5.7933e-08
-2.41944e-06
5.51131e-08
-2.43319e-06
5.23341e-08
-2.44615e-06
4.95798e-08
-2.4583e-06
4.68374e-08
-2.46961e-06
4.4086e-08
-2.48009e-06
4.13176e-08
-2.48973e-06
3.85071e-08
-2.49853e-06
3.56374e-08
-2.50646e-06
3.27086e-08
-2.51351e-06
2.96936e-08
-2.51965e-06
2.65982e-08
-2.52485e-06
2.34005e-08
-2.5291e-06
2.01083e-08
-2.53238e-06
1.67071e-08
-2.53466e-06
1.32078e-08
-2.53594e-06
9.60994e-09
-2.53619e-06
5.92715e-09
-2.53539e-06
2.17258e-09
-2.53349e-06
-1.65285e-09
-2.5304e-06
-5.55148e-09
-2.52606e-06
-9.54348e-09
-2.52042e-06
-1.36076e-08
-2.51346e-06
-1.77333e-08
-2.50513e-06
-2.18965e-08
-2.49543e-06
-2.60959e-08
-2.48435e-06
-3.03127e-08
-2.47189e-06
-3.45442e-08
-2.45804e-06
-3.87729e-08
-2.44282e-06
-4.29942e-08
-2.42622e-06
-4.71928e-08
-2.40827e-06
-5.13624e-08
-2.38897e-06
-5.54894e-08
-2.36836e-06
-5.95681e-08
-2.34644e-06
-6.35897e-08
-2.32324e-06
-6.755e-08
-2.29878e-06
-7.14431e-08
-2.27309e-06
-7.5266e-08
-2.2462e-06
-7.90158e-08
-2.21812e-06
-8.26914e-08
-2.18888e-06
-8.62939e-08
-2.1585e-06
-8.98252e-08
-2.12701e-06
-9.32884e-08
-2.09442e-06
-9.66869e-08
-2.06074e-06
-1.00024e-07
-2.02601e-06
-1.03303e-07
-1.99023e-06
-1.06528e-07
-1.95343e-06
-1.09703e-07
-1.9156e-06
-1.12826e-07
-1.87676e-06
-1.15902e-07
-1.83692e-06
-1.18934e-07
-1.79609e-06
-1.21921e-07
-1.75427e-06
-1.24859e-07
-1.71147e-06
-1.27751e-07
-1.66768e-06
-1.30598e-07
-1.62291e-06
-1.3342e-07
-1.57722e-06
-1.36238e-07
-1.53063e-06
-1.39033e-07
-1.48315e-06
-1.41773e-07
-1.43478e-06
-1.44466e-07
-1.38553e-06
-1.47105e-07
-1.33543e-06
-1.4969e-07
-1.2845e-06
-1.52214e-07
-1.23276e-06
-1.54674e-07
-1.18024e-06
-1.57063e-07
-1.12697e-06
-1.59374e-07
-1.07297e-06
-1.61612e-07
-1.01828e-06
-1.63738e-07
-9.62941e-07
-1.65769e-07
-9.06991e-07
-1.67675e-07
-8.5048e-07
-1.69441e-07
-7.93458e-07
-1.71057e-07
-7.3598e-07
-1.72518e-07
-6.78097e-07
-1.73825e-07
-6.19864e-07
-1.7498e-07
-5.61328e-07
-1.75993e-07
-5.0254e-07
-1.76866e-07
-4.43545e-07
-1.7761e-07
-3.84385e-07
-1.78228e-07
-3.25105e-07
-1.78721e-07
-2.65747e-07
-1.79087e-07
-2.06355e-07
-1.79316e-07
-1.46976e-07
-1.79408e-07
-8.7652e-08
-1.79361e-07
-2.84121e-08
-1.79198e-07
3.07188e-08
-1.7892e-07
8.96907e-08
-1.78525e-07
1.4844e-07
-1.78001e-07
2.06885e-07
-1.7733e-07
2.64944e-07
-1.76409e-07
3.22516e-07
-1.75097e-07
3.79424e-07
-1.73162e-07
4.35378e-07
-1.70144e-07
4.90019e-07
-1.65234e-07
5.42958e-07
-1.57216e-07
5.9339e-07
-1.43744e-07
-1.14033e-07
6.44783e-07
-9.15908e-11
1.06914e-08
1.20323e-08
3.27254e-09
4.87968e-08
-3.26523e-08
1.07434e-07
-8.28064e-08
1.72142e-07
-1.26359e-07
2.2906e-07
-1.5302e-07
2.71974e-07
-1.62664e-07
3.01282e-07
-1.59892e-07
3.20147e-07
-1.49654e-07
3.32177e-07
-1.35506e-07
3.39964e-07
-1.19518e-07
3.45228e-07
-1.0277e-07
3.48755e-07
-8.58119e-08
3.51005e-07
-6.89322e-08
3.52052e-07
-5.22957e-08
3.52013e-07
-3.60103e-08
3.50851e-07
-2.01561e-08
3.48676e-07
-4.80203e-09
3.45492e-07
1.00114e-08
3.41505e-07
2.4248e-08
3.36863e-07
3.78701e-08
3.31845e-07
5.08399e-08
3.26556e-07
6.30795e-08
3.21043e-07
7.44152e-08
3.15002e-07
8.45393e-08
3.07944e-07
9.29059e-08
2.99099e-07
9.8711e-08
2.87776e-07
1.00904e-07
2.73592e-07
9.83108e-08
2.56847e-07
8.99255e-08
2.38537e-07
7.52179e-08
2.20054e-07
5.46305e-08
2.0224e-07
3.00198e-08
1.82811e-07
6.69153e-09
1.55305e-07
-6.9448e-09
1.16955e-07
-6.65744e-09
6.90038e-08
6.18511e-09
1.19024e-08
2.99061e-08
-5.69294e-08
6.31816e-08
-1.40732e-07
1.03506e-07
-2.40697e-07
1.48385e-07
-3.56288e-07
1.95444e-07
-4.85234e-07
2.42488e-07
-6.21841e-07
2.88162e-07
-7.59868e-07
3.30948e-07
-8.93321e-07
3.68353e-07
-1.01666e-06
3.97917e-07
-1.12665e-06
4.18879e-07
-1.22204e-06
4.31431e-07
-1.30239e-06
4.35951e-07
-1.36855e-06
4.33278e-07
-1.42228e-06
4.24445e-07
-1.46592e-06
4.10554e-07
-1.50213e-06
3.92803e-07
-1.53346e-06
3.7245e-07
-1.5619e-06
3.50704e-07
-1.58894e-06
3.2849e-07
-1.61565e-06
3.06487e-07
-1.64264e-06
2.85265e-07
-1.67018e-06
2.65194e-07
-1.69832e-06
2.46512e-07
-1.72696e-06
2.29337e-07
-1.75591e-06
2.13716e-07
-1.7849e-06
1.996e-07
-1.81371e-06
1.86907e-07
-1.84213e-06
1.75517e-07
-1.87002e-06
1.6527e-07
-1.89729e-06
1.56022e-07
-1.92384e-06
1.47642e-07
-1.94962e-06
1.40012e-07
-1.97459e-06
1.33023e-07
-1.99873e-06
1.26583e-07
-2.02201e-06
1.20611e-07
-2.04445e-06
1.15043e-07
-2.06604e-06
1.0982e-07
-2.08678e-06
1.04895e-07
-2.10669e-06
1.0023e-07
-2.12579e-06
9.57895e-08
-2.14408e-06
9.15443e-08
-2.16158e-06
8.74683e-08
-2.1783e-06
8.35374e-08
-2.19426e-06
7.97292e-08
-2.20947e-06
7.60224e-08
-2.22392e-06
7.23967e-08
-2.23763e-06
6.88323e-08
-2.25059e-06
6.53105e-08
-2.26281e-06
6.18122e-08
-2.27428e-06
5.83173e-08
-2.28495e-06
5.4813e-08
-2.29484e-06
5.12597e-08
-2.30394e-06
4.76641e-08
-2.31224e-06
4.39874e-08
-2.31971e-06
4.02281e-08
-2.32634e-06
3.63611e-08
-2.33209e-06
3.23863e-08
-2.33693e-06
2.82823e-08
-2.34085e-06
2.40541e-08
-2.3438e-06
1.96874e-08
-2.34577e-06
1.51917e-08
-2.34671e-06
1.05631e-08
-2.34659e-06
5.80941e-09
-2.34537e-06
9.36567e-10
-2.343e-06
-4.05884e-09
-2.33943e-06
-9.17129e-09
-2.33461e-06
-1.44056e-08
-2.32853e-06
-1.97347e-08
-2.32114e-06
-2.51497e-08
-2.31244e-06
-3.06204e-08
-2.30242e-06
-3.61427e-08
-2.29105e-06
-4.16896e-08
-2.27834e-06
-4.72569e-08
-2.26429e-06
-5.28193e-08
-2.24891e-06
-5.83718e-08
-2.2322e-06
-6.38911e-08
-2.21418e-06
-6.93715e-08
-2.19486e-06
-7.47927e-08
-2.17426e-06
-8.01511e-08
-2.1524e-06
-8.54309e-08
-2.1293e-06