/*--------------------------------*- C++ -*----------------------------------*\
  =========                 |
  \\      /  F ield         | OpenFOAM: The Open Source CFD Toolbox
   \\    /   O peration     | Website:  https://openfoam.org
    \\  /    A nd           | Version:  13
     \\/     M anipulation  |
\*---------------------------------------------------------------------------*/
FoamFile
{
    format      ascii;
    class       volVectorField;
    location    "900";
    object      U;
}
// * * * * * * * * * * * * * * * * * * * * * * * * * * * * * * * * * * * * * //

dimensions      [0 1 -1 0 0 0 0];

internalField   nonuniform List<vector> 
12225
(
(9.75085 0.055012 0)
(9.27999 0.0964661 0)
(8.83035 0.0963209 0)
(8.39766 0.0930681 0)
(8.01169 0.0837627 0)
(7.68491 0.0749804 0)
(7.40773 0.0559575 0)
(7.20428 0.0367092 0)
(7.01756 0.0248397 0)
(6.86066 0.0232742 0)
(6.74174 0.0162015 0)
(6.6525 0.00434416 0)
(6.58868 0.00231594 0)
(6.5436 0.00156398 0)
(6.5195 -0.00303147 0)
(6.50421 -0.0138997 0)
(6.50023 -0.0200055 0)
(6.50592 -0.00152672 0)
(10.1081 0.0549994 0)
(10.3055 0.0910044 0)
(10.4316 0.0940165 0)
(10.4868 0.0919999 0)
(10.4905 0.0889038 0)
(10.4574 0.0826183 0)
(10.3941 0.0774672 0)
(10.306 0.0729513 0)
(10.2262 0.0674346 0)
(10.1461 0.0595877 0)
(10.0515 0.0528309 0)
(9.96408 0.0482102 0)
(9.86925 0.0421222 0)
(9.7726 0.0354272 0)
(9.674 0.0310664 0)
(9.58222 0.0300224 0)
(9.49585 0.0261873 0)
(9.41413 0.0167746 0)
(10.0082 0.0459185 0)
(10.0581 0.0670563 0)
(10.1082 0.068869 0)
(10.154 0.075764 0)
(10.2005 0.0818464 0)
(10.2436 0.0846192 0)
(10.2783 0.0826413 0)
(10.302 0.0788793 0)
(10.3151 0.0762418 0)
(10.3212 0.0732419 0)
(10.3196 0.0683283 0)
(10.3113 0.0634689 0)
(10.2973 0.0610162 0)
(10.2802 0.0586216 0)
(10.2599 0.0549191 0)
(10.2364 0.0499422 0)
(10.2103 0.0448408 0)
(10.1814 0.0412506 0)
(10.0054 0.0283272 0)
(10.0378 0.0546879 0)
(10.0596 0.0600021 0)
(10.0758 0.0664653 0)
(10.0927 0.0709426 0)
(10.1115 0.0720757 0)
(10.1309 0.0700305 0)
(10.1483 0.0665271 0)
(10.1637 0.0637081 0)
(10.178 0.0615584 0)
(10.1901 0.0587219 0)
(10.1992 0.0559426 0)
(10.2065 0.0544019 0)
(10.2129 0.0527822 0)
(10.218 0.0505644 0)
(10.2214 0.0477965 0)
(10.2231 0.0447887 0)
(10.2235 0.0426624 0)
(10.0054 0.0243396 0)
(10.0302 0.0529229 0)
(10.0515 0.0601779 0)
(10.0669 0.0651769 0)
(10.0801 0.0682681 0)
(10.0935 0.068826 0)
(10.1065 0.0670574 0)
(10.1177 0.0642276 0)
(10.1279 0.0618494 0)
(10.1375 0.0596517 0)
(10.1466 0.0570279 0)
(10.1545 0.0545475 0)
(10.1619 0.0528411 0)
(10.169 0.051143 0)
(10.1758 0.0490243 0)
(10.1817 0.0465427 0)
(10.1866 0.0439943 0)
(10.1909 0.0418527 0)
(10.0096 0.0171486 0)
(10.0245 0.0460212 0)
(10.0458 0.054662 0)
(10.0607 0.0591595 0)
(10.073 0.0623086 0)
(10.085 0.063455 0)
(10.0962 0.06246 0)
(10.1057 0.0602911 0)
(10.114 0.0581773 0)
(10.1217 0.0559669 0)
(10.1291 0.0536059 0)
(10.1358 0.0514348 0)
(10.1422 0.0497311 0)
(10.1485 0.0480476 0)
(10.1545 0.0460664 0)
(10.16 0.0437923 0)
(10.1649 0.0413908 0)
(10.1693 0.0390775 0)
(10.0055 0.0152048 0)
(10.0135 0.0391255 0)
(10.034 0.0498347 0)
(10.049 0.0546581 0)
(10.0616 0.0580096 0)
(10.0735 0.059393 0)
(10.0847 0.0587063 0)
(10.0945 0.0568392 0)
(10.1029 0.0548681 0)
(10.1104 0.052738 0)
(10.1174 0.0505578 0)
(10.1237 0.0485491 0)
(10.1297 0.04685 0)
(10.1355 0.0451554 0)
(10.141 0.0432329 0)
(10.1462 0.0411084 0)
(10.1509 0.0388508 0)
(10.155 0.0365394 0)
(10.0011 0.0136499 0)
(10.0107 0.0341307 0)
(10.0268 0.0452973 0)
(10.041 0.0504 0)
(10.0531 0.0536872 0)
(10.0646 0.0551114 0)
(10.0754 0.0547267 0)
(10.085 0.0532103 0)
(10.0935 0.0514836 0)
(10.1009 0.0495084 0)
(10.1078 0.0474887 0)
(10.114 0.0456005 0)
(10.1198 0.0439168 0)
(10.1253 0.0422304 0)
(10.1305 0.0403829 0)
(10.1353 0.0383579 0)
(10.1398 0.0361898 0)
(10.1438 0.0338994 0)
(9.99919 0.0117609 0)
(10.01 0.0297652 0)
(10.0225 0.0408135 0)
(10.0355 0.0460671 0)
(10.0468 0.0492799 0)
(10.0577 0.0507778 0)
(10.0679 0.0506453 0)
(10.0771 0.0494573 0)
(10.0853 0.0479019 0)
(10.0926 0.0461201 0)
(10.0993 0.0442725 0)
(10.1053 0.0425084 0)
(10.111 0.0408791 0)
(10.1163 0.0392456 0)
(10.1213 0.0374686 0)
(10.1259 0.0355277 0)
(10.1302 0.0334676 0)
(10.134 0.03127 0)
(10.0005 0.00929951 0)
(10.0092 0.0253625 0)
(10.0194 0.0361206 0)
(10.0311 0.0415365 0)
(10.0418 0.0447781 0)
(10.0519 0.0463302 0)
(10.0615 0.0463886 0)
(10.0702 0.0454674 0)
(10.078 0.0441116 0)
(10.085 0.0425471 0)
(10.0915 0.0408733 0)
(10.0974 0.0392427 0)
(10.1029 0.0376847 0)
(10.1081 0.0361159 0)
(10.113 0.0344381 0)
(10.1175 0.0326028 0)
(10.1216 0.030632 0)
(10.1253 0.0285408 0)
(10.0007 0.0077274 0)
(10.0075 0.0218045 0)
(10.0165 0.0315482 0)
(10.027 0.0368283 0)
(10.037 0.0400337 0)
(10.0465 0.041646 0)
(10.0554 0.0419073 0)
(10.0637 0.0412595 0)
(10.0712 0.040153 0)
(10.078 0.0387794 0)
(10.0842 0.0372903 0)
(10.09 0.0357881 0)
(10.0953 0.0343111 0)
(10.1004 0.0328062 0)
(10.1052 0.0312196 0)
(10.1096 0.0295064 0)
(10.1137 0.0276636 0)
(10.1173 0.0257103 0)
(10.0006 0.00638395 0)
(10.006 0.0188662 0)
(10.0141 0.0277116 0)
(10.0235 0.0327113 0)
(10.0328 0.0357874 0)
(10.0417 0.0374029 0)
(10.0502 0.0378168 0)
(10.0581 0.0373873 0)
(10.0653 0.0364723 0)
(10.0719 0.0352776 0)
(10.078 0.0339343 0)
(10.0837 0.032546 0)
(10.0889 0.0311325 0)
(10.0939 0.0296857 0)
(10.0986 0.0281569 0)
(10.1029 0.0265393 0)
(10.1069 0.0247967 0)
(10.1105 0.0229763 0)
(10.0004 0.00521558 0)
(10.0049 0.0160812 0)
(10.0121 0.024075 0)
(10.0206 0.0286954 0)
(10.0292 0.0315753 0)
(10.0375 0.0331377 0)
(10.0455 0.033633 0)
(10.053 0.0333576 0)
(10.06 0.0326023 0)
(10.0664 0.0315582 0)
(10.0723 0.0303587 0)
(10.0778 0.0290837 0)
(10.0829 0.027762 0)
(10.0878 0.026397 0)
(10.0923 0.0249611 0)
(10.0966 0.0234475 0)
(10.1005 0.0218444 0)
(10.104 0.0201607 0)
(10.0003 0.00412799 0)
(10.004 0.0131554 0)
(10.0101 0.0201485 0)
(10.0177 0.0242834 0)
(10.0255 0.0269019 0)
(10.0332 0.0283607 0)
(10.0407 0.0288991 0)
(10.0478 0.0287486 0)
(10.0544 0.0281464 0)
(10.0606 0.0272573 0)
(10.0664 0.0262074 0)
(10.0717 0.0250461 0)
(10.0767 0.0238327 0)
(10.0814 0.0225479 0)
(10.0858 0.0212143 0)
(10.09 0.0198041 0)
(10.0938 0.018335 0)
(10.0972 0.0167942 0)
(10.0002 0.00310378 0)
(10.0032 0.0101673 0)
(10.0084 0.0159852 0)
(10.015 0.0194833 0)
(10.022 0.0217313 0)
(10.0291 0.0230078 0)
(10.036 0.0235167 0)
(10.0427 0.0234448 0)
(10.049 0.0229658 0)
(10.0549 0.0222277 0)
(10.0605 0.0213124 0)
(10.0657 0.0202923 0)
(10.0706 0.0191809 0)
(10.0751 0.0180166 0)
(10.0794 0.016783 0)
(10.0833 0.0155127 0)
(10.087 0.014168 0)
(10.0904 0.0128017 0)
(10.0002 0.00212371 0)
(10.0025 0.00715884 0)
(10.0069 0.0116173 0)
(10.0126 0.0143009 0)
(10.0189 0.0160405 0)
(10.0254 0.0170287 0)
(10.0318 0.0174193 0)
(10.038 0.0173561 0)
(10.044 0.016959 0)
(10.0496 0.0163378 0)
(10.055 0.0155554 0)
(10.06 0.0146665 0)
(10.0647 0.0136895 0)
(10.0691 0.0126562 0)
(10.0732 0.0115665 0)
(10.0771 0.0104411 0)
(10.0806 0.00926656 0)
(10.0838 0.00806791 0)
(10.0002 0.00116176 0)
(10.0021 0.00413295 0)
(10.0058 0.00705183 0)
(10.0108 0.00872766 0)
(10.0164 0.00979776 0)
(10.0223 0.0103626 0)
(10.0282 0.010531 0)
(10.0341 0.0103852 0)
(10.0397 0.0100125 0)
(10.0451 0.00946561 0)
(10.0503 0.00880516 0)
(10.0551 0.00804295 0)
(10.0597 0.00722531 0)
(10.0639 0.00634165 0)
(10.0679 0.00543095 0)
(10.0716 0.00447424 0)
(10.075 0.00349919 0)
(10.0782 0.00249503 0)
(10.0001 0.000170151 0)
(10.0018 0.00100441 0)
(10.0051 0.00219021 0)
(10.0096 0.00265214 0)
(10.0148 0.00286252 0)
(10.0202 0.00285299 0)
(10.0258 0.00266815 0)
(10.0314 0.00234519 0)
(10.0368 0.00191994 0)
(10.042 0.00141395 0)
(10.047 0.000848157 0)
(10.0517 0.000231541 0)
(10.0561 -0.000423074 0)
(10.0602 -0.0011128 0)
(10.064 -0.00182815 0)
(10.0676 -0.00256646 0)
(10.071 -0.00332676 0)
(10.074 -0.00409201 0)
(10.0001 -0.000947965 0)
(10.0017 -0.00246151 0)
(10.0049 -0.00327368 0)
(10.0093 -0.00425542 0)
(10.0144 -0.00509155 0)
(10.0198 -0.00582555 0)
(10.0253 -0.00647127 0)
(10.0308 -0.0070513 0)
(10.0361 -0.00757022 0)
(10.0412 -0.00805723 0)
(10.0461 -0.008517 0)
(10.0507 -0.0089745 0)
(10.055 -0.00942879 0)
(10.0591 -0.0098978 0)
(10.0629 -0.010375 0)
(10.0664 -0.0108703 0)
(10.0696 -0.0113803 0)
(10.0726 -0.0118958 0)
(10.0002 -0.00207655 0)
(10.002 -0.00587062 0)
(10.0055 -0.00865765 0)
(10.0104 -0.0110439 0)
(10.0159 -0.0128818 0)
(10.0216 -0.0142918 0)
(10.0274 -0.015364 0)
(10.0331 -0.0161491 0)
(10.0387 -0.0167252 0)
(10.044 -0.0171364 0)
(10.0489 -0.0174561 0)
(10.0536 -0.0177045 0)
(10.0579 -0.0179359 0)
(10.0619 -0.0181488 0)
(10.0657 -0.0183835 0)
(10.0691 -0.0186227 0)
(10.0723 -0.0188999 0)
(10.0752 -0.0191771 0)
(10.0002 -0.00317968 0)
(10.0025 -0.00905046 0)
(10.0067 -0.0135623 0)
(10.0123 -0.017083 0)
(10.0185 -0.019679 0)
(10.0248 -0.0215804 0)
(10.031 -0.0229279 0)
(10.0372 -0.0238035 0)
(10.0431 -0.0243298 0)
(10.0486 -0.0245979 0)
(10.0537 -0.0247116 0)
(10.0585 -0.0247226 0)
(10.0628 -0.0246996 0)
(10.0669 -0.0246599 0)
(10.0706 -0.0246499 0)
(10.074 -0.0246628 0)
(10.0771 -0.0247288 0)
(10.0799 -0.0248144 0)
(10.0003 -0.00445307 0)
(10.0033 -0.0125039 0)
(10.0086 -0.0186614 0)
(10.0153 -0.0231387 0)
(10.0223 -0.0263067 0)
(10.0293 -0.0285717 0)
(10.0362 -0.0300771 0)
(10.0428 -0.0309484 0)
(10.0491 -0.0313326 0)
(10.0549 -0.0313877 0)
(10.0602 -0.0312244 0)
(10.065 -0.030957 0)
(10.0694 -0.0306314 0)
(10.0734 -0.030327 0)
(10.0771 -0.030047 0)
(10.0804 -0.0298456 0)
(10.0834 -0.0296972 0)
(10.0862 -0.0296072 0)
(10.0003 -0.00600095 0)
(10.0046 -0.0166244 0)
(10.0115 -0.024203 0)
(10.0193 -0.0293941 0)
(10.0272 -0.0329617 0)
(10.0349 -0.0354389 0)
(10.0424 -0.0369557 0)
(10.0495 -0.0376741 0)
(10.0561 -0.037805 0)
(10.0622 -0.037534 0)
(10.0676 -0.0370286 0)
(10.0725 -0.0364213 0)
(10.0768 -0.0357752 0)
(10.0808 -0.0351632 0)
(10.0843 -0.0346315 0)
(10.0875 -0.0341974 0)
(10.0903 -0.033867 0)
(10.0929 -0.0335894 0)
(10.0004 -0.00775229 0)
(10.0059 -0.0214084 0)
(10.0154 -0.029774 0)
(10.0242 -0.0352778 0)
(10.0328 -0.0391418 0)
(10.0411 -0.0417935 0)
(10.0491 -0.0432909 0)
(10.0567 -0.0438161 0)
(10.0637 -0.0436292 0)
(10.0699 -0.0429814 0)
(10.0754 -0.0420652 0)
(10.0802 -0.0410621 0)
(10.0845 -0.0400831 0)
(10.0883 -0.0391816 0)
(10.0917 -0.0384184 0)
(10.0947 -0.0377928 0)
(10.0974 -0.0373329 0)
(10.0999 -0.0369614 0)
(10.0013 -0.00974315 0)
(10.0078 -0.0270184 0)
(10.0194 -0.0350969 0)
(10.0291 -0.0405141 0)
(10.0386 -0.044548 0)
(10.0476 -0.0472933 0)
(10.0564 -0.0487726 0)
(10.0646 -0.0491942 0)
(10.072 -0.0487572 0)
(10.0786 -0.047737 0)
(10.0842 -0.0464054 0)
(10.089 -0.0449751 0)
(10.0931 -0.0435915 0)
(10.0967 -0.0423333 0)
(10.0998 -0.0412503 0)
(10.1026 -0.0403702 0)
(10.1052 -0.0397156 0)
(10.1075 -0.0392146 0)
(10.0026 -0.012822 0)
(10.012 -0.0320558 0)
(10.024 -0.0407622 0)
(10.0362 -0.0465549 0)
(10.0462 -0.0508195 0)
(10.0558 -0.0532665 0)
(10.0652 -0.0543157 0)
(10.0741 -0.054436 0)
(10.082 -0.0536028 0)
(10.0889 -0.0521005 0)
(10.0947 -0.0503561 0)
(10.0996 -0.0486079 0)
(10.1037 -0.0470282 0)
(10.1072 -0.0456513 0)
(10.1102 -0.044504 0)
(10.113 -0.0435804 0)
(10.1156 -0.0429097 0)
(10.1181 -0.0423871 0)
(10.0037 -0.0175289 0)
(10.0183 -0.0354816 0)
(10.0306 -0.0445104 0)
(10.0457 -0.0512732 0)
(10.0565 -0.0564488 0)
(10.0672 -0.059224 0)
(10.0778 -0.0601166 0)
(10.0881 -0.0598694 0)
(10.0977 -0.0582473 0)
(10.1063 -0.0557052 0)
(10.1138 -0.0530343 0)
(10.1204 -0.0505218 0)
(10.1263 -0.0483763 0)
(10.132 -0.0465906 0)
(10.1375 -0.0451818 0)
(10.1427 -0.0441921 0)
(10.1479 -0.0435853 0)
(10.1526 -0.0432139 0)
(10.0056 -0.0269031 0)
(10.0338 -0.0430478 0)
(10.0539 -0.0495985 0)
(10.0804 -0.0543941 0)
(10.1056 -0.0591983 0)
(10.1329 -0.0626264 0)
(10.1606 -0.0641691 0)
(10.1885 -0.0647133 0)
(10.2145 -0.0648912 0)
(10.2359 -0.06403 0)
(10.2543 -0.0618812 0)
(10.27 -0.0590222 0)
(10.283 -0.05618 0)
(10.293 -0.0538452 0)
(10.2998 -0.0522082 0)
(10.3038 -0.0511772 0)
(10.3054 -0.050534 0)
(10.305 -0.0502875 0)
(10.0467 -0.0389455 0)
(10.183 -0.0674942 0)
(10.2943 -0.0764504 0)
(10.3721 -0.0801975 0)
(10.4288 -0.0825341 0)
(10.4663 -0.0832017 0)
(10.4853 -0.082493 0)
(10.4761 -0.0811211 0)
(10.4498 -0.0770853 0)
(10.4383 -0.0718012 0)
(10.4202 -0.0669047 0)
(10.3912 -0.0616935 0)
(10.3473 -0.0570757 0)
(10.2939 -0.0529425 0)
(10.2365 -0.0490638 0)
(10.1803 -0.0457014 0)
(10.1264 -0.0430897 0)
(10.0753 -0.0413237 0)
(9.87306 -0.0386872 0)
(9.59036 -0.076491 0)
(9.30094 -0.0903063 0)
(8.99137 -0.093807 0)
(8.69829 -0.0913823 0)
(8.42834 -0.0858195 0)
(8.18243 -0.0770159 0)
(7.97495 -0.0669844 0)
(7.8001 -0.0615162 0)
(7.62167 -0.0564306 0)
(7.47025 -0.047091 0)
(7.34768 -0.03548 0)
(7.25642 -0.0244707 0)
(7.18927 -0.0161273 0)
(7.13875 -0.0105086 0)
(7.09688 -0.0068261 0)
(7.06084 -0.00416716 0)
(7.02998 -0.0025052 0)
(-0.00249383 0.00717922 -9.86001e-19)
(-0.0120506 0.0120647 1.08707e-18)
(-0.0249094 0.0134631 0)
(-0.038892 0.0119213 0)
(-0.0495578 0.0067312 0)
(-0.0498253 -0.00211653 -7.55746e-19)
(-0.0357424 -0.0141647 0)
(-0.0103526 -0.027057 0)
(0.0231189 -0.0370298 0)
(0.0617607 -0.0421039 0)
(0.103078 -0.0428846 4.22468e-19)
(0.143707 -0.0404181 0)
(0.180871 -0.035691 0)
(0.212873 -0.0294669 0)
(0.238796 -0.0223108 0)
(0.258186 -0.0145758 2.35461e-19)
(0.27069 -0.00648698 0)
(0.276491 0.00200923 0)
(0.274538 0.0107937 0)
(0.264994 0.0193817 0)
(0.248492 0.0270075 0)
(0.22572 0.0328707 0)
(0.197618 0.0362185 0)
(0.165549 0.0364473 3.30767e-19)
(0.131356 0.0331518 -3.8847e-19)
(0.0972645 0.0264002 4.73097e-19)
(0.0657364 0.0170113 5.97015e-19)
(0.038973 0.00686903 0)
(0.0183505 -0.00138695 0)
(0.00408105 -0.00594811 -1.32237e-18)
(-0.00454763 -0.00744478 -1.41973e-18)
(-0.00870018 -0.00792461 0)
(-0.00767635 -0.00889908 0)
(-0.0011625 -0.0115481 -1.38018e-18)
(0.0119422 -0.0163529 0)
(0.0331628 -0.0228682 0)
(0.0608015 -0.028071 6.08985e-19)
(0.0914456 -0.0297493 0)
(0.119963 -0.0267741 4.07375e-19)
(0.142182 -0.0201431 7.41259e-19)
(0.155374 -0.011734 0)
(0.159406 -0.00366045 0)
(0.155549 0.0019815 0)
(0.147839 0.00421226 0)
(0.140881 0.00228595 0)
(0.137482 -0.00423637 7.9633e-19)
(0.13407 -0.0145488 8.04595e-19)
(0.123445 -0.0232475 8.28903e-19)
(0.0983792 -0.0201938 0)
(0.053519 -0.00137776 -1.07425e-18)
(-0.0208525 0.0198848 0)
(-0.117535 0.0408212 5.37513e-19)
(-0.22402 0.0624192 3.58453e-19)
(-0.342733 0.0792479 0)
(-0.470496 0.0914913 0)
(-0.601254 0.103649 0)
(-0.731903 0.110603 1.57225e-19)
(-0.861794 0.111475 0)
(-0.986019 0.10869 0)
(-1.1038 0.103163 0)
(-1.21385 0.0955374 0)
(-1.31607 0.0857422 0)
(-1.4095 0.0758556 0)
(-1.49508 0.0675777 0)
(-1.57339 0.061445 0)
(-1.6454 0.0565885 -9.14459e-20)
(-1.71197 0.05156 0)
(-1.7734 0.0470507 0)
(-1.83035 0.0432436 8.44579e-20)
(-1.88342 0.039878 8.26097e-20)
(-1.93307 0.0369762 0)
(-1.97971 0.034427 -7.93606e-20)
(-2.02371 0.0322015 7.79032e-20)
(-2.06534 0.0302331 0)
(-2.10488 0.0284905 -7.52252e-20)
(-2.1425 0.0269322 0)
(-2.17841 0.0255317 0)
(-2.21273 0.0242632 7.16258e-20)
(-2.2456 0.0231069 0)
(-2.27712 0.0220466 -6.94226e-20)
(-2.30737 0.021067 0)
(-2.33644 0.0201565 6.7341e-20)
(-2.36437 0.019303 6.63406e-20)
(-2.39123 0.0184975 6.53647e-20)
(-2.41706 0.0177305 1.28826e-19)
(-2.44189 0.0169943 -1.26967e-19)
(-2.46575 0.0162824 0)
(-2.48864 0.0155837 0)
(-2.51057 0.014891 0)
(-2.53152 0.0142037 -1.19948e-19)
(-2.55152 0.0134996 -1.18287e-19)
(-2.57056 0.0127843 1.16659e-19)
(-2.58865 0.0120397 0)
(-2.60574 0.0112666 -1.13489e-19)
(-2.62179 0.0104472 -1.11939e-19)
(-2.63676 0.00958061 -1.10408e-19)
(-2.65059 0.00864661 0)
(-2.6632 0.00764516 0)
(-2.67454 0.00656748 0)
(-2.68452 0.00543398 -1.044e-19)
(-2.69306 0.00426994 0)
(-2.70007 0.00312471 0)
(-2.70543 0.00205378 9.9941e-20)
(-2.70909 0.00107488 0)
(-2.7111 0.000218052 0)
(-2.71183 -0.000565914 9.52172e-20)
(-2.71119 -0.00132663 0)
(-2.70921 -0.00208897 0)
(-2.70587 -0.0028398 -9.00152e-20)
(-2.70116 -0.00359334 -8.81532e-20)
(-2.69507 -0.00433328 0)
(-2.6876 -0.00507083 8.42112e-20)
(-2.67875 -0.0057911 0)
(-2.66852 -0.00650272 -7.99539e-20)
(-2.6569 -0.00719328 0)
(-2.64391 -0.00786924 -7.53621e-20)
(-2.62956 -0.00852136 -7.29375e-20)
(-2.61386 -0.00915543 0)
(-2.59682 -0.00976548 0)
(-2.57847 -0.0103555 0)
(-2.55883 -0.0109216 0)
(-2.53791 -0.0114655 0)
(-2.51574 -0.0119867 0)
(-2.49233 -0.0124858 0)
(-2.4677 -0.0129653 -5.04278e-20)
(-2.44186 -0.0134263 4.72335e-20)
(-2.41484 -0.013872 0)
(-2.38666 -0.014304 0)
(-2.35733 -0.0147258 0)
(-2.32686 -0.0151424 0)
(-2.29527 -0.0155547 6.00418e-20)
(-2.26257 -0.0159577 0)
(-2.22876 -0.016349 -4.50587e-20)
(-2.19386 -0.0167292 3.7282e-20)
(-2.15789 -0.017072 0)
(-2.12087 -0.0173325 0)
(-2.08286 -0.0174208 0)
(-2.04387 -0.0172914 -4.03379e-21)
(-2.00395 -0.0170394 4.88157e-21)
(-1.96304 -0.017145 0)
(-1.92102 -0.0175477 2.36074e-20)
(-1.87795 -0.0178925 3.34752e-20)
(-1.83388 -0.0182492 -4.37147e-20)
(-1.78881 -0.018608 0)
(-1.74276 -0.0189791 0)
(-1.69576 -0.0193526 -7.69979e-20)
(-1.64778 -0.0197401 0)
(-1.5989 -0.0201281 0)
(-1.54907 -0.0205302 0)
(-1.49836 -0.0209295 0)
(-1.44677 -0.02133 1.434e-19)
(-1.39431 -0.0217486 1.58728e-19)
(-1.34107 -0.0221515 0)
(-1.28701 -0.0225602 1.91977e-19)
(-1.23225 -0.0229571 0)
(-1.17675 -0.0233574 0)
(-1.12064 -0.0237461 2.49355e-19)
(-1.06389 -0.0241382 0)
(-1.00662 -0.0245224 2.9359e-19)
(-0.948782 -0.0249097 0)
(-0.890485 -0.0252946 0)
(-0.831717 -0.0256782 3.71257e-19)
(-0.772543 -0.026062 0)
(-0.712984 -0.0264417 4.32469e-19)
(-0.653086 -0.026819 0)
(-0.592888 -0.027193 0)
(-0.532437 -0.027565 0)
(-0.471772 -0.0279366 -5.85942e-19)
(-0.410936 -0.028311 0)
(-0.349958 -0.0286919 6.83937e-19)
(-0.288899 -0.0290713 0)
(-0.22781 -0.0294604 0)
(-0.166736 -0.0298591 0)
(-0.105759 -0.0302342 0)
(-0.0451873 -0.0304915 0)
(0.0149703 -0.0299761 0)
(0.0747087 -0.028334 0)
(0.129748 -0.0257869 -1.97356e-18)
(0.188711 -0.0222571 0)
(0.205851 -0.00909287 0)
(-5.35509e-05 0.0194112 3.00123e-18)
(-0.00558796 0.0335033 -3.38375e-18)
(-0.0115482 0.0352832 0)
(-0.0123977 0.0268552 2.36342e-18)
(-9.12132e-05 0.00690518 0)
(0.0271581 -0.0268743 7.541e-19)
(0.0636084 -0.0660859 -9.44284e-19)
(0.105923 -0.0992527 -6.70201e-19)
(0.150254 -0.120429 0)
(0.193226 -0.12877 -4.33477e-19)
(0.232522 -0.126519 -1.88975e-19)
(0.267077 -0.116839 0)
(0.296491 -0.102542 0)
(0.320729 -0.0856838 0)
(0.339981 -0.0676396 0)
(0.354538 -0.0491991 -1.45743e-19)
(0.364775 -0.030773 0)
(0.370859 -0.0125563 2.96638e-19)
(0.373725 0.00545772 0)
(0.373289 0.0231435 0)
(0.369191 0.040127 -3.08256e-19)
(0.360922 0.0559115 0)
(0.347951 0.0697239 3.29832e-19)
(0.329833 0.080591 -1.73226e-19)
(0.306412 0.087385 1.84934e-19)
(0.277958 0.0890597 -2.01258e-19)
(0.2454 0.0849308 -2.2414e-19)
(0.210363 0.0751323 0)
(0.175092 0.0607511 0)
(0.142316 0.0435614 3.61516e-19)
(0.115038 0.025213 -4.37095e-19)
(0.0964404 0.0066626 0)
(0.0878927 -0.0120029 0)
(0.0908959 -0.0301626 5.23752e-19)
(0.103809 -0.0487749 0)
(0.123425 -0.0662191 0)
(0.144308 -0.0759037 -2.90303e-19)
(0.161151 -0.0730877 0)
(0.170877 -0.0595103 2.3178e-19)
(0.172787 -0.0399092 -4.6405e-19)
(0.167103 -0.0193488 0)
(0.155401 -0.0031851 0)
(0.139295 0.00664161 -1.17708e-18)
(0.116482 0.010633 -1.31596e-18)
(0.079437 0.0128662 -1.52561e-18)
(0.0169913 0.0242672 8.23617e-19)
(-0.0798691 0.0579715 -5.90615e-19)
(-0.200653 0.101198 -1.10967e-18)
(-0.332289 0.144973 5.12579e-19)
(-0.469391 0.185958 1.91964e-19)
(-0.610985 0.21982 0)
(-0.753117 0.245002 -1.27384e-19)
(-0.892372 0.262086 1.11031e-19)
(-1.02691 0.27058 0)
(-1.15388 0.270602 0)
(-1.26974 0.264203 0)
(-1.37459 0.252767 -7.73248e-20)
(-1.46832 0.237404 0)
(-1.55169 0.220022 1.41204e-19)
(-1.62546 0.201895 0)
(-1.69094 0.184071 1.32249e-19)
(-1.74922 0.167256 0)
(-1.80178 0.151788 -1.25983e-19)
(-1.84968 0.137777 0)
(-1.89356 0.125319 1.20656e-19)
(-1.93419 0.114401 -5.9288e-20)
(-1.97205 0.104839 0)
(-2.00766 0.0965071 -1.14321e-19)
(-2.04137 0.0892488 -5.61968e-20)
(-2.0734 0.0829072 -5.53304e-20)
(-2.10392 0.0773376 0)
(-2.1331 0.0724163 -5.36917e-20)
(-2.16104 0.0680364 -5.28987e-20)
(-2.18783 0.0641089 0)
(-2.21354 0.0605594 5.13739e-20)
(-2.23823 0.0573282 -1.01218e-19)
(-2.26196 0.0543641 0)
(-2.28476 0.0516278 -4.91801e-20)
(-2.30666 0.0490843 0)
(-2.32771 0.0467083 1.43227e-19)
(-2.34793 0.0444746 0)
(-2.36733 0.0423653 -1.39092e-19)
(-2.38593 0.0403616 -4.57205e-20)
(-2.40375 0.0384494 4.49601e-20)
(-2.4208 0.0366143 8.86072e-20)
(-2.43707 0.0348448 -8.73161e-20)
(-2.45258 0.0331307 0)
(-2.4673 0.0314559 0)
(-2.48121 0.0298154 0)
(-2.4943 0.0281965 2.4754e-19)
(-2.50656 0.0265842 8.13972e-20)
(-2.518 0.0249745 -8.02271e-20)
(-2.52859 0.023348 0)
(-2.53832 0.0217104 -7.77555e-20)
(-2.54715 0.0200423 7.67972e-20)
(-2.55507 0.0183523 7.56724e-20)
(-2.56205 0.01662 0)
(-2.56808 0.014851 0)
(-2.57315 0.0130223 0)
(-2.57725 0.0111381 7.12003e-20)
(-2.5804 0.00918953 0)
(-2.58268 0.00720023 -1.37908e-19)
(-2.58414 0.00521268 -2.03459e-19)
(-2.58485 0.00327032 1.33284e-19)
(-2.58471 0.00141982 0)
(-2.58335 -0.000368211 6.42228e-20)
(-2.58072 -0.00212345 0)
(-2.57678 -0.00386959 1.23193e-19)
(-2.57151 -0.00559406 -6.03289e-20)
(-2.5649 -0.00731017 -5.89503e-20)
(-2.55693 -0.00900089 0)
(-2.5476 -0.0106762 -1.6766e-19)
(-2.5369 -0.0123203 1.08788e-19)
(-2.52484 -0.0139407 5.2654e-20)
(-2.51143 -0.0155233 0)
(-2.49666 -0.0170729 4.93038e-20)
(-2.48056 -0.0185778 1.43042e-19)
(-2.46313 -0.0200437 0)
(-2.44439 -0.0214629 8.82278e-20)
(-2.42437 -0.0228401 8.44491e-20)
(-2.40307 -0.02417 8.05753e-20)
(-2.38053 -0.025454 0)
(-2.35675 -0.0266909 0)
(-2.33176 -0.0278804 0)
(-2.30557 -0.0290257 -3.23563e-20)
(-2.2782 -0.0301266 -2.96879e-20)
(-2.24967 -0.0311874 0)
(-2.22 -0.0322077 -5.10946e-20)
(-2.1892 -0.0331905 -4.65895e-20)
(-2.15728 -0.0341361 0)
(-2.12426 -0.0350458 -3.68149e-20)
(-2.09016 -0.0359222 -6.53795e-20)
(-2.05497 -0.0367663 2.73394e-20)
(-2.01871 -0.0375859 2.37004e-20)
(-1.98138 -0.0383801 0)
(-1.94299 -0.0391654 0)
(-1.90353 -0.0399465 0)
(-1.86298 -0.040735 2.44901e-21)
(-1.82131 -0.0415258 1.48526e-21)
(-1.77855 -0.0422908 1.48167e-20)
(-1.73479 -0.0429946 -1.34417e-20)
(-1.69002 -0.0436481 1.75874e-20)
(-1.64424 -0.0442773 2.45288e-20)
(-1.59747 -0.044876 0)
(-1.5497 -0.0454582 0)
(-1.50096 -0.0460101 -4.05817e-20)
(-1.45126 -0.0465432 0)
(-1.40063 -0.0470455 0)
(-1.34906 -0.0475276 1.20152e-19)
(-1.2966 -0.0479834 0)
(-1.24327 -0.0483932 7.26096e-20)
(-1.18907 -0.0487862 -8.1248e-20)
(-1.13408 -0.049131 0)
(-1.07829 -0.0494402 9.40069e-20)
(-1.02179 -0.0496984 0)
(-0.964585 -0.0499188 0)
(-0.906766 -0.0500898 -1.19336e-19)
(-0.848328 -0.0502259 2.53228e-19)
(-0.789368 -0.0503202 -1.36166e-19)
(-0.729883 -0.0503831 0)
(-0.669953 -0.0504135 0)
(-0.609587 -0.0504153 1.61142e-19)
(-0.548843 -0.0503891 0)
(-0.487748 -0.0503356 1.80455e-19)
(-0.426348 -0.0502506 0)
(-0.364685 -0.050138 0)
(-0.302802 -0.0499952 0)
(-0.240744 -0.049829 2.24688e-19)
(-0.17855 -0.0496345 0)
(-0.116255 -0.0494228 -2.4742e-19)
(-0.0539119 -0.049192 0)
(0.00854943 -0.0489537 0)
(0.0710873 -0.0486741 5.37815e-19)
(0.133476 -0.0482999 -5.40346e-19)
(0.195523 -0.0477596 0)
(0.256791 -0.0467109 0)
(0.317051 -0.0447726 0)
(0.374027 -0.0417142 1.65547e-18)
(0.432679 -0.0366412 0)
(0.46939 -0.0226051 -1.14783e-18)
(0.000491066 0.0219023 3.01612e-22)
(0.000927265 0.0373687 4.68626e-18)
(0.00643085 0.031428 0)
(0.0246111 0.00190537 -3.31648e-18)
(0.0611163 -0.0525483 0)
(0.109727 -0.114976 0)
(0.160669 -0.166413 -3.04883e-22)
(0.206968 -0.197414 3.8038e-19)
(0.24565 -0.20776 3.25387e-19)
(0.276461 -0.201971 2.89843e-19)
(0.300434 -0.185538 0)
(0.318946 -0.163094 0)
(0.333188 -0.137857 -2.40069e-19)
(0.344016 -0.111776 -4.66401e-19)
(0.352006 -0.0859252 4.59209e-19)
(0.357543 -0.0608217 0)
(0.360906 -0.0366808 4.60963e-19)
(0.362289 -0.0135983 -2.34113e-19)
(0.36194 0.00844232 0)
(0.360171 0.0295817 4.78264e-19)
(0.357238 0.0499159 2.43328e-19)
(0.353282 0.069376 -5.02152e-19)
(0.348239 0.087601 -2.60854e-19)
(0.341699 0.10389 0)
(0.332988 0.117178 5.76625e-19)
(0.321269 0.12612 6.1162e-19)
(0.305794 0.129296 0)
(0.286272 0.125568 7.09535e-19)
(0.263272 0.114445 0)
(0.238425 0.0962985 8.74854e-19)
(0.214314 0.0723074 4.97721e-19)
(0.19389 0.0439891 0)
(0.179684 0.0129894 0)
(0.172009 -0.0201331 0)
(0.169513 -0.053749 0)
(0.166393 -0.077673 0)
(0.157656 -0.0820647 0)
(0.141681 -0.0677522 7.17733e-19)
(0.119284 -0.042188 -1.0757e-18)
(0.0905393 -0.012256 0)
(0.0548188 0.0188933 0)
(0.00873551 0.0473666 0)
(-0.0586335 0.0744736 5.88898e-22)
(-0.149187 0.111758 6.89505e-19)
(-0.260125 0.159619 1.01436e-18)
(-0.387422 0.212652 -7.74131e-19)
(-0.523914 0.26668 -3.07655e-19)
(-0.662442 0.316386 2.53192e-19)
(-0.797711 0.357887 5.0645e-22)
(-0.925713 0.390321 1.89694e-19)
(-1.04296 0.41253 0)
(-1.14795 0.424006 1.54477e-19)
(-1.24016 0.425132 1.16581e-21)
(-1.31964 0.41664 0)
(-1.38767 0.400149 0)
(-1.44594 0.37804 -1.19556e-19)
(-1.49669 0.352444 0)
(-1.54152 0.325006 0)
(-1.58225 0.297422 1.06663e-19)
(-1.62007 0.270811 2.04933e-19)
(-1.65595 0.245945 -9.89501e-20)
(-1.69044 0.22321 0)
(-1.72396 0.202872 9.42588e-20)
(-1.75669 0.184946 0)
(-1.78861 0.169328 9.07001e-20)
(-1.81966 0.155795 8.8489e-20)
(-1.84984 0.143968 -1.73904e-19)
(-1.87915 0.13361 -8.54315e-20)
(-1.90761 0.124514 0)
(-1.9352 0.116479 1.64696e-19)
(-1.96193 0.109329 0)
(-1.98778 0.102921 2.38721e-19)
(-2.01278 0.0971321 1.56503e-19)
(-2.03694 0.0918634 1.53918e-19)
(-2.06027 0.0870334 -1.51387e-19)
(-2.08278 0.0825753 2.23387e-19)
(-2.10449 0.0784341 0)
(-2.12542 0.0745653 0)
(-2.14559 0.070931 -1.41704e-19)
(-2.16501 0.0675002 -2.09129e-19)
(-2.1837 0.0642454 0)
(-2.20167 0.0611434 6.74908e-20)
(-2.21893 0.0581727 0)
(-2.23549 0.0553146 -1.95755e-19)
(-2.25134 0.0525516 -1.66793e-22)
(-2.26651 0.0498676 1.72661e-22)
(-2.28098 0.0472475 1.24152e-19)
(-2.29474 0.0446756 0)
(-2.30777 0.0421403 -1.20145e-19)
(-2.32006 0.0396248 -1.77941e-22)
(-2.3316 0.0371155 0)
(-2.34239 0.0345969 0)
(-2.35242 0.0320621 0)
(-2.36166 0.0294987 1.10898e-19)
(-2.37009 0.0269028 0)
(-2.37768 0.0242672 0)
(-2.38441 0.0215919 0)
(-2.39026 0.0188775 0)
(-2.39521 0.0161285 0)
(-2.39924 0.0133546 1.00209e-19)
(-2.40235 0.0105639 0)
(-2.40449 0.00776944 9.67501e-20)
(-2.40563 0.00497046 9.49359e-20)
(-2.40572 0.00216253 -9.30566e-20)
(-2.40466 -0.000669107 0)
(-2.4024 -0.00351134 -8.92144e-20)
(-2.3989 -0.0063484 0)
(-2.39412 -0.00916987 -8.5216e-20)
(-2.38805 -0.0119719 8.31466e-20)
(-2.38067 -0.0147472 2.43408e-19)
(-2.37197 -0.0174902 0)
(-2.36194 -0.0201941 2.30264e-19)
(-2.35058 -0.0228525 7.47808e-20)
(-2.3379 -0.0254596 0)
(-2.3239 -0.0280088 1.39645e-19)
(-2.30859 -0.0304946 1.3473e-19)
(-2.29199 -0.0329114 -1.94241e-19)
(-2.27409 -0.035257 0)
(-2.25493 -0.037528 -5.93074e-20)
(-2.23452 -0.0397237 -5.66056e-20)
(-2.21288 -0.0418421 -1.62258e-19)
(-2.19002 -0.0438832 0)
(-2.16597 -0.0458471 0)
(-2.14075 -0.0477354 0)
(-2.11437 -0.0495511 -4.31534e-20)
(-2.08684 -0.0512966 0)
(-2.05819 -0.0529762 0)
(-2.02842 -0.0545922 3.34138e-20)
(-1.99755 -0.0561491 3.03661e-20)
(-1.9656 -0.0576487 0)
(-1.93256 -0.0590942 0)
(-1.89845 -0.0604861 4.21709e-20)
(-1.86328 -0.061827 0)
(-1.82704 -0.0631193 -2.95852e-20)
(-1.78975 -0.0643624 -2.4098e-20)
(-1.7514 -0.0655568 0)
(-1.71198 -0.0667059 0)
(-1.6715 -0.0678149 4.79821e-21)
(-1.62995 -0.0688973 -9.29614e-22)
(-1.58736 -0.0699686 -9.46513e-22)
(-1.54377 -0.0710127 0)
(-1.49917 -0.0720049 -4.42807e-20)
(-1.45358 -0.0729579 0)
(-1.40699 -0.0738656 0)
(-1.35942 -0.074734 0)
(-1.31087 -0.0755579 5.02517e-20)
(-1.26138 -0.0763383 0)
(-1.21095 -0.0770717 -1.26995e-19)
(-1.15962 -0.0777569 -7.19407e-20)
(-1.10739 -0.078399 0)
(-1.0543 -0.078972 -8.69912e-20)
(-1.00039 -0.0794937 0)
(-0.945677 -0.0799464 0)
(-0.890208 -0.0803254 -3.28877e-19)
(-0.834026 -0.0806273 2.34608e-19)
(-0.777184 -0.0808509 0)
(-0.719727 -0.080999 2.6771e-19)
(-0.661707 -0.0810738 -1.43651e-19)
(-0.603167 -0.0810822 0)
(-0.544158 -0.0810254 0)
(-0.484719 -0.0809118 0)
(-0.424894 -0.0807419 -5.33794e-19)
(-0.364723 -0.080518 0)
(-0.304243 -0.0802409 -1.97158e-19)
(-0.243497 -0.0799054 0)
(-0.182528 -0.0795134 0)
(-0.121378 -0.0790618 0)
(-0.0600909 -0.0785618 0)
(0.00132293 -0.0780204 0)
(0.0628361 -0.0774461 0)
(0.124378 -0.0768307 -5.03086e-19)
(0.18588 -0.0761456 0)
(0.247262 -0.0753308 -2.61366e-19)
(0.308432 -0.0743443 7.93008e-19)
(0.36927 -0.0730952 0)
(0.429471 -0.0713794 0)
(0.488964 -0.0688319 -5.50065e-19)
(0.546208 -0.0648998 -5.60526e-19)
(0.605012 -0.0585502 5.68478e-19)
(0.651092 -0.0439581 5.86796e-19)
(-0.00101874 0.0217364 -6.03157e-18)
(0.00188575 0.0246729 -7.41774e-18)
(0.0216084 -0.011889 -3.31714e-18)
(0.0661691 -0.0879265 -8.97749e-19)
(0.124369 -0.171494 0)
(0.180713 -0.234788 8.16054e-19)
(0.225681 -0.267614 -3.2917e-19)
(0.257357 -0.273342 0)
(0.278068 -0.260524 -2.52897e-19)
(0.291239 -0.237239 0)
(0.299737 -0.209016 4.38646e-19)
(0.305438 -0.179014 0)
(0.309378 -0.148856 2.02276e-19)
(0.312056 -0.119303 3.96903e-19)
(0.313666 -0.0907008 -3.93918e-19)
(0.314267 -0.063206 0)
(0.313883 -0.0368945 -4.00598e-19)
(0.312536 -0.011816 0)
(0.310279 0.0120376 0)
(0.307206 0.0346896 -4.18074e-19)
(0.303454 0.0561531 0)
(0.299231 0.0764287 -5.27021e-22)
(0.294747 0.0954078 0)
(0.29009 0.11277 0)
(0.28517 0.127914 3.48509e-22)
(0.279634 0.139874 -5.3649e-19)
(0.272881 0.147309 -5.75618e-19)
(0.264156 0.148641 -6.20455e-19)
(0.252869 0.142361 0)
(0.238911 0.127368 -1.48159e-18)
(0.22303 0.103478 0)
(0.206442 0.0716374 -9.38537e-19)
(0.19056 0.0338421 0)
(0.175119 -0.00645147 0)
(0.153621 -0.0391303 9.35671e-19)
(0.123454 -0.0499346 0)
(0.0847892 -0.0384521 -7.3372e-19)
(0.0379419 -0.0113171 -4.35377e-22)
(-0.0171465 0.0263541 1.41932e-18)
(-0.0849339 0.0713037 -1.22978e-18)
(-0.168053 0.123299 0)
(-0.266194 0.180685 0)
(-0.37863 0.240154 -3.44285e-19)
(-0.500579 0.300982 0)
(-0.6267 0.361486 -2.38834e-19)
(-0.751557 0.417024 2.05361e-19)
(-0.869638 0.462866 1.80576e-19)
(-0.976526 0.497338 0)
(-1.07066 0.520216 -1.46205e-19)
(-1.15123 0.531732 -1.34161e-19)
(-1.21817 0.532596 2.50382e-19)
(-1.27304 0.523903 -1.16181e-19)
(-1.31764 0.507103 -1.09374e-19)
(-1.3543 0.483898 0)
(-1.38544 0.456247 0)
(-1.41322 0.426224 9.41758e-20)
(-1.43924 0.395409 0)
(-1.4646 0.364918 0)