/*--------------------------------*- C++ -*----------------------------------*\
  =========                 |
  \\      /  F ield         | OpenFOAM: The Open Source CFD Toolbox
   \\    /   O peration     | Website:  https://openfoam.org
    \\  /    A nd           | Version:  13
     \\/     M anipulation  |
\*---------------------------------------------------------------------------*/
FoamFile
{
    format      ascii;
    class       volScalarField;
    location    "1700";
    object      k;
}
// * * * * * * * * * * * * * * * * * * * * * * * * * * * * * * * * * * * * * //

dimensions      [0 2 -2 0 0 0 0];

internalField   nonuniform List<scalar> 
12225
(
0.656482
1.27796
1.59438
1.65164
1.62438
2.35101
2.57368
3.18159
3.43287
2.836
2.9326
3.13415
2.75667
2.24207
2.5264
2.64685
2.13428
1.60525
0.369966
0.307731
0.255286
0.292343
0.260362
0.303808
0.313625
0.364837
0.435814
0.457154
0.507828
0.549439
0.604223
0.618485
0.656087
0.67759
0.712152
0.745974
0.375009
0.298822
0.170267
0.0967174
0.0583432
0.0510004
0.0433767
0.0446284
0.047853
0.0611901
0.0781716
0.0923722
0.103245
0.11478
0.123476
0.133111
0.138083
0.143141
0.376101
0.364624
0.313638
0.249798
0.190385
0.149756
0.119075
0.0986338
0.084624
0.0745678
0.0661526
0.0586005
0.0522694
0.0468901
0.0425898
0.0393745
0.0386842
0.0379062
0.375025
0.369569
0.346645
0.32282
0.294306
0.269751
0.244006
0.218072
0.18869
0.160275
0.133611
0.112387
0.0948519
0.0814075
0.0719958
0.064683
0.0599471
0.0575338
0.374509
0.370582
0.358995
0.345572
0.331079
0.316242
0.299453
0.276883
0.251677
0.225701
0.2009
0.181162
0.16267
0.149272
0.141683
0.135231
0.131706
0.129819
0.374031
0.371461
0.366804
0.358148
0.350085
0.341008
0.33121
0.31842
0.303251
0.287669
0.273175
0.260264
0.249984
0.240502
0.234583
0.22822
0.224774
0.220367
0.373787
0.37174
0.368893
0.363773
0.358969
0.353675
0.347738
0.34061
0.332462
0.323733
0.315848
0.308027
0.302348
0.296035
0.292309
0.286982
0.284109
0.279142
0.373756
0.371692
0.369418
0.366119
0.36291
0.359554
0.355842
0.35153
0.346917
0.341831
0.337277
0.332473
0.328908
0.324772
0.32219
0.318381
0.316215
0.312412
0.373792
0.371601
0.369485
0.367049
0.36465
0.362209
0.359644
0.356751
0.353787
0.350558
0.34763
0.344543
0.34205
0.339259
0.337183
0.334552
0.332744
0.330124
0.373819
0.371567
0.369452
0.367329
0.365279
0.36325
0.361227
0.359063
0.356902
0.354617
0.352494
0.350304
0.3484
0.346372
0.34468
0.342749
0.341231
0.33934
0.373828
0.371559
0.369427
0.367374
0.365426
0.36354
0.361718
0.35987
0.358059
0.356211
0.354467
0.35271
0.351112
0.349475
0.34802
0.346466
0.345143
0.343639
0.373828
0.371558
0.369415
0.367375
0.365448
0.363607
0.361855
0.360143
0.358495
0.356868
0.355322
0.353801
0.352379
0.350969
0.349666
0.348342
0.347148
0.345893
0.373828
0.371556
0.369408
0.367368
0.365438
0.363603
0.361864
0.360197
0.358609
0.357078
0.355621
0.354214
0.352884
0.351593
0.350376
0.349184
0.348068
0.346962
0.373826
0.371554
0.369401
0.367359
0.365425
0.363587
0.361844
0.360184
0.358607
0.3571
0.355668
0.354298
0.352995
0.351748
0.350561
0.349422
0.348337
0.347295
0.373826
0.371551
0.369396
0.367352
0.365413
0.363573
0.361825
0.360163
0.358583
0.357079
0.355646
0.354282
0.352982
0.351742
0.350559
0.349431
0.348353
0.347325
0.373825
0.37155
0.369393
0.367347
0.365405
0.363562
0.36181
0.360146
0.358563
0.357056
0.355621
0.354255
0.352952
0.35171
0.350526
0.349396
0.348317
0.347288
0.373825
0.371549
0.369391
0.367343
0.3654
0.363555
0.361802
0.360135
0.35855
0.357041
0.355605
0.354236
0.352931
0.351687
0.3505
0.349368
0.348288
0.347256
0.373825
0.371549
0.369391
0.367343
0.365399
0.363554
0.3618
0.360133
0.358547
0.357037
0.3556
0.354229
0.352924
0.351678
0.35049
0.349357
0.348275
0.347243
0.373826
0.371549
0.369392
0.367345
0.365403
0.363559
0.361807
0.36014
0.358554
0.357044
0.355606
0.354235
0.352928
0.351682
0.350492
0.349358
0.348275
0.347242
0.373827
0.371551
0.369393
0.367348
0.365408
0.363566
0.361811
0.360138
0.358541
0.357018
0.355563
0.354178
0.352855
0.351598
0.350397
0.349257
0.348162
0.347126
0.373838
0.371542
0.369374
0.367321
0.365372
0.363496
0.36169
0.359932
0.358241
0.356612
0.355049
0.353565
0.352156
0.350833
0.349571
0.348402
0.34726
0.346214
0.373873
0.371429
0.369088
0.366921
0.364804
0.362672
0.360576
0.358383
0.35626
0.354158
0.352159
0.350275
0.348563
0.347007
0.345568
0.344314
0.343045
0.342018
0.373706
0.370782
0.366927
0.364056
0.361266
0.358316
0.355317
0.35146
0.348083
0.344342
0.340971
0.337823
0.335341
0.333003
0.331046
0.329613
0.328141
0.327228
0.375653
0.366434
0.35721
0.352607
0.349303
0.344442
0.338021
0.32877
0.321428
0.311964
0.303733
0.296263
0.289023
0.282846
0.277953
0.27505
0.271454
0.266702
0.381501
0.34928
0.326183
0.312996
0.309107
0.30584
0.290117
0.267619
0.242062
0.217762
0.197177
0.179512
0.169435
0.162348
0.157974
0.157087
0.155452
0.157239
0.399092
0.317188
0.262451
0.220758
0.20968
0.212302
0.200609
0.173093
0.139817
0.109145
0.0842755
0.0693855
0.0618339
0.0570583
0.053263
0.0512995
0.0510607
0.0510187
0.413942
0.248742
0.187886
0.140269
0.125742
0.112977
0.0974815
0.0776798
0.0603262
0.0465661
0.0411105
0.0367244
0.0358995
0.0365112
0.0374865
0.0376782
0.0409213
0.047453
0.329256
0.219908
0.145238
0.148068
0.122232
0.114458
0.121594
0.127909
0.140488
0.151546
0.17686
0.21937
0.259154
0.290708
0.321045
0.352465
0.38092
0.413308
0.802606
1.16254
1.40665
1.54187
1.58835
1.58097
1.55899
1.51546
1.4668
1.417
1.36845
1.32426
1.28423
1.24973
1.2186
1.19321
1.17075
1.15286
1.33968e-08
3.32061e-07
1.72278e-06
6.9185e-06
2.35171e-05
7.15837e-05
0.000198078
0.000414485
0.000697842
0.00100751
0.00129747
0.00153117
0.00169759
0.00178536
0.00177884
0.00172126
0.0016132
0.00142383
0.00120782
0.00103409
0.000871261
0.000714194
0.000558796
0.000413638
0.000279616
0.000170152
9.31641e-05
4.74973e-05
2.38712e-05
1.24599e-05
7.02365e-06
4.50423e-06
3.77533e-06
5.94691e-06
1.37618e-05
3.71413e-05
0.000194645
0.000466224
0.000925948
0.00129807
0.00134382
0.00122245
0.000978191
0.000780166
0.000716994
0.000787062
0.000926885
0.00140196
0.00222921
0.0050881
0.0131289
0.0371379
0.0727331
0.10688
0.129202
0.13414
0.109681
0.12173
0.156996
0.172251
0.158403
0.157269
0.167662
0.181626
0.160732
0.177303
0.184598
0.193042
0.201641
0.209535
0.21774
0.225511
0.233394
0.24104
0.248697
0.256213
0.263689
0.271078
0.278395
0.285654
0.292816
0.299934
0.306942
0.313908
0.32075
0.327541
0.334202
0.3408
0.347273
0.353668
0.359938
0.366088
0.372091
0.377956
0.383658
0.389203
0.394567
0.399753
0.40475
0.409571
0.414235
0.418801
0.423256
0.427544
0.431699
0.435704
0.439565
0.443271
0.446826
0.45022
0.453456
0.456524
0.459429
0.462162
0.464726
0.467114
0.469329
0.471365
0.473223
0.474897
0.476389
0.477696
0.47882
0.479759
0.480515
0.481089
0.481488
0.481716
0.481788
0.481712
0.481576
0.480829
0.48049
0.47919
0.478341
0.477141
0.475918
0.474526
0.472817
0.470983
0.468945
0.466759
0.464423
0.461952
0.459356
0.456641
0.453822
0.450902
0.44789
0.444792
0.441615
0.438365
0.435049
0.431666
0.428231
0.424741
0.421215
0.417653
0.414071
0.410486
0.406912
0.403366
0.399848
0.396373
0.392939
0.389557
0.386223
0.382952
0.379739
0.3766
0.373529
0.370532
0.367594
0.364692
0.361774
0.358755
0.355502
0.351712
0.346779
0.331253
6.39945e-08
1.82444e-06
1.23458e-05
5.32983e-05
0.000202495
0.000601889
0.00148354
0.00281652
0.00442184
0.00611106
0.00770192
0.00904216
0.0100801
0.010753
0.0111736
0.0111537
0.0110516
0.0107497
0.0102525
0.00952538
0.00856317
0.00743198
0.00613474
0.00482787
0.00345137
0.00232646
0.00149148
0.000924817
0.000557884
0.000331356
0.000201624
0.000131634
0.000102502
0.000111321
0.000199542
0.000365436
0.00196978
0.00454285
0.00839212
0.0114066
0.0128794
0.0127099
0.0119975
0.0113434
0.0122522
0.0154723
0.0205398
0.0290299
0.0443326
0.068766
0.0920926
0.116448
0.137264
0.154614
0.169577
0.184077
0.196713
0.21406
0.231557
0.248593
0.265382
0.284877
0.303917
0.322361
0.340964
0.360202
0.379045
0.397432
0.415821
0.433863
0.451827
0.469597
0.487292
0.504872
0.522395
0.539848
0.557253
0.574615
0.591931
0.609211
0.626435
0.643622
0.660742
0.677811
0.694792
0.711704
0.728508
0.745221
0.761818
0.778303
0.794651
0.810822
0.826802
0.842571
0.858113
0.873405
0.888421
0.903137
0.91752
0.931537
0.945149
0.958332
0.971184
0.983803
0.996141
1.00821
1.02
1.03149
1.04268
1.05356
1.06411
1.07432
1.08419
1.09371
1.10286
1.11165
1.12005
1.12807
1.13569
1.14291
1.14971
1.15609
1.16204
1.16756
1.17263
1.17726
1.18143
1.18514
1.1884
1.1912
1.19356
1.19545
1.19698
1.19795
1.19843
1.19862
1.19832
1.19788
1.19723
1.1961
1.19448
1.19242
1.18993
1.18703
1.18374
1.18008
1.17605
1.17169
1.167
1.162
1.1567
1.15112
1.14526
1.13916
1.13279
1.12621
1.11941
1.11242
1.10526
1.09798
1.0906
1.08315
1.07566
1.06813
1.06059
1.05304
1.04549
1.03796
1.03047
1.02302
1.01562
1.00829
1.001
0.993729
0.9864
0.97889
0.970971
0.962326
0.951024
0.924958
1.62767e-07
4.82755e-06
3.68832e-05
0.000170843
0.000696806
0.00168538
0.00363531
0.00595688
0.00834203
0.010555
0.0124462
0.0139461
0.0150365
0.0157315
0.0161141
0.0161297
0.0160206
0.0157472
0.0152822
0.014681
0.0139448
0.013066
0.0120306
0.0108189
0.00949408
0.00793716
0.00624221
0.00461599
0.00317032
0.00206022
0.00135336
0.000925166
0.00072508
0.000501193
0.00108327
0.00210795
0.00786451
0.0165107
0.0245408
0.0301281
0.0333159
0.0344116
0.0358927
0.041693
0.0558938
0.0727651
0.0902881
0.109889
0.13078
0.150128
0.170353
0.190943
0.212049
0.234639
0.258607
0.283581
0.310012
0.338903
0.367856
0.396056
0.424286
0.45229
0.479837
0.506711
0.533072
0.558862
0.584167
0.608965
0.633436
0.657551
0.68142
0.705064
0.728539
0.751871
0.775087
0.798204
0.821236
0.84419
0.86707
0.889877
0.912602
0.935245
0.957793
0.98024
1.00257
1.02477
1.04683
1.06874
1.09048
1.11206
1.13344
1.15459
1.17549
1.19612
1.21648
1.23655
1.25632
1.27576
1.29489
1.31368
1.33215
1.35029
1.36809
1.38555
1.40263
1.41934
1.43564
1.45154
1.46701
1.48204
1.49661
1.51073
1.52436
1.53751
1.55016
1.5623
1.57392
1.58501
1.59555
1.60555
1.61498
1.62385
1.63213
1.63982
1.64691
1.6534
1.65928
1.66453
1.66916
1.67317
1.67654
1.67928
1.68142
1.6829
1.68376
1.68413
1.68413
1.68337
1.68203
1.68006
1.67746
1.67426
1.67047
1.66613
1.66124
1.65584
1.64994
1.64357
1.63674
1.62948
1.62182
1.61377
1.60534
1.59657
1.58747
1.57806
1.56836
1.55841
1.54825
1.5379
1.52741
1.51681
1.50612
1.49538
1.48461
1.47382
1.46302
1.45224
1.44149
1.4308
1.42018
1.40965
1.39921
1.38884
1.37849
1.36807
1.35737
1.34614
1.33246
1.3083
6.58042e-07
1.979e-05
0.000154779
0.000628485
0.0019771
0.00467709
0.00816628
0.0116421
0.0147382
0.017256
0.0191394
0.0204155
0.0211466
0.021429
0.0213752
0.0211492
0.0206744
0.0200694
0.0193682
0.0185923
0.0177469
0.0168301
0.0158328
0.014732
0.0135176
0.0121646
0.0106573
0.00904878
0.00741737
0.00587015
0.00439216
0.00336497
0.00255698
0.00274985
0.00483737
0.0124478
0.0277727
0.0415049
0.0520256
0.0597493
0.0668879
0.0760214
0.0883712
0.103339
0.11852
0.13406
0.150606
0.169857
0.190759
0.212809
0.237617
0.264093
0.292807
0.323263
0.355026
0.387642
0.420895
0.454551
0.488013
0.521085
0.553744
0.585888
0.617507
0.648484
0.678936
0.708849
0.73831
0.767358
0.796075
0.824498
0.852689
0.88069
0.908539
0.936264
0.963893
0.991439
1.01891
1.04632
1.07367
1.10094
1.12814
1.15526
1.18228
1.20918
1.23596
1.2626
1.28907
1.31537
1.34148
1.36739
1.39308
1.41852
1.44367
1.46853
1.49308
1.51731
1.5412
1.56476
1.58795
1.61078
1.63323
1.65528
1.67691
1.6981
1.71884
1.7391
1.75887
1.77812
1.79685
1.81503
1.83265
1.84969
1.86614
1.88199
1.89723
1.91183
1.9258
1.93911
1.95176
1.96374
1.97502
1.98561
1.9955
2.00466
2.01309
2.02079
2.02774
2.03394
2.03937
2.04404
2.04793
2.05106
2.05343
2.05498
2.0558
2.05609
2.05574
2.05448
2.05247
2.04972
2.04624
2.04203
2.03713
2.03155
2.02533
2.01848
2.01104
2.00302
1.99446
1.98537
1.97579
1.96574
1.95525
1.94435
1.93305
1.92137
1.90936
1.89704
1.88446
1.87166
1.85867
1.84553
1.83229
1.81898
1.80561
1.79221
1.7788
1.76539
1.75203
1.73872
1.7255
1.7124
1.69942
1.68657
1.67383
1.66115
1.64838
1.63531
1.62032
1.59806
2.23512e-06
6.70595e-05
0.00050138
0.00196238
0.00546805
0.0106313
0.0156002
0.0197174
0.0227638
0.0247794
0.0259354
0.026435
0.0264137
0.0261505
0.0255799
0.0248439
0.024014
0.0231312
0.0222225
0.0213014
0.0203683
0.0194171
0.0184357
0.0174036
0.0162997
0.0151011
0.0137792
0.0123409
0.0108443
0.00938614
0.0080419
0.00647297
0.00680449
0.0105513
0.0229708
0.0434947
0.0625387
0.0779873
0.0898269
0.0999303
0.110176
0.121425
0.133635
0.146753
0.161415
0.178971
0.199505
0.222605
0.248495
0.276557
0.306935
0.338899
0.372374
0.406811
0.44189
0.477374
0.51312
0.548948
0.584661
0.620146
0.65534
0.690194
0.724669
0.758722
0.792393
0.825689
0.858652
0.891315
0.923725
0.955919
0.987939
1.01982
1.05159
1.08328
1.11491
1.14649
1.17802
1.20952
1.24097
1.27237
1.30371
1.33497
1.36613
1.39719
1.42811
1.45889
1.48949
1.5199
1.5501
1.5801
1.60984
1.6393
1.66845
1.69729
1.72578
1.75391
1.78167
1.80904
1.836
1.86254
1.88862
1.91422
1.93934
1.96393
1.98798
2.01148
2.03438
2.05668
2.07836
2.09939
2.11975
2.13944
2.15843
2.17671
2.19427
2.21108
2.22714
2.24244
2.25695
2.27068
2.2836
2.2957
2.30698
2.31742
2.32701
2.33574
2.34361
2.35059
2.3567
2.3619
2.36621
2.36962
2.37216
2.37372
2.37444
2.37458
2.37382
2.37207
2.36946
2.36599
2.36169
2.35656
2.35064
2.34394
2.3365
2.32834
2.31949
2.30998
2.29984
2.2891
2.27779
2.26594
2.25357
2.24073
2.22744
2.21372
2.19961
2.18515
2.17038
2.15535
2.1401
2.12467
2.10911
2.09344
2.07771
2.06194
2.04614
2.03035
2.01459
1.99889
1.9833
1.96784
1.95253
1.93741
1.92248
1.90772
1.89304
1.8783
1.86211
1.84055
7.0486e-06
0.000207681
0.00149645
0.0053417
0.0127592
0.0196194
0.024743
0.0280744
0.029954
0.0307938
0.0309115
0.0306457
0.0300069
0.0291269
0.0281247
0.0270614
0.0259845
0.0249234
0.0238966
0.0229084
0.0219534
0.0210198
0.0200909
0.0191423
0.0181471
0.0170877
0.0159342
0.0146526
0.0132001
0.0117605
0.0112416
0.0126253
0.019753
0.0368086
0.060871
0.0837989
0.102308
0.115803
0.125687
0.134327
0.143368
0.153618
0.166218
0.181998
0.200964
0.223278
0.248789
0.276878
0.307174
0.339093
0.372414
0.406762
0.441949
0.477733
0.513974
0.550576
0.587465
0.624546
0.661726
0.698919
0.736055
0.773079
0.809949
0.84663
0.883118
0.919408
0.955513
0.991449
1.02724
1.06291
1.09849
1.13401
1.16949
1.20494
1.24039
1.27583
1.31128
1.34673
1.38217
1.41759
1.45298
1.4883
1.52355
1.55869
1.5937
1.62856
1.66324
1.69772
1.73198
1.76599
1.79975
1.8332
1.86631
1.89906
1.93144
1.96342
1.99497
2.02609
2.05673
2.08688
2.11651
2.14559
2.17411
2.20202
2.22932
2.25596
2.28193
2.30721
2.33176
2.35557
2.37862
2.40088
2.42234
2.44298
2.46279
2.48174
2.49983
2.51704
2.53336
2.54877
2.56326
2.57682
2.58943
2.60109
2.61179
2.6215
2.63023
2.63797
2.6447
2.65041
2.6551
2.65878
2.66146
2.66303
2.66368
2.6636
2.66242
2.66021
2.65701
2.65286
2.64776
2.64175
2.63483
2.62705
2.61843
2.60901
2.5988
2.58786
2.5762
2.56386
2.55088
2.53728
2.52312
2.50841
2.49319
2.4775
2.46136
2.44483
2.42795
2.41076
2.39332
2.37568
2.35787
2.33994
2.32192
2.30384
2.28573
2.26761
2.24953
2.23151
2.21359
2.19583
2.17826
2.16092
2.14382
2.127
2.1104
2.09391
2.07635
2.05455
2.22931e-05
0.000620198
0.00410302
0.0130864
0.0225056
0.0288715
0.0325615
0.0344399
0.0351467
0.035079
0.0345614
0.0335851
0.0323887
0.0310727
0.0297192
0.0283859
0.0271137
0.0259231
0.0248224
0.0238054
0.0228591
0.0219638
0.021093
0.0202104
0.0192573
0.0181797
0.016978
0.0157501
0.0151082
0.0158751
0.0206929
0.0325685
0.0537644
0.0787403
0.102185
0.121084
0.134363
0.143352
0.150589
0.15821
0.168015
0.181259
0.198018
0.218379
0.242179
0.268984
0.298188
0.329141
0.361435
0.394763
0.428968
0.463904
0.499485
0.535632
0.572298
0.60945
0.647053
0.685045
0.723356
0.761919
0.800674
0.839562
0.878531
0.917539
0.956557
0.995564
1.03455
1.07352
1.11248
1.15144
1.19042
1.22943
1.26849
1.30761
1.3468
1.38607
1.4254
1.46479
1.50422
1.54367
1.58313
1.62256
1.66192
1.7012
1.74035
1.77935
1.81817
1.85678
1.89514
1.93325
1.97108
2.00856
2.04568
2.08239
2.11869
2.15454
2.18993
2.22481
2.25916
2.29295
2.32615
2.35874
2.39068
2.42194
2.4525
2.48233
2.51138
2.53965
2.5671
2.59371
2.61944
2.64429
2.66822
2.69123
2.71328
2.73437
2.75448
2.7736
2.79171
2.80879
2.82484
2.83983
2.85377
2.86663
2.87841
2.8891
2.89867
2.90713
2.91447
2.92067
2.92574
2.92967
2.93247
2.93405
2.93462
2.93425
2.9327
2.93001
2.92623
2.92139
2.9155
2.90859
2.90069
2.89183
2.88203
2.87134
2.85978
2.8474
2.83422
2.82029
2.80564
2.79031
2.77434
2.75777
2.74063
2.72297
2.70481
2.68621
2.66721
2.64788
2.62827
2.60841
2.58836
2.56817
2.54787
2.52749
2.50706
2.48662
2.4662
2.44585
2.42562
2.40554
2.38569
2.36609
2.3468
2.32786
2.30924
2.29087
2.2717
2.249
6.72614e-05
0.00172404
0.00984971
0.023053
0.0316088
0.0362804
0.0385828
0.0394167
0.0393076
0.0385964
0.0373534
0.0358307
0.0341632
0.0324575
0.0307983
0.0292404
0.027818
0.0265404
0.0254035
0.0243891
0.0234774
0.0226469
0.021895
0.0211986
0.0205889
0.0202118
0.0203692
0.0216771
0.0252179
0.0332022
0.0492449
0.0711802
0.0940669
0.115633
0.133313
0.145813
0.154224
0.160832
0.168435
0.178828
0.192742
0.210424
0.231705
0.256237
0.283476
0.312778
0.343547
0.37538
0.408072
0.441513
0.475656
0.510478
0.545965
0.582115
0.618931
0.6564
0.694497
0.733182
0.772411
0.812128
0.852277
0.892796
0.933632
0.974732
1.01606
1.05757
1.09925
1.14108
1.18306
1.22519
1.26746
1.30989
1.35248
1.39524
1.43816
1.48125
1.5245
1.56788
1.61137
1.65494
1.69855
1.74218
1.78577
1.82929
1.8727
1.91595
1.95902
2.00186
2.04444
2.08674
2.12873
2.17035
2.21155
2.25232
2.29262
2.33241
2.37168
2.4104
2.44852
2.48601
2.52285
2.559
2.59442
2.62908
2.66295
2.696
2.72818
2.75948
2.78986
2.81928
2.84773
2.87518
2.9016
2.92698
2.95129
2.97452
2.99664
3.01766
3.03755
3.05629
3.07387
3.09029
3.10553
3.11957
3.1324
3.14403
3.15442
3.16358
3.1715
3.17816
3.18356
3.18771
3.19061
3.19216
3.19262
3.19194
3.18999
3.1868
3.18242
3.17686
3.17016
3.16233
3.15342
3.14345
3.13245
3.12047
3.10753
3.09369
3.07898
3.06343
3.04709
3.03
3.0122
2.99374
2.97466
2.955
2.9348
2.9141
2.89298
2.87149
2.84967
2.82759
2.80529
2.78281
2.76021
2.73751
2.71474
2.69195
2.66918
2.64647
2.62388
2.60146
2.57928
2.55738
2.53584
2.51469
2.49395
2.47355
2.45253
2.42844
0.000178485
0.00417311
0.018976
0.0321322
0.0391417
0.0425632
0.043922
0.0439568
0.0431844
0.0417302
0.0398961
0.0378512
0.0357421
0.0336828
0.0317609
0.0300291
0.0285164
0.0272237
0.0261369
0.0252262
0.0244656
0.0238076
0.0232958
0.0229329
0.0230607
0.024274
0.0275491
0.0347545
0.0473369
0.0648448
0.0846596
0.104943
0.123615
0.139162
0.150821
0.159364
0.166753
0.175261
0.186478
0.201198
0.219526
0.241235
0.265855
0.292837
0.321591
0.351607
0.382528
0.414182
0.446509
0.479513
0.513214
0.547645
0.582844
0.618841
0.655652
0.693278
0.731718
0.770949
0.810939
0.851642
0.893009
0.93498
0.977501
1.02052
1.06398
1.10785
1.15208
1.19666
1.24157
1.28678
1.3323
1.37812
1.42424
1.47065
1.51736
1.56433
1.61157
1.65903
1.70668
1.75448
1.80239
1.85034
1.8983
1.9462
1.99399
2.04164
2.08908
2.13628
2.1832
2.22981
2.27607
2.32192
2.36732
2.41222
2.45659
2.50041
2.54364
2.58624
2.62819
2.66944
2.70995
2.7497
2.78864
2.82673
2.86394
2.90022
2.93555
2.96988
3.00319
3.03544
3.0666
3.09663
3.12553
3.15325
3.17979
3.20513
3.22924
3.25211
3.27374
3.2941
3.31317
3.33096
3.34744
3.3626
3.37644
3.38894
3.4001
3.4099
3.41833
3.42539
3.43107
3.43538
3.43831
3.43979
3.44007
3.43903
3.43663
3.43289
3.42785
3.42153
3.41396
3.40517
3.39519
3.38406
3.37182
3.35851
3.34416
3.32882
3.31253
3.29534
3.27728
3.2584
3.23875
3.21838
3.19732
3.17563
3.15335
3.13055
3.10728
3.0836
3.05957
3.03524
3.01066
2.98589
2.96096
2.93591
2.91078
2.88561
2.86045
2.83535
2.81038
2.78559
2.76104
2.7368
2.71294
2.68951
2.66654
2.64398
2.62095
2.5951
0.000406367
0.00863095
0.0284255
0.0402761
0.0459506
0.0484377
0.0490532
0.0484535
0.0469873
0.0449431
0.0425595
0.0400312
0.0375272
0.0351769
0.0330748
0.031275
0.029805
0.0286674
0.0278372
0.0273072
0.0271575
0.0274245
0.0283204
0.0301484
0.0334959
0.0394382
0.0491289
0.0620956
0.0776236
0.0946654
0.111743
0.127526
0.141024
0.152049
0.161158
0.169724
0.179437
0.191678
0.207105
0.225802
0.247477
0.271687
0.297924
0.325706
0.3546
0.384314
0.414681
0.445671
0.477305
0.509637
0.542731
0.576658
0.611469
0.647204
0.683905
0.721591
0.760273
0.799941
0.840578
0.882146
0.924606
0.967903
1.01199
1.0568
1.1023
1.14843
1.19514
1.24241
1.2902
1.33849
1.38725
1.43649
1.48618
1.53632
1.58688
1.63784
1.68917
1.74083
1.79278
1.84495
1.89728
1.94971
2.00218
2.0546
2.10693
2.1591
2.21105
2.26273
2.3141
2.36512
2.41576
2.46593
2.51559
2.5647
2.61321
2.66109
2.70831
2.75483
2.80062
2.84563
2.88983
2.93318
2.97562
3.01711
3.05763
3.09712
3.13555
3.17288
3.20907
3.24409
3.27789
3.31045
3.34175
3.37175
3.40044
3.42779
3.4538
3.47844
3.50171
3.52359
3.54406
3.56311
3.58074
3.59692
3.61166
3.62494
3.63675
3.64709
3.65593
3.66329
3.66915
3.67352
3.67638
3.67773
3.67772
3.67624
3.67331
3.66894
3.66317
3.65601
3.64751
3.63769
3.62659
3.61424
3.6007
3.586
3.57019
3.5533
3.5354
3.51652
3.49671
3.47601
3.45448
3.43216
3.4091
3.38536
3.36098
3.33604
3.3106
3.28472
3.25846
3.23187
3.205
3.17791
3.15064
3.12322
3.09571
3.06814
3.04058
3.01308
2.9857
2.9585
2.93156
2.90494
2.87871
2.85294
2.82765
2.80285
2.77768
2.75
0.000793741
0.0152828
0.0369082
0.0476345
0.0525124
0.0543634
0.0543943
0.0532023
0.0511725
0.0486038
0.0457568
0.0428554
0.0400912
0.0376111
0.0355171
0.0338724
0.03269
0.0320279
0.0318091
0.0320688
0.0330581
0.035131
0.0387182
0.044277
0.0521759
0.0623219
0.0742321
0.0876108
0.101791
0.115913
0.129173
0.141085
0.151612
0.16124
0.170963
0.181951
0.195172
0.21114
0.229894
0.25118
0.274604
0.299762
0.326259
0.353773
0.382046
0.410949
0.440435
0.470543
0.501334
0.532902
0.565329
0.59869
0.633055
0.668487
0.705036
0.742736
0.781613
0.821669
0.862898
0.905276
0.948772
0.993341
1.03894
1.08551
1.133
1.18136
1.23054
1.2805
1.3312
1.38261
1.43469
1.48742
1.54077
1.59473
1.64927
1.70433
1.7599
1.8159
1.87228
1.92897
1.98589
2.04294
2.10005
2.15713
2.21413
2.27095
2.32753
2.38381
2.43971
2.49522
2.55029
2.60482
2.65878
2.71211
2.76476
2.81669
2.86788
2.91828
2.96786
3.01658
3.06439
3.11124
3.15709
3.2019
3.24561
3.28819
3.3296
3.36979
3.40873
3.44638
3.48269
3.51762
3.55116
3.58328
3.61395
3.64316
3.6709
3.69714
3.72189
3.74512
3.76681
3.78697
3.80557
3.8226
3.83807
3.85197
3.86427
3.87499
3.88409
3.89159
3.89748
3.90176
3.90444
3.90552
3.90508
3.90307
3.89949
3.89439
3.88778
3.8797
3.87017
3.85924
3.84694
3.83331
3.8184
3.80226
3.78493
3.76646
3.7469
3.7263
3.70471
3.68217
3.65874
3.63446
3.60938
3.58356
3.55708
3.52999
3.50238
3.4743
3.44582
3.41698
3.38784
3.35844
3.32883
3.29905
3.26915
3.23918
3.20922
3.17932
3.14954
3.11994
3.0906
3.06158
3.03295
3.00479
2.97715
2.95004
2.92265
2.89309
0.00130859
0.0225321
0.0445934
0.0547345
0.0591432
0.0605413
0.0601512
0.0585057
0.0560356
0.0530896
0.0499711
0.0469355
0.0441942
0.0419168
0.0402185
0.0392396
0.0389241
0.0392477
0.0403929
0.042499
0.0457806
0.0503951
0.056516
0.0642105
0.0733898
0.0837945
0.0950571
0.106759
0.11847
0.129811
0.140591
0.150855
0.161019
0.171757
0.183829
0.197837
0.214096
0.232623
0.253218
0.275586
0.299405
0.324396
0.350303
0.376952
0.404218
0.432075
0.460536
0.489682
0.519602
0.550395
0.582152
0.614968
0.648922
0.684086
0.720526
0.758285
0.797402
0.837888
0.879753
0.922983
0.967558
1.01344
1.0606
1.10896
1.1585
1.20915
1.26086
1.31358
1.36726
1.42187
1.47737
1.53371
1.59087
1.64881
1.70748
1.76683
1.82679
1.88731
1.9483
2.00967
2.0713
2.13311
2.19499
2.25685
2.31861
2.38017
2.44146
2.50238
2.56286
2.62287
2.68234
2.74121
2.79941
2.85688
2.91357
2.96946
3.02449
3.07864
3.13186
3.18411
3.23535
3.28552
3.33458
3.38247
3.42916
3.47459
3.51873
3.56154
3.60298
3.64299
3.68155
3.7186
3.75412
3.78807
3.82045
3.85125
3.88045
3.90803
3.93399
3.95831
3.98097
4.00196
4.02128
4.03892
4.05487
4.06914
4.0817
4.09257
4.10172
4.10915
4.11486
4.11886
4.12116
4.12178
4.12077
4.11807
4.11371
4.10774
4.10017
4.09105
4.08039
4.06826
4.05467
4.03969
4.02335
4.0057
3.9868
3.9667
3.94545
3.92311
3.89973
3.87534
3.85001
3.82377
3.79667
3.7688
3.74022
3.71102
3.68127
3.65102
3.62035
3.5893
3.55792
3.52625
3.49434
3.46222
3.42998
3.39766
3.36533
3.33307
3.30092
3.26896
3.23724
3.20583
3.17482
3.14427
3.11425
3.08481
3.05519
3.02368
0.00191709
0.0293452
0.0520775
0.0620452
0.0661395
0.0672192
0.066482
0.0644826
0.0617173
0.0586081
0.0555129
0.0527088
0.0504023
0.0487874
0.0480459
0.0479607
0.0487541
0.0504625
0.0531311
0.0568218
0.0616009
0.0674894
0.0744762
0.0824571
0.0912674
0.100689
0.110501
0.120503
0.130578
0.140673
0.150919
0.161597
0.173151
0.185999
0.200478
0.216741
0.234784
0.25446
0.275559
0.297866
0.321171
0.34532
0.370176
0.395677
0.42178
0.448524
0.475963
0.504196
0.533314
0.563435
0.594654
0.62707
0.660776
0.695855
0.732378
0.770399
0.809957
0.851077
0.893778
0.938053
0.983891
1.03126
1.08012
1.13043
1.18214
1.2352
1.28957
1.34519
1.40201
1.45998
1.51907
1.57921
1.64037
1.70249
1.76551
1.82934
1.8939
1.95911
2.02486
2.09102
2.15748
2.22412
2.29082
2.35749
2.42404
2.49037
2.55636
2.62191
2.68691
2.75132
2.81508
2.87812
2.94037
3.00179
3.06232
3.12192
3.18054
3.23815
3.29472
3.35019
3.40453
3.45767
3.50957
3.56018
3.60945
3.65734
3.70382
3.74884
3.79236
3.83434
3.87473
3.91349
3.95058
3.98596
4.01965
4.05163
4.08189
4.11042
4.13721
4.16223
4.18547
4.20694
4.22661
4.2445
4.2606
4.2749
4.2874
4.29811
4.30701
4.3141
4.31936
4.32283
4.32451
4.32444
4.32268
4.31908
4.31376
4.30676
4.29809
4.28778
4.27589
4.26244
4.24748
4.23106
4.21322
4.19402
4.17351
4.15175
4.1288
4.1047
4.07953
4.05332
4.02612
3.99795
3.96887
3.93898
3.90837
3.87711
3.84528
3.81295
3.78016
3.74698
3.71344
3.67958
3.64543
3.61106
3.57654
3.54195
3.50734
3.4728
3.43836
3.4041
3.37007
3.33634
3.30299
3.2701
3.23774
3.206
3.17415
3.14074
0.00274065
0.03491
0.0591098
0.0693243
0.0733499
0.0742569
0.0732405
0.0709766
0.0680531
0.0649807
0.0622049
0.0600026
0.0585318
0.0579127
0.057914
0.0588786
0.0607475
0.0634901
0.0671107
0.0716054
0.0769493
0.0830915
0.0899707
0.097492
0.105574
0.114125
0.123099
0.132458
0.142261
0.152614
0.163724
0.175801
0.189076
0.203674
0.219664
0.237004
0.255598
0.275311
0.296001
0.317552
0.339856
0.362856
0.386507
0.410824
0.435822
0.461582
0.488178
0.515725
0.544322
0.574076
0.60509
0.637474
0.671319
0.706715
0.743738
0.782446
0.822889
0.865093
0.909077
0.954837
1.00236
1.05161
1.10255
1.15513
1.20931
1.26505
1.3223
1.38101
1.44115
1.50267
1.56551
1.62964
1.69497
1.76145
1.82896
1.89744
1.96673
2.03675
2.10732
2.17833
2.2496
2.32103
2.3925
2.46391
2.53516
2.60615
2.67671
2.74673
2.81608
2.88467
2.95243
3.0193
3.08526
3.15024
3.2142
3.27709
3.33885
3.39946
3.45887
3.51704
3.57393
3.62949
3.68367
3.73641
3.78768
3.83743
3.88564
3.93227
3.97727
4.0206
4.06223
4.10211
4.14019
4.17646
4.21092
4.24356
4.27435
4.3033
4.33038
4.35559
4.37891
4.40035
4.41989
4.43754
4.4533
4.46719
4.47919
4.48932
4.49756
4.50393
4.50841
4.51103
4.51181
4.51083
4.508
4.50329
4.4968
4.48858
4.47864
4.46702
4.45375
4.43888
4.42245
4.40451
4.38512
4.36432
4.34218
4.31874
4.29408
4.26825
4.24131
4.21331
4.18431
4.15428
4.1233
4.0915
4.05896
4.02576
3.99197
3.95766
3.92287
3.88767
3.8521
3.81618
3.77992
3.74342
3.70676
3.67003
3.63328
3.59658
3.55999
3.52355
3.48733
3.45137
3.41578
3.38064
3.34604
3.31207
3.27808
3.24288
0.00358951
0.0410029
0.0662997
0.0767221
0.0806876
0.0814509
0.0801199
0.0774925
0.0744627
0.0716894
0.0695414
0.0682374
0.0677359
0.0677547
0.0686602
0.0704276
0.0729979
0.0763311
0.0803934
0.0851582
0.0905903
0.0966602
0.103344
0.110615
0.118474
0.126909
0.135967
0.145687
0.156184
0.167539
0.179866
0.193221
0.207657
0.223153
0.239671
0.257134
0.275463
0.294587
0.314439
0.334994
0.356223
0.378152
0.400793
0.42421
0.448462
0.473659
0.499868
0.527212
0.55581
0.585782
0.617251
0.650309
0.685079
0.721629
0.760052
0.800384
0.842675
0.886925
0.933139
0.981295
1.03135
1.08326
1.13695
1.19236
1.24945
1.30818
1.3685
1.43043
1.49393
1.55898
1.62554
1.69359
1.76306
1.83385
1.90585
1.97889
2.05287
2.12759
2.20291
2.27857
2.35444
2.43042
2.50641
2.5823
2.65798
2.73329
2.8081
2.88219
2.95545
3.02775
3.09903
3.16927
3.23846
3.3065
3.37334
3.4389
3.50315
3.56605
3.62758
3.6877
3.74637
3.80355
3.85918
3.91324
3.96567
4.01646
4.06556
4.11296
4.15862
4.20249
4.24454
4.28473
4.32303
4.35945
4.39394
4.4265
4.45711
4.48576
4.51244
4.53714
4.55987
4.58061
4.59937
4.61617
4.631
4.6439
4.65485
4.66387
4.67096
4.67613
4.67942
4.68082
4.68039
4.67814
4.67389
4.6678
4.65991
4.65024
4.63883
4.62571
4.61092
4.5945
4.5765
4.55696
4.53594
4.5135
4.48968
4.46455
4.43817
4.4106
4.38191
4.35216
4.32139
4.28961
4.25689
4.22334
4.18904
4.15406
4.11848
4.08234
4.04573
4.00868
3.97125
3.93346
3.89527
3.85683
3.81823
3.77955
3.74085
3.70219
3.66361
3.62519
3.58693
3.54892
3.51125
3.47403
3.43732
3.40128
3.36526
3.32847
0.00450321
0.0469688
0.073411
0.0840875
0.088012
0.0885956
0.0868914
0.0840769
0.081261
0.0790379
0.0777141
0.0772131
0.0772275
0.0779963
0.0795325
0.0818356
0.0848412
0.0885237
0.0928415
0.0978003
0.103386
0.10961
0.116481
0.124022
0.132271
0.141259
0.151053
0.161671
0.173186
0.18558
0.198894
0.213061
0.228083
0.243864
0.260384
0.277561
0.295383
0.313829
0.332912
0.352673
0.373145
0.394418
0.416543
0.439674
0.463925
0.489358
0.515965
0.544028
0.57369
0.605102
0.638353
0.673587
0.710869
0.750291
0.79188
0.835652
0.881592
0.929629
0.97972
1.03176
1.08569
1.14135
1.19867
1.25755
1.31795
1.37983
1.44313
1.508
1.57454
1.64272
1.71257
1.78416
1.85741
1.93219
2.00833
2.08566
2.16402
2.24313
2.32274
2.40254
2.48254
2.56258
2.64269
2.72266
2.80235
2.88151
2.95994
3.0375
3.11396
3.18927
3.26345
3.33646
3.40816
3.47845
3.54724
3.61448
3.68015
3.74423
3.80671
3.86759
3.92683
3.9844
4.04027
4.0944
4.14677
4.19736
4.24615
4.29312
4.33825
4.3815
4.42282
4.46219
4.49957
4.53497
4.56836
4.59974
4.62911
4.65644
4.68175
4.70502
4.72627
4.74548
4.76268
4.77787
4.79108
4.80232
4.81161
4.81895
4.82435
4.82784
4.82943
4.82919
4.82719
4.8231
4.81715
4.80937
4.79979
4.78845
4.77537
4.76059
4.74414
4.72606
4.70641
4.68522
4.66255
4.63845
4.61298
4.5862
4.55816
4.52894
4.49858
4.46716
4.43472
4.40135
4.36709
4.332
4.29614
4.25958
4.22238