/*--------------------------------*- C++ -*----------------------------------*\
  =========                 |
  \\      /  F ield         | OpenFOAM: The Open Source CFD Toolbox
   \\    /   O peration     | Website:  https://openfoam.org
    \\  /    A nd           | Version:  13
     \\/     M anipulation  |
\*---------------------------------------------------------------------------*/
FoamFile
{
    format      ascii;
    class       volScalarField;
    location    "1700";
    object      nut;
}
// * * * * * * * * * * * * * * * * * * * * * * * * * * * * * * * * * * * * * //

dimensions      [0 2 -1 0 0 0 0];

internalField   nonuniform List<scalar> 
12225
(
6.52808e-06
1.29148e-05
1.64338e-05
1.73882e-05
1.74676e-05
2.58076e-05
2.88112e-05
3.62777e-05
3.98057e-05
3.337e-05
3.49465e-05
3.77915e-05
3.36119e-05
2.76046e-05
3.13668e-05
3.30971e-05
2.68411e-05
2.03293e-05
4.73153e-05
1.68066e-05
1.50786e-05
1.79762e-05
1.60433e-05
1.92693e-05
1.73019e-05
2.17517e-05
2.41042e-05
2.52707e-05
2.84269e-05
2.86537e-05
3.25454e-05
3.27019e-05
3.44288e-05
3.53371e-05
3.71816e-05
3.82908e-05
0.00098151
7.77269e-05
1.40787e-05
1.54615e-05
5.69418e-06
4.5033e-06
3.5325e-06
4.56419e-06
5.07027e-06
5.86422e-06
7.34385e-06
8.8844e-06
1.04696e-05
1.20181e-05
1.34929e-05
1.39799e-05
1.4694e-05
1.66981e-05
0.00261424
0.000792118
0.000168361
0.000116584
8.99085e-05
5.98662e-05
2.30318e-05
2.43254e-05
1.562e-05
1.18363e-05
1.01438e-05
9.096e-06
8.32084e-06
7.62261e-06
7.07654e-06
6.63852e-06
6.72125e-06
6.62773e-06
0.0016944
0.000772277
0.000432931
0.000320555
0.000243796
0.000183246
0.000139612
0.000133654
0.000105635
7.09191e-05
4.56938e-05
4.26354e-05
3.55634e-05
3.01279e-05
2.65541e-05
2.37681e-05
2.19604e-05
2.07044e-05
0.000980927
0.000765937
0.000588831
0.000482885
0.000400791
0.00033283
0.000262021
0.000205162
0.000151595
0.000149726
0.000129777
0.000112201
0.000100331
9.10163e-05
8.54684e-05
8.00834e-05
7.73259e-05
7.52688e-05
0.000874853
0.000859962
0.000758593
0.000585933
0.000445074
0.000468121
0.000426613
0.000347045
0.000290452
0.000253206
0.000250741
0.000235849
0.000216505
0.00021076
0.000202716
0.000188232
0.000173408
0.000173316
0.000855093
0.000855992
0.000851966
0.000767727
0.000664921
0.00058344
0.000533824
0.000492344
0.000449495
0.0004153
0.000389525
0.000371001
0.000352626
0.000341619
0.000308639
0.000313999
0.000307888
0.000299673
0.000851975
0.00085178
0.000855512
0.000834515
0.00078123
0.000725377
0.000681951
0.000648477
0.000616116
0.000582435
0.000554142
0.000526559
0.000505688
0.00048534
0.000468389
0.00044308
0.00044887
0.000439874
0.000851902
0.000850264
0.000852983
0.000850543
0.00083513
0.00080795
0.000782981
0.000761429
0.000741461
0.000719239
0.000697959
0.000676479
0.00065666
0.000639874
0.000621881
0.000609478
0.000591298
0.00058623
0.000851837
0.000850054
0.000850663
0.0008525
0.000848196
0.000839688
0.000829332
0.000819365
0.000809695
0.000798247
0.000786699
0.000774136
0.00076229
0.000750688
0.000740085
0.000730042
0.000720008
0.000711597
0.000851769
0.000850331
0.000849945
0.00084976
0.00084898
0.000846616
0.000842713
0.000840475
0.000835782
0.000830202
0.000824508
0.00081797
0.000811912
0.000805355
0.000799841
0.000793726
0.000788551
0.000782692
0.000851602
0.000850627
0.000849835
0.000849175
0.000848596
0.000847671
0.000846454
0.000845143
0.000843598
0.000841571
0.000839357
0.00083661
0.00083399
0.000831032
0.000828475
0.000825588
0.000823444
0.000820059
0.000851549
0.000850676
0.000849861
0.000849085
0.000848385
0.000847674
0.000846982
0.000846242
0.00084552
0.000844634
0.000843778
0.000842673
0.000841695
0.000840477
0.000839519
0.000838256
0.000837412
0.000836091
0.000851541
0.000850674
0.000849863
0.000849078
0.00084835
0.000847639
0.000846985
0.000846331
0.000845734
0.000845105
0.000844531
0.000843903
0.000843336
0.000842716
0.000842174
0.000841581
0.000841074
0.000840513
0.000851539
0.000850673
0.000849856
0.000849074
0.000848337
0.000847628
0.000846961
0.000846318
0.000845714
0.000845126
0.000844572
0.000844031
0.000843518
0.000843018
0.000842544
0.000842084
0.000841648
0.000841224
0.000851537
0.000850673
0.000849852
0.00084907
0.000848328
0.00084762
0.000846948
0.000846305
0.000845694
0.000845109
0.000844551
0.000844017
0.000843507
0.000843017
0.00084255
0.000842102
0.000841674
0.000841263
0.000851539
0.000850678
0.000849858
0.000849078
0.000848335
0.000847628
0.000846955
0.000846312
0.000845699
0.000845114
0.000844554
0.000844019
0.000843507
0.000843018
0.000842549
0.0008421
0.00084167
0.00084126
0.000851537
0.000850674
0.000849851
0.000849069
0.000848325
0.000847616
0.000846941
0.000846297
0.000845682
0.000845094
0.000844532
0.000843995
0.000843479
0.000842988
0.000842516
0.000842066
0.000841634
0.000841222
0.000851535
0.000850675
0.00084985
0.000849067
0.000848324
0.00084762
0.000846945
0.000846298
0.000845668
0.000845065
0.000844473
0.000843916
0.000843371
0.000842865
0.000842369
0.000841918
0.000841466
0.000841061
0.000851497
0.000850695
0.000849814
0.000849003
0.00084832
0.000847613
0.00084693
0.000846074
0.000845271
0.000844354
0.000843384
0.000842509
0.000841599
0.000840874
0.000840106
0.000839641
0.000838975
0.000838651
0.000850801
0.000851274
0.000848732
0.000848098
0.000847827
0.000846669
0.000845676
0.000841562
0.000841623
0.000837516
0.000833679
0.000829732
0.000825591
0.000821967
0.000818777
0.000817932
0.000814556
0.000814568
0.000844006
0.000857017
0.000837745
0.000840446
0.000834759
0.000833588
0.000827903
0.000813751
0.000796743
0.000777048
0.000758357
0.000741314
0.000727971
0.000715412
0.000706411
0.000697709
0.000690618
0.000688055
0.000786061
0.000916347
0.000777449
0.000773151
0.000760484
0.000759892
0.000744844
0.000701835
0.000655286
0.000607948
0.000569248
0.000535887
0.000510325
0.000490321
0.000469814
0.00046408
0.000455068
0.000448546
0.000607333
0.00135847
0.000614295
0.000569372
0.000623631
0.000538603
0.00053608
0.000499535
0.000481209
0.000457187
0.000423116
0.000318104
0.000350989
0.000322793
0.000263245
0.00024328
0.000222715
0.000200934
0.000310906
0.00772428
0.000353217
0.000238605
0.000264915
0.000205623
0.000227749
0.000187857
0.000171393
0.000160401
0.000124137
0.000119311
0.000111212
0.000102601
9.91012e-05
9.52172e-05
7.76838e-05
6.18995e-05
0.000260163
6.42387e-05
3.85826e-05
2.96917e-05
2.93776e-05
3.15989e-05
3.29269e-05
3.01833e-05
2.70948e-05
2.20983e-05
1.99175e-05
1.75764e-05
1.65847e-05
1.61423e-05
1.58414e-05
1.55291e-05
1.60729e-05
1.59204e-05
9.17956e-05
3.54131e-05
2.233e-05
1.22178e-05
1.24956e-05
8.43107e-06
1.08982e-05
6.7729e-06
7.24454e-06
4.85505e-06
4.23349e-06
3.93563e-06
4.05573e-06
4.39497e-06
4.79818e-06
5.0568e-06
5.8145e-06
6.93134e-06
1.55833e-05
1.17318e-05
1.32318e-05
1.15464e-05
6.74504e-06
6.58328e-06
6.66641e-06
7.35031e-06
1.09332e-05
1.03796e-05
1.12876e-05
1.44652e-05
1.82804e-05
2.18401e-05
2.54518e-05
2.8888e-05
3.09088e-05
3.30517e-05
1.04901e-05
1.53346e-05
1.87659e-05
2.08464e-05
2.17784e-05
2.19795e-05
2.19672e-05
2.16341e-05
2.12018e-05
2.07229e-05
2.02305e-05
1.9772e-05
1.93484e-05
1.89842e-05
1.86495e-05
1.83838e-05
1.81483e-05
1.79676e-05
1.16867e-12
1.32072e-10
6.84618e-10
2.74695e-09
9.32913e-09
2.83717e-08
7.84366e-08
1.63983e-07
2.75838e-07
3.97876e-07
5.1191e-07
6.03554e-07
6.68521e-07
7.02421e-07
6.99187e-07
6.75903e-07
6.32857e-07
5.58021e-07
4.72898e-07
4.04473e-07
3.40442e-07
2.78786e-07
2.17904e-07
1.61134e-07
1.08812e-07
6.61451e-08
3.61786e-08
1.84251e-08
9.25019e-09
4.82304e-09
2.71578e-09
1.73971e-09
1.45656e-09
2.29182e-09
5.29755e-09
1.42811e-08
7.4757e-08
1.78855e-07
3.54802e-07
4.96807e-07
5.13707e-07
4.66752e-07
3.73042e-07
2.97162e-07
2.72766e-07
2.99052e-07
3.51741e-07
5.31357e-07
8.43826e-07
1.92354e-06
4.95696e-06
1.40036e-05
2.73897e-05
4.01955e-05
4.85257e-05
4.82164e-05
3.42659e-05
3.49352e-05
4.13741e-05
4.22712e-05
3.66455e-05
3.45675e-05
3.51535e-05
3.65088e-05
3.11885e-05
3.33177e-05
3.36703e-05
3.42718e-05
3.49151e-05
3.54512e-05
3.60509e-05
3.65875e-05
3.71493e-05
3.76791e-05
3.82158e-05
3.87356e-05
3.92542e-05
3.97648e-05
4.02703e-05
4.07731e-05
4.12688e-05
4.17654e-05
4.22547e-05
4.27469e-05
4.32317e-05
4.372e-05
4.42023e-05
4.4689e-05
4.51731e-05
4.56613e-05
4.61474e-05
4.6632e-05
4.7113e-05
4.7593e-05
4.80701e-05
4.85457e-05
4.90182e-05
4.9489e-05
4.99577e-05
5.0427e-05
5.08999e-05
5.13834e-05
5.18741e-05
5.23653e-05
5.28627e-05
5.33653e-05
5.38746e-05
5.43902e-05
5.49131e-05
5.54431e-05
5.59816e-05
5.65282e-05
5.70845e-05
5.76504e-05
5.82275e-05
5.88159e-05
5.94173e-05
6.00321e-05
6.0662e-05
6.13076e-05
6.19705e-05
6.26519e-05
6.33537e-05
6.40774e-05
6.48253e-05
6.55994e-05
6.64029e-05
6.72387e-05
6.81115e-05
6.90246e-05
6.9994e-05
7.09423e-05
7.2022e-05
7.30329e-05
7.41915e-05
7.53813e-05
7.66568e-05
7.79915e-05
7.79922e-05
7.77336e-05
7.74568e-05
7.71677e-05
7.68649e-05
7.65504e-05
7.62238e-05
7.58869e-05
7.55397e-05
7.51835e-05
7.48174e-05
7.4444e-05
7.40612e-05
7.3672e-05
7.32747e-05
7.28713e-05
7.2461e-05
7.20454e-05
7.16244e-05
7.12003e-05
7.07723e-05
7.03451e-05
6.99154e-05
6.9489e-05
6.90614e-05
6.86387e-05
6.8216e-05
6.77987e-05
6.73823e-05
6.69724e-05
6.65644e-05
6.61637e-05
6.5766e-05
6.53756e-05
6.49876e-05
6.46033e-05
6.42152e-05
6.38183e-05
6.33993e-05
6.29318e-05
6.23582e-05
6.08139e-05
5.58259e-12
9.14239e-10
1.23894e-08
6.51305e-08
2.87755e-07
9.91058e-07
2.4283e-06
4.59292e-06
7.28665e-06
1.03879e-05
1.35928e-05
1.66137e-05
1.9265e-05
2.12609e-05
2.2671e-05
2.29955e-05
2.30081e-05
2.19558e-05
2.04138e-05
1.73617e-05
1.37838e-05
1.03765e-05
7.44821e-06
5.17399e-06
3.32624e-06
2.07728e-06
1.26021e-06
7.81097e-07
4.80742e-07
3.02615e-07
2.0637e-07
1.563e-07
1.48976e-07
1.88722e-07
3.80428e-07
7.7553e-07
4.4196e-06
1.01208e-05
1.83043e-05
2.36594e-05
2.50005e-05
2.33322e-05
2.03306e-05
1.66596e-05
1.54351e-05
1.62227e-05
1.66026e-05
1.86262e-05
2.46562e-05
3.52484e-05
4.52686e-05
5.64113e-05
6.65061e-05
7.63956e-05
8.57565e-05
9.50559e-05
0.000102287
0.000115534
0.000128382
0.000143631
0.00015431
0.000167028
0.000180806
0.000195501
0.000204111
0.000216756
0.000228035
0.000238955
0.000249538
0.000259885
0.000269791
0.000279485
0.000288888
0.000298103
0.000307117
0.000315981
0.000324698
0.000333295
0.000341777
0.00035016
0.000358443
0.000366638
0.000374742
0.000382765
0.000390697
0.000398549
0.000406307
0.000413984
0.00042157
0.000429073
0.000436489
0.000443808
0.000451015
0.000458107
0.000465066
0.000471885
0.000478532
0.000484981
0.000491173
0.000497036
0.000502454
0.000507288
0.000511786
0.000516253
0.000520556
0.000524764
0.000528841
0.000532802
0.000536638
0.00054035
0.000543934
0.000547389
0.000550713
0.000553903
0.000556959
0.000559878
0.000562658
0.000565298
0.000567796
0.000570149
0.000572353
0.000574406
0.000576306
0.000578049
0.000579632
0.000581052
0.000582306
0.00058339
0.000584301
0.000585045
0.000585662
0.000586063
0.000586418
0.00058647
0.000586407
0.000586197
0.000585885
0.000585659
0.000585509
0.000585271
0.000584865
0.000584296
0.000583567
0.000582688
0.000581659
0.000580484
0.000579183
0.000577755
0.000576211
0.000574542
0.000572757
0.000570875
0.000568858
0.000566773
0.000564542
0.000562254
0.000559838
0.000557364
0.000554795
0.000552172
0.000549485
0.000546753
0.000543975
0.000541169
0.000538323
0.000535456
0.000532557
0.000529642
0.0005267
0.000523753
0.000520782
0.000517807
0.000514809
0.00051176
0.000508605
0.000505274
0.000501626
0.000497375
0.000491781
0.000475981
1.41991e-11
2.38423e-09
4.57169e-08
2.8351e-07
1.12181e-06
2.58861e-06
5.70274e-06
1.00548e-05
1.55153e-05
2.18237e-05
2.86258e-05
3.54668e-05
4.17572e-05
4.71264e-05
5.14307e-05
5.42137e-05
5.6026e-05
5.66814e-05
5.58703e-05
5.32529e-05
4.94536e-05
4.37556e-05
3.68235e-05
2.95473e-05
2.27151e-05
1.66676e-05
1.15417e-05
7.76497e-06
4.96955e-06
3.17922e-06
2.12088e-06
1.52587e-06
1.32274e-06
1.04273e-06
2.62212e-06
5.70467e-06
2.12373e-05
4.31613e-05
6.03792e-05
6.87455e-05
6.64992e-05
5.40642e-05
4.23951e-05
3.95809e-05
4.49751e-05
5.17605e-05
6.0373e-05
7.27083e-05
8.43956e-05
9.65384e-05
0.000111994
0.000129907
0.000150121
0.000173622
0.0001993
0.000226376
0.000254419
0.00028597
0.000316736
0.000348109
0.000377634
0.000405492
0.000432665
0.00045976
0.000483622
0.000507537
0.000530455
0.000552092
0.00057325
0.000593709
0.000613539
0.000632919
0.000651843
0.00067042
0.000688669
0.000706643
0.000724361
0.000741852
0.000759129
0.000776203
0.000793079
0.000809765
0.00082626
0.000842565
0.000858677
0.000874593
0.000890307
0.000905818
0.000921119
0.000936209
0.000951079
0.000965705
0.000980067
0.000994147
0.00100792
0.00102137
0.00103446
0.00104715
0.00105939
0.00107116
0.00108244
0.00109328
0.00110386
0.00111422
0.0011243
0.00113414
0.00114371
0.00115302
0.00116205
0.00117081
0.0011793
0.00118749
0.00119541
0.00120303
0.00121036
0.00121739
0.00122413
0.00123056
0.00123668
0.0012425
0.00124799
0.00125317
0.00125802
0.00126253
0.00126671
0.00127055
0.00127403
0.00127717
0.00127995
0.00128237
0.00128444
0.00128613
0.00128753
0.00128849
0.00128916
0.0012895
0.00128994
0.00128994
0.0012897
0.00128913
0.0012882
0.0012869
0.00128526
0.00128327
0.00128095
0.00127832
0.0012754
0.00127219
0.00126871
0.00126495
0.00126094
0.0012567
0.00125219
0.00124749
0.00124252
0.00123739
0.00123201
0.00122648
0.00122076
0.00121492
0.00120894
0.00120287
0.0011967
0.00119047
0.00118417
0.00117781
0.00117141
0.00116497
0.00115849
0.001152
0.00114548
0.00113895
0.00113238
0.00112571
0.00111884
0.0011116
0.00110369
0.00109438
0.00108183
0.00105324
5.74046e-11
9.75808e-09
1.61432e-07
6.92367e-07
2.25746e-06
6.1218e-06
1.24548e-05
2.09908e-05
3.12737e-05
4.23045e-05
5.31516e-05
6.32868e-05
7.21538e-05
7.93284e-05
8.46833e-05
8.85656e-05
9.04951e-05
9.08844e-05
8.98742e-05
8.74366e-05
8.33916e-05
7.80225e-05
7.1532e-05
6.31832e-05
5.36933e-05
4.38808e-05
3.4362e-05
2.61769e-05
1.94514e-05
1.43465e-05
1.02982e-05
7.92007e-06
6.16898e-06
7.15043e-06
1.25095e-05
2.91974e-05
5.461e-05
7.3652e-05
8.50504e-05
8.10872e-05
7.56493e-05
7.38271e-05
7.61168e-05
8.27488e-05
9.28543e-05
0.000107119
0.000117915
0.00013434
0.00015743
0.000180845
0.000211773
0.000245177
0.0002832
0.000324216
0.000367294
0.00041122
0.000455435
0.000500042
0.00054341
0.000586109
0.000626883
0.000665654
0.000702848
0.000738936
0.000773367
0.00080644
0.000838478
0.000869359
0.000899456
0.000928756
0.000957379
0.000985439
0.00101299
0.0010401
0.00106681
0.00109318
0.00111921
0.00114493
0.00117036
0.00119549
0.00122034
0.0012449
0.00126917
0.00129314
0.0013168
0.00134016
0.0013632
0.0013859
0.00140827
0.00143029
0.00145196
0.00147324
0.00149412
0.00151456
0.00153456
0.00155409
0.00157314
0.00159168
0.00160971
0.00162722
0.00164424
0.00166084
0.00167706
0.0016929
0.00170835
0.00172341
0.00173806
0.0017523
0.00176613
0.00177954
0.00179252
0.00180507
0.00181719
0.00182887
0.00184011
0.0018509
0.00186124
0.00187112
0.00188055
0.00188951
0.001898
0.00190602
0.00191355
0.00192059
0.00192714
0.00193319
0.00193874
0.00194377
0.00194829
0.00195228
0.00195573
0.00195861
0.00196104
0.00196288
0.00196429
0.00196534
0.00196617
0.00196637
0.0019661
0.00196534
0.00196406
0.00196225
0.00195994
0.00195713
0.00195385
0.00195011
0.00194593
0.00194132
0.00193631
0.0019309
0.00192511
0.00191897
0.00191246
0.00190563
0.00189844
0.00189096
0.00188316
0.00187511
0.0018668
0.00185828
0.00184957
0.00184071
0.00183171
0.00182261
0.00181341
0.00180412
0.00179476
0.00178535
0.00177588
0.00176639
0.00175687
0.00174733
0.00173774
0.00172802
0.00171807
0.00170765
0.00169635
0.00168312
0.00166562
0.00163191
1.94981e-10
2.99004e-08
3.62859e-07
1.69684e-06
5.85225e-06
1.44386e-05
2.71783e-05
4.28074e-05
5.95564e-05
7.58901e-05
9.04909e-05
0.000102597
0.000111651
0.000118398
0.000122375
0.000124171
0.000124233
0.000122883
0.000120345
0.000116748
0.000111816
0.00010605
9.94625e-05
9.12876e-05
8.17685e-05
7.11344e-05
5.97415e-05
4.87193e-05
3.89924e-05
3.10867e-05
2.50184e-05
1.96051e-05
1.91075e-05
2.59878e-05
4.51331e-05
7.15636e-05
8.79733e-05
9.52353e-05
9.76634e-05
9.92324e-05
0.000103116
0.000110743
0.000122729
0.000135785
0.000147425
0.000165757
0.000193638
0.000222847
0.000260414
0.000300646
0.000347521
0.000396174
0.000448476
0.00050206
0.000556364
0.000610468
0.000664025
0.000716786
0.000768181
0.000818034
0.000865918
0.000912358
0.000957369
0.00100079
0.00104272
0.00108334
0.00112283
0.00116127
0.00119884
0.0012356
0.00127166
0.0013071
0.00134198
0.00137637
0.0014103
0.0014438
0.0014769
0.0015096
0.00154191
0.00157384
0.00160538
0.00163653
0.00166727
0.00169761
0.00172752
0.00175701
0.00178605
0.00181464
0.00184277
0.00187043
0.00189761
0.00192428
0.00195044
0.00197605
0.00200111
0.00202561
0.00204955
0.00207291
0.00209571
0.00211796
0.00213968
0.00216089
0.00218161
0.00220182
0.00222152
0.0022407
0.00225936
0.00227749
0.00229507
0.00231212
0.00232861
0.00234454
0.00235992
0.00237474
0.00238899
0.00240267
0.00241578
0.00242831
0.00244026
0.00245163
0.00246241
0.0024726
0.00248219
0.00249117
0.00249954
0.0025073
0.00251444
0.00252096
0.00252685
0.00253211
0.0025367
0.00254049
0.00254381
0.0025464
0.00254843
0.00255015
0.0025513
0.00255175
0.00255158
0.0025508
0.00254938
0.00254734
0.00254468
0.00254144
0.00253761
0.00253323
0.00252832
0.00252287
0.00251692
0.00251048
0.00250358
0.00249623
0.00248844
0.00248023
0.00247161
0.00246261
0.00245322
0.0024435
0.00243347
0.00242316
0.00241262
0.00240187
0.00239094
0.00237986
0.00236865
0.00235733
0.0023459
0.00233439
0.00232282
0.00231119
0.00229953
0.00228781
0.00227603
0.00226413
0.00225198
0.00223937
0.00222587
0.00221034
0.00219024
0.00215651
6.14887e-10
7.4275e-08
8.85287e-07
4.43942e-06
1.49938e-05
3.24088e-05
5.39187e-05
7.64913e-05
9.69094e-05
0.000113033
0.000125285
0.000134776
0.000141477
0.000145859
0.000148259
0.000148906
0.000148025
0.000145808
0.000142471
0.000138116
0.000132626
0.000126451
0.000119468
0.000111197
0.000101757
9.12442e-05
7.70893e-05
6.23107e-05
4.86245e-05
3.75759e-05
3.18004e-05
3.18771e-05
4.19869e-05
6.42847e-05
8.81033e-05
0.000104564
0.00011413
0.000119752
0.000125228
0.000134192
0.000148537
0.000161065
0.000172807
0.000192824
0.000220455
0.000252967
0.000293859
0.000338495
0.000389841
0.000443621
0.000501344
0.000560209
0.000620818
0.000681653
0.000742309
0.000802253
0.00086128
0.000918837
0.000975153
0.00103025
0.00108388
0.00113579
0.00118619
0.00123522
0.00128291
0.00132941
0.00137484
0.00141928
0.00146285
0.00150562
0.00154767
0.00158908
0.00162989
0.00167015
0.00170989
0.00174913
0.00178788
0.00182614
0.00186393
0.00190123
0.00193804
0.00197434
0.00201013
0.0020454
0.00208014
0.00211432
0.00214796
0.00218103
0.00221353
0.00224545
0.00227679
0.00230754
0.00233766
0.00236716
0.00239603
0.00242427
0.00245187
0.00247884
0.00250519
0.00253094
0.00255607
0.00258061
0.00260454
0.00262788
0.0026506
0.00267271
0.00269419
0.00271504
0.00273525
0.00275483
0.00277375
0.00279202
0.00280963
0.00282659
0.00284289
0.00285853
0.0028735
0.00288782
0.00290147
0.00291445
0.00292677
0.00293841
0.00294937
0.00295965
0.00296926
0.00297817
0.0029864
0.00299394
0.0030008
0.00300696
0.00301228
0.00301685
0.00302084
0.00302404
0.00302664
0.00302886
0.00303031
0.00303104
0.00303108
0.00303043
0.0030291
0.00302708
0.0030244
0.00302107
0.00301711
0.00301254
0.00300738
0.00300162
0.0029953
0.00298845
0.00298107
0.00297319
0.00296481
0.00295597
0.00294666
0.00293692
0.00292675
0.00291619
0.00290527
0.00289404
0.00288252
0.00287075
0.00285877
0.0028466
0.00283426
0.00282177
0.00280914
0.0027964
0.00278357
0.00277067
0.00275771
0.00274469
0.00273161
0.00271842
0.00270502
0.0026912
0.00267661
0.00266023
0.00263962
0.00260809
1.94474e-09
1.85179e-07
2.3229e-06
1.22916e-05
3.32725e-05
6.10118e-05
8.95519e-05
0.000114082
0.00013326
0.000147306
0.000157323
0.000163358
0.00016666
0.000167813
0.000167522
0.000166125
0.000163781
0.000160575
0.000156504
0.000151547
0.000145607
0.000139001
0.000131293
0.000122231
0.000106839
9.04487e-05
7.53749e-05
6.13069e-05
5.04732e-05
4.59285e-05
5.27706e-05
6.91114e-05
9.3986e-05
0.000114873
0.000129588
0.000139775
0.00014752
0.000156906
0.000171606
0.000184591
0.000195127
0.000214367
0.000240943
0.000273624
0.000313974
0.000360298
0.000413133
0.000469492
0.00052982
0.000591825
0.00065575
0.000720274
0.000785309
0.000850056
0.000914199
0.000977132
0.00103907
0.00110031
0.00116031
0.00121881
0.00127587
0.00133156
0.00138594
0.00143909
0.00149105
0.00154194
0.00159182
0.00164077
0.00168888
0.00173621
0.00178282
0.00182876
0.00187406
0.00191877
0.0019629
0.00200645
0.00204945
0.00209188
0.00213373
0.00217501
0.00221569
0.00225577
0.00229524
0.00233408
0.00237228
0.00240984
0.00244674
0.00248299
0.00251857
0.00255349
0.00258775
0.00262134
0.00265423
0.00268644
0.00271796
0.00274878
0.00277891
0.00280834
0.00283708
0.00286512
0.00289247
0.00291915
0.00294515
0.00297048
0.00299511
0.00301906
0.00304231
0.00306486
0.0030867
0.00310784
0.00312827
0.00314801
0.00316703
0.00318534
0.00320293
0.0032198
0.00323595
0.00325138
0.00326609
0.00328009
0.00329337
0.00330593
0.00331777
0.00332889
0.00333929
0.00334896
0.00335791
0.00336613
0.00337365
0.00338044
0.00338629
0.00339145
0.00339596
0.00339964
0.00340273
0.00340531
0.00340709
0.00340813
0.00340844
0.00340803
0.0034069
0.00340508
0.00340256
0.00339937
0.00339552
0.00339104
0.00338596
0.00338032
0.00337411
0.00336733
0.00336
0.00335214
0.00334376
0.00333488
0.0033255
0.00331566
0.00330536
0.00329463
0.00328352
0.00327206
0.00326028
0.00324821
0.00323589
0.00322335
0.0032106
0.00319767
0.00318456
0.00317131
0.00315794
0.00314446
0.00313092
0.0031173
0.00310361
0.00308983
0.00307588
0.0030616
0.00304671
0.00303038
0.00301068
0.00298237
5.86757e-09
4.86887e-07
6.14326e-06
2.72019e-05
5.9452e-05
9.29693e-05
0.000121052
0.000142521
0.000158461
0.000169443
0.000175758
0.00017887
0.000179691
0.000179012
0.000177288
0.000174766
0.000171526
0.000167462
0.000162481
0.000156543
0.00014978
0.000142312
0.000134011
0.000119177
0.000103403
8.97232e-05
7.94585e-05
7.49647e-05
7.77574e-05
8.02383e-05
9.77271e-05
0.000124178
0.000149018
0.000163628
0.000173825
0.000184479
0.000198411
0.000205672
0.000215098
0.000232226
0.000256317
0.000287249
0.000325424
0.00037019
0.00042162
0.000478168
0.000538945
0.000602134
0.000667416
0.000733698
0.000800768
0.000867985
0.000935092
0.00100149
0.00106697
0.00113202
0.0011962
0.00125915
0.00132088
0.00138139
0.00144067
0.00149876
0.0015557
0.00161154
0.00166633
0.00172015
0.00177303
0.00182506
0.00187627
0.00192672
0.00197646
0.00202552
0.00207394
0.00212172
0.00216888
0.00221543
0.00226135
0.00230663
0.00235127
0.00239526
0.00243856
0.00248118
0.0025231
0.00256431
0.0026048
0.00264457
0.0026836
0.00272189
0.00275946
0.0027963
0.00283242
0.00286781
0.00290246
0.00293638
0.00296956
0.00300201
0.00303372
0.0030647
0.00309493
0.00312441
0.00315318
0.00318124
0.00320858
0.0032352
0.0032611
0.00328626
0.00331069
0.00333437
0.00335731
0.0033795
0.00340093
0.0034216
0.00344152
0.00346067
0.00347907
0.00349672
0.00351361
0.00352975
0.00354514
0.00355979
0.00357369
0.00358686
0.00359928
0.00361097
0.00362192
0.00363214
0.00364162
0.00365038
0.00365843
0.00366572
0.00367208
0.0036778
0.00368282
0.00368701
0.00369064
0.00369366
0.00369589
0.00369739
0.00369815
0.00369819
0.00369752
0.00369615
0.00369409
0.00369135
0.00368795
0.00368391
0.00367926
0.00367398
0.0036681
0.00366163
0.00365461
0.00364703
0.00363891
0.00363028
0.00362113
0.00361148
0.00360137
0.00359081
0.00357984
0.00356849
0.0035568
0.00354479
0.0035325
0.00351995
0.00350716
0.00349415
0.00348094
0.00346755
0.00345401
0.00344034
0.00342657
0.00341271
0.00339878
0.00338476
0.0033706
0.00335621
0.00334137
0.00332554
0.00330718
0.00328253
1.55702e-08
1.21082e-06
1.42659e-05
4.72092e-05
8.75285e-05
0.000123331
0.000150784
0.000169428
0.000180905
0.000187184
0.00018994
0.00018999
0.000188174
0.000185153
0.000181408
0.000177191
0.000172476
0.00016727
0.000161476
0.000154924
0.000147261
0.000138425
0.00012611
0.000110888
9.95883e-05
9.38471e-05
8.95476e-05
9.22399e-05
0.000105496
0.000126936
0.00015004
0.000172249
0.00019105
0.000205075
0.000214038
0.000222289
0.00023211
0.000247309
0.00026818
0.000296163
0.000331114
0.000372778
0.000420902
0.000474793
0.000533709
0.000596224
0.000661261
0.000727773
0.00079532
0.000863338
0.000931546
0.000999604
0.00106687
0.00113378
0.00120032
0.00126581
0.00133031
0.00139376
0.00145613
0.00151741
0.00157761
0.00163676
0.00169489
0.00175204
0.00180826
0.00186359
0.00191808
0.00197177
0.00202469
0.00207689
0.0021284
0.00217924
0.00222946
0.00227904
0.00232801
0.00237635
0.00242402
0.00247101
0.00251731
0.00256291
0.00260777
0.00265189
0.00269525
0.00273783
0.00277964
0.00282067
0.00286096
0.0029005
0.00293925
0.00297721
0.00301439
0.00305079
0.0030864
0.00312124
0.0031553
0.00318859
0.00322112
0.00325289
0.00328393
0.00331423
0.00334379
0.00337262
0.00340071
0.00342805
0.00345464
0.00348048
0.00350556
0.00352986
0.0035534
0.00357617
0.00359815
0.00361936
0.00363978
0.00365943
0.00367829
0.00369638
0.00371371
0.00373026
0.00374606
0.00376111
0.0037754
0.00378896
0.00380177
0.00381385
0.00382519
0.00383581
0.0038457
0.00385488
0.00386339
0.00387107
0.00387796
0.00388419
0.00388971
0.00389444
0.00389862
0.00390214
0.00390491
0.00390696
0.0039083
0.00390894
0.00390888
0.00390813
0.00390671
0.00390462
0.00390189
0.00389853
0.00389454
0.00388995
0.00388476
0.00387899
0.00387265
0.00386577
0.00385834
0.00385038
0.0038419
0.00383292
0.00382345
0.00381352
0.00380317
0.00379242
0.00378131
0.00376986
0.00375809
0.00374604
0.00373371
0.00372113
0.00370832
0.00369529
0.00368207
0.0036687
0.00365519
0.00364158
0.00362787
0.00361408
0.00360017
0.0035861
0.0035717
0.00355649
0.00353928
0.00351774
3.54496e-08
2.82222e-06
2.64405e-05
6.96117e-05
0.000112685
0.000147299
0.000172485
0.000188383
0.000196887
0.000199612
0.000198454
0.000194899
0.000190001
0.000184438
0.000178574
0.000172561
0.000166134
0.000159623
0.00015275
0.000145475
0.000137666
0.000129613
0.000121282
0.000113667
0.000108688
0.000109806
0.000119501
0.000134624
0.00015318
0.000173163
0.000192195
0.000208603
0.000220966
0.000232283
0.000244462
0.000259134
0.000277636
0.000302355
0.000333487
0.000371271
0.000415259
0.000465007
0.000519992
0.000579442
0.000642378
0.000707647
0.000774375
0.000841913
0.000909892
0.000977974
0.00104563
0.00111279
0.00118003
0.0012465
0.0013121
0.00137679
0.00144052
0.00150326
0.00156502
0.0016258
0.00168562
0.00174448
0.00180243
0.00185951
0.00191576
0.00197123
0.00202596
0.00207998
0.00213329
0.00218591
0.0022379
0.00228929
0.00234009
0.00239031
0.00243998
0.00248913
0.00253783
0.00258592
0.00263328
0.00267987
0.00272567
0.00277065
0.00281479
0.00285809
0.00290052
0.0029421
0.0029828
0.00302261
0.00306162
0.00309985
0.0031373
0.00317399
0.00320991
0.00324506
0.00327946
0.0033131
0.003346
0.00337817
0.00340961
0.00344031
0.00347028
0.00349951
0.00352799
0.00355573
0.0035827
0.00360892
0.00363437
0.00365905
0.00368296
0.00370608
0.00372842
0.00374997
0.00377074
0.00379071
0.0038099
0.00382831
0.00384595
0.00386282
0.00387892
0.00389428
0.00390889
0.00392277
0.00393591
0.00394833
0.00396004
0.00397103
0.00398132
0.00399093
0.00399986
0.00400799
0.00401542
0.00402218
0.00402826
0.00403361
0.0040384
0.00404251
0.00404592
0.00404864
0.00405067
0.00405203
0.00405272
0.00405275
0.00405213
0.00405087
0.00404898
0.00404647
0.00404336
0.00403965
0.00403536
0.00403051
0.00402509
0.00401913
0.00401263
0.00400559
0.00399802
0.00398995
0.00398138
0.00397235
0.00396289
0.00395301
0.00394275
0.00393213
0.00392118
0.0039099
0.00389833
0.00388647
0.00387433
0.00386196
0.00384936
0.00383657
0.00382361
0.00381052
0.00379732
0.00378401
0.0037706
0.00375707
0.00374332
0.00372901
0.00371311
0.00369476
6.92423e-08
5.90818e-06
4.12175e-05
9.30515e-05
0.000139162
0.000172553
0.000193616
0.0002049
0.000208558
0.000207047
0.000202254
0.000195565
0.000187912
0.000179879
0.000171463
0.000163413
0.000155105
0.000147263
0.000140095
0.000133393
0.00012765
0.000123729
0.000122959
0.000126418
0.000134494
0.000146421
0.000160868
0.000177112
0.000194018
0.000210237
0.000224316
0.00023723
0.000251431
0.000266906
0.000284826
0.00030706
0.000334649
0.000368315
0.000407843
0.000452943
0.00050311
0.000557862
0.000616612
0.000678592
0.000742898
0.000808653
0.000875203
0.000942094
0.00100899
0.00107533
0.00114158
0.00120753
0.00127274
0.00133711
0.00140059
0.00146313
0.00152475
0.00158544
0.00164523
0.00170414
0.0017622
0.00181942
0.00187576
0.00193137
0.00198629
0.00204056
0.00209421
0.00214733
0.00220006
0.0022525
0.00230443
0.00235581
0.00240663
0.00245691
0.00250665
0.00255583
0.00260434
0.0026522
0.00269936
0.00274578
0.00279145
0.00283635
0.00288043
0.00292368
0.00296608
0.00300764
0.00304837
0.00308831
0.00312746
0.00316583
0.00320344
0.00324029
0.00327638
0.00331172
0.00334632
0.00338017
0.00341329
0.00344568
0.00347735
0.0035083
0.00353852
0.00356801
0.00359677
0.00362479
0.00365207
0.0036786
0.00370437
0.00372938
0.00375362
0.00377708
0.00379976
0.00382166
0.00384277
0.0038631
0.00388264
0.0039014
0.00391939
0.00393662
0.00395309
0.00396881
0.00398379
0.00399805
0.00401159
0.00402442
0.00403656
0.004048
0.00405875
0.00406887
0.00407827
0.00408697
0.00409501
0.00410239
0.00410911
0.00411518
0.00412067
0.00412549
0.00412965
0.00413315
0.00413601
0.00413822
0.00413979
0.00414073
0.00414105
0.00414075
0.00413984
0.00413834
0.00413625
0.00413359
0.00413036
0.00412657
0.00412224
0.00411737
0.00411196
0.00410601
0.00409954
0.00409254
0.00408506
0.0040771
0.0040687
0.00405988
0.00405066
0.00404106
0.00403111
0.00402082
0.00401019
0.00399924
0.00398799
0.00397646
0.00396468
0.00395267
0.00394047
0.00392809
0.00391558
0.00390293
0.00389019
0.00387734
0.00386434
0.00385095
0.00383624
0.00382078
1.14155e-07
1.0212e-05
5.40327e-05
0.000110388
0.000158417
0.000191338
0.000209737
0.000217215
0.000217225
0.000212456
0.000204882
0.000195921
0.000186188
0.00017686
0.000167966
0.000160038
0.000153175
0.000147702
0.000144139
0.000142328
0.000142841
0.00014596
0.000151955
0.000160772
0.000172021
0.000185038
0.000199157
0.000213585
0.000227324
0.000240522
0.00025522
0.000271865
0.00028998
0.000310961
0.000336036
0.000366033