/*--------------------------------*- C++ -*----------------------------------*\
  =========                 |
  \\      /  F ield         | OpenFOAM: The Open Source CFD Toolbox
   \\    /   O peration     | Website:  https://openfoam.org
    \\  /    A nd           | Version:  13
     \\/     M anipulation  |
\*---------------------------------------------------------------------------*/
FoamFile
{
    format      ascii;
    class       volScalarField;
    location    "1700";
    object      omega;
}
// * * * * * * * * * * * * * * * * * * * * * * * * * * * * * * * * * * * * * //

dimensions      [0 0 -1 0 0 0 0];

internalField   nonuniform List<scalar> 
12225
(
31477.7
41213.6
39430.1
38234.1
38934.7
31477.7
31477.7
31477.7
31477.7
31477.7
31477.7
31477.7
31477.7
31477.7
31477.7
31477.7
38328.1
43716.7
7819.15
18310.1
16930.3
16262.8
16228.7
15766.4
18126.6
16772.8
18080.4
18090.2
17475.3
19175.2
17290
17256.8
17237.9
18644.1
18907.4
19481.8
0.391649
3844.51
12094
6255.37
10246.1
11325.1
12279.3
9777.95
9437.96
10434.5
10644.5
10397.1
9861.4
9550.55
9151.19
9521.65
9397.24
8572.29
0.376101
460.315
1862.89
2142.64
2117.54
2501.52
5170
4054.77
5417.67
6299.93
6521.45
6442.45
6281.75
6151.45
6018.45
5931.21
5755.52
5719.34
221.332
478.544
800.693
1007.07
1207.18
1472.07
1747.74
1631.61
1786.24
2259.97
2924.04
2636.01
2667.13
2702.07
2711.29
2721.42
2729.78
2778.82
381.791
483.828
609.673
715.639
826.063
950.162
1142.86
1349.58
1660.19
1507.43
1548.04
1614.62
1621.34
1640.06
1657.73
1688.63
1703.26
1724.73
427.536
431.951
483.532
611.244
786.577
728.462
776.371
917.518
1044.07
1136.11
1089.47
1103.52
1154.63
1141.11
1157.2
1212.44
1296.21
1271.48
437.131
434.28
432.99
473.831
539.867
606.189
651.409
691.813
739.633
779.517
810.855
830.259
857.418
866.566
947.089
913.958
922.769
931.491
438.694
436.371
431.809
438.721
464.537
495.679
521.8
542.086
563.07
586.9
608.647
631.406
650.417
669.164
687.869
718.564
704.469
710.23
438.774
437.042
433.168
431.547
436.639
448.306
459.326
468.529
477.148
487.402
498.066
509.319
520.894
530.196
542.2
548.915
562.735
563.131
438.839
437.109
434.311
430.885
430.654
432.601
435.564
438.222
440.785
444.245
448.067
452.509
457.045
461.406
465.731
469.491
473.927
476.871
438.884
436.958
434.648
432.327
430.43
429.404
429.23
428.175
428.412
429.066
429.913
431.202
432.451
433.939
435.112
436.506
437.693
439.048
438.97
436.805
434.691
432.626
430.65
428.948
427.495
426.133
424.959
424.05
423.326
422.899
422.522
422.329
422.059
421.933
421.581
421.79
438.998
436.777
434.668
432.663
430.745
428.942
427.24
425.644
424.128
422.76
421.462
420.346
419.254
418.325
417.353
416.56
415.648
414.981
439
436.775
434.66
432.657
430.748
428.941
427.214
425.583
424.019
422.551
421.142
419.833
418.57
417.397
416.257
415.197
414.157
413.194
439
436.773
434.657
432.65
430.741
428.93
427.203
425.565
424
422.516
421.097
419.751
418.464
417.242
416.072
414.96
413.894
412.88
439
436.772
434.655
432.646
430.735
428.92
427.193
425.551
423.987
422.497
421.077
419.725
418.434
417.204
416.03
414.91
413.839
412.818
439
436.769
434.65
432.638
430.726
428.908
427.18
425.535
423.969
422.477
421.056
419.701
418.409
417.176
416
414.877
413.805
412.782
439.001
436.77
434.653
432.641
430.73
428.913
427.185
425.539
423.974
422.482
421.061
419.706
418.414
417.181
416.004
414.881
413.809
412.784
439.002
436.77
434.656
432.645
430.736
428.917
427.19
425.547
423.989
422.505
421.098
419.752
418.473
417.245
416.079
414.955
413.891
412.862
439.023
436.762
434.676
432.682
430.744
428.929
427.203
425.658
424.172
422.829
421.591
420.384
419.268
418.135
417.087
415.96
414.985
413.91
439.396
436.454
435.207
433.112
430.951
429.325
427.693
427.696
425.655
425.796
425.882
426.12
426.55
426.821
426.943
425.955
426.318
425.028
442.975
433.398
440.573
436.579
437.018
435.074
435.529
440.409
447.146
455.773
464.37
472.506
478.815
485.045
489.189
493.493
496.722
497.08
475.416
404.63
471.963
470.873
475.047
471.535
477.035
500.773
531.192
566.4
598.984
630.399
657.112
679.152
704.633
710.25
721.081
729.53
618.529
269.74
581.495
619.291
560.112
639.511
630.543
658.153
667.959
682.355
717.847
931.337
823.454
876.245
1055.87
1130.59
1218.84
1327.31
1227.06
0.34928
923.462
1311.78
1166.82
1487.38
1273.85
1424.59
1412.32
1357.61
1588.38
1504.58
1523.53
1582.32
1594.07
1649.77
2001.09
2540.22
1534.01
4937.65
6802.3
7435.01
7137.43
6718.66
6092.55
5734.73
5160.29
4939.08
4231.22
3947.65
3728.38
3534.7
3362.26
3303.44
3176.83
3204.61
4509.38
7024.01
8414.07
11480.7
10062.9
13400
8944.77
11469.2
8327.12
9591.27
9710.77
9331.27
8851.54
8307.51
7812.65
7450.99
7037.8
6846.15
21128.8
18744.7
10976.4
12823.7
18121.7
17386.2
18239.7
17401.9
12849.6
14600.4
15668.5
15165.4
14176.6
13310.8
12613.9
12201.1
11849.5
11878.1
18117.5
22459.3
25055.5
26316.8
26738
26689.1
26480.9
26114.6
25683.9
25240
24808
24411.6
24043.9
23721.2
23424.7
23184.7
22965.6
22794.2
11463.2
2514.24
2516.41
2518.61
2520.83
2523.07
2525.32
2527.6
2529.9
2532.22
2534.57
2536.93
2539.31
2541.72
2544.15
2546.6
2549.08
2551.57
2554.09
2556.64
2559.2
2561.79
2564.41
2567.05
2569.71
2572.4
2575.12
2577.86
2580.62
2583.41
2586.23
2589.08
2591.95
2594.85
2597.77
2600.73
2603.71
2606.72
2609.76
2612.82
2615.92
2619.05
2622.2
2625.39
2628.61
2631.86
2635.14
2638.45
2641.79
2645.17
2648.58
2652.02
2655.5
2659.01
2662.55
2666.13
3200.88
3265.33
3207.2
2680.8
2684.56
3294.6
3455.34
2696.06
3379.9
3423.68
3527.51
3603
3686.47
3760.96
3836.64
3907.75
3978.45
4046.34
4113.25
4178.27
4242.05
4304.48
4365.57
4425.62
4484.29
4542.08
4598.52
4654.15
4708.45
4761.93
4814.13
4865.5
4915.69
4965.01
5013.18
5060.28
5106.16
5150.9
5194.38
5236.64
5277.57
5317.21
5355.51
5392.57
5428.55
5463.84
5498.34
5531.73
5564.24
5595.76
5626.37
5655.99
5684.65
5712.31
5738.99
5764.65
5789.31
5812.92
5835.53
5857.08
5877.6
5897.07
5915.48
5932.82
5949.08
5964.24
5978.32
5991.32
6003.26
6014.12
6023.97
6032.81
6040.81
6048.44
6052.98
6059.32
6060.58
6064.81
6064.36
6065.73
6065.85
6064.98
6062.36
6058.94
6054.28
6048.63
6042.07
6034.62
6026.42
6017.39
6007.73
5997.35
5986.43
5974.86
5962.84
5950.22
5937.23
5923.68
5909.82
5895.47
5880.89
5865.89
5850.75
5835.32
5820.07
5804.75
5789.74
5774.78
5760.22
5745.79
5731.81
5718.05
5704.84
5691.94
5679.66
5667.75
5656.36
5645.1
5633.77
5621.5
5607.35
5588.78
5561.08
5446.99
11463.2
1995.58
996.477
818.331
703.704
607.32
610.938
613.23
606.841
588.287
566.618
544.26
523.234
505.763
492.861
485.038
480.335
489.605
502.235
548.644
621.247
716.231
823.653
933.104
1037.62
1119.95
1183.52
1184
1160.46
1094.98
977.003
842.189
688.042
589.866
524.52
471.208
445.692
448.863
458.477
482.118
515.164
544.735
590.122
680.893
793.787
953.747
1237.14
1558.55
1798.03
1950.9
2034.36
2064.27
2063.93
2023.87
1977.43
1936.51
1923.14
1852.8
1803.66
1730.78
1719.8
1705.56
1680.9
1648.9
1670.48
1661.79
1662.22
1663.21
1666.36
1669.45
1674.73
1680.22
1686.78
1693.62
1700.96
1708.48
1716.22
1724.04
1731.92
1739.81
1747.66
1755.47
1763.19
1770.83
1778.34
1785.74
1793
1800.12
1807.1
1813.92
1820.55
1826.96
1833.2
1839.25
1845.14
1850.89
1856.55
1862.21
1868.02
1874.19
1881.07
1889.13
1897.64
1905.66
1913.61
1921.27
1928.75
1935.98
1942.99
1949.77
1956.31
1962.63
1968.7
1974.55
1980.15
1985.52
1990.64
1995.53
2000.17
2004.58
2008.74
2012.67
2016.36
2019.82
2023.06
2026.07
2028.88
2031.48
2033.88
2036.09
2037.96
2039.8
2041.17
2042.64
2043.68
2044.73
2045.31
2045.36
2044.77
2043.66
2042.32
2040.78
2039.06
2037.17
2035.11
2032.92
2030.54
2028.01
2025.3
2022.48
2019.53
2016.41
2013.27
2009.9
2006.57
2003.02
1999.52
1995.85
1992.19
1988.47
1984.77
1981.06
1977.4
1973.75
1970.17
1966.62
1963.16
1959.75
1956.46
1953.24
1950.18
1947.22
1944.41
1941.79
1939.42
1937.34
1935.65
1934.81
1933.84
1943.27
11463.2
2024.79
806.774
602.599
621.145
651.076
637.468
592.442
537.665
483.651
434.791
393.217
360.094
333.814
313.317
297.52
285.95
277.82
273.53
275.684
281.978
298.612
326.711
366.156
417.963
476.203
540.841
594.463
637.949
648.027
638.111
606.321
548.167
480.656
413.128
369.512
370.315
382.536
406.445
438.256
500.996
600.945
742.32
938.607
1120.31
1269.81
1400.49
1511.37
1549.61
1555.12
1521.08
1469.85
1412.53
1351.44
1297.58
1252.7
1218.51
1185.1
1161.4
1137.74
1123.54
1115.41
1109.03
1102.12
1102.25
1101.13
1101.26
1103.01
1104.99
1107.53
1110.64
1113.99
1117.66
1121.49
1125.49
1129.57
1133.74
1137.95
1142.19
1146.45
1150.71
1154.96
1159.19
1163.4
1167.57
1171.71
1175.81
1179.86
1183.87
1187.83
1191.74
1195.59
1199.4
1203.16
1206.92
1210.68
1214.47
1218.33
1222.29
1226.41
1230.69
1235.08
1239.37
1243.51
1247.56
1251.46
1255.25
1258.9
1262.43
1265.82
1269.07
1272.2
1275.18
1278.03
1280.74
1283.32
1285.75
1288.04
1290.19
1292.2
1294.06
1295.79
1297.38
1298.84
1300.15
1301.33
1302.38
1303.3
1304.09
1304.75
1305.26
1305.69
1305.92
1306.1
1306.09
1306.04
1305.6
1305
1304.21
1303.25
1302.18
1301
1299.72
1298.34
1296.88
1295.32
1293.66
1291.92
1290.08
1288.18
1286.2
1284.13
1282.03
1279.83
1277.62
1275.32
1273.01
1270.64
1268.26
1265.85
1263.42
1260.99
1258.56
1256.13
1253.72
1251.32
1248.94
1246.59
1244.29
1242.01
1239.81
1237.67
1235.64
1233.75
1232.07
1230.71
1229.86
1230.05
1231.66
1242.17
11463.2
2028.06
958.788
907.733
875.807
764.005
655.671
554.626
471.265
407.9
360.091
322.586
293.077
270.131
252.414
238.797
228.459
220.824
215.503
212.638
212.815
215.708
221.339
233.164
251.756
277.219
310.147
345.678
381.328
409.17
426.5
424.866
414.489
384.572
386.696
426.332
508.564
563.527
611.703
675.991
770.787
903.329
1032.8
1117.93
1187.74
1249.5
1277.25
1264.38
1211.7
1176.74
1122.04
1077.15
1033.92
997.058
966.601
942.663
924.16
909.027
898.057
889.057
883.329
880.169
878.579
877.592
877.896
878.985
880.536
882.671
885.062
887.744
890.65
893.703
896.892
900.17
903.525
906.935
910.388
913.874
917.385
920.912
924.45
927.994
931.537
935.076
938.606
942.123
945.624
949.107
952.573
956.023
959.452
962.855
966.237
969.606
972.968
976.33
979.701
983.085
986.486
989.897
993.301
996.653
999.911
1003.07
1006.14
1009.11
1011.97
1014.74
1017.39
1019.94
1022.38
1024.72
1026.94
1029.05
1031.04
1032.92
1034.69
1036.34
1037.87
1039.28
1040.58
1041.76
1042.82
1043.77
1044.6
1045.31
1045.91
1046.39
1046.75
1047
1047.15
1047.2
1047.11
1046.92
1046.59
1046.17
1045.56
1044.81
1043.93
1042.93
1041.84
1040.66
1039.39
1038.03
1036.59
1035.06
1033.46
1031.78
1030.03
1028.21
1026.33
1024.38
1022.38
1020.32
1018.23
1016.08
1013.91
1011.7
1009.46
1007.2
1004.92
1002.62
1000.32
998.006
995.699
993.395
991.103
988.824
986.567
984.338
982.15
980.011
977.952
976.013
974.253
972.769
971.72
971.596
972.802
979.261
11463.2
2242.76
1381.75
1156.49
934.349
736.309
573.994
460.607
382.223
326.517
286.607
257.658
236.574
220.869
209.029
200.079
193.299
188.238
184.658
182.456
182.159
183.094
185.353
190.646
199.339
212.289
230.647
253.307
278.113
301.935
321.439
330.168
356.116
398.545
502.065
586.206
647.932
711.891
785.601
860.86
930.059
989.599
1040.79
1080.77
1094.9
1079.72
1030.3
998.914
954.228
919.877
883.212
855.43
830.31
810.284
794.246
781.98
772.741
765.846
761.098
758.093
756.816
756.495
756.938
758.12
759.926
762.172
764.72
767.534
770.517
773.648
776.891
780.216
783.611
787.058
790.549
794.076
797.635
801.219
804.825
808.448
812.085
815.731
819.382
823.034
826.683
830.325
833.958
837.578
841.183
844.778
848.351
851.902
855.426
858.928
862.407
865.866
869.3
872.707
876.077
879.399
882.662
885.849
888.948
891.958
894.876
897.698
900.424
903.049
905.573
907.993
910.309
912.519
914.621
916.613
918.493
920.261
921.916
923.456
924.881
926.189
927.381
928.456
929.414
930.254
930.975
931.577
932.06
932.422
932.662
932.78
932.789
932.745
932.524
932.189
931.726
931.152
930.432
929.586
928.623
927.551
926.378
925.109
923.745
922.291
920.747
919.118
917.405
915.618
913.754
911.817
909.813
907.744
905.618
903.437
901.21
898.936
896.623
894.272
891.889
889.478
887.044
884.591
882.125
879.649
877.171
874.692
872.219
869.754
867.305
864.876
862.481
860.139
857.868
855.699
853.683
851.9
850.473
849.778
850.185
853.488
11463.2
2796.11
1690.35
1203.24
850.968
605.373
458.895
367.027
309.093
272.433
246.729
227.382
212.098
199.692
189.7
181.734
175.541
170.934
167.73
165.863
165.529
166.229
168.169
172.148
178.337
187.274
199.613
216.058
236.16
260.57
295.255
350.984
435.81
543.771
630.521
694.721
755.466
810.06
854.022
890.953
925.296
953.762
961.871
943.856
911.588
882.634
846.626
817.968
787.947
764.375
742.831
726.09
711.882
700.845
692.399
686.287
682.083
679.713
678.587
678.395
679.092
680.654
682.815
685.41
688.369
691.589
695
698.558
702.22
705.964
709.771
713.627
717.524
721.455
725.418
729.41
733.429
737.472
741.536
745.618
749.715
753.821
757.933
762.045
766.152
770.25
774.335
778.402
782.45
786.476
790.477
794.441
798.367
802.253
806.098
809.9
813.653
817.352
820.988
824.549
828.032
831.43
834.735
837.947
841.061
844.074
846.984
849.789
852.485
855.071
857.546
859.909
862.156
864.286
866.298
868.189
869.959
871.606
873.129
874.526
875.798
876.943
877.961
878.85
879.609
880.239
880.736
881.102
881.329
881.424
881.426
881.311
881.031
880.621
880.078
879.406
878.595
877.654
876.589
875.406
874.109
872.704
871.192
869.577
867.862
866.049
864.142
862.154
860.079
857.924
855.692
853.388
851.019
848.59
846.107
843.571
840.99
838.365
835.704
833.01
830.289
827.545
824.784
822.012
819.233
816.453
813.676
810.904
808.145
805.405
802.694
800.028
797.426
794.915
792.536
790.353
788.46
787.115
786.609
787.76
11463.2
3349.18
1766.34
1064.66
676.401
473.212
363.605
301.887
263.745
238.137
219.684
205.592
194.34
185.163
177.405
170.871
165.549
161.439
158.605
157.083
156.992
158.012
160.656
165.346
172.439
182.97
198.193
218.484
247.126
292.428
363.92
471.246
572.047
642.495
701.196
749.483
786.312
815.403
841.365
857.084
861.059
845.554
821.848
798.099
771.336
746.56
721.771
701.057
682.184
667.026
654.164
644.067
636.037
630.114
626.01
623.713
622.725
622.592
623.416
625.134
627.552
630.508
633.888
637.585
641.531
645.658
649.92
654.279
658.709
663.193
667.719
672.278
676.868
681.486
686.131
690.803
695.502
700.226
704.97
709.733
714.508
719.29
724.074
728.853
733.621
738.371
743.099
747.8
752.468
757.102
761.695
766.236
770.723
775.15
779.517
783.819
788.053
792.214
796.296
800.299
804.21
808.023
811.734
815.339
818.834
822.218
825.486
828.636
831.664
834.569
837.345
839.987
842.499
844.879
847.126
849.238
851.214
853.053
854.753
856.314
857.733
859.011
860.146
861.137
861.984
862.684
863.237
863.642
863.892
863.991
863.994
863.839
863.517
863.047
862.43
861.669
860.762
859.713
858.527
857.209
855.763
854.194
852.504
850.697
848.776
846.744
844.602
842.346
839.992
837.545
835.012
832.396
829.706
826.947
824.126
821.245
818.311
815.328
812.302
809.24
806.147
803.029
799.89
796.738
793.579
790.416
787.255
784.099
780.954
777.828
774.731
771.676
768.68
765.767
762.971
760.341
757.946
755.967
754.546
754.098
11463.2
3540.95
1603.34
847.479
531.669
390.24
318.729
276.568
248.058
227.783
212.528
200.318
190.122
181.315
173.719
167.312
162.179
158.486
156.347
155.798
156.746
159.136
163.382
170.292
180.605
196.904
222.487
261.488
324.315
413.795
503.902
573.211
631.246
679.705
717.953
747.799
771.134
781.98
783.061
770.061
751.967
732.549
712.01
692.176
672.349
654.118
637.443
623.416
611.42
601.763
594
588.119
583.862
581.246
580.081
579.848
580.588
582.284
584.769
587.905
591.582
595.689
600.136
604.845
609.755
614.814
619.983
625.232
630.54
635.891
641.277
646.691
652.131
657.597
663.089
668.608
674.154
679.725
685.316
690.923
696.539
702.156
707.768
713.365
718.941
724.486
729.996
735.465
740.884
746.251
751.559
756.797
761.958
767.04
772.039
776.952
781.774
786.503
791.138
795.673
800.097
804.403
808.588
812.648
816.581
820.384
824.053
827.586
830.98
834.232
837.34
840.303
843.117
845.783
848.297
850.66
852.868
854.922
856.82
858.559
860.14
861.56
862.818
863.914
864.846
865.613
866.213
866.646
866.9
866.995
866.965
866.744
866.349
865.787
865.06
864.169
863.117
861.908
860.544
859.031
857.374
855.575
853.64
851.572
849.375
847.053
844.608
842.055
839.393
836.629
833.766
830.813
827.775
824.66
821.475
818.224
814.912
811.546
808.133
804.679
801.192
797.676
794.137
790.583
787.021
783.454
779.888
776.326
772.777
769.247
765.745
762.286
758.883
755.559
752.34
749.265
746.384
743.803
741.578
739.807
11463.2
3446.51
1330.16
680.636
447.188
345.113
291.292
259.442
238.713
222.937
210.045
199.227
189.942
181.919
175.079
169.473
165.336
162.753
161.863
162.83
166.137
171.989
181.787
197.143
219.533
254.292
307.647
376.783
448.707
510.846
564.247
609.253
647.027
678.593
704.642
716.922
718.426
708.669
695.347
679.349
662.993
647.129
631.633
616.767
602.559
589.723
578.482
569.109
561.42
555.417
550.927
547.862
546.314
545.824
546.233
547.694
550.035
553.144
556.916
561.248
566.052
571.239
576.735
582.474
588.401
594.47
600.645
606.899
613.212
619.571
625.964
632.384
638.827
645.294
651.783
658.293
664.833
671.397
677.977
684.568
691.16
697.745
704.313
710.854
717.358
723.813
730.204
736.522
742.774
748.96
755.068
761.09
767.015
772.841
778.562
784.175
789.676
795.059
800.318
805.448
810.444
815.301
820.017
824.588
829.01
833.281
837.399
841.359
845.159
848.797
852.27
855.576
858.713
861.68
864.475
867.098
869.546
871.819
873.914
875.831
877.568
879.123
880.495
881.683
882.685
883.501
884.129
884.567
884.801
884.867
884.761
884.452
883.95
883.258
882.381
881.32
880.078
878.66
877.069
875.309
873.386
871.304
869.067
866.681
864.151
861.481
858.678
855.749
852.699
849.535
846.261
842.885
839.415
835.859
832.224
828.516
824.741
820.908
817.023
813.095
809.13
805.135
801.115
797.079
793.033
788.982
784.933
780.889
776.859
772.851
768.874
764.939
761.063
757.262
753.558
749.983
746.573
743.425
740.53
737.719
11463.2
3058.21
1075.08
578.582
407.778
328.838
284.39
257.207
238.651
225.153
214.455
205.395
197.51
190.725
185.216
181.24
179.404
179.594
182.239
187.71
197.271
211.588
233.509
265.235
308.184
359.162
411.117
461.252
506.748
546.684
581.404
611.335
638.214
654.583
659.238
654.968
646.304
633.951
621.029
608.188
595.958
584.265
572.938
562.102
552.012
543.086
535.505
529.355
524.573
521.115
519.046
518.21
518.18
519.217
521.228
524.112
527.778
532.137
537.102
542.591
548.527
554.837
561.458
568.324
575.383
582.592
589.913
597.318
604.791
612.325
619.892
627.484
635.097
642.726
650.363
657.997
665.595
673.196
680.815
688.447
696.08
703.703
711.304
718.873
726.397
733.864
741.268
748.602
755.842
762.98
770.01
776.918
783.696
790.338
796.841
803.202
809.416
815.481
821.39
827.144
832.738
838.168
843.431
848.523
853.442
858.184
862.748
867.131
871.33
875.341
879.163
882.794
886.232
889.477
892.526
895.379
898.036
900.494
902.753
904.811
906.666
908.316
909.76
910.998
912.026
912.846
913.455
913.845
914.014
913.997
913.764
913.314
912.648
911.772
910.687
909.397
907.906
906.217
904.336
902.266
900.014
897.584
894.982
892.214
889.286
886.204
882.975
879.606
876.104
872.476
868.728
864.867
860.903
856.843
852.697
848.471
844.174
839.814
835.4
830.941
826.443
821.913
817.358
812.785
808.203
803.616
799.03
794.453
789.893
785.358
780.858
776.404
772.009
767.688
763.461
759.352
755.386
751.634
748.074
744.297
11463.2
2586.71
895.449
511.916
377.347
315.053
280.938
259.65
245.364
234.747
226.234
219.137
213.351
209.091
207.142
207.28
210.761
217.487
227.055
240.408
258.975
283.936
314.886
350.242
387.941
425.636
461.448
494.664
524.647
551.342
575.852
594.721
602.999
604.108
600.236
592.558
583.215
573.261
563.681
554.551
545.813
537.341
529.116
521.333
514.264
508.19
503.238
499.465
496.868
495.569
495.217
495.798
497.395
499.949
503.386
507.635
512.619
518.26
524.486
531.223
538.403
545.966
553.877
562.041
570.41
578.941
587.593
596.325
605.077
613.81
622.579
631.383
640.219
649.081
657.957
666.843
675.755
684.676
693.602
702.523
711.417
720.271
729.074
737.815
746.483
755.062
763.534
771.881
780.095
788.174
796.109
803.887
811.5
818.941
826.209
833.299
840.21
846.939
853.483
859.841
866.008
871.982
877.757
883.332
888.704
893.87
898.83
903.581
908.12
912.445
916.553
920.443
924.114
927.565
930.796
933.807
936.598
939.168
941.515
943.638
945.535
947.203
948.643
949.852
950.829
951.574
952.085
952.351
952.387
952.194
951.764
951.095
950.189
949.05
947.681
946.085
944.267
942.232
939.984
937.528
934.871
932.019
928.978
925.754
922.355
918.789
915.062
911.184
907.161
903.001
898.713
894.303
889.78
885.155
880.436
875.632
870.753
865.809
860.811
855.766
850.682
845.565
840.423
835.263
830.092
824.918
819.748
814.59
809.453
804.347
799.281
794.264
789.309
784.43
779.641
774.964
770.417
766.055
761.853
757.198
11463.2
2206.44
825.305
495.836
373.339
316.411
286.794
269.345
257.962
249.885
243.902
239.564
237.364
237.006
239.445
245.188
254.115
265.723
280.236
298.599
320.502
345.266
371.926
399.389
426.632
452.85
477.297
499.841
521.152
539.706
550.861
554.888
555.276
552.344
547.051
540.489
533.6
526.8
520.27
513.939
507.726
501.638
495.777
490.374
485.657
481.835
479.002
477.369
476.772
477.054
478.382
480.681
483.916
488.051
493.053
498.866
505.374
512.512
520.216
528.418
537.046
546.007
555.164
564.574
574.227
584.087
594.115
604.277
614.556
624.95
635.391
645.858
656.338
666.83
677.296
687.723
698.107
708.434
718.686
728.858
738.955
748.976
758.916
768.769
778.526
788.167
797.67
807.013
816.183
825.172
833.975
842.579
850.975
859.159
867.128
874.881
882.415
889.73
896.825
903.699
910.348
916.768
922.956
928.909
934.626
940.104
945.345
950.346
955.106
959.622
963.894
967.919
971.697
975.228
978.513
981.555
984.353
986.909
989.219
991.283
993.098
994.664
995.978
997.04
997.848
998.402
998.699
998.738
998.52
998.046
997.313
996.322
995.074
993.571
991.818
989.819
987.578
985.101
982.393
979.46
976.309
972.947
969.38
965.617
961.666
957.535
953.232
948.767
944.149
939.386
934.487
929.459
924.313
919.057
913.702
908.259
902.741
897.159
891.522
885.839
880.118
874.365
868.586
862.791
856.985
851.177
845.376
839.593
833.838
828.12
822.447
816.828
811.275
805.8
800.416
795.14
789.987
785.002
780.173
774.701
11463.2
1885.19
745.181
471.166
369.252
321.965
297.154
282.886
274.089
268.494
265.355
264.22
264.869
268.164
274.192
282.875
294.002
307.342
322.805
340.228
359.196
379.103
399.396
419.37
438.422
456.684
474.478
490.624
502.789
509.15
511.849
512.576
511.316
508.398
504.558
500.299
495.943
491.59
487.265
482.963
478.706
474.61
470.83
467.582
465.048
463.542
462.987
463.378
464.979
467.536
471.024
475.413
480.663
486.709
493.432
500.688
508.622
517.211
526.398
536.114
546.296
556.887
567.878
579.177
590.736
602.519
614.493
626.614
638.863
651.224
663.602
675.946
688.207
700.344
712.359
724.244
735.993
747.603
759.072
770.398
781.59
792.651
803.595
814.428
825.147
835.73
846.146
856.363
866.356
876.12
885.639
894.909
903.923
912.681
921.178
929.416
937.393
945.112
952.572
959.773
966.713
973.387
979.793
985.928
991.791
997.383
1002.7
1007.75
1012.53
1017.04
1021.27
1025.23
1028.92
1032.33
1035.48
1038.36
1040.97
1043.32
1045.41
1047.23
1048.78
1050.07
1051.09
1051.83
1052.3
1052.5
1052.43
1052.09
1051.46
1050.56
1049.39
1047.94
1046.22
1044.22
1041.96
1039.44
1036.65
1033.62
1030.34
1026.82
1023.07
1019.1
1014.91
1010.51
1005.92
1001.13
996.165
991.031
985.736
980.292
974.707
968.99
963.153
957.201
951.146
945.007
938.795
932.521
926.195
919.824
913.417
906.98
900.519
894.044
887.557
881.072
874.601
868.155
861.744
855.378
849.063
842.808
836.623
830.519
824.508
818.606
812.826
807.204
801.756
795.507
11463.2
1899.66
747.061
474.607
376.926
332.88
310.722
298.613
291.681
288.179
286.971
287.538
290.546
295.754
303.031
312.171
322.924
335.074
348.453
362.731
377.491
392.322
406.858
421.203
435.571
448.813
459.398
466.787
471.847
474.888
476.309
476.671
476.042
474.603
472.707
470.543
468.231
465.835
463.412
461.051
458.873
457.125
456.205
455.904
456.37
457.812
460.123
463.222
466.827
471.362
476.884
483.383
490.811
499.114
508.249
518.189
528.825
540.099
551.929
564.225
576.917
589.948
603.285
616.861
630.629
644.573
658.699
672.906
687.121
701.277
715.353
729.317
743.116
756.702
770.047
783.134
795.959
808.545
820.902
833.027
844.926
856.633
868.182
879.62
890.946
902.138
913.139
923.909
934.407
944.617
954.518
964.102
973.384
982.364
991.042
999.417
1007.49
1015.27
1022.75
1029.94
1036.83
1043.43
1049.72
1055.71
1061.4
1066.79
1071.87
1076.66
1081.14
1085.34
1089.23
1092.83
1096.14
1099.17
1101.9
1104.35
1106.52
1108.41
1110.02
1111.34
1112.38
1113.13
1113.61
1113.8
1113.7
1113.34
1112.67
1111.72
1110.49
1108.97
1107.18
1105.1
1102.74
1100.09
1097.17
1093.98
1090.51
1086.79
1082.81
1078.58
1074.11
1069.41
1064.48
1059.34
1054
1048.46
1042.74
1036.84
1030.79
1024.58
1018.23
1011.75
1005.15
998.437
991.625
984.734
977.777
970.763
963.699
956.593
949.455
942.29
935.105
927.909
920.702
913.504
906.33
899.189
892.092
885.047
878.06
871.14
864.293
857.531
850.868
844.319
837.893
831.617
825.549
818.559
11463.2
1841.95
733.662
477.679
386.483
345.844
325.597
314.565
308.538
305.785
305.081
306.468
310.11
315.555
322.466
330.575
339.668
349.577
360.079
370.935
381.883
392.866
404.072
414.305
422.873
429.941
435.854
440.734
444.539
447.365
449.463
450.956
451.964
452.62
453.166
453.529
453.789
454.035
454.363
454.894
455.714
456.876
458.189
460.299
463.502
468.054
473.759
480.574
488.565
497.663
507.864
519.117
531.329
544.374
558.16
572.581
587.51
602.921
618.619
634.444
650.305
666.151
681.949
697.678
713.314
728.83
744.151
759.37
774.488
789.484
804.284
818.899
833.274
847.342
861.057
874.388
887.349
900.03
912.508
924.643
936.44
947.963
959.324
970.645
981.915
993.071
1004.04
1014.73
1025.11
1035.17
1044.92
1054.34
1063.43
1072.17
1080.55
1088.58
1096.26
1103.61
1110.62
1117.31
1123.67
1129.71
1135.42
1140.81
1145.87
1150.6
1155
1159.1
1162.87
1166.33
1169.47
1172.3
1174.83
1177.07
1179
1180.63
1181.96
1183.02
1183.78
1184.25
1184.42
1184.31
1183.94
1183.25
1182.28
1181.03
1179.5
1177.69
1175.59
1173.21
1170.55
1167.61
1164.39
1160.88
1157.08
1153.02
1148.68
1144.08
1139.23
1134.12
1128.77
1123.18
1117.37
1111.35
1105.12
1098.69
1092.09
1085.31
1078.37
1071.28
1064.06
1056.71
1049.25
1041.7
1034.08
1026.4
1018.65
1010.85
1003.01
995.126
987.214
979.28
971.335
963.384
955.426
947.49
939.589
931.731
923.924
916.176
908.494
900.885
893.353
885.91
878.574
871.36
864.275
857.334
850.646
842.951
11463.7
1824.12
734.048
485.982
397.567
358.304
339.06
328.411
322.352
319.534
318.781
319.985
323.203
327.879
333.634
340.241
347.511
355.384
363.686
372.37
380.887
389.022
396.564
403.748
410.574
416.888
422.787
428.241
433.295
437.912
442.174
446.014
449.483
452.491
454.915
457.172
459.501
462.038
464.933
468.347
472.436
477.428
483.634
491.243
500.543
511.819
524.57
538.72
554.218
570.96
588.853
607.89
627.675
647.886
668.247
688.512
708.451
727.808
746.539
764.611
782.038
798.845
815.111
830.924
846.376
861.522
876.316
890.97
905.595
920.176
934.694
949.1
963.309
977.231
990.783
1003.91
1016.58
1028.78
1040.49
1051.66
1062.36
1072.72
1083.03
1093.62
1104.3
1114.85
1125.15
1135.11
1144.67
1153.85
1162.7
1171.2
1179.3
1186.99
1194.26
1201.11
1207.58
1213.66
1219.39
1224.78
1229.83
1234.55
1238.94
1243
1246.72
1250.12
1253.19
1255.94
1258.38
1260.5
1262.3
1263.8
1264.99
1265.88
1266.47
1266.76
1266.75
1266.51
1265.97
1265.15
1264.05
1262.68
1261.05
1259.15
1256.98
1254.55
1251.85
1248.89
1245.66
1242.16
1238.39
1234.35
1230.04
1225.45
1220.6
1215.47
1210.1
1204.46
1198.58
1192.46
1186.1
1179.52
1172.72
1165.71
1158.5
1151.11
1143.54
1135.8
1127.92
1119.89
1111.74
1103.46
1095.08
1086.64
1078.13
1069.57
1060.94
1052.27
1043.56
1034.82
1026.05
1017.26
1008.48
999.706
990.971
982.274
973.622
965.019
956.473
947.991
939.581
931.252
923.006
914.859
906.83
898.934
891.175
883.555
876.239
867.869
11462.8
1804.61
734.47
492.808
405.992
367.733
348.969
338.324
332.212
329.31
328.468
329.361
332.197
336.415
341.765
348.039
354.94
362.336
370.046
377.928
386.051
394.274
402.244
410.097
417.831
425.378
432.78
439.99
447.058
453.937
460.635
467.088
473.434
479.735
486.259
493.082
500.357
508.263
517.022
526.867
538.048
550.883
565.601
582.303
600.922
621.173
643.219
667.062
692.435
719.101
746.801
774.914
802.93
830.393
856.859
881.966
905.424
927.062
946.828
964.753
981.004
995.718
1009.19
1021.69
1033.5
1044.95
1056.23
1067.58
1079
1090.49
1102.11
1113.94
1125.88
1137.91
1149.9
1161.77
1173.34
1184.43
1194.83
1204.73
1214.2
1223.43
1232.64
1242.18
1251.6
1260.71
1269.36
1277.5
1285.1
1292.21
1298.86
1305.07
1310.82
1316.11
1320.96
1325.39
1329.44
1333.15
1336.53
1339.61
1342.39
1344.89
1347.11
1349.04
1350.68
1352.03
1353.11
1353.92
1354.45
1354.7
1354.66
1354.4
1353.84
1353.01
1351.92
1350.59
1349
1347.18
1345.13
1342.83
1340.29
1337.52
1334.51
1331.28
1327.81
1324.12
1320.19
1316.03
1311.64
1307.01
1302.13
1297.01
1291.64
1286.02
1280.16
1274.06
1267.73
1261.17
1254.37
1247.36
1240.13
1232.69
1225.05
1217.22
1209.2
1201.02
1192.67
1184.17
1175.53
1166.75
1157.85
1148.83
1139.71
1130.5
1121.22
1111.87
1102.45
1092.99
1083.48
1073.95
1064.39
1054.82
1045.25
1035.69
1026.19
1016.73
1007.32
997.957
988.654
979.42
970.264
961.197
952.24
943.409
934.709
926.148
917.733
909.455
901.522
892.541
11461.8
1793.12
736.661
496.067
410.859
374.902
357.019
347.025
341.774
339.632
339.319
341.308
345.156
350.512
356.986
364.667
373.5
382.586
392.106
402.351
413.433
424.949
436.644
448.714
461.117
473.815
486.765
499.86
513.08
526.28
539.539
552.834
566.325
580.054
594.276
609.049
624.517
640.902
658.488
677.598
698.609
722.025
747.948
776.298
806.855
839.574
874.851
912.301
950.907
989.957
1028.33
1065.23
1100.25
1132.77
1162.43
1188.69
1211.46
1230.74
1246.67
1259.35
1269.28
1276.6
1281.78
1285.33
1287.87
1289.84
1292.04
1294.44
1297.28
1300.71
1304.9
1309.86
1315.53
1322
1329.1
1336.61
1344.36
1352.01
1359.52
1366.92
1374.32
1381.94
1389.68
1396.97
1403.69
1409.78
1415.27
1420.1
1424.27
1427.98
1431.21
1433.99
1436.33
1438.25
1439.8
1441.02
1441.95
1442.63
1443.09
1443.33
1443.35
1443.19
1442.87
1442.32
1441.57
1440.62
1439.48
1438.14
1436.6
1434.85
1432.89
1430.73
1428.37
1425.8
1423.04
1420.09
1416.95
1413.63
1410.12
1406.42