/*--------------------------------*- C++ -*----------------------------------*\
  =========                 |
  \\      /  F ield         | OpenFOAM: The Open Source CFD Toolbox
   \\    /   O peration     | Website:  https://openfoam.org
    \\  /    A nd           | Version:  13
     \\/     M anipulation  |
\*---------------------------------------------------------------------------*/
FoamFile
{
    format      ascii;
    class       volScalarField;
    location    "1700";
    object      p;
}
// * * * * * * * * * * * * * * * * * * * * * * * * * * * * * * * * * * * * * //

dimensions      [0 2 -2 0 0 0 0];

internalField   nonuniform List<scalar> 
12225
(
-4.36171
-5.21909
-5.63038
-5.7758
-5.92007
-6.08396
-6.2322
-6.35228
-6.4538
-6.55401
-6.64271
-6.71443
-6.7716
-6.82021
-6.87328
-6.93575
-7.01068
-7.1127
-4.63572
-5.25659
-5.60976
-5.75072
-5.89108
-6.05259
-6.19811
-6.31942
-6.42528
-6.5237
-6.61004
-6.67767
-6.73658
-6.79343
-6.84955
-6.9131
-6.98061
-7.03614
-4.81642
-5.24702
-5.58752
-5.75843
-5.90503
-6.06158
-6.20325
-6.32312
-6.42762
-6.51979
-6.60011
-6.6671
-6.72702
-6.78438
-6.84053
-6.89934
-6.95628
-6.99996
-4.95502
-5.27496
-5.58678
-5.77288
-5.91479
-6.05954
-6.19502
-6.31191
-6.41289
-6.50092
-6.57897
-6.64758
-6.70986
-6.7686
-6.82503
-6.88057
-6.93224
-6.97255
-5.09139
-5.32219
-5.60271
-5.78869
-5.9249
-6.06066
-6.1911
-6.30523
-6.40351
-6.48976
-6.5673
-6.63683
-6.6998
-6.7581
-6.81288
-6.86468
-6.91176
-6.94962
-5.2095
-5.38257
-5.62246
-5.80083
-5.93281
-6.0611
-6.18564
-6.29604
-6.39167
-6.47633
-6.55286
-6.62187
-6.6843
-6.74153
-6.79457
-6.84372
-6.88794
-6.92449
-5.30732
-5.43845
-5.64577
-5.81336
-5.94138
-6.06298
-6.18144
-6.28811
-6.38159
-6.46495
-6.54043
-6.60872
-6.67056
-6.72696
-6.77874
-6.82612
-6.86845
-6.90408
-5.39493
-5.49959
-5.67519
-5.82999
-5.95312
-6.06822
-6.18027
-6.28264
-6.3735
-6.45491
-6.52869
-6.5956
-6.65622
-6.71131
-6.76158
-6.80717
-6.84772
-6.88223
-5.47649
-5.55896
-5.70689
-5.84821
-5.96547
-6.07428
-6.17992
-6.27768
-6.36549
-6.44458
-6.51643
-6.58178
-6.64105
-6.69487
-6.7438
-6.78797
-6.82721
-6.86092
-5.55088
-5.61527
-5.73903
-5.86667
-5.97739
-6.08019
-6.1798
-6.27297
-6.35755
-6.43423
-6.50413
-6.56787
-6.62582
-6.67841
-6.7261
-6.76902
-6.80719
-6.84031
-5.61784
-5.66828
-5.77154
-5.88561
-5.98919
-6.08608
-6.1799
-6.26844
-6.34968
-6.42385
-6.49174
-6.55382
-6.61037
-6.66172
-6.70821
-6.75004
-6.78735
-6.82001
-5.67317
-5.71405
-5.80163
-5.90381
-6.00041
-6.09177
-6.18037
-6.26459
-6.34263
-6.41435
-6.48027
-6.54074
-6.59595
-6.64613
-6.6916
-6.73254
-6.7692
-6.80152
-5.72277
-5.75666
-5.83112
-5.92228
-6.01189
-6.09776
-6.18128
-6.26123
-6.336
-6.40518
-6.46906
-6.52785
-6.58166
-6.6307
-6.67518
-6.71533
-6.75141
-6.78345
-5.77326
-5.80119
-5.86346
-5.9433
-6.02508
-6.10481
-6.18277
-6.258
-6.32904
-6.39529
-6.45676
-6.51356
-6.56576
-6.61346
-6.65686
-6.69616
-6.73166
-6.76338
-5.82253
-5.84546
-5.89703
-5.96593
-6.0394
-6.11255
-6.18469
-6.2549
-6.32188
-6.38484
-6.44362
-6.49818
-6.54856
-6.59477
-6.637
-6.67541
-6.71028
-6.74168
-5.8677
-5.88654
-5.92929
-5.98835
-6.05364
-6.12019
-6.18654
-6.25171
-6.31447
-6.374
-6.42991
-6.48212
-6.53052
-6.57519
-6.61616
-6.65365
-6.68784
-6.71887
-5.90449
-5.92028
-5.95634
-6.00742
-6.06557
-6.12611
-6.1872
-6.24772
-6.30652
-6.36274
-6.4159
-6.46577
-6.51226
-6.55535
-6.59511
-6.63165
-6.66518
-6.69578
-5.92672
-5.94055
-5.97239
-6.01826
-6.07142
-6.12757
-6.18473
-6.24172
-6.29744
-6.35101
-6.40191
-6.44984
-6.4947
-6.53644
-6.57512
-6.61082
-6.64372
-6.67394
-5.92435
-5.93775
-5.96868
-6.01335
-6.06519
-6.11995
-6.17572
-6.23136
-6.28583
-6.33823
-6.38805
-6.43499
-6.47896
-6.51992
-6.55795
-6.59313
-6.62562
-6.65559
-5.88929
-5.9046
-5.93956
-5.98898
-6.04483
-6.10254
-6.16067
-6.21823
-6.27427
-6.3278
-6.37844
-6.42591
-6.47024
-6.51134
-6.54941
-6.58451
-6.61688
-6.64669
-5.83986
-5.85836
-5.90039
-5.95804
-6.02055
-6.08322
-6.14537
-6.20648
-6.26531
-6.32108
-6.37336
-6.42212
-6.4673
-6.50905
-6.54741
-6.58268
-6.615
-6.64474
-5.77703
-5.80049
-5.85385
-5.92344
-5.99446
-6.06319
-6.13059
-6.19624
-6.25876
-6.3173
-6.37172
-6.42205
-6.46837
-6.51083
-6.54958
-6.58495
-6.61716
-6.64664
-5.7028
-5.73334
-5.80407
-5.88895
-5.969
-6.04401
-6.11725
-6.18806
-6.25463
-6.31629
-6.37312
-6.42521
-6.47283
-6.51602
-6.55519
-6.59054
-6.62255
-6.65157
-5.61711
-5.65665
-5.75356
-5.85616
-5.94442
-6.02538
-6.10481
-6.18099
-6.25159
-6.31641
-6.37569
-6.42965
-6.47848
-6.52252
-6.56201
-6.59753
-6.62955
-6.65863
-5.51919
-5.57247
-5.7027
-5.82601
-5.92237
-6.00942
-6.09536
-6.17702
-6.2517
-6.31957
-6.38131
-6.43711
-6.48709
-6.53127
-6.57031
-6.60504
-6.63612
-6.66427
-5.40996
-5.50723
-5.64439
-5.78936
-5.89701
-5.99265
-6.08585
-6.17296
-6.25212
-6.32331
-6.38737
-6.44562
-6.49773
-6.54321
-6.58255
-6.617
-6.64757
-6.67502
-5.28809
-5.45344
-5.60635
-5.75784
-5.87417
-5.98046
-6.08189
-6.17368
-6.25677
-6.33067
-6.3951
-6.45334
-6.50569
-6.55122
-6.59051
-6.62487
-6.65524
-6.68311
-5.15499
-5.3695
-5.60669
-5.74239
-5.8519
-5.96582
-6.07635
-6.17437
-6.26273
-6.3425
-6.41087
-6.47047
-6.52208
-6.56619
-6.60466
-6.63876
-6.66903
-6.69749
-4.97848
-5.37421
-5.6392
-5.74687
-5.8417
-5.95587
-6.06893
-6.16929
-6.25745
-6.33917
-6.41428
-6.47828
-6.5296
-6.57185
-6.6087
-6.64171
-6.67113
-6.69647
-4.70117
-5.29435
-5.61808
-5.73515
-5.83907
-5.96526
-6.08686
-6.19314
-6.28261
-6.36453
-6.44605
-6.5148
-6.56641
-6.60729
-6.64207
-6.67222
-6.69885
-6.71926
-7.55238
-7.55247
-7.55252
-7.55253
-7.55238
-7.55149
-7.54931
-7.54611
-7.54286
-7.54046
-7.53999
-7.54184
-7.54566
-7.55074
-7.55632
-7.56173
-7.56638
-7.56983
-7.57188
-7.57277
-7.57282
-7.57227
-7.57134
-7.57031
-7.56945
-7.56894
-7.56878
-7.56881
-7.56881
-7.56861
-7.56822
-7.5677
-7.56707
-7.56626
-7.56514
-7.5638
-7.56258
-7.56219
-7.56338
-7.56624
-7.56998
-7.57353
-7.57624
-7.57821
-7.57996
-7.58203
-7.585
-7.5889
-7.59283
-7.59604
-7.5994
-7.60589
-7.61966
-7.6423
-7.67304
-7.7113
-7.75723
-7.81062
-7.87064
-7.93553
-8.0036
-8.07286
-8.14169
-8.20882
-8.27355
-8.33492
-8.39245
-8.44601
-8.49556
-8.54116
-8.58285
-8.62075
-8.65488
-8.68532
-8.71201
-8.73497
-8.75401
-8.76913
-8.78006
-8.78679
-8.78902
-8.78671
-8.77959
-8.76765
-8.75062
-8.7285
-8.70106
-8.66827
-8.62999
-8.58626
-8.53709
-8.48241
-8.42206
-8.35597
-8.28405
-8.20629
-8.12264
-8.03315
-7.93791
-7.83707
-7.73068
-7.61843
-7.50008
-7.37574
-7.24561
-7.10977
-6.96828
-6.82117
-6.66847
-6.51023
-6.3465
-6.17731
-6.00273
-5.82281
-5.6376
-5.44715
-5.25154
-5.05084
-4.84519
-4.63467
-4.41939
-4.19945
-3.97498
-3.7461
-3.513
-3.27581
-3.03475
-2.78999
-2.54177
-2.29028
-2.03581
-1.77856
-1.51888
-1.25699
-0.993256
-0.727952
-0.461518
-0.194211
0.0739016
0.342679
0.611708
0.880702
1.14934
1.41733
1.68438
1.95022
2.21461
2.47731
2.73809
2.99675
3.25308
3.5069
3.75804
4.00635
4.25165
4.49381
4.73272
4.96825
5.20033
5.42887
5.65383
5.87517
6.09285
6.30685
6.51715
6.72373
6.92659
7.12569
7.32104
7.51264
7.70046
7.88452
8.0648
8.24129
8.41399
8.58292
8.74833
8.91018
9.07155
9.22353
-7.55344
-7.55361
-7.55397
-7.55443
-7.55457
-7.55395
-7.55223
-7.54978
-7.54773
-7.54715
-7.54843
-7.55154
-7.55606
-7.56137
-7.56686
-7.57201
-7.57641
-7.57983
-7.58207
-7.58296
-7.58245
-7.5808
-7.57839
-7.57569
-7.57316
-7.57115
-7.5698
-7.56899
-7.56845
-7.56795
-7.56747
-7.56711
-7.56679
-7.56636
-7.56568
-7.56479
-7.5642
-7.56473
-7.56692
-7.57046
-7.57425
-7.57713
-7.57856
-7.57896
-7.57876
-7.57798
-7.57759
-7.57974
-7.58602
-7.59331
-7.59978
-7.60878
-7.62248
-7.64179
-7.66938
-7.70745
-7.75614
-7.81368
-7.87779
-7.94619
-8.01657
-8.08688
-8.15586
-8.2224
-8.28519
-8.34388
-8.39873
-8.4497
-8.49693
-8.5405
-8.58052
-8.61707
-8.65016
-8.67981
-8.70595
-8.72854
-8.74741
-8.76246
-8.77349
-8.78038
-8.78288
-8.78089
-8.77417
-8.76264
-8.74609
-8.72445
-8.69755
-8.6653
-8.62762
-8.5845
-8.536
-8.48199
-8.42236
-8.35703
-8.28593
-8.20903
-8.1263
-8.03771
-7.94324
-7.8428
-7.73634
-7.62402
-7.50605
-7.38245
-7.25317
-7.11821
-6.97761
-6.8314
-6.67961
-6.52229
-6.35946
-6.19119
-6.01753
-5.83852
-5.65424
-5.46471
-5.27003
-5.07027
-4.86553
-4.65592
-4.44154
-4.22248
-3.99888
-3.77086
-3.53858
-3.30221
-3.06193
-2.81792
-2.5704
-2.31959
-2.06573
-1.80907
-1.54989
-1.28845
-1.02501
-0.759825
-0.493174
-0.225457
0.0428057
0.311407
0.58028
0.849143
1.1177
1.38563
1.65267
1.91854
2.183
2.4458
2.70672
2.96555
3.22209
3.47615
3.72755
3.97614
4.22176
4.46427
4.70353
4.93945
5.17192
5.40087
5.62625
5.848
6.0661
6.28052
6.49124
6.69825
6.90153
7.10107
7.29685
7.48888
7.67715
7.86166
8.04243
8.2195
8.39287
8.56257
8.72897
8.89136
9.05501
9.20644
-7.55461
-7.55462
-7.55469
-7.55482
-7.55496
-7.55497
-7.55501
-7.55557
-7.55719
-7.5601
-7.56419
-7.56916
-7.5746
-7.58011
-7.58528
-7.58982
-7.59348
-7.59612
-7.59767
-7.59807
-7.59727
-7.59538
-7.59256
-7.589
-7.58494
-7.58065
-7.57641
-7.57247
-7.56906
-7.56632
-7.56431
-7.56289
-7.56175
-7.56062
-7.55955
-7.55907
-7.55996
-7.56284
-7.56748
-7.57247
-7.57603
-7.57684
-7.57527
-7.57323
-7.57264
-7.57344
-7.57483
-7.57864
-7.58723
-7.60004
-7.61688
-7.63891
-7.66644
-7.69967
-7.73904
-7.78472
-7.83609
-7.89197
-7.95093
-8.01152
-8.07252
-8.13295
-8.19213
-8.2495
-8.30444
-8.35661
-8.40596
-8.4524
-8.49594
-8.53657
-8.57428
-8.60905
-8.64081
-8.6695
-8.69499
-8.71718
-8.73586
-8.75089
-8.76205
-8.76917
-8.77202
-8.77044
-8.76421
-8.75321
-8.73724
-8.71618
-8.6899
-8.65829
-8.62126
-8.57883
-8.531
-8.47766
-8.41872
-8.35408
-8.28371
-8.20757
-8.12565
-8.03793
-7.94441
-7.845
-7.73966
-7.62845
-7.51154
-7.38898
-7.26076
-7.1269
-6.98741
-6.84232
-6.69166
-6.53548
-6.37381
-6.2067
-6.0342
-5.85637
-5.67326
-5.48493
-5.29144
-5.09288
-4.88933
-4.68091
-4.4677
-4.2498
-4.02734
-3.80045
-3.56927
-3.33397
-3.09472
-2.85172
-2.60515
-2.35526
-2.10226
-1.84644
-1.58803
-1.32733
-1.06459
-0.800097
-0.534111
-0.267007
0.000791233
0.269039
0.537582
0.806158
1.07446
1.3422
1.60909
1.87487
2.13927
2.40207
2.66302
2.92192
3.17857
3.43277
3.68434
3.93314
4.17899
4.42176
4.66132
4.89754
5.13034
5.35962
5.58534
5.80743
6.02586
6.24061
6.45165
6.65897
6.86255
7.06238
7.25844
7.45073
7.63926
7.82402
8.00502
8.18227
8.35584
8.5258
8.69276
8.85548
9.02174
9.16876
-7.55555
-7.55531
-7.55498
-7.55493
-7.55581
-7.55807
-7.56167
-7.56631
-7.57166
-7.57743
-7.58337
-7.58923
-7.59479
-7.59986
-7.60427
-7.60786
-7.61051
-7.61216
-7.61275
-7.61227
-7.61069
-7.60808
-7.60452
-7.6001
-7.59491
-7.58906
-7.58271
-7.57606
-7.56941
-7.56311
-7.55749
-7.55273
-7.54892
-7.54626
-7.54518
-7.54652
-7.55064
-7.55658
-7.56249
-7.56666
-7.56849
-7.56843
-7.56784
-7.5685
-7.57131
-7.57666
-7.58516
-7.59766
-7.61498
-7.63732
-7.66439
-7.69587
-7.73135
-7.7705
-7.81296
-7.8584
-7.90651
-7.95686
-8.00885
-8.06175
-8.11487
-8.16762
-8.21951
-8.27013
-8.31914
-8.36625
-8.41131
-8.45421
-8.49485
-8.53316
-8.56906
-8.60247
-8.63326
-8.6613
-8.68642
-8.70846
-8.7272
-8.74242
-8.75391
-8.76144
-8.76479
-8.76376
-8.75813
-8.74774
-8.7324
-8.71199
-8.68636
-8.65539
-8.61902
-8.57724
-8.53006
-8.47738
-8.41909
-8.35512
-8.28542
-8.20998
-8.12876
-8.04177
-7.94899
-7.8504
-7.74597
-7.63575
-7.51984
-7.39826
-7.27104
-7.13819
-6.99973
-6.85569
-6.70609
-6.55098
-6.39039
-6.22436
-6.05297
-5.87624
-5.69425
-5.50704
-5.31469
-5.11726
-4.91486
-4.70757
-4.49548
-4.27869
-4.05733
-3.83151
-3.60138
-3.36711
-3.12885
-2.88681
-2.64116
-2.39214
-2.13997
-1.88493
-1.62726
-1.36724
-1.10514
-0.841231
-0.575828
-0.309276
-0.0419149
0.226001
0.494258
0.762578
1.03067
1.29823
1.56499
1.83067
2.09504
2.35783
2.61882
2.8778
3.13455
3.38888
3.64063
3.88962
4.13569
4.37871
4.61853
4.85504
5.08813
5.31772
5.54374
5.76614
5.98489
6.19994
6.41128
6.61889
6.82274
7.02283
7.21913
7.41164
7.60037
7.78531
7.9665
8.14394
8.31774
8.48791
8.65517
8.81771
8.98463
9.12515
-7.55748
-7.55698
-7.55656
-7.55755
-7.56109
-7.56683
-7.57376
-7.58112
-7.58844
-7.59539
-7.60184
-7.60768
-7.61288
-7.61735
-7.62102
-7.62379
-7.6256
-7.62638
-7.6261
-7.62475
-7.62231
-7.61881
-7.61429
-7.60881
-7.60242
-7.59519
-7.5872
-7.57854
-7.56942
-7.56018
-7.55129
-7.54338
-7.53716
-7.53357
-7.53356
-7.53713
-7.54256
-7.54811
-7.55295
-7.5567
-7.55961
-7.56252
-7.5666
-7.57296
-7.58249
-7.59607
-7.61416
-7.63649
-7.66235
-7.69141
-7.72337
-7.7579
-7.79482
-7.834
-7.87527
-7.91841
-7.96317
-8.00922
-8.05617
-8.10358
-8.15102
-8.19811
-8.24453
-8.28999
-8.33429
-8.37723
-8.41867
-8.4585
-8.49661
-8.53289
-8.56721
-8.59944
-8.62942
-8.65695
-8.68184
-8.70385
-8.72274
-8.73826
-8.75014
-8.75814
-8.76201
-8.76152
-8.75645
-8.74662
-8.73184
-8.71197
-8.68686
-8.6564
-8.6205
-8.57923
-8.53251
-8.4803
-8.42246
-8.35896
-8.28975
-8.21482
-8.13414
-8.04771
-7.95553
-7.85757
-7.75385
-7.64439
-7.52926
-7.40847
-7.28206
-7.15002
-7.0124
-6.8692
-6.72047
-6.56622
-6.40652
-6.24139
-6.07089
-5.89508
-5.71401
-5.52773
-5.33632
-5.13984
-4.93839
-4.73204
-4.52088
-4.30501
-4.08455
-3.85961
-3.63035
-3.3969
-3.15945
-2.91816
-2.67325
-2.42491
-2.17341
-1.91897
-1.66187
-1.40236
-1.14073
-0.877243
-0.612257
-0.346072
-0.0790092
0.188676
0.456739
0.724888
0.992832
1.26028
1.52696
1.7926
2.05694
2.31975
2.58079
2.83984
3.09669
3.35114
3.60303
3.85219
4.09844
4.34166
4.58168
4.81841
5.05173
5.28157
5.50783
5.73049
5.94948
6.16478
6.37636
6.58419
6.78827
6.98856
7.18507
7.37779
7.5667
7.75182
7.93316
8.11076
8.28468
8.45489
8.62209
8.78392
8.95034
9.08379
-7.56129
-7.56043
-7.56066
-7.5644
-7.57122
-7.57938
-7.58782
-7.596
-7.60362
-7.61057
-7.61684
-7.62241
-7.62723
-7.63124
-7.63437
-7.63655
-7.63772
-7.63784
-7.63688
-7.63484
-7.63169
-7.62748
-7.62221
-7.61592
-7.60858
-7.60024
-7.59097
-7.58091
-7.57026
-7.55934
-7.54884
-7.53969
-7.53305
-7.53003
-7.53053
-7.53318
-7.5366
-7.54046
-7.54507
-7.55073
-7.55759
-7.56583
-7.57644
-7.59052
-7.60848
-7.63016
-7.65508
-7.68287
-7.71307
-7.74531
-7.77938
-7.81506
-7.85223
-7.89073
-7.93044
-7.9712
-8.01282
-8.05507
-8.09771
-8.1405
-8.18319
-8.22556
-8.26743
-8.30864
-8.34903
-8.38849
-8.42691
-8.46418
-8.50019
-8.53482
-8.5679
-8.59926
-8.6287
-8.65598
-8.68086
-8.70306
-8.72229
-8.73826
-8.75067
-8.75923
-8.76369
-8.76378
-8.75928
-8.74997
-8.73568
-8.71624
-8.69153
-8.66142
-8.62587
-8.58486
-8.53844
-8.48647
-8.42889
-8.36563
-8.29669
-8.22204
-8.14169
-8.05561
-7.9638
-7.86628
-7.76303
-7.6541
-7.53952
-7.4193
-7.29347
-7.16204
-7.02503
-6.88246
-6.73437
-6.58079
-6.42175
-6.25731
-6.08751
-5.91241
-5.73206
-5.54651
-5.35583
-5.1601
-4.95939
-4.75378
-4.54335
-4.3282
-4.10844
-3.88419
-3.65558
-3.42276
-3.18591
-2.9452
-2.70082
-2.45298
-2.20194
-1.94792
-1.6912
-1.43203
-1.1707
-0.90751
-0.642779
-0.376817
-0.109919
0.157646
0.425608
0.693674
0.961549
1.22895
1.4956
1.76123
2.02559
2.28843
2.54952
2.80863
3.06556
3.32012
3.57211
3.82139
4.06778
4.31114
4.55131
4.78819
5.02166
5.25165
5.47807
5.70089
5.92003
6.13549
6.34723
6.55522
6.75944
6.95987
7.1565
7.34933
7.53834
7.72354
7.90495
8.08257
8.25646
8.4265
8.59334
8.75414
8.91984
9.04634
-7.56635
-7.56575
-7.56784
-7.57441
-7.58296
-7.59166
-7.60004
-7.60791
-7.61521
-7.62191
-7.62795
-7.63328
-7.63782
-7.6415
-7.64425
-7.64601
-7.64674
-7.6464
-7.64497
-7.64244
-7.63881
-7.63412
-7.62835
-7.62145
-7.61339
-7.60427
-7.59424
-7.5835
-7.57235
-7.56124
-7.55097
-7.54271
-7.53735
-7.53459
-7.53347
-7.5337
-7.53549
-7.53942
-7.5457
-7.5542
-7.56527
-7.57956
-7.59725
-7.61816
-7.64201
-7.66852
-7.69726
-7.72789
-7.76018
-7.79388
-7.82879
-7.86471
-7.90149
-7.93897
-7.97704
-8.01555
-8.05439
-8.09342
-8.13251
-8.17154
-8.2104
-8.24898
-8.2872
-8.32496
-8.3622
-8.39886
-8.43486
-8.47013
-8.50453
-8.53794
-8.57019
-8.60106
-8.63031
-8.65768
-8.68286
-8.70552
-8.72534
-8.74197
-8.75508
-8.76435
-8.76948
-8.77021
-8.76627
-8.75747
-8.7436
-8.72451
-8.70006
-8.67016
-8.63475
-8.59387
-8.54751
-8.49558
-8.43803
-8.3748
-8.30592
-8.23134
-8.15109
-8.06515
-7.97352
-7.87622
-7.77324
-7.66462
-7.55037
-7.43053
-7.30508
-7.17405
-7.03745
-6.89532
-6.74767
-6.59455
-6.43599
-6.27205
-6.10276
-5.92818
-5.74836
-5.56336
-5.37324
-5.17808
-4.97795
-4.7729
-4.56303
-4.34843
-4.12919
-3.90545
-3.67732
-3.44497
-3.20854
-2.96823
-2.7242
-2.47671
-2.22596
-1.97222
-1.71571
-1.45675
-1.19559
-0.932557
-0.667959
-0.402097
-0.135259
0.132275
0.400217
0.668271
0.936141
1.20355
1.47021
1.73587
2.00027
2.26315
2.52429
2.78346
3.04046
3.29508
3.54717
3.79653
4.04301
4.28644
4.5267
4.76365
4.99721
5.22727
5.45377
5.67666
5.89589
6.11143
6.32325
6.5313
6.73558
6.93605
7.13271
7.32555
7.51457
7.69976
7.88114
8.05867
8.2324
8.40211
8.56843
8.72808
8.89309
9.01304
-7.57066
-7.57113
-7.57574
-7.58372
-7.59222
-7.6004
-7.60824
-7.61571
-7.62273
-7.62922
-7.63508
-7.64023
-7.64458
-7.64805
-7.65057
-7.65209
-7.65256
-7.65196
-7.65026
-7.64746
-7.64359
-7.63863
-7.6325
-7.62515
-7.61674
-7.60748
-7.59748
-7.58693
-7.57626
-7.5662
-7.55769
-7.55118
-7.54609
-7.54186
-7.53901
-7.53855
-7.5407
-7.5457
-7.55416
-7.56642
-7.58226
-7.60141
-7.62358
-7.64845
-7.67564
-7.70482
-7.73568
-7.76793
-7.80134
-7.83569
-7.87077
-7.90642
-7.94247
-7.97879
-8.01527
-8.05179
-8.08827
-8.12464
-8.16086
-8.19686
-8.23263
-8.26815
-8.30339
-8.33838
-8.37311
-8.40755
-8.44168
-8.47543
-8.50871
-8.54136
-8.5732
-8.60399
-8.63346
-8.66128
-8.6871
-8.71055
-8.73124
-8.74878
-8.76279
-8.77292
-8.77884
-8.78026
-8.77692
-8.76859
-8.75508
-8.73623
-8.71193
-8.68208
-8.64665
-8.60566
-8.55917
-8.50709
-8.44935
-8.38596
-8.31691
-8.24221
-8.16186
-8.07587
-7.98424
-7.88697
-7.78407
-7.67558
-7.56149
-7.44182
-7.31657
-7.18576
-7.04941
-6.90753
-6.76016
-6.60733
-6.44908
-6.28547
-6.11652
-5.94231
-5.76287
-5.57828
-5.38858
-5.19385
-4.99414
-4.78952
-4.58007
-4.36587
-4.14703
-3.92365
-3.69587
-3.46384
-3.2277
-2.98765
-2.74386
-2.49656
-2.24599
-1.99238
-1.73599
-1.47711
-1.21602
-0.953035
-0.68847
-0.42261
-0.155745
0.111828
0.379813
0.647909
0.915826
1.18328
1.44999
1.71571
1.98016
2.2431
2.5043
2.76352
3.02057
3.27525
3.52739
3.77682
4.02335
4.26683
4.50712
4.7441
4.97767
5.20775
5.43428
5.65718
5.87643
6.09199
6.30382
6.51187
6.71613
6.91658
7.1132
7.30599
7.49495
7.68007
7.86133
8.03871
8.21218
8.38147
8.54719
8.70568
8.87006
8.98402
-7.5724
-7.57437
-7.5808
-7.58879
-7.59665
-7.60431
-7.61178
-7.61899
-7.62584
-7.63222
-7.638
-7.6431
-7.64739
-7.6508
-7.65327
-7.65472
-7.65513
-7.65447
-7.65272
-7.64988
-7.64596
-7.64088
-7.6346
-7.62721
-7.61896
-7.61
-7.6005
-7.5909
-7.5817
-7.5734
-7.56621
-7.55986
-7.55413
-7.54937
-7.54655
-7.54661
-7.55014
-7.55752
-7.56893
-7.58417
-7.60289
-7.62477
-7.64942
-7.67645
-7.70552
-7.73626
-7.76838
-7.80159
-7.83563
-7.87027
-7.90532
-7.94058
-7.9759
-8.01114
-8.0462
-8.08098
-8.11546
-8.14959
-8.18338
-8.21684
-8.25002
-8.28297
-8.31578
-8.34849
-8.38118
-8.41388
-8.4466
-8.4793
-8.51189
-8.54422
-8.57609
-8.60723
-8.63732
-8.66599
-8.69283
-8.71742
-8.73928
-8.75799
-8.77311
-8.78426
-8.79108
-8.79326
-8.79052
-8.78263
-8.76941
-8.75071
-8.72641
-8.69645
-8.66079
-8.61956
-8.57271
-8.52028
-8.46216
-8.39841
-8.32901
-8.25401
-8.17339
-8.08717
-7.99536
-7.89796
-7.79499
-7.68645
-7.57236
-7.45272
-7.32752
-7.19678
-7.06052
-6.91875
-6.77151
-6.61884
-6.46077
-6.29735
-6.12862
-5.95465
-5.77548
-5.59117
-5.40178
-5.20736
-5.00797
-4.80367
-4.59452
-4.38062
-4.16205
-3.93893
-3.71139
-3.47956
-3.24362
-3.0037
-2.76004
-2.51283
-2.26233
-2.00875
-1.7524
-1.49351
-1.23241
-0.969395
-0.70478
-0.438848
-0.171897
0.0957648
0.363836
0.632015
0.900009
1.16754
1.43432
1.7001
1.96461
2.2276
2.48884
2.74811
3.0052
3.25991
3.51209
3.76155
4.00811
4.25159
4.49187
4.72883
4.96237
5.19242
5.4189
5.64177
5.86098
6.07651
6.28829
6.49629
6.70048
6.90084
7.09738
7.29007
7.47892
7.66391
7.84501
8.02217
8.19533
8.36415
8.52921
8.68656
8.85037
8.95901
-7.57014
-7.57351
-7.58044
-7.58795
-7.59542
-7.60285
-7.61017
-7.61732
-7.62416
-7.63059
-7.63646
-7.64167
-7.64611
-7.64967
-7.65229
-7.6539
-7.65446
-7.65393
-7.65229
-7.64954
-7.64565
-7.6406
-7.63441
-7.62727
-7.61941
-7.61108
-7.60261
-7.59431
-7.58629
-7.57864
-7.57151
-7.565
-7.55941
-7.55542
-7.55393
-7.55568
-7.56112
-7.57045
-7.58372
-7.60075
-7.62119
-7.64472
-7.6709
-7.69934
-7.72966
-7.76151
-7.79456
-7.8285
-7.86306
-7.89796
-7.93299
-7.96795
-8.00266
-8.03696
-8.0708
-8.10407
-8.13679
-8.16894
-8.20059
-8.23182
-8.26274
-8.29347
-8.32417
-8.35496
-8.38597
-8.41729
-8.44897
-8.481
-8.5133
-8.54572
-8.57803
-8.60993
-8.64105
-8.67096
-8.6992
-8.72525
-8.7486
-8.76874
-8.78519
-8.79753
-8.80536
-8.80835
-8.80623
-8.79876
-8.78576
-8.76709
-8.74267
-8.71243
-8.67643
-8.63467
-8.58733
-8.53432
-8.47564
-8.41133
-8.34143
-8.26595
-8.18491
-8.09832
-8.00618
-7.90852
-7.80534
-7.69664
-7.58242
-7.46267
-7.3374
-7.20661
-7.07032
-6.92855
-6.78134
-6.62871
-6.47071
-6.30738
-6.13877
-5.96494
-5.78595
-5.60185
-5.41268
-5.2185
-5.01934
-4.81527
-4.60636
-4.39267
-4.1743
-3.95136
-3.72397
-3.49228
-3.25643
-3.01659
-2.77297
-2.52578
-2.27526
-2.02166
-1.76526
-1.50633
-1.24516
-0.982059
-0.717336
-0.45128
-0.184204
0.0835798
0.351765
0.62005
0.888139
1.15575
1.42262
1.68846
1.95303
2.21607
2.47735
2.73665
2.99376
3.24849
3.50069
3.75017
3.99672
4.24017
4.48039
4.71728
4.95074
5.18071
5.40711
5.62989
5.84902
6.06447
6.27618
6.48408
6.68815
6.88839
7.08479
7.27734
7.46604
7.65086
7.83177
8.00867
8.18147
8.34978
8.51418
8.67042
8.83366
8.93768
-7.5621
-7.5663
-7.5731
-7.58047
-7.588
-7.59554
-7.603
-7.6103
-7.61735
-7.62403
-7.63019
-7.63571
-7.64046
-7.64435
-7.64727
-7.64916
-7.64996
-7.64966
-7.64822
-7.64563
-7.64189
-7.63704
-7.63122
-7.62461
-7.61743
-7.60984
-7.60197
-7.59401
-7.5861
-7.57841
-7.57121
-7.56498
-7.5602
-7.55747
-7.55744
-7.56072
-7.56771
-7.57859
-7.59334
-7.6118
-7.63364
-7.65852
-7.686
-7.71569
-7.7472
-7.78015
-7.81419
-7.84897
-7.88417
-7.9195
-7.95469
-7.9895
-8.02375
-8.05731
-8.09008
-8.122
-8.1531
-8.18342
-8.21308
-8.24222
-8.27103
-8.29973
-8.32851
-8.35757
-8.3871
-8.41726
-8.44814
-8.47976
-8.51207
-8.54491
-8.57804
-8.61112
-8.6437
-8.67529
-8.70532
-8.73321
-8.75837
-8.78022
-8.79821
-8.81186
-8.82078
-8.82462
-8.8231
-8.81598
-8.80311
-8.78437
-8.75968
-8.72903
-8.69241
-8.65002
-8.60192
-8.54814
-8.48874
-8.42372
-8.35316
-8.27707
-8.19549
-8.10842
-8.01586
-7.91784
-7.81434
-7.70538
-7.59093
-7.471
-7.34556
-7.21464
-7.07824
-6.93639
-6.78913
-6.63649
-6.4785
-6.3152
-6.14664
-5.97289
-5.79403
-5.61008
-5.42109
-5.22709
-5.02812
-4.82424
-4.61549
-4.40197
-4.18376
-3.96095
-3.73367
-3.50206
-3.26626
-3.02646
-2.78283
-2.53561
-2.28503
-2.03137
-1.77489
-1.51588
-1.2546
-0.991388
-0.726533
-0.460337
-0.193126
0.0747869
0.343092
0.611488
0.879681
1.14739
1.41433
1.68024
1.94486
2.20794
2.46924
2.72855
2.98566
3.24038
3.49257
3.74205
3.98856
4.23192
4.47204
4.70881
4.94216
5.17199
5.39827
5.62092
5.83994
6.05529
6.2669
6.47465
6.67857
6.87865
7.07489
7.26727
7.45579
7.64043
7.82113
7.99774
8.17017
8.33794
8.50168
8.65687
8.81954
8.91964
-7.54671
-7.55111
-7.558
-7.56594
-7.57407
-7.58205
-7.58985
-7.59748
-7.60489
-7.61198
-7.61859
-7.62457
-7.62976
-7.63406
-7.63739
-7.63966
-7.64083
-7.64086
-7.63975
-7.63748
-7.63411
-7.62968
-7.62429
-7.61805
-7.61113
-7.60364
-7.59574
-7.58757
-7.57937
-7.5715
-7.5644
-7.55853
-7.55439
-7.55263
-7.55381
-7.55847
-7.56689
-7.57924
-7.59546
-7.61538
-7.63868
-7.66501
-7.69395
-7.72511
-7.75806
-7.79242
-7.82776
-7.86369
-7.89985
-7.93587
-7.97146
-8.00635
-8.04036
-8.0733
-8.10513
-8.13577
-8.16529
-8.19376
-8.2214
-8.2484
-8.27506
-8.30164
-8.32846
-8.35581
-8.38394
-8.41306
-8.44333
-8.47479
-8.5074
-8.54103
-8.57538
-8.61006
-8.64454
-8.67822
-8.71044
-8.74052
-8.76776
-8.79148
-8.8111
-8.82611
-8.83611
-8.84077
-8.83979
-8.83295
-8.8201
-8.80114
-8.77604
-8.74477
-8.70743
-8.66414
-8.61513
-8.56046
-8.50018
-8.43435
-8.36304
-8.28628
-8.20408
-8.11645
-8.02341
-7.92496
-7.82111
-7.71183
-7.59711
-7.47693
-7.3513
-7.2202
-7.08366
-6.94171
-6.79437
-6.64168
-6.48368
-6.32039
-6.15186
-5.97818
-5.79943
-5.61562
-5.42678
-5.23294
-5.03413
-4.83041
-4.62183
-4.40847
-4.1904
-3.96772
-3.74055
-3.50902
-3.27328
-3.03352
-2.7899
-2.54265
-2.29202
-2.0383
-1.78173
-1.5226
-1.2612
-0.997856
-0.732855
-0.46652
-0.199171
0.0688691
0.337295
0.605799
0.87409
1.14188
1.40889
1.67485
1.93951
2.20261
2.46392
2.72321
2.98029
3.23497
3.48717
3.73665
3.9831
4.22634
4.46631
4.70293
4.93612
5.1658
5.39191
5.61441
5.83328
6.04853
6.26002
6.46761
6.67135
6.87124
7.06729
7.25948
7.44781
7.63225
7.81273
7.98905
8.16107
8.32831
8.4914
8.6456
8.80767
8.90454
-7.52343
-7.52765
-7.53528
-7.54445
-7.55353
-7.56207
-7.57028
-7.57836
-7.58632
-7.59406
-7.60135
-7.60799
-7.61378
-7.61865
-7.62252
-7.62531
-7.62699
-7.62751
-7.62685
-7.625
-7.62198
-7.61783
-7.61261
-7.60641
-7.59933
-7.5915
-7.5831
-7.5744
-7.56576
-7.55757
-7.5503
-7.54451
-7.5408
-7.53979
-7.54201
-7.54791
-7.55772
-7.57157
-7.58935
-7.6109
-7.63589
-7.66398
-7.69474
-7.72779
-7.76264
-7.79887
-7.836
-7.87356
-7.9111
-7.9482
-7.98452
-8.01972
-8.0536
-8.08598
-8.1168
-8.14601
-8.17376
-8.20019
-8.22559
-8.25024
-8.27454
-8.29886
-8.32362
-8.3492
-8.37593
-8.40411
-8.43394
-8.4655
-8.49876
-8.53351
-8.56942
-8.60603
-8.6427
-8.67874
-8.71337
-8.7458
-8.77523
-8.80087
-8.82209
-8.83839
-8.84943
-8.85487
-8.8544
-8.84777
-8.83485
-8.81556
-8.7899
-8.7579
-8.71962
-8.67539
-8.62532
-8.56966
-8.50844
-8.44176
-8.36966
-8.29219
-8.20935
-8.12116
-8.02761
-7.92872
-7.82449
-7.71489
-7.5999
-7.4795
-7.35368
-7.22242
-7.08575
-6.94369
-6.7963
-6.6436
-6.48562
-6.32237
-6.1539
-5.9803
-5.80167
-5.61799
-5.42929
-5.2356
-5.03694
-4.83338
-4.62498
-4.4118
-4.19391
-3.97139
-3.74437
-3.51296
-3.27735
-3.03767
-2.79413
-2.54691
-2.2963
-2.04256
-1.78593
-1.52668
-1.26518
-1.00171
-0.736594
-0.47015
-0.202701
0.0654333
0.333942
0.60252
0.870869
1.1387
1.40574
1.67172
1.93637
2.19945
2.46071
2.71995
2.97695
3.23157
3.48378
3.73333
3.97972
4.2228
4.46259
4.69903
4.93203
5.16153
5.38746
5.60979
5.8285
6.04368
6.25507
6.46248
6.66601
6.86571
7.06156
7.25356
7.44169
7.62594
7.8062
7.98222
8.15385
8.32056
8.483
8.63627
8.79771
8.89203
-7.49295
-7.49735
-7.50631
-7.51711
-7.52719
-7.53625
-7.54499
-7.55383
-7.56266
-7.57131
-7.57955
-7.58707
-7.59363
-7.59915
-7.60365
-7.60708
-7.60939
-7.61049
-7.61034
-7.60888
-7.60612
-7.60204
-7.59669
-7.59012
-7.58247
-7.57389
-7.56467
-7.5551
-7.54562
-7.53671
-7.52896
-7.52301
-7.51948
-7.519
-7.52203
-7.52901
-7.54011
-7.55543
-7.57487
-7.59826
-7.62527
-7.65558
-7.6887
-7.72421
-7.76156
-7.80024
-7.83969
-7.87933
-7.91867
-7.95716
-7.99441
-8.03005
-8.06382
-8.09551
-8.1251
-8.15262
-8.17826
-8.20228
-8.22507
-8.24707
-8.26877
-8.29066
-8.31324
-8.337
-8.36232
-8.38958
-8.41904
-8.45081
-8.48484
-8.52086
-8.55851
-8.5972
-8.6362
-8.67464
-8.71163
-8.74636
-8.77787
-8.80532
-8.82797
-8.84551
-8.85761
-8.86396
-8.8641
-8.85775
-8.84473
-8.82508
-8.7988
-8.76605
-8.72689
-8.68155
-8.63045
-8.57371
-8.5115
-8.44389
-8.37095
-8.29273
-8.20921
-8.1204
-8.02629
-7.92691
-7.82226
-7.71232
-7.59705
-7.47642
-7.3504
-7.21898
-7.08216
-6.94
-6.79255
-6.63984
-6.48192
-6.31881
-6.15054
-5.97713
-5.79862
-5.61504
-5.42644
-5.23287
-5.03436
-4.83096
-4.62271
-4.40968
-4.19193
-3.96955
-3.74265
-3.51137
-3.27587
-3.03631
-2.7929
-2.54584
-2.29539
-2.04177
-1.78524
-1.52607
-1.2646
-1.00114
-0.736035
-0.469604
-0.202182
0.0659163
0.334374
0.602886
0.871151
1.13888
1.4058
1.67163
1.93611
2.199
2.46005
2.71906
2.9758
3.23017
3.48224
3.73171
3.97793
4.22078
4.46033
4.69654
4.92932
5.15861
5.38434
5.60647
5.82506
6.04025
6.25162
6.45885
6.66218
6.86167
7.05733
7.24916
7.43711
7.6212
7.8013
7.97704
8.14827
8.31446
8.4763
8.62869
8.78943
8.88188
-7.45779
-7.46299
-7.47377
-7.48652
-7.49771
-7.50726
-7.51634
-7.52581
-7.5357
-7.54561
-7.55514
-7.56388
-7.57138
-7.57757
-7.58269
-7.58679
-7.58976
-7.59146
-7.59179
-7.59064
-7.58797
-7.58371
-7.57792
-7.57064
-7.56206
-7.55233
-7.54181
-7.53089
-7.52012
-7.51009
-7.50148
-7.49497
-7.49121
-7.49084
-7.49432
-7.50206
-7.51422
-7.53094
-7.55209
-7.57754
-7.60693
-7.63991
-7.67594
-7.71451
-7.755
-7.79672
-7.83902
-7.8812
-7.92262
-7.96269
-8.00094
-8.03691
-8.07037
-8.10111
-8.12915
-8.15459
-8.17771
-8.19894
-8.21875
-8.23775
-8.25651
-8.27569
-8.29583
-8.31751
-8.34119
-8.36733
-8.39624
-8.42811
-8.4628
-8.50003
-8.53934
-8.58006
-8.62122
-8.66171
-8.70072
-8.7373
-8.77058
-8.79947
-8.82342
-8.84225
-8.85576
-8.86339
-8.86449
-8.85872
-8.84599
-8.82643
-8.80025
-8.76735
-8.72798
-8.68225
-8.63042
-8.57274
-8.50948
-8.4408
-8.36684
-8.28766
-8.20327
-8.11368
-8.01887
-7.91888
-7.8137
-7.70331
-7.58764
-7.46667
-7.34034
-7.20864
-7.07157
-6.9292
-6.78158
-6.62876
-6.47078
-6.3077
-6.13953
-5.96623
-5.78777
-5.60424
-5.4157
-5.22222
-5.02383
-4.82057
-4.61246
-4.39957
-4.18195
-3.95971
-3.73294
-3.50179
-3.2664
-3.02697
-2.7837
-2.53682
-2.28653
-2.03305
-1.77665
-1.51762
-1.25626
-0.992892
-0.727871
-0.461538
-0.194223
0.0737518
0.342071
0.610421
0.878503
1.14602
1.4127
1.67825
1.94243
2.20497
2.46565
2.72422
2.98048
3.23422
3.48528
3.73356
3.97893
4.22125
4.46037
4.69617
4.92857
5.15747
5.38283
5.60458
5.82287
6.03794
6.2492
6.45619
6.6593
6.85861
7.0541
7.24576
7.43357
7.6176
7.79765
7.97319
8.14404
8.30974
8.47101
8.62258
8.78259
8.87381
-7.42029
-7.42656
-7.43962
-7.45433
-7.46592
-7.4756
-7.48554
-7.49622
-7.50725
-7.51831
-7.52907
-7.53904
-7.54764
-7.55478
-7.56077
-7.56573
-7.56953
-7.57195
-7.57282
-7.57197
-7.56933
-7.56478
-7.55836
-7.55008
-7.54018
-7.52885
-7.51658
-7.50379
-7.49116
-7.47934
-7.46912
-7.46123
-7.45641
-7.45534
-7.45849
-7.46639
-7.47917
-7.49706
-7.51989
-7.54759
-7.57969
-7.61587
-7.6554
-7.69773
-7.74195
-7.78731
-7.83293
-7.87801
-7.92177
-7.96345
-8.00257
-8.03865
-8.07149
-8.10084
-8.1269
-8.14976
-8.16998
-8.18788
-8.20427
-8.21971
-8.23507
-8.25103
-8.26835
-8.28763
-8.3094
-8.33409
-8.36223
-8.394
-8.42915
-8.46728
-8.50785
-8.55001
-8.59263
-8.63475
-8.67554
-8.71438
-8.75028
-8.78189
-8.80885
-8.83033
-8.84616
-8.85533
-8.85759
-8.85228
-8.83975
-8.82012
-8.7937
-8.76056
-8.72076
-8.67446
-8.62183
-8.56318
-8.49884
-8.42908
-8.35405
-8.27388
-8.18863
-8.09831
-8.0029
-7.90242
-7.79686
-7.68613
-7.57019
-7.44897
-7.32244
-7.19056
-7.05335
-6.91087
-6.76317
-6.61029
-6.45228
-6.28918
-6.12101
-5.94774
-5.76937