/*--------------------------------*- C++ -*----------------------------------*\
  =========                 |
  \\      /  F ield         | OpenFOAM: The Open Source CFD Toolbox
   \\    /   O peration     | Website:  https://openfoam.org
    \\  /    A nd           | Version:  13
     \\/     M anipulation  |
\*---------------------------------------------------------------------------*/
FoamFile
{
    format      ascii;
    class       surfaceScalarField;
    location    "1700";
    object      phi;
}
// * * * * * * * * * * * * * * * * * * * * * * * * * * * * * * * * * * * * * //

dimensions      [0 3 -1 0 0 0 0];

internalField   nonuniform List<scalar> 
24170
(
3.04e-06
1.48394e-07
2.87805e-06
1.6197e-07
2.73364e-06
1.44473e-07
2.60416e-06
1.29666e-07
2.48993e-06
1.14262e-07
2.39174e-06
9.83148e-08
2.30918e-06
8.26635e-08
2.24187e-06
6.73992e-08
2.18794e-06
5.40391e-08
2.14526e-06
4.27281e-08
2.11123e-06
3.41096e-08
2.08297e-06
2.82775e-08
2.06008e-06
2.29427e-08
2.04219e-06
1.79183e-08
2.02935e-06
1.29018e-08
2.02268e-06
6.71334e-09
2.02176e-06
9.58744e-10
-5.07422e-09
2.02687e-06
3.49596e-06
6.96932e-08
3.54436e-06
1.13667e-07
3.57269e-06
1.16182e-07
3.58462e-06
1.17962e-07
3.58104e-06
1.18008e-07
3.56547e-06
1.14163e-07
3.54173e-06
1.06673e-07
3.51193e-06
9.7482e-08
3.47937e-06
8.68622e-08
3.44595e-06
7.63304e-08
3.41194e-06
6.82647e-08
3.3782e-06
6.2115e-08
3.34523e-06
5.59884e-08
3.314e-06
4.92049e-08
3.28466e-06
4.22858e-08
3.25565e-06
3.57498e-08
3.22702e-06
2.95887e-08
2.25551e-08
3.19936e-06
3.67883e-06
5.33662e-08
3.69513e-06
9.74079e-08
3.71085e-06
1.00608e-07
3.72856e-06
1.00424e-07
3.74627e-06
1.00377e-07
3.76235e-06
9.81729e-08
3.77595e-06
9.31453e-08
3.78657e-06
8.69022e-08
3.79384e-06
7.96578e-08
3.79795e-06
7.2258e-08
3.79995e-06
6.63297e-08
3.80027e-06
6.18301e-08
3.79886e-06
5.74425e-08
3.79583e-06
5.22653e-08
3.79128e-06
4.68583e-08
3.78554e-06
4.1491e-08
3.77888e-06
3.62436e-08
3.00509e-08
3.77138e-06
3.93526e-06
4.351e-08
3.94657e-06
8.62237e-08
3.95387e-06
9.34835e-08
3.96048e-06
9.40933e-08
3.96693e-06
9.41787e-08
3.97346e-06
9.19349e-08
3.97986e-06
8.70014e-08
3.98611e-06
8.09008e-08
3.99191e-06
7.40798e-08
3.99716e-06
6.71924e-08
4.00223e-06
6.14253e-08
4.00737e-06
5.68051e-08
4.01244e-06
5.24648e-08
4.01706e-06
4.77122e-08
4.02111e-06
4.28421e-08
4.02459e-06
3.80217e-08
4.02762e-06
3.3197e-08
2.79217e-08
4.02971e-06
4.21512e-06
3.55065e-08
4.22566e-06
7.5713e-08
4.23295e-06
8.63072e-08
4.23888e-06
8.82527e-08
4.24443e-06
8.86738e-08
4.24964e-06
8.67548e-08
4.25436e-06
8.23145e-08
4.25863e-06
7.66442e-08
4.26235e-06
7.03879e-08
4.2655e-06
6.40822e-08
4.2684e-06
5.85603e-08
4.27139e-06
5.38567e-08
4.27448e-06
4.94145e-08
4.27743e-06
4.47816e-08
4.28018e-06
4.01119e-08
4.2827e-06
3.55002e-08
4.285e-06
3.08941e-08
2.60657e-08
4.28686e-06
4.51559e-06
2.90118e-08
4.52497e-06
6.64691e-08
4.53251e-06
7.89283e-08
4.53888e-06
8.20768e-08
4.54478e-06
8.29679e-08
4.55019e-06
8.15437e-08
4.55498e-06
7.77009e-08
4.55922e-06
7.25618e-08
4.56289e-06
6.6865e-08
4.56599e-06
6.1114e-08
4.56877e-06
5.58872e-08
4.57148e-06
5.12332e-08
4.57417e-06
4.67905e-08
4.57671e-06
4.22903e-08
4.57904e-06
3.78056e-08
4.58116e-06
3.33851e-08
4.58304e-06
2.90093e-08
2.45189e-08
4.58457e-06
4.83788e-06
2.38448e-08
4.84634e-06
5.80204e-08
4.85382e-06
7.1516e-08
4.86039e-06
7.55562e-08
4.8665e-06
7.68738e-08
4.87213e-06
7.59232e-08
4.87712e-06
7.27126e-08
4.88153e-06
6.81599e-08
4.88538e-06
6.30245e-08
4.88871e-06
5.78011e-08
4.89171e-06
5.29027e-08
4.89456e-06
4.84e-08
4.89731e-06
4.40626e-08
4.89988e-06
3.97369e-08
4.90223e-06
3.54643e-08
4.90434e-06
3.12779e-08
4.90616e-06
2.71823e-08
2.30781e-08
4.90765e-06
5.18369e-06
1.97454e-08
5.19155e-06
5.02875e-08
5.19891e-06
6.42874e-08
5.20545e-06
6.91359e-08
5.2116e-06
7.08479e-08
5.21736e-06
7.02676e-08
5.22257e-06
6.76086e-08
5.22719e-06
6.36239e-08
5.23128e-06
5.90212e-08
5.23487e-06
5.42708e-08
5.23813e-06
4.97017e-08
5.24118e-06
4.5391e-08
5.24405e-06
4.12251e-08
5.24671e-06
3.7107e-08
5.24912e-06
3.30646e-08
5.25128e-06
2.91296e-08
5.25313e-06
2.53407e-08
2.15895e-08
5.25463e-06
5.55469e-06
1.63984e-08
5.5619e-06
4.30765e-08
5.56913e-06
5.7089e-08
5.57573e-06
6.25618e-08
5.58195e-06
6.46272e-08
5.58783e-06
6.4382e-08
5.59322e-06
6.22211e-08
5.59805e-06
5.87887e-08
5.60235e-06
5.47171e-08
5.6062e-06
5.04336e-08
5.60968e-06
4.62166e-08
5.61292e-06
4.21606e-08
5.61593e-06
3.82206e-08
5.6187e-06
3.43537e-08
5.62119e-06
3.05739e-08
5.62341e-06
2.69125e-08
5.62534e-06
2.34152e-08
2.00381e-08
5.62695e-06
5.95256e-06
1.36174e-08
5.95903e-06
3.67307e-08
5.96603e-06
5.02002e-08
5.97267e-06
5.60272e-08
5.979e-06
5.83788e-08
5.98502e-06
5.84441e-08
5.99059e-06
5.67234e-08
5.99565e-06
5.37967e-08
6.0002e-06
5.02186e-08
6.0043e-06
4.63801e-08
6.00803e-06
4.25237e-08
6.01147e-06
3.87519e-08
6.01464e-06
3.50666e-08
6.01754e-06
3.14645e-08
6.02016e-06
2.79602e-08
6.02249e-06
2.45911e-08
6.02453e-06
2.13958e-08
1.83247e-08
6.02627e-06
6.37914e-06
1.13049e-08
6.38488e-06
3.09797e-08
6.39155e-06
4.35637e-08
6.39814e-06
4.94629e-08
6.40455e-06
5.19926e-08
6.41069e-06
5.23195e-08
6.41644e-06
5.0997e-08
6.42172e-06
4.85365e-08
6.42652e-06
4.54321e-08
6.43089e-06
4.20288e-08
6.43488e-06
3.85482e-08
6.43855e-06
3.5094e-08
6.44192e-06
3.17108e-08
6.44499e-06
2.83924e-08
6.44777e-06
2.5189e-08
6.45024e-06
2.21141e-08
6.45243e-06
1.92117e-08
1.64659e-08
6.45434e-06
5.74253e-06
9.59647e-09
5.74686e-06
2.67243e-08
5.75219e-06
3.83096e-08
5.75766e-06
4.40429e-08
5.76308e-06
4.6624e-08
5.76832e-06
4.71104e-08
5.77329e-06
4.60661e-08
5.7779e-06
4.39527e-08
5.78214e-06
4.12099e-08
5.78602e-06
3.81541e-08
5.78959e-06
3.49873e-08
5.79288e-06
3.1829e-08
5.79588e-06
2.86912e-08
5.79863e-06
2.56588e-08
5.80111e-06
2.26965e-08
5.80334e-06
1.98981e-08
5.80532e-06
1.72485e-08
1.47604e-08
5.80706e-06
6.99986e-06
7.90967e-09
7.00433e-06
2.22714e-08
7.01007e-06
3.26137e-08
7.01616e-06
3.79957e-08
7.0223e-06
4.05228e-08
7.02832e-06
4.11308e-08
7.03408e-06
4.03447e-08
7.03947e-06
3.85837e-08
7.04449e-06
3.62199e-08
7.04912e-06
3.35407e-08
7.0534e-06
3.07324e-08
7.05734e-06
2.78859e-08
7.06097e-06
2.50887e-08
7.06427e-06
2.23351e-08
7.06728e-06
1.97089e-08
7.06998e-06
1.71892e-08
7.07242e-06
1.48526e-08
1.26204e-08
7.07457e-06
8.53253e-06
6.21621e-09
8.53709e-06
1.77548e-08
8.54317e-06
2.65558e-08
8.54983e-06
3.1336e-08
8.55669e-06
3.36868e-08
8.5635e-06
3.43313e-08
8.57008e-06
3.37773e-08
8.57632e-06
3.23477e-08
8.58217e-06
3.03812e-08
8.58763e-06
2.80963e-08
8.5927e-06
2.56888e-08
8.59739e-06
2.32173e-08
8.6017e-06
2.07776e-08
8.60566e-06
1.83909e-08
8.60925e-06
1.61036e-08
8.61253e-06
1.39385e-08
8.61547e-06
1.19071e-08
1.00087e-08
8.61816e-06
1.04009e-05
4.5714e-09
1.04054e-05
1.31917e-08
1.04118e-05
2.02051e-08
1.0419e-05
2.41309e-08
1.04266e-05
2.61134e-08
1.04342e-05
2.67118e-08
1.04416e-05
2.6302e-08
1.04488e-05
2.51949e-08
1.04555e-05
2.36008e-08
1.04619e-05
2.17679e-08
1.04678e-05
1.97594e-08
1.04734e-05
1.77404e-08
1.04784e-05
1.56903e-08
1.04831e-05
1.37298e-08
1.04874e-05
1.18172e-08
1.04913e-05
1.00441e-08
1.04949e-05
8.35516e-09
6.79647e-09
1.04981e-05
1.26784e-05
2.93597e-09
1.2683e-05
8.62028e-09
1.26896e-05
1.35901e-08
1.26973e-05
1.63883e-08
1.27056e-05
1.78226e-08
1.27141e-05
1.82214e-08
1.27225e-05
1.78948e-08
1.27306e-05
1.7033e-08
1.27384e-05
1.58353e-08
1.27457e-05
1.44082e-08
1.27526e-05
1.2894e-08
1.2759e-05
1.13087e-08
1.2765e-05
9.7563e-09
1.27705e-05
8.21931e-09
1.27756e-05
6.77569e-09
1.27802e-05
5.39413e-09
1.27845e-05
4.12814e-09
2.92552e-09
1.27883e-05
1.54548e-05
1.30032e-09
1.54595e-05
3.93278e-09
1.54664e-05
6.65652e-09
1.54747e-05
8.06651e-09
1.54838e-05
8.72812e-09
1.54932e-05
8.78915e-09
1.55027e-05
8.4296e-09
1.5512e-05
7.76663e-09
1.55209e-05
6.9077e-09
1.55294e-05
5.92753e-09
1.55374e-05
4.88709e-09
1.55449e-05
3.82551e-09
1.55519e-05
2.77841e-09
1.55584e-05
1.76484e-09
1.55643e-05
8.05096e-10
1.55698e-05
-9.16401e-11
1.55749e-05
-9.20058e-10
-1.68424e-09
1.55795e-05
1.88394e-05
-4.38462e-10
1.88443e-05
-1.05776e-09
1.88519e-05
-8.57616e-10
1.88611e-05
-1.12307e-09
1.88713e-05
-1.46249e-09
1.8882e-05
-1.89564e-09
1.88928e-05
-2.38703e-09
1.89035e-05
-2.90768e-09
1.89139e-05
-3.44058e-09
1.89238e-05
-3.96668e-09
1.89332e-05
-4.48049e-09
1.8942e-05
-4.97012e-09
1.89502e-05
-5.4333e-09
1.89579e-05
-5.86175e-09
1.8965e-05
-6.25508e-09
1.89715e-05
-6.60625e-09
1.89775e-05
-6.92019e-09
-7.19498e-09
1.8983e-05
2.29654e-05
-2.48041e-09
2.29712e-05
-6.86535e-09
2.29801e-05
-9.69496e-09
2.2991e-05
-1.19949e-08
2.30032e-05
-1.35612e-08
2.30159e-05
-1.46261e-08
2.30289e-05
-1.52994e-08
2.30417e-05
-1.56804e-08
2.30541e-05
-1.58298e-08
2.3066e-05
-1.58201e-08
2.30772e-05
-1.56995e-08
2.30878e-05
-1.55059e-08
2.30976e-05
-1.52662e-08
2.31068e-05
-1.49992e-08
2.31152e-05
-1.47166e-08
2.31231e-05
-1.44271e-08
2.31303e-05
-1.41354e-08
-1.38499e-08
2.3137e-05
1.68125e-05
-4.21161e-09
1.68172e-05
-1.15846e-08
1.68244e-05
-1.67694e-08
1.68331e-05
-2.05652e-08
1.68425e-05
-2.29842e-08
1.68524e-05
-2.44421e-08
1.68623e-05
-2.52011e-08
1.6872e-05
-2.53994e-08
1.68814e-05
-2.5203e-08
1.68903e-05
-2.4727e-08
1.68987e-05
-2.40821e-08
1.69066e-05
-2.33305e-08
1.69139e-05
-2.25319e-08
1.69206e-05
-2.17127e-08
1.69268e-05
-2.09108e-08
1.69325e-05
-2.01229e-08
1.69378e-05
-1.93798e-08
-1.86657e-08
1.69427e-05
1.46364e-05
-6.05043e-09
1.46414e-05
-1.6494e-08
1.46487e-05
-2.39636e-08
1.46572e-05
-2.90035e-08
1.46663e-05
-3.20367e-08
1.46756e-05
-3.37461e-08
1.4685e-05
-3.44709e-08
1.4694e-05
-3.44145e-08
1.47026e-05
-3.38018e-08
1.47107e-05
-3.28324e-08
1.47183e-05
-3.16396e-08
1.47253e-05
-3.03301e-08
1.47318e-05
-2.89757e-08
1.47377e-05
-2.76306e-08
1.47431e-05
-2.6325e-08
1.47481e-05
-2.5086e-08
1.47527e-05
-2.39165e-08
-2.28374e-08
1.47569e-05
1.27422e-05
-8.13422e-09
1.27477e-05
-2.19789e-08
1.27554e-05
-3.15905e-08
1.2764e-05
-3.75147e-08
1.27729e-05
-4.09195e-08
1.27819e-05
-4.27385e-08
1.27907e-05
-4.32758e-08
1.27992e-05
-4.28404e-08
1.28071e-05
-4.17335e-08
1.28146e-05
-4.02041e-08
1.28214e-05
-3.84462e-08
1.28276e-05
-3.65659e-08
1.28333e-05
-3.46604e-08
1.28385e-05
-3.27916e-08
1.28432e-05
-3.10105e-08
1.28475e-05
-2.93359e-08
1.28514e-05
-2.77892e-08
-2.63605e-08
1.28549e-05
1.10934e-05
-1.05558e-08
1.10998e-05
-2.8446e-08
1.1108e-05
-3.97883e-08
1.11167e-05
-4.61452e-08
1.11254e-05
-4.96501e-08
1.1134e-05
-5.1346e-08
1.11424e-05
-5.1567e-08
1.11502e-05
-5.06386e-08
1.11574e-05
-4.89504e-08
1.11641e-05
-4.68469e-08
1.11702e-05
-4.44895e-08
1.11757e-05
-4.20477e-08
1.11806e-05
-3.95996e-08
1.11851e-05
-3.7229e-08
1.11891e-05
-3.49874e-08
1.11926e-05
-3.29067e-08
1.11959e-05
-3.09996e-08
-2.92329e-08
1.11988e-05
9.65804e-06
-1.33878e-08
9.66611e-06
-3.66361e-08
9.6747e-06
-4.84563e-08
9.68319e-06
-5.46575e-08
9.69155e-06
-5.79949e-08
9.69965e-06
-5.94731e-08
9.70733e-06
-5.92105e-08
9.71445e-06
-5.77164e-08
9.72099e-06
-5.54667e-08
9.72695e-06
-5.27513e-08
9.73231e-06
-4.98357e-08
9.73711e-06
-4.68415e-08
9.7414e-06
-4.38695e-08
9.7452e-06
-4.10325e-08
9.74859e-06
-3.83637e-08
9.7516e-06
-3.59086e-08
9.75427e-06
-3.36845e-08
-3.16039e-08
9.75666e-06
8.40881e-06
-1.6876e-08
8.41825e-06
-4.60595e-08
8.42714e-06
-5.73727e-08
8.43529e-06
-6.28336e-08
8.44306e-06
-6.579e-08
8.45056e-06
-6.69189e-08
8.4576e-06
-6.62391e-08
8.46407e-06
-6.41821e-08
8.47001e-06
-6.13674e-08
8.47534e-06
-5.80873e-08
8.4801e-06
-5.45784e-08
8.48432e-06
-5.10505e-08
8.48805e-06
-4.76035e-08
8.49133e-06
-4.43029e-08
8.4942e-06
-4.12399e-08
8.49671e-06
-3.84287e-08
8.49893e-06
-3.58718e-08
-3.35445e-08
8.50085e-06
7.32306e-06
-2.26443e-08
7.33211e-06
-5.52175e-08
7.34053e-06
-6.58354e-08
7.34801e-06
-7.03449e-08
7.3554e-06
-7.31663e-08
7.36247e-06
-7.40173e-08
7.36898e-06
-7.27417e-08
7.37494e-06
-7.01121e-08
7.38032e-06
-6.67333e-08
7.38515e-06
-6.29016e-08
7.38949e-06
-5.89142e-08
7.39337e-06
-5.4942e-08
7.39677e-06
-5.09819e-08
7.3997e-06
-4.72407e-08
7.40227e-06
-4.37907e-08
7.40449e-06
-4.06271e-08
7.4064e-06
-3.7819e-08
-3.51806e-08
7.40807e-06
6.37935e-06
-3.19241e-08
6.38728e-06
-6.31318e-08
6.39417e-06
-7.26951e-08
6.4011e-06
-7.72e-08
6.40845e-06
-8.05973e-08
6.41562e-06
-8.11877e-08
6.42236e-06
-7.94899e-08
6.42869e-06
-7.64407e-08
6.43456e-06
-7.26137e-08
6.44003e-06
-6.83669e-08
6.44513e-06
-6.40802e-08
6.4499e-06
-5.96709e-08
6.45425e-06
-5.53284e-08
6.45823e-06
-5.11954e-08
6.46184e-06
-4.73791e-08
6.46509e-06
-4.38797e-08
6.46804e-06
-4.07079e-08
-3.78676e-08
6.47069e-06
5.55683e-06
-4.32768e-08
5.56873e-06
-7.49516e-08
5.5805e-06
-8.43721e-08
5.59499e-06
-9.16499e-08
5.61065e-06
-9.63296e-08
5.62644e-06
-9.7032e-08
5.64189e-06
-9.49706e-08
5.65652e-06
-9.10891e-08
5.67011e-06
-8.62118e-08
5.68245e-06
-8.0757e-08
5.69351e-06
-7.51655e-08
5.70322e-06
-6.93677e-08
5.71148e-06
-6.35513e-08
5.71833e-06
-5.80254e-08
5.72389e-06
-5.28934e-08
5.72823e-06
-4.81636e-08
5.73144e-06
-4.39461e-08
-4.04366e-08
5.73407e-06
4.89243e-06
-1.08076e-07
4.9454e-06
-1.27837e-07
4.99024e-06
-1.29121e-07
5.02476e-06
-1.26133e-07
5.0477e-06
-1.19345e-07
5.0602e-06
-1.09598e-07
5.06493e-06
-9.97339e-08
5.06441e-06
-9.05961e-08
5.05915e-06
-8.09656e-08
5.0492e-06
-7.08589e-08
5.03484e-06
-6.08421e-08
5.01707e-06
-5.15781e-08
4.99713e-06
-4.3569e-08
4.97582e-06
-3.66736e-08
4.95369e-06
-3.0715e-08
4.93136e-06
-2.57884e-08
4.90912e-06
-2.16585e-08
-1.83435e-08
4.88706e-06
4.0946e-06
3.96677e-06
3.83766e-06
3.71152e-06
3.59217e-06
3.48256e-06
3.38283e-06
3.29223e-06
3.21126e-06
3.14039e-06
3.07955e-06
3.02798e-06
2.98442e-06
2.94776e-06
2.91705e-06
2.89127e-06
2.86963e-06
2.8513e-06
-7.54579e-09
7.63879e-09
-2.03102e-08
1.29267e-08
-3.48939e-08
1.47275e-08
-4.81946e-08
1.34141e-08
-5.56158e-08
7.5419e-09
-5.13216e-08
-4.18218e-09
-3.22793e-08
-1.89434e-08
6.82669e-11
-3.21922e-08
4.19193e-08
-4.17796e-08
8.90435e-08
-4.69853e-08
1.36775e-07
-4.77077e-08
1.82072e-07
-4.51891e-08
2.22558e-07
-4.04875e-08
2.57024e-07
-3.43848e-08
2.84473e-07
-2.74564e-08
3.04557e-07
-2.00284e-08
3.16829e-07
-1.22713e-08
3.2105e-07
-4.1967e-09
3.16906e-07
4.15247e-09
3.04397e-07
1.25055e-08
2.83994e-07
2.04299e-08
2.56424e-07
2.75436e-08
2.23028e-07
3.34495e-08
1.85341e-07
3.7692e-08
1.45642e-07
3.97868e-08
1.06424e-07
3.932e-08
7.04832e-08
3.61016e-08
4.02381e-08
3.045e-08
1.71389e-08
2.33401e-08
1.22042e-09
1.61713e-08
-8.53984e-09
1.00321e-08
-1.33625e-08
5.02081e-09
-1.33689e-08
2.61422e-10
-7.87518e-09
-5.37093e-09
5.26333e-09
-1.29016e-08
2.81611e-08
-2.28085e-08
6.04978e-08
-3.21445e-08
9.71486e-08
-3.65151e-08
1.31356e-07
-3.40871e-08
1.57861e-07
-2.63491e-08
1.73839e-07
-1.59412e-08
1.79648e-07
-5.75061e-09
1.77953e-07
1.63841e-09
1.72616e-07
5.23803e-09
1.67495e-07
4.99231e-09
1.65071e-07
2.21763e-09
1.6126e-07
3.67135e-09
1.46739e-07
1.41748e-08
1.14181e-07
3.24521e-08
5.57484e-08
5.76473e-08
-2.82249e-08
8.37083e-08
-1.33363e-07
1.04223e-07
-2.53446e-07
1.19874e-07
-3.85289e-07
1.31316e-07
-5.24652e-07
1.39266e-07
-6.6889e-07
1.4407e-07
-8.13546e-07
1.4461e-07
-9.54823e-07
1.4129e-07
-1.09036e-06
1.35468e-07
-1.21761e-06
1.27337e-07
-1.33605e-06
1.18344e-07
-1.44559e-06
1.09624e-07
-1.54708e-06
1.01331e-07
-1.63961e-06
9.25665e-08
-1.72429e-06
8.44696e-08
-1.80225e-06
7.79669e-08
-1.87429e-06
7.18278e-08
-1.94086e-06
6.65729e-08
-2.00298e-06
6.19274e-08
-2.06093e-06
5.79364e-08
-2.11552e-06
5.4423e-08
-2.16694e-06
5.1378e-08
-2.21573e-06
4.86645e-08
-2.26205e-06
4.62557e-08
-2.30622e-06
4.40605e-08
-2.34838e-06
4.20556e-08
-2.38866e-06
4.01787e-08
-2.42721e-06
3.84093e-08
-2.46403e-06
3.67213e-08
-2.49928e-06
3.50808e-08
-2.53288e-06
3.34893e-08
-2.56499e-06
3.19144e-08
-2.59545e-06
3.03738e-08
-2.62449e-06
2.88218e-08
-2.6519e-06
2.72912e-08
-2.67785e-06
2.57423e-08
-2.70217e-06
2.42117e-08
-2.72495e-06
2.26584e-08
-2.74607e-06
2.11132e-08
-2.7656e-06
1.95566e-08
-2.78362e-06
1.79885e-08
-2.80017e-06
1.6391e-08
-2.81514e-06
1.47864e-08
-2.82853e-06
1.31605e-08
-2.84026e-06
1.15293e-08
-2.85035e-06
9.87188e-09
-2.85873e-06
8.19606e-09
-2.86537e-06
6.47923e-09
-2.87022e-06
4.71825e-09
-2.87322e-06
2.89726e-09
-2.87435e-06
1.06327e-09
-2.87374e-06
-6.50192e-10
-2.87161e-06
-2.13859e-09
-2.86811e-06
-3.48577e-09
-2.86327e-06
-4.79998e-09
-2.85712e-06
-6.0978e-09
-2.84968e-06
-7.39745e-09
-2.84093e-06
-8.69316e-09
-2.83089e-06
-9.99343e-09
-2.81956e-06
-1.12897e-08
-2.80694e-06
-1.25895e-08
-2.79303e-06
-1.3885e-08
-2.77783e-06
-1.51823e-08
-2.76134e-06
-1.64746e-08
-2.74357e-06
-1.7766e-08
-2.72451e-06
-1.90514e-08
-2.70417e-06
-2.03344e-08
-2.68255e-06
-2.16126e-08
-2.65965e-06
-2.28889e-08
-2.63546e-06
-2.41605e-08
-2.61001e-06
-2.54284e-08
-2.5833e-06
-2.66908e-08
-2.55532e-06
-2.79459e-08
-2.52609e-06
-2.91956e-08
-2.49562e-06
-3.04356e-08
-2.4639e-06
-3.16678e-08
-2.43096e-06
-3.28865e-08
-2.3968e-06
-3.40917e-08
-2.36145e-06
-3.52781e-08
-2.32493e-06
-3.644e-08
-2.28726e-06
-3.75853e-08
-2.24846e-06
-3.87015e-08
-2.20859e-06
-3.97935e-08
-2.16765e-06
-4.08507e-08
-2.12571e-06
-4.18616e-08
-2.08281e-06
-4.28211e-08
-2.03904e-06
-4.37173e-08
-1.99446e-06
-4.45345e-08
-1.94899e-06
-4.5466e-08
-1.90256e-06
-4.64501e-08
-1.85531e-06
-4.73047e-08
-1.80729e-06
-4.80817e-08
-1.75858e-06
-4.87871e-08
-1.70924e-06
-4.94312e-08
-1.65931e-06
-5.0022e-08
-1.60886e-06
-5.05638e-08
-1.55792e-06
-5.10587e-08
-1.50655e-06
-5.15084e-08
-1.45477e-06
-5.19138e-08
-1.40264e-06
-5.22776e-08
-1.35019e-06
-5.26004e-08
-1.29748e-06
-5.28832e-08
-1.24452e-06
-5.31252e-08
-1.19138e-06
-5.33248e-08
-1.13808e-06
-5.34797e-08
-1.08468e-06
-5.359e-08
-1.03122e-06
-5.36567e-08
-9.77729e-07
-5.36856e-08
-9.24245e-07
-5.36806e-08
-8.70795e-07
-5.36514e-08
-8.17391e-07
-5.36012e-08
-7.64052e-07
-5.354e-08
-7.10778e-07
-5.34691e-08
-6.57579e-07
-5.33964e-08
-6.0445e-07
-5.33177e-08
-5.51404e-07
-5.32375e-08
-4.98433e-07
-5.315e-08
-4.45551e-07
-5.30636e-08
-3.92745e-07
-5.29722e-08
-3.40027e-07
-5.28846e-08
-2.87387e-07
-5.27889e-08
-2.34856e-07
-5.26788e-08
-1.82455e-07
-5.25241e-08
-1.30295e-07
-5.22793e-08
-7.85457e-08
-5.18413e-08
-2.76677e-08
-5.09655e-08
2.17348e-08
-4.94609e-08
6.80205e-08
-4.63352e-08
1.10722e-07
-4.27195e-08
-1.85867e-08
1.2927e-07
-3.15551e-09
1.09608e-08
-8.72916e-09
1.87858e-08
-1.18027e-08
1.80851e-08
-6.3541e-09
8.20024e-09
1.2914e-08
-1.1506e-08
4.61193e-08
-3.72487e-08
9.00365e-08
-6.27671e-08
1.39917e-07
-8.198e-08
1.90672e-07
-9.2487e-08
2.38645e-07
-9.48817e-08
2.81946e-07
-9.09833e-08
3.19703e-07
-8.28864e-08
3.51534e-07
-7.23071e-08
3.77609e-07
-6.04179e-08
3.98117e-07
-4.79599e-08
4.13467e-07
-3.53505e-08
4.23991e-07
-2.27907e-08
4.30207e-07
-1.03987e-08
4.32532e-07
1.83697e-09
4.31009e-07
1.40207e-08
4.2529e-07
2.61651e-08
4.14718e-07
3.81045e-08
3.98718e-07
4.94703e-08
3.76735e-07
5.96814e-08
3.48609e-07
6.79616e-08
3.14569e-07
7.34126e-08
2.75579e-07
7.51753e-08
2.33422e-07
7.27138e-08
1.9086e-07
6.60352e-08
1.5147e-07
5.57255e-08
1.19117e-07
4.25933e-08
9.69627e-08
2.73733e-08
8.70429e-08
1.04382e-08
8.94768e-08
-7.6667e-09
1.03676e-07
-2.68917e-08
1.26527e-07
-4.5559e-08
1.52192e-07
-5.76762e-08
1.73665e-07
-5.78691e-08
1.86647e-07
-4.69819e-08
1.90154e-07
-2.97531e-08
1.84608e-07
-1.03612e-08
1.71544e-07
7.34647e-09
1.52878e-07
2.02394e-08
1.24926e-07
3.30911e-08
7.80574e-08
5.16792e-08
2.73095e-09
7.73154e-08
-1.0428e-07
1.10513e-07
-2.36165e-07
1.45876e-07
-3.83251e-07
1.79396e-07
-5.36787e-07
2.1096e-07
-6.91845e-07
2.38602e-07
-8.4706e-07
2.59188e-07
-9.99621e-07
2.72266e-07
-1.14646e-06
2.77976e-07
-1.28417e-06
2.76872e-07
-1.41021e-06
2.70024e-07
-1.52394e-06
2.58279e-07
-1.62549e-06
2.42809e-07
-1.71537e-06
2.25304e-07
-1.79497e-06
2.06948e-07
-1.86562e-06
1.88954e-07
-1.92842e-06
1.72416e-07
-1.98467e-06
1.57524e-07
-2.03603e-06
1.43896e-07
-2.08344e-06
1.31797e-07
-2.12705e-06
1.21533e-07
-2.16792e-06
1.12613e-07
-2.20635e-06
1.04948e-07
-2.24282e-06
9.83047e-08
-2.27748e-06
9.25431e-08
-2.31063e-06
8.74856e-08
-2.34233e-06
8.30142e-08
-2.37274e-06
7.89924e-08
-2.40189e-06
7.53404e-08
-2.42986e-06
7.19573e-08
-2.45668e-06
6.87864e-08
-2.48235e-06
6.5772e-08
-2.5069e-06
6.28715e-08
-2.53032e-06
6.00499e-08
-2.55262e-06
5.72782e-08
-2.57377e-06
5.45428e-08
-2.59379e-06
5.18212e-08
-2.61263e-06
4.91101e-08
-2.63033e-06
4.63892e-08
-2.64682e-06
4.36672e-08
-2.66213e-06
4.09266e-08
-2.67621e-06
3.81802e-08
-2.68905e-06
3.54173e-08
-2.70059e-06
3.26421e-08
-2.71087e-06
2.98536e-08
-2.71998e-06
2.70422e-08
-2.72792e-06
2.42086e-08
-2.73467e-06
2.13658e-08
-2.7402e-06
1.85154e-08
-2.74452e-06
1.56696e-08
-2.74763e-06
1.28229e-08
-2.74957e-06
9.98605e-09
-2.75036e-06
7.1556e-09
-2.75009e-06
4.34944e-09
-2.74886e-06
1.58639e-09
-2.74675e-06
-1.09471e-09
-2.74372e-06
-3.70193e-09
-2.73957e-06
-6.28155e-09
-2.73418e-06
-8.85782e-09
-2.72752e-06
-1.14263e-08
-2.71959e-06
-1.39903e-08
-2.71039e-06
-1.65557e-08
-2.69992e-06
-1.91213e-08
-2.68819e-06
-2.16892e-08
-2.67519e-06
-2.42561e-08
-2.66094e-06
-2.68237e-08
-2.64542e-06
-2.93883e-08
-2.62863e-06
-3.19519e-08
-2.61059e-06
-3.45102e-08
-2.59129e-06
-3.70646e-08
-2.57072e-06
-3.96112e-08
-2.5489e-06
-4.2153e-08
-2.52582e-06
-4.46866e-08
-2.50149e-06
-4.72154e-08
-2.4759e-06
-4.97365e-08
-2.44906e-06
-5.22502e-08
-2.42099e-06
-5.47532e-08
-2.39168e-06
-5.72435e-08
-2.36113e-06
-5.97196e-08
-2.32937e-06
-6.21773e-08
-2.29639e-06
-6.46153e-08
-2.26221e-06
-6.70267e-08
-2.22685e-06
-6.94091e-08
-2.19032e-06
-7.17539e-08
-2.15265e-06
-7.40574e-08
-2.11386e-06
-7.6313e-08
-2.07399e-06
-7.85169e-08
-2.03306e-06
-8.06639e-08
-1.9911e-06
-8.27503e-08
-1.94814e-06
-8.47668e-08
-1.90419e-06
-8.67173e-08
-1.85927e-06
-8.85964e-08
-1.81338e-06
-9.04107e-08
-1.76662e-06
-9.22249e-08
-1.71909e-06
-9.39973e-08
-1.6708e-06
-9.56349e-08
-1.62178e-06
-9.71461e-08
-1.57209e-06
-9.85277e-08
-1.52178e-06
-9.97987e-08
-1.4709e-06
-1.00961e-07
-1.4195e-06
-1.0203e-07
-1.36763e-06
-1.03001e-07
-1.31534e-06
-1.03884e-07
-1.26266e-06
-1.04675e-07
-1.20965e-06
-1.05386e-07
-1.15633e-06
-1.06012e-07
-1.10276e-06
-1.06561e-07
-1.04896e-06
-1.07029e-07
-9.94975e-07
-1.07416e-07
-9.4085e-07
-1.07716e-07
-8.86624e-07
-1.07932e-07
-8.32333e-07
-1.08063e-07
-7.78013e-07
-1.08123e-07
-7.23693e-07
-1.08118e-07
-6.69398e-07
-1.08064e-07
-6.15144e-07
-1.07972e-07
-5.60943e-07
-1.07857e-07
-5.068e-07
-1.07727e-07
-4.52717e-07
-1.07592e-07
-3.98693e-07
-1.07452e-07
-3.44732e-07
-1.07306e-07
-2.90831e-07
-1.07155e-07
-2.36993e-07
-1.07002e-07
-1.83212e-07
-1.0685e-07
-1.29488e-07
-1.06699e-07
-7.58167e-08
-1.06545e-07
-2.2217e-08
-1.06356e-07
3.12766e-08
-1.06086e-07
8.45892e-08
-1.0565e-07
1.37582e-07
-1.04882e-07
1.90032e-07
-1.03452e-07
2.41417e-07
-1.00871e-07
2.91208e-07
-9.61408e-08
3.36225e-07
-8.77399e-08
-6.17028e-08
3.79326e-07
8.21349e-10
1.02922e-08
4.13717e-09
1.57588e-08
1.65895e-08
5.87464e-09
4.57291e-08
-2.07914e-08
9.20327e-08
-5.77152e-08
1.48221e-07
-9.33695e-08
2.04525e-07
-1.19028e-07
2.54585e-07
-1.31985e-07
2.95938e-07
-1.33812e-07
3.28785e-07
-1.2768e-07
3.5441e-07
-1.16592e-07
3.74334e-07
-1.02772e-07
3.89698e-07
-8.76629e-08
4.01409e-07
-7.21021e-08
4.09997e-07
-5.65459e-08
4.15888e-07
-4.12263e-08
4.19346e-07
-2.62467e-08
4.20612e-07
-1.16636e-08
4.19945e-07
2.50476e-09
4.17674e-07
1.62874e-08
4.14102e-07
2.97393e-08
4.09319e-07
4.28737e-08
4.03191e-07
5.56076e-08
3.95168e-07
6.76975e-08
3.84461e-07
7.86843e-08
3.70039e-07
8.78455e-08
3.51032e-07
9.42159e-08
3.27093e-07
9.66866e-08
2.98957e-07
9.4221e-08
2.68624e-07
8.61213e-08
2.39095e-07
7.21941e-08
2.1367e-07
5.2861e-08
1.95075e-07
2.91336e-08
1.84905e-07
2.57511e-09
1.82054e-07
-2.39579e-08
1.80705e-07
-4.41372e-08
1.73232e-07
-5.01245e-08
1.56698e-07
-4.12652e-08
1.31627e-07
-2.18577e-08
9.87146e-08
3.22277e-09
5.62596e-08
3.21131e-08
-6.28667e-10
6.42452e-08
-7.90179e-08
9.85859e-08
-1.82048e-07
1.36068e-07
-3.07516e-07
1.7708e-07
-4.49927e-07
2.1967e-07
-6.00289e-07
2.60818e-07
-7.52226e-07
2.97736e-07
-9.01047e-07
3.28151e-07
-1.04122e-06
3.51028e-07
-1.16884e-06
3.6611e-07
-1.28273e-06
3.72943e-07
-1.3825e-06
3.71918e-07
-1.46853e-06
3.63889e-07
-1.542e-06
3.50248e-07
-1.60463e-06
3.32569e-07
-1.65864e-06
3.12222e-07
-1.70633e-06
2.90444e-07
-1.74953e-06
2.68453e-07
-1.78974e-06
2.47132e-07
-1.82797e-06
2.27141e-07
-1.86451e-06
2.08935e-07
-1.89968e-06
1.92658e-07
-1.93398e-06
1.78163e-07
-1.96759e-06
1.65361e-07
-2.00031e-06
1.54222e-07
-2.03226e-06
1.44514e-07
-2.06341e-06
1.36045e-07
-2.09377e-06
1.28617e-07
-2.12334e-06
1.22058e-07
-2.15212e-06
1.16204e-07
-2.18009e-06
1.10923e-07
-2.20724e-06
1.0609e-07
-2.23357e-06
1.01601e-07
-2.25904e-06
9.73714e-08
-2.28365e-06
9.33341e-08
-2.30736e-06
8.9427e-08
-2.33016e-06
8.56087e-08
-2.35202e-06
8.18424e-08
-2.37291e-06
7.81003e-08
-2.3928e-06
7.4365e-08
-2.41168e-06
7.06201e-08
-2.4295e-06
6.68576e-08
-2.44626e-06
6.30678e-08
-2.46194e-06
5.92516e-08
-2.47651e-06
5.5405e-08
-2.48995e-06
5.1533e-08
-2.50223e-06
4.7634e-08
-2.51332e-06
4.37132e-08
-2.52324e-06
3.97729e-08
-2.53206e-06
3.58066e-08
-2.53978e-06
3.18249e-08
-2.54638e-06
2.78259e-08
-2.55183e-06
2.38311e-08
-2.55615e-06
1.98395e-08
-2.55931e-06
1.58665e-08
-2.56134e-06
1.19101e-08
-2.56226e-06
7.98327e-09
-2.56207e-06
4.08976e-09
-2.56077e-06
2.43771e-10
-2.55834e-06
-3.55422e-09
-2.55473e-06
-7.32348e-09
-2.54991e-06
-1.10926e-08
-2.54387e-06
-1.48707e-08
-2.53662e-06
-1.86506e-08
-2.52814e-06
-2.24349e-08
-2.51844e-06
-2.62218e-08
-2.50752e-06
-3.00133e-08
-2.49537e-06
-3.38058e-08
-2.48201e-06
-3.76005e-08
-2.46742e-06
-4.13939e-08
-2.45161e-06
-4.51868e-08
-2.43458e-06
-4.89761e-08
-2.41632e-06
-5.27618e-08
-2.39684e-06
-5.65411e-08
-2.37614e-06
-6.03141e-08
-2.35421e-06
-6.40791e-08
-2.33106e-06
-6.78365e-08
-2.30669e-06
-7.15857e-08
-2.2811e-06
-7.53267e-08
-2.25429e-06
-7.90569e-08
-2.22627e-06
-8.27731e-08
-2.19704e-06
-8.64716e-08
-2.1666e-06
-9.01478e-08
-2.13497e-06
-9.37976e-08
-2.10216e-06
-9.74155e-08
-2.06817e-06
-1.00995e-07
-2.03303e-06
-1.04529e-07
-1.99674e-06
-1.0801e-07
-1.95934e-06
-1.11428e-07
-1.92085e-06
-1.14774e-07
-1.88129e-06
-1.18041e-07
-1.84069e-06
-1.21224e-07
-1.79909e-06
-1.24317e-07
-1.75651e-06
-1.27313e-07
-1.71298e-06
-1.30214e-07
-1.66854e-06
-1.33018e-07
-1.62321e-06
-1.35727e-07
-1.57707e-06
-1.38362e-07
-1.53019e-06
-1.40892e-07
-1.48258e-06
-1.43266e-07
-1.43428e-06
-1.4547e-07
-1.38532e-06
-1.47503e-07
-1.33577e-06
-1.49372e-07
-1.28566e-06
-1.51089e-07
-1.23506e-06
-1.5266e-07
-1.18399e-06
-1.5409e-07
-1.13252e-06
-1.55383e-07
-1.08067e-06
-1.56545e-07
-1.0285e-06
-1.5758e-07
-9.76049e-07
-1.58495e-07
-9.23344e-07
-1.59292e-07
-8.7043e-07
-1.59974e-07
-8.17338e-07
-1.60536e-07
-7.6411e-07
-1.60976e-07
-7.1078e-07
-1.61292e-07
-6.57385e-07
-1.6149e-07
-6.03956e-07
-1.61581e-07
-5.50522e-07
-1.61584e-07
-4.97103e-07
-1.61512e-07
-4.43716e-07
-1.6139e-07
-3.90371e-07
-1.61231e-07
-3.37073e-07
-1.61055e-07
-2.83821e-07
-1.60871e-07
-2.30617e-07
-1.60685e-07
-1.77458e-07
-1.60492e-07
-1.24343e-07
-1.60297e-07
-7.12687e-08
-1.60102e-07
-1.82301e-08
-1.59913e-07
3.47762e-08
-1.5973e-07
8.77545e-08
-1.59546e-07
1.40705e-07
-1.5933e-07
1.93615e-07
-1.59017e-07
2.46427e-07
-1.58484e-07
2.99044e-07
-1.57518e-07
3.51303e-07
-1.55731e-07
4.02915e-07
-1.525e-07
4.53516e-07
-1.46756e-07
5.0223e-07
-1.36465e-07
-1.1185e-07
5.52362e-07
-1.0583e-10
1.0547e-08
1.06693e-08
5.24602e-09
4.55327e-08
-2.88395e-08
1.0331e-07
-7.84764e-08
1.69235e-07
-1.23592e-07
2.28786e-07
-1.52872e-07
2.7477e-07
-1.64985e-07
3.06835e-07
-1.6401e-07
3.27932e-07
-1.54892e-07
3.4166e-07
-1.41372e-07
3.50783e-07
-1.25704e-07
3.57132e-07
-1.09092e-07
3.61629e-07
-9.21557e-08
3.64765e-07
-7.52178e-08
3.66674e-07
-5.84563e-08
3.67442e-07
-4.19822e-08
3.6706e-07
-2.58702e-08
3.65583e-07
-1.01819e-08
3.63049e-07
5.03263e-09
3.59575e-07
1.9749e-08
3.55361e-07
3.39458e-08
3.50621e-07
4.75939e-08
3.4557e-07
6.06443e-08
3.40265e-07
7.29768e-08
3.34584e-07
8.43538e-08
3.28046e-07
9.43575e-08
3.19936e-07
1.02312e-07
3.09367e-07
1.07232e-07
2.95695e-07
1.07885e-07
2.78801e-07
1.02991e-07
2.59363e-07
9.16302e-08
2.38835e-07
7.33852e-08
2.19023e-07
4.89611e-08
2.00307e-07
2.13002e-08
1.78461e-07
-2.04351e-09
1.46255e-07
-1.18936e-08
1.02115e-07
-5.92562e-09
4.76628e-08
1.32402e-08
-1.78505e-08
4.37011e-08
-9.77786e-08
8.31752e-08
-1.94093e-07
1.2843e-07
-3.06416e-07
1.76555e-07
-4.32935e-07
2.25072e-07
-5.69286e-07
2.7238e-07
-7.09362e-07
3.17113e-07
-8.47195e-07
3.57455e-07
-9.77186e-07
3.90769e-07
-1.09486e-06
4.1536e-07
-1.19814e-06
4.31382e-07
-1.28624e-06
4.39047e-07
-1.35922e-06
4.39019e-07
-1.41864e-06
4.3227e-07
-1.46669e-06
4.19882e-07
-1.506e-06
4.03101e-07
-1.5391e-06
3.83267e-07
-1.56823e-06
3.61609e-07
-1.59519e-06
3.3911e-07
-1.62139e-06
3.16575e-07
-1.64769e-06
2.94686e-07
-1.67453e-06
2.73926e-07
-1.70206e-06
2.54628e-07
-1.73015e-06
2.36998e-07
-1.75862e-06
2.21101e-07
-1.78735e-06
2.06867e-07
-1.81621e-06
1.94193e-07
-1.84499e-06
1.82971e-07
-1.87355e-06
1.73043e-07
-1.90178e-06
1.6424e-07
-1.9296e-06
1.56395e-07
-1.95694e-06
1.49348e-07
-1.98374e-06
1.42955e-07
-2.00995e-06
1.37082e-07
-2.03553e-06
1.31613e-07
-2.06043e-06
1.26452e-07
-2.08461e-06
1.21509e-07
-2.10805e-06
1.16713e-07
-2.13068e-06
1.12012e-07
-2.15247e-06
1.07357e-07
-2.17339e-06
1.02715e-07
-2.19341e-06
9.80606e-08
-2.21247e-06
9.33768e-08
-2.23056e-06
8.86514e-08
-2.24764e-06
8.38781e-08
-2.26369e-06
7.90533e-08
-2.27869e-06
7.41788e-08
-2.29261e-06
6.92558e-08
-2.30544e-06
6.42904e-08
-2.31716e-06
5.9287e-08
-2.32771e-06
5.42529e-08
-2.33715e-06
4.9198e-08
-2.34551e-06
4.41129e-08
-2.3528e-06
3.90134e-08
-2.35898e-06
3.38961e-08
-2.36406e-06
2.87842e-08
-2.36801e-06
2.36761e-08
-2.37083e-06
1.85901e-08
-2.37253e-06
1.35216e-08
-2.3731e-06
8.484e-09
-2.37253e-06
3.47425e-09
-2.37082e-06
-1.5001e-09
-2.36794e-06
-6.44722e-09
-2.36388e-06
-1.13812e-08
-2.35864e-06
-1.63182e-08
-2.35222e-06
-2.12649e-08
-2.34463e-06
-2.62179e-08
-2.33585e-06
-3.11794e-08
-2.3259e-06
-3.61459e-08
-2.31477e-06
-4.11194e-08
-2.30246e-06
-4.60947e-08
-2.28896e-06
-5.10739e-08
-2.27429e-06
-5.60518e-08
-2.25844e-06
-6.10307e-08
-2.2414e-06
-6.60055e-08
-2.22318e-06
-7.09777e-08
-2.20378e-06
-7.5943e-08
-2.18319e-06
-8.0903e-08
-2.16142e-06
-8.58536e-08
-2.13846e-06
-9.07974e-08