/*--------------------------------*- C++ -*----------------------------------*\
  =========                 |
  \\      /  F ield         | OpenFOAM: The Open Source CFD Toolbox
   \\    /   O peration     | Website:  https://openfoam.org
    \\  /    A nd           | Version:  13
     \\/     M anipulation  |
\*---------------------------------------------------------------------------*/
FoamFile
{
    format      ascii;
    class       volVectorField;
    location    "1700";
    object      U;
}
// * * * * * * * * * * * * * * * * * * * * * * * * * * * * * * * * * * * * * //

dimensions      [0 1 -1 0 0 0 0];

internalField   nonuniform List<vector> 
12225
(
(9.75133 0.0531012 0)
(9.26911 0.103886 0)
(8.80227 0.104069 0)
(8.36608 0.093844 0)
(7.97809 0.0815854 0)
(7.64553 0.0699815 0)
(7.36242 0.0587349 0)
(7.12667 0.0497194 0)
(6.93999 0.0350691 0)
(6.78788 0.0166539 0)
(6.67066 0.0106219 0)
(6.57513 0.0109437 0)
(6.49353 0.00730862 0)
(6.43078 0.00202633 0)
(6.3813 -0.00163611 0)
(6.34765 0.000402612 0)
(6.34002 0.00394477 0)
(6.34308 0.00628093 0)
(10.1059 0.0572051 0)
(10.3138 0.0930025 0)
(10.4309 0.0950451 0)
(10.4857 0.0953915 0)
(10.4946 0.094265 0)
(10.4633 0.0898629 0)
(10.4047 0.083871 0)
(10.3257 0.0760785 0)
(10.2303 0.0702222 0)
(10.1346 0.0669881 0)
(10.0358 0.0609258 0)
(9.93617 0.0534737 0)
(9.83771 0.0470597 0)
(9.74269 0.0413821 0)
(9.6545 0.0355132 0)
(9.57089 0.0277192 0)
(9.4853 0.020461 0)
(9.40151 0.0120418 0)
(10.0108 0.0437576 0)
(10.061 0.0683301 0)
(10.1116 0.0692742 0)
(10.1567 0.0718743 0)
(10.2043 0.0769459 0)
(10.251 0.0810054 0)
(10.2927 0.0815965 0)
(10.3262 0.0801734 0)
(10.3507 0.0767681 0)
(10.366 0.0719767 0)
(10.3738 0.0686282 0)
(10.3771 0.0673053 0)
(10.3754 0.0657284 0)
(10.3692 0.0622697 0)
(10.3588 0.0576794 0)
(10.3444 0.0522065 0)
(10.3281 0.0458562 0)
(10.3075 0.0379238 0)
(10.0068 0.0296698 0)
(10.0368 0.0572721 0)
(10.0646 0.0648723 0)
(10.0829 0.0687634 0)
(10.0973 0.0720228 0)
(10.1135 0.0730719 0)
(10.1304 0.0716824 0)
(10.1468 0.0690721 0)
(10.1623 0.0654122 0)
(10.1764 0.0613409 0)
(10.1893 0.0582444 0)
(10.2022 0.0561876 0)
(10.2154 0.0542001 0)
(10.2278 0.0514779 0)
(10.2388 0.0482595 0)
(10.2486 0.0446925 0)
(10.2568 0.0407118 0)
(10.2639 0.0353357 0)
(10.0048 0.0248476 0)
(10.0298 0.0531107 0)
(10.0536 0.0618794 0)
(10.0699 0.0656974 0)
(10.0823 0.068365 0)
(10.0946 0.0693088 0)
(10.1067 0.0683534 0)
(10.1176 0.0662944 0)
(10.1272 0.0633904 0)
(10.1353 0.0600785 0)
(10.1423 0.0573127 0)
(10.1491 0.0551994 0)
(10.1564 0.0530617 0)
(10.1636 0.0502884 0)
(10.1704 0.0470341 0)
(10.1767 0.0434349 0)
(10.1825 0.0394413 0)
(10.1876 0.0346469 0)
(10.0032 0.0203941 0)
(10.0233 0.0464206 0)
(10.0438 0.0566743 0)
(10.06 0.0610127 0)
(10.073 0.0639037 0)
(10.085 0.0652066 0)
(10.0965 0.0645397 0)
(10.1067 0.0625969 0)
(10.1156 0.0599034 0)
(10.123 0.0568549 0)
(10.1294 0.0541043 0)
(10.1354 0.0516992 0)
(10.1414 0.049215 0)
(10.1472 0.0462966 0)
(10.1526 0.0430428 0)
(10.1576 0.0395213 0)
(10.1621 0.0357058 0)
(10.1658 0.0313579 0)
(10.0023 0.0166399 0)
(10.0178 0.0405755 0)
(10.0357 0.0512067 0)
(10.0511 0.0560753 0)
(10.0639 0.0593174 0)
(10.0757 0.0608999 0)
(10.0868 0.0606043 0)
(10.0966 0.0590656 0)
(10.1052 0.0568013 0)
(10.1126 0.0542142 0)
(10.119 0.0517071 0)
(10.1251 0.0493417 0)
(10.1308 0.0468693 0)
(10.1363 0.0440918 0)
(10.1415 0.0410458 0)
(10.1461 0.0377699 0)
(10.1502 0.034249 0)
(10.1536 0.0302978 0)
(10.0017 0.0136255 0)
(10.0137 0.0354544 0)
(10.0299 0.046463 0)
(10.0441 0.0515659 0)
(10.0561 0.0548441 0)
(10.0674 0.0565483 0)
(10.078 0.0565846 0)
(10.0876 0.0553865 0)
(10.0961 0.0534529 0)
(10.1034 0.0511554 0)
(10.11 0.0487924 0)
(10.116 0.0464543 0)
(10.1218 0.0439895 0)
(10.1271 0.0412737 0)
(10.132 0.0383231 0)
(10.1364 0.0351617 0)
(10.1403 0.0318285 0)
(10.1435 0.0281824 0)
(10.0013 0.0113357 0)
(10.0108 0.0305798 0)
(10.0251 0.0415459 0)
(10.0383 0.0470358 0)
(10.0497 0.0504055 0)
(10.0605 0.052167 0)
(10.0706 0.0523852 0)
(10.0799 0.0514502 0)
(10.0882 0.0497964 0)
(10.0955 0.0477497 0)
(10.102 0.0455606 0)
(10.1081 0.0433052 0)
(10.1137 0.0409153 0)
(10.1189 0.0383165 0)
(10.1237 0.0355255 0)
(10.1279 0.0325811 0)
(10.1317 0.0295264 0)
(10.1348 0.0262639 0)
(10.001 0.00945007 0)
(10.0086 0.0261048 0)
(10.0208 0.0366197 0)
(10.033 0.0422532 0)
(10.0439 0.0456873 0)
(10.0542 0.0475302 0)
(10.064 0.0479537 0)
(10.073 0.0472927 0)
(10.0811 0.0459251 0)
(10.0883 0.0441383 0)
(10.0949 0.0421392 0)
(10.1009 0.0400118 0)
(10.1064 0.0377394 0)
(10.1115 0.0352967 0)
(10.1162 0.0326928 0)
(10.1203 0.0299622 0)
(10.124 0.0271547 0)
(10.1271 0.0242246 0)
(10.0007 0.00785761 0)
(10.0068 0.022122 0)
(10.0172 0.0319508 0)
(10.0282 0.0375146 0)
(10.0385 0.0409273 0)
(10.0483 0.0428032 0)
(10.0577 0.0433782 0)
(10.0664 0.0429425 0)
(10.0743 0.0418256 0)
(10.0815 0.0402811 0)
(10.088 0.0384829 0)
(10.094 0.0365153 0)
(10.0995 0.0343936 0)
(10.1046 0.0321108 0)
(10.1092 0.0296983 0)
(10.1133 0.0271843 0)
(10.1169 0.0246217 0)
(10.1201 0.0219816 0)
(10.0006 0.00659518 0)
(10.0056 0.0189067 0)
(10.0144 0.0279573 0)
(10.0244 0.0333082 0)
(10.034 0.0366227 0)
(10.0433 0.03848 0)
(10.0522 0.0391417 0)
(10.0606 0.0388619 0)
(10.0683 0.0379292 0)
(10.0754 0.036567 0)
(10.0819 0.0349321 0)
(10.0879 0.0331104 0)
(10.0933 0.0311226 0)
(10.0984 0.0290032 0)
(10.1029 0.0267599 0)
(10.107 0.0244522 0)
(10.1107 0.0221046 0)
(10.1139 0.019724 0)
(10.0005 0.00549391 0)
(10.0047 0.0159869 0)
(10.0122 0.0241538 0)
(10.0211 0.029151 0)
(10.0301 0.032289 0)
(10.0388 0.0340757 0)
(10.0472 0.034775 0)
(10.0552 0.0346141 0)
(10.0627 0.0338373 0)
(10.0696 0.0326463 0)
(10.076 0.0311797 0)
(10.0818 0.0295151 0)
(10.0872 0.0276909 0)
(10.0922 0.0257433 0)
(10.0967 0.0236947 0)
(10.1008 0.0215903 0)
(10.1044 0.0194694 0)
(10.1077 0.0173054 0)
(10.0004 0.00443301 0)
(10.0038 0.0130296 0)
(10.0102 0.0201015 0)
(10.018 0.0245822 0)
(10.0262 0.0274434 0)
(10.0342 0.0290912 0)
(10.0421 0.0297814 0)
(10.0497 0.0297031 0)
(10.0568 0.0290664 0)
(10.0634 0.0280345 0)
(10.0696 0.0267401 0)
(10.0753 0.0252363 0)
(10.0806 0.0235986 0)
(10.0854 0.0218314 0)
(10.0899 0.0200025 0)
(10.0939 0.0181156 0)
(10.0975 0.0162293 0)
(10.1008 0.0143029 0)
(10.0003 0.00339326 0)
(10.0031 0.0100557 0)
(10.0084 0.0158404 0)
(10.0152 0.0196096 0)
(10.0225 0.0220591 0)
(10.0299 0.0234791 0)
(10.0372 0.0240891 0)
(10.0442 0.0240497 0)
(10.0509 0.0235179 0)
(10.0573 0.0226406 0)
(10.0632 0.0215055 0)
(10.0687 0.020194 0)
(10.0738 0.0187352 0)
(10.0785 0.0171938 0)
(10.0828 0.015574 0)
(10.0867 0.0139404 0)
(10.0903 0.0122755 0)
(10.0935 0.0106126 0)
(10.0002 0.00236792 0)
(10.0025 0.00706549 0)
(10.007 0.0114017 0)
(10.0128 0.014264 0)
(10.0193 0.0161434 0)
(10.026 0.0172212 0)
(10.0327 0.0176623 0)
(10.0392 0.0175945 0)
(10.0455 0.0171296 0)
(10.0515 0.0163791 0)
(10.0571 0.0154074 0)
(10.0624 0.0142831 0)
(10.0673 0.013037 0)
(10.0718 0.0117176 0)
(10.076 0.0103428 0)
(10.0798 0.00895014 0)
(10.0833 0.00754271 0)
(10.0865 0.00612565 0)
(10.0002 0.00134064 0)
(10.0021 0.00404182 0)
(10.0058 0.00678289 0)
(10.0109 0.00854621 0)
(10.0167 0.00968648 0)
(10.0228 0.0102837 0)
(10.0289 0.010454 0)
(10.035 0.010271 0)
(10.0409 0.00982122 0)
(10.0466 0.00915483 0)
(10.0519 0.00834196 0)
(10.057 0.00739821 0)
(10.0617 0.0063831 0)
(10.066 0.00529525 0)
(10.07 0.00418647 0)
(10.0738 0.00304775 0)
(10.0771 0.00191709 0)
(10.0803 0.00076704 0)
(10.0002 0.00027479 0)
(10.0018 0.000892923 0)
(10.0051 0.00188943 0)
(10.0097 0.0023546 0)
(10.015 0.00256595 0)
(10.0206 0.00253085 0)
(10.0263 0.00230146 0)
(10.0321 0.00191201 0)
(10.0377 0.00139741 0)
(10.0431 0.000783949 0)
(10.0483 9.40744e-05 0)
(10.0531 -0.000654805 0)
(10.0576 -0.00144598 0)
(10.0618 -0.00226667 0)
(10.0658 -0.00310413 0)
(10.0694 -0.00394722 0)
(10.0727 -0.00479165 0)
(10.0757 -0.00563477 0)
(10.0002 -0.000923885 0)
(10.0018 -0.00258777 0)
(10.0049 -0.00357483 0)
(10.0094 -0.00462976 0)
(10.0145 -0.00553716 0)
(10.02 -0.00635719 0)
(10.0256 -0.0071014 0)
(10.0313 -0.0077831 0)
(10.0368 -0.00841367 0)
(10.0421 -0.00900521 0)
(10.0472 -0.00957244 0)
(10.0519 -0.0101211 0)
(10.0564 -0.0106613 0)
(10.0605 -0.0111936 0)
(10.0643 -0.011723 0)
(10.0679 -0.0122466 0)
(10.0712 -0.0127689 0)
(10.0742 -0.0132905 0)
(10.0002 -0.00211732 0)
(10.002 -0.00598148 0)
(10.0056 -0.00891157 0)
(10.0104 -0.0114409 0)
(10.0159 -0.0134168 0)
(10.0218 -0.0149776 0)
(10.0277 -0.0162009 0)
(10.0336 -0.0171428 0)
(10.0393 -0.0178595 0)
(10.0447 -0.0184044 0)
(10.0499 -0.0188271 0)
(10.0547 -0.0191613 0)
(10.0592 -0.0194391 0)
(10.0634 -0.0196783 0)
(10.0673 -0.0199013 0)
(10.0708 -0.0201106 0)
(10.0741 -0.0203254 0)
(10.0771 -0.0205431 0)
(10.0003 -0.00324866 0)
(10.0025 -0.0091054 0)
(10.0066 -0.0137302 0)
(10.0122 -0.0174578 0)
(10.0184 -0.0202532 0)
(10.0248 -0.0223591 0)
(10.0312 -0.0239171 0)
(10.0375 -0.0250021 0)
(10.0435 -0.0257176 0)
(10.0493 -0.0261582 0)
(10.0547 -0.0264005 0)
(10.0596 -0.0265051 0)
(10.0642 -0.0265203 0)
(10.0685 -0.0264828 0)
(10.0724 -0.0264229 0)
(10.0759 -0.0263568 0)
(10.0792 -0.0263039 0)
(10.0822 -0.0262743 0)
(10.0004 -0.00450331 0)
(10.0031 -0.0124823 0)
(10.0083 -0.0187227 0)
(10.015 -0.023453 0)
(10.0221 -0.0268847 0)
(10.0292 -0.0294068 0)
(10.0362 -0.0311718 0)
(10.043 -0.0322977 0)
(10.0495 -0.0329273 0)
(10.0556 -0.0331887 0)
(10.0611 -0.0331965 0)
(10.0663 -0.0330225 0)
(10.071 -0.0327394 0)
(10.0752 -0.032394 0)
(10.0791 -0.0320328 0)
(10.0826 -0.0316803 0)
(10.0858 -0.0313623 0)
(10.0888 -0.0310985 0)
(10.0005 -0.0059756 0)
(10.0042 -0.0164601 0)
(10.011 -0.0241828 0)
(10.0191 -0.0296079 0)
(10.0271 -0.0334801 0)
(10.035 -0.0362837 0)
(10.0426 -0.0381487 0)
(10.0499 -0.039198 0)
(10.0567 -0.0396385 0)
(10.063 -0.0396532 0)
(10.0688 -0.039366 0)
(10.074 -0.0388856 0)
(10.0787 -0.0382813 0)
(10.0829 -0.0376139 0)
(10.0867 -0.036939 0)
(10.0901 -0.0362881 0)
(10.0932 -0.0356929 0)
(10.096 -0.035149 0)
(10.0007 -0.0076846 0)
(10.0058 -0.0211558 0)
(10.0149 -0.0302923 0)
(10.0246 -0.0359821 0)
(10.0335 -0.0399384 0)
(10.0419 -0.0428164 0)
(10.05 -0.0445833 0)
(10.0577 -0.0454428 0)
(10.0648 -0.0456085 0)
(10.0713 -0.0453349 0)
(10.0772 -0.0447281 0)
(10.0824 -0.0438927 0)
(10.0871 -0.0429251 0)
(10.0913 -0.0419432 0)
(10.095 -0.0409759 0)
(10.0983 -0.0400775 0)
(10.1013 -0.0392759 0)
(10.1039 -0.0385119 0)
(10.0011 -0.00964325 0)
(10.0079 -0.0266676 0)
(10.0197 -0.0360509 0)
(10.0312 -0.0420625 0)
(10.0405 -0.0460881 0)
(10.0494 -0.0489284 0)
(10.0579 -0.0505913 0)
(10.0661 -0.051255 0)
(10.0735 -0.0512105 0)
(10.0802 -0.0506126 0)
(10.0862 -0.0496875 0)
(10.0915 -0.0485427 0)
(10.0963 -0.0472191 0)
(10.1004 -0.0458155 0)
(10.1041 -0.0444526 0)
(10.1073 -0.0431949 0)
(10.11 -0.0420696 0)
(10.1126 -0.0410232 0)
(10.0016 -0.0124019 0)
(10.0124 -0.0325894 0)
(10.0253 -0.04066 0)
(10.0372 -0.0469793 0)
(10.0475 -0.0515137 0)
(10.057 -0.0544056 0)
(10.0662 -0.0558416 0)
(10.0748 -0.0561647 0)
(10.0826 -0.0558229 0)
(10.0895 -0.0549739 0)
(10.0958 -0.0538168 0)
(10.1014 -0.0525043 0)
(10.1064 -0.0510517 0)
(10.1107 -0.0495302 0)
(10.1145 -0.0480096 0)
(10.1177 -0.0465433 0)
(10.1205 -0.0452317 0)
(10.123 -0.0439743 0)
(10.0022 -0.01673 0)
(10.0198 -0.036324 0)
(10.0324 -0.0468676 0)
(10.0434 -0.0527923 0)
(10.0549 -0.057861 0)
(10.0659 -0.0609107 0)
(10.0768 -0.0619736 0)
(10.0871 -0.0617613 0)
(10.0967 -0.0607409 0)
(10.1056 -0.0591055 0)
(10.1139 -0.0571672 0)
(10.1216 -0.0551029 0)
(10.1288 -0.0529702 0)
(10.1354 -0.0508725 0)
(10.1413 -0.0488955 0)
(10.1467 -0.0470308 0)
(10.1516 -0.0453543 0)
(10.1558 -0.0437838 0)
(10.0021 -0.0280657 0)
(10.0281 -0.0441278 0)
(10.0528 -0.0499618 0)
(10.0762 -0.054016 0)
(10.1031 -0.0587098 0)
(10.1312 -0.0623613 0)
(10.1599 -0.0647528 0)
(10.1873 -0.0661151 0)
(10.2127 -0.066484 0)
(10.2362 -0.0660003 0)
(10.2574 -0.0648575 0)
(10.2762 -0.0631381 0)
(10.2924 -0.0611627 0)
(10.306 -0.0591493 0)
(10.3172 -0.0572075 0)
(10.3261 -0.0553931 0)
(10.3329 -0.0537178 0)
(10.3377 -0.0522787 0)
(10.0572 -0.0379806 0)
(10.1868 -0.0705764 0)
(10.2979 -0.0765039 0)
(10.3802 -0.0804787 0)
(10.4369 -0.0837395 0)
(10.4734 -0.0850433 0)
(10.4895 -0.084684 0)
(10.4937 -0.0831514 0)
(10.4875 -0.0807098 0)
(10.4718 -0.0776666 0)
(10.4465 -0.0744605 0)
(10.4127 -0.0707072 0)
(10.3731 -0.0665287 0)
(10.3301 -0.0623542 0)
(10.2848 -0.0583349 0)
(10.2384 -0.0545024 0)
(10.1922 -0.0510071 0)
(10.1467 -0.0481573 0)
(9.86187 -0.0369923 0)
(9.59169 -0.0725278 0)
(9.29379 -0.0886955 0)
(8.98409 -0.0942468 0)
(8.68652 -0.0932441 0)
(8.41223 -0.0882783 0)
(8.16522 -0.0817764 0)
(7.93834 -0.074652 0)
(7.73351 -0.0666477 0)
(7.552 -0.0580631 0)
(7.39531 -0.0493646 0)
(7.26245 -0.0409398 0)
(7.14993 -0.0333114 0)
(7.05463 -0.0265093 0)
(6.97486 -0.0204697 0)
(6.90833 -0.0153832 0)
(6.85181 -0.0110613 0)
(6.80621 -0.00751904 0)
(-0.00244554 0.00715829 -1.0239e-18)
(-0.0117142 0.0122363 1.13687e-18)
(-0.0242349 0.0140301 0)
(-0.0382248 0.0128997 0)
(-0.0496192 0.00800929 0)
(-0.0515143 -0.000675748 -7.80381e-19)
(-0.0387861 -0.0126223 0)
(-0.0141937 -0.0259429 0)
(0.0190627 -0.0367344 0)
(0.0578523 -0.0425641 0)
(0.0999212 -0.0439712 4.47415e-19)
(0.141845 -0.0419916 0)
(0.180716 -0.0376271 0)
(0.214655 -0.0316546 0)
(0.242657 -0.0246758 0)
(0.264174 -0.0170519 2.40139e-19)
(0.278871 -0.00902195 0)
(0.28673 -0.000595414 0)
(0.287145 0.00822152 0)
(0.279679 0.0170694 0)
(0.264878 0.0252802 0)
(0.243364 0.0320521 0)
(0.215916 0.036612 0)
(0.18374 0.03827 3.18782e-19)
(0.14849 0.0364659 -3.70901e-19)
(0.112357 0.0309775 4.47647e-19)
(0.0778457 0.0222036 5.6254e-19)
(0.0476323 0.0116345 0)
(0.0238287 0.00199391 0)
(0.00696276 -0.00398249 -1.30288e-18)
(-0.00420569 -0.00609392 -1.39512e-18)
(-0.0109483 -0.00639164 0)
(-0.0137256 -0.00699043 0)
(-0.0110667 -0.00927771 -1.30931e-18)
(-0.00224581 -0.0137272 0)
(0.0145423 -0.0207206 0)
(0.0396735 -0.0281298 8.0259e-19)
(0.0708172 -0.0330077 0)
(0.103089 -0.0330172 4.74135e-19)
(0.131268 -0.0282902 8.22499e-19)
(0.151385 -0.0205672 0)
(0.161934 -0.0122195 0)
(0.163837 -0.00539608 0)
(0.159866 -0.00148098 0)
(0.15434 -0.00118464 0)
(0.150858 -0.00534296 8.00328e-19)
(0.148516 -0.0137669 8.08013e-19)
(0.14157 -0.0233307 8.1828e-19)
(0.122867 -0.0250491 0)
(0.0866396 -0.0109902 -9.78309e-19)
(0.0252922 0.0115028 0)
(-0.0707436 0.0307023 7.17448e-19)
(-0.175471 0.0503377 4.3962e-19)
(-0.291111 0.0695561 0)
(-0.415941 0.0879764 0)
(-0.545465 0.104352 0)
(-0.677645 0.113062 1.72837e-19)
(-0.809754 0.113999 0)
(-0.937257 0.11016 0)
(-1.05855 0.101807 0)
(-1.17222 0.0933764 0)
(-1.27746 0.0870967 0)
(-1.37453 0.0816983 0)
(-1.4645 0.0732432 0)
(-1.5468 0.065217 0)
(-1.62239 0.0602073 -9.55346e-20)
(-1.69239 0.0549893 0)
(-1.75726 0.0507007 0)
(-1.81771 0.0468659 8.74042e-20)
(-1.8743 0.0436042 8.52955e-20)
(-1.92754 0.04073 0)
(-1.97788 0.0382514 -8.1668e-20)
(-2.02565 0.0360461 8.00866e-20)
(-2.07116 0.0340963 0)
(-2.11463 0.0323239 -7.72837e-20)
(-2.15627 0.0307126 0)
(-2.19619 0.0292112 0)
(-2.23452 0.0278067 7.37569e-20)
(-2.27132 0.0264733 0)
(-2.30668 0.0251917 -7.17334e-20)
(-2.3406 0.0239572 0)
(-2.37314 0.0227514 6.98939e-20)
(-2.40428 0.0215806 6.90258e-20)
(-2.43407 0.0204204 6.81829e-20)
(-2.4625 0.0192883 1.34721e-19)
(-2.48956 0.018162 -1.33105e-19)
(-2.51523 0.0170607 0)
(-2.53947 0.0159617 0)
(-2.56228 0.0148794 0)
(-2.58362 0.0138014 -1.26788e-19)
(-2.60358 0.0127251 -1.25223e-19)
(-2.62219 0.0116366 1.23655e-19)
(-2.63942 0.0105461 0)
(-2.65522 0.00943991 -1.2049e-19)
(-2.66954 0.00832101 -1.18886e-19)
(-2.68235 0.00717251 -1.17263e-19)
(-2.69362 0.00599632 0)
(-2.70331 0.00478503 0)
(-2.71137 0.00355887 0)
(-2.71777 0.00235542 -1.10586e-19)
(-2.72243 0.00125417 0)
(-2.72531 0.0003267 0)
(-2.72666 -0.000432666 1.05302e-19)
(-2.72674 -0.00111217 0)
(-2.72556 -0.00176925 0)
(-2.72314 -0.00240936 9.96127e-20)
(-2.7195 -0.00304226 0)
(-2.71463 -0.00366486 0)
(-2.70853 -0.00428168 -9.35246e-20)
(-2.70121 -0.00488868 -9.1404e-20)
(-2.69266 -0.00548999 0)
(-2.68288 -0.00608212 8.70199e-20)
(-2.67186 -0.00666888 0)
(-2.65961 -0.00724779 -8.24393e-20)
(-2.64611 -0.00782204 0)
(-2.63137 -0.00839033 -7.7651e-20)
(-2.61538 -0.0089554 -7.51738e-20)
(-2.59815 -0.00951645 0)
(-2.57966 -0.0100752 0)
(-2.55991 -0.01063 0)
(-2.5389 -0.0111818 0)
(-2.51664 -0.0117305 0)
(-2.49312 -0.012276 0)
(-2.46835 -0.012821 0)
(-2.44233 -0.0133639 -5.30091e-20)
(-2.41505 -0.0139071 4.98917e-20)
(-2.38653 -0.0144475 0)
(-2.35676 -0.0149853 0)
(-2.32576 -0.0155155 0)
(-2.29355 -0.0160307 0)
(-2.26015 -0.0165489 6.56972e-20)
(-2.22556 -0.0170498 0)
(-2.18983 -0.0175368 -5.052e-20)
(-2.15295 -0.0179914 4.2559e-20)
(-2.11499 -0.0183683 0)
(-2.07596 -0.0186213 0)
(-2.03597 -0.0186523 0)
(-1.99508 -0.0184726 -8.03994e-21)
(-1.95326 -0.0185955 1.28641e-21)
(-1.9104 -0.0190439 0)
(-1.86656 -0.0194184 2.08741e-20)
(-1.82182 -0.0197681 3.11698e-20)
(-1.77624 -0.0200879 -4.18271e-20)
(-1.72989 -0.0203843 0)
(-1.68282 -0.0206605 0)
(-1.63508 -0.0209191 -7.61966e-20)
(-1.5867 -0.0211612 0)
(-1.53774 -0.0213874 0)
(-1.48822 -0.0215987 0)
(-1.4382 -0.0217961 0)
(-1.38769 -0.0219802 1.42996e-19)
(-1.33676 -0.0221512 1.58054e-19)
(-1.28542 -0.0223094 0)
(-1.23372 -0.0224535 1.90158e-19)
(-1.18169 -0.0225841 0)
(-1.12938 -0.0227009 0)
(-1.07683 -0.0228061 2.4401e-19)
(-1.02408 -0.0229018 0)
(-0.971159 -0.0229918 2.84412e-19)
(-0.918092 -0.0230797 0)
(-0.864899 -0.023168 0)
(-0.811595 -0.02326 3.53369e-19)
(-0.758183 -0.0233579 0)
(-0.704669 -0.0234641 4.06184e-19)
(-0.651049 -0.0235789 0)
(-0.597328 -0.0237039 0)
(-0.543503 -0.0238397 0)
(-0.489578 -0.0239897 -5.34124e-19)
(-0.435546 -0.024155 0)
(-0.381407 -0.0243393 6.13138e-19)
(-0.327155 -0.0245404 0)
(-0.272797 -0.0247567 0)
(-0.218352 -0.0249941 0)
(-0.163883 -0.0252416 0)
(-0.109529 -0.0254317 0)
(-0.0556434 -0.0254265 0)
(-0.00242085 -0.0248375 0)
(0.0468298 -0.023036 -2.01046e-18)
(0.101488 -0.0201283 0)
(0.115875 -0.00833636 0)
(0.000114622 0.019173 3.1206e-18)
(-0.00525701 0.032997 -3.56425e-18)
(-0.0109095 0.035579 0)
(-0.0124258 0.0282588 2.42366e-18)
(-0.00161809 0.0098225 0)
(0.0245498 -0.022319 8.29486e-19)
(0.0602625 -0.0617555 -1.02113e-18)
(0.102609 -0.0966371 -7.14467e-19)
(0.147619 -0.12003 0)
(0.191797 -0.13043 -4.53334e-19)
(0.232618 -0.129787 -1.96342e-19)
(0.268862 -0.121222 0)
(0.300015 -0.107624 0)
(0.32598 -0.0911449 0)
(0.346893 -0.0732644 0)
(0.363019 -0.0548545 -1.47866e-19)
(0.374723 -0.0363495 0)
(0.382194 -0.0179815 2.98642e-19)
(0.386173 0.000240502 0)
(0.386886 0.0183079 0)
(0.384044 0.0358992 -3.09571e-19)
(0.377133 0.052593 0)
(0.365573 0.067716 3.28688e-19)
(0.348798 0.0803422 -1.7167e-19)
(0.326432 0.0893472 1.82117e-19)
(0.298445 0.0935495 -1.96684e-19)
(0.265389 0.091951 -2.17333e-19)
(0.228588 0.0842425 0)
(0.190146 0.0711254 0)
(0.152784 0.0543257 3.48472e-19)
(0.119676 0.0357592 -4.28027e-19)
(0.0942699 0.0169252 0)
(0.0796341 -0.0017441 0)
(0.0767465 -0.0203635 6.46998e-19)
(0.0853955 -0.039316 0)
(0.1034 -0.0593291 0)
(0.12636 -0.0758735 -3.54526e-19)
(0.148148 -0.081287 0)
(0.163762 -0.0731228 2.54685e-19)
(0.171309 -0.0555351 -4.84865e-19)
(0.170673 -0.0342335 0)
(0.162599 -0.0150585 0)
(0.148637 -0.00210652 -1.17195e-18)
(0.128881 0.00465799 -1.28954e-18)
(0.0977719 0.00891612 -1.45695e-18)
(0.0468827 0.0180982 8.95724e-19)
(-0.0379128 0.0444163 -7.45368e-19)
(-0.15283 0.0847592 -1.35071e-18)
(-0.281536 0.127803 6.0657e-19)
(-0.416923 0.170562 2.21406e-19)
(-0.557527 0.208079 0)
(-0.701054 0.236922 -1.42481e-19)
(-0.842344 0.257191 1.22915e-19)
(-0.980383 0.268636 0)
(-1.11153 0.271867 0)
(-1.23263 0.268138 0)
(-1.34321 0.258564 -8.29113e-20)
(-1.44253 0.244549 0)
(-1.53085 0.228011 1.50578e-19)
(-1.60926 0.210186 0)
(-1.67867 0.192052 1.3989e-19)
(-1.74034 0.174856 0)
(-1.79584 0.158963 -1.3114e-19)
(-1.84662 0.144464 0)
(-1.89287 0.131542 1.25254e-19)
(-1.93593 0.120383 -6.13788e-20)
(-1.97608 0.110609 0)
(-2.01396 0.102197 -1.1783e-19)
(-2.0499 0.0948993 -5.78599e-20)
(-2.08419 0.0886004 -5.68836e-20)
(-2.11703 0.083091 0)
(-2.14857 0.0782648 -5.49879e-20)
(-2.17892 0.0739595 -5.42709e-20)
(-2.20816 0.070098 0)
(-2.23633 0.0665656 5.2743e-20)
(-2.26349 0.0633091 -1.03908e-19)
(-2.28964 0.0602591 0)
(-2.31479 0.057376 -5.0704e-20)
(-2.33896 0.0546219 0)
(-2.36213 0.0519621 1.48275e-19)
(-2.3843 0.0493854 0)
(-2.40546 0.0468631 -1.44823e-19)
(-2.4256 0.0443977 -4.77593e-20)
(-2.4447 0.0419577 4.70954e-20)
(-2.46275 0.0395603 9.31206e-20)
(-2.47974 0.0371791 -9.20542e-20)
(-2.49565 0.034836 0)
(-2.51044 0.0325078 0)
(-2.52408 0.0302099 0)
(-2.53657 0.0279327 2.63377e-19)
(-2.54796 0.0256707 8.66952e-20)
(-2.5583 0.0234193 -8.55572e-20)
(-2.56755 0.0211949 0)
(-2.57571 0.0189936 -8.32186e-20)
(-2.58276 0.0168274 8.2034e-20)
(-2.58869 0.0146833 8.08173e-20)
(-2.59353 0.012566 0)
(-2.59731 0.010458 0)
(-2.60006 0.00836062 0)
(-2.60186 0.0062759 7.57358e-20)
(-2.60281 0.00425094 0)
(-2.60301 0.00234408 -1.46143e-19)
(-2.60229 0.000574159 -2.14916e-19)
(-2.6004 -0.00110974 1.40436e-19)
(-2.59733 -0.0027513 0)
(-2.59306 -0.00436057 6.7342e-20)
(-2.58759 -0.00594805 0)
(-2.58093 -0.00751165 1.28378e-19)
(-2.57306 -0.00905576 -6.27263e-20)
(-2.56399 -0.0105759 -6.11347e-20)
(-2.55371 -0.0120759 0)
(-2.54222 -0.0135513 -1.73069e-19)
(-2.52952 -0.0150053 1.1211e-19)
(-2.5156 -0.0164338 5.41958e-20)
(-2.50046 -0.0178392 0)
(-2.48409 -0.0192187 5.06841e-20)
(-2.4665 -0.0205755 1.4701e-19)
(-2.44767 -0.021908 0)
(-2.42761 -0.0232191 9.0788e-20)
(-2.40631 -0.0245068 8.70282e-20)
(-2.38378 -0.0257716 8.32045e-20)
(-2.36 -0.0270118 0)
(-2.33499 -0.028226 0)
(-2.30874 -0.0294153 0)
(-2.28125 -0.0305767 -3.38502e-20)
(-2.25254 -0.0317117 -3.12523e-20)
(-2.22259 -0.0328156 0)
(-2.19143 -0.033889 -5.43903e-20)
(-2.15907 -0.034927 -4.99466e-20)
(-2.12551 -0.0359298 0)
(-2.09077 -0.0368932 -4.01737e-20)
(-2.05489 -0.0378187 -7.21054e-20)
(-2.01788 -0.0387049 3.05789e-20)
(-1.97977 -0.0395537 2.69584e-20)
(-1.94058 -0.040371 0)
(-1.90032 -0.0411703 0)
(-1.859 -0.0419634 0)
(-1.81662 -0.0427437 4.78651e-21)
(-1.77323 -0.0434875 -7.98608e-22)
(-1.72895 -0.0441465 1.0946e-20)
(-1.68379 -0.044718 -1.18699e-20)
(-1.63778 -0.045214 1.60428e-20)
(-1.59095 -0.0456382 2.34532e-20)
(-1.54336 -0.0460019 0)
(-1.49506 -0.046309 0)
(-1.44609 -0.0465677 -3.99228e-20)
(-1.3965 -0.0467774 0)
(-1.34632 -0.0469444 0)
(-1.2956 -0.0470673 1.19772e-19)
(-1.24438 -0.0471524 0)
(-1.19269 -0.0471987 7.23181e-20)
(-1.14058 -0.0472108 -8.09556e-20)
(-1.08807 -0.0471866 0)
(-1.0352 -0.0471281 9.31786e-20)
(-0.982013 -0.0470321 0)
(-0.928541 -0.0469016 0)
(-0.874821 -0.0467369 -1.17003e-19)
(-0.820891 -0.0465452 2.47301e-19)
(-0.766777 -0.0463296 -1.32294e-19)
(-0.712507 -0.0460989 0)
(-0.658096 -0.0458575 0)
(-0.603558 -0.0456136 1.54318e-19)
(-0.548898 -0.0453701 0)
(-0.494115 -0.0451328 1.70937e-19)
(-0.439208 -0.0449007 0)
(-0.384176 -0.0446754 0)
(-0.329014 -0.0444559 0)
(-0.273723 -0.0442457 2.07896e-19)
(-0.218295 -0.0440446 0)
(-0.162725 -0.0438553 -2.26415e-19)
(-0.107007 -0.0436743 0)
(-0.0511416 -0.0434916 0)
(0.00484706 -0.0432801 5.04484e-19)
(0.0609064 -0.0429955 -5.10385e-19)
(0.116953 -0.0425703 0)
(0.172746 -0.0418695 0)
(0.228266 -0.0405945 0)
(0.281311 -0.0383093 1.55396e-18)
(0.337136 -0.034316 0)
(0.371655 -0.0223253 -1.07163e-18)
(0.000730903 0.0213593 2.85293e-22)
(0.00117504 0.0372149 4.88717e-18)
(0.00631698 0.0329579 0)
(0.0229662 0.00642455 -3.56513e-18)
(0.0578445 -0.0454791 0)
(0.106084 -0.108328 0)
(0.157979 -0.162586 -2.96699e-22)
(0.206027 -0.197204 3.99387e-19)
(0.246731 -0.210795 3.39056e-19)
(0.279524 -0.207439 3.00343e-19)
(0.305305 -0.192592 0)
(0.325421 -0.171041 0)
(0.341079 -0.146205 -2.45884e-19)
(0.35318 -0.120202 -4.75971e-19)
(0.362319 -0.0942256 4.66906e-19)
(0.368906 -0.0688731 0)
(0.373223 -0.0443896 4.65463e-19)
(0.37547 -0.0208772 -2.3547e-19)
(0.375848 0.00167027 0)
(0.374683 0.0233726 4.8233e-19)
(0.372237 0.0443834 2.44256e-19)
(0.368693 0.0647173 -5.01659e-19)
(0.364083 0.0841416 -2.59451e-19)
(0.358097 0.102091 0)
(0.350111 0.117628 5.69511e-19)
(0.339259 0.129464 6.01538e-19)
(0.324601 0.136113 0)
(0.305469 0.136185 6.90477e-19)
(0.281939 0.12876 0)
(0.25515 0.113727 8.41474e-19)
(0.227462 0.0918097 4.77756e-19)
(0.202004 0.0644359 0)
(0.182039 0.033094 0)
(0.169661 -0.000900347 0)
(0.164862 -0.0367127 0)
(0.164583 -0.0697857 0)
(0.161348 -0.0878938 0)
(0.149804 -0.0838273 8.03262e-19)
(0.130724 -0.0626144 -1.12291e-18)
(0.104902 -0.0331731 0)
(0.0719482 -0.000678121 0)
(0.0301687 0.0314051 0)
(-0.0284491 0.0606054 8.10454e-22)
(-0.11278 0.0950165 7.87968e-19)
(-0.218039 0.140385 1.16033e-18)
(-0.340575 0.19223 -8.7721e-19)
(-0.475194 0.245767 -3.4546e-19)
(-0.614627 0.297672 2.81424e-19)
(-0.753032 0.342783 6.11355e-22)
(-0.885597 0.379218 2.07308e-19)
(-1.00851 0.40638 0)
(-1.11932 0.422576 1.66753e-19)
(-1.21749 0.427787 1.29829e-21)
(-1.30283 0.42279 0)
(-1.37597 0.409226 0)
(-1.43841 0.389202 -1.27013e-19)
(-1.49221 0.364708 0)
(-1.53926 0.337575 0)
(-1.58152 0.309654 1.12874e-19)
(-1.6205 0.282275 2.16296e-19)
(-1.6573 0.256484 -1.04055e-19)
(-1.69255 0.233011 0)
(-1.72658 0.21217 9.8384e-20)
(-1.7597 0.193718 0)
(-1.79213 0.177536 9.42665e-20)
(-1.8239 0.163635 9.17493e-20)
(-1.85499 0.151617 -1.79807e-19)
(-1.88541 0.141233 -8.80748e-20)
(-1.91516 0.132206 0)
(-1.94424 0.124313 1.69287e-19)
(-1.97264 0.117337 0)
(-2.00037 0.111114 2.44948e-19)
(-2.0274 0.105483 1.60446e-19)
(-2.05372 0.100326 1.57802e-19)
(-2.07932 0.0955344 -1.55291e-19)
(-2.10418 0.0910316 2.2949e-19)
(-2.12827 0.0867487 0)
(-2.15158 0.0826359 0)
(-2.17408 0.0786523 -1.46349e-19)
(-2.19574 0.0747654 -2.1663e-19)
(-2.21653 0.0709569 0)
(-2.23644 0.0672054 7.03551e-20)
(-2.25543 0.0635038 0)
(-2.27348 0.0598364 -2.05311e-19)
(-2.29057 0.0562066 -1.57341e-22)
(-2.30668 0.0526039 1.35689e-22)
(-2.32179 0.049036 1.31437e-19)
(-2.33587 0.0454969 0)
(-2.34889 0.0419909 -1.27845e-19)
(-2.36083 0.0385185 -5.57158e-23)
(-2.37177 0.0350723 0)
(-2.3817 0.0316579 0)
(-2.39062 0.0282798 0)
(-2.39851 0.0249505 1.18644e-19)
(-2.40535 0.0216746 0)
(-2.41115 0.0184592 0)
(-2.41589 0.015309 0)
(-2.41961 0.0122321 0)
(-2.4223 0.00923793 0)
(-2.42397 0.00633556 1.06845e-19)
(-2.4246 0.00352554 0)
(-2.42416 0.00078319 1.0246e-19)
(-2.4226 -0.00192143 1.00248e-19)
(-2.4199 -0.0045933 -9.80048e-20)
(-2.41605 -0.0072242 0)
(-2.41105 -0.00981722 -9.34273e-20)
(-2.4049 -0.0123738 0)
(-2.39759 -0.0148953 -8.8732e-20)
(-2.38911 -0.017381 8.63417e-20)
(-2.37947 -0.0198308 2.52142e-19)
(-2.36866 -0.0222442 0)
(-2.35667 -0.0246207 2.37431e-19)
(-2.34351 -0.0269599 7.69456e-20)
(-2.32916 -0.029261 0)
(-2.31363 -0.0315236 1.4333e-19)
(-2.2969 -0.0337471 1.38189e-19)
(-2.27897 -0.0359323 -1.99224e-19)
(-2.25985 -0.0380793 0)
(-2.23952 -0.0401894 -6.09267e-20)
(-2.21798 -0.0422624 -5.82315e-20)
(-2.19523 -0.0442978 -1.6715e-19)
(-2.17127 -0.0462935 0)
(-2.1461 -0.0482481 0)
(-2.11971 -0.0501599 0)
(-2.09212 -0.0520268 -4.50034e-20)
(-2.06331 -0.0538471 0)
(-2.03331 -0.0556172 0)
(-2.00211 -0.0573344 3.54722e-20)
(-1.96973 -0.0589941 3.24613e-20)
(-1.93618 -0.0605926 0)
(-1.90147 -0.062125 0)
(-1.86564 -0.0635891 4.63609e-20)
(-1.8287 -0.0649826 0)
(-1.79068 -0.0663035 -3.35583e-20)
(-1.7516 -0.0675469 -2.80009e-20)
(-1.71148 -0.0687169 0)
(-1.67034 -0.0698181 0)
(-1.62822 -0.0708561 7.96388e-21)
(-1.58517 -0.0718489 -1.06449e-21)
(-1.54125 -0.0727729 -1.08438e-21)
(-1.49648 -0.0735906 0)
(-1.4509 -0.0743003 -4.04206e-20)
(-1.40453 -0.0749032 0)
(-1.35742 -0.0754091 0)
(-1.30961 -0.0758245 0)
(-1.26114 -0.0761571 4.9382e-20)
(-1.21207 -0.0764099 0)
(-1.16243 -0.0765884 -1.25644e-19)
(-1.11226 -0.0766953 -7.14468e-20)
(-1.06161 -0.076736 0)
(-1.0105 -0.0767135 -8.64191e-20)
(-0.958974 -0.0766317 0)
(-0.907068 -0.0764916 0)
(-0.854812 -0.0762932 -3.25131e-19)
(-0.802239 -0.0760355 2.31259e-19)
(-0.749386 -0.0757197 0)
(-0.696287 -0.0753496 2.62142e-19)
(-0.642972 -0.0749325 -1.40095e-19)
(-0.589469 -0.0744769 0)
(-0.5358 -0.0739922 0)
(-0.481983 -0.0734883 0)
(-0.428027 -0.0729739 -5.11548e-19)
(-0.373936 -0.072457 0)
(-0.319712 -0.0719424 -1.87062e-19)
(-0.265349 -0.0714322 0)
(-0.210845 -0.0709247 0)
(-0.156194 -0.0704206 0)
(-0.101393 -0.0699206 0)
(-0.0464327 -0.0694278 0)
(0.00869374 -0.0689437 0)
(0.0639942 -0.0684655 -4.72525e-19)
(0.119478 -0.0679762 0)
(0.175144 -0.0674394 -2.44159e-19)
(0.230962 -0.0667954 7.39423e-19)
(0.28687 -0.065959 0)
(0.34268 -0.0647658 0)
(0.39844 -0.0629427 -5.09945e-19)
(0.452616 -0.0599955 -5.18509e-19)
(0.509267 -0.0550617 5.24937e-19)
(0.553495 -0.0428233 5.40074e-19)
(-0.000852209 0.0210859 -6.27569e-18)
(0.00152561 0.0263388 -7.73607e-18)
(0.0196447 -0.00687398 -3.58645e-18)
(0.0624754 -0.079761 -9.81543e-19)
(0.1208 -0.16402 0)
(0.179093 -0.231217 8.63247e-19)
(0.226806 -0.268764 -3.44485e-19)
(0.261176 -0.27845 0)
(0.284123 -0.268323 -2.61624e-19)
(0.299018 -0.2466 0)
(0.308836 -0.219142 4.50898e-19)
(0.315591 -0.189413 0)
(0.320434 -0.159238 2.06592e-19)
(0.323934 -0.129501 4.03925e-19)
(0.326327 -0.100598 -3.99536e-19)
(0.32768 -0.0727102 0)
(0.328014 -0.0459116 -4.03407e-19)
(0.327341 -0.0202451 0)
(0.325691 0.00427732 0)
(0.323152 0.0276929 -4.21041e-19)
(0.319836 0.0500406 0)
(0.315936 0.0713433 -6.35409e-22)
(0.311678 0.091556 0)
(0.307204 0.110468 0)
(0.302516 0.127619 4.95207e-22)
(0.297355 0.142209 -5.24047e-19)
(0.291174 0.153051 -5.59977e-19)
(0.283187 0.158583 -6.00748e-19)
(0.272581 0.157082 0)
(0.258916 0.147036 -1.41659e-18)
(0.242398 0.127533 0)
(0.22422 0.098679 -8.85287e-19)
(0.206001 0.0619724 0)
(0.189437 0.019995 0)
(0.172839 -0.0220094 1.11711e-18)
(0.148239 -0.0500663 0)
(0.11309 -0.0525907 -8.20463e-19)
(0.0684543 -0.0333971 -7.90934e-22)
(0.0155213 0.000994813 1.50806e-18)
(-0.0481385 0.0453927 -1.39959e-18)
(-0.127671 0.0974385 0)
(-0.222385 0.155546 0)
(-0.331633 0.216116 -3.84558e-19)
(-0.452583 0.27743 0)
(-0.579522 0.338643 -2.63911e-19)
(-0.707094 0.397059 2.24944e-19)
(-0.830337 0.447432 1.96744e-19)
(-0.944138 0.486628 0)
(-1.04534 0.514543 -1.57591e-19)
(-1.13313 0.530797 -1.44189e-19)
(-1.20688 0.53598 2.68484e-19)
(-1.26743 0.530917 -1.24159e-19)
(-1.31669 0.516912 -1.16645e-19)
(-1.35673 0.495723 0)
(-1.39004 0.469414 0)