/*--------------------------------*- C++ -*----------------------------------*\
  =========                 |
  \\      /  F ield         | OpenFOAM: The Open Source CFD Toolbox
   \\    /   O peration     | Website:  https://openfoam.org
    \\  /    A nd           | Version:  13
     \\/     M anipulation  |
\*---------------------------------------------------------------------------*/
FoamFile
{
    format      ascii;
    class       volScalarField;
    location    "7.4";
    object      epsilon;
}
// * * * * * * * * * * * * * * * * * * * * * * * * * * * * * * * * * * * * * //

dimensions      [0 2 -3 0 0 0 0];

internalField   nonuniform List<scalar> 
6400
(
2.79635e-05
0.000143622
0.00034881
0.000562049
0.000723015
0.000813581
0.000846703
0.000850216
0.000855591
0.000887394
0.000964354
0.00111468
0.0013521
0.00168148
0.00208573
0.00254238
0.00302813
0.00353325
0.00403429
0.00451871
0.00500463
0.0055338
0.00616187
0.00692282
0.00778648
0.00866114
0.00952885
0.01039
0.0112708
0.0121954
0.013152
0.0141071
0.0150457
0.0159695
0.0169031
0.0178515
0.0188353
0.0198602
0.0209394
0.0220762
0.0232788
0.0245566
0.0259169
0.0273764
0.0289453
0.0306761
0.0326664
0.0351259
0.0376396
0.0401895
0.0426959
0.0451315
0.047423
0.0495052
0.0513028
0.0527243
0.0534688
0.0537659
0.0537129
0.0527189
0.0509385
0.0483674
0.0450368
0.0410681
0.0365574
0.0317217
0.026797
0.0219804
0.0174501
0.013405
0.0101202
0.007363
0.00513528
0.00343069
0.00220382
0.00136822
0.000823397
0.000472562
0.000223314
4.75519e-05
0.00013522
0.000135249
0.000221222
0.000320634
0.000395309
0.000440628
0.000463054
0.000473349
0.000484944
0.000511326
0.000566876
0.000671651
0.000842133
0.00109099
0.00142204
0.00183637
0.00233588
0.00292701
0.00361538
0.0044105
0.00532044
0.0063827
0.0076484
0.00914244
0.010855
0.0128093
0.0148295
0.0167775
0.0185473
0.0200459
0.0211812
0.0220571
0.0226511
0.0230588
0.0233171
0.0234848
0.0236022
0.0237032
0.023811
0.0239454
0.0241292
0.0243672
0.0246632
0.0249869
0.0253666
0.0258338
0.0263817
0.0270071
0.0277099
0.0284476
0.0292251
0.0299953
0.0307424
0.0314165
0.0319769
0.0322937
0.0323996
0.0322942
0.0319024
0.0311038
0.0299339
0.028365
0.0263937
0.0240973
0.0215587
0.0188813
0.0161794
0.0135706
0.011144
0.00899002
0.0071697
0.00560846
0.00427003
0.00313324
0.002195
0.00143865
0.000877777
0.000492968
0.000256154
0.000251539
0.000295636
0.000245956
0.000328876
0.00041332
0.000464192
0.000489919
0.000504006
0.000520189
0.000553353
0.000621404
0.000748165
0.000961911
0.00128995
0.00175214
0.00236098
0.00312873
0.00406768
0.00519202
0.00651139
0.00803205
0.00975943
0.0116597
0.0136466
0.0155678
0.0172412
0.018432
0.0191477
0.0195407
0.019736
0.0198781
0.0199544
0.0198772
0.019567
0.01928
0.0189761
0.0187131
0.0184998
0.0183732
0.0183221
0.018318
0.0184333
0.0186228
0.0189123
0.0193243
0.0198459
0.0204559
0.0211481
0.0219172
0.0227599
0.0236594
0.0246068
0.025578
0.026551
0.0274901
0.028356
0.0290994
0.0296499
0.029901
0.0299361
0.0295974
0.0288173
0.027586
0.0258764
0.0237996
0.0214355
0.018882
0.016268
0.0137079
0.0113079
0.00915046
0.00728722
0.00571904
0.00442204
0.00335676
0.00248554
0.00178543
0.00121346
0.000759559
0.000470951
0.000672819
0.000513156
0.000424166
0.000518548
0.000599571
0.000641344
0.00066281
0.000684265
0.000726362
0.000812015
0.000972405
0.0012471
0.00167837
0.00230141
0.00313782
0.00419756
0.0054848
0.0069987
0.00871831
0.010589
0.0125168
0.0143677
0.0159975
0.0172538
0.01793
0.0182136
0.0182821
0.0182278
0.0178791
0.0173319
0.0167405
0.0160858
0.0155756
0.0151869
0.0148545
0.0146054
0.0144531
0.0143865
0.0143739
0.0144632
0.0146322
0.0148901
0.0152271
0.0156508
0.0161583
0.0167477
0.0174181
0.0181709
0.0190046
0.019918
0.0209053
0.0219595
0.0230669
0.0242088
0.0253568
0.0264745
0.0275131
0.0284136
0.0290888
0.029408
0.0294688
0.0290758
0.0282509
0.0269968
0.0251218
0.0228414
0.0202498
0.0174956
0.0147293
0.0120961
0.009713
0.00765606
0.00595046
0.00457819
0.00349295
0.00263977
0.00196911
0.00142814
0.000987244
0.000706164
0.00112005
0.000822964
0.000671715
0.000765231
0.000843765
0.000887987
0.000922603
0.000975031
0.00107634
0.00126488
0.00158933
0.00210456
0.0028592
0.00388182
0.00517623
0.00672528
0.00849129
0.010407
0.0123614
0.0141942
0.0157383
0.0167736
0.0172366
0.0173691
0.0173181
0.016901
0.0161781
0.0153144
0.0145113
0.0138581
0.0132553
0.0127545
0.0123674
0.0120655
0.01184
0.0117011
0.0116372
0.0116194
0.0116626
0.0117826
0.0119565
0.0121936
0.0124898
0.0128493
0.0132729
0.0137648
0.0143287
0.0149696
0.0156919
0.0165007
0.0173994
0.0183893
0.0194677
0.0206274
0.0218546
0.0231276
0.0244107
0.0256504
0.0267845
0.0277351
0.028317
0.02853
0.0283316
0.0275651
0.026359
0.0243995
0.0219282
0.0191166
0.0161469
0.0132133
0.0104978
0.00813613
0.00619545
0.00467242
0.00351293
0.00263793
0.001978
0.00147294
0.00108276
0.000861529
0.00142877
0.00126542
0.000997028
0.00107375
0.00115428
0.00121566
0.00128506
0.00139936
0.00160437
0.00195666
0.00252097
0.00335755
0.00450284
0.0059553
0.00767326
0.009578
0.0115525
0.0134397
0.0150563
0.0161457
0.0166182
0.0167301
0.0165921
0.0160471
0.0150806
0.014085
0.0131976
0.0123936
0.0117155
0.0111484
0.0106669
0.0102811
0.00997354
0.00973164
0.00954878
0.0094193
0.00934133
0.00930644
0.00929891
0.00933972
0.00941762
0.00953452
0.00969195
0.009891
0.0101363
0.0104322
0.0107858
0.011205
0.0117004
0.0122828
0.0129653
0.0137603
0.0146793
0.0157312
0.0169187
0.0182357
0.0196696
0.021187
0.0227395
0.0242627
0.0256501
0.0267839
0.0273501
0.0275003
0.0270019
0.0259808
0.0239381
0.0212868
0.0182153
0.0149675
0.0118133
0.00899164
0.00665698
0.00485459
0.00353689
0.00259475
0.00192651
0.00143976
0.00108103
0.000923582
0.00154173
0.00187991
0.00140646
0.00145607
0.001549
0.00164592
0.00177608
0.0019891
0.00234774
0.00292394
0.00378688
0.00498145
0.00650635
0.00830346
0.0102601
0.012217
0.013979
0.0153351
0.0159985
0.016193
0.0161263
0.0155862
0.0145532
0.0134352
0.012425
0.0115091
0.0107297
0.0100574
0.0094949
0.00901858
0.00861796
0.00828469
0.00800497
0.0077716
0.0075782
0.00742003
0.00729327
0.00719413
0.00712125
0.00708194
0.00706578
0.00706423
0.00709889
0.00715862
0.00725265
0.00738048
0.00754971
0.0077658
0.00803822
0.00837805
0.00880099
0.00932636
0.00997688
0.0107777
0.0117526
0.0129185
0.0143027
0.0159057
0.0176968
0.0196236
0.0216295
0.0235903
0.0253501
0.0265688
0.0270689
0.0270702
0.026154
0.0240452
0.0211346
0.017683
0.0140421
0.010591
0.0076374
0.00534029
0.00369824
0.00259624
0.00185432
0.00136395
0.00104351
0.000915966
0.00149718
0.00270297
0.00190485
0.00192579
0.00204519
0.00219944
0.00241897
0.00276828
0.0033244
0.00416357
0.00533934
0.00685634
0.00865224
0.0105959
0.0125006
0.0141499
0.0152284
0.0156658
0.0157378
0.0153745
0.0144606
0.0132491
0.0121094
0.0110649
0.0101662
0.00938787
0.0087285
0.00816188
0.00767932
0.0072631
0.00690539
0.00659647
0.00632867
0.00609719
0.00589776
0.00572746
0.00558357
0.00546335
0.00536585
0.00529047
0.00523471
0.00520551
0.00519474
0.00519746
0.0052344
0.00529237
0.0053804
0.00549998
0.0056574
0.0058581
0.00610943
0.00642238
0.00681155
0.00729847
0.00791635
0.00871407
0.00973276
0.0110365
0.0126627
0.0145975
0.0168432
0.0192971
0.0218387
0.0242759
0.0263127
0.027346
0.0276614
0.0269672
0.0247214
0.0214226
0.0174447
0.0132962
0.009498
0.00641992
0.00419463
0.00274429
0.00185618
0.00130083
0.000979618
0.000880579
0.00139179
0.00376041
0.00249576
0.00249231
0.00265965
0.00289118
0.00322625
0.00374102
0.00451762
0.00561913
0.00706091
0.0087871
0.0106631
0.0124888
0.0140297
0.0149137
0.0152136
0.015218
0.0146071
0.0134605
0.0121982
0.0110162
0.00997699
0.00907379
0.00830601
0.00764597
0.00708096
0.00659193
0.00616982
0.0058032
0.00548613
0.00521172
0.00497553
0.00477374
0.00460273
0.0044595
0.00434159
0.00424703
0.004174
0.0041208
0.00408911
0.00407528
0.00407233
0.00408984
0.00412692
0.00418178
0.00425707
0.00435368
0.0044744
0.00462212
0.00480116
0.00501705
0.00527757
0.00559309
0.00597769
0.00645316
0.00705064
0.00782078
0.00885024
0.0102808
0.0121743
0.0145571
0.0173736
0.0204608
0.0236048
0.0264186
0.0281147
0.0287498
0.0282846
0.0258057
0.021968
0.0173165
0.0125869
0.0084463
0.00530118
0.00321373
0.00198428
0.00130345
0.000930418
0.000824029
0.00127301
0.00506246
0.0031868
0.00316867
0.0033979
0.00372485
0.00419321
0.00488432
0.00587172
0.00718635
0.00878796
0.0105521
0.0122802
0.0137315
0.0145257
0.0147809
0.014656
0.0138839
0.0126272
0.0113503
0.0101438
0.00909478
0.00819561
0.00742672
0.00677114
0.00620683
0.0057219
0.00530392
0.00494579
0.00463984
0.00438096
0.0041636
0.00398346
0.00383618
0.00371795
0.00362522
0.00355486
0.00350416
0.00347215
0.00345715
0.00345275
0.00346052
0.00348368
0.00351926
0.00356816
0.00363007
0.00370609
0.00379725
0.00390508
0.00403153
0.00417915
0.00435123
0.00455217
0.00478791
0.00506681
0.00539772
0.00579593
0.00628548
0.00690529
0.00771939
0.0088356
0.0104668
0.0127955
0.0158167
0.0194001
0.0232395
0.0269088
0.0292915
0.0302265
0.0299339
0.0270965
0.0225242
0.0170886
0.0117654
0.00735758
0.00425552
0.00238549
0.00140034
0.000929818
0.000775582
0.00117615
0.00663066
0.00399332
0.00395961
0.00425866
0.00469061
0.00529503
0.00614816
0.00730003
0.0087348
0.0103501
0.0119618
0.013334
0.0140897
0.0143325
0.0141379
0.0132716
0.011993
0.0106718
0.00945813
0.00839243
0.00748998
0.00672173
0.00606778
0.00551037
0.00503461
0.00463133
0.00429163
0.0040089
0.00377614
0.00358739
0.00343651
0.00331815
0.00322717
0.0031592
0.00311048
0.00307822
0.00306227
0.00305646
0.00305724
0.00307236
0.0030956
0.00312966
0.00317321
0.00322751
0.0032929
0.00337063
0.00346188
0.00356803
0.00369063
0.00383137
0.00399213
0.00417502
0.00438253
0.00461796
0.00488609
0.00519438
0.00555496
0.00598814
0.00652209
0.00720764
0.00813933
0.00948278
0.0115711
0.014657
0.0186196
0.0231591
0.0277338
0.0307945
0.0319888
0.0317122
0.0283144
0.022834
0.0165521
0.0107017
0.00618955
0.00327831
0.00170728
0.000991482
0.000763359
0.00114498
0.00854099
0.00494134
0.00486147
0.00522894
0.00576378
0.00648864
0.00746313
0.00870189
0.0101364
0.0116092
0.0128994
0.0136402
0.0138836
0.0136691
0.0127689
0.0115141
0.0101667
0.00892657
0.0078487
0.00693306
0.00616334
0.00551157
0.00496179
0.00449965
0.0041145
0.00379773
0.00354065
0.00333534
0.0031738
0.00304879
0.00295356
0.00288237
0.00283033
0.00279357
0.0027691
0.00275687
0.00275212
0.00275171
0.00276143
0.00277867
0.0028034
0.00283667
0.00287881
0.00293105
0.00299435
0.00307009
0.0031597
0.00326474
0.00338689
0.00352788
0.00368948
0.00387338
0.00408113
0.00431412
0.00457365
0.00486141
0.00518047
0.00553743
0.00594642
0.00643488
0.00705086
0.0078691
0.00904753
0.0108711
0.013886
0.0181585
0.0233821
0.0288911
0.0325653
0.0339428
0.0334639
0.029173
0.0226332
0.0154986
0.00931904
0.00494459
0.00239738
0.00119842
0.000799032
0.00118883
0.0106648
0.00599177
0.00585359
0.00628388
0.0069075
0.0077193
0.00875292
0.00998219
0.0112904
0.0124831
0.0132132
0.0134597
0.013261
0.0123951
0.0111682
0.0098164
0.00854275
0.00744032
0.0065093
0.00573028
0.00507966
0.0045362
0.00408701
0.00371971
0.00342408
0.00319003
0.00300754
0.0028673
0.00276065
0.00268022
0.00261979
0.00257451
0.00254067
0.00251568
0.00249785
0.00248667
0.00248137
0.00247988
0.00248495
0.00249707
0.00251629
0.0025436
0.00257994
0.00262649
0.00268445
0.00275528
0.00284053
0.00294192
0.00306136
0.00320086
0.00336255
0.00354856
0.00376081
0.00400091
0.00426983
0.00456779
0.00489425
0.00524861
0.00563198
0.00605136
0.00652715
0.00710559
0.00786451
0.00894522
0.0106394
0.0135196
0.0180579
0.0239615
0.0304212
0.0345391
0.0359549
0.0349445
0.0293942
0.021608
0.0137901
0.00762257
0.00368054
0.00167527
0.000935319
0.00136892
0.0129407
0.00712053
0.00691048
0.00739058
0.00807746
0.00892858
0.00994654
0.0110666
0.012137
0.0128445
0.0130897
0.0129385
0.0121443
0.0109541
0.00960415
0.00829918
0.00715821
0.00620237
0.00540839
0.00475222
0.00421216
0.00377178
0.00341849
0.00313944
0.00292284
0.00275694
0.00263094
0.00253539
0.00246234
0.00240559
0.00236046
0.00232369
0.00229312
0.00226755
0.00224641
0.00222964
0.0022175
0.00221157
0.00220981
0.00221409
0.00222679
0.00224743
0.00227727
0.00231738
0.00236893
0.00243333
0.00251213
0.00260712
0.00272033
0.00285408
0.00301089
0.00319349
0.00340463
0.00364689
0.00392237
0.00423219
0.00457609
0.00495202
0.00535643
0.00578565
0.00623986
0.00673145
0.00730049
0.00803486
0.00906852
0.0107049
0.0135517
0.0183692
0.0249964
0.0323944
0.0366075
0.0378412
0.03576
0.028549
0.0195255
0.0114257
0.00572034
0.00256506
0.00126249
0.00179669
0.0152945
0.00829866
0.00800139
0.00851101
0.00922653
0.0100609
0.0109851
0.0119034
0.0125606
0.0127966
0.012707
0.0120004
0.010868
0.00952504
0.00818838
0.00699898
0.00600333
0.00518518
0.00451564
0.00397191
0.00353492
0.0031894
0.0029211
0.00271577
0.00256025
0.00244246
0.00235222
0.00228139
0.00222382
0.00217518
0.00213265
0.00209458
0.00206018
0.00202927
0.00200205
0.00197895
0.00196054
0.00194802
0.00194218
0.00194074
0.00194722
0.00196274
0.0019869
0.00202113
0.00206631
0.00212376
0.00219492
0.00228155
0.00238572
0.00250985
0.00265675
0.00282962
0.00303198
0.00326749
0.00353971
0.00385161
0.00420491
0.0045993
0.00503165
0.00549578
0.00598352
0.00648872
0.00701638
0.00760067
0.00833388
0.00936182
0.0110073
0.0139564
0.0191843
0.0266698
0.0347746
0.0386451
0.039444
0.0354853
0.0262505
0.016369
0.00860743
0.00393408
0.00184597
0.00247309
0.0176534
0.00949498
0.00909281
0.00960564
0.0103094
0.0110681
0.0118225
0.0124001
0.0126219
0.0125594
0.0119606
0.0109004
0.00957783
0.00820889
0.00696169
0.0059101
0.00505305
0.00436009
0.00380357
0.00336227
0.00301776
0.00275358
0.00255371
0.00240316
0.00228887
0.00219998
0.00212815
0.00206738
0.00201367
0.00196459
0.00191893
0.00187625
0.00183665
0.00180052
0.00176837
0.0017408
0.00171837
0.00170163
0.00169254
0.00168913
0.00169061
0.00170263
0.00172236
0.0017516
0.00179094
0.00184157
0.00190478
0.0019822
0.00207581
0.002188
0.00232165
0.00248018
0.00266755
0.00288822
0.00314704
0.0034488
0.00379773
0.00419656
0.00464527
0.00513986
0.0056715
0.00622723
0.00679419
0.00737002
0.00798524
0.00874071
0.0097965
0.0115193
0.0147225
0.0205879
0.0292054
0.0374028
0.0406126
0.0406127
0.0334316
0.0224098
0.0124192
0.00583068
0.00268399
0.00333893
0.0199768
0.0106786
0.0101514
0.0106366
0.0112864
0.0119138
0.0124046
0.0126056
0.0125196
0.012032
0.0110462
0.00975873
0.00836378
0.00705
0.00592546
0.00501082
0.00428007
0.0037
0.00324496
0.00289378
0.00262714
0.00242712
0.00227709
0.00216273
0.00207256
0.00199795
0.00193298
0.00187386
0.00181852
0.00176606
0.0017163
0.00166954
0.00162627
0.00158704
0.00155239
0.0015228
0.00149871
0.00148047
0.0014696
0.00146502
0.00146449
0.00147359
0.00149014
0.00151521
0.00154942
0.00159375
0.00164935
0.00171767
0.00180051
0.00190012
0.00201925
0.00216127
0.00233024
0.002531
0.00276913
0.00305078
0.00338233
0.00376959
0.00421661
0.00472401
0.00528699
0.00589378
0.00652595
0.00716298
0.00779479
0.00845064
0.00924776
0.0103631
0.0122466
0.0158819
0.0225838
0.0325663
0.0404044
0.0427485
0.0401316
0.0293879
0.0172729
0.0083321
0.00380191
0.00433981
0.0222091
0.0118183
0.0111445
0.0115706
0.0121278
0.0125511
0.0127204
0.0126178
0.012211
0.0113074
0.0100645
0.00865566
0.0072724
0.00605752
0.0050634
0.00427572
0.0036582
0.00317862
0.00281192
0.00253596
0.00233038
0.00217686
0.00205966
0.00196644
0.00188814
0.00181869
0.00175448
0.0016936
0.00163537
0.00157983
0.00152738
0.00147857
0.00143393
0.00139395
0.00135903
0.00132947
0.00130551
0.00128734
0.00127594
0.00127083
0.00126977
0.00127663
0.00129076
0.00131238
0.00134217
0.00138091
0.00142961
0.00148954
0.00156229
0.00164989
0.00175484
0.00188029
0.00203012
0.00220912
0.00242308
0.00267882
0.00298407
0.00334703
0.00377542
0.00427496
0.00484701
0.00548572
0.00617565
0.00689171
0.00760451
0.00829667
0.00900185
0.00985434
0.0110718
0.0132512
0.0176354
0.0255041
0.0368596
0.0431059
0.044151
0.0368136
0.0232811
0.0115942
0.00524859
0.00542841
0.0242682
0.0128849
0.0120457
0.0123842
0.0128002
0.0129773
0.0129003
0.0124886
0.0116821
0.0104961
0.00908604
0.00763862
0.00632006
0.00522206
0.00435342
0.00367999
0.00316266
0.00277026
0.00247724
0.0022605
0.00209954
0.00197703
0.00187939
0.00179686
0.00172304
0.00165423
0.00158861
0.00152563
0.00146543
0.00140849
0.00135536
0.00130659
0.00126257
0.00122362
0.00118994
0.00116165
0.00113883
0.00112152
0.00111036
0.00110523
0.00110396
0.00110925
0.00112142
0.00114016
0.00116615
0.00120002
0.00124267
0.00129518
0.00135895
0.00143575
0.0015278
0.00163791
0.00176963
0.00192745
0.00211692
0.00234491
0.00261968
0.00295078
0.00334856
0.00382305
0.00438189
0.00502712
0.00575122
0.00653349
0.00733981
0.00813023
0.00888271
0.00964458
0.0105636
0.0119564
0.014658
0.0202601
0.0300051
0.0412502
0.0455244
0.0435725
0.0303667
0.0157942
0.00707112
0.00656869
0.0260796
0.0138511
0.0128333
0.0130576
0.0132761
0.0132612
0.0128835
0.012177
0.011051
0.00965718
0.00815689
0.00673
0.00550496
0.00452644
0.00377288
0.0032005
0.00277012
0.00245086
0.00221647
0.00204376
0.00191329
0.00180989
0.00172267
0.00164462
0.00157172
0.00150208
0.00143517
0.00137118
0.00131062
0.00125407
0.00120203
0.00115485
0.00111276
0.00107587
0.00104422
0.00101777
0.000996498
0.000980351
0.000969726
0.000964746
0.000963394
0.00096751
0.000977999
0.000994283
0.001017
0.00104669
0.00108411
0.00113022
0.00118621
0.00125363
0.0013344
0.00143099
0.00154656
0.0016851
0.00185175
0.00205297
0.00229689
0.00259344
0.00295432
0.00339246
0.00392058
0.00454848
0.00527861
0.0061005
0.0069856
0.00788701
0.0087516
0.00955631
0.0103785
0.0113888
0.0130664
0.0165814
0.0238648
0.0361507
0.0454697
0.0473227
0.038086
0.0210947
0.00931481
0.00776055
0.0276019
0.0146959
0.0134874
0.0135644
0.013629
0.0133891
0.0127601
0.0117261
0.0103667
0.00883357
0.00730356
0.00593549
0.00481603
0.00395132
0.00330059
0.00281616
0.00245936
0.00219925
0.00200945
0.00186779
0.00175692
0.00166438
0.00158211
0.00150551
0.0014324
0.00136217
0.00129501
0.00123145
0.00117205
0.00111729
0.00106749
0.00102282
0.000983304
0.000948911
0.000919539
0.000895072
0.000875397
0.000860427
0.000850365
0.000845556
0.000844143
0.000847287
0.000856296
0.000870466
0.000890359
0.000916453
0.000949401
0.00099003
0.00103939
0.00109879
0.00116992
0.00125492
0.00135652
0.00147825
0.00162467
0.00180165
0.00201675
0.0022796
0.00260216
0.00299872
0.0034853
0.00407778
0.00478819
0.00561864
0.00655352
0.00755242
0.0085507
0.00948033
0.0103267
0.0112026
0.0123605
0.0145498
0.0195005
0.0292557
0.0428819
0.0485764
0.0453857
0.0275858
0.0120489
0.00898808
0.028813
0.0154162
0.0140004
0.0139264
0.0138355
0.0133657
0.0124911
0.0112052
0.00966816
0.00805358
0.00653813
0.00525082
0.00423843
0.00347793
0.00291744
0.00250817
0.00221196
0.00199803
0.00184079
0.00172003
0.00162109
0.00153433
0.00145419
0.001378
0.00130489
0.00123498
0.00116878
0.00110688
0.00104972
0.000997606
0.000950653
0.00090885
0.000872096
0.000840235
0.00081309
0.000790492
0.000772291
0.000758376
0.000748792
0.000744109
0.000742627
0.000744917
0.000752609
0.000764939
0.000782391
0.00080539
0.00083451
0.000870472
0.000914187
0.000966803
0.00102977
0.00110495
0.00119469
0.00130207
0.00143107
0.0015869
0.00177636
0.00200836
0.00229436
0.00264884
0.00308932
0.00363556
0.00430702
0.00511775
0.0060679
0.0071328
0.00825357
0.00934094
0.010312
0.0111745
0.0121196
0.0135613
0.0167117
0.0239512
0.0373447
0.0484873
0.0502396
0.0352644
0.0154541
0.0103445
0.0297088
0.0160114
0.0143738
0.0141529
0.0138995
0.0132541
0.0121274
0.0106458
0.00898333
0.00733378
0.00586297
0.00466659
0.00375656
0.00308918
0.00260667
0.00226037
0.00201275
0.00183376
0.00169949
0.00159228
0.00150031
0.00141654
0.00133744
0.00126172
0.00118932
0.00112071
0.00105647
0.000997054
0.000942752
0.00089366
0.000849731
0.00081082
0.000776726
0.000747226
0.000722103
0.000701162
0.000684241
0.000671223
0.000662022
0.000657401
0.00065583
0.000657355
0.000663871
0.000674592
0.000689925
0.000710255
0.00073609
0.000768066
0.000806982
0.000853843
0.000909914
0.000976798
0.00105655
0.00115182
0.00126606
0.00140382
0.00157112
0.00177595
0.00202888
0.00234374
0.0027382
0.00323384
0.00385493
0.00462491
0.00555897
0.00665216
0.00786455
0.00911039
0.0102701
0.0112529
0.0120862
0.0131716
0.0151793
0.0201209
0.0308268
0.0463402
0.0523132
0.0437469
0.0198536
0.0120951
0.030304
0.0164801
0.0146196
0.0142527
0.0138559
0.0130223
0.011707
0.0100744
0.00833138
0.00668209
0.00527452
0.00417127
0.00335567
0.00277005
0.00235392
0.00205939
0.00184983
0.0016966
0.00157811
0.00147949
0.00139158
0.00130951
0.00123129
0.00115654
0.00108562
0.0010191
0.000957444
0.000900962
0.000849744
0.000803726
0.000762735
0.000726535
0.000694865
0.00066747
0.000644114
0.000624595
0.000608751
0.000596461
0.000587646
0.000582988
0.00058131
0.000582155
0.000587621
0.00059693
0.00061042
0.000628441
0.000651444
0.000679997
0.000714811
0.000756771
0.00080699
0.00086687
0.000938198
0.00102327
0.00112509
0.0012476
0.00139606
0.00157752
0.00180148
0.00208068
0.00243204
0.00287735
0.00344333
0.00415974
0.00505403
0.00614037
0.00740248
0.00877359
0.0101275
0.0113089
0.0122641
0.0130872
0.0144832
0.01768
0.0257153
0.0415353
0.0527517
0.0516269
0.0255435
0.0144544
0.030599
0.0168282
0.0147498
0.0142381
0.0137249
0.012717
0.0112528
0.00951057
0.00772417
0.00610044
0.00476602
0.00375306
0.00302247
0.00250766
0.00214729
0.00189458
0.00171426
0.00157967
0.00147186
0.00137866
0.00129325
0.00121249
0.00113542
0.00106221
0.000993379
0.000929427
0.000870682
0.000817261
0.0007691
0.000726009
0.00068773
0.000653972
0.000624447
0.000598885
0.00057705
0.000558743
0.000543807
0.000532128
0.000523636
0.000518902
0.000517107
0.000517376
0.000521902
0.000529973
0.000541855
0.000557866
0.000578414
0.000604009
0.00063529
0.000673047
0.000718269
0.000772195
0.000836394
0.000912876
0.00100425
0.00111393
0.00124651
0.00140814
0.00160723
0.00185525
0.00216783
0.00256593
0.00307675
0.00373352
0.00457239
0.00562404
0.00689729
0.0083549
0.0098885
0.0113189
0.0124722
0.0132804
0.0142633
0.0163534
0.0220555
0.0351306
0.0522205
0.0565794
0.0330723
0.0174059
0.0305799
0.0170532
0.0147745
0.014156
0.0134951
0.0123608
0.0107836
0.00896842
0.00716808
0.00558691
0.00432926
0.00340078
0.00274545
0.00229124
0.00197712
0.00175772
0.00159953
0.00147828
0.00137767
0.00128802
0.00120441
0.00112497
0.00104944
0.00097823
0.000911865
0.000850719
0.000794951
0.000744518
0.000699233
0.000658823
0.000622975
0.000591372
0.000563717
0.00053974
0.000519213
0.000501944
0.000487787
0.000476632
0.000468417
0.000463571
0.000461608
0.000461493
0.000465155
0.00047214
0.000482616
0.000496871
0.000515276
0.000538296
0.000566508
0.000600628
0.000641546
0.000690368
0.00074849
0.000817683
0.000900232
0.000999129
0.00111835
0.00126328
0.00144128
0.00166253
0.00194116
0.00229667
0.00275546
0.00335188
0.00412732
0.00512476
0.00637502
0.00787184
0.00953793
0.0112008
0.012623
0.0136065
0.0142691
0.0157545
0.0195515
0.0296602
0.0491809
0.0587257
0.0426166
0.0208265
0.0304159
0.017196
0.0147357
0.0139796
0.0132048
0.0119712
0.0103142
0.0084572
0.00666548
0.0051373
0.00395577
0.0031044
0.00251479
0.00211194
0.00183577
0.00164261
0.00150104
0.0013893
0.00129363
0.00120647
0.00112442
0.00104648
0.000972814
0.000903901
0.000840178
0.000781871
0.000728982
0.000681345
0.000638684
0.000600674
0.000566973
0.000537255
0.000511225
0.000488622
0.000469226
0.000452859
0.00043938
0.000428687
0.000420718
0.000415748
0.000413581
0.000413246
0.000416125
0.000422155
0.000431398
0.000444114
0.000460639
0.0004814
0.000506925
0.00053787
0.000575043
0.000619448
0.00067234
0.0007353
0.000810353
0.000900131
0.00100812
0.001139
0.00129922
0.00149773
0.00174714
0.00206517
0.00247662
0.00301527
0.00372485
0.00465665
0.00585972
0.00735839
0.00911445
0.0109809
0.012684
0.0139905
0.0146863
0.0155786
0.0181352
0.0259372
0.0437144
0.0591807
0.0526786
0.0243389
0.0300541
0.0172753
0.0146316
0.0137379
0.0128696
0.0115627
0.00985552
0.00798255
0.00621605
0.0047463
0.00363741
0.00285513
0.00232233
0.00196262
0.00171732
0.00154468
0.00141554
0.00131062
0.00121846
0.00113325
0.00105273
0.000976495
0.000904899
0.000838413
0.000777345
0.000721772
0.000671571
0.000626482
0.000586173
0.000550284
0.000518466
0.000490394
0.000465779
0.000444375
0.00042597
0.000410396
0.000397517
0.000387236
0.000379487
0.000374421
0.000372085
0.000371571
0.000373783
0.000378974
0.000387136
0.000398496
0.000413364
0.000432131
0.000455287
0.000483435
0.000517321
0.000557864
0.000606209
0.000663786
0.000732413
0.000814428
0.000912905
0.00103196
0.00117723
0.00135656
0.00158109
0.00186673
0.00223625
0.00272175
0.00336706
0.004228
0.00536676
0.00683419
0.00863365
0.0106669
0.0126848
0.0142924
0.0151344
0.0157131
0.0174472
0.0228997
0.0381599
0.0583645
0.0610414
0.0271369
0.0294915
0.0172719
0.0144574
0.01345
0.012504
0.0111472
0.00941526
0.00754732
0.0058177
0.00440816
0.00336675
0.00264549
0.00216132
0.00183759
0.00161724
0.00146057
0.00134074
0.0012408
0.00115127
0.00106775
0.000988801
0.000914399
0.000844974
0.000780916
0.000722402
0.000669381
0.000621632
0.000578828
0.000540601
0.000506579
0.00047641
0.000449778
0.000426405
0.000406055
0.000388527
0.000373659
0.000361322
0.000351417
0.00034388
0.000338755
0.00033628
0.000335614
0.000337268
0.000341725
0.000348937
0.000359102
0.000372504
0.000389504
0.000410558
0.000436225
0.0004672
0.000504336
0.000548687
0.000601567
0.000664628
0.000739976
0.000830352
0.000939398
0.00107207
0.00123525
0.00143875
0.00169671
0.00202972
0.00246761
0.00305275
0.00384249
0.00490745
0.00631905
0.00811756
0.0102552
0.0125267
0.0145387
0.0156845
0.0162136
0.0172239
0.020953
0.0328385
0.0561564
0.0652927
0.0284099
0.0287592
0.017237
0.0142464
0.01313
0.0121206
0.0107341
0.00899874
0.00715234
0.00546735
0.00411722
0.00313718
0.00246916
0.00202628
0.00173235
0.00153207
0.00138783
0.00127502
0.0011788
0.00109136
0.0010094
0.000932066
0.000859558
0.000792297
0.000730576
0.000674448
0.000623758
0.00057821
0.000537435
0.000501044
0.000468661
0.00043994
0.000414575
0.000392298
0.000372884
0.00035614
0.00034191
0.000330066
0.000320513
0.000313184
0.000308044
0.000305452
0.000304656
0.00030585
0.000309667
0.000316046
0.000325157
0.000337258
0.000352688
0.000371868
0.000395325
0.000423706
0.00045781
0.000498623
0.000547362
0.000605551
0.000675114
0.000758526
0.000859045
0.000981059
0.00113064
0.00131642
0.0015509
0.00185253
0.00224857
0.002779
0.00350057
0.00448852
0.00582986
0.00759778
0.00979619
0.0122742
0.0146479
0.0161835
0.0167963
0.0172929
0.0199103
0.0292472
0.0519655
0.0668246
0.0286242
0.0278988
0.0171563
0.0140083
0.0127901
0.0117297
0.0103306
0.00860921
0.00679699
0.00516135
0.00386813
0.00294299
0.00232087
0.00191278
0.00164338
0.00145919
0.00132463
0.00121717
0.00112382
0.00103813
0.00095766
0.000881956
0.000811326
0.00074615
0.000686615
0.00063267
0.000584077
0.000540487
0.000501503
0.000466727
0.000435785
0.00040834
0.000384093
0.000362791
0.000344213
0.000328176
0.000314525
0.000303136
0.000293912
0.00028678
0.000281698
0.000278992
0.000278083
0.000278899
0.000282163
0.00028781
0.00029599
0.000306939
0.00032097
0.000338478
0.000359957
0.000386016
0.000417409
0.000455062
0.00050012
0.000554002
0.000618492
0.000695858
0.000789049
0.000901995
0.00104008
0.00121093
0.0014256
0.00170048
0.00206022
0.00254185
0.00319992
0.00411095
0.00537199
0.00708264
0.0092961
0.011932
0.0146737
0.0167046
0.0175106
0.0178421
0.0194311
0.0265556
0.0471492
0.0668738
0.0280479
0.0269448
0.0170461
0.0137542
0.0124406
0.0113396
0.0099418
0.00824834
0.00647979
0.00489596
0.00365603
0.00277924
0.00219629
0.00181725
0.00156794
0.00139661
0.0012696
0.00116627
0.0010752
0.000991059
0.000912017
0.000837908
0.000769085
0.000705862
0.000648331
0.000596352
0.000549626
0.000507765
0.000470358
0.000437002
0.000407329
0.000381009
0.000357756
0.000337323
0.000319497
0.000304099
0.000290979
0.000280011
0.000271097
0.000264163
0.000259161
0.000256363
0.000255357
0.000255868
0.000258652
0.00026366
0.000271019
0.000280947
0.000293733
0.000309748
0.000329455
0.000353431
0.000382389
0.000417206
0.000458967
0.000509011
0.000569009
0.00064107
0.000727902
0.000833069
0.000961398
0.00111965
0.00131761
0.00156984
0.00189844
0.0023373
0.00293784
0.00377559
0.00495332
0.00659054
0.00878183
0.0115099
0.0145349
0.0171304
0.0182094
0.018478
0.0192929
0.0245583
0.0427368
0.0646519
0.0270886
0.0259284
0.016921
0.0134931
0.0120899
0.010957
0.00957156
0.00791672
0.00619861
0.00466728
0.00347659
0.00264185
0.00209187
0.00173685
0.00150385
0.00134277
0.00122169
0.00112161
0.00103241
0.000949645
0.000871968
0.000799387
0.000732257
0.000670827
0.000615102
0.000564874
0.000519796
0.000479456
0.000443432
0.000411324
0.000382769
0.000357446
0.000335077
0.000315421
0.000298273
0.000283455
0.000270819
0.000260241
0.00025162
0.00024488
0.000239968
0.000237097
0.000236007
0.000236272
0.000238646
0.000243094
0.000249731
0.000258756
0.000270436
0.000285118
0.000303239
0.000325345
0.000352113
0.000384378
0.000423172
0.000469771
0.000525759
0.000593121
0.000674379
0.000772809
0.000892791
0.00104038
0.00122427
0.00145737
0.00175944
0.00216117
0.00271031
0.00347968
0.00457418
0.00612808
0.008273
0.0110515
0.014273
0.0174097
0.0189769
0.0193177
0.0195264
0.0231884
0.0387978
0.0615513
0.0259315
0.0248523
0.0167986
0.0132355
0.0117457
0.0105872
0.00922236
0.00761407
0.00595114
0.00447188
0.00332595
0.00252734
0.00200472
0.00166929
0.00144942
0.00129649
0.00118007
0.00108256
0.000994941
0.000913436
0.000837046
0.000765894
0.00070032
0.000640506
0.000586388
0.000537703
0.00049407
0.000455061
0.000420249
0.000389236
0.000361666
0.000337225
0.000315642
0.000296682
0.000280142
0.00026585
0.000253656
0.000243437
0.000235089
0.000228533
0.000223714
0.000220786
0.000219619
0.000219691
0.000221713
0.000225673
0.000231675
0.000239901
0.0002506
0.000264096
0.000280801
0.000301231
0.000326029
0.000355994
0.000392112
0.000435606
0.00048799
0.000551154
0.000627478
0.00072002
0.000832803
0.00097131
0.00114332
0.00136033
0.00163993
0.00200977
0.00251371
0.00322069
0.00423478
0.00569935
0.00777699
0.0105747
0.0139909
0.0175241
0.0197132
0.0202065
0.0201612
0.0224532
0.0353575
0.0578493
0.0247365
0.0237818