/*--------------------------------*- C++ -*----------------------------------*\
  =========                 |
  \\      /  F ield         | OpenFOAM: The Open Source CFD Toolbox
   \\    /   O peration     | Website:  https://openfoam.org
    \\  /    A nd           | Version:  13
     \\/     M anipulation  |
\*---------------------------------------------------------------------------*/
FoamFile
{
    format      ascii;
    class       volScalarField;
    location    "7.4";
    object      k;
}
// * * * * * * * * * * * * * * * * * * * * * * * * * * * * * * * * * * * * * //

dimensions      [0 2 -2 0 0 0 0];

internalField   nonuniform List<scalar> 
6400
(
5.4618e-07
2.80521e-06
6.81292e-06
1.09779e-05
1.41219e-05
1.58908e-05
1.65378e-05
1.66064e-05
1.67115e-05
1.73328e-05
1.88362e-05
2.17726e-05
2.64101e-05
3.2844e-05
4.07398e-05
4.96593e-05
5.91469e-05
6.90129e-05
7.8799e-05
8.82603e-05
9.77511e-05
0.000108087
0.000120354
0.000135216
0.000152085
0.000169168
0.000186116
0.000202934
0.000220138
0.000238197
0.000256881
0.000275536
0.000293869
0.000311912
0.000330147
0.000348672
0.000367886
0.000387905
0.000408984
0.000431186
0.000454676
0.000479633
0.000506203
0.000534708
0.000565352
0.000599158
0.000638032
0.000686072
0.000735167
0.00078497
0.000833923
0.000881494
0.000926249
0.000966918
0.00100203
0.00102979
0.00104433
0.00105013
0.00104909
0.00102968
0.000994903
0.000944686
0.000879632
0.000802117
0.000714016
0.000619568
0.000523381
0.000429307
0.000340824
0.000261818
0.000197662
0.00014381
0.000100299
6.70062e-05
4.30437e-05
2.67234e-05
1.60822e-05
9.22988e-06
4.36168e-06
9.28767e-07
2.64111e-06
2.22105e-05
5.38734e-05
8.42486e-05
0.000106729
0.000120145
0.000126557
0.000129188
0.000131585
0.000136816
0.000148326
0.000170051
0.000203134
0.000246942
0.000299406
0.000357844
0.000419871
0.000483097
0.000545702
0.000606999
0.00066898
0.000736018
0.0008136
0.000904319
0.0010044
0.00110498
0.0012028
0.001296
0.00138548
0.00147228
0.00155466
0.00163152
0.00170147
0.00176526
0.0018254
0.00188263
0.00193904
0.00199542
0.00205315
0.00211276
0.00217499
0.0022405
0.00230942
0.00238199
0.00245756
0.00253604
0.00261579
0.00269398
0.00277697
0.00286256
0.00295058
0.00303782
0.00312266
0.00320144
0.00327085
0.00332676
0.00335745
0.00336769
0.00335822
0.00331518
0.00323458
0.00311593
0.00295759
0.00276269
0.00253591
0.0022854
0.0020226
0.00175595
0.00149312
0.001239
0.000996786
0.0007764
0.000584564
0.000423922
0.00029546
0.000197224
0.00012595
7.58771e-05
3.67836e-05
4.91297e-06
5.77434e-06
4.81862e-05
0.000112055
0.000165687
0.000202215
0.000223783
0.000235697
0.000243881
0.000254311
0.000272878
0.000305364
0.000356534
0.000428087
0.000518222
0.000622921
0.000737977
0.000860117
0.000986656
0.00111503
0.00124307
0.00136912
0.00149242
0.00161092
0.00171947
0.00181321
0.0018883
0.00194209
0.00197959
0.00200845
0.00203563
0.00206542
0.00209702
0.00213131
0.00216537
0.00220312
0.0022435
0.00228837
0.00233758
0.00239217
0.00245215
0.00251735
0.00258837
0.00266468
0.00274642
0.00283351
0.00292585
0.00302257
0.0031251
0.00323311
0.00334514
0.00346014
0.00357594
0.00369032
0.00380002
0.00390127
0.00398937
0.00405911
0.00409856
0.00411107
0.00409478
0.00403412
0.0039284
0.00377312
0.0035702
0.00332193
0.00303547
0.00272737
0.0024066
0.00208352
0.00176864
0.00147097
0.00119728
0.000952675
0.000739579
0.000559
0.000410168
0.000289788
0.000190283
9.66963e-05
1.31413e-05
1.0023e-05
8.09667e-05
0.000176144
0.000247765
0.000294667
0.000323748
0.000343402
0.000362057
0.00038802
0.000429427
0.000493548
0.000584879
0.000703214
0.000843842
0.000999924
0.00116491
0.00133306
0.0014988
0.00165608
0.00179906
0.00192212
0.00202328
0.00209997
0.0021452
0.00216452
0.00216908
0.00216411
0.00216084
0.00216001
0.00216477
0.00217526
0.00218898
0.00220785
0.0022315
0.00226052
0.00229452
0.00233417
0.00237934
0.00243001
0.00248647
0.00254872
0.00261702
0.00269124
0.00277137
0.00285702
0.00294844
0.00304663
0.0031513
0.00326205
0.00337806
0.0034983
0.00362119
0.00374466
0.00386587
0.0039813
0.0040865
0.00417628
0.00424382
0.0042767
0.00428374
0.00424943
0.00417049
0.00404781
0.00387649
0.00365212
0.00337541
0.00306323
0.00272604
0.00237951
0.00203794
0.00171349
0.00141509
0.00114798
0.000914266
0.000714035
0.000545691
0.000404847
0.00028185
0.000153448
2.18765e-05
1.60742e-05
0.000124809
0.000252133
0.000340999
0.00039844
0.000436462
0.000466862
0.000500916
0.00054945
0.000622399
0.000726966
0.000865086
0.00103224
0.0012192
0.00141523
0.00161014
0.00179462
0.00195983
0.0020966
0.00220065
0.0022612
0.00228474
0.00228676
0.00225682
0.00222623
0.00219873
0.00217637
0.00216115
0.00215393
0.00215155
0.00215279
0.0021595
0.0021708
0.00218636
0.00220612
0.00222996
0.00225782
0.00228936
0.00232459
0.0023637
0.00240673
0.00245412
0.00250662
0.00256495
0.00263001
0.00270204
0.00278064
0.00286634
0.00295931
0.00305966
0.0031672
0.00328143
0.00340137
0.0035255
0.00365172
0.00377676
0.00389602
0.00400399
0.00409403
0.00415087
0.00417206
0.00415438
0.00407883
0.00394787
0.00376914
0.00353422
0.00324115
0.00290838
0.00255323
0.00219423
0.00184874
0.00153028
0.00124678
0.00100089
0.000791807
0.000616456
0.000468987
0.000337206
0.000191914
2.79063e-05
2.47164e-05
0.000183045
0.000344524
0.000451464
0.000520887
0.000570154
0.000614868
0.000669424
0.000746848
0.00085735
0.00100558
0.0011884
0.0013954
0.00161211
0.00182343
0.0020154
0.00217594
0.0022977
0.0023634
0.00238522
0.00237303
0.00232804
0.00228329
0.00223935
0.00219851
0.0021629
0.00213376
0.0021107
0.00209222
0.00207741
0.00206523
0.00205794
0.00205428
0.002053
0.00205352
0.00205757
0.00206382
0.00207288
0.00208474
0.00209987
0.00211853
0.00214135
0.0021682
0.00219963
0.00223616
0.0022783
0.00232679
0.00238262
0.00244674
0.00252029
0.00260423
0.00269941
0.00280635
0.00292499
0.0030543
0.00319261
0.00333751
0.00348424
0.0036272
0.00375698
0.00386476
0.00392339
0.00394066
0.00389978
0.00379268
0.00362336
0.00337497
0.00306453
0.00270971
0.00233384
0.00196159
0.0016144
0.00130652
0.00104358
0.000824467
0.000643968
0.000493812
0.000359366
0.00020891
3.01126e-05
3.67186e-05
0.000257624
0.000455676
0.000582028
0.000665147
0.000728131
0.000790628
0.000869884
0.000979842
0.00112863
0.00131576
0.0015314
0.00175892
0.00197909
0.00217373
0.00232769
0.00242151
0.00245686
0.00245544
0.00240645
0.00235306
0.00229003
0.00222909
0.00216791
0.00211381
0.00206701
0.0020263
0.00198979
0.00195686
0.00192804
0.00190337
0.00188146
0.00186183
0.00184423
0.00182882
0.00181587
0.00180509
0.00179687
0.00179152
0.0017891
0.00178853
0.00179128
0.00179736
0.00180697
0.0018207
0.0018388
0.00186215
0.00189144
0.00192788
0.00197289
0.00202831
0.00209618
0.00217876
0.00227833
0.00239623
0.00253228
0.00268842
0.00286107
0.00304489
0.00323302
0.00341755
0.00358297
0.00370523
0.00375878
0.00376237
0.00367722
0.00351799
0.0032552
0.00291587
0.00252641
0.00211959
0.00172814
0.00137784
0.00108225
0.000842216
0.000650638
0.000494898
0.000357977
0.000207792
2.92427e-05
5.27949e-05
0.000349596
0.000586256
0.00073338
0.000831802
0.000910572
0.000993213
0.00109887
0.00124042
0.00142148
0.00163474
0.00186344
0.00208562
0.00227902
0.00242571
0.0024986
0.00251794
0.0024877
0.0024325
0.00235681
0.00227316
0.00218537
0.00210736
0.00203718
0.00197745
0.0019227
0.00187295
0.00182688
0.00178454
0.00174577
0.00171021
0.00167746
0.00164756
0.00162054
0.00159655
0.00157557
0.00155739
0.00154206
0.00152957
0.00151985
0.00151297
0.00150961
0.0015085
0.00151
0.0015157
0.00152463
0.00153783
0.00155555
0.00157837
0.00160683
0.00164188
0.00168462
0.00173669
0.00180056
0.00188037
0.00198245
0.00211022
0.00226917
0.00245937
0.00267147
0.00290317
0.00313989
0.00336601
0.00355751
0.0036605
0.00369008
0.00363527
0.00347871
0.00318766
0.00280476
0.00236757
0.00192072
0.00150646
0.00115419
0.00087397
0.000658439
0.000490721
0.000349489
0.000201072
2.71841e-05
7.3449e-05
0.00045878
0.000735654
0.000904633
0.00101947
0.00111497
0.00121793
0.00134794
0.00151477
0.00171588
0.00193682
0.00215514
0.002346
0.00248262
0.00254376
0.00255268
0.00250912
0.00244126
0.00234473
0.00223381
0.00213056
0.00203942
0.00195826
0.0018852
0.00181946
0.00175815
0.00170166
0.00164933
0.00160146
0.00155789
0.00151861
0.00148358
0.00145285
0.00142626
0.00140362
0.00138473
0.00136938
0.00135734
0.00134833
0.00134234
0.00133949
0.0013386
0.0013398
0.00134427
0.00135136
0.0013611
0.00137375
0.00138942
0.00140838
0.00143094
0.00145755
0.00148879
0.00152539
0.00156834
0.00161912
0.00168004
0.00175464
0.00184951
0.00197683
0.00215483
0.00237977
0.00264198
0.00292503
0.00320968
0.00346549
0.00362077
0.00367404
0.00364622
0.00348543
0.00315356
0.00271476
0.00222049
0.00172985
0.00129494
0.000945449
0.000684033
0.000491783
0.000336809
0.000187573
2.48641e-05
9.8881e-05
0.000583537
0.000901915
0.00109353
0.00122496
0.00133636
0.00145688
0.00160508
0.00178612
0.0019908
0.00219861
0.00238375
0.00251367
0.00256818
0.00257226
0.00252618
0.00244086
0.00232053
0.00219313
0.00207755
0.00197376
0.00188172
0.00179851
0.00172262
0.00165308
0.00158893
0.00153072
0.0014783
0.00143198
0.00139162
0.00135714
0.00132825
0.0013046
0.00128572
0.00127112
0.00126027
0.00125265
0.00124828
0.00124638
0.00124598
0.001248
0.00125183
0.00125755
0.00126518
0.00127459
0.00128588
0.00129919
0.00131468
0.00133257
0.00135307
0.00137637
0.00140276
0.00143259
0.00146624
0.00150417
0.00154711
0.00159651
0.00165506
0.0017278
0.00182362
0.00195783
0.00216114
0.00243743
0.0027572
0.00309735
0.00341666
0.00362488
0.00370021
0.0036886
0.00351193
0.00312701
0.00262227
0.00206673
0.00153568
0.00108852
0.000749428
0.000509141
0.000332654
0.000175517
2.29723e-05
0.000129511
0.000720159
0.00108195
0.00129648
0.00144339
0.00156772
0.00170006
0.00185679
0.00203785
0.00222808
0.00240303
0.00252775
0.00257904
0.00258109
0.00253468
0.0024351
0.00229777
0.00215908
0.00202965
0.00191511
0.00181259
0.00172064
0.00163701
0.00156105
0.00149248
0.00143134
0.00137804
0.00133245
0.00129445
0.00126353
0.00123909
0.00122035
0.00120653
0.00119683
0.00119063
0.00118761
0.00118655
0.0011868
0.00118944
0.00119318
0.00119855
0.00120517
0.00121322
0.00122268
0.00123363
0.0012462
0.00126054
0.00127677
0.00129503
0.00131544
0.00133812
0.00136318
0.00139076
0.00142105
0.00145434
0.00149081
0.00153047
0.00157399
0.00162294
0.00168077
0.00175535
0.00186087
0.00202174
0.00228203
0.00263096
0.00301647
0.0033998
0.00365747
0.00375126
0.0037425
0.00353269
0.00308152
0.00250343
0.0018891
0.00132902
0.000882899
0.000562115
0.000343307
0.00017261
2.23634e-05
0.000166824
0.000864098
0.00127207
0.00150877
0.00166855
0.00180078
0.00193678
0.00209019
0.00225607
0.00241499
0.00253354
0.00258331
0.00258518
0.00253945
0.00243161
0.0022834
0.00213276
0.00199182
0.00186555
0.001754
0.00165396
0.00156425
0.00148375
0.00141256
0.00135075
0.00129841
0.00125536
0.00122094
0.00119432
0.00117441
0.00116013
0.0011504
0.00114437
0.00114144
0.00114039
0.00114037
0.00114229
0.00114513
0.00114924
0.00115425
0.00116042
0.0011677
0.00117628
0.00118627
0.00119784
0.00121116
0.00122641
0.00124374
0.00126332
0.00128524
0.00130959
0.00133637
0.00136549
0.00139682
0.00143013
0.00146527
0.00150225
0.00154144
0.00158271
0.00162643
0.00167529
0.00173562
0.00182087
0.00195498
0.00217896
0.00253965
0.00296484
0.00340939
0.00370681
0.00381206
0.00378894
0.00352261
0.00299091
0.00233647
0.00167527
0.00110461
0.000674754
0.000381908
0.000180343
2.32197e-05
0.000208307
0.00101559
0.00146819
0.00172494
0.00189362
0.00202719
0.00215724
0.00229479
0.00243127
0.00253994
0.00258775
0.00259023
0.00254531
0.00243518
0.00228037
0.00211808
0.00196538
0.00182815
0.00170701
0.00159994
0.00150472
0.00142085
0.00134804
0.00128644
0.00123579
0.00119551
0.00116457
0.00114162
0.00112525
0.00111406
0.00110682
0.00110265
0.00110068
0.00110001
0.00109998
0.00110115
0.00110319
0.00110594
0.00110957
0.00111407
0.00111968
0.00112651
0.00113476
0.00114461
0.00115626
0.00116991
0.00118576
0.001204
0.00122482
0.00124837
0.00127478
0.00130408
0.00133621
0.00137097
0.00140799
0.00144672
0.00148649
0.00152667
0.00156704
0.00160811
0.00164952
0.00169281
0.00174371
0.00181433
0.00192851
0.00212905
0.00248173
0.00294489
0.00344294
0.00376388
0.00386834
0.00380872
0.00345624
0.00282898
0.00210631
0.00141842
0.000861715
0.000468158
0.000207241
2.67369e-05
0.00025276
0.00117096
0.00166538
0.00193916
0.00211186
0.00223938
0.00235353
0.0024635
0.0025562
0.0025992
0.00260163
0.0025563
0.00244809
0.00228999
0.00211794
0.00195274
0.00180409
0.00167324
0.00155868
0.00145838
0.00137122
0.00129707
0.00123563
0.00118645
0.00114843
0.0011201
0.00109973
0.00108559
0.00107608
0.00106986
0.00106589
0.00106342
0.00106186
0.00106099
0.00106064
0.00106068
0.00106153
0.00106302
0.00106545
0.0010689
0.00107358
0.00107968
0.00108739
0.00109689
0.00110838
0.00112206
0.00113815
0.00115685
0.00117838
0.00120297
0.0012308
0.00126204
0.00129676
0.00133489
0.00137617
0.00142006
0.00146571
0.00151195
0.00155745
0.00160115
0.001643
0.0016836
0.00172329
0.00176712
0.00182792
0.00192996
0.0021183
0.00246074
0.00295794
0.00350134
0.00381971
0.0039049
0.00378376
0.0033024
0.00257952
0.0018041
0.00112109
0.00061001
0.000265033
3.50915e-05
0.000298734
0.00132612
0.00185855
0.00214574
0.00231714
0.00243127
0.00252042
0.00259187
0.00262512
0.00262524
0.00257667
0.00247244
0.00231381
0.00213405
0.00195642
0.00179495
0.00165347
0.00153066
0.0014246
0.00133383
0.00125775
0.00119593
0.00114739
0.00111071
0.00108393
0.00106499
0.00105189
0.00104288
0.00103657
0.00103195
0.00102832
0.00102526
0.00102256
0.00102021
0.00101825
0.00101697
0.00101646
0.00101643
0.0010177
0.00102021
0.00102411
0.0010296
0.00103685
0.001046
0.00105726
0.00107079
0.00108681
0.00110552
0.00112717
0.00115202
0.00118035
0.00121242
0.00124846
0.00128864
0.00133294
0.00138111
0.00143252
0.00148604
0.00154
0.00159224
0.00164063
0.00168401
0.0017225
0.00175872
0.00179957
0.00185365
0.0019499
0.00213227
0.0024776
0.00300784
0.0035819
0.00386252
0.00390919
0.00368721
0.00304658
0.00222921
0.00143565
0.000799463
0.000351175
4.83023e-05
0.000344808
0.00147713
0.00204302
0.00233971
0.00250435
0.00259854
0.00265306
0.00267496
0.00266621
0.00261147
0.00251082
0.00235341
0.00216801
0.00197849
0.00180285
0.00164879
0.0015163
0.0014032
0.00130773
0.00122877
0.00116548
0.00111657
0.00108011
0.00105385
0.00103533
0.00102236
0.00101306
0.00100601
0.00100022
0.00099507
0.000990239
0.000985614
0.000981231
0.000977216
0.000973736
0.000970986
0.000969314
0.000968655
0.00096878
0.000970715
0.000974126
0.000979223
0.000986152
0.000995044
0.00100605
0.00101934
0.00103509
0.00105351
0.00107484
0.00109936
0.00112738
0.00115925
0.00119533
0.00123596
0.00128143
0.00133184
0.00138701
0.00144629
0.00150836
0.00157106
0.00163139
0.00168591
0.00173297
0.0017708
0.00179848
0.00183524
0.00188866
0.00198277
0.0021678
0.00253194
0.00310449
0.00366383
0.00389693
0.00387111
0.00346019
0.00266309
0.00178546
0.0010249
0.000458304
6.5213e-05
0.000390189
0.00161952
0.00221496
0.00251782
0.00266896
0.00273321
0.00274931
0.00272846
0.00266523
0.00256665
0.00241066
0.0022214
0.00202094
0.00183011
0.00166102
0.00151644
0.0013944
0.00129257
0.0012093
0.00114322
0.00109265
0.00105533
0.00102859
0.00100969
0.00099619
0.000986096
0.000977945
0.00097077
0.000964007
0.000957402
0.000950909
0.000944617
0.000938686
0.000933308
0.000928674
0.000924969
0.000922479
0.00092133
0.000921069
0.000922535
0.000925707
0.000930575
0.000937303
0.000945987
0.000956761
0.000969765
0.000985163
0.00100315
0.00102394
0.0010478
0.00107507
0.0011061
0.00114132
0.0011812
0.00122621
0.00127678
0.00133318
0.00139534
0.00146264
0.00153362
0.00160567
0.00167489
0.00173638
0.00178793
0.00182564
0.00184429
0.00187592
0.00193011
0.00202635
0.00222289
0.00262043
0.00323832
0.00374226
0.00390667
0.00373923
0.00307757
0.00215683
0.00127735
0.000580159
8.47614e-05
0.000433789
0.00175213
0.00237124
0.00267281
0.00280416
0.00283969
0.00281978
0.00275081
0.00264248
0.00248815
0.00229593
0.00208577
0.00187924
0.00169266
0.00153277
0.00139903
0.00128862
0.00119913
0.00112865
0.00107503
0.00103567
0.00100752
0.000987546
0.000973039
0.00096185
0.000952446
0.000943847
0.000935521
0.000927258
0.000919058
0.000911045
0.000903405
0.000896337
0.000890036
0.000884679
0.000880421
0.000877475
0.000876064
0.000875663
0.000876839
0.000879876
0.000884592
0.000891155
0.000899647
0.000910185
0.000922893
0.000937917
0.000955426
0.000975625
0.000998757
0.00102512
0.00105507
0.00108905
0.00112755
0.00117115
0.00122048
0.00127612
0.00133853
0.00140778
0.00148334
0.00156359
0.00164546
0.00172409
0.00179289
0.00184898
0.00188068
0.00189465
0.0019206
0.0019769
0.00208032
0.00230014
0.00275584
0.00341675
0.00378999
0.003845
0.00344597
0.00253982
0.00155282
0.000712836
0.000106023
0.000474007
0.0018715
0.00250661
0.00280198
0.00291135
0.00292294
0.00286076
0.00274439
0.00259041
0.00239384
0.00217497
0.00195293
0.00174681
0.00156796
0.00141882
0.00129684
0.00119876
0.00112189
0.00106362
0.00102092
0.000990417
0.000968713
0.000952803
0.000940327
0.000929621
0.000919655
0.000909891
0.000900137
0.00089042
0.000880888
0.000871736
0.00086317
0.000855381
0.000848536
0.000842777
0.000838224
0.000835029
0.000833473
0.000832993
0.00083396
0.000836857
0.000841415
0.000847788
0.00085606
0.000866335
0.000878729
0.000893374
0.000910424
0.000930061
0.000952503
0.000978015
0.00100692
0.00103962
0.0010766
0.00111846
0.00116589
0.00121966
0.00128055
0.00134919
0.00142586
0.00151006
0.00160004
0.0016922
0.00178058
0.00185682
0.00191332
0.00193738
0.00194711
0.00196853
0.00202888
0.00214606
0.00240937
0.00295103
0.00358171
0.00383284
0.00367855
0.002913
0.00184743
0.000853727
0.000128294
0.000509386
0.00197463
0.002619
0.00290524
0.00299543
0.00298028
0.00287647
0.00271985
0.00251873
0.00229083
0.00205383
0.00182694
0.00162564
0.00145662
0.00131911
0.00120936
0.00112369
0.00105881
0.00101129
0.000977348
0.000953207
0.000935496
0.000921563
0.000909548
0.000898307
0.000887254
0.000876189
0.000865144
0.000854276
0.000843788
0.000833886
0.000824752
0.000816546
0.000809397
0.000803412
0.000798682
0.000795291
0.000793598
0.000793033
0.000793762
0.000796457
0.000800794
0.000806914
0.000814907
0.000824872
0.000836922
0.00085118
0.000867791
0.000886918
0.000908755
0.000933535
0.000961543
0.000993133
0.00102875
0.00106894
0.00111438
0.0011659
0.00122444
0.00129097
0.00136634
0.00145101
0.0015445
0.00164475
0.0017474
0.00184505
0.00192718
0.00197977
0.0019952
0.00200013
0.00201953
0.00208602
0.00222873
0.00256663
0.00319756
0.00367163
0.00376072
0.00325652
0.00215579
0.000998021
0.000151573
0.00053912
0.00206033
0.00270796
0.00298337
0.00305779
0.00301284
0.00287017
0.00267204
0.00243636
0.00218464
0.00193663
0.0017101
0.0015165
0.00135849
0.001233
0.00113543
0.00106157
0.00100739
0.000968674
0.000941218
0.000921212
0.000905609
0.000892259
0.000879831
0.000867635
0.000855427
0.000843226
0.000831187
0.000819513
0.000808407
0.000798047
0.000788581
0.000780127
0.000772781
0.000766623
0.000761721
0.000758139
0.000756228
0.000755537
0.000755948
0.000758351
0.000762384
0.000768175
0.000775819
0.000785417
0.000797081
0.000810933
0.00082711
0.000845765
0.000867073
0.000891242
0.000918519
0.000949212
0.000983705
0.00102249
0.00106618
0.00111556
0.0011716
0.00123542
0.00130824
0.00139114
0.00148474
0.00158853
0.00169999
0.00181359
0.0019198
0.00200351
0.00204437
0.00205253
0.00205309
0.00207269
0.00215074
0.00233979
0.00280016
0.00345651
0.00373025
0.00350438
0.00246719
0.00114406
0.000175548
0.000562776
0.0021286
0.00277455
0.00303818
0.00309794
0.00302342
0.00284925
0.00261248
0.00234825
0.00207935
0.00182599
0.00160353
0.00141937
0.0012729
0.00115937
0.00107345
0.00101028
0.00096508
0.000933148
0.000910149
0.00089254
0.00087776
0.000864193
0.000850978
0.000837778
0.000824573
0.000811506
0.000798775
0.00078658
0.000775094
0.000764456
0.000754775
0.000746137
0.000738613
0.000732264
0.000727145
0.000723314
0.000721085
0.000720212
0.00072024
0.000722248
0.000725898
0.000731286
0.000738514
0.000747688
0.000758921
0.000772337
0.000788071
0.000806269
0.000827095
0.000850738
0.000877419
0.000907403
0.000941022
0.000978697
0.00102097
0.00106855
0.00112233
0.00118346
0.00125327
0.00133324
0.00142473
0.00152848
0.00164381
0.00176752
0.00189266
0.00200758
0.00208315
0.00210788
0.00210932
0.00210251
0.0021289
0.00223008
0.00250304
0.00310522
0.0035652
0.00361029
0.00278131
0.00130525
0.00020204
0.000580271
0.00218009
0.00282017
0.00307154
0.0031178
0.00301699
0.00281062
0.00254471
0.00225818
0.00197776
0.00172341
0.00150752
0.00133375
0.00119886
0.00109683
0.00102163
0.000967683
0.000929679
0.000902674
0.000882505
0.000866069
0.000851339
0.000837184
0.000823117
0.000809043
0.000795075
0.000781401
0.000768218
0.000755695
0.000743965
0.000733132
0.000723272
0.00071445
0.000706719
0.000700133
0.000694744
0.000690612
0.000687932
0.00068672
0.000686484
0.00068796
0.000691161
0.000696086
0.000702844
0.000711544
0.000722303
0.000735248
0.000750515
0.000768248
0.000788608
0.000811772
0.000837939
0.000867348
0.000900286
0.000937116
0.000978301
0.00102446
0.00107638
0.00113514
0.00120207
0.00127879
0.00136708
0.00146856
0.00158396
0.00171209
0.00184825
0.00198262
0.00209911
0.00216076
0.00217217
0.0021583
0.00214513
0.00219055
0.00234013
0.0027751
0.00340481
0.00362609
0.0030884
0.00150635
0.000236231
0.000591896
0.00221583
0.00284583
0.00308374
0.00311718
0.00299728
0.0027624
0.00247235
0.002169
0.00188175
0.00162961
0.00142184
0.00125883
0.00113521
0.0010439
0.000978179
0.000931906
0.000899413
0.000875801
0.000857269
0.000841224
0.000826143
0.000811298
0.000796469
0.000781713
0.0007672
0.000753121
0.000739644
0.0007269
0.000714988
0.000703979
0.000693931
0.000684892
0.000676909
0.000670033
0.000664319
0.000659827
0.000656626
0.000655013
0.000654514
0.000655404
0.000658107
0.000662528
0.000668776
0.000676962
0.00068721
0.000699648
0.000714417
0.000731663
0.000751546
0.000774238
0.000799929
0.000828838
0.000861221
0.000897393
0.000937753
0.000982825
0.00103331
0.00109014
0.00115457
0.00122821
0.00131302
0.00141115
0.0015245
0.00165376
0.00179698
0.00194764
0.00209277
0.00219548
0.00223243
0.00223259
0.00219806
0.00218603
0.00226287
0.00251946
0.00313012
0.00351135
0.00332766
0.00176107
0.000282312
0.000597658
0.00223614
0.00285269
0.00308038
0.00310579
0.0029629
0.00270704
0.00239816
0.00208281
0.00179242
0.00154473
0.00134597
0.00119364
0.00108067
0.00099907
0.00094151
0.000901402
0.000872977
0.000851579
0.000833869
0.000817765
0.000802176
0.000786681
0.000771238
0.00075598
0.000741091
0.00072674
0.000713057
0.000700141
0.000688058
0.000676861
0.000666594
0.000657299
0.000649021
0.000641811
0.000635723
0.000630819
0.000627161
0.00062506
0.000624271
0.000624581
0.000626752
0.000630646
0.00063636
0.000644007
0.000653713
0.000665612
0.000679848
0.000696573
0.000715949
0.00073815
0.000763363
0.000791796
0.000823688
0.000859319
0.000899036
0.000943289
0.000992676
0.00104801
0.00111041
0.00118137
0.00126284
0.0013572
0.00146698
0.0015942
0.001739
0.00189763
0.00206004
0.00220782
0.002288
0.00230289
0.00227319
0.00223253
0.0022392
0.00238182
0.00285201
0.00337457
0.00343985
0.00206509
0.000339957
0.000597286
0.0022438
0.00284776
0.00306582
0.00307968
0.00291962
0.00264722
0.00232429
0.00200102
0.00171036
0.00146861
0.00127918
0.00113715
0.00103401
0.000961005
0.000910275
0.000874987
0.000849465
0.000829425
0.000812022
0.000795633
0.000779517
0.00076347
0.000747556
0.00073194
0.000716789
0.000702241
0.000688393
0.000675313
0.000663049
0.00065164
0.000641125
0.000631544
0.000622945
0.000615378
0.000608904
0.000603587
0.000599497
0.00059686
0.000595706
0.000595562
0.000597164
0.000600523
0.000605693
0.000612786
0.000621929
0.000633262
0.000646931
0.000663097
0.000681926
0.000703597
0.000728301
0.000756245
0.000787658
0.000822799
0.000861982
0.000905596
0.000954155
0.00100836
0.00106917
0.00113794
0.00121652
0.0013073
0.0014132
0.0015372
0.00168132
0.00184471
0.0020209
0.00219508
0.00232307
0.00236838
0.00236201
0.00228727
0.00225088
0.00231314
0.00261277
0.00323208
0.00346625
0.0024066
0.000406766
0.000594083
0.00224178
0.00283169
0.00303607
0.00304121
0.00286935
0.00258498
0.00225234
0.00192457
0.00163576
0.00140083
0.00122068
0.00108834
0.0009941
0.000928528
0.000883395
0.00085179
0.000828276
0.000809006
0.000791605
0.000774844
0.000758247
0.000741755
0.00072549
0.000709613
0.000694268
0.000679559
0.000665556
0.000652305
0.000639842
0.000628202
0.00061742
0.00060754
0.000598612
0.000590691
0.00058384
0.00057813
0.000573637
0.000570451
0.00056886
0.000568408
0.00056943
0.000572258
0.000576888
0.000583423
0.000591992
0.000602736
0.00061581
0.000631378
0.000649614
0.000670707
0.000694854
0.000722267
0.000753176
0.000787831
0.000826524
0.000869603
0.000917516
0.000970858
0.00103046
0.00109751
0.00117367
0.00126123
0.00136317
0.001483
0.001624
0.00178764
0.00197063
0.00216125
0.00233589
0.00242684
0.00244156
0.00238656
0.00230075
0.0022908
0.00245569
0.00300787
0.00338166
0.00274475
0.000475369
0.000587017
0.00223307
0.00280191
0.0029961
0.00299412
0.00281415
0.00252201
0.00218348
0.001854
0.00156856
0.00134086
0.00116966
0.00104625
0.000959911
0.000900665
0.000860039
0.000831196
0.000809028
0.000790137
0.000772575
0.00075543
0.00073842
0.000721578
0.000705045
0.000688969
0.000673464
0.000658607
0.000644445
0.000631012
0.000618339
0.000606457
0.000595405
0.000585229
0.000575983
0.000567725
0.00056052
0.000554437
0.000549548
0.000545928
0.000543879
0.000543145
0.000543631
0.000545945
0.000550047
0.00055603
0.000564022
0.000574166
0.00058662
0.000601555
0.000619155
0.000639617
0.000663149
0.000689974
0.000720329
0.000754465
0.000792666
0.000835254
0.000882627
0.000935304
0.000993998
0.00105973
0.00113396
0.00121881
0.00131718
0.00143282
0.0015699
0.00173186
0.00191883
0.00212379
0.00232811
0.00247035
0.00251342
0.00248758
0.00236279
0.00230164
0.00237769
0.00280171
0.00324881
0.00300942
0.00053002
0.000576028
0.00221476
0.00276336
0.00294872
0.00294033
0.0027557
0.00245959
0.0021185
0.00178957
0.00150852
0.00128812
0.00112533
0.00101
0.000930572
0.000876627
0.000839582
0.000812775
0.000791477
0.00077272
0.000754918
0.000737411
0.000720056
0.000702934
0.000686189
0.000669948
0.000654298
0.000639294
0.000624968
0.000611347
0.00059846
0.00058634
0.000575028
0.000564575
0.000555036
0.000546472
0.000538948
0.000532531
0.000527292
0.000523302
0.000520814
0.000519805
0.000519832
0.000521657
0.00052525
0.000530695
0.000538115
0.000547654
0.000559472
0.000573747
0.000590671
0.000610451
0.00063331
0.000659482
0.000689218
0.00072278
0.000760451
0.000802545
0.000849427
0.000901557
0.00095955
0.00102428
0.00109702
0.00117966
0.0012749
0.00138647
0.00151898
0.00167713
0.00186354
0.00207491
0.00229688
0.00249046
0.00257719
0.00258113
0.00247231
0.00234787
0.00234148
0.00262877
0.00312505
0.00313442
0.000554885
0.000561724
0.00218976
0.002718
0.00289532
0.00288182
0.00269547
0.0023987
0.00205792
0.00173133
0.00145533
0.001242
0.00108696
0.00097883
0.000905351
0.000855793
0.000821557
0.00079623
0.000775468
0.000756693
0.000738624
0.000720791
0.000703144
0.000685792
0.00066887
0.000652481
0.00063669
0.000621537
0.000607045
0.000593238
0.000580144
0.000567801
0.000556253
0.000545552
0.000535757
0.000526929
0.000519131
0.000512432
0.000506899
0.000502605
0.000499701
0.000498345
0.000498088
0.000499435
0.000502544
0.00050747
0.00051433
0.000523266
0.000534441
0.000548036
0.000564252
0.000583307
0.000605437
0.000630893
0.000659941
0.00069286
0.000729944
0.000771507
0.000817902
0.000869545
0.000926978
0.000990948
0.00106256
0.00114346
0.00123611
0.00134409
0.00147218
0.00162599
0.00181035
0.00202574
0.0022625
0.00249442
0.00263437
0.00266448
0.00258723
0.00240201
0.00233293
0.00247915
0.00301807
0.00316943
0.00055907
0.00054492
0.00216017
0.00266754
0.00283738
0.00282018
0.00263463
0.00234009
0.00200203
0.00167919
0.00140857
0.00120195
0.00105388
0.000952057
0.00088364
0.000837671
0.00080562
0.000781352
0.000760896
0.000742014
0.000723673
0.000705549
0.000687652
0.000670103
0.000653022
0.000636492
0.000620563
0.000605262
0.000590608
0.000576625
0.000563342
0.000550801
0.000539047
0.000528137
0.000518128
0.000509082
0.000501062
0.00049413
0.000488353
0.000483799
0.000480542
0.000478851
0.000478363
0.000479281
0.000481937
0.000486369
0.000492687
0.00050103
0.000511561
0.000524467
0.000539953
0.000558249
0.000579603
0.000604284
0.000632577
0.000664781
0.000701208
0.000742185
0.000788062
0.000839235
0.000896189
0.000959573
0.00103033
0.00110989
0.00120044
0.0013053
0.00142915
0.00157806
0.00175839
0.00197377
0.00221954
0.00247583
0.00267355
0.00273885
0.00270116
0.00250499
0.00236292
0.00240674
0.00285254
0.00314103
0.000547814
0.000526286
0.00212776
0.00261357
0.00277632
0.00275674
0.00257412
0.00228424
0.00195095
0.00163296
0.00136786
0.00116739
0.0010255
0.000929114
0.000864945
0.000821881
0.000791509
0.000767986
0.000747679
0.000728641
0.000710038
0.000691652
0.000673535
0.000655808
0.000638578
0.000621913
0.000605849
0.000590405
0.0005756
0.000561458
0.000548011
0.000535302
0.00052338
0.000512302
0.000502125
0.000492909
0.000484713
0.000477597
0.00047162
0.000466843
0.000463326
0.000461319
0.000460619
0.000461162
0.0004634
0.000467367
0.000473165
0.000480932
0.000490829
0.000503044
0.00051779
0.000535304
0.000555846
0.000579704
0.000607181
0.000638601
0.000674298
0.000714621
0.000759931
0.000810618
0.000867131
0.000930044
0.00100016
0.00107872
0.00116764
0.0012699
0.00139001
0.00153417
0.00170978
0.00192302
0.00217332
0.00244508
0.00269205
0.00280458
0.00280275
0.00262403
0.00240609
0.00237725
0.0027082
0.00307067
0.000529077
0.000506434
0.00209325
0.00255733
0.00271337
0.0026926
0.00251468
0.0022315
0.00190468
0.00159238
0.00133276
0.00113786
0.0010013
0.00090952
0.000848859
0.000808119
0.000779026
0.000756013
0.00073575
0.000716531
0.000697679
0.000679056
0.000660738
0.000642846
0.000625475
0.000608678
0.000592484
0.000576909
0.00056197
0.000547692
0.000534109
0.000521267
0.000509217
0.000498013
0.000487713
0.000478372
0.000470047
0.000462792
0.000456659
0.000451704
0.000447981
0.000445693
0.000444795
0.000445016
0.000446873
0.000450406