/*--------------------------------*- C++ -*----------------------------------*\
  =========                 |
  \\      /  F ield         | OpenFOAM: The Open Source CFD Toolbox
   \\    /   O peration     | Website:  https://openfoam.org
    \\  /    A nd           | Version:  13
     \\/     M anipulation  |
\*---------------------------------------------------------------------------*/
FoamFile
{
    format      ascii;
    class       volScalarField;
    location    "7.4";
    object      nut;
}
// * * * * * * * * * * * * * * * * * * * * * * * * * * * * * * * * * * * * * //

dimensions      [0 2 -1 0 0 0 0];

internalField   nonuniform List<scalar> 
6400
(
9.60114e-10
4.9312e-09
1.19762e-08
1.92977e-08
2.48244e-08
2.7934e-08
2.90713e-08
2.91922e-08
2.9377e-08
3.04695e-08
3.31126e-08
3.82749e-08
4.64275e-08
5.77379e-08
7.16182e-08
8.72977e-08
1.03976e-07
1.21319e-07
1.38521e-07
1.55153e-07
1.71836e-07
1.90004e-07
2.11568e-07
2.37694e-07
2.67346e-07
2.97375e-07
3.27166e-07
3.56731e-07
3.86972e-07
4.18717e-07
4.5156e-07
4.84354e-07
5.1658e-07
5.48296e-07
5.80351e-07
6.12916e-07
6.46692e-07
6.81882e-07
7.18935e-07
7.57965e-07
7.99257e-07
8.43128e-07
8.89833e-07
9.39941e-07
9.93808e-07
1.05323e-06
1.12157e-06
1.20602e-06
1.29232e-06
1.37986e-06
1.46591e-06
1.54954e-06
1.62821e-06
1.69969e-06
1.76141e-06
1.81021e-06
1.83576e-06
1.84596e-06
1.84414e-06
1.81001e-06
1.74887e-06
1.6606e-06
1.54624e-06
1.40998e-06
1.25511e-06
1.08909e-06
9.2001e-07
7.54645e-07
5.99108e-07
4.60229e-07
3.47455e-07
2.52792e-07
1.76308e-07
1.17785e-07
7.56635e-08
4.69753e-08
2.82699e-08
1.62247e-08
7.66716e-09
1.63263e-09
4.64272e-09
3.28265e-07
1.18077e-06
1.99232e-06
2.59341e-06
2.94838e-06
3.11301e-06
3.17325e-06
3.2134e-06
3.29471e-06
3.49293e-06
3.87487e-06
4.40987e-06
5.0305e-06
5.67352e-06
6.27581e-06
6.79241e-06
7.17608e-06
7.41309e-06
7.51848e-06
7.57045e-06
7.63862e-06
7.7892e-06
8.05052e-06
8.36413e-06
8.57876e-06
8.78011e-06
9.01003e-06
9.31452e-06
9.73191e-06
1.02698e-05
1.08613e-05
1.15027e-05
1.21625e-05
1.28612e-05
1.35827e-05
1.43371e-05
1.51183e-05
1.59332e-05
1.67773e-05
1.76447e-05
1.85408e-05
1.94625e-05
2.04367e-05
2.14283e-05
2.24061e-05
2.33423e-05
2.41854e-05
2.50466e-05
2.59242e-05
2.68102e-05
2.76894e-05
2.85466e-05
2.93614e-05
3.01112e-05
3.08437e-05
3.13128e-05
3.16069e-05
3.18155e-05
3.18012e-05
3.14569e-05
3.08061e-05
2.98276e-05
2.8506e-05
2.68464e-05
2.48963e-05
2.27562e-05
2.04488e-05
1.80049e-05
1.53682e-05
1.24723e-05
9.67319e-06
7.20237e-06
5.16204e-06
3.57937e-06
2.43336e-06
1.6265e-06
1.0511e-06
4.75389e-07
8.63626e-09
1.01506e-08
8.49632e-07
3.43617e-06
5.97767e-06
7.92816e-06
9.19965e-06
9.92008e-06
1.02905e-05
1.05189e-05
1.07846e-05
1.12171e-05
1.18935e-05
1.2786e-05
1.37945e-05
1.47916e-05
1.56661e-05
1.63685e-05
1.68748e-05
1.71847e-05
1.73143e-05
1.72864e-05
1.71925e-05
1.71146e-05
1.70925e-05
1.71622e-05
1.74105e-05
1.77282e-05
1.8049e-05
1.83952e-05
1.87614e-05
1.92407e-05
1.99109e-05
2.08935e-05
2.18877e-05
2.30204e-05
2.42074e-05
2.54759e-05
2.67664e-05
2.81095e-05
2.95434e-05
3.09405e-05
3.23781e-05
3.37901e-05
3.51294e-05
3.64101e-05
3.76643e-05
3.88799e-05
4.01037e-05
4.13345e-05
4.25666e-05
4.379e-05
4.49941e-05
4.61625e-05
4.72756e-05
4.8307e-05
4.92229e-05
5.00128e-05
5.05614e-05
5.08109e-05
5.09858e-05
5.0826e-05
5.03483e-05
4.95154e-05
4.82013e-05
4.63331e-05
4.39182e-05
4.11526e-05
3.80258e-05
3.45507e-05
3.07667e-05
2.67232e-05
2.25585e-05
1.84718e-05
1.46653e-05
1.13147e-05
8.48056e-06
6.22841e-06
4.29025e-06
1.78684e-06
2.31004e-08
1.76191e-08
1.39098e-06
5.38503e-06
9.21474e-06
1.21847e-05
1.42321e-05
1.55104e-05
1.62421e-05
1.66873e-05
1.70677e-05
1.75793e-05
1.83437e-05
1.93385e-05
2.04238e-05
2.14377e-05
2.22672e-05
2.28522e-05
2.31898e-05
2.33104e-05
2.32725e-05
2.31428e-05
2.30304e-05
2.30031e-05
2.30993e-05
2.31511e-05
2.31616e-05
2.31242e-05
2.3504e-05
2.42274e-05
2.51941e-05
2.64741e-05
2.76875e-05
2.88875e-05
3.01703e-05
3.14879e-05
3.27843e-05
3.40842e-05
3.54471e-05
3.67447e-05
3.80278e-05
3.92636e-05
4.04799e-05
4.16498e-05
4.27795e-05
4.38645e-05
4.49185e-05
4.59733e-05
4.70288e-05
4.80817e-05
4.9127e-05
5.01572e-05
5.11628e-05
5.21308e-05
5.30447e-05
5.38846e-05
5.46269e-05
5.52453e-05
5.57226e-05
5.59749e-05
5.60437e-05
5.58948e-05
5.54095e-05
5.46224e-05
5.38357e-05
5.25545e-05
5.06378e-05
4.82696e-05
4.54071e-05
4.21284e-05
3.84831e-05
3.45145e-05
3.02871e-05
2.59069e-05
2.15375e-05
1.73826e-05
1.36102e-05
1.03289e-05
7.24195e-06
3.00096e-06
3.84557e-08
2.82566e-08
2.08713e-06
7.47672e-06
1.2403e-05
1.60902e-05
1.85832e-05
2.01188e-05
2.09807e-05
2.14807e-05
2.19364e-05
2.26e-05
2.35568e-05
2.47043e-05
2.58453e-05
2.6803e-05
2.74786e-05
2.78524e-05
2.79649e-05
2.78716e-05
2.76942e-05
2.74345e-05
2.72562e-05
2.70961e-05
2.64689e-05
2.63917e-05
2.68943e-05
2.7836e-05
2.89673e-05
3.01301e-05
3.14309e-05
3.27024e-05
3.39368e-05
3.5151e-05
3.63357e-05
3.74345e-05
3.84583e-05
3.94852e-05
4.04461e-05
4.12755e-05
4.20557e-05
4.2753e-05
4.3399e-05
4.40089e-05
4.46101e-05
4.52259e-05
4.58583e-05
4.64861e-05
4.71218e-05
4.77661e-05
4.84231e-05
4.90942e-05
4.97798e-05
5.04782e-05
5.11849e-05
5.18927e-05
5.25897e-05
5.32587e-05
5.38697e-05
5.43893e-05
5.47614e-05
5.49087e-05
5.48256e-05
5.43192e-05
5.32157e-05
5.2402e-05
5.12658e-05
4.94571e-05
4.71473e-05
4.44027e-05
4.1277e-05
3.78074e-05
3.4018e-05
2.99419e-05
2.56652e-05
2.13904e-05
1.7291e-05
1.34394e-05
9.4515e-06
3.84757e-06
4.90553e-08
4.34487e-08
3.02449e-06
9.94896e-06
1.5892e-05
2.00871e-05
2.27668e-05
2.43151e-05
2.51386e-05
2.56562e-05
2.62417e-05
2.71052e-05
2.8228e-05
2.94264e-05
3.04827e-05
3.12423e-05
3.16441e-05
3.17065e-05
3.1558e-05
3.11358e-05
3.08116e-05
3.02935e-05
2.93983e-05
2.92393e-05
2.99275e-05
3.08848e-05
3.19023e-05
3.30626e-05
3.42243e-05
3.53382e-05
3.64125e-05
3.73368e-05
3.82172e-05
3.90281e-05
3.97259e-05
4.02925e-05
4.07892e-05
4.11912e-05
4.1587e-05
4.18806e-05
4.21392e-05
4.23654e-05
4.25802e-05
4.27761e-05
4.29601e-05
4.31393e-05
4.33123e-05
4.34853e-05
4.36668e-05
4.38655e-05
4.40922e-05
4.43583e-05
4.46759e-05
4.50574e-05
4.5512e-05
4.60407e-05
4.66379e-05
4.73171e-05
4.80484e-05
4.88031e-05
4.95257e-05
5.01896e-05
5.06532e-05
5.08211e-05
5.06905e-05
4.9829e-05
4.93601e-05
4.81582e-05
4.64015e-05
4.41508e-05
4.14966e-05
3.85143e-05
3.52362e-05
3.16464e-05
2.77125e-05
2.35772e-05
1.93732e-05
1.52432e-05
1.07517e-05
4.25289e-06
5.29338e-08
6.45475e-08
4.24706e-06
1.28343e-05
1.96825e-05
2.41919e-05
2.68657e-05
2.82833e-05
2.90078e-05
2.95519e-05
3.02737e-05
3.12779e-05
3.244e-05
3.35331e-05
3.43574e-05
3.48091e-05
3.48831e-05
3.44135e-05
3.39567e-05
3.35099e-05
3.23192e-05
3.1972e-05
3.24314e-05
3.32854e-05
3.40432e-05
3.49405e-05
3.58376e-05
3.67424e-05
3.75291e-05
3.8214e-05
3.88214e-05
3.93561e-05
3.97989e-05
4.0143e-05
4.03932e-05
4.05677e-05
4.069e-05
4.07626e-05
4.08054e-05
4.0788e-05
4.07712e-05
4.07541e-05
4.06798e-05
4.06145e-05
4.05181e-05
4.04235e-05
4.03072e-05
4.01868e-05
4.0056e-05
3.99264e-05
3.98031e-05
3.9701e-05
3.96375e-05
3.96403e-05
3.97503e-05
4.00026e-05
4.03502e-05
4.08962e-05
4.16297e-05
4.25213e-05
4.34923e-05
4.45595e-05
4.55772e-05
4.6505e-05
4.69749e-05
4.70623e-05
4.65312e-05
4.63238e-05
4.51236e-05
4.32734e-05
4.09087e-05
3.81778e-05
3.51931e-05
3.19947e-05
2.85038e-05
2.45892e-05
2.05464e-05
1.61612e-05
1.10525e-05
4.2425e-06
5.14045e-08
9.2808e-08
5.77449e-06
1.60623e-05
2.36683e-05
2.8312e-05
3.08489e-05
3.20713e-05
3.26905e-05
3.32593e-05
3.40596e-05
3.50792e-05
3.61198e-05
3.69468e-05
3.73943e-05
3.74254e-05
3.68962e-05
3.64234e-05
3.53912e-05
3.46376e-05
3.45706e-05
3.51008e-05
3.54952e-05
3.61223e-05
3.67401e-05
3.74873e-05
3.81178e-05
3.86818e-05
3.91146e-05
3.94614e-05
3.97217e-05
3.99054e-05
4.0016e-05
4.00676e-05
4.00753e-05
4.0054e-05
4.00135e-05
3.99555e-05
3.98846e-05
3.98001e-05
3.97148e-05
3.95766e-05
3.94831e-05
3.94042e-05
3.92041e-05
3.90678e-05
3.88826e-05
3.8699e-05
3.84938e-05
3.82741e-05
3.8035e-05
3.77773e-05
3.74972e-05
3.71924e-05
3.6858e-05
3.65183e-05
3.63422e-05
3.63133e-05
3.65973e-05
3.72916e-05
3.81345e-05
3.93093e-05
4.06296e-05
4.20046e-05
4.32882e-05
4.4099e-05
4.43038e-05
4.41041e-05
4.40561e-05
4.26889e-05
4.05853e-05
3.7942e-05
3.49573e-05
3.18147e-05
2.85827e-05
2.50499e-05
2.1021e-05
1.66606e-05
1.12215e-05
4.13218e-06
4.77859e-08
1.29116e-07
7.5901e-06
1.95428e-05
2.76926e-05
3.23529e-05
3.46795e-05
3.56858e-05
3.6197e-05
3.67508e-05
3.75279e-05
3.84218e-05
3.92022e-05
3.96624e-05
3.95381e-05
3.90488e-05
3.85482e-05
3.72327e-05
3.67204e-05
3.67592e-05
3.68162e-05
3.70851e-05
3.75195e-05
3.80361e-05
3.85092e-05
3.89666e-05
3.9288e-05
3.95345e-05
3.96814e-05
3.97746e-05
3.98152e-05
3.98247e-05
3.98132e-05
3.97947e-05
3.97762e-05
3.9761e-05
3.97489e-05
3.97379e-05
3.97256e-05
3.97059e-05
3.9659e-05
3.96247e-05
3.96004e-05
3.95015e-05
3.94086e-05
3.93029e-05
3.91663e-05
3.90124e-05
3.88306e-05
3.86225e-05
3.83828e-05
3.81103e-05
3.77986e-05
3.74412e-05
3.70329e-05
3.65616e-05
3.60291e-05
3.54299e-05
3.47858e-05
3.421e-05
3.43262e-05
3.50139e-05
3.61586e-05
3.7634e-05
3.92794e-05
4.0913e-05
4.19672e-05
4.22567e-05
4.23038e-05
4.23681e-05
4.07431e-05
3.83042e-05
3.5255e-05
3.18856e-05
2.84687e-05
2.50328e-05
2.12224e-05
1.66991e-05
1.09732e-05
3.84274e-06
4.37076e-08
1.73823e-07
9.61667e-06
2.31045e-05
3.16731e-05
3.62558e-05
3.83306e-05
3.91098e-05
3.94886e-05
3.99536e-05
4.0589e-05
4.12285e-05
4.16447e-05
4.14135e-05
4.08656e-05
4.02877e-05
3.9188e-05
3.86203e-05
3.83803e-05
3.81383e-05
3.82955e-05
3.85514e-05
3.88841e-05
3.91988e-05
3.94421e-05
3.9624e-05
3.97108e-05
3.97591e-05
3.9768e-05
3.97755e-05
3.97848e-05
3.98128e-05
3.98604e-05
3.99298e-05
4.0016e-05
4.01127e-05
4.02112e-05
4.0301e-05
4.03893e-05
4.04415e-05
4.04671e-05
4.05074e-05
4.04853e-05
4.04425e-05
4.03742e-05
4.02779e-05
4.01536e-05
4.00056e-05
3.98337e-05
3.96416e-05
3.94269e-05
3.91831e-05
3.89039e-05
3.85778e-05
3.81871e-05
3.77247e-05
3.71672e-05
3.64963e-05
3.57016e-05
3.48054e-05
3.38747e-05
3.29594e-05
3.28513e-05
3.38058e-05
3.52675e-05
3.71531e-05
3.90438e-05
4.03728e-05
4.07669e-05
4.09074e-05
4.09659e-05
3.90707e-05
3.62153e-05
3.2674e-05
2.88477e-05
2.50592e-05
2.11897e-05
1.66604e-05
1.0711e-05
3.57481e-06
4.03821e-08
2.27668e-07
1.16887e-05
2.66074e-05
3.55224e-05
3.99744e-05
4.17743e-05
4.23081e-05
4.25053e-05
4.27891e-05
4.31679e-05
4.34474e-05
4.31268e-05
4.24873e-05
4.18339e-05
4.08983e-05
4.02118e-05
3.9621e-05
3.93136e-05
3.91993e-05
3.93317e-05
3.94786e-05
3.96406e-05
3.9748e-05
3.98013e-05
3.98193e-05
3.98125e-05
3.98239e-05
3.98582e-05
3.99363e-05
4.0053e-05
4.02094e-05
4.03939e-05
4.05975e-05
4.08066e-05
4.10173e-05
4.12373e-05
4.13783e-05
4.14742e-05
4.16487e-05
4.17048e-05
4.17652e-05
4.17681e-05
4.17471e-05
4.16873e-05
4.15945e-05
4.14675e-05
4.13088e-05
4.11185e-05
4.08979e-05
4.0647e-05
4.03669e-05
4.00581e-05
3.97212e-05
3.93558e-05
3.89596e-05
3.85081e-05
3.79497e-05
3.72352e-05
3.63462e-05
3.52751e-05
3.40707e-05
3.28655e-05
3.17921e-05
3.19771e-05
3.34582e-05
3.53605e-05
3.75093e-05
3.90959e-05
3.95911e-05
3.97502e-05
3.96686e-05
3.74275e-05
3.40768e-05
3.00123e-05
2.56832e-05
2.14001e-05
1.66567e-05
1.06985e-05
3.51272e-06
3.93114e-08
2.9326e-07
1.35995e-05
2.9957e-05
3.91808e-05
4.34725e-05
4.49791e-05
4.5236e-05
4.51855e-05
4.51924e-05
4.52137e-05
4.47847e-05
4.40327e-05
4.33236e-05
4.24602e-05
4.1675e-05
4.07544e-05
4.02664e-05
3.99998e-05
3.99079e-05
3.9937e-05
3.99464e-05
3.99557e-05
3.99325e-05
3.99095e-05
3.99093e-05
3.99522e-05
4.00586e-05
4.02242e-05
4.04485e-05
4.0715e-05
4.10122e-05
4.13226e-05
4.16425e-05
4.1975e-05
4.22681e-05
4.24541e-05
4.26703e-05
4.28892e-05
4.30459e-05
4.31521e-05
4.32303e-05
4.32609e-05
4.32568e-05
4.32105e-05
4.31261e-05
4.30025e-05
4.28416e-05
4.26437e-05
4.24098e-05
4.21404e-05
4.18359e-05
4.14958e-05
4.11189e-05
4.07033e-05
4.02468e-05
3.97481e-05
3.92065e-05
3.8618e-05
3.79133e-05
3.69977e-05
3.58245e-05
3.4453e-05
3.29814e-05
3.16413e-05
3.07726e-05
3.19677e-05
3.38345e-05
3.62103e-05
3.79742e-05
3.85313e-05
3.86101e-05
3.82817e-05
3.55714e-05
3.17007e-05
2.71044e-05
2.22091e-05
1.70922e-05
1.09534e-05
3.66335e-06
4.08166e-08
3.66181e-07
1.54926e-05
3.31426e-05
4.26149e-05
4.67205e-05
4.79131e-05
4.78504e-05
4.74792e-05
4.71193e-05
4.65121e-05
4.56122e-05
4.48625e-05
4.39693e-05
4.30579e-05
4.19054e-05
4.11316e-05
4.06946e-05
4.04274e-05
4.02887e-05
4.02047e-05
4.01161e-05
4.00543e-05
4.00167e-05
4.00416e-05
4.01411e-05
4.03234e-05
4.05846e-05
4.09082e-05
4.1279e-05
4.16763e-05
4.2085e-05
4.25031e-05
4.29159e-05
4.32892e-05
4.35959e-05
4.38849e-05
4.4142e-05
4.43888e-05
4.45893e-05
4.47339e-05
4.48408e-05
4.49019e-05
4.49204e-05
4.48937e-05
4.48229e-05
4.47075e-05
4.45486e-05
4.43468e-05
4.41033e-05
4.38191e-05
4.34952e-05
4.31317e-05
4.27277e-05
4.22807e-05
4.17863e-05
4.1239e-05
4.06331e-05
3.99659e-05
3.92411e-05
3.84612e-05
3.75174e-05
3.62961e-05
3.47951e-05
3.31195e-05
3.14608e-05
3.01752e-05
3.06961e-05
3.25736e-05
3.50691e-05
3.6915e-05
3.7457e-05
3.73613e-05
3.65755e-05
3.3334e-05
2.89546e-05
2.37549e-05
1.81576e-05
1.17745e-05
4.13271e-06
4.69988e-08
4.44325e-07
1.73306e-05
3.61212e-05
4.5792e-05
4.96932e-05
5.05495e-05
5.01199e-05
4.93552e-05
4.84533e-05
4.73372e-05
4.65378e-05
4.54551e-05
4.44145e-05
4.3086e-05
4.20348e-05
4.13519e-05
4.09219e-05
4.06257e-05
4.04288e-05
4.028e-05
4.01744e-05
4.0144e-05
4.01964e-05
4.03543e-05
4.06109e-05
4.09568e-05
4.13718e-05
4.18337e-05
4.23233e-05
4.28224e-05
4.33181e-05
4.37997e-05
4.42534e-05
4.46792e-05
4.50702e-05
4.54123e-05
4.57349e-05
4.59859e-05
4.62332e-05
4.64431e-05
4.65839e-05
4.6682e-05
4.67302e-05
4.67274e-05
4.66732e-05
4.65668e-05
4.64085e-05
4.61991e-05
4.59401e-05
4.56335e-05
4.52818e-05
4.48875e-05
4.4452e-05
4.39753e-05
4.34547e-05
4.28836e-05
4.22518e-05
4.15464e-05
4.07563e-05
3.98801e-05
3.89352e-05
3.78974e-05
3.66107e-05
3.4978e-05
3.31605e-05
3.13152e-05
2.98005e-05
2.96677e-05
3.15024e-05
3.40597e-05
3.587e-05
3.62659e-05
3.60324e-05
3.43805e-05
3.06704e-05
2.56378e-05
1.97743e-05
1.30562e-05
5.00742e-06
6.16841e-08
5.25141e-07
1.90723e-05
3.88532e-05
4.86872e-05
5.23732e-05
5.28778e-05
5.20459e-05
5.07924e-05
4.93777e-05
4.84712e-05
4.70237e-05
4.58459e-05
4.43351e-05
4.30313e-05
4.20695e-05
4.14299e-05
4.09866e-05
4.06666e-05
4.0449e-05
4.03128e-05
4.02763e-05
4.03594e-05
4.05621e-05
4.08835e-05
4.13009e-05
4.17933e-05
4.23351e-05
4.2905e-05
4.34853e-05
4.40619e-05
4.46248e-05
4.51657e-05
4.56786e-05
4.61613e-05
4.66094e-05
4.70357e-05
4.74296e-05
4.77313e-05
4.79944e-05
4.82674e-05
4.84755e-05
4.86094e-05
4.86962e-05
4.87209e-05
4.86866e-05
4.85901e-05
4.84314e-05
4.82107e-05
4.79294e-05
4.75902e-05
4.71968e-05
4.67539e-05
4.62666e-05
4.57394e-05
4.51749e-05
4.45717e-05
4.39227e-05
4.3213e-05
4.242e-05
4.15176e-05
4.04865e-05
3.93346e-05
3.80582e-05
3.66254e-05
3.49731e-05
3.30322e-05
3.10874e-05
2.93194e-05
2.87979e-05
3.05305e-05
3.32054e-05
3.47448e-05
3.48686e-05
3.44819e-05
3.18222e-05
2.73225e-05
2.15509e-05
1.46216e-05
6.01261e-06
8.49057e-08
6.06133e-07
2.06816e-05
4.13131e-05
5.12908e-05
5.47522e-05
5.49074e-05
5.35831e-05
5.19338e-05
5.06882e-05
4.88701e-05
4.74373e-05
4.57292e-05
4.4167e-05
4.29166e-05
4.20193e-05
4.13977e-05
4.09507e-05
4.06428e-05
4.04655e-05
4.04161e-05
4.05105e-05
4.07486e-05
4.11159e-05
4.15924e-05
4.21485e-05
4.27596e-05
4.34019e-05
4.4058e-05
4.47141e-05
4.53604e-05
4.599e-05
4.65977e-05
4.71799e-05
4.77339e-05
4.8256e-05
4.87439e-05
4.92103e-05
4.96267e-05
4.99062e-05
5.02069e-05
5.05161e-05
5.06858e-05
5.08167e-05
5.08734e-05
5.0863e-05
5.07799e-05
5.06236e-05
5.03931e-05
5.0089e-05
4.97135e-05
4.92704e-05
4.87655e-05
4.82064e-05
4.76016e-05
4.69602e-05
4.62892e-05
4.55911e-05
4.48604e-05
4.40801e-05
4.32191e-05
4.22338e-05
4.10786e-05
3.97821e-05
3.82925e-05
3.64556e-05
3.46803e-05
3.27701e-05
3.07155e-05
2.87277e-05
2.80245e-05
2.97002e-05
3.23004e-05
3.36532e-05
3.32087e-05
3.22318e-05
2.84824e-05
2.3102e-05
1.62139e-05
7.04316e-06
1.14632e-07
6.85906e-07
2.21056e-05
4.34957e-05
5.36397e-05
5.68027e-05
5.64339e-05
5.48412e-05
5.31512e-05
5.10646e-05
4.92766e-05
4.73482e-05
4.55096e-05
4.3949e-05
4.2757e-05
4.19053e-05
4.13031e-05
4.08854e-05
4.06392e-05
4.05603e-05
4.06473e-05
4.08998e-05
4.12982e-05
4.18162e-05
4.24248e-05
4.30943e-05
4.38022e-05
4.45292e-05
4.52624e-05
4.59922e-05
4.67117e-05
4.74161e-05
4.81012e-05
4.8763e-05
4.93975e-05
5e-05
5.05654e-05
5.11019e-05
5.16027e-05
5.19549e-05
5.22834e-05
5.26629e-05
5.28893e-05
5.30612e-05
5.31545e-05
5.31715e-05
5.31074e-05
5.29599e-05
5.27268e-05
5.24074e-05
5.20022e-05
5.15138e-05
5.09472e-05
5.031e-05
4.96128e-05
4.88684e-05
4.80912e-05
4.72939e-05
4.64847e-05
4.56622e-05
4.48092e-05
4.38878e-05
4.28372e-05
4.15805e-05
4.01652e-05
3.84831e-05
3.62254e-05
3.42478e-05
3.23531e-05
3.01756e-05
2.8001e-05
2.73647e-05
2.89811e-05
3.11947e-05
3.21317e-05
3.1356e-05
2.90062e-05
2.42387e-05
1.7624e-05
7.96773e-06
1.48994e-07
7.62549e-07
2.33787e-05
4.54079e-05
5.5568e-05
5.83534e-05
5.78233e-05
5.62566e-05
5.39737e-05
5.14653e-05
4.92756e-05
4.71376e-05
4.5235e-05
4.3705e-05
4.25686e-05
4.17592e-05
4.11993e-05
4.08529e-05
4.07136e-05
4.07715e-05
4.10148e-05
4.14243e-05
4.19684e-05
4.26149e-05
4.33335e-05
4.40985e-05
4.48915e-05
4.56982e-05
4.65093e-05
4.7318e-05
4.8119e-05
4.89074e-05
4.96783e-05
5.04264e-05
5.11458e-05
5.18304e-05
5.24741e-05
5.308e-05
5.36562e-05
5.40862e-05
5.44495e-05
5.48733e-05
5.51651e-05
5.53735e-05
5.55042e-05
5.55512e-05
5.5511e-05
5.53801e-05
5.51551e-05
5.48334e-05
5.44136e-05
5.38957e-05
5.32824e-05
5.25791e-05
5.17954e-05
5.09448e-05
5.00447e-05
4.91154e-05
4.81768e-05
4.72443e-05
4.63223e-05
4.53954e-05
4.44205e-05
4.3319e-05
4.1978e-05
4.0461e-05
3.83681e-05
3.58897e-05
3.36892e-05
3.17682e-05
2.93932e-05
2.70001e-05
2.68004e-05
2.85048e-05
2.99904e-05
3.01366e-05
2.90307e-05
2.49371e-05
1.87173e-05
8.71323e-06
1.86368e-07
8.33247e-07
2.44647e-05
4.69444e-05
5.70562e-05
5.95957e-05
5.92511e-05
5.70958e-05
5.42778e-05
5.16963e-05
4.91369e-05
4.68571e-05
4.49366e-05
4.34522e-05
4.23714e-05
4.16166e-05
4.11312e-05
4.08937e-05
4.08906e-05
4.11002e-05
4.14972e-05
4.2049e-05
4.27188e-05
4.34743e-05
4.42881e-05
4.51397e-05
4.60148e-05
4.69032e-05
4.7798e-05
4.86931e-05
4.95828e-05
5.04611e-05
5.13213e-05
5.21562e-05
5.29584e-05
5.37206e-05
5.4436e-05
5.51046e-05
5.57467e-05
5.62423e-05
5.66346e-05
5.70941e-05
5.74423e-05
5.76829e-05
5.78475e-05
5.79243e-05
5.79111e-05
5.78034e-05
5.7597e-05
5.72877e-05
5.68718e-05
5.63466e-05
5.57113e-05
5.49678e-05
5.41219e-05
5.31843e-05
5.21716e-05
5.11061e-05
5.00145e-05
4.89251e-05
4.78616e-05
4.68352e-05
4.58339e-05
4.48109e-05
4.36735e-05
4.22763e-05
4.05242e-05
3.80302e-05
3.53787e-05
3.30154e-05
3.09852e-05
2.8278e-05
2.57873e-05
2.61213e-05
2.79897e-05
2.90429e-05
2.795e-05
2.51494e-05
1.94482e-05
9.27668e-06
2.25517e-07
8.95439e-07
2.53357e-05
4.81031e-05
5.8176e-05
6.0826e-05
6.02801e-05
5.78001e-05
5.46752e-05
5.16659e-05
4.89079e-05
4.65422e-05
4.46348e-05
4.32051e-05
4.21871e-05
4.15083e-05
4.1128e-05
4.10237e-05
4.11682e-05
4.15271e-05
4.20641e-05
4.27401e-05
4.35186e-05
4.43701e-05
4.52718e-05
4.62079e-05
4.71677e-05
4.81432e-05
4.91276e-05
5.01144e-05
5.1096e-05
5.20644e-05
5.30109e-05
5.39266e-05
5.4803e-05
5.56323e-05
5.64078e-05
5.71239e-05
5.78178e-05
5.83682e-05
5.87774e-05
5.92602e-05
5.96524e-05
5.99182e-05
6.01103e-05
6.02137e-05
6.02274e-05
6.01467e-05
5.99668e-05
5.96825e-05
5.92882e-05
5.87785e-05
5.81491e-05
5.73973e-05
5.6524e-05
5.55347e-05
5.44412e-05
5.32632e-05
5.20283e-05
5.07707e-05
4.95277e-05
4.83319e-05
4.72009e-05
4.61238e-05
4.50467e-05
4.38586e-05
4.23814e-05
4.03074e-05
3.74907e-05
3.46915e-05
3.22302e-05
2.99725e-05
2.69612e-05
2.48434e-05
2.54545e-05
2.66833e-05
2.68977e-05
2.50602e-05
1.98282e-05
9.62382e-06
2.66436e-07
9.47707e-07
2.59969e-05
4.89328e-05
5.9055e-05
6.17441e-05
6.1016e-05
5.81039e-05
5.47989e-05
5.15329e-05
4.86259e-05
4.62169e-05
4.43435e-05
4.29769e-05
4.20349e-05
4.14549e-05
4.12011e-05
4.124e-05
4.15297e-05
4.20262e-05
4.26871e-05
4.34721e-05
4.43476e-05
4.52884e-05
4.62763e-05
4.7299e-05
4.83477e-05
4.94147e-05
5.04921e-05
5.15712e-05
5.26423e-05
5.3695e-05
5.47189e-05
5.57039e-05
5.66409e-05
5.75223e-05
5.83413e-05
5.90928e-05
5.98183e-05
6.04156e-05
6.08254e-05
6.1315e-05
6.1739e-05
6.2021e-05
6.22316e-05
6.23559e-05
6.23932e-05
6.23394e-05
6.219e-05
6.19391e-05
6.15799e-05
6.11049e-05
6.05066e-05
5.97781e-05
5.89147e-05
5.79153e-05
5.67849e-05
5.55364e-05
5.41931e-05
5.27886e-05
5.13664e-05
4.99741e-05
4.86543e-05
4.74309e-05
4.62917e-05
4.51693e-05
4.39207e-05
4.22496e-05
3.96768e-05
3.67162e-05
3.3864e-05
3.12804e-05
2.86129e-05
2.52668e-05
2.41211e-05
2.50752e-05
2.57806e-05
2.43526e-05
1.98592e-05
9.77664e-06
3.08581e-07
9.89291e-07
2.64516e-05
4.94868e-05
5.96527e-05
6.24299e-05
6.15526e-05
5.84931e-05
5.48186e-05
5.1332e-05
4.83178e-05
4.58971e-05
4.40727e-05
4.27789e-05
4.19283e-05
4.14651e-05
4.13479e-05
4.15284e-05
4.19535e-05
4.25735e-05
4.33443e-05
4.42275e-05
4.51935e-05
4.62215e-05
4.72968e-05
4.84092e-05
4.95499e-05
5.07099e-05
5.18791e-05
5.30462e-05
5.41991e-05
5.53255e-05
5.64137e-05
5.74534e-05
5.84354e-05
5.93525e-05
6.01988e-05
6.09699e-05
6.17065e-05
6.23451e-05
6.27424e-05
6.32185e-05
6.36629e-05
6.3951e-05
6.41702e-05
6.43072e-05
6.4362e-05
6.43318e-05
6.42123e-05
6.39981e-05
6.36818e-05
6.32547e-05
6.27069e-05
6.20279e-05
6.12078e-05
6.02389e-05
5.91182e-05
5.78496e-05
5.64476e-05
5.49396e-05
5.33672e-05
5.17842e-05
5.02503e-05
4.88188e-05
4.75191e-05
4.63375e-05
4.51987e-05
4.39485e-05
4.18112e-05
3.87788e-05
3.58342e-05
3.2827e-05
3.0078e-05
2.67834e-05
2.35424e-05
2.3238e-05
2.35929e-05
2.33497e-05
1.97427e-05
9.92171e-06
3.55148e-07
1.02005e-06
2.67155e-05
4.9799e-05
5.99939e-05
6.29419e-05
6.18073e-05
5.86242e-05
5.47448e-05
5.10882e-05
4.80024e-05
4.55936e-05
4.38297e-05
4.26189e-05
4.18734e-05
4.15374e-05
4.15575e-05
4.18715e-05
4.24197e-05
4.31505e-05
4.40207e-05
4.49952e-05
4.60487e-05
4.7164e-05
4.83285e-05
4.95323e-05
5.07652e-05
5.20158e-05
5.32713e-05
5.45177e-05
5.57411e-05
5.69279e-05
5.8066e-05
5.9145e-05
6.01567e-05
6.10947e-05
6.19547e-05
6.27338e-05
6.34552e-05
6.41106e-05
6.45168e-05
6.49497e-05
6.54036e-05
6.56878e-05
6.59052e-05
6.60456e-05
6.61099e-05
6.60966e-05
6.60028e-05
6.58236e-05
6.55522e-05
6.51793e-05
6.46938e-05
6.40825e-05
6.33315e-05
6.24273e-05
6.13586e-05
6.01199e-05
5.87146e-05
5.71593e-05
5.54871e-05
5.37495e-05
5.20133e-05
5.03509e-05
4.88236e-05
4.74574e-05
4.62171e-05
4.49831e-05
4.35289e-05
4.09149e-05
3.77369e-05
3.46878e-05
3.1442e-05
2.84508e-05
2.44949e-05
2.24839e-05
2.25149e-05
2.26208e-05
1.96229e-05
1.02862e-05
4.15248e-07
1.04048e-06
2.68137e-05
4.98569e-05
6.00486e-05
6.31148e-05
6.20884e-05
5.86635e-05
5.46067e-05
5.08214e-05
4.76928e-05
4.53132e-05
4.36192e-05
4.2501e-05
4.18702e-05
4.16643e-05
4.18158e-05
4.22527e-05
4.29123e-05
4.37436e-05
4.47058e-05
4.57676e-05
4.69076e-05
4.81106e-05
4.93649e-05
5.06592e-05
5.1981e-05
5.33161e-05
5.46489e-05
5.59634e-05
5.72443e-05
5.84775e-05
5.96511e-05
6.07555e-05
6.17834e-05
6.27296e-05
6.35912e-05
6.43669e-05
6.50574e-05
6.57092e-05
6.61333e-05
6.65047e-05
6.69571e-05
6.72286e-05
6.74342e-05
6.75683e-05
6.76327e-05
6.76278e-05
6.75521e-05
6.74022e-05
6.71721e-05
6.68533e-05
6.64342e-05
6.59003e-05
6.52349e-05
6.44198e-05
6.34371e-05
6.22716e-05
6.09154e-05
5.93715e-05
5.76603e-05
5.58232e-05
5.3925e-05
5.2049e-05
5.02841e-05
4.87021e-05
4.73296e-05
4.61194e-05
4.49271e-05
4.28352e-05
3.96622e-05
3.65785e-05
3.32255e-05
2.96954e-05
2.60662e-05
2.22159e-05
2.12298e-05
2.10356e-05
1.93038e-05
1.09274e-05
4.96248e-07
1.05061e-06
2.67424e-05
4.96552e-05
5.99788e-05
6.32526e-05
6.21286e-05
5.86102e-05
5.44243e-05
5.05463e-05
4.73982e-05
4.50604e-05
4.34439e-05
4.24257e-05
4.1914e-05
4.18354e-05
4.21094e-05
4.26583e-05
4.34192e-05
4.43431e-05
4.53922e-05
4.65389e-05
4.77645e-05
4.90548e-05
5.03973e-05
5.17784e-05
5.31828e-05
5.45934e-05
5.59926e-05
5.73628e-05
5.86882e-05
5.99548e-05
6.11514e-05
6.22692e-05
6.3302e-05
6.42456e-05
6.50978e-05
6.58577e-05
6.6525e-05
6.71515e-05
6.75933e-05
6.78951e-05
6.83325e-05
6.85844e-05
6.87693e-05
6.88875e-05
6.89424e-05
6.8936e-05
6.88688e-05
6.87391e-05
6.85427e-05
6.82723e-05
6.79168e-05
6.74619e-05
6.68893e-05
6.61776e-05
6.53037e-05
6.42447e-05
6.29813e-05
6.15031e-05
5.98143e-05
5.79409e-05
5.59361e-05
5.3881e-05
5.18769e-05
5.00246e-05
4.83941e-05
4.69881e-05
4.57142e-05
4.43648e-05
4.16249e-05
3.82689e-05
3.5019e-05
3.14497e-05
2.75945e-05
2.31497e-05
2.08381e-05
1.96263e-05
1.88219e-05
1.16053e-05
5.97577e-07
1.04996e-06
2.65708e-05
4.94013e-05
5.9758e-05
6.32527e-05
6.20651e-05
5.84865e-05
5.42134e-05
5.0274e-05
4.71244e-05
4.48375e-05
4.33041e-05
4.23904e-05
4.19977e-05
4.20399e-05
4.24266e-05
4.30776e-05
4.39316e-05
4.49419e-05
4.6074e-05
4.73036e-05
4.86131e-05
4.99884e-05
5.14149e-05
5.28765e-05
5.4355e-05
5.58309e-05
5.7285e-05
5.86991e-05
6.00572e-05
6.13463e-05
6.25557e-05
6.3678e-05
6.47078e-05
6.56419e-05
6.6479e-05
6.7219e-05
6.78631e-05
6.84471e-05
6.88955e-05
6.91549e-05
6.95448e-05
6.97757e-05
6.99323e-05
7.00259e-05
7.00617e-05
7.00436e-05
6.99742e-05
6.98538e-05
6.96804e-05
6.94485e-05
6.91486e-05
6.87673e-05
6.82862e-05
6.76824e-05
6.69294e-05
6.59983e-05
6.48604e-05
6.34925e-05
6.18823e-05
6.00374e-05
5.79936e-05
5.58212e-05
5.36243e-05
5.15271e-05
4.96445e-05
4.80416e-05
4.66936e-05
4.54663e-05
4.3363e-05
3.99931e-05
3.69028e-05
3.29976e-05
2.89431e-05
2.46302e-05
2.07143e-05
1.91166e-05
1.84134e-05
1.22313e-05
7.15015e-07
1.04433e-06
2.63027e-05
4.89738e-05
5.93432e-05
6.30382e-05
6.18977e-05
5.8307e-05
5.39863e-05
5.00125e-05
4.68754e-05
4.46458e-05
4.31988e-05
4.23909e-05
4.21135e-05
4.22683e-05
4.27581e-05
4.35025e-05
4.44424e-05
4.55341e-05
4.67458e-05
4.80555e-05
4.9446e-05
5.09019e-05
5.24064e-05
5.39404e-05
5.54833e-05
5.70139e-05
5.8512e-05
5.99594e-05
6.13409e-05
6.26439e-05
6.38592e-05
6.49802e-05
6.60025e-05
6.69238e-05
6.77435e-05
6.84626e-05
6.90838e-05
6.96127e-05
7.00522e-05
7.03076e-05
7.06179e-05
7.08276e-05
7.09501e-05
7.10118e-05
7.10198e-05
7.09801e-05
7.08974e-05
7.07745e-05
7.06116e-05
7.04057e-05
7.01495e-05
6.98312e-05
6.94337e-05
6.89341e-05
6.83042e-05
6.75111e-05
6.65191e-05
6.52938e-05
6.38078e-05
6.2049e-05
6.00314e-05
5.78055e-05
5.54645e-05
5.3139e-05
5.09734e-05
4.90822e-05
4.74973e-05
4.61234e-05
4.47209e-05
4.17897e-05
3.8348e-05
3.4904e-05
3.05811e-05
2.60432e-05
2.0925e-05
1.86267e-05
1.73909e-05
1.28711e-05
8.3561e-07
1.0319e-06
2.5979e-05
4.82904e-05
5.88077e-05
6.26925e-05
6.16422e-05
5.8084e-05
5.37523e-05
4.97677e-05
4.66538e-05
4.44851e-05
4.31258e-05
4.2422e-05
4.2254e-05
4.25126e-05
4.30965e-05
4.39266e-05
4.49462e-05
4.61144e-05
4.7402e-05
4.8788e-05
5.0255e-05
5.17855e-05
5.33602e-05
5.49576e-05
5.6555e-05
5.81303e-05
5.9663e-05
6.11354e-05
6.25329e-05
6.38443e-05
6.50613e-05
6.61781e-05
6.71912e-05
6.80988e-05
6.89004e-05
6.9597e-05
7.01905e-05
7.06833e-05
7.11028e-05
7.13563e-05
7.15829e-05
7.17665e-05
7.18509e-05
7.18745e-05
7.18473e-05
7.1777e-05
7.16706e-05
7.15333e-05
7.1368e-05
7.11741e-05
7.09474e-05
7.06784e-05
7.03519e-05
6.99464e-05
6.94336e-05
6.87787e-05
6.79414e-05
6.68788e-05
6.55503e-05
6.39254e-05
6.19951e-05
5.97856e-05
5.73703e-05
5.48749e-05
5.24629e-05
5.02984e-05
4.84872e-05
4.70187e-05
4.5731e-05
4.32988e-05
3.97805e-05
3.67986e-05
3.19764e-05
2.7327e-05
2.22189e-05
1.85132e-05
1.62758e-05
1.33531e-05
9.3168e-07
1.01259e-06
2.55597e-05
4.75365e-05
5.81819e-05
6.22277e-05
6.13115e-05
5.78275e-05
5.35187e-05
4.95435e-05
4.6461e-05
4.43548e-05
4.30821e-05
4.24786e-05
4.24126e-05
4.2766e-05
4.34357e-05
4.43443e-05
4.54378e-05
4.66776e-05
4.80366e-05
4.94941e-05
5.10315e-05
5.26294e-05
5.42658e-05
5.59173e-05
5.756e-05
5.91712e-05
6.07307e-05
6.22217e-05
6.36306e-05
6.49472e-05
6.61642e-05
6.72765e-05
6.82811e-05
6.91763e-05
6.99617e-05
7.06381e-05
7.12069e-05
7.16706e-05
7.20647e-05
7.23139e-05
7.24652e-05
7.26169e-05
7.26604e-05
7.26415e-05
7.25728e-05
7.24642e-05
7.23248e-05
7.21621e-05
7.19817e-05
7.17862e-05
7.15739e-05
7.13385e-05
7.10676e-05
7.07419e-05
7.03344e-05
6.98102e-05
6.91266e-05
6.8235e-05
6.70845e-05
6.56284e-05
6.38356e-05
6.17047e-05
5.92818e-05
5.66729e-05
5.40425e-05
5.15843e-05
4.94615e-05
4.77327e-05
4.62996e-05
4.4562e-05
4.1116e-05
3.82289e-05
3.39289e-05
2.88044e-05
2.35492e-05
1.89393e-05
1.56515e-05
1.35423e-05
9.75389e-07
9.87444e-07
2.50364e-05
4.66701e-05
5.74606e-05
6.16666e-05
6.09179e-05
5.75459e-05
5.32907e-05
4.93428e-05
4.62976e-05
4.42536e-05
4.30645e-05
4.25556e-05
4.25835e-05
4.30231e-05
4.37706e-05
4.47511e-05
4.59125e-05
4.72187e-05
4.86437e-05
5.01666e-05
5.17674e-05
5.34244e-05
5.51138e-05
5.68106e-05
5.84902e-05
6.01299e-05
6.17104e-05
6.32156e-05
6.46332e-05
6.5954e-05
6.71713e-05
6.82808e-05
6.92795e-05
7.01658e-05
7.09391e-05
7.16001e-05
7.21505e-05
7.25934e-05
7.29544e-05
7.31743e-05
7.32899e-05
7.33994e-05
7.33998e-05
7.33353e-05
7.32206e-05
7.30676e-05
7.28872e-05
7.26895e-05
7.24828e-05
7.22724e-05
7.20601e-05
7.18426e-05
7.16107e-05
7.13481e-05
7.10304e-05
7.06239e-05
7.00856e-05
6.93637e-05
6.84e-05
6.71351e-05
6.5518e-05
6.35207e-05
6.11578e-05
5.85074e-05
5.57217e-05
5.30118e-05
5.05953e-05
4.86097e-05
4.70285e-05
4.56236e-05
4.26403e-05
3.94816e-05
3.58673e-05
3.00279e-05
2.46018e-05
1.89131e-05
1.57756e-05
1.35291e-05
9.82746e-07
9.57904e-07
2.44789e-05
4.57169e-05
5.66504e-05
6.10253e-05
6.04724e-05
5.72458e-05
5.30721e-05
4.91674e-05
4.61637e-05
4.41799e-05
4.30697e-05
4.26484e-05
4.27617e-05
4.3279e-05
4.4097e-05
4.51424e-05
4.63657e-05
4.77324e-05
4.92171e-05
5.07984e-05
5.24548e-05
5.41626e-05
5.58965e-05
5.76304e-05
5.93396e-05
6.1002e-05
6.25991e-05
6.4116e-05
6.55413e-05
6.68667e-05
6.80862e-05
6.91957e-05
7.01923e-05
7.10742e-05
7.18405e-05
7.24915e-05
7.30287e-05
7.34553e-05
7.37773e-05
7.39694e-05
7.40598e-05
7.41268e-05
7.40838e-05
7.39722e-05
7.38086e-05
7.36066e-05
7.33792e-05
7.31388e-05
7.28962e-05
7.26596e-05
7.2434e-05
7.22195e-05
7.20104e-05
7.1794e-05
7.15487e-05
7.12436e-05
7.08369e-05
7.02759e-05
6.94982e-05
6.8435e-05
6.70191e-05
6.51975e-05
6.29526e-05
6.0327e-05