/*--------------------------------*- C++ -*----------------------------------*\
  =========                 |
  \\      /  F ield         | OpenFOAM: The Open Source CFD Toolbox
   \\    /   O peration     | Website:  https://openfoam.org
    \\  /    A nd           | Version:  13
     \\/     M anipulation  |
\*---------------------------------------------------------------------------*/
FoamFile
{
    format      ascii;
    class       surfaceScalarField;
    location    "7.4";
    object      phi;
}
// * * * * * * * * * * * * * * * * * * * * * * * * * * * * * * * * * * * * * //

dimensions      [0 3 -1 0 0 0 0];

internalField   nonuniform List<scalar> 
12640
(
1.64072e-09
-1.64089e-09
1.5239e-08
-1.35982e-08
3.91878e-08
-2.39488e-08
6.68402e-08
-2.76524e-08
9.18107e-08
-2.49705e-08
1.10498e-07
-1.86877e-08
1.21546e-07
-1.10479e-08
1.25855e-07
-4.30902e-09
1.25729e-07
1.26774e-10
1.23506e-07
2.22256e-09
1.21172e-07
2.33357e-09
1.20007e-07
1.16552e-09
1.20414e-07
-4.06737e-10
1.22109e-07
-1.69549e-09
1.24248e-07
-2.13873e-09
1.25895e-07
-1.64754e-09
1.26172e-07
-2.76748e-10
1.24558e-07
1.61395e-09
1.20204e-07
4.35428e-09
1.1222e-07
7.98346e-09
1.00051e-07
1.21698e-08
8.31061e-08
1.69446e-08
6.09485e-08
2.21575e-08
3.33928e-08
2.75558e-08
4.03746e-10
3.2989e-08
-3.82066e-08
3.86104e-08
-8.38282e-08
4.56216e-08
-1.38866e-07
5.50377e-08
-2.06222e-07
6.73565e-08
-2.88114e-07
8.18918e-08
-3.83518e-07
9.54033e-08
-4.88836e-07
1.05318e-07
-6.00579e-07
1.11743e-07
-7.15317e-07
1.14737e-07
-8.30066e-07
1.14749e-07
-9.4222e-07
1.12155e-07
-1.04965e-06
1.07433e-07
-1.15064e-06
1.00984e-07
-1.24381e-06
9.31741e-08
-1.32812e-06
8.43079e-08
-1.40269e-06
7.45746e-08
-1.46684e-06
6.41506e-08
-1.51996e-06
5.31109e-08
-1.56146e-06
4.15e-08
-1.59073e-06
2.92796e-08
-1.60754e-06
1.681e-08
-1.61211e-06
4.56923e-09
-1.60244e-06
-9.67007e-09
-1.57936e-06
-2.3079e-08
-1.54181e-06
-3.75581e-08
-1.48985e-06
-5.19584e-08
-1.42332e-06
-6.65317e-08
-1.34251e-06
-8.08053e-08
-1.24788e-06
-9.46281e-08
-1.14009e-06
-1.07797e-07
-1.02001e-06
-1.20074e-07
-8.89058e-07
-1.30954e-07
-7.49024e-07
-1.40034e-07
-6.02263e-07
-1.46761e-07
-4.51638e-07
-1.50625e-07
-3.00626e-07
-1.51012e-07
-1.53055e-07
-1.47571e-07
-1.29313e-08
-1.40124e-07
1.16244e-07
-1.29175e-07
2.29871e-07
-1.13628e-07
3.2409e-07
-9.42189e-08
3.9555e-07
-7.14597e-08
4.4181e-07
-4.62597e-08
4.61537e-07
-1.97276e-08
4.53623e-07
7.91398e-09
4.21055e-07
3.25688e-08
3.66348e-07
5.47065e-08
2.95743e-07
7.06048e-08
2.18569e-07
7.7174e-08
1.46009e-07
7.25607e-08
8.53418e-08
6.06668e-08
4.03651e-08
4.49767e-08
1.16905e-08
2.86746e-08
-6.29211e-10
1.23197e-08
-6.29212e-10
1.0537e-08
-1.21779e-08
4.33325e-08
-4.63937e-08
8.87672e-08
-6.93836e-08
1.3515e-07
-7.40357e-08
1.7487e-07
-6.46899e-08
2.04133e-07
-4.79509e-08
2.22333e-07
-2.92477e-08
2.30472e-07
-1.24485e-08
2.30353e-07
2.45937e-10
2.24326e-07
8.24933e-09
2.14656e-07
1.20034e-08
2.02901e-07
1.29206e-08
1.89539e-07
1.29555e-08
1.74e-07
1.38435e-08
1.55232e-07
1.66298e-08
1.32092e-07
2.14918e-08
1.03655e-07
2.81601e-08
6.86686e-08
3.66008e-08
2.58964e-08
4.71264e-08
-2.61819e-08
6.00618e-08
-8.96005e-08
7.55884e-08
-1.66131e-07
9.34749e-08
-2.56969e-07
1.12995e-07
-3.62959e-07
1.33546e-07
-4.84658e-07
1.54688e-07
-6.21796e-07
1.75749e-07
-7.71866e-07
1.95691e-07
-9.30646e-07
2.13818e-07
-1.09271e-06
2.29422e-07
-1.25223e-06
2.41407e-07
-1.40574e-06
2.48916e-07
-1.55224e-06
2.51824e-07
-1.69032e-06
2.49824e-07
-1.81874e-06
2.43149e-07
-1.93649e-06
2.32498e-07
-2.04292e-06
2.18593e-07
-2.13757e-06
2.02084e-07
-2.22015e-06
1.83562e-07
-2.29044e-06
1.6346e-07
-2.3483e-06
1.42171e-07
-2.39363e-06
1.19898e-07
-2.4263e-06
9.68268e-08
-2.44623e-06
7.30437e-08
-2.45337e-06
4.86338e-08
-2.44774e-06
2.36512e-08
-2.42847e-06
-2.45825e-09
-2.39595e-06
-2.7949e-08
-2.35048e-06
-5.51388e-08
-2.29096e-06
-8.26084e-08
-2.21789e-06
-1.10622e-07
-2.13096e-06
-1.38893e-07
-2.03021e-06
-1.67275e-07
-1.91559e-06
-1.95425e-07
-1.78729e-06
-2.22932e-07
-1.64586e-06
-2.49229e-07
-1.49241e-06
-2.73521e-07
-1.32823e-06
-2.95132e-07
-1.15514e-06
-3.13122e-07
-9.75482e-07
-3.26423e-07
-7.91924e-07
-3.34183e-07
-6.07492e-07
-3.35444e-07
-4.25611e-07
-3.29451e-07
-2.49896e-07
-3.15839e-07
-8.44617e-08
-2.94609e-07
6.75541e-08
-2.65644e-07
2.02767e-07
-2.29432e-07
3.17571e-07
-1.86263e-07
4.09476e-07
-1.38165e-07
4.76011e-07
-8.62631e-08
5.16625e-07
-3.26994e-08
5.29674e-07
1.95195e-08
5.15679e-07
6.87011e-08
4.7661e-07
1.09674e-07
4.13867e-07
1.39917e-07
3.30713e-07
1.55715e-07
2.375e-07
1.53879e-07
1.46705e-07
1.35772e-07
7.08058e-08
1.04573e-07
1.99584e-08
6.3167e-08
1.93292e-08
1.99682e-08
-3.21461e-08
6.62941e-08
-9.27195e-08
1.18348e-07
-1.21438e-07
1.64225e-07
-1.19912e-07
1.99465e-07
-9.99303e-08
2.23108e-07
-7.15934e-08
2.35838e-07
-4.19781e-08
2.38638e-07
-1.52481e-08
2.32678e-07
6.20626e-09
2.19439e-07
2.14875e-08
2.00315e-07
3.11283e-08
1.75882e-07
3.73536e-08
1.45945e-07
4.28924e-08
1.09684e-07
5.0104e-08
6.59317e-08
6.03822e-08
1.3263e-08
7.41605e-08
-5.00528e-08
9.14759e-08
-1.25826e-07
1.12374e-07
-2.15594e-07
1.36895e-07
-3.20581e-07
1.65049e-07
-4.41262e-07
1.96269e-07
-5.77273e-07
2.29486e-07
-7.2755e-07
2.63273e-07
-8.89627e-07
2.95623e-07
-1.06006e-06
3.25121e-07
-1.23458e-06
3.50272e-07
-1.40891e-06
3.70013e-07
-1.57903e-06
3.83945e-07
-1.74138e-06
3.91767e-07
-1.89338e-06
3.93406e-07
-2.03355e-06
3.89087e-07
-2.16095e-06
3.79222e-07
-2.27559e-06
3.6447e-07
-2.37793e-06
3.45488e-07
-2.46827e-06
3.22834e-07
-2.54697e-06
2.97295e-07
-2.61434e-06
2.69448e-07
-2.67062e-06
2.39844e-07
-2.71598e-06
2.08821e-07
-2.75054e-06
1.76733e-07
-2.77437e-06
1.43726e-07
-2.78745e-06
1.09904e-07
-2.78972e-06
7.53194e-08
-2.78106e-06
3.99696e-08
-2.76117e-06
3.76478e-09
-2.73036e-06
-3.32648e-08
-2.68728e-06
-7.10306e-08
-2.63253e-06
-1.09894e-07
-2.56554e-06
-1.49599e-07
-2.48607e-06
-1.90087e-07
-2.39389e-06
-2.31071e-07
-2.28887e-06
-2.723e-07
-2.17095e-06
-3.13341e-07
-2.04029e-06
-3.53595e-07
-1.8973e-06
-3.92219e-07
-1.74267e-06
-4.28149e-07
-1.57746e-06
-4.60343e-07
-1.40308e-06
-4.87507e-07
-1.22141e-06
-5.08091e-07
-1.03496e-06
-5.20632e-07
-8.46531e-07
-5.23872e-07
-6.59428e-07
-5.16554e-07
-4.77269e-07
-4.97998e-07
-3.03771e-07
-4.68108e-07
-1.4217e-07
-4.27244e-07
4.32179e-09
-3.75924e-07
1.33483e-07
-3.15425e-07
2.42341e-07
-2.47022e-07
3.2945e-07
-1.73373e-07
3.93992e-07
-9.72407e-08
4.35074e-07
-2.15625e-08
4.52372e-07
5.14027e-08
4.44666e-07
1.17379e-07
4.13469e-07
1.71114e-07
3.60064e-07
2.0912e-07
2.87531e-07
2.26413e-07
2.02525e-07
2.20778e-07
1.15652e-07
1.91446e-07
4.06361e-08
1.38183e-07
5.99653e-08
2.77709e-08
-5.9917e-08
8.054e-08
-1.45489e-07
1.30241e-07
-1.71139e-07
1.68288e-07
-1.57959e-07
1.93421e-07
-1.25063e-07
2.06857e-07
-8.50291e-08
2.09806e-07
-4.49269e-08
2.03396e-07
-8.83887e-09
1.88417e-07
2.11855e-08
1.65338e-07
4.45671e-08
1.33937e-07
6.25293e-08
9.37055e-08
7.75848e-08
4.38675e-08
9.27304e-08
-1.6521e-08
1.10493e-07
-8.85639e-08
1.32425e-07
-1.73621e-07
1.59217e-07
-2.73151e-07
1.91006e-07
-3.88425e-07
2.27648e-07
-5.19996e-07
2.68465e-07
-6.67367e-07
3.1242e-07
-8.28723e-07
3.57625e-07
-1.00089e-06
4.01652e-07
-1.18001e-06
4.42395e-07
-1.36178e-06
4.77387e-07
-1.54204e-06
5.05388e-07
-1.71691e-06
5.25139e-07
-1.88289e-06
5.35989e-07
-2.0373e-06
5.38358e-07
-2.17882e-06
5.33288e-07
-2.30707e-06
5.21659e-07
-2.42229e-06
5.04307e-07
-2.52509e-06
4.82016e-07
-2.61609e-06
4.55477e-07
-2.69604e-06
4.25433e-07
-2.76563e-06
3.92425e-07
-2.82541e-06
3.57075e-07
-2.8758e-06
3.19835e-07
-2.91709e-06
2.81138e-07
-2.94949e-06
2.41223e-07
-2.97306e-06
2.00306e-07
-2.98781e-06
1.58474e-07
-2.99367e-06
1.15759e-07
-2.99046e-06
7.21113e-08
-2.97795e-06
2.74597e-08
-2.95591e-06
-1.8274e-08
-2.92404e-06
-6.51387e-08
-2.88182e-06
-1.13243e-07
-2.82902e-06
-1.62696e-07
-2.76517e-06
-2.1345e-07
-2.68988e-06
-2.6538e-07
-2.60279e-06
-3.18157e-07
-2.50361e-06
-3.71482e-07
-2.3921e-06
-4.24849e-07
-2.26814e-06
-4.77561e-07
-2.13175e-06
-5.28605e-07
-1.9833e-06
-5.76599e-07
-1.82357e-06
-6.20073e-07
-1.65359e-06
-6.57486e-07
-1.47485e-06
-6.86836e-07
-1.28942e-06
-7.06062e-07
-1.09979e-06
-7.13501e-07
-9.0902e-07
-7.07322e-07
-7.20733e-07
-6.86285e-07
-5.39098e-07
-6.49743e-07
-3.67874e-07
-5.98468e-07
-2.10168e-07
-5.3363e-07
-6.90674e-08
-4.56526e-07
5.33496e-08
-3.69439e-07
1.55356e-07
-2.75379e-07
2.3589e-07
-1.77774e-07
2.94567e-07
-8.02402e-08
3.32108e-07
1.38623e-08
3.4851e-07
1.00977e-07
3.43101e-07
1.76523e-07
3.16032e-07
2.3619e-07
2.67968e-07
2.74476e-07
2.02739e-07
2.86007e-07
1.26187e-07
2.67998e-07
4.88404e-08
2.1553e-07
1.08806e-07
3.37656e-08
-9.36826e-08
8.58995e-08
-1.97623e-07
1.26922e-07
-2.12162e-07
1.53504e-07
-1.84541e-07
1.66435e-07
-1.37994e-07
1.67952e-07
-8.65465e-08
1.59432e-07
-3.64069e-08
1.4161e-07
8.9833e-09
1.14646e-07
4.81493e-08
7.80861e-08
8.11272e-08
3.09636e-08
1.09652e-07
-2.79059e-08
1.36454e-07
-9.96812e-08
1.64506e-07
-1.85435e-07
1.96247e-07
-2.86179e-07
2.33169e-07
-4.02758e-07
2.75797e-07
-5.35599e-07
3.23847e-07
-6.84445e-07
3.76494e-07
-8.47813e-07
4.31833e-07
-1.02261e-06
4.87217e-07
-1.20502e-06
5.40034e-07
-1.39048e-06
5.87112e-07
-1.57468e-06
6.26595e-07
-1.75339e-06
6.56103e-07
-1.92229e-06
6.74287e-07
-2.07882e-06
6.81669e-07
-2.22212e-06
6.79286e-07
-2.35222e-06
6.68459e-07
-2.46959e-06
6.50656e-07
-2.57495e-06
6.27016e-07
-2.66916e-06
5.9852e-07
-2.75305e-06
5.65909e-07
-2.82737e-06
5.29792e-07
-2.89274e-06
4.90808e-07
-2.94978e-06
4.49462e-07
-2.9989e-06
4.06196e-07
-3.04043e-06
3.61368e-07
-3.0746e-06
3.15309e-07
-3.10154e-06
2.68155e-07
-3.12124e-06
2.2001e-07
-3.13363e-06
1.7086e-07
-3.13863e-06
1.20758e-07
-3.13604e-06
6.95273e-08
-3.12559e-06
1.70091e-08
-3.10702e-06
-3.68451e-08
-3.07989e-06
-9.22659e-08
-3.04378e-06
-1.49352e-07
-2.99832e-06
-2.08162e-07
-2.94297e-06
-2.68796e-07
-2.87712e-06
-3.31234e-07
-2.80024e-06
-3.95033e-07
-2.71186e-06
-4.59865e-07
-2.61152e-06
-5.25192e-07
-2.49879e-06
-5.90288e-07
-2.37328e-06
-6.54111e-07
-2.23495e-06
-7.14928e-07
-2.08429e-06
-7.70736e-07
-1.92184e-06
-8.19936e-07
-1.7486e-06
-8.60074e-07
-1.56633e-06
-8.88336e-07
-1.3771e-06
-9.0273e-07
-1.18374e-06
-9.00683e-07
-9.89365e-07
-8.80661e-07
-7.98008e-07
-8.411e-07
-6.1438e-07
-7.82095e-07
-4.42799e-07
-7.05211e-07
-2.864e-07
-6.12925e-07
-1.47928e-07
-5.07911e-07
-2.95614e-08
-3.93746e-07
6.74148e-08
-2.7475e-07
1.42572e-07
-1.55398e-07
1.96411e-07
-3.99768e-08
2.29877e-07
6.75116e-08
2.43408e-07
1.62992e-07
2.37414e-07
2.42184e-07
2.12209e-07
2.99681e-07
1.68763e-07
3.29454e-07
1.10165e-07
3.26596e-07
4.41491e-08
2.81546e-07
1.52955e-07
3.72488e-08
-1.30931e-07
8.22174e-08
-2.42591e-07
1.10613e-07
-2.40557e-07
1.23287e-07
-1.97216e-07
1.23084e-07
-1.37791e-07
1.11994e-07
-7.54562e-08
9.09967e-08
-1.54095e-08
6.02214e-08
3.97586e-08
1.91983e-08
8.91724e-08
-3.32085e-08
1.33534e-07
-9.83828e-08
1.74826e-07
-1.77716e-07
2.15788e-07
-2.72384e-07
2.59173e-07
-3.83225e-07
3.07088e-07
-5.10675e-07
3.60619e-07
-6.54497e-07
4.19618e-07
-8.13597e-07
4.82948e-07
-9.85633e-07
5.4853e-07
-1.16714e-06
6.1334e-07
-1.35352e-06
6.73599e-07
-1.54027e-06
7.26786e-07
-1.72248e-06
7.69315e-07
-1.89496e-06
7.99078e-07
-2.05471e-06
8.1585e-07
-2.2009e-06
8.20475e-07
-2.33377e-06
8.14542e-07
-2.45412e-06
7.99638e-07
-2.56298e-06
7.7732e-07
-2.66123e-06
7.48908e-07
-2.74971e-06
7.1549e-07
-2.82915e-06
6.77962e-07
-2.9002e-06
6.3696e-07
-2.9635e-06
5.9309e-07
-3.01956e-06
5.4687e-07
-3.06881e-06
4.98709e-07
-3.11153e-06
4.48921e-07
-3.14792e-06
3.97757e-07
-3.17814e-06
3.45528e-07
-3.20231e-06
2.92322e-07
-3.22046e-06
2.38163e-07
-3.23244e-06
1.82844e-07
-3.23834e-06
1.26654e-07
-3.23806e-06
6.92458e-08
-3.23133e-06
1.02816e-08
-3.21821e-06
-4.99685e-08
-3.19816e-06
-1.1231e-07
-3.17071e-06
-1.76802e-07
-3.13533e-06
-2.43542e-07
-3.0915e-06
-3.12633e-07
-3.0384e-06
-3.84335e-07
-2.97526e-06
-4.58171e-07
-2.90123e-06
-5.33898e-07
-2.81549e-06
-6.10928e-07
-2.71749e-06
-6.88285e-07
-2.60675e-06
-7.64853e-07
-2.4826e-06
-8.39076e-07
-2.34483e-06
-9.08506e-07
-2.1935e-06
-9.71269e-07
-2.02894e-06
-1.02463e-06
-1.85264e-06
-1.06463e-06
-1.66609e-06
-1.08928e-06
-1.47188e-06
-1.09489e-06
-1.27292e-06
-1.07963e-06
-1.07297e-06
-1.04105e-06
-8.76408e-07
-9.78653e-07
-6.88719e-07
-8.92901e-07
-5.14459e-07
-7.87184e-07
-3.5703e-07
-6.65339e-07
-2.19375e-07
-5.31401e-07
-1.03568e-07
-3.90558e-07
-1.04999e-08
-2.48466e-07
6.01344e-08
-1.10611e-07
1.09552e-07
1.80939e-08
1.3929e-07
1.33254e-07
1.50461e-07
2.31012e-07
1.43712e-07
3.0643e-07
1.19523e-07
3.53643e-07
8.01661e-08
3.65953e-07
3.18999e-08
3.29812e-07
1.84855e-07
3.72122e-08
-1.68144e-07
6.95927e-08
-2.74972e-07
8.32061e-08
-2.5417e-07
8.11949e-08
-1.95205e-07
6.7349e-08
-1.23945e-07
4.30716e-08
-5.11789e-08
8.67213e-09
1.899e-08
-3.63146e-08
8.47453e-08
-9.29318e-08
1.4579e-07
-1.62578e-07
2.0318e-07
-2.46734e-07
2.58982e-07
-3.46668e-07
3.15723e-07
-4.632e-07
3.75705e-07
-5.96521e-07
4.40409e-07
-7.46053e-07
5.10151e-07
-9.10253e-07
5.83818e-07
-1.08625e-06
6.58941e-07
-1.2699e-06
7.32187e-07
-1.45654e-06
7.99975e-07
-1.6411e-06
8.58164e-07
-1.8176e-06
9.03286e-07
-1.98203e-06
9.33742e-07
-2.13281e-06
9.49854e-07
-2.27003e-06
9.53075e-07
-2.39459e-06
9.45031e-07
-2.50751e-06
9.27468e-07
-2.60987e-06
9.02001e-07
-2.70266e-06
8.70102e-07
-2.78665e-06
8.329e-07
-2.86252e-06
7.91357e-07
-2.93081e-06
7.46254e-07
-2.99204e-06
6.98194e-07
-3.04668e-06
6.47729e-07
-3.09509e-06
5.95276e-07
-3.13761e-06
5.41226e-07
-3.17446e-06
4.8578e-07
-3.20568e-06
4.28976e-07
-3.2315e-06
3.71341e-07
-3.25203e-06
3.12859e-07
-3.26742e-06
2.53553e-07
-3.27789e-06
1.93308e-07
-3.28315e-06
1.3192e-07
-3.2831e-06
6.91911e-08
-3.27747e-06
4.65099e-09
-3.26659e-06
-6.08456e-08
-3.25044e-06
-1.28464e-07
-3.22894e-06
-1.98298e-07
-3.2019e-06
-2.70581e-07
-3.16902e-06
-3.45512e-07
-3.12997e-06
-4.23387e-07
-3.08373e-06
-5.04412e-07
-3.02921e-06
-5.88416e-07
-2.96511e-06
-6.75029e-07
-2.88969e-06
-7.63704e-07
-2.80097e-06
-8.53569e-07
-2.69734e-06
-9.42709e-07
-2.5781e-06
-1.02775e-06
-2.44343e-06
-1.10594e-06
-2.2937e-06
-1.17436e-06
-2.12888e-06
-1.22945e-06
-1.94986e-06
-1.26831e-06
-1.75907e-06
-1.28568e-06
-1.55885e-06
-1.27985e-06
-1.35293e-06
-1.24697e-06
-1.14539e-06
-1.18619e-06
-9.41588e-07
-1.0967e-06
-7.48058e-07
-9.80715e-07
-5.6972e-07
-8.43677e-07
-4.10243e-07
-6.90878e-07
-2.7277e-07
-5.2803e-07
-1.59217e-07
-3.6202e-07
-6.99654e-08
-1.99862e-07
-3.9027e-09
-4.79688e-08
4.08932e-08
8.84583e-08
6.68217e-08
2.05083e-07
7.54917e-08
2.9776e-07
6.78359e-08
3.61299e-07
4.61556e-08
3.87633e-07
1.68209e-08
3.59147e-07
2.01676e-07
3.24764e-08
-2.0062e-07
4.96739e-08
-2.92169e-07
4.734e-08
-2.51836e-07
3.03916e-08
-1.78256e-07
2.63227e-09
-9.61856e-08
-3.53097e-08
-1.32369e-08
-8.38377e-08
6.7518e-08
-1.43896e-07
1.44803e-07
-2.16792e-07
2.18686e-07
-3.03945e-07
2.90333e-07
-4.0662e-07
3.61658e-07
-5.25659e-07
4.34761e-07
-6.61209e-07
5.11254e-07
-8.12588e-07
5.91789e-07
-9.78051e-07
6.75614e-07
-1.15438e-06
7.60143e-07
-1.33714e-06
8.41704e-07
-1.52139e-06
9.16434e-07
-1.70105e-06
9.7964e-07
-1.87087e-06
1.02799e-06
-2.02772e-06
1.06013e-06
-2.17098e-06
1.077e-06
-2.30112e-06
1.07999e-06
-2.41909e-06
1.07104e-06
-2.52598e-06
1.05193e-06
-2.62293e-06
1.02441e-06
-2.71086e-06
9.89931e-07
-2.7905e-06
9.49744e-07
-2.86244e-06
9.04836e-07
-2.92715e-06
8.56072e-07
-2.98506e-06
8.0416e-07
-3.03655e-06
7.49683e-07
-3.08193e-06
6.93114e-07
-3.1214e-06
6.34746e-07
-3.15527e-06
5.75096e-07
-3.18416e-06
5.14674e-07
-3.20874e-06
4.53556e-07
-3.22906e-06
3.9166e-07
-3.24513e-06
3.28923e-07
-3.25678e-06
2.6521e-07
-3.26422e-06
2.00745e-07
-3.26741e-06
1.35108e-07
-3.26658e-06
6.83607e-08
-3.26122e-06
-7.1017e-10
-3.25239e-06
-6.96701e-08
-3.23951e-06
-1.41344e-07
-3.22252e-06
-2.15291e-07
-3.20126e-06
-2.91837e-07
-3.17545e-06
-3.71322e-07
-3.14496e-06
-4.53877e-07
-3.10943e-06
-5.39949e-07
-3.06843e-06
-6.29416e-07
-3.0213e-06
-7.22157e-07
-2.96724e-06
-8.17759e-07
-2.90528e-06
-9.15537e-07
-2.83312e-06
-1.01487e-06
-2.74654e-06
-1.11433e-06
-2.64154e-06
-1.21094e-06
-2.51632e-06
-1.29958e-06
-2.37128e-06
-1.37449e-06
-2.20823e-06
-1.43136e-06
-2.02842e-06
-1.46549e-06
-1.83349e-06
-1.47478e-06
-1.6271e-06
-1.45336e-06
-1.41312e-06
-1.40017e-06
-1.19634e-06
-1.31349e-06
-9.8386e-07
-1.19319e-06
-7.83331e-07
-1.04421e-06
-6.00227e-07
-8.73982e-07
-4.38551e-07
-6.89707e-07
-3.01604e-07
-4.98967e-07
-1.91032e-07
-3.10434e-07
-1.06578e-07
-1.32423e-07
-4.61189e-08
2.79989e-08
-6.39494e-09
1.6536e-07
1.53927e-08
2.75973e-07
2.16373e-08
3.55054e-07
1.54548e-08
3.93815e-07
3.27973e-09
3.71322e-07
2.04955e-07
2.34174e-08
-2.24037e-07
2.40095e-08
-2.92761e-07
5.08012e-09
-2.32907e-07
-2.62644e-08
-1.46912e-07
-6.79571e-08
-5.4493e-08
-1.19915e-07
3.87211e-08
-1.82957e-07
1.3056e-07
-2.5831e-07
2.20157e-07
-3.473e-07
3.07675e-07
-4.51117e-07
3.9415e-07
-5.70583e-07
4.81123e-07
-7.05861e-07
5.7004e-07
-8.56341e-07
6.61735e-07
-1.02034e-06
7.55785e-07
-1.19445e-06
8.49726e-07
-1.37412e-06
9.39813e-07
-1.55411e-06
1.02169e-06
-1.7282e-06
1.09053e-06
-1.89164e-06
1.14308e-06
-2.04213e-06
1.17848e-06
-2.17922e-06
1.19722e-06
-2.30345e-06
1.20124e-06
-2.41584e-06
1.19237e-06
-2.5175e-06
1.1727e-06
-2.60948e-06
1.14391e-06
-2.69264e-06
1.10758e-06
-2.76766e-06
1.06495e-06
-2.83505e-06
1.01713e-06
-2.89526e-06
9.65043e-07
-2.94868e-06
9.09491e-07
-2.99567e-06
8.51153e-07
-3.03662e-06
7.90635e-07
-3.07205e-06
7.28544e-07
-3.10264e-06
6.65328e-07
-3.12871e-06
6.01168e-07
-3.15014e-06
5.36104e-07
-3.16704e-06
4.70461e-07
-3.17949e-06
4.04104e-07
-3.18777e-06
3.37211e-07
-3.19244e-06
2.69878e-07
-3.19381e-06
2.02117e-07
-3.19229e-06
1.3358e-07
-3.18802e-06
6.40947e-08
-3.18188e-06
-6.8508e-09
-3.1728e-06
-7.87493e-08
-3.16137e-06
-1.52773e-07
-3.14756e-06
-2.29099e-07
-3.13133e-06
-3.08071e-07
-3.11261e-06
-3.90038e-07
-3.09116e-06
-4.75327e-07
-3.06677e-06
-5.64344e-07
-3.0389e-06
-6.57288e-07
-3.00681e-06
-7.54247e-07
-2.96952e-06
-8.55041e-07
-2.92602e-06
-9.59046e-07
-2.87547e-06
-1.06541e-06
-2.81645e-06
-1.17335e-06
-2.74708e-06
-1.28031e-06
-2.66237e-06
-1.38429e-06
-2.55492e-06
-1.48194e-06
-2.42131e-06
-1.56497e-06
-2.26249e-06
-1.6243e-06
-2.08305e-06
-1.65422e-06
-1.88463e-06
-1.65178e-06
-1.67157e-06
-1.61323e-06
-1.44809e-06
-1.53697e-06
-1.22068e-06
-1.42061e-06
-9.98258e-07
-1.26662e-06
-7.90019e-07
-1.08222e-06
-6.0211e-07
-8.77615e-07
-4.38901e-07
-6.62175e-07
-3.03713e-07
-4.45623e-07
-1.97693e-07
-2.38442e-07
-1.19589e-07
-5.01057e-08
-6.59983e-08
1.11769e-07
-3.22806e-08
2.42255e-07
-1.44096e-08
3.37183e-07
-7.31849e-09
3.86724e-07
-5.35654e-09
3.6936e-07
1.99599e-07
1.12535e-08
-2.35291e-07
-5.75046e-09
-2.75757e-07
-4.02278e-08
-1.9843e-07
-8.60212e-08
-1.01118e-07
-1.41712e-07
1.19734e-09
-2.07669e-07
1.04679e-07
-2.85096e-07
2.07986e-07
-3.75255e-07
3.10317e-07
-4.79277e-07
4.11697e-07
-5.97938e-07
5.12811e-07
-7.31432e-07
6.14617e-07
-8.79274e-07
7.17882e-07
-1.03999e-06
8.22446e-07
-1.21029e-06
9.26089e-07
-1.38551e-06
1.02495e-06
-1.56026e-06
1.11456e-06
-1.72881e-06
1.19024e-06
-1.88672e-06
1.24844e-06
-2.0319e-06
1.28825e-06
-2.16376e-06
1.31035e-06
-2.28295e-06
1.31641e-06
-2.39043e-06
1.30871e-06
-2.48731e-06
1.28925e-06
-2.57451e-06
1.25991e-06
-2.65284e-06
1.22223e-06
-2.72288e-06
1.17762e-06
-2.78513e-06
1.1272e-06
-2.84002e-06
1.07203e-06
-2.88799e-06
1.01301e-06
-2.92948e-06
9.50977e-07
-2.96495e-06
8.86625e-07
-2.99488e-06
8.20566e-07
-3.01957e-06
7.53232e-07
-3.03929e-06
6.85052e-07
-3.05439e-06
6.16268e-07
-3.06537e-06
5.47077e-07
-3.07269e-06
4.77782e-07
-3.07697e-06
4.08385e-07
-3.07867e-06
3.38909e-07
-3.07804e-06
2.69252e-07
-3.07521e-06
1.99289e-07
-3.07043e-06
1.28798e-07
-3.06387e-06
5.75361e-08
-3.05591e-06
-1.481e-08
-3.04629e-06
-8.83772e-08
-3.03531e-06
-1.63746e-07
-3.02317e-06
-2.4124e-07
-3.00997e-06
-3.21273e-07
-2.99577e-06
-4.04235e-07
-2.98055e-06
-4.90547e-07
-2.96426e-06
-5.80631e-07
-2.94671e-06
-6.74844e-07
-2.9275e-06
-7.73452e-07
-2.90602e-06
-8.76525e-07
-2.88118e-06
-9.83882e-07
-2.85145e-06
-1.09514e-06
-2.81527e-06
-1.20954e-06
-2.7705e-06
-1.32508e-06
-2.71523e-06
-1.43956e-06
-2.64696e-06
-1.55021e-06
-2.55954e-06
-1.65239e-06
-2.44197e-06
-1.74188e-06
-2.29197e-06
-1.80422e-06
-2.11272e-06
-1.83102e-06
-1.91091e-06
-1.81504e-06
-1.68987e-06
-1.75801e-06
-1.4556e-06
-1.65488e-06
-1.21627e-06
-1.50595e-06
-9.83042e-07
-1.31545e-06
-7.66951e-07
-1.09371e-06
-5.74987e-07
-8.5414e-07
-4.11775e-07
-6.08835e-07
-2.80386e-07
-3.69832e-07
-1.81065e-07
-1.49426e-07
-1.1118e-07
4.18839e-08
-6.54014e-08
1.96476e-07
-3.77052e-08
3.09487e-07
-2.04269e-08
3.69446e-07
-9.22742e-09
3.58161e-07
1.90371e-07
-2.75748e-09
-2.32533e-07
-3.67812e-08
-2.41734e-07
-8.67303e-08
-1.48481e-07
-1.46693e-07
-4.11561e-08
-2.15971e-07
7.04762e-08
-2.9557e-07
1.84277e-07
-3.86691e-07
2.99107e-07
-4.9049e-07
4.14116e-07
-6.07747e-07
5.28954e-07
-7.38696e-07
6.4376e-07
-8.82975e-07
7.58897e-07
-1.03937e-06
8.74276e-07
-1.2049e-06
9.87978e-07
-1.37499e-06
1.09617e-06
-1.54434e-06
1.19431e-06
-1.70769e-06
1.27791e-06
-1.86079e-06
1.34334e-06
-2.00141e-06
1.38905e-06
-2.12892e-06
1.41576e-06
-2.24371e-06
1.42515e-06
-2.34683e-06
1.41953e-06
-2.43923e-06
1.40111e-06
-2.52178e-06
1.3718e-06
-2.59516e-06
1.33329e-06
-2.65992e-06
1.28699e-06
-2.71652e-06
1.23422e-06
-2.76542e-06
1.1761e-06
-2.80711e-06
1.11372e-06
-2.84211e-06
1.04801e-06
-2.87096e-06
9.79826e-07
-2.89421e-06
9.09878e-07
-2.9124e-06
8.38757e-07
-2.92609e-06
7.66917e-07
-2.93579e-06
6.94757e-07
-2.94206e-06
6.22536e-07
-2.94544e-06
5.50458e-07
-2.94633e-06
4.78664e-07
-2.94507e-06
4.07127e-07
-2.94194e-06
3.35781e-07
-2.93718e-06
2.6449e-07
-2.93098e-06
1.93086e-07
-2.92351e-06
1.21336e-07
-2.91497e-06
4.8991e-08
-2.90555e-06
-2.42284e-08
-2.89531e-06
-9.86159e-08
-2.88447e-06
-1.74585e-07
-2.87322e-06
-2.52492e-07
-2.86174e-06
-3.32749e-07
-2.85021e-06
-4.15771e-07
-2.83876e-06
-5.01998e-07
-2.82751e-06
-5.91876e-07
-2.81653e-06
-6.85829e-07
-2.80575e-06
-7.84234e-07
-2.7949e-06
-8.87367e-07
-2.7834e-06
-9.95385e-07
-2.77028e-06
-1.10826e-06
-2.75424e-06
-1.22558e-06
-2.73302e-06
-1.3463e-06
-2.70372e-06
-1.46886e-06
-2.66338e-06
-1.59055e-06
-2.60885e-06
-1.70692e-06
-2.53624e-06
-1.81449e-06
-2.43495e-06
-1.90551e-06
-2.29505e-06
-1.97092e-06
-2.11765e-06
-1.99245e-06
-1.91146e-06
-1.9642e-06
-1.68106e-06
-1.88527e-06
-1.43459e-06
-1.75242e-06
-1.18242e-06
-1.56762e-06
-9.38261e-07
-1.33786e-06
-7.15148e-07
-1.07725e-06
-5.2096e-07
-8.03023e-07
-3.60287e-07
-5.30504e-07
-2.35525e-07
-2.74188e-07
-1.45445e-07
-4.81961e-08
-8.53646e-08
1.36396e-07
-4.78996e-08
2.72022e-07
-2.3948e-08
3.45494e-07
-8.43434e-09
3.42647e-07
1.81937e-07
-1.77323e-08
-2.14801e-07
-6.83944e-08
-1.91072e-07
-1.32823e-07
-8.40525e-08
-2.06202e-07
3.2223e-08
-2.88478e-07
1.52753e-07
-3.80805e-07
2.76604e-07
-4.84392e-07
4.02694e-07
-6.00114e-07
5.29838e-07
-7.28301e-07
6.5714e-07
-8.68707e-07
7.84167e-07
-1.02037e-06
9.10558e-07
-1.1807e-06
1.03461e-06
-1.34542e-06
1.1527e-06
-1.50951e-06
1.26026e-06
-1.66809e-06
1.35289e-06
-1.8171e-06
1.42692e-06
-1.95393e-06
1.48017e-06
-2.07775e-06
1.51288e-06
-2.18887e-06
1.52688e-06
-2.28812e-06
1.5244e-06
-2.37644e-06
1.50785e-06
-2.45458e-06
1.47925e-06
-2.52316e-06
1.44039e-06
-2.5827e-06
1.39282e-06
-2.63369e-06
1.33798e-06
-2.67665e-06
1.27718e-06
-2.71219e-06
1.21164e-06
-2.74095e-06
1.14248e-06
-2.76363e-06
1.07069e-06
-2.78094e-06
9.97127e-07
-2.79355e-06
9.22487e-07
-2.80212e-06
8.4733e-07
-2.80728e-06
7.72081e-07
-2.80959e-06
6.97061e-07
-2.80952e-06
6.22471e-07
-2.80749e-06
5.48428e-07
-2.80379e-06
4.74963e-07
-2.79866e-06
4.02e-07
-2.79231e-06
3.29424e-07
-2.78489e-06
2.57076e-07
-2.77657e-06
1.84762e-07
-2.76748e-06
1.12246e-07
-2.75776e-06
3.92725e-08
-2.74755e-06
-3.44339e-08
-2.73699e-06
-1.09183e-07
-2.72624e-06
-1.8533e-07
-2.71551e-06
-2.63226e-07
-2.705e-06
-3.4326e-07
-2.69493e-06
-4.25836e-07
-2.68554e-06
-5.11385e-07
-2.67707e-06
-6.00351e-07
-2.66971e-06
-6.93184e-07
-2.66363e-06
-7.90315e-07
-2.65886e-06
-8.92142e-07
-2.65524e-06
-9.99e-07
-2.6524e-06
-1.1111e-06
-2.64956e-06
-1.22841e-06
-2.64529e-06
-1.35057e-06
-2.63746e-06
-1.47669e-06
-2.623e-06
-1.60502e-06
-2.59722e-06
-1.7327e-06
-2.55638e-06
-1.85533e-06
-2.49508e-06
-1.96681e-06
-2.40601e-06
-2.06e-06
-2.27432e-06
-2.12414e-06
-2.09838e-06
-2.14013e-06
-1.88625e-06
-2.09741e-06
-1.64481e-06
-1.99386e-06
-1.38481e-06
-1.82762e-06
-1.11946e-06
-1.60322e-06
-8.65286e-07
-1.33143e-06
-6.37427e-07
-1.03088e-06
-4.44245e-07
-7.23687e-07
-2.89899e-07
-4.28534e-07
-1.7531e-07
-1.62784e-07
-9.71987e-08
5.82837e-08
-4.83274e-08
2.23151e-07
-1.96386e-08
3.16806e-07
-4.09736e-09
3.27106e-07
1.7784e-07
-3.2771e-08
-1.8203e-07
-9.88719e-08
-1.24971e-07
-1.76872e-07
-6.05192e-09
-2.62749e-07
1.181e-07
-3.56997e-07
2.47e-07
-4.60805e-07
3.80413e-07
-5.75236e-07
5.17125e-07
-7.00818e-07
6.55419e-07
-8.37462e-07
7.93784e-07
-9.84422e-07
9.31127e-07
-1.13951e-06
1.06564e-06
-1.29892e-06
1.19402e-06
-1.45803e-06
1.31181e-06
-1.61232e-06
1.41454e-06
-1.75785e-06
1.49842e-06
-1.89172e-06
1.56078e-06
-2.01264e-06
1.6011e-06
-2.12079e-06
1.62102e-06
-2.21682e-06
1.62291e-06
-2.30159e-06
1.60917e-06
-2.3758e-06
1.58206e-06
-2.44003e-06
1.54348e-06
-2.49481e-06
1.49516e-06
-2.54068e-06
1.43869e-06
-2.57827e-06
1.37558e-06
-2.60832e-06
1.30723e-06
-2.63163e-06
1.23495e-06
-2.64903e-06
1.15988e-06
-2.66136e-06
1.08302e-06
-2.66941e-06
1.00518e-06
-2.67391e-06
9.2699e-07
-2.67551e-06
8.48931e-07
-2.67477e-06
7.71339e-07
-2.67214e-06
6.94433e-07
-2.668e-06
6.18323e-07
-2.66261e-06
5.43041e-07
-2.65618e-06
4.68534e-07
-2.64887e-06
3.94691e-07
-2.64081e-06
3.21361e-07
-2.63209e-06
2.4836e-07
-2.62281e-06
1.75481e-07
-2.61306e-06
1.02491e-07
-2.60292e-06
2.91388e-08
-2.59251e-06
-4.48468e-08
-2.58194e-06
-1.19755e-07
-2.57136e-06
-1.95903e-07
-2.56097e-06
-2.73617e-07
-2.55098e-06
-3.53252e-07
-2.54164e-06
-4.35181e-07
-2.53322e-06
-5.19804e-07
-2.52602e-06
-6.07546e-07
-2.52036e-06
-6.98848e-07
-2.51651e-06
-7.94166e-07
-2.51469e-06
-8.93955e-07
-2.51504e-06
-9.98651e-07
-2.51752e-06
-1.10862e-06
-2.52183e-06
-1.22411e-06
-2.52725e-06
-1.34514e-06
-2.53255e-06
-1.47139e-06
-2.5356e-06
-1.60197e-06
-2.53313e-06
-1.73517e-06
-2.52047e-06
-1.86799e-06
-2.49155e-06
-1.99572e-06
-2.44052e-06
-2.11103e-06
-2.35872e-06
-2.20594e-06
-2.23241e-06
-2.26645e-06
-2.05565e-06
-2.27417e-06
-1.83533e-06
-2.21418e-06
-1.58098e-06
-2.08197e-06
-1.30662e-06
-1.87758e-06
-1.02871e-06
-1.60933e-06
-7.67035e-07
-1.29256e-06
-5.38567e-07
-9.52155e-07
-3.51381e-07
-6.1572e-07
-2.08471e-07
-3.05694e-07
-1.08518e-07
-4.16688e-08
-4.5676e-08
1.60308e-07
-1.16898e-08
2.82819e-07
2.08924e-09
3.13326e-07
1.79929e-07
-4.71249e-08
-1.34905e-07
-1.27272e-07
-4.48234e-08
-2.17477e-07
8.4153e-08
-3.14765e-07
2.15387e-07
-4.19672e-07
3.51908e-07
-5.33408e-07
4.94149e-07
-6.56811e-07
6.40527e-07
-7.90066e-07
7.88674e-07
-9.32642e-07
9.36361e-07
-1.08273e-06
1.08121e-06
-1.23707e-06
1.21999e-06
-1.39162e-06
1.34857e-06
-1.54211e-06
1.46231e-06
-1.68475e-06
1.55718e-06
-1.8164e-06
1.63007e-06
-1.9353e-06
1.67968e-06
-2.04126e-06
1.70706e-06
-2.13486e-06
1.71461e-06
-2.2168e-06
1.70485e-06
-2.2878e-06
1.68016e-06
-2.3484e-06
1.64266e-06
-2.39916e-06
1.59425e-06
-2.44072e-06
1.53672e-06
-2.47381e-06
1.47178e-06
-2.4993e-06
1.40107e-06
-2.51814e-06
1.32606e-06
-2.53129e-06
1.24809e-06
-2.53969e-06
1.16829e-06
-2.54422e-06
1.08755e-06
-2.54565e-06
1.00661e-06
-2.54464e-06
9.25985e-07
-2.54175e-06
8.46039e-07
-2.53741e-06
7.66997e-07
-2.53195e-06
6.88975e-07
-2.52562e-06
6.11995e-07
-2.5186e-06
5.36013e-07
-2.51098e-06
4.60918e-07
-2.50285e-06
3.86566e-07
-2.49428e-06
3.12787e-07
-2.48529e-06
2.39374e-07
-2.47593e-06
1.66114e-07
-2.46622e-06
9.27873e-08
-2.45624e-06
1.91528e-08
-2.44603e-06
-5.50495e-08
-2.43571e-06
-1.30076e-07
-2.42541e-06
-2.06208e-07
-2.41529e-06
-2.83739e-07
-2.40556e-06
-3.62979e-07
-2.39648e-06
-4.4426e-07
-2.38835e-06
-5.27939e-07
-2.38149e-06
-6.14403e-07
-2.37627e-06
-7.04067e-07
-2.37306e-06
-7.97375e-07
-2.37221e-06
-8.94801e-07
-2.37403e-06
-9.96832e-07
-2.37871e-06
-1.10394e-06
-2.38626e-06
-1.21656e-06
-2.39641e-06
-1.33499e-06
-2.4085e-06
-1.4593e-06
-2.42125e-06
-1.58921e-06
-2.4326e-06
-1.72383e-06
-2.43923e-06
-1.86135e-06
-2.43632e-06
-1.99864e-06
-2.41677e-06
-2.13057e-06
-2.37325e-06
-2.24946e-06
-2.29604e-06
-2.34365e-06
-2.17072e-06
-2.39949e-06
-1.98998e-06
-2.39493e-06
-1.75877e-06
-2.31318e-06
-1.48986e-06
-2.14648e-06
-1.20103e-06
-1.89817e-06
-9.12702e-07
-1.58088e-06
-6.48358e-07
-1.2165e-06
-4.25658e-07
-8.38419e-07
-2.51454e-07
-4.79899e-07
-1.26542e-07
-1.6658e-07
-4.67637e-08
8.05296e-08
-5.25699e-09
2.41313e-07
7.53828e-09
3.00531e-07
1.87467e-07
-6.02083e-08
-7.4697e-08
-1.52629e-07
4.75975e-08
-2.538e-07
1.85324e-07
-3.61041e-07
3.22628e-07
-4.7506e-07
4.65927e-07
-5.96966e-07
6.16055e-07
-7.27361e-07
7.70922e-07
-8.66029e-07
9.27343e-07
-1.01153e-06
1.08187e-06
-1.16118e-06
1.23086e-06
-1.3116e-06
1.37041e-06
-1.4588e-06
1.49577e-06
-1.59907e-06
1.60258e-06
-1.72919e-06
1.68729e-06
-1.84694e-06
1.74782e-06
-1.95165e-06
1.78439e-06
-2.04369e-06
1.7991e-06
-2.12371e-06
1.79463e-06
-2.19236e-06
1.7735e-06
-2.25023e-06
1.73804e-06
-2.29793e-06
1.69036e-06
-2.33615e-06
1.63247e-06
-2.36575e-06
1.56632e-06
-2.38772e-06
1.49375e-06
-2.40312e-06
1.41647e-06
-2.41304e-06
1.33598e-06
-2.41851e-06
1.25356e-06
-2.42046e-06
1.17024e-06
-2.41971e-06
1.0868e-06
-2.41693e-06
1.00383e-06
-2.41266e-06
9.21717e-07
-2.40732e-06
8.40701e-07
-2.40122e-06
7.60897e-07
-2.39458e-06
6.82326e-07
-2.38752e-06
6.04935e-07
-2.38012e-06
5.28618e-07
-2.37243e-06
4.53225e-07
-2.36445e-06
3.78585e-07
-2.35618e-06
3.04518e-07
-2.34761e-06
2.30807e-07
-2.33873e-06
1.57235e-07
-2.32955e-06
8.3602e-08
-2.32008e-06
9.68779e-09
-2.31037e-06
-6.47609e-08
-2.30049e-06
-1.39957e-07
-2.29055e-06
-2.16149e-07
-2.2807e-06
-2.9359e-07
-2.27113e-06
-3.72547e-07
-2.26209e-06
-4.53304e-07
-2.25386e-06
-5.36169e-07
-2.24678e-06
-6.21477e-07
-2.24125e-06
-7.096e-07
-2.23768e-06
-8.0095e-07
-2.2365e-06
-8.95981e-07
-2.23813e-06
-9.95195e-07
-2.24295e-06
-1.09912e-06
-2.25121e-06
-1.20831e-06
-2.26295e-06