/*--------------------------------*- C++ -*----------------------------------*\
  =========                 |
  \\      /  F ield         | OpenFOAM: The Open Source CFD Toolbox
   \\    /   O peration     | Website:  https://openfoam.org
    \\  /    A nd           | Version:  13
     \\/     M anipulation  |
\*---------------------------------------------------------------------------*/
FoamFile
{
    format      ascii;
    class       volVectorField;
    location    "7.4";
    object      U;
}
// * * * * * * * * * * * * * * * * * * * * * * * * * * * * * * * * * * * * * //

dimensions      [0 1 -1 0 0 0 0];

internalField   nonuniform List<vector> 
6400
(
(-0.000125734 8.29531e-05 0)
(0.000440468 -0.000171562 0)
(0.00207829 -0.00043157 0)
(0.00424315 -0.000547021 0)
(0.00639754 -0.0004824 0)
(0.0081948 -0.000322122 0)
(0.00939053 -0.000129356 0)
(0.00998867 1.52426e-05 0)
(0.0101148 6.873e-05 0)
(0.0100093 4.6891e-05 0)
(0.00979631 -3.12505e-05 0)
(0.00964327 -0.000137682 0)
(0.00961427 -0.000247923 0)
(0.00970748 -0.000337365 0)
(0.00987479 -0.000409546 0)
(0.0100377 -0.000462409 0)
(0.0101225 -0.000495785 0)
(0.010077 -0.000498157 0)
(0.00986 -0.000479329 0)
(0.00937776 -0.000439067 0)
(0.00859259 -0.000390753 0)
(0.00744638 -0.000341468 0)
(0.0058967 -0.000295183 0)
(0.00391582 -0.000277089 0)
(0.00147003 -0.000324701 0)
(-0.00141583 -0.000440134 0)
(-0.00477035 -0.000487147 0)
(-0.00882052 -0.000309232 0)
(-0.0136824 0.000208944 0)
(-0.0193687 0.00107523 0)
(-0.0266471 0.00211328 0)
(-0.0347378 0.00299551 0)
(-0.0435056 0.00370874 0)
(-0.0526436 0.00423912 0)
(-0.0618973 0.00459192 0)
(-0.0710311 0.00478076 0)
(-0.0798599 0.00482988 0)
(-0.0882269 0.00476239 0)
(-0.0960158 0.00460055 0)
(-0.103127 0.00436226 0)
(-0.109486 0.00405955 0)
(-0.115029 0.00370119 0)
(-0.119711 0.00328987 0)
(-0.123508 0.00282964 0)
(-0.126388 0.00233294 0)
(-0.128169 0.00185488 0)
(-0.128933 0.00141824 0)
(-0.128886 0.000718896 0)
(-0.127437 0.000161211 0)
(-0.125074 -0.000520182 0)
(-0.121423 -0.00115959 0)
(-0.116694 -0.00182614 0)
(-0.11075 -0.00246485 0)
(-0.103701 -0.00308986 0)
(-0.0955702 -0.00369685 0)
(-0.0864633 -0.00428281 0)
(-0.0763852 -0.00479598 0)
(-0.0655281 -0.005232 0)
(-0.0540478 -0.00556122 0)
(-0.0421525 -0.00574864 0)
(-0.0300842 -0.00576067 0)
(-0.0181256 -0.00558219 0)
(-0.00652974 -0.00521104 0)
(0.00428114 -0.00469725 0)
(0.0139767 -0.00394631 0)
(0.0223295 -0.00301867 0)
(0.0290266 -0.00195515 0)
(0.0337838 -0.00080418 0)
(0.0366236 0.000356101 0)
(0.0369329 0.00158214 0)
(0.0355514 0.00224157 0)
(0.0320621 0.0028294 0)
(0.0268104 0.00303477 0)
(0.0207014 0.00274268 0)
(0.0145073 0.00205451 0)
(0.00904238 0.00122042 0)
(0.00475382 0.00053485 0)
(0.00179619 0.000124421 0)
(0.000157084 -0.000167088 0)
(-0.000235255 -0.000345068 0)
(1.50464e-05 -0.000379249 0)
(0.00180382 -0.00209163 0)
(0.00521379 -0.00352137 0)
(0.00902243 -0.00400646 0)
(0.0125347 -0.00362667 0)
(0.0153328 -0.00275943 0)
(0.0172395 -0.00170054 0)
(0.0182806 -0.000736415 0)
(0.0185801 -5.18669e-05 0)
(0.0182994 0.000321978 0)
(0.0176364 0.000426757 0)
(0.016759 0.000345017 0)
(0.015753 0.000197614 0)
(0.0146111 9.64696e-05 0)
(0.0132622 0.000104692 0)
(0.0116045 0.000235389 0)
(0.00955206 0.000467627 0)
(0.00703816 0.000786876 0)
(0.00395067 0.0012089 0)
(0.000184521 0.00174471 0)
(-0.00436905 0.00239873 0)
(-0.00994091 0.00318901 0)
(-0.0166185 0.00408093 0)
(-0.0244708 0.00506442 0)
(-0.0335445 0.00615712 0)
(-0.0439406 0.00736594 0)
(-0.0555574 0.00871616 0)
(-0.0680495 0.0102048 0)
(-0.0810418 0.0117751 0)
(-0.0940098 0.0132588 0)
(-0.106421 0.0143572 0)
(-0.118482 0.0150413 0)
(-0.1299 0.0153176 0)
(-0.140593 0.0152103 0)
(-0.150465 0.0147898 0)
(-0.159447 0.0141059 0)
(-0.167501 0.0132152 0)
(-0.174593 0.012162 0)
(-0.180708 0.0109841 0)
(-0.185833 0.00971015 0)
(-0.189953 0.00835764 0)
(-0.193069 0.0069431 0)
(-0.19517 0.00547317 0)
(-0.196253 0.00395949 0)
(-0.196305 0.00241105 0)
(-0.195294 0.000835206 0)
(-0.193227 -0.00078887 0)
(-0.190118 -0.00249634 0)
(-0.185881 -0.00424054 0)
(-0.18059 -0.00602318 0)
(-0.174171 -0.00782439 0)
(-0.166663 -0.00962886 0)
(-0.158032 -0.0114143 0)
(-0.148308 -0.0131498 0)
(-0.137497 -0.0148019 0)
(-0.125672 -0.016319 0)
(-0.11295 -0.0176666 0)
(-0.0994271 -0.0187856 0)
(-0.0852791 -0.0196039 0)
(-0.0707236 -0.0200711 0)
(-0.0559693 -0.0201215 0)
(-0.0412748 -0.0197124 0)
(-0.0269257 -0.0188184 0)
(-0.0132326 -0.0174503 0)
(-0.000479812 -0.015566 0)
(0.0110659 -0.0132114 0)
(0.021121 -0.0104199 0)
(0.0294392 -0.00731197 0)
(0.0358584 -0.00396147 0)
(0.0401885 -0.000552748 0)
(0.042419 0.00266647 0)
(0.042414 0.00562789 0)
(0.040271 0.00805974 0)
(0.0361856 0.00968368 0)
(0.0302704 0.00989193 0)
(0.0229504 0.00895727 0)
(0.0152405 0.00712426 0)
(0.00825587 0.00481847 0)
(0.00307964 0.00233923 0)
(0.000229096 0.000288382 0)
(0.000202758 -0.00162532 0)
(0.00319134 -0.00537434 0)
(0.00746056 -0.00761184 0)
(0.0114544 -0.00788791 0)
(0.0147332 -0.00679279 0)
(0.0170883 -0.00498902 0)
(0.0185464 -0.0030466 0)
(0.0191674 -0.00129318 0)
(0.0190275 8.96872e-05 0)
(0.0182288 0.00101992 0)
(0.0169172 0.00152892 0)
(0.0151684 0.00176057 0)
(0.0129983 0.00190944 0)
(0.0103691 0.00214918 0)
(0.00719167 0.00258771 0)
(0.00336667 0.00324979 0)
(-0.00123233 0.00412753 0)
(-0.00676341 0.00523103 0)
(-0.013353 0.00658355 0)
(-0.0211215 0.00821929 0)
(-0.0301531 0.0101439 0)
(-0.0404237 0.0122966 0)
(-0.0519112 0.0145963 0)
(-0.064472 0.016923 0)
(-0.0778538 0.0191517 0)
(-0.0917535 0.0211897 0)
(-0.105802 0.02294 0)
(-0.119683 0.0243419 0)
(-0.133059 0.0253346 0)
(-0.145671 0.0258967 0)
(-0.157356 0.0260214 0)
(-0.168062 0.0257059 0)
(-0.177723 0.0249987 0)
(-0.186406 0.0239341 0)
(-0.194106 0.0225581 0)
(-0.200863 0.0209413 0)
(-0.2067 0.01913 0)
(-0.211643 0.0171695 0)
(-0.215703 0.01509 0)
(-0.218894 0.0129267 0)
(-0.221226 0.0106898 0)
(-0.222699 0.00839194 0)
(-0.22331 0.00604091 0)
(-0.223053 0.00363617 0)
(-0.221917 0.00117904 0)
(-0.219888 -0.00133641 0)
(-0.216924 -0.00392702 0)
(-0.213019 -0.00658593 0)
(-0.208146 -0.00928376 0)
(-0.202289 -0.0120318 0)
(-0.195418 -0.0148067 0)
(-0.187527 -0.0175917 0)
(-0.178602 -0.0203554 0)
(-0.168651 -0.0230568 0)
(-0.15769 -0.0256387 0)
(-0.145765 -0.0280296 0)
(-0.132952 -0.0301603 0)
(-0.119347 -0.0319378 0)
(-0.105068 -0.0332646 0)
(-0.0903047 -0.0340498 0)
(-0.0752726 -0.0342054 0)
(-0.0602013 -0.0336527 0)
(-0.0453753 -0.0323525 0)
(-0.0311001 -0.0303113 0)
(-0.0176472 -0.0275244 0)
(-0.00524493 -0.0240268 0)
(0.00583757 -0.0198844 0)
(0.0153813 -0.0152169 0)
(0.0232631 -0.0101777 0)
(0.0293543 -0.00495315 0)
(0.0336217 0.000230634 0)
(0.0360397 0.00514629 0)
(0.0364735 0.00944326 0)
(0.0348468 0.0128143 0)
(0.0314488 0.0151121 0)
(0.0263744 0.0156787 0)
(0.0197934 0.0146144 0)
(0.0126053 0.0119956 0)
(0.00589575 0.00794852 0)
(0.000787181 0.00296227 0)
(0.000423276 -0.00357905 0)
(0.0042618 -0.00950365 0)
(0.0086358 -0.011846 0)
(0.0121445 -0.0113353 0)
(0.0146682 -0.0092479 0)
(0.0162039 -0.00651857 0)
(0.0168529 -0.00371956 0)
(0.016708 -0.00119309 0)
(0.0158489 0.000864018 0)
(0.0143332 0.00238307 0)
(0.0121584 0.00344717 0)
(0.00930149 0.00424556 0)
(0.00571104 0.00501136 0)
(0.00131645 0.00594672 0)
(-0.0039561 0.00717106 0)
(-0.0102076 0.00873551 0)
(-0.0175584 0.0106557 0)
(-0.0261276 0.0129353 0)
(-0.0359946 0.0155636 0)
(-0.0471716 0.0185062 0)
(-0.0595703 0.0216684 0)
(-0.0729902 0.024904 0)
(-0.0871395 0.0280349 0)
(-0.101651 0.0308928 0)
(-0.116227 0.0333837 0)
(-0.130518 0.0353217 0)
(-0.144236 0.0366111 0)
(-0.157099 0.0372706 0)
(-0.168945 0.037364 0)
(-0.17974 0.0369391 0)
(-0.189458 0.0360556 0)
(-0.198161 0.0347526 0)
(-0.20589 0.0330685 0)
(-0.212718 0.0310742 0)
(-0.218683 0.0288159 0)
(-0.22385 0.026349 0)
(-0.22825 0.0237139 0)
(-0.231912 0.0209529 0)
(-0.234855 0.0180891 0)
(-0.237091 0.0151428 0)
(-0.238623 0.0121253 0)
(-0.239446 0.00904224 0)
(-0.239552 0.00589354 0)
(-0.238926 0.00267647 0)
(-0.237549 -0.00061199 0)
(-0.235396 -0.00397839 0)
(-0.232434 -0.00742399 0)
(-0.228637 -0.0109657 0)
(-0.223974 -0.0145876 0)
(-0.218411 -0.0182826 0)
(-0.211916 -0.0220282 0)
(-0.204467 -0.0258024 0)
(-0.196038 -0.0295677 0)
(-0.186615 -0.033271 0)
(-0.176193 -0.036835 0)
(-0.164787 -0.0401624 0)
(-0.152444 -0.0431546 0)
(-0.139238 -0.0456994 0)
(-0.125264 -0.0476544 0)
(-0.11066 -0.0488772 0)
(-0.0956223 -0.0492541 0)
(-0.0803634 -0.0486662 0)
(-0.0651408 -0.0470402 0)
(-0.0502713 -0.0443431 0)
(-0.036105 -0.0406454 0)
(-0.0228962 -0.0360066 0)
(-0.0108863 -0.0305146 0)
(-0.000294306 -0.0243157 0)
(0.00872439 -0.0176329 0)
(0.0160551 -0.0107077 0)
(0.0216456 -0.00379067 0)
(0.0255084 0.00289043 0)
(0.0276901 0.00902602 0)
(0.0281986 0.014204 0)
(0.0268987 0.0180813 0)
(0.0238298 0.0203543 0)
(0.0191659 0.020582 0)
(0.0133077 0.0186155 0)
(0.00693191 0.0142559 0)
(0.00107529 0.00674795 0)
(0.00070285 -0.00609185 0)
(0.00494298 -0.0138724 0)
(0.00879655 -0.0156157 0)
(0.0114357 -0.013989 0)
(0.0130003 -0.0108109 0)
(0.0135659 -0.00713811 0)
(0.0132801 -0.00351816 0)
(0.0122293 -0.000256678 0)
(0.0104498 0.00249329 0)
(0.00792834 0.00471929 0)
(0.00460101 0.00653848 0)
(0.000379575 0.00816455 0)
(-0.00482853 0.00984158 0)
(-0.0111113 0.0117737 0)
(-0.0185508 0.0140898 0)
(-0.0272249 0.0168474 0)
(-0.0371928 0.0200524 0)
(-0.048474 0.02367 0)
(-0.0610038 0.0275996 0)
(-0.0746056 0.0316965 0)
(-0.0889884 0.0357345 0)
(-0.103794 0.0395143 0)
(-0.118663 0.0428995 0)
(-0.133287 0.0456084 0)
(-0.147281 0.0475157 0)
(-0.160329 0.0486365 0)
(-0.172343 0.0489933 0)
(-0.183267 0.0486451 0)
(-0.193152 0.0476969 0)
(-0.202041 0.0462436 0)
(-0.209997 0.0443662 0)
(-0.217107 0.0421341 0)
(-0.223418 0.0395969 0)
(-0.228992 0.0368066 0)
(-0.233876 0.0338054 0)
(-0.238116 0.0306342 0)
(-0.241735 0.0273267 0)
(-0.244759 0.0239128 0)
(-0.247202 0.0204064 0)
(-0.249066 0.0168208 0)
(-0.25035 0.0131606 0)
(-0.251047 0.0094263 0)
(-0.251145 0.00560953 0)
(-0.250624 0.00170342 0)
(-0.249471 -0.00229843 0)
(-0.24765 -0.00640637 0)
(-0.245126 -0.0106259 0)
(-0.241864 -0.0149669 0)
(-0.237838 -0.0194309 0)
(-0.232997 -0.0240085 0)
(-0.227293 -0.0286732 0)
(-0.22069 -0.0334021 0)
(-0.213144 -0.0381526 0)
(-0.204619 -0.0428625 0)
(-0.195089 -0.0474413 0)
(-0.184535 -0.0517671 0)
(-0.172965 -0.0557125 0)
(-0.160428 -0.0591442 0)
(-0.146985 -0.0618772 0)
(-0.132735 -0.0637262 0)
(-0.117844 -0.0645431 0)
(-0.102497 -0.0641524 0)
(-0.0869502 -0.0624398 0)
(-0.071445 -0.0593357 0)
(-0.0563511 -0.0548708 0)
(-0.0420859 -0.0491757 0)
(-0.0289098 -0.0423844 0)
(-0.0170541 -0.0347022 0)
(-0.00672731 -0.0263897 0)
(0.00192335 -0.0177529 0)
(0.00882669 -0.00910747 0)
(0.0139926 -0.000747251 0)
(0.0174892 0.00702097 0)
(0.0193882 0.0138702 0)
(0.0197049 0.0194366 0)
(0.0184483 0.0232691 0)
(0.015628 0.0249179 0)
(0.0114535 0.0240638 0)
(0.00628524 0.0200868 0)
(0.000943743 0.0105522 0)
(0.00101332 -0.00900071 0)
(0.00513846 -0.0178863 0)
(0.00803695 -0.0184202 0)
(0.00955597 -0.0156043 0)
(0.0100556 -0.0113341 0)
(0.00959218 -0.00676425 0)
(0.00831064 -0.00235203 0)
(0.00625465 0.00166061 0)
(0.00340669 0.00517945 0)
(-0.000302381 0.0082418 0)
(-0.00497888 0.0109991 0)
(-0.0107375 0.013675 0)
(-0.0176799 0.0165034 0)
(-0.0258868 0.0196717 0)
(-0.0354125 0.0232899 0)
(-0.046271 0.027381 0)
(-0.0584156 0.0318892 0)
(-0.071719 0.0367175 0)
(-0.0859551 0.041635 0)
(-0.100758 0.0463844 0)
(-0.115777 0.0507983 0)
(-0.13066 0.0545224 0)
(-0.144948 0.0573672 0)
(-0.15828 0.0592698 0)
(-0.170519 0.0601933 0)
(-0.18167 0.0602251 0)
(-0.191784 0.0594927 0)
(-0.200931 0.058127 0)
(-0.209199 0.0562407 0)
(-0.216646 0.0539223 0)
(-0.223346 0.0512475 0)
(-0.229351 0.0482717 0)
(-0.234711 0.0450469 0)
(-0.239475 0.0416159 0)
(-0.243681 0.0380127 0)
(-0.247354 0.0342672 0)
(-0.250513 0.0304056 0)
(-0.253174 0.0264531 0)
(-0.255349 0.0224176 0)
(-0.25704 0.0183042 0)
(-0.258246 0.0141132 0)
(-0.258961 0.00984012 0)
(-0.259184 0.00546759 0)
(-0.258902 0.000981463 0)
(-0.258117 -0.00363973 0)
(-0.256795 -0.00840899 0)
(-0.254906 -0.0133305 0)
(-0.252397 -0.0184031 0)
(-0.249234 -0.0236341 0)
(-0.245368 -0.029024 0)
(-0.240734 -0.0345433 0)
(-0.235261 -0.0401627 0)
(-0.228878 -0.0458285 0)
(-0.221517 -0.0514746 0)
(-0.213173 -0.0570447 0)
(-0.203808 -0.0624189 0)
(-0.193319 -0.0673982 0)
(-0.181744 -0.0718349 0)
(-0.169116 -0.0755108 0)
(-0.155451 -0.0781822 0)
(-0.140921 -0.0796719 0)
(-0.125647 -0.0797399 0)
(-0.109881 -0.078254 0)
(-0.0938742 -0.075047 0)
(-0.077921 -0.070106 0)
(-0.0624392 -0.0635282 0)
(-0.0478978 -0.0555783 0)
(-0.0345588 -0.0464854 0)
(-0.0226889 -0.0365623 0)
(-0.0124993 -0.0261895 0)
(-0.00411597 -0.0157683 0)
(0.00243703 -0.00568071 0)
(0.00722808 0.00372825 0)
(0.0103836 0.0121346 0)
(0.0120187 0.0192115 0)
(0.0121954 0.0245312 0)
(0.010923 0.0276118 0)
(0.00829811 0.02798 0)
(0.00466824 0.0247092 0)
(0.000568622 0.013692 0)
(0.00126511 -0.0120537 0)
(0.00478561 -0.021033 0)
(0.00638025 -0.0201286 0)
(0.00678586 -0.0160294 0)
(0.00613382 -0.0107675 0)
(0.00460778 -0.00535148 0)
(0.00227471 -0.000145804 0)
(-0.00087509 0.00467457 0)
(-0.00490766 0.00906929 0)
(-0.00992726 0.0131132 0)
(-0.0160537 0.0169732 0)
(-0.0233986 0.0208648 0)
(-0.0320464 0.024995 0)
(-0.0420417 0.0295133 0)
(-0.0533755 0.0344793 0)
(-0.0659571 0.0398479 0)
(-0.0796416 0.0454841 0)
(-0.0941282 0.0511405 0)
(-0.109025 0.0565963 0)
(-0.123997 0.0614811 0)
(-0.138574 0.0655197 0)
(-0.152274 0.068507 0)
(-0.16489 0.0703577 0)
(-0.176395 0.0711252 0)
(-0.186852 0.0709488 0)
(-0.196329 0.0699687 0)
(-0.204919 0.0683163 0)
(-0.212706 0.0661147 0)
(-0.219763 0.0634619 0)
(-0.226141 0.0604393 0)
(-0.231896 0.0571132 0)
(-0.237064 0.0535306 0)
(-0.241689 0.0497367 0)
(-0.245804 0.0457675 0)
(-0.249436 0.0416547 0)
(-0.252605 0.0374255 0)
(-0.255324 0.0331059 0)
(-0.257602 0.0287129 0)
(-0.259453 0.024249 0)
(-0.260879 0.0197102 0)
(-0.261924 0.0150456 0)
(-0.262552 0.0103168 0)
(-0.262762 0.00548809 0)
(-0.262537 0.00055058 0)
(-0.261867 -0.00451648 0)
(-0.260786 -0.00973945 0)
(-0.259274 -0.0151404 0)
(-0.257341 -0.0207517 0)
(-0.254946 -0.0265952 0)
(-0.252081 -0.0327107 0)
(-0.248686 -0.0390242 0)
(-0.24467 -0.045519 0)
(-0.239944 -0.0521608 0)
(-0.234402 -0.0588838 0)
(-0.22787 -0.0655598 0)
(-0.220199 -0.0720172 0)
(-0.211272 -0.0780541 0)
(-0.201077 -0.0835349 0)
(-0.18977 -0.0883402 0)
(-0.177146 -0.0920594 0)
(-0.163397 -0.0944925 0)
(-0.148559 -0.0953135 0)
(-0.132894 -0.0943522 0)
(-0.116587 -0.0913802 0)
(-0.0999923 -0.0863436 0)
(-0.0834066 -0.0792195 0)
(-0.0673889 -0.0702725 0)
(-0.0524408 -0.0598838 0)
(-0.0388434 -0.0483914 0)
(-0.0268933 -0.0362467 0)
(-0.0168053 -0.0239521 0)
(-0.00867863 -0.0120029 0)
(-0.00248865 -0.000840623 0)
(0.00191089 0.0091713 0)
(0.00471861 0.0177202 0)
(0.0060873 0.0244403 0)
(0.00610487 0.0288785 0)
(0.00483931 0.0304237 0)
(0.00267806 0.0278557 0)
(0.000103243 0.0156811 0)
(0.00136658 -0.0149084 0)
(0.00377591 -0.0230364 0)
(0.00413912 -0.0206019 0)
(0.00330747 -0.0152403 0)
(0.0015102 -0.00909206 0)
(-0.00110666 -0.00286094 0)
(-0.0045422 0.00316777 0)
(-0.00885377 0.00887359 0)
(-0.0141396 0.0142527 0)
(-0.0205139 0.019399 0)
(-0.0280868 0.0244765 0)
(-0.0369448 0.0296747 0)
(-0.047131 0.0351553 0)
(-0.0586302 0.0410028 0)
(-0.0713464 0.0472101 0)
(-0.0851018 0.0536314 0)
(-0.0995589 0.0600108 0)
(-0.114355 0.0660728 0)
(-0.129045 0.0714361 0)
(-0.143135 0.0757916 0)
(-0.156234 0.0789134 0)
(-0.168238 0.0807872 0)
(-0.17916 0.0815166 0)
(-0.189062 0.0812541 0)
(-0.198034 0.0801348 0)
(-0.206166 0.0783043 0)
(-0.213544 0.075884 0)
(-0.220233 0.0729824 0)
(-0.226285 0.0696828 0)
(-0.23174 0.0660576 0)
(-0.236635 0.0621651 0)
(-0.241003 0.058053 0)
(-0.244872 0.0537638 0)
(-0.248261 0.0493371 0)
(-0.251185 0.0448113 0)
(-0.253666 0.0401984 0)
(-0.25581 0.0354517 0)
(-0.257604 0.0306305 0)
(-0.259057 0.0257335 0)
(-0.260173 0.0207675 0)
(-0.260931 0.0157672 0)
(-0.261355 0.0106597 0)
(-0.261442 0.00545505 0)
(-0.261194 0.000128842 0)
(-0.260623 -0.00533699 0)
(-0.259754 -0.0109457 0)
(-0.258556 -0.0167295 0)
(-0.257031 -0.0227031 0)
(-0.255157 -0.0288786 0)
(-0.252908 -0.0352532 0)
(-0.250264 -0.041934 0)
(-0.247205 -0.0489138 0)
(-0.243691 -0.0561734 0)
(-0.239664 -0.0636796 0)
(-0.235042 -0.0713952 0)
(-0.229727 -0.0791799 0)
(-0.223457 -0.086728 0)
(-0.215896 -0.0937762 0)
(-0.206663 -0.0998617 0)
(-0.195791 -0.104782 0)
(-0.183521 -0.108451 0)
(-0.169755 -0.110374 0)
(-0.15476 -0.110354 0)
(-0.13864 -0.108038 0)
(-0.121775 -0.103331 0)
(-0.104451 -0.0961393 0)
(-0.0871041 -0.0865387 0)
(-0.0704487 -0.07501 0)
(-0.0550153 -0.0620626 0)
(-0.0411264 -0.048157 0)
(-0.0291083 -0.0338976 0)
(-0.0191715 -0.0199122 0)
(-0.0113764 -0.00678437 0)
(-0.00562407 0.00500879 0)
(-0.00168327 0.0151066 0)
(0.000726002 0.0232108 0)
(0.0018112 0.0289152 0)
(0.00173302 0.0315534 0)
(0.00082182 0.0295077 0)
(-0.000270229 0.0164405 0)
(0.00127727 -0.0172661 0)
(0.00234571 -0.0237545 0)
(0.00140231 -0.0197209 0)
(-0.000652717 -0.013296 0)
(-0.00357868 -0.00630558 0)
(-0.00730449 0.000740794 0)
(-0.0118736 0.00763674 0)
(-0.0173766 0.0143016 0)
(-0.023922 0.0207494 0)
(-0.0316135 0.0270731 0)
(-0.040534 0.0334152 0)
(-0.0507268 0.0399221 0)
(-0.0621734 0.0466893 0)
(-0.0747999 0.0537357 0)
(-0.0884157 0.0609385 0)
(-0.102654 0.0680376 0)
(-0.117168 0.0746978 0)
(-0.131479 0.0805535 0)
(-0.145047 0.0852477 0)
(-0.157639 0.0886066 0)
(-0.169141 0.0906205 0)
(-0.179578 0.091431 0)
(-0.189018 0.0911671 0)
(-0.197559 0.0899973 0)
(-0.205283 0.0880593 0)
(-0.212273 0.08549 0)
(-0.218588 0.0823936 0)
(-0.224274 0.0788643 0)
(-0.229368 0.0749766 0)
(-0.233904 0.0707975 0)
(-0.237913 0.0663823 0)
(-0.241423 0.0617799 0)
(-0.244459 0.0570338 0)
(-0.247084 0.0521513 0)
(-0.249343 0.0471609 0)
(-0.251255 0.0420988 0)
(-0.252787 0.0370213 0)
(-0.253955 0.0318876 0)
(-0.254777 0.0266996 0)
(-0.255281 0.0214531 0)
(-0.255513 0.0161439 0)
(-0.255499 0.0107559 0)
(-0.255266 0.00528378 0)
(-0.254842 -0.000298395 0)
(-0.254237 -0.00601776 0)
(-0.253412 -0.0118863 0)
(-0.252403 -0.0179435 0)
(-0.2512 -0.0242181 0)
(-0.249803 -0.0307386 0)
(-0.248197 -0.0375235 0)
(-0.246368 -0.0445849 0)
(-0.244284 -0.0519246 0)
(-0.241898 -0.0595355 0)
(-0.239148 -0.0673831 0)
(-0.235942 -0.0753974 0)
(-0.232167 -0.0835863 0)
(-0.227825 -0.0920203 0)
(-0.22274 -0.10042 0)
(-0.216677 -0.108442 0)
(-0.20919 -0.115521 0)
(-0.199533 -0.1209 0)
(-0.18771 -0.124225 0)
(-0.174244 -0.125617 0)
(-0.159049 -0.124462 0)
(-0.142531 -0.12061 0)
(-0.125005 -0.113904 0)
(-0.106822 -0.104256 0)
(-0.0886147 -0.091953 0)
(-0.0712341 -0.0776734 0)
(-0.0552834 -0.0621043 0)
(-0.0411318 -0.0458458 0)
(-0.0291293 -0.0296661 0)
(-0.0194635 -0.0143169 0)
(-0.0121348 -0.000455913 0)
(-0.00694487 0.0114227 0)
(-0.00353899 0.0209971 0)
(-0.00155578 0.027932 0)
(-0.000666873 0.031494 0)
(-0.000484667 0.0298752 0)
(-0.000382483 0.0162877 0)
(0.00103273 -0.0185997 0)
(0.000632765 -0.0230765 0)
(-0.00164206 -0.0175446 0)
(-0.00486743 -0.0101952 0)
(-0.00891378 -0.00240235 0)
(-0.0137535 0.00546972 0)
(-0.0194569 0.0132723 0)
(-0.0261312 0.0209472 0)
(-0.0338775 0.0285067 0)
(-0.0427741 0.0360237 0)
(-0.0528627 0.0436021 0)
(-0.0641279 0.0513273 0)
(-0.0765113 0.0592354 0)
(-0.0898443 0.067233 0)
(-0.103764 0.0750529 0)
(-0.11788 0.0823516 0)
(-0.131748 0.0887548 0)
(-0.144875 0.0938811 0)
(-0.157026 0.097579 0)
(-0.168114 0.0998663 0)
(-0.178135 0.100836 0)
(-0.187181 0.100663 0)
(-0.195332 0.0995095 0)
(-0.202678 0.0975333 0)
(-0.209284 0.0948635 0)
(-0.215207 0.0916186 0)
(-0.220489 0.0878909 0)
(-0.225165 0.0837662 0)
(-0.229269 0.0793156 0)
(-0.232837 0.0746043 0)
(-0.235904 0.0696868 0)
(-0.238506 0.0646111 0)
(-0.240688 0.0594155 0)
(-0.242458 0.0541491 0)
(-0.243841 0.0488252 0)
(-0.244879 0.0434497 0)
(-0.245592 0.0380377 0)
(-0.246045 0.0325888 0)
(-0.246275 0.027116 0)
(-0.246319 0.0216195 0)
(-0.246172 0.0160922 0)
(-0.245863 0.0105143 0)
(-0.245407 0.00486992 0)
(-0.244824 -0.000865325 0)
(-0.244116 -0.00671111 0)
(-0.243286 -0.012709 0)
(-0.24236 -0.0188832 0)
(-0.241343 -0.0252681 0)
(-0.240245 -0.0318956 0)
(-0.239066 -0.0387995 0)
(-0.237807 -0.0460129 0)
(-0.236457 -0.05356 0)
(-0.234995 -0.0614567 0)
(-0.23338 -0.069698 0)
(-0.231542 -0.0782452 0)
(-0.229385 -0.0870153 0)
(-0.226797 -0.0958897 0)
(-0.223607 -0.104709 0)
(-0.219607 -0.113443 0)
(-0.214751 -0.122018 0)
(-0.208657 -0.129834 0)
(-0.200751 -0.136017 0)
(-0.189909 -0.139337 0)
(-0.176677 -0.139897 0)
(-0.161367 -0.137493 0)
(-0.144399 -0.131923 0)
(-0.126071 -0.122915 0)
(-0.106941 -0.110578 0)
(-0.0877789 -0.0953616 0)
(-0.0696255 -0.0782096 0)
(-0.0531833 -0.0600114 0)
(-0.0388686 -0.0415406 0)
(-0.0270322 -0.0237348 0)
(-0.0178152 -0.00746441 0)
(-0.0111265 0.00655817 0)
(-0.00662014 0.0178579 0)
(-0.00378581 0.0261063 0)
(-0.00216619 0.0304597 0)
(-0.00115893 0.0292862 0)
(-0.000352501 0.0156832 0)
(0.000717471 -0.0189474 0)
(-0.00126054 -0.0209961 0)
(-0.00479648 -0.0141497 0)
(-0.00915435 -0.00594869 0)
(-0.0143044 0.00261377 0)
(-0.0202328 0.0113124 0)
(-0.0270321 0.0200409 0)
(-0.034807 0.0287416 0)
(-0.0436382 0.0374056 0)
(-0.053568 0.0460688 0)
(-0.064586 0.0547818 0)
(-0.0766463 0.0635785 0)
(-0.0896076 0.0723947 0)
(-0.103137 0.0809693 0)
(-0.116828 0.0889495 0)
(-0.130249 0.0959605 0)
(-0.142987 0.101645 0)
(-0.154768 0.10581 0)
(-0.165497 0.108464 0)
(-0.175174 0.109702 0)
(-0.183867 0.1097 0)
(-0.191669 0.108639 0)
(-0.19865 0.106676 0)
(-0.204875 0.103955 0)
(-0.210388 0.100592 0)
(-0.215233 0.0966938 0)
(-0.219442 0.0923485 0)
(-0.223055 0.0876409 0)
(-0.22611 0.0826443 0)
(-0.228651 0.0774256 0)
(-0.230722 0.0720416 0)
(-0.232367 0.0665402 0)
(-0.233631 0.060959 0)
(-0.234554 0.0553297 0)
(-0.235182 0.0496729 0)
(-0.235559 0.0440062 0)
(-0.235719 0.0383451 0)
(-0.235697 0.0326921 0)
(-0.235516 0.027044 0)
(-0.235197 0.0213922 0)
(-0.234753 0.0157255 0)
(-0.234203 0.0100248 0)
(-0.23356 0.00427038 0)
(-0.232838 -0.00156043 0)
(-0.232047 -0.00748989 0)
(-0.231199 -0.013554 0)
(-0.230312 -0.0197813 0)
(-0.229399 -0.0262051 0)
(-0.228474 -0.0328582 0)
(-0.227551 -0.0397763 0)
(-0.22664 -0.0469951 0)
(-0.22575 -0.0545476 0)
(-0.224882 -0.0624622 0)
(-0.224023 -0.0707591 0)
(-0.223139 -0.0794458 0)
(-0.222174 -0.0885099 0)
(-0.221037 -0.097895 0)
(-0.219585 -0.107465 0)
(-0.217631 -0.117001 0)
(-0.21493 -0.126225 0)
(-0.211159 -0.134897 0)
(-0.206194 -0.143084 0)
(-0.199483 -0.149645 0)
(-0.190014 -0.153344 0)
(-0.177075 -0.153021 0)
(-0.161711 -0.149351 0)
(-0.144136 -0.14177 0)
(-0.124905 -0.130236 0)
(-0.104725 -0.11497 0)
(-0.0845659 -0.096653 0)
(-0.0656669 -0.076548 0)
(-0.0488436 -0.0557913 0)
(-0.0345507 -0.0353539 0)
(-0.0231064 -0.0163509 0)
(-0.0145687 0.000240649 0)
(-0.00870017 0.013689 0)
(-0.00492403 0.0235199 0)
(-0.00271533 0.0287473 0)
(-0.0012132 0.0281233 0)
(-0.000176297 0.0148787 0)
(0.000140898 -0.0181317 0)
(-0.00324715 -0.0175818 0)
(-0.0079365 -0.00955202 0)
(-0.0133736 -0.000593421 0)
(-0.0195806 0.00870293 0)
(-0.0265409 0.0182166 0)
(-0.0343541 0.0278632 0)
(-0.0431138 0.0375654 0)
(-0.0528706 0.0472759 0)
(-0.0636221 0.0569817 0)
(-0.0753311 0.0666873 0)
(-0.0878832 0.0763451 0)
(-0.100988 0.0857106 0)
(-0.114249 0.094431 0)
(-0.127254 0.102131 0)
(-0.13964 0.108476 0)
(-0.15112 0.113239 0)
(-0.161549 0.11637 0)
(-0.170936 0.117983 0)
(-0.17933 0.118241 0)
(-0.186815 0.117341 0)
(-0.193459 0.115453 0)
(-0.199315 0.112721 0)
(-0.204429 0.109275 0)
(-0.208838 0.105226 0)
(-0.212584 0.100678 0)
(-0.215709 0.0957229 0)
(-0.218266 0.0904499 0)
(-0.220308 0.0849359 0)
(-0.221892 0.0792497 0)
(-0.223073 0.0734486 0)
(-0.223906 0.0675793 0)
(-0.224443 0.0616778 0)
(-0.22473 0.0557728 0)
(-0.22481 0.0498838 0)
(-0.224719 0.044025 0)
(-0.224484 0.0382026 0)
(-0.224126 0.0324118 0)
(-0.223663 0.0266455 0)
(-0.223108 0.0208916 0)
(-0.222475 0.0151354 0)
(-0.221776 0.00935828 0)
(-0.22102 0.00353975 0)
(-0.22022 -0.0023427 0)
(-0.219386 -0.00831321 0)
(-0.218529 -0.0144024 0)
(-0.217666 -0.0206393 0)
(-0.216811 -0.0270564 0)
(-0.215983 -0.0336865 0)
(-0.215199 -0.0405652 0)
(-0.21448 -0.0477285 0)
(-0.213843 -0.055212 0)
(-0.213303 -0.0630491 0)
(-0.212869 -0.0712682 0)
(-0.212537 -0.0798916 0)
(-0.21229 -0.0889314 0)
(-0.212081 -0.0983795 0)
(-0.211826 -0.108193 0)
(-0.211387 -0.118275 0)
(-0.210557 -0.128424 0)
(-0.209047 -0.138284 0)
(-0.206501 -0.147385 0)
(-0.202463 -0.155524 0)
(-0.19666 -0.162296 0)
(-0.188152 -0.16602 0)
(-0.17561 -0.165032 0)
(-0.160047 -0.159861 0)
(-0.141734 -0.15005 0)
(-0.121475 -0.135706 0)
(-0.100171 -0.117255 0)
(-0.0790396 -0.0956757 0)
(-0.0595259 -0.0725964 0)
(-0.0425511 -0.0494597 0)
(-0.028573 -0.027454 0)
(-0.0178316 -0.00788111 0)
(-0.0102457 0.00822381 0)
(-0.00530974 0.0200968 0)
(-0.00247196 0.0266261 0)
(-0.000773617 0.0268186 0)
(8.16572e-05 0.0143243 0)
(-0.000438409 -0.0160666 0)
(-0.00518961 -0.0128756 0)
(-0.0109434 -0.00383386 0)
(-0.0173924 0.00580194 0)
(-0.0245827 0.015791 0)
(-0.0324866 0.0260935 0)
(-0.0412009 0.0366218 0)
(-0.0507994 0.0472623 0)
(-0.0612962 0.0579187 0)
(-0.0726618 0.0685322 0)
(-0.0848037 0.0790444 0)
(-0.0974769 0.0892253 0)
(-0.110319 0.0987408 0)
(-0.122948 0.107213 0)
(-0.135022 0.114314 0)
(-0.146255 0.119793 0)
(-0.156459 0.123534 0)
(-0.165611 0.125627 0)
(-0.173762 0.126248 0)
(-0.180977 0.125588 0)
(-0.187323 0.123835 0)
(-0.192849 0.121144 0)
(-0.197597 0.117653 0)
(-0.201609 0.113487 0)
(-0.204932 0.10876 0)
(-0.20762 0.103582 0)
(-0.209735 0.0980536 0)
(-0.211345 0.0922671 0)
(-0.212516 0.086302 0)
(-0.213314 0.0802261 0)
(-0.213801 0.0740936 0)
(-0.214032 0.0679468 0)
(-0.214056 0.0618166 0)
(-0.213912 0.0557248 0)
(-0.213634 0.0496843 0)
(-0.213248 0.0437008 0)
(-0.212771 0.037773 0)
(-0.212219 0.0318934 0)
(-0.211601 0.026051 0)
(-0.210928 0.0202322 0)
(-0.210206 0.0144205 0)
(-0.209443 0.0085972 0)
(-0.208645 0.00274185 0)
(-0.207821 -0.00316763 0)
(-0.206978 -0.00915512 0)
(-0.206129 -0.0152475 0)
(-0.205286 -0.0214724 0)
(-0.204465 -0.0278596 0)
(-0.203686 -0.0344405 0)
(-0.20297 -0.0412488 0)
(-0.202339 -0.0483197 0)
(-0.201819 -0.0556895 0)
(-0.201433 -0.0633946 0)
(-0.201203 -0.07147 0)
(-0.201143 -0.0799473 0)
(-0.201259 -0.088851 0)
(-0.20154 -0.0981921 0)
(-0.201947 -0.107962 0)
(-0.202407 -0.118122 0)
(-0.202788 -0.128585 0)
(-0.202878 -0.139182 0)
(-0.202369 -0.14959 0)
(-0.200848 -0.159236 0)
(-0.197772 -0.167465 0)
(-0.192608 -0.174088 0)
(-0.184636 -0.177619 0)
(-0.172369 -0.175843 0)
(-0.156396 -0.168953 0)
(-0.13719 -0.156606 0)
(-0.11578 -0.139117 0)
(-0.0933407 -0.117203 0)
(-0.0713646 -0.0922137 0)
(-0.0515096 -0.0662528 0)
(-0.0347652 -0.0410644 0)
(-0.0215247 -0.0181293 0)
(-0.0118913 0.00114527 0)
(-0.00551093 0.0156675 0)
(-0.00189787 0.0241417 0)
(-6.302e-05 0.025636 0)
(0.000373124 0.0142642 0)
(-0.00102212 -0.0128416 0)
(-0.00701066 -0.00699593 0)
(-0.0137238 0.00292264 0)
(-0.0210946 0.0131562 0)
(-0.0291741 0.0237866 0)
(-0.0379089 0.034829 0)
(-0.0473884 0.0461741 0)
(-0.0576615 0.0576582 0)
(-0.068714 0.0691351 0)
(-0.0804707 0.080493 0)
(-0.0927272 0.0914962 0)
(-0.105173 0.101844 0)
(-0.117466 0.111161 0)
(-0.129271 0.119106 0)
(-0.140307 0.125406 0)
(-0.150354 0.12989 0)
(-0.159342 0.132589 0)
(-0.16731 0.133676 0)
(-0.174317 0.133352 0)
(-0.18042 0.131809 0)
(-0.185672 0.12922 0)
(-0.190113 0.125736 0)
(-0.19379 0.121494 0)
(-0.196758 0.116626 0)
(-0.19908 0.111258 0)
(-0.200831 0.105506 0)
(-0.202089 0.099476 0)
(-0.202931 0.0932605 0)
(-0.20343 0.0869364 0)
(-0.203653 0.0805658 0)
(-0.203657 0.0741955 0)
(-0.20349 0.0678598 0)
(-0.203193 0.0615812 0)
(-0.202795 0.0553729 0)
(-0.202319 0.0492401 0)
(-0.201782 0.0431818 0)
(-0.201194 0.0371916 0)
(-0.200563 0.0312591 0)
(-0.199894 0.0253712 0)
(-0.199191 0.0195119 0)
(-0.198455 0.0136647 0)
(-0.197692 0.00781134 0)
(-0.196903 0.00193164 0)
(-0.196093 -0.00399526 0)
(-0.195269 -0.00999148 0)
(-0.194441 -0.016081 0)
(-0.19362 -0.0222885 0)
(-0.192821 -0.0286409 0)
(-0.192063 -0.0351666 0)
(-0.191369 -0.041896 0)
(-0.190762 -0.0488619 0)
(-0.190272 -0.0560991 0)
(-0.189928 -0.0636443 0)
(-0.189759 -0.0715356 0)
(-0.189794 -0.0798108 0)
(-0.190052 -0.0885052 0)
(-0.190544 -0.0976466 0)
(-0.191261 -0.10725 0)
(-0.192169 -0.117306 0)
(-0.193195 -0.127774 0)
(-0.194208 -0.138562 0)
(-0.194999 -0.149503 0)
(-0.195244 -0.160306 0)
(-0.19449 -0.170429 0)
(-0.192153 -0.179027 0)
(-0.187473 -0.185251 0)
(-0.179684 -0.188235 0)
(-0.167406 -0.185434 0)
(-0.150782 -0.176492 0)
(-0.130506 -0.161191 0)
(-0.107872 -0.14016 0)
(-0.0843598 -0.114458 0)
(-0.0618341 -0.0859857 0)
(-0.0420983 -0.0574087 0)
(-0.0261431 -0.0307633 0)
(-0.014206 -0.00780698 0)
(-0.0061166 0.00999972 0)
(-0.00149939 0.0211567 0)
(0.00059579 0.0245882 0)
(0.000579862 0.0146407 0)
(-0.00157641 -0.00852311 0)
(-0.00864684 -6.20759e-05 0)
(-0.0162081 0.0106129 0)
(-0.024398 0.0213664 0)
(-0.0332489 0.0325756 0)
(-0.0426834 0.0442912 0)
(-0.0527787 0.0563645 0)
(-0.0635575 0.0685803 0)
(-0.0749701 0.0807298 0)
(-0.0868388 0.0925429 0)
(-0.0989206 0.103733 0)
(-0.110916 0.113944 0)
(-0.122491 0.122806 0)
(-0.133376 0.130023 0)
(-0.143328 0.135372 0)
(-0.15223 0.138815 0)
(-0.160087 0.14049 0)
(-0.166955 0.140605 0)
(-0.172889 0.139363 0)
(-0.177936 0.136952 0)
(-0.182145 0.133539 0)
(-0.185563 0.129277 0)
(-0.188255 0.124316 0)
(-0.190294 0.118799 0)
(-0.191764 0.112859 0)
(-0.192753 0.106618 0)
(-0.193347 0.100181 0)
(-0.193624 0.0936352 0)
(-0.193656 0.0870496 0)
(-0.193502 0.0804764 0)
(-0.193209 0.0739523 0)
(-0.192818 0.0675016 0)
(-0.192355 0.0611378 0)
(-0.191841 0.0548661 0)
(-0.191291 0.0486849 0)
(-0.190711 0.0425879 0)
(-0.190107 0.0365644 0)
(-0.18948 0.0306022 0)
(-0.188831 0.0246868 0)
(-0.188157 0.0188008 0)
(-0.187459 0.0129273 0)
(-0.186736 0.00704952 0)
(-0.18599 0.00114827 0)
(-0.185221 -0.00479583 0)
(-0.184435 -0.0108024 0)
(-0.18364 -0.0168925 0)
(-0.182844 -0.0230879 0)
(-0.182063 -0.0294117 0)
(-0.181313 -0.0358886 0)
(-0.180616 -0.0425454 0)
(-0.179997 -0.049411 0)
(-0.179485 -0.0565173 0)
(-0.179112 -0.063899 0)
(-0.178914 -0.0715941 0)
(-0.178925 -0.0796428 0)
(-0.179178 -0.088087 0)
(-0.179699 -0.0969666 0)
(-0.180502 -0.106316 0)
(-0.181581 -0.116155 0)
(-0.182899 -0.126481 0)