/*--------------------------------*- C++ -*----------------------------------*\
  =========                 |
  \\      /  F ield         | OpenFOAM: The Open Source CFD Toolbox
   \\    /   O peration     | Website:  https://openfoam.org
    \\  /    A nd           | Version:  13
     \\/     M anipulation  |
\*---------------------------------------------------------------------------*/
FoamFile
{
    format      ascii;
    class       volScalarField;
    location    "9";
    object      nut;
}
// * * * * * * * * * * * * * * * * * * * * * * * * * * * * * * * * * * * * * //

dimensions      [0 2 -1 0 0 0 0];

internalField   nonuniform List<scalar> 
400
(
2.03009e-07
7.03711e-07
2.79882e-06
5.62772e-06
7.48936e-06
8.91582e-06
1.00735e-05
1.11813e-05
1.21525e-05
1.31467e-05
1.40769e-05
1.50598e-05
1.60481e-05
1.66829e-05
1.69675e-05
1.69781e-05
1.56612e-05
1.23126e-05
7.61189e-06
5.50029e-06
9.09442e-07
3.93705e-06
7.07899e-06
1.42466e-05
1.84215e-05
2.4282e-05
2.82603e-05
3.35732e-05
3.76065e-05
4.15191e-05
4.43933e-05
4.65396e-05
4.72974e-05
4.79132e-05
4.76161e-05
4.54863e-05
4.41184e-05
3.53115e-05
1.96945e-05
1.1107e-05
2.95419e-06
1.3119e-05
2.25364e-05
2.94325e-05
3.6039e-05
4.21023e-05
4.73126e-05
5.21924e-05
5.51633e-05
5.78395e-05
5.94556e-05
6.04786e-05
6.0643e-05
6.05174e-05
5.93457e-05
5.62206e-05
5.259e-05
4.67142e-05
2.65787e-05
1.42187e-05
6.55793e-06
2.53725e-05
3.3225e-05
3.99753e-05
4.61261e-05
5.12156e-05
5.56857e-05
5.95731e-05
6.25311e-05
6.51202e-05
6.62555e-05
6.68231e-05
6.71134e-05
6.70309e-05
6.62887e-05
6.34449e-05
5.71675e-05
5.36714e-05
3.51312e-05
1.62466e-05
9.32324e-06
3.24729e-05
3.98719e-05
4.58294e-05
5.24007e-05
5.81406e-05
6.30554e-05
6.62472e-05
6.77557e-05
6.73928e-05
6.72642e-05
6.73475e-05
6.79036e-05
6.85505e-05
6.93676e-05
6.94531e-05
6.29145e-05
5.74908e-05
4.17403e-05
1.77609e-05
1.07555e-05
3.56631e-05
4.31881e-05
5.1213e-05
5.82289e-05
6.3752e-05
6.64796e-05
6.64003e-05
6.59622e-05
6.55947e-05
6.55186e-05
6.55879e-05
6.59157e-05
6.68781e-05
6.87198e-05
7.0988e-05
6.86303e-05
6.08824e-05
4.81817e-05
1.89907e-05
1.09824e-05
3.62656e-05
4.68782e-05
5.53762e-05
6.13465e-05
6.46831e-05
6.56045e-05
6.48299e-05
6.44711e-05
6.45804e-05
6.49444e-05
6.52054e-05
6.5119e-05
6.53259e-05
6.70698e-05
7.07294e-05
7.44284e-05
6.43904e-05
5.32556e-05
1.99447e-05
1.08172e-05
3.726e-05
4.93271e-05
5.70881e-05
6.22606e-05
6.45065e-05
6.45631e-05
6.38855e-05
6.42283e-05
6.51615e-05
6.61256e-05
6.65668e-05
6.61468e-05
6.57234e-05
6.58128e-05
6.91027e-05
7.54113e-05
6.86101e-05
5.8022e-05
2.07331e-05
1.04015e-05
3.68091e-05
4.96986e-05
5.7559e-05
6.23093e-05
6.40577e-05
6.38898e-05
6.36808e-05
6.49301e-05
6.65894e-05
6.78672e-05
6.82353e-05
6.73741e-05
6.63636e-05
6.60627e-05
6.73433e-05
7.28998e-05
7.24789e-05
6.14776e-05
2.12869e-05
9.59882e-06
3.65712e-05
4.95469e-05
5.74827e-05
6.21005e-05
6.36114e-05
6.35839e-05
6.38629e-05
6.55748e-05
6.75321e-05
6.87814e-05
6.89168e-05
6.82444e-05
6.74298e-05
6.68588e-05
6.78771e-05
7.19569e-05
7.48067e-05
6.48265e-05
2.17256e-05
8.76105e-06
3.46788e-05
4.81043e-05
5.64707e-05
6.11776e-05
6.31514e-05
6.32151e-05
6.34379e-05
6.4723e-05
6.65351e-05
6.8067e-05
6.84238e-05
6.81397e-05
6.7591e-05
6.75527e-05
6.82348e-05
7.17591e-05
7.67408e-05
6.72605e-05
2.1944e-05
8.02661e-06
3.24541e-05
4.67889e-05
5.55021e-05
6.07487e-05
6.22107e-05
6.28044e-05
6.30632e-05
6.39988e-05
6.53431e-05
6.64108e-05
6.65864e-05
6.67176e-05
6.72532e-05
6.7714e-05
6.86572e-05
7.15639e-05
7.77386e-05
6.90057e-05
2.20491e-05
7.23655e-06
2.85637e-05
4.36519e-05
5.27492e-05
5.8812e-05
6.17094e-05
6.22913e-05
6.24191e-05
6.28372e-05
6.35281e-05
6.43137e-05
6.47068e-05
6.51337e-05
6.62425e-05
6.7875e-05
6.9051e-05
7.1406e-05
7.84804e-05
6.9681e-05
2.20784e-05
6.49733e-06
2.58758e-05
4.07538e-05
5.0074e-05
5.66892e-05
6.07328e-05
6.15454e-05
6.17213e-05
6.18475e-05
6.20733e-05
6.27862e-05
6.33377e-05
6.41414e-05
6.57728e-05
6.80425e-05
7.01355e-05
7.13612e-05
7.83668e-05
6.96739e-05
2.20762e-05
5.66393e-06
2.15524e-05
3.60353e-05
4.6774e-05
5.40231e-05
5.92728e-05
6.07435e-05
6.11387e-05
6.13121e-05
6.13327e-05
6.21471e-05
6.26032e-05
6.36227e-05
6.54064e-05
6.77578e-05
7.04993e-05
7.05354e-05
7.66351e-05
6.7378e-05
2.16396e-05
4.79669e-06
1.89e-05
3.24216e-05
4.30772e-05
5.03617e-05
5.6333e-05
5.97448e-05
6.07046e-05
6.11314e-05
6.10895e-05
6.16767e-05
6.20264e-05
6.28268e-05
6.42138e-05
6.60232e-05
6.96503e-05
6.83739e-05
7.35769e-05
6.45611e-05
2.09299e-05
3.84092e-06
1.42701e-05
2.75677e-05
3.93702e-05
4.69186e-05
5.23824e-05
5.67999e-05
5.82977e-05
5.88697e-05
5.88635e-05
5.91282e-05
5.93648e-05
5.98851e-05
6.06963e-05
6.16665e-05
6.62376e-05
6.48545e-05
6.86859e-05
5.92342e-05
1.96799e-05
2.56381e-06
1.18319e-05
2.59371e-05
3.63119e-05
4.54263e-05
4.92928e-05
5.32624e-05
5.50157e-05
5.51279e-05
5.46904e-05
5.44621e-05
5.43076e-05
5.44121e-05
5.54476e-05
5.61122e-05
6.10779e-05
6.44373e-05
6.21509e-05
5.0726e-05
1.80554e-05
2.69967e-06
1.32962e-05
2.43186e-05
3.2037e-05
3.78195e-05
4.12534e-05
4.37699e-05
4.60951e-05
4.76438e-05
4.91853e-05
5.10203e-05
5.28252e-05
5.54063e-05
5.90061e-05
6.29434e-05
6.91177e-05
6.59094e-05
5.98158e-05
4.37847e-05
1.57143e-05
1.94788e-06
3.02916e-06
5.52468e-06
7.98975e-06
9.8099e-06
1.09674e-05
1.15996e-05
1.19886e-05
1.21736e-05
1.22899e-05
1.23356e-05
1.24273e-05
1.25195e-05
1.27255e-05
1.28893e-05
1.33328e-05
1.39117e-05
1.45481e-05
1.43894e-05
1.28403e-05
)
;

boundaryField
{
    movingWall
    {
        type            nutkWallFunction;
        Cmu             0.09;
        kappa           0.41;
        E               9.8;
        value           uniform 0;
    }
    fixedWalls
    {
        type            nutkWallFunction;
        Cmu             0.09;
        kappa           0.41;
        E               9.8;
        value           uniform 0;
    }
    frontAndBack
    {
        type            empty;
    }
}


// ************************************************************************* //
