/*--------------------------------*- C++ -*----------------------------------*\
  =========                 |
  \\      /  F ield         | OpenFOAM: The Open Source CFD Toolbox
   \\    /   O peration     | Website:  https://openfoam.org
    \\  /    A nd           | Version:  13
     \\/     M anipulation  |
\*---------------------------------------------------------------------------*/
FoamFile
{
    format      ascii;
    class       volScalarField;
    location    "9";
    object      p;
}
// * * * * * * * * * * * * * * * * * * * * * * * * * * * * * * * * * * * * * //

dimensions      [0 2 -2 0 0 0 0];

internalField   nonuniform List<scalar> 
400
(
3.57633e-08
-8.7216e-05
-0.000157385
-0.00040555
-0.0012831
-0.00276425
-0.00448991
-0.00613583
-0.00746136
-0.00833971
-0.00866225
-0.00833999
-0.00736031
-0.00570502
-0.00337575
-0.000509157
0.00258843
0.00532167
0.00701587
0.00736903
8.70362e-05
-1.78821e-05
-0.000246039
-0.000881773
-0.00203149
-0.00360118
-0.00530103
-0.00688038
-0.00816404
-0.00902842
-0.00937518
-0.00915719
-0.00832676
-0.006835
-0.00470138
-0.00200402
0.00100863
0.00385466
0.00587755
0.00667703
0.00026
-8.99275e-05
-0.000738674
-0.00182233
-0.00331097
-0.0050058
-0.00669327
-0.00821276
-0.00944329
-0.0102517
-0.010575
-0.0103827
-0.00965345
-0.00837444
-0.00654159
-0.00419677
-0.00148345
0.00129542
0.00362045
0.00478353
4.0208e-06
-0.000586552
-0.00167267
-0.00318706
-0.0049442
-0.00673511
-0.00839699
-0.00981377
-0.010891
-0.0115796
-0.0118535
-0.0116926
-0.0110764
-0.00999859
-0.00845967
-0.00648623
-0.00415612
-0.00164179
0.000684131
0.0019203
-0.000852427
-0.00164536
-0.0030335
-0.00478613
-0.00664998
-0.00843003
-0.00999832
-0.0112781
-0.0122233
-0.0128162
-0.0130465
-0.0129061
-0.0123885
-0.0114936
-0.0102246
-0.00860047
-0.00666561
-0.00451255
-0.00239616
-0.00122605
-0.00226747
-0.00314317
-0.0046276
-0.00641674
-0.00824844
-0.0099372
-0.0113797
-0.0125273
-0.0133612
-0.0138756
-0.0140699
-0.0139458
-0.0135075
-0.0127616
-0.0117173
-0.0103905
-0.00881149
-0.00703672
-0.00531193
-0.00420442
-0.0039008
-0.00477692
-0.00620626
-0.00791297
-0.00963459
-0.0111948
-0.0125068
-0.0135371
-0.0142785
-0.0147322
-0.0149024
-0.0147954
-0.0144199
-0.0137885
-0.0129168
-0.0118227
-0.0105349
-0.00909605
-0.0077484
-0.00676085
-0.00541768
-0.00624507
-0.00756124
-0.00914742
-0.0107375
-0.0121688
-0.0133654
-0.0143009
-0.0149724
-0.0153837
-0.0155406
-0.0154503
-0.0151227
-0.0145741
-0.0138264
-0.0129033
-0.0118381
-0.0106675
-0.0096322
-0.00875584
-0.00659448
-0.00736831
-0.00856424
-0.0100378
-0.0115115
-0.0128388
-0.0139495
-0.0148189
-0.0154444
-0.0158298
-0.0159806
-0.0159032
-0.0156079
-0.0151122
-0.014444
-0.0136349
-0.0127318
-0.0117475
-0.0109361
-0.0101608
-0.0073478
-0.00803759
-0.00914397
-0.0105404
-0.011932
-0.013194
-0.0142557
-0.0150903
-0.015693
-0.0160665
-0.0162154
-0.0161452
-0.0158658
-0.0153955
-0.0147669
-0.014017
-0.0132261
-0.0123348
-0.0117092
-0.010958
-0.0076347
-0.00824269
-0.00929446
-0.0106411
-0.0119918
-0.0132301
-0.0142808
-0.0151116
-0.0157139
-0.0160883
-0.0162382
-0.0161684
-0.0158885
-0.0154174
-0.0147917
-0.0140471
-0.0133316
-0.012422
-0.0119888
-0.0111459
-0.00744617
-0.00800827
-0.0090239
-0.0103477
-0.0116964
-0.0129474
-0.0140214
-0.0148779
-0.0155018
-0.0158902
-0.0160446
-0.0159687
-0.0156725
-0.0151753
-0.014518
-0.013755
-0.013011
-0.0120553
-0.0118184
-0.0107114
-0.00685912
-0.00740225
-0.0083924
-0.00969114
-0.0110616
-0.012353
-0.0134792
-0.0143883
-0.0150556
-0.015472
-0.015636
-0.0155491
-0.0152221
-0.0146758
-0.0139575
-0.0131278
-0.012302
-0.0113066
-0.0111514
-0.0096857
-0.00600341
-0.00651387
-0.00746211
-0.0087186
-0.0101062
-0.0114545
-0.0126576
-0.0136456
-0.0143792
-0.01484
-0.0150214
-0.0149224
-0.0145536
-0.013938
-0.0131302
-0.0121914
-0.0112522
-0.0101856
-0.00998259
-0.00814894
-0.0050524
-0.00548607
-0.00632767
-0.00749967
-0.00887764
-0.0102852
-0.0115828
-0.0126724
-0.0134945
-0.0140175
-0.0142283
-0.0141215
-0.013706
-0.0130065
-0.0120854
-0.011001
-0.00990901
-0.00869512
-0.00834368
-0.00613251
-0.00420126
-0.00445013
-0.00506664
-0.00608521
-0.00742336
-0.00888714
-0.0102925
-0.0115043
-0.0124381
-0.0130447
-0.0133029
-0.013203
-0.0127516
-0.0119668
-0.0109172
-0.00965031
-0.0083409
-0.0068629
-0.00621912
-0.00342685
-0.00363259
-0.00354084
-0.00380142
-0.00459579
-0.00586405
-0.00737385
-0.00889118
-0.010239
-0.0113044
-0.012017
-0.0123453
-0.0122727
-0.0118115
-0.0109543
-0.00976865
-0.00827281
-0.00663347
-0.00469327
-0.00338318
0.000795378
-0.00335954
-0.00275363
-0.0025831
-0.00313124
-0.00431773
-0.00585877
-0.007479
-0.00896934
-0.0101845
-0.0110278
-0.011453
-0.0114334
-0.0109827
-0.0100897
-0.0087819
-0.00701149
-0.00488849
-0.00210752
0.000755171
0.00832197
-0.00330767
-0.00210682
-0.00162653
-0.00198764
-0.00309749
-0.00465963
-0.00636897
-0.00798748
-0.00934059
-0.0103172
-0.0108556
-0.0109264
-0.0105123
-0.00959084
-0.00814537
-0.00607201
-0.00328535
0.00109873
0.00732401
0.0203531
-0.00381828
-0.000722393
-0.000125291
-0.000661594
-0.00181926
-0.0034373
-0.00526187
-0.00701516
-0.0085007
-0.00959167
-0.0102214
-0.0103505
-0.00995542
-0.00900902
-0.00746775
-0.00516434
-0.00123665
0.00574292
0.0177225
0.0355711
)
;

boundaryField
{
    movingWall
    {
        type            zeroGradient;
    }
    fixedWalls
    {
        type            zeroGradient;
    }
    frontAndBack
    {
        type            empty;
    }
}


// ************************************************************************* //
