/*--------------------------------*- C++ -*----------------------------------*\
  =========                 |
  \\      /  F ield         | OpenFOAM: The Open Source CFD Toolbox
   \\    /   O peration     | Website:  https://openfoam.org
    \\  /    A nd           | Version:  13
     \\/     M anipulation  |
\*---------------------------------------------------------------------------*/
FoamFile
{
    format      ascii;
    class       volScalarField;
    location    "4";
    object      epsilon;
}
// * * * * * * * * * * * * * * * * * * * * * * * * * * * * * * * * * * * * * //

dimensions      [0 2 -3 0 0 0 0];

internalField   nonuniform List<scalar> 
400
(
6.62602e-06
1.64416e-05
5.87413e-05
0.000234214
0.000500995
0.00067668
0.00081288
0.000924899
0.00103227
0.00112628
0.00122282
0.00131402
0.00141158
0.00148209
0.00151564
0.00152196
0.00142105
0.00111307
0.000679074
0.00048258
3.14505e-05
6.95586e-05
0.000221326
0.000559405
0.000738198
0.000795752
0.00083559
0.000856958
0.000903073
0.000957106
0.00103992
0.00114222
0.00127118
0.00142244
0.00159595
0.00177821
0.00187218
0.00188777
0.0015584
0.00111761
0.000128654
0.000281318
0.000593337
0.000731654
0.000766607
0.000782065
0.000793348
0.000809494
0.000865374
0.000930026
0.00101432
0.00111035
0.00122123
0.0013554
0.00151843
0.00171297
0.00189684
0.00197429
0.00188776
0.00157536
0.000322748
0.000583755
0.000717386
0.000739956
0.000741236
0.000735688
0.000735031
0.000762194
0.000805971
0.000856536
0.000916827
0.000987811
0.00108236
0.00120871
0.00138431
0.00162098
0.00190137
0.00204062
0.00205195
0.00188114
0.000529689
0.0007222
0.000748343
0.000717656
0.000683176
0.000667842
0.000663544
0.000675307
0.000695441
0.000720358
0.000756436
0.000810125
0.000894081
0.00102531
0.00123025
0.00153407
0.00193246
0.00220193
0.00225949
0.00212156
0.000674861
0.000776859
0.000735318
0.00066793
0.000620207
0.000597354
0.000583055
0.000576248
0.000573237
0.000573431
0.000587373
0.00062263
0.00069424
0.000825046
0.00105194
0.00141989
0.0019466
0.00240394
0.00253097
0.00231857
0.000753462
0.000768278
0.000698731
0.000611769
0.000561881
0.000533404
0.00050819
0.000485065
0.000462828
0.000449302
0.000445847
0.000463102
0.000518267
0.000636644
0.000866189
0.00127927
0.0019387
0.00262935
0.00285233
0.00248167
0.000748244
0.000738639
0.000644253
0.000561177
0.000511968
0.000479232
0.000446615
0.000413514
0.000381298
0.000356334
0.000345309
0.000348003
0.00038551
0.000483117
0.000696173
0.00112265
0.00187556
0.00284673
0.00324818
0.00261651
0.00072261
0.000683021
0.000592174
0.000517374
0.00047063
0.000436269
0.000400704
0.000363775
0.000328111
0.000298238
0.000280598
0.00027601
0.000297935
0.000372756
0.00055806
0.00097341
0.00179024
0.00301133
0.0036675
0.00271962
0.000658595
0.00063005
0.000544914
0.000480222
0.000437238
0.000403578
0.000368594
0.000332201
0.00029724
0.000267361
0.000246591
0.000238485
0.000250979
0.000304631
0.000457437
0.000842618
0.00169646
0.00312422
0.00412052
0.00279888
0.000590555
0.000581765
0.000507021
0.000449834
0.000410645
0.000379072
0.000346784
0.000313446
0.000281479
0.000253768
0.000233189
0.000224106
0.00023221
0.000272595
0.000395591
0.000739582
0.00158793
0.00317853
0.00457357
0.00284611
0.000525614
0.000540754
0.000480665
0.000427654
0.000391384
0.000361784
0.000332437
0.000302772
0.000274501
0.000249789
0.000230703
0.000221995
0.000228396
0.00026239
0.00036656
0.000667874
0.00147731
0.00319731
0.00500665
0.00286823
0.000460533
0.000504011
0.00045875
0.000412052
0.000377746
0.000349674
0.000322966
0.000296909
0.000272336
0.000250568
0.000233204
0.000226578
0.000233033
0.000263135
0.000357088
0.000627256
0.00138331
0.00319552
0.00532906
0.00287452
0.000393617
0.000478028
0.000450053
0.000408877
0.000378373
0.000350662
0.000324021
0.000298372
0.000274545
0.00025404
0.000238112
0.000234882
0.000243087
0.000274168
0.000361614
0.000612004
0.00131281
0.00314621
0.00547443
0.00286689
0.000319487
0.000434025
0.000430638
0.000411826
0.000385994
0.000359625
0.000332545
0.000306281
0.000282116
0.00026183
0.000246366
0.000246659
0.000257695
0.000293618
0.000384537
0.000624485
0.00128638
0.00311802
0.00549915
0.00285119
0.000248777
0.000391514
0.000419707
0.000419548
0.000408274
0.000384744
0.000356591
0.000327907
0.000301491
0.000279616
0.000266007
0.000269015
0.000286524
0.000335428
0.000446758
0.000710377
0.00134515
0.00311725
0.00515459
0.0028086
0.000169064
0.0002931
0.000385154
0.000435304
0.000445232
0.000435337
0.000411183
0.000381089
0.000354187
0.000332929
0.000331363
0.000344906
0.000386383
0.000479137
0.000656258
0.001029
0.00169546
0.0033755
0.00466555
0.00274072
0.000169709
0.000272921
0.00042671
0.000521528
0.000570265
0.000584468
0.000579078
0.000566873
0.000566597
0.00057939
0.000621548
0.000711751
0.000868709
0.00113499
0.00148077
0.00220238
0.00295128
0.00428481
0.00440939
0.00262246
0.000242069
0.000341396
0.000683712
0.000924309
0.00109749
0.00122764
0.00133949
0.00146903
0.00163583
0.00185468
0.00216465
0.0025752
0.00314926
0.00389347
0.00480868
0.00598957
0.00612008
0.00564735
0.00453459
0.00242372
0.000182131
0.000301437
0.000569926
0.000840017
0.00107317
0.00124727
0.00139644
0.00149098
0.00159316
0.00165193
0.00174865
0.00180653
0.00192471
0.00200596
0.0021522
0.00226924
0.00238371
0.00246263
0.00242466
0.00216978
)
;

boundaryField
{
    movingWall
    {
        type            epsilonWallFunction;
        value           nonuniform List<scalar> 
20
(
0.000182131
0.000301437
0.000569926
0.000840017
0.00107317
0.00124727
0.00139644
0.00149098
0.00159316
0.00165193
0.00174865
0.00180653
0.00192471
0.00200596
0.0021522
0.00226924
0.00238371
0.00246263
0.00242466
0.00216978
)
;
    }
    fixedWalls
    {
        type            epsilonWallFunction;
        value           nonuniform List<scalar> 
60
(
6.62602e-06
3.14505e-05
0.000128654
0.000322748
0.000529689
0.000674861
0.000753462
0.000748244
0.00072261
0.000658595
0.000590555
0.000525614
0.000460533
0.000393617
0.000319487
0.000248777
0.000169064
0.000169709
0.000242069
0.000182131
0.00048258
0.00111761
0.00157536
0.00188114
0.00212156
0.00231857
0.00248167
0.00261651
0.00271962
0.00279888
0.00284611
0.00286823
0.00287452
0.00286689
0.00285119
0.0028086
0.00274072
0.00262246
0.00242372
0.00216978
6.62602e-06
1.64416e-05
5.87413e-05
0.000234214
0.000500995
0.00067668
0.00081288
0.000924899
0.00103227
0.00112628
0.00122282
0.00131402
0.00141158
0.00148209
0.00151564
0.00152196
0.00142105
0.00111307
0.000679074
0.00048258
)
;
    }
    frontAndBack
    {
        type            empty;
    }
}


// ************************************************************************* //
