/*--------------------------------*- C++ -*----------------------------------*\
  =========                 |
  \\      /  F ield         | OpenFOAM: The Open Source CFD Toolbox
   \\    /   O peration     | Website:  https://openfoam.org
    \\  /    A nd           | Version:  13
     \\/     M anipulation  |
\*---------------------------------------------------------------------------*/
FoamFile
{
    format      ascii;
    class       volScalarField;
    location    "4";
    object      p;
}
// * * * * * * * * * * * * * * * * * * * * * * * * * * * * * * * * * * * * * //

dimensions      [0 2 -2 0 0 0 0];

internalField   nonuniform List<scalar> 
400
(
2.65262e-08
-4.31259e-05
-9.63463e-05
-0.000135188
-0.000284395
-0.000822208
-0.0016801
-0.00261022
-0.00342088
-0.00397722
-0.00420533
-0.00403404
-0.00344273
-0.00242789
-0.000989374
0.000787656
0.00269445
0.00433616
0.00530672
0.00545305
2.16208e-05
-1.41768e-05
-5.17644e-05
-0.000229472
-0.000628455
-0.00131415
-0.00220349
-0.00310497
-0.00387939
-0.00442216
-0.00466641
-0.00455529
-0.00407095
-0.00316759
-0.00185146
-0.000166389
0.00171257
0.00345862
0.00465443
0.00509077
0.000131326
2.32408e-05
-0.000193349
-0.000600692
-0.00126162
-0.00212316
-0.00305914
-0.00394203
-0.00468845
-0.0052155
-0.00544639
-0.00535014
-0.00492649
-0.00415701
-0.00303267
-0.00157233
0.000139028
0.00189259
0.00333246
0.00402122
0.000127196
-9.10354e-05
-0.00052777
-0.00121941
-0.00211992
-0.00311557
-0.00409419
-0.00496378
-0.00565765
-0.00611486
-0.00631246
-0.00623885
-0.00587817
-0.00523362
-0.00429956
-0.00307716
-0.00159962
2.24754e-05
0.0015246
0.00228937
-0.000144572
-0.000472339
-0.00110282
-0.00201257
-0.00306123
-0.00412026
-0.00509806
-0.00592499
-0.00655451
-0.00695499
-0.00711979
-0.00704964
-0.00674661
-0.00621694
-0.00545943
-0.00446888
-0.00325009
-0.00184454
-0.000420553
0.000304792
-0.000712009
-0.0011222
-0.00187088
-0.0028774
-0.00397711
-0.00503921
-0.00598383
-0.00675641
-0.0073262
-0.00767799
-0.00781294
-0.00774065
-0.00747644
-0.00703503
-0.00642155
-0.00562977
-0.0046505
-0.00349509
-0.00229934
-0.00160738
-0.00147724
-0.00192504
-0.00270699
-0.00371359
-0.0047974
-0.00582374
-0.00671874
-0.00743621
-0.00795347
-0.00826314
-0.00837143
-0.00829391
-0.00805331
-0.00767263
-0.00716527
-0.00652849
-0.00574864
-0.00482289
-0.00388468
-0.00326276
-0.00227179
-0.00271476
-0.00347435
-0.00443403
-0.00547074
-0.00644498
-0.0072873
-0.0079554
-0.0084295
-0.00870538
-0.00879149
-0.00870666
-0.00847791
-0.00813472
-0.00769879
-0.00717364
-0.00654732
-0.00581315
-0.00510678
-0.0045516
-0.00294867
-0.00336747
-0.00407707
-0.00497825
-0.00595948
-0.00688102
-0.00767735
-0.00830685
-0.00874951
-0.00900108
-0.00907008
-0.00897647
-0.00875012
-0.00842579
-0.0080329
-0.00758217
-0.007067
-0.00647434
-0.00594413
-0.00545263
-0.00343922
-0.00380278
-0.00445951
-0.00530979
-0.00623851
-0.00711553
-0.00787817
-0.00848258
-0.00890645
-0.00914359
-0.00920095
-0.00909828
-0.0088674
-0.00854748
-0.00817448
-0.0077669
-0.00733408
-0.00682648
-0.00643005
-0.00596365
-0.0037062
-0.00401549
-0.00461235
-0.0054142
-0.00629463
-0.00713875
-0.0078811
-0.00847441
-0.00889227
-0.00912493
-0.00917692
-0.00906695
-0.00882822
-0.00850355
-0.00813351
-0.00774156
-0.00737763
-0.0068864
-0.00660698
-0.00610154
-0.00374069
-0.00401376
-0.00455097
-0.00529127
-0.00613069
-0.00695095
-0.00768417
-0.00827874
-0.00870252
-0.00894082
-0.00899487
-0.00888163
-0.0086352
-0.00830138
-0.00792555
-0.00754162
-0.0071974
-0.00667158
-0.00654358
-0.00587514
-0.00360064
-0.00383597
-0.00431037
-0.00497527
-0.00576462
-0.00656283
-0.00729462
-0.00790087
-0.00834184
-0.00859642
-0.0086615
-0.00855175
-0.00830108
-0.00795782
-0.00757111
-0.00717761
-0.00681973
-0.00623912
-0.00628577
-0.00530041
-0.00336703
-0.00354071
-0.00392915
-0.00450485
-0.00522742
-0.00599858
-0.00673295
-0.00735985
-0.0078293
-0.00811205
-0.00819957
-0.00810385
-0.00785617
-0.00750625
-0.0071052
-0.00668759
-0.00629831
-0.00566124
-0.00582343
-0.00440621
-0.00313255
-0.00321533
-0.00346935
-0.00392556
-0.00456555
-0.00530294
-0.00604157
-0.00669652
-0.00720538
-0.00752919
-0.00765294
-0.00758559
-0.00735186
-0.00700036
-0.00658177
-0.00612456
-0.00567987
-0.00496254
-0.0051282
-0.00321961
-0.00294402
-0.00289167
-0.00296785
-0.00328184
-0.00383207
-0.0045347
-0.00528121
-0.00597196
-0.00653151
-0.00691022
-0.00708488
-0.00705703
-0.00685615
-0.00651072
-0.00606843
-0.00554511
-0.00499541
-0.00411849
-0.00411208
-0.00159069
-0.00283286
-0.00259875
-0.00247141
-0.00263983
-0.00310413
-0.00377668
-0.00453541
-0.00526744
-0.00588574
-0.00633088
-0.00657136
-0.0066011
-0.00643642
-0.0060962
-0.00561202
-0.00497291
-0.00422271
-0.00301903
-0.00250572
0.00136407
-0.00276616
-0.00227544
-0.00198528
-0.00203439
-0.00243822
-0.00310243
-0.00388887
-0.00467114
-0.00535188
-0.00586411
-0.00616927
-0.00625062
-0.00611031
-0.00575147
-0.00519455
-0.00438794
-0.00331166
-0.00145883
0.000389284
0.00759204
-0.00287242
-0.00205485
-0.00162378
-0.00158347
-0.00195117
-0.00261791
-0.00343615
-0.00427091
-0.00501711
-0.00559681
-0.0059694
-0.00610911
-0.00601712
-0.00567428
-0.00505215
-0.00399651
-0.00239773
0.000734831
0.005596
0.0181993
-0.00345377
-0.000821123
-0.000291554
-0.000433145
-0.000889336
-0.00161052
-0.0025074
-0.003444
-0.004289
-0.00495433
-0.00538502
-0.005557
-0.00544658
-0.0050372
-0.00426791
-0.00301642
-0.000658423
0.0045228
0.0143364
0.0310283
)
;

boundaryField
{
    movingWall
    {
        type            zeroGradient;
    }
    fixedWalls
    {
        type            zeroGradient;
    }
    frontAndBack
    {
        type            empty;
    }
}


// ************************************************************************* //
