/*--------------------------------*- C++ -*----------------------------------*\
  =========                 |
  \\      /  F ield         | OpenFOAM: The Open Source CFD Toolbox
   \\    /   O peration     | Website:  https://openfoam.org
    \\  /    A nd           | Version:  13
     \\/     M anipulation  |
\*---------------------------------------------------------------------------*/
FoamFile
{
    format      ascii;
    class       surfaceScalarField;
    location    "4";
    object      phi;
}
// * * * * * * * * * * * * * * * * * * * * * * * * * * * * * * * * * * * * * //

dimensions      [0 3 -1 0 0 0 0];

internalField   nonuniform List<scalar> 
760
(
1.13792e-07
-1.13795e-07
5.25765e-08
6.12158e-08
-2.58483e-07
3.11059e-07
-9.83938e-07
7.25455e-07
-2.06592e-06
1.08198e-06
-3.15236e-06
1.08643e-06
-4.08204e-06
9.2968e-07
-4.85091e-06
7.68872e-07
-5.43174e-06
5.80832e-07
-5.83472e-06
4.02979e-07
-6.06665e-06
2.31925e-07
-6.13581e-06
6.91605e-08
-6.02051e-06
-1.15292e-07
-5.72677e-06
-2.9374e-07
-5.2054e-06
-5.21373e-07
-4.43192e-06
-7.73482e-07
-3.37391e-06
-1.05801e-06
-2.07832e-06
-1.29559e-06
-7.55393e-07
-1.32293e-06
-7.55393e-07
-1.04744e-07
-9.05145e-09
-5.81009e-07
5.37481e-07
-1.50781e-06
1.23786e-06
-2.64906e-06
1.8667e-06
-3.5825e-06
2.01543e-06
-4.35766e-06
1.86159e-06
-5.02895e-06
1.60097e-06
-5.55617e-06
1.2961e-06
-5.95899e-06
9.83646e-07
-6.2375e-06
6.81486e-07
-6.38365e-06
3.78082e-07
-6.38013e-06
6.56391e-08
-6.24984e-06
-2.45589e-07
-5.96064e-06
-5.8294e-07
-5.50629e-06
-9.75716e-07
-4.84327e-06
-1.4365e-06
-3.93869e-06
-1.96259e-06
-2.74818e-06
-2.48609e-06
-1.32464e-06
-2.74647e-06
-2.08003e-06
-5.05335e-07
4.96283e-07
-1.38295e-06
1.4151e-06
-2.39871e-06
2.25361e-06
-3.2396e-06
2.70759e-06
-3.91575e-06
2.69157e-06
-4.47946e-06
2.42531e-06
-4.93844e-06
2.05994e-06
-5.28925e-06
1.64692e-06
-5.52635e-06
1.22074e-06
-5.66039e-06
8.15532e-07
-5.69562e-06
4.13302e-07
-5.63768e-06
7.70278e-09
-5.49576e-06
-3.87505e-07
-5.2502e-06
-8.28505e-07
-4.88491e-06
-1.341e-06
-4.37307e-06
-1.94834e-06
-3.67653e-06
-2.65913e-06
-2.73724e-06
-3.42539e-06
-1.49561e-06
-3.9881e-06
-3.57564e-06
-7.72141e-07
1.26842e-06
-1.70165e-06
2.34461e-06
-2.5401e-06
3.09206e-06
-3.17877e-06
3.34627e-06
-3.67275e-06
3.18555e-06
-4.06359e-06
2.81615e-06
-4.3588e-06
2.35515e-06
-4.56512e-06
1.85324e-06
-4.6937e-06
1.34932e-06
-4.74438e-06
8.66208e-07
-4.72746e-06
3.96386e-07
-4.65431e-06
-6.54525e-08
-4.51078e-06
-5.31033e-07
-4.3024e-06
-1.03689e-06
-4.02111e-06
-1.62228e-06
-3.6421e-06
-2.32736e-06
-3.12379e-06
-3.17744e-06
-2.40144e-06
-4.14774e-06
-1.37565e-06
-5.01389e-06
-4.9513e-06
-8.17845e-07
2.08627e-06
-1.64933e-06
3.1761e-06
-2.31137e-06
3.75409e-06
-2.80222e-06
3.83713e-06
-3.16934e-06
3.55268e-06
-3.44343e-06
3.09023e-06
-3.63669e-06
2.54841e-06
-3.75986e-06
1.97641e-06
-3.82117e-06
1.41063e-06
-3.82265e-06
8.67689e-07
-3.77184e-06
3.45575e-07
-3.67584e-06
-1.61452e-07
-3.53666e-06
-6.70213e-07
-3.36079e-06
-1.21276e-06
-3.14782e-06
-1.83525e-06
-2.88026e-06
-2.59492e-06
-2.51478e-06
-3.54292e-06
-1.97989e-06
-4.68263e-06
-1.17126e-06
-5.82252e-06
-6.12256e-06
-7.20214e-07
2.80648e-06
-1.4006e-06
3.85649e-06
-1.9115e-06
4.26499e-06
-2.28998e-06
4.21561e-06
-2.56737e-06
3.83006e-06
-2.76585e-06
3.28872e-06
-2.898e-06
2.68056e-06
-2.97412e-06
2.05253e-06
-2.9998e-06
1.43631e-06
-2.97733e-06
8.45224e-07
-2.91167e-06
2.7991e-07
-2.80888e-06
-2.64237e-07
-2.67712e-06
-8.0197e-07
-2.52714e-06
-1.36275e-06
-2.36576e-06
-1.99663e-06
-2.18586e-06
-2.77482e-06
-1.95557e-06
-3.77321e-06
-1.59889e-06
-5.0393e-06
-9.62305e-07
-6.4591e-06
-7.08486e-06
-5.68576e-07
3.37506e-06
-1.0778e-06
4.36571e-06
-1.45631e-06
4.6435e-06
-1.73792e-06
4.49722e-06
-1.94483e-06
4.03698e-06
-2.09133e-06
3.43522e-06
-2.18718e-06
2.77641e-06
-2.23969e-06
2.10504e-06
-2.25167e-06
1.44829e-06
-2.22429e-06
8.17844e-07
-2.16053e-06
2.16146e-07
-2.0656e-06
-3.59164e-07
-1.9489e-06
-9.18673e-07
-1.82415e-06
-1.4875e-06
-1.70416e-06
-2.11662e-06
-1.58926e-06
-2.88971e-06
-1.45508e-06
-3.9074e-06
-1.23294e-06
-5.26144e-06
-8.05638e-07
-6.8864e-06
-7.8905e-06
-3.8129e-07
3.75635e-06
-7.31357e-07
4.71578e-06
-9.90596e-07
4.90273e-06
-1.1861e-06
4.69272e-06
-1.33367e-06
4.18454e-06
-1.44076e-06
3.54231e-06
-1.51307e-06
2.84872e-06
-1.55432e-06
2.14629e-06
-1.56494e-06
1.45892e-06
-1.54454e-06
7.97442e-07
-1.4942e-06
1.65804e-07
-1.41801e-06
-4.35351e-07
-1.32506e-06
-1.01163e-06
-1.23039e-06
-1.58217e-06
-1.15151e-06
-2.1955e-06
-1.09583e-06
-2.94539e-06
-1.0437e-06
-3.95953e-06
-9.28341e-07
-5.3768e-06
-6.45333e-07
-7.16941e-06
-8.53583e-06
-2.04833e-07
3.96118e-06
-3.94584e-07
4.90553e-06
-5.39857e-07
5.04801e-06
-6.52469e-07
4.80533e-06
-7.44128e-07
4.2762e-06
-8.15494e-07
3.61368e-06
-8.68033e-07
2.90125e-06
-9.0206e-07
2.18032e-06
-9.16072e-07
1.47293e-06
-9.08286e-07
7.89657e-07
-8.78263e-07
1.35781e-07
-8.28778e-07
-4.84836e-07
-7.68091e-07
-1.07232e-06
-7.11015e-07
-1.63924e-06
-6.76675e-07
-2.22984e-06
-6.78103e-07
-2.94396e-06
-7.00641e-07
-3.937e-06
-6.79187e-07
-5.39825e-06
-5.32237e-07
-7.31636e-06
-9.06807e-06
-1.15873e-08
3.97277e-06
-7.14921e-08
4.96543e-06
-1.10918e-07
5.08743e-06
-1.44762e-07
4.83918e-06
-1.77499e-07
4.30894e-06
-2.10371e-07
3.64655e-06
-2.40485e-07
2.93137e-06
-2.65475e-07
2.20531e-06
-2.82428e-07
1.48988e-06
-2.88537e-07
7.95765e-07
-2.82536e-07
1.2978e-07
-2.66085e-07
-5.01287e-07
-2.46371e-07
-1.09203e-06
-2.36978e-07
-1.64864e-06
-2.55697e-07
-2.21112e-06
-3.15584e-07
-2.88407e-06
-4.13702e-07
-3.83888e-06
-4.76851e-07
-5.3351e-06
-4.30383e-07
-7.36283e-06
-9.49845e-06
1.543e-07
3.81847e-06
2.35975e-07
4.88376e-06
3.05061e-07
5.01835e-06
3.52018e-07
4.79222e-06
3.75301e-07
4.28566e-06
3.83214e-07
3.63864e-06
3.79585e-07
2.935e-06
3.6793e-07
2.21696e-06
3.51373e-07
1.50644e-06
3.32533e-07
8.14605e-07
3.12587e-07
1.49725e-07
2.90536e-07
-4.79236e-07
2.60913e-07
-1.06241e-06
2.13047e-07
-1.60077e-06
1.31387e-07
-2.12946e-06
-1.56672e-09
-2.75112e-06
-1.62959e-07
-3.67748e-06
-3.07028e-07
-5.19103e-06
-3.57676e-07
-7.31218e-06
-9.85613e-06
3.02171e-07
3.5163e-06
5.1575e-07
4.67018e-06
6.84772e-07
4.84932e-06
8.13124e-07
4.66387e-06
9.0387e-07
4.19491e-06
9.6201e-07
3.5805e-06
9.93147e-07
2.90386e-06
1.00185e-06
2.20826e-06
9.91108e-07
1.51718e-06
9.6268e-07
8.43033e-07
9.16677e-07
1.95728e-07
8.52442e-07
-4.15e-07
7.66732e-07
-9.76696e-07
6.53458e-07
-1.4875e-06
5.03421e-07
-1.97942e-06
3.08506e-07
-2.5562e-06
7.22596e-08
-3.44124e-06
-1.60942e-07
-4.95783e-06
-2.92255e-07
-7.18087e-06
-1.01484e-05
4.3337e-07
3.08293e-06
7.57972e-07
4.34558e-06
1.01623e-06
4.59107e-06
1.23378e-06
4.44632e-06
1.39992e-06
4.02877e-06
1.51764e-06
3.46278e-06
1.59307e-06
2.82843e-06
1.6304e-06
2.17093e-06
1.63191e-06
1.51566e-06
1.59815e-06
8.76796e-07
1.52792e-06
2.65958e-07
1.42012e-06
-3.07196e-07
1.27453e-06
-8.31106e-07
1.09081e-06
-1.30378e-06
8.67314e-07
-1.75593e-06
5.9786e-07
-2.28675e-06
2.79572e-07
-3.12295e-06
-4.10444e-08
-4.63721e-06
-2.26763e-07
-6.99515e-06
-1.03751e-05
5.16579e-07
2.56635e-06
9.29745e-07
3.93241e-06
1.2798e-06
4.24102e-06
1.58925e-06
4.13686e-06
1.84044e-06
3.77759e-06
2.03041e-06
3.2728e-06
2.16164e-06
2.69721e-06
2.23696e-06
2.0956e-06
2.25773e-06
1.4949e-06
2.22359e-06
9.10941e-07
2.13283e-06
3.56717e-07
1.98321e-06
-1.57575e-07
1.77891e-06
-6.26813e-07
1.52518e-06
-1.05005e-06
1.22856e-06
-1.4593e-06
8.87772e-07
-1.94596e-06
4.99473e-07
-2.73465e-06
1.18079e-07
-4.25582e-06
-1.14869e-07
-6.7622e-06
-1.049e-05
5.44203e-07
2.02215e-06
1.02589e-06
3.45072e-06
1.4603e-06
3.80661e-06
1.85732e-06
3.73983e-06
2.19795e-06
3.43696e-06
2.46931e-06
3.00145e-06
2.66679e-06
2.49973e-06
2.79001e-06
1.97238e-06
2.83848e-06
1.44643e-06
2.81111e-06
9.38307e-07
2.70729e-06
4.60544e-07
2.52425e-06
2.54628e-08
2.27101e-06
-3.73569e-07
1.95741e-06
-7.36453e-07
1.59557e-06
-1.09746e-06
1.19165e-06
-1.54205e-06
7.45622e-07
-2.28863e-06
3.17265e-07
-3.82746e-06
4.7521e-08
-6.49246e-06
-1.04425e-05
4.46703e-07
1.57544e-06
9.66284e-07
2.93114e-06
1.4946e-06
3.27829e-06
1.99345e-06
3.24099e-06
2.43386e-06
2.99655e-06
2.79624e-06
2.63907e-06
3.06997e-06
2.226e-06
3.25049e-06
1.79186e-06
3.33605e-06
1.36087e-06
3.32598e-06
9.48377e-07
3.22105e-06
5.65477e-07
3.02846e-06
2.1805e-07
2.74891e-06
-9.40208e-08
2.40004e-06
-3.87583e-07
1.99426e-06
-6.91684e-07
1.54441e-06
-1.09219e-06
1.05676e-06
-1.80098e-06
5.73062e-07
-3.34376e-06
2.01609e-07
-6.12101e-06
-1.02409e-05
2.78678e-07
1.29677e-06
8.22129e-07
2.38769e-06
1.41757e-06
2.68285e-06
2.00471e-06
2.65385e-06
2.53589e-06
2.46537e-06
2.98348e-06
2.19148e-06
3.3339e-06
1.87558e-06
3.57902e-06
1.54673e-06
3.71598e-06
1.22391e-06
3.74571e-06
9.18652e-07
3.6721e-06
6.39083e-07
3.50288e-06
3.87265e-07
3.2449e-06
1.63967e-07
2.90807e-06
-5.07576e-08
2.50824e-06
-2.91852e-07
2.05455e-06
-6.38506e-07
1.5418e-06
-1.28823e-06
9.83312e-07
-2.78527e-06
4.4511e-07
-5.58281e-06
-9.79578e-06
-1.70223e-07
1.46699e-06
3.52315e-07
1.86515e-06
1.05752e-06
1.97764e-06
1.77522e-06
1.93615e-06
2.43428e-06
1.80631e-06
3.00264e-06
1.62312e-06
3.46644e-06
1.41178e-06
3.81771e-06
1.19547e-06
4.0527e-06
9.8892e-07
4.17459e-06
7.96758e-07
4.19064e-06
6.23033e-07
4.11112e-06
4.66791e-07
3.94634e-06
3.28741e-07
3.71688e-06
1.78707e-07
3.422e-06
3.02336e-09
3.03925e-06
-2.55748e-07
2.52311e-06
-7.72092e-07
1.87123e-06
-2.1334e-06
9.56802e-07
-4.66837e-06
-8.83897e-06
-5.3804e-07
2.00503e-06
1.49124e-07
1.17799e-06
1.05088e-06
1.07588e-06
1.93388e-06
1.05315e-06
2.73972e-06
1.00047e-06
3.44746e-06
9.1538e-07
4.04377e-06
8.15471e-07
4.52817e-06
7.11065e-07
4.90141e-06
6.15682e-07
5.17726e-06
5.20909e-07
5.35813e-06
4.42167e-07
5.46538e-06
3.59536e-07
5.49818e-06
2.95943e-07
5.46844e-06
2.08449e-07
5.33434e-06
1.37124e-07
5.12581e-06
-4.72262e-08
4.73338e-06
-3.79656e-07
4.0042e-06
-1.40422e-06
2.37397e-06
-3.03815e-06
-6.465e-06
2.00503e-06
3.18302e-06
4.2589e-06
5.31205e-06
6.31252e-06
7.2279e-06
8.04337e-06
8.75444e-06
9.37012e-06
9.89103e-06
1.03332e-05
1.06927e-05
1.09887e-05
1.11971e-05
1.13342e-05
1.1287e-05
1.09074e-05
9.50315e-06
6.465e-06
)
;

boundaryField
{
    movingWall
    {
        type            calculated;
        value           uniform 0;
    }
    fixedWalls
    {
        type            calculated;
        value           uniform 0;
    }
    frontAndBack
    {
        type            empty;
    }
}


// ************************************************************************* //
