/*--------------------------------*- C++ -*----------------------------------*\
  =========                 |
  \\      /  F ield         | OpenFOAM: The Open Source CFD Toolbox
   \\    /   O peration     | Website:  https://openfoam.org
    \\  /    A nd           | Version:  13
     \\/     M anipulation  |
\*---------------------------------------------------------------------------*/
FoamFile
{
    format      ascii;
    class       volVectorField;
    location    "4";
    object      U;
}
// * * * * * * * * * * * * * * * * * * * * * * * * * * * * * * * * * * * * * //

dimensions      [0 1 -1 0 0 0 0];

internalField   nonuniform List<vector> 
400
(
(0.00150897 -0.00148198 0)
(0.00279121 -0.000655981 0)
(-0.000798877 0.000412359 0)
(-0.00886099 0.00300287 0)
(-0.0283744 0.0101268 0)
(-0.0549452 0.011776 0)
(-0.0742392 0.00952279 0)
(-0.0918912 0.00810848 0)
(-0.10449 0.00584169 0)
(-0.114263 0.00424301 0)
(-0.120129 0.00221861 0)
(-0.122805 0.000680816 0)
(-0.122719 -0.00194854 0)
(-0.11799 -0.00400409 0)
(-0.109701 -0.00688534 0)
(-0.0958065 -0.00915465 0)
(-0.0772772 -0.0117373 0)
(-0.0536528 -0.0130748 0)
(-0.0275829 -0.0113261 0)
(-0.00560747 -0.00296782 0)
(0.000305008 -0.00342917 0)
(-0.00474302 0.0032092 0)
(-0.0173938 0.0131235 0)
(-0.0417577 0.0274558 0)
(-0.06294 0.0324048 0)
(-0.0813396 0.0300926 0)
(-0.0954319 0.0261128 0)
(-0.107506 0.0214112 0)
(-0.115941 0.0165233 0)
(-0.123115 0.0111827 0)
(-0.126974 0.00639676 0)
(-0.128572 0.00154652 0)
(-0.127083 -0.00356233 0)
(-0.122818 -0.0092647 0)
(-0.115141 -0.0160173 0)
(-0.103512 -0.0241253 0)
(-0.0873907 -0.032925 0)
(-0.0666528 -0.0404478 0)
(-0.041079 -0.0413429 0)
(-0.0143326 -0.0252045 0)
(-0.00344057 0.00325983 0)
(-0.0167825 0.0194394 0)
(-0.0374768 0.0366393 0)
(-0.0574319 0.046576 0)
(-0.0726943 0.0473581 0)
(-0.0853569 0.0429823 0)
(-0.0951734 0.0365641 0)
(-0.103195 0.0291867 0)
(-0.109053 0.0216691 0)
(-0.112604 0.0148403 0)
(-0.114062 0.00773568 0)
(-0.113756 0.000654354 0)
(-0.111898 -0.00685145 0)
(-0.107997 -0.0149471 0)
(-0.101835 -0.0243522 0)
(-0.0928448 -0.0354029 0)
(-0.0803862 -0.0482696 0)
(-0.0639428 -0.0618655 0)
(-0.0422362 -0.0705463 0)
(-0.0183926 -0.058775 0)
(-0.00685831 0.0176948 0)
(-0.0239999 0.0384884 0)
(-0.04341 0.0543355 0)
(-0.0587065 0.0608603 0)
(-0.0695836 0.0588966 0)
(-0.0783989 0.0525828 0)
(-0.0849558 0.0443049 0)
(-0.0899401 0.035139 0)
(-0.0931496 0.0258632 0)
(-0.0947763 0.0168752 0)
(-0.0950787 0.0081073 0)
(-0.0941383 -0.000497398 0)
(-0.0919914 -0.00944101 0)
(-0.0884742 -0.0191769 0)
(-0.0836044 -0.0304549 0)
(-0.0769847 -0.0439309 0)
(-0.0678491 -0.0599034 0)
(-0.0551778 -0.0775526 0)
(-0.0371019 -0.0922449 0)
(-0.0175214 -0.0883455 0)
(-0.00808457 0.0336194 0)
(-0.0249323 0.055419 0)
(-0.0411218 0.0687171 0)
(-0.0526043 0.0719452 0)
(-0.0606274 0.0675321 0)
(-0.066921 0.0592617 0)
(-0.0713651 0.0492426 0)
(-0.0744506 0.0384885 0)
(-0.0761757 0.0277474 0)
(-0.0767175 0.017407 0)
(-0.07618 0.00743851 0)
(-0.0746754 -0.00227909 0)
(-0.0723082 -0.0121254 0)
(-0.069159 -0.0227508 0)
(-0.0653021 -0.03503 0)
(-0.0605743 -0.0499683 0)
(-0.0543316 -0.0683774 0)
(-0.0450863 -0.0900291 0)
(-0.03056 -0.110178 0)
(-0.0159701 -0.113202 0)
(-0.00729937 0.048455 0)
(-0.0222188 0.0702745 0)
(-0.0344742 0.0801769 0)
(-0.043293 0.0805887 0)
(-0.0493512 0.0739682 0)
(-0.0539601 0.0639642 0)
(-0.0570715 0.0524501 0)
(-0.0590648 0.0404115 0)
(-0.0600035 0.0285459 0)
(-0.0599806 0.0171643 0)
(-0.0590485 0.00625906 0)
(-0.0573173 -0.00428224 0)
(-0.0549386 -0.0147812 0)
(-0.0521072 -0.0258678 0)
(-0.0490139 -0.0385267 0)
(-0.0456756 -0.0540513 0)
(-0.04168 -0.073729 0)
(-0.035651 -0.0981202 0)
(-0.02559 -0.124515 0)
(-0.0116498 -0.133805 0)
(-0.0059978 0.0616073 0)
(-0.0176151 0.0822504 0)
(-0.0263205 0.0891381 0)
(-0.0330175 0.0872497 0)
(-0.0374696 0.0788121 0)
(-0.0408536 0.0673666 0)
(-0.0431168 0.0546607 0)
(-0.0445234 0.0416264 0)
(-0.0451121 0.028858 0)
(-0.0449153 0.0166078 0)
(-0.0439581 0.00490975 0)
(-0.0423223 -0.00630907 0)
(-0.0401583 -0.0172994 0)
(-0.0377103 -0.0286169 0)
(-0.0352691 -0.041292 0)
(-0.032984 -0.0568907 0)
(-0.0306056 -0.0771831 0)
(-0.0267877 -0.103576 0)
(-0.0207997 -0.134441 0)
(-0.00980818 -0.150974 0)
(-0.00381081 0.0712571 0)
(-0.0122271 0.0910717 0)
(-0.0178097 0.0957157 0)
(-0.0226478 0.0921089 0)
(-0.0256969 0.0823715 0)
(-0.0281182 0.0698828 0)
(-0.0297906 0.0563105 0)
(-0.0308614 0.0425264 0)
(-0.031338 0.0290407 0)
(-0.0312067 0.0160814 0)
(-0.0304605 0.00371627 0)
(-0.0291472 -0.00807331 0)
(-0.0273994 -0.019449 0)
(-0.0254716 -0.0308558 0)
(-0.0237193 -0.0433041 0)
(-0.0224157 -0.058587 0)
(-0.0214625 -0.0789727 0)
(-0.0195284 -0.106814 0)
(-0.0168476 -0.141195 0)
(-0.00719414 -0.16496 0)
(-0.00211906 0.0777582 0)
(-0.00669418 0.0966896 0)
(-0.00968294 0.09988 0)
(-0.0125659 0.0952853 0)
(-0.0143107 0.0848208 0)
(-0.0158619 0.0716954 0)
(-0.017017 0.0575672 0)
(-0.0178306 0.0432745 0)
(-0.0182776 0.0292729 0)
(-0.0183123 0.0157771 0)
(-0.0179008 0.0028819 0)
(-0.0170592 -0.00936819 0)
(-0.0158976 -0.0210283 0)
(-0.0146597 -0.0324169 0)
(-0.0137147 -0.0444675 0)
(-0.0133943 -0.0591402 0)
(-0.0138148 -0.0792344 0)
(-0.0135024 -0.108106 0)
(-0.0137952 -0.145311 0)
(-0.0057476 -0.176496 0)
(0.000653711 0.0800789 0)
(-0.00123544 0.0994709 0)
(-0.00194571 0.101946 0)
(-0.00288547 0.0968162 0)
(-0.00336245 0.0861259 0)
(-0.00402067 0.0727858 0)
(-0.00461138 0.0584289 0)
(-0.00513114 0.0438898 0)
(-0.00552435 0.0295982 0)
(-0.00573011 0.0157649 0)
(-0.00570234 0.00251258 0)
(-0.00543594 -0.010051 0)
(-0.0050163 -0.0218675 0)
(-0.00466309 -0.0331223 0)
(-0.00471576 -0.0446555 0)
(-0.00546454 -0.0585209 0)
(-0.00741144 -0.0780538 0)
(-0.00836963 -0.107691 0)
(-0.0115059 -0.147013 0)
(-0.00393795 -0.185961 0)
(0.00235006 0.0787469 0)
(0.00371419 0.0992285 0)
(0.00525665 0.101724 0)
(0.00634167 0.0967793 0)
(0.0071593 0.0862707 0)
(0.00748631 0.0730911 0)
(0.00757199 0.0588233 0)
(0.00745417 0.0443083 0)
(0.00720342 0.0299774 0)
(0.00688172 0.0160469 0)
(0.00652982 0.00266685 0)
(0.00615434 -0.00999791 0)
(0.00568682 -0.0217891 0)
(0.00495319 -0.0327679 0)
(0.00369409 -0.0436799 0)
(0.00177082 -0.0566157 0)
(-0.00190566 -0.075476 0)
(-0.00377821 -0.105577 0)
(-0.00976941 -0.146979 0)
(-0.00256882 -0.193795 0)
(0.00397322 0.07486 0)
(0.00810172 0.0966586 0)
(0.0120532 0.099353 0)
(0.0147124 0.0952101 0)
(0.0170971 0.0853204 0)
(0.0186059 0.0725497 0)
(0.0195385 0.0586407 0)
(0.0199789 0.0444178 0)
(0.0199999 0.0303215 0)
(0.0196552 0.0165803 0)
(0.0189632 0.00336846 0)
(0.0179153 -0.00910407 0)
(0.0164532 -0.0206169 0)
(0.0144737 -0.031148 0)
(0.0118532 -0.0413626 0)
(0.00852778 -0.0533404 0)
(0.00302951 -0.0714363 0)
(0.000676358 -0.101679 0)
(-0.00864222 -0.145137 0)
(-0.000658717 -0.200162 0)
(0.0054827 0.0671938 0)
(0.0120302 0.091018 0)
(0.0178497 0.0950236 0)
(0.0222833 0.0916615 0)
(0.0262899 0.0827571 0)
(0.0291579 0.0708809 0)
(0.0311363 0.0576817 0)
(0.0323156 0.0440606 0)
(0.0327579 0.0305073 0)
(0.0325005 0.017284 0)
(0.0315297 0.00459252 0)
(0.0298116 -0.00733049 0)
(0.0272969 -0.0182528 0)
(0.0239759 -0.028136 0)
(0.0198637 -0.0375896 0)
(0.0150599 -0.0486614 0)
(0.00779525 -0.0658698 0)
(0.00518949 -0.096155 0)
(-0.00794435 -0.14214 0)
(0.00168708 -0.205303 0)
(0.00640328 0.0575925 0)
(0.0147639 0.0839331 0)
(0.022232 0.0892942 0)
(0.0285852 0.0866406 0)
(0.0342601 0.0787961 0)
(0.0387128 0.0679966 0)
(0.0419869 0.0557864 0)
(0.0441201 0.04308 0)
(0.045151 0.030407 0)
(0.0451008 0.0180654 0)
(0.0439347 0.00628605 0)
(0.0415962 -0.00469924 0)
(0.0380583 -0.0146767 0)
(0.0334116 -0.023685 0)
(0.0277955 -0.0323165 0)
(0.0216011 -0.0424777 0)
(0.0126622 -0.0587439 0)
(0.00989868 -0.0891476 0)
(-0.00738791 -0.137876 0)
(0.00531341 -0.209299 0)
(0.00618089 0.0458504 0)
(0.016385 0.0737559 0)
(0.0251142 0.0807712 0)
(0.0331097 0.0792901 0)
(0.040499 0.0727824 0)
(0.0466815 0.0633981 0)
(0.0514563 0.052573 0)
(0.054754 0.0411926 0)
(0.0565597 0.0298166 0)
(0.0568699 0.0187775 0)
(0.055645 0.00833016 0)
(0.0528374 -0.00133481 0)
(0.0484525 -0.010006 0)
(0.0427116 -0.0179018 0)
(0.0357542 -0.0256559 0)
(0.0283723 -0.0350143 0)
(0.0178943 -0.0504424 0)
(0.0151526 -0.0812596 0)
(-0.00639106 -0.133289 0)
(0.0101954 -0.212372 0)
(0.00426337 0.0357035 0)
(0.0147147 0.0647178 0)
(0.0249387 0.0719926 0)
(0.0348409 0.0709115 0)
(0.0442108 0.0653371 0)
(0.0523093 0.0572949 0)
(0.0587891 0.0480223 0)
(0.063444 0.0382656 0)
(0.0662033 0.0285585 0)
(0.0670633 0.019227 0)
(0.0659906 0.0105054 0)
(0.0630602 0.00253364 0)
(0.0582916 -0.00458981 0)
(0.0519778 -0.0112178 0)
(0.0441206 -0.0179679 0)
(0.0359976 -0.0265359 0)
(0.0241769 -0.0412843 0)
(0.0218864 -0.0725889 0)
(-0.00450196 -0.128392 0)
(0.0168936 -0.214056 0)
(0.000751253 0.0269161 0)
(0.0116689 0.051669 0)
(0.0225526 0.0592415 0)
(0.0341445 0.0590418 0)
(0.0453221 0.0549727 0)
(0.055187 0.048813 0)
(0.0633027 0.0416164 0)
(0.069392 0.0340041 0)
(0.073313 0.0264223 0)
(0.0750786 0.0191663 0)
(0.074698 0.0124545 0)
(0.0723086 0.00637174 0)
(0.0679582 0.000906539 0)
(0.0620371 -0.00437666 0)
(0.0542037 -0.0098649 0)
(0.0464286 -0.0173335 0)
(0.0337929 -0.0311447 0)
(0.0321334 -0.062503 0)
(-0.000596028 -0.121016 0)
(0.0260499 -0.210508 0)
(-0.0059525 0.026562 0)
(0.000620215 0.0455295 0)
(0.014219 0.0492319 0)
(0.028267 0.0481057 0)
(0.041996 0.0445038 0)
(0.054375 0.0395566 0)
(0.0648208 0.0340089 0)
(0.0731187 0.0284087 0)
(0.0790806 0.0230719 0)
(0.0827238 0.0181158 0)
(0.0841182 0.0136501 0)
(0.0835099 0.00966284 0)
(0.0809498 0.00616948 0)
(0.0770639 0.00272334 0)
(0.0711807 -0.000940014 0)
(0.0655232 -0.00720021 0)
(0.0532016 -0.0195585 0)
(0.0514511 -0.0499929 0)
(0.0113529 -0.108368 0)
(0.041651 -0.191463 0)
(-0.011893 0.0342311 0)
(-0.0064232 0.0236792 0)
(0.0123127 0.0247198 0)
(0.0298815 0.0251314 0)
(0.0466512 0.0240769 0)
(0.0618941 0.0220356 0)
(0.0750297 0.0194464 0)
(0.0859359 0.016701 0)
(0.0945827 0.0140192 0)
(0.101144 0.0115018 0)
(0.105718 0.00917667 0)
(0.108619 0.00706661 0)
(0.109817 0.00515415 0)
(0.109905 0.00289271 0)
(0.107657 0.000629263 0)
(0.104928 -0.004712 0)
(0.0951775 -0.0139192 0)
(0.0930761 -0.0392486 0)
(0.050032 -0.0846761 0)
(0.0739284 -0.146803 0)
(0.0430721 0.0410595 0)
(0.0489286 0.0297219 0)
(0.0713222 0.0245336 0)
(0.0956667 0.0224769 0)
(0.116257 0.0209158 0)
(0.135131 0.0191689 0)
(0.152198 0.0173251 0)
(0.167718 0.0154137 0)
(0.181136 0.0138538 0)
(0.192741 0.0121969 0)
(0.20247 0.0111038 0)
(0.210401 0.00967294 0)
(0.216985 0.00894462 0)
(0.221413 0.00751021 0)
(0.225216 0.00668032 0)
(0.225347 0.00393864 0)
(0.220639 0.00234625 0)
(0.209071 -0.00709291 0)
(0.161682 -0.0139486 0)
(0.144437 -0.0722709 0)
)
;

boundaryField
{
    movingWall
    {
        type            fixedValue;
        value           uniform (1 0 0);
    }
    fixedWalls
    {
        type            noSlip;
    }
    frontAndBack
    {
        type            empty;
    }
}


// ************************************************************************* //
