# vtk DataFile Version 2.0
tracks
ASCII
DATASET POLYDATA
POINTS 12025 float
-0.0206 0.000999966 1e-05 -0.02058 0.000999968 1e-05 -0.02056 0.000999973 1e-05 -0.02054 0.000999979
1e-05 -0.02052 0.000999989 1e-05 -0.0205 0.001 1e-05 -0.0202034 0.00100017 1e-05
-0.0199069 0.00100062 1e-05 -0.0196103 0.00100133 1e-05 -0.0193137 0.00100231 1e-05 -0.0190172
0.00100355 1e-05 -0.0187132 0.00100504 1e-05 -0.0184093 0.00100661 1e-05 -0.0181054 0.00100827
1e-05 -0.0178015 0.00101 1e-05 -0.0174976 0.0010118 1e-05 -0.0172058 0.0010136 1e-05
-0.016914 0.00101542 1e-05 -0.0166222 0.00101726 1e-05 -0.0163305 0.00101913 1e-05 -0.0160387
0.00102103 1e-05 -0.0158629 0.00102218 1e-05 -0.0156871 0.00102335 1e-05 -0.0155113 0.00102453
1e-05 -0.0153356 0.00102572 1e-05 -0.0151751 0.00102682 1e-05 -0.0150677 0.00102756 1e-05
-0.0149603 0.0010283 1e-05 -0.0148529 0.00102905 1e-05 -0.0147455 0.0010298 1e-05 -0.0146381
0.00103056 1e-05 -0.0143692 0.00103246 1e-05 -0.0141002 0.00103439 1e-05 -0.0138313 0.00103633
1e-05 -0.0135624 0.0010383 1e-05 -0.0132934 0.00104028 1e-05 -0.0130353 0.00104221 1e-05
-0.0127771 0.00104413 1e-05 -0.0125189 0.00104606 1e-05 -0.0122607 0.00104799 1e-05 -0.0120025
0.00104992 1e-05 -0.0117547 0.00105178 1e-05 -0.0115068 0.00105362 1e-05 -0.0112589 0.00105545
1e-05 -0.0110111 0.00105726 1e-05 -0.0107632 0.00105906 1e-05 -0.0105252 0.00106078 1e-05
-0.0102873 0.00106247 1e-05 -0.0100493 0.00106414 1e-05 -0.00981133 0.0010658 1e-05 -0.00957337
0.00106743 1e-05 -0.00934491 0.001069 1e-05 -0.00911645 0.00107054 1e-05 -0.00888799 0.00107207
1e-05 -0.00865954 0.00107359 1e-05 -0.00843108 0.00107509 1e-05 -0.00821175 0.00107653 1e-05
-0.00799242 0.00107796 1e-05 -0.00777309 0.00107937 1e-05 -0.00755376 0.00108077 1e-05 -0.00733443
0.00108216 1e-05 -0.00712387 0.0010835 1e-05 -0.0069133 0.00108482 1e-05 -0.00670273 0.00108613
1e-05 -0.00649216 0.00108744 1e-05 -0.0062816 0.00108873 1e-05 -0.00607944 0.00108997 1e-05
-0.00587729 0.0010912 1e-05 -0.00567514 0.00109243 1e-05 -0.00547298 0.00109364 1e-05 -0.00527083
0.00109484 1e-05 -0.00507675 0.00109599 1e-05 -0.00488267 0.00109714 1e-05 -0.0046886 0.00109827
1e-05 -0.00449452 0.00109941 1e-05 -0.00430044 0.00110053 1e-05 -0.00411412 0.00110161 1e-05
-0.0039278 0.00110268 1e-05 -0.00374147 0.00110374 1e-05 -0.00355515 0.0011048 1e-05 -0.00336883
0.00110585 1e-05 -0.00318995 0.00110685 1e-05 -0.00301107 0.00110784 1e-05 -0.00283219 0.00110883
1e-05 -0.00265331 0.0011098 1e-05 -0.00247443 0.00111076 1e-05 -0.0023027 0.00111167 1e-05
-0.00213097 0.00111257 1e-05 -0.00195924 0.00111345 1e-05 -0.0017875 0.00111432 1e-05 -0.00161577
0.00111517 1e-05 -0.0014509 0.00111598 1e-05 -0.00128603 0.00111677 1e-05 -0.00112116 0.00111754
1e-05 -0.000956289 0.00111829 1e-05 -0.000791418 0.00111902 1e-05 -0.000633135 0.00111971 1e-05
-0.000474851 0.00112038 1e-05 -0.000316567 0.00112103 1e-05 -0.000158283 0.00112166 1e-05 0
0.00112227 1e-05 0.000105677 0.00112266 1e-05 0.000211355 0.00112305 1e-05 0.000317032 0.00112344
1e-05 0.00042271 0.00112381 1e-05 0.000528387 0.00112418 1e-05 0.000634886 0.00112455 1e-05
0.000741385 0.00112491 1e-05 0.000847885 0.00112528 1e-05 0.000954384 0.00112564 1e-05 0.00106088
0.001126 1e-05 0.00116821 0.00112636 1e-05 0.00127554 0.00112671 1e-05 0.00138286 0.00112706
1e-05 0.00149019 0.00112741 1e-05 0.00159752 0.00112775 1e-05 0.00170568 0.0011281 1e-05
0.00181384 0.00112843 1e-05 0.001922 0.00112877 1e-05 0.00203016 0.00112909 1e-05 0.00213833
0.00112941 1e-05 0.00224733 0.00112973 1e-05 0.00235633 0.00113004 1e-05 0.00246533 0.00113034
1e-05 0.00257434 0.00113064 1e-05 0.00268334 0.00113093 1e-05 0.00279319 0.00113122 1e-05
0.00290304 0.00113151 1e-05 0.00301289 0.00113179 1e-05 0.00312274 0.00113207 1e-05 0.00323259
0.00113233 1e-05 0.00334329 0.0011326 1e-05 0.003454 0.00113286 1e-05 0.0035647 0.00113312
1e-05 0.0036754 0.00113337 1e-05 0.00378611 0.00113361 1e-05 0.00389767 0.00113385 1e-05
0.00400924 0.00113409 1e-05 0.0041208 0.00113432 1e-05 0.00423237 0.00113454 1e-05 0.00434393
0.00113476 1e-05 0.00445636 0.00113497 1e-05 0.00456879 0.00113518 1e-05 0.00468123 0.00113538
1e-05 0.00479366 0.00113558 1e-05 0.00490609 0.00113577 1e-05 0.0050194 0.00113595 1e-05
0.0051327 0.00113612 1e-05 0.00524601 0.00113629 1e-05 0.00535931 0.00113646 1e-05 0.00547262
0.00113661 1e-05 0.00558681 0.00113676 1e-05 0.005701 0.0011369 1e-05 0.00581518 0.00113703
1e-05 0.00592937 0.00113716 1e-05 0.00604356 0.00113728 1e-05 0.00615863 0.00113738 1e-05
0.00627371 0.00113748 1e-05 0.00638878 0.00113758 1e-05 0.00650386 0.00113766 1e-05 0.00661893
0.00113774 1e-05 0.0067349 0.0011378 1e-05 0.00685087 0.00113786 1e-05 0.00696684 0.00113791
1e-05 0.00708281 0.00113795 1e-05 0.00719878 0.00113798 1e-05 0.00731565 0.001138 1e-05
0.00743252 0.00113801 1e-05 0.00754939 0.00113801 1e-05 0.00766626 0.001138 1e-05 0.00778313
0.00113799 1e-05 0.00790091 0.00113796 1e-05 0.00801869 0.00113793 1e-05 0.00813647 0.00113788
1e-05 0.00825425 0.00113783 1e-05 0.00837203 0.00113776 1e-05 0.00849073 0.00113769 1e-05
0.00860942 0.00113761 1e-05 0.00872812 0.00113752 1e-05 0.00884682 0.00113742 1e-05 0.00896551
0.00113731 1e-05 0.00908513 0.00113718 1e-05 0.00920475 0.00113706 1e-05 0.00932437 0.00113692
1e-05 0.00944398 0.00113677 1e-05 0.0095636 0.00113661 1e-05 0.00956733 0.00113661 1e-05
0.00957106 0.0011366 1e-05 0.00957478 0.0011366 1e-05 0.00957851 0.00113659 1e-05 0.00958223
0.00113659 1e-05 0.00969905 0.00113642 1e-05 0.00981588 0.00113625 1e-05 0.0099327 0.00113607
1e-05 0.0100495 0.00113589 1e-05 0.0101663 0.00113569 1e-05 0.0102878 0.00113547 1e-05
0.0104093 0.00113525 1e-05 0.0105308 0.00113502 1e-05 0.0106523 0.00113479 1e-05 0.0107738
0.00113454 1e-05 0.0108962 0.00113428 1e-05 0.0110186 0.00113401 1e-05 0.0111411 0.00113374
1e-05 0.0112635 0.00113346 1e-05 0.0113859 0.00113318 1e-05 0.0115093 0.00113287 1e-05
0.0116327 0.00113256 1e-05 0.0117561 0.00113225 1e-05 0.0118795 0.00113193 1e-05 0.0120028
0.0011316 1e-05 0.0121272 0.00113125 1e-05 0.0122515 0.0011309 1e-05 0.0123759 0.00113055
1e-05 0.0125002 0.00113019 1e-05 0.0126245 0.00112982 1e-05 0.0127498 0.00112943 1e-05
0.0128752 0.00112904 1e-05 0.0130005 0.00112864 1e-05 0.0131258 0.00112824 1e-05 0.0132511
0.00112783 1e-05 0.0133774 0.00112739 1e-05 0.0135036 0.00112696 1e-05 0.0136299 0.00112652
1e-05 0.0137562 0.00112608 1e-05 0.0138825 0.00112562 1e-05 0.0140098 0.00112514 1e-05
0.014137 0.00112467 1e-05 0.0142643 0.00112418 1e-05 0.0143915 0.00112369 1e-05 0.0145188
0.00112319 1e-05 0.0146471 0.00112267 1e-05 0.0147753 0.00112215 1e-05 0.0149036 0.00112161
1e-05 0.0150318 0.00112108 1e-05 0.0151601 0.00112053 1e-05 0.0152893 0.00111996 1e-05
0.0154186 0.00111939 1e-05 0.0155478 0.0011188 1e-05 0.0156771 0.00111822 1e-05 0.0158063
0.00111762 1e-05 0.0159366 0.001117 1e-05 0.0160668 0.00111637 1e-05 0.0161971 0.00111574
1e-05 0.0163273 0.0011151 1e-05 0.0164576 0.00111445 1e-05 0.0165889 0.00111378 1e-05
0.0167201 0.0011131 1e-05 0.0168514 0.00111241 1e-05 0.0169827 0.00111171 1e-05 0.0171139
0.001111 1e-05 0.0172462 0.00111029 1e-05 0.0173785 0.00110955 1e-05 0.0175108 0.0011088
1e-05 0.0176431 0.00110804 1e-05 0.0177754 0.00110728 1e-05 0.0179087 0.00110651 1e-05
0.018042 0.00110571 1e-05 0.0181753 0.0011049 1e-05 0.0183087 0.00110408 1e-05 0.018442
0.00110326 1e-05 0.0185763 0.00110243 1e-05 0.0187107 0.00110158 1e-05 0.018845 0.00110071
1e-05 0.0189794 0.00109982 1e-05 0.0191137 0.00109894 1e-05 0.0192491 0.00109806 1e-05
0.0193845 0.00109715 1e-05 0.0195199 0.00109621 1e-05 0.0196553 0.00109525 1e-05 0.0197907
0.00109431 1e-05 0.0199272 0.00109338 1e-05 0.0200636 0.0010924 1e-05 0.0202001 0.0010914
1e-05 0.0203365 0.00109038 1e-05 0.020473 0.00108938 1e-05 0.0206105 0.00108838 1e-05
0.020748 0.00108735 1e-05 0.0208855 0.00108628 1e-05 0.021023 0.0010852 1e-05 0.0211606
0.00108413 1e-05 0.0212991 0.00108309 1e-05 0.0214377 0.001082 1e-05 0.0215763 0.00108086
1e-05 0.0217149 0.00107972 1e-05 0.0218535 0.0010786 1e-05 0.0219931 0.00107749 1e-05
0.0221328 0.00107635 1e-05 0.0222724 0.00107515 1e-05 0.0224121 0.00107395 1e-05 0.0225517
0.00107278 1e-05 0.0226925 0.00107162 1e-05 0.0228332 0.00107042 1e-05 0.022974 0.00106917
1e-05 0.0231147 0.00106791 1e-05 0.0232555 0.00106668 1e-05 0.0233973 0.00106548 1e-05
0.0235391 0.00106422 1e-05 0.023681 0.00106292 1e-05 0.0238228 0.00106161 1e-05 0.0239647
0.00106033 1e-05 0.0241076 0.00105907 1e-05 0.0242505 0.00105777 1e-05 0.0243935 0.00105642
1e-05 0.0245364 0.00105506 1e-05 0.0246794 0.00105373 1e-05 0.0248234 0.00105244 1e-05
0.0249675 0.00105109 1e-05 0.0251115 0.00104969 1e-05 0.0252556 0.00104828 1e-05 0.0253996
0.00104692 1e-05 0.0255448 0.00104558 1e-05 0.02569 0.00104418 1e-05 0.0258351 0.00104274
1e-05 0.0259803 0.0010413 1e-05 0.0261255 0.00103989 1e-05 0.0262718 0.00103851 1e-05
0.0264181 0.00103708 1e-05 0.0265644 0.00103561 1e-05 0.0267107 0.00103414 1e-05 0.026857
0.0010327 1e-05 0.0270044 0.00103128 1e-05 0.0271519 0.00102982 1e-05 0.0272993 0.00102832
1e-05 0.0274468 0.00102682 1e-05 0.0275942 0.00102534 1e-05 0.0277428 0.00102389 1e-05
0.0278914 0.00102239 1e-05 0.0280399 0.00102087 1e-05 0.0281885 0.00101934 1e-05 0.0283371
0.00101784 1e-05 0.0284869 0.00101636 1e-05 0.0286366 0.00101483 1e-05 0.0287863 0.00101329
1e-05 0.0289361 0.00101174 1e-05 0.0290858 0.00101021 1e-05 0.0292367 0.0010087 1e-05
0.0293876 0.00100715 1e-05 0.0295385 0.00100558 1e-05 0.0296894 0.00100401 1e-05 0.0298403
0.00100245 1e-05 0.0299924 0.00100092 1e-05 0.0301445 0.000999339 1e-05 0.0302966 0.000997754
1e-05 0.0304486 0.000996169 1e-05 0.0306007 0.000994584 1e-05 0.030754 0.000993025 1e-05
0.0309072 0.000991422 1e-05 0.0310605 0.000989819 1e-05 0.0312138 0.000988216 1e-05 0.031367
0.000986612 1e-05 0.0315215 0.000985028 1e-05 0.0316759 0.000983408 1e-05 0.0318304 0.000981787
1e-05 0.0319848 0.000980166 1e-05 0.0321393 0.000978545 1e-05 0.0322949 0.000976936 1e-05
0.0324506 0.000975298 1e-05 0.0326062 0.00097366 1e-05 0.0327619 0.000972021 1e-05 0.0329175
[...]
POINT_DATA 12025
FIELD attributes 4
age 1 12025 float
-9.99945e-06 -7.99949e-06 -5.99956e-06 -3.99967e-06 -1.99982e-06 0 2.9654e-05 5.92944e-05 8.89208e-05 0.000118533 0.000148132
0.000178429 0.000208719 0.000238985 0.000269228 0.000299449 0.000328423 0.000357391 0.00038634 0.000415269 0.00044418
0.000461581 0.00047898 0.000496373 0.000513759 0.000529622 0.000540238 0.000550853 0.000561464 0.000572074 0.000582681
0.000609234 0.000635773 0.000662297 0.000688807 0.000715302 0.000740721 0.000766132 0.00079153 0.000816914 0.000842285
0.000866622 0.000890959 0.000915284 0.0009396 0.000963904 0.000987217 0.00101053 0.00103385 0.00105715 0.00108045
0.00110279 0.00112515 0.0011475 0.00116985 0.0011922 0.00121363 0.00123508 0.00125652 0.00127797 0.00129941
0.00131998 0.00134056 0.00136115 0.00138173 0.00140231 0.00142206 0.00144182 0.00146158 0.00148134 0.00150111
0.00152008 0.00153905 0.00155802 0.001577 0.00159598 0.0016142 0.00163242 0.00165064 0.00166887 0.0016871
0.0017046 0.0017221 0.0017396 0.0017571 0.00177461 0.00179142 0.00180823 0.00182504 0.00184185 0.00185866
0.00187482 0.00189096 0.0019071 0.00192325 0.0019394 0.00195492 0.00197042 0.00198593 0.00200144 0.00201696
0.00202733 0.00203769 0.00204805 0.00205841 0.00206878 0.00207924 0.00208969 0.00210014 0.00211059 0.00212105
0.0021316 0.00214213 0.00215267 0.00216321 0.00217375 0.00218439 0.00219502 0.00220565 0.00221628 0.00222691
0.00223764 0.00224835 0.00225907 0.00226979 0.00228051 0.00229133 0.00230214 0.00231295 0.00232376 0.00233457
0.00234549 0.00235639 0.00236729 0.00237819 0.0023891 0.00240011 0.0024111 0.0024221 0.0024331 0.00244411
0.00245521 0.00246631 0.0024774 0.0024885 0.0024996 0.00251081 0.002522 0.0025332 0.0025444 0.0025556
0.00256691 0.00257821 0.00258951 0.00260081 0.00261212 0.00262353 0.00263494 0.00264634 0.00265776 0.00266917
0.0026807 0.00269221 0.00270373 0.00271526 0.00272678 0.00273842 0.00275005 0.00276169 0.00277333 0.00278497
0.00279673 0.00280848 0.00282023 0.00283199 0.00284376 0.00285564 0.00286751 0.0028794 0.00289129 0.00290318
0.00291519 0.00292719 0.00293921 0.00295123 0.00296326 0.00296364 0.00296401 0.00296439 0.00296476 0.00296514
0.0029769 0.00298867 0.00300045 0.00301224 0.00302404 0.00303633 0.00304862 0.00306092 0.00307323 0.00308555
0.00309801 0.00311045 0.0031229 0.00313537 0.00314785 0.00316048 0.00317308 0.0031857 0.00319832 0.00321097
0.00322377 0.00323655 0.00324933 0.00326213 0.00327495 0.00328794 0.00330089 0.00331385 0.00332683 0.00333983
0.00335301 0.00336615 0.0033793 0.00339247 0.00340565 0.00341903 0.00343236 0.00344571 0.00345907 0.00347245
0.00348604 0.00349957 0.00351312 0.00352668 0.00354027 0.00355407 0.00356781 0.00358156 0.00359534 0.00360914
0.00362315 0.00363712 0.00365109 0.00366509 0.00367912 0.00369335 0.00370754 0.00372174 0.00373596 0.00375022
0.00376468 0.00377911 0.00379354 0.00380799 0.00382249 0.00383717 0.00385184 0.00386651 0.0038812 0.00389593
0.00391085 0.00392576 0.00394067 0.0039556 0.00397058 0.00398574 0.00400089 0.00401605 0.00403123 0.00404646
0.00406186 0.00407726 0.00409266 0.0041081 0.00412358 0.00413922 0.00415487 0.00417053 0.00418622 0.00420195
0.00421785 0.00423376 0.00424968 0.00426563 0.00428161 0.00429776 0.00431392 0.00433011 0.00434632 0.00436256
0.00437896 0.00439539 0.00441183 0.00442831 0.00444481 0.00446147 0.00447816 0.00449487 0.00451161 0.00452837
0.00454529 0.00456224 0.00457922 0.00459623 0.00461325 0.00463044 0.00464765 0.0046649 0.00468217 0.00469946
0.00471691 0.00473439 0.00475191 0.00476945 0.00478701 0.00480472 0.00482247 0.00484026 0.00485806 0.00487589
0.00489387 0.00491189 0.00492994 0.00494802 0.00496611 0.00498436 0.00500265 0.00502097 0.00503931 0.00505767
0.00507619 0.00509475 0.00511334 0.00513195 0.00515058 0.00516936 0.00518819 0.00520705 0.00522593 0.00524482
0.00526388 0.00528298 0.0053021 0.00532125 0.00534041 0.00535974 0.00537911 0.0053985 0.00541791 0.00543734
0.00545693 0.00547657 0.00549623 0.0055159 0.0055356 0.00555546 0.00557536 0.00559528 0.00561523 0.00563519
0.00565532 0.00567549 0.00569567 0.00571588 0.00573611 0.00575651 0.00577694 0.00579738 0.00581785 0.00583835
0.00585901 0.0058797 0.00590042 0.00592115 0.0059419 0.00595759 0.00597329 0.005989 0.00600473 0.00602029
0.00602559 0.00603089 0.00603619 0.00604149 0.0060468 0.00606799 0.00608921 0.00611045 0.00613171 0.00615299
0.00617445 0.00619593 0.00621743 0.00623895 0.00626049 0.00628221 0.00630396 0.00632572 0.00634751 0.00636931
0.00639129 0.0064133 0.00643532 0.00645737 0.00647943 0.00650167 0.00652394 0.00654623 0.00656853 0.00659086
0.00661336 0.00663588 0.00665843 0.006681 0.00670358 0.00672634 0.00674913 0.00677194 0.00679476 0.0068176
0.00684062 0.00686366 0.00688673 0.00690982 0.00693291 0.00695618 0.00697949 0.00700281 0.00702616 0.00704951
0.00707304 0.0070966 0.00712019 0.00714379 0.0071674 0.00719119 0.007215 0.00723885 0.00726271 0.00728658
0.00731062 0.0073347 0.0073588 0.00738293 0.00740705 0.00743135 0.00745569 0.00748005 0.00750444 0.00752882
0.00755338 0.00757798 0.0076026 0.00762724 0.00765188 0.00767671 0.00770157 0.00772646 0.00775136 0.00777626
0.00780135 0.00782647 0.00785162 0.00787679 0.00790195 0.00792731 0.0079527 0.00797812 0.00800355 0.00802899
0.00805461 0.00808027 0.00810596 0.00813166 0.00815737 0.00818327 0.0082092 0.00823516 0.00826114 0.00828712
0.0083133 0.00833951 0.00836575 0.008392 0.00841826 0.00844472 0.00847122 0.00849774 0.00852427 0.00855081
0.00857757 0.00860435 0.00863116 0.00865798 0.00868482 0.00871186 0.00873895 0.00876605 0.00879316 0.0088203
0.00884765 0.00887503 0.00890243 0.00892985 0.00895728 0.00898494 0.00901263 0.00904034 0.00906807 0.00909582
0.00912379 0.0091518 0.00917982 0.00920787 0.00923593 0.00924707 0.00925821 0.00926935 0.0092805 0.00929134
0.00930859 0.00932586 0.00934313 0.00936041 0.0093777 0.00940633 0.00943499 0.00946368 0.00949239 0.00952112
0.00955009 0.00957909 0.00960812 0.00963717 0.00966625 0.00969557 0.00972492 0.0097543 0.00978371 0.00981314
0.00984281 0.00987253 0.00990227 0.00993204 0.00996183 0.00999187 0.0100219 0.0100521 0.0100822 0.0101124
0.0101428 0.0101732 0.0102037 0.0102342 0.0102648 0.0102956 0.0103264 0.0103573 0.0103882 0.0104191
0.0104503 0.0104815 0.0105128 0.0105441 0.0105754 0.0106069 0.0106386 0.0106702 0.0107019 0.0107337
0.0107656 0.0107977 0.0108297 0.0108618 0.010894 0.0109264 0.0109588 0.0109913 0.0110238 0.0110563
0.0110892 0.011122 0.0111549 0.0111879 0.0112208 0.0112541 0.0112874 0.0113207 0.0113541 0.0113875
0.0114212 0.0114549 0.0114886 0.0115224 0.0115563 0.011579 0.0116018 0.0116246 0.0116474 0.0116693
0.0116809 0.0116925 0.0117041 0.0117157 0.0117274 0.0117619 0.0117966 0.0118312 0.0118659 0.0119007
0.0119357 0.0119708 0.012006 0.0120412 0.0120764 0.0121119 0.0121475 0.0121831 0.0122188 0.0122545
0.0122905 0.0123266 0.0123627 0.0123989 0.0124351 0.0124716 0.0125082 0.0125448 0.0125815 0.0126182
0.0126552 0.0126923 0.0127295 0.0127666 0.0128039 0.0128414 0.012879 0.0129167 0.0129544 0.0129922
0.0130302 0.0130684 0.0131066 0.0131448 0.0131831 0.0132217 0.0132604 0.0132992 0.013338 0.0133768
0.013416 0.0134553 0.0134946 0.0135339 0.0135733 0.0135828 0.0135923 0.0136018 0.0136113 0.0136206
0.013651 0.0136814 0.0137118 0.0137422 0.0137727 0.0138131 0.0138535 0.0138939 0.0139344 0.013975
0.0140159 0.0140569 0.0140979 0.014139 0.0141802 0.0142217 0.0142633 0.014305 0.0143467 0.0143885
0.0144306 0.0144728 0.0145151 0.0145574 0.0145999 0.0146427 0.0146855 0.0147284 0.0147714 0.0148145
0.0148579 0.0149014 0.014945 0.0149887 0.0150324 0.0150765 0.0151207 0.015165 0.0152093 0.0152537
0.015288 0.0153223 0.0153566 0.0153909 0.0154239 0.0154348 0.0154458 0.0154567 0.0154677 0.0154786
0.0155242 0.0155698 0.0156155 0.0156612 0.015707 0.0157533 0.0157996 0.015846 0.0158925 0.0159391
0.0159861 0.0160332 0.0160803 0.0161276 0.0161749 0.0162227 0.0162705 0.0163184 0.0163665 0.0164146
0.0164631 0.0165118 0.0165605 0.0166094 0.0166583 0.0167077 0.0167572 0.0168067 0.0168564 0.0169061
0.0169564 0.0170067 0.0170572 0.0171077 0.0171583 0.0171597 0.0171611 0.0171624 0.0171638 0.0171652
0.0172149 0.0172648 0.0173148 0.0173648 0.017415 0.0174671 0.0175192 0.0175714 0.0176238 0.0176763
0.0177293 0.0177824 0.0178356 0.0178889 0.0179424 0.0179964 0.0180505 0.0181047 0.018159 0.0182135
0.0182685 0.0183237 0.018379 0.0184344 0.0184899 0.018546 0.0186023 0.0186587 0.0187152 0.0187719
0.018805 0.0188381 0.0188713 0.0189046 0.0189373 0.0189617 0.0189862 0.0190107 0.0190352 0.0190598
0.0191182 0.0191768 0.0192356 0.0192944 0.0193535 0.0194132 0.019473 0.019533 0.0195931 0.0196535
0.0197145 0.0197756 0.0198369 0.0198983 0.01996 0.0200223 0.0200848 0.0201475 0.0202103 0.0202734
0.0203371 0.020401 0.0204651 0.0205294 0.0205939 0.0206356 0.0206773 0.0207191 0.020761 0.0208021
0.0208261 0.0208501 0.0208741 0.0208982 0.0209222 0.020989 0.0210559 0.0211231 0.0211905 0.0212581
0.0213265 0.021395 0.0214638 0.0215328 0.0216021 0.0216721 0.0217423 0.0218128 0.0218835 0.0219545
0.0220263 0.0220983 0.0221705 0.022243 0.0223158 0.0223894 0.0224633 0.0225374 0.0226118 0.0226864
0.0227083 0.0227302 0.0227522 0.0227741 0.0227959 0.0228499 0.0229039 0.0229582 0.0230125 0.0230671
0.0231446 0.0232223 0.0233004 0.0233787 0.0234574 0.023537 0.0236168 0.023697 0.0237775 0.0238583
0.02394 0.024022 0.0241044 0.0241871 0.0242701 0.0243541 0.0244384 0.0245231 0.0246081 0.0246935
0.0247416 0.0247898 0.0248382 0.0248866 0.0249342 0.0249731 0.025012 0.0250511 0.0250902 0.0251293
0.0252182 0.0253074 0.025397 0.0254869 0.0255773 0.0256687 0.0257604 0.0258526 0.0259452 0.0260382
0.0261323 0.0262268 0.0263217 0.026417 0.0265128 0.0266097 0.0267071 0.0268049 0.0269031 0.0270018
0.0270441 0.0270865 0.027129 0.0271716 0.0272135 0.0272717 0.0273302 0.0273887 0.0274475 0.0275064
0.0276093 0.0277127 0.0278166 0.027921 0.0280259 0.0281321 0.0282387 0.0283459 0.0284536 0.0285618
0.0286713 0.0287813 0.0288919 0.029003 0.0291147 0.0292155 0.0293167 0.0294184 0.0295206 0.0296192
0.0296325 0.0296458 0.0296591 0.0296725 0.0296858 0.0298025 0.0299198 0.0300377 0.0301561 0.0302752
0.0303957 0.0305168 0.0306385 0.0307609 0.0308839 0.0310083 0.0311333 0.0312591 0.0313855 0.0315125
0.0316372 0.0317627 0.0318887 0.0320153 0.0321373 0.0321422 0.0321472 0.0321521 0.0321571 0.032162
0.0322949 0.0324284 0.0325625 0.0326973 0.0328329 0.03297 0.0331078 0.0332463 0.0333856 0.0335255
0.033667 0.0338093 0.0339524 0.0340961 0.0342405 0.0343446 0.034449 0.0345538 0.0346589 0.0347617
0.0348051 0.0348485 0.034892 0.0349355 0.0349792 0.0351299 0.0352814 0.0354336 0.0355866 0.0357402
0.0358956 0.0360517 0.0362086 0.0363663 0.0365246 0.0366847 0.0368456 0.0370073 0.0371696 0.0373327
0.0373639 0.0373951 0.0374263 0.0374576 0.0374887 0.0376231 0.0377581 0.0378934 0.0380293 0.0381657
0.0383355 0.0385062 0.0386777 0.0388499 0.0390228 0.0391975 0.0393732 0.0395496 0.0397267 0.0399046
0.0399748 0.040045 0.0401154 0.0401859 0.0402561 0.0403668 0.0404778 0.040589 0.0407005 0.0408123
0.0409971 0.0411827 0.0413691 0.0415562 0.0417439 0.0419337 0.0421242 0.0423156 0.0425075 0.0427001
0.042784 0.042868 0.0429521 0.0430363 0.0431206 0.0432323 0.0433442 0.0434564 0.0435687 0.0436812
0.0438807 0.0440808 0.0442816 0.0444831 0.044685 0.0448889 0.0450935 0.0452988 0.0455047 0.0457109
0.045793 0.0458752 0.0459575 0.0460399 0.0461232 0.0462498 0.0463767 0.0465038 0.046631 0.0467583
0.0469706 0.0471834 0.0473968 0.0476106 0.0478243 0.04804 0.0482562 0.0484727 0.0486896 0.0489066
0.0489956 0.0490847 0.0491738 0.0492629 0.0493543 0.0494841 0.049614 0.0497439 0.0498739 0.0500038
0.0502163 0.0504292 0.0506425 0.050856 0.0510689 0.0512295 0.0513901 0.0515506 0.0517112 0.05188
0.0519387 0.0519974 0.052056 0.0521147 0.0521733 0.0524022 0.052631 0.0528596 0.0530881 0.0533156
0.0535057 0.0536957 0.0538854 0.0540748 0.0542804 0.0543227 0.054365 0.0544073 0.0544495 0.0544918
0.0547344 0.0549765 0.0552179 0.0554586 0.0556978 0.0559192 0.0561399 0.0563599 0.056579 0.0568285
0.0568481 0.0568677 0.0568872 0.0569068 0.0569263 0.0571781 0.0574286 0.0576779 0.0579258 0.0581716
0.0584257 0.0586784 0.0589294 0.0591787 0.0594258 0.0594619 0.059498 0.059534 0.05957 0.0596072
0.0598248 0.060041 0.0602557 0.0604691 0.0606806 0.0609353 0.0611879 0.0614383 0.0616866 0.0619322
0.0620903 0.0622475 0.0624037 0.062559 0.0627402 0.0628269 0.0629133 0.0629994 0.0630852 0.0631706
0.063421 0.0636688 0.0639141 0.0641569 0.064397 0.0646439 0.0648881 0.0651297 0.0653686 0.0656049
0.0657668 0.0659275 0.066087 0.0662452 0.0664368 0.0665076 0.0665783 0.0666486 0.0667188 0.0667887
0.0670269 0.0672623 0.067495 0.0677249 0.0679522 0.0681856 0.0684162 0.068644 0.0688691 0.0690917
0.0693201 0.0695457 0.0697686 0.0699887 0.0702064 0.0703875 0.0705668 0.0707443 0.07092 0.0711471
0.0711767 0.0712062 0.0712357 0.0712652 0.0712946 0.0715129 0.0717285 0.0719414 0.0721517 0.0723596
0.072573 0.0727838 0.0729919 0.0731974 0.0734006 0.073609 0.0738147 0.0740177 0.0742182 0.0744167
0.0746206 0.074822 0.075021 0.0752175 0.0754113 0.0756098 0.0758053 0.0759983 0.0761892 0.0763783
0.0765732 0.0767661 0.0769558 0.0771423 0.0773258 0.0774195 0.0775123 0.0776047 0.0776967 0.0777584
0.0778553 0.0779516 0.0780472 0.0781421 0.0782364 -9.99989e-06 -7.99989e-06 -5.99991e-06 -3.99993e-06 -1.99996e-06
0 2.96562e-05 5.93107e-05 8.89626e-05 0.000118612 0.000148257 0.000178632 0.000209001 0.000239366 0.000269724
0.000300075 0.000329206 0.000358329 0.000387445 0.000416554 0.000445656 0.000473588 0.000501513 0.000529432 0.000557344
0.00058525 0.000612036 0.000638815 0.00066559 0.000692358 0.000719121 0.00074481 0.000770493 0.000796171 0.000821844
0.000847512 0.00087215 0.000896782 0.000921411 0.000946035 0.000970654 0.000994285 0.00101791 0.00104154 0.00106516
0.00108877 0.00111144 0.0011341 0.00115677 0.00117942 0.00120208 0.00122383 0.00124557 0.00126731 0.00128905
0.00131078 0.00133165 0.00135251 0.00137336 0.00139422 0.00141507 0.00143509 0.0014551 0.00147512 0.00149513
0.00151513 0.00153434 0.00155354 0.00157274 0.00159194 0.00161114 0.00162956 0.00164799 0.00166641 0.00168483
0.00170325 0.00172093 0.00173861 0.00175629 0.00177396 0.00179164 0.0018086 0.00182557 0.00184253 0.00185949
0.00187645 0.00189273 0.00190901 0.00192529 0.00194156 0.00195784 0.00197346 0.00198908 0.0020047 0.00202032
0.00203594 0.00204637 0.00205679 0.00206722 0.00207764 0.00208807 0.00209857 0.00210908 0.00211958 0.00213009
0.00214059 0.00215117 0.00216176 0.00217234 0.00218292 0.00219351 0.00220417 0.00221484 0.0022255 0.00223616
0.00224683 0.00225757 0.00226832 0.00227906 0.00228981 0.00230055 0.00231138 0.0023222 0.00233303 0.00234386
0.00235468 0.00236559 0.0023765 0.00238741 0.00239832 0.00240922 0.00242022 0.00243121 0.0024422 0.00245319
0.00246418 0.00247526 0.00248633 0.00249741 0.00250848 0.00251956 0.00253072 0.00254188 0.00255304 0.0025642
0.00257536 0.0025866 0.00259785 0.0026091 0.00262034 0.00263159 0.00264292 0.00265425 0.00266558 0.00267691
0.00268824 0.00269966 0.00271108 0.0027225 0.00273392 0.00274534 0.00275685 0.00276835 0.00277986 0.00279137
0.00280287 0.00281447 0.00282607 0.00283766 0.00284926 0.00286085 0.00287254 0.00288423 0.00289591 0.0029076
0.00291928 0.00293106 0.00294284 0.00295461 0.00296639 0.00297817 0.00299003 0.0030019 0.00301377 0.00302564
0.00303751 0.00304947 0.00306143 0.00307339 0.00308535 0.00309731 0.00310936 0.00312142 0.00313347 0.00314552
0.00315758 0.00316972 0.00318187 0.00319402 0.00320617 0.00321831 0.00323056 0.0032428 0.00325504 0.00326728
0.00327952 0.00329186 0.0033042 0.00331654 0.00332887 0.00334121 0.00335364 0.00336608 0.00337851 0.00339094
0.00340338 0.00341591 0.00342844 0.00344097 0.0034535 0.00346603 0.00347865 0.00349128 0.00350391 0.00351654
0.00352916 0.00354189 0.00355461 0.00356734 0.00358006 0.00359279 0.00360561 0.00361844 0.00363126 0.00364408
0.00365691 0.00366739 0.00367787 0.00368835 0.00369883 0.00370932 0.00371176 0.0037142 0.00371664 0.00371908
0.00372152 0.00373455 0.00374757 0.00376059 0.00377361 0.00378664 0.00379976 0.00381288 0.00382601 0.00383913
0.00385225 0.00386548 0.0038787 0.00389193 0.00390515 0.00391838 0.00393171 0.00394503 0.00395836 0.00397169
0.00398501 0.00399844 0.00401187 0.0040253 0.00403873 0.00405216 0.00406569 0.00407923 0.00409276 0.00410629
0.00411983 0.00413346 0.0041471 0.00416074 0.00417438 0.00418801 0.00420176 0.0042155 0.00422924 0.00424298
0.00425672 0.00427057 0.00428442 0.00429827 0.00431212 0.00432596 0.00433992 0.00435387 0.00436783 0.00438178
0.00439573 0.0044098 0.00442386 0.00443792 0.00445198 0.00446604 0.00448021 0.00449438 0.00450855 0.00452272
0.00453688 0.00455116 0.00456544 0.00457972 0.00459399 0.00460827 0.00462266 0.00463704 0.00465143 0.00466582
0.0046802 0.0046947 0.0047092 0.00472369 0.00473819 0.00475268 0.00476729 0.0047819 0.0047965 0.00481111
0.00482571 0.00484043 0.00485515 0.00486987 0.00488459 0.0048993 0.00491413 0.00492896 0.00494379 0.00495862
0.00497345 0.00498839 0.00500334 0.00501828 0.00503322 0.00504816 0.00506322 0.00507827 0.00509333 0.00510838
0.00512344 0.00513861 0.00515378 0.00516895 0.00518412 0.00519928 0.00521457 0.00522986 0.00524514 0.00526042
0.00527571 0.00529111 0.00530651 0.00532191 0.00533731 0.00535271 0.00536823 0.00538375 0.00539926 0.00541478
0.00543029 0.00544593 0.00546157 0.0054772 0.00549283 0.00550847 0.00552422 0.00553998 0.00555573 0.00557148
0.00558723 0.00560311 0.00561898 0.00563485 0.00565073 0.0056666 0.00568259 0.00569859 0.00571458 0.00573057
0.00574657 0.00576268 0.0057788 0.00579491 0.00581103 0.00582714 0.00584338 0.00585962 0.00587586 0.0058921
0.00590834 0.00591771 0.00592708 0.00593645 0.00594581 0.00595511 0.00596212 0.00596913 0.00597614 0.00598314
0.00599015 0.00600664 0.00602313 0.00603962 0.00605611 0.0060726 0.00608922 0.00610584 0.00612245 0.00613907
0.00615569 0.00617244 0.00618919 0.00620593 0.00622268 0.00623942 0.00625631 0.00627318 0.00629006 0.00630694
0.00632381 0.00634084 0.00635784 0.00637485 0.00639186 0.00640887 0.00642603 0.00644318 0.00646032 0.00647746
0.00649461 0.00651191 0.00652919 0.00654647 0.00656375 0.00658104 0.00659849 0.00661591 0.00663333 0.00665075
0.00666818 0.00668578 0.00670335 0.00672091 0.00673847 0.00675605 0.00677379 0.00679151 0.00680921 0.00682692
0.00684465 0.00686255 0.00688042 0.00689827 0.00691612 0.006934 0.00695206 0.00697009 0.00698809 0.00700609
0.00702413 0.00704235 0.00706054 0.0070787 0.00709687 0.00711507 0.00713345 0.00715181 0.00717013 0.00718845
0.00720682 0.00722537 0.00724389 0.00726238 0.00728088 0.00729941 0.00731814 0.00733683 0.00735549 0.00737415
0.00739286 0.00741177 0.00743063 0.00744948 0.00746833 0.00748721 0.0075063 0.00752534 0.00754438 0.00756342
0.00758249 0.00760175 0.00762098 0.00764021 0.00765944 0.0076787 0.00769816 0.00771758 0.007737 0.00775644
0.00777588 0.00779553 0.00781515 0.00783478 0.00785442 0.00787407 0.00789392 0.00791375 0.00793359 0.00795344
0.0079733 0.00799335 0.00801339 0.00803345 0.00805352 0.0080736 0.0080882 0.00810281 0.00811742 0.00813205
0.00814625 0.008152 0.00815774 0.00816349 0.00816924 0.00817499 0.00819546 0.00821595 0.00823645 0.00825696
0.00827749 0.00829821 0.00831893 0.00833966 0.00836041 0.00838117 0.00840214 0.00842309 0.00844406 0.00846504
0.00848604 0.00850726 0.00852846 0.00854967 0.00857089 0.00859214 0.00861362 0.00863507 0.00865653 0.008678
0.00869951 0.00872125 0.00874297 0.00876468 0.00878641 0.00880818 0.00883019 0.00885218 0.00887414 0.00889612
0.00891817 0.00894045 0.00896271 0.00898495 0.0090072 0.00902952 0.00905208 0.00907462 0.00909714 0.00911967
0.00914227 0.00916511 0.00918794 0.00921074 0.00923356 0.00925644 0.00927957 0.00930268 0.00932578 0.0093489
0.00937208 0.0093955 0.0094189 0.00944231 0.00946574 0.00948921 0.00951293 0.00953663 0.00956035 0.0095841
0.00960787 0.00963189 0.0096559 0.00967994 0.009704 0.00972809 0.00975242 0.00977676 0.00980112 0.00982551
0.00984993 0.00986285 0.00987578 0.00988872 0.00990166 0.0099143 0.00992611 0.00993793 0.00994976 0.00996159
0.00997343 0.0099984 0.0100234 0.0100484 0.0100735 0.0100986 0.0101239 0.0101492 0.0101746 0.0102