/*--------------------------------*- C++ -*----------------------------------*\
  =========                 |
  \\      /  F ield         | OpenFOAM: The Open Source CFD Toolbox
   \\    /   O peration     | Website:  https://openfoam.org
    \\  /    A nd           | Version:  13
     \\/     M anipulation  |
\*---------------------------------------------------------------------------*/
FoamFile
{
    format      ascii;
    class       volScalarField;
    location    "2";
    object      k;
}
// * * * * * * * * * * * * * * * * * * * * * * * * * * * * * * * * * * * * * //

dimensions      [0 2 -2 0 0 0 0];

internalField   nonuniform List<scalar> 
1600
(
1.02194e-06
4.59894e-06
8.8413e-06
1.29223e-05
1.68514e-05
2.07302e-05
2.45e-05
2.8046e-05
3.13484e-05
3.463e-05
3.83096e-05
4.28856e-05
4.89219e-05
5.73629e-05
6.92032e-05
8.54858e-05
0.00010689
0.000133035
0.000162254
0.000192418
0.000222234
0.000251739
0.000281687
0.000313496
0.000349637
0.000394773
0.000437066
0.000470603
0.000488441
0.000495085
0.00047805
0.000430456
0.000348624
0.000243182
0.000149571
7.61009e-05
3.39091e-05
1.50196e-05
5.95992e-06
1.34419e-06
4.98719e-06
3.61147e-05
6.72526e-05
9.35654e-05
0.000118164
0.000141986
0.000164844
0.000186539
0.000207649
0.000230069
0.000256507
0.000289365
0.000330049
0.000379861
0.000438611
0.000505624
0.00057906
0.000655963
0.000733128
0.000807873
0.000879215
0.000947657
0.00101374
0.00107741
0.00113651
0.00118725
0.00123297
0.00127276
0.00129451
0.00130189
0.00127669
0.00119664
0.00105611
0.000833295
0.000585136
0.000345754
0.000174121
8.36579e-05
3.5906e-05
5.31309e-06
1.22404e-05
8.0907e-05
0.000139737
0.000187494
0.00023025
0.000269258
0.000304919
0.000338493
0.000373167
0.000414063
0.000466407
0.000531672
0.000605822
0.000681896
0.000755386
0.000824444
0.000888129
0.000944977
0.000994543
0.00103936
0.00108114
0.0011203
0.00115905
0.00119834
0.00123807
0.00127628
0.00131514
0.00134987
0.00137315
0.00138249
0.00137508
0.00131766
0.00122205
0.00104717
0.000788461
0.00051315
0.00026608
0.000133059
6.31705e-05
9.45009e-06
2.22917e-05
0.000130819
0.000212808
0.000276085
0.000331364
0.000380646
0.000425119
0.000467634
0.000513748
0.000570187
0.000640343
0.000720303
0.000800713
0.000872985
0.000933167
0.000980883
0.00101734
0.00104597
0.00106935
0.00108977
0.00111021
0.00113227
0.00115671
0.00118261
0.00120831
0.00123477
0.00126074
0.00128388
0.00130162
0.00131024
0.00131245
0.00129418
0.00124356
0.00114368
0.000960776
0.000681603
0.000360186
0.000158161
7.19426e-05
1.0543e-05
3.4276e-05
0.000183376
0.000285685
0.000361611
0.000426648
0.000483948
0.000535715
0.000586148
0.000641999
0.000709234
0.000787277
0.000867161
0.000937298
0.000990687
0.00102645
0.00104668
0.00105706
0.00106416
0.00107285
0.00108513
0.00109977
0.00111864
0.00114039
0.00116439
0.00119055
0.00121654
0.00124017
0.00126041
0.0012745
0.00128095
0.00128235
0.00126783
0.00123542
0.00118196
0.0010794
0.000883685
0.000526587
0.000196659
7.06169e-05
9.97842e-06
4.72585e-05
0.000235823
0.000355917
0.000442501
0.000515341
0.000579002
0.000636792
0.000693754
0.000756581
0.000829035
0.000906465
0.00097703
0.0010296
0.00105355
0.00106059
0.00106053
0.00105807
0.00105839
0.0010632
0.00107573
0.00109704
0.00112275
0.00115228
0.00118518
0.00121859
0.0012498
0.00127814
0.00130215
0.00131886
0.00132635
0.00132782
0.00131453
0.00127921
0.00122111
0.00113728
0.00100959
0.000767327
0.000300434
7.56781e-05
9.72585e-06
6.02884e-05
0.000285548
0.000420947
0.000516651
0.000595908
0.000664718
0.000727364
0.00078916
0.000855846
0.000928633
0.0010002
0.00105422
0.00107562
0.00107858
0.00106908
0.00105589
0.00104887
0.00104682
0.00105648
0.00107941
0.00110892
0.00114643
0.00118748
0.00122887
0.00126948
0.00130891
0.00134642
0.00138114
0.00141103
0.00142999
0.00143755
0.00143612
0.00140781
0.00134393
0.00123783
0.0010894
0.000884997
0.00051731
0.000117647
1.30986e-05
7.25337e-05
0.00033038
0.000478549
0.000582065
0.000666746
0.000739829
0.000806274
0.00087117
0.000938856
0.00100823
0.00106908
0.00109615
0.00109992
0.00108633
0.00106318
0.0010444
0.00103789
0.00103942
0.0010595
0.00109167
0.00113085
0.00117277
0.00121548
0.00125772
0.00129936
0.00134119
0.00138442
0.00142944
0.00147554
0.00151844
0.00154451
0.00155366
0.00154911
0.00150812
0.00141456
0.00125297
0.0010226
0.000709189
0.000201922
2.48468e-05
8.33269e-05
0.00036874
0.000527073
0.000637197
0.000726538
0.000803248
0.000872593
0.000939089
0.00100565
0.00106971
0.0011107
0.00112098
0.00111121
0.00108261
0.00105081
0.0010333
0.00102886
0.00103722
0.00106504
0.00110145
0.00114055
0.0011808
0.001221
0.00126129
0.00130218
0.0013452
0.00139164
0.00144243
0.00149843
0.00156071
0.00162131
0.00165876
0.00167022
0.00165747
0.00159036
0.0014434
0.00119725
0.000843989
0.000327017
5.97028e-05
9.21761e-05
0.000399673
0.000565584
0.000681103
0.000774459
0.000854321
0.000925888
0.000992845
0.00105661
0.00111217
0.00113606
0.00113643
0.00111237
0.00107388
0.00103807
0.00102329
0.0010208
0.00103423
0.00106402
0.00109931
0.00113533
0.00117088
0.00120569
0.00124123
0.00127996
0.00132368
0.00137384
0.00143171
0.00149795
0.00157167
0.00165326
0.00173467
0.00177881
0.00179065
0.00175898
0.00163948
0.00140626
0.00105081
0.000551946
0.000140619
9.88009e-05
0.000422829
0.000593866
0.00071352
0.000810261
0.000892887
0.000966251
0.00103316
0.00109407
0.00113837
0.00115201
0.00114359
0.00110927
0.00106266
0.00102698
0.00101367
0.00101241
0.00102809
0.00105703
0.00108773
0.00111662
0.00114392
0.00117153
0.00120203
0.00123783
0.00128095
0.00133331
0.00139665
0.00147225
0.00156054
0.00165989
0.00176747
0.00186504
0.00190762
0.00191082
0.00182627
0.00160274
0.00122132
0.000668661
0.000233651
0.000103094
0.000438476
0.000612339
0.000734842
0.000834334
0.000919423
0.000994401
0.00106107
0.00111857
0.0011537
0.00116149
0.00114519
0.00110353
0.00105266
0.00101661
0.00100327
0.001002
0.00101619
0.00104047
0.00106372
0.00108468
0.00110468
0.00112586
0.00115112
0.00118331
0.00122505
0.00127868
0.00134617
0.00142916
0.00152889
0.00164539
0.0017753
0.00191271
0.00201323
0.00204626
0.0020088
0.00181392
0.00142879
0.000848076
0.000325186
0.000105227
0.000447456
0.000621818
0.000745714
0.000847064
0.000934135
0.00101049
0.001077
0.00113178
0.00116125
0.00116558
0.00114404
0.00109805
0.00104475
0.00100672
0.000991628
0.00098907
0.000998957
0.00101674
0.00103331
0.00104731
0.00106038
0.00107522
0.00109514
0.0011235
0.00116352
0.00121788
0.00128872
0.00137776
0.00148666
0.0016168
0.00176764
0.00193255
0.00209238
0.00217059
0.0021741
0.00201101
0.00161703
0.000985847
0.000403707
0.000104859
0.00044903
0.000621603
0.000745527
0.000847998
0.000936691
0.00101444
0.00108133
0.00113469
0.00116193
0.00116516
0.00114167
0.00109357
0.00103938
0.000997761
0.000979243
0.000974336
0.000978804
0.000990166
0.00100062
0.00100857
0.0010156
0.00102466
0.00103956
0.00106421
0.00110242
0.00115735
0.00123119
0.00132548
0.00144183
0.00158242
0.00174895
0.00193871
0.00214027
0.00228724
0.00232828
0.00221232
0.00181676
0.00113747
0.000480815
0.000103413
0.000447059
0.00061753
0.000740715
0.000843272
0.000932511
0.00101092
0.00107826
0.00113165
0.00115952
0.0011631
0.0011391
0.00109138
0.00103693
0.000991296
0.000967245
0.00095847
0.000957963
0.00096322
0.00096837
0.00097141
0.000973597
0.000977884
0.000988405
0.00100977
0.00104641
0.00110206
0.00117894
0.00127814
0.00140091
0.00154981
0.00172857
0.00193884
0.00217166
0.00238267
0.0024715
0.002403
0.00200974
0.00128094
0.000554249
0.0001005
0.000441715
0.000607976
0.000729342
0.000831552
0.000921439
0.00100093
0.00106932
0.00112342
0.00115347
0.00115869
0.0011372
0.00109202
0.00103787
0.000989668
0.000957766
0.00094292
0.000937898
0.00093771
0.000938279
0.000937545
0.000936323
0.000937135
0.000944355
0.000963184
0.00099882
0.00105562
0.00113586
0.00123982
0.00136814
0.00152334
0.00171057
0.00193543
0.00219448
0.00245877
0.00260558
0.00258761
0.00220551
0.00142669
0.000627578
9.63918e-05
0.000432418
0.000593808
0.000712472
0.000813402
0.000903104
0.000983189
0.00105275
0.00110861
0.00114299
0.00115213
0.00113559
0.00109442
0.00104158
0.000991457
0.000954034
0.000931041
0.000919902
0.000914763
0.000911544
0.000908032
0.000904608
0.000903548
0.000908917
0.000926358
0.000961836
0.00102051
0.00110469
0.00121424
0.00134801
0.00150777
0.00169985
0.00193382
0.0022129
0.00251587
0.00273155
0.0027597
0.00239687
0.00156996
0.000700575
9.13567e-05
0.000421284
0.000577081
0.000692448
0.000791468
0.000880399
0.000960674
0.00103134
0.00108934
0.00112879
0.00114387
0.00113415
0.00109939
0.00104973
0.000997754
0.000955864
0.000926337
0.00090724
0.000896447
0.000889444
0.000883752
0.000879224
0.000877816
0.000882944
0.000900456
0.000937896
0.00100022
0.0010889
0.00120277
0.00134009
0.00150197
0.00169586
0.00193406
0.00222777
0.00256236
0.0028449
0.00292292
0.00258872
0.00171772
0.000774587
8.68184e-05
0.000408358
0.000558856
0.000670563
0.000767168
0.00085477
0.000934752
0.00100623
0.00106647
0.00111072
0.00113339
0.00113175
0.0011064
0.00106245
0.00101138
0.000964071
0.000929019
0.000904358
0.000886585
0.000874708
0.000866637
0.000861592
0.000861194
0.000867526
0.000887262
0.000928006
0.000993253
0.00108465
0.00120088
0.00133992
0.00150284
0.00169702
0.00193741
0.00224038
0.00260034
0.00294152
0.00307489
0.00277567
0.00186616
0.000849575
8.24174e-05
0.000393849
0.000539877
0.000647879
0.000741721
0.000827516
0.000906699
0.000978567
0.0010408
0.00108949
0.00111968
0.00112743
0.00111277
0.00107858
0.00103177
0.000982837
0.000940442
0.000909626
0.000887733
0.000871925
0.000860796
0.0008548
0.000855493
0.000863356
0.000885332
0.000929127
0.000997728
0.00109238
0.00121108
0.0013511
0.00151302
0.0017045
0.00194251
0.00224891
0.00263048
0.00302268
0.00321723
0.00296141
0.00201944
0.000926161
7.79793e-05
0.000378692
0.000520783
0.0006252
0.000716121
0.000799743
0.000877669
0.00094942
0.00101312
0.0010656
0.00110269
0.00112023
0.00111606
0.00109501
0.00105661
0.00101112
0.000966179
0.000927467
0.000899161
0.000879225
0.000866012
0.000859647
0.000861556
0.000871779
0.00089694
0.0009442
0.00101556
0.00111191
0.00123092
0.00136954
0.00152808
0.00171437
0.00194626
0.00225204
0.00264938
0.00308702
0.00334775
0.00314289
0.00217626
0.00100429
7.35705e-05
0.00036341
0.000502023
0.000603113
0.000691117
0.000772356
0.000848662
0.000919812
0.000984355
0.00103978
0.00108267
0.00110929
0.0011162
0.00110708
0.00108207
0.00104439
0.00100276
0.000962979
0.000928764
0.00090286
0.000885948
0.000878727
0.000881927
0.000894489
0.00092245
0.000971674
0.00104377
0.00113936
0.00125608
0.00139089
0.00154395
0.00172261
0.00194721
0.00225002
0.00265647
0.00313701
0.00346707
0.0033222
0.00233922
0.00108409
6.92947e-05
0.0003484
0.000483932
0.000582028
0.000667249
0.000746048
0.000820498
0.000890641
0.000955413
0.00101286
0.00106028
0.00109459
0.00111311
0.00111406
0.00110239
0.00107699
0.00104318
0.00100729
0.000973852
0.000946281
0.000926831
0.000917586
0.000920318
0.00093245
0.000960042
0.00100847
0.00107838
0.00117028
0.00128207
0.0014108
0.001556
0.00172572
0.00194146
0.00223799
0.00265337
0.00316654
0.00357263
0.00349685
0.00250799
0.00116532
6.5244e-05
0.000333909
0.000466716
0.000562189
0.000644867
0.00072131
0.000793802
0.000862654
0.000927136
0.000985758
0.00103641
0.0010766
0.00110401
0.00111571
0.00111458
0.0011033
0.00108054
0.00105238
0.00102353
0.000997795
0.000978235
0.00096766
0.000969335
0.000979651
0.00100451
0.00104935
0.00111427
0.00119989
0.00130444
0.00142459
0.00156084
0.00172156
0.00192588
0.00221319
0.00263233
0.00317787
0.00366484
0.00366615
0.00268388
0.00124769
6.14916e-05
0.000320123
0.000450491
0.000543718
0.000624166
0.000698451
0.000769017
0.00083643
0.00090024
0.00095933
0.00101206
0.00105645
0.0010905
0.00111253
0.00112124
0.00111929
0.00110944
0.00109095
0.00106924
0.00104798
0.00103048
0.00101979
0.00102017
0.00102806
0.0010489
0.00108818
0.00114613
0.00122365
0.00131873
0.00142977
0.00155728
0.00170685
0.00189859
0.00217463
0.00259514
0.00317618
0.00374121
0.00382675
0.00286745
0.00133086
5.80858e-05
0.000307184
0.000435312
0.000526652
0.000605225
0.00067764
0.000746433
0.000812396
0.000875306
0.000934338
0.000988218
0.00103537
0.00107415
0.00110326
0.00112066
0.00112813
0.00112652
0.00111887
0.00110499
0.00108943
0.00107533
0.00106572
0.00106463
0.00107042
0.00108687
0.00111958
0.00116972
0.00123769
0.00132345
0.00142535
0.0015424
0.00168031
0.00185847
0.00212085
0.00253762
0.0031456
0.0037902
0.00397747
0.00305946
0.00141409
5.50527e-05
0.000295201
0.000421194
0.000510976
0.000588054
0.000658951
0.000726234
0.000790862
0.000852794
0.000911426
0.000965754
0.00101452
0.00105635
0.00109006
0.00111479
0.00112889
0.00113519
0.0011341
0.00112853
0.00111859
0.00110816
0.00110009
0.00109795
0.00110185
0.00111424
0.00114022
0.00118222
0.00124142
0.00131776
0.00140947
0.00151587
0.00164179
0.00180558
0.00205225
0.00246154
0.00309342
0.00381184
0.00411446
0.00325841
0.00149666
5.24059e-05
0.000284268
0.000408141
0.000496657
0.000572637
0.000642426
0.000708552
0.000772078
0.00083309
0.000891148
0.000945446
0.000994951
0.00103853
0.00107512
0.00110391
0.00112445
0.00113572
0.00114042
0.00113948
0.00113517
0.00112804
0.00112149
0.00111858
0.00112078
0.00112949
0.00114929
0.00118393
0.00123439
0.00130102
0.00138265
0.00147843
0.00159221
0.00174084
0.0019692
0.00236518
0.00301485
0.00381518
0.00423322
0.00346314
0.00157766
5.01504e-05
0.000274465
0.00039616
0.000483685
0.000558987
0.000628133
0.000693539
0.000756296
0.000816565
0.000874017
0.000927989
0.000977617
0.00102194
0.00106004
0.00109117
0.00111487
0.00113109
0.00113942
0.00114176
0.00114026
0.00113614
0.00113076
0.00112711
0.00112772
0.00113313
0.00114749
0.00117517
0.00121724
0.00127455
0.00134636
0.0014317
0.00153338
0.00166619
0.00187344
0.00224853
0.00290303
0.00377193
0.00432485
0.00367007
0.00165634
4.83103e-05
0.000265937
0.00038532
0.000472127
0.000547216
0.000616247
0.00068145
0.000743853
0.000803641
0.00086055
0.000914026
0.000963331
0.00100765
0.00104619
0.00107829
0.00110351
0.00112172
0.00113321
0.00113826
0.00113804
0.00113532
0.00113034
0.00112599
0.00112481
0.00112772
0.00113734
0.00115796
0.00119213
0.00124055
0.00130288
0.00137806
0.0014678
0.00158439
0.00176805
0.00211491
0.00276118
0.00368738
0.00437947
0.0038763
0.00173194
4.69032e-05
0.000258884
0.000375782
0.000462197
0.000537619
0.000607148
0.000672736
0.000735247
0.000794835
0.000851277
0.000904113
0.000952722
0.000996421
0.00103454
0.00106652
0.00109198
0.00111077
0.0011231
0.00112942
0.00113041
0.00112839
0.00112375
0.0011184
0.00111485
0.00111532
0.00112072
0.00113506
0.00116193
0.00120197
0.00125518
0.00132056
0.00139867
0.00149894
0.00165695
0.00196784
0.0025886
0.00355498
0.0044018
0.00407488
0.00180406
4.59937e-05
0.000253439
0.000367857
0.000454377
0.000530835
0.000601568
0.000668171
0.000731207
0.000790746
0.000846634
0.000898588
0.000946085
0.000988588
0.00102556
0.00105655
0.00108126
0.0010996
0.00111173
0.00111804
0.00111909
0.00111698
0.0011121
0.00110594
0.00110072
0.00109878
0.00110133
0.00111053
0.00113037
0.0011626
0.00120712
0.00126301
0.00132993
0.00141431
0.00154627
0.00181589
0.00239161
0.00338245
0.00440433
0.00425576
0.00187282
4.59995e-05
0.000250988
0.00036249
0.000449864
0.000528307
0.00060089
0.000668586
0.00073201
0.000791403
0.000846651
0.000897284
0.000943099
0.000983836
0.00101905
0.00104843
0.00107177
0.00108904
0.00110043
0.00110631
0.00110713
0.00110489
0.00109981
0.00109319
0.00108696
0.00108312
0.00108366
0.00108895
0.0011027
0.00112799
0.00116458
0.00121179
0.00126861
0.00133859
0.00144514
0.00166966
0.00218743
0.00318368
0.00436584
0.00439493
0.00193946
4.72434e-05
0.000250987
0.000361314
0.000450087
0.00053011
0.000604107
0.000672835
0.000736565
0.000795442
0.000849524
0.0008988
0.000942999
0.000981618
0.00101476
0.00104229
0.00106414
0.00108036
0.00109117
0.00109692
0.00109807
0.00109622
0.00109184
0.00108579
0.00107978
0.0010755
0.00107497
0.00107819
0.00108797
0.00110786
0.00113827
0.00117944
0.00123077
0.00129431
0.00138932
0.00158867
0.00205009
0.0030125
0.00432312
0.00446137
0.00200814
5.01838e-05
0.000252736
0.000363699
0.000454696
0.00053724
0.000613056
0.000682593
0.000745979
0.000803564
0.000855798
0.000903
0.00094512
0.000982185
0.00101392
0.00104036
0.00106165
0.00107796
0.00108954
0.0010967
0.00109966
0.00109937
0.00109742
0.00109378
0.0010902
0.00108828
0.00108939
0.00109407
0.00110485
0.00112449
0.00115421
0.00119498
0.00124688
0.00131143
0.00140359
0.00158483
0.00201045
0.00294203
0.00430252
0.00447739
0.00208622
5.56765e-05
0.00025928
0.000373393
0.000467936
0.000552859
0.000629649
0.000699078
0.00076176
0.000818319
0.000869292
0.000915126
0.000956203
0.000992795
0.00102496
0.00105272
0.00107614
0.00109542
0.00111082
0.00112268
0.00113163
0.00113827
0.00114382
0.00114892
0.00115478
0.00116279
0.00117437
0.00119073
0.00121391
0.00124627
0.00129072
0.0013497
0.00142675
0.0015217
0.00165095
0.00184464
0.00223874
0.00304092
0.00431733
0.00442101
0.00213599
6.37047e-05
0.000277122
0.000399927
0.000500087
0.00058883
0.000668627
0.000740779
0.00080637
0.000866322
0.000921358
0.000972131
0.00101924
0.00106313
0.0011041
0.00114235
0.00117807
0.00121156
0.00124314
0.00127334
0.00130291
0.00133263
0.00136345
0.00139652
0.00143301
0.00147429
0.00152193
0.00157759
0.00164346
0.00172126
0.00181611
0.00193026
0.00207191
0.00223594
0.00244445
0.00268066
0.00305641
0.00364673
0.004546
0.00439687
0.00215797
8.22365e-05
0.000327892
0.00048103
0.000608458
0.000724084
0.000831735
0.000933952
0.00103198
0.00112643
0.00121775
0.00130663
0.00139371
0.00147964
0.00156487
0.00164986
0.00173493
0.00182059
0.00190729
0.00199573
0.00208657
0.00218073
0.00227885
0.00238207
0.00249103
0.00260714
0.00273082
0.00286396
0.00300706
0.00316112
0.00333222
0.00351869
0.00372868
0.00394198
0.00420156
0.00444249
0.00475414
0.00499707
0.00504372
0.0044038
0.00215469
0.000130471
0.000502668
0.000836646
0.00116353
0.00144843
0.00171153
0.0019657
0.00221262
0.00245082
0.00267889
0.00289725
0.0031066
0.0033084
0.00350326
0.00369239
0.00387606
0.00405544
0.00423068
0.00440322
0.00457276
0.00474118
0.00490745
0.00507423
0.00523903
0.00540626
0.00557078
0.00574058
0.00590523
0.00607936
0.00624295
0.006412
0.00657316
0.00673028
0.00690991
0.00694902
0.00682159
0.00640094
0.00542637
0.00420661
0.00200843
9.1281e-05
0.000164916
0.000267429
0.000369458
0.00046605
0.000554483
0.000636597
0.000714514
0.000789865
0.000863118
0.000934801
0.00100463
0.00107326
0.0011401
0.00120627
0.00127059
0.00133486
0.001397
0.00145988
0.00152014
0.00158216
0.00164081
0.00170257
0.00175998
0.0018221
0.0018787
0.00194171
0.00199803
0.0020619
0.00211831
0.00218057
0.00223385
0.00228617
0.00233124
0.00236356
0.0024086
0.00240597
0.00236712
0.00224574
0.00183795
)
;

boundaryField
{
    movingWall
    {
        type            kqRWallFunction;
        value           nonuniform List<scalar> 
40
(
9.1281e-05
0.000164916
0.000267429
0.000369458
0.00046605
0.000554483
0.000636597
0.000714514
0.000789865
0.000863118
0.000934801
0.00100463
0.00107326
0.0011401
0.00120627
0.00127059
0.00133486
0.001397
0.00145988
0.00152014
0.00158216
0.00164081
0.00170257
0.00175998
0.0018221
0.0018787
0.00194171
0.00199803
0.0020619
0.00211831
0.00218057
0.00223385
0.00228617
0.00233124
0.00236356
0.0024086
0.00240597
0.00236712
0.00224574
0.00183795
)
;
    }
    fixedWalls
    {
        type            kqRWallFunction;
        value           nonuniform List<scalar> 
120
(
1.02194e-06
4.98719e-06
1.22404e-05
2.22917e-05
3.4276e-05
4.72585e-05
6.02884e-05
7.25337e-05
8.33269e-05
9.21761e-05
9.88009e-05
0.000103094
0.000105227
0.000104859
0.000103413
0.0001005
9.63918e-05
9.13567e-05
8.68184e-05
8.24174e-05
7.79793e-05
7.35705e-05
6.92947e-05
6.5244e-05
6.14916e-05
5.80858e-05
5.50527e-05
5.24059e-05
5.01504e-05
4.83103e-05
4.69032e-05
4.59937e-05
4.59995e-05
4.72434e-05
5.01838e-05
5.56765e-05
6.37047e-05
8.22365e-05
0.000130471
9.1281e-05
1.34419e-06
5.31309e-06
9.45009e-06
1.0543e-05
9.97842e-06
9.72585e-06
1.30986e-05
2.48468e-05
5.97028e-05
0.000140619
0.000233651
0.000325186
0.000403707
0.000480815
0.000554249
0.000627578
0.000700575
0.000774587
0.000849575
0.000926161
0.00100429
0.00108409
0.00116532
0.00124769
0.00133086
0.00141409
0.00149666
0.00157766
0.00165634
0.00173194
0.00180406
0.00187282
0.00193946
0.00200814
0.00208622
0.00213599
0.00215797
0.00215469
0.00200843
0.00183795
1.02194e-06
4.59894e-06
8.8413e-06
1.29223e-05
1.68514e-05
2.07302e-05
2.45e-05
2.8046e-05
3.13484e-05
3.463e-05
3.83096e-05
4.28856e-05
4.89219e-05
5.73629e-05
6.92032e-05
8.54858e-05
0.00010689
0.000133035
0.000162254
0.000192418
0.000222234
0.000251739
0.000281687
0.000313496
0.000349637
0.000394773
0.000437066
0.000470603
0.000488441
0.000495085
0.00047805
0.000430456
0.000348624
0.000243182
0.000149571
7.61009e-05
3.39091e-05
1.50196e-05
5.95992e-06
1.34419e-06
)
;
    }
    frontAndBack
    {
        type            empty;
    }
}


// ************************************************************************* //
