/*--------------------------------*- C++ -*----------------------------------*\
  =========                 |
  \\      /  F ield         | OpenFOAM: The Open Source CFD Toolbox
   \\    /   O peration     | Website:  https://openfoam.org
    \\  /    A nd           | Version:  13
     \\/     M anipulation  |
\*---------------------------------------------------------------------------*/
FoamFile
{
    format      ascii;
    class       surfaceScalarField;
    location    "2";
    object      phi;
}
// * * * * * * * * * * * * * * * * * * * * * * * * * * * * * * * * * * * * * //

dimensions      [0 3 -1 0 0 0 0];

internalField   nonuniform List<scalar> 
3120
(
2.22047e-08
-2.22107e-08
3.7866e-08
-1.56616e-08
3.84718e-08
-6.06159e-10
3.02511e-08
8.22038e-09
1.88904e-08
1.13604e-08
7.7565e-09
1.11337e-08
-1.96196e-09
9.71829e-09
-1.03346e-08
8.37251e-09
-1.89753e-08
8.64062e-09
-3.13435e-08
1.23681e-08
-5.28567e-08
2.15131e-08
-9.03458e-08
3.7489e-08
-1.51747e-07
6.14007e-08
-2.46856e-07
9.51091e-08
-3.86129e-07
1.39273e-07
-5.75589e-07
1.89459e-07
-8.12461e-07
2.36872e-07
-1.08344e-06
2.70979e-07
-1.36681e-06
2.83373e-07
-1.63942e-06
2.72605e-07
-1.88244e-06
2.43018e-07
-2.08245e-06
2.00012e-07
-2.23014e-06
1.47696e-07
-2.3196e-06
8.94545e-08
-2.34987e-06
3.02727e-08
-2.31207e-06
-3.77989e-08
-2.20855e-06
-1.03524e-07
-2.03506e-06
-1.73489e-07
-1.79293e-06
-2.42126e-07
-1.48553e-06
-3.07405e-07
-1.12405e-06
-3.61484e-07
-7.30062e-07
-3.93983e-07
-3.42183e-07
-3.87879e-07
-1.39003e-08
-3.28283e-07
2.12432e-07
-2.26332e-07
2.91861e-07
-7.94297e-08
2.52652e-07
3.92088e-08
1.61258e-07
9.13945e-08
6.46829e-08
9.65749e-08
6.46829e-08
1.33424e-08
-3.55532e-08
4.46407e-09
-6.78352e-09
-2.80028e-08
3.18605e-08
-7.63229e-08
5.65402e-08
-1.32729e-07
6.77662e-08
-1.93034e-07
7.14383e-08
-2.55818e-07
7.25024e-08
-3.22437e-07
7.49917e-08
-3.97189e-07
8.33924e-08
-4.87724e-07
1.02902e-07
-6.0454e-07
1.38329e-07
-7.588e-07
1.9175e-07
-9.58286e-07
2.60887e-07
-1.20278e-06
3.39603e-07
-1.48253e-06
4.19025e-07
-1.78133e-06
4.88253e-07
-2.08059e-06
5.36136e-07
-2.36401e-06
5.54402e-07
-2.62076e-06
5.40121e-07
-2.8439e-06
4.95742e-07
-3.02763e-06
4.26747e-07
-3.16655e-06
3.38935e-07
-3.25671e-06
2.37853e-07
-3.29475e-06
1.27496e-07
-3.27383e-06
9.35331e-09
-3.1967e-06
-1.14922e-07
-3.05725e-06
-2.42981e-07
-2.85536e-06
-3.75376e-07
-2.58899e-06
-5.08501e-07
-2.25988e-06
-6.36514e-07
-1.87244e-06
-7.48917e-07
-1.43682e-06
-8.29602e-07
-9.73038e-07
-8.51666e-07
-5.16876e-07
-7.84445e-07
-1.36482e-07
-6.06726e-07
1.1305e-07
-3.28961e-07
1.93666e-07
-4.14077e-08
1.59719e-07
1.25341e-07
7.50156e-08
1.81279e-07
1.39698e-07
-1.21866e-08
-2.33664e-08
-5.60049e-08
3.70347e-08
-1.2134e-07
9.71959e-08
-1.99733e-07
1.34933e-07
-2.87175e-07
1.55208e-07
-3.81926e-07
1.66188e-07
-4.84505e-07
1.75082e-07
-5.98133e-07
1.8862e-07
-7.2896e-07
2.1422e-07
-8.8531e-07
2.59252e-07
-1.07499e-06
3.28013e-07
-1.30165e-06
4.18407e-07
-1.56235e-06
5.21587e-07
-1.84758e-06
6.2483e-07
-2.14331e-06
7.14752e-07
-2.43414e-06
7.79087e-07
-2.707e-06
8.08996e-07
-2.95363e-06
8.01029e-07
-3.16928e-06
7.55777e-07
-3.35067e-06
6.7713e-07
-3.49552e-06
5.71594e-07
-3.60202e-06
4.45436e-07
-3.66853e-06
3.04358e-07
-3.69395e-06
1.52917e-07
-3.67333e-06
-1.12635e-08
-3.60949e-06
-1.78766e-07
-3.49545e-06
-3.57015e-07
-3.3285e-06
-5.42324e-07
-3.10497e-06
-7.32034e-07
-2.82166e-06
-9.19829e-07
-2.47722e-06
-1.09336e-06
-2.07312e-06
-1.2337e-06
-1.61499e-06
-1.30979e-06
-1.11518e-06
-1.28426e-06
-6.1582e-07
-1.10608e-06
-2.01436e-07
-7.43346e-07
2.7701e-08
-2.70544e-07
7.97411e-08
7.33011e-08
4.78004e-08
2.13219e-07
1.87499e-07
-3.91742e-08
1.58079e-08
-1.13706e-07
1.11567e-07
-2.03543e-07
1.87032e-07
-3.03747e-07
2.35137e-07
-4.13722e-07
2.65183e-07
-5.34024e-07
2.86491e-07
-6.66705e-07
3.07762e-07
-8.15844e-07
3.37759e-07
-9.8729e-07
3.85665e-07
-1.18689e-06
4.58854e-07
-1.4174e-06
5.58524e-07
-1.67612e-06
6.77124e-07
-1.95499e-06
8.0046e-07
-2.24249e-06
9.12327e-07
-2.52601e-06
9.98274e-07
-2.79482e-06
1.04789e-06
-3.04106e-06
1.05524e-06
-3.25901e-06
1.01897e-06
-3.44523e-06
9.41997e-07
-3.5984e-06
8.30304e-07
-3.71809e-06
6.91283e-07
-3.80306e-06
5.30408e-07
-3.85301e-06
3.54306e-07
-3.86822e-06
1.68123e-07
-3.8499e-06
-2.9576e-08
-3.79769e-06
-2.30976e-07
-3.71265e-06
-4.42057e-07
-3.59296e-06
-6.62012e-07
-3.43524e-06
-8.8976e-07
-3.23249e-06
-1.12258e-06
-2.97336e-06
-1.35248e-06
-2.64431e-06
-1.56276e-06
-2.23649e-06
-1.7176e-06
-1.75088e-06
-1.76988e-06
-1.19582e-06
-1.66115e-06
-6.22126e-07
-1.31704e-06
-1.83936e-07
-7.08734e-07
-9.2096e-09
-1.01425e-07
1.7897e-08
1.86113e-07
2.05396e-07
-6.3041e-08
7.88491e-08
-1.61259e-07
2.09785e-07
-2.70045e-07
2.95818e-07
-3.87395e-07
3.52486e-07
-5.1485e-07
3.92638e-07
-6.54439e-07
4.26081e-07
-8.09027e-07
4.62349e-07
-9.82619e-07
5.11351e-07
-1.17964e-06
5.82687e-07
-1.40288e-06
6.82098e-07
-1.65114e-06
8.06782e-07
-1.91847e-06
9.44455e-07
-2.1955e-06
1.07749e-06
-2.47142e-06
1.18824e-06
-2.73617e-06
1.26302e-06
-2.98159e-06
1.29331e-06
-3.20079e-06
1.27444e-06
-3.38839e-06
1.20658e-06
-3.54242e-06
1.09602e-06
-3.66319e-06
9.51081e-07
-3.75229e-06
7.80375e-07
-3.81354e-06
5.91657e-07
-3.84877e-06
3.89539e-07
-3.85628e-06
1.75631e-07
-3.83748e-06
-4.8376e-08
-3.79307e-06
-2.75381e-07
-3.72438e-06
-5.10749e-07
-3.63172e-06
-7.54672e-07
-3.51413e-06
-1.00735e-06
-3.36869e-06
-1.26801e-06
-3.18973e-06
-1.53145e-06
-2.9659e-06
-1.78659e-06
-2.67114e-06
-2.01236e-06
-2.2767e-06
-2.16432e-06
-1.76675e-06
-2.1711e-06
-1.14447e-06
-1.93932e-06
-4.90812e-07
-1.36239e-06
-1.00345e-07
-4.91892e-07
3.48201e-09
8.22857e-08
2.08878e-07
-8.21545e-08
1.61004e-07
-1.97293e-07
3.24924e-07
-3.20006e-07
4.18531e-07
-4.50027e-07
4.82507e-07
-5.90024e-07
5.32635e-07
-7.42784e-07
5.78841e-07
-9.11383e-07
6.30948e-07
-1.0992e-06
6.99173e-07
-1.309e-06
7.92482e-07
-1.54108e-06
9.14178e-07
-1.79193e-06
1.05763e-06
-2.05436e-06
1.20689e-06
-2.31906e-06
1.34218e-06
-2.57682e-06
1.446e-06
-2.81921e-06
1.50541e-06
-3.03765e-06
1.51175e-06
-3.22555e-06
1.46235e-06
-3.38037e-06
1.3614e-06
-3.50263e-06
1.21828e-06
-3.59413e-06
1.04258e-06
-3.65635e-06
8.42596e-07
-3.69068e-06
6.25988e-07
-3.69912e-06
3.9798e-07
-3.68599e-06
1.62498e-07
-3.65727e-06
-7.70935e-08
-3.61341e-06
-3.19243e-07
-3.55638e-06
-5.67778e-07
-3.48733e-06
-8.23717e-07
-3.40563e-06
-1.08905e-06
-3.3087e-06
-1.36495e-06
-3.19049e-06
-1.64965e-06
-3.04123e-06
-1.93585e-06
-2.8458e-06
-2.20779e-06
-2.57489e-06
-2.43522e-06
-2.18619e-06
-2.5598e-06
-1.641e-06
-2.4845e-06
-9.26995e-07
-2.0764e-06
-2.57011e-07
-1.16188e-06
-1.05843e-08
-1.64141e-07
1.98293e-07
-9.55832e-08
2.56587e-07
-2.21856e-07
4.51197e-07
-3.53753e-07
5.50428e-07
-4.91901e-07
6.20655e-07
-6.39441e-07
6.80175e-07
-7.99416e-07
7.38816e-07
-9.74717e-07
8.06248e-07
-1.16787e-06
8.92328e-07
-1.38011e-06
1.00472e-06
-1.61006e-06
1.14413e-06
-1.85305e-06
1.30062e-06
-2.10172e-06
1.45556e-06
-2.34761e-06
1.58807e-06
-2.58219e-06
1.68059e-06
-2.79657e-06
1.71979e-06
-2.98276e-06
1.69794e-06
-3.13613e-06
1.61572e-06
-3.25646e-06
1.48172e-06
-3.34499e-06
1.30681e-06
-3.40326e-06
1.10085e-06
-3.43408e-06
8.73423e-07
-3.44143e-06
6.33331e-07
-3.43012e-06
3.8667e-07
-3.4045e-06
1.36876e-07
-3.36761e-06
-1.13975e-07
-3.32114e-06
-3.65721e-07
-3.26856e-06
-6.20356e-07
-3.21214e-06
-8.80133e-07
-3.15292e-06
-1.14828e-06
-3.09011e-06
-1.42776e-06
-3.01996e-06
-1.7198e-06
-2.93387e-06
-2.02194e-06
-2.8167e-06
-2.32496e-06
-2.64525e-06
-2.60668e-06
-2.38274e-06
-2.82232e-06
-1.9743e-06
-2.89294e-06
-1.37078e-06
-2.67993e-06
-5.60885e-07
-1.97177e-06
-6.04424e-08
-6.64584e-07
1.37851e-07
-1.03372e-07
3.59959e-07
-2.35558e-07
5.83383e-07
-3.72152e-07
6.87022e-07
-5.13983e-07
7.62486e-07
-6.64217e-07
8.30408e-07
-8.25818e-07
9.00418e-07
-1.00126e-06
9.81688e-07
-1.19217e-06
1.08324e-06
-1.39856e-06
1.21111e-06
-1.61802e-06
1.36359e-06
-1.84555e-06
1.52815e-06
-2.07414e-06
1.68415e-06
-2.29582e-06
1.80975e-06
-2.50209e-06
1.88686e-06
-2.68445e-06
1.90215e-06
-2.83661e-06
1.8501e-06
-2.95619e-06
1.7353e-06
-3.04416e-06
1.56969e-06
-3.10234e-06
1.365e-06
-3.13392e-06
1.13243e-06
-3.14338e-06
8.82886e-07
-3.1348e-06
6.24747e-07
-3.11168e-06
3.63548e-07
-3.07731e-06
1.02512e-07
-3.03464e-06
-1.56652e-07
-2.98644e-06
-4.13917e-07
-2.93603e-06
-6.70764e-07
-2.88629e-06
-9.29872e-07
-2.83937e-06
-1.19519e-06
-2.79588e-06
-1.47125e-06
-2.75371e-06
-1.76198e-06
-2.70681e-06
-2.06884e-06
-2.64377e-06
-2.38799e-06
-2.54531e-06
-2.70514e-06
-2.38048e-06
-2.98715e-06
-2.1038e-06
-3.16962e-06
-1.64898e-06
-3.13474e-06
-9.29212e-07
-2.69153e-06
-1.67564e-07
-1.42623e-06
-2.97127e-08
-1.05947e-07
4.65906e-07
-2.3933e-07
7.16766e-07
-3.76447e-07
8.24139e-07
-5.17785e-07
9.03824e-07
-6.66214e-07
9.78836e-07
-8.24389e-07
1.05859e-06
-9.94239e-07
1.15154e-06
-1.17656e-06
1.26556e-06
-1.37047e-06
1.40502e-06
-1.57303e-06
1.56614e-06
-1.77938e-06
1.73451e-06
-1.98298e-06
1.88775e-06
-2.17635e-06
2.00312e-06
-2.35162e-06
2.06213e-06
-2.50168e-06
2.05221e-06
-2.62225e-06
1.97067e-06
-2.71282e-06
1.82587e-06
-2.77508e-06
1.63195e-06
-2.81172e-06
1.40163e-06
-2.82666e-06
1.14737e-06
-2.8239e-06
8.80123e-07
-2.80663e-06
6.07476e-07
-2.77754e-06
3.34457e-07
-2.73923e-06
6.42022e-08
-2.69434e-06
-2.01535e-07
-2.64582e-06
-4.62436e-07
-2.59694e-06
-7.19647e-07
-2.55096e-06
-9.7585e-07
-2.51079e-06
-1.23536e-06
-2.47821e-06
-1.50383e-06
-2.4527e-06
-1.78748e-06
-2.43016e-06
-2.09138e-06
-2.40141e-06
-2.41674e-06
-2.35009e-06
-2.75646e-06
-2.25019e-06
-3.08705e-06
-2.06389e-06
-3.35591e-06
-1.74319e-06
-3.45544e-06
-1.21458e-06
-3.22015e-06
-3.64951e-07
-2.27586e-06
-3.94663e-07
-1.03985e-07
5.69891e-07
-2.34326e-07
8.47108e-07
-3.68147e-07
9.5796e-07
-5.05211e-07
1.04089e-06
-6.47837e-07
1.12146e-06
-7.982e-07
1.20896e-06
-9.57638e-07
1.31098e-06
-1.12624e-06
1.43416e-06
-1.30247e-06
1.58125e-06
-1.48327e-06
1.74694e-06
-1.66426e-06
1.9155e-06
-1.83954e-06
2.06304e-06
-2.00257e-06
2.16614e-06
-2.14684e-06
2.2064e-06
-2.26715e-06
2.17253e-06
-2.36099e-06
2.06451e-06
-2.42904e-06
1.89392e-06
-2.47335e-06
1.67626e-06
-2.49689e-06
1.42517e-06
-2.50317e-06
1.15365e-06
-2.49512e-06
8.72079e-07
-2.475e-06
5.87352e-07
-2.44471e-06
3.04169e-07
-2.40624e-06
2.57276e-08
-2.36184e-06
-2.45931e-07
-2.31426e-06
-5.10013e-07
-2.26673e-06
-7.67186e-07
-2.22272e-06
-1.01986e-06
-2.18564e-06
-1.27244e-06
-2.15815e-06
-1.53132e-06
-2.14119e-06
-1.80444e-06
-2.1326e-06
-2.09997e-06
-2.12556e-06
-2.42378e-06
-2.10654e-06
-2.77548e-06
-2.05276e-06
-3.14083e-06
-1.92977e-06
-3.47891e-06
-1.70224e-06
-3.68297e-06
-1.30604e-06
-3.61635e-06
-5.87448e-07
-2.99445e-06
-9.82111e-07
-9.81771e-08
6.68068e-07
-2.21744e-07
9.70675e-07
-3.48953e-07
1.08517e-06
-4.78463e-07
1.1704e-06
-6.11849e-07
1.25485e-06
-7.50729e-07
1.34784e-06
-8.95868e-07
1.45611e-06
-1.04675e-06
1.58504e-06
-1.20143e-06
1.73593e-06
-1.35709e-06
1.90261e-06
-1.51004e-06
2.06845e-06
-1.65531e-06
2.2083e-06
-1.78781e-06
2.29864e-06
-1.90288e-06
2.32147e-06
-1.99717e-06
2.26682e-06
-2.06961e-06
2.13696e-06
-2.12136e-06
1.94566e-06
-2.15436e-06
1.70926e-06
-2.17125e-06
1.44205e-06
-2.17454e-06
1.15694e-06
-2.16608e-06
8.63619e-07
-2.14722e-06
5.68491e-07
-2.11917e-06
2.76123e-07
-2.08336e-06
-1.00838e-08
-2.04166e-06
-2.8763e-07
-1.99655e-06
-5.55123e-07
-1.95114e-06
-8.12598e-07
-1.90899e-06
-1.06201e-06
-1.87376e-06
-1.30767e-06
-1.84863e-06
-1.55645e-06
-1.83547e-06
-1.8176e-06
-1.8336e-06
-2.10185e-06
-1.83819e-06
-2.41919e-06
-1.83851e-06
-2.77516e-06
-1.815e-06
-3.16434e-06
-1.73696e-06
-3.55695e-06
-1.55782e-06
-3.86211e-06
-1.24606e-06
-3.92811e-06
-7.38168e-07
-3.50234e-06
-1.72028e-06
-8.89955e-08
7.57064e-07
-2.02995e-07
1.08467e-06
-3.20879e-07
1.20305e-06
-4.40152e-07
1.28967e-06
-5.61566e-07
1.37626e-06
-6.86103e-07
1.47237e-06
-8.13956e-07
1.58397e-06
-9.44171e-07
1.71525e-06
-1.07473e-06
1.86649e-06
-1.20318e-06
2.03106e-06
-1.32654e-06
2.1918e-06
-1.44147e-06
2.32323e-06
-1.54428e-06
2.40145e-06
-1.63249e-06
2.40968e-06
-1.70443e-06
2.33876e-06
-1.76e-06
2.19252e-06
-1.80025e-06
1.98591e-06
-1.82668e-06
1.73569e-06
-1.84111e-06
1.45648e-06
-1.84497e-06
1.1608e-06
-1.83912e-06
8.57773e-07
-1.82416e-06
5.53526e-07
-1.80069e-06
2.52657e-07
-1.76965e-06
-4.11208e-08
-1.73256e-06
-3.24726e-07
-1.69164e-06
-5.96039e-07
-1.64988e-06
-8.54357e-07
-1.6108e-06
-1.10109e-06
-1.57812e-06
-1.34035e-06
-1.55528e-06
-1.57929e-06
-1.5447e-06
-1.82818e-06
-1.54676e-06
-2.09979e-06
-1.5582e-06
-2.40774e-06
-1.57059e-06
-2.76277e-06
-1.56759e-06
-3.16735e-06
-1.5218e-06
-3.60274e-06
-1.3803e-06
-4.00362e-06
-1.13377e-06
-4.17463e-06
-6.97579e-07
-3.93854e-06
-2.41786e-06
-7.72158e-08
8.3428e-07
-1.79554e-07
1.18701e-06
-2.85901e-07
1.3094e-06
-3.92808e-07
1.39658e-06
-5.00257e-07
1.48371e-06
-6.08527e-07
1.58064e-06
-7.17245e-07
1.69269e-06
-8.2512e-07
1.82313e-06
-9.30129e-07
1.9715e-06
-1.03013e-06
2.13106e-06
-1.12318e-06
2.28485e-06
-1.20884e-06
2.4089e-06
-1.28277e-06
2.47538e-06
-1.34606e-06
2.47297e-06
-1.39834e-06
2.39104e-06
-1.44006e-06
2.23424e-06
-1.4718e-06
2.01766e-06
-1.49438e-06
1.75827e-06
-1.5086e-06
1.47071e-06
-1.5149e-06
1.1671e-06
-1.51331e-06
8.56184e-07
-1.50379e-06
5.44003e-07
-1.48643e-06
2.35305e-07
-1.46177e-06
-6.57889e-08
-1.43099e-06
-3.555e-07
-1.39612e-06
-6.30911e-07
-1.35998e-06
-8.90494e-07
-1.32598e-06
-1.13509e-06
-1.29774e-06
-1.36859e-06
-1.27867e-06
-1.59836e-06
-1.27143e-06
-1.83542e-06
-1.27702e-06
-2.0942e-06
-1.29337e-06
-2.39139e-06
-1.31355e-06
-2.74259e-06
-1.32376e-06
-3.15714e-06
-1.2999e-06
-3.62659e-06
-1.20053e-06
-4.10299e-06
-9.88781e-07
-4.38638e-06
-6.139e-07
-4.31342e-06
-3.03176e-06
-6.33527e-08
8.97632e-07
-1.52236e-07
1.2759e-06
-2.45406e-07
1.40257e-06
-3.38575e-07
1.48975e-06
-4.30825e-07
1.57596e-06
-5.21731e-07
1.67155e-06
-6.10434e-07
1.78139e-06
-6.95383e-07
1.90808e-06
-7.74595e-07
2.05071e-06
-8.46365e-07
2.20283e-06
-9.09993e-07
2.34848e-06
-9.66237e-07
2.46514e-06
-1.01154e-06
2.52068e-06
-1.05148e-06
2.51291e-06
-1.08588e-06
2.42544e-06
-1.11524e-06
2.2636e-06
-1.13973e-06
2.04216e-06
-1.1594e-06
1.77794e-06
-1.17412e-06
1.48542e-06
-1.18343e-06
1.17641e-06
-1.18669e-06
8.59448e-07
-1.18335e-06
5.40665e-07
-1.17309e-06
2.2504e-07
-1.15608e-06
-8.27949e-08
-1.13322e-06
-3.78357e-07
-1.10634e-06
-6.57796e-07
-1.07808e-06
-9.18752e-07
-1.05166e-06
-1.16151e-06
-1.03049e-06
-1.38976e-06
-1.01775e-06
-1.61111e-06
-1.01604e-06
-1.83713e-06
-1.02672e-06
-2.08352e-06
-1.0486e-06
-2.3695e-06
-1.0761e-06
-2.7151e-06
-1.09767e-06
-3.13557e-06
-1.09238e-06
-3.63188e-06
-1.02721e-06
-4.16817e-06
-8.40744e-07
-4.57284e-06
-5.27589e-07
-4.62657e-06
-3.55935e-06
-4.82332e-08
9.45866e-07
-1.22447e-07
1.35011e-06
-2.01325e-07
1.48145e-06
-2.79748e-07
1.56817e-06
-3.56011e-07
1.65222e-06
-4.29101e-07
1.74464e-06
-4.97741e-07
1.85003e-06
-5.60136e-07
1.97047e-06
-6.14302e-07
2.10488e-06
-6.58831e-07
2.24736e-06
-6.9396e-07
2.38361e-06
-7.20802e-07
2.49198e-06
-7.39865e-07
2.53975e-06
-7.56623e-07
2.52967e-06
-7.73182e-07
2.442e-06
-7.90059e-07
2.28048e-06
-8.07016e-07
2.05911e-06
-8.23306e-07
1.79423e-06
-8.37983e-07
1.5001e-06
-8.49865e-07
1.18829e-06
-8.57776e-07
8.6736e-07
-8.60751e-07
5.4364e-07
-8.58153e-07
2.22442e-07
-8.49853e-07
-9.10954e-08
-8.36479e-07
-3.9173e-07
-8.19606e-07
-6.74669e-07
-8.01655e-07
-9.36703e-07
-7.85564e-07
-1.1776e-06
-7.74392e-07
-1.40094e-06
-7.70956e-07
-1.61454e-06
-7.77604e-07
-1.83048e-06
-7.95782e-07
-2.06534e-06
-8.24932e-07
-2.34035e-06
-8.60517e-07
-2.67951e-06
-8.92262e-07
-3.10382e-06
-9.01697e-07
-3.62244e-06
-8.62302e-07
-4.20756e-06
-7.11567e-07
-4.72358e-06
-4.4966e-07
-4.88848e-06
-4.00901e-06
-3.26777e-08
9.78543e-07
-9.16534e-08
1.40909e-06
-1.5565e-07
1.54544e-06
-2.18903e-07
1.63142e-06
-2.79025e-07
1.71235e-06
-3.34476e-07
1.80009e-06
-3.83615e-07
1.89917e-06
-4.24454e-07
2.01131e-06
-4.54974e-07
2.1354e-06
-4.73803e-07
2.26619e-06
-4.81507e-07
2.39131e-06
-4.80176e-07
2.49065e-06
-4.75294e-07
2.53486e-06
-4.69149e-07
2.52352e-06
-4.66599e-07
2.43945e-06
-4.69409e-07
2.28329e-06
-4.77171e-07
2.06687e-06
-4.88455e-07
1.80551e-06
-5.01591e-07
1.51324e-06
-5.14819e-07
1.20152e-06
-5.26528e-07
8.7907e-07
-5.35451e-07
5.52563e-07
-5.40727e-07
2.27718e-07
-5.42002e-07
-8.98197e-08
-5.39615e-07
-3.94118e-07
-5.34829e-07
-6.79455e-07
-5.29698e-07
-9.41834e-07
-5.26717e-07
-1.18058e-06
-5.2848e-07
-1.39917e-06
-5.37315e-07
-1.60571e-06
-5.55197e-07
-1.8126e-06
-5.83526e-07
-2.03702e-06
-6.22246e-07
-2.30163e-06
-6.67906e-07
-2.63385e-06
-7.11463e-07
-3.06026e-06
-7.36765e-07
-3.59714e-06
-7.20366e-07
-4.22396e-06
-6.02129e-07
-4.84182e-06
-3.78288e-07
-5.11232e-06
-4.3873e-06
-1.75532e-08
9.96097e-07
-6.08684e-08
1.4524e-06
-1.09848e-07
1.59442e-06
-1.57989e-07
1.67957e-06
-2.02327e-07
1.75669e-06
-2.40865e-07
1.83863e-06
-2.71662e-07
1.92996e-06
-2.92573e-07
2.03222e-06
-3.0152e-07
2.14435e-06
-2.9709e-07
2.26176e-06
-2.79841e-07
2.37406e-06
-2.52776e-07
2.46359e-06
-2.23892e-07
2.50598e-06
-1.95128e-07
2.49476e-06
-1.72517e-07
2.41684e-06
-1.5918e-07
2.26995e-06
-1.55205e-07
2.0629e-06
-1.58969e-07
1.80927e-06
-1.68309e-07
1.52258e-06
-1.81019e-07
1.21423e-06
-1.95155e-07
8.93205e-07
-2.09223e-07
5.66631e-07
-2.22229e-07
2.40724e-07
-2.33678e-07
-7.83705e-08
-2.436e-07
-3.84196e-07
-2.52872e-07
-6.70182e-07
-2.63036e-07
-9.3167e-07
-2.75725e-07
-1.16789e-06
-2.93074e-07
-1.38182e-06
-3.16773e-07
-1.58201e-06
-3.48368e-07
-1.78101e-06
-3.89139e-07
-1.99624e-06
-4.39401e-07
-2.25137e-06
-4.96669e-07
-2.57658e-06
-5.52981e-07
-3.00395e-06
-5.93403e-07
-3.55672e-06
-5.94342e-07
-4.22302e-06
-5.13561e-07
-4.9226e-06
-3.26484e-07
-5.2994e-06
-4.71378e-06
-2.385e-09
9.98482e-07
-3.07905e-08
1.48081e-06
-6.51417e-08
1.62878e-06
-9.86104e-08
1.71303e-06
-1.27877e-07
1.78595e-06
-1.50595e-07
1.86135e-06
-1.64603e-07
1.94397e-06
-1.67655e-07
2.03527e-06
-1.57627e-07
2.13432e-06
-1.33067e-07
2.2372e-06
-9.43395e-08
2.33533e-06
-4.48301e-08
2.41408e-06
7.21306e-09
2.45394e-06
5.84214e-08
2.44355e-06
1.02047e-07
2.37321e-06
1.33676e-07
2.23832e-06
1.52194e-07
2.04438e-06
1.58877e-07
1.80259e-06
1.56021e-07
1.52543e-06
1.46104e-07
1.22414e-06
1.31294e-07
9.08015e-07
1.13236e-07
5.8469e-07
9.30049e-08
2.60955e-07
7.11449e-08
-5.65105e-08
4.80012e-08
-3.61053e-07
2.32081e-08
-6.45389e-07
-3.84899e-09
-9.04613e-07
-3.46849e-08
-1.13706e-06
-6.97562e-08
-1.34675e-06
-1.10248e-07
-1.54152e-06
-1.57367e-07
-1.73389e-06
-2.12289e-07
-1.94132e-06
-2.7564e-07
-2.18801e-06
-3.45782e-07
-2.50644e-06
-4.1588e-07
-2.93385e-06
-4.72124e-07
-3.50048e-06
-4.9083e-07
-4.20431e-06
-4.38397e-07
-4.97503e-06
-2.83058e-07
-5.45474e-06
-4.99684e-06
9.63169e-09
9.8885e-07
-3.34397e-09
1.49378e-06
-2.29293e-08
1.64836e-06
-4.22716e-08
1.73238e-06
-5.73957e-08
1.80108e-06
-6.56165e-08
1.86957e-06
-6.46182e-08
1.94297e-06
-5.21154e-08
2.02277e-06
-2.59585e-08
2.10816e-06
1.53795e-08
2.19586e-06
7.16425e-08
2.27907e-06
1.39798e-07
2.34592e-06
2.1288e-07
2.38085e-06
2.84892e-07
2.37154e-06
3.49395e-07
2.30871e-06
4.00648e-07
2.18707e-06
4.36114e-07
2.00892e-06
4.56143e-07
1.78256e-06
4.62663e-07
1.51891e-06
4.58065e-07
1.22874e-06
4.44586e-07
9.21494e-07
4.23967e-07
6.05309e-07
3.97354e-07
2.87567e-07
3.65277e-07
-2.44326e-08
3.28555e-07
-3.24331e-07
2.87346e-07
-6.0418e-07
2.41872e-07
-8.59139e-07
1.92473e-07
-1.08766e-06
1.38801e-07
-1.29308e-06
8.05626e-08
-1.48328e-06
1.7039e-08
-1.67036e-06
-5.28564e-08
-1.87143e-06
-1.30027e-07
-2.11084e-06
-2.1361e-07
-2.42286e-06
-2.97741e-07
-2.84972e-06
-3.69553e-07
-3.42866e-06
-4.06868e-07
-4.167e-06
-3.78989e-07
-5.00291e-06
-2.50556e-07
-5.58317e-06
-5.24739e-06
2.13336e-08
9.67516e-07
2.25554e-08
1.49256e-06
1.62025e-08
1.65471e-06
9.95855e-09
1.73862e-06
7.84041e-09
1.80319e-06
1.26451e-08
1.86476e-06
2.67555e-08
1.92886e-06
5.2432e-08
1.99709e-06
9.17479e-08
2.06885e-06
1.46211e-07
2.1414e-06
2.16004e-07
2.20928e-06
2.98571e-07
2.26335e-06
3.88078e-07
2.29135e-06
4.78077e-07
2.28154e-06
5.6174e-07
2.22505e-06
6.32541e-07
2.11627e-06
6.86358e-07
1.9551e-06
7.21992e-07
1.74693e-06
7.40432e-07
1.50047e-06
7.43621e-07
1.22555e-06
7.3362e-07
9.31495e-07
7.12153e-07
6.26776e-07
6.80388e-07
3.19332e-07
6.39313e-07
1.66421e-08
5.89603e-07
-2.74621e-07
5.32491e-07
-5.47068e-07
4.69257e-07
-7.95905e-07
4.01217e-07
-1.01962e-06
3.29235e-07
-1.2211e-06
2.53595e-07
-1.40764e-06
1.73928e-07
-1.5907e-06
8.91708e-08
-1.78667e-06
-1.90317e-09
-2.01977e-06
-9.8891e-08
-2.32587e-06
-1.97091e-07
-2.75152e-06
-2.84181e-07
-3.34157e-06
-3.3906e-07
-4.11212e-06
-3.32025e-07
-5.00994e-06
-2.25307e-07
-5.68989e-06
-5.4727e-06
3.16931e-08
9.35823e-07
4.53774e-08
1.47888e-06
5.14515e-08
1.64864e-06
5.72319e-08
1.73284e-06
6.68483e-08
1.79358e-06
8.31657e-08
1.84845e-06
1.08543e-07
1.90349e-06
1.45139e-07
1.9605e-06
1.94899e-07
2.01909e-06
2.59271e-07
2.07703e-06
3.38584e-07
2.12996e-06
4.31075e-07
2.17086e-06
5.32145e-07
2.19028e-06
6.35496e-07
2.17819e-06
7.34505e-07
2.12604e-06
8.22344e-07
2.02843e-06
8.93661e-07
1.88378e-06
9.45594e-07
1.69499e-06
9.77556e-07
1.46851e-06
9.90495e-07
1.21261e-06
9.85981e-07
9.36008e-07
9.65587e-07
6.4717e-07
9.30556e-07
3.54364e-07
8.82062e-07
6.51358e-08
8.21333e-07
-2.13892e-07
7.50354e-07
-4.7609e-07
6.71376e-07
-7.16926e-07
5.86745e-07
-9.34986e-07
4.98274e-07
-1.13263e-06
4.06864e-07
-1.31623e-06
3.12391e-07
-1.49622e-06
2.13809e-07
-1.68809e-06
1.09685e-07
-1.91565e-06
-3.84501e-10
-2.2158e-06
-1.11911e-07
-2.64e-06
-2.13489e-07
-3.24e-06
-2.84761e-07
-4.04085e-06
-2.96976e-07
-4.99773e-06
-2.06878e-07
-5.77998e-06
-5.67958e-06
3.96526e-08
8.96171e-07
6.47614e-08
1.45377e-06
8.21964e-08
1.6312e-06
9.89098e-08
1.71613e-06
1.19018e-07
1.77347e-06
1.45381e-07
1.82208e-06
1.80287e-07
1.86858e-06
2.25749e-07
1.91503e-06
2.83529e-07
1.96131e-06
3.54935e-07
2.00562e-06
4.4038e-07
2.04452e-06
5.38663e-07
2.07258e-06
6.46354e-07
2.08259e-06
7.57968e-07
2.06658e-06
8.67149e-07
2.01686e-06
9.67403e-07
1.92818e-06
1.05281e-06
1.79837e-06
1.11918e-06
1.62863e-06
1.16435e-06
1.42334e-06
1.18788e-06
1.18908e-06
1.19039e-06
9.33502e-07
1.17302e-06
6.64536e-07
1.13704e-06
3.90345e-07
1.08387e-06
1.1831e-07
1.01532e-06
-1.45351e-07
9.34049e-07
-3.94814e-07
8.43015e-07
-6.25892e-07
7.45328e-07
-8.37299e-07
6.43517e-07
-1.03082e-06
5.39012e-07
-1.21172e-06
4.31916e-07
-1.38913e-06
3.21241e-07
-1.57741e-06
2.05476e-07
-1.79988e-06
8.39158e-08
-2.09424e-06
-4.02773e-08
-2.5158e-06
-1.55403e-07
-3.12487e-06
-2.41412e-07
-3.95484e-06
-2.7133e-07
-4.96781e-06
-1.94001e-07
-5.85731e-06
-5.87358e-06
4.54235e-08
8.50747e-07
8.04549e-08
1.41874e-06
1.08071e-07
1.60359e-06
1.34572e-07
1.68963e-06
1.63943e-07
1.7441e-06
1.98981e-07
1.78704e-06
2.41863e-07
1.8257e-06
2.94421e-07
1.86248e-06
3.582e-07
1.89753e-06
4.34322e-07
1.9295e-06
5.23177e-07
1.95566e-06
6.23904e-07
1.97185e-06
7.33942e-07
1.97255e-06
8.48964e-07
1.95155e-06
9.6314e-07
1.90268e-06
1.07039e-06
1.82093e-06
1.16489e-06
1.70388e-06
1.24172e-06
1.55179e-06
1.29758e-06
1.36748e-06
1.33072e-06
1.15594e-06
1.34069e-06
9.23537e-07
1.32796e-06
6.7726e-07
1.29364e-06
4.24673e-07
1.23925e-06
1.72697e-07
1.16699e-06
-7.30929e-08
1.07993e-06
-3.07754e-07
9.81468e-07
-5.2743e-07
8.75158e-07
-7.3099e-07
7.63993e-07
-9.1965e-07
6.49745e-07
-1.09748e-06
5.32777e-07
-1.27216e-06
4.12295e-07
-1.45693e-06
2.86742e-07
-1.67433e-06
1.54989e-07
-1.96249e-06
1.96521e-08
-2.38047e-06
-1.07967e-07
-2.99725e-06
-2.07231e-07
-3.85558e-06
-2.52021e-07
-4.92302e-06
-1.8615e-07
-5.92318e-06
-6.05973e-06
4.90833e-08
8.01664e-07
9.23694e-08
1.37545e-06
1.28873e-07
1.56709e-06
1.6399e-07
1.65451e-06
2.01446e-07
1.70664e-06
2.43914e-07
1.74458e-06
2.93424e-07
1.77619e-06
3.51611e-07
1.80429e-06
4.19788e-07
1.82935e-06
4.98865e-07
1.85042e-06
5.89132e-07
1.8654e-06
6.8991e-07
1.87108e-06
7.99214e-07
1.86324e-06
9.13662e-07
1.8371e-06
1.02838e-06
1.78796e-06
1.13774e-06
1.71157e-06
1.23624e-06
1.60537e-06
1.31892e-06
1.46911e-06
1.38181e-06
1.30459e-06
1.42228e-06
1.11547e-06
1.43898e-06
9.06839e-07
1.43168e-06
6.84561e-07
1.4011e-06
4.55249e-07
1.34872e-06
2.25081e-07
1.27681e-06
-1.18875e-09
1.18847e-06
-2.19413e-07
1.08727e-06
-4.26232e-07
9.76888e-07
-6.20605e-07
8.60431e-07
-8.03194e-07
7.39903e-07
-9.76949e-07
6.16058e-07
-1.14831e-06
4.88364e-07
-1.32924e-06
3.55188e-07
-1.54115e-06
2.14997e-07
-1.8223e-06
6.97942e-08
-2.23526e-06
-6.93132e-08
-2.85814e-06
-1.81089e-07
-3.7438e-06
-2.38657e-07
-4.86545e-06
-1.83493e-07
-5.97835e-06
-6.24322e-06
5.07136e-08
7.50951e-07
1.00489e-07
1.32567e-06
1.44513e-07
1.52306e-06
1.87067e-07
1.61195e-06
2.31501e-07
1.66221e-06
2.80291e-07
1.69579e-06
3.35294e-07
1.72119e-06
3.97942e-07
1.74164e-06
4.69319e-07
1.75797e-06
5.50113e-07
1.76963e-06
6.4048e-07
1.77503e-06
7.39808e-07
1.77175e-06
8.46459e-07
1.75659e-06
9.57657e-07
1.72591e-06
1.06956e-06
1.67605e-06
1.17731e-06
1.60382e-06
1.27578e-06
1.50691e-06
1.36021e-06
1.38468e-06
1.42652e-06
1.23828e-06
1.47162e-06
1.07037e-06
1.49359e-06
8.84871e-07
1.49163e-06
6.86517e-07
1.46603e-06
4.80855e-07
1.41801e-06
2.73097e-07
1.34965e-06
6.71731e-08
1.26377e-06
-1.33534e-07
1.1638e-06
-3.26259e-07
1.05317e-06
-5.09976e-07
9.34958e-07
-6.84984e-07
8.11438e-07
-8.53428e-07
6.83691e-07
-1.02057e-06
5.5134e-07
-1.19689e-06
4.12741e-07
-1.40255e-06
2.66061e-07
-1.67562e-06
1.12677e-07
-2.08188e-06
-3.67251e-08
-2.70874e-06
-1.60003e-07
-3.62052e-06
-2.28024e-07
-4.79743e-06
-1.84008e-07
-6.02236e-06
-6.42723e-06
5.04589e-08
7.00492e-07
1.04881e-07
1.27125e-06
1.54995e-07
1.47295e-06
2.03803e-07
1.56315e-06
2.54178e-07
1.61183e-06
3.08322e-07
1.64164e-06
3.67893e-07
1.66161e-06
4.34114e-07
1.67542e-06
5.07843e-07
1.68424e-06
5.89558e-07
1.68791e-06
6.79263e-07
1.68532e-06
7.76343e-07
1.67467e-06
8.79381e-07
1.65356e-06
9.86046e-07
1.61924e-06
1.09318e-06
1.56893e-06
1.19679e-06
1.5002e-06
1.29241e-06
1.4113e-06
1.37561e-06
1.30147e-06
1.44252e-06
1.17137e-06
1.48992e-06
1.02297e-06
1.51558e-06
8.5921e-07
1.51834e-06
6.83762e-07
1.49806e-06
5.01133e-07
1.4557e-06
3.15458e-07
1.39285e-06
1.3002e-07
1.31194e-06
-5.2626e-08
1.21595e-06
-2.30269e-07
1.10797e-06
-4.01996e-07
9.90979e-07
-5.67989e-07
8.67332e-07
-7.29781e-07
7.38256e-07
-8.91489e-07
6.03536e-07
-1.06217e-06
4.61571e-07
-1.26059e-06
3.10224e-07
-1.52427e-06
1.50077e-07
-1.92173e-06
-8.81637e-09
-2.54985e-06
-1.43155e-07
-3.48618e-06
-2.20713e-07
-4.71987e-06
-1.86298e-07
-6.05678e-06
-6.61353e-06
4.84963e-08
6.51996e-07
1.0567e-07
1.21408e-06
1.60382e-07
1.41824e-06
2.14262e-07
1.50927e-06
2.69602e-07
1.55649e-06
3.28267e-07
1.58298e-06
3.91673e-07
1.59821e-06
4.60825e-07
1.60627e-06
5.36363e-07
1.60871e-06
6.18563e-07
1.60571e-06
7.07281e-07
1.59661e-06
8.01867e-07
1.58008e-06
9.01037e-07
1.55439e-06
1.00279e-06
1.51748e-06
1.10445e-06
1.46727e-06
1.20272e-06
1.40193e-06
1.29388e-06
1.32014e-06
1.37401e-06
1.22134e-06
1.43953e-06
1.10585e-06
1.48743e-06
9.75072e-07
1.51534e-06
8.31294e-07
1.52192e-06
6.77187e-07
1.5069e-06
5.16151e-07
1.47062e-06
3.51734e-07
1.41426e-06
1.8638e-07
1.33972e-06
2.19132e-08
1.24949e-06
-1.40033e-07
1.14625e-06
-2.98756e-07
1.0327e-06
-4.5444e-07
9.1109e-07
-6.08172e-07
7.82734e-07
-7.63134e-07
6.47591e-07
-9.27024e-07
5.04079e-07
-1.11708e-06
3.49715e-07
-1.36991e-06
1.84209e-07
-1.75622e-06
1.68063e-08
-2.38245e-06
-1.28224e-07
-3.34115e-06
-2.14229e-07
-4.63387e-06
-1.9046e-07
-6.08055e-06
-6.80399e-06
4.49953e-08
6.07e-07
1.02994e-07
1.15608e-06
1.6076e-07
1.36047e-06
2.18527e-07
1.4515e-06
2.77919e-07
1.4971e-06
3.40392e-07
1.52051e-06
4.07073e-07
1.53153e-06
4.7873e-07
1.53461e-06
5.55784e-07
1.53165e-06
6.38319e-07
1.52318e-06
7.26053e-07
1.50887e-06
8.18282e-07
1.48785e-06
9.13809e-07
1.45886e-06
1.01089e-06
1.4204e-06
1.1072e-06
1.37096e-06
1.19998e-06
1.30915e-06
1.28613e-06
1.23399e-06
1.36238e-06
1.1451e-06
1.42552e-06
1.04271e-06
1.47282e-06
9.27768e-07
1.50219e-06
8.01932e-07
1.51191e-06
6.67461e-07
1.50144e-06
5.26623e-07
1.47102e-06
3.82158e-07
1.42138e-06
2.36019e-07
1.35386e-06
8.94355e-08
1.27039e-06
-5.65627e-08
1.17318e-06
-2.01549e-07
1.06451e-06
-3.45773e-07
9.46443e-07
-4.90103e-07
8.20344e-07
-6.37035e-07
6.86353e-07
-7.93033e-07
5.42954e-07
-9.73678e-07
3.87326e-07
-1.21428e-06
2.18099e-07
-1.587e-06
4.3177e-08
-2.20752e-06
-1.12892e-07
-3.18508e-06
-2.08099e-07
-4.53866e-06
-1.95359e-07
-6.09329e-06
-6.99935e-06
4.0086e-08
5.66914e-07
9.69584e-08
1.09921e-06
1.5619e-07
1.30124e-06
2.1666e-07
1.39103e-06
2.79251e-07
1.43451e-06
3.44929e-07
1.45483e-06
4.1448e-07
1.46198e-06
4.88399e-07
1.46069e-06
5.66882e-07
1.45317e-06
6.49826e-07
1.44023e-06
7.36816e-07
1.42188e-06
8.27094e-07
1.39757e-06
9.19517e-07
1.36643e-06
1.01252e-06
1.3274e-06
1.10412e-06
1.27936e-06
1.19194e-06
1.22133e-06
1.27337e-06
1.15257e-06
1.34567e-06
1.07279e-06
1.40616e-06
9.82211e-07
1.4524e-06
8.81536e-07
1.48236e-06
7.71965e-07
1.49467e-06
6.55151e-07
1.48848e-06
5.3282e-07
1.4637e-06
4.06938e-07
1.42074e-06
2.78972e-07
1.36046e-06
1.49721e-07
1.28422e-06
1.96771e-08
1.19371e-06
-1.11043e-07
1.09077e-06
-2.42828e-07
9.77194e-07
-3.76531e-07
8.54378e-07
-5.14219e-07
7.2265e-07
-6.61305e-07
5.80621e-07
-8.31649e-07
4.25144e-07
-1.0588e-06
2.53626e-07
-1.41548e-06
7.21694e-08
-2.02607e-06
-9.4989e-08
-3.01793e-06
-2.01536e-07
-4.43212e-06
-2.00464e-07
-6.09436e-06
-7.19981e-06
3.3768e-08
5.33146e-07
8.75244e-08
1.04545e-06
1.46617e-07
1.24215e-06
2.08638e-07
1.32901e-06
2.73643e-07
1.3695e-06
3.42031e-07
1.38644e-06
4.14181e-07
1.38983e-06
4.9028e-07
1.38459e-06
5.70277e-07
1.37317e-06
6.53882e-07
1.35663e-06
7.40553e-07
1.33521e-06
8.29477e-07
1.30865e-06
9.19547e-07
1.27637e-06
1.00934e-06
1.2376e-06
1.09713e-06
1.19157e-06
1.1809e-06
1.13756e-06
1.25842e-06
1.07505e-06
1.32738e-06
1.00383e-06
1.38554e-06
9.24055e-07
1.43081e-06
8.36263e-07
1.46142e-06
7.41355e-07
1.47604e-06
6.40527e-07
1.47379e-06
5.35069e-07
1.45438e-06
4.2635e-07
1.41793e-06
3.15423e-07
1.36485e-06
2.02804e-07
1.29596e-06
8.85654e-08
1.21244e-06
-2.75214e-08
1.11566e-06
-1.46047e-07
1.00714e-06
-2.68007e-07
8.88209e-07
-3.95293e-07
7.59425e-07
-5.32521e-07
6.19638e-07
-6.91862e-07
4.65511e-07
-9.04673e-07
2.93207e-07
-1.24318e-06
1.06809e-07
-1.83967e-06
-7.08321e-08
-2.84028e-06