/*--------------------------------*- C++ -*----------------------------------*\
  =========                 |
  \\      /  F ield         | OpenFOAM: The Open Source CFD Toolbox
   \\    /   O peration     | Website:  https://openfoam.org
    \\  /    A nd           | Version:  13
     \\/     M anipulation  |
\*---------------------------------------------------------------------------*/
FoamFile
{
    format      ascii;
    class       volScalarField;
    location    "0.6";
    object      nut;
}
// * * * * * * * * * * * * * * * * * * * * * * * * * * * * * * * * * * * * * //

dimensions      [0 2 -1 0 0 0 0];

internalField   nonuniform List<scalar> 
6400
(
2.35596e-09
1.11668e-08
2.26619e-08
3.37974e-08
4.37005e-08
5.23219e-08
5.9797e-08
6.62719e-08
7.18717e-08
7.67006e-08
8.08475e-08
8.43911e-08
8.74025e-08
8.99475e-08
9.20869e-08
9.38769e-08
9.53696e-08
9.66122e-08
9.76473e-08
9.8513e-08
9.92428e-08
9.98655e-08
1.00406e-07
1.00885e-07
1.0132e-07
1.01726e-07
1.02113e-07
1.02492e-07
1.0287e-07
1.03252e-07
1.03645e-07
1.04052e-07
1.04475e-07
1.04919e-07
1.05384e-07
1.05873e-07
1.06387e-07
1.06928e-07
1.07496e-07
1.08092e-07
1.08715e-07
1.09366e-07
1.10044e-07
1.10746e-07
1.1147e-07
1.1221e-07
1.12957e-07
1.13732e-07
1.14522e-07
1.15302e-07
1.16064e-07
1.16795e-07
1.17477e-07
1.18094e-07
1.18625e-07
1.19044e-07
1.19303e-07
1.19414e-07
1.19332e-07
1.19008e-07
1.18411e-07
1.17503e-07
1.16246e-07
1.14598e-07
1.12516e-07
1.09957e-07
1.06874e-07
1.03222e-07
9.89483e-08
9.40022e-08
8.83271e-08
8.18622e-08
7.45406e-08
6.62896e-08
5.7036e-08
4.67201e-08
3.53496e-08
2.31608e-08
1.12061e-08
2.35575e-09
1.12083e-08
7.78018e-07
2.07416e-06
3.14154e-06
3.97378e-06
4.63835e-06
5.18242e-06
5.63551e-06
6.01687e-06
6.33971e-06
6.61367e-06
6.84617e-06
7.04318e-06
7.2097e-06
7.35003e-06
7.46794e-06
7.56677e-06
7.64947e-06
7.71872e-06
7.77685e-06
7.82595e-06
7.86784e-06
7.90411e-06
7.93612e-06
7.96503e-06
7.99183e-06
8.01732e-06
8.04221e-06
8.06705e-06
8.09231e-06
8.11839e-06
8.14561e-06
8.17425e-06
8.20454e-06
8.23669e-06
8.27087e-06
8.30723e-06
8.3459e-06
8.38697e-06
8.43051e-06
8.47656e-06
8.52512e-06
8.57611e-06
8.62942e-06
8.68482e-06
8.74182e-06
8.79908e-06
8.85344e-06
8.90446e-06
8.95438e-06
9.00282e-06
9.04891e-06
9.0916e-06
9.12966e-06
9.16181e-06
9.18749e-06
9.20093e-06
9.20721e-06
9.19981e-06
9.17762e-06
9.13863e-06
9.08062e-06
9.00126e-06
8.89801e-06
8.76813e-06
8.60867e-06
8.41636e-06
8.18746e-06
7.91766e-06
7.60184e-06
7.23381e-06
6.80588e-06
6.30809e-06
5.72718e-06
5.04614e-06
4.24077e-06
3.27707e-06
2.11102e-06
7.75245e-07
1.11392e-08
2.30713e-08
2.10678e-06
6.29934e-06
9.75554e-06
1.23536e-05
1.43715e-05
1.59904e-05
1.73199e-05
1.84293e-05
1.93641e-05
2.01558e-05
2.08278e-05
2.1398e-05
2.1881e-05
2.22889e-05
2.26324e-05
2.29206e-05
2.31618e-05
2.33634e-05
2.35319e-05
2.36732e-05
2.37925e-05
2.38944e-05
2.39829e-05
2.40613e-05
2.41326e-05
2.41992e-05
2.42633e-05
2.43264e-05
2.43901e-05
2.44555e-05
2.45237e-05
2.45953e-05
2.46712e-05
2.47519e-05
2.48379e-05
2.49296e-05
2.50274e-05
2.51315e-05
2.52421e-05
2.53591e-05
2.54826e-05
2.56123e-05
2.57477e-05
2.5888e-05
2.6032e-05
2.61777e-05
2.6322e-05
2.64636e-05
2.66022e-05
2.6736e-05
2.68623e-05
2.6978e-05
2.70794e-05
2.71632e-05
2.7226e-05
2.72575e-05
2.72632e-05
2.72304e-05
2.71548e-05
2.70308e-05
2.68526e-05
2.66138e-05
2.63075e-05
2.59262e-05
2.54619e-05
2.49057e-05
2.42472e-05
2.34742e-05
2.25719e-05
2.1522e-05
2.03014e-05
1.88802e-05
1.72183e-05
1.52504e-05
1.28815e-05
9.96222e-06
6.28724e-06
2.06131e-06
2.24974e-08
3.50054e-08
3.25365e-06
9.93194e-06
1.55962e-05
1.99115e-05
2.32655e-05
2.59526e-05
2.81549e-05
2.99907e-05
3.15393e-05
3.28545e-05
3.39728e-05
3.49235e-05
3.57307e-05
3.64141e-05
3.6991e-05
3.74762e-05
3.78832e-05
3.82239e-05
3.85091e-05
3.87484e-05
3.89503e-05
3.91223e-05
3.92711e-05
3.94022e-05
3.95205e-05
3.96302e-05
3.97347e-05
3.98368e-05
3.9939e-05
4.00433e-05
4.01512e-05
4.02641e-05
4.03831e-05
4.05091e-05
4.0643e-05
4.07853e-05
4.09365e-05
4.10969e-05
4.12666e-05
4.14456e-05
4.16337e-05
4.18303e-05
4.20345e-05
4.2245e-05
4.24598e-05
4.26762e-05
4.2891e-05
4.3102e-05
4.33066e-05
4.35012e-05
4.36814e-05
4.38419e-05
4.3977e-05
4.40806e-05
4.41444e-05
4.41647e-05
4.41335e-05
4.40394e-05
4.38743e-05
4.36296e-05
4.3296e-05
4.28635e-05
4.23219e-05
4.16609e-05
4.08672e-05
3.99269e-05
3.88238e-05
3.75388e-05
3.6049e-05
3.43252e-05
3.23301e-05
3.00133e-05
2.73042e-05
2.41047e-05
2.02653e-05
1.5558e-05
9.68344e-06
3.10276e-06
3.34134e-08
4.603e-08
4.19141e-06
1.27871e-05
2.02303e-05
2.6006e-05
3.05491e-05
3.42128e-05
3.72311e-05
3.97535e-05
4.18805e-05
4.36837e-05
4.52179e-05
4.65241e-05
4.76348e-05
4.85772e-05
4.93741e-05
5.00454e-05
5.06095e-05
5.10826e-05
5.14791e-05
5.1812e-05
5.20927e-05
5.23315e-05
5.25373e-05
5.27179e-05
5.28799e-05
5.3029e-05
5.31699e-05
5.33066e-05
5.34423e-05
5.35797e-05
5.3721e-05
5.38682e-05
5.40225e-05
5.41854e-05
5.43578e-05
5.45403e-05
5.47337e-05
5.49382e-05
5.5154e-05
5.53809e-05
5.56183e-05
5.58653e-05
5.61207e-05
5.63825e-05
5.66484e-05
5.69149e-05
5.71786e-05
5.74359e-05
5.76825e-05
5.7913e-05
5.81215e-05
5.8301e-05
5.84436e-05
5.85405e-05
5.85796e-05
5.85658e-05
5.84746e-05
5.82981e-05
5.80255e-05
5.76451e-05
5.7145e-05
5.65122e-05
5.57333e-05
5.47933e-05
5.36763e-05
5.23643e-05
5.08368e-05
4.9069e-05
4.70314e-05
4.46865e-05
4.19863e-05
3.88668e-05
3.52401e-05
3.0982e-05
2.59103e-05
1.97604e-05
1.2198e-05
3.90387e-06
4.30354e-08
5.59592e-08
4.96923e-06
1.50867e-05
2.39797e-05
3.09902e-05
3.65668e-05
4.10959e-05
4.48413e-05
4.79796e-05
5.06322e-05
5.28861e-05
5.48068e-05
5.64443e-05
5.7839e-05
5.90241e-05
6.00282e-05
6.08766e-05
6.15907e-05
6.21905e-05
6.26936e-05
6.31162e-05
6.34725e-05
6.37752e-05
6.40354e-05
6.42627e-05
6.44655e-05
6.46508e-05
6.48246e-05
6.49917e-05
6.51564e-05
6.53219e-05
6.5491e-05
6.5666e-05
6.58487e-05
6.60406e-05
6.62428e-05
6.64561e-05
6.66812e-05
6.69183e-05
6.71674e-05
6.74283e-05
6.77002e-05
6.7982e-05
6.82721e-05
6.85681e-05
6.88672e-05
6.9166e-05
6.94601e-05
6.97444e-05
7.00131e-05
7.02595e-05
7.04761e-05
7.06544e-05
7.07849e-05
7.08529e-05
7.08546e-05
7.07861e-05
7.06197e-05
7.03476e-05
6.99565e-05
6.94325e-05
6.87614e-05
6.79279e-05
6.6916e-05
6.57084e-05
6.42862e-05
6.26284e-05
6.07105e-05
5.85038e-05
5.59736e-05
5.30763e-05
4.97562e-05
4.59397e-05
4.15265e-05
3.63766e-05
3.0289e-05
2.29813e-05
1.41302e-05
4.53751e-06
5.13427e-08
6.48274e-08
5.62436e-06
1.69889e-05
2.70877e-05
3.515e-05
4.16254e-05
4.69196e-05
5.13172e-05
5.50133e-05
5.81449e-05
6.08114e-05
6.30874e-05
6.50308e-05
6.66885e-05
6.80992e-05
6.92963e-05
7.03087e-05
7.11623e-05
7.188e-05
7.24826e-05
7.29888e-05
7.34155e-05
7.37774e-05
7.40876e-05
7.43574e-05
7.45968e-05
7.4814e-05
7.50161e-05
7.52089e-05
7.53974e-05
7.55856e-05
7.57767e-05
7.59734e-05
7.61779e-05
7.63919e-05
7.66167e-05
7.68532e-05
7.71021e-05
7.73636e-05
7.76377e-05
7.79238e-05
7.82211e-05
7.8528e-05
7.88426e-05
7.91621e-05
7.94832e-05
7.98014e-05
8.01119e-05
8.04085e-05
8.06844e-05
8.09315e-05
8.11412e-05
8.13033e-05
8.14069e-05
8.14323e-05
8.13851e-05
8.12497e-05
8.09987e-05
8.06233e-05
8.01086e-05
7.9439e-05
7.85983e-05
7.75694e-05
7.63346e-05
7.48744e-05
7.31679e-05
7.11915e-05
6.89181e-05
6.6316e-05
6.33465e-05
5.99617e-05
5.61004e-05
5.16823e-05
4.6599e-05
4.07004e-05
3.37746e-05
2.55305e-05
1.56649e-05
5.05258e-06
5.84845e-08
7.27204e-08
6.18257e-06
1.85929e-05
2.97127e-05
3.86805e-05
4.59417e-05
5.19138e-05
5.68957e-05
6.10962e-05
6.4664e-05
6.7708e-05
7.03108e-05
7.25368e-05
7.44383e-05
7.60591e-05
7.74363e-05
7.86027e-05
7.95873e-05
8.04162e-05
8.11127e-05
8.16981e-05
8.21911e-05
8.26087e-05
8.29656e-05
8.32749e-05
8.35476e-05
8.37934e-05
8.40203e-05
8.42352e-05
8.44436e-05
8.46501e-05
8.48587e-05
8.50722e-05
8.52933e-05
8.55238e-05
8.57652e-05
8.60185e-05
8.62844e-05
8.65632e-05
8.68546e-05
8.7158e-05
8.74722e-05
8.77956e-05
8.81256e-05
8.8459e-05
8.87919e-05
8.91194e-05
8.94355e-05
8.97335e-05
9.00053e-05
9.02421e-05
9.04337e-05
9.05689e-05
9.06336e-05
9.06099e-05
9.05038e-05
9.02939e-05
8.99523e-05
8.94696e-05
8.88295e-05
8.80149e-05
8.70083e-05
8.57913e-05
8.43445e-05
8.26474e-05
8.06771e-05
7.84084e-05
7.58123e-05
7.28547e-05
6.94945e-05
6.56804e-05
6.13476e-05
5.6411e-05
5.07569e-05
4.42289e-05
3.66084e-05
2.7595e-05
1.69124e-05
5.47846e-06
6.46099e-08
7.97293e-08
6.66184e-06
1.99649e-05
3.19584e-05
4.17138e-05
4.96661e-05
5.62407e-05
6.17469e-05
6.64036e-05
7.03685e-05
7.37582e-05
7.66616e-05
7.91488e-05
8.12768e-05
8.30932e-05
8.46389e-05
8.59499e-05
8.70581e-05
8.79919e-05
8.87773e-05
8.94375e-05
8.99934e-05
9.04635e-05
9.08642e-05
9.12101e-05
9.15135e-05
9.17851e-05
9.2034e-05
9.22678e-05
9.24928e-05
9.27142e-05
9.29364e-05
9.31628e-05
9.33962e-05
9.36386e-05
9.38918e-05
9.41568e-05
9.44344e-05
9.47247e-05
9.50275e-05
9.5342e-05
9.56666e-05
9.59995e-05
9.63377e-05
9.66777e-05
9.70148e-05
9.73435e-05
9.76572e-05
9.79482e-05
9.82078e-05
9.84258e-05
9.85911e-05
9.86917e-05
9.87078e-05
9.86328e-05
9.84591e-05
9.81699e-05
9.77343e-05
9.71425e-05
9.63769e-05
9.54196e-05
9.42518e-05
9.28545e-05
9.1207e-05
8.92878e-05
8.70731e-05
8.45365e-05
8.16475e-05
7.83706e-05
7.46627e-05
7.04707e-05
6.57268e-05
6.03432e-05
5.42023e-05
4.71436e-05
3.89449e-05
2.9291e-05
1.79405e-05
5.83366e-06
6.98421e-08
8.59394e-08
7.07571e-06
2.11481e-05
3.38978e-05
4.43429e-05
5.29058e-05
6.00174e-05
6.59946e-05
7.10641e-05
7.53906e-05
7.90969e-05
8.2277e-05
8.50058e-05
8.73441e-05
8.9343e-05
9.10465e-05
9.24933e-05
9.37178e-05
9.47508e-05
9.56203e-05
9.63514e-05
9.69667e-05
9.74864e-05
9.79285e-05
9.83085e-05
9.86401e-05
9.89352e-05
9.92036e-05
9.94537e-05
9.96926e-05
9.99262e-05
0.000100159
0.000100395
0.000100637
0.000100888
0.000101149
0.000101422
0.000101707
0.000102004
0.000102314
0.000102634
0.000102964
0.000103301
0.000103642
0.000103983
0.000104318
0.000104642
0.000104947
0.000105225
0.000105466
0.000105659
0.000105792
0.000105852
0.000105815
0.000105684
0.000105438
0.000105066
0.000104535
0.000103834
0.000102944
0.000101847
0.000100524
9.89537e-05
9.71164e-05
9.49892e-05
9.25479e-05
8.97653e-05
8.66102e-05
8.3046e-05
7.90287e-05
7.45035e-05
6.94011e-05
6.36314e-05
5.70745e-05
4.95669e-05
4.08837e-05
3.06967e-05
1.87936e-05
6.13085e-06
7.42842e-08
9.1428e-08
7.43444e-06
2.21734e-05
3.55831e-05
4.6635e-05
5.57394e-05
6.33306e-05
6.97314e-05
7.51747e-05
7.98306e-05
8.38267e-05
8.72616e-05
9.02136e-05
9.27471e-05
9.49162e-05
9.67673e-05
9.83417e-05
9.96757e-05
0.000100802
0.000101751
0.00010255
0.000103221
0.000103788
0.000104269
0.000104681
0.000105038
0.000105355
0.000105641
0.000105905
0.000106156
0.000106399
0.00010664
0.000106883
0.000107131
0.000107387
0.000107653
0.00010793
0.000108219
0.00010852
0.000108833
0.000109156
0.000109487
0.000109824
0.000110164
0.000110501
0.00011083
0.000111145
0.000111437
0.000111697
0.000111915
0.000112079
0.000112175
0.000112188
0.000112098
0.000111907
0.000111586
0.00011113
0.000110503
0.000109693
0.000108681
0.000107448
0.000105974
0.000104239
0.000102222
9.98994e-05
9.72476e-05
9.42387e-05
9.08413e-05
8.70182e-05
8.27248e-05
7.79054e-05
7.24898e-05
6.63864e-05
5.94734e-05
5.15854e-05
4.24951e-05
3.18652e-05
1.95027e-05
6.37931e-06
7.80251e-08
9.62648e-08
7.74599e-06
2.30648e-05
3.70534e-05
4.86409e-05
5.82265e-05
6.62466e-05
7.30288e-05
7.88104e-05
8.37661e-05
8.80275e-05
9.16966e-05
9.48549e-05
9.75695e-05
9.9897e-05
0.000101886
0.00010358
0.000105017
0.000106232
0.000107256
0.000108118
0.000108843
0.000109454
0.000109971
0.000110413
0.000110795
0.000111131
0.000111432
0.000111709
0.000111969
0.00011222
0.000112467
0.000112715
0.000112967
0.000113227
0.000113495
0.000113774
0.000114065
0.000114367
0.000114679
0.000115002
0.000115332
0.000115666
0.000116001
0.000116331
0.000116651
0.000116954
0.000117229
0.000117469
0.000117661
0.000117793
0.00011785
0.000117813
0.000117671
0.000117415
0.00011702
0.000116478
0.000115756
0.000114838
0.000113706
0.000112341
0.000110722
0.000108829
0.000106641
0.000104136
0.000101288
9.80701e-05
9.44512e-05
9.0394e-05
8.58535e-05
8.07739e-05
7.50842e-05
6.86918e-05
6.14739e-05
5.32631e-05
4.383e-05
3.28364e-05
2.00902e-05
6.5863e-06
8.11455e-08
1.00513e-07
8.01676e-06
2.38414e-05
3.83388e-05
5.04001e-05
6.04137e-05
6.88176e-05
7.59429e-05
8.20306e-05
8.72591e-05
9.17629e-05
9.56472e-05
9.89959e-05
0.000101878
0.000104353
0.000106471
0.000108277
0.000109811
0.000111109
0.000112204
0.000113125
0.0001139
0.000114553
0.000115104
0.000115574
0.000115978
0.000116332
0.000116648
0.000116935
0.000117204
0.000117461
0.000117713
0.000117964
0.000118218
0.000118479
0.000118748
0.000119028
0.000119318
0.000119619
0.00011993
0.00012025
0.000120576
0.000120905
0.000121234
0.000121556
0.000121865
0.000122153
0.000122411
0.000122628
0.000122792
0.00012289
0.000122908
0.00012282
0.000122626
0.000122305
0.000121836
0.000121209
0.000120393
0.000119369
0.00011812
0.000116626
0.000114867
0.000112824
0.000110474
0.000107795
0.000104764
0.000101352
9.75303e-05
9.32604e-05
8.8498e-05
8.31873e-05
7.7257e-05
7.06143e-05
6.31352e-05
5.46513e-05
4.49312e-05
3.36372e-05
2.05742e-05
6.75794e-06
8.37208e-08
1.04231e-07
8.25203e-06
2.45181e-05
3.94633e-05
5.19439e-05
6.23384e-05
7.10857e-05
7.85194e-05
8.48839e-05
9.03602e-05
9.50854e-05
9.91669e-05
0.000102691
0.000105728
0.00010834
0.000110577
0.000112488
0.000114112
0.000115488
0.00011665
0.000117627
0.00011845
0.000119141
0.000119725
0.000120221
0.000120646
0.000121017
0.000121345
0.000121642
0.000121918
0.00012218
0.000122435
0.000122688
0.000122944
0.000123205
0.000123473
0.000123752
0.00012404
0.000124339
0.000124647
0.000124963
0.000125285
0.000125609
0.00012593
0.000126243
0.00012654
0.000126813
0.000127053
0.000127247
0.000127384
0.000127449
0.000127427
0.000127289
0.000127044
0.000126659
0.000126117
0.000125407
0.0001245
0.000123373
0.00012201
0.000120392
0.000118498
0.000116309
0.000113804
0.000110962
0.000107758
0.000104166
0.000100156
9.56916e-05
9.07286e-05
8.52115e-05
7.90693e-05
7.22091e-05
6.45065e-05
5.57921e-05
4.5833e-05
3.42916e-05
2.097e-05
6.89958e-06
8.5823e-08
1.07473e-07
8.45623e-06
2.51076e-05
4.04468e-05
5.32984e-05
6.40315e-05
7.30856e-05
8.07965e-05
8.74108e-05
9.31117e-05
9.80386e-05
0.000102301
0.000105985
0.000109166
0.000111904
0.000114253
0.00011626
0.000117969
0.000119418
0.000120642
0.000121673
0.000122539
0.000123268
0.000123882
0.000124402
0.000124846
0.000125232
0.000125571
0.000125877
0.000126159
0.000126426
0.000126683
0.000126938
0.000127193
0.000127454
0.000127721
0.000127998
0.000128284
0.00012858
0.000128885
0.000129198
0.000129515
0.000129833
0.000130147
0.000130451
0.000130737
0.000130996
0.000131219
0.000131392
0.000131503
0.000131537
0.000131477
0.000131294
0.000130998
0.000130553
0.000129941
0.00012915
0.000128156
0.000126929
0.000125456
0.000123717
0.000121693
0.000119364
0.000116711
0.000113712
0.000110344
0.000106583
0.000102397
9.77537e-05
9.26077e-05
8.6905e-05
8.05751e-05
7.35251e-05
6.56307e-05
5.67219e-05
4.65648e-05
3.48213e-05
2.12911e-05
7.01609e-06
8.75211e-08
1.10287e-07
8.63313e-06
2.56203e-05
4.13059e-05
5.44851e-05
6.55189e-05
7.48469e-05
8.28062e-05
8.96455e-05
9.55498e-05
0.00010066
0.000105087
0.000108919
0.000112231
0.000115086
0.000117538
0.000119636
0.000121423
0.00012294
0.000124222
0.000125302
0.00012621
0.000126973
0.000127615
0.000128158
0.000128621
0.00012902
0.00012937
0.000129684
0.000129971
0.000130241
0.0001305
0.000130756
0.000131011
0.000131271
0.000131537
0.000131812
0.000132096
0.00013239
0.000132692
0.000133002
0.000133315
0.000133628
0.000133937
0.000134233
0.000134511
0.000134759
0.000134967
0.000135122
0.000135211
0.000135218
0.000135125
0.000134901
0.000134557
0.000134056
0.000133379
0.00013251
0.000131433
0.00013011
0.000128531
0.000126676
0.000124526
0.000122062
0.000119266
0.000116116
0.000112592
0.000108669
0.000104319
9.9508e-05
9.41936e-05
8.83221e-05
8.1824e-05
7.46072e-05
6.65474e-05
5.74746e-05
4.71539e-05
3.52465e-05
2.155e-05
7.11207e-06
8.88818e-08
1.12721e-07
8.78602e-06
2.60651e-05
4.20553e-05
5.55226e-05
6.68231e-05
7.63949e-05
8.45766e-05
9.16182e-05
9.77061e-05
0.000102983
0.000107559
0.000111526
0.000114959
0.000117921
0.000120468
0.000122649
0.00012451
0.00012609
0.000127426
0.000128552
0.000129498
0.000130293
0.000130962
0.000131526
0.000132005
0.000132418
0.000132778
0.000133098
0.00013339
0.000133664
0.000133925
0.000134181
0.000134437
0.000134696
0.000134961
0.000135235
0.000135518
0.00013581
0.000136111
0.000136419
0.00013673
0.000137041
0.000137347
0.00013764
0.000137912
0.000138153
0.000138351
0.000138494
0.000138566
0.000138552
0.000138432
0.000138175
0.000137787
0.000137236
0.0001365
0.000135558
0.0001344
0.000132989
0.000131307
0.000129339
0.000127067
0.000124471
0.000121535
0.00011824
0.000114565
0.000110488
0.000105981
0.000101013
9.55412e-05
8.95144e-05
8.28639e-05
7.54986e-05
6.72948e-05
5.80826e-05
4.76266e-05
3.55869e-05
2.17589e-05
7.192e-06
8.99696e-08
1.14817e-07
8.91776e-06
2.64499e-05
4.27072e-05
5.64275e-05
6.79638e-05
7.77522e-05
8.61323e-05
9.33552e-05
9.96084e-05
0.000105035
0.000109748
0.000113838
0.000117381
0.000120441
0.000123075
0.000125334
0.000127261
0.0001289
0.000130286
0.000131455
0.000132437
0.000133262
0.000133955
0.000134539
0.000135034
0.000135458
0.000135827
0.000136155
0.000136452
0.000136728
0.000136991
0.000137249
0.000137505
0.000137764
0.000138029
0.000138303
0.000138586
0.000138879
0.000139181
0.000139489
0.000139802
0.000140115
0.000140422
0.000140715
0.000140988
0.000141228
0.000141424
0.000141561
0.000141625
0.000141597
0.000141458
0.00014118
0.000140752
0.000140159
0.00013937
0.000138363
0.000137124
0.00013563
0.000133849
0.00013177
0.000129377
0.000126652
0.00012358
0.000120142
0.000116321
0.000112095
0.000107439
0.000102321
9.67022e-05
9.05314e-05
8.37413e-05
7.6242e-05
6.79109e-05
5.85785e-05
4.80092e-05
3.58621e-05
2.19301e-05
7.26033e-06
9.0848e-08
1.16614e-07
9.03095e-06
2.67817e-05
4.3272e-05
5.72142e-05
6.89584e-05
7.89387e-05
8.74955e-05
9.48805e-05
0.000101282
0.000106844
0.00011168
0.000115882
0.000119525
0.000122675
0.000125389
0.000127718
0.000129708
0.0001314
0.000132832
0.000134041
0.000135056
0.000135909
0.000136625
0.000137227
0.000137737
0.000138172
0.00013855
0.000138884
0.000139186
0.000139466
0.000139731
0.00013999
0.000140248
0.000140508
0.000140775
0.000141051
0.000141337
0.000141633
0.000141938
0.000142252
0.00014257
0.000142889
0.000143203
0.000143505
0.000143785
0.000144033
0.000144235
0.000144377
0.000144442
0.000144411
0.000144263
0.000143977
0.000143515
0.000142886
0.00014205
0.000140983
0.000139664
0.000138088
0.000136208
0.000134018
0.000131503
0.000128648
0.00012544
0.000121862
0.000117899
0.000113531
0.000108734
0.000103476
9.77211e-05
9.14177e-05
8.45e-05
7.68792e-05
6.84341e-05
5.89959e-05
4.83295e-05
3.60928e-05
2.20764e-05
7.3217e-06
9.158e-08
1.18151e-07
9.12784e-06
2.70667e-05
4.37596e-05
5.78958e-05
6.98227e-05
7.99726e-05
8.8686e-05
9.62155e-05
0.00010275
0.000108434
0.000113381
0.000117683
0.000121417
0.000124649
0.000127436
0.000129829
0.000131876
0.000133617
0.000135093
0.000136337
0.000137384
0.000138262
0.000138999
0.000139618
0.000140142
0.000140589
0.000140975
0.000141315
0.000141622
0.000141906
0.000142175
0.000142436
0.000142697
0.00014296
0.000143231
0.000143511
0.000143802
0.000144104
0.000144418
0.000144741
0.000145071
0.000145404
0.000145733
0.000146051
0.000146349
0.000146615
0.000146835
0.000146993
0.000147072
0.00014705
0.000146905
0.000146613
0.000146142
0.000145471
0.00014459
0.000143462
0.000142066
0.000140388
0.000138413
0.000136102
0.000133458
0.000130469
0.000127122
0.000123407
0.000119308
0.000114808
0.000109882
0.000104501
9.86254e-05
9.22059e-05
8.51761e-05
7.7448e-05
6.89015e-05
5.93691e-05
4.86166e-05
3.63014e-05
2.22118e-05
7.38103e-06
9.22311e-08
1.1946e-07
9.2105e-06
2.73105e-05
4.41786e-05
5.8484e-05
7.0571e-05
8.08702e-05
8.97223e-05
9.738e-05
0.000104033
0.000109825
0.000114872
0.000119265
0.000123081
0.000126387
0.000129241
0.000131693
0.000133791
0.000135578
0.000137092
0.00013837
0.000139445
0.000140347
0.000141104
0.000141739
0.000142276
0.000142733
0.000143128
0.000143475
0.000143787
0.000144075
0.000144349
0.000144615
0.000144879
0.000145148
0.000145425
0.000145712
0.000146012
0.000146326
0.000146653
0.000146992
0.000147341
0.000147695
0.000148049
0.000148395
0.000148723
0.00014902
0.000149272
0.000149461
0.000149567
0.000149566
0.000149434
0.000149143
0.000148666
0.00014796
0.000147018
0.000145819
0.00014433
0.000142533
0.000140432
0.000137992
0.000135201
0.000132063
0.000128572
0.00012472
0.000120494
0.000115879
0.000110849
0.000105372
9.94076e-05
9.29021e-05
8.57877e-05
7.79753e-05
6.93452e-05
5.97313e-05
4.89009e-05
3.65124e-05
2.23518e-05
7.44385e-06
9.28708e-08
1.20573e-07
9.28076e-06
2.75179e-05
4.45372e-05
5.89895e-05
7.12164e-05
8.16466e-05
9.06209e-05
9.83922e-05
0.00010515
0.00011104
0.000116176
0.00012065
0.00012454
0.000127913
0.000130826
0.000133332
0.000135477
0.000137305
0.000138855
0.000140164
0.000141265
0.000142189
0.000142964
0.000143614
0.000144163
0.000144631
0.000145034
0.000145388
0.000145706
0.000146
0.000146279
0.000146551
0.000146823
0.000147099
0.000147385
0.000147684
0.000147998
0.000148328
0.000148675
0.000149038
0.000149415
0.000149801
0.000150192
0.000150578
0.00015095
0.000151293
0.000151592
0.000151826
0.000151972
0.000152003
0.000151889
0.000151599
0.000151101
0.000150363
0.000149331
0.000148023
0.000146404
0.000144455
0.000142167
0.000139567
0.000136595
0.000133283
0.000129633
0.000125644
0.000121307
0.000116607
0.000111515
0.000105995
9.99979e-05
9.34631e-05
8.63161e-05
7.84633e-05
6.97829e-05
6.01094e-05
4.9212e-05
3.67519e-05
2.25143e-05
7.51651e-06
9.35752e-08
1.21518e-07
9.34027e-06
2.76936e-05
4.48426e-05
5.94222e-05
7.17708e-05
8.23157e-05
9.13973e-05
9.92688e-05
0.00010612
0.000112096
0.000117311
0.000121858
0.000125815
0.000129247
0.000132215
0.000134768
0.000136956
0.000138821
0.000140404
0.00014174
0.000142865
0.00014381
0.000144601
0.000145266
0.000145827
0.000146305
0.000146717
0.000147078
0.000147404
0.000147705
0.000147991
0.000148271
0.000148551
0.000148839
0.000149138
0.000149453
0.000149786
0.00015014
0.000150515
0.000150911
0.000151326
0.000151757
0.000152197
0.000152639
0.00015307
0.000153476
0.000153837
0.000154129
0.000154324
0.00015439
0.000154289
0.000153986
0.00015344
0.000152616
0.000151481
0.000149978
0.000148156
0.000145975
0.000143437
0.000140573
0.000137387
0.000133853
0.000130018
0.00012589
0.000121465
0.000116727
0.000111642
0.000106165
0.000100231
9.37654e-05
8.66796e-05
7.88685e-05
7.02026e-05
6.05141e-05
4.95734e-05
3.70464e-05
2.27185e-05
7.60544e-06
9.44398e-08
1.2232e-07
9.39053e-06
2.78417e-05
4.51015e-05
5.97908e-05
7.22452e-05
8.289e-05
9.20656e-05
0.000100025
0.000106958
0.00011301
0.000118296
0.000122908
0.000126924
0.00013041
0.000133425
0.000136022
0.000138248
0.000140147
0.000141759
0.000143121
0.000144268
0.000145231
0.000146039
0.000146717
0.00014729
0.000147777
0.000148198
0.000148568
0.000148902
0.000149211
0.000149507
0.000149797
0.00015009
0.000150392
0.000150709
0.000151045
0.000151404
0.000151788
0.0001522
0.00015264
0.000153105
0.000153594
0.0001541
0.000154613
0.000155121
0.000155604
0.00015604
0.000156398
0.000156642
0.000156732
0.000156622
0.000156265
0.000155615
0.000154631
0.00015328
0.000151525
0.000149348
0.000146813
0.000143908
0.000140661
0.000137163
0.000133356
0.000129296
0.000125023
0.00012054
0.00011583
0.000110853
0.000105544
9.98187e-05
9.35774e-05
8.67054e-05
7.90752e-05
7.05406e-05
6.09235e-05
4.99919e-05
3.74172e-05
2.29832e-05
7.712e-06
9.5655e-08
1.23002e-07
9.43286e-06
2.79657e-05
4.53199e-05
6.01037e-05
7.26494e-05
8.33812e-05
9.26387e-05
0.000100675
0.000107681
0.0001138
0.000119148
0.000123817
0.000127885
0.000131419
0.000134478
0.000137113
0.000139374
0.000141303
0.000142941
0.000144327
0.000145494
0.000146474
0.000147296
0.000147988
0.000148571
0.000149069
0.000149499
0.000149879
0.000150222
0.000150541
0.000150848
0.000151151
0.000151459
0.00015178
0.00015212
0.000152483
0.000152875
0.000153299
0.000153758
0.000154253
0.000154783
0.000155345
0.000155933
0.000156534
0.000157133
0.000157705
0.000158221
0.000158642
0.000158919
0.000159001
0.000158828
0.000158343
0.000157491
0.000156224
0.000154511
0.000152337
0.000149668
0.000146575
0.000143138
0.000139379
0.000135399
0.000131272
0.000126938
0.000122511
0.000118006
0.000113406
0.00010866
0.000103682
9.83597e-05
9.2555e-05
8.61153e-05
7.88759e-05
7.06591e-05
6.12634e-05
5.04427e-05
3.78729e-05
2.33244e-05
7.84459e-06
9.72965e-08
1.23585e-07
9.46845e-06
2.80691e-05
4.55033e-05
6.0368e-05
7.29927e-05
8.37998e-05
9.31287e-05
0.000101233
0.000108301
0.000114479
0.000119882
0.000124601
0.000128716
0.000132292
0.000135389
0.000138059
0.00014035
0.000142306
0.000143969
0.000145375
0.00014656
0.000147556
0.000148392
0.000149096
0.000149691
0.000150199
0.000150639
0.000151029
0.000151382
0.000151714
0.000152034
0.000152353
0.000152681
0.000153025
0.000153392
0.00015379
0.000154223
0.000154697
0.000155214
0.000155778
0.000156387
0.000157038
0.000157722
0.000158426
0.000159126
0.000159793
0.000160383
0.000160846
0.000161117
0.000161126
0.0001608
0.000160066
0.00015886
0.000157133
0.000154859
0.000152039
0.000148702
0.00014482
0.00014065
0.000136214
0.000131613
0.000127063
0.000122435
0.000117847
0.000113359
0.000108955
0.000104573
0.000100106
9.54039e-05
9.02866e-05
8.45499e-05
7.79764e-05
7.03381e-05
6.13903e-05
5.0854e-05
3.83941e-05
2.37514e-05
8.01478e-06
9.94831e-08
1.24084e-07
9.49835e-06
2.81548e-05
4.56566e-05
6.05905e-05
7.32832e-05
8.41554e-05
9.35463e-05
0.000101709
0.000108832
0.000115062
0.000120512
0.000125276
0.000129431
0.000133045
0.000136175
0.000138875
0.000141194
0.000143174
0.000144858
0.000146283
0.000147485
0.000148496
0.000149345
0.000150061
0.000150667
0.000151185
0.000151636
0.000152037
0.000152403
0.000152748
0.000153084
0.000153423
0.000153774
0.000154146
0.000154547
0.000154986
0.000155469
0.000156003
0.000156591
0.000157237
0.000157939
0.000158694
0.000159489
0.000160305
0.000161111
0.000161863
0.000162505
0.000162963
0.000163156
0.00016299
0.000162373
0.000161218
0.000159456
0.000157042
0.000153966
0.000150256
0.000145981
0.000141178
0.000136026
0.000130769
0.000125466
0.000120364
0.000115477
0.000110734
0.000106304
0.000102171
9.82677e-05
9.44661e-05
9.05856e-05
8.63993e-05
8.16464e-05
7.60444e-05
6.92972e-05
6.1094e-05
5.10956e-05
3.89209e-05
2.42592e-05
8.2307e-06
1.02375e-07
1.24517e-07
9.52348e-06
2.82255e-05
4.57842e-05
6.07772e-05
7.35283e-05
8.44568e-05
9.39012e-05
0.000102114
0.000109285
0.00011556
0.000121052
0.000125854
0.000130045
0.000133691
0.000136851
0.000139578
0.00014192
0.000143922
0.000145625
0.000147067
0.000148284
0.000149308
0.00015017
0.000150897
0.000151514
0.000152044
0.000152506
0.000152919
0.000153298
0.000153659
0.000154015
0.000154376
0.000154754
0.00015516
0.000155602
0.00015609
0.000156633
0.000157237
0.000157908
0.00015865
0.00015946
0.000160332
0.000161247
0.000162178
0.00016308
0.000163892
0.000164536
0.000164915
0.000164918
0.00016443
0.000163338
0.000161545
0.000158985
0.000155629
0.000151496
0.000146657
0.000141231
0.000135355
0.000129095
0.000122928
0.000116896
0.000111224
0.000106127
0.000101273
9.69419e-05
9.31281e-05
8.97642e-05
8.67155e-05
8.37814e-05
8.06997e-05
7.7157e-05
7.28023e-05
6.7259e-05
6.0129e-05
5.09823e-05
3.93458e-05
2.48147e-05
8.49447e-06
1.06139e-07
1.24895e-07
9.54464e-06
2.82835e-05
4.58899e-05
6.09333e-05
7.37347e-05
8.47116e-05
9.42022e-05
0.000102459
0.000109671
0.000115984
0.000121513
0.000126349
0.000130571
0.000134245
0.000137431
0.000140181
0.000142544
0.000144565
0.000146285
0.000147742
0.000148973
0.00015001
0.000150883
0.000151621
0.000152249
0.00015279
0.000153264
0.00015369
0.000154085
0.000154465
0.000154841
0.000155229
0.000155639
0.000156084
0.000156573
0.000157119
0.000157731
0.000158417
0.000159183
0.000160033
0.000160963
0.000161959
0.000162997
0.000164033
0.000165007
0.000165832
0.000166402
0.000166588
0.000166253
0.000165255
0.000163467
0.000160794
0.000157182
0.000152637
0.000147227
0.00014108
0.000134377
0.000127334
0.000120044
0.000112948
0.000106285
0.000100141
9.49183e-05
9.00573e-05
8.58614e-05
8.23716e-05
7.95304e-05
7.7213e-05
7.52231e-05
7.3288e-05
7.10605e-05
6.81294e-05
6.40349e-05
5.82772e-05
5.03088e-05
3.95207e-05
2.53489e-05
8.79752e-06
1.10896e-07
1.25231e-07
9.56253e-06
2.83308e-05
4.59772e-05
6.10636e-05
7.39082e-05
8.49268e-05
9.44572e-05
0.000102752
0.00011
0.000116346
0.000121905
0.00012677
0.000131019
0.000134718
0.000137926
0.000140696
0.000143078
0.000145115
0.00014685
0.000148321
0.000149564
0.000150613
0.000151497
0.000152246
0.000152885
0.000153437
0.000153924
0.000154365
0.000154777
0.000155177
0.000155578
0.000155995
0.000156442
0.000156931
0.000157475
0.000158086
0.000158777
0.000159555
0.000160428
0.000161397
0.000162454
0.000163577
0.000164729
0.000165849
0.000166848
0.000167613
0.000168001
0.000167852
0.000166996
0.000165273
0.000162555
0.000158758
0.000153868
0.000147944
0.000141121
0.000133601
0.000125634
0.000117499
0.000109347
0.000101502
9.44235e-05
8.8046e-05
8.28113e-05
7.81087e-05
7.4074e-05
7.08713e-05
6.8451e-05
6.67166e-05
6.55105e-05
6.459e-05
6.36105e-05
6.2124e-05
5.95949e-05
5.54161e-05
4.89051e-05
3.9282e-05
2.57586e-05
9.116e-06
1.16652e-07
1.25532e-07
9.57774e-06
2.83692e-05
4.60491e-05
6.11722e-05
7.40539e-05
8.51085e-05
9.46732e-05
0.000103
0.000110279
0.000116654
0.00012224
0.00012713
0.000131401
0.000135121
0.000138348
0.000141136
0.000143534
0.000145585
0.000147333
0.000148816
0.00015007
0.000151129
0.000152024
0.000152784
0.000153434
0.000153998
0.000154499
0.000154955
0.000155386
0.000155808
0.000156236
0.000156687
0.000157175
0.000157714
0.000158319
0.000159004
0.000159782
0.000160663
0.000161652
0.000162747
0.000163933
0.000165177
0.000166423
0.000167585
0.000168544
0.00016915
0.000169222
0.000168566
0.000166989
0.000164323
0.000160452
0.000155333
0.000149009
0.000141616
0.000133372
0.000124561
0.000115502
0.00010652
9.78109e-05
8.95572e-05
8.23809e-05
7.60701e-05
7.10369e-05
6.66349e-05
6.2798e-05
5.98293e-05