/*--------------------------------*- C++ -*----------------------------------*\
  =========                 |
  \\      /  F ield         | OpenFOAM: The Open Source CFD Toolbox
   \\    /   O peration     | Website:  https://openfoam.org
    \\  /    A nd           | Version:  13
     \\/     M anipulation  |
\*---------------------------------------------------------------------------*/
FoamFile
{
    format      ascii;
    class       volVectorField;
    location    "0.6";
    object      U;
}
// * * * * * * * * * * * * * * * * * * * * * * * * * * * * * * * * * * * * * //

dimensions      [0 1 -1 0 0 0 0];

internalField   nonuniform List<vector> 
6400
(
(2.32766e-05 -2.33152e-05 0)
(7.29251e-05 -2.17361e-05 0)
(7.67907e-05 -7.66282e-06 0)
(1.40865e-05 8.09273e-06 0)
(-0.000109309 2.15947e-05 0)
(-0.000279124 3.21213e-05 0)
(-0.000482254 3.95449e-05 0)
(-0.000708959 4.44686e-05 0)
(-0.000951797 4.76057e-05 0)
(-0.00120534 4.94958e-05 0)
(-0.00146567 5.05177e-05 0)
(-0.00173 5.09341e-05 0)
(-0.00199627 5.09302e-05 0)
(-0.00226301 5.06389e-05 0)
(-0.00252911 5.01579e-05 0)
(-0.00279379 4.95602e-05 0)
(-0.00305648 4.89009e-05 0)
(-0.00331677 4.82216e-05 0)
(-0.00357438 4.75527e-05 0)
(-0.00382912 4.69155e-05 0)
(-0.00408086 4.63232e-05 0)
(-0.00432948 4.57823e-05 0)
(-0.00457491 4.52932e-05 0)
(-0.00481706 4.48518e-05 0)
(-0.00505581 4.44497e-05 0)
(-0.00529103 4.40752e-05 0)
(-0.00552252 4.37144e-05 0)
(-0.00575005 4.33514e-05 0)
(-0.00597332 4.29688e-05 0)
(-0.00619197 4.25484e-05 0)
(-0.00640556 4.20713e-05 0)
(-0.0066136 4.15178e-05 0)
(-0.00681552 4.08681e-05 0)
(-0.00701067 4.01018e-05 0)
(-0.00719834 3.91983e-05 0)
(-0.00737774 3.81366e-05 0)
(-0.007548 3.68954e-05 0)
(-0.00770821 3.54533e-05 0)
(-0.00785736 3.37887e-05 0)
(-0.00799439 3.188e-05 0)
(-0.0081182 2.97061e-05 0)
(-0.00822761 2.72472e-05 0)
(-0.00832141 2.44882e-05 0)
(-0.00839827 2.1404e-05 0)
(-0.00845702 1.78432e-05 0)
(-0.00849708 1.36888e-05 0)
(-0.00851408 9.82401e-06 0)
(-0.00851169 5.58988e-06 0)
(-0.0084853 5.6507e-07 0)
(-0.00843476 -4.74683e-06 0)
(-0.00835898 -1.03779e-05 0)
(-0.00825701 -1.63088e-05 0)
(-0.00812811 -2.25201e-05 0)
(-0.00797171 -2.89756e-05 0)
(-0.00778743 -3.56326e-05 0)
(-0.00757521 -4.24301e-05 0)
(-0.00733502 -4.92829e-05 0)
(-0.00706742 -5.61298e-05 0)
(-0.00677299 -6.28552e-05 0)
(-0.00645276 -6.93647e-05 0)
(-0.00610804 -7.55604e-05 0)
(-0.00574044 -8.1336e-05 0)
(-0.00535189 -8.65837e-05 0)
(-0.00494462 -9.11937e-05 0)
(-0.00452118 -9.50526e-05 0)
(-0.00408443 -9.80407e-05 0)
(-0.0036376 -0.000100022 0)
(-0.00318431 -0.000100823 0)
(-0.00272866 -0.000100212 0)
(-0.00227554 -9.80293e-05 0)
(-0.00183068 -9.41396e-05 0)
(-0.00140048 -8.80771e-05 0)
(-0.000993243 -7.91833e-05 0)
(-0.000619519 -6.65862e-05 0)
(-0.000292677 -4.92122e-05 0)
(-2.839e-05 -2.65732e-05 0)
(0.000149536 -3.42742e-07 0)
(0.000219388 3.00559e-05 0)
(0.00017637 5.39797e-05 0)
(5.48375e-05 5.47144e-05 0)
(2.18517e-05 -7.31032e-05 0)
(3.91647e-05 -3.90435e-05 0)
(-4.85227e-05 7.12996e-05 0)
(-0.000245725 0.000188342 0)
(-0.000532863 0.000284959 0)
(-0.000887461 0.00035704 0)
(-0.00129067 0.000408172 0)
(-0.00172845 0.000443478 0)
(-0.00219031 0.000467277 0)
(-0.00266855 0.000482803 0)
(-0.00315748 0.000492374 0)
(-0.00365291 0.000497631 0)
(-0.00415172 0.000499738 0)
(-0.00465156 0.000499533 0)
(-0.00515066 0.000497629 0)
(-0.00564765 0.000494477 0)
(-0.0061415 0.000490416 0)
(-0.00663138 0.000485697 0)
(-0.00711665 0.000480505 0)
(-0.0075968 0.000474967 0)
(-0.00807138 0.000469166 0)
(-0.00854 0.000463142 0)
(-0.00900227 0.000456904 0)
(-0.00945782 0.000450427 0)
(-0.00990621 0.000443664 0)
(-0.010347 0.000436546 0)
(-0.0107796 0.000428986 0)
(-0.0112034 0.000420884 0)
(-0.0116178 0.000412131 0)
(-0.0120218 0.000402608 0)
(-0.0124146 0.00039219 0)
(-0.0127952 0.000380752 0)
(-0.0131623 0.000368163 0)
(-0.0135149 0.000354294 0)
(-0.0138514 0.000339016 0)
(-0.0141705 0.000322203 0)
(-0.0144705 0.000303729 0)
(-0.0147498 0.000283478 0)
(-0.0150066 0.000261338 0)
(-0.0152391 0.000237205 0)
(-0.0154453 0.000210987 0)
(-0.0156233 0.000182607 0)
(-0.0157711 0.000152002 0)
(-0.0158867 0.000119125 0)
(-0.0159679 8.38938e-05 0)
(-0.0160132 4.62388e-05 0)
(-0.0160201 6.79272e-06 0)
(-0.0159871 -3.45396e-05 0)
(-0.0159125 -7.82859e-05 0)
(-0.0157947 -0.000123978 0)
(-0.0156324 -0.000171302 0)
(-0.0154246 -0.000219988 0)
(-0.0151705 -0.000269736 0)
(-0.0148695 -0.0003202 0)
(-0.0145217 -0.000370999 0)
(-0.0141273 -0.000421634 0)
(-0.0136869 -0.000471682 0)
(-0.0132016 -0.000520691 0)
(-0.0126731 -0.000568046 0)
(-0.0121033 -0.000613285 0)
(-0.0114944 -0.00065587 0)
(-0.0108492 -0.000695271 0)
(-0.0101709 -0.000730965 0)
(-0.00946314 -0.000762432 0)
(-0.00872968 -0.000789147 0)
(-0.00797488 -0.000810558 0)
(-0.00720344 -0.000826046 0)
(-0.00642051 -0.000834863 0)
(-0.00563181 -0.000836037 0)
(-0.00484365 -0.00082826 0)
(-0.00406352 -0.000809834 0)
(-0.00330067 -0.000778446 0)
(-0.00256617 -0.000730674 0)
(-0.00187392 -0.00066178 0)
(-0.0012417 -0.000565493 0)
(-0.000692381 -0.000434608 0)
(-0.000256615 -0.000265025 0)
(2.77468e-05 -6.16767e-05 0)
(0.000129946 0.000127057 0)
(5.44553e-05 0.000176131 0)
(7.67511e-06 -7.72029e-05 0)
(-7.23392e-05 4.88817e-05 0)
(-0.000277647 0.000276516 0)
(-0.000577964 0.000491323 0)
(-0.00095304 0.000662242 0)
(-0.00138476 0.000789319 0)
(-0.00185923 0.000880808 0)
(-0.00236596 0.000945313 0)
(-0.00289661 0.000989832 0)
(-0.00344457 0.00101966 0)
(-0.00400467 0.00103868 0)
(-0.00457285 0.00104967 0)
(-0.00514596 0.00105468 0)
(-0.00572151 0.00105519 0)
(-0.00629753 0.0010523 0)
(-0.00687243 0.00104681 0)
(-0.00744495 0.00103933 0)
(-0.00801401 0.00103032 0)
(-0.00857872 0.00102009 0)
(-0.00913831 0.00100889 0)
(-0.00969207 0.000996849 0)
(-0.0102393 0.000984042 0)
(-0.0107795 0.000970481 0)
(-0.0113119 0.000956121 0)
(-0.0118359 0.000940873 0)
(-0.0123507 0.000924609 0)
(-0.0128556 0.000907168 0)
(-0.0133496 0.000888362 0)
(-0.0138319 0.000867984 0)
(-0.0143014 0.000845812 0)
(-0.0147568 0.000821609 0)
(-0.0151971 0.000795137 0)
(-0.0156206 0.00076615 0)
(-0.016026 0.000734404 0)
(-0.0164116 0.000699657 0)
(-0.0167758 0.000661675 0)
(-0.0171165 0.000620233 0)
(-0.017432 0.00057512 0)
(-0.0177202 0.000526141 0)
(-0.0179791 0.000473125 0)
(-0.0182063 0.000415927 0)
(-0.0183999 0.000354435 0)
(-0.0185575 0.000288575 0)
(-0.018677 0.000218312 0)
(-0.0187563 0.000143658 0)
(-0.0187932 6.47131e-05 0)
(-0.0187859 -1.81866e-05 0)
(-0.0187323 -0.000104977 0)
(-0.0186308 -0.000195446 0)
(-0.01848 -0.000289161 0)
(-0.0182788 -0.000385612 0)
(-0.0180261 -0.000484231 0)
(-0.0177216 -0.000584377 0)
(-0.0173649 -0.000685337 0)
(-0.0169563 -0.000786328 0)
(-0.0164964 -0.000886477 0)
(-0.0159863 -0.00098493 0)
(-0.0154274 -0.00108069 0)
(-0.0148217 -0.00117278 0)
(-0.0141716 -0.0012603 0)
(-0.01348 -0.0013423 0)
(-0.0127501 -0.00141785 0)
(-0.0119856 -0.00148604 0)
(-0.0111904 -0.00154601 0)
(-0.010369 -0.00159685 0)
(-0.00952597 -0.00163765 0)
(-0.00866651 -0.00166738 0)
(-0.00779609 -0.00168483 0)
(-0.00692071 -0.00168848 0)
(-0.00604695 -0.00167627 0)
(-0.00518218 -0.00164536 0)
(-0.00433487 -0.00159186 0)
(-0.00351484 -0.0015103 0)
(-0.0027338 -0.00139315 0)
(-0.00200573 -0.0012303 0)
(-0.00134768 -0.00100918 0)
(-0.000782026 -0.000717674 0)
(-0.000338213 -0.000355371 0)
(-4.79072e-05 2.8058e-05 0)
(3.25603e-05 0.000222351 0)
(-9.16752e-06 -1.31603e-05 0)
(-0.000193267 0.000247697 0)
(-0.000496882 0.000577455 0)
(-0.000868088 0.000862586 0)
(-0.001295 0.00108704 0)
(-0.0017649 0.00125652 0)
(-0.00226916 0.00138155 0)
(-0.00280121 0.00147213 0)
(-0.00335529 0.00153646 0)
(-0.00392635 0.00158092 0)
(-0.00451009 0.00161036 0)
(-0.00510296 0.0016284 0)
(-0.00570204 0.00163774 0)
(-0.00630489 0.00164037 0)
(-0.00690954 0.00163781 0)
(-0.00751429 0.00163118 0)
(-0.00811775 0.00162132 0)
(-0.00871869 0.00160886 0)
(-0.00931605 0.00159427 0)
(-0.00990887 0.00157787 0)
(-0.0104963 0.00155986 0)
(-0.0110774 0.00154035 0)
(-0.0116514 0.00151934 0)
(-0.0122176 0.00149678 0)
(-0.0127749 0.00147255 0)
(-0.0133226 0.00144646 0)
(-0.0138597 0.00141829 0)
(-0.0143851 0.00138777 0)
(-0.0148978 0.00135459 0)
(-0.0153965 0.00131844 0)
(-0.0158799 0.00127898 0)
(-0.0163466 0.00123585 0)
(-0.0167952 0.00118871 0)
(-0.0172239 0.0011372 0)
(-0.017631 0.00108095 0)
(-0.0180147 0.00101965 0)
(-0.018373 0.000952961 0)
(-0.0187038 0.000880588 0)
(-0.0190051 0.000802263 0)
(-0.0192746 0.000717754 0)
(-0.0195101 0.000626876 0)
(-0.0197092 0.000529496 0)
(-0.0198699 0.000425548 0)
(-0.0199897 0.000315037 0)
(-0.0200665 0.000198051 0)
(-0.0200982 7.47923e-05 0)
(-0.0200829 -5.43894e-05 0)
(-0.0200186 -0.000189116 0)
(-0.0199037 -0.000328973 0)
(-0.0197369 -0.000473312 0)
(-0.0195171 -0.000621343 0)
(-0.0192436 -0.000772163 0)
(-0.018916 -0.000924764 0)
(-0.0185342 -0.00107804 0)
(-0.0180987 -0.00123078 0)
(-0.0176104 -0.00138172 0)
(-0.0170705 -0.00152955 0)
(-0.0164809 -0.00167279 0)
(-0.0158438 -0.00181007 0)
(-0.0151618 -0.00194001 0)
(-0.0144382 -0.00206129 0)
(-0.0136764 -0.00217258 0)
(-0.0128804 -0.00227261 0)
(-0.0120544 -0.00236016 0)
(-0.011203 -0.002434 0)
(-0.0103312 -0.00249287 0)
(-0.00944422 -0.00253539 0)
(-0.00854764 -0.00255995 0)
(-0.00764745 -0.00256457 0)
(-0.00675005 -0.00254662 0)
(-0.00586234 -0.00250257 0)
(-0.00499187 -0.00242761 0)
(-0.0041469 -0.00231517 0)
(-0.00333652 -0.00215637 0)
(-0.00257063 -0.00193953 0)
(-0.00186026 -0.00164993 0)
(-0.00121976 -0.00127141 0)
(-0.000669629 -0.000793739 0)
(-0.000229758 -0.000242031 0)
(7.54343e-06 0.000165018 0)
(-2.46087e-05 0.000115034 0)
(-0.000295448 0.000538183 0)
(-0.000674225 0.000953475 0)
(-0.00109903 0.0012895 0)
(-0.0015648 0.00155285 0)
(-0.00206176 0.00175507 0)
(-0.00258483 0.0019078 0)
(-0.00313049 0.00202134 0)
(-0.00369523 0.0021042 0)
(-0.00427557 0.0021632 0)
(-0.00486828 0.00220368 0)
(-0.00547046 0.00222976 0)
(-0.00607958 0.00224459 0)
(-0.00669342 0.00225058 0)
(-0.00731008 0.00224953 0)
(-0.00792791 0.00224286 0)
(-0.00854545 0.0022316 0)
(-0.00916142 0.00221656 0)
(-0.00977465 0.00219831 0)
(-0.0103841 0.00217725 0)
(-0.0109887 0.00215364 0)
(-0.0115875 0.00212763 0)
(-0.0121795 0.00209922 0)
(-0.0127639 0.00206835 0)
(-0.0133395 0.00203486 0)
(-0.0139055 0.00199853 0)
(-0.0144606 0.00195905 0)
(-0.0150038 0.0019161 0)
(-0.0155339 0.00186928 0)
(-0.0160496 0.00181817 0)
(-0.0165494 0.00176235 0)
(-0.0170318 0.00170135 0)
(-0.0174952 0.0016347 0)
(-0.017938 0.00156194 0)
(-0.0183583 0.00148262 0)
(-0.0187541 0.00139629 0)
(-0.0191234 0.00130254 0)
(-0.0194641 0.00120098 0)
(-0.019774 0.00109127 0)
(-0.0200509 0.000973123 0)
(-0.0202924 0.000846324 0)
(-0.0204962 0.000710728 0)
(-0.02066 0.000566283 0)
(-0.0207815 0.000413042 0)
(-0.0208584 0.000251178 0)
(-0.0208886 8.10012e-05 0)
(-0.0208702 -9.70294e-05 0)
(-0.0208013 -0.000282325 0)
(-0.0206803 -0.00047419 0)
(-0.0205058 -0.000671713 0)
(-0.0202769 -0.000873798 0)
(-0.0199929 -0.00107919 0)
(-0.0196535 -0.0012865 0)
(-0.0192588 -0.00149419 0)
(-0.0188093 -0.00170063 0)
(-0.0183062 -0.0019041 0)
(-0.0177508 -0.00210278 0)
(-0.0171452 -0.00229475 0)
(-0.0164918 -0.00247819 0)
(-0.0157935 -0.00265128 0)
(-0.0150537 -0.00281227 0)
(-0.0142761 -0.00295944 0)
(-0.0134648 -0.00309117 0)
(-0.0126243 -0.00320588 0)
(-0.0117593 -0.00330204 0)
(-0.010875 -0.00337809 0)
(-0.00997655 -0.00343235 0)
(-0.00906963 -0.00346292 0)
(-0.00816001 -0.00346748 0)
(-0.00725373 -0.00344305 0)
(-0.00635706 -0.00338573 0)
(-0.0054765 -0.00329029 0)
(-0.0046187 -0.00314975 0)
(-0.00379042 -0.00295488 0)
(-0.0029982 -0.00269366 0)
(-0.00224866 -0.00235081 0)
(-0.00155122 -0.00190791 0)
(-0.000922055 -0.0013447 0)
(-0.000371269 -0.000648922 0)
(-1.14418e-05 1.62097e-05 0)
(-3.73213e-05 0.00029377 0)
(-0.000373944 0.000898425 0)
(-0.000808797 0.0013866 0)
(-0.00127593 0.00175917 0)
(-0.00177395 0.00204949 0)
(-0.00229394 0.00227536 0)
(-0.00283278 0.00244939 0)
(-0.00338904 0.0025817 0)
(-0.00396096 0.00268062 0)
(-0.00454644 0.00275295 0)
(-0.00514326 0.00280414 0)
(-0.00574925 0.0028385 0)
(-0.00636234 0.00285942 0)
(-0.00698065 0.00286955 0)
(-0.00760246 0.00287093 0)
(-0.00822622 0.00286514 0)
(-0.00885052 0.0028534 0)
(-0.00947408 0.00283662 0)
(-0.0100957 0.00281547 0)
(-0.0107142 0.00279044 0)
(-0.0113286 0.00276182 0)
(-0.0119377 0.00272977 0)
(-0.0125406 0.00269433 0)
(-0.0131362 0.0026554 0)
(-0.0137234 0.00261279 0)
(-0.0143012 0.00256624 0)
(-0.0148683 0.00251539 0)
(-0.0154235 0.00245984 0)
(-0.0159656 0.00239912 0)
(-0.0164931 0.00233272 0)
(-0.0170046 0.0022601 0)
(-0.0174985 0.00218071 0)
(-0.0179732 0.00209397 0)
(-0.0184268 0.00199932 0)
(-0.0188575 0.00189619 0)
(-0.0192633 0.00178404 0)
(-0.019642 0.00166235 0)
(-0.0199916 0.00153067 0)
(-0.0203097 0.00138858 0)
(-0.020594 0.00123574 0)
(-0.0208422 0.00107189 0)
(-0.0210519 0.000896896 0)
(-0.0212207 0.000710713 0)
(-0.0213462 0.00051345 0)
(-0.0214262 0.000305364 0)
(-0.0214584 8.68824e-05 0)
(-0.0214409 -0.000141383 0)
(-0.0213717 -0.000378642 0)
(-0.0212493 -0.000623918 0)
(-0.0210724 -0.000876007 0)
(-0.0208398 -0.00113349 0)
(-0.020551 -0.00139474 0)
(-0.0202057 -0.00165796 0)
(-0.0198041 -0.00192117 0)
(-0.0193467 -0.00218229 0)
(-0.0188348 -0.00243914 0)
(-0.01827 -0.00268934 0)
(-0.0176543 -0.00293055 0)
(-0.0169904 -0.00316047 0)
(-0.0162813 -0.00337683 0)
(-0.0155306 -0.00357745 0)
(-0.0147423 -0.00376022 0)
(-0.0139205 -0.00392317 0)
(-0.0130699 -0.00406439 0)
(-0.0121955 -0.00418209 0)
(-0.0113024 -0.00427446 0)
(-0.0103959 -0.00433962 0)
(-0.00948159 -0.00437547 0)
(-0.00856492 -0.00437955 0)
(-0.00765153 -0.00434878 0)
(-0.00674702 -0.00427916 0)
(-0.00585685 -0.00416549 0)
(-0.00498625 -0.00400091 0)
(-0.00414005 -0.00377647 0)
(-0.0033224 -0.00348048 0)
(-0.00253717 -0.00309768 0)
(-0.00179141 -0.00260745 0)
(-0.00110062 -0.00197834 0)
(-0.000471074 -0.00115408 0)
(-2.45252e-05 -0.000198223 0)
(-4.67684e-05 0.000510019 0)
(-0.000431459 0.00130986 0)
(-0.000907968 0.00186318 0)
(-0.00140874 0.00226295 0)
(-0.001934 0.00257158 0)
(-0.00247451 0.00281374 0)
(-0.00302799 0.00300328 0)
(-0.00359425 0.00315016 0)
(-0.00417276 0.0032623 0)
(-0.0047625 0.00334619 0)
(-0.00536213 0.00340715 0)
(-0.00597013 0.00344946 0)
(-0.00658497 0.00347659 0)
(-0.00720513 0.00349126 0)
(-0.00782915 0.00349564 0)
(-0.00845563 0.00349143 0)
(-0.00908329 0.00347994 0)
(-0.00971086 0.00346217 0)
(-0.0103372 0.00343887 0)
(-0.0109611 0.00341056 0)
(-0.0115816 0.00337757 0)
(-0.0121974 0.00334008 0)
(-0.0128076 0.0032981 0)
(-0.013411 0.00325155 0)
(-0.0140065 0.0032002 0)
(-0.014593 0.00314373 0)
(-0.0151691 0.00308174 0)
(-0.0157337 0.00301376 0)
(-0.0162854 0.00293923 0)
(-0.0168227 0.00285756 0)
(-0.0173441 0.00276813 0)
(-0.017848 0.00267028 0)
(-0.0183327 0.00256332 0)
(-0.0187964 0.00244659 0)
(-0.0192371 0.00231941 0)
(-0.0196527 0.00218114 0)
(-0.0200412 0.00203118 0)
(-0.0204002 0.00186897 0)
(-0.0207275 0.00169403 0)
(-0.0210207 0.00150597 0)
(-0.0212774 0.0013045 0)
(-0.021495 0.00108945 0)
(-0.0216712 0.00086081 0)
(-0.0218035 0.00061874 0)
(-0.0218895 0.00036358 0)
(-0.0219269 9.58814e-05 0)
(-0.0219137 -0.000183582 0)
(-0.021848 -0.000473805 0)
(-0.0217279 -0.00077354 0)
(-0.0215522 -0.00108128 0)
(-0.0213197 -0.00139525 0)
(-0.0210298 -0.00171345 0)
(-0.0206822 -0.00203365 0)
(-0.020277 -0.00235342 0)
(-0.019815 -0.00267021 0)
(-0.0192973 -0.0029813 0)
(-0.0187255 -0.00328381 0)
(-0.018102 -0.00357491 0)
(-0.0174294 -0.00385181 0)
(-0.0167109 -0.00411178 0)
(-0.0159503 -0.00435218 0)
(-0.0151517 -0.00457053 0)
(-0.0143196 -0.00476449 0)
(-0.0134587 -0.00493189 0)
(-0.0125742 -0.00507067 0)
(-0.0116712 -0.00517885 0)
(-0.0107551 -0.00525444 0)
(-0.00983139 -0.0052953 0)
(-0.0089053 -0.00529896 0)
(-0.00798207 -0.00526244 0)
(-0.00706666 -0.00518196 0)
(-0.00616367 -0.00505262 0)
(-0.00527721 -0.00486806 0)
(-0.0044107 -0.00461989 0)
(-0.00356682 -0.00429699 0)
(-0.00274804 -0.00388392 0)
(-0.0019608 -0.00335711 0)
(-0.00122183 -0.00267244 0)
(-0.000536741 -0.00172582 0)
(-3.27413e-05 -0.000456461 0)
(-5.34045e-05 0.000753841 0)
(-0.000472558 0.00175851 0)
(-0.000979784 0.00237299 0)
(-0.00150706 0.00279452 0)
(-0.00205511 0.00311571 0)
(-0.00261382 0.00336872 0)
(-0.00318103 0.00356905 0)
(-0.00375717 0.0037267 0)
(-0.00434246 0.0038492 0)
(-0.00493666 0.00394267 0)
(-0.0055391 0.00401213 0)
(-0.00614889 0.00406171 0)
(-0.00676495 0.00409477 0)
(-0.00738614 0.00411406 0)
(-0.00801128 0.00412175 0)
(-0.00863917 0.00411958 0)
(-0.00926867 0.00410891 0)
(-0.00989863 0.00409079 0)
(-0.0105279 0.004066 0)
(-0.0111555 0.00403507 0)
(-0.0117802 0.00399837 0)
(-0.0124009 0.00395606 0)
(-0.0130167 0.00390816 0)
(-0.0136262 0.00385454 0)
(-0.0142284 0.00379495 0)
(-0.0148221 0.00372904 0)
(-0.0154061 0.00365633 0)
(-0.0159789 0.00357629 0)
(-0.0165393 0.0034883 0)
(-0.0170857 0.00339166 0)
(-0.0176167 0.00328567 0)
(-0.0181304 0.00316956 0)
(-0.0186253 0.00304254 0)
(-0.0190993 0.00290385 0)
(-0.0195506 0.00275269 0)
(-0.0199771 0.00258833 0)
(-0.0203764 0.00241005 0)
(-0.0207464 0.00221723 0)
(-0.0210847 0.00200928 0)
(-0.0213888 0.00178577 0)
(-0.0216561 0.00154636 0)
(-0.0218842 0.00129087 0)
(-0.0220705 0.0010193 0)
(-0.0222124 0.000731844 0)
(-0.0223075 0.000428936 0)
(-0.0223533 0.000111245 0)
(-0.0223476 -0.000220288 0)
(-0.0222884 -0.00056444 0)
(-0.0221739 -0.000919693 0)
(-0.0220024 -0.00128423 0)
(-0.021773 -0.00165591 0)
(-0.0214847 -0.00203234 0)
(-0.0211372 -0.00241084 0)
(-0.0207306 -0.00278851 0)
(-0.0202656 -0.00316229 0)
(-0.0197433 -0.0035289 0)
(-0.0191655 -0.00388493 0)
(-0.0185344 -0.00422703 0)
(-0.0178529 -0.0045519 0)
(-0.0171244 -0.00485628 0)
(-0.0163527 -0.00513712 0)
(-0.0155422 -0.0053915 0)
(-0.0146974 -0.00561675 0)
(-0.0138236 -0.00581042 0)
(-0.0129258 -0.00597025 0)
(-0.0120095 -0.00609416 0)
(-0.01108 -0.00618011 0)
(-0.0101428 -0.00622603 0)
(-0.00920303 -0.00622962 0)
(-0.00826556 -0.00618817 0)
(-0.0073349 -0.0060983 0)
(-0.006415 -0.00595565 0)
(-0.0055092 -0.00575446 0)
(-0.00462009 -0.00548705 0)
(-0.00374955 -0.00514268 0)
(-0.00289972 -0.00470532 0)
(-0.00207737 -0.00414747 0)
(-0.00130121 -0.0034111 0)
(-0.000577438 -0.00234227 0)
(-3.68793e-05 -0.000742772 0)
(-5.78832e-05 0.00101727 0)
(-0.000501345 0.00223383 0)
(-0.00103098 0.00290797 0)
(-0.00157888 0.00334847 0)
(-0.00214569 0.00367872 0)
(-0.00272024 0.00393879 0)
(-0.00330012 0.0041463 0)
(-0.0038859 0.00431155 0)
(-0.00447822 0.00444185 0)
(-0.00507732 0.00454294 0)
(-0.00568305 0.00461952 0)
(-0.006295 0.00467546 0)
(-0.0069125 0.00471399 0)
(-0.00753475 0.00473772 0)
(-0.00816084 0.00474881 0)
(-0.00878982 0.00474895 0)
(-0.00942068 0.00473952 0)
(-0.0100524 0.00472156 0)
(-0.010684 0.00469584 0)
(-0.0113144 0.00466292 0)
(-0.0119426 0.00462314 0)
(-0.0125675 0.00457666 0)
(-0.013188 0.00452348 0)
(-0.013803 0.00446343 0)
(-0.0144113 0.00439623 0)
(-0.0150118 0.00432147 0)
(-0.0156032 0.00423862 0)
(-0.0161841 0.00414708 0)
(-0.0167531 0.00404614 0)
(-0.0173089 0.00393503 0)
(-0.0178496 0.00381295 0)
(-0.0183738 0.00367901 0)
(-0.0188796 0.00353234 0)
(-0.0193651 0.00337204 0)
(-0.0198282 0.00319723 0)
(-0.0202669 0.00300704 0)
(-0.0206789 0.00280067 0)
(-0.0210618 0.00257737 0)
(-0.0214132 0.00233649 0)
(-0.0217306 0.00207752 0)
(-0.0220112 0.00180006 0)
(-0.0222525 0.00150391 0)
(-0.0224517 0.00118907 0)
(-0.0226063 0.000855774 0)
(-0.0227135 0.00050452 0)
(-0.0227707 0.000136096 0)
(-0.0227757 -0.000248394 0)
(-0.0227261 -0.000647512 0)
(-0.02262 -0.00105947 0)
(-0.0224557 -0.00148214 0)
(-0.0222317 -0.00191301 0)
(-0.0219472 -0.00234926 0)
(-0.0216017 -0.00278775 0)
(-0.0211951 -0.00322507 0)
(-0.020728 -0.00365763 0)
(-0.0202016 -0.00408155 0)
(-0.0196175 -0.00449287 0)
(-0.0189781 -0.00488765 0)
(-0.0182864 -0.00526203 0)
(-0.0175458 -0.00561223 0)
(-0.0167605 -0.00593469 0)
(-0.0159349 -0.00622608 0)
(-0.015074 -0.00648338 0)
(-0.0141831 -0.00670386 0)
(-0.0132677 -0.00688511 0)
(-0.0123333 -0.00702497 0)
(-0.0113855 -0.00712145 0)
(-0.0104298 -0.00717266 0)
(-0.00947119 -0.00717657 0)
(-0.00851454 -0.00713091 0)
(-0.00756402 -0.00703281 0)
(-0.00662322 -0.00687855 0)
(-0.00569501 -0.00666307 0)
(-0.0047816 -0.00637924 0)
(-0.00388466 -0.00601651 0)
(-0.00300655 -0.00555765 0)
(-0.00215491 -0.00497048 0)
(-0.00135047 -0.00418205 0)
(-0.000600422 -0.00298775 0)
(-3.79793e-05 -0.00104553 0)
(-6.07662e-05 0.0012943 0)
(-0.000521038 0.00272795 0)
(-0.00106678 0.00346173 0)
(-0.00163048 0.00392016 0)
(-0.0022125 0.00425756 0)
(-0.00280058 0.00452223 0)
(-0.00339187 0.00473429 0)
(-0.00398682 0.00490467 0)
(-0.00458624 0.00504059 0)
(-0.00519062 0.00514754 0)
(-0.00580018 0.00522988 0)
(-0.00641484 0.00529123 0)
(-0.00703428 0.00533461 0)
(-0.007658 0.00536249 0)
(-0.00828536 0.00537691 0)
(-0.0089156 0.00537951 0)
(-0.0095479 0.00537161 0)
(-0.0101814 0.00535421 0)
(-0.0108152 0.00532808 0)
(-0.0114483 0.00529374 0)
(-0.0120798 0.00525151 0)
(-0.0127087 0.00520152 0)
(-0.0133338 0.00514374 0)
(-0.0139542 0.00507796 0)
(-0.0145687 0.00500385 0)
(-0.015176 0.00492095 0)
(-0.015775 0.00482867 0)
(-0.0163643 0.00472633 0)
(-0.0169425 0.00461314 0)
(-0.0175081 0.00448824 0)
(-0.0180596 0.00435071 0)
(-0.0185952 0.00419959 0)
(-0.0191131 0.00403388 0)
(-0.0196114 0.00385256 0)
(-0.0200881 0.00365462 0)
(-0.0205409 0.00343909 0)
(-0.0209675 0.00320505 0)
(-0.0213656 0.00295163 0)
(-0.0217326 0.00267809 0)
(-0.0220658 0.00238382 0)
(-0.0223625 0.00206837 0)
(-0.0226199 0.00173149 0)
(-0.0228352 0.00137316 0)
(-0.0230055 0.000993632 0)
(-0.023128 0.000593468 0)
(-0.0232 0.000173558 0)
(-0.0232187 -0.000264842 0)
(-0.0231818 -0.000720087 0)
(-0.023087 -0.00119013 0)
(-0.0229323 -0.00167251 0)
(-0.0227162 -0.00216435 0)
(-0.0224375 -0.00266238 0)
(-0.0220955 -0.00316298 0)
(-0.0216899 -0.00366222 0)
(-0.0212212 -0.00415589 0)
(-0.0206905 -0.00463951 0)
(-0.0200994 -0.00510849 0)
(-0.0194503 -0.00555826 0)
(-0.0187463 -0.00598434 0)
(-0.0179909 -0.00638237 0)
(-0.0171885 -0.00674824 0)
(-0.0163439 -0.00707817 0)
(-0.0154623 -0.00736876 0)
(-0.0145494 -0.007617 0)
(-0.013611 -0.00782034 0)
(-0.012653 -0.0079766 0)
(-0.0116813 -0.0080839 0)
(-0.0107014 -0.00814059 0)
(-0.0097186 -0.00814506 0)
(-0.00873771 -0.00809552 0)
(-0.00776284 -0.00798976 0)
(-0.00679745 -0.00782472 0)
(-0.00584428 -0.00759601 0)
(-0.00490545 -0.00729695 0)
(-0.00398278 -0.00691682 0)
(-0.00307921 -0.00643679 0)
(-0.00220335 -0.00581932 0)
(-0.00137778 -0.00497587 0)
(-0.000610677 -0.00365088 0)
(-3.68752e-05 -0.0013563 0)
(-6.2495e-05 0.00158048 0)
(-0.000534047 0.00323505 0)
(-0.00109111 0.00402931 0)
(-0.00166673 0.0045057 0)
(-0.00226086 0.00484943 0)
(-0.0028603 0.00511726 0)
(-0.00346164 0.0053321 0)
(-0.00406512 0.00550575 0)
(-0.00467149 0.00564558 0)
(-0.00528137 0.00575687 0)
(-0.00589518 0.00584376 0)
(-0.00651309 0.00590961 0)
(-0.00713504 0.00595721 0)
(-0.00776078 0.00598886 0)
(-0.00838989 0.00600646 0)
(-0.00902183 0.00601157 0)
(-0.00965595 0.0060054 0)
(-0.0102915 0.00598892 0)
(-0.0109278 0.00596283 0)
(-0.0115639 0.00592762 0)
(-0.0121989 0.00588355 0)
(-0.0128319 0.00583073 0)
(-0.013462 0.00576906 0)
(-0.014088 0.00569831 0)
(-0.014709 0.00561808 0)
(-0.0153236 0.00552785 0)
(-0.0159308 0.00542696 0)
(-0.0165291 0.00531465 0)
(-0.0171173 0.00519004 0)
(-0.0176938 0.00505219 0)
(-0.018257 0.00490006 0)
(-0.0188053 0.00473258 0)
(-0.0193369 0.00454862 0)
(-0.0198497 0.00434705 0)
(-0.0203417 0.00412674 0)
(-0.0208106 0.00388656 0)
(-0.0212542 0.00362547 0)
(-0.0216699 0.00334248 0)
(-0.0220551 0.00303673 0)
(-0.022407 0.00270751 0)
(-0.0227228 0.00235427 0)
(-0.0229995 0.0019767 0)
(-0.0232341 0.00157475 0)
(-0.0234235 0.00114866 0)
(-0.0235647 0.000699041 0)
(-0.0236547 0.000226855 0)
(-0.0236905 -0.0002665 0)
(-0.0236694 -0.000779187 0)
(-0.0235889 -0.0013089 0)
(-0.0234466 -0.00185286 0)
(-0.0232407 -0.0024078 0)
(-0.0229697 -0.00297001 0)
(-0.0226326 -0.00353536 0)
(-0.022229 -0.00409934 0)
(-0.021759 -0.00465707 0)
(-0.0212236 -0.00520343 0)
(-0.0206243 -0.00573315 0)
(-0.0199636 -0.00624093 0)
(-0.0192446 -0.0067216 0)
(-0.018471 -0.00717015 0)
(-0.0176475 -0.00758185 0)
(-0.0167792 -0.00795241 0)
(-0.0158717 -0.008278 0)
(-0.0149312 -0.00855534 0)
(-0.0139639 -0.00878171 0)
(-0.0129761 -0.00895493 0)
(-0.0119742 -0.00907331 0)
(-0.0109642 -0.0091355 0)
(-0.00995161 -0.00914038 0)
(-0.00894139 -0.00908676 0)
(-0.00793785 -0.00897311 0)
(-0.0069445 -0.00879708 0)
(-0.00596419 -0.00855491 0)
(-0.0049992 -0.00824023 0)
(-0.00405169 -0.00784187 0)
(-0.00312528 -0.007339 0)
(-0.00222955 -0.00668835 0)
(-0.00138862 -0.00578527 0)
(-0.000611445 -0.0043233 0)
(-3.40838e-05 -0.00166887 0)
(-6.34012e-05 0.0018725 0)
(-0.000542132 0.00375076 0)
(-0.00110687 0.00460681 0)
(-0.00169129 0.00510185 0)
(-0.00229492 0.00545184 0)
(-0.00290372 0.00572214 0)
(-0.00351378 0.00593868 0)
(-0.004125 0.00611432 0)
(-0.00473799 0.00625674 0)
(-0.0053534 0.00637118 0)
(-0.00597174 0.00646158 0)
(-0.00659333 0.00653111 0)
(-0.00721832 0.00658234 0)
(-0.00784664 0.00661738 0)
(-0.00847807 0.006638 0)
(-0.00911224 0.00664561 0)
(-0.00974868 0.00664135 0)
(-0.0103868 0.00662609 0)
(-0.011026 0.00660047 0)
(-0.0116655 0.00656491 0)
(-0.0123045 0.00651962 0)
(-0.0129421 0.00646466 0)
(-0.0135776 0.00639987 0)
(-0.0142098 0.00632495 0)
(-0.0148377 0.00623946 0)
(-0.0154604 0.00614279 0)
(-0.0160764 0.00603422 0)
(-0.0166847 0.0059129 0)
(-0.0172839 0.00577785 0)
(-0.0178724 0.00562804 0)
(-0.0184487 0.00546231 0)
(-0.0190112 0.00527946 0)
(-0.019558 0.00507826 0)
(-0.0200872 0.00485741 0)
(-0.0205966 0.00461565 0)
(-0.021084 0.00435171 0)
(-0.0215469 0.0040644 0)
(-0.0219829 0.00375259 0)
(-0.0223892 0.00341527 0)
(-0.0227628 0.00305159 0)
(-0.0231009 0.00266092 0)
(-0.0234002 0.00224284 0)
(-0.0236575 0.00179723 0)
(-0.0238696 0.00132431 0)
(-0.0240331 0.000824692 0)
(-0.0241446 0.000299402 0)
(-0.024201 -0.000250055 0)
(-0.0241992 -0.000821664 0)
(-0.0241361 -0.00141288 0)
(-0.0240091 -0.00202061 0)
(-0.023816 -0.00264119 0)
(-0.0235548 -0.00327045 0)
(-0.0232242 -0.00390372 0)
(-0.0228234 -0.00453587 0)
(-0.0223523 -0.00516132 0)
(-0.0218117 -0.00577422 0)
(-0.0212029 -0.00636851 0)
(-0.0205284 -0.00693812 0)
(-0.0197914 -0.00747706 0)
(-0.0189958 -0.00797956 0)
(-0.0181465 -0.00844021 0)
(-0.0172492 -0.0088541 0)
(-0.0163099 -0.00921691 0)
(-0.0153354 -0.00952504 0)
(-0.0143325 -0.00977558 0)
(-0.0133083 -0.00996638 0)
(-0.0122697 -0.0100959 0)
(-0.0112232 -0.0101633 0)
(-0.0101749 -0.010168 0)
(-0.00913021 -0.0101093 0)
(-0.00809371 -0.00998663 0)
(-0.00706923 -0.00979829 0)
(-0.00605984 -0.00954111 0)
(-0.00506814 -0.00920892 0)
(-0.00409672 -0.00878994 0)
(-0.00314985 -0.00826104 0)
(-0.002238 -0.00757286 0)
(-0.00138647 -0.00660452 0)
(-0.000604729 -0.00499866 0)
(-2.9914e-05 -0.00197845 0)
(-6.37107e-05 0.00216811 0)
(-0.000546506 0.00427171 0)
(-0.00111621 0.00519122 0)
(-0.00170693 0.00570599 0)
(-0.00231785 0.00606266 0)
(-0.00293425 0.00633529 0)
(-0.00355173 0.00655295 0)
(-0.00416985 0.00672977 0)
(-0.00478904 0.00687387 0)
(-0.00540986 0.00699054 0)
(-0.00603285 0.00708365 0)
(-0.00665843 0.00715618 0)
(-0.00728688 0.00721052 0)
(-0.00791827 0.00724862 0)
(-0.00855255 0.00727209 0)
(-0.00918952 0.00728221 0)
(-0.00982883 0.00728 0)
(-0.0104701 0.00726625 0)
(-0.0111127 0.00724151 0)
(-0.0117561 0.00720613 0)
(-0.0123996 0.00716025 0)
(-0.0130425 0.00710385 0)
(-0.0136839 0.00703673 0)
(-0.014323 0.00695852 0)
(-0.0149587 0.0068687 0)
(-0.0155901 0.00676658 0)
(-0.016216 0.00665136 0)
(-0.0168352 0.0065221 0)
(-0.0174465 0.00637773 0)
(-0.0180483 0.00621709 0)
(-0.0186392 0.00603893 0)
(-0.0192174 0.0058419 0)
(-0.0197813 0.00562461 0)
(-0.0203288 0.00538566 0)
(-0.0208578 0.00512358 0)
(-0.021366 0.00483698 0)
(-0.0218509 0.00452447 0)
(-0.02231 0.00418477 0)
(-0.0227403 0.00381671 0)
(-0.0231389 0.00341928 0)
(-0.0235027 0.0029917 0)
(-0.0238282 0.00253341 0)
(-0.024112 0.00204422 0)
(-0.0243505 0.00152427 0)
(-0.0245401 0.000974142 0)
(-0.0246772 0.000394885 0)
(-0.024758 -0.000211913 0)
(-0.024779 -0.000844094 0)
(-0.0247369 -0.00149889 0)
(-0.0246285 -0.0021729 0)
(-0.024451 -0.00286209 0)
(-0.024202 -0.00356178 0)
(-0.0238796 -0.00426675 0)
(-0.0234828 -0.00497121 0)
(-0.023011 -0.00566879 0)
(-0.0224646 -0.00635284 0)
(-0.0218449 -0.00701644 0)
(-0.0211542 -0.00765257 0)
(-0.0203958 -0.00825434 0)
(-0.0195739 -0.00881509 0)
(-0.0186938 -0.00932857 0)
(-0.0177615 -0.00978915 0)
(-0.0167839 -0.0101919 0)
(-0.0157683 -0.0105329 0)
(-0.0147225 -0.0108089 0)
(-0.0136545 -0.0110179 0)
(-0.0125719 -0.0111586 0)
(-0.0114821 -0.0112304 0)
(-0.0103919 -0.0112334 0)
(-0.00930734 -0.011168 0)
(-0.00823356 -0.011034 0)
(-0.00717478 -0.0108308 0)
(-0.00613447 -0.0105558 0)
(-0.0051156 -0.0102028 0)
(-0.00412118 -0.00975943 0)
(-0.00315603 -0.00920001 0)
(-0.00223138 -0.0084689 0)
(-0.00137332 -0.00742884 0)
(-0.000591688 -0.00567178 0)
(-2.4543e-05 -0.00228112 0)
(-6.3496e-05 0.00246526 0)
(-0.000548112 0.00479561 0)
(-0.0011207 0.0057802 0)
(-0.00171572 0.00631597 0)
(-0.0023321 0.00668006 0)
(-0.00295457 0.00695524 0)
(-0.00357827 0.00717386 0)
(-0.00420244 0.00735143 0)
(-0.0048273 0.00749662 0)
(-0.00545329 0.00761491 0)
(-0.00608093 0.00771012 0)
(-0.00671069 0.00778512 0)
(-0.00734291 0.00784217 0)
(-0.00797779 0.00788306 0)
(-0.00861539 0.00790925 0)
(-0.00925565 0.0079219 0)
(-0.00989837 0.00792192 0)
(-0.0105433 0.00790997 0)
(-0.0111899 0.00788653 0)
(-0.0118379 0.00785187 0)
(-0.0124865 0.00780604 0)
(-0.0131352 0.00774896 0)
(-0.0137833 0.00768035 0)
(-0.0144299 0.00759977 0)
(-0.0150742 0.0075066 0)
(-0.0157152 0.00740011 0)
(-0.016352 0.00727938 0)
(-0.0169832 0.00714338 0)
(-0.0176077 0.00699094 0)
(-0.0182242 0.00682077 0)
(-0.0188311 0.00663149 0)
(-0.0194269 0.00642162 0)
(-0.0200097 0.00618963 0)
(-0.0205775 0.00593392 0)
(-0.0211284 0.00565288 0)
(-0.0216599 0.00534492 0)
(-0.0221696 0.00500847 0)
(-0.0226547 0.00464204 0)
(-0.0231123 0.00424428 0)
(-0.0235393 0.00381399 0)
(-0.0239323 0.0033502 0)
(-0.0242878 0.0028522 0)
(-0.024602 0.00231964 0)
(-0.0248712 0.00175255 0)
(-0.0250912 0.00115145 0)
(-0.025258 0.000517356 0)
(-0.0253676 -0.0001481 0)
(-0.0254157 -0.000842653 0)
(-0.0253986 -0.00156335 0)