# vtk DataFile Version 2.0
tracks
ASCII
DATASET POLYDATA
POINTS 12025 float
-0.0206 0.000999968 1e-05 -0.02058 0.00099997 1e-05 -0.02056 0.000999975 1e-05 -0.02054 0.000999981
1e-05 -0.02052 0.000999989 1e-05 -0.0205 0.001 1e-05 -0.0202034 0.00100016 1e-05
-0.0199069 0.0010006 1e-05 -0.0196103 0.00100133 1e-05 -0.0193137 0.00100233 1e-05 -0.0190172
0.00100361 1e-05 -0.0187132 0.00100515 1e-05 -0.0184093 0.00100682 1e-05 -0.0181054 0.00100859
1e-05 -0.0178015 0.00101046 1e-05 -0.0174976 0.00101242 1e-05 -0.0172058 0.00101438 1e-05
-0.016914 0.00101638 1e-05 -0.0166222 0.00101841 1e-05 -0.0163305 0.00102048 1e-05 -0.0160387
0.00102259 1e-05 -0.0159234 0.00102343 1e-05 -0.0158081 0.00102428 1e-05 -0.0156929 0.00102514
1e-05 -0.0155776 0.001026 1e-05 -0.0154677 0.00102682 1e-05 -0.0153018 0.00102806 1e-05
-0.0151359 0.00102932 1e-05 -0.0149699 0.00103058 1e-05 -0.014804 0.00103185 1e-05 -0.0146381
0.00103313 1e-05 -0.0143692 0.00103522 1e-05 -0.0141002 0.00103731 1e-05 -0.0138313 0.0010394
1e-05 -0.0135624 0.0010415 1e-05 -0.0132934 0.0010436 1e-05 -0.0130353 0.00104562 1e-05
-0.0127771 0.00104762 1e-05 -0.0125189 0.00104961 1e-05 -0.0122607 0.00105159 1e-05 -0.0120025
0.00105356 1e-05 -0.0117547 0.00105544 1e-05 -0.0115068 0.00105729 1e-05 -0.0112589 0.00105914
1e-05 -0.0110111 0.00106096 1e-05 -0.0107632 0.00106278 1e-05 -0.0105252 0.00106451 1e-05
-0.0102873 0.00106622 1e-05 -0.0100493 0.00106792 1e-05 -0.00981133 0.00106962 1e-05 -0.00957337
0.0010713 1e-05 -0.00934491 0.00107291 1e-05 -0.00911645 0.00107451 1e-05 -0.00888799 0.0010761
1e-05 -0.00865954 0.00107768 1e-05 -0.00843108 0.00107925 1e-05 -0.00821175 0.00108076 1e-05
-0.00799242 0.00108225 1e-05 -0.00777309 0.00108373 1e-05 -0.00755376 0.0010852 1e-05 -0.00733443
0.00108666 1e-05 -0.00712387 0.00108806 1e-05 -0.0069133 0.00108944 1e-05 -0.00670273 0.00109079
1e-05 -0.00649216 0.00109213 1e-05 -0.0062816 0.00109345 1e-05 -0.00607944 0.00109471 1e-05
-0.00587729 0.00109593 1e-05 -0.00567514 0.00109714 1e-05 -0.00547298 0.00109832 1e-05 -0.00527083
0.00109948 1e-05 -0.00507675 0.00110059 1e-05 -0.00488267 0.00110167 1e-05 -0.0046886 0.00110274
1e-05 -0.00449452 0.00110379 1e-05 -0.00430044 0.00110482 1e-05 -0.00411412 0.00110581 1e-05
-0.0039278 0.00110678 1e-05 -0.00374147 0.00110773 1e-05 -0.00355515 0.00110868 1e-05 -0.00336883
0.00110961 1e-05 -0.00318995 0.00111051 1e-05 -0.00301107 0.00111138 1e-05 -0.00283219 0.00111224
1e-05 -0.00265331 0.00111309 1e-05 -0.00247443 0.00111393 1e-05 -0.0023027 0.00111473 1e-05
-0.00213097 0.00111551 1e-05 -0.00195924 0.00111628 1e-05 -0.0017875 0.00111702 1e-05 -0.00161577
0.00111776 1e-05 -0.0014509 0.00111846 1e-05 -0.00128603 0.00111914 1e-05 -0.00112116 0.0011198
1e-05 -0.000956289 0.00112043 1e-05 -0.000791418 0.00112106 1e-05 -0.000633135 0.00112165 1e-05
-0.000474851 0.00112222 1e-05 -0.000316567 0.00112277 1e-05 -0.000158283 0.00112331 1e-05 0
0.00112383 1e-05 0.000105677 0.00112418 1e-05 0.000211355 0.00112452 1e-05 0.000317032 0.00112485
1e-05 0.00042271 0.00112518 1e-05 0.000528387 0.0011255 1e-05 0.000634886 0.00112582 1e-05
0.000741385 0.00112614 1e-05 0.000847885 0.00112646 1e-05 0.000954384 0.00112677 1e-05 0.00106088
0.00112708 1e-05 0.00116821 0.0011274 1e-05 0.00127554 0.00112771 1e-05 0.00138286 0.00112802
1e-05 0.00149019 0.00112833 1e-05 0.00159752 0.00112863 1e-05 0.00170568 0.00112894 1e-05
0.00181384 0.00112924 1e-05 0.001922 0.00112954 1e-05 0.00203016 0.00112983 1e-05 0.00213833
0.00113011 1e-05 0.00224733 0.0011304 1e-05 0.00235633 0.00113068 1e-05 0.00246533 0.00113095
1e-05 0.00257434 0.00113122 1e-05 0.00268334 0.00113149 1e-05 0.00279319 0.00113175 1e-05
0.00290304 0.00113201 1e-05 0.00301289 0.00113226 1e-05 0.00312274 0.00113251 1e-05 0.00323259
0.00113276 1e-05 0.00334329 0.001133 1e-05 0.003454 0.00113324 1e-05 0.0035647 0.00113347
1e-05 0.0036754 0.0011337 1e-05 0.00378611 0.00113392 1e-05 0.00389767 0.00113413 1e-05
0.00400924 0.00113435 1e-05 0.0041208 0.00113455 1e-05 0.00423237 0.00113475 1e-05 0.00434393
0.00113494 1e-05 0.00445636 0.00113512 1e-05 0.00456879 0.0011353 1e-05 0.00468123 0.00113547
1e-05 0.00479366 0.00113564 1e-05 0.00490609 0.00113579 1e-05 0.0050194 0.00113594 1e-05
0.0051327 0.00113608 1e-05 0.00524601 0.00113621 1e-05 0.00535931 0.00113633 1e-05 0.00547262
0.00113644 1e-05 0.00558681 0.00113654 1e-05 0.005701 0.00113663 1e-05 0.00581518 0.00113672
1e-05 0.00592937 0.0011368 1e-05 0.00604356 0.00113686 1e-05 0.00615863 0.00113692 1e-05
0.00627371 0.00113696 1e-05 0.00638878 0.001137 1e-05 0.00650386 0.00113703 1e-05 0.00661893
0.00113705 1e-05 0.0067349 0.00113706 1e-05 0.00685087 0.00113706 1e-05 0.00696684 0.00113705
1e-05 0.00708281 0.00113704 1e-05 0.00719878 0.00113701 1e-05 0.00731565 0.00113697 1e-05
0.00743252 0.00113693 1e-05 0.00754939 0.00113688 1e-05 0.00766626 0.00113682 1e-05 0.00778313
0.00113675 1e-05 0.00790091 0.00113667 1e-05 0.00801869 0.00113658 1e-05 0.00813647 0.00113649
1e-05 0.00825425 0.00113639 1e-05 0.00837203 0.00113628 1e-05 0.00849073 0.00113616 1e-05
0.00860942 0.00113603 1e-05 0.00872812 0.0011359 1e-05 0.00884682 0.00113576 1e-05 0.00896551
0.00113562 1e-05 0.00906115 0.0011355 1e-05 0.0091568 0.00113537 1e-05 0.00925244 0.00113524
1e-05 0.00934808 0.0011351 1e-05 0.00944096 0.00113497 1e-05 0.00946549 0.00113493 1e-05
0.00949002 0.0011349 1e-05 0.00951455 0.00113486 1e-05 0.00953907 0.00113482 1e-05 0.0095636
0.00113478 1e-05 0.00968415 0.0011346 1e-05 0.0098047 0.0011344 1e-05 0.00992525 0.00113421
1e-05 0.0100458 0.001134 1e-05 0.0101663 0.00113379 1e-05 0.0102878 0.00113357 1e-05
0.0104093 0.00113334 1e-05 0.0105308 0.00113311 1e-05 0.0106523 0.00113288 1e-05 0.0107738
0.00113264 1e-05 0.0108962 0.00113237 1e-05 0.0110186 0.00113212 1e-05 0.0111411 0.00113185
1e-05 0.0112635 0.00113158 1e-05 0.0113859 0.00113131 1e-05 0.0115093 0.00113101 1e-05
0.0116327 0.00113071 1e-05 0.0117561 0.00113041 1e-05 0.0118795 0.0011301 1e-05 0.0120028
0.00112979 1e-05 0.0121272 0.00112944 1e-05 0.0122515 0.00112911 1e-05 0.0123759 0.00112876
1e-05 0.0125002 0.00112841 1e-05 0.0126245 0.00112805 1e-05 0.0127498 0.00112766 1e-05
0.0128752 0.00112728 1e-05 0.0130005 0.00112689 1e-05 0.0131258 0.00112649 1e-05 0.0132511
0.00112608 1e-05 0.0133774 0.00112564 1e-05 0.0135036 0.0011252 1e-05 0.0136299 0.00112476
1e-05 0.0137562 0.0011243 1e-05 0.0138825 0.00112384 1e-05 0.0140098 0.00112334 1e-05
0.014137 0.00112285 1e-05 0.0142643 0.00112235 1e-05 0.0143915 0.00112183 1e-05 0.0145188
0.00112131 1e-05 0.0146471 0.00112075 1e-05 0.0147753 0.0011202 1e-05 0.0149036 0.00111964
1e-05 0.0150318 0.00111906 1e-05 0.0151601 0.00111847 1e-05 0.0152893 0.00111786 1e-05
0.0154186 0.00111724 1e-05 0.0155478 0.00111661 1e-05 0.0156771 0.00111597 1e-05 0.0158063
0.00111532 1e-05 0.0159366 0.00111465 1e-05 0.0160668 0.00111396 1e-05 0.0161971 0.00111327
1e-05 0.0163273 0.00111257 1e-05 0.0164576 0.00111185 1e-05 0.0165889 0.00111112 1e-05
0.0167201 0.00111037 1e-05 0.0168514 0.00110962 1e-05 0.0169827 0.00110885 1e-05 0.0171139
0.00110807 1e-05 0.0172462 0.00110728 1e-05 0.0173785 0.00110648 1e-05 0.0175108 0.00110566
1e-05 0.0176431 0.00110483 1e-05 0.0177754 0.001104 1e-05 0.0179087 0.00110316 1e-05
0.018042 0.0011023 1e-05 0.0181753 0.00110143 1e-05 0.0183087 0.00110054 1e-05 0.018442
0.00109966 1e-05 0.0185763 0.00109877 1e-05 0.0187107 0.00109786 1e-05 0.018845 0.00109693
1e-05 0.0189794 0.001096 1e-05 0.0191137 0.00109507 1e-05 0.0192491 0.00109414 1e-05
0.0193845 0.00109319 1e-05 0.0195199 0.00109221 1e-05 0.0196553 0.00109123 1e-05 0.0197907
0.00109026 1e-05 0.0199272 0.0010893 1e-05 0.0200636 0.00108831 1e-05 0.0202001 0.00108729
1e-05 0.0203365 0.00108627 1e-05 0.020473 0.00108526 1e-05 0.0206105 0.00108427 1e-05
0.020748 0.00108325 1e-05 0.0208855 0.0010822 1e-05 0.021023 0.00108114 1e-05 0.0211606
0.00108011 1e-05 0.0212991 0.00107909 1e-05 0.0214377 0.00107804 1e-05 0.0215763 0.00107696
1e-05 0.0217149 0.00107588 1e-05 0.0218535 0.00107482 1e-05 0.0219931 0.00107378 1e-05
0.0221328 0.00107271 1e-05 0.0222724 0.0010716 1e-05 0.0224121 0.00107049 1e-05 0.0225517
0.00106942 1e-05 0.0226925 0.00106836 1e-05 0.0228332 0.00106726 1e-05 0.022974 0.00106613
1e-05 0.0231147 0.001065 1e-05 0.0232555 0.0010639 1e-05 0.0233973 0.00106283 1e-05
0.0235391 0.00106171 1e-05 0.023681 0.00106056 1e-05 0.0238228 0.0010594 1e-05 0.0239647
0.00105828 1e-05 0.0241076 0.00105718 1e-05 0.0242505 0.00105605 1e-05 0.0243935 0.00105487
1e-05 0.0245364 0.00105369 1e-05 0.0246794 0.00105254 1e-05 0.0248234 0.00105142 1e-05
0.0249675 0.00105025 1e-05 0.0251115 0.00104905 1e-05 0.0252556 0.00104784 1e-05 0.0253996
0.00104666 1e-05 0.0255448 0.00104551 1e-05 0.02569 0.00104431 1e-05 0.0258351 0.00104307
1e-05 0.0259803 0.00104183 1e-05 0.0261255 0.00104062 1e-05 0.0262718 0.00103943 1e-05
0.0264181 0.00103819 1e-05 0.0265644 0.00103692 1e-05 0.0267107 0.00103564 1e-05 0.026857
0.00103438 1e-05 0.0270044 0.00103315 1e-05 0.0271519 0.00103187 1e-05 0.0272993 0.00103055
1e-05 0.0274468 0.00102923 1e-05 0.0275942 0.00102793 1e-05 0.0277428 0.00102664 1e-05
0.0278914 0.00102531 1e-05 0.0280399 0.00102394 1e-05 0.0281885 0.00102257 1e-05 0.0283371
0.0010212 1e-05 0.0284869 0.00101986 1e-05 0.0286366 0.00101847 1e-05 0.0287863 0.00101704
1e-05 0.0289361 0.00101561 1e-05 0.0290858 0.00101418 1e-05 0.0292367 0.00101277 1e-05
0.0293876 0.00101131 1e-05 0.0295385 0.00100982 1e-05 0.0296894 0.00100833 1e-05 0.0298403
0.00100683 1e-05 0.0299924 0.00100535 1e-05 0.0301445 0.00100381 1e-05 0.0302966 0.00100226
1e-05 0.0304486 0.00100069 1e-05 0.0306007 0.000999116 1e-05 0.030754 0.000997559 1e-05
0.0309072 0.000995945 1e-05 0.0310605 0.000994319 1e-05 0.0312138 0.000992682 1e-05 0.031367
0.000991034 1e-05 0.0315215 0.000989397 1e-05 0.0316759 0.00098771 1e-05 0.0318304 0.000986013
1e-05 0.0319848 0.000984304 1e-05 0.0321393 0.000982584 1e-05 0.0322949 0.000980868 1e-05
0.0324506 0.000979111 1e-05 0.0326062 0.000977343 1e-05 0.0327619 0.000975564 1e-05 0.0329175
[...]
POINT_DATA 12025
FIELD attributes 4
age 1 12025 float
-9.99825e-06 -7.99837e-06 -5.9986e-06 -3.99895e-06 -1.99942e-06 0 2.96481e-05 5.92757e-05 8.88833e-05 0.000118471 0.000148039
0.000178309 0.000208561 0.000238788 0.000268992 0.000299173 0.000328115 0.000357042 0.000385948 0.000414833 0.000443698
0.000455092 0.000466485 0.000477874 0.000489261 0.000500107 0.00051649 0.000532867 0.000549237 0.000565602 0.000581962
0.000608465 0.000634955 0.000661431 0.000687893 0.000714341 0.000739716 0.000765084 0.00079044 0.000815786 0.000841119
0.000865425 0.000889729 0.000914025 0.000938313 0.000962593 0.000985887 0.00100918 0.00103248 0.00105576 0.00107904
0.00110137 0.00112371 0.00114605 0.00116838 0.00119071 0.00121212 0.00123355 0.00125497 0.00127639 0.0012978
0.00131835 0.0013389 0.00135945 0.00137999 0.00140054 0.00142025 0.00143996 0.00145968 0.00147939 0.0014991
0.00151802 0.00153694 0.00155586 0.00157478 0.0015937 0.00161186 0.00163001 0.00164817 0.00166633 0.00168449
0.00170193 0.00171936 0.00173679 0.00175422 0.00177165 0.00178839 0.00180512 0.00182185 0.00183859 0.00185532
0.0018714 0.00188746 0.00190353 0.00191959 0.00193566 0.0019511 0.00196652 0.00198195 0.00199737 0.0020128
0.00202312 0.00203342 0.00204372 0.00205403 0.00206433 0.00207473 0.00208512 0.00209551 0.0021059 0.00211629
0.00212677 0.00213725 0.00214772 0.0021582 0.00216867 0.00217925 0.0021898 0.00220037 0.00221093 0.00222149
0.00223215 0.0022428 0.00225344 0.00226409 0.00227474 0.00228549 0.00229623 0.00230696 0.0023177 0.00232844
0.00233928 0.00235011 0.00236093 0.00237176 0.00238259 0.00239352 0.00240444 0.00241536 0.00242629 0.00243721
0.00244824 0.00245925 0.00247027 0.00248128 0.00249231 0.00250343 0.00251454 0.00252566 0.00253677 0.0025479
0.00255912 0.00257033 0.00258155 0.00259277 0.002604 0.00261533 0.00262664 0.00263797 0.0026493 0.00266063
0.00267207 0.0026835 0.00269493 0.00270637 0.00271782 0.00272937 0.00274091 0.00275246 0.00276402 0.00277558
0.00278725 0.00279891 0.00281058 0.00282226 0.00283394 0.00284573 0.00285752 0.00286932 0.00288112 0.00289293
0.00290246 0.00291199 0.00292152 0.00293106 0.00294033 0.00294278 0.00294523 0.00294768 0.00295013 0.00295258
0.00296463 0.00297668 0.00298875 0.00300082 0.0030129 0.00302511 0.00303731 0.00304951 0.00306173 0.00307396
0.00308633 0.00309867 0.00311103 0.0031234 0.00313578 0.00314832 0.00316083 0.00317334 0.00318587 0.00319841
0.00321113 0.0032238 0.00323648 0.00324917 0.00326188 0.00327478 0.00328762 0.00330048 0.00331335 0.00332624
0.00333933 0.00335235 0.00336539 0.00337845 0.00339152 0.0034048 0.00341802 0.00343125 0.0034445 0.00345776
0.00347125 0.00348466 0.0034981 0.00351155 0.00352502 0.00353871 0.00355233 0.00356597 0.00357963 0.00359332
0.00360723 0.00362108 0.00363493 0.00364881 0.00366273 0.00367686 0.00369094 0.00370502 0.00371913 0.00373327
0.00374763 0.00376195 0.00377626 0.0037906 0.00380499 0.00381958 0.00383414 0.00384869 0.00386327 0.0038779
0.00389273 0.00390754 0.00392234 0.00393716 0.00395204 0.00396712 0.00398217 0.00399722 0.0040123 0.00402743
0.00404275 0.00405806 0.00407337 0.0040887 0.00410409 0.00411966 0.00413522 0.00415079 0.00416639 0.00418204
0.00419786 0.00421368 0.00422952 0.00424538 0.00426129 0.00427736 0.00429345 0.00430955 0.00432568 0.00434185
0.00435818 0.00437453 0.0043909 0.00440729 0.00442372 0.00444031 0.00445693 0.00447356 0.00449022 0.00450691
0.00452376 0.00454064 0.00455754 0.00457446 0.00459141 0.00460852 0.00462566 0.00464283 0.00466002 0.00467723
0.0046946 0.004712 0.00472943 0.00474688 0.00476435 0.00478198 0.00479964 0.00481733 0.00483504 0.00485277
0.00487066 0.00488858 0.00490653 0.00492451 0.0049425 0.00496064 0.00497882 0.00499704 0.00501527 0.00503352
0.00505192 0.00507036 0.00508883 0.00510732 0.00512583 0.00514449 0.0051632 0.00518192 0.00520067 0.00521944
0.00523836 0.00525732 0.00527631 0.00529532 0.00531435 0.00533353 0.00535276 0.005372 0.00539127 0.00541056
0.00543 0.00544949 0.005469 0.00548852 0.00550807 0.00552778 0.00554753 0.0055673 0.00558709 0.0056069
0.00562688 0.00564689 0.00566693 0.00568698 0.00570705 0.0057273 0.00574758 0.00576788 0.0057882 0.00580854
0.00582906 0.0058496 0.00587017 0.00589076 0.00591137 0.00592587 0.00594038 0.00595491 0.00596945 0.00598377
0.00599012 0.00599648 0.00600284 0.0060092 0.00601557 0.00603663 0.00605771 0.00607882 0.00609995 0.00612111
0.00614244 0.0061638 0.00618519 0.00620659 0.00622802 0.00624963 0.00627126 0.00629292 0.0063146 0.0063363
0.00635819 0.0063801 0.00640203 0.00642399 0.00644596 0.00646812 0.0064903 0.00651251 0.00653474 0.00655699
0.00657942 0.00660188 0.00662436 0.00664687 0.00666939 0.00669209 0.00671482 0.00673758 0.00676035 0.00678314
0.00680611 0.00682911 0.00685214 0.00687518 0.00689824 0.00692148 0.00694474 0.00696804 0.00699135 0.00701467
0.00703817 0.00706171 0.00708527 0.00710885 0.00713243 0.0071562 0.00717999 0.00720382 0.00722766 0.00725151
0.00727554 0.00729959 0.00732368 0.00734779 0.00737189 0.00739618 0.0074205 0.00744485 0.00746922 0.00749358
0.00751813 0.00754271 0.00756732 0.00759195 0.00761657 0.00764138 0.00766622 0.00769109 0.00771598 0.00774086
0.00776593 0.00779104 0.00781617 0.00784132 0.00786646 0.0078918 0.00791717 0.00794257 0.00796798 0.00799339
0.008019 0.00804464 0.0080703 0.00809598 0.00812166 0.00814754 0.00817346 0.00819939 0.00822535 0.0082513
0.00827746 0.00830365 0.00832986 0.00835609 0.00838233 0.00840877 0.00843524 0.00846174 0.00848825 0.00851477
0.0085415 0.00856827 0.00859505 0.00862185 0.00864867 0.0086757 0.00870277 0.00872985 0.00875695 0.00878407
0.0088114 0.00883877 0.00886616 0.00889356 0.00892099 0.00894864 0.00897632 0.00900401 0.00903173 0.00905947
0.00908745 0.00911544 0.00914346 0.00917151 0.00919957 0.0092113 0.00922304 0.00923478 0.00924653 0.00925794
0.0092746 0.00929128 0.00930796 0.00932465 0.00934134 0.00936998 0.00939865 0.00942734 0.00945605 0.00948479
0.00951377 0.00954278 0.00957181 0.00960088 0.00962997 0.00965929 0.00968866 0.00971805 0.00974747 0.00977692
0.0098066 0.00983633 0.00986608 0.00989586 0.00992567 0.00995572 0.00998581 0.0100159 0.0100461 0.0100763
0.0101067 0.0101371 0.0101677 0.0101982 0.0102287 0.0102595 0.0102904 0.0103213 0.0103522 0.0103831
0.0104143 0.0104455 0.0104768 0.0105081 0.0105394 0.010571 0.0106026 0.0106343 0.010666 0.0106977
0.0107297 0.0107617 0.0107938 0.0108259 0.010858 0.0108904 0.0109228 0.0109553 0.0109878 0.0110203
0.0110531 0.0110859 0.0111188 0.0111517 0.0111847 0.0112179 0.0112512 0.0112845 0.0113179 0.0113512
0.0113849 0.0114186 0.0114523 0.0114861 0.0115199 0.0115475 0.0115752 0.0116028 0.0116305 0.0116567
0.0116635 0.0116703 0.0116772 0.011684 0.0116909 0.0117255 0.0117601 0.0117947 0.0118294 0.0118641
0.0118992 0.0119343 0.0119694 0.0120046 0.0120398 0.0120753 0.0121109 0.0121465 0.0121822 0.0122179
0.012254 0.01229 0.0123262 0.0123624 0.0123986 0.0124351 0.0124717 0.0125084 0.0125451 0.0125819
0.0126189 0.0126561 0.0126933 0.0127305 0.0127678 0.0128054 0.0128431 0.0128809 0.0129187 0.0129565
0.0129947 0.0130329 0.0130712 0.0131096 0.013148 0.0131868 0.0132256 0.0132645 0.0133034 0.0133424
0.0133817 0.0134211 0.0134606 0.0135001 0.0135393 0.0135394 0.0135395 0.0135396 0.0135396 0.0135397
0.0135796 0.0136197 0.0136597 0.0136998 0.01374 0.0137805 0.0138211 0.0138618 0.0139025 0.0139433
0.0139845 0.0140257 0.014067 0.0141083 0.0141497 0.0141915 0.0142333 0.0142752 0.0143172 0.0143592
0.0144016 0.0144441 0.0144866 0.0145292 0.0145719 0.014615 0.0146581 0.0147013 0.0147446 0.0147879
0.0148316 0.0148754 0.0149193 0.0149632 0.0150072 0.0150516 0.015096 0.0151406 0.0151852 0.0152298
0.0152609 0.015292 0.0153232 0.0153543 0.0153849 0.0153991 0.0154133 0.0154275 0.0154418 0.015456
0.0155018 0.0155476 0.0155935 0.0156395 0.0156856 0.015732 0.0157786 0.0158252 0.0158719 0.0159186
0.0159658 0.0160131 0.0160604 0.0161078 0.0161553 0.0162032 0.0162512 0.0162993 0.0163474 0.0163957
0.0164443 0.0164931 0.0165419 0.0165908 0.0166398 0.0166893 0.0167388 0.0167884 0.0168381 0.0168879
0.0169381 0.0169884 0.0170388 0.0170893 0.0171399 0.0171748 0.0172098 0.0172447 0.0172797 0.0173139
0.0173303 0.0173468 0.0173633 0.0173798 0.0173963 0.0174482 0.0175002 0.0175523 0.0176044 0.0176567
0.0177095 0.0177624 0.0178154 0.0178684 0.0179216 0.0179753 0.0180291 0.018083 0.018137 0.0181911
0.0182458 0.0183005 0.0183554 0.0184103 0.0184654 0.0185211 0.0185768 0.0186326 0.0186886 0.0187447
0.0188014 0.0188582 0.0189151 0.0189721 0.0190293 0.0190795 0.0191297 0.0191801 0.0192306 0.0192792
0.0192872 0.0192952 0.0193033 0.0193113 0.0193194 0.0193782 0.0194372 0.0194964 0.0195556 0.0196151
0.0196751 0.0197353 0.0197956 0.0198561 0.0199167 0.019978 0.0200394 0.020101 0.0201627 0.0202246
0.0202872 0.0203499 0.0204127 0.0204758 0.020539 0.0206029 0.020667 0.0207312 0.0207957 0.0208603
0.0209256 0.0209911 0.0210568 0.0211227 0.0211888 0.0212002 0.0212115 0.0212229 0.0212342 0.0212455
0.0213011 0.0213569 0.0214128 0.0214688 0.021525 0.0215934 0.021662 0.0217307 0.0217997 0.021869
0.021939 0.0220092 0.0220796 0.0221502 0.0222212 0.0222929 0.0223648 0.022437 0.0225094 0.0225821
0.0226556 0.0227293 0.0228033 0.0228776 0.0229522 0.0230079 0.0230638 0.0231199 0.0231761 0.0232305
0.0232508 0.0232711 0.0232914 0.0233118 0.0233322 0.0234095 0.0234872 0.0235651 0.0236434 0.0237219
0.0238014 0.0238811 0.0239612 0.0240415 0.0241222 0.0242039 0.0242858 0.0243681 0.0244507 0.0245336
0.0246176 0.0247018 0.0247864 0.0248714 0.0249567 0.0250188 0.0250811 0.0251435 0.0252061 0.0252669
0.0252919 0.025317 0.0253422 0.0253674 0.0253926 0.0254814 0.0255707 0.0256603 0.0257504 0.0258409
0.0259324 0.0260243 0.0261167 0.0262094 0.0263026 0.026397 0.0264917 0.0265869 0.0266825 0.0267786
0.0268759 0.0269736 0.0270718 0.0271705 0.0272697 0.027292 0.0273143 0.0273367 0.0273591 0.0273813
0.0274598 0.0275386 0.0276177 0.0276972 0.0277769 0.0278805 0.0279846 0.0280893 0.0281944 0.0283001
0.0284071 0.0285147 0.0286228 0.0287314 0.0288407 0.0289512 0.0290624 0.0291742 0.0292865 0.0293994
0.0294378 0.0294762 0.0295148 0.0295533 0.0295914 0.0296682 0.0297452 0.0298226 0.0299002 0.029978
0.0300963 0.0302152 0.0303348 0.0304549 0.0305758 0.0306981 0.0308211 0.0309449 0.0310692 0.0311943
0.0313209 0.0314482 0.0315762 0.0317049 0.0318344 0.0318492 0.031864 0.0318788 0.0318937 0.0319084
0.0320251 0.0321423 0.03226 0.0323783 0.0324972 0.0326328 0.0327691 0.0329062 0.033044 0.0331826
0.0333227 0.0334637 0.0336056 0.0337481 0.0338914 0.0339815 0.0340719 0.0341626 0.0342535 0.034343
0.0343992 0.0344555 0.0345119 0.0345685 0.0346252 0.034775 0.0349257 0.0350772 0.0352294 0.0353823
0.035537 0.0356926 0.035849 0.0360061 0.036164 0.036311 0.0364587 0.036607 0.036756 0.0369026
0.0369162 0.0369299 0.0369435 0.0369571 0.0369708 0.0371356 0.0373012 0.0374676 0.0376348 0.0378027
0.0379726 0.0381433 0.0383149 0.0384873 0.0386603 0.0388334 0.0390074 0.0391821 0.0393576 0.0395319
0.0395342 0.0395366 0.039539 0.0395414 0.0395438 0.0397241 0.0399052 0.0400871 0.0402697 0.0404531
0.0406385 0.0408247 0.0410118 0.0411996 0.041388 0.0415662 0.0417451 0.0419246 0.0421048 0.0422861
0.0422985 0.042311 0.0423234 0.0423359 0.0423483 0.0425439 0.0427402 0.0429372 0.0431349 0.0433331
0.0435335 0.0437345 0.0439364 0.0441388 0.0443416 0.0445124 0.0446836 0.0448553 0.0450273 0.0452035
0.0452373 0.0452712 0.0453051 0.045339 0.0453729 0.0455822 0.0457921 0.0460026 0.0462135 0.0464246
0.0466379 0.0468516 0.047066 0.0472807 0.0474953 0.0476669 0.0478388 0.0480109 0.0481833 0.0483652
0.0484086 0.048452 0.0484954 0.0485388 0.0485822 0.0488021 0.0490224 0.0492428 0.0494633 0.0496835
0.0498964 0.0501099 0.0503237 0.0505375 0.0507509 0.0508229 0.0508949 0.0509669 0.0510389 0.0511127
0.0512617 0.0514107 0.0515595 0.0517082 0.0518566 0.0520855 0.0523144 0.0525431 0.0527715 0.0529989
0.0531031 0.0532073 0.0533115 0.0534155 0.0535247 0.0536547 0.0537846 0.0539144 0.0540439 0.0541731
0.0544152 0.0546566 0.0548974 0.0551374 0.0553758 0.0555175 0.055659 0.0558001 0.0559408 0.0560944
0.0561956 0.0562966 0.0563974 0.056498 0.0565982 0.0568487 0.057098 0.0573459 0.0575925 0.0578369
0.058045 0.0582521 0.0584581 0.0586629 0.0589032 0.058939 0.0589748 0.0590105 0.0590462 0.0590819
0.0593353 0.0595868 0.0598363 0.0600839 0.0603291 0.0605819 0.0608325 0.0610811 0.0613274 0.0615712
0.0616709 0.0617702 0.0618691 0.0619676 0.0620765 0.0622229 0.0623684 0.0625131 0.062657 0.0628
0.0630484 0.0632944 0.0635378 0.0637787 0.064017 0.0642621 0.0645045 0.0647443 0.0649815 0.0652162
0.0653363 0.0654559 0.0655747 0.0656928 0.0658293 0.0659429 0.0660559 0.0661684 0.0662801 0.0663913
0.066628 0.0668619 0.0670931 0.0673217 0.0675477 0.0677797 0.068009 0.0682356 0.0684595 0.0686809
0.0689081 0.0691326 0.0693544 0.0695735 0.0697902 0.0699508 0.07011 0.0702678 0.0704242 0.0706206
0.0706714 0.0707221 0.0707726 0.070823 0.0708733 0.0710908 0.0713057 0.0715179 0.0717275 0.0719348
0.0721476 0.0723578 0.0725654 0.0727704 0.0729731 0.0731811 0.0733864 0.073589 0.0737892 0.0739873
0.0741909 0.0743921 0.0745909 0.0747871 0.0749807 0.075179 0.0753743 0.0755672 0.0757581 0.075947
0.0761418 0.0763347 0.0765243 0.0767108 0.0768944 0.0769913 0.0770873 0.0771828 0.0772779 0.0773405
0.0774347 0.0775283 0.0776212 0.0777135 0.0778052 -9.99993e-06 -7.99993e-06 -5.99994e-06 -3.99996e-06 -1.99998e-06
0 2.96564e-05 5.93116e-05 8.89645e-05 0.000118614 0.00014826 0.000178634 0.000209003 0.000239365 0.000269721
0.00030007 0.000329198 0.000358318 0.000387431 0.000416537 0.000445635 0.000473564 0.000501487 0.000529402 0.000557312
0.000585214 0.000611996 0.000638772 0.000665542 0.000692307 0.000719065 0.000744749 0.000770428 0.000796102 0.000821771
0.000847434 0.000872067 0.000896696 0.00092132 0.00094594 0.000970555 0.000994182 0.00101781 0.00104142 0.00106504
0.00108865 0.00111132 0.00113398 0.00115663 0.00117929 0.00120194 0.00122368 0.00124542 0.00126716 0.00128889
0.00131062 0.00133148 0.00135234 0.00137319 0.00139404 0.00141489 0.0014349 0.00145491 0.00147492 0.00149493
0.00151493 0.00153413 0.00155333 0.00157253 0.00159173 0.00161092 0.00162935 0.00164777 0.00166619 0.00168462
0.00170303 0.00172071 0.00173839 0.00175607 0.00177375 0.00179142 0.00180839 0.00182536 0.00184232 0.00185929
0.00187625 0.00189253 0.00190881 0.00192509 0.00194137 0.00195765 0.00197328 0.00198891 0.00200453 0.00202016
0.00203578 0.00204621 0.00205664 0.00206707 0.0020775 0.00208793 0.00209844 0.00210895 0.00211946 0.00212996
0.00214047 0.00215106 0.00216165 0.00217224 0.00218283 0.00219342 0.00220409 0.00221475 0.00222542 0.00223609
0.00224676 0.00225751 0.00226826 0.00227901 0.00228976 0.00230051 0.00231134 0.00232218 0.00233301 0.00234384
0.00235467 0.00236558 0.0023765 0.00238741 0.00239833 0.00240924 0.00242024 0.00243124 0.00244223 0.00245323
0.00246423 0.00247531 0.00248639 0.00249747 0.00250855 0.00251963 0.0025308 0.00254197 0.00255313 0.0025643
0.00257546 0.00258672 0.00259797 0.00260922 0.00262047 0.00263172 0.00264306 0.0026544 0.00266574 0.00267708
0.00268842 0.00269984 0.00271127 0.00272269 0.00273412 0.00274554 0.00275706 0.00276857 0.00278009 0.0027916
0.00280311 0.00281472 0.00282632 0.00283792 0.00284953 0.00286113 0.00287282 0.00288452 0.00289621 0.0029079
0.0029196 0.00293138 0.00294316 0.00295495 0.00296673 0.00297852 0.00299039 0.00300227 0.00301414 0.00302602
0.00303789 0.00304986 0.00306183 0.0030738 0.00308577 0.00309773 0.00310979 0.00312185 0.00313392 0.00314598
0.00315804 0.00317019 0.00318235 0.0031945 0.00320666 0.00321881 0.00323106 0.00324331 0.00325556 0.0032678
0.00328005 0.0032924 0.00330474 0.00331709 0.00332943 0.00334177 0.00335421 0.00336665 0.00337909 0.00339153
0.00340397 0.00341651 0.00342904 0.00344158 0.00345412 0.00346665 0.00347929 0.00349192 0.00350455 0.00351719
0.00352982 0.00354255 0.00355528 0.00356801 0.00358075 0.00359348 0.00360631 0.00361914 0.00363197 0.0036448
0.00365763 0.00366455 0.00367147 0.00367839 0.00368531 0.00369223 0.00369824 0.00370425 0.00371026 0.00371627
0.00372228 0.00373531 0.00374834 0.00376137 0.0037744 0.00378743 0.00380056 0.00381369 0.00382682 0.00383995
0.00385309 0.00386632 0.00387955 0.00389279 0.00390602 0.00391925 0.00393259 0.00394592 0.00395926 0.00397259
0.00398593 0.00399937 0.0040128 0.00402624 0.00403968 0.00405312 0.00406666 0.0040802 0.00409374 0.00410728
0.00412082 0.00413447 0.00414811 0.00416176 0.0041754 0.00418905 0.0042028 0.00421655 0.0042303 0.00424405
0.00425779 0.00427165 0.0042855 0.00429936 0.00431321 0.00432706 0.00434102 0.00435498 0.00436894 0.0043829
0.00439686 0.00441093 0.00442499 0.00443906 0.00445312 0.00446718 0.00448136 0.00449553 0.0045097 0.00452387
0.00453804 0.00455232 0.0045666 0.00458088 0.00459516 0.00460943 0.00462382 0.00463821 0.00465259 0.00466698
0.00468136 0.00469586 0.00471035 0.00472485 0.00473934 0.00475384 0.00476844 0.00478305 0.00479765 0.00481226
0.00482686 0.00484158 0.00485629 0.00487101 0.00488572 0.00490044 0.00491526 0.00493009 0.00494492 0.00495974
0.00497457 0.00498951 0.00500445 0.00501939 0.00503433 0.00504927 0.00506433 0.00507938 0.00509444 0.00510949
0.00512454 0.00513972 0.00515489 0.00517006 0.00518523 0.00520039 0.00521568 0.00523097 0.00524626 0.00526154
0.00527683 0.00529223 0.00530764 0.00532304 0.00533845 0.00535385 0.00536938 0.0053849 0.00540042 0.00541595
0.00543147 0.00544712 0.00546276 0.0054784 0.00549405 0.00550969 0.00552546 0.00554122 0.00555699 0.00557275
0.00558852 0.0056044 0.00562029 0.00563618 0.00565206 0.00566795 0.00568396 0.00569997 0.00571598 0.00573199
0.005748 0.00576413 0.00578027 0.0057964 0.00581253 0.00582867 0.00584493 0.00586118 0.00587744 0.0058937
0.00590996 0.00591016 0.00591037 0.00591057 0.00591078 0.00591098 0.00592716 0.00594334 0.00595952 0.00597569
0.00599187 0.00600838 0.00602489 0.0060414 0.00605791 0.00607442 0.00609106 0.0061077 0.00612433 0.00614097
0.00615761 0.00617438 0.00619114 0.00620791 0.00622467 0.00624144 0.00625834 0.00627523 0.00629213 0.00630902
0.00632591 0.00634295 0.00635998 0.006377 0.00639403 0.00641105 0.00642823 0.00644538 0.00646254 0.0064797
0.00649686 0.00651417 0.00653147 0.00654876 0.00656605 0.00658335 0.0066008 0.00661824 0.00663567 0.00665309
0.00667053 0.00668813 0.00670571 0.00672328 0.00674084 0.00675843 0.00677618 0.0067939 0.00681161 0.00682931
0.00684705 0.00686495 0.00688282 0.00690067 0.00691852 0.00693641 0.00695446 0.00697249 0.00699049 0.0070085
0.00702654 0.00704475 0.00706294 0.0070811 0.00709926 0.00711746 0.00713584 0.00715419 0.0071725 0.00719083
0.00720919 0.00722773 0.00724625 0.00726473 0.00728322 0.00730175 0.00732047 0.00733915 0.0073578 0.00737646
0.00739516 0.00741406 0.00743292 0.00745175 0.00747059 0.00748947 0.00750854 0.00752758 0.0075466 0.00756563
0.00758469 0.00760395 0.00762317 0.00764238 0.00766161 0.00768085 0.0077003 0.0077197 0.00773912 0.00775854
0.00777797 0.00779761 0.00781721 0.00783683 0.00785646 0.00787609 0.00789593 0.00791574 0.00793556 0.0079554
0.00797524 0.00799527 0.0080153 0.00803533 0.00805538 0.00807544 0.0080892 0.00810295 0.00811671 0.00813048
0.00814388 0.00815045 0.00815702 0.00816359 0.00817016 0.00817673 0.00819718 0.00821765 0.00823812 0.00825861
0.00827911 0.00829981 0.0083205 0.0083412 0.00836192 0.00838265 0.00840359 0.00842452 0.00844545 0.0084664
0.00848737 0.00850856 0.00852972 0.00855089 0.00857208 0.00859329 0.00861473 0.00863614 0.00865756 0.00867899
0.00870046 0.00872216 0.00874383 0.0087655 0.00878717 0.0088089 0.00883087 0.00885281 0.00887472 0.00889665
0.00891864 0.00894088 0.00896308 0.00898527 0.00900747 0.00902973 0.00905224 0.00907472 0.00909718 0.00911965
0.00914219 0.00916498 0.00918774 0.00921048 0.00923324 0.00925606 0.00927913 0.00930217 0.00932521 0.00934826
0.00937137 0.00939473 0.00941807 0.00944141 0.00946477 0.00948818 0.00951183 0.00953547 0.00955912 0.0095828
0.0096065 0.00963046 0.0096544 0.00967837 0.00970237 0.0097264 0.00975066 0.00977493 0.00979923 0.00982356
0.00984791 0.00985924 0.00987056 0.0098819 0.00989324 0.00990434 0.00991767 0.00993102 0.00994437 0.00995774