/*--------------------------------*- C++ -*----------------------------------*\
  =========                 |
  \\      /  F ield         | OpenFOAM: The Open Source CFD Toolbox
   \\    /   O peration     | Website:  https://openfoam.org
    \\  /    A nd           | Version:  13
     \\/     M anipulation  |
\*---------------------------------------------------------------------------*/
FoamFile
{
    format      ascii;
    class       volScalarField;
    location    "200";
    object      k;
}
// * * * * * * * * * * * * * * * * * * * * * * * * * * * * * * * * * * * * * //

dimensions      [0 2 -2 0 0 0 0];

internalField   nonuniform List<scalar> 
12225
(
0.232621
2.49019
2.0925
1.92221
1.79252
1.8478
1.32951
2.32775
2.69852
2.31189
1.67417
1.53094
1.39266
1.34124
1.32379
1.37141
2.02059
2.56323
0.364211
0.437852
0.409983
0.38297
0.426007
0.435801
0.42292
0.399732
0.47281
0.483683
0.498286
0.508551
0.515103
0.53962
0.582755
0.669537
0.725053
0.800429
0.374648
0.339153
0.244648
0.165434
0.103536
0.100715
0.0946905
0.0908692
0.102315
0.113404
0.122025
0.125358
0.139438
0.155684
0.168469
0.19032
0.207423
0.227965
0.372848
0.34846
0.276885
0.197666
0.138894
0.117269
0.105423
0.101938
0.098121
0.0954466
0.101606
0.0992418
0.103635
0.103851
0.0957934
0.0867149
0.0841051
0.0829344
0.373663
0.354997
0.309858
0.261244
0.206969
0.175516
0.149448
0.137681
0.134192
0.130644
0.134519
0.12876
0.13206
0.125091
0.113752
0.100101
0.0871031
0.082713
0.374824
0.358238
0.338923
0.317399
0.298847
0.272243
0.256416
0.237969
0.227186
0.219058
0.213929
0.211402
0.203675
0.191448
0.18086
0.167859
0.156805
0.150146
0.374077
0.366337
0.356589
0.345743
0.33697
0.324535
0.3126
0.303188
0.297832
0.29092
0.283509
0.273332
0.264007
0.253153
0.24555
0.236268
0.231773
0.223742
0.373555
0.369435
0.362139
0.356209
0.351786
0.347493
0.342353
0.337737
0.333199
0.326614
0.319609
0.311594
0.304327
0.297271
0.291868
0.286164
0.28314
0.278877
0.37332
0.37078
0.366325
0.362847
0.359809
0.357002
0.354252
0.351175
0.347891
0.343435
0.338625
0.333347
0.328635
0.323984
0.320589
0.316674
0.314683
0.311426
0.373597
0.371316
0.368436
0.365847
0.363616
0.361373
0.359222
0.356855
0.354333
0.351316
0.348132
0.344719
0.341616
0.338425
0.336024
0.333308
0.331622
0.329334
0.37382
0.371495
0.369229
0.367043
0.365054
0.363091
0.361193
0.359208
0.357172
0.354938
0.352668
0.350287
0.348089
0.345848
0.343987
0.342022
0.34056
0.338837
0.373835
0.371546
0.369397
0.36733
0.365407
0.363542
0.361755
0.359963
0.358185
0.356346
0.354523
0.352665
0.350914
0.349161
0.347607
0.346029
0.344725
0.343305
0.373832
0.371556
0.369416
0.367378
0.365459
0.363623
0.361877
0.360181
0.358538
0.356915
0.355338
0.353773
0.35228
0.350811
0.349452
0.348108
0.346915
0.345691
0.373829
0.371556
0.369409
0.367371
0.365443
0.363608
0.361868
0.360203
0.358614
0.357083
0.355617
0.354197
0.352841
0.351529
0.350288
0.349085
0.347966
0.346868
0.373827
0.371554
0.369402
0.36736
0.365425
0.363586
0.361841
0.36018
0.358601
0.357094
0.355659
0.354286
0.352977
0.351724
0.350531
0.349388
0.348301
0.34726
0.373826
0.371552
0.369396
0.367352
0.365413
0.363571
0.361821
0.360158
0.358577
0.357072
0.355638
0.354273
0.352971
0.35173
0.350546
0.349417
0.348339
0.34731
0.373825
0.37155
0.369392
0.367346
0.365404
0.36356
0.361808
0.360142
0.358558
0.35705
0.355614
0.354247
0.352944
0.351702
0.350517
0.349387
0.348308
0.347279
0.373825
0.371549
0.369391
0.367343
0.3654
0.363554
0.3618
0.360132
0.358545
0.357035
0.355598
0.354228
0.352923
0.351679
0.350492
0.34936
0.348279
0.347248
0.373825
0.371549
0.36939
0.367342
0.365398
0.363552
0.361797
0.360128
0.358541
0.35703
0.355591
0.35422
0.352914
0.351669
0.350481
0.349348
0.348266
0.347234
0.373825
0.37155
0.369392
0.367345
0.365402
0.363557
0.361803
0.360135
0.358548
0.357038
0.3556
0.354229
0.352923
0.351678
0.350491
0.349357
0.348276
0.347244
0.373826
0.371553
0.369395
0.36735
0.365407
0.363564
0.361811
0.360146
0.358561
0.357054
0.355617
0.354249
0.352945
0.351701
0.350515
0.349384
0.348303
0.347272
0.373826
0.371558
0.369391
0.367341
0.365389
0.363547
0.361797
0.360141
0.358565
0.357067
0.355639
0.354277
0.352978
0.351739
0.350556
0.349427
0.348349
0.34732
0.373823
0.37155
0.369301
0.367174
0.365149
0.363299
0.361557
0.359962
0.358427
0.356986
0.3556
0.354272
0.352995
0.35177
0.350593
0.349469
0.348388
0.347357
0.3737
0.371382
0.368713
0.366037
0.363676
0.361618
0.360091
0.358658
0.357369
0.356228
0.355065
0.353931
0.352771
0.351605
0.350463
0.349356
0.348258
0.347207
0.373278
0.370495
0.366314
0.360789
0.357499
0.352925
0.354123
0.350164
0.351477
0.351769
0.351816
0.351872
0.351155
0.350333
0.349488
0.348524
0.347433
0.346351
0.373992
0.366995
0.354856
0.346378
0.342497
0.33446
0.337472
0.331081
0.329694
0.329966
0.336677
0.34373
0.341139
0.343695
0.345385
0.34553
0.344843
0.34385
0.376914
0.355045
0.321856
0.301853
0.29539
0.284655
0.278049
0.275255
0.29551
0.29523
0.312972
0.314982
0.324937
0.336556
0.335359
0.338398
0.339817
0.339316
0.380901
0.311944
0.217409
0.149163
0.123754
0.117678
0.149486
0.186156
0.247682
0.262899
0.28656
0.317289
0.317976
0.329346
0.341679
0.348215
0.348546
0.350238
0.432495
0.284909
0.239586
0.185033
0.20384
0.205717
0.202982
0.24045
0.307886
0.376732
0.434865
0.479171
0.520105
0.552161
0.582668
0.605013
0.624556
0.638817
0.960843
1.25876
1.4526
1.55683
1.59654
1.58999
1.56521
1.52898
1.48625
1.44588
1.4098
1.37775
1.34923
1.32421
1.30205
1.28305
1.2659
1.25134
4.25618e-06
8.97062e-05
0.000396109
0.00141123
0.00402495
0.00785226
0.0122958
0.0169365
0.0214762
0.0259388
0.0302206
0.0342362
0.0379451
0.0413534
0.0444556
0.0472402
0.0497001
0.0519086
0.0535529
0.0558049
0.0548669
0.0546581
0.0551922
0.0550383
0.0542125
0.0537297
0.0502236
0.048923
0.0476481
0.045642
0.0407137
0.0395287
0.0344039
0.0329251
0.0283764
0.0275751
0.0256523
0.023665
0.0218411
0.0202908
0.0191043
0.0182912
0.0178027
0.017546
0.0174535
0.0174488
0.0174413
0.0172758
0.0169695
0.0164843
0.015865
0.0150726
0.0141955
0.0132131
0.0121873
0.0111463
0.01015
0.00925055
0.00848806
0.00791365
0.00755859
0.00742691
0.00736536
0.00744585
0.00723887
0.00697811
0.00624556
0.00606158
0.00680927
0.00865438
0.0184374
0.0555084
0.121017
0.116927
0.143873
0.17381
0.20018
0.248748
0.274565
0.307581
0.332075
0.356608
0.376551
0.394595
0.409823
0.422765
0.433456
0.441069
0.442994
0.456965
0.465314
0.471444
0.477808
0.480994
0.482263
0.480549
0.486917
0.484205
0.489008
0.487688
0.489241
0.493196
0.491689
0.492672
0.495546
0.493529
0.493941
0.495945
0.492939
0.492913
0.494708
0.490931
0.492047
0.48687
0.486977
0.486662
0.482454
0.481485
0.480663
0.480483
0.481584
0.476911
0.476731
0.479777
0.474916
0.470533
0.473557
0.465963
0.466499
0.466942
0.472176
0.468609
0.471842
0.483904
0.481176
0.48465
0.486475
0.487669
0.485347
0.478369
0.48271
0.497613
0.491224
0.496686
0.515095
0.509634
0.522077
0.525562
0.551255
0.553584
0.563533
0.568202
0.566618
0.574603
0.583822
0.592982
0.616718
0.61359
0.641753
0.63772
0.642249
0.678667
0.680175
0.694355
0.70504
0.712934
0.755913
0.762777
0.780271
0.794746
0.809108
0.824474
0.834845
0.852469
0.854548
0.829655
0.790227
0.749397
0.712505
0.618056
7.97055e-06
0.000237983
0.00191734
0.00799103
0.0207502
0.0363093
0.052332
0.0673273
0.0806486
0.0921737
0.102004
0.110301
0.117254
0.123026
0.127748
0.131535
0.134498
0.136733
0.138292
0.139287
0.13959
0.139518
0.139365
0.138363
0.135903
0.133164
0.129421
0.125313
0.120904
0.116256
0.111172
0.106385
0.101467
0.0969903
0.0926765
0.0890268
0.0859773
0.0836332
0.0821147
0.0813688
0.0813107
0.0820701
0.0827819
0.0833503
0.0838316
0.083878
0.0836346
0.0823382
0.0806691
0.0785694
0.0761284
0.0734036
0.0704203
0.0673115
0.0642158
0.0612872
0.0587335
0.0567678
0.0555603
0.0552588
0.0556152
0.0566146
0.0577976
0.0587339
0.0583276
0.0567291
0.0570107
0.063927
0.0811845
0.111885
0.162996
0.220272
0.25737
0.289076
0.328796
0.376051
0.422706
0.482422
0.537633
0.596172
0.651802
0.704531
0.753598
0.797265
0.836854
0.8711
0.901394
0.927397
0.950155
0.970206
0.987338
1.00176
1.014
1.02396
1.03216
1.03915
1.04499
1.0495
1.05326
1.05578
1.05794
1.06085
1.06231
1.06384
1.06469
1.0649
1.06403
1.06326
1.06107
1.05816
1.05478
1.05067
1.04632
1.04206
1.03844
1.0341
1.02942
1.02453
1.01864
1.01333
1.00634
0.998826
0.991636
0.985753
0.979048
0.97245
0.966546
0.960243
0.95731
0.948009
0.938685
0.935529
0.93465
0.937078
0.942907
0.936193
0.947293
0.943588
0.964428
0.960922
0.961236
0.994301
0.994312
1.00521
1.0124
1.02065
1.03246
1.04561
1.06164
1.07772
1.09454
1.11212
1.12993
1.14884
1.16867
1.18886
1.2121
1.23594
1.26425
1.29368
1.32903
1.36975
1.41353
1.46437
1.52038
1.58228
1.64944
1.71397
1.77839
1.84279
1.90754
1.96849
2.0133
2.03645
2.02373
1.96734
1.88563
1.78839
1.68571
1.56396
2.83577e-05
0.000839972
0.00615721
0.0215049
0.0447453
0.0682168
0.0900466
0.109333
0.126043
0.140396
0.152668
0.16312
0.171985
0.179457
0.185702
0.190868
0.195083
0.198449
0.201058
0.202983
0.204288
0.20507
0.205408
0.205302
0.204315
0.202721
0.200246
0.197276
0.193824
0.189941
0.185699
0.181248
0.176697
0.172212
0.167924
0.163984
0.160486
0.157498
0.15505
0.153072
0.151443
0.150018
0.148531
0.14685
0.144854
0.142453
0.139599
0.136278
0.132581
0.128604
0.124473
0.120315
0.11628
0.112551
0.109317
0.106828
0.105397
0.105409
0.106928
0.110372
0.115674
0.122445
0.130492
0.13982
0.151047
0.166335
0.190602
0.227335
0.2716
0.316155
0.354546
0.389041
0.431871
0.49266
0.567335
0.65115
0.74142
0.831789
0.920635
1.00415
1.08075
1.14947
1.21042
1.26373
1.31036
1.35084
1.38608
1.41664
1.44326
1.4664
1.48634
1.50373
1.51877
1.53163
1.54257
1.5521
1.56051
1.56742
1.57319
1.57824
1.58217
1.58509
1.58805
1.58911
1.59009
1.59043
1.58973
1.5878
1.58494
1.58158
1.57708
1.57245
1.56697
1.56153
1.5557
1.54943
1.54238
1.53472
1.52586
1.51747
1.50818
1.49872
1.48933
1.48053
1.47201
1.46357
1.45498
1.44602
1.43744
1.42789
1.41745
1.40732
1.39864
1.39932
1.39388
1.38754
1.39006
1.3831
1.38417
1.39376
1.38754
1.39401
1.40453
1.42854
1.43029
1.43759
1.4453
1.45283
1.46484
1.47557
1.48751
1.50112
1.51387
1.52862
1.54159
1.5562
1.57241
1.591
1.61328
1.63987
1.67239
1.71125
1.75633
1.80911
1.86819
1.93393
2.0053
2.07802
2.15067
2.22218
2.28932
2.3438
2.36893
2.36264
2.34291
2.30153
2.23827
2.15348
2.05994
1.92617
0.000108706
0.0030066
0.01787
0.0501843
0.0830077
0.111673
0.135828
0.156082
0.17316
0.187653
0.200009
0.21057
0.219601
0.227309
0.233861
0.2394
0.244043
0.247894
0.251045
0.253561
0.255498
0.256905
0.257825
0.258244
0.258186
0.257667
0.256289
0.254256
0.251752
0.248784
0.245416
0.241736
0.237852
0.233877
0.229926
0.226091
0.222439
0.218985
0.21571
0.212544
0.20938
0.206091
0.202554
0.198673
0.1944
0.189725
0.184687
0.179366
0.17389
0.168409
0.163102
0.158172
0.153854
0.150414
0.148161
0.147483
0.148843
0.152763
0.159789
0.170216
0.183975
0.201011
0.221607
0.246043
0.275332
0.309679
0.34537
0.377278
0.405294
0.436257
0.480789
0.545611
0.628651
0.728403
0.834301
0.942924
1.04983
1.15243
1.24946
1.33924
1.4216
1.49631
1.56354
1.62366
1.67723
1.7249
1.76722
1.80463
1.83762
1.8669
1.89256
1.91546
1.93566
1.95353
1.96936
1.98327
1.99558
2.00631
2.01576
2.02407
2.03117
2.03703
2.04185
2.04482
2.04754
2.04859
2.04849
2.04677
2.04458
2.04171
2.03772
2.03314
2.02757
2.02145
2.01459
2.00688
1.99825
1.98886
1.97889
1.96876
1.95797
1.94692
1.93581
1.92455
1.91312
1.9015
1.88969
1.87793
1.86617
1.85438
1.84164
1.83029
1.81915
1.81079
1.80159
1.79329
1.78631
1.77797
1.76953
1.76658
1.76281
1.76156
1.76903
1.77267
1.77162
1.7696
1.77727
1.7725
1.7844
1.78463
1.78973
1.80431
1.80597
1.82287
1.82693
1.83255
1.83793
1.8441
1.85198
1.86299
1.87855
1.89847
1.92477
1.95876
2.00306
2.05411
2.1125
2.17499
2.24109
2.30922
2.36734
2.40621
2.42322
2.42565
2.41661
2.39071
2.34861
2.28872
2.21763
2.11371
0.000414843
0.00966908
0.0457516
0.0923813
0.129704
0.159154
0.182834
0.202328
0.218659
0.232497
0.244307
0.254431
0.263129
0.270602
0.277019
0.28252
0.287225
0.291237
0.29464
0.297497
0.299856
0.30175
0.303201
0.304215
0.304794
0.304902
0.304515
0.303452
0.301827
0.299734
0.29721
0.294311
0.291111
0.287685
0.284104
0.280412
0.27663
0.27274
0.268695
0.264423
0.259851
0.2549
0.249517
0.243679
0.237412
0.230785
0.223923
0.21699
0.210196
0.203771
0.197983
0.193129
0.18956
0.187687
0.187883
0.190804
0.197084
0.207251
0.221869
0.241218
0.265263
0.293532
0.324909
0.35841
0.390632
0.418284
0.440561
0.464618
0.502243
0.561734
0.643371
0.745584
0.857894
0.974483
1.09013
1.20329
1.31244
1.41707
1.51648
1.61013
1.69795
1.77947
1.85454
1.92316
1.98553
2.04198
2.09295
2.13879
2.17992
2.21678
2.24976
2.27933
2.30577
2.32943
2.35059
2.36948
2.38633
2.40129
2.4146
2.42639
2.43672
2.44557
2.45305
2.4592
2.46428
2.46761
2.46882
2.46761
2.46616
2.46401
2.46081
2.45666
2.45145
2.44529
2.43814
2.42998
2.42081
2.41074
2.39993
2.3885
2.37637
2.36371
2.35065
2.33714
2.32319
2.30884
2.2941
2.2791
2.26378
2.24815
2.23202
2.21672
2.20179
2.18762
2.17352
2.16013
2.14748
2.13545
2.1243
2.11462
2.10528
2.09604
2.08979
2.08721
2.08039
2.07618
2.07301
2.06631
2.06847
2.06776
2.07126
2.07032
2.07491
2.07582
2.07231
2.06725
2.05907
2.04782
2.03382
2.01728
2.0004
1.9913
1.98774
1.99323
2.00761
2.03107
2.06566
2.10899
2.1604
2.21042
2.25003
2.28143
2.30986
2.33205
2.34764
2.35062
2.3405
2.30699
2.261
2.1914
0.00142402
0.0257013
0.0875985
0.138246
0.175048
0.20331
0.225951
0.244599
0.260221
0.273448
0.28472
0.294368
0.30265
0.309777
0.315929
0.321257
0.32589
0.329936
0.333476
0.336574
0.339273
0.3416
0.343565
0.345162
0.346376
0.347179
0.347521
0.347371
0.346714
0.345512
0.343832
0.341704
0.339172
0.336269
0.333015
0.329409
0.325426
0.321019
0.316144
0.310751
0.304804
0.298284
0.291209
0.283634
0.275662
0.267446
0.259196
0.251174
0.24368
0.23704
0.231644
0.227909
0.226428
0.227111
0.231271
0.239481
0.252198
0.269748
0.292051
0.318562
0.348203
0.379609
0.410623
0.438014
0.460468
0.482095
0.511405
0.55923
0.631351
0.726805
0.83838
0.956923
1.07603
1.19359
1.30837
1.42019
1.52948
1.63595
1.73898
1.83793
1.93226
2.02131
2.10466
2.18209
2.25356
2.31917
2.37915
2.4338
2.4834
2.52831
2.56891
2.60557
2.63866
2.6685
2.69538
2.71957
2.74131
2.7608
2.77825
2.79382
2.80762
2.81968
2.8301
2.83897
2.84634
2.8522
2.85576
2.85704
2.85623
2.85499
2.85276
2.84939
2.84479
2.83898
2.83196
2.82374
2.81433
2.80383
2.79233
2.77986
2.76648
2.75231
2.73743
2.72183
2.70555
2.68861
2.67098
2.65284
2.6342
2.61507
2.59548
2.57603
2.55652
2.53676
2.51706
2.49779
2.47904
2.46094
2.44364
2.42726
2.4116
2.39657
2.38286
2.37088
2.35791
2.34644
2.336
2.3258
2.31872
2.31196
2.30717
2.30072
2.29535
2.28704
2.27383
2.25652
2.23224
2.19954
2.15837
2.11088
2.0595
2.00506
1.95485
1.91855
1.89795
1.8885
1.89994
1.9272
1.96118
1.99332
2.0245
2.05824
2.09485
2.13242
2.17001
2.20035
2.22466
2.22743
2.21657
2.18586
0.00404144
0.0547347
0.129969
0.179828
0.215502
0.242873
0.264818
0.282868
0.297937
0.310626
0.321369
0.330499
0.338296
0.344994
0.350794
0.355867
0.360351
0.36436
0.36798
0.371275
0.374284
0.377027
0.379506
0.381704
0.383598
0.385152
0.386331
0.387106
0.387398
0.387087
0.386269
0.384899
0.383013
0.380599
0.377625
0.374028
0.369733
0.364656
0.358805
0.352193
0.344842
0.336801
0.328163
0.319066
0.309703
0.300317
0.291217
0.282752
0.275279
0.269217
0.265172
0.26375
0.264329
0.268849
0.277842
0.291243
0.308976
0.330708
0.355714
0.383149
0.411548
0.438855
0.463202
0.48591
0.512248
0.550708
0.609465
0.691549
0.794354
0.909299
1.02844
1.14671
1.26255
1.37694
1.49013
1.6022
1.71315
1.82257
1.9298
2.03406
2.13453
2.23055
2.32156
2.40716
2.48716
2.56147
2.63014
2.69331
2.75119
2.80406
2.85223
2.89606
2.93588
2.97202
3.00477
3.03443
3.06125
3.08545
3.10724
3.12679
3.14423
3.15964
3.17312
3.18474
3.19454
3.20258
3.20872
3.21244
3.2139
3.21336
3.21208
3.20958
3.20565
3.20027
3.19346
3.18524
3.17562
3.16469
3.1525
3.13904
3.12442
3.10876
3.09213
3.07454
3.05605
3.03661
3.01602
2.99468
2.97266
2.94996
2.9267
2.90312
2.87922
2.85476
2.83003
2.80526
2.7806
2.75618
2.73212
2.7085
2.68532
2.66287
2.64125
2.62029
2.59907
2.57849
2.55849
2.53894
2.5206
2.50217
2.48397
2.46468
2.44459
2.42151
2.39365
2.35918
2.31647
2.26343
2.19857
2.123
2.03529
1.94156
1.849
1.76962
1.71989
1.69357
1.69567
1.71496
1.73969
1.76637
1.79428
1.82575
1.86318
1.90668
1.9557
2.00424
2.05012
2.08587
2.10567
2.10916
0.00851315
0.0890158
0.166804
0.21623
0.251485
0.278538
0.30015
0.317797
0.332377
0.344504
0.35464
0.363157
0.370367
0.376535
0.381886
0.386608
0.390854
0.394745
0.398373
0.401801
0.405066
0.408179
0.411134
0.413908
0.416467
0.41877
0.420775
0.422438
0.423711
0.424509
0.424629
0.423889
0.422602
0.420645
0.417921
0.414299
0.409637
0.403872
0.397029
0.38918
0.38042
0.370877
0.360738
0.350248
0.339713
0.329506
0.320047
0.311742
0.304912
0.300045
0.297982
0.297789
0.300851
0.30875
0.320661
0.336315
0.355385
0.377481
0.40158
0.426537
0.451716
0.476782
0.50408
0.538513
0.587403
0.65554
0.743993
0.84828
0.961989
1.0782
1.19315
1.30697
1.42002
1.53286
1.64577
1.75882
1.87177
1.98404
2.09488
2.20354
2.30925
2.41128
2.50898
2.60182
2.68944
2.77159
2.8482
2.91929
2.98497
3.04543
3.10093
3.15176
3.19824
3.24068
3.27936
3.31459
3.34661
3.37565
3.40193
3.42563
3.44687
3.46579
3.48246
3.49696
3.50936
3.51969
3.52798
3.53412
3.53768
3.53899
3.53843
3.53679
3.53352
3.52854
3.5219
3.51361
3.50372
3.49229
3.47934
3.46472
3.44864
3.43127
3.41269
3.39292
3.37201
3.34997
3.32665
3.30227
3.2769
3.25055
3.22333
3.19536
3.16668
3.13747
3.10758
3.07711
3.04617
3.01487
2.98327
2.9514
2.91927
2.88692
2.85438
2.82158
2.78818
2.7545
2.72058
2.6864
2.65212
2.61706
2.58107
2.54342
2.50382
2.46092
2.41314
2.35844
2.29533
2.22167
2.13575
2.0372
1.92716
1.81133
1.69796
1.60205
1.53604
1.5127
1.51522
1.53372
1.5569
1.57995
1.60398
1.6308
1.66359
1.70478
1.75522
1.81063
1.86784
1.91938
1.96066
1.99399
0.0136086
0.119002
0.198729
0.248846
0.284325
0.311355
0.332747
0.349995
0.364032
0.375515
0.384947
0.39274
0.399244
0.404758
0.409536
0.413785
0.417672
0.421329
0.424854
0.428309
0.431726
0.43511
0.438447
0.441706
0.444845
0.447816
0.450565
0.453036
0.455171
0.456896
0.458047
0.458333
0.457437
0.455891
0.453444
0.449926
0.44511
0.438982
0.431528
0.422845
0.413087
0.402459
0.391236
0.379743
0.368326
0.357464
0.347673
0.339413
0.332983
0.329322
0.328078
0.328232
0.332544
0.341789
0.354642
0.370877
0.38981
0.411046
0.434345
0.460077
0.489413
0.524277
0.568534
0.626773
0.701384
0.791227
0.892907
1.00126
1.11259
1.22404
1.3348
1.44544
1.55652
1.66842
1.78132
1.89516
2.00949
2.12372
2.23719
2.34923
2.45904
2.56588
2.66901
2.76784
2.86189
2.95081
3.03441
3.11261
3.18542
3.25294
3.31536
3.37291
3.42586
3.47449
3.51908
3.5599
3.59719
3.6312
3.66212
3.69013
3.71538
3.73797
3.75801
3.77558
3.79074
3.80354
3.81402
3.82218
3.8279
3.83085
3.83169
3.83096
3.82839
3.82374
3.81719
3.80878
3.79854
3.78652
3.77276
3.75718
3.73988
3.72097
3.70054
3.67864
3.65526
3.63048
3.60446
3.57704
3.5482
3.51798
3.48641
3.45355
3.4194
3.384
3.34732
3.30944
3.27043
3.23035
3.18923
3.14709
3.10394
3.0598
3.01467
2.96851
2.9212
2.87285
2.82351
2.77321
2.72195
2.66927
2.61552
2.55996
2.50197
2.44089
2.37566
2.30474
2.2267
2.1395
2.04128
1.93082
1.80975
1.68306
1.55898
1.45661
1.38989
1.37093
1.37435
1.39034
1.40884
1.4286
1.45037
1.47494
1.50397
1.5396
1.58667
1.64253
1.70327
1.7641
1.81606
1.86583
0.0190802
0.141713
0.225796
0.277743
0.314123
0.341474
0.362784
0.379669
0.393145
0.403925
0.412569
0.419537
0.425225
0.429971
0.434055
0.437703
0.441101
0.444393
0.447679
0.451021
0.454446
0.457954
0.461523
0.465113
0.468676
0.472154
0.475485
0.478602
0.481433
0.483897
0.485893
0.487153
0.487324
0.485962
0.483912
0.480804
0.476486
0.470774
0.463567
0.45502
0.445348
0.43479
0.42363
0.41219
0.400707
0.389667
0.379624
0.371181
0.36497
0.361637
0.360594
0.360835
0.36587
0.375974
0.389455
0.4064
0.426939
0.451445
0.48066
0.515831
0.558447
0.610655
0.674519
0.75067
0.837555
0.933115
1.03489
1.14004
1.24654
1.35333
1.46045
1.56839
1.67759
1.78833
1.90072
2.01449
2.12916
2.24428
2.35926
2.47342
2.58601
2.69627
2.80346
2.90694
3.00614
3.10066
3.19019
3.27457
3.35371
3.42764
3.49645
3.56031
3.61944
3.67407
3.72445
3.77083
3.81343
3.85248
3.88816
3.92063
3.95005
3.97651
4.00009
4.0209
4.039
4.05446
4.0673
4.07746
4.08504
4.08984
4.0922
4.09235
4.09054
4.08651
4.08033
4.07203
4.06163
4.04916
4.03466
4.01827
3.99994
3.97965
3.95744
3.93335
3.90737
3.87954
3.8499
3.81842
3.78509
3.74992
3.71294
3.67418
3.63364
3.59132
3.54723
3.50139
3.45384
3.40463
3.35375
3.30122
3.24706
3.19126
3.13383
3.07474
3.01397
2.95159
2.88764
2.82221
2.75518
2.68727
2.6176
2.54624
2.47304
2.39767
2.31949
2.2374
2.14989
2.05482
1.94974
1.83199
1.7037
1.56985
1.43698
1.33112
1.26963
1.25135
1.25352
1.26537
1.28082
1.29893
1.31975
1.34356
1.37146
1.40494
1.44771
1.50223
1.56344
1.62881
1.68595
1.74898
0.0238768
0.161348
0.250134
0.303989
0.341266
0.368951
0.390213
0.406759
0.419675
0.429739
0.437567
0.443674
0.448503
0.452425
0.455746
0.458715
0.461536
0.46436
0.467293
0.470397
0.473698
0.477192
0.480851
0.484625
0.488461
0.492293
0.496056
0.499677
0.503076
0.506161
0.508828
0.510928
0.512333
0.512655
0.511123
0.509135
0.506171
0.501973
0.496465
0.489969
0.482606
0.474497
0.465851
0.456958
0.448186
0.439908
0.432415
0.426025
0.421193
0.418721
0.418042
0.419235
0.426353
0.437648
0.453117
0.473358
0.499174
0.531333
0.570383
0.617137
0.672199
0.736017
0.808726
0.88972
0.977737
1.07131
1.16885
1.26884
1.37024
1.4726
1.57609
1.68108
1.78789
1.89675
2.0076
2.12014
2.23401
2.3488
2.46397
2.57889
2.69285
2.8051
2.91493
3.02167
3.12471
3.22359
3.31793
3.40746
3.49205
3.57162
3.64619
3.71586
3.78078
3.84113
3.89711
3.94894
3.9968
4.04089
4.08138
4.11843
4.15216
4.18265
4.2099
4.23408
4.25527
4.27352
4.28887
4.30128
4.31085
4.31763
4.32156
4.32302
4.3221
4.31899
4.31347
4.30551
4.29511
4.28228
4.26703
4.24943
4.22948
4.20719
4.18259
4.15571
4.12657
4.0952
4.06163
4.02585
3.98786
3.94767
3.90529
3.86073
3.814
3.76508
3.71396
3.66064
3.60514
3.54744
3.48757
3.4255
3.36124
3.29478
3.22612
3.15526
3.08224
3.00712
2.92998
2.85094
2.7706
2.68863
2.60512
2.52032
2.43436
2.34715
2.25819
2.16649
2.06997
1.96611
1.8515
1.72094
1.57982
1.43717
1.30764
1.21239
1.16083
1.14403
1.14522
1.15477
1.16868
1.18616
1.20676
1.23053
1.25818
1.29106
1.33158
1.3851
1.44634
1.51407
1.57461
1.64382
0.0282326
0.178437
0.271234
0.326957
0.365198
0.393294
0.414575
0.430851
0.443279
0.452703
0.459798
0.465126
0.469171
0.472334
0.474939
0.477262
0.479521
0.481877
0.484443
0.487286
0.490436
0.493895
0.497632
0.501597
0.505726
0.509951
0.514215
0.518458
0.522614
0.526608
0.530355
0.533757
0.536708
0.539003
0.540818
0.542255
0.543371
0.543567
0.541627
0.540328
0.539037
0.537533
0.535873
0.53423
0.532834
0.531947
0.531814
0.532183
0.532051
0.532182
0.535433
0.541582
0.551294
0.564881
0.582985
0.606376
0.63575
0.672104
0.715375
0.765784
0.823298
0.887835
0.958916
1.03686
1.12062
1.209
1.30089
1.39531
1.49154
1.58917
1.68846
1.78972
1.89318
1.99893
2.1069
2.21687
2.32857
2.44164
2.55557
2.66979
2.78363
2.89641
3.00742
3.11599
3.22152
3.32348
3.42143
3.51505
3.60411
3.68846
3.76804
3.84289
3.91308
3.97877
4.04007
4.09714
4.1501
4.19913
4.24439
4.28601
4.32409
4.35869
4.3898
4.41758
4.44207
4.46332
4.48137
4.49632
4.50818
4.51695
4.52264
4.52543
4.52551
4.52299
4.51775
4.50973
4.49893
4.48535
4.46903
4.45001
4.42832
4.40398
4.377
4.34744
4.31532
4.28065
4.24347
4.20377
4.16154
4.1168
4.06955
4.01979
3.9675
3.91267
3.85527
3.79527
3.73265
3.6674
3.59948
3.52888
3.45558
3.37956
3.30081
3.21936
3.1353
3.0487
2.95974
2.86831
2.77594
2.68138
2.58533
2.4882
2.3902
2.29132
2.1908
2.08748
1.97798
1.85918
1.72999
1.58876
1.44247
1.30213
1.18456
1.1043
1.06149
1.04668
1.04747
1.05571
1.06899
1.08644
1.10731
1.13147
1.15949
1.19269
1.23315
1.28582
1.34735
1.41675
1.48021
1.55282
0.031931
0.192589
0.288764
0.346151
0.385291
0.413807
0.435177
0.451299
0.463401
0.472382
0.478963
0.483749
0.487247
0.489877
0.491988
0.493874
0.495767
0.497839
0.500216
0.502977
0.50617
0.509812
0.513893
0.518367
0.523163
0.528223
0.533505
0.538988
0.54466
0.550507
0.556514
0.562665
0.568951
0.575387
0.582062
0.58905
0.596328
0.60361
0.61128
0.619569
0.628465
0.637767
0.647435
0.657443
0.667738
0.678223
0.688883
0.699534
0.710226
0.72153
0.733743
0.747175
0.762425
0.780024
0.8006
0.824881
0.85365
0.887452
0.926187
0.969904
1.0182
1.07297
1.1346
1.20405
1.27988
1.36061
1.44514
1.53255
1.62207
1.71346
1.8072
1.90336
2.00191
2.1028
2.20614
2.31185
2.41971
2.52938
2.64043
2.75231
2.86444
2.97615
3.08679
3.1957
3.30227
3.40595
3.50625
3.60279
3.69525
3.7834
3.86711
3.94638
4.02121
4.09168
4.15784
4.21978
4.27755
4.33132
4.38121
4.42731
4.46968
4.5084
4.54353
4.57506
4.60299
4.62734
4.64813
4.66539
4.67916
4.68948
4.69642
4.70013
4.70078
4.6987
4.69365
4.68556
4.67439
4.66016
4.64291
4.62266
4.59947
4.57335
4.54434
4.51247
4.47777
4.44026
4.39994
4.35684
4.31093
4.26222
4.21071
4.15638
4.0992
4.03915
3.97618
3.91025
3.84131
3.76932
3.69424
3.61602
3.53462
3.45
3.36214
3.2711
3.17702
3.07991
2.97971
2.87807
2.77361
2.66699
2.55857
2.44884
2.33774
2.2252
2.10949
1.98938
1.86439
1.73241
1.59301
1.4464
1.30275
1.17284
1.07221
1.00653
0.970207
0.95816
0.958764
0.966522
0.979865
0.997669
1.0191
1.04392
1.0727
1.10659
1.14756
1.20024
1.26262
1.33357
1.39988
1.47497
0.0349071
0.203584
0.302295
0.360948
0.400801
0.429696
0.451226
0.467364
0.479387
0.488237
0.494668
0.499305
0.502666
0.505182
0.507224
0.509099
0.511053
0.513276
0.515911
0.519065
0.522815
0.527208
0.532259
0.537946
0.544231
0.551071
0.558449
0.566407
0.574994
0.584301
0.59442
0.605455
0.617439
0.630477
0.644705
0.660224
0.677025
0.695088
0.714523
0.735341
0.757393
0.780692
0.805071
0.830281
0.856034
0.882015
0.90792
0.93345
0.958411
0.982781
1.0066
1.03001
1.05334
1.07698
1.10139
1.12707
1.15445
1.18339
1.21447
1.24779
1.283
1.32418
1.37303
1.42904
1.49109
1.55818
1.62951
1.70437
1.78232
1.86345
1.94796
2.03584
2.12644
2.21967
2.31588
2.41509
2.51698
2.6212
2.72738
2.83503
2.94361
3.05249
3.16107
3.26869
3.37475
3.47868
3.57993
3.67807
3.77269
3.86348
3.95029
4.03303
4.11165
4.18611
4.25644
4.32266
4.38484
4.44303
4.49725
4.54753
4.59391
4.6364
4.67501
4.70973
4.74056
4.76749
4.79054
4.80973
4.8251
4.8367
4.8446
4.84897
4.84997
4.84838
4.84368
4.83565
4.82428
4.8096
4.79162
4.7704
4.74598
4.71839
4.68766
4.65383
4.61693
4.57696
4.53395
4.48788
4.43876
4.38657
4.3313
4.27293
4.21141
4.14671
4.07876
4.0075
3.93288
3.85484
3.77329
3.68818
3.59943
3.50698
3.41077
3.31086
3.2071
3.10011
2.99078
2.87768
2.76125
2.6421
2.52007
2.39575
2.26802
2.1369
2.00359
1.86802
1.72972
1.58783
1.44358
1.29864
1.16505
1.05139
0.97024
0.91578
0.88545
0.876333
0.877454
0.885588
0.899426
0.917819
0.939939
0.96554
0.995101
1.02981
1.0716
1.12511
1.18877
1.26139
1.33047
1.40778
0.0370683
0.211116
0.311351
0.370739
0.411034
0.440226
0.461988
0.478341
0.490597
0.499719
0.506472
0.51148
0.51526
0.518251
0.520835
0.523332
0.526005
0.529071
0.532705
0.537055
0.54224
0.548343
0.555409
0.563441
0.57244
0.582427
0.593472
0.605662
0.619062
0.633853
0.650224
0.668309
0.688184
0.710023
0.733974
0.760124
0.788557
0.819385
0.85263
0.888221
0.925997
0.965749
1.00717
1.04987
1.09341
1.13729
1.18102
1.22407
1.26599
1.30637
1.3449
1.38135
1.41564
1.44782
1.47799
1.50635
1.53324
1.55909
1.58463
1.61072
1.63836
1.66859
1.70185
1.73928
1.78136
1.82844
1.88043
1.93705
1.99809
2.06359
2.13363
2.20768
2.2852
2.36646
2.45167
2.54115
2.63406
2.73001
2.82873
2.92974
3.03251
3.13644
3.24093
3.34535
3.44905
3.55145
3.65195
3.75007
3.84537
3.93753
4.02627
4.11139
4.19272
4.27016
4.34365
4.41315
4.47865
4.54013
4.59756
4.65096
4.70032
4.74564
4.78691
4.82412
4.85723
4.88622
4.91109
4.93185
4.94851
4.9611
4.96969
4.97441
4.97551
4.97439
4.97012
4.96224
4.95076
4.93569
4.9171
4.89503
4.86952
4.84062
4.80837
4.7728
4.73393
4.69178
4.64635
4.59763
4.54561
4.49028
4.43161
4.36957
4.30412
4.23518
4.16268
4.08654
4.00669
3.92307
3.83554
3.74402
3.64834
3.54822
3.44371
3.3355
3.22337
3.10745
2.98678
2.86172
2.7318
2.598
2.45855
2.31458
2.16773
2.01921
1.87003
1.72132
1.57348
1.42728
1.28503
1.14996
1.03293
0.939025
0.87691
0.83229
0.807072
0.801116
0.803281
0.812279
0.826807
0.845829
0.868571
0.894896
0.925196
0.960755
1.00349
1.05837
1.12358
1.19795
1.26961
1.34909
0.0384089
0.215144
0.315771
0.375246
0.415649
0.445036
0.467114
0.483923
0.49677
0.506632
0.51426
0.520244
0.525096
0.529263
0.533136
0.537053
0.541307
0.546155
0.551826
0.558525
0.566422
0.575634
0.586223
0.598223
0.611707
0.626715
0.643362
0.661753
0.68199
0.704295
0.728896
0.755963
0.785723
0.818362
0.854034
0.892853
0.934901
0.980219
1.02878
1.08046
1.13508
1.19235
1.25191
1.31328
1.37595
1.43931
1.5027
1.56543
1.62677
1.68602
1.7425
1.79559
1.84477
1.88964
1.92993
1.96552
1.99649
2.02324
2.04655
2.06763
2.0881
2.10738
2.12557
2.14453
2.16555
2.18995
2.21877
2.25272
2.29221
2.33735
2.38776
2.44297
2.5031
2.56829
2.63886
2.71432
2.79377
2.87715
2.9646
3.05556
3.14939
3.24552
3.34327
3.44198
3.54097
3.63957
3.73715
3.83316
3.92709
4.01854
4.10714
4.19259
4.27463
4.35309
4.42785
4.4988
4.56588
4.62902
4.68817
4.74329
4.79435
4.84133
4.88422
4.92297
4.95754
4.98786
5.01392
5.03567
5.05311
5.06622
5.07503
5.0796
5.08045
5.07962
5.07558
5.06773
5.05599
5.04043
5.02111
4.9981
4.97146
4.94122
4.90743
4.87013
4.82933
4.78504
4.73726
4.68596
4.63114
4.57277
4.51082
4.44526
4.376
4.30296
4.22593
4.14486
4.0597
3.97037
3.87664
3.77879
3.6766
3.56953
3.4575
3.34126
3.21927
3.0912
2.95748
2.81782
2.66969
2.51574
2.35678
2.19418
2.02977
1.86584
1.70428
1.54758
1.39694
1.25456
1.12242
1.00514
0.909717
0.837607
0.78762
0.753901
0.734433
0.731712
0.735402
0.74541
0.760653
0.780159
0.803366
0.830238
0.861188
0.897534
0.941306
0.997867
1.06469
1.14078
1.21477
1.29643
0.0386105
0.214873
0.314895
0.373867
0.414047
0.443509
0.465964
0.483447
0.497251
0.508378
0.517448
0.524989
0.531536
0.537561
0.54347
0.549638
0.556413
0.564119
0.573067
0.583531
0.595711
0.609732
0.625663
0.643504
0.663296
0.68506
0.708978
0.735257
0.76416
0.795906
0.830673
0.868617
0.90991
0.95471
1.00315
1.05533
1.11133
1.17116
1.23479
1.30209
1.37289
1.4469
1.52375
1.60299
1.68405
1.76629
1.84896
1.93125
2.01227