/*--------------------------------*- C++ -*----------------------------------*\
  =========                 |
  \\      /  F ield         | OpenFOAM: The Open Source CFD Toolbox
   \\    /   O peration     | Website:  https://openfoam.org
    \\  /    A nd           | Version:  13
     \\/     M anipulation  |
\*---------------------------------------------------------------------------*/
FoamFile
{
    format      ascii;
    class       volScalarField;
    location    "200";
    object      nut;
}
// * * * * * * * * * * * * * * * * * * * * * * * * * * * * * * * * * * * * * //

dimensions      [0 2 -1 0 0 0 0];

internalField   nonuniform List<scalar> 
12225
(
2.31329e-06
2.51526e-05
2.15826e-05
2.025e-05
1.92973e-05
2.03005e-05
1.48807e-05
2.64905e-05
3.11831e-05
2.71391e-05
1.99538e-05
1.84811e-05
1.69782e-05
1.64988e-05
1.64236e-05
1.71171e-05
2.53159e-05
3.22692e-05
0.00023938
4.53846e-05
2.65077e-05
2.33496e-05
2.44141e-05
2.43182e-05
2.32562e-05
2.17681e-05
2.72098e-05
2.60967e-05
2.64694e-05
2.41604e-05
2.47944e-05
2.58584e-05
2.73189e-05
3.19882e-05
3.63246e-05
4.202e-05
0.00118505
0.000154481
6.39619e-05
3.39539e-05
1.82604e-05
1.68238e-05
1.50916e-05
1.12144e-05
1.27277e-05
1.30159e-05
1.35211e-05
1.41314e-05
1.59028e-05
1.78876e-05
1.93081e-05
2.17019e-05
2.36589e-05
2.58415e-05
0.000841405
0.00019263
0.000136581
0.000132389
7.84579e-05
5.30106e-05
3.67288e-05
3.27455e-05
2.00605e-05
1.89262e-05
1.77932e-05
1.79374e-05
1.92618e-05
1.95057e-05
1.90823e-05
1.78387e-05
1.75579e-05
1.77319e-05
0.0040217
0.000104989
0.000158343
0.000160628
0.000105382
8.47562e-05
6.29858e-05
3.61916e-05
3.50459e-05
3.39129e-05
3.01228e-05
2.89218e-05
3.22352e-05
3.39092e-05
3.3529e-05
3.15914e-05
2.89692e-05
2.81792e-05
0.00450932
0.000183383
0.000197278
0.000209965
0.000189462
0.000169792
0.00012853
0.00010673
7.6799e-05
7.35014e-05
7.30612e-05
7.27445e-05
6.72471e-05
6.54776e-05
6.81655e-05
6.76066e-05
6.76283e-05
6.70483e-05
0.00109522
0.000589894
0.000574304
0.000538777
0.000492648
0.000371314
0.000245852
0.000215265
0.000203303
0.000168743
0.000158772
0.00014742
0.000137788
0.00013099
0.000129929
0.000129308
0.000130523
0.000128138
0.000916038
0.000807421
0.000772952
0.000765938
0.00072689
0.000676705
0.000535547
0.000458872
0.000392876
0.000346734
0.000312493
0.000293529
0.000282166
0.000263853
0.00025317
0.000243534
0.000240732
0.000237154
0.000850975
0.000889733
0.000862954
0.000867667
0.000849227
0.00081576
0.000738354
0.000661156
0.000597051
0.000533963
0.000486937
0.000456857
0.000445068
0.000425799
0.000410627
0.000400267
0.000386431
0.000365337
0.000847973
0.000860693
0.000868943
0.000870491
0.000865739
0.000832569
0.000793461
0.000760909
0.00072578
0.000691785
0.000652896
0.000620416
0.000591234
0.000566576
0.000547151
0.000530099
0.000522615
0.000516901
0.000852685
0.000851246
0.000857448
0.000860527
0.000861546
0.000851963
0.00083548
0.000821436
0.000806105
0.000788904
0.00076843
0.000747297
0.000726933
0.000707315
0.000692344
0.000677481
0.000668304
0.000658507
0.000852034
0.000850097
0.000852098
0.000852484
0.000855289
0.00085463
0.000850118
0.000844363
0.000837428
0.000829438
0.000819923
0.000808966
0.000797732
0.000786237
0.00077654
0.000767278
0.000760759
0.000752737
0.000851748
0.000850485
0.00085006
0.00085
0.000850098
0.000849812
0.000848661
0.000847184
0.00084462
0.000843382
0.000840365
0.000836038
0.000831177
0.000825777
0.000820956
0.000816038
0.000812281
0.000808228
0.000851587
0.000850655
0.000849834
0.000849215
0.000848626
0.000848066
0.000847445
0.00084675
0.000845918
0.000845124
0.000844253
0.000842914
0.000841495
0.000839618
0.000838028
0.000836022
0.000834697
0.000832742
0.000851545
0.000850675
0.000849853
0.00084909
0.000848373
0.000847683
0.000847041
0.000846403
0.000845808
0.000845199
0.000844635
0.000843991
0.000843379
0.000842656
0.000842014
0.000841265
0.000840664
0.000839948
0.000851539
0.000850674
0.000849855
0.000849075
0.000848336
0.00084763
0.000846962
0.000846321
0.000845715
0.000845131
0.000844579
0.000844038
0.000843524
0.000843015
0.000842533
0.000842055
0.000841607
0.000841164
0.000851537
0.000850673
0.000849852
0.00084907
0.000848327
0.000847619
0.000846945
0.000846301
0.000845689
0.000845103
0.000844545
0.00084401
0.000843501
0.000843011
0.000842544
0.000842094
0.000841666
0.000841253
0.000851539
0.000850677
0.000849858
0.000849077
0.000848334
0.000847627
0.000846952
0.000846308
0.000845694
0.000845107
0.000844547
0.000844012
0.0008435
0.00084301
0.000842541
0.000842093
0.000841663
0.000841253
0.000851537
0.000850674
0.000849851
0.000849069
0.000848324
0.000847614
0.000846937
0.000846292
0.000845676
0.000845087
0.000844525
0.000843988
0.000843474
0.000842983
0.000842513
0.000842063
0.000841632
0.00084122
0.000851536
0.000850674
0.00084985
0.000849068
0.000848323
0.000847614
0.000846938
0.000846293
0.000845677
0.000845089
0.000844527
0.000843991
0.000843476
0.000842986
0.000842514
0.000842065
0.000841633
0.000841221
0.000851535
0.000850678
0.000849829
0.000849047
0.0008483
0.000847598
0.000846928
0.000846289
0.000845682
0.000845097
0.000844539
0.000844005
0.000843489
0.000843001
0.000842523
0.000842077
0.000841635
0.000841224
0.000851489
0.000850681
0.000849543
0.000848684
0.000847888
0.000847268
0.000846633
0.000846102
0.00084554
0.000844992
0.000844455
0.000843922
0.000843385
0.000842869
0.000842336
0.000841852
0.000841338
0.00084087
0.000850482
0.000852574
0.000849956
0.000845873
0.000843798
0.000843599
0.000843117
0.000843916
0.000843409
0.000843233
0.000842838
0.00084244
0.000841557
0.000840772
0.000839834
0.00083905
0.000837956
0.000837124
0.000851869
0.000850299
0.000839294
0.000825203
0.000811345
0.000811546
0.000814345
0.000824717
0.000819125
0.000822708
0.000826552
0.000828343
0.000822838
0.000821595
0.000820768
0.00081918
0.000816318
0.000813895
0.000850235
0.00083794
0.000763508
0.000692245
0.000652658
0.000648007
0.000679936
0.000664227
0.000648977
0.000683646
0.00073354
0.000721831
0.00073352
0.000743506
0.000742972
0.000739705
0.000732711
0.000726943
0.000901081
0.000748644
0.000534048
0.000368576
0.000358355
0.000337723
0.0003741
0.000369727
0.000367632
0.000401488
0.000482181
0.000483191
0.000501362
0.000532678
0.000542881
0.000543982
0.000536432
0.000529508
0.00502265
0.000242295
0.000177067
0.000165958
0.000146461
0.00010263
9.53997e-05
0.000114883
0.000134747
0.00013803
0.00017639
0.000216321
0.00025397
0.000259111
0.000267104
0.000276799
0.000275258
0.000272304
0.00291323
7.87193e-05
4.77914e-05
2.90069e-05
1.58545e-05
1.55936e-05
2.06665e-05
2.36004e-05
3.25902e-05
4.34668e-05
5.33618e-05
6.16067e-05
7.05216e-05
8.48204e-05
9.57184e-05
9.79067e-05
9.94021e-05
0.000100897
0.000115698
2.71789e-05
1.56016e-05
1.39421e-05
1.63096e-05
1.45011e-05
1.53161e-05
1.89328e-05
2.36194e-05
2.91417e-05
3.4366e-05
3.92318e-05
4.48479e-05
5.00797e-05
5.50784e-05
5.70533e-05
5.82127e-05
5.89525e-05
1.25574e-05
1.66054e-05
1.93858e-05
2.10508e-05
2.18803e-05
2.20797e-05
2.2013e-05
2.1763e-05
2.13907e-05
2.10219e-05
2.06882e-05
2.03886e-05
2.01188e-05
1.9882e-05
1.96719e-05
1.9497e-05
1.93402e-05
1.92134e-05
3.7129e-10
3.56793e-08
1.5741e-07
5.60322e-07
1.59668e-06
3.11219e-06
4.86899e-06
6.70061e-06
8.48893e-06
1.02435e-05
1.19234e-05
1.34951e-05
1.4943e-05
1.62699e-05
1.74737e-05
1.85503e-05
1.94973e-05
2.03438e-05
2.09675e-05
2.18275e-05
2.1439e-05
2.13359e-05
2.15224e-05
2.14403e-05
2.10967e-05
2.0887e-05
1.95034e-05
1.89782e-05
1.84638e-05
1.76673e-05
1.57425e-05
1.52675e-05
1.32734e-05
1.26886e-05
1.09234e-05
1.06028e-05
9.85223e-06
9.07847e-06
8.36902e-06
7.76587e-06
7.30311e-06
6.9839e-06
6.78921e-06
6.68319e-06
6.63982e-06
6.62983e-06
6.61875e-06
6.54769e-06
6.42347e-06
6.23183e-06
5.99e-06
5.68342e-06
5.34571e-06
4.9692e-06
4.57729e-06
4.18069e-06
3.80186e-06
3.46023e-06
3.17064e-06
2.95198e-06
2.81558e-06
2.76263e-06
2.73583e-06
2.76175e-06
2.68109e-06
2.58074e-06
2.30642e-06
2.23515e-06
2.50709e-06
3.18163e-06
6.76786e-06
2.03442e-05
4.42849e-05
3.30982e-05
3.46485e-05
3.46588e-05
3.4577e-05
3.83473e-05
3.86994e-05
4.03918e-05
4.12513e-05
4.23869e-05
4.32046e-05
4.39971e-05
4.4634e-05
4.51513e-05
4.5534e-05
4.56796e-05
4.53124e-05
4.62361e-05
4.66369e-05
4.68503e-05
4.71144e-05
4.70924e-05
4.69106e-05
4.64658e-05
4.68222e-05
4.63253e-05
4.6569e-05
4.62454e-05
4.62054e-05
4.64075e-05
4.61095e-05
4.60547e-05
4.61891e-05
4.58798e-05
4.58015e-05
4.58801e-05
4.55038e-05
4.54064e-05
4.54849e-05
4.50569e-05
4.50803e-05
4.45308e-05
4.44709e-05
4.43752e-05
4.39267e-05
4.37736e-05
4.36317e-05
4.35514e-05
4.35883e-05
4.3101e-05
4.30181e-05
4.3229e-05
4.2727e-05
4.22656e-05
4.24668e-05
4.17178e-05
4.16982e-05
4.16601e-05
4.20501e-05
4.16566e-05
4.18606e-05
4.28432e-05
4.25096e-05
4.27225e-05
4.27854e-05
4.27907e-05
4.24827e-05
4.17606e-05
4.20155e-05
4.31734e-05
4.2459e-05
4.27302e-05
4.40769e-05
4.33372e-05
4.4068e-05
4.39986e-05
4.57471e-05
4.5519e-05
4.59079e-05
4.58792e-05
4.53847e-05
4.57204e-05
4.6245e-05
4.68672e-05
4.87855e-05
4.87434e-05
5.13712e-05
5.16371e-05
5.27978e-05
5.6875e-05
5.83808e-05
6.14156e-05
6.48147e-05
6.8926e-05
7.80904e-05
8.59918e-05
9.3662e-05
9.43923e-05
9.50393e-05
9.5994e-05
9.60616e-05
9.82064e-05
9.98869e-05
9.92274e-05
9.65732e-05
9.41804e-05
9.23572e-05
8.43109e-05
6.95314e-10
1.09819e-07
1.7039e-06
8.81115e-06
2.46236e-05
4.54578e-05
6.88367e-05
9.23469e-05
0.000114134
0.000133198
0.000149169
0.000161893
0.000171814
0.000179368
0.000184552
0.000187751
0.000189362
0.000189669
0.000188852
0.00018716
0.000184585
0.000181523
0.000178623
0.000173721
0.000166267
0.000158438
0.000149759
0.000141274
0.000133157
0.000125453
0.000117946
0.00011151
0.00010549
0.000100484
9.64837e-05
9.29989e-05
9.07443e-05
8.96596e-05
8.98766e-05
9.12927e-05
9.37545e-05
9.73542e-05
0.000100943
0.000104239
0.000107102
0.000108682
0.000109412
0.000108464
0.00010681
0.000104462
0.000101563
9.82062e-05
9.39321e-05
8.95408e-05
8.48919e-05
8.04814e-05
7.66136e-05
7.35832e-05
7.15084e-05
7.01701e-05
6.93119e-05
6.68635e-05
6.55165e-05
6.0608e-05
5.49201e-05
4.66625e-05
3.941e-05
3.62134e-05
3.85808e-05
4.60142e-05
5.7627e-05
6.93308e-05
7.78354e-05
8.74634e-05
0.000103725
0.000123562
0.000142774
0.000166372
0.000195087
0.000222914
0.000254005
0.000282182
0.000311278
0.000336516
0.000360725
0.0003813
0.00039994
0.0004159
0.000430247
0.000442917
0.000453325
0.000462338
0.000470023
0.000477147
0.000483459
0.000488841
0.000492096
0.000494316
0.000495756
0.000496495
0.000495838
0.000499078
0.000497555
0.000499908
0.000501467
0.000500725
0.000498239
0.000498499
0.000497272
0.000497049
0.000494182
0.000490178
0.000486744
0.000485497
0.000484831
0.00048515
0.00048288
0.000479099
0.000472695
0.000473447
0.000468952
0.000463846
0.000456505
0.000453756
0.000449676
0.000448491
0.000446948
0.000438722
0.000439864
0.000431145
0.000426166
0.000422265
0.000420438
0.00041963
0.000421927
0.000415329
0.00041371
0.000408881
0.000416242
0.000411713
0.000411919
0.000421152
0.000409731
0.000414902
0.00041182
0.000403174
0.000406576
0.000411053
0.000412703
0.000419717
0.000424849
0.000429591
0.000437467
0.00044486
0.000451486
0.000458195
0.00046524
0.000471164
0.00047948
0.000487129
0.000495711
0.000507427
0.000518563
0.000532271
0.000546914
0.000562368
0.000581592
0.00059798
0.000614243
0.000629481
0.000646365
0.000663088
0.000673504
0.00068591
0.00069721
0.000701624
0.000690078
0.000673447
0.000641992
0.000595159
2.4738e-09
3.43631e-07
4.32178e-06
1.93111e-05
4.96158e-05
8.89508e-05
0.000134816
0.000182491
0.000228771
0.000271406
0.000309118
0.000341277
0.000367709
0.000388552
0.000403987
0.00041465
0.000422174
0.000426239
0.000427345
0.000426019
0.000422684
0.000417755
0.000411577
0.000403792
0.000393607
0.000381981
0.000368771
0.000355104
0.000341316
0.000327733
0.000314642
0.000302489
0.000291462
0.00028188
0.000274039
0.000267826
0.000263081
0.000260522
0.000260225
0.000261483
0.000263908
0.000267016
0.000270045
0.000272476
0.000273772
0.000273468
0.000271422
0.000267654
0.000262387
0.000255872
0.000248364
0.000240084
0.000230947
0.000221999
0.000212565
0.000203273
0.000194571
0.000186731
0.00017916
0.000171593
0.000162713
0.000151183
0.000139212
0.000128268
0.000116669
0.000106991
0.00010057
0.000102804
0.000110884
0.000122692
0.000138265
0.000150766
0.000170299
0.000205634
0.000254889
0.000313718
0.000384387
0.000449098
0.000522844
0.000588235
0.000653507
0.000709974
0.000762422
0.000807003
0.000846863
0.000880661
0.000910292
0.000935631
0.000957506
0.00097676
0.000992812
0.00100764
0.00102136
0.00103392
0.00104047
0.00104189
0.00105187
0.00105478
0.00105151
0.00105673
0.00106135
0.00106141
0.00105496
0.00105803
0.00106006
0.00105251
0.0010566
0.00105316
0.00104295
0.00104308
0.00102954
0.00102692
0.00101713
0.00101454
0.00101176
0.00101371
0.00100615
0.00099689
0.000979175
0.000973807
0.000963066
0.000952791
0.000940345
0.000933375
0.000929253
0.000929611
0.000920769
0.00090837
0.000890602
0.000887107
0.000863522
0.000853825
0.000845126
0.000845075
0.000845203
0.000835056
0.000820083
0.000816113
0.000801311
0.000801727
0.000799675
0.000785668
0.000787137
0.000802147
0.000787277
0.000790285
0.000786252
0.000792007
0.000794288
0.000795442
0.000802852
0.000807532
0.000816012
0.000824835
0.000831166
0.000839277
0.000848155
0.000857305
0.000867949
0.000879433
0.000892713
0.000908587
0.000926094
0.000946727
0.000969351
0.000995204
0.0010253
0.00105317
0.00108467
0.00102807
0.000982292
0.000957426
0.000984367
0.00104659
0.00109403
0.00112489
0.00115262
0.00117375
0.00118928
0.00110351
9.48299e-09
9.71611e-07
1.03945e-05
4.22963e-05
9.11099e-05
0.000150614
0.000215335
0.000280334
0.000342288
0.000398994
0.0004491
0.000492052
0.000527969
0.000557202
0.000580199
0.00059756
0.00060983
0.000618028
0.00062299
0.000624478
0.000623059
0.000619137
0.000612995
0.000604725
0.00059458
0.000582891
0.000569089
0.000554009
0.000538407
0.000522623
0.000507077
0.00049221
0.000478405
0.00046601
0.000455296
0.000446342
0.00043923
0.000433789
0.000430395
0.000428418
0.000427094
0.000425897
0.000424242
0.000421617
0.000417603
0.000411911
0.000404434
0.000395219
0.000384441
0.000372317
0.000359051
0.000345165
0.000330388
0.000315083
0.000299337
0.000283345
0.000267586
0.000252767
0.000238782
0.000225669
0.000212039
0.00019666
0.000182813
0.000172189
0.000166717
0.000165632
0.000169384
0.000177307
0.000184287
0.000195679
0.000218495
0.000268459
0.000332429
0.00041863
0.000513677
0.00061647
0.000721905
0.000818162
0.000916256
0.00100267
0.00108374
0.0011549
0.00121886
0.00127427
0.00132323
0.00136587
0.0014043
0.00143891
0.0014613
0.00148768
0.00150145
0.0015192
0.00153335
0.00154514
0.00155367
0.00156012
0.00156712
0.0015714
0.00157402
0.00157762
0.00157966
0.00158095
0.00158102
0.00158328
0.00157525
0.0015689
0.00156551
0.00155936
0.00155168
0.00154511
0.00153529
0.00152723
0.00151709
0.00150853
0.00149899
0.00148938
0.00147711
0.00146401
0.00144864
0.00143641
0.00142194
0.00140714
0.00139125
0.00137709
0.00136354
0.00135038
0.00133504
0.00131908
0.00130551
0.00129987
0.00126727
0.00125348
0.00123437
0.00122137
0.00120755
0.00119238
0.00117536
0.0011604
0.00114408
0.0011328
0.00112241
0.00111107
0.00110763
0.00110277
0.00109411
0.00109214
0.00108435
0.00108288
0.00107665
0.00107425
0.00107379
0.00108245
0.00107944
0.00108985
0.00109316
0.00109888
0.00110498
0.00111191
0.00112047
0.00112971
0.00113911
0.00115109
0.0011648
0.00118153
0.00120295
0.00121781
0.00115656
0.00109762
0.00104751
0.00100738
0.000988667
0.00100875
0.00105212
0.00110029
0.0011505
0.00119753
0.00124423
0.00128136
0.00130946
0.00125779
3.6189e-08
2.72104e-06
2.5783e-05
8.10791e-05
0.000154892
0.000236197
0.000317023
0.000393121
0.000462516
0.000524192
0.00057773
0.000623267
0.00066135
0.000692592
0.000717647
0.000737099
0.000751458
0.00076156
0.000768595
0.000772262
0.00077273
0.000770375
0.000765461
0.00075828
0.000749098
0.000738119
0.000725585
0.000711395
0.000696163
0.000680432
0.000664584
0.000649018
0.000634112
0.000620186
0.000607471
0.000596072
0.000585977
0.000577098
0.000569161
0.000561886
0.000554753
0.00054721
0.000538801
0.000529139
0.000517952
0.00050509
0.000490536
0.000474472
0.000457075
0.000438569
0.000419233
0.000399359
0.000379133
0.000358788
0.000338319
0.000318004
0.000297594
0.00027716
0.000258521
0.000243963
0.000233118
0.000226066
0.000221956
0.000221011
0.000222808
0.000225307
0.000226693
0.000236926
0.000258103
0.000308323
0.000376723
0.000473578
0.000584973
0.000709674
0.000834835
0.000959637
0.00108042
0.00119235
0.00129923
0.00139545
0.00148451
0.00156497
0.00163784
0.00169956
0.0017552
0.00179989
0.0018431
0.0018801
0.0019108
0.00193895
0.00196069
0.00198097
0.00199776
0.00201183
0.00202311
0.00203235
0.00204011
0.00204583
0.00205004
0.00205346
0.00205536
0.00205611
0.00205555
0.00205408
0.00204952
0.00204425
0.00203829
0.00202981
0.00202092
0.00201151
0.00200079
0.00198961
0.00197721
0.00196455
0.00195094
0.00193648
0.00192055
0.00190367
0.0018857
0.00186799
0.00184897
0.0018293
0.00180879
0.00178842
0.00176792
0.00174699
0.00172524
0.00170296
0.00168143
0.0016601
0.00163241
0.00160928
0.00158422
0.00156152
0.00153799
0.0015143
0.00149047
0.00146761
0.00144571
0.00142505
0.00140486
0.00138462
0.00136684
0.00135155
0.00133413
0.00131971
0.00130507
0.00129304
0.0012811
0.00127591
0.00126179
0.0012299
0.00120103
0.00117213
0.00114428
0.00112026
0.00110025
0.00108507
0.0010751
0.00106998
0.00106907
0.00107336
0.00107736
0.00107552
0.00106092
0.00102988
0.000989059
0.000947247
0.000913156
0.000895934
0.00090662
0.000938535
0.000981903
0.00103441
0.00109376
0.00115374
0.00121273
0.00125845
0.00129493
0.00127963
1.24225e-07
7.19064e-06
5.40647e-05
0.000137418
0.00023451
0.000331719
0.000422481
0.000504322
0.000576163
0.000638135
0.000690767
0.000734987
0.000771804
0.00080199
0.000826127
0.000844895
0.000858907
0.000868962
0.000875934
0.000879713
0.000880545
0.000878741
0.000874579
0.00086829
0.000860079
0.000850131
0.000838591
0.000825669
0.000811613
0.00079663
0.000781147
0.000765485
0.000749953
0.000734792
0.000720154
0.000706089
0.000692547
0.000679406
0.000666517
0.000653563
0.000640043
0.000625555
0.00060979
0.000592525
0.000573679
0.000553282
0.000531457
0.000508454
0.00048454
0.000460048
0.000435311
0.000410607
0.000386389
0.000361905
0.000338822
0.000317697
0.000299617
0.000285507
0.000275575
0.000269884
0.000266756
0.000265848
0.000266956
0.000268493
0.000269961
0.000276989
0.000295694
0.000334403
0.000400069
0.000492177
0.000607214
0.000741846
0.000881331
0.00102255
0.00115957
0.00129177
0.00141752
0.00153527
0.00164478
0.00174337
0.00183537
0.00192198
0.00199787
0.00206586
0.00212553
0.00217758
0.00222477
0.00226619
0.00230225
0.00233405
0.00236107
0.00238486
0.00240516
0.00242244
0.0024369
0.00244898
0.00245893
0.0024667
0.00247252
0.00247691
0.00247966
0.00248089
0.00248066
0.00247893
0.00247536
0.00247082
0.00246455
0.00245609
0.00244578
0.00243496
0.00242318
0.00241042
0.00239646
0.00238157
0.00236557
0.00234846
0.00233005
0.00231055
0.00228998
0.00226866
0.00224614
0.0022227
0.00219834
0.0021734
0.00214785
0.00212149
0.00209428
0.00206636
0.00203834
0.0020091
0.00197748
0.00194661
0.00191475
0.00188307
0.00185072
0.00181822
0.00178581
0.00175381
0.00172248
0.0016917
0.00166122
0.00163099
0.00160077
0.00155318
0.00150466
0.00145732
0.00141067
0.00136447
0.00131997
0.00127545
0.00123209
0.0011882
0.00114552
0.00110314
0.00106146
0.00102258
0.000987057
0.000956209
0.00093157
0.000914754
0.000906115
0.000903805
0.000905125
0.000903704
0.000892157
0.000869558
0.000839844
0.000807895
0.000787256
0.00078818
0.000807407
0.000840285
0.000885804
0.000942507
0.00100841
0.00107777
0.00114947
0.00120981
0.00126272
0.00127807
3.52556e-07
1.70806e-05
9.28777e-05
0.000201191
0.000315251
0.000422764
0.000519213
0.00060314
0.000674783
0.00073522
0.000785914
0.000827682
0.000861568
0.000888467
0.000909541
0.000925716
0.000937725
0.000946234
0.00095174
0.000954539
0.000954942
0.000953169
0.000949385
0.000943729
0.000936327
0.000927299
0.000916762
0.000904886
0.000891741
0.000877311
0.000862062
0.000846138
0.000829819
0.000813255
0.000796491
0.000779474
0.000762063
0.000744038
0.000725221
0.000705509
0.000684738
0.000662746
0.000639419
0.000614733
0.00058878
0.000561752
0.000533942
0.000505681
0.00047736
0.000449462
0.000422649
0.000397591
0.000373171
0.000352185
0.000335255
0.000322284
0.000313236
0.00030735
0.000304002
0.000302997
0.000303929
0.000305679
0.000306805
0.000311796
0.000327816
0.0003589
0.000415021
0.000493902
0.000601163
0.000730368
0.000875403
0.00102601
0.00117335
0.00131795
0.0014567
0.00158865
0.00171176
0.00182723
0.00193526
0.00203923
0.00213349
0.00221908
0.00229697
0.0023675
0.00243096
0.00248777
0.00253895
0.00258456
0.00262497
0.00266071
0.00269196
0.00271938
0.00274317
0.0027637
0.00278123
0.00279608
0.0028085
0.00281861
0.00282664
0.00283287
0.00283731
0.00284002
0.00284109
0.00284047
0.00283817
0.0028345
0.00282928
0.00282187
0.00281249
0.00280129
0.00278943
0.00277647
0.00276224
0.00274675
0.00272998
0.00271193
0.00269254
0.0026719
0.00265005
0.00262703
0.00260271
0.00257726
0.00255074
0.00252324
0.00249482
0.0024653
0.0024345
0.00240275
0.00237034
0.00233649
0.00230088
0.00226471
0.00222769
0.00219
0.00213788
0.00208274
0.00202705
0.00197097
0.00191472
0.00185852
0.00180222
0.0017459
0.00168997
0.00163462
0.00157958
0.0015257
0.00147283
0.00142142
0.00137154
0.00132328
0.00127577
0.00122833
0.00118126
0.0011341
0.00108702
0.00104068
0.000996112
0.000954426
0.000916973
0.000885964
0.000861566
0.000845098
0.00083526
0.000827642
0.000812934
0.000780783
0.000742615
0.000713632
0.000702924
0.000709192
0.000729012
0.000761458
0.000806739
0.000864181
0.000932582
0.00100763
0.00108714
0.00116223
0.00123199
0.00127249
7.42648e-07
3.22083e-05
0.000131928
0.000258307
0.00038469
0.000500303
0.000600906
0.00068615
0.000757476
0.000815975
0.000863165
0.000900548
0.000929845
0.000952473
0.000969666
0.000982632
0.000992056
0.000998244
0.00100178
0.00100305
0.00100231
0.000999757
0.000995505
0.000989643
0.00098224
0.000973364
0.000963093
0.00095151
0.000938686
0.000924637
0.000909127
0.000891998
0.000874124
0.000855426
0.000835868
0.00081534
0.00079369
0.000770718
0.000733736
0.00069906
0.000666373
0.00063524
0.000605589
0.00057737
0.000550927
0.000526666
0.000505155
0.00048638
0.000459456
0.000433516
0.000410514
0.000389044
0.000370816
0.000357561
0.000347799
0.000340911
0.000336573
0.000334688
0.000334998
0.000336339
0.000338455
0.000344392
0.000358971
0.000382488
0.00042953
0.000495928
0.000588334
0.000701808
0.000837623
0.000986593
0.00113969
0.00129099
0.00143741
0.00157729
0.00170962
0.00183635
0.00195638
0.00207437
0.00218338
0.00228456
0.00237845
0.00246507
0.00254472
0.00261766
0.00268414
0.00274449
0.00279918
0.00284846
0.00289264
0.00293208
0.00296706
0.00299799
0.00302518
0.00304892
0.00306951
0.0030872
0.00310224
0.00311481
0.00312512
0.00313335
0.00313961
0.00314396
0.0031465
0.00314721
0.00314617
0.00314348
0.00313916
0.00313301
0.0031247
0.00311447
0.00310267
0.00308999
0.00307594
0.00306045
0.00304353
0.00302518
0.00300539
0.00298424
0.00296171
0.00293767
0.0029122
0.00288546
0.00285749
0.00282837
0.00279812
0.0027667
0.00273396
0.00268438
0.00263179
0.00257837
0.00252409
0.0024691
0.00241348
0.00235741
0.00230102
0.00224406
0.00218648
0.00212856
0.0020706
0.00201299
0.00195553
0.00189867
0.00184239
0.00178649
0.00173104
0.00167628
0.00162243
0.00156976
0.00151829
0.0014678
0.00141805
0.00136887
0.00132022
0.00127178
0.00122343
0.0011751
0.0011271
0.00107948
0.00103274
0.000988251
0.000947669
0.000911488
0.000875719
0.00083583
0.000785291
0.000728797
0.000681287
0.00065616
0.000649941
0.0006581
0.000678717
0.000710834
0.000754887
0.000811286
0.000879852
0.000957563
0.00104211
0.00112555
0.00120961
0.0012729
1.18715e-06
4.9105e-05
0.000171103
0.000313615
0.000449255
0.00056898
0.000671391
0.000756444
0.000825297
0.000879766
0.000922198
0.000954716
0.000979197
0.000997269
0.00101067
0.00102057
0.00102684
0.00103034
0.00103158
0.00103093
0.00102862
0.00102479
0.00101953
0.00101287
0.00100483
0.000995427
0.000984675
0.000972601
0.000959244
0.000944631
0.000928621
0.000910855
0.000890961
0.000870231
0.000848372
0.000825236
0.000794527
0.000751694
0.000712896
0.000677236
0.000644342
0.000613997
0.000586083
0.000560449
0.0005373
0.000517678
0.000502604
0.000481118
0.000456592
0.000435125
0.000416168
0.000398175
0.000384341
0.000375265
0.000369232
0.000366075
0.000364957
0.000365663
0.000367957
0.000374045
0.000387221
0.000413865
0.000450399
0.000505969
0.000583214
0.000679853
0.000796829
0.000929759
0.0010765
0.00122736
0.00137645
0.00151999
0.00165877
0.00179193
0.00191879
0.00204334
0.00216456
0.00228012
0.00238717
0.00248741
0.0025811
0.00266832
0.00274921
0.00282396
0.00289274
0.00295579
0.00301338
0.00306574
0.00311312
0.00315581
0.00319409
0.00322824
0.00325858
0.0032854
0.00330896
0.0033295
0.00334724
0.00336237
0.00337509
0.00338555
0.00339387
0.00340014
0.00340441
0.00340675
0.00340721
0.00340587
0.00340275
0.00339784
0.00339099
0.00338194
0.00337125
0.00335938
0.00334608
0.00333115
0.00331469
0.00329672
0.00327723
0.00325631
0.00323396
0.00321007
0.00318179
0.0031379
0.00309284
0.00304666
0.0029997
0.00295198
0.00290335
0.00285407
0.00280421
0.00275377
0.00270278
0.00265131
0.00259924
0.00254729
0.00249481
0.00244173
0.00238787
0.00233337
0.00227847
0.00222328
0.00216761
0.00211148
0.00205499
0.00199834
0.00194173
0.00188525
0.00182926
0.00177401
0.00171972
0.00166637
0.00161431
0.00156338
0.00151346
0.00146423
0.00141483
0.00136421
0.00131138
0.00125526
0.00119555
0.00113292
0.00106915
0.00100362
0.000928016
0.000839003
0.000748618
0.000680695
0.000636595
0.000615854
0.000612419
0.000623221
0.000646231
0.000680136
0.000724667
0.000780241
0.000848827
0.00092862
0.00101707
0.00110855
0.00120248
0.00128188
1.66447e-06
5.92684e-05
0.000195417
0.000351657
0.000498045
0.000624288
0.000728666
0.000812286
0.000877774
0.000927967
0.000965624
0.000993232
0.00101285
0.00102666
0.00103667
0.00104323
0.00104634
0.00104702
0.00104579
0.00104299
0.00103881
0.00103338
0.00102674
0.0010189
0.00100984
0.00099953
0.000987954
0.00097511
0.000961016
0.000945702
0.000929192
0.000911225
0.000891429
0.000869326
0.000846737
0.00082322
0.00079868
0.000773097
0.000746423
0.000712773
0.000683129
0.000656858
0.00063407
0.000606162
0.000578051
0.000550603
0.0005244
0.00049998
0.000477947
0.000459016
0.000442218
0.000426227
0.00041517
0.000409164
0.000405788
0.000404895
0.000407261
0.000414453
0.000429123
0.000456197
0.000490877
0.00053655
0.000595967
0.00067676
0.000773754
0.000885883
0.00101212
0.00114864
0.0012909
0.00143388
0.00157446
0.00171101
0.00184311
0.00197028
0.00209507
0.00221832
0.00233722
0.0024486
0.00255371
0.00265279
0.00274598
0.00283332
0.00291489
0.00299078
0.00306118
0.00312621
0.00318603
0.00324086
0.00329088
0.00333631
0.00337741
0.00341439
0.00344749
0.00347715
0.00350351
0.00352681
0.00354723
0.00356496
0.00358018
0.00359303
0.00360363
0.00361205
0.00361836
0.00362264
0.00362495
0.00362536
0.00362387
0.00362043
0.00361511
0.00360774
0.00359862
0.00358794
0.00357585
0.00356226
0.0035443
0.00351057
0.00347532
0.00343892
0.0034015
0.00336298
0.00332366
0.00328371
0.00324303
0.00320177
0.00316015
0.00311815
0.00307618
0.00303358
0.0029905
0.0029467
0.00290201
0.00285631
0.00280944
0.00276147
0.00271234
0.00266211
0.00261069
0.00255816
0.00250464
0.00245009
0.0023944
0.00233755
0.00227971
0.00222121
0.00216229
0.00210316
0.00204413
0.00198547
0.00192739
0.00187045
0.0018141
0.00175836
0.00170257
0.00164532
0.00158442
0.00151772
0.00144368
0.00136209
0.00127445
0.00118335
0.0010926
0.00100101
0.000901437
0.000798186
0.000704433
0.000637645
0.00059795
0.000581361
0.000582064
0.000596715
0.000623128
0.000660006
0.000706942
0.000764213
0.000833508
0.000916066
0.00100878
0.00110786
0.00120982
0.00130528
2.0829e-06
6.79835e-05
0.000218226
0.000386337
0.000540234
0.000669658
0.000773974
0.000855454
0.000917392
0.00096324
0.000996218
0.00101903
0.00103435
0.00104474
0.0010516
0.00105434
0.00105428
0.00105214
0.00104839
0.00104333
0.00103715
0.00102993
0.00102172
0.00101255
0.00100237
0.000991159
0.000978869
0.000965495
0.000951064
0.000935623
0.000919235
0.000901916
0.000883741
0.000864351
0.000842779
0.000821597
0.000800107
0.00077802
0.000755263
0.000732332
0.000709301
0.000686212
0.000663119
0.000640165
0.000617585
0.000595677
0.000574727
0.000554877
0.000536581
0.000520514
0.000505665
0.000492109
0.000484637
0.000481108
0.000481671
0.00048737
0.000499828
0.000520267
0.000549699
0.000590246
0.000640711
0.000702587
0.000777975
0.000867888
0.000969683
0.00108326
0.00120712
0.00133814
0.00147271
0.00160736
0.00174005
0.00186957
0.00199502
0.00211813
0.00224058
0.00236017
0.00247394
0.00258224
0.00268515
0.00278273
0.00287502
0.002962
0.00304365
0.00311988
0.00319122
0.0032576
0.00331907
0.00337578
0.00342789
0.00347557
0.00351903
0.00355848
0.00359413
0.0036264
0.00365536
0.00368123
0.00370419
0.00372443
0.00374212
0.0037574
0.00377038
0.00378112
0.00378965
0.00379611
0.00380055
0.00380304
0.00380359
0.00380215
0.0037988
0.00377838
0.00375347
0.00372774
0.00370124
0.00367369
0.00364523
0.00361579
0.00358544
0.00355445
0.00352289
0.00349106
0.00345874
0.00342593
0.00339246
0.00335823
0.00332331
0.00328758
0.00325093
0.00321324
0.00317465
0.00313498
0.00309402
0.00305156
0.00300748
0.0029617
0.00291428
0.00286533
0.00281487
0.00276295
0.00270962
0.00265482
0.00259846
0.00254052
0.00248118
0.00242076
0.00235951
0.00229772
0.00223551
0.0021732
0.00211103
0.00204849
0.00198511
0.00192008
0.00185189
0.00177856
0.00169795
0.00160885
0.00151167
0.00140887
0.00130369
0.00119718
0.00109302
0.000987127
0.000872669
0.00075529
0.000657435
0.000594393
0.000561992
0.000551965
0.000558255
0.000577582
0.000607944
0.000648274
0.000698282
0.00075833
0.000829767
0.000915829
0.00101337
0.00111969
0.00122968
0.00133766
2.46288e-06
7.52762e-05
0.00023648
0.000413946
0.000573627
0.000705137
0.000808778
0.000887731
0.000946024
0.000987666
0.0010162
0.00103472
0.0010465
0.0010543
0.00105721
0.00105669
0.00105369
0.00104889
0.00104273