/*--------------------------------*- C++ -*----------------------------------*\
  =========                 |
  \\      /  F ield         | OpenFOAM: The Open Source CFD Toolbox
   \\    /   O peration     | Website:  https://openfoam.org
    \\  /    A nd           | Version:  13
     \\/     M anipulation  |
\*---------------------------------------------------------------------------*/
FoamFile
{
    format      ascii;
    class       volScalarField;
    location    "200";
    object      omega;
}
// * * * * * * * * * * * * * * * * * * * * * * * * * * * * * * * * * * * * * //

dimensions      [0 0 -1 0 0 0 0];

internalField   nonuniform List<scalar> 
12225
(
31477.7
31477.7
46153.4
40315.9
43905
39993.9
37247
31477.7
31477.7
45913.4
49449.9
48262.7
41791.5
43121.9
47217.9
42179.5
31477.7
31477.7
0.412075
9647.58
15466.6
16401.5
17449.2
17920.8
18185.3
18363.2
17376.4
18534.2
18825
21048.9
20775
20868.2
21331.6
20930.7
19960.4
19048.7
0.374648
2195.44
3824.91
4872.3
5669.96
5986.48
6274.38
8102.89
8038.77
8712.67
9024.75
8870.89
8768.12
8703.45
8725.31
8769.75
8767.25
8821.65
443.125
1808.96
2027.26
1493.07
1770.3
2212.17
2870.31
3113.03
4891.25
5043.1
5710.38
5532.69
5380.32
5324.13
5020.02
4861.05
4790.15
4677.12
0.376803
3381.27
1956.88
1626.39
1963.99
2070.84
2372.72
3804.24
3829.03
3852.34
4465.7
4452.01
4096.76
3688.98
3392.64
3168.62
3006.75
2935.25
0.381375
1953.5
1718
1511.67
1577.35
1603.39
1994.99
2229.63
2958.18
2980.32
2928.07
2906.08
3028.76
2923.87
2653.25
2482.88
2318.63
2239.37
341.555
621.022
620.907
641.72
683.997
874.017
1271.5
1408.44
1464.96
1724.04
1785.64
1854.11
1916.04
1932.61
1889.88
1827.17
1775.72
1746.1
407.794
457.549
468.514
465.062
483.961
513.507
639.259
736.016
848.102
941.974
1022.77
1061.54
1078.54
1126.66
1152.85
1175.05
1176.16
1175.93
438.697
416.732
424.501
418.187
423.691
437.631
479.786
531.153
582.683
643.181
695.418
729.653
738.393
760.886
780.73
791.156
814.332
852.437
440.576
431.416
424.005
420.277
420.007
434.046
452.728
468.986
488.21
507.841
533.212
555.625
577.801
597.315
614.134
628.765
634.543
637.132
438.403
436.413
430.614
426.532
423.72
426.181
432.317
437.292
443.084
449.912
458.946
468.738
478.846
488.959
496.844
504.843
509.589
514.554
438.756
437.064
433.515
430.894
427.232
425.379
425.535
426.314
427.72
429.623
432.386
435.945
439.89
444.091
447.635
450.982
453.133
456.076
438.9
436.875
434.577
432.21
429.902
427.886
426.409
425.151
424.496
423.195
422.837
423.154
423.832
424.825
425.665
426.583
427.087
427.715
438.979
436.788
434.684
432.601
430.629
428.75
427.01
425.395
423.935
422.522
421.22
420.205
419.303
418.677
417.991
417.555
416.877
416.537
438.998
436.775
434.666
432.652
430.737
428.918
427.183
425.542
423.974
422.497
421.08
419.774
418.527
417.399
416.3
415.312
414.317
413.431
439.001
436.773
434.658
432.65
430.74
428.927
427.199
425.558
423.992
422.504
421.083
419.736
418.448
417.229
416.063
414.958
413.897
412.893
439.001
436.772
434.655
432.645
430.735
428.919
427.192
425.548
423.983
422.492
421.072
419.718
418.427
417.197
416.022
414.903
413.832
412.812
439
436.769
434.65
432.638
430.726
428.908
427.178
425.533
423.966
422.473
421.051
419.695
418.403
417.17
415.994
414.871
413.799
412.775
439
436.771
434.653
432.642
430.73
428.912
427.183
425.537
423.97
422.477
421.055
419.698
418.405
417.172
415.995
414.871
413.798
412.774
439.001
436.772
434.656
432.645
430.735
428.918
427.189
425.544
423.978
422.485
421.064
419.707
418.415
417.182
416.006
414.882
413.81
412.785
439.002
436.772
434.67
432.661
430.752
428.934
427.204
425.559
423.991
422.5
421.079
419.724
418.435
417.202
416.031
414.907
413.842
412.818
439.026
436.777
434.812
432.835
430.94
429.082
427.336
425.648
424.067
422.568
421.146
419.799
418.526
417.312
416.171
415.07
414.042
413.048
439.543
435.798
434.494
434.077
432.744
430.653
428.834
426.538
424.975
423.354
421.908
420.531
419.455
418.39
417.455
416.506
415.76
414.941
438.682
436.767
439.313
443.572
448.238
445.592
442.185
434.886
436.281
432.995
429.574
427.277
428.725
427.954
426.994
426.47
426.621
426.6
439.029
442.15
479.777
521.187
547.759
544.632
520.818
527.176
541.586
514.548
479.613
487.471
478.726
471.19
470.392
471.166
474.175
476.448
415.048
490.213
664.464
939.771
955.747
990.336
902.091
895.474
896.806
821.858
698.237
711.375
680.425
645.221
636.208
635.187
642.846
649.376
0.393741
1465.34
1817.71
1818.85
2016.85
2773.61
2914.57
2395.97
2193.07
2138.88
1774.32
1456.09
1279.43
1298.89
1255.54
1222.54
1234.54
1246.09
0.420088
3962.74
4549.12
5142.34
7805.57
7546.57
7233.27
7887.82
7599.91
6048.27
5370.14
5150.23
4508.92
3882.87
3569.63
3556.6
3506.42
3471.26
3738.13
10482.7
15356.5
13271.5
12498.2
14186.3
13252.8
12700.2
13035.3
12927.6
12653.9
12213.9
11597.1
11025.6
10578.9
10286.7
10072.1
10001.8
18117.5
23148.8
25241.4
26323.1
26720.6
26681.2
26549.1
26260.9
25920
25584.3
25273.6
24984.7
24719.2
24481
24266.6
24078.7
23907.9
23759.7
11463.2
2514.24
2516.41
2518.61
2520.83
2523.07
2525.32
2527.6
2529.9
2532.22
2534.57
2536.93
2539.31
2541.72
2544.15
2546.6
2549.08
2551.57
2554.09
2556.64
2559.2
2561.79
2564.41
2567.05
2569.71
2572.4
2575.12
2577.86
2580.62
2583.41
2586.23
2589.08
2591.95
2594.85
2597.77
2600.73
2603.71
2606.72
2609.76
2612.82
2615.92
2619.05
2622.2
2625.39
2628.61
2631.86
2635.14
2638.45
2641.79
2645.17
2648.58
2652.02
2655.5
2659.01
2662.55
2666.13
2669.74
2673.39
2677.08
2680.8
2684.56
2688.35
2692.19
2696.06
2699.97
2703.92
2707.91
2711.94
2716
2720.11
2724.27
2728.46
2732.69
3532.73
3415.53
3876.88
3612.3
4103.99
4321.1
4583.61
4774.18
4955.86
5101.71
5229.76
5337.54
5429
5508.24
5571.9
5616.13
5624.28
5712.74
5751.98
5803.76
5839.91
5865.4
5883.97
5887.28
5884.02
5900.78
5934.92
5929.33
5943.33
5973.99
5966.77
5979.51
6005.76
5995.51
6005.47
6026.62
6014.05
6022.19
6042.76
6025.24
6008.77
6010.61
6014.8
6018.54
6034.67
6009.32
6012.32
6019.59
6039.54
6011.65
6019.54
6033.32
6068.33
6040.56
6018.11
6059.48
6028.1
6042.37
6103.73
6100.12
6132.57
6151.17
6177.04
6206.68
6239.61
6264.82
6285.09
6275.87
6312.31
6424.98
6403.5
6460.21
6612.85
6615.08
6620.85
6682.14
6750.9
6813.34
6881.17
7022.08
6979.07
7115.44
7105.53
7171.96
7332.73
7361.1
7392.83
7609.09
7627.47
7719.22
7788.78
7843.76
8080.8
8130.71
8238.27
8330.71
8419.61
8513.4
8588.82
8690.72
8680.38
8555.15
8361.15
8182.67
7957.04
7714.67
7330.67
11463.2
2167.06
1125.26
906.922
842.695
798.746
760.235
729.07
706.615
692.002
683.814
681.322
682.447
685.886
692.206
700.582
710.272
720.906
732.279
744.211
756.239
768.596
780.223
796.464
817.377
840.478
864.198
887.018
907.977
926.688
942.571
954.042
961.864
965.23
960.54
957.289
947.467
932.785
913.638
891.296
867.272
843.006
820.087
799.61
782.724
771.772
764.4
759.128
755.256
752.133
749.566
747.443
749.694
751.741
756.442
761.508
766.619
771.478
776.977
787.498
802.391
846.719
882.184
969.078
1062.04
1215.73
1446.6
1765.29
2104.27
2431.54
2705.56
2820.46
2943.02
3086.24
3078.6
3043.42
2960.67
2899.65
2755.87
2674.45
2566.1
2496.73
2420.98
2369.17
2319.92
2284.56
2253.82
2229.85
2208.4
2190.49
2177.99
2166.73
2157.34
2146
2134.96
2125.73
2123.56
2123.13
2124.56
2126.46
2133.63
2125.61
2135.06
2128.07
2123.16
2126.72
2135.58
2132.92
2133.78
2128.88
2134.4
2143.45
2149.62
2146.37
2141.86
2131.51
2131.83
2138.46
2154.95
2140.32
2145.94
2153.35
2172.24
2172.43
2177.23
2168.27
2162.55
2188.73
2176.38
2198.82
2202.63
2215.5
2223.04
2233.11
2234.77
2254.1
2289.75
2307.73
2316.99
2333.96
2333.56
2360.91
2426.74
2422.78
2458.37
2531.54
2539.4
2543.74
2572.41
2567.72
2576.3
2588.78
2582.89
2582.46
2588.5
2594.66
2605.33
2623.17
2636.71
2655.72
2681.05
2699.4
2725.86
2751.18
2779.93
2813.6
2836.09
2866.27
2895.26
2927.48
2951.18
2968.68
2989.29
2968.97
2902.61
2803.98
2732.49
2655.58
2625.75
2627.8
11463.2
2444.4
1424.69
1113.6
901.836
766.904
667.924
599.114
550.954
517.289
493.882
477.97
467.721
461.86
459.674
460.311
462.091
465.582
470.483
476.465
483.312
490.885
499.076
508.434
519.084
530.711
543.008
555.545
567.871
579.559
590.191
599.19
606.243
610.94
612.775
612.279
610.025
604.548
595.832
585.399
573.849
561.833
550.022
538.948
529.104
520.913
514.325
509.159
505.29
502.612
501.172
501.136
503.493
506.986
514.276
525.538
541.689
564.495
596.828
643.222
710.905
809.914
937.363
1090.06
1294.66
1551.13
1835.84
2106.27
2313.55
2460.74
2562.43
2580.42
2535.96
2395.81
2225.82
2075.59
1928.84
1852.13
1760.82
1707.06
1653.76
1619.04
1587.6
1565.95
1547.32
1533.89
1522.68
1514.1
1507.31
1501.29
1497.1
1492.32
1487
1481.37
1482.57
1489.7
1483.56
1486.01
1496.12
1493.51
1490.71
1493.38
1505.31
1501.95
1500.01
1511.09
1504.58
1507.66
1519.68
1516.26
1531.83
1531.22
1540.57
1539.15
1537.62
1528.47
1532.95
1539.51
1558.31
1558.29
1566.02
1572.98
1583.81
1586.21
1584.08
1574.39
1580.18
1591.89
1614.01
1609.61
1641.47
1648.25
1654.95
1655.85
1649.17
1661.61
1695.02
1694.75
1727.39
1738.44
1735.13
1774.3
1784.36
1780.89
1816.76
1819.07
1838.22
1834.36
1844.22
1855.03
1852.79
1858.9
1855.2
1853.24
1854.73
1854.22
1853.92
1855.81
1858.73
1864.69
1873.38
1883.42
1896.49
1910.91
1927.25
1943.25
1955.81
1973.11
1977.72
1990.42
1992.11
1984.69
1952.96
1897.93
1834.41
1776.08
1730.7
1679.61
1673.42
1678.51
11463.2
3094.45
1719.18
1186.49
911.072
741.452
630.774
556.771
505.891
470.315
445.356
427.944
415.936
407.947
403.071
400.629
400.182
401.105
402.968
406.037
410.071
414.941
420.6
427.044
434.233
442.051
450.35
458.938
467.586
476.029
483.981
491.124
497.177
501.872
505.004
506.543
506.43
504.82
501.191
496.112
490.243
483.899
477.448
471.217
465.514
460.596
456.655
453.839
452.319
452.326
454.258
458.25
465.678
477.379
494.963
520.506
556.243
604.366
669.186
754.275
867.645
1022.12
1212.2
1428.91
1651.49
1854.1
2008.45
2127.83
2199.26
2229.45
2200.46
2032.38
1891.08
1739.97
1624.17
1529.55
1454.25
1408.56
1363.66
1335.67
1311.76
1295.61
1282.8
1274.19
1267.53
1262.86
1258.43
1254.17
1257.53
1254.91
1260.49
1260.83
1262.37
1264.31
1267.55
1271.23
1273.41
1276.76
1280.65
1282.99
1285.83
1288.48
1291.48
1291.51
1299.81
1305.75
1308.51
1312.57
1317.65
1321.41
1327.25
1331.26
1336.49
1340.02
1343.97
1347.46
1352.81
1358.51
1366.04
1370.61
1376.97
1383.61
1391.42
1397.55
1403.05
1408.12
1415.46
1423.67
1429.46
1426.59
1453.24
1460.17
1473.75
1482.59
1491.94
1503.96
1519.8
1532.2
1546.69
1559.48
1570.56
1585.46
1597.13
1607.47
1619.23
1620.31
1639.01
1636.84
1657.37
1661.27
1666.74
1666.87
1673.05
1672.59
1671.23
1667.65
1663.32
1658.49
1652.87
1649.09
1649.14
1649.28
1652.45
1657.81
1665.12
1673.58
1678.01
1690.08
1687.29
1682.69
1665.38
1628.89
1578.81
1521.02
1465.03
1415.99
1373.96
1329.35
1322.75
1315.14
11463.2
3553.45
1774.49
1139.4
837.387
673.819
576.721
514.671
472.76
443.533
422.874
408.222
397.866
390.709
386.01
383.286
382.223
382.421
383.348
385.228
388.047
391.692
396.103
401.191
406.881
413.08
419.683
426.558
433.557
440.506
447.213
453.471
459.084
463.869
467.683
470.433
472.084
472.605
472.088
470.6
468.408
465.817
463.097
460.52
458.368
456.919
456.486
457.329
459.872
464.628
472.25
483.597
499.983
523.113
555.342
600.004
662.256
747.766
858.225
988.746
1137.89
1298.44
1463.85
1621.69
1753.23
1856.51
1943.43
1961.03
1945.9
1821.91
1707.81
1574.36
1466.55
1373.14
1305.8
1253.9
1214.75
1188.47
1167.22
1153.84
1143.78
1137.06
1132.31
1131.56
1131.23
1134.5
1135.56
1137.59
1140.84
1143.29
1147.43
1150.61
1154.18
1157.87
1161.87
1165.88
1169.71
1173.75
1177.83
1181.61
1185.54
1189.42
1193.38
1197.23
1202.37
1207.1
1211.22
1215.68
1220.32
1224.95
1229.92
1234.74
1239.85
1244.7
1249.73
1254.84
1260.48
1266.36
1272.7
1278.65
1285.24
1292.14
1299.57
1306.81
1314.08
1321.61
1329.73
1338.31
1346.35
1354.23
1367.31
1377.46
1389.82
1400.96
1413.22
1426.49
1440.81
1455.05
1469.38
1483.9
1498.57
1513.8
1528.92
1544.31
1559.37
1573.2
1588.43
1598.03
1614.61
1620.62
1641.52
1648.74
1652.15
1664.26
1666.15
1663.34
1656.87
1646.33
1632.68
1616.77
1599.7
1583.96
1573.49
1566.22
1562.38
1562.63
1567.49
1568.07
1561.12
1539.22
1499.77
1446.62
1391.7
1339.36
1288.96
1244.09
1201.63
1163.31
1133.76
1126.42
11463.2
3574.27
1620.25
1006.02
746.44
612.898
534.819
485.005
451.645
428.511
412.18
400.508
392.134
386.261
382.421
380.233
379.425
379.69
380.709
382.595
385.299
388.738
392.835
397.519
402.726
408.383
414.411
420.715
427.191
433.717
440.163
446.389
452.258
457.638
462.422
466.526
469.897
472.499
474.323
475.472
476.224
476.831
477.557
478.687
480.516
483.38
487.709
493.996
502.909
515.25
532.134
555.053
586.011
627.542
682.573
753.805
841.735
944.802
1059.79
1180.37
1305.32
1427.92
1538.16
1631.38
1705.68
1740.49
1729.51
1672.32
1578.1
1476.71
1380.7
1289.92
1220.92
1167.27
1128.32
1099.41
1078.98
1065.58
1057.28
1054.25
1052.79
1051.68
1053.45
1056.26
1060.23
1065.02
1069.39
1073.96
1078.68
1083.23
1088.03
1092.55
1097.08
1101.57
1106.07
1110.49
1114.84
1119.23
1123.65
1127.95
1132.26
1136.56
1140.87
1145.24
1149.87
1154.35
1158.73
1163.24
1167.82
1172.5
1177.28
1182.12
1187.08
1192.06
1197.16
1202.38
1207.84
1213.49
1219.37
1225.33
1231.66
1238.27
1245.23
1252.34
1259.66
1267.32
1275.37
1283.82
1292.33
1301.61
1312.52
1323.34
1335.17
1347.14
1360.04
1373.75
1388.18
1403.2
1418.67
1434.81
1451.7
1469.4
1487.9
1507.27
1526.97
1547.05
1567.44
1587.38
1608.3
1627.73
1649.55
1665.14
1683.88
1692.02
1711.85
1715.45
1711.83
1699.35
1677.92
1647.98
1613.05
1574.92
1540.2
1512.04
1492.1
1478.45
1468.18
1453.74
1427.03
1382.51
1330.49
1282.29
1238.16
1197.28
1156.9
1120.74
1082.55
1053.85
1016.53
1007.25
11463.2
3204.5
1399.36
893.817
683.59
574.487
510.037
468.992
441.53
422.494
408.911
399.307
392.652
388.303
385.683
384.423
384.282
385.064
386.64
388.957
391.944
395.551
399.739
404.464
409.683
415.348
421.409
427.795
434.429
441.22
448.075
454.889
461.562
467.995
474.111
479.847
485.174
490.104
494.753
499.204
503.611
508.19
513.22
519.032
526.008
534.607
545.409
559.152
576.668
598.975
627.405
663.369
708.333
763.374
828.748
903.684
986.399
1076
1170.11
1264.53
1354.09
1435.67
1509.76
1558.42
1562.61
1534.43
1468.51
1400.18
1321.36
1244.99
1174.81
1117.65
1076.02
1044.76
1022.95
1008.53
1000.81
997.454
997.174
997.467
1000.49
1005.17
1010.71
1016.75
1023.12
1029.63
1035.92
1042.08
1048.09
1053.88
1059.54
1064.97
1070.25
1075.38
1080.38
1085.24
1090
1094.67
1099.27
1103.75
1108.17
1112.54
1116.87
1121.2
1125.56
1129.86
1134.11
1138.41
1142.73
1147.1
1151.52
1155.99
1160.53
1165.11
1169.77
1174.53
1179.42
1184.44
1189.6
1194.9
1200.45
1206.22
1212.25
1218.49
1224.96
1231.74
1238.87
1246.35
1254.11
1262.56
1271.99
1281.9
1292.47
1303.54
1315.4
1327.99
1341.27
1355.26
1369.92
1385.33
1401.6
1418.7
1436.71
1455.71
1475.42
1495.91
1516.99
1538.48
1560.33
1582.17
1604.72
1625.7
1646.56
1664.67
1677.33
1691.71
1694.53
1687.66
1668.26
1634.79
1588.21
1532.66
1475.95
1425.34
1386.76
1358.49
1333.85
1298.95
1253.24
1207.6
1165.23
1126.98
1092.26
1062.21
1033.78
1008.41
978.959
958.057
926.959
917.253
11463.2
2763.75
1264.36
837.103
653.735
556.739
499.496
463.159
438.796
422.199
410.86
403.263
398.311
395.323
393.832
393.441
393.984
395.44
397.664
400.579
404.131
408.278
412.99
418.239
423.997
430.23
436.899
443.966
451.387
459.109
467.073
475.212
483.458
491.737
499.984
508.13
516.118
524.02
531.904
539.854
548.039
556.698
566.138
576.726
588.884
603.096
619.899
639.862
663.638
692.12
725.875
765.437
811.323
863.49
921.973
986.518
1055.89
1127.86
1198.75
1268.17
1334.64
1384.42
1404.24
1407.92
1367.55
1321.84
1264.58
1208.71
1148.48
1092.85
1046.9
1012.38
987.905
971.834
962.653
957.78
956.749
956.455
959.466
964.534
970.902
978.178
985.957
993.95
1001.97
1009.87
1017.51
1024.86
1031.92
1038.66
1045.12
1051.29
1057.21
1062.89
1068.37
1073.65
1078.77
1083.74
1088.58
1093.28
1097.87
1102.36
1106.77
1111.13
1115.44
1119.68
1123.86
1128.03
1132.17
1136.31
1140.45
1144.59
1148.76
1152.95
1157.18
1161.46
1165.81
1170.24
1174.77
1179.41
1184.2
1189.16
1194.29
1199.6
1205.1
1210.82
1216.79
1223.03
1229.51
1236.45
1243.91
1251.78
1260.09
1268.76
1277.93
1287.63
1297.84
1308.61
1319.93
1331.8
1344.31
1357.48
1371.34
1385.94
1401.14
1416.93
1433.12
1449.62
1466.25
1482.85
1499.41
1515.22
1530.58
1542.18
1550.38
1557.55
1557.48
1549.58
1531.48
1501.01
1457.53
1404.06
1347.71
1295.59
1253.28
1219.04
1181.24
1142.46
1103.92
1066.72
1031.81
1000.32
971.92
947.686
925.467
907.836
886.841
872.091
848.59
841.063
11463.2
2423.41
1161.46
793.475
632.88
547.216
495.609
462.685
441.093
426.835
417.423
411.368
407.726
405.866
405.213
405.446
406.754
408.923
411.847
415.459
419.714
424.585
430.049
436.094
442.707
449.873
457.577
465.798
474.51
483.677
493.255
503.19
513.42
523.874
534.488
545.209
556.06
567.027
577.993
589.02
600.236
611.822
624.021
637.105
651.365
667.189
685.025
705.468
729.278
756.844
788.331
824.341
865.234
910.794
960.485
1013.12
1068.1
1124.11
1180.42
1230
1263.91
1266.78
1262.29
1238.76
1202.62
1163.82
1120.58
1076.9
1033.53
997.294
969.741
950.956
938.358
931.074
928.356
927.482
928.36
931.407
937.172
944.445
952.712
961.609
970.828
980.129
989.334
998.317
1006.98
1015.29
1023.22
1030.78
1037.97
1044.81
1051.34
1057.56
1063.5
1069.2
1074.68
1079.95
1085.04
1089.96
1094.73
1099.36
1103.87
1108.27
1112.56
1116.76
1120.86
1124.89
1128.84
1132.74
1136.58
1140.37
1144.14
1147.87
1151.6
1155.32
1159.07
1162.83
1166.61
1170.44
1174.32
1178.27
1182.31
1186.43
1190.63
1194.94
1199.36
1203.92
1208.61
1213.53
1218.71
1224.13
1229.8
1235.68
1241.83
1248.27
1255.01
1262.07
1269.43
1277.12
1285.15
1293.55
1302.33
1311.5
1320.96
1330.66
1340.49
1350.34
1360.05
1369.49
1378.5
1386.72
1393.87
1398.78
1401.44
1402.26
1398.89
1390.16
1374.12
1348.51
1312.32
1267.28
1219.19
1173.09
1131.05
1090.25
1054.25
1019.78
986.292
954.577
925.306
899.129
875.776
855.972
838.065
824.32
809.301
798.839
781.472
776.266
11463.2
2391.04
1155.46
789.812
630.713
546.982
497.873
467.408
447.888
435.28
427.257
422.396
419.829
418.804
418.702
419.565
421.566
424.436
428.077
432.432
437.466
443.16
449.501
456.484
464.109
472.376
481.283
490.819
500.963
511.68
522.919
534.613
546.677
559.01
571.502
584.053
596.592
608.945
621.038
632.849
644.44
655.983
667.729
680
693.204
707.71
723.921
742.392
763.62
787.853
815.422
846.579
881.254
918.884
959.75
1003.72
1048.32
1089.26
1120.1
1130.72
1137.65
1138.11
1131.81
1109.21
1082.46
1053.32
1022.49
992.518
965.636
943.827
927.588
916.644
910.194
907.656
907.235
908.115
910.981
916.555
923.856
932.384
941.746
951.628
961.772
971.966
982.022
991.829
1001.31
1010.4
1019.09
1027.37
1035.25
1042.74
1049.88
1056.63
1063.06
1069.19
1075.05
1080.65
1086.02
1091.18
1096.13
1100.9
1105.5
1109.94
1114.22
1118.36
1122.36
1126.24
1129.99
1133.63
1137.16
1140.58
1143.94
1147.17
1150.31
1153.39
1156.42
1159.37
1162.27
1165.13
1167.94
1170.72
1173.49
1176.23
1178.96
1181.67
1184.38
1187.11
1189.87
1192.68
1195.58
1198.58
1201.68
1204.86
1208.16
1211.56
1215.08
1218.72
1222.47
1226.33
1230.32
1234.42
1238.66
1243.02
1247.43
1251.8
1256.11
1260.3
1264.28
1267.98
1271.31
1274.26
1276.31
1277.36
1277.36
1276.22
1272.74
1265.63
1252.6
1230.55
1198.35
1157.22
1111.49
1067.24
1022.6
984.074
950.361
919.198
890.114
863.397
839.192
817.795
798.884
782.954
768.691
757.841
746.445
739.149
726.447
722.938
11463.2
2373.34
1146.22
786.851
631.702
550.955
504.167
475.489
457.466
446.139
439.228
435.387
433.607
433.049
433.385
435.074
437.773
441.349
445.725
450.859
456.73
463.325
470.629
478.621
487.304
496.684
506.765
517.535
528.962
540.988
553.534
566.492
579.732
593.109
606.474
619.689
632.629
645.193
657.34
669.052
680.396
691.472
702.515
713.814
725.708
738.501
752.384
767.782
784.958
804.438
826.718
851.914
879.737
909.665
940.718
971.25
998.69
1021.27
1037.63
1045.56
1049.14
1047.58
1039.53
1025.16
1008.31
988.965
968.296
948.213
930.422
916.162
905.773
899.178
896.177
895.483
896.022
898.3
903.017
909.597
917.63
926.749
936.638
947.032
957.711
968.52
979.159
989.559
999.656
1009.39
1018.72
1027.64
1036.14
1044.23
1051.93
1059.21
1066.14
1072.72
1078.99
1084.97
1090.66
1096.08
1101.26
1106.19
1110.89
1115.37
1119.64
1123.71
1127.58
1131.28
1134.79
1138.13
1141.29
1144.28
1147.13
1149.8
1152.32
1154.7
1156.98
1159.07
1161.02
1162.85
1164.55
1166.15
1167.66
1169.06
1170.37
1171.58
1172.72
1173.79
1174.82
1175.79
1176.75
1177.69
1178.63
1179.57
1180.51
1181.44
1182.36
1183.27
1184.15
1184.99
1185.8
1186.58
1187.32
1188.06
1188.69
1189.08
1189.33
1189.48
1189.49
1189.34
1189.04
1188.64
1187.94
1187
1185.64
1183.44
1179.04
1170.67
1155.97
1132.94
1100.77
1061.31
1017.92
975.443
932.308
895.688
863.827
835.735
810.661
788.475
768.871
751.873
737.021
724.638
713.641
705.386
696.886
691.906
682.787
680.465
11463.2
2370.44
1146.96
789.855
636.648
557.756
512.595
485.34
468.571
458.357
452.469
449.517
448.323
448.008
449.238
451.66
455.087
459.414
464.59
470.592
477.42
485.067
493.491
502.646
512.486
522.971
534.135
545.974
558.454
571.51
585.051
598.969
613.148
627.473
641.839
656.143
670.288
684.225
697.973
711.581
725.099
738.062
750.619
762.958
775.28
787.719
800.124
812.662
825.765
840.068
856.105
873.743
892.745
912.948
932.671
951.384
968.772
983.819
995.136
1001.64
1002.75
999.962
994.709
985.298
973.386
959.865
946.197
932.095
919.426
909.132
901.618
897.008
895.067
894.796
895.923
899.164
904.273
911.001
919.061
928.17
938.065
948.51
959.304
970.291
981.171
991.902
1002.4
1012.59
1022.42
1031.88
1040.93
1049.58
1057.82
1065.66
1073.13
1080.21
1086.94
1093.31
1099.34
1105.05
1110.44
1115.53
1120.32
1124.83
1129.06
1133.02
1136.72
1140.17
1143.38
1146.35
1149.08
1151.57
1153.83
1155.87
1157.7
1159.33
1160.79
1162.04
1163.12
1164.03
1164.73
1165.3
1165.74
1166.01
1166.12
1166.05
1165.87
1165.57
1165.18
1164.66
1164.06
1163.39
1162.64
1161.83
1160.95
1159.99
1158.94
1157.8
1156.55
1155.18
1153.69
1152.06
1150.3
1148.44
1146.37
1144.12
1141.74
1139.26
1136.73
1134.18
1131.69
1129.31
1126.99
1124.69
1122
1118.13
1111.6
1100.44
1082.56
1056.85
1023.58
984.791
943.427
899.199
857.075
820.923
790.591
765.519
744.32
726.389
711.061
698.11
686.978
677.833
669.821
663.938
657.962
654.973
648.76
647.33
11463.2
2371.22
1149.91
794.486
642.852
565.52
521.783
495.827
480.25
471.136
466.312
464.174
463.511
463.914
465.996
469.264
473.551
478.779
484.927
492.002
500.03
509.017
518.909
529.57
540.831
552.669
565.088
578.128
591.83
606.185
621.155
636.679
652.689
669.148
686.033
703.33
720.89
738.509
756.242
774.18
792.097
809.251
825.777
841.654
856.807
871.125
884.685
897.549
909.707
921.138
931.95
942.219
952.314
962.714
973.529
984.232
994.398
1003.91
1010.57
1013.07
1010.9
1006.26
998.991
989.549
978.629
966.595
953.732
940.96
929.456
919.923
912.828
908.334
906.182
905.69
906.833
909.885
914.692
921.035
928.685
937.401
946.953
957.127
967.732
978.586
989.532
1000.44
1011.22
1021.76
1032.02
1041.94
1051.49
1060.66
1069.42
1077.77
1085.7
1093.22
1100.32
1107.04
1113.35
1119.27
1124.81
1129.97
1134.76
1139.2
1143.27
1147.01
1150.42
1153.53
1156.33
1158.83
1161.04
1162.97
1164.62
1166.01
1167.16
1168.09
1168.77
1169.21
1169.5
1169.58
1169.35
1168.98
1168.47
1167.79
1166.91
1165.86
1164.66
1163.31
1161.84
1160.17
1158.35
1156.42
1154.37
1152.22
1149.95
1147.57
1145.06
1142.43
1139.65
1136.7
1133.58
1130.3
1126.84
1123.23
1119.44
1115.5
1111.46
1107.38
1103.33
1099.38
1095.65
1092.13
1088.64
1085.02
1080.67
1074.51
1064.96
1050.14
1028.57
1000.06
965.377
925.53
883.683
835.77
792.343
756.255
727.882
706.152
688.797
674.933
663.586
654.353
646.566
640.323
635.04
631.227
627.739
626.777
622.859
621.962
11463.2
2372.98
1153.13
799.282
649.078
573.181
530.807
506.153
491.828
483.994
480.255
478.886
478.725
480.55
483.777
488.17
493.611
500.064
507.545
516.1
525.782
536.596
548.447
561.146
574.512
588.407
602.823
617.918
633.724
650.403
668.024
686.619
705.953
726.037
746.93
768.584
790.636
812.756
834.92
856.962
878.585
899.914
920.818
941.083
960.494
978.849
995.986
1011.76
1026.03
1038.71
1049.73
1059.05
1066.61
1072.29
1076.5
1079.18
1080.24
1079.32
1077.03
1072.21
1064.76
1055.51
1044.52
1032.42
1019.75
1006.73
993.79
981.135
969.089
958.314
949.628
943.757
939.95
937.816
937.467
939.006
942.33
947.179
953.413
960.835
969.238
978.435
988.24
998.477
1008.99
1019.63
1030.28
1040.82
1051.18
1061.29
1071.09
1080.53
1089.58
1098.21
1106.4
1114.13
1121.42
1128.26
1134.63
1140.55
1146.02
1151.03
1155.6
1159.73
1163.44
1166.76
1169.71
1172.3
1174.55
1176.48
1178.09
1179.39
1180.39
1181.12
1181.57
1181.8
1181.77
1181.37
1180.85
1180.09
1179.1
1177.93
1176.57
1175.02
1173.27
1171.34
1169.23
1166.95
1164.5
1161.9
1159.15
1156.26
1153.24
1150.1
1146.84
1143.45
1139.93
1136.27
1132.43
1128.41
1124.23
1119.88
1115.36
1110.68
1105.86
1100.93
1095.94
1090.96
1086.04
1081.24
1076.61
1072.02
1067.32
1062.06
1055.39
1046.05
1032.56
1013.37
987.801
956.213
919.365
876.972
829.077
778.228
733.872
699.06
673.567
655.585
642.036
632.12
624.464
618.645
613.783
610.152
607.437
605.344
605.417
605.371
603.179
602.592
11463.2
2374.28
1155.8
803.442
654.673
580.136
539.147
515.902
503.103
496.81
494.356
493.884
495.117
498.441
503.2
509.177
516.293
524.56
534.044
544.842
557.026
570.56
585.253
600.847
617.162
634.146
651.897
670.457
689.671
709.87
731.243
753.73
776.942
800.942
825.678
850.998
876.794
903.056
929.644
956.353
982.96
1009.28
1035.1
1060.15
1084.19
1106.97
1128.26
1147.85
1165.54
1181.15
1194.56
1205.66
1214.43
1219.99
1222.56
1222.64
1220.57
1216.06
1208.95
1199.73
1188.88
1175.92
1160.87
1144.3
1126.91
1109.46
1092.45
1076.17
1060.82
1046.58
1034.01
1023.68
1014.98
1007.7
1002.11
999.556
999.147
1000.29
1003.19
1007.64
1013.4
1020.34
1028.22
1036.84
1046.03
1055.59
1065.36
1075.22
1085.04
1094.74
1104.23
1113.43
1122.26
1130.67
1138.64
1146.12
1153.1
1159.57
1165.54
1171.01
1175.99
1180.46
1184.45
1187.94
1190.97
1193.59
1195.82
1197.68
1199.18
1200.33
1201.18
1201.72
1201.98
1201.95
1201.58
1200.95
1200.06
1198.92
1197.58
1196.02
1194.25
1192.27
1190.09
1187.71
1185.15
1182.39
1179.46
1176.34
1173.06
1169.62
1166.02
1162.29
1158.43
1154.45
1150.36
1146.15
1141.81
1137.35
1132.76
1128.03
1123.17
1118.15
1113
1107.72
1102.32
1096.86
1091.37
1085.92
1080.52
1074.99
1069.4
1063.57
1057.11
1049.37
1039.25
1025.5
1007.05
982.869
953.222
917.966
877.282
831.114
776.511
723.541
680.003
648.267
626.485
612.494
602.727
596.614
592.291
589.507
587.112
585.883
585.706
585.585
585.662
586.699
587.106
587.395
11463.7
2375.12
1157.79
806.845
659.566
586.457
547.03
525.509
514.638
510.07
508.926
510.085
513.838
519.403
526.455
534.858
544.611
555.802
568.585
583.116
599.432
617.333
636.433
656.406
677.226
698.629
720.713
743.537
766.876
790.978
816.049
842.089
869.189
897.315
926.364
956.201
986.683
1017.67
1048.97
1080.39
1111.69
1142.66
1173.03
1202.57
1231
1258.07
1283.5
1307.06
1328.49
1347.58
1364.12
1377.95
1388.99
1396.57
1400.35
1401.09
1399.04
1393.98
1386.02
1375.53
1363.02
1348.09
1330.56
1310.73
1289.26
1267.01
1244.81
1223.43
1203.5
1185.32
1168.64
1153.04
1139
1126.58
1115.72
1106.95
1099.86
1094.19
1090.88
1090.06
1090.98
1093.78
1098.03
1103.47
1109.93
1117.11
1124.77
1132.76
1140.93
1149.14
1157.27
1165.19
1172.81
1180.06
1186.87
1193.21
1199.04
1204.37
1209.19
1213.52
1217.37
1220.72
1223.56
1225.9
1227.75
1229.24
1230.34
1231.09
1231.51
1231.55
1231.36
1230.87
1230.09
1229.01
1227.66
1226.06
1224.23
1222.18
1219.92
1217.45
1214.78
1211.92
1208.86
1205.62
1202.19
1198.59
1194.82
1190.87
1186.77
1182.52
1178.13
1173.62
1169
1164.28
1159.47
1154.55
1149.55
1144.45
1139.25
1133.95
1128.54
1123.02
1117.39
1111.65
1105.82
1099.93
1093.97
1088.03
1081.87
1075.46
1068.58
1060.8
1051.48
1039.85
1024.72
1005.19
980.892
951.421
917.547
878.25
832.501
778.79
721.5
669.58
629.863
602.855
585.321
575.528
569.552
566.909
565.448
565.301
565.035
565.846
567.23
569.107
570.957
573.007
574.26
575.754
11462.8
2376.33
1159.9
810.21
664.485
593.002
555.508
536.428
527.962
525.468
526.551
531.109
538.105
547.05
557.727
570.119
584.364
600.699
619.41
640.599
663.876
688.699
714.486
740.315
766.288
792.157
818.264
844.971
872.73
901.682
931.779
962.9
994.979
1027.93
1061.63
1095.95
1130.76
1165.89
1201.19
1236.46
1271.49
1306.08
1339.99
1372.98
1404.78
1435.12
1463.76
1490.4
1514.79
1536.67
1555.81
1571.98
1585.03
1594.7
1600.36
1602.62
1601.51
1596.93
1589.06
1578.09
1564.28
1547.8
1528.92
1507.5
1483.9
1458.68
1432.52
1406.15
1380.25
1355.48
1332.32
1311.16
1292.39
1276.2
1262.28
1249.11
1237.4
1227.1
1218.28
1210.97
1205.6
1202.52
1201.67
1202.37
1204.68
1207.91
1211.88
1216.41
1221.4
1226.63
1231.94
1237.19
1242.26
1247.07
1251.53
1255.59
1259.2
1262.37
1265.07
1267.38
1269.33
1270.82
1271.84
1272.36
1272.38
1272.29
1271.78
1271.03
1269.94
1268.58
1266.98
1265.13
1263.05
1260.74
1258.21
1255.47
1252.54
1249.43
1246.13
1242.65
1238.99
1235.16
1231.16
1227
1222.68
1218.2
1213.58
1208.8
1203.88
1198.83
1193.67
1188.42
1183.08
1177.67
1172.18
1166.62
1161.01
1155.33
1149.59
1143.78
1137.89
1131.92
1125.85
1119.66
1113.31
1106.88
1100.18
1093.11
1085.61
1077.65
1068.35
1057.2
1043.35
1026.08
1004.49
978.462
948.522
914.648
877.079
832.97
782.679
723.401
666.158
618.575
584.88
562.941
550.142
544.604
541.627
541.533
542.702
544.669
546.988
550.142
553.56
557.211
560.536
563.417
565.496
567.026
11461.8
2378.97
1162.6
814.072
670.172
600.849
566.276
550.384
545.043
545.474
550.962
559.975
571.746
585.921
602.433
621.516
643.648
669.189
698.285
730.642
763.411
795.786
827.561
858.319
888.95
920.222
952.557
985.955
1020.34
1055.6
1091.57
1128.11
1165.12
1202.48
1240.09
1277.85
1315.67
1353.42
1390.99
1428.25
1465.05
1501.21
1536.54
1570.83
1603.85
1635.36
1665.09
1692.79
1718.19
1741.03
1761.07
1778.06
1791.79
1802.07
1808.71
1811.6
1810.69
1806.02
1798.01
1786.72
1772.33
1755.01
1734.99
1712.39
1687.48
1660.63
1632.33
1603.09
1573.48
1544.12
1515.57
1488.36
1463.07
1440.07
1419.6
1401.5
1385.85
1372.28
1359.85
1348.44
1338.19
1329.79
1323.74
1319.49
1316.76
1315.22
1314.57
1314.61
1315.53
1316.8
1318.28
1319.87
1321.43
1322.88
1324.11
1325.07
1325.68
1325.93
1325.72
1325.39
1325.02
1324.12
1322.85
1321.22
1319.3
1317.12
1314.72
1312.1
1309.29
1306.3
1303.16
1299.87
1296.42
1292.8
1289.03
1285.11