/*--------------------------------*- C++ -*----------------------------------*\
  =========                 |
  \\      /  F ield         | OpenFOAM: The Open Source CFD Toolbox
   \\    /   O peration     | Website:  https://openfoam.org
    \\  /    A nd           | Version:  13
     \\/     M anipulation  |
\*---------------------------------------------------------------------------*/
FoamFile
{
    format      ascii;
    class       volScalarField;
    location    "200";
    object      p;
}
// * * * * * * * * * * * * * * * * * * * * * * * * * * * * * * * * * * * * * //

dimensions      [0 2 -2 0 0 0 0];

internalField   nonuniform List<scalar> 
12225
(
-4.95442
-5.80853
-6.21419
-6.36101
-6.50746
-6.67271
-6.80992
-6.90526
-6.9842
-7.07055
-7.16503
-7.26084
-7.35138
-7.43577
-7.51211
-7.57974
-7.64887
-7.73851
-5.22798
-5.84133
-6.1878
-6.33464
-6.47862
-6.636
-6.77307
-6.87495
-6.95738
-7.04256
-7.13657
-7.23314
-7.32344
-7.40137
-7.47088
-7.53925
-7.60519
-7.64893
-5.41086
-5.83726
-6.17173
-6.34423
-6.49063
-6.64235
-6.77584
-6.87895
-6.96505
-7.04992
-7.13866
-7.2277
-7.31112
-7.38408
-7.45
-7.51388
-7.57034
-7.60597
-5.55375
-5.86396
-6.17888
-6.3576
-6.49615
-6.63675
-6.76441
-6.8682
-6.95557
-7.0395
-7.12555
-7.21119
-7.2917
-7.36387
-7.42916
-7.48929
-7.54082
-7.57597
-5.69289
-5.91665
-6.19436
-6.36906
-6.50126
-6.63363
-6.75778
-6.86266
-6.95109
-7.03461
-7.11891
-7.20184
-7.27939
-7.34921
-7.41178
-7.46784
-7.51566
-7.55067
-5.8111
-5.99127
-6.20883
-6.3784
-6.50767
-6.63399
-6.75428
-6.85772
-6.94579
-7.0283
-7.11029
-7.18993
-7.26396
-7.33073
-7.3905
-7.4436
-7.4891
-7.52452
-5.90552
-6.03059
-6.22606
-6.39076
-6.5172
-6.6374
-6.75235
-6.85309
-6.94075
-7.02257
-7.10236
-7.17882
-7.24956
-7.31356
-7.37096
-7.42184
-7.4657
-7.50134
-5.98924
-6.07561
-6.25322
-6.40762
-6.52972
-6.64339
-6.75234
-6.85009
-6.93684
-7.01734
-7.09446
-7.16755
-7.2351
-7.29647
-7.35162
-7.40054
-7.44302
-7.47858
-6.06312
-6.13391
-6.28472
-6.42639
-6.54293
-6.65049
-6.75368
-6.84806
-6.93297
-7.01148
-7.08583
-7.15589
-7.22072
-7.27976
-7.33293
-7.38019
-7.42154
-7.45688
-6.13345
-6.19245
-6.31812
-6.44601
-6.55594
-6.65755
-6.75517
-6.84578
-6.92827
-7.00457
-7.07638
-7.14379
-7.20615
-7.26299
-7.31424
-7.35994
-7.40021
-7.43516
-6.1998
-6.24746
-6.35166
-6.46575
-6.56844
-6.66411
-6.75629
-6.84291
-6.92268
-6.99668
-7.06607
-7.13101
-7.19103
-7.24581
-7.2953
-7.33961
-7.37894
-7.41347
-6.255
-6.29429
-6.38214
-6.48407
-6.57975
-6.66995
-6.75718
-6.83997
-6.91699
-6.98869
-7.05585
-7.11858
-7.17659
-7.22962
-7.27766
-7.32083
-7.35938
-7.39346
-6.30448
-6.33753
-6.41179
-6.50245
-6.5911
-6.67587
-6.75824
-6.83713
-6.91123
-6.9805
-7.04539
-7.10598
-7.16205
-7.21344
-7.26013
-7.30225
-7.34004
-7.37368
-6.35493
-6.3824
-6.44418
-6.52333
-6.60412
-6.68281
-6.7598
-6.83424
-6.90486
-6.97126
-7.03355
-7.09176
-7.14572
-7.19531
-7.24053
-7.28149
-7.31843
-7.35151
-6.40438
-6.42693
-6.47783
-6.54589
-6.61834
-6.69051
-6.76179
-6.83136
-6.89803
-6.96114
-7.02054
-7.07613
-7.12781
-7.17545
-7.21908
-7.25877
-7.29475
-7.32719
-6.44984
-6.46829
-6.51027
-6.56836
-6.6326
-6.69816
-6.76369
-6.82826
-6.89073
-6.95029
-7.00658
-7.05943
-7.10869
-7.15429
-7.19621
-7.23456
-7.26949
-7.3012
-6.48715
-6.50248
-6.53769
-6.58769
-6.64468
-6.70416
-6.76437
-6.82422
-6.88259
-6.93863
-6.99183
-7.04193
-7.08879
-7.13233
-7.17254
-7.20949
-7.24334
-7.27426
-6.51023
-6.52356
-6.55445
-6.59905
-6.65085
-6.70574
-6.76184
-6.81794
-6.87296
-6.92599
-6.9765
-7.02419
-7.0689
-7.11056
-7.14918
-7.18482
-7.21759
-7.24769
-6.5095
-6.52226
-6.55199
-6.59504
-6.64514
-6.69828
-6.75265
-6.80705
-6.86037
-6.91173
-6.9606
-7.0067
-7.04993
-7.09022
-7.12762
-7.16219
-7.19407
-7.22348
-6.47687
-6.49135
-6.5247
-6.57188
-6.62539
-6.68108
-6.73745
-6.79343
-6.84785
-6.89979
-6.94886
-6.99486
-7.03778
-7.07761
-7.11446
-7.14845
-7.17977
-7.20864
-6.42994
-6.44748
-6.48748
-6.54216
-6.60169
-6.66198
-6.72224
-6.7815
-6.83839
-6.89207
-6.94225
-6.98893
-7.03214
-7.072
-7.10864
-7.14232
-7.17322
-7.20171
-6.36967
-6.39231
-6.443
-6.50851
-6.57591
-6.64216
-6.70768
-6.77138
-6.83161
-6.88761
-6.93941
-6.98715
-7.03093
-7.07094
-7.10746
-7.14083
-7.17136
-7.19945
-6.29821
-6.32888
-6.39519
-6.47419
-6.55013
-6.62308
-6.69487
-6.7637
-6.8276
-6.88619
-6.93985
-6.98882
-7.03327
-7.07345
-7.1098
-7.14277
-7.17278
-7.20029
-6.21626
-6.25979
-6.34776
-6.44145
-6.52521
-6.60533
-6.68431
-6.75865
-6.82619
-6.88731
-6.9428
-6.99297
-7.038
-7.07829
-7.11441
-7.14698
-7.17651
-7.2036
-6.12284
-6.18741
-6.30404
-6.41153
-6.50098
-6.58823
-6.67504
-6.75524
-6.82657
-6.89031
-6.9476
-6.99874
-7.04404
-7.08407
-7.11959
-7.15138
-7.18005
-7.20636
-6.01536
-6.114
-6.26586
-6.38502
-6.47819
-6.57186
-6.66568
-6.75114
-6.82626
-6.89295
-6.95241
-7.00486
-7.05069
-7.09067
-7.12573
-7.15682
-7.18472
-7.21051
-5.89268
-6.0458
-6.23192
-6.35811
-6.45641
-6.55808
-6.65792
-6.74676
-6.82432
-6.89305
-6.95395
-7.00716
-7.0532
-7.09295
-7.12753
-7.15794
-7.18496
-7.21002
-5.7613
-6.00305
-6.21232
-6.3317
-6.43482
-6.54764
-6.65529
-6.74851
-6.82922
-6.90063
-6.96349
-7.01782
-7.06418
-7.10359
-7.13753
-7.1672
-7.19343
-7.21834
-5.58316
-5.98222
-6.2229
-6.32378
-6.4219
-6.53886
-6.65001
-6.74569
-6.82881
-6.90262
-6.96772
-7.02386
-7.07121
-7.11055
-7.14312
-7.17049
-7.19439
-7.21591
-5.31009
-5.91066
-6.216
-6.327
-6.43286
-6.55867
-6.67687
-6.77776
-6.86466
-6.9403
-7.00612
-7.06269
-7.10973
-7.14762
-7.17669
-7.19878
-7.21733
-7.23173
-8.1075
-8.10761
-8.10775
-8.10672
-8.10299
-8.09718
-8.09167
-8.08888
-8.09013
-8.09481
-8.10211
-8.11164
-8.1231
-8.13594
-8.14957
-8.16343
-8.17715
-8.19038
-8.20295
-8.2145
-8.22496
-8.23418
-8.24215
-8.24874
-8.25407
-8.25822
-8.26143
-8.26376
-8.26541
-8.26649
-8.26722
-8.26772
-8.26818
-8.26849
-8.26877
-8.26916
-8.26992
-8.27113
-8.27292
-8.27528
-8.27826
-8.28177
-8.28579
-8.29022
-8.29511
-8.30044
-8.3062
-8.31218
-8.31831
-8.32442
-8.33051
-8.33646
-8.34228
-8.34789
-8.35329
-8.35848
-8.36355
-8.36852
-8.37355
-8.37869
-8.38409
-8.38981
-8.39608
-8.40282
-8.40987
-8.41677
-8.42325
-8.42929
-8.43531
-8.4416
-8.44962
-8.45998
-8.47608
-8.50176
-8.53438
-8.58098
-8.6659
-8.79621
-8.96674
-9.16452
-9.37482
-9.58227
-9.77548
-9.9462
-10.0908
-10.2079
-10.2992
-10.3665
-10.4129
-10.4404
-10.4513
-10.4474
-10.4306
-10.4025
-10.3644
-10.3173
-10.262
-10.1995
-10.1303
-10.0549
-9.97343
-9.88631
-9.7938
-9.69629
-9.59406
-9.48748
-9.37668
-9.26199
-9.14357
-9.02179
-8.8968
-8.76892
-8.63823
-8.50522
-8.37023
-8.23395
-8.09673
-7.95886
-7.8201
-7.68067
-7.54064
-7.40048
-7.2598
-7.11846
-6.97534
-6.83031
-6.68263
-6.53255
-6.37936
-6.22392
-6.06624
-5.90788
-5.74927
-5.59214
-5.43715
-5.28639
-5.13996
-4.99827
-4.85989
-4.72387
-4.58837
-4.45112
-4.30968
-4.16153
-4.00514
-3.84013
-3.66843
-3.49341
-3.32064
-3.15673
-3.00939
-2.88489
-2.78735
-2.71601
-2.66379
-2.615
-2.54519
-2.42044
-2.2001
-1.83945
-1.29568
-0.533438
0.467284
1.70619
3.15877
4.77792
6.49855
8.245
9.94079
11.5219
12.9424
14.175
15.2099
16.0511
16.7145
17.2212
17.5964
17.863
18.0884
18.2713
-8.11112
-8.11169
-8.11286
-8.11271
-8.10963
-8.10607
-8.10499
-8.10688
-8.11119
-8.1175
-8.1256
-8.13521
-8.14599
-8.15748
-8.16933
-8.18115
-8.19276
-8.20387
-8.21427
-8.22383
-8.23254
-8.24029
-8.24708
-8.25283
-8.25756
-8.26119
-8.26381
-8.26552
-8.26654
-8.26694
-8.26689
-8.26639
-8.26563
-8.2649
-8.26446
-8.26441
-8.26491
-8.26603
-8.2679
-8.27048
-8.27381
-8.27784
-8.28258
-8.28795
-8.29382
-8.29999
-8.30635
-8.31276
-8.31918
-8.3255
-8.33167
-8.33762
-8.34333
-8.34871
-8.35379
-8.35857
-8.36312
-8.36748
-8.37189
-8.37652
-8.3815
-8.38694
-8.39302
-8.39961
-8.40635
-8.4126
-8.41794
-8.42207
-8.42378
-8.42374
-8.42899
-8.44517
-8.46912
-8.48949
-8.51397
-8.57197
-8.68183
-8.84187
-9.04093
-9.26092
-9.48259
-9.69097
-9.87677
-10.0352
-10.1655
-10.2685
-10.3468
-10.4031
-10.4403
-10.4607
-10.466
-10.4578
-10.4376
-10.4068
-10.3668
-10.3185
-10.2626
-10.1997
-10.1302
-10.0545
-9.97291
-9.88567
-9.79313
-9.69555
-9.59333
-9.48676
-9.37604
-9.26132
-9.14294
-9.02115
-8.89622
-8.76833
-8.63765
-8.50448
-8.36938
-8.23278
-8.09526
-7.95701
-7.81809
-7.67856
-7.53863
-7.39844
-7.25806
-7.11714
-6.97486
-6.83075
-6.68442
-6.5355
-6.38366
-6.22906
-6.07203
-5.91338
-5.75399
-5.59489
-5.43737
-5.2832
-5.13314
-4.9875
-4.84564
-4.70658
-4.56891
-4.43044
-4.28861
-4.14077
-3.98511
-3.82082
-3.64916
-3.47335
-3.29855
-3.13118
-2.97914
-2.84949
-2.74737
-2.67331
-2.62167
-2.57824
-2.51972
-2.41316
-2.21817
-1.88949
-1.3828
-0.660545
0.300365
1.50273
2.9242
4.51887
6.22166
7.9564
9.64593
11.2252
12.6485
13.8884
14.9355
15.7927
16.4703
16.9894
17.3773
17.6561
17.884
18.0413
-8.11349
-8.11286
-8.11232
-8.11194
-8.1115
-8.1124
-8.11577
-8.12132
-8.12849
-8.13696
-8.14644
-8.1566
-8.16716
-8.17782
-8.1884
-8.19866
-8.20846
-8.21763
-8.22607
-8.23369
-8.24048
-8.24635
-8.25132
-8.25533
-8.25842
-8.26055
-8.26182
-8.26229
-8.26213
-8.26145
-8.26046
-8.25932
-8.25829
-8.25754
-8.25726
-8.25753
-8.25846
-8.26012
-8.26257
-8.2658
-8.26982
-8.27453
-8.27985
-8.28565
-8.29181
-8.29819
-8.30472
-8.31131
-8.31785
-8.32424
-8.33039
-8.33622
-8.34168
-8.34672
-8.35133
-8.35554
-8.35942
-8.36314
-8.36692
-8.37087
-8.37502
-8.37949
-8.38449
-8.38974
-8.39444
-8.3974
-8.39826
-8.39849
-8.40034
-8.40664
-8.42291
-8.45797
-8.5169
-8.59622
-8.69568
-8.82189
-8.97341
-9.14487
-9.32811
-9.51301
-9.69027
-9.85312
-9.99759
-10.1216
-10.2247
-10.3074
-10.3707
-10.4163
-10.4462
-10.4615
-10.4634
-10.4533
-10.4324
-10.4016
-10.362
-10.3143
-10.2589
-10.1964
-10.1273
-10.0519
-9.97063
-9.88377
-9.7916
-9.69431
-9.59233
-9.48605
-9.37573
-9.26141
-9.14348
-9.02205
-8.8974
-8.76963
-8.63909
-8.50588
-8.37059
-8.23364
-8.0956
-7.95658
-7.81688
-7.6766
-7.53621
-7.39561
-7.25492
-7.1136
-6.97158
-6.82819
-6.68318
-6.53582
-6.38625
-6.2339
-6.07889
-5.92127
-5.76233
-5.6027
-5.44404
-5.28739
-5.13415
-4.98492
-4.8395
-4.69725
-4.55729
-4.41805
-4.27701
-4.13168
-3.97992
-3.82087
-3.6547
-3.48396
-3.31275
-3.14711
-2.99414
-2.86111
-2.75347
-2.67309
-2.61593
-2.57019
-2.51482
-2.41929
-2.24443
-1.94522
-1.4757
-0.7956
0.122334
1.28493
2.67347
4.2437
5.92998
7.65478
9.33975
10.9188
12.3459
13.5944
14.6536
15.5245
16.2165
16.7497
17.1495
17.4372
17.6576
17.7673
-8.11714
-8.11591
-8.1153
-8.11727
-8.12085
-8.12566
-8.13185
-8.13925
-8.14764
-8.15673
-8.16632
-8.17615
-8.18603
-8.19573
-8.20512
-8.21401
-8.22232
-8.2299
-8.2367
-8.24266
-8.24777
-8.25198
-8.25532
-8.25776
-8.25936
-8.26013
-8.26018
-8.25959
-8.25852
-8.25712
-8.25557
-8.25401
-8.25266
-8.25165
-8.25115
-8.25128
-8.25217
-8.25389
-8.25651
-8.26
-8.26434
-8.26944
-8.2752
-8.28148
-8.28813
-8.29499
-8.30193
-8.3088
-8.31547
-8.32184
-8.32782
-8.33339
-8.3385
-8.3431
-8.34723
-8.35085
-8.35401
-8.35671
-8.35904
-8.36108
-8.36308
-8.36516
-8.36719
-8.36823
-8.36765
-8.36708
-8.36946
-8.3765
-8.39092
-8.42035
-8.47364
-8.55472
-8.66182
-8.78855
-8.92756
-9.07441
-9.22587
-9.38011
-9.53466
-9.68555
-9.82877
-9.96071
-10.0788
-10.1813
-10.2675
-10.3372
-10.391
-10.4298
-10.4548
-10.4667
-10.4665
-10.4552
-10.4339
-10.4034
-10.3642
-10.3167
-10.2618
-10.1997
-10.1309
-10.0558
-9.97485
-9.88825
-9.79629
-9.69929
-9.59745
-9.49112
-9.38073
-9.2666
-9.1489
-9.02775
-8.90331
-8.77577
-8.64542
-8.51246
-8.37716
-8.24015
-8.10178
-7.96223
-7.82176
-7.68063
-7.53928
-7.39774
-7.25597
-7.11367
-6.97096
-6.82744
-6.68278
-6.53636
-6.38801
-6.23724
-6.0839
-5.92771
-5.76936
-5.6098
-5.4504
-5.29195
-5.13561
-4.98206
-4.83161
-4.68436
-4.54005
-4.39786
-4.25585
-4.11175
-3.96368
-3.81078
-3.65266
-3.49078
-3.32792
-3.16916
-3.02035
-2.88785
-2.77688
-2.68993
-2.62427
-2.57049
-2.51037
-2.41651
-2.25191
-1.97286
-1.53252
-0.888051
-0.00766605
1.12013
2.48086
4.03211
5.70737
7.42674
9.11098
10.6938
12.1284
13.3866
14.4551
15.3334
16.0315
16.5687
16.9687
17.2516
17.4514
17.5153
-8.12231
-8.12197
-8.12361
-8.128
-8.1339
-8.14082
-8.14853
-8.15686
-8.16571
-8.17487
-8.18418
-8.19345
-8.20254
-8.2113
-8.21962
-8.22735
-8.23443
-8.24075
-8.24629
-8.25096
-8.25477
-8.25768
-8.25974
-8.26094
-8.26134
-8.26099
-8.26
-8.25847
-8.25657
-8.25445
-8.25231
-8.2503
-8.24862
-8.24741
-8.24684
-8.24701
-8.248
-8.24985
-8.25261
-8.25621
-8.26064
-8.26579
-8.27158
-8.27789
-8.2846
-8.29153
-8.29851
-8.30539
-8.31202
-8.31825
-8.324
-8.32923
-8.33392
-8.33795
-8.34128
-8.34372
-8.34518
-8.34584
-8.34593
-8.34564
-8.34524
-8.34458
-8.34296
-8.3405
-8.33965
-8.34444
-8.35918
-8.38742
-8.43355
-8.50195
-8.59447
-8.70731
-8.83405
-8.96905
-9.10858
-9.25023
-9.39236
-9.53335
-9.67124
-9.80357
-9.92783
-10.0417
-10.1433
-10.2315
-10.3058
-10.366
-10.4125
-10.4461
-10.4672
-10.4764
-10.4744
-10.462
-10.4401
-10.4093
-10.37
-10.3226
-10.2679
-10.2061
-10.1377
-10.063
-9.98222
-9.89579
-9.80397
-9.70714
-9.60538
-9.49896
-9.38828
-9.27394
-9.15606
-9.03489
-8.9105
-8.78323
-8.6531
-8.5205
-8.38554
-8.24884
-8.11053
-7.97095
-7.83016
-7.68864
-7.54654
-7.40426
-7.26144
-7.11838
-6.97482
-6.83096
-6.68608
-6.54017
-6.39235
-6.24269
-6.09061
-5.93644
-5.77958
-5.62133
-5.46208
-5.30305
-5.1446
-4.9874
-4.83237
-4.68021
-4.53122
-4.38491
-4.24044
-4.09611
-3.95088
-3.80355
-3.65396
-3.50242
-3.35095
-3.20283
-3.06258
-2.93488
-2.82448
-2.7335
-2.66037
-2.59729
-2.52914
-2.43139
-2.27024
-2.00359
-1.58512
-0.969548
-0.121247
0.976601
2.31357
3.84901
5.51607
7.23329
8.92055
10.5114
11.9571
13.2263
14.3038
15.1883
15.8901
16.4278
16.8233
17.0946
17.2685
17.2922
-8.12616
-8.12738
-8.13248
-8.13898
-8.14612
-8.15399
-8.16242
-8.17118
-8.18016
-8.1892
-8.1982
-8.20699
-8.2155
-8.22357
-8.23113
-8.23806
-8.2443
-8.24976
-8.25443
-8.25822
-8.26114
-8.26316
-8.26433
-8.26464
-8.26418
-8.26302
-8.26128
-8.25905
-8.25651
-8.25382
-8.25121
-8.24882
-8.24686
-8.24544
-8.24468
-8.24466
-8.24543
-8.247
-8.2494
-8.25261
-8.25661
-8.26134
-8.26674
-8.27275
-8.27931
-8.28614
-8.293
-8.29977
-8.30632
-8.31234
-8.31771
-8.32237
-8.32623
-8.32905
-8.3307
-8.33114
-8.33049
-8.32917
-8.3275
-8.32534
-8.32231
-8.31829
-8.31414
-8.31251
-8.31773
-8.33493
-8.37011
-8.42736
-8.50729
-8.60658
-8.7206
-8.84494
-8.97558
-9.10967
-9.24535
-9.38111
-9.51546
-9.64671
-9.77308
-9.89268
-10.0038
-10.105
-10.1951
-10.2732
-10.3389
-10.3922
-10.4333
-10.4625
-10.4803
-10.4873
-10.4838
-10.4705
-10.4481
-10.417
-10.3777
-10.3306
-10.2761
-10.2146
-10.1464
-10.0719
-9.99131
-9.90495
-9.81318
-9.71629
-9.6145
-9.50801
-9.39722
-9.28254
-9.16439
-9.04303
-8.91867
-8.79146
-8.66159
-8.52929
-8.39484
-8.25853
-8.12065
-7.98141
-7.84094
-7.69954
-7.55751
-7.41501
-7.27202
-7.12863
-6.98489
-6.84075
-6.69597
-6.55035
-6.40346
-6.25494
-6.10457
-5.95231
-5.7977
-5.64121
-5.48321
-5.32442
-5.16536
-5.00649
-4.84887
-4.69343
-4.54068
-4.39059
-4.24295
-4.09723
-3.9529
-3.80906
-3.66558
-3.52266
-3.38157
-3.24413
-3.1132
-2.9923
-2.885
-2.79309
-2.71547
-2.64571
-2.57092
-2.46946
-2.31053
-2.05414
-1.6547
-1.06519
-0.246718
0.822222
2.13527
3.6536
5.3107
7.02511
8.71639
10.3162
11.7725
13.0519
14.1379
15.0289
15.735
16.2734
16.6647
16.9248
17.077
17.072
-8.12761
-8.13098
-8.13836
-8.14587
-8.15364
-8.16206
-8.1709
-8.1799
-8.18893
-8.19788
-8.20665
-8.21513
-8.22324
-8.23086
-8.23794
-8.24438
-8.25014
-8.25512
-8.25931
-8.26263
-8.2651
-8.26667
-8.26738
-8.26726
-8.2664
-8.26485
-8.26272
-8.26015
-8.25731
-8.25441
-8.25166
-8.2492
-8.24716
-8.24563
-8.24467
-8.24432
-8.24458
-8.24545
-8.24702
-8.24934
-8.25247
-8.25638
-8.26102
-8.26627
-8.27198
-8.27799
-8.28425
-8.29077
-8.29735
-8.30314
-8.30773
-8.31118
-8.31343
-8.31433
-8.31392
-8.31231
-8.30957
-8.30576
-8.30093
-8.29518
-8.28868
-8.28233
-8.27827
-8.28046
-8.29535
-8.32967
-8.38734
-8.46785
-8.56751
-8.68154
-8.80519
-8.93498
-9.06829
-9.20306
-9.33757
-9.47033
-9.59987
-9.72469
-9.84336
-9.95451
-10.057
-10.1498
-10.2321
-10.3035
-10.3635
-10.4121
-10.4494
-10.4757
-10.4914
-10.4969
-10.4926
-10.4788
-10.4562
-10.4251
-10.3859
-10.3391
-10.2849
-10.2236
-10.1556
-10.0813
-10.0007
-9.91437
-9.82257
-9.72561
-9.62383
-9.51736
-9.40657
-9.29175
-9.17346
-9.052
-8.92771
-8.80062
-8.67104
-8.53912
-8.40525
-8.26951
-8.13233
-7.99378
-7.85409
-7.71331
-7.57201
-7.43005
-7.28768
-7.14472
-7.00153
-6.85767
-6.7135
-6.56852
-6.42278
-6.27556
-6.12705
-5.97656
-5.82421
-5.66969
-5.51348
-5.3558
-5.19733
-5.03843
-4.87996
-4.72287
-4.56761
-4.41475
-4.26426
-4.1165
-3.97128
-3.82855
-3.68821
-3.55066
-3.41647
-3.28699
-3.16379
-3.04953
-2.94636
-2.85583
-2.77678
-2.70397
-2.62589
-2.52355
-2.36833
-2.1225
-1.74109
-1.17638
-0.386509
0.653709
1.94176
3.44084
5.0854
6.79484
8.4877
10.0929
11.5563
12.8429
13.9354
14.8319
15.5418
16.0815
16.4698
16.7213
16.8579
16.836
-8.1226
-8.12753
-8.13589
-8.14455
-8.15353
-8.16289
-8.17239
-8.1818
-8.19105
-8.20004
-8.20873
-8.21705
-8.22496
-8.23239
-8.23929
-8.24557
-8.25119
-8.25606
-8.26015
-8.2634
-8.26581
-8.26733
-8.26802
-8.26789
-8.26702
-8.26546
-8.26331
-8.26071
-8.25787
-8.25496
-8.2522
-8.24968
-8.2475
-8.24569
-8.24433
-8.24343
-8.24302
-8.24316
-8.24404
-8.24574
-8.24834
-8.25178
-8.25598
-8.2607
-8.26567
-8.27083
-8.27632
-8.28202
-8.28735
-8.29145
-8.29409
-8.29532
-8.29498
-8.29304
-8.28946
-8.28408
-8.2769
-8.26801
-8.25779
-8.24687
-8.23613
-8.22779
-8.22614
-8.2369
-8.26569
-8.31631
-8.38938
-8.48282
-8.59243
-8.71377
-8.84298
-8.97712
-9.11373
-9.25071
-9.38624
-9.51866
-9.6464
-9.7681
-9.88275
-9.98945
-10.0873
-10.1756
-10.2536
-10.3211
-10.3779
-10.4238
-10.459
-10.4838
-10.4985
-10.5035
-10.4989
-10.485
-10.4626
-10.4317
-10.3928
-10.3462
-10.2922
-10.2311
-10.1633
-10.0891
-10.0087
-9.92254
-9.83087
-9.73405
-9.63239
-9.5261
-9.41545
-9.30086
-9.18271
-9.06146
-8.93744
-8.81076
-8.68159
-8.55031
-8.41714
-8.28225
-8.1459
-8.0083
-7.86956
-7.72991
-7.5896
-7.44877
-7.30744
-7.16562
-7.02334
-6.8805
-6.73719
-6.59321
-6.44837
-6.30242
-6.15527
-6.00645
-5.85588
-5.70335
-5.54891
-5.39285
-5.2356
-5.07756
-4.91943
-4.76193
-4.60563
-4.45116
-4.29883
-4.14924
-4.00278
-3.8599
-3.72086
-3.58606
-3.45595
-3.33152
-3.21387
-3.10484
-3.00583
-2.91782
-2.83967
-2.76683
-2.68892
-2.58866
-2.43911
-2.20409
-1.83924
-1.29652
-0.532014
0.481855
1.74497
3.22333
4.85336
6.55423
8.24329
9.84777
11.3123
12.601
13.6964
14.5959
15.3085
15.8492
16.2358
16.482
16.6087
16.5786
-8.10662
-8.11208
-8.12225
-8.13358
-8.14487
-8.1559
-8.16654
-8.17671
-8.18641
-8.19563
-8.20442
-8.21277
-8.22071
-8.22817
-8.23514
-8.24152
-8.24727
-8.2523
-8.25661
-8.2601
-8.26279
-8.26464
-8.26568
-8.2659
-8.26538
-8.26417
-8.26237
-8.26007
-8.25741
-8.2545
-8.25148
-8.24851
-8.24576
-8.24332
-8.24129
-8.23977
-8.23893
-8.23893
-8.23986
-8.2417
-8.24447
-8.24808
-8.25243
-8.25732
-8.26254
-8.26785
-8.27284
-8.27644
-8.27798
-8.27794
-8.2767
-8.27383
-8.26891
-8.26164
-8.25178
-8.23915
-8.22384
-8.20628
-8.18748
-8.16915
-8.15395
-8.14587
-8.14983
-8.17057
-8.21179
-8.27519
-8.35976
-8.46245
-8.57927
-8.70638
-8.8406
-8.97917
-9.11962
-9.25976
-9.39755
-9.53111
-9.65899
-9.78023
-9.894
-9.99945
-10.0958
-10.1823
-10.2588
-10.3249
-10.3805
-10.4256
-10.4604
-10.4851
-10.5
-10.5052
-10.5009
-10.4876
-10.4655
-10.4351
-10.3966
-10.3503
-10.2967
-10.236
-10.1687
-10.095
-10.015
-9.92935
-9.83813
-9.74173
-9.64044
-9.53456
-9.4243
-9.31017
-9.19247
-9.07169
-8.94811
-8.82204
-8.69347
-8.56287
-8.43042
-8.29646
-8.16099
-8.02435
-7.88666
-7.74828
-7.60904
-7.46935
-7.32908
-7.18846
-7.04716
-6.90557
-6.76325
-6.62031
-6.47632
-6.33149
-6.18534
-6.03795
-5.88883
-5.73808
-5.58544
-5.43125
-5.27572
-5.11924
-4.9624
-4.80565
-4.64967
-4.49485
-4.34181
-4.19104
-4.04344
-3.89973
-3.76066
-3.62655
-3.49813
-3.3761
-3.26161
-3.15582
-3.06
-2.97449
-2.89836
-2.82722
-2.75172
-2.65546
-2.51294
-2.28884
-1.93937
-1.4159
-0.67303
0.318759
1.56
3.018
4.63052
6.31747
7.99567
9.59183
11.0501
12.3346
13.4278
14.327
15.0401
15.5813
15.9673
16.211
16.3326
16.3006
-8.07876
-8.08499
-8.09871
-8.11419
-8.12875
-8.14206
-8.15426
-8.16546
-8.1758
-8.1854
-8.19442
-8.20293
-8.21101
-8.21865
-8.22583
-8.23246
-8.23851
-8.24392
-8.24865
-8.25265
-8.25591
-8.25838
-8.26009
-8.26104
-8.26127
-8.26081
-8.25981
-8.2583
-8.25637
-8.25403
-8.25134
-8.24843
-8.24547
-8.24266
-8.24026
-8.23853
-8.23777
-8.23814
-8.23964
-8.24215
-8.24555
-8.24964
-8.25423
-8.25895
-8.26337
-8.26695
-8.26902
-8.2687
-8.26583
-8.26089
-8.25389
-8.24417
-8.23131
-8.21491
-8.19472
-8.17073
-8.1434
-8.11388
-8.08436
-8.058
-8.03885
-8.03177
-8.04178
-8.07249
-8.12571
-8.20114
-8.29641
-8.40786
-8.53175
-8.66485
-8.80436
-8.94765
-9.09226
-9.2359
-9.37646
-9.51219
-9.64195
-9.76484
-9.87991
-9.98629
-10.0833
-10.1705
-10.2475
-10.3143
-10.3707
-10.4168
-10.4526
-10.4783
-10.4941
-10.5003
-10.4971
-10.4846
-10.4633
-10.4337
-10.396
-10.3507
-10.2981
-10.2384
-10.1721
-10.0993
-10.0203
-9.93535
-9.84489
-9.74913
-9.64843
-9.54312
-9.43344
-9.3198
-9.2027
-9.08248
-8.95944
-8.8339
-8.70607
-8.57608
-8.44425
-8.3109
-8.17616
-8.04024
-7.90351
-7.76606
-7.62787
-7.48909
-7.34984
-7.21016
-7.07001
-6.92943
-6.78825
-6.64633
-6.50351
-6.35971
-6.21466
-6.06837
-5.9206
-5.77124
-5.6202
-5.46765
-5.31375
-5.15885
-5.00336
-4.8477
-4.69237
-4.53784
-4.38476
-4.2338
-4.08581
-3.94151
-3.80184
-3.66751
-3.53939
-3.41837
-3.30552
-3.20187
-3.1085
-3.0255
-2.95185
-2.88323
-2.81077
-2.71856
-2.58205
-2.36666
-2.02894
-1.51997
-0.793853
0.179353
1.40026
2.83713
4.42876
6.09587
7.75557
9.3352
10.7793
12.0528
13.1383
14.0331
14.7442
15.285
15.6708
15.9141
16.0343
16.0051
-8.04236
-8.05035
-8.06892
-8.08933
-8.10754
-8.12337
-8.1373
-8.14961
-8.16064
-8.17065
-8.17992
-8.18862
-8.1969
-8.20477
-8.21221
-8.21915
-8.2256
-8.23149
-8.23681
-8.2415
-8.24554
-8.24887
-8.25154
-8.25354
-8.25491
-8.25571
-8.25605
-8.256
-8.25565
-8.25501
-8.2541
-8.2529
-8.25148
-8.25002
-8.2488
-8.24813
-8.24834
-8.24956
-8.25177
-8.25478
-8.25835
-8.26213
-8.26575
-8.26872
-8.27049
-8.27035
-8.26772
-8.26239
-8.25408
-8.24231
-8.22665
-8.2067
-8.18221
-8.15292
-8.11879
-8.08021
-8.03825
-7.995
-7.95392
-7.91974
-7.89787
-7.8935
-7.91088
-7.95212
-8.01706
-8.10352
-8.20815
-8.32715
-8.45715
-8.59551
-8.73983
-8.88755
-9.03615
-9.18337
-9.3272
-9.46619
-9.59924
-9.72524
-9.84317
-9.9522
-10.0517
-10.1413
-10.2207
-10.2898
-10.3485
-10.3967
-10.4346
-10.4622
-10.4799
-10.4877
-10.4859
-10.475
-10.4554
-10.4276
-10.3918
-10.3482
-10.2972
-10.2391
-10.1741
-10.1025
-10.0247
-9.94079
-9.85122
-9.75629
-9.6563
-9.55155
-9.44245
-9.32927
-9.21258
-9.09271
-8.97003
-8.8448
-8.71742
-8.58789
-8.45648
-8.32346
-8.1892
-8.05381
-7.91776
-7.78096
-7.64366
-7.50572
-7.3675
-7.22877
-7.08977
-6.9502
-6.81024
-6.66939
-6.52785
-6.38519
-6.24154
-6.09647
-5.95004
-5.80194
-5.65235
-5.50125
-5.34884
-5.19542
-5.04125
-4.88675
-4.73223
-4.5783
-4.42547
-4.27461
-4.12644
-3.98195
-3.842
-3.70778
-3.58011
-3.46023
-3.349
-3.24764
-3.15678
-3.07659
-3.00553
-2.93951
-2.86946
-2.78009
-2.64712
-2.43672
-2.10551
-1.60499
-0.889652
0.0691089
1.27179
2.68698
4.25449
5.89581
7.52954
9.08451
10.507
11.7627
12.8352
13.7215
14.428
14.9669
15.3525
15.5968
15.7182
15.6949
-8.00331
-8.01337
-8.03706
-8.06242
-8.08424
-8.10253
-8.1181
-8.13144
-8.14305
-8.15338
-8.16284
-8.17169
-8.18013
-8.18817
-8.19583
-8.20308
-8.20994
-8.21636
-8.22233
-8.2278
-8.23275
-8.23713
-8.24097
-8.24428
-8.24712
-8.24957
-8.25172
-8.25365
-8.2555
-8.25734
-8.2592
-8.26109
-8.26299
-8.26495
-8.26711
-8.26962
-8.27262
-8.27611
-8.28002
-8.28416
-8.28825
-8.29179
-8.29424
-8.29506
-8.29373
-8.28956
-8.2818
-8.26982
-8.25311
-8.23117
-8.20363
-8.17028
-8.13114
-8.08631
-8.0362
-7.98171
-7.92452
-7.86759
-7.81571
-7.77516
-7.75187
-7.75029
-7.77424
-7.82463
-7.89887
-7.99343
-8.10477
-8.22914
-8.36332
-8.50522
-8.6531
-8.80434
-8.95631
-9.10691
-9.25446
-9.39752
-9.53472
-9.66481
-9.78675
-9.8997
-10.003
-10.0963
-10.1794
-10.2519
-10.3139
-10.3653
-10.4061
-10.4364
-10.4566
-10.467
-10.468
-10.4601
-10.4436
-10.4186
-10.3853
-10.344
-10.295
-10.2386
-10.1752
-10.1049
-10.0282
-9.94541
-9.85666
-9.7624
-9.66288
-9.55845
-9.44957
-9.33663
-9.22
-9.10017
-8.97754
-8.85249
-8.72529
-8.59606
-8.465
-8.33242
-8.19863
-8.06388
-7.92843
-7.79242
-7.65593
-7.51901
-7.38178
-7.24421
-7.10634
-6.96803
-6.82925
-6.68976
-6.54948
-6.40818
-6.26582
-6.1221
-5.97697
-5.83028
-5.68209
-5.53243
-5.38148
-5.22945
-5.07663
-4.92334
-4.76993
-4.61688
-4.46477
-4.31438
-4.16654
-4.02233
-3.88282
-3.74925
-3.62267
-3.50425
-3.39493
-3.29574
-3.2072
-3.12914
-3.05985
-2.9951
-2.92584
-2.83701
-2.70452
-2.49472
-2.16444
-1.66596
-0.95551
-0.00688083
1.17962
2.57252
4.11243
5.72213
7.32264
8.84527
10.239
11.4709
12.5253
13.3992
14.0984
14.6339
15.0189
15.2647
15.389
15.3735
-7.9674
-7.97921
-8.00758
-8.03742
-8.06237
-8.08272
-8.09958
-8.11366
-8.12561
-8.13608
-8.14558
-8.15446
-8.16292
-8.17103
-8.17881
-8.1863
-8.19351
-8.20042
-8.20701
-8.21325
-8.21914
-8.22465
-8.22983
-8.23469
-8.23931
-8.24374
-8.24811
-8.25252
-8.25712
-8.26199
-8.26724
-8.27289
-8.27899
-8.28549
-8.29242
-8.29974
-8.30737
-8.31512
-8.3228
-8.33006
-8.33645
-8.34132
-8.34398
-8.34365
-8.33959
-8.33096
-8.31699
-8.29695
-8.27029
-8.23657
-8.19565
-8.14764
-8.09301
-8.0324
-7.9668
-7.89741
-7.82602
-7.75571
-7.69217
-7.64399
-7.61896
-7.62017
-7.64781
-7.70046
-7.77557
-7.87072
-7.98319
-8.10995
-8.2482
-8.39529
-8.5481
-8.70321
-8.85824
-9.01206
-9.16348
-9.31081
-9.45248
-9.58717
-9.71377
-9.83133
-9.93917
-10.0369
-10.1243
-10.2012
-10.2675
-10.3229
-10.3677
-10.4021
-10.4266
-10.4413
-10.4466
-10.4427
-10.4298
-10.4079
-10.3774
-10.3384
-10.2914
-10.2366
-10.1745
-10.1053
-10.0294
-9.94721
-9.85897
-9.76498
-9.66557
-9.56121
-9.45226
-9.33927
-9.22258
-9.10278
-8.98025
-8.85545
-8.72851
-8.59969
-8.46907
-8.33708
-8.20387
-8.06989
-7.93518
-7.80011
-7.66453
-7.52878
-7.39264
-7.25642
-7.11977
-6.98292
-6.84545
-6.70752
-6.56862
-6.42891
-6.28788
-6.14564
-6.00183
-5.85658
-5.70971
-5.5614
-5.41176
-5.26097
-5.10937
-4.95717
-4.80484
-4.65277
-4.50166
-4.35217
-4.20535
-4.06218
-3.92401
-3.79192
-3.66719
-3.5507
-3.44353
-3.34616
-3.25923
-3.18199
-3.11291
-3.04732
-2.9766
-2.88535
-2.74976
-2.53569
-2.20069
-1.69823
-0.987702
-0.0455502
1.12624
2.49592
4.00439
5.57677
7.13715
8.62057
9.97885
11.1815
12.2132
13.0713
13.7607
14.2911
14.6747
14.9221
15.0502
15.0435
-7.93992
-7.95276
-7.98476
-8.01813
-8.04539
-8.06709
-8.08468
-8.09903
-8.11099
-8.12132
-8.13067
-8.1394
-8.14772
-8.15572
-8.1635
-8.1711
-8.17856
-8.18585
-8.19297
-8.1999
-8.20667
-8.2133
-8.21986
-8.22637
-8.23294
-8.23964
-8.24658
-8.2539
-8.26174
-8.27022
-8.27947
-8.28955
-8.3005
-8.31227
-8.32478
-8.33787
-8.35127
-8.36461
-8.37743
-8.38915
-8.39906
-8.40632
-8.41005
-8.40926
-8.40304
-8.3904
-8.37052
-8.34262
-8.30621
-8.26101
-8.20718
-8.14526
-8.07626
-8.00143
-7.92214
-7.83966
-7.75554
-7.67319
-7.60056
-7.54727
-7.51883
-7.51607
-7.53755
-7.58213
-7.64938
-7.73812
-7.84632
-7.97161
-8.11133
-8.26185
-8.41891
-8.57915
-8.74017
-8.89993
-9.05659
-9.20856
-9.35479
-9.49419
-9.62569
-9.74824
-9.8611
-9.96386
-10.0565
-10.1388
-10.2108
-10.2721
-10.323
-10.3634
-10.3936
-10.4136
-10.4234
-10.4233
-10.4135
-10.3943
-10.3661
-10.3291
-10.2837
-10.2301
-10.1688
-10.1002
-10.0248
-9.94287
-9.85484
-9.76097
-9.66169
-9.55739
-9.44853
-9.33555
-9.21898
-9.09934
-8.97713
-8.85272
-8.7263
-8.59803
-8.46811
-8.33685
-8.20453
-8.07143
-7.93777
-7.80372
-7.66936
-7.53479
-7.40003
-7.26513
-7.12996
-6.99453
-6.85862
-6.72216
-6.58487
-6.44665
-6.30718
-6.1664
-6.02406
-5.88018
-5.73467
-5.58766
-5.43924
-5.28964
-5.13914
-4.98807
-4.83683
-4.68596
-4.53611
-4.38808
-4.24291
-4.10166
-3.96559
-3.83579
-3.71332
-3.59895
-3.49345
-3.39707
-3.31014
-3.23188
-3.16067
-3.09186
-3.01691
-2.91999
-2.77709
-2.55368
-2.20829
-1.69671
-0.98208
-0.0436617
1.11436
2.45919
3.93216
5.46148
6.97532
8.41326
9.73043
10.8988
11.904
12.743
13.42
13.9437
14.3249
14.5735
14.7054
14.7077
-7.92453
-7.938
-7.97213
-8.00762
-8.03615
-8.05839
-8.07603
-8.09015
-8.10172
-8.11163
-8.12056
-8.1289
-8.13688
-8.14464
-8.1523
-8.1599
-8.16748
-8.17501
-8.18254
-8.19004
-8.19759
-8.20521
-8.21301
-8.22103
-8.22942
-8.23826
-8.24773
-8.25796
-8.26914
-8.2814
-8.29489
-8.30968
-8.3258
-8.34315
-8.36158
-8.38079
-8.40038
-8.41976
-8.43827
-8.45505
-8.46918
-8.47958
-8.48513
-8.48467
-8.4771
-8.46133
-8.43645
-8.4017
-8.35666
-8.30122
-8.23581
-8.16134
-8.0793
-7.99155
-7.9001
-7.80696
-7.71466
-7.62779
-7.55329
-7.49601
-7.45788
-7.44176
-7.44989
-7.48251
-7.53909
-7.61848
-7.71878
-7.83748
-7.97171
-8.11844
-8.27437
-8.43654
-8.60194
-8.76713
-8.9293
-9.08701
-9.2391
-9.38448
-9.52212
-9.65121
-9.77101
-9.88095
-9.98069
-10.07
-10.1488
-10.2169
-10.2742
-10.3208
-10.3563
-10.3809
-10.3945
-10.3976
-10.3905
-10.3736
-10.3471
-10.3116
-10.2674
-10.2148
-10.1544
-10.0864
-10.0114
-9.92985
-9.84211
-9.74853
-9.64957
-9.54557
-9.43705
-9.3244
-9.20825
-9.08905
-8.96745
-8.84368
-8.71804
-8.59056
-8.46161
-8.33131
-8.20015
-8.06817
-7.9358
-7.80298
-7.67005
-7.53683
-7.40362
-7.27014
-7.13661
-7.00265
-6.86842
-6.73344
-6.59784
-6.4611
-6.32328
-6.18394
-6.04315
-5.90068
-5.75661
-5.61097
-5.46389
-5.31562
-5.16644
-5.01678
-4.86703
-4.71787
-4.5699
-4.42406
-4.28128
-4.14271
-4.00927
-3.88207
-3.7617
-3.64887
-3.54377
-3.44683
-3.3578
-3.27646
-3.2007
-3.12634
-3.04426
-2.93833
-2.78359
-2.54583
-2.18475
-1.65984
-0.937751
-0.00119238
1.14316
2.4606
3.8938
5.37445
6.83614
8.22313
9.4946
10.6246
11.5998
12.4169
13.0794
13.5945
13.9721
14.2211
14.3564
14.3672
-7.92304
-7.9375
-7.97197
-8.00775
-8.03628
-8.05808
-8.07497
-8.08819
-8.09889
-8.10803
-8.11628
-8.12403
-8.13154
-8.13898
-8.14645
-8.15399
-8.16162
-8.16934
-8.17718
-8.18516
-8.19333
-8.20175
-8.21049
-8.21966
-8.22939
-8.23985
-8.25125
-8.26381
-8.27778
-8.29335
-8.3107
-8.32991
-8.35098
-8.37378
-8.39806
-8.42339
-8.44924
-8.47482
-8.49927
-8.5215
-8.54033
-8.55446
-8.56256
-8.56325
-8.55526
-8.53737
-8.50865
-8.46833
-8.41609
-8.35198
-8.27666
-8.1913
-8.09783
-7.99862
-7.89661
-7.79514
-7.6983
-7.61048
-7.5348
-7.47284
-7.42691
-7.40036
-7.39648
-7.41659
-7.46053
-7.5272
-7.61532
-7.72288
-7.84758
-7.98664
-8.13707
-8.2957
-8.45956
-8.62536
-8.79035
-8.95254
-9.11012
-9.26183
-9.4063
-9.54294
-9.6707
-9.78899
-9.89665
-9.99345
-10.079
-10.1533