/*--------------------------------*- C++ -*----------------------------------*\
  =========                 |
  \\      /  F ield         | OpenFOAM: The Open Source CFD Toolbox
   \\    /   O peration     | Website:  https://openfoam.org
    \\  /    A nd           | Version:  13
     \\/     M anipulation  |
\*---------------------------------------------------------------------------*/
FoamFile
{
    format      ascii;
    class       surfaceScalarField;
    location    "200";
    object      phi;
}
// * * * * * * * * * * * * * * * * * * * * * * * * * * * * * * * * * * * * * //

dimensions      [0 3 -1 0 0 0 0];

internalField   nonuniform List<scalar> 
24170
(
3.04468e-06
1.43718e-07
2.88554e-06
1.59115e-07
2.74112e-06
1.44405e-07
2.61418e-06
1.26944e-07
2.50124e-06
1.12936e-07
2.40592e-06
9.5325e-08
2.32787e-06
7.80575e-08
2.26369e-06
6.41877e-08
2.20994e-06
5.37471e-08
2.16423e-06
4.57156e-08
2.12586e-06
3.83745e-08
2.09562e-06
3.02408e-08
2.07336e-06
2.22678e-08
2.05736e-06
1.59994e-08
2.04819e-06
9.17857e-09
2.04529e-06
2.89975e-09
2.04737e-06
-2.07701e-09
-6.57813e-09
2.05395e-06
3.48888e-06
7.20791e-08
3.53671e-06
1.1125e-07
3.56057e-06
1.20521e-07
3.56737e-06
1.20141e-07
3.56267e-06
1.17629e-07
3.54833e-06
1.09662e-07
3.52632e-06
1.00073e-07
3.49942e-06
9.10833e-08
3.46683e-06
8.63381e-08
3.43035e-06
8.22068e-08
3.39509e-06
7.3634e-08
3.36312e-06
6.2214e-08
3.33302e-06
5.23722e-08
3.30339e-06
4.56322e-08
3.27488e-06
3.76925e-08
3.24864e-06
2.91342e-08
3.22452e-06
2.20432e-08
1.73239e-08
3.20062e-06
3.67755e-06
5.70442e-08
3.69179e-06
9.70156e-08
3.70765e-06
1.04659e-07
3.72528e-06
1.02515e-07
3.74253e-06
1.00382e-07
3.75734e-06
9.48588e-08
3.76938e-06
8.80387e-08
3.77844e-06
8.20198e-08
3.78561e-06
7.91768e-08
3.79116e-06
7.6664e-08
3.79405e-06
7.07411e-08
3.79392e-06
6.23534e-08
3.79155e-06
5.47392e-08
3.78834e-06
4.88472e-08
3.78355e-06
4.24834e-08
3.7767e-06
3.59914e-08
3.76822e-06
3.05202e-08
2.63359e-08
3.75921e-06
3.93692e-06
4.55138e-08
3.94716e-06
8.67617e-08
3.95538e-06
9.6431e-08
3.96235e-06
9.55375e-08
3.96905e-06
9.36818e-08
3.97486e-06
8.905e-08
3.98013e-06
8.27635e-08
3.98518e-06
7.69748e-08
3.99099e-06
7.3369e-08
3.99768e-06
6.99699e-08
4.00406e-06
6.43721e-08
4.00921e-06
5.71983e-08
4.01344e-06
5.05115e-08
4.01748e-06
4.48101e-08
4.02095e-06
3.90233e-08
4.02347e-06
3.34725e-08
4.02526e-06
2.87269e-08
2.5143e-08
4.02646e-06
4.21653e-06
3.61133e-08
4.22617e-06
7.71211e-08
4.23414e-06
8.84679e-08
4.24067e-06
8.90186e-08
4.24624e-06
8.81108e-08
4.25073e-06
8.45643e-08
4.25441e-06
7.90947e-08
4.25762e-06
7.37624e-08
4.26126e-06
6.97353e-08
4.26548e-06
6.57495e-08
4.26957e-06
6.02924e-08
4.27297e-06
5.37958e-08
4.27589e-06
4.75959e-08
4.27869e-06
4.20169e-08
4.28113e-06
3.6585e-08
4.28308e-06
3.1527e-08
4.28468e-06
2.71269e-08
2.36419e-08
4.28618e-06
4.5167e-06
2.85036e-08
4.52654e-06
6.72756e-08
4.53345e-06
8.15577e-08
4.53834e-06
8.41263e-08
4.54354e-06
8.29067e-08
4.5484e-06
7.97015e-08
4.55243e-06
7.50647e-08
4.55599e-06
7.02048e-08
4.55971e-06
6.60144e-08
4.56371e-06
6.1758e-08
4.56745e-06
5.65487e-08
4.5706e-06
5.06511e-08
4.57329e-06
4.4905e-08
4.57574e-06
3.95694e-08
4.57784e-06
3.44925e-08
4.57954e-06
2.98249e-08
4.58094e-06
2.57275e-08
2.23344e-08
4.58225e-06
4.83857e-06
2.26597e-08
4.84716e-06
5.86855e-08
4.85432e-06
7.441e-08
4.86005e-06
7.84017e-08
4.86549e-06
7.74727e-08
4.87042e-06
7.47747e-08
4.87467e-06
7.08126e-08
4.87853e-06
6.63567e-08
4.88239e-06
6.21494e-08
4.88634e-06
5.78168e-08
4.89002e-06
5.28683e-08
4.8932e-06
4.74724e-08
4.89597e-06
4.21452e-08
4.89842e-06
3.71134e-08
4.90054e-06
3.23797e-08
4.90232e-06
2.80498e-08
4.90382e-06
2.4222e-08
2.09468e-08
4.90521e-06
5.18389e-06
1.83499e-08
5.19154e-06
5.1037e-08
5.1991e-06
6.68541e-08
5.2057e-06
7.18063e-08
5.21145e-06
7.17155e-08
5.21654e-06
6.96843e-08
5.22106e-06
6.62945e-08
5.22519e-06
6.22328e-08
5.2292e-06
5.81326e-08
5.23316e-06
5.3867e-08
5.23683e-06
4.91918e-08
5.24008e-06
4.42323e-08
5.24291e-06
3.93105e-08
5.24542e-06
3.46139e-08
5.24759e-06
3.02115e-08
5.24945e-06
2.61895e-08
5.25106e-06
2.26064e-08
1.9467e-08
5.25255e-06
5.55429e-06
1.53956e-08
5.56136e-06
4.39815e-08
5.56904e-06
5.91761e-08
5.57608e-06
6.477e-08
5.58223e-06
6.55778e-08
5.58767e-06
6.42407e-08
5.59254e-06
6.1435e-08
5.59695e-06
5.7826e-08
5.60112e-06
5.39605e-08
5.60512e-06
4.98712e-08
5.60883e-06
4.54843e-08
5.61215e-06
4.09098e-08
5.61509e-06
3.63787e-08
5.61767e-06
3.20361e-08
5.61992e-06
2.79612e-08
5.62188e-06
2.42312e-08
5.6236e-06
2.08857e-08
1.7905e-08
5.62517e-06
5.95194e-06
1.3229e-08
5.9584e-06
3.75331e-08
5.9659e-06
5.16721e-08
5.97299e-06
5.76806e-08
5.97937e-06
5.91995e-08
5.98516e-06
5.84586e-08
5.99037e-06
5.62182e-08
5.99511e-06
5.30905e-08
5.99952e-06
4.95543e-08
6.00365e-06
4.5739e-08
6.00746e-06
4.1678e-08
6.01089e-06
3.7479e-08
6.01395e-06
3.33212e-08
6.01666e-06
2.93313e-08
6.01904e-06
2.55844e-08
6.02113e-06
2.21403e-08
6.02298e-06
1.90327e-08
1.62339e-08
6.02466e-06
6.37867e-06
1.13763e-08
6.3844e-06
3.18073e-08
6.39148e-06
4.46026e-08
6.39842e-06
5.07433e-08
6.4049e-06
5.27217e-08
6.41091e-06
5.24571e-08
6.41642e-06
5.07101e-08
6.42147e-06
4.80372e-08
6.42616e-06
4.48679e-08
6.43051e-06
4.13869e-08
6.43451e-06
3.76845e-08
6.43812e-06
3.3874e-08
6.44135e-06
3.00956e-08
6.44422e-06
2.64595e-08
6.44677e-06
2.30393e-08
6.44902e-06
1.98826e-08
6.45104e-06
1.7018e-08
1.44174e-08
6.45286e-06
5.74227e-06
9.93824e-09
5.74658e-06
2.7513e-08
5.75215e-06
3.9035e-08
5.75784e-06
4.50532e-08
5.76332e-06
4.72422e-08
5.7685e-06
4.72804e-08
5.77333e-06
4.58864e-08
5.7778e-06
4.35658e-08
5.78196e-06
4.07127e-08
5.78582e-06
3.75333e-08
5.78936e-06
3.41448e-08
5.79257e-06
3.06622e-08
5.79546e-06
2.72053e-08
5.79805e-06
2.38716e-08
5.80037e-06
2.07292e-08
5.80243e-06
1.78204e-08
5.80428e-06
1.51704e-08
1.2752e-08
5.80595e-06
6.99967e-06
8.42655e-09
7.0041e-06
2.30914e-08
7.01003e-06
3.3112e-08
7.01631e-06
3.87735e-08
7.02253e-06
4.10253e-08
7.02852e-06
4.12953e-08
7.03418e-06
4.02316e-08
7.03947e-06
3.82721e-08
7.04442e-06
3.57686e-08
7.04902e-06
3.29371e-08
7.05325e-06
2.99106e-08
7.05712e-06
2.68e-08
7.06062e-06
2.37097e-08
7.06377e-06
2.07235e-08
7.0666e-06
1.79017e-08
7.06914e-06
1.52817e-08
7.07142e-06
1.28858e-08
1.06885e-08
7.07349e-06
8.53244e-06
6.83919e-09
8.53691e-06
1.86262e-08
8.5431e-06
2.6927e-08
8.54992e-06
3.19549e-08
8.55685e-06
3.40988e-08
8.56365e-06
3.4499e-08
8.57018e-06
3.37127e-08
8.57635e-06
3.2104e-08
8.58215e-06
2.99724e-08
8.58756e-06
2.75263e-08
8.59257e-06
2.49015e-08
8.59717e-06
2.22037e-08
8.60136e-06
1.95213e-08
8.60516e-06
1.69253e-08
8.6086e-06
1.44665e-08
8.61171e-06
1.21777e-08
8.61452e-06
1.00776e-08
8.14399e-09
8.61707e-06
1.04009e-05
5.19786e-09
1.04053e-05
1.41532e-08
1.04117e-05
2.0547e-08
1.0419e-05
2.4652e-08
1.04266e-05
2.64929e-08
1.04343e-05
2.68973e-08
1.04417e-05
2.63118e-08
1.04487e-05
2.50241e-08
1.04554e-05
2.3274e-08
1.04617e-05
2.12417e-08
1.04676e-05
1.90542e-08
1.0473e-05
1.68045e-08
1.04779e-05
1.45673e-08
1.04825e-05
1.24003e-08
1.04866e-05
1.03447e-08
1.04903e-05
8.42829e-09
1.04938e-05
6.66669e-09
5.04071e-09
1.04969e-05
1.26785e-05
3.53922e-09
1.2683e-05
9.63955e-09
1.26895e-05
1.39759e-08
1.26973e-05
1.68908e-08
1.27056e-05
1.82149e-08
1.2714e-05
1.84782e-08
1.27223e-05
1.79992e-08
1.27304e-05
1.69849e-08
1.27381e-05
1.56089e-08
1.27453e-05
1.40094e-08
1.27521e-05
1.22883e-08
1.27583e-05
1.0521e-08
1.27642e-05
8.76554e-09
1.27695e-05
7.06594e-09
1.27744e-05
5.45423e-09
1.27789e-05
3.95221e-09
1.2783e-05
2.57302e-09
1.29985e-09
1.27867e-05
1.54549e-05
1.86461e-09
1.54595e-05
4.98506e-09
1.54664e-05
7.11126e-09
1.54747e-05
8.6005e-09
1.54837e-05
9.19156e-09
1.5493e-05
9.16035e-09
1.55024e-05
8.68705e-09
1.55115e-05
7.8901e-09
1.55202e-05
6.87138e-09
1.55285e-05
5.71505e-09
1.55363e-05
4.48646e-09
1.55436e-05
3.23513e-09
1.55504e-05
1.99934e-09
1.55566e-05
8.08485e-10
1.55624e-05
-3.16026e-10
1.55677e-05
-1.35841e-09
1.55726e-05
-2.3096e-09
-3.18182e-09
1.55771e-05
1.88394e-05
1.10794e-10
1.88444e-05
-5.01628e-11
1.88519e-05
-3.57435e-10
1.8861e-05
-5.18753e-10
1.88711e-05
-8.58764e-10
1.88816e-05
-1.32058e-09
1.88921e-05
-1.87061e-09
1.89025e-05
-2.48895e-09
1.89125e-05
-3.15373e-09
1.89221e-05
-3.84472e-09
1.89311e-05
-4.544e-09
1.89396e-05
-5.23476e-09
1.89475e-05
-5.90229e-09
1.89549e-05
-6.53379e-09
1.89617e-05
-7.11936e-09
1.8968e-05
-7.65018e-09
1.89738e-05
-8.1213e-09
-8.5406e-09
1.89791e-05
2.29654e-05
-1.92019e-09
2.29714e-05
-6.03934e-09
2.29802e-05
-9.19583e-09
2.2991e-05
-1.12627e-08
2.30028e-05
-1.26882e-08
2.30151e-05
-1.3655e-08
2.30276e-05
-1.42937e-08
2.30398e-05
-1.4698e-08
2.30516e-05
-1.49424e-08
2.30628e-05
-1.50853e-08
2.30734e-05
-1.51668e-08
2.30834e-05
-1.52089e-08
2.30927e-05
-1.52237e-08
2.31014e-05
-1.52165e-08
2.31095e-05
-1.51892e-08
2.3117e-05
-1.51403e-08
2.31239e-05
-1.50682e-08
-1.49766e-08
2.31304e-05
1.68124e-05
-3.61744e-09
1.68174e-05
-1.10028e-08
1.68245e-05
-1.63473e-08
1.6833e-05
-1.97308e-08
1.68422e-05
-2.18368e-08
1.68516e-05
-2.30686e-08
1.68609e-05
-2.36693e-08
1.68701e-05
-2.38174e-08
1.68788e-05
-2.36662e-08
1.68871e-05
-2.33406e-08
1.68948e-05
-2.29207e-08
1.69021e-05
-2.24564e-08
1.69088e-05
-2.19754e-08
1.69151e-05
-2.14945e-08
1.69209e-05
-2.10201e-08
1.69264e-05
-2.05537e-08
1.69314e-05
-2.0093e-08
-1.96384e-08
1.69361e-05
1.46364e-05
-5.41967e-09
1.46416e-05
-1.62275e-08
1.46489e-05
-2.3619e-08
1.46572e-05
-2.80343e-08
1.46659e-05
-3.05898e-08
1.46748e-05
-3.19258e-08
1.46835e-05
-3.23571e-08
1.46918e-05
-3.21429e-08
1.46997e-05
-3.1527e-08
1.4707e-05
-3.06957e-08
1.47139e-05
-2.97668e-08
1.47202e-05
-2.88086e-08
1.47261e-05
-2.78618e-08
1.47316e-05
-2.69478e-08
1.47366e-05
-2.60749e-08
1.47413e-05
-2.52424e-08
1.47457e-05
-2.44456e-08
-2.36795e-08
1.47497e-05
1.27422e-05
-7.48535e-09
1.2748e-05
-2.20028e-08
1.27556e-05
-3.12624e-08
1.2764e-05
-3.63704e-08
1.27725e-05
-3.91482e-08
1.2781e-05
-4.04347e-08
1.27892e-05
-4.05522e-08
1.2797e-05
-3.98601e-08
1.28041e-05
-3.86978e-08
1.28107e-05
-3.73149e-08
1.28168e-05
-3.58572e-08
1.28224e-05
-3.44089e-08
1.28276e-05
-3.30174e-08
1.28324e-05
-3.17046e-08
1.28368e-05
-3.04753e-08
1.28409e-05
-2.93233e-08
1.28446e-05
-2.8238e-08
-2.72087e-08
1.28482e-05
1.10935e-05
-1.00245e-08
1.11e-05
-2.85433e-08
1.11081e-05
-3.93574e-08
1.11165e-05
-4.47717e-08
1.11249e-05
-4.75743e-08
1.11332e-05
-4.86653e-08
1.11409e-05
-4.83166e-08
1.11481e-05
-4.70382e-08
1.11547e-05
-4.52583e-08
1.11607e-05
-4.32828e-08
1.11661e-05
-4.12824e-08
1.1171e-05
-3.93521e-08
1.11756e-05
-3.754e-08
1.11797e-05
-3.5864e-08
1.11836e-05
-3.43196e-08
1.11871e-05
-3.28931e-08
1.11905e-05
-3.15632e-08
-3.03127e-08
1.11936e-05
9.6585e-06
-1.33132e-08
9.66599e-06
-3.60217e-08
9.67444e-06
-4.78054e-08
9.68279e-06
-5.31192e-08
9.69103e-06
-5.58071e-08
9.69893e-06
-5.65655e-08
9.70623e-06
-5.56115e-08
9.71285e-06
-5.36525e-08
9.71881e-06
-5.12237e-08
9.72418e-06
-4.86451e-08
9.72902e-06
-4.61164e-08
9.7334e-06
-4.37383e-08
9.73741e-06
-4.15476e-08
9.74111e-06
-3.95555e-08
9.74454e-06
-3.77449e-08
9.74774e-06
-3.6092e-08
9.75074e-06
-3.45674e-08
-3.31485e-08
9.75358e-06
8.40968e-06
-1.76353e-08
8.41822e-06
-4.45609e-08
8.42674e-06
-5.63261e-08
8.43477e-06
-6.11433e-08
8.44264e-06
-6.36719e-08
8.45008e-06
-6.40039e-08
8.45684e-06
-6.23605e-08
8.46285e-06
-5.96624e-08
8.46827e-06
-5.66454e-08
8.47316e-06
-5.35293e-08
8.47759e-06
-5.05422e-08
8.48164e-06
-4.77902e-08
8.48538e-06
-4.52798e-08
8.48884e-06
-4.30182e-08
8.49208e-06
-4.09776e-08
8.49512e-06
-3.91263e-08
8.49799e-06
-3.74336e-08
-3.58687e-08
8.50071e-06
7.323e-06
-2.33517e-08
7.33273e-06
-5.42808e-08
7.34087e-06
-6.44624e-08
7.34829e-06
-6.85598e-08
7.35556e-06
-7.09396e-08
7.36238e-06
-7.08183e-08
7.36861e-06
-6.85825e-08
7.37424e-06
-6.52951e-08
7.37948e-06
-6.18784e-08
7.38439e-06
-5.8435e-08
7.38898e-06
-5.51284e-08
7.39327e-06
-5.20855e-08
7.39726e-06
-4.92659e-08
7.40096e-06
-4.67077e-08
7.40436e-06
-4.43833e-08
7.40751e-06
-4.22707e-08
7.41045e-06
-4.03656e-08
-3.8648e-08
7.41323e-06
6.37732e-06
-3.06078e-08
6.38799e-06
-6.49412e-08
6.39547e-06
-7.19433e-08
6.40243e-06
-7.55087e-08
6.40939e-06
-7.78971e-08
6.41616e-06
-7.75868e-08
6.42289e-06
-7.53014e-08
6.42974e-06
-7.2147e-08
6.43652e-06
-6.86505e-08
6.44306e-06
-6.49764e-08
6.44925e-06
-6.13134e-08
6.45487e-06
-5.77017e-08
6.45987e-06
-5.42605e-08
6.46422e-06
-5.10602e-08
6.46795e-06
-4.81111e-08
6.47112e-06
-4.54385e-08
6.47384e-06
-4.30743e-08
-4.09939e-08
6.47618e-06
5.55754e-06
-4.26837e-08
5.5701e-06
-7.74954e-08
5.58206e-06
-8.38997e-08
5.59571e-06
-8.91509e-08
5.61028e-06
-9.24585e-08
5.62493e-06
-9.22348e-08
5.63882e-06
-8.91877e-08
5.65116e-06
-8.44854e-08
5.66167e-06
-7.91539e-08
5.67003e-06
-7.33279e-08
5.67601e-06
-6.72939e-08
5.67984e-06
-6.15245e-08
5.68179e-06
-5.62125e-08
5.68222e-06
-5.14851e-08
5.68144e-06
-4.73312e-08
5.67976e-06
-4.37556e-08
5.67745e-06
-4.07577e-08
-3.83574e-08
5.67482e-06
4.89285e-06
-1.07923e-07
4.94441e-06
-1.29048e-07
4.98673e-06
-1.26215e-07
5.01907e-06
-1.21491e-07
5.04032e-06
-1.13698e-07
5.05096e-06
-1.02867e-07
5.05209e-06
-9.03139e-08
5.04456e-06
-7.69518e-08
5.02955e-06
-6.41361e-08
5.00949e-06
-5.32651e-08
4.98649e-06
-4.42923e-08
4.9616e-06
-3.66277e-08
4.93559e-06
-3.02019e-08
4.90931e-06
-2.51952e-08
4.8836e-06
-2.1618e-08
4.85909e-06
-1.92464e-08
4.83593e-06
-1.75884e-08
-1.65873e-08
4.81416e-06
4.09475e-06
3.96571e-06
3.83949e-06
3.718e-06
3.6043e-06
3.50144e-06
3.41112e-06
3.33417e-06
3.27004e-06
3.21677e-06
3.17248e-06
3.13585e-06
3.10565e-06
3.08046e-06
3.05884e-06
3.0396e-06
3.02201e-06
3.00542e-06
-1.74118e-08
1.75334e-08
-3.75257e-08
2.03382e-08
-4.79787e-08
1.06537e-08
-3.63215e-08
-1.14615e-08
-2.80411e-09
-3.33444e-08
4.46722e-08
-4.73121e-08
9.85124e-08
-5.37275e-08
1.53887e-07
-5.52579e-08
2.08117e-07
-5.41489e-08
2.59725e-07
-5.15106e-08
3.07715e-07
-4.79222e-08
3.51603e-07
-4.3801e-08
3.91106e-07
-3.94426e-08
4.26218e-07
-3.50315e-08
4.56932e-07
-3.06607e-08
4.83396e-07
-2.63869e-08
5.05694e-07
-2.22517e-08
5.24049e-07
-1.82777e-08
5.38561e-07
-1.44645e-08
5.49483e-07
-1.08369e-08
5.56871e-07
-7.33784e-09
5.60986e-07
-4.01558e-09
5.6177e-07
-7.21597e-10
5.59233e-07
2.65843e-09
5.53386e-07
5.92244e-09
5.44575e-07
8.95334e-09
5.33082e-07
1.15765e-08
5.19509e-07
1.3734e-08
5.04084e-07
1.55164e-08
4.87308e-07
1.69512e-08
4.69595e-07
1.77963e-08
4.51603e-07
1.81708e-08
4.33571e-07
1.81084e-08
4.16068e-07
1.76771e-08
3.9919e-07
1.69272e-08
3.83719e-07
1.56393e-08
3.69779e-07
1.39725e-08
3.57906e-07
1.20431e-08
3.47973e-07
9.95853e-09
3.40311e-07
7.83782e-09
3.34547e-07
5.78112e-09
3.30822e-07
3.89731e-09
3.28572e-07
2.25044e-09
3.27817e-07
9.11068e-10
3.27863e-07
-7.6565e-11
3.28713e-07
-7.18979e-10
3.29777e-07
-1.11362e-09
3.31154e-07
-1.27132e-09
3.32299e-07
-1.2132e-09
3.33338e-07
-9.44532e-10
3.33768e-07
-5.02682e-10
3.33698e-07
1.55042e-10
3.32642e-07
9.95234e-10
3.30816e-07
1.88413e-09
3.28053e-07
2.67305e-09
3.24817e-07
3.27031e-09
3.21151e-07
3.58399e-09
3.17588e-07
3.58979e-09
3.14122e-07
3.37509e-09
3.10981e-07
3.17801e-09
3.0761e-07
3.3143e-09
3.03604e-07
4.04802e-09
2.98159e-07
5.40222e-09
2.90287e-07
7.90776e-09
2.78717e-07
1.15501e-08
2.63745e-07
1.50168e-08
2.46232e-07
1.7457e-08
2.26454e-07
1.98843e-08
1.94605e-07
3.16293e-08
1.37083e-07
5.77266e-08
4.00176e-08
9.6709e-08
-1.0328e-07
1.43523e-07
-3.05961e-07
2.02373e-07
-5.63362e-07
2.57614e-07
-8.60313e-07
2.96782e-07
-1.17804e-06
3.17934e-07
-1.49958e-06
3.21455e-07
-1.80829e-06
3.08855e-07
-2.09372e-06
2.85309e-07
-2.34789e-06
2.54244e-07
-2.56881e-06
2.20795e-07
-2.7567e-06
1.87897e-07
-2.91458e-06
1.57714e-07
-3.04582e-06
1.3121e-07
-3.1547e-06
1.08715e-07
-3.24483e-06
9.00683e-08
-3.31989e-06
7.48641e-08
-3.38269e-06
6.2612e-08
-3.4357e-06
5.27071e-08
-3.48059e-06
4.454e-08
-3.51887e-06
3.79846e-08
-3.55189e-06
3.28331e-08
-3.58065e-06
2.86194e-08
-3.60588e-06
2.51116e-08
-3.62812e-06
2.2123e-08
-3.6478e-06
1.95653e-08
-3.66521e-06
1.72902e-08
-3.68052e-06
1.51903e-08
-3.69389e-06
1.32532e-08
-3.70564e-06
1.16336e-08
-3.71593e-06
1.01731e-08
-3.72473e-06
8.69951e-09
-3.73219e-06
7.37947e-09
-3.7384e-06
6.15004e-09
-3.74343e-06
4.94419e-09
-3.74749e-06
3.96826e-09
-3.75066e-06
3.04284e-09
-3.75292e-06
2.10729e-09
-3.7544e-06
1.29082e-09
-3.7552e-06
5.92388e-10
-3.75529e-06
-1.61619e-10
-3.75478e-06
-7.63856e-10
-3.7538e-06
-1.27883e-09
-3.75227e-06
-1.8346e-09
-3.7503e-06
-2.31761e-09
-3.74799e-06
-2.66601e-09
-3.7454e-06
-2.9731e-09
-3.74263e-06
-3.17319e-09
-3.73964e-06
-3.41919e-09
-3.73635e-06
-3.73128e-09
-3.73287e-06
-3.94302e-09
-3.72926e-06
-4.10507e-09
-3.72548e-06
-4.30214e-09
-3.72164e-06
-4.39989e-09
-3.71784e-06
-4.36955e-09
-3.71419e-06
-4.26428e-09
-3.71053e-06
-4.26055e-09
-3.70689e-06
-4.29215e-09
-3.70353e-06
-3.98264e-09
-3.70054e-06
-3.68177e-09
-3.69754e-06
-3.64358e-09
-3.69489e-06
-3.37233e-09
-3.69265e-06
-2.88122e-09
-3.69066e-06
-2.68847e-09
-3.68863e-06
-2.6142e-09
-3.68643e-06
-2.80555e-09
-3.68381e-06
-3.04867e-09
-3.68101e-06
-3.14657e-09
-3.67803e-06
-3.04552e-09
-3.67534e-06
-2.62222e-09
-3.67342e-06
-1.71888e-09
-3.67324e-06
2.76575e-11
-3.67655e-06
3.51461e-09
-3.68461e-06
8.25928e-09
-3.69808e-06
1.37005e-08
-3.71793e-06
2.01073e-08
-3.74427e-06
2.66585e-08
-3.77595e-06
3.2053e-08
-3.81152e-06
3.6033e-08
-3.84882e-06
3.78671e-08
-3.88492e-06
3.67885e-08
-3.91643e-06
3.23384e-08
-3.93999e-06
2.45401e-08
-3.95208e-06
1.32726e-08
-3.95158e-06
8.49113e-10
-3.93753e-06
-1.24526e-08
-3.9085e-06
-2.72596e-08
-3.86484e-06
-4.16017e-08
-3.80739e-06
-5.52275e-08
-3.73742e-06
-6.74857e-08
-3.65755e-06
-7.72703e-08
-3.56841e-06
-8.63681e-08
-3.46912e-06
-9.64946e-08
-3.35584e-06
-1.10404e-07
-3.22189e-06
-1.31144e-07
-3.05935e-06
-1.59729e-07
-2.86026e-06
-1.9638e-07
-2.61805e-06
-2.39514e-07
-2.3329e-06
-2.82522e-07
-2.01083e-06
-3.19426e-07
-1.66012e-06
-3.48098e-07
-1.29276e-06
-3.64671e-07
-9.08917e-07
-3.81203e-07
-4.81017e-07
-4.25318e-07
-4.40262e-09
-4.74371e-07
4.66405e-07
-4.68869e-07
8.90577e-07
-4.22522e-07
1.25801e-06
-3.65922e-07
1.5579e-06
-2.98519e-07
-1.66298e-07
1.7255e-06
2.25739e-09
1.55008e-08
1.1074e-08
1.19118e-08
4.23241e-08
-2.03504e-08
8.94196e-08
-5.84176e-08
1.40067e-07
-8.39086e-08
1.88272e-07
-9.54513e-08
2.32397e-07
-9.78025e-08
2.72301e-07
-9.51145e-08
3.08087e-07
-8.98953e-08
3.40077e-07
-8.34584e-08
3.68637e-07
-7.64475e-08
3.94072e-07
-6.91949e-08
4.16553e-07
-6.18914e-08
4.36215e-07
-5.46541e-08
4.53144e-07
-4.75579e-08
4.67447e-07
-4.06514e-08
4.79194e-07
-3.39687e-08
4.88485e-07
-2.7529e-08
4.95394e-07
-2.13431e-08
5.00026e-07
-1.54231e-08
5.025e-07
-9.77756e-09
5.0296e-07
-4.42199e-09
5.01629e-07
6.51676e-10
4.98886e-07
5.47023e-09
4.94804e-07
1.00561e-08
4.89443e-07
1.43944e-08
4.8268e-07
1.84003e-08
4.74499e-07
2.20122e-08
4.649e-07
2.51837e-08
4.54104e-07
2.78526e-08
4.42042e-07
2.99282e-08
4.28959e-07
3.13659e-08
4.15015e-07
3.21182e-08
4.00623e-07
3.21778e-08
3.86064e-07
3.15411e-08
3.71585e-07
3.02223e-08
3.57333e-07
2.82717e-08
3.43713e-07
2.57669e-08
3.30888e-07
2.28272e-08
3.19229e-07
1.96001e-08
3.08824e-07
1.6224e-08
2.99956e-07
1.28619e-08
2.92568e-07
9.6656e-09
2.8677e-07
6.7917e-09
2.82338e-07
4.36444e-09
2.79196e-07
2.48525e-09
2.76899e-07
1.17628e-09
2.75257e-07
4.23332e-10
2.73844e-07
1.78027e-10
2.72535e-07
3.99558e-10
2.70993e-07
1.01678e-09
2.69204e-07
1.98046e-09
2.66933e-07
3.23163e-09
2.64123e-07
4.71075e-09
2.60437e-07
6.31024e-09
2.55787e-07
7.93159e-09
2.49868e-07
9.45318e-09
2.426e-07
1.08644e-08
2.33595e-07
1.23404e-08
2.22484e-07
1.4314e-08
2.08434e-07
1.73448e-08
1.90682e-07
2.18378e-08
1.67876e-07
2.81817e-08
1.38e-07
3.78381e-08
9.71359e-08
5.2349e-08
3.89022e-08
7.33291e-08
-4.96671e-08
1.05907e-07
-1.85926e-07
1.56166e-07
-3.77567e-07
2.23171e-07
-6.21293e-07
3.01442e-07
-9.09765e-07
3.85128e-07
-1.23244e-06
4.66197e-07
-1.5661e-06
5.36002e-07
-1.89233e-06
5.83858e-07
-2.19636e-06
6.00812e-07
-2.46426e-06
5.85873e-07
-2.6893e-06
5.46495e-07
-2.87062e-06
4.90196e-07
-3.01255e-06
4.27224e-07
-3.12198e-06
3.63669e-07
-3.2058e-06
3.0457e-07
-3.27044e-06
2.52489e-07
-3.32114e-06
2.08343e-07
-3.36188e-06
1.71888e-07
-3.39554e-06
1.42291e-07
-3.42405e-06
1.18499e-07
-3.44873e-06
9.94277e-08
-3.47039e-06
8.41219e-08
-3.48965e-06
7.17388e-08
-3.50698e-06
6.16038e-08
-3.52255e-06
5.33397e-08
-3.53645e-06
4.6592e-08
-3.54887e-06
4.09355e-08
-3.55991e-06
3.60634e-08
-3.56969e-06
3.18171e-08
-3.57827e-06
2.8058e-08
-3.58574e-06
2.4666e-08
-3.5922e-06
2.15627e-08
-3.59773e-06
1.86898e-08
-3.60225e-06
1.60649e-08
-3.60585e-06
1.36919e-08
-3.60868e-06
1.14569e-08
-3.61068e-06
9.32513e-09
-3.6119e-06
7.31886e-09
-3.61244e-06
5.43726e-09
-3.61233e-06
3.77799e-09
-3.61171e-06
2.31887e-09
-3.61068e-06
9.52491e-10
-3.6092e-06
-3.42598e-10
-3.60732e-06
-1.46065e-09
-3.60517e-06
-2.51076e-09
-3.60273e-06
-3.4214e-09
-3.60008e-06
-4.16224e-09
-3.5973e-06
-4.87721e-09
-3.59438e-06
-5.51682e-09
-3.59133e-06
-6.01429e-09
-3.58821e-06
-6.41203e-09
-3.58498e-06
-6.73749e-09
-3.58174e-06
-7.01203e-09
-3.57861e-06
-7.23538e-09
-3.57551e-06
-7.42978e-09
-3.57237e-06
-7.65649e-09
-3.56925e-06
-7.8543e-09
-3.56619e-06
-7.91935e-09
-3.56312e-06
-7.93131e-09
-3.56004e-06
-7.85129e-09
-3.55708e-06
-7.74679e-09
-3.55442e-06
-7.47673e-09
-3.55197e-06
-6.99265e-09
-3.54974e-06
-6.47632e-09
-3.54779e-06
-6.17242e-09
-3.54585e-06
-5.89273e-09
-3.54404e-06
-5.27494e-09
-3.54256e-06
-4.72993e-09
-3.54142e-06
-4.2965e-09
-3.54068e-06
-4.02339e-09
-3.5404e-06
-3.71974e-09
-3.54074e-06
-3.04527e-09
-3.54184e-06
-2.01681e-09
-3.54392e-06
-4.42758e-10
-3.54735e-06
1.87308e-09
-3.55223e-06
5.07471e-09
-3.55822e-06
9.65024e-09
-3.56527e-06
1.54739e-08
-3.57346e-06
2.2061e-08
-3.58237e-06
2.92374e-08
-3.5918e-06
3.63299e-08
-3.60186e-06
4.2453e-08
-3.61246e-06
4.70109e-08
-3.62312e-06
4.90394e-08
-3.63366e-06
4.79117e-08
-3.64371e-06
4.31263e-08
-3.65219e-06
3.38838e-08
-3.65775e-06
1.98739e-08
-3.65724e-06
1.52807e-09
-3.64746e-06
-2.08216e-08
-3.6269e-06
-4.62596e-08
-3.59377e-06
-7.29011e-08
-3.54728e-06
-9.97446e-08
-3.48704e-06
-1.25501e-07
-3.41214e-06
-1.49866e-07
-3.32127e-06
-1.74745e-07
-3.21168e-06
-2.036e-07
-3.07819e-06
-2.41335e-07
-2.9139e-06
-2.92968e-07
-2.71108e-06
-3.60061e-07
-2.4641e-06
-4.41018e-07
-2.17099e-06
-5.30276e-07
-1.8332e-06
-6.18087e-07
-1.45488e-06
-6.95475e-07
-1.04176e-06
-7.59065e-07
-5.85678e-07
-8.18675e-07
-9.04028e-08
-8.74762e-07
3.91206e-07
-9.05434e-07
8.21968e-07
-9.03875e-07
1.21666e-06
-8.62356e-07
1.58265e-06
-7.87448e-07
1.91053e-06
-6.92756e-07
2.18945e-06
-5.76488e-07
-3.96231e-07
2.42036e-06
6.97306e-09
8.69993e-09
4.47147e-08
-2.55818e-08
1.03619e-07
-7.91334e-08
1.60687e-07
-1.15412e-07
2.06599e-07
-1.29772e-07
2.42189e-07
-1.31002e-07
2.70596e-07
-1.2618e-07
2.94322e-07
-1.1881e-07
3.14824e-07
-1.10373e-07
3.32878e-07
-1.01487e-07
3.48882e-07
-9.24293e-08
3.63053e-07
-8.33419e-08
3.7549e-07
-7.43083e-08
3.86243e-07
-6.53828e-08
3.95309e-07
-5.66055e-08
4.02691e-07
-4.80101e-08
4.08366e-07
-3.96255e-08
4.12336e-07
-3.14762e-08
4.14593e-07
-2.35816e-08
4.15158e-07
-1.59617e-08
4.14045e-07
-8.64433e-09
4.1131e-07
-1.65649e-09
4.07003e-07
4.98304e-09
4.0125e-07
1.12608e-08
3.94163e-07
1.71738e-08
3.85896e-07
2.2706e-08
3.7653e-07
2.78021e-08
3.66193e-07
3.24012e-08
3.54985e-07
3.6434e-08
3.43075e-07
3.98208e-08
3.30564e-07
4.24842e-08
3.17638e-07
4.43542e-08
3.04429e-07
4.53707e-08
2.91171e-07
4.54974e-08
2.78037e-07
4.47159e-08
2.65278e-07
4.30411e-08
2.53073e-07
4.05145e-08
2.41689e-07
3.72098e-08
2.31282e-07
3.32699e-08
2.22045e-07
2.88935e-08
2.14007e-07
2.42943e-08
2.07217e-07
1.97039e-08
2.01558e-07
1.53511e-08
1.96943e-07
1.145e-08
1.93148e-07
8.17655e-09
1.90007e-07
5.6591e-09
1.87233e-07
3.95655e-09
1.84603e-07
3.07347e-09
1.81815e-07
2.96652e-09
1.78661e-07
3.56741e-09
1.74866e-07
4.80261e-09
1.70232e-07
6.62321e-09
1.64462e-07
8.9908e-09
1.57297e-07
1.18712e-08
1.48362e-07
1.52263e-08
1.3726e-07
1.90281e-08
1.23421e-07
2.32766e-08
1.06181e-07
2.8103e-08
8.45076e-08
3.4003e-08
5.68688e-08
4.19686e-08
2.09248e-08
5.3283e-08
-2.63712e-08
6.91563e-08
-8.95729e-08
9.13775e-08
-1.75083e-07
1.23357e-07
-2.91923e-07
1.69179e-07
-4.50169e-07
2.3157e-07
-6.55372e-07
3.11096e-07
-9.04267e-07
4.05046e-07
-1.18735e-06
5.06233e-07
-1.49035e-06
6.04433e-07
-1.79449e-06
6.89244e-07
-2.07888e-06
7.50574e-07
-2.32353e-06
7.80649e-07
-2.51705e-06
7.77375e-07
-2.66039e-06
7.44155e-07
-2.76268e-06
6.88166e-07
-2.83483e-06
6.18648e-07
-2.88798e-06
5.43351e-07
-2.92986e-06
4.69087e-07
-2.96618e-06
3.99967e-07
-2.99995e-06
3.38304e-07
-3.03244e-06
2.84932e-07
-3.06387e-06
2.39728e-07
-3.09403e-06
2.01995e-07
-3.1226e-06
1.70804e-07
-3.14931e-06
1.45142e-07
-3.17399e-06
1.24033e-07
-3.1966e-06
1.06625e-07
-3.21721e-06
9.2181e-08
-3.23589e-06
8.00884e-08
-3.25263e-06
6.99248e-08
-3.26748e-06
6.13481e-08
-3.2806e-06
5.39747e-08
-3.29212e-06
4.75183e-08
-3.30217e-06
4.18049e-08
-3.31085e-06
3.66679e-08
-3.31824e-06
3.19934e-08
-3.32446e-06
2.77172e-08
-3.32959e-06
2.37508e-08
-3.33367e-06
2.00752e-08
-3.33676e-06
1.67307e-08
-3.33897e-06
1.3611e-08
-3.3403e-06
1.06343e-08
-3.34088e-06
7.8613e-09
-3.34076e-06
5.28038e-09
-3.33995e-06
2.90814e-09
-3.33849e-06
7.89029e-10
-3.33647e-06
-1.17424e-09
-3.33393e-06
-2.99397e-09
-3.33097e-06
-4.56584e-09
-3.32765e-06
-5.98084e-09
-3.324e-06
-7.24078e-09
-3.32008e-06
-8.27113e-09
-3.31596e-06
-9.20317e-09
-3.31169e-06
-1.0007e-08
-3.30728e-06
-1.06603e-08
-3.30276e-06
-1.11814e-08
-3.29816e-06
-1.16148e-08
-3.29352e-06
-1.19272e-08
-3.28893e-06
-1.21294e-08
-3.28437e-06
-1.22947e-08
-3.27986e-06
-1.24923e-08
-3.27546e-06
-1.26094e-08
-3.27117e-06
-1.25746e-08
-3.267e-06
-1.24955e-08
-3.26292e-06
-1.23281e-08
-3.25899e-06
-1.21071e-08
-3.25518e-06
-1.17166e-08
-3.25142e-06
-1.12031e-08
-3.24775e-06
-1.06002e-08
-3.24437e-06
-1.00365e-08
-3.24121e-06
-9.51538e-09
-3.23825e-06
-8.72561e-09
-3.23541e-06
-8.02011e-09
-3.23278e-06
-7.37379e-09
-3.23044e-06
-6.73447e-09
-3.22845e-06
-6.01952e-09
-3.22673e-06
-4.92946e-09
-3.22519e-06
-3.58418e-09
-3.22382e-06
-1.71759e-09
-3.22266e-06
8.57733e-10
-3.22177e-06
4.29911e-09
-3.2211e-06
9.07402e-09
-3.22084e-06
1.53006e-08
-3.22126e-06
2.25826e-08
-3.22247e-06
3.05625e-08
-3.2248e-06
3.88265e-08
-3.22867e-06
4.65073e-08
-3.23411e-06
5.27255e-08
-3.24124e-06
5.64793e-08
-3.25012e-06
5.72041e-08
-3.2603e-06
5.37894e-08
-3.27082e-06
4.50112e-08
-3.28047e-06
3.02008e-08
-3.28725e-06
9.12292e-09
-3.28891e-06
-1.8259e-08
-3.2829e-06
-5.12321e-08
-3.26619e-06
-8.84855e-08
-3.23587e-06
-1.2881e-07
-3.18899e-06
-1.7106e-07
-3.12224e-06
-2.15199e-07
-3.03235e-06
-2.63192e-07
-2.9152e-06
-3.19263e-07
-2.7656e-06
-3.89461e-07
-2.57709e-06
-4.79997e-07
-2.34321e-06
-5.92467e-07
-2.06078e-06
-7.21997e-07
-1.73071e-06
-8.58894e-07
-1.35562e-06
-9.91692e-07
-9.39714e-07
-1.10988e-06
-4.84043e-07
-1.21332e-06
-5.24786e-09
-1.29621e-06
4.63257e-07
-1.34221e-06
9.03176e-07
-1.34441e-06
1.30865e-06
-1.30853e-06
1.68193e-06
-1.23485e-06
2.02378e-06
-1.12862e-06
2.32953e-06
-9.97842e-07
2.59518e-06
-8.41543e-07
-6.33972e-07
2.83352e-06
1.91425e-08
-1.03325e-08
8.18407e-08
-8.81423e-08
1.42676e-07
-1.39899e-07
1.84757e-07
-1.57446e-07
2.12361e-07
-1.57345e-07
2.32092e-07
-1.50705e-07
2.47753e-07
-1.41819e-07
2.61073e-07
-1.32109e-07
2.72775e-07
-1.22057e-07
2.83168e-07
-1.11861e-07
2.92375e-07
-1.0162e-07
3.00442e-07
-9.13908e-08
3.07361e-07
-8.12127e-08
3.1311e-07
-7.11145e-08
3.17642e-07
-6.11228e-08
3.20915e-07
-5.1266e-08
3.22879e-07
-4.15753e-08
3.23504e-07
-3.20842e-08
3.22756e-07
-2.28201e-08
3.20626e-07
-1.3814e-08
3.17106e-07
-5.10872e-09
3.12218e-07
3.25217e-09
3.05989e-07
1.12296e-08
2.9849e-07
1.87852e-08
2.89802e-07
2.58822e-08
2.8006e-07
3.24786e-08
2.69372e-07
3.85143e-08
2.57893e-07
4.39166e-08
2.45755e-07
4.86003e-08
2.33143e-07
5.24741e-08
2.20205e-07
5.54533e-08
2.07142e-07
5.74603e-08
1.94115e-07
5.84296e-08
1.81341e-07
5.83158e-08
1.68988e-07
5.71e-08
1.57275e-07
5.47983e-08
1.46352e-07
5.1468e-08
1.36386e-07
4.72188e-08
1.2745e-07
4.22358e-08
1.19611e-07
3.67748e-08
1.12809e-07
3.11234e-08
1.06979e-07
2.55733e-08
1.01949e-07
2.0405e-08
9.75648e-08
1.58677e-08
9.35932e-08
1.21654e-08
8.98312e-08
9.44619e-09
8.60009e-08
7.79588e-09
8.18625e-08
7.23104e-09
7.71227e-08
7.70707e-09
7.15441e-08
9.15529e-09
6.48106e-08
1.15343e-08
5.65855e-08
1.48523e-08
4.64054e-08
1.91604e-08
3.37443e-08
2.45326e-08
1.78761e-08
3.10808e-08
-2.09293e-09
3.89963e-08
-2.74345e-08
4.86053e-08
-5.9809e-08
6.04809e-08
-1.01495e-07
7.56836e-08
-1.55616e-07
9.60989e-08
-2.26571e-07
1.2424e-07
-3.19947e-07
1.62541e-07
-4.4211e-07
2.13542e-07
-5.98707e-07
2.79957e-07
-7.92709e-07
3.63183e-07
-1.02253e-06
4.61394e-07
-1.28009e-06
5.68655e-07
-1.55169e-06
6.76645e-07
-1.81992e-06
7.74447e-07
-2.06517e-06
8.4968e-07
-2.26967e-06
8.93731e-07
-2.42362e-06
9.04511e-07
-2.52759e-06
8.84611e-07
-2.59028e-06
8.40056e-07
-2.6247e-06
7.78564e-07
-2.64379e-06
7.07244e-07
-2.6572e-06
6.32051e-07
-2.67129e-06
5.57422e-07
-2.68882e-06
4.86597e-07
-2.71042e-06
4.21537e-07
-2.73545e-06
3.63295e-07
-2.76271e-06
3.12152e-07
-2.79094e-06
2.67923e-07
-2.81907e-06
2.30075e-07
-2.84626e-06
1.97948e-07
-2.87197e-06
1.70804e-07
-2.89588e-06
1.4788e-07
-2.91784e-06
1.28501e-07
-2.93783e-06
1.1205e-07
-2.95587e-06
9.79728e-08
-2.97196e-06
8.58902e-08
-2.98614e-06
7.54563e-08
-2.99855e-06
6.63198e-08
-3.00932e-06
5.82272e-08
-3.01856e-06
5.0996e-08
-3.0264e-06
4.44513e-08
-3.03293e-06
3.84713e-08
-3.03824e-06
3.29677e-08
-3.04239e-06
2.78491e-08
-3.04545e-06
2.30831e-08
-3.04746e-06
1.87049e-08
-3.04851e-06
1.46303e-08
-3.04865e-06
1.07577e-08
-3.04796e-06
7.14369e-09
-3.04648e-06
3.77613e-09
-3.04429e-06
6.7309e-10
-3.04144e-06
-2.12634e-09
-3.03797e-06
-4.73075e-09
-3.03394e-06
-7.12373e-09
-3.0294e-06
-9.21599e-09
-3.02445e-06
-1.10622e-08
-3.01914e-06
-1.26964e-08
-3.0135e-06
-1.40656e-08
-3.00762e-06
-1.52591e-08
-3.00155e-06
-1.62685e-08
-2.99532e-06
-1.70898e-08
-2.98896e-06
-1.77538e-08
-2.98248e-06
-1.83251e-08
-2.97589e-06
-1.87587e-08
-2.96925e-06
-1.9022e-08
-2.96262e-06
-1.9193e-08
-2.95604e-06
-1.93439e-08
-2.94959e-06
-1.93539e-08
-2.94332e-06
-1.91653e-08