/*--------------------------------*- C++ -*----------------------------------*\
  =========                 |
  \\      /  F ield         | OpenFOAM: The Open Source CFD Toolbox
   \\    /   O peration     | Website:  https://openfoam.org
    \\  /    A nd           | Version:  13
     \\/     M anipulation  |
\*---------------------------------------------------------------------------*/
FoamFile
{
    format      ascii;
    class       volVectorField;
    location    "200";
    object      U;
}
// * * * * * * * * * * * * * * * * * * * * * * * * * * * * * * * * * * * * * //

dimensions      [0 1 -1 0 0 0 0];

internalField   nonuniform List<vector> 
12225
(
(9.76156 0.0540043 0)
(9.29591 0.109164 0)
(8.81692 0.11254 0)
(8.39643 0.0968049 0)
(8.01146 0.0838591 0)
(7.68204 0.068536 0)
(7.41351 0.0534547 0)
(7.19604 0.0360556 0)
(7.00894 0.0413237 0)
(6.85533 0.0569026 0)
(6.7226 0.0495094 0)
(6.61478 0.0256373 0)
(6.53195 0.0126169 0)
(6.47325 0.0161308 0)
(6.43272 0.00415254 0)
(6.41645 -0.0179373 0)
(6.41528 -0.0321247 0)
(6.42348 -0.0233392 0)
(10.0929 0.0553208 0)
(10.2936 0.0922954 0)
(10.4023 0.0965928 0)
(10.4419 0.0954705 0)
(10.4387 0.0938925 0)
(10.4108 0.0876618 0)
(10.3567 0.0800154 0)
(10.2832 0.0750378 0)
(10.2015 0.0667511 0)
(10.0932 0.0568036 0)
(9.98497 0.0526957 0)
(9.885 0.0512768 0)
(9.7989 0.0455541 0)
(9.71179 0.037047 0)
(9.62368 0.0321025 0)
(9.54332 0.0285968 0)
(9.47041 0.0237164 0)
(9.40124 0.0143691 0)
(10.0147 0.0464398 0)
(10.0545 0.062072 0)
(10.0991 0.0667299 0)
(10.1489 0.0689879 0)
(10.1952 0.0732537 0)
(10.2392 0.075043 0)
(10.277 0.0745869 0)
(10.306 0.0733283 0)
(10.3282 0.0741226 0)
(10.3453 0.0751048 0)
(10.3566 0.0721128 0)
(10.36 0.065852 0)
(10.3567 0.0602309 0)
(10.3492 0.0558378 0)
(10.3384 0.0497025 0)
(10.3218 0.043249 0)
(10.3014 0.0375549 0)
(10.2765 0.0323779 0)
(10.0117 0.0305697 0)
(10.0402 0.0573458 0)
(10.0673 0.0682703 0)
(10.0864 0.0730314 0)
(10.1029 0.0742221 0)
(10.1182 0.0725844 0)
(10.1327 0.0695062 0)
(10.146 0.0667614 0)
(10.1597 0.0662415 0)
(10.1755 0.0656947 0)
(10.1923 0.062383 0)
(10.2071 0.0570395 0)
(10.2192 0.0520422 0)
(10.2298 0.0481098 0)
(10.2393 0.0436807 0)
(10.2468 0.0390315 0)
(10.2524 0.034939 0)
(10.2567 0.0320402 0)
(10.0076 0.0260399 0)
(10.0329 0.0546816 0)
(10.0559 0.0645887 0)
(10.073 0.066261 0)
(10.0869 0.0682342 0)
(10.0981 0.0678477 0)
(10.1082 0.0658621 0)
(10.1165 0.0639865 0)
(10.1245 0.0633753 0)
(10.1336 0.0627132 0)
(10.1434 0.0601036 0)
(10.1524 0.0558548 0)
(10.1601 0.0515392 0)
(10.1669 0.0476498 0)
(10.1731 0.0433325 0)
(10.1783 0.038825 0)
(10.1825 0.0347595 0)
(10.1863 0.0316996 0)
(10.0025 0.0206501 0)
(10.0275 0.0491807 0)
(10.0487 0.0593415 0)
(10.0596 0.0622393 0)
(10.0704 0.0635917 0)
(10.0818 0.0634466 0)
(10.0918 0.0621048 0)
(10.1004 0.060554 0)
(10.1083 0.0594995 0)
(10.1167 0.0581751 0)
(10.1253 0.0555037 0)
(10.133 0.0516688 0)
(10.1395 0.0476328 0)
(10.1452 0.0437247 0)
(10.1503 0.0396256 0)
(10.1544 0.0355476 0)
(10.1579 0.0318342 0)
(10.1609 0.0288167 0)
(10.0012 0.0158712 0)
(10.0205 0.0405531 0)
(10.0381 0.0525255 0)
(10.051 0.0573288 0)
(10.0623 0.0588684 0)
(10.0729 0.0591686 0)
(10.0825 0.0583021 0)
(10.091 0.0568551 0)
(10.0989 0.0555558 0)
(10.1069 0.0539949 0)
(10.1148 0.0514945 0)
(10.1219 0.0481125 0)
(10.1281 0.0444666 0)
(10.1335 0.0408138 0)
(10.1383 0.0370921 0)
(10.1422 0.0334503 0)
(10.1457 0.0300952 0)
(10.1486 0.0272 0)
(10.0011 0.0126716 0)
(10.0145 0.0351595 0)
(10.0302 0.0478757 0)
(10.0446 0.053383 0)
(10.0563 0.0553046 0)
(10.0665 0.0557618 0)
(10.0758 0.055137 0)
(10.0842 0.0538762 0)
(10.092 0.0525223 0)
(10.0997 0.0508182 0)
(10.107 0.0483768 0)
(10.1137 0.0452838 0)
(10.1196 0.0418894 0)
(10.1248 0.0384113 0)
(10.1293 0.0349124 0)
(10.1332 0.0315118 0)
(10.1365 0.0283435 0)
(10.1395 0.0254891 0)
(10.0012 0.0105307 0)
(10.0098 0.030831 0)
(10.0243 0.0430276 0)
(10.0387 0.0486962 0)
(10.0504 0.0510771 0)
(10.0606 0.0519483 0)
(10.0699 0.0516157 0)
(10.0783 0.0505428 0)
(10.086 0.0491434 0)
(10.0933 0.0473578 0)
(10.1003 0.0450047 0)
(10.1066 0.0421412 0)
(10.1123 0.0390106 0)
(10.1173 0.0357892 0)
(10.1216 0.0325458 0)
(10.1254 0.0293925 0)
(10.1287 0.0264234 0)
(10.1317 0.0236616 0)
(10.0011 0.00896743 0)
(10.007 0.0267797 0)
(10.0199 0.0379899 0)
(10.0334 0.0437652 0)
(10.0446 0.0464689 0)
(10.0547 0.0476074 0)
(10.0639 0.0475569 0)
(10.0723 0.0466987 0)
(10.08 0.0453832 0)
(10.0872 0.0436362 0)
(10.0938 0.0414138 0)
(10.0999 0.0387793 0)
(10.1054 0.0359184 0)
(10.1102 0.0329434 0)
(10.1145 0.0299431 0)
(10.1182 0.0270143 0)
(10.1216 0.0242232 0)
(10.1245 0.0215762 0)
(10.0009 0.00778846 0)
(10.0057 0.0228225 0)
(10.0166 0.0329252 0)
(10.0285 0.0386765 0)
(10.0391 0.0416054 0)
(10.0488 0.0429362 0)
(10.0578 0.0431164 0)
(10.0662 0.0424867 0)
(10.0738 0.0413267 0)
(10.0809 0.0397201 0)
(10.0874 0.0376811 0)
(10.0934 0.0352849 0)
(10.0987 0.0326588 0)
(10.1035 0.0299222 0)
(10.1078 0.0271621 0)
(10.1115 0.0244494 0)
(10.1149 0.0218467 0)
(10.1179 0.0193472 0)
(10.0007 0.00674755 0)
(10.0049 0.0194313 0)
(10.014 0.0285296 0)
(10.0246 0.0340986 0)
(10.0345 0.0371009 0)
(10.0437 0.038578 0)
(10.0524 0.0389305 0)
(10.0606 0.0384638 0)
(10.0681 0.0374358 0)
(10.0751 0.0359608 0)
(10.0815 0.034093 0)
(10.0874 0.0319086 0)
(10.0927 0.0295132 0)
(10.0975 0.0270055 0)
(10.1018 0.0244658 0)
(10.1056 0.0219565 0)
(10.109 0.0195292 0)
(10.112 0.0171723 0)
(10.0006 0.00579013 0)
(10.0042 0.0165453 0)
(10.0119 0.0245742 0)
(10.0212 0.0297978 0)
(10.0304 0.0327206 0)
(10.0391 0.0342232 0)
(10.0474 0.0346741 0)
(10.0553 0.0343339 0)
(10.0626 0.0334292 0)
(10.0695 0.0320871 0)
(10.0758 0.0303812 0)
(10.0816 0.0283886 0)
(10.0868 0.0262012 0)
(10.0916 0.0239051 0)
(10.0958 0.0215716 0)
(10.0997 0.0192556 0)
(10.1031 0.0170018 0)
(10.1062 0.0147975 0)
(10.0005 0.00480947 0)
(10.0036 0.0136191 0)
(10.01 0.020403 0)
(10.0181 0.0250823 0)
(10.0263 0.0277918 0)
(10.0344 0.0292335 0)
(10.0423 0.0297269 0)
(10.0497 0.0294868 0)
(10.0568 0.0287035 0)
(10.0634 0.0275063 0)
(10.0695 0.0259783 0)
(10.0751 0.0241954 0)
(10.0803 0.0222367 0)
(10.0849 0.0201746 0)
(10.0892 0.0180695 0)
(10.093 0.0159698 0)
(10.0965 0.0139127 0)
(10.0996 0.0118865 0)
(10.0004 0.00379538 0)
(10.0031 0.0106836 0)
(10.0083 0.0160929 0)
(10.0152 0.0200176 0)
(10.0226 0.0223578 0)
(10.03 0.0236252 0)
(10.0372 0.0240795 0)
(10.0442 0.0238896 0)
(10.0509 0.0232072 0)
(10.0571 0.0221494 0)
(10.063 0.0208007 0)
(10.0684 0.0192325 0)
(10.0734 0.0175105 0)
(10.0779 0.0156944 0)
(10.0821 0.0138339 0)
(10.0859 0.0119697 0)
(10.0893 0.0101329 0)
(10.0925 0.00831175 0)
(10.0003 0.00275873 0)
(10.0026 0.00773546 0)
(10.0069 0.0116603 0)
(10.0128 0.014631 0)
(10.0193 0.016433 0)
(10.026 0.0173983 0)
(10.0326 0.0177167 0)
(10.0391 0.0175118 0)
(10.0453 0.0168963 0)
(10.0512 0.0159647 0)
(10.0567 0.0147909 0)
(10.0619 0.0134354 0)
(10.0667 0.0119518 0)
(10.0711 0.0103871 0)
(10.0751 0.00878097 0)
(10.0788 0.00716619 0)
(10.0822 0.00556849 0)
(10.0853 0.00397599 0)
(10.0002 0.00170908 0)
(10.0022 0.00473611 0)
(10.0058 0.00707936 0)
(10.0109 0.00891591 0)
(10.0167 0.0100042 0)
(10.0227 0.0105275 0)
(10.0287 0.0106024 0)
(10.0347 0.0103054 0)
(10.0405 0.00970922 0)
(10.0461 0.00887806 0)
(10.0513 0.00786556 0)
(10.0562 0.00671651 0)
(10.0607 0.00547002 0)
(10.0649 0.00416026 0)
(10.0688 0.00281622 0)
(10.0724 0.001463 0)
(10.0757 0.000120229 0)
(10.0788 -0.00122153 0)
(10.0002 0.000624644 0)
(10.0019 0.00158119 0)
(10.0052 0.00222425 0)
(10.0097 0.00275957 0)
(10.0149 0.0029582 0)
(10.0204 0.00289233 0)
(10.0261 0.0026078 0)
(10.0316 0.00213309 0)
(10.0371 0.00149831 0)
(10.0423 0.000732258 0)
(10.0473 -0.000139091 0)
(10.0519 -0.00109196 0)
(10.0563 -0.00210454 0)
(10.0603 -0.00315672 0)
(10.0641 -0.00423082 0)
(10.0675 -0.00531008 0)
(10.0708 -0.00638143 0)
(10.0737 -0.00745066 0)
(10.0002 -0.000574694 0)
(10.0018 -0.00197461 0)
(10.005 -0.00322621 0)
(10.0094 -0.00415797 0)
(10.0144 -0.00499858 0)
(10.0198 -0.00577259 0)
(10.0252 -0.00650405 0)
(10.0306 -0.00721582 0)
(10.0358 -0.0079253 0)
(10.0409 -0.00864515 0)
(10.0456 -0.0093836 0)
(10.0501 -0.0101422 0)
(10.0543 -0.0109193 0)
(10.0583 -0.0117099 0)
(10.0619 -0.0125084 0)
(10.0653 -0.0133068 0)
(10.0685 -0.0140985 0)
(10.0713 -0.0148865 0)
(10.0002 -0.00175792 0)
(10.0021 -0.0055212 0)
(10.0056 -0.00859857 0)
(10.0104 -0.010891 0)
(10.0158 -0.012676 0)
(10.0214 -0.0140794 0)
(10.027 -0.0151902 0)
(10.0326 -0.0160811 0)
(10.0379 -0.0168178 0)
(10.043 -0.0174584 0)
(10.0477 -0.0180444 0)
(10.0522 -0.0186031 0)
(10.0564 -0.0191504 0)
(10.0603 -0.0196955 0)
(10.0639 -0.0202416 0)
(10.0672 -0.0207884 0)
(10.0703 -0.0213326 0)
(10.0732 -0.0218761 0)
(10.0003 -0.00286465 0)
(10.0025 -0.0088368 0)
(10.0068 -0.013489 0)
(10.0123 -0.0168371 0)
(10.0183 -0.0193033 0)
(10.0244 -0.0211298 0)
(10.0304 -0.022454 0)
(10.0363 -0.0233924 0)
(10.0418 -0.0240609 0)
(10.047 -0.0245608 0)
(10.0519 -0.0249637 0)
(10.0564 -0.0253168 0)
(10.0606 -0.0256495 0)
(10.0645 -0.0259799 0)
(10.0681 -0.0263164 0)
(10.0714 -0.0266612 0)
(10.0745 -0.0270114 0)
(10.0773 -0.0273655 0)
(10.0003 -0.00408321 0)
(10.0033 -0.0123936 0)
(10.0086 -0.0185331 0)
(10.0152 -0.0227392 0)
(10.022 -0.0257172 0)
(10.0287 -0.027832 0)
(10.0353 -0.0292434 0)
(10.0416 -0.0301176 0)
(10.0475 -0.0306288 0)
(10.0529 -0.030923 0)
(10.0579 -0.0310992 0)
(10.0625 -0.0312209 0)
(10.0667 -0.0313293 0)
(10.0706 -0.0314482 0)
(10.0742 -0.0315894 0)
(10.0775 -0.0317537 0)
(10.0806 -0.0319376 0)
(10.0834 -0.0321348 0)
(10.0005 -0.00552752 0)
(10.0044 -0.0163445 0)
(10.0112 -0.0238676 0)
(10.0191 -0.0287356 0)
(10.0269 -0.0320902 0)
(10.0344 -0.0343791 0)
(10.0416 -0.0357431 0)
(10.0484 -0.0364278 0)
(10.0546 -0.036685 0)
(10.0602 -0.0367021 0)
(10.0654 -0.0366043 0)
(10.0701 -0.0364689 0)
(10.0743 -0.0363439 0)
(10.0782 -0.0362556 0)
(10.0818 -0.0362134 0)
(10.0852 -0.0362156 0)
(10.0883 -0.0362522 0)
(10.0911 -0.0363121 0)
(10.0007 -0.00737049 0)
(10.0063 -0.0208956 0)
(10.0148 -0.0295718 0)
(10.0242 -0.0347798 0)
(10.0329 -0.0383547 0)
(10.0412 -0.0407187 0)
(10.0491 -0.0419228 0)
(10.0563 -0.0423126 0)
(10.0629 -0.0422246 0)
(10.0687 -0.0419075 0)
(10.074 -0.0414991 0)
(10.0788 -0.0410959 0)
(10.0831 -0.0407468 0)
(10.0871 -0.0404779 0)
(10.0908 -0.0402915 0)
(10.0942 -0.0401788 0)
(10.0974 -0.0401214 0)
(10.1003 -0.040102 0)
(10.0012 -0.00982654 0)
(10.0089 -0.0263763 0)
(10.0198 -0.0355638 0)
(10.0305 -0.0406791 0)
(10.0398 -0.044238 0)
(10.0488 -0.0465189 0)
(10.0572 -0.0475006 0)
(10.0649 -0.0476037 0)
(10.0717 -0.0471969 0)
(10.0778 -0.0465717 0)
(10.0834 -0.0458922 0)
(10.0884 -0.0452538 0)
(10.093 -0.0446984 0)
(10.0973 -0.0442588 0)
(10.1013 -0.0439334 0)
(10.105 -0.0437111 0)
(10.1085 -0.0435723 0)
(10.1117 -0.0434949 0)
(10.0021 -0.0129534 0)
(10.0127 -0.0319009 0)
(10.0263 -0.0413953 0)
(10.0379 -0.0465214 0)
(10.0476 -0.0500288 0)
(10.0569 -0.0519839 0)
(10.0659 -0.0525355 0)
(10.074 -0.0523248 0)
(10.0815 -0.0517934 0)
(10.0884 -0.0509774 0)
(10.0949 -0.0501748 0)
(10.101 -0.0494471 0)
(10.1066 -0.0487981 0)
(10.1119 -0.0482644 0)
(10.1168 -0.0478453 0)
(10.1212 -0.0475376 0)
(10.1254 -0.0473429 0)
(10.1291 -0.0472475 0)
(10.0029 -0.0167107 0)
(10.0172 -0.0362729 0)
(10.0343 -0.0446566 0)
(10.0463 -0.0504452 0)
(10.0564 -0.0549013 0)
(10.0667 -0.0570752 0)
(10.0774 -0.0573582 0)
(10.0881 -0.0566242 0)
(10.099 -0.0558376 0)
(10.1094 -0.0549428 0)
(10.1196 -0.0539035 0)
(10.1289 -0.0529353 0)
(10.1372 -0.0520897 0)
(10.1446 -0.0513901 0)
(10.1509 -0.0508097 0)
(10.1563 -0.0503365 0)
(10.161 -0.049998 0)
(10.1647 -0.0498165 0)
(10.0053 -0.0268562 0)
(10.0291 -0.0462652 0)
(10.0557 -0.0491236 0)
(10.0788 -0.0532352 0)
(10.1031 -0.0582966 0)
(10.1295 -0.061731 0)
(10.156 -0.0633801 0)
(10.1801 -0.0638384 0)
(10.2006 -0.0634318 0)
(10.2181 -0.0625257 0)
(10.2309 -0.0613113 0)
(10.2397 -0.0598085 0)
(10.2448 -0.0581877 0)
(10.2469 -0.0566919 0)
(10.2464 -0.0554385 0)
(10.2441 -0.0544701 0)
(10.2405 -0.0537433 0)
(10.2355 -0.0533019 0)
(10.055 -0.0372667 0)
(10.1895 -0.0698985 0)
(10.2934 -0.0764509 0)
(10.3699 -0.0793219 0)
(10.4233 -0.081195 0)
(10.4563 -0.081076 0)
(10.4682 -0.0789567 0)
(10.4618 -0.075509 0)
(10.4374 -0.0715508 0)
(10.3999 -0.0672749 0)
(10.3545 -0.0628971 0)
(10.3047 -0.0586878 0)
(10.2515 -0.0547845 0)
(10.197 -0.0513218 0)
(10.1426 -0.0482968 0)
(10.0905 -0.045784 0)
(10.041 -0.0438682 0)
(9.99444 -0.0426166 0)
(9.86367 -0.0393514 0)
(9.5888 -0.075449 0)
(9.29359 -0.0864434 0)
(8.99283 -0.0886183 0)
(8.70802 -0.0856709 0)
(8.44839 -0.0794525 0)
(8.21846 -0.0713119 0)
(8.01856 -0.0617027 0)
(7.85151 -0.0516625 0)
(7.71301 -0.0425262 0)
(7.5976 -0.034611 0)
(7.50168 -0.0275696 0)
(7.42298 -0.0213594 0)
(7.35774 -0.01621 0)
(7.30304 -0.0122997 0)
(7.25489 -0.00960684 0)
(7.21108 -0.00778868 0)
(7.17159 -0.00675063 0)
(-0.00652312 0.0183201 -9.7432e-19)
(-0.0259334 0.0233724 9.51333e-19)
(-0.0445859 0.0140916 0)
(-0.0436648 -0.00727274 0)
(-0.0173306 -0.0341219 0)
(0.0197973 -0.0544345 -7.01522e-19)
(0.0632244 -0.0645628 0)
(0.111203 -0.0678981 0)
(0.160595 -0.0671783 0)
(0.208529 -0.0641509 0)
(0.253255 -0.0597245 1.95609e-19)
(0.294296 -0.0544554 0)
(0.331598 -0.0487727 0)
(0.365077 -0.0430154 0)
(0.39465 -0.0373834 0)
(0.420348 -0.0319884 1.32481e-19)
(0.442287 -0.0268944 0)
(0.460613 -0.0221226 0)
(0.4755 -0.017667 0)
(0.487071 -0.0136397 0)
(0.495454 -0.00987028 0)
(0.500806 -0.00658959 0)
(0.50337 -0.00345226 0)
(0.502901 -2.62446e-05 1.17723e-19)
(0.499303 0.00336681 -1.18598e-19)
(0.492851 0.00669007 1.20087e-19)
(0.483893 0.0095332 1.22055e-19)
(0.47282 0.0117211 0)
(0.459958 0.0136548 0)
(0.445612 0.015495 -1.32592e-19)
(0.430246 0.0164064 -1.37159e-19)
(0.414335 0.0166871 0)
(0.39831 0.0164072 0)
(0.38249 0.015716 -1.54977e-19)
(0.367071 0.0148219 0)
(0.35256 0.0129612 0)
(0.339391 0.0106291 1.74714e-19)
(0.327873 0.00811158 0)
(0.318189 0.00557609 1.87656e-19)
(0.310433 0.00314702 3.86366e-19)
(0.304585 0.000935326 0)
(0.30054 -0.000965699 0)
(0.298087 -0.00248906 0)
(0.296968 -0.00354992 0)
(0.296932 -0.00408258 0)
(0.297541 -0.0041175 4.09407e-19)
(0.298656 -0.00383436 4.08452e-19)
(0.30003 -0.00335373 4.07827e-19)
(0.301428 -0.0027612 0)
(0.302656 -0.00209054 -4.07705e-19)
(0.303534 -0.00137936 0)
(0.303993 -0.000589073 4.10897e-19)
(0.303738 0.000282954 4.13582e-19)
(0.30263 0.00112599 0)
(0.300732 0.00180858 0)
(0.298159 0.00223549 0)
(0.29516 0.00232246 4.35546e-19)
(0.291995 0.00199737 0)
(0.288927 0.00124789 0)
(0.286079 0.000188377 0)
(0.283274 -0.000989601 0)
(0.280044 -0.00211387 0)
(0.276054 -0.00306187 0)
(0.270274 -0.00348513 0)
(0.261932 -0.00346259 0)
(0.250281 -0.00354172 -5.03055e-19)
(0.236182 -0.0045784 0)
(0.219854 -0.00649367 0)
(0.197294 -0.0084905 5.88859e-19)
(0.158983 -0.010025 6.29051e-19)
(0.101531 -0.0103343 0)
(-0.00483281 -0.00869303 -7.40197e-19)
(-0.192122 0.0400865 4.61745e-19)
(-0.39566 0.110504 0)
(-0.64862 0.157161 -1.93764e-19)
(-0.944485 0.186543 0)
(-1.24333 0.202537 0)
(-1.54074 0.205266 1.0075e-19)
(-1.81944 0.197942 0)
(-2.07221 0.180955 -7.89893e-20)
(-2.29477 0.159905 0)
(-2.48623 0.137378 6.78324e-20)
(-2.64852 0.115976 6.41871e-20)
(-2.78454 0.0966916 6.1345e-20)
(-2.89803 0.0801635 1.18096e-19)
(-2.9926 0.0663616 -1.14338e-19)
(-3.07169 0.0551081 0)
(-3.1383 0.0460079 0)
(-3.19488 0.0385447 0)
(-3.24333 0.0321068 -1.04049e-19)
(-3.2849 0.0271065 -1.02125e-19)
(-3.32113 0.0235422 1.00364e-19)
(-3.353 0.0206817 0)
(-3.38138 0.018278 -9.71487e-20)
(-3.4068 0.0161637 -9.5646e-20)
(-3.42968 0.0143486 -9.41923e-20)
(-3.45039 0.0126894 0)
(-3.46911 0.0110691 0)
(-3.48599 0.00960671 0)
(-3.50122 0.00863384 -8.85274e-20)
(-3.51512 0.0077384 0)
(-3.52762 0.00668075 0)
(-3.53883 0.00595994 8.40975e-20)
(-3.54893 0.00528663 0)
(-3.55788 0.00445877 0)
(-3.56581 0.00397334 7.94754e-20)
(-3.57299 0.00350648 0)
(-3.57931 0.00287983 0)
(-3.58485 0.00250737 -7.46646e-20)
(-3.58981 0.00216278 -7.30358e-20)
(-3.59407 0.00167582 0)
(-3.59776 0.00147613 6.96466e-20)
(-3.60099 0.00135464 0)
(-3.60373 0.00103933 -6.61339e-20)
(-3.60602 0.000761728 0)
(-3.60798 0.000695389 -6.24476e-20)
(-3.6097 0.00074943 -6.05619e-20)
(-3.61123 0.00102015 0)
(-3.61269 0.00111374 0)
(-3.61383 0.000983382 0)
(-3.61481 0.00101304 0)
(-3.61567 0.00111222 0)
(-3.61654 0.00088818 0)
(-3.61718 0.000496393 0)
(-3.61792 0.000206726 -4.66841e-20)
(-3.61877 -0.000143399 4.5258e-20)
(-3.61979 -0.000903247 0)
(-3.62077 -0.00207269 0)
(-3.62176 -0.00279371 0)
(-3.6234 -0.00356123 0)
(-3.62507 -0.00476753 7.61709e-20)
(-3.62679 -0.00532509 0)
(-3.62918 -0.00557606 -6.9499e-20)
(-3.63174 -0.00582122 6.581e-20)
(-3.63462 -0.00575674 0)
(-3.63735 -0.00553002 0)
(-3.63999 -0.00511045 0)
(-3.64226 -0.00443972 -5.10823e-20)
(-3.64454 -0.00354552 -4.81707e-20)
(-3.64693 -0.0025635 0)
(-3.64992 -0.00175226 -4.43234e-20)
(-3.65391 -0.00104764 -4.34537e-20)
(-3.66062 0.000726132 4.32307e-20)
(-3.67175 0.002641 0)
(-3.68766 0.0042258 0)
(-3.70951 0.00714371 4.31552e-20)
(-3.73818 0.0105296 0)
(-3.77275 0.0134698 0)
(-3.81196 0.0170895 0)
(-3.85429 0.0216233 0)
(-3.89727 0.0264928 -2.41213e-20)
(-3.93753 0.031555 -1.74529e-20)
(-3.97181 0.0368909 0)
(-3.99688 0.0413641 -7.44101e-21)
(-4.00909 0.0459101 0)
(-4.00996 0.0499064 0)
(-3.99642 0.0516698 -2.3679e-20)
(-3.96838 0.0525893 0)
(-3.92623 0.0514447 -7.07607e-20)
(-3.86996 0.0470807 0)
(-3.80247 0.0409511 0)
(-3.72346 0.0319776 -1.8523e-19)
(-3.63335 0.0195641 0)
(-3.52909 0.00431302 -2.49503e-19)
(-3.40497 -0.0143005 0)
(-3.25412 -0.0350162 0)
(-3.06847 -0.0576931 0)
(-2.84064 -0.0832108 1.87095e-19)
(-2.56878 -0.111002 0)
(-2.25452 -0.139217 -2.90895e-20)
(-1.90622 -0.165647 0)
(-1.5342 -0.189542 0)
(-1.14437 -0.209986 0)
(-0.745596 -0.233709 0)
(-0.275967 -0.247543 0)
(0.254535 -0.230885 0)
(0.726997 -0.203105 0)
(1.1451 -0.176172 -1.16253e-18)
(1.51653 -0.147748 0)
(1.74144 -0.0996754 0)
(0.00357856 0.0365992 3.06281e-18)
(-0.00154084 0.0447814 -3.41783e-18)
(0.0171412 0.0143989 0)
(0.0590297 -0.0467163 8.49368e-19)
(0.103241 -0.10034 0)
(0.146371 -0.131156 1.67692e-19)
(0.187478 -0.142796 -2.54617e-19)
(0.225144 -0.142819 -2.07189e-19)
(0.258922 -0.136711 0)
(0.289084 -0.127528 -1.57606e-19)
(0.316066 -0.116817 -7.19831e-20)
(0.340192 -0.105449 0)
(0.361674 -0.093947 0)
(0.380615 -0.0826265 0)
(0.397092 -0.0716589 0)
(0.411198 -0.0611346 -5.93658e-20)
(0.423006 -0.0511119 0)
(0.432592 -0.0416194 1.17444e-19)
(0.440023 -0.0326531 0)
(0.445373 -0.0242014 0)
(0.448747 -0.0162414 -1.19771e-19)
(0.450247 -0.0087434 0)
(0.449964 -0.00161783 1.2347e-19)
(0.44833 0.00518009 -6.29034e-20)
(0.445544 0.0115936 6.43317e-20)
(0.44157 0.0175032 -6.61818e-20)
(0.436361 0.0227695 -6.83343e-20)
(0.429879 0.0273342 0)
(0.422123 0.0311309 0)
(0.41317 0.0340906 7.6337e-20)
(0.403089 0.0361612 -7.92522e-20)
(0.391952 0.0373501 0)
(0.37993 0.0376473 0)
(0.367313 0.0371093 8.95235e-20)
(0.354406 0.035763 0)
(0.341447 0.033712 0)
(0.328616 0.0310319 -9.95925e-20)
(0.316163 0.0278201 0)
(0.304335 0.0242149 1.04782e-19)
(0.293397 0.020383 -2.13336e-19)
(0.283549 0.0164782 0)
(0.274976 0.0126831 0)
(0.267783 0.00914728 -4.33446e-19)
(0.261995 0.00602178 -4.3271e-19)
(0.25754 0.0034277 -4.31834e-19)
(0.25436 0.00143901 2.15953e-19)
(0.252138 1.81309e-05 -2.16954e-19)
(0.250579 -0.000853693 -6.5591e-19)
(0.249415 -0.0012107 4.42307e-19)
(0.248393 -0.00108605 2.24635e-19)
(0.247299 -0.00055762 0)
(0.245946 0.000341551 -2.34245e-19)
(0.244308 0.00152473 2.40049e-19)
(0.242233 0.00283272 0)
(0.239502 0.0040736 0)
(0.235928 0.00510202 0)
(0.231334 0.00576153 -2.72558e-19)
(0.225524 0.00600306 0)
(0.218256 0.00591438 5.80737e-19)
(0.209239 0.00581855 0)
(0.197872 0.00623809 6.12968e-19)
(0.183533 0.00762123 0)
(0.165381 0.0100349 -6.61598e-19)
(0.141686 0.0146639 0)
(0.110504 0.0216985 7.65344e-19)
(0.0677995 0.0301331 -4.38781e-19)
(0.00682141 0.0421711 0)
(-0.094059 0.063196 -1.04362e-18)
(-0.248447 0.103479 -3.5545e-19)
(-0.450023 0.165483 -2.32382e-19)
(-0.697108 0.243105 0)
(-0.984127 0.326238 -1.18675e-19)
(-1.29384 0.404904 -9.17725e-20)
(-1.60206 0.467865 0)
(-1.9008 0.504526 6.50872e-20)
(-2.16901 0.509347 -1.17153e-19)
(-2.40072 0.48785 0)
(-2.58979 0.445861 -4.9992e-20)
(-2.74034 0.39419 0)
(-2.85755 0.338889 1.38147e-19)
(-2.9479 0.285639 0)
(-3.01801 0.237548 -1.29835e-19)
(-3.0731 0.196046 -4.20933e-20)
(-3.11759 0.16137 4.12078e-20)
(-3.15443 0.133007 8.04761e-20)
(-3.18587 0.110154 -7.87459e-20)
(-3.2133 0.0918744 0)
(-3.23769 0.0773303 0)
(-3.25966 0.0657251 0)
(-3.27969 0.0564115 2.19911e-19)
(-3.29803 0.0488985 7.21785e-20)
(-3.31483 0.042789 -7.10674e-20)
(-3.33024 0.0377529 0)
(-3.34434 0.0335316 -6.88839e-20)
(-3.35729 0.029918 6.80122e-20)
(-3.36908 0.0267792 6.70594e-20)
(-3.37984 0.024029 0)
(-3.38964 0.0215872 0)
(-3.39858 0.0193717 0)
(-3.40666 0.0173695 6.33853e-20)
(-3.41389 0.0155715 0)
(-3.42027 0.0139112 -1.22865e-19)
(-3.42599 0.0123471 -1.81173e-19)
(-3.43098 0.0109265 1.18745e-19)
(-3.43536 0.00963547 0)
(-3.43904 0.00844809 5.72536e-20)
(-3.44227 0.00738352 0)
(-3.44507 0.00644342 1.09875e-19)
(-3.44751 0.00554246 -5.38447e-20)
(-3.44965 0.00474945 -5.27387e-20)
(-3.45136 0.00397714 0)
(-3.45294 0.00326751 -1.50844e-19)
(-3.45424 0.00264868 9.81169e-20)
(-3.45547 0.00210154 4.7724e-20)
(-3.45656 0.00162059 0)
(-3.45755 0.00123579 4.50294e-20)
(-3.45848 0.000940256 1.31038e-19)
(-3.45936 0.000775017 0)
(-3.46026 0.000725028 8.1823e-20)
(-3.4612 0.000732805 7.90165e-20)
(-3.46227 0.00079152 7.63165e-20)
(-3.46336 0.000884253 0)
(-3.46458 0.00103582 0)
(-3.46579 0.00129604 0)
(-3.46706 0.00158488 -3.32031e-20)
(-3.46837 0.00193099 -3.23487e-20)
(-3.4697 0.00228588 0)
(-3.47141 0.00267324 -6.02896e-20)
(-3.47323 0.00297638 -5.81492e-20)
(-3.47543 0.00317774 0)
(-3.47775 0.00328619 -5.4064e-20)
(-3.4804 0.00324928 -1.03484e-19)
(-3.48304 0.00327556 4.90756e-20)
(-3.48581 0.00326407 4.69899e-20)
(-3.48914 0.00326964 0)
(-3.4927 0.00336534 0)
(-3.49697 0.00368953 0)
(-3.50183 0.00423801 3.45336e-20)
(-3.50735 0.0049868 -3.29558e-20)
(-3.51393 0.00617863 -6.12508e-20)
(-3.52177 0.00780258 2.93145e-20)
(-3.53127 0.00990367 -2.7871e-20)
(-3.54201 0.0125737 -2.87915e-20)
(-3.55406 0.015736 0)
(-3.56691 0.0190742 0)
(-3.58087 0.0220807 2.81462e-20)
(-3.59524 0.024676 0)
(-3.6101 0.0265218 0)
(-3.62532 0.0271696 -4.96376e-20)
(-3.64094 0.0262781 0)
(-3.65653 0.0237653 -1.65201e-20)
(-3.67197 0.0195878 9.84082e-21)
(-3.68674 0.0137167 0)
(-3.69989 0.00636378 -1.02108e-21)
(-3.7098 -0.00190623 0)
(-3.71186 -0.0109104 0)
(-3.70435 -0.0203597 1.53454e-20)
(-3.68562 -0.0297939 -5.48984e-20)
(-3.65389 -0.0388711 5.54374e-20)
(-3.60823 -0.0470325 0)
(-3.54797 -0.0545636 0)
(-3.47078 -0.0624017 -1.39653e-19)
(-3.37461 -0.0720266 0)
(-3.25481 -0.0857366 -1.99647e-19)
(-3.10487 -0.105574 0)
(-2.91774 -0.132352 0)
(-2.68598 -0.164776 0)
(-2.40628 -0.19953 -1.71704e-19)
(-2.0812 -0.232057 0)
(-1.71078 -0.260825 7.7719e-20)
(-1.3003 -0.28619 0)
(-0.860014 -0.309976 0)
(-0.356932 -0.337864 2.36276e-19)
(0.173021 -0.364526 -3.18586e-19)
(0.64692 -0.37057 0)
(1.08105 -0.350956 0)
(1.48655 -0.316037 0)
(1.85541 -0.274284 1.49906e-18)
(2.19244 -0.224596 0)
(2.4353 -0.144646 -1.12922e-18)
(-0.000211557 0.0283872 7.74503e-22)
(0.0164524 0.00528904 3.44703e-18)
(0.0637351 -0.0839283 0)
(0.11989 -0.165128 -9.01599e-19)
(0.165906 -0.205939 0)
(0.20099 -0.216084 0)
(0.228857 -0.210641 -1.83151e-22)
(0.251823 -0.198543 1.28953e-19)
(0.27141 -0.18381 1.09914e-19)
(0.288565 -0.168119 9.67709e-20)
(0.303792 -0.152205 0)
(0.317338 -0.136422 0)
(0.329327 -0.12096 -7.70558e-20)
(0.339814 -0.105925 -1.47878e-19)
(0.348812 -0.0913864 1.43703e-19)
(0.356319 -0.0773989 0)
(0.362323 -0.0640001 1.39708e-19)
(0.366808 -0.0512082 -6.95982e-20)
(0.369766 -0.0390385 0)
(0.371205 -0.0275061 1.40594e-19)
(0.371136 -0.0166307 7.11566e-20)
(0.369585 -0.00643363 -1.44465e-19)
(0.366597 0.00308053 -7.3558e-20)
(0.362257 0.0119268 0)
(0.356676 0.0201446 1.52935e-19)
(0.349955 0.0277394 1.57019e-19)
(0.342204 0.0346267 0)
(0.333517 0.0407345 1.67373e-19)
(0.323994 0.0459912 0)
(0.313751 0.0503041 1.80077e-19)
(0.302911 0.0535809 9.3675e-20)
(0.291592 0.0557592 0)
(0.279949 0.0567889 0)
(0.268144 0.0566535 0)
(0.256358 0.0553477 0)
(0.24478 0.0529081 0)
(0.233605 0.0494047 0)
(0.223038 0.0449482 2.35661e-19)
(0.213282 0.0397521 -3.59886e-19)
(0.204501 0.0340835 0)
(0.196802 0.0281993 0)
(0.190222 0.0223863 0)
(0.184731 0.0169115 3.17755e-23)
(0.180234 0.0120273 2.4885e-19)
(0.176585 0.00793009 5.00485e-19)
(0.173609 0.00476458 -5.04789e-19)
(0.171094 0.00257913 -2.5553e-19)
(0.168812 0.00135268 2.59567e-19)
(0.166519 0.000998653 4.57516e-26)
(0.163979 0.00141666 2.7112e-19)
(0.160978 0.00248738 0)
(0.157302 0.00412158 2.87311e-19)
(0.152733 0.00622497 -1.24781e-22)
(0.147017 0.00871883 0)
(0.139867 0.0114967 0)
(0.130932 0.0144451 -3.34254e-19)
(0.119781 0.0174472 0)
(0.105838 0.0205288 0)
(0.0883376 0.0240515 3.82106e-19)
(0.0661488 0.0287351 8.05621e-19)
(0.0375827 0.0354857 -4.28861e-19)
(0.000380738 0.045025 0)
(-0.0492308 0.0584326 5.00188e-19)
(-0.115737 0.0784991 0)
(-0.205826 0.108931 4.50701e-19)
(-0.329765 0.152921 3.9858e-19)
(-0.497437 0.215114 -6.61596e-19)
(-0.709165 0.297668 -2.64066e-19)
(-0.957835 0.396805 0)
(-1.23195 0.503986 3.38353e-19)
(-1.51739 0.608243 0)
(-1.79598 0.695903 3.60431e-19)
(-2.04612 0.753932 2.1388e-19)
(-2.25152 0.77486 1.94334e-19)
(-2.40774 0.758589 -1.7981e-19)
(-2.52065 0.711235 2.52129e-19)
(-2.60055 0.643261 0)
(-2.6584 0.564376 0)
(-2.7029 0.483946 -1.47251e-19)
(-2.74048 0.408075 -2.12712e-19)
(-2.77485 0.340331 0)
(-2.80788 0.282208 6.64735e-20)
(-2.84004 0.233726 0)
(-2.87127 0.194045 -1.8828e-19)
(-2.90123 0.16196 -3.86598e-22)
(-2.92961 0.136172 3.88368e-22)
(-2.95622 0.115462 1.16755e-19)
(-2.98096 0.0987782 0)
(-3.00386 0.0852282 -1.12297e-19)
(-3.02495 0.0741089 -2.60354e-22)
(-3.0443 0.0649584 0)
(-3.06188 0.0574042 0)
(-3.07782 0.051036 0)
(-3.09223 0.0455306 1.03895e-19)
(-3.10527 0.0407626 0)
(-3.11701 0.0365548 0)
(-3.12754 0.0327423 0)
(-3.13695 0.0292676 0)
(-3.14533 0.0260728 0)
(-3.15274 0.0231638 9.57692e-20)
(-3.15925 0.0205921 0)
(-3.16489 0.0182106 9.28603e-20)
(-3.16971 0.0159368 9.13382e-20)
(-3.17382 0.013835 -8.98234e-20)
(-3.17724 0.0119623 0)
(-3.18013 0.0103231 -8.68147e-20)
(-3.18233 0.00883789 0)
(-3.18398 0.00745454 -8.34786e-20)
(-3.18516 0.00615412 8.18174e-20)
(-3.18593 0.00509716 2.40909e-19)
(-3.18636 0.00415586 0)
(-3.18647 0.00332407 2.30558e-19)
(-3.18633 0.00267073 7.51778e-20)
(-3.18597 0.00203612 0)
(-3.18548 0.00149233 1.4268e-19)
(-3.18487 0.00106843 1.38756e-19)
(-3.18419 0.000701324 -2.01777e-19)
(-3.1834 0.000325216 0)
(-3.18263 1.7594e-05 -6.29591e-20)
(-3.18187 -0.000156345 -6.09371e-20)
(-3.18117 -0.000278611 -1.7733e-19)
(-3.18057 -0.00041437 0)
(-3.18008 -0.000414456 0)
(-3.17973 -0.000215851 0)
(-3.1795 -2.23271e-07 -5.18284e-20)
(-3.17944 0.00025072 0)
(-3.17953 0.000471433 0)
(-3.17979 0.000827259 4.7282e-20)
(-3.18016 0.00128552 4.57564e-20)
(-3.18057 0.00174662 0)
(-3.18105 0.00207944 0)
(-3.18204 0.00239674 8.21081e-20)
(-3.18321 0.00291458 0)
(-3.1845 0.00323764 -7.43914e-20)
(-3.18589 0.00346296 -7.07232e-20)
(-3.18765 0.00359327 0)
(-3.18977 0.00376337 0)
(-3.19243 0.00439732 5.75673e-20)
(-3.19518 0.0054512 -9.79513e-22)
(-3.19829 0.00695378 -5.86721e-22)
(-3.20169 0.00908105 0)
(-3.20547 0.0118079 9.13973e-20)
(-3.2096 0.0152525 0)
(-3.21382 0.0194396 0)
(-3.21884 0.0239858 0)
(-3.22437 0.0286868 -4.73456e-20)
(-3.23071 0.0331909 0)
(-3.23852 0.0367865 8.53857e-20)
(-3.24755 0.0391569 4.06107e-20)
(-3.25821 0.0398592 0)
(-3.27075 0.0386318 2.61715e-20)
(-3.28501 0.0350742 0)
(-3.30018 0.0288273 0)
(-3.3158 0.0198432 9.39145e-21)
(-3.33011 0.00834762 -2.29188e-21)
(-3.34091 -0.00543066 0)
(-3.34597 -0.0210138 -3.36506e-20)
(-3.34236 -0.0375945 4.40349e-20)
(-3.32677 -0.0546901 0)
(-3.29598 -0.0718822 0)
(-3.24636 -0.089371 0)
(-3.17384 -0.108307 6.6264e-19)
(-3.07411 -0.130713 0)
(-2.94198 -0.159189 3.11095e-19)
(-2.77116 -0.196016 0)
(-2.5552 -0.241765 0)
(-2.28851 -0.295372 0)
(-1.97097 -0.352829 0)
(-1.60619 -0.407877 0)
(-1.19641 -0.4554 0)
(-0.746945 -0.495694 7.82471e-20)
(-0.254148 -0.530523 0)
(0.249131 -0.553544 -1.44614e-19)
(0.726809 -0.55799 5.94488e-19)
(1.17114 -0.545228 0)
(1.58289 -0.514373 0)
(1.96502 -0.468421 -6.07802e-19)
(2.31013 -0.411905 -6.58443e-19)
(2.62539 -0.34481 6.88131e-19)
(2.86948 -0.250397 7.56107e-19)
(-0.00119509 0.00462439 -6.01822e-18)
(0.043461 -0.10442 -3.04707e-18)
(0.102474 -0.213321 -9.92663e-19)
(0.149102 -0.264281 -2.96826e-19)
(0.178606 -0.272774 0)
(0.198445 -0.263113 2.94823e-19)
(0.213711 -0.247141 -1.15834e-19)
(0.226491 -0.229093 0)
(0.237639 -0.210402 -8.19935e-20)
(0.247539 -0.191626 0)
(0.25636 -0.173023 1.3285e-19)
(0.264167 -0.154729 0)
(0.270972 -0.136826 5.84919e-20)
(0.276754 -0.119369 1.12322e-19)
(0.281481 -0.102401 -1.09083e-19)
(0.285107 -0.0859604 0)
(0.287591 -0.0700866 -1.05696e-19)
(0.288895 -0.0548172 0)
(0.288986 -0.0401757 0)
(0.287843 -0.0261903 -1.05508e-19)
(0.285456 -0.0129068 0)
(0.28183 -0.000368053 8.03798e-23)
(0.276989 0.0113952 0)
(0.270968 0.022355 0)
(0.263836 0.0324922 -1.36804e-22)
(0.255685 0.0417827 -1.15031e-19)
(0.246625 0.0501633 -1.17712e-19)
(0.236772 0.057547 -1.21149e-19)
(0.226259 0.0638372 0)
(0.215223 0.0689336 -2.57471e-19)
(0.203814 0.0727411 0)
(0.19219 0.0751758 -1.37441e-19)
(0.180514 0.0761707 0)
(0.168954 0.0756888 0)
(0.157684 0.07373 1.51421e-19)
(0.146881 0.0703426 0)
(0.136712 0.0656304 -1.60095e-19)
(0.12733 0.0597539 -1.32848e-22)
(0.118851 0.0529656 3.34797e-19)
(0.111341 0.0456156 -3.40606e-19)
(0.104804 0.0380769 0)
(0.0991832 0.0307169 0)
(0.0943695 0.0238864 -1.7797e-19)
(0.0902143 0.0178927 0)
(0.0865395 0.0129769 -1.83712e-19)
(0.0831444 0.00929757 1.87257e-19)
(0.0798114 0.0069168 1.91451e-19)
(0.0763052 0.00581475 0)
(0.0723802 0.00590253 -2.02161e-19)
(0.0677975 0.00706331 -2.08807e-19)
(0.0623135 0.0091915 4.32663e-19)
(0.0556367 0.0122237 -2.24947e-19)
(0.0474037 0.0161342 -2.34605e-19)
(0.0371687 0.0209003 0)
(0.02436 0.0264923 0)
(0.00825138 0.0329159 2.72811e-19)
(-0.012126 0.0402434 0)
(-0.0380896 0.0488119 0)