/*--------------------------------*- C++ -*----------------------------------*\
  =========                 |
  \\      /  F ield         | OpenFOAM: The Open Source CFD Toolbox
   \\    /   O peration     | Website:  https://openfoam.org
    \\  /    A nd           | Version:  13
     \\/     M anipulation  |
\*---------------------------------------------------------------------------*/
FoamFile
{
    format      ascii;
    class       volScalarField;
    location    "3";
    object      epsilon;
}
// * * * * * * * * * * * * * * * * * * * * * * * * * * * * * * * * * * * * * //

dimensions      [0 2 -3 0 0 0 0];

internalField   nonuniform List<scalar> 
400
(
1.22492e-05
3.28385e-05
4.30671e-05
5.00912e-05
9.88429e-05
0.000301626
0.000650543
0.000915578
0.00107346
0.00122574
0.00135786
0.00147498
0.0015933
0.00168257
0.00172109
0.001728
0.00160528
0.00125271
0.00076377
0.000524382
5.1065e-05
5.77502e-05
8.49843e-05
0.000138589
0.00031062
0.000648775
0.000876234
0.000968064
0.00102081
0.00108342
0.00116417
0.00127587
0.0014212
0.00159249
0.00178586
0.00197902
0.00207443
0.00208141
0.00176152
0.00129492
0.000142491
0.000138583
0.000220739
0.000357604
0.00057861
0.000784265
0.00088056
0.000930594
0.000966548
0.0010369
0.00113003
0.00124607
0.00138619
0.00154711
0.00173364
0.0019409
0.00213347
0.00221855
0.00214639
0.00184861
0.000248562
0.00023936
0.00036038
0.000516101
0.00068196
0.00078925
0.000848627
0.0008758
0.000918717
0.000981146
0.00105941
0.0011552
0.00127216
0.00142025
0.00160923
0.00184655
0.00212079
0.00228136
0.00231568
0.00221735
0.000342565
0.000321842
0.000454614
0.000598724
0.000704366
0.000765675
0.000791624
0.000813929
0.000846101
0.000889226
0.000944121
0.0010166
0.00111729
0.00126262
0.00147296
0.00176598
0.00213096
0.00241264
0.00250025
0.00251591
0.000404088
0.000368108
0.000488279
0.000611047
0.000688614
0.000718383
0.000730836
0.000744663
0.000761754
0.000783071
0.0008129
0.000861304
0.00094496
0.00108813
0.00132355
0.00168489
0.00217583
0.00260104
0.00274229
0.00276099
0.000434044
0.000374467
0.000480201
0.000594367
0.000650781
0.000665962
0.000670638
0.000675044
0.000678214
0.000680687
0.000688969
0.000715412
0.000780525
0.00091563
0.00116649
0.0015881
0.00220864
0.00284074
0.00306499
0.00297036
0.00042779
0.000364575
0.000452707
0.000552261
0.000599669
0.00061269
0.000612748
0.000609776
0.000603173
0.000592737
0.000586557
0.000595265
0.000642758
0.000764874
0.00101884
0.00148359
0.00222049
0.00308983
0.00344625
0.00314216
0.000409016
0.000340692
0.00040439
0.000491085
0.000542134
0.000558246
0.000557596
0.00055071
0.000538875
0.000522116
0.000507326
0.000505248
0.000538786
0.000646514
0.000894274
0.00138473
0.00222221
0.00333458
0.00389302
0.00328314
0.000370111
0.000310224
0.000355284
0.00042831
0.000480851
0.000502395
0.000503747
0.000496267
0.00048285
0.000464784
0.000447264
0.000442005
0.000466491
0.000560586
0.000795312
0.00129417
0.002215
0.00353734
0.00436676
0.00338685
0.000339475
0.000283944
0.000312021
0.000371508
0.000422507
0.000448546
0.00045321
0.000446585
0.000433377
0.000416355
0.000400533
0.000397631
0.000418766
0.000502164
0.000719404
0.00120742
0.00217799
0.00370153
0.00486784
0.00345804
0.000311215
0.000261965
0.000277922
0.000323629
0.000371445
0.000401411
0.000410689
0.000405732
0.000394052
0.00037818
0.00036511
0.000365469
0.000385934
0.000461068
0.000658674
0.00112133
0.00210368
0.00378902
0.00534855
0.00349201
0.000283054
0.00024266
0.000251855
0.000285997
0.000329282
0.000361937
0.000377416
0.00037571
0.000367641
0.000352893
0.000341315
0.000342749
0.000361929
0.000428263
0.000603941
0.00103011
0.00199108
0.00381978
0.00577528
0.00350404
0.000259066
0.000225588
0.000232294
0.000258673
0.000296745
0.000329589
0.000349517
0.000353264
0.000348107
0.00033651
0.000325878
0.000327177
0.000343914
0.00040131
0.000553733
0.000934938
0.00184642
0.00377982
0.00600277
0.00350154
0.000234572
0.000208391
0.000216359
0.000239637
0.000273493
0.0003051
0.000327783
0.000337878
0.000336379
0.000330327
0.000322346
0.000323771
0.000338911
0.000390093
0.000528137
0.000878957
0.00172736
0.00367366
0.00607798
0.00347793
0.000219663
0.000190893
0.000206514
0.000236758
0.0002719
0.000304808
0.000329732
0.000343786
0.000347155
0.000345603
0.000344213
0.000350027
0.000372041
0.00042965
0.000565175
0.000893888
0.00168813
0.00362136
0.00583016
0.00346361
0.000221785
0.000182954
0.00021412
0.000255896
0.00030072
0.000343714
0.000380931
0.000410462
0.00043245
0.000451293
0.000473164
0.000506858
0.00056335
0.000664456
0.000840585
0.00120722
0.00195632
0.00376831
0.00527803
0.00340629
0.000255156
0.000207628
0.000295485
0.000393933
0.000495725
0.000597833
0.000697468
0.000796695
0.000893326
0.000997484
0.00111238
0.00125699
0.00143987
0.00169429
0.00202298
0.00258091
0.00328623
0.00471171
0.00498959
0.00334212
0.000353772
0.000341766
0.00069772
0.00110699
0.00148994
0.00186638
0.00223529
0.00262315
0.00300135
0.00341762
0.0038414
0.00432938
0.00486363
0.0054853
0.00614014
0.0069791
0.00690882
0.00637699
0.00515969
0.00318529
0.000281392
0.00043608
0.000753136
0.00106511
0.00135583
0.00160766
0.00184778
0.00204517
0.00225793
0.00241272
0.00261428
0.00273542
0.00293839
0.00303938
0.00324059
0.00332094
0.00343339
0.00343401
0.00335668
0.00297495
)
;

boundaryField
{
    movingWall
    {
        type            epsilonWallFunction;
        value           nonuniform List<scalar> 
20
(
0.000281392
0.00043608
0.000753136
0.00106511
0.00135583
0.00160766
0.00184778
0.00204517
0.00225793
0.00241272
0.00261428
0.00273542
0.00293839
0.00303938
0.00324059
0.00332094
0.00343339
0.00343401
0.00335668
0.00297495
)
;
    }
    fixedWalls
    {
        type            epsilonWallFunction;
        value           nonuniform List<scalar> 
60
(
1.22492e-05
5.1065e-05
0.000142491
0.000248562
0.000342565
0.000404088
0.000434044
0.00042779
0.000409016
0.000370111
0.000339475
0.000311215
0.000283054
0.000259066
0.000234572
0.000219663
0.000221785
0.000255156
0.000353772
0.000281392
0.000524382
0.00129492
0.00184861
0.00221735
0.00251591
0.00276099
0.00297036
0.00314216
0.00328314
0.00338685
0.00345804
0.00349201
0.00350404
0.00350154
0.00347793
0.00346361
0.00340629
0.00334212
0.00318529
0.00297495
1.22492e-05
3.28385e-05
4.30671e-05
5.00912e-05
9.88429e-05
0.000301626
0.000650543
0.000915578
0.00107346
0.00122574
0.00135786
0.00147498
0.0015933
0.00168257
0.00172109
0.001728
0.00160528
0.00125271
0.00076377
0.000524382
)
;
    }
    frontAndBack
    {
        type            empty;
    }
}


// ************************************************************************* //
