/*--------------------------------*- C++ -*----------------------------------*\
  =========                 |
  \\      /  F ield         | OpenFOAM: The Open Source CFD Toolbox
   \\    /   O peration     | Website:  https://openfoam.org
    \\  /    A nd           | Version:  13
     \\/     M anipulation  |
\*---------------------------------------------------------------------------*/
FoamFile
{
    format      ascii;
    class       surfaceScalarField;
    location    "3";
    object      phi;
}
// * * * * * * * * * * * * * * * * * * * * * * * * * * * * * * * * * * * * * //

dimensions      [0 3 -1 0 0 0 0];

internalField   nonuniform List<scalar> 
3120
(
5.58677e-08
-5.58697e-08
1.4042e-07
-8.4552e-08
2.13285e-07
-7.28659e-08
2.56647e-07
-4.33619e-08
2.73243e-07
-1.65961e-08
2.71863e-07
1.38049e-09
2.60286e-07
1.15769e-08
2.42074e-07
1.82119e-08
2.15144e-07
2.69296e-08
1.74043e-07
4.11011e-08
1.08774e-07
6.5269e-08
-9.92712e-09
1.18701e-07
-2.00653e-07
1.90726e-07
-4.8825e-07
2.87597e-07
-8.7066e-07
3.82411e-07
-1.29236e-06
4.21695e-07
-1.69493e-06
4.0257e-07
-2.05645e-06
3.61522e-07
-2.36592e-06
3.09469e-07
-2.62166e-06
2.55739e-07
-2.8231e-06
2.01442e-07
-2.9709e-06
1.47807e-07
-3.06423e-06
9.33224e-08
-3.10281e-06
3.85803e-08
-3.0818e-06
-2.10023e-08
-2.99936e-06
-8.24496e-08
-2.85193e-06
-1.47428e-07
-2.63164e-06
-2.20285e-07
-2.33665e-06
-2.9499e-07
-1.96381e-06
-3.72839e-07
-1.51466e-06
-4.4915e-07
-1.00632e-06
-5.08343e-07
-4.76271e-07
-5.30048e-07
1.81817e-08
-4.94453e-07
4.15847e-07
-3.97666e-07
5.89899e-07
-1.74051e-07
5.17196e-07
7.2703e-08
3.34463e-07
1.82733e-07
1.37594e-07
1.96869e-07
1.37594e-07
9.29191e-08
-1.48789e-07
2.01408e-07
-1.93041e-07
2.74793e-07
-1.46251e-07
3.06296e-07
-7.48647e-08
3.01283e-07
-1.15836e-08
2.61728e-07
4.09355e-08
1.91292e-07
8.20129e-08
8.45256e-08
1.24978e-07
-8.0039e-08
1.91494e-07
-3.36568e-07
2.9763e-07
-7.09604e-07
4.38305e-07
-1.18499e-06
5.94086e-07
-1.71222e-06
7.17955e-07
-2.21596e-06
7.91338e-07
-2.63596e-06
8.02408e-07
-2.97836e-06
7.64097e-07
-3.27199e-06
6.96204e-07
-3.51853e-06
6.08057e-07
-3.71969e-06
5.10628e-07
-3.87546e-06
4.11512e-07
-3.98665e-06
3.12635e-07
-4.0534e-06
2.14556e-07
-4.0776e-06
1.17525e-07
-4.05382e-06
1.47953e-08
-3.98727e-06
-8.7549e-08
-3.87041e-06
-1.99309e-07
-3.69808e-06
-3.19764e-07
-3.46664e-06
-4.5172e-07
-3.1662e-06
-5.95429e-07
-2.79407e-06
-7.44977e-07
-2.35063e-06
-8.92591e-07
-1.83965e-06
-1.01932e-06
-1.2807e-06
-1.08899e-06
-7.04839e-07
-1.07031e-06
-1.96631e-07
-9.05873e-07
1.8555e-07
-5.56233e-07
3.21645e-07
-6.33917e-08
2.66255e-07
2.38123e-07
1.23379e-07
3.39745e-07
2.60972e-07
9.98951e-08
-2.48684e-07
1.73951e-07
-2.67097e-07
2.00118e-07
-1.72418e-07
1.82449e-07
-5.71956e-08
1.20621e-07
5.02444e-08
8.86083e-09
1.52695e-07
-1.73316e-07
2.6419e-07
-4.5142e-07
4.03082e-07
-8.39106e-07
5.7918e-07
-1.31973e-06
7.78251e-07
-1.83898e-06
9.57555e-07
-2.32519e-06
1.0803e-06
-2.74936e-06
1.14212e-06
-3.10012e-06
1.14209e-06
-3.38493e-06
1.08723e-06
-3.6163e-06
9.95465e-07
-3.80358e-06
8.83486e-07
-3.95469e-06
7.59167e-07
-4.0731e-06
6.29038e-07
-4.16221e-06
5.0062e-07
-4.22267e-06
3.73095e-07
-4.25512e-06
2.47006e-07
-4.25661e-06
1.19007e-07
-4.22721e-06
-1.46035e-08
-4.16566e-06
-1.491e-07
-4.07077e-06
-2.9419e-07
-3.93825e-06
-4.52293e-07
-3.76409e-06
-6.25874e-07
-3.54222e-06
-8.17303e-07
-3.2622e-06
-1.025e-06
-2.9164e-06
-1.23839e-06
-2.49716e-06
-1.43856e-06
-2.00626e-06
-1.57989e-06
-1.46362e-06
-1.61296e-06
-8.97081e-07
-1.47241e-06
-3.75454e-07
-1.07786e-06
-3.21554e-08
-4.0669e-07
5.86911e-08
1.47277e-07
3.74212e-08
3.61015e-07
2.98393e-07
7.19816e-08
-3.20666e-07
8.79708e-08
-2.83086e-07
4.91843e-08
-1.33632e-07
-3.82295e-08
3.02181e-08
-1.85136e-07
1.97151e-07
-4.09723e-07
3.77283e-07
-7.28685e-07
5.83152e-07
-1.14145e-06
8.15843e-07
-1.61819e-06
1.05592e-06
-2.10699e-06
1.26705e-06
-2.55401e-06
1.40458e-06
-2.92815e-06
1.45444e-06
-3.2254e-06
1.43938e-06
-3.45723e-06
1.37392e-06
-3.64026e-06
1.27025e-06
-3.78673e-06
1.14194e-06
-3.90268e-06
9.99428e-07
-3.99667e-06
8.53159e-07
-4.07357e-06
7.05937e-07
-4.13137e-06
5.58425e-07
-4.16827e-06
4.09988e-07
-4.18443e-06
2.63166e-07
-4.17916e-06
1.13738e-07
-4.15411e-06
-3.96473e-08
-4.10702e-06
-1.9619e-07
-4.03644e-06
-3.64776e-07
-3.94e-06
-5.48728e-07
-3.8146e-06
-7.5128e-07
-3.65798e-06
-9.73915e-07
-3.46614e-06
-1.21684e-06
-3.23267e-06
-1.47186e-06
-2.94411e-06
-1.72712e-06
-2.57037e-06
-1.95363e-06
-2.10262e-06
-2.08071e-06
-1.54741e-06
-2.02762e-06
-9.30078e-07
-1.6952e-06
-3.58019e-07
-9.78749e-07
-9.1988e-08
-1.18755e-07
-1.21555e-08
2.81183e-07
2.86238e-07
2.00897e-08
-3.40755e-07
-3.68161e-08
-2.2618e-07
-1.48978e-07
-2.14699e-08
-3.157e-07
1.9694e-07
-5.53706e-07
4.35157e-07
-8.75585e-07
6.99161e-07
-1.27632e-06
9.83884e-07
-1.72838e-06
1.2679e-06
-2.18566e-06
1.51321e-06
-2.59182e-06
1.67321e-06
-2.91946e-06
1.73221e-06
-3.17739e-06
1.71237e-06
-3.3771e-06
1.6391e-06
-3.53014e-06
1.52696e-06
-3.64925e-06
1.38936e-06
-3.74459e-06
1.23728e-06
-3.82135e-06
1.07619e-06
-3.87816e-06
9.09968e-07
-3.91613e-06
7.43899e-07
-3.93689e-06
5.79186e-07
-3.94456e-06
4.17666e-07
-3.93961e-06
2.58208e-07
-3.92379e-06
9.79265e-08
-3.898e-06
-6.54458e-08
-3.85956e-06
-2.34626e-07
-3.80873e-06
-4.15605e-07
-3.74479e-06
-6.12664e-07
-3.66594e-06
-8.3013e-07
-3.56861e-06
-1.07124e-06
-3.44827e-06
-1.33719e-06
-3.29683e-06
-1.62329e-06
-3.10703e-06
-1.91692e-06
-2.86355e-06
-2.19712e-06
-2.52859e-06
-2.41567e-06
-2.06669e-06
-2.48952e-06
-1.46517e-06
-2.29672e-06
-7.35044e-07
-1.70888e-06
-1.77234e-07
-6.76565e-07
-1.04593e-08
1.14408e-07
2.75779e-07
-5.12682e-08
-2.89487e-07
-1.82644e-07
-9.48046e-08
-3.64146e-07
1.60033e-07
-6.03942e-07
4.36735e-07
-9.14055e-07
7.45271e-07
-1.29125e-06
1.07635e-06
-1.71204e-06
1.40468e-06
-2.13631e-06
1.69217e-06
-2.51268e-06
1.88958e-06
-2.81083e-06
1.97136e-06
-3.0386e-06
1.95998e-06
-3.21329e-06
1.88706e-06
-3.34532e-06
1.77113e-06
-3.44385e-06
1.62549e-06
-3.51623e-06
1.46174e-06
-3.56606e-06
1.2871e-06
-3.5975e-06
1.10764e-06
-3.61476e-06
9.27229e-07
-3.6211e-06
7.50235e-07
-3.61863e-06
5.76718e-07
-3.60789e-06
4.06927e-07
-3.58947e-06
2.39787e-07
-3.56458e-06
7.30286e-08
-3.53409e-06
-9.59344e-08
-3.49802e-06
-2.70691e-07
-3.45767e-06
-4.55961e-07
-3.41372e-06
-6.56611e-07
-3.36606e-06
-8.77785e-07
-3.3132e-06
-1.12411e-06
-3.25189e-06
-1.3985e-06
-3.17533e-06
-1.69986e-06
-3.07137e-06
-2.02088e-06
-2.92559e-06
-2.3429e-06
-2.71303e-06
-2.62823e-06
-2.38639e-06
-2.81616e-06
-1.89033e-06
-2.79278e-06
-1.18735e-06
-2.41186e-06
-3.86868e-07
-1.47704e-06
-2.44987e-08
-2.47962e-07
2.5128e-07
-1.24816e-07
-1.64671e-07
-3.23015e-07
1.03395e-07
-5.6454e-07
4.01557e-07
-8.60057e-07
7.32253e-07
-1.21142e-06
1.09663e-06
-1.60064e-06
1.46558e-06
-1.99571e-06
1.79975e-06
-2.35125e-06
2.04771e-06
-2.63254e-06
2.17087e-06
-2.84184e-06
2.18067e-06
-2.99793e-06
2.11607e-06
-3.1124e-06
2.00153e-06
-3.19312e-06
1.85185e-06
-3.24741e-06
1.67978e-06
-3.28074e-06
1.49506e-06
-3.29767e-06
1.30404e-06
-3.30205e-06
1.11202e-06
-3.29717e-06
9.22345e-07
-3.28434e-06
7.37412e-07
-3.26493e-06
5.57301e-07
-3.23986e-06
3.8186e-07
-3.21001e-06
2.09941e-07
-3.17662e-06
3.96398e-08
-3.14075e-06
-1.31812e-07
-3.10379e-06
-3.07652e-07
-3.06748e-06
-4.92265e-07
-3.03343e-06
-6.90664e-07
-3.00277e-06
-9.08445e-07
-2.97565e-06
-1.15123e-06
-2.9504e-06
-1.42374e-06
-2.92217e-06
-1.72809e-06
-2.88183e-06
-2.06122e-06
-2.81409e-06
-2.41063e-06
-2.69389e-06
-2.74843e-06
-2.48694e-06
-3.02311e-06
-2.1325e-06
-3.14722e-06
-1.56676e-06
-2.9776e-06
-7.24122e-07
-2.31968e-06
-8.46227e-08
-8.87461e-07
1.66657e-07
-1.88361e-07
2.36896e-08
-4.38978e-07
3.54012e-07
-7.25547e-07
6.88127e-07
-1.05419e-06
1.06089e-06
-1.41523e-06
1.45768e-06
-1.785e-06
1.83534e-06
-2.12694e-06
2.14168e-06
-2.40353e-06
2.3243e-06
-2.606e-06
2.37334e-06
-2.75243e-06
2.3271e-06
-2.85735e-06
2.22099e-06
-2.92839e-06
2.07257e-06
-2.97272e-06
1.89618e-06
-2.99672e-06
1.70378e-06
-3.0051e-06
1.50344e-06
-3.0018e-06
1.30073e-06
-2.98968e-06
1.0999e-06
-2.97077e-06
9.03439e-07
-2.94603e-06
7.12667e-07
-2.91634e-06
5.27608e-07
-2.88241e-06
3.4793e-07
-2.84499e-06
1.72528e-07
-2.80559e-06
2.33517e-10
-2.76499e-06
-1.72408e-07
-2.72541e-06
-3.47228e-07
-2.68904e-06
-5.28643e-07
-2.65821e-06
-7.21489e-07
-2.6351e-06
-9.31554e-07
-2.62106e-06
-1.16527e-06
-2.61579e-06
-1.42901e-06
-2.61619e-06
-1.7277e-06
-2.61497e-06
-2.06244e-06
-2.59855e-06
-2.42705e-06
-2.54461e-06
-2.80237e-06
-2.42042e-06
-3.14729e-06
-2.18042e-06
-3.38722e-06
-1.76444e-06
-3.39358e-06
-1.08561e-06
-2.99851e-06
-2.37442e-07
-1.73562e-06
-7.0785e-08
-2.3215e-07
2.5584e-07
-5.21886e-07
6.43747e-07
-8.35107e-07
1.00135e-06
-1.17225e-06
1.39803e-06
-1.5194e-06
1.80483e-06
-1.85133e-06
2.16727e-06
-2.13163e-06
2.42198e-06
-2.33968e-06
2.53235e-06
-2.48609e-06
2.51975e-06
-2.58901e-06
2.43002e-06
-2.6578e-06
2.28978e-06
-2.69928e-06
2.11405e-06
-2.72024e-06
1.91714e-06
-2.72594e-06
1.70948e-06
-2.72029e-06
1.4978e-06
-2.70638e-06
1.28682e-06
-2.68616e-06
1.07968e-06
-2.66078e-06
8.78059e-07
-2.63077e-06
6.82661e-07
-2.59657e-06
4.93411e-07
-2.55859e-06
3.09944e-07
-2.51748e-06
1.31424e-07
-2.47387e-06
-4.33832e-08
-2.42972e-06
-2.16557e-07
-2.38662e-06
-3.90325e-07
-2.34714e-06
-5.68124e-07
-2.31421e-06
-7.54415e-07
-2.29087e-06
-9.54897e-07
-2.27965e-06
-1.17649e-06
-2.28173e-06
-1.42693e-06
-2.29576e-06
-1.71366e-06
-2.31642e-06
-2.04179e-06
-2.33261e-06
-2.41086e-06
-2.32454e-06
-2.81044e-06
-2.26138e-06
-3.21045e-06
-2.10076e-06
-3.54785e-06
-1.80906e-06
-3.68528e-06
-1.31261e-06
-3.49495e-06
-4.48223e-07
-2.60002e-06
-5.19008e-07
-2.59615e-07
5.15455e-07
-5.67842e-07
9.51974e-07
-8.88983e-07
1.32249e-06
-1.21691e-06
1.72596e-06
-1.53662e-06
2.12455e-06
-1.82271e-06
2.45336e-06
-2.04505e-06
2.64431e-06
-2.20158e-06
2.68889e-06
-2.30978e-06
2.62794e-06
-2.38274e-06
2.50297e-06
-2.42751e-06
2.33455e-06
-2.45087e-06
2.13741e-06
-2.45878e-06
1.92504e-06
-2.45549e-06
1.70619e-06
-2.44417e-06
1.48647e-06
-2.42694e-06
1.26959e-06
-2.40497e-06
1.05771e-06
-2.37874e-06
8.51828e-07
-2.34836e-06
6.52287e-07
-2.31389e-06
4.58941e-07
-2.27541e-06
2.71462e-07
-2.23326e-06
8.92745e-08
-2.18809e-06
-8.85543e-08
-2.1413e-06
-2.6335e-07
-2.0947e-06
-4.36927e-07
-2.05084e-06
-6.11981e-07
-2.01291e-06
-7.92345e-07
-1.98448e-06
-9.83329e-07
-1.969e-06
-1.19197e-06
-1.96895e-06
-1.42697e-06
-1.98468e-06
-1.69794e-06
-2.01283e-06
-2.01364e-06
-2.04482e-06
-2.37888e-06
-2.06456e-06
-2.7907e-06
-2.04459e-06
-3.23041e-06
-1.9449e-06
-3.64754e-06
-1.72934e-06
-3.90084e-06
-1.34843e-06
-3.87587e-06
-6.68299e-07
-3.28014e-06
-1.18731e-06
-2.68694e-07
7.84149e-07
-5.79463e-07
1.26274e-06
-8.92589e-07
1.63561e-06
-1.19894e-06
2.03231e-06
-1.48409e-06
2.4097e-06
-1.72384e-06
2.69311e-06
-1.89829e-06
2.81876e-06
-2.01935e-06
2.80995e-06
-2.10174e-06
2.71034e-06
-2.15488e-06
2.55611e-06
-2.18521e-06
2.36489e-06
-2.19917e-06
2.15137e-06
-2.20166e-06
1.92754e-06
-2.19611e-06
1.70064e-06
-2.18484e-06
1.4752e-06
-2.16916e-06
1.25391e-06
-2.14959e-06
1.03814e-06
-2.12614e-06
8.28378e-07
-2.09855e-06
6.24701e-07
-2.06654e-06
4.2693e-07
-2.0299e-06
2.34821e-07
-1.98873e-06
4.81048e-08
-1.94356e-06
-1.33727e-07
-1.89549e-06
-3.11415e-07
-1.84625e-06
-4.86165e-07
-1.79828e-06
-6.59959e-07
-1.75472e-06
-8.35903e-07
-1.71935e-06
-1.01869e-06
-1.69622e-06
-1.2151e-06
-1.68887e-06
-1.43431e-06
-1.69915e-06
-1.68766e-06
-1.72557e-06
-1.98722e-06
-1.76161e-06
-2.34284e-06
-1.7945e-06
-2.75781e-06
-1.80157e-06
-3.22334e-06
-1.74516e-06
-3.70396e-06
-1.56867e-06
-4.07733e-06
-1.26522e-06
-4.17932e-06
-7.64477e-07
-3.78088e-06
-1.95178e-06
-2.61633e-07
1.04578e-06
-5.61032e-07
1.56214e-06
-8.54995e-07
1.92958e-06
-1.13316e-06
2.31047e-06
-1.38258e-06
2.65913e-06
-1.57808e-06
2.88861e-06
-1.71694e-06
2.95761e-06
-1.81335e-06
2.90637e-06
-1.87835e-06
2.77533e-06
-1.91926e-06
2.59703e-06
-1.94223e-06
2.38785e-06
-1.95286e-06
2.162e-06
-1.95508e-06
1.92976e-06
-1.95152e-06
1.69708e-06
-1.94375e-06
1.46743e-06
-1.93245e-06
1.24262e-06
-1.91765e-06
1.02334e-06
-1.89896e-06
8.09689e-07
-1.87582e-06
6.01556e-07
-1.84767e-06
3.98785e-07
-1.81414e-06
2.01293e-07
-1.77517e-06
9.13221e-09
-1.73115e-06
-1.77748e-07
-1.68304e-06
-3.59523e-07
-1.63241e-06
-5.36798e-07
-1.58149e-06
-7.10877e-07
-1.53324e-06
-8.84155e-07
-1.49131e-06
-1.06062e-06
-1.45992e-06
-1.2465e-06
-1.44329e-06
-1.45094e-06
-1.44458e-06
-1.68636e-06
-1.46411e-06
-1.96769e-06
-1.49737e-06
-2.30958e-06
-1.53375e-06
-2.72143e-06
-1.55475e-06
-3.20234e-06
-1.5302e-06
-3.7285e-06
-1.39414e-06
-4.21339e-06
-1.14725e-06
-4.42621e-06
-7.04588e-07
-4.22354e-06
-2.65637e-06
-2.41826e-07
1.28761e-06
-5.19827e-07
1.84014e-06
-7.8793e-07
2.19768e-06
-1.0342e-06
2.55675e-06
-1.24622e-06
2.87114e-06
-1.40339e-06
3.04578e-06
-1.51749e-06
3.07172e-06
-1.59652e-06
2.9854e-06
-1.64999e-06
2.8288e-06
-1.68409e-06
2.63112e-06
-1.70438e-06
2.40814e-06
-1.71548e-06
2.1731e-06
-1.72045e-06
1.93473e-06
-1.72119e-06
1.69782e-06
-1.71866e-06
1.46489e-06
-1.71303e-06
1.23699e-06
-1.70395e-06
1.01426e-06
-1.69075e-06
7.96492e-07
-1.67265e-06
5.83455e-07
-1.64893e-06
3.75065e-07
-1.61911e-06
1.71471e-07
-1.58301e-06
-2.69639e-08
-1.54098e-06
-2.19787e-07
-1.49385e-06
-4.06647e-07
-1.44309e-06
-5.87558e-07
-1.39075e-06
-7.63213e-07
-1.33954e-06
-9.35374e-07
-1.29279e-06
-1.10736e-06
-1.25455e-06
-1.28475e-06
-1.22924e-06
-1.47625e-06
-1.22093e-06
-1.69467e-06
-1.23164e-06
-1.95699e-06
-1.25894e-06
-2.28228e-06
-1.29399e-06
-2.68639e-06
-1.3211e-06
-3.17523e-06
-1.3143e-06
-3.7353e-06
-1.21878e-06
-4.30891e-06
-9.98069e-07
-4.64692e-06
-6.22898e-07
-4.59871e-06
-3.27927e-06
-2.1326e-07
1.50087e-06
-4.6244e-07
2.08932e-06
-6.9993e-07
2.43517e-06
-9.1207e-07
2.76889e-06
-1.08777e-06
3.04685e-06
-1.21613e-06
3.17413e-06
-1.31049e-06
3.16608e-06
-1.37674e-06
3.05165e-06
-1.42266e-06
2.87472e-06
-1.45342e-06
2.66189e-06
-1.47379e-06
2.42851e-06
-1.48738e-06
2.1867e-06
-1.49649e-06
1.94383e-06
-1.50238e-06
1.70372e-06
-1.50553e-06
1.46804e-06
-1.50575e-06
1.2372e-06
-1.50241e-06
1.01092e-06
-1.49468e-06
7.88758e-07
-1.48163e-06
5.70413e-07
-1.46246e-06
3.55895e-07
-1.4366e-06
1.45606e-07
-1.40382e-06
-5.97415e-08
-1.36439e-06
-2.59216e-07
-1.31912e-06
-4.5192e-07
-1.26939e-06
-6.37289e-07
-1.21714e-06
-8.15457e-07
-1.16487e-06
-9.87652e-07
-1.11558e-06
-1.15665e-06
-1.07293e-06
-1.3274e-06
-1.04116e-06
-1.50802e-06
-1.02471e-06
-1.71112e-06
-1.02689e-06
-1.9548e-06
-1.04736e-06
-2.26181e-06
-1.07939e-06
-2.65437e-06
-1.10922e-06
-3.1454e-06
-1.11344e-06
-3.73108e-06
-1.05491e-06
-4.36744e-06
-8.59113e-07
-4.84272e-06
-5.37174e-07
-4.92065e-06
-3.81644e-06
-1.78582e-07
1.67945e-06
-3.94194e-07
2.30494e-06
-5.9801e-07
2.63899e-06
-7.76854e-07
2.94773e-06
-9.19148e-07
3.18914e-06
-1.024e-06
3.27899e-06
-1.10192e-06
3.244e-06
-1.15845e-06
3.10818e-06
-1.1993e-06
2.91557e-06
-1.22865e-06
2.69124e-06
-1.25035e-06
2.45021e-06
-1.26712e-06
2.20346e-06
-1.28056e-06
1.95727e-06
-1.29145e-06
1.71461e-06
-1.29987e-06
1.47647e-06
-1.3054e-06
1.24273e-06
-1.30728e-06
1.0128e-06
-1.30457e-06
7.86052e-07
-1.29632e-06
5.62155e-07
-1.28163e-06
3.41205e-07
-1.25986e-06
1.23844e-07
-1.23076e-06
-8.88414e-08
-1.19453e-06
-2.95451e-07
-1.15193e-06
-4.94523e-07
-1.10431e-06
-6.84904e-07
-1.05358e-06
-8.66192e-07
-1.00207e-06
-1.03916e-06
-9.5255e-07
-1.20617e-06
-9.0824e-07
-1.37171e-06
-8.7297e-07
-1.54329e-06
-8.51116e-07
-1.73297e-06
-8.46753e-07
-1.95917e-06
-8.61355e-07
-2.24721e-06
-8.90415e-07
-2.6253e-06
-9.21449e-07
-3.11436e-06
-9.33341e-07
-3.71919e-06
-8.9602e-07
-4.40476e-06
-7.36464e-07
-5.00228e-06
-4.64877e-07
-5.19224e-06
-4.28132e-06
-1.41078e-07
1.82053e-06
-3.20051e-07
2.48391e-06
-4.89258e-07
2.80819e-06
-6.35133e-07
3.0936e-06
-7.46814e-07
3.30082e-06
-8.31328e-07
3.3635e-06
-8.95359e-07
3.30803e-06
-9.43864e-07
3.15668e-06
-9.80861e-07
2.95257e-06
-1.00952e-06
2.7199e-06
-1.03274e-06
2.47342e-06
-1.05242e-06
2.22315e-06
-1.06962e-06
1.97447e-06
-1.08468e-06
1.72967e-06
-1.09745e-06
1.48924e-06
-1.10738e-06
1.25265e-06
-1.11364e-06
1.01907e-06
-1.11531e-06
7.8772e-07
-1.11141e-06
5.58251e-07
-1.10103e-06
3.30833e-07
-1.08349e-06
1.06304e-07
-1.05845e-06
-1.13887e-07
-1.02603e-06
-3.27867e-07
-9.86963e-07
-5.33594e-07
-9.42568e-07
-7.29298e-07
-8.94726e-07
-9.14034e-07
-8.45719e-07
-1.08817e-06
-7.98119e-07
-1.25377e-06
-7.54801e-07
-1.41503e-06
-7.19122e-07
-1.57897e-06
-6.95117e-07
-1.75698e-06
-6.87165e-07
-1.96712e-06
-6.9815e-07
-2.23622e-06
-7.25815e-07
-2.59764e-06
-7.59433e-07
-3.08075e-06
-7.80438e-07
-3.69818e-06
-7.62485e-07
-4.42271e-06
-6.33967e-07
-5.1308e-06
-3.96076e-07
-5.43013e-06
-4.6774e-06
-1.01138e-07
1.92167e-06
-2.42471e-07
2.62524e-06
-3.77297e-07
2.94302e-06
-4.90786e-07
3.20709e-06
-5.75383e-07
3.38542e-06
-6.41056e-07
3.42917e-06
-6.92524e-07
3.3595e-06
-7.33698e-07
3.19786e-06
-7.6712e-07
2.98599e-06
-7.94945e-07
2.74772e-06
-8.1913e-07
2.49761e-06
-8.4088e-07
2.2449e-06
-8.60745e-07
1.99433e-06
-8.78793e-07
1.74772e-06
-8.94705e-07
1.50515e-06
-9.07881e-07
1.26583e-06
-9.1754e-07
1.02872e-06
-9.2279e-07
7.9297e-07
-9.22705e-07
5.58165e-07
-9.16405e-07
3.24533e-07
-9.03161e-07
9.3061e-08
-8.82563e-07
-1.34486e-07
-8.54654e-07
-3.55776e-07
-8.2007e-07
-5.68177e-07
-7.80094e-07
-7.69274e-07
-7.3658e-07
-9.57548e-07
-6.91773e-07
-1.13297e-06
-6.48126e-07
-1.29741e-06
-6.08236e-07
-1.45492e-06
-5.75014e-07
-1.6122e-06
-5.52018e-07
-1.77997e-06
-5.43537e-07
-1.9756e-06
-5.53386e-07
-2.22637e-06
-5.81364e-07
-2.56966e-06
-6.18739e-07
-3.04337e-06
-6.48222e-07
-3.6687e-06
-6.43043e-07
-4.42789e-06
-5.50956e-07
-5.22288e-06
-3.48731e-07
-5.63235e-06
-5.02613e-06
-6.08489e-08
1.98252e-06
-1.6404e-07
2.72843e-06
-2.64735e-07
3.04371e-06
-3.46948e-07
3.28931e-06
-4.0694e-07
3.44541e-06
-4.54922e-07
3.47716e-06
-4.94167e-07
3.39874e-06
-5.27887e-07
3.23158e-06
-5.57306e-07
3.01541e-06
-5.83554e-07
2.77397e-06
-6.07691e-07
2.52175e-06
-6.30284e-07
2.26749e-06
-6.51487e-07
2.01553e-06
-6.71143e-07
1.76738e-06
-6.88853e-07
1.52286e-06
-7.04035e-07
1.28101e-06
-7.15987e-07
1.04068e-06
-7.23921e-07
8.00904e-07
-7.27005e-07
5.61249e-07
-7.24424e-07
3.21951e-07
-7.15466e-07
8.4103e-08
-6.99667e-07
-1.50285e-07
-6.76975e-07
-3.78468e-07
-6.47916e-07
-5.97236e-07
-6.13673e-07
-8.03517e-07
-5.76033e-07
-9.95189e-07
-5.37186e-07
-1.17182e-06
-4.99484e-07
-1.33512e-06
-4.65303e-07
-1.4891e-06
-4.3717e-07
-1.64033e-06
-4.18153e-07
-1.79899e-06
-4.12221e-07
-1.98153e-06
-4.23665e-07
-2.21493e-06
-4.54035e-07
-2.53929e-06
-4.96877e-07
-3.00053e-06
-5.36141e-07
-3.62944e-06
-5.44257e-07
-4.41977e-06
-4.79605e-07
-5.28754e-06
-3.06776e-07
-5.80518e-06
-5.3329e-06
-2.15776e-08
2.00409e-06
-8.61333e-08
2.79299e-06
-1.53485e-07
3.11106e-06
-2.05797e-07
3.34162e-06
-2.42945e-07
3.48256e-06
-2.7357e-07
3.50778e-06
-3.0035e-07
3.42552e-06
-3.2597e-07
3.2572e-06
-3.50482e-07
3.03992e-06
-3.74026e-07
2.79751e-06
-3.96823e-07
2.54454e-06
-4.18866e-07
2.28953e-06
-4.39969e-07
2.03664e-06
-4.5981e-07
1.78722e-06
-4.77948e-07
1.541e-06
-4.93861e-07
1.29693e-06
-5.06961e-07
1.05378e-06
-5.16605e-07
8.10548e-07
-5.22104e-07
5.66749e-07
-5.22764e-07
3.22612e-07
-5.17949e-07
7.92876e-08
-5.07195e-07
-1.61038e-07
-4.9038e-07
-3.95283e-07
-4.67899e-07
-6.19718e-07
-4.40779e-07
-8.30636e-07
-4.10665e-07
-1.0253e-06
-3.79624e-07
-1.20286e-06
-3.49869e-07
-1.36487e-06
-3.23578e-07
-1.51539e-06
-3.02943e-07
-1.66096e-06
-2.90566e-07
-1.81137e-06
-2.89998e-07
-1.9821e-06
-3.05659e-07
-2.19927e-06
-3.40435e-07
-2.50452e-06
-3.90031e-07
-2.95093e-06
-4.39619e-07
-3.57985e-06
-4.62928e-07
-4.39647e-06
-4.22916e-07
-5.32755e-06
-2.76309e-07
-5.95179e-06
-5.60921e-06
2.04263e-08
1.98367e-06
-9.41994e-09
2.82283e-06
-4.4605e-08
3.14625e-06
-6.90761e-08
3.36609e-06
-8.44809e-08
3.49797e-06
-9.72116e-08
3.52051e-06
-1.11082e-07
3.43939e-06
-1.27517e-07
3.27363e-06
-1.45855e-07
3.05826e-06
-1.65321e-07
2.81698e-06
-1.8534e-07
2.56456e-06
-2.0538e-07
2.30957e-06
-2.24945e-07
2.0562e-06
-2.43585e-07
1.80586e-06
-2.6083e-07
1.55824e-06
-2.7624e-07
1.31234e-06
-2.89365e-07
1.0669e-06
-2.99731e-07
8.20913e-07
-3.06835e-07
5.73853e-07
-3.10159e-07
3.25936e-07
-3.09211e-07
7.83389e-08
-3.036e-07
-1.66649e-07
-2.93189e-07
-4.05694e-07
-2.78251e-07
-6.34656e-07
-2.59621e-07
-8.49266e-07
-2.38716e-07
-1.04621e-06
-2.17373e-07
-1.2242e-06
-1.97585e-07
-1.38466e-06
-1.81293e-07
-1.53168e-06
-1.70382e-07
-1.67187e-06
-1.67024e-07
-1.81472e-06
-1.74323e-07
-1.9748e-06
-1.96612e-07
-2.17698e-06
-2.37752e-07
-2.46338e-06
-2.95487e-07
-2.8932e-06
-3.56125e-07
-3.51921e-06
-3.94773e-07
-4.35782e-06
-3.75703e-07
-5.34662e-06
-2.50506e-07
-6.07698e-06
-5.85972e-06
5.72712e-08
1.9264e-06
6.49191e-08
2.81519e-06
6.03159e-08
3.15085e-06
6.19484e-08
3.36446e-06
6.83057e-08
3.49161e-06
7.42629e-08
3.51455e-06
7.40616e-08
3.43959e-06
6.78102e-08
3.27988e-06
5.7048e-08
3.06902e-06
4.31764e-08
2.83085e-06
2.74432e-08
2.5803e-06
1.08557e-08
2.32616e-06
-5.81554e-09
2.07287e-06
-2.19253e-08
1.82197e-06
-3.70565e-08
1.57337e-06
-5.08378e-08
1.32612e-06
-6.29562e-08
1.07902e-06
-7.31247e-08
8.31082e-07
-8.1052e-08
5.8178e-07
-8.64411e-08
3.31325e-07
-8.90019e-08
8.08998e-08
-8.84953e-08
-1.67155e-07
-8.48333e-08
-4.09356e-07
-7.82144e-08
-6.41275e-07
-6.9279e-08
-8.58201e-07
-5.91544e-08
-1.05633e-06
-4.93503e-08
-1.23401e-06
-4.15226e-08
-1.39249e-06
-3.72672e-08
-1.53594e-06
-3.81285e-08
-1.67101e-06
-4.58993e-08
-1.80695e-06
-6.32543e-08
-1.95745e-06
-9.43071e-08
-2.14592e-06
-1.43608e-07
-2.41408e-06
-2.10765e-07
-2.82604e-06
-2.83256e-07
-3.44672e-06
-3.37301e-07
-4.30377e-06
-3.38978e-07
-5.34494e-06
-2.31459e-07
-6.1845e-06
-6.09118e-06
9.34968e-08
1.8329e-06
1.35326e-07
2.77336e-06
1.60138e-07
3.12604e-06
1.86402e-07
3.33819e-06
2.14377e-07
3.46363e-06
2.3959e-07
3.48934e-06
2.54742e-07
3.42444e-06
2.5998e-07
3.27465e-06
2.58305e-07
3.0707e-06
2.51613e-07
2.83754e-06
2.41701e-07
2.59021e-06
2.30009e-07
2.33785e-06
2.17593e-07
2.08529e-06
2.05165e-07
1.8344e-06
1.93216e-07
1.58532e-06
1.82037e-07
1.3373e-06
1.71796e-07
1.08926e-06
1.62598e-07
8.4028e-07
1.54509e-07
5.89868e-07
1.47582e-07
3.38252e-07
1.41859e-07
8.66229e-08
1.37367e-07
-1.62663e-07
1.34072e-07
-4.06061e-07
1.31787e-07
-6.3899e-07
1.30043e-07
-8.56457e-07
1.28034e-07
-1.05432e-06
1.24674e-07
-1.23065e-06
1.18763e-07
-1.38658e-06
1.09139e-07
-1.52631e-06
9.46555e-08
-1.65653e-06
7.3898e-08
-1.7862e-06
4.45974e-08
-1.92815e-06
2.87179e-09
-2.1042e-06
-5.61007e-08
-2.3551e-06
-1.33656e-07
-2.74848e-06
-2.18542e-07
-3.36183e-06
-2.87239e-07
-4.23508e-06
-3.08557e-07
-5.32362e-06
-2.15934e-07
-6.27713e-06
-6.30711e-06
1.27142e-07
1.70576e-06
2.01657e-07
2.69884e-06
2.53877e-07
3.07382e-06
3.03675e-07
3.2884e-06
3.53276e-07
3.41403e-06
3.96446e-07
3.44617e-06
4.28427e-07
3.39246e-06
4.47669e-07
3.2554e-06
4.5711e-07
3.06126e-06
4.59412e-07
2.83524e-06
4.56965e-07
2.59265e-06
4.51627e-07
2.34319e-06
4.44719e-07
2.0922e-06
4.37107e-07
1.84201e-06
4.293e-07
1.59313e-06
4.2154e-07
1.34506e-06
4.13879e-07
1.09692e-06
4.06247e-07
8.47912e-07
3.98488e-07
5.97627e-07
3.904e-07
3.4634e-07
3.81764e-07
9.52589e-08
3.72366e-07
-1.53265e-07
3.61998e-07
-3.95693e-07
3.50418e-07
-6.2741e-07
3.37279e-07
-8.43319e-07
3.22095e-07
-1.03914e-06
3.0425e-07
-1.2128e-06
2.83092e-07
-1.36542e-06
2.58008e-07
-1.50123e-06
2.28334e-07
-1.62685e-06
1.9305e-07
-1.75091e-06
1.50259e-07
-1.88536e-06
9.64263e-08
-2.05036e-06
2.63685e-08
-2.28505e-06
-6.25028e-08
-2.65961e-06
-1.60597e-07
-3.26374e-06
-2.439e-07
-4.15177e-06
-2.8214e-07
-5.28538e-06
-2.05235e-07
-6.35403e-06
-6.51235e-06
1.5667e-07
1.54909e-06
2.62063e-07
2.59345e-06
3.40043e-07
2.99584e-06
4.12007e-07
3.21643e-06
4.82016e-07
3.34402e-06
5.43813e-07
3.38438e-06
5.94254e-07
3.34202e-06
6.2957e-07
3.22009e-06
6.52159e-07
3.03867e-06
6.65422e-07
2.82198e-06
6.722e-07
2.58588e-06
6.74731e-07
2.34066e-06
6.74614e-07
2.09231e-06
6.72874e-07
1.84375e-06
6.70075e-07
1.59593e-06
6.66432e-07
1.3487e-06
6.61899e-07
1.10145e-06
6.56247e-07
8.53565e-07
6.49114e-07
6.0476e-07
6.40061e-07
3.55393e-07
6.28615e-07
1.06706e-07
6.14317e-07
-1.38967e-07
5.96762e-07
-3.78139e-07
5.75601e-07
-6.06248e-07
5.50563e-07
-8.18281e-07
5.21457e-07
-1.01003e-06
4.88162e-07
-1.17951e-06
4.50634e-07
-1.32789e-06
4.08881e-07
-1.45947e-06
3.62795e-07
-1.58077e-06
3.11803e-07
-1.69992e-06
2.54332e-07
-1.82789e-06
1.87153e-07
-1.98319e-06
1.05022e-07
-2.20291e-06
4.03362e-09
-2.55862e-06
-1.07741e-07
-3.15196e-06
-2.06207e-07
-4.05331e-06
-2.59624e-07
-5.23197e-06
-1.9817e-07
-6.41548e-06
-6.71052e-06
1.80577e-07
1.36851e-06
3.14282e-07
2.45975e-06
4.1644e-07
2.89368e-06
5.0927e-07
3.1236e-06
5.98484e-07
3.25481e-06
6.79831e-07
3.30303e-06
7.49341e-07
3.27251e-06
8.02758e-07
3.16667e-06
8.40867e-07
3.00056e-06
8.67351e-07
2.79549e-06
8.85398e-07
2.56783e-06
8.97539e-07
2.32852e-06
9.05632e-07
2.08422e-06
9.10886e-07
1.83849e-06
9.13957e-07
1.59286e-06
9.15064e-07
1.34759e-06
9.14096e-07
1.10242e-06
9.10693e-07
8.56968e-07
9.04323e-07
6.1113e-07
8.94336e-07
3.6538e-07
8.80023e-07
1.21018e-07
8.60705e-07
-1.19648e-07
8.35776e-07
-3.5321e-07
8.04768e-07
-5.75241e-07
7.67472e-07
-7.80984e-07
7.23976e-07
-9.66538e-07
6.74653e-07
-1.13018e-06
6.20085e-07
-1.27332e-06
5.60915e-07
-1.4003e-06
4.97609e-07
-1.51746e-06
4.30082e-07
-1.63239e-06
3.57136e-07
-1.75494e-06
2.75793e-07
-1.90184e-06
1.80804e-07
-2.10793e-06
6.73767e-08
-2.4452e-06
-5.83809e-08
-3.02621e-06
-1.71913e-07
-3.93977e-06
-2.38634e-07
-5.16524e-06
-1.94384e-07
-6.45973e-06
-6.9049e-06
1.96903e-07
1.17161e-06
3.55731e-07
2.30092e-06
4.8051e-07
2.7689e-06
5.93033e-07
3.01108e-06
7.00715e-07
3.14713e-06
8.01349e-07
3.20239e-06
8.90553e-07
3.18331e-06
9.63621e-07
3.0936e-06
1.0198e-06
2.94438e-06
1.06199e-06
2.75331e-06
1.09356e-06
2.53626e-06
1.11729e-06
2.30478e-06
1.13525e-06
2.06626e-06
1.1488e-06
1.82495e-06
1.1587e-06
1.58295e-06
1.16523e-06
1.34107e-06
1.16824e-06
1.09941e-06
1.16729e-06
8.57918e-07
1.16171e-06
6.16706e-07
1.15069e-06
3.76404e-07
1.13331e-06
1.38393e-07
1.10871e-06
-9.50479e-08
1.07612e-06
-3.20618e-07
1.03498e-06
-5.34104e-07
9.8518e-07
-7.3118e-07
9.27086e-07
-9.08444e-07
8.61557e-07
-1.06466e-06
7.89763e-07
-1.20153e-06
7.12944e-07
-1.32348e-06
6.32107e-07
-1.43663e-06
5.47648e-07
-1.54793e-06
4.58786e-07
-1.66608e-06
3.62791e-07
-1.80585e-06
2.54448e-07
-1.99958e-06
1.28054e-07
-2.3188e-06
-1.20151e-08
-2.88614e-06
-1.40759e-07
-3.81103e-06
-2.20037e-07
-5.08597e-06
-1.91639e-07
-6.48813e-06
-7.09654e-06
2.03261e-07
9.68347e-07
3.83479e-07
2.1207e-06
5.29369e-07
2.62301e-06
6.6048e-07
2.87997e-06
7.859e-07
3.02171e-06
9.04946e-07
3.08335e-06
1.01403e-06
3.07422e-06
1.10802e-06
2.99961e-06
1.18464e-06
2.86776e-06
1.24527e-06
2.69267e-06
1.29289e-06
2.48865e-06
1.33039e-06
2.26728e-06
1.36003e-06
2.03662e-06
1.38334e-06
1.80164e-06
1.40119e-06
1.5651e-06
1.4139e-06
1.32835e-06
1.42135e-06
1.09196e-06
1.42306e-06
8.56211e-07
1.41827e-06
6.21495e-07
1.40604e-06
3.88638e-07
1.38531e-06
1.59115e-07
1.35508e-06
-6.48083e-08
1.31448e-06
-2.80021e-07
1.26296e-06
-4.82588e-07
1.20056e-06
-6.68777e-07
1.12797e-06
-8.3585e-07
1.04649e-06
-9.8318e-07
9.57822e-07
-1.11286e-06
8.63692e-07
-1.22935e-06
7.65552e-07
-1.33849e-06
6.6421e-07
-1.44659e-06
5.59303e-07
-1.56117e-06
4.48486e-07
-1.69503e-06
3.26686e-07
-1.87778e-06
1.87372e-07
-2.17949e-06
3.30558e-08
-2.73182e-06
-1.11419e-07
-3.66656e-06
-2.03848e-07
-4.99354e-06
-1.89281e-07
-6.5027e-06
-7.28582e-06
1.97468e-07
7.70878e-07
3.94541e-07
1.92363e-06
5.59966e-07
2.45759e-06
7.08644e-07
2.73129e-06
8.5088e-07
2.87947e-06
9.87516e-07
2.94671e-06
1.11582e-06
2.94592e-06
1.23112e-06
2.88432e-06
1.3298e-06
2.76907e-06
1.41154e-06
2.61093e-06
1.47807e-06
2.42212e-06
1.5319e-06
2.21345e-06
1.57535e-06
1.99317e-06
1.61011e-06
1.76688e-06
1.63718e-06
1.53803e-06
1.65698e-06
1.30855e-06
1.66943e-06
1.07951e-06
1.67405e-06
8.51589e-07
1.67006e-06
6.25493e-07
1.65643e-06
4.02269e-07
1.63206e-06
1.83479e-07
1.59582e-06
-2.85668e-08
1.54695e-06
-2.31152e-07
1.48498e-06
-4.20621e-07
1.4102e-06
-5.9399e-07
1.32364e-06
-7.49291e-07
1.22702e-06
-8.86567e-07
1.12243e-06
-1.00827e-06
1.01194e-06
-1.11886e-06
8.97274e-07
-1.22382e-06
7.7954e-07
-1.32886e-06
6.58789e-07
-1.44042e-06
5.33225e-07
-1.56947e-06
3.98134e-07
-1.74269e-06
2.46293e-07
-2.02765e-06
7.80079e-08
-2.56354e-06
-8.24212e-08
-3.50613e-06
-1.87864e-07
-4.88809e-06
-1.87143e-07
-6.50342e-06
-7.47296e-06
1.78901e-07
5.91978e-07
3.86838e-07
1.71569e-06
5.69482e-07
2.27494e-06
7.34618e-07
2.56615e-06
8.92563e-07
2.72152e-06
1.04603e-06
2.79324e-06
1.19258e-06
2.79937e-06
1.32847e-06
2.74843e-06
1.44963e-06
2.64792e-06
1.55402e-06
2.50653e-06
1.64193e-06
2.33421e-06
1.71485e-06
2.14054e-06
1.77462e-06
1.9334e-06
1.82287e-06
1.71863e-06
1.86074e-06
1.50017e-06
1.88875e-06
1.28054e-06
1.90693e-06
1.06133e-06
1.91484e-06
8.43674e-07
1.91174e-06
6.28598e-07
1.89662e-06
4.17383e-07
1.86844e-06
2.11657e-07
1.82606e-06
1.38128e-08
1.76897e-06
-1.74055e-07
1.69691e-06
-3.48562e-07
1.61051e-06
-5.07585e-07
1.51116e-06
-6.49943e-07
1.4009e-06
-7.76306e-07
1.28202e-06
-8.89396e-07
1.15675e-06
-9.93579e-07
1.02686e-06
-1.09394e-06
8.93639e-07
-1.19563e-06
7.57603e-07
-1.30439e-06
6.17626e-07
-1.42949e-06
4.69564e-07
-1.59463e-06
3.05905e-07
-1.86399e-06
1.24846e-07
-2.38248e-06
-5.15167e-08
-3.32976e-06
-1.72213e-07
-4.7674e-06
-1.89511e-07
-6.48612e-06
-7.66248e-06
1.49734e-07
4.42244e-07
3.60191e-07
1.50523e-06
5.55801e-07
2.07933e-06
7.35818e-07
2.38614e-06
9.08384e-07
2.54896e-06
1.0776e-06
2.62403e-06
1.24166e-06
2.63532e-06
1.3969e-06
2.59318e-06
1.5396e-06
2.50522e-06
1.66677e-06
2.37936e-06
1.77715e-06
2.22383e-06
1.87098e-06
2.04671e-06
1.94926e-06
1.85512e-06
2.01317e-06
1.65472e-06
2.06367e-06
1.44967e-06
2.10132e-06
1.24289e-06
2.12623e-06
1.03642e-06
2.1381e-06
8.3181e-07
2.13628e-06
6.30421e-07
2.11992e-06
4.33737e-07
2.08809e-06
2.4349e-07
2.04014e-06
6.17562e-08
1.97546e-06
-1.09375e-07
1.89445e-06
-2.6755e-07
1.79804e-06
-4.11173e-07
1.68793e-06
-5.39835e-07
1.56632e-06
-6.54696e-07
1.43553e-06
-7.58603e-07
1.29764e-06
-8.55692e-07
1.15435e-06
-9.50643e-07
1.00707e-06
-1.04835e-06
8.56715e-07
-1.15404e-06