/*--------------------------------*- C++ -*----------------------------------*\
  =========                 |
  \\      /  F ield         | OpenFOAM: The Open Source CFD Toolbox
   \\    /   O peration     | Website:  https://openfoam.org
    \\  /    A nd           | Version:  13
     \\/     M anipulation  |
\*---------------------------------------------------------------------------*/
FoamFile
{
    format      ascii;
    class       volVectorField;
    location    "3";
    object      U;
}
// * * * * * * * * * * * * * * * * * * * * * * * * * * * * * * * * * * * * * //

dimensions      [0 1 -1 0 0 0 0];

internalField   nonuniform List<vector> 
400
(
(0.000963745 -0.0012036 0)
(0.0014238 -0.000914188 0)
(0.000552882 -0.000847239 0)
(-0.00188117 -0.000667298 0)
(-0.00798647 0.000770435 0)
(-0.0203247 0.00542477 0)
(-0.0441006 0.0117645 0)
(-0.0689914 0.0110676 0)
(-0.0858483 0.00787017 0)
(-0.0992803 0.00607608 0)
(-0.108186 0.00362191 0)
(-0.112354 0.00144865 0)
(-0.113485 -0.000985044 0)
(-0.109598 -0.00412747 0)
(-0.101632 -0.00646289 0)
(-0.0885327 -0.00915298 0)
(-0.0707627 -0.0111063 0)
(-0.0490329 -0.0123476 0)
(-0.0248594 -0.0102249 0)
(-0.00478958 -0.00284346 0)
(-0.000483776 -0.00127516 0)
(-0.00400538 0.00157168 0)
(-0.0102836 0.00408237 0)
(-0.0205079 0.00955213 0)
(-0.0372181 0.0205022 0)
(-0.0569335 0.0301671 0)
(-0.0745995 0.0312585 0)
(-0.0899342 0.0268508 0)
(-0.101152 0.0215345 0)
(-0.109884 0.0161759 0)
(-0.116174 0.00974692 0)
(-0.119054 0.00409137 0)
(-0.118913 -0.00192741 0)
(-0.115147 -0.00823456 0)
(-0.10801 -0.0150656 0)
(-0.0968602 -0.0229508 0)
(-0.0814686 -0.0308761 0)
(-0.0618711 -0.037179 0)
(-0.0380415 -0.0372495 0)
(-0.0125647 -0.0224805 0)
(-0.00273773 0.00338312 0)
(-0.0105715 0.010007 0)
(-0.0212441 0.0162628 0)
(-0.0359813 0.0263115 0)
(-0.0528534 0.0383682 0)
(-0.068299 0.045014 0)
(-0.0803777 0.0432616 0)
(-0.0901541 0.0369452 0)
(-0.0977636 0.0293714 0)
(-0.103779 0.0210804 0)
(-0.107035 0.0128935 0)
(-0.107983 0.00436911 0)
(-0.106799 -0.00442612 0)
(-0.103405 -0.0135227 0)
(-0.097393 -0.0232773 0)
(-0.0884956 -0.0341076 0)
(-0.0762414 -0.0459235 0)
(-0.060333 -0.0578233 0)
(-0.0397841 -0.0646532 0)
(-0.0162156 -0.0532014 0)
(-0.00455368 0.0118883 0)
(-0.0145305 0.0209514 0)
(-0.0263254 0.0293325 0)
(-0.0407041 0.040838 0)
(-0.0547299 0.0517951 0)
(-0.0659534 0.0557174 0)
(-0.074135 0.0519618 0)
(-0.0807118 0.0443675 0)
(-0.0857873 0.035243 0)
(-0.0892704 0.0251762 0)
(-0.0908853 0.0147045 0)
(-0.0909877 0.00415529 0)
(-0.0894652 -0.00652125 0)
(-0.0863147 -0.0176043 0)
(-0.0814424 -0.0295622 0)
(-0.0746589 -0.0428955 0)
(-0.0653467 -0.0577614 0)
(-0.0528458 -0.0734939 0)
(-0.0357193 -0.0860656 0)
(-0.0154772 -0.0812411 0)
(-0.00516525 0.0215496 0)
(-0.015333 0.032374 0)
(-0.0261566 0.0416447 0)
(-0.0383233 0.0530036 0)
(-0.0490155 0.0620726 0)
(-0.0567379 0.0635541 0)
(-0.0624517 0.0582399 0)
(-0.0669622 0.0493694 0)
(-0.0703052 0.0388156 0)
(-0.0723334 0.0272348 0)
(-0.0730331 0.0152905 0)
(-0.0725278 0.00331689 0)
(-0.0708463 -0.00870645 0)
(-0.0680787 -0.0210557 0)
(-0.0642853 -0.0343167 0)
(-0.059383 -0.0492438 0)
(-0.0528245 -0.0664432 0)
(-0.0436067 -0.0856725 0)
(-0.0299869 -0.103524 0)
(-0.0140576 -0.10515 0)
(-0.00471918 0.030958 0)
(-0.0137317 0.0428642 0)
(-0.0225223 0.0520793 0)
(-0.0320306 0.0625134 0)
(-0.0392456 0.0692522 0)
(-0.0445103 0.0691712 0)
(-0.048431 0.0627159 0)
(-0.0514728 0.0527632 0)
(-0.0536634 0.0410363 0)
(-0.0548488 0.0283146 0)
(-0.0550617 0.0152586 0)
(-0.0543572 0.0022321 0)
(-0.0528249 -0.0107149 0)
(-0.0506215 -0.0238464 0)
(-0.0478937 -0.0378212 0)
(-0.0446363 -0.053624 0)
(-0.0404534 -0.0723252 0)
(-0.0342242 -0.094347 0)
(-0.0240421 -0.117028 0)
(-0.0121528 -0.124412 0)
(-0.00369851 0.0390515 0)
(-0.0107541 0.0514105 0)
(-0.0170951 0.0599244 0)
(-0.023775 0.0690918 0)
(-0.0279649 0.0739578 0)
(-0.0311665 0.0729319 0)
(-0.0335882 0.0657485 0)
(-0.0354905 0.0550358 0)
(-0.0369001 0.0424729 0)
(-0.0376359 0.0289266 0)
(-0.0377057 0.0150558 0)
(-0.0371406 0.00127606 0)
(-0.0360503 -0.012275 0)
(-0.0346249 -0.0258173 0)
(-0.0330619 -0.0400694 0)
(-0.0314058 -0.0562469 0)
(-0.029363 -0.07581 0)
(-0.025842 -0.0998394 0)
(-0.0196278 -0.127026 0)
(-0.00913898 -0.140774 0)
(-0.00226171 0.0448315 0)
(-0.00714984 0.0575552 0)
(-0.0110693 0.0651909 0)
(-0.01484 0.0729641 0)
(-0.0165965 0.0764385 0)
(-0.0178316 0.07489 0)
(-0.0188439 0.0675073 0)
(-0.0197454 0.0564692 0)
(-0.0205514 0.0434453 0)
(-0.0210465 0.0293883 0)
(-0.0212006 0.0149919 0)
(-0.021027 0.000744113 0)
(-0.0206198 -0.013122 0)
(-0.020166 -0.0267644 0)
(-0.0198731 -0.0409532 0)
(-0.0197992 -0.0571332 0)
(-0.0196689 -0.0771598 0)
(-0.0183928 -0.102832 0)
(-0.0154924 -0.133443 0)
(-0.00759067 -0.153681 0)
(-0.00099613 0.048464 0)
(-0.00346843 0.0612807 0)
(-0.00520826 0.0679251 0)
(-0.00625099 0.074171 0)
(-0.0060209 0.0769657 0)
(-0.00533215 0.0751805 0)
(-0.00486447 0.0680085 0)
(-0.00476573 0.0571058 0)
(-0.00498458 0.0440437 0)
(-0.00530496 0.0298485 0)
(-0.00565842 0.0152643 0)
(-0.0060401 0.000852211 0)
(-0.00650575 -0.0130451 0)
(-0.00719519 -0.0265226 0)
(-0.00827501 -0.0403947 0)
(-0.00979761 -0.0563131 0)
(-0.0115181 -0.0765475 0)
(-0.0122737 -0.103591 0)
(-0.0122668 -0.137273 0)
(-0.00576194 -0.164373 0)
(0.000619582 0.0492798 0)
(-0.000149337 0.0626282 0)
(-5.40375e-05 0.0683719 0)
(0.00102892 0.0732397 0)
(0.00322519 0.0755391 0)
(0.00568252 0.0737281 0)
(0.00764645 0.0672859 0)
(0.00889723 0.0569233 0)
(0.00937193 0.0442736 0)
(0.00927995 0.0303629 0)
(0.00871471 0.0159825 0)
(0.00770726 0.00175246 0)
(0.00624815 -0.0118853 0)
(0.00430003 -0.0249687 0)
(0.00180908 -0.0383397 0)
(-0.00125038 -0.0538118 0)
(-0.00478053 -0.0740802 0)
(-0.0072282 -0.102332 0)
(-0.00993328 -0.138627 0)
(-0.00461647 -0.172894 0)
(0.0013053 0.0483481 0)
(0.00244573 0.0620766 0)
(0.00408398 0.0670225 0)
(0.00670581 0.0706374 0)
(0.0104049 0.0722825 0)
(0.014443 0.070631 0)
(0.0179494 0.0649905 0)
(0.0204745 0.0557065 0)
(0.0218194 0.0439876 0)
(0.022106 0.0308538 0)
(0.0214298 0.0171399 0)
(0.0198531 0.00350239 0)
(0.0174133 -0.00957589 0)
(0.0142234 -0.0220832 0)
(0.0103999 -0.0348509 0)
(0.00595409 -0.0497885 0)
(0.000735492 -0.0699607 0)
(-0.00295082 -0.0992905 0)
(-0.00815535 -0.138121 0)
(-0.00328021 -0.180039 0)
(0.00186744 0.0459798 0)
(0.00436355 0.0599906 0)
(0.00711933 0.0643171 0)
(0.0107528 0.0667757 0)
(0.0154168 0.0676318 0)
(0.0205551 0.065998 0)
(0.0253285 0.0611899 0)
(0.0290697 0.0532224 0)
(0.0314005 0.0428843 0)
(0.0322642 0.031045 0)
(0.0317033 0.0185146 0)
(0.0297974 0.0059356 0)
(0.0266202 -0.00624754 0)
(0.0224343 -0.0180049 0)
(0.0175165 -0.0300951 0)
(0.0119202 -0.0444424 0)
(0.00523987 -0.0644101 0)
(0.00080228 -0.0946761 0)
(-0.00722163 -0.136 0)
(-0.00201066 -0.185911 0)
(0.00221924 0.0423601 0)
(0.00557778 0.0567865 0)
(0.00908989 0.0606742 0)
(0.0133506 0.0621748 0)
(0.018531 0.0622329 0)
(0.0242413 0.0604271 0)
(0.029769 0.0562546 0)
(0.0343874 0.0495802 0)
(0.0375856 0.0408335 0)
(0.0391222 0.0306608 0)
(0.0389312 0.0197497 0)
(0.037071 0.00865103 0)
(0.0336177 -0.00230805 0)
(0.0289045 -0.0130919 0)
(0.0232937 -0.0243903 0)
(0.0168962 -0.038044 0)
(0.00904199 -0.0576178 0)
(0.00441549 -0.0886522 0)
(-0.00670934 -0.132687 0)
(-1.34249e-05 -0.190968 0)
(0.00211 0.0383971 0)
(0.00595492 0.0529344 0)
(0.0100112 0.056421 0)
(0.0147159 0.0571519 0)
(0.0201734 0.0565173 0)
(0.0260878 0.0544872 0)
(0.0319104 0.050768 0)
(0.0370036 0.0452174 0)
(0.0408048 0.0380358 0)
(0.0429622 0.0296532 0)
(0.0432979 0.0205731 0)
(0.0418087 0.0112161 0)
(0.0385946 0.00177795 0)
(0.0339118 -0.00781524 0)
(0.0280636 -0.0181614 0)
(0.0212846 -0.0309687 0)
(0.0125759 -0.049909 0)
(0.00813371 -0.0815438 0)
(-0.00650076 -0.128502 0)
(0.00293123 -0.195324 0)
(0.00157586 0.0347499 0)
(0.00551574 0.0487354 0)
(0.0099707 0.0517106 0)
(0.015052 0.0518412 0)
(0.020711 0.0507015 0)
(0.0267078 0.0485042 0)
(0.03261 0.0451356 0)
(0.0378997 0.0405216 0)
(0.0420672 0.0347563 0)
(0.0447394 0.0280879 0)
(0.0456842 0.0208431 0)
(0.0448292 0.0132959 0)
(0.0422092 0.00553257 0)
(0.0379889 -0.00266533 0)
(0.0323507 -0.0118151 0)
(0.0255794 -0.0235397 0)
(0.0162616 -0.0416801 0)
(0.0125005 -0.0739241 0)
(-0.00600979 -0.123857 0)
(0.00742482 -0.199252 0)
(0.000678496 0.031765 0)
(0.00414644 0.0444591 0)
(0.00892917 0.0466325 0)
(0.0143754 0.0462248 0)
(0.0203383 0.0447234 0)
(0.0265177 0.0424531 0)
(0.032544 0.0394328 0)
(0.0380059 0.0356429 0)
(0.0424877 0.0311344 0)
(0.045661 0.0260233 0)
(0.0472959 0.0204873 0)
(0.0472689 0.0146647 0)
(0.045535 0.00856872 0)
(0.0421432 0.00192019 0)
(0.0370402 -0.00580589 0)
(0.0307381 -0.0163166 0)
(0.0212194 -0.0333588 0)
(0.0186035 -0.0658237 0)
(-0.0048266 -0.119673 0)
(0.013626 -0.20204 0)
(-0.00160101 0.0306773 0)
(0.00149128 0.0403056 0)
(0.00652743 0.0413647 0)
(0.0125666 0.0403495 0)
(0.0191342 0.0385939 0)
(0.0258306 0.036375 0)
(0.0323092 0.0337424 0)
(0.0382458 0.0306911 0)
(0.0433407 0.0272073 0)
(0.0473612 0.0233546 0)
(0.0499765 0.0193344 0)
(0.051042 0.0151421 0)
(0.0504651 0.0107068 0)
(0.0483284 0.00566366 0)
(0.0442438 -0.000487364 0)
(0.0391523 -0.00948165 0)
(0.0296986 -0.0248079 0)
(0.0284087 -0.0568386 0)
(-0.00196217 -0.112986 0)
(0.0225529 -0.199956 0)
(-0.00503543 0.0330276 0)
(-0.00449617 0.0371121 0)
(0.00320179 0.0358406 0)
(0.0109672 0.0339258 0)
(0.0191593 0.031866 0)
(0.0272761 0.0296968 0)
(0.0350377 0.0274255 0)
(0.0422218 0.0250339 0)
(0.048546 0.0225594 0)
(0.0537908 0.0199823 0)
(0.0578078 0.017371 0)
(0.0606025 0.014638 0)
(0.0619469 0.0118667 0)
(0.061967 0.00861707 0)
(0.0598773 0.0046088 0)
(0.0570949 -0.00231017 0)
(0.048406 -0.0151856 0)
(0.0472262 -0.0451343 0)
(0.0083336 -0.10048 0)
(0.0380023 -0.181872 0)
(-0.00738581 0.0380727 0)
(-0.0033765 0.0235967 0)
(0.00817046 0.020387 0)
(0.0191487 0.0190575 0)
(0.0301149 0.0177241 0)
(0.040706 0.0162562 0)
(0.0507178 0.0148307 0)
(0.0601164 0.0134598 0)
(0.0686002 0.0121545 0)
(0.0762367 0.0108112 0)
(0.0826953 0.00948239 0)
(0.0883048 0.00804459 0)
(0.0924971 0.00656017 0)
(0.0958244 0.00471345 0)
(0.0969866 0.00232384 0)
(0.0966632 -0.00270299 0)
(0.0900256 -0.0112161 0)
(0.0879618 -0.034588 0)
(0.0454248 -0.077106 0)
(0.0708252 -0.138972 0)
(0.0457937 0.0454257 0)
(0.0517117 0.0324748 0)
(0.0746341 0.0256721 0)
(0.0963001 0.022043 0)
(0.113174 0.0195885 0)
(0.128213 0.0176126 0)
(0.141486 0.0158657 0)
(0.154259 0.0143358 0)
(0.165258 0.0132018 0)
(0.175928 0.0118751 0)
(0.184724 0.0112494 0)
(0.193199 0.00978423 0)
(0.199898 0.00963418 0)
(0.205734 0.00766436 0)
(0.21015 0.00778397 0)
(0.212094 0.00408486 0)
(0.208891 0.00207297 0)
(0.19914 -0.00627136 0)
(0.154337 -0.0157418 0)
(0.143128 -0.0823583 0)
)
;

boundaryField
{
    movingWall
    {
        type            fixedValue;
        value           uniform (1 0 0);
    }
    fixedWalls
    {
        type            noSlip;
    }
    frontAndBack
    {
        type            empty;
    }
}


// ************************************************************************* //
