/*--------------------------------*- C++ -*----------------------------------*\
  =========                 |
  \\      /  F ield         | OpenFOAM: The Open Source CFD Toolbox
   \\    /   O peration     | Website:  https://openfoam.org
    \\  /    A nd           | Version:  13
     \\/     M anipulation  |
\*---------------------------------------------------------------------------*/
FoamFile
{
    format      ascii;
    class       volVectorField;
    location    "3";
    object      U;
}
// * * * * * * * * * * * * * * * * * * * * * * * * * * * * * * * * * * * * * //

dimensions      [0 1 -1 0 0 0 0];

internalField   nonuniform List<vector> 
1600
(
(0.000807371 -0.000752362 0)
(0.00392457 -0.00117818 0)
(0.00719017 -0.00123801 0)
(0.00955217 -0.000774669 0)
(0.010769 -0.000338308 0)
(0.0110325 -0.000139303 0)
(0.0107722 -0.000161643 0)
(0.0101867 -0.000292061 0)
(0.00932949 -0.000438932 0)
(0.00805024 -0.000537864 0)
(0.00619255 -0.000903906 0)
(0.00292183 -0.00101757 0)
(-0.00403137 -0.000268071 0)
(-0.012616 0.00255025 0)
(-0.0247128 0.00706651 0)
(-0.043538 0.00979863 0)
(-0.060692 0.00962442 0)
(-0.0762753 0.00886205 0)
(-0.0896376 0.00772342 0)
(-0.100798 0.00653668 0)
(-0.109816 0.0053121 0)
(-0.116668 0.00410646 0)
(-0.121439 0.00288983 0)
(-0.123738 0.00175311 0)
(-0.124345 0.000400717 0)
(-0.122091 -0.0013059 0)
(-0.117444 -0.00282958 0)
(-0.109757 -0.00459877 0)
(-0.099099 -0.00625776 0)
(-0.0854455 -0.00812888 0)
(-0.0690715 -0.00993482 0)
(-0.0500786 -0.0111935 0)
(-0.0296608 -0.0115768 0)
(-0.008519 -0.0106325 0)
(0.00918324 -0.00879257 0)
(0.0218687 -0.0032165 0)
(0.0237648 0.00273014 0)
(0.0191563 0.0041802 0)
(0.00923478 0.00337255 0)
(0.0018851 0.00228837 0)
(0.00137328 -0.0039564 0)
(0.00625645 -0.00588174 0)
(0.009754 -0.0048289 0)
(0.0118683 -0.00287697 0)
(0.0124876 -0.00107183 0)
(0.0116096 0.000251337 0)
(0.00943003 0.00110284 0)
(0.00601899 0.0017005 0)
(0.000781211 0.00248225 0)
(-0.00735037 0.00410348 0)
(-0.0190522 0.00708648 0)
(-0.0368293 0.0123683 0)
(-0.0583906 0.0182452 0)
(-0.0795565 0.023443 0)
(-0.0975513 0.0257816 0)
(-0.112747 0.0250182 0)
(-0.125779 0.0228646 0)
(-0.136649 0.019973 0)
(-0.145578 0.0168002 0)
(-0.152615 0.013607 0)
(-0.157873 0.0104256 0)
(-0.161356 0.00730045 0)
(-0.163109 0.00416022 0)
(-0.1631 0.000935376 0)
(-0.16135 -0.00255921 0)
(-0.157588 -0.00632204 0)
(-0.151759 -0.0103174 0)
(-0.143605 -0.014627 0)
(-0.132891 -0.0191703 0)
(-0.119195 -0.0237692 0)
(-0.102795 -0.0282119 0)
(-0.0838096 -0.0317331 0)
(-0.0625313 -0.0331391 0)
(-0.0404017 -0.0314595 0)
(-0.018465 -0.0253535 0)
(0.000559214 -0.0129486 0)
(0.0134612 0.00173791 0)
(0.0141689 0.00916139 0)
(0.00857729 0.0114264 0)
(0.00143104 0.00835663 0)
(0.0018346 -0.00822609 0)
(0.00604085 -0.00989414 0)
(0.00773581 -0.00715266 0)
(0.00797885 -0.00339489 0)
(0.00648169 -2.46325e-05 0)
(0.00318961 0.0028116 0)
(-0.00241923 0.00551576 0)
(-0.0112239 0.0089072 0)
(-0.0244151 0.0140741 0)
(-0.0424003 0.0213631 0)
(-0.0633195 0.0291744 0)
(-0.0837424 0.034973 0)
(-0.102345 0.0382345 0)
(-0.117855 0.0392352 0)
(-0.130412 0.0381408 0)
(-0.140611 0.0353991 0)
(-0.14894 0.0316535 0)
(-0.155661 0.0273217 0)
(-0.161016 0.0228 0)
(-0.165116 0.0182551 0)
(-0.16805 0.0137285 0)
(-0.169923 0.00912516 0)
(-0.17059 0.00459185 0)
(-0.170046 -8.67743e-05 0)
(-0.168177 -0.00500449 0)
(-0.16503 -0.0102525 0)
(-0.160475 -0.016036 0)
(-0.154299 -0.0224562 0)
(-0.146362 -0.0295614 0)
(-0.136306 -0.0369699 0)
(-0.123669 -0.0441807 0)
(-0.108461 -0.0503677 0)
(-0.0903151 -0.0538359 0)
(-0.070394 -0.0534557 0)
(-0.0487499 -0.0464022 0)
(-0.02622 -0.0304255 0)
(-0.00498794 -0.0067585 0)
(0.00299306 0.00914039 0)
(0.00253564 0.0150517 0)
(0.000210816 0.0117583 0)
(0.00181863 -0.0120545 0)
(0.00368176 -0.0117862 0)
(0.00309575 -0.00695042 0)
(0.000691284 -0.00137744 0)
(-0.00377357 0.00398225 0)
(-0.0109475 0.00953423 0)
(-0.0216058 0.0159646 0)
(-0.0363197 0.0238489 0)
(-0.0545328 0.0327813 0)
(-0.074552 0.0415211 0)
(-0.0941271 0.0481721 0)
(-0.110668 0.0515522 0)
(-0.123914 0.0521923 0)
(-0.134318 0.0506018 0)
(-0.142462 0.0473244 0)
(-0.148982 0.0429722 0)
(-0.154139 0.0379768 0)
(-0.158188 0.0326178 0)
(-0.16168 0.0268765 0)
(-0.164347 0.0212049 0)
(-0.166278 0.0155665 0)
(-0.167299 0.0100699 0)
(-0.167513 0.00444109 0)
(-0.166894 -0.00132486 0)
(-0.165447 -0.00735011 0)
(-0.163084 -0.013762 0)
(-0.159741 -0.0207221 0)
(-0.155296 -0.0283391 0)
(-0.149604 -0.0366743 0)
(-0.142576 -0.0459641 0)
(-0.134014 -0.0557904 0)
(-0.123703 -0.0654406 0)
(-0.110985 -0.0729747 0)
(-0.0944337 -0.0752485 0)
(-0.074857 -0.070174 0)
(-0.051422 -0.053893 0)
(-0.0236686 -0.0240177 0)
(-0.00534398 0.00299144 0)
(-0.00119224 0.0138629 0)
(7.46913e-06 0.0119494 0)
(0.00119956 -0.0136799 0)
(0.000131247 -0.0109351 0)
(-0.00330733 -0.00380173 0)
(-0.00865131 0.0038133 0)
(-0.0165167 0.0119061 0)
(-0.0275726 0.0209056 0)
(-0.0421341 0.0310717 0)
(-0.0595437 0.0418469 0)
(-0.0783889 0.0519456 0)
(-0.09641 0.0595576 0)
(-0.111264 0.0634003 0)
(-0.122776 0.063861 0)
(-0.131753 0.0619818 0)
(-0.13863 0.0583365 0)
(-0.143933 0.0534667 0)
(-0.148096 0.0478415 0)
(-0.151527 0.04165 0)
(-0.154258 0.0353011 0)
(-0.15615 0.0290588 0)
(-0.157224 0.0228077 0)
(-0.157794 0.0165862 0)
(-0.157807 0.0103931 0)
(-0.157396 0.00414046 0)
(-0.156556 -0.00225614 0)
(-0.155279 -0.00894062 0)
(-0.153479 -0.0160907 0)
(-0.151182 -0.0238856 0)
(-0.148312 -0.0324753 0)
(-0.144782 -0.0419357 0)
(-0.140432 -0.0522147 0)
(-0.135017 -0.0630654 0)
(-0.128185 -0.0740346 0)
(-0.119785 -0.0846072 0)
(-0.10889 -0.0920109 0)
(-0.0934399 -0.0918005 0)
(-0.0726252 -0.0801813 0)
(-0.0450258 -0.0524128 0)
(-0.0134884 -0.0113674 0)
(-0.00168706 0.00953 0)
(0.000619872 0.0115257 0)
(-0.000353715 -0.0131948 0)
(-0.00435068 -0.00699746 0)
(-0.0104368 0.00223007 0)
(-0.0186052 0.0121954 0)
(-0.0294891 0.0232299 0)
(-0.0433252 0.0353997 0)
(-0.059584 0.0479922 0)
(-0.0770625 0.059727 0)
(-0.0938144 0.0688143 0)
(-0.107475 0.0735966 0)
(-0.117774 0.0743333 0)
(-0.125659 0.0723669 0)
(-0.131664 0.0685196 0)
(-0.136129 0.0633166 0)
(-0.139458 0.0572481 0)
(-0.141898 0.0506711 0)
(-0.143463 0.043867 0)
(-0.144426 0.0369394 0)
(-0.144803 0.0300517 0)
(-0.144911 0.0232509 0)
(-0.14462 0.0165919 0)
(-0.144024 0.0100184 0)
(-0.143151 0.0034433 0)
(-0.142034 -0.00324637 0)
(-0.140691 -0.010198 0)
(-0.139149 -0.0176051 0)
(-0.137456 -0.0256618 0)
(-0.135615 -0.034569 0)
(-0.133605 -0.0444924 0)
(-0.131331 -0.0555115 0)
(-0.128605 -0.0674963 0)
(-0.125112 -0.0799842 0)
(-0.120346 -0.0920065 0)
(-0.11339 -0.102172 0)
(-0.103146 -0.108031 0)
(-0.0870606 -0.103496 0)
(-0.0636808 -0.083266 0)
(-0.0297526 -0.0411886 0)
(-0.0037347 -0.000742829 0)
(0.00129696 0.0110019 0)
(-0.00211359 -0.00942152 0)
(-0.00883109 -0.000224946 0)
(-0.0171693 0.0109136 0)
(-0.0277149 0.0231383 0)
(-0.040746 0.0368038 0)
(-0.0558047 0.0510819 0)
(-0.0719647 0.0645654 0)
(-0.0876543 0.0754934 0)
(-0.100696 0.081915 0)
(-0.110292 0.0835637 0)
(-0.117385 0.0819186 0)
(-0.122691 0.0781009 0)
(-0.126481 0.072744 0)
(-0.129081 0.066359 0)
(-0.130773 0.0593671 0)
(-0.131738 0.0520351 0)
(-0.132117 0.0445852 0)
(-0.132087 0.0371648 0)
(-0.1317 0.0298979 0)
(-0.131057 0.0228015 0)
(-0.130148 0.0158759 0)
(-0.129041 0.00907546 0)
(-0.127763 0.00231455 0)
(-0.126364 -0.0045156 0)
(-0.124891 -0.0115523 0)
(-0.12341 -0.0189798 0)
(-0.12199 -0.0269986 0)
(-0.120688 -0.0358282 0)
(-0.119532 -0.0456804 0)
(-0.118501 -0.0567171 0)
(-0.11748 -0.0689759 0)
(-0.116214 -0.0822805 0)
(-0.114227 -0.0960057 0)
(-0.110717 -0.108748 0)
(-0.104337 -0.118215 0)
(-0.0933811 -0.12082 0)
(-0.0756381 -0.109941 0)
(-0.0484249 -0.0773798 0)
(-0.0106814 -0.0180764 0)
(0.00216936 0.00970096 0)
(-0.003682 -0.00314148 0)
(-0.0125968 0.00893394 0)
(-0.0226616 0.0216413 0)
(-0.0349271 0.035856 0)
(-0.0489608 0.0513082 0)
(-0.0639658 0.0664051 0)
(-0.0787867 0.0794065 0)
(-0.091599 0.0880826 0)
(-0.101075 0.0914005 0)
(-0.10777 0.0905353 0)
(-0.112672 0.0870584 0)
(-0.116094 0.0817542 0)
(-0.118297 0.0751894 0)
(-0.11959 0.0678664 0)
(-0.120187 0.0601378 0)
(-0.120249 0.0522399 0)
(-0.11991 0.0443623 0)
(-0.119275 0.0366244 0)
(-0.118388 0.0290982 0)
(-0.117293 0.0217857 0)
(-0.116009 0.0146749 0)
(-0.114573 0.00772223 0)
(-0.113023 0.000854129 0)
(-0.111406 -0.00602018 0)
(-0.109784 -0.0130393 0)
(-0.108244 -0.0203693 0)
(-0.106882 -0.0282104 0)
(-0.105791 -0.0367928 0)
(-0.105046 -0.046361 0)
(-0.104675 -0.0571417 0)
(-0.104624 -0.069278 0)
(-0.104716 -0.0827305 0)
(-0.104539 -0.0971556 0)
(-0.103321 -0.111634 0)
(-0.099874 -0.124321 0)
(-0.0926269 -0.131987 0)
(-0.0800728 -0.129377 0)
(-0.0593031 -0.10818 0)
(-0.0242309 -0.0506572 0)
(0.00129059 0.00322479 0)
(-0.00474692 0.00540795 0)
(-0.0152697 0.0198669 0)
(-0.0265597 0.0337647 0)
(-0.0396443 0.0493151 0)
(-0.0536696 0.065522 0)
(-0.0677554 0.0804753 0)
(-0.0805424 0.091794 0)
(-0.0903951 0.0976178 0)
(-0.0972008 0.0982083 0)
(-0.10198 0.0954176 0)
(-0.105325 0.0904511 0)
(-0.107428 0.0839259 0)
(-0.108591 0.0764204 0)
(-0.109067 0.0683879 0)
(-0.109026 0.0601221 0)
(-0.108605 0.0518289 0)
(-0.107905 0.0436553 0)
(-0.106985 0.0356835 0)
(-0.105871 0.0279538 0)
(-0.104582 0.0204654 0)
(-0.103132 0.0132034 0)
(-0.101541 0.00612871 0)
(-0.0998347 -0.000818423 0)
(-0.0980632 -0.00771348 0)
(-0.0962975 -0.0146751 0)
(-0.0946222 -0.0218495 0)
(-0.0931502 -0.0294256 0)
(-0.0920049 -0.0376373 0)
(-0.0913042 -0.0467568 0)
(-0.0911308 -0.0570726 0)
(-0.091493 -0.06884 0)
(-0.0922752 -0.0821901 0)
(-0.0931805 -0.0969983 0)
(-0.0935507 -0.112679 0)
(-0.0922439 -0.127769 0)
(-0.087715 -0.139482 0)
(-0.0788003 -0.142747 0)
(-0.0632651 -0.131555 0)
(-0.0377924 -0.0893984 0)
(-0.00318886 -0.0101085 0)
(-0.00545795 0.0154271 0)
(-0.016857 0.0318905 0)
(-0.0286324 0.0465252 0)
(-0.0417813 0.0626573 0)
(-0.0551792 0.0788716 0)
(-0.0678192 0.0927911 0)
(-0.0783507 0.101768 0)
(-0.0857502 0.104745 0)
(-0.0907596 0.103187 0)
(-0.0942463 0.0988511 0)
(-0.0965125 0.0926419 0)
(-0.097778 0.0851458 0)
(-0.098336 0.0769289 0)
(-0.0983831 0.068373 0)
(-0.0980588 0.0597241 0)
(-0.0974695 0.0511518 0)
(-0.0966774 0.0427619 0)
(-0.0957104 0.0346068 0)
(-0.0945772 0.0267068 0)
(-0.093279 0.0190568 0)
(-0.0918171 0.0116432 0)
(-0.0901984 0.00443703 0)
(-0.0884413 -0.00260571 0)
(-0.0865866 -0.00955042 0)
(-0.0846982 -0.0164803 0)
(-0.0828636 -0.0235182 0)
(-0.0812001 -0.0308316 0)
(-0.0798465 -0.0386438 0)
(-0.07895 -0.0472391 0)
(-0.078639 -0.056952 0)
(-0.0789809 -0.0681298 0)
(-0.0799304 -0.0810568 0)
(-0.0812755 -0.0958284 0)
(-0.0825392 -0.112213 0)
(-0.0826958 -0.129226 0)
(-0.0801196 -0.1445 0)
(-0.0740357 -0.152371 0)
(-0.0622195 -0.148636 0)
(-0.0435489 -0.118598 0)
(-0.010769 -0.027066 0)
(-0.00571012 0.0259678 0)
(-0.0173676 0.0443236 0)
(-0.0290356 0.0592803 0)
(-0.0416543 0.0753624 0)
(-0.0539527 0.0909646 0)
(-0.0650375 0.103252 0)
(-0.0733144 0.109557 0)
(-0.0790309 0.110184 0)
(-0.0828509 0.106921 0)
(-0.0854596 0.101305 0)
(-0.0870377 0.0940768 0)
(-0.0878393 0.0858319 0)
(-0.0881156 0.0770823 0)
(-0.0880197 0.0681463 0)
(-0.0876621 0.0592277 0)
(-0.0871136 0.0504547 0)
(-0.0864064 0.0418964 0)
(-0.0855477 0.0335818 0)
(-0.0845296 0.025519 0)
(-0.0833396 0.017701 0)
(-0.0819664 0.0101159 0)
(-0.0804062 0.00274689 0)
(-0.0786705 -0.00443445 0)
(-0.0767917 -0.0114699 0)
(-0.074826 -0.0184192 0)
(-0.0728567 -0.0253756 0)
(-0.0709968 -0.0324782 0)
(-0.0693877 -0.039929 0)
(-0.0681916 -0.0480088 0)
(-0.0675701 -0.0570817 0)
(-0.0676436 -0.0675747 0)
(-0.0684325 -0.0799104 0)
(-0.0697979 -0.0943876 0)
(-0.071393 -0.111023 0)
(-0.0724145 -0.129323 0)
(-0.0713334 -0.147561 0)
(-0.0667015 -0.160009 0)
(-0.0578176 -0.162225 0)
(-0.0414101 -0.142363 0)
(-0.0153819 -0.06496 0)
(-0.00556205 0.0365299 0)
(-0.0169245 0.056556 0)
(-0.0279982 0.0714287 0)
(-0.039726 0.087034 0)
(-0.0507281 0.101595 0)
(-0.0602234 0.111974 0)
(-0.0665661 0.115711 0)
(-0.0711816 0.114465 0)
(-0.0741831 0.109813 0)
(-0.0762183 0.103133 0)
(-0.0774066 0.0950933 0)
(-0.0780094 0.0862795 0)
(-0.0782259 0.0771375 0)
(-0.0781742 0.0679304 0)
(-0.0779352 0.0588184 0)
(-0.0775508 0.0498908 0)
(-0.0770314 0.0411875 0)
(-0.0763671 0.03272 0)
(-0.0755361 0.024487 0)
(-0.0745142 0.0164817 0)
(-0.0732822 0.00869659 0)
(-0.0718297 0.00112733 0)
(-0.070162 -0.00623623 0)
(-0.0683065 -0.0134133 0)
(-0.0663134 -0.0204393 0)
(-0.0642588 -0.0273791 0)
(-0.0622471 -0.034342 0)
(-0.0604118 -0.0415017 0)
(-0.0589142 -0.0491207 0)
(-0.0579316 -0.0575711 0)
(-0.0576251 -0.067337 0)
(-0.0580792 -0.078967 0)
(-0.0592276 -0.0929545 0)
(-0.0608014 -0.109553 0)
(-0.0622289 -0.128611 0)
(-0.06221 -0.149006 0)
(-0.0586093 -0.166315 0)
(-0.0521509 -0.172568 0)
(-0.0378802 -0.161632 0)
(-0.0136063 -0.0946346 0)
(-0.00508559 0.0465783 0)
(-0.0157254 0.0681312 0)
(-0.0259177 0.0826975 0)
(-0.0364876 0.0975572 0)
(-0.0462169 0.110856 0)
(-0.0538281 0.118897 0)
(-0.0589929 0.120733 0)
(-0.0627619 0.11793 0)
(-0.065213 0.112144 0)
(-0.066894 0.104595 0)
(-0.0678997 0.0959247 0)
(-0.0684732 0.0866856 0)
(-0.0687641 0.0772578 0)
(-0.0688615 0.0678552 0)
(-0.0688199 0.0585974 0)
(-0.0686585 0.0495402 0)
(-0.0683704 0.0406997 0)
(-0.0679329 0.0320734 0)
(-0.0673147 0.0236535 0)
(-0.0664831 0.0154353 0)
(-0.0654145 0.00741989 0)
(-0.0640945 -0.000385028 0)
(-0.0625245 -0.00797052 0)
(-0.060729 -0.0153338 0)
(-0.058754 -0.0224866 0)
(-0.05667 -0.0294681 0)
(-0.0545725 -0.0363603 0)
(-0.052583 -0.0433083 0)
(-0.0508509 -0.0505483 0)
(-0.0495511 -0.0584411 0)
(-0.0488656 -0.0674988 0)
(-0.0489331 -0.0783702 0)
(-0.0497642 -0.0917374 0)
(-0.0511618 -0.108101 0)
(-0.0526764 -0.127557 0)
(-0.0532369 -0.149378 0)
(-0.0508265 -0.171157 0)
(-0.0451972 -0.181923 0)
(-0.033434 -0.177973 0)
(-0.0120885 -0.121555 0)
(-0.00439823 0.0557111 0)
(-0.013987 0.0787233 0)
(-0.0230817 0.0928505 0)
(-0.0323499 0.106738 0)
(-0.040708 0.118592 0)
(-0.0466899 0.124557 0)
(-0.0510698 0.124874 0)
(-0.0541314 0.120809 0)
(-0.0562171 0.114107 0)
(-0.0576883 0.105868 0)
(-0.0586401 0.0967184 0)
(-0.0592772 0.0871648 0)
(-0.0597087 0.0775285 0)
(-0.0599986 0.0679808 0)
(-0.0601788 0.0586051 0)
(-0.0602512 0.0494289 0)
(-0.0601969 0.040449 0)
(-0.0599847 0.0316522 0)
(-0.0595781 0.0230272 0)
(-0.0589395 0.0145727 0)
(-0.0580411 0.00629973 0)
(-0.0568669 -0.00177048 0)
(-0.0554159 -0.0096102 0)
(-0.0537097 -0.0171945 0)
(-0.0517928 -0.0245124 0)
(-0.0497323 -0.03158 0)
(-0.0476174 -0.0384558 0)
(-0.0455584 -0.0452604 0)
(-0.0436891 -0.0522031 0)
(-0.0421695 -0.0596216 0)
(-0.0411821 -0.068029 0)
(-0.0408995 -0.0781384 0)
(-0.0414031 -0.0907976 0)
(-0.0425744 -0.106771 0)
(-0.0440398 -0.126428 0)
(-0.0449295 -0.149459 0)
(-0.04367 -0.173801 0)
(-0.0386115 -0.190189 0)
(-0.0293752 -0.191362 0)
(-0.0101775 -0.143776 0)
(-0.00354313 0.0636153 0)
(-0.0118882 0.0880627 0)
(-0.019737 0.101696 0)
(-0.0276402 0.114535 0)
(-0.0346457 0.124965 0)
(-0.0392938 0.129209 0)
(-0.0429998 0.1283 0)
(-0.045514 0.123251 0)
(-0.0473401 0.115829 0)
(-0.0486876 0.107059 0)
(-0.0496504 0.0975519 0)
(-0.0503875 0.0877677 0)
(-0.0509762 0.0779781 0)
(-0.0514581 0.0683177 0)
(-0.0518468 0.0588391 0)
(-0.0521328 0.0495467 0)
(-0.0522902 0.0404224 0)
(-0.0522833 0.0314446 0)
(-0.0520731 0.0226007 0)
(-0.0516206 0.0138928 0)
(-0.0508938 0.00534215 0)
(-0.0498753 -0.00301524 0)
(-0.0485619 -0.0111329 0)
(-0.046973 -0.0189638 0)
(-0.0451518 -0.0264737 0)
(-0.0431643 -0.0336572 0)
(-0.0410965 -0.0405536 0)
(-0.0390507 -0.0472642 0)
(-0.0371463 -0.0539762 0)
(-0.0355247 -0.0610013 0)
(-0.0343544 -0.0688347 0)
(-0.0338188 -0.0782157 0)
(-0.034053 -0.0901173 0)
(-0.0350218 -0.105558 0)
(-0.0364116 -0.125206 0)
(-0.0375471 -0.149108 0)
(-0.0369969 -0.175756 0)
(-0.0325678 -0.197442 0)
(-0.0258535 -0.202869 0)
(-0.00890257 -0.163377 0)
(-0.00264786 0.0700552 0)
(-0.0095819 0.0959996 0)
(-0.0161165 0.109184 0)
(-0.0226828 0.121065 0)
(-0.0282769 0.130008 0)
(-0.031863 0.132994 0)
(-0.0349528 0.131132 0)
(-0.0370245 0.125346 0)
(-0.0386418 0.117381 0)
(-0.0399054 0.108217 0)
(-0.0408967 0.0984509 0)
(-0.0417308 0.0885 0)
(-0.0424588 0.0785963 0)
(-0.0431025 0.0688436 0)
(-0.0436636 0.0592703 0)
(-0.0441253 0.0498626 0)
(-0.0444585 0.0405909 0)
(-0.0446267 0.0314276 0)
(-0.0445907 0.0223588 0)
(-0.044312 0.0133902 0)
(-0.0437563 0.00455191 0)
(-0.0429032 -0.0041052 0)
(-0.0417475 -0.0125155 0)
(-0.0403055 -0.0206092 0)
(-0.0386192 -0.0283281 0)
(-0.0367541 -0.0356455 0)
(-0.0347949 -0.0425839 0)
(-0.0328396 -0.0492309 0)
(-0.0309966 -0.0557583 0)
(-0.0293894 -0.0624553 0)
(-0.0281667 -0.0697905 0)
(-0.0275062 -0.0784998 0)
(-0.0275767 -0.0896371 0)
(-0.0284217 -0.104444 0)
(-0.0298032 -0.123925 0)
(-0.0311617 -0.148414 0)
(-0.0312056 -0.176664 0)
(-0.0280282 -0.203089 0)
(-0.0220922 -0.212992 0)
(-0.00771847 -0.17992 0)
(-0.0016746 0.0750198 0)
(-0.0071446 0.102453 0)
(-0.012351 0.11529 0)
(-0.0175821 0.126273 0)
(-0.0218597 0.13393 0)
(-0.0245238 0.135994 0)
(-0.0270252 0.133443 0)
(-0.0287096 0.127142 0)
(-0.0301307 0.118792 0)
(-0.0313143 0.109351 0)
(-0.032319 0.0994055 0)
(-0.033221 0.089337 0)
(-0.0340478 0.0793471 0)
(-0.0348069 0.0695161 0)
(-0.0354913 0.059854 0)
(-0.0360808 0.0503338 0)
(-0.0365464 0.0409172 0)
(-0.0368534 0.0315717 0)
(-0.0369647 0.0222822 0)
(-0.0368435 0.0130569 0)
(-0.0364556 0.003933 0)
(-0.0357774 -0.00502481 0)
(-0.034801 -0.013732 0)
(-0.033539 -0.0220951 0)
(-0.0320307 -0.0300307 0)
(-0.0303407 -0.03749 0)
(-0.0285527 -0.0444798 0)
(-0.0267621 -0.0510782 0)
(-0.0250697 -0.0574485 0)
(-0.0235835 -0.0638637 0)
(-0.0224316 -0.0707647 0)
(-0.0217754 -0.0788631 0)
(-0.0217963 -0.0892505 0)
(-0.0226019 -0.103355 0)
(-0.0240455 -0.122522 0)
(-0.0256231 -0.147416 0)
(-0.0261198 -0.177116 0)
(-0.0239751 -0.207432 0)
(-0.0195297 -0.221605 0)
(-0.00682387 -0.194609 0)
(-0.00070775 0.0782643 0)
(-0.00466945 0.107352 0)
(-0.00855035 0.120017 0)
(-0.0124462 0.130194 0)
(-0.0155035 0.136824 0)
(-0.017372 0.138273 0)
(-0.0192636 0.135263 0)
(-0.0205791 0.128648 0)
(-0.0217889 0.120058 0)
(-0.0228698 0.110442 0)
(-0.0238517 0.100383 0)
(-0.0247755 0.0902356 0)
(-0.0256489 0.0801806 0)
(-0.0264683 0.0702825 0)
(-0.0272211 0.0605382 0)
(-0.0278861 0.0509118 0)
(-0.0284365 0.0413589 0)
(-0.0288419 0.031843 0)
(-0.0290693 0.0223472 0)
(-0.0290849 0.0128812 0)
(-0.028857 0.00348738 0)
(-0.0283605 -0.00575834 0)
(-0.0275846 -0.0147536 0)
(-0.0265378 -0.0233811 0)
(-0.0252552 -0.0315312 0)
(-0.0237978 -0.0391314 0)
(-0.0222475 -0.0461729 0)
(-0.0206966 -0.052727 0)
(-0.0192398 -0.0589538 0)
(-0.017973 -0.0651176 0)
(-0.0170051 -0.071635 0)
(-0.0164774 -0.0791829 0)
(-0.0165693 -0.0888533 0)
(-0.017434 -0.102209 0)
(-0.0190138 -0.120933 0)
(-0.0208627 -0.146053 0)
(-0.0218682 -0.177083 0)
(-0.0207006 -0.210425 0)
(-0.017173 -0.229015 0)
(-0.00604526 -0.207439 0)
(0.000193766 0.0801509 0)
(-0.00220038 0.110777 0)
(-0.00478496 0.123395 0)
(-0.00736673 0.13289 0)
(-0.00928435 0.138763 0)
(-0.0104419 0.139858 0)
(-0.0116846 0.136599 0)
(-0.0126221 0.129849 0)
(-0.0135875 0.121149 0)
(-0.0145256 0.111452 0)
(-0.0154352 0.101335 0)
(-0.0163259 0.0911418 0)
(-0.0171886 0.0810402 0)
(-0.0180106 0.0710855 0)
(-0.0187754 0.0612677 0)
(-0.0194625 0.0515454 0)
(-0.0200491 0.0418705 0)
(-0.0205101 0.0322035 0)
(-0.0208184 0.0225258 0)
(-0.0209458 0.012847 0)
(-0.0208646 0.00321273 0)
(-0.0205516 -0.00629275 0)
(-0.0199942 -0.0155516 0)
(-0.0191972 -0.0244241 0)
(-0.0181896 -0.0327742 0)
(-0.0170265 -0.0405049 0)
(-0.0157845 -0.0475907 0)
(-0.0145508 -0.0540972 0)
(-0.0134134 -0.0601855 0)
(-0.0124577 -0.0661168 0)
(-0.0117757 -0.0722887 0)
(-0.0114879 -0.0793403 0)
(-0.011763 -0.088337 0)
(-0.0127821 -0.100926 0)
(-0.0145688 -0.119097 0)
(-0.0167254 -0.144282 0)
(-0.0182867 -0.176466 0)
(-0.0179971 -0.212491 0)
(-0.0154985 -0.235319 0)
(-0.00544939 -0.219026 0)
(0.00125201 0.0800131 0)
(0.000231181 0.11266 0)
(-0.00107611 0.125452 0)
(-0.00241084 0.134417 0)
(-0.00327483 0.139825 0)
(-0.00371766 0.140747 0)
(-0.00429616 0.13742 0)
(-0.00482538 0.130705 0)
(-0.0055004 0.122023 0)
(-0.00624338 0.112328 0)
(-0.00702373 0.102206 0)
(-0.00782272 0.0919981 0)
(-0.00861648 0.0818676 0)
(-0.00938431 0.0718685 0)
(-0.0101067 0.061988 0)
(-0.0107647 0.0521838 0)
(-0.01134 0.042406 0)
(-0.0118141 0.0326136 0)
(-0.0121669 0.0227863 0)
(-0.0123779 0.012933 0)
(-0.0124256 0.00310087 0)
(-0.0122918 -0.00662031 0)
(-0.0119651 -0.0161007 0)
(-0.0114476 -0.0251816 0)
(-0.0107622 -0.0337026 0)
(-0.00995554 -0.0415421 0)
(-0.00909456 -0.0486575 0)
(-0.00825715 -0.0551083 0)
(-0.00752206 -0.0610577 0)
(-0.00696413 -0.0667686 0)
(-0.00666009 -0.0726251 0)
(-0.00671084 -0.0792286 0)
(-0.00727 -0.0876007 0)
(-0.00853436 -0.099427 0)
(-0.0105935 -0.116963 0)
(-0.0131093 -0.142081 0)
(-0.0152428 -0.175213 0)
(-0.0157499 -0.213645 0)
(-0.0140851 -0.240707 0)
(-0.00494866 -0.229446 0)
(0.00203388 0.0786639 0)
(0.00254222 0.113126 0)
(0.00250067 0.126254 0)
(0.00234302 0.134867 0)
(0.00247539 0.140017 0)
(0.00279573 0.140904 0)
(0.00289624 0.137723 0)
(0.00281691 0.131174 0)
(0.00248726 0.122623 0)
(0.0019995 0.113012 0)
(0.00141004 0.102938 0)
(0.000762201 0.092746 0)
(9.44523e-05 0.0826065 0)
(-0.000565312 0.0725767 0)
(-0.00119517 0.0626479 0)
(-0.00177706 0.0527792 0)
(-0.00229796 0.0429216 0)
(-0.00274587 0.0330342 0)
(-0.00310894 0.0230958 0)
(-0.00337518 0.0131149 0)
(-0.00353217 0.00313871 0)
(-0.00356898 -0.00673981 0)
(-0.00347863 -0.016383 0)
(-0.00326322 -0.0256179 0)
(-0.00294023 -0.0342636 0)
(-0.00254631 -0.0421763 0)
(-0.00213561 -0.0492969 0)
(-0.00177228 -0.0556784 0)
(-0.00152114 -0.0614868 0)
(-0.00144275 -0.0669879 0)
(-0.00159927 -0.0725556 0)
(-0.00207501 -0.0787543 0)
(-0.00300622 -0.0865519 0)
(-0.00459699 -0.0976326 0)
(-0.00698993 -0.114475 0)
(-0.00991561 -0.139425 0)
(-0.0126319 -0.173362 0)
(-0.0138898 -0.214003 0)
(-0.0130749 -0.24532 0)
(-0.0045653 -0.239063 0)
(0.00284526 0.0756787 0)
(0.00476781 0.112174 0)
(0.00591657 0.125856 0)
(0.00685184 0.134316 0)
(0.00792938 0.139337 0)
(0.00905789 0.14029 0)
(0.00985209 0.137456 0)
(0.0102973 0.131215 0)
(0.0103732 0.122891 0)
(0.0102054 0.113443 0)
(0.00987161 0.103469 0)
(0.00943526 0.0933279 0)
(0.00894818 0.0832028 0)
(0.00844683 0.0731606 0)
(0.00795574 0.0632013 0)
(0.00749091 0.0532892 0)
(0.00706138 0.0433788 0)
(0.00667263 0.0334309 0)
(0.00632829 0.0234248 0)
(0.00603094 0.013369 0)
(0.00578275 0.00331107 0)
(0.00558516 -0.00665495 0)
(0.00543808 -0.0163875 0)
(0.0053365 -0.0257049 0)
(0.00526615 -0.0344113 0)
(0.00520014 -0.042346 0)
(0.00509957 -0.0494362 0)
(0.00491891 -0.0557296 0)
(0.00461249 -0.061394 0)
(0.00413651 -0.066696 0)
(0.00344414 -0.0720003 0)
(0.00246906 -0.0778369 0)
(0.00109058 -0.0851114 0)
(-0.000895888 -0.0954793 0)
(-0.00367582 -0.111589 0)
(-0.0070503 -0.136284 0)
(-0.010346 -0.170904 0)
(-0.0122872 -0.213549 0)
(-0.012259 -0.249286 0)
(-0.00423367 -0.247952 0)
(0.00358272 0.0712352 0)
(0.00686923 0.109849 0)
(0.00913336 0.124315 0)
(0.0110947 0.132798 0)
(0.0130687 0.137788 0)
(0.0150523 0.138888 0)
(0.0164689 0.136544 0)
(0.0175544 0.130771 0)
(0.0181251 0.122765 0)
(0.0183518 0.113554 0)
(0.0183421 0.103736 0)
(0.0181794 0.0936861 0)
(0.0179281 0.0836046 0)
(0.0176328 0.0735747 0)
(0.0173214 0.063608 0)
(0.0170089 0.0536783 0)
(0.0167011 0.0437462 0)
(0.0163975 0.0337761 0)
(0.0160937 0.0237497 0)
(0.0157827 0.0136768 0)
(0.015456 0.00360508 0)
(0.0151047 -0.00637096 0)
(0.0147203 -0.016109 0)
(0.014292 -0.0254243 0)
(0.0138061 -0.034113 0)
(0.0132445 -0.0420051 0)
(0.0125847 -0.0490186 0)
(0.0118026 -0.0551972 0)
(0.0108757 -0.0607097 0)
(0.00978201 -0.0658229 0)
(0.00849165 -0.0708896 0)
(0.00695507 -0.0764061 0)
(0.00506557 -0.0832115 0)
(0.00262629 -0.0929078 0)
(-0.000584458 -0.108264 0)
(-0.00445189 -0.132631 0)
(-0.00833459 -0.16786 0)
(-0.010886 -0.212296 0)
(-0.0116682 -0.252757 0)
(-0.00395732 -0.256345 0)
(0.00417473 0.0655345 0)
(0.00877134 0.106238 0)
(0.012089 0.121702 0)
(0.0150104 0.130358 0)
(0.0178342 0.135398 0)
(0.0205834 0.136831 0)
(0.0227728 0.134882 0)
(0.024526 0.1297 0)
(0.0256829 0.122154 0)
(0.0263884 0.113271 0)
(0.0267781 0.103674 0)
(0.0269543 0.0937626 0)
(0.0269948 0.0837622 0)
(0.0269524 0.0737761 0)
(0.026859 0.0638323 0)
(0.0267301 0.0539167 0)
(0.0265688 0.0439989 0)
(0.0263694 0.0340495 0)
(0.0261203 0.0240544 0)
(0.0258054 0.014026 0)
(0.0254062 0.00401286 0)
(0.0249034 -0.00589111 0)
(0.0242796 -0.0155453 0)
(0.0235169 -0.0247652 0)
(0.0225999 -0.0333471 0)
(0.0215177 -0.0411189 0)
(0.020264 -0.0479971 0)
(0.0188382 -0.0540265 0)
(0.0172437 -0.0593778 0)
(0.0154824 -0.0643139 0)
(0.0135461 -0.0691706 0)
(0.0113999 -0.0744077 0)
(0.0089527 -0.0807985 0)
(0.00601525 -0.0898707 0)
(0.00233728 -0.10447 0)
(-0.00205433 -0.128434 0)
(-0.00653852 -0.164229 0)
(-0.00962078 -0.210451 0)
(-0.0114289 -0.255485 0)
(-0.00344117 -0.264411 0)
(0.00456508 0.0587295 0)
(0.0103956 0.101429 0)
(0.0146968 0.118084 0)
(0.0185086 0.12705 0)
(0.0221353 0.132206 0)
(0.0256166 0.133985 0)
(0.0286309 0.132512 0)
(0.0311134 0.127941 0)
(0.0329392 0.120968 0)
(0.0342161 0.112506 0)
(0.0350931 0.103207 0)
(0.0356849 0.0934948 0)
(0.0360804 0.0836241 0)
(0.0363416 0.0737235 0)
(0.0365057 0.0638412 0)
(0.0365901 0.0539791 0)
(0.0365965 0.0441183 0)
(0.0365154 0.0342383 0)
(0.0363289 0.0243311 0)
(0.0360133 0.0144126 0)
(0.0355408 0.00453348 0)
(0.0348829 -0.00521345 0)
(0.0340135 -0.0146902 0)
(0.0329072 -0.0237164 0)
(0.0315464 -0.032095 0)
(0.029927 -0.039662 0)
(0.0280585 -0.046341 0)
(0.025964 -0.0521824 0)
(0.0236735 -0.0573587 0)
(0.0212137 -0.0621271 0)
(0.0185976 -0.0668026 0)
(0.0158085 -0.0718019 0)
(0.012772 -0.0778316 0)
(0.00930453 -0.0863316 0)
(0.00513133 -0.100184 0)
(0.000202107 -0.123681 0)
(-0.00489846 -0.159988 0)
(-0.00843175 -0.208047 0)
(-0.0112585 -0.257599 0)
(-0.00306898 -0.27228 0)
(0.00469088 0.0510567 0)
(0.0116503 0.09553 0)
(0.0168553 0.113524 0)
(0.0214863 0.122929 0)
(0.0258706 0.128259 0)
(0.0300859 0.130335 0)
(0.0338987 0.129354 0)
(0.0371701 0.125441 0)
(0.0397547 0.119118 0)
(0.0417046 0.111167 0)
(0.0431627 0.102246 0)
(0.0442556 0.0928061 0)
(0.0450797 0.0831284 0)
(0.0457037 0.0733688 0)
(0.0461704 0.0635992 0)
(0.0465004 0.0538406 0)
(0.046696 0.0440888 0)
(0.0467452 0.0343344 0)
(0.0466256 0.0245772 0)
(0.0463076 0.0148388 0)
(0.0457557 0.00517243 0)
(0.0449331 -0.00433021 0)
(0.0438065 -0.0135346 0)
(0.0423445 -0.0222677 0)
(0.0405288 -0.0303464 0)
(0.038363 -0.037623 0)
(0.0358722 -0.0440365 0)
(0.0331025 -0.0496481 0)
(0.0301084 -0.054633 0)
(0.0269398 -0.0592399 0)
(0.023629 -0.0637605 0)
(0.0201796 -0.0685652 0)
(0.016534 -0.074285 0)
(0.0125166 -0.0822652 0)
(0.00783156 -0.0953864 0)
(0.00236113 -0.118361 0)
(-0.00339454 -0.155142 0)
(-0.00729822 -0.205128 0)
(-0.0112969 -0.259108 0)
(-0.00248611 -0.280023 0)
(0.0044817 0.0428688 0)
(0.0124206 0.0886734 0)
(0.0184447 0.108084 0)
(0.0238282 0.11804 0)
(0.0289355 0.123588 0)
(0.0338568 0.12593 0)
(0.0384409 0.125387 0)
(0.0425319 0.122118 0)
(0.0459522 0.116495 0)
(0.0486853 0.109151 0)
(0.0508315 0.100701 0)
(0.0525187 0.0916149 0)
(0.0538513 0.0822052 0)
(0.0549042 0.0726562 0)
(0.0557253 0.0630646 0)
(0.0563386 0.0534726 0)
(0.0567477 0.0438931 0)
(0.0569403 0.03433 0)
(0.0568914 0.024793 0)
(0.0565668 0.0153108 0)
(0.0559259 0.00594 0)
(0.0549252 -0.00322861 0)
(0.0535262 -0.0120654 0)
(0.0516955 -0.0204081 0)
(0.0494174 -0.028094 0)
(0.0467051 -0.0349991 0)
(0.0436 -0.0410848 0)
(0.0401685 -0.0464268 0)
(0.0364861 -0.0512026 0)
(0.0326212 -0.0556509 0)
(0.028622 -0.0600378 0)
(0.0245089 -0.0646864 0)
(0.0202452 -0.0701469 0)
(0.0156719 -0.0776602 0)
(0.0104745 -0.0900699 0)
(0.00447165 -0.112475 0)
(-0.0019682 -0.149672 0)
(-0.00619163 -0.201687 0)
(-0.0114412 -0.259962 0)
(-0.00185841 -0.287715 0)
(0.00389 0.0346489 0)
(0.0125824 0.0810379 0)
(0.019336 0.101827 0)
(0.0254196 0.112429 0)
(0.0312081 0.11822 0)
(0.0368037 0.120809 0)
(0.0421224 0.120627 0)
(0.0470237 0.117933 0)
(0.05132 0.113008 0)
(0.0549263 0.10634 0)
(0.0578789 0.0984624 0)
(0.0602711 0.0898323 0)
(0.0622056 0.0807824 0)
(0.0637634 0.0715278 0)
(0.0649982 0.0621931 0)
(0.0659381 0.0528441 0)
(0.0665898 0.0435126 0)
(0.0669417 0.0342173 0)
(0.0669684 0.0249796 0)
(0.0666329 0.0158366 0)
(0.0658925 0.00684851 0)
(0.0646998 -0.00189464 0)
(0.0630143 -0.0102692 0)
(0.0608063 -0.0181297 0)
(0.058068 -0.025339 0)
(0.0548243 -0.031802 0)
(0.0511329 -0.0375067 0)
(0.0470768 -0.0425443 0)
(0.042746 -0.0470934 0)
(0.038221 -0.0513805 0)
(0.03356 -0.0556462 0)
(0.0287956 -0.0601668 0)
(0.0239155 -0.0654149 0)
(0.018788 -0.0725176 0)
(0.0130927 -0.0842376 0)
(0.00658353 -0.106007 0)
(-0.000594284 -0.143572 0)
(-0.00511211 -0.197806 0)
(-0.0116902 -0.260288 0)
(-0.000926691 -0.295399 0)
(0.00295775 0.0269635 0)
(0.0120412 0.0728472 0)
(0.0194195 0.0948261 0)
(0.0261525 0.106136 0)
(0.0325666 0.112201 0)
(0.0388062 0.114996 0)
(0.0448225 0.115122 0)
(0.0504907 0.112897 0)
(0.0556574 0.108612 0)
(0.060176 0.102634 0)
(0.0640183 0.0954064 0)
(0.0672262 0.0873391 0)
(0.0698708 0.0787618 0)
(0.0720253 0.0699086 0)
(0.0737461 0.0609302 0)
(0.0750664 0.0519175 0)
(0.0759973 0.042924 0)
(0.0765304 0.0339854 0)
(0.0766415 0.0251363 0)
(0.0762946 0.016423 0)
(0.0754483 0.00790887 0)
(0.0740556 -0.000318281 0)
(0.0720802 -0.00814026 0)
(0.0695017 -0.0154368 0)
(0.0663249 -0.0220993 0)
(0.0625891 -0.0280646 0)
(0.0583667 -0.0333474 0)
(0.0537508 -0.0380522 0)
(0.0488384 -0.0423561 0)
(0.0437134 -0.0464716 0)
(0.0384359 -0.0506126 0)
(0.0330477 -0.0550197 0)
(0.0275657 -0.060096 0)
(0.0218936 -0.0668479 0)
(0.0157244 -0.0779171 0)
(0.00874414 -0.0990102 0)
(0.000767604 -0.136858 0)
(-0.00390453 -0.193304 0)
(-0.0122458 -0.259999 0)
(0.000183587 -0.303058 0)
(0.00184618 0.0203291 0)
(0.0108038 0.0644052 0)
(0.0186267 0.0872053 0)
(0.0259287 0.0992069 0)
(0.0329205 0.105576 0)
(0.0397472 0.108526 0)
(0.0464295 0.108901 0)
(0.0528303 0.107062 0)
(0.0588097 0.103319 0)
(0.0642265 0.0979974 0)
(0.0689837 0.0914481 0)
(0.0730669 0.0840245 0)
(0.0765059 0.07603 0)
(0.0793473 0.0676982 0)
(0.0816354 0.0591958 0)
(0.0834018 0.0506344 0)
(0.0846605 0.0420882 0)
(0.0854075 0.0336114 0)
(0.085623 0.0252526 0)
(0.0852757 0.0170674 0)
(0.0843308 0.00912253 0)