/*--------------------------------*- C++ -*----------------------------------*\
  =========                 |
  \\      /  F ield         | OpenFOAM: The Open Source CFD Toolbox
   \\    /   O peration     | Website:  https://openfoam.org
    \\  /    A nd           | Version:  13
     \\/     M anipulation  |
\*---------------------------------------------------------------------------*/
FoamFile
{
    format      ascii;
    class       volScalarField;
    location    "3.1";
    object      epsilon;
}
// * * * * * * * * * * * * * * * * * * * * * * * * * * * * * * * * * * * * * //

dimensions      [0 2 -3 0 0 0 0];

internalField   nonuniform List<scalar> 
6400
(
2.21203e-05
0.000111986
0.00026088
0.000416911
0.000546002
0.000638139
0.00069995
0.000745815
0.000791039
0.000848666
0.000930616
0.00104242
0.00118954
0.00137404
0.00159464
0.00184726
0.0021266
0.00242506
0.00273393
0.00304642
0.00336403
0.00370361
0.00409451
0.00456023
0.00510519
0.00570226
0.00630607
0.00691506
0.00753858
0.00819026
0.00887569
0.00958386
0.0102786
0.0109618
0.0116283
0.0122936
0.0129628
0.013648
0.0143566
0.0150977
0.0158774
0.0167011
0.0175765
0.0185098
0.019499
0.0205459
0.0216608
0.0228837
0.0242922
0.0260765
0.0278343
0.0296391
0.0314029
0.0331039
0.0346803
0.036071
0.0372052
0.0379298
0.0382736
0.0383716
0.0378339
0.0366557
0.0348515
0.0324676
0.0295564
0.0262353
0.0226422
0.0189893
0.0154427
0.0120965
0.00909819
0.00672371
0.00477215
0.00323782
0.00210367
0.00130876
0.000776826
0.000429953
0.000194013
4.06382e-05
0.000107654
0.000100832
0.00015688
0.000224588
0.000282394
0.000327587
0.000363175
0.000394621
0.000428348
0.000471245
0.000530598
0.000612077
0.000721857
0.000865679
0.0010487
0.00127581
0.0015517
0.0018809
0.00226807
0.00271942
0.00324516
0.00385395
0.00456503
0.00540263
0.006368
0.00744496
0.00864161
0.00988851
0.0111225
0.0122931
0.0133354
0.0141987
0.0148986
0.0154356
0.0158385
0.0161338
0.0163479
0.0165076
0.0166348
0.0167483
0.0168631
0.0169964
0.0171594
0.0173356
0.0175232
0.0177313
0.0179891
0.0183058
0.018675
0.0191024
0.0195715
0.0200595
0.0205628
0.0210493
0.021503
0.0218889
0.0221392
0.0222365
0.0222134
0.0219852
0.0214974
0.0207295
0.0196802
0.0183426
0.0167561
0.0149699
0.0130654
0.0111317
0.00925109
0.00749511
0.00592746
0.00462234
0.00351758
0.00258733
0.00182085
0.00121041
0.000745822
0.000416113
0.000212514
0.000211158
0.000236003
0.000174741
0.000214778
0.000264851
0.000305977
0.00034082
0.000374965
0.000414687
0.00046711
0.000540899
0.000645058
0.000790114
0.000987304
0.00124771
0.00158242
0.00200329
0.00252023
0.00314186
0.00387428
0.00472058
0.00568073
0.00675128
0.00790887
0.00909366
0.0102251
0.0112103
0.0119504
0.0124625
0.0128158
0.0130567
0.0132574
0.0133908
0.0134233
0.0133212
0.0131919
0.0130471
0.0129087
0.0127896
0.012707
0.0126699
0.0126615
0.0127058
0.0127997
0.0129613
0.0131992
0.0135106
0.0138782
0.0143038
0.0147818
0.0153094
0.0158811
0.0164865
0.0171175
0.0177565
0.0183851
0.0189759
0.019497
0.0199172
0.0201446
0.0202103
0.0200621
0.0196189
0.0188525
0.0177583
0.0163828
0.0147765
0.0130115
0.0111761
0.00935649
0.00763397
0.00607705
0.00473545
0.00361557
0.00270237
0.00197091
0.00139002
0.000931676
0.000578148
0.000361089
0.0005373
0.000402944
0.000289555
0.00032622
0.000372306
0.000411783
0.000450873
0.000497836
0.000561893
0.000653815
0.000786307
0.000975504
0.00123846
0.00159201
0.00205145
0.00262913
0.00333332
0.00416699
0.00512226
0.00617666
0.00729027
0.0084071
0.00945766
0.010365
0.011058
0.0114912
0.0117105
0.0118063
0.011835
0.0117184
0.0114555
0.0111543
0.0107884
0.010506
0.0102913
0.0101006
0.00995828
0.00987082
0.00983398
0.00982884
0.00988823
0.00999544
0.0101574
0.010372
0.0106421
0.0109665
0.0113438
0.0117728
0.012255
0.0127894
0.0133753
0.0140104
0.0146901
0.0154079
0.0161529
0.0169097
0.0176561
0.018363
0.0189945
0.0195056
0.0197964
0.0198925
0.0197451
0.0193009
0.0185263
0.0173315
0.0158314
0.0140849
0.0121851
0.010237
0.00834945
0.00661836
0.00511279
0.00386369
0.00286837
0.00209698
0.0015085
0.00105797
0.000714266
0.000516223
0.00085418
0.00062469
0.000441249
0.000471344
0.000518566
0.000566631
0.000622596
0.000697527
0.000805081
0.000961954
0.00118803
0.00150546
0.00193576
0.00249644
0.00319795
0.00404105
0.00501361
0.00608648
0.00720905
0.00830993
0.00930292
0.0101098
0.01065
0.0109093
0.011004
0.0110178
0.0108088
0.0104106
0.00995938
0.00952882
0.00916776
0.00883188
0.00854972
0.00833635
0.0081733
0.00805883
0.00800276
0.00798336
0.00799453
0.00806041
0.0081641
0.00830813
0.00849169
0.00871472
0.00897795
0.00928203
0.00962853
0.0100196
0.0104578
0.0109452
0.011484
0.0120764
0.0127226
0.0134216
0.0141697
0.0149602
0.0157805
0.0166098
0.0174202
0.0181748
0.0188227
0.0192674
0.0194506
0.0194171
0.0189996
0.0182847
0.0170386
0.015423
0.0135289
0.0114693
0.00938147
0.00740448
0.00565281
0.00419557
0.00304902
0.0021862
0.00155565
0.00109896
0.000773263
0.000614794
0.00105868
0.000922498
0.000633941
0.000652042
0.000705143
0.000772717
0.000859169
0.000979328
0.00115272
0.00140295
0.00175626
0.00223801
0.00286738
0.00365176
0.00458203
0.00562932
0.00674243
0.00784747
0.00885264
0.00966782
0.0101856
0.0104165
0.0104829
0.0103868
0.0100568
0.00954086
0.00900737
0.00853796
0.00809906
0.0077292
0.00742059
0.00716484
0.0069672
0.00681967
0.00671476
0.00665705
0.00663307
0.00662896
0.00666136
0.00672463
0.00681329
0.00692902
0.0070705
0.00723845
0.00743366
0.00765784
0.00791337
0.00820348
0.0085321
0.00890389
0.00932412
0.00979851
0.010333
0.0109328
0.0116015
0.0123409
0.0131496
0.0140224
0.0149442
0.0158947
0.0168333
0.0177058
0.0184454
0.018881
0.0190275
0.0188025
0.0181999
0.0169321
0.0152142
0.013146
0.0108815
0.00861084
0.00651872
0.00474251
0.00334523
0.00231672
0.00159686
0.00110617
0.000785118
0.00065817
0.00113637
0.00131718
0.000872067
0.000873991
0.000941106
0.00103954
0.00117083
0.00135454
0.00161645
0.0019858
0.00249101
0.00315289
0.00397691
0.00494644
0.00601868
0.00712468
0.00817402
0.00906543
0.00968493
0.00997118
0.0100556
0.00996355
0.00959731
0.00904113
0.00845621
0.00791548
0.00742726
0.00701268
0.00665678
0.00636725
0.00613103
0.00594357
0.00579977
0.00569264
0.00561723
0.00557229
0.0055515
0.0055457
0.00556055
0.00559676
0.00564841
0.00571676
0.00580118
0.00590263
0.00602203
0.00616114
0.00632223
0.00650831
0.00672323
0.00697186
0.00726003
0.00759469
0.00798409
0.00843859
0.00896912
0.00958658
0.0103015
0.0111231
0.0120523
0.0130822
0.0142019
0.0153747
0.0165475
0.0176323
0.0184789
0.0188741
0.0189385
0.0184532
0.0171773
0.0153103
0.0129896
0.0104393
0.00792772
0.00569756
0.00390403
0.00258814
0.0016969
0.00112701
0.000784207
0.000664208
0.00112548
0.00182703
0.0011592
0.00114324
0.00123631
0.00137637
0.00156643
0.00183042
0.00219882
0.00270223
0.0033635
0.00418825
0.00515623
0.00621652
0.00728847
0.00827035
0.00905614
0.00949406
0.00965317
0.00966249
0.00936466
0.00881074
0.00818407
0.00758683
0.00704016
0.00656796
0.00616538
0.00583134
0.00555424
0.00533011
0.00514855
0.00500459
0.00489215
0.0048062
0.00474282
0.00469896
0.00467343
0.00466228
0.00466015
0.00467301
0.00469731
0.00473297
0.00477994
0.00483884
0.00491049
0.00499626
0.00509795
0.00521783
0.00535882
0.00552453
0.00571945
0.00594917
0.00622066
0.00654268
0.00692596
0.00738406
0.00793338
0.0085928
0.00938576
0.0103284
0.0114333
0.0126952
0.0140933
0.0155762
0.017044
0.0183424
0.0191243
0.0194073
0.0190931
0.0177659
0.0156611
0.0129841
0.010064
0.00727177
0.00490994
0.00313359
0.00193469
0.0012018
0.000795709
0.000660272
0.00109001
0.00246489
0.00149836
0.00146823
0.00159642
0.00178852
0.00204902
0.00240468
0.00288695
0.00352102
0.00431481
0.00524882
0.00627004
0.00729308
0.00821062
0.00890362
0.00923951
0.00934309
0.00922116
0.00877285
0.00813549
0.00749563
0.00688461
0.00634864
0.00588704
0.0055008
0.00517943
0.00491526
0.00469836
0.00452236
0.00437976
0.00426594
0.00417609
0.0041066
0.00405457
0.00401763
0.00399488
0.00398434
0.00398142
0.00398904
0.00400717
0.00403412
0.0040704
0.00411622
0.00417225
0.00423944
0.00431907
0.00441269
0.0045223
0.00465031
0.00479969
0.004974
0.00517758
0.00541568
0.00569524
0.00602527
0.00641777
0.00689057
0.00746824
0.00818324
0.00907397
0.0101745
0.0115158
0.0130913
0.0148603
0.0167223
0.0184799
0.0196956
0.0202008
0.020046
0.0185874
0.0161281
0.0129844
0.0096333
0.00656316
0.00412224
0.00242767
0.00139283
0.000849047
0.000667521
0.00108328
0.00323802
0.00189499
0.00185488
0.00202352
0.00227579
0.0026133
0.00306279
0.0036512
0.00439062
0.00526609
0.00622798
0.00719217
0.00805063
0.00866513
0.00894452
0.00901785
0.00879318
0.0082595
0.00760025
0.0069357
0.00632955
0.00579632
0.00534729
0.00497156
0.00466171
0.00440654
0.00419778
0.00402746
0.00388982
0.00377944
0.00369246
0.0036253
0.00357523
0.00353981
0.00351852
0.00350896
0.00350658
0.00351316
0.00352973
0.00355399
0.00358611
0.00362614
0.0036744
0.00373142
0.00379797
0.00387503
0.00396373
0.00406555
0.00418215
0.0043155
0.00446788
0.00464196
0.00484098
0.00506894
0.00533105
0.00563427
0.00598688
0.0064011
0.00689688
0.00750876
0.00829818
0.00933025
0.0106813
0.0123725
0.014396
0.0166483
0.0188902
0.0205488
0.0212608
0.0212038
0.019489
0.01653
0.01282
0.00902012
0.00573857
0.0033219
0.00179502
0.000989505
0.000703955
0.00111858
0.00418524
0.00236356
0.00230471
0.00251588
0.00283129
0.00324477
0.00377848
0.00444881
0.00524843
0.00613571
0.007033
0.00783591
0.00839934
0.00864559
0.00869658
0.00840707
0.0078382
0.00717278
0.00649898
0.00588789
0.00536086
0.00491676
0.00455021
0.00424807
0.00400114
0.00379971
0.00363667
0.00350578
0.00340227
0.00332191
0.00326141
0.00321772
0.00318845
0.00317394
0.00316872
0.00316889
0.00318019
0.00319816
0.0032235
0.00325516
0.00329347
0.00333854
0.00339084
0.00345098
0.00351978
0.00359827
0.00368757
0.00378903
0.00390416
0.00403457
0.004182
0.00434832
0.0045355
0.00474567
0.00498128
0.0052455
0.00554283
0.00588038
0.00626933
0.00672355
0.00726828
0.00795197
0.00886943
0.0101673
0.0119348
0.0141772
0.0168155
0.0195635
0.0216414
0.0225226
0.0224358
0.0202816
0.0166603
0.0123118
0.00812258
0.00477248
0.00252438
0.00128693
0.000804213
0.00124006
0.00529555
0.0029014
0.00281273
0.0030652
0.00344103
0.00392081
0.00451722
0.00523122
0.00603311
0.00685652
0.00760521
0.00813616
0.00836386
0.00839984
0.00809184
0.00751636
0.00684145
0.00616435
0.00554694
0.00501848
0.00457754
0.00421456
0.00391849
0.00367748
0.00348289
0.00332681
0.00320328
0.00310715
0.00303422
0.00298077
0.00294356
0.0029211
0.00291075
0.0029078
0.00291136
0.00292284
0.00294072
0.0029638
0.00299227
0.00302592
0.00306516
0.00311042
0.00316239
0.00322193
0.00329006
0.00336799
0.00345703
0.00355865
0.00367446
0.00380614
0.0039554
0.00412394
0.00431335
0.00452505
0.00476022
0.00501987
0.00530506
0.00561761
0.0059614
0.00634464
0.00678292
0.00729298
0.00791908
0.00874992
0.0099558
0.0117632
0.0142091
0.0172415
0.02051
0.0229327
0.0239087
0.0235804
0.0207405
0.0162852
0.0113076
0.00689516
0.00369499
0.0018197
0.00102169
0.00151584
0.00653095
0.00349539
0.00336864
0.00365778
0.00408532
0.0046134
0.00524125
0.00595187
0.00669454
0.00738573
0.0078914
0.00810838
0.0081407
0.00784225
0.0072801
0.00660317
0.00591839
0.0052931
0.00475708
0.00431335
0.00395064
0.00365659
0.00341965
0.00322985
0.00307956
0.00296214
0.00287228
0.00280534
0.00275724
0.0027244
0.00270501
0.0026961
0.00269342
0.00269535
0.00270402
0.00271713
0.00273438
0.00275548
0.00278075
0.00281047
0.0028453
0.00288596
0.00293339
0.00298865
0.00305295
0.00312764
0.00321422
0.00331437
0.00342987
0.00356262
0.00371458
0.0038877
0.00408378
0.00430432
0.00455035
0.0048222
0.00511947
0.00544108
0.00578597
0.00615452
0.0065517
0.00699115
0.00748933
0.00808457
0.00886753
0.0100162
0.0118455
0.0145124
0.0179611
0.0217621
0.0243697
0.0253041
0.0244239
0.0205862
0.0151936
0.00973286
0.00539235
0.00265342
0.0013997
0.00197375
0.00785799
0.00413316
0.00395874
0.00427589
0.00474089
0.00529267
0.00591451
0.00657161
0.00719682
0.00767567
0.00788978
0.00792834
0.00765611
0.00712071
0.0064496
0.00575587
0.00511667
0.00456765
0.00411436
0.00374689
0.00345116
0.00321487
0.00302755
0.00288066
0.00276731
0.00268151
0.00261826
0.002573
0.00254186
0.00252171
0.00251066
0.00250563
0.00250411
0.00250558
0.00251141
0.00251973
0.00253104
0.00254546
0.00256358
0.00258605
0.00261367
0.00264736
0.00268817
0.00273725
0.00279589
0.0028655
0.00294768
0.00304422
0.00315708
0.0032884
0.0034405
0.00361578
0.0038166
0.00404513
0.00430302
0.00459114
0.00490915
0.00525524
0.00562607
0.00601724
0.00642474
0.00684984
0.00730457
0.00780598
0.0083903
0.00915855
0.0103046
0.0121833
0.015117
0.0190337
0.0233621
0.0258613
0.0265738
0.024666
0.0195413
0.0132603
0.00766764
0.00383373
0.00195531
0.00259135
0.00923654
0.00479943
0.0045666
0.00489948
0.00538333
0.00593037
0.00650734
0.00706481
0.00751662
0.00773113
0.00776984
0.00753507
0.00703227
0.00637468
0.00567237
0.00501371
0.00444419
0.00397439
0.00359576
0.00329367
0.00305423
0.00286609
0.0027199
0.00260795
0.00252375
0.00246167
0.00241675
0.00238476
0.00236235
0.00234683
0.00233611
0.00232831
0.00232255
0.00231939
0.00231824
0.00231833
0.00232163
0.00232777
0.00233776
0.00235243
0.00237259
0.00239917
0.00243322
0.00247583
0.00252825
0.00259186
0.00266825
0.00275921
0.00286682
0.00299341
0.00314161
0.0033143
0.00351454
0.00374537
0.00400958
0.00430928
0.00464539
0.00501705
0.00542103
0.00585143
0.00630006
0.00675804
0.00722156
0.00770141
0.00821546
0.00880541
0.00958039
0.0107643
0.0127818
0.0160838
0.0205838
0.0252168
0.0273249
0.0275953
0.023942
0.0173837
0.0105554
0.00540432
0.00270411
0.00333286
0.01062
0.00547643
0.00517429
0.00550785
0.00598963
0.00650303
0.00699973
0.00742031
0.00763329
0.00766862
0.0074799
0.00701215
0.0063739
0.0056656
0.00498299
0.00438487
0.00389009
0.00349301
0.00317862
0.00293152
0.00273882
0.00259016
0.0024769
0.0023918
0.00232866
0.00228204
0.00224738
0.00222107
0.00220039
0.00218325
0.00216825
0.00215456
0.00214206
0.00213099
0.0021214
0.00211378
0.00210996
0.00210879
0.00211139
0.00211945
0.00213344
0.00215406
0.00218228
0.00221906
0.00226551
0.0023229
0.00239272
0.00247671
0.00257693
0.00269581
0.00283619
0.00300132
0.00319484
0.0034207
0.00368289
0.00398512
0.00433024
0.00471948
0.00515151
0.00562148
0.00612045
0.00663554
0.00715196
0.00766015
0.00817059
0.00870261
0.00930568
0.0101133
0.0113863
0.0136537
0.0174557
0.0226796
0.0272505
0.02888
0.0277964
0.021891
0.0140839
0.00742057
0.00366257
0.00415319
0.0119715
0.0061465
0.00576392
0.00608174
0.00654035
0.00699378
0.00738078
0.00759023
0.0076268
0.00748333
0.00705949
0.00644477
0.00573438
0.00502572
0.00439101
0.00386154
0.00343713
0.00310331
0.00284304
0.00264154
0.00248694
0.00236957
0.00228128
0.00221517
0.00216535
0.00212688
0.00209593
0.00206968
0.00204614
0.00202399
0.00200263
0.00198193
0.00196216
0.00194379
0.00192731
0.00191347
0.00190301
0.00189736
0.0018955
0.00189816
0.00190779
0.00192401
0.00194767
0.0019796
0.00202071
0.00207214
0.00213521
0.00221154
0.00230311
0.00241231
0.00254203
0.00269572
0.0028774
0.00309169
0.00334363
0.00363847
0.00398115
0.00437556
0.00482344
0.005323
0.00586745
0.00644392
0.00703335
0.00761281
0.00816431
0.00869619
0.0092448
0.00988561
0.0107529
0.0121906
0.0148742
0.0193197
0.0253022
0.0291817
0.0300773
0.0263818
0.0182286
0.00995117
0.00485351
0.00500515
0.0132522
0.00679316
0.00631922
0.00660463
0.00702067
0.00739283
0.00761377
0.00766625
0.00753871
0.00716824
0.00658606
0.00587844
0.00514442
0.00446672
0.00389201
0.00342967
0.0030676
0.00278743
0.00257208
0.00240773
0.00228329
0.00218956
0.00211884
0.00206468
0.00202175
0.00198591
0.0019542
0.00192467
0.00189609
0.00186793
0.00184017
0.00181316
0.00178744
0.00176363
0.00174238
0.00172437
0.00171022
0.00170116
0.00169722
0.00169671
0.00170333
0.00171657
0.00173685
0.00176487
0.00180138
0.00184735
0.00190394
0.0019726
0.00205516
0.00215387
0.00227153
0.00241158
0.00257818
0.00277629
0.00301168
0.00329076
0.00362031
0.00400685
0.00445556
0.00496886
0.00554441
0.00617301
0.00683689
0.00750947
0.00815854
0.00875841
0.00930179
0.00985102
0.0105428
0.0115121
0.0132343
0.016602
0.0220058
0.0282837
0.030954
0.0302167
0.0228273
0.0130755
0.00629195
0.00588987
0.0144344
0.0074018
0.00682649
0.00706398
0.00742172
0.00767132
0.0077499
0.00764495
0.0073378
0.00679294
0.00609775
0.00534205
0.00461795
0.00398787
0.00347531
0.00307411
0.0027656
0.00253022
0.0023516
0.00221678
0.00211526
0.00203834
0.00197886
0.00193102
0.00189031
0.00185354
0.00181868
0.00178454
0.00175066
0.00171708
0.00168419
0.00165259
0.00162294
0.00159588
0.00157204
0.00155198
0.00153618
0.00152533
0.00152014
0.00151873
0.00152328
0.00153454
0.00155231
0.00157718
0.00160976
0.00165086
0.00170149
0.00176293
0.00183681
0.00192518
0.00203065
0.00215648
0.00230674
0.00248644
0.00270162
0.0029594
0.00326787
0.00363566
0.00407116
0.00458113
0.00516864
0.00583033
0.00655338
0.00731307
0.00807224
0.00878626
0.00944187
0.0099818
0.0105232
0.0112823
0.0124271
0.0146378
0.0189452
0.0256118
0.0310785
0.0324348
0.027535
0.0168631
0.00801306
0.00679117
0.015503
0.00796123
0.00727522
0.00745016
0.00772759
0.00785161
0.00780654
0.00755382
0.00706076
0.0063888
0.00562098
0.00485128
0.00415801
0.00358214
0.00312852
0.00278092
0.0025176
0.00231911
0.00216996
0.0020579
0.00197301
0.0019072
0.00185401
0.00180849
0.00176711
0.00172764
0.00168885
0.00165028
0.00161199
0.00157443
0.00153819
0.00150395
0.00147235
0.00144396
0.00141928
0.0013987
0.00138255
0.00137123
0.00136568
0.00136398
0.00136734
0.00137719
0.001393
0.00141524
0.00144443
0.00148124
0.00152654
0.00158145
0.00164738
0.00172618
0.0018202
0.00193242
0.00206664
0.00222767
0.00242149
0.00265542
0.00293823
0.00327998
0.00369157
0.00418365
0.00476476
0.00543848
0.00619965
0.00703026
0.00789602
0.00874587
0.00951939
0.0102
0.010726
0.0112618
0.0121228
0.0135845
0.0166482
0.0222833
0.0298941
0.0333395
0.0317879
0.0213287
0.0101077
0.00775435
0.0164208
0.00846148
0.00765821
0.00775914
0.0079334
0.00796331
0.00778118
0.00737218
0.00674475
0.00597963
0.00517228
0.00441251
0.00376134
0.00324006
0.00283971
0.0025381
0.00231242
0.00214389
0.00201786
0.00192276
0.00184932
0.00179019
0.0017398
0.00169417
0.00165072
0.00160809
0.00156572
0.0015237
0.00148243
0.00144254
0.00140469
0.0013695
0.00133751
0.00130916
0.00128477
0.00126462
0.00124889
0.00123779
0.00123228
0.0012305
0.00123314
0.00124184
0.00125598
0.00127594
0.00130214
0.00133516
0.00137575
0.00142487
0.00148376
0.00155405
0.00163779
0.00173767
0.00185714
0.00200062
0.00217375
0.0023837
0.00263932
0.00295137
0.00333234
0.00379583
0.00435514
0.00502066
0.00579592
0.00667236
0.00762373
0.00860202
0.00953832
0.0103732
0.0110253
0.0115218
0.0120746
0.0131213
0.015151
0.0195736
0.0270875
0.0335208
0.0348087
0.0263641
0.0127356
0.00892245
0.0171759
0.00889636
0.00796996
0.00798345
0.00806606
0.00799466
0.00769754
0.00714451
0.00640987
0.00558189
0.00476051
0.00402609
0.00342164
0.00295192
0.00259838
0.00233567
0.00214101
0.00199645
0.00188814
0.00180523
0.00173922
0.00168364
0.00163389
0.00158694
0.0015411
0.00149568
0.00145068
0.00140649
0.0013637
0.00132296
0.00128488
0.00124997
0.00121861
0.00119109
0.00116763
0.00114835
0.00113333
0.00112267
0.00111727
0.00111546
0.0011175
0.00112513
0.00113774
0.00115561
0.00117912
0.00120877
0.00124521
0.00128927
0.00134203
0.00140491
0.00147971
0.00156879
0.0016752
0.00180295
0.00195718
0.0021446
0.00237377
0.00265545
0.00300286
0.00343147
0.00395817
0.00459929
0.00536692
0.00626335
0.00727387
0.00835915
0.00945017
0.0104515
0.0113089
0.011899
0.0123448
0.0130036
0.0144135
0.0175357
0.0239322
0.0327079
0.0363071
0.0316412
0.016067
0.0104514
0.0177559
0.00926573
0.00820158
0.00813272
0.00813599
0.00796613
0.00754657
0.00688662
0.00607173
0.00520611
0.00438923
0.00368903
0.00313162
0.00270878
0.00239567
0.00216555
0.00199619
0.00187052
0.00177548
0.00170103
0.00163955
0.00158551
0.00153526
0.00148667
0.00143876
0.00139138
0.00134485
0.00129972
0.00125662
0.00121615
0.00117878
0.00114487
0.00111469
0.00108838
0.00106603
0.0010477
0.0010334
0.00102317
0.00101777
0.00101586
0.00101724
0.00102379
0.00103492
0.00105084
0.0010719
0.00109853
0.0011313
0.00117095
0.00121841
0.00127492
0.00134205
0.00142185
0.00151701
0.00163107
0.00176865
0.00193585
0.00214063
0.00239334
0.00270717
0.00309839
0.0035862
0.00419144
0.00493374
0.00582627
0.00686791
0.00803358
0.00926471
0.0104649
0.011523
0.0122978
0.0127757
0.0131831
0.0141388
0.0162432
0.0212863
0.0304272
0.036876
0.0364215
0.0202078
0.0123546
0.0181572
0.00956979
0.00836896
0.00820981
0.00813242
0.00788434
0.00735842
0.00661262
0.00574144
0.00485825
0.00405847
0.00339665
0.00288412
0.0025029
0.00222432
0.0020213
0.00187237
0.00176138
0.0016761
0.00160734
0.00154842
0.00149478
0.00144365
0.00139363
0.0013443
0.00129587
0.00124881
0.00120374
0.00116122
0.00112172
0.00108558
0.00105303
0.0010242
0.000999144
0.000977876
0.000960386
0.000946649
0.00093667
0.000931088
0.000928989
0.000929613
0.000935035
0.000944701
0.000958785
0.000977583
0.00100149
0.00103102
0.00106681
0.00110969
0.00116074
0.00122133
0.00129325
0.00137884
0.00148121
0.00160443
0.00175398
0.00193709
0.00216338
0.0024455
0.00279968
0.00324618
0.00380881
0.00451306
0.00538176
0.00642741
0.0076411
0.0089794
0.010353
0.011625
0.0126687
0.0132918
0.0136284
0.014116
0.015623
0.0193085
0.0272733
0.0370086
0.0396597
0.0254317
0.0144564
0.0183895
0.00980913
0.00847215
0.00822399
0.00808949
0.00774835
0.00714376
0.00633356
0.00542647
0.00454099
0.00376625
0.00314377
0.00267261
0.00232779
0.00207848
0.00189783
0.00176529
0.00166558
0.00158736
0.00152235
0.00146479
0.00141104
0.00135908
0.0013081
0.00125807
0.0012094
0.00116263
0.00111831
0.0010769
0.00103874
0.00100405
0.000972922
0.000945402
0.000921476
0.000901106
0.000884254
0.000870879
0.000860965
0.000855
0.000852557
0.000852426
0.000856645
0.000864872
0.000877207
0.000893916
0.00091536
0.000941996
0.000974404
0.00101332
0.00105969
0.00111471
0.00117994
0.00125745
0.00134991
0.00146093
0.00159534
0.00175961
0.00196252
0.00221583
0.00253517
0.00294081
0.00345809
0.00411657
0.00494698
0.00597459
0.00720796
0.00862353
0.0101488
0.0116507
0.0129688
0.0138152
0.0142221
0.0145151
0.0154109
0.0179586
0.0245082
0.0359095
0.0414582
0.0314916
0.0168072
0.0184248
0.00998507
0.00852367
0.00819949
0.00799253
0.00757936
0.00691296
0.0060576
0.00513141
0.00425482
0.00350953
0.0029253
0.00249145
0.00217814
0.00195348
0.00179123
0.00167174
0.00158064
0.00150749
0.00144492
0.00138808
0.00133409
0.00128159
0.00123019
0.00118012
0.00113185
0.00108591
0.00104275
0.00100272
0.000966031
0.000932774
0.000902974
0.000876602
0.000853603
0.000833915
0.000817485
0.000804277
0.000794275
0.000787703
0.000784656
0.000783999
0.000786948
0.000793768
0.000804449
0.000819228
0.000838433
0.000862484
0.000891908
0.000927364
0.00096969
0.00101995
0.00107952
0.00115018
0.00123429
0.001335
0.00145655
0.00160469
0.00178729
0.0020151
0.00230274
0.00266983
0.00314196
0.003751
0.00453344
0.00552527
0.00675163
0.00821031
0.00985108
0.0115564
0.0131368
0.0143149
0.0148509
0.015068
0.0154653
0.0172865
0.0224765
0.033486
0.0422138
0.0377489
0.0192453
0.0183528
0.0101065
0.00852314
0.00813217
0.00785456
0.00738599
0.00667427
0.00579052
0.00485873
0.00399879
0.00328485
0.00273658
0.00233585
0.0020496
0.00184564
0.00169845
0.00158932
0.00150478
0.00143529
0.00137435
0.00131792
0.00126381
0.00121113
0.00115981
0.00111019
0.00106276
0.00101798
0.000976182
0.000937596
0.000902325
0.000870383
0.000841731
0.000816299
0.000794009
0.000774791
0.000758591
0.000745378
0.000735145
0.000727916
0.00072417
0.000722991
0.000724708
0.000730176
0.000739308
0.000752305
0.000769473
0.0007912
0.000817969
0.000850383
0.000889193
0.000935351
0.000990073
0.00105493
0.00113199
0.00122401
0.00133469
0.00146913
0.00163431
0.00183993
0.00209942
0.00243126
0.00286045
0.00341964
0.00414901
0.00509301
0.00629166
0.00776437
0.0094862
0.0113603
0.0131959
0.0147648
0.0155329
0.0158016
0.0159594
0.0170172
0.0208055
0.0308113
0.0424032
0.0432519
0.0214585
0.0181718
0.0101919
0.00849892
0.00802203
0.00768836
0.00717634
0.0064341
0.00553621
0.00460935
0.00377118
0.00308874
0.00257351
0.00220184
0.00193871
0.00175205
0.00161717
0.00151627
0.00143674
0.00136992
0.00131014
0.00125405
0.00120001
0.00114751
0.00109665
0.00104784
0.00100151
0.000958019
0.000917616
0.000880414
0.000846434
0.000815631
0.000787925
0.000763227
0.000741452
0.000722528
0.000706407
0.000693064
0.000682496
0.000674718
0.000670175
0.000668448
0.00066904
0.000673231
0.000680921
0.000692282
0.000707594
0.00072722
0.000751611
0.00078132
0.000817039
0.000859626
0.000910171
0.000970072
0.00104115
0.00112582
0.00122735
0.00135019
0.00150055
0.00168707
0.00192194
0.00222227
0.00261183
0.00312293
0.00379753
0.00468602
0.00584085
0.0073019
0.00907204
0.0110861
0.0131818
0.0150881
0.0162066
0.0165592
0.0165949
0.016996
0.0197375
0.0280215
0.0422771
0.0472902
0.0232084
0.0178874
0.0102456
0.00844088
0.00788582
0.00750198
0.00695724
0.00619732
0.00529708
0.00438314
0.00356984
0.00291793
0.00243252
0.00208613
0.00184266
0.00167043
0.0015456
0.00145123
0.00137558
0.00131078
0.00125188
0.00119617
0.00114243
0.00109038
0.00104027
0.000992461
0.000947342
0.000905174
0.000866099
0.000830154
0.000797297
0.000767446
0.0007405
0.000716361
0.000694946
0.000676191
0.000660056
0.000646526
0.000635608
0.000627332
0.000621978
0.000619615
0.000619332
0.000622311
0.000628674
0.00063854
0.000652162
0.000669882
0.000692122
0.000719404
0.000752368
0.000791805
0.000838707
0.000894329
0.000960294
0.00103874
0.00113252
0.00124558
0.00138338
0.0015536
0.00176719
0.00203977
0.00239357
0.00285971
0.00348043
0.00430974
0.00540972
0.00683829
0.00862471
0.0107335
0.0130265
0.0152471
0.0168397
0.0174173
0.0174545
0.0174804
0.0192314
0.0259441
0.0407432
0.049573
0.0241475
0.0175039
0.0102658
0.00835455
0.00772967
0.00730224
0.00673426
0.00596748
0.00507442
0.00417933
0.00339252
0.00276945
0.0023106
0.00198604
0.0017592
0.00159898
0.00148235
0.0013932
0.00132057
0.00125735
0.00119923
0.00114397
0.00109071
0.00103933
0.000990117
0.000943416
0.000899522
0.000858612
0.00082075
0.000785909
0.000754008
0.00072494
0.000698598
0.000674883
0.000653722
0.000635059
0.000618867
0.00060514
0.000593896
0.000585177
0.000579057
0.000575957
0.000575091
0.000576956
0.000582115
0.000590623
0.00060271
0.000618694
0.000638979
0.000664058
0.000694536
0.000731155
0.000774831
0.000826712
0.000888261
0.00096138
0.00104861
0.0011534
0.00128057
0.00143694
0.00163228
0.00188073
0.00220277
0.00262781
0.00319721
0.00396661
0.00500494
0.00638564
0.0081643
0.0103398
0.0128046
0.0153034
0.0173861
0.0182676
0.0183504
0.0181232
0.0190614
0.0244551
0.0387245
0.0505764
0.0245199
0.0170472
0.0102627
0.00825195
0.00756027
0.00709498
0.00651182
0.00574708
0.0048687
0.00399671
0.00323694
0.00264065
0.00220522
0.00189935
0.00168652
0.00153624
0.00142631
0.00134135
0.00127114
0.0012092
0.0011518
0.00109709
0.00104445
0.000993869
0.000945636
0.000900052
0.000857332
0.00081758
0.000780795
0.000746908
0.000715811
0.000687388
0.000661531
0.000638149
0.000617177
0.000598573
0.000582317
0.000568412
0.000556876
0.000547746
0.000541074
0.000537261
0.000535891
0.0005368
0.000540887
0.000548177
0.000558873
0.000573278
0.000591774
0.000614836
0.000643044
0.000677104
0.000717881
0.000766443
0.000824127
0.000892653
0.000974283
0.00107208
0.00119028
0.00133493
0.00151471
0.00174233
0.00203649
0.00242459
0.00294631
0.00365722
0.00463044
0.00595159
0.00769999
0.00991019
0.0125157
0.0152906
0.017824
0.0191397
0.0193826
0.0189593
0.0191235
0.0232197
0.0366248
0.0508227
0.0246027
0.0165344
0.0102501
0.00814018
0.00738359
0.00688512
0.00629337
0.00553778
0.00467985
0.00383385
0.00310097
0.00252923
0.00211424
0.00182426
0.00162313
0.00148108
0.0013766
0.00129502
0.00122677
0.00116594
0.00110924
0.00105515
0.00100322
0.000953499
0.000906264
0.000861756
0.000820125
0.000781413
0.000745572
0.000712504
0.000682088
0.000654205
0.000628751
0.000605647
0.000584838
0.000566292
0.000549996
0.000535957
0.000524196
0.000514745
0.00050765
0.000503216
0.000501399
0.000501535
0.000504685
0.000510892
0.000520339
0.000533307
0.000550164
0.000571369
0.000597484
0.000629193
0.000667326
0.000712894
0.000767147
0.000831661
0.000908475
0.00100032
0.00111095
0.00124569
0.00141227
0.00162205
0.00189198
0.0022473
0.0027255
0.00338086
0.0042884
0.00554264
0.00724352
0.00945999
0.0121686
0.0151819
0.0181052
0.0199542
0.0204636
0.0199341
0.0196655
0.0224212
0.034465
0.0503622
0.0245421
0.0159769
0.0102242
0.00802359
0.00720453
0.0066767
0.00608154
0.00534058
0.00450737
0.00368926
0.00298264
0.00243319
0.00203588
0.00175926
0.00156784
0.00143253
0.0013325
0.00125367
0.00118704
0.00112718
0.00107118
0.00101776
0.000966577
0.000917737
0.00087147
0.000827971
0.00078733
0.000749541
0.000714525
0.000682164
0.000652334
0.000624917
0.000599818
0.000576969
0.000556323
0.000537857
0.000521566
0.000507459
0.000495555
0.000485887
0.000478497
0.000473552
0.000471256
0.000470887
0.000473219
0.000478475
0.000486808
0.000498477
0.000513834
0.000533325
0.000557499
0.000587026
0.000622716
0.000665547
0.000716708
0.000777669
0.000850298
0.000937048
0.00104126
0.00116766
0.00132308
0.00151767
0.00176669
0.00209323
0.00253227
0.00313593
0.00397919
0.00516241
0.0068025
0.00900097
0.0117801
0.0149965
0.018276
0.0207037
0.0215234
0.0210811
0.020343
0.0220325
0.0324539
0.0491067
0.0241682
0.0154011
0.0101974
0.00790779
0.00702741
0.00647299
0.00587829
0.00515598
0.00435054
0.00356141
0.00288016
0.00235081
0.00196866
0.00170315
0.00151967
0.00138984
0.0012934
0.00121681
0.00115154
0.00109256
0.00103725
0.000984521
0.000934109
0.000886128
0.000840778
0.000798204
0.000758453
0.000721482
0.00068719
0.000655451
0.000626138
0.00059914
0.000574373
0.000551776
0.000531313
0.000512968
0.000496737
0.000482632
0.00047067
0.000460879
0.000453294
0.000447971
0.000445246
0.000444524
0.000446181
0.000450621
0.000457972
0.000468474
0.000482464
0.000500373
0.000522743
0.000550235
0.000583651
0.00062395
0.000672285
0.000730058
0.000799007
0.000881369
0.000980141
0.00109951
0.00124554
0.00142726
0.00165836
0.00195985
0.00236404
0.00292033