/*--------------------------------*- C++ -*----------------------------------*\
  =========                 |
  \\      /  F ield         | OpenFOAM: The Open Source CFD Toolbox
   \\    /   O peration     | Website:  https://openfoam.org
    \\  /    A nd           | Version:  13
     \\/     M anipulation  |
\*---------------------------------------------------------------------------*/
FoamFile
{
    format      ascii;
    class       volScalarField;
    location    "3.1";
    object      k;
}
// * * * * * * * * * * * * * * * * * * * * * * * * * * * * * * * * * * * * * //

dimensions      [0 2 -2 0 0 0 0];

internalField   nonuniform List<scalar> 
6400
(
4.3198e-07
2.18693e-06
5.09477e-06
8.14193e-06
1.06627e-05
1.24612e-05
1.36672e-05
1.45615e-05
1.54432e-05
1.65675e-05
1.81671e-05
2.03506e-05
2.32246e-05
2.68294e-05
3.11402e-05
3.60761e-05
4.15344e-05
4.73659e-05
5.34005e-05
5.95058e-05
6.57107e-05
7.2345e-05
7.99818e-05
8.90806e-05
9.97274e-05
0.000111392
0.000123188
0.000135085
0.000147267
0.000159998
0.000173388
0.000187222
0.000200794
0.000214141
0.000227161
0.000240158
0.000253229
0.000266616
0.000280459
0.000294939
0.000310171
0.000326264
0.000343367
0.000361602
0.000380927
0.000401382
0.000423165
0.000447058
0.00047458
0.000509445
0.000543788
0.000579048
0.000613508
0.00064674
0.000677537
0.000704706
0.000726862
0.000741014
0.000747729
0.00074964
0.000739129
0.000716107
0.000680855
0.000634277
0.000577399
0.000512514
0.000442318
0.000370954
0.00030167
0.0002363
0.00017773
0.000131345
9.32215e-05
6.32492e-05
4.10941e-05
2.5566e-05
1.51751e-05
8.39925e-06
3.79023e-06
7.93921e-07
2.10229e-06
1.76411e-05
4.12983e-05
6.44677e-05
8.31507e-05
9.67033e-05
0.000106327
0.000113875
0.000121259
0.000130169
0.000142
0.000157983
0.000178767
0.000204437
0.000234624
0.000268716
0.000305979
0.000345526
0.000386414
0.000427973
0.000470467
0.000515674
0.000566713
0.000625906
0.000693222
0.00076535
0.000837526
0.000908902
0.000979347
0.00104936
0.00111868
0.00118628
0.00124892
0.00130711
0.0013604
0.00141048
0.00145788
0.00150389
0.00154925
0.00159492
0.00164155
0.00168973
0.00174009
0.00179306
0.00184849
0.00190618
0.00196582
0.0020274
0.00208922
0.00214979
0.00221485
0.00228082
0.0023479
0.00241323
0.00247517
0.00253066
0.00257687
0.00260513
0.00261583
0.00261438
0.00258621
0.00252746
0.00243654
0.00231391
0.00216053
0.00197878
0.00177701
0.0015642
0.0013458
0.00112992
0.000923963
0.000728268
0.00055277
0.000403055
0.000281725
0.000187539
0.000117901
6.83802e-05
3.15177e-05
4.12528e-06
4.60856e-06
3.86486e-05
8.68331e-05
0.00012883
0.000160487
0.000183425
0.000200914
0.0002164
0.000233104
0.000253871
0.00028113
0.000316647
0.000361372
0.000415386
0.000478092
0.00054853
0.000625558
0.0007078
0.000793722
0.000881802
0.000970707
0.00105923
0.00114651
0.00123062
0.00130819
0.00137623
0.00143379
0.00148042
0.00151811
0.00155038
0.00157994
0.00160902
0.00163857
0.0016693
0.00170012
0.00173284
0.00176756
0.00180514
0.00184586
0.00189024
0.00193863
0.00199095
0.00204748
0.00210809
0.0021729
0.00224196
0.00231534
0.00239264
0.00247338
0.0025579
0.00264595
0.00273597
0.00282694
0.00291681
0.00300345
0.00308391
0.00315477
0.003212
0.00324708
0.00325975
0.00325205
0.00320898
0.00312758
0.00300654
0.00284508
0.00264287
0.00240956
0.00215557
0.00188771
0.00161684
0.00135315
0.00110469
0.000878182
0.000678681
0.000508754
0.000368346
0.000255002
0.000162434
7.95472e-05
1.04974e-05
7.86844e-06
6.43087e-05
0.000136212
0.000193191
0.000234959
0.000266324
0.000292432
0.000318046
0.000347466
0.000384449
0.000432034
0.000492154
0.000565399
0.000651036
0.000747335
0.000851935
0.000961904
0.00107384
0.00118401
0.00128853
0.00138402
0.00146747
0.00153679
0.00159116
0.00162961
0.0016532
0.00166596
0.00167353
0.00168176
0.00169194
0.00170409
0.00171903
0.00173568
0.00175603
0.00178003
0.00180791
0.0018397
0.00187565
0.00191579
0.00196002
0.00200858
0.0020614
0.00211862
0.00218023
0.00224628
0.00231663
0.00239099
0.00246981
0.00255316
0.00264074
0.00273206
0.00282618
0.00292205
0.00301809
0.0031123
0.00320196
0.00328374
0.00335373
0.00340733
0.00343406
0.00344079
0.00341801
0.00336245
0.00326822
0.0031306
0.00294638
0.00271751
0.00245691
0.00217439
0.00188199
0.0015921
0.00131591
0.00106239
0.000837393
0.00064383
0.000481752
0.000347802
0.000233817
0.000122101
1.66885e-05
1.21988e-05
9.66573e-05
0.000192647
0.00026401
0.00031596
0.000356549
0.000392807
0.000430883
0.000476175
0.000533178
0.000605046
0.000693068
0.000796427
0.00091241
0.00103695
0.00116509
0.0012913
0.00140974
0.00151485
0.00160162
0.00166832
0.00171205
0.00173213
0.00173781
0.00173271
0.00172171
0.00171261
0.00170635
0.00170378
0.00170348
0.00170891
0.00171855
0.00173232
0.00174992
0.00177124
0.0017962
0.00182476
0.00185677
0.00189199
0.00193046
0.00197216
0.00201709
0.00206533
0.00211699
0.00217229
0.00223154
0.00229523
0.00236327
0.00243581
0.00251282
0.00259425
0.00267979
0.00276894
0.00286092
0.00295457
0.00304822
0.0031393
0.0032247
0.00330054
0.00336171
0.00339682
0.00340802
0.0033848
0.00332251
0.00321693
0.00307684
0.00288073
0.0026378
0.00236004
0.00206056
0.00175439
0.00145664
0.00118028
0.00093423
0.00072288
0.000546421
0.000400842
0.00027603
0.00014958
2.06839e-05
1.80151e-05
0.000137729
0.000259232
0.000345674
0.000408824
0.000459979
0.000508136
0.000560906
0.000624648
0.00070407
0.000801544
0.00091657
0.00104576
0.00118339
0.00132232
0.00145482
0.00157323
0.00167057
0.00174336
0.00178305
0.00179687
0.00179468
0.00177262
0.00175051
0.00172999
0.00171212
0.00169735
0.00168668
0.00168097
0.00167889
0.00168041
0.00168628
0.00169523
0.00170732
0.00172214
0.00173967
0.00175961
0.00178164
0.00180573
0.00183192
0.00186025
0.00189084
0.00192383
0.00195946
0.00199798
0.00203971
0.00208492
0.00213382
0.00218689
0.00224454
0.00230724
0.00237537
0.0024492
0.00252872
0.00261369
0.00270351
0.00279721
0.00289275
0.00298777
0.00307801
0.0031583
0.00322073
0.00325026
0.00325503
0.00321184
0.0031194
0.00298374
0.00277981
0.00252401
0.00222837
0.00191021
0.00158942
0.00128508
0.00101193
0.000778163
0.000585154
0.000428253
0.000295532
0.000162189
2.22013e-05
2.57238e-05
0.000188885
0.000337746
0.000440345
0.000515867
0.00057886
0.000640351
0.000709295
0.000792537
0.000894127
0.00101454
0.00115038
0.00129489
0.00143909
0.00157315
0.0016878
0.00177601
0.00182679
0.001845
0.00184176
0.00181487
0.00178648
0.00175405
0.00172382
0.0016954
0.00166952
0.00164934
0.00163454
0.00162447
0.00161867
0.00161619
0.00161584
0.00161875
0.00162419
0.00163177
0.00164106
0.00165189
0.00166407
0.00167764
0.00169255
0.00170876
0.0017264
0.0017456
0.00176654
0.00178942
0.00181451
0.00184212
0.00187266
0.00190667
0.00194477
0.00198762
0.00203601
0.00209093
0.00215335
0.00222411
0.00230393
0.00239332
0.00249167
0.00259734
0.0027085
0.00282193
0.00293178
0.00302986
0.00309955
0.00312811
0.00311907
0.00304765
0.00291632
0.00270382
0.00242759
0.00210493
0.00175997
0.00141942
0.00110704
0.000838647
0.000619598
0.00044539
0.000302407
0.000164422
2.19877e-05
3.56829e-05
0.000250809
0.000428827
0.000548698
0.000637549
0.000713174
0.000788574
0.000873687
0.000975103
0.0010952
0.00123156
0.00137734
0.00152243
0.00165537
0.00176527
0.00184162
0.00187621
0.00188247
0.00185981
0.00182817
0.00178688
0.00174287
0.00169713
0.00165826
0.00162465
0.00159828
0.00157737
0.00156113
0.00154877
0.00153969
0.00153329
0.00152973
0.0015283
0.0015281
0.00152989
0.001533
0.00153737
0.00154276
0.00154915
0.00155656
0.00156496
0.00157444
0.00158507
0.00159698
0.00161036
0.00162543
0.00164245
0.00166175
0.00168374
0.00170895
0.00173793
0.00177138
0.00181013
0.00185516
0.0019078
0.00196963
0.00204248
0.0021287
0.00222913
0.0023419
0.00246813
0.00260395
0.00274313
0.00287791
0.00299303
0.00305286
0.00306699
0.00301956
0.00289231
0.00266149
0.00235345
0.00199307
0.00161371
0.00125029
0.000930946
0.000670311
0.000467318
0.000307582
0.000163367
2.12934e-05
4.81433e-05
0.000323399
0.000532209
0.000670251
0.000772882
0.000861105
0.000949662
0.00104894
0.00116444
0.00129604
0.00143798
0.00158012
0.00171003
0.0018156
0.00188091
0.00190521
0.00190232
0.00187263
0.00183011
0.00177563
0.00171598
0.00166198
0.00161619
0.00157779
0.0015457
0.0015198
0.00149854
0.00148133
0.00146751
0.00145667
0.00144843
0.00144256
0.00143868
0.00143679
0.00143618
0.00143674
0.00143886
0.00144202
0.00144622
0.00145139
0.00145751
0.00146461
0.00147275
0.00148202
0.00149258
0.00150463
0.00151841
0.00153418
0.00155224
0.00157288
0.00159642
0.00162318
0.00165349
0.00168774
0.00172655
0.00177069
0.00182144
0.001881
0.00195287
0.0020436
0.00215475
0.00228856
0.00243814
0.00260361
0.00277222
0.00292797
0.00302385
0.00305543
0.00302771
0.00289736
0.00263704
0.00228596
0.00187943
0.00146233
0.0010782
0.000757239
0.000508579
0.000320207
0.000163874
2.11609e-05
6.32466e-05
0.000405554
0.000646704
0.000803469
0.000919638
0.00101933
0.00111871
0.00122802
0.00135104
0.00148472
0.00162016
0.00174488
0.00184579
0.00190406
0.00192307
0.00191187
0.0018802
0.00182554
0.00175628
0.001688
0.00162748
0.00157556
0.0015321
0.00149574
0.00146544
0.00144047
0.00141977
0.00140292
0.00138945
0.00137903
0.00137136
0.00136612
0.00136348
0.00136253
0.00136254
0.00136463
0.00136793
0.00137232
0.00137769
0.00138396
0.0013911
0.00139913
0.00140808
0.00141806
0.0014292
0.00144165
0.00145561
0.00147129
0.0014889
0.00150864
0.00153071
0.00155531
0.00158258
0.00161259
0.00164551
0.00168155
0.00172101
0.00176484
0.00181467
0.0018731
0.00194428
0.00203569
0.00216191
0.0023206
0.00250337
0.00270384
0.00289758
0.00302747
0.00307377
0.00305603
0.00291048
0.00260822
0.00220385
0.00174662
0.00129476
0.000898135
0.000584018
0.000349678
0.000169894
2.18487e-05
8.17502e-05
0.00049489
0.000770441
0.00094592
0.00107454
0.0011834
0.00128972
0.00140318
0.00152548
0.00165083
0.00176802
0.00186378
0.00191762
0.0019337
0.00191913
0.00188213
0.00181693
0.00173805
0.00166337
0.00159603
0.0015387
0.00149045
0.00145018
0.00141654
0.00138862
0.0013657
0.00134712
0.00133252
0.0013215
0.00131373
0.0013092
0.00130724
0.00130685
0.00130842
0.0013116
0.00131626
0.0013219
0.00132846
0.00133578
0.00134382
0.00135256
0.00136203
0.0013723
0.00138349
0.00139572
0.00140916
0.00142399
0.00144038
0.00145854
0.00147863
0.00150084
0.00152532
0.0015522
0.00158162
0.00161338
0.00164725
0.0016829
0.00172039
0.00176019
0.00180298
0.00185126
0.00190936
0.00198446
0.00208757
0.00224074
0.00243802
0.0026639
0.00289408
0.00305244
0.0031087
0.00308818
0.00291014
0.00255177
0.00208542
0.0015792
0.00110264
0.000707011
0.000408994
0.000188488
2.42189e-05
0.000103442
0.000590475
0.000901094
0.00109447
0.00123359
0.00134825
0.00145646
0.00156707
0.00167986
0.001787
0.00187631
0.00192712
0.00194183
0.00192608
0.00188424
0.00181112
0.0017258
0.00164335
0.00157006
0.001507
0.00145428
0.0014103
0.0013738
0.00134368
0.00131921
0.00129978
0.00128488
0.00127412
0.00126721
0.00126392
0.0012629
0.00126366
0.00126667
0.00127117
0.00127687
0.00128349
0.00129077
0.00129863
0.00130699
0.00131587
0.00132529
0.00133535
0.00134616
0.00135789
0.00137072
0.00138483
0.00140045
0.00141779
0.00143705
0.00145842
0.00148206
0.00150807
0.00153645
0.00156714
0.00159996
0.00163469
0.00167118
0.00170845
0.00174604
0.0017833
0.00182133
0.00186247
0.00191071
0.00197296
0.0020619
0.00219674
0.0024006
0.00264925
0.00291246
0.00308923
0.00314751
0.00310783
0.00287443
0.00244356
0.00191256
0.00136632
0.000882757
0.000505101
0.000227775
2.96024e-05
0.000127578
0.000691065
0.00103577
0.00124547
0.00139244
0.00150879
0.00161316
0.00171367
0.00180872
0.00188955
0.00193705
0.00195083
0.00193382
0.00188912
0.0018105
0.00172023
0.00163077
0.00155049
0.00148186
0.00142429
0.00137669
0.00133744
0.00130541
0.00127974
0.00125976
0.00124489
0.00123458
0.00122884
0.00122645
0.00122602
0.00122796
0.00123169
0.00123685
0.0012429
0.00124959
0.00125673
0.00126419
0.00127195
0.00128004
0.00128853
0.00129754
0.00130722
0.00131775
0.00132934
0.0013422
0.00135657
0.0013727
0.00139085
0.00141125
0.00143414
0.00145971
0.00148807
0.00151925
0.00155314
0.00158944
0.00162766
0.00166712
0.00170702
0.00174636
0.00178321
0.00181852
0.0018535
0.00189093
0.00193277
0.00198566
0.00206372
0.00218635
0.0023887
0.00265837
0.00294961
0.00312931
0.00317725
0.00309938
0.00277744
0.00226446
0.00167203
0.00110531
0.000638772
0.000288136
3.85449e-05
0.000153505
0.000794332
0.00117115
0.00139506
0.00154675
0.00166034
0.00175508
0.00183876
0.00190929
0.00195196
0.0019644
0.00194529
0.00189915
0.00181759
0.00172271
0.00162677
0.0015391
0.00146392
0.00140123
0.00134955
0.0013074
0.00127336
0.00124646
0.00122588
0.00121094
0.00120091
0.00119589
0.00119403
0.00119387
0.00119619
0.00120008
0.00120503
0.00121066
0.00121663
0.00122279
0.00122907
0.00123546
0.00124205
0.00124893
0.00125626
0.00126421
0.00127298
0.00128278
0.00129384
0.0013064
0.00132072
0.00133706
0.00135571
0.00137695
0.00140107
0.00142832
0.00145892
0.00149298
0.00153052
0.0015713
0.00161487
0.00166041
0.00170678
0.00175251
0.00179819
0.00183782
0.00186957
0.00189787
0.00192758
0.00196516
0.00201339
0.00208392
0.00220024
0.00240136
0.00268986
0.0030029
0.00316263
0.00318766
0.0030411
0.00260133
0.00199734
0.00136171
0.000803964
0.000366864
5.06073e-05
0.000180438
0.00089772
0.00130388
0.00153951
0.00169258
0.00179898
0.00187873
0.00193988
0.00197542
0.00198494
0.00196351
0.00191732
0.0018344
0.00173503
0.00163256
0.00153711
0.00145437
0.00138552
0.00132917
0.00128354
0.00124711
0.00121862
0.00119712
0.00118174
0.00117167
0.0011667
0.00116488
0.0011647
0.00116666
0.00117009
0.00117428
0.00117884
0.00118353
0.00118819
0.00119279
0.00119739
0.00120209
0.00120703
0.00121239
0.00121835
0.00122512
0.0012329
0.00124191
0.00125237
0.00126452
0.00127861
0.00129489
0.00131368
0.00133527
0.00136
0.00138822
0.00142023
0.00145632
0.00149666
0.00154125
0.00158984
0.0016418
0.00169604
0.00175095
0.00180434
0.00185615
0.0019021
0.00193353
0.00195545
0.00197464
0.00200416
0.00205041
0.00211535
0.00223005
0.00243757
0.00274756
0.0030557
0.00318916
0.0031672
0.00289033
0.00232009
0.00163863
0.000992547
0.000459314
6.50909e-05
0.000207467
0.000998624
0.00143078
0.00167546
0.0018267
0.00192183
0.00198212
0.00201175
0.00201769
0.00199425
0.00194457
0.00186201
0.00175896
0.00164969
0.0015458
0.00145441
0.00137803
0.00131586
0.00126593
0.00122638
0.00119575
0.00117282
0.00115651
0.00114579
0.0011403
0.00113809
0.00113763
0.00113873
0.00114121
0.00114425
0.00114743
0.00115053
0.00115345
0.0011562
0.00115887
0.0011616
0.00116455
0.00116794
0.00117193
0.00117674
0.00118255
0.00118956
0.00119796
0.00120794
0.00121972
0.00123351
0.00124956
0.00126816
0.00128963
0.00131432
0.00134265
0.00137503
0.00141188
0.00145359
0.00150041
0.00155241
0.00160932
0.00167039
0.00173425
0.00179876
0.00186098
0.00191953
0.00197129
0.00200342
0.00201916
0.00203018
0.00204875
0.00209077
0.0021547
0.00227273
0.00249388
0.00282587
0.0031019
0.00319359
0.00307886
0.00261782
0.00192482
0.00119829
0.000560928
8.11151e-05
0.000233872
0.00109478
0.00154918
0.00180035
0.00194715
0.00202647
0.00205993
0.00206453
0.0020393
0.00198423
0.00190253
0.0017958
0.00167989
0.00156677
0.00146543
0.00137991
0.00131034
0.00125485
0.00121123
0.00117763
0.00115258
0.00113474
0.00112291
0.00111626
0.00111327
0.00111231
0.00111228
0.00111352
0.00111522
0.0011169
0.00111835
0.00111952
0.00112045
0.00112127
0.00112214
0.00112324
0.00112479
0.001127
0.00113004
0.00113409
0.00113932
0.00114588
0.00115392
0.00116362
0.00117513
0.00118864
0.00120437
0.00122258
0.00124358
0.00126774
0.00129548
0.0013273
0.00136375
0.00140536
0.00145266
0.00150605
0.00156567
0.00163128
0.001702
0.00177618
0.00185112
0.00192302
0.00198886
0.00204615
0.00207459
0.0020864
0.00209083
0.00209944
0.00213425
0.0022006
0.00232749
0.00257552
0.00292757
0.00312735
0.00315042
0.00287118
0.00220902
0.00141664
0.000667869
9.77583e-05
0.000258893
0.00118425
0.00165694
0.00191246
0.00204983
0.00210865
0.00212069
0.00209658
0.00203847
0.00195693
0.00184733
0.00172476
0.00160192
0.0014892
0.00139266
0.00131375
0.001251
0.00120197
0.00116438
0.00113637
0.00111636
0.00110288
0.00109455
0.00109028
0.00108833
0.00108757
0.00108738
0.00108764
0.00108777
0.00108771
0.00108724
0.00108651
0.00108565
0.00108485
0.00108444
0.00108435
0.00108494
0.00108643
0.00108896
0.00109265
0.00109763
0.00110402
0.00111194
0.00112152
0.00113288
0.00114616
0.00116157
0.00117931
0.00119967
0.00122301
0.00124976
0.00128042
0.00131561
0.00135601
0.00140232
0.00145524
0.00151532
0.00158284
0.00165755
0.00173847
0.00182358
0.00190957
0.00199167
0.00206547
0.0021241
0.00214808
0.00215443
0.00215257
0.00215078
0.00218107
0.00225176
0.00239648
0.00268601
0.00301684
0.00314898
0.00302923
0.00247529
0.00164273
0.000776132
0.000115041
0.000281992
0.00126512
0.00175223
0.00200865
0.00213311
0.00217334
0.00216471
0.00211153
0.00202639
0.00191467
0.00178605
0.00165318
0.00152789
0.00141829
0.0013277
0.00125553
0.00119935
0.00115642
0.00112442
0.00110139
0.00108561
0.00107545
0.00106942
0.00106615
0.00106427
0.00106299
0.00106187
0.00106068
0.00105914
0.00105726
0.00105507
0.00105276
0.00105053
0.00104859
0.00104725
0.00104667
0.00104663
0.0010478
0.00105013
0.00105374
0.0010587
0.0010651
0.00107304
0.0010826
0.00109387
0.00110699
0.00112209
0.00113938
0.00115909
0.00118154
0.00120715
0.0012364
0.00126993
0.00130845
0.00135282
0.00140393
0.00146267
0.00152977
0.00160564
0.00169006
0.00178182
0.00187843
0.00197573
0.00206778
0.00214859
0.0022047
0.00222262
0.00222431
0.00220941
0.00220066
0.00222975
0.00231023
0.00248814
0.0028213
0.00305584
0.00308743
0.00271213
0.00187429
0.000885642
0.000132648
0.00030287
0.00133581
0.00183382
0.00208658
0.00219781
0.00222345
0.00219085
0.00210962
0.0019993
0.00186511
0.00172254
0.00158386
0.00145928
0.0013544
0.00127018
0.00120458
0.00115456
0.00111724
0.00109019
0.00107135
0.00105882
0.00105089
0.00104602
0.0010429
0.00104049
0.00103822
0.0010358
0.00103306
0.00102992
0.00102651
0.00102297
0.00101953
0.00101639
0.00101377
0.00101191
0.00101103
0.00101083
0.00101186
0.00101418
0.00101782
0.00102284
0.00102931
0.00103728
0.00104684
0.00105805
0.00107102
0.00108586
0.00110274
0.00112186
0.00114351
0.00116804
0.00119591
0.00122773
0.0012642
0.00130621
0.00135478
0.00141102
0.00147604
0.00155079
0.00163579
0.0017308
0.00183431
0.00194311
0.00205189
0.00215296
0.00223965
0.002287
0.00229891
0.00229025
0.00225934
0.00224501
0.00228135
0.00237964
0.00261923
0.00295286
0.00308558
0.00289512
0.00210792
0.00100265
0.000151462
0.000320801
0.00139605
0.00190012
0.00214737
0.00224587
0.00225829
0.00220274
0.00209875
0.00196279
0.0018116
0.00165949
0.00151844
0.00139667
0.00129733
0.00121948
0.00116008
0.00111571
0.00108338
0.00106055
0.00104501
0.00103478
0.00102814
0.0010236
0.00102007
0.00101677
0.00101332
0.00100954
0.0010054
0.00100096
0.000996402
0.000991925
0.000987747
0.000984073
0.000981083
0.000978982
0.000977981
0.000977743
0.00097873
0.00098106
0.000984723
0.000989761
0.000996226
0.00100418
0.00101368
0.00102479
0.00103759
0.00105219
0.00106872
0.00108735
0.00110833
0.00113197
0.00115867
0.00118897
0.00122354
0.00126324
0.00130909
0.00136233
0.0014243
0.00149637
0.00157972
0.00167499
0.00178182
0.00189825
0.00202013
0.00214063
0.00225004
0.00233563
0.00237013
0.0023747
0.00234712
0.00230032
0.00228264
0.00233302
0.00247114
0.00278323
0.00299451
0.00298289
0.0023395
0.00114127
0.000174277
0.000335553
0.00144563
0.0019512
0.00219194
0.00227825
0.00227839
0.00220095
0.00207584
0.00192084
0.00175673
0.00159868
0.00145778
0.00134009
0.00124659
0.00117487
0.00112119
0.0010819
0.00105388
0.00103447
0.00102139
0.00101264
0.00100655
0.00100183
0.000997573
0.000993252
0.000988629
0.000983653
0.00097839
0.000972989
0.00096765
0.000962579
0.000957971
0.000954001
0.000950813
0.00094857
0.00094749
0.000947214
0.000948111
0.00095036
0.000953933
0.000958864
0.000965202
0.000973009
0.000982341
0.000993262
0.00100585
0.00102019
0.00103641
0.00105465
0.00107513
0.00109809
0.00112389
0.001153
0.001186
0.0012237
0.00126707
0.00131733
0.00137594
0.00144453
0.00152476
0.00161803
0.00172506
0.00184521
0.00197577
0.00211115
0.00224237
0.0023569
0.00243292
0.00245393
0.00244399
0.00238937
0.00233459
0.00232353
0.00239946
0.00261779
0.00292155
0.00300727
0.00256407
0.00131426
0.000204138
0.000346885
0.00148429
0.00198741
0.00222076
0.00229817
0.00228459
0.00219151
0.00204594
0.00187581
0.00170234
0.00154119
0.00140218
0.00128926
0.00120159
0.00113561
0.00108711
0.00105228
0.00102786
0.00101113
0.000999771
0.000991844
0.000985825
0.000980618
0.000975535
0.000970226
0.000964588
0.000958663
0.000952583
0.000946528
0.000940693
0.000935261
0.000930396
0.000926236
0.000922897
0.000920478
0.000919244
0.000918869
0.000919536
0.000921547
0.000924862
0.000929517
0.000935564
0.000943072
0.000952104
0.000962729
0.000975024
0.000989078
0.001005
0.00102292
0.00104301
0.0010655
0.00109068
0.00111894
0.00115079
0.00118694
0.00122826
0.00127592
0.00133136
0.00139631
0.00147271
0.00156256
0.00166749
0.00178817
0.00192347
0.00206948
0.00221862
0.00235916
0.00247333
0.00252633
0.00253505
0.00249756
0.00240867
0.00235865
0.00237291
0.00249509
0.00280426
0.00297241
0.0027545
0.00151949
0.000241314
0.000354721
0.00151241
0.00201008
0.00223581
0.0023055
0.00228045
0.0021718
0.00201128
0.00182953
0.00164971
0.0014876
0.00135162
0.00124377
0.00116169
0.00110099
0.00105712
0.0010261
0.00100462
0.000989918
0.000979695
0.000972135
0.000965893
0.000960078
0.000954192
0.000948033
0.000941592
0.000934974
0.000928336
0.000921856
0.000915705
0.000910033
0.000904968
0.000900616
0.000897067
0.0008944
0.000892843
0.00089226
0.00089253
0.000894116
0.000896988
0.000901189
0.000906774
0.000913825
0.000922418
0.00093263
0.000944545
0.000958255
0.000973864
0.000991496
0.0010113
0.00103347
0.00105826
0.00108598
0.00111709
0.00115215
0.00119196
0.00123756
0.00129029
0.00135187
0.00142437
0.00151013
0.00161149
0.00173024
0.00186682
0.00201916
0.00218144
0.00234301
0.00248792
0.00258788
0.00261744
0.0026036
0.00252355
0.00241324
0.00237412
0.00243697
0.00266819
0.00289352
0.00286167
0.00174118
0.000282376
0.000359258
0.00153062
0.00201998
0.00223777
0.00230241
0.00226797
0.00214572
0.00197362
0.00178337
0.00159966
0.00143817
0.00130589
0.00120314
0.0011263
0.00107039
0.00103058
0.00100279
0.000983656
0.000970425
0.000960898
0.000953407
0.0009468
0.000940376
0.000933793
0.000926957
0.000919924
0.000912825
0.000905815
0.000899051
0.000892668
0.000886784
0.000881494
0.000876883
0.000873025
0.000869997
0.000867913
0.000866918
0.000866725
0.000867685
0.000869938
0.000873516
0.000878483
0.000884932
0.000892954
0.000902639
0.000914081
0.00092738
0.000942643
0.00095999
0.000979561
0.00100152
0.00102609
0.00105353
0.00108421
0.00111862
0.00115742
0.00120153
0.00125216
0.00131091
0.00137984
0.00146144
0.0015585
0.00167371
0.00180892
0.00196398
0.00213527
0.00231421
0.00248632
0.00262699
0.00269252
0.00270195
0.00264495
0.00251208
0.00241925
0.00241498
0.00255797
0.00283949
0.00290065
0.00198226
0.000328301
0.000359945
0.00153967
0.00201925
0.00223219
0.00229159
0.00224637
0.0021149
0.00193434
0.00173832
0.00155272
0.00139295
0.00126471
0.00116689
0.00109489
0.00104326
0.00100697
0.000981861
0.000964566
0.000952387
0.000943248
0.000935658
0.000928647
0.00092168
0.000914535
0.000907193
0.000899741
0.000892311
0.00088504
0.000878052
0.000871449
0.000865318
0.000859731
0.000854757
0.000850465
0.000846928
0.000844223
0.000842522
0.000841838
0.000842026
0.000843504
0.000846316
0.000850533
0.000856258
0.000863595
0.000872651
0.000883531
0.000896346
0.000911212
0.00092825
0.000947596
0.000969403
0.000993857
0.00102119
0.0010517
0.0010858
0.00112404
0.0011672
0.00121633
0.00127289
0.00133881
0.00141658
0.00150921
0.00162001
0.00175196
0.00190667
0.00208272
0.00227382
0.00246701
0.00264161
0.00275689
0.00278994
0.0027621
0.00263917
0.00247462
0.00241477
0.00248536
0.00276008
0.00290291
0.00222354
0.000375938
0.000358537
0.0015417
0.0020126
0.00221755
0.00227083
0.00221873
0.00208073
0.00189452
0.00169508
0.00150914
0.00135183
0.00122774
0.00113458
0.00106698
0.00101913
0.000985856
0.00096296
0.000947091
0.000935646
0.000926697
0.000918927
0.000911536
0.00090412
0.000896545
0.000888835
0.000881086
0.000873414
0.000865929
0.00085872
0.00085186
0.000845414
0.000839437
0.000833992
0.000829147
0.000824979
0.000821575
0.000819031
0.000817558
0.000817071
0.00081764
0.000819571
0.000822936
0.00082784
0.000834403
0.000842742
0.000852979
0.000865238
0.000879644
0.000896327
0.000915426
0.000937089
0.000961485
0.000988816
0.00101934
0.00105338
0.00109141
0.00113406
0.00118225
0.00123725
0.00130081
0.00137531
0.0014638
0.00156992
0.00169751
0.0018497
0.0020273
0.00222674
0.00243782
0.00264249
0.00280382
0.00286986
0.00287165
0.00277349
0.00258018
0.00245695
0.00245637
0.00265434
0.00284498
0.00243456
0.000419181
0.000354999
0.00153911
0.00199719
0.00219407
0.00224334
0.00218638
0.00204435
0.00185498
0.00165411
0.00146904
0.00131466
0.00119465
0.0011058
0.00104216
0.000997616
0.000966911
0.000945821
0.000931049
0.000920109
0.000911231
0.00090326
0.000895539
0.000887768
0.000879871
0.000871893
0.00086392
0.000856045
0.000848346
0.000840884
0.00083371
0.00082687
0.000820414
0.000814403
0.000808908
0.000804016
0.000799823
0.000796437
0.000793974
0.000792709
0.000792429
0.000793389
0.000795833
0.000799853
0.000805574
0.00081313
0.000822656
0.000834288
0.000848166
0.000864434
0.000883236
0.000904725
0.000929064
0.000956438
0.000987064
0.00102122
0.00105929
0.0011018
0.00114951
0.00120351
0.00126536
0.00133724
0.0014221
0.0015237
0.00164642
0.00179456
0.00197092
0.00217446
0.00239754
0.00262346
0.00282572
0.0029427
0.00296898
0.00290273
0.00271169
0.00250409
0.00244979
0.00258721
0.00279383
0.00259839
0.000453373
0.000349441
0.00153183
0.00197465
0.00216452
0.00221048
0.00215051
0.00200667
0.00181633
0.00161569
0.00143242
0.00128122
0.00116511
0.00108019
0.00102007
0.000978403
0.000949865
0.000930241
0.000916312
0.000905719
0.000896843
0.00088868
0.000880688
0.000872642
0.000864503
0.000856315
0.000848151
0.000840075
0.000832138
0.000824377
0.000816825
0.000809522
0.000802515
0.000795868
0.000789661
0.000783988
0.000778957
0.000774687
0.000771301
0.000769006
0.00076799
0.000767972
0.000769459
0.000772557
0.000777399
0.000784127
0.000792886
0.000803829
0.000817112
0.000832891
0.000851327
0.000872581
0.000896822
0.000924226
0.000954992
0.000989357
0.00102763
0.00107025
0.00111784
0.00117132
0.00123204
0.00130195
0.00138381
0.00148132
0.00159914
0.00174243
0.0019157
0.00212057
0.00235266
0.00259822
0.00283181
0.00300125
0.00305831
0.00302782
0.00285647
0.00259119
0.00246468
0.00252164
0.00274512
0.00268918
0.000471711
0.000341948
0.00151902
0.00194708
0.00213016
0.00217347
0.00211212
0.00196844
0.00177901
0.00157999
0.00139921
0.0012513
0.00113884
0.00105745
0.00100041
0.000961222
0.0009345
0.000916063
0.000902781
0.000892426
0.00088352
0.000875186
0.000866974
0.000858713
0.00085038
0.000842013
0.000833663
0.000825368
0.000817157
0.00080905
0.00080107
0.000793252
0.000785648
0.000778328
0.00077138
0.00076491
0.000759036
0.000753888
0.000749606
0.000746334
0.000744329
0.000743588
0.0007441
0.000746269
0.000750218
0.000756093
0.00076405
0.000774254
0.000786875
0.00080209
0.000820075
0.000841011
0.000865076
0.000892453
0.000923333
0.000957928
0.000996499
0.0010394
0.00108713
0.00114047
0.00120055
0.00126908
0.00134859
0.00144259
0.00155578
0.00169384
0.0018626
0.00206602
0.00230292
0.00256302
0.00282393
0.0030422
0.00313894
0.00314143
0.0029958
0.00271403
0.00250355
0.0024889
0.00269974
0.0027298
0.000478977
0.000333023
0.00150308
0.00191564
0.00209212
0.00213339
0.00207208
0.00193023
0.00174332
0.00154705
0.0013693
0.00122467
0.00111556
0.0010373
0.000982934
0.00094585
0.00092064
0.00090316
0.000890375
0.000880182
0.000871231
0.000862748
0.000854356
0.000845918
0.000837417
0.000828879
0.000820332
0.000811794
0.000803275
0.000794785
0.000786343
0.000777985
0.000769767
0.000761768
0.000754087
0.000746838
0.00074015
0.000734162
0.000729021
0.000724875
0.000721876
0.000720358
0.00072006
0.000721312
0.000724381
0.000729402
0.000736539
0.000745967
0.000757871
0.000772446
0.000789891
0.000810407
0.000834196
0.000861453
0.000892375
0.000927164
0.000966048
0.00100932
0.00105738
0.00111085
0.00117069
0.00123837
0.00131613
0.00140724
0.00151628
0.00164916
0.00181267
0.00201276
0.00225132
0.00252153
0.00280328
0.00306118
0.00321389
0.00324603
0.00313691
0.00285464
0.00255528
0.00247617
0.00264647
0.00274167
0.00048059
0.000323003
0.00148482
0.00188136
0.00205143
0.0020912
0.0020311
0.00189251
0.00170945
0.00151688
0.00134253
0.00120111
0.00109503
0.00101949
0.00096741
0.000932099
0.000908134
0.000891421
0.000879017
0.000868933
0.000859929
0.000851316
0.000842771
0.000834177
0.000825517
0.000816801
0.000808042
0.000799238
0.000790388
0.000781495
0.000772579
0.000763679
0.00075486
0.000746207
0.00073783
0.000729852
0.000722409
0.000715648
0.000709716
0.000704766
0.000700945
0.000698534
0.000697592
0.000697992
0.000700217
0.000704406
0.000710725
0.000719356
0.000730499
0.000744367
0.000761182
0.000781172
0.000804565
0.000831584
0.000862441
0.000897343
0.000936502
0.000980163
0.00102865
0.00108246
0.00114238
0.00120964
0.00128619
0.00137503
0.00148047
0.00160846
0.00176637
0.00196179
0.00219956
0.00247686
0.00277742
0.00306703
0.00327482
0.00334111
0.00327166
0.00300461
0.0026382
0.00247894
0.00258395
0.00274196
0.000479397
0.000312111
0.00146498
0.00184517
0.00200897
0.0020477
0.00198977
0.00185561
0.00167751
0.0014894
0.00131875
0.00118043
0.00107704
0.00100382
0.000953651
0.000919804
0.000896852
0.000880746
0.00086863
0.000858615
0.000849553
0.000840823
0.000832139
0.000823399
0.000814579
0.000805678
0.000796691
0.000787606
0.000778415
0.000769118
0.000759738
0.00075032
0.000740936
0.000731681
0.000722672
0.000714039
0.000705925
0.00069848
0.000691855
0.000686205
0.000681681
0.000678451
0.000676847
0.000676572
0.000678005
0.000681404
0.000686926
0.000694758
0.000705112
0.000718218
0.000734322
0.00075368
0.000776555
0.000803201
0.000833862
0.000868762
0.000908114
0.000952134
0.00100109
0.00105536
0.00111558
0.00118276