/*--------------------------------*- C++ -*----------------------------------*\
  =========                 |
  \\      /  F ield         | OpenFOAM: The Open Source CFD Toolbox
   \\    /   O peration     | Website:  https://openfoam.org
    \\  /    A nd           | Version:  13
     \\/     M anipulation  |
\*---------------------------------------------------------------------------*/
FoamFile
{
    format      ascii;
    class       volScalarField;
    location    "3.1";
    object      nut;
}
// * * * * * * * * * * * * * * * * * * * * * * * * * * * * * * * * * * * * * //

dimensions      [0 2 -1 0 0 0 0];

internalField   nonuniform List<scalar> 
6400
(
7.59237e-10
3.84371e-09
8.95471e-09
1.43105e-08
1.87405e-08
2.19003e-08
2.40178e-08
2.55871e-08
2.71343e-08
2.91084e-08
3.19187e-08
3.57563e-08
4.08092e-08
4.71483e-08
5.47296e-08
6.34096e-08
7.30083e-08
8.3263e-08
9.38744e-08
1.04609e-07
1.1552e-07
1.27185e-07
1.40612e-07
1.56611e-07
1.75331e-07
1.95841e-07
2.16582e-07
2.375e-07
2.58917e-07
2.81301e-07
3.04844e-07
3.29167e-07
3.53027e-07
3.76493e-07
3.99385e-07
4.22236e-07
4.45218e-07
4.68756e-07
4.93096e-07
5.18555e-07
5.45338e-07
5.73636e-07
6.03708e-07
6.35772e-07
6.69754e-07
7.05722e-07
7.44025e-07
7.8604e-07
8.34438e-07
8.95753e-07
9.56139e-07
1.01814e-06
1.07873e-06
1.13716e-06
1.19131e-06
1.23908e-06
1.27804e-06
1.30291e-06
1.31471e-06
1.31807e-06
1.29958e-06
1.25909e-06
1.1971e-06
1.11519e-06
1.01518e-06
9.01089e-07
7.77666e-07
6.52191e-07
5.30374e-07
4.15442e-07
3.1247e-07
2.30919e-07
1.63893e-07
1.11199e-07
7.22478e-08
4.4948e-08
2.66799e-08
1.47673e-08
6.6641e-09
1.39593e-09
3.69486e-09
2.77777e-07
9.78452e-07
1.66548e-06
2.20353e-06
2.5692e-06
2.80167e-06
2.95745e-06
3.08937e-06
3.236e-06
3.4202e-06
3.6699e-06
3.98443e-06
4.34514e-06
4.72427e-06
5.09381e-06
5.4302e-06
5.71266e-06
5.92506e-06
6.06174e-06
6.13855e-06
6.20992e-06
6.33177e-06
6.52612e-06
6.79178e-06
7.08109e-06
7.30541e-06
7.51875e-06
7.76091e-06
8.06178e-06
8.44595e-06
8.92007e-06
9.42252e-06
9.96191e-06
1.05163e-05
1.10978e-05
1.17011e-05
1.23308e-05
1.29859e-05
1.36693e-05
1.43819e-05
1.51189e-05
1.58813e-05
1.66915e-05
1.75495e-05
1.84429e-05
1.9334e-05
2.02084e-05
2.10354e-05
2.17744e-05
2.25583e-05
2.33403e-05
2.4128e-05
2.49002e-05
2.56421e-05
2.63322e-05
2.69939e-05
2.74685e-05
2.77234e-05
2.79802e-05
2.80018e-05
2.77346e-05
2.71493e-05
2.62709e-05
2.5072e-05
2.35406e-05
2.1752e-05
1.97819e-05
1.76202e-05
1.53306e-05
1.29623e-05
1.03267e-05
7.81784e-06
5.65092e-06
3.92301e-06
2.61515e-06
1.67743e-06
1.01133e-06
4.20692e-07
7.25343e-09
8.09946e-09
7.69335e-07
3.15954e-06
5.63995e-06
7.57592e-06
8.88454e-06
9.68886e-06
1.01633e-05
1.04694e-05
1.07239e-05
1.1027e-05
1.1421e-05
1.19042e-05
1.24461e-05
1.3e-05
1.35176e-05
1.39745e-05
1.43508e-05
1.46348e-05
1.48248e-05
1.49284e-05
1.49566e-05
1.49585e-05
1.49883e-05
1.50633e-05
1.52058e-05
1.54822e-05
1.58273e-05
1.61848e-05
1.65685e-05
1.6946e-05
1.74004e-05
1.80017e-05
1.88264e-05
1.97195e-05
2.07131e-05
2.17825e-05
2.29302e-05
2.41321e-05
2.53807e-05
2.67144e-05
2.80777e-05
2.9477e-05
3.08584e-05
3.21941e-05
3.34832e-05
3.47647e-05
3.60202e-05
3.72476e-05
3.84639e-05
3.96757e-05
4.08635e-05
4.20178e-05
4.31222e-05
4.41589e-05
4.51068e-05
4.59422e-05
4.66192e-05
4.71054e-05
4.73192e-05
4.74441e-05
4.7239e-05
4.66973e-05
4.58115e-05
4.44674e-05
4.25427e-05
4.01596e-05
3.74177e-05
3.42767e-05
3.08196e-05
2.71169e-05
2.31931e-05
1.91971e-05
1.53401e-05
1.18193e-05
8.78482e-06
6.28151e-06
4.10729e-06
1.57717e-06
1.84581e-08
1.38285e-08
1.28544e-06
5.11874e-06
9.0223e-06
1.20659e-05
1.41582e-05
1.54599e-05
1.6202e-05
1.66192e-05
1.69172e-05
1.72206e-05
1.76021e-05
1.80719e-05
1.85948e-05
1.91188e-05
1.95965e-05
1.99841e-05
2.02611e-05
2.04267e-05
2.04968e-05
2.0506e-05
2.04926e-05
2.05068e-05
2.06061e-05
2.07992e-05
2.10048e-05
2.11571e-05
2.12982e-05
2.17222e-05
2.24904e-05
2.34307e-05
2.4652e-05
2.58073e-05
2.69671e-05
2.82327e-05
2.95401e-05
3.08591e-05
3.21971e-05
3.36074e-05
3.49658e-05
3.6326e-05
3.76516e-05
3.89482e-05
4.01994e-05
4.14096e-05
4.25791e-05
4.37037e-05
4.47978e-05
4.5872e-05
4.69237e-05
4.7948e-05
4.89346e-05
4.98739e-05
5.07526e-05
5.15548e-05
5.22612e-05
5.2849e-05
5.3293e-05
5.35686e-05
5.36131e-05
5.35636e-05
5.32513e-05
5.27203e-05
5.18891e-05
5.08933e-05
4.93516e-05
4.71879e-05
4.45855e-05
4.15667e-05
3.81785e-05
3.44692e-05
3.04817e-05
2.62911e-05
2.20022e-05
1.77906e-05
1.38466e-05
1.02905e-05
6.88867e-06
2.59922e-06
2.93447e-08
2.14394e-08
1.90559e-06
7.08646e-06
1.20971e-05
1.58565e-05
1.8377e-05
1.99085e-05
2.0755e-05
2.12139e-05
2.15357e-05
2.18851e-05
2.23328e-05
2.28672e-05
2.34289e-05
2.39475e-05
2.43674e-05
2.46564e-05
2.48107e-05
2.48535e-05
2.48167e-05
2.47778e-05
2.47699e-05
2.47518e-05
2.46999e-05
2.45244e-05
2.46823e-05
2.53561e-05
2.63115e-05
2.74177e-05
2.84875e-05
2.97596e-05
3.10895e-05
3.23983e-05
3.37194e-05
3.50369e-05
3.62838e-05
3.75378e-05
3.88118e-05
3.99688e-05
4.10824e-05
4.21333e-05
4.3122e-05
4.40521e-05
4.49265e-05
4.57547e-05
4.65468e-05
4.73198e-05
4.80652e-05
4.87873e-05
4.94848e-05
5.01569e-05
5.08007e-05
5.14124e-05
5.19866e-05
5.25163e-05
5.29922e-05
5.34003e-05
5.37239e-05
5.39442e-05
5.40359e-05
5.38968e-05
5.3742e-05
5.31035e-05
5.22915e-05
5.09375e-05
5.00058e-05
4.84259e-05
4.62874e-05
4.37064e-05
4.07326e-05
3.74112e-05
3.37817e-05
2.98829e-05
2.57626e-05
2.15122e-05
1.72737e-05
1.31586e-05
8.86803e-06
3.27536e-06
3.63699e-08
3.16627e-08
2.69307e-06
9.27562e-06
1.5251e-05
1.94668e-05
2.21636e-05
2.37287e-05
2.45641e-05
2.50306e-05
2.54029e-05
2.58365e-05
2.63687e-05
2.69528e-05
2.75067e-05
2.7955e-05
2.82516e-05
2.83855e-05
2.83727e-05
2.82934e-05
2.8092e-05
2.78967e-05
2.76525e-05
2.72265e-05
2.74228e-05
2.82319e-05
2.92897e-05
3.03689e-05
3.16136e-05
3.29024e-05
3.41861e-05
3.54705e-05
3.67318e-05
3.79261e-05
3.90698e-05
4.00955e-05
4.10643e-05
4.20368e-05
4.28862e-05
4.36395e-05
4.43303e-05
4.49484e-05
4.55094e-05
4.60185e-05
4.64849e-05
4.69158e-05
4.73169e-05
4.76895e-05
4.80287e-05
4.83409e-05
4.86285e-05
4.88952e-05
4.91449e-05
4.93808e-05
4.96054e-05
4.98201e-05
5.0025e-05
5.02193e-05
5.03954e-05
5.05455e-05
5.06539e-05
5.07028e-05
5.06129e-05
5.03562e-05
5.01154e-05
4.93783e-05
4.8119e-05
4.7321e-05
4.57113e-05
4.36145e-05
4.10706e-05
3.81383e-05
3.48784e-05
3.13399e-05
2.75499e-05
2.3524e-05
1.92982e-05
1.49218e-05
1.00119e-05
3.59705e-06
3.90371e-08
4.52138e-08
3.68205e-06
1.17467e-05
1.85434e-05
2.30396e-05
2.5757e-05
2.72451e-05
2.80114e-05
2.84672e-05
2.88846e-05
2.93812e-05
2.99486e-05
3.05083e-05
3.09683e-05
3.12621e-05
3.13653e-05
3.13146e-05
3.10117e-05
3.07247e-05
3.03599e-05
2.97522e-05
2.99287e-05
3.06268e-05
3.16265e-05
3.26821e-05
3.3775e-05
3.49121e-05
3.61219e-05
3.73006e-05
3.84616e-05
3.95532e-05
4.05163e-05
4.14273e-05
4.22664e-05
4.30058e-05
4.36595e-05
4.42843e-05
4.48199e-05
4.52591e-05
4.56459e-05
4.59679e-05
4.62391e-05
4.6461e-05
4.66386e-05
4.67742e-05
4.68694e-05
4.69255e-05
4.6944e-05
4.69295e-05
4.68856e-05
4.68166e-05
4.67281e-05
4.66287e-05
4.65288e-05
4.64398e-05
4.63746e-05
4.63467e-05
4.63609e-05
4.64108e-05
4.64895e-05
4.66154e-05
4.67491e-05
4.68573e-05
4.67911e-05
4.66596e-05
4.62323e-05
4.53001e-05
4.45611e-05
4.29749e-05
4.08318e-05
3.81983e-05
3.51645e-05
3.18255e-05
2.82523e-05
2.44575e-05
2.03614e-05
1.58415e-05
1.04953e-05
3.66316e-06
3.86601e-08
6.27217e-08
4.88391e-06
1.44767e-05
2.19171e-05
2.65787e-05
2.92229e-05
3.05757e-05
3.12439e-05
3.1668e-05
3.20948e-05
3.25929e-05
3.31124e-05
3.35562e-05
3.38373e-05
3.39112e-05
3.37056e-05
3.33696e-05
3.3039e-05
3.22175e-05
3.21205e-05
3.26152e-05
3.34046e-05
3.41676e-05
3.51531e-05
3.61687e-05
3.72897e-05
3.84009e-05
3.9491e-05
4.05022e-05
4.14405e-05
4.22786e-05
4.30498e-05
4.3738e-05
4.43105e-05
4.48292e-05
4.52574e-05
4.56245e-05
4.59662e-05
4.62205e-05
4.6422e-05
4.65712e-05
4.66738e-05
4.67302e-05
4.67432e-05
4.67135e-05
4.66425e-05
4.65305e-05
4.63772e-05
4.61848e-05
4.59564e-05
4.56933e-05
4.53974e-05
4.50717e-05
4.47227e-05
4.43624e-05
4.40102e-05
4.3694e-05
4.34514e-05
4.32992e-05
4.31727e-05
4.31855e-05
4.33005e-05
4.34784e-05
4.37347e-05
4.3955e-05
4.38602e-05
4.36217e-05
4.29788e-05
4.23785e-05
4.07071e-05
3.83919e-05
3.55235e-05
3.22295e-05
2.86541e-05
2.48914e-05
2.09018e-05
1.63544e-05
1.07007e-05
3.63786e-06
3.74372e-08
8.46282e-08
6.2821e-06
1.73625e-05
2.53262e-05
3.0059e-05
3.25693e-05
3.37538e-05
3.43006e-05
3.46586e-05
3.50363e-05
3.54558e-05
3.58386e-05
3.60861e-05
3.61332e-05
3.57611e-05
3.53572e-05
3.48593e-05
3.42263e-05
3.43603e-05
3.48788e-05
3.53555e-05
3.6109e-05
3.70294e-05
3.80576e-05
3.90903e-05
4.0136e-05
4.11183e-05
4.20341e-05
4.2859e-05
4.36029e-05
4.42611e-05
4.4848e-05
4.53618e-05
4.58229e-05
4.62054e-05
4.65044e-05
4.67654e-05
4.70054e-05
4.71892e-05
4.73119e-05
4.73933e-05
4.74298e-05
4.74243e-05
4.73785e-05
4.72946e-05
4.71753e-05
4.70235e-05
4.68418e-05
4.66314e-05
4.63895e-05
4.61137e-05
4.57984e-05
4.54353e-05
4.50135e-05
4.45269e-05
4.39688e-05
4.3333e-05
4.26387e-05
4.19436e-05
4.14225e-05
4.10696e-05
4.09329e-05
4.08673e-05
4.10551e-05
4.13619e-05
4.1752e-05
4.17824e-05
4.15927e-05
4.11571e-05
4.06469e-05
3.88056e-05
3.62207e-05
3.30004e-05
2.93236e-05
2.5381e-05
2.12578e-05
1.67133e-05
1.08686e-05
3.62075e-06
3.72021e-08
1.11182e-07
7.81149e-06
2.02926e-05
2.87127e-05
3.34459e-05
3.57834e-05
3.67754e-05
3.71722e-05
3.74158e-05
3.76743e-05
3.79326e-05
3.8099e-05
3.80869e-05
3.76557e-05
3.72114e-05
3.64801e-05
3.61832e-05
3.63138e-05
3.65261e-05
3.69742e-05
3.76619e-05
3.85441e-05
3.95075e-05
4.05007e-05
4.14607e-05
4.23789e-05
4.32175e-05
4.39824e-05
4.46682e-05
4.52861e-05
4.58385e-05
4.63316e-05
4.67992e-05
4.72012e-05
4.74879e-05
4.77635e-05
4.80269e-05
4.82452e-05
4.83952e-05
4.85036e-05
4.85666e-05
4.85862e-05
4.85638e-05
4.8502e-05
4.84035e-05
4.82714e-05
4.81092e-05
4.79205e-05
4.77062e-05
4.74659e-05
4.71986e-05
4.69004e-05
4.65633e-05
4.61713e-05
4.57122e-05
4.51676e-05
4.45255e-05
4.37924e-05
4.29721e-05
4.20531e-05
4.09994e-05
3.99737e-05
3.93817e-05
3.91727e-05
3.91786e-05
3.95216e-05
4.00017e-05
4.01435e-05
3.99949e-05
3.96408e-05
3.91187e-05
3.70391e-05
3.40971e-05
3.04387e-05
2.62915e-05
2.18544e-05
1.71012e-05
1.11214e-05
3.69022e-06
3.84084e-08
1.43714e-07
9.32596e-06
2.31795e-05
3.20083e-05
3.67034e-05
3.88435e-05
3.96202e-05
3.98312e-05
3.99047e-05
3.99742e-05
4.00015e-05
3.9897e-05
3.94025e-05
3.89247e-05
3.81155e-05
3.79226e-05
3.79053e-05
3.79036e-05
3.83158e-05
3.89374e-05
3.97479e-05
4.06629e-05
4.15961e-05
4.25119e-05
4.33738e-05
4.41778e-05
4.4911e-05
4.55833e-05
4.61968e-05
4.6759e-05
4.72989e-05
4.77978e-05
4.82071e-05
4.8544e-05
4.88612e-05
4.92063e-05
4.94526e-05
4.96637e-05
4.98178e-05
4.99289e-05
4.9992e-05
5.00102e-05
4.99845e-05
4.99173e-05
4.98106e-05
4.96672e-05
4.94896e-05
4.92799e-05
4.90399e-05
4.87716e-05
4.84763e-05
4.81552e-05
4.78094e-05
4.74403e-05
4.70298e-05
4.65561e-05
4.59861e-05
4.52992e-05
4.44775e-05
4.35139e-05
4.2437e-05
4.12615e-05
3.99605e-05
3.85762e-05
3.78624e-05
3.77333e-05
3.79814e-05
3.85317e-05
3.87481e-05
3.86172e-05
3.82565e-05
3.75811e-05
3.51757e-05
3.17913e-05
2.76328e-05
2.29282e-05
1.78213e-05
1.16983e-05
3.97593e-06
4.25707e-08
1.81855e-07
1.08153e-05
2.59809e-05
3.51713e-05
3.98014e-05
4.17263e-05
4.22637e-05
4.22488e-05
4.20968e-05
4.19166e-05
4.16619e-05
4.10809e-05
4.05748e-05
3.97483e-05
3.94884e-05
3.92764e-05
3.91812e-05
3.94288e-05
3.99965e-05
4.07284e-05
4.1582e-05
4.24731e-05
4.33481e-05
4.41862e-05
4.49707e-05
4.57039e-05
4.63847e-05
4.70217e-05
4.76313e-05
4.82341e-05
4.87645e-05
4.91994e-05
4.96096e-05
5.00134e-05
5.04014e-05
5.07251e-05
5.09899e-05
5.1211e-05
5.13792e-05
5.15002e-05
5.15715e-05
5.15955e-05
5.1573e-05
5.15061e-05
5.13966e-05
5.12469e-05
5.10596e-05
5.08369e-05
5.05814e-05
5.0295e-05
4.99788e-05
4.96332e-05
4.92569e-05
4.88467e-05
4.83984e-05
4.79094e-05
4.73801e-05
4.67623e-05
4.60262e-05
4.51111e-05
4.40153e-05
4.28071e-05
4.14912e-05
4.00382e-05
3.84327e-05
3.6921e-05
3.6502e-05
3.66364e-05
3.72218e-05
3.7453e-05
3.72925e-05
3.68642e-05
3.58532e-05
3.29988e-05
2.91139e-05
2.43672e-05
1.89807e-05
1.26182e-05
4.57021e-06
5.20286e-08
2.24294e-07
1.22966e-05
2.86622e-05
3.81671e-05
4.27136e-05
4.44099e-05
4.46849e-05
4.44061e-05
4.39812e-05
4.35076e-05
4.27926e-05
4.22424e-05
4.13442e-05
4.09565e-05
4.0523e-05
4.03332e-05
4.04414e-05
4.0876e-05
4.15446e-05
4.23279e-05
4.31768e-05
4.40266e-05
4.48494e-05
4.56355e-05
4.63798e-05
4.70869e-05
4.77585e-05
4.84452e-05
4.90984e-05
4.96553e-05
5.01698e-05
5.06419e-05
5.11175e-05
5.1582e-05
5.19719e-05
5.23134e-05
5.26023e-05
5.28428e-05
5.30308e-05
5.31684e-05
5.32546e-05
5.32906e-05
5.32771e-05
5.32156e-05
5.31077e-05
5.29556e-05
5.27618e-05
5.25291e-05
5.22605e-05
5.19587e-05
5.16256e-05
5.12623e-05
5.08676e-05
5.04381e-05
4.99672e-05
4.94452e-05
4.88598e-05
4.81984e-05
4.74387e-05
4.65002e-05
4.5428e-05
4.42264e-05
4.29687e-05
4.15859e-05
4.00173e-05
3.82686e-05
3.63184e-05
3.53854e-05
3.54112e-05
3.59808e-05
3.6165e-05
3.59051e-05
3.53979e-05
3.37253e-05
3.03747e-05
2.58519e-05
2.03905e-05
1.38397e-05
5.33827e-06
6.77458e-08
2.69882e-07
1.37393e-05
3.11825e-05
4.09642e-05
4.54175e-05
4.68772e-05
4.68724e-05
4.63043e-05
4.55875e-05
4.46755e-05
4.40187e-05
4.29563e-05
4.23989e-05
4.17553e-05
4.1413e-05
4.13795e-05
4.16667e-05
4.22262e-05
4.29494e-05
4.37472e-05
4.45755e-05
4.53924e-05
4.61856e-05
4.69515e-05
4.76901e-05
4.84044e-05
4.91604e-05
4.98689e-05
5.04669e-05
5.10676e-05
5.16269e-05
5.21582e-05
5.26787e-05
5.31683e-05
5.35831e-05
5.3956e-05
5.42753e-05
5.45449e-05
5.47612e-05
5.49245e-05
5.50341e-05
5.50901e-05
5.50923e-05
5.50414e-05
5.49385e-05
5.47852e-05
5.45838e-05
5.43374e-05
5.40498e-05
5.37249e-05
5.33667e-05
5.29786e-05
5.25626e-05
5.21179e-05
5.16402e-05
5.11205e-05
5.05437e-05
4.9889e-05
4.91314e-05
4.83635e-05
4.73142e-05
4.59245e-05
4.43792e-05
4.28393e-05
4.1425e-05
3.98356e-05
3.79291e-05
3.57616e-05
3.43316e-05
3.42121e-05
3.47387e-05
3.48089e-05
3.44137e-05
3.37446e-05
3.11658e-05
2.70766e-05
2.17645e-05
1.51738e-05
6.19494e-06
8.89492e-08
3.17241e-07
1.51124e-05
3.3506e-05
4.35371e-05
4.78952e-05
4.91148e-05
4.88168e-05
4.79391e-05
4.67241e-05
4.58662e-05
4.46578e-05
4.39081e-05
4.30661e-05
4.25011e-05
4.22881e-05
4.24124e-05
4.28353e-05
4.34705e-05
4.42194e-05
4.50173e-05
4.58298e-05
4.66325e-05
4.74208e-05
4.81931e-05
4.89561e-05
4.97655e-05
5.05329e-05
5.11951e-05
5.18549e-05
5.25052e-05
5.31239e-05
5.37173e-05
5.42796e-05
5.4782e-05
5.52345e-05
5.56595e-05
5.60175e-05
5.63301e-05
5.65884e-05
5.679e-05
5.69347e-05
5.70213e-05
5.70482e-05
5.7015e-05
5.69213e-05
5.6768e-05
5.65568e-05
5.62905e-05
5.59734e-05
5.56106e-05
5.52083e-05
5.47731e-05
5.43108e-05
5.38261e-05
5.332e-05
5.27891e-05
5.22228e-05
5.16022e-05
5.08987e-05
5.00745e-05
4.9218e-05
4.81824e-05
4.65922e-05
4.46854e-05
4.27157e-05
4.10543e-05
3.9495e-05
3.74128e-05
3.50168e-05
3.32482e-05
3.30073e-05
3.33253e-05
3.34993e-05
3.27158e-05
3.14034e-05
2.78682e-05
2.28943e-05
1.6406e-05
7.02164e-06
1.14411e-07
3.64769e-07
1.63888e-05
3.56074e-05
4.58702e-05
5.01389e-05
5.11161e-05
5.0515e-05
4.90871e-05
4.79997e-05
4.66749e-05
4.5498e-05
4.44996e-05
4.36866e-05
4.32314e-05
4.3158e-05
4.3417e-05
4.39338e-05
4.46133e-05
4.53757e-05
4.61746e-05
4.69854e-05
4.77944e-05
4.85997e-05
4.94002e-05
5.02545e-05
5.10829e-05
5.18285e-05
5.25436e-05
5.32692e-05
5.39738e-05
5.46495e-05
5.52943e-05
5.58999e-05
5.64584e-05
5.69757e-05
5.74508e-05
5.78479e-05
5.82169e-05
5.85438e-05
5.88002e-05
5.89933e-05
5.91231e-05
5.91856e-05
5.91788e-05
5.9101e-05
5.89513e-05
5.87305e-05
5.84405e-05
5.80854e-05
5.7671e-05
5.72048e-05
5.66961e-05
5.61551e-05
5.55917e-05
5.50143e-05
5.44273e-05
5.3829e-05
5.32089e-05
5.25449e-05
5.18011e-05
5.09266e-05
4.99754e-05
4.89012e-05
4.71572e-05
4.49086e-05
4.26249e-05
4.05951e-05
3.89012e-05
3.66972e-05
3.40476e-05
3.20669e-05
3.16891e-05
3.17778e-05
3.17835e-05
3.06925e-05
2.81745e-05
2.36754e-05
1.74153e-05
7.73164e-06
1.42582e-07
4.11198e-07
1.75496e-05
3.74736e-05
4.79653e-05
5.21726e-05
5.2846e-05
5.17423e-05
5.05392e-05
4.90753e-05
4.73514e-05
4.61457e-05
4.50352e-05
4.42913e-05
4.39598e-05
4.40157e-05
4.43793e-05
4.4959e-05
4.56671e-05
4.6442e-05
4.72502e-05
4.80745e-05
4.89068e-05
4.97452e-05
5.0625e-05
5.15133e-05
5.23543e-05
5.31244e-05
5.39184e-05
5.47053e-05
5.54705e-05
5.62078e-05
5.69136e-05
5.75827e-05
5.8212e-05
5.88011e-05
5.93428e-05
5.98338e-05
6.02476e-05
6.06328e-05
6.09828e-05
6.12352e-05
6.14201e-05
6.15291e-05
6.15584e-05
6.15046e-05
6.13653e-05
6.11394e-05
6.08278e-05
6.04331e-05
5.99608e-05
5.94188e-05
5.88179e-05
5.81713e-05
5.74938e-05
5.68007e-05
5.61052e-05
5.54162e-05
5.47349e-05
5.40514e-05
5.33409e-05
5.2561e-05
5.16487e-05
5.0616e-05
4.94961e-05
4.74447e-05
4.50514e-05
4.25581e-05
4.01278e-05
3.81248e-05
3.57519e-05
3.27781e-05
3.09011e-05
3.04859e-05
3.01637e-05
2.96989e-05
2.81228e-05
2.40929e-05
1.81505e-05
8.27123e-06
1.71843e-07
4.55194e-07
1.85804e-05
3.91013e-05
4.98401e-05
5.3864e-05
5.41306e-05
5.31616e-05
5.16041e-05
4.96082e-05
4.80819e-05
4.66341e-05
4.55447e-05
4.48941e-05
4.46847e-05
4.48499e-05
4.52912e-05
4.59153e-05
4.66473e-05
4.74403e-05
4.82698e-05
4.91235e-05
4.99968e-05
5.08882e-05
5.18166e-05
5.2727e-05
5.36038e-05
5.44546e-05
5.5317e-05
5.61645e-05
5.70047e-05
5.78147e-05
5.85963e-05
5.93456e-05
6.00587e-05
6.07447e-05
6.13689e-05
6.1944e-05
6.24459e-05
6.28819e-05
6.3328e-05
6.36577e-05
6.39051e-05
6.40687e-05
6.41424e-05
6.41212e-05
6.40011e-05
6.37791e-05
6.34539e-05
6.30266e-05
6.25009e-05
6.18836e-05
6.11854e-05
6.04208e-05
5.96076e-05
5.87663e-05
5.79183e-05
5.7083e-05
5.62746e-05
5.54975e-05
5.47421e-05
5.39806e-05
5.31637e-05
5.2218e-05
5.11293e-05
4.97715e-05
4.74151e-05
4.49097e-05
4.23325e-05
3.94895e-05
3.71904e-05
3.44815e-05
3.11337e-05
2.95067e-05
2.89609e-05
2.88314e-05
2.73313e-05
2.41568e-05
1.85745e-05
8.61645e-06
2.02227e-07
4.95813e-07
1.94611e-05
4.04788e-05
5.14047e-05
5.5178e-05
5.54151e-05
5.44184e-05
5.24881e-05
5.03643e-05
4.85702e-05
4.70828e-05
4.60442e-05
4.54964e-05
4.53975e-05
4.56508e-05
4.61507e-05
4.68105e-05
4.75682e-05
4.83876e-05
4.92495e-05
5.01446e-05
5.10678e-05
5.20145e-05
5.29776e-05
5.39277e-05
5.4865e-05
5.57994e-05
5.67397e-05
5.76702e-05
5.85896e-05
5.94861e-05
6.0358e-05
6.12007e-05
6.20091e-05
6.27884e-05
6.35293e-05
6.41785e-05
6.4779e-05
6.52901e-05
6.58004e-05
6.62225e-05
6.65345e-05
6.67566e-05
6.68799e-05
6.68985e-05
6.68066e-05
6.65996e-05
6.62739e-05
6.58281e-05
6.52634e-05
6.45842e-05
6.37991e-05
6.29216e-05
6.197e-05
6.09677e-05
5.99418e-05
5.89208e-05
5.79313e-05
5.69933e-05
5.6114e-05
5.52832e-05
5.44676e-05
5.36083e-05
5.262e-05
5.14703e-05
4.97894e-05
4.70885e-05
4.46091e-05
4.17495e-05
3.86322e-05
3.6007e-05
3.28154e-05
2.94098e-05
2.79704e-05
2.70424e-05
2.645e-05
2.40424e-05
1.87491e-05
8.80968e-06
2.33184e-07
5.32522e-07
2.01722e-05
4.16016e-05
5.25952e-05
5.62571e-05
5.6668e-05
5.53361e-05
5.30255e-05
5.09501e-05
4.9004e-05
4.75085e-05
4.6539e-05
4.60927e-05
4.60888e-05
4.64124e-05
4.69594e-05
4.76526e-05
4.84407e-05
4.92942e-05
5.0197e-05
5.11397e-05
5.2115e-05
5.31143e-05
5.41263e-05
5.51379e-05
5.61526e-05
5.71744e-05
5.82013e-05
5.9223e-05
6.02351e-05
6.12296e-05
6.22021e-05
6.31466e-05
6.40567e-05
6.4932e-05
6.57726e-05
6.65148e-05
6.72004e-05
6.77836e-05
6.83567e-05
6.88624e-05
6.92369e-05
6.95161e-05
6.96903e-05
6.97528e-05
6.96967e-05
6.95159e-05
6.92046e-05
6.87588e-05
6.81765e-05
6.74587e-05
6.66104e-05
6.56416e-05
6.45688e-05
6.34146e-05
6.22085e-05
6.09851e-05
5.97815e-05
5.86322e-05
5.75631e-05
5.65841e-05
5.56812e-05
5.48115e-05
5.38987e-05
5.2833e-05
5.16181e-05
4.94499e-05
4.66321e-05
4.40117e-05
4.07941e-05
3.74175e-05
3.44812e-05
3.06125e-05
2.77084e-05
2.62508e-05
2.57014e-05
2.37308e-05
1.87494e-05
8.9513e-06
2.6626e-07
5.64054e-07
2.073e-05
4.24306e-05
5.34864e-05
5.72204e-05
5.76381e-05
5.6121e-05
5.37736e-05
5.14075e-05
4.93963e-05
4.79195e-05
4.70277e-05
4.66751e-05
4.67509e-05
4.71321e-05
4.77207e-05
4.84486e-05
4.92723e-05
5.01664e-05
5.11161e-05
5.21112e-05
5.31427e-05
5.4201e-05
5.52772e-05
5.63657e-05
5.74682e-05
5.85835e-05
5.97062e-05
6.08277e-05
6.19417e-05
6.30403e-05
6.41166e-05
6.51627e-05
6.61702e-05
6.71374e-05
6.80679e-05
6.88917e-05
6.96499e-05
7.0295e-05
7.09232e-05
7.14974e-05
7.1927e-05
7.22572e-05
7.24792e-05
7.25861e-05
7.25707e-05
7.24254e-05
7.21428e-05
7.17164e-05
7.11409e-05
7.04132e-05
6.95337e-05
6.85076e-05
6.73465e-05
6.60694e-05
6.47041e-05
6.3287e-05
6.18615e-05
6.04743e-05
5.91692e-05
5.79783e-05
5.69127e-05
5.59535e-05
5.50455e-05
5.40949e-05
5.29689e-05
5.14729e-05
4.87388e-05
4.60328e-05
4.30322e-05
3.94409e-05
3.57386e-05
3.23325e-05
2.80781e-05
2.57379e-05
2.40757e-05
2.30053e-05
1.86842e-05
9.20451e-06
3.06363e-07
5.89993e-07
2.11418e-05
4.2992e-05
5.41636e-05
5.79142e-05
5.84385e-05
5.66386e-05
5.42825e-05
5.18057e-05
4.97589e-05
4.83183e-05
4.75052e-05
4.72362e-05
4.73791e-05
4.781e-05
4.84384e-05
4.92039e-05
5.00683e-05
5.10086e-05
5.20106e-05
5.30635e-05
5.41577e-05
5.52847e-05
5.64381e-05
5.76144e-05
5.88126e-05
6.0028e-05
6.12534e-05
6.24798e-05
6.36988e-05
6.4901e-05
6.60768e-05
6.72166e-05
6.83105e-05
6.93548e-05
7.03589e-05
7.12496e-05
7.20625e-05
7.27545e-05
7.34214e-05
7.40475e-05
7.45206e-05
7.48917e-05
7.51546e-05
7.53029e-05
7.53292e-05
7.52254e-05
7.4983e-05
7.45933e-05
7.4048e-05
7.334e-05
7.24649e-05
7.14217e-05
7.02155e-05
6.8859e-05
6.73744e-05
6.57952e-05
6.4166e-05
6.25406e-05
6.09768e-05
5.9528e-05
5.82315e-05
5.70963e-05
5.60927e-05
5.51462e-05
5.41372e-05
5.29036e-05
5.09706e-05
4.79232e-05
4.51784e-05
4.16223e-05
3.77225e-05
3.37108e-05
2.95493e-05
2.57709e-05
2.34863e-05
2.24179e-05
1.87003e-05
9.67545e-06
3.58852e-07
6.09914e-07
2.13994e-05
4.33433e-05
5.4577e-05
5.84244e-05
5.89672e-05
5.72769e-05
5.47046e-05
5.21566e-05
5.0098e-05
4.8704e-05
4.79662e-05
4.77702e-05
4.79709e-05
4.84474e-05
4.91162e-05
4.99229e-05
5.08329e-05
5.18249e-05
5.28847e-05
5.40015e-05
5.51662e-05
5.63715e-05
5.76121e-05
5.88842e-05
6.01839e-05
6.15038e-05
6.28347e-05
6.41659e-05
6.54865e-05
6.67847e-05
6.80489e-05
6.92682e-05
7.04321e-05
7.15317e-05
7.25882e-05
7.35326e-05
7.43762e-05
7.50981e-05
7.57811e-05
7.64425e-05
7.69446e-05
7.73439e-05
7.76378e-05
7.78207e-05
7.78861e-05
7.78259e-05
7.76309e-05
7.72912e-05
7.67959e-05
7.61346e-05
7.52978e-05
7.42786e-05
7.30744e-05
7.16897e-05
7.01383e-05
6.84464e-05
6.66544e-05
6.48169e-05
6.30003e-05
6.12751e-05
5.97045e-05
5.8329e-05
5.71509e-05
5.61229e-05
5.51442e-05
5.4066e-05
5.26104e-05
4.98491e-05
4.70313e-05
4.39431e-05
3.96077e-05
3.54127e-05
3.11985e-05
2.63218e-05
2.32604e-05
2.15633e-05
1.87487e-05
1.0283e-05
4.24208e-07
6.23689e-07
2.15118e-05
4.34509e-05
5.47998e-05
5.88238e-05
5.93634e-05
5.76898e-05
5.50575e-05
5.24687e-05
5.04168e-05
4.90741e-05
4.84059e-05
4.8274e-05
4.85264e-05
4.90468e-05
4.97579e-05
5.06097e-05
5.15701e-05
5.2619e-05
5.37423e-05
5.49296e-05
5.61723e-05
5.74637e-05
5.87986e-05
6.01716e-05
6.15755e-05
6.30006e-05
6.44348e-05
6.5865e-05
6.72775e-05
6.86586e-05
6.99951e-05
7.1275e-05
7.24877e-05
7.36245e-05
7.47045e-05
7.56896e-05
7.65423e-05
7.7275e-05
7.79481e-05
7.8627e-05
7.91431e-05
7.95563e-05
7.98687e-05
8.00769e-05
8.01752e-05
8.01565e-05
8.00116e-05
7.973e-05
7.92993e-05
7.87063e-05
7.79372e-05
7.69794e-05
7.58228e-05
7.44627e-05
7.29025e-05
7.11579e-05
6.92601e-05
6.72582e-05
6.522e-05
6.32267e-05
6.13632e-05
5.97014e-05
5.82805e-05
5.70885e-05
5.60495e-05
5.50227e-05
5.38085e-05
5.18488e-05
4.86704e-05
4.58992e-05
4.20552e-05
3.71306e-05
3.247e-05
2.76818e-05
2.34931e-05
2.03608e-05
1.85837e-05
1.07288e-05
4.96405e-07
6.31663e-07
2.14954e-05
4.33453e-05
5.48015e-05
5.89776e-05
5.97458e-05
5.80047e-05
5.53507e-05
5.27481e-05
5.07165e-05
4.94261e-05
4.88212e-05
4.87461e-05
4.90466e-05
4.96111e-05
5.03672e-05
5.1268e-05
5.22834e-05
5.3394e-05
5.45862e-05
5.58499e-05
5.71768e-05
5.85601e-05
5.99934e-05
6.14689e-05
6.29762e-05
6.45026e-05
6.6033e-05
6.75515e-05
6.90422e-05
7.04894e-05
7.18793e-05
7.31997e-05
7.4441e-05
7.55965e-05
7.66688e-05
7.76678e-05
7.8527e-05
7.92503e-05
7.98905e-05
8.05615e-05
8.10789e-05
8.14912e-05
8.18086e-05
8.20302e-05
8.21524e-05
8.21693e-05
8.20726e-05
8.18519e-05
8.14944e-05
8.09848e-05
8.03062e-05
7.94409e-05
7.83721e-05
7.70856e-05
7.55741e-05
7.38403e-05
7.19026e-05
6.97993e-05
6.75917e-05
6.53637e-05
6.32148e-05
6.12447e-05
5.9531e-05
5.81046e-05
5.69292e-05
5.58937e-05
5.48204e-05
5.33102e-05
5.0311e-05
4.75596e-05
4.42706e-05
3.91282e-05
3.41804e-05
2.92279e-05
2.40283e-05
2.02076e-05
1.82651e-05
1.12297e-05
5.77155e-07
6.32866e-07
2.13672e-05
4.30521e-05
5.46915e-05
5.91332e-05
5.99199e-05
5.82317e-05
5.55916e-05
5.29986e-05
5.09973e-05
4.97583e-05
4.92103e-05
4.9187e-05
4.95338e-05
5.01435e-05
5.09473e-05
5.19009e-05
5.29754e-05
5.41522e-05
5.54179e-05
5.67626e-05
5.81778e-05
5.9656e-05
6.11886e-05
6.27647e-05
6.43709e-05
6.59907e-05
6.76063e-05
6.91992e-05
7.07515e-05
7.22465e-05
7.36702e-05
7.5011e-05
7.62605e-05
7.7413e-05
7.84652e-05
7.94326e-05
8.03024e-05
8.10086e-05
8.16089e-05
8.22228e-05
8.2733e-05
8.31301e-05
8.34381e-05
8.36601e-05
8.37949e-05
8.38384e-05
8.37841e-05
8.36223e-05
8.33404e-05
8.29225e-05
8.23496e-05
8.16001e-05
8.06512e-05
7.94806e-05
7.80698e-05
7.64082e-05
7.44988e-05
7.23646e-05
7.00543e-05
6.7646e-05
6.52443e-05
6.29695e-05
6.09346e-05
5.92159e-05
5.78225e-05
5.66754e-05
5.56032e-05
5.43448e-05
5.20705e-05
4.89375e-05
4.62346e-05
4.16029e-05
3.5637e-05
3.03588e-05
2.47339e-05
2.04749e-05
1.79661e-05
1.17877e-05
6.60922e-07
6.30389e-07
2.11662e-05
4.27718e-05
5.44232e-05
5.90868e-05
5.99849e-05
5.8381e-05
5.57859e-05
5.3223e-05
5.12594e-05
5.00696e-05
4.95733e-05
4.95981e-05
4.99905e-05
5.06468e-05
5.15011e-05
5.25107e-05
5.36479e-05
5.48942e-05
5.62368e-05
5.76653e-05
5.91708e-05
6.07439e-05
6.23733e-05
6.40451e-05
6.57419e-05
6.74443e-05
6.91315e-05
7.07831e-05
7.23797e-05
7.39044e-05
7.53434e-05
7.66862e-05
7.79256e-05
7.90576e-05
8.0081e-05
8.09966e-05
8.1829e-05
8.25431e-05
8.30857e-05
8.36147e-05
8.4103e-05
8.44711e-05
8.47557e-05
8.49646e-05
8.50993e-05
8.51584e-05
8.51372e-05
8.50279e-05
8.4819e-05
8.44947e-05
8.40351e-05
8.34161e-05
8.26104e-05
8.15886e-05
8.03222e-05
7.87873e-05
7.69709e-05
7.48778e-05
7.2539e-05
7.00188e-05
6.74175e-05
6.48659e-05
6.25061e-05
6.04601e-05
5.87915e-05
5.74743e-05
5.63839e-05
5.53199e-05
5.3617e-05
5.02038e-05
4.77805e-05
4.38122e-05
3.75427e-05
3.19264e-05
2.61008e-05
2.058e-05
1.71792e-05
1.23333e-05
7.36967e-07
6.24164e-07
2.09182e-05
4.22396e-05
5.40083e-05
5.89114e-05
5.99505e-05
5.84607e-05
5.59384e-05
5.34233e-05
5.15031e-05
5.03602e-05
4.99111e-05
4.99813e-05
5.04193e-05
5.11237e-05
5.20307e-05
5.30988e-05
5.43011e-05
5.56193e-05
5.70404e-05
5.85536e-05
6.01486e-05
6.18138e-05
6.35348e-05
6.52941e-05
6.70711e-05
6.88432e-05
7.05874e-05
7.22816e-05
7.39059e-05
7.54437e-05
7.68818e-05
7.82108e-05
7.94252e-05
8.05225e-05
8.15033e-05
8.23706e-05
8.31295e-05
8.38201e-05
8.43286e-05
8.47515e-05
8.5199e-05
8.55261e-05
8.57743e-05
8.59567e-05
8.60785e-05
8.61406e-05
8.61413e-05
8.60749e-05
8.59317e-05
8.56971e-05
8.53515e-05
8.48696e-05
8.4221e-05
8.3371e-05
8.22824e-05
8.09195e-05
7.92532e-05
7.72691e-05
7.49769e-05
7.24209e-05
6.96879e-05
6.6908e-05
6.42423e-05
6.18521e-05
5.98554e-05
5.82787e-05
5.70256e-05
5.58743e-05
5.45162e-05
5.16537e-05
4.89514e-05
4.57949e-05
3.98792e-05
3.32044e-05
2.73657e-05
2.14988e-05
1.66164e-05
1.28494e-05
7.97093e-07
6.14388e-07
2.06122e-05
4.15754e-05
5.34713e-05
5.8619e-05
5.98259e-05
5.84777e-05
5.60528e-05
5.36011e-05
5.17292e-05
5.06308e-05
5.02252e-05
5.0339e-05
5.08224e-05
5.15762e-05
5.25374e-05
5.36656e-05
5.49342e-05
5.6325e-05
5.78245e-05
5.9421e-05
6.11024e-05
6.28543e-05
6.46592e-05
6.64961e-05
6.83411e-05
7.01692e-05
7.19557e-05
7.36776e-05
7.53149e-05
7.68514e-05
7.82751e-05
7.95779e-05
8.07556e-05
8.18073e-05
8.27349e-05
8.35427e-05
8.42366e-05
8.48408e-05
8.53451e-05
8.56667e-05
8.6038e-05
8.63171e-05
8.65178e-05
8.66617e-05
8.67578e-05
8.68105e-05
8.68206e-05
8.67853e-05
8.66972e-05
8.65438e-05
8.63068e-05
8.5961e-05
8.54747e-05
8.48093e-05
8.39213e-05
8.27643e-05
8.1295e-05
7.94796e-05
7.73049e-05
7.47908e-05
7.20026e-05
6.9059e-05
6.61278e-05
6.3402e-05
6.10552e-05
5.91837e-05
5.77587e-05
5.66047e-05
5.54044e-05
5.3169e-05
4.99888e-05
4.73718e-05
4.20724e-05
3.45692e-05
2.84284e-05
2.20583e-05
1.6646e-05
1.31291e-05
8.2932e-07
6.01211e-07
2.0229e-05
4.08402e-05
5.2833e-05
5.82227e-05
5.96199e-05
5.84379e-05
5.61325e-05
5.37579e-05
5.19384e-05
5.08826e-05
5.05175e-05
5.06731e-05
5.12018e-05
5.20053e-05
5.30215e-05
5.42102e-05
5.5545e-05
5.70075e-05
5.85834e-05
6.02598e-05
6.20222e-05
6.38534e-05
6.57328e-05
6.76359e-05
6.95363e-05
7.14071e-05
7.32222e-05
7.49585e-05
7.65962e-05
7.81201e-05
7.95192e-05
8.07866e-05
8.19193e-05
8.29179e-05
8.37856e-05
8.4528e-05
8.51526e-05
8.56686e-05
8.61094e-05
8.64007e-05
8.66501e-05
8.68741e-05
8.70179e-05
8.71128e-05
8.71721e-05
8.72033e-05
8.72103e-05
8.71932e-05
8.71476e-05
8.70636e-05
8.69249e-05
8.6708e-05
8.63811e-05
8.59039e-05
8.52282e-05
8.42998e-05
8.30625e-05
8.14647e-05
7.94703e-05
7.70719e-05
7.43076e-05
7.12746e-05
6.81344e-05
6.50982e-05
6.23856e-05
6.016e-05
5.84629e-05
5.71783e-05
5.60512e-05
5.4429e-05
5.10044e-05
4.86199e-05
4.40172e-05
3.65795e-05
2.95938e-05
2.27976e-05
1.69395e-05
1.32603e-05
8.42081e-07
5.85516e-07
1.98128e-05
4.00233e-05
5.21049e-05
5.77343e-05
5.93407e-05
5.83465e-05
5.61801e-05
5.38953e-05
5.2132e-05
5.11172e-05
5.07897e-05
5.09853e-05
5.15586e-05
5.24115e-05
5.34822e-05
5.47307e-05
5.61302e-05
5.76619e-05
5.93106e-05
6.10614e-05
6.28977e-05
6.47993e-05
6.67424e-05
6.87e-05
7.06435e-05
7.25444e-05
7.43763e-05
7.61159e-05
7.77443e-05
7.9247e-05
8.06141e-05
8.18401e-05
8.2923e-05
8.38644e-05
8.46686e-05
8.53422e-05
8.58942e-05
8.63355e-05
8.66785e-05
8.69269e-05
8.70768e-05
8.72322e-05
8.73112e-05
8.73487e-05
8.73617e-05
8.73608e-05
8.7353e-05
8.73413e-05
8.73245e-05
8.72959e-05
8.7242e-05
8.71417e-05
8.69647e-05
8.66708e-05
8.62095e-05
8.55208e-05
8.45384e-05
8.31951e-05
8.14328e-05
7.92164e-05
7.65527e-05
7.35094e-05
7.02299e-05