/*--------------------------------*- C++ -*----------------------------------*\
  =========                 |
  \\      /  F ield         | OpenFOAM: The Open Source CFD Toolbox
   \\    /   O peration     | Website:  https://openfoam.org
    \\  /    A nd           | Version:  13
     \\/     M anipulation  |
\*---------------------------------------------------------------------------*/
FoamFile
{
    format      ascii;
    class       volScalarField;
    location    "3.1";
    object      p;
}
// * * * * * * * * * * * * * * * * * * * * * * * * * * * * * * * * * * * * * //

dimensions      [0 2 -2 0 0 0 0];

internalField   nonuniform List<scalar> 
6400
(
1.72034e-08
1.2888e-05
1.57703e-05
1.12852e-06
-3.38791e-05
-8.62451e-05
-0.000150425
-0.000220819
-0.000293219
-0.000365795
-0.000438362
-0.000512468
-0.000590909
-0.00067657
-0.000772337
-0.000881137
-0.00100521
-0.0011464
-0.00130615
-0.00148534
-0.0016842
-0.00190348
-0.00214468
-0.00241022
-0.00270379
-0.00302777
-0.00338017
-0.00375692
-0.00414925
-0.00453993
-0.00491843
-0.00528255
-0.00562802
-0.00594976
-0.00624284
-0.00650197
-0.0067212
-0.00689375
-0.00701221
-0.00706881
-0.00705576
-0.00696534
-0.00679038
-0.00652497
-0.00616523
-0.00570996
-0.00515917
-0.00450634
-0.00374441
-0.00289067
-0.00195845
-0.00095293
0.000109248
0.00121065
0.00232763
0.00343406
0.00449939
0.00548995
0.00637081
0.00710832
0.00767302
0.00804394
0.00821109
0.00817722
0.00795835
0.00757589
0.00708561
0.00653034
0.0059621
0.00542924
0.00496059
0.00458485
0.00431701
0.00413803
0.00403159
0.00398179
0.00397071
0.00398246
0.00400568
0.00402729
-1.03524e-05
2.5863e-06
2.925e-06
-1.43705e-05
-5.06845e-05
-0.000102589
-0.000164106
-0.000230172
-0.000297384
-0.000364512
-0.00043182
-0.000501121
-0.000574993
-0.000656018
-0.000747077
-0.00085086
-0.000969843
-0.00110558
-0.00125927
-0.00143157
-0.00162203
-0.00183107
-0.00206057
-0.00231193
-0.00258673
-0.00288802
-0.0032192
-0.0035807
-0.00396823
-0.00437143
-0.00477375
-0.00516229
-0.0055315
-0.0058772
-0.00619417
-0.00647637
-0.00671747
-0.00691052
-0.00704821
-0.00712299
-0.00712761
-0.00705508
-0.00689898
-0.00665374
-0.00631525
-0.00588119
-0.00534968
-0.00471868
-0.00399211
-0.00317765
-0.00227772
-0.00130639
-0.000277848
0.000789542
0.0018737
0.00294864
0.00398427
0.00494853
0.00580958
0.00653684
0.00710235
0.00748461
0.00767355
0.007671
0.00749133
0.00716081
0.00672045
0.00621761
0.00570046
0.00521377
0.00479293
0.00446102
0.00422464
0.0040771
0.00400274
0.00398394
0.00399438
0.00401455
0.00403725
0.00405839
-1.80238e-05
-4.34046e-06
-7.20301e-06
-2.94426e-05
-6.99302e-05
-0.000123027
-0.000182112
-0.000242465
-0.000301892
-0.000360741
-0.00041994
-0.000481536
-0.000548112
-0.000621986
-0.000705374
-0.000800169
-0.00090802
-0.00103089
-0.00117039
-0.00132833
-0.00150693
-0.00170771
-0.00193295
-0.0021861
-0.0024698
-0.00278576
-0.00313423
-0.00351291
-0.00391704
-0.0043387
-0.00476609
-0.00518687
-0.00559113
-0.00597054
-0.00631881
-0.00662969
-0.00689661
-0.00711282
-0.00727151
-0.00736577
-0.0073889
-0.00733481
-0.00719793
-0.00697332
-0.00665733
-0.006248
-0.00574447
-0.00514432
-0.00444855
-0.00366652
-0.00280328
-0.0018693
-0.000877919
0.000153904
0.00120547
0.00225243
0.00326694
0.00421839
0.00507489
0.00580728
0.00638889
0.00679815
0.00702341
0.00706581
0.00693807
0.00666555
0.00628538
0.00584206
0.00538092
0.00494616
0.00457004
0.00427515
0.0040771
0.00396774
0.00392548
0.00393167
0.00396371
0.00400067
0.00403562
0.0040651
-1.67908e-05
-4.2303e-06
-1.1403e-05
-3.96614e-05
-8.55729e-05
-0.000140439
-0.000197578
-0.000252978
-0.000305333
-0.000354645
-0.000403542
-0.000454776
-0.000511266
-0.000575461
-0.000649264
-0.00073431
-0.000832363
-0.000945544
-0.00107641
-0.00122793
-0.00140406
-0.00160931
-0.00184782
-0.00212353
-0.00243772
-0.00279049
-0.00318055
-0.00360338
-0.00405085
-0.00451215
-0.00497655
-0.00543336
-0.00587206
-0.0062834
-0.00666007
-0.00699546
-0.00728325
-0.00751734
-0.00769133
-0.00779906
-0.00783464
-0.00779271
-0.00766847
-0.00745775
-0.00715745
-0.00676568
-0.00628137
-0.00570374
-0.00503459
-0.00427885
-0.00344235
-0.00253444
-0.00156732
-0.00055642
0.000479422
0.0015174
0.00253079
0.00349016
0.00436453
0.00512378
0.00574103
0.00619355
0.00646759
0.00656179
0.00648734
0.0062668
0.00593451
0.00553362
0.0051103
0.00470667
0.00435799
0.00408691
0.00390637
0.00381309
0.00379492
0.0038252
0.00387875
0.00393724
0.00398974
0.0040277
-1.64023e-06
6.18998e-06
-6.92534e-06
-4.15277e-05
-9.28478e-05
-0.000149685
-0.000205163
-0.000255879
-0.000301197
-0.000342365
-0.000382259
-0.000423965
-0.000471122
-0.000526304
-0.000591929
-0.000670285
-0.00076408
-0.000876691
-0.0010126
-0.00117676
-0.0013743
-0.00161037
-0.00188755
-0.00220834
-0.00257408
-0.00298239
-0.00342786
-0.00390297
-0.00439758
-0.00489989
-0.00539905
-0.00588481
-0.00634824
-0.0067817
-0.00717743
-0.00752885
-0.00783013
-0.00807552
-0.00825907
-0.00837511
-0.00841868
-0.00838541
-0.00827129
-0.00807271
-0.00778677
-0.00741161
-0.00694639
-0.00639087
-0.00574627
-0.0050157
-0.00420418
-0.00331977
-0.00237374
-0.00137977
-0.000354311
0.000681429
0.00170179
0.00267924
0.00358432
0.00438577
0.00505602
0.00557084
0.00591339
0.00607637
0.00606813
0.00591018
0.00563343
0.00527764
0.00488896
0.00451123
0.00418091
0.00392285
0.00375038
0.00366413
0.00365167
0.00369178
0.00375908
0.00383321
0.0038992
0.00394259
3.28263e-05
3.23218e-05
1.14148e-05
-3.1442e-05
-8.79556e-05
-0.000146154
-0.000199994
-0.000246809
-0.000286485
-0.000321213
-0.000354421
-0.000389839
-0.000431223
-0.000481951
-0.00054538
-0.000625276
-0.000726227
-0.000853516
-0.00101303
-0.00121139
-0.0014525
-0.00173993
-0.00207673
-0.00246279
-0.00289461
-0.003365
-0.00386534
-0.00438702
-0.00492071
-0.00545623
-0.00598321
-0.0064917
-0.00697362
-0.00742202
-0.00783015
-0.00819201
-0.00850187
-0.00875433
-0.00894422
-0.00906597
-0.00911585
-0.00909098
-0.00898785
-0.0088034
-0.00853508
-0.00818121
-0.00774058
-0.00721281
-0.00659877
-0.0059
-0.00511995
-0.00426509
-0.00334565
-0.00237313
-0.00136206
-0.000332627
0.000693071
0.00168968
0.00262962
0.00348134
0.00421649
0.00480958
0.00524012
0.0054971
0.00558049
0.00550756
0.0053085
0.00501926
0.00468239
0.00434233
0.00403713
0.00379435
0.00362916
0.00354395
0.00352942
0.00356756
0.00363552
0.00371138
0.00378
0.00382345
9.22846e-05
8.10437e-05
4.94502e-05
-3.98693e-06
-6.49645e-05
-0.000124313
-0.000176933
-0.000220982
-0.000257351
-0.000288892
-0.000319582
-0.000353774
-0.000395842
-0.000450228
-0.00052181
-0.000616494
-0.000740673
-0.000901276
-0.00110439
-0.00135523
-0.00165875
-0.00201628
-0.00242625
-0.00288283
-0.00337829
-0.00390487
-0.00445441
-0.00501749
-0.00558465
-0.00614676
-0.00669483
-0.00722019
-0.00771547
-0.00817418
-0.00859048
-0.00895877
-0.00927308
-0.00952855
-0.00972079
-0.00984712
-0.00990532
-0.00989175
-0.00980283
-0.00963595
-0.00938929
-0.0090613
-0.00864978
-0.00815413
-0.00757504
-0.00691463
-0.00617659
-0.00536594
-0.00448804
-0.00355218
-0.00257126
-0.00155928
-0.000534044
0.000479218
0.00145119
0.00235502
0.00316243
0.00384645
0.00438285
0.00475734
0.00496331
0.00500873
0.00491724
0.00472261
0.00446363
0.00418249
0.00391809
0.00370019
0.00354654
0.0034622
0.00344149
0.00346983
0.00352729
0.00359363
0.00365259
0.00368862
0.00018123
0.000157396
0.000111478
4.78083e-05
-1.83566e-05
-7.93107e-05
-0.000131766
-0.00017525
-0.000211663
-0.000244652
-0.000278838
-0.000319289
-0.000371388
-0.000440991
-0.0005348
-0.000660533
-0.000826262
-0.00103806
-0.00130259
-0.00162439
-0.00200453
-0.00243829
-0.00291977
-0.00344204
-0.00399646
-0.00457418
-0.00516658
-0.00576459
-0.00635941
-0.00694273
-0.0075067
-0.00804394
-0.00854786
-0.0090125
-0.00943246
-0.00980222
-0.0101172
-0.0103739
-0.0105699
-0.0107042
-0.010773
-0.0107717
-0.0106977
-0.0105488
-0.0103233
-0.0100205
-0.00963932
-0.00917932
-0.00864126
-0.00802712
-0.00733985
-0.00658267
-0.0057576
-0.00487065
-0.00393174
-0.00295328
-0.00195237
-0.000946473
4.33751e-05
0.000995682
0.00187636
0.00265692
0.00331281
0.00382474
0.00417978
0.00437647
0.00442769
0.00436027
0.00420885
0.00401215
0.00380877
0.00363015
0.00349689
0.00341747
0.00338958
0.00340294
0.00344225
0.00349116
0.00353015
0.00355278
0.000301992
0.000264649
0.000201702
0.000126913
5.50432e-05
-8.61342e-06
-6.28885e-05
-0.000108941
-0.000149963
-0.00019053
-0.000236049
-0.00029251
-0.000366514
-0.000465317
-0.000597345
-0.000771806
-0.000996003
-0.00127629
-0.00161782
-0.00201989
-0.00247776
-0.00298554
-0.00353532
-0.00411816
-0.0047248
-0.00534646
-0.00597462
-0.006601
-0.00721766
-0.00781712
-0.00839239
-0.00893704
-0.00944521
-0.00991149
-0.010331
-0.0107004
-0.0110174
-0.0112784
-0.0114806
-0.0116206
-0.0116951
-0.0117026
-0.0116414
-0.0115099
-0.0113068
-0.0110314
-0.0106833
-0.0102624
-0.00976856
-0.00920282
-0.00856636
-0.00786104
-0.00709099
-0.00626144
-0.00537935
-0.00445384
-0.00349472
-0.00251093
-0.00151994
-0.000548031
0.00038545
0.0012561
0.0020329
0.00269053
0.00321196
0.00358575
0.00381193
0.00390568
0.00389412
0.00381013
0.00369003
0.00356739
0.00346584
0.00339783
0.00336542
0.00336258
0.00337919
0.00340312
0.00341772
0.00342462
0.000457916
0.000403769
0.000321834
0.000233661
0.000154743
8.68166e-05
2.80957e-05
-2.46531e-05
-7.60496e-05
-0.000131724
-0.00019801
-0.000281917
-0.000391135
-0.000534292
-0.000720954
-0.000960197
-0.00125866
-0.00162
-0.00204389
-0.00252658
-0.003061
-0.00363867
-0.00425003
-0.0048859
-0.00553723
-0.00619562
-0.006853
-0.00750178
-0.00813482
-0.00874547
-0.00932758
-0.00987562
-0.0103846
-0.01085
-0.0112682
-0.0116361
-0.0119508
-0.0122097
-0.0124107
-0.0125514
-0.0126298
-0.0126449
-0.0125955
-0.0124806
-0.0122994
-0.0120515
-0.0117365
-0.0113543
-0.0109052
-0.0103897
-0.00980828
-0.0091622
-0.00845379
-0.00768624
-0.00686357
-0.00599085
-0.00507505
-0.00412888
-0.00316434
-0.00219396
-0.00122976
-0.000298975
0.000576517
0.00137294
0.00206054
0.00262255
0.00304675
0.00333213
0.00349264
0.00355238
0.00354118
0.00349262
0.00343522
0.00338618
0.00335318
0.00333542
0.00332834
0.00332373
0.00331417
0.00330624
0.000645336
0.000572085
0.000468352
0.00036408
0.000277046
0.000202749
0.000136085
7.15638e-05
2.98674e-06
-7.64299e-05
-0.000173985
-0.000297554
-0.000455794
-0.000658168
-0.000914242
-0.00123176
-0.00161405
-0.00206049
-0.00256792
-0.00312906
-0.00373448
-0.00437479
-0.00504018
-0.00572158
-0.00641036
-0.0070986
-0.00777876
-0.00844393
-0.00908767
-0.00970414
-0.010288
-0.0108347
-0.0113399
-0.0118001
-0.0122122
-0.0125736
-0.0128823
-0.0131361
-0.0133336
-0.0134733
-0.0135541
-0.013575
-0.0135355
-0.0134349
-0.0132726
-0.0130496
-0.0127647
-0.0124182
-0.0120106
-0.0115421
-0.0110133
-0.0104249
-0.00977833
-0.00907514
-0.00831746
-0.00750787
-0.00665028
-0.00575123
-0.00481789
-0.00385984
-0.00289392
-0.00193193
-0.000986391
-8.59685e-05
0.000749129
0.00149087
0.00211773
0.00261404
0.00297509
0.00320992
0.00333787
0.00338619
0.00338707
0.00336536
0.00333585
0.00330549
0.00327579
0.00324393
0.00321283
0.00319193
0.00085501
0.000763219
0.000634247
0.000513544
0.00041518
0.000331471
0.000252623
0.000170498
7.72013e-05
-3.52075e-05
-0.000174808
-0.000350117
-0.000570437
-0.00084507
-0.00118199
-0.00158543
-0.00205511
-0.00258729
-0.00317488
-0.00380837
-0.00447767
-0.00517298
-0.00588474
-0.00660422
-0.00732326
-0.00803439
-0.00873074
-0.00940601
-0.0100546
-0.0106713
-0.0112519
-0.0117924
-0.0122896
-0.0127404
-0.0131426
-0.0134944
-0.0137941
-0.0140406
-0.0142326
-0.0143694
-0.0144503
-0.0144748
-0.0144427
-0.014354
-0.0142091
-0.0140064
-0.0137476
-0.0134327
-0.0130621
-0.0126362
-0.0121554
-0.0116202
-0.0110312
-0.0103892
-0.00969509
-0.00894988
-0.00815533
-0.00731404
-0.00642918
-0.00550568
-0.00455151
-0.00357618
-0.00259634
-0.00162445
-0.000677313
0.000215145
0.00102851
0.00173582
0.00231385
0.00275081
0.00304939
0.0032247
0.00330405
0.00332083
0.00330008
0.00325924
0.00320879
0.00315275
0.00310421
0.00307305
0.00107896
0.000966583
0.000809771
0.000668938
0.00055843
0.000462257
0.000366524
0.000260557
0.000134767
-1.98073e-05
-0.000211701
-0.000449909
-0.000743335
-0.0010997
-0.00152391
-0.00201632
-0.00257299
-0.00318672
-0.00384817
-0.00454672
-0.00527212
-0.00601459
-0.00676496
-0.00751493
-0.00825687
-0.00898387
-0.00968969
-0.0103688
-0.0110164
-0.0116283
-0.0122009
-0.0127311
-0.0132164
-0.0136546
-0.0140443
-0.0143841
-0.014673
-0.0149102
-0.0150952
-0.0152274
-0.0153067
-0.0153329
-0.015306
-0.0152265
-0.0150946
-0.0149102
-0.014674
-0.0143866
-0.0140485
-0.0136601
-0.0132219
-0.0127343
-0.0121976
-0.0116118
-0.0109771
-0.0102933
-0.00956067
-0.00877933
-0.0079499
-0.00707387
-0.0061539
-0.00519423
-0.00420236
-0.00318851
-0.0021706
-0.0011637
-0.0001967
0.000700334
0.0014928
0.00214727
0.00264313
0.00297806
0.00316592
0.00323889
0.00323631
0.00318832
0.00311873
0.00304159
0.00297943
0.00294029
0.00130375
0.00116943
0.000982871
0.000820373
0.000694812
0.000582432
0.000464829
0.000328676
0.000162714
-4.24311e-05
-0.000295606
-0.000605683
-0.000979835
-0.00142329
-0.00193688
-0.00251688
-0.00315599
-0.00384474
-0.0045724
-0.00532799
-0.00610132
-0.00688286
-0.00766395
-0.00843676
-0.00919426
-0.00993018
-0.0106391
-0.0113162
-0.0119578
-0.0125602
-0.0131209
-0.0136375
-0.0141082
-0.0145318
-0.0149072
-0.0152337
-0.0155106
-0.0157376
-0.0159145
-0.0160412
-0.0161177
-0.0161443
-0.0161211
-0.0160486
-0.0159274
-0.0157579
-0.0155408
-0.0152767
-0.0149664
-0.0146104
-0.0142092
-0.0137632
-0.0132725
-0.012737
-0.0121561
-0.0115291
-0.0108549
-0.0101322
-0.00935967
-0.00853603
-0.00766066
-0.00673401
-0.00575801
-0.00473685
-0.00367941
-0.00259976
-0.00151917
-0.000468489
0.000514266
0.00138334
0.00209331
0.002616
0.00294713
0.00310548
0.00313588
0.00308834
0.00300164
0.00290574
0.00283124
0.00278406
0.00151402
0.00135762
0.00113967
0.000953928
0.000810576
0.000678154
0.000533581
0.000360923
0.000148269
-0.000114089
-0.000435837
-0.000823675
-0.00128265
-0.00181417
-0.00241484
-0.00307747
-0.00379224
-0.00454808
-0.00533353
-0.00613766
-0.0069505
-0.00776295
-0.00856687
-0.00935502
-0.010121
-0.0108595
-0.0115657
-0.012236
-0.0128671
-0.0134566
-0.0140025
-0.0145034
-0.014958
-0.0153658
-0.0157262
-0.0160388
-0.0163034
-0.01652
-0.0166887
-0.0168095
-0.0168827
-0.0169087
-0.016888
-0.0168211
-0.0167086
-0.0165513
-0.01635
-0.0161054
-0.0158184
-0.0154897
-0.01512
-0.0147095
-0.0142585
-0.0137667
-0.0132333
-0.0126572
-0.0120365
-0.011369
-0.010652
-0.00988224
-0.00905672
-0.00817262
-0.0072282
-0.00622336
-0.00516034
-0.00404597
-0.00289526
-0.00173382
-0.000598937
0.00046038
0.00138401
0.00211554
0.00262142
0.00290084
0.00299059
0.0029561
0.00285724
0.00274309
0.0026538
0.00259666
0.00169443
0.00151455
0.00126556
0.00105547
0.000891866
0.000735612
0.000559164
0.000345205
8.1224e-05
-0.000244232
-0.000638713
-0.001107
-0.00165108
-0.00226771
-0.00295012
-0.00368825
-0.00447039
-0.00528448
-0.00611886
-0.0069628
-0.00780672
-0.00864201
-0.00946115
-0.0102576
-0.0110258
-0.0117611
-0.0124599
-0.0131193
-0.0137369
-0.014311
-0.0148405
-0.0153246
-0.0157627
-0.0161545
-0.0164999
-0.016799
-0.0170517
-0.0172583
-0.017419
-0.0175341
-0.017604
-0.0176291
-0.01761
-0.0175475
-0.0174422
-0.0172949
-0.0171065
-0.0168781
-0.0166104
-0.0163045
-0.0159609
-0.0155803
-0.0151627
-0.0147081
-0.0142156
-0.0136838
-0.0131107
-0.0124934
-0.0118284
-0.0111113
-0.0103373
-0.00950137
-0.00859866
-0.00762548
-0.00657984
-0.00546268
-0.00428127
-0.00305349
-0.00181093
-0.00060058
0.000514333
0.00145776
0.00216427
0.00260195
0.00278672
0.00278619
0.0026848
0.00255196
0.00244153
0.00237247
0.00182753
0.00162584
0.00134671
0.00111177
0.00092566
0.000742084
0.000530151
0.000271706
-4.78308e-05
-0.000439148
-0.00090763
-0.00145607
-0.0020816
-0.00277773
-0.00353444
-0.00433941
-0.00517971
-0.00604279
-0.00691705
-0.00779214
-0.0086589
-0.00950936
-0.0103367
-0.0111351
-0.0119001
-0.0126278
-0.0133155
-0.0139611
-0.0145631
-0.0151206
-0.0156331
-0.0161002
-0.016522
-0.0168985
-0.0172298
-0.0175162
-0.017758
-0.0179554
-0.0181089
-0.0182189
-0.0182856
-0.0183098
-0.018292
-0.0182331
-0.0181335
-0.0179944
-0.0178167
-0.0176015
-0.0173497
-0.0170624
-0.0167403
-0.0163842
-0.0159944
-0.0155707
-0.0151126
-0.0146186
-0.0140868
-0.0135139
-0.0128961
-0.0122284
-0.0115048
-0.0107189
-0.00986364
-0.00893237
-0.0079198
-0.00682255
-0.0056415
-0.00438642
-0.00308022
-0.00176347
-0.000496169
0.000641122
0.00155698
0.00218349
0.00250416
0.00256964
0.00247925
0.00232927
0.0021905
0.00210868
0.00190002
0.0016784
0.00137093
0.00111118
0.000900618
0.000686922
0.000437669
0.000132405
-0.000244953
-0.000702325
-0.0012437
-0.00186809
-0.00256918
-0.00333712
-0.00415918
-0.00502146
-0.00591029
-0.00681299
-0.00771823
-0.00861607
-0.00949793
-0.0103565
-0.0111858
-0.011981
-0.0127383
-0.0134549
-0.0141289
-0.014759
-0.0153445
-0.0158851
-0.0163807
-0.0168316
-0.017238
-0.0176003
-0.0179188
-0.0181939
-0.018426
-0.0186154
-0.0187627
-0.0188682
-0.0189323
-0.0189558
-0.018939
-0.0188828
-0.0187883
-0.0186561
-0.0184872
-0.0182828
-0.0180439
-0.0177716
-0.017467
-0.0171307
-0.0167634
-0.016365
-0.0159352
-0.0154729
-0.0149759
-0.0144414
-0.0138653
-0.0132424
-0.0125663
-0.0118296
-0.0110239
-0.0101405
-0.00917119
-0.00810958
-0.00695155
-0.00569959
-0.00436795
-0.00298739
-0.0016114
-0.000317099
0.00079665
0.00163066
0.00212226
0.00228905
0.00223316
0.00207124
0.00189846
0.00180404
0.00190076
0.00166162
0.00132851
0.00104454
0.000808164
0.00056348
0.000275514
-7.85789e-05
-0.000512537
-0.00103373
-0.00164414
-0.00233845
-0.00310734
-0.00393799
-0.00481565
-0.00572534
-0.00665306
-0.00758625
-0.00851392
-0.00942669
-0.0103166
-0.0111772
-0.0120032
-0.0127908
-0.0135371
-0.0142402
-0.014899
-0.0155129
-0.0160818
-0.0166059
-0.0170856
-0.0175214
-0.0179138
-0.0182634
-0.0185706
-0.0188359
-0.0190598
-0.0192425
-0.0193847
-0.0194866
-0.0195488
-0.0195718
-0.0195562
-0.0195027
-0.0194122
-0.0192856
-0.0191239
-0.0189283
-0.0186998
-0.0184397
-0.018149
-0.0178286
-0.0174792
-0.0171012
-0.0166943
-0.0162576
-0.0157896
-0.0152875
-0.0147474
-0.0141641
-0.0135313
-0.0128411
-0.0120844
-0.0112513
-0.0103313
-0.00931533
-0.00819625
-0.00697019
-0.00564335
-0.00423668
-0.00279292
-0.00138365
-0.000103814
0.000931425
0.0016199
0.00192956
0.00193651
0.00177168
0.00156569
0.00145834
0.00182155
0.00156799
0.00121271
0.000905781
0.000643477
0.000367262
3.99128e-05
-0.00036145
-0.000849599
-0.00143111
-0.00210422
-0.00286084
-0.00368855
-0.00457211
-0.00549531
-0.0064426
-0.00739989
-0.0083549
-0.00929711
-0.0102177
-0.0111095
-0.0119669
-0.0127855
-0.0135623
-0.0142953
-0.0149835
-0.0156265
-0.0162241
-0.016777
-0.0172856
-0.0177507
-0.0181729
-0.018553
-0.0188916
-0.0191892
-0.0194464
-0.0196634
-0.0198409
-0.019979
-0.0200783
-0.0201391
-0.020162
-0.0201476
-0.0200966
-0.0200097
-0.0198878
-0.0197321
-0.0195436
-0.0193235
-0.019073
-0.0187933
-0.0184854
-0.0181501
-0.0177881
-0.0173994
-0.0169834
-0.0165389
-0.0160634
-0.0155536
-0.0150047
-0.0144104
-0.0137628
-0.0130527
-0.0122694
-0.0114014
-0.010437
-0.00936676
-0.00818289
-0.00688368
-0.00548112
-0.00400643
-0.00252277
-0.00111901
9.51573e-05
0.00098918
0.001474
0.0015726
0.00142214
0.00119446
0.0010717
0.00165788
0.00139356
0.00102018
0.000692356
0.00040486
9.71234e-05
-0.000268891
-0.000714518
-0.00125288
-0.00188889
-0.00261748
-0.00342775
-0.00430466
-0.00523112
-0.00619001
-0.00716548
-0.0081436
-0.00911246
-0.0100621
-0.0109844
-0.0118729
-0.0127228
-0.0135308
-0.0142946
-0.015013
-0.0156857
-0.0163128
-0.0168949
-0.0174328
-0.0179273
-0.0183793
-0.0187897
-0.0191593
-0.0194886
-0.0197783
-0.0200288
-0.0202406
-0.0204139
-0.0205491
-0.0206466
-0.0207067
-0.02073
-0.0207169
-0.0206681
-0.0205844
-0.0204666
-0.0203159
-0.0201332
-0.0199197
-0.0196769
-0.0194057
-0.0191075
-0.0187833
-0.0184337
-0.0180591
-0.0176593
-0.0172334
-0.0167795
-0.0162948
-0.0157748
-0.0152139
-0.0146045
-0.0139375
-0.0132019
-0.0123857
-0.0114758
-0.01046
-0.00932856
-0.00807399
-0.00669883
-0.00522325
-0.00369949
-0.00221393
-0.000859408
0.000224468
0.000902659
0.00113043
0.0010168
0.000785535
0.000641343
0.00140907
0.00113793
0.000750881
0.000404758
9.31107e-05
-0.000245005
-0.000646726
-0.00113298
-0.00171685
-0.00240034
-0.00317623
-0.00403095
-0.00494731
-0.00590691
-0.00689208
-0.00788698
-0.00887794
-0.00985354
-0.0108044
-0.0117232
-0.0126042
-0.0134435
-0.0142386
-0.014988
-0.0156912
-0.0163485
-0.0169604
-0.017528
-0.0180522
-0.0185341
-0.0189748
-0.0193751
-0.0197358
-0.0200576
-0.0203409
-0.0205864
-0.0207941
-0.0209645
-0.0210978
-0.0211943
-0.0212543
-0.0212783
-0.0212667
-0.0212201
-0.0211392
-0.021025
-0.0208783
-0.0207003
-0.0204922
-0.0202553
-0.0199908
-0.0197001
-0.0193841
-0.019044
-0.0186801
-0.0182928
-0.0178814
-0.0174447
-0.0169802
-0.0164843
-0.0159518
-0.0153758
-0.0147476
-0.0140565
-0.0132902
-0.0124349
-0.0114766
-0.0104032
-0.00920467
-0.00787553
-0.00642412
-0.0048859
-0.00335616
-0.00190553
-0.000660575
0.00021138
0.000596856
0.000548695
0.000331303
0.00016005
0.00107772
0.000804114
0.000407832
4.61652e-05
-0.000287594
-0.000653819
-0.00108788
-0.00161036
-0.00223354
-0.0029572
-0.00377187
-0.0046618
-0.00560816
-0.00659169
-0.00759449
-0.00860088
-0.00959761
-0.0105738
-0.0115207
-0.0124317
-0.013302
-0.0141285
-0.0149092
-0.0156436
-0.0163316
-0.016974
-0.0175717
-0.0181259
-0.018638
-0.0191089
-0.0195399
-0.0199318
-0.0202854
-0.0206012
-0.0208797
-0.0211214
-0.0213263
-0.0214949
-0.0216271
-0.0217233
-0.0217837
-0.0218087
-0.0217987
-0.0217543
-0.021676
-0.0215648
-0.0214216
-0.0212475
-0.0210436
-0.0208113
-0.0205519
-0.0202667
-0.019957
-0.0196239
-0.0192681
-0.0188901
-0.0184899
-0.0180664
-0.017618
-0.0171417
-0.0166329
-0.0160856
-0.0154917
-0.014841
-0.0141215
-0.0133191
-0.0124188
-0.0114063
-0.0102699
-0.00899967
-0.00759391
-0.00606842
-0.00451197
-0.00300952
-0.00164388
-0.000596123
-3.77181e-05
1.42035e-05
-0.00017706
-0.000381628
0.000669841
0.000397763
-3.23245e-06
-0.00037752
-0.000730968
-0.00112179
-0.00158425
-0.00213828
-0.00279424
-0.00355044
-0.00439542
-0.00531166
-0.00627916
-0.00727819
-0.00829084
-0.00930175
-0.0102982
-0.0112697
-0.0122085
-0.0131085
-0.0139658
-0.0147778
-0.0155435
-0.0162627
-0.016936
-0.0175643
-0.018149
-0.0186914
-0.0191928
-0.0196544
-0.0200773
-0.0204624
-0.0208103
-0.0211216
-0.0213966
-0.0216356
-0.0218388
-0.0220064
-0.0221383
-0.0222349
-0.0222962
-0.0223225
-0.0223143
-0.0222719
-0.0221961
-0.0220876
-0.0219473
-0.0217763
-0.0215757
-0.021347
-0.0210914
-0.0208103
-0.0205051
-0.020177
-0.019827
-0.0194559
-0.0190639
-0.0186506
-0.0182147
-0.017754
-0.0172648
-0.0167418
-0.0161776
-0.0155631
-0.0148864
-0.014134
-0.0132903
-0.0123396
-0.0112681
-0.0100639
-0.0087188
-0.00723742
-0.0056646
-0.00414249
-0.00270415
-0.00151498
-0.000782597
-0.000598247
-0.000748135
-0.000993425
0.000194446
-7.35371e-05
-0.000474744
-0.000858186
-0.00122836
-0.00164035
-0.00212712
-0.00270715
-0.0033894
-0.00417064
-0.00503782
-0.00597209
-0.0069527
-0.00795972
-0.00897544
-0.00998492
-0.0109759
-0.0119387
-0.012866
-0.0137527
-0.0145953
-0.0153922
-0.0161426
-0.016847
-0.0175063
-0.0181216
-0.0186946
-0.0192265
-0.0197187
-0.0201725
-0.0205889
-0.0209686
-0.0213122
-0.0216201
-0.0218928
-0.0221302
-0.0223326
-0.0224999
-0.0226323
-0.0227297
-0.0227922
-0.0228201
-0.0228138
-0.0227735
-0.0226999
-0.0225938
-0.022456
-0.0222875
-0.0220896
-0.0218635
-0.0216107
-0.0213325
-0.0210304
-0.0207058
-0.0203598
-0.0199936
-0.0196075
-0.0192017
-0.0187754
-0.0183271
-0.0178537
-0.0173509
-0.0168122
-0.0162294
-0.0155915
-0.0148853
-0.0140955
-0.0132055
-0.0121995
-0.0110651
-0.00978998
-0.00836861
-0.00681233
-0.00528045
-0.00381516
-0.00252623
-0.00163883
-0.00130936
-0.00139746
-0.00169232
-0.000338291
-0.000600033
-0.000997034
-0.00138622
-0.00177007
-0.00219976
-0.00270649
-0.00330707
-0.00400923
-0.0048084
-0.00569027
-0.0066351
-0.00762172
-0.00863024
-0.0096433
-0.0106464
-0.0116279
-0.0125787
-0.0134922
-0.0143638
-0.0151909
-0.0159723
-0.0167077
-0.017398
-0.0180442
-0.0186477
-0.0192102
-0.019733
-0.0202176
-0.0206649
-0.021076
-0.0214516
-0.0217921
-0.0220978
-0.0223691
-0.0226058
-0.0228081
-0.0229759
-0.0231092
-0.0232078
-0.023272
-0.0233017
-0.0232973
-0.0232591
-0.0231877
-0.0230837
-0.022948
-0.0227817
-0.0225858
-0.0223616
-0.0221107
-0.0218344
-0.0215344
-0.021212
-0.0208686
-0.0205055
-0.0201235
-0.0197231
-0.019304
-0.0188652
-0.0184044
-0.0179183
-0.0174013
-0.016846
-0.0162425
-0.0155785
-0.014839
-0.0140072
-0.0130661
-0.0120018
-0.0107997
-0.00944876
-0.00795253
-0.00640876
-0.00494709
-0.0036022
-0.0025916
-0.00212513
-0.00214078
-0.00248389
-0.000917435
-0.00117045
-0.0015597
-0.00195154
-0.00234606
-0.00278997
-0.00331206
-0.00392795
-0.00464402
-0.00545457
-0.00634442
-0.00729327
-0.00827982
-0.00928439
-0.01029
-0.0112828
-0.0122516
-0.0131881
-0.0140861
-0.0149418
-0.015753
-0.016519
-0.01724
-0.0179169
-0.0185511
-0.0191441
-0.0196974
-0.0202124
-0.0206905
-0.0211327
-0.0215397
-0.0219122
-0.0222506
-0.0225551
-0.0228257
-0.0230625
-0.0232654
-0.0234342
-0.0235688
-0.0236691
-0.0237351
-0.0237668
-0.0237644
-0.0237283
-0.023659
-0.023557
-0.0234231
-0.0232585
-0.0230641
-0.0228414
-0.0225917
-0.0223166
-0.0220176
-0.0216965
-0.0213546
-0.0209933
-0.0206139
-0.0202171
-0.0198032
-0.0193716
-0.0189208
-0.0184482
-0.0179493
-0.0174177
-0.0168446
-0.0162186
-0.0155254
-0.0147486
-0.0138705
-0.012875
-0.0117486
-0.0104766
-0.00905485
-0.00751792
-0.0060794
-0.00472414
-0.00362708
-0.00303394
-0.00297592
-0.0033577
-0.00153126
-0.00177331
-0.00215218
-0.002544
-0.00294603
-0.00340037
-0.00393355
-0.00455986
-0.00528439
-0.00610053
-0.00699251
-0.0079398
-0.00892122
-0.00991741
-0.0109119
-0.0118914
-0.0128452
-0.0137657
-0.0146473
-0.0154866
-0.0162821
-0.0170332
-0.0177404
-0.018405
-0.0190283
-0.0196118
-0.0201571
-0.0206656
-0.0211384
-0.0215764
-0.0219804
-0.0223508
-0.0226879
-0.0229918
-0.0232626
-0.0235
-0.023704
-0.0238742
-0.0240106
-0.0241128
-0.0241809
-0.0242147
-0.0242145
-0.0241805
-0.0241131
-0.0240129
-0.0238807
-0.0237174
-0.0235243
-0.0233025
-0.0230535
-0.0227789
-0.0224804
-0.0221596
-0.0218183
-0.0214579
-0.0210799
-0.0206853
-0.0202748
-0.0198485
-0.0194055
-0.0189438
-0.01846
-0.0179486
-0.0174019
-0.0168097
-0.0161586
-0.0154328
-0.0146145
-0.0136865
-0.0126364
-0.0114482
-0.0101083
-0.00861084
-0.00718342
-0.00585844
-0.00471748
-0.00401602
-0.00389032
-0.00430293
-0.00216782
-0.00239756
-0.00276376
-0.00315266
-0.00355921
-0.00402058
-0.00456098
-0.00519335
-0.00592153
-0.00673825
-0.00762745
-0.00856861
-0.00954082
-0.0105252
-0.0115058
-0.0124697
-0.013407
-0.0143105
-0.0151753
-0.0159983
-0.0167784
-0.0175153
-0.0182097
-0.018863
-0.0194764
-0.0200517
-0.0205901
-0.021093
-0.0215615
-0.0219963
-0.0223981
-0.0227672
-0.0231038
-0.0234078
-0.0236792
-0.0239178
-0.0241233
-0.0242953
-0.0244336
-0.024538
-0.0246083
-0.0246444
-0.0246464
-0.0246145
-0.024549
-0.0244505
-0.0243198
-0.0241577
-0.0239654
-0.0237442
-0.0234955
-0.023221
-0.0229224
-0.0226014
-0.0222598
-0.0218994
-0.0215218
-0.0211284
-0.0207201
-0.0202975
-0.0198603
-0.0194073
-0.0189358
-0.0184415
-0.0179177
-0.0173553
-0.0167421
-0.0160631
-0.0153008
-0.0144376
-0.0134596
-0.0123511
-0.0110961
-0.00968901
-0.0082583
-0.00697342
-0.00582584
-0.00504514
-0.00486586
-0.00528309
-0.00281565
-0.00303198
-0.00338349
-0.00376696
-0.00417535
-0.00464074
-0.00518497
-0.00581957
-0.00654732
-0.00736046
-0.00824287
-0.00917427
-0.0101341
-0.0111041
-0.0120687
-0.0130157
-0.0139357
-0.0148219
-0.0156698
-0.016477
-0.0172423
-0.0179658
-0.0186484
-0.0192914
-0.0198961
-0.020464
-0.0209966
-0.0214949
-0.0219599
-0.0223924
-0.0227927
-0.0231611
-0.0234977
-0.0238023
-0.0240749
-0.024315
-0.0245223
-0.0246964
-0.0248369
-0.0249437
-0.0250163
-0.0250547
-0.0250589
-0.0250291
-0.0249654
-0.0248686
-0.0247392
-0.0245781
-0.0243865
-0.0241656
-0.0239169
-0.0236421
-0.0233429
-0.0230211
-0.0226788
-0.0223177
-0.0219398
-0.0215466
-0.0211394
-0.0207193
-0.0202864
-0.0198401
-0.0193787
-0.0188986
-0.0183945
-0.0178583
-0.017279
-0.0166426
-0.0159324
-0.0151304
-0.0142208
-0.0131897
-0.0120204
-0.010708
-0.00929638
-0.00805645
-0.00692629
-0.00609462
-0.00586912
-0.00624096
-0.00346386
-0.00366578
-0.00400105
-0.00437714
-0.00478499
-0.00525175
-0.00579687
-0.00643051
-0.00715447
-0.00796067
-0.00883315
-0.00975203
-0.0106973
-0.0116511
-0.0125985
-0.0135278
-0.0144301
-0.015299
-0.0161305
-0.0169224
-0.0176738
-0.0183849
-0.0190567
-0.0196904
-0.0202873
-0.020849
-0.0213766
-0.0218711
-0.0223334
-0.0227641
-0.0231636
-0.0235318
-0.0238689
-0.0241746
-0.0244486
-0.0246904
-0.0248998
-0.0250762
-0.0252191
-0.0253283
-0.0254033
-0.0254441
-0.0254506
-0.0254228
-0.025361
-0.0252656
-0.0251375
-0.0249773
-0.0247861
-0.0245654
-0.0243164
-0.024041
-0.0237409
-0.0234181
-0.0230745
-0.0227123
-0.0223334
-0.0219396
-0.0215327
-0.0211139
-0.020684
-0.0202429
-0.0197895
-0.0193214
-0.018834
-0.0183205
-0.0177712
-0.0171731
-0.0165106
-0.0157659
-0.0149219
-0.0139676
-0.012887
-0.0116653
-0.0102949
-0.00908306
-0.00799398
-0.00713826
-0.00686094
-0.00716083
-0.00410231
-0.00428917
-0.0046071
-0.0049742
-0.00537948
-0.00584535
-0.0063889
-0.00701897
-0.00773649
-0.00853314
-0.00939335
-0.0102978
-0.0112269
-0.0121634
-0.013093
-0.0140044
-0.0148892
-0.0157413
-0.0165571
-0.0173345
-0.0180729
-0.0187727
-0.0194346
-0.02006
-0.0206501
-0.0212063
-0.0217297
-0.0222212
-0.0226815
-0.023111
-0.0235101
-0.0238786
-0.0242165
-0.0245235
-0.0247991
-0.025043
-0.0252546
-0.0254333
-0.0255788
-0.0256904
-0.0257679
-0.0258111
-0.0258198
-0.025794
-0.025734
-0.0256401
-0.0255131
-0.0253537
-0.0251629
-0.0249421
-0.0246928
-0.0244166
-0.0241154
-0.0237911
-0.023446
-0.0230822
-0.0227018
-0.022307
-0.0218996
-0.0214813
-0.0210533
-0.0206159
-0.0201689
-0.0197106
-0.0192373
-0.0187434
-0.0182204
-0.0176566
-0.0170371
-0.0163449
-0.0155628
-0.0146799
-0.0136808
-0.0125489
-0.0112655
-0.0100599
-0.00901043
-0.00815199
-0.00782267
-0.00805796
-0.00472174
-0.00489311
-0.00519307
-0.00554998
-0.00595107
-0.00641419
-0.00695418
-0.00757868
-0.00828782
-0.0090729