/*--------------------------------*- C++ -*----------------------------------*\
  =========                 |
  \\      /  F ield         | OpenFOAM: The Open Source CFD Toolbox
   \\    /   O peration     | Website:  https://openfoam.org
    \\  /    A nd           | Version:  13
     \\/     M anipulation  |
\*---------------------------------------------------------------------------*/
FoamFile
{
    format      ascii;
    class       surfaceScalarField;
    location    "3.1";
    object      phi;
}
// * * * * * * * * * * * * * * * * * * * * * * * * * * * * * * * * * * * * * //

dimensions      [0 3 -1 0 0 0 0];

internalField   nonuniform List<scalar> 
12640
(
2.48007e-09
-2.48041e-09
1.37018e-08
-1.12218e-08
3.14934e-08
-1.77916e-08
5.13685e-08
-1.9875e-08
6.93755e-08
-1.80071e-08
8.33249e-08
-1.39493e-08
9.245e-08
-9.12516e-09
9.72697e-08
-4.81967e-09
9.8998e-08
-1.72831e-09
9.89467e-08
5.13113e-11
9.81826e-08
7.64071e-10
9.74414e-08
7.41212e-10
9.70581e-08
3.83251e-10
9.70133e-08
4.47975e-11
9.70678e-08
-5.44793e-11
9.68193e-08
2.48499e-10
9.58163e-08
1.00301e-09
9.35109e-08
2.30538e-09
8.92661e-08
4.24478e-09
8.243e-08
6.83614e-09
7.25093e-08
9.92074e-09
5.90602e-08
1.34491e-08
4.18277e-08
1.72325e-08
2.07113e-08
2.11164e-08
-4.25537e-09
2.49667e-08
-3.33005e-08
2.90452e-08
-6.71428e-08
3.38422e-08
-1.06866e-07
3.97234e-08
-1.54032e-07
4.71661e-08
-2.10263e-07
5.62304e-08
-2.75848e-07
6.5585e-08
-3.49604e-07
7.37563e-08
-4.29777e-07
8.0173e-08
-5.14564e-07
8.47866e-08
-6.02083e-07
8.75191e-08
-6.90512e-07
8.84297e-08
-7.78158e-07
8.76455e-08
-8.63496e-07
8.53383e-08
-9.452e-07
8.17033e-08
-1.02213e-06
7.69263e-08
-1.09332e-06
7.11947e-08
-1.15795e-06
6.46335e-08
-1.2153e-06
5.73451e-08
-1.2647e-06
4.93996e-08
-1.30552e-06
4.08243e-08
-1.33713e-06
3.16084e-08
-1.35883e-06
2.16992e-08
-1.37058e-06
1.17449e-08
-1.37228e-06
1.70172e-09
-1.36212e-06
-1.01595e-08
-1.34061e-06
-2.15113e-08
-1.3067e-06
-3.39026e-08
-1.26039e-06
-4.63145e-08
-1.20145e-06
-5.89412e-08
-1.13007e-06
-7.13789e-08
-1.04667e-06
-8.33954e-08
-9.5207e-07
-9.46044e-08
-8.47263e-07
-1.04806e-07
-7.33427e-07
-1.13836e-07
-6.12234e-07
-1.21193e-07
-4.85964e-07
-1.2627e-07
-3.57454e-07
-1.2851e-07
-2.29965e-07
-1.27488e-07
-1.07117e-07
-1.22849e-07
7.21615e-09
-1.14333e-07
1.09787e-07
-1.02571e-07
1.96105e-07
-8.63178e-08
2.62926e-07
-6.68212e-08
3.07672e-07
-4.47465e-08
3.28913e-07
-2.12412e-08
3.26588e-07
2.32564e-09
3.02763e-07
2.38251e-08
2.60665e-07
4.20973e-08
2.06195e-07
5.44702e-08
1.48702e-07
5.74931e-08
9.54748e-08
5.32272e-08
5.18007e-08
4.36741e-08
2.05592e-08
3.12415e-08
3.56195e-09
1.69973e-08
3.56195e-09
9.67276e-09
-1.21532e-08
3.51959e-08
-3.67449e-08
6.85754e-08
-5.11711e-08
1.02026e-07
-5.3326e-08
1.30654e-07
-4.66351e-08
1.52158e-07
-3.54528e-08
1.66203e-07
-2.31703e-08
1.73433e-07
-1.20497e-08
1.74944e-07
-3.23904e-09
1.71945e-07
3.05032e-09
1.65668e-07
7.04119e-09
1.56912e-07
9.49695e-09
1.46035e-07
1.12605e-08
1.32906e-07
1.31738e-08
1.17007e-07
1.58442e-08
9.77046e-08
1.95508e-08
7.42786e-08
2.4429e-08
4.58666e-08
3.07174e-08
1.14967e-08
3.86146e-08
-2.99622e-08
4.82951e-08
-7.99253e-08
5.98838e-08
-1.39523e-07
7.30469e-08
-2.09508e-07
8.72172e-08
-2.90538e-07
1.02147e-07
-3.83084e-07
1.17513e-07
-4.87048e-07
1.33009e-07
-6.01288e-07
1.48083e-07
-7.23598e-07
1.62033e-07
-8.50932e-07
1.745e-07
-9.79663e-07
1.84962e-07
-1.10685e-06
1.9277e-07
-1.23094e-06
1.97847e-07
-1.35057e-06
1.99801e-07
-1.46438e-06
1.98603e-07
-1.57124e-06
1.94376e-07
-1.67024e-06
1.87425e-07
-1.76073e-06
1.78139e-07
-1.84224e-06
1.66845e-07
-1.91442e-06
1.53883e-07
-1.977e-06
1.39514e-07
-2.02979e-06
1.23983e-07
-2.0726e-06
1.07442e-07
-2.10526e-06
9.00071e-08
-2.12763e-06
7.17651e-08
-2.13955e-06
5.2751e-08
-2.14092e-06
3.29765e-08
-2.13157e-06
1.23477e-08
-2.11099e-06
-8.83177e-09
-2.07889e-06
-3.04008e-08
-2.03567e-06
-5.33844e-08
-1.98043e-06
-7.67506e-08
-1.91354e-06
-1.00793e-07
-1.83465e-06
-1.252e-07
-1.74381e-06
-1.49782e-07
-1.64101e-06
-1.74175e-07
-1.52649e-06
-1.97919e-07
-1.40064e-06
-2.2045e-07
-1.26432e-06
-2.41129e-07
-1.11896e-06
-2.59197e-07
-9.66482e-07
-2.73673e-07
-8.08993e-07
-2.83759e-07
-6.49021e-07
-2.88483e-07
-4.89474e-07
-2.87035e-07
-3.33552e-07
-2.7877e-07
-1.84626e-07
-2.63259e-07
-4.67227e-08
-2.40474e-07
7.72566e-08
-2.10297e-07
1.8388e-07
-1.73444e-07
2.70164e-07
-1.31031e-07
3.33717e-07
-8.47937e-08
3.72919e-07
-3.68767e-08
3.87121e-07
9.62341e-09
3.76078e-07
5.31403e-08
3.42132e-07
8.84155e-08
2.86861e-07
1.12764e-07
2.16704e-07
1.23384e-07
1.41673e-07
1.18706e-07
7.32049e-08
9.97092e-08
2.26635e-08
6.75386e-08
2.62254e-08
1.61451e-08
-2.82983e-08
5.0296e-08
-7.08957e-08
8.75365e-08
-8.84116e-08
1.20036e-07
-8.58252e-08
1.45083e-07
-7.1682e-08
1.6215e-07
-5.25205e-08
1.71643e-07
-3.26634e-08
1.74119e-07
-1.45253e-08
1.70309e-07
5.7049e-10
1.60845e-07
1.25147e-08
1.46458e-07
2.14285e-08
1.2744e-07
2.85147e-08
1.03625e-07
3.50759e-08
7.4485e-08
4.23134e-08
3.92307e-08
5.10985e-08
-3.18366e-09
6.19651e-08
-5.40047e-08
7.525e-08
-1.14399e-07
9.11121e-08
-1.8542e-07
1.09635e-07
-2.67861e-07
1.30736e-07
-3.62059e-07
1.54082e-07
-4.6792e-07
1.78908e-07
-5.84957e-07
2.04254e-07
-7.11943e-07
2.29133e-07
-8.46794e-07
2.52364e-07
-9.86759e-07
2.72973e-07
-1.12882e-06
2.90142e-07
-1.2701e-06
3.03311e-07
-1.40792e-06
3.12324e-07
-1.54e-06
3.17042e-07
-1.66467e-06
3.17443e-07
-1.78058e-06
3.13758e-07
-1.88698e-06
3.06202e-07
-1.98365e-06
2.95271e-07
-2.07065e-06
2.81377e-07
-2.14807e-06
2.64847e-07
-2.21607e-06
2.46135e-07
-2.27481e-06
2.25589e-07
-2.32446e-06
2.03526e-07
-2.36512e-06
1.80178e-07
-2.39691e-06
1.55767e-07
-2.41987e-06
1.3041e-07
-2.43403e-06
1.04167e-07
-2.43934e-06
7.7068e-08
-2.43567e-06
4.90836e-08
-2.42286e-06
2.01655e-08
-2.40083e-06
-9.68419e-09
-2.36923e-06
-4.04266e-08
-2.32744e-06
-7.21941e-08
-2.27568e-06
-1.05145e-07
-2.21342e-06
-1.39005e-07
-2.14047e-06
-1.73747e-07
-2.05658e-06
-2.09093e-07
-1.96159e-06
-2.44764e-07
-1.85547e-06
-2.80299e-07
-1.73834e-06
-3.15052e-07
-1.61058e-06
-3.4821e-07
-1.47285e-06
-3.78857e-07
-1.3262e-06
-4.05847e-07
-1.17206e-06
-4.27814e-07
-1.01237e-06
-4.4345e-07
-8.49416e-07
-4.51434e-07
-6.85985e-07
-4.50467e-07
-5.25148e-07
-4.39606e-07
-3.7016e-07
-4.18247e-07
-2.24176e-07
-3.86458e-07
-9.03423e-08
-3.44131e-07
2.83439e-08
-2.9213e-07
1.29494e-07
-2.32181e-07
2.11008e-07
-1.66308e-07
2.71571e-07
-9.74387e-08
3.09907e-07
-2.87135e-08
3.25888e-07
3.71595e-08
3.18511e-07
9.57929e-08
2.88772e-07
1.42503e-07
2.39386e-07
1.7277e-07
1.7474e-07
1.83351e-07
1.03232e-07
1.71218e-07
3.73756e-08
1.33395e-07
6.36011e-08
2.06282e-08
-4.89265e-08
5.76648e-08
-1.07932e-07
9.20761e-08
-1.22823e-07
1.18229e-07
-1.11978e-07
1.35525e-07
-8.89784e-08
1.44742e-07
-6.17368e-08
1.46549e-07
-3.44705e-08
1.41477e-07
-9.45373e-09
1.29773e-07
1.2275e-08
1.11672e-07
3.06155e-08
8.68625e-08
4.62377e-08
5.49966e-08
6.03805e-08
1.54634e-08
7.46092e-08
-3.24762e-08
9.0253e-08
-8.97306e-08
1.08353e-07
-1.57344e-07
1.29578e-07
-2.36304e-07
1.54211e-07
-3.27391e-07
1.82199e-07
-4.30994e-07
2.13239e-07
-5.46837e-07
2.46579e-07
-6.73882e-07
2.81126e-07
-8.1037e-07
3.15396e-07
-9.53709e-07
3.47594e-07
-1.101e-06
3.76424e-07
-1.24919e-06
4.00558e-07
-1.3954e-06
4.19181e-07
-1.537e-06
4.31737e-07
-1.67165e-06
4.37962e-07
-1.79752e-06
4.38191e-07
-1.91361e-06
4.33138e-07
-2.01961e-06
4.23446e-07
-2.11551e-06
4.09652e-07
-2.20162e-06
3.92314e-07
-2.27828e-06
3.71935e-07
-2.34593e-06
3.49024e-07
-2.40503e-06
3.23948e-07
-2.45598e-06
2.97083e-07
-2.4991e-06
2.68706e-07
-2.53463e-06
2.39059e-07
-2.56276e-06
2.08311e-07
-2.5836e-06
1.76603e-07
-2.59718e-06
1.43996e-07
-2.6035e-06
1.1048e-07
-2.60244e-06
7.60096e-08
-2.59384e-06
4.04888e-08
-2.5775e-06
3.82163e-09
-2.55317e-06
-3.40112e-08
-2.5205e-06
-7.30966e-08
-2.47913e-06
-1.13563e-07
-2.42881e-06
-1.55467e-07
-2.3691e-06
-1.9872e-07
-2.29964e-06
-2.43201e-07
-2.22011e-06
-2.88622e-07
-2.13021e-06
-3.34667e-07
-2.02968e-06
-3.80833e-07
-1.91838e-06
-4.26349e-07
-1.79644e-06
-4.70151e-07
-1.6642e-06
-5.11093e-07
-1.52231e-06
-5.47745e-07
-1.3718e-06
-5.78322e-07
-1.21422e-06
-6.01023e-07
-1.0516e-06
-6.14061e-07
-8.86447e-07
-6.15618e-07
-7.21852e-07
-6.04201e-07
-5.61335e-07
-5.78765e-07
-4.08356e-07
-5.39437e-07
-2.65929e-07
-4.86558e-07
-1.37093e-07
-4.20966e-07
-2.45589e-08
-3.44716e-07
6.97449e-08
-2.60612e-07
1.44303e-07
-1.71997e-07
1.98214e-07
-8.26242e-08
2.31771e-07
3.60192e-09
2.44615e-07
8.29493e-08
2.36753e-07
1.50365e-07
2.08581e-07
2.00942e-07
1.62746e-07
2.29187e-07
1.03626e-07
2.30337e-07
4.04597e-08
1.96561e-07
1.04061e-07
2.32012e-08
-7.21277e-08
5.81244e-08
-1.42856e-07
8.54956e-08
-1.50194e-07
1.02913e-07
-1.29395e-07
1.11001e-07
-9.70666e-08
1.11063e-07
-6.17992e-08
1.03787e-07
-2.71939e-08
8.94061e-08
4.92684e-09
6.77674e-08
3.39136e-08
3.84556e-08
5.99273e-08
7.66568e-10
8.39267e-08
-4.62018e-08
1.07349e-07
-1.03269e-07
1.31677e-07
-1.71321e-07
1.58305e-07
-2.51173e-07
1.88205e-07
-3.43468e-07
2.21873e-07
-4.48533e-07
2.59275e-07
-5.66126e-07
2.99792e-07
-6.95302e-07
3.42415e-07
-8.34257e-07
3.85533e-07
-9.8029e-07
4.2716e-07
-1.13044e-06
4.65546e-07
-1.28151e-06
4.98659e-07
-1.43044e-06
5.25357e-07
-1.57429e-06
5.44414e-07
-1.71033e-06
5.55221e-07
-1.83686e-06
5.58265e-07
-1.95327e-06
5.54374e-07
-2.05951e-06
5.44427e-07
-2.15579e-06
5.2942e-07
-2.24252e-06
5.10172e-07
-2.32028e-06
4.87409e-07
-2.38965e-06
4.61684e-07
-2.45115e-06
4.33436e-07
-2.50525e-06
4.03127e-07
-2.55239e-06
3.71091e-07
-2.59292e-06
3.37609e-07
-2.62712e-06
3.0291e-07
-2.65522e-06
2.67152e-07
-2.67729e-06
2.30386e-07
-2.6934e-06
1.92713e-07
-2.70357e-06
1.54163e-07
-2.70774e-06
1.14649e-07
-2.7058e-06
7.40718e-08
-2.69759e-06
3.22763e-08
-2.68286e-06
-1.09056e-08
-2.6613e-06
-5.55763e-08
-2.63252e-06
-1.01871e-07
-2.59623e-06
-1.49855e-07
-2.55208e-06
-1.99616e-07
-2.49957e-06
-2.51235e-07
-2.43816e-06
-3.04607e-07
-2.36743e-06
-3.59346e-07
-2.28698e-06
-4.15126e-07
-2.19631e-06
-4.71497e-07
-2.09498e-06
-5.27682e-07
-1.98278e-06
-5.82346e-07
-1.85974e-06
-6.3413e-07
-1.72599e-06
-6.815e-07
-1.58217e-06
-7.2214e-07
-1.42934e-06
-7.53857e-07
-1.26911e-06
-7.74284e-07
-1.10358e-06
-7.81156e-07
-9.3549e-07
-7.72287e-07
-7.68276e-07
-7.45979e-07
-6.0623e-07
-7.01483e-07
-4.5309e-07
-6.39698e-07
-3.12022e-07
-5.62034e-07
-1.86109e-07
-4.70629e-07
-7.7915e-08
-3.68806e-07
1.08216e-08
-2.60734e-07
7.92446e-08
-1.51047e-07
1.27199e-07
-4.43523e-08
1.55386e-07
5.47618e-08
1.64265e-07
1.41486e-07
1.54507e-07
2.107e-07
1.27107e-07
2.56586e-07
8.46166e-08
2.72828e-07
3.39323e-08
2.47246e-07
1.37993e-07
2.38494e-08
-9.59771e-08
5.25889e-08
-1.71595e-07
7.03505e-08
-1.67956e-07
7.73527e-08
-1.36397e-07
7.53542e-08
-9.50681e-08
6.54587e-08
-5.19038e-08
4.80686e-08
-9.80377e-09
2.30193e-08
2.99762e-08
-1.02201e-08
6.7153e-08
-5.25197e-08
1.02227e-07
-1.0488e-07
1.36287e-07
-1.68287e-07
1.70756e-07
-2.43654e-07
2.07044e-07
-3.31648e-07
2.46298e-07
-4.32615e-07
2.89172e-07
-5.4645e-07
3.35708e-07
-6.72424e-07
3.8525e-07
-8.09009e-07
4.36376e-07
-9.53786e-07
4.87193e-07
-1.10391e-06
5.35661e-07
-1.256e-06
5.79246e-07
-1.40668e-06
6.16231e-07
-1.55258e-06
6.44559e-07
-1.69042e-06
6.63193e-07
-1.81834e-06
6.7233e-07
-1.93582e-06
6.72703e-07
-2.04301e-06
6.65454e-07
-2.14037e-06
6.51739e-07
-2.22857e-06
6.3262e-07
-2.3082e-06
6.09052e-07
-2.37985e-06
5.81825e-07
-2.4441e-06
5.5166e-07
-2.50147e-06
5.19056e-07
-2.55247e-06
4.84427e-07
-2.59748e-06
4.48144e-07
-2.63685e-06
4.10463e-07
-2.67084e-06
3.71597e-07
-2.69968e-06
3.31744e-07
-2.72355e-06
2.91024e-07
-2.74246e-06
2.49292e-07
-2.75642e-06
2.06673e-07
-2.76549e-06
1.63235e-07
-2.76962e-06
1.18781e-07
-2.76873e-06
7.31852e-08
-2.76272e-06
2.62653e-08
-2.75146e-06
-2.21719e-08
-2.7347e-06
-7.23351e-08
-2.71207e-06
-1.24502e-07
-2.6831e-06
-1.7882e-07
-2.64735e-06
-2.35366e-07
-2.60436e-06
-2.94222e-07
-2.55346e-06
-3.5551e-07
-2.49402e-06
-4.18793e-07
-2.42548e-06
-4.83656e-07
-2.34741e-06
-5.49576e-07
-2.25912e-06
-6.15968e-07
-2.15977e-06
-6.81694e-07
-2.04912e-06
-7.44779e-07
-1.92673e-06
-8.03893e-07
-1.79272e-06
-8.56152e-07
-1.64761e-06
-8.98971e-07
-1.49234e-06
-9.29552e-07
-1.32871e-06
-9.44786e-07
-1.15917e-06
-9.41824e-07
-9.867e-07
-9.18449e-07
-8.15305e-07
-8.72878e-07
-6.49893e-07
-8.05111e-07
-4.94635e-07
-7.17291e-07
-3.53117e-07
-6.12147e-07
-2.28613e-07
-4.93309e-07
-1.23581e-07
-3.65766e-07
-3.94429e-08
-2.35186e-07
2.355e-08
-1.07345e-07
6.61113e-08
1.22005e-08
8.94302e-08
1.18167e-07
9.47668e-08
2.05364e-07
8.32665e-08
2.68087e-07
5.73466e-08
2.98748e-07
2.28321e-08
2.8176e-07
1.60825e-07
2.2304e-08
-1.18281e-07
4.16662e-08
-1.90957e-07
4.82558e-08
-1.74545e-07
4.40436e-08
-1.32185e-07
3.12875e-08
-8.2312e-08
1.07329e-08
-3.13493e-08
-1.76541e-08
1.85833e-08
-5.44077e-08
6.67298e-08
-1.00407e-07
1.13152e-07
-1.56711e-07
1.58531e-07
-2.24389e-07
2.03965e-07
-3.04348e-07
2.50714e-07
-3.97197e-07
2.99894e-07
-5.0311e-07
3.52211e-07
-6.21675e-07
4.07737e-07
-7.51834e-07
4.65866e-07
-8.91737e-07
5.25153e-07
-1.03872e-06
5.83364e-07
-1.18951e-06
6.37982e-07
-1.3406e-06
6.86749e-07
-1.48819e-06
7.26837e-07
-1.62837e-06
7.56412e-07
-1.75882e-06
7.75003e-07
-1.87864e-06
7.8302e-07
-1.98796e-06
7.8165e-07
-2.08738e-06
7.72114e-07
-2.17756e-06
7.55642e-07
-2.25924e-06
7.33411e-07
-2.33312e-06
7.06502e-07
-2.39984e-06
6.75778e-07
-2.45999e-06
6.41974e-07
-2.51403e-06
6.05695e-07
-2.56236e-06
5.67388e-07
-2.60537e-06
5.2744e-07
-2.64339e-06
4.86163e-07
-2.67669e-06
4.43766e-07
-2.70542e-06
4.00324e-07
-2.72971e-06
3.56031e-07
-2.74972e-06
3.11038e-07
-2.7658e-06
2.65373e-07
-2.77802e-06
2.18888e-07
-2.78621e-06
1.71424e-07
-2.7903e-06
1.22877e-07
-2.79019e-06
7.30756e-08
-2.78574e-06
2.18095e-08
-2.77691e-06
-3.09998e-08
-2.76365e-06
-8.55966e-08
-2.74587e-06
-1.42276e-07
-2.72341e-06
-2.01283e-07
-2.69594e-06
-2.62835e-07
-2.6631e-06
-3.27062e-07
-2.62447e-06
-3.94142e-07
-2.5791e-06
-4.64167e-07
-2.52582e-06
-5.36931e-07
-2.46348e-06
-6.11914e-07
-2.39121e-06
-6.88243e-07
-2.3079e-06
-7.65004e-07
-2.21305e-06
-8.3963e-07
-2.10626e-06
-9.10685e-07
-1.98639e-06
-9.76018e-07
-1.85343e-06
-1.03193e-06
-1.7076e-06
-1.07538e-06
-1.54997e-06
-1.10242e-06
-1.38227e-06
-1.10952e-06
-1.2074e-06
-1.09331e-06
-1.02897e-06
-1.05131e-06
-8.51807e-07
-9.82275e-07
-6.81542e-07
-8.87556e-07
-5.22996e-07
-7.70693e-07
-3.80163e-07
-6.36142e-07
-2.56522e-07
-4.89407e-07
-1.54412e-07
-3.37296e-07
-7.47662e-08
-1.86991e-07
-1.71221e-08
-4.54435e-08
2.00307e-08
8.10147e-08
3.87155e-08
1.86679e-07
4.10822e-08
2.6572e-07
2.98909e-08
3.09939e-07
1.08908e-08
3.0076e-07
1.71716e-07
1.81628e-08
-1.36444e-07
2.63485e-08
-1.99143e-07
2.07301e-08
-1.68927e-07
4.90858e-09
-1.16364e-07
-1.89737e-08
-5.84297e-08
-5.07027e-08
3.79681e-10
-9.06912e-08
5.85718e-08
-1.3978e-07
1.15819e-07
-1.99017e-07
1.7239e-07
-2.69471e-07
2.28985e-07
-3.52049e-07
2.86543e-07
-4.47329e-07
3.45994e-07
-5.55407e-07
4.07972e-07
-6.75741e-07
4.72545e-07
-8.0712e-07
5.39116e-07
-9.47517e-07
6.06263e-07
-1.09406e-06
6.71695e-07
-1.24329e-06
7.32599e-07
-1.39142e-06
7.8611e-07
-1.53399e-06
8.29315e-07
-1.66779e-06
8.60642e-07
-1.79126e-06
8.79878e-07
-1.90409e-06
8.87832e-07
-2.00665e-06
8.85585e-07
-2.09964e-06
8.74639e-07
-2.18383e-06
8.56302e-07
-2.26003e-06
8.31838e-07
-2.32897e-06
8.02358e-07
-2.3913e-06
7.68829e-07
-2.44755e-06
7.32021e-07
-2.49816e-06
6.92588e-07
-2.54351e-06
6.51043e-07
-2.58391e-06
6.07795e-07
-2.61965e-06
5.63179e-07
-2.65095e-06
5.17463e-07
-2.67812e-06
4.7093e-07
-2.70155e-06
4.23757e-07
-2.72147e-06
3.75956e-07
-2.73785e-06
3.27414e-07
-2.75071e-06
2.78235e-07
-2.76013e-06
2.28308e-07
-2.76615e-06
1.77442e-07
-2.76884e-06
1.2557e-07
-2.76827e-06
7.25035e-08
-2.76445e-06
1.79857e-08
-2.75742e-06
-3.802e-08
-2.74713e-06
-9.58959e-08
-2.73342e-06
-1.5598e-07
-2.71614e-06
-2.18567e-07
-2.69502e-06
-2.83949e-07
-2.66973e-06
-3.52358e-07
-2.63997e-06
-4.23897e-07
-2.60531e-06
-4.98831e-07
-2.5652e-06
-5.77036e-07
-2.51895e-06
-6.58164e-07
-2.46555e-06
-7.4165e-07
-2.40362e-06
-8.26935e-07
-2.33028e-06
-9.12969e-07
-2.24403e-06
-9.96928e-07
-2.1436e-06
-1.07645e-06
-2.02856e-06
-1.14697e-06
-1.89842e-06
-1.20552e-06
-1.75306e-06
-1.24778e-06
-1.59337e-06
-1.26922e-06
-1.4213e-06
-1.26538e-06
-1.24006e-06
-1.23255e-06
-1.05425e-06
-1.16808e-06
-8.69972e-07
-1.07184e-06
-6.93896e-07
-9.46769e-07
-5.3152e-07
-7.98518e-07
-3.87287e-07
-6.3364e-07
-2.64836e-07
-4.59747e-07
-1.66242e-07
-2.85585e-07
-9.18245e-08
-1.19861e-07
-4.02232e-08
2.94134e-08
-8.70684e-09
1.55162e-07
5.86826e-09
2.51145e-07
7.5776e-09
3.0823e-07
1.8552e-09
3.06483e-07
1.73571e-07
1.15985e-08
-1.48043e-07
7.32263e-09
-1.94867e-07
-1.07609e-08
-1.50843e-07
-3.81233e-08
-8.90011e-08
-7.3365e-08
-2.3188e-08
-1.16529e-07
4.35434e-08
-1.6836e-07
1.10403e-07
-2.2987e-07
1.77328e-07
-3.02109e-07
2.44629e-07
-3.85972e-07
3.12848e-07
-4.82024e-07
3.82595e-07
-5.9034e-07
4.5431e-07
-7.10355e-07
5.27988e-07
-8.40859e-07
6.03049e-07
-9.79801e-07
6.78058e-07
-1.1242e-06
7.50658e-07
-1.27037e-06
8.17873e-07
-1.41414e-06
8.76363e-07
-1.55133e-06
9.23303e-07
-1.67922e-06
9.57204e-07
-1.79672e-06
9.78142e-07
-1.90367e-06
9.86827e-07
-2.0005e-06
9.84659e-07
-2.08799e-06
9.73078e-07
-2.16699e-06
9.53639e-07
-2.2383e-06
9.27616e-07
-2.30267e-06
8.9621e-07
-2.36073e-06
8.60414e-07
-2.41298e-06
8.21079e-07
-2.45986e-06
7.78899e-07
-2.50173e-06
7.34461e-07
-2.53892e-06
6.88237e-07
-2.57175e-06
6.40618e-07
-2.60049e-06
5.91923e-07
-2.62543e-06
5.424e-07
-2.64668e-06
4.92181e-07
-2.66436e-06
4.41434e-07
-2.67859e-06
3.90191e-07
-2.68961e-06
3.38429e-07
-2.69757e-06
2.86196e-07
-2.70266e-06
2.33402e-07
-2.70512e-06
1.79897e-07
-2.70509e-06
1.25542e-07
-2.70272e-06
7.01336e-08
-2.69813e-06
1.33963e-08
-2.69136e-06
-4.47873e-08
-2.68239e-06
-1.04872e-07
-2.67119e-06
-1.67175e-07
-2.65773e-06
-2.32027e-07
-2.64192e-06
-2.99764e-07
-2.62358e-06
-3.70693e-07
-2.6024e-06
-4.45077e-07
-2.57804e-06
-5.23194e-07
-2.54994e-06
-6.05133e-07
-2.51731e-06
-6.908e-07
-2.4791e-06
-7.79854e-07
-2.43458e-06
-8.71459e-07
-2.38248e-06
-9.65066e-07
-2.3208e-06
-1.0586e-06
-2.24696e-06
-1.1503e-06
-2.15707e-06
-1.23685e-06
-2.04938e-06
-1.31321e-06
-1.92367e-06
-1.37349e-06
-1.77974e-06
-1.41315e-06
-1.61818e-06
-1.42693e-06
-1.44114e-06
-1.40959e-06
-1.25252e-06
-1.3567e-06
-1.0581e-06
-1.26626e-06
-8.65605e-07
-1.13927e-06
-6.83142e-07
-9.8098e-07
-5.17015e-07
-7.99767e-07
-3.72074e-07
-6.04687e-07
-2.51961e-07
-4.05698e-07
-1.5828e-07
-2.13542e-07
-9.0406e-08
-3.84607e-08
-4.56863e-08
1.10443e-07
-1.99658e-08
2.25424e-07
-7.3208e-09
2.95585e-07
-3.00778e-09
3.0217e-07
1.70563e-07
3.25715e-09
-1.513e-07
-1.40002e-08
-1.7761e-07
-4.44165e-08
-1.20427e-07
-8.33892e-08
-5.00284e-08
-1.29922e-07
2.33447e-08
-1.84451e-07
9.80723e-08
-2.47916e-07
1.73869e-07
-3.2136e-07
2.50772e-07
-4.05684e-07
3.28953e-07
-5.01464e-07
4.08628e-07
-6.08798e-07
4.89929e-07
-7.27168e-07
5.7268e-07
-8.55424e-07
6.56244e-07
-9.91564e-07
7.39189e-07
-1.13265e-06
8.19143e-07
-1.27491e-06
8.92916e-07
-1.41394e-06
9.56911e-07
-1.54604e-06
1.00846e-06
-1.66881e-06
1.04608e-06
-1.78123e-06
1.06962e-06
-1.88315e-06
1.08006e-06
-1.97506e-06
1.07874e-06
-2.05775e-06
1.06735e-06
-2.1321e-06
1.04743e-06
-2.19892e-06
1.02045e-06
-2.2589e-06
9.87599e-07
-2.31265e-06
9.49962e-07
-2.36067e-06
9.08432e-07
-2.40337e-06
8.6378e-07
-2.44112e-06
8.16648e-07
-2.47424e-06
7.67583e-07
-2.50304e-06
7.17033e-07
-2.52779e-06
6.65374e-07
-2.54877e-06
6.12904e-07
-2.56621e-06
5.5984e-07
-2.58035e-06
5.06321e-07
-2.59141e-06
4.52493e-07
-2.59963e-06
3.98404e-07
-2.60526e-06
3.44059e-07
-2.6085e-06
2.89444e-07
-2.60956e-06
2.34462e-07
-2.60864e-06
1.78972e-07
-2.6059e-06
1.22804e-07
-2.6015e-06
6.57353e-08
-2.59556e-06
7.45579e-09
-2.58821e-06
-5.21409e-08
-2.57953e-06
-1.13549e-07
-2.56963e-06
-1.77081e-07
-2.55856e-06
-2.43094e-07
-2.54636e-06
-3.11965e-07
-2.53299e-06
-3.84066e-07
-2.5183e-06
-4.5976e-07
-2.50211e-06
-5.39384e-07
-2.48407e-06
-6.23178e-07
-2.46362e-06
-7.11245e-07
-2.44e-06
-8.03477e-07
-2.41197e-06
-8.99489e-07
-2.37833e-06
-9.98706e-07
-2.33716e-06
-1.09977e-06
-2.287e-06
-1.20046e-06
-2.22498e-06
-1.29888e-06
-2.14719e-06
-1.39101e-06
-2.04908e-06
-1.47159e-06
-1.92876e-06
-1.53347e-06
-1.78659e-06
-1.5691e-06
-1.62267e-06
-1.57351e-06
-1.43964e-06
-1.53973e-06
-1.24241e-06
-1.46349e-06
-1.03823e-06
-1.34345e-06
-8.36839e-07
-1.18237e-06
-6.48088e-07
-9.88518e-07
-4.79139e-07
-7.73637e-07
-3.35093e-07
-5.49744e-07
-2.19361e-07
-3.29275e-07
-1.32621e-07
-1.252e-07
-7.28939e-08
5.07156e-08
-3.57254e-08
1.88256e-07
-1.44754e-08
2.74335e-07
-4.0264e-09
2.91721e-07
1.66537e-07
-6.47125e-09
-1.44828e-07
-3.66134e-08
-1.47468e-07
-7.90064e-08
-7.8034e-08
-1.29275e-07
2.40337e-10
-1.86741e-07
8.08105e-08
-2.52197e-07
1.63528e-07
-3.26639e-07
2.48311e-07
-4.11009e-07
3.35143e-07
-5.0594e-07
4.23884e-07
-6.11594e-07
5.14282e-07
-7.27539e-07
6.05874e-07
-8.52737e-07
6.97878e-07
-9.85307e-07
7.88814e-07
-1.12242e-06
8.76302e-07
-1.26035e-06
9.57074e-07
-1.39484e-06
1.0274e-06
-1.52241e-06
1.08449e-06
-1.64083e-06
1.12687e-06
-1.74893e-06
1.15418e-06
-1.84659e-06
1.16728e-06
-1.93427e-06
1.16774e-06
-2.01278e-06
1.15725e-06
-2.08297e-06
1.13754e-06
-2.14563e-06
1.1101e-06
-2.20143e-06
1.07625e-06
-2.25096e-06
1.03713e-06
-2.2947e-06
9.93703e-07
-2.33308e-06
9.4681e-07
-2.36647e-06
8.97173e-07
-2.39523e-06
8.45408e-07
-2.41969e-06
7.92043e-07
-2.44018e-06
7.3752e-07
-2.457e-06
6.82199e-07
-2.47045e-06
6.26358e-07
-2.48082e-06
5.70206e-07
-2.48839e-06
5.13894e-07
-2.49344e-06
4.57536e-07
-2.4962e-06
4.01172e-07
-2.49694e-06
3.44795e-07
-2.49585e-06
2.88356e-07
-2.49314e-06
2.31746e-07
-2.48898e-06
1.74816e-07
-2.48356e-06
1.17383e-07
-2.47706e-06
5.9238e-08
-2.46957e-06
-4.06892e-11
-2.46136e-06
-6.03411e-08
-2.45252e-06
-1.22391e-07
-2.44321e-06
-1.86393e-07
-2.43357e-06
-2.52736e-07
-2.42371e-06
-3.21825e-07
-2.4137e-06
-3.94075e-07
-2.40356e-06
-4.69904e-07
-2.39322e-06
-5.49717e-07
-2.38254e-06
-6.33859e-07
-2.3712e-06
-7.22588e-07
-2.35866e-06
-8.16019e-07
-2.34407e-06
-9.1408e-07
-2.32635e-06
-1.01642e-06
-2.30397e-06
-1.12216e-06
-2.27456e-06
-1.22987e-06
-2.23587e-06
-1.33757e-06
-2.18521e-06
-1.44167e-06
-2.11817e-06
-1.53863e-06
-2.02948e-06
-1.62216e-06
-1.91479e-06
-1.68379e-06
-1.77365e-06
-1.71466e-06
-1.60615e-06
-1.70723e-06
-1.41567e-06
-1.65396e-06
-1.20843e-06
-1.55069e-06
-9.93639e-07
-1.39716e-06
-7.83458e-07
-1.1987e-06
-5.89596e-07
-9.67498e-07
-4.19906e-07
-7.19433e-07
-2.79546e-07
-4.69636e-07
-1.71188e-07
-2.33558e-07
-9.40827e-08
-2.63894e-08
-4.43194e-08
1.38493e-07
-1.5747e-08
2.45762e-07
-2.20074e-09
2.78174e-07
1.64336e-07
-1.68544e-08
-1.27974e-07
-5.96123e-08
-1.0471e-07
-1.13393e-07
-2.42533e-08
-1.74176e-07
6.10232e-08
-2.42003e-07
1.48637e-07
-3.176e-07
2.39125e-07
-4.01963e-07
3.32673e-07
-4.95833e-07
4.29013e-07
-5.99496e-07
5.27547e-07
-7.12652e-07
6.27438e-07
-8.34412e-07
7.27634e-07
-9.63049e-07
8.26515e-07
-1.09592e-06
9.21686e-07
-1.22951e-06
1.00989e-06
-1.35981e-06
1.08737e-06
-1.48345e-06
1.15105e-06
-1.59822e-06
1.19925e-06
-1.7028e-06
1.23145e-06
-1.79693e-06
1.2483e-06
-1.88108e-06
1.25143e-06
-1.956e-06
1.24266e-06
-2.02254e-06
1.22379e-06
-2.08146e-06
1.19645e-06
-2.13342e-06
1.16205e-06
-2.17898e-06
1.12182e-06
-2.21865e-06
1.0768e-06
-2.25287e-06
1.02792e-06
-2.28205e-06
9.7599e-07
-2.30658e-06
9.21707e-07
-2.32686e-06
8.65682e-07
-2.34325e-06
8.08433e-07
-2.35611e-06
7.50386e-07
-2.3658e-06
6.9188e-07
-2.37261e-06
6.33177e-07
-2.37688e-06
5.74476e-07
-2.3789e-06
5.1591e-07
-2.37892e-06
4.57559e-07
-2.37719e-06
3.99439e-07
-2.37392e-06
3.41522e-07
-2.3693e-06
2.83735e-07
-2.36351e-06
2.25958e-07
-2.35673e-06
1.68034e-07
-2.34912e-06
1.09775e-07
-2.34083e-06
5.09506e-08
-2.33216e-06
-8.71493e-09
-2.32307e-06
-6.94266e-08
-2.31388e-06
-1.31583e-07
-2.30475e-06
-1.95523e-07
-2.29586e-06
-2.61624e-07
-2.28739e-06
-3.30296e-07
-2.27949e-06
-4.01974e-07
-2.27229e-06
-4.77111e-07
-2.26584e-06
-5.5616e-07
-2.26015e-06
-6.39551e-07
-2.25508e-06
-7.27663e-07
-2.25031e-06
-8.20782e-07
-2.24534e-06
-9.19054e-07
-2.23937e-06
-1.02239e-06
-2.23118e-06
-1.13034e-06
-2.21901e-06
-1.24204e-06
-2.20067e-06
-1.35591e-06
-2.17288e-06
-1.46946e-06
-2.13228e-06
-1.57923e-06
-2.07464e-06
-1.6798e-06
-1.9932e-06
-1.76522e-06
-1.88294e-06
-1.82492e-06
-1.74119e-06
-1.84897e-06
-1.56826e-06
-1.8269e-06
-1.3685e-06
-1.75045e-06
-1.14996e-06
-1.61571e-06
-9.24398e-07
-1.42426e-06
-7.06769e-07
-1.18513e-06
-5.10456e-07
-9.15747e-07
-3.43667e-07
-6.36425e-07
-2.11236e-07
-3.65989e-07
-1.14385e-07
-1.2324e-07
-5.04063e-08
7.45137e-08
-1.42414e-08
2.09597e-07
9.99662e-10
2.62933e-07
1.65336e-07
-2.73753e-08
-1.00599e-07
-8.18619e-08
-5.02231e-08
-1.46154e-07
4.00391e-08
-2.1684e-07
1.31709e-07
-2.94072e-07
2.25869e-07
-3.78715e-07
3.23768e-07
-4.71627e-07
4.25585e-07
-5.73277e-07
5.30663e-07
-6.83562e-07
6.37831e-07
-8.01791e-07
7.45667e-07
-9.26425e-07
8.52269e-07
-1.05507e-06
9.55156e-07
-1.18452e-06
1.05114e-06
-1.31105e-06
1.13642e-06
-1.43138e-06
1.2077e-06
-1.54318e-06
1.26284e-06
-1.64499e-06
1.30106e-06
-1.73636e-06
1.32283e-06
-1.81769e-06
1.32963e-06
-1.88968e-06
1.32343e-06
-1.95315e-06
1.30613e-06
-2.00885e-06
1.27949e-06
-2.05743e-06
1.24504e-06
-2.09948e-06
1.2041e-06
-2.1355e-06
1.15784e-06
-2.16598e-06
1.10727e-06
-2.19136e-06
1.0533e-06
-2.2121e-06
9.96726e-07
-2.22863e-06
9.3824e-07
-2.24139e-06
8.78441e-07
-2.25078e-06
8.17822e-07
-2.25718e-06
7.56787e-07
-2.26095e-06
6.95649e-07
-2.26241e-06
6.34645e-07
-2.26188e-06
5.73943e-07
-2.25961e-06
5.13642e-07
-2.25584e-06
4.53786e-07
-2.25077e-06
3.94366e-07
-2.24457e-06
3.35328e-07
-2.23742e-06
2.7658e-07
-2.22945e-06
2.17992e-07
-2.22082e-06
1.59405e-07
-2.21168e-06
1.00628e-07
-2.20216e-06
4.14386e-08
-2.19248e-06
-1.84037e-08
-2.18274e-06
-7.91656e-08
-2.17315e-06
-1.41165e-07
-2.16394e-06
-2.0474e-07
-2.1553e-06
-2.70261e-07
-2.14746e-06
-3.38132e-07
-2.14065e-06
-4.08791e-07
-2.13506e-06
-4.82702e-07
-2.13086e-06
-5.60352e-07
-2.12819e-06
-6.42229e-07
-2.12705e-06
-7.28803e-07
-2.12733e-06
-8.20494e-07
-2.12876e-06
-9.17628e-07
-2.13079e-06
-1.02036e-06
-2.13255e-06
-1.12858e-06
-2.13276e-06
-1.24183e-06
-2.12957e-06
-1.3591e-06
-2.1204e-06
-1.47863e-06
-2.10198e-06
-1.59765e-06
-2.0698e-06
-1.71199e-06
-2.01914e-06
-1.81588e-06
-1.94276e-06
-1.9013e-06
-1.83429e-06
-1.95745e-06
-1.68951e-06
-1.97168e-06
-1.50876e-06
-1.9312e-06
-1.29781e-06
-1.82666e-06
-1.06713e-06
-1.65493e-06
-8.31813e-07
-1.42044e-06
-6.0979e-07
-1.13777e-06
-4.15581e-07
-8.30633e-07
-2.57264e-07
-5.24307e-07
-1.38561e-07
-2.41943e-07
-5.85595e-08
-5.48759e-09
-1.35081e-08
1.64546e-07
3.97146e-09
2.45454e-07
1.69307e-07
-3.74734e-08
-6.31253e-08
-1.026e-07
1.49033e-08
-1.76427e-07
1.13866e-07
-2.55978e-07
2.1126e-07
-3.41514e-07
3.11406e-07
-4.33885e-07
4.16139e-07
-5.33769e-07
5.25469e-07
-6.41321e-07
6.38215e-07
-7.56111e-07
7.52621e-07
-8.76847e-07
8.66403e-07
-1.00141e-06
9.76832e-07
-1.12703e-06
1.08078e-06
-1.25023e-06
1.17434e-06
-1.36782e-06
1.25401e-06
-1.47731e-06
1.31719e-06
-1.57708e-06
1.36261e-06
-1.6665e-06
1.39048e-06
-1.74575e-06
1.40209e-06
-1.81552e-06
1.3994e-06
-1.87659e-06
1.38449e-06
-1.92969e-06
1.35923e-06
-1.9755e-06
1.3253e-06
-2.01461e-06
1.28415e-06
-2.04757e-06
1.23705e-06
-2.07488e-06
1.18515e-06
-2.09706e-06
1.12945e-06
-2.1146e-06
1.07084e-06
-2.128e-06
1.01013e-06
-2.13775e-06
9.47987e-07
-2.14428e-06
8.84981e-07
-2.14804e-06
8.21575e-07
-2.14939e-06
7.58138e-07
-2.14868e-06
6.94943e-07
-2.14622e-06
6.32185e-07
-2.14227e-06
5.6999e-07
-2.13705e-06
5.08418e-07
-2.13074e-06
4.47477e-07
-2.1235e-06
3.8713e-07
-2.11547e-06
3.27297e-07
-2.10676e-06
2.67873e-07
-2.09749e-06
2.08722e-07
-2.08777e-06
1.49682e-07
-2.07771e-06
9.05664e-08
-2.06744e-06
3.1169e-08
-2.0571e-06
-2.87392e-08
-2.04686e-06
-8.94114e-08
-2.03689e-06
-1.51135e-07
-2.0274e-06
-2.14224e-07
-2.01864e-06
-2.79025e-07
-2.01085e-06
-3.45922e-07
-2.0043e-06
-4.1534e-07
-1.99926e-06
-4.8774e-07
-1.99599e-06
-5.6362e-07
-1.99472e-06
-6.43504e-07
-1.99559e-06
-7.27926e-07
-1.99868e-06
-8.17408e-07
-2.00389e-06
-9.12422e-07
-2.01091e-06
-1.01333e-06
-2.01918e-06
-1.12031e-06
-2.02774e-06
-1.23327e-06
-2.03518e-06
-1.35166e-06
-2.03945e-06
-1.47435e-06
-2.03775e-06
-1.59935e-06
-2.02626e-06
-1.72348e-06
-2.00024e-06
-1.8419e-06
-1.95379e-06
-1.94775e-06
-1.8795e-06
-2.03174e-06
-1.76963e-06
-2.08155e-06
-1.61877e-06
-2.08206e-06
-1.42752e-06
-2.01791e-06
-1.20369e-06
-1.87876e-06
-9.60991e-07
-1.66315e-06
-7.18693e-07
-1.38007e-06
-4.97595e-07
-1.05173e-06
-3.12192e-07
-7.0971e-07
-1.69685e-07
-3.84449e-07
-7.17922e-08
-1.0338e-07
-1.59006e-08
1.08654e-07
5.59147e-09
2.23962e-07
1.74899e-07
-4.67577e-08
-1.63676e-08
-1.21171e-07
8.93163e-08
-2.03405e-07
1.961e-07
-2.9063e-07
2.98485e-07
-3.83174e-07
4.0395e-07
-4.81788e-07
5.14753e-07
-5.86938e-07
6.3062e-07
-6.9855e-07
7.49827e-07
-8.15672e-07
8.69742e-07
-9.36431e-07
9.87162e-07
-1.05847e-06
1.09888e-06
-1.17869e-06
1.20099e-06
-1.294e-06
1.28965e-06
-1.40181e-06
1.36182e-06
-1.50026e-06
1.41564e-06
-1.58849e-06
1.45084e-06
-1.66648e-06
1.46847e-06
-1.73479e-06
1.4704e-06
-1.79418e-06
1.45879e-06
-1.84539e-06
1.4357e-06
-1.88912e-06
1.40296e-06
-1.92597e-06
1.36215e-06
-1.95653e-06
1.31471e-06
-1.98136e-06
1.26188e-06
-2.00101e-06
1.2048e-06
-2.01604e-06
1.14447e-06
-2.02699e-06
1.0818e-06
-2.0344e-06
1.01754e-06
-2.03877e-06
9.52352e-07
-2.04054e-06
8.86753e-07
-2.04013e-06
8.21165e-07
-2.03789e-06
7.55905e-07
-2.03415e-06
6.91194e-07
-2.02914e-06
6.27177e-07
-2.02308e-06
5.63931e-07
-2.01613e-06
5.01474e-07
-2.00844e-06
4.39781e-07
-2.00009e-06
3.78786e-07
-1.99119e-06
3.1839e-07
-1.98179e-06
2.58474e-07
-1.97196e-06
1.98899e-07
-1.96179e-06
1.39507e-07
-1.95134e-06
8.01213e-08
-1.94073e-06
2.0552e-08
-1.93005e-06
-3.94135e-08
-1.91946e-06
-1e-07
-1.90914e-06
-1.61464e-07
-1.89927e-06
-2.24086e-07
-1.89012e-06
-2.8818e-07
-1.88194e-06
-3.54099e-07
-1.87504e-06
-4.22239e-07
-1.86974e-06
-4.93041e-07
-1.86636e-06
-5.66998e-07
-1.86522e-06
-6.44646e-07
-1.86659e-06
-7.26559e-07
-1.87066e-06
-8.13333e-07
-1.87753e-06
-9.05556e-07
-1.8871e-06
-1.00376e-06
-1.89904e-06
-1.10837e-06