/*--------------------------------*- C++ -*----------------------------------*\
  =========                 |
  \\      /  F ield         | OpenFOAM: The Open Source CFD Toolbox
   \\    /   O peration     | Website:  https://openfoam.org
    \\  /    A nd           | Version:  13
     \\/     M anipulation  |
\*---------------------------------------------------------------------------*/
FoamFile
{
    format      ascii;
    class       volVectorField;
    location    "3.1";
    object      U;
}
// * * * * * * * * * * * * * * * * * * * * * * * * * * * * * * * * * * * * * //

dimensions      [0 1 -1 0 0 0 0];

internalField   nonuniform List<vector> 
6400
(
(-4.43595e-05 2.30119e-05 0)
(0.000494851 -0.000158684 0)
(0.00175048 -0.000321463 0)
(0.00331754 -0.000387028 0)
(0.00486884 -0.000351212 0)
(0.00617371 -0.000257658 0)
(0.00709924 -0.000146941 0)
(0.00764688 -5.99185e-05 0)
(0.00789499 -1.6612e-05 0)
(0.00794284 -1.65733e-05 0)
(0.00790427 -4.37616e-05 0)
(0.00783461 -9.38349e-05 0)
(0.00778813 -0.000151332 0)
(0.00777367 -0.000210251 0)
(0.00777958 -0.000262629 0)
(0.00777765 -0.000302497 0)
(0.00773398 -0.000326412 0)
(0.00761279 -0.000335982 0)
(0.00735915 -0.000331032 0)
(0.00692596 -0.000311429 0)
(0.00627157 -0.000284965 0)
(0.00534661 -0.000255698 0)
(0.00412833 -0.000226462 0)
(0.00260064 -0.000211395 0)
(0.000735247 -0.000231862 0)
(-0.00143045 -0.000291289 0)
(-0.00393567 -0.000335251 0)
(-0.00688847 -0.000287017 0)
(-0.0103648 -7.19065e-05 0)
(-0.014386 0.000350319 0)
(-0.0192805 0.000928863 0)
(-0.0249027 0.00151579 0)
(-0.0310897 0.00204854 0)
(-0.0377287 0.00252008 0)
(-0.0446592 0.00291213 0)
(-0.0517382 0.00321433 0)
(-0.0588166 0.00342438 0)
(-0.0657676 0.00354648 0)
(-0.072474 0.00358855 0)
(-0.0788399 0.00355977 0)
(-0.084781 0.00346979 0)
(-0.0902249 0.00332538 0)
(-0.0951088 0.00313108 0)
(-0.0993789 0.00288799 0)
(-0.102985 0.0025952 0)
(-0.105898 0.00225533 0)
(-0.108097 0.001881 0)
(-0.10935 0.00153689 0)
(-0.10984 0.00122141 0)
(-0.109633 0.000628531 0)
(-0.108255 0.000182222 0)
(-0.106084 -0.000384685 0)
(-0.102825 -0.000922512 0)
(-0.0986193 -0.00148784 0)
(-0.0933739 -0.00203447 0)
(-0.0871619 -0.00256149 0)
(-0.0800056 -0.00305211 0)
(-0.0720157 -0.00351132 0)
(-0.0632485 -0.00392864 0)
(-0.0538401 -0.00428143 0)
(-0.0439302 -0.0045217 0)
(-0.0337318 -0.00462436 0)
(-0.0234845 -0.00456645 0)
(-0.0134468 -0.00433386 0)
(-0.00385044 -0.00392108 0)
(0.00487007 -0.00339136 0)
(0.0124035 -0.0026339 0)
(0.0185774 -0.001749 0)
(0.0230923 -0.000778143 0)
(0.0258681 0.000207095 0)
(0.0265217 0.00122074 0)
(0.0256113 0.00170797 0)
(0.0229831 0.00210797 0)
(0.0188854 0.00218431 0)
(0.0142688 0.00188801 0)
(0.00969934 0.00134078 0)
(0.00572555 0.000778206 0)
(0.002664 0.000349322 0)
(0.000713723 4.33675e-05 0)
(-8.57367e-05 -0.000168227 0)
(7.87473e-05 -0.000458989 0)
(0.00157392 -0.00171294 0)
(0.00411085 -0.00262171 0)
(0.00687795 -0.00289349 0)
(0.00940599 -0.00261977 0)
(0.0114339 -0.00204772 0)
(0.0128572 -0.00136626 0)
(0.0136983 -0.000744618 0)
(0.0140371 -0.000276475 0)
(0.013956 2.30481e-05 0)
(0.0135744 0.000171602 0)
(0.0129591 0.000222691 0)
(0.0121733 0.00022272 0)
(0.0112208 0.000221889 0)
(0.0100718 0.000259195 0)
(0.00867224 0.000354244 0)
(0.00697551 0.000508232 0)
(0.00492045 0.000731091 0)
(0.00242435 0.00103693 0)
(-0.000589099 0.00143411 0)
(-0.0042005 0.001926 0)
(-0.00857061 0.00250952 0)
(-0.0137406 0.00314947 0)
(-0.0197665 0.00384075 0)
(-0.0266925 0.00458771 0)
(-0.0345714 0.00542728 0)
(-0.0433527 0.00636579 0)
(-0.0528906 0.00737448 0)
(-0.0629732 0.00844567 0)
(-0.073315 0.00952497 0)
(-0.0835386 0.0104564 0)
(-0.0936033 0.0111827 0)
(-0.103381 0.0116755 0)
(-0.112751 0.0119247 0)
(-0.121597 0.0119363 0)
(-0.129849 0.0117347 0)
(-0.137439 0.0113455 0)
(-0.144329 0.0107949 0)
(-0.150481 0.0101084 0)
(-0.155874 0.00930831 0)
(-0.160491 0.0084144 0)
(-0.164315 0.00743877 0)
(-0.167334 0.00639154 0)
(-0.169531 0.00528223 0)
(-0.170901 0.00411799 0)
(-0.171437 0.00290208 0)
(-0.171121 0.00163772 0)
(-0.169909 0.000339296 0)
(-0.16781 -0.00100847 0)
(-0.1648 -0.00245717 0)
(-0.160837 -0.00394328 0)
(-0.155963 -0.00547467 0)
(-0.150117 -0.00703186 0)
(-0.143326 -0.00859842 0)
(-0.135567 -0.0101521 0)
(-0.126863 -0.0116592 0)
(-0.117237 -0.0130768 0)
(-0.106731 -0.0143636 0)
(-0.0954324 -0.015491 0)
(-0.0834843 -0.0163906 0)
(-0.0710626 -0.0170083 0)
(-0.0583331 -0.0172814 0)
(-0.0455168 -0.0171606 0)
(-0.0328588 -0.0166038 0)
(-0.0206214 -0.0155772 0)
(-0.00909468 -0.0140972 0)
(0.00144185 -0.012122 0)
(0.0107165 -0.00972709 0)
(0.0184825 -0.00698394 0)
(0.0245467 -0.00400314 0)
(0.0287015 -0.000968676 0)
(0.0309167 0.00187858 0)
(0.0310688 0.00442158 0)
(0.0292284 0.00642827 0)
(0.0256697 0.00746057 0)
(0.0204826 0.00749436 0)
(0.0143934 0.00657811 0)
(0.00835948 0.00497487 0)
(0.00340416 0.00290404 0)
(0.000344535 0.000840952 0)
(0.000221234 -0.00153043 0)
(0.0025038 -0.00420884 0)
(0.00557475 -0.00560213 0)
(0.00841804 -0.00568276 0)
(0.0107373 -0.00489503 0)
(0.0124222 -0.00368049 0)
(0.0134853 -0.00239003 0)
(0.0139607 -0.00121502 0)
(0.0139009 -0.000251015 0)
(0.013355 0.000466344 0)
(0.0123949 0.000961307 0)
(0.0110568 0.00130524 0)
(0.0093499 0.0015876 0)
(0.00724531 0.00189506 0)
(0.00468507 0.00229182 0)
(0.00160263 0.00281025 0)
(-0.00210206 0.00347482 0)
(-0.00652847 0.00430686 0)
(-0.011764 0.00532391 0)
(-0.0178891 0.00654185 0)
(-0.024959 0.00796389 0)
(-0.0329561 0.00954063 0)
(-0.0418893 0.0112203 0)
(-0.0516872 0.0129503 0)
(-0.062213 0.0146498 0)
(-0.0732727 0.0162321 0)
(-0.084623 0.0176411 0)
(-0.0960172 0.018836 0)
(-0.107246 0.0197848 0)
(-0.118091 0.0204532 0)
(-0.128381 0.0208187 0)
(-0.138024 0.0208806 0)
(-0.146916 0.0206363 0)
(-0.155035 0.0201309 0)
(-0.162382 0.0193834 0)
(-0.168956 0.0184161 0)
(-0.174769 0.0172679 0)
(-0.179835 0.0159657 0)
(-0.184167 0.0145359 0)
(-0.187775 0.0129968 0)
(-0.19067 0.0113713 0)
(-0.192858 0.00967028 0)
(-0.194341 0.00790143 0)
(-0.195118 0.00606898 0)
(-0.195183 0.00417141 0)
(-0.194527 0.00220804 0)
(-0.193138 0.000179959 0)
(-0.19099 -0.00191486 0)
(-0.188054 -0.00408928 0)
(-0.184318 -0.00634291 0)
(-0.179756 -0.0086456 0)
(-0.174349 -0.0110079 0)
(-0.168073 -0.0134054 0)
(-0.160916 -0.015819 0)
(-0.152866 -0.0182149 0)
(-0.143928 -0.0205488 0)
(-0.134119 -0.0227663 0)
(-0.123484 -0.0248063 0)
(-0.112091 -0.0265879 0)
(-0.100027 -0.0280208 0)
(-0.0874422 -0.0290281 0)
(-0.0745036 -0.0295142 0)
(-0.0614055 -0.0294018 0)
(-0.0483871 -0.0286237 0)
(-0.0357087 -0.0271449 0)
(-0.0236255 -0.0249564 0)
(-0.0123766 -0.0220486 0)
(-0.00221581 -0.0184836 0)
(0.00662647 -0.0143744 0)
(0.013976 -0.00986933 0)
(0.0196927 -0.00516352 0)
(0.0236852 -0.000485829 0)
(0.0259367 0.00391773 0)
(0.0263192 0.00768842 0)
(0.0247547 0.0106129 0)
(0.0216078 0.0122372 0)
(0.0168629 0.0124077 0)
(0.0111628 0.0110156 0)
(0.00539396 0.00801375 0)
(0.000749297 0.00348074 0)
(0.000361116 -0.00304414 0)
(0.00310042 -0.00717484 0)
(0.00613942 -0.00857235 0)
(0.00856159 -0.00807906 0)
(0.0102924 -0.00660907 0)
(0.0113479 -0.00475694 0)
(0.011786 -0.00286892 0)
(0.0116539 -0.00114062 0)
(0.0109821 0.000329636 0)
(0.00979652 0.0015149 0)
(0.00808612 0.00246558 0)
(0.00582835 0.00327601 0)
(0.00298427 0.00406253 0)
(-0.00050019 0.00492932 0)
(-0.00468723 0.00595461 0)
(-0.00966031 0.00719309 0)
(-0.0155036 0.00867428 0)
(-0.0222919 0.0104083 0)
(-0.0300755 0.0123931 0)
(-0.0388634 0.0146027 0)
(-0.0486076 0.0169826 0)
(-0.0591923 0.0194405 0)
(-0.0704467 0.0218543 0)
(-0.0821402 0.024116 0)
(-0.0940195 0.0261329 0)
(-0.105858 0.0278331 0)
(-0.117429 0.0291218 0)
(-0.128531 0.0299424 0)
(-0.138986 0.0303189 0)
(-0.148669 0.0303004 0)
(-0.15756 0.0299239 0)
(-0.165627 0.0292195 0)
(-0.172895 0.0282149 0)
(-0.179395 0.0269397 0)
(-0.185157 0.0254422 0)
(-0.190217 0.0237533 0)
(-0.194612 0.021905 0)
(-0.198369 0.0199219 0)
(-0.201509 0.0178289 0)
(-0.204052 0.0156423 0)
(-0.206008 0.0133744 0)
(-0.207383 0.0110342 0)
(-0.208179 0.00862345 0)
(-0.20839 0.00614161 0)
(-0.208006 0.00358416 0)
(-0.207012 0.000946984 0)
(-0.20539 -0.00177353 0)
(-0.203112 -0.0045801 0)
(-0.200154 -0.00748173 0)
(-0.196491 -0.0104848 0)
(-0.192093 -0.0135752 0)
(-0.186929 -0.0167467 0)
(-0.180972 -0.0199776 0)
(-0.174197 -0.0232431 0)
(-0.166578 -0.0265026 0)
(-0.158102 -0.029698 0)
(-0.148765 -0.032756 0)
(-0.138588 -0.0355934 0)
(-0.12761 -0.038106 0)
(-0.115892 -0.0401713 0)
(-0.103539 -0.0416594 0)
(-0.0907026 -0.0424558 0)
(-0.077549 -0.0424289 0)
(-0.0643099 -0.0414918 0)
(-0.0512431 -0.0395789 0)
(-0.038659 -0.0367211 0)
(-0.0267925 -0.0329079 0)
(-0.0158833 -0.0282084 0)
(-0.0061724 -0.0227727 0)
(0.00214796 -0.0167934 0)
(0.00893617 -0.0105143 0)
(0.014102 -0.00420135 0)
(0.0176222 0.00188693 0)
(0.0195122 0.00740998 0)
(0.019756 0.0119667 0)
(0.0182656 0.0152242 0)
(0.0152288 0.0167745 0)
(0.010897 0.0162921 0)
(0.00576425 0.0133318 0)
(0.000870994 0.00673366 0)
(0.000508854 -0.0048382 0)
(0.00335814 -0.0101564 0)
(0.00594565 -0.0111256 0)
(0.00769629 -0.00986318 0)
(0.00870124 -0.00765075 0)
(0.00902056 -0.0051465 0)
(0.00873169 -0.0026714 0)
(0.0078709 -0.000391648 0)
(0.00644019 0.00162034 0)
(0.00441652 0.00337021 0)
(0.00175008 0.00492362 0)
(-0.00161942 0.00638967 0)
(-0.00576165 0.00789313 0)
(-0.0107501 0.00954757 0)
(-0.0166507 0.0114389 0)
(-0.0235246 0.0136192 0)
(-0.031415 0.0161046 0)
(-0.0403301 0.0188751 0)
(-0.0502278 0.021878 0)
(-0.0609977 0.0250138 0)
(-0.0724602 0.0281541 0)
(-0.0843747 0.0311529 0)
(-0.0964845 0.0338698 0)
(-0.10855 0.0362093 0)
(-0.12033 0.0380229 0)
(-0.131581 0.0392441 0)
(-0.142106 0.0398965 0)
(-0.151836 0.0400096 0)
(-0.160737 0.0396203 0)
(-0.168829 0.0387961 0)
(-0.176139 0.0376084 0)
(-0.182699 0.0361158 0)
(-0.188574 0.0343659 0)
(-0.193797 0.032396 0)
(-0.198409 0.030243 0)
(-0.20245 0.0279351 0)
(-0.205951 0.0254978 0)
(-0.208935 0.0229525 0)
(-0.211422 0.0203137 0)
(-0.213427 0.0175921 0)
(-0.214952 0.0147981 0)
(-0.216003 0.0119334 0)
(-0.216578 0.00899367 0)
(-0.216668 0.00597281 0)
(-0.216264 0.00286138 0)
(-0.215351 -0.000349889 0)
(-0.213907 -0.00366867 0)
(-0.211897 -0.00709891 0)
(-0.209298 -0.0106501 0)
(-0.206085 -0.0143314 0)
(-0.202226 -0.0181405 0)
(-0.197675 -0.0220643 0)
(-0.192395 -0.0260797 0)
(-0.186352 -0.0301612 0)
(-0.17951 -0.0342661 0)
(-0.171835 -0.038328 0)
(-0.163293 -0.0422558 0)
(-0.15388 -0.0459481 0)
(-0.143603 -0.0492797 0)
(-0.132488 -0.0520893 0)
(-0.1206 -0.0542197 0)
(-0.108053 -0.0555007 0)
(-0.0949869 -0.0557736 0)
(-0.0816053 -0.0549003 0)
(-0.0681265 -0.0527697 0)
(-0.0548764 -0.0493598 0)
(-0.0422241 -0.0447436 0)
(-0.0303943 -0.038992 0)
(-0.0196521 -0.0322791 0)
(-0.0102327 -0.0248483 0)
(-0.00231098 -0.0169983 0)
(0.00400246 -0.00905895 0)
(0.00867093 -0.00135509 0)
(0.0117283 0.00576394 0)
(0.0132254 0.0119299 0)
(0.0131823 0.0167242 0)
(0.0116558 0.0196927 0)
(0.00878365 0.0203799 0)
(0.00487159 0.0179542 0)
(0.000696703 0.00978333 0)
(0.000653356 -0.00676092 0)
(0.0032834 -0.0127749 0)
(0.00514245 -0.0129512 0)
(0.00605964 -0.0108735 0)
(0.00625352 -0.00791142 0)
(0.00577356 -0.004768 0)
(0.0046875 -0.00170246 0)
(0.00300296 0.00116246 0)
(0.000689536 0.00378904 0)
(-0.002311 0.00620821 0)
(-0.00607644 0.00850351 0)
(-0.0106882 0.010792 0)
(-0.0162236 0.0131939 0)
(-0.0227471 0.0158148 0)
(-0.030301 0.0187252 0)
(-0.0388986 0.0219519 0)
(-0.0485118 0.0254693 0)
(-0.0590521 0.029195 0)
(-0.0703622 0.0330176 0)
(-0.0822274 0.0367672 0)
(-0.0943841 0.0402732 0)
(-0.106563 0.0434084 0)
(-0.118507 0.0459581 0)
(-0.129921 0.0478252 0)
(-0.140576 0.048988 0)
(-0.150393 0.0494456 0)
(-0.159372 0.0492623 0)
(-0.167545 0.0485326 0)
(-0.174953 0.047344 0)
(-0.181655 0.0457757 0)
(-0.187691 0.0438886 0)
(-0.193112 0.0417443 0)
(-0.197967 0.0393857 0)
(-0.202291 0.0368478 0)
(-0.206123 0.0341624 0)
(-0.209492 0.031352 0)
(-0.212421 0.0284371 0)
(-0.214929 0.0254331 0)
(-0.217035 0.0223504 0)
(-0.218743 0.0191954 0)
(-0.220057 0.0159738 0)
(-0.220979 0.0126807 0)
(-0.221508 0.00930577 0)
(-0.221638 0.00583927 0)
(-0.221363 0.00226712 0)
(-0.220675 -0.00142788 0)
(-0.219558 -0.00526177 0)
(-0.21799 -0.00924207 0)
(-0.215936 -0.0133724 0)
(-0.213351 -0.0176526 0)
(-0.210208 -0.0220914 0)
(-0.206464 -0.0266845 0)
(-0.20206 -0.0314023 0)
(-0.196944 -0.0362174 0)
(-0.191081 -0.0411013 0)
(-0.184447 -0.0460111 0)
(-0.176947 -0.0508194 0)
(-0.168546 -0.0554035 0)
(-0.159233 -0.059634 0)
(-0.148971 -0.0633116 0)
(-0.137798 -0.0662447 0)
(-0.125766 -0.0682238 0)
(-0.11298 -0.0690459 0)
(-0.0996129 -0.068495 0)
(-0.0858987 -0.0664283 0)
(-0.0720524 -0.0627448 0)
(-0.0584924 -0.0574935 0)
(-0.0456067 -0.0508336 0)
(-0.0336604 -0.0429432 0)
(-0.0229507 -0.0341069 0)
(-0.0137139 -0.0246907 0)
(-0.00611105 -0.0151037 0)
(-0.000210911 -0.00575464 0)
(0.00401039 0.00295947 0)
(0.00663871 0.0106466 0)
(0.0077727 0.0168961 0)
(0.00750343 0.0212419 0)
(0.00591241 0.0231102 0)
(0.00338722 0.021408 0)
(0.000377155 0.0121197 0)
(0.000756399 -0.00864323 0)
(0.00287774 -0.0147312 0)
(0.00379748 -0.0139513 0)
(0.00384712 -0.0109878 0)
(0.00315675 -0.00732535 0)
(0.00182739 -0.00355731 0)
(-0.000117517 0.000117982 0)
(-0.00270351 0.00362132 0)
(-0.00599038 0.0069471 0)
(-0.010059 0.0101455 0)
(-0.0149977 0.0133072 0)
(-0.0208875 0.0165434 0)
(-0.027791 0.0199586 0)
(-0.0357419 0.0236312 0)
(-0.0447334 0.0275944 0)
(-0.0547106 0.0318246 0)
(-0.0655566 0.0362421 0)
(-0.077098 0.0406938 0)
(-0.0890778 0.0449934 0)
(-0.101225 0.0489997 0)
(-0.113266 0.0524492 0)
(-0.124851 0.0551808 0)
(-0.135711 0.0571022 0)
(-0.145729 0.0581775 0)
(-0.154883 0.0584698 0)
(-0.163221 0.0580778 0)
(-0.170792 0.0571017 0)
(-0.177651 0.0556355 0)
(-0.183858 0.0537678 0)
(-0.18947 0.0515724 0)
(-0.194532 0.0491109 0)
(-0.199089 0.0464341 0)
(-0.203175 0.0435795 0)
(-0.20682 0.0405795 0)
(-0.210056 0.0374605 0)
(-0.212904 0.0342407 0)
(-0.215381 0.0309397 0)
(-0.217499 0.0275751 0)
(-0.219261 0.0241585 0)
(-0.220699 0.0206494 0)
(-0.221839 0.0170534 0)
(-0.222654 0.0133918 0)
(-0.223146 0.00964823 0)
(-0.223307 0.00581251 0)
(-0.223128 0.00187048 0)
(-0.222596 -0.00219403 0)
(-0.221711 -0.00639972 0)
(-0.220471 -0.0107685 0)
(-0.218863 -0.0153248 0)
(-0.216873 -0.0200887 0)
(-0.214465 -0.0250714 0)
(-0.211617 -0.030298 0)
(-0.208274 -0.0357151 0)
(-0.204348 -0.0412864 0)
(-0.199747 -0.0469604 0)
(-0.194363 -0.0526603 0)
(-0.188162 -0.0583203 0)
(-0.181021 -0.0637714 0)
(-0.172992 -0.0689687 0)
(-0.163931 -0.0736379 0)
(-0.153817 -0.0775393 0)
(-0.142666 -0.080435 0)
(-0.130512 -0.0820396 0)
(-0.117465 -0.0821075 0)
(-0.103719 -0.0804226 0)
(-0.0895301 -0.0768131 0)
(-0.0751987 -0.071235 0)
(-0.0611994 -0.0638551 0)
(-0.0479687 -0.0549305 0)
(-0.0358266 -0.0447628 0)
(-0.0250931 -0.0337833 0)
(-0.0160106 -0.0224907 0)
(-0.00871541 -0.0113994 0)
(-0.00322773 -0.00100137 0)
(0.000538627 0.00825278 0)
(0.00274003 0.01594 0)
(0.00354673 0.0216046 0)
(0.0031156 0.0246077 0)
(0.00176325 0.0235437 0)
(4.91437e-05 0.013464 0)
(0.000779112 -0.0103079 0)
(0.00210896 -0.0158522 0)
(0.0020743 -0.0140018 0)
(0.00117629 -0.0101756 0)
(-0.00041623 -0.00585764 0)
(-0.00263219 -0.00146789 0)
(-0.00548204 0.00284987 0)
(-0.00902135 0.00705354 0)
(-0.0133299 0.0111599 0)
(-0.0184959 0.0152278 0)
(-0.0246011 0.019342 0)
(-0.0317073 0.0235937 0)
(-0.0398443 0.028056 0)
(-0.048997 0.0327626 0)
(-0.0590942 0.03769 0)
(-0.0700162 0.0427655 0)
(-0.0815646 0.0478288 0)
(-0.0934606 0.0526889 0)
(-0.10545 0.0571201 0)
(-0.117174 0.0608819 0)
(-0.128282 0.0637964 0)
(-0.138587 0.0657657 0)
(-0.14804 0.0668142 0)
(-0.156645 0.0670224 0)
(-0.16445 0.0665057 0)
(-0.171522 0.065367 0)
(-0.177921 0.0637074 0)
(-0.183712 0.0616189 0)
(-0.18895 0.0591833 0)
(-0.193682 0.0564659 0)
(-0.197947 0.0535226 0)
(-0.201778 0.050398 0)
(-0.205201 0.0471258 0)
(-0.208241 0.0437357 0)
(-0.210919 0.0402526 0)
(-0.213246 0.0366987 0)
(-0.215262 0.0330636 0)
(-0.216992 0.0293553 0)
(-0.218445 0.0255777 0)
(-0.21962 0.0217668 0)
(-0.220506 0.0179068 0)
(-0.221122 0.0139627 0)
(-0.221468 0.00993121 0)
(-0.221551 0.00579722 0)
(-0.221374 0.00154666 0)
(-0.22094 -0.00283446 0)
(-0.220249 -0.00736332 0)
(-0.21929 -0.0120638 0)
(-0.218053 -0.016956 0)
(-0.216521 -0.0220562 0)
(-0.214673 -0.0273735 0)
(-0.212477 -0.0329057 0)
(-0.209902 -0.0387145 0)
(-0.20692 -0.0447963 0)
(-0.203479 -0.0511148 0)
(-0.199507 -0.0576206 0)
(-0.194932 -0.0642602 0)
(-0.189589 -0.070778 0)
(-0.183196 -0.0769434 0)
(-0.175752 -0.0826578 0)
(-0.16714 -0.087641 0)
(-0.157357 -0.0916645 0)
(-0.146335 -0.0943518 0)
(-0.134118 -0.095388 0)
(-0.120817 -0.0944541 0)
(-0.106629 -0.0913239 0)
(-0.0918584 -0.0858479 0)
(-0.0769228 -0.0780763 0)
(-0.0623866 -0.0683093 0)
(-0.0487528 -0.056955 0)
(-0.0363891 -0.0444603 0)
(-0.0256455 -0.0314191 0)
(-0.0167597 -0.0184666 0)
(-0.00983203 -0.00622385 0)
(-0.00481946 0.004746 0)
(-0.00155262 0.0139507 0)
(0.000216356 0.0209181 0)
(0.00078444 0.024989 0)
(0.000463708 0.0245255 0)
(-0.000144703 0.0139237 0)
(0.000710437 -0.0115535 0)
(0.00108262 -0.0160172 0)
(3.43699e-05 -0.0130354 0)
(-0.00180983 -0.00844309 0)
(-0.00431099 -0.00348803 0)
(-0.00743157 0.00153189 0)
(-0.0112087 0.00652823 0)
(-0.0157177 0.0114874 0)
(-0.0210456 0.0164365 0)
(-0.0272732 0.0214286 0)
(-0.0344618 0.0265289 0)
(-0.0426396 0.0317947 0)
(-0.0517903 0.0372535 0)
(-0.0618381 0.0428824 0)
(-0.0726681 0.0486077 0)
(-0.0840751 0.0542702 0)
(-0.0957742 0.0596723 0)
(-0.107468 0.0645401 0)
(-0.118797 0.0686336 0)
(-0.129433 0.0717522 0)
(-0.139263 0.0738422 0)
(-0.148239 0.0749451 0)
(-0.156378 0.0751585 0)
(-0.163732 0.0745847 0)
(-0.170374 0.0733494 0)
(-0.17637 0.0715562 0)
(-0.181783 0.0693052 0)
(-0.186668 0.0666805 0)
(-0.19107 0.0637542 0)
(-0.195027 0.0605842 0)
(-0.198569 0.0572196 0)
(-0.201724 0.0536995 0)
(-0.204519 0.0500555 0)
(-0.206975 0.0463128 0)
(-0.209114 0.0424906 0)
(-0.210961 0.0386023 0)
(-0.212517 0.0346762 0)
(-0.213788 0.0307113 0)
(-0.214796 0.0266984 0)
(-0.21555 0.0226361 0)
(-0.216066 0.0185147 0)
(-0.216365 0.0143257 0)
(-0.216458 0.0100608 0)
(-0.21636 0.00570478 0)
(-0.216078 0.00124035 0)
(-0.215624 -0.00335274 0)
(-0.214995 -0.00809819 0)
(-0.214187 -0.0130229 0)
(-0.213201 -0.0181537 0)
(-0.212032 -0.0235169 0)
(-0.210669 -0.0291349 0)
(-0.209092 -0.0350237 0)
(-0.207277 -0.0411917 0)
(-0.205189 -0.0476336 0)
(-0.202775 -0.0543301 0)
(-0.199965 -0.0612383 0)
(-0.196665 -0.0682835 0)
(-0.192818 -0.0755323 0)
(-0.188304 -0.0827746 0)
(-0.18297 -0.0898082 0)
(-0.176473 -0.0961072 0)
(-0.168566 -0.101384 0)
(-0.159257 -0.10539 0)
(-0.148478 -0.107738 0)
(-0.136245 -0.108005 0)
(-0.122664 -0.105841 0)
(-0.107964 -0.100975 0)
(-0.0925206 -0.0933375 0)
(-0.0768749 -0.0830927 0)
(-0.0617325 -0.0707338 0)
(-0.0476751 -0.056856 0)
(-0.0351248 -0.0420753 0)
(-0.0244513 -0.0271613 0)
(-0.0158717 -0.0128878 0)
(-0.00942959 2.14786e-05 0)
(-0.00499093 0.0109403 0)
(-0.00226088 0.0193217 0)
(-0.000855814 0.0243705 0)
(-0.00032648 0.0245241 0)
(-0.000161011 0.0138277 0)
(0.000584811 -0.0120957 0)
(-0.000127382 -0.0151377 0)
(-0.00220037 -0.011079 0)
(-0.00497018 -0.00577984 0)
(-0.00837849 -0.000207879 0)
(-0.0124025 0.00545048 0)
(-0.0170987 0.0111543 0)
(-0.0225527 0.016906 0)
(-0.0288466 0.0227283 0)
(-0.0360422 0.0286546 0)
(-0.0441692 0.034717 0)
(-0.0532136 0.0409279 0)
(-0.0631052 0.0472589 0)
(-0.0737314 0.0536389 0)
(-0.0848889 0.0599098 0)
(-0.0963126 0.0658548 0)
(-0.10766 0.0711857 0)
(-0.118572 0.0756467 0)
(-0.128807 0.0790492 0)
(-0.138227 0.0813465 0)
(-0.146798 0.0825927 0)
(-0.154537 0.0828704 0)
(-0.161502 0.0823088 0)
(-0.167766 0.0810315 0)
(-0.173397 0.0791592 0)
(-0.178454 0.0767913 0)
(-0.182992 0.0740191 0)
(-0.187053 0.0709176 0)
(-0.190673 0.0675508 0)
(-0.193883 0.0639717 0)
(-0.196711 0.0602255 0)
(-0.199181 0.0563484 0)
(-0.201317 0.052371 0)
(-0.20314 0.0483177 0)
(-0.204672 0.044207 0)
(-0.205931 0.0400512 0)
(-0.206933 0.0358596 0)
(-0.207699 0.0316357 0)
(-0.208248 0.0273805 0)
(-0.208598 0.023094 0)
(-0.208766 0.0187692 0)
(-0.208767 0.014396 0)
(-0.208618 0.00996171 0)
(-0.208329 0.00544949 0)
(-0.207912 0.000839274 0)
(-0.207379 -0.00389135 0)
(-0.206735 -0.00876991 0)
(-0.20599 -0.0138229 0)
(-0.205149 -0.0190791 0)
(-0.204218 -0.0245677 0)
(-0.203196 -0.0303173 0)
(-0.202075 -0.0363547 0)
(-0.200844 -0.0427045 0)
(-0.199483 -0.0493806 0)
(-0.197954 -0.0563847 0)
(-0.196206 -0.0636982 0)
(-0.194159 -0.0712713 0)
(-0.191722 -0.0790173 0)
(-0.188774 -0.0868092 0)
(-0.185138 -0.0944721 0)
(-0.180704 -0.102008 0)
(-0.175228 -0.108957 0)
(-0.168249 -0.114581 0)
(-0.15951 -0.118494 0)
(-0.149038 -0.120374 0)
(-0.136778 -0.119704 0)
(-0.122847 -0.116051 0)
(-0.107539 -0.109184 0)
(-0.0913218 -0.099099 0)
(-0.0748881 -0.0861327 0)
(-0.0591117 -0.0710292 0)
(-0.0446746 -0.0546094 0)
(-0.0320465 -0.0376867 0)
(-0.0215972 -0.0212131 0)
(-0.0134982 -0.00610904 0)
(-0.00770124 0.00680526 0)
(-0.00392088 0.016824 0)
(-0.00175292 0.0229877 0)
(-0.000603969 0.0238914 0)
(-7.03274e-05 0.0135182 0)
(0.000322982 -0.0120251 0)
(-0.00147239 -0.0132282 0)
(-0.00452132 -0.00815381 0)
(-0.00818789 -0.00220353 0)
(-0.0124813 0.00396631 0)
(-0.01738 0.0102667 0)
(-0.022954 0.0166922 0)
(-0.0292888 0.0232472 0)
(-0.0364515 0.0299359 0)
(-0.0444762 0.0367593 0)
(-0.0533544 0.0437058 0)
(-0.0630248 0.0507345 0)
(-0.0733834 0.0577715 0)
(-0.0842352 0.0646571 0)
(-0.0953268 0.0711681 0)
(-0.106318 0.0770075 0)
(-0.116858 0.0818957 0)
(-0.126739 0.0856711 0)
(-0.135817 0.0882724 0)
(-0.144042 0.0897301 0)
(-0.151442 0.0901503 0)
(-0.158071 0.0896607 0)
(-0.164001 0.088401 0)
(-0.169299 0.0864939 0)
(-0.174024 0.0840503 0)
(-0.178226 0.0811628 0)
(-0.181947 0.0779134 0)
(-0.185223 0.0743704 0)
(-0.188086 0.0705931 0)
(-0.190564 0.0666314 0)
(-0.192685 0.0625276 0)
(-0.194476 0.0583175 0)
(-0.195962 0.0540305 0)
(-0.197166 0.0496899 0)
(-0.198113 0.0453128 0)
(-0.198824 0.0409104 0)
(-0.199323 0.0364927 0)
(-0.19963 0.0320642 0)
(-0.199766 0.027625 0)
(-0.199747 0.0231726 0)
(-0.199591 0.018699 0)
(-0.199312 0.0141925 0)
(-0.198926 0.00963878 0)
(-0.198445 0.0050204 0)
(-0.197882 0.000316064 0)
(-0.197252 -0.00450029 0)
(-0.196566 -0.00945105 0)
(-0.195837 -0.0145659 0)
(-0.195076 -0.0198748 0)
(-0.194294 -0.0254097 0)
(-0.193498 -0.0312023 0)
(-0.192691 -0.0372846 0)
(-0.191873 -0.0436868 0)
(-0.191037 -0.0504333 0)
(-0.190163 -0.0575399 0)
(-0.189218 -0.0650097 0)
(-0.188149 -0.0728283 0)
(-0.186881 -0.0809566 0)
(-0.185308 -0.0893024 0)
(-0.183278 -0.097716 0)
(-0.180616 -0.105975 0)
(-0.177086 -0.113799 0)
(-0.172462 -0.121054 0)
(-0.166383 -0.127053 0)
(-0.158245 -0.130824 0)
(-0.148051 -0.132134 0)
(-0.135681 -0.130316 0)
(-0.121287 -0.124923 0)
(-0.105249 -0.115765 0)
(-0.088161 -0.102945 0)
(-0.0709083 -0.0870351 0)
(-0.054549 -0.0690954 0)
(-0.0398694 -0.0502122 0)
(-0.0273681 -0.0314164 0)
(-0.0173866 -0.0138684 0)
(-0.0100104 0.00136885 0)
(-0.00502874 0.0133663 0)
(-0.00208022 0.020982 0)
(-0.000494392 0.0228794 0)
(0.000109203 0.0132185 0)
(5.2099e-06 -0.0110653 0)
(-0.00289365 -0.0102915 0)
(-0.00684169 -0.00428924 0)
(-0.0113555 0.00225639 0)
(-0.0164849 0.00899698 0)
(-0.0222056 0.0159308 0)
(-0.0285862 0.0230716 0)
(-0.0357044 0.0304108 0)
(-0.0436052 0.0379214 0)
(-0.0522899 0.0455614 0)
(-0.0617087 0.0532681 0)
(-0.0717689 0.0609574 0)
(-0.0822902 0.0684641 0)
(-0.0930321 0.0755656 0)
(-0.103677 0.0819621 0)
(-0.113893 0.0873604 0)
(-0.123471 0.0915931 0)
(-0.132267 0.0945842 0)
(-0.140212 0.0963427 0)
(-0.147328 0.0969783 0)
(-0.153674 0.0966303 0)
(-0.159315 0.0954418 0)
(-0.164318 0.0935485 0)
(-0.168739 0.0910658 0)
(-0.172629 0.0880954 0)
(-0.176028 0.0847231 0)
(-0.178974 0.081025 0)
(-0.181501 0.077066 0)
(-0.183641 0.0729025 0)
(-0.185425 0.0685832 0)
(-0.186883 0.0641502 0)
(-0.188046 0.0596384 0)
(-0.18894 0.0550762 0)
(-0.189593 0.050485 0)
(-0.19003 0.0458811 0)
(-0.190276 0.0412763 0)
(-0.190352 0.0366787 0)
(-0.190279 0.0320906 0)
(-0.190074 0.0275104 0)
(-0.189755 0.0229335 0)
(-0.189334 0.0183506 0)
(-0.188828 0.0137494 0)
(-0.188249 0.00911492 0)
(-0.18761 0.00442943 0)
(-0.186928 -0.000328246 0)
(-0.186213 -0.00518346 0)
(-0.185478 -0.0101592 0)
(-0.184742 -0.0152851 0)
(-0.184017 -0.0205921 0)
(-0.18332 -0.0261131 0)
(-0.182662 -0.0318824 0)
(-0.182055 -0.0379353 0)
(-0.181509 -0.0443066 0)
(-0.181024 -0.051028 0)
(-0.180597 -0.0581256 0)
(-0.180211 -0.0656164 0)
(-0.179833 -0.0735046 0)
(-0.179413 -0.0817744 0)
(-0.178872 -0.0903776 0)
(-0.178094 -0.0992266 0)
(-0.176921 -0.108177 0)
(-0.175138 -0.116978 0)
(-0.172485 -0.12528 0)
(-0.168628 -0.132657 0)
(-0.16322 -0.138737 0)
(-0.155613 -0.142344 0)
(-0.145567 -0.14292 0)
(-0.132946 -0.139719 0)
(-0.117936 -0.132292 0)
(-0.101033 -0.120509 0)
(-0.0830088 -0.10465 0)
(-0.0649845 -0.0856045 0)
(-0.0482099 -0.0648277 0)
(-0.0335497 -0.0436753 0)
(-0.0215022 -0.0234627 0)
(-0.0123394 -0.00555615 0)
(-0.00598155 0.00883789 0)
(-0.00215355 0.0183978 0)
(-0.000180155 0.021716 0)
(0.000313048 0.0131728 0)
(-0.000355134 -0.00928419 0)
(-0.00428533 -0.0063796 0)
(-0.00906487 0.000454713 0)
(-0.01437 0.00754222 0)
(-0.020274 0.0148216 0)
(-0.0267371 0.0223663 0)
(-0.0338269 0.0301936 0)
(-0.0416061 0.0382691 0)
(-0.0500925 0.0465238 0)
(-0.0592525 0.0548645 0)
(-0.0690074 0.0631857 0)
(-0.079194 0.071311 0)
(-0.0895931 0.0790216 0)
(-0.0999151 0.0860209 0)
(-0.109851 0.0920062 0)
(-0.119182 0.0967836 0)
(-0.127749 0.10025 0)
(-0.135478 0.102404 0)
(-0.142373 0.103338 0)
(-0.148488 0.103201 0)
(-0.15389 0.102146 0)
(-0.158641 0.100315 0)
(-0.162799 0.097835 0)
(-0.166412 0.0948145 0)
(-0.169524 0.0913481 0)
(-0.172173 0.087518 0)
(-0.174398 0.0833974 0)
(-0.176233 0.0790492 0)
(-0.177714 0.0745294 0)
(-0.178876 0.069887 0)
(-0.179754 0.0651626 0)
(-0.180377 0.0603894 0)
(-0.180776 0.0555936 0)
(-0.180979 0.0507954 0)
(-0.18101 0.0460098 0)
(-0.180893 0.0412464 0)
(-0.180647 0.0365101 0)
(-0.180289 0.0318013 0)
(-0.179835 0.0271165 0)
(-0.179298 0.0224492 0)
(-0.17869 0.0177893 0)
(-0.178023 0.0131241 0)
(-0.177308 0.00843827 0)
(-0.176559 0.0037138 0)
(-0.175788 -0.00106931 0)
(-0.175007 -0.00593176 0)
(-0.17423 -0.0109016 0)
(-0.173474 -0.016006 0)
(-0.172755 -0.0212753 0)
(-0.172092 -0.0267423 0)
(-0.171502 -0.0324423 0)
(-0.171002 -0.0384125 0)
(-0.170607 -0.0446909 0)
(-0.170331 -0.0513148 0)
(-0.170179 -0.0583188 0)
(-0.170148 -0.0657319 0)
(-0.170225 -0.0735735 0)
(-0.170376 -0.0818473 0)
(-0.170547 -0.0905326 0)
(-0.170654 -0.099577 0)
(-0.170575 -0.108883 0)
(-0.170135 -0.118286 0)
(-0.1691 -0.127535 0)
(-0.167164 -0.136236 0)
(-0.163957 -0.14386 0)
(-0.159014 -0.149794 0)
(-0.151729 -0.153045 0)
(-0.14164 -0.152664 0)
(-0.128567 -0.147786 0)
(-0.112763 -0.137949 0)
(-0.0948775 -0.123144 0)
(-0.0759098 -0.103913 0)
(-0.0572888 -0.0816039 0)
(-0.040413 -0.058102 0)
(-0.0261895 -0.0350618 0)
(-0.0150673 -0.0141432 0)
(-0.00716627 0.00310407 0)
(-0.0023145 0.0151681 0)
(0.000106997 0.0204221 0)
(0.000475101 0.0133785 0)
(-0.000724145 -0.00667624 0)
(-0.0055966 -0.00157589 0)
(-0.0111247 0.00600269 0)
(-0.0171454 0.0135744 0)
(-0.0237407 0.0213568 0)
(-0.0308504 0.0294751 0)
(-0.0385347 0.0379386 0)
(-0.0468373 0.0466758 0)
(-0.0557478 0.055565 0)
(-0.0652048 0.0644735 0)
(-0.075065 0.0732041 0)
(-0.0851394 0.081532 0)
(-0.0951697 0.0891688 0)
(-0.104864 0.0958011 0)
(-0.113997 0.101207 0)
(-0.122394 0.105241 0)
(-0.129967 0.107883 0)
(-0.136704 0.109208 0)
(-0.142649 0.10936 0)
(-0.147865 0.108504 0)
(-0.152416 0.106792 0)
(-0.156359 0.10436 0)
(-0.159743 0.101329 0)
(-0.162614 0.0978009 0)
(-0.165013 0.093867 0)
(-0.166982 0.0896084 0)
(-0.168559 0.0850965 0)
(-0.169786 0.0803946 0)
(-0.170702 0.0755593 0)
(-0.171344 0.0706367 0)
(-0.171747 0.0656651 0)
(-0.171943 0.0606758 0)
(-0.171962 0.0556926 0)
(-0.17183 0.0507329 0)
(-0.171568 0.0458085 0)
(-0.171197 0.0409261 0)
(-0.170732 0.0360877 0)
(-0.170187 0.0312913 0)
(-0.169573 0.0265317 0)
(-0.168902 0.0218008 0)
(-0.16818 0.0170881 0)
(-0.167418 0.0123806 0)
(-0.166624 0.00766307 0)
(-0.165808 0.00291834 0)
(-0.164981 -0.00187256 0)
(-0.164154 -0.00673015 0)
(-0.163341 -0.0116793 0)
(-0.162559 -0.0167461 0)
(-0.161824 -0.0219596 0)
(-0.161157 -0.0273514 0)
(-0.160578 -0.0329565 0)
(-0.16011 -0.0388122 0)
(-0.159773 -0.0449583 0)
(-0.159587 -0.0514359 0)
(-0.15957 -0.0582858 0)
(-0.159728 -0.0655464 0)
(-0.160064 -0.0732502 0)
(-0.160562 -0.0814189 0)
(-0.161188 -0.0900567 0)
(-0.161883 -0.0991418 0)
(-0.162555 -0.108613 0)
(-0.163069 -0.118358 0)
(-0.163233 -0.12819 0)
(-0.162783 -0.137818 0)
(-0.161378 -0.146814 0)
(-0.158596 -0.154563 0)
(-0.153912 -0.160291 0)
(-0.146681 -0.16293 0)
(-0.136302 -0.161284 0)
(-0.122542 -0.15432 0)
(-0.105763 -0.141589 0)
(-0.086813 -0.123278 0)
(-0.06701 -0.100348 0)
(-0.0481368 -0.0747283 0)
(-0.0316578 -0.0487958 0)
(-0.0184424 -0.0245541 0)
(-0.00883598 -0.00398093 0)
(-0.0027952 0.0111723 0)
(0.000213587 0.018904 0)
(0.000611631 0.0137915 0)
(-0.00108039 -0.00330171 0)
(-0.00678247 0.00403177 0)
(-0.0129635 0.012269 0)
(-0.0196118 0.0202689 0)
(-0.0268003 0.0285058 0)
(-0.0344461 0.0371439 0)
(-0.0425978 0.0461726 0)
(-0.0512803 0.0554711 0)
(-0.060461 0.0648821 0)
(-0.0700192 0.0741771 0)
(-0.0797905 0.0831067 0)
(-0.0895505 0.0914009 0)
(-0.0990352 0.0987233 0)
(-0.108014 0.104826 0)
(-0.116297 0.109521 0)
(-0.123774 0.112747 0)
(-0.130417 0.114559 0)
(-0.136253 0.115089 0)
(-0.141344 0.114507 0)
(-0.145752 0.112977 0)
(-0.149536 0.110649 0)
(-0.152746 0.107652 0)
(-0.15543 0.1041 0)
(-0.157633 0.100095 0)
(-0.1594 0.0957271 0)
(-0.160774 0.0910759 0)
(-0.161801 0.0862136 0)
(-0.162525 0.0812039 0)
(-0.162986 0.0760997 0)
(-0.163222 0.0709446 0)
(-0.163268 0.0657742 0)
(-0.163155 0.0606164 0)
(-0.16291 0.055491 0)
(-0.162555 0.0504118 0)
(-0.162108 0.0453872 0)
(-0.161585 0.04042 0)
(-0.160997 0.0355096 0)
(-0.160353 0.0306518 0)
(-0.159661 0.0258396 0)
(-0.158928 0.0210638 0)
(-0.158157 0.0163135 0)
(-0.157356 0.0115756 0)
(-0.156529 0.0068357 0)
(-0.155684 0.00207774 0)
(-0.15483 -0.00271596 0)
(-0.153976 -0.00756458 0)
(-0.153136 -0.01249 0)
(-0.152324 -0.0175162 0)
(-0.151558 -0.0226697 0)
(-0.150859 -0.0279804 0)
(-0.15025 -0.0334812 0)
(-0.149756 -0.0392087 0)
(-0.149403 -0.0452027 0)