/*--------------------------------*- C++ -*----------------------------------*\
  =========                 |
  \\      /  F ield         | OpenFOAM: The Open Source CFD Toolbox
   \\    /   O peration     | Website:  https://openfoam.org
    \\  /    A nd           | Version:  13
     \\/     M anipulation  |
\*---------------------------------------------------------------------------*/
FoamFile
{
    format      ascii;
    class       volScalarField;
    location    "7";
    object      epsilon;
}
// * * * * * * * * * * * * * * * * * * * * * * * * * * * * * * * * * * * * * //

dimensions      [0 2 -3 0 0 0 0];

internalField   nonuniform List<scalar> 
1600
(
2.56844e-05
8.97881e-05
0.000176604
0.000178695
0.000164444
0.0001685
0.000216306
0.000364432
0.000545391
0.000775496
0.00121488
0.00152416
0.00166831
0.00183434
0.0021101
0.00247723
0.00282621
0.00322109
0.00361034
0.00404798
0.00450445
0.00501996
0.0055851
0.00623907
0.00700607
0.00769508
0.00839627
0.00899588
0.00951572
0.00979792
0.00991012
0.00971172
0.00890713
0.00753977
0.00564045
0.00330415
0.00159046
0.00066082
0.000208659
4.29756e-05
0.000124413
0.000157982
0.000197339
0.000190123
0.000185022
0.000220618
0.000381975
0.000814244
0.00146111
0.00238911
0.00426085
0.00520288
0.00530077
0.00495821
0.00463492
0.00448081
0.00436275
0.00432197
0.00431609
0.0044059
0.0045378
0.00473699
0.00495829
0.00523307
0.00556729
0.00597753
0.00643786
0.00696971
0.00750264
0.0079612
0.00817298
0.00821169
0.00767064
0.00663482
0.00491492
0.00281789
0.00117182
0.000507247
0.000181885
7.43556e-05
0.000376166
0.000403421
0.000415255
0.000396879
0.000447212
0.000736043
0.00158904
0.00326043
0.00533512
0.00622207
0.00615756
0.00524694
0.00480383
0.00421947
0.00383411
0.00354186
0.00331598
0.00316577
0.0030782
0.00304036
0.00303008
0.00306466
0.00316383
0.00330364
0.0034852
0.00370476
0.00397018
0.00428718
0.00465987
0.00510581
0.00562754
0.00611653
0.00634588
0.00630351
0.00548117
0.003682
0.00116472
0.000318196
0.000114649
6.09848e-05
0.000869153
0.000791925
0.00079163
0.000847741
0.00122866
0.0023742
0.00450113
0.0061017
0.00650571
0.00594155
0.00515789
0.00400723
0.00337256
0.00287857
0.00263506
0.00241028
0.00229791
0.00222713
0.00219851
0.00219244
0.00222313
0.002278
0.00235547
0.00245385
0.00257479
0.00272087
0.00289781
0.00311055
0.00336483
0.00366604
0.0040174
0.00443162
0.00497376
0.00554287
0.00576913
0.00531732
0.00267877
0.000456016
9.41628e-05
4.2408e-05
0.00165071
0.00135247
0.00143719
0.00180377
0.0028612
0.00475072
0.00604233
0.00631921
0.00582001
0.00445059
0.00331769
0.0027354
0.0023379
0.00208642
0.00194839
0.00186134
0.00182605
0.00181555
0.00182777
0.00186297
0.00190793
0.00196371
0.00202933
0.00210811
0.00220306
0.00231964
0.00246446
0.00264387
0.00286069
0.00311706
0.0034129
0.00374659
0.00413279
0.00464156
0.00539314
0.00574174
0.00512681
0.00145473
0.000181137
4.99039e-05
0.00277236
0.00214627
0.00242575
0.00317471
0.00459897
0.00571678
0.00599658
0.00559896
0.00404397
0.00290056
0.00233335
0.00199322
0.00177824
0.00167174
0.00162196
0.00160407
0.00160252
0.00162459
0.00165166
0.00168756
0.00172745
0.00177581
0.00183396
0.00190612
0.00199587
0.0021086
0.00224951
0.00242383
0.00263607
0.0028883
0.00317899
0.00350936
0.00385727
0.00424232
0.00472696
0.00537447
0.00564644
0.00391129
0.000559275
9.5656e-05
0.00420448
0.00316561
0.00360788
0.00448862
0.00538506
0.00566279
0.00538247
0.00393301
0.00267807
0.00208247
0.00177406
0.00158657
0.00149585
0.00145612
0.00144157
0.0014383
0.00144308
0.00145414
0.00146525
0.00148182
0.00150345
0.0015363
0.00158262
0.00164783
0.00173642
0.00185459
0.00200836
0.00220384
0.0024456
0.00273433
0.00306372
0.00341891
0.00379064
0.00415779
0.00453827
0.00499629
0.00534416
0.00522219
0.00143539
0.000218592
0.00573777
0.00428093
0.00469492
0.00523456
0.00544287
0.00522568
0.00402862
0.00262943
0.00195482
0.00163052
0.00145779
0.00136682
0.00132411
0.0013033
0.00128843
0.00127443
0.00126013
0.00124573
0.00123473
0.00123019
0.00123005
0.00124734
0.00128036
0.00133501
0.0014163
0.00153073
0.00168637
0.00189248
0.00215856
0.0024911
0.00288769
0.00332907
0.00377596
0.00419249
0.00453342
0.00490382
0.00527092
0.00539862
0.00315551
0.000549411
0.00706323
0.00530199
0.0054922
0.00556573
0.00521338
0.00426174
0.00278795
0.00193787
0.00155281
0.00136684
0.00126911
0.00121875
0.00118813
0.00115951
0.00112755
0.0010922
0.00105537
0.00102055
0.000991147
0.000972966
0.00096571
0.00096651
0.000991259
0.00103452
0.00110439
0.00120617
0.00134923
0.00154539
0.00180966
0.00215812
0.00260225
0.00313665
0.00372175
0.00427564
0.00474162
0.00499632
0.00531707
0.00548232
0.00480939
0.00148974
0.00803282
0.00605804
0.00596224
0.0055148
0.00464409
0.00320773
0.00206151
0.00154726
0.0013127
0.00119879
0.00113653
0.00109577
0.00105624
0.00101063
0.000959862
0.000907119
0.000856244
0.000811183
0.000774561
0.00075001
0.000738614
0.000735852
0.00075162
0.000786364
0.00084337
0.000928799
0.00105123
0.00122339
0.00146314
0.00179387
0.00224183
0.00282592
0.00353457
0.00429198
0.00495997
0.0053084
0.00550979
0.0056292
0.00537261
0.00266285
0.00872824
0.00654782
0.00617017
0.00529636
0.00387696
0.00240248
0.00164416
0.001309
0.0011541
0.00107735
0.0010256
0.000978607
0.000924481
0.000863684
0.000800322
0.000738956
0.000683453
0.00063661
0.000599821
0.00057487
0.000562927
0.000559379
0.000569601
0.000597316
0.000643016
0.000712637
0.000813651
0.000958085
0.00116401
0.00145791
0.00187555
0.00245727
0.00322881
0.00415641
0.00508007
0.00563551
0.00586463
0.00594577
0.00575228
0.00380591
0.00910325
0.00676482
0.00611568
0.00485211
0.00314778
0.00192032
0.00138483
0.00114936
0.00103883
0.000977403
0.000923493
0.000865605
0.000799239
0.000729248
0.000660796
0.000598228
0.000544292
0.000500345
0.000466692
0.000443859
0.000432779
0.000429242
0.000436139
0.000458084
0.000494636
0.000550807
0.000632968
0.000751647
0.000923532
0.00117499
0.00154603
0.00209174
0.00287207
0.00391243
0.00511729
0.00597757
0.00626537
0.00631285
0.00610897
0.00473113
0.00909042
0.00674866
0.00594743
0.00435013
0.00256041
0.00161237
0.00121065
0.00103301
0.000947187
0.000888961
0.000828414
0.000760905
0.000687219
0.000613946
0.000545953
0.000486499
0.000436982
0.000397598
0.000367921
0.000347701
0.000337772
0.000334462
0.000339201
0.000356599
0.000386058
0.000431581
0.000498514
0.000595698
0.000737631
0.000948408
0.00126764
0.00175697
0.00250017
0.0035783
0.00499418
0.00630532
0.00677828
0.00681764
0.00642619
0.00559922
0.00897352
0.00664446
0.00562873
0.00383899
0.00216254
0.00140394
0.0010854
0.000942323
0.000870123
0.000809492
0.000742314
0.000668486
0.00059203
0.000519594
0.000455092
0.000400494
0.000356086
0.000321313
0.000295337
0.00027748
0.000268596
0.000265534
0.000268804
0.0002827
0.000306763
0.000344151
0.000399341
0.000479684
0.000597451
0.000773778
0.00104554
0.00147556
0.00216129
0.00322165
0.00471827
0.00646637
0.00730973
0.00739448
0.00688756
0.00640308
0.00869552
0.00641126
0.00525398
0.00339474
0.00189187
0.00125515
0.0009902
0.000870242
0.000803746
0.000739284
0.000667204
0.000590309
0.000514236
0.000444857
0.000384976
0.000335448
0.000295795
0.000265038
0.000242149
0.000226302
0.000218232
0.00021538
0.000217631
0.00022883
0.000248766
0.000279954
0.000326178
0.000393556
0.000492326
0.00064044
0.000870601
0.0012429
0.00186247
0.00288647
0.00446335
0.00651459
0.00786133
0.00804801
0.00739648
0.00718943
0.00821701
0.00612595
0.00487248
0.00303806
0.00169934
0.00114554
0.000916371
0.000811654
0.000746811
0.000678984
0.000604003
0.000526461
0.000452525
0.000387031
0.00033179
0.000286833
0.000251217
0.000223749
0.000203336
0.000189136
0.000181673
0.000178982
0.000180524
0.000189628
0.000206358
0.000232781
0.000272159
0.000329702
0.000414039
0.000540316
0.000736725
0.00105771
0.0016069
0.00256182
0.00414954
0.00645346
0.00837599
0.00878372
0.0079977
0.00795419
0.00766655
0.00581398
0.00450955
0.0027611
0.00155967
0.00106327
0.000858497
0.000763712
0.000698826
0.00062876
0.000552563
0.000475877
0.000404799
0.00034319
0.000292082
0.000250956
0.000218609
0.000193758
0.000175299
0.000162405
0.000155385
0.0001528
0.000153854
0.000161318
0.000175506
0.000198183
0.000232226
0.000282182
0.000355468
0.000464952
0.00063473
0.000913028
0.00139822
0.00227802
0.00383694
0.00628541
0.00883585
0.0095845
0.00864521
0.00871452
0.00701534
0.00551893
0.00418719
0.00255255
0.00145934
0.00100219
0.000813353
0.000724778
0.000659405
0.00058824
0.000512045
0.000437009
0.000368879
0.000310732
0.000263057
0.000224998
0.000195218
0.000172403
0.000155463
0.000143587
0.000136865
0.000134323
0.00013504
0.000141222
0.000153375
0.000173066
0.000202888
0.000246916
0.000311703
0.000408403
0.000557622
0.000801253
0.00122923
0.00202981
0.00353319
0.00607545
0.00920889
0.0104309
0.00941155
0.00947001
0.00637563
0.00523128
0.00390886
0.00240094
0.00138962
0.000956439
0.000778427
0.000693504
0.000627836
0.000556633
0.000481324
0.000408245
0.000342796
0.000287527
0.000242572
0.000206878
0.000179051
0.000157779
0.000141993
0.000130893
0.000124346
0.000121763
0.000122235
0.000127422
0.000137949
0.000155246
0.00018169
0.000221003
0.000279135
0.000366039
0.000499605
0.000716145
0.0010963
0.00182217
0.00325435
0.00584899
0.00949285
0.0113061
0.010255
0.0102205
0.00563483
0.00497578
0.00368178
0.00229452
0.00134521
0.000926813
0.000752311
0.000669104
0.000603523
0.000533054
0.000459118
0.000388106
0.000325034
0.000272041
0.0002291
0.000195115
0.000168693
0.000148538
0.000133594
0.000123069
0.000116611
0.000113889
0.000114169
0.000118568
0.000127793
0.000143184
0.000166937
0.000202479
0.000255325
0.000334662
0.000456354
0.000652018
0.000992836
0.00165014
0.00300266
0.00563804
0.00966663
0.0122098
0.0112148
0.0109711
0.00503503
0.00475819
0.00350079
0.00222695
0.00132562
0.00090528
0.000734144
0.000650438
0.000585246
0.000516304
0.00044446
0.000375435
0.000314092
0.000262716
0.000221237
0.00018851
0.000163123
0.000143776
0.000129417
0.000119268
0.000112857
0.00010992
0.000110268
0.000114182
0.000122483
0.000136393
0.000157819
0.000190018
0.000238621
0.000312068
0.000424792
0.000604819
0.000914543
0.00151161
0.00277765
0.00540517
0.0097918
0.013124
0.0122867
0.0117126
0.00452522
0.00455762
0.00338488
0.00218934
0.00133115
0.000905818
0.000721926
0.000637387
0.000572745
0.000505797
0.000435752
0.000368853
0.000309808
0.000260072
0.000219672
0.000187637
0.000162676
0.000143559
0.000129277
0.000119078
0.000112481
0.000109262
0.00010947
0.000112868
0.000120598
0.000133647
0.000153607
0.000183641
0.000228681
0.000296911
0.000402796
0.000571382
0.000857211
0.00140339
0.00258504
0.0051779
0.00985084
0.0140494
0.0134803
0.0124525
0.00407457
0.00439035
0.00331195
0.00219332
0.0013516
0.000914258
0.0007221
0.000628457
0.000564188
0.00049957
0.000433502
0.000369279
0.000311074
0.000261766
0.000221582
0.000189647
0.000164729
0.000145633
0.000131364
0.000121178
0.000114591
0.000111377
0.000111509
0.000114306
0.000121172
0.000133364
0.00015246
0.000181342
0.000224305
0.000289384
0.0003903
0.000550442
0.000817815
0.00132241
0.00242358
0.00495807
0.00987303
0.0150043
0.0147774
0.013177
0.00366479
0.00425837
0.0032945
0.00221617
0.00139565
0.000935619
0.000727198
0.000627862
0.000560826
0.000499162
0.000435054
0.000372407
0.000315483
0.000266801
0.000226903
0.000195054
0.00017012
0.000150967
0.00013663
0.000126372
0.000119694
0.000116377
0.00011651
0.000119018
0.000125385
0.000136996
0.000155012
0.000182155
0.000223386
0.000286744
0.000384997
0.000540554
0.000796989
0.00126602
0.00229526
0.00475128
0.00987321
0.015961
0.0161909
0.0138912
0.0032821
0.00415685
0.00330819
0.00227014
0.00146511
0.000978612
0.000741351
0.000631035
0.000561854
0.000500923
0.000439446
0.000379569
0.000324635
0.000276901
0.000237164
0.000205104
0.000179821
0.000160294
0.000145607
0.000135035
0.000128075
0.000124523
0.000124664
0.00012704
0.000133145
0.000144536
0.00016217
0.000188611
0.00022824
0.000288786
0.000384184
0.000537519
0.000788836
0.00123425
0.00219864
0.00456616
0.00982632
0.0169184
0.0177228
0.0145811
0.00291952
0.00408336
0.0033481
0.00235771
0.00155831
0.00104282
0.000770748
0.000640662
0.00056595
0.000505468
0.00044753
0.000390629
0.000337624
0.000290835
0.000251309
0.000219017
0.000193303
0.000173296
0.000158161
0.00014721
0.000139941
0.000136159
0.000136339
0.000138707
0.000144754
0.00015616
0.00017373
0.000199923
0.000239027
0.000298758
0.00039268
0.000543363
0.000788457
0.00122157
0.00212972
0.00440953
0.00977529
0.0178509
0.0193835
0.0152489
0.00256737
0.00402339
0.0034212
0.0024772
0.00168206
0.00113284
0.000819639
0.000661291
0.000575365
0.000513834
0.000458148
0.000404282
0.000353609
0.000308156
0.00026913
0.000236781
0.000210717
0.000190257
0.000174679
0.000163359
0.000155811
0.000151856
0.00015211
0.000154581
0.000160767
0.000172405
0.000190208
0.000216568
0.000255691
0.000315272
0.000409164
0.000560829
0.000806318
0.0012212
0.00209498
0.00428105
0.00973879
0.0187727
0.0211439
0.0158809
0.00222335
0.00396948
0.0035225
0.00261083
0.00183038
0.00125177
0.000893382
0.000699415
0.000594485
0.000526886
0.000471479
0.000420112
0.000371979
0.000328323
0.000290268
0.000258252
0.000232128
0.00021142
0.000195547
0.000183983
0.000176262
0.000172281
0.000172665
0.000175353
0.000181876
0.00019395
0.000212257
0.00023918
0.000278919
0.000339255
0.000434204
0.000587919
0.000836462
0.00124615
0.00208326
0.00417064
0.00965108
0.0196848
0.0229896
0.0164821
0.0018784
0.00388179
0.00359807
0.00278744
0.00200706
0.00140206
0.000996866
0.000759854
0.000627882
0.000547822
0.00048905
0.000438548
0.000392559
0.00035093
0.000314318
0.00028315
0.00025743
0.000236864
0.000221011
0.000209473
0.000201782
0.000198052
0.000198647
0.000201685
0.000208767
0.000221473
0.000240539
0.00026841
0.000309362
0.000371399
0.000468709
0.00062628
0.000880722
0.0012908
0.00209359
0.00409816
0.00955775
0.0205574
0.0248632
0.0170383
0.00157028
0.00376843
0.00363986
0.00298373
0.00220837
0.00158668
0.00113827
0.000852633
0.00068389
0.00058266
0.000514484
0.000461372
0.000415925
0.000375883
0.000340898
0.000311037
0.000286265
0.000266371
0.000251006
0.000239921
0.000232563
0.000229507
0.000230425
0.000233989
0.000241894
0.000255443
0.000275536
0.000304787
0.000347621
0.000412449
0.000513554
0.000676816
0.000939529
0.0013588
0.00213946
0.00406567
0.00945447
0.0213402
0.0266892
0.0175617
0.00131552
0.00353709
0.00367045
0.00317761
0.00241985
0.00179722
0.00131863
0.000986378
0.000774077
0.000641957
0.000555933
0.000494229
0.000445622
0.000405172
0.000370949
0.000342213
0.000318571
0.000299722
0.000285252
0.000275091
0.000268367
0.00026652
0.000267901
0.000272195
0.000281243
0.000295911
0.000317389
0.000348608
0.000394183
0.000463192
0.000569826
0.000741203
0.00101471
0.00144992
0.00221603
0.0040606
0.00937144
0.0220347
0.0283717
0.0180446
0.00108329
0.00306087
0.00372425
0.0033679
0.00264139
0.00203027
0.00153918
0.00117031
0.00091258
0.000740663
0.000626236
0.000546972
0.000488699
0.000443552
0.000407498
0.000378473
0.000355291
0.000337307
0.00032375
0.00031477
0.000308834
0.000308629
0.000310607
0.000315865
0.000326433
0.000342647
0.000366085
0.000400229
0.000449803
0.000524996
0.000639466
0.000822536
0.00111021
0.00157096
0.00233836
0.00413337
0.00933994
0.0226101
0.029829
0.0185123
0.000864611
0.00233207
0.00366129
0.00344705
0.00285739
0.00227148
0.00179167
0.0014083
0.00111584
0.000902324
0.000750369
0.000642315
0.00056405
0.000505992
0.000461972
0.000428313
0.000402612
0.000383496
0.000369633
0.000360854
0.000355759
0.000356235
0.000359098
0.000365802
0.000378022
0.000396522
0.000422936
0.000461705
0.000517344
0.000602035
0.000727982
0.000929048
0.00123715
0.00173862
0.00253008
0.00431759
0.00941998
0.0231758
0.0309541
0.0189855
0.000747358
0.0016539
0.00340675
0.00338984
0.00306885
0.00252696
0.00207735
0.00170083
0.00139155
0.00114507
0.000954065
0.000808907
0.000699723
0.000617663
0.000556356
0.000510397
0.000476216
0.000451427
0.000433836
0.000422855
0.000416437
0.000416921
0.000420204
0.000428026
0.00044236
0.000464493
0.000495811
0.00054251
0.000608147
0.000708832
0.000853455
0.00108552
0.00142802
0.00199964
0.00285892
0.00471851
0.00979358
0.0238695
0.0316213
0.0193329
0.00076398
0.00128445
0.0028169
0.00320914
0.00309146
0.0027782
0.00240479
0.00207131
0.00177211
0.00150984
0.00128725
0.00110354
0.000955263
0.000837969
0.000745796
0.000674751
0.000620194
0.000580239
0.000551296
0.000532507
0.000519905
0.000517621
0.000520506
0.000528852
0.000545959
0.000574789
0.000615649
0.00067806
0.000763261
0.000895379
0.00107647
0.0013703
0.00178217
0.00249
0.0035102
0.00561232
0.0108048
0.024965
0.0318902
0.0194556
0.00106238
0.00112549
0.00213062
0.00278951
0.00305166
0.0029749
0.00277604
0.00251795
0.00226092
0.00201093
0.00177506
0.00156162
0.00137493
0.00121611
0.00108826
0.00098625
0.000905794
0.000843576
0.000796852
0.000764926
0.000743739
0.00073813
0.000742457
0.000755838
0.000783655
0.000830086
0.000896594
0.000998216
0.00113288
0.00133999
0.00160984
0.00204696
0.00262368
0.00362888
0.00500807
0.00766316
0.0131407
0.0268297
0.031874
0.0194112
0.00168546
0.00128897
0.00197079
0.00274442
0.00320925
0.00341712
0.00341086
0.00330738
0.00310198
0.00286912
0.0026284
0.00239297
0.00217456
0.00197979
0.00181055
0.00167007
0.00155794
0.00147161
0.00141197
0.00137235
0.00136181
0.00137075
0.00139798
0.00145461
0.00154009
0.00166365
0.00182271
0.00204557
0.00233864
0.00275691
0.003289
0.00410091
0.00512138
0.00681985
0.00894042
0.0128975
0.0184438
0.0301626
0.0317531
0.0188174
0.00279474
0.00195731
0.0027584
0.00372472
0.00446164
0.00499141
0.00522866
0.00525825
0.00515703
0.00494342
0.00469139
0.00443204
0.00418589
0.00396997
0.00379078
0.00365469
0.00356269
0.00352006
0.00353137
0.00357567
0.00367527
0.00383417
0.0040527
0.00433003
0.00469592
0.00513441
0.00570461
0.00637595
0.00722205
0.00825245
0.0096374
0.0114348
0.0137094
0.0168359
0.0205121
0.0262016
0.0311945
0.0363134
0.032813
0.0177486
0.00474125
0.00461572
0.007882
0.0105842
0.0121081
0.012947
0.0132653
0.0132385
0.0130918
0.0127899
0.0124512
0.0121422
0.0119041
0.0117422
0.0117271
0.0117866
0.0119452
0.0122403
0.0126728
0.0132176
0.0138991
0.0146923
0.0156752
0.0167701
0.0181337
0.0195932
0.0214601
0.0233568
0.025906
0.0283285
0.0316781
0.0346013
0.0389314
0.0422341
0.0472943
0.0496523
0.0483157
0.0425567
0.0332831
0.0154583
0.00321441
0.00497112
0.00650353
0.00806598
0.00948876
0.0107684
0.0118336
0.0127235
0.0133333
0.013738
0.0139762
0.0140703
0.0140474
0.013982
0.0138442
0.0136752
0.0134993
0.013312
0.0131363
0.0129697
0.0128277
0.0127031
0.012616
0.012547
0.012528
0.0125421
0.0125895
0.0126644
0.0128316
0.0129658
0.0132553
0.01346
0.0139314
0.0142884
0.0150929
0.0155898
0.0164384
0.0164915
0.01593
0.0133025
)
;

boundaryField
{
    movingWall
    {
        type            epsilonWallFunction;
        value           nonuniform List<scalar> 
40
(
0.00321441
0.00497112
0.00650353
0.00806598
0.00948876
0.0107684
0.0118336
0.0127235
0.0133333
0.013738
0.0139762
0.0140703
0.0140474
0.013982
0.0138442
0.0136752
0.0134993
0.013312
0.0131363
0.0129697
0.0128277
0.0127031
0.012616
0.012547
0.012528
0.0125421
0.0125895
0.0126644
0.0128316
0.0129658
0.0132553
0.01346
0.0139314
0.0142884
0.0150929
0.0155898
0.0164384
0.0164915
0.01593
0.0133025
)
;
    }
    fixedWalls
    {
        type            epsilonWallFunction;
        value           nonuniform List<scalar> 
120
(
2.56844e-05
0.000124413
0.000376166
0.000869153
0.00165071
0.00277236
0.00420448
0.00573777
0.00706323
0.00803282
0.00872824
0.00910325
0.00909042
0.00897352
0.00869552
0.00821701
0.00766655
0.00701534
0.00637563
0.00563483
0.00503503
0.00452522
0.00407457
0.00366479
0.0032821
0.00291952
0.00256737
0.00222335
0.0018784
0.00157028
0.00131552
0.00108329
0.000864611
0.000747358
0.00076398
0.00106238
0.00168546
0.00279474
0.00474125
0.00321441
4.29756e-05
7.43556e-05
6.09848e-05
4.2408e-05
4.99039e-05
9.5656e-05
0.000218592
0.000549411
0.00148974
0.00266285
0.00380591
0.00473113
0.00559922
0.00640308
0.00718943
0.00795419
0.00871452
0.00947001
0.0102205
0.0109711
0.0117126
0.0124525
0.013177
0.0138912
0.0145811
0.0152489
0.0158809
0.0164821
0.0170383
0.0175617
0.0180446
0.0185123
0.0189855
0.0193329
0.0194556
0.0194112
0.0188174
0.0177486
0.0154583
0.0133025
2.56844e-05
8.97881e-05
0.000176604
0.000178695
0.000164444
0.0001685
0.000216306
0.000364432
0.000545391
0.000775496
0.00121488
0.00152416
0.00166831
0.00183434
0.0021101
0.00247723
0.00282621
0.00322109
0.00361034
0.00404798
0.00450445
0.00501996
0.0055851
0.00623907
0.00700607
0.00769508
0.00839627
0.00899588
0.00951572
0.00979792
0.00991012
0.00971172
0.00890713
0.00753977
0.00564045
0.00330415
0.00159046
0.00066082
0.000208659
4.29756e-05
)
;
    }
    frontAndBack
    {
        type            empty;
    }
}


// ************************************************************************* //
