/*--------------------------------*- C++ -*----------------------------------*\
  =========                 |
  \\      /  F ield         | OpenFOAM: The Open Source CFD Toolbox
   \\    /   O peration     | Website:  https://openfoam.org
    \\  /    A nd           | Version:  13
     \\/     M anipulation  |
\*---------------------------------------------------------------------------*/
FoamFile
{
    format      ascii;
    class       volScalarField;
    location    "7";
    object      p;
}
// * * * * * * * * * * * * * * * * * * * * * * * * * * * * * * * * * * * * * //

dimensions      [0 2 -2 0 0 0 0];

internalField   nonuniform List<scalar> 
1600
(
1.15855e-08
-2.05028e-05
-0.000101323
-0.000218907
-0.000327153
-0.000411557
-0.000488083
-0.000589966
-0.000728584
-0.000903897
-0.00112266
-0.00144301
-0.00186267
-0.00208256
-0.00229065
-0.0028145
-0.00362951
-0.00457662
-0.00549531
-0.00624955
-0.00674188
-0.00690343
-0.0066805
-0.00602702
-0.00496621
-0.00351585
-0.00168333
0.000471575
0.0028347
0.00519126
0.0072604
0.00872783
0.0093693
0.00915522
0.00816715
0.00714249
0.00650564
0.00639759
0.00649704
0.00654327
-1.66624e-05
-6.14054e-05
-0.000151877
-0.000266201
-0.000347581
-0.000391613
-0.000432984
-0.000514082
-0.000643389
-0.000795498
-0.000932825
-0.00114522
-0.00155282
-0.00207928
-0.00267681
-0.00342571
-0.0043187
-0.0052709
-0.006164
-0.00688753
-0.00735722
-0.00751441
-0.00731554
-0.00673798
-0.00576769
-0.0043907
-0.0026381
-0.000564084
0.00171246
0.00401805
0.00610206
0.00766142
0.00845162
0.0083924
0.00760485
0.00660749
0.00610867
0.00617957
0.00635174
0.00643429
-4.00441e-05
-0.000126987
-0.000247444
-0.00035818
-0.00040471
-0.000396648
-0.000390195
-0.000415601
-0.000494516
-0.000688433
-0.0010326
-0.00150257
-0.00211699
-0.00287243
-0.00375006
-0.00470592
-0.00568535
-0.00662553
-0.00745673
-0.00811286
-0.00853555
-0.00867074
-0.00848528
-0.00795962
-0.00706948
-0.00580943
-0.00420225
-0.00229446
-0.00017047
0.00203889
0.00412553
0.00584354
0.00694668
0.00728544
0.00694315
0.00631162
0.00598478
0.00604957
0.00621766
0.00627271
-4.25657e-05
-0.000172048
-0.000336109
-0.000435131
-0.000441243
-0.000399426
-0.000381781
-0.000435337
-0.000611647
-0.000994831
-0.00162147
-0.00243328
-0.00335313
-0.0043452
-0.00538728
-0.00643267
-0.00743072
-0.00833838
-0.00911341
-0.00971368
-0.0100912
-0.0101997
-0.0100166
-0.00952831
-0.00872155
-0.00759505
-0.00616461
-0.00446248
-0.00254467
-0.000495625
0.00154332
0.00339174
0.00483625
0.00571657
0.00605331
0.00603998
0.00604576
0.00608128
0.00615914
0.00615797
8.58029e-05
-0.000105795
-0.000293758
-0.000390915
-0.000406595
-0.000400088
-0.000457771
-0.000666083
-0.00109979
-0.00180152
-0.00274299
-0.00383383
-0.00498462
-0.00614164
-0.00727002
-0.00834392
-0.00933806
-0.010227
-0.0109645
-0.011509
-0.0118276
-0.0119069
-0.011732
-0.0112885
-0.0105692
-0.0095763
-0.00831805
-0.00681316
-0.00509783
-0.00323434
-0.00131061
0.000561441
0.0022572
0.00366536
0.00473359
0.0054794
0.00596563
0.00619137
0.00615186
0.00608324
0.000416027
0.000148206
-6.2235e-05
-0.000197335
-0.000288918
-0.000416839
-0.00068557
-0.00118953
-0.00197386
-0.00301217
-0.00422281
-0.00551092
-0.00680529
-0.00805536
-0.00923549
-0.0103261
-0.0112981
-0.0121235
-0.0127768
-0.0132456
-0.0135137
-0.0135707
-0.0134076
-0.0130126
-0.0123825
-0.0115195
-0.0104289
-0.00912069
-0.00761335
-0.00593889
-0.00414576
-0.00230018
-0.000473651
0.00129185
0.00295126
0.00440546
0.00548644
0.00609647
0.0060827
0.00596928
0.000923946
0.000601552
0.000335225
0.00011155
-0.000137706
-0.000513579
-0.00111439
-0.00199601
-0.00313892
-0.0044665
-0.00587978
-0.0073011
-0.00867567
-0.00996419
-0.0111434
-0.0121944
-0.013103
-0.0138544
-0.0144379
-0.0148472
-0.0150741
-0.0151125
-0.0149573
-0.0146018
-0.0140456
-0.0132909
-0.0123416
-0.011204
-0.00988709
-0.00840363
-0.00677179
-0.0050144
-0.00315022
-0.0011892
0.000839039
0.00282909
0.00452187
0.00562875
0.00601194
0.00579243
0.00153734
0.00116933
0.00080048
0.000431651
-5.55448e-05
-0.00076581
-0.00175772
-0.00301768
-0.00447179
-0.00601804
-0.00756956
-0.00906687
-0.0104674
-0.0117446
-0.012884
-0.0138765
-0.0147178
-0.015403
-0.0159282
-0.0162901
-0.0164849
-0.0165097
-0.0163618
-0.0160392
-0.0155424
-0.0148735
-0.0140361
-0.0130344
-0.011872
-0.0105517
-0.00907451
-0.0074369
-0.00562552
-0.00361641
-0.00140413
0.000923566
0.00311483
0.00481766
0.00575188
0.00543323
0.0020899
0.00164825
0.00116814
0.000619022
-0.000156156
-0.00123235
-0.00259835
-0.00418244
-0.00587083
-0.00756555
-0.00919741
-0.0107222
-0.0121109
-0.0133505
-0.0144364
-0.0153685
-0.0161483
-0.0167764
-0.017253
-0.0175773
-0.0177484
-0.0177653
-0.0176265
-0.0173323
-0.0168837
-0.0162832
-0.0155339
-0.014639
-0.0135998
-0.0124139
-0.0110726
-0.00955855
-0.00784214
-0.00588065
-0.00363344
-0.00113233
0.00140887
0.00363043
0.00505379
0.00514081
0.00241022
0.00190237
0.00130253
0.000553037
-0.000517474
-0.00193143
-0.00360624
-0.00542593
-0.00727079
-0.00905075
-0.0107143
-0.0122309
-0.0135856
-0.0147764
-0.0158068
-0.0166825
-0.0174089
-0.0179899
-0.0184281
-0.0187246
-0.0188797
-0.0188935
-0.0187656
-0.0184965
-0.0180877
-0.0175415
-0.0168609
-0.0160487
-0.0151056
-0.0140278
-0.0128036
-0.0114103
-0.00981159
-0.00795564
-0.00577712
-0.00324874
-0.000532623
0.00201376
0.00396174
0.00499274
0.00238956
0.00182965
0.00111534
0.000174627
-0.0011601
-0.00283928
-0.00473601
-0.00670103
-0.00863176
-0.0104429
-0.0121004
-0.0135849
-0.0148935
-0.0160322
-0.0170098
-0.0178358
-0.018518
-0.0190619
-0.0194715
-0.0197488
-0.0198947
-0.0199097
-0.0197938
-0.0195477
-0.0191728
-0.018671
-0.0180451
-0.0172977
-0.0164296
-0.0154377
-0.0143113
-0.0130281
-0.0115521
-0.00983159
-0.00779344
-0.00536485
-0.00262359
4.81075e-05
0.00235531
0.00393292
0.00199951
0.00139883
0.000585326
-0.000515396
-0.00204682
-0.00390903
-0.00593109
-0.00797098
-0.00992587
-0.0117262
-0.0133504
-0.0147882
-0.0160453
-0.0171327
-0.0180627
-0.0188466
-0.0194933
-0.020009
-0.0203981
-0.0206629
-0.0208046
-0.0208237
-0.0207205
-0.0204957
-0.0201503
-0.019686
-0.0191051
-0.01841
-0.0176024
-0.0166805
-0.0156363
-0.0144517
-0.0130945
-0.0115177
-0.0096541
-0.00741255
-0.00477146
-0.00212244
0.000220844
0.00187648
0.00126412
0.000641397
-0.0002423
-0.00146315
-0.00311433
-0.00507424
-0.00714186
-0.00919768
-0.0111313
-0.0128917
-0.0144652
-0.0158488
-0.0170535
-0.0180931
-0.0189815
-0.0197304
-0.0203489
-0.0208434
-0.021218
-0.021475
-0.0216158
-0.0216407
-0.0215503
-0.0213451
-0.0210258
-0.0205938
-0.0200511
-0.0194
-0.0186426
-0.0177791
-0.0168053
-0.0157081
-0.0144622
-0.0130273
-0.0113459
-0.00933286
-0.00691941
-0.00438031
-0.00220996
-0.000703504
0.000260772
-0.00036253
-0.00128373
-0.00257661
-0.00428689
-0.00626639
-0.008324
-0.0103497
-0.0122316
-0.0139341
-0.015448
-0.0167753
-0.0179297
-0.0189261
-0.0197785
-0.0204985
-0.0210947
-0.0215731
-0.0219373
-0.0221896
-0.0223313
-0.0223628
-0.0222847
-0.0220973
-0.0218013
-0.0213976
-0.0208881
-0.020275
-0.0195608
-0.0187478
-0.017835
-0.0168157
-0.015672
-0.014372
-0.0128678
-0.0110918
-0.00896985
-0.0066207
-0.00471338
-0.00344226
-0.000903069
-0.00151289
-0.00244469
-0.00376055
-0.00547401
-0.0074208
-0.00943789
-0.0114018
-0.0132146
-0.0148507
-0.0163023
-0.0175748
-0.0186828
-0.0196408
-0.0204626
-0.0211587
-0.021737
-0.0222028
-0.0225594
-0.0228089
-0.0229524
-0.0229904
-0.0229236
-0.0227522
-0.0224767
-0.022098
-0.0216176
-0.0210377
-0.0203615
-0.0195925
-0.0187332
-0.0177823
-0.01673
-0.0155537
-0.0142164
-0.0126678
-0.0108385
-0.00875594
-0.00710589
-0.00606493
-0.00212069
-0.00270344
-0.00362614
-0.00492774
-0.00660539
-0.00849134
-0.0104459
-0.0123332
-0.0140711
-0.0156391
-0.0170306
-0.0182525
-0.0193188
-0.0202437
-0.0210394
-0.0217157
-0.0222795
-0.0227353
-0.0230862
-0.0233338
-0.0234794
-0.0235234
-0.0234665
-0.023309
-0.0230513
-0.0226943
-0.0222393
-0.0216886
-0.0210456
-0.0203152
-0.0195026
-0.0186112
-0.0176384
-0.0165709
-0.0153817
-0.0140305
-0.012466
-0.01071
-0.00929686
-0.00842329
-0.00329132
-0.00383976
-0.00473683
-0.00600664
-0.00762839
-0.00944063
-0.0113209
-0.0131285
-0.0147935
-0.0162973
-0.0176341
-0.0188112
-0.0198416
-0.0207382
-0.0215123
-0.0221723
-0.0227242
-0.0231721
-0.0235185
-0.0237649
-0.0239124
-0.0239616
-0.023913
-0.023767
-0.0235243
-0.0231856
-0.0227523
-0.0222265
-0.0216121
-0.020915
-0.0201423
-0.0193017
-0.0183969
-0.0174227
-0.0163595
-0.0151739
-0.0138353
-0.0123806
-0.0111887
-0.0104502
-0.00433956
-0.00484563
-0.0057072
-0.00693803
-0.00849991
-0.0102388
-0.0120442
-0.0137769
-0.015376
-0.0168232
-0.018113
-0.0192522
-0.0202528
-0.0211263
-0.0218828
-0.0225297
-0.0230723
-0.023514
-0.0238569
-0.0241024
-0.0242515
-0.0243048
-0.0242627
-0.0241259
-0.0238951
-0.023571
-0.0231552
-0.0226499
-0.0220592
-0.0213895
-0.0206498
-0.0198508
-0.0190016
-0.0181041
-0.0171453
-0.0160986
-0.0149509
-0.0137485
-0.0127497
-0.012116
-0.00520398
-0.00567342
-0.00649376
-0.00768321
-0.00918867
-0.0108642
-0.0126026
-0.0142706
-0.0158141
-0.0172146
-0.0184664
-0.0195756
-0.0205527
-0.0214084
-0.0221515
-0.0227886
-0.0233242
-0.0237613
-0.0241018
-0.0243468
-0.0244971
-0.0245532
-0.0245159
-0.0243857
-0.0241633
-0.0238499
-0.023447
-0.0229572
-0.0223846
-0.0217361
-0.0210219
-0.0202551
-0.0194489
-0.0186111
-0.0177358
-0.0168039
-0.0158115
-0.0147982
-0.0139637
-0.0134186
-0.00585831
-0.00628235
-0.00706772
-0.00822134
-0.00967815
-0.0113034
-0.0129875
-0.0146039
-0.0161041
-0.0174691
-0.0186928
-0.0197802
-0.0207407
-0.021584
-0.0223181
-0.0229488
-0.02348
-0.0239144
-0.0242536
-0.0244984
-0.0246495
-0.0247075
-0.024673
-0.0245466
-0.0243292
-0.0240222
-0.0236272
-0.0231471
-0.0225864
-0.0219521
-0.0212553
-0.0205107
-0.0197349
-0.0189403
-0.0181281
-0.0172874
-0.0164175
-0.0155498
-0.0148434
-0.0143674
-0.00627539
-0.00666264
-0.0074238
-0.00854742
-0.00996211
-0.0115511
-0.013194
-0.0147727
-0.016243
-0.0175844
-0.0187902
-0.0198643
-0.0208153
-0.0216521
-0.0223818
-0.0230097
-0.0235395
-0.0239733
-0.0243125
-0.0245577
-0.0247095
-0.0247683
-0.0247347
-0.0246093
-0.0243933
-0.0240881
-0.0236957
-0.0232192
-0.0226631
-0.0220353
-0.0213472
-0.0206145
-0.0198563
-0.0190892
-0.0183206
-0.0175475
-0.0167709
-0.0160103
-0.0154011
-0.0149792
-0.00643929
-0.00681078
-0.00756276
-0.00866596
-0.0100456
-0.0116067
-0.0132197
-0.0147754
-0.0162288
-0.017558
-0.0187559
-0.0198256
-0.0207747
-0.021611
-0.0223413
-0.0229706
-0.0235022
-0.0239379
-0.0242788
-0.0245253
-0.0246778
-0.0247366
-0.0247021
-0.024575
-0.0243565
-0.0240483
-0.0236526
-0.0231728
-0.022614
-0.0219843
-0.0212953
-0.0205631
-0.0198101
-0.0190555
-0.018312
-0.0175843
-0.0168779
-0.0161985
-0.0156593
-0.0152704
-0.00638252
-0.00674329
-0.00749225
-0.00858492
-0.0099383
-0.0114743
-0.0130717
-0.0146151
-0.0160615
-0.0173884
-0.0185878
-0.0196614
-0.0206159
-0.0214583
-0.0221949
-0.0228303
-0.0233674
-0.0238079
-0.0241525
-0.0244016
-0.0245552
-0.0246134
-0.0245764
-0.0244449
-0.0242202
-0.0239039
-0.0234986
-0.0230081
-0.0224382
-0.0217971
-0.021097
-0.0203555
-0.0195947
-0.0188373
-0.0181006
-0.0173969
-0.0167394
-0.0161191
-0.0156426
-0.0152558
-0.00614568
-0.00649368
-0.00723895
-0.00832588
-0.00965779
-0.0111647
-0.0127531
-0.0142925
-0.0157399
-0.0170731
-0.0182824
-0.0193683
-0.0203359
-0.0211913
-0.0219403
-0.0225869
-0.0231339
-0.0235827
-0.0239338
-0.0241871
-0.0243425
-0.0243998
-0.0243589
-0.0242206
-0.0239859
-0.0236565
-0.0232353
-0.0227265
-0.0221362
-0.0214736
-0.0207519
-0.0199892
-0.0192083
-0.0184335
-0.0176867
-0.0169879
-0.0163595
-0.0157719
-0.015367
-0.0149474
-0.0057737
-0.00610662
-0.00684098
-0.00791641
-0.00922718
-0.0106984
-0.0122691
-0.0138084
-0.0152628
-0.016609
-0.017836
-0.018942
-0.0199305
-0.0208064
-0.0215745
-0.0222385
-0.0228006
-0.0232619
-0.0236226
-0.0238824
-0.0240407
-0.0240971
-0.0240513
-0.0239037
-0.0236553
-0.0233079
-0.0228644
-0.0223293
-0.0217095
-0.0210149
-0.0202598
-0.0194634
-0.0186496
-0.0178439
-0.0170719
-0.0163638
-0.0157491
-0.015158
-0.0148031
-0.0143614
-0.00532564
-0.0056371
-0.00634354
-0.00738769
-0.00866672
-0.0100992
-0.0116335
-0.0131673
-0.0146297
-0.015993
-0.0172437
-0.0183773
-0.0193948
-0.0202993
-0.0210942
-0.0217824
-0.0223655
-0.0228443
-0.0232186
-0.0234876
-0.0236506
-0.0237066
-0.0236551
-0.0234962
-0.0232307
-0.0228602
-0.0223879
-0.0218186
-0.0211599
-0.0204226
-0.0196222
-0.0187793
-0.0179191
-0.0170687
-0.0162583
-0.0155296
-0.0149186
-0.0142899
-0.0139802
-0.0135149
-0.00487346
-0.00514783
-0.0057958
-0.00677718
-0.00799818
-0.00937865
-0.0108629
-0.0123763
-0.0138408
-0.0152214
-0.0165001
-0.0176682
-0.018723
-0.0196648
-0.0204951
-0.0212154
-0.0218267
-0.0223289
-0.0227215
-0.0230034
-0.0231734
-0.02323
-0.0231725
-0.0230006
-0.0227148
-0.0223166
-0.0218091
-0.0211976
-0.0204904
-0.0196994
-0.0188418
-0.0179396
-0.0170195
-0.0161101
-0.015247
-0.0144813
-0.0138478
-0.0131917
-0.0129402
-0.0124275
-0.00448943
-0.00469569
-0.0052409
-0.00612047
-0.00724958
-0.00855067
-0.00996817
-0.0114413
-0.0128963
-0.0142907
-0.0155997
-0.0168083
-0.0179087
-0.0188971
-0.0197724
-0.020534
-0.0211815
-0.0217143
-0.0221311
-0.0224303
-0.0226103
-0.0226693
-0.022606
-0.0224199
-0.0221111
-0.0216809
-0.0211325
-0.0204713
-0.0197063
-0.018851
-0.0179241
-0.0169495
-0.015956
-0.0149735
-0.0140429
-0.0132238
-0.0125537
-0.0118597
-0.0116912
-0.0110902
-0.00422203
-0.00431238
-0.00470779
-0.00544821
-0.00645032
-0.00763585
-0.00895846
-0.0103676
-0.0117969
-0.0131979
-0.0145371
-0.0157914
-0.0169456
-0.0179907
-0.0189214
-0.0197345
-0.0204278
-0.0209994
-0.0214473
-0.0217693
-0.0219633
-0.0220272
-0.0219592
-0.0217585
-0.0214248
-0.0209591
-0.0203646
-0.0196469
-0.018816
-0.0178863
-0.0168788
-0.0158191
-0.0147385
-0.0136686
-0.0126555
-0.011766
-0.0110399
-0.0102803
-0.010234
-0.00946453
-0.00405127
-0.00397749
-0.00421145
-0.00478756
-0.00562512
-0.00665468
-0.00784579
-0.00916217
-0.0105455
-0.0119423
-0.0133091
-0.0146128
-0.0158288
-0.016941
-0.0179385
-0.0188144
-0.0195641
-0.020184
-0.020671
-0.0210223
-0.0212354
-0.0213077
-0.0212375
-0.0210225
-0.020663
-0.0201596
-0.0195152
-0.018736
-0.0178323
-0.0168199
-0.0157216
-0.0145651
-0.013384
-0.0122123
-0.0111018
-0.010124
-0.00931966
-0.00847244
-0.00854902
-0.00746646
-0.00383794
-0.00364923
-0.00376532
-0.00415958
-0.00479152
-0.00562283
-0.00664435
-0.00783655
-0.00915032
-0.0105286
-0.0119178
-0.0132727
-0.0145576
-0.0157469
-0.0168229
-0.0177737
-0.0185913
-0.0192699
-0.0198052
-0.0201937
-0.020432
-0.0205174
-0.0204477
-0.0202212
-0.0198366
-0.019295
-0.0185992
-0.0177555
-0.0167747
-0.0156738
-0.0144769
-0.0132132
-0.0119192
-0.0106315
-0.00940833
-0.00832212
-0.00741693
-0.00647086
-0.00659258
-0.00502154
-0.00353577
-0.00336056
-0.0033872
-0.00357593
-0.00396232
-0.00455416
-0.00536914
-0.00640624
-0.00762642
-0.00897034
-0.0103743
-0.01178
-0.0131389
-0.0144143
-0.0155799
-0.0166176
-0.0175149
-0.0182634
-0.018857
-0.0192912
-0.0195622
-0.019667
-0.0196032
-0.0193685
-0.0189617
-0.018384
-0.0176383
-0.0167307
-0.0156723
-0.0144805
-0.0131803
-0.0118019
-0.0103841
-0.00896648
-0.00761403
-0.00639721
-0.00536658
-0.00430277
-0.00432975
-0.00213272
-0.00327511
-0.00315822
-0.00308491
-0.00304453
-0.0031492
-0.00346281
-0.00403778
-0.00489318
-0.00599925
-0.00729418
-0.00870434
-0.0101581
-0.0115935
-0.0129616
-0.014226
-0.015361
-0.016349
-0.0171781
-0.01784
-0.0183292
-0.0186413
-0.0187731
-0.0187218
-0.0184856
-0.0180625
-0.0174544
-0.0166642
-0.0156978
-0.0145663
-0.0132862
-0.0118827
-0.0103852
-0.00883449
-0.00727218
-0.00577029
-0.00439352
-0.00319736
-0.00195262
-0.00173528
0.00109087
-0.00307911
-0.00302205
-0.00284189
-0.00256513
-0.00235989
-0.00236216
-0.00267059
-0.00332669
-0.00430663
-0.00554318
-0.00695247
-0.00845029
-0.00996162
-0.0114251
-0.0127937
-0.0140336
-0.0151209
-0.0160396
-0.0167791
-0.0173321
-0.0176941
-0.0178613
-0.0178311
-0.0176024
-0.0171733
-0.0165449
-0.015721
-0.0147069
-0.0135127
-0.0121532
-0.0106514
-0.00903402
-0.00734183
-0.00561566
-0.00393151
-0.00234225
-0.000909749
0.000614943
0.00120434
0.00464253
-0.00287996
-0.00289567
-0.0026134
-0.00210869
-0.00158258
-0.0012616
-0.0012961
-0.00174929
-0.00260179
-0.00377922
-0.0051855
-0.00672414
-0.00830833
-0.00986546
-0.0113386
-0.0126855
-0.0138761
-0.0148899
-0.0157134
-0.0163379
-0.0167578
-0.0169695
-0.0169705
-0.0167597
-0.0163388
-0.015705
-0.0148632
-0.0138183
-0.0125782
-0.0111537
-0.00956342
-0.00782728
-0.00598213
-0.00406012
-0.00213363
-0.000232168
0.00157501
0.00355734
0.00471529
0.00892269
-0.00262948
-0.00269704
-0.00234492
-0.00162661
-0.000794819
-0.000172645
4.57618e-05
-0.000222081
-0.00095939
-0.00208451
-0.00349072
-0.0050696
-0.0067229
-0.00836829
-0.00994061
-0.0113905
-0.0126821
-0.0137909
-0.0147005
-0.0154006
-0.0158846
-0.0161487
-0.016191
-0.0160104
-0.0156083
-0.0149858
-0.014144
-0.0130869
-0.0118203
-0.0103477
-0.00868106
-0.00682654
-0.00481024
-0.00263978
-0.000368445
0.00202496
0.00447484
0.00728667
0.00954074
0.015344
-0.00232907
-0.00240636
-0.00197258
-0.00107884
1.15281e-05
0.000870663
0.0012887
0.00116841
0.000522002
-0.000561606
-0.00196807
-0.00358123
-0.00529459
-0.00701749
-0.00867818
-0.0102217
-0.011607
-0.0128058
-0.0137992
-0.0145751
-0.015126
-0.0154474
-0.0155379
-0.0153967
-0.0150252
-0.014423
-0.0135928
-0.0125362
-0.0112568
-0.00975049
-0.00801973
-0.00604788
-0.00383952
-0.00135055
0.00140858
0.0045739
0.00811884
0.0125398
0.0172653
0.0267723
-0.0021264
-0.00215464
-0.00156774
-0.000484587
0.000774637
0.00182196
0.00236396
0.00233693
0.00174901
0.000684908
-0.000733576
-0.00238321
-0.00415169
-0.00594189
-0.00767664
-0.00929783
-0.0107605
-0.0120337
-0.0130975
-0.013938
-0.0145471
-0.0149197
-0.0150546
-0.014951
-0.0146103
-0.0140319
-0.0132174
-0.0121616
-0.0108697
-0.00933512
-0.00755021
-0.00546901
-0.00306505
-0.000206157
0.00317062
0.00743376
0.0126905
0.0201
0.029861
0.046342
-0.00308057
-0.00250497
-0.00144295
-3.96745e-05
0.00142103
0.00257774
0.00319592
0.00321434
0.00265602
0.00160698
0.000187207
-0.00148151
-0.00328558
-0.00512533
-0.00691841
-0.00860205
-0.0101277
-0.011462
-0.0125826
-0.0134745
-0.0141293
-0.0145423
-0.0147117
-0.0146368
-0.0143188
-0.0137574
-0.0129535
-0.0119053
-0.010611
-0.00905309
-0.00722376
-0.00506558
-0.00251818
0.000642608
0.00462463
0.0101567
0.0178771
0.0300255
0.0479739
0.0743909
-0.00522068
-0.00166154
-4.59737e-05
0.00132617
0.00265917
0.00370905
0.00424962
0.00419511
0.00357465
0.00248582
0.0010383
-0.000659301
-0.00249997
-0.00438541
-0.0062318
-0.00797029
-0.00955118
-0.0109388
-0.0121078
-0.0130426
-0.0137338
-0.0141774
-0.0143719
-0.0143172
-0.0140138
-0.0134621
-0.0126606
-0.0116065
-0.010294
-0.00871306
-0.0068723
-0.00469661
-0.00219524
0.00113907
0.00544519
0.0121222
0.0230577
0.0409858
0.0687019
0.103608
)
;

boundaryField
{
    movingWall
    {
        type            zeroGradient;
    }
    fixedWalls
    {
        type            zeroGradient;
    }
    frontAndBack
    {
        type            empty;
    }
}


// ************************************************************************* //
