/*--------------------------------*- C++ -*----------------------------------*\
  =========                 |
  \\      /  F ield         | OpenFOAM: The Open Source CFD Toolbox
   \\    /   O peration     | Website:  https://openfoam.org
    \\  /    A nd           | Version:  13
     \\/     M anipulation  |
\*---------------------------------------------------------------------------*/
FoamFile
{
    format      ascii;
    class       volVectorField;
    location    "7";
    object      U;
}
// * * * * * * * * * * * * * * * * * * * * * * * * * * * * * * * * * * * * * //

dimensions      [0 1 -1 0 0 0 0];

internalField   nonuniform List<vector> 
1600
(
(0.00121678 -0.00105189 0)
(0.00628572 -0.00164989 0)
(0.0111329 -0.00136417 0)
(0.0140979 -0.000229596 0)
(0.0144125 0.000348532 0)
(0.0138554 0.000151444 0)
(0.0130934 -0.000628312 0)
(0.012947 -0.001212 0)
(0.0125838 -0.00122371 0)
(0.0113927 -0.00095283 0)
(0.00868614 -0.000981278 0)
(0.00211266 -0.000529369 0)
(-0.00863373 0.00149437 0)
(-0.0206299 0.00755289 0)
(-0.0449537 0.0136192 0)
(-0.0706845 0.0139442 0)
(-0.0929428 0.0127573 0)
(-0.112692 0.0111249 0)
(-0.128787 0.00935588 0)
(-0.142177 0.00764913 0)
(-0.152373 0.00597887 0)
(-0.159972 0.00438277 0)
(-0.164362 0.00286633 0)
(-0.166178 0.00142394 0)
(-0.165473 -0.000871923 0)
(-0.160899 -0.00249901 0)
(-0.153551 -0.00478319 0)
(-0.141992 -0.00664481 0)
(-0.127056 -0.00891751 0)
(-0.108366 -0.0111627 0)
(-0.0863819 -0.0134319 0)
(-0.061574 -0.0149193 0)
(-0.0352722 -0.0152023 0)
(-0.00834234 -0.0137374 0)
(0.0133634 -0.0115994 0)
(0.0295436 -0.00433123 0)
(0.0310614 0.00336257 0)
(0.0246412 0.0053674 0)
(0.0118173 0.00444054 0)
(0.00245948 0.00304261 0)
(0.00221943 -0.00620336 0)
(0.010804 -0.00929528 0)
(0.0163886 -0.00683938 0)
(0.0195563 -0.00267603 0)
(0.0198358 0.000475716 0)
(0.0177706 0.00163836 0)
(0.014136 0.00145909 0)
(0.00912633 0.00161414 0)
(0.00138328 0.00305521 0)
(-0.0106918 0.0059863 0)
(-0.0279488 0.0113489 0)
(-0.0544876 0.0202017 0)
(-0.0856348 0.0288708 0)
(-0.113064 0.0349123 0)
(-0.135674 0.0351843 0)
(-0.154986 0.0326046 0)
(-0.171035 0.0287509 0)
(-0.184465 0.0243855 0)
(-0.195122 0.019996 0)
(-0.20346 0.0156899 0)
(-0.209325 0.011527 0)
(-0.213005 0.00743353 0)
(-0.21437 0.00336003 0)
(-0.213557 -0.000855589 0)
(-0.210306 -0.00543831 0)
(-0.204628 -0.0102241 0)
(-0.196205 -0.0153341 0)
(-0.184827 -0.0207523 0)
(-0.170168 -0.0264599 0)
(-0.151546 -0.0319831 0)
(-0.129693 -0.037143 0)
(-0.105068 -0.0412097 0)
(-0.0778988 -0.0422742 0)
(-0.0496474 -0.0392199 0)
(-0.0224153 -0.0308165 0)
(0.000907186 -0.0146283 0)
(0.0168439 0.00358482 0)
(0.0169621 0.0114803 0)
(0.0101071 0.0140337 0)
(0.00157373 0.0107364 0)
(0.00354688 -0.0143262 0)
(0.0118316 -0.0166522 0)
(0.0150707 -0.0110408 0)
(0.0158733 -0.00333818 0)
(0.0137588 0.00233042 0)
(0.00887802 0.00540039 0)
(0.00030967 0.00759217 0)
(-0.0129342 0.011944 0)
(-0.0325803 0.0203376 0)
(-0.0593091 0.0318534 0)
(-0.0895601 0.043233 0)
(-0.117429 0.0503349 0)
(-0.141369 0.0535457 0)
(-0.160214 0.0534514 0)
(-0.175686 0.0503511 0)
(-0.188121 0.0455901 0)
(-0.19823 0.0397877 0)
(-0.206342 0.0336376 0)
(-0.212743 0.0274326 0)
(-0.217572 0.0213559 0)
(-0.221034 0.0151039 0)
(-0.222934 0.00921718 0)
(-0.223287 0.00323298 0)
(-0.221988 -0.00279725 0)
(-0.219036 -0.0091516 0)
(-0.214393 -0.0159207 0)
(-0.20794 -0.0234414 0)
(-0.199392 -0.031689 0)
(-0.188644 -0.0408347 0)
(-0.175305 -0.0502124 0)
(-0.158898 -0.0592617 0)
(-0.138929 -0.0664717 0)
(-0.115589 -0.0696899 0)
(-0.0897487 -0.0675331 0)
(-0.0619449 -0.0569132 0)
(-0.033584 -0.0361491 0)
(-0.00648763 -0.00616627 0)
(0.00163695 0.0117022 0)
(0.00189336 0.018421 0)
(-0.00021881 0.0143926 0)
(0.00416047 -0.023055 0)
(0.00860549 -0.0211395 0)
(0.00882272 -0.0114076 0)
(0.00579082 -0.000611525 0)
(-0.000235175 0.00783489 0)
(-0.0105454 0.0150657 0)
(-0.0265877 0.0234473 0)
(-0.0487984 0.0347669 0)
(-0.0758429 0.0481947 0)
(-0.104913 0.0604793 0)
(-0.131191 0.0686157 0)
(-0.151552 0.071584 0)
(-0.167614 0.0709618 0)
(-0.179703 0.067322 0)
(-0.189515 0.0617836 0)
(-0.197089 0.0551206 0)
(-0.203237 0.0478226 0)
(-0.208285 0.0400309 0)
(-0.212553 0.0321963 0)
(-0.215769 0.0244885 0)
(-0.217865 0.0172097 0)
(-0.218804 0.00983654 0)
(-0.218656 0.0024866 0)
(-0.217429 -0.00505336 0)
(-0.215107 -0.0128387 0)
(-0.211568 -0.0211039 0)
(-0.206745 -0.0299988 0)
(-0.2005 -0.0396567 0)
(-0.192673 -0.050119 0)
(-0.183201 -0.0617236 0)
(-0.171957 -0.0738985 0)
(-0.158628 -0.0857329 0)
(-0.142545 -0.094652 0)
(-0.121597 -0.0965388 0)
(-0.095587 -0.0876025 0)
(-0.0653699 -0.0654594 0)
(-0.0293696 -0.0272306 0)
(-0.00732018 0.00438653 0)
(-0.00226215 0.0163002 0)
(-0.000264146 0.0139275 0)
(0.00256712 -0.0275353 0)
(0.00305357 -0.0211492 0)
(-0.00115674 -0.00712578 0)
(-0.00833843 0.00659492 0)
(-0.0193582 0.0192 0)
(-0.0353768 0.0318352 0)
(-0.0570331 0.0460156 0)
(-0.0829528 0.0614216 0)
(-0.109842 0.0752221 0)
(-0.133886 0.0843585 0)
(-0.152035 0.0875346 0)
(-0.165692 0.0865604 0)
(-0.17615 0.0826628 0)
(-0.183871 0.0765355 0)
(-0.190009 0.0691417 0)
(-0.194884 0.0607087 0)
(-0.199012 0.0519702 0)
(-0.202055 0.0433161 0)
(-0.203969 0.0348188 0)
(-0.204944 0.0264217 0)
(-0.205311 0.0181967 0)
(-0.205056 0.0100135 0)
(-0.204282 0.00184108 0)
(-0.202948 -0.00652718 0)
(-0.200936 -0.0152189 0)
(-0.198252 -0.0244737 0)
(-0.194877 -0.0344735 0)
(-0.19076 -0.0453875 0)
(-0.185806 -0.0572764 0)
(-0.179871 -0.0700385 0)
(-0.1727 -0.083366 0)
(-0.163877 -0.0965279 0)
(-0.153191 -0.109062 0)
(-0.139533 -0.117612 0)
(-0.120186 -0.116632 0)
(-0.0925552 -0.0997297 0)
(-0.056982 -0.0640809 0)
(-0.0170621 -0.0136292 0)
(-0.00216645 0.0108523 0)
(0.000738207 0.0130051 0)
(-0.000314574 -0.0283091 0)
(-0.00450217 -0.016112 0)
(-0.0127364 0.00112131 0)
(-0.0240665 0.0185011 0)
(-0.039557 0.0356353 0)
(-0.0596486 0.0531181 0)
(-0.0834781 0.0707837 0)
(-0.108285 0.0865058 0)
(-0.130546 0.0973966 0)
(-0.147303 0.101554 0)
(-0.159286 0.100577 0)
(-0.168392 0.0964975 0)
(-0.174944 0.0900302 0)
(-0.179742 0.0820518 0)
(-0.18331 0.0731406 0)
(-0.185496 0.06386 0)
(-0.186837 0.0544131 0)
(-0.18738 0.0449999 0)
(-0.187569 0.0357637 0)
(-0.187499 0.0267846 0)
(-0.187014 0.0180552 0)
(-0.186205 0.00944187 0)
(-0.185047 0.000854411 0)
(-0.183531 -0.00788641 0)
(-0.181638 -0.0169462 0)
(-0.17942 -0.0265501 0)
(-0.176904 -0.0369047 0)
(-0.17412 -0.0482326 0)
(-0.171071 -0.0607126 0)
(-0.167715 -0.0744182 0)
(-0.163904 -0.0891586 0)
(-0.159277 -0.104325 0)
(-0.153141 -0.118636 0)
(-0.144343 -0.130261 0)
(-0.131434 -0.136659 0)
(-0.111449 -0.130551 0)
(-0.081508 -0.104318 0)
(-0.0382682 -0.0517326 0)
(-0.00491159 -0.00196084 0)
(0.00160303 0.0123106 0)
(-0.00353042 -0.0230816 0)
(-0.012086 -0.00706923 0)
(-0.0238732 0.0132745 0)
(-0.0388295 0.0342564 0)
(-0.057547 0.055357 0)
(-0.0792326 0.0757854 0)
(-0.102021 0.0939718 0)
(-0.122986 0.10731 0)
(-0.138979 0.11351 0)
(-0.149871 0.113264 0)
(-0.157771 0.109315 0)
(-0.163289 0.10275 0)
(-0.166857 0.0944038 0)
(-0.169055 0.0850365 0)
(-0.170144 0.0750714 0)
(-0.170515 0.0649165 0)
(-0.170443 0.0548266 0)
(-0.170053 0.044983 0)
(-0.169492 0.0354511 0)
(-0.168716 0.0262088 0)
(-0.167732 0.0172048 0)
(-0.166552 0.00832962 0)
(-0.165161 -0.000524586 0)
(-0.163558 -0.00950242 0)
(-0.161748 -0.0187707 0)
(-0.159783 -0.028518 0)
(-0.157717 -0.0389382 0)
(-0.155621 -0.0502393 0)
(-0.153559 -0.0626238 0)
(-0.151572 -0.0762571 0)
(-0.14963 -0.0911873 0)
(-0.14754 -0.107184 0)
(-0.144745 -0.1235 0)
(-0.140119 -0.138425 0)
(-0.13193 -0.149146 0)
(-0.118175 -0.15164 0)
(-0.0964614 -0.138201 0)
(-0.0629439 -0.0982519 0)
(-0.0145604 -0.0238302 0)
(0.00266118 0.0111849 0)
(-0.00636761 -0.0138602 0)
(-0.0183748 0.00597302 0)
(-0.0329801 0.0286988 0)
(-0.0507687 0.0526729 0)
(-0.0708432 0.0761165 0)
(-0.091937 0.0971626 0)
(-0.111955 0.113617 0)
(-0.127904 0.122918 0)
(-0.138398 0.124385 0)
(-0.145527 0.121026 0)
(-0.150351 0.114659 0)
(-0.1532 0.106145 0)
(-0.154615 0.0963569 0)
(-0.155053 0.0859019 0)
(-0.154823 0.0751973 0)
(-0.15425 0.0645808 0)
(-0.15348 0.0542226 0)
(-0.152596 0.0442181 0)
(-0.151633 0.0345578 0)
(-0.150566 0.0251904 0)
(-0.149401 0.016041 0)
(-0.148111 0.00700688 0)
(-0.146687 -0.00201382 0)
(-0.145112 -0.0111516 0)
(-0.143403 -0.0205555 0)
(-0.1416 -0.0303861 0)
(-0.139771 -0.0408191 0)
(-0.138006 -0.0520469 0)
(-0.13641 -0.0642715 0)
(-0.135076 -0.0776818 0)
(-0.134044 -0.0923998 0)
(-0.133226 -0.108385 0)
(-0.132252 -0.125258 0)
(-0.130216 -0.14205 0)
(-0.125573 -0.15666 0)
(-0.116386 -0.165204 0)
(-0.100761 -0.161576 0)
(-0.0756244 -0.135958 0)
(-0.0331433 -0.0673818 0)
(0.000557707 0.000299027 0)
(-0.00812199 -0.000885701 0)
(-0.0229563 0.0220687 0)
(-0.0394891 0.0463368 0)
(-0.0585506 0.0718935 0)
(-0.0785027 0.0959615 0)
(-0.097868 0.115987 0)
(-0.114368 0.129292 0)
(-0.125209 0.133649 0)
(-0.13224 0.131653 0)
(-0.136743 0.125827 0)
(-0.13935 0.117486 0)
(-0.140417 0.107492 0)
(-0.140512 0.0966696 0)
(-0.139985 0.0855379 0)
(-0.139123 0.0744588 0)
(-0.138134 0.063658 0)
(-0.137094 0.0532234 0)
(-0.136052 0.0431781 0)
(-0.135004 0.0334743 0)
(-0.133928 0.0240486 0)
(-0.132798 0.0148174 0)
(-0.131575 0.00567718 0)
(-0.130234 -0.0034703 0)
(-0.128755 -0.0127346 0)
(-0.127147 -0.0222411 0)
(-0.125441 -0.0321186 0)
(-0.123701 -0.0425137 0)
(-0.122023 -0.0535944 0)
(-0.12053 -0.065557 0)
(-0.119356 -0.0786217 0)
(-0.118605 -0.0930014 0)
(-0.118287 -0.108821 0)
(-0.118191 -0.125972 0)
(-0.117674 -0.143888 0)
(-0.115372 -0.161105 0)
(-0.10941 -0.174443 0)
(-0.0983174 -0.177946 0)
(-0.0796015 -0.163952 0)
(-0.0499362 -0.114296 0)
(-0.00675748 -0.0148793 0)
(-0.00914096 0.014409 0)
(-0.0256098 0.0398128 0)
(-0.0429457 0.0648087 0)
(-0.0622325 0.0907741 0)
(-0.08118 0.114367 0)
(-0.0983804 0.132148 0)
(-0.110217 0.140524 0)
(-0.11798 0.141135 0)
(-0.122643 0.136389 0)
(-0.125341 0.128545 0)
(-0.126488 0.118652 0)
(-0.126515 0.107597 0)
(-0.125925 0.096115 0)
(-0.12498 0.0846241 0)
(-0.123914 0.0734001 0)
(-0.122844 0.0625695 0)
(-0.121817 0.0521567 0)
(-0.120848 0.042137 0)
(-0.119913 0.0324401 0)
(-0.118975 0.0229876 0)
(-0.117993 0.0136892 0)
(-0.116924 0.00445009 0)
(-0.115732 -0.00482698 0)
(-0.114398 -0.0142325 0)
(-0.112916 -0.0238672 0)
(-0.11131 -0.0338331 0)
(-0.109626 -0.044242 0)
(-0.107947 -0.0552265 0)
(-0.106389 -0.0669516 0)
(-0.105098 -0.0796287 0)
(-0.104215 -0.0935133 0)
(-0.103828 -0.108867 0)
(-0.103876 -0.125847 0)
(-0.103982 -0.144317 0)
(-0.103076 -0.163453 0)
(-0.099199 -0.180721 0)
(-0.0911464 -0.189932 0)
(-0.0767014 -0.184974 0)
(-0.0540124 -0.149401 0)
(-0.015929 -0.0422609 0)
(-0.00959603 0.0308761 0)
(-0.0265626 0.0582831 0)
(-0.0437166 0.0832448 0)
(-0.0623576 0.108776 0)
(-0.0798934 0.130825 0)
(-0.0937087 0.144628 0)
(-0.102183 0.148842 0)
(-0.108101 0.146415 0)
(-0.111075 0.139409 0)
(-0.112643 0.129928 0)
(-0.112923 0.118859 0)
(-0.112454 0.107083 0)
(-0.111607 0.0952114 0)
(-0.11059 0.0835649 0)
(-0.109574 0.0723292 0)
(-0.108625 0.0615533 0)
(-0.107764 0.0512147 0)
(-0.106981 0.0412517 0)
(-0.106235 0.0315775 0)
(-0.105486 0.0221029 0)
(-0.104685 0.0127371 0)
(-0.103791 0.00339286 0)
(-0.102771 -0.00602003 0)
(-0.101602 -0.0155788 0)
(-0.100274 -0.025364 0)
(-0.0987952 -0.0354565 0)
(-0.0971965 -0.0459397 0)
(-0.0955374 -0.0569125 0)
(-0.0939117 -0.0685051 0)
(-0.0924498 -0.0809027 0)
(-0.091303 -0.0943675 0)
(-0.090604 -0.109236 0)
(-0.0903958 -0.125851 0)
(-0.0905131 -0.144387 0)
(-0.0902575 -0.1646 0)
(-0.0878318 -0.185028 0)
(-0.0816094 -0.199297 0)
(-0.070221 -0.201493 0)
(-0.0504163 -0.178635 0)
(-0.0190576 -0.0918472 0)
(-0.00937222 0.0472951 0)
(-0.0259435 0.076442 0)
(-0.0422382 0.100797 0)
(-0.0595691 0.125144 0)
(-0.075338 0.144988 0)
(-0.0855867 0.154221 0)
(-0.0924327 0.155293 0)
(-0.096683 0.15017 0)
(-0.0986301 0.141335 0)
(-0.0995214 0.13054 0)
(-0.099374 0.118603 0)
(-0.0987583 0.106354 0)
(-0.0979155 0.0942731 0)
(-0.0970217 0.0825915 0)
(-0.09619 0.0714146 0)
(-0.0954526 0.0607314 0)
(-0.0948105 0.0504805 0)
(-0.0942349 0.0405739 0)
(-0.0936836 0.0309142 0)
(-0.0931145 0.0214081 0)
(-0.092484 0.011968 0)
(-0.0917556 0.00251333 0)
(-0.0909027 -0.00703771 0)
(-0.0899025 -0.016754 0)
(-0.0887415 -0.0267019 0)
(-0.0874196 -0.0369472 0)
(-0.0859492 -0.0475519 0)
(-0.0843651 -0.058586 0)
(-0.082731 -0.0701434 0)
(-0.0811482 -0.0823716 0)
(-0.0797544 -0.0955117 0)
(-0.0787011 -0.109932 0)
(-0.0780969 -0.126107 0)
(-0.0779099 -0.144467 0)
(-0.077774 -0.165155 0)
(-0.0763231 -0.187554 0)
(-0.0711049 -0.207278 0)
(-0.0623404 -0.214402 0)
(-0.0452482 -0.201072 0)
(-0.0160814 -0.12556 0)
(-0.00865226 0.0630545 0)
(-0.0241244 0.0936937 0)
(-0.0391026 0.117102 0)
(-0.0550189 0.139991 0)
(-0.0681049 0.156324 0)
(-0.075878 0.161909 0)
(-0.0815966 0.160247 0)
(-0.0846159 0.152918 0)
(-0.0859929 0.142601 0)
(-0.0865113 0.130768 0)
(-0.0862308 0.118203 0)
(-0.0856676 0.105651 0)
(-0.0849713 0.0934707 0)
(-0.0842888 0.0818173 0)
(-0.0836866 0.0707255 0)
(-0.083176 0.0601373 0)
(-0.0827426 0.0499611 0)
(-0.0823521 0.0400924 0)
(-0.0819657 0.0304296 0)
(-0.0815469 0.02088 0)
(-0.0810609 0.0113606 0)
(-0.0804787 0.00179662 0)
(-0.0797803 -0.00788674 0)
(-0.0789458 -0.0177536 0)
(-0.0779609 -0.0278629 0)
(-0.0768184 -0.0382711 0)
(-0.0755175 -0.0490272 0)
(-0.074071 -0.060181 0)
(-0.0725133 -0.0717966 0)
(-0.0709113 -0.0839817 0)
(-0.0693737 -0.0969379 0)
(-0.0680467 -0.111023 0)
(-0.0670759 -0.126787 0)
(-0.0665208 -0.144876 0)
(-0.066207 -0.165743 0)
(-0.0652168 -0.189283 0)
(-0.0610473 -0.213604 0)
(-0.0537701 -0.225832 0)
(-0.039572 -0.22136 0)
(-0.0142287 -0.158735 0)
(-0.00754834 0.0773925 0)
(-0.0215316 0.109495 0)
(-0.0348698 0.131758 0)
(-0.0490601 0.152775 0)
(-0.0593576 0.16534 0)
(-0.0655091 0.168214 0)
(-0.0703222 0.164135 0)
(-0.0724801 0.155014 0)
(-0.0735656 0.143499 0)
(-0.0739094 0.130855 0)
(-0.0736676 0.117841 0)
(-0.0732529 0.105096 0)
(-0.072761 0.0928776 0)
(-0.0723076 0.0812752 0)
(-0.0719263 0.0702646 0)
(-0.0716158 0.0597521 0)
(-0.0713546 0.0496253 0)
(-0.0711111 0.0397714 0)
(-0.0708536 0.0300887 0)
(-0.0705544 0.0204876 0)
(-0.0701883 0.0108899 0)
(-0.0697344 0.00122465 0)
(-0.0691783 -0.00857759 0)
(-0.0685046 -0.0185791 0)
(-0.0676994 -0.0288365 0)
(-0.066751 -0.0394018 0)
(-0.0656491 -0.0503182 0)
(-0.0643897 -0.0616227 0)
(-0.0629828 -0.0733571 0)
(-0.0614636 -0.085594 0)
(-0.0599078 -0.0984891 0)
(-0.0584395 -0.112362 0)
(-0.0572155 -0.12778 0)
(-0.056356 -0.145544 0)
(-0.0558053 -0.16642 0)
(-0.0550319 -0.19077 0)
(-0.052089 -0.217513 0)
(-0.0453124 -0.235887 0)
(-0.0344032 -0.236794 0)
(-0.0116978 -0.183845 0)
(-0.00632727 0.0900453 0)
(-0.0184084 0.123469 0)
(-0.0298968 0.144439 0)
(-0.042091 0.163362 0)
(-0.0499179 0.172658 0)
(-0.0553025 0.173419 0)
(-0.0589969 0.167236 0)
(-0.0606344 0.156684 0)
(-0.061559 0.14421 0)
(-0.0618494 0.130943 0)
(-0.0617264 0.117606 0)
(-0.0614903 0.104734 0)
(-0.0612068 0.0925041 0)
(-0.0609605 0.0809496 0)
(-0.0607648 0.0699998 0)
(-0.0606122 0.0595356 0)
(-0.0604816 0.0494319 0)
(-0.0603482 0.039573 0)
(-0.060189 0.0298592 0)
(-0.0599853 0.0202049 0)
(-0.0597209 0.0105356 0)
(-0.0593823 0.000783113 0)
(-0.05896 -0.00911916 0)
(-0.058443 -0.0192336 0)
(-0.0578188 -0.029618 0)
(-0.0570737 -0.0403245 0)
(-0.0561913 -0.0513955 0)
(-0.055156 -0.0628623 0)
(-0.053959 -0.0747516 0)
(-0.0526106 -0.0871073 0)
(-0.0511558 -0.10004 0)
(-0.0496914 -0.113815 0)
(-0.0483667 -0.128973 0)
(-0.0473371 -0.146406 0)
(-0.0466309 -0.167168 0)
(-0.0459455 -0.191998 0)
(-0.0438233 -0.220613 0)
(-0.0378276 -0.244975 0)
(-0.0300048 -0.250964 0)
(-0.010231 -0.207348 0)
(-0.0048379 0.100352 0)
(-0.014955 0.135326 0)
(-0.0245952 0.155199 0)
(-0.0346269 0.171851 0)
(-0.0405317 0.17862 0)
(-0.0451261 0.177578 0)
(-0.0479139 0.169734 0)
(-0.0492334 0.158065 0)
(-0.0500569 0.144839 0)
(-0.0503594 0.131096 0)
(-0.0503755 0.117525 0)
(-0.0503097 0.104562 0)
(-0.0502086 0.092326 0)
(-0.0501295 0.0808026 0)
(-0.0500757 0.0698875 0)
(-0.0500385 0.059445 0)
(-0.0500019 0.049343 0)
(-0.0499489 0.0394659 0)
(-0.0498655 0.0297168 0)
(-0.049741 0.0200136 0)
(-0.0495666 0.0102845 0)
(-0.049335 0.000462616 0)
(-0.0490411 -0.00951743 0)
(-0.0486774 -0.0197195 0)
(-0.0482341 -0.0302046 0)
(-0.0476972 -0.0410285 0)
(-0.0470475 -0.0522366 0)
(-0.046262 -0.0638601 0)
(-0.0453188 -0.0759171 0)
(-0.0442085 -0.0884292 0)
(-0.042951 -0.101465 0)
(-0.0416169 -0.115233 0)
(-0.0403421 -0.130222 0)
(-0.0393064 -0.147348 0)
(-0.0386145 -0.167891 0)
(-0.0380574 -0.192919 0)
(-0.0366052 -0.222537 0)
(-0.0321055 -0.251697 0)
(-0.0252784 -0.26249 0)
(-0.00862255 -0.225816 0)
(-0.0035043 0.108621 0)
(-0.0113821 0.145085 0)
(-0.0191941 0.164009 0)
(-0.0270556 0.178478 0)
(-0.0313543 0.183332 0)
(-0.0351641 0.180857 0)
(-0.0372225 0.17175 0)
(-0.038319 0.159236 0)
(-0.0390644 0.145433 0)
(-0.0394038 0.131335 0)
(-0.0395462 0.117588 0)
(-0.0396224 0.104552 0)
(-0.0396646 0.0923037 0)
(-0.0397091 0.0807901 0)
(-0.0397553 0.0698852 0)
(-0.0397973 0.059443 0)
(-0.0398255 0.0493285 0)
(-0.0398312 0.0394274 0)
(-0.0398083 0.0296452 0)
(-0.0397526 0.0199023 0)
(-0.0396613 0.0101285 0)
(-0.0395322 0.000257511 0)
(-0.0393633 -0.00977626 0)
(-0.0391509 -0.0200388 0)
(-0.0388878 -0.0305954 0)
(-0.0385615 -0.0415076 0)
(-0.0381528 -0.0528269 0)
(-0.0376351 -0.0645885 0)
(-0.0369784 -0.0768077 0)
(-0.0361589 -0.0894897 0)
(-0.035176 -0.102667 0)
(-0.0340753 -0.116487 0)
(-0.0329724 -0.131371 0)
(-0.0320528 -0.148221 0)
(-0.0314772 -0.168483 0)
(-0.0311208 -0.193594 0)
(-0.0302236 -0.224116 0)
(-0.0269509 -0.257078 0)
(-0.0220871 -0.272756 0)
(-0.00751953 -0.243019 0)
(-0.00185022 0.114176 0)
(-0.00775246 0.152566 0)
(-0.0137123 0.170784 0)
(-0.019536 0.183416 0)
(-0.0225363 0.186949 0)
(-0.0255115 0.183367 0)
(-0.0269669 0.173364 0)
(-0.02787 0.160238 0)
(-0.0285395 0.146009 0)
(-0.0289133 0.13165 0)
(-0.0291531 0.117768 0)
(-0.0293357 0.104668 0)
(-0.0294801 0.0923946 0)
(-0.0296079 0.0808708 0)
(-0.0297186 0.0699564 0)
(-0.0298108 0.0595001 0)
(-0.029882 0.0493663 0)
(-0.0299309 0.0394417 0)
(-0.0299579 0.0296338 0)
(-0.0299646 0.0198642 0)
(-0.0299526 0.0100634 0)
(-0.0299236 0.00016489 0)
(-0.0298784 -0.00989774 0)
(-0.0298163 -0.0201929 0)
(-0.0297328 -0.0307905 0)
(-0.0296182 -0.0417585 0)
(-0.029455 -0.0531566 0)
(-0.0292168 -0.0650273 0)
(-0.0288699 -0.077388 0)
(-0.0283814 -0.0902339 0)
(-0.0277353 -0.103567 0)
(-0.026957 -0.117479 0)
(-0.026142 -0.132312 0)
(-0.0254683 -0.148909 0)
(-0.0251249 -0.168808 0)
(-0.025067 -0.193837 0)
(-0.0247954 -0.225126 0)
(-0.022719 -0.26044 0)
(-0.0189956 -0.280905 0)
(-0.00639145 -0.257008 0)
(-0.000684802 0.117841 0)
(-0.00418868 0.157915 0)
(-0.00828393 0.175606 0)
(-0.0121888 0.186834 0)
(-0.0141021 0.189563 0)
(-0.0161774 0.185163 0)
(-0.0171223 0.174598 0)
(-0.0178312 0.161076 0)
(-0.0184141 0.146558 0)
(-0.0188034 0.132017 0)
(-0.0191064 0.118032 0)
(-0.0193592 0.10487 0)
(-0.0195683 0.0925599 0)
(-0.0197455 0.0810096 0)
(-0.0198924 0.0700721 0)
(-0.0200126 0.059594 0)
(-0.0201102 0.04944 0)
(-0.0201908 0.0394978 0)
(-0.0202604 0.0296755 0)
(-0.020325 0.0198952 0)
(-0.0203901 0.010087 0)
(-0.0204602 0.000183643 0)
(-0.0205385 -0.00988254 0)
(-0.0206267 -0.0201823 0)
(-0.0207231 -0.0307898 0)
(-0.020821 -0.0417796 0)
(-0.0209062 -0.0532199 0)
(-0.0209551 -0.0651628 0)
(-0.0209339 -0.077632 0)
(-0.0208053 -0.090618 0)
(-0.0205425 -0.104099 0)
(-0.0201532 -0.118115 0)
(-0.0197126 -0.132929 0)
(-0.0193835 -0.149305 0)
(-0.0193701 -0.168815 0)
(-0.0197096 -0.19363 0)
(-0.0200914 -0.225448 0)
(-0.0190898 -0.262954 0)
(-0.0168043 -0.287982 0)
(-0.00556597 -0.270075 0)
(0.00112422 0.118621 0)
(-0.000640604 0.161086 0)
(-0.00290183 0.178553 0)
(-0.00507012 0.188888 0)
(-0.00597605 0.191153 0)
(-0.00715231 0.186303 0)
(-0.00763012 0.175479 0)
(-0.00812766 0.161751 0)
(-0.00860565 0.147063 0)
(-0.0089838 0.132406 0)
(-0.00931606 0.118344 0)
(-0.00960661 0.105123 0)
(-0.0098494 0.0927667 0)
(-0.010049 0.0811784 0)
(-0.01021 0.0702095 0)
(-0.0103409 0.0597073 0)
(-0.0104522 0.0495372 0)
(-0.0105553 0.0395871 0)
(-0.0106613 0.029765 0)
(-0.0107801 0.0199924 0)
(-0.0109203 0.0101981 0)
(-0.011089 0.000313558 0)
(-0.0112912 -0.00973043 0)
(-0.0115307 -0.0200066 0)
(-0.0118081 -0.030593 0)
(-0.0121199 -0.0415697 0)
(-0.0124562 -0.0530134 0)
(-0.0127975 -0.0649866 0)
(-0.0131132 -0.0775221 0)
(-0.0133664 -0.0906114 0)
(-0.0135241 -0.104216 0)
(-0.0135792 -0.118331 0)
(-0.0135868 -0.133139 0)
(-0.0136902 -0.149312 0)
(-0.0140974 -0.168405 0)
(-0.0149241 -0.192888 0)
(-0.0159727 -0.224981 0)
(-0.0159336 -0.264075 0)
(-0.0148007 -0.293421 0)
(-0.00474498 -0.280959 0)
(0.00228295 0.117288 0)
(0.00275966 0.162151 0)
(0.00234169 0.179755 0)
(0.00179426 0.189684 0)
(0.0019082 0.191797 0)
(0.00162721 0.186778 0)
(0.00158507 0.175959 0)
(0.00131945 0.162225 0)
(0.000971173 0.147494 0)
(0.000634383 0.132787 0)
(0.00030276 0.118674 0)
(2.04993e-06 0.105399 0)
(-0.000247178 0.0929905 0)
(-0.000447118 0.0813564 0)
(-0.000605149 0.0703518 0)
(-0.00073353 0.059827 0)
(-0.000848299 0.0496479 0)
(-0.000966219 0.0397026 0)
(-0.00110293 0.0298976 0)
(-0.00127211 0.0201528 0)
(-0.00148527 0.0103954 0)
(-0.00175166 0.000554976 0)
(-0.00207839 -0.00943966 0)
(-0.00247088 -0.0196633 0)
(-0.00293146 -0.0301972 0)
(-0.00345977 -0.0411265 0)
(-0.00404969 -0.0525349 0)
(-0.00468646 -0.0644937 0)
(-0.00534697 -0.0770462 0)
(-0.00599829 -0.0901901 0)
(-0.00660493 -0.103877 0)
(-0.00714793 -0.118067 0)
(-0.00766257 -0.132866 0)
(-0.00827074 -0.148851 0)
(-0.00917548 -0.167529 0)
(-0.0105603 -0.191585 0)
(-0.0123278 -0.223815 0)
(-0.0131798 -0.264379 0)
(-0.0133322 -0.297982 0)
(-0.00411248 -0.291192 0)
(0.00353474 0.113879 0)
(0.00613066 0.161184 0)
(0.00745043 0.179377 0)
(0.00841867 0.18923 0)
(0.00959242 0.191364 0)
(0.0101654 0.18669 0)
(0.0105829 0.176083 0)
(0.0105922 0.162492 0)
(0.0104016 0.147826 0)
(0.0101344 0.133129 0)
(0.009834 0.11899 0)
(0.00954992 0.105671 0)
(0.00931307 0.0932097 0)
(0.00912778 0.081526 0)
(0.0089861 0.0704849 0)
(0.00887145 0.0599415 0)
(0.00876258 0.0497634 0)
(0.00863768 0.0398375 0)
(0.00847663 0.0300683 0)
(0.00826205 0.0203734 0)
(0.00797949 0.0106772 0)
(0.0076174 0.000907282 0)
(0.00716651 -0.00900985 0)
(0.00662011 -0.0191508 0)
(0.00597386 -0.0295993 0)
(0.00522553 -0.0404448 0)
(0.00437839 -0.0517767 0)
(0.00344086 -0.0636755 0)
(0.00242798 -0.0761948 0)
(0.00136744 -0.0893386 0)
(0.000289011 -0.103055 0)
(-0.000779549 -0.117275 0)
(-0.00185436 -0.132048 0)
(-0.00303302 -0.147844 0)
(-0.00450457 -0.166097 0)
(-0.0064974 -0.189647 0)
(-0.00902775 -0.221849 0)
(-0.0106452 -0.263535 0)
(-0.0120174 -0.301283 0)
(-0.00347048 -0.299885 0)
(0.00489647 0.107906 0)
(0.00949899 0.158176 0)
(0.012457 0.177431 0)
(0.0148321 0.187549 0)
(0.0170849 0.189961 0)
(0.0184874 0.185926 0)
(0.019424 0.175838 0)
(0.019747 0.162525 0)
(0.0197487 0.14803 0)
(0.019588 0.133407 0)
(0.0193499 0.119274 0)
(0.0191062 0.105917 0)
(0.0189005 0.0934041 0)
(0.0187449 0.0816716 0)
(0.0186318 0.0705968 0)
(0.0185413 0.0600416 0)
(0.0184476 0.0498755 0)
(0.0183241 0.0399846 0)
(0.0181462 0.030271 0)
(0.0178929 0.0206489 0)
(0.0175464 0.01104 0)
(0.0170927 0.00136865 0)
(0.01652 -0.00844114 0)
(0.0158202 -0.0184685 0)
(0.0149873 -0.0287992 0)
(0.0140165 -0.0395248 0)
(0.0129072 -0.0507379 0)
(0.0116602 -0.0625254 0)
(0.0102858 -0.0749524 0)
(0.00880312 -0.0880337 0)
(0.00723478 -0.101719 0)
(0.0056083 -0.11592 0)
(0.00392372 -0.130633 0)
(0.00211292 -0.146229 0)
(7.71818e-06 -0.16405 0)
(-0.00265721 -0.187042 0)
(-0.0060316 -0.219154 0)
(-0.00831605 -0.261851 0)
(-0.0110108 -0.303883 0)
(-0.00291824 -0.308094 0)
(0.0062201 0.0997843 0)
(0.0128056 0.15321 0)
(0.0173567 0.173999 0)
(0.021058 0.184705 0)
(0.0244337 0.187562 0)
(0.0265394 0.184431 0)
(0.0281149 0.175216 0)
(0.0288198 0.162292 0)
(0.0290602 0.148067 0)
(0.0290508 0.133583 0)
(0.0289113 0.119491 0)
(0.0287374 0.106117 0)
(0.0285866 0.0935594 0)
(0.0284781 0.0817812 0)
(0.0284066 0.0706767 0)
(0.0283508 0.0601169 0)
(0.0282815 0.0499745 0)
(0.0281681 0.0401349 0)
(0.0279818 0.0304972 0)
(0.0276974 0.0209721 0)
(0.0272939 0.0114776 0)
(0.0267543 0.00193468 0)
(0.0260642 -0.00773571 0)
(0.0252135 -0.0176156 0)
(0.0241941 -0.0277922 0)
(0.022998 -0.0383591 0)
(0.0216199 -0.0494123 0)
(0.0200571 -0.0610417 0)
(0.0183127 -0.0733168 0)
(0.0163912 -0.0862621 0)
(0.0143098 -0.0998392 0)
(0.0120949 -0.113957 0)
(0.00975572 -0.128568 0)
(0.00725853 -0.143944 0)
(0.00445864 -0.161313 0)
(0.00106054 -0.18369 0)
(-0.00324714 -0.21563 0)
(-0.00611386 -0.2593 0)
(-0.0103379 -0.305114 0)
(-0.00208443 -0.315258 0)
(0.00743837 0.089488 0)
(0.0159937 0.146285 0)
(0.0221118 0.169097 0)
(0.0270678 0.18071 0)
(0.0315007 0.184392 0)
(0.0343865 0.182053 0)
(0.0366169 0.174062 0)
(0.0378174 0.161729 0)
(0.0383634 0.147881 0)
(0.038561 0.13361 0)
(0.0385699 0.119607 0)
(0.0385056 0.106242 0)
(0.0384389 0.0936541 0)
(0.0383994 0.0818388 0)
(0.0383861 0.070712 0)
(0.0383782 0.060157 0)
(0.0383448 0.0500512 0)
(0.0382519 0.0402797 0)
(0.038067 0.030739 0)
(0.0377609 0.0213357 0)
(0.0373088 0.0119836 0)
(0.0366905 0.00259992 0)
(0.0358888 -0.00689768 0)
(0.0348907 -0.016594 0)
(0.0336851 -0.0265775 0)
(0.0322611 -0.0369427 0)
(0.0306098 -0.0477868 0)
(0.0287231 -0.0592037 0)
(0.0265923 -0.071268 0)
(0.0242147 -0.0840111 0)
(0.0215982 -0.0974006 0)
(0.0187595 -0.111352 0)
(0.0157159 -0.125799 0)
(0.0124794 -0.140931 0)
(0.00892402 -0.157838 0)
(0.0047275 -0.179566 0)
(-0.000604231 -0.211289 0)
(-0.00402466 -0.25598 0)
(-0.00980505 -0.305542 0)
(-0.00135504 -0.3221 0)
(0.00848608 0.0771348 0)
(0.0189548 0.137492 0)
(0.0266164 0.1628 0)
(0.0327806 0.175626 0)
(0.0380915 0.18039 0)
(0.0420379 0.178884 0)
(0.0448791 0.172217 0)
(0.0467024 0.160746 0)
(0.0476522 0.147405 0)
(0.0481352 0.133428 0)
(0.0483588 0.11957 0)
(0.0484578 0.106252 0)
(0.0485181 0.0936585 0)
(0.0485799 0.0818228 0)
(0.0486491 0.0706866 0)
(0.048708 0.0601487 0)
(0.0487259 0.0500938 0)
(0.048667 0.0404082 0)
(0.0484956 0.030986 0)
(0.0481789 0.0217298 0)
(0.0476885 0.0125492 0)
(0.0470005 0.00335722 0)
(0.0460945 -0.00593236 0)
(0.0449539 -0.0154064 0)
(0.0435638 -0.0251547 0)
(0.0419097 -0.035273 0)
(0.0399782 -0.0458583 0)
(0.0377546 -0.0570033 0)
(0.0352227 -0.0687844 0)
(0.0323682 -0.0812434 0)
(0.0291824 -0.0943612 0)
(0.0256782 -0.108065 0)
(0.0218835 -0.122275 0)
(0.0178422 -0.137117 0)
(0.0134667 -0.153557 0)
(0.00839699 -0.174617 0)
(0.00199461 -0.206091 0)
(-0.00187201 -0.251753 0)
(-0.00908479 -0.304943 0)
(-0.000422824 -0.32819 0)
(0.00917817 0.062798 0)
(0.0215217 0.126784 0)
(0.03065 0.155056 0)
(0.0380221 0.169446 0)
(0.0442543 0.17541 0)
(0.0491892 0.175013 0)
(0.0528068 0.169561 0)
(0.0553642 0.159212 0)
(0.0568618 0.146538 0)
(0.0577467 0.132955 0)
(0.0582799 0.119311 0)
(0.0586216 0.10609 0)
(0.0588725 0.0935287 0)
(0.0590852 0.0816997 0)
(0.0592744 0.0705748 0)
(0.0594286 0.0600722 0)
(0.0595201 0.0500862 0)
(0.0595131 0.0405064 0)
(0.0593706 0.0312256 0)
(0.0590571 0.0221429 0)
(0.0585402 0.0131643 0)
(0.0577934 0.00419793 0)
(0.0567917 -0.00484619 0)
(0.0555142 -0.014056 0)
(0.0539422 -0.0235232 0)
(0.0520562 -0.0333441 0)
(0.0498367 -0.0436141 0)
(0.0472621 -0.0544244 0)
(0.0443069 -0.0658507 0)
(0.0409443 -0.0779385 0)
(0.0371542 -0.090683 0)
(0.0329433 -0.104037 0)
(0.0283336 -0.117937 0)
(0.0234195 -0.132442 0)
(0.0181293 -0.148386 0)
(0.0120735 -0.168773 0)
(0.00459979 -0.199997 0)
(0.000329214 -0.246799 0)
(-0.00898953 -0.303415 0)
(0.000451559 -0.334099 0)
(0.00924006 0.0469966 0)
(0.023343 0.114344 0)
(0.0339372 0.145914 0)
(0.0425573 0.162176 0)
(0.0497815 0.169428 0)
(0.055667 0.170277 0)
(0.0602444 0.16603 0)
(0.0636454 0.156963 0)
(0.0658688 0.145133 0)
(0.0673183 0.132071 0)
(0.0682973 0.118732 0)
(0.0689948 0.105677 0)
(0.0695285 0.0932007 0)
(0.0699652 0.0814197 0)
(0.0703315 0.0703389 0)
(0.0706247 0.0598984 0)
(0.070823 0.0500058 0)
(0.0708941 0.0405559 0)
(0.0708012 0.0314422 0)
(0.0705081 0.0225617 0)
(0.0699791 0.0138172 0)
(0.0691853 0.00511228 0)
(0.0680973 -0.00364605 0)
(0.0666888 -0.0125464 0)
(0.0649364 -0.0216823 0)
(0.0628149 -0.0311495 0)
(0.0602971 -0.0410407 0)
(0.0573529 -0.0514439 0)
(0.0539467 -0.0624321 0)
(0.0500404 -0.0740558 0)
(0.0456008 -0.0863252 0)
(0.0406298 -0.0992212 0)
(0.035144 -0.112704 0)
(0.0292804 -0.126818 0)
(0.0229746 -0.142241 0)
(0.0158744 -0.161904 0)
(0.00724425 -0.192772 0)
(0.00265771 -0.240839 0)
(-0.00880937 -0.3011 0)
(0.00161168 -0.339465 0)
(0.00776661 0.0302261 0)
(0.0239597 0.100029 0)
(0.0360786 0.135143 0)
(0.046063 0.153735 0)
(0.0543905 0.162459 0)
(0.0612803 0.164531 0)
(0.0669085 0.161538 0)
(0.0713183 0.153815 0)
(0.0744754 0.142995 0)
(0.0767015 0.130601 0)
(0.0783131 0.117686 0)
(0.0795241 0.104893 0)
(0.0804718 0.0925782 0)
(0.0812389 0.080907 0)
(0.0818666 0.0699201 0)
(0.0823644 0.0595829 0)
(0.08272 0.0498186 0)
(0.0829073 0.0405307 0)
(0.0828935 0.0316155 0)
(0.0826432 0.0229696 0)
(0.0821202 0.0144949 0)
(0.0812925 0.00608977 0)
(0.0801275 -0.00233912 0)
(0.0785925 -0.0108801 0)
(0.0766591 -0.0196291 0)
(0.0742953 -0.0286798 0)
(0.0714644 -0.0381204 0)
(0.0681263 -0.048035 0)
(0.0642347 -0.0584929 0)
(0.0597405 -0.0695493 0)
(0.0545992 -0.0812299 0)
(0.0488099 -0.0935525 0)
(0.0423806 -0.10651 0)
(0.0354829 -0.120152 0)
(0.0280635 -0.135021 0)
(0.0198232 -0.153958 0)
(0.00994549 -0.184471 0)
(0.00506459 -0.233788 0)
(-0.00911339 -0.298101 0)
(0.00289307 -0.344533 0)
(0.00393885 0.0157386 0)
(0.0225302 0.0842958 0)
(0.0366492 0.122706 0)
(0.0481973 0.143968 0)
(0.0577639 0.154439 0)
(0.0657325 0.157711 0)
(0.0724913 0.155917 0)
(0.0780874 0.149556 0)
(0.0824142 0.13989 0)
(0.0856761 0.128334 0)
(0.0881582 0.11599 0)
(0.0900904 0.10358 0)
(0.0916282 0.0915305 0)
(0.0928722 0.0800556 0)
(0.0938802 0.0692347 0)
(0.0946771 0.0590605 0)
(0.0952635 0.049475 0)
(0.0956232 0.0403932 0)
(0.0957312 0.0317171 0)
(0.0955542 0.0233458 0)
(0.0950611 0.0151819 0)
(0.0942149 0.0071195 0)
(0.0929812 -0.000932824 0)
(0.0913231 -0.00905835 0)
(0.0892048 -0.0173578 0)
(0.086587 -0.0259208 0)
(0.0834227 -0.0348295 0)
(0.0796608 -0.0441638 0)
(0.0752435 -0.0539888 0)
(0.0701126 -0.0643664 0)
(0.064214 -0.0753387 0)
(0.0575469 -0.0869657 0)
(0.0501095 -0.0992755 0)