/*--------------------------------*- C++ -*----------------------------------*\
  =========                 |
  \\      /  F ield         | OpenFOAM: The Open Source CFD Toolbox
   \\    /   O peration     | Website:  https://openfoam.org
    \\  /    A nd           | Version:  13
     \\/     M anipulation  |
\*---------------------------------------------------------------------------*/
FoamFile
{
    format      ascii;
    class       volScalarField;
    location    "8.3";
    object      k;
}
// * * * * * * * * * * * * * * * * * * * * * * * * * * * * * * * * * * * * * //

dimensions      [0 2 -2 0 0 0 0];

internalField   nonuniform List<scalar> 
6400
(
5.6635e-07
2.90858e-06
7.06894e-06
1.13807e-05
1.46229e-05
1.64366e-05
1.70884e-05
1.71417e-05
1.72317e-05
1.78377e-05
1.93291e-05
2.22738e-05
2.6934e-05
3.34167e-05
4.13779e-05
5.03773e-05
5.99544e-05
6.99242e-05
7.98127e-05
8.93824e-05
9.90185e-05
0.000109549
0.000122079
0.000137241
0.000154372
0.000171619
0.000188747
0.000205753
0.000223174
0.000241474
0.000260392
0.000279297
0.000297884
0.000316221
0.000334758
0.000353612
0.000373162
0.00039353
0.000414963
0.000437521
0.000461369
0.000486693
0.000513634
0.000542486
0.00057351
0.000607768
0.000647294
0.000696407
0.000745381
0.000795414
0.000844304
0.000891779
0.000936277
0.000976586
0.00101121
0.00103834
0.00105205
0.00105749
0.00105503
0.00103453
0.000998529
0.000947175
0.000880991
0.000802779
0.000713881
0.000618958
0.000522569
0.000428377
0.000339872
0.00026113
0.000197007
0.000143213
9.97867e-05
6.66367e-05
4.27954e-05
2.65635e-05
1.59855e-05
9.17804e-06
4.33994e-06
9.24918e-07
2.73568e-06
2.29838e-05
5.57329e-05
8.70175e-05
0.000110079
0.000123784
0.000130281
0.000132883
0.000135193
0.000140314
0.000151719
0.00017346
0.000206668
0.000250709
0.000303508
0.000362386
0.00042494
0.000488734
0.00055193
0.000613872
0.000676687
0.00074482
0.000823802
0.000916015
0.00101731
0.00111863
0.00121712
0.00131085
0.00140084
0.00148809
0.00157082
0.00164803
0.0017183
0.00178258
0.0018432
0.00190103
0.00195806
0.00201513
0.00207357
0.00213393
0.0021969
0.00226319
0.00233285
0.00240604
0.00248213
0.00256105
0.00264098
0.00271909
0.00280281
0.00288858
0.00297676
0.00306386
0.00314833
0.00322642
0.00329482
0.00334942
0.00337815
0.00338718
0.00337533
0.00332958
0.00324617
0.00312469
0.00296347
0.00276616
0.00253721
0.00228533
0.00202171
0.00175446
0.00149134
0.00123667
0.000994349
0.000774121
0.000582481
0.000422353
0.00029426
0.000196312
0.000125313
7.54914e-05
3.66076e-05
4.88902e-06
5.97341e-06
4.97579e-05
0.000115515
0.000170444
0.000207724
0.000229668
0.000241733
0.000249948
0.000260356
0.000278904
0.000311434
0.000362786
0.000434714
0.000525437
0.000630932
0.000746981
0.000870285
0.000998104
0.00112781
0.00125718
0.00138453
0.00150906
0.00162859
0.00173781
0.0018318
0.00190683
0.00196035
0.00199785
0.00202699
0.0020548
0.00208531
0.00211768
0.00215253
0.0021874
0.00222585
0.00226704
0.00231271
0.00236275
0.00241822
0.00247907
0.00254511
0.00261699
0.0026941
0.00277666
0.00286454
0.00295765
0.0030552
0.00315848
0.00326721
0.00337974
0.00349509
0.00361098
0.00372518
0.00383435
0.00393469
0.00402144
0.00408942
0.0041261
0.0041369
0.0041176
0.00405348
0.00394411
0.00378511
0.00357876
0.00332721
0.00303845
0.00272869
0.00240663
0.00208269
0.00176735
0.00146946
0.00119575
0.000951198
0.000738295
0.000557883
0.000409189
0.00028892
0.000189556
9.62548e-05
1.30768e-05
1.03538e-05
8.34279e-05
0.000181026
0.00025413
0.000301872
0.000331401
0.000351281
0.000370058
0.000396122
0.000437692
0.000502119
0.000593978
0.000713113
0.000854807
0.00101218
0.00117863
0.00134831
0.00151553
0.00167411
0.00181812
0.00194187
0.00204339
0.00212014
0.00216519
0.00218438
0.00218893
0.00218456
0.00218209
0.00218171
0.00218749
0.00219856
0.00221303
0.00223261
0.00225703
0.00228678
0.00232155
0.002362
0.00240798
0.00245948
0.00251682
0.00257994
0.00264915
0.00272426
0.0028053
0.00289181
0.00298421
0.00308333
0.00318887
0.00330041
0.00341705
0.00353778
0.00366094
0.00378441
0.0039053
0.00402004
0.00412412
0.00421241
0.00427692
0.00430729
0.00431231
0.0042743
0.00419137
0.00406602
0.00389062
0.00366219
0.00338202
0.00306693
0.00272779
0.00238001
0.00203771
0.00171293
0.00141441
0.00114728
0.000913606
0.000713439
0.000545124
0.000404275
0.000281264
0.000152994
2.18043e-05
1.65812e-05
0.000128333
0.000258496
0.000348988
0.000407333
0.000445847
0.000476532
0.000510801
0.000559597
0.000632957
0.000738177
0.000877249
0.00104565
0.00123407
0.00143167
0.00162814
0.001814
0.00198027
0.0021177
0.00222204
0.00228246
0.00230583
0.00230776
0.00227788
0.0022477
0.00222069
0.00219874
0.00218409
0.00217727
0.00217536
0.00217752
0.00218486
0.00219684
0.00221306
0.00223352
0.00225805
0.00228663
0.00231891
0.00235492
0.00239488
0.00243883
0.00248721
0.00254071
0.00260015
0.00266641
0.00273954
0.00281927
0.00290608
0.00300013
0.00310149
0.00320991
0.00332486
0.0034453
0.0035697
0.00369589
0.00382038
0.00393857
0.00404487
0.00413265
0.00418604
0.00420488
0.00418172
0.00410171
0.00396631
0.00378441
0.00354429
0.00324747
0.00291187
0.0025548
0.00219469
0.00184868
0.00153006
0.00124658
0.00100076
0.000791744
0.000616405
0.000468884
0.000336995
0.00019165
2.78644e-05
2.54579e-05
0.000187816
0.000352503
0.000461183
0.000531553
0.000581342
0.000626394
0.000681276
0.000759158
0.000870361
0.0010196
0.00120374
0.00141226
0.00163055
0.00184333
0.00203648
0.00219777
0.00231982
0.00238533
0.00240697
0.00239435
0.00234943
0.00230474
0.00226121
0.00222086
0.00218578
0.0021572
0.00213481
0.00211708
0.00210279
0.00209156
0.00208475
0.00208149
0.00208047
0.00208166
0.00208613
0.00209294
0.00210255
0.00211506
0.00213086
0.00215025
0.00217391
0.00220167
0.00223411
0.0022717
0.00231498
0.00236469
0.0024218
0.00248725
0.00256214
0.00264738
0.00274377
0.00285179
0.00297126
0.00310108
0.00323977
0.0033844
0.00353047
0.00367185
0.0037994
0.0039042
0.0039574
0.0039712
0.00392415
0.00381223
0.00363777
0.00338437
0.00306981
0.00271208
0.00233442
0.00196134
0.00161398
0.00130628
0.0010436
0.000824668
0.000644259
0.000494103
0.000359589
0.000208967
3.01268e-05
3.77636e-05
0.000263812
0.000465401
0.000593589
0.000677682
0.000741212
0.000804108
0.000883821
0.000994448
0.00114421
0.00133262
0.00154975
0.00177879
0.00200029
0.0021959
0.00235039
0.00244411
0.00247926
0.00247724
0.00242806
0.00237466
0.00231202
0.00225157
0.00219125
0.00213768
0.0020915
0.00205138
0.0020154
0.0019829
0.00195425
0.00192969
0.00190805
0.00188861
0.00187126
0.00185617
0.00184348
0.00183306
0.00182521
0.00182049
0.00181852
0.00181826
0.00182189
0.00182855
0.00183897
0.00185345
0.00187241
0.00189669
0.00192701
0.00196453
0.00201078
0.0020676
0.00213698
0.00222119
0.00232237
0.00244147
0.00257914
0.00273629
0.00290939
0.00309305
0.00328028
0.00346311
0.00362554
0.0037416
0.00379014
0.00378983
0.00369931
0.00353176
0.00326307
0.00291925
0.00252686
0.00211854
0.00172676
0.00137685
0.00108186
0.000842297
0.000651003
0.000495353
0.000358339
0.000207954
2.9277e-05
5.42189e-05
0.000357358
0.000597838
0.000746877
0.000846295
0.000925635
0.00100874
0.00111498
0.00125738
0.00143959
0.00165422
0.00188432
0.00210771
0.00230194
0.00244876
0.00252144
0.00254049
0.00250968
0.00245434
0.00237882
0.00229565
0.00220855
0.00213122
0.0020615
0.00200221
0.00194784
0.00189835
0.00185244
0.00181016
0.00177138
0.00173585
0.00170315
0.0016733
0.00164638
0.0016225
0.00160169
0.00158374
0.00156867
0.00155648
0.00154706
0.00154068
0.00153769
0.00153681
0.001539
0.00154507
0.00155453
0.00156822
0.00158647
0.00160991
0.00163906
0.00167486
0.00171846
0.00177159
0.00183688
0.00191886
0.00202305
0.00215346
0.002315
0.00250679
0.00272026
0.00295175
0.00318707
0.00341051
0.00359733
0.00369285
0.00371763
0.00365766
0.00349126
0.00319356
0.00280584
0.00236575
0.00191786
0.00150399
0.00115273
0.000873467
0.000658554
0.000491134
0.000349995
0.000201353
2.7238e-05
7.53257e-05
0.000468242
0.000749174
0.00092014
0.00103599
0.00113208
0.00123555
0.00136623
0.00153399
0.00173626
0.00195843
0.0021778
0.00236935
0.00250592
0.00256674
0.00257536
0.00253142
0.00246328
0.00236694
0.00225661
0.00215398
0.00206342
0.0019827
0.00190991
0.00184435
0.00178312
0.00172661
0.00167419
0.00162618
0.00158248
0.0015431
0.00150799
0.0014772
0.0014506
0.001428
0.00140918
0.00139395
0.00138207
0.00137325
0.00136762
0.00136502
0.00136429
0.00136599
0.00137082
0.00137829
0.00138843
0.00140148
0.00141754
0.00143689
0.00145988
0.00148693
0.00151863
0.00155572
0.00159923
0.00165072
0.00171264
0.0017887
0.00188592
0.00201753
0.0021994
0.00242828
0.00269092
0.0029744
0.00325643
0.00350802
0.00365477
0.0037026
0.00366884
0.00349675
0.00315746
0.00271345
0.00221651
0.00172555
0.00129179
0.000943834
0.000683582
0.000491989
0.00033726
0.000187963
2.49192e-05
0.000101276
0.000594744
0.000917416
0.0011111
0.00124356
0.00135554
0.00147657
0.00162544
0.00180735
0.00201301
0.0022217
0.0024074
0.00253713
0.00259123
0.00259499
0.0025486
0.00246301
0.0023428
0.00221601
0.00210103
0.00199773
0.00190602
0.00182298
0.00174711
0.00167749
0.00161318
0.00155475
0.00150208
0.0014555
0.00141491
0.00138023
0.00135117
0.0013274
0.00130847
0.00129387
0.00128308
0.00127558
0.00127153
0.00126987
0.00126965
0.00127216
0.00127631
0.00128248
0.00129051
0.00130035
0.00131207
0.0013258
0.0013417
0.00135996
0.00138075
0.00140433
0.00143097
0.00146102
0.00149488
0.00153296
0.00157617
0.00162602
0.00168526
0.00175944
0.00185756
0.0019961
0.00220653
0.00248706
0.00280738
0.00314678
0.00346207
0.00366048
0.00372972
0.0037113
0.00352199
0.00312891
0.00261884
0.00206116
0.00153056
0.00108521
0.00074796
0.00050885
0.000332823
0.000175821
2.30162e-05
0.000132533
0.000733082
0.00109946
0.00131613
0.00146406
0.00158891
0.00172169
0.00187898
0.00206072
0.0022516
0.00242694
0.00255136
0.00260217
0.00260385
0.0025571
0.00245719
0.00231998
0.00218188
0.00205302
0.0019389
0.00183663
0.00174474
0.00166102
0.00158486
0.00151601
0.00145452
0.00140086
0.00135491
0.00131658
0.00128536
0.00126068
0.00124178
0.00122789
0.00121821
0.00121225
0.00120943
0.00120854
0.00120935
0.00121236
0.00121662
0.00122254
0.00122969
0.0012383
0.00124828
0.00125975
0.00127278
0.00128752
0.00130409
0.00132261
0.00134321
0.00136601
0.00139115
0.00141878
0.00144911
0.00148251
0.00151882
0.00155843
0.00160189
0.00165102
0.00170951
0.00178586
0.00189483
0.00206082
0.00233002
0.00268166
0.00306875
0.00344745
0.00369455
0.00378147
0.00376487
0.00354141
0.00308162
0.00249848
0.00188267
0.00132382
0.000879902
0.000561
0.000343173
0.000172698
2.23761e-05
0.000170542
0.000878791
0.00129158
0.00153047
0.00169123
0.00182387
0.00196016
0.0021139
0.00228013
0.00243926
0.00255739
0.00260658
0.00260804
0.00256192
0.00245367
0.00230557
0.00215534
0.00201497
0.00188908
0.00177769
0.00167764
0.00158774
0.00150694
0.00143536
0.00137311
0.00132031
0.0012768
0.00124197
0.001215
0.00119484
0.00118043
0.00117068
0.00116491
0.00116223
0.0011614
0.00116199
0.00116443
0.00116798
0.00117277
0.00117853
0.00118546
0.00119349
0.00120281
0.00121349
0.00122569
0.00123956
0.00125528
0.00127298
0.00129281
0.00131486
0.00133922
0.00136587
0.00139476
0.00142574
0.00145866
0.0014934
0.00153005
0.00156907
0.00160991
0.00165334
0.00170232
0.00176406
0.00185177
0.00199091
0.0022237
0.00259154
0.00301839
0.00345933
0.00374511
0.00384253
0.00381056
0.00353004
0.0029896
0.00233058
0.00166892
0.00110006
0.00067243
0.000381192
0.000180258
2.32091e-05
0.000212736
0.00103203
0.00148967
0.00174863
0.00191819
0.002052
0.00218209
0.00231966
0.00245607
0.00256416
0.00261129
0.00261329
0.00256787
0.00245722
0.00230242
0.00214045
0.0019882
0.00185135
0.00173033
0.00162317
0.00152769
0.00144343
0.00137014
0.00130801
0.00125682
0.00121602
0.00118462
0.0011613
0.00114471
0.00113344
0.00112628
0.00112259
0.00112101
0.00112064
0.00112145
0.00112341
0.00112631
0.00113
0.00113457
0.00114006
0.00114663
0.0011544
0.00116356
0.00117425
0.00118666
0.00120099
0.0012174
0.00123609
0.00125722
0.00128094
0.00130734
0.00133646
0.00136822
0.00140245
0.00143876
0.00147665
0.00151551
0.00155482
0.00159449
0.00163512
0.00167573
0.00171895
0.00177052
0.00184317
0.00196141
0.00216877
0.00253311
0.00299913
0.00349473
0.00380265
0.00389822
0.00382946
0.00346218
0.0028262
0.00210058
0.00141306
0.000858334
0.000466632
0.000206852
2.66805e-05
0.000257905
0.00118909
0.00168872
0.00196471
0.00213815
0.00226568
0.00237955
0.00248915
0.00258104
0.00262318
0.00262503
0.00257905
0.00247017
0.00231191
0.00214007
0.00197524
0.00182691
0.00169617
0.00158147
0.00148085
0.00139322
0.00131851
0.00125647
0.00120668
0.00116808
0.00113927
0.00111855
0.00110423
0.00109473
0.00108871
0.00108517
0.00108341
0.00108265
0.00108245
0.00108295
0.00108421
0.00108611
0.00108878
0.00109235
0.00109694
0.00110274
0.00110993
0.00111866
0.00112913
0.00114151
0.001156
0.00117277
0.00119204
0.001214
0.00123885
0.00126677
0.0012979
0.00133228
0.00136985
0.00141032
0.00145316
0.00149756
0.00154241
0.00158651
0.00162897
0.00166996
0.00170922
0.00174865
0.0017929
0.00185542
0.00196105
0.00215636
0.0025108
0.00301268
0.00355382
0.00385718
0.00393381
0.00380306
0.00330525
0.0025767
0.00179939
0.00111735
0.00060804
0.000264306
3.49845e-05
0.000304577
0.00134582
0.00188362
0.00217298
0.00234493
0.00245877
0.00254725
0.00261767
0.00265009
0.00264907
0.00259978
0.0024947
0.00233566
0.00215594
0.00197859
0.00181739
0.001676
0.00155304
0.00144659
0.0013553
0.0012786
0.00121611
0.0011669
0.0011296
0.00110233
0.00108306
0.00106983
0.00106091
0.00105493
0.00105084
0.00104793
0.00104576
0.00104401
0.00104272
0.00104211
0.00104195
0.00104245
0.0010439
0.00104643
0.00105017
0.00105528
0.00106194
0.0010703
0.00108053
0.00109277
0.00110722
0.00112405
0.00114348
0.00116571
0.001191
0.00121959
0.00125172
0.0012876
0.00132734
0.00137093
0.00141808
0.00146814
0.00152002
0.00157209
0.00162235
0.00166889
0.0017109
0.00174769
0.00178354
0.00182471
0.00188027
0.00197982
0.00216906
0.0025269
0.00306458
0.00362976
0.00389932
0.00393721
0.00370178
0.00304903
0.00222669
0.00143255
0.000797626
0.000350563
4.82248e-05
0.000351386
0.00149822
0.00206966
0.00236843
0.00253338
0.00262697
0.00268022
0.00270114
0.00269099
0.00263507
0.00253344
0.00237535
0.00218975
0.00200036
0.00182494
0.00167094
0.00153829
0.00142478
0.00132874
0.00124911
0.00118508
0.00113544
0.00109834
0.00107156
0.00105272
0.00103965
0.0010305
0.00102384
0.00101866
0.00101431
0.00101043
0.00100688
0.00100364
0.00100085
0.000998655
0.00099737
0.00099691
0.000997185
0.000998969
0.00100211
0.00100675
0.00101306
0.00102116
0.00103118
0.00104326
0.00105757
0.00107427
0.00109355
0.00111564
0.00114079
0.0011693
0.00120148
0.00123765
0.00127812
0.00132313
0.00137275
0.00142674
0.00148444
0.00154452
0.00160487
0.00166261
0.00171455
0.00176047
0.00179554
0.00182293
0.00186022
0.00191461
0.00201188
0.00220358
0.00257945
0.00316005
0.00371089
0.00393629
0.00389585
0.0034693
0.00266389
0.00178377
0.00102374
0.000458177
6.52427e-05
0.0003974
0.00164197
0.00224313
0.00254783
0.00269887
0.00276207
0.00277706
0.00275459
0.00268981
0.00258986
0.00243291
0.00224313
0.00204259
0.00185187
0.00168283
0.00153808
0.00141564
0.00131319
0.0012292
0.00116233
0.00111099
0.00107297
0.00104568
0.00102645
0.00101285
0.00100293
0.000995205
0.000988678
0.000982753
0.000977135
0.000971741
0.000966624
0.000961922
0.000957809
0.000954454
0.000952116
0.000951015
0.000950747
0.000951914
0.000954711
0.000959084
0.000965168
0.000973086
0.00098294
0.000994856
0.00100897
0.00102543
0.00104442
0.00106614
0.00109085
0.00111884
0.00115045
0.00118607
0.00122612
0.00127103
0.00132117
0.00137675
0.00143764
0.00150319
0.0015719
0.0016412
0.00170731
0.00176555
0.00181549
0.00184986
0.00186788
0.00190048
0.00195562
0.00205507
0.00225831
0.00266779
0.00329152
0.00378343
0.00393792
0.00375923
0.00308299
0.0021571
0.00127719
0.000580781
8.49634e-05
0.000441632
0.00177583
0.00240052
0.00270375
0.00283472
0.0028693
0.00284763
0.00277675
0.00266674
0.00251099
0.00231789
0.00210733
0.00190076
0.00171418
0.00155412
0.00141998
0.00130895
0.00121869
0.00114737
0.00109292
0.0010528
0.00102406
0.0010037
0.000989083
0.000978053
0.00096907
0.000961121
0.000953632
0.00094635
0.000939232
0.00093237
0.000925919
0.000920063
0.000914982
0.000910843
0.000907799
0.000906275
0.000905775
0.0009065
0.00090909
0.00091328
0.000919198
0.00092696
0.000936651
0.000948383
0.000962275
0.000978464
0.00099711
0.0010184
0.00104257
0.00106988
0.00110068
0.00113535
0.00117437
0.00121826
0.00126758
0.00132284
0.00138443
0.00145235
0.001526
0.00160373
0.0016825
0.00175752
0.00182242
0.0018765
0.00190461
0.00191783
0.00194484
0.00200222
0.00210901
0.00233605
0.00280414
0.00346921
0.00382687
0.00387162
0.00345737
0.00254268
0.0015539
0.000714366
0.00010644
0.000482374
0.00189618
0.00253681
0.00283368
0.00294248
0.00295296
0.00288862
0.00277013
0.00261423
0.00241634
0.00219669
0.00197432
0.0017681
0.00158909
0.00143956
0.00131696
0.00121808
0.00114032
0.00108115
0.00103763
0.00100646
0.000984315
0.000968234
0.000955871
0.000945548
0.000936199
0.000927236
0.000918422
0.000909738
0.000901293
0.000893256
0.000885815
0.000879148
0.000873417
0.000868763
0.000865309
0.000863485
0.000862833
0.000863237
0.000865641
0.000869651
0.000875392
0.000882969
0.000892463
0.000903978
0.000917622
0.000933522
0.000951822
0.000972692
0.000996335
0.001023
0.00105298
0.00108666
0.00112449
0.001167
0.00121484
0.0012687
0.00132927
0.0013971
0.00147237
0.00155451
0.00164172
0.00173043
0.00181479
0.0018867
0.00193983
0.00196097
0.00196986
0.0019926
0.00205417
0.00217515
0.00244739
0.00299993
0.00362598
0.00386906
0.00369993
0.00291965
0.00185016
0.000856367
0.000128971
0.000518181
0.00200008
0.00264986
0.00293746
0.00302721
0.00301037
0.00290414
0.00274523
0.00254219
0.00231302
0.00207532
0.00184811
0.00164659
0.00147721
0.0013391
0.00122855
0.00114194
0.00107611
0.00102768
0.000992984
0.000968308
0.000950339
0.000936439
0.000924736
0.000914045
0.000903731
0.000893536
0.000883448
0.000873582
0.000864112
0.000855225
0.000847097
0.000839883
0.000833715
0.000828708
0.000824959
0.000822863
0.000822072
0.000822188
0.000824351
0.000828133
0.000833639
0.000840969
0.000850208
0.000861454
0.000874814
0.000890406
0.000908364
0.000928843
0.000952024
0.000978125
0.00100741
0.00104022
0.00107695
0.00111812
0.00116436
0.00121641
0.00127514
0.00134141
0.00141596
0.00149913
0.00159034
0.00168751
0.00178628
0.00187931
0.00195606
0.00200467
0.00201827
0.00202255
0.00204351
0.00211138
0.00225878
0.00260661
0.00324581
0.00370778
0.0037877
0.00326786
0.00216064
0.0010021
0.000152474
0.000548261
0.00208639
0.00273936
0.00301601
0.00308993
0.00304297
0.0028977
0.00269707
0.00245948
0.00220654
0.00195787
0.00173098
0.001537
0.00137842
0.00125214
0.00115363
0.00107875
0.00102357
0.000984002
0.000955897
0.000935513
0.000919832
0.000906691
0.00089472
0.000883174
0.000871749
0.000860412
0.000849274
0.000838508
0.000828299
0.000818817
0.000810212
0.000802607
0.000796108
0.000790808
0.000786785
0.00078435
0.000783337
0.00078324
0.000785048
0.00078853
0.000793726
0.000800737
0.000809653
0.000820573
0.000833602
0.000848858
0.000866468
0.000886577
0.00090935
0.000934981
0.000963703
0.000995805
0.00103165
0.00107169
0.0011165
0.0011668
0.00122349
0.00128759
0.00136017
0.00144221
0.00153416
0.00163543
0.00174352
0.0018531
0.0019551
0.00203268
0.00206865
0.00207515
0.00207521
0.00209655
0.00217666
0.00237129
0.00284322
0.00349857
0.00376565
0.00352472
0.00247476
0.00114946
0.000176723
0.000572181
0.00215513
0.00280634
0.0030711
0.00313025
0.00305343
0.0028765
0.00263716
0.00237103
0.00210095
0.00184694
0.00162402
0.00143932
0.00129209
0.00117761
0.00109063
0.00102639
0.00098022
0.000947504
0.000923985
0.000906156
0.000891453
0.000878224
0.000865549
0.000853029
0.000840585
0.000828311
0.000816373
0.000804953
0.000794215
0.000784302
0.000775332
0.000767405
0.000760606
0.000755009
0.000750687
0.00074783
0.000746513
0.000746218
0.00074756
0.000750667
0.000755482
0.000762104
0.000770633
0.000781169
0.000793819
0.000808702
0.000825944
0.000845683
0.000868076
0.000893299
0.000921561
0.000953113
0.000988269
0.00102742
0.00107109
0.00111991
0.00117474
0.00123661
0.00130675
0.00138648
0.00147697
0.00157879
0.00169109
0.0018106
0.00193055
0.00203991
0.00211077
0.00213145
0.0021316
0.00212398
0.00215308
0.00225666
0.00253719
0.00314771
0.0035989
0.00363668
0.00279105
0.00131109
0.000203329
0.000589875
0.00220698
0.00285221
0.00310461
0.00315017
0.0030469
0.00283757
0.00256904
0.00228062
0.00199905
0.00174401
0.00152754
0.00135306
0.00121725
0.00111414
0.0010378
0.00098277
0.00094384
0.000916151
0.000895594
0.000879076
0.000864538
0.000850795
0.00083729
0.000823866
0.000810581
0.000797586
0.000785056
0.000773153
0.000762015
0.000751754
0.000742464
0.000734224
0.000727108
0.000721181
0.000716513
0.00071317
0.000711488
0.000710962
0.000711775
0.000714442
0.000718818
0.000724998
0.000733086
0.000743187
0.000755412
0.000769881
0.000786722
0.000806074
0.000828086
0.000852928
0.00088079
0.000911898
0.000946525
0.000985013
0.0010278
0.00107547
0.00112876
0.00118867
0.00125641
0.00133348
0.00142149
0.00152183
0.00163507
0.00175983
0.00189134
0.00201978
0.00212924
0.00218622
0.0021956
0.00217925
0.00216648
0.00221437
0.00236882
0.00281295
0.00344134
0.00365548
0.0031016
0.00151195
0.00023747
0.000601633
0.00224296
0.00287801
0.00311685
0.00314951
0.00302699
0.00278903
0.00249632
0.00219109
0.00190269
0.00164979
0.00144132
0.00127744
0.00115275
0.00106026
0.000993363
0.00094602
0.000912668
0.000888478
0.000869677
0.000853655
0.000838836
0.000824423
0.000810127
0.000795943
0.000781997
0.000768456
0.000755476
0.000743194
0.000731719
0.000721139
0.000711529
0.000702959
0.000695491
0.000689188
0.000684114
0.000680332
0.000678185
0.000677389
0.000677661
0.000679836
0.000683735
0.000689435
0.000697043
0.000706668
0.000718426
0.00073244
0.000748843
0.000767773
0.000789383
0.000813838
0.000841318
0.000872034
0.000906229
0.000944206
0.000986344
0.00103314
0.00108525
0.00114355
0.0012092
0.00128368
0.0013688
0.00146648
0.00157838
0.00170499
0.00184427
0.00198982
0.002129
0.00222463
0.00225709
0.00225432
0.00221958
0.00220853
0.00228826
0.00255026
0.00316847
0.00354476
0.00334762
0.00176677
0.00028354
0.000607473
0.0022634
0.00288488
0.00311343
0.003138
0.00299236
0.00273334
0.00242176
0.00210453
0.00181297
0.00156445
0.00136485
0.00121151
0.00109735
0.0010145
0.000955743
0.000914599
0.000885392
0.000863515
0.000845632
0.000829617
0.000814315
0.000799226
0.000784242
0.000769446
0.000754987
0.00074102
0.000727678
0.000715068
0.000703278
0.00069238
0.000682437
0.000673512
0.000665668
0.000658966
0.000653473
0.000649259
0.000646572
0.000645409
0.000645265
0.000646896
0.000650297
0.000655495
0.0006626
0.000671721
0.000682978
0.0006965
0.000712422
0.00073089
0.000752059
0.000776094
0.000803176
0.000833507
0.000867314
0.000904868
0.000946503
0.000992647
0.00104387
0.00110093
0.00116489
0.00123711
0.00131942
0.00141397
0.00152305
0.00164837
0.00178984
0.00194356
0.00209951
0.00223952
0.0023138
0.00232612
0.00229316
0.00225307
0.0022631
0.00240889
0.00288576
0.00340465
0.00346425
0.00207142
0.000341346
0.0006071
0.0022711
0.0028799
0.00309874
0.00311168
0.00294879
0.00267317
0.00234751
0.00202235
0.00173048
0.0014878
0.00129741
0.00115424
0.00104983
0.000975523
0.000923595
0.000887318
0.00086109
0.000840655
0.000823144
0.000806874
0.000791028
0.000775326
0.00075977
0.000744485
0.000729616
0.000715298
0.000701638
0.000688722
0.000676621
0.000665396
0.000655108
0.000645817
0.000637586
0.000630483
0.000624577
0.000619945
0.000616693
0.000615089
0.000614647
0.000615706
0.000618604
0.000623295
0.000629885
0.000638485
0.000649218
0.000662215
0.000677618
0.000695577
0.000716255
0.000739824
0.000766467
0.000796384
0.000829798
0.000866962
0.000908177
0.00095382
0.00100438
0.00106052
0.00112316
0.00119355
0.0012734
0.00136494
0.00147082
0.00159374
0.00173542
0.00189483
0.00206555
0.00223307
0.00235281
0.0023929
0.0023832
0.00230736
0.00227164
0.00233721
0.0026436
0.00326393
0.00349284
0.00241472
0.000408528
0.000603866
0.00226905
0.00286368
0.00306874
0.00307294
0.00289822
0.00261059
0.00227517
0.00194548
0.0016554
0.00141946
0.00123823
0.00110465
0.00100906
0.000942158
0.000895842
0.000863298
0.000839146
0.000819542
0.000802068
0.000785422
0.000769047
0.000752813
0.000736786
0.000721101
0.00070589
0.000691263
0.000677306
0.00066409
0.000651676
0.00064012
0.000629484
0.000619827
0.000611217
0.00060372
0.000597409
0.000592356
0.000588634
0.000586567
0.000585844
0.000586365
0.000588767
0.00059296
0.000599038
0.00060711
0.000617302
0.000629748
0.000644596
0.000662003
0.000682139
0.000705183
0.000731329
0.000760782
0.000793766
0.000830527
0.000871347
0.000916568
0.000966618
0.00102207
0.00108371
0.00115266
0.00123047
0.00131926
0.00142178
0.00154122
0.00168051
0.00184078
0.00201859
0.00220223
0.00236815
0.00245218
0.0024645
0.00240596
0.00232169
0.00231332
0.00248125
0.00303927
0.00341108
0.00275695
0.000478028
0.000596722
0.00226023
0.00283361
0.00302861
0.0030255
0.00284267
0.00254725
0.00220591
0.00187447
0.0015877
0.00135889
0.00118651
0.00106176
0.000974021
0.000913433
0.000871647
0.000841912
0.000819159
0.000799974
0.000782347
0.000765284
0.000748425
0.000731736
0.000715315
0.000699291
0.000683778
0.000668864
0.000654622
0.00064111
0.000628384
0.000616504
0.000605528
0.000595521
0.000586551
0.000578687
0.000571999
0.000566557
0.000562432
0.00055991
0.00055891
0.000558965
0.00056089
0.000564603
0.000570178
0.000577726
0.00058737
0.000599248
0.000613512
0.000630326
0.000649868
0.000672329
0.000697913
0.000726836
0.000759329
0.000795642
0.000836051
0.000880874
0.000930498
0.000985422
0.00104633
0.00111418
0.00119037
0.00127686
0.00137634
0.00149226
0.00162843
0.00178792
0.00197064
0.0021697
0.00236685
0.00249973
0.00253752
0.00250795
0.00238186
0.00232184
0.00240075
0.00282923
0.00327565
0.00302705
0.00053395
0.000585586
0.0022417
0.00279474
0.00298095
0.00297136
0.00278389
0.00248447
0.00214053
0.00180957
0.00152713
0.00130552
0.00114146
0.00102473
0.000943854
0.000888561
0.000850378
0.00082272
0.000800875
0.00078184
0.000763957
0.00074648
0.000729188
0.000712108
0.000695348
0.000679025
0.000663233
0.000648047
0.000633527
0.000619727
0.000606702
0.000594512
0.000583219
0.00057289
0.000563594
0.000555402
0.000548382
0.000542606
0.000538146
0.00053518
0.000533828
0.000533598
0.000535057
0.000538311
0.000543403
0.000550437
0.000559534
0.000570834
0.000584492
0.00060068
0.000619583
0.000641404
0.000666359
0.00069468
0.000726611
0.000762411
0.00080236
0.000846769
0.000895995
0.000950486
0.00101084
0.00107788
0.00115282
0.00123742
0.00133422
0.00144665
0.00157894
0.00173532
0.00191804
0.00212371
0.00233865
0.00252305
0.00260221
0.00260349
0.002491
0.00236817
0.00236298
0.00265513
0.00314966
0.00315511
0.000559615
0.000571092
0.00221645
0.00274903
0.00292721
0.00291247
0.0027233
0.00242322
0.00207954
0.00175086
0.00147338
0.00125877
0.00110237
0.000992775
0.000917823
0.000866914
0.000831563
0.000805414
0.000784127
0.000765071
0.000746885
0.000729016
0.000711339
0.000693915
0.000676854
0.000660257
0.000644205
0.000628759
0.000613973
0.0005999
0.000586595
0.000574122
0.000562544
0.000551932
0.000542355
0.000533881
0.000526582
0.000520524
0.000515779
0.000512419
0.000510736
0.000510278
0.000511313
0.000514139
0.000518772
0.000525308
0.000533865
0.000544585
0.000557625
0.000573161
0.000591388
0.000612519
0.000636785
0.000664432
0.000695724
0.000730935
0.000770358
0.000814304
0.000863123
0.000917224
0.000977132
0.00104357
0.00111758
0.00120072
0.00129531
0.00140466
0.0015332
0.00168606
0.00186756
0.00207777
0.00230697
0.00252941
0.0026613
0.00268782
0.00260639
0.00242113
0.00235355
0.00250188
0.00304262
0.00319102
0.000563997
0.000554071
0.00218659
0.00269818
0.00286887
0.00285045
0.00266211
0.00236425
0.00202324
0.00169824
0.00142606
0.00121807
0.00106857
0.000965234
0.00089532
0.000848001
0.000814849
0.000789778
0.000768802
0.00074962
0.000731116
0.000712881
0.000694858
0.000677127
0.000659792
0.000642942
0.000626644
0.000610952
0.000595918
0.000581593
0.000568038
0.000555316
0.000543494
0.000532643
0.000522832
0.000514129
0.000506599
0.000500306
0.00049531
0.000491669
0.00048967
0.000489009
0.000489673
0.000492104
0.000496306
0.000502365
0.000510398
0.000520542
0.000532958
0.000547827
0.000565349
0.00058575
0.000609273
0.000636183
0.000666761
0.000701304
0.000740123
0.000783544
0.000831915
0.000885628
0.000945158
0.00101114
0.00108446
0.00116649
0.00125929
0.00136595
0.00149083
0.00163952
0.00181784
0.00202898
0.00226826
0.00251635
0.00270403
0.00276373
0.0027215
0.00252329
0.00238202
0.00242755
0.00287569
0.00316229
0.00055259
0.000535184
0.00215388
0.00264379
0.00280739
0.00278662
0.00260125
0.00230805
0.00197177
0.00165153
0.00138477
0.00118287
0.00103948
0.000941538
0.00087585
0.000831434
0.000799971
0.000775652
0.000754817
0.000735449
0.000716627
0.000698052
0.000679715
0.000661704
0.000644117
0.00062703
0.000610503
0.000594584
0.000579325
0.000564779
0.000551006
0.000538075
0.000526053
0.000515011
0.000505016
0.000496133
0.000488423
0.000481944
0.000476749
0.00047289
0.000470615
0.000469767
0.000470115
0.000472189
0.00047599
0.000481597
0.000489122
0.000498703
0.000510499
0.000524693
0.000541494
0.000561135
0.000583873
0.000609991
0.000639789
0.000673589
0.000711725
0.000754545
0.000802409
0.000855708
0.000914884
0.000980498
0.00105333
0.00113455
0.00122597
0.0013304
0.00145204
0.00159663
0.00177097
0.00198061
0.00222468
0.00248819
0.00272518
0.00283041
0.00282419
0.00264278
0.00242541
0.00239711
0.00272898
0.00309057
0.000533493
0.000515068
0.00211906
0.00258709
0.00274398
0.00272207
0.00254146
0.00225498
0.0019251
0.00161047
0.00134911
0.00115269
0.00101458
0.000921205
0.000859007
0.00081691
0.000786727
0.000762915
0.000742104
0.000722516
0.000703386
0.000684497
0.000665872
0.000647604
0.000629783
0.000612477
0.00059574
0.000579618
0.000564161
0.000549426
0.000535476
0.000522377
0.000510201
0.000499014
0.000488884
0.00047987
0.000472028
0.000465411
0.000460065
0.000456037
0.000453522
0.000452504
0.000452589
0.000454343
0.000457774
0.000462955