/*--------------------------------*- C++ -*----------------------------------*\
  =========                 |
  \\      /  F ield         | OpenFOAM: The Open Source CFD Toolbox
   \\    /   O peration     | Website:  https://openfoam.org
    \\  /    A nd           | Version:  13
     \\/     M anipulation  |
\*---------------------------------------------------------------------------*/
FoamFile
{
    format      ascii;
    class       volScalarField;
    location    "8.3";
    object      nut;
}
// * * * * * * * * * * * * * * * * * * * * * * * * * * * * * * * * * * * * * //

dimensions      [0 2 -1 0 0 0 0];

internalField   nonuniform List<scalar> 
6400
(
9.9554e-10
5.11273e-09
1.24259e-08
2.00051e-08
2.57043e-08
2.88923e-08
3.00379e-08
3.01316e-08
3.02897e-08
3.13549e-08
3.39764e-08
3.91529e-08
4.73449e-08
5.87407e-08
7.27359e-08
8.85561e-08
1.05392e-07
1.22918e-07
1.40301e-07
1.57123e-07
1.74063e-07
1.92574e-07
2.146e-07
2.41253e-07
2.71366e-07
3.01684e-07
3.31791e-07
3.61684e-07
3.92307e-07
4.24476e-07
4.5773e-07
4.90961e-07
5.23636e-07
5.55868e-07
5.88454e-07
6.21595e-07
6.55961e-07
6.91766e-07
7.29441e-07
7.69095e-07
8.11016e-07
8.55531e-07
9.02889e-07
9.53607e-07
1.00814e-06
1.06836e-06
1.13784e-06
1.22417e-06
1.31026e-06
1.39821e-06
1.48415e-06
1.5676e-06
1.64582e-06
1.71668e-06
1.77753e-06
1.82523e-06
1.84934e-06
1.8589e-06
1.85457e-06
1.81853e-06
1.75525e-06
1.66498e-06
1.54864e-06
1.41116e-06
1.25489e-06
1.08803e-06
9.18595e-07
7.53022e-07
5.97444e-07
4.59029e-07
3.4631e-07
2.51748e-07
1.75411e-07
1.17138e-07
7.52281e-08
4.66946e-08
2.81e-08
1.61334e-08
7.62878e-09
1.62582e-09
4.80881e-09
3.38407e-07
1.21643e-06
2.04833e-06
2.66169e-06
3.0218e-06
3.18651e-06
3.24357e-06
3.27746e-06
3.35005e-06
3.53765e-06
3.91211e-06
4.44237e-06
5.0605e-06
5.7033e-06
6.30742e-06
6.82677e-06
7.21248e-06
7.45059e-06
7.5569e-06
7.61347e-06
7.68702e-06
7.8454e-06
8.1145e-06
8.43156e-06
8.64111e-06
8.84501e-06
9.07938e-06
9.39114e-06
9.81834e-06
1.03641e-05
1.09646e-05
1.1614e-05
1.22835e-05
1.29912e-05
1.37224e-05
1.44861e-05
1.52767e-05
1.61009e-05
1.69536e-05
1.78286e-05
1.8732e-05
1.96649e-05
2.06464e-05
2.16432e-05
2.26204e-05
2.35535e-05
2.43862e-05
2.52564e-05
2.61327e-05
2.70198e-05
2.78971e-05
2.87511e-05
2.95606e-05
3.03036e-05
3.10325e-05
3.14781e-05
3.17734e-05
3.19622e-05
3.19292e-05
3.15599e-05
3.08893e-05
2.98852e-05
2.85458e-05
2.68675e-05
2.49067e-05
2.27584e-05
2.04423e-05
1.79919e-05
1.53319e-05
1.24289e-05
9.63151e-06
7.16526e-06
5.13546e-06
3.55918e-06
2.41928e-06
1.61658e-06
1.04442e-06
4.72209e-07
8.59393e-09
1.05001e-08
8.72166e-07
3.5176e-06
6.10455e-06
8.08245e-06
9.36494e-06
1.00832e-05
1.04418e-05
1.06484e-05
1.08855e-05
1.12922e-05
1.19489e-05
1.28304e-05
1.38355e-05
1.48342e-05
1.57148e-05
1.64256e-05
1.694e-05
1.72566e-05
1.73908e-05
1.7365e-05
1.72765e-05
1.72055e-05
1.71915e-05
1.72708e-05
1.75346e-05
1.78581e-05
1.81885e-05
1.85448e-05
1.89234e-05
1.94227e-05
2.01231e-05
2.11183e-05
2.21334e-05
2.32819e-05
2.4486e-05
2.57697e-05
2.70715e-05
2.84289e-05
2.98793e-05
3.12816e-05
3.27315e-05
3.41402e-05
3.54807e-05
3.676e-05
3.80171e-05
3.92368e-05
4.04632e-05
4.16982e-05
4.29307e-05
4.41542e-05
4.53558e-05
4.65196e-05
4.76252e-05
4.86455e-05
4.95452e-05
5.03354e-05
5.0854e-05
5.10885e-05
5.12441e-05
5.10624e-05
5.05619e-05
4.96903e-05
4.83477e-05
4.64426e-05
4.40025e-05
4.12171e-05
3.80687e-05
3.45722e-05
3.07657e-05
2.67028e-05
2.25242e-05
1.84288e-05
1.46205e-05
1.12713e-05
8.43832e-06
6.19016e-06
4.25724e-06
1.77176e-06
2.29865e-08
1.81999e-08
1.42401e-06
5.49077e-06
9.37443e-06
1.23761e-05
1.44342e-05
1.57052e-05
1.64163e-05
1.68294e-05
1.71774e-05
1.76625e-05
1.84095e-05
1.93965e-05
2.04815e-05
2.1501e-05
2.23385e-05
2.29325e-05
2.3279e-05
2.34077e-05
2.33775e-05
2.32563e-05
2.31538e-05
2.31387e-05
2.32521e-05
2.33134e-05
2.33299e-05
2.3324e-05
2.37346e-05
2.44851e-05
2.54859e-05
2.67797e-05
2.80088e-05
2.92282e-05
3.05282e-05
3.18605e-05
3.31665e-05
3.448e-05
3.58595e-05
3.71596e-05
3.84533e-05
3.96923e-05
4.0914e-05
4.20844e-05
4.32164e-05
4.43006e-05
4.5358e-05
4.64144e-05
4.74707e-05
4.85233e-05
4.95664e-05
5.05933e-05
5.15937e-05
5.25547e-05
5.34596e-05
5.42888e-05
5.50188e-05
5.56242e-05
5.60789e-05
5.63119e-05
5.63647e-05
5.61946e-05
5.56644e-05
5.48916e-05
5.40845e-05
5.27661e-05
5.08153e-05
4.84122e-05
4.55239e-05
4.22203e-05
3.85482e-05
3.45509e-05
3.02943e-05
2.58887e-05
2.14993e-05
1.7332e-05
1.35532e-05
1.02716e-05
7.19135e-06
2.97981e-06
3.83278e-08
2.91463e-08
2.13217e-06
7.6025e-06
1.25834e-05
1.62984e-05
1.87954e-05
2.03162e-05
2.11513e-05
2.16199e-05
2.20479e-05
2.26919e-05
2.3638e-05
2.47824e-05
2.5926e-05
2.68902e-05
2.75743e-05
2.79579e-05
2.80807e-05
2.79994e-05
2.78351e-05
2.75974e-05
2.74329e-05
2.72815e-05
2.66719e-05
2.66263e-05
2.71698e-05
2.81323e-05
2.9285e-05
3.04575e-05
3.17748e-05
3.30688e-05
3.43196e-05
3.55502e-05
3.67491e-05
3.78578e-05
3.88949e-05
3.99394e-05
4.09041e-05
4.1743e-05
4.25315e-05
4.32362e-05
4.38911e-05
4.45069e-05
4.51157e-05
4.57391e-05
4.63744e-05
4.70052e-05
4.76425e-05
4.82874e-05
4.89436e-05
4.96125e-05
5.02944e-05
5.09873e-05
5.16867e-05
5.23856e-05
5.30721e-05
5.37267e-05
5.43203e-05
5.48211e-05
5.51702e-05
5.53012e-05
5.51726e-05
5.46171e-05
5.34968e-05
5.26928e-05
5.15024e-05
4.9666e-05
4.73333e-05
4.45657e-05
4.14133e-05
3.79115e-05
3.4085e-05
2.99696e-05
2.56562e-05
2.13553e-05
1.72356e-05
1.3375e-05
9.39313e-06
3.82605e-06
4.89803e-08
4.47497e-08
3.08345e-06
1.00937e-05
1.6087e-05
2.03019e-05
2.29774e-05
2.45051e-05
2.53007e-05
2.57912e-05
2.6356e-05
2.7207e-05
2.83246e-05
2.95236e-05
3.05843e-05
3.13512e-05
3.17624e-05
3.18359e-05
3.16986e-05
3.12984e-05
3.0991e-05
3.04746e-05
2.9612e-05
2.94817e-05
3.02086e-05
3.11925e-05
3.22282e-05
3.34122e-05
3.45962e-05
3.57353e-05
3.68286e-05
3.7785e-05
3.8684e-05
3.95079e-05
4.02127e-05
4.08007e-05
4.13043e-05
4.17207e-05
4.21323e-05
4.2431e-05
4.27006e-05
4.29337e-05
4.31557e-05
4.33581e-05
4.35475e-05
4.37298e-05
4.39044e-05
4.40777e-05
4.4258e-05
4.44545e-05
4.46778e-05
4.49395e-05
4.52518e-05
4.5627e-05
4.60733e-05
4.65886e-05
4.71777e-05
4.78429e-05
4.85588e-05
4.9292e-05
4.99902e-05
5.06571e-05
5.10471e-05
5.11759e-05
5.09693e-05
5.01306e-05
4.96349e-05
4.84086e-05
4.66312e-05
4.4362e-05
4.16861e-05
3.86758e-05
3.53624e-05
3.17283e-05
2.77456e-05
2.3566e-05
1.93299e-05
1.51873e-05
1.07034e-05
4.2364e-06
5.29573e-08
6.63806e-08
4.32131e-06
1.2996e-05
1.98874e-05
2.44081e-05
2.70711e-05
2.84655e-05
2.9164e-05
2.96865e-05
3.03939e-05
3.13912e-05
3.25521e-05
3.36481e-05
3.4478e-05
3.49373e-05
3.50224e-05
3.45777e-05
3.41412e-05
3.36958e-05
3.25232e-05
3.22065e-05
3.2715e-05
3.35925e-05
3.43943e-05
3.53149e-05
3.62394e-05
3.71729e-05
3.79862e-05
3.86968e-05
3.93206e-05
3.98694e-05
4.03338e-05
4.06951e-05
4.0964e-05
4.11585e-05
4.12967e-05
4.13873e-05
4.14451e-05
4.14435e-05
4.14369e-05
4.14257e-05
4.13632e-05
4.13013e-05
4.12093e-05
4.11121e-05
4.09922e-05
4.08634e-05
4.07211e-05
4.05781e-05
4.04394e-05
4.03209e-05
4.02418e-05
4.02332e-05
4.03421e-05
4.05646e-05
4.09073e-05
4.14447e-05
4.217e-05
4.30444e-05
4.4006e-05
4.50552e-05
4.60495e-05
4.692e-05
4.73251e-05
4.73957e-05
4.68739e-05
4.65961e-05
4.53717e-05
4.35045e-05
4.11221e-05
3.83691e-05
3.53594e-05
3.21279e-05
2.85869e-05
2.46182e-05
2.05286e-05
1.61107e-05
1.10017e-05
4.22785e-06
5.14636e-08
9.53059e-08
5.86493e-06
1.62385e-05
2.38797e-05
2.85279e-05
3.10498e-05
3.22488e-05
3.28453e-05
3.33975e-05
3.41883e-05
3.52049e-05
3.62473e-05
3.70796e-05
3.7536e-05
3.75734e-05
3.70718e-05
3.6616e-05
3.55841e-05
3.48618e-05
3.48475e-05
3.54176e-05
3.58393e-05
3.6503e-05
3.71511e-05
3.79252e-05
3.85858e-05
3.91778e-05
3.96375e-05
4.00098e-05
4.02938e-05
4.05033e-05
4.06416e-05
4.0719e-05
4.07535e-05
4.07577e-05
4.07414e-05
4.07072e-05
4.06572e-05
4.05918e-05
4.05222e-05
4.0402e-05
4.03212e-05
4.02334e-05
4.00498e-05
3.99056e-05
3.97173e-05
3.95221e-05
3.93031e-05
3.90615e-05
3.87962e-05
3.85051e-05
3.81845e-05
3.78302e-05
3.74345e-05
3.70812e-05
3.68679e-05
3.68283e-05
3.71265e-05
3.77957e-05
3.86437e-05
3.98143e-05
4.1104e-05
4.2461e-05
4.37304e-05
4.44536e-05
4.45939e-05
4.44411e-05
4.43154e-05
4.29273e-05
4.08045e-05
3.8136e-05
3.51332e-05
3.19741e-05
2.87109e-05
2.512e-05
2.10347e-05
1.66332e-05
1.11831e-05
4.11991e-06
4.78794e-08
1.32408e-07
7.69676e-06
1.97308e-05
2.79088e-05
3.25689e-05
3.48785e-05
3.58624e-05
3.63543e-05
3.68953e-05
3.76664e-05
3.85598e-05
3.93438e-05
3.9811e-05
3.96905e-05
3.92242e-05
3.87382e-05
3.74461e-05
3.69714e-05
3.70538e-05
3.715e-05
3.74566e-05
3.79226e-05
3.84754e-05
3.89793e-05
3.94689e-05
3.98239e-05
4.0103e-05
4.02834e-05
4.04105e-05
4.0486e-05
4.0532e-05
4.05571e-05
4.05746e-05
4.05921e-05
4.06114e-05
4.06321e-05
4.06521e-05
4.06681e-05
4.06732e-05
4.06518e-05
4.06329e-05
4.06166e-05
4.05331e-05
4.04454e-05
4.03391e-05
4.01969e-05
4.00302e-05
3.98289e-05
3.95946e-05
3.93245e-05
3.90144e-05
3.86582e-05
3.82489e-05
3.77812e-05
3.72472e-05
3.66453e-05
3.59695e-05
3.52376e-05
3.46742e-05
3.4781e-05
3.55247e-05
3.66365e-05
3.81209e-05
3.97319e-05
4.13428e-05
4.23164e-05
4.25351e-05
4.26315e-05
4.26203e-05
4.09732e-05
3.84942e-05
3.54199e-05
3.20431e-05
2.86183e-05
2.51483e-05
2.12739e-05
1.66917e-05
1.09453e-05
3.83648e-06
4.38035e-08
1.78023e-07
9.73693e-06
2.33009e-05
3.18941e-05
3.64735e-05
3.85304e-05
3.92887e-05
3.96508e-05
4.01059e-05
4.07379e-05
4.13789e-05
4.18008e-05
4.1572e-05
4.10431e-05
4.04743e-05
3.9413e-05
3.88848e-05
3.86831e-05
3.8488e-05
3.8683e-05
3.89767e-05
3.93446e-05
3.96977e-05
3.99774e-05
4.0199e-05
4.03269e-05
4.04175e-05
4.04705e-05
4.05234e-05
4.05793e-05
4.06545e-05
4.07491e-05
4.08649e-05
4.09962e-05
4.11361e-05
4.12748e-05
4.14016e-05
4.15317e-05
4.16097e-05
4.16501e-05
4.17222e-05
4.17105e-05
4.16801e-05
4.1614e-05
4.15158e-05
4.1383e-05
4.12212e-05
4.10305e-05
4.08125e-05
4.05628e-05
4.02786e-05
3.99527e-05
3.95736e-05
3.91222e-05
3.85875e-05
3.7954e-05
3.71992e-05
3.63125e-05
3.53336e-05
3.43134e-05
3.3317e-05
3.32905e-05
3.42897e-05
3.57318e-05
3.76063e-05
3.94833e-05
4.07159e-05
4.10332e-05
4.12187e-05
4.12268e-05
3.92723e-05
3.63714e-05
3.28161e-05
2.89892e-05
2.51956e-05
2.12854e-05
1.66911e-05
1.07026e-05
3.56992e-06
4.04586e-08
2.32968e-07
1.18169e-05
2.68106e-05
3.57481e-05
4.01952e-05
4.19771e-05
4.24913e-05
4.26739e-05
4.295e-05
4.33273e-05
4.36103e-05
4.32897e-05
4.26673e-05
4.2022e-05
4.11224e-05
4.04891e-05
3.99279e-05
3.96709e-05
3.95997e-05
3.97713e-05
3.99591e-05
4.01623e-05
4.03144e-05
4.04134e-05
4.04814e-05
4.05264e-05
4.05918e-05
4.0682e-05
4.08172e-05
4.09917e-05
4.12059e-05
4.14475e-05
4.17069e-05
4.19691e-05
4.22389e-05
4.25071e-05
4.26782e-05
4.28211e-05
4.30293e-05
4.31138e-05
4.31994e-05
4.3217e-05
4.32063e-05
4.31479e-05
4.30501e-05
4.29101e-05
4.2731e-05
4.25126e-05
4.22565e-05
4.19636e-05
4.16357e-05
4.12744e-05
4.08812e-05
4.0457e-05
4.00007e-05
3.94697e-05
3.88286e-05
3.80182e-05
3.7028e-05
3.58491e-05
3.45482e-05
3.32682e-05
3.21078e-05
3.24268e-05
3.38925e-05
3.58284e-05
3.79433e-05
3.9433e-05
3.98453e-05
4.00181e-05
3.99073e-05
3.75935e-05
3.42131e-05
3.01379e-05
2.58102e-05
2.15196e-05
1.67271e-05
1.07076e-05
3.50946e-06
3.93338e-08
2.99781e-07
1.37378e-05
3.01677e-05
3.9412e-05
4.36975e-05
4.51863e-05
4.54247e-05
4.53613e-05
4.53623e-05
4.5384e-05
4.4952e-05
4.42164e-05
4.35157e-05
4.26946e-05
4.1954e-05
4.10703e-05
4.06238e-05
4.04072e-05
4.03581e-05
4.04313e-05
4.04879e-05
4.05472e-05
4.05785e-05
4.06128e-05
4.06741e-05
4.07804e-05
4.09527e-05
4.11855e-05
4.14777e-05
4.18123e-05
4.2177e-05
4.2554e-05
4.29497e-05
4.3345e-05
4.36852e-05
4.39321e-05
4.41943e-05
4.44684e-05
4.46619e-05
4.48049e-05
4.49108e-05
4.49616e-05
4.49697e-05
4.49268e-05
4.48369e-05
4.46985e-05
4.45134e-05
4.42819e-05
4.40052e-05
4.36845e-05
4.33206e-05
4.29139e-05
4.24644e-05
4.19716e-05
4.14351e-05
4.08556e-05
4.0234e-05
3.95672e-05
3.87603e-05
3.77334e-05
3.64434e-05
3.49717e-05
3.33892e-05
3.19532e-05
3.1142e-05
3.24117e-05
3.42874e-05
3.6643e-05
3.83125e-05
3.87835e-05
3.88707e-05
3.84798e-05
3.57232e-05
3.1823e-05
2.72177e-05
2.23226e-05
1.71848e-05
1.09884e-05
3.66199e-06
4.07983e-08
3.73951e-07
1.56401e-05
3.33605e-05
4.28518e-05
4.69504e-05
4.81252e-05
4.8045e-05
4.76624e-05
4.72982e-05
4.66837e-05
4.5798e-05
4.50559e-05
4.42006e-05
4.33272e-05
4.22221e-05
4.14901e-05
4.11006e-05
4.08834e-05
4.07916e-05
4.07597e-05
4.07274e-05
4.07266e-05
4.07548e-05
4.0849e-05
4.10213e-05
4.12782e-05
4.16159e-05
4.20167e-05
4.24652e-05
4.29403e-05
4.34262e-05
4.39381e-05
4.4425e-05
4.48516e-05
4.524e-05
4.55877e-05
4.59072e-05
4.62248e-05
4.64661e-05
4.66572e-05
4.67994e-05
4.68878e-05
4.69239e-05
4.69046e-05
4.68305e-05
4.67007e-05
4.6516e-05
4.62769e-05
4.59848e-05
4.56411e-05
4.52473e-05
4.48043e-05
4.43123e-05
4.37701e-05
4.31754e-05
4.25246e-05
4.18149e-05
4.10466e-05
4.02265e-05
3.93558e-05
3.82896e-05
3.69551e-05
3.53392e-05
3.35543e-05
3.18032e-05
3.04363e-05
3.11185e-05
3.30024e-05
3.54983e-05
3.72555e-05
3.7712e-05
3.76463e-05
3.67623e-05
3.34715e-05
2.90687e-05
2.38585e-05
1.82521e-05
1.18324e-05
4.13768e-06
4.69011e-08
4.5335e-07
1.74865e-05
3.63456e-05
4.60341e-05
4.99275e-05
5.07661e-05
5.03199e-05
4.95455e-05
4.86303e-05
4.75243e-05
4.67314e-05
4.5681e-05
4.46758e-05
4.33933e-05
4.23905e-05
4.1754e-05
4.13756e-05
4.11323e-05
4.09904e-05
4.09036e-05
4.08653e-05
4.09075e-05
4.10369e-05
4.12749e-05
4.16143e-05
4.20445e-05
4.25453e-05
4.3094e-05
4.36714e-05
4.42589e-05
4.48455e-05
4.54278e-05
4.5975e-05
4.64716e-05
4.69355e-05
4.73726e-05
4.77523e-05
4.80805e-05
4.84086e-05
4.8657e-05
4.88459e-05
4.89797e-05
4.90524e-05
4.90627e-05
4.90091e-05
4.88904e-05
4.87065e-05
4.8458e-05
4.81464e-05
4.77741e-05
4.73441e-05
4.68594e-05
4.63226e-05
4.57349e-05
4.50951e-05
4.4399e-05
4.36386e-05
4.28047e-05
4.18904e-05
4.08995e-05
3.9854e-05
3.86806e-05
3.72836e-05
3.55365e-05
3.36052e-05
3.16483e-05
3.00518e-05
3.00502e-05
3.19069e-05
3.44756e-05
3.6195e-05
3.65115e-05
3.63124e-05
3.45434e-05
3.08043e-05
2.57466e-05
1.98684e-05
1.31252e-05
5.02393e-06
6.1499e-08
5.35393e-07
1.92349e-05
3.9083e-05
4.89335e-05
5.26107e-05
5.30971e-05
5.22481e-05
5.09766e-05
4.9576e-05
4.86597e-05
4.72434e-05
4.60974e-05
4.46305e-05
4.3376e-05
4.24646e-05
4.18762e-05
4.14893e-05
4.12287e-05
4.10764e-05
4.1013e-05
4.10549e-05
4.12212e-05
4.15107e-05
4.19214e-05
4.24302e-05
4.30157e-05
4.36527e-05
4.43197e-05
4.49995e-05
4.56778e-05
4.63443e-05
4.69891e-05
4.75997e-05
4.81796e-05
4.87414e-05
4.92518e-05
4.97127e-05
5.01009e-05
5.04445e-05
5.08074e-05
5.10465e-05
5.12331e-05
5.13501e-05
5.13954e-05
5.13668e-05
5.12616e-05
5.10793e-05
5.08195e-05
5.04839e-05
5.0075e-05
4.95973e-05
4.90559e-05
4.84569e-05
4.78059e-05
4.7107e-05
4.63604e-05
4.5561e-05
4.46966e-05
4.37484e-05
4.26953e-05
4.15254e-05
4.02564e-05
3.88375e-05
3.72999e-05
3.55368e-05
3.34796e-05
3.14154e-05
2.95616e-05
2.91457e-05
3.09254e-05
3.35792e-05
3.50564e-05
3.51009e-05
3.47436e-05
3.19895e-05
2.74495e-05
2.16533e-05
1.46986e-05
6.04151e-06
8.47735e-08
6.17675e-07
2.08475e-05
4.15475e-05
5.15399e-05
5.49908e-05
5.5128e-05
5.37799e-05
5.21443e-05
5.08836e-05
4.90755e-05
4.76781e-05
4.601e-05
4.44962e-05
4.3298e-05
4.24543e-05
4.18894e-05
4.15055e-05
4.12661e-05
4.11651e-05
4.11989e-05
4.13815e-05
4.17117e-05
4.21734e-05
4.27466e-05
4.34016e-05
4.41142e-05
4.48611e-05
4.5625e-05
4.6392e-05
4.71516e-05
4.78959e-05
4.8618e-05
4.9313e-05
4.99796e-05
5.06126e-05
5.12242e-05
5.17826e-05
5.22474e-05
5.26511e-05
5.30511e-05
5.3399e-05
5.36313e-05
5.38018e-05
5.38868e-05
5.38887e-05
5.38023e-05
5.36259e-05
5.33583e-05
5.29999e-05
5.25531e-05
5.2022e-05
5.14132e-05
5.07349e-05
4.99971e-05
4.92099e-05
4.83819e-05
4.75174e-05
4.66127e-05
4.56532e-05
4.46108e-05
4.34468e-05
4.2123e-05
4.07274e-05
3.90559e-05
3.71222e-05
3.52498e-05
3.32079e-05
3.10343e-05
2.89691e-05
2.83461e-05
3.00669e-05
3.2658e-05
3.3988e-05
3.34499e-05
3.24227e-05
2.86301e-05
2.32181e-05
1.63002e-05
7.08463e-06
1.14688e-07
6.98561e-07
2.22771e-05
4.37384e-05
5.38905e-05
5.70361e-05
5.66461e-05
5.50618e-05
5.33517e-05
5.1269e-05
4.95074e-05
4.7613e-05
4.58199e-05
4.43114e-05
4.31748e-05
4.23812e-05
4.18427e-05
4.14964e-05
4.13287e-05
4.13363e-05
4.15154e-05
4.18635e-05
4.23603e-05
4.29786e-05
4.369e-05
4.44655e-05
4.52831e-05
4.61242e-05
4.69754e-05
4.78267e-05
4.86704e-05
4.95003e-05
5.03113e-05
5.10987e-05
5.18578e-05
5.2582e-05
5.32748e-05
5.39375e-05
5.45007e-05
5.4956e-05
5.53999e-05
5.58574e-05
5.61397e-05
5.63661e-05
5.64957e-05
5.65336e-05
5.64729e-05
5.63106e-05
5.60441e-05
5.56723e-05
5.51959e-05
5.46179e-05
5.39437e-05
5.31821e-05
5.23449e-05
5.14462e-05
5.05019e-05
4.95264e-05
4.85299e-05
4.75126e-05
4.64596e-05
4.53355e-05
4.40829e-05
4.26313e-05
4.11022e-05
3.92203e-05
3.68542e-05
3.47988e-05
3.27707e-05
3.04733e-05
2.82194e-05
2.76792e-05
2.9313e-05
3.14776e-05
3.23599e-05
3.16017e-05
2.91737e-05
2.43684e-05
1.77216e-05
8.02118e-06
1.49353e-07
7.76312e-07
2.35559e-05
4.5649e-05
5.58141e-05
5.85817e-05
5.80589e-05
5.64694e-05
5.41849e-05
5.1688e-05
4.9525e-05
4.74268e-05
4.55743e-05
4.41001e-05
4.30229e-05
4.22775e-05
4.17893e-05
4.15234e-05
4.14721e-05
4.16246e-05
4.19663e-05
4.24765e-05
4.31231e-05
4.38744e-05
4.47013e-05
4.5579e-05
4.64896e-05
4.74189e-05
4.83571e-05
4.92965e-05
5.02308e-05
5.11542e-05
5.20609e-05
5.29448e-05
5.37992e-05
5.46168e-05
5.53906e-05
5.61496e-05
5.68114e-05
5.73205e-05
5.78169e-05
5.83568e-05
5.87003e-05
5.89791e-05
5.91563e-05
5.92343e-05
5.92061e-05
5.90675e-05
5.88144e-05
5.84439e-05
5.79544e-05
5.73466e-05
5.66236e-05
5.57922e-05
5.4863e-05
5.38512e-05
5.27758e-05
5.16587e-05
5.05217e-05
4.93823e-05
4.82465e-05
4.71013e-05
4.59054e-05
4.45826e-05
4.30236e-05
4.13808e-05
3.90826e-05
3.64921e-05
3.42119e-05
3.2158e-05
2.96629e-05
2.72094e-05
2.71093e-05
2.88454e-05
3.02626e-05
3.03333e-05
2.92107e-05
2.50785e-05
1.88248e-05
8.77677e-06
1.87106e-07
8.47931e-07
2.46446e-05
4.71846e-05
5.72997e-05
5.98337e-05
5.94832e-05
5.73141e-05
5.44933e-05
5.19295e-05
4.94049e-05
4.71703e-05
4.53042e-05
4.38793e-05
4.28626e-05
4.21789e-05
4.17738e-05
4.16252e-05
4.17177e-05
4.20274e-05
4.25263e-05
4.31813e-05
4.39563e-05
4.48203e-05
4.57473e-05
4.67175e-05
4.77169e-05
4.87348e-05
4.97634e-05
5.07958e-05
5.18255e-05
5.28455e-05
5.38486e-05
5.4827e-05
5.57724e-05
5.66766e-05
5.75315e-05
5.8373e-05
5.91206e-05
5.96854e-05
6.02377e-05
6.08272e-05
6.12413e-05
6.15662e-05
6.17906e-05
6.19103e-05
6.19197e-05
6.18132e-05
6.15857e-05
6.12326e-05
6.07501e-05
6.01359e-05
5.939e-05
5.85155e-05
5.75196e-05
5.64149e-05
5.52198e-05
5.39583e-05
5.26591e-05
5.13523e-05
5.00636e-05
4.88065e-05
4.75712e-05
4.63133e-05
4.49423e-05
4.33157e-05
4.13834e-05
3.87142e-05
3.59462e-05
3.35048e-05
3.13371e-05
2.84912e-05
2.60036e-05
2.63979e-05
2.8281e-05
2.93147e-05
2.81661e-05
2.53012e-05
1.95667e-05
9.34662e-06
2.26709e-07
9.10874e-07
2.55169e-05
4.83419e-05
5.84206e-05
6.10664e-05
6.05093e-05
5.80156e-05
5.48994e-05
5.19129e-05
4.91942e-05
4.68786e-05
4.50296e-05
4.36636e-05
4.27156e-05
4.21156e-05
4.18236e-05
4.18151e-05
4.20601e-05
4.25214e-05
4.31614e-05
4.39415e-05
4.48269e-05
4.57897e-05
4.68084e-05
4.78675e-05
4.89558e-05
5.00647e-05
5.11867e-05
5.23142e-05
5.34393e-05
5.45535e-05
5.56477e-05
5.67128e-05
5.77398e-05
5.872e-05
5.96455e-05
6.05538e-05
6.13773e-05
6.19913e-05
6.25856e-05
6.32126e-05
6.36907e-05
6.40559e-05
6.43233e-05
6.44837e-05
6.45325e-05
6.44637e-05
6.42715e-05
6.395e-05
6.34934e-05
6.28968e-05
6.21567e-05
6.12719e-05
6.02448e-05
5.9083e-05
5.78005e-05
5.6419e-05
5.49682e-05
5.34841e-05
5.20056e-05
5.05675e-05
4.91895e-05
4.78633e-05
4.65367e-05
4.5097e-05
4.33553e-05
4.10815e-05
3.81335e-05
3.52199e-05
3.26816e-05
3.02786e-05
2.71566e-05
2.50747e-05
2.57171e-05
2.69107e-05
2.70752e-05
2.52144e-05
1.99549e-05
9.70276e-06
2.68022e-07
9.63751e-07
2.61792e-05
4.91714e-05
5.93005e-05
6.19856e-05
6.1247e-05
5.83258e-05
5.50313e-05
5.17929e-05
4.89297e-05
4.65753e-05
4.47644e-05
4.34663e-05
4.26008e-05
4.2107e-05
4.1948e-05
4.2087e-05
4.2479e-05
4.30776e-05
4.38406e-05
4.47294e-05
4.57125e-05
4.67662e-05
4.78729e-05
4.90203e-05
5.01987e-05
5.13997e-05
5.26148e-05
5.38348e-05
5.50501e-05
5.62504e-05
5.74255e-05
5.85654e-05
5.96609e-05
6.07036e-05
6.16859e-05
6.26384e-05
6.35195e-05
6.41905e-05
6.48061e-05
6.54575e-05
6.59905e-05
6.63888e-05
6.66926e-05
6.68899e-05
6.69767e-05
6.69476e-05
6.67963e-05
6.65163e-05
6.61005e-05
6.5542e-05
6.4834e-05
6.39712e-05
6.29508e-05
6.1774e-05
6.04482e-05
5.89891e-05
5.7422e-05
5.57827e-05
5.41164e-05
5.24722e-05
5.08947e-05
4.9411e-05
4.80145e-05
4.66469e-05
4.51766e-05
4.32167e-05
4.04066e-05
3.73141e-05
3.43437e-05
3.16774e-05
2.887e-05
2.54339e-05
2.43485e-05
2.53272e-05
2.60262e-05
2.45414e-05
1.99929e-05
9.85893e-06
3.10648e-07
1.0058e-06
2.66337e-05
4.97271e-05
5.98962e-05
6.26744e-05
6.17819e-05
5.87216e-05
5.50586e-05
5.1604e-05
4.86379e-05
4.62761e-05
4.45183e-05
4.32982e-05
4.25307e-05
4.216e-05
4.21419e-05
4.2424e-05
4.29501e-05
4.36699e-05
4.45405e-05
4.5526e-05
4.65989e-05
4.77393e-05
4.89326e-05
5.0168e-05
5.14359e-05
5.27268e-05
5.40305e-05
5.53359e-05
5.66317e-05
5.79063e-05
5.91488e-05
6.03492e-05
6.14987e-05
6.25894e-05
6.36146e-05
6.45893e-05
6.55116e-05
6.6245e-05
6.68606e-05
6.75211e-05
6.80997e-05
6.85233e-05
6.88554e-05
6.90834e-05
6.92042e-05
6.92129e-05
6.91038e-05
6.88704e-05
6.8505e-05
6.79991e-05
6.73439e-05
6.65303e-05
6.55507e-05
6.44e-05
6.30778e-05
6.15913e-05
5.99578e-05
5.82069e-05
5.63822e-05
5.45388e-05
5.2737e-05
5.10303e-05
4.94492e-05
4.79822e-05
4.65609e-05
4.50493e-05
4.26948e-05
3.94537e-05
3.63668e-05
3.3239e-05
3.04173e-05
2.69747e-05
2.37298e-05
2.34341e-05
2.37788e-05
2.35159e-05
1.98676e-05
9.99671e-06
3.57415e-07
1.0369e-06
2.68979e-05
5.00401e-05
6.02373e-05
6.31891e-05
6.20402e-05
5.88556e-05
5.49914e-05
5.13709e-05
4.83372e-05
4.59913e-05
4.42984e-05
4.31668e-05
4.25102e-05
4.22711e-05
4.23919e-05
4.28061e-05
4.34518e-05
4.42783e-05
4.52448e-05
4.63187e-05
4.74764e-05
4.87008e-05
4.99792e-05
5.13006e-05
5.26545e-05
5.40296e-05
5.54135e-05
5.67936e-05
5.8157e-05
5.94918e-05
6.0787e-05
6.2033e-05
6.32216e-05
6.43459e-05
6.54e-05
6.63792e-05
6.73301e-05
6.81257e-05
6.87262e-05
6.93801e-05
6.99952e-05
7.04362e-05
7.07878e-05
7.10391e-05
7.11876e-05
7.12295e-05
7.11601e-05
7.09733e-05
7.06619e-05
7.02167e-05
6.96276e-05
6.88831e-05
6.79713e-05
6.68816e-05
6.56061e-05
6.41425e-05
6.24977e-05
6.06913e-05
5.87591e-05
5.67543e-05
5.47447e-05
5.28036e-05
5.09932e-05
4.93404e-05
4.78103e-05
4.62805e-05
4.45215e-05
4.17042e-05
3.8393e-05
3.51306e-05
3.17904e-05
2.87019e-05
2.46616e-05
2.26771e-05
2.26985e-05
2.27745e-05
1.97418e-05
1.03477e-05
4.17426e-07
1.05757e-06
2.69963e-05
5.00985e-05
6.02923e-05
6.33631e-05
6.23246e-05
5.88974e-05
5.48588e-05
5.11131e-05
4.80406e-05
4.57277e-05
4.41091e-05
4.30752e-05
4.25378e-05
4.2431e-05
4.2682e-05
4.3215e-05
4.39668e-05
4.48885e-05
4.5942e-05
4.70985e-05
4.83373e-05
4.96432e-05
5.10035e-05
5.24065e-05
5.38398e-05
5.52899e-05
5.67429e-05
5.81845e-05
5.96016e-05
6.0982e-05
6.23153e-05
6.35926e-05
6.48062e-05
6.59499e-05
6.7018e-05
6.8005e-05
6.89622e-05
6.98148e-05
7.03949e-05
7.10265e-05
7.16697e-05
7.2121e-05
7.24836e-05
7.27499e-05
7.29184e-05
7.29867e-05
7.29513e-05
7.28073e-05
7.25483e-05
7.21657e-05
7.16487e-05
7.09846e-05
7.01589e-05
6.91563e-05
6.79622e-05
6.65656e-05
6.49621e-05
6.31588e-05
6.11789e-05
5.90662e-05
5.68866e-05
5.47237e-05
5.26668e-05
5.07894e-05
4.91219e-05
4.76235e-05
4.61575e-05
4.37679e-05
4.0394e-05
3.71436e-05
3.36271e-05
3.00082e-05
2.62654e-05
2.23742e-05
2.14112e-05
2.12178e-05
1.94382e-05
1.09803e-05
4.98408e-07
1.06784e-06
2.69249e-05
4.98974e-05
6.02228e-05
6.35025e-05
6.23652e-05
5.88458e-05
5.46804e-05
5.08452e-05
4.77566e-05
4.54893e-05
4.39523e-05
4.30228e-05
4.26072e-05
4.26274e-05
4.29972e-05
4.36362e-05
4.44825e-05
4.549e-05
4.66239e-05
4.78583e-05
4.91745e-05
5.05578e-05
5.19949e-05
5.34725e-05
5.49759e-05
5.64898e-05
5.79989e-05
5.94886e-05
6.09454e-05
6.23579e-05
6.37164e-05
6.50129e-05
6.62408e-05
6.73946e-05
6.84697e-05
6.94623e-05
7.04071e-05
7.12866e-05
7.18754e-05
7.2466e-05
7.3128e-05
7.35839e-05
7.39498e-05
7.4223e-05
7.44033e-05
7.44898e-05
7.44806e-05
7.43725e-05
7.41603e-05
7.38367e-05
7.33915e-05
7.28116e-05
7.20812e-05
7.11819e-05
7.00941e-05
6.8799e-05
6.72817e-05
6.55361e-05
6.35702e-05
6.14132e-05
5.91199e-05
5.6772e-05
5.44701e-05
5.23144e-05
5.03751e-05
4.86562e-05
4.70659e-05
4.53948e-05
4.24168e-05
3.89263e-05
3.54809e-05
3.17744e-05
2.78634e-05
2.32998e-05
2.09805e-05
1.9762e-05
1.89423e-05
1.16602e-05
6.00021e-07
1.06718e-06
2.67531e-05
4.96439e-05
6.00022e-05
6.35019e-05
6.23014e-05
5.87226e-05
5.4472e-05
5.05781e-05
4.7491e-05
4.52781e-05
4.38279e-05
4.3006e-05
4.27102e-05
4.28484e-05
4.3325e-05
4.40585e-05
4.49896e-05
4.60755e-05
4.72839e-05
4.85915e-05
4.99803e-05
5.14355e-05
5.29423e-05
5.44851e-05
5.60476e-05
5.76131e-05
5.91654e-05
6.069e-05
6.21742e-05
6.36072e-05
6.49805e-05
6.62871e-05
6.75216e-05
6.86795e-05
6.97576e-05
7.07536e-05
7.16717e-05
7.25561e-05
7.31814e-05
7.37152e-05
7.43829e-05
7.48402e-05
7.52028e-05
7.54755e-05
7.56596e-05
7.57557e-05
7.57639e-05
7.56827e-05
7.55089e-05
7.52368e-05
7.48576e-05
7.43592e-05
7.37254e-05
7.29364e-05
7.19693e-05
7.07992e-05
6.94023e-05
6.77601e-05
6.58649e-05
6.37283e-05
6.13884e-05
5.89169e-05
5.64173e-05
5.40131e-05
5.18201e-05
4.99066e-05
4.82541e-05
4.6734e-05
4.43048e-05
4.07157e-05
3.74348e-05
3.33568e-05
2.92066e-05
2.48067e-05
2.08618e-05
1.92532e-05
1.85285e-05
1.22822e-05
7.18115e-07
1.0615e-06
2.64844e-05
4.92157e-05
5.95873e-05
6.32869e-05
6.2133e-05
5.85426e-05
5.42457e-05
5.03195e-05
4.72476e-05
4.50949e-05
4.37341e-05
4.30196e-05
4.28379e-05
4.30838e-05
4.36558e-05
4.44736e-05
4.54814e-05
4.66388e-05
4.79162e-05
4.92916e-05
5.07472e-05
5.22669e-05
5.38343e-05
5.54319e-05
5.70419e-05
5.86466e-05
6.023e-05
6.17781e-05
6.3279e-05
6.47232e-05
6.61034e-05
6.74135e-05
6.86491e-05
6.98062e-05
7.08816e-05
7.18722e-05
7.27746e-05
7.36491e-05
7.43211e-05
7.48082e-05
7.54481e-05
7.59097e-05
7.62644e-05
7.65302e-05
7.67106e-05
7.68081e-05
7.68244e-05
7.67604e-05
7.66149e-05
7.63843e-05
7.60619e-05
7.56372e-05
7.5095e-05
7.44154e-05
7.35737e-05
7.25413e-05
7.12875e-05
6.9783e-05
6.80053e-05
6.59472e-05
6.36262e-05
6.10947e-05
5.84457e-05
5.58079e-05
5.33237e-05
5.11082e-05
4.91962e-05
4.74941e-05
4.57518e-05
4.25586e-05
3.89915e-05
3.53193e-05
3.08895e-05
2.62727e-05
2.10686e-05
1.87552e-05
1.75249e-05
1.29252e-05
8.40284e-07
1.04894e-06
2.61593e-05
4.85306e-05
5.90561e-05
6.29384e-05
6.18758e-05
5.8318e-05
5.40108e-05
5.00752e-05
4.70287e-05
4.49393e-05
4.36681e-05
4.30579e-05
4.29823e-05
4.33252e-05
4.39821e-05
4.48755e-05
4.59523e-05
4.71749e-05
4.85153e-05
4.99521e-05
5.14671e-05
5.30429e-05
5.46609e-05
5.63023e-05
5.79482e-05
5.95808e-05
6.11846e-05
6.27464e-05
6.42557e-05
6.57042e-05
6.70856e-05
6.83949e-05
6.96281e-05
7.07814e-05
7.18515e-05
7.28347e-05
7.3727e-05
7.45818e-05
7.53005e-05
7.5755e-05
7.63485e-05
7.68141e-05
7.71577e-05
7.74116e-05
7.7582e-05
7.76734e-05
7.76893e-05
7.76327e-05
7.75049e-05
7.73045e-05
7.70275e-05
7.66655e-05
7.62052e-05
7.56279e-05
7.49089e-05
7.40174e-05
7.29183e-05
7.15739e-05
6.9949e-05
6.80187e-05
6.57783e-05
6.3257e-05
6.05291e-05
5.77186e-05
5.49867e-05
5.24973e-05
5.03616e-05
4.85801e-05
4.69971e-05
4.42184e-05
4.04828e-05
3.7279e-05
3.23247e-05
2.75589e-05
2.23569e-05
1.86215e-05
1.6386e-05
1.34173e-05
9.38586e-07
1.02937e-06
2.57376e-05
4.77759e-05
5.84318e-05
6.24716e-05
6.15427e-05
5.80588e-05
5.37744e-05
4.9849e-05
4.68354e-05
4.48102e-05
4.36265e-05
4.31151e-05
4.31364e-05
4.35659e-05
4.42983e-05
4.5259e-05
4.63979e-05
4.7679e-05
4.90757e-05
5.05667e-05
5.2133e-05
5.37552e-05
5.54136e-05
5.70879e-05
5.8759e-05
6.04095e-05
6.20246e-05
6.35924e-05
6.51038e-05
6.65517e-05
6.79309e-05
6.92371e-05
7.04665e-05
7.16157e-05
7.26812e-05
7.36596e-05
7.4548e-05
7.53735e-05
7.61114e-05
7.65734e-05
7.71098e-05
7.75745e-05
7.79051e-05
7.81433e-05
7.82988e-05
7.83777e-05
7.83856e-05
7.83276e-05
7.82071e-05
7.80257e-05
7.77818e-05
7.74698e-05
7.70791e-05
7.65929e-05
7.59878e-05
7.52329e-05
7.42906e-05
7.31175e-05
7.16685e-05
6.99027e-05
6.77943e-05
6.53461e-05
6.26059e-05
5.96785e-05
5.67249e-05
5.39348e-05
5.1472e-05
4.94052e-05
4.76629e-05
4.55879e-05
4.18684e-05
3.87879e-05
3.429e-05
2.90736e-05
2.3725e-05
1.90728e-05
1.57362e-05
1.36135e-05
9.837e-07
1.00389e-06
2.52123e-05
4.69089e-05
5.77105e-05
6.19085e-05
6.11462e-05
5.77734e-05
5.35419e-05
4.96438e-05
4.66682e-05
4.4706e-05
4.36057e-05
4.31858e-05
4.32945e-05
4.38007e-05
4.45999e-05
4.56203e-05
4.68139e-05
4.81466e-05
4.95924e-05
5.11297e-05
5.27382e-05
5.43972e-05
5.60857e-05
5.77829e-05
5.94697e-05
6.11294e-05
6.27486e-05
6.43166e-05
6.58256e-05
6.72699e-05
6.8645e-05
6.99473e-05
7.11732e-05
7.23193e-05
7.3382e-05
7.43579e-05
7.52441e-05
7.60394e-05
7.67905e-05
7.72707e-05
7.775e-05
7.82092e-05
7.85256e-05
7.87459e-05
7.88828e-05
7.89444e-05
7.8938e-05
7.88707e-05
7.87485e-05
7.85754e-05
7.83527e-05
7.80778e-05
7.7743e-05
7.73345e-05
7.68309e-05
7.62028e-05
7.5412e-05
7.44121e-05
7.31506e-05
7.15745e-05
6.96384e-05
6.73193e-05
6.46351e-05
6.16642e-05
5.85554e-05
5.55149e-05
5.27565e-05
5.04187e-05
4.84812e-05
4.67252e-05
4.34663e-05
4.01107e-05
3.62911e-05
3.03476e-05
2.48153e-05
1.90462e-05
1.58645e-05
1.36018e-05
9.91404e-07
9.73969e-07
2.46534e-05
4.59551e-05
5.68998e-05
6.12651e-05
6.06973e-05
5.74684e-05
5.3317e-05
4.94614e-05
4.65272e-05
4.4625e-05
4.36021e-05
4.32655e-05
4.34519e-05
4.40255e-05
4.48832e-05
4.59557e-05
4.71969e-05
4.85738e-05
5.00609e-05
5.16359e-05
5.32774e-05
5.49637e-05
5.66727e-05
5.83837e-05
6.00779e-05
6.17399e-05
6.33574e-05
6.49213e-05
6.64251e-05
6.7864e-05
6.92345e-05
7.05331e-05
7.17565e-05
7.29009e-05
7.39623e-05
7.4936e-05
7.58175e-05
7.66011e-05
7.73536e-05
7.78546e-05
7.82821e-05
7.87321e-05
7.9034e-05
7.92353e-05
7.93515e-05
7.93923e-05
7.93669e-05
7.92843e-05
7.91527e-05
7.89787e-05
7.87665e-05
7.85164e-05
7.82241e-05
7.7879e-05
7.74627e-05
7.69481e-05
7.62984e-05
7.5466e-05
7.43946e-05
7.30214e-05
7.12854e-05
6.91394e-05
6.65701e-05
6.36218e-05
6.04175e-05
5.71614e-05