/*--------------------------------*- C++ -*----------------------------------*\
  =========                 |
  \\      /  F ield         | OpenFOAM: The Open Source CFD Toolbox
   \\    /   O peration     | Website:  https://openfoam.org
    \\  /    A nd           | Version:  13
     \\/     M anipulation  |
\*---------------------------------------------------------------------------*/
FoamFile
{
    format      ascii;
    class       volScalarField;
    location    "8.3";
    object      p;
}
// * * * * * * * * * * * * * * * * * * * * * * * * * * * * * * * * * * * * * //

dimensions      [0 2 -2 0 0 0 0];

internalField   nonuniform List<scalar> 
6400
(
3.99662e-09
2.01878e-05
2.93142e-05
1.3946e-05
-3.11831e-05
-0.000100829
-0.000185134
-0.000274804
-0.000363488
-0.000448005
-0.000529125
-0.000611161
-0.000698854
-0.000797434
-0.000912153
-0.00104716
-0.00120542
-0.00138858
-0.00159792
-0.00183408
-0.00209747
-0.00238952
-0.00271322
-0.00307315
-0.00347582
-0.00392578
-0.00441765
-0.00494216
-0.00547608
-0.00598531
-0.00646539
-0.00692415
-0.00735974
-0.0077694
-0.00814764
-0.00848561
-0.00877177
-0.00899279
-0.00913475
-0.00918378
-0.00912676
-0.00895252
-0.00865306
-0.00822442
-0.00766442
-0.00696488
-0.00611774
-0.0051417
-0.00405359
-0.00286043
-0.00158298
-0.000242576
0.0011316
0.00250693
0.00384286
0.0050943
0.00621727
0.00717042
0.00791455
0.00841881
0.00866532
0.00865252
0.00839456
0.00791035
0.00726435
0.00650567
0.00569989
0.00490987
0.00419198
0.00357601
0.00309644
0.00276365
0.00254748
0.0024225
0.00236899
0.00236346
0.00238676
0.00242375
0.0024638
0.00249101
-1.52763e-05
5.31463e-06
9.69304e-06
-1.07416e-05
-5.87732e-05
-0.000128359
-0.000208646
-0.000290969
-0.00037031
-0.000445347
-0.000518193
-0.00059299
-0.000674629
-0.000767933
-0.000876809
-0.00100485
-0.00115536
-0.00133085
-0.00153189
-0.00175867
-0.00201011
-0.00228688
-0.00259228
-0.00292885
-0.00329977
-0.00371247
-0.00417432
-0.00468349
-0.00522563
-0.00577613
-0.00630744
-0.00681068
-0.00728783
-0.00773577
-0.00814866
-0.00851762
-0.00883135
-0.00907717
-0.00924192
-0.00931301
-0.00927846
-0.00912823
-0.0088547
-0.00845218
-0.00791594
-0.00724226
-0.006438
-0.00551087
-0.00446282
-0.00331181
-0.00207573
-0.000777915
0.000553631
0.00188544
0.00317987
0.00439688
0.00549392
0.00642954
0.00716807
0.00767971
0.00794613
0.00796467
0.00774816
0.0073231
0.00673612
0.00604169
0.00530128
0.00457384
0.00391227
0.0033578
0.0029285
0.00263153
0.00245341
0.00237051
0.00235844
0.00238952
0.00243302
0.00247179
0.00250423
0.00252991
-3.16859e-05
-8.8816e-06
-1.02749e-05
-4.00212e-05
-9.61744e-05
-0.000168344
-0.000244646
-0.000316828
-0.000382243
-0.00044258
-0.000501629
-0.000564436
-0.000636101
-0.00072044
-0.000819978
-0.000936549
-0.00107171
-0.00122771
-0.00140679
-0.00161172
-0.00184616
-0.00211325
-0.00241744
-0.00276372
-0.00315632
-0.00359775
-0.00408843
-0.00462419
-0.00519394
-0.00577994
-0.00636228
-0.00692523
-0.00745961
-0.0079589
-0.00841607
-0.00882193
-0.00916616
-0.00943774
-0.00962494
-0.00971637
-0.00970188
-0.00957269
-0.00932178
-0.00894406
-0.00843657
-0.00779884
-0.00702737
-0.00613499
-0.0051281
-0.00401974
-0.0028267
-0.0015707
-0.000278301
0.00101921
0.00228646
0.00348532
0.00457422
0.00551232
0.00626461
0.00680237
0.00710637
0.0071718
0.00701067
0.0066493
0.00613026
0.00550591
0.00483119
0.0041692
0.00356675
0.00306075
0.00267552
0.00242427
0.00229462
0.00225764
0.0022825
0.0023447
0.00241425
0.00247224
0.00251957
0.00255665
-4.04584e-05
-1.87308e-05
-2.77401e-05
-6.88196e-05
-0.000135195
-0.000210541
-0.00028313
-0.000346361
-0.000398868
-0.00044298
-0.000484961
-0.000531634
-0.000588596
-0.000659625
-0.000746457
-0.000849882
-0.000971275
-0.00111346
-0.00128036
-0.00147757
-0.0017123
-0.00199245
-0.00232538
-0.00271373
-0.00315978
-0.00366472
-0.00422438
-0.0048281
-0.00546003
-0.00610343
-0.00674178
-0.00735989
-0.00794555
-0.00848969
-0.00898383
-0.0094187
-0.0097853
-0.0100739
-0.0102743
-0.0103768
-0.0103727
-0.0102544
-0.0100155
-0.00965207
-0.00916242
-0.00854449
-0.00779999
-0.00693443
-0.00595522
-0.00487443
-0.00370781
-0.00247552
-0.00120193
8.44083e-05
0.00135004
0.00255691
0.0036647
0.00463344
0.00542618
0.00601331
0.0063738
0.00649888
0.00639818
0.00609789
0.00563736
0.0050657
0.00443967
0.00381816
0.00325127
0.00277673
0.00241843
0.00218707
0.00207505
0.00206608
0.00213008
0.00222706
0.00232857
0.00241696
0.00248828
0.00253782
-3.47477e-05
-2.06875e-05
-3.99467e-05
-9.26699e-05
-0.000168669
-0.000246911
-0.000315802
-0.000370244
-0.000410253
-0.000440238
-0.000467516
-0.000499798
-0.000543135
-0.000601249
-0.000676299
-0.000770109
-0.000885811
-0.00102915
-0.00120729
-0.00142843
-0.0017024
-0.00203489
-0.00243066
-0.00289403
-0.00342426
-0.00401533
-0.0046569
-0.00533432
-0.00603007
-0.00672786
-0.0074123
-0.00807089
-0.00869295
-0.00926807
-0.00978712
-0.0102413
-0.0106221
-0.0109207
-0.0111287
-0.011238
-0.0112409
-0.0111312
-0.010903
-0.0105525
-0.0100793
-0.00948252
-0.00876301
-0.0079236
-0.00697065
-0.0059153
-0.00477262
-0.00356075
-0.00230078
-0.00101745
0.000257502
0.00148513
0.00262647
0.00364367
0.00449884
0.00515974
0.00560285
0.00581473
0.00579885
0.00557674
0.00518829
0.00468025
0.00410697
0.00352584
0.00298903
0.00253662
0.00219522
0.0019751
0.00187258
0.00187137
0.00194613
0.00206371
0.00219104
0.00230724
0.00240131
0.00246021
-5.71894e-06
-5.87778e-06
-3.77102e-05
-0.000104401
-0.00018864
-0.000267995
-0.000332841
-0.000379559
-0.00040944
-0.000428587
-0.000445486
-0.000468277
-0.000503177
-0.000554594
-0.000626374
-0.000722986
-0.000851001
-0.00101926
-0.00123872
-0.00151654
-0.00186035
-0.00227746
-0.00276942
-0.00333307
-0.00395954
-0.00463675
-0.00535248
-0.00609272
-0.00684201
-0.00758511
-0.00830786
-0.00899865
-0.00964726
-0.0102441
-0.0107808
-0.0112487
-0.0116391
-0.0119448
-0.0121588
-0.0122746
-0.0122853
-0.012187
-0.011974
-0.0116424
-0.0111949
-0.0106286
-0.00994331
-0.00914106
-0.00822633
-0.00720823
-0.00610039
-0.00491715
-0.00367542
-0.00239664
-0.00111332
0.000136029
0.00131703
0.00239546
0.00333054
0.00408717
0.00464078
0.00497172
0.00507823
0.00497187
0.00468761
0.00427273
0.00377887
0.00325986
0.00276814
0.00234663
0.00202443
0.00181477
0.00171608
0.00171481
0.0017877
0.00190663
0.00204117
0.00216807
0.00227206
0.00233419
5.70413e-05
3.91342e-05
-9.18597e-06
-9.28745e-05
-0.000182455
-0.000262176
-0.000323799
-0.000365055
-0.00038921
-0.000403599
-0.000417272
-0.000438648
-0.000474603
-0.000531305
-0.000615642
-0.000735252
-0.000900483
-0.00112317
-0.00141166
-0.00177471
-0.00221889
-0.00274523
-0.00334503
-0.00400757
-0.00472276
-0.00547862
-0.00626139
-0.00705713
-0.00785212
-0.00863298
-0.00938715
-0.0101038
-0.0107732
-0.0113867
-0.0119364
-0.0124136
-0.0128097
-0.0131198
-0.0133388
-0.0134614
-0.0134845
-0.0134028
-0.0132123
-0.0129096
-0.0124953
-0.011965
-0.0113204
-0.0105651
-0.00970429
-0.00874355
-0.00768885
-0.0065511
-0.00534614
-0.00409644
-0.00282677
-0.00156458
-0.000340218
0.000809094
0.00183593
0.00270891
0.00340077
0.00388373
0.00415196
0.00420723
0.00407409
0.00379385
0.00341609
0.00299235
0.0025727
0.00220138
0.00191026
0.00171595
0.00162007
0.00161465
0.00167686
0.00178404
0.00190891
0.00202836
0.00212704
0.00218408
0.000163738
0.000125127
5.47452e-05
-4.29225e-05
-0.000138068
-0.000219203
-0.000279759
-0.000319935
-0.000344715
-0.000362517
-0.000382826
-0.000414508
-0.000465802
-0.00054572
-0.000664184
-0.000832663
-0.00106306
-0.00136708
-0.00175316
-0.00222755
-0.00278685
-0.00342269
-0.00412462
-0.00488097
-0.0056788
-0.0065052
-0.0073469
-0.00819099
-0.00902504
-0.00983714
-0.0106162
-0.0113524
-0.0120366
-0.0126598
-0.0132144
-0.0136924
-0.0140907
-0.014406
-0.0146329
-0.0147672
-0.0148054
-0.0147414
-0.0145733
-0.0142996
-0.0139167
-0.0134252
-0.012827
-0.0121257
-0.0113257
-0.0104304
-0.0094422
-0.00836996
-0.0072277
-0.00603309
-0.00480291
-0.00355457
-0.00231663
-0.001126
-1.2983e-05
0.000993176
0.00184083
0.00250422
0.00297091
0.00323127
0.00329849
0.00320118
0.00298307
0.00269325
0.0023787
0.00208372
0.00184239
0.00167492
0.00158735
0.00157408
0.0016203
0.00170734
0.00180999
0.00190927
0.0019881
0.00203059
0.000319775
0.000260285
0.000164943
5.33696e-05
-4.8454e-05
-0.000132553
-0.000195928
-0.000240992
-0.000274591
-0.000306141
-0.000345624
-0.000402795
-0.000487963
-0.0006132
-0.000791762
-0.00103574
-0.00135795
-0.00176971
-0.00227385
-0.00286605
-0.0035391
-0.0042815
-0.00508015
-0.00592162
-0.0067928
-0.00768079
-0.00857322
-0.00945811
-0.010324
-0.0111601
-0.0119565
-0.0127041
-0.0133938
-0.0140177
-0.0145706
-0.0150503
-0.0154558
-0.0157795
-0.0160162
-0.0161611
-0.016209
-0.0161593
-0.016011
-0.0157637
-0.0154133
-0.014963
-0.0144132
-0.0137657
-0.0130228
-0.0121883
-0.0112679
-0.0102687
-0.00920094
-0.0080773
-0.00691018
-0.00570957
-0.00449469
-0.00329107
-0.00212013
-0.00102386
-3.48605e-05
0.000827422
0.00151288
0.00201071
0.00232036
0.00245504
0.00244343
0.00232967
0.00215684
0.00196725
0.00179817
0.00167342
0.00160343
0.00158711
0.00161541
0.00167462
0.00174696
0.0018171
0.00186533
0.00188889
0.00053266
0.000449906
0.0003269
0.000200013
8.89106e-05
-1.31244e-06
-7.24912e-05
-0.000129916
-0.000182293
-0.000239994
-0.000313689
-0.000414404
-0.000555
-0.000750343
-0.00101424
-0.00135892
-0.00179619
-0.00233017
-0.00295674
-0.00366739
-0.0044506
-0.00529195
-0.00617794
-0.00709489
-0.00803002
-0.00897081
-0.00990555
-0.010823
-0.0117127
-0.0125647
-0.0133702
-0.0141211
-0.0148112
-0.0154361
-0.015991
-0.0164723
-0.0168741
-0.017192
-0.0174235
-0.0175671
-0.0176209
-0.0175834
-0.017454
-0.0172323
-0.0169162
-0.0165073
-0.0160068
-0.0154161
-0.0147369
-0.0139721
-0.0131259
-0.0122032
-0.0112104
-0.0101544
-0.0090441
-0.00789385
-0.00672153
-0.00554221
-0.00436781
-0.00322016
-0.00212107
-0.00110923
-0.000217801
0.00053352
0.00111085
0.00151655
0.00175811
0.0018644
0.00187335
0.00182233
0.00174932
0.00168483
0.00164466
0.00163302
0.00164574
0.00167568
0.00171335
0.00174694
0.00176153
0.0017662
0.000804769
0.000692859
0.000540916
0.000393487
0.000271055
0.000170166
8.47748e-05
6.08308e-06
-7.65753e-05
-0.000174524
-0.000299214
-0.000463515
-0.000682405
-0.000971204
-0.00134303
-0.00180823
-0.00237231
-0.00303341
-0.00378234
-0.00460629
-0.00549127
-0.00642249
-0.00738624
-0.00836906
-0.00935847
-0.0103424
-0.0113099
-0.0122504
-0.0131544
-0.0140136
-0.0148202
-0.0155679
-0.0162518
-0.0168675
-0.0174113
-0.0178805
-0.018271
-0.0185802
-0.0188065
-0.018949
-0.0190068
-0.0189789
-0.0188651
-0.0186652
-0.0183788
-0.0180068
-0.0175504
-0.0170114
-0.0163914
-0.015693
-0.0149191
-0.0140737
-0.0131608
-0.0121845
-0.01115
-0.0100651
-0.00893891
-0.00778275
-0.00661554
-0.00545541
-0.00431108
-0.00319999
-0.00214274
-0.00117909
-0.000334492
0.000356855
0.000885587
0.00125536
0.00148843
0.00161489
0.00166751
0.00168164
0.00168362
0.00168493
0.00168824
0.00169136
0.0016936
0.00168814
0.00167087
0.00165905
0.00112405
0.00098234
0.000795069
0.000624203
0.000487039
0.000371178
0.000264329
0.000154395
2.89276e-05
-0.000124187
-0.000317593
-0.000565429
-0.000883287
-0.00128524
-0.00178161
-0.00237808
-0.00307409
-0.00386142
-0.00472676
-0.00565571
-0.00663308
-0.00764423
-0.00867538
-0.00971336
-0.010746
-0.0117618
-0.0127506
-0.0137028
-0.0146105
-0.0154664
-0.0162646
-0.0170002
-0.0176693
-0.0182688
-0.018796
-0.0192491
-0.0196257
-0.0199244
-0.0201441
-0.0202841
-0.0203438
-0.0203231
-0.020222
-0.0200407
-0.0197796
-0.0194395
-0.0190219
-0.0185283
-0.0179606
-0.017321
-0.0166119
-0.0158365
-0.0149975
-0.014098
-0.0131414
-0.0121316
-0.0110726
-0.00996926
-0.00882932
-0.00766311
-0.00648717
-0.00532126
-0.00416863
-0.00304751
-0.00198564
-0.00102626
-0.000204157
0.000458498
0.00095672
0.00130289
0.00152014
0.00163899
0.00169645
0.00171841
0.00171741
0.00169868
0.00166847
0.0016274
0.0015836
0.00155759
0.00147627
0.00130309
0.00107586
0.000878658
0.000723028
0.000586263
0.00044976
0.000298002
0.000116998
-0.000106285
-0.000384943
-0.000733981
-0.00116763
-0.00169675
-0.00232732
-0.00305929
-0.00388549
-0.00479292
-0.00576637
-0.00679048
-0.00784972
-0.00892959
-0.0100164
-0.0110973
-0.0121607
-0.013196
-0.0141941
-0.0151471
-0.0160482
-0.0168921
-0.0176743
-0.0183914
-0.0190407
-0.0196202
-0.0201284
-0.0205638
-0.0209253
-0.0212122
-0.021424
-0.0215601
-0.0216204
-0.0216052
-0.0215146
-0.0213492
-0.0211098
-0.0207973
-0.0204132
-0.019959
-0.0194367
-0.0188482
-0.0181958
-0.0174818
-0.0167084
-0.0158778
-0.0149921
-0.0140532
-0.0130629
-0.012023
-0.0109353
-0.00980193
-0.00862761
-0.00742198
-0.0062026
-0.00498331
-0.00377307
-0.00260196
-0.00151454
-0.000556967
0.000233666
0.000839469
0.00126465
0.00152788
0.00166344
0.00171583
0.00171465
0.00167828
0.00162116
0.00155141
0.00148835
0.00145345
0.00184321
0.00163568
0.00136633
0.00113839
0.000959823
0.000795792
0.000621148
0.000417152
0.000168513
-0.000138027
-0.000516543
-0.000980914
-0.00154216
-0.00220677
-0.00297464
-0.00383947
-0.00478905
-0.0058076
-0.00687885
-0.00798681
-0.00911597
-0.010252
-0.0113814
-0.0124921
-0.0135735
-0.0146164
-0.015613
-0.0165572
-0.0174439
-0.0182693
-0.0190306
-0.0197255
-0.0203526
-0.0209107
-0.0213989
-0.0218164
-0.0221629
-0.022438
-0.0226416
-0.0227735
-0.0228339
-0.022823
-0.0227415
-0.0225898
-0.022369
-0.0220802
-0.0217248
-0.0213045
-0.020821
-0.0202764
-0.0196725
-0.0190114
-0.0182949
-0.0175245
-0.0167015
-0.0158265
-0.0148999
-0.0139212
-0.0128899
-0.0118047
-0.0106645
-0.00946897
-0.00822136
-0.00693218
-0.00562475
-0.00430913
-0.00301375
-0.00179529
-0.000711863
0.00018183
0.000855318
0.00130883
0.00156229
0.0016641
0.00167097
0.00162
0.0015404
0.0014488
0.00137343
0.00133335
0.00219996
0.00195674
0.00164168
0.00138122
0.00117556
0.000977938
0.000756962
0.000491499
0.000165217
-0.00023614
-0.00072614
-0.00131547
-0.00201098
-0.00281252
-0.00371422
-0.00470455
-0.00576765
-0.00688615
-0.00804309
-0.00922215
-0.010408
-0.0115866
-0.0127452
-0.013873
-0.0149607
-0.0160006
-0.016987
-0.0179154
-0.0187823
-0.0195855
-0.0203233
-0.0209947
-0.021599
-0.0221357
-0.0226045
-0.0230052
-0.0233376
-0.0236018
-0.0237979
-0.0239261
-0.0239864
-0.0239794
-0.0239058
-0.0237661
-0.0235615
-0.0232932
-0.0229624
-0.0225709
-0.0221205
-0.0216128
-0.02105
-0.0204336
-0.0197653
-0.0190463
-0.0182773
-0.0174583
-0.0165887
-0.0156668
-0.01469
-0.0136551
-0.0125581
-0.011395
-0.0101624
-0.00886008
-0.00749462
-0.00608184
-0.00464745
-0.00322562
-0.00188489
-0.000700649
0.000253972
0.000940696
0.00136212
0.00155187
0.00158151
0.00152231
0.0014225
0.00131236
0.00122933
0.00118522
0.00251924
0.00224068
0.00187963
0.00158457
0.00134755
0.00110996
0.00083559
0.000501202
8.89157e-05
-0.000416388
-0.00102508
-0.00174389
-0.00257324
-0.00350729
-0.00453487
-0.00564007
-0.00680461
-0.00801013
-0.00923925
-0.0104756
-0.0117042
-0.0129118
-0.0140871
-0.0152204
-0.0163045
-0.0173335
-0.0183034
-0.0192114
-0.0200556
-0.020835
-0.0215488
-0.0221969
-0.0227792
-0.0232958
-0.0237467
-0.0241321
-0.0244521
-0.0247069
-0.0248967
-0.0250218
-0.0250824
-0.0250792
-0.0250127
-0.0248838
-0.0246934
-0.0244427
-0.0241332
-0.0237662
-0.0233437
-0.0228672
-0.0223386
-0.0217596
-0.0211316
-0.0204556
-0.0197321
-0.0189609
-0.0181408
-0.0172695
-0.0163436
-0.0153582
-0.0143076
-0.0131849
-0.0119837
-0.0106986
-0.00932722
-0.00787284
-0.00635094
-0.00479482
-0.00325491
-0.00181372
-0.000569336
0.000391478
0.00102852
0.00135744
0.0014433
0.00138733
0.00126956
0.00114185
0.00105108
0.00100008
0.00278022
0.00246328
0.00205706
0.0017258
0.00145314
0.00117028
0.000837545
0.000428816
-7.65972e-05
-0.00069087
-0.00142034
-0.00226674
-0.00322441
-0.00428235
-0.00542448
-0.00663159
-0.00788381
-0.00916219
-0.0104491
-0.0117286
-0.0129864
-0.0142105
-0.0153911
-0.0165206
-0.0175935
-0.018606
-0.0195555
-0.0204408
-0.0212613
-0.0220167
-0.0227074
-0.0233335
-0.0238956
-0.0243941
-0.0248292
-0.0252014
-0.0255108
-0.0257577
-0.0259424
-0.0260654
-0.0261269
-0.0261274
-0.0260676
-0.0259484
-0.0257706
-0.0255354
-0.0252441
-0.0248982
-0.0244992
-0.024049
-0.023549
-0.023001
-0.0224063
-0.0217659
-0.0210802
-0.0203489
-0.0195707
-0.0187432
-0.0178625
-0.0169233
-0.0159188
-0.0148408
-0.0136802
-0.012428
-0.0110765
-0.00962238
-0.0080696
-0.00643698
-0.00476609
-0.00312695
-0.00162272
-0.000372881
0.000527765
0.00105197
0.0012442
0.00121415
0.00108595
0.000939731
0.000834563
0.000770828
0.00294868
0.00260038
0.00215224
0.00178433
0.00147275
0.0011416
0.00074688
0.000258618
-0.000342244
-0.00106504
-0.00191284
-0.00288048
-0.0039574
-0.00512742
-0.00637043
-0.00766492
-0.00899002
-0.0103264
-0.0116567
-0.0129655
-0.01424
-0.0154696
-0.0166465
-0.017765
-0.0188216
-0.0198139
-0.0207412
-0.0216032
-0.0224002
-0.0231329
-0.023802
-0.0244082
-0.0249524
-0.0254349
-0.0258565
-0.0262174
-0.026518
-0.0267587
-0.0269397
-0.0270614
-0.0271242
-0.0271286
-0.0270752
-0.0269648
-0.0267983
-0.0265767
-0.0263013
-0.0259735
-0.0255947
-0.0251665
-0.0246906
-0.0241684
-0.0236012
-0.02299
-0.0223353
-0.0216368
-0.0208935
-0.0201029
-0.0192613
-0.0183633
-0.017402
-0.0163685
-0.0152526
-0.0140428
-0.012728
-0.0112992
-0.00975283
-0.00809554
-0.0063538
-0.00458432
-0.00287881
-0.0013614
-0.000171273
0.000599908
0.000959024
0.000998026
0.000871213
0.00070577
0.000575144
0.000493965
0.00301094
0.00263442
0.00214792
0.00174364
0.0013918
0.00101051
0.000550993
-1.78118e-05
-0.000712681
-0.00154068
-0.0024995
-0.00357894
-0.00476306
-0.00603109
-0.00735988
-0.00872637
-0.0101091
-0.0114888
-0.0128486
-0.0141743
-0.0154544
-0.0166806
-0.0178468
-0.0189493
-0.0199862
-0.0209567
-0.0218612
-0.0227004
-0.0234753
-0.024187
-0.0248367
-0.0254253
-0.0259537
-0.0264227
-0.0268327
-0.0271844
-0.0274779
-0.0277138
-0.0278921
-0.0280134
-0.028078
-0.0280864
-0.0280391
-0.0279369
-0.0277806
-0.0275712
-0.0273097
-0.0269976
-0.0266361
-0.0262268
-0.025771
-0.0252703
-0.0247259
-0.0241388
-0.0235095
-0.0228379
-0.0221232
-0.0213633
-0.0205548
-0.0196927
-0.0187703
-0.0177787
-0.0167073
-0.0155439
-0.0142751
-0.0128881
-0.0113735
-0.00972833
-0.00796466
-0.00612271
-0.0042823
-0.00255266
-0.00108137
-2.12558e-05
0.000558726
0.000718154
0.000620003
0.00043636
0.000268377
0.000168576
0.00295194
0.00255191
0.00203191
0.00159296
0.00120069
0.000767696
0.000242712
-0.000403646
-0.00118795
-0.00211418
-0.00317442
-0.00435354
-0.00563067
-0.0069813
-0.0083801
-0.00980305
-0.0112285
-0.0126375
-0.0140141
-0.0153456
-0.0166225
-0.0178382
-0.0189887
-0.020072
-0.0210876
-0.0220359
-0.0229182
-0.0237358
-0.0244903
-0.0251831
-0.0258156
-0.0263888
-0.0269038
-0.0273613
-0.0277618
-0.0281059
-0.0283939
-0.0286261
-0.0288028
-0.0289243
-0.0289911
-0.0290035
-0.028962
-0.0288674
-0.0287204
-0.0285219
-0.0282728
-0.0279745
-0.027628
-0.0272349
-0.0267964
-0.0263138
-0.0257885
-0.0252213
-0.0246129
-0.0239633
-0.0232721
-0.0225374
-0.0217565
-0.020925
-0.0200367
-0.0190833
-0.0180544
-0.0169374
-0.0157182
-0.0143818
-0.0129149
-0.0113077
-0.00955982
-0.0076927
-0.0057726
-0.0038965
-0.0021921
-0.00084021
1.16052e-05
0.000353517
0.000321345
0.000122599
-8.95756e-05
-0.000206976
0.00276284
0.00234493
0.00179736
0.00132645
0.000893905
0.000409799
-0.000177328
-0.00089681
-0.00176423
-0.00277895
-0.00392875
-0.00519362
-0.0065484
-0.00796575
-0.00941884
-0.0108831
-0.0123371
-0.0137626
-0.0151451
-0.0164734
-0.01774
-0.0189402
-0.0200717
-0.021134
-0.0221277
-0.0230543
-0.0239155
-0.0247132
-0.0254492
-0.0261252
-0.0267426
-0.0273027
-0.0278062
-0.028254
-0.0286467
-0.0289846
-0.0292683
-0.0294979
-0.0296737
-0.029796
-0.0298651
-0.0298816
-0.0298457
-0.0297582
-0.0296197
-0.029431
-0.0291931
-0.0289069
-0.0285737
-0.0281947
-0.0277711
-0.027304
-0.0267948
-0.0262443
-0.0256533
-0.025022
-0.02435
-0.0236362
-0.0228782
-0.0220725
-0.0212135
-0.0202939
-0.019304
-0.0182317
-0.0170625
-0.0157805
-0.0143697
-0.0128167
-0.0111123
-0.00925881
-0.00729786
-0.00533725
-0.00346682
-0.00185317
-0.000703665
-0.000126908
-4.80955e-05
-0.00024357
-0.000498903
-0.000632486
0.00244122
0.00201151
0.00144293
0.00094335
0.000472214
-6.04888e-05
-0.000705183
-0.00149136
-0.00243292
-0.00352512
-0.0047513
-0.00608708
-0.00750388
-0.00897229
-0.0104646
-0.0119561
-0.0134258
-0.0148567
-0.0162357
-0.0175536
-0.0188046
-0.0199859
-0.0210965
-0.022137
-0.0231092
-0.0240149
-0.0248565
-0.0256361
-0.0263556
-0.0270168
-0.0276212
-0.0281698
-0.0286636
-0.0291034
-0.0294896
-0.0298226
-0.0301029
-0.0303307
-0.0305062
-0.0306296
-0.0307013
-0.0307217
-0.0306912
-0.0306103
-0.0304796
-0.0302999
-0.030072
-0.0297969
-0.0294754
-0.0291088
-0.0286982
-0.0282447
-0.0277494
-0.0272132
-0.0266369
-0.0260208
-0.0253649
-0.0246684
-0.0239296
-0.0231455
-0.0223116
-0.0214215
-0.0204666
-0.0194356
-0.0183146
-0.0170874
-0.0157364
-0.0142455
-0.0126013
-0.0107936
-0.00883285
-0.00681909
-0.00485097
-0.00303966
-0.00160848
-0.000755294
-0.000505654
-0.00067109
-0.000957657
-0.00110765
0.00199038
0.00155525
0.000972285
0.000447814
-5.90087e-05
-0.000635724
-0.00133221
-0.00217781
-0.00318329
-0.00434072
-0.00562936
-0.00702108
-0.00848465
-0.00998924
-0.0115067
-0.0130126
-0.0144869
-0.0159139
-0.0172821
-0.0185841
-0.0198159
-0.0209759
-0.0220647
-0.0230836
-0.0240349
-0.0249212
-0.0257447
-0.0265079
-0.0272127
-0.0278609
-0.0284538
-0.0289927
-0.0294782
-0.0299112
-0.0302921
-0.0306212
-0.0308989
-0.0311254
-0.031301
-0.0314258
-0.0315002
-0.0315244
-0.031499
-0.0314242
-0.0313008
-0.0311294
-0.0309106
-0.0306453
-0.0303345
-0.029979
-0.02958
-0.0291384
-0.0286553
-0.0281315
-0.0275679
-0.026965
-0.0263228
-0.0256409
-0.0249182
-0.0241524
-0.0233399
-0.0224753
-0.0215514
-0.0205579
-0.019482
-0.0183078
-0.0170173
-0.0155922
-0.0140164
-0.0122743
-0.0103584
-0.00831103
-0.00629303
-0.00435553
-0.00268554
-0.0015447
-0.00107716
-0.00117638
-0.00146489
-0.00163737
0.00141869
0.000984505
0.000393354
-0.000151377
-0.000689751
-0.00130544
-0.00204724
-0.0029434
-0.00400212
-0.00521222
-0.00654943
-0.00798261
-0.00947859
-0.0110057
-0.0125358
-0.0140451
-0.0155146
-0.01693
-0.0182817
-0.0195639
-0.020774
-0.0219117
-0.0229784
-0.0239762
-0.0249078
-0.0257758
-0.0265829
-0.0273313
-0.028023
-0.0286597
-0.0292427
-0.029773
-0.0302515
-0.0306788
-0.0310552
-0.0313811
-0.0316568
-0.0318825
-0.0320585
-0.0321848
-0.0322618
-0.0322898
-0.0322691
-0.0322002
-0.0320835
-0.0319196
-0.0317091
-0.0314529
-0.0311517
-0.0308063
-0.0304177
-0.0299869
-0.0295147
-0.029002
-0.0284496
-0.0278582
-0.0272279
-0.0265587
-0.0258499
-0.0250998
-0.0243057
-0.0234633
-0.0225665
-0.0216066
-0.020572
-0.0194479
-0.0182165
-0.0168579
-0.0153542
-0.0136882
-0.0118404
-0.00980892
-0.00775014
-0.00575068
-0.00390875
-0.00250352
-0.00178451
-0.00175759
-0.00202556
-0.00223248
0.000738538
0.000311668
-0.0002814
-0.000841551
-0.00140655
-0.00205576
-0.00283616
-0.00377387
-0.0048749
-0.00612526
-0.00749774
-0.00895888
-0.0104742
-0.0120117
-0.0135436
-0.0150469
-0.0165039
-0.017902
-0.019233
-0.0204927
-0.0216798
-0.0227948
-0.0238397
-0.0248173
-0.0257302
-0.0265814
-0.0273734
-0.0281084
-0.0287884
-0.029415
-0.0299892
-0.0305122
-0.0309845
-0.0314068
-0.0317795
-0.0321027
-0.0323769
-0.0326021
-0.0327786
-0.0329065
-0.0329861
-0.0330176
-0.0330014
-0.0329379
-0.0328274
-0.0326705
-0.0324677
-0.0322198
-0.0319274
-0.0315913
-0.0312122
-0.0307912
-0.0303289
-0.0298263
-0.0292841
-0.028703
-0.0280834
-0.0274254
-0.0267288
-0.0259925
-0.0252145
-0.0243915
-0.0235187
-0.0225887
-0.0215915
-0.0205136
-0.0193382
-0.0180451
-0.0166143
-0.0150273
-0.0132625
-0.0113017
-0.00920593
-0.00718158
-0.00524334
-0.00362452
-0.00264588
-0.00243147
-0.00265663
-0.00290971
-3.29595e-05
-0.000448385
-0.0010369
-0.00160765
-0.00219478
-0.00287203
-0.00368351
-0.00465376
-0.0057865
-0.00706535
-0.00846081
-0.00993773
-0.0114609
-0.0129984
-0.0145229
-0.0160127
-0.0174514
-0.0188278
-0.0201354
-0.021371
-0.0225343
-0.0236267
-0.0246505
-0.0256088
-0.0265043
-0.0273399
-0.0281181
-0.028841
-0.0295105
-0.0301279
-0.0306944
-0.0312108
-0.0316778
-0.0320958
-0.0324652
-0.0327862
-0.0330591
-0.033284
-0.0334612
-0.0335906
-0.0336727
-0.0337076
-0.0336956
-0.033637
-0.0335323
-0.0333818
-0.0331862
-0.0329459
-0.0326617
-0.0323341
-0.0319639
-0.0315518
-0.0310988
-0.0306054
-0.0300726
-0.029501
-0.0288912
-0.0282435
-0.0275579
-0.026834
-0.0260703
-0.0252646
-0.0244131
-0.0235098
-0.0225462
-0.0215107
-0.0203876
-0.0191576
-0.0177992
-0.0162929
-0.0146187
-0.0127464
-0.0106633
-0.0086178
-0.00664687
-0.00488101
-0.00366464
-0.00323261
-0.00337533
-0.0036903
-0.000876804
-0.00127831
-0.00185731
-0.00243431
-0.00303861
-0.00373795
-0.0045732
-0.00556727
-0.00672175
-0.00801832
-0.00942576
-0.0109078
-0.012429
-0.0139578
-0.0154677
-0.0169381
-0.0183541
-0.0197059
-0.0209882
-0.022199
-0.0233386
-0.0244088
-0.0254124
-0.0263524
-0.0272316
-0.0280528
-0.0288184
-0.0295303
-0.0301902
-0.0307994
-0.0313589
-0.0318695
-0.0323316
-0.0327458
-0.0331124
-0.0334315
-0.0337033
-0.033928
-0.0341058
-0.0342368
-0.0343212
-0.0343592
-0.034351
-0.0342971
-0.0341977
-0.0340533
-0.0338642
-0.033631
-0.0333543
-0.0330347
-0.0326727
-0.0322691
-0.0318246
-0.03134
-0.030816
-0.0302534
-0.0296527
-0.0290146
-0.0283393
-0.0276266
-0.0268761
-0.0260859
-0.0252535
-0.0243742
-0.023441
-0.0224439
-0.021369
-0.0201982
-0.0189101
-0.0174832
-0.015897
-0.014121
-0.0121272
-0.0100507
-0.0080827
-0.00624394
-0.00483597
-0.00417984
-0.00419896
-0.00460221
-0.00177471
-0.00216002
-0.00272555
-0.00330443
-0.00392093
-0.00463655
-0.00548884
-0.00649872
-0.00766596
-0.00897072
-0.0103806
-0.0118589
-0.01337
-0.0148831
-0.0163727
-0.0178195
-0.0192099
-0.0205353
-0.0217915
-0.0229772
-0.0240934
-0.0251423
-0.0261266
-0.0270494
-0.0279134
-0.0287213
-0.0294752
-0.030177
-0.0308282
-0.0314299
-0.0319831
-0.0324883
-0.0329461
-0.0333569
-0.0337208
-0.0340382
-0.0343091
-0.0345337
-0.0347121
-0.0348445
-0.034931
-0.0349719
-0.0349674
-0.0349177
-0.0348233
-0.0346843
-0.0345014
-0.0342748
-0.0340051
-0.0336929
-0.0333386
-0.032943
-0.0325066
-0.0320303
-0.0315147
-0.0309605
-0.0303686
-0.0297396
-0.0290739
-0.0283719
-0.0276335
-0.0268576
-0.0260426
-0.025185
-0.0242793
-0.0233172
-0.0222866
-0.0211713
-0.0199506
-0.0186012
-0.017102
-0.0154276
-0.0135453
-0.0114723
-0.00952539
-0.00768037
-0.00614325
-0.00527343
-0.0051538
-0.00566057
-0.00270814
-0.0030753
-0.00362392
-0.00420041
-0.00482453
-0.0055512
-0.00641447
-0.00743309
-0.00860525
-0.00991006
-0.0113145
-0.0127816
-0.0142763
-0.0157685
-0.0172337
-0.018654
-0.0200169
-0.021315
-0.0225449
-0.0237059
-0.0247995
-0.0258279
-0.026794
-0.0277006
-0.0285504
-0.0293459
-0.0300891
-0.0307816
-0.0314248
-0.0320196
-0.0325669
-0.0330673
-0.0335211
-0.0339287
-0.0342903
-0.0346061
-0.0348761
-0.0351006
-0.0352796
-0.0354133
-0.0355018
-0.0355453
-0.0355441
-0.0354983
-0.0354084
-0.0352746
-0.0350973
-0.0348768
-0.0346137
-0.0343083
-0.0339613
-0.0335732
-0.0331446
-0.0326761
-0.0321685
-0.0316226
-0.0310391
-0.0304188
-0.0297625
-0.0290707
-0.0283436
-0.0275811
-0.0267821
-0.0259443
-0.0250637
-0.0241334
-0.0231434
-0.0220793
-0.0209217
-0.0196478
-0.0182365
-0.0166666
-0.0148971
-0.0128871
-0.010941
-0.00913748
-0.0075403
-0.00649705
-0.0062626
-0.00685077
-0.00365914
-0.00400599
-0.00453479
-0.00510553
-0.0057332
-0.00646618
-0.00733508
-0.00835636
-0.00952684
-0.010825
-0.0122176
-0.0136679
-0.0151414
-0.0166088
-0.018047
-0.019439
-0.0207736
-0.0220442
-0.0232482
-0.0243854
-0.0254573
-0.0264663
-0.0274152
-0.0283066
-0.0291433
-0.0299272
-0.0306604
-0.0313443
-0.03198
-0.0325685
-0.0331105
-0.0336063
-0.0340565
-0.0344612
-0.0348206
-0.0351348
-0.0354041
-0.0356284
-0.0358079
-0.0359427
-0.0360329
-0.0360789
-0.0360806
-0.0360385
-0.0359527
-0.0358236
-0.0356515
-0.0354367
-0.0351796
-0.0348807
-0.0345405
-0.0341595
-0.0337382
-0.0332773
-0.0327774
-0.0322394
-0.0316641
-0.0310524
-0.0304051
-0.029723
-0.0290068
-0.0282569
-0.0274729
-0.0266534
-0.0257957
-0.0248945
-0.0239415
-0.0229243
-0.0218255
-0.0206233
-0.0192952
-0.0178204
-0.016164
-0.0142866
-0.0123315
-0.0105786
-0.00897573
-0.00781773
-0.00751494
-0.00814139
-0.00461009
-0.00493488
-0.00544154
-0.00600384
-0.00663163
-0.00736689
-0.00823687
-0.00925577
-0.0104193
-0.0117054
-0.0130813
-0.0145106
-0.0159595
-0.0173998
-0.0188095
-0.0201725
-0.0214787
-0.0227224
-0.0239013
-0.0250156
-0.0260669
-0.0270576
-0.0279903
-0.0288677
-0.029692
-0.0304653
-0.0311892
-0.0318651
-0.0324939
-0.0330766
-0.0336135
-0.0341052
-0.0345519
-0.0349538
-0.0353112
-0.035624
-0.0358925
-0.0361166
-0.0362965
-0.0364323
-0.0365242
-0.0365722
-0.0365767
-0.0365378
-0.0364558
-0.036331
-0.0361636
-0.035954
-0.0357026
-0.0354097
-0.0350759
-0.0347015
-0.0342872
-0.0338335
-0.0333411
-0.0328108
-0.0322434
-0.0316399
-0.0310014
-0.0303288
-0.0296232
-0.0288852
-0.0281152
-0.0273128
-0.0264762
-0.0256016
-0.0246824
-0.0237083
-0.022664
-0.0215292
-0.0202805
-0.0188968
-0.0173518
-0.0156114
-0.0136861
-0.0119791
-0.0104089
-0.00919317
-0.00884923
-0.00945561
-0.00554468
-0.00584619
-0.00632917
-0.00688076
-0.00750582
-0.00824003
-0.0091074
-0.0101199
-0.0112724
-0.0125425
-0.0138981
-0.0153035
-0.0167259
-0.0181379
-0.0195184
-0.0208526
-0.0221311
-0.0233487
-0.0245037
-0.0255963
-0.0266283
-0.0276019
-0.0285196
-0.0293838
-0.0301967
-0.0309601
-0.0316754
-0.0323439
-0.0329663
-0.0335435
-0.0340758
-0.0345635
-0.0350071
-0.0354065
-0.0357619
-0.0360733
-0.036341
-0.0365649
-0.0367451
-0.0368818
-0.036975
-0.037025
-0.0370319
-0.036996
-0.0369174
-0.0367964
-0.0366333
-0.0364285
-0.0361823
-0.035895
-0.035567
-0.0351989
-0.0347911
-0.0343443
-0.033859
-0.0333361
-0.0327764
-0.032181
-0.031551
-0.0308877
-0.0301921
-0.0294656
-0.0287089
-0.0279224
-0.0271052
-0.026255
-0.0253667
-0.0244319
-0.0234374
-0.0223647
-0.0211914
-0.0198972
-0.0184612
-0.0168418
-0.0150039
-0.0133173
-0.011795
-0.0105664
-0.0101723
-0.0106781
-0.00644731
-0.00672571
-0.00718406
-0.00772319
-0.00834324
-0.00907378
-0.00993565
-0.0109388
-0.0120774
-0.0133287
-0.0146615
-0.0160416
-0.0174364
-0.0188198
-0.0201716
-0.0214777
-0.0227296
-0.0239225
-0.0250549
-0.0261272
-0.0271412
-0.0280989
-0.0290027
-0.0298548
-0.0306572
-0.0314114
-0.0321188
-0.0327804
-0.0333969
-0.033969