# vtk DataFile Version 2.0
tracks
ASCII
DATASET POLYDATA
POINTS 12035 float
-0.0206 0.000999966 1e-05 -0.02058 0.000999968 1e-05 -0.02056 0.000999972 1e-05 -0.02054 0.000999979
1e-05 -0.02052 0.000999989 1e-05 -0.0205 0.001 1e-05 -0.0202034 0.00100017 1e-05
-0.0199069 0.00100062 1e-05 -0.0196103 0.00100134 1e-05 -0.0193137 0.00100232 1e-05 -0.0190172
0.00100356 1e-05 -0.0187132 0.00100506 1e-05 -0.0184093 0.00100666 1e-05 -0.0181054 0.00100833
1e-05 -0.0178015 0.00101009 1e-05 -0.0174976 0.00101193 1e-05 -0.0172058 0.00101375 1e-05
-0.016914 0.00101559 1e-05 -0.0166222 0.00101745 1e-05 -0.0163305 0.00101932 1e-05 -0.0160387
0.00102122 1e-05 -0.0158691 0.00102234 1e-05 -0.0156996 0.00102347 1e-05 -0.0155301 0.00102461
1e-05 -0.0153605 0.00102575 1e-05 -0.0152049 0.00102682 1e-05 -0.0150915 0.0010276 1e-05
-0.0149782 0.00102838 1e-05 -0.0148648 0.00102917 1e-05 -0.0147515 0.00102997 1e-05 -0.0146381
0.00103077 1e-05 -0.0143692 0.00103267 1e-05 -0.0141002 0.0010346 1e-05 -0.0138313 0.00103655
1e-05 -0.0135624 0.00103851 1e-05 -0.0132934 0.0010405 1e-05 -0.0130353 0.00104242 1e-05
-0.0127771 0.00104435 1e-05 -0.0125189 0.00104628 1e-05 -0.0122607 0.00104822 1e-05 -0.0120025
0.00105015 1e-05 -0.0117547 0.00105202 1e-05 -0.0115068 0.00105388 1e-05 -0.0112589 0.00105574
1e-05 -0.0110111 0.0010576 1e-05 -0.0107632 0.00105946 1e-05 -0.0105252 0.00106125 1e-05
-0.0102873 0.00106303 1e-05 -0.0100493 0.00106481 1e-05 -0.00981133 0.00106658 1e-05 -0.00957337
0.00106834 1e-05 -0.00934491 0.00107004 1e-05 -0.00911645 0.00107171 1e-05 -0.00888799 0.00107337
1e-05 -0.00865954 0.00107501 1e-05 -0.00843108 0.00107663 1e-05 -0.00821175 0.00107819 1e-05
-0.00799242 0.00107971 1e-05 -0.00777309 0.00108121 1e-05 -0.00755376 0.00108269 1e-05 -0.00733443
0.00108415 1e-05 -0.00712387 0.00108556 1e-05 -0.0069133 0.00108693 1e-05 -0.00670273 0.00108828
1e-05 -0.00649216 0.00108961 1e-05 -0.0062816 0.00109093 1e-05 -0.00607944 0.00109221 1e-05
-0.00587729 0.00109345 1e-05 -0.00567514 0.00109468 1e-05 -0.00547298 0.00109589 1e-05 -0.00527083
0.0010971 1e-05 -0.00507675 0.00109826 1e-05 -0.00488267 0.00109939 1e-05 -0.0046886 0.00110051
1e-05 -0.00449452 0.00110161 1e-05 -0.00430044 0.0011027 1e-05 -0.00411412 0.00110376 1e-05
-0.0039278 0.00110479 1e-05 -0.00374147 0.0011058 1e-05 -0.00355515 0.00110679 1e-05 -0.00336883
0.00110778 1e-05 -0.00318995 0.00110873 1e-05 -0.00301107 0.00110965 1e-05 -0.00283219 0.00111055
1e-05 -0.00265331 0.00111143 1e-05 -0.00247443 0.00111231 1e-05 -0.0023027 0.00111315 1e-05
-0.00213097 0.00111396 1e-05 -0.00195924 0.00111475 1e-05 -0.0017875 0.00111552 1e-05 -0.00161577
0.00111628 1e-05 -0.0014509 0.00111701 1e-05 -0.00128603 0.00111771 1e-05 -0.00112116 0.00111839
1e-05 -0.000956289 0.00111906 1e-05 -0.000791418 0.00111972 1e-05 -0.000633135 0.00112034 1e-05
-0.000474851 0.00112094 1e-05 -0.000316567 0.00112153 1e-05 -0.000158283 0.0011221 1e-05 0
0.00112266 1e-05 0.000105677 0.00112302 1e-05 0.000211355 0.00112338 1e-05 0.000317032 0.00112373
1e-05 0.00042271 0.00112407 1e-05 0.000528387 0.00112441 1e-05 0.000634886 0.00112475 1e-05
0.000741385 0.00112508 1e-05 0.000847885 0.00112541 1e-05 0.000954384 0.00112573 1e-05 0.00106088
0.00112605 1e-05 0.00116821 0.00112638 1e-05 0.00127554 0.00112669 1e-05 0.00138286 0.00112699
1e-05 0.00149019 0.00112729 1e-05 0.00159752 0.00112759 1e-05 0.00170568 0.00112788 1e-05
0.00181384 0.00112817 1e-05 0.001922 0.00112844 1e-05 0.00203016 0.00112871 1e-05 0.00213833
0.00112897 1e-05 0.00224733 0.00112923 1e-05 0.00235633 0.00112949 1e-05 0.00246533 0.00112973
1e-05 0.00257434 0.00112996 1e-05 0.00268334 0.00113019 1e-05 0.00279319 0.00113042 1e-05
0.00290304 0.00113064 1e-05 0.00301289 0.00113086 1e-05 0.00312274 0.00113106 1e-05 0.00323259
0.00113127 1e-05 0.00334329 0.00113147 1e-05 0.003454 0.00113166 1e-05 0.0035647 0.00113186
1e-05 0.0036754 0.00113204 1e-05 0.00378611 0.00113223 1e-05 0.00389767 0.00113241 1e-05
0.00400924 0.00113258 1e-05 0.0041208 0.00113276 1e-05 0.00423237 0.00113293 1e-05 0.00434393
0.0011331 1e-05 0.00445636 0.00113326 1e-05 0.00456879 0.00113343 1e-05 0.00468123 0.00113359
1e-05 0.00479366 0.00113374 1e-05 0.00490609 0.0011339 1e-05 0.0050194 0.00113405 1e-05
0.0051327 0.0011342 1e-05 0.00524601 0.00113435 1e-05 0.00535931 0.0011345 1e-05 0.00547262
0.00113464 1e-05 0.00558681 0.00113478 1e-05 0.005701 0.00113492 1e-05 0.00581518 0.00113506
1e-05 0.00592937 0.00113519 1e-05 0.00604356 0.00113532 1e-05 0.00615863 0.00113545 1e-05
0.00627371 0.00113558 1e-05 0.00638878 0.0011357 1e-05 0.00650386 0.00113582 1e-05 0.00661893
0.00113593 1e-05 0.0067349 0.00113604 1e-05 0.00685087 0.00113615 1e-05 0.00696684 0.00113626
1e-05 0.00708281 0.00113636 1e-05 0.00719878 0.00113645 1e-05 0.00731565 0.00113654 1e-05
0.00743252 0.00113663 1e-05 0.00754939 0.00113671 1e-05 0.00766626 0.00113678 1e-05 0.00778313
0.00113685 1e-05 0.00790091 0.00113691 1e-05 0.00801869 0.00113697 1e-05 0.00813647 0.00113702
1e-05 0.00825425 0.00113707 1e-05 0.00837203 0.0011371 1e-05 0.00849073 0.00113713 1e-05
0.00860942 0.00113716 1e-05 0.00872812 0.00113717 1e-05 0.00884682 0.00113718 1e-05 0.00896551
0.00113718 1e-05 0.00908513 0.00113717 1e-05 0.00920475 0.00113715 1e-05 0.00932437 0.00113712
1e-05 0.00944398 0.00113709 1e-05 0.0095636 0.00113704 1e-05 0.00957485 0.00113704 1e-05
0.0095861 0.00113703 1e-05 0.00959735 0.00113703 1e-05 0.00960859 0.00113702 1e-05 0.00961978
0.00113702 1e-05 0.00972909 0.00113696 1e-05 0.0098384 0.0011369 1e-05 0.00994772 0.00113683
1e-05 0.010057 0.00113675 1e-05 0.0101663 0.00113666 1e-05 0.0102878 0.00113655 1e-05
0.0104093 0.00113643 1e-05 0.0105308 0.0011363 1e-05 0.0106523 0.00113616 1e-05 0.0107738
0.00113601 1e-05 0.0108962 0.00113584 1e-05 0.0110186 0.00113566 1e-05 0.0111411 0.00113547
1e-05 0.0112635 0.00113526 1e-05 0.0113859 0.00113505 1e-05 0.0115093 0.00113481 1e-05
0.0116327 0.00113456 1e-05 0.0117561 0.00113431 1e-05 0.0118795 0.00113404 1e-05 0.0120028
0.00113375 1e-05 0.0121272 0.00113344 1e-05 0.0122515 0.00113313 1e-05 0.0123759 0.0011328
1e-05 0.0125002 0.00113246 1e-05 0.0126245 0.00113211 1e-05 0.0127498 0.00113172 1e-05
0.0128752 0.00113133 1e-05 0.0130005 0.00113093 1e-05 0.0131258 0.00113051 1e-05 0.0132511
0.00113008 1e-05 0.0133774 0.00112962 1e-05 0.0135036 0.00112915 1e-05 0.0136299 0.00112867
1e-05 0.0137562 0.00112818 1e-05 0.0138825 0.00112767 1e-05 0.0140098 0.00112712 1e-05
0.014137 0.00112658 1e-05 0.0142643 0.00112602 1e-05 0.0143915 0.00112544 1e-05 0.0145188
0.00112485 1e-05 0.0146471 0.00112423 1e-05 0.0147753 0.0011236 1e-05 0.0149036 0.00112296
1e-05 0.0150318 0.0011223 1e-05 0.0151601 0.00112163 1e-05 0.0152893 0.00112093 1e-05
0.0154186 0.00112022 1e-05 0.0155478 0.0011195 1e-05 0.0156771 0.00111876 1e-05 0.0158063
0.001118 1e-05 0.0159366 0.00111723 1e-05 0.0160668 0.00111644 1e-05 0.0161971 0.00111564
1e-05 0.0163273 0.00111482 1e-05 0.0164576 0.00111399 1e-05 0.0165889 0.00111314 1e-05
0.0167201 0.00111227 1e-05 0.0168514 0.00111139 1e-05 0.0169827 0.0011105 1e-05 0.0171139
0.00110959 1e-05 0.0172462 0.00110867 1e-05 0.0173785 0.00110773 1e-05 0.0175108 0.00110678
1e-05 0.0176431 0.00110581 1e-05 0.0177754 0.00110484 1e-05 0.0179087 0.00110386 1e-05
0.018042 0.00110285 1e-05 0.0181753 0.00110183 1e-05 0.0183087 0.00110079 1e-05 0.018442
0.00109976 1e-05 0.0185763 0.00109872 1e-05 0.0187107 0.00109765 1e-05 0.018845 0.00109657
1e-05 0.0189794 0.00109547 1e-05 0.0191137 0.00109438 1e-05 0.0192491 0.00109329 1e-05
0.0193845 0.00109218 1e-05 0.0195199 0.00109103 1e-05 0.0196553 0.00108988 1e-05 0.0197907
0.00108875 1e-05 0.0199272 0.00108762 1e-05 0.0200636 0.00108646 1e-05 0.0202001 0.00108527
1e-05 0.0203365 0.00108407 1e-05 0.020473 0.0010829 1e-05 0.0206105 0.00108173 1e-05
0.020748 0.00108054 1e-05 0.0208855 0.00107931 1e-05 0.021023 0.00107808 1e-05 0.0211606
0.00107687 1e-05 0.0212991 0.00107568 1e-05 0.0214377 0.00107445 1e-05 0.0215763 0.0010732
1e-05 0.0217149 0.00107194 1e-05 0.0218535 0.00107071 1e-05 0.0219931 0.0010695 1e-05
0.0221328 0.00106826 1e-05 0.0222724 0.00106698 1e-05 0.0224121 0.0010657 1e-05 0.0225517
0.00106445 1e-05 0.0226925 0.00106323 1e-05 0.0228332 0.00106198 1e-05 0.022974 0.00106069
1e-05 0.0231147 0.0010594 1e-05 0.0232555 0.00105814 1e-05 0.0233973 0.00105691 1e-05
0.0235391 0.00105565 1e-05 0.023681 0.00105435 1e-05 0.0238228 0.00105306 1e-05 0.0239647
0.0010518 1e-05 0.0241076 0.00105057 1e-05 0.0242505 0.00104931 1e-05 0.0243935 0.001048
1e-05 0.0245364 0.00104671 1e-05 0.0246794 0.00104545 1e-05 0.0248234 0.00104423 1e-05
0.0249675 0.00104296 1e-05 0.0251115 0.00104166 1e-05 0.0252556 0.00104037 1e-05 0.0253996
0.00103911 1e-05 0.0255448 0.00103789 1e-05 0.02569 0.00103663 1e-05 0.0258351 0.00103534
1e-05 0.0259803 0.00103405 1e-05 0.0261255 0.0010328 1e-05 0.0262718 0.00103159 1e-05
0.0264181 0.00103033 1e-05 0.0265644 0.00102904 1e-05 0.0267107 0.00102776 1e-05 0.026857
0.00102652 1e-05 0.0270044 0.0010253 1e-05 0.0271519 0.00102405 1e-05 0.0272993 0.00102277
1e-05 0.0274468 0.00102149 1e-05 0.0275942 0.00102024 1e-05 0.0277428 0.00101902 1e-05
0.0278914 0.00101776 1e-05 0.0280399 0.00101648 1e-05 0.0281885 0.0010152 1e-05 0.0283371
0.00101395 1e-05 0.0284869 0.00101272 1e-05 0.0286366 0.00101145 1e-05 0.0287863 0.00101016
1e-05 0.0289361 0.00100888 1e-05 0.0290858 0.0010076 1e-05 0.0292367 0.00100636 1e-05
0.0293876 0.00100507 1e-05 0.0295385 0.00100377 1e-05 0.0296894 0.00100246 1e-05 0.0298403
0.00100116 1e-05 0.0299924 0.000999893 1e-05 0.0301445 0.000998572 1e-05 0.0302966 0.000997244
1e-05 0.0304486 0.000995912 1e-05 0.0306007 0.000994579 1e-05 0.030754 0.000993269 1e-05
0.0309072 0.00099191 1e-05 0.0310605 0.000990545 1e-05 0.0312138 0.000989175 1e-05 0.031367
0.000987799 1e-05 0.0315215 0.000986441 1e-05 0.0316759 0.000985036 1e-05 0.0318304 0.000983624
1e-05 0.0319848 0.000982204 1e-05 0.0321393 0.000980775 1e-05 0.0322949 0.000979355 1e-05
0.0324506 0.000977894 1e-05 0.0326062 0.000976422 1e-05 0.0327619 0.00097494 1e-05 0.0329175
[...]
POINT_DATA 12035
FIELD attributes 4
age 1 12035 float
-9.99927e-06 -7.99932e-06 -5.99941e-06 -3.99956e-06 -1.99976e-06 0 2.96531e-05 5.92901e-05 8.89107e-05 0.000118515 0.000148103
0.000178388 0.000208663 0.000238916 0.000269146 0.000299354 0.000328316 0.000357271 0.000386207 0.000415123 0.00044402
0.000460795 0.000477567 0.000494333 0.000511093 0.000526472 0.000537671 0.000548868 0.000560062 0.000571253 0.000582442
0.000608977 0.000635497 0.000662003 0.000688493 0.000714967 0.000740366 0.000765757 0.000791134 0.000816498 0.000841848
0.000866165 0.000890482 0.000914787 0.000939082 0.000963365 0.000986655 0.00100995 0.00103324 0.00105652 0.00107979
0.0011021 0.00112443 0.00114675 0.00116906 0.00119136 0.00121275 0.00123415 0.00125555 0.00127694 0.00129833
0.00131883 0.00133936 0.00135988 0.00138039 0.00140091 0.00142058 0.00144026 0.00145995 0.00147963 0.00149931
0.00151818 0.00153707 0.00155595 0.00157484 0.00159372 0.00161183 0.00162995 0.00164807 0.0016662 0.00168432
0.00170169 0.00171908 0.00173647 0.00175386 0.00177125 0.00178793 0.00180462 0.00182131 0.001838 0.0018547
0.00187071 0.00188673 0.00190275 0.00191878 0.0019348 0.00195018 0.00196556 0.00198094 0.00199633 0.00201171
0.00202198 0.00203225 0.00204253 0.0020528 0.00206307 0.00207343 0.00208378 0.00209413 0.00210449 0.00211484
0.00212528 0.00213572 0.00214615 0.00215659 0.00216703 0.00217756 0.00218808 0.0021986 0.00220912 0.00221964
0.00223026 0.00224086 0.00225147 0.00226208 0.00227269 0.00228339 0.00229408 0.00230477 0.00231547 0.00232617
0.00233696 0.00234774 0.00235853 0.00236932 0.00238011 0.00239099 0.00240187 0.00241274 0.00242363 0.00243451
0.00244549 0.00245646 0.00246743 0.00247841 0.00248939 0.00250047 0.00251153 0.00252261 0.00253368 0.00254476
0.00255594 0.00256711 0.00257828 0.00258946 0.00260065 0.00261193 0.0026232 0.00263448 0.00264577 0.00265706
0.00266845 0.00267983 0.00269122 0.00270262 0.00271402 0.00272552 0.00273702 0.00274853 0.00276004 0.00277156
0.00278318 0.0027948 0.00280643 0.00281806 0.0028297 0.00284144 0.00285319 0.00286494 0.0028767 0.00288847
0.00290035 0.00291222 0.00292411 0.00293601 0.00294791 0.00294903 0.00295015 0.00295127 0.00295239 0.00295351
0.0029644 0.0029753 0.00298621 0.00299713 0.00300805 0.00302022 0.00303238 0.00304456 0.00305674 0.00306894
0.00308127 0.00309359 0.00310592 0.00311827 0.00313062 0.00314313 0.00315561 0.0031681 0.00318061 0.00319313
0.00320582 0.00321847 0.00323114 0.00324382 0.00325651 0.00326939 0.00328222 0.00329506 0.00330792 0.0033208
0.00333387 0.00334688 0.00335992 0.00337297 0.00338603 0.0033993 0.00341251 0.00342574 0.00343899 0.00345226
0.00346573 0.00347915 0.00349258 0.00350603 0.0035195 0.00353319 0.00354682 0.00356046 0.00357413 0.00358782
0.00360172 0.00361558 0.00362944 0.00364333 0.00365725 0.00367138 0.00368547 0.00369956 0.00371368 0.00372784
0.0037422 0.00375653 0.00377086 0.00378521 0.00379961 0.00381421 0.00382878 0.00384335 0.00385795 0.0038726
0.00388744 0.00390226 0.00391708 0.00393193 0.00394683 0.00396192 0.00397699 0.00399207 0.00400717 0.00402233
0.00403767 0.004053 0.00406834 0.00408371 0.00409913 0.00411472 0.00413032 0.00414592 0.00416156 0.00417724
0.00419309 0.00420896 0.00422484 0.00424074 0.00425669 0.00427281 0.00428894 0.00430509 0.00432127 0.00433749
0.00435387 0.00437027 0.0043867 0.00440316 0.00441965 0.00443629 0.00445297 0.00446967 0.0044864 0.00450316
0.00452008 0.00453702 0.004554 0.00457101 0.00458804 0.00460522 0.00462244 0.0046397 0.00465697 0.00467427
0.00469173 0.00470922 0.00472675 0.0047443 0.00476186 0.00477958 0.00479735 0.00481514 0.00483296 0.0048508
0.00486878 0.00488681 0.00490488 0.00492296 0.00494106 0.00495931 0.00497761 0.00499593 0.00501428 0.00503264
0.00505116 0.00506972 0.0050883 0.00510691 0.00512553 0.00514431 0.00516312 0.00518197 0.00520083 0.00521971
0.00523874 0.00525782 0.00527691 0.00529603 0.00531516 0.00533445 0.00535378 0.00537313 0.00539249 0.00541188
0.00543142 0.005451 0.00547059 0.00549021 0.00550984 0.00552963 0.00554946 0.0055693 0.00558916 0.00560904
0.00562908 0.00564916 0.00566925 0.00568936 0.00570948 0.00572977 0.00575009 0.00577043 0.00579078 0.00581115
0.00583169 0.00585226 0.00587284 0.00589344 0.00591405 0.00593466 0.00595529 0.00597594 0.0059966 0.006016
0.00601644 0.00601688 0.00601732 0.00601776 0.0060182 0.00603924 0.0060603 0.00608138 0.00610248 0.00612359
0.00614489 0.0061662 0.00618753 0.00620888 0.00623025 0.0062518 0.00627337 0.00629496 0.00631656 0.00633819
0.00635999 0.00638182 0.00640366 0.00642553 0.00644741 0.00646947 0.00649156 0.00651367 0.0065358 0.00655794
0.00658026 0.00660262 0.00662499 0.00664738 0.00666979 0.00669238 0.00671499 0.00673763 0.00676029 0.00678297
0.00680582 0.00682871 0.00685162 0.00687455 0.00689749 0.00692061 0.00694377 0.00696695 0.00699015 0.00701337
0.00703676 0.00706019 0.00708365 0.00710712 0.00713061 0.00715428 0.00717798 0.00720171 0.00722547 0.00724923
0.00727317 0.00729715 0.00732116 0.00734519 0.00736922 0.00739344 0.0074177 0.00744198 0.00746629 0.0074906
0.0075151 0.00753963 0.0075642 0.00758878 0.00761337 0.00763814 0.00766295 0.0076878 0.00771266 0.00773752
0.00776258 0.00778767 0.0078128 0.00783793 0.00786308 0.00788841 0.00791379 0.00793919 0.00796461 0.00799003
0.00801565 0.00804131 0.00806699 0.00809269 0.00811839 0.0081443 0.00817024 0.0081962 0.00822218 0.00824817
0.00827436 0.00830059 0.00832683 0.0083531 0.00837937 0.00840586 0.00843237 0.00845891 0.00848546 0.00851202
0.0085388 0.00856561 0.00859244 0.00861928 0.00864614 0.00867322 0.00870032 0.00872744 0.00875458 0.00878174
0.00880912 0.00883653 0.00886395 0.0088914 0.00891886 0.00894655 0.00897426 0.009002 0.00902975 0.00905752
0.00906577 0.00907402 0.00908227 0.00909052 0.00909857 0.00911839 0.00913823 0.00915808 0.00917793 0.0091978
0.00922613 0.00925449 0.00928286 0.00931126 0.00933969 0.00936835 0.00939704 0.00942575 0.00945449 0.00948325
0.00951225 0.00954128 0.00957034 0.00959942 0.00962853 0.00965787 0.00968726 0.00971667 0.0097461 0.00977557
0.00980526 0.009835 0.00986478 0.00989458 0.0099244 0.00995447 0.00998457 0.0100147 0.0100449 0.0100751
0.0101055 0.010136 0.0101665 0.0101971 0.0102277 0.0102585 0.0102893 0.0103202 0.0103512 0.0103821
0.0104134 0.0104446 0.0104759 0.0105072 0.0105386 0.0105702 0.0106019 0.0106336 0.0106653 0.0106971
0.0107291 0.0107611 0.0107933 0.0108254 0.0108576 0.01089 0.0109225 0.010955 0.0109876 0.0110201
0.011053 0.0110859 0.0111188 0.0111518 0.0111848 0.0112181 0.0112515 0.0112848 0.0113182 0.0113517
0.0113664 0.0113812 0.0113959 0.0114107 0.011425 0.0114442 0.0114633 0.0114824 0.0115016 0.0115208
0.011555 0.0115892 0.0116234 0.0116578 0.0116921 0.0117267 0.0117614 0.0117962 0.011831 0.0118658
0.0119009 0.0119361 0.0119713 0.0120065 0.0120418 0.0120774 0.0121131 0.0121488 0.0121846 0.0122204
0.0122565 0.0122926 0.0123288 0.0123651 0.0124014 0.012438 0.0124746 0.0125114 0.0125481 0.012585
0.0126221 0.0126593 0.0126965 0.0127338 0.0127712 0.0128088 0.0128466 0.0128843 0.0129222 0.0129601
0.0129983 0.0130366 0.0130749 0.0131133 0.0131517 0.0131747 0.0131977 0.0132207 0.0132437 0.0132659
0.0132819 0.013298 0.0133141 0.0133302 0.0133463 0.0133856 0.0134251 0.0134645 0.0135041 0.0135437
0.0135836 0.0136236 0.0136637 0.0137038 0.013744 0.0137845 0.0138251 0.0138658 0.0139065 0.0139473
0.0139884 0.0140297 0.0140709 0.0141123 0.0141537 0.0141955 0.0142374 0.0142793 0.0143213 0.0143633
0.0144058 0.0144483 0.0144909 0.0145335 0.0145763 0.0146194 0.0146626 0.0147058 0.0147492 0.0147926
0.0148256 0.0148587 0.0148919 0.014925 0.0149569 0.014968 0.0149791 0.0149902 0.0150013 0.0150124
0.0150569 0.0151015 0.0151462 0.0151909 0.0152357 0.015281 0.0153263 0.0153717 0.0154171 0.0154627
0.0155086 0.0155547 0.0156008 0.015647 0.0156933 0.01574 0.0157869 0.0158338 0.0158807 0.0159278
0.0159753 0.0160229 0.0160706 0.0161184 0.0161663 0.0162146 0.0162631 0.0163116 0.0163602 0.0164089
0.0164477 0.0164865 0.0165254 0.0165644 0.016602 0.0166127 0.0166235 0.0166343 0.0166451 0.0166559
0.016706 0.0167561 0.0168064 0.0168567 0.0169072 0.0169582 0.0170093 0.0170604 0.0171117 0.0171631
0.0172151 0.0172671 0.0173192 0.0173715 0.0174239 0.0174768 0.0175298 0.017583 0.0176362 0.0176897
0.0177437 0.0177977 0.017852 0.0179063 0.0179608 0.0180159 0.0180711 0.0181265 0.018182 0.0182376
0.0182399 0.0182422 0.0182445 0.0182468 0.0182491 0.018303 0.0183572 0.0184114 0.0184658 0.0185204
0.0185778 0.0186354 0.0186932 0.0187511 0.0188092 0.018868 0.0189269 0.0189859 0.0190451 0.0191046
0.0191647 0.019225 0.0192854 0.019346 0.0194069 0.0194684 0.0195301 0.0195921 0.0196542 0.0197165
0.0197574 0.0197984 0.0198395 0.0198807 0.0199207 0.0199434 0.019966 0.0199887 0.0200114 0.0200341
0.0200988 0.0201636 0.0202287 0.020294 0.0203596 0.0204259 0.0204924 0.0205592 0.0206262 0.0206936
0.0207617 0.02083 0.0208986 0.0209674 0.0210366 0.0211065 0.0211768 0.0212473 0.021318 0.0213891
0.0214414 0.0214938 0.0215463 0.021599 0.0216504 0.0216707 0.021691 0.0217113 0.0217317 0.0217521
0.0218261 0.0219004 0.0219751 0.02205 0.0221253 0.0222015 0.022278 0.0223548 0.022432 0.0225096
0.0225881 0.0226669 0.0227461 0.0228256 0.0229055 0.0229864 0.0230677 0.0231494 0.0232314 0.0233138
0.0233486 0.0233835 0.0234184 0.0234534 0.023488 0.0235373 0.0235866 0.0236362 0.0236858 0.0237356
0.0238217 0.0239082 0.0239951 0.0240825 0.0241703 0.0242592 0.0243485 0.0244383 0.0245285 0.0246191
0.0247109 0.0248032 0.0248959 0.0249891 0.0250828 0.0251635 0.0252445 0.0253259 0.0254076 0.0254879
0.0255028 0.0255177 0.0255326 0.0255475 0.0255624 0.0256605 0.0257591 0.0258581 0.0259577 0.0260579
0.0261592 0.0262611 0.0263636 0.0264665 0.0265701 0.0266749 0.0267802 0.0268862 0.0269927 0.0270998
0.0272082 0.0273172 0.0274268 0.0275369 0.0276477 0.0276596 0.0276714 0.0276833 0.0276951 0.027707
0.0278076 0.0279087 0.0280103 0.0281123 0.0282149 0.0283308 0.0284475 0.0285647 0.0286826 0.028801
0.0289209 0.0290415 0.0291628 0.0292846 0.0294071 0.0295311 0.0296558 0.0297811 0.0299071 0.0300337
0.0300679 0.0301021 0.0301363 0.0301707 0.0302049 0.0302997 0.0303947 0.0304902 0.0305859 0.030682
0.0308144 0.0309475 0.0310813 0.0312158 0.0313509 0.0314875 0.0316249 0.031763 0.0319018 0.0320412
0.0321822 0.0323239 0.0324664 0.0326095 0.0327533 0.0328103 0.0328675 0.0329247 0.0329821 0.0330396
0.0331289 0.0332183 0.0333081 0.033398 0.0334882 0.033638 0.0337886 0.0339398 0.0340917 0.0342441
0.0343983 0.0345532 0.0347089 0.0348652 0.035022 0.0351805 0.0353398 0.0354999 0.0356605 0.0358217
0.035907 0.0359924 0.0360781 0.0361639 0.0362503 0.0363288 0.0364075 0.0364863 0.0365653 0.0366444
0.036812 0.0369802 0.0371491 0.0373186 0.0374887 0.0376606 0.0378333 0.0380067 0.0381807 0.0383553
0.0385317 0.0387088 0.0388866 0.0390651 0.0392441 0.0393416 0.0394393 0.0395372 0.0396353 0.039734
0.0398181 0.0399023 0.0399867 0.0400712 0.0401558 0.0403411 0.0405271 0.0407138 0.040901 0.0410887
0.0412784 0.0414687 0.0416597 0.0418513 0.0420433 0.0422373 0.0424319 0.0426271 0.0428229 0.0430192
0.0431164 0.0432138 0.0433114 0.043409 0.0435072 0.0436088 0.0437105 0.0438124 0.0439144 0.0440166
0.0442189 0.0444219 0.0446253 0.0448293 0.0450336 0.0452399 0.0454468 0.0456542 0.0458621 0.0460703
0.0462804 0.0464911 0.0467022 0.0469137 0.0471255 0.0472046 0.0472837 0.0473629 0.0474421 0.0475219
0.047657 0.0477923 0.0479277 0.0480632 0.0481989 0.048416 0.0486336 0.0488515 0.0490698 0.0492881
0.0495084 0.049729 0.04995 0.0501711 0.0503923 0.0506151 0.0508383 0.0510616 0.0512852 0.0515088
0.0515661 0.0516234 0.0516808 0.0517381 0.051796 0.0519641 0.0521323 0.0523004 0.0524685 0.0526366
0.0528546 0.053073 0.0532916 0.0535103 0.0537286 0.0539517 0.0541748 0.0543978 0.0546205 0.0548531
0.0548543 0.0548554 0.0548565 0.0548577 0.0548588 0.0550929 0.0553267 0.0555603 0.0557937 0.0560264
0.0562677 0.0565088 0.0567495 0.0569897 0.0572289 0.057304 0.057379 0.0574539 0.0575288 0.0576057
0.0577775 0.057949 0.0581201 0.0582909 0.058461 0.0587146 0.0589673 0.0592192 0.0594701 0.0597194
0.0598624 0.060005 0.0601473 0.0602892 0.0604417 0.0605528 0.0606636 0.0607743 0.0608846 0.0609946
0.0612556 0.061515 0.061773 0.0620294 0.0622836 0.0625105 0.0627361 0.0629603 0.0631831 0.0634418
0.0634687 0.0634955 0.0635224 0.0635492 0.063576 0.0638385 0.064099 0.0643572 0.0646133 0.0648669
0.0651281 0.065387 0.0656435 0.0658976 0.066149 0.0662613 0.0663732 0.0664846 0.0665954 0.0667182
0.0668587 0.0669984 0.0671373 0.0672755 0.0674128 0.0676678 0.0679202 0.0681697 0.0684165 0.0686605
0.0689112 0.0691589 0.0694038 0.0696459 0.0698851 0.0699953 0.0701048 0.0702138 0.0703221 0.0704449
0.0705736 0.0707014 0.0708284 0.0709545 0.0710799 0.07132 0.071557 0.0717911 0.0720222 0.0722506
0.0724849 0.0727162 0.0729444 0.0731698 0.0733924 0.0736207 0.073846 0.0740684 0.0742879 0.0745047
0.0745943 0.0746835 0.0747721 0.0748603 0.0749613 0.0750877 0.0752131 0.0753376 0.0754612 0.0755839
0.0758003 0.0760138 0.0762245 0.0764324 0.0766378 0.0768483 0.0770559 0.0772606 0.0774626 0.0776625
0.0778676 0.0780702 0.0782702 0.0784674 0.0786618 0.0788608 0.0790566 0.0792497 0.0794406 0.0796297
0.0798244 0.0800172 0.0802065 0.0803925 0.0805754 0.0806602 0.0807443 0.080828 0.0809114 0.0809708
0.0810743 0.081177 0.081279 0.0813801 0.0814805 -9.99989e-06 -7.9999e-06 -5.99991e-06 -3.99993e-06 -1.99996e-06
0 2.96562e-05 5.93107e-05 8.89626e-05 0.000118611 0.000148255 0.000178629 0.000208997 0.000239358 0.000269714
0.000300062 0.000329191 0.000358312 0.000387427 0.000416534 0.000445634 0.000473565 0.000501489 0.000529406 0.000557317
0.000585222 0.000612006 0.000638784 0.000665557 0.000692324 0.000719086 0.000744772 0.000770454 0.00079613 0.000821802
0.000847468 0.000872104 0.000896735 0.000921361 0.000945983 0.0009706 0.000994229 0.00101785 0.00104147 0.00106509
0.0010887 0.00111137 0.00113403 0.00115669 0.00117934 0.00120199 0.00122373 0.00124547 0.00126721 0.00128894
0.00131067 0.00133153 0.00135238 0.00137324 0.00139409 0.00141493 0.00143494 0.00145495 0.00147496 0.00149497
0.00151497 0.00153417 0.00155337 0.00157257 0.00159176 0.00161096 0.00162938 0.0016478 0.00166622 0.00168464
0.00170306 0.00172074 0.00173842 0.00175609 0.00177377 0.00179144 0.00180841 0.00182537 0.00184234 0.0018593
0.00187626 0.00189254 0.00190882 0.0019251 0.00194138 0.00195766 0.00197328 0.00198891 0.00200453 0.00202016
0.00203578 0.00204621 0.00205664 0.00206707 0.0020775 0.00208793 0.00209843 0.00210894 0.00211945 0.00212996
0.00214047 0.00215106 0.00216164 0.00217223 0.00218282 0.00219341 0.00220408 0.00221475 0.00222542 0.00223609
0.00224676 0.00225751 0.00226826 0.00227901 0.00228976 0.00230051 0.00231134 0.00232218 0.00233301 0.00234384
0.00235467 0.00236559 0.00237651 0.00238742 0.00239834 0.00240925 0.00242025 0.00243125 0.00244225 0.00245325
0.00246425 0.00247534 0.00248642 0.0024975 0.00250859 0.00251967 0.00253084 0.00254201 0.00255318 0.00256435
0.00257552 0.00258677 0.00259803 0.00260928 0.00262054 0.00263179 0.00264313 0.00265447 0.00266581 0.00267715
0.0026885 0.00269992 0.00271135 0.00272278 0.00273421 0.00274564 0.00275715 0.00276867 0.00278018 0.0027917
0.00280322 0.00281482 0.00282642 0.00283803 0.00284963 0.00286124 0.00287293 0.00288462 0.00289632 0.00290801
0.0029197 0.00293149 0.00294327 0.00295505 0.00296683 0.00297862 0.00299049 0.00300236 0.00301424 0.00302611
0.00303798 0.00304995 0.00306191 0.00307388 0.00308584 0.00309781 0.00310987 0.00312192 0.00313398 0.00314604
0.00315809 0.00317025 0.0031824 0.00319455 0.0032067 0.00321885 0.00323109 0.00324333 0.00325558 0.00326782
0.00328007 0.00329241 0.00330475 0.00331708 0.00332942 0.00334176 0.0033542 0.00336663 0.00337907 0.0033915
0.00340394 0.00341647 0.003429 0.00344153 0.00345407 0.0034666 0.00347923 0.00349186 0.00350449 0.00351712
0.00352975 0.00354247 0.0035552 0.00356793 0.00358066 0.00359339 0.00360622 0.00361905 0.00363187 0.0036447
0.00365753 0.00366654 0.00367555 0.00368457 0.00369358 0.00370258 0.0037065 0.00371042 0.00371434 0.00371826
0.00372218 0.00373521 0.00374824 0.00376127 0.0037743 0.00378733 0.00380046 0.00381359 0.00382672 0.00383986
0.00385299 0.00386622 0.00387946 0.0038927 0.00390593 0.00391917 0.00393251 0.00394585 0.00395918 0.00397252
0.00398586 0.00399931 0.00401275 0.00402619 0.00403964 0.00405308 0.00406663 0.00408018 0.00409372 0.00410727
0.00412082 0.00413447 0.00414813 0.00416178 0.00417543 0.00418909 0.00420285 0.00421661 0.00423037 0.00424412
0.00425788 0.00427175 0.00428561 0.00429948 0.00431334 0.00432721 0.00434118 0.00435515 0.00436912 0.00438309
0.00439706 0.00441114 0.00442522 0.0044393 0.00445337 0.00446745 0.00448163 0.00449582 0.00451 0.00452419
0.00453837 0.00455266 0.00456695 0.00458125 0.00459554 0.00460983 0.00462423 0.00463863 0.00465303 0.00466742
0.00468182 0.00469633 0.00471084 0.00472534 0.00473985 0.00475435 0.00476897 0.00478358 0.0047982 0.00481281
0.00482742 0.00484215 0.00485687 0.0048716 0.00488632 0.00490104 0.00491588 0.00493071 0.00494554 0.00496037
0.00497521 0.00499015 0.0050051 0.00502004 0.00503498 0.00504992 0.00506498 0.00508003 0.00509509 0.00511014
0.00512519 0.00514036 0.00515553 0.0051707 0.00518586 0.00520103 0.00521631 0.00523159 0.00524687 0.00526215
0.00527743 0.00529282 0.00530822 0.00532361 0.00533901 0.0053544 0.00536991 0.00538542 0.00540093 0.00541644
0.00543195 0.00544758 0.00546321 0.00547884 0.00549447 0.0055101 0.00552585 0.00554159 0.00555734 0.00557309
0.00558884 0.00560471 0.00562058 0.00563644 0.00565231 0.00566818 0.00568417 0.00570016 0.00571615 0.00573215
0.00574814 0.00576425 0.00578037 0.00579648 0.0058126 0.00582871 0.00584495 0.00586119 0.00587743 0.00589367
0.00590992 0.00591112 0.00591232 0.00591352 0.00591472 0.00591593 0.00593109 0.00594626 0.00596142 0.00597659
0.00599176 0.00600825 0.00602475 0.00604125 0.00605774 0.00607424 0.00609087 0.0061075 0.00612413 0.00614075
0.00615738 0.00617415 0.00619091 0.00620767 0.00622443 0.00624119 0.00625809 0.00627498 0.00629187 0.00630877
0.00632566 0.0063427 0.00635973 0.00637676 0.00639379 0.00641081 0.006428 0.00644517 0.00646233 0.00647949
0.00649667 0.00651399 0.0065313 0.00654861 0.00656591 0.00658322 0.0066007 0.00661815 0.00663559 0.00665304
0.0066705 0.00668812 0.00670572 0.00672331 0.00674089 0.0067585 0.00677628 0.00679403 0.00681176 0.00682949
0.00684725 0.00686518 0.00688308 0.00690096 0.00691884 0.00693676 0.00695485 0.00697291 0.00699094 0.00700898
0.00702705 0.0070453 0.00706352 0.00708171 0.00709991 0.00711814 0.00713656 0.00715494 0.00717329 0.00719165
0.00721005 0.00722863 0.00724718 0.0072657 0.00728423 0.00730279 0.00732155 0.00734027 0.00735896 0.00737767
0.00739641 0.00741534 0.00743423 0.00745311 0.00747199 0.00749091 0.00751002 0.00752909 0.00754816 0.00756723
0.00758633 0.00760562 0.00762488 0.00764414 0.00766341 0.00768269 0.00770217 0.00772162 0.00774108 0.00776054
0.00778002 0.0077997 0.00781935 0.00783901 0.00785868 0.00787836 0.00789823 0.00791809 0.00793796 0.00795784
0.00797774 0.00799781 0.00801788 0.00803797 0.00805807 0.00807818 0.00807832 0.00807847 0.00807862 0.00807877
0.00807891 0.00809904 0.00811919 0.00813935 0.00815952 0.0081797 0.00820022 0.00822074 0.00824127 0.00826181
0.00828237 0.00830313 0.00832388 0.00834464 0.00836542 0.00838621 0.00840722 0.00842821 0.00844921 0.00847022
0.00849126 0.00851252 0.00853375 0.008555 0.00857625 0.00859755 0.00861907 0.00864056 0.00866205 0.00868356
0.00870511 0.00872689 0.00874866 0.0087704 0.00879216 0.00881398 0.00883603 0.00885806 0.00888007 0.0089021
0.00892419 0.00894651 0.00896882 0.0089911 0.00901341 0.00903578 0.00905838 0.00908097 0.00910353 0.00912612
0.00914877 0.00917166 0.00919453 0.00921739 0.00924027 0.00926321 0.00928639 0.00930955 0.00933272 0.00935591
0.00937914 0.00940261 0.00942607 0.00944954 0.00947304 0.00949657 0.00952035 0.00954411 0.0095679 0.00959172
0.00961557 0.00963965 0.00966373 0.00968785 0.00971199 0.00973616 0.0097469 0.00975765 0.0097684 0.00977916
0.00978969 0.00980342 0.00981715 0.00983089 0.00984465 0.00985841 0.00988313 0.00990788 0.00993266 0.00995747