/*--------------------------------*- C++ -*----------------------------------*\
  =========                 |
  \\      /  F ield         | OpenFOAM: The Open Source CFD Toolbox
   \\    /   O peration     | Website:  https://openfoam.org
    \\  /    A nd           | Version:  13
     \\/     M anipulation  |
\*---------------------------------------------------------------------------*/
FoamFile
{
    format      ascii;
    class       volScalarField;
    location    "5.2";
    object      nut;
}
// * * * * * * * * * * * * * * * * * * * * * * * * * * * * * * * * * * * * * //

dimensions      [0 2 -1 0 0 0 0];

internalField   nonuniform List<scalar> 
6400
(
8.20704e-10
4.20842e-09
1.01594e-08
1.63954e-08
2.11737e-08
2.39263e-08
2.49954e-08
2.5168e-08
2.53438e-08
2.62771e-08
2.85275e-08
3.29258e-08
3.99354e-08
4.97342e-08
6.19119e-08
7.58519e-08
9.0904e-08
1.06739e-07
1.22743e-07
1.38379e-07
1.53945e-07
1.70612e-07
1.90053e-07
2.13651e-07
2.41023e-07
2.69677e-07
2.9804e-07
3.26168e-07
3.5475e-07
3.84507e-07
4.1535e-07
4.46058e-07
4.76289e-07
5.05723e-07
5.35272e-07
5.65104e-07
5.9591e-07
6.27941e-07
6.61634e-07
6.97182e-07
7.34817e-07
7.74811e-07
8.17417e-07
8.63092e-07
9.12082e-07
9.65534e-07
1.02575e-06
1.0977e-06
1.18343e-06
1.26454e-06
1.34882e-06
1.42949e-06
1.50744e-06
1.57887e-06
1.64198e-06
1.69351e-06
1.72635e-06
1.74162e-06
1.7462e-06
1.72403e-06
1.67381e-06
1.59704e-06
1.49444e-06
1.36834e-06
1.22358e-06
1.06527e-06
9.03029e-07
7.43276e-07
5.92268e-07
4.54357e-07
3.44047e-07
2.51161e-07
1.7565e-07
1.1755e-07
7.5562e-08
4.68402e-08
2.80625e-08
1.59831e-08
7.50121e-09
1.59254e-09
3.97982e-09
2.85592e-07
1.02658e-06
1.74526e-06
2.28557e-06
2.60896e-06
2.76081e-06
2.81647e-06
2.85209e-06
2.92394e-06
3.09881e-06
3.44062e-06
3.92694e-06
4.50437e-06
5.11648e-06
5.70224e-06
6.2189e-06
6.6237e-06
6.89548e-06
7.0399e-06
7.11364e-06
7.19019e-06
7.32976e-06
7.57431e-06
7.88931e-06
8.15119e-06
8.35944e-06
8.58405e-06
8.86813e-06
9.24814e-06
9.74841e-06
1.03013e-05
1.09079e-05
1.15308e-05
1.21892e-05
1.28703e-05
1.35822e-05
1.43212e-05
1.50914e-05
1.5893e-05
1.67212e-05
1.75768e-05
1.8456e-05
1.93836e-05
2.03427e-05
2.13092e-05
2.22446e-05
2.31149e-05
2.39205e-05
2.47936e-05
2.56553e-05
2.65276e-05
2.73809e-05
2.82027e-05
2.89681e-05
2.97029e-05
3.02672e-05
3.0553e-05
3.08479e-05
3.09162e-05
3.06857e-05
3.01316e-05
2.92654e-05
2.80461e-05
2.6489e-05
2.4615e-05
2.25453e-05
2.03033e-05
1.7913e-05
1.54365e-05
1.25914e-05
9.7946e-06
7.29956e-06
5.22825e-06
3.61883e-06
2.44347e-06
1.61837e-06
1.03268e-06
4.6262e-07
8.41284e-09
8.72209e-09
7.50185e-07
3.06285e-06
5.38241e-06
7.18046e-06
8.35801e-06
9.02401e-06
9.36315e-06
9.56309e-06
9.79685e-06
1.01914e-05
1.08252e-05
1.16793e-05
1.26644e-05
1.3664e-05
1.45603e-05
1.53045e-05
1.58699e-05
1.62504e-05
1.64556e-05
1.65024e-05
1.6459e-05
1.6411e-05
1.64036e-05
1.64662e-05
1.66722e-05
1.70001e-05
1.73061e-05
1.76367e-05
1.79814e-05
1.83994e-05
1.89491e-05
1.98367e-05
2.07688e-05
2.18262e-05
2.2949e-05
2.41517e-05
2.54007e-05
2.66838e-05
2.80465e-05
2.9429e-05
3.08162e-05
3.22218e-05
3.3565e-05
3.48508e-05
3.60883e-05
3.7303e-05
3.85059e-05
3.97151e-05
4.09359e-05
4.21469e-05
4.33458e-05
4.45147e-05
4.56374e-05
4.66897e-05
4.76418e-05
4.84403e-05
4.90722e-05
4.93776e-05
4.96251e-05
4.95479e-05
4.91671e-05
4.84539e-05
4.72774e-05
4.55756e-05
4.32762e-05
4.06156e-05
3.76061e-05
3.42447e-05
3.0586e-05
2.66435e-05
2.25462e-05
1.84914e-05
1.46868e-05
1.13163e-05
8.46319e-06
6.1773e-06
4.21794e-06
1.74214e-06
2.2365e-08
1.51507e-08
1.23637e-06
4.86044e-06
8.39756e-06
1.11587e-05
1.30652e-05
1.42529e-05
1.49289e-05
1.53339e-05
1.56879e-05
1.61781e-05
1.69241e-05
1.79102e-05
1.90049e-05
2.00489e-05
2.09335e-05
2.15924e-05
2.20149e-05
2.22227e-05
2.22657e-05
2.22009e-05
2.21244e-05
2.21083e-05
2.22059e-05
2.2268e-05
2.22799e-05
2.22134e-05
2.24653e-05
2.30749e-05
2.39309e-05
2.51287e-05
2.62959e-05
2.74861e-05
2.86987e-05
2.99842e-05
3.12649e-05
3.25317e-05
3.38459e-05
3.51596e-05
3.64175e-05
3.76604e-05
3.88673e-05
4.00459e-05
4.11792e-05
4.22747e-05
4.33185e-05
4.43674e-05
4.54114e-05
4.64551e-05
4.74933e-05
4.85179e-05
4.9521e-05
5.049e-05
5.14102e-05
5.22622e-05
5.30233e-05
5.36663e-05
5.41653e-05
5.4478e-05
5.45949e-05
5.44944e-05
5.41342e-05
5.3376e-05
5.25872e-05
5.14572e-05
4.96651e-05
4.74119e-05
4.4674e-05
4.15253e-05
3.80111e-05
3.41651e-05
3.0045e-05
2.5746e-05
2.14267e-05
1.72866e-05
1.35122e-05
1.02101e-05
7.10626e-06
2.91407e-06
3.68805e-08
2.42775e-08
1.86021e-06
6.79126e-06
1.13701e-05
1.4817e-05
1.71511e-05
1.85888e-05
1.93969e-05
1.98699e-05
2.03114e-05
2.09651e-05
2.19182e-05
2.30773e-05
2.42531e-05
2.52707e-05
2.6028e-05
2.64959e-05
2.67009e-05
2.66886e-05
2.65754e-05
2.63603e-05
2.62121e-05
2.60709e-05
2.55016e-05
2.53017e-05
2.56416e-05
2.65309e-05
2.75826e-05
2.87314e-05
2.99724e-05
3.12192e-05
3.24399e-05
3.36468e-05
3.48153e-05
3.59414e-05
3.69666e-05
3.79859e-05
3.89925e-05
3.98454e-05
4.06521e-05
4.13797e-05
4.20465e-05
4.26753e-05
4.32818e-05
4.38906e-05
4.45281e-05
4.5152e-05
4.57812e-05
4.64151e-05
4.70581e-05
4.77119e-05
4.83782e-05
4.90554e-05
4.97401e-05
5.04257e-05
5.11025e-05
5.17546e-05
5.23599e-05
5.28847e-05
5.32774e-05
5.34487e-05
5.34384e-05
5.30391e-05
5.20636e-05
5.11128e-05
5.01259e-05
4.8388e-05
4.61983e-05
4.35853e-05
4.05889e-05
3.72414e-05
3.35673e-05
2.95963e-05
2.54021e-05
2.11609e-05
1.70789e-05
1.32281e-05
9.24275e-06
3.71778e-06
4.66413e-08
3.72977e-08
2.70298e-06
9.07741e-06
1.46312e-05
1.85735e-05
2.10984e-05
2.25624e-05
2.33493e-05
2.38561e-05
2.444e-05
2.53066e-05
2.64433e-05
2.76759e-05
2.87917e-05
2.96349e-05
3.01391e-05
3.03148e-05
3.02633e-05
2.98792e-05
2.9546e-05
2.92313e-05
2.82836e-05
2.80299e-05
2.85725e-05
2.94648e-05
3.04722e-05
3.15886e-05
3.27163e-05
3.38227e-05
3.48778e-05
3.58264e-05
3.67522e-05
3.76022e-05
3.83257e-05
3.89745e-05
3.95198e-05
3.99861e-05
4.04366e-05
4.07874e-05
4.10911e-05
4.1361e-05
4.16112e-05
4.18356e-05
4.20428e-05
4.22392e-05
4.24269e-05
4.26053e-05
4.27859e-05
4.29755e-05
4.31839e-05
4.34218e-05
4.37023e-05
4.40375e-05
4.44387e-05
4.49128e-05
4.54539e-05
4.60612e-05
4.67354e-05
4.74429e-05
4.8139e-05
4.87817e-05
4.92939e-05
4.951e-05
4.94659e-05
4.86667e-05
4.80985e-05
4.69911e-05
4.53661e-05
4.32554e-05
4.07276e-05
3.78491e-05
3.46635e-05
3.11709e-05
2.73345e-05
2.32495e-05
1.90895e-05
1.49559e-05
1.0465e-05
4.08829e-06
4.99654e-08
5.53896e-08
3.80957e-06
1.17597e-05
1.81919e-05
2.24516e-05
2.49886e-05
2.63457e-05
2.70557e-05
2.76058e-05
2.83401e-05
2.93639e-05
3.05611e-05
3.17117e-05
3.2616e-05
3.31614e-05
3.33301e-05
3.30088e-05
3.25956e-05
3.22209e-05
3.11222e-05
3.07112e-05
3.09829e-05
3.18034e-05
3.25355e-05
3.3399e-05
3.42971e-05
3.51934e-05
3.6015e-05
3.67578e-05
3.7447e-05
3.8056e-05
3.85784e-05
3.90013e-05
3.9333e-05
3.95967e-05
3.9792e-05
3.9941e-05
4.00477e-05
4.01011e-05
4.01245e-05
4.01507e-05
4.01259e-05
4.00898e-05
4.003e-05
3.99568e-05
3.98646e-05
3.97588e-05
3.96397e-05
3.95168e-05
3.9393e-05
3.92782e-05
3.91862e-05
3.91401e-05
3.91721e-05
3.93323e-05
3.96227e-05
4.00293e-05
4.0633e-05
4.14111e-05
4.23026e-05
4.32693e-05
4.42542e-05
4.51989e-05
4.57915e-05
4.59997e-05
4.53035e-05
4.51216e-05
4.40681e-05
4.239e-05
4.01803e-05
3.75519e-05
3.46267e-05
3.14724e-05
2.80554e-05
2.42384e-05
2.01845e-05
1.58709e-05
1.07699e-05
4.07464e-06
4.84297e-08
7.96636e-08
5.20146e-06
1.47803e-05
2.19574e-05
2.63656e-05
2.87905e-05
2.99795e-05
3.06065e-05
3.11986e-05
3.20279e-05
3.30868e-05
3.41859e-05
3.50966e-05
3.56533e-05
3.58044e-05
3.53643e-05
3.49253e-05
3.40995e-05
3.32495e-05
3.30877e-05
3.35824e-05
3.39622e-05
3.45766e-05
3.51864e-05
3.59638e-05
3.66468e-05
3.72778e-05
3.78064e-05
3.82557e-05
3.86247e-05
3.89114e-05
3.91254e-05
3.9275e-05
3.93758e-05
3.944e-05
3.94722e-05
3.94799e-05
3.94638e-05
3.94272e-05
3.93702e-05
3.92873e-05
3.92295e-05
3.91232e-05
3.89854e-05
3.88479e-05
3.86867e-05
3.85153e-05
3.83301e-05
3.81258e-05
3.79045e-05
3.76629e-05
3.74017e-05
3.71162e-05
3.68019e-05
3.64502e-05
3.61443e-05
3.60205e-05
3.60966e-05
3.65515e-05
3.72875e-05
3.82488e-05
3.94617e-05
4.07149e-05
4.19844e-05
4.29545e-05
4.33524e-05
4.28481e-05
4.2939e-05
4.17863e-05
3.99132e-05
3.74264e-05
3.4516e-05
3.13833e-05
2.81373e-05
2.46485e-05
2.06869e-05
1.63134e-05
1.09172e-05
3.96659e-06
4.4994e-08
1.10964e-07
6.86953e-06
1.80577e-05
2.57829e-05
3.02239e-05
3.2465e-05
3.34646e-05
3.40054e-05
3.46001e-05
3.54236e-05
3.63746e-05
3.72289e-05
3.77785e-05
3.78556e-05
3.73875e-05
3.68994e-05
3.57396e-05
3.5213e-05
3.52177e-05
3.52664e-05
3.5504e-05
3.59629e-05
3.65084e-05
3.70424e-05
3.7588e-05
3.80153e-05
3.83799e-05
3.86553e-05
3.88729e-05
3.90341e-05
3.91536e-05
3.92432e-05
3.93127e-05
3.93694e-05
3.94156e-05
3.94524e-05
3.94797e-05
3.94946e-05
3.94948e-05
3.94621e-05
3.94357e-05
3.94137e-05
3.93102e-05
3.9229e-05
3.91162e-05
3.89888e-05
3.88389e-05
3.86692e-05
3.84769e-05
3.82597e-05
3.80116e-05
3.77314e-05
3.74113e-05
3.70435e-05
3.66183e-05
3.6125e-05
3.55736e-05
3.49612e-05
3.43151e-05
3.40316e-05
3.43682e-05
3.5338e-05
3.65312e-05
3.80701e-05
3.96351e-05
4.09127e-05
4.14059e-05
4.12411e-05
4.13229e-05
4.00229e-05
3.78409e-05
3.49524e-05
3.16391e-05
2.81721e-05
2.46877e-05
2.0884e-05
1.63778e-05
1.06776e-05
3.69219e-06
4.13942e-08
1.49687e-07
8.75346e-06
2.14407e-05
2.95826e-05
3.39658e-05
3.59817e-05
3.67798e-05
3.72094e-05
3.77337e-05
3.84329e-05
3.91452e-05
3.96459e-05
3.96251e-05
3.91578e-05
3.86547e-05
3.75341e-05
3.70276e-05
3.68186e-05
3.65357e-05
3.6714e-05
3.69949e-05
3.74011e-05
3.78016e-05
3.81631e-05
3.84766e-05
3.87043e-05
3.88934e-05
3.90379e-05
3.91673e-05
3.92845e-05
3.94026e-05
3.95238e-05
3.96493e-05
3.97763e-05
3.98999e-05
4.00121e-05
4.01142e-05
4.01919e-05
4.02345e-05
4.02705e-05
4.02813e-05
4.02566e-05
4.01984e-05
4.0125e-05
4.00195e-05
3.9894e-05
3.97449e-05
3.95772e-05
3.93918e-05
3.91915e-05
3.89755e-05
3.87313e-05
3.84508e-05
3.81179e-05
3.77158e-05
3.72283e-05
3.66354e-05
3.59207e-05
3.50884e-05
3.4199e-05
3.33138e-05
3.26224e-05
3.30887e-05
3.43032e-05
3.58825e-05
3.77034e-05
3.93377e-05
4.00382e-05
3.99422e-05
4.00443e-05
3.85125e-05
3.59367e-05
3.2582e-05
2.87749e-05
2.48762e-05
2.09435e-05
1.64027e-05
1.05751e-05
3.48368e-06
3.87866e-08
1.96249e-07
1.07119e-05
2.47885e-05
3.32736e-05
3.7544e-05
3.93104e-05
3.98875e-05
4.01568e-05
4.05192e-05
4.09799e-05
4.13482e-05
4.12503e-05
4.07172e-05
4.01575e-05
3.92123e-05
3.85666e-05
3.80634e-05
3.76926e-05
3.76067e-05
3.78018e-05
3.80333e-05
3.83176e-05
3.85597e-05
3.87674e-05
3.89388e-05
3.90816e-05
3.92278e-05
3.93792e-05
3.95521e-05
3.97425e-05
3.99512e-05
4.01699e-05
4.03911e-05
4.06037e-05
4.08263e-05
4.10021e-05
4.11097e-05
4.12475e-05
4.13493e-05
4.14041e-05
4.14293e-05
4.14187e-05
4.13769e-05
4.13061e-05
4.12044e-05
4.10764e-05
4.09216e-05
4.07427e-05
4.05401e-05
4.03147e-05
4.00661e-05
3.97936e-05
3.9497e-05
3.9175e-05
3.88253e-05
3.84431e-05
3.79666e-05
3.73517e-05
3.65579e-05
3.55918e-05
3.44858e-05
3.33249e-05
3.22404e-05
3.16212e-05
3.2559e-05
3.4066e-05
3.61012e-05
3.7995e-05
3.88595e-05
3.88049e-05
3.88631e-05
3.69998e-05
3.39937e-05
3.0092e-05
2.57426e-05
2.13171e-05
1.65302e-05
1.05945e-05
3.48949e-06
3.8697e-08
2.53545e-07
1.25149e-05
2.8001e-05
3.67935e-05
4.09207e-05
4.24178e-05
4.27418e-05
4.2785e-05
4.28902e-05
4.30117e-05
4.28138e-05
4.21813e-05
4.15727e-05
4.06963e-05
3.99481e-05
3.91153e-05
3.86642e-05
3.84003e-05
3.83964e-05
3.85346e-05
3.86806e-05
3.88491e-05
3.89894e-05
3.91313e-05
3.92802e-05
3.94539e-05
3.96651e-05
3.991e-05
4.01877e-05
4.04857e-05
4.07948e-05
4.1102e-05
4.14236e-05
4.17147e-05
4.19384e-05
4.21297e-05
4.23122e-05
4.24927e-05
4.25987e-05
4.26774e-05
4.27174e-05
4.27224e-05
4.26932e-05
4.26308e-05
4.25362e-05
4.24115e-05
4.22575e-05
4.2076e-05
4.18677e-05
4.16335e-05
4.13732e-05
4.10856e-05
4.07685e-05
4.04181e-05
4.00299e-05
3.95993e-05
3.91233e-05
3.85994e-05
3.79912e-05
3.71851e-05
3.61284e-05
3.48968e-05
3.35125e-05
3.21265e-05
3.09696e-05
3.11388e-05
3.26341e-05
3.47374e-05
3.67863e-05
3.77311e-05
3.76932e-05
3.75553e-05
3.53272e-05
3.17656e-05
2.72901e-05
2.23561e-05
1.7173e-05
1.09807e-05
3.70205e-06
4.10966e-08
3.17798e-07
1.43101e-05
3.10679e-05
4.01082e-05
4.40658e-05
4.52716e-05
4.52992e-05
4.5043e-05
4.47996e-05
4.44339e-05
4.36656e-05
4.302e-05
4.21129e-05
4.12834e-05
4.02025e-05
3.95016e-05
3.9114e-05
3.89205e-05
3.89187e-05
3.89854e-05
3.90685e-05
3.91827e-05
3.93116e-05
3.94859e-05
3.97065e-05
3.99813e-05
4.03041e-05
4.06627e-05
4.10449e-05
4.14351e-05
4.1825e-05
4.22129e-05
4.25685e-05
4.2876e-05
4.31439e-05
4.33962e-05
4.35971e-05
4.37766e-05
4.3929e-05
4.40275e-05
4.40918e-05
4.41168e-05
4.41061e-05
4.40587e-05
4.39758e-05
4.38586e-05
4.3708e-05
4.35258e-05
4.33133e-05
4.3072e-05
4.28027e-05
4.25053e-05
4.21781e-05
4.1817e-05
4.14154e-05
4.09642e-05
4.04533e-05
3.98745e-05
3.92261e-05
3.85149e-05
3.76671e-05
3.65758e-05
3.52116e-05
3.36762e-05
3.21075e-05
3.07402e-05
3.00817e-05
3.14844e-05
3.35691e-05
3.56625e-05
3.6589e-05
3.64581e-05
3.60439e-05
3.32338e-05
2.90774e-05
2.40014e-05
1.83998e-05
1.19928e-05
4.26858e-06
4.91165e-08
3.87105e-07
1.60611e-05
3.3946e-05
4.3185e-05
4.6954e-05
4.7846e-05
4.75312e-05
4.69057e-05
4.62364e-05
4.52842e-05
4.45982e-05
4.3532e-05
4.25989e-05
4.13338e-05
4.03653e-05
3.97662e-05
3.94279e-05
3.92656e-05
3.92417e-05
3.92715e-05
3.935e-05
3.9489e-05
3.96864e-05
3.9958e-05
4.02934e-05
4.0686e-05
4.11184e-05
4.15743e-05
4.20384e-05
4.24971e-05
4.29409e-05
4.33602e-05
4.37433e-05
4.40909e-05
4.44076e-05
4.46958e-05
4.49552e-05
4.51524e-05
4.53037e-05
4.54607e-05
4.55665e-05
4.56206e-05
4.56375e-05
4.56123e-05
4.55454e-05
4.54371e-05
4.5288e-05
4.50997e-05
4.48742e-05
4.46141e-05
4.43224e-05
4.40014e-05
4.36529e-05
4.3276e-05
4.28666e-05
4.24159e-05
4.19095e-05
4.13287e-05
4.06531e-05
3.98693e-05
3.89836e-05
3.79657e-05
3.6777e-05
3.53495e-05
3.36934e-05
3.20292e-05
3.04177e-05
2.92747e-05
3.05167e-05
3.25864e-05
3.4598e-05
3.53755e-05
3.50341e-05
3.40498e-05
3.05725e-05
2.5788e-05
2.00485e-05
1.3351e-05
5.20472e-06
6.61812e-08
4.59234e-07
1.77284e-05
3.65953e-05
4.59987e-05
4.95689e-05
5.01318e-05
4.94424e-05
4.84168e-05
4.72021e-05
4.64213e-05
4.50452e-05
4.39642e-05
4.25396e-05
4.13184e-05
4.04588e-05
3.99333e-05
3.96299e-05
3.94866e-05
3.94621e-05
3.95125e-05
3.9649e-05
3.98742e-05
4.01833e-05
4.05732e-05
4.10236e-05
4.15189e-05
4.20384e-05
4.25662e-05
4.30886e-05
4.35955e-05
4.40796e-05
4.45356e-05
4.49606e-05
4.53562e-05
4.57224e-05
4.6057e-05
4.63563e-05
4.66362e-05
4.68577e-05
4.69891e-05
4.71846e-05
4.72864e-05
4.73388e-05
4.73455e-05
4.72996e-05
4.72027e-05
4.70535e-05
4.68534e-05
4.66044e-05
4.631e-05
4.59748e-05
4.56043e-05
4.52043e-05
4.47798e-05
4.43332e-05
4.38626e-05
4.33589e-05
4.28041e-05
4.21702e-05
4.14214e-05
4.05229e-05
3.94699e-05
3.82749e-05
3.6741e-05
3.51882e-05
3.35826e-05
3.18071e-05
2.99577e-05
2.85264e-05
2.96277e-05
3.17187e-05
3.3506e-05
3.3976e-05
3.35225e-05
3.14228e-05
2.72606e-05
2.17175e-05
1.49022e-05
6.19973e-06
9.05851e-08
5.31873e-07
1.92783e-05
3.89889e-05
4.85367e-05
5.19033e-05
5.21348e-05
5.1041e-05
4.94887e-05
4.84924e-05
4.67992e-05
4.54637e-05
4.38736e-05
4.2409e-05
4.12659e-05
4.04997e-05
4.00296e-05
3.9762e-05
3.96536e-05
3.96714e-05
3.97958e-05
4.00331e-05
4.03726e-05
4.08008e-05
4.13001e-05
4.18466e-05
4.24218e-05
4.30071e-05
4.35899e-05
4.41603e-05
4.47124e-05
4.52425e-05
4.57488e-05
4.62308e-05
4.66884e-05
4.71199e-05
4.75226e-05
4.78934e-05
4.82333e-05
4.85568e-05
4.87521e-05
4.89563e-05
4.91635e-05
4.92515e-05
4.93013e-05
4.9283e-05
4.92025e-05
4.90559e-05
4.88436e-05
4.85668e-05
4.82288e-05
4.78349e-05
4.73922e-05
4.69099e-05
4.63981e-05
4.58669e-05
4.53238e-05
4.47711e-05
4.42021e-05
4.35972e-05
4.29205e-05
4.21195e-05
4.11315e-05
3.99656e-05
3.8665e-05
3.6696e-05
3.48997e-05
3.33251e-05
3.14359e-05
2.93683e-05
2.77689e-05
2.87897e-05
3.09915e-05
3.23176e-05
3.23138e-05
3.16004e-05
2.81911e-05
2.30961e-05
1.64053e-05
7.17719e-06
1.20617e-07
6.03076e-07
2.0673e-05
4.11182e-05
5.08202e-05
5.39509e-05
5.37161e-05
5.22e-05
5.07839e-05
4.89035e-05
4.71998e-05
4.54064e-05
4.3692e-05
4.22488e-05
4.11942e-05
4.05062e-05
4.0089e-05
3.98742e-05
3.98304e-05
3.99309e-05
4.01621e-05
4.0516e-05
4.09707e-05
4.15047e-05
4.20943e-05
4.27167e-05
4.33549e-05
4.39949e-05
4.46283e-05
4.52498e-05
4.58567e-05
4.64479e-05
4.70229e-05
4.75806e-05
4.81192e-05
4.86354e-05
4.91254e-05
4.95845e-05
5.00097e-05
5.04268e-05
5.06989e-05
5.09366e-05
5.12491e-05
5.13841e-05
5.1483e-05
5.15e-05
5.14428e-05
5.13055e-05
5.1087e-05
5.07872e-05
5.04077e-05
4.9953e-05
4.94301e-05
4.88492e-05
4.82235e-05
4.75685e-05
4.69004e-05
4.62335e-05
4.55764e-05
4.49268e-05
4.42657e-05
4.35518e-05
4.27171e-05
4.16693e-05
4.04072e-05
3.87999e-05
3.65769e-05
3.44905e-05
3.29115e-05
3.08782e-05
2.85738e-05
2.69821e-05
2.8024e-05
3.01722e-05
3.12866e-05
3.04201e-05
2.8502e-05
2.40594e-05
1.76738e-05
8.02165e-06
1.54422e-07
6.72059e-07
2.19014e-05
4.29962e-05
5.27618e-05
5.55183e-05
5.4989e-05
5.3661e-05
5.15887e-05
4.92527e-05
4.72267e-05
4.52348e-05
4.34701e-05
4.20836e-05
4.11165e-05
4.05005e-05
4.01477e-05
4.00097e-05
4.00582e-05
4.02659e-05
4.06136e-05
4.108e-05
4.16366e-05
4.22582e-05
4.29211e-05
4.36061e-05
4.43002e-05
4.49947e-05
4.56854e-05
4.63703e-05
4.70487e-05
4.772e-05
4.83827e-05
4.90342e-05
4.96704e-05
5.0286e-05
5.08752e-05
5.14314e-05
5.1956e-05
5.24636e-05
5.2807e-05
5.31056e-05
5.3506e-05
5.37e-05
5.38494e-05
5.39078e-05
5.38809e-05
5.37619e-05
5.35479e-05
5.32369e-05
5.28284e-05
5.23246e-05
5.17305e-05
5.10551e-05
5.03113e-05
4.9517e-05
4.86933e-05
4.78637e-05
4.70506e-05
4.62699e-05
4.55252e-05
4.47993e-05
4.40462e-05
4.3183e-05
4.20854e-05
4.07267e-05
3.87233e-05
3.62973e-05
3.39701e-05
3.23102e-05
3.01205e-05
2.75749e-05
2.62606e-05
2.73344e-05
2.89376e-05
2.94326e-05
2.83543e-05
2.45948e-05
1.86233e-05
8.67912e-06
1.90508e-07
7.36169e-07
2.29598e-05
4.45186e-05
5.42491e-05
5.67098e-05
5.64241e-05
5.44811e-05
5.19007e-05
4.95222e-05
4.71229e-05
4.50029e-05
4.32402e-05
4.19283e-05
4.1046e-05
4.05056e-05
4.0235e-05
4.01948e-05
4.03517e-05
4.06733e-05
4.11318e-05
4.16974e-05
4.23399e-05
4.30343e-05
4.37602e-05
4.45036e-05
4.52561e-05
4.60137e-05
4.67752e-05
4.75401e-05
4.83079e-05
4.90766e-05
4.98425e-05
5.06003e-05
5.13436e-05
5.20648e-05
5.27561e-05
5.34095e-05
5.40347e-05
5.4626e-05
5.50333e-05
5.54062e-05
5.58715e-05
5.61303e-05
5.63283e-05
5.64308e-05
5.64393e-05
5.6347e-05
5.61494e-05
5.58426e-05
5.54236e-05
5.48916e-05
5.42483e-05
5.34994e-05
5.26552e-05
5.17317e-05
5.07512e-05
4.97415e-05
4.87343e-05
4.77609e-05
4.68459e-05
4.59991e-05
4.52057e-05
4.44163e-05
4.35372e-05
4.242e-05
4.08283e-05
3.8445e-05
3.58703e-05
3.3383e-05
3.15658e-05
2.90861e-05
2.62389e-05
2.56024e-05
2.69019e-05
2.78669e-05
2.71404e-05
2.46722e-05
1.92018e-05
9.15808e-06
2.27577e-07
7.92921e-07
2.38161e-05
4.56812e-05
5.53725e-05
5.7884e-05
5.74896e-05
5.52301e-05
5.22991e-05
4.95134e-05
4.6936e-05
4.47472e-05
4.30212e-05
4.1792e-05
4.09949e-05
4.05401e-05
4.03679e-05
4.04372e-05
4.07062e-05
4.11361e-05
4.1693e-05
4.23436e-05
4.30593e-05
4.38182e-05
4.46046e-05
4.54097e-05
4.62299e-05
4.70639e-05
4.79119e-05
4.87731e-05
4.96449e-05
5.05227e-05
5.13999e-05
5.22685e-05
5.31194e-05
5.39433e-05
5.4731e-05
5.54739e-05
5.619e-05
5.68549e-05
5.73155e-05
5.77547e-05
5.82763e-05
5.85931e-05
5.88359e-05
5.89814e-05
5.90275e-05
5.89679e-05
5.8797e-05
5.85091e-05
5.80991e-05
5.7563e-05
5.68989e-05
5.61078e-05
5.51952e-05
5.41728e-05
5.30595e-05
5.18827e-05
5.06775e-05
4.94848e-05
4.83458e-05
4.72938e-05
4.63435e-05
4.54785e-05
4.46407e-05
4.3722e-05
4.25604e-05
4.06687e-05
3.79521e-05
3.52802e-05
3.26252e-05
3.06145e-05
2.76753e-05
2.48703e-05
2.48206e-05
2.58669e-05
2.62422e-05
2.4488e-05
1.94518e-05
9.41049e-06
2.66728e-07
8.40763e-07
2.4467e-05
4.65081e-05
5.62329e-05
5.8819e-05
5.82076e-05
5.55226e-05
5.24649e-05
4.94118e-05
4.67034e-05
4.4491e-05
4.28236e-05
4.16811e-05
4.0973e-05
4.06147e-05
4.05505e-05
4.07312e-05
4.11069e-05
4.16344e-05
4.22768e-05
4.30015e-05
4.37832e-05
4.46044e-05
4.5455e-05
4.63309e-05
4.7231e-05
4.81557e-05
4.9104e-05
5.0073e-05
5.10571e-05
5.20483e-05
5.30368e-05
5.4012e-05
5.4963e-05
5.58792e-05
5.67512e-05
5.75702e-05
5.83595e-05
5.90851e-05
5.95916e-05
6.00809e-05
6.06469e-05
6.10128e-05
6.12942e-05
6.14782e-05
6.1561e-05
6.15368e-05
6.13993e-05
6.11418e-05
6.07576e-05
6.024e-05
5.95833e-05
5.87838e-05
5.78414e-05
5.67612e-05
5.55561e-05
5.42481e-05
5.28703e-05
5.14667e-05
5.00888e-05
4.87897e-05
4.76119e-05
4.65735e-05
4.56513e-05
4.47643e-05
4.37593e-05
4.23958e-05
4.00764e-05
3.72876e-05
3.45507e-05
3.16755e-05
2.92635e-05
2.58953e-05
2.38925e-05
2.41721e-05
2.47224e-05
2.35585e-05
1.9398e-05
9.53126e-06
3.07057e-07
8.79014e-07
2.49259e-05
4.70493e-05
5.68499e-05
5.95059e-05
5.87786e-05
5.59165e-05
5.25036e-05
4.92481e-05
4.64514e-05
4.42484e-05
4.26526e-05
4.15996e-05
4.09858e-05
4.07315e-05
4.07774e-05
4.10645e-05
4.15374e-05
4.21513e-05
4.28691e-05
4.36612e-05
4.45068e-05
4.53936e-05
4.63162e-05
4.72736e-05
4.82661e-05
4.92927e-05
5.03504e-05
5.14325e-05
5.25299e-05
5.3631e-05
5.47235e-05
5.57948e-05
5.68328e-05
5.78267e-05
5.87671e-05
5.9646e-05
6.04872e-05
6.12601e-05
6.18085e-05
6.2328e-05
6.29233e-05
6.33296e-05
6.36412e-05
6.38571e-05
6.39728e-05
6.39829e-05
6.38816e-05
6.36616e-05
6.33151e-05
6.28334e-05
6.2208e-05
6.14308e-05
6.04961e-05
5.9402e-05
5.81531e-05
5.67631e-05
5.5258e-05
5.36779e-05
5.2077e-05
5.05197e-05
4.9072e-05
4.77871e-05
4.66879e-05
4.57486e-05
4.48803e-05
4.39155e-05
4.202e-05
3.92137e-05
3.64645e-05
3.35908e-05
3.04684e-05
2.74517e-05
2.38296e-05
2.28983e-05
2.29175e-05
2.26802e-05
1.93085e-05
9.73851e-06
3.54499e-07
9.07374e-07
2.51924e-05
4.73655e-05
5.72055e-05
6.00159e-05
5.90208e-05
5.60666e-05
5.24547e-05
4.90466e-05
4.61975e-05
4.40269e-05
4.25103e-05
4.15492e-05
4.10343e-05
4.08866e-05
4.10387e-05
4.14237e-05
4.19839e-05
4.26749e-05
4.34616e-05
4.43186e-05
4.52301e-05
4.61887e-05
4.71924e-05
4.82416e-05
4.93356e-05
5.04711e-05
5.1641e-05
5.2835e-05
5.40401e-05
5.52419e-05
5.64261e-05
5.75789e-05
5.86881e-05
5.97432e-05
6.07357e-05
6.16584e-05
6.25298e-05
6.33374e-05
6.39264e-05
6.44565e-05
6.50643e-05
6.55025e-05
6.58355e-05
6.60752e-05
6.62176e-05
6.62582e-05
6.61917e-05
6.60112e-05
6.57086e-05
6.52742e-05
6.46973e-05
6.39665e-05
6.30712e-05
6.20028e-05
6.07574e-05
5.93388e-05
5.77624e-05
5.6059e-05
5.42776e-05
5.24847e-05
5.07591e-05
4.91791e-05
4.78028e-05
4.66444e-05
4.5654e-05
4.47026e-05
4.35715e-05
4.12044e-05
3.81807e-05
3.53226e-05
3.21976e-05
2.89001e-05
2.51475e-05
2.23591e-05
2.19381e-05
2.1983e-05
1.92113e-05
1.02042e-05
4.17618e-07
9.26299e-07
2.52969e-05
4.74366e-05
5.72771e-05
6.01987e-05
5.93026e-05
5.61256e-05
5.23459e-05
4.88259e-05
4.59529e-05
4.38301e-05
4.23968e-05
4.15295e-05
4.11156e-05
4.10724e-05
4.13237e-05
4.17975e-05
4.24364e-05
4.31978e-05
4.40501e-05
4.49725e-05
4.59544e-05
4.69919e-05
4.8085e-05
4.92334e-05
5.04339e-05
5.16795e-05
5.2959e-05
5.4258e-05
5.55606e-05
5.68502e-05
5.81113e-05
5.933e-05
6.04945e-05
6.15951e-05
6.26245e-05
6.35769e-05
6.44594e-05
6.52903e-05
6.59199e-05
6.64438e-05
6.70475e-05
6.75094e-05
6.78552e-05
6.81101e-05
6.82715e-05
6.83363e-05
6.83001e-05
6.8157e-05
6.78991e-05
6.75167e-05
6.69979e-05
6.63294e-05
6.54967e-05
6.44856e-05
6.32845e-05
6.1887e-05
6.02965e-05
5.85309e-05
5.6628e-05
5.46484e-05
5.26751e-05
5.08051e-05
4.91312e-05
4.77171e-05
4.65684e-05
4.56109e-05
4.46787e-05
4.29238e-05
4.00035e-05
3.72027e-05
3.38422e-05
3.03074e-05
2.67074e-05
2.24574e-05
2.09074e-05
2.02761e-05
1.87958e-05
1.08837e-05
5.00379e-07
9.35887e-07
2.52371e-05
4.7255e-05
5.72201e-05
6.03364e-05
5.93595e-05
5.60946e-05
5.21958e-05
4.85993e-05
4.57245e-05
4.36592e-05
4.2311e-05
4.15381e-05
4.12243e-05
4.12807e-05
4.16231e-05
4.21774e-05
4.28883e-05
4.37159e-05
4.46329e-05
4.56233e-05
4.66806e-05
4.78034e-05
4.89915e-05
5.02426e-05
5.15499e-05
5.2902e-05
5.42837e-05
5.56774e-05
5.70645e-05
5.84276e-05
5.97508e-05
6.10204e-05
6.22257e-05
6.3358e-05
6.44113e-05
6.53812e-05
6.62653e-05
6.71059e-05
6.77767e-05
6.8282e-05
6.88663e-05
6.93441e-05
6.96949e-05
6.99564e-05
7.01287e-05
7.02099e-05
7.01972e-05
7.00857e-05
6.98688e-05
6.95373e-05
6.90795e-05
6.84808e-05
6.77247e-05
6.67927e-05
6.56669e-05
6.43317e-05
6.27784e-05
6.10106e-05
5.90505e-05
5.69454e-05
5.47714e-05
5.2631e-05
5.06393e-05
4.88989e-05
4.74657e-05
4.63171e-05
4.53336e-05
4.4296e-05
4.18592e-05
3.86773e-05
3.57588e-05
3.19961e-05
2.80049e-05
2.37031e-05
2.07744e-05
1.93038e-05
1.83879e-05
1.14757e-05
5.99438e-07
9.35496e-07
2.50784e-05
4.70071e-05
5.70223e-05
6.03647e-05
5.93174e-05
5.59955e-05
5.20193e-05
4.83765e-05
4.55163e-05
4.35139e-05
4.22509e-05
4.15717e-05
4.13549e-05
4.15041e-05
4.19297e-05
4.25577e-05
4.33356e-05
4.42271e-05
4.52093e-05
4.62707e-05
4.74077e-05
4.86199e-05
4.99054e-05
5.12587e-05
5.26689e-05
5.41202e-05
5.55939e-05
5.70698e-05
5.85282e-05
5.99509e-05
6.13224e-05
6.26302e-05
6.38643e-05
6.50174e-05
6.60844e-05
6.70616e-05
6.79467e-05
6.87813e-05
6.94928e-05
6.99747e-05
7.05262e-05
7.10123e-05
7.13613e-05
7.16218e-05
7.17967e-05
7.1886e-05
7.18883e-05
7.18006e-05
7.16176e-05
7.13314e-05
7.09313e-05
7.04029e-05
6.97287e-05
6.88878e-05
6.78574e-05
6.66148e-05
6.51404e-05
6.34236e-05
6.14693e-05
5.9307e-05
5.69981e-05
5.46403e-05
5.23608e-05
5.02953e-05
4.85519e-05
4.71683e-05
4.60795e-05
4.51148e-05
4.3314e-05
4.01935e-05
3.74987e-05
3.36062e-05
2.95316e-05
2.51682e-05
2.07078e-05
1.88892e-05
1.80088e-05
1.21091e-05
7.1229e-07
9.30543e-07
2.48222e-05
4.66152e-05
5.66398e-05
6.0174e-05
5.91736e-05
5.58424e-05
5.18275e-05
4.81641e-05
4.53302e-05
4.33932e-05
4.22144e-05
4.16264e-05
4.15018e-05
4.17367e-05
4.22384e-05
4.29346e-05
4.37759e-05
4.473e-05
4.57784e-05
4.69133e-05
4.81327e-05
4.94355e-05
5.08175e-05
5.2269e-05
5.37748e-05
5.53156e-05
5.68697e-05
5.84154e-05
5.99322e-05
6.14023e-05
6.28111e-05
6.4147e-05
6.54013e-05
6.65677e-05
6.76422e-05
6.86221e-05
6.95061e-05
7.03211e-05
7.10615e-05
7.15353e-05
7.20404e-05
7.25274e-05
7.28693e-05
7.31219e-05
7.32918e-05
7.33809e-05
7.33895e-05
7.33162e-05
7.31578e-05
7.29082e-05
7.25583e-05
7.20948e-05
7.15005e-05
7.07537e-05
6.98288e-05
6.86977e-05
6.73322e-05
6.57086e-05
6.38151e-05
6.16605e-05
5.92856e-05
5.67723e-05
5.42456e-05
5.18603e-05
4.9768e-05
4.80669e-05
4.67496e-05
4.56725e-05
4.45618e-05
4.18694e-05
3.88953e-05
3.56521e-05
3.09865e-05
2.6394e-05
2.13299e-05
1.83942e-05
1.68663e-05
1.27165e-05
8.22078e-07
9.19428e-07
2.45142e-05
4.59627e-05
5.61258e-05
5.98582e-05
5.8944e-05
5.56468e-05
5.16288e-05
4.79665e-05
4.51673e-05
4.3296e-05
4.21989e-05
4.16986e-05
4.16604e-05
4.19742e-05
4.25458e-05
4.33056e-05
4.42074e-05
4.52233e-05
4.63386e-05
4.7548e-05
4.88502e-05
5.02422e-05
5.17165e-05
5.32594e-05
5.48518e-05
5.64713e-05
5.80942e-05
5.9698e-05
6.12622e-05
6.27699e-05
6.42074e-05
6.55642e-05
6.68328e-05
6.80082e-05
6.90871e-05
7.00681e-05
7.09514e-05
7.17399e-05
7.24799e-05
7.2975e-05
7.34252e-05
7.39065e-05
7.42371e-05
7.44766e-05
7.4635e-05
7.47162e-05
7.47223e-05
7.46539e-05
7.45098e-05
7.42861e-05
7.39759e-05
7.35678e-05
7.30459e-05
7.23892e-05
7.1571e-05
7.05598e-05
6.93213e-05
6.78213e-05
6.60325e-05
6.39433e-05
6.15709e-05
5.8974e-05
5.62637e-05
5.36e-05
5.11678e-05
4.91265e-05
4.75464e-05
4.63593e-05
4.53514e-05
4.32278e-05
4.00669e-05
3.73921e-05
3.25448e-05
2.78044e-05
2.27191e-05
1.86603e-05
1.59209e-05
1.31492e-05
9.03248e-07
9.02246e-07
2.41267e-05
4.52487e-05
5.55088e-05
5.94319e-05
5.8642e-05
5.54185e-05
5.14294e-05
4.77869e-05
4.50279e-05
4.3221e-05
4.22021e-05
4.17849e-05
4.18269e-05
4.22131e-05
4.28493e-05
4.36686e-05
4.46286e-05
4.57052e-05
4.68869e-05
4.81703e-05
4.95533e-05
5.10305e-05
5.25908e-05
5.42165e-05
5.58854e-05
5.75727e-05
5.92537e-05
6.09054e-05
6.25082e-05
6.40458e-05
6.55059e-05
6.6879e-05
6.81587e-05
6.93406e-05
7.0422e-05
7.14018e-05
7.22798e-05
7.30561e-05
7.37798e-05
7.43014e-05
7.46975e-05
7.51673e-05
7.54837e-05
7.5706e-05
7.58477e-05
7.59144e-05
7.59101e-05
7.58373e-05
7.56972e-05
7.54882e-05
7.52057e-05
7.4841e-05
7.43805e-05
7.38045e-05
7.30872e-05
7.21957e-05
7.10917e-05
6.97336e-05
6.8081e-05
6.61037e-05
6.37942e-05
6.11838e-05
5.8359e-05
5.54698e-05
5.27169e-05
5.03074e-05
4.83819e-05
4.69384e-05
4.57921e-05
4.43055e-05
4.11707e-05
3.88263e-05
3.45682e-05
2.90755e-05
2.39399e-05
1.8953e-05
1.55065e-05
1.33076e-05
9.3765e-07
8.79827e-07
2.36338e-05
4.44188e-05
5.48113e-05
5.8906e-05
5.82782e-05
5.5165e-05
5.1234e-05
4.76271e-05
4.4912e-05
4.31669e-05
4.22219e-05
4.18824e-05
4.19984e-05
4.2451e-05
4.31467e-05
4.40219e-05
4.50376e-05
4.61731e-05
4.74197e-05
4.87745e-05
5.02342e-05
5.17905e-05
5.34287e-05
5.51279e-05
5.68631e-05
5.86081e-05
6.03376e-05
6.20289e-05
6.36633e-05
6.52256e-05
6.67044e-05
6.80913e-05
6.93806e-05
7.05684e-05
7.16524e-05
7.26314e-05
7.35049e-05
7.42731e-05
7.49752e-05
7.55238e-05
7.58741e-05
7.63252e-05
7.66256e-05
7.68283e-05
7.69493e-05
7.69962e-05
7.69748e-05
7.68895e-05
7.67437e-05
7.65383e-05
7.62714e-05
7.59372e-05
7.55248e-05
7.50172e-05
7.439e-05
7.36113e-05
7.26409e-05
7.14322e-05
6.99352e-05
6.81039e-05
6.59077e-05
6.33485e-05
6.04821e-05
5.74356e-05
5.441e-05
5.16485e-05
4.93656e-05
4.76536e-05
4.64098e-05
4.53194e-05
4.25461e-05
3.98712e-05
3.64789e-05
3.02458e-05
2.48226e-05
1.90703e-05
1.56788e-05
1.32989e-05
9.427e-07
8.53337e-07
2.31002e-05
4.35008e-05
5.40324e-05
5.82994e-05
5.78626e-05
5.48924e-05
5.10458e-05
4.74884e-05
4.48195e-05
4.31324e-05
4.22563e-05
4.19887e-05
4.21724e-05
4.26856e-05
4.34363e-05
4.43636e-05
4.5432e-05
4.66238e-05
4.79322e-05
4.93542e-05
5.08847e-05
5.25127e-05
5.42199e-05
5.59829e-05
5.77747e-05
5.95682e-05
6.13381e-05
6.30625e-05
6.47234e-05
6.63068e-05
6.78021e-05
6.92019e-05
7.05008e-05
7.16953e-05
7.27832e-05
7.37633e-05
7.46353e-05
7.53997e-05
7.60761e-05
7.66385e-05
7.69768e-05
7.73903e-05
7.76757e-05
7.78577e-05
7.79554e-05
7.79786e-05
7.79347e-05
7.78301e-05
7.76702e-05
7.74585e-05
7.71958e-05
7.68793e-05
7.65014e-05
7.6048e-05
7.54977e-05
7.48203e-05
7.3976e-05
7.29158e-05
7.15831e-05
6.99196e-05
6.78745e-05
6.54215e-05
6.25817e-05
5.94495e-05
5.62085e-05
5.31174e-05