/*--------------------------------*- C++ -*----------------------------------*\
  =========                 |
  \\      /  F ield         | OpenFOAM: The Open Source CFD Toolbox
   \\    /   O peration     | Website:  https://openfoam.org
    \\  /    A nd           | Version:  13
     \\/     M anipulation  |
\*---------------------------------------------------------------------------*/
FoamFile
{
    format      ascii;
    class       volScalarField;
    location    "5.2";
    object      p;
}
// * * * * * * * * * * * * * * * * * * * * * * * * * * * * * * * * * * * * * //

dimensions      [0 2 -2 0 0 0 0];

internalField   nonuniform List<scalar> 
6400
(
-2.13565e-08
1.80833e-05
2.61436e-05
1.22762e-05
-2.8485e-05
-9.17677e-05
-0.000168789
-0.00025122
-0.000333144
-0.000411697
-0.000487344
-0.000563703
-0.000645161
-0.000736553
-0.000842606
-0.000967158
-0.0011131
-0.00128227
-0.00147591
-0.00169486
-0.00193968
-0.00221119
-0.00251176
-0.00284533
-0.0032177
-0.00363378
-0.0040913
-0.00458225
-0.00509016
-0.00558321
-0.0060496
-0.00649321
-0.00691336
-0.00730712
-0.00767009
-0.00799519
-0.00827279
-0.00849142
-0.00863861
-0.0087018
-0.00866869
-0.00852804
-0.00827057
-0.00789035
-0.00738511
-0.00675344
-0.00598594
-0.00507991
-0.00405656
-0.0029308
-0.00171268
-0.000423852
0.000912032
0.00226435
0.00359796
0.00486944
0.00603441
0.00705133
0.00787923
0.00848284
0.00883877
0.00893824
0.00878817
0.0084103
0.007846
0.00715242
0.00639219
0.00562791
0.00491865
0.0042983
0.00380193
0.00345191
0.00322062
0.00308055
0.00301575
0.00300215
0.00301984
0.00305305
0.00309063
0.00311736
-1.37527e-05
4.74564e-06
8.79076e-06
-9.53438e-06
-5.2906e-05
-0.000116211
-0.000189852
-0.00026592
-0.000339768
-0.00041009
-0.000478387
-0.000548257
-0.000624323
-0.000710866
-0.000811491
-0.000929475
-0.00106808
-0.00122986
-0.00141573
-0.00162616
-0.00186053
-0.00211862
-0.00240273
-0.00271577
-0.00306041
-0.00344221
-0.00386893
-0.00434136
-0.00484929
-0.00537254
-0.00588413
-0.00636997
-0.00682941
-0.00726006
-0.00765689
-0.00801264
-0.00831767
-0.00856095
-0.00873063
-0.00881505
-0.00880304
-0.00868443
-0.00845094
-0.00809637
-0.0076165
-0.00700814
-0.00627058
-0.00540924
-0.00443277
-0.00334566
-0.00216878
-0.000920227
0.000374393
0.00168548
0.00297744
0.00421188
0.00534809
0.00634394
0.00716131
0.00776734
0.00813807
0.00826433
0.00815233
0.00782474
0.00732015
0.00668613
0.00599041
0.00528791
0.00463406
0.00407279
0.00363157
0.00331726
0.00312264
0.00302468
0.00299936
0.00302234
0.00306193
0.00309914
0.00313102
0.00315671
-2.82976e-05
-7.61832e-06
-8.49612e-06
-3.49588e-05
-8.56041e-05
-0.000151478
-0.00022205
-0.000289578
-0.000351175
-0.00040831
-0.000464154
-0.00052316
-0.000590076
-0.000668533
-0.000760867
-0.000868773
-0.000993753
-0.00113796
-0.00130365
-0.0014933
-0.00171012
-0.00195735
-0.00223867
-0.00255857
-0.00292135
-0.00332937
-0.00378348
-0.00428132
-0.00481441
-0.00536755
-0.00592187
-0.00646092
-0.00697388
-0.00745364
-0.00789369
-0.00828618
-0.00862191
-0.00889108
-0.00908325
-0.00918788
-0.00919523
-0.00909659
-0.00888467
-0.00855399
-0.00810134
-0.0075248
-0.0068198
-0.00599311
-0.00505441
-0.00401023
-0.00287588
-0.00166956
-0.000415024
0.000859583
0.00212139
0.0033343
0.00445836
0.0054521
0.00627854
0.00690585
0.00731011
0.00747987
0.00742045
0.00715295
0.00671326
0.00614972
0.00551939
0.00488121
0.00428703
0.00377731
0.00337708
0.00310774
0.00295982
0.00290857
0.00292075
0.002974
0.00303956
0.00309627
0.00314292
0.00317937
-3.60363e-05
-1.57275e-05
-2.33236e-05
-5.99947e-05
-0.00012012
-0.000189368
-0.000256993
-0.000316744
-0.000367065
-0.000409595
-0.000449943
-0.000494257
-0.000547696
-0.000613837
-0.000694523
-0.000790518
-0.000902974
-0.00103439
-0.00118833
-0.00136984
-0.00158536
-0.00184187
-0.00214692
-0.00250342
-0.00291378
-0.00337955
-0.00389804
-0.00446074
-0.00505381
-0.0056614
-0.0062676
-0.0068578
-0.00741903
-0.00794175
-0.00841807
-0.00883954
-0.00919804
-0.0094849
-0.0096909
-0.00980687
-0.00982466
-0.00973684
-0.00953704
-0.00922045
-0.00878425
-0.0082268
-0.00754736
-0.00674943
-0.0058393
-0.00482444
-0.00371799
-0.00253741
-0.00130485
-4.61837e-05
0.00120854
0.00242459
0.00356224
0.00458137
0.00544399
0.0061169
0.00657525
0.00680418
0.00680552
0.00659905
0.00621883
0.0057102
0.00512868
0.00453318
0.00397461
0.00349721
0.00312609
0.00287692
0.00274516
0.00271719
0.00276749
0.00285508
0.00295121
0.00303734
0.00310738
0.00315579
-3.0762e-05
-1.64959e-05
-3.3345e-05
-8.07422e-05
-0.000150065
-0.000222446
-0.000287102
-0.000339015
-0.000378057
-0.000407765
-0.000434681
-0.000465828
-0.000506773
-0.000561033
-0.000630662
-0.000717393
-0.000824001
-0.000955497
-0.00111823
-0.00131977
-0.0015698
-0.00187343
-0.00223544
-0.00266049
-0.00314888
-0.00369616
-0.00429333
-0.0049275
-0.00558253
-0.00624269
-0.00689289
-0.00752086
-0.00811586
-0.00866777
-0.00916791
-0.00960807
-0.00998077
-0.0102781
-0.0104919
-0.0106141
-0.0106385
-0.0105589
-0.01037
-0.010067
-0.00964754
-0.00911077
-0.0084565
-0.00768678
-0.00680548
-0.00581876
-0.00473849
-0.00358117
-0.00236732
-0.00111933
0.000136711
0.00136732
0.00253191
0.00359213
0.0045108
0.00525233
0.00578934
0.006104
0.00619164
0.00606608
0.00576061
0.00531879
0.00479369
0.00424147
0.00371618
0.00326227
0.00290914
0.00267153
0.00254977
0.00252963
0.00258862
0.00269445
0.00281416
0.00292612
0.00301746
0.00307443
-4.47443e-06
-2.33175e-06
-3.06502e-05
-9.07379e-05
-0.000168183
-0.000242068
-0.000303345
-0.000348406
-0.000378003
-0.000397641
-0.000414831
-0.000437082
-0.000470105
-0.000517957
-0.000584061
-0.000672466
-0.000789174
-0.000942017
-0.00114095
-0.00139388
-0.00170759
-0.00208891
-0.00254049
-0.00306062
-0.00364157
-0.00427275
-0.00494216
-0.00563708
-0.00634335
-0.00704639
-0.00773255
-0.00839021
-0.00900946
-0.0095812
-0.0100972
-0.0105495
-0.0109311
-0.011235
-0.011454
-0.0115809
-0.0116125
-0.0115434
-0.0113692
-0.0110859
-0.0106915
-0.0101845
-0.00956426
-0.00883225
-0.00799114
-0.00704599
-0.00600516
-0.00488242
-0.00369574
-0.00246275
-0.00120607
3.90927e-05
0.00123346
0.00234348
0.00333352
0.00416329
0.0048035
0.00523342
0.00544239
0.00543598
0.00523915
0.004895
0.00445402
0.00396898
0.00349337
0.0030737
0.00274266
0.00251755
0.00240058
0.00238065
0.0024373
0.00254307
0.00266815
0.00278849
0.00288809
0.00294757
5.23312e-05
3.85572e-05
-4.37103e-06
-8.02157e-05
-0.000163058
-0.000237564
-0.000295977
-0.000335953
-0.000360095
-0.000375016
-0.000388886
-0.000409432
-0.00044299
-0.000495142
-0.000571854
-0.00068021
-0.000829739
-0.00103154
-0.00129371
-0.00162507
-0.00203159
-0.00251574
-0.00307077
-0.00368657
-0.00435349
-0.00506055
-0.00579467
-0.00654291
-0.00729238
-0.00803034
-0.00874486
-0.00942537
-0.0100626
-0.0106483
-0.0111744
-0.0116329
-0.0120178
-0.0123237
-0.0125448
-0.0126797
-0.0127228
-0.0126691
-0.0125149
-0.0122576
-0.0118951
-0.0114244
-0.0108452
-0.0101585
-0.00936752
-0.00847817
-0.00749723
-0.00643215
-0.00529222
-0.00409456
-0.0028631
-0.00162373
-0.000404788
0.000761797
0.00183398
0.00276757
0.00353516
0.00411043
0.0044762
0.00463199
0.00459076
0.00438642
0.00406766
0.0036843
0.00328698
0.00292301
0.00262779
0.00242178
0.00231043
0.00228654
0.00233357
0.00242712
0.00254152
0.00265312
0.00274578
0.00279933
0.00014908
0.000116367
5.39402e-05
-3.547e-05
-0.000123562
-0.000199324
-0.00025672
-0.000295401
-0.000319723
-0.000337271
-0.000356684
-0.000386109
-0.000433139
-0.000505817
-0.000612857
-0.000764914
-0.000974005
-0.00125061
-0.00160301
-0.00203836
-0.00255433
-0.00314356
-0.00379679
-0.00450268
-0.00524914
-0.00602374
-0.00681389
-0.00760753
-0.00839285
-0.00915858
-0.00989435
-0.0105908
-0.0112388
-0.0118301
-0.0123573
-0.0128155
-0.0132012
-0.0135098
-0.0137384
-0.0138849
-0.0139409
-0.0139035
-0.0137691
-0.0135359
-0.0132032
-0.0127694
-0.0122342
-0.0115989
-0.0108667
-0.0100426
-0.0091319
-0.00813782
-0.00706544
-0.00592958
-0.0047492
-0.00354173
-0.00232606
-0.00113525
-4.37117e-06
0.0010366
0.00195066
0.00269379
0.00324835
0.00360452
0.00376618
0.00374993
0.0035975
0.00335568
0.00307158
0.00279108
0.00255198
0.00237799
0.00227857
0.00225025
0.0022829
0.00235605
0.00244837
0.00253928
0.00261077
0.00264928
0.000290903
0.000239061
0.000153653
5.1714e-05
-4.26144e-05
-0.000121134
-0.000180804
-0.000223536
-0.000255411
-0.000284963
-0.000321325
-0.000373497
-0.00045098
-0.000564364
-0.00072559
-0.000946854
-0.00124093
-0.00161777
-0.00208117
-0.00262858
-0.00325334
-0.0039447
-0.00469053
-0.00547769
-0.00629374
-0.00712622
-0.00796341
-0.00879406
-0.00960738
-0.0103933
-0.0111425
-0.0118463
-0.0124958
-0.0130848
-0.0136101
-0.0140704
-0.014461
-0.0147759
-0.0150111
-0.0151607
-0.0152235
-0.0151975
-0.015081
-0.0148726
-0.0145711
-0.0141766
-0.0136889
-0.0131086
-0.0124374
-0.0116775
-0.0108321
-0.00990597
-0.00890723
-0.00784589
-0.00673485
-0.00558639
-0.00441108
-0.00323081
-0.00207106
-0.000955564
7.17018e-05
0.000982598
0.00174634
0.00232975
0.00273001
0.00294765
0.00300818
0.00295041
0.002817
0.00265102
0.00249178
0.00236688
0.00229057
0.00226494
0.00228066
0.00232776
0.00238978
0.00245126
0.00249217
0.00251186
0.000484217
0.000411531
0.000300523
0.000184887
8.24144e-05
-1.58248e-06
-6.80288e-05
-0.000121567
-0.000170041
-0.000222901
-0.000289959
-0.00038144
-0.000509044
-0.000686018
-0.000925406
-0.00124014
-0.00164173
-0.00213393
-0.00271358
-0.00337393
-0.00410403
-0.00488989
-0.00571859
-0.00657684
-0.00745243
-0.00833333
-0.00920854
-0.0100675
-0.0109005
-0.0116984
-0.0124528
-0.0131566
-0.0138047
-0.014393
-0.0149171
-0.0153723
-0.0157539
-0.0160596
-0.016288
-0.0164363
-0.016503
-0.0164867
-0.0163864
-0.0162016
-0.0159312
-0.0155753
-0.0151343
-0.0146089
-0.0140003
-0.0133099
-0.0125395
-0.0116924
-0.0107735
-0.00978873
-0.00874476
-0.00765043
-0.00652193
-0.00537694
-0.00422966
-0.0030927
-0.00199075
-0.000948402
-7.91407e-06
0.000808918
0.00146359
0.0019462
0.00226209
0.00243279
0.0024901
0.00247291
0.00241916
0.00236192
0.00232117
0.00230429
0.00230861
0.00232942
0.00235799
0.00238309
0.00239134
0.00239275
0.000732309
0.000632538
0.000496056
0.000361696
0.000248835
0.000155618
7.66633e-05
4.21347e-06
-7.13753e-05
-0.000160484
-0.000273704
-0.000422932
-0.000621857
-0.000884629
-0.00122413
-0.00165168
-0.00217272
-0.00278534
-0.0034817
-0.00425014
-0.00507688
-0.00594762
-0.00684905
-0.00776818
-0.0086931
-0.00961237
-0.0105156
-0.0113932
-0.0122364
-0.0130374
-0.0137893
-0.0144864
-0.0151248
-0.0157003
-0.01621
-0.0166503
-0.0170187
-0.0173137
-0.0175343
-0.0176792
-0.0177475
-0.0177383
-0.0176512
-0.0174859
-0.0172425
-0.0169209
-0.0165216
-0.0160456
-0.015494
-0.0148681
-0.0141694
-0.0134001
-0.0125633
-0.0116621
-0.0107
-0.00968172
-0.00861488
-0.00750864
-0.00637522
-0.00523704
-0.00410746
-0.00299595
-0.00192467
-0.000922972
-3.13706e-05
0.00072562
0.00132301
0.00176203
0.00205258
0.00222295
0.00230582
0.00233641
0.00234433
0.00234531
0.00234471
0.0023413
0.00233638
0.00232366
0.00230166
0.00228719
0.00102424
0.000897708
0.00072937
0.000573681
0.00044772
0.000341111
0.000242982
0.000142466
2.81957e-05
-0.000111
-0.000286837
-0.000512481
-0.000802462
-0.00117021
-0.00162645
-0.00217755
-0.00282314
-0.00355553
-0.00436256
-0.00523035
-0.00614387
-0.00708897
-0.00805226
-0.00902116
-0.00998408
-0.0109303
-0.0118503
-0.0127353
-0.0135781
-0.0143722
-0.0151122
-0.015794
-0.0164143
-0.0169705
-0.0174606
-0.0178826
-0.0182352
-0.0185173
-0.0187286
-0.0188682
-0.0189358
-0.0189311
-0.0188544
-0.0187059
-0.0184849
-0.0181926
-0.0178297
-0.0173971
-0.0168959
-0.0163272
-0.0156925
-0.0149934
-0.0142317
-0.0134093
-0.0125281
-0.0115907
-0.0105999
-0.00955901
-0.00847274
-0.00734966
-0.00620149
-0.00504994
-0.00390674
-0.00278307
-0.00170332
-0.000705498
0.000171949
0.000899202
0.00146065
0.00185998
0.00211868
0.00226567
0.00233735
0.00236436
0.00236248
0.0023404
0.00230577
0.00225983
0.00221312
0.00218524
0.00134714
0.00119268
0.000988356
0.00080872
0.000666171
0.000540843
0.000416038
0.00027768
0.000112858
-9.04232e-05
-0.000344461
-0.000663355
-0.00106073
-0.00154743
-0.00213002
-0.00280898
-0.00357764
-0.00442363
-0.00533262
-0.0062894
-0.00727872
-0.00828658
-0.00929974
-0.0103061
-0.0112946
-0.0122556
-0.0131805
-0.0140623
-0.0148948
-0.0156733
-0.0163941
-0.0170543
-0.0176518
-0.0181852
-0.0186533
-0.0190551
-0.0193901
-0.019658
-0.0198586
-0.0199918
-0.0200573
-0.0200555
-0.0199868
-0.0198515
-0.01965
-0.0193829
-0.0190513
-0.0186562
-0.0181987
-0.0176799
-0.0171011
-0.0164636
-0.0157686
-0.015017
-0.0142098
-0.0133477
-0.0124315
-0.0114617
-0.0104391
-0.00936507
-0.008242
-0.00707669
-0.00588145
-0.00468047
-0.00347923
-0.00229883
-0.00117949
-0.000176203
0.000673252
0.00133846
0.00181541
0.0021197
0.00228154
0.00234561
0.00234767
0.00231014
0.00225071
0.00217832
0.00211401
0.00207791
0.00168509
0.00149996
0.00125706
0.00104985
0.000886758
0.000736927
0.000577649
0.000391752
0.000164988
-0.000114809
-0.00046096
-0.000886824
-0.00140326
-0.00201718
-0.00272921
-0.00353367
-0.00441874
-0.00536926
-0.0063695
-0.00740363
-0.00845655
-0.00951444
-0.0105645
-0.0115954
-0.0125971
-0.0135611
-0.0144804
-0.0153495
-0.016164
-0.0169208
-0.0176174
-0.0182523
-0.0188246
-0.0193335
-0.0197787
-0.0201601
-0.0204775
-0.020731
-0.0209208
-0.0210471
-0.0211102
-0.0211103
-0.021048
-0.0209239
-0.0207387
-0.0204931
-0.0201882
-0.019825
-0.0194048
-0.0189287
-0.0183979
-0.0178134
-0.0171761
-0.0164866
-0.015745
-0.014951
-0.0141038
-0.0132021
-0.0122443
-0.0112285
-0.0101529
-0.00901649
-0.0078208
-0.00657337
-0.00528879
-0.00398872
-0.00269404
-0.00145605
-0.000332106
0.000618166
0.00135141
0.00185758
0.00215225
0.00227731
0.00229265
0.00224298
0.00216208
0.00206876
0.00199329
0.00195221
0.00201553
0.00179827
0.00151403
0.00127706
0.00108947
0.000909314
0.000707945
0.000465573
0.00016729
-0.000200011
-0.000649511
-0.00119178
-0.00183399
-0.00257684
-0.0034151
-0.00433777
-0.00532938
-0.00637306
-0.00745223
-0.00855086
-0.00965415
-0.0107487
-0.0118226
-0.0128654
-0.0138688
-0.0148256
-0.0157308
-0.0165803
-0.0173715
-0.0181026
-0.0187725
-0.0193807
-0.019927
-0.0204116
-0.0208346
-0.0211962
-0.0214969
-0.021737
-0.0219168
-0.0220367
-0.0220974
-0.022099
-0.0220422
-0.0219278
-0.0217565
-0.0215293
-0.021247
-0.020911
-0.0205224
-0.0200823
-0.0195919
-0.0190523
-0.0184641
-0.0178276
-0.0171427
-0.0164084
-0.0156232
-0.0147846
-0.0138892
-0.0129329
-0.0119111
-0.0108192
-0.00965364
-0.00841242
-0.0070978
-0.00572238
-0.00431424
-0.00290204
-0.00154659
-0.000322937
0.000689613
0.00143843
0.00191458
0.0021434
0.00219176
0.00213827
0.00203773
0.00192598
0.00184271
0.00179651
0.00231375
0.00206435
0.00173796
0.00146928
0.0012533
0.00103685
0.000786397
0.00048044
0.000102759
-0.000361011
-0.000920955
-0.00158431
-0.00235237
-0.00321998
-0.00417666
-0.00520697
-0.00629299
-0.0074168
-0.00856138
-0.00971083
-0.0108509
-0.0119689
-0.0130541
-0.0140979
-0.0150932
-0.016035
-0.0169197
-0.0177452
-0.01851
-0.0192137
-0.0198562
-0.0204378
-0.0209591
-0.0214206
-0.0218229
-0.0221666
-0.0224522
-0.0226803
-0.0228514
-0.0229659
-0.0230245
-0.0230276
-0.0229759
-0.02287
-0.0227108
-0.0224993
-0.0222365
-0.0219234
-0.0215614
-0.0211515
-0.020695
-0.0201928
-0.0196456
-0.0190537
-0.0184167
-0.0177336
-0.0170024
-0.01622
-0.0153822
-0.0144836
-0.0135177
-0.0124774
-0.0113552
-0.0101447
-0.00884209
-0.0074491
-0.00597761
-0.00445506
-0.00292954
-0.00147595
-0.000190733
0.000830873
0.00153284
0.00191809
0.00203894
0.00199553
0.00187994
0.00175076
0.00165767
0.00160273
0.0025583
0.00227496
0.00190728
0.00160553
0.00135714
0.00109912
0.000794676
0.000420047
-4.40124e-05
-0.000609123
-0.0012819
-0.00206507
-0.00295381
-0.00393789
-0.00500187
-0.00612696
-0.00729368
-0.00848352
-0.00967937
-0.0108658
-0.0120293
-0.0131585
-0.0142443
-0.0152797
-0.0162596
-0.0171807
-0.0180411
-0.0188401
-0.0195774
-0.0202537
-0.0208696
-0.0214261
-0.0219241
-0.0223645
-0.0227483
-0.0230761
-0.0233486
-0.0235665
-0.0237303
-0.0238406
-0.0238978
-0.0239026
-0.0238556
-0.0237575
-0.023609
-0.0234112
-0.0231649
-0.0228714
-0.0225319
-0.0221474
-0.0217191
-0.0212479
-0.0207347
-0.0201797
-0.0195826
-0.0189424
-0.018257
-0.0175234
-0.0167369
-0.0158916
-0.0149801
-0.0139938
-0.0129228
-0.0117571
-0.0104884
-0.00911164
-0.00762842
-0.00605312
-0.00442235
-0.00280037
-0.00128311
1.34974e-05
0.000982169
0.00157246
0.00181564
0.00181281
0.00169229
0.00154474
0.00143389
0.00136491
0.00272088
0.00240841
0.00200193
0.00166647
0.0013824
0.00107957
0.000717851
0.000269601
-0.000283303
-0.00094968
-0.0017334
-0.0026305
-0.00363127
-0.00472034
-0.00587819
-0.00708373
-0.00831655
-0.00955789
-0.0107909
-0.0120009
-0.0131758
-0.0143056
-0.015383
-0.016403
-0.0173622
-0.0182592
-0.0190933
-0.0198651
-0.0205754
-0.0212253
-0.0218164
-0.0223498
-0.0228268
-0.0232487
-0.0236162
-0.0239304
-0.0241919
-0.0244014
-0.0245594
-0.0246665
-0.0247232
-0.0247299
-0.0246875
-0.0245964
-0.0244576
-0.0242718
-0.02404
-0.0237633
-0.0234427
-0.0230795
-0.0226748
-0.0222294
-0.0217443
-0.0212196
-0.0206554
-0.0200506
-0.0194036
-0.0187113
-0.0179693
-0.0171716
-0.0163106
-0.0153768
-0.0143595
-0.0132466
-0.0120262
-0.0106881
-0.00922659
-0.00764514
-0.00596534
-0.00423818
-0.00254961
-0.00101273
0.00023421
0.00107836
0.00150169
0.00158257
0.00147169
0.0013063
0.00116677
0.00108068
0.00278601
0.00244762
0.00200554
0.00163644
0.00131491
0.000965795
0.000544257
2.0914e-05
-0.000619613
-0.0013844
-0.00227239
-0.00327452
-0.00437574
-0.0055561
-0.00679302
-0.00806395
-0.00934799
-0.0106265
-0.0118833
-0.0131048
-0.0142804
-0.015402
-0.0164643
-0.0174638
-0.0183992
-0.0192703
-0.0200777
-0.0208228
-0.0215073
-0.0221329
-0.0227013
-0.0232141
-0.0236727
-0.0240784
-0.0244322
-0.0247349
-0.0249874
-0.0251901
-0.0253436
-0.0254486
-0.0255053
-0.0255144
-0.0254764
-0.025392
-0.0252619
-0.0250868
-0.0248677
-0.0246055
-0.0243013
-0.0239562
-0.0235712
-0.0231473
-0.0226853
-0.0221857
-0.0216484
-0.0210728
-0.0204574
-0.0197995
-0.0190953
-0.018339
-0.0175233
-0.0166387
-0.015674
-0.0146161
-0.0134511
-0.0121655
-0.0107483
-0.00919423
-0.00751064
-0.00573179
-0.0039343
-0.00221723
-0.000714116
0.000411313
0.00106463
0.00128225
0.00121192
0.00103063
0.000852662
0.000748783
0.0027397
0.00237967
0.00190635
0.00150497
0.00114608
0.000749118
0.000266572
-0.000328973
-0.00105305
-0.00191005
-0.00289326
-0.0039888
-0.00517674
-0.00643338
-0.00773399
-0.00905517
-0.0103759
-0.0116781
-0.0129464
-0.0141689
-0.0153365
-0.0164433
-0.0174854
-0.0184615
-0.0193714
-0.0202161
-0.0209974
-0.0217173
-0.0223779
-0.0229814
-0.0235296
-0.0240243
-0.024467
-0.0248589
-0.0252011
-0.0254943
-0.0257394
-0.0259368
-0.0260871
-0.0261908
-0.0262482
-0.0262599
-0.0262264
-0.0261482
-0.026026
-0.0258605
-0.0256526
-0.0254031
-0.0251131
-0.0247835
-0.0244153
-0.0240095
-0.0235668
-0.0230878
-0.0225727
-0.022021
-0.0214316
-0.0208023
-0.0201297
-0.0194088
-0.0186328
-0.0177927
-0.0168775
-0.0158739
-0.0147669
-0.0135408
-0.0121812
-0.010677
-0.00902419
-0.00723784
-0.00537867
-0.00354628
-0.00184347
-0.000446354
0.000479259
0.00089097
0.000898524
0.000708713
0.000488469
0.000369357
0.00257345
0.00219689
0.00169772
0.00126648
0.000870403
0.000425984
-0.000114691
-0.000778569
-0.0015804
-0.00252038
-0.00358752
-0.00476305
-0.00602282
-0.00734029
-0.00868933
-0.0100461
-0.01139
-0.0127035
-0.0139729
-0.0151875
-0.0163404
-0.0174273
-0.0184462
-0.0193971
-0.0202811
-0.0211001
-0.0218566
-0.022553
-0.023192
-0.0237756
-0.0243061
-0.0247851
-0.0252141
-0.0255944
-0.0259269
-0.0262124
-0.0264516
-0.026645
-0.026793
-0.0268961
-0.0269547
-0.0269691
-0.0269399
-0.0268675
-0.0267527
-0.0265959
-0.026398
-0.0261598
-0.0258822
-0.0255661
-0.0252124
-0.0248219
-0.0243956
-0.023934
-0.0234372
-0.0229053
-0.0223373
-0.0217315
-0.0210852
-0.0203941
-0.0196523
-0.0188515
-0.0179814
-0.0170292
-0.0159795
-0.0148156
-0.0135206
-0.0120799
-0.0104821
-0.00872582
-0.00684326
-0.00494503
-0.00310786
-0.00148178
-0.000276532
0.000375175
0.00051028
0.000333951
7.68966e-05
-5.74859e-05
0.00228469
0.00189712
0.00137815
0.000920185
0.000488242
-1.58288e-06
-0.000596036
-0.00132223
-0.00219353
-0.00320602
-0.00434442
-0.00558562
-0.00690206
-0.00826519
-0.00964806
-0.0110269
-0.0123816
-0.0136959
-0.0149573
-0.0161573
-0.0172904
-0.0183541
-0.019348
-0.0202731
-0.0211316
-0.0219261
-0.0226594
-0.0233345
-0.023954
-0.0245201
-0.0250351
-0.0255006
-0.025918
-0.0262885
-0.0266129
-0.0268921
-0.0271267
-0.027317
-0.0274635
-0.0275666
-0.0276265
-0.0276438
-0.0276188
-0.027552
-0.0274439
-0.0272952
-0.0271063
-0.0268782
-0.0266116
-0.0263073
-0.0259662
-0.0255892
-0.0251768
-0.0247299
-0.0242487
-0.0237333
-0.0231831
-0.0225969
-0.0219726
-0.0213065
-0.0205938
-0.0198272
-0.0189974
-0.0180923
-0.0170973
-0.0159951
-0.0147672
-0.0133966
-0.0118685
-0.0101707
-0.00830718
-0.0063643
-0.0044571
-0.002667
-0.00120816
-0.000288758
2.76546e-05
-0.000106069
-0.00038185
-0.000534126
0.00187624
0.00148345
0.000950862
0.000469644
4.40319e-06
-0.000526588
-0.00116946
-0.00195117
-0.00288222
-0.00395555
-0.00515184
-0.00644425
-0.0078026
-0.00919702
-0.0106003
-0.0119889
-0.0133438
-0.0146499
-0.0158964
-0.0170765
-0.0181864
-0.0192249
-0.020193
-0.0210926
-0.0219266
-0.022698
-0.0234101
-0.0240659
-0.024668
-0.0252188
-0.0257202
-0.0261741
-0.0265815
-0.0269438
-0.0272616
-0.0275357
-0.0277665
-0.0279545
-0.0281001
-0.0282035
-0.0282652
-0.0282853
-0.0282644
-0.0282028
-0.028101
-0.0279595
-0.0277789
-0.0275599
-0.0273032
-0.0270095
-0.0266796
-0.0263142
-0.0259142
-0.02548
-0.0250122
-0.0245109
-0.0239758
-0.0234061
-0.0228002
-0.0221553
-0.0214672
-0.0207301
-0.0199358
-0.0190733
-0.0181288
-0.0170856
-0.0159245
-0.0146262
-0.0131739
-0.0115512
-0.00974661
-0.00778613
-0.00584318
-0.00395594
-0.00229188
-0.00110538
-0.000569713
-0.000621895
-0.000889322
-0.00106683
0.00135563
0.000963486
0.00042306
-7.71967e-05
-0.000571941
-0.00113929
-0.00182441
-0.00265333
-0.00363398
-0.00475611
-0.00599692
-0.00732654
-0.00871296
-0.0101255
-0.0115372
-0.0129251
-0.0142712
-0.0155619
-0.0167882
-0.0179447
-0.0190291
-0.0200415
-0.0209838
-0.0218587
-0.0226695
-0.0234196
-0.0241124
-0.0247507
-0.0253374
-0.0258746
-0.0263644
-0.0268082
-0.0272072
-0.0275624
-0.0278747
-0.0281445
-0.0283724
-0.0285587
-0.0287038
-0.0288079
-0.0288712
-0.0288943
-0.0288772
-0.0288205
-0.0287245
-0.0285898
-0.0284167
-0.028206
-0.0279582
-0.027674
-0.0273542
-0.0269993
-0.0266102
-0.0261873
-0.0257312
-0.0252422
-0.0247202
-0.0241646
-0.0235745
-0.0229476
-0.0222808
-0.0215691
-0.0208057
-0.019981
-0.0190825
-0.0180945
-0.0169979
-0.0157719
-0.0143973
-0.0128564
-0.0111285
-0.0092097
-0.0072307
-0.00530447
-0.00350142
-0.00207957
-0.00130182
-0.00121292
-0.00145205
-0.00166672
0.000734268
0.000348661
-0.000193815
-0.000708579
-0.00122815
-0.00182667
-0.00254774
-0.00341531
-0.00443512
-0.00559415
-0.00686664
-0.00822048
-0.0096224
-0.0110415
-0.0124512
-0.0138295
-0.0151596
-0.0164296
-0.0176318
-0.0187622
-0.01982
-0.0208062
-0.0217233
-0.0225746
-0.0233637
-0.0240942
-0.0247693
-0.025392
-0.025965
-0.0264903
-0.0269698
-0.0274048
-0.0277966
-0.0281459
-0.0284534
-0.0287197
-0.0289452
-0.0291303
-0.0292751
-0.02938
-0.0294452
-0.029471
-0.0294576
-0.0294055
-0.0293149
-0.0291863
-0.0290202
-0.0288171
-0.0285775
-0.028302
-0.0279913
-0.0276459
-0.0272666
-0.0268539
-0.0264084
-0.0259303
-0.0254198
-0.0248767
-0.0243003
-0.023689
-0.0230406
-0.022351
-0.0216146
-0.0208234
-0.0199662
-0.0190288
-0.0179929
-0.0168375
-0.015541
-0.0140841
-0.0124459
-0.0106089
-0.00860821
-0.00667186
-0.00480174
-0.00319898
-0.00218136
-0.00190374
-0.00208806
-0.00235112
2.79837e-05
-0.000347276
-0.000885718
-0.00141042
-0.0019506
-0.00257511
-0.00332501
-0.00422262
-0.00527143
-0.00645603
-0.00774836
-0.00911469
-0.0105211
-0.0119368
-0.0133359
-0.0146975
-0.0160062
-0.0172513
-0.0184268
-0.0195299
-0.0205607
-0.021521
-0.0224139
-0.023243
-0.024012
-0.0247244
-0.0253835
-0.0259922
-0.0265529
-0.0270677
-0.0275381
-0.0279655
-0.0283509
-0.028695
-0.0289986
-0.0292619
-0.0294855
-0.0296695
-0.0298144
-0.0299201
-0.0299871
-0.0300155
-0.0300056
-0.0299578
-0.0298722
-0.0297494
-0.0295896
-0.0293935
-0.0291614
-0.0288939
-0.0285915
-0.0282549
-0.0278847
-0.0274813
-0.0270453
-0.0265772
-0.0260771
-0.0255452
-0.024981
-0.0243837
-0.0237513
-0.0230811
-0.0223685
-0.0216068
-0.0207866
-0.0198951
-0.0189155
-0.0178274
-0.0166078
-0.0152365
-0.013694
-0.0119502
-0.00998615
-0.00802733
-0.0061503
-0.00443365
-0.00320482
-0.00272188
-0.00281547
-0.00314215
-0.000745616
-0.00110823
-0.00163792
-0.00216843
-0.00272461
-0.00336953
-0.00414124
-0.00506052
-0.00612874
-0.00732851
-0.00863009
-0.00999869
-0.0114002
-0.0128043
-0.0141859
-0.0155254
-0.0168086
-0.0180263
-0.0191736
-0.0202489
-0.0212529
-0.0221882
-0.0230581
-0.0238663
-0.0246166
-0.0253124
-0.0259571
-0.0265531
-0.0271029
-0.0276082
-0.0280706
-0.0284912
-0.028871
-0.0292106
-0.0295107
-0.0297715
-0.0299934
-0.0301767
-0.0303216
-0.0304283
-0.030497
-0.0305278
-0.0305212
-0.0304773
-0.0303964
-0.0302788
-0.030125
-0.0299353
-0.0297101
-0.02945
-0.0291554
-0.0288269
-0.028465
-0.0280703
-0.0276432
-0.0271843
-0.0266939
-0.0261722
-0.0256192
-0.0250343
-0.0244164
-0.0237635
-0.0230719
-0.0223365
-0.0215493
-0.0206991
-0.019771
-0.0187457
-0.0176004
-0.0163128
-0.0148628
-0.0132215
-0.0113588
-0.00937163
-0.00751275
-0.00575677
-0.00436694
-0.00367668
-0.00365041
-0.00406256
-0.00156961
-0.00191738
-0.00243457
-0.00296685
-0.00353434
-0.00419411
-0.00498116
-0.00591441
-0.00699335
-0.00819912
-0.00950079
-0.0108631
-0.012252
-0.0136379
-0.0149968
-0.0163102
-0.0175653
-0.018754
-0.0198726
-0.0209201
-0.0218982
-0.0228095
-0.0236576
-0.0244464
-0.0251795
-0.0258602
-0.0264916
-0.0270762
-0.027616
-0.0281129
-0.0285681
-0.0289827
-0.0293574
-0.0296931
-0.02999
-0.0302485
-0.030469
-0.0306517
-0.0307967
-0.0309043
-0.0309746
-0.0310078
-0.0310041
-0.0309639
-0.0308873
-0.0307746
-0.0306262
-0.0304425
-0.0302237
-0.0299705
-0.0296831
-0.0293621
-0.0290081
-0.0286214
-0.0282027
-0.0277524
-0.0272711
-0.026759
-0.0262163
-0.0256429
-0.0250382
-0.0244007
-0.0237281
-0.0230162
-0.0222585
-0.0214456
-0.0205644
-0.0195973
-0.0185225
-0.017316
-0.0159572
-0.0144228
-0.0126775
-0.0107089
-0.00886405
-0.0071285
-0.0056428
-0.00476465
-0.00461471
-0.00511454
-0.00242676
-0.00275792
-0.00325939
-0.00378935
-0.00436375
-0.00503337
-0.00582993
-0.00677033
-0.00785244
-0.00905633
-0.0103505
-0.0116994
-0.0130697
-0.0144326
-0.015765
-0.0170497
-0.0182751
-0.0194343
-0.0205242
-0.0215447
-0.0224978
-0.0233864
-0.0242142
-0.0249849
-0.025702
-0.0263689
-0.0269882
-0.0275624
-0.0280932
-0.0285824
-0.0290311
-0.0294402
-0.0298105
-0.0301425
-0.0304366
-0.0306931
-0.0309124
-0.0310945
-0.0312396
-0.031348
-0.0314198
-0.0314552
-0.0314543
-0.0314174
-0.0313447
-0.0312365
-0.0310931
-0.0309149
-0.0307021
-0.0304552
-0.0301746
-0.0298607
-0.029514
-0.029135
-0.0287242
-0.0282821
-0.0278093
-0.0273062
-0.0267733
-0.0262106
-0.025618
-0.0249949
-0.0243394
-0.0236486
-0.0229174
-0.0221381
-0.0212994
-0.0203855
-0.019376
-0.0182473
-0.016978
-0.015547
-0.0139159
-0.012046
-0.0101929
-0.00850118
-0.00698274
-0.00596245
-0.00571902
-0.0062781
-0.00330036
-0.00361304
-0.00409613
-0.00462046
-0.0051978
-0.00587275
-0.00667366
-0.00761535
-0.00869431
-0.00988982
-0.0111703
-0.0125006
-0.0138478
-0.0151841
-0.0164876
-0.0177422
-0.0189374
-0.0200671
-0.021129
-0.0221235
-0.0230529
-0.0239201
-0.0247289
-0.0254829
-0.0261854
-0.0268395
-0.0274478
-0.0280124
-0.0285351
-0.0290173
-0.02946
-0.0298641
-0.0302303
-0.030559
-0.0308505
-0.0311052
-0.0313233
-0.0315049
-0.0316502
-0.0317593
-0.0318325
-0.0318697
-0.0318713
-0.0318375
-0.0317684
-0.0316644
-0.0315256
-0.0313525
-0.0311452
-0.0309043
-0.0306299
-0.0303226
-0.0299829
-0.0296111
-0.0292078
-0.0287735
-0.0283088
-0.0278144
-0.0272907
-0.0267381
-0.0261569
-0.0255469
-0.0249071
-0.0242355
-0.0235283
-0.0227794
-0.0219791
-0.0211138
-0.0201648
-0.0191095
-0.0179245
-0.016589
-0.0150703
-0.0133361
-0.0114926
-0.00985361
-0.00834389
-0.00723448
-0.0069386
-0.00751707
-0.00417425
-0.00446683
-0.00492934
-0.00544545
-0.00602242
-0.00669879
-0.00749965
-0.00843778
-0.00950853
-0.0106904
-0.0119525
-0.0132602
-0.0145812
-0.0158889
-0.0171622
-0.0183863
-0.0195514
-0.0206523
-0.0216873
-0.0226572
-0.0235642
-0.0244115
-0.0252027
-0.0259413
-0.0266303
-0.0272727
-0.0278709
-0.0284267
-0.0289419
-0.0294177
-0.029855
-0.0302545
-0.0306169
-0.0309426
-0.0312318
-0.0314848
-0.0317017
-0.0318828
-0.0320282
-0.032138
-0.0322123
-0.0322513
-0.0322552
-0.0322242
-0.0321584
-0.0320581
-0.0319235
-0.031755
-0.0315529
-0.0313174
-0.0310489
-0.0307478
-0.0304145
-0.0300496
-0.0296534
-0.0292265
-0.0287697
-0.0282835
-0.0277686
-0.0272256
-0.0266552
-0.0260575
-0.0254322
-0.0247781
-0.0240927
-0.0233711
-0.0226056
-0.0217844
-0.020891
-0.019904
-0.0187993
-0.0175571
-0.0161531
-0.0145533
-0.012749
-0.0111516
-0.00968833
-0.00854048
-0.00820666
-0.00874582
-0.00503347
-0.00530478
-0.00574519
-0.0062509
-0.00682474
-0.00749927
-0.00829644
-0.00922708
-0.010286
-0.0114504
-0.0126905
-0.013973
-0.0152661
-0.0165441
-0.017787
-0.0189807
-0.0201166
-0.02119
-0.0221995
-0.0231461
-0.0240324
-0.0248612
-0.0256362
-0.0263605
-0.0270372
-0.0276689
-0.0282578
-0.0288056
-0.0293139
-0.0297838
-0.0302161
-0.0306114
-0.0309703
-0.0312932
-0.0315802
-0.0318316
-0.0320475
-0.0322282
-0.0323736
-0.0324839
-0.0325593
-0.0325998
-0.0326057
-0.0325771
-0.0325143
-0.0324174
-0.0322867
-0.0321225
-0.031925
-0.0316945
-0.0314314
-0.0311361
-0.0308089
-0.0304504
-0.0300609
-0.0296411
-0.0291917
-0.0287134
-0.0282069
-0.0276732
-0.0271129
-0.0265266
-0.0259148
-0.0252768
-0.0246112
-0.0239144
-0.0231803
-0.022399
-0.0215558
-0.0206312
-0.0196022
-0.018449
-0.0171518
-0.0156722
-0.0139754
-0.0123934
-0.0109776
-0.00982887
-0.00944444
-0.00986829
-0.00586373
-0.00611377
-0.00653119
-0.00702484
-0.00759332
-0.00826342
-0.00905417
-0.00997443
-0.0110184
-0.012163
-0.0133787
-0.0146347
-0.0158992
-0.0171473
-0.0183602
-0.0195247
-0.0206326
-0.0216799
-0.0226656
-0.0235907
-0.0244577
-0.0252696
-0.0260297
-0.026741
-0.0274064