/*--------------------------------*- C++ -*----------------------------------*\
  =========                 |
  \\      /  F ield         | OpenFOAM: The Open Source CFD Toolbox
   \\    /   O peration     | Website:  https://openfoam.org
    \\  /    A nd           | Version:  13
     \\/     M anipulation  |
\*---------------------------------------------------------------------------*/
FoamFile
{
    format      ascii;
    class       surfaceScalarField;
    location    "5.2";
    object      phi;
}
// * * * * * * * * * * * * * * * * * * * * * * * * * * * * * * * * * * * * * //

dimensions      [0 3 -1 0 0 0 0];

internalField   nonuniform List<scalar> 
12640
(
1.60731e-09
-1.60688e-09
1.42871e-08
-1.26799e-08
3.65553e-08
-2.22682e-08
6.23696e-08
-2.58143e-08
8.58412e-08
-2.34716e-08
1.03571e-07
-1.77295e-08
1.1426e-07
-1.06895e-08
1.18652e-07
-4.39234e-09
1.18839e-07
-1.86478e-10
1.17008e-07
1.83142e-09
1.15012e-07
1.99532e-09
1.14075e-07
9.37598e-10
1.14613e-07
-5.3867e-10
1.16351e-07
-1.73747e-09
1.18531e-07
-2.18008e-09
1.20285e-07
-1.75389e-09
1.20789e-07
-5.04647e-10
1.19539e-07
1.25068e-09
1.15813e-07
3.72565e-09
1.0873e-07
7.08323e-09
9.76536e-08
1.10762e-08
8.20731e-08
1.55805e-08
6.15272e-08
2.05459e-08
3.58314e-08
2.56958e-08
4.97348e-09
3.08579e-08
-3.11911e-08
3.61646e-08
-7.36857e-08
4.24946e-08
-1.24556e-07
5.08702e-08
-1.86445e-07
6.18896e-08
-2.61734e-07
7.52882e-08
-3.50235e-07
8.85018e-08
-4.49122e-07
9.88868e-08
-5.55174e-07
1.06052e-07
-6.65159e-07
1.09984e-07
-7.76174e-07
1.11015e-07
-8.85642e-07
1.09469e-07
-9.914e-07
1.05758e-07
-1.09167e-06
1.00273e-07
-1.18503e-06
9.33524e-08
-1.27033e-06
8.5307e-08
-1.34668e-06
7.63467e-08
-1.41332e-06
6.66408e-08
-1.46961e-06
5.62914e-08
-1.51496e-06
4.53467e-08
-1.54875e-06
3.37968e-08
-1.57034e-06
2.15898e-08
-1.57997e-06
9.62779e-09
-1.57705e-06
-2.92305e-09
-1.5599e-06
-1.71515e-08
-1.52947e-06
-3.04249e-08
-1.48441e-06
-4.5064e-08
-1.42511e-06
-5.93011e-08
-1.35137e-06
-7.37394e-08
-1.2637e-06
-8.7667e-08
-1.16264e-06
-1.01057e-07
-1.04898e-06
-1.13667e-07
-9.23886e-07
-1.25091e-07
-7.8899e-07
-1.34897e-07
-6.46385e-07
-1.42604e-07
-4.98812e-07
-1.47573e-07
-3.49562e-07
-1.4925e-07
-2.0237e-07
-1.47192e-07
-6.12545e-08
-1.41116e-07
6.98176e-08
-1.31072e-07
1.86777e-07
-1.1696e-07
2.85089e-07
-9.83114e-08
3.61524e-07
-7.6435e-08
4.13309e-07
-5.17849e-08
4.38798e-07
-2.54889e-08
4.37271e-07
1.52702e-09
4.10627e-07
2.66433e-08
3.61392e-07
4.92356e-08
2.95076e-07
6.63155e-08
2.20629e-07
7.44475e-08
1.49365e-07
7.12635e-08
8.87735e-08
6.05918e-08
4.31264e-08
4.56471e-08
1.35006e-08
2.96257e-08
2.23408e-10
1.32772e-08
2.23406e-10
9.84781e-09
-1.14547e-08
4.04631e-08
-4.32951e-08
8.32331e-08
-6.50383e-08
1.27342e-07
-6.99231e-08
1.65487e-07
-6.16171e-08
1.93919e-07
-4.61609e-08
2.11883e-07
-2.86535e-08
2.20276e-07
-1.27856e-08
2.20815e-07
-7.25656e-10
2.15721e-07
6.92589e-09
2.07157e-07
1.05594e-08
1.96588e-07
1.15062e-08
1.84477e-07
1.1572e-08
1.70312e-07
1.24278e-08
1.5306e-07
1.50718e-08
1.31574e-07
1.9732e-08
1.04973e-07
2.60971e-08
7.21612e-08
3.4062e-08
3.19542e-08
4.39326e-08
-1.70204e-08
5.60579e-08
-7.6589e-08
7.06447e-08
-1.48583e-07
8.75747e-08
-2.34272e-07
1.06235e-07
-3.3448e-07
1.25904e-07
-4.49774e-07
1.46152e-07
-5.80063e-07
1.66453e-07
-7.23481e-07
1.85913e-07
-8.76283e-07
2.03671e-07
-1.03359e-06
2.192e-07
-1.18986e-06
2.31558e-07
-1.34125e-06
2.39887e-07
-1.48626e-06
2.43897e-07
-1.62358e-06
2.43379e-07
-1.75193e-06
2.38329e-07
-1.87024e-06
2.29321e-07
-1.97779e-06
2.17026e-07
-2.07408e-06
2.02045e-07
-2.15877e-06
1.84964e-07
-2.23163e-06
1.66211e-07
-2.2925e-06
1.46178e-07
-2.34127e-06
1.25114e-07
-2.37781e-06
1.03187e-07
-2.40203e-06
8.05023e-08
-2.41379e-06
5.71159e-08
-2.41306e-06
3.30619e-08
-2.39954e-06
8.0701e-09
-2.37299e-06
-1.69204e-08
-2.3331e-06
-4.28194e-08
-2.28034e-06
-6.99117e-08
-2.21361e-06
-9.71552e-08
-2.13356e-06
-1.25108e-07
-2.03969e-06
-1.5317e-07
-1.93216e-06
-1.81272e-07
-1.8109e-06
-2.08926e-07
-1.67626e-06
-2.35697e-07
-1.52913e-06
-2.60798e-07
-1.37073e-06
-2.83489e-07
-1.20265e-06
-3.02979e-07
-1.02713e-06
-3.18124e-07
-8.46689e-07
-3.28013e-07
-6.64242e-07
-3.31696e-07
-4.83124e-07
-3.2831e-07
-3.07006e-07
-3.17234e-07
-1.39741e-07
-2.98337e-07
1.48075e-08
-2.71508e-07
1.53727e-07
-2.37231e-07
2.73071e-07
-1.95779e-07
3.70056e-07
-1.4877e-07
4.42188e-07
-9.76202e-08
4.88033e-07
-4.43185e-08
5.07058e-07
7.61843e-09
4.98417e-07
5.78764e-08
4.64423e-07
1.0031e-07
4.067e-07
1.32171e-07
3.27883e-07
1.50081e-07
2.37703e-07
1.50772e-07
1.48428e-07
1.34922e-07
7.2602e-08
1.05452e-07
2.08111e-08
6.50682e-08
2.10345e-08
1.84891e-08
-2.99437e-08
6.18943e-08
-8.67003e-08
1.11523e-07
-1.14667e-07
1.55908e-07
-1.14308e-07
1.9045e-07
-9.61593e-08
2.14013e-07
-6.97239e-08
2.2713e-07
-4.17703e-08
2.30722e-07
-1.6378e-08
2.25895e-07
4.10161e-09
2.1399e-07
1.88308e-08
1.96408e-07
2.8141e-08
1.73738e-07
3.41767e-08
1.45799e-07
3.95111e-08
1.11832e-07
4.63948e-08
7.06957e-08
5.62079e-08
2.10333e-08
6.93944e-08
-3.87956e-08
8.59259e-08
-1.10547e-07
1.05814e-07
-1.95707e-07
1.29092e-07
-2.95517e-07
1.55868e-07
-4.10589e-07
1.85716e-07
-5.4067e-07
2.17656e-07
-6.84808e-07
2.50373e-07
-8.40916e-07
2.82012e-07
-1.0059e-06
3.11138e-07
-1.17578e-06
3.3633e-07
-1.3464e-06
3.56536e-07
-1.51392e-06
3.71191e-07
-1.67475e-06
3.80033e-07
-1.82617e-06
3.82973e-07
-1.96647e-06
3.80188e-07
-2.09455e-06
3.71981e-07
-2.21017e-06
3.59e-07
-2.31369e-06
3.41848e-07
-2.40541e-06
3.21042e-07
-2.48569e-06
2.97306e-07
-2.55485e-06
2.71197e-07
-2.61315e-06
2.43266e-07
-2.66079e-06
2.13857e-07
-2.69793e-06
1.83309e-07
-2.72464e-06
1.51826e-07
-2.74094e-06
1.19489e-07
-2.74679e-06
8.6355e-08
-2.74208e-06
5.23999e-08
-2.72658e-06
1.757e-08
-2.70038e-06
-1.81325e-08
-2.66265e-06
-5.46503e-08
-2.61323e-06
-9.22372e-08
-2.5522e-06
-1.30945e-07
-2.47886e-06
-1.70493e-07
-2.39311e-06
-2.10864e-07
-2.29467e-06
-2.51612e-07
-2.18348e-06
-2.92461e-07
-2.05954e-06
-3.32859e-07
-1.92316e-06
-3.72085e-07
-1.77484e-06
-4.09114e-07
-1.61549e-06
-4.42838e-07
-1.4464e-06
-4.72068e-07
-1.26927e-06
-4.95261e-07
-1.08641e-06
-5.10873e-07
-9.0049e-07
-5.17611e-07
-7.14691e-07
-5.14109e-07
-5.32587e-07
-4.99338e-07
-3.57878e-07
-4.73046e-07
-1.93999e-07
-4.35387e-07
-4.4296e-08
-3.86933e-07
8.84681e-08
-3.28544e-07
2.01643e-07
-2.61945e-07
2.93326e-07
-1.89303e-07
3.62595e-07
-1.13588e-07
4.08116e-07
-3.79027e-08
4.30349e-07
3.5644e-08
4.27568e-07
1.03091e-07
4.0086e-07
1.58879e-07
3.51515e-07
1.99426e-07
2.82673e-07
2.19614e-07
2.00478e-07
2.17116e-07
1.15266e-07
1.90664e-07
4.07551e-08
1.39579e-07
6.17896e-08
2.56839e-08
-5.56276e-08
7.55566e-08
-1.36573e-07
1.23573e-07
-1.62683e-07
1.60992e-07
-1.51727e-07
1.86205e-07
-1.21373e-07
2.00188e-07
-8.37065e-08
2.04049e-07
-4.56309e-08
1.98845e-07
-1.11742e-08
1.85334e-07
1.76127e-08
1.64033e-07
4.01317e-08
1.34705e-07
5.74692e-08
9.68751e-08
7.20064e-08
4.97973e-08
8.65888e-08
-7.44831e-09
1.0364e-07
-7.59069e-08
1.24666e-07
-1.56842e-07
1.5033e-07
-2.51695e-07
1.80778e-07
-3.61736e-07
2.15855e-07
-4.87607e-07
2.54963e-07
-6.29022e-07
2.97283e-07
-7.84503e-07
3.41197e-07
-9.51086e-07
3.84239e-07
-1.12523e-06
4.24518e-07
-1.30282e-06
4.59601e-07
-1.47983e-06
4.88145e-07
-1.65242e-06
5.08925e-07
-1.81706e-06
5.21178e-07
-1.97094e-06
5.25062e-07
-2.11246e-06
5.21559e-07
-2.24106e-06
5.11575e-07
-2.35683e-06
4.9595e-07
-2.4603e-06
4.75449e-07
-2.55205e-06
4.50755e-07
-2.6328e-06
4.22596e-07
-2.70325e-06
3.91491e-07
-2.76399e-06
3.58048e-07
-2.81549e-06
3.227e-07
-2.85809e-06
2.85867e-07
-2.89203e-06
2.47793e-07
-2.91742e-06
2.08694e-07
-2.9343e-06
1.68709e-07
-2.94264e-06
1.2783e-07
-2.94232e-06
8.60356e-08
-2.93313e-06
4.32103e-08
-2.91482e-06
-7.42194e-10
-2.88709e-06
-4.58655e-08
-2.84948e-06
-9.22604e-08
-2.80165e-06
-1.40067e-07
-2.7433e-06
-1.89292e-07
-2.67388e-06
-2.39908e-07
-2.59298e-06
-2.91769e-07
-2.50021e-06
-3.44377e-07
-2.39535e-06
-3.97323e-07
-2.27819e-06
-4.50021e-07
-2.14867e-06
-5.01606e-07
-2.00691e-06
-5.50873e-07
-1.85353e-06
-5.96217e-07
-1.68948e-06
-6.36116e-07
-1.51603e-06
-6.68711e-07
-1.33506e-06
-6.91845e-07
-1.14891e-06
-7.03757e-07
-9.60469e-07
-7.02555e-07
-7.73148e-07
-6.86659e-07
-5.91018e-07
-6.55176e-07
-4.18097e-07
-6.08309e-07
-2.57817e-07
-5.47213e-07
-1.13216e-07
-4.73145e-07
1.31223e-08
-3.88283e-07
1.19445e-07
-2.95626e-07
2.04368e-07
-1.98511e-07
2.67238e-07
-1.00772e-07
3.08774e-07
-5.892e-09
3.29122e-07
8.27417e-08
3.27637e-07
1.60364e-07
3.04394e-07
2.22669e-07
2.59845e-07
2.64163e-07
1.97701e-07
2.7926e-07
1.23588e-07
2.64777e-07
4.79257e-08
2.15241e-07
1.09715e-07
3.13053e-08
-8.69329e-08
8.12088e-08
-1.86477e-07
1.21462e-07
-2.02936e-07
1.48185e-07
-1.7845e-07
1.61802e-07
-1.3499e-07
1.64355e-07
-8.6259e-08
1.5715e-07
-3.84256e-08
1.4093e-07
5.0457e-09
1.15831e-07
4.27118e-08
8.14707e-08
7.44916e-08
3.69258e-08
1.02014e-07
-1.89435e-08
1.27876e-07
-8.72623e-08
1.54908e-07
-1.69065e-07
1.85444e-07
-2.65323e-07
2.20924e-07
-3.76887e-07
2.61894e-07
-5.04273e-07
3.08165e-07
-6.47372e-07
3.58953e-07
-8.04959e-07
4.12551e-07
-9.74286e-07
4.6661e-07
-1.15182e-06
5.18726e-07
-1.33313e-06
5.65551e-07
-1.51406e-06
6.05447e-07
-1.69046e-06
6.36008e-07
-1.858e-06
6.55687e-07
-2.0138e-06
6.64718e-07
-2.15666e-06
6.64039e-07
-2.28652e-06
6.54924e-07
-2.40375e-06
6.38789e-07
-2.50903e-06
6.16851e-07
-2.60316e-06
5.90083e-07
-2.68699e-06
5.59277e-07
-2.76126e-06
5.2503e-07
-2.82664e-06
4.8797e-07
-2.88374e-06
4.48595e-07
-2.93304e-06
4.07352e-07
-2.97493e-06
3.64582e-07
-3.00966e-06
3.20603e-07
-3.03742e-06
2.75555e-07
-3.05818e-06
2.29455e-07
-3.072e-06
1.82528e-07
-3.0788e-06
1.34622e-07
-3.07844e-06
8.56756e-08
-3.07071e-06
3.5481e-08
-3.05531e-06
-1.61395e-08
-3.03186e-06
-6.93103e-08
-2.99987e-06
-1.24252e-07
-2.9589e-06
-1.8104e-07
-2.90854e-06
-2.3965e-07
-2.84831e-06
-3.00141e-07
-2.77754e-06
-3.62537e-07
-2.69554e-06
-4.26378e-07
-2.6019e-06
-4.90958e-07
-2.49619e-06
-5.55735e-07
-2.37799e-06
-6.19804e-07
-2.24694e-06
-6.81929e-07
-2.1033e-06
-7.39856e-07
-1.94764e-06
-7.91773e-07
-1.78072e-06
-8.35628e-07
-1.60402e-06
-8.68553e-07
-1.41951e-06
-8.8826e-07
-1.22975e-06
-8.92317e-07
-1.03774e-06
-8.78666e-07
-8.47192e-07
-8.45729e-07
-6.62718e-07
-7.92782e-07
-4.89054e-07
-7.20878e-07
-3.29555e-07
-6.32643e-07
-1.87276e-07
-5.30563e-07
-6.47695e-08
-4.18132e-07
3.64798e-08
-2.9976e-07
1.15813e-07
-1.80105e-07
1.73502e-07
-6.35813e-08
2.10581e-07
4.5663e-08
2.27494e-07
1.43451e-07
2.2473e-07
2.25433e-07
2.02633e-07
2.86259e-07
1.6212e-07
3.19774e-07
1.06186e-07
3.20711e-07
4.25061e-08
2.78921e-07
1.52221e-07
3.47379e-08
-1.21671e-07
7.85431e-08
-2.30282e-07
1.07002e-07
-2.31395e-07
1.20512e-07
-1.91961e-07
1.21476e-07
-1.35954e-07
1.11818e-07
-7.6601e-08
9.25103e-08
-1.91178e-08
6.36881e-08
3.38679e-08
2.49525e-08
8.14473e-08
-2.47842e-08
1.24228e-07
-8.68586e-08
1.64088e-07
-1.62615e-07
2.03632e-07
-2.53202e-07
2.45495e-07
-3.59459e-07
2.917e-07
-4.81838e-07
3.43303e-07
-6.20211e-07
4.00267e-07
-7.73697e-07
4.6165e-07
-9.40288e-07
5.25544e-07
-1.1168e-06
5.89062e-07
-1.29885e-06
6.48656e-07
-1.48198e-06
7.01864e-07
-1.66161e-06
7.45175e-07
-1.83244e-06
7.7628e-07
-1.99113e-06
7.94694e-07
-2.1365e-06
8.01059e-07
-2.26862e-06
7.9684e-07
-2.3882e-06
7.83621e-07
-2.49625e-06
7.62966e-07
-2.59365e-06
7.36192e-07
-2.68125e-06
7.04449e-07
-2.75979e-06
6.68628e-07
-2.82995e-06
6.29435e-07
-2.89239e-06
5.87469e-07
-2.94766e-06
5.4324e-07
-2.99622e-06
4.97156e-07
-3.03838e-06
4.49515e-07
-3.07443e-06
4.00628e-07
-3.10457e-06
3.50749e-07
-3.129e-06
2.9998e-07
-3.1475e-06
2.47953e-07
-3.16029e-06
1.95318e-07
-3.16729e-06
1.41623e-07
-3.16843e-06
8.68224e-08
-3.1636e-06
3.06455e-08
-3.15265e-06
-2.7084e-08
-3.13538e-06
-8.65827e-08
-3.11137e-06
-1.48265e-07
-3.0801e-06
-2.12312e-07
-3.04091e-06
-2.78837e-07
-2.99315e-06
-3.47907e-07
-2.93603e-06
-4.19649e-07
-2.86856e-06
-4.93853e-07
-2.78985e-06
-5.69669e-07
-2.69912e-06
-6.46466e-07
-2.5959e-06
-7.23019e-07
-2.47967e-06
-7.98161e-07
-2.34981e-06
-8.69715e-07
-2.20633e-06
-9.35256e-07
-2.0493e-06
-9.92653e-07
-1.87985e-06
-1.038e-06
-1.69957e-06
-1.06855e-06
-1.51049e-06
-1.08139e-06
-1.31555e-06
-1.07361e-06
-1.11808e-06
-1.0432e-06
-9.22207e-07
-9.88652e-07
-7.33393e-07
-9.09692e-07
-5.5662e-07
-8.09417e-07
-3.95724e-07
-6.91458e-07
-2.54038e-07
-5.59819e-07
-1.33902e-07
-4.19895e-07
-3.65305e-08
-2.77477e-07
3.81297e-08
-1.38242e-07
9.11706e-08
-7.37785e-09
1.24056e-07
1.10566e-07
1.38101e-07
2.11388e-07
1.34052e-07
2.90308e-07
1.12475e-07
3.41351e-07
7.57055e-08
3.5748e-07
3.00456e-08
3.24581e-07
1.82267e-07
3.50212e-08
-1.56692e-07
6.73397e-08
-2.626e-07
8.18482e-08
-2.45904e-07
8.11909e-08
-1.91303e-07
6.89136e-08
-1.23677e-07
4.64329e-08
-5.41203e-08
1.4086e-08
1.32291e-08
-2.85502e-08
7.65041e-08
-8.24562e-08
1.35353e-07
-1.48978e-07
1.9075e-07
-2.29549e-07
2.44659e-07
-3.25413e-07
2.99497e-07
-4.37404e-07
3.57485e-07
-5.65778e-07
4.20074e-07
-7.10043e-07
4.87568e-07
-8.68864e-07
5.59089e-07
-1.0397e-06
6.32482e-07
-1.21872e-06
7.04569e-07
-1.40139e-06
7.71729e-07
-1.58284e-06
8.30109e-07
-1.75719e-06
8.76214e-07
-1.92019e-06
9.08175e-07
-2.0698e-06
9.25886e-07
-2.2059e-06
9.30796e-07
-2.32923e-06
9.24395e-07
-2.44082e-06
9.08427e-07
-2.54173e-06
8.84529e-07
-2.63294e-06
8.54175e-07
-2.71529e-06
8.18543e-07
-2.78948e-06
7.7864e-07
-2.85611e-06
7.35263e-07
-2.91574e-06
6.89058e-07
-2.96884e-06
6.40571e-07
-3.01583e-06
5.90228e-07
-3.05708e-06
5.38409e-07
-3.09273e-06
4.8517e-07
-3.123e-06
4.30897e-07
-3.14812e-06
3.75861e-07
-3.1683e-06
3.20168e-07
-3.18405e-06
2.63701e-07
-3.19501e-06
2.0628e-07
-3.20117e-06
1.47779e-07
-3.20237e-06
8.80179e-08
-3.19844e-06
2.67241e-08
-3.18947e-06
-3.60562e-08
-3.17542e-06
-1.00632e-07
-3.15627e-06
-1.67419e-07
-3.13192e-06
-2.36659e-07
-3.10211e-06
-3.08644e-07
-3.06646e-06
-3.83556e-07
-3.02457e-06
-4.61546e-07
-2.97555e-06
-5.4287e-07
-2.91786e-06
-6.27357e-07
-2.84997e-06
-7.14363e-07
-2.7698e-06
-8.03183e-07
-2.67545e-06
-8.92508e-07
-2.56564e-06
-9.79531e-07
-2.44004e-06
-1.06085e-06
-2.29889e-06
-1.13381e-06
-2.14254e-06
-1.19435e-06
-1.97155e-06
-1.23954e-06
-1.78763e-06
-1.26531e-06
-1.59339e-06
-1.26784e-06
-1.39205e-06
-1.24455e-06
-1.18725e-06
-1.19345e-06
-9.84104e-07
-1.11284e-06
-7.89126e-07
-1.00439e-06
-6.079e-07
-8.72684e-07
-4.44625e-07
-7.23094e-07
-3.02814e-07
-5.61706e-07
-1.84736e-07
-3.95555e-07
-9.11294e-08
-2.31848e-07
-2.11931e-08
-7.73141e-08
2.69421e-08
6.24303e-08
5.56549e-08
1.82676e-07
6.67334e-08
2.7923e-07
6.14212e-08
3.46663e-07
4.20625e-08
3.76839e-07
1.51028e-08
3.51541e-07
1.9737e-07
3.10439e-08
-1.87736e-07
4.90622e-08
-2.80619e-07
4.83332e-08
-2.45175e-07
3.31648e-08
-1.76135e-07
7.35504e-09
-9.78668e-08
-2.84376e-08
-1.83276e-08
-7.45445e-08
5.9336e-08
-1.31857e-07
1.33817e-07
-2.01632e-07
2.05128e-07
-2.85245e-07
2.74363e-07
-3.83939e-07
3.43353e-07
-4.98567e-07
4.14124e-07
-6.29343e-07
4.88261e-07
-7.75676e-07
5.66407e-07
-9.36016e-07
6.47909e-07
-1.10747e-06
7.30539e-07
-1.28589e-06
8.10908e-07
-1.46646e-06
8.85137e-07
-1.64338e-06
9.48649e-07
-1.81124e-06
9.97969e-07
-1.96656e-06
1.03153e-06
-2.10839e-06
1.05e-06
-2.237e-06
1.0545e-06
-2.35329e-06
1.04709e-06
-2.45831e-06
1.02941e-06
-2.55321e-06
1.00332e-06
-2.63895e-06
9.7027e-07
-2.71632e-06
9.31543e-07
-2.78596e-06
8.88186e-07
-2.84841e-06
8.41094e-07
-2.90415e-06
7.90994e-07
-2.95357e-06
7.38482e-07
-2.99702e-06
6.84018e-07
-3.03472e-06
6.27935e-07
-3.06718e-06
5.70861e-07
-3.0951e-06
5.13096e-07
-3.1189e-06
4.54694e-07
-3.13863e-06
3.95593e-07
-3.15402e-06
3.35553e-07
-3.1654e-06
2.75088e-07
-3.1727e-06
2.13575e-07
-3.1761e-06
1.51184e-07
-3.17574e-06
8.7657e-08
-3.17169e-06
2.26686e-08
-3.16412e-06
-4.36183e-08
-3.153e-06
-1.11752e-07
-3.13822e-06
-1.82199e-07
-3.11961e-06
-2.55273e-07
-3.09691e-06
-3.31349e-07
-3.06974e-06
-4.10722e-07
-3.03774e-06
-4.93546e-07
-3.00063e-06
-5.79974e-07
-2.95783e-06
-6.70162e-07
-2.90857e-06
-7.6362e-07
-2.85197e-06
-8.59783e-07
-2.78671e-06
-9.57772e-07
-2.70945e-06
-1.05679e-06
-2.61575e-06
-1.15455e-06
-2.50227e-06
-1.24728e-06
-2.36816e-06
-1.32847e-06
-2.21461e-06
-1.39308e-06
-2.04396e-06
-1.43597e-06
-1.85717e-06
-1.45463e-06
-1.65766e-06
-1.44405e-06
-1.44877e-06
-1.40234e-06
-1.23532e-06
-1.32629e-06
-1.02346e-06
-1.21625e-06
-8.21133e-07
-1.07501e-06
-6.34693e-07
-9.09534e-07
-4.68788e-07
-7.27612e-07
-3.27132e-07
-5.37211e-07
-2.11775e-07
-3.47205e-07
-1.22808e-07
-1.66281e-07
-5.87184e-08
-1.65946e-09
-1.60266e-08
1.39984e-07
8.21575e-09
2.54987e-07
1.65285e-08
3.3835e-07
1.24485e-08
3.80919e-07
2.23307e-09
3.61756e-07
1.99603e-07
2.29993e-08
-2.10735e-07
2.52199e-08
-2.82839e-07
8.38562e-09
-2.28341e-07
-2.0857e-08
-1.46892e-07
-6.02436e-08
-5.84802e-08
-1.09679e-07
3.11076e-08
-1.69926e-07
1.19584e-07
-2.42159e-07
2.06049e-07
-3.2766e-07
2.90629e-07
-4.27601e-07
3.74304e-07
-5.42815e-07
4.58567e-07
-6.73533e-07
5.44842e-07
-8.19205e-07
6.33933e-07
-9.78307e-07
7.25508e-07
-1.14782e-06
8.17425e-07
-1.32343e-06
9.06151e-07
-1.50002e-06
9.87491e-07
-1.67145e-06
1.05657e-06
-1.83286e-06
1.11005e-06
-1.98163e-06
1.14674e-06
-2.117e-06
1.16691e-06
-2.23933e-06
1.17233e-06
-2.3496e-06
1.16478e-06
-2.44892e-06
1.1464e-06
-2.53836e-06
1.11885e-06
-2.61885e-06
1.08381e-06
-2.69112e-06
1.04254e-06
-2.75578e-06
9.96203e-07
-2.81334e-06
9.4574e-07
-2.86423e-06
8.91985e-07
-2.90887e-06
8.3563e-07
-2.94768e-06
7.77292e-07
-2.98125e-06
7.17587e-07
-3.0102e-06
6.56887e-07
-3.0346e-06
5.95266e-07
-3.05451e-06
5.33004e-07
-3.06997e-06
4.7015e-07
-3.08118e-06
4.0681e-07
-3.08877e-06
3.43135e-07
-3.09297e-06
2.79287e-07
-3.09427e-06
2.14876e-07
-3.09294e-06
1.49854e-07
-3.08922e-06
8.39426e-08
-3.08336e-06
1.68069e-08
-3.07537e-06
-5.16036e-08
-3.06524e-06
-1.21889e-07
-3.053e-06
-1.94439e-07
-3.03864e-06
-2.69629e-07
-3.02211e-06
-3.47876e-07
-3.00328e-06
-4.29553e-07
-2.98185e-06
-5.14979e-07
-2.95736e-06
-6.04467e-07
-2.92925e-06
-6.98267e-07
-2.89657e-06
-7.96305e-07
-2.85814e-06
-8.98208e-07
-2.81294e-06
-1.00298e-06
-2.75977e-06
-1.10996e-06
-2.69708e-06
-1.21725e-06
-2.62205e-06
-1.32231e-06
-2.52769e-06
-1.42283e-06
-2.40791e-06
-1.51286e-06
-2.26183e-06
-1.58204e-06
-2.09236e-06
-1.62411e-06
-1.90372e-06
-1.63268e-06
-1.69824e-06
-1.60783e-06
-1.48086e-06
-1.54366e-06
-1.25736e-06
-1.43976e-06
-1.03551e-06
-1.29686e-06
-8.2497e-07
-1.12008e-06
-6.3315e-07
-9.19432e-07
-4.65178e-07
-7.05183e-07
-3.2485e-07
-4.87533e-07
-2.13803e-07
-2.77327e-07
-1.31043e-07
-8.44194e-08
-7.39415e-08
8.2882e-08
-3.76714e-08
2.18717e-07
-1.78532e-08
3.18532e-07
-8.95494e-09
3.72021e-07
-5.66475e-09
3.58466e-07
1.93938e-07
1.18454e-08
-2.2258e-07
-2.97895e-09
-2.68015e-07
-3.49438e-08
-1.96376e-07
-7.82003e-08
-1.03636e-07
-1.31201e-07
-5.47992e-09
-1.94295e-07
9.42016e-08
-2.68583e-07
1.93872e-07
-3.55296e-07
2.92762e-07
-4.55543e-07
3.90876e-07
-5.70116e-07
4.88878e-07
-6.99267e-07
5.87717e-07
-8.42547e-07
6.88123e-07
-9.98595e-07
7.89981e-07
-1.16445e-06
8.91366e-07
-1.33576e-06
9.88729e-07
-1.50727e-06
1.07766e-06
-1.67317e-06
1.15339e-06
-1.82889e-06
1.21229e-06
-1.97211e-06
1.25327e-06
-2.10197e-06
1.2766e-06
-2.21894e-06
1.28387e-06
-2.32392e-06
1.27731e-06
-2.41805e-06
1.25892e-06
-2.50232e-06
1.23067e-06
-2.57758e-06
1.19412e-06
-2.64451e-06
1.15074e-06
-2.70368e-06
1.10171e-06
-2.75558e-06
1.04811e-06
-2.8007e-06
9.90859e-07
-2.83951e-06
9.30789e-07
-2.87248e-06
8.68603e-07
-2.90009e-06
8.04899e-07
-2.92258e-06
7.40082e-07
-2.94029e-06
6.74591e-07
-2.95364e-06
6.0862e-07
-2.96313e-06
5.42496e-07
-2.96935e-06
4.76366e-07
-2.97281e-06
4.10269e-07
-2.97385e-06
3.44183e-07
-2.97263e-06
2.78066e-07
-2.96947e-06
2.11713e-07
-2.96458e-06
1.44965e-07
-2.95817e-06
7.75317e-08
-2.95042e-06
9.06123e-09
-2.94145e-06
-6.05761e-08
-2.93139e-06
-1.3195e-07
-2.9204e-06
-2.05426e-07
-2.90861e-06
-2.81425e-07
-2.89609e-06
-3.6039e-07
-2.88289e-06
-4.42756e-07
-2.86891e-06
-5.28954e-07
-2.85397e-06
-6.19406e-07
-2.83777e-06
-7.1447e-07
-2.81975e-06
-8.14328e-07
-2.79904e-06
-9.18921e-07
-2.77413e-06
-1.02788e-06
-2.74345e-06
-1.14064e-06
-2.70488e-06
-1.25581e-06
-2.65654e-06
-1.37066e-06
-2.59596e-06
-1.48341e-06
-2.51948e-06
-1.58933e-06
-2.41726e-06
-1.68426e-06
-2.2826e-06
-1.75877e-06
-2.11644e-06
-1.79884e-06
-1.92572e-06
-1.79855e-06
-1.71351e-06
-1.75587e-06
-1.48632e-06
-1.66694e-06
-1.25117e-06
-1.53201e-06
-1.01831e-06
-1.35294e-06
-7.99336e-07
-1.13841e-06
-6.02801e-07
-9.01719e-07
-4.34235e-07
-6.56099e-07
-2.97244e-07
-4.14318e-07
-1.9254e-07
-1.89123e-07
-1.18224e-07
8.56617e-09
-6.91612e-08
1.69654e-07
-3.92763e-08
2.88647e-07
-2.06579e-08
3.53402e-07
-8.82432e-09
3.46632e-07
1.85114e-07
-1.37167e-09
-2.21209e-07
-3.25006e-08
-2.36886e-07
-7.95947e-08
-1.49282e-07
-1.36663e-07
-4.65676e-08
-2.02967e-07
6.08242e-08
-2.79365e-07
1.70599e-07
-3.67052e-07
2.81559e-07
-4.67153e-07
3.92863e-07
-5.80455e-07
5.04179e-07
-7.07242e-07
6.15664e-07
-8.47164e-07
7.2764e-07
-9.99076e-07
8.40035e-07
-1.16028e-06
9.51185e-07
-1.32651e-06
1.0576e-06
-1.49263e-06
1.15484e-06
-1.65326e-06
1.2383e-06
-1.80402e-06
1.30415e-06
-1.94248e-06
1.35076e-06
-2.06774e-06
1.37852e-06
-2.18002e-06
1.38889e-06
-2.28034e-06
1.38419e-06
-2.36969e-06
1.36665e-06
-2.449e-06
1.33823e-06
-2.51902e-06
1.30069e-06
-2.58042e-06
1.25551e-06
-2.63371e-06
1.20404e-06
-2.67943e-06
1.14743e-06
-2.71809e-06
1.08677e-06
-2.75024e-06
1.02301e-06
-2.77643e-06
9.56978e-07
-2.79721e-06
8.89382e-07
-2.8131e-06
8.20794e-07
-2.82468e-06
7.51658e-07
-2.83247e-06
6.82378e-07
-2.83704e-06
6.13198e-07
-2.83889e-06
5.44345e-07
-2.83842e-06
4.75892e-07
-2.83597e-06
4.0782e-07
-2.83185e-06
3.40059e-07
-2.82627e-06
2.72494e-07
-2.81948e-06
2.04921e-07
-2.81165e-06
1.37134e-07
-2.80298e-06
6.88602e-08
-2.79361e-06
-3.07484e-10
-2.78376e-06
-7.04311e-08
-2.77355e-06
-1.42157e-07
-2.76318e-06
-2.1579e-07
-2.75285e-06
-2.9176e-07
-2.74272e-06
-3.7052e-07
-2.73294e-06
-4.52533e-07
-2.72362e-06
-5.38276e-07
-2.7148e-06
-6.28226e-07
-2.70645e-06
-7.22821e-07
-2.69837e-06
-8.22413e-07
-2.69007e-06
-9.2722e-07
-2.68065e-06
-1.03729e-06
-2.66891e-06
-1.15239e-06
-2.65301e-06
-1.27171e-06
-2.62991e-06
-1.39376e-06
-2.5969e-06
-1.51642e-06
-2.55073e-06
-1.63551e-06
-2.48756e-06
-1.74743e-06
-2.40117e-06
-1.84516e-06
-2.27821e-06
-1.92181e-06
-2.1169e-06
-1.95986e-06
-1.92294e-06
-1.94982e-06
-1.70283e-06
-1.88706e-06
-1.46392e-06
-1.77091e-06
-1.216e-06
-1.60087e-06
-9.71781e-07
-1.38262e-06
-7.45116e-07
-1.12838e-06
-5.45664e-07
-8.55551e-07
-3.79096e-07
-5.80886e-07
-2.48347e-07
-3.19872e-07
-1.5275e-07
-8.70314e-08
-8.84377e-08
1.05342e-07
-4.81445e-08
2.48354e-07
-2.29859e-08
3.28243e-07
-7.43759e-09
3.31084e-07
1.77676e-07
-1.54079e-08
-2.05801e-07
-6.28382e-08
-1.89456e-07
-1.24082e-07
-8.80383e-08
-1.94272e-07
2.36232e-08
-2.73259e-07
1.39811e-07
-3.62125e-07
2.59465e-07
-4.62048e-07
3.81482e-07
-5.73901e-07
5.04717e-07
-6.9805e-07
6.28327e-07
-8.34248e-07
7.51862e-07
-9.81559e-07
8.74951e-07
-1.13764e-06
9.96114e-07
-1.29853e-06
1.11207e-06
-1.45934e-06
1.21841e-06
-1.61511e-06
1.31061e-06
-1.7616e-06
1.38479e-06
-1.89606e-06
1.43861e-06
-2.01744e-06
1.47214e-06
-2.12582e-06
1.48691e-06
-2.22205e-06
1.48511e-06
-2.30708e-06
1.46923e-06
-2.38176e-06
1.44133e-06
-2.4468e-06
1.40327e-06
-2.50281e-06
1.3567e-06
-2.55036e-06
1.30306e-06
-2.59002e-06
1.2437e-06
-2.62243e-06
1.17984e-06
-2.64824e-06
1.11258e-06
-2.66814e-06
1.04291e-06
-2.68282e-06
9.71658e-07
-2.69295e-06
8.99515e-07
-2.69919e-06
8.27031e-07
-2.70216e-06
7.54625e-07
-2.7024e-06
6.82621e-07
-2.70042e-06
6.11214e-07
-2.69659e-06
5.40519e-07
-2.69124e-06
4.70541e-07
-2.68463e-06
4.01211e-07
-2.67699e-06
3.32419e-07
-2.6685e-06
2.64005e-07
-2.65934e-06
1.95753e-07
-2.64963e-06
1.27431e-07
-2.63953e-06
5.87586e-08
-2.62926e-06
-1.05759e-08
-2.61885e-06
-8.08475e-08
-2.60854e-06
-1.52467e-07
-2.59852e-06
-2.2581e-07
-2.58899e-06
-3.01287e-07
-2.58018e-06
-3.79332e-07
-2.57231e-06
-4.60405e-07
-2.56559e-06
-5.44991e-07
-2.56023e-06
-6.33587e-07
-2.55637e-06
-7.2668e-07
-2.55406e-06
-8.24722e-07
-2.55318e-06
-9.28104e-07
-2.55336e-06
-1.03711e-06
-2.55393e-06
-1.15182e-06
-2.55366e-06
-1.27197e-06
-2.55056e-06
-1.39686e-06
-2.54195e-06
-1.52503e-06
-2.52354e-06
-1.65392e-06
-2.49117e-06
-1.7798e-06
-2.44007e-06
-1.89626e-06
-2.36412e-06
-1.99776e-06
-2.25103e-06
-2.07295e-06
-2.09325e-06
-2.1076e-06
-1.89538e-06
-2.08493e-06
-1.66542e-06
-2.00088e-06
-1.41339e-06
-1.85289e-06
-1.15209e-06
-1.64392e-06
-8.97207e-07
-1.38327e-06
-6.6498e-07
-1.08778e-06
-4.65962e-07
-7.79904e-07
-3.05232e-07
-4.80602e-07
-1.84458e-07
-2.07806e-07
-1.01122e-07
2.20064e-08
-4.85956e-08
1.95827e-07
-1.82794e-08
2.97927e-07
-2.87822e-09
3.15683e-07
1.74798e-07
-2.97951e-08
-1.76006e-07
-9.23024e-08
-1.26948e-07
-1.66797e-07
-1.35435e-08
-2.49209e-07
1.06035e-07
-3.3991e-07
2.30513e-07
-4.40039e-07
3.59593e-07
-5.50636e-07
4.9208e-07
-6.72247e-07
6.26327e-07
-8.04779e-07
7.6086e-07
-9.47482e-07
8.94565e-07
-1.09837e-06
1.02584e-06
-1.25393e-06
1.15168e-06
-1.4097e-06
1.26784e-06
-1.56105e-06
1.36976e-06
-1.70391e-06
1.45347e-06
-1.8352e-06
1.51608e-06
-1.9535e-06
1.55691e-06
-2.05875e-06
1.57739e-06
-2.15158e-06
1.57974e-06
-2.2329e-06
1.56644e-06
-2.30351e-06
1.53984e-06
-2.36408e-06
1.5019e-06
-2.41524e-06
1.45443e-06
-2.45759e-06
1.39905e-06
-2.49182e-06
1.33729e-06
-2.51866e-06
1.27054e-06
-2.53891e-06
1.20009e-06
-2.55339e-06
1.12707e-06
-2.56292e-06
1.05244e-06
-2.56827e-06
9.77005e-07
-2.57015e-06
9.01401e-07
-2.56922e-06
8.26101e-07
-2.56604e-06
7.51444e-07
-2.56107e-06
6.77655e-07
-2.55471e-06
6.04846e-07
-2.54723e-06
5.33042e-07
-2.53887e-06
4.62183e-07
-2.52982e-06
3.9216e-07
-2.52022e-06
3.22822e-07
-2.5102e-06
2.53983e-07
-2.49986e-06
1.8541e-07
-2.48929e-06
1.16865e-07
-2.47861e-06
4.80764e-08
-2.46794e-06
-2.12429e-08
-2.45739e-06
-9.1402e-08
-2.44711e-06
-1.62739e-07
-2.43731e-06
-2.35612e-07
-2.4282e-06
-3.10403e-07
-2.42001e-06
-3.87517e-07
-2.41302e-06
-4.67392e-07
-2.40752e-06
-5.50492e-07
-2.4038e-06
-6.37309e-07
-2.40213e-06
-7.2835e-07
-2.40273e-06
-8.24124e-07
-2.40571e-06
-9.25124e-07
-2.41104e-06
-1.03179e-06
-2.41843e-06
-1.14443e-06
-2.42725e-06
-1.26315e-06
-2.43636e-06
-1.38776e-06
-2.44388e-06
-1.51751e-06
-2.44686e-06
-1.65093e-06
-2.44126e-06
-1.7854e-06
-2.42088e-06
-1.91664e-06
-2.38026e-06
-2.03837e-06
-2.31178e-06
-2.14143e-06
-2.20408e-06
-2.2153e-06
-2.04676e-06
-2.24225e-06
-1.84298e-06
-2.20466e-06
-1.6012e-06
-2.09467e-06
-1.335e-06
-1.91012e-06
-1.06062e-06
-1.65765e-06
-7.97289e-07
-1.35111e-06
-5.63653e-07
-1.01354e-06
-3.7012e-07
-6.74135e-07
-2.20616e-07
-3.5731e-07
-1.14771e-07
-8.38383e-08
-4.74578e-08
1.28514e-07
-1.10786e-08
2.61548e-07
3.03212e-09
3.01572e-07
1.7783e-07
-4.36154e-08
-1.32391e-07
-1.19857e-07
-5.07064e-08
-2.06354e-07
7.29534e-08
-2.99921e-07
1.99601e-07
-4.01071e-07
3.31663e-07
-5.10956e-07
4.69478e-07
-6.30401e-07
6.11525e-07
-7.59578e-07
7.55504e-07
-8.97973e-07
8.99255e-07
-1.04389e-06
1.04048e-06
-1.19434e-06
1.17629e-06
-1.34543e-06
1.30277e-06
-1.49284e-06
1.41525e-06
-1.63264e-06
1.50956e-06
-1.76155e-06
1.58238e-06
-1.87766e-06
1.63218e-06
-1.98061e-06
1.65986e-06
-2.0709e-06
1.66768e-06
-2.14929e-06
1.65813e-06
-2.21659e-06
1.63374e-06
-2.27345e-06
1.5967e-06
-2.32054e-06
1.54898e-06
-2.35853e-06
1.49242e-06
-2.3882e-06
1.42872e-06
-2.41041e-06
1.3595e-06
-2.42609e-06
1.28622e-06
-2.43617e-06
1.21017e-06
-2.44157e-06
1.13247e-06
-2.44314e-06
1.05401e-06
-2.44166e-06
9.75522e-07
-2.43779e-06
8.97528e-07
-2.43209e-06
8.20401e-07
-2.42502e-06
7.44374e-07
-2.41694e-06
6.69573e-07
-2.40811e-06
5.96022e-07
-2.39874e-06
5.23673e-07
-2.38897e-06
4.52414e-07
-2.37891e-06
3.82093e-07
-2.36862e-06
3.12531e-07
-2.35816e-06
2.43527e-07
-2.34759e-06
1.74836e-07
-2.33694e-06
1.06218e-07
-2.32629e-06
3.74236e-08
-2.3157e-06
-3.18245e-08
-2.30529e-06
-1.01814e-07
-2.29519e-06
-1.72847e-07
-2.28555e-06
-2.45244e-07
-2.27661e-06
-3.19348e-07
-2.2686e-06
-3.95525e-07
-2.26182e-06
-4.74171e-07
-2.2566e-06
-5.55717e-07
-2.25328e-06
-6.40627e-07
-2.25223e-06
-7.294e-07
-2.25379e-06
-8.22565e-07
-2.25824e-06
-9.2067e-07
-2.26577e-06
-1.02426e-06
-2.27638e-06
-1.13381e-06
-2.28982e-06
-1.24972e-06
-2.30544e-06
-1.37213e-06
-2.32208e-06
-1.50087e-06
-2.33782e-06
-1.63519e-06
-2.34972e-06
-1.77351e-06
-2.35334e-06
-1.91302e-06
-2.34265e-06
-2.04906e-06
-2.30963e-06
-2.17445e-06
-2.2463e-06
-2.27863e-06
-2.13936e-06
-2.34919e-06
-1.97908e-06
-2.36494e-06
-1.76594e-06
-2.30781e-06
-1.51038e-06
-2.16568e-06
-1.22957e-06
-1.93846e-06
-9.43809e-07
-1.63687e-06
-6.76488e-07
-1.28086e-06
-4.47921e-07
-9.02703e-07
-2.67045e-07
-5.38186e-07
-1.3584e-07
-2.15043e-07
-5.09948e-08
4.36686e-08
-6.27883e-09
2.16832e-07
7.81339e-09
2.8748e-07
1.85643e-07
-5.62911e-08
-7.60994e-08
-1.44617e-07
3.762e-08
-2.41839e-07
1.70175e-07
-3.45175e-07
3.02937e-07
-4.55277e-07
4.41765e-07
-5.73202e-07
5.87403e-07
-6.99519e-07
7.37842e-07
-8.34028e-07
8.90014e-07
-9.75377e-07
1.0406e-06
-1.12107e-06
1.18617e-06
-1.26789e-06
1.32311e-06
-1.41184e-06
1.44672e-06
-1.54911e-06
1.55252e-06
-1.67635e-06
1.63679e-06
-1.79116e-06
1.6972e-06
-1.89277e-06
1.73379e-06
-1.98144e-06
1.74854e-06
-2.05784e-06
1.74408e-06
-2.12274e-06
1.72303e-06
-2.17684e-06
1.68783e-06
-2.22082e-06
1.64068e-06
-2.25544e-06
1.5836e-06
-2.28157e-06
1.51855e-06
-2.30019e-06
1.44734e-06
-2.31233e-06
1.37163e-06
-2.31903e-06
1.29292e-06
-2.32129e-06
1.21244e-06
-2.32005e-06
1.13122e-06
-2.3161e-06
1.05006e-06
-2.31014e-06
9.69561e-07
-2.30273e-06
8.90117e-07
-2.29431e-06
8.11987e-07
-2.28524e-06
7.35298e-07
-2.27574e-06
6.60078e-07
-2.266e-06
5.86275e-07
-2.2561e-06
5.1378e-07
-2.24613e-06
4.42437e-07
-2.2361e-06
3.72065e-07
-2.22603e-06
3.0246e-07
-2.21592e-06
2.33415e-07
-2.20577e-06
1.64687e-07
-2.19558e-06
9.60306e-08
-2.18538e-06
2.72276e-08
-2.17522e-06
-4.1984e-08
-2.16518e-06
-1.11863e-07
-2.15535e-06
-1.82673e-07
-2.14589e-06
-2.54698e-07
-2.13701e-06
-3.28235e-07
-2.12893e-06
-4.03603e-07
-2.12195e-06
-4.8115e-07
-2.11641e-06
-5.61257e-07
-2.11269e-06
-6.44345e-07
-2.11121e-06
-7.30882e-07
-2.11239e-06
-8.21385e-07
-2.11664e-06
-9.16418e-07
-2.12432e-06
-1.01658e-06
-2.13566e-06
-1.12247e-06
-2.1507e-06
-1.23468e-06