/*--------------------------------*- C++ -*----------------------------------*\
  =========                 |
  \\      /  F ield         | OpenFOAM: The Open Source CFD Toolbox
   \\    /   O peration     | Website:  https://openfoam.org
    \\  /    A nd           | Version:  13
     \\/     M anipulation  |
\*---------------------------------------------------------------------------*/
FoamFile
{
    format      ascii;
    class       volScalarField;
    location    "1900";
    object      k;
}
// * * * * * * * * * * * * * * * * * * * * * * * * * * * * * * * * * * * * * //

dimensions      [0 2 -2 0 0 0 0];

internalField   nonuniform List<scalar> 
12225
(
0.498339
1.54654
1.85644
3.8075
2.76823
2.21904
1.87991
2.43077
1.92531
1.62481
1.74675
1.20892
1.19955
1.21838
1.20871
1.21884
1.02543
2.33611
0.0481021
0.0449044
0.0566744
0.0657053
0.0747946
0.0783145
0.0668867
0.123831
0.110761
0.0864396
0.11626
0.106155
0.124838
0.16443
0.101253
0.215472
0.0183057
0.071228
0.0774157
0.0469298
0.0307224
0.0109282
0.00551118
0.00655423
0.0018884
0.00152943
0.00194649
0.00196365
0.00290613
0.00381163
0.00113769
0.00321147
0.000346669
0.00407307
0.00139176
0.000888905
0.171539
0.0548344
0.187996
0.0477914
0.0190566
0.0122942
0.00661212
0.00263096
0.00159657
0.00125817
0.00109641
0.000814976
0.000617341
0.000741557
0.000324022
0.00416463
0.000758848
0.000741956
0.34433
0.215876
0.194595
0.162237
0.147666
0.118262
0.0679096
0.0334729
0.0158911
0.0138087
0.0112562
0.0095819
0.0104867
0.0139507
0.0296314
0.0205479
0.0224582
0.0222314
0.367727
0.35806
0.226882
0.189469
0.206237
0.161209
0.11046
0.0898009
0.0820813
0.0571476
0.0536721
0.0525045
0.0676695
0.100046
0.0990241
0.117519
0.106251
0.117525
0.374646
0.367012
0.331194
0.335948
0.256611
0.26011
0.251613
0.242139
0.236217
0.224922
0.215575
0.214686
0.199493
0.197266
0.203803
0.206476
0.20852
0.204676
0.37334
0.366668
0.357051
0.347653
0.334863
0.328
0.321322
0.314218
0.308591
0.303308
0.299154
0.295412
0.292147
0.289637
0.286677
0.286514
0.280382
0.276905
0.37353
0.370766
0.365091
0.360812
0.355745
0.350933
0.346398
0.341937
0.337984
0.334411
0.331326
0.328447
0.326052
0.323597
0.32187
0.319903
0.317915
0.317172
0.373627
0.37147
0.368258
0.365359
0.362181
0.359092
0.356091
0.353037
0.350215
0.347492
0.345058
0.342709
0.340694
0.338675
0.337086
0.335311
0.334078
0.332467
0.373847
0.371556
0.369142
0.366836
0.364521
0.362188
0.359919
0.35764
0.355461
0.35331
0.351326
0.349373
0.347643
0.345927
0.344466
0.342965
0.341752
0.340394
0.373857
0.371565
0.369354
0.36724
0.365209
0.363196
0.361253
0.359325
0.357479
0.355648
0.353932
0.352241
0.350693
0.349173
0.347818
0.346471
0.345304
0.344082
0.37384
0.371563
0.369402
0.367346
0.365403
0.363524
0.361731
0.359982
0.35831
0.356674
0.355124
0.353609
0.352192
0.350812
0.349541
0.348298
0.347169
0.34604
0.373831
0.371559
0.369407
0.367364
0.365433
0.363592
0.361845
0.36017
0.358575
0.357038
0.355575
0.354166
0.352826
0.35154
0.350323
0.349154
0.348054
0.346993
0.373827
0.371555
0.369402
0.36736
0.365425
0.363587
0.361844
0.360184
0.358605
0.3571
0.355664
0.354295
0.352987
0.351739
0.350548
0.349412
0.348329
0.347293
0.373826
0.371553
0.369397
0.367353
0.365414
0.363573
0.361826
0.360164
0.358586
0.35708
0.355651
0.354284
0.352985
0.351741
0.35056
0.349427
0.348351
0.347319
0.373825
0.371551
0.369393
0.367347
0.365405
0.363562
0.361811
0.360147
0.358563
0.357058
0.355622
0.354256
0.352952
0.351711
0.350524
0.349395
0.348314
0.347285
0.373825
0.37155
0.369391
0.367344
0.3654
0.363556
0.361802
0.360136
0.358549
0.357041
0.355603
0.354234
0.352928
0.351685
0.350496
0.349365
0.348283
0.347253
0.373825
0.371549
0.369391
0.367343
0.365399
0.363553
0.361799
0.360131
0.358544
0.357034
0.355595
0.354225
0.352918
0.351673
0.350484
0.349352
0.348269
0.347238
0.373825
0.37155
0.369393
0.367346
0.365403
0.363558
0.361804
0.360138
0.35855
0.357041
0.355602
0.354233
0.352926
0.351683
0.350493
0.349361
0.348275
0.347241
0.373825
0.371553
0.369396
0.367352
0.36541
0.363568
0.361816
0.360151
0.358565
0.357058
0.355622
0.354254
0.35295
0.351703
0.350508
0.349358
0.348251
0.347179
0.373825
0.371557
0.369401
0.367361
0.365421
0.363585
0.361832
0.360174
0.358588
0.357088
0.355655
0.354292
0.352981
0.351706
0.350452
0.3492
0.347956
0.346692
0.373824
0.371565
0.369406
0.367379
0.365436
0.363614
0.361859
0.360213
0.358625
0.357138
0.355704
0.354333
0.352967
0.351547
0.350039
0.34837
0.346607
0.344647
0.373821
0.371578
0.369419
0.367413
0.365472
0.363683
0.361918
0.360292
0.35868
0.357206
0.355739
0.3543
0.352717
0.350845
0.348609
0.345839
0.342724
0.339051
0.373811
0.37161
0.369473
0.367512
0.365627
0.363886
0.362111
0.360469
0.358771
0.357251
0.35565
0.354017
0.351905
0.349044
0.345198
0.340156
0.334146
0.327085
0.373785
0.371776
0.36974
0.367964
0.366287
0.364593
0.362788
0.360951
0.359036
0.357234
0.355332
0.353228
0.350093
0.345499
0.338669
0.329916
0.318701
0.306412
0.37387
0.372814
0.371205
0.370109
0.368918
0.367272
0.365381
0.36288
0.360528
0.357718
0.355405
0.352022
0.347837
0.34
0.329025
0.314784
0.296696
0.277806
0.375651
0.379495
0.379581
0.381152
0.381525
0.380713
0.378792
0.375077
0.371799
0.367336
0.364735
0.359603
0.356713
0.34611
0.335463
0.318129
0.302954
0.281587
0.40004
0.423743
0.446563
0.468394
0.487274
0.500969
0.511824
0.519898
0.528229
0.535706
0.54617
0.556657
0.570295
0.582923
0.597685
0.609509
0.621886
0.629878
0.970762
1.27315
1.46196
1.55816
1.60585
1.60116
1.58337
1.55351
1.51484
1.47599
1.43881
1.4043
1.37296
1.34481
1.31942
1.29711
1.27679
1.25882
1.96587e-08
4.84612e-07
2.45242e-06
9.51832e-06
3.12161e-05
9.23747e-05
0.000241137
0.000477407
0.000774482
0.0010895
0.00137535
0.00159611
0.0017463
0.00180378
0.00178263
0.00171593
0.00158238
0.00136877
0.00115839
0.000983687
0.000819969
0.000662685
0.00051065
0.000369745
0.000242524
0.000142921
7.57652e-05
3.76833e-05
1.86781e-05
9.76819e-06
5.61029e-06
3.94392e-06
4.13988e-06
8.08125e-06
1.96455e-05
4.85903e-05
0.000249561
0.000518263
0.000918554
0.00114898
0.00110977
0.000966178
0.000786813
0.00073391
0.000774262
0.0009719
0.0012051
0.00215094
0.00424561
0.0108595
0.03208
0.0668795
0.0975476
0.110693
0.116098
0.134479
0.139063
0.135453
0.152309
0.17287
0.148508
0.165385
0.179322
0.156618
0.176532
0.180655
0.191101
0.198205
0.20675
0.214295
0.222143
0.229658
0.237163
0.244537
0.251824
0.259038
0.266155
0.27321
0.280174
0.287076
0.293894
0.300642
0.307313
0.313904
0.320423
0.326849
0.333204
0.339448
0.345613
0.351658
0.3576
0.36343
0.369139
0.374722
0.380164
0.385461
0.390594
0.395566
0.400367
0.405021
0.409568
0.414011
0.418313
0.422504
0.426577
0.430525
0.434357
0.438046
0.441614
0.445033
0.448323
0.45146
0.454458
0.457304
0.46
0.462543
0.464923
0.467152
0.469218
0.471138
0.472883
0.47446
0.47583
0.477031
0.478015
0.478845
0.479454
0.479912
0.48014
0.480148
0.480152
0.480025
0.47957
0.479085
0.478294
0.477491
0.476531
0.475419
0.47396
0.472387
0.470606
0.468695
0.466616
0.464405
0.462048
0.459571
0.456974
0.454296
0.451444
0.448597
0.445528
0.442524
0.439284
0.436143
0.432762
0.429514
0.426025
0.422667
0.419172
0.415701
0.412223
0.408746
0.405285
0.401833
0.398404
0.394988
0.391602
0.388241
0.384921
0.381638
0.378403
0.375203
0.372039
0.368872
0.365667
0.362325
0.358731
0.354562
0.349166
0.332693
9.06831e-08
2.55569e-06
1.693e-05
7.0889e-05
0.000255781
0.000732035
0.00171004
0.00309629
0.00471988
0.00639542
0.00794333
0.00921029
0.0101684
0.0107408
0.0110793
0.0110402
0.0108776
0.0105105
0.00993212
0.00912788
0.00810516
0.00691872
0.00560514
0.00428207
0.00297479
0.00197169
0.00124486
0.000762885
0.000454728
0.000269355
0.000165166
0.000110935
9.49295e-05
0.000126916
0.000253938
0.000469136
0.00245899
0.00510907
0.00851262
0.0108575
0.0116241
0.0114041
0.0114091
0.0122951
0.0151253
0.0194642
0.026767
0.0401706
0.0623688
0.0852059
0.108699
0.129532
0.146747
0.160668
0.176259
0.193853
0.210101
0.22546
0.241827
0.261845
0.277114
0.295115
0.31611
0.332671
0.352988
0.370836
0.389573
0.407467
0.425442
0.443078
0.460631
0.478019
0.495304
0.512495
0.529596
0.546632
0.563592
0.580495
0.597329
0.614107
0.630816
0.647461
0.664033
0.680529
0.696945
0.713269
0.729496
0.745606
0.761594
0.777425
0.793106
0.808619
0.823957
0.839104
0.854035
0.868732
0.883162
0.897301
0.911107
0.92455
0.937579
0.950281
0.962807
0.9751
0.987173
0.999017
1.01061
1.02195
1.03303
1.04383
1.05434
1.06457
1.07449
1.08411
1.09341
1.10239
1.11103
1.11933
1.1273
1.13492
1.14218
1.14903
1.15546
1.16145
1.16702
1.17214
1.17683
1.18108
1.18488
1.18824
1.19116
1.19364
1.19565
1.19726
1.19819
1.19911
1.19945
1.19968
1.19971
1.19921
1.19824
1.19685
1.19501
1.19277
1.1901
1.18706
1.18364
1.17986
1.17573
1.17126
1.16648
1.16138
1.15599
1.15032
1.14439
1.1382
1.13179
1.12515
1.11833
1.11135
1.10423
1.09699
1.08964
1.08219
1.07464
1.067
1.05929
1.05151
1.04368
1.0358
1.0279
1.01997
1.01201
1.00395
0.995737
0.987254
0.978281
0.968502
0.955954
0.927979
1.96944e-07
5.85587e-06
4.42407e-05
0.000202186
0.00076367
0.00187033
0.00389396
0.00625989
0.00865426
0.0108417
0.0126831
0.0141136
0.0151275
0.0157425
0.0160484
0.0160206
0.015867
0.0155196
0.0149989
0.0143419
0.0135497
0.0126114
0.0115076
0.0102413
0.00881903
0.00719371
0.00548997
0.00395956
0.00261658
0.00170398
0.00113568
0.00080622
0.000613833
0.000620067
0.00128363
0.0029142
0.00954903
0.0182413
0.0253348
0.030124
0.0327215
0.0348646
0.0404416
0.0532122
0.0699606
0.0872662
0.106151
0.126553
0.145784
0.165264
0.185434
0.206133
0.227992
0.250994
0.276435
0.303463
0.331191
0.358874
0.386458
0.414701
0.44175
0.468838
0.495946
0.521622
0.547313
0.572131
0.596664
0.620704
0.644463
0.667925
0.691169
0.714222
0.737119
0.759885
0.782535
0.805084
0.827536
0.849899
0.87217
0.894352
0.916438
0.938425
0.960305
0.982071
1.00371
1.02523
1.04659
1.0678
1.08884
1.10968
1.13032
1.15074
1.17093
1.19088
1.21058
1.23
1.24913
1.26797
1.2865
1.30472
1.32264
1.34029
1.35763
1.37467
1.39139
1.40778
1.4238
1.43947
1.45476
1.46966
1.48416
1.49826
1.51193
1.52517
1.53798
1.55034
1.56224
1.57368
1.58465
1.59514
1.60512
1.61457
1.62346
1.63177
1.63951
1.64666
1.65323
1.65919
1.66456
1.66933
1.6735
1.67705
1.68
1.68238
1.68409
1.68527
1.68582
1.68598
1.68552
1.68441
1.6827
1.68039
1.67748
1.67401
1.66997
1.6654
1.66032
1.65472
1.64867
1.64212
1.63517
1.62775
1.61998
1.61177
1.60324
1.59431
1.58511
1.57558
1.56579
1.55577
1.54554
1.53512
1.52453
1.51379
1.50289
1.49186
1.4807
1.46944
1.45809
1.44668
1.43523
1.42374
1.41221
1.40062
1.38892
1.37703
1.36477
1.35191
1.33649
1.31018
7.18651e-07
2.14115e-05
0.000168228
0.000701706
0.0021019
0.00499516
0.0085568
0.0120581
0.0151331
0.017595
0.0193968
0.0205732
0.0212138
0.0213911
0.0212821
0.0209741
0.0204439
0.0197916
0.0190514
0.0182414
0.0173649
0.0164167
0.0153847
0.014244
0.0129732
0.011547
0.00997085
0.00830624
0.00671732
0.00513768
0.00388808
0.00286992
0.00242506
0.00299864
0.00662477
0.0171506
0.032363
0.0451385
0.0549833
0.0634342
0.0730088
0.0854143
0.10033
0.115626
0.130951
0.147066
0.165329
0.18575
0.206866
0.230925
0.256672
0.284624
0.314201
0.345212
0.377463
0.410359
0.44338
0.476112
0.50858
0.540829
0.572382
0.603491
0.634126
0.664004
0.693469
0.722404
0.750972
0.779188
0.807132
0.834845
0.862374
0.889751
0.917004
0.944154
0.971214
0.998191
1.02509
1.05191
1.07864
1.10529
1.13184
1.15829
1.18462
1.21082
1.23689
1.2628
1.28855
1.31412
1.33949
1.36464
1.38955
1.41422
1.43863
1.46276
1.48661
1.51015
1.53337
1.55627
1.57883
1.60104
1.6229
1.6444
1.66551
1.68623
1.70654
1.72642
1.74586
1.76483
1.78333
1.80133
1.81883
1.83582
1.85228
1.86821
1.88359
1.89842
1.91268
1.92636
1.93947
1.95197
1.96385
1.97509
1.98565
1.99551
2.00468
2.01314
2.02089
2.02791
2.03421
2.03976
2.04458
2.04866
2.052
2.05462
2.05648
2.05755
2.05797
2.05776
2.05677
2.05502
2.05255
2.04937
2.04548
2.04091
2.03567
2.02979
2.0233
2.01619
2.00852
2.00027
1.99151
1.98222
1.97247
1.96223
1.95156
1.94044
1.92896
1.91709
1.9049
1.89241
1.87964
1.86664
1.85341
1.83999
1.82637
1.81258
1.79863
1.78455
1.77035
1.75607
1.74174
1.72738
1.71299
1.69859
1.68416
1.66965
1.65496
1.63992
1.62285
1.59823
2.37909e-06
7.1429e-05
0.000536049
0.00209863
0.00582443
0.0111104
0.0161138
0.0201862
0.0231412
0.0250458
0.0260808
0.0264502
0.0263521
0.025991
0.0253381
0.0245422
0.023663
0.0227424
0.0218067
0.0208679
0.019923
0.0189633
0.0179737
0.0169292
0.0158036
0.0145649
0.0131909
0.0117099
0.0102259
0.0088013
0.00724721
0.00638236
0.00777265
0.0147114
0.0317363
0.0522562
0.0704202
0.0849183
0.0966715
0.107507
0.118788
0.130847
0.143768
0.157683
0.174454
0.194199
0.216433
0.241456
0.268621
0.298222
0.329394
0.362062
0.395681
0.430043
0.464933
0.500083
0.535245
0.570243
0.605044
0.639611
0.673782
0.707589
0.741011
0.774003
0.80665
0.838965
0.871007
0.902814
0.934432
0.965901
0.997252
1.02851
1.05971
1.09084
1.12193
1.15297
1.18397
1.21491
1.24578
1.27658
1.3073
1.33791
1.3684
1.39877
1.42899
1.45904
1.48892
1.5186
1.54806
1.57729
1.60625
1.63494
1.66334
1.69144
1.71921
1.74664
1.7737
1.8004
1.8267
1.85259
1.87805
1.90306
1.92761
1.95168
1.97526
1.99831
2.02083
2.04279
2.06418
2.08498
2.10517
2.12475
2.14369
2.162
2.17966
2.19665
2.21297
2.22861
2.24356
2.25781
2.27132
2.28407
2.29604
2.30721
2.31757
2.32712
2.33583
2.3437
2.35072
2.35689
2.3622
2.36665
2.37024
2.373
2.37484
2.37576
2.37599
2.37538
2.37389
2.37155
2.36838
2.36439
2.3596
2.35403
2.34769
2.34062
2.33284
2.32436
2.31522
2.30544
2.29505
2.28406
2.27252
2.26043
2.24783
2.23473
2.22118
2.20719
2.19282
2.17809
2.16303
2.14768
2.13207
2.11621
2.10013
2.08384
2.06735
2.05071
2.03393
2.01705
2.00012
1.98317
1.96621
1.94928
1.93239
1.91555
1.89868
1.8817
1.86319
1.83908
7.46135e-06
0.000219876
0.00158744
0.00567828
0.0132861
0.0201719
0.0252106
0.0284082
0.0301485
0.0308709
0.0308726
0.0305364
0.0298026
0.0288491
0.0277806
0.0266624
0.025542
0.0244502
0.0234039
0.0224068
0.0214506
0.0205212
0.0195972
0.0186478
0.0176472
0.0165575
0.0153256
0.0138983
0.0123481
0.0113537
0.0117464
0.015602
0.0273062
0.049204
0.0737829
0.0950809
0.111248
0.122825
0.131938
0.14079
0.150629
0.162403
0.177425
0.195561
0.217036
0.241676
0.268902
0.298358
0.329477
0.362023
0.395575
0.429953
0.464924
0.500387
0.536243
0.57238
0.608681
0.645047
0.681422
0.717748
0.753941
0.789979
0.825839
0.861504
0.896993
0.932321
0.967514
1.0026
1.03761
1.07258
1.10752
1.14245
1.17739
1.21234
1.2473
1.28227
1.31724
1.35219
1.3871
1.42197
1.45676
1.49146
1.52605
1.56051
1.59483
1.62897
1.66292
1.69666
1.73017
1.76341
1.79638
1.82904
1.86139
1.89339
1.92503
1.95629
1.98713
2.01755
2.04751
2.07699
2.10596
2.13442
2.16232
2.18967
2.21642
2.24257
2.26809
2.29295
2.31714
2.34064
2.36343
2.3855
2.40683
2.42742
2.44725
2.46631
2.48459
2.50209
2.51879
2.53467
2.54971
2.56388
2.57717
2.58955
2.60102
2.61156
2.62115
2.62979
2.63748
2.64419
2.64994
2.6547
2.6585
2.66134
2.66314
2.66392
2.66391
2.66292
2.66095
2.65803
2.65417
2.64941
2.64374
2.6372
2.62981
2.6216
2.61258
2.60278
2.59224
2.58097
2.56902
2.55639
2.54314
2.52927
2.51483
2.49982
2.48429
2.46827
2.4518
2.43492
2.41767
2.40007
2.38217
2.36398
2.34554
2.32685
2.30794
2.28884
2.2696
2.25024
2.23083
2.21139
2.19198
2.17264
2.1534
2.1343
2.11532
2.09639
2.07633
2.05179
2.35664e-05
0.00065372
0.00431116
0.0136145
0.0230513
0.029306
0.0328696
0.0346397
0.0352438
0.0350995
0.0344819
0.0334247
0.0321474
0.0307586
0.0293417
0.0279572
0.0266457
0.0254288
0.0243134
0.0232925
0.0223502
0.0214617
0.0205916
0.0196871
0.0186868
0.0175813
0.0164138
0.0155762
0.0156976
0.0185971
0.0272412
0.0447965
0.0689819
0.0934179
0.114569
0.130136
0.140451
0.147997
0.155306
0.164343
0.176806
0.192746
0.212303
0.23528
0.261263
0.289653
0.319807
0.351309
0.383848
0.417251
0.451359
0.486086
0.521363
0.557157
0.593435
0.630145
0.667225
0.704601
0.742211
0.78
0.817905
0.855888
0.893915
0.931964
0.970031
1.00812
1.04623
1.0844
1.12262
1.16092
1.19931
1.23781
1.2764
1.31511
1.3539
1.39277
1.43169
1.47065
1.50962
1.54857
1.58746
1.62628
1.665
1.70359
1.74203
1.7803
1.81836
1.8562
1.89379
1.93109
1.96809
2.00476
2.04109
2.07703
2.11257
2.14768
2.18233
2.21649
2.25013
2.28322
2.31574
2.34766
2.37894
2.40958
2.43953
2.46879
2.49731
2.52508
2.55208
2.57828
2.60366
2.62821
2.65192
2.67477
2.69675
2.71785
2.73807
2.75738
2.77579
2.79327
2.8098
2.82535
2.83991
2.85346
2.86599
2.87747
2.88791
2.89728
2.90559
2.91281
2.91895
2.924
2.92797
2.93087
2.93259
2.93325
2.93295
2.93156
2.9291
2.92558
2.92104
2.91549
2.90895
2.90145
2.893
2.88364
2.8734
2.86229
2.85035
2.83762
2.82411
2.80986
2.79492
2.77929
2.76301
2.74611
2.72863
2.7106
2.69208
2.67308
2.65367
2.63387
2.61371
2.59324
2.57247
2.55143
2.53014
2.50864
2.48697
2.46518
2.44332
2.42146
2.39964
2.37791
2.35634
2.33498
2.31385
2.2929
2.27107
2.24547
7.08215e-05
0.00180565
0.0102698
0.023549
0.0320226
0.0366074
0.038837
0.0396032
0.0394352
0.0386431
0.0373201
0.0357144
0.0339677
0.0321926
0.0304743
0.0288708
0.0274156
0.0261187
0.0249751
0.0239676
0.0230783
0.0222929
0.0215857
0.0209527
0.0205182
0.0205362
0.0214858
0.0242049
0.0305396
0.0436633
0.0638583
0.0865451
0.108701
0.127655
0.141633
0.150939
0.157696
0.164848
0.174585
0.18776
0.204717
0.225248
0.249015
0.275473
0.30399
0.33398
0.365028
0.396915
0.42953
0.462819
0.496752
0.53132
0.566524
0.602371
0.638854
0.675943
0.713597
0.751766
0.790396
0.829435
0.868828
0.908531
0.948505
0.988723
1.02917
1.06983
1.1107
1.15179
1.19311
1.23465
1.27643
1.31845
1.36068
1.40313
1.44578
1.48858
1.53152
1.57455
1.61764
1.66075
1.70383
1.74686
1.78979
1.8326
1.87525
1.91772
1.95997
2.00199
2.04373
2.08517
2.12627
2.16701
2.20737
2.24732
2.28682
2.32584
2.36435
2.40231
2.43969
2.47645
2.51257
2.548
2.58272
2.61669
2.64989
2.68229
2.71386
2.74457
2.77439
2.80331
2.83131
2.85835
2.88443
2.90954
2.93366
2.95679
2.97892
3.00004
3.02013
3.03918
3.05716
3.07405
3.08984
3.10451
3.11804
3.13043
3.14166
3.15171
3.16058
3.16827
3.17475
3.18004
3.18414
3.18705
3.18866
3.18915
3.18852
3.1867
3.18372
3.17958
3.17432
3.16796
3.16052
3.15202
3.14249
3.13197
3.12047
3.10804
3.0947
3.08048
3.06541
3.04953
3.03288
3.01549
2.99738
2.9786
2.95916
2.93914
2.91855
2.89747
2.8759
2.85391
2.83153
2.80879
2.78572
2.76234
2.73869
2.71481
2.69074
2.66654
2.64227
2.61799
2.59377
2.56966
2.54575
2.52211
2.49876
2.47569
2.45192
2.42476
0.000186429
0.00432894
0.0194218
0.0325678
0.0395298
0.0429202
0.044243
0.0442329
0.0434047
0.0418861
0.039979
0.037862
0.0356843
0.0335659
0.0315968
0.029834
0.0283091
0.0270273
0.0259738
0.0251223
0.024426
0.023917
0.0236003
0.0236202
0.0245229
0.0271556
0.0331726
0.0442326
0.0603215
0.0794383
0.0993502
0.118228
0.134316
0.146604
0.155582
0.162988
0.171146
0.181811
0.19593
0.21362
0.234657
0.258569
0.284816
0.312822
0.342074
0.37221
0.403049
0.434527
0.466645
0.499424
0.532896
0.5671
0.60207
0.637827
0.674372
0.711698
0.749782
0.788589
0.828077
0.868199
0.908907
0.950159
0.991916
1.03414
1.07682
1.11993
1.16346
1.2074
1.25175
1.2965
1.34166
1.3872
1.43311
1.47936
1.52592
1.57274
1.61979
1.667
1.71432
1.7617
1.80909
1.85643
1.90368
1.95081
1.99777
2.04454
2.09108
2.13736
2.18333
2.22897
2.27425
2.31913
2.36359
2.40759
2.4511
2.49409
2.5365
2.57831
2.61947
2.65995
2.69971
2.73869
2.77688
2.81423
2.8507
2.88626
2.92088
2.95454
2.9872
3.01883
3.04943
3.07895
3.10739
3.13473
3.16097
3.18609
3.2101
3.23297
3.2547
3.27526
3.29463
3.3128
3.32975
3.34547
3.35993
3.37315
3.38508
3.39574
3.4051
3.41317
3.41992
3.42538
3.42952
3.43237
3.43382
3.43406
3.43303
3.43072
3.42715
3.42233
3.4163
3.40907
3.40066
3.39112
3.38047
3.36874
3.35596
3.34217
3.32739
3.31167
3.29503
3.27751
3.25914
3.23997
3.22003
3.19935
3.17797
3.15595
3.13333
3.11015
3.08647
3.06231
3.03771
3.01273
2.98737
2.96168
2.93569
2.90944
2.883
2.85641
2.82975
2.80307
2.77646
2.74997
2.72371
2.69774
2.67213
2.64686
2.62102
2.59204
0.000421248
0.00888676
0.0288625
0.0407085
0.0463888
0.048886
0.0494963
0.0488765
0.047372
0.0452809
0.0428463
0.040271
0.0377275
0.0353502
0.0332379
0.0314506
0.0300278
0.0289749
0.028271
0.0279925
0.0281065
0.0288823
0.0305561
0.0336592
0.0391608
0.048007
0.0600225
0.0746705
0.0910104
0.107719
0.123342
0.136857
0.147947
0.157073
0.165525
0.174955
0.186787
0.201732
0.219899
0.240992
0.264569
0.290129
0.317193
0.345341
0.374271
0.403819
0.433945
0.46467
0.496052
0.528155
0.561048
0.594789
0.629424
0.664986
0.701496
0.73896
0.777369
0.816703
0.856931
0.898019
0.939928
0.982619
1.02605
1.0702
1.11504
1.16054
1.20668
1.25346
1.30085
1.34884
1.39742
1.44656
1.49622
1.54637
1.59695
1.64792
1.69919
1.75071
1.80239
1.85418
1.90599
1.95776
2.00945
2.06101
2.11238
2.16354
2.21444
2.26505
2.31532
2.36522
2.41471
2.46377
2.51236
2.56044
2.60799
2.65495
2.70128
2.74694
2.79189
2.83608
2.87946
2.922
2.96364
3.00434
3.04406
3.08276
3.1204
3.15696
3.19241
3.22671
3.25984
3.29178
3.32251
3.35202
3.3803
3.40734
3.43314
3.45768
3.48094
3.50292
3.52358
3.54292
3.56092
3.57757
3.59286
3.60678
3.61931
3.63045
3.64019
3.64853
3.65544
3.66095
3.66504
3.66771
3.66892
3.66879
3.66728
3.66438
3.66013
3.65455
3.64765
3.63948
3.63005
3.6194
3.60755
3.59456
3.58044
3.56524
3.54899
3.53173
3.51349
3.4943
3.47421
3.45325
3.43146
3.40888
3.38556
3.36155
3.3369
3.31167
3.28588
3.25957
3.2328
3.20559
3.17798
3.15
3.12169
3.09312
3.06433
3.03538
3.00635
2.9773
2.94831
2.91946
2.89083
2.86252
2.8346
2.80708
2.77909
2.74841
0.000815988
0.015614
0.0373261
0.0481252
0.0530566
0.0549506
0.0550089
0.0538262
0.0517933
0.0492183
0.0463676
0.0434728
0.0407326
0.0382986
0.0362842
0.0347517
0.0337756
0.0333816
0.0334501
0.0342797
0.036128
0.0394043
0.0445682
0.0519625
0.0615098
0.0728634
0.0856735
0.0993045
0.112954
0.125846
0.137459
0.147739
0.15714
0.166635
0.177362
0.190269
0.20586
0.22418
0.244971
0.267841
0.292379
0.318203
0.34499
0.372495
0.400581
0.429203
0.458393
0.488218
0.518768
0.550131
0.582389
0.615609
0.649855
0.685172
0.721595
0.759144
0.797825
0.837632
0.878551
0.920558
0.963626
1.00772
1.05282
1.09889
1.1459
1.19382
1.24263
1.29231
1.34283
1.39417
1.44629
1.49915
1.55271
1.6069
1.66165
1.71689
1.77253
1.8285
1.88468
1.94099
1.99734
2.05366
2.10989
2.16596
2.22182
2.27744
2.33276
2.38774
2.44233
2.4965
2.5502
2.60342
2.65611
2.70825
2.75978
2.81067
2.86085
2.9103
2.95895
3.00678
3.05371
3.0997
3.1447
3.18865
3.23151
3.27324
3.31379
3.35313
3.39123
3.42806
3.46358
3.49779
3.53067
3.5622
3.59237
3.62118
3.64861
3.67466
3.69931
3.72254
3.74433
3.76467
3.78355
3.80096
3.8169
3.83135
3.84431
3.85576
3.86572
3.87415
3.88107
3.88647
3.89036
3.89272
3.89356
3.89293
3.8908
3.88719
3.88215
3.87569
3.86784
3.85861
3.84807
3.83622
3.82311
3.80878
3.79327
3.77661
3.75885
3.74002
3.72015
3.69929
3.67746
3.65471
3.63107
3.6066
3.58134
3.55537
3.52873
3.50147
3.47362
3.44522
3.41631
3.38693
3.3571
3.32688
3.29631
3.26546
3.23438
3.20313
3.17178
3.1404
3.10907
3.07787
3.04689
3.01625
2.986
2.95619
2.92603
2.89349
0.0013381
0.0229029
0.045069
0.0553152
0.059819
0.0612938
0.0609733
0.0593857
0.0569702
0.0540823
0.0510322
0.0480857
0.0454719
0.0433725
0.0419572
0.0413452
0.0413204
0.042185
0.0440148
0.0469668
0.0512213
0.0569307
0.0641665
0.0728721
0.0828307
0.0936614
0.10492
0.116168
0.12705
0.137399
0.147269
0.157085
0.167528
0.179331
0.193063
0.20902
0.227197
0.247385
0.269276
0.292552
0.316926
0.342158
0.368069
0.394546
0.421551
0.449106
0.477281
0.50617
0.535876
0.566493
0.598118
0.63083
0.664702
0.699793
0.736152
0.773811
0.812794
0.85311
0.894762
0.937742
0.982038
1.02763
1.07448
1.12258
1.17188
1.22237
1.27401
1.32676
1.38059
1.43546
1.49133
1.54813
1.60579
1.66423
1.72334
1.78304
1.84321
1.90376
1.96456
2.02551
2.08649
2.14743
2.20824
2.26887
2.32926
2.38935
2.44908
2.5084
2.56726
2.62563
2.68346
2.74074
2.79743
2.85349
2.90888
2.96353
3.01741
3.07046
3.12264
3.1739
3.22417
3.27341
3.32155
3.36854
3.41432
3.45884
3.50207
3.54396
3.58447
3.62356
3.66123
3.69746
3.73222
3.76551
3.79732
3.82765
3.85647
3.88377
3.90954
3.93376
3.95643
3.97752
3.99704
4.01496
4.0313
4.04604
4.05918
4.07071
4.08065
4.08897
4.09569
4.10079
4.10428
4.10615
4.10643
4.10514
4.10222
4.09776
4.09178
4.08431
4.07537
4.065
4.05322
4.04009
4.02563
4.0099
3.99292
3.97476
3.95544
3.93501
3.9135
3.89095
3.8674
3.84286
3.81739
3.79105
3.76391
3.73602
3.70744
3.67821
3.64837
3.61794
3.58698
3.55549
3.52353
3.49114
3.45839
3.42534
3.39205
3.35858
3.325
3.29136
3.25776
3.22427
3.191
3.15805
3.12551
3.09344
3.06109
3.02666
0.00195731
0.0296725
0.0526039
0.0627336
0.0669618
0.0681482
0.0675314
0.0656496
0.0630103
0.0600329
0.0570821
0.0544431
0.0523538
0.0510901
0.0506473
0.0509513
0.0522492
0.0545465
0.057885
0.0622975
0.0678276
0.0744419
0.0820405
0.090464
0.0995014
0.108912
0.11849
0.12811
0.137746
0.147544
0.157825
0.169041
0.181604
0.195827
0.211838
0.229605
0.248961
0.269684
0.291544
0.314335
0.337893
0.362092
0.386858
0.412164
0.43803
0.464517
0.49172
0.519734
0.548673
0.578641
0.609738
0.642056
0.675681
0.710684
0.747127
0.785053
0.824502
0.8655
0.908068
0.952213
0.997935
1.04523
1.09407
1.14445
1.19633
1.24968
1.30446
1.36063
1.41812
1.47688
1.53684
1.59791
1.65999
1.72294
1.78664
1.85096
1.91578
1.98099
2.04645
2.11205
2.17766
2.24319
2.30855
2.3737
2.43854
2.50302
2.56706
2.63058
2.69355
2.75593
2.81769
2.87881
2.93926
2.999
3.05796
3.1161
3.17337
3.22971
3.28508
3.33943
3.3927
3.44481
3.49573
3.54537
3.59369
3.64063
3.68616
3.7302
3.77273
3.81369
3.8531
3.89094
3.9272
3.96186
3.99492
4.02636
4.05618
4.08436
4.11087
4.13572
4.15888
4.18037
4.20016
4.21826
4.23466
4.24936
4.26235
4.27367
4.28328
4.29121
4.29744
4.30198
4.30483
4.30599
4.30551
4.30332
4.29942
4.29393
4.28685
4.27822
4.26806
4.2564
4.2433
4.22878
4.21289
4.19567
4.17718
4.15745
4.13654
4.1145
4.09135
4.06713
4.04187
4.01557
3.98831
3.96017
3.9312
3.90147
3.87104
3.83993
3.8082
3.77586
3.74295
3.70947
3.67548
3.64104
3.60623
3.57111
3.53574
3.50017
3.46447
3.42869
3.39292
3.35723
3.32175
3.28659
3.25182
3.21755
3.18307
3.14681
0.00278994
0.0354105
0.0597973
0.0701605
0.0743211
0.0753483
0.0744986
0.0723982
0.0696648
0.0667971
0.0642256
0.0622033
0.061005
0.0606015
0.06098
0.0623656
0.0646918
0.0679205
0.0720444
0.0770351
0.0828434
0.0893857
0.0965666
0.104288
0.112464
0.121028
0.129952
0.1393
0.149207
0.159898
0.171616
0.184588
0.198936
0.214708
0.231839
0.250213
0.269671
0.290061
0.311242
0.33311
0.355588
0.378638
0.402256
0.426467
0.451331
0.476927
0.503361
0.530739
0.559169
0.588754
0.619604
0.651818
0.685491
0.720708
0.757542
0.79606
0.836318
0.878363
0.922233
0.967956
1.01555
1.065
1.11633
1.16949
1.22448
1.28124
1.33973
1.39987
1.46159
1.52476
1.58929
1.65505
1.72188
1.78962
1.85808
1.92711
1.99657
2.06635
2.13633
2.2064
2.27644
2.34636
2.41607
2.48551
2.55459
2.62322
2.6913
2.75871
2.82545
2.89149
2.95681
3.02139
3.08519
3.14817
3.21026
3.27141
3.33157
3.39069
3.44872
3.50562
3.56132
3.61576
3.66887
3.72059
3.77087
3.81964
3.86688
3.91251
3.9565
3.99882
4.03946
4.07839
4.11561
4.15109
4.18484
4.21685
4.24711
4.27559
4.30229
4.32721
4.35035
4.37169
4.39125
4.40903
4.42502
4.43923
4.45167
4.46235
4.47126
4.47842
4.48383
4.4875
4.48941
4.48958
4.48808
4.4847
4.47962
4.4729
4.46455
4.45459
4.44307
4.43001
4.41546
4.39946
4.38206
4.3633
4.34324
4.32193
4.29941
4.27573
4.25095
4.22509
4.19819
4.17019
4.14122
4.11136
4.08068
4.04923
4.01706
3.98421
3.95071
3.9166
3.8819
3.84658
3.81071
3.77439
3.73769
3.70067
3.66338
3.62588
3.58823
3.55048
3.51268
3.47495
3.43741
3.40016
3.36329
3.32693
3.29042
3.25248
0.00366131
0.0415149
0.0670056
0.0776033
0.0817227
0.0826314
0.0815198
0.0791136
0.076288
0.0737077
0.0717468
0.0706335
0.0702383
0.070498
0.0717237
0.0738243
0.0767462
0.0804269
0.0848357
0.0899254
0.0956619
0.101999
0.108915
0.116389
0.124415
0.13303
0.142301
0.152337
0.163257
0.175192
0.18822
0.202393
0.21769
0.234059
0.251406
0.269632
0.288637
0.308339
0.328682
0.34963
0.371178
0.393339
0.416151
0.439676
0.463986
0.489155
0.515294
0.54251
0.570919
0.600636
0.631776
0.66445
0.698762
0.734817
0.772701
0.812502
0.854288
0.898129
0.944077
0.992179
1.04246
1.09492
1.14956
1.20635
1.26526
1.32625
1.38922
1.45408
1.52069
1.58889
1.65849
1.72927
1.80106
1.87365
1.94685
2.02044
2.09423
2.16812
2.24209
2.3161
2.39009
2.4639
2.53746
2.61071
2.68353
2.75579
2.82736
2.89813
2.96811
3.0373
3.10562
3.17307
3.23962
3.3052
3.36977
3.43325
3.49561
3.55679
3.61675
3.67546
3.73283
3.78883
3.84337
3.89639
3.94783
3.99765
4.04579
4.09224
4.13696
4.17992
4.22106
4.26036
4.29778
4.33334
4.36702
4.39883
4.42876
4.4568
4.48295
4.50721
4.52959
4.55009
4.56874
4.58552
4.60048
4.61361
4.62495
4.63446
4.64218
4.64811
4.65226
4.65465
4.65526
4.65417
4.65118
4.64637
4.63986
4.63168
4.62185
4.61039
4.59735
4.58275
4.56664
4.54906
4.53007
4.5097
4.48802
4.46508
4.44092
4.41561
4.38919
4.36171
4.33319
4.30361
4.27308
4.24167
4.20942
4.17641
4.14266
4.10823
4.07314
4.03745
4.00115
3.9642
3.92667
3.88869
3.85031
3.81161
3.77263
3.73343
3.69405
3.65452
3.6149
3.57534
3.53593
3.49679
3.458
3.41973
3.38134
3.34193
0.00458103
0.0474986
0.0740892
0.0849351
0.0890182
0.0897604
0.0882977
0.0856994
0.0830612
0.0809847
0.079791
0.0793533
0.079454
0.0803947
0.0821801
0.0847252
0.0879956
0.0919224
0.0965083
0.101715
0.107556
0.114021
0.121134
0.128915
0.137418
0.146699
0.156811
0.167825
0.179773
0.192695
0.206567
0.22138
0.23706
0.253562
0.270804
0.288745
0.307339
0.326573
0.346442
0.366959
0.388158
0.410095
0.432872
0.456554
0.481144
0.506722
0.533481
0.561497
0.590897
0.621797
0.654328
0.688594
0.724729
0.762834
0.803027
0.845391
0.890017
0.936962
0.986286
1.03804
1.09228
1.14895
1.20802
1.26945
1.33318
1.39916
1.46728
1.53744
1.60943
1.68304
1.75795
1.83377
1.91032
1.98746
2.06501
2.14273
2.22039
2.29794
2.37547
2.45293
2.53019
2.60709
2.68368
2.75996
2.83568
2.91067
2.98487
3.05821
3.13066
3.20211
3.27254
3.34193
3.41024
3.47742
3.54342
3.60818
3.67165
3.73379
3.79459
3.854
3.91195
3.96839
4.02325
4.07645
4.12794
4.17768
4.22564
4.27176
4.31603
4.35839
4.39882
4.43728
4.47377
4.50828
4.54083
4.57141
4.60003
4.62669
4.65138
4.67412
4.69491
4.71378
4.73073
4.74579
4.75898
4.77032
4.77983
4.78752
4.79341
4.79752
4.79988
4.8005
4.79947
4.7965
4.79168
4.78515
4.77693
4.76705
4.75553
4.7424
4.72769
4.71143
4.69368
4.67447
4.65384
4.63186
4.60857
4.58402
4.55827
4.53138
4.50339
4.47435