/*--------------------------------*- C++ -*----------------------------------*\
  =========                 |
  \\      /  F ield         | OpenFOAM: The Open Source CFD Toolbox
   \\    /   O peration     | Website:  https://openfoam.org
    \\  /    A nd           | Version:  13
     \\/     M anipulation  |
\*---------------------------------------------------------------------------*/
FoamFile
{
    format      ascii;
    class       volScalarField;
    location    "1900";
    object      nut;
}
// * * * * * * * * * * * * * * * * * * * * * * * * * * * * * * * * * * * * * //

dimensions      [0 2 -1 0 0 0 0];

internalField   nonuniform List<scalar> 
12225
(
4.95461e-06
1.56284e-05
1.9117e-05
4.00497e-05
2.97388e-05
2.4337e-05
2.10657e-05
2.78039e-05
2.24736e-05
1.93158e-05
2.11278e-05
1.48509e-05
1.49316e-05
1.53464e-05
1.5365e-05
1.56418e-05
1.3101e-05
3.01033e-05
1.51275e-08
2.12973e-08
3.69229e-08
8.38793e-08
1.24341e-07
1.97132e-07
6.25584e-07
2.15292e-06
3.71089e-06
4.64768e-06
1.43738e-05
1.12142e-05
4.10301e-06
1.172e-05
1.95123e-06
2.38463e-05
5.49264e-09
1.42927e-06
1.10687e-07
8.67486e-08
6.61795e-08
9.31918e-08
7.66184e-08
1.35783e-07
5.80193e-09
8.55139e-09
1.8527e-08
3.67304e-08
6.52204e-08
0.00412931
3.48497e-09
0.000484097
1.38849e-10
2.8618e-05
1.03406e-10
1.57154e-10
1.46898e-06
2.89297e-07
6.12786e-06
4.05883e-07
2.97422e-07
2.9587e-07
8.60163e-08
3.7107e-08
3.63485e-08
6.25664e-08
8.73535e-08
3.77646e-08
2.77782e-08
3.41901e-08
1.71422e-08
0.000211006
2.47364e-10
2.8873e-10
4.57865e-05
1.35866e-05
1.17322e-05
2.92042e-06
3.90577e-06
4.23189e-06
3.46933e-06
1.48367e-06
6.86877e-07
8.69145e-07
5.47294e-07
5.06025e-07
7.57205e-07
9.67747e-07
2.64294e-06
1.78655e-06
4.82174e-07
5.84518e-07
0.000164702
0.0140934
1.07038e-05
1.12458e-05
1.90462e-05
1.12474e-05
5.06174e-06
3.76394e-06
3.60669e-06
2.69047e-06
2.92831e-06
3.71927e-06
6.47396e-06
1.26482e-05
1.59914e-05
2.36847e-05
2.30687e-05
2.68459e-05
0.00578955
0.00114405
0.000109285
0.000150684
3.63193e-05
3.5612e-05
4.57427e-05
4.14161e-05
4.29036e-05
4.16839e-05
4.0583e-05
4.38861e-05
4.6856e-05
5.24349e-05
6.1634e-05
6.8819e-05
7.71439e-05
8.10756e-05
0.000656178
0.00692367
0.00117218
0.000515511
0.000254517
0.000218976
0.000192697
0.000167793
0.000153878
0.000150974
0.000157171
0.000148723
0.000148339
0.000152995
0.000160399
0.000168165
0.000176396
0.000181604
0.00110444
0.0011866
0.000691649
0.000717543
0.000593817
0.000509967
0.000412558
0.00038207
0.000352398
0.000354628
0.000342818
0.000345159
0.000328631
0.000323366
0.000329757
0.000323554
0.000330687
0.000335624
0.000859728
0.000915456
0.000869997
0.000794051
0.000678836
0.000674905
0.000644668
0.000615549
0.000591315
0.000572718
0.000559882
0.00054546
0.000534663
0.000529619
0.000514255
0.000510021
0.000506471
0.000509452
0.000845688
0.00086152
0.000861768
0.000846188
0.000805446
0.000786222
0.000771704
0.000757608
0.000741981
0.00072871
0.000714716
0.000703362
0.000693744
0.000686424
0.000678768
0.000676304
0.000664094
0.000664134
0.000848758
0.000852791
0.000854294
0.000850687
0.00084136
0.0008322
0.000824906
0.000817868
0.000810645
0.000801827
0.000794638
0.000785724
0.00078016
0.00077148
0.00076762
0.000763028
0.000759177
0.0007575
0.000851277
0.000850676
0.000850521
0.00084962
0.000848017
0.000845428
0.000843014
0.000840048
0.000837211
0.000833625
0.000830433
0.000826577
0.000823738
0.000820486
0.000819127
0.000814506
0.000811986
0.000810538
0.000851533
0.000850647
0.000849964
0.000849153
0.000848455
0.00084753
0.000846674
0.000845591
0.000844547
0.000843252
0.000842062
0.000840668
0.00083951
0.000838197
0.000837243
0.000836061
0.000835282
0.000834122
0.000851543
0.000850669
0.000849876
0.00084908
0.000848368
0.000847645
0.000846985
0.0008463
0.000845657
0.000844976
0.000844336
0.000843663
0.000843045
0.000842403
0.000841839
0.000841246
0.000840749
0.000840203
0.000851539
0.000850674
0.000849859
0.000849074
0.000848339
0.00084763
0.000846965
0.000846321
0.000845714
0.000845122
0.000844563
0.000844015
0.000843499
0.000842992
0.000842516
0.00084205
0.000841616
0.000841188
0.000851538
0.000850673
0.000849853
0.000849071
0.000848329
0.000847621
0.000846949
0.000846306
0.000845694
0.00084511
0.000844551
0.000844017
0.000843505
0.000843016
0.000842547
0.000842098
0.000841668
0.000841257
0.000851539
0.000850678
0.000849858
0.000849078
0.000848336
0.000847629
0.000846955
0.000846312
0.000845698
0.000845113
0.000844552
0.000844017
0.000843504
0.000843015
0.000842545
0.000842097
0.000841666
0.000841256
0.000851537
0.000850674
0.000849851
0.00084907
0.000848325
0.000847616
0.000846939
0.000846295
0.000845678
0.000845091
0.000844528
0.000843992
0.000843477
0.000842987
0.000842515
0.000842067
0.000841634
0.000841223
0.000851535
0.000850676
0.00084985
0.000849073
0.000848323
0.000847622
0.000846936
0.000846302
0.000845676
0.000845096
0.000844526
0.000843996
0.000843476
0.000842996
0.000842518
0.000842075
0.00084163
0.000841208
0.000851535
0.000850677
0.000849865
0.000849073
0.00084834
0.000847635
0.000846942
0.000846334
0.000845678
0.000845118
0.000844538
0.000844016
0.00084351
0.000843061
0.000842522
0.000842062
0.000841534
0.00084095
0.000851532
0.000850677
0.000849918
0.000849036
0.00084843
0.000847594
0.000846996
0.000846344
0.000845667
0.000845085
0.000844522
0.000843969
0.000843692
0.000843161
0.000842018
0.000840999
0.000841702
0.00083929
0.000851488
0.000850729
0.000849889
0.000849107
0.000848375
0.000847557
0.000846876
0.000846055
0.000845274
0.000844354
0.000843578
0.000843186
0.00084397
0.000841627
0.000836372
0.000829817
0.000820263
0.00080944
0.000851375
0.000850934
0.000849869
0.000848998
0.000847709
0.000846436
0.000844721
0.000842875
0.000840307
0.000838123
0.000835529
0.000832563
0.000827802
0.000819924
0.00080454
0.000786241
0.000760191
0.000733571
0.000851545
0.000851317
0.000847945
0.000844828
0.000840122
0.000833801
0.000826833
0.000818536
0.000808246
0.000799888
0.000788818
0.000778715
0.000764189
0.000743941
0.000711303
0.000677679
0.000634703
0.000597413
0.000854104
0.000845986
0.000828346
0.000811368
0.00079253
0.000764522
0.000736958
0.000709844
0.000682676
0.000662609
0.000636737
0.000618618
0.00058975
0.000564066
0.000523889
0.000488564
0.000445864
0.000416557
0.000862011
0.000786295
0.000711906
0.000656559
0.000596137
0.00053371
0.000488
0.000445066
0.00041493
0.000388089
0.000364974
0.000346045
0.000323325
0.000301432
0.000274479
0.000246615
0.000219255
0.000194789
0.000898386
0.000474092
0.000361933
0.000296853
0.000244892
0.000207761
0.000182444
0.000163559
0.000150532
0.000139569
0.000131941
0.000124075
0.000117654
0.000108779
0.000100084
9.05935e-05
8.1979e-05
7.32802e-05
0.000267541
0.00010375
7.6949e-05
6.59606e-05
6.00089e-05
5.66907e-05
5.48141e-05
5.37226e-05
5.35055e-05
5.36209e-05
5.45617e-05
5.56061e-05
5.72249e-05
5.87038e-05
6.02531e-05
6.02205e-05
6.02444e-05
5.996e-05
1.26852e-05
1.67961e-05
1.95105e-05
2.10625e-05
2.19909e-05
2.22038e-05
2.2223e-05
2.20548e-05
2.17381e-05
2.13935e-05
2.10483e-05
2.07195e-05
2.04168e-05
2.01438e-05
1.98964e-05
1.96827e-05
1.94887e-05
1.93202e-05
1.71493e-12
1.92747e-10
9.74571e-10
3.77919e-09
1.23833e-08
3.66121e-08
9.54877e-08
1.88877e-07
3.06131e-07
4.30254e-07
5.42639e-07
6.29149e-07
6.87707e-07
7.09667e-07
7.0068e-07
6.73813e-07
6.20765e-07
5.36441e-07
4.53542e-07
3.84758e-07
3.204e-07
2.5868e-07
1.9913e-07
1.44035e-07
9.43779e-08
5.55591e-08
2.9422e-08
1.46181e-08
7.23784e-09
3.78112e-09
2.16929e-09
1.52329e-09
1.59721e-09
3.11435e-09
7.56243e-09
1.86834e-08
9.58484e-08
1.98818e-07
3.51969e-07
4.39747e-07
4.24236e-07
3.68904e-07
3.00058e-07
2.79543e-07
2.94552e-07
3.69283e-07
4.57319e-07
8.15228e-07
1.6071e-06
4.1054e-06
1.21122e-05
2.52183e-05
3.67342e-05
4.16294e-05
4.2026e-05
4.32322e-05
4.0557e-05
3.62595e-05
3.77833e-05
4.01523e-05
3.26959e-05
3.47173e-05
3.60671e-05
3.03954e-05
3.31547e-05
3.2909e-05
3.38732e-05
3.42604e-05
3.49173e-05
3.54205e-05
3.59877e-05
3.65125e-05
3.70462e-05
3.7569e-05
3.80876e-05
3.86036e-05
3.91137e-05
3.96233e-05
4.01285e-05
4.06339e-05
4.11365e-05
4.1639e-05
4.21407e-05
4.26419e-05
4.3144e-05
4.36447e-05
4.41474e-05
4.46475e-05
4.5149e-05
4.56475e-05
4.6146e-05
4.6644e-05
4.7141e-05
4.76371e-05
4.81307e-05
4.86224e-05
4.91105e-05
4.95961e-05
5.00789e-05
5.05632e-05
5.10545e-05
5.15519e-05
5.20489e-05
5.2551e-05
5.30583e-05
5.35702e-05
5.40884e-05
5.46104e-05
5.51396e-05
5.56733e-05
5.6215e-05
5.67628e-05
5.73194e-05
5.78843e-05
5.84588e-05
5.90439e-05
5.96395e-05
6.02493e-05
6.08735e-05
6.15156e-05
6.21728e-05
6.28474e-05
6.35366e-05
6.42481e-05
6.49781e-05
6.57374e-05
6.65193e-05
6.73355e-05
6.81778e-05
6.905e-05
6.99863e-05
7.09719e-05
7.19812e-05
7.30621e-05
7.41778e-05
7.53778e-05
7.66436e-05
7.7973e-05
7.804e-05
7.78053e-05
7.75538e-05
7.72908e-05
7.7013e-05
7.67233e-05
7.64202e-05
7.61063e-05
7.57814e-05
7.545e-05
7.5095e-05
7.47534e-05
7.43737e-05
7.40184e-05
7.36201e-05
7.3252e-05
7.28375e-05
7.24592e-05
7.20306e-05
7.16384e-05
7.12154e-05
7.08002e-05
7.03812e-05
6.99617e-05
6.95424e-05
6.9123e-05
6.87045e-05
6.82863e-05
6.78697e-05
6.74543e-05
6.70415e-05
6.6631e-05
6.62237e-05
6.58187e-05
6.54157e-05
6.50117e-05
6.46032e-05
6.41816e-05
6.37364e-05
6.32388e-05
6.26297e-05
6.10105e-05
7.91078e-12
1.28377e-09
1.68055e-08
8.59722e-08
3.62654e-07
1.17909e-06
2.72838e-06
4.95575e-06
7.67344e-06
1.07836e-05
1.39587e-05
1.69021e-05
1.94434e-05
2.1281e-05
2.25089e-05
2.28541e-05
2.25368e-05
2.16039e-05
1.97638e-05
1.64991e-05
1.27978e-05
9.43882e-06
6.63807e-06
4.47979e-06
2.80606e-06
1.72964e-06
1.0399e-06
6.38409e-07
3.89786e-07
2.46806e-07
1.70376e-07
1.34556e-07
1.41625e-07
2.1954e-07
4.97983e-07
1.0059e-06
5.46644e-06
1.12172e-05
1.81103e-05
2.17062e-05
2.18346e-05
2.0181e-05
1.82257e-05
1.66702e-05
1.6747e-05
1.65982e-05
1.78915e-05
2.28192e-05
3.23712e-05
4.1974e-05
5.25652e-05
6.24355e-05
7.18071e-05
8.0054e-05
8.9898e-05
0.000102177
0.000113797
0.000124403
0.000136445
0.000152982
0.000162636
0.000175953
0.00019237
0.000199968
0.00021392
0.000224791
0.00023635
0.000247249
0.00025779
0.000267907
0.000277738
0.0002873
0.000296614
0.000305726
0.000314639
0.00032339
0.000331976
0.000340426
0.000348734
0.000356922
0.000364982
0.000372933
0.000380766
0.000388497
0.000396121
0.000403646
0.000411069
0.000418389
0.000425599
0.000432698
0.000439669
0.000446532
0.000453275
0.000459903
0.000466398
0.000472751
0.000478927
0.000484889
0.000490564
0.000495852
0.00050058
0.000504898
0.000509256
0.000513446
0.00051756
0.000521568
0.000525475
0.000529278
0.000532975
0.000536564
0.000540045
0.000543415
0.000546677
0.000549824
0.00055286
0.000555778
0.000558581
0.000561262
0.000563828
0.000566276
0.000568605
0.000570801
0.000572853
0.000574752
0.000576496
0.000578084
0.000579516
0.00058079
0.000581903
0.000582847
0.000583599
0.000584211
0.000584642
0.000584956
0.000584956
0.000585026
0.000584875
0.000584854
0.000584971
0.000584925
0.000584721
0.000584359
0.000583839
0.000583168
0.000582341
0.000581358
0.000580283
0.000578941
0.000577838
0.000576096
0.000574762
0.000572769
0.000571217
0.00056899
0.000567225
0.000564784
0.000562815
0.000560319
0.000557923
0.000555438
0.00055288
0.000550267
0.000547601
0.000544879
0.000542107
0.000539282
0.000536408
0.000533488
0.000530525
0.000527522
0.000524481
0.000521397
0.000518266
0.000515052
0.000511708
0.000508152
0.000504246
0.000499685
0.000493683
0.000477255
1.71805e-11
2.93534e-09
5.51435e-08
3.24563e-07
1.1569e-06
2.77143e-06
5.97894e-06
1.04522e-05
1.60362e-05
2.24292e-05
2.92812e-05
3.60768e-05
4.22388e-05
4.74036e-05
5.14442e-05
5.40469e-05
5.56121e-05
5.60056e-05
5.47406e-05
5.1852e-05
4.77529e-05
4.17564e-05
3.45879e-05
2.73276e-05
2.05077e-05
1.46743e-05
9.87706e-06
6.52435e-06
4.04719e-06
2.62005e-06
1.78407e-06
1.3456e-06
1.14304e-06
1.32953e-06
3.15728e-06
7.73712e-06
2.49852e-05
4.53136e-05
5.84936e-05
6.16755e-05
5.61134e-05
4.40106e-05
4.00589e-05
4.42281e-05
5.08889e-05
5.86152e-05
6.97644e-05
8.15851e-05
9.35114e-05
0.000107993
0.000125565
0.000145405
0.000168049
0.000192372
0.000219763
0.000249579
0.000280219
0.00031055
0.000339869
0.000370782
0.000398327
0.000424877
0.000453828
0.000477273
0.000502203
0.000525075
0.000547512
0.000568806
0.000589443
0.00060945
0.00062892
0.000647921
0.000666503
0.000684719
0.0007026
0.000720179
0.000737473
0.000754505
0.000771283
0.000787823
0.000804128
0.000820208
0.000836064
0.000851703
0.000867124
0.00088233
0.000897315
0.000912079
0.00092661
0.000940901
0.000954941
0.000968732
0.000982262
0.000995522
0.00100849
0.00102113
0.00103342
0.00104531
0.00105675
0.00106771
0.00107819
0.00108842
0.0010985
0.00110832
0.00111794
0.00112733
0.00113649
0.00114543
0.00115413
0.0011626
0.00117083
0.00117883
0.00118658
0.00119409
0.00120136
0.00120838
0.00121514
0.00122166
0.00122792
0.00123393
0.00123968
0.00124514
0.0012503
0.00125514
0.00125966
0.00126384
0.0012677
0.00127121
0.00127439
0.00127722
0.00127968
0.00128182
0.0012836
0.00128509
0.00128617
0.00128699
0.00128746
0.00128801
0.00128824
0.00128811
0.00128763
0.00128678
0.00128559
0.00128406
0.0012822
0.00128001
0.00127761
0.00127468
0.00127191
0.00126828
0.001265
0.00126082
0.00125706
0.00125238
0.00124816
0.00124302
0.0012383
0.00123296
0.00122763
0.00122211
0.00121645
0.00121067
0.00120476
0.00119874
0.00119261
0.00118637
0.00118002
0.00117357
0.00116704
0.00116042
0.00115373
0.00114695
0.00114006
0.00113301
0.00112568
0.00111792
0.00110942
0.0010994
0.00108596
0.00105609
6.26918e-11
1.05672e-08
1.72439e-07
7.40803e-07
2.35359e-06
6.4535e-06
1.29782e-05
2.17955e-05
3.23184e-05
4.348e-05
5.43299e-05
6.43042e-05
7.28946e-05
7.96173e-05
8.46299e-05
8.80256e-05
8.95565e-05
8.9581e-05
8.82572e-05
8.54162e-05
8.11552e-05
7.55534e-05
6.88243e-05
6.02107e-05
5.04558e-05
4.05817e-05
3.12002e-05
2.33576e-05
1.7185e-05
1.23463e-05
9.03064e-06
6.71847e-06
5.89008e-06
7.74448e-06
1.64036e-05
3.63114e-05
5.81702e-05
7.32001e-05
7.56133e-05
7.26978e-05
7.17923e-05
7.41104e-05
7.99884e-05
8.93572e-05
0.000102616
0.000115016
0.000129101
0.000152729
0.000174885
0.000205181
0.000238102
0.000275672
0.000315807
0.000357926
0.000401623
0.000446211
0.000490524
0.000533777
0.000575486
0.00061659
0.000655577
0.000692951
0.000729849
0.000764219
0.000797956
0.000830072
0.000861303
0.000891509
0.00092093
0.000949638
0.000977721
0.00100525
0.00103228
0.00105885
0.00108501
0.00111077
0.00113616
0.0011612
0.00118588
0.00121023
0.00123425
0.00125794
0.00128129
0.00130432
0.00132702
0.00134939
0.00137142
0.00139311
0.00141445
0.00143542
0.00145602
0.00147624
0.00149606
0.00151547
0.00153446
0.00155299
0.00157106
0.00158863
0.0016057
0.00162228
0.00163843
0.00165424
0.00166973
0.00168486
0.00169966
0.0017141
0.0017282
0.00174194
0.00175532
0.00176833
0.00178098
0.00179326
0.00180516
0.0018167
0.00182786
0.00183864
0.00184905
0.00185906
0.0018687
0.00187794
0.00188679
0.00189521
0.00190318
0.00191069
0.00191771
0.00192426
0.00193032
0.00193588
0.00194095
0.00194552
0.00194957
0.00195312
0.00195615
0.00195874
0.0019608
0.00196238
0.00196354
0.00196445
0.00196483
0.00196471
0.00196407
0.00196291
0.00196126
0.00195912
0.00195649
0.0019534
0.00194994
0.00194589
0.00194169
0.00193675
0.00193178
0.00192606
0.00192036
0.00191391
0.00190752
0.00190041
0.00189332
0.00188574
0.00187797
0.00186996
0.00186174
0.00185331
0.0018447
0.00183592
0.00182696
0.00181783
0.00180854
0.0017991
0.00178952
0.00177982
0.00177001
0.00176008
0.00174999
0.00173967
0.00172899
0.00171775
0.00170554
0.00169134
0.00167242
0.00163692
2.07541e-10
3.17285e-08
3.7771e-07
1.78254e-06
6.17437e-06
1.5121e-05
2.83439e-05
4.43155e-05
6.12437e-05
7.74707e-05
9.16872e-05
0.000103156
0.000111697
0.00011779
0.000121159
0.000122453
0.000122072
0.00012034
0.000117491
0.000113639
0.000108456
0.0001026
9.58706e-05
8.75415e-05
7.78066e-05
6.69408e-05
5.54564e-05
4.47543e-05
3.56239e-05
2.84029e-05
2.22746e-05
1.88343e-05
2.03923e-05
3.11807e-05
5.42534e-05
7.48113e-05
8.62876e-05
9.1634e-05
9.46679e-05
9.86938e-05
0.000105826
0.000117208
0.000133018
0.000143643
0.000159869
0.000186711
0.000215794
0.000252506
0.000291533
0.000337918
0.000385972
0.000437728
0.000490495
0.000544066
0.000597784
0.000651232
0.000703734
0.000754873
0.000804132
0.000852615
0.000898902
0.000944069
0.000987795
0.00102978
0.00107065
0.00111022
0.0011488
0.00118641
0.0012232
0.00125925
0.00129464
0.00132942
0.00136364
0.00139734
0.00143056
0.00146331
0.0014956
0.00152745
0.00155886
0.00158983
0.00162037
0.00165047
0.00168015
0.00170938
0.00173818
0.00176653
0.00179444
0.0018219
0.00184889
0.0018754
0.00190143
0.00192697
0.001952
0.00197652
0.00200051
0.00202396
0.00204687
0.00206923
0.00209105
0.00211234
0.00213315
0.0021535
0.00217341
0.00219284
0.00221182
0.00223034
0.00224838
0.00226596
0.00228305
0.00229967
0.0023158
0.00233144
0.0023466
0.00236127
0.00237545
0.00238914
0.00240234
0.00241504
0.00242725
0.00243895
0.00245014
0.00246079
0.00247088
0.0024804
0.00248932
0.00249766
0.0025054
0.00251253
0.00251906
0.00252498
0.00253029
0.00253498
0.00253898
0.00254248
0.00254533
0.00254753
0.00254932
0.00255059
0.00255123
0.00255125
0.00255064
0.00254942
0.00254761
0.0025452
0.00254222
0.00253867
0.00253463
0.00252998
0.00252495
0.00251927
0.00251327
0.00250665
0.00249973
0.00249222
0.00248444
0.00247609
0.00246748
0.00245843
0.00244907
0.0024394
0.00242945
0.00241923
0.00240877
0.00239807
0.00238713
0.00237597
0.0023646
0.00235302
0.00234126
0.00232934
0.00231726
0.002305
0.00229254
0.00227983
0.00226673
0.00225303
0.00223833
0.00222163
0.00219974
0.00216387
6.50894e-10
7.75228e-08
9.2489e-07
4.67793e-06
1.56904e-05
3.36922e-05
5.5558e-05
7.80793e-05
9.77841e-05
0.000113132
0.000124578
0.000133484
0.000139607
0.000143461
0.000145383
0.000145619
0.000144391
0.000141887
0.000138326
0.000133787
0.00012812
0.000121915
0.000114832
0.000106489
9.70117e-05
8.42375e-05
6.89516e-05
5.44247e-05
4.17298e-05
3.35859e-05
3.10999e-05
3.55141e-05
5.13789e-05
7.49555e-05
9.40562e-05
0.000106304
0.000113739
0.000119624
0.000127803
0.000141079
0.000157394
0.000167983
0.000186699
0.000213281
0.000244889
0.000284668
0.000328569
0.000378789
0.000431622
0.000488752
0.00054693
0.00060688
0.000666933
0.000726896
0.000786361
0.000845057
0.000902666
0.000958573
0.00101319
0.00106674
0.00111856
0.00116903
0.00121813
0.00126583
0.00131237
0.00135778
0.0014022
0.0014457
0.00148839
0.00153033
0.00157158
0.00161219
0.0016522
0.00169164
0.00173053
0.00176888
0.0018067
0.00184399
0.00188075
0.00191699
0.00195269
0.00198786
0.0020225
0.0020566
0.00209016
0.00212318
0.00215565
0.00218757
0.00221893
0.00224973
0.00227994
0.00230958
0.00233862
0.00236708
0.00239492
0.00242216
0.00244879
0.00247482
0.00250025
0.0025251
0.00254937
0.00257308
0.00259623
0.00261882
0.00264085
0.00266231
0.0026832
0.00270352
0.00272326
0.00274243
0.00276101
0.00277901
0.00279642
0.00281325
0.0028295
0.00284516
0.00286024
0.00287474
0.00288866
0.00290198
0.00291471
0.00292682
0.0029383
0.00294914
0.00295932
0.00296884
0.0029777
0.00298589
0.00299341
0.00300027
0.00300649
0.00301189
0.0030167
0.00302088
0.00302433
0.00302709
0.00302939
0.00303103
0.00303199
0.00303227
0.00303189
0.00303084
0.00302914
0.00302681
0.00302385
0.00302027
0.00301611
0.00301134
0.00300606
0.00300017
0.00299381
0.00298686
0.00297946
0.00297151
0.00296312
0.00295421
0.00294489
0.00293512
0.00292497
0.00291445
0.00290359
0.00289241
0.00288092
0.00286913
0.00285706
0.00284471
0.0028321
0.00281923
0.00280614
0.00279284
0.00277935
0.00276566
0.00275175
0.00273758
0.00272303
0.00270793
0.00269192
0.0026741
0.00265168
0.00261759
2.05583e-09
1.93043e-07
2.42024e-06
1.28599e-05
3.44668e-05
6.26008e-05
9.08802e-05
0.000114633
0.000132939
0.000146094
0.000155166
0.000160466
0.000163038
0.000163739
0.00016312
0.000161462
0.000158907
0.000155533
0.000151292
0.000146144
0.000140034
0.000133184
0.0001251
0.000113565
9.66134e-05
8.12583e-05
6.69332e-05
5.47322e-05
4.73872e-05
4.93279e-05
6.22091e-05
8.21181e-05
0.000105422
0.000121126
0.00013257
0.000141138
0.000150233
0.00016389
0.000179984
0.000189645
0.000208189
0.000233949
0.000265401
0.000304631
0.000349805
0.000401464
0.000456825
0.000516048
0.000577149
0.000640325
0.000704077
0.00076835
0.000832336
0.000895827
0.000958575
0.00102003
0.00108073
0.00114024
0.00119836
0.00125527
0.00131081
0.00136507
0.00141809
0.00146992
0.00152065
0.00157036
0.00161914
0.00166705
0.00171416
0.00176052
0.00180619
0.00185121
0.0018956
0.00193938
0.00198255
0.00202513
0.00206712
0.0021085
0.00214928
0.00218945
0.00222901
0.00226794
0.00230625
0.00234393
0.00238099
0.00241741
0.00245321
0.00248837
0.0025229
0.00255678
0.00259002
0.00262262
0.00265455
0.00268584
0.00271646
0.00274641
0.00277569
0.0028043
0.00283223
0.0028595
0.00288612
0.00291209
0.00293743
0.00296211
0.00298615
0.00300954
0.00303228
0.00305436
0.00307579
0.00309656
0.00311667
0.00313613
0.00315495
0.00317313
0.00319065
0.00320753
0.00322376
0.00323935
0.00325429
0.00326859
0.00328224
0.00329521
0.00330752
0.00331914
0.00333008
0.00334032
0.00334987
0.00335872
0.00336687
0.00337437
0.00338115
0.00338713
0.00339247
0.00339716
0.00340107
0.00340432
0.00340702
0.00340903
0.00341034
0.00341095
0.00341087
0.00341012
0.0034087
0.00340663
0.00340395
0.00340067
0.0033968
0.00339231
0.00338725
0.00338159
0.00337539
0.00336861
0.00336131
0.00335345
0.00334508
0.00333618
0.0033268
0.00331695
0.00330666
0.00329596
0.00328486
0.0032734
0.00326158
0.00324941
0.00323691
0.00322408
0.00321093
0.0031975
0.0031838
0.00316985
0.00315567
0.00314128
0.00312665
0.00311176
0.00309653
0.00308083
0.00306438
0.00304642
0.00302482
0.0029938
6.17815e-09
5.06022e-07
6.42232e-06
2.80016e-05
6.05165e-05
9.34096e-05
0.000120539
0.000141123
0.000156569
0.000166727
0.000172354
0.000174877
0.000175341
0.000174349
0.00017233
0.000169523
0.000165978
0.000161549
0.000156232
0.000150078
0.000143335
0.000135767
0.000124642
0.000107749
9.31042e-05
8.17915e-05
7.55603e-05
7.60087e-05
7.78003e-05
9.01411e-05
0.000113737
0.000138416
0.000156029
0.000166525
0.000177179
0.000190651
0.00020011
0.000209122
0.000225939
0.000249227
0.000279343
0.000316488
0.000359986
0.000410146
0.0004654
0.000524942
0.000587002
0.000651179
0.000716514
0.000782736
0.000849144
0.000915482
0.000981339
0.00104617
0.00111045
0.00117396
0.00123638
0.00129769
0.00135781
0.00141678
0.00147457
0.00153122
0.00158676
0.00164125
0.00169475
0.0017473
0.00179898
0.00184985
0.00189995
0.00194933
0.00199803
0.00204608
0.00209349
0.00214028
0.00218644
0.00223196
0.00227685
0.00232109
0.00236466
0.00240756
0.00244978
0.0024913
0.00253212
0.00257225
0.00261167
0.0026504
0.00268843
0.00272577
0.00276242
0.00279838
0.00283365
0.00286822
0.00290209
0.00293527
0.00296775
0.00299953
0.00303059
0.00306091
0.00309052
0.00311943
0.00314765
0.00317517
0.00320199
0.00322811
0.00325353
0.00327823
0.00330223
0.00332551
0.00334808
0.00336993
0.00339107
0.0034115
0.00343122
0.00345023
0.00346853
0.00348614
0.00350305
0.00351928
0.00353482
0.00354968
0.00356386
0.00357735
0.00359014
0.00360224
0.00361365
0.00362435
0.00363436
0.00364368
0.0036523
0.00366029
0.00366752
0.00367401
0.00367986
0.00368504
0.00368944
0.00369324
0.00369642
0.00369892
0.00370074
0.00370187
0.00370232
0.0037021
0.00370123
0.00369972
0.00369758
0.00369479
0.00369139
0.00368737
0.00368276
0.00367755
0.00367176
0.00366539
0.00365845
0.00365095
0.0036429
0.0036343
0.00362518
0.00361556
0.00360547
0.00359493
0.00358396
0.00357257
0.00356078
0.00354861
0.00353606
0.00352314
0.00350987
0.00349626
0.00348235
0.00346816
0.00345372
0.00343902
0.00342409
0.0034089
0.00339341
0.00337753
0.00336106
0.00334351
0.00332318
0.00329581
1.62632e-08
1.25406e-06
1.4677e-05
4.80238e-05
8.81451e-05
0.000123294
0.000149763
0.000167524
0.000178008
0.000183826
0.000186038
0.000185571
0.00018325
0.000179823
0.000175758
0.00017122
0.000166172
0.00016063
0.000154457
0.000147407
0.000139427
0.000130082
0.000114373
0.000101655
9.43201e-05
9.00842e-05
9.03299e-05
0.000100826
0.000119975
0.000141986
0.000163454
0.000182379
0.000197052
0.000206785
0.000215603
0.000225584
0.000240749
0.000261072
0.00028853
0.000322644
0.000363324
0.000410245
0.00046277
0.000520305
0.00058146
0.000645204
0.000710511
0.000776936
0.000843958
0.000911266
0.000978491
0.00104506
0.001111
0.00117669
0.00124144
0.00130531
0.00136819
0.00143005
0.00149085
0.0015506
0.0016093
0.00166698
0.00172366
0.0017794
0.00183424
0.00188822
0.0019414
0.00199382
0.00204552
0.00209654
0.00214693
0.00219671
0.00224588
0.00229446
0.00234242
0.00238973
0.0024364
0.0024824
0.0025277
0.0025723
0.00261616
0.00265928
0.00270166
0.00274328
0.00278417
0.00282435
0.00286382
0.00290254
0.00294052
0.00297776
0.00301426
0.00305003
0.00308508
0.00311939
0.00315298
0.00318584
0.00321797
0.00324939
0.00328007
0.00331004
0.00333927
0.00336778
0.00339554
0.00342256
0.00344884
0.00347435
0.00349911
0.00352311
0.00354635
0.00356883
0.00359056
0.00361152
0.00363174
0.00365121
0.00366993
0.00368792
0.00370519
0.00372173
0.00373757
0.0037527
0.00376713
0.00378086
0.0037939
0.00380625
0.00381791
0.00382889
0.00383919
0.00384881
0.00385777
0.00386613
0.00387373
0.00388066
0.00388695
0.0038926
0.0038975
0.00390184
0.00390556
0.00390862
0.00391102
0.00391278
0.00391389
0.00391436
0.00391419
0.00391341
0.00391201
0.00390999
0.00390737
0.00390414
0.00390033
0.00389592
0.00389094
0.00388537
0.00387923
0.0038725
0.00386521
0.00385736
0.00384896
0.00384005
0.00383063
0.00382074
0.00381038
0.00379958
0.00378835
0.00377668
0.0037646
0.00375212
0.00373924
0.003726
0.00371242
0.00369852
0.00368433
0.00366988
0.00365516
0.00364019
0.00362495
0.00360939
0.00359337
0.00357646
0.00355729
0.00353313
3.67477e-08
2.91433e-06
2.69967e-05
7.04357e-05
0.0001132
0.000147059
0.000170999
0.000186159
0.000193825
0.000195745
0.000193993
0.000189996
0.000184737
0.000178819
0.000172616
0.000166029
0.000159255
0.000152125
0.00014468
0.000137138
0.000129341
0.000121525
0.000114293
0.000109299
0.000109776
0.000117742
0.000131012
0.000147905
0.000166585
0.000184882
0.000201032
0.000213547
0.000224948
0.000237164
0.000252022
0.000270423
0.000294879
0.000325471
0.000362587
0.000405646
0.000454268
0.000507929
0.000565922
0.000627385
0.000691216
0.000756581
0.000822847
0.000889649
0.000956656
0.00102353
0.00108977
0.00115585
0.00122133
0.00128613
0.00135006
0.0014131
0.00147521
0.00153636
0.00159654
0.00165575
0.001714
0.0017713
0.00182772
0.00188328
0.00193805
0.00199207
0.00204538
0.00209797
0.00214991
0.00220127
0.00225208
0.00230236
0.00235214
0.00240143
0.00245031
0.00249877
0.00254659
0.00259373
0.00264013
0.00268578
0.00273063
0.00277469
0.00281792
0.00286034
0.00290194
0.00294273
0.00298271
0.00302192
0.00306041
0.00309817
0.00313522
0.00317155
0.00320718
0.0032421
0.00327632
0.00330983
0.00334264
0.00337474
0.00340612
0.00343677
0.00346668
0.00349584
0.00352424
0.00355188
0.00357874
0.00360482
0.00363011
0.00365461
0.00367832
0.00370123
0.00372336
0.00374469
0.00376524
0.00378501
0.00380401
0.00382224
0.00383973
0.00385647
0.00387248
0.00388777
0.00390235
0.00391623
0.00392942
0.00394193
0.00395377
0.00396495
0.00397547
0.00398534
0.00399462
0.00400328
0.00401126
0.0040186
0.00402535
0.00403147
0.00403693
0.00404185
0.00404615
0.00404985
0.00405293
0.00405541
0.00405729
0.00405856
0.00405924
0.00405933
0.00405884
0.00405776
0.0040561
0.00405386
0.00405105
0.00404766
0.00404371
0.00403918
0.00403406
0.00402837
0.0040221
0.00401525
0.00400786
0.00399992
0.00399148
0.00398253
0.00397309
0.00396319
0.00395281
0.00394198
0.0039307
0.00391897
0.00390683
0.00389428
0.00388136
0.00386809
0.0038545
0.00384062
0.00382645
0.00381202
0.00379734
0.00378238
0.00376708
0.00375109
0.00373331
0.00371271
7.1183e-08
6.0768e-06
4.1833e-05
9.37393e-05
0.000139242
0.000171695
0.000192083
0.000202279
0.000205158
0.000203117
0.000197964
0.000190998
0.000183129
0.000174636
0.000166093
0.000157553
0.000149095
0.000141542
0.000134843
0.000129294
0.000125249
0.000124025
0.000126727
0.000133742
0.000144384
0.000157657
0.000172727
0.00018856
0.000204
0.000217615
0.000230179
0.000244169
0.000259441
0.000277382
0.000299604
0.000326994
0.000360291
0.000399226
0.00044353
0.000492656
0.000546146
0.000603451
0.000663881
0.00072663
0.000790878
0.000856007
0.000921579
0.000987309
0.00105266
0.00111767
0.00118252
0.00124671
0.00131018
0.00137285
0.00143462
0.00149549
0.00155543
0.00161446
0.00167258
0.00172982
0.00178619
0.00184162
0.00189627
0.00195019
0.00200346
0.00205613
0.00210832
0.00216028
0.00221189
0.00226301
0.00231366
0.00236383
0.00241354
0.00246281
0.00251159
0.00255981
0.00260749
0.00265456
0.00270098
0.00274671
0.0027917
0.00283592
0.00287933
0.00292194
0.00296375
0.00300478
0.00304507
0.00308463
0.00312346
0.00316159
0.00319903
0.00323576
0.00327182
0.00330719
0.00334189
0.0033759
0.00340922
0.00344185
0.00347377
0.00350497
0.00353544
0.00356517
0.00359414
0.00362234
0.00364976
0.00367638
0.00370219
0.00372719
0.00375137
0.00377474
0.00379728
0.00381901
0.00383993
0.00386005
0.00387936
0.00389789
0.00391564
0.00393263
0.00394886
0.00396435
0.00397912
0.00399319
0.00400657
0.00401928
0.00403133
0.00404274
0.00405353
0.0040637
0.00407331
0.00408232
0.00409071
0.00409852
0.00410576
0.00411242
0.0041185
0.00412405
0.00412902
0.00413342
0.00413727
0.00414056
0.0041433
0.00414548
0.00414711
0.00414819
0.00414873
0.00414871
0.00414815
0.00414704
0.00414538
0.00414317
0.00414041
0.00413709
0.00413319
0.00412871
0.00412364
0.004118
0.00411181
0.00410506
0.00409779
0.00409001
0.00408172
0.00407294
0.00406366
0.0040539
0.00404365
0.00403293
0.00402176
0.00401016
0.00399815
0.00398576
0.00397302
0.00395995
0.00394657
0.00393292
0.00391901
0.00390485
0.00389041
0.00387546
0.00385901
0.0038415
1.1673e-07
1.05024e-05
5.47836e-05
0.000111111
0.000158485
0.00019043
0.000207845
0.000214589
0.000214127
0.000209109
0.000201467
0.000192394
0.000182864
0.00017377
0.000165257
0.00015801
0.000151564
0.000147362
0.00014503
0.000144818
0.000147078
0.000152057
0.000159754
0.000169882
0.000181872
0.00019508
0.000208708
0.000221744
0.000234229
0.000248525
0.000264828
0.000282624
0.00030351
0.00032857
0.000358451
0.000393377
0.00043327
0.000477718
0.000526322