/*--------------------------------*- C++ -*----------------------------------*\
  =========                 |
  \\      /  F ield         | OpenFOAM: The Open Source CFD Toolbox
   \\    /   O peration     | Website:  https://openfoam.org
    \\  /    A nd           | Version:  13
     \\/     M anipulation  |
\*---------------------------------------------------------------------------*/
FoamFile
{
    format      ascii;
    class       volScalarField;
    location    "1900";
    object      omega;
}
// * * * * * * * * * * * * * * * * * * * * * * * * * * * * * * * * * * * * * //

dimensions      [0 0 -1 0 0 0 0];

internalField   nonuniform List<scalar> 
12225
(
31477.7
31477.7
31477.7
31477.7
40053.1
37884.5
38381.8
31477.7
42320.6
41009.6
45661.7
46361.8
43006.2
47312.8
45318.9
47279.8
38056.1
31477.7
3.17977e+06
2.10846e+06
1.53494e+06
783332
601531
397270
106919
57517.8
29847.7
18598.4
8088.29
9466.11
30425.9
7269.88
51891.7
0.215472
3.33276e+06
49835.3
699408
540986
464229
117266
71930.2
48269.9
325478
178852
105062
53461.1
44558.6
0.00381163
326455
0.00321147
2.49672e+06
0.00407307
1.34592e+07
5.65628e+06
116774
189543
30678.9
117747
64072.5
41552.9
76870.5
70901.9
43924.1
20109.4
12551.5
21580.4
22223.9
21689.2
18902
0.00485185
3.06774e+06
2.56972e+06
7520.35
15888.8
16586.4
55552.7
37807.1
27945.5
19574.3
22561
23135.4
15887.7
20567
18935.6
13849.2
14415.7
11211.5
11501.4
46576.9
38033.8
2232.68
0.35806
21196.5
16847.9
10828.3
14332.9
21822.5
23858.2
22758.1
21240.7
18328.7
14116.9
10452.6
7909.91
6192.32
4961.8
4605.85
4377.78
3.64077
320.802
3030.55
2229.49
7065.42
7304.02
5500.63
5846.5
5505.77
5395.9
5311.95
4891.91
4257.59
3762.1
3306.67
3000.27
2703
2524.51
568.962
0.366668
304.604
674.386
1315.68
1497.88
1667.5
1872.65
2005.43
2009
1903.37
1986.32
1969.46
1893.11
1787.27
1703.76
1589.5
1524.78
338.208
312.461
527.857
502.844
599.082
688.148
839.633
894.958
959.097
942.99
966.478
951.583
992.152
1000.72
976.084
988.718
961.377
945.022
434.587
405.776
423.286
460.12
533.533
532.063
552.362
573.532
592.264
606.742
616.304
628.295
637.212
639.469
655.484
657.446
659.62
652.597
442.062
431.28
428.355
433.517
452.57
460.668
466.395
472.065
479.07
484.842
491.56
496.719
501.111
503.955
507.488
507.116
514.614
512.538
440.475
435.704
432.35
431.698
434.069
436.429
437.933
439.344
440.981
443.547
445.4
448.302
449.515
452.601
453.113
454.073
454.839
454.233
439.152
436.785
434.325
432.366
430.891
429.988
429.092
428.525
427.981
427.86
427.636
427.799
427.554
427.567
426.724
427.619
427.556
426.927
439.009
436.796
434.615
432.624
430.704
429.002
427.373
425.939
424.576
423.406
422.267
421.291
420.276
419.4
418.424
417.619
416.69
415.998
439
436.78
434.654
432.656
430.739
428.938
427.214
425.599
424.055
422.615
421.235
419.948
418.705
417.543
416.407
415.35
414.307
413.345
439
436.775
434.657
432.651
430.741
428.929
427.203
425.564
424.004
422.519
421.106
419.76
418.478
417.253
416.087
414.972
413.908
412.891
439.001
436.772
434.655
432.646
430.736
428.921
427.194
425.552
423.987
422.498
421.078
419.726
418.435
417.205
416.029
414.91
413.837
412.817
439
436.769
434.65
432.638
430.726
428.909
427.18
425.535
423.969
422.477
421.055
419.7
418.407
417.175
415.997
414.875
413.802
412.779
439.001
436.771
434.654
432.642
430.73
428.913
427.184
425.539
423.972
422.48
421.057
419.702
418.408
417.175
415.997
414.874
413.801
412.777
439.002
436.771
434.656
432.644
430.736
428.916
427.192
425.543
423.98
422.486
421.067
419.71
418.418
417.182
416.007
414.881
413.81
412.788
439.002
436.773
434.652
432.65
430.735
428.92
427.203
425.542
423.998
422.494
421.084
419.724
418.43
417.174
416.022
414.884
413.828
412.841
439.003
436.778
434.631
432.68
430.703
428.961
427.195
425.565
424.03
422.547
421.132
419.793
418.376
417.128
416.204
415.22
413.396
413.078
439.024
436.76
434.652
432.666
430.748
429.014
427.287
425.755
424.27
422.972
421.661
420.231
418.222
417.699
418.52
419.816
422.556
425.784
439.079
436.67
434.678
432.761
431.129
429.664
428.447
427.456
426.844
426.198
425.765
425.553
426.089
427.899
433.303
439.864
450.839
462.193
438.979
436.512
435.727
435.014
435.207
436.418
437.949
440.382
443.888
446.626
450.864
454.617
460.495
469.183
485.304
501.942
526.46
547.502
437.634
439.459
446.359
453.511
462.174
476.89
492.277
508.493
525.925
539.132
558.051
570.996
593.631
612.516
646.452
675.276
714.794
735.582
433.718
474.14
521.424
563.71
618.848
688.15
748.731
815.341
868.889
921.742
973.781
1017.27
1075.81
1127.95
1198.72
1276.42
1353.2
1426.19
418.14
800.466
1048.76
1283.98
1557.93
1832.46
2076.21
2293.23
2469.91
2631.93
2764.39
2898.27
3031.89
3181.76
3351.83
3511.61
3695.51
3842.6
1495.25
4084.29
5803.36
7101.11
8120.03
8836.88
9337.45
9677.45
9872.42
9990.62
10010.1
10010.7
9965.85
9929.9
9919.57
9908.61
9952.05
9991.81
18117.5
23389.3
25327.1
26321.4
26771.5
26753.2
26645.7
26386.7
26068.9
25736
25411.4
25105.8
24824.2
24568.2
24334
24125.7
23932.9
23761.4
11463.2
2514.24
2516.41
2518.61
2520.83
2523.07
2525.32
2527.6
2529.9
2532.22
2534.57
2536.93
2539.31
2541.72
2544.15
2546.6
2549.08
2551.57
2554.09
2556.64
2559.2
2561.79
2564.41
2567.05
2569.71
2572.4
2575.12
2577.86
2580.62
2583.41
2586.23
2589.08
2591.95
2594.85
2597.77
2600.73
2603.71
2606.72
2609.76
2612.82
2615.92
2619.05
2622.2
2625.39
2628.61
2631.86
2635.14
2638.45
2641.79
2645.17
2648.58
2652.02
2655.5
2659.01
2662.55
2666.13
2669.74
3195.69
3329.68
2680.8
3264.66
3421.12
2692.19
3334.11
3403.82
3488.29
3577.3
3650.74
3728.94
3800.4
3871.54
3939.78
4006.45
4071.44
4134.8
4196.84
4257.45
4316.89
4375.09
4432.19
4488.21
4543.16
4597.16
4650.1
4702.21
4753.23
4803.48
4852.59
4900.91
4948.1
4994.36
5039.64
5083.95
5127.25
5169.46
5210.6
5250.55
5289.34
5326.91
5363.39
5398.98
5434.03
5467.96
5501.18
5533.59
5565.16
5595.96
5625.85
5654.96
5683.13
5710.46
5736.87
5762.38
5786.98
5810.62
5833.37
5855.06
5875.88
5895.67
5914.64
5932.51
5949.41
5965.02
5979.64
5992.93
6005.33
6016.4
6026.58
6035.34
6042.92
6050.63
6057.1
6062.87
6066.17
6069.86
6071.77
6073.8
6074.67
6073.3
6071.39
6068.12
6064.04
6058.92
6052.99
6046.14
6038.54
6030.16
6021.16
6011.64
6001.03
5990.39
5978.57
5966.91
5954.01
5941.48
5927.67
5914.49
5900.01
5885.98
5871.47
5857
5842.42
5827.89
5813.3
5798.8
5784.29
5769.91
5755.61
5741.53
5727.63
5714
5700.56
5687.3
5673.94
5660.2
5645.31
5628.36
5606.72
5575.09
5453.03
11463.2
1990.77
1007.41
824.557
705.303
620.848
626.761
624.786
615.093
593.068
569.058
544.92
522.976
504.711
492.219
483.073
482.659
486.511
502.541
553.234
633.323
733.006
844.393
955.864
1060.13
1139.94
1197.09
1194.98
1166.61
1091.36
969.418
824.451
670.29
578.098
509.934
466.384
449.835
455.468
470.043
500.201
532.372
565.094
625.991
737.548
903.167
1172.66
1496.07
1760.38
1926.67
2029.97
2067.9
2074.65
2043.63
2007
1960.66
1897.23
1846.28
1812.33
1772.34
1711.6
1703.9
1677.24
1643.24
1663.62
1650.09
1649.69
1648.28
1648
1650.34
1653.85
1658.51
1663.83
1669.86
1676.32
1683.19
1690.32
1697.69
1705.2
1712.85
1720.57
1728.35
1736.13
1743.94
1751.7
1759.43
1767.06
1774.63
1782.09
1789.46
1796.69
1803.87
1810.89
1817.79
1824.52
1831.13
1837.61
1844.04
1850.53
1857.26
1864.57
1872.99
1882.13
1890.62
1899.13
1907.36
1915.41
1923.23
1930.84
1938.23
1945.39
1952.32
1959.03
1965.5
1971.74
1977.74
1983.51
1989.03
1994.32
1999.37
2004.18
2008.73
2013.01
2017.03
2020.79
2024.32
2027.63
2030.71
2033.57
2036.22
2038.68
2041.06
2043.16
2045.09
2046.74
2048.34
2049.66
2050.79
2051.25
2050.89
2050.19
2049.26
2048.14
2046.82
2045.32
2043.66
2041.87
2039.76
2037.96
2034.71
2033.1
2029.49
2027.65
2023.74
2021.69
2017.52
2015.28
2010.94
2008.05
2004.45
2000.85
1997.23
1993.56
1989.85
1986.11
1982.34
1978.56
1974.78
1971
1967.25
1963.52
1959.85
1956.23
1952.67
1949.21
1945.91
1942.83
1940.09
1938.23
1936.37
1944.41
11463.2
1994.95
802.283
622.95
660.101
674.859
651.28
598.904
539.67
483.374
433.149
391.208
358.141
332.095
311.957
296.42
285.316
277.108
274
276.593
283.745
302.022
332.705
374.76
430.034
490.226
555.83
606.89
646.519
650.361
636.566
599.152
537.017
466.381
406.563
376.652
382.187
402.557
433.121
488.428
582.447
712.976
896.542
1084.4
1245.18
1378.83
1493.01
1551.18
1558.99
1530.33
1476.79
1417.65
1356.7
1304.73
1257.88
1215.9
1181.9
1155.61
1137.08
1118.45
1109.01
1103.47
1092.81
1092.92
1089.82
1089.62
1089.77
1091.24
1093.34
1095.95
1098.98
1102.33
1105.95
1109.78
1113.77
1117.89
1122.12
1126.43
1130.8
1135.22
1139.67
1144.13
1148.6
1153.07
1157.52
1161.95
1166.36
1170.74
1175.08
1179.38
1183.65
1187.88
1192.08
1196.24
1200.39
1204.54
1208.74
1213
1217.41
1221.99
1226.72
1231.4
1235.9
1240.32
1244.61
1248.77
1252.81
1256.71
1260.48
1264.12
1267.61
1270.97
1274.19
1277.27
1280.2
1283
1285.65
1288.15
1290.52
1292.73
1294.79
1296.7
1298.46
1300.07
1301.55
1302.9
1304.12
1305.2
1306.17
1307.01
1307.74
1308.34
1308.82
1309.15
1309.39
1309.46
1309.42
1308.98
1308.39
1307.66
1306.83
1305.88
1304.83
1303.68
1302.43
1301.09
1299.55
1298.15
1296.22
1294.76
1292.63
1291.02
1288.7
1286.96
1284.48
1282.61
1280.07
1277.88
1275.47
1273.02
1270.53
1268
1265.42
1262.81
1260.17
1257.5
1254.82
1252.11
1249.4
1246.69
1243.99
1241.33
1238.71
1236.19
1233.84
1231.78
1230.17
1229.68
1230.7
1240.6
11463.2
2026.23
975.578
947.225
893.061
774.023
659.32
553.24
468.252
404.668
357.018
319.936
291.019
268.674
251.472
238.273
228.279
220.936
215.863
213.559
213.972
217.286
223.536
236.569
257.12
284.538
319.577
355.613
390.883
416.13
430.543
427.168
411.719
387.197
403.861
472.319
556.35
616.645
679.762
763.938
884.904
1017.43
1108.87
1179.94
1241.75
1278.65
1280.62
1216.21
1182.87
1125.47
1077.99
1032.48
994.916
964.48
939.845
919.652
903.89
891.97
883.74
877.128
873.097
870.9
868.845
868.867
869.056
870.291
871.902
874.01
876.431
879.119
882.024
885.106
888.333
891.679
895.123
898.648
902.239
905.882
909.568
913.286
917.028
920.784
924.549
928.314
932.076
935.829
939.569
943.294
947.001
950.685
954.348
957.99
961.612
965.218
968.815
972.41
976.011
979.628
983.262
986.908
990.524
994.05
997.473
1000.81
1004.05
1007.19
1010.22
1013.14
1015.96
1018.66
1021.26
1023.74
1026.1
1028.35
1030.49
1032.51
1034.41
1036.2
1037.87
1039.42
1040.85
1042.15
1043.33
1044.4
1045.35
1046.19
1046.92
1047.54
1048.05
1048.44
1048.74
1048.92
1049
1048.95
1048.79
1048.5
1048.09
1047.5
1046.79
1045.97
1045.05
1044.04
1042.94
1041.75
1040.47
1039.11
1037.62
1036.13
1034.42
1032.8
1030.92
1029.16
1027.14
1025.24
1023.09
1021.07
1018.82
1016.63
1014.34
1012
1009.62
1007.19
1004.72
1002.22
999.681
997.115
994.524
991.913
989.287
986.656
984.029
981.422
978.862
976.39
974.068
972
970.342
969.596
970.365
976.365
11463.2
2251.26
1419.21
1177.32
943.324
734.768
568.509
455.511
377.855
323.294
284.455
256.409
235.925
220.656
209.132
200.422
193.845
188.984
185.603
183.633
183.696
184.826
187.479
193.385
203.113
217.579
237.861
261.65
287.051
309.873
325.358
338.869
381.156
456.161
565.354
644.68
713.287
787.228
862.938
931.135
989.378
1040.62
1080.81
1097.74
1091.23
1040.1
1002.96
956.238
921.409
882.528
853.415
827.139
806.697
790.424
777.761
767.903
760.579
755.416
752.419
750.176
749.561
749.51
750.167
751.617
753.423
755.673
758.192
760.963
763.923
767.042
770.294
773.658
777.116
780.654
784.26
787.924
791.635
795.385
799.165
802.969
806.79
810.621
814.456
818.29
822.118
825.936
829.74
833.528
837.295
841.041
844.759
848.454
852.123
855.767
859.385
862.979
866.546
870.083
873.58
877.028
880.41
883.703
886.908
890.023
893.045
895.969
898.794
901.515
904.133
906.644
909.048
911.344
913.531
915.608
917.575
919.429
921.173
922.805
924.324
925.728
927.015
928.186
929.239
930.18
931.005
931.72
932.318
932.804
933.173
933.429
933.568
933.597
933.541
933.339
933.019
932.574
932.008
931.308
930.49
929.567
928.543
927.422
926.202
924.888
923.481
921.987
920.387
918.726
916.94
915.121
913.173
911.201
909.105
906.995
904.766
902.526
900.184
897.808
895.369
892.878
890.338
887.753
885.128
882.465
879.771
877.046
874.294
871.52
868.731
865.934
863.143
860.377
857.656
855.013
852.501
850.208
848.258
846.99
847.006
849.9
11463.2
2836.27
1716.36
1213.84
846.764
598.711
453.77
363.837
308.317
272.876
247.817
228.765
213.476
201.093
191.085
183.097
176.895
172.321
169.194
167.481
167.426
168.324
170.659
175.114
181.908
191.729
206.167
225.052
248.708
280.793
330.106
398.412
507.365
614.742
691.495
757.505
815.402
860.89
897.089
929.692
957.017
966.785
950.327
916.918
886.266
848.973
818.405
787.663
763.345
740.709
723.264
708.464
697.108
688.388
681.929
677.326
674.315
672.925
672.55
672.844
674.031
675.758
677.958
680.583
683.492
686.652
689.999
693.504
697.137
700.88
704.715
708.631
712.617
716.664
720.763
724.906
729.086
733.295
737.526
741.772
746.027
750.284
754.537
758.783
763.014
767.229
771.422
775.589
779.728
783.833
787.904
791.937
795.931
799.885
803.796
807.661
811.475
815.231
818.92
822.537
826.073
829.518
832.869
836.126
839.284
842.339
845.29
848.134
850.869
853.492
856.003
858.399
860.683
862.852
864.906
866.844
868.666
870.371
871.958
873.426
874.771
875.994
877.093
878.07
878.924
879.655
880.261
880.741
881.095
881.318
881.406
881.407
881.262
880.982
880.571
880.028
879.356
878.552
877.624
876.578
875.42
874.15
872.77
871.282
869.69
868.002
866.208
864.326
862.338
860.275
858.111
855.88
853.557
851.175
848.709
846.188
843.593
840.941
838.23
835.464
832.647
829.784
826.879
823.937
820.961
817.956
814.923
811.868
808.797
805.718
802.643
799.59
796.578
793.636
790.809
788.166
785.804
783.962
783.022
783.847
11463.2
3386.4
1781.3
1058.68
668.797
468.141
361.681
302.178
265.113
240.253
222.226
208.298
197.178
187.852
179.878
173.151
167.681
163.495
160.705
159.38
159.605
161.143
164.602
170.318
179.062
191.917
209.293
235.015
275.677
339.361
437.898
545.513
631.417
698.4
753.001
793.101
823.25
848.987
862.888
866.584
849.256
823.882
799.934
772.344
746.881
721.491
700.064
680.768
665.077
651.624
641.065
632.635
626.385
621.947
619.081
617.774
617.384
617.94
619.356
621.378
623.971
626.993
630.365
634.025
637.905
641.965
646.167
650.489
654.91
659.417
663.999
668.647
673.352
678.108
682.906
687.741
692.604
697.487
702.383
707.284
712.183
717.075
721.952
726.81
731.644
736.448
741.219
745.951
750.64
755.283
759.875
764.414
768.9
773.327
777.693
781.995
786.228
790.389
794.473
798.471
802.373
806.175
809.873
813.466
816.948
820.319
823.574
826.713
829.73
832.626
835.397
838.042
840.558
842.944
845.202
847.334
849.338
851.216
852.964
854.58
856.063
857.41
858.623
859.698
860.638
861.437
862.098
862.616
862.993
863.217
863.3
863.268
863.079
862.739
862.255
861.625
860.854
859.939
858.888
857.704
856.392
854.953
853.391
851.705
849.897
847.963
845.914
843.758
841.496
839.136
836.677
834.131
831.496
828.785
825.994
823.132
820.197
817.198
814.137
811.019
807.847
804.628
801.365
798.065
794.732
791.367
787.976
784.562
781.132
777.696
774.264
770.852
767.478
764.169
760.959
757.905
755.079
752.653
750.813
750.041
11463.2
3568.31
1599.08
840.988
529.155
391.901
322.195
280.63
251.871
231.775
216.531
204.226
193.724
184.644
176.837
170.306
165.176
161.677
159.859
159.702
161.009
164.2
169.959
178.787
193.147
215.976
250.697
307.59
392.539
484.388
561.455
625.253
679.222
721.368
753.443
777.762
788.048
788.287
772.706
753.368
732.851
711.711
691.734
671.646
653.18
636.223
621.851
609.532
599.472
591.283
585.003
580.371
577.297
575.784
575.31
575.782
577.167
579.31
582.11
585.436
589.207
593.338
597.76
602.42
607.269
612.273
617.404
622.641
627.969
633.374
638.847
644.378
649.96
655.585
661.247
666.938
672.648
678.368
684.09
689.805
695.506
701.184
706.834
712.45
718.025
723.557
729.039
734.466
739.832
745.133
750.365
755.527
760.614
765.625
770.556
775.402
780.162
784.834
789.41
793.879
798.237
802.477
806.598
810.596
814.468
818.212
821.826
825.307
828.653
831.861
834.929
837.857
840.644
843.289
845.793
848.157
850.379
852.459
854.395
856.183
857.823
859.31
860.646
861.827
862.853
863.721
864.431
864.981
865.369
865.578
865.64
865.55
865.288
864.859
864.267
863.511
862.596
861.521
860.293
858.914
857.388
855.719
853.91
851.962
849.878
847.67
845.338
842.887
840.321
837.644
834.862
831.981
829.007
825.947
822.802
819.579
816.28
812.912
809.479
805.987
802.439
798.841
795.199
791.518
787.803
784.057
780.283
776.488
772.678
768.862
765.051
761.26
757.506
753.811
750.204
746.731
743.445
740.448
737.825
735.711
11463.2
3451.95
1323.28
678.159
448.462
348.112
295.419
264.039
243.836
227.857
214.897
204.03
194.73
186.661
179.775
174.244
170.36
168.258
168.162
170.428
175.189
183.86
197.966
218.671
251.398
301.447
367.238
438.703
502.785
559.48
607.816
648.254
681.625
708.971
721.61
722.517
710.89
696.403
679.061
662.091
645.861
630.278
615.46
601.229
588.302
576.888
567.266
559.282
552.924
548.055
544.61
542.648
541.917
542.051
543.219
545.235
548.011
551.442
555.438
559.911
564.783
569.99
575.47
581.176
587.067
593.112
599.286
605.57
611.947
618.4
624.918
631.489
638.104
644.752
651.428
658.126
664.829
671.528
678.213
684.874
691.503
698.093
704.634
711.122
717.547
723.899
730.173
736.374
742.498
748.541
754.495
760.362
766.136
771.814
777.392
782.865
788.229
793.476
798.602
803.602
808.471
813.205
817.802
822.257
826.568
830.732
834.75
838.616
842.33
845.888
849.29
852.534
855.62
858.546
861.315
863.927
866.38
868.675
870.807
872.774
874.573
876.202
877.657
878.939
880.044
880.972
881.718
882.284
882.662
882.839
882.851
882.68
882.318
881.768
881.032
880.113
879.012
877.734
876.28
874.656
872.866
870.914
868.803
866.54
864.127
861.573
858.88
856.057
853.105
850.034
846.846
843.55
840.153
836.661
833.08
829.414
825.669
821.851
817.965
814.018
810.014
805.959
801.857
797.717
793.542
789.335
785.102
780.849
776.582
772.312
768.048
763.805
759.599
755.448
751.378
747.424
743.628
740.078
736.802
733.639
11463.2
3049.34
1069.11
577.953
409.793
332.424
289.454
262.552
244.406
231.326
220.865
211.957
204.222
197.687
192.554
189.428
188.552
190.468
195.404
204.12
217.306
237.665
267.348
307.955
356.733
407.729
458.146
504.854
546.329
582.634
613.541
640.876
657.692
662.299
656.789
646.969
633.437
619.816
606.473
594.095
582.408
571.201
560.49
550.446
541.467
533.742
527.37
522.307
518.528
516.016
514.834
514.592
515.359
517.046
519.603
522.933
526.953
531.581
536.742
542.364
548.383
554.743
561.386
568.265
575.34
582.579
589.956
597.462
605.071
612.756
620.502
628.292
636.111
643.936
651.735
659.492
667.24
674.978
682.691
690.369
698.001
705.58
713.097
720.546
727.919
735.215
742.427
749.538
756.54
763.424
770.19
776.834
783.355
789.749
796.012
802.139
808.127
813.97
819.668
825.217
830.612
835.851
840.93
845.845
850.594
855.175
859.588
863.83
867.899
871.793
875.511
879.052
882.416
885.603
888.614
891.45
894.109
896.592
898.893
901.01
902.939
904.677
906.22
907.568
908.717
909.665
910.41
910.951
911.274
911.385
911.296
911
910.49
909.769
908.839
907.702
906.361
904.82
903.083
901.154
899.038
896.741
894.267
891.623
888.814
885.848
882.73
879.468
876.068
872.536
868.879
865.104
861.219
857.234
853.153
848.983
844.731
840.403
836.007
831.549
827.032
822.463
817.848
813.192
808.502
803.781
799.036
794.272
789.499
784.724
779.958
775.215
770.508
765.855
761.277
756.805
752.467
748.336
744.404
740.271
11463.2
2569.44
892.263
513.394
381.038
320.047
286.381
266.098
252.456
242.315
234.222
227.609
222.425
219.306
218.457
220.571
226.538
235.842
248.068
265.13
288.449
317.713
351.688
388.528
426.015
462.165
496.004
526.647
553.695
578.296
597.184
605.07
605.687
600.74
591.988
581.872
571.371
561.535
552.321
543.667
535.35
527.305
519.656
512.634
506.501
501.401
497.399
494.494
492.815
492.212
492.499
493.789
496.005
499.089
502.986
507.624
512.929
518.832
525.266
532.169
539.487
547.195
555.209
563.477
571.96
580.616
589.394
598.216
607.098
616.067
625.108
634.203
643.331
652.464
661.593
670.71
679.784
688.813
697.777
706.66
715.457
724.161
732.769
741.273
749.666
757.939
766.077
774.077
781.93
789.632
797.181
804.576
811.816
818.897
825.816
832.568
839.151
845.562
851.799
857.86
863.741
869.439
874.95
880.273
885.403
890.342
895.087
899.64
903.997
908.158
912.122
915.89
919.462
922.838
926.02
929.009
931.805
934.405
936.806
939.003
940.994
942.772
944.337
945.683
946.809
947.71
948.386
948.83
949.036
949.007
948.753
948.263
947.538
946.577
945.383
943.957
942.306
940.43
938.337
936.03
933.516
930.8
927.89
924.792
921.514
918.063
914.448
910.676
906.756
902.694
898.498
894.177
889.74
885.194
880.549
875.812
870.991
866.095
861.13
856.103
851.018
845.881
840.697
835.474
830.216
824.929
819.62
814.297
808.969
803.643
798.329
793.04
787.789
782.591
777.465
772.436
767.528
762.798
758.232
753.218
11463.2
2180.74
822.674
497.839
377.443
321.87
293.36
276.741
266.058
258.632
253.304
249.934
248.665
249.598
253.89
261.662
272.627
286.268
303.488
324.316
348.261
374.403
401.658
428.957
455.434
480.117
502.712
523.884
542.419
552.858
556.095
555.811
551.968
545.792
538.603
531.348
524.378
517.848
511.618
505.587
499.697
494.016
488.718
484.015
480.099
477.086
475.109
474.255
474.217
475.212
477.139
479.991
483.729
488.315
493.731
499.903
506.741
514.181
522.159
530.606
539.429
548.478
557.849
567.53
577.484
587.674
598.064
608.645
619.372
630.182
641.035
651.908
662.771
673.568
684.27
694.857
705.303
715.59
725.725
735.719
745.584
755.323
764.936
774.42
783.765
792.956
801.98
810.824
819.482
827.946
836.218
844.299
852.186
859.879
867.373
874.663
881.749
888.628
895.301
901.766
908.02
914.061
919.885
925.49
930.876
936.043
940.991
945.721
950.231
954.522
958.597
962.456
966.102
969.535
972.757
975.77
978.573
981.166
983.544
985.702
987.636
989.341
990.814
992.051
993.047
993.797
994.298
994.546
994.537
994.274
993.756
992.981
991.948
990.656
989.107
987.304
985.252
982.955
980.418
977.647
974.649
971.431
968.001
964.366
960.537
956.521
952.328
947.968
943.45
938.783
933.975
929.036
923.975
918.8
913.523
908.153
902.702
897.176
891.584
885.931
880.223
874.463
868.658
862.814
856.936
851.034
845.114
839.187
833.259
827.338
821.435
815.559
809.722
803.94
798.229
792.612
787.106
781.761
776.572
770.738
11463.2
1898.98
749.463
475.163
374.166
327.887
304.041
290.678
282.736
278.006
275.764
275.283
277.081
281.693
289.163
299.293
311.853
326.794
343.81
362.407
382.245
402.587
422.653
441.794
460.063
477.753
493.795
505.23
510.588
512.269
512.443
510.388
506.738
502.366
497.802
493.331
489.002
484.806
480.687
476.641
472.729
469.085
465.879
463.284
461.513
460.74
460.738
461.834
463.92
466.931
470.835
475.608
481.213
487.572
494.542
502.144
510.448
519.423
529.014
539.162
549.817
560.983
572.559
584.493
596.743
609.264
621.998
634.905
647.942
660.987
673.961
686.792
699.421
711.831
723.995
735.893
747.517
758.868
769.969
780.859
791.579
802.146
812.571
822.856
832.986
842.938
852.686
862.208
871.496
880.552
889.371
897.959
906.315
914.436
922.317
929.956
937.349
944.497
951.404
958.066
964.486
970.656
976.578
982.249
987.672
992.846
997.779
1002.47
1006.91
1011.11
1015.08
1018.82
1022.32
1025.6
1028.66
1031.49
1034.1
1036.49
1038.65
1040.59
1042.28
1043.74
1044.95
1045.92
1046.63
1047.08
1047.26
1047.17
1046.81
1046.17
1045.26
1044.08
1042.62
1040.88
1038.86
1036.57
1034
1031.18
1028.09
1024.76
1021.18
1017.36
1013.31
1009.05
1004.58
999.909
995.052
990.019
984.82
979.467
973.969
968.336
962.579
956.702
950.724
944.658
938.514
932.299
926.021
919.686
913.298
906.863
900.385
893.869
887.323
880.759
874.185
867.61
861.043
854.488
847.956
841.455
834.996
828.594
822.265
816.032
809.907
803.929
798.125
791.52
11463.2
1887.82
746.754
477.422
381.251
338.487
317.351
306.18
300.294
297.646
297
298.463
302.441
308.691
317.066
327.256
339.039
352.127
366.229
380.946
395.838
410.417
424.801
439.119
452.226
462.433
469.063
472.97
474.917
475.529
475.408
474.058
472.13
469.95
467.687
465.424
463.175
460.962
458.823
456.855
455.228
454.222
453.808
453.971
454.957
456.766
459.322
462.534
466.4
471.177
476.907
483.582
491.18
499.666
509.052
519.303
530.359
542.174
554.673
567.786
581.459
595.647
610.252
625.201
640.444
655.96
671.588
687.204
702.675
717.948
732.945
747.584
761.801
775.557
788.827
801.603
813.885
825.702
837.126
848.267
859.253
870.101
880.831
891.462
901.96
912.28
922.372
932.184
941.724
950.994
959.996
968.732
977.2
985.396
993.314
1000.95
1008.3
1015.38
1022.17
1028.69
1034.93
1040.89
1046.57
1051.96
1057.08
1061.93
1066.51
1070.82
1074.89
1078.71
1082.28
1085.6
1088.67
1091.5
1094.09
1096.45
1098.57
1100.46
1102.13
1103.55
1104.74
1105.69
1106.39
1106.85
1107.04
1106.97
1106.64
1105.99
1105.09
1103.91
1102.45
1100.69
1098.65
1096.31
1093.68
1090.76
1087.56
1084.08
1080.32
1076.31
1072.03
1067.5
1062.74
1057.75
1052.53
1047.11
1041.5
1035.7
1029.74
1023.61
1017.34
1010.94
1004.41
997.759
991.015
984.19
977.293
970.331
963.31
956.236
949.115
941.951
934.751
927.515
920.256
912.988
905.722
898.464
891.221
883.998
876.803
869.644
862.53
855.478
848.507
841.635
834.874
828.253
821.838
814.503
11463.2
1846.58
735.899
480.38
390.166
350.7
331.419
321.345
316.284
314.253
313.991
316.182
320.674
326.934
334.626
343.403
353.093
363.421
374.157
384.986
396.079
407.455
417.764
425.966
432.43
437.485
441.422
444.192
446.156
447.57
448.564
449.214
449.766
450.417
450.998
451.546
452.1
452.713
453.445
454.34
455.389
456.49
458.246
460.889
464.578
469.219
474.8
481.383
489.016
497.661
507.337
518.052
529.777
542.461
556.078
570.584
585.96
602.171
619.017
636.384
654.172
672.293
690.642
709.116
727.597
745.927
764.071
781.933
799.401
816.364
832.709
848.312
863.122
877.123
890.339
902.786
914.447
925.371
935.736
945.774
955.93
966.037
976.123
986.272
996.38
1006.34
1016.09
1025.59
1034.82
1043.77
1052.42
1060.78
1068.85
1076.62
1084.09
1091.24
1098.07
1104.6
1110.81
1116.73
1122.34
1127.64
1132.63
1137.31
1141.68
1145.76
1149.54
1153.04
1156.28
1159.28
1162.01
1164.48
1166.68
1168.63
1170.32
1171.78
1173
1174.01
1174.79
1175.33
1175.65
1175.73
1175.6
1175.21
1174.56
1173.65
1172.49
1171.06
1169.36
1167.38
1165.12
1162.56
1159.71
1156.57
1153.12
1149.39
1145.37
1141.06
1136.48
1131.62
1126.5
1121.12
1115.5
1109.64
1103.56
1097.27
1090.77
1084.09
1077.25
1070.24
1063.08
1055.8
1048.4
1040.91
1033.35
1025.71
1018.01
1010.24
1002.43
994.559
986.653
978.712
970.744
962.746
954.737
946.734
938.744
930.772
922.822
914.901
907.015
899.17
891.378
883.658
876.028
868.505
861.098
853.825
846.803
838.78
11463.7
1825.89
735.73
488.125
400.347
361.991
343.442
333.538
328.311
326.135
325.769
327.729
331.709
337.016
343.314
350.281
357.852
365.815
374.136
382.262
390.108
397.211
403.822
410.102
415.82
421.087
425.979
430.56
434.897
439.067
443.01
446.688
449.975
452.821
455.688
458.698
461.913
465.418
469.293
473.64
478.602
484.44
491.289
499.413
508.801
519.178
530.582
543.036
556.546
571.063
586.602
603.236
620.928
639.434
658.624
678.367
698.503
718.885
739.486
760.226
781.007
801.74
822.337
842.713
862.78
882.452
901.659
920.33
938.376
955.703
972.182
987.6
1001.97
1015.38
1027.93
1039.65
1050.61
1060.81
1070.33
1079.3
1087.94
1096.34
1104.79
1113.71
1122.69
1131.52
1140.12
1148.48
1156.58
1164.36
1171.82
1178.98
1185.83
1192.37
1198.59
1204.47
1210.02
1215.24
1220.14
1224.73
1229.02
1232.98
1236.61
1239.91
1242.88
1245.54
1247.9
1249.95
1251.73
1253.26
1254.53
1255.53
1256.28
1256.79
1257.06
1257.1
1256.95
1256.63
1256.08
1255.33
1254.37
1253.21
1251.84
1250.25
1248.43
1246.37
1244.08
1241.54
1238.75
1235.7
1232.38
1228.78
1224.9
1220.73
1216.28
1211.54
1206.53
1201.24
1195.67
1189.85
1183.76
1177.41
1170.83
1164.01
1156.96
1149.71
1142.26
1134.63
1126.83
1118.88
1110.78
1102.55
1094.22
1085.81
1077.33
1068.79
1060.18
1051.51
1042.8
1034.04
1025.26
1016.45
1007.62
998.806
990.013
981.24
972.489
963.765
955.072
946.418
937.809
929.249
920.754
912.346
904.04
895.85
887.786
879.852
872.217
863.54
11462.8
1808.51
736.053
493.951
407.374
369.591
351.179
341.07
335.637
333.347
332.888
334.566
338.018
342.644
348.289
354.6
361.501
368.72
376.128
383.732
391.28
398.626
405.926
413.057
420.024
426.927
433.832
440.821
447.954
455.315
462.799
470.448
478.399
486.839
495.737
505.183
515.241
525.996
537.525
549.922
563.283
577.704
593.112
609.357
626.328
644.149
662.88
682.47
702.834
723.874
745.529
767.792
790.31
813.001
835.76
858.461
880.975
903.181
925.002
946.365
967.223
987.544
1007.3
1026.46
1045.01
1062.92
1080.18
1096.76
1112.65
1127.8
1142.19
1155.79
1168.46
1180.28
1191.41
1201.89
1211.77
1221.01
1229.59
1237.57
1244.77
1251.62
1258.75
1265.88
1272.77
1279.36
1285.6
1291.53
1297.13
1302.42
1307.42
1312.13
1316.55
1320.69
1324.53
1328.06
1331.3
1334.22
1336.87
1339.27
1341.38
1343.19
1344.7
1345.9
1346.81
1347.43
1347.78
1347.83
1347.65
1347.33
1346.73
1345.9
1344.87
1343.64
1342.23
1340.64
1338.9
1337
1334.95
1332.73
1330.35
1327.81
1325.08
1322.18
1319.09
1315.8
1312.31
1308.6
1304.68
1300.52
1296.13
1291.48
1286.57
1281.41
1275.98
1270.28
1264.34
1258.13
1251.68
1244.98
1238.03
1230.85
1223.43
1215.79
1207.94
1199.89
1191.66
1183.25
1174.67
1165.95
1157.08
1148.09
1138.98
1129.76
1120.47
1111.1
1101.66
1092.16
1082.61
1073.03
1063.41
1053.78
1044.14
1034.52
1024.94
1015.38
1005.85
996.347
986.887
977.475
968.12
958.845
949.667
940.591
931.627
922.789
914.085
905.512
897.282
888.019
11461.8
1797.18
738.174
496.396
410.591
374.636
356.783
347.292
342.598
340.966
341.075
343.433
347.382
352.495
358.543
365.495
373.481
382.101
390.858
400.109
409.923
420.42
431.657
443.097
455.092
467.746
481.102
495.239
510.176
525.953
542.642
560.412
579.276
599.247
620.173
642.032
664.793
688.467
713.109
738.726
765.104
792.068
819.347
846.673
873.892
901.084
928.621
956.22
983.449
1010.11
1036.01
1060.69
1084.22
1106.71
1128.12
1148.45
1167.67
1185.82
1202.91
1219
1234.13
1248.38
1261.79
1274.43
1286.34
1297.58
1308.17
1318.17
1327.58
1336.47
1344.8
1352.86
1360.58
1368.03
1375.08
1381.67
1387.75
1393.06
1397.94
1402.61
1407.29
1412.14
1416.85
1420.76
1424.08
1426.96
1429.51
1431.77
1433.79
1435.59
1437.18
1438.55
1439.72
1440.68
1441.43
1441.97
1442.3
1442.39
1442.28
1442.06
1441.58
1440.87
1439.92
1438.75
1437.34
1435.73
1433.91
1431.88
1429.71
1427.36
1424.85
1422.19
1419.39
1416.46
1413.41
1410.25
1406.99
1403.62
1400.14