/*--------------------------------*- C++ -*----------------------------------*\
  =========                 |
  \\      /  F ield         | OpenFOAM: The Open Source CFD Toolbox
   \\    /   O peration     | Website:  https://openfoam.org
    \\  /    A nd           | Version:  13
     \\/     M anipulation  |
\*---------------------------------------------------------------------------*/
FoamFile
{
    format      ascii;
    class       volScalarField;
    location    "1900";
    object      p;
}
// * * * * * * * * * * * * * * * * * * * * * * * * * * * * * * * * * * * * * //

dimensions      [0 2 -2 0 0 0 0];

internalField   nonuniform List<scalar> 
12225
(
-4.05207
-4.93982
-5.3441
-5.48562
-5.63139
-5.78071
-5.91196
-6.03344
-6.14234
-6.24684
-6.34386
-6.42767
-6.50608
-6.57672
-6.64715
-6.73347
-6.81301
-6.89086
-4.34653
-4.98141
-5.32338
-5.46493
-5.60487
-5.7514
-5.89088
-6.0116
-6.11753
-6.22133
-6.31856
-6.40683
-6.48338
-6.55326
-6.62465
-6.71538
-6.78792
-6.81124
-4.54835
-4.97361
-5.30186
-5.47356
-5.6196
-5.76719
-5.90655
-6.02125
-6.1242
-6.22397
-6.31673
-6.40027
-6.47298
-6.53982
-6.60491
-6.66695
-6.72462
-6.773
-4.67492
-4.98586
-5.30454
-5.49658
-5.62901
-5.76936
-5.90117
-6.00891
-6.10902
-6.20547
-6.29554
-6.37734
-6.45005
-6.51677
-6.57906
-6.62957
-6.68667
-6.7447
-4.80119
-5.03345
-5.34443
-5.50464
-5.63577
-5.76644
-5.89287
-6.00123
-6.10078
-6.19514
-6.28325
-6.36363
-6.43569
-6.50122
-6.56116
-6.61283
-6.66417
-6.71341
-4.91631
-5.09459
-5.3332
-5.50023
-5.63384
-5.76135
-5.88344
-5.99108
-6.08875
-6.18035
-6.26595
-6.34437
-6.4151
-6.4792
-6.53743
-6.58913
-6.63797
-6.68213
-5.0196
-5.15633
-5.35273
-5.51407
-5.63836
-5.75917
-5.87625
-5.9816
-6.07725
-6.16655
-6.25003
-6.32681
-6.39641
-6.45945
-6.51656
-6.56778
-6.61481
-6.65621
-5.11237
-5.21537
-5.38146
-5.53163
-5.64983
-5.76355
-5.87442
-5.97643
-6.06961
-6.15631
-6.23723
-6.31179
-6.37962
-6.44108
-6.49666
-6.54662
-6.59175
-6.63104
-5.19601
-5.27358
-5.4153
-5.55284
-5.66582
-5.77271
-5.87741
-5.9754
-6.06545
-6.1491
-6.22705
-6.29895
-6.36457
-6.4241
-6.47792
-6.52634
-6.56975
-6.60751
-5.27028
-5.33078
-5.45091
-5.57521
-5.68228
-5.78314
-5.88203
-5.9756
-6.06217
-6.14262
-6.21748
-6.28662
-6.34986
-6.40733
-6.45931
-6.5061
-6.54797
-6.58453
-5.33614
-5.38459
-5.48547
-5.59693
-5.69774
-5.79304
-5.88639
-5.97542
-6.05841
-6.13563
-6.20749
-6.27394
-6.33484
-6.39028
-6.44051
-6.48578
-6.52632
-6.56191
-5.39063
-5.43059
-5.51639
-5.61659
-5.71123
-5.80145
-5.88983
-5.97468
-6.05431
-6.12861
-6.19781
-6.26187
-6.32069
-6.37437
-6.42307
-6.46706
-6.50654
-6.54135
-5.4399
-5.47342
-5.54648
-5.63612
-5.72435
-5.80946
-5.89297
-5.97367
-6.04993
-6.12134
-6.18796
-6.24972
-6.30658
-6.35854
-6.40583
-6.4486
-6.48711
-6.52119
-5.49061
-5.51841
-5.5796
-5.65826
-5.73906
-5.81832
-5.89641
-5.9724
-6.04479
-6.11293
-6.17666
-6.2359
-6.29056
-6.34069
-6.3864
-6.42791
-6.46536
-6.4988
-5.5407
-5.56355
-5.6143
-5.68226
-5.755
-5.82783
-5.90013
-5.97099
-6.03909
-6.1036
-6.16416
-6.22065
-6.27294
-6.32109
-6.36515
-6.40533
-6.44177
-6.47452
-5.58723
-5.60599
-5.64807
-5.70634
-5.771
-5.83722
-5.90363
-5.96924
-6.03284
-6.09348
-6.15075
-6.20434
-6.25423
-6.3003
-6.34274
-6.38156
-6.41706
-6.44919
-5.62606
-5.64167
-5.67711
-5.72741
-5.78483
-5.84487
-5.90577
-5.96642
-6.02566
-6.08257
-6.13657
-6.18739
-6.23488
-6.27903
-6.31985
-6.35749
-6.39206
-6.42372
-5.6511
-5.66466
-5.69579
-5.74065
-5.79276
-5.84802
-5.90457
-5.96123
-6.0169
-6.07065
-6.12188
-6.17031
-6.21575
-6.2582
-6.29765
-6.33425
-6.36806
-6.39929
-5.65279
-5.66569
-5.69559
-5.73873
-5.78885
-5.84201
-5.89647
-5.95113
-6.00489
-6.05684
-6.10641
-6.15333
-6.19745
-6.23878
-6.27733
-6.31323
-6.34656
-6.37756
-5.62259
-5.63713
-5.67049
-5.71749
-5.77064
-5.82585
-5.88187
-5.93769
-5.99227
-6.04458
-6.09425
-6.14106
-6.18502
-6.22612
-6.26447
-6.3002
-6.33344
-6.36444
-5.57774
-5.59536
-5.63517
-5.68929
-5.74796
-5.80732
-5.86676
-5.92557
-5.9823
-6.03611
-6.08665
-6.13402
-6.17824
-6.21948
-6.25786
-6.29359
-6.32683
-6.35782
-5.51947
-5.5424
-5.59276
-5.6571
-5.72281
-5.78739
-5.85168
-5.91467
-5.97457
-6.0305
-6.08249
-6.13076
-6.1755
-6.21695
-6.25533
-6.291
-6.32416
-6.35514
-5.44988
-5.48132
-5.54752
-5.62478
-5.69786
-5.76799
-5.83774
-5.90539
-5.96865
-6.02693
-6.08061
-6.13006
-6.17554
-6.21732
-6.25578
-6.29124
-6.32411
-6.35479
-5.36983
-5.41448
-5.50256
-5.59447
-5.67478
-5.75097
-5.82691
-5.89936
-5.96562
-6.0258
-6.08086
-6.1313
-6.17736
-6.2194
-6.25794
-6.29341
-6.32612
-6.35663
-5.2793
-5.34599
-5.46147
-5.56665
-5.65229
-5.73479
-5.81781
-5.89548
-5.96495
-6.02722
-6.08364
-6.1349
-6.18131
-6.22322
-6.26131
-6.29626
-6.32848
-6.35834
-5.1781
-5.27792
-5.42852
-5.54492
-5.63319
-5.72077
-5.80962
-5.89143
-5.9637
-6.0283
-6.08664
-6.13924
-6.18657
-6.22914
-6.2674
-6.30225
-6.33464
-6.36519
-5.06588
-5.20965
-5.39771
-5.52238
-5.6152
-5.71046
-5.80514
-5.88974
-5.96355
-6.0294
-6.08884
-6.14188
-6.18897
-6.23138
-6.26928
-6.3033
-6.33513
-6.36589
-4.93325
-5.16758
-5.37625
-5.49313
-5.59134
-5.69921
-5.80299
-5.89276
-5.97031
-6.03918
-6.10104
-6.15563
-6.20308
-6.24509
-6.28227
-6.31529
-6.34593
-6.3767
-4.73641
-5.14305
-5.38106
-5.47866
-5.57302
-5.68638
-5.79375
-5.88488
-5.96359
-6.03411
-6.0975
-6.15345
-6.20178
-6.24322
-6.27904
-6.31053
-6.33882
-6.36516
-4.47877
-5.07311
-5.37645
-5.4849
-5.58786
-5.70986
-5.82187
-5.91435
-5.99294
-6.06323
-6.12614
-6.18151
-6.22926
-6.26911
-6.30239
-6.33048
-6.35424
-6.37281
-7.33003
-7.33014
-7.33019
-7.33018
-7.32989
-7.32867
-7.32611
-7.32265
-7.31928
-7.31698
-7.31677
-7.31893
-7.32301
-7.32827
-7.33395
-7.33936
-7.34392
-7.34719
-7.34909
-7.3499
-7.3499
-7.34927
-7.34825
-7.34713
-7.34617
-7.34551
-7.34516
-7.34498
-7.34479
-7.34445
-7.34395
-7.34329
-7.34245
-7.34134
-7.33992
-7.33837
-7.33712
-7.33689
-7.33811
-7.34053
-7.34336
-7.34592
-7.34809
-7.35016
-7.35247
-7.35544
-7.35918
-7.3629
-7.36583
-7.36849
-7.37367
-7.38547
-7.40636
-7.43599
-7.47389
-7.52042
-7.57535
-7.63751
-7.70519
-7.77646
-7.84923
-7.92166
-7.99216
-8.05996
-8.12421
-8.18414
-8.23941
-8.28999
-8.33579
-8.37691
-8.41336
-8.44526
-8.47263
-8.49553
-8.51398
-8.52797
-8.53751
-8.54256
-8.54311
-8.53907
-8.53044
-8.51711
-8.49909
-8.47619
-8.4485
-8.4159
-8.37854
-8.33638
-8.28953
-8.23786
-8.18113
-8.1193
-8.0524
-7.98044
-7.90343
-7.82132
-7.73409
-7.64172
-7.5443
-7.44194
-7.33473
-7.2225
-7.10511
-6.98262
-6.85523
-6.72302
-6.58605
-6.44433
-6.29786
-6.14666
-5.9907
-5.83003
-5.66458
-5.4944
-5.31941
-5.13961
-4.95488
-4.76524
-4.57067
-4.37137
-4.1674
-3.95881
-3.74549
-3.52745
-3.30467
-3.07732
-2.84549
-2.60941
-2.36922
-2.12515
-1.87739
-1.62621
-1.37185
-1.11459
-0.854774
-0.592748
-0.328934
-0.0635776
0.203217
0.47119
0.739898
1.009
1.27819
1.54713
1.81555
2.08316
2.3497
2.61491
2.87857
3.14044
3.40031
3.65801
3.91334
4.16613
4.41623
4.6635
4.9078
5.14904
5.3871
5.62193
5.85344
6.08158
6.30626
6.52744
6.74504
6.95899
7.16921
7.37564
7.5782
7.77682
7.97143
8.16194
8.34826
8.53032
8.70803
8.88133
9.05053
9.21553
9.37935
9.53337
-7.33126
-7.33145
-7.33182
-7.33222
-7.3322
-7.33136
-7.32938
-7.32678
-7.32479
-7.3244
-7.32596
-7.32934
-7.33408
-7.33953
-7.34507
-7.35019
-7.35449
-7.35776
-7.35979
-7.36038
-7.3596
-7.35771
-7.35515
-7.35237
-7.34981
-7.34775
-7.34629
-7.34531
-7.34456
-7.34389
-7.34328
-7.3427
-7.3421
-7.34133
-7.34029
-7.33919
-7.33863
-7.3393
-7.34135
-7.34418
-7.34677
-7.34836
-7.34912
-7.3494
-7.34897
-7.34845
-7.34979
-7.35519
-7.36232
-7.36829
-7.37592
-7.3882
-7.40629
-7.4328
-7.47043
-7.51961
-7.57873
-7.64547
-7.71707
-7.79094
-7.86488
-7.93735
-8.00743
-8.07392
-8.13577
-8.19305
-8.24581
-8.29405
-8.33783
-8.37721
-8.41226
-8.44302
-8.46951
-8.49175
-8.50972
-8.5234
-8.53275
-8.53773
-8.5383
-8.53437
-8.52593
-8.51286
-8.49514
-8.47264
-8.44536
-8.41322
-8.3763
-8.33461
-8.28823
-8.23701
-8.18078
-8.1195
-8.05317
-7.98183
-7.90546
-7.82407
-7.7376
-7.64605
-7.54934
-7.44742
-7.34027
-7.22799
-7.11082
-6.98886
-6.86213
-6.73063
-6.5944
-6.4534
-6.30769
-6.15724
-6.00208
-5.84219
-5.67758
-5.50822
-5.33411
-5.15518
-4.97138
-4.78265
-4.58904
-4.39069
-4.18769
-3.98004
-3.76767
-3.55053
-3.32868
-3.10222
-2.87129
-2.63606
-2.39669
-2.1534
-1.90638
-1.65588
-1.40213
-1.14541
-0.885972
-0.624109
-0.360106
-0.094408
0.172454
0.440214
0.708733
0.977684
1.24676
1.51565
1.78404
2.05167
2.31826
2.58356
2.84733
3.10934
3.36939
3.62727
3.88281
4.13584
4.38619
4.63373
4.87832
5.11986
5.35823
5.59338
5.8252
6.05366
6.27868
6.5002
6.71814
6.93245
7.14304
7.34985
7.5528
7.75183
7.94687
8.13783
8.32468
8.50736
8.68581
8.85997
9.03008
9.19553
9.36166
9.51526
-7.3326
-7.33261
-7.33267
-7.33276
-7.33281
-7.33275
-7.3328
-7.33349
-7.33533
-7.3385
-7.34282
-7.34796
-7.35351
-7.35904
-7.36416
-7.36858
-7.37207
-7.3745
-7.37581
-7.37589
-7.37478
-7.37256
-7.36942
-7.36554
-7.36117
-7.35659
-7.35211
-7.348
-7.34447
-7.34164
-7.33948
-7.3378
-7.3363
-7.33488
-7.33383
-7.33369
-7.33507
-7.33822
-7.34232
-7.34581
-7.3471
-7.34595
-7.34399
-7.34323
-7.34399
-7.34521
-7.34814
-7.35561
-7.3675
-7.38331
-7.40415
-7.43074
-7.46352
-7.50301
-7.54942
-7.60216
-7.66003
-7.72167
-7.78552
-7.85019
-7.91444
-7.97735
-8.03829
-8.09662
-8.15178
-8.20352
-8.25171
-8.29625
-8.33706
-8.3741
-8.4073
-8.43665
-8.46207
-8.48352
-8.50093
-8.51424
-8.52337
-8.52826
-8.52883
-8.52501
-8.51675
-8.50396
-8.48657
-8.4645
-8.43769
-8.40609
-8.3697
-8.32857
-8.28273
-8.23208
-8.17642
-8.11573
-8.05003
-7.9793
-7.90356
-7.82279
-7.73698
-7.64616
-7.55027
-7.44927
-7.3431
-7.23183
-7.11562
-6.99458
-6.86877
-6.7382
-6.6029
-6.46287
-6.31813
-6.16867
-6.01453
-5.85567
-5.69214
-5.52387
-5.3509
-5.17312
-4.9905
-4.80297
-4.61062
-4.41353
-4.21181
-4.00539
-3.79425
-3.57831
-3.35766
-3.13238
-2.90262
-2.66851
-2.43025
-2.18799
-1.94197
-1.69241
-1.43956
-1.18369
-0.925068
-0.663998
-0.400751
-0.135718
0.130622
0.397978
0.666123
0.934764
1.20357
1.47225
1.74048
2.008
2.27452
2.53979
2.80356
3.0656
3.3257
3.58367
3.83932
4.09248
4.34299
4.59071
4.83549
5.07723
5.31581
5.55117
5.78321
6.01189
6.23712
6.45885
6.67701
6.89153
7.10234
7.30937
7.51254
7.71179
7.90704
8.09825
8.2853
8.46816
8.64683
8.82132
8.99217
9.15823
9.32706
9.47638
-7.33374
-7.33347
-7.33312
-7.33308
-7.33408
-7.33656
-7.34043
-7.34533
-7.3509
-7.35685
-7.36289
-7.36879
-7.37432
-7.37931
-7.38358
-7.38698
-7.38941
-7.39079
-7.39109
-7.39026
-7.38834
-7.38535
-7.38139
-7.37654
-7.37089
-7.36456
-7.35774
-7.35068
-7.34375
-7.33728
-7.33158
-7.32681
-7.32317
-7.32097
-7.32082
-7.32319
-7.32768
-7.33279
-7.33678
-7.33888
-7.33918
-7.33866
-7.33899
-7.34122
-7.34586
-7.35354
-7.36514
-7.38148
-7.40287
-7.4292
-7.4602
-7.49551
-7.53497
-7.57829
-7.62516
-7.67517
-7.72787
-7.78268
-7.83886
-7.89566
-7.9523
-8.00812
-8.06255
-8.11508
-8.16529
-8.21288
-8.25763
-8.29933
-8.33785
-8.37304
-8.40481
-8.43304
-8.45762
-8.47846
-8.49545
-8.50849
-8.51748
-8.52232
-8.52294
-8.51924
-8.51116
-8.49861
-8.48152
-8.45981
-8.43342
-8.40229
-8.3664
-8.32577
-8.28045
-8.23031
-8.17521
-8.11511
-8.05002
-7.97992
-7.90481
-7.82467
-7.73951
-7.64931
-7.55407
-7.45376
-7.34837
-7.23797
-7.12264
-7.00249
-6.87756
-6.74788
-6.61347
-6.47435
-6.33053
-6.18203
-6.02886
-5.87103
-5.70853
-5.54135
-5.36947
-5.19282
-5.01135
-4.82503
-4.63393
-4.43812
-4.23765
-4.03246
-3.82251
-3.60776
-3.38829
-3.16418
-2.93556
-2.70256
-2.46536
-2.22412
-1.97906
-1.7304
-1.4784
-1.22332
-0.965437
-0.705054
-0.442472
-0.178054
0.087789
0.354766
0.622592
0.890963
1.15955
1.42806
1.69617
1.96361
2.23009
2.49535
2.75914
3.02123
3.2814
3.53946
3.79522
4.04851
4.29916
4.54704
4.79199
5.0339
5.27267
5.50821
5.74044
5.96929
6.19471
6.41662
6.63496
6.84966
7.06064
7.26783
7.47116
7.67057
7.86598
8.05733
8.24457
8.42765
8.6066
8.7814
8.95272
9.1188
9.28838
9.43132
-7.33592
-7.33536
-7.33494
-7.33615
-7.34008
-7.34618
-7.35339
-7.36095
-7.36838
-7.37539
-7.38182
-7.38762
-7.39272
-7.39705
-7.40053
-7.40308
-7.40463
-7.40511
-7.40451
-7.4028
-7.39996
-7.39605
-7.39109
-7.38513
-7.37825
-7.37049
-7.36193
-7.35273
-7.34319
-7.33372
-7.32491
-7.31745
-7.3122
-7.3101
-7.31152
-7.31531
-7.3198
-7.32403
-7.32752
-7.33031
-7.33297
-7.33655
-7.34213
-7.35057
-7.36294
-7.37986
-7.40117
-7.42623
-7.45472
-7.48642
-7.52101
-7.55838
-7.59843
-7.64106
-7.68608
-7.73324
-7.78216
-7.83244
-7.88358
-7.93505
-7.98637
-8.03705
-8.08666
-8.1348
-8.18112
-8.22533
-8.26718
-8.30645
-8.34295
-8.3765
-8.40694
-8.43412
-8.45789
-8.47811
-8.49463
-8.50734
-8.51611
-8.52082
-8.52138
-8.51768
-8.50964
-8.49718
-8.48024
-8.45872
-8.43257
-8.40172
-8.36613
-8.32584
-8.28084
-8.23107
-8.17633
-8.11665
-8.052
-7.98238
-7.90776
-7.82812
-7.74348
-7.65379
-7.55909
-7.45932
-7.35456
-7.24481
-7.13019
-7.01074
-6.88652
-6.75757
-6.6239
-6.48555
-6.34251
-6.19484
-6.0425
-5.88557
-5.72397
-5.55777
-5.38685
-5.21121
-5.03075
-4.84553
-4.65554
-4.46089
-4.26151
-4.05742
-3.84848
-3.63477
-3.41629
-3.19319
-2.96551
-2.73345
-2.49711
-2.25671
-2.01242
-1.76449
-1.51315
-1.25867
-1.00134
-0.741445
-0.47932
-0.215326
0.0501865
0.316899
0.58453
0.852735
1.12121
1.38962
1.65769
1.9251
2.19159
2.45688
2.72072
2.98287
3.24312
3.50126
3.75712
4.01052
4.2613
4.50929
4.75437
4.99642
5.23533
5.47101
5.70338
5.93238
6.15794
6.38
6.59849
6.81333
7.02446
7.23181
7.4353
7.63487
7.83045
8.02198
8.20941
8.3927
8.57185
8.74677
8.91813
9.08359
9.25273
9.3887
-7.34007
-7.33916
-7.33953
-7.34368
-7.35092
-7.35935
-7.36795
-7.37622
-7.38386
-7.3908
-7.39703
-7.40252
-7.40722
-7.41107
-7.414
-7.41594
-7.41683
-7.41665
-7.41536
-7.41295
-7.40942
-7.40479
-7.39908
-7.39229
-7.38442
-7.3755
-7.36569
-7.35512
-7.34408
-7.33311
-7.32302
-7.31485
-7.30976
-7.30808
-7.30887
-7.31084
-7.31357
-7.31723
-7.32201
-7.32808
-7.33544
-7.34489
-7.35753
-7.37399
-7.39428
-7.41798
-7.44472
-7.47416
-7.50596
-7.53999
-7.57607
-7.6141
-7.654
-7.69564
-7.73888
-7.78353
-7.82933
-7.87599
-7.92318
-7.97056
-8.01777
-8.06449
-8.11037
-8.15509
-8.19835
-8.23987
-8.27939
-8.31669
-8.35153
-8.38372
-8.41306
-8.43934
-8.4624
-8.48207
-8.49816
-8.51054
-8.51905
-8.52358
-8.524
-8.5202
-8.51211
-8.49963
-8.48269
-8.46122
-8.43514
-8.40441
-8.36896
-8.32882
-8.28401
-8.23439
-8.17988
-8.12043
-8.05604
-7.9867
-7.91239
-7.83308
-7.74877
-7.65945
-7.56509
-7.46572
-7.36136
-7.25207
-7.13793
-7.019
-6.89532
-6.76691
-6.63381
-6.49604
-6.35364
-6.20661
-6.05499
-5.89879
-5.73799
-5.57259
-5.40253
-5.22774
-5.0482
-4.86393
-4.67496
-4.4813
-4.28289
-4.07969
-3.87164
-3.65878
-3.44114
-3.21884
-2.99195
-2.76061
-2.52496
-2.28519
-2.04148
-1.79408
-1.5432
-1.28913
-1.03215
-0.772579
-0.510727
-0.246973
0.0183678
0.284967
0.552522
0.820683
1.08914
1.35756
1.62565
1.89311
2.15965
2.42501
2.68891
2.95114
3.21145
3.46968
3.72561
3.97909
4.22994
4.47802
4.72317
4.96529
5.20427
5.44002
5.67247
5.90155
6.12718
6.34933
6.56791
6.78285
6.99408
7.20153
7.40513
7.60481
7.80051
7.99216
8.1797
8.36308
8.54229
8.71713
8.88822
9.05272
9.22116
9.35028
-7.34545
-7.34489
-7.34731
-7.35427
-7.36306
-7.3719
-7.38035
-7.38827
-7.39558
-7.40226
-7.40825
-7.41349
-7.41789
-7.4214
-7.42395
-7.42547
-7.42593
-7.42529
-7.42355
-7.42068
-7.4167
-7.41163
-7.4054
-7.39795
-7.38934
-7.37971
-7.36926
-7.35823
-7.34699
-7.33618
-7.32682
-7.31985
-7.31533
-7.31256
-7.31123
-7.31157
-7.31408
-7.31896
-7.32604
-7.33557
-7.34813
-7.36398
-7.38301
-7.40501
-7.42982
-7.45709
-7.48654
-7.518
-7.55129
-7.5863
-7.62287
-7.66089
-7.70023
-7.74079
-7.78245
-7.82506
-7.86845
-7.91243
-7.95676
-8.00121
-8.04551
-8.0894
-8.13261
-8.17487
-8.2159
-8.25546
-8.29328
-8.32912
-8.36274
-8.39391
-8.42241
-8.44802
-8.47053
-8.48974
-8.50547
-8.51754
-8.5258
-8.5301
-8.53032
-8.52636
-8.51812
-8.50551
-8.48846
-8.46691
-8.44077
-8.41
-8.37454
-8.33441
-8.2896
-8.24004
-8.18556
-8.12617
-8.06189
-7.99267
-7.91848
-7.83933
-7.75518
-7.66603
-7.57185
-7.47269
-7.36856
-7.25955
-7.14571
-7.02711
-6.90377
-6.77573
-6.64303
-6.50568
-6.36376
-6.21724
-6.0662
-5.91059
-5.75049
-5.58577
-5.41644
-5.2424
-5.0637
-4.88028
-4.69222
-4.4994
-4.30184
-4.09938
-3.8921
-3.67994
-3.46303
-3.24136
-3.0151
-2.78431
-2.54919
-2.30986
-2.06657
-1.81951
-1.56893
-1.31509
-1.05831
-0.79889
-0.53717
-0.273487
-0.00818815
0.258433
0.526016
0.794244
1.06277
1.33128
1.59946
1.86701
2.13365
2.39909
2.66308
2.92537
3.18576
3.44403
3.70003
3.95355
4.20443
4.45253
4.6977
4.93982
5.1788
5.41456
5.64701
5.8761
6.10176
6.32394
6.54255
6.75752
6.96879
7.17628
7.37992
7.57965
7.7754
7.9671
8.15468
8.33806
8.5172
8.69182
8.86248
9.0259
9.1937
9.31636
-7.35001
-7.35061
-7.35561
-7.36383
-7.37243
-7.3807
-7.3886
-7.39611
-7.40314
-7.40961
-7.41541
-7.42047
-7.42469
-7.42799
-7.43032
-7.43162
-7.43184
-7.43096
-7.42898
-7.42588
-7.4217
-7.41634
-7.40971
-7.40191
-7.39316
-7.38356
-7.37332
-7.36273
-7.35243
-7.34326
-7.33576
-7.3296
-7.32429
-7.32019
-7.31828
-7.31889
-7.32215
-7.32869
-7.33883
-7.35239
-7.36914
-7.3888
-7.41118
-7.43598
-7.46297
-7.49195
-7.52271
-7.5551
-7.58898
-7.62422
-7.66071
-7.69833
-7.737
-7.77661
-7.81705
-7.8582
-7.89994
-7.94211
-7.98454
-8.02705
-8.06943
-8.11146
-8.15291
-8.19354
-8.23311
-8.27138
-8.30808
-8.34297
-8.3758
-8.40632
-8.43428
-8.45944
-8.48157
-8.50046
-8.5159
-8.52771
-8.53571
-8.53977
-8.53975
-8.53555
-8.52707
-8.51423
-8.49696
-8.47519
-8.44887
-8.41792
-8.38232
-8.34205
-8.29714
-8.24744
-8.19288
-8.13343
-8.06909
-7.99984
-7.92565
-7.84648
-7.76234
-7.67319
-7.57904
-7.47992
-7.37587
-7.26696
-7.15326
-7.03481
-6.91165
-6.78383
-6.65136
-6.51431
-6.37269
-6.22658
-6.07597
-5.92089
-5.76133
-5.59723
-5.42852
-5.25518
-5.07721
-4.8946
-4.70732
-4.51527
-4.31841
-4.11664
-3.91
-3.69847
-3.48213
-3.26101
-3.03523
-2.80489
-2.57014
-2.33114
-2.08812
-1.84127
-1.59085
-1.33712
-1.08041
-0.821012
-0.559289
-0.29556
-0.0301702
0.236566
0.504284
0.772656
1.04133
1.31
1.57833
1.84603
2.11279
2.37835
2.64243
2.90481
3.16526
3.42358
3.67961
3.93315
4.18404
4.43211
4.67725
4.91933
5.15827
5.39397
5.62638
5.85542
6.08105
6.3032
6.52178
6.73673
6.94797
7.15544
7.35907
7.55879
7.75455
7.94625
8.13381
8.31712
8.4961
8.67041
8.84058
9.00292
9.17015
9.2869
-7.35197
-7.35415
-7.36084
-7.36893
-7.37687
-7.3846
-7.39212
-7.39938
-7.40624
-7.41259
-7.41833
-7.42333
-7.4275
-7.43076
-7.43304
-7.43429
-7.43448
-7.43359
-7.4316
-7.42851
-7.42428
-7.4188
-7.41213
-7.40449
-7.39607
-7.38701
-7.3777
-7.36857
-7.36012
-7.35257
-7.34578
-7.33957
-7.33414
-7.33032
-7.32902
-7.33081
-7.33603
-7.34494
-7.3574
-7.37308
-7.39176
-7.41311
-7.43688
-7.46283
-7.49071
-7.52036
-7.55159
-7.58427
-7.61825
-7.65341
-7.68966
-7.72691
-7.76504
-7.80396
-7.84358
-7.8838
-7.92451
-7.96559
-8.00689
-8.04826
-8.08951
-8.13047
-8.17092
-8.21065
-8.24943
-8.28701
-8.32315
-8.35757
-8.39002
-8.42023
-8.44793
-8.47287
-8.49481
-8.5135
-8.52874
-8.54032
-8.54807
-8.55185
-8.55152
-8.547
-8.5382
-8.52503
-8.50743
-8.48534
-8.4587
-8.42746
-8.39158
-8.35106
-8.30588
-8.256
-8.20121
-8.14157
-8.07706
-8.00766
-7.93332
-7.85402
-7.76975
-7.68045
-7.58619
-7.48695
-7.38285
-7.27389
-7.16018
-7.04174
-6.91862
-6.79086
-6.6585
-6.52161
-6.3802
-6.23438
-6.08412
-5.92949
-5.77039
-5.60683
-5.43869
-5.26601
-5.08872
-4.90686
-4.72025
-4.52891
-4.33264
-4.13151
-3.92541
-3.71445
-3.49857
-3.27791
-3.0525
-2.8225
-2.58801
-2.34924
-2.10637
-1.85962
-1.60924
-1.35552
-1.09876
-0.839292
-0.577445
-0.313581
-0.0479959
0.218926
0.486862
0.755436
1.02433
1.29319
1.56171
1.82958
2.09649
2.36216
2.62634
2.88879
3.14928
3.40764
3.66369
3.91724
4.1681
4.41612
4.66117
4.90316
5.142
5.37761
5.60991
5.83886
6.06441
6.28649
6.505
6.71988
6.93105
7.13846
7.34204
7.54172
7.73743
7.92909
8.11659
8.29978
8.47856
8.65251
8.82213
8.98342
9.15015
9.26164
-7.34983
-7.35343
-7.36048
-7.36804
-7.37556
-7.38305
-7.39043
-7.39762
-7.40448
-7.41089
-7.41672
-7.42184
-7.42616
-7.42957
-7.43202
-7.43343
-7.43378
-7.43302
-7.43115
-7.42814
-7.42397
-7.41863
-7.41226
-7.40512
-7.39745
-7.38953
-7.38166
-7.374
-7.36662
-7.35969
-7.35328
-7.34762
-7.34324
-7.34089
-7.34121
-7.34464
-7.35139
-7.36157
-7.37507
-7.39163
-7.41102
-7.43296
-7.45718
-7.48344
-7.51155
-7.54132
-7.57261
-7.60526
-7.63915
-7.67417
-7.71022
-7.7472
-7.785
-7.82354
-7.86274
-7.90251
-7.94273
-7.9833
-8.0241
-8.06498
-8.10578
-8.14634
-8.18644
-8.22589
-8.26445
-8.30189
-8.33794
-8.37233
-8.40477
-8.43498
-8.46268
-8.48758
-8.50945
-8.52803
-8.5431
-8.55445
-8.56192
-8.56538
-8.5647
-8.55979
-8.55058
-8.53699
-8.51897
-8.49647
-8.46942
-8.43779
-8.40152
-8.36063
-8.31515
-8.2649
-8.20983
-8.14989
-8.08511
-8.01544
-7.94084
-7.86129
-7.77675
-7.68721
-7.59269
-7.49325
-7.38894
-7.27983
-7.16598
-7.04743
-6.92424
-6.79644
-6.66409
-6.52724
-6.38597
-6.24033
-6.09038
-5.93611
-5.77746
-5.61437
-5.44679
-5.27472
-5.09811
-4.9169
-4.73095
-4.5402
-4.34452
-4.14393
-3.93836
-3.72786
-3.51241
-3.29212
-3.06703
-2.83728
-2.60298
-2.36435
-2.12155
-1.87483
-1.62441
-1.37063
-1.11375
-0.854129
-0.592094
-0.327999
-0.0621692
0.205015
0.473212
0.742047
1.01119
1.28028
1.54901
1.81706
2.08414
2.34995
2.61423
2.87675
3.13729
3.39567
3.65173
3.90526
4.15606
4.40399
4.64892
4.89078
5.12947
5.36492
5.59707
5.82589
6.05132
6.27329
6.49169
6.70646
6.91752
7.12482
7.32831
7.52791
7.72356
7.91515
8.10255
8.28558
8.46411
8.63766
8.80672
8.967
9.13326
9.24017
-7.34173
-7.34611
-7.35295
-7.36036
-7.36795
-7.37556
-7.38307
-7.39043
-7.39749
-7.40414
-7.41023
-7.41563
-7.42023
-7.42391
-7.4266
-7.42825
-7.4288
-7.42825
-7.42657
-7.42378
-7.4199
-7.41503
-7.40937
-7.40313
-7.39647
-7.38953
-7.38251
-7.37555
-7.36877
-7.36241
-7.35679
-7.35232
-7.34941
-7.34856
-7.3503
-7.35497
-7.36277
-7.37374
-7.3878
-7.40476
-7.4244
-7.44645
-7.47069
-7.49691
-7.52495
-7.55463
-7.58581
-7.61835
-7.65214
-7.68706
-7.723
-7.75987
-7.79758
-7.83605
-7.87519
-7.9149
-7.95509
-7.99566
-8.03649
-8.07744
-8.11836
-8.15908
-8.19937
-8.23904
-8.27785
-8.31556
-8.35189
-8.38656
-8.41928
-8.44974
-8.47763
-8.50266
-8.52457
-8.5431
-8.55802
-8.56914
-8.5763
-8.57937
-8.57826
-8.57289
-8.56318
-8.54909
-8.53057
-8.50757
-8.48003
-8.44792
-8.41118
-8.36983
-8.32389
-8.27326
-8.21778
-8.15746
-8.09231
-8.0223
-7.94735
-7.86746
-7.78255
-7.69268
-7.59782
-7.49808
-7.39347
-7.28413
-7.17004
-7.05131
-6.92796
-6.80005
-6.66762
-6.53075
-6.38956
-6.24408
-6.09442
-5.94047
-5.78225
-5.61963
-5.45263
-5.28115
-5.1052
-4.92457
-4.73927
-4.54903
-4.35395
-4.15383
-3.9488
-3.7387
-3.52367
-3.30366
-3.07886
-2.84929
-2.61516
-2.3766
-2.13383
-1.88706
-1.63657
-1.38265
-1.12562
-0.865786
-0.603529
-0.339155
-0.0730569
0.19443
0.462907
0.732036
1.00144
1.27079
1.53975
1.808
2.07524
2.34118
2.60556
2.86813
3.12868
3.38705
3.64311
3.89661
4.14732
4.39511
4.63988
4.88155
5.12005
5.35531
5.58728
5.81592
6.04121
6.26305
6.48131
6.69593
6.90686
7.11403
7.31741
7.51691
7.71247
7.90398
8.09125
8.2741
8.45235
8.62548
8.79398
8.9533
9.1191
9.22212
-7.32604
-7.33057
-7.3375
-7.34551
-7.35371
-7.36175
-7.3696
-7.37726
-7.38465
-7.39165
-7.39812
-7.40388
-7.40881
-7.4128
-7.4158
-7.41773
-7.41858
-7.41835
-7.41703
-7.41467
-7.41134
-7.40714
-7.4022
-7.39668
-7.39074
-7.3845
-7.3781
-7.37171
-7.36561
-7.36011
-7.35551
-7.35214
-7.35045
-7.35088
-7.35381
-7.35952
-7.36817
-7.37977
-7.39423
-7.4114
-7.43108
-7.45306
-7.47717
-7.50323
-7.53109
-7.56062
-7.59167
-7.62411
-7.65784
-7.69273
-7.72869
-7.76565
-7.80351
-7.84219
-7.8816
-7.92162
-7.96216
-8.00313
-8.04439
-8.08582
-8.12724
-8.1685
-8.20939
-8.24968
-8.28913
-8.32747
-8.36441
-8.39966
-8.43289
-8.46379
-8.49202
-8.51726
-8.53925
-8.55773
-8.57247
-8.58326
-8.58998
-8.59253
-8.59086
-8.58491
-8.57462
-8.55996
-8.54088
-8.51732
-8.48922
-8.45654
-8.41922
-8.37731
-8.33089
-8.27977
-8.22386
-8.16312
-8.09757
-8.02714
-7.95181
-7.87151
-7.78622
-7.69594
-7.60072
-7.50061
-7.3957
-7.28605
-7.1717
-7.05274
-6.9292
-6.80115
-6.66862
-6.53172
-6.39057
-6.24528
-6.09587
-5.94229
-5.78446
-5.62235
-5.45591
-5.28506
-5.1097
-4.9297
-4.74493
-4.55528
-4.36073
-4.16117
-3.95661
-3.74697
-3.53231
-3.31265
-3.0881
-2.85875
-2.62477
-2.38629
-2.14353
-1.89672
-1.64614
-1.39208
-1.13486
-0.874798
-0.612272
-0.347612
-0.0812039
0.186594
0.455388
0.724822
0.994517
1.26414
1.53333
1.80179
2.0692
2.33527
2.59974
2.86235
3.12291
3.38128
3.63734
3.8908
4.14139
4.38899
4.63356
4.87501
5.11329
5.34833
5.58008
5.80851
6.03365
6.25534
6.47343
6.68787
6.89863
7.10565
7.30889
7.50827
7.70373
7.89514
8.08227
8.26491
8.44287
8.61557
8.78352
8.94195
9.10725
9.20708
-7.30224
-7.30658
-7.31427
-7.32354
-7.3327
-7.3413
-7.34955
-7.35762
-7.36552
-7.37308
-7.3801
-7.38635
-7.39169
-7.39605
-7.3994
-7.40169
-7.40293
-7.40311
-7.40225
-7.40039
-7.39763
-7.39404
-7.38974
-7.38485
-7.3795
-7.37383
-7.36805
-7.3624
-7.35711
-7.35248
-7.34881
-7.34651
-7.34597
-7.34755
-7.35156
-7.3582
-7.36757
-7.37966
-7.3944
-7.41165
-7.43127
-7.45308
-7.47698
-7.50282
-7.53048
-7.55984
-7.59079
-7.6232
-7.65695
-7.69193
-7.72806
-7.76526
-7.80343
-7.8425
-7.88237
-7.92294
-7.96411
-8.00577
-8.04779
-8.09003
-8.1323
-8.17445
-8.21625
-8.25748
-8.29786
-8.33711
-8.37492
-8.41097
-8.44487
-8.47626
-8.50476
-8.5301
-8.55201
-8.57027
-8.58463
-8.59488
-8.60092
-8.60277
-8.60042
-8.59383
-8.58294
-8.56771
-8.54805
-8.52391
-8.49524
-8.46195
-8.42397
-8.38143
-8.33446
-8.28292
-8.22657
-8.1654
-8.09944
-8.02862
-7.9529
-7.87221
-7.78656
-7.69588
-7.60031
-7.49984
-7.39463
-7.28466
-7.17008
-7.05089
-6.9272
-6.79904
-6.66646
-6.52957
-6.3885
-6.24343
-6.09427
-5.94103
-5.7836
-5.622
-5.4561
-5.28588
-5.11108
-4.93171
-4.74749
-4.5585
-4.36451
-4.16559
-3.96155
-3.75248
-3.53823
-3.31899
-3.09475
-2.86568
-2.63185
-2.3935
-2.15077
-1.90395
-1.65326
-1.39907
-1.14165
-0.881388
-0.61859
-0.353658
-0.0869355
0.181159
0.450267
0.719984
0.98996
1.25982
1.52924
1.79787
2.06542
2.3316
2.59612
2.85876
3.11931
3.37772
3.63383
3.88725
4.13765
4.38504
4.62936
4.87058
5.10861
5.34341
5.57492
5.80316
6.02817
6.24973
6.46762
6.68186
6.89243
7.09928
7.30237
7.50163
7.697
7.88832
8.0753
8.25771
8.43537
8.60764
8.77506
8.93264
9.09741
9.19471
-7.27108
-7.27564
-7.28468
-7.2956
-7.30581
-7.31499
-7.32385
-7.33265
-7.34124
-7.3495
-7.35728
-7.36422
-7.37005
-7.37471
-7.37836
-7.38101
-7.38264
-7.38323
-7.38282
-7.38144
-7.37918
-7.37611
-7.37233
-7.36797
-7.36318
-7.35816
-7.35306
-7.34815
-7.34367
-7.33994
-7.3373
-7.33611
-7.33669
-7.33934
-7.3443
-7.3517
-7.36161
-7.37402
-7.38888
-7.40609
-7.42556
-7.44716
-7.47079
-7.49633
-7.52374
-7.55288
-7.58367
-7.61599
-7.64975
-7.68485
-7.72122
-7.75875
-7.79736
-7.83697
-7.87748
-7.91879
-7.9608
-8.00339
-8.04641
-8.08971
-8.13308
-8.17634
-8.21924
-8.26154
-8.30294
-8.34314
-8.38179
-8.41853
-8.45296
-8.48464
-8.51318
-8.53829
-8.55983
-8.57761
-8.59133
-8.60068
-8.60569
-8.60664
-8.60361
-8.59648
-8.58515
-8.56951
-8.54942
-8.52479
-8.4956
-8.46178
-8.4232
-8.38002
-8.33266
-8.28068
-8.22391
-8.16232
-8.09593
-8.02473
-7.94863
-7.8676
-7.78156
-7.69054
-7.59456
-7.49374
-7.38816
-7.27789
-7.16303
-7.04363
-6.91978
-6.79155
-6.65903
-6.52231
-6.38149
-6.23658
-6.08763
-5.93459
-5.77748
-5.61626
-5.45082
-5.28109
-5.10687
-4.92805
-4.7445
-4.55615
-4.36287
-4.16461
-3.96124
-3.75277
-3.53911
-3.32036
-3.09654
-2.86778
-2.63421
-2.39604
-2.15344
-1.9067
-1.65605
-1.40182
-1.14432
-0.883921
-0.620962
-0.355834
-0.088914
0.179388
0.448688
0.718586
0.988714
1.2587
1.5282
1.79689
2.06444
2.33057
2.59501
2.85751
3.11793
3.37625
3.6323
3.88553
4.13565
4.38275
4.62679
4.86773
5.10549
5.34002
5.57128
5.79933
6.0243
6.24581
6.46349
6.67751
6.88787
7.09455
7.2975
7.49665
7.69197
7.88324
8.07008
8.25224
8.42959
8.60143
8.76833
8.92512
9.08929
9.18473
-7.23513
-7.24052
-7.25143
-7.26439
-7.27584
-7.28559
-7.2948
-7.30423
-7.31383
-7.32309
-7.33175
-7.33946
-7.34579
-7.35065
-7.35443
-7.35729
-7.35918
-7.36007
-7.35997
-7.35893
-7.35702
-7.35435
-7.351
-7.34716
-7.34294
-7.33853
-7.33414
-7.33003
-7.32647
-7.32377
-7.32221
-7.32211
-7.32374
-7.32732
-7.33301
-7.34092
-7.35111
-7.36358
-7.37832
-7.39527
-7.41437
-7.43553
-7.45871
-7.48383
-7.51084
-7.53965
-7.57018
-7.60234
-7.63607
-7.6713
-7.7079
-7.74583
-7.78498
-7.82526
-7.86656
-7.90877
-7.95174
-7.99534
-8.03938
-8.0837
-8.12808
-8.1723
-8.21612
-8.25927
-8.30145
-8.34231
-8.38151
-8.41864
-8.45328
-8.4849
-8.51297
-8.53731
-8.55803
-8.57503
-8.58786
-8.59591
-8.5994
-8.59915
-8.59544
-8.58802
-8.57658
-8.5609
-8.54076
-8.51602
-8.48676
-8.4531
-8.41486
-8.37225
-8.32492
-8.27287
-8.21581
-8.15388
-8.08714
-8.01557
-7.93908
-7.85764
-7.77116
-7.6797
-7.58322
-7.48193
-7.37584
-7.26512
-7.14981
-7.03003
-6.90583
-6.77736
-6.64474
-6.50805
-6.36731
-6.22245
-6.07355
-5.92062
-5.76371
-5.60272
-5.43765
-5.26829
-5.09462
-4.91633
-4.73347
-4.54574
-4.3532
-4.15557
-3.95292
-3.74503
-3.53202
-3.31377
-3.09043
-2.86202
-2.62876
-2.39079
-2.14837
-1.90174
-1.65118
-1.39697
-1.13947
-0.878994
-0.615948
-0.350683
-0.0836364
0.184811
0.454228
0.724236
0.994432
1.26446
1.53395
1.80257
2.07
2.33595
2.60013
2.8623
3.12222
3.37972
3.63469
3.88697
4.13647
4.38306
4.62665
4.86713
5.10445
5.33853
5.56936
5.79702
6.02179
6.24315
6.46056
6.67431
6.88446
7.09098
7.29379
7.49284
7.68818
7.87951
8.06627
8.24821
8.42525
8.59669
8.7631
8.91915
9.08268
9.1769
-7.19672
-7.20326
-7.21652
-7.23161
-7.24367
-7.25376
-7.26392
-7.27447
-7.285
-7.29509
-7.3045
-7.31281
-7.31957
-7.32466
-7.32859
-7.33159
-7.33364
-7.33468
-7.33475
-7.33393
-7.33228
-7.32993
-7.32698
-7.32363
-7.31997
-7.31629
-7.31269
-7.3095
-7.30688
-7.30518
-7.30458
-7.30537
-7.30772
-7.31182
-7.3178
-7.32575
-7.33576
-7.34783
-7.362
-7.37823
-7.39657
-7.41695
-7.43942
-7.4639
-7.49038
-7.51874
-7.54897
-7.58098
-7.61473
-7.6501
-7.68704
-7.72542
-7.76515
-7.80608
-7.8481
-7.89108
-7.93484
-7.97923
-8.02403
-8.06909
-8.11416
-8.15902
-8.20341
-8.24706
-8.28963
-8.33085
-8.37028
-8.40758
-8.44214
-8.47326
-8.50004
-8.52247
-8.54151
-8.5577
-8.57051
-8.57921
-8.58343
-8.58337
-8.57943
-8.57167
-8.5599
-8.54395
-8.52348
-8.49847
-8.46899
-8.43527
-8.39754
-8.35528
-8.30823
-8.25609
-8.19893
-8.13686
-8.06997
-7.9982
-7.92148
-7.83974
-7.75299
-7.66116
-7.56436
-7.46267
-7.35622
-7.2451
-7.1294
-7.00924
-6.8847
-6.75593
-6.62306
-6.48621
-6.34539
-6.20059
-6.05182
-5.89912
-5.74248
-5.58188
-5.41723
-5.24842
-5.07529