/*--------------------------------*- C++ -*----------------------------------*\
  =========                 |
  \\      /  F ield         | OpenFOAM: The Open Source CFD Toolbox
   \\    /   O peration     | Website:  https://openfoam.org
    \\  /    A nd           | Version:  13
     \\/     M anipulation  |
\*---------------------------------------------------------------------------*/
FoamFile
{
    format      ascii;
    class       surfaceScalarField;
    location    "1900";
    object      phi;
}
// * * * * * * * * * * * * * * * * * * * * * * * * * * * * * * * * * * * * * //

dimensions      [0 3 -1 0 0 0 0];

internalField   nonuniform List<scalar> 
24170
(
3.05651e-06
1.31935e-07
2.90172e-06
1.54996e-07
2.76145e-06
1.40004e-07
2.63525e-06
1.25445e-07
2.5227e-06
1.1239e-07
2.41503e-06
1.07227e-07
2.31287e-06
1.02017e-07
2.2208e-06
9.18654e-08
2.1419e-06
7.88803e-08
2.07545e-06
6.64421e-08
2.01982e-06
5.56479e-08
1.97521e-06
4.4681e-08
1.94062e-06
3.4629e-08
1.91488e-06
2.57948e-08
1.89753e-06
1.71901e-08
1.87784e-06
1.95532e-08
1.86156e-06
1.63456e-08
-6.45081e-09
1.86808e-06
3.47504e-06
7.42177e-08
3.5202e-06
1.10584e-07
3.54661e-06
1.13267e-07
3.55484e-06
1.18387e-07
3.54793e-06
1.20096e-07
3.53694e-06
1.18584e-07
3.52338e-06
1.1582e-07
3.50418e-06
1.11034e-07
3.47958e-06
1.03461e-07
3.45158e-06
9.43715e-08
3.42127e-06
8.59112e-08
3.39076e-06
7.51743e-08
3.3599e-06
6.55062e-08
3.33049e-06
5.52391e-08
3.3082e-06
3.95065e-08
3.3143e-06
1.35714e-08
3.31529e-06
1.54508e-08
1.99256e-08
3.28892e-06
3.68143e-06
5.53486e-08
3.70381e-06
8.81364e-08
3.71964e-06
9.75205e-08
3.73289e-06
1.04835e-07
3.74695e-06
1.05902e-07
3.76146e-06
1.03757e-07
3.77482e-06
1.02351e-07
3.78669e-06
9.90726e-08
3.79685e-06
9.33261e-08
3.80519e-06
8.60665e-08
3.81212e-06
7.90041e-08
3.81675e-06
7.05917e-08
3.81982e-06
6.2463e-08
3.82156e-06
5.34864e-08
3.81889e-06
4.20395e-08
3.78609e-06
4.6281e-08
3.76181e-06
3.9732e-08
1.68087e-08
3.76496e-06
3.93379e-06
4.69723e-08
3.94421e-06
7.81341e-08
3.9538e-06
8.79057e-08
3.96006e-06
9.92643e-08
3.96667e-06
9.94829e-08
3.9732e-06
9.74844e-08
3.98041e-06
9.53392e-08
3.98868e-06
9.08659e-08
3.99652e-06
8.55118e-08
4.00353e-06
7.90362e-08
4.01035e-06
7.21566e-08
4.0164e-06
6.45192e-08
4.0219e-06
5.69403e-08
4.02644e-06
4.89064e-08
4.02766e-06
4.07489e-08
4.03329e-06
4.06158e-08
4.03823e-06
3.48533e-08
1.93566e-08
4.03575e-06
4.22087e-06
3.32475e-08
4.23149e-06
6.71766e-08
4.22827e-06
9.11367e-08
4.23388e-06
9.33579e-08
4.24033e-06
9.29125e-08
4.24671e-06
9.09308e-08
4.25248e-06
8.95079e-08
4.25811e-06
8.52128e-08
4.26352e-06
8.01562e-08
4.26848e-06
7.41286e-08
4.27312e-06
6.75604e-08
4.27719e-06
6.04984e-08
4.28078e-06
5.33676e-08
4.28354e-06
4.61103e-08
4.28476e-06
3.94445e-08
4.2888e-06
3.65244e-08
4.29301e-06
3.06409e-08
2.07977e-08
4.2916e-06
4.51535e-06
2.69585e-08
4.525e-06
5.76641e-08
4.5348e-06
8.13898e-08
4.54138e-06
8.66961e-08
4.54384e-06
9.04486e-08
4.54864e-06
8.61054e-08
4.55445e-06
8.37008e-08
4.55977e-06
7.98702e-08
4.56478e-06
7.51205e-08
4.56938e-06
6.94915e-08
4.57359e-06
6.33194e-08
4.57728e-06
5.67831e-08
4.58044e-06
5.01699e-08
4.58288e-06
4.36133e-08
4.58454e-06
3.77204e-08
4.58748e-06
3.354e-08
4.59012e-06
2.80306e-08
2.11527e-08
4.58983e-06
4.83737e-06
2.22966e-08
4.84341e-06
5.12008e-08
4.85196e-06
7.29014e-08
4.86036e-06
7.80638e-08
4.86767e-06
8.30813e-08
4.87264e-06
8.10466e-08
4.87776e-06
7.85378e-08
4.88272e-06
7.4897e-08
4.88746e-06
7.04165e-08
4.89185e-06
6.51417e-08
4.89586e-06
5.93434e-08
4.89941e-06
5.32531e-08
4.90248e-06
4.71051e-08
4.90497e-06
4.11043e-08
4.907e-06
3.56565e-08
4.90946e-06
3.10535e-08
4.91149e-06
2.60215e-08
2.06846e-08
4.9119e-06
5.18308e-06
1.87629e-08
5.18889e-06
4.54358e-08
5.19684e-06
6.50272e-08
5.20333e-06
7.15072e-08
5.21075e-06
7.55825e-08
5.21664e-06
7.5075e-08
5.2221e-06
7.29976e-08
5.2273e-06
6.96438e-08
5.23219e-06
6.54784e-08
5.23671e-06
6.05936e-08
5.24081e-06
5.52153e-08
5.24445e-06
4.9587e-08
5.24761e-06
4.39163e-08
5.25026e-06
3.84155e-08
5.25254e-06
3.33322e-08
5.25483e-06
2.87463e-08
5.25667e-06
2.41623e-08
1.97603e-08
5.25759e-06
5.55435e-06
1.57318e-08
5.55985e-06
3.97027e-08
5.56723e-06
5.76123e-08
5.57383e-06
6.48177e-08
5.58075e-06
6.86299e-08
5.58686e-06
6.89227e-08
5.59254e-06
6.72924e-08
5.59786e-06
6.43155e-08
5.60286e-06
6.0494e-08
5.60747e-06
5.59962e-08
5.61166e-06
5.10443e-08
5.6154e-06
4.58628e-08
5.61866e-06
4.06543e-08
5.62147e-06
3.56005e-08
5.62391e-06
3.08682e-08
5.62616e-06
2.64933e-08
5.62799e-06
2.23213e-08
1.84396e-08
5.62923e-06
5.95222e-06
1.32469e-08
5.95744e-06
3.44929e-08
5.96445e-06
5.06378e-08
5.97113e-06
5.81254e-08
5.97787e-06
6.18507e-08
5.98415e-06
6.25799e-08
5.99003e-06
6.13539e-08
5.99552e-06
5.87668e-08
6.00067e-06
5.5307e-08
6.00542e-06
5.12077e-08
6.00974e-06
4.66958e-08
6.01361e-06
4.19698e-08
6.01702e-06
3.72224e-08
6.02e-06
3.26049e-08
6.0226e-06
2.82465e-08
6.02491e-06
2.41829e-08
6.02682e-06
2.03754e-08
1.69198e-08
6.02831e-06
6.3788e-06
1.12468e-08
6.38363e-06
2.9507e-08
6.39025e-06
4.3967e-08
6.39693e-06
5.14043e-08
6.40366e-06
5.51078e-08
6.41008e-06
5.61319e-08
6.41614e-06
5.52641e-08
6.42183e-06
5.306e-08
6.42715e-06
4.99721e-08
6.43207e-06
4.62831e-08
6.43656e-06
4.22032e-08
6.44059e-06
3.79325e-08
6.44418e-06
3.36237e-08
6.44733e-06
2.94429e-08
6.45011e-06
2.54612e-08
6.45255e-06
2.17511e-08
6.45461e-06
1.83111e-08
1.51741e-08
6.45629e-06
5.74232e-06
9.71773e-09
5.74606e-06
2.57e-08
5.75132e-06
3.86835e-08
5.75688e-06
4.58242e-08
5.76252e-06
4.94507e-08
5.76801e-06
5.06245e-08
5.77324e-06
5.00022e-08
5.77818e-06
4.80999e-08
5.78281e-06
4.53375e-08
5.78709e-06
4.19943e-08
5.79101e-06
3.82858e-08
5.79456e-06
3.43783e-08
5.79774e-06
3.04678e-08
5.80055e-06
2.6615e-08
5.80304e-06
2.29873e-08
5.80523e-06
1.95616e-08
5.8071e-06
1.64138e-08
1.35401e-08
5.80869e-06
6.99968e-06
8.18232e-09
7.00355e-06
2.17243e-08
7.00915e-06
3.30266e-08
7.01532e-06
3.96161e-08
7.0217e-06
4.30504e-08
7.02801e-06
4.42857e-08
7.03411e-06
4.38758e-08
7.03991e-06
4.22774e-08
7.04537e-06
3.98652e-08
7.05044e-06
3.69138e-08
7.05508e-06
3.36168e-08
7.05932e-06
3.0159e-08
7.06312e-06
2.66441e-08
7.06653e-06
2.32371e-08
7.06954e-06
1.99544e-08
7.07221e-06
1.69116e-08
7.0745e-06
1.40652e-08
1.15276e-08
7.0765e-06
8.53239e-06
6.60287e-09
8.53635e-06
1.76737e-08
8.54222e-06
2.71064e-08
8.54893e-06
3.28631e-08
8.55601e-06
3.59564e-08
8.56314e-06
3.71353e-08
8.57012e-06
3.68811e-08
8.57682e-06
3.55666e-08
8.58317e-06
3.35167e-08
8.58909e-06
3.09858e-08
8.59455e-06
2.8136e-08
8.59954e-06
2.51502e-08
8.60408e-06
2.21195e-08
8.60814e-06
1.91586e-08
8.61179e-06
1.63252e-08
8.615e-06
1.36689e-08
8.61785e-06
1.1225e-08
8.9987e-09
8.62028e-06
1.04008e-05
5.00726e-09
1.04048e-05
1.35828e-08
1.04109e-05
2.09527e-08
1.04181e-05
2.5634e-08
1.04259e-05
2.81917e-08
1.04338e-05
2.92031e-08
1.04416e-05
2.90226e-08
1.04493e-05
2.79574e-08
1.04565e-05
2.62753e-08
1.04633e-05
2.4151e-08
1.04697e-05
2.18088e-08
1.04755e-05
1.92993e-08
1.04808e-05
1.68095e-08
1.04856e-05
1.43278e-08
1.04899e-05
1.2e-08
1.04938e-05
9.78046e-09
1.04972e-05
7.77734e-09
5.94018e-09
1.05003e-05
1.26784e-05
3.39878e-09
1.26825e-05
9.40072e-09
1.26888e-05
1.45862e-08
1.26965e-05
1.79265e-08
1.27049e-05
1.97755e-08
1.27136e-05
2.04715e-08
1.27224e-05
2.02768e-08
1.27309e-05
1.9415e-08
1.27391e-05
1.80597e-08
1.27469e-05
1.63986e-08
1.27541e-05
1.45215e-08
1.27609e-05
1.25839e-08
1.2767e-05
1.06038e-08
1.27727e-05
8.70439e-09
1.27777e-05
6.86405e-09
1.27824e-05
5.17946e-09
1.27865e-05
3.60458e-09
2.2245e-09
1.27903e-05
1.54548e-05
1.76442e-09
1.54591e-05
5.05514e-09
1.54658e-05
7.89163e-09
1.5474e-05
9.68203e-09
1.54831e-05
1.06154e-08
1.54927e-05
1.08591e-08
1.55024e-05
1.05512e-08
1.5512e-05
9.82798e-09
1.55213e-05
8.79754e-09
1.55301e-05
7.56803e-09
1.55384e-05
6.22158e-09
1.55461e-05
4.83196e-09
1.55532e-05
3.44508e-09
1.55598e-05
2.10762e-09
1.55658e-05
8.42148e-10
1.55713e-05
-3.23413e-10
1.55763e-05
-1.38336e-09
-2.31813e-09
1.55808e-05
1.88393e-05
4.19511e-11
1.88441e-05
3.07369e-10
1.88513e-05
5.836e-10
1.88604e-05
6.05003e-10
1.88705e-05
4.43668e-10
1.88813e-05
1.05518e-10
1.88922e-05
-3.97714e-10
1.8903e-05
-1.02627e-09
1.89135e-05
-1.74673e-09
1.89236e-05
-2.52437e-09
1.89331e-05
-3.32653e-09
1.8942e-05
-4.12617e-09
1.89504e-05
-4.89847e-09
1.8958e-05
-5.62669e-09
1.89652e-05
-6.29457e-09
1.89717e-05
-6.89419e-09
1.89778e-05
-7.41662e-09
-7.85755e-09
1.89833e-05
2.29653e-05
-1.9562e-09
2.2971e-05
-5.36849e-09
2.29796e-05
-8.04977e-09
2.29902e-05
-1.00415e-08
2.3002e-05
-1.14466e-08
2.30146e-05
-1.24429e-08
2.30273e-05
-1.31732e-08
2.30399e-05
-1.36893e-08
2.30522e-05
-1.40652e-08
2.3064e-05
-1.43294e-08
2.30752e-05
-1.45292e-08
2.30857e-05
-1.46666e-08
2.30955e-05
-1.47637e-08
2.31047e-05
-1.48137e-08
2.31132e-05
-1.48287e-08
2.31211e-05
-1.48009e-08
2.31285e-05
-1.47357e-08
-1.46251e-08
2.31352e-05
1.68124e-05
-3.62913e-09
1.6817e-05
-1.00794e-08
1.6824e-05
-1.49937e-08
1.68323e-05
-1.83767e-08
1.68413e-05
-2.05602e-08
1.68508e-05
-2.19466e-08
1.68604e-05
-2.27348e-08
1.68697e-05
-2.3107e-08
1.68788e-05
-2.31444e-08
1.68874e-05
-2.30089e-08
1.68956e-05
-2.27193e-08
1.69033e-05
-2.23761e-08
1.69105e-05
-2.1958e-08
1.69172e-05
-2.1534e-08
1.69235e-05
-2.10688e-08
1.69292e-05
-2.0612e-08
1.69346e-05
-2.01244e-08
-1.96412e-08
1.69396e-05
1.46363e-05
-5.41564e-09
1.46413e-05
-1.50282e-08
1.46482e-05
-2.20071e-08
1.46563e-05
-2.6482e-08
1.46649e-05
-2.92221e-08
1.46738e-05
-3.08165e-08
1.46825e-05
-3.15652e-08
1.46911e-05
-3.1662e-08
1.46992e-05
-3.13425e-08
1.4707e-05
-3.07455e-08
1.47142e-05
-3.00041e-08
1.4721e-05
-2.91683e-08
1.47273e-05
-2.83026e-08
1.47332e-05
-2.74206e-08
1.47387e-05
-2.65541e-08
1.47438e-05
-2.56958e-08
1.47485e-05
-2.48621e-08
-2.40354e-08
1.47529e-05
1.27422e-05
-7.47661e-09
1.27476e-05
-2.04933e-08
1.27549e-05
-2.93076e-08
1.2763e-05
-3.45484e-08
1.27713e-05
-3.76241e-08
1.27798e-05
-3.92861e-08
1.2788e-05
-3.98479e-08
1.27959e-05
-3.95992e-08
1.28034e-05
-3.88322e-08
1.28103e-05
-3.77684e-08
1.28169e-05
-3.65394e-08
1.28229e-05
-3.52313e-08
1.28285e-05
-3.39182e-08
1.28337e-05
-3.26223e-08
1.28385e-05
-3.13763e-08
1.2843e-05
-3.01693e-08
1.28471e-05
-2.90144e-08
-2.78976e-08
1.2851e-05
1.10934e-05
-9.99603e-09
1.10997e-05
-2.67494e-08
1.11074e-05
-3.70122e-08
1.11154e-05
-4.26121e-08
1.11236e-05
-4.58263e-08
1.11317e-05
-4.74258e-08
1.11395e-05
-4.76851e-08
1.11469e-05
-4.69971e-08
1.11538e-05
-4.5748e-08
1.11602e-05
-4.41839e-08
1.11661e-05
-4.24578e-08
1.11715e-05
-4.06829e-08
1.11765e-05
-3.8925e-08
1.11811e-05
-3.72343e-08
1.11853e-05
-3.56146e-08
1.11892e-05
-3.40861e-08
1.11928e-05
-3.26255e-08
-3.12441e-08
1.11962e-05
9.65844e-06
-1.32296e-08
9.66567e-06
-3.39728e-08
9.67373e-06
-4.50584e-08
9.6818e-06
-5.06884e-08
9.68986e-06
-5.39119e-08
9.69771e-06
-5.52974e-08
9.70513e-06
-5.51202e-08
9.71203e-06
-5.39214e-08
9.71842e-06
-5.21477e-08
9.72429e-06
-5.00775e-08
9.72966e-06
-4.78468e-08
9.73456e-06
-4.56007e-08
9.73902e-06
-4.34089e-08
9.7431e-06
-4.1327e-08
9.74683e-06
-3.9361e-08
9.75025e-06
-3.75152e-08
9.7534e-06
-3.57853e-08
-3.41702e-08
9.75632e-06
8.40965e-06
-1.75304e-08
8.41801e-06
-4.23398e-08
8.42634e-06
-5.34027e-08
8.43441e-06
-5.87692e-08
8.44242e-06
-6.19222e-08
8.45009e-06
-6.29722e-08
8.45722e-06
-6.22629e-08
8.46377e-06
-6.04872e-08
8.46977e-06
-5.8162e-08
8.47524e-06
-5.55463e-08
8.48019e-06
-5.2814e-08
8.48467e-06
-5.00908e-08
8.4887e-06
-4.74692e-08
8.49235e-06
-4.49925e-08
8.49567e-06
-4.2691e-08
8.49869e-06
-4.05513e-08
8.50146e-06
-3.85625e-08
-3.6709e-08
8.50399e-06
7.32302e-06
-2.3273e-08
7.33281e-06
-5.21323e-08
7.34154e-06
-6.21258e-08
7.3498e-06
-6.70463e-08
7.3579e-06
-7.00374e-08
7.36553e-06
-7.06188e-08
7.37255e-06
-6.92929e-08
7.37898e-06
-6.69177e-08
7.38483e-06
-6.40168e-08
7.39013e-06
-6.0856e-08
7.39489e-06
-5.75827e-08
7.39916e-06
-5.4378e-08
7.40297e-06
-5.12897e-08
7.40638e-06
-4.84094e-08
7.40943e-06
-4.57567e-08
7.4122e-06
-4.33246e-08
7.41472e-06
-4.1102e-08
-3.90506e-08
7.41705e-06
6.37814e-06
-3.13539e-08
6.38994e-06
-6.39431e-08
6.39992e-06
-7.21099e-08
6.4093e-06
-7.64752e-08
6.41829e-06
-7.90134e-08
6.42659e-06
-7.89176e-08
6.43414e-06
-7.68599e-08
6.44101e-06
-7.37886e-08
6.4472e-06
-7.02106e-08
6.45272e-06
-6.63669e-08
6.45757e-06
-6.24792e-08
6.46185e-06
-5.8649e-08
6.46557e-06
-5.50238e-08
6.4688e-06
-5.16538e-08
6.47164e-06
-4.8597e-08
6.47417e-06
-4.58624e-08
6.47647e-06
-4.34077e-08
-4.11899e-08
6.47859e-06
5.56082e-06
-4.67173e-08
5.57732e-06
-8.04516e-08
5.59199e-06
-8.67979e-08
5.60575e-06
-9.0285e-08
5.61839e-06
-9.1659e-08
5.62956e-06
-9.00919e-08
5.63917e-06
-8.64839e-08
5.64723e-06
-8.18546e-08
5.65376e-06
-7.67301e-08
5.65881e-06
-7.14401e-08
5.66251e-06
-6.61975e-08
5.66505e-06
-6.11982e-08
5.66664e-06
-5.66103e-08
5.66748e-06
-5.24976e-08
5.66774e-06
-4.88619e-08
5.6676e-06
-4.5722e-08
5.66722e-06
-4.30409e-08
-4.09777e-08
5.667e-06
4.87874e-06
-9.78532e-08
4.91379e-06
-1.15515e-07
4.93873e-06
-1.11769e-07
4.95545e-06
-1.07059e-07
4.96428e-06
-1.00497e-07
4.96602e-06
-9.18451e-08
4.96206e-06
-8.25348e-08
4.9536e-06
-7.34021e-08
4.94168e-06
-6.48182e-08
4.92716e-06
-5.69286e-08
4.91073e-06
-4.97927e-08
4.89301e-06
-4.34786e-08
4.87442e-06
-3.80116e-08
4.85531e-06
-3.33895e-08
4.83613e-06
-2.96908e-08
4.81727e-06
-2.68613e-08
4.79891e-06
-2.46924e-08
-2.34869e-08
4.7814e-06
4.10482e-06
3.98931e-06
3.87753e-06
3.77047e-06
3.66997e-06
3.57813e-06
3.49559e-06
3.42219e-06
3.35737e-06
3.30044e-06
3.25064e-06
3.20717e-06
3.16915e-06
3.13576e-06
3.10607e-06
3.07921e-06
3.05451e-06
3.03102e-06
-8.43615e-09
8.29967e-09
-2.33031e-08
1.46503e-08
-3.94396e-08
1.59009e-08
-5.35323e-08
1.39423e-08
-6.08433e-08
7.07394e-09
-5.48293e-08
-6.10891e-09
-3.3316e-08
-2.17521e-08
1.65032e-09
-3.50685e-08
4.58754e-08
-4.442e-08
9.49606e-08
-4.91669e-08
1.44103e-07
-4.92523e-08
1.90129e-07
-4.60964e-08
2.30895e-07
-4.08252e-08
2.65089e-07
-3.42491e-08
2.91984e-07
-2.69246e-08
3.11125e-07
-1.91746e-08
3.2226e-07
-1.11421e-08
3.2505e-07
-2.80376e-09
3.19284e-07
5.77438e-09
3.05011e-07
1.42663e-08
2.8278e-07
2.22572e-08
2.53402e-07
2.9361e-08
2.18264e-07
3.5172e-08
1.79006e-07
3.9214e-08
1.38031e-07
4.10158e-08
9.77886e-08
4.01789e-08
6.12643e-08
3.65792e-08
3.06477e-08
3.05486e-08
7.59197e-09
2.31253e-08
-8.26486e-09
1.58051e-08
-1.77276e-08
9.55846e-09
-2.17797e-08
4.02084e-09
-2.01246e-08
-1.52899e-09
-1.20379e-08
-8.14518e-09
4.33575e-09
-1.61872e-08
2.96565e-08
-2.5425e-08
6.24973e-08
-3.26733e-08
9.69147e-08
-3.45147e-08
1.27274e-07
-3.02461e-08
1.48932e-07
-2.16849e-08
1.60608e-07
-1.16129e-08
1.64141e-07
-3.48509e-09
1.62856e-07
1.3194e-09
1.59814e-07
3.12287e-09
1.57288e-07
2.51281e-09
1.54023e-07
3.3676e-09
1.41991e-07
1.18964e-08
1.13824e-07
2.83622e-08
6.16612e-08
5.1967e-08
-1.50969e-08
7.70653e-08
-1.12961e-07
9.78037e-08
-2.27532e-07
1.14823e-07
-3.56762e-07
1.29274e-07
-4.97551e-07
1.40923e-07
-6.43324e-07
1.45818e-07
-7.8901e-07
1.45755e-07
-9.32072e-07
1.43098e-07
-1.07007e-06
1.38058e-07
-1.20159e-06
1.31567e-07
-1.32421e-06
1.22672e-07
-1.43737e-06
1.13201e-07
-1.54207e-06
1.04728e-07
-1.63761e-06
9.55914e-08
-1.72487e-06
8.72779e-08
-1.80539e-06
8.05715e-08
-1.87949e-06
7.40947e-08
-1.94781e-06
6.83809e-08
-2.01119e-06
6.33629e-08
-2.07007e-06
5.89369e-08
-2.12513e-06
5.50375e-08
-2.17666e-06
5.15884e-08
-2.22518e-06
4.85012e-08
-2.27086e-06
4.57312e-08
-2.31409e-06
4.31975e-08
-2.35494e-06
4.08809e-08
-2.3937e-06
3.87135e-08
-2.43038e-06
3.66923e-08
-2.4652e-06
3.47673e-08
-2.49813e-06
3.29442e-08
-2.52934e-06
3.11824e-08
-2.55882e-06
2.94923e-08
-2.58668e-06
2.78463e-08
-2.61292e-06
2.62528e-08
-2.63759e-06
2.46937e-08
-2.66074e-06
2.31682e-08
-2.68238e-06
2.16646e-08
-2.70254e-06
2.01708e-08
-2.72123e-06
1.86848e-08
-2.73848e-06
1.72122e-08
-2.75434e-06
1.57302e-08
-2.76875e-06
1.4283e-08
-2.78175e-06
1.28449e-08
-2.79331e-06
1.14211e-08
-2.80345e-06
9.99195e-09
-2.81213e-06
8.55756e-09
-2.81937e-06
7.10229e-09
-2.8251e-06
5.62614e-09
-2.82932e-06
4.11292e-09
-2.83195e-06
2.55732e-09
-2.83298e-06
9.60931e-10
-2.83244e-06
-5.85882e-10
-2.83054e-06
-1.90033e-09
-2.82746e-06
-3.04482e-09
-2.82322e-06
-4.14634e-09
-2.81789e-06
-5.25218e-09
-2.81146e-06
-6.34011e-09
-2.80398e-06
-7.45433e-09
-2.7954e-06
-8.55632e-09
-2.78576e-06
-9.68153e-09
-2.77502e-06
-1.07957e-08
-2.76319e-06
-1.19279e-08
-2.75026e-06
-1.3054e-08
-2.73621e-06
-1.41929e-08
-2.72105e-06
-1.53329e-08
-2.70475e-06
-1.64794e-08
-2.68733e-06
-1.76341e-08
-2.66875e-06
-1.87886e-08
-2.64899e-06
-1.99531e-08
-2.62802e-06
-2.11152e-08
-2.60585e-06
-2.23013e-08
-2.58249e-06
-2.35051e-08
-2.55798e-06
-2.47532e-08
-2.53222e-06
-2.59924e-08
-2.50525e-06
-2.72624e-08
-2.47697e-06
-2.84853e-08
-2.44746e-06
-2.97333e-08
-2.41664e-06
-3.09318e-08
-2.3846e-06
-3.2163e-08
-2.35127e-06
-3.33462e-08
-2.31674e-06
-3.45617e-08
-2.28094e-06
-3.57211e-08
-2.24398e-06
-3.68976e-08
-2.20581e-06
-3.80172e-08
-2.16653e-06
-3.91386e-08
-2.12611e-06
-4.01923e-08
-2.0847e-06
-4.12095e-08
-2.04229e-06
-4.21391e-08
-1.99903e-06
-4.3012e-08
-1.95478e-06
-4.39724e-08
-1.90955e-06
-4.5004e-08
-1.86342e-06
-4.59181e-08
-1.81653e-06
-4.67729e-08
-1.76889e-06
-4.75667e-08
-1.72057e-06
-4.83103e-08
-1.67159e-06
-4.89992e-08
-1.62201e-06
-4.96356e-08
-1.57186e-06
-5.02172e-08
-1.52121e-06
-5.07531e-08
-1.47008e-06
-5.12303e-08
-1.41852e-06
-5.16669e-08
-1.36658e-06
-5.20531e-08
-1.31429e-06
-5.23996e-08
-1.2617e-06
-5.26997e-08
-1.20884e-06
-5.2961e-08
-1.15576e-06
-5.31774e-08
-1.10249e-06
-5.33586e-08
-1.04907e-06
-5.35056e-08
-9.95515e-07
-5.36191e-08
-9.41859e-07
-5.37228e-08
-8.88099e-07
-5.38039e-08
-8.34264e-07
-5.3883e-08
-7.80334e-07
-5.39553e-08
-7.26335e-07
-5.4031e-08
-6.72245e-07
-5.41036e-08
-6.1809e-07
-5.41779e-08
-5.6385e-07
-5.42468e-08
-5.09554e-07
-5.43162e-08
-4.55179e-07
-5.43829e-08
-4.00748e-07
-5.4453e-08
-3.46241e-07
-5.45215e-08
-2.91685e-07
-5.45871e-08
-2.37084e-07
-5.46282e-08
-1.82506e-07
-5.46213e-08
-1.28039e-07
-5.4508e-08
-7.38892e-08
-5.42067e-08
-2.04924e-08
-5.34512e-08
3.15143e-08
-5.20718e-08
8.04844e-08
-4.90265e-08
1.25529e-07
-4.51004e-08
-1.99687e-08
1.4545e-07
-3.97568e-09
1.20334e-08
-1.13502e-08
2.16526e-08
-1.58537e-08
1.99251e-08
-1.02907e-08
8.05417e-09
1.07023e-08
-1.43406e-08
4.69283e-08
-4.24905e-08
9.3766e-08
-6.87866e-08
1.4601e-07
-8.73904e-08
1.98192e-07
-9.67117e-08
2.4677e-07
-9.78056e-08
2.90165e-07
-9.27164e-08
3.27646e-07
-8.36279e-08
3.59037e-07
-7.22591e-08
3.84501e-07
-5.97525e-08
4.04355e-07
-4.6803e-08
4.18953e-07
-3.37985e-08
4.28722e-07
-2.09202e-08
4.34167e-07
-8.26162e-09
4.35731e-07
4.21319e-09
4.33388e-07
1.66056e-08
4.2674e-07
2.89184e-08
4.15136e-07
4.09625e-08
3.97988e-07
5.23385e-08
3.74771e-07
6.24199e-08
3.45415e-07
7.03933e-08
3.10255e-07
7.53283e-08
2.70484e-07
7.63822e-08
2.27944e-07
7.30701e-08
1.85611e-07
6.55059e-08
1.47042e-07
5.43592e-08
1.16215e-07
4.04716e-08
9.57736e-08
2.44494e-08
8.77804e-08
6.60443e-09
9.18713e-08
-1.22624e-08
1.07247e-07
-3.1426e-08
1.29688e-07
-4.79293e-08
1.53065e-07
-5.59547e-08
1.70501e-07
-5.20111e-08
1.79001e-07
-3.86832e-08
1.77721e-07
-2.04124e-08
1.67355e-07
-1.18536e-09
1.49866e-07
1.40622e-08
1.24321e-07
2.69363e-08
8.26917e-08
4.48733e-08
1.54576e-08
6.97808e-08
-8.30724e-08
1.01991e-07
-2.09084e-07
1.37898e-07
-3.53194e-07
1.7253e-07
-5.06171e-07
2.04949e-07
-6.62818e-07
2.33776e-07
-8.21079e-07
2.56094e-07
-9.77446e-07
2.71253e-07
-1.12758e-06
2.7945e-07
-1.26732e-06
2.80705e-07
-1.39616e-06
2.74704e-07
-1.51319e-06
2.62819e-07
-1.61771e-06
2.47656e-07
-1.71022e-06
2.3062e-07
-1.79159e-06
2.12975e-07
-1.86395e-06
1.95066e-07
-1.92863e-06
1.77917e-07
-1.98627e-06
1.62392e-07
-2.0388e-06
1.48155e-07
-2.08701e-06
1.35515e-07
-2.13111e-06
1.24694e-07
-2.17218e-06
1.15178e-07
-2.21065e-06
1.06872e-07
-2.24689e-06
9.96139e-08
-2.28116e-06
9.32283e-08
-2.31368e-06
8.7565e-08
-2.34457e-06
8.24964e-08
-2.37397e-06
7.79061e-08
-2.40193e-06
7.37086e-08
-2.42855e-06
6.98186e-08
-2.45385e-06
6.6184e-08
-2.4779e-06
6.27453e-08
-2.50068e-06
5.94741e-08
-2.52226e-06
5.63301e-08
-2.54262e-06
5.32987e-08
-2.5618e-06
5.03517e-08
-2.57979e-06
4.74826e-08
-2.59662e-06
4.46725e-08
-2.61228e-06
4.19193e-08
-2.62679e-06
3.92091e-08
-2.64014e-06
3.65373e-08
-2.65236e-06
3.38916e-08
-2.66344e-06
3.12649e-08
-2.67341e-06
2.8656e-08
-2.6823e-06
2.60487e-08
-2.69011e-06
2.34722e-08
-2.69685e-06
2.09149e-08
-2.70248e-06
1.83829e-08
-2.70704e-06
1.58773e-08
-2.71052e-06
1.33785e-08
-2.71294e-06
1.08972e-08
-2.71434e-06
8.41965e-09
-2.71474e-06
5.96288e-09
-2.71421e-06
3.51809e-09
-2.7128e-06
1.114e-09
-2.71064e-06
-1.23598e-09
-2.70774e-06
-3.49211e-09
-2.70394e-06
-5.69201e-09
-2.69904e-06
-7.876e-09
-2.69306e-06
-1.00519e-08
-2.68599e-06
-1.22289e-08
-2.67786e-06
-1.44087e-08
-2.66866e-06
-1.66052e-08
-2.65841e-06
-1.88051e-08
-2.64709e-06
-2.10211e-08
-2.6347e-06
-2.32371e-08
-2.62123e-06
-2.54691e-08
-2.60667e-06
-2.77024e-08
-2.59102e-06
-2.9954e-08
-2.57427e-06
-3.22104e-08
-2.5564e-06
-3.44874e-08
-2.53741e-06
-3.67734e-08
-2.51728e-06
-3.90795e-08
-2.49597e-06
-4.13868e-08
-2.47347e-06
-4.37156e-08
-2.44978e-06
-4.60741e-08
-2.42494e-06
-4.84821e-08
-2.39892e-06
-5.09372e-08
-2.37171e-06
-5.34141e-08
-2.34326e-06
-5.58998e-08
-2.31357e-06
-5.83603e-08
-2.28261e-06
-6.08161e-08
-2.25041e-06
-6.32407e-08
-2.21696e-06
-6.56653e-08
-2.18229e-06
-6.80545e-08
-2.1464e-06
-7.04391e-08
-2.10932e-06
-7.27731e-08
-2.07106e-06
-7.50867e-08
-2.03165e-06
-7.73363e-08
-1.99113e-06
-7.955e-08
-1.9495e-06
-8.16838e-08
-1.9068e-06
-8.37575e-08
-1.86302e-06
-8.57392e-08
-1.81819e-06
-8.76744e-08
-1.7724e-06
-8.95947e-08
-1.72577e-06
-9.14895e-08
-1.67831e-06
-9.32544e-08
-1.63011e-06
-9.49201e-08
-1.58118e-06
-9.64629e-08
-1.53159e-06
-9.7913e-08
-1.48137e-06
-9.92446e-08
-1.43059e-06
-1.00484e-07
-1.37926e-06
-1.01604e-07
-1.32746e-06
-1.02639e-07
-1.2752e-06
-1.0356e-07
-1.22255e-06
-1.04404e-07
-1.16954e-06
-1.05148e-07
-1.1162e-06
-1.05819e-07
-1.06258e-06
-1.06399e-07
-1.00871e-06
-1.06908e-07
-9.54618e-07
-1.0733e-07
-9.00351e-07
-1.07685e-07
-8.45934e-07
-1.07974e-07
-7.91388e-07
-1.08206e-07
-7.36738e-07
-1.08408e-07
-6.81987e-07
-1.08578e-07
-6.27153e-07
-1.08738e-07
-5.72225e-07
-1.08892e-07
-5.17214e-07
-1.09051e-07
-4.62106e-07
-1.09209e-07
-4.06915e-07
-1.0937e-07
-3.5163e-07
-1.09526e-07
-2.96263e-07
-1.09682e-07
-2.40804e-07
-1.09836e-07
-1.85262e-07
-1.09996e-07
-1.29626e-07
-1.10156e-07
-7.39095e-08
-1.10311e-07
-1.81208e-08
-1.10425e-07
3.76915e-08
-1.1045e-07
9.34459e-08
-1.10281e-07
1.48954e-07
-1.09739e-07
2.03967e-07
-1.08492e-07
2.57863e-07
-1.06001e-07
3.10024e-07
-1.01222e-07
3.5723e-07
-9.23407e-08
-6.5084e-08
4.02311e-07
1.08026e-10
1.16869e-08
2.8556e-09
1.84879e-08
1.57375e-08
6.62533e-09
4.73596e-08
-2.37791e-08
9.67853e-08
-6.3947e-08
1.54953e-07
-1.00735e-07
2.11811e-07
-1.25738e-07
2.61559e-07
-1.37188e-07
3.02156e-07
-1.37374e-07
3.34109e-07
-1.298e-07
3.58899e-07
-1.17553e-07
3.78068e-07
-1.02833e-07
3.92802e-07
-8.70243e-08
4.03932e-07
-7.09105e-08
4.12015e-07
-5.49053e-08
4.17412e-07
-3.92151e-08
4.20413e-07
-2.39297e-08
4.21234e-07
-9.09143e-09
4.20167e-07
5.28029e-09
4.17553e-07
1.92153e-08
4.13692e-07
3.27871e-08
4.08652e-07
4.60044e-08
4.02234e-07
5.877e-08
3.93856e-07
7.08031e-08
3.82687e-07
8.15869e-08
3.67703e-07
9.03232e-08
3.48146e-07
9.59736e-08
3.23844e-07
9.73854e-08
2.958e-07
9.35909e-08
2.66155e-07
8.40237e-08
2.37997e-07
6.86826e-08
2.14323e-07
4.81467e-08
1.97385e-07
2.36154e-08
1.88231e-07
-3.10639e-09
1.84599e-07
-2.77246e-08
1.79403e-07
-4.27639e-08
1.66186e-07
-4.26994e-08
1.43102e-07
-2.89546e-08
1.11168e-07
-6.69257e-09
6.99036e-08
2.08569e-08
1.58371e-08
5.29658e-08
-5.81319e-08
8.81062e-08
-1.56729e-07
1.25605e-07
-2.78532e-07
1.66735e-07
-4.18769e-07
2.10052e-07
-5.69272e-07
2.52532e-07
-7.22541e-07
2.91184e-07
-8.73589e-07
3.23617e-07
-1.01706e-06
3.48436e-07
-1.14865e-06
3.65413e-07
-1.26662e-06
3.74087e-07
-1.37012e-06
3.74785e-07
-1.45901e-06
3.6836e-07
-1.53426e-06
3.55982e-07
-1.59842e-06
3.38893e-07
-1.65422e-06
3.18652e-07
-1.70351e-06
2.96981e-07
-1.74795e-06
2.75093e-07
-1.78879e-06
2.53858e-07
-1.82742e-06
2.33725e-07
-1.86456e-06
2.15088e-07
-1.90037e-06
1.98229e-07
-1.9353e-06
1.8311e-07
-1.96945e-06
1.69684e-07
-2.00262e-06
1.5788e-07
-2.03489e-06
1.47459e-07
-2.06624e-06
1.38236e-07
-2.09665e-06
1.30033e-07
-2.12609e-06
1.22682e-07
-2.15455e-06
1.16034e-07
-2.182e-06
1.09963e-07
-2.20845e-06
1.04359e-07
-2.23387e-06
9.91346e-08
-2.25826e-06
9.42128e-08
-2.2816e-06
8.95355e-08
-2.30391e-06
8.50525e-08
-2.32517e-06
8.07285e-08
-2.34538e-06
7.65315e-08
-2.36453e-06
7.24408e-08
-2.38261e-06
6.84355e-08
-2.39964e-06
6.4504e-08
-2.4156e-06
6.06331e-08
-2.4305e-06
5.68164e-08
-2.44433e-06
5.30447e-08
-2.4571e-06
4.93112e-08
-2.46881e-06
4.56084e-08
-2.47946e-06
4.19307e-08
-2.48909e-06
3.82684e-08
-2.49769e-06
3.46283e-08
-2.50528e-06
3.10013e-08
-2.51184e-06
2.74098e-08
-2.51736e-06
2.38532e-08
-2.52187e-06
2.03181e-08
-2.52534e-06
1.68128e-08
-2.52782e-06
1.33246e-08
-2.52931e-06
9.86763e-09
-2.52982e-06
6.43507e-09
-2.52936e-06
3.04345e-09
-2.52795e-06
-3.0772e-10
-2.52559e-06
-3.60433e-09
-2.52221e-06
-6.8516e-09
-2.51778e-06
-1.00779e-08
-2.51228e-06
-1.32974e-08
-2.50574e-06
-1.65207e-08
-2.49814e-06
-1.97407e-08
-2.48952e-06
-2.29779e-08
-2.47986e-06
-2.62213e-08
-2.46918e-06
-2.94822e-08
-2.45746e-06
-3.27484e-08
-2.44471e-06
-3.60289e-08
-2.43091e-06
-3.9318e-08
-2.41606e-06
-4.26236e-08
-2.40015e-06
-4.59456e-08
-2.38316e-06
-4.92896e-08
-2.3651e-06
-5.26591e-08
-2.34593e-06
-5.60556e-08
-2.32564e-06
-5.94764e-08
-2.3042e-06
-6.29173e-08
-2.2816e-06
-6.63895e-08
-2.25784e-06
-6.99107e-08
-2.23294e-06
-7.3497e-08
-2.20689e-06
-7.71406e-08
-2.17966e-06
-8.08245e-08
-2.1512e-06
-8.45098e-08
-2.12153e-06
-8.81886e-08
-2.0906e-06
-9.18452e-08
-2.05846e-06
-9.54849e-08
-2.02508e-06
-9.90977e-08
-1.99049e-06
-1.02684e-07
-1.9547e-06
-1.06231e-07
-1.91774e-06
-1.09731e-07
-1.87962e-06
-1.13171e-07
-1.84036e-06
-1.16542e-07
-1.8e-06
-1.19835e-07
-1.75856e-06
-1.23036e-07
-1.71607e-06
-1.26136e-07
-1.67256e-06
-1.2913e-07
-1.62808e-06
-1.32035e-07
-1.58269e-06
-1.34861e-07
-1.53649e-06
-1.37585e-07
-1.4895e-06
-1.40159e-07
-1.44177e-06
-1.4258e-07
-1.39336e-06
-1.44838e-07
-1.3443e-06
-1.46942e-07
-1.29465e-06
-1.48886e-07
-1.24445e-06
-1.50677e-07
-1.19375e-06
-1.52311e-07
-1.1426e-06
-1.53802e-07
-1.09102e-06
-1.55147e-07
-1.03907e-06
-1.56361e-07
-9.86781e-07
-1.57449e-07
-9.34189e-07
-1.58418e-07
-8.81326e-07
-1.59273e-07
-8.28227e-07
-1.60012e-07
-7.74923e-07
-1.60643e-07
-7.21446e-07
-1.61165e-07
-6.67822e-07
-1.61604e-07
-6.1407e-07
-1.61958e-07
-5.60213e-07
-1.62268e-07
-5.06256e-07
-1.62534e-07
-4.52207e-07
-1.62787e-07
-3.98064e-07
-1.63032e-07
-3.43829e-07
-1.63287e-07
-2.89493e-07
-1.63543e-07
-2.3506e-07
-1.63804e-07
-1.80527e-07
-1.64058e-07
-1.25897e-07
-1.64314e-07
-7.11654e-08
-1.64569e-07
-1.63319e-08
-1.64835e-07
3.86094e-08
-1.65101e-07
9.36501e-08
-1.65359e-07
1.48781e-07
-1.65562e-07
2.03957e-07
-1.65636e-07
2.59106e-07
-1.65437e-07
3.14092e-07
-1.64735e-07
3.68715e-07
-1.63124e-07
4.22628e-07
-1.59923e-07
4.75401e-07
-1.54004e-07
5.2616e-07
-1.43106e-07
-1.17213e-07
5.78285e-07
-5.14172e-10
1.19563e-08
1.10771e-08
6.52442e-09
4.8493e-08
-3.105e-08
1.09131e-07
-8.45367e-08
1.76257e-07
-1.3117e-07
2.35246e-07
-1.59776e-07
2.79733e-07
-1.70288e-07
3.1016e-07
-1.67651e-07
3.29888e-07
-1.57147e-07
3.42598e-07
-1.42545e-07
3.51037e-07
-1.26026e-07
3.56896e-07
-1.08722e-07
3.61046e-07
-9.11994e-08
3.63866e-07
-7.37538e-08
3.65492e-07
-5.65485e-08
3.65949e-07
-3.96882e-08
3.65257e-07
-2.32453e-08
3.63434e-07
-7.27854e-09
3.6056e-07
8.15183e-09
3.56754e-07
2.30207e-08
3.52226e-07
3.73185e-08
3.47215e-07
5.10202e-08
3.41923e-07
6.40753e-08
3.36393e-07
7.63469e-08
3.30436e-07
8.75684e-08
3.23539e-07
9.72464e-08
3.14953e-07
1.046e-07
3.03834e-07
1.08539e-07
2.89678e-07
1.078e-07
2.72523e-07
1.0122e-07
2.53225e-07
8.80497e-08
2.33194e-07
6.82089e-08
2.13842e-07
4.30538e-08
1.93773e-07
1.69677e-08
1.66848e-07
-7.30737e-10
1.2712e-07
-3.0678e-09
7.46082e-08
9.87723e-09
9.87353e-09
3.57678e-08
-6.90986e-08
7.2335e-08
-1.64524e-07
1.16317e-07
-2.761e-07
1.6459e-07
-4.02147e-07
2.14199e-07
-5.39277e-07
2.62774e-07
-6.8121e-07
3.08709e-07
-8.21677e-07
3.50547e-07
-9.54897e-07
3.85787e-07
-1.07607e-06
4.12376e-07
-1.18268e-06
4.30255e-07
-1.2739e-06
4.39682e-07
-1.34966e-06
4.41197e-07
-1.41133e-06
4.35781e-07
-1.46106e-06
4.24533e-07
-1.50142e-06
4.08736e-07
-1.53508e-06
3.89666e-07
-1.56463e-06
3.68465e-07
-1.59214e-06
3.46187e-07
-1.61892e-06
3.23783e-07
-1.64576e-06
3.01958e-07
-1.67306e-06
2.81194e-07
-1.70108e-06
2.61765e-07
-1.72979e-06
2.43828e-07
-1.759e-06
2.27464e-07
-1.78853e-06
2.12654e-07
-1.81815e-06
1.9932e-07
-1.84761e-06
1.87356e-07
-1.87674e-06
1.76606e-07
-1.90541e-06
1.6691e-07
-1.93348e-06
1.58116e-07
-1.96088e-06
1.50083e-07
-1.98752e-06
1.42681e-07
-2.01334e-06
1.35798e-07
-2.03831e-06
1.29339e-07
-2.06239e-06
1.23221e-07
-2.08555e-06
1.17378e-07
-2.10777e-06
1.11755e-07
-2.12902e-06
1.06307e-07
-2.14929e-06
1.01002e-07
-2.16858e-06
9.58133e-08
-2.18686e-06
9.07198e-08
-2.20413e-06
8.57057e-08
-2.22039e-06
8.07593e-08
-2.23563e-06
7.58709e-08
-2.24985e-06
7.10335e-08
-2.26304e-06
6.62406e-08
-2.27522e-06
6.14866e-08
-2.28637e-06
5.67656e-08
-2.29651e-06
5.20716e-08
-2.30564e-06
4.74026e-08
-2.3138e-06
4.27472e-08
-2.32096e-06
3.81311e-08
-2.32712e-06
3.35343e-08
-2.33228e-06
2.89776e-08
-2.33644e-06
2.44497e-08
-2.33961e-06
1.99533e-08
-2.34179e-06
1.54822e-08
-2.34299e-06
1.10438e-08
-2.34319e-06
6.63555e-09
-2.34242e-06
2.26643e-09
-2.34066e-06
-2.06585e-09
-2.33788e-06
-6.35767e-09
-2.33408e-06
-1.06144e-08
-2.32925e-06
-1.48558e-08
-2.32338e-06
-1.90872e-08
-2.31649e-06
-2.33248e-08
-2.3086e-06
-2.75615e-08
-2.29971e-06
-3.18173e-08
-2.28982e-06
-3.60777e-08
-2.27894e-06
-4.03581e-08
-2.26706e-06
-4.46415e-08
-2.25417e-06
-4.89448e-08
-2.24027e-06
-5.32557e-08
-2.22536e-06
-5.7593e-08
-2.20942e-06
-6.195e-08
-2.19244e-06
-6.63436e-08
-2.17441e-06
-7.07712e-08
-2.15531e-06
-7.52427e-08
-2.13512e-06
-7.97461e-08
-2.11381e-06
-8.42891e-08
-2.09137e-06