/*--------------------------------*- C++ -*----------------------------------*\
  =========                 |
  \\      /  F ield         | OpenFOAM: The Open Source CFD Toolbox
   \\    /   O peration     | Website:  https://openfoam.org
    \\  /    A nd           | Version:  13
     \\/     M anipulation  |
\*---------------------------------------------------------------------------*/
FoamFile
{
    format      ascii;
    class       volVectorField;
    location    "1900";
    object      U;
}
// * * * * * * * * * * * * * * * * * * * * * * * * * * * * * * * * * * * * * //

dimensions      [0 1 -1 0 0 0 0];

internalField   nonuniform List<vector> 
12225
(
(9.79551 0.0486362 0)
(9.33049 0.0978801 0)
(8.88991 0.108135 0)
(8.45165 0.102793 0)
(8.08599 0.0899117 0)
(7.74626 0.0847926 0)
(7.4116 0.07435 0)
(7.10181 0.0694114 0)
(6.83373 0.0654594 0)
(6.60677 0.0568633 0)
(6.41529 0.0541294 0)
(6.25911 0.0396842 0)
(6.13293 0.0343443 0)
(6.04315 0.0275091 0)
(5.97508 0.0156279 0)
(5.91386 0.00216387 0)
(5.86001 -0.0203736 0)
(5.83641 -0.0254462 0)
(10.065 0.0533183 0)
(10.2474 0.0830444 0)
(10.3527 0.082093 0)
(10.4102 0.0830091 0)
(10.3962 0.0866532 0)
(10.3698 0.0854553 0)
(10.3316 0.0865682 0)
(10.2906 0.0847979 0)
(10.2201 0.079056 0)
(10.1458 0.0735329 0)
(10.058 0.0660636 0)
(9.96633 0.0599073 0)
(9.88107 0.0518253 0)
(9.78675 0.0444656 0)
(9.71404 0.0345543 0)
(9.63196 0.010036 0)
(9.7582 0.0283064 0)
(9.66402 0.0348273 0)
(10.0214 0.043716 0)
(10.0756 0.0703862 0)
(10.14 0.0768118 0)
(10.1755 0.0854383 0)
(10.2099 0.0867357 0)
(10.2506 0.0909197 0)
(10.2888 0.0951002 0)
(10.3243 0.0954444 0)
(10.3537 0.0937088 0)
(10.3791 0.090142 0)
(10.4001 0.0866223 0)
(10.4159 0.0811306 0)
(10.4265 0.0749278 0)
(10.4326 0.0666162 0)
(10.4348 0.0535407 0)
(10.4193 0.0736373 0)
(10.2592 0.0514054 0)
(10.2774 0.0047912 0)
(10.0058 0.033852 0)
(10.0333 0.0575067 0)
(10.0578 0.0568494 0)
(10.0818 0.0511488 0)
(10.0984 0.06955 0)
(10.1128 0.073462 0)
(10.1297 0.0752564 0)
(10.1507 0.0760288 0)
(10.1718 0.0742276 0)
(10.1902 0.0709013 0)
(10.2079 0.0672783 0)
(10.2243 0.0621873 0)
(10.2392 0.0569241 0)
(10.2519 0.0506084 0)
(10.2591 0.0421907 0)
(10.2699 0.0318502 0)
(10.2782 0.0395018 0)
(10.2866 0.0340369 0)
(10.0021 0.0233646 0)
(10.0576 0.0358881 0)
(10.0545 0.0618871 0)
(10.0488 0.100022 0)
(10.0745 0.0754013 0)
(10.0854 0.0734764 0)
(10.1012 0.0751555 0)
(10.1147 0.0737006 0)
(10.1277 0.0722514 0)
(10.1401 0.0698108 0)
(10.1515 0.0664501 0)
(10.1618 0.0620954 0)
(10.171 0.0572463 0)
(10.1785 0.0515468 0)
(10.1832 0.0454611 0)
(10.1894 0.0454042 0)
(10.1992 0.0378524 0)
(10.2031 0.0239153 0)
(10.0018 0.0189903 0)
(10.0192 0.0461923 0)
(10.051 0.0651392 0)
(10.0659 0.0483948 0)
(10.0737 0.0682332 0)
(10.0805 0.072412 0)
(10.0946 0.072616 0)
(10.1068 0.0717918 0)
(10.1181 0.0701104 0)
(10.1288 0.0673187 0)
(10.1385 0.0637097 0)
(10.1473 0.0592725 0)
(10.1549 0.0543144 0)
(10.1611 0.0488501 0)
(10.1656 0.0435958 0)
(10.1707 0.0410376 0)
(10.1769 0.0356007 0)
(10.1799 0.0263672 0)
(10.002 0.0155984 0)
(10.0129 0.0356282 0)
(10.0307 0.0492144 0)
(10.0479 0.0595522 0)
(10.0672 0.0671035 0)
(10.0769 0.0645102 0)
(10.088 0.0655151 0)
(10.0985 0.0651633 0)
(10.1085 0.0637485 0)
(10.1179 0.061372 0)
(10.1266 0.0582114 0)
(10.1344 0.0543749 0)
(10.1413 0.0500786 0)
(10.1471 0.0454641 0)
(10.1517 0.0410682 0)
(10.1563 0.0377018 0)
(10.161 0.032912 0)
(10.1639 0.0266172 0)
(10.0021 0.0129565 0)
(10.0098 0.0311555 0)
(10.0248 0.046522 0)
(10.0402 0.052905 0)
(10.0534 0.0563203 0)
(10.0659 0.0587018 0)
(10.0769 0.0597335 0)
(10.0873 0.059595 0)
(10.097 0.0585531 0)
(10.106 0.0565654 0)
(10.1144 0.0537841 0)
(10.1218 0.0503762 0)
(10.1284 0.0465056 0)
(10.134 0.0423687 0)
(10.1388 0.0383176 0)
(10.1432 0.034607 0)
(10.1471 0.0302578 0)
(10.1501 0.0254206 0)
(10.0019 0.0109751 0)
(10.0084 0.0278432 0)
(10.021 0.041564 0)
(10.0349 0.0482856 0)
(10.047 0.0531998 0)
(10.0585 0.0553702 0)
(10.0691 0.056202 0)
(10.0791 0.0559477 0)
(10.0884 0.054844 0)
(10.0971 0.0529034 0)
(10.105 0.0502565 0)
(10.1121 0.0470494 0)
(10.1185 0.0434429 0)
(10.1239 0.039622 0)
(10.1286 0.0358081 0)
(10.1328 0.0320939 0)
(10.1365 0.0281364 0)
(10.1396 0.0240995 0)
(10.0013 0.00921203 0)
(10.0067 0.0245814 0)
(10.018 0.0371012 0)
(10.0304 0.0438754 0)
(10.0417 0.0484728 0)
(10.0525 0.0508119 0)
(10.0627 0.0517711 0)
(10.0724 0.0516125 0)
(10.0813 0.050591 0)
(10.0896 0.0487908 0)
(10.0973 0.0463453 0)
(10.1041 0.0433858 0)
(10.1103 0.040077 0)
(10.1156 0.0365629 0)
(10.1203 0.0330092 0)
(10.1244 0.0294741 0)
(10.128 0.0258685 0)
(10.131 0.0223213 0)
(10.0008 0.00776083 0)
(10.0053 0.0209579 0)
(10.0151 0.0324013 0)
(10.0263 0.0391241 0)
(10.0369 0.0434999 0)
(10.0471 0.0459765 0)
(10.0569 0.047047 0)
(10.0662 0.0469947 0)
(10.0749 0.046082 0)
(10.0829 0.0444474 0)
(10.0903 0.0422129 0)
(10.0969 0.0395174 0)
(10.1029 0.0364921 0)
(10.1082 0.0332902 0)
(10.1129 0.0300138 0)
(10.1169 0.0267382 0)
(10.1205 0.0234566 0)
(10.1236 0.0202729 0)
(10.0006 0.00661172 0)
(10.0046 0.0180871 0)
(10.0129 0.0282351 0)
(10.023 0.0346471 0)
(10.0329 0.0388256 0)
(10.0425 0.0412968 0)
(10.0519 0.0424152 0)
(10.0608 0.0424575 0)
(10.0692 0.0416636 0)
(10.0769 0.0401938 0)
(10.0841 0.0381724 0)
(10.0906 0.0357243 0)
(10.0964 0.0329858 0)
(10.1017 0.0300574 0)
(10.1063 0.0270651 0)
(10.1103 0.0240458 0)
(10.1139 0.0210607 0)
(10.117 0.0181481 0)
(10.0005 0.00561666 0)
(10.0039 0.0154303 0)
(10.011 0.0243888 0)
(10.0199 0.0303609 0)
(10.029 0.0343012 0)
(10.0381 0.0366913 0)
(10.047 0.0378235 0)
(10.0555 0.0379436 0)
(10.0636 0.0372705 0)
(10.0712 0.0359588 0)
(10.0781 0.0341345 0)
(10.0845 0.0319146 0)
(10.0902 0.0294217 0)
(10.0953 0.0267534 0)
(10.0999 0.0240081 0)
(10.104 0.0212435 0)
(10.1075 0.0184956 0)
(10.1107 0.0158479 0)
(10.0004 0.0046447 0)
(10.0032 0.012811 0)
(10.0092 0.0204132 0)
(10.0169 0.0256982 0)
(10.0252 0.0292359 0)
(10.0336 0.0314172 0)
(10.0419 0.0324812 0)
(10.05 0.0326323 0)
(10.0576 0.0320568 0)
(10.0649 0.0309078 0)
(10.0715 0.0292882 0)
(10.0777 0.0273316 0)
(10.0833 0.0251057 0)
(10.0883 0.0227418 0)
(10.0928 0.0202752 0)
(10.0968 0.0178065 0)
(10.1004 0.0153422 0)
(10.1036 0.0129755 0)
(10.0003 0.00365529 0)
(10.0027 0.0101565 0)
(10.0077 0.0162833 0)
(10.0144 0.0206926 0)
(10.0217 0.0236833 0)
(10.0293 0.025541 0)
(10.037 0.0264501 0)
(10.0444 0.0265731 0)
(10.0516 0.0260668 0)
(10.0584 0.0250482 0)
(10.0647 0.0236416 0)
(10.0706 0.0219225 0)
(10.0759 0.0200047 0)
(10.0808 0.0179291 0)
(10.0852 0.0158017 0)
(10.0891 0.0136303 0)
(10.0926 0.0115103 0)
(10.0959 0.00943018 0)
(10.0003 0.00265237 0)
(10.0023 0.00745152 0)
(10.0064 0.0120008 0)
(10.0122 0.0153524 0)
(10.0187 0.0176474 0)
(10.0255 0.0190635 0)
(10.0325 0.0197254 0)
(10.0393 0.0197579 0)
(10.046 0.0192726 0)
(10.0523 0.0183683 0)
(10.0582 0.0171479 0)
(10.0637 0.0156786 0)
(10.0688 0.0140448 0)
(10.0734 0.0122934 0)
(10.0777 0.0104902 0)
(10.0815 0.00866733 0)
(10.085 0.00687139 0)
(10.0882 0.00513832 0)
(10.0002 0.00163305 0)
(10.002 0.00466713 0)
(10.0055 0.00754777 0)
(10.0105 0.00967029 0)
(10.0162 0.0111124 0)
(10.0224 0.0119537 0)
(10.0287 0.0122662 0)
(10.0349 0.0121311 0)
(10.0411 0.0116128 0)
(10.0469 0.0107995 0)
(10.0525 0.00973752 0)
(10.0576 0.00851613 0)
(10.0625 0.0071536 0)
(10.0669 0.00573191 0)
(10.071 0.00425054 0)
(10.0747 0.00278407 0)
(10.0781 0.00131669 0)
(10.0813 -7.59618e-05 0)
(10.0002 0.000572484 0)
(10.0018 0.00171002 0)
(10.0049 0.00280392 0)
(10.0094 0.0035398 0)
(10.0146 0.00396405 0)
(10.0202 0.00409247 0)
(10.026 0.00394196 0)
(10.0318 0.00354825 0)
(10.0375 0.00294327 0)
(10.043 0.00216579 0)
(10.0482 0.00125255 0)
(10.0531 0.000239517 0)
(10.0577 -0.000844234 0)
(10.0619 -0.0019692 0)
(10.0659 -0.00311298 0)
(10.0695 -0.004252 0)
(10.0728 -0.00537066 0)
(10.076 -0.00644606 0)
(10.0002 -0.000606633 0)
(10.0017 -0.00164341 0)
(10.0048 -0.00252116 0)
(10.0091 -0.00333099 0)
(10.0141 -0.00406409 0)
(10.0195 -0.00476145 0)
(10.025 -0.00546847 0)
(10.0306 -0.00618682 0)
(10.036 -0.00693481 0)
(10.0413 -0.00770608 0)
(10.0463 -0.00850798 0)
(10.051 -0.00932666 0)
(10.0554 -0.0101613 0)
(10.0596 -0.0109967 0)
(10.0634 -0.011829 0)
(10.067 -0.0126447 0)
(10.0703 -0.013438 0)
(10.0734 -0.0141944 0)
(10.0002 -0.00177 0)
(10.002 -0.00499726 0)
(10.0054 -0.00775103 0)
(10.01 -0.00998604 0)
(10.0154 -0.0117552 0)
(10.0209 -0.0131887 0)
(10.0266 -0.0143685 0)
(10.0323 -0.0153614 0)
(10.0378 -0.016204 0)
(10.0431 -0.0169591 0)
(10.0481 -0.0176411 0)
(10.0528 -0.0182898 0)
(10.0573 -0.0188981 0)
(10.0614 -0.0194933 0)
(10.0652 -0.0200584 0)
(10.0688 -0.0206134 0)
(10.0721 -0.0211356 0)
(10.0752 -0.0216385 0)
(10.0003 -0.00286491 0)
(10.0024 -0.00813369 0)
(10.0065 -0.0124785 0)
(10.0118 -0.0158164 0)
(10.0177 -0.0183451 0)
(10.0237 -0.0202938 0)
(10.0297 -0.0217822 0)
(10.0357 -0.0229096 0)
(10.0414 -0.0237605 0)
(10.0469 -0.0244327 0)
(10.052 -0.0249735 0)
(10.0568 -0.0254424 0)
(10.0613 -0.025851 0)
(10.0654 -0.0262368 0)
(10.0693 -0.0265932 0)
(10.0729 -0.0269426 0)
(10.0763 -0.0272681 0)
(10.0794 -0.0275787 0)
(10.0003 -0.00407792 0)
(10.0031 -0.0115047 0)
(10.0082 -0.0173222 0)
(10.0145 -0.0215441 0)
(10.0211 -0.0246517 0)
(10.0277 -0.026974 0)
(10.0343 -0.0286631 0)
(10.0407 -0.0298318 0)
(10.0467 -0.0306323 0)
(10.0524 -0.0311734 0)
(10.0577 -0.0315513 0)
(10.0626 -0.0318139 0)
(10.0672 -0.0320233 0)
(10.0714 -0.032192 0)
(10.0754 -0.032356 0)
(10.079 -0.0325046 0)
(10.0824 -0.0326582 0)
(10.0855 -0.0327961 0)
(10.0005 -0.00551331 0)
(10.0042 -0.0152881 0)
(10.0107 -0.0224315 0)
(10.0183 -0.0273124 0)
(10.0258 -0.030828 0)
(10.0331 -0.033386 0)
(10.0403 -0.0351285 0)
(10.0472 -0.0362325 0)
(10.0536 -0.0368957 0)
(10.0596 -0.0372689 0)
(10.0651 -0.0374499 0)
(10.0702 -0.0375113 0)
(10.0749 -0.037512 0)
(10.0792 -0.0374864 0)
(10.0832 -0.0374543 0)
(10.0869 -0.0374234 0)
(10.0903 -0.0373934 0)
(10.0934 -0.0373676 0)
(10.0007 -0.00730122 0)
(10.006 -0.0196384 0)
(10.0144 -0.0277809 0)
(10.0233 -0.0330786 0)
(10.0318 -0.0369252 0)
(10.0399 -0.0396557 0)
(10.0478 -0.0413667 0)
(10.0553 -0.0423101 0)
(10.0622 -0.0427534 0)
(10.0686 -0.0428831 0)
(10.0744 -0.0428034 0)
(10.0797 -0.0426165 0)
(10.0846 -0.0423762 0)
(10.089 -0.0421354 0)
(10.093 -0.0419045 0)
(10.0967 -0.0417025 0)
(10.1001 -0.0415171 0)
(10.1032 -0.0413658 0)
(10.0011 -0.00959962 0)
(10.0087 -0.0247225 0)
(10.0195 -0.0334254 0)
(10.03 -0.0388129 0)
(10.0395 -0.0428246 0)
(10.0486 -0.0456192 0)
(10.0575 -0.0472522 0)
(10.0657 -0.0480349 0)
(10.0732 -0.0482704 0)
(10.08 -0.048151 0)
(10.0862 -0.0477931 0)
(10.0918 -0.0473131 0)
(10.0968 -0.0467859 0)
(10.1014 -0.0462661 0)
(10.1055 -0.0457827 0)
(10.1093 -0.0453495 0)
(10.1127 -0.0449617 0)
(10.1159 -0.044619 0)
(10.0017 -0.0127172 0)
(10.0128 -0.0304579 0)
(10.0269 -0.039505 0)
(10.0393 -0.04496 0)
(10.0502 -0.0489255 0)
(10.0606 -0.0514621 0)
(10.0707 -0.0527723 0)
(10.08 -0.0532701 0)
(10.0884 -0.0532692 0)
(10.096 -0.0529318 0)
(10.1029 -0.0523608 0)
(10.1091 -0.0516808 0)
(10.1146 -0.0509613 0)
(10.1195 -0.0502692 0)
(10.1239 -0.0496373 0)
(10.1279 -0.0490715 0)
(10.1315 -0.048585 0)
(10.1348 -0.0481463 0)
(10.003 -0.0174918 0)
(10.0198 -0.0367909 0)
(10.0392 -0.0451018 0)
(10.055 -0.0508165 0)
(10.0688 -0.0551164 0)
(10.0821 -0.0575371 0)
(10.0947 -0.0584361 0)
(10.1062 -0.0584407 0)
(10.1164 -0.0579266 0)
(10.1256 -0.0570737 0)
(10.1337 -0.0560204 0)
(10.1409 -0.054887 0)
(10.1472 -0.0537681 0)
(10.1526 -0.0527467 0)
(10.1573 -0.0518594 0)
(10.1615 -0.0510973 0)
(10.1653 -0.0504617 0)
(10.1686 -0.0499162 0)
(10.0082 -0.0262764 0)
(10.04 -0.0463029 0)
(10.0719 -0.051421 0)
(10.0976 -0.0565997 0)
(10.1203 -0.061612 0)
(10.1418 -0.0647533 0)
(10.1608 -0.0661326 0)
(10.1769 -0.0664115 0)
(10.19 -0.0659535 0)
(10.2004 -0.0649445 0)
(10.2082 -0.0635745 0)
(10.2138 -0.0619963 0)
(10.2174 -0.060384 0)
(10.2196 -0.0588673 0)
(10.2205 -0.0575833 0)
(10.2205 -0.0565921 0)
(10.22 -0.0558399 0)
(10.2191 -0.0554337 0)
(10.0465 -0.036185 0)
(10.1447 -0.0640123 0)
(10.2117 -0.0682051 0)
(10.2527 -0.0692888 0)
(10.2773 -0.0702505 0)
(10.2878 -0.0699959 0)
(10.2853 -0.0685585 0)
(10.2721 -0.0664783 0)
(10.2505 -0.0640542 0)
(10.2227 -0.0614586 0)
(10.1903 -0.0587644 0)
(10.1548 -0.0560955 0)
(10.117 -0.0536001 0)
(10.0778 -0.0513352 0)
(10.0378 -0.0493496 0)
(9.99834 -0.0477464 0)
(9.95966 -0.0465504 0)
(9.92242 -0.0461552 0)
(9.87472 -0.038942 0)
(9.6279 -0.0730192 0)
(9.36556 -0.0837184 0)
(9.10058 -0.0861414 0)
(8.84891 -0.0838723 0)
(8.61936 -0.0784647 0)
(8.41224 -0.0716169 0)
(8.22684 -0.06422 0)
(8.06247 -0.0568716 0)
(7.91774 -0.049887 0)
(7.79111 -0.0434152 0)
(7.6805 -0.0375495 0)
(7.58393 -0.0323336 0)
(7.49937 -0.0277727 0)
(7.4249 -0.0240027 0)
(7.35798 -0.0210593 0)
(7.29677 -0.0188084 0)
(7.24094 -0.0175244 0)
(-0.00289645 0.00752952 -9.87632e-19)
(-0.0133402 0.0125734 1.07553e-18)
(-0.0278522 0.0135005 0)
(-0.0431113 0.011418 0)
(-0.0547299 0.0056652 0)
(-0.0551747 -0.00373827 -7.3615e-19)
(-0.0403342 -0.0164291 0)
(-0.0139094 -0.029933 0)
(0.0213389 -0.0404809 0)
(0.0622694 -0.0459013 0)
(0.105938 -0.0466793 4.14838e-19)
(0.148838 -0.0439993 0)
(0.188132 -0.0389591 0)
(0.222034 -0.0323828 0)
(0.249646 -0.0248761 0)
(0.270493 -0.016813 2.28257e-19)
(0.284256 -0.00840033 0)
(0.291036 0.000399316 0)
(0.28998 0.00954298 0)
(0.28099 0.0185918 0)
(0.264632 0.0268114 0)
(0.2415 0.0333936 0)
(0.212451 0.0376096 0)
(0.178781 0.0388111 3.12104e-19)
(0.142268 0.0365324 -3.65183e-19)
(0.105134 0.0306436 4.43963e-19)
(0.0698874 0.0216549 5.62613e-19)
(0.0391236 0.0110281 0)
(0.0149789 0.00145278 0)
(-0.00179425 -0.00440018 -1.26097e-18)
(-0.0127794 -0.00683934 -1.2403e-18)
(-0.019198 -0.00822363 0)
(-0.020666 -0.0100842 0)
(-0.0158863 -0.0133401 -1.19354e-18)
(-0.00440065 -0.0181075 0)
(0.0151212 -0.0243506 0)
(0.0414211 -0.0297362 7.5619e-19)
(0.0719197 -0.0321225 0)
(0.101596 -0.0299733 4.69628e-19)
(0.125795 -0.0239849 8.33926e-19)
(0.141435 -0.0162248 0)
(0.148487 -0.00923606 0)
(0.149141 -0.00457589 0)
(0.146594 -0.00302657 0)
(0.14388 -0.005707 0)
(0.141751 -0.0131546 8.05963e-19)
(0.135996 -0.0232987 8.13951e-19)
(0.120067 -0.0277951 8.50256e-19)
(0.0872169 -0.0171105 0)
(0.0322112 0.00422167 -1.06664e-18)
(-0.0541129 0.0246802 0)
(-0.153738 0.0470745 4.47562e-19)
(-0.265019 0.0719664 3.14701e-19)
(-0.387264 0.0945057 0)
(-0.518891 0.102375 0)
(-0.655873 0.104378 0)
(-0.78832 0.107208 1.55024e-19)
(-0.917691 0.108561 0)
(-1.04096 0.10775 0)
(-1.15822 0.1004 0)
(-1.2674 0.0916052 0)
(-1.36767 0.0851984 0)
(-1.46044 0.0758474 0)
(-1.54519 0.0676999 0)
(-1.62301 0.0627994 0)
(-1.69511 0.0572536 -8.98075e-20)
(-1.76169 0.0524216 0)
(-1.82346 0.0482571 0)
(-1.881 0.0445562 8.32203e-20)
(-1.93484 0.0413337 8.14997e-20)
(-1.98538 0.0384844 0)
(-2.03303 0.0359574 -7.85171e-20)
(-2.07807 0.0336994 7.7202e-20)
(-2.12076 0.0316527 0)
(-2.1613 0.029793 -7.48253e-20)
(-2.19985 0.0280702 0)
(-2.23656 0.026476 0)
(-2.27151 0.024973 7.17079e-20)
(-2.3048 0.0235617 0)
(-2.33649 0.0222114 -6.98264e-20)
(-2.36664 0.0209263 0)
(-2.39529 0.0196847 6.80454e-20)
(-2.42251 0.0184918 6.71807e-20)
(-2.4483 0.0173322 6.63282e-20)
(-2.4727 0.0162074 1.30967e-19)
(-2.49575 0.0151086 -1.29288e-19)
(-2.51745 0.0140336 0)
(-2.53784 0.0129812 0)
(-2.55694 0.0119519 0)
(-2.57476 0.0109378 -1.22614e-19)
(-2.59129 0.00995874 -1.20945e-19)
(-2.60651 0.00899527 1.19268e-19)
(-2.62045 0.00804798 0)
(-2.63309 0.00710063 -1.15881e-19)
(-2.64443 0.00614822 -1.14167e-19)
(-2.65444 0.0051746 -1.12439e-19)
(-2.66309 0.00417383 0)
(-2.67036 0.00313576 0)
(-2.6762 0.00207379 0)
(-2.68057 0.00102818 -1.05366e-19)
(-2.68343 0.000100142 0)
(-2.68481 -0.00060971 0)
(-2.68516 -0.00118643 9.9773e-20)
(-2.68439 -0.00172698 0)
(-2.68259 -0.00225513 0)
(-2.67975 -0.00276161 9.38502e-20)
(-2.67591 -0.00327062 0)
(-2.67106 -0.00376122 0)
(-2.66519 -0.00425406 -8.76149e-20)
(-2.6583 -0.00473024 -8.54702e-20)
(-2.65037 -0.00520803 0)
(-2.64139 -0.00567346 8.10847e-20)
(-2.63135 -0.00614058 0)
(-2.62025 -0.00660161 -7.65747e-20)
(-2.60806 -0.00706482 0)
(-2.59479 -0.00752953 -7.19382e-20)
(-2.5804 -0.00799714 -6.95675e-20)
(-2.56487 -0.00847048 0)
(-2.54816 -0.00894642 0)
(-2.53028 -0.00943606 0)
(-2.51123 -0.00993714 0)
(-2.49104 -0.0104595 0)
(-2.46965 -0.0109827 0)
(-2.44703 -0.0115231 0)
(-2.42315 -0.0120503 -4.89202e-20)
(-2.398 -0.0125965 4.60647e-20)
(-2.37156 -0.0131306 0)
(-2.34385 -0.0136888 0)
(-2.31486 -0.0142371 0)
(-2.2846 -0.0148117 0)
(-2.25308 -0.0153624 6.08019e-20)
(-2.2203 -0.0159207 0)
(-2.18629 -0.0164501 -4.66846e-20)
(-2.15107 -0.0169681 3.92258e-20)
(-2.11467 -0.01741 0)
(-2.07714 -0.0177222 0)
(-2.03855 -0.0178058 0)
(-1.99898 -0.0176774 -6.36763e-21)
(-1.95841 -0.0178164 2.6633e-21)
(-1.91674 -0.0182873 0)
(-1.87406 -0.0187083 2.18346e-20)
(-1.83045 -0.0191072 3.20054e-20)
(-1.78597 -0.0194765 -4.25897e-20)
(-1.74069 -0.0198233 0)
(-1.69462 -0.0201444 0)
(-1.6478 -0.0204419 -7.70072e-20)
(-1.60028 -0.0207154 0)
(-1.55209 -0.0209676 0)
(-1.5033 -0.0211913 0)
(-1.4539 -0.0214016 0)
(-1.40397 -0.0215882 1.44563e-19)
(-1.35352 -0.0217626 1.59824e-19)
(-1.30262 -0.0219162 0)
(-1.25127 -0.0220601 1.92431e-19)
(-1.19954 -0.0221859 0)
(-1.14743 -0.0223065 0)
(-1.09501 -0.022415 2.47222e-19)
(-1.04227 -0.0225228 0)
(-0.989266 -0.0226372 2.88346e-19)
(-0.935986 -0.0227531 0)
(-0.882446 -0.0228823 0)
(-0.828648 -0.0230234 3.58698e-19)
(-0.774591 -0.0231813 0)
(-0.720272 -0.0233549 4.12783e-19)
(-0.665689 -0.0235472 0)
(-0.610846 -0.0237576 0)
(-0.55574 -0.02399 0)
(-0.500373 -0.0242459 -5.44763e-19)
(-0.44474 -0.0245291 0)
(-0.388837 -0.0248402 6.27051e-19)
(-0.332661 -0.0251799 0)
(-0.276225 -0.0255442 0)
(-0.219556 -0.0259427 0)
(-0.162725 -0.0263544 0)
(-0.105889 -0.0267113 0)
(-0.0494351 -0.0268562 0)
(0.00651652 -0.0262409 0)
(0.0586201 -0.0243384 -2.0345e-18)
(0.11608 -0.0212707 0)
(0.132261 -0.00903604 0)
(-0.000526098 0.0207912 2.99546e-18)
(-0.00665265 0.0376464 -3.3179e-18)
(-0.0145492 0.0387179 0)
(-0.0166803 0.0297687 2.26798e-18)
(-0.0046164 0.00855264 0)
(0.024242 -0.0283359 7.65029e-19)
(0.0627816 -0.0704694 -9.40908e-19)
(0.107277 -0.105489 -6.62796e-19)
(0.153869 -0.127634 0)
(0.198894 -0.136189 -4.26372e-19)
(0.239974 -0.133637 -1.85676e-19)
(0.276105 -0.123377 0)
(0.306919 -0.108378 0)
(0.332401 -0.0907891 0)
(0.352748 -0.0720165 0)
(0.368246 -0.0528981 -1.42517e-19)
(0.379276 -0.0338316 0)
(0.386032 -0.0149871 2.89446e-19)
(0.389382 0.00367302 0)
(0.389409 0.0220592 0)
(0.385785 0.0398669 -3.00197e-19)
(0.378004 0.0566357 0)
(0.365477 0.0716533 3.19448e-19)
(0.347644 0.0839343 -1.66996e-19)
(0.324169 0.0923364 1.77373e-19)
(0.295114 0.0956789 -1.91824e-19)
(0.261163 0.0930809 -2.12222e-19)
(0.223761 0.0843785 0)
(0.185126 0.0704625 0)
(0.148178 0.0531277 3.38962e-19)
(0.11616 0.0342031 -4.13487e-19)
(0.0924176 0.0148172 0)
(0.0793652 -0.00500606 0)
(0.0781669 -0.025003 5.80167e-19)
(0.0882127 -0.0446518 0)
(0.106784 -0.0634402 0)
(0.128733 -0.0760524 -3.32315e-19)
(0.147548 -0.0763736 0)
(0.159107 -0.0647761 2.54503e-19)
(0.162304 -0.0459618 -5.02053e-19)
(0.157348 -0.0257745 0)
(0.145236 -0.0106803 0)
(0.126394 -0.00201721 -1.24535e-18)
(0.0979471 0.00406269 -1.38221e-18)
(0.0527537 0.0138445 -1.66004e-18)
(-0.0204665 0.0368562 7.53107e-19)
(-0.128908 0.075679 -4.78811e-19)
(-0.255193 0.119397 -9.48375e-19)
(-0.389303 0.16322 4.54585e-19)
(-0.529817 0.202432 1.75751e-19)
(-0.675113 0.233329 0)
(-0.819563 0.255823 -1.21536e-19)
(-0.960542 0.270058 1.06984e-19)
(-1.09389 0.276542 0)
(-1.21832 0.275204 0)
(-1.33126 0.266331 0)
(-1.43327 0.252615 -7.63233e-20)
(-1.52377 0.235858 0)
(-1.60396 0.21792 1.39411e-19)
(-1.67537 0.199535 0)
(-1.7387 0.181697 1.30615e-19)
(-1.79555 0.165252 0)
(-1.84736 0.150159 -1.24415e-19)
(-1.89451 0.136604 0)
(-1.93812 0.12476 1.19195e-19)
(-1.97855 0.114319 -5.85642e-20)
(-2.01647 0.105202 0)
(-2.0523 0.0972434 -1.1314e-19)
(-2.08626 0.0902824 -5.57097e-20)
(-2.11859 0.0841503 -5.4914e-20)
(-2.14943 0.0787188 0)
(-2.17889 0.0738507 -5.33682e-20)
(-2.20707 0.0694594 -5.27431e-20)
(-2.23403 0.0654413 0)
(-2.25981 0.0617464 5.14252e-20)
(-2.28445 0.0582987 -1.01497e-19)
(-2.30798 0.0550736 0)
(-2.33043 0.0520189 -4.95676e-20)
(-2.35179 0.0491247 0)
(-2.3721 0.0463516 1.4505e-19)
(-2.39135 0.0436981 0)
(-2.40956 0.0411366 -1.41543e-19)
(-2.42673 0.0386676 -4.66211e-20)
(-2.44286 0.0362708 4.59774e-20)
(-2.45795 0.0339417 9.07958e-20)
(-2.47202 0.0316652 -8.96308e-20)
(-2.48506 0.0294333 0)
(-2.49709 0.0272432 0)
(-2.50815 0.0250898 0)
(-2.51823 0.02298 2.54685e-19)
(-2.52734 0.0209253 8.36731e-20)
(-2.53545 0.0189188 -8.24299e-20)
(-2.54257 0.0169621 0)
(-2.5487 0.0150378 -7.99342e-20)
(-2.55387 0.0131529 7.86049e-20)
(-2.55807 0.0112932 7.72968e-20)
(-2.56135 0.00946556 0)
(-2.56374 0.0076517 0)
(-2.5653 0.0058578 0)
(-2.56609 0.00408622 7.18937e-20)
(-2.56622 0.00239819 0)
(-2.56569 0.000853383 -1.38192e-19)
(-2.56413 -0.000590883 -2.02816e-19)
(-2.56156 -0.00199235 1.32286e-19)
(-2.55797 -0.00337425 0)
(-2.55337 -0.00473012 6.32008e-20)
(-2.54778 -0.00608431 0)
(-2.54117 -0.00741553 1.19973e-19)
(-2.53356 -0.00874382 -5.85141e-20)
(-2.52494 -0.0100477 -5.69162e-20)
(-2.51529 -0.0113465 0)
(-2.5046 -0.012623 -1.60509e-19)
(-2.49287 -0.0138933 1.03795e-19)
(-2.48007 -0.0151447 5.0102e-20)
(-2.46621 -0.0163889 0)
(-2.45126 -0.0176193 4.67337e-20)
(-2.43521 -0.0188405 1.3538e-19)
(-2.41802 -0.0200456 0)
(-2.39966 -0.0212425 8.34476e-20)
(-2.38013 -0.0224418 7.99414e-20)
(-2.35945 -0.023652 7.63984e-20)
(-2.33762 -0.0248777 0)
(-2.31461 -0.0260924 0)
(-2.29039 -0.027301 0)
(-2.26491 -0.0284668 -3.10964e-20)
(-2.23816 -0.0296208 -2.87741e-20)
(-2.21015 -0.0307311 0)
(-2.18088 -0.0318354 -5.01608e-20)
(-2.15034 -0.0328957 -4.61252e-20)
(-2.11855 -0.0339484 0)
(-2.08552 -0.0349522 -3.72173e-20)
(-2.05126 -0.0359424 -6.68515e-20)
(-2.01579 -0.0368823 2.83758e-20)
(-1.97912 -0.037804 2.50214e-20)
(-1.94129 -0.038681 0)
(-1.90231 -0.0395491 0)
(-1.86217 -0.0403957 0)
(-1.82089 -0.0412471 4.09349e-21)
(-1.7785 -0.0420525 -2.82741e-22)
(-1.73514 -0.0427836 1.16133e-20)
(-1.69085 -0.0434249 -1.20688e-20)
(-1.64566 -0.0440054 1.61633e-20)
(-1.59963 -0.0445189 2.35098e-20)
(-1.5528 -0.044981 0)
(-1.5052 -0.0453818 0)
(-1.45688 -0.0457328 -4.0003e-20)
(-1.40788 -0.0460238 0)
(-1.35824 -0.0462736 0)
(-1.308 -0.0464649 1.20376e-19)
(-1.25719 -0.0466205 0)
(-1.20587 -0.0467274 7.2855e-20)
(-1.15404 -0.0468014 -8.15866e-20)
(-1.10178 -0.0468328 0)
(-1.04907 -0.0468333 9.4117e-20)
(-0.995985 -0.0467949 0)
(-0.942525 -0.0467298 0)
(-0.888757 -0.0466377 -1.18411e-19)
(-0.834666 -0.0465224 2.50476e-19)
(-0.780298 -0.0464001 -1.34044e-19)
(-0.725651 -0.0462671 0)
(-0.670735 -0.0461359 0)
(-0.61555 -0.0460075 1.56693e-19)
(-0.560091 -0.0458878 0)
(-0.504354 -0.0457742 1.73771e-19)
(-0.448334 -0.045669 0)
(-0.392029 -0.0455688 0)
(-0.335437 -0.045477 0)
(-0.278555 -0.0453934 2.11949e-19)
(-0.221377 -0.045322 0)
(-0.163899 -0.0452616 -2.31316e-19)
(-0.106116 -0.0452109 0)
(-0.0480362 -0.045155 0)
(0.0103206 -0.0450632 5.15765e-19)
(0.0688991 -0.044886 -5.20543e-19)
(0.127581 -0.0445608 0)
(0.186082 -0.0439488 0)
(0.244326 -0.0426985 0)
(0.300032 -0.0403697 1.58682e-18)
(0.358336 -0.0361669 0)
(0.394846 -0.0236064 -1.09616e-18)
(0.000152927 0.0237986 3.44736e-22)
(0.000236389 0.0428757 4.66512e-18)
(0.00462073 0.0363915 0)
(0.0229316 0.00449765 -3.36652e-18)
(0.0609986 -0.0542967 0)
(0.111662 -0.121051 0)
(0.164542 -0.175432 -3.59349e-22)
(0.212539 -0.207874 3.75261e-19)
(0.252658 -0.218544 3.21101e-19)
(0.284664 -0.212381 2.86033e-19)
(0.309654 -0.195184 0)
(0.329057 -0.171801 0)
(0.344103 -0.14558 -2.37053e-19)
(0.355669 -0.118535 -4.6034e-19)
(0.364331 -0.0917595 4.5281e-19)
(0.370475 -0.0657814 0)
(0.374371 -0.0408043 4.53556e-19)
(0.37621 -0.0168968 -2.30036e-19)
(0.376213 0.00596704 0)
(0.374719 0.0279176 4.70844e-19)
(0.371989 0.0491375 2.38815e-19)
(0.368214 0.0696207 -4.91746e-19)
(0.363379 0.0890839 -2.54736e-19)
(0.357124 0.106876 0)
(0.348792 0.121965 5.60818e-19)
(0.337479 0.132965 5.92798e-19)
(0.322283 0.138347 0)
(0.302664 0.136759 6.80527e-19)
(0.278925 0.12749 0)
(0.252445 0.110677 8.2764e-19)
(0.225713 0.0873021 4.68124e-19)
(0.201755 0.0587423 0)
(0.183548 0.0265444 0)
(0.172193 -0.00802757 0)
(0.167913 -0.0429321 0)
(0.165865 -0.0711002 0)
(0.157993 -0.0814767 0)
(0.140652 -0.0710898 7.96204e-19)
(0.115547 -0.0470566 -1.17944e-18)
(0.0827518 -0.0162328 0)
(0.0422421 0.0174736 0)
(-0.0115594 0.0494526 0)
(-0.0911922 0.0829872 6.43032e-22)
(-0.193148 0.127698 6.0636e-19)
(-0.312998 0.180561 9.03245e-19)
(-0.446168 0.235935 -7.02168e-19)
(-0.58623 0.290022 -2.83681e-19)
(-0.7264 0.338024 2.37112e-19)
(-0.861431 0.377045 4.9097e-22)
(-0.987631 0.406671 1.81455e-19)
(-1.10205 0.425318 0)
(-1.20373 0.432891 1.4979e-19)
(-1.29201 0.430191 1.191e-21)
(-1.36727 0.418535 0)
(-1.43134 0.399314 0)
(-1.48644 0.374811 -1.17596e-19)
(-1.53493 0.347636 0)
(-1.57838 0.319629 0)
(-1.61819 0.292197 1.05288e-19)
(-1.65552 0.266022 2.02669e-19)
(-1.69121 0.241789 -9.78971e-20)
(-1.72573 0.220028 0)
(-1.75938 0.200621 9.32701e-20)
(-1.79234 0.183562 0)
(-1.82454 0.16879 8.96351e-20)
(-1.85595 0.155887 8.7608e-20)
(-1.88658 0.144603 -1.72085e-19)
(-1.91641 0.134698 -8.45144e-20)
(-1.94542 0.12594 0)
(-1.97359 0.118127 1.63397e-19)
(-2.00089 0.111092 0)
(-2.02732 0.10469 2.37578e-19)
(-2.05286 0.098809 1.55981e-19)
(-2.07749 0.0933493 1.53702e-19)
(-2.10123 0.0882403 -1.51497e-19)
(-2.12404 0.083416 2.241e-19)
(-2.14594 0.0788353 0)
(-2.16692 0.0744558 0)
(-2.18695 0.0702536 -1.43195e-19)
(-2.20606 0.0662009 -2.1187e-19)
(-2.22422 0.0622844 0)
(-2.24143 0.0584864 6.86967e-20)
(-2.2577 0.0547989 0)
(-2.27302 0.051209 -2.00163e-19)
(-2.28738 0.0477079 -7.85228e-23)
(-2.30079 0.0442849 6.76898e-23)
(-2.31325 0.0409313 1.27602e-19)
(-2.32477 0.0376409 0)
(-2.33537 0.0344099 -1.23698e-19)
(-2.34506 0.0312443 -2.27042e-23)
(-2.35382 0.0281505 0)
(-2.36164 0.0251291 0)
(-2.36853 0.022172 0)
(-2.37448 0.0192755 1.13735e-19)
(-2.37951 0.0164368 0)
(-2.38362 0.0136594 0)
(-2.38683 0.0109482 0)
(-2.38914 0.00831157 0)
(-2.39058 0.00576106 0)
(-2.39114 0.00330472 1.01246e-19)
(-2.39079 0.000940753 0)
(-2.38948 -0.00137337 9.67078e-20)
(-2.38717 -0.00365634 9.44438e-20)
(-2.38386 -0.00590689 -9.21568e-20)
(-2.37957 -0.00812405 0)
(-2.37431 -0.0103188 -8.75167e-20)
(-2.36807 -0.0124898 0)
(-2.36086 -0.0146385 -8.28006e-20)
(-2.35266 -0.016763 8.04175e-20)
(-2.34348 -0.0188629 2.34412e-19)
(-2.3333 -0.02094 0)
(-2.32211 -0.0229943 2.19936e-19)
(-2.30991 -0.0250302 7.11411e-20)
(-2.29668 -0.0270469 0)
(-2.2824 -0.0290504 1.32139e-19)
(-2.26707 -0.0310384 1.27237e-19)
(-2.25064 -0.0330125 -1.83258e-19)
(-2.2331 -0.0349657 0)
(-2.21441 -0.0369096 -5.59703e-20)
(-2.19459 -0.0388547 -5.34646e-20)
(-2.17363 -0.0408143 -1.53349e-19)
(-2.15154 -0.0427838 0)
(-2.12828 -0.0447478 0)
(-2.10381 -0.0466856 0)
(-2.07811 -0.0485844 -4.13066e-20)
(-2.05116 -0.0504443 0)
(-2.02296 -0.0522612 0)
(-1.99351 -0.0540407 3.27197e-20)
(-1.96281 -0.055774 2.99848e-20)
(-1.93088 -0.0574654 0)
(-1.89771 -0.0590998 0)
(-1.86333 -0.060681 4.29992e-20)
(-1.82775 -0.0621944 0)
(-1.791 -0.0636451 -3.11553e-20)
(-1.75309 -0.0650172 -2.59941e-20)
(-1.71405 -0.0663152 0)
(-1.67389 -0.0675331 0)
(-1.63265 -0.0686934 7.0649e-21)
(-1.59038 -0.0698028 -1.06383e-21)
(-1.54717 -0.0708465 -1.0895e-21)
(-1.50305 -0.0717855 0)
(-1.45807 -0.0726275 -4.07208e-20)
(-1.41227 -0.073366 0)
(-1.36569 -0.0740129 0)
(-1.31837 -0.0745629 0)
(-1.27035 -0.0750256 4.95065e-20)
(-1.22168 -0.0753951 0)
(-1.17239 -0.0756877 -1.2621e-19)
(-1.12254 -0.0758957 -7.18546e-20)
(-1.07214 -0.0760343 0)
(-1.02125 -0.0761033 -8.71012e-20)
(-0.969881 -0.0761104 0)
(-0.918075 -0.0760572 0)
(-0.865861 -0.075946 -3.28615e-19)
(-0.813265 -0.0757798 2.33986e-19)
(-0.76032 -0.0755618 0)
(-0.707048 -0.0753047 2.65608e-19)
(-0.653472 -0.0750075 -1.4199e-19)
(-0.59961 -0.0746932 0)
(-0.54547 -0.0743612 0)
(-0.491056 -0.0740264 0)
(-0.436369 -0.0736917 -5.19683e-19)
(-0.381403 -0.0733652 0)
(-0.32615 -0.0730431 -1.90213e-19)
(-0.270605 -0.0727275 0)
(-0.214765 -0.0724128 0)
(-0.158624 -0.0721027 0)
(-0.102181 -0.0717956 0)
(-0.0454273 -0.0714972 0)
(0.011644 -0.071204 0)
(0.0690396 -0.070912 -4.81896e-19)
(0.126756 -0.0706003 0)
(0.184772 -0.0702279 -2.4923e-19)
(0.243031 -0.0697265 7.55162e-19)
(0.301446 -0.0690063 0)
(0.359791 -0.0678937 0)
(0.41806 -0.0660866 -5.21748e-19)
(0.474676 -0.0630684 -5.30966e-19)
(0.53359 -0.0578583 5.38e-19)
(0.579866 -0.0450116 5.54239e-19)
(-0.00126894 0.0239687 -6.00003e-18)
(0.00114622 0.0309916 -7.31609e-18)
(0.0207156 -0.00712218 -3.35557e-18)
(0.0666528 -0.0884816 -8.98713e-19)
(0.126998 -0.17783 0)
(0.185409 -0.245233 8.06901e-19)
(0.23199 -0.280175 -3.2544e-19)
(0.264838 -0.286475 0)
(0.2864 -0.273299 -2.50277e-19)
(0.300235 -0.249189 0)
(0.309315 -0.219954 4.34699e-19)
(0.315568 -0.188889 0)
(0.320054 -0.157678 2.00403e-19)
(0.323269 -0.127101 3.93117e-19)
(0.325399 -0.0975027 -3.89981e-19)
(0.326489 -0.0690362 0)
(0.326547 -0.0417614 -3.95898e-19)
(0.325577 -0.0157078 0)
(0.323622 0.00910829 0)
(0.32078 0.032717 -4.13461e-19)
(0.31717 0.0551868 0)
(0.313007 0.0765488 -7.50377e-22)
(0.308522 0.0967532 0)
(0.30385 0.115548 0)
(0.298951 0.1324 6.39559e-22)
(0.29352 0.146395 -5.22269e-19)
(0.286972 0.156191 -5.59662e-19)
(0.278498 0.160087 -6.01346e-19)
(0.267385 0.156393 0)
(0.253325 0.143761 -1.424e-18)
(0.236763 0.12163 0)
(0.218875 0.0906133 -8.92037e-19)
(0.201248 0.0526578 0)
(0.184803 0.0108672 0)
(0.165136 -0.0264263 1.03666e-18)
(0.134836 -0.044491 0)
(0.0922462 -0.0373247 -8.07852e-19)
(0.0397561 -0.0101909 -8.72298e-22)
(-0.023313 0.0304679 1.51817e-18)
(-0.101612 0.0807789 -1.24157e-18)
(-0.19525 0.139065 0)
(-0.303433 0.20169 0)
(-0.424471 0.264958 -3.22371e-19)
(-0.552606 0.327858 0)
(-0.682224 0.38862 -2.25326e-19)
(-0.807987 0.442187 1.9537e-19)
(-0.924886 0.484577 1.72936e-19)
(-1.02914 0.515366 0)
(-1.11981 0.534241 -1.41472e-19)
(-1.19627 0.541674 -1.30308e-19)
(-1.25905 0.538536 2.44252e-19)
(-1.31003 0.526144 -1.13548e-19)
(-1.35127 0.506325 -1.07088e-19)
(-1.38529 0.481002 0)
(-1.41453 0.451945 0)
(-1.44112 0.420916 9.28483e-20)