/*--------------------------------*- C++ -*----------------------------------*\
  =========                 |
  \\      /  F ield         | OpenFOAM: The Open Source CFD Toolbox
   \\    /   O peration     | Website:  https://openfoam.org
    \\  /    A nd           | Version:  13
     \\/     M anipulation  |
\*---------------------------------------------------------------------------*/
FoamFile
{
    format      ascii;
    class       volScalarField;
    location    "400";
    object      k;
}
// * * * * * * * * * * * * * * * * * * * * * * * * * * * * * * * * * * * * * //

dimensions      [0 2 -2 0 0 0 0];

internalField   nonuniform List<scalar> 
12225
(
0.6878
1.3185
1.62807
1.53533
2.35654
2.01397
1.78088
1.6285
1.55428
1.45806
1.58902
1.36837
1.41166
1.6917
1.45954
1.36598
1.31677
1.4
0.401287
0.42871
0.491115
0.515696
0.56182
0.566116
0.5711
0.58821
0.619765
0.621355
0.636176
0.621769
0.658125
0.666386
0.675707
0.662616
0.657469
0.641995
0.379356
0.377018
0.379046
0.374841
0.343582
0.295353
0.220394
0.173865
0.134842
0.136331
0.139973
0.128694
0.100615
0.102407
0.0885943
0.0741571
0.0829911
0.0759116
0.375548
0.373042
0.368445
0.3634
0.347315
0.296464
0.225039
0.157876
0.102611
0.0636856
0.0381797
0.0239974
0.0146701
0.00986104
0.00672271
0.00498217
0.00367264
0.0034
0.374322
0.372209
0.368665
0.363977
0.354659
0.318957
0.261234
0.197916
0.14044
0.0944138
0.0601233
0.0377008
0.0241092
0.0161285
0.0119276
0.00934271
0.00837893
0.0074265
0.373902
0.371977
0.369042
0.365363
0.358849
0.339438
0.304857
0.266833
0.223914
0.182411
0.143123
0.110398
0.085221
0.0660408
0.0539478
0.0455294
0.0420182
0.0401961
0.373812
0.371788
0.369295
0.366406
0.361904
0.350567
0.332002
0.311554
0.289995
0.266534
0.244261
0.220201
0.198354
0.178115
0.162344
0.150062
0.14325
0.139345
0.373817
0.371662
0.369425
0.367166
0.36377
0.357463
0.347804
0.33751
0.32585
0.314928
0.302534
0.290013
0.277594
0.266735
0.256682
0.248206
0.243361
0.237134
0.373848
0.371562
0.369458
0.367444
0.364811
0.361276
0.355862
0.350574
0.343803
0.337693
0.33079
0.324565
0.317858
0.312194
0.307274
0.302199
0.299517
0.29447
0.373867
0.37152
0.369445
0.367463
0.365299
0.362932
0.359641
0.35639
0.352396
0.348649
0.344732
0.341136
0.337687
0.334362
0.33199
0.32927
0.327469
0.325163
0.37386
0.37153
0.369428
0.367424
0.365449
0.363489
0.361219
0.358916
0.356335
0.35378
0.351231
0.348824
0.346646
0.344566
0.342896
0.341265
0.339997
0.338586
0.373847
0.371545
0.369418
0.367394
0.365464
0.363612
0.361705
0.359799
0.357816
0.355836
0.353898
0.352036
0.350336
0.34873
0.347334
0.346007
0.344889
0.343722
0.373836
0.371554
0.369413
0.367378
0.365453
0.363623
0.361847
0.360115
0.358406
0.356726
0.355102
0.353537
0.352073
0.350687
0.349421
0.348219
0.347136
0.346068
0.37383
0.371555
0.369407
0.367368
0.365438
0.363605
0.361861
0.36019
0.358587
0.35704
0.355559
0.354137
0.352791
0.351509
0.350305
0.349158
0.348084
0.34705
0.373827
0.371553
0.369401
0.367359
0.365424
0.363587
0.361844
0.360184
0.358604
0.357095
0.355658
0.354284
0.352977
0.351731
0.350546
0.349416
0.348341
0.347315
0.373826
0.371551
0.369396
0.367352
0.365413
0.363573
0.361825
0.360165
0.358584
0.357081
0.355647
0.354284
0.352981
0.351743
0.350558
0.349432
0.348353
0.347326
0.373825
0.37155
0.369392
0.367346
0.365405
0.363562
0.361811
0.360147
0.358565
0.357058
0.355624
0.354258
0.352955
0.351713
0.350529
0.349398
0.34832
0.347289
0.373825
0.371549
0.36939
0.367343
0.3654
0.363555
0.361802
0.360136
0.358552
0.357043
0.355607
0.354238
0.352934
0.35169
0.350504
0.349371
0.348291
0.347259
0.373825
0.371549
0.36939
0.367342
0.365398
0.363552
0.361799
0.360132
0.358546
0.357037
0.3556
0.35423
0.352925
0.35168
0.350493
0.349359
0.348278
0.347245
0.373826
0.37155
0.369392
0.367344
0.365402
0.363556
0.361805
0.360137
0.358554
0.357044
0.355608
0.354238
0.352932
0.351684
0.350493
0.349353
0.348264
0.347223
0.373826
0.371552
0.369395
0.36735
0.365408
0.363567
0.361814
0.360152
0.358568
0.357065
0.355626
0.354253
0.352927
0.351654
0.350419
0.349234
0.348086
0.34699
0.373826
0.371556
0.3694
0.367358
0.365419
0.36358
0.361831
0.360175
0.358602
0.3571
0.355641
0.354212
0.352775
0.351343
0.349899
0.348478
0.347071
0.345704
0.373825
0.371565
0.369403
0.367371
0.365424
0.363609
0.361856
0.360218
0.358665
0.357129
0.355554
0.353859
0.351992
0.349966
0.347795
0.345542
0.343284
0.34104
0.373834
0.371572
0.369392
0.367363
0.365425
0.363653
0.361908
0.360293
0.358737
0.357043
0.355174
0.352826
0.349997
0.346613
0.342823
0.338651
0.334405
0.329956
0.373895
0.371521
0.369278
0.367263
0.365367
0.363706
0.362008
0.360451
0.358789
0.356893
0.35439
0.350911
0.346224
0.340231
0.333192
0.32518
0.31669
0.30802
0.374134
0.371011
0.368676
0.366652
0.36498
0.363789
0.362324
0.360844
0.359051
0.356912
0.353527
0.348281
0.340668
0.330543
0.318114
0.303429
0.288226
0.272305
0.374404
0.368516
0.366497
0.363342
0.363585
0.364093
0.363327
0.362287
0.360238
0.357814
0.353306
0.345855
0.335191
0.320065
0.301082
0.278117
0.255523
0.23101
0.369991
0.361385
0.363309
0.35977
0.360443
0.368004
0.367582
0.369945
0.370432
0.368891
0.364521
0.359124
0.352992
0.340793
0.324867
0.304174
0.290798
0.268635
0.376084
0.368734
0.391339
0.426873
0.461743
0.485784
0.504991
0.518638
0.531068
0.541949
0.553845
0.565698
0.580522
0.593381
0.610297
0.621041
0.635423
0.642575
0.92974
1.24361
1.44375
1.5485
1.59617
1.59329
1.57747
1.55083
1.51374
1.47609
1.43982
1.40599
1.37514
1.34734
1.32224
1.29996
1.2796
1.26139
1.67375e-08
4.1647e-07
2.12562e-06
8.34897e-06
2.78647e-05
8.53528e-05
0.000222567
0.000442362
0.000717283
0.00100949
0.00127002
0.00147419
0.00160647
0.00165387
0.00163109
0.00155726
0.00142467
0.00120283
0.00101777
0.00086106
0.000713514
0.000570918
0.000435522
0.00030974
0.000200076
0.000116836
6.24709e-05
3.20331e-05
1.66501e-05
9.28626e-06
5.79528e-06
4.37973e-06
5.68977e-06
7.97923e-06
5.26405e-05
0.000126893
0.000378695
0.000755636
0.0010686
0.00107171
0.000966434
0.000757179
0.000623656
0.000623605
0.000697662
0.000972047
0.00136278
0.00278621
0.00651176
0.0207472
0.0544485
0.0960245
0.126813
0.140193
0.146571
0.147992
0.137389
0.17934
0.175682
0.159716
0.155217
0.165918
0.178837
0.160209
0.175654
0.182777
0.191288
0.19909
0.207076
0.214689
0.222326
0.229759
0.237169
0.244423
0.251656
0.258756
0.265827
0.272787
0.279705
0.286526
0.293293
0.29997
0.306584
0.313106
0.31956
0.325918
0.332198
0.338374
0.344461
0.350435
0.356303
0.362053
0.367682
0.373176
0.378526
0.383719
0.388746
0.393601
0.398288
0.402833
0.407295
0.411631
0.415833
0.419908
0.423859
0.427676
0.431363
0.434911
0.438324
0.441591
0.444722
0.447703
0.450547
0.453238
0.455791
0.45819
0.460451
0.462558
0.464525
0.466341
0.468014
0.46954
0.470923
0.472159
0.473245
0.474174
0.474931
0.475498
0.475831
0.475896
0.475689
0.476416
0.47595
0.475528
0.475279
0.474941
0.474579
0.474302
0.473948
0.473568
0.472241
0.471446
0.470228
0.468883
0.467357
0.465669
0.463846
0.461902
0.459825
0.457658
0.455312
0.452912
0.450306
0.447681
0.444827
0.441999
0.43892
0.435914
0.432641
0.429476
0.426035
0.4227
0.419149
0.415627
0.412017
0.408371
0.404681
0.400966
0.397227
0.393484
0.389739
0.386002
0.382266
0.378517
0.374721
0.3708
0.366622
0.36186
0.355738
0.33791
8.68435e-08
2.46201e-06
1.65217e-05
6.99332e-05
0.000249438
0.000717102
0.00164325
0.00295874
0.00449951
0.00609597
0.0075578
0.00876644
0.00965444
0.0102183
0.0104924
0.0104517
0.0102788
0.00991327
0.00932584
0.00851051
0.00749311
0.00630956
0.00504947
0.00375547
0.0025843
0.00169764
0.00107319
0.000663773
0.000403894
0.000250313
0.00016493
0.00012105
0.000116025
7.0941e-05
0.000642296
0.00140046
0.00395533
0.00731674
0.0100171
0.0110922
0.0108947
0.0102091
0.010137
0.0115098
0.015367
0.0210739
0.0313759
0.0487691
0.0742073
0.0990116
0.124682
0.144963
0.16007
0.172177
0.184773
0.200144
0.214818
0.2312
0.247331
0.264214
0.282638
0.301033
0.319253
0.337509
0.356261
0.374645
0.39276
0.410616
0.42834
0.445835
0.463228
0.480473
0.497634
0.514697
0.531694
0.548618
0.565487
0.582292
0.599041
0.615725
0.632347
0.648896
0.665373
0.681763
0.698068
0.714272
0.730371
0.746347
0.762194
0.777892
0.793435
0.808811
0.824006
0.839001
0.853775
0.868304
0.882557
0.896505
0.910109
0.923331
0.936138
0.948677
0.960999
0.973063
0.984885
0.996444
1.00773
1.01874
1.02946
1.03988
1.05
1.05981
1.0693
1.07847
1.08731
1.09583
1.10401
1.11186
1.11938
1.12655
1.13339
1.13989
1.14605
1.15187
1.15736
1.1625
1.1673
1.17175
1.17584
1.17957
1.18295
1.18606
1.18869
1.19098
1.1929
1.19436
1.19499
1.19727
1.19757
1.19928
1.19923
1.19952
1.20029
1.1997
1.19947
1.19828
1.19681
1.19495
1.19272
1.19011
1.18715
1.18376
1.18002
1.17585
1.17134
1.16641
1.16115
1.15549
1.14954
1.14319
1.13657
1.12959
1.12235
1.1148
1.10698
1.09892
1.0906
1.08207
1.07333
1.06443
1.05537
1.04618
1.03685
1.02736
1.01766
1.00765
0.9971
0.985724
0.971455
0.940958
2.19555e-07
6.60933e-06
5.01081e-05
0.000233067
0.000719021
0.00190147
0.00386555
0.00616981
0.00849447
0.0106084
0.0123766
0.0137384
0.0146906
0.0152601
0.0155163
0.0154754
0.0152985
0.0149081
0.0143693
0.0136959
0.0128871
0.0119327
0.0108122
0.00955418
0.00811577
0.00652393
0.00492301
0.00352625
0.00233154
0.00156132
0.00108315
0.000825928
0.000721739
0.000687296
0.00293188
0.00697132
0.0151733
0.0226272
0.0278614
0.0306364
0.0314595
0.0338586
0.0415311
0.0569971
0.0736519
0.091328
0.111476
0.132319
0.151772
0.172655
0.193043
0.213585
0.235094
0.258557
0.284277
0.310677
0.337767
0.36661
0.393995
0.421434
0.448624
0.475316
0.501399
0.527016
0.552045
0.576622
0.600743
0.624519
0.647994
0.671218
0.694242
0.717096
0.739813
0.762409
0.784905
0.807307
0.829624
0.851854
0.874
0.896055
0.918018
0.939879
0.961632
0.983267
1.00478
1.02615
1.04737
1.06844
1.08933
1.11002
1.13052
1.1508
1.17086
1.19068
1.21024
1.22953
1.24855
1.26727
1.2857
1.30383
1.32167
1.33921
1.35643
1.37332
1.38986
1.40604
1.42183
1.43723
1.45222
1.46679
1.48092
1.49462
1.50787
1.52067
1.533
1.54487
1.55627
1.56719
1.57764
1.58761
1.5971
1.60612
1.61466
1.62273
1.63032
1.63743
1.64407
1.65023
1.65591
1.66111
1.66586
1.67015
1.67395
1.67728
1.68017
1.68258
1.68453
1.68642
1.68735
1.68818
1.68823
1.68788
1.68746
1.68628
1.68478
1.68262
1.67995
1.67675
1.67303
1.66876
1.66398
1.65861
1.65274
1.64628
1.63932
1.63177
1.62376
1.61517
1.60617
1.59664
1.58672
1.57633
1.56557
1.55442
1.54291
1.53107
1.51891
1.50646
1.49376
1.48084
1.46773
1.45447
1.44106
1.4275
1.41378
1.39983
1.38551
1.37064
1.35318
1.32437
7.54779e-07
2.25814e-05
0.000176698
0.000765798
0.0021266
0.00504835
0.00854321
0.0119742
0.0149664
0.0173448
0.0190663
0.0201751
0.0207656
0.0208996
0.0207727
0.0204337
0.0198803
0.0192063
0.0184441
0.0176121
0.0167116
0.0157392
0.0146797
0.0135146
0.0122187
0.0107789
0.00923093
0.00764345
0.00617405
0.00477152
0.00371814
0.00286851
0.00308856
0.00535748
0.0133064
0.0277259
0.0405912
0.0504568
0.0579082
0.065237
0.0749978
0.0878578
0.102814
0.117629
0.13314
0.150263
0.170062
0.190982
0.213907
0.238907
0.265377
0.293667
0.323577
0.354938
0.387156
0.419689
0.452397
0.484961
0.517003
0.548631
0.579765
0.610348
0.640332
0.669825
0.698807
0.727373
0.755569
0.783466
0.811115
0.838563
0.865849
0.893003
0.920051
0.947008
0.973887
1.00069
1.02743
1.05409
1.08068
1.10717
1.13358
1.15987
1.18605
1.21211
1.23802
1.26378
1.28937
1.31478
1.33999
1.36499
1.38976
1.4143
1.43858
1.46261
1.48635
1.50981
1.53297
1.55582
1.57835
1.60055
1.6224
1.64389
1.66498
1.68566
1.7059
1.7257
1.74503
1.76386
1.78219
1.79999
1.81725
1.83397
1.85013
1.86571
1.88072
1.89514
1.90898
1.92221
1.93485
1.94689
1.95832
1.96916
1.97939
1.98903
1.99808
2.00652
2.01437
2.02162
2.02828
2.03435
2.03984
2.04475
2.04908
2.05283
2.05603
2.05864
2.0607
2.06227
2.06298
2.06311
2.06253
2.06165
2.06024
2.05815
2.05547
2.05213
2.04815
2.04352
2.03825
2.03233
2.02577
2.01853
2.01067
2.00212
1.99296
1.98312
1.9727
1.96164
1.95004
1.93785
1.92518
1.91197
1.89833
1.88422
1.86972
1.85483
1.83958
1.824
1.80814
1.79203
1.77573
1.75927
1.74271
1.72606
1.70933
1.69254
1.67557
1.65833
1.63911
1.61205
2.50316e-06
7.51555e-05
0.000566273
0.0021488
0.00596117
0.0112097
0.0161475
0.0201342
0.0229979
0.0248192
0.025783
0.0260863
0.0259558
0.025551
0.0248679
0.0240495
0.0231493
0.0222104
0.0212544
0.0202947
0.019326
0.0183419
0.0173259
0.0162552
0.015103
0.0138291
0.0124401
0.0110006
0.00960004
0.00817323
0.0069028
0.00753817
0.0121514
0.0255189
0.045186
0.0632598
0.0777168
0.0888597
0.098556
0.10859
0.119582
0.131669
0.144811
0.160088
0.178399
0.199475
0.22327
0.249505
0.277881
0.308021
0.33957
0.37237
0.406082
0.440426
0.475067
0.509807
0.544571
0.579169
0.613506
0.64754
0.681232
0.714551
0.747474
0.780046
0.812282
0.844228
0.875926
0.907421
0.938753
0.969957
1.00107
1.0321
1.06308
1.09402
1.12492
1.15578
1.1866
1.21737
1.24808
1.27872
1.30928
1.33973
1.37006
1.40027
1.43032
1.46021
1.48992
1.51944
1.54873
1.5778
1.60662
1.63518
1.66346
1.69146
1.71914
1.74651
1.77355
1.80023
1.82655
1.85247
1.87799
1.90307
1.92769
1.95183
1.97547
1.99857
2.02113
2.0431
2.06447
2.08523
2.10535
2.12481
2.14361
2.16173
2.17916
2.19589
2.21191
2.22722
2.24181
2.25568
2.26882
2.28125
2.29295
2.30393
2.3142
2.32374
2.33257
2.34068
2.34808
2.35477
2.36077
2.36607
2.37068
2.3746
2.37783
2.38038
2.38224
2.3833
2.38351
2.383
2.38193
2.38025
2.37789
2.37479
2.37098
2.36643
2.36114
2.35511
2.34834
2.34082
2.33256
2.32356
2.31383
2.30335
2.29215
2.28021
2.2676
2.25429
2.24035
2.22578
2.21064
2.19493
2.17871
2.16199
2.14482
2.12723
2.10924
2.0909
2.07225
2.05335
2.03425
2.01502
1.99572
1.97639
1.95707
1.93782
1.91858
1.89931
1.87859
1.85208
7.84665e-06
0.000230318
0.00165312
0.00588583
0.0135022
0.020319
0.025245
0.0283362
0.029997
0.0306576
0.0306203
0.0302437
0.0294644
0.0284806
0.0273837
0.0262417
0.0250974
0.0239833
0.022912
0.021889
0.0209036
0.0199442
0.0189866
0.0180021
0.0169699
0.0158286
0.0145236
0.0130276
0.0119197
0.0119393
0.014351
0.0231604
0.0417807
0.064967
0.0860535
0.102575
0.114403
0.123282
0.131459
0.140401
0.150846
0.164265
0.180877
0.200649
0.223755
0.249748
0.278103
0.308275
0.339835
0.372504
0.406048
0.440323
0.475166
0.510443
0.546021
0.581813
0.617758
0.653755
0.689736
0.725637
0.761416
0.797044
0.832498
0.867786
0.902914
0.937905
0.972784
1.00758
1.04232
1.07703
1.11173
1.14644
1.18116
1.21591
1.25068
1.28546
1.32024
1.35501
1.38976
1.42445
1.45907
1.4936
1.52801
1.5623
1.59643
1.63039
1.66415
1.69771
1.73104
1.76411
1.79691
1.82943
1.86164
1.89353
1.92508
1.95628
1.98709
2.01751
2.04751
2.07706
2.10614
2.13472
2.16278
2.1903
2.21723
2.24356
2.26926
2.29429
2.31863
2.34226
2.36515
2.38729
2.40866
2.42923
2.44901
2.46797
2.4861
2.5034
2.51985
2.53547
2.55023
2.56415
2.57722
2.58945
2.60083
2.61137
2.62107
2.62993
2.63796
2.64516
2.65154
2.65712
2.66188
2.66584
2.66899
2.67135
2.67282
2.67336
2.67299
2.67195
2.67017
2.66763
2.66431
2.66017
2.65522
2.64944
2.64284
2.63542
2.62716
2.61808
2.60818
2.59746
2.58593
2.57359
2.56045
2.54652
2.53183
2.5164
2.50027
2.48346
2.46601
2.44795
2.42932
2.41016
2.3905
2.37039
2.34985
2.32894
2.30771
2.28621
2.26453
2.24272
2.22087
2.19905
2.17732
2.15575
2.13436
2.1131
2.0908
2.06389
2.47512e-05
0.000682567
0.0044668
0.0139165
0.0232635
0.0293806
0.0328355
0.0345336
0.0350842
0.0349115
0.0342527
0.0331669
0.0318623
0.0304499
0.0290093
0.0276028
0.0262665
0.0250242
0.0238784
0.0228251
0.0218462
0.0209178
0.0199994
0.01903
0.0179615
0.0168162
0.0158599
0.0157195
0.0175579
0.0242434
0.0385661
0.0602309
0.0835863
0.1047
0.120989
0.132097
0.13987
0.146738
0.154534
0.165325
0.179561
0.19731
0.218574
0.243004
0.270147
0.299303
0.329914
0.361605
0.394166
0.427473
0.461436
0.495998
0.531107
0.566713
0.602769
0.639228
0.676036
0.713119
0.75042
0.787882
0.825456
0.863105
0.900799
0.938526
0.976282
1.01407
1.0519
1.0898
1.12776
1.16582
1.20398
1.24226
1.28064
1.31913
1.35773
1.3964
1.43513
1.4739
1.51268
1.55144
1.59015
1.62878
1.66731
1.7057
1.74394
1.782
1.81985
1.85748
1.89486
1.93196
1.96876
2.00525
2.04141
2.0772
2.11262
2.14764
2.18224
2.21638
2.25006
2.28323
2.31588
2.34797
2.37947
2.41036
2.4406
2.47015
2.49899
2.52708
2.5544
2.5809
2.60657
2.63138
2.6553
2.67832
2.70043
2.7216
2.74182
2.76108
2.77938
2.7967
2.81305
2.82842
2.84281
2.85623
2.86868
2.88016
2.89066
2.90021
2.90879
2.91642
2.92312
2.92888
2.93371
2.93762
2.94061
2.94267
2.94368
2.9437
2.94278
2.94107
2.93849
2.93505
2.93073
2.9255
2.91938
2.91236
2.90443
2.8956
2.88586
2.87523
2.8637
2.85128
2.83799
2.82382
2.80879
2.79291
2.77622
2.75873
2.74048
2.72151
2.70185
2.68153
2.66059
2.63909
2.61705
2.59452
2.57155
2.54817
2.52447
2.50049
2.47632
2.45205
2.42775
2.40352
2.37944
2.35561
2.33205
2.30877
2.2847
2.25672
7.36154e-05
0.00186704
0.0105556
0.0237596
0.0321103
0.0366214
0.0387978
0.0395181
0.0393133
0.0384793
0.0371265
0.0354979
0.0337295
0.0319352
0.0301959
0.0285715
0.0270909
0.0257668
0.0245909
0.0235533
0.0226406
0.0218543
0.0211709
0.0206623
0.0205372
0.0211193
0.0231175
0.028021
0.0383956
0.0560973
0.0772371
0.098558
0.11764
0.132561
0.142809
0.149951
0.156516
0.164909
0.17637
0.191445
0.210159
0.232226
0.257226
0.284554
0.313605
0.343848
0.374969
0.406816
0.439326
0.47248
0.506269
0.5407
0.575773
0.611487
0.64782
0.684738
0.722201
0.76016
0.798563
0.837358
0.876496
0.915934
0.95564
0.995589
1.03577
1.07617
1.11679
1.15764
1.19872
1.24004
1.2816
1.32339
1.36541
1.40765
1.45008
1.49268
1.53541
1.57824
1.62113
1.66403
1.70691
1.74972
1.79244
1.83503
1.87746
1.91969
1.96171
2.00347
2.04497
2.08616
2.12702
2.16753
2.20767
2.24742
2.28674
2.32561
2.36402
2.40193
2.43931
2.47613
2.51237
2.548
2.58296
2.61725
2.65081
2.68361
2.71561
2.74678
2.77708
2.80647
2.83492
2.8624
2.88889
2.91436
2.93879
2.96216
2.98446
3.00567
3.02578
3.04478
3.06268
3.07946
3.09514
3.10971
3.12317
3.13553
3.14678
3.15695
3.16602
3.17401
3.18094
3.18682
3.19164
3.19542
3.19817
3.19982
3.20034
3.19978
3.19826
3.19579
3.19235
3.18795
3.18258
3.17622
3.16889
3.16058
3.1513
3.14104
3.12981
3.11761
3.10445
3.09034
3.07529
3.05932
3.04242
3.02462
3.00595
2.98645
2.96614
2.94506
2.92325
2.90075
2.87758
2.85381
2.82947
2.80461
2.77927
2.75352
2.72741
2.70103
2.67446
2.64777
2.62109
2.59449
2.56809
2.54198
2.51623
2.49084
2.46483
2.43525
0.000190655
0.00441002
0.0196076
0.0326655
0.0395581
0.0428964
0.0441756
0.0441358
0.0432742
0.0417302
0.0398007
0.0376652
0.0354695
0.0333357
0.0313493
0.0295706
0.0280264
0.0267249
0.0256513
0.0247783
0.0240745
0.0235893
0.0233894
0.0239309
0.0259642
0.0306229
0.0396073
0.0534831
0.0709682
0.0897579
0.108289
0.124738
0.137895
0.147676
0.155278
0.16277
0.172101
0.184452
0.200291
0.21955
0.241876
0.266764
0.293669
0.32204
0.351438
0.381584
0.412363
0.443753
0.475773
0.508458
0.541847
0.575979
0.610883
0.646569
0.683033
0.720261
0.75823
0.796901
0.836234
0.876182
0.9167
0.957749
0.999291
1.0413
1.08375
1.12664
1.16995
1.21367
1.2578
1.30234
1.34728
1.39261
1.4383
1.48434
1.53068
1.57728
1.62411
1.67109
1.71819
1.76535
1.8125
1.85961
1.90663
1.95352
2.00023
2.04674
2.09301
2.139
2.18468
2.23003
2.27501
2.3196
2.36378
2.40751
2.45077
2.49354
2.53578
2.57747
2.61857
2.65907
2.69891
2.73807
2.77651
2.81419
2.85107
2.88711
2.92227
2.9565
2.98977
3.02203
3.05325
3.08339
3.11241
3.1403
3.16702
3.19256
3.21689
3.23999
3.26187
3.2825
3.30189
3.32003
3.33693
3.35258
3.36698
3.38015
3.39207
3.40277
3.41225
3.42053
3.4276
3.4335
3.43822
3.44177
3.44418
3.44533
3.4453
3.44412
3.44187
3.43855
3.43417
3.42874
3.42225
3.4147
3.4061
3.39646
3.38577
3.37405
3.36129
3.3475
3.3327
3.31689
3.30009
3.2823
3.26355
3.24385
3.22324
3.20176
3.17943
3.15631
3.13241
3.10778
3.08245
3.05648
3.02991
3.00279
2.97517
2.94711
2.91867
2.88995
2.86103
2.832
2.80297
2.77404
2.74533
2.71695
2.68896
2.6614
2.63335
2.60215
0.000424109
0.00893335
0.0288966
0.0406941
0.0463405
0.0488054
0.0493831
0.0487364
0.0472073
0.0450963
0.0426422
0.0400501
0.03749
0.0351007
0.0329795
0.0311926
0.0297817
0.0287613
0.0281364
0.0279672
0.0283122
0.0294233
0.031681
0.0358827
0.0432005
0.0536972
0.0670029
0.0823109
0.0984709
0.114073
0.128024
0.139725
0.149323
0.15771
0.166391
0.176851
0.190106
0.206506
0.225945
0.248062
0.272384
0.298432
0.325759
0.354003
0.382923
0.412418
0.44248
0.473152
0.504494
0.536574
0.569459
0.6032
0.637834
0.67339
0.709884
0.747315
0.785673
0.824935
0.865069
0.906042
0.947815
0.990353
1.03362
1.07759
1.12224
1.16755
1.2135
1.26008
1.30727
1.35506
1.40343
1.45235
1.5018
1.55173
1.60208
1.65281
1.70384
1.75511
1.80655
1.85808
1.90964
1.96116
2.01259
2.06388
2.11499
2.16586
2.21646
2.26675
2.3167
2.36626
2.41541
2.46412
2.51236
2.5601
2.60731
2.65397
2.70004
2.7455
2.79031
2.83445
2.87786
2.92053
2.96239
3.00342
3.04357
3.08279
3.12104
3.15828
3.19446
3.22952
3.26343
3.29615
3.32763
3.35786
3.38679
3.41441
3.44068
3.4656
3.48915
3.51131
3.53209
3.55148
3.56948
3.5861
3.60134
3.6152
3.62769
3.63881
3.64858
3.65701
3.66412
3.66992
3.67441
3.67763
3.67955
3.68014
3.67945
3.67753
3.67443
3.67016
3.66474
3.65817
3.65048
3.64166
3.63172
3.62067
3.60852
3.59528
3.58095
3.56554
3.54906
3.53153
3.51296
3.49336
3.47275
3.45117
3.42865
3.40522
3.38093
3.3558
3.32988
3.30319
3.27578
3.24769
3.21897
3.18966
3.15982
3.12952
3.09884
3.06785
3.03665
3.00533
2.97401
2.94278
2.91178
2.88111
2.85087
2.82109
2.79094
2.75808
0.000809175
0.0155087
0.0371695
0.0479347
0.0528556
0.0547425
0.0547895
0.0535929
0.0515421
0.0489468
0.0460724
0.043155
0.0403937
0.0379486
0.0359364
0.0344303
0.0335373
0.0332384
0.0335285
0.0347104
0.0371066
0.0411548
0.0472671
0.055605
0.0658098
0.0777329
0.0908215
0.104292
0.117318
0.129272
0.139923
0.149462
0.15861
0.168442
0.180005
0.194006
0.210711
0.230007
0.251564
0.274989
0.29989
0.325918
0.352785
0.380297
0.408353
0.436946
0.466124
0.495961
0.526544
0.557959
0.590277
0.623563
0.657871
0.693243
0.729707
0.767279
0.805962
0.845749
0.886623
0.928562
0.971538
1.01552
1.06049
1.10641
1.15326
1.20101
1.24965
1.29915
1.34947
1.40061
1.45252
1.50518
1.55851
1.61247
1.66697
1.72196
1.77734
1.83303
1.88894
1.94497
2.00104
2.05708
2.11302
2.16881
2.22439
2.2797
2.3347
2.38934
2.44358
2.49738
2.5507
2.60352
2.65581
2.70753
2.75866
2.80916
2.85901
2.90816
2.9566
3.00428
3.05118
3.09724
3.14242
3.18667
3.22996
3.27223
3.31344
3.35354
3.39247
3.43019
3.46664
3.50178
3.53558
3.56798
3.59897
3.62851
3.65657
3.68313
3.70818
3.7317
3.7537
3.77417
3.79312
3.81054
3.82644
3.84083
3.85371
3.86509
3.87498
3.88341
3.89039
3.89593
3.90004
3.90275
3.90405
3.90395
3.90246
3.89965
3.89555
3.8902
3.88361
3.8758
3.86678
3.85658
3.84521
3.83267
3.81898
3.80415
3.7882
3.77112
3.75294
3.73366
3.7133
3.69188
3.66943
3.64598
3.62158
3.59625
3.57004
3.54298
3.51511
3.48645
3.45704
3.42692
3.39614
3.36473
3.33278
3.30033
3.26749
3.23432
3.20093
3.16741
3.13386
3.10041
3.06715
3.03423
3.00174
2.96974
2.93745
2.90279
0.0013098
0.0225565
0.0447599
0.0550132
0.0595061
0.0609656
0.060625
0.0590178
0.0565759
0.0536545
0.050565
0.0475803
0.0449331
0.0428186
0.0414248
0.0408531
0.0409507
0.0419998
0.0441036
0.0474476
0.0522108
0.0585267
0.0663857
0.0756244
0.0859296
0.0969236
0.108135
0.119142
0.129665
0.139628
0.149259
0.159113
0.169924
0.182361
0.196876
0.213623
0.232492
0.25323
0.275525
0.299077
0.32362
0.348944
0.374893
0.401386
0.428405
0.455994
0.484226
0.513199
0.543007
0.573741
0.605488
0.638323
0.672311
0.707508
0.743955
0.781683
0.820711
0.861047
0.902691
0.945638
0.989873
1.03538
1.08212
1.13009
1.17925
1.22958
1.28105
1.33362
1.38726
1.44193
1.49758
1.55415
1.61158
1.66976
1.72861
1.78802
1.8479
1.90815
1.96865
2.02928
2.08995
2.15058
2.21109
2.27141
2.33149
2.39126
2.45067
2.50964
2.56814
2.62612
2.68355
2.7404
2.79664
2.85223
2.90716
2.96137
3.01483
3.06752
3.11941
3.17046
3.22064
3.26989
3.31817
3.36543
3.41162
3.4567
3.50062
3.54333
3.58477
3.62488
3.66362
3.70094
3.73678
3.77111
3.8039
3.8351
3.86469
3.89265
3.91894
3.94357
3.96653
3.98783
4.00746
4.02544
4.04176
4.05643
4.06946
4.08086
4.09065
4.09885
4.10547
4.11054
4.11407
4.11608
4.11658
4.1156
4.11311
4.10921
4.10395
4.09735
4.08943
4.08024
4.06977
4.05806
4.04513
4.03099
4.01567
3.99918
3.98153
3.96274
3.94282
3.92178
3.89962
3.87638
3.8521
3.82682
3.80058
3.77342
3.74537
3.71646
3.68673
3.6562
3.62491
3.59288
3.56015
3.52677
3.49281
3.45835
3.42347
3.38826
3.3528
3.31718
3.28152
3.24592
3.2105
3.17539
3.14069
3.1065
3.0721
3.03563
0.00190245
0.0291291
0.052077
0.0622338
0.0664704
0.0676491
0.0670091
0.0650996
0.0624211
0.0593891
0.0563736
0.0536736
0.0515346
0.0502528
0.0498203
0.0502022
0.051633
0.0541325
0.0577348
0.0624834
0.0684013
0.0754303
0.0834176
0.0921609
0.101411
0.110935
0.120548
0.130143
0.139747
0.149584
0.160045
0.171591
0.184611
0.199353
0.215881
0.234107
0.25384
0.274854
0.296928
0.319874
0.343541
0.367822
0.392656
0.418032
0.443982
0.470577
0.497906
0.52607
0.555173
0.585313
0.616584
0.649072
0.682856
0.718005
0.754572
0.7926
0.832122
0.873166
0.91575
0.959882
1.00556
1.05278
1.10153
1.15178
1.20352
1.25671
1.31131
1.36728
1.42456
1.48309
1.5428
1.60361
1.66542
1.72808
1.79148
1.85548
1.91998
1.98485
2.04997
2.11522
2.18048
2.24566
2.31069
2.3755
2.44002
2.50417
2.56788
2.63107
2.69368
2.75567
2.81701
2.87768
2.93765
2.99689
3.05537
3.11303
3.16984
3.22578
3.28082
3.33492
3.38805
3.44015
3.49118
3.54109
3.58983
3.63734
3.68359
3.72853
3.77209
3.81421
3.85485
3.89394
3.93145
3.96732
4.00153
4.03402
4.06478
4.09376
4.12094
4.14631
4.16988
4.19166
4.21164
4.22982
4.24622
4.26084
4.2737
4.2848
4.29417
4.30184
4.30783
4.31216
4.31483
4.31588
4.31536
4.31324
4.3095
4.3043
4.29766
4.28961
4.28019
4.26942
4.25734
4.24397
4.22935
4.21349
4.19642
4.17817
4.15876
4.1382
4.11651
4.09369
4.06973
4.04469
4.01862
3.99156
3.96355
3.93464
3.90484
3.8742
3.84273
3.81047
3.77742
3.74363
3.70911
3.67391
3.63811
3.6018
3.56506
3.52796
3.4906
3.45305
3.41543
3.37782
3.34035
3.30316
3.26636
3.23007
3.19362
3.15542
0.00271432
0.0348486
0.0592018
0.0695247
0.0736655
0.0746735
0.0737843
0.0716423
0.0688566
0.0659113
0.0632465
0.0611414
0.0598756
0.0594505
0.0598426
0.0613112
0.063773
0.0671953
0.0715569
0.0768289
0.0829407
0.0897949
0.0972737
0.105264
0.113666
0.122408
0.131479
0.140965
0.151035
0.161932
0.173911
0.187183
0.201854
0.217938
0.235355
0.253976
0.273641
0.294202
0.31553
0.337527
0.360125
0.383296
0.407041
0.431393
0.456413
0.482188
0.508816
0.536401
0.565043
0.594844
0.625905
0.658322
0.692184
0.72757
0.764551
0.80319
0.843539
0.885644
0.929543
0.97526
1.02281
1.0722
1.12342
1.17645
1.23128
1.28785
1.34613
1.40603
1.46748
1.53037
1.59459
1.66001
1.7265
1.79389
1.86199
1.93065
1.99975
2.06915
2.13876
2.20845
2.27811
2.34764
2.41697
2.48604
2.55477
2.62306
2.69081
2.75793
2.82431
2.88995
2.95483
3.01895
3.08226
3.14473
3.20633
3.26699
3.3267
3.38542
3.44313
3.49978
3.55535
3.60978
3.66304
3.71506
3.76579
3.8152
3.86323
3.90984
3.95496
3.99855
4.04053
4.08086
4.11949
4.15637
4.19147
4.22474
4.25616
4.28569
4.31329
4.33897
4.36272
4.38453
4.40442
4.42239
4.43843
4.45258
4.46482
4.4752
4.48374
4.49046
4.49542
4.49862
4.5001
4.49989
4.49804
4.49441
4.48918
4.48242
4.47414
4.46441
4.45325
4.44071
4.42682
4.41163
4.39515
4.37743
4.3585
4.3384
4.31714
4.29476
4.27127
4.24669
4.22094
4.19413
4.16633
4.13758
4.10791
4.07735
4.04593
4.01368
3.98062
3.94678
3.91218
3.87681
3.84068
3.80386
3.76645
3.7285
3.69011
3.65135
3.6123
3.57303
3.53363
3.4942
3.45486
3.41576
3.37701
3.33878
3.30042
3.26065
0.00358775
0.0410404
0.0664119
0.0768873
0.0809427
0.0818035
0.0806402
0.0781868
0.0752835
0.0726002
0.0705258
0.0693104
0.0688467
0.069065
0.0703258
0.0725274
0.0755929
0.0794651
0.0840962
0.0894406
0.0954439
0.10206
0.109247
0.116973
0.125226
0.134043
0.1435
0.15371
0.164804
0.176915
0.190126
0.204476
0.219947
0.236477
0.253975
0.272342
0.291483
0.311322
0.331803
0.352901
0.374607
0.39694
0.419939
0.443669
0.468201
0.493608
0.519994
0.547463
0.576126
0.606094
0.637476
0.670375
0.704897
0.741135
0.779177
0.819103
0.860984
0.904885
0.950859
0.998948
1.04918
1.10156
1.15608
1.21271
1.27142
1.33217
1.39487
1.45942
1.52568
1.59349
1.66266
1.733
1.80432
1.87645
1.94919
2.02234
2.09572
2.16919
2.24276
2.3164
2.38998
2.46337
2.53653
2.60938
2.6818
2.75369
2.82492
2.89538
2.96497
3.03371
3.10159
3.16858
3.23463
3.29971
3.36378
3.4268
3.48871
3.54951
3.60916
3.66765
3.72493
3.78096
3.83571
3.8891
3.9411
3.99166
4.04074
4.0883
4.13427
4.17861
4.22124
4.26212
4.30118
4.33839
4.37372
4.40712
4.43855
4.468
4.49545
4.52087
4.54423
4.56553
4.58477
4.60196
4.61711
4.63022
4.64133
4.65045
4.65763
4.66291
4.66633
4.66794
4.66778
4.66596
4.66224
4.65681
4.64972
4.64104
4.63081
4.61909
4.60591
4.59133
4.57539
4.55813
4.53961
4.51985
4.49891
4.47681
4.4536
4.42931
4.40396
4.37757
4.35009
4.32161
4.29219
4.26186
4.23065
4.19858
4.16569
4.13201
4.09754
4.06233
4.02638
3.98968
3.95218
3.91401
3.87524
3.83594
3.79617
3.75601
3.71553
3.6748
3.63389
3.59288
3.55192
3.51115
3.47068
3.4307
3.39062
3.34955
0.00454096
0.0472907
0.0736305
0.0842248
0.0881674
0.0888076
0.0872647
0.0845966
0.081864
0.0796744
0.078361
0.0778439
0.0778287
0.0787875
0.0806445
0.0833213
0.0867505
0.090879
0.0956768
0.101121
0.107196
0.113897
0.121227
0.129212
0.13789
0.147319
0.157559
0.168673
0.180709
0.193696
0.207645
0.22252
0.238268
0.254835
0.272155
0.290185
0.308886
0.328245
0.348261
0.368951
0.390345
0.412506
0.435527
0.459485
0.484372
0.510273
0.537339
0.565665
0.595366
0.62656
0.659359
0.693876
0.730226
0.76852
0.808859
0.851336
0.896034
0.943013
0.992332
1.04404
1.0982
1.15475
1.21365
1.27488
1.33837
1.40406
1.47184
1.5416
1.61314
1.68624
1.7606
1.83583
1.91175
1.98828
2.06525
2.14245
2.21962
2.29668
2.37376
2.45077
2.52753
2.60399
2.68018
2.75604
2.83133
2.90593
2.97971
3.0526
3.12458
3.1956
3.26559
3.33452
3.40236
3.46905
3.53457
3.59887
3.66192
3.72371
3.78421
3.84344
3.90135
3.9579
4.01306
4.06676
4.11896
4.16964
4.21874
4.26624
4.31207
4.35619
4.39851
4.43899
4.47757
4.51421
4.54888
4.58154
4.61214
4.64066
4.66707
4.69134
4.71346
4.73342
4.75123
4.7669
4.78044
4.79187
4.8012
4.80847
4.81371
4.817
4.81839
4.81795
4.81577
4.81158
4.80562
4.79791
4.78853
4.77753
4.76496
4.75088
4.73535
4.71843
4.70017
4.68062
4.65984
4.63787
4.61477
4.59056
4.56531
4.53904
4.51178
4.48357
4.45445
4.42443
4.39352
4.36175
4.32916
4.29576
4.26157
4.22664