/*--------------------------------*- C++ -*----------------------------------*\
  =========                 |
  \\      /  F ield         | OpenFOAM: The Open Source CFD Toolbox
   \\    /   O peration     | Website:  https://openfoam.org
    \\  /    A nd           | Version:  13
     \\/     M anipulation  |
\*---------------------------------------------------------------------------*/
FoamFile
{
    format      ascii;
    class       volScalarField;
    location    "400";
    object      nut;
}
// * * * * * * * * * * * * * * * * * * * * * * * * * * * * * * * * * * * * * //

dimensions      [0 2 -1 0 0 0 0];

internalField   nonuniform List<scalar> 
12225
(
6.83907e-06
1.33306e-05
1.67652e-05
1.61284e-05
2.52575e-05
2.20697e-05
1.99052e-05
1.85407e-05
1.80248e-05
1.71969e-05
1.90162e-05
1.65904e-05
1.73333e-05
2.10468e-05
1.83794e-05
1.73777e-05
1.68982e-05
1.8122e-05
0.000290557
5.26021e-05
4.47405e-05
3.85222e-05
4.2674e-05
3.4373e-05
3.27712e-05
3.47554e-05
2.99595e-05
2.99869e-05
3.20963e-05
3.29728e-05
3.55298e-05
3.24896e-05
3.32561e-05
3.18885e-05
3.12137e-05
3.10523e-05
0.00135218
0.000300106
0.000185155
0.000123272
8.45283e-05
5.73078e-05
3.65526e-05
2.71837e-05
1.89213e-05
1.78109e-05
1.75483e-05
1.57408e-05
1.21037e-05
1.23786e-05
1.04627e-05
8.77765e-06
9.78813e-06
8.83724e-06
0.00114028
0.000673011
0.000452615
0.000333976
0.000223974
0.000161613
8.30551e-05
4.85241e-05
2.66993e-05
1.42031e-05
8.37442e-06
5.30712e-06
3.04168e-06
2.04708e-06
1.40588e-06
1.04579e-06
7.46389e-07
6.50405e-07
0.000930177
0.000822342
0.000701682
0.000544957
0.000456492
0.000317974
0.000230101
0.000124658
7.94697e-05
4.11285e-05
1.793e-05
1.00602e-05
6.22907e-06
3.79189e-06
2.84327e-06
2.14222e-06
1.80194e-06
1.61069e-06
0.000867361
0.00084716
0.000803567
0.00070291
0.000624336
0.000522909
0.00041708
0.000292097
0.000216424
0.000160754
8.84962e-05
5.50058e-05
3.98743e-05
2.60277e-05
2.04887e-05
1.69615e-05
1.45497e-05
1.33377e-05
0.000855327
0.000848094
0.00083065
0.000787521
0.000730537
0.000677317
0.000570555
0.000483786
0.000347575
0.000257149
0.000201749
0.000172612
0.000143696
0.000111309
9.89305e-05
8.67231e-05
7.44827e-05
7.15395e-05
0.000852105
0.000851654
0.000843741
0.00082721
0.000794964
0.00076647
0.000685761
0.000598845
0.000490371
0.000426307
0.000365712
0.000308671
0.000273032
0.000240199
0.000220274
0.000205215
0.000187885
0.000178729
0.00085135
0.000851274
0.000850266
0.00084468
0.000826435
0.000808962
0.000768842
0.000723473
0.000640083
0.000571952
0.000492964
0.000434562
0.00040419
0.000384408
0.00035621
0.000339356
0.000323242
0.000313955
0.00085183
0.000850115
0.000850654
0.000850157
0.000844157
0.000836372
0.000813959
0.000784421
0.000734958
0.000687417
0.000638842
0.000593476
0.000561261
0.000534477
0.000513124
0.000495108
0.000480088
0.000472046
0.000851754
0.000850374
0.000850143
0.000849459
0.000848342
0.000846874
0.000840536
0.000826372
0.000803963
0.000777049
0.00075178
0.000725949
0.000705382
0.000684955
0.000670596
0.000656225
0.000645893
0.000635098
0.000851676
0.00085052
0.000850032
0.000849164
0.000848274
0.000848405
0.000847482
0.000842542
0.000833496
0.000821447
0.000809159
0.000796685
0.000785885
0.000774825
0.000766699
0.000757723
0.000751959
0.00074371
0.000851569
0.000850678
0.000849888
0.000849097
0.000848316
0.000847916
0.000847434
0.000846185
0.000843113
0.000839498
0.000835893
0.000831522
0.000826634
0.000821748
0.000817802
0.000813564
0.000810365
0.00080721
0.000851537
0.00085069
0.000849865
0.000849089
0.000848324
0.0008477
0.000847097
0.000846478
0.000845527
0.000844288
0.000843054
0.000841598
0.000840153
0.000838604
0.000837421
0.000836031
0.000835219
0.000833971
0.000851538
0.000850676
0.000849862
0.00084908
0.000848341
0.000847641
0.000846989
0.000846362
0.000845739
0.000845088
0.000844444
0.000843776
0.000843139
0.000842491
0.000841922
0.000841337
0.000840866
0.000840348
0.000851538
0.000850673
0.000849855
0.000849075
0.000848335
0.00084763
0.00084696
0.000846323
0.000845713
0.000845129
0.000844565
0.000844024
0.000843504
0.000843004
0.000842528
0.00084207
0.000841638
0.000841221
0.000851537
0.000850673
0.000849852
0.00084907
0.000848328
0.000847621
0.000846948
0.000846306
0.000845695
0.00084511
0.000844552
0.000844017
0.000843508
0.000843018
0.000842551
0.000842102
0.000841674
0.000841261
0.000851539
0.000850677
0.000849857
0.000849077
0.000848335
0.000847628
0.000846955
0.000846312
0.0008457
0.000845114
0.000844555
0.00084402
0.000843509
0.000843018
0.00084255
0.000842101
0.000841672
0.000841259
0.000851537
0.000850673
0.000849851
0.000849068
0.000848324
0.000847615
0.00084694
0.000846295
0.000845681
0.000845093
0.000844533
0.000843996
0.000843483
0.000842991
0.000842519
0.000842066
0.000841631
0.000841214
0.000851539
0.000850671
0.000849856
0.000849066
0.000848327
0.000847614
0.000846942
0.000846296
0.000845682
0.000845099
0.000844538
0.000844009
0.000843477
0.00084297
0.000842443
0.000841939
0.000841415
0.000840918
0.000851548
0.000850659
0.000849906
0.00084903
0.000848383
0.000847588
0.000846982
0.000846288
0.000845726
0.000845146
0.000844626
0.000844096
0.000843439
0.000842709
0.000841768
0.000840829
0.000839594
0.000838297
0.000851527
0.000850675
0.000850017
0.000848861
0.000848607
0.000847411
0.000847128
0.000846239
0.000846
0.000845547
0.000845002
0.000844334
0.000842972
0.000840305
0.000839542
0.000836821
0.000831667
0.00082479
0.000851357
0.000850866
0.000849803
0.000848911
0.000848371
0.000847657
0.000846595
0.000846525
0.000847095
0.000847771
0.000843735
0.000838338
0.000828967
0.000818013
0.000803716
0.000788952
0.000769198
0.000755562
0.000850703
0.000851612
0.000848718
0.000848124
0.000846828
0.000845281
0.000845023
0.000844149
0.000841327
0.000837127
0.000830106
0.000821329
0.000810073
0.000798493
0.000779759
0.000759569
0.000731568
0.000700853
0.00084845
0.000856071
0.000840676
0.000839378
0.000821709
0.000821752
0.000820845
0.000815498
0.000803331
0.000788862
0.000772665
0.000752482
0.000729389
0.000707265
0.000682677
0.000650659
0.000618394
0.000591044
0.000852383
0.000813238
0.000781086
0.000733671
0.000719685
0.00073018
0.000722122
0.00070427
0.000678
0.000652077
0.000620821
0.000590272
0.000555202
0.000524496
0.000490519
0.000454249
0.000421855
0.000390868
0.000740898
0.000536236
0.000521082
0.000457103
0.000460549
0.000474421
0.000460981
0.000436726
0.000407001
0.000380349
0.000354068
0.000325079
0.000297141
0.000268139
0.000240738
0.000212192
0.000186672
0.000164297
0.000415234
0.000177124
0.000177047
0.000160758
0.000165109
0.000173563
0.000165461
0.000156645
0.000146545
0.000137651
0.000128204
0.000119559
0.000110618
0.000101044
9.04623e-05
8.06719e-05
7.32043e-05
6.52337e-05
0.000118564
4.39019e-05
4.35914e-05
4.43744e-05
4.92114e-05
5.16285e-05
5.26913e-05
5.3085e-05
5.36636e-05
5.43303e-05
5.54605e-05
5.6712e-05
5.83364e-05
5.99135e-05
6.16164e-05
6.15802e-05
6.18013e-05
6.14295e-05
1.21504e-05
1.64009e-05
1.92578e-05
2.09224e-05
2.18502e-05
2.20876e-05
2.21336e-05
2.20099e-05
2.17149e-05
2.13865e-05
2.10536e-05
2.0734e-05
2.0438e-05
2.01694e-05
1.99258e-05
1.97122e-05
1.95171e-05
1.93447e-05
1.4601e-12
1.65645e-10
8.44701e-10
3.31491e-09
1.10538e-08
3.3829e-08
8.81338e-08
1.75012e-07
2.83522e-07
3.98659e-07
5.0108e-07
5.81091e-07
6.3264e-07
6.5069e-07
6.41114e-07
6.11505e-07
5.58898e-07
4.71407e-07
3.98485e-07
3.36794e-07
2.78803e-07
2.22858e-07
1.69833e-07
1.2066e-07
7.78592e-08
4.54191e-08
2.42594e-08
1.24262e-08
6.45195e-09
3.59457e-09
2.24082e-09
1.69162e-09
2.19517e-09
3.07503e-09
2.02637e-08
4.87913e-08
1.45445e-07
2.8988e-07
4.09463e-07
4.10174e-07
3.69443e-07
2.89105e-07
2.37836e-07
2.37529e-07
2.65411e-07
3.69339e-07
5.17156e-07
1.056e-06
2.4649e-06
7.84341e-06
2.05576e-05
3.62081e-05
4.77549e-05
5.27238e-05
5.04263e-05
4.57378e-05
3.86404e-05
4.63452e-05
4.23935e-05
3.64446e-05
3.3714e-05
3.44277e-05
3.5643e-05
3.08762e-05
3.28134e-05
3.31731e-05
3.38306e-05
3.43754e-05
3.49703e-05
3.5516e-05
3.60777e-05
3.66169e-05
3.71616e-05
3.76907e-05
3.82246e-05
3.87464e-05
3.92718e-05
3.97887e-05
4.03076e-05
4.08208e-05
4.13351e-05
4.18454e-05
4.23564e-05
4.28645e-05
4.33733e-05
4.38796e-05
4.43865e-05
4.48909e-05
4.53952e-05
4.58971e-05
4.63983e-05
4.68981e-05
4.73966e-05
4.78926e-05
4.83856e-05
4.8875e-05
4.93602e-05
4.98414e-05
5.03203e-05
5.08012e-05
5.12916e-05
5.17844e-05
5.22788e-05
5.27772e-05
5.32806e-05
5.37886e-05
5.43023e-05
5.48212e-05
5.53466e-05
5.58777e-05
5.64163e-05
5.69612e-05
5.75147e-05
5.80754e-05
5.86456e-05
5.92241e-05
5.98132e-05
6.04118e-05
6.10221e-05
6.16434e-05
6.22781e-05
6.29262e-05
6.35895e-05
6.4268e-05
6.49626e-05
6.56734e-05
6.63997e-05
6.71406e-05
6.78913e-05
6.86489e-05
6.94145e-05
7.0368e-05
7.11995e-05
7.20944e-05
7.3077e-05
7.41126e-05
7.52171e-05
7.64122e-05
7.76732e-05
7.77451e-05
7.75223e-05
7.73636e-05
7.71558e-05
7.69298e-05
7.67045e-05
7.64568e-05
7.61983e-05
7.59312e-05
7.56489e-05
7.53677e-05
7.50599e-05
7.47613e-05
7.44289e-05
7.41135e-05
7.37569e-05
7.3426e-05
7.30466e-05
7.27021e-05
7.23027e-05
7.19448e-05
7.15299e-05
7.1153e-05
7.07322e-05
7.0326e-05
6.99057e-05
6.94815e-05
6.90516e-05
6.86175e-05
6.81794e-05
6.77388e-05
6.72959e-05
6.68516e-05
6.64052e-05
6.59555e-05
6.54996e-05
6.5031e-05
6.45369e-05
6.39905e-05
6.33205e-05
6.15995e-05
7.57583e-12
1.23798e-09
1.6707e-08
8.72811e-08
3.64223e-07
1.15461e-06
2.61926e-06
4.7407e-06
7.36796e-06
1.03767e-05
1.34183e-05
1.62586e-05
1.8646e-05
2.04153e-05
2.14619e-05
2.17284e-05
2.14308e-05
2.02596e-05
1.83237e-05
1.50006e-05
1.14713e-05
8.33757e-06
5.82197e-06
3.84847e-06
2.41803e-06
1.48841e-06
9.16564e-07
5.72664e-07
3.60759e-07
2.43914e-07
1.81917e-07
1.60136e-07
1.82085e-07
1.27811e-07
1.31111e-06
3.05854e-06
8.69657e-06
1.57665e-05
2.06496e-05
2.14137e-05
1.99763e-05
1.69993e-05
1.4472e-05
1.40332e-05
1.51044e-05
1.57481e-05
1.91017e-05
2.6459e-05
3.75822e-05
4.8527e-05
6.058e-05
7.09708e-05
7.99921e-05
8.79232e-05
9.71425e-05
0.000108446
0.000118182
0.000133476
0.00014476
0.000158434
0.000168881
0.000182318
0.0001973
0.000204459
0.000217734
0.000228918
0.000240029
0.00025063
0.000260957
0.000270896
0.000280585
0.000290002
0.000299188
0.000308186
0.000316986
0.000325641
0.000334132
0.000342497
0.000350725
0.000358835
0.000366823
0.0003747
0.000382464
0.000390119
0.000397668
0.000405112
0.000412451
0.000419684
0.00042681
0.000433828
0.000440734
0.000447533
0.00045422
0.000460791
0.000467234
0.000473527
0.000479639
0.000485516
0.000491075
0.000496198
0.000500719
0.000505026
0.000509283
0.000513373
0.000517374
0.00052124
0.000524991
0.000528615
0.000532113
0.000535484
0.000538726
0.000541839
0.000544822
0.000547676
0.000550402
0.000552998
0.000555467
0.000557809
0.000560027
0.00056212
0.000564092
0.000565945
0.00056768
0.000569302
0.000570813
0.000572217
0.000573522
0.00057473
0.000575843
0.000576841
0.000577686
0.00057833
0.000578874
0.00057923
0.000579444
0.000579467
0.000579096
0.000579631
0.000579317
0.000580016
0.000580094
0.000580041
0.000580562
0.000580328
0.000580398
0.000580055
0.000579633
0.000579079
0.000578417
0.000577549
0.000576817
0.000575616
0.000574686
0.00057316
0.000572006
0.000570166
0.00056878
0.000566641
0.000565005
0.000562624
0.000560697
0.000558142
0.000555857
0.000553231
0.000550572
0.000547793
0.000544904
0.000541911
0.000538817
0.000535629
0.000532351
0.000528989
0.000525539
0.000521978
0.000518261
0.000514316
0.000509999
0.000505033
0.000498451
0.000481136
1.9153e-11
3.32121e-09
6.26515e-08
3.67758e-07
1.06622e-06
2.80933e-06
5.95568e-06
1.04079e-05
1.5945e-05
2.22416e-05
2.89637e-05
3.55289e-05
4.14364e-05
4.63534e-05
5.01098e-05
5.25466e-05
5.38628e-05
5.4051e-05
5.24193e-05
4.93365e-05
4.49508e-05
3.87165e-05
3.16411e-05
2.46424e-05
1.83128e-05
1.29231e-05
8.74564e-06
5.79911e-06
3.68919e-06
2.49542e-06
1.79156e-06
1.49241e-06
1.47284e-06
1.61672e-06
7.70496e-06
1.84429e-05
3.91398e-05
5.51142e-05
6.19493e-05
5.83763e-05
4.43542e-05
3.67239e-05
3.71884e-05
4.38516e-05
5.10563e-05
6.07549e-05
7.35414e-05
8.57962e-05
9.86137e-05
0.000115674
0.000134086
0.000154847
0.000177666
0.000203075
0.000231536
0.000261078
0.000291043
0.000323371
0.000352564
0.000382074
0.000409347
0.000436442
0.000462151
0.000485806
0.000509586
0.000532294
0.000553887
0.000574857
0.000595128
0.000614817
0.000634012
0.000652759
0.000671116
0.000689131
0.000706823
0.000724236
0.000741373
0.000758263
0.000774906
0.000791319
0.000807502
0.000823463
0.000839202
0.000854723
0.000870027
0.000885113
0.00089998
0.000914624
0.000929041
0.000943223
0.000957165
0.000970859
0.000984294
0.000997451
0.00101031
0.00102282
0.00103497
0.0010467
0.00105796
0.00106874
0.00107912
0.00108927
0.00109919
0.00110883
0.00111823
0.00112736
0.00113622
0.0011448
0.0011531
0.00116112
0.00116885
0.00117629
0.00118345
0.00119032
0.0011969
0.00120319
0.0012092
0.00121493
0.00122038
0.00122556
0.00123047
0.00123512
0.00123951
0.00124365
0.00124755
0.00125121
0.00125464
0.00125783
0.00126077
0.00126346
0.00126586
0.00126798
0.00126989
0.0012715
0.00127289
0.00127403
0.00127493
0.00127601
0.00127667
0.00127737
0.00127774
0.00127771
0.00127795
0.00127764
0.00127731
0.0012766
0.00127563
0.00127439
0.00127288
0.00127105
0.0012691
0.00126661
0.00126412
0.00126096
0.0012579
0.00125407
0.00125046
0.001246
0.00124182
0.0012368
0.00123204
0.00122655
0.00122118
0.00121535
0.00120935
0.00120312
0.00119666
0.00118999
0.00118311
0.00117604
0.0011688
0.0011614
0.00115382
0.00114602
0.00113791
0.00112931
0.00111993
0.00110909
0.00109445
0.00106292
6.58434e-11
1.11215e-08
1.76726e-07
7.91944e-07
2.37296e-06
6.57032e-06
1.30878e-05
2.18982e-05
3.23122e-05
4.32635e-05
5.38275e-05
6.34781e-05
7.17517e-05
7.81601e-05
8.29606e-05
8.60861e-05
8.73619e-05
8.71327e-05
8.55339e-05
8.23676e-05
7.79089e-05
7.19354e-05
6.47994e-05
5.59155e-05
4.62847e-05
3.66796e-05
2.81074e-05
2.10137e-05
1.57112e-05
1.15073e-05
8.91796e-06
7.02051e-06
7.97299e-06
1.36365e-05
3.02039e-05
5.34867e-05
7.05308e-05
7.48416e-05
7.13472e-05
6.84396e-05
6.88336e-05
7.29704e-05
8.10446e-05
9.22593e-05
0.000106347
0.000118187
0.000138066
0.000159914
0.000186321
0.000217992
0.000252448
0.000290756
0.000331468
0.000374534
0.000418751
0.000463075
0.000507095
0.000550223
0.000591472
0.000631381
0.000669529
0.00070623
0.000741328
0.000775343
0.000808029
0.00083966
0.000870232
0.000899995
0.000928984
0.000957314
0.000985061
0.00101229
0.00103904
0.00106537
0.0010913
0.00111686
0.00114207
0.00116692
0.00119145
0.00121564
0.0012395
0.00126304
0.00128625
0.00130914
0.00133169
0.00135392
0.00137581
0.00139735
0.00141855
0.00143938
0.00145984
0.00147992
0.00149961
0.00151888
0.00153771
0.00155609
0.00157399
0.0015914
0.00160832
0.00162477
0.00164082
0.00165652
0.00167184
0.00168677
0.00170131
0.00171544
0.00172916
0.00174246
0.00175533
0.00176776
0.00177976
0.00179132
0.00180244
0.00181311
0.00182336
0.00183316
0.00184253
0.00185148
0.00186
0.0018681
0.0018758
0.00188309
0.00188999
0.0018965
0.00190264
0.0019084
0.00191379
0.00191881
0.00192345
0.00192771
0.00193159
0.00193511
0.00193829
0.0019411
0.00194356
0.00194567
0.00194753
0.00194923
0.00195041
0.00195126
0.0019517
0.00195196
0.00195202
0.00195161
0.00195093
0.00194983
0.00194834
0.00194645
0.00194416
0.00194145
0.00193839
0.0019348
0.0019309
0.00192639
0.00192162
0.00191618
0.00191055
0.00190422
0.00189775
0.00189059
0.00188331
0.00187541
0.00186734
0.00185881
0.00184997
0.00184079
0.00183129
0.00182148
0.00181139
0.00180103
0.00179043
0.0017796
0.00176854
0.00175718
0.0017454
0.001733
0.00171958
0.00170424
0.00168372
0.00164614
2.18364e-10
3.28872e-08
3.9068e-07
1.82272e-06
6.35716e-06
1.54272e-05
2.87625e-05
4.47027e-05
6.13351e-05
7.71267e-05
9.0811e-05
0.000101685
0.000109749
0.000115342
0.000118379
0.00011951
0.000119044
0.000117234
0.000114265
0.000110173
0.000104857
9.86774e-05
9.15905e-05
8.28685e-05
7.28617e-05
6.1801e-05
5.07414e-05
4.08533e-05
3.27632e-05
2.63524e-05
2.10246e-05
2.02812e-05
2.70945e-05
4.62232e-05
6.87154e-05
8.23307e-05
8.87301e-05
9.14526e-05
9.41106e-05
9.94027e-05
0.000108479
0.000122163
0.000134206
0.000147355
0.00016921
0.000197368
0.000229214
0.000267031
0.000309645
0.000356494
0.000405753
0.000457665
0.000510757
0.000564642
0.000618287
0.000671191
0.000723088
0.000773484
0.000822237
0.000869102
0.000914681
0.000958875
0.00100143
0.00104275
0.00108282
0.00112181
0.00115981
0.00119694
0.0012333
0.00126896
0.00130399
0.00133846
0.0013724
0.00140585
0.00143883
0.00147136
0.00150345
0.00153512
0.00156635
0.00159716
0.00162754
0.00165749
0.00168701
0.0017161
0.00174474
0.00177295
0.00180071
0.00182801
0.00185485
0.00188122
0.00190711
0.0019325
0.00195739
0.00198177
0.00200562
0.00202894
0.00205171
0.00207396
0.00209568
0.0021169
0.00213764
0.0021579
0.00217767
0.00219694
0.0022157
0.00223393
0.00225163
0.00226878
0.00228538
0.00230142
0.00231689
0.0023318
0.00234614
0.00235991
0.00237313
0.00238578
0.00239787
0.00240941
0.00242041
0.00243086
0.00244079
0.00245019
0.00245908
0.00246747
0.00247536
0.00248277
0.00248969
0.00249613
0.00250209
0.00250757
0.00251258
0.00251715
0.00252132
0.00252507
0.00252835
0.00253119
0.0025337
0.00253569
0.00253714
0.00253815
0.00253889
0.00253923
0.00253919
0.00253868
0.00253775
0.00253634
0.00253445
0.00253208
0.00252921
0.00252585
0.002522
0.00251759
0.0025127
0.00250721
0.00250124
0.00249466
0.00248763
0.00247998
0.00247193
0.00246327
0.00245424
0.00244466
0.0024347
0.00242427
0.00241344
0.00240219
0.00239055
0.00237854
0.00236617
0.00235349
0.00234051
0.00232723
0.00231366
0.00229975
0.00228539
0.00227036
0.00225428
0.00223621
0.00221268
0.00217454
6.84505e-10
7.99779e-08
9.60523e-07
4.87775e-06
1.61545e-05
3.4379e-05
5.62606e-05
7.86343e-05
9.85472e-05
0.000114179
0.000125759
0.000134466
0.00014004
0.00014325
0.000144523
0.000144167
0.00014241
0.000139449
0.000135458
0.000130466
0.000124473
0.000117849
0.000110317
0.00010157
9.18318e-05
7.67283e-05
6.15174e-05
4.75403e-05
3.75251e-05
3.30465e-05
3.43943e-05
4.62702e-05
6.78869e-05
8.81704e-05
0.000101899
0.000110064
0.000115505
0.000121954
0.000132552
0.000148962
0.000158769
0.000172663
0.000196018
0.000224696
0.000259847
0.000301532
0.000347957
0.000399561
0.000454173
0.00051137
0.000569944
0.000629662
0.000689615
0.0007494
0.000808428
0.000866441
0.000923162
0.000978168
0.0010322
0.00108458
0.00113551
0.00118508
0.00123327
0.00128025
0.0013261
0.00137092
0.00141479
0.00145782
0.00150007
0.00154162
0.00158252
0.00162281
0.00166254
0.00170172
0.00174036
0.00177849
0.00181611
0.00185321
0.00188979
0.00192586
0.00196141
0.00199642
0.00203091
0.00206486
0.00209828
0.00213116
0.00216349
0.00219527
0.00222649
0.00225716
0.00228725
0.00231676
0.00234569
0.00237403
0.00240178
0.00242893
0.00245549
0.00248147
0.00250688
0.00253171
0.00255597
0.00257966
0.00260277
0.00262529
0.0026472
0.00266849
0.00268915
0.00270918
0.00272855
0.00274727
0.00276533
0.00278273
0.00279947
0.00281554
0.00283095
0.00284571
0.00285981
0.00287327
0.00288608
0.00289826
0.0029098
0.00292074
0.00293107
0.0029408
0.00294995
0.00295852
0.00296651
0.00297394
0.0029808
0.00298711
0.00299288
0.00299812
0.00300301
0.00300739
0.00301119
0.0030145
0.00301727
0.00301942
0.003021
0.00302224
0.00302304
0.00302338
0.00302325
0.00302262
0.0030215
0.00301986
0.00301769
0.00301499
0.00301175
0.00300797
0.00300364
0.00299873
0.00299326
0.00298718
0.00298054
0.00297328
0.00296548
0.00295707
0.00294814
0.00293864
0.00292864
0.0029181
0.00290709
0.00289558
0.00288361
0.00287119
0.00285832
0.00284503
0.00283134
0.0028173
0.00280292
0.00278822
0.00277321
0.00275784
0.00274204
0.00272562
0.00270823
0.00268902
0.00266516
0.00262876
2.15918e-09
2.00465e-07
2.51681e-06
1.33295e-05
3.53051e-05
6.33456e-05
9.12636e-05
0.000114716
0.000132704
0.000145783
0.000154834
0.000160144
0.000162698
0.000163298
0.000162449
0.000160446
0.000157453
0.000153573
0.000148773
0.000142993
0.000136352
0.000128819
0.000119979
0.000106139
8.89667e-05
7.34688e-05
5.98271e-05
5.0421e-05
4.88273e-05
5.89809e-05
7.67402e-05
9.90206e-05
0.000115674
0.000128144
0.000137082
0.000145035
0.000156022
0.000172845
0.000181203
0.000194783
0.00021728
0.000245142
0.000280548
0.000322116
0.000370133
0.00042342
0.000480329
0.000540313
0.000601985
0.000664986
0.000728593
0.000792457
0.000856054
0.000919085
0.000981002
0.00104174
0.00110188
0.00116051
0.00121785
0.00127381
0.00132849
0.00138194
0.00143419
0.00148534
0.00153544
0.00158459
0.00163285
0.0016803
0.00172699
0.00177297
0.0018183
0.00186301
0.00190711
0.00195063
0.00199357
0.00203593
0.0020777
0.0021189
0.0021595
0.0021995
0.0022389
0.00227768
0.00231584
0.00235339
0.00239031
0.00242661
0.00246229
0.00249733
0.00253176
0.00256554
0.00259869
0.00263121
0.00266308
0.00269431
0.0027249
0.00275484
0.00278413
0.00281277
0.00284076
0.00286812
0.00289484
0.00292093
0.00294636
0.00297113
0.00299524
0.00301866
0.00304139
0.00306341
0.00308471
0.0031053
0.00312516
0.00314429
0.00316268
0.00318035
0.00319728
0.00321349
0.00322898
0.00324375
0.00325783
0.0032712
0.00328387
0.00329584
0.00330714
0.00331778
0.00332775
0.00333707
0.00334575
0.00335379
0.0033612
0.003368
0.00337418
0.00337986
0.0033851
0.00338979
0.00339384
0.00339732
0.00340012
0.00340231
0.00340396
0.00340519
0.00340596
0.00340624
0.00340602
0.00340527
0.00340401
0.00340221
0.00339987
0.003397
0.00339357
0.00338958
0.00338503
0.00337991
0.00337421
0.00336791
0.00336103
0.00335354
0.00334547
0.00333682
0.00332761
0.00331783
0.00330752
0.00329666
0.00328531
0.00327344
0.00326108
0.00324824
0.00323492
0.00322116
0.00320698
0.00319241
0.00317748
0.00316222
0.00314663
0.00313069
0.00311436
0.00309749
0.00307982
0.00306063
0.00303774
0.00300469
6.42187e-09
5.23513e-07
6.68275e-06
2.86124e-05
6.11877e-05
9.44716e-05
0.000121896
0.000142575
0.000157536
0.000167365
0.000172861
0.000175329
0.000175674
0.000174516
0.000172239
0.000169057
0.000164983
0.0001599
0.000153846
0.000147009
0.000139569
0.000131291
0.000117417
0.000100392
8.6713e-05
7.76497e-05
7.50868e-05
7.82407e-05
8.6027e-05
0.000106794
0.000130923
0.000151318
0.000162258
0.000172098
0.00018351
0.000194343
0.000201406
0.00021421
0.000234215
0.000260176
0.0002937
0.00033341
0.000379949
0.000432114
0.000489201
0.000549736
0.000612515
0.000676943
0.000742264
0.00080814
0.000874132
0.000939943
0.00100506
0.0010693
0.00113315
0.00119592
0.00125764
0.00131815
0.00137749
0.00143565
0.00149267
0.00154859
0.00160345
0.00165731
0.00171023
0.00176226
0.00181346
0.00186389
0.00191359
0.00196262
0.00201099
0.00205875
0.00210589
0.00215242
0.00219835
0.00224365
0.00228834
0.00233238
0.00237578
0.00241851
0.00246056
0.00250193
0.00254262
0.00258262
0.00262193
0.00266056
0.00269849
0.00273575
0.00277232
0.00280822
0.00284344
0.00287799
0.00291185
0.00294505
0.00297756
0.0030094
0.00304056
0.00307101
0.00310079
0.00312991
0.00315836
0.00318614
0.00321324
0.00323965
0.00326535
0.00329033
0.00331458
0.00333809
0.00336085
0.00338284
0.00340407
0.00342451
0.00344418
0.00346306
0.00348117
0.00349849
0.00351504
0.00353081
0.00354582
0.00356006
0.00357354
0.00358628
0.00359828
0.00360955
0.00362011
0.00362996
0.00363911
0.00364757
0.00365536
0.00366248
0.00366894
0.00367491
0.00368037
0.00368523
0.00368942
0.00369295
0.0036958
0.00369802
0.00369974
0.00370095
0.00370166
0.00370186
0.00370154
0.0037007
0.00369933
0.00369743
0.003695
0.00369203
0.00368852
0.00368446
0.00367985
0.00367468
0.00366895
0.00366263
0.00365573
0.00364826
0.00364021
0.00363159
0.00362241
0.00361269
0.00360242
0.00359162
0.00358031
0.00356848
0.00355615
0.00354333
0.00353002
0.00351624
0.00350203
0.00348741
0.00347242
0.00345708
0.00344141
0.00342542
0.00340906
0.00339225
0.00337481
0.00335629
0.00333493
0.00330587
1.66319e-08
1.28551e-06
1.49821e-05
4.84518e-05
8.85675e-05
0.000123733
0.000150176
0.000167834
0.000178608
0.000184568
0.00018688
0.000186459
0.000184121
0.00018055
0.0001762
0.000171218
0.000165557
0.000159224
0.000152108
0.000144023
0.000134818
0.000122345
0.000106559
9.65585e-05
9.36118e-05
9.08734e-05
9.734e-05
0.000113577
0.000134354
0.000155362
0.000174627
0.000190352
0.000201278
0.000209559
0.000218321
0.000230237
0.000247901
0.000271237
0.000301666
0.000338482
0.000381912
0.000431086
0.000485726
0.000544666
0.000606834
0.000671072
0.000736599
0.000802957
0.000869705
0.00093656
0.00100321
0.00106911
0.00113469
0.00119974
0.00126389
0.00132707
0.00138925
0.00145038
0.00151045
0.00156948
0.00162748
0.0016845
0.00174057
0.00179574
0.00185006
0.00190357
0.00195631
0.00200833
0.00205967
0.00211038
0.00216047
0.00220998
0.00225891
0.00230725
0.00235498
0.00240209
0.00244856
0.00249436
0.00253949
0.00258391
0.00262762
0.00267059
0.00271283
0.00275434
0.00279512
0.00283521
0.0028746
0.00291326
0.0029512
0.00298841
0.00302491
0.0030607
0.00309578
0.00313017
0.00316386
0.00319686
0.00322917
0.00326081
0.00329177
0.00332205
0.00335166
0.00338058
0.0034088
0.00343631
0.0034631
0.00348916
0.00351447
0.00353902
0.0035628
0.00358579
0.00360799
0.00362939
0.00364997
0.00366975
0.0036887
0.00370684
0.00372417
0.00374068
0.00375638
0.00377127
0.00378537
0.00379867
0.00381119
0.00382294
0.00383392
0.00384416
0.00385365
0.00386241
0.00387046
0.00387779
0.00388448
0.00389064
0.00389624
0.00390113
0.00390539
0.00390893
0.00391182
0.00391409
0.00391585
0.00391707
0.00391778
0.00391798
0.00391766
0.00391682
0.00391548
0.00391363
0.00391127
0.00390841
0.00390503
0.00390115
0.00389674
0.00389182
0.00388636
0.00388036
0.00387382
0.00386673
0.00385911
0.00385096
0.00384228
0.00383308
0.00382336
0.00381314
0.0038024
0.00379117
0.00377944
0.00376721
0.00375449
0.00374131
0.00372767
0.00371362
0.00369918
0.00368438
0.00366924
0.00365378
0.00363799
0.00362182
0.00360515
0.00358762
0.00356772
0.00354251
3.69973e-08
2.94935e-06
2.72396e-05
7.12149e-05
0.000114398
0.000148403
0.00017198
0.000186956
0.000194743
0.000196886
0.00019528
0.00019132
0.000185978
0.000179851
0.000173317
0.000166173
0.000158859
0.000150915
0.000142722
0.000134485
0.00012619
0.000118005
0.000111199
0.000108619
0.000113788
0.000124866
0.000140291
0.000158298
0.000176574
0.000193446
0.000207255
0.000218237
0.000229679
0.000242252
0.000258528
0.000279394
0.000306524
0.000339803
0.000379387
0.000424681
0.000475362
0.000530729
0.000590116
0.00065247
0.000716824
0.000782378
0.000848614
0.000915197
0.000981844
0.00104805
0.00111381
0.00117952
0.00124444
0.00130862
0.00137193
0.00143431
0.00149575
0.00155621
0.00161572
0.00167427
0.00173188
0.0017886
0.00184446
0.00189952
0.00195383
0.00200743
0.00206035
0.0021126
0.00216424
0.00221534
0.00226592
0.00231598
0.00236555
0.00241466
0.00246334
0.0025116
0.00255922
0.00260615
0.00265236
0.00269782
0.0027425
0.00278639
0.00282949
0.0028718
0.00291331
0.00295403
0.00299395
0.00303314
0.00307161
0.00310938
0.00314646
0.00318285
0.00321855
0.00325358
0.00328794
0.00332164
0.00335467
0.00338705
0.00341877
0.00344981
0.00348019
0.00350988
0.00353887
0.00356717
0.00359475
0.0036216
0.0036477
0.00367305
0.00369763
0.00372142
0.00374441
0.00376659
0.00378795
0.00380848
0.00382817
0.00384703
0.00386504
0.00388221
0.00389854
0.00391404
0.0039287
0.00394253
0.00395555
0.00396775
0.00397916
0.00398977
0.00399961
0.00400867
0.00401699
0.00402457
0.00403149
0.00403783
0.00404354
0.00404855
0.00405287
0.0040565
0.00405947
0.00406185
0.00406368
0.00406497
0.00406575
0.00406601
0.00406578
0.00406505
0.00406384
0.00406216
0.00406
0.00405738
0.00405429
0.00405074
0.00404672
0.00404222
0.00403724
0.00403177
0.00402581
0.00401935
0.00401242
0.00400499
0.00399709
0.00398871
0.00397985
0.00397051
0.00396069
0.00395039
0.00393961
0.00392834
0.00391659
0.00390436
0.00389168
0.00387858
0.00386508
0.0038512
0.00383697
0.00382242
0.00380756
0.00379236
0.00377677
0.00376048
0.00374233
0.00372113
7.05887e-08
6.06017e-06
4.17887e-05
9.32014e-05
0.000138541
0.000171116
0.000191978
0.000202848
0.000206186
0.000204405
0.00019933
0.000192294
0.000184227
0.000175377
0.00016648
0.000157396
0.000148523
0.00014051
0.000133804
0.000128491
0.000125262
0.000125441
0.000129886
0.00013856
0.000150286
0.000164491
0.00018005
0.000195907
0.000210475
0.000222802
0.000235709
0.000250084
0.000266138
0.000285449
0.000309729
0.000339472
0.000375044
0.000416095
0.000462297
0.00051313
0.000568136
0.000626684
0.000688043
0.000751353
0.000815864
0.000881017
0.000946434
0.00101179
0.00107662
0.00114138
0.00120569
0.00126937
0.00133226
0.00139431
0.00145545
0.00151566
0.00157496
0.00163335
0.00169085
0.00174749
0.00180326
0.00185816
0.00191234
0.00196584
0.00201872
0.00207106
0.00212297
0.00217469
0.00222606
0.00227697
0.00232743
0.00237743
0.002427
0.00247612
0.00252474
0.00257281
0.00262033
0.00266721
0.00271344
0.00275899
0.00280381
0.00284786
0.00289114
0.00293364
0.00297537
0.00301635
0.00305661
0.00309615
0.003135
0.00317316
0.00321064
0.00324745
0.00328359
0.00331909
0.00335393
0.00338813
0.00342169
0.0034546
0.00348687
0.00351848
0.00354945
0.00357975
0.00360938
0.00363833
0.00366658
0.00369412
0.00372094
0.00374702
0.00377235
0.0037969
0.00382066
0.00384361
0.00386575
0.00388706
0.00390752
0.00392714
0.0039459
0.0039638
0.00398083
0.00399701
0.00401233
0.00402679
0.0040404
0.00405317
0.0040651
0.00407621
0.0040865
0.00409599
0.00410469
0.00411265
0.00411992
0.00412654
0.00413246
0.00413768
0.00414221
0.00414605
0.00414923
0.00415179
0.0041538
0.00415527
0.00415623
0.00415668
0.00415665
0.00415615
0.0041552
0.00415381
0.00415198
0.00414974
0.00414708
0.004144
0.00414051
0.0041366
0.00413226
0.00412748
0.00412227
0.00411663
0.00411056
0.00410406
0.00409713
0.00408978
0.004082
0.00407378
0.00406511
0.004056
0.00404642
0.00403637
0.00402584
0.00401485
0.0040034
0.00399152
0.00397922
0.00396654
0.0039535
0.00394012
0.00392642
0.00391242
0.00389809
0.0038832
0.00386676
0.0038491
1.14261e-07
1.04058e-05
5.52608e-05
0.000111591
0.000158465
0.000190451
0.000208296
0.000215458
0.000215264
0.000210315
0.000202563
0.000193233
0.000183366
0.000173823
0.000164917
0.000157234
0.000150639
0.00014648
0.000144428
0.00014479
0.000147931
0.000154019
0.000162861
0.000173966
0.000186635
0.000200321
0.000213918
0.00022652
0.000239603
0.000254865
0.000271683
0.000290159
0.000312462
0.000339205
0.000370993
0.00040781
0.000449451