/*--------------------------------*- C++ -*----------------------------------*\
  =========                 |
  \\      /  F ield         | OpenFOAM: The Open Source CFD Toolbox
   \\    /   O peration     | Website:  https://openfoam.org
    \\  /    A nd           | Version:  13
     \\/     M anipulation  |
\*---------------------------------------------------------------------------*/
FoamFile
{
    format      ascii;
    class       volScalarField;
    location    "400";
    object      omega;
}
// * * * * * * * * * * * * * * * * * * * * * * * * * * * * * * * * * * * * * //

dimensions      [0 0 -1 0 0 0 0];

internalField   nonuniform List<scalar> 
12225
(
31477.7
38832.4
38209.3
37177.8
31477.7
48343
42548.7
42774.3
48549.1
47135.6
40921.7
36934.1
40426.6
46237.6
47991.4
43404.7
44347.6
39155
1037.28
8150.04
10977
13387
13165.4
16469.8
17426.9
16924.3
20686.8
20720.9
19820.9
18857.1
18523.2
20510.7
20318.3
20779.1
21063.5
20674.6
189.604
1256.28
2047.18
3040.76
4064.7
5153.8
6029.51
6395.93
7126.47
7654.37
7976.47
8175.79
8312.74
8272.93
8467.66
8448.4
8478.75
8589.96
329.347
554.289
814.038
1088.1
1550.69
1834.4
2709.52
3253.56
3843.2
4483.93
4559.08
4521.73
4823.04
4817.13
4781.84
4764.03
4920.55
5227.51
402.42
452.621
525.403
667.901
776.924
1003.09
1135.3
1587.68
1767.21
2295.58
3353.23
3747.52
3870.43
4253.42
4195.02
4361.22
4649.96
4610.76
431.08
439.087
459.255
519.786
574.769
649.135
730.931
913.506
1034.61
1134.72
1617.27
2007.03
2137.24
2537.32
2633.06
2684.28
2887.91
3013.72
437.039
438.38
444.586
465.266
495.395
517.581
581.894
643.991
834.337
1036.5
1210.72
1275.7
1380.38
1600.19
1640.99
1730.35
1923.27
1947.81
438.698
436.4
437.841
443.861
457.593
466.376
507.179
563.602
664.497
738.736
827.245
939.553
1016.71
1110.48
1165.29
1209.49
1295.27
1326.78
439.124
436.478
434.521
435.01
441.427
446.592
462.854
484.572
537.123
590.421
671.022
746.879
786.408
812.143
862.621
890.507
926.603
937.935
438.898
437.023
434.307
432.23
432.738
433.936
441.842
454.335
479.478
507.187
539.621
574.81
601.658
625.587
646.996
665.048
682.102
688.838
438.93
436.901
434.547
432.538
430.781
429.213
429.748
434.327
443.223
455.287
467.199
480.508
491.431
503.049
511.33
520.042
526.399
533.124
438.955
436.844
434.593
432.654
430.833
428.583
426.8
427.04
429.295
433.182
437.365
441.876
445.785
450.075
453.025
456.64
458.654
462.173
438.997
436.773
434.66
432.669
430.798
428.843
426.991
425.575
425.098
424.927
424.818
425.168
425.911
426.757
427.268
428.017
428.37
428.721
439.006
436.769
434.665
432.661
430.776
428.931
427.178
425.516
424.099
422.889
421.751
420.792
419.913
419.159
418.314
417.638
416.757
416.141
439.002
436.774
434.66
432.655
430.752
428.94
427.212
425.567
424.013
422.554
421.174
419.879
418.647
417.489
416.364
415.311
414.264
413.299
439.001
436.773
434.657
432.65
430.741
428.929
427.204
425.564
424.002
422.517
421.101
419.755
418.47
417.249
416.079
414.967
413.899
412.884
439.001
436.772
434.655
432.645
430.735
428.92
427.194
425.552
423.988
422.499
421.08
419.728
418.438
417.208
416.033
414.912
413.841
412.819
439
436.769
434.65
432.638
430.726
428.908
427.18
425.536
423.97
422.479
421.058
419.703
418.412
417.179
416.003
414.88
413.809
412.784
439
436.771
434.653
432.641
430.73
428.912
427.184
425.539
423.974
422.482
421.061
419.705
418.414
417.181
416.006
414.883
413.813
412.79
439
436.773
434.653
432.645
430.732
428.917
427.19
425.545
423.982
422.488
421.068
419.709
418.425
417.197
416.043
414.939
413.903
412.91
438.996
436.781
434.63
432.67
430.712
428.943
427.18
425.567
423.977
422.489
421.046
419.683
418.438
417.291
416.289
415.345
414.589
413.923
439.006
436.778
434.58
432.766
430.61
429.048
427.127
425.619
423.879
422.33
420.876
419.516
418.49
418.114
416.774
416.431
417.32
419.142
439.093
436.69
434.692
432.756
430.735
428.957
427.425
425.526
423.405
421.257
421.404
422.096
424.615
427.825
432.733
437.976
446.288
451.373
439.441
436.317
435.235
433.148
431.522
430.215
428.282
426.812
426.394
426.51
427.866
429.579
432.056
434.084
439.652
445.846
457.107
470.793
440.68
433.984
439.263
437.541
444.642
442.598
441.019
442.001
446.627
452.415
458.66
466.338
474.676
481.052
488.067
499.77
512.116
521.146
438.927
456.215
472.005
499.749
507.138
498.219
501.749
512.367
529.574
547.347
569.45
590.035
613.592
630.21
648.526
667.98
683.235
696.667
505.337
687.227
703.34
794.879
789.46
767.448
788.16
829.551
885.105
940.751
997.847
1063.91
1128.05
1193.65
1250.66
1310.69
1368.84
1406.05
891.043
2040.29
2052.05
2237.96
2183.05
2120.28
2221.57
2361.68
2527.77
2679.9
2843.3
3003.75
3191.09
3372.73
3591.19
3770.5
3972.42
4118.04
3171.98
8399.04
8977.44
9619.79
9382.85
9409.22
9583.96
9769.95
9896.23
9975.08
9986.29
9974.92
9951.29
9903.97
9904.78
9902.22
9934.25
9967.74
18117.5
23072.1
25196.4
26279.6
26761.7
26746
26648.4
26394.8
26083
25755.1
25434
25131
24851.3
24596.5
24363
24153.3
23958.4
23782.2
11463.2
2514.24
2516.41
2518.61
2520.83
2523.07
2525.32
2527.6
2529.9
2532.22
2534.57
2536.93
2539.31
2541.72
2544.15
2546.6
2549.08
2551.57
2554.09
2556.64
2559.2
2561.79
2564.41
2567.05
2569.71
2572.4
2575.12
2577.86
2580.62
2583.41
2586.23
2589.08
2591.95
2594.85
2597.77
2600.73
2603.71
2606.72
2609.76
2612.82
2615.92
2619.05
2622.2
2625.39
2628.61
2631.86
2635.14
2638.45
2641.79
2645.17
2648.58
2652.02
2655.5
2659.01
2662.55
2666.13
3298.16
2673.39
2677.08
2680.8
3269.83
3431.59
2692.19
3370.6
3404.28
3500.68
3581.41
3655.9
3731.71
3802.59
3872.66
3939.89
4006.16
4070.12
4133.26
4194.49
4254.9
4313.76
4371.73
4428.4
4484.16
4538.76
4592.46
4645.06
4696.79
4747.46
4797.26
4846
4893.84
4940.63
4986.44
5031.22
5074.98
5117.66
5159.2
5199.56
5238.68
5276.55
5313.2
5348.8
5383.72
5417.86
5451.05
5483.41
5514.94
5545.64
5575.5
5604.48
5632.64
5659.91
5686.35
5711.89
5736.61
5760.44
5783.45
5805.57
5826.88
5847.31
5866.92
5885.67
5903.59
5920.66
5936.9
5952.29
5966.8
5980.41
5992.96
6004.35
6014.18
6022.03
6027.74
6036.84
6045.01
6052.65
6059.45
6065.89
6072.3
6078.68
6085.4
6091.28
6091.68
6093.89
6094.52
6094.94
6092.95
6090.62
6087.35
6083.17
6078.41
6072.34
6065.99
6058.11
6050.15
6040.48
6031
6019.65
6008.77
5995.89
5983.74
5969.52
5956.04
5940.72
5925.86
5910.01
5893.9
5877.41
5860.56
5843.49
5826.2
5808.84
5791.43
5774.02
5756.56
5738.97
5720.97
5701.89
5680.81
5654.9
5618.06
5485.6
11463.2
1988.74
988.908
801.241
684.848
621.08
627.372
624.115
610.686
587.47
563.243
539.187
517.776
500.524
488.882
481.015
479.626
489.313
508.949
567.343
653.202
756.763
867.313
975.834
1068.76
1140.57
1170.89
1159.1
1119.57
1026.23
906.622
755.92
637.204
555.046
489.888
457.887
454.815
464.067
485.101
517.996
545.383
600.557
700.454
820.186
1017.38
1338.19
1642.57
1843.19
1974.53
2040.34
2058.13
2042.57
2001.07
1958.26
1902.09
1845.56
1817.69
1732.14
1708.56
1667.66
1673.6
1651.15
1618.11
1650.74
1636.22
1636.59
1636.3
1638.34
1641.42
1645.78
1650.93
1656.79
1663.28
1670.08
1677.34
1684.73
1692.41
1700.14
1708.01
1715.9
1723.85
1731.78
1739.7
1747.58
1755.4
1763.15
1770.8
1778.36
1785.79
1793.09
1800.26
1807.27
1814.11
1820.78
1827.3
1833.69
1840.04
1846.5
1853.3
1860.81
1869.59
1878.47
1886.96
1895.43
1903.62
1911.68
1919.52
1927.19
1934.66
1941.95
1949.04
1955.95
1962.65
1969.17
1975.49
1981.62
1987.54
1993.27
1998.79
2004.11
2009.22
2014.13
2018.83
2023.31
2027.56
2031.57
2035.32
2038.78
2041.95
2044.87
2047.73
2050.83
2053.46
2056.15
2058.7
2061.13
2063.55
2065.57
2067.2
2067.66
2067.29
2067.99
2067.47
2067.28
2066.63
2065.81
2064.77
2063.54
2062.04
2060.63
2058.1
2056.51
2053.34
2051.53
2047.78
2045.74
2041.48
2039.19
2034.56
2031.9
2027.07
2023.84
2019.13
2015.07
2010.61
2006.08
2001.46
1996.77
1992.02
1987.25
1982.47
1977.69
1972.93
1968.22
1963.6
1959.2
1955.1
1951.8
1948.95
1955.7
11463.2
1990.04
799.79
633.752
674.364
676.841
649.053
592.802
532.737
476.965
427.315
386.683
354.535
329.212
309.645
294.509
284.028
275.815
274.122
277.602
286.694
308.208
341.714
387.714
443.174
504.829
562.91
608.068
631.994
625.675
604.589
553.419
490.032
425.117
380.518
377.995
387.669
410.551
449.746
524.809
637.664
799.214
995.974
1164.91
1306.97
1437.8
1515.83
1542.25
1539.05
1492.6
1439.7
1379.33
1323.24
1273.21
1227.79
1189.98
1160.54
1133.71
1117.52
1103.02
1095.95
1089.07
1084.93
1084.83
1083.32
1083.28
1084.59
1086.39
1088.83
1091.74
1095
1098.56
1102.36
1106.33
1110.47
1114.7
1119.04
1123.43
1127.88
1132.36
1136.86
1141.37
1145.89
1150.39
1154.88
1159.34
1163.77
1168.17
1172.53
1176.84
1181.11
1185.34
1189.54
1193.72
1197.9
1202.1
1206.36
1210.73
1215.26
1219.96
1224.77
1229.46
1234.03
1238.53
1242.91
1247.19
1251.37
1255.44
1259.4
1263.25
1266.99
1270.62
1274.13
1277.53
1280.82
1283.98
1287.02
1289.95
1292.74
1295.42
1297.96
1300.37
1302.66
1304.81
1306.81
1308.68
1310.4
1311.97
1313.41
1314.74
1315.99
1317.17
1318.19
1319.13
1319.97
1320.68
1321.28
1321.63
1321.68
1321.6
1321.26
1321.02
1320.45
1319.84
1319
1318.05
1316.95
1315.73
1314.36
1312.9
1311.15
1309.49
1307.43
1305.58
1303.22
1301.17
1298.52
1296.29
1293.4
1290.95
1287.88
1285.17
1282.02
1278.99
1275.81
1272.58
1269.29
1265.95
1262.57
1259.17
1255.76
1252.34
1248.95
1245.61
1242.44
1239.55
1237.14
1235.82
1236.41
1245.98
11463.2
2030.43
999.845
966.986
896.181
768.357
652.762
546.813
463.182
400.91
354.212
317.828
289.41
267.395
250.393
237.363
227.562
220.426
215.635
213.824
214.501
218.796
226.54
241.697
263.99
293.865
328.417
363.737
392.971
414.653
416.927
408.59
387.378
392.879
440.551
518.371
575.51
631.767
705.291
813.024
948.917
1061.46
1137.27
1203.47
1251.94
1271.4
1231.74
1194.28
1148.06
1095.94
1051.22
1010.01
976.195
947.678
924.55
906.309
892.134
881.39
874.097
868.938
865.931
864.235
863.763
863.908
864.829
866.271
868.239
870.523
873.12
875.953
878.979
882.164
885.479
888.899
892.408
895.986
899.624
903.307
907.027
910.774
914.54
918.317
922.1
925.881
929.657
933.422
937.173
940.908
944.623
948.319
951.995
955.657
959.307
962.952
966.6
970.259
973.937
977.64
981.364
985.091
988.773
992.374
995.894
999.34
1002.7
1005.98
1009.17
1012.28
1015.3
1018.23
1021.07
1023.81
1026.46
1029.01
1031.46
1033.81
1036.06
1038.2
1040.24
1042.17
1043.99
1045.7
1047.3
1048.79
1050.16
1051.42
1052.55
1053.58
1054.5
1055.32
1056.04
1056.66
1057.16
1057.56
1057.86
1058.06
1058.11
1057.99
1057.72
1057.32
1056.78
1056.19
1055.44
1054.59
1053.58
1052.47
1051.23
1049.87
1048.4
1046.81
1045.08
1043.28
1041.31
1039.32
1037.12
1034.93
1032.53
1030.15
1027.55
1025
1022.23
1019.5
1016.59
1013.67
1010.68
1007.63
1004.52
1001.38
998.205
995.003
991.788
988.577
985.395
982.29
979.336
976.651
974.404
973.064
973.505
979.292
11463.2
2285.25
1449.45
1178.9
937.71
726.617
561.407
450.403
374.955
321.798
283.919
256.541
236.502
221.525
210.069
201.234
194.46
189.454
186.009
184.207
184.307
185.878
189.167
196.156
207.284
223.768
245.167
269.271
293.012
310.151
325.483
357.861
421.064
520.466
601.991
668.902
739.895
815.842
886.776
949.938
1004.55
1051.89
1079.02
1086.41
1054.3
1010.68
974.071
934.368
897.418
864.028
836.888
813.63
795.059
780.008
768.36
759.556
753.118
748.779
746.143
745.068
744.775
745.197
746.407
748.064
750.152
752.557
755.234
758.115
761.173
764.372
767.691
771.111
774.615
778.191
781.829
785.518
789.25
793.016
796.81
800.624
804.452
808.288
812.126
815.961
819.789
823.606
827.409
831.196
834.963
838.71
842.437
846.145
849.835
853.507
857.163
860.802
864.422
868.017
871.575
875.087
878.535
881.909
885.209
888.434
891.58
894.645
897.628
900.526
903.338
906.061
908.694
911.233
913.676
916.021
918.266
920.409
922.449
924.384
926.213
927.934
929.547
931.05
932.443
933.724
934.892
935.947
936.89
937.723
938.448
939.067
939.579
939.979
940.253
940.41
940.469
940.418
940.222
939.904
939.447
938.871
938.179
937.391
936.474
935.444
934.285
933.011
931.619
930.109
928.486
926.745
924.888
922.931
920.855
918.691
916.403
914.038
911.548
908.995
906.318
903.589
900.742
897.848
894.855
891.81
888.7
885.536
882.323
879.069
875.781
872.471
869.151
865.846
862.58
859.392
856.342
853.527
851.082
849.343
849.011
851.711
11463.2
2879.76
1721.06
1206.67
835.817
591.03
448.715
360.355
304.393
268.506
243.484
224.916
210.401
198.817
189.477
182.024
176.233
171.987
169.144
167.775
167.937
169.235
172.109
177.238
184.793
196.408
212.778
234.127
262.934
308.261
366.438
462.029
567.486
649.031
715.916
777.088
827.596
866.534
900.407
933.965
950.093
951.362
922.757
892.983
861.106
828.263
799.245
771.535
748.251
728.443
712.435
699.3
689.031
681.135
675.41
671.498
669.177
668.346
668.216
669.048
670.549
672.567
675.036
677.823
680.878
684.143
687.58
691.154
694.845
698.633
702.505
706.449
710.457
714.519
718.629
722.779
726.962
731.172
735.4
739.642
743.889
748.136
752.378
756.61
760.827
765.024
769.2
773.35
777.471
781.562
785.621
789.648
793.642
797.601
801.523
805.406
809.244
813.03
816.756
820.418
824.008
827.521
830.955
834.308
837.578
840.761
843.855
846.858
849.765
852.576
855.287
857.896
860.399
862.795
865.083
867.259
869.323
871.271
873.106
874.825
876.427
877.912
879.278
880.525
881.653
882.662
883.553
884.326
884.983
885.525
885.952
886.259
886.404
886.428
886.359
886.167
885.842
885.388
884.804
884.098
883.275
882.337
881.273
880.087
878.775
877.34
875.783
874.103
872.303
870.381
868.341
866.188
863.92
861.545
859.056
856.467
853.767
850.977
848.082
845.105
842.032
838.885
835.654
832.357
828.996
825.579
822.111
818.601
815.057
811.491
807.917
804.355
800.831
797.379
794.05
790.923
788.1
785.827
784.495
785.12
11463.2
3404.92
1774.79
1044.04
658.926
463.814
359.788
301.034
264.38
239.476
221.222
207.106
195.836
186.469
178.575
172.038
166.821
162.947
160.503
159.625
160.219
162.381
166.692
173.634
184.311
198.79
220.626
255.601
311.114
398.164
502.554
590.958
659.439
717.295
762.435
796.085
823.095
844.124
852.822
848.768
826.405
804.881
779.094
754.398
729.867
706.872
686.851
669.251
654.777
642.83
633.325
625.9
620.413
616.606
614.443
613.614
613.529
614.49
616.186
618.522
621.348
624.56
628.089
631.862
635.831
639.957
644.212
648.573
653.024
657.552
662.147
666.802
671.509
676.261
681.054
685.879
690.729
695.598
700.477
705.36
710.238
715.106
719.957
724.786
729.587
734.357
739.091
743.785
748.436
753.041
757.597
762.103
766.558
770.959
775.304
779.59
783.814
787.972
792.062
796.074
800.002
803.844
807.597
811.259
814.825
818.294
821.662
824.925
828.081
831.127
834.059
836.875
839.572
842.148
844.601
846.928
849.129
851.199
853.137
854.946
856.626
858.177
859.597
860.888
862.048
863.079
863.981
864.754
865.401
865.922
866.318
866.568
866.654
866.607
866.456
866.175
865.757
865.205
864.519
863.701
862.749
861.669
860.456
859.11
857.631
856.02
854.276
852.4
850.393
848.254
845.988
843.597
841.083
838.449
835.695
832.826
829.843
826.754
823.56
820.269
816.881
813.406
809.847
806.212
802.511
798.748
794.933
791.073
787.179
783.261
779.336
775.421
771.541
767.727
764.023
760.489
757.204
754.344
752.105
751.066
11463.2
3566.37
1579.53
830.395
524.783
387.644
318.286
277.174
249.552
229.913
214.776
202.464
192
182.993
175.314
169.005
164.205
161.143
159.841
160.217
162.218
166.457
173.598
185.217
204.125
233.506
281.382
358.139
446.32
525.287
589.944
645.271
691.001
726.369
754.526
771.581
777.115
769.846
753.027
735.827
715.557
696.516
677.002
658.516
641.056
625.478
612.179
600.96
591.873
584.65
579.168
575.247
572.872
571.855
571.699
572.56
574.251
576.688
579.725
583.262
587.201
591.464
595.991
600.726
605.632
610.676
615.834
621.088
626.423
631.828
637.294
642.814
648.379
653.985
659.625
665.291
670.974
676.666
682.357
688.041
693.707
699.349
704.959
710.53
716.058
721.538
726.965
732.332
737.637
742.875
748.044
753.142
758.167
763.118
767.99
772.783
777.496
782.128
786.672
791.12
795.467
799.711
803.85
807.88
811.799
815.604
819.292
822.859
826.303
829.619
832.805
835.857
838.775
841.556
844.197
846.697
849.054
851.267
853.335
855.261
857.042
858.679
860.173
861.522
862.729
863.792
864.713
865.492
866.131
866.631
866.992
867.181
867.207
867.088
866.848
866.466
865.939
865.268
864.455
863.506
862.411
861.176
859.797
858.277
856.613
854.806
852.856
850.763
848.527
846.15
843.633
840.981
838.195
835.278
832.232
829.059
825.764
822.353
818.83
815.201
811.469
807.642
803.724
799.725
795.654
791.518
787.325
783.085
778.809
774.508
770.199
765.899
761.63
757.423
753.313
749.349
745.592
742.14
739.096
736.644
11463.2
3430.56
1308.74
674.185
446.644
346.686
294.158
262.972
242.285
226.097
212.975
202.003
192.642
184.634
177.919
172.708
169.285
167.845
168.639
172.044
178.57
189.819
207.388
234.254
277.36
336.985
406.897
470.898
528.218
577.733
620.117
655.3
685.098
704.698
711.239
706.966
694.233
680.041
663.95
648.632
633.328
618.819
604.598
591.262
579.133
568.619
559.82
552.649
547.051
542.9
540.116
538.748
538.37
538.925
540.42
542.744
545.783
549.445
553.632
558.263
563.262
568.564
574.116
579.872
585.795
591.858
598.038
604.318
610.681
617.114
623.605
630.146
636.726
643.337
649.974
656.631
663.291
669.948
676.59
683.208
689.791
696.331
702.821
709.252
715.615
721.901
728.103
734.228
740.27
746.226
752.093
757.868
763.548
769.131
774.615
779.996
785.272
790.438
795.491
800.428
805.246
809.942
814.513
818.957
823.27
827.451
831.496
835.401
839.164
842.78
846.247
849.562
852.722
855.726
858.573
861.26
863.786
866.151
868.355
870.397
872.278
873.999
875.561
876.963
878.208
879.294
880.224
880.997
881.615
882.08
882.385
882.503
882.445
882.249
881.902
881.401
880.743
879.928
878.959
877.837
876.56
875.13
873.544
871.803
869.907
867.854
865.645
863.28
860.758
858.081
855.251
852.272
849.146
845.876
842.463
838.912
835.228
831.418
827.486
823.439
819.281
815.019
810.659
806.211
801.684
797.087
792.429
787.721
782.975
778.204
773.424
768.652
763.91
759.225
754.628
750.16
745.865
741.828
738.102
734.549
11463.2
3028.93
1060.83
571.426
405.082
328.87
287.145
260.683
242.408
229.048
218.365
209.336
201.583
195.166
190.284
187.711
187.473
190.58
197.141
207.958
224.362
249.339
284.905
330.353
379.659
430.039
477.6
519.974
557.674
589.692
617.714
640.242
650.138
651.017
643.609
632.981
620.2
607.722
595.553
584.114
573.003
562.305
552.026
542.557
534.194
527.134
521.415
516.995
513.823
511.976
511.273
511.394
512.545
514.581
517.436
521.027
525.271
530.09
535.409
541.157
547.274
553.704
560.392
567.297
574.381
581.615
588.977
596.459
604.03
611.67
619.365
627.101
634.862
642.628
650.368
658.07
665.765
673.449
681.111
688.736
696.314
703.835
711.291
718.673
725.974
733.188
740.312
747.328
754.228
761.006
767.659
774.187
780.586
786.856
792.993
798.995
804.86
810.586
816.174
821.623
826.928
832.088
837.101
841.962
846.671
851.224
855.619
859.852
863.92
867.819
871.547
875.101
878.479
881.68
884.702
887.544
890.206
892.687
894.987
897.107
899.048
900.811
902.399
903.812
905.051
906.117
907.012
907.734
908.288
908.673
908.874
908.884
908.713
908.383
907.886
907.221
906.387
905.384
904.213
902.875
901.369
899.696
897.855
895.845
893.665
891.316
888.797
886.108
883.249
880.219
877.022
873.661
870.139
866.459
862.623
858.638
854.509
850.244
845.847
841.326
836.685
831.932
827.073
822.119
817.078
811.962
806.78
801.545
796.271
790.972
785.663
780.363
775.092
769.874
764.737
759.715
754.843
750.195
745.776
741.195
11463.2
2559.12
889.463
514.313
381.517
319.914
285.394
264.202
249.979
239.46
231.136
224.422
219.26
216.383
215.861
218.749
225.806
236.555
250.579
270.14
296.232
328.08
363.912
401.306
437.897
472.566
504.424
532.358
557.399
580.211
593.625
597.645
595.97
590.095
581.167
571.495
561.831
552.776
544.161
535.906
527.849
520.067
512.737
506.149
500.516
495.957
492.505
490.18
489.072
488.844
489.575
491.238
493.8
497.194
501.363
506.233
511.735
517.801
524.365
531.37
538.768
546.52
554.552
562.819
571.282
579.903
588.634
597.395
606.218
615.121
624.09
633.109
642.156
651.207
660.255
669.29
678.288
687.245
696.141
704.958
713.689
722.325
730.861
739.288
747.599
755.781
763.82
771.713
779.452
787.033
794.454
801.714
808.812
815.747
822.516
829.119
835.555
841.823
847.924
853.857
859.62
865.211
870.625
875.862
880.919
885.793
890.483
894.987
899.299
903.419
907.342
911.066
914.591
917.914
921.037
923.957
926.676
929.193
931.508
933.624
935.542
937.266
938.797
940.138
941.291
942.256
943.034
943.627
944.037
944.26
944.288
944.114
943.759
943.222
942.505
941.607
940.528
939.268
937.827
936.207
934.407
932.427
930.265
927.922
925.396
922.688
919.796
916.721
913.462
910.019
906.395
902.592
898.614
894.464
890.148
885.672
881.043
876.267
871.351
866.302
861.125
855.828
850.417
844.902
839.294
833.604
827.846
822.032
816.178
810.299
804.411
798.532
792.681
786.881
781.157
775.539
770.054
764.766
759.667
754.149
11463.2
2167.68
809.975
492.987
375.515
320.112
291.053
273.917
262.821
255.115
249.626
246.233
245.046
246.334
251.186
259.824
271.846
286.728
305.366
327.698
352.94
379.996
407.621
434.709
460.414
483.842
505.497
525.965
541.164
547.854
549.385
548.364
543.823
537.613
530.673
523.828
517.28
511.061
505.031
499.128
493.361
487.87
482.854
478.532
475.064
472.534
471.127
470.672
471.107
472.51
474.832
478.04
482.101
486.979
492.664
499.044
506.051
513.625
521.703
530.211
539.05
548.121
557.497
567.161
577.079
587.213
597.533
608.031
618.657
629.353
640.086
650.834
661.566
672.232
682.808
693.275
703.613
713.805
723.859
733.782
743.576
753.243
762.78
772.182
781.439
790.534
799.453
808.183
816.716
825.05
833.181
841.112
848.844
856.377
863.708
870.837
877.764
884.49
891.017
897.345
903.473
909.397
915.114
920.622
925.92
931.007
935.88
940.538
944.978
949.197
953.193
956.963
960.509
963.828
966.923
969.793
972.439
974.863
977.064
979.045
980.81
982.365
983.712
984.853
985.792
986.532
987.072
987.413
987.562
987.507
987.253
986.793
986.138
985.29
984.251
983.021
981.6
979.989
978.187
976.196
974.014
971.64
969.075
966.316
963.364
960.218
956.877
953.341
949.61
945.684
941.564
937.255
932.756
928.074
923.218
918.192
913.006
907.665
902.176
896.546
890.782
884.889
878.875
872.75
866.525
860.212
853.828
847.388
840.908
834.404
827.892
821.39
814.916
808.49
802.139
795.887
789.757
783.806
778.035
771.642
11463.2
1907.57
752.361
475.083
372.673
325.403
300.881
287.046
278.804
273.877
271.557
271.108
273.105
278.119
286.165
297.038
310.424
326.236
344.08
363.476
383.929
404.588
424.605
443.389
461.392
478.89
493.444
502.165
506.075
507.378
506.986
504.457
500.628
496.281
491.814
487.45
483.204
479.052
474.964
470.973
467.176
463.735
460.824
458.611
457.346
456.943
457.444
459.012
461.525
464.927
469.196
474.302
480.201
486.807
493.948
501.749
510.228
519.342
529.036
539.253
549.956
561.126
572.673
584.549
596.713
609.121
621.717
634.469
647.323
660.17
672.936
685.557
697.983
710.197
722.177
733.91
745.39
756.625
767.64
778.465
789.122
799.62
809.97
820.172
830.21
840.06
849.697
859.103
868.262
877.172
885.839
894.265
902.454
910.405
918.119
925.594
932.832
939.835
946.605
953.144
959.451
965.524
971.358
976.952
982.305
987.415
992.282
996.905
1001.28
1005.41
1009.29
1012.91
1016.29
1019.41
1022.29
1024.91
1027.3
1029.44
1031.34
1033
1034.43
1035.64
1036.62
1037.38
1037.93
1038.27
1038.4
1038.32
1038.06
1037.56
1036.87
1035.97
1034.87
1033.57
1032.08
1030.38
1028.49
1026.4
1024.12
1021.64
1018.96
1016.09
1013.01
1009.74
1006.26
1002.58
998.696
994.61
990.322
985.832
981.14
976.25
971.158
965.878
960.418
954.784
948.982
943.021
936.904
930.641
924.237
917.699
911.034
904.253
897.362
890.382
883.329
876.223
869.077
861.908
854.734
847.571
840.435
833.347
826.334
819.417
812.616
805.984
799.556
792.351
11463.2
1885.37
743.677
474.55
377.909
334.592
313.056
301.646
295.626
292.922
292.281
293.826
298.053
304.731
313.625
324.413
336.787
350.47
365.106
380.271
395.449
410.221
424.743
439.178
451.675
460.512
466.313
469.645
471.152
471.559
471.055
469.443
467.327
465.007
462.635
460.286
457.976
455.734
453.618
451.748
450.318
449.632
449.478
450.044
451.469
453.695
456.666
460.217
464.505
469.701
475.826
482.867
490.793
499.574
509.239
519.711
530.95
542.897
555.48
568.634
582.305
596.441
610.949
625.76
640.834
656.127
671.493
686.816
701.98
716.936
731.61
745.928
759.835
773.301
786.307
798.852
810.947
822.625
833.971
845.095
856.051
866.85
877.519
888.072
898.477
908.686
918.659
928.364
937.764
946.872
955.701
964.258
972.545
980.563
988.311
995.79
1003
1009.95
1016.63
1023.06
1029.23
1035.13
1040.78
1046.16
1051.26
1056.1
1060.67
1064.97
1069
1072.76
1076.24
1079.44
1082.38
1085.03
1087.42
1089.54
1091.41
1093.02
1094.38
1095.49
1096.34
1096.97
1097.36
1097.51
1097.43
1097.16
1096.66
1095.93
1095.01
1093.87
1092.53
1090.99
1089.26
1087.32
1085.19
1082.87
1080.35
1077.63
1074.71
1071.6
1068.28
1064.77
1061.05
1057.13
1053.01
1048.68
1044.15
1039.41
1034.46
1029.31
1023.96
1018.41
1012.64
1006.69
1000.57
994.261
987.785
981.144
974.345
967.394
960.299
953.067
945.706
938.223
930.625
922.938
915.182
907.375
899.529
891.663
883.794
875.94
868.111
860.329
852.626
845.028
837.556
830.245
823.178
815.215
11463.2
1841.66
731.637
475.709
385.037
345.283
325.862
315.754
310.774
308.83
308.639
310.99
315.814
322.533
330.715
340.02
350.196
360.993
372.121
383.383
394.891
406.377
416.534
424.4
430.543
435.39
438.926
441.335
442.955
444.029
444.627
444.886
445.035
445.465
445.892
446.343
446.86
447.503
448.329
449.382
450.623
452.069
454.207
457.316
461.511
466.663
472.76
479.882
488.006
497.123
507.246
518.372
530.455
543.449
557.337
572.057
587.633
603.933
620.798
638.121
655.809
673.77
691.904
710.108
728.259
746.23
763.978
781.413
798.429
814.928
830.801
845.942
860.304
873.896
886.745
898.877
910.3
921.046
931.344
941.538
951.721
961.801
971.864
981.953
991.967
1001.81
1011.41
1020.74
1029.78
1038.52
1046.97
1055.12
1062.98
1070.55
1077.81
1084.79
1091.47
1097.86
1103.98
1109.82
1115.39
1120.69
1125.71
1130.45
1134.9
1139.07
1142.95
1146.55
1149.86
1152.88
1155.62
1158.06
1160.2
1162.05
1163.61
1164.89
1165.91
1166.66
1167.15
1167.37
1167.33
1167.06
1166.54
1165.77
1164.77
1163.56
1162.13
1160.49
1158.64
1156.59
1154.35
1151.91
1149.28
1146.47
1143.46
1140.27
1136.88
1133.31
1129.54
1125.58
1121.43
1117.08
1112.54
1107.8
1102.86
1097.72
1092.37
1086.83
1081.08
1075.14
1068.99
1062.66
1056.15
1049.46
1042.59
1035.55
1028.34
1020.96
1013.42
1005.73
997.89
989.915
981.812
973.587
965.246
956.823
948.337
939.804
931.23
922.639
914.049
905.481
896.948
888.47
880.079
871.805
863.666
855.685
847.994
839.326
11463.7
1816.09
727.925
480.91
393.625
355.09
336.438
326.673
321.788
319.844
319.618
321.859
326.301
332.131
338.918
346.397
354.398
362.762
371.344
379.69
387.572
394.685
401.223
407.294
412.749
417.705
422.215
426.382
430.303
434.053
437.651
441.052
444.22
446.889
449.634
452.591
455.838
459.462
463.55
468.208
473.604
479.935
487.354
496.118
506.189
517.256
529.335
542.448
556.553
571.62
587.664
604.782
622.813
641.567
660.925
680.761
700.897
721.26
741.8
762.432
783.057
803.583
823.921
843.985
863.688
882.948
901.701
919.88
937.408
954.198
970.141
985.044
998.914
1011.87
1024.01
1035.37
1046
1055.94
1065.27
1074.14
1082.65
1090.95
1099.44
1108.31
1117.18
1125.88
1134.31
1142.44
1150.29
1157.85
1165.1
1172.03
1178.65
1184.96
1190.96
1196.65
1202.03
1207.13
1211.95
1216.5
1220.79
1224.82
1228.57
1232.04
1235.23
1238.13
1240.75
1243.09
1245.14
1246.9
1248.37
1249.55
1250.41
1250.98
1251.24
1251.2
1250.95
1250.4
1249.56
1248.47
1247.11
1245.52
1243.68
1241.62
1239.35
1236.87
1234.2
1231.33
1228.28
1225.04
1221.63
1218.03
1214.26
1210.32
1206.2
1201.91
1197.44
1192.8
1187.98
1182.99
1177.82
1172.47
1166.94
1161.22
1155.32
1149.23
1142.95
1136.48
1129.82
1122.97
1115.93
1108.71
1101.33
1093.79
1086.07
1078.18
1070.12
1061.89
1053.51
1044.97
1036.3
1027.49
1018.56
1009.52
1000.4
991.212
981.964
972.674
963.355
954.024
944.702
935.41
926.165
916.985
907.908
898.96
890.159
881.512
873.205
863.878
11462.8
1792.59
725.005
485.006
399.225
361.211
342.855
333.011
328.074
326.126
325.896
327.961
331.939
337.089
343.19
349.997
357.272
364.836
372.463
380.113
387.532
394.668
401.635
408.431
414.969
421.365
427.698
434.064
440.554
447.274
454.29
461.492
469.05
477.196
485.929
495.343
505.521
516.554
528.526
541.54
555.681
570.985
587.37
604.665
622.694
641.564
661.298
681.809
702.978
724.714
746.972
769.636
792.45
815.343
838.217
860.969
883.482
905.662
927.437
948.736
969.506
989.705
1009.3
1028.24
1046.51
1064.08
1080.92
1097.03
1112.4
1126.99
1140.8
1153.84
1165.97
1177.29
1187.96
1198.02
1207.48
1216.36
1224.62
1232.14
1239.05
1245.7
1252.71
1259.71
1266.47
1272.93
1279.04
1284.8
1290.24
1295.36
1300.18
1304.72
1308.96
1312.92
1316.61
1320.02
1323.17
1326.08
1328.76
1331.21
1333.46
1335.48
1337.27
1338.81
1340.1
1341.14
1341.93
1342.47
1342.75
1342.74
1342.51
1341.98
1341.17
1340.07
1338.7
1337.07
1335.2
1333.07
1330.69
1328.07
1325.21
1322.14
1318.87
1315.4
1311.75
1307.92
1303.93
1299.78
1295.47
1291.01
1286.4
1281.64
1276.73
1271.67
1266.46
1261.1
1255.6
1249.94
1244.14
1238.18
1232.07
1225.79
1219.36
1212.76
1205.98
1199.04
1191.92
1184.63
1177.15
1169.51
1161.67
1153.66
1145.47
1137.1
1128.56
1119.85
1110.98
1101.93
1092.74
1083.4
1073.92
1064.32
1054.6
1044.78
1034.89
1024.94
1014.94
1004.89
994.827
984.759
974.71
964.7
954.758
944.918
935.197
925.615
916.187
906.914
898.021
888.116
11461.8
1776.29
725.721
485.691
402.093
365.164
347.719
338.69
334.407
333.017
333.393
336.181
340.517
345.984
352.308
359.412
367.297
375.883
384.456
393.236
402.329
411.891
422.046
432.659
443.571
455.018
467.106
479.933
493.597
508.194
523.739
540.481
558.52
577.879
598.473
620.295
643.339
667.618
693.193
720.097
748.072
776.854
806.094
835.458
864.72
893.908
923.373
952.593
981.161
1008.88
1035.5
1060.7
1084.66
1107.44
1129.08
1149.57
1168.94
1187.23
1204.48
1220.74
1236.05
1250.45
1263.99
1276.68
1288.56
1299.65
1309.97
1319.57
1328.51
1336.78
1344.47
1351.84
1358.98
1365.85
1372.33
1378.36
1383.88
1388.73
1393.24
1397.56
1401.94
1406.57
1410.97
1414.68
1417.86
1420.64
1423.09
1425.25
1427.16
1428.85
1430.32
1431.59
1432.64
1433.5
1434.18
1434.69
1435.05
1435.25
1435.33
1435.24
1435.06
1434.73
1434.22
1433.53
1432.66
1431.6
1430.36
1428.92
1427.27
1425.4
1423.31
1420.99
1418.44
1415.65
1412.65
1409.43
1405.99
1402.35
1398.5
1394.46
1390.22