/*--------------------------------*- C++ -*----------------------------------*\
  =========                 |
  \\      /  F ield         | OpenFOAM: The Open Source CFD Toolbox
   \\    /   O peration     | Website:  https://openfoam.org
    \\  /    A nd           | Version:  13
     \\/     M anipulation  |
\*---------------------------------------------------------------------------*/
FoamFile
{
    format      ascii;
    class       volScalarField;
    location    "400";
    object      p;
}
// * * * * * * * * * * * * * * * * * * * * * * * * * * * * * * * * * * * * * //

dimensions      [0 2 -2 0 0 0 0];

internalField   nonuniform List<scalar> 
12225
(
-4.15384
-5.01148
-5.41735
-5.52852
-5.60014
-5.76008
-5.92732
-6.07984
-6.21199
-6.32895
-6.39504
-6.43193
-6.5043
-6.59594
-6.68226
-6.76009
-6.84339
-6.94016
-4.41199
-5.04376
-5.3827
-5.50143
-5.60156
-5.74856
-5.91256
-6.05746
-6.17872
-6.28123
-6.35526
-6.41669
-6.4905
-6.57369
-6.65811
-6.74033
-6.81386
-6.86495
-4.61829
-5.04807
-5.36089
-5.50999
-5.63835
-5.77831
-5.92831
-6.0617
-6.17205
-6.26465
-6.34565
-6.42241
-6.49325
-6.56676
-6.64273
-6.71613
-6.7786
-6.82134
-4.76127
-5.07707
-5.36623
-5.52189
-5.64774
-5.77827
-5.91676
-6.04312
-6.14939
-6.24313
-6.32713
-6.40436
-6.47356
-6.5437
-6.61555
-6.68403
-6.74302
-6.78636
-4.88037
-5.11994
-5.37741
-5.53409
-5.65658
-5.78276
-5.9157
-6.03762
-6.14283
-6.23661
-6.31979
-6.39597
-6.46587
-6.53474
-6.60318
-6.66746
-6.7233
-6.76652
-4.98689
-5.16909
-5.39311
-5.54866
-5.66984
-5.79234
-5.91909
-6.03458
-6.13704
-6.22802
-6.30919
-6.38321
-6.45259
-6.51937
-6.58381
-6.64357
-6.69563
-6.73709
-5.08444
-5.2231
-5.41491
-5.56548
-5.68433
-5.8018
-5.92111
-6.03096
-6.12986
-6.21833
-6.29782
-6.37021
-6.43868
-6.50368
-6.56501
-6.6213
-6.67043
-6.71062
-5.17285
-5.27686
-5.44198
-5.58382
-5.69881
-5.81052
-5.92292
-6.0279
-6.12326
-6.20923
-6.28703
-6.35837
-6.42533
-6.48811
-6.54644
-6.59953
-6.64602
-6.68496
-5.25251
-5.33139
-5.47253
-5.60354
-5.71367
-5.81963
-5.92566
-6.02577
-6.11742
-6.2007
-6.27663
-6.34654
-6.41157
-6.47193
-6.52754
-6.57796
-6.62235
-6.66017
-5.32452
-5.38591
-5.50448
-5.62399
-5.72855
-5.82878
-5.92862
-6.02382
-6.11178
-6.19237
-6.26634
-6.33455
-6.39761
-6.45577
-6.50912
-6.55735
-6.59997
-6.63671
-5.38984
-5.43838
-5.53718
-5.64488
-5.7433
-5.83785
-5.93184
-6.02228
-6.10667
-6.18455
-6.25639
-6.32268
-6.38378
-6.43995
-6.49128
-6.53759
-6.57868
-6.61447
-5.44425
-5.48368
-5.56744
-5.66448
-5.75685
-5.84628
-5.93516
-6.02128
-6.10229
-6.17754
-6.24722
-6.3116
-6.37092
-6.42536
-6.47501
-6.51976
-6.55964
-6.59462
-5.49333
-5.52602
-5.59727
-5.6843
-5.77051
-5.85487
-5.9388
-6.02063
-6.09822
-6.17072
-6.2381
-6.30051
-6.35803
-6.4108
-6.45885
-6.50224
-6.54103
-6.57528
-5.54358
-5.57061
-5.63032
-5.70698
-5.78619
-5.86486
-5.94334
-6.02035
-6.09398
-6.16324
-6.22789
-6.28793
-6.34337
-6.39424
-6.44062
-6.48259
-6.5203
-6.55383
-5.5932
-5.61548
-5.66514
-5.73169
-5.80334
-5.87581
-5.94854
-6.02033
-6.08957
-6.15514
-6.21669
-6.27402
-6.32713
-6.37595
-6.4206
-6.46117
-6.49784
-6.53074
-5.63944
-5.65785
-5.69923
-5.75664
-5.82067
-5.88681
-5.95368
-6.02016
-6.08475
-6.14643
-6.2046
-6.25909
-6.30969
-6.35646
-6.39939
-6.43865
-6.47435
-6.50671
-5.67827
-5.69375
-5.72882
-5.7787
-5.83591
-5.8961
-5.95752
-6.01896
-6.0791
-6.13691
-6.19179
-6.24341
-6.29164
-6.3364
-6.37776
-6.4158
-6.45068
-6.48256
-5.70367
-5.71723
-5.74827
-5.79307
-5.8453
-5.90089
-5.958
-6.01536
-6.07182
-6.12636
-6.17839
-6.22756
-6.27372
-6.31678
-6.3568
-6.39382
-6.42801
-6.45949
-5.70601
-5.71905
-5.74906
-5.79241
-5.84287
-5.89649
-5.95152
-6.00679
-6.06122
-6.11385
-6.16412
-6.21172
-6.25653
-6.29847
-6.33761
-6.374
-6.40779
-6.43914
-5.67649
-5.69123
-5.72483
-5.77214
-5.8257
-5.8814
-5.93797
-5.99438
-6.04957
-6.10252
-6.15287
-6.20033
-6.24493
-6.28659
-6.32547
-6.36165
-6.39532
-6.42666
-5.63219
-5.65003
-5.69017
-5.74466
-5.80371
-5.86347
-5.92335
-5.98263
-6.03994
-6.09441
-6.14569
-6.19379
-6.23869
-6.28056
-6.31947
-6.35568
-6.38932
-6.42069
-5.57439
-5.59756
-5.64835
-5.71318
-5.77936
-5.84425
-5.90873
-5.97194
-6.03222
-6.08872
-6.14139
-6.19039
-6.23583
-6.27791
-6.31691
-6.35316
-6.38689
-6.41834
-5.50522
-5.5368
-5.60329
-5.68113
-5.75501
-5.82561
-5.89548
-5.96317
-6.02659
-6.08525
-6.13947
-6.18955
-6.23568
-6.27799
-6.31689
-6.3529
-6.38645
-6.41772
-5.42564
-5.47049
-5.55867
-5.65079
-5.73179
-5.80861
-5.88477
-5.95722
-6.02358
-6.08419
-6.13979
-6.19079
-6.23755
-6.28032
-6.31935
-6.35512
-6.38828
-6.41933
-5.33553
-5.40183
-5.51787
-5.6236
-5.70963
-5.79253
-5.87562
-5.9531
-6.02245
-6.08491
-6.14198
-6.19384
-6.24063
-6.28317
-6.32241
-6.35846
-6.39106
-6.42078
-5.23327
-5.33261
-5.48353
-5.60152
-5.69061
-5.77862
-5.86747
-5.9488
-6.02089
-6.0853
-6.14404
-6.19786
-6.24557
-6.28751
-6.32623
-6.36338
-6.39695
-6.42651
-5.11643
-5.26403
-5.4518
-5.57771
-5.67203
-5.76791
-5.86235
-5.94621
-6.02007
-6.086
-6.14511
-6.19965
-6.24845
-6.29056
-6.32764
-6.36382
-6.39727
-6.42728
-4.98182
-5.22232
-5.43055
-5.54822
-5.64774
-5.75602
-5.8591
-5.9483
-6.02552
-6.09475
-6.15656
-6.21143
-6.26008
-6.30316
-6.34136
-6.37527
-6.40655
-6.43743
-4.80048
-5.20004
-5.43751
-5.53512
-5.63019
-5.74369
-5.85044
-5.94161
-6.02028
-6.09097
-6.15471
-6.20962
-6.25778
-6.30116
-6.33909
-6.36998
-6.39758
-6.4249
-4.54074
-5.13028
-5.43302
-5.54179
-5.64549
-5.76768
-5.87947
-5.97247
-6.05197
-6.12265
-6.18572
-6.23986
-6.28678
-6.32823
-6.36288
-6.38955
-6.41173
-6.43125
-7.37598
-7.37606
-7.37607
-7.376
-7.37566
-7.37448
-7.37212
-7.36902
-7.3661
-7.36429
-7.36453
-7.36699
-7.3712
-7.37644
-7.38197
-7.38715
-7.39146
-7.3945
-7.39627
-7.39711
-7.39728
-7.39695
-7.39635
-7.39572
-7.39526
-7.39505
-7.39499
-7.39494
-7.39476
-7.3944
-7.3939
-7.39326
-7.39241
-7.39129
-7.39001
-7.38889
-7.3886
-7.38973
-7.39223
-7.39534
-7.39811
-7.40011
-7.40158
-7.40305
-7.40503
-7.40804
-7.41175
-7.41514
-7.41772
-7.42128
-7.42937
-7.44593
-7.47127
-7.50419
-7.5445
-7.593
-7.64912
-7.71097
-7.77714
-7.84597
-7.91557
-7.98414
-8.05023
-8.11309
-8.17224
-8.22692
-8.27703
-8.32248
-8.36333
-8.39962
-8.43145
-8.45887
-8.48198
-8.50077
-8.51531
-8.52557
-8.53158
-8.5333
-8.53074
-8.52384
-8.51259
-8.49692
-8.47681
-8.45216
-8.42297
-8.38919
-8.35083
-8.30785
-8.26021
-8.20783
-8.1506
-8.08852
-8.02157
-7.94976
-7.87306
-7.79145
-7.70489
-7.61333
-7.51676
-7.41517
-7.30849
-7.19661
-7.07956
-6.9574
-6.83014
-6.69782
-6.56054
-6.41837
-6.27138
-6.11964
-5.96325
-5.8023
-5.6369
-5.46717
-5.29322
-5.11518
-4.93314
-4.74719
-4.55742
-4.36392
-4.16681
-3.96622
-3.76222
-3.5549
-3.34429
-3.13047
-2.91345
-2.69332
-2.47008
-2.2438
-2.01447
-1.78217
-1.54687
-1.30865
-1.06752
-0.823633
-0.577084
-0.328016
-0.0764187
0.177785
0.434578
0.693738
0.955083
1.21846
1.48368
1.75057
2.01891
2.28847
2.55902
2.83029
3.102
3.37384
3.64551
3.91666
4.18696
4.45605
4.7236
4.98925
5.25268
5.51352
5.77149
6.02623
6.27746
6.52487
6.76819
7.00713
7.24143
7.47084
7.69515
7.91416
8.12768
8.33554
8.53761
8.73378
8.92392
9.10801
9.28652
9.45937
9.62979
9.78923
-7.37709
-7.37724
-7.37754
-7.37785
-7.37778
-7.37697
-7.37517
-7.37291
-7.37136
-7.37138
-7.37327
-7.37686
-7.38166
-7.38705
-7.39244
-7.39735
-7.40143
-7.4045
-7.40637
-7.40686
-7.40609
-7.40438
-7.40216
-7.39986
-7.39787
-7.3964
-7.39544
-7.39479
-7.39424
-7.3937
-7.39319
-7.39269
-7.39211
-7.3914
-7.39058
-7.39014
-7.3908
-7.39293
-7.3961
-7.39923
-7.40129
-7.40202
-7.40197
-7.40131
-7.40018
-7.39993
-7.40283
-7.40958
-7.41653
-7.42312
-7.43323
-7.44854
-7.47006
-7.50048
-7.54198
-7.59383
-7.65381
-7.71997
-7.78984
-7.86089
-7.93119
-7.9992
-8.06434
-8.12572
-8.18238
-8.23453
-8.28223
-8.3255
-8.36446
-8.39916
-8.42969
-8.45608
-8.47838
-8.49658
-8.51069
-8.52069
-8.52655
-8.52823
-8.52571
-8.51892
-8.50785
-8.49242
-8.47259
-8.4483
-8.4195
-8.38615
-8.34825
-8.30577
-8.25866
-8.20684
-8.15023
-8.0888
-8.02253
-7.9514
-7.87539
-7.79448
-7.7086
-7.61771
-7.52173
-7.42058
-7.31422
-7.20273
-7.08617
-6.96454
-6.83791
-6.70631
-6.56976
-6.4283
-6.28202
-6.13097
-5.97525
-5.81496
-5.65019
-5.48107
-5.30772
-5.13026
-4.94879
-4.76341
-4.5742
-4.38126
-4.18472
-3.98468
-3.78124
-3.57446
-3.36441
-3.15114
-2.93469
-2.71513
-2.49248
-2.2668
-2.03811
-1.80644
-1.57179
-1.33419
-1.09367
-0.850236
-0.603923
-0.354849
-0.103165
0.150894
0.407235
0.665859
0.926673
1.18953
1.45425
1.72067
1.98856
2.25772
2.5279
2.79883
3.07025
3.34185
3.61332
3.88433
4.15454
4.4236
4.69117
4.95689
5.22044
5.48145
5.73963
5.99463
6.24617
6.49392
6.73762
6.97698
7.21175
7.44167
7.66652
7.8861
8.10023
8.30875
8.51156
8.70859
8.89973
9.08485
9.26426
9.43765
9.61057
9.76974
-7.37834
-7.37832
-7.37833
-7.37837
-7.37841
-7.37842
-7.37866
-7.37962
-7.38174
-7.38513
-7.38959
-7.39478
-7.40028
-7.40569
-7.41066
-7.41489
-7.41819
-7.42045
-7.42161
-7.42159
-7.42042
-7.41823
-7.41521
-7.41155
-7.40751
-7.40335
-7.39934
-7.39574
-7.39271
-7.39034
-7.38856
-7.38715
-7.38587
-7.38482
-7.38455
-7.3858
-7.38897
-7.39353
-7.39795
-7.40053
-7.4003
-7.39822
-7.39628
-7.39592
-7.39668
-7.39825
-7.40309
-7.41282
-7.42658
-7.4445
-7.46764
-7.49639
-7.5312
-7.57259
-7.62056
-7.67401
-7.73152
-7.79186
-7.85358
-7.91532
-7.97602
-8.03489
-8.09147
-8.14526
-8.19578
-8.24286
-8.28639
-8.3263
-8.36256
-8.39513
-8.42398
-8.44909
-8.47041
-8.48791
-8.50152
-8.51119
-8.51687
-8.51849
-8.51599
-8.50932
-8.49843
-8.48325
-8.46372
-8.4398
-8.41142
-8.37854
-8.34115
-8.29921
-8.25268
-8.20148
-8.14554
-8.08482
-8.01929
-7.94891
-7.87366
-7.79349
-7.70836
-7.61824
-7.52307
-7.42281
-7.31744
-7.20699
-7.09146
-6.97086
-6.84521
-6.71457
-6.57896
-6.43843
-6.29306
-6.14292
-5.98809
-5.82866
-5.66476
-5.49648
-5.32396
-5.14731
-4.96665
-4.78207
-4.59366
-4.40153
-4.2058
-4.00658
-3.80395
-3.59799
-3.38876
-3.17631
-2.96072
-2.74199
-2.5202
-2.29537
-2.06755
-1.83674
-1.60298
-1.36629
-1.12671
-0.884248
-0.638929
-0.390816
-0.140058
0.113142
0.368664
0.626475
0.886484
1.14855
1.41253
1.67823
1.94545
2.21398
2.48356
2.75396
3.02488
3.29605
3.56714
3.83784
4.1078
4.37668
4.64412
4.90977
5.1733
5.43437
5.69263
5.94777
6.19948
6.44746
6.69141
6.93107
7.16616
7.39643
7.62166
7.84164
8.05621
8.26518
8.4684
8.6658
8.85741
9.0432
9.22381
9.3982
9.57405
9.72905
-7.3795
-7.37922
-7.37887
-7.37886
-7.37995
-7.38256
-7.38653
-7.39151
-7.39713
-7.40307
-7.40906
-7.41486
-7.42027
-7.4251
-7.42919
-7.43241
-7.43466
-7.43587
-7.43602
-7.43508
-7.43307
-7.43005
-7.4261
-7.42131
-7.41577
-7.40961
-7.40305
-7.39637
-7.38993
-7.38409
-7.37909
-7.3751
-7.37241
-7.37157
-7.3733
-7.37769
-7.38347
-7.38867
-7.39192
-7.39295
-7.39245
-7.39201
-7.39312
-7.39646
-7.40247
-7.41184
-7.42539
-7.44379
-7.46714
-7.49509
-7.52722
-7.56329
-7.60319
-7.64671
-7.69353
-7.74311
-7.79486
-7.84815
-7.90225
-7.95638
-8.00986
-8.06209
-8.11263
-8.16105
-8.20701
-8.25026
-8.29062
-8.32792
-8.36208
-8.39296
-8.4205
-8.44459
-8.46516
-8.4821
-8.49534
-8.50479
-8.51036
-8.51197
-8.50955
-8.50303
-8.49233
-8.4774
-8.45818
-8.4346
-8.40662
-8.37418
-8.33726
-8.29582
-8.24983
-8.19921
-8.14389
-8.08383
-8.019
-7.94937
-7.87488
-7.79548
-7.71113
-7.62179
-7.52741
-7.42797
-7.32345
-7.21387
-7.09923
-6.97953
-6.85479
-6.72502
-6.59028
-6.4506
-6.30607
-6.15675
-6.00272
-5.8441
-5.68098
-5.51348
-5.34172
-5.16583
-4.98591
-4.80208
-4.61443
-4.42307
-4.22812
-4.02968
-3.82785
-3.62269
-3.41428
-3.20267
-2.98791
-2.77005
-2.54913
-2.32518
-2.09824
-1.86831
-1.63544
-1.39965
-1.16096
-0.91941
-0.675037
-0.427897
-0.178105
0.0741845
0.328855
0.585843
0.84505
1.10634
1.36957
1.63456
1.90111
2.16901
2.43801
2.70788
2.97831
3.24905
3.51977
3.79016
4.05987
4.32855
4.59586
4.86144
5.12495
5.38604
5.64438
5.89965
6.15152
6.3997
6.6439
6.88382
7.11919
7.34978
7.57536
7.7957
8.01064
8.22002
8.42371
8.62164
8.81386
9.00032
9.1818
9.35656
9.53334
9.68207
-7.38178
-7.38121
-7.38084
-7.38218
-7.38624
-7.39237
-7.39953
-7.40697
-7.41426
-7.4211
-7.42735
-7.43296
-7.43787
-7.442
-7.44529
-7.44764
-7.449
-7.44931
-7.44856
-7.44671
-7.44377
-7.43978
-7.43478
-7.42881
-7.42195
-7.41425
-7.40582
-7.39688
-7.38778
-7.37903
-7.37124
-7.36521
-7.36194
-7.36226
-7.36586
-7.37089
-7.3758
-7.3799
-7.38303
-7.38566
-7.38865
-7.39314
-7.40013
-7.41047
-7.4249
-7.44367
-7.46643
-7.49264
-7.52203
-7.55424
-7.58902
-7.62631
-7.66604
-7.70815
-7.75244
-7.79856
-7.84609
-7.89458
-7.94352
-7.99238
-8.0407
-8.08803
-8.13402
-8.17831
-8.22061
-8.26069
-8.29834
-8.33337
-8.36563
-8.39498
-8.42128
-8.44439
-8.46419
-8.48056
-8.49337
-8.50252
-8.5079
-8.50941
-8.50696
-8.50047
-8.48986
-8.47506
-8.45601
-8.43265
-8.40492
-8.37278
-8.3362
-8.29512
-8.24953
-8.19934
-8.14449
-8.08494
-8.02067
-7.95162
-7.87775
-7.799
-7.71533
-7.62668
-7.53302
-7.4343
-7.33051
-7.22166
-7.10774
-6.98874
-6.8647
-6.73563
-6.60156
-6.46255
-6.31866
-6.16997
-6.01658
-5.85857
-5.69606
-5.52916
-5.358
-5.18271
-5.00339
-4.82015
-4.63312
-4.4424
-4.24811
-4.05035
-3.8492
-3.64477
-3.43708
-3.22623
-3.01222
-2.79515
-2.57501
-2.35188
-2.12573
-1.89664
-1.66458
-1.42961
-1.19172
-0.950978
-0.707418
-0.461126
-0.212183
0.0392853
0.293186
0.549437
0.807939
1.06856
1.33116
1.59555
1.86155
2.12893
2.39748
2.66692
2.937
3.20742
3.47789
3.74806
4.01762
4.28619
4.55345
4.81903
5.08259
5.34377
5.60225
5.85769
6.10978
6.35819
6.60264
6.84285
7.07856
7.3095
7.53546
7.7562
7.97157
8.18139
8.38556
8.58399
8.77669
8.96356
9.14534
9.31969
9.49613
9.63797
-7.38599
-7.38512
-7.38561
-7.38989
-7.39713
-7.40543
-7.41382
-7.42184
-7.42923
-7.43592
-7.44189
-7.44713
-7.45159
-7.45521
-7.45791
-7.45964
-7.46035
-7.45999
-7.45855
-7.45601
-7.45238
-7.44767
-7.44191
-7.43508
-7.42718
-7.41831
-7.40863
-7.39835
-7.38786
-7.37786
-7.36923
-7.36318
-7.36058
-7.36111
-7.36337
-7.36628
-7.36978
-7.37422
-7.37986
-7.38668
-7.39502
-7.40601
-7.4206
-7.4389
-7.46064
-7.48542
-7.51295
-7.54286
-7.57489
-7.60885
-7.64459
-7.68206
-7.72117
-7.76181
-7.80385
-7.84705
-7.89112
-7.93574
-7.98059
-8.02531
-8.06956
-8.11302
-8.1554
-8.1964
-8.23577
-8.27327
-8.3087
-8.34184
-8.37252
-8.40055
-8.42577
-8.44802
-8.46713
-8.48295
-8.49535
-8.50418
-8.50932
-8.51066
-8.50809
-8.50153
-8.4909
-8.47612
-8.45712
-8.43386
-8.40626
-8.37429
-8.3379
-8.29707
-8.25174
-8.20185
-8.14734
-8.08817
-8.0243
-7.95569
-7.88229
-7.80404
-7.72089
-7.63279
-7.53968
-7.44153
-7.33831
-7.23001
-7.11662
-6.99815
-6.87461
-6.74603
-6.61243
-6.47387
-6.33042
-6.18216
-6.02918
-5.87158
-5.70948
-5.543
-5.37226
-5.19738
-5.01849
-4.8357
-4.64914
-4.45892
-4.26515
-4.06795
-3.8674
-3.66357
-3.45653
-3.24633
-3.03302
-2.81665
-2.59724
-2.37484
-2.14945
-1.9211
-1.6898
-1.45557
-1.21844
-0.978441
-0.735634
-0.490093
-0.241897
0.00885209
0.262073
0.517679
0.775577
1.03563
1.2977
1.56161
1.82717
2.09416
2.36236
2.6315
2.90134
3.17156
3.44188
3.71195
3.98145
4.25001
4.5173
4.78295
5.04663
5.30796
5.56662
5.82227
6.0746
6.32329
6.56805
6.8086
7.04465
7.27595
7.50227
7.7234
7.93915
8.14937
8.35392
8.5527
8.7457
8.93272
9.1144
9.28792
9.46372
9.59874
-7.39134
-7.39089
-7.39345
-7.4004
-7.40901
-7.41759
-7.42574
-7.43334
-7.44035
-7.44671
-7.4524
-7.45735
-7.46148
-7.46474
-7.46705
-7.46836
-7.46863
-7.46784
-7.46596
-7.46299
-7.45894
-7.45381
-7.44752
-7.44002
-7.43143
-7.42193
-7.41175
-7.4012
-7.3908
-7.38136
-7.37397
-7.36927
-7.36675
-7.36555
-7.3657
-7.3676
-7.37182
-7.37825
-7.38677
-7.39792
-7.41226
-7.42977
-7.45026
-7.47349
-7.49919
-7.52703
-7.55679
-7.58831
-7.62142
-7.65599
-7.69188
-7.72898
-7.76721
-7.80647
-7.84661
-7.88748
-7.9289
-7.97064
-8.01248
-8.05417
-8.09545
-8.13607
-8.17579
-8.21434
-8.25152
-8.28707
-8.32081
-8.3525
-8.38195
-8.40895
-8.43332
-8.45487
-8.47341
-8.48876
-8.50077
-8.50928
-8.51416
-8.51528
-8.51253
-8.50583
-8.49507
-8.4802
-8.46115
-8.43786
-8.41027
-8.37834
-8.34202
-8.30129
-8.2561
-8.20639
-8.15209
-8.09317
-8.02959
-7.96129
-7.88823
-7.81035
-7.72758
-7.63987
-7.54717
-7.44943
-7.34661
-7.23869
-7.12568
-7.00756
-6.88434
-6.75606
-6.62274
-6.48445
-6.34124
-6.19321
-6.04045
-5.88308
-5.7212
-5.55495
-5.38445
-5.20983
-5.03121
-4.84872
-4.66249
-4.47264
-4.2793
-4.08254
-3.88249
-3.67918
-3.47271
-3.2631
-3.05043
-2.83469
-2.61597
-2.39423
-2.16955
-1.94189
-1.71131
-1.47778
-1.24136
-1.00207
-0.759978
-0.515136
-0.267631
-0.0175357
0.235066
0.490103
0.74747
1.00705
1.26868
1.5322
1.79741
2.06412
2.33206
2.60101
2.87069
3.14083
3.41109
3.68116
3.95069
4.21933
4.48671
4.7525
5.01634
5.27788
5.53677
5.79269
6.04531
6.29432
6.53941
6.78029
7.01668
7.24833
7.47499
7.69645
7.91253
8.12306
8.3279
8.52692
8.72006
8.90703
9.08842
9.26095
9.43612
9.56466
-7.39575
-7.3965
-7.40155
-7.4096
-7.41792
-7.42586
-7.43343
-7.44058
-7.44726
-7.45338
-7.45885
-7.46358
-7.46751
-7.47055
-7.47264
-7.47373
-7.47378
-7.47277
-7.47069
-7.46754
-7.46332
-7.45792
-7.45126
-7.44353
-7.43495
-7.42565
-7.41589
-7.40616
-7.39723
-7.3898
-7.38412
-7.37962
-7.3759
-7.37366
-7.37376
-7.37642
-7.38202
-7.39093
-7.40319
-7.41865
-7.43703
-7.45812
-7.48162
-7.50727
-7.53483
-7.56408
-7.59485
-7.62701
-7.66042
-7.69495
-7.7305
-7.76698
-7.8043
-7.84235
-7.88104
-7.92022
-7.95976
-7.99951
-8.03928
-8.07889
-8.11813
-8.15679
-8.19467
-8.23153
-8.26718
-8.30139
-8.33394
-8.36461
-8.3932
-8.41948
-8.44324
-8.46427
-8.48237
-8.49735
-8.50903
-8.51724
-8.52185
-8.52271
-8.51972
-8.51279
-8.50183
-8.48677
-8.46755
-8.44412
-8.41641
-8.3844
-8.34804
-8.30729
-8.26211
-8.21245
-8.15825
-8.09946
-8.03605
-7.96795
-7.89512
-7.81749
-7.73499
-7.64756
-7.55513
-7.45766
-7.3551
-7.24743
-7.13464
-7.01671
-6.89367
-6.76552
-6.63231
-6.4941
-6.35097
-6.203
-6.0503
-5.89299
-5.73118
-5.565
-5.39459
-5.22008
-5.0416
-4.85929
-4.67328
-4.4837
-4.29067
-4.09429
-3.89465
-3.69182
-3.48585
-3.27679
-3.06469
-2.84956
-2.63146
-2.41038
-2.18635
-1.95936
-1.72945
-1.4966
-1.26087
-1.02227
-0.780854
-0.536681
-0.289819
-0.0403313
0.211708
0.46623
0.723127
0.982286
1.24355
1.50675
1.77169
2.03817
2.30595
2.57478
2.84439
3.11451
3.3848
3.65493
3.92454
4.19331
4.46085
4.72684
4.9909
5.25271
5.51188
5.76811
6.02106
6.27041
6.51585
6.75708
6.99381
7.22578
7.45277
7.67454
7.89092
8.10171
8.30678
8.50595
8.69914
8.88595
9.06694
9.23844
9.41303
9.53562
-7.39752
-7.39984
-7.40643
-7.41424
-7.42185
-7.42922
-7.43637
-7.44324
-7.44971
-7.45569
-7.46106
-7.46572
-7.46959
-7.47257
-7.47462
-7.47568
-7.47573
-7.47474
-7.47269
-7.46957
-7.46533
-7.45986
-7.45331
-7.44593
-7.4379
-7.42945
-7.42105
-7.41319
-7.40623
-7.40021
-7.39495
-7.39035
-7.38681
-7.38529
-7.38653
-7.39099
-7.39895
-7.41038
-7.425
-7.44259
-7.46285
-7.48549
-7.51025
-7.53686
-7.56512
-7.59486
-7.62591
-7.65815
-7.69145
-7.72569
-7.76081
-7.79668
-7.83324
-7.87038
-7.90802
-7.94606
-7.98437
-8.02282
-8.06127
-8.09956
-8.13751
-8.17495
-8.21168
-8.24751
-8.28222
-8.31561
-8.34746
-8.37753
-8.40561
-8.43145
-8.45483
-8.47552
-8.49332
-8.50802
-8.51943
-8.52737
-8.53168
-8.53224
-8.52895
-8.52172
-8.51046
-8.49512
-8.47563
-8.45195
-8.42401
-8.3918
-8.35526
-8.31438
-8.26911
-8.2194
-8.16519
-8.10643
-8.0431
-7.97511
-7.90242
-7.82494
-7.74261
-7.65535
-7.5631
-7.46578
-7.36336
-7.25581
-7.14311
-7.02525
-6.90223
-6.77408
-6.64085
-6.50258
-6.35938
-6.21133
-6.05855
-5.90116
-5.73928
-5.57306
-5.40262
-5.2281
-5.04965
-4.86741
-4.68152
-4.49214
-4.29937
-4.10331
-3.90402
-3.70162
-3.4961
-3.28756
-3.07598
-2.86146
-2.64394
-2.42349
-2.20008
-1.97375
-1.74447
-1.5123
-1.27722
-1.03929
-0.798532
-0.555007
-0.308756
-0.0598438
0.191678
0.445723
0.702206
0.960991
1.22194
1.48488
1.74961
2.01592
2.28359
2.55235
2.82196
3.09211
3.3625
3.63274
3.9025
4.17144
4.4392
4.70543
4.96978
5.23187
5.49138
5.74794
6.00125
6.25096
6.49677
6.73834
6.97541
7.2077
7.43499
7.65704
7.87367
8.08469
8.28993
8.4892
8.68235
8.86893
9.04946
9.21992
9.39397
9.51122
-7.39518
-7.39882
-7.40565
-7.4129
-7.42007
-7.42717
-7.43416
-7.44092
-7.44737
-7.45337
-7.45881
-7.46357
-7.46756
-7.47069
-7.4729
-7.47412
-7.47433
-7.47348
-7.47158
-7.46859
-7.46448
-7.45931
-7.45327
-7.44665
-7.43969
-7.4327
-7.42598
-7.41962
-7.41372
-7.40838
-7.40373
-7.40012
-7.39813
-7.39847
-7.40164
-7.40792
-7.41746
-7.43021
-7.44595
-7.46444
-7.48542
-7.5086
-7.53372
-7.56056
-7.58892
-7.61865
-7.64961
-7.68165
-7.71468
-7.7486
-7.7833
-7.8187
-7.85471
-7.89125
-7.92825
-7.9656
-8.00321
-8.04094
-8.07868
-8.11627
-8.15357
-8.19041
-8.22659
-8.26194
-8.29624
-8.32928
-8.36085
-8.39069
-8.41856
-8.44421
-8.46741
-8.48791
-8.5055
-8.51997
-8.53112
-8.53876
-8.54276
-8.54297
-8.53932
-8.53171
-8.52009
-8.50438
-8.48453
-8.4605
-8.43225
-8.39974
-8.36294
-8.32182
-8.27636
-8.22651
-8.1722
-8.1134
-8.05005
-7.9821
-7.90947
-7.83207
-7.74982
-7.66265
-7.57047
-7.47322
-7.37084
-7.26331
-7.1506
-7.03269
-6.9096
-6.78134
-6.64796
-6.50953
-6.36614
-6.2179
-6.06493
-5.90736
-5.74531
-5.57894
-5.40837
-5.23376
-5.05526
-4.87302
-4.68722
-4.49798
-4.30542
-4.10964
-3.9107
-3.70867
-3.50361
-3.29555
-3.08451
-2.87053
-2.65361
-2.43377
-2.21098
-1.98528
-1.75665
-1.52512
-1.29071
-1.05343
-0.813314
-0.570409
-0.324745
-0.0763723
0.174659
0.428267
0.684361
0.94281
1.20347
1.46617
1.73072
1.99689
2.26448
2.53321
2.80284
3.07309
3.34361
3.614
3.88396
4.15311
4.42113
4.68764
4.9523
5.21473
5.47459
5.73152
5.9852
6.2353
6.48149
6.72342
6.96082
7.19342
7.421
7.64331
7.86017
8.07139
8.27676
8.47608
8.66913
8.85542
9.03545
9.2049
9.37843
9.49101
-7.38684
-7.39114
-7.39773
-7.40482
-7.41206
-7.41926
-7.42635
-7.43325
-7.43986
-7.44605
-7.45171
-7.45671
-7.46094
-7.46431
-7.46673
-7.46817
-7.46859
-7.46796
-7.4663
-7.46361
-7.45996
-7.45548
-7.45039
-7.4449
-7.43918
-7.43339
-7.42772
-7.42231
-7.41727
-7.41288
-7.4095
-7.40753
-7.40736
-7.40946
-7.41424
-7.42192
-7.43258
-7.44617
-7.46253
-7.48144
-7.50265
-7.52591
-7.55099
-7.5777
-7.60589
-7.6354
-7.66609
-7.69787
-7.73061
-7.76421
-7.7986
-7.83368
-7.86938
-7.90563
-7.94234
-7.97941
-8.01675
-8.05425
-8.09179
-8.12922
-8.1664
-8.20315
-8.23929
-8.2746
-8.3089
-8.34196
-8.37354
-8.4034
-8.43129
-8.45696
-8.48012
-8.50055
-8.51801
-8.53229
-8.54318
-8.55051
-8.55413
-8.55394
-8.54985
-8.54179
-8.52971
-8.51355
-8.49327
-8.46881
-8.44015
-8.40726
-8.37011
-8.32868
-8.28294
-8.23287
-8.1784
-8.11949
-8.05608
-7.9881
-7.91546
-7.83808
-7.75587
-7.66872
-7.57655
-7.47929
-7.37688
-7.2693
-7.15649
-7.03847
-6.91521
-6.78676
-6.65315
-6.51447
-6.37082
-6.22232
-6.06908
-5.91125
-5.74897
-5.58238
-5.41163
-5.23688
-5.05829
-4.87604
-4.69029
-4.50118
-4.30884
-4.11332
-3.91473
-3.71307
-3.50845
-3.30086
-3.09036
-2.87693
-2.66062
-2.44136
-2.21922
-1.99413
-1.76615
-1.53528
-1.30154
-1.06492
-0.825453
-0.583166
-0.338091
-0.0902511
0.160291
0.413473
0.669185
0.927315
1.1877
1.45018
1.71456
1.98064
2.24817
2.51692
2.78661
3.05701
3.32771
3.59831
3.86848
4.1379
4.4062
4.67303
4.93803
5.20083
5.46106
5.71837
5.97244
6.22295
6.46953
6.71182
6.94954
7.18244
7.41028
7.63284
7.8499
8.06128
8.26676
8.46608
8.659
8.84496
9.02445
9.19293
9.36593
9.47452
-7.37093
-7.37528
-7.38195
-7.38965
-7.39747
-7.40509
-7.41246
-7.41961
-7.42648
-7.43298
-7.43895
-7.44426
-7.44876
-7.45239
-7.45508
-7.45679
-7.4575
-7.45724
-7.45603
-7.45391
-7.45098
-7.44738
-7.44324
-7.43876
-7.43407
-7.42931
-7.42462
-7.4202
-7.41632
-7.41329
-7.41137
-7.41092
-7.41233
-7.41597
-7.42213
-7.43098
-7.44256
-7.45681
-7.47358
-7.49268
-7.5139
-7.53704
-7.56191
-7.58837
-7.61626
-7.64546
-7.67586
-7.70734
-7.7398
-7.77316
-7.80735
-7.84229
-7.87792
-7.91415
-7.95089
-7.98804
-8.0255
-8.06315
-8.10087
-8.13852
-8.17595
-8.21298
-8.24942
-8.28506
-8.31968
-8.35306
-8.38493
-8.41505
-8.44316
-8.46897
-8.4922
-8.51259
-8.52992
-8.54398
-8.55457
-8.5615
-8.56463
-8.56389
-8.55924
-8.55064
-8.53802
-8.52135
-8.50055
-8.47561
-8.44648
-8.41316
-8.3756
-8.33378
-8.28771
-8.23737
-8.1827
-8.12364
-8.06012
-7.99208
-7.91942
-7.84203
-7.75982
-7.67266
-7.58047
-7.48316
-7.38069
-7.273
-7.16007
-7.04189
-6.91843
-6.78974
-6.65587
-6.51691
-6.37296
-6.22415
-6.07062
-5.9125
-5.74995
-5.58313
-5.41219
-5.23729
-5.05863
-4.87638
-4.69071
-4.50176
-4.30964
-4.11442
-3.91616
-3.71491
-3.51073
-3.30364
-3.09367
-2.88081
-2.6651
-2.44649
-2.22499
-2.00058
-1.77329
-1.54312
-1.31008
-1.07415
-0.835367
-0.593723
-0.349238
-0.101939
0.148117
0.400866
0.656202
0.914015
1.17414
1.43643
1.70067
1.96667
2.23418
2.50296
2.77276
3.04337
3.31432
3.58515
3.85556
4.12525
4.39386
4.66104
4.9264
5.18958
5.4502
5.7079
5.96237
6.21332
6.46032
6.70296
6.941
7.17419
7.40229
7.62507
7.84232
8.05385
8.25942
8.45873
8.65148
8.83708
9.01604
9.18358
9.35601
9.46129
-7.34695
-7.35109
-7.35853
-7.36747
-7.37622
-7.38434
-7.39203
-7.39951
-7.40679
-7.41376
-7.42019
-7.42588
-7.4307
-7.43461
-7.43758
-7.43962
-7.44075
-7.44097
-7.44034
-7.43892
-7.43679
-7.43409
-7.43093
-7.42745
-7.42377
-7.42005
-7.4165
-7.41334
-7.4108
-7.40913
-7.40865
-7.40971
-7.41262
-7.41769
-7.42511
-7.435
-7.44737
-7.46214
-7.47918
-7.49834
-7.51944
-7.54234
-7.5669
-7.593
-7.62052
-7.64938
-7.67946
-7.71068
-7.74293
-7.77614
-7.81025
-7.84518
-7.88088
-7.91726
-7.95423
-7.99168
-8.02952
-8.06763
-8.10586
-8.14405
-8.18203
-8.21964
-8.25668
-8.29291
-8.32812
-8.36203
-8.39441
-8.42495
-8.45336
-8.47932
-8.50253
-8.52274
-8.53977
-8.55345
-8.56355
-8.56987
-8.5723
-8.57084
-8.56552
-8.55631
-8.54316
-8.52598
-8.50469
-8.47926
-8.44967
-8.41592
-8.37795
-8.33573
-8.28929
-8.23864
-8.18373
-8.12447
-8.06082
-7.99271
-7.92003
-7.84266
-7.76046
-7.67331
-7.58109
-7.48373
-7.38119
-7.27342
-7.16039
-7.04206
-6.91842
-6.78951
-6.65538
-6.51614
-6.37191
-6.22282
-6.06902
-5.91063
-5.74783
-5.5808
-5.4097
-5.23471
-5.05602
-4.87382
-4.68826
-4.49951
-4.30764
-4.11273
-3.91482
-3.714
-3.51028
-3.30373
-3.09432
-2.88211
-2.66705
-2.44916
-2.22838
-2.00473
-1.7782
-1.54882
-1.31654
-1.08138
-0.843319
-0.60235
-0.358478
-0.111745
0.137812
0.39011
0.645068
0.90255
1.16243
1.42451
1.68863
1.95454
2.22205
2.49087
2.76081
3.03174
3.30304
3.57411
3.84479
4.11477
4.38372
4.65126
4.91702
5.1806
5.44162
5.69972
5.95462
6.20604
6.45348
6.69648
6.93482
7.16827
7.39662
7.6196
7.83701
8.04867
8.25433
8.4536
8.64617
8.83139
9.0098
9.17645
9.34826
9.45088
-7.31574
-7.32009
-7.32886
-7.33942
-7.34918
-7.35783
-7.36604
-7.37404
-7.38178
-7.38925
-7.39629
-7.40254
-7.4077
-7.41177
-7.41495
-7.41732
-7.41887
-7.41963
-7.41963
-7.41894
-7.41766
-7.41587
-7.41369
-7.41124
-7.40869
-7.40619
-7.40392
-7.40209
-7.40094
-7.40076
-7.40183
-7.40443
-7.40884
-7.41526
-7.42383
-7.43461
-7.4476
-7.46273
-7.47989
-7.49897
-7.51986
-7.54243
-7.56658
-7.59221
-7.61926
-7.64766
-7.67732
-7.70818
-7.74016
-7.77322
-7.80729
-7.8423
-7.87818
-7.91485
-7.95221
-7.99017
-8.02861
-8.06738
-8.10634
-8.14531
-8.18409
-8.22248
-8.26025
-8.29719
-8.33302
-8.36749
-8.40029
-8.43113
-8.45967
-8.48557
-8.50848
-8.52819
-8.54464
-8.5577
-8.56712
-8.57255
-8.57394
-8.57156
-8.56556
-8.55587
-8.54237
-8.52487
-8.50325
-8.47746
-8.44751
-8.41342
-8.37514
-8.33258
-8.28581
-8.23489
-8.17968
-8.12015
-8.05632
-7.98813
-7.91543
-7.83809
-7.75592
-7.66877
-7.57651
-7.4791
-7.37648
-7.26864
-7.15551
-7.03706
-6.91325
-6.78411
-6.64972
-6.5102
-6.36569
-6.21635
-6.06231
-5.90372
-5.74074
-5.57356
-5.40235
-5.22732
-5.04866
-4.86655
-4.68112
-4.4925
-4.30081
-4.10613
-3.90854
-3.70811
-3.50487
-3.29887
-3.09012
-2.87862
-2.66434
-2.44728
-2.22738
-2.00466
-1.77908
-1.5506
-1.31921
-1.08492
-0.847668
-0.607461
-0.364304
-0.118234
0.130709
0.382451
0.636907
0.89395
1.15344
1.41521
1.67906
1.94478
2.21213
2.48086
2.75081
3.02193
3.29352
3.5648
3.83571
4.10598
4.37526
4.64316
4.90931
5.17329
5.43473
5.69326
5.94866
6.20064
6.44854
6.69188
6.93051
7.16424
7.39283
7.61602
7.83361
8.04542
8.25117
8.45041
8.64276
8.82759
9.00546
9.17125
9.34236
9.44299
-7.27981
-7.28498
-7.29562
-7.30819
-7.31908
-7.32809
-7.33645
-7.34493
-7.35342
-7.36157
-7.36915
-7.37585
-7.38122
-7.3853
-7.38852
-7.39109
-7.39298
-7.3942
-7.3948
-7.39482
-7.39435
-7.3935
-7.39236
-7.39108
-7.38977
-7.38859
-7.38773
-7.38741
-7.38785
-7.3893
-7.392
-7.39617
-7.40201
-7.40965
-7.41918
-7.43064
-7.44401
-7.45924
-7.47629
-7.49506
-7.51548
-7.53747
-7.56097
-7.58594
-7.61232
-7.64008
-7.66917
-7.69955
-7.73119
-7.76404
-7.79806
-7.83318
-7.86933
-7.90641
-7.94432
-7.98292
-8.02208
-8.0616
-8.10132
-8.14102
-8.1805
-8.21953
-8.25787
-8.29528
-8.33149
-8.36622
-8.39915
-8.42997
-8.45834
-8.48381
-8.50592
-8.52457
-8.54
-8.55224
-8.56082
-8.56506
-8.56497
-8.56137
-8.55471
-8.54479
-8.53123
-8.51373
-8.49205
-8.46611
-8.436
-8.40186
-8.36371
-8.32149
-8.27513
-8.22449
-8.16945
-8.10999
-8.04618
-7.97797
-7.90528
-7.82794
-7.74579
-7.65862
-7.56633
-7.46885
-7.36616
-7.25821
-7.14495
-7.02633
-6.9023
-6.77288
-6.63817
-6.49832
-6.35346
-6.20376
-6.04938
-5.89049
-5.72724
-5.5598
-5.38839
-5.21324
-5.03453
-4.8524
-4.66702
-4.47846
-4.28688
-4.09236
-3.89503
-3.69492
-3.49213
-3.28664
-3.07851
-2.86767
-2.65417
-2.4379
-2.2189
-1.99708
-1.77242
-1.54485
-1.31438
-1.08096
-0.844558
-0.605151
-0.362767
-0.117422
0.13083
0.381938
0.635796
0.892305
1.1513
1.41263
1.67608
1.94145
2.20846
2.47688
2.7464
3.01675
3.28766
3.55878
3.82972
4.10011
4.36956
4.63766
4.90403
5.16825
5.42994
5.68878
5.94456
6.19694
6.44517
6.68876
6.92764
7.16163
7.39047
7.61389
7.83172
8.04374
8.24961
8.44879
8.64092
8.82534
9.00269
9.16765
9.33802
9.43728
-7.24135
-7.24768
-7.26069
-7.2753
-7.28664
-7.29584
-7.30489
-7.3141
-7.32308
-7.33158
-7.3394
-7.3462
-7.35155
-7.35557
-7.35878
-7.36148
-7.36364
-7.36528
-7.36645
-7.36721
-7.36764
-7.36784
-7.36789
-7.36793
-7.36807
-7.36846
-7.36925
-7.37063
-7.37277
-7.37589
-7.38015
-7.38571
-7.39269
-7.40121
-7.4113
-7.423
-7.43631
-7.4512
-7.46766
-7.48565
-7.50515
-7.52616
-7.54867
-7.57268
-7.59816
-7.62511
-7.6535
-7.68334
-7.7146
-7.74726
-7.78126
-7.81653
-7.85298
-7.89047
-7.92887
-7.96802
-8.00775
-8.04784
-8.08809
-8.12828
-8.16817
-8.20753
-8.24611
-8.28364
-8.31988
-8.35453
-8.38731
-8.41789
-8.44585
-8.47053
-8.49104
-8.50741
-8.52086
-8.53197
-8.54023
-8.54484
-8.54543
-8.54228
-8.53567
-8.52559
-8.51182
-8.4941
-8.47215
-8.44586
-8.41545
-8.38115
-8.34301
-8.30106
-8.25509
-8.20477
-8.15
-8.0908
-8.02716
-7.95908
-7.88649
-7.80927
-7.72725
-7.64021
-7.54805
-7.45071
-7.34813
-7.24026
-7.12703
-7.00839
-6.88429
-6.75475
-6.61989
-6.47984
-6.33476
-6.1848
-6.03014