/*--------------------------------*- C++ -*----------------------------------*\
  =========                 |
  \\      /  F ield         | OpenFOAM: The Open Source CFD Toolbox
   \\    /   O peration     | Website:  https://openfoam.org
    \\  /    A nd           | Version:  13
     \\/     M anipulation  |
\*---------------------------------------------------------------------------*/
FoamFile
{
    format      ascii;
    class       surfaceScalarField;
    location    "400";
    object      phi;
}
// * * * * * * * * * * * * * * * * * * * * * * * * * * * * * * * * * * * * * //

dimensions      [0 3 -1 0 0 0 0];

internalField   nonuniform List<scalar> 
24170
(
3.05714e-06
1.31273e-07
2.9154e-06
1.4177e-07
2.78591e-06
1.29486e-07
2.66531e-06
1.20573e-07
2.55305e-06
1.12303e-07
2.45319e-06
9.98854e-08
2.37006e-06
8.31181e-08
2.29883e-06
7.12235e-08
2.23627e-06
6.2586e-08
2.1822e-06
5.40888e-08
2.13666e-06
4.55488e-08
2.09735e-06
3.93183e-08
2.06105e-06
3.63139e-08
2.02834e-06
3.27207e-08
2.00059e-06
2.77663e-08
1.97681e-06
2.3778e-08
1.95966e-06
1.71547e-08
7.64278e-09
1.95202e-06
3.47282e-06
7.5717e-08
3.50486e-06
1.09785e-07
3.52258e-06
1.11797e-07
3.5293e-06
1.1386e-07
3.52343e-06
1.18217e-07
3.50578e-06
1.17556e-07
3.48042e-06
1.08491e-07
3.44931e-06
1.02346e-07
3.4167e-06
9.52238e-08
3.38524e-06
8.55709e-08
3.35436e-06
7.64475e-08
3.32336e-06
7.0326e-08
3.29245e-06
6.72384e-08
3.26172e-06
6.34676e-08
3.23305e-06
5.64408e-08
3.20812e-06
4.87224e-08
3.18563e-06
3.96436e-08
3.00748e-08
3.16321e-06
3.68268e-06
5.55613e-08
3.69987e-06
9.25947e-08
3.71394e-06
9.77056e-08
3.72729e-06
1.00488e-07
3.74102e-06
1.04517e-07
3.75397e-06
1.04632e-07
3.76353e-06
9.89184e-08
3.77153e-06
9.43342e-08
3.77802e-06
8.87468e-08
3.78211e-06
8.14969e-08
3.78387e-06
7.46915e-08
3.78437e-06
6.98271e-08
3.78489e-06
6.67264e-08
3.7852e-06
6.31658e-08
3.78439e-06
5.726e-08
3.78292e-06
5.01878e-08
3.78049e-06
4.20803e-08
3.32265e-08
3.77735e-06
3.93701e-06
4.39413e-08
3.94851e-06
8.11279e-08
3.95711e-06
8.91307e-08
3.96455e-06
9.30509e-08
3.97223e-06
9.68689e-08
3.97986e-06
9.70149e-08
3.98605e-06
9.27302e-08
3.99228e-06
8.8111e-08
3.99851e-06
8.25319e-08
4.00409e-06
7.59341e-08
4.00897e-06
6.98254e-08
4.01368e-06
6.51182e-08
4.01893e-06
6.14905e-08
4.02453e-06
5.75736e-08
4.02969e-06
5.2103e-08
4.03424e-06
4.56531e-08
4.03787e-06
3.84538e-08
3.11874e-08
4.03992e-06
4.21545e-06
3.56183e-08
4.22532e-06
7.12634e-08
4.23284e-06
8.15912e-08
4.23913e-06
8.67355e-08
4.24535e-06
9.06671e-08
4.25131e-06
9.1078e-08
4.25618e-06
8.7845e-08
4.26074e-06
8.35429e-08
4.26501e-06
7.82757e-08
4.26862e-06
7.23358e-08
4.27172e-06
6.67323e-08
4.27479e-06
6.20403e-08
4.27832e-06
5.79693e-08
4.28218e-06
5.37157e-08
4.28584e-06
4.84496e-08
4.28904e-06
4.24517e-08
4.29152e-06
3.59895e-08
2.95968e-08
4.29312e-06
4.51543e-06
2.92789e-08
4.5244e-06
6.23124e-08
4.53166e-06
7.43444e-08
4.5379e-06
8.05054e-08
4.54402e-06
8.45652e-08
4.5498e-06
8.53083e-08
4.55478e-06
8.28714e-08
4.55937e-06
7.8948e-08
4.56357e-06
7.40923e-08
4.56715e-06
6.87637e-08
4.57027e-06
6.3618e-08
4.57332e-06
5.89953e-08
4.57659e-06
5.47089e-08
4.58002e-06
5.02932e-08
4.58323e-06
4.52372e-08
4.58602e-06
3.96756e-08
4.58812e-06
3.38982e-08
2.82747e-08
4.58945e-06
4.83773e-06
2.42681e-08
4.84586e-06
5.41837e-08
4.85295e-06
6.72371e-08
4.85931e-06
7.41286e-08
4.86558e-06
7.83096e-08
4.87148e-06
7.94275e-08
4.87671e-06
7.76336e-08
4.88147e-06
7.418e-08
4.88577e-06
6.97994e-08
4.88956e-06
6.4983e-08
4.89296e-06
6.02244e-08
4.89622e-06
5.57333e-08
4.89952e-06
5.14083e-08
4.90285e-06
4.69694e-08
4.90594e-06
4.21449e-08
4.90861e-06
3.70147e-08
4.91069e-06
3.18258e-08
2.68396e-08
4.91213e-06
5.18361e-06
2.02387e-08
5.19091e-06
4.68994e-08
5.1978e-06
6.03535e-08
5.20426e-06
6.76824e-08
5.21065e-06
7.19276e-08
5.21672e-06
7.33725e-08
5.22221e-06
7.21412e-08
5.22719e-06
6.92064e-08
5.23168e-06
6.53091e-08
5.23572e-06
6.0951e-08
5.2394e-06
5.65472e-08
5.24289e-06
5.22484e-08
5.24629e-06
4.80131e-08
5.24958e-06
4.368e-08
5.25261e-06
3.91268e-08
5.25521e-06
3.44175e-08
5.2573e-06
2.9748e-08
2.5297e-08
5.25884e-06
5.55461e-06
1.6968e-08
5.56113e-06
4.03816e-08
5.56776e-06
5.37047e-08
5.57422e-06
6.12136e-08
5.58069e-06
6.54664e-08
5.58694e-06
6.71379e-08
5.59269e-06
6.6387e-08
5.59792e-06
6.39758e-08
5.60265e-06
6.05763e-08
5.60693e-06
5.66764e-08
5.61086e-06
5.26213e-08
5.61456e-06
4.8553e-08
5.61808e-06
4.44933e-08
5.6214e-06
4.03624e-08
5.62441e-06
3.61111e-08
5.62703e-06
3.18118e-08
5.62917e-06
2.76057e-08
2.36365e-08
5.63085e-06
5.95247e-06
1.42753e-08
5.95825e-06
3.4613e-08
5.9646e-06
4.73638e-08
5.97099e-06
5.4828e-08
5.97747e-06
5.90031e-08
5.98382e-06
6.07917e-08
5.9898e-06
6.04159e-08
5.99529e-06
5.84851e-08
6.00029e-06
5.55784e-08
6.00484e-06
5.21378e-08
6.00901e-06
4.84503e-08
6.0129e-06
4.46643e-08
6.01656e-06
4.08404e-08
6.01995e-06
3.69701e-08
6.02302e-06
3.30469e-08
6.02569e-06
2.91426e-08
6.02794e-06
2.53645e-08
2.18222e-08
6.02976e-06
6.37906e-06
1.20277e-08
6.38418e-06
2.94949e-08
6.39022e-06
4.13184e-08
6.3965e-06
4.85413e-08
6.40294e-06
5.25738e-08
6.40933e-06
5.44036e-08
6.41545e-06
5.43038e-08
6.42116e-06
5.27725e-08
6.42643e-06
5.03116e-08
6.43127e-06
4.73023e-08
6.43573e-06
4.39985e-08
6.43985e-06
4.05427e-08
6.44368e-06
3.70191e-08
6.4472e-06
3.34524e-08
6.45037e-06
2.98798e-08
6.45315e-06
2.63635e-08
6.45553e-06
2.29848e-08
1.98359e-08
6.45753e-06
5.74247e-06
1.03948e-08
5.74635e-06
2.56125e-08
5.75122e-06
3.64479e-08
5.75644e-06
4.33336e-08
5.76182e-06
4.71994e-08
5.76722e-06
4.90113e-08
5.77245e-06
4.9076e-08
5.7774e-06
4.78241e-08
5.78203e-06
4.56943e-08
5.78631e-06
4.30233e-08
5.79027e-06
4.00375e-08
5.79394e-06
3.68814e-08
5.79732e-06
3.36356e-08
5.80042e-06
3.03591e-08
5.8032e-06
2.70903e-08
5.80567e-06
2.39005e-08
5.80781e-06
2.08475e-08
1.80124e-08
5.80964e-06
6.99977e-06
8.78673e-09
7.0038e-06
2.15753e-08
7.00908e-06
3.11731e-08
7.01488e-06
3.75377e-08
7.02094e-06
4.1139e-08
7.02709e-06
4.28739e-08
7.03311e-06
4.30591e-08
7.03887e-06
4.20636e-08
7.04431e-06
4.02601e-08
7.0494e-06
3.79403e-08
7.05414e-06
3.53072e-08
7.05853e-06
3.24911e-08
7.06258e-06
2.95872e-08
7.06629e-06
2.66508e-08
7.06964e-06
2.37454e-08
7.07262e-06
2.09209e-08
7.07524e-06
1.82349e-08
1.57508e-08
7.07751e-06
8.53245e-06
7.18445e-09
8.53656e-06
1.74598e-08
8.54218e-06
2.55572e-08
8.54854e-06
3.11796e-08
8.55529e-06
3.43947e-08
8.56219e-06
3.59752e-08
8.56903e-06
3.6228e-08
8.57564e-06
3.54562e-08
8.58194e-06
3.39667e-08
8.58788e-06
3.20033e-08
8.59344e-06
2.97465e-08
8.59863e-06
2.73139e-08
8.60342e-06
2.47962e-08
8.60781e-06
2.22585e-08
8.61181e-06
1.97566e-08
8.61539e-06
1.73422e-08
8.61858e-06
1.50551e-08
1.29547e-08
8.62138e-06
1.04008e-05
5.57793e-09
1.0405e-05
1.33064e-08
1.04109e-05
1.96556e-08
1.04178e-05
2.42878e-08
1.04252e-05
2.69658e-08
1.04329e-05
2.83009e-08
1.04406e-05
2.85523e-08
1.04481e-05
2.79659e-08
1.04553e-05
2.67713e-08
1.04621e-05
2.51736e-08
1.04685e-05
2.33119e-08
1.04745e-05
2.13014e-08
1.04801e-05
1.92132e-08
1.04853e-05
1.71183e-08
1.049e-05
1.50594e-08
1.04942e-05
1.30882e-08
1.04981e-05
1.12275e-08
9.5333e-09
1.05015e-05
1.26784e-05
3.95043e-09
1.26826e-05
9.10349e-09
1.26888e-05
1.34886e-08
1.26962e-05
1.68744e-08
1.27043e-05
1.88432e-08
1.27128e-05
1.98167e-08
1.27214e-05
1.99885e-08
1.27298e-05
1.95312e-08
1.2738e-05
1.86141e-08
1.27458e-05
1.73773e-08
1.27532e-05
1.59384e-08
1.27601e-05
1.43768e-08
1.27666e-05
1.27637e-08
1.27725e-05
1.11455e-08
1.2778e-05
9.5703e-09
1.2783e-05
8.0662e-09
1.27876e-05
6.6623e-09
5.38674e-09
1.27917e-05
1.54549e-05
2.27637e-09
1.54592e-05
4.75678e-09
1.54657e-05
6.98502e-09
1.54737e-05
8.87844e-09
1.54826e-05
9.94787e-09
1.5492e-05
1.04328e-08
1.55016e-05
1.04329e-08
1.5511e-05
1.00482e-08
1.55203e-05
9.37637e-09
1.55292e-05
8.50216e-09
1.55376e-05
7.49858e-09
1.55456e-05
6.41988e-09
1.5553e-05
5.31276e-09
1.556e-05
4.21225e-09
1.55664e-05
3.14957e-09
1.55723e-05
2.14629e-09
1.55778e-05
1.21897e-09
3.892e-10
1.55828e-05
1.88394e-05
4.84316e-10
1.88441e-05
4.27751e-11
1.88513e-05
-1.27445e-10
1.88601e-05
2.86062e-11
1.88701e-05
1.08251e-11
1.88806e-05
-1.17914e-10
1.88914e-05
-3.69425e-10
1.89022e-05
-7.27838e-10
1.89128e-05
-1.17069e-09
1.89229e-05
-1.67487e-09
1.89327e-05
-2.21853e-09
1.89419e-05
-2.78047e-09
1.89505e-05
-3.34197e-09
1.89586e-05
-3.88569e-09
1.89662e-05
-4.39777e-09
1.89732e-05
-4.8655e-09
1.89797e-05
-5.28251e-09
-5.63588e-09
1.89857e-05
2.29654e-05
-1.61549e-09
2.29711e-05
-5.57137e-09
2.29795e-05
-8.54806e-09
2.29899e-05
-1.0409e-08
2.30016e-05
-1.16788e-08
2.3014e-05
-1.25085e-08
2.30267e-05
-1.30414e-08
2.30393e-05
-1.33627e-08
2.30517e-05
-1.3535e-08
2.30637e-05
-1.36125e-08
2.30751e-05
-1.36292e-08
2.30859e-05
-1.36064e-08
2.30961e-05
-1.35548e-08
2.31057e-05
-1.34801e-08
2.31147e-05
-1.33841e-08
2.31231e-05
-1.32658e-08
2.3131e-05
-1.31249e-08
-1.29601e-08
2.31383e-05
1.68125e-05
-3.3631e-09
1.68171e-05
-1.02171e-08
1.68239e-05
-1.53416e-08
1.68321e-05
-1.86029e-08
1.68411e-05
-2.06805e-08
1.68505e-05
-2.1919e-08
1.68601e-05
-2.25673e-08
1.68695e-05
-2.27709e-08
1.68786e-05
-2.2675e-08
1.68874e-05
-2.23832e-08
1.68957e-05
-2.19779e-08
1.69036e-05
-2.15025e-08
1.69111e-05
-2.09918e-08
1.69181e-05
-2.04625e-08
1.69246e-05
-1.99297e-08
1.69308e-05
-1.93954e-08
1.69365e-05
-1.88627e-08
-1.83339e-08
1.69419e-05
1.46364e-05
-5.20734e-09
1.46413e-05
-1.51068e-08
1.46482e-05
-2.22253e-08
1.46562e-05
-2.65947e-08
1.46648e-05
-2.92378e-08
1.46736e-05
-3.07216e-08
1.46824e-05
-3.13479e-08
1.46909e-05
-3.13389e-08
1.46992e-05
-3.0905e-08
1.4707e-05
-3.02176e-08
1.47144e-05
-2.93816e-08
1.47214e-05
-2.8469e-08
1.47279e-05
-2.75245e-08
1.4734e-05
-2.658e-08
1.47398e-05
-2.56522e-08
1.47451e-05
-2.47505e-08
1.47501e-05
-2.38736e-08
-2.30304e-08
1.47548e-05
1.27422e-05
-7.30994e-09
1.27477e-05
-2.05394e-08
1.27549e-05
-2.9438e-08
1.27629e-05
-3.45704e-08
1.27712e-05
-3.75476e-08
1.27796e-05
-3.91205e-08
1.27879e-05
-3.9593e-08
1.27958e-05
-3.92621e-08
1.28033e-05
-3.84252e-08
1.28104e-05
-3.72987e-08
1.2817e-05
-3.60142e-08
1.28232e-05
-3.4658e-08
1.2829e-05
-3.32914e-08
1.28344e-05
-3.19544e-08
1.28394e-05
-3.06656e-08
1.28441e-05
-2.94317e-08
1.28485e-05
-2.82509e-08
-2.71312e-08
1.28526e-05
1.10935e-05
-9.83052e-09
1.10997e-05
-2.67982e-08
1.11074e-05
-3.70955e-08
1.11154e-05
-4.2571e-08
1.11235e-05
-4.56842e-08
1.11316e-05
-4.71969e-08
1.11394e-05
-4.73902e-08
1.11468e-05
-4.6647e-08
1.11537e-05
-4.53482e-08
1.11602e-05
-4.37476e-08
1.11662e-05
-4.19954e-08
1.11717e-05
-4.01902e-08
1.11768e-05
-3.84005e-08
1.11816e-05
-3.66797e-08
1.1186e-05
-3.50539e-08
1.119e-05
-3.35188e-08
1.11939e-05
-3.20611e-08
-3.06878e-08
1.11974e-05
9.65834e-06
-1.2959e-08
9.66572e-06
-3.41702e-08
9.67377e-06
-4.5122e-08
9.68177e-06
-5.0572e-08
9.68978e-06
-5.36805e-08
9.69759e-06
-5.50067e-08
9.70499e-06
-5.47866e-08
9.7119e-06
-5.35518e-08
9.71831e-06
-5.17555e-08
9.72423e-06
-4.9655e-08
9.72966e-06
-4.74262e-08
9.73465e-06
-4.51769e-08
9.73923e-06
-4.29727e-08
9.74342e-06
-4.08732e-08
9.74729e-06
-3.89166e-08
9.75087e-06
-3.70997e-08
9.75421e-06
-3.53944e-08
-3.38113e-08
9.75734e-06
8.40937e-06
-1.69743e-08
8.41811e-06
-4.2902e-08
8.42636e-06
-5.33831e-08
8.43428e-06
-5.8479e-08
8.44216e-06
-6.15593e-08
8.44977e-06
-6.2604e-08
8.45688e-06
-6.18904e-08
8.46344e-06
-6.01126e-08
8.46947e-06
-5.77807e-08
8.47498e-06
-5.51603e-08
8.47998e-06
-5.24244e-08
8.48451e-06
-4.97099e-08
8.48864e-06
-4.70942e-08
8.49239e-06
-4.46286e-08
8.49582e-06
-4.23408e-08
8.49896e-06
-4.02399e-08
8.50188e-06
-3.83047e-08
-3.65229e-08
8.50459e-06
7.32269e-06
-2.23815e-08
7.33273e-06
-5.2939e-08
7.34109e-06
-6.17352e-08
7.34907e-06
-6.64503e-08
7.35705e-06
-6.95455e-08
7.36469e-06
-7.02438e-08
7.37178e-06
-6.89767e-08
7.3783e-06
-6.66239e-08
7.38424e-06
-6.37163e-08
7.38961e-06
-6.05308e-08
7.39444e-06
-5.72532e-08
7.39875e-06
-5.40167e-08
7.40259e-06
-5.09354e-08
7.40605e-06
-4.80787e-08
7.40916e-06
-4.54539e-08
7.41198e-06
-4.30534e-08
7.41456e-06
-4.08853e-08
-3.89269e-08
7.41697e-06
6.37775e-06
-3.00658e-08
6.38848e-06
-6.36665e-08
6.39777e-06
-7.10345e-08
6.40709e-06
-7.5766e-08
6.41633e-06
-7.8782e-08
6.42497e-06
-7.88888e-08
6.43287e-06
-7.68664e-08
6.44001e-06
-7.37609e-08
6.4464e-06
-7.0114e-08
6.45208e-06
-6.62088e-08
6.45708e-06
-6.22501e-08
6.46143e-06
-5.83665e-08
6.46521e-06
-5.47147e-08
6.46851e-06
-5.13694e-08
6.4714e-06
-4.83436e-08
6.47399e-06
-4.56387e-08
6.47636e-06
-4.32544e-08
-4.11207e-08
6.47855e-06
5.55875e-06
-4.33478e-08
5.57239e-06
-7.73191e-08
5.58748e-06
-8.61265e-08
5.60269e-06
-9.09805e-08
5.61661e-06
-9.2699e-08
5.62865e-06
-9.09345e-08
5.63881e-06
-8.702e-08
5.64719e-06
-8.21357e-08
5.6539e-06
-7.68301e-08
5.6591e-06
-7.14042e-08
5.66296e-06
-6.61083e-08
5.66566e-06
-6.107e-08
5.66741e-06
-5.64542e-08
5.66841e-06
-5.23656e-08
5.66882e-06
-4.8756e-08
5.66879e-06
-4.56054e-08
5.66847e-06
-4.29305e-08
-4.08843e-08
5.66824e-06
4.88625e-06
-1.01996e-07
4.92657e-06
-1.17643e-07
4.95381e-06
-1.13375e-07
4.96983e-06
-1.07002e-07
4.9767e-06
-9.95689e-08
4.97629e-06
-9.05221e-08
4.97031e-06
-8.10368e-08
4.96007e-06
-7.19017e-08
4.94666e-06
-6.34129e-08
4.93091e-06
-5.56565e-08
4.91349e-06
-4.86847e-08
4.89491e-06
-4.24819e-08
4.87556e-06
-3.71066e-08
4.85579e-06
-3.25927e-08
4.83603e-06
-2.89857e-08
4.81665e-06
-2.62288e-08
4.79789e-06
-2.41587e-08
-2.30863e-08
4.78009e-06
4.10068e-06
3.98304e-06
3.86966e-06
3.76266e-06
3.66309e-06
3.57257e-06
3.49153e-06
3.41963e-06
3.35622e-06
3.30056e-06
3.25188e-06
3.2094e-06
3.17229e-06
3.1397e-06
3.11071e-06
3.08449e-06
3.06033e-06
3.03724e-06
-7.73882e-09
7.66616e-09
-2.13815e-08
1.34422e-08
-3.60337e-08
1.45553e-08
-4.87086e-08
1.24718e-08
-5.42084e-08
5.44927e-09
-4.69315e-08
-7.51739e-09
-2.44038e-08
-2.24922e-08
1.05891e-08
-3.52395e-08
5.46512e-08
-4.39793e-08
1.02453e-07
-4.80012e-08
1.5019e-07
-4.76456e-08
1.94297e-07
-4.42642e-08
2.33269e-07
-3.88867e-08
2.65444e-07
-3.23021e-08
2.90532e-07
-2.50081e-08
3.07744e-07
-1.73196e-08
3.17179e-07
-9.35429e-09
3.18177e-07
-1.09256e-09
3.10919e-07
7.33109e-09
2.95334e-07
1.54978e-08
2.72397e-07
2.30067e-08
2.42849e-07
2.94671e-08
2.08413e-07
3.4494e-08
1.70716e-07
3.76249e-08
1.32292e-07
3.84732e-08
9.5462e-08
3.67742e-08
6.28904e-08
3.26254e-08
3.62767e-08
2.65763e-08
1.66784e-08
1.96533e-08
3.77725e-09
1.28752e-08
-2.97952e-09
6.82243e-09
-4.09127e-09
1.08269e-09
1.0812e-09
-5.10335e-09
1.35501e-08
-1.25056e-08
3.49852e-08
-2.13505e-08
6.44761e-08
-2.95213e-08
9.75925e-08
-3.30421e-08
1.27979e-07
-3.04097e-08
1.50913e-07
-2.28771e-08
1.63822e-07
-1.29295e-08
1.67566e-07
-3.70953e-09
1.6498e-07
2.56923e-09
1.59765e-07
5.24092e-09
1.55656e-07
4.10274e-09
1.54212e-07
1.50796e-09
1.48204e-07
5.98882e-09
1.29373e-07
1.89362e-08
8.97938e-08
3.95201e-08
2.39155e-08
6.59917e-08
-6.60672e-08
8.98946e-08
-1.73824e-07
1.07825e-07
-2.9627e-07
1.22368e-07
-4.29946e-07
1.33712e-07
-5.70754e-07
1.40757e-07
-7.13428e-07
1.42706e-07
-8.55321e-07
1.4187e-07
-9.94861e-07
1.39567e-07
-1.12868e-06
1.33817e-07
-1.25381e-06
1.25152e-07
-1.36999e-06
1.16192e-07
-1.47751e-06
1.07538e-07
-1.57682e-06
9.93187e-08
-1.66724e-06
9.0443e-08
-1.7498e-06
8.25771e-08
-1.82605e-06
7.62577e-08
-1.89611e-06
7.00749e-08
-1.96088e-06
6.47787e-08
-2.02095e-06
6.00928e-08
-2.07691e-06
5.59609e-08
-2.12922e-06
5.23258e-08
-2.17831e-06
4.9096e-08
-2.2245e-06
4.62105e-08
-2.26811e-06
4.36046e-08
-2.30932e-06
4.12306e-08
-2.34836e-06
3.90408e-08
-2.38534e-06
3.70051e-08
-2.42042e-06
3.50892e-08
-2.45368e-06
3.32749e-08
-2.48521e-06
3.15383e-08
-2.51506e-06
2.98713e-08
-2.54331e-06
2.82572e-08
-2.56998e-06
2.66924e-08
-2.59514e-06
2.51653e-08
-2.61879e-06
2.36761e-08
-2.641e-06
2.22131e-08
-2.66175e-06
2.07759e-08
-2.6811e-06
1.9353e-08
-2.69904e-06
1.79474e-08
-2.7156e-06
1.65525e-08
-2.73079e-06
1.51672e-08
-2.74459e-06
1.37921e-08
-2.75701e-06
1.24231e-08
-2.76805e-06
1.10512e-08
-2.77771e-06
9.66765e-09
-2.78596e-06
8.26135e-09
-2.79277e-06
6.8226e-09
-2.79809e-06
5.33906e-09
-2.80188e-06
3.80033e-09
-2.80407e-06
2.20196e-09
-2.80464e-06
5.84303e-10
-2.80371e-06
-9.10939e-10
-2.8015e-06
-2.19332e-09
-2.7981e-06
-3.36567e-09
-2.79355e-06
-4.50741e-09
-2.78787e-06
-5.63988e-09
-2.78106e-06
-6.76418e-09
-2.77314e-06
-7.88885e-09
-2.7641e-06
-9.0023e-09
-2.75397e-06
-1.01142e-08
-2.74273e-06
-1.12096e-08
-2.73042e-06
-1.23005e-08
-2.71704e-06
-1.3371e-08
-2.70261e-06
-1.44355e-08
-2.68714e-06
-1.54781e-08
-2.67064e-06
-1.65142e-08
-2.65314e-06
-1.75271e-08
-2.63465e-06
-1.85302e-08
-2.61518e-06
-1.95094e-08
-2.59477e-06
-2.04784e-08
-2.57341e-06
-2.14282e-08
-2.55111e-06
-2.23678e-08
-2.52789e-06
-2.32918e-08
-2.50375e-06
-2.42065e-08
-2.47873e-06
-2.51091e-08
-2.45283e-06
-2.60046e-08
-2.42605e-06
-2.68936e-08
-2.3984e-06
-2.77754e-08
-2.36988e-06
-2.866e-08
-2.34047e-06
-2.95415e-08
-2.31019e-06
-3.04401e-08
-2.27898e-06
-3.13301e-08
-2.2469e-06
-3.22227e-08
-2.21389e-06
-3.3106e-08
-2.18e-06
-3.40096e-08
-2.14516e-06
-3.48784e-08
-2.10946e-06
-3.57565e-08
-2.07284e-06
-3.65923e-08
-2.03538e-06
-3.74125e-08
-1.99707e-06
-3.81724e-08
-1.95786e-06
-3.90336e-08
-1.91764e-06
-4.00211e-08
-1.87644e-06
-4.0982e-08
-1.83431e-06
-4.1926e-08
-1.79123e-06
-4.28807e-08
-1.7472e-06
-4.38418e-08
-1.7022e-06
-4.48038e-08
-1.65626e-06
-4.57677e-08
-1.60936e-06
-4.67263e-08
-1.56153e-06
-4.7679e-08
-1.51276e-06
-4.86227e-08
-1.46308e-06
-4.95512e-08
-1.4125e-06
-5.04615e-08
-1.36106e-06
-5.13443e-08
-1.30878e-06
-5.21989e-08
-1.2557e-06
-5.30149e-08
-1.20185e-06
-5.37981e-08
-1.14728e-06
-5.45384e-08
-1.09201e-06
-5.52447e-08
-1.0361e-06
-5.59074e-08
-9.79573e-07
-5.65362e-08
-9.22467e-07
-5.71232e-08
-8.64827e-07
-5.76731e-08
-8.06677e-07
-5.81876e-08
-7.48078e-07
-5.86545e-08
-6.89051e-07
-5.90838e-08
-6.29662e-07
-5.94628e-08
-5.69943e-07
-5.97925e-08
-5.09959e-07
-6.00709e-08
-4.49745e-07
-6.02982e-08
-3.89368e-07
-6.04728e-08
-3.28861e-07
-6.05969e-08
-2.68317e-07
-6.06412e-08
-2.07824e-07
-6.05855e-08
-1.475e-07
-6.04187e-08
-8.75015e-08
-6.00903e-08
-2.82446e-08
-5.93464e-08
2.96701e-08
-5.79978e-08
8.44372e-08
-5.48327e-08
1.34609e-07
-5.02263e-08
-2.32768e-08
1.57867e-07
-3.62651e-09
1.11767e-08
-1.05417e-08
2.00015e-08
-1.39678e-08
1.78259e-08
-7.19934e-09
5.3074e-09
1.54978e-08
-1.73125e-08
5.2631e-08
-4.48714e-08
9.99665e-08
-6.98069e-08
1.51544e-07
-8.69437e-08
2.02652e-07
-9.50545e-08
2.49834e-07
-9.52859e-08
2.91912e-07
-8.96927e-08
3.27934e-07
-8.03759e-08
3.58028e-07
-6.89509e-08
3.82145e-07
-5.64961e-08
4.00826e-07
-4.36576e-08
4.14238e-07
-3.07966e-08
4.22996e-07
-1.80779e-08
4.27462e-07
-5.61083e-09
4.28186e-07
6.64202e-09
4.24855e-07
1.8786e-08
4.17144e-07
3.07496e-08
4.04322e-07
4.22601e-08
3.86e-07
5.28429e-08
3.61785e-07
6.18174e-08
3.31922e-07
6.83627e-08
2.97069e-07
7.1617e-08
2.58812e-07
7.09144e-08
2.1937e-07
6.60088e-08
1.81852e-07
5.721e-08
1.49501e-07
4.52166e-08
1.25577e-07
3.07998e-08
1.12195e-07
1.44459e-08
1.105e-07
-3.3472e-09
1.20026e-07
-2.20506e-08
1.38509e-07
-3.97779e-08
1.59773e-07
-5.08038e-08
1.77188e-07
-5.04146e-08
1.8659e-07
-3.98313e-08
1.87064e-07
-2.3318e-08
1.78881e-07
-4.76848e-09
1.64079e-07
1.11357e-08
1.43428e-07
2.31883e-08
1.10871e-07
3.78799e-08
5.61813e-08
5.87813e-08
-2.9164e-08
8.69542e-08
-1.44729e-07
1.21579e-07
-2.8204e-07
1.56298e-07
-4.31389e-07
1.8888e-07
-5.8442e-07
2.19043e-07
-7.3859e-07
2.44059e-07
-8.92505e-07
2.61748e-07
-1.04282e-06
2.7267e-07
-1.18608e-06
2.76971e-07
-1.31977e-06
2.74438e-07
-1.44264e-06
2.65576e-07
-1.55319e-06
2.52424e-07
-1.65054e-06
2.36917e-07
-1.73629e-06
2.19574e-07
-1.8125e-06
2.01368e-07
-1.88016e-06
1.83866e-07
-1.94043e-06
1.67812e-07
-1.99432e-06
1.53223e-07
-2.04376e-06
1.39894e-07
-2.08928e-06
1.28111e-07
-2.13105e-06
1.1803e-07
-2.17011e-06
1.09149e-07
-2.20676e-06
1.01434e-07
-2.24133e-06
9.46771e-08
-2.27408e-06
8.87158e-08
-2.30516e-06
8.34197e-08
-2.33473e-06
7.86635e-08
-2.36285e-06
7.43477e-08
-2.38963e-06
7.03863e-08
-2.4151e-06
6.67109e-08
-2.43932e-06
6.32647e-08
-2.46231e-06
6.00036e-08
-2.4841e-06
5.68903e-08
-2.50471e-06
5.38983e-08
-2.52417e-06
5.10044e-08
-2.54248e-06
4.8193e-08
-2.55966e-06
4.54493e-08
-2.57573e-06
4.27645e-08
-2.59068e-06
4.0129e-08
-2.60453e-06
3.75373e-08
-2.61729e-06
3.49805e-08
-2.62895e-06
3.2454e-08
-2.63954e-06
2.99505e-08
-2.64905e-06
2.74679e-08
-2.65751e-06
2.50011e-08
-2.66491e-06
2.25502e-08
-2.67124e-06
2.01128e-08
-2.67649e-06
1.76856e-08
-2.68069e-06
1.52628e-08
-2.68385e-06
1.2839e-08
-2.68599e-06
1.04116e-08
-2.68714e-06
7.98011e-09
-2.68733e-06
5.54892e-09
-2.68665e-06
3.1271e-09
-2.68517e-06
7.34895e-10
-2.68297e-06
-1.59992e-09
-2.67999e-06
-3.87646e-09
-2.67603e-06
-6.13339e-09
-2.67098e-06
-8.38642e-09
-2.66482e-06
-1.06291e-08
-2.65756e-06
-1.2864e-08
-2.6492e-06
-1.50946e-08
-2.63974e-06
-1.73186e-08
-2.62919e-06
-1.95321e-08
-2.61755e-06
-2.17314e-08
-2.60483e-06
-2.39113e-08
-2.59105e-06
-2.60702e-08
-2.57622e-06
-2.82028e-08
-2.56034e-06
-3.03102e-08
-2.54344e-06
-3.2388e-08
-2.52553e-06
-3.44385e-08
-2.50662e-06
-3.64564e-08
-2.48673e-06
-3.84441e-08
-2.46587e-06
-4.03987e-08
-2.44408e-06
-4.23247e-08
-2.42133e-06
-4.42207e-08
-2.39766e-06
-4.60927e-08
-2.37306e-06
-4.79381e-08
-2.34756e-06
-4.97648e-08
-2.32115e-06
-5.15714e-08
-2.29387e-06
-5.33661e-08
-2.26569e-06
-5.51478e-08
-2.23664e-06
-5.69233e-08
-2.2067e-06
-5.86945e-08
-2.17588e-06
-6.04661e-08
-2.14417e-06
-6.22415e-08
-2.11159e-06
-6.4016e-08
-2.07811e-06
-6.57911e-08
-2.04373e-06
-6.75686e-08
-2.00844e-06
-6.93563e-08
-1.97223e-06
-7.11349e-08
-1.93509e-06
-7.2915e-08
-1.89699e-06
-7.4684e-08
-1.85791e-06
-7.64411e-08
-1.81779e-06
-7.81978e-08
-1.77668e-06
-8.00166e-08
-1.73464e-06
-8.19079e-08
-1.69167e-06
-8.38107e-08
-1.64773e-06
-8.57221e-08
-1.60282e-06
-8.76465e-08
-1.55695e-06
-8.9584e-08
-1.51011e-06
-9.15153e-08
-1.4623e-06
-9.34471e-08
-1.41355e-06
-9.53658e-08
-1.36385e-06
-9.727e-08
-1.31322e-06
-9.91524e-08
-1.26167e-06
-1.01004e-07
-1.20924e-06
-1.02816e-07
-1.15595e-06
-1.04573e-07
-1.10182e-06
-1.06269e-07
-1.0469e-06
-1.07889e-07
-9.91239e-07
-1.09437e-07
-9.3486e-07
-1.10899e-07
-8.77818e-07
-1.12286e-07
-8.20143e-07
-1.13585e-07
-7.61891e-07
-1.1481e-07
-7.0309e-07
-1.15948e-07
-6.43794e-07
-1.1701e-07
-5.84033e-07
-1.1799e-07
-5.2386e-07
-1.18887e-07
-4.63309e-07
-1.19692e-07
-4.02437e-07
-1.2041e-07
-3.41284e-07
-1.21019e-07
-2.79909e-07
-1.21534e-07
-2.1835e-07
-1.21941e-07
-1.56666e-07
-1.22251e-07
-9.48951e-08
-1.22457e-07
-3.30607e-08
-1.22573e-07
2.88165e-08
-1.22552e-07
9.05727e-08
-1.22268e-07
1.51909e-07
-1.21512e-07
2.1245e-07
-1.19974e-07
2.71425e-07
-1.1705e-07
3.28117e-07
-1.11596e-07
3.79289e-07
-1.01458e-07
-7.18856e-08
4.27855e-07
6.31228e-11
1.1017e-08
2.7527e-09
1.70072e-08
1.68597e-08
3.58273e-09
5.0053e-08
-2.80753e-08
1.00601e-07
-6.78822e-08
1.58538e-07
-1.02912e-07
2.14562e-07
-1.25822e-07
2.63057e-07
-1.3552e-07
3.02521e-07
-1.34506e-07
3.33382e-07
-1.26221e-07
3.57318e-07
-1.13617e-07
3.75647e-07
-9.87728e-08
3.89686e-07
-8.29775e-08
4.00089e-07
-6.69576e-08
4.07541e-07
-5.10944e-08
4.12271e-07
-3.55761e-08
4.14699e-07
-2.04874e-08
4.14928e-07
-5.87808e-09
4.13363e-07
8.22849e-09
4.10243e-07
2.18783e-08
4.05905e-07
3.51107e-08
4.00256e-07
4.78928e-08
3.93065e-07
6.00592e-08
3.83636e-07
7.12427e-08
3.71193e-07
8.08322e-08
3.54865e-07
8.79524e-08
3.34263e-07
9.15454e-08
3.09725e-07
9.05582e-08
2.82731e-07
8.42337e-08
2.55664e-07
7.22924e-08
2.31456e-07
5.50384e-08
2.12579e-07
3.33262e-08
2.00638e-07
8.62359e-09
1.94699e-07
-1.61188e-08
1.89338e-07
-3.43915e-08
1.77569e-07
-3.90459e-08
1.56933e-07
-2.97586e-08
1.2807e-07
-1.09828e-08
9.12695e-08
1.35153e-08
4.36654e-08
4.28257e-08
-2.08183e-08
7.56576e-08
-1.08217e-07
1.10601e-07
-2.1932e-07
1.49009e-07
-3.50928e-07
1.90407e-07
-4.96353e-07
2.32401e-07
-6.46848e-07
2.72088e-07
-7.97106e-07
3.06576e-07
-9.42355e-07
3.34136e-07
-1.0775e-06
3.54201e-07
-1.19982e-06
3.66377e-07
-1.3087e-06
3.70629e-07
-1.40369e-06
3.6766e-07
-1.48504e-06
3.58325e-07
-1.55427e-06
3.43667e-07
-1.61381e-06
3.25113e-07
-1.66575e-06
3.04368e-07
-1.71165e-06
2.82819e-07
-1.75337e-06
2.61294e-07
-1.79253e-06
2.40542e-07
-1.82988e-06
2.21214e-07
-1.86571e-06
2.03648e-07
-1.90031e-06
1.8783e-07
-1.93408e-06
1.73677e-07
-1.9671e-06
1.61133e-07
-1.99916e-06
1.50099e-07
-2.03034e-06
1.40343e-07
-2.06061e-06
1.31707e-07
-2.08994e-06
1.24012e-07
-2.11831e-06
1.17097e-07
-2.14572e-06
1.1083e-07
-2.17214e-06
1.05091e-07
-2.19757e-06
9.97811e-08
-2.22199e-06
9.48183e-08
-2.24541e-06
9.01348e-08
-2.26782e-06
8.56755e-08
-2.2892e-06
8.13967e-08
-2.30957e-06
7.72636e-08
-2.32891e-06
7.32494e-08
-2.34724e-06
6.9333e-08
-2.36454e-06
6.54986e-08
-2.38081e-06
6.17332e-08
-2.39607e-06
5.80273e-08
-2.41031e-06
5.43728e-08
-2.42353e-06
5.07633e-08
-2.43573e-06
4.71918e-08
-2.44692e-06
4.36531e-08
-2.4571e-06
4.01413e-08
-2.46628e-06
3.66531e-08
-2.47447e-06
3.3185e-08
-2.48166e-06
2.97347e-08
-2.48785e-06
2.63018e-08
-2.49304e-06
2.28832e-08
-2.49725e-06
1.94749e-08
-2.50047e-06
1.60735e-08
-2.50272e-06
1.26778e-08
-2.50402e-06
9.28954e-09
-2.50437e-06
5.91306e-09
-2.50378e-06
2.55533e-09
-2.50226e-06
-7.76166e-10
-2.49977e-06
-4.07963e-09
-2.49626e-06
-7.37138e-09
-2.4917e-06
-1.06738e-08
-2.48607e-06
-1.39855e-08
-2.47938e-06
-1.72985e-08
-2.4716e-06
-2.06072e-08
-2.46276e-06
-2.39127e-08
-2.45285e-06
-2.72067e-08
-2.44188e-06
-3.04871e-08
-2.42985e-06
-3.37439e-08
-2.41678e-06
-3.69752e-08
-2.40266e-06
-4.01719e-08
-2.38753e-06
-4.33341e-08
-2.37138e-06
-4.64545e-08
-2.35424e-06
-4.9535e-08
-2.33612e-06
-5.25699e-08
-2.31703e-06
-5.55612e-08
-2.29698e-06
-5.85053e-08
-2.276e-06
-6.1406e-08
-2.2541e-06
-6.42626e-08
-2.23127e-06
-6.70788e-08
-2.20754e-06
-6.98568e-08
-2.18291e-06
-7.2601e-08
-2.15739e-06
-7.53165e-08
-2.131e-06
-7.80088e-08
-2.10373e-06
-8.06837e-08
-2.07559e-06
-8.33444e-08
-2.04659e-06
-8.59976e-08
-2.0167e-06
-8.86458e-08
-1.98595e-06
-9.12963e-08
-1.95431e-06
-9.39493e-08
-1.92179e-06
-9.66088e-08
-1.88838e-06
-9.92718e-08
-1.85406e-06
-1.01948e-07
-1.81882e-06
-1.04635e-07
-1.78267e-06
-1.0733e-07
-1.74556e-06
-1.10028e-07
-1.70751e-06
-1.1273e-07
-1.66848e-06
-1.1543e-07
-1.62846e-06
-1.18148e-07
-1.58747e-06
-1.20919e-07
-1.54555e-06
-1.23744e-07
-1.50268e-06
-1.26608e-07
-1.45885e-06
-1.29485e-07
-1.41405e-06
-1.32386e-07
-1.36828e-06
-1.35295e-07
-1.32155e-06
-1.38199e-07
-1.27386e-06
-1.4109e-07
-1.22523e-06
-1.43961e-07
-1.17566e-06
-1.46802e-07
-1.12518e-06
-1.49607e-07
-1.07379e-06
-1.52362e-07
-1.02153e-06
-1.55053e-07
-9.68429e-07
-1.5766e-07
-9.14516e-07
-1.60168e-07
-8.59832e-07
-1.62562e-07
-8.04424e-07
-1.64838e-07
-7.48331e-07
-1.66987e-07
-6.91603e-07
-1.69011e-07
-6.3428e-07
-1.70907e-07
-5.76413e-07
-1.72677e-07
-5.18043e-07
-1.74319e-07
-4.59218e-07
-1.75835e-07
-3.99979e-07
-1.7723e-07
-3.40372e-07
-1.78494e-07
-2.8044e-07
-1.79625e-07
-2.20231e-07
-1.80617e-07
-1.59794e-07
-1.81455e-07
-9.91745e-08
-1.82149e-07
-3.84079e-08
-1.82703e-07
2.24756e-08
-1.83127e-07
8.342e-08
-1.83393e-07
1.44342e-07
-1.83482e-07
2.05133e-07
-1.83331e-07
2.65667e-07
-1.82787e-07
3.25771e-07
-1.81603e-07
3.85178e-07
-1.79366e-07
4.43466e-07
-1.75326e-07
5.00152e-07
-1.68269e-07
5.54392e-07
-1.55685e-07
-1.27206e-07
6.09733e-07
-3.28176e-10
1.12635e-08
1.20339e-08
4.41759e-09
5.13201e-08
-3.57637e-08
1.12586e-07
-8.94502e-08
1.78897e-07
-1.34198e-07
2.36249e-07
-1.60339e-07
2.79223e-07
-1.68794e-07
3.08412e-07
-1.64777e-07
3.27371e-07
-1.53461e-07
3.3951e-07
-1.38424e-07
3.47597e-07
-1.21699e-07
3.53091e-07
-1.04326e-07
3.56944e-07
-8.68235e-08
3.5939e-07
-6.94567e-08
3.60679e-07
-5.23735e-08
3.60729e-07
-3.5671e-08
3.59675e-07
-1.94203e-08
3.57445e-07
-3.68313e-09
3.54204e-07
1.14865e-08
3.49993e-07
2.60643e-08
3.45108e-07
4.00166e-08
3.39692e-07
5.32987e-08
3.33953e-07
6.58231e-08
3.27801e-07
7.73971e-08
3.20989e-07
8.76754e-08
3.12919e-07
9.60368e-08
3.02916e-07
1.01583e-07
2.90316e-07
1.0318e-07
2.74928e-07
9.96572e-08
2.57088e-07
9.015e-08
2.37917e-07
7.42446e-08
2.18735e-07
5.25137e-08
1.99516e-07
2.78742e-08
1.75422e-07
7.9705e-09
1.40166e-07
8.90097e-10
9.26302e-08
8.47917e-09
3.37818e-08
2.91139e-08
-3.80627e-08
6.08607e-08
-1.25365e-07
1.00836e-07
-2.28633e-07
1.46102e-07
-3.46636e-07
1.93677e-07
-4.77131e-07
2.41105e-07
-6.15004e-07
2.86897e-07
-7.54192e-07
3.29602e-07
-8.88847e-07
3.6707e-07
-1.01364e-06
3.96885e-07
-1.12517e-06
4.18126e-07
-1.22208e-06
4.31043e-07
-1.30384e-06
4.35978e-07
-1.37122e-06
4.33751e-07
-1.42599e-06
4.25411e-07
-1.47037e-06
4.12042e-07
-1.50683e-06
3.94789e-07
-1.53794e-06
3.74774e-07
-1.56596e-06
3.53138e-07
-1.59253e-06
3.30939e-07
-1.61867e-06
3.08966e-07
-1.64512e-06
2.87751e-07
-1.67227e-06
2.67695e-07
-1.70013e-06
2.49081e-07
-1.72852e-06
2.32044e-07
-1.75726e-06
2.16577e-07
-1.78619e-06
2.02611e-07
-1.81511e-06
1.90054e-07
-1.84379e-06
1.78785e-07
-1.87208e-06
1.68647e-07
-1.89986e-06
1.59495e-07
-1.92703e-06
1.51181e-07
-1.9535e-06
1.4357e-07
-1.97921e-06
1.36544e-07
-2.00411e-06
1.29996e-07
-2.02816e-06
1.23839e-07
-2.05134e-06
1.17997e-07
-2.07361e-06
1.12409e-07
-2.09495e-06
1.07024e-07
-2.11535e-06
1.01804e-07
-2.1348e-06
9.67171e-08
-2.15329e-06
9.17393e-08
-2.1708e-06
8.68526e-08
-2.18734e-06
8.20431e-08
-2.2029e-06
7.72999e-08
-2.21749e-06
7.26147e-08
-2.23109e-06
6.79806e-08
-2.24371e-06
6.33919e-08
-2.25536e-06
5.88427e-08
-2.26603e-06
5.43281e-08
-2.27572e-06
4.98433e-08
-2.28445e-06
4.53846e-08
-2.29221e-06
4.09481e-08
-2.29901e-06
3.65322e-08
-2.30485e-06
3.21352e-08
-2.30971e-06
2.77541e-08
-2.31361e-06
2.3386e-08
-2.31655e-06
1.90265e-08
-2.31853e-06
1.46744e-08
-2.31956e-06
1.03284e-08
-2.31962e-06
5.99102e-09
-2.31872e-06
1.66293e-09
-2.31683e-06
-2.65446e-09
-2.31392e-06
-6.96662e-09
-2.31e-06
-1.12836e-08
-2.30503e-06
-1.56164e-08
-2.29904e-06
-1.99619e-08
-2.292e-06
-2.43139e-08
-2.28391e-06
-2.86652e-08
-2.27479e-06
-3.30119e-08
-2.26464e-06
-3.73445e-08
-2.25345e-06
-4.16576e-08
-2.24124e-06
-4.59403e-08
-2.22802e-06
-5.01885e-08
-2.2138e-06
-5.43917e-08
-2.19858e-06
-5.85492e-08
-2.18238e-06
-6.26519e-08
-2.16521e-06
-6.67016e-08
-2.1471e-06
-7.0691e-08
-2.12805e-06
-7.46237e-08
-2.10807e-06
-7.84958e-08
-2.08719e-06
-8.23123e-08
-2.06541e-06
-8.60711e-08