/*--------------------------------*- C++ -*----------------------------------*\
  =========                 |
  \\      /  F ield         | OpenFOAM: The Open Source CFD Toolbox
   \\    /   O peration     | Website:  https://openfoam.org
    \\  /    A nd           | Version:  13
     \\/     M anipulation  |
\*---------------------------------------------------------------------------*/
FoamFile
{
    format      ascii;
    class       volVectorField;
    location    "400";
    object      U;
}
// * * * * * * * * * * * * * * * * * * * * * * * * * * * * * * * * * * * * * //

dimensions      [0 1 -1 0 0 0 0];

internalField   nonuniform List<vector> 
12225
(
(9.78153 0.0537687 0)
(9.35302 0.0984234 0)
(8.94608 0.098202 0)
(8.55093 0.0870468 0)
(8.17938 0.0948736 0)
(7.83773 0.0972496 0)
(7.55449 0.0776259 0)
(7.31619 0.0752081 0)
(7.10838 0.0680568 0)
(6.92368 0.045697 0)
(6.76901 0.0280293 0)
(6.63772 0.0249385 0)
(6.52067 0.035354 0)
(6.40857 0.0435967 0)
(6.31732 0.032119 0)
(6.23532 0.0178742 0)
(6.16747 0.00405418 0)
(6.1245 0.00174065 0)
(10.0763 0.0545083 0)
(10.2167 0.0824002 0)
(10.2967 0.0846712 0)
(10.3262 0.0857799 0)
(10.3333 0.0826743 0)
(10.2878 0.0805048 0)
(10.2274 0.0789594 0)
(10.1453 0.075255 0)
(10.0458 0.0730206 0)
(9.95206 0.0724977 0)
(9.86183 0.0674518 0)
(9.77229 0.0606739 0)
(9.68146 0.0553726 0)
(9.59128 0.0503967 0)
(9.49968 0.048407 0)
(9.42391 0.0471378 0)
(9.35276 0.0419601 0)
(9.29038 0.030013 0)
(10.0175 0.0428789 0)
(10.0781 0.0653338 0)
(10.1235 0.0696035 0)
(10.1603 0.0751419 0)
(10.1956 0.0829376 0)
(10.232 0.0872396 0)
(10.2638 0.0861286 0)
(10.2883 0.0851287 0)
(10.3078 0.0830291 0)
(10.3221 0.0795235 0)
(10.3298 0.0767469 0)
(10.3329 0.0754579 0)
(10.3339 0.0755936 0)
(10.3354 0.0746073 0)
(10.3342 0.0700916 0)
(10.3313 0.0637364 0)
(10.3257 0.055517 0)
(10.3179 0.0453667 0)
(10.0082 0.0315016 0)
(10.0435 0.0556591 0)
(10.0711 0.0627782 0)
(10.092 0.0686561 0)
(10.1095 0.0746638 0)
(10.1288 0.0772473 0)
(10.1465 0.0756242 0)
(10.1628 0.0741468 0)
(10.1786 0.0717958 0)
(10.1933 0.0682618 0)
(10.2066 0.0653657 0)
(10.219 0.0636897 0)
(10.2317 0.0626591 0)
(10.2454 0.0610661 0)
(10.2592 0.0573604 0)
(10.2718 0.0520719 0)
(10.282 0.0451631 0)
(10.2909 0.037305 0)
(10.005 0.0248538 0)
(10.0302 0.0495907 0)
(10.0531 0.0582333 0)
(10.0699 0.063982 0)
(10.0838 0.0693082 0)
(10.0978 0.0722125 0)
(10.1109 0.0722063 0)
(10.1224 0.0717957 0)
(10.1328 0.0703918 0)
(10.1419 0.0680549 0)
(10.1498 0.065687 0)
(10.1572 0.0639724 0)
(10.165 0.0627934 0)
(10.1738 0.0612082 0)
(10.1827 0.0579667 0)
(10.191 0.0533326 0)
(10.1977 0.0474381 0)
(10.2035 0.0409325 0)
(10.0034 0.0202783 0)
(10.0222 0.0435892 0)
(10.0425 0.0533233 0)
(10.0578 0.0596337 0)
(10.071 0.065059 0)
(10.0838 0.0681817 0)
(10.0959 0.0688048 0)
(10.1066 0.0682435 0)
(10.1164 0.0667234 0)
(10.1249 0.0644254 0)
(10.1323 0.0619432 0)
(10.1391 0.0598082 0)
(10.1461 0.0578959 0)
(10.1535 0.0555609 0)
(10.1609 0.0520043 0)
(10.1676 0.0473325 0)
(10.1731 0.0417754 0)
(10.1774 0.0357963 0)
(10.0024 0.016778 0)
(10.0169 0.03809 0)
(10.0346 0.0484409 0)
(10.049 0.055207 0)
(10.0618 0.0605768 0)
(10.0741 0.063826 0)
(10.0857 0.0647763 0)
(10.0962 0.0643516 0)
(10.1055 0.063005 0)
(10.1138 0.0609263 0)
(10.1212 0.0586562 0)
(10.1281 0.0565443 0)
(10.1348 0.0544718 0)
(10.1417 0.0519821 0)
(10.1484 0.0486166 0)
(10.1544 0.0444303 0)
(10.1593 0.0396582 0)
(10.1634 0.0346253 0)
(10.0017 0.0139796 0)
(10.0131 0.0330583 0)
(10.0282 0.0435923 0)
(10.0418 0.0506046 0)
(10.054 0.0558858 0)
(10.0659 0.0592256 0)
(10.0771 0.0604374 0)
(10.0873 0.0602372 0)
(10.0964 0.0590814 0)
(10.1046 0.0573487 0)
(10.112 0.0554185 0)
(10.1189 0.053409 0)
(10.1256 0.0512364 0)
(10.132 0.0486502 0)
(10.1381 0.0454223 0)
(10.1436 0.0415762 0)
(10.1482 0.0373202 0)
(10.152 0.03292 0)
(10.0013 0.0116952 0)
(10.0101 0.0285153 0)
(10.0231 0.038953 0)
(10.0356 0.0459539 0)
(10.0472 0.0510642 0)
(10.0585 0.0544052 0)
(10.0694 0.0558609 0)
(10.0794 0.0559455 0)
(10.0883 0.0551015 0)
(10.0964 0.0536505 0)
(10.1038 0.0518639 0)
(10.1106 0.049863 0)
(10.1171 0.0476458 0)
(10.1233 0.0450757 0)
(10.129 0.0420221 0)
(10.1341 0.0385177 0)
(10.1384 0.0347414 0)
(10.1421 0.0308783 0)
(10.001 0.00982889 0)
(10.0079 0.0244953 0)
(10.0189 0.0344933 0)
(10.0303 0.0413188 0)
(10.0412 0.046191 0)
(10.0519 0.0494691 0)
(10.0623 0.0511047 0)
(10.072 0.0514345 0)
(10.0808 0.0508202 0)
(10.0888 0.0495804 0)
(10.0961 0.0479512 0)
(10.1029 0.0460585 0)
(10.1092 0.0439158 0)
(10.1152 0.0414497 0)
(10.1206 0.0386045 0)
(10.1254 0.0354449 0)
(10.1296 0.032092 0)
(10.1332 0.0287053 0)
(10.0008 0.0082924 0)
(10.0063 0.0209434 0)
(10.0156 0.0302237 0)
(10.0258 0.0367562 0)
(10.0359 0.0413604 0)
(10.0459 0.0444993 0)
(10.0558 0.0461772 0)
(10.0651 0.0466668 0)
(10.0738 0.0462833 0)
(10.0817 0.0452892 0)
(10.089 0.0438685 0)
(10.0957 0.0421184 0)
(10.1019 0.0400869 0)
(10.1077 0.0377641 0)
(10.1129 0.0351505 0)
(10.1176 0.0323016 0)
(10.1217 0.0293172 0)
(10.1253 0.026326 0)
(10.0006 0.00705791 0)
(10.0052 0.0180522 0)
(10.0132 0.026559 0)
(10.0224 0.0327106 0)
(10.0318 0.0370115 0)
(10.0412 0.0399623 0)
(10.0505 0.0416212 0)
(10.0594 0.0421981 0)
(10.0678 0.041961 0)
(10.0756 0.0411312 0)
(10.0827 0.0398668 0)
(10.0894 0.0382646 0)
(10.0955 0.0363771 0)
(10.1012 0.0342275 0)
(10.1063 0.0318392 0)
(10.1109 0.029273 0)
(10.1149 0.0266039 0)
(10.1185 0.0239453 0)
(10.0005 0.00602837 0)
(10.0042 0.0153919 0)
(10.0111 0.0230191 0)
(10.0195 0.0287347 0)
(10.0281 0.0327289 0)
(10.0369 0.0354815 0)
(10.0456 0.0370782 0)
(10.0541 0.0376989 0)
(10.0621 0.0375672 0)
(10.0697 0.0368727 0)
(10.0767 0.0357521 0)
(10.0832 0.0342971 0)
(10.0892 0.0325646 0)
(10.0948 0.0305931 0)
(10.0998 0.0284223 0)
(10.1043 0.0261095 0)
(10.1084 0.0237237 0)
(10.1119 0.0213578 0)
(10.0004 0.00502351 0)
(10.0035 0.0127202 0)
(10.0093 0.0192811 0)
(10.0167 0.0243827 0)
(10.0246 0.0279576 0)
(10.0326 0.030424 0)
(10.0407 0.0318858 0)
(10.0486 0.032491 0)
(10.0562 0.0324218 0)
(10.0634 0.0318343 0)
(10.0702 0.0308513 0)
(10.0765 0.029549 0)
(10.0823 0.027994 0)
(10.0877 0.026228 0)
(10.0926 0.0243033 0)
(10.0971 0.0222717 0)
(10.1011 0.0201908 0)
(10.1046 0.0181456 0)
(10.0004 0.00402112 0)
(10.0029 0.0100115 0)
(10.0078 0.0153299 0)
(10.0142 0.019635 0)
(10.0213 0.0226665 0)
(10.0286 0.0247587 0)
(10.036 0.0260113 0)
(10.0433 0.0265439 0)
(10.0504 0.0264927 0)
(10.0572 0.0259886 0)
(10.0636 0.0251271 0)
(10.0696 0.0239865 0)
(10.0752 0.0226205 0)
(10.0803 0.0210843 0)
(10.0851 0.0194203 0)
(10.0894 0.0176852 0)
(10.0933 0.0159159 0)
(10.0968 0.0141949 0)
(10.0003 0.00300802 0)
(10.0024 0.00727585 0)
(10.0065 0.0111975 0)
(10.012 0.0145165 0)
(10.0183 0.0168631 0)
(10.025 0.0184759 0)
(10.0317 0.0194329 0)
(10.0385 0.0198223 0)
(10.045 0.0197425 0)
(10.0514 0.0192895 0)
(10.0574 0.01854 0)
(10.063 0.0175579 0)
(10.0683 0.0163934 0)
(10.0732 0.0150938 0)
(10.0777 0.0137021 0)
(10.0819 0.0122612 0)
(10.0857 0.0108056 0)
(10.0891 0.00939321 0)
(10.0003 0.00196925 0)
(10.0021 0.00448159 0)
(10.0055 0.00687573 0)
(10.0104 0.00902452 0)
(10.016 0.0105333 0)
(10.022 0.0115477 0)
(10.0281 0.0121118 0)
(10.0343 0.0122788 0)
(10.0404 0.0121131 0)
(10.0463 0.0116724 0)
(10.0519 0.0110155 0)
(10.0572 0.010183 0)
(10.0622 0.00922008 0)
(10.0669 0.00815904 0)
(10.0712 0.00703876 0)
(10.0752 0.00588646 0)
(10.0789 0.00473272 0)
(10.0823 0.00361454 0)
(10.0002 0.000873282 0)
(10.0018 0.00153337 0)
(10.0049 0.00226138 0)
(10.0093 0.00306131 0)
(10.0144 0.00356887 0)
(10.0199 0.00385307 0)
(10.0256 0.00391482 0)
(10.0314 0.00377255 0)
(10.0371 0.00345137 0)
(10.0426 0.00297848 0)
(10.0479 0.00238024 0)
(10.0529 0.0016816 0)
(10.0577 0.000906685 0)
(10.0621 7.81462e-05 0)
(10.0663 -0.000781938 0)
(10.0701 -0.00165323 0)
(10.0737 -0.00251963 0)
(10.077 -0.00335356 0)
(10.0002 -0.000358317 0)
(10.0018 -0.00179298 0)
(10.0048 -0.00293025 0)
(10.009 -0.00366277 0)
(10.0139 -0.00430589 0)
(10.0193 -0.00487097 0)
(10.0247 -0.00540253 0)
(10.0303 -0.00592504 0)
(10.0358 -0.00645178 0)
(10.0411 -0.00699471 0)
(10.0462 -0.0075584 0)
(10.051 -0.0081432 0)
(10.0556 -0.00874541 0)
(10.0599 -0.00935893 0)
(10.064 -0.00997658 0)
(10.0678 -0.0105888 0)
(10.0713 -0.0111891 0)
(10.0746 -0.0117647 0)
(10.0002 -0.00157997 0)
(10.002 -0.00510673 0)
(10.0054 -0.00803617 0)
(10.01 -0.0101929 0)
(10.0152 -0.0118837 0)
(10.0208 -0.013204 0)
(10.0265 -0.0142535 0)
(10.0321 -0.0150907 0)
(10.0377 -0.0157757 0)
(10.043 -0.0163553 0)
(10.0481 -0.0168683 0)
(10.053 -0.0173371 0)
(10.0575 -0.0177788 0)
(10.0618 -0.0182013 0)
(10.0658 -0.0186109 0)
(10.0696 -0.0190068 0)
(10.0732 -0.0193898 0)
(10.0764 -0.019759 0)
(10.0003 -0.00271607 0)
(10.0024 -0.00820264 0)
(10.0065 -0.0126687 0)
(10.0117 -0.0159301 0)
(10.0176 -0.0183856 0)
(10.0236 -0.0202368 0)
(10.0296 -0.0216222 0)
(10.0356 -0.0226333 0)
(10.0413 -0.0233704 0)
(10.0468 -0.0239178 0)
(10.0521 -0.0243411 0)
(10.057 -0.0246818 0)
(10.0616 -0.0249721 0)
(10.0659 -0.0252317 0)
(10.07 -0.0254748 0)
(10.0737 -0.0257047 0)
(10.0773 -0.0259213 0)
(10.0806 -0.0261325 0)
(10.0004 -0.00396007 0)
(10.0031 -0.0115427 0)
(10.0082 -0.0174425 0)
(10.0145 -0.0215984 0)
(10.021 -0.0246325 0)
(10.0276 -0.0268707 0)
(10.0342 -0.0284632 0)
(10.0406 -0.029544 0)
(10.0467 -0.0302534 0)
(10.0524 -0.0307134 0)
(10.0578 -0.0310045 0)
(10.0628 -0.0311879 0)
(10.0675 -0.0313048 0)
(10.0719 -0.0313906 0)
(10.076 -0.0314651 0)
(10.0798 -0.0315387 0)
(10.0834 -0.0316099 0)
(10.0866 -0.0316922 0)
(10.0005 -0.00541135 0)
(10.0042 -0.0153243 0)
(10.0107 -0.0225126 0)
(10.0183 -0.0273215 0)
(10.0257 -0.0307782 0)
(10.033 -0.0332726 0)
(10.0402 -0.0349466 0)
(10.0471 -0.0359782 0)
(10.0536 -0.0365704 0)
(10.0596 -0.0368772 0)
(10.0652 -0.0369937 0)
(10.0704 -0.0369922 0)
(10.0752 -0.0369259 0)
(10.0796 -0.0368321 0)
(10.0837 -0.0367367 0)
(10.0875 -0.0366565 0)
(10.0911 -0.0365858 0)
(10.0944 -0.0365291 0)
(10.0007 -0.00719535 0)
(10.0059 -0.0197831 0)
(10.0144 -0.0279082 0)
(10.0233 -0.0330839 0)
(10.0317 -0.0368406 0)
(10.0398 -0.0395104 0)
(10.0477 -0.0411709 0)
(10.0552 -0.0420626 0)
(10.0621 -0.0424535 0)
(10.0685 -0.0425305 0)
(10.0744 -0.0424141 0)
(10.0797 -0.0421795 0)
(10.0847 -0.0418964 0)
(10.0892 -0.0416159 0)
(10.0934 -0.0413603 0)
(10.0973 -0.0411309 0)
(10.1009 -0.0409392 0)
(10.1041 -0.0408061 0)
(10.0011 -0.00949129 0)
(10.0084 -0.0251495 0)
(10.0196 -0.0336266 0)
(10.0299 -0.0388319 0)
(10.0392 -0.0427204 0)
(10.0483 -0.0454443 0)
(10.0571 -0.0470218 0)
(10.0653 -0.0477569 0)
(10.0728 -0.047952 0)
(10.0796 -0.0477922 0)
(10.0859 -0.0474178 0)
(10.0916 -0.0469204 0)
(10.0967 -0.0463632 0)
(10.1014 -0.045828 0)
(10.1056 -0.0453675 0)
(10.1095 -0.0449662 0)
(10.1132 -0.0445897 0)
(10.1165 -0.0442771 0)
(10.0019 -0.0125054 0)
(10.0122 -0.0308876 0)
(10.0266 -0.0393924 0)
(10.0384 -0.0446887 0)
(10.049 -0.048643 0)
(10.0595 -0.0511887 0)
(10.0696 -0.0524882 0)
(10.0791 -0.0529616 0)
(10.0876 -0.0529367 0)
(10.0953 -0.0525681 0)
(10.1022 -0.0519765 0)
(10.1085 -0.0512823 0)
(10.1141 -0.0505386 0)
(10.119 -0.0498142 0)
(10.1235 -0.049181 0)
(10.1275 -0.0486848 0)
(10.1313 -0.048271 0)
(10.1346 -0.0479127 0)
(10.0025 -0.0166303 0)
(10.0181 -0.0360174 0)
(10.0361 -0.0439273 0)
(10.0515 -0.0499365 0)
(10.0655 -0.0545227 0)
(10.0793 -0.0570832 0)
(10.0925 -0.0580363 0)
(10.1044 -0.0580784 0)
(10.115 -0.0575807 0)
(10.1245 -0.0567372 0)
(10.1328 -0.0556873 0)
(10.1402 -0.0545518 0)
(10.1466 -0.0534466 0)
(10.1521 -0.0524278 0)
(10.1569 -0.0515197 0)
(10.1611 -0.0507485 0)
(10.1651 -0.0501572 0)
(10.1685 -0.0496868 0)
(10.0031 -0.0253891 0)
(10.033 -0.0448544 0)
(10.0628 -0.0493374 0)
(10.0907 -0.0546526 0)
(10.1161 -0.0601057 0)
(10.1395 -0.0635595 0)
(10.1598 -0.0651224 0)
(10.1766 -0.0655208 0)
(10.1901 -0.0651369 0)
(10.2008 -0.0642143 0)
(10.2089 -0.0629362 0)
(10.2147 -0.0614105 0)
(10.2187 -0.0598986 0)
(10.2211 -0.0585485 0)
(10.2223 -0.057395 0)
(10.2226 -0.0564295 0)
(10.2223 -0.0557566 0)
(10.2214 -0.0554735 0)
(10.0559 -0.0373244 0)
(10.1646 -0.0665118 0)
(10.2429 -0.0719627 0)
(10.2844 -0.0730618 0)
(10.3053 -0.0734462 0)
(10.3113 -0.0724569 0)
(10.3044 -0.070365 0)
(10.2872 -0.0677686 0)
(10.2622 -0.0649489 0)
(10.2316 -0.062 0)
(10.197 -0.0590479 0)
(10.1595 -0.0561583 0)
(10.1201 -0.0534686 0)
(10.0794 -0.0511256 0)
(10.0382 -0.049091 0)
(9.99759 -0.04744 0)
(9.95793 -0.0462402 0)
(9.91988 -0.0459072 0)
(9.86554 -0.0364002 0)
(9.61633 -0.0709955 0)
(9.34734 -0.0822795 0)
(9.08125 -0.0845356 0)
(8.83112 -0.082361 0)
(8.60436 -0.0771692 0)
(8.40071 -0.0705363 0)
(8.21895 -0.0633336 0)
(8.05808 -0.0561597 0)
(7.9166 -0.0492844 0)
(7.79279 -0.0428906 0)
(7.68466 -0.0370688 0)
(7.59034 -0.0318586 0)
(7.50777 -0.0272943 0)
(7.43519 -0.023537 0)
(7.36984 -0.0206577 0)
(7.31006 -0.0185186 0)
(7.25529 -0.0173802 0)
(-0.00262381 0.0070179 -1.00175e-18)
(-0.0123802 0.0118308 1.10985e-18)
(-0.0255121 0.012775 0)
(-0.0393676 0.0107694 0)
(-0.0494149 0.00522759 0)
(-0.0483113 -0.00398828 -7.87443e-19)
(-0.0327622 -0.016537 0)
(-0.00597986 -0.0296459 0)
(0.0290971 -0.0395234 0)
(0.069465 -0.044461 0)
(0.112032 -0.044919 4.07912e-19)
(0.153463 -0.0420929 0)
(0.191089 -0.0370033 0)
(0.223275 -0.0304662 0)
(0.249165 -0.0230227 0)
(0.268344 -0.0150458 2.33884e-19)
(0.280462 -0.0067253 0)
(0.285812 0.00199942 0)
(0.283097 0.0109732 0)
(0.272784 0.0196319 0)
(0.255496 0.0272111 0)
(0.231928 0.0329015 0)
(0.20305 0.0360338 0)
(0.170329 0.0360379 3.34165e-19)
(0.13564 0.0326404 -3.92945e-19)
(0.10126 0.0260064 4.78342e-19)
(0.0695712 0.0170647 6.02653e-19)
(0.0427392 0.00761047 0)
(0.0220581 -2.40838e-05 0)
(0.00775743 -0.00447282 -1.33658e-18)
(-0.00104319 -0.00648961 -1.48518e-18)
(-0.00512399 -0.00799434 0)
(-0.0026624 -0.0101287 0)
(0.00564276 -0.0137789 -1.33946e-18)
(0.0212073 -0.0192043 0)
(0.0444939 -0.025255 0)
(0.0728529 -0.0288971 5.69569e-19)
(0.101949 -0.0283033 0)
(0.126802 -0.0233865 4.11796e-19)
(0.143789 -0.0158056 7.75223e-19)
(0.151851 -0.00797501 0)
(0.152118 -0.00198845 0)
(0.147757 0.00098752 0)
(0.142913 1.01284e-05 0)
(0.14049 -0.0056996 0)
(0.137791 -0.0155064 8.26359e-19)
(0.128317 -0.0243403 8.45489e-19)
(0.105264 -0.0224008 9.11195e-19)
(0.0643554 -0.00411838 0)
(-0.0110736 0.0168029 -9.35411e-19)
(-0.109033 0.0367603 0)
(-0.213998 0.0602631 3.6433e-19)
(-0.329989 0.0829156 2.7122e-19)
(-0.454995 0.0987692 0)
(-0.586012 0.105159 0)
(-0.718092 0.109334 0)
(-0.846368 0.113773 1.46206e-19)
(-0.972229 0.110662 0)
(-1.09206 0.101142 0)
(-1.20363 0.0928244 0)
(-1.3065 0.0864831 0)
(-1.40181 0.0807504 0)
(-1.48988 0.0716235 0)
(-1.57003 0.0640363 0)
(-1.64385 0.0593796 0)
(-1.71217 0.053868 -9.01438e-20)
(-1.77524 0.0494945 0)
(-1.83388 0.0455909 0)
(-1.88858 0.042147 8.37028e-20)
(-1.93981 0.0391509 8.19908e-20)
(-1.98798 0.0364983 0)
(-2.03343 0.0341466 -7.8986e-20)
(-2.07644 0.0320398 7.7646e-20)
(-2.11724 0.0301358 0)
(-2.15601 0.0283958 -7.52059e-20)
(-2.1929 0.0267937 0)
(-2.22804 0.0253013 0)
(-2.26152 0.0239034 7.19718e-20)
(-2.29342 0.022581 0)
(-2.32382 0.0213264 -7.00067e-20)
(-2.35275 0.0201261 0)
(-2.38028 0.0189753 6.81448e-20)
(-2.40642 0.0178644 6.72423e-20)
(-2.43122 0.0167907 6.63553e-20)
(-2.4547 0.0157454 1.3096e-19)
(-2.47688 0.0147265 -1.29229e-19)
(-2.49778 0.0137268 0)
(-2.51743 0.0127466 0)
(-2.53582 0.011779 0)
(-2.55298 0.0108224 -1.22434e-19)
(-2.56889 0.00987382 -1.20753e-19)
(-2.58354 0.00892966 1.19073e-19)
(-2.59695 0.00798382 0)
(-2.6091 0.00703106 -1.15712e-19)
(-2.61998 0.00606461 -1.14027e-19)
(-2.62956 0.00507829 -1.12338e-19)
(-2.63781 0.00406477 0)
(-2.64466 0.00302202 0)
(-2.65008 0.00196232 0)
(-2.65399 0.00093722 -1.05542e-19)
(-2.65636 4.16518e-05 0)
(-2.65745 -0.000699216 0)
(-2.65746 -0.00136355 1.00196e-19)
(-2.65638 -0.00199079 0)
(-2.65423 -0.0025957 0)
(-2.65102 -0.00318733 9.45108e-20)
(-2.64675 -0.00377045 0)
(-2.64144 -0.00433958 0)
(-2.63507 -0.00489883 -8.84127e-20)
(-2.62767 -0.00544044 -8.62793e-20)
(-2.61923 -0.00596972 0)
(-2.60977 -0.00647831 8.1852e-20)
(-2.59929 -0.00697271 0)
(-2.5878 -0.00744433 -7.72058e-20)
(-2.57532 -0.00790036 0)
(-2.56186 -0.0083323 -7.23401e-20)
(-2.54743 -0.00874755 -6.98264e-20)
(-2.53204 -0.00913984 0)
(-2.51571 -0.00951709 0)
(-2.49845 -0.00987509 0)
(-2.48026 -0.0102187 0)
(-2.46115 -0.0105442 0)
(-2.44113 -0.0108557 0)
(-2.42021 -0.0111509 0)
(-2.3984 -0.0114344 -4.78506e-20)
(-2.3757 -0.011706 4.4882e-20)
(-2.35212 -0.0119694 0)
(-2.32766 -0.0122311 0)
(-2.3023 -0.0124984 0)
(-2.27603 -0.0127888 0)
(-2.24884 -0.0130887 5.85651e-20)
(-2.22072 -0.0133792 0)
(-2.19166 -0.0136736 -4.52869e-20)
(-2.16165 -0.0139827 3.84429e-20)
(-2.13068 -0.0142613 0)
(-2.09876 -0.0145067 0)
(-2.06588 -0.0146282 0)
(-2.0321 -0.0145732 -9.39456e-21)
(-1.99739 -0.0143104 -1.63395e-21)
(-1.96176 -0.0142454 0)
(-1.92506 -0.0145557 1.46251e-20)
(-1.88731 -0.0149032 2.31862e-20)
(-1.84852 -0.0152468 -3.20682e-20)
(-1.80869 -0.0156081 0)
(-1.76782 -0.0159848 0)
(-1.72589 -0.0163863 -6.0966e-20)
(-1.6829 -0.016802 0)
(-1.63884 -0.0172347 0)
(-1.59372 -0.017681 0)
(-1.54753 -0.0181432 0)
(-1.5003 -0.018614 1.18938e-19)
(-1.452 -0.0190979 1.32402e-19)
(-1.4027 -0.0195848 0)
(-1.35237 -0.0200818 1.61676e-19)
(-1.30109 -0.0205769 0)
(-1.24884 -0.0210807 0)
(-1.1957 -0.0215798 2.12452e-19)
(-1.14165 -0.022087 0)
(-1.08678 -0.022588 2.51789e-19)
(-1.03106 -0.0230963 0)
(-0.974594 -0.0235991 0)
(-0.917341 -0.0241066 3.21089e-19)
(-0.859391 -0.0246129 0)
(-0.800741 -0.0251166 3.75849e-19)
(-0.741447 -0.0256211 0)
(-0.681543 -0.0261214 0)
(-0.621076 -0.0266188 0)
(-0.56009 -0.0271135 -5.13137e-19)
(-0.498633 -0.0276066 0)
(-0.436748 -0.028101 6.00626e-19)
(-0.374482 -0.0285992 0)
(-0.311903 -0.0290949 0)
(-0.249086 -0.0295909 0)
(-0.18612 -0.030077 0)
(-0.123172 -0.030493 0)
(-0.0607088 -0.030673 0)
(0.00141595 -0.0299578 0)
(0.0598073 -0.0278239 -2.03475e-18)
(0.123362 -0.0243261 0)
(0.143324 -0.0111843 0)
(-0.000313394 0.0193016 3.0499e-18)
(-0.00652347 0.03484 -3.44547e-18)
(-0.0131544 0.0356337 0)
(-0.0141872 0.0264762 2.46579e-18)
(-0.000581676 0.0047495 0)
(0.0289665 -0.0319874 7.21214e-19)
(0.0680154 -0.0725118 -9.15025e-19)
(0.11242 -0.105536 -6.55744e-19)
(0.158283 -0.12575 0)
(0.202201 -0.132856 -4.30084e-19)
(0.242086 -0.129407 -1.88315e-19)
(0.276992 -0.118712 0)
(0.30659 -0.103576 0)
(0.330892 -0.0860541 0)
(0.350112 -0.0674566 0)
(0.364558 -0.0485692 -1.47027e-19)
(0.37461 -0.0297476 0)
(0.380435 -0.0111935 3.00313e-19)
(0.383054 0.00713581 0)
(0.382272 0.0250545 0)
(0.37771 0.0421975 -3.11954e-19)
(0.36887 0.0580112 0)
(0.355206 0.071718 3.34466e-19)
(0.336317 0.0822913 -1.75861e-19)
(0.312076 0.0886414 1.8805e-19)
(0.282867 0.0897429 -2.04985e-19)
(0.249726 0.0850521 -2.28653e-19)
(0.214421 0.0748143 0)
(0.179323 0.0602112 0)
(0.147279 0.0429627 3.66612e-19)
(0.121246 0.0245089 -4.39288e-19)
(0.104269 0.00540173 0)
(0.097433 -0.0142512 0)
(0.101838 -0.0338677 4.88762e-19)
(0.115822 -0.0533164 0)
(0.134996 -0.0688021 0)
(0.15311 -0.0734802 -2.85712e-19)
(0.165365 -0.0653967 0)
(0.169904 -0.048501 2.47928e-19)
(0.16663 -0.0284009 -5.19819e-19)
(0.156627 -0.0113952 0)
(0.141051 -0.000435192 0)
(0.118657 0.00551452 -1.34821e-18)
(0.0827847 0.0106177 -1.55609e-18)
(0.0228335 0.0238085 -1.70917e-18)
(-0.0728746 0.0565584 6.24059e-19)
(-0.192905 0.0989442 -3.90795e-19)
(-0.323956 0.14246 -8.09489e-19)
(-0.459937 0.184033 4.02371e-19)
(-0.601105 0.218833 1.59453e-19)
(-0.742911 0.24462 0)
(-0.882169 0.262071 -1.14118e-19)
(-1.01707 0.271472 1.02244e-19)
(-1.14467 0.272954 0)
(-1.26347 0.267154 0)
(-1.37067 0.256055 0)
(-1.46609 0.241654 -7.56754e-20)
(-1.55075 0.224932 0)
(-1.62559 0.206954 1.4037e-19)
(-1.69194 0.189072 0)
(-1.75128 0.172053 1.31277e-19)
(-1.8045 0.156286 0)
(-1.85318 0.142009 -1.25336e-19)
(-1.89773 0.129241 0)
(-1.93907 0.118149 1.20248e-19)
(-1.97749 0.108389 -5.90821e-20)
(-2.01368 0.0998818 0)
(-2.04791 0.0924591 -1.14125e-19)
(-2.0804 0.0859521 -5.61755e-20)
(-2.11137 0.0802158 -5.53472e-20)
(-2.14093 0.0751165 0)
(-2.1692 0.0705431 -5.37355e-20)
(-2.19623 0.0663989 -5.30647e-20)
(-2.2221 0.062608 0)
(-2.24684 0.0591045 5.16665e-20)
(-2.27048 0.0558398 -1.01906e-19)
(-2.29306 0.0527702 0)
(-2.31458 0.0498658 -4.9688e-20)
(-2.33506 0.0470991 0)
(-2.35453 0.0444536 1.45187e-19)
(-2.37299 0.041911 0)
(-2.39045 0.0394623 -1.41465e-19)
(-2.40691 0.0370949 -4.65617e-20)
(-2.42239 0.0348036 4.58896e-20)
(-2.43688 0.0325764 9.05634e-20)
(-2.4504 0.0304091 -8.93486e-20)
(-2.46294 0.0282919 0)
(-2.47451 0.0262244 0)
(-2.48513 0.0242001 0)
(-2.49479 0.0222174 2.53529e-19)
(-2.50349 0.0202739 8.32882e-20)
(-2.51121 0.0183645 -8.20423e-20)
(-2.51797 0.0164818 0)
(-2.52376 0.0146188 -7.953e-20)
(-2.52862 0.0127704 7.82577e-20)
(-2.53255 0.0109332 7.69799e-20)
(-2.53558 0.00910462 0)
(-2.53778 0.00728408 0)
(-2.53919 0.00547868 0)
(-2.53991 0.00371863 7.17727e-20)
(-2.54002 0.00206267 0)
(-2.53931 0.00052531 -1.38175e-19)
(-2.53759 -0.000946681 -2.03004e-19)
(-2.53484 -0.00238268 1.32545e-19)
(-2.53105 -0.0037911 0)
(-2.52622 -0.00517504 6.34625e-20)
(-2.52035 -0.00653679 0)
(-2.51345 -0.00787129 1.20687e-19)
(-2.50551 -0.00918081 -5.89225e-20)
(-2.49655 -0.0104582 -5.73503e-20)
(-2.48655 -0.0117074 0)
(-2.47554 -0.0129211 -1.617e-19)
(-2.46353 -0.0141053 1.04559e-19)
(-2.45051 -0.015253 5.03988e-20)
(-2.43651 -0.0163708 0)
(-2.42153 -0.0174506 4.68868e-20)
(-2.40559 -0.0184986 1.35659e-19)
(-2.3887 -0.0195093 0)
(-2.37087 -0.02049 8.32445e-20)
(-2.3521 -0.0214379 7.95057e-20)
(-2.33241 -0.0223594 7.57193e-20)
(-2.31178 -0.0232514 0)
(-2.29025 -0.0241202 0)
(-2.26781 -0.0249638 0)
(-2.24447 -0.0257884 -3.03066e-20)
(-2.22023 -0.0265929 -2.78736e-20)
(-2.19509 -0.0273815 0)
(-2.16905 -0.0281559 -4.81513e-20)
(-2.1421 -0.028916 -4.40845e-20)
(-2.11424 -0.0296651 0)
(-2.08547 -0.0303962 -3.53997e-20)
(-2.05577 -0.0311179 -6.34127e-20)
(-2.02513 -0.0318265 2.70403e-20)
(-1.99355 -0.0325349 2.37555e-20)
(-1.961 -0.0332294 0)
(-1.92747 -0.0339306 0)
(-1.89294 -0.0346394 0)
(-1.85737 -0.0353714 5.34157e-21)
(-1.82072 -0.0361253 -1.8264e-21)
(-1.78297 -0.0368847 6.54262e-21)
(-1.74418 -0.037618 -8.46063e-21)
(-1.70439 -0.038329 1.2163e-20)
(-1.66355 -0.0390294 1.80998e-20)
(-1.62165 -0.0397345 0)
(-1.57867 -0.0404391 0)
(-1.53461 -0.0411297 -3.21954e-20)
(-1.48948 -0.0418149 0)
(-1.44326 -0.0424874 0)
(-1.39597 -0.0431464 9.85907e-20)
(-1.34761 -0.0437911 0)
(-1.29818 -0.0444152 6.04304e-20)
(-1.2477 -0.0450171 -6.80677e-20)
(-1.1962 -0.0455884 0)
(-1.14368 -0.0461297 7.95952e-20)
(-1.09019 -0.0466321 0)
(-1.03575 -0.0471021 0)
(-0.98041 -0.0475309 -1.02538e-19)
(-0.924185 -0.0479282 2.18492e-19)
(-0.867141 -0.0482859 -1.18032e-19)
(-0.80928 -0.0486141 0)
(-0.750674 -0.0489062 0)
(-0.691326 -0.0491687 1.41314e-19)
(-0.631303 -0.0494017 0)
(-0.570618 -0.0496012 1.59505e-19)
(-0.509324 -0.0497701 0)
(-0.447456 -0.0499069 0)
(-0.385061 -0.0500066 0)
(-0.322184 -0.0500759 2.01733e-19)
(-0.258873 -0.050111 0)
(-0.19517 -0.0501157 -2.2373e-19)
(-0.131119 -0.0500879 0)
(-0.0667832 -0.050031 0)
(-0.00212684 -0.0499303 5.09406e-19)
(0.0627991 -0.0497409 -5.16578e-19)
(0.127718 -0.0493829 0)
(0.192217 -0.0487323 0)
(0.256099 -0.0473571 0)
(0.316931 -0.0447333 1.59404e-18)
(0.37986 -0.0399677 0)
(0.419826 -0.02634 -1.10764e-18)
(0.000218995 0.022327 3.39131e-22)
(-0.000137012 0.0399386 4.79639e-18)
(0.00504442 0.0319714 0)
(0.024915 -0.00242998 -3.28476e-18)
(0.064261 -0.0620389 0)
(0.11508 -0.126597 0)
(0.167357 -0.17744 -4.20304e-22)
(0.214359 -0.206531 3.77822e-19)
(0.253415 -0.214717 3.25012e-19)
(0.284445 -0.206989 2.90502e-19)
(0.308591 -0.188979 0)
(0.327255 -0.165299 0)
(0.34163 -0.139089 -2.42617e-19)
(0.352565 -0.112226 -4.7225e-19)
(0.360623 -0.0857231 4.65747e-19)
(0.366185 -0.0600645 0)
(0.369522 -0.0354345 4.68944e-19)
(0.37083 -0.0119163 -2.38499e-19)
(0.370356 0.0104991 0)
(0.368407 0.0319697 4.86539e-19)
(0.365242 0.0526148 2.47715e-19)
(0.360998 0.0723297 -5.12063e-19)
(0.355557 0.0907078 -2.66267e-19)
(0.348489 0.106976 0)
(0.339089 0.120004 5.90157e-19)
(0.326546 0.128387 6.26907e-19)
(0.310176 0.130703 0)
(0.289861 0.125868 7.29524e-19)
(0.266356 0.113539 0)
(0.241462 0.0942107 9.01135e-19)
(0.217771 0.0691128 5.12221e-19)
(0.198171 0.0396807 0)
(0.184703 0.00745661 0)
(0.177598 -0.0266608 0)
(0.174149 -0.0581049 0)
(0.166941 -0.0748935 0)
(0.15181 -0.0705748 0)
(0.129287 -0.0505067 7.74633e-19)
(0.0999322 -0.0222525 -1.2128e-18)
(0.063567 0.00982387 0)
(0.016854 0.0410933 0)
(-0.0515201 0.07085 0)
(-0.143644 0.109168 2.79427e-22)
(-0.254887 0.157463 5.27087e-19)
(-0.381648 0.210557 8.03923e-19)
(-0.517782 0.264468 -6.38694e-19)
(-0.656306 0.314631 -2.63157e-19)
(-0.791964 0.357058 2.23514e-19)
(-0.92052 0.39059 8.68917e-22)
(-1.0385 0.413984 1.75145e-19)
(-1.1444 0.42632 0)
(-1.23796 0.428358 1.46979e-19)
(-1.31887 0.421118 1.33565e-21)
(-1.388 0.405794 0)
(-1.44719 0.384174 0)
(-1.49845 0.358664 -1.17438e-19)
(-1.54373 0.331442 0)
(-1.5845 0.303729 0)
(-1.62231 0.276681 1.05789e-19)
(-1.65824 0.251427 2.03596e-19)
(-1.69278 0.228591 -9.84856e-20)
(-1.7262 0.208175 0)
(-1.75877 0.190009 9.39313e-20)
(-1.79068 0.174101 0)
(-1.82186 0.160317 9.02931e-20)
(-1.85226 0.148254 8.82748e-20)
(-1.88189 0.137716 -1.73361e-19)
(-1.91072 0.128449 -8.51159e-20)
(-1.93874 0.12023 0)
(-1.96592 0.112882 1.64415e-19)
(-1.99226 0.106246 0)
(-2.01773 0.100194 2.38769e-19)
(-2.04233 0.0946193 1.5666e-19)
(-2.06605 0.0894358 1.5426e-19)
(-2.08889 0.084574 -1.51933e-19)
(-2.11084 0.0799795 2.24567e-19)
(-2.13188 0.0756079 0)
(-2.15203 0.0714262 0)
(-2.17127 0.067407 -1.43153e-19)
(-2.18961 0.0635308 -2.11638e-19)
(-2.20704 0.0597803 0)
(-2.22357 0.056144 6.8516e-20)
(-2.23918 0.0526107 0)
(-2.25389 0.0491729 -1.99352e-19)
(-2.26769 0.0458207 -8.3569e-23)
(-2.28057 0.0425479 7.60299e-23)
(-2.29256 0.0393465 1.26859e-19)
(-2.30364 0.0362129 0)
(-2.31382 0.0331423 -1.22875e-19)
(-2.32311 0.0301324 -4.60967e-23)
(-2.33149 0.0271812 0)
(-2.33896 0.0242846 0)
(-2.34552 0.0214375 0)
(-2.35119 0.018635 1.12935e-19)
(-2.35597 0.0158754 0)
(-2.35986 0.0131601 0)
(-2.36289 0.0104945 0)
(-2.36505 0.00788773 0)
(-2.36635 0.00535184 0)
(-2.36677 0.00289272 1.00806e-19)
(-2.36628 0.000490982 0)
(-2.36482 -0.0018834 9.6479e-20)
(-2.36237 -0.00423042 9.43164e-20)
(-2.35891 -0.00654193 -9.21311e-20)
(-2.35444 -0.00881678 0)
(-2.34896 -0.0110563 -8.76802e-20)
(-2.34246 -0.013256 0)
(-2.33496 -0.0154141 -8.31133e-20)
(-2.32644 -0.017525 8.07836e-20)
(-2.31693 -0.019587 2.3569e-19)
(-2.30641 -0.0215958 0)
(-2.29491 -0.0235509 2.2128e-19)
(-2.28242 -0.0254501 7.16421e-20)
(-2.26896 -0.0272937 0)
(-2.25454 -0.0290807 1.32803e-19)
(-2.23916 -0.0308113 1.2772e-19)
(-2.22285 -0.0324852 -1.83586e-19)
(-2.20562 -0.0341042 0)
(-2.18746 -0.0356703 -5.5776e-20)
(-2.16839 -0.0371855 -5.31287e-20)
(-2.14841 -0.0386536 -1.52002e-19)
(-2.12753 -0.0400766 0)
(-2.10575 -0.0414596 0)
(-2.08308 -0.0428053 0)
(-2.05953 -0.0441188 -4.02911e-20)
(-2.03509 -0.0454019 0)
(-2.00977 -0.0466597 0)
(-1.98354 -0.0478942 3.14485e-20)
(-1.95642 -0.0491102 2.87042e-20)
(-1.92839 -0.0503091 0)
(-1.89944 -0.051491 0)
(-1.86957 -0.0526552 4.08954e-20)
(-1.83875 -0.0538062 0)
(-1.80697 -0.0549456 -2.98248e-20)
(-1.77422 -0.0560654 -2.49566e-20)
(-1.74048 -0.0571686 0)
(-1.70574 -0.0582536 0)
(-1.66995 -0.0593218 8.10887e-21)
(-1.63312 -0.0603858 -7.47581e-22)
(-1.59522 -0.0614713 -7.65288e-22)
(-1.55629 -0.0625728 0)
(-1.51633 -0.0636754 -3.07695e-20)
(-1.47533 -0.0647685 0)
(-1.43326 -0.0658574 0)
(-1.39012 -0.0669385 0)
(-1.34589 -0.0680011 4.0064e-20)
(-1.30059 -0.0690449 0)
(-1.25421 -0.0700644 -1.03732e-19)
(-1.20676 -0.0710563 -5.93582e-20)
(-1.15824 -0.0720168 0)
(-1.10867 -0.0729408 -7.28672e-20)
(-1.05807 -0.0738207 0)
(-1.00644 -0.0746491 0)
(-0.953834 -0.0754184 -2.80501e-19)
(-0.900258 -0.0761237 2.01124e-19)
(-0.845767 -0.0767632 0)
(-0.790385 -0.0773358 2.31814e-19)
(-0.734164 -0.0778423 -1.25043e-19)
(-0.677131 -0.0782835 0)
(-0.619339 -0.0786609 0)
(-0.560818 -0.0789763 0)
(-0.501616 -0.0792302 -4.7294e-19)
(-0.441769 -0.079427 0)
(-0.381317 -0.0795622 -1.76234e-19)
(-0.320299 -0.0796363 0)
(-0.258757 -0.0796487 0)
(-0.196738 -0.0795919 0)
(-0.134282 -0.0794712 0)
(-0.0714386 -0.0792869 0)
(-0.0082249 -0.0790504 0)
(0.0553322 -0.0787551 -4.7146e-19)
(0.11915 -0.0783964 0)
(0.183134 -0.0779285 -2.46525e-19)
(0.247173 -0.0772709 7.49894e-19)
(0.31113 -0.0763306 0)
(0.374725 -0.0749395 0)
(0.437871 -0.0727615 -5.24122e-19)
(0.498922 -0.0692459 -5.35486e-19)
(0.561821 -0.0632786 5.44084e-19)
(0.611402 -0.049218 5.62639e-19)
(-0.00111455 0.0228196 -6.10307e-18)
(0.00136975 0.028195 -7.54425e-18)
(0.0225959 -0.014685 -3.28352e-18)
(0.0698218 -0.0981955 -8.70897e-19)
(0.12991 -0.185276 0)
(0.187021 -0.248311 8.07304e-19)
(0.232113 -0.279042 -3.28283e-19)
(0.263719 -0.28228 0)
(0.284419 -0.26725 -2.54334e-19)
(0.297694 -0.242182 0)
(0.306392 -0.212544 4.43709e-19)
(0.31234 -0.181401 0)
(0.316538 -0.150295 2.05367e-19)
(0.319455 -0.119931 4.03671e-19)
(0.321265 -0.090616 -4.01286e-19)
(0.322018 -0.0624834 0)
(0.321726 -0.035589 -4.09415e-19)
(0.320411 -0.00996897 0)
(0.318109 0.014367 0)
(0.314912 0.0374595 -4.26873e-19)
(0.310954 0.0593373 0)
(0.306452 0.0799917 -6.69096e-22)
(0.301597 0.0992945 0)
(0.29647 0.116882 0)
(0.290934 0.132087 5.20546e-22)
(0.284612 0.143832 -5.53373e-19)
(0.276882 0.150654 -5.95229e-19)
(0.267041 0.150886 -6.43101e-19)
(0.2546 0.14305 0)
(0.239604 0.126227 -1.54742e-18)
(0.222847 0.100446 0)
(0.205626 0.0669297 -9.84993e-19)
(0.189159 0.0279621 0)
(0.171068 -0.0109507 0)
(0.144087 -0.0354831 9.37924e-19)
(0.105992 -0.0355014 0)
(0.0584464 -0.0145038 -7.87255e-19)
(0.00113476 0.0206563 -6.76117e-22)
(-0.069767 0.0656064 1.33833e-18)
(-0.15591 0.119036 -1.08424e-18)
(-0.256388 0.17818 0)
(-0.370362 0.238891 0)
(-0.493591 0.300253 -2.95293e-19)
(-0.620672 0.36091 0)
(-0.746419 0.416969 -2.12221e-19)
(-0.865639 0.463599 1.86471e-19)
(-0.973885 0.498841 1.66388e-19)
(-1.06933 0.52259 0)
(-1.15121 0.534937 -1.38312e-19)
(-1.21932 0.536591 -1.2804e-19)
(-1.27516 0.528655 2.41498e-19)
(-1.32056 0.512631 -1.12578e-19)
(-1.35764 0.490192 -1.06593e-19)
(-1.38877 0.463033 0)
(-1.41621 0.432992 0)