/*--------------------------------*- C++ -*----------------------------------*\
  =========                 |
  \\      /  F ield         | OpenFOAM: The Open Source CFD Toolbox
   \\    /   O peration     | Website:  https://openfoam.org
    \\  /    A nd           | Version:  13
     \\/     M anipulation  |
\*---------------------------------------------------------------------------*/
FoamFile
{
    format      ascii;
    class       volScalarField;
    location    "3.8";
    object      nut;
}
// * * * * * * * * * * * * * * * * * * * * * * * * * * * * * * * * * * * * * //

dimensions      [0 2 -1 0 0 0 0];

internalField   nonuniform List<scalar> 
6400
(
6.97104e-10
3.55396e-09
8.42992e-09
1.35633e-08
1.76483e-08
2.0257e-08
2.16377e-08
2.23838e-08
2.31598e-08
2.46009e-08
2.72196e-08
3.14654e-08
3.77097e-08
4.60405e-08
5.6199e-08
6.77983e-08
8.04396e-08
9.39316e-08
1.07689e-07
1.21359e-07
1.3504e-07
1.49637e-07
1.66366e-07
1.86359e-07
2.09686e-07
2.34801e-07
2.59695e-07
2.84744e-07
3.10215e-07
3.36742e-07
3.6449e-07
3.92695e-07
4.20343e-07
4.47479e-07
4.74132e-07
5.01045e-07
5.28383e-07
5.56735e-07
5.86308e-07
6.17501e-07
6.50435e-07
6.85386e-07
7.22627e-07
7.62391e-07
8.04892e-07
8.50467e-07
9.00294e-07
9.57164e-07
1.027e-06
1.10216e-06
1.17737e-06
1.2524e-06
1.32506e-06
1.39379e-06
1.45594e-06
1.5093e-06
1.55089e-06
1.57184e-06
1.58025e-06
1.57489e-06
1.5408e-06
1.48178e-06
1.39803e-06
1.29101e-06
1.16524e-06
1.02438e-06
8.76438e-07
7.28163e-07
5.86351e-07
4.5495e-07
3.43333e-07
2.52292e-07
1.78019e-07
1.20223e-07
7.7884e-08
4.84428e-08
2.89068e-08
1.62319e-08
7.48019e-09
1.58152e-09
3.39374e-09
2.50751e-07
8.95379e-07
1.53274e-06
2.02602e-06
2.34187e-06
2.51794e-06
2.61732e-06
2.70424e-06
2.82503e-06
3.03263e-06
3.35979e-06
3.79517e-06
4.30099e-06
4.8349e-06
5.35176e-06
5.81554e-06
6.1893e-06
6.45944e-06
6.62367e-06
6.70907e-06
6.79976e-06
6.93464e-06
7.15338e-06
7.44751e-06
7.74084e-06
7.94269e-06
8.15695e-06
8.41006e-06
8.73874e-06
9.1705e-06
9.68353e-06
1.02329e-05
1.08202e-05
1.14241e-05
1.20615e-05
1.27216e-05
1.34128e-05
1.4131e-05
1.48828e-05
1.56637e-05
1.64696e-05
1.73048e-05
1.81813e-05
1.91054e-05
2.00544e-05
2.09901e-05
2.189e-05
2.27162e-05
2.35238e-05
2.43655e-05
2.5207e-05
2.60448e-05
2.68588e-05
2.76309e-05
2.83395e-05
2.90291e-05
2.94265e-05
2.97049e-05
2.98637e-05
2.97937e-05
2.93847e-05
2.86676e-05
2.76135e-05
2.6229e-05
2.45104e-05
2.25542e-05
2.04199e-05
1.81235e-05
1.57196e-05
1.30407e-05
1.02815e-05
7.74143e-06
5.58778e-06
3.8872e-06
2.60781e-06
1.70203e-06
1.05806e-06
4.61125e-07
8.29667e-09
7.46739e-09
6.80811e-07
2.81131e-06
5.01907e-06
6.76074e-06
7.93569e-06
8.64458e-06
9.0568e-06
9.34327e-06
9.6404e-06
1.00712e-05
1.06854e-05
1.14629e-05
1.23341e-05
1.32112e-05
1.40066e-05
1.46815e-05
1.52116e-05
1.55908e-05
1.5825e-05
1.59299e-05
1.59234e-05
1.59028e-05
1.59098e-05
1.59656e-05
1.61098e-05
1.64096e-05
1.67253e-05
1.70637e-05
1.74151e-05
1.7792e-05
1.82982e-05
1.89735e-05
1.9892e-05
2.08434e-05
2.19167e-05
2.30515e-05
2.42676e-05
2.55091e-05
2.68166e-05
2.82101e-05
2.95793e-05
3.10012e-05
3.23811e-05
3.37086e-05
3.49815e-05
3.62424e-05
3.7456e-05
3.86755e-05
3.989e-05
4.1104e-05
4.22985e-05
4.34655e-05
4.45856e-05
4.56377e-05
4.65918e-05
4.74193e-05
4.81334e-05
4.85496e-05
4.87281e-05
4.88007e-05
4.85264e-05
4.79277e-05
4.69245e-05
4.54389e-05
4.33559e-05
4.084e-05
3.79745e-05
3.47227e-05
3.11544e-05
2.73028e-05
2.32636e-05
1.92037e-05
1.53313e-05
1.18411e-05
8.86941e-06
6.4285e-06
4.3179e-06
1.74036e-06
2.1695e-08
1.29527e-08
1.13936e-06
4.561e-06
8.01753e-06
1.07518e-05
1.26672e-05
1.389e-05
1.4622e-05
1.50874e-05
1.55048e-05
1.60285e-05
1.67429e-05
1.76281e-05
1.85856e-05
1.95004e-05
2.02916e-05
2.09031e-05
2.13201e-05
2.15556e-05
2.16423e-05
2.16307e-05
2.15757e-05
2.15644e-05
2.16466e-05
2.18007e-05
2.18936e-05
2.19456e-05
2.20577e-05
2.25533e-05
2.33347e-05
2.43621e-05
2.55736e-05
2.67276e-05
2.79301e-05
2.91926e-05
3.0504e-05
3.17857e-05
3.31037e-05
3.44879e-05
3.57791e-05
3.70867e-05
3.8338e-05
3.95722e-05
4.07537e-05
4.18995e-05
4.29994e-05
4.40645e-05
4.51185e-05
4.61657e-05
4.71992e-05
4.82159e-05
4.92047e-05
5.01562e-05
5.10561e-05
5.18878e-05
5.26309e-05
5.32622e-05
5.37567e-05
5.4038e-05
5.41366e-05
5.40908e-05
5.37765e-05
5.31193e-05
5.23223e-05
5.13288e-05
4.9752e-05
4.76152e-05
4.50028e-05
4.1959e-05
3.8533e-05
3.47659e-05
3.07116e-05
2.64509e-05
2.21211e-05
1.79053e-05
1.40065e-05
1.05325e-05
7.22885e-06
2.87993e-06
3.5055e-08
2.06134e-08
1.71987e-06
6.42213e-06
1.09287e-05
1.43614e-05
1.67118e-05
1.81863e-05
1.90519e-05
1.95993e-05
2.01067e-05
2.07706e-05
2.16514e-05
2.26764e-05
2.37066e-05
2.46122e-05
2.53132e-05
2.57795e-05
2.60221e-05
2.60829e-05
2.60222e-05
2.59349e-05
2.58007e-05
2.56717e-05
2.55384e-05
2.51693e-05
2.53639e-05
2.60724e-05
2.70144e-05
2.81583e-05
2.92959e-05
3.05858e-05
3.18675e-05
3.31096e-05
3.43611e-05
3.55757e-05
3.67046e-05
3.78217e-05
3.8963e-05
3.99511e-05
4.08928e-05
4.17636e-05
4.2566e-05
4.33133e-05
4.40092e-05
4.46818e-05
4.535e-05
4.60189e-05
4.6672e-05
4.73191e-05
4.79588e-05
4.85939e-05
4.92241e-05
4.98475e-05
5.04607e-05
5.10583e-05
5.16332e-05
5.21716e-05
5.26515e-05
5.30464e-05
5.3334e-05
5.34088e-05
5.33674e-05
5.29398e-05
5.21046e-05
5.09179e-05
5.00426e-05
4.85318e-05
4.64712e-05
4.39489e-05
4.10177e-05
3.77223e-05
3.40987e-05
3.01793e-05
2.60201e-05
2.17383e-05
1.75316e-05
1.35191e-05
9.32476e-06
3.63722e-06
4.36912e-08
3.1391e-08
2.49499e-06
8.60067e-06
1.40778e-05
1.80092e-05
2.0562e-05
2.20836e-05
2.29545e-05
2.35511e-05
2.41846e-05
2.50193e-05
2.60456e-05
2.71343e-05
2.81264e-05
2.89023e-05
2.94075e-05
2.9647e-05
2.96561e-05
2.9504e-05
2.92185e-05
2.89699e-05
2.83925e-05
2.79352e-05
2.82084e-05
2.90226e-05
3.00514e-05
3.11003e-05
3.22902e-05
3.34946e-05
3.46532e-05
3.5813e-05
3.68574e-05
3.7823e-05
3.87541e-05
3.95853e-05
4.02938e-05
4.0954e-05
4.16128e-05
4.20892e-05
4.25487e-05
4.29322e-05
4.32823e-05
4.3597e-05
4.38883e-05
4.41564e-05
4.44033e-05
4.46327e-05
4.48466e-05
4.50531e-05
4.5258e-05
4.54694e-05
4.56972e-05
4.59501e-05
4.62344e-05
4.65554e-05
4.69175e-05
4.73268e-05
4.7773e-05
4.82402e-05
4.86988e-05
4.91114e-05
4.93922e-05
4.94891e-05
4.94279e-05
4.88088e-05
4.78208e-05
4.70983e-05
4.56237e-05
4.36219e-05
4.11556e-05
3.83001e-05
3.51192e-05
3.16437e-05
2.78669e-05
2.37981e-05
1.95728e-05
1.52756e-05
1.05355e-05
3.98713e-06
4.65968e-08
4.62179e-08
3.50636e-06
1.11363e-05
1.74964e-05
2.1751e-05
2.43413e-05
2.5792e-05
2.66148e-05
2.72542e-05
2.80057e-05
2.89602e-05
3.00341e-05
3.1062e-05
3.18887e-05
3.24202e-05
3.26335e-05
3.26039e-05
3.2226e-05
3.18834e-05
3.12294e-05
3.05425e-05
3.0749e-05
3.14413e-05
3.23474e-05
3.3232e-05
3.42185e-05
3.52141e-05
3.62363e-05
3.71707e-05
3.80394e-05
3.88406e-05
3.9559e-05
4.01925e-05
4.0741e-05
4.12092e-05
4.15974e-05
4.18851e-05
4.21123e-05
4.23127e-05
4.24716e-05
4.25617e-05
4.26258e-05
4.26564e-05
4.26575e-05
4.26309e-05
4.25785e-05
4.25038e-05
4.24095e-05
4.22998e-05
4.21781e-05
4.20491e-05
4.19274e-05
4.18333e-05
4.17834e-05
4.1789e-05
4.18621e-05
4.20508e-05
4.23732e-05
4.28287e-05
4.33766e-05
4.39956e-05
4.46625e-05
4.52732e-05
4.57202e-05
4.58803e-05
4.5446e-05
4.49669e-05
4.42623e-05
4.27686e-05
4.0677e-05
3.80979e-05
3.51544e-05
3.19472e-05
2.85074e-05
2.47537e-05
2.06168e-05
1.619e-05
1.0888e-05
3.98603e-06
4.53212e-08
6.5963e-08
4.77422e-06
1.39937e-05
2.10909e-05
2.55253e-05
2.80452e-05
2.93676e-05
3.01242e-05
3.07891e-05
3.16041e-05
3.25787e-05
3.3575e-05
3.44185e-05
3.49786e-05
3.52034e-05
3.49302e-05
3.45288e-05
3.41158e-05
3.30893e-05
3.29842e-05
3.3415e-05
3.40106e-05
3.46389e-05
3.54148e-05
3.62523e-05
3.71513e-05
3.79854e-05
3.87656e-05
3.94403e-05
4.00372e-05
4.0546e-05
4.09723e-05
4.1321e-05
4.15983e-05
4.18121e-05
4.19687e-05
4.20751e-05
4.21461e-05
4.21731e-05
4.2169e-05
4.21558e-05
4.208e-05
4.19963e-05
4.18788e-05
4.1737e-05
4.15677e-05
4.1377e-05
4.1167e-05
4.09387e-05
4.06919e-05
4.04294e-05
4.01422e-05
3.98246e-05
3.94814e-05
3.91352e-05
3.88219e-05
3.85685e-05
3.84631e-05
3.86249e-05
3.89934e-05
3.95192e-05
4.02848e-05
4.11305e-05
4.20496e-05
4.27566e-05
4.30396e-05
4.28468e-05
4.26846e-05
4.20654e-05
4.0409e-05
3.80729e-05
3.52141e-05
3.20197e-05
2.86374e-05
2.50912e-05
2.11538e-05
1.65857e-05
1.10281e-05
3.90771e-06
4.26134e-08
9.1276e-08
6.28636e-06
1.70898e-05
2.47458e-05
2.92609e-05
3.16458e-05
3.28122e-05
3.34854e-05
3.4132e-05
3.4924e-05
3.5802e-05
3.65992e-05
3.71534e-05
3.73707e-05
3.69985e-05
3.6558e-05
3.58757e-05
3.51985e-05
3.51808e-05
3.55138e-05
3.57942e-05
3.63406e-05
3.7026e-05
3.77718e-05
3.85112e-05
3.92159e-05
3.98284e-05
4.03636e-05
4.08069e-05
4.1182e-05
4.14875e-05
4.17368e-05
4.19361e-05
4.20932e-05
4.22141e-05
4.23028e-05
4.23644e-05
4.23997e-05
4.23919e-05
4.23774e-05
4.23589e-05
4.22678e-05
4.21822e-05
4.20625e-05
4.19265e-05
4.17716e-05
4.15982e-05
4.1403e-05
4.11866e-05
4.0947e-05
4.0684e-05
4.03922e-05
4.00649e-05
3.96952e-05
3.92761e-05
3.87893e-05
3.82342e-05
3.76078e-05
3.69084e-05
3.64174e-05
3.63684e-05
3.68231e-05
3.74788e-05
3.84696e-05
3.95466e-05
4.06534e-05
4.10458e-05
4.0879e-05
4.09386e-05
4.03466e-05
3.84343e-05
3.57433e-05
3.24906e-05
2.89265e-05
2.52416e-05
2.1376e-05
1.68358e-05
1.09874e-05
3.72039e-06
4.02951e-08
1.22516e-07
7.98367e-06
2.02722e-05
2.83963e-05
3.2906e-05
3.5114e-05
3.61036e-05
3.66617e-05
3.72235e-05
3.78931e-05
3.85633e-05
3.90615e-05
3.92527e-05
3.88398e-05
3.83596e-05
3.74728e-05
3.71036e-05
3.70488e-05
3.70208e-05
3.72464e-05
3.76658e-05
3.82559e-05
3.88856e-05
3.95108e-05
4.00831e-05
4.05897e-05
4.10154e-05
4.13792e-05
4.16841e-05
4.19484e-05
4.21756e-05
4.23757e-05
4.25513e-05
4.27055e-05
4.28382e-05
4.29469e-05
4.30384e-05
4.3089e-05
4.3111e-05
4.31367e-05
4.31069e-05
4.30517e-05
4.29737e-05
4.28666e-05
4.27374e-05
4.25853e-05
4.24131e-05
4.2223e-05
4.20182e-05
4.18014e-05
4.15665e-05
4.13095e-05
4.10217e-05
4.06892e-05
4.02887e-05
3.98097e-05
3.92348e-05
3.85441e-05
3.77474e-05
3.68824e-05
3.59774e-05
3.50185e-05
3.48804e-05
3.54834e-05
3.63451e-05
3.76274e-05
3.89571e-05
3.95121e-05
3.93861e-05
3.95176e-05
3.88495e-05
3.66027e-05
3.34873e-05
2.97682e-05
2.57415e-05
2.15949e-05
1.69961e-05
1.09996e-05
3.65272e-06
3.97318e-08
1.60474e-07
9.73137e-06
2.34325e-05
3.19571e-05
3.64138e-05
3.8419e-05
3.92077e-05
3.96038e-05
4.00034e-05
4.0456e-05
4.08295e-05
4.09656e-05
4.05312e-05
4.00386e-05
3.91543e-05
3.88018e-05
3.85573e-05
3.82899e-05
3.84196e-05
3.87383e-05
3.91993e-05
3.97351e-05
4.02537e-05
4.0738e-05
4.1163e-05
4.15356e-05
4.18598e-05
4.21534e-05
4.24227e-05
4.26777e-05
4.29188e-05
4.31482e-05
4.33615e-05
4.35641e-05
4.37581e-05
4.38792e-05
4.39699e-05
4.41022e-05
4.4146e-05
4.41807e-05
4.41682e-05
4.41306e-05
4.40608e-05
4.39624e-05
4.3837e-05
4.36859e-05
4.35113e-05
4.33149e-05
4.3098e-05
4.28611e-05
4.26038e-05
4.23259e-05
4.20267e-05
4.17048e-05
4.13586e-05
4.09789e-05
4.05108e-05
3.99135e-05
3.91481e-05
3.82315e-05
3.71947e-05
3.60483e-05
3.48944e-05
3.37682e-05
3.38584e-05
3.47001e-05
3.60373e-05
3.75278e-05
3.82495e-05
3.81561e-05
3.8239e-05
3.73325e-05
3.46892e-05
3.1099e-05
2.68532e-05
2.22636e-05
1.74094e-05
1.12497e-05
3.75965e-06
4.11532e-08
2.06541e-07
1.13865e-05
2.64859e-05
3.53721e-05
3.97477e-05
4.15302e-05
4.20876e-05
4.22665e-05
4.24273e-05
4.25829e-05
4.25968e-05
4.21154e-05
4.1612e-05
4.07572e-05
4.0337e-05
3.98493e-05
3.94696e-05
3.93959e-05
3.96161e-05
3.9963e-05
4.03931e-05
4.0838e-05
4.12509e-05
4.16326e-05
4.19774e-05
4.23003e-05
4.26084e-05
4.29125e-05
4.32133e-05
4.35116e-05
4.3802e-05
4.40991e-05
4.43821e-05
4.45972e-05
4.47729e-05
4.49608e-05
4.5124e-05
4.52412e-05
4.53138e-05
4.5358e-05
4.53624e-05
4.53362e-05
4.52763e-05
4.51864e-05
4.50673e-05
4.49209e-05
4.47492e-05
4.45539e-05
4.43362e-05
4.4097e-05
4.38361e-05
4.35525e-05
4.32434e-05
4.29045e-05
4.25301e-05
4.21142e-05
4.16522e-05
4.11426e-05
4.05363e-05
3.97447e-05
3.87382e-05
3.75661e-05
3.62399e-05
3.48554e-05
3.35296e-05
3.26671e-05
3.33774e-05
3.46207e-05
3.62725e-05
3.70913e-05
3.70026e-05
3.697e-05
3.56053e-05
3.25071e-05
2.83829e-05
2.35399e-05
1.82548e-05
1.19701e-05
4.15275e-06
4.65274e-08
2.58209e-07
1.30352e-05
2.94098e-05
3.86055e-05
4.28783e-05
4.44206e-05
4.47137e-05
4.46206e-05
4.44766e-05
4.42769e-05
4.36963e-05
4.31663e-05
4.22829e-05
4.17256e-05
4.10104e-05
4.05435e-05
4.03009e-05
4.03531e-05
4.06042e-05
4.09346e-05
4.13083e-05
4.16775e-05
4.20287e-05
4.23701e-05
4.27047e-05
4.30441e-05
4.339e-05
4.37435e-05
4.40991e-05
4.44636e-05
4.48328e-05
4.51627e-05
4.54275e-05
4.56907e-05
4.59142e-05
4.61224e-05
4.63099e-05
4.64347e-05
4.65302e-05
4.65886e-05
4.66101e-05
4.6598e-05
4.65519e-05
4.64738e-05
4.63648e-05
4.62264e-05
4.60605e-05
4.58687e-05
4.5653e-05
4.54146e-05
4.51545e-05
4.48722e-05
4.45655e-05
4.42296e-05
4.38568e-05
4.34364e-05
4.29553e-05
4.24014e-05
4.17681e-05
4.10579e-05
4.01509e-05
3.90871e-05
3.78052e-05
3.63496e-05
3.48507e-05
3.32873e-05
3.18494e-05
3.21805e-05
3.33878e-05
3.5078e-05
3.5963e-05
3.58102e-05
3.56464e-05
3.35243e-05
2.98882e-05
2.51352e-05
1.96e-05
1.30771e-05
4.91094e-06
5.9239e-08
3.14039e-07
1.46451e-05
3.21609e-05
4.16235e-05
4.57804e-05
4.70693e-05
4.70702e-05
4.6666e-05
4.61854e-05
4.54269e-05
4.48071e-05
4.38046e-05
4.31209e-05
4.2214e-05
4.15502e-05
4.11662e-05
4.10415e-05
4.1158e-05
4.14055e-05
4.17074e-05
4.20388e-05
4.23744e-05
4.27165e-05
4.30724e-05
4.34441e-05
4.38347e-05
4.4239e-05
4.46515e-05
4.50757e-05
4.5494e-05
4.58774e-05
4.62155e-05
4.65249e-05
4.68222e-05
4.70828e-05
4.73149e-05
4.7509e-05
4.76476e-05
4.77685e-05
4.78598e-05
4.79071e-05
4.79188e-05
4.78943e-05
4.78352e-05
4.7741e-05
4.76129e-05
4.74519e-05
4.72598e-05
4.70387e-05
4.67914e-05
4.65203e-05
4.62277e-05
4.59145e-05
4.55791e-05
4.52163e-05
4.4816e-05
4.43621e-05
4.38329e-05
4.32031e-05
4.24511e-05
4.16004e-05
4.04939e-05
3.91616e-05
3.7754e-05
3.6335e-05
3.4719e-05
3.29719e-05
3.12389e-05
3.10633e-05
3.22572e-05
3.39456e-05
3.47678e-05
3.45009e-05
3.38647e-05
3.0971e-05
2.6626e-05
2.11282e-05
1.44482e-05
5.80415e-06
7.93781e-08
3.72247e-07
1.61794e-05
3.46982e-05
4.43968e-05
4.8432e-05
4.94584e-05
4.91461e-05
4.84042e-05
4.73359e-05
4.65328e-05
4.53953e-05
4.45716e-05
4.3492e-05
4.26072e-05
4.20214e-05
4.17296e-05
4.16862e-05
4.18292e-05
4.20665e-05
4.23537e-05
4.26756e-05
4.3021e-05
4.33948e-05
4.37981e-05
4.42278e-05
4.46792e-05
4.51426e-05
4.56091e-05
4.60691e-05
4.65067e-05
4.69125e-05
4.72882e-05
4.764e-05
4.79662e-05
4.82582e-05
4.85186e-05
4.87438e-05
4.89353e-05
4.90985e-05
4.91851e-05
4.92955e-05
4.9354e-05
4.93619e-05
4.93331e-05
4.92615e-05
4.91475e-05
4.8991e-05
4.87932e-05
4.85563e-05
4.82838e-05
4.79801e-05
4.76505e-05
4.73002e-05
4.69332e-05
4.65506e-05
4.6149e-05
4.57178e-05
4.5237e-05
4.46761e-05
4.39944e-05
4.31474e-05
4.22213e-05
4.10264e-05
3.92715e-05
3.75488e-05
3.61057e-05
3.44599e-05
3.25702e-05
3.0593e-05
3.00822e-05
3.11741e-05
3.27184e-05
3.34399e-05
3.2744e-05
3.14111e-05
2.77039e-05
2.25028e-05
1.5861e-05
6.73828e-06
1.05342e-07
4.30862e-07
1.76071e-05
3.69924e-05
4.69046e-05
5.08161e-05
5.15662e-05
5.09132e-05
4.95765e-05
4.84881e-05
4.72225e-05
4.6105e-05
4.48926e-05
4.37771e-05
4.29484e-05
4.24488e-05
4.22362e-05
4.22444e-05
4.24012e-05
4.2641e-05
4.29384e-05
4.3283e-05
4.36686e-05
4.40953e-05
4.45573e-05
4.50462e-05
4.55518e-05
4.60623e-05
4.65669e-05
4.70558e-05
4.75208e-05
4.796e-05
4.83753e-05
4.8767e-05
4.91325e-05
4.94697e-05
4.97792e-05
5.00598e-05
5.03109e-05
5.05413e-05
5.07171e-05
5.08125e-05
5.09757e-05
5.10288e-05
5.10437e-05
5.10054e-05
5.09127e-05
5.0764e-05
5.0559e-05
5.02993e-05
4.99883e-05
4.96317e-05
4.9237e-05
4.88133e-05
4.83703e-05
4.7917e-05
4.74593e-05
4.69974e-05
4.65225e-05
4.60129e-05
4.54313e-05
4.47229e-05
4.38181e-05
4.28002e-05
4.14396e-05
3.93917e-05
3.73107e-05
3.56891e-05
3.40558e-05
3.19754e-05
2.97442e-05
2.92824e-05
3.02994e-05
3.14377e-05
3.17299e-05
3.09818e-05
2.82485e-05
2.35367e-05
1.71059e-05
7.58666e-06
1.35404e-07
4.87988e-07
1.89039e-05
3.90285e-05
4.9146e-05
5.29443e-05
5.33809e-05
5.21837e-05
5.0918e-05
4.94906e-05
4.78336e-05
4.64775e-05
4.51193e-05
4.40166e-05
4.32611e-05
4.28422e-05
4.26919e-05
4.27371e-05
4.29128e-05
4.31743e-05
4.35045e-05
4.38935e-05
4.43338e-05
4.48188e-05
4.53378e-05
4.58789e-05
4.64297e-05
4.69787e-05
4.7517e-05
4.80383e-05
4.85399e-05
4.90223e-05
4.94863e-05
4.99317e-05
5.03573e-05
5.07623e-05
5.1146e-05
5.15063e-05
5.18403e-05
5.21481e-05
5.24283e-05
5.25928e-05
5.28008e-05
5.29526e-05
5.30185e-05
5.30267e-05
5.2965e-05
5.28315e-05
5.26238e-05
5.2342e-05
5.19884e-05
5.15685e-05
5.10905e-05
5.05661e-05
5.00092e-05
4.94355e-05
4.88604e-05
4.8296e-05
4.77479e-05
4.72101e-05
4.66608e-05
4.60568e-05
4.53302e-05
4.43868e-05
4.32788e-05
4.16538e-05
3.93819e-05
3.70421e-05
3.51792e-05
3.34757e-05
3.11218e-05
2.86206e-05
2.84073e-05
2.9415e-05
3.00904e-05
2.97826e-05
2.83078e-05
2.41695e-05
1.80726e-05
8.27391e-06
1.67872e-07
5.42474e-07
2.00501e-05
4.08095e-05
5.11584e-05
5.47197e-05
5.47022e-05
5.35905e-05
5.19947e-05
4.9966e-05
4.83603e-05
4.66982e-05
4.52943e-05
4.42346e-05
4.3556e-05
4.3207e-05
4.31077e-05
4.31882e-05
4.33948e-05
4.36949e-05
4.40728e-05
4.4516e-05
4.50137e-05
4.55545e-05
4.61245e-05
4.67108e-05
4.73015e-05
4.78876e-05
4.84636e-05
4.90272e-05
4.95785e-05
5.01191e-05
5.06499e-05
5.11708e-05
5.16805e-05
5.21775e-05
5.26587e-05
5.31201e-05
5.35564e-05
5.39714e-05
5.43646e-05
5.46039e-05
5.4878e-05
5.51369e-05
5.52661e-05
5.53314e-05
5.53115e-05
5.52035e-05
5.50028e-05
5.47074e-05
5.43176e-05
5.3837e-05
5.32732e-05
5.26378e-05
5.1947e-05
5.12208e-05
5.04819e-05
4.97534e-05
4.90549e-05
4.83982e-05
4.77812e-05
4.71817e-05
4.65512e-05
4.5808e-05
4.48311e-05
4.36455e-05
4.16207e-05
3.91514e-05
3.66852e-05
3.4578e-05
3.26616e-05
2.99789e-05
2.74406e-05
2.74106e-05
2.83676e-05
2.88158e-05
2.76129e-05
2.43786e-05
1.87214e-05
8.77673e-06
2.01225e-07
5.93538e-07
2.10172e-05
4.23372e-05
5.2786e-05
5.60613e-05
5.60318e-05
5.47967e-05
5.27265e-05
5.06067e-05
4.86153e-05
4.68528e-05
4.54438e-05
4.44431e-05
4.38374e-05
4.3549e-05
4.34966e-05
4.36174e-05
4.38664e-05
4.42156e-05
4.46475e-05
4.51467e-05
4.56994e-05
4.6291e-05
4.69071e-05
4.75354e-05
4.81667e-05
4.87954e-05
4.94198e-05
5.00403e-05
5.0659e-05
5.12776e-05
5.18966e-05
5.25151e-05
5.31306e-05
5.37392e-05
5.43354e-05
5.49128e-05
5.54642e-05
5.6004e-05
5.65044e-05
5.68193e-05
5.71839e-05
5.75452e-05
5.77482e-05
5.78776e-05
5.7909e-05
5.78376e-05
5.76566e-05
5.73614e-05
5.695e-05
5.64231e-05
5.57857e-05
5.50476e-05
5.42242e-05
5.33367e-05
5.2412e-05
5.14809e-05
5.05752e-05
4.97233e-05
4.89437e-05
4.82375e-05
4.75819e-05
4.69234e-05
4.61719e-05
4.51936e-05
4.37336e-05
4.13799e-05
3.88441e-05
3.62546e-05
3.38015e-05
3.15598e-05
2.85121e-05
2.6369e-05
2.65118e-05
2.68302e-05
2.65276e-05
2.42863e-05
1.90548e-05
9.07883e-06
2.36126e-07
6.39329e-07
2.18193e-05
4.35386e-05
5.40201e-05
5.71843e-05
5.73071e-05
5.57032e-05
5.32091e-05
5.09427e-05
4.87902e-05
4.6969e-05
4.55825e-05
4.46466e-05
4.41074e-05
4.38742e-05
4.38694e-05
4.40368e-05
4.43355e-05
4.47384e-05
4.52254e-05
4.57789e-05
4.63828e-05
4.70216e-05
4.7682e-05
4.83541e-05
4.90323e-05
4.97149e-05
5.04027e-05
5.10982e-05
5.18036e-05
5.252e-05
5.32464e-05
5.398e-05
5.47158e-05
5.54473e-05
5.61667e-05
5.68653e-05
5.75341e-05
5.81978e-05
5.87953e-05
5.91935e-05
5.9655e-05
6.01122e-05
6.03932e-05
6.05902e-05
6.06796e-05
6.06542e-05
6.05057e-05
6.0227e-05
5.98131e-05
5.92616e-05
5.85739e-05
5.77559e-05
5.68198e-05
5.57849e-05
5.46782e-05
5.35342e-05
5.2393e-05
5.12967e-05
5.02827e-05
4.93757e-05
4.85778e-05
4.78597e-05
4.71539e-05
4.63519e-05
4.53051e-05
4.35316e-05
4.0842e-05
3.83002e-05
3.55738e-05
3.27874e-05
3.01063e-05
2.66429e-05
2.52903e-05
2.5516e-05
2.56997e-05
2.3955e-05
1.91274e-05
9.22303e-06
2.71863e-07
6.78617e-07
2.24473e-05
4.44168e-05
5.49423e-05
5.8159e-05
5.82358e-05
5.63306e-05
5.37998e-05
5.11946e-05
4.89124e-05
4.70645e-05
4.57171e-05
4.4846e-05
4.43679e-05
4.41876e-05
4.42331e-05
4.44515e-05
4.48034e-05
4.52606e-05
4.58013e-05
4.64064e-05
4.7059e-05
4.77442e-05
4.84512e-05
4.91738e-05
4.99099e-05
5.06607e-05
5.14289e-05
5.22172e-05
5.30267e-05
5.38565e-05
5.47032e-05
5.55612e-05
5.64229e-05
5.72793e-05
5.81205e-05
5.89365e-05
5.97177e-05
6.04921e-05
6.11693e-05
6.16689e-05
6.22122e-05
6.2758e-05
6.3116e-05
6.33805e-05
6.35309e-05
6.35583e-05
6.34529e-05
6.32058e-05
6.28093e-05
6.22576e-05
6.15479e-05
6.06815e-05
5.96656e-05
5.85146e-05
5.7252e-05
5.59112e-05
5.45355e-05
5.3176e-05
5.18863e-05
5.07143e-05
4.9691e-05
4.88179e-05
4.80553e-05
4.73127e-05
4.64413e-05
4.52231e-05
4.29926e-05
4.01701e-05
3.74761e-05
3.44878e-05
3.1508e-05
2.82234e-05
2.48829e-05
2.40977e-05
2.38378e-05
2.29846e-05
1.90211e-05
9.36278e-06
3.11373e-07
7.10482e-07
2.28989e-05
4.50006e-05
5.56351e-05
5.89223e-05
5.90249e-05
5.68172e-05
5.41238e-05
5.13704e-05
4.90001e-05
4.71494e-05
4.58499e-05
4.50409e-05
4.46201e-05
4.44928e-05
4.45907e-05
4.48621e-05
4.52678e-05
4.57785e-05
4.63712e-05
4.70261e-05
4.77269e-05
4.84609e-05
4.92207e-05
5.00037e-05
5.08108e-05
5.1645e-05
5.25092e-05
5.34048e-05
5.43306e-05
5.52826e-05
5.62545e-05
5.72377e-05
5.8222e-05
5.91966e-05
6.01503e-05
6.1072e-05
6.19557e-05
6.28241e-05
6.35744e-05
6.4167e-05
6.47772e-05
6.54034e-05
6.58335e-05
6.61622e-05
6.63731e-05
6.64565e-05
6.64017e-05
6.61983e-05
6.58365e-05
6.53075e-05
6.46045e-05
6.37238e-05
6.26668e-05
6.14412e-05
6.0064e-05
5.85633e-05
5.69801e-05
5.53678e-05
5.37899e-05
5.23131e-05
5.09958e-05
4.98739e-05
4.89457e-05
4.81606e-05
4.7413e-05
4.65407e-05
4.48052e-05
4.20595e-05
3.94498e-05
3.63133e-05
3.29885e-05
2.98068e-05
2.57344e-05
2.35066e-05
2.27202e-05
2.22862e-05
1.89681e-05
9.69747e-06
3.62017e-07
7.34485e-07
2.31753e-05
4.53491e-05
5.6069e-05
5.94533e-05
5.94277e-05
5.73309e-05
5.43756e-05
5.14932e-05
4.90656e-05
4.72287e-05
4.59807e-05
4.52308e-05
4.48651e-05
4.47912e-05
4.49425e-05
4.52675e-05
4.57264e-05
4.62892e-05
4.69326e-05
4.76372e-05
4.83882e-05
4.91763e-05
4.99975e-05
5.08522e-05
5.17434e-05
5.26743e-05
5.36463e-05
5.46583e-05
5.57057e-05
5.67812e-05
5.78753e-05
5.89768e-05
6.00737e-05
6.1154e-05
6.22059e-05
6.32184e-05
6.41889e-05
6.51348e-05
6.59531e-05
6.66219e-05
6.72819e-05
6.7979e-05
6.84746e-05
6.88615e-05
6.91295e-05
6.92685e-05
6.92678e-05
6.91161e-05
6.88021e-05
6.83146e-05
6.76436e-05
6.67807e-05
6.57211e-05
6.44655e-05
6.30225e-05
6.14119e-05
5.96671e-05
5.78382e-05
5.59912e-05
5.42041e-05
5.25577e-05
5.11196e-05
4.99251e-05
4.89578e-05
4.81367e-05
4.73111e-05
4.62591e-05
4.40858e-05
4.10724e-05
3.83461e-05
3.47717e-05
3.10176e-05
2.73104e-05
2.3397e-05
2.19361e-05
2.12881e-05
1.89034e-05
1.02689e-05
4.28989e-07
7.50848e-07
2.32951e-05
4.54665e-05
5.62665e-05
5.9819e-05
5.98142e-05
5.76092e-05
5.45511e-05
5.15774e-05
4.91172e-05
4.73048e-05
4.61088e-05
4.54151e-05
4.51035e-05
4.50832e-05
4.52882e-05
4.56662e-05
4.61773e-05
4.67914e-05
4.74852e-05
4.82409e-05
4.90462e-05
4.98952e-05
5.07872e-05
5.17246e-05
5.27108e-05
5.37477e-05
5.48341e-05
5.59652e-05
5.71329e-05
5.83265e-05
5.95336e-05
6.07412e-05
6.19363e-05
6.31067e-05
6.42409e-05
6.53288e-05
6.63641e-05
6.73726e-05
6.82544e-05
6.89811e-05
6.96743e-05
7.04276e-05
7.09837e-05
7.14213e-05
7.17404e-05
7.19318e-05
7.19849e-05
7.18886e-05
7.16305e-05
7.11982e-05
7.05789e-05
6.97604e-05
6.87327e-05
6.74892e-05
6.60298e-05
6.43638e-05
6.25143e-05
6.05221e-05
5.84484e-05
5.63746e-05
5.43962e-05
5.26093e-05
5.10897e-05
4.98686e-05
4.89119e-05
4.81116e-05
4.72893e-05
4.5606e-05
4.27258e-05
4.01154e-05
3.67008e-05
3.28287e-05
2.87268e-05
2.41914e-05
2.15225e-05
1.97695e-05
1.85017e-05
1.08657e-05
5.10398e-07
7.59879e-07
2.3264e-05
4.53357e-05
5.6248e-05
5.99681e-05
6.0115e-05
5.78036e-05
5.46682e-05
5.16338e-05
4.91598e-05
4.73784e-05
4.62336e-05
4.55939e-05
4.53356e-05
4.53688e-05
4.5627e-05
4.60573e-05
4.66197e-05
4.72847e-05
4.80298e-05
4.88393e-05
4.97042e-05
5.06215e-05
5.15929e-05
5.26216e-05
5.37101e-05
5.48575e-05
5.60592e-05
5.73064e-05
5.85874e-05
5.98885e-05
6.11955e-05
6.24941e-05
6.37713e-05
6.50151e-05
6.62148e-05
6.73614e-05
6.84471e-05
6.95002e-05
7.04412e-05
7.12176e-05
7.19388e-05
7.27096e-05
7.33217e-05
7.38018e-05
7.41642e-05
7.44021e-05
7.45057e-05
7.44644e-05
7.42658e-05
7.38966e-05
7.33427e-05
7.25889e-05
7.16208e-05
7.04254e-05
6.89943e-05
6.7326e-05
6.54313e-05
6.33381e-05
6.10966e-05
5.87829e-05
5.64972e-05
5.4355e-05
5.24662e-05
5.09072e-05
4.96895e-05
4.87385e-05
4.78897e-05
4.69003e-05
4.45939e-05
4.1589e-05
3.88139e-05
3.43502e-05
3.01166e-05
2.56839e-05
2.16227e-05
1.93871e-05
1.81364e-05
1.13988e-05
6.04072e-07
7.60488e-07
2.31286e-05
4.50704e-05
5.61244e-05
6.01025e-05
6.0218e-05
5.79109e-05
5.47379e-05
5.16702e-05
4.9197e-05
4.745e-05
4.63549e-05
4.57674e-05
4.55618e-05
4.56481e-05
4.59586e-05
4.64404e-05
4.70537e-05
4.77698e-05
4.85678e-05
4.94346e-05
5.03642e-05
5.13564e-05
5.24139e-05
5.35395e-05
5.47332e-05
5.59908e-05
5.73035e-05
5.8659e-05
6.00423e-05
6.14376e-05
6.28293e-05
6.42031e-05
6.55462e-05
6.68474e-05
6.80972e-05
6.92874e-05
7.04107e-05
7.14906e-05
7.24856e-05
7.3304e-05
7.40382e-05
7.48065e-05
7.5464e-05
7.59777e-05
7.63749e-05
7.66517e-05
7.68001e-05
7.68103e-05
7.66706e-05
7.63678e-05
7.58869e-05
7.52112e-05
7.43228e-05
7.32039e-05
7.18383e-05
7.02149e-05
6.83314e-05
6.62008e-05
6.38581e-05
6.13667e-05
5.88222e-05
5.63489e-05
5.40841e-05
5.21499e-05
5.06149e-05
4.94602e-05
4.85646e-05
4.77228e-05
4.59729e-05
4.28573e-05
4.04689e-05
3.64872e-05
3.16938e-05
2.70192e-05
2.19103e-05
1.91708e-05
1.77519e-05
1.2005e-05
7.05482e-07
7.56873e-07
2.28882e-05
4.47544e-05
5.58296e-05
6.00168e-05
6.02107e-05
5.7944e-05
5.47691e-05
5.16922e-05
4.9231e-05
4.75202e-05
4.64728e-05
4.59363e-05
4.57827e-05
4.59212e-05
4.62833e-05
4.68157e-05
4.74797e-05
4.82473e-05
4.91001e-05
5.00276e-05
5.10265e-05
5.20984e-05
5.32459e-05
5.44701e-05
5.57678e-05
5.71308e-05
5.85466e-05
5.99993e-05
6.14718e-05
6.29466e-05
6.4408e-05
6.58417e-05
6.72358e-05
6.85803e-05
6.98668e-05
7.10885e-05
7.22393e-05
7.33281e-05
7.43578e-05
7.52257e-05
7.59575e-05
7.67074e-05
7.73982e-05
7.79366e-05
7.83594e-05
7.86668e-05
7.88527e-05
7.89085e-05
7.88241e-05
7.85867e-05
7.81815e-05
7.75911e-05
7.67955e-05
7.57731e-05
7.45018e-05
7.29617e-05
7.11386e-05
6.90301e-05
6.66535e-05
6.40545e-05
6.13151e-05
5.85568e-05
5.59321e-05
5.35997e-05
5.16829e-05
5.02211e-05
4.91306e-05
4.81896e-05
4.70542e-05
4.43708e-05
4.18501e-05
3.85831e-05
3.31052e-05
2.82757e-05
2.30076e-05
1.88551e-05
1.66115e-05
1.25652e-05
7.97986e-07
7.48528e-07
2.26234e-05
4.41712e-05
5.53788e-05
5.97956e-05
6.0104e-05
5.79133e-05
5.47689e-05
5.17041e-05
4.92637e-05
4.75897e-05
4.65882e-05
4.61013e-05
4.59988e-05
4.61886e-05
4.66012e-05
4.71837e-05
4.78979e-05
4.87178e-05
4.9627e-05
5.06179e-05
5.16893e-05
5.28433e-05
5.40816e-05
5.54025e-05
5.67992e-05
5.82596e-05
5.97678e-05
6.13052e-05
6.28528e-05
6.43929e-05
6.59095e-05
6.73893e-05
6.88214e-05
7.01968e-05
7.15085e-05
7.27507e-05
7.39185e-05
7.50085e-05
7.60487e-05
7.69616e-05
7.76894e-05
7.84093e-05
7.91209e-05
7.96751e-05
8.01148e-05
8.04441e-05
8.06593e-05
8.07537e-05
8.07187e-05
8.05429e-05
8.02121e-05
7.9709e-05
7.90127e-05
7.80994e-05
7.69424e-05
7.55148e-05
7.37918e-05
7.17569e-05
6.9409e-05
6.67728e-05
6.39104e-05
6.093e-05
5.79865e-05
5.52646e-05
5.29404e-05
5.11266e-05
4.98197e-05
4.88741e-05
4.80127e-05
4.58509e-05
4.28574e-05
4.03152e-05
3.5156e-05
2.97068e-05
2.44187e-05
1.96259e-05
1.58515e-05
1.29835e-05
8.61974e-07
7.35731e-07
2.22838e-05
4.34957e-05
5.48103e-05
5.94549e-05
5.99091e-05
5.78273e-05
5.47427e-05
5.1709e-05
4.92968e-05
4.76596e-05
4.67022e-05
4.62633e-05
4.62109e-05
4.64508e-05
4.69127e-05
4.75443e-05
4.83085e-05
4.91809e-05
5.01477e-05
5.12035e-05
5.23485e-05
5.35845e-05
5.49112e-05
5.63239e-05
5.78119e-05
5.93597e-05
6.09482e-05
6.2557e-05
6.41664e-05
6.57583e-05
6.73175e-05
6.88314e-05
7.02902e-05
7.16862e-05
7.30131e-05
7.42659e-05
7.54401e-05
7.65312e-05
7.75623e-05
7.85092e-05
7.92352e-05
7.99158e-05
8.06349e-05
8.11967e-05
8.1645e-05
8.19878e-05
8.22242e-05
8.23496e-05
8.23572e-05
8.22371e-05
8.19765e-05
8.15589e-05
8.09635e-05
8.01652e-05
7.91345e-05
7.78393e-05
7.62465e-05
7.43268e-05
7.20617e-05
6.94543e-05
6.65424e-05
6.34126e-05
6.02092e-05
5.71273e-05
5.43815e-05
5.2147e-05
5.04887e-05
4.93099e-05
4.8353e-05
4.68154e-05
4.37948e-05
4.17056e-05
3.72408e-05
3.08299e-05
2.53834e-05
1.987e-05
1.57267e-05
1.31354e-05
8.88157e-07
7.18837e-07
2.18635e-05
4.27211e-05
5.41385e-05
5.9009e-05
5.96364e-05
5.76933e-05
5.46951e-05
5.17095e-05
4.93318e-05
4.77311e-05
4.68158e-05
4.64234e-05
4.64195e-05
4.6708e-05
4.72179e-05
4.78975e-05
4.87109e-05
4.96357e-05
5.06602e-05
5.17809e-05
5.29985e-05
5.43137e-05
5.57241e-05
5.72211e-05
5.87909e-05
6.04146e-05
6.20711e-05
6.37386e-05
6.53972e-05
6.70291e-05
6.86198e-05
7.01578e-05
7.16342e-05
7.30422e-05
7.43765e-05
7.56325e-05
7.68066e-05
7.78956e-05
7.89043e-05
7.98589e-05
8.0603e-05
8.12355e-05
8.19465e-05
8.25091e-05
8.29589e-05
8.33077e-05
8.35576e-05
8.37063e-05
8.37491e-05
8.3678e-05
8.34818e-05
8.31453e-05
8.26484e-05
8.19659e-05
8.1067e-05
7.99161e-05
7.84737e-05
7.67002e-05
7.4562e-05
7.20408e-05
6.91487e-05
6.5945e-05
6.25525e-05
5.91632e-05
5.60182e-05
5.33543e-05
5.13221e-05
4.99058e-05
4.88828e-05
4.78349e-05
4.50221e-05
4.26658e-05
3.91516e-05
3.23953e-05
2.6495e-05
2.0291e-05
1.59862e-05
1.31473e-05
8.92896e-07
6.98519e-07
2.13808e-05
4.18524e-05
5.33746e-05
5.84704e-05
5.92948e-05
5.75172e-05
5.46296e-05
5.17076e-05
4.937e-05
4.78054e-05
4.69302e-05
4.65823e-05
4.6625e-05
4.69602e-05
4.75166e-05
4.82426e-05
4.9104e-05
5.00801e-05
5.11613e-05
5.23452e-05
5.36323e-05
5.50221e-05
5.6509e-05
5.80815e-05
5.97223e-05
6.14104e-05
6.31227e-05
6.48372e-05
6.65338e-05
6.81954e-05
6.98084e-05
7.13623e-05
7.28488e-05
7.4262e-05
7.55971e-05
7.685e-05
7.80175e-05
7.90967e-05
8.00855e-05
8.10183e-05
8.1797e-05
8.23993e-05
8.30643e-05
8.36232e-05
8.40682e-05
8.44163e-05
8.46728e-05
8.48379e-05
8.49088e-05
8.48797e-05
8.47413e-05
8.44799e-05
8.40766e-05
8.3507e-05
8.27401e-05
8.17384e-05
8.04583e-05
7.88524e-05
7.6874e-05
7.44863e-05
7.16755e-05
6.84706e-05
6.49647e-05
6.13319e-05
5.78217e-05
5.47166e-05