/*--------------------------------*- C++ -*----------------------------------*\
  =========                 |
  \\      /  F ield         | OpenFOAM: The Open Source CFD Toolbox
   \\    /   O peration     | Website:  https://openfoam.org
    \\  /    A nd           | Version:  13
     \\/     M anipulation  |
\*---------------------------------------------------------------------------*/
FoamFile
{
    format      ascii;
    class       volScalarField;
    location    "3.8";
    object      p;
}
// * * * * * * * * * * * * * * * * * * * * * * * * * * * * * * * * * * * * * //

dimensions      [0 2 -2 0 0 0 0];

internalField   nonuniform List<scalar> 
6400
(
4.53111e-08
1.49386e-05
2.01532e-05
6.39726e-06
-3.01929e-05
-8.6072e-05
-0.000154398
-0.000228515
-0.000303485
-0.000377274
-0.000450008
-0.000524177
-0.000603519
-0.000691745
-0.000792653
-0.000909483
-0.00104477
-0.00120002
-0.00137674
-0.00157603
-0.00179828
-0.00204421
-0.00231578
-0.00261601
-0.00294946
-0.00332022
-0.00372622
-0.00416197
-0.00461645
-0.00506641
-0.00549766
-0.00590913
-0.00629875
-0.0066625
-0.00699593
-0.00729351
-0.00754796
-0.00775049
-0.00789117
-0.00795964
-0.00794547
-0.00783859
-0.00763023
-0.00731369
-0.0068848
-0.00634079
-0.00567671
-0.00488722
-0.00398271
-0.00297763
-0.00187849
-0.000702884
0.00053036
0.00179556
0.00306388
0.00430061
0.00546467
0.00651457
0.00741181
0.00811962
0.008609
0.00886293
0.00887957
0.00867207
0.00826296
0.00770602
0.00705282
0.00636305
0.00569412
0.00509448
0.00459084
0.00421001
0.00395011
0.00378506
0.00369808
0.0036667
0.00367128
0.00369531
0.0037274
0.00375295
-1.14889e-05
3.65667e-06
5.77698e-06
-1.14184e-05
-4.98839e-05
-0.000105568
-0.000170972
-0.000239888
-0.000308475
-0.000375649
-0.000442248
-0.000510952
-0.000585473
-0.000669098
-0.000764861
-0.00087571
-0.0010045
-0.00115344
-0.00132332
-0.00151486
-0.00172766
-0.00196185
-0.00221953
-0.00250282
-0.00281363
-0.00315575
-0.00353479
-0.0039521
-0.00440162
-0.00486918
-0.00533349
-0.00577898
-0.00620073
-0.00659587
-0.00695948
-0.00728523
-0.00756566
-0.00779193
-0.00795446
-0.00804337
-0.00804918
-0.00796269
-0.00777601
-0.00748265
-0.00707746
-0.00655604
-0.00591512
-0.00516237
-0.00430225
-0.00333528
-0.00227495
-0.00113775
5.66016e-05
0.00128344
0.00251364
0.00371285
0.0048443
0.00586971
0.00675083
0.00745412
0.00795122
0.00822476
0.00827201
0.00810511
0.00774997
0.00724966
0.00665567
0.00602557
0.00541314
0.00486486
0.00441561
0.00407688
0.00385148
0.00372385
0.00367286
0.00367658
0.00370447
0.00373605
0.0037656
0.00379013
-2.2155e-05
-5.47546e-06
-7.19713e-06
-3.06552e-05
-7.45992e-05
-0.000132114
-0.000194936
-0.000256997
-0.000315846
-0.000372522
-0.000429135
-0.000488881
-0.000555422
-0.000631565
-0.000719446
-0.000820872
-0.000937378
-0.00107099
-0.00122367
-0.00139757
-0.00159542
-0.00181932
-0.00207224
-0.00235841
-0.00268103
-0.00304246
-0.00344346
-0.00388213
-0.00435252
-0.00484391
-0.005341
-0.00582871
-0.00629584
-0.00673409
-0.00713704
-0.00749778
-0.00780858
-0.00806118
-0.00824697
-0.00835697
-0.00838256
-0.00831597
-0.00815013
-0.00787898
-0.00749819
-0.00700642
-0.00640427
-0.00568205
-0.00485381
-0.00392538
-0.0029061
-0.00181021
-0.000656134
0.000533034
0.00172992
0.00290268
0.00401682
0.00503429
0.00591778
0.00663457
0.00715721
0.0074674
0.00756053
0.00744754
0.00715322
0.00671783
0.00619118
0.00562066
0.00506946
0.00457478
0.00416825
0.00387273
0.00369021
0.00360625
0.00359129
0.0036235
0.00367624
0.00372697
0.00377076
0.00380556
-2.54644e-05
-9.23661e-06
-1.6281e-05
-4.76305e-05
-9.88726e-05
-0.000158914
-0.000219352
-0.000275186
-0.0003251
-0.000369994
-0.000414
-0.000461552
-0.00051656
-0.000581937
-0.000659368
-0.000749973
-0.000855208
-0.000977294
-0.00111936
-0.00128525
-0.00148007
-0.00170937
-0.00197898
-0.00229351
-0.0026541
-0.00306169
-0.0035152
-0.00400883
-0.00453222
-0.00507211
-0.00561493
-0.00614745
-0.0066576
-0.00713536
-0.00757285
-0.00796262
-0.00829726
-0.0085695
-0.00877135
-0.00889491
-0.00893277
-0.00887829
-0.00872534
-0.00846847
-0.00810422
-0.00763152
-0.00704942
-0.00635639
-0.00555709
-0.00465761
-0.00366691
-0.00259814
-0.00146849
-0.000299164
0.000884843
0.002054
0.00317428
0.0042086
0.0051202
0.00587469
0.00644416
0.006808
0.00695818
0.00690346
0.00666742
0.00628659
0.00580821
0.00528422
0.00476912
0.00430649
0.00392837
0.00365425
0.0034909
0.00342687
0.00344357
0.00350582
0.00358522
0.00366237
0.00372774
0.00377325
-1.59495e-05
-4.60495e-06
-1.90518e-05
-5.87514e-05
-0.000117196
-0.000179761
-0.000237894
-0.000287513
-0.000328385
-0.000362981
-0.000396041
-0.000432605
-0.000476927
-0.000531948
-0.000599724
-0.000682151
-0.000781961
-0.000903024
-0.00105085
-0.00123175
-0.00145261
-0.00171946
-0.00203625
-0.00240632
-0.00283084
-0.0033073
-0.00382918
-0.00438668
-0.00496698
-0.00555579
-0.00614004
-0.00670769
-0.00724864
-0.00775387
-0.00821474
-0.00862372
-0.00897394
-0.00925866
-0.00947042
-0.00960213
-0.00964799
-0.00960248
-0.00946052
-0.00921721
-0.00886915
-0.0084155
-0.00785541
-0.00718887
-0.00641811
-0.0055471
-0.00458375
-0.00353988
-0.00243173
-0.00127817
-0.000100708
0.00107368
0.00221102
0.00327498
0.00423059
0.00504247
0.00568049
0.00612181
0.00635312
0.00637688
0.0062138
0.00589977
0.00547893
0.0050014
0.00452077
0.0040836
0.00372419
0.00346418
0.00330981
0.00325312
0.0032769
0.00335309
0.0034513
0.00354984
0.00363323
0.00368584
1.30358e-05
1.47376e-05
-9.03238e-06
-5.89479e-05
-0.000123944
-0.000187879
-0.000243472
-0.000287725
-0.000321136
-0.000347598
-0.000372681
-0.000401757
-0.000439315
-0.000488818
-0.000553397
-0.000636811
-0.000744395
-0.000882488
-0.00105845
-0.00128054
-0.00155352
-0.00188337
-0.0022741
-0.00272428
-0.00322928
-0.00378092
-0.00436881
-0.00498261
-0.00561042
-0.0062394
-0.00685732
-0.00745287
-0.00801691
-0.00854114
-0.00901775
-0.00943972
-0.00980022
-0.0100929
-0.0103115
-0.010449
-0.0105021
-0.0104665
-0.010338
-0.0101121
-0.0097856
-0.00935885
-0.00882932
-0.00819696
-0.00746352
-0.00663167
-0.00570665
-0.00469751
-0.00361925
-0.0024872
-0.00131927
-0.000141809
0.00101245
0.00210972
0.00311866
0.00400232
0.0047274
0.00526979
0.00561065
0.00574674
0.00568878
0.00546979
0.00513282
0.00472517
0.00429749
0.00389776
0.00356315
0.00331736
0.00316907
0.00311383
0.00313581
0.00321083
0.00331192
0.00341514
0.00350387
0.00355795
6.91533e-05
5.80138e-05
2.20716e-05
-4.07796e-05
-0.000110435
-0.000175153
-0.000228654
-0.00026887
-0.000297976
-0.000320599
-0.000342769
-0.0003703
-0.000408263
-0.000461317
-0.000534548
-0.000634514
-0.000768877
-0.000946458
-0.00117439
-0.00146004
-0.00180954
-0.00222538
-0.00270506
-0.0032402
-0.00382215
-0.00444215
-0.00508965
-0.00575333
-0.00642171
-0.00708352
-0.00772797
-0.00834501
-0.00892627
-0.00946409
-0.00995145
-0.0103814
-0.0107467
-0.0110426
-0.0112635
-0.0114079
-0.0114716
-0.0114501
-0.0113393
-0.0111358
-0.0108368
-0.0104431
-0.00995039
-0.00935883
-0.00866955
-0.0078863
-0.00701463
-0.00606107
-0.00503204
-0.00393978
-0.00280254
-0.0016416
-0.000480334
0.000651014
0.0017185
0.00268213
0.00351024
0.00417634
0.00465448
0.00493759
0.00502665
0.00494364
0.00472689
0.00442162
0.00407569
0.00373603
0.00344162
0.00321892
0.00307993
0.00302309
0.00303776
0.00310133
0.00319164
0.00328499
0.00336472
0.00341182
0.000159683
0.000132827
8.06464e-05
6.04323e-06
-6.83684e-05
-0.000134385
-0.000187153
-0.000226466
-0.000255624
-0.000280212
-0.000306707
-0.000341459
-0.000390615
-0.000460634
-0.000558952
-0.00069481
-0.000878314
-0.00111707
-0.00141939
-0.00179149
-0.0022344
-0.0027422
-0.00330815
-0.00392316
-0.00457701
-0.00525913
-0.00595867
-0.00666487
-0.00736714
-0.00805544
-0.00872024
-0.0093528
-0.00994547
-0.010491
-0.0109825
-0.0114131
-0.0117793
-0.0120774
-0.0123046
-0.0124596
-0.0125359
-0.0125293
-0.0124367
-0.0122555
-0.0119842
-0.0116217
-0.0111671
-0.0106203
-0.00998259
-0.00925738
-0.00844899
-0.00756165
-0.00659732
-0.00556459
-0.00447844
-0.00335573
-0.00221577
-0.00107829
2.36029e-05
0.00106176
0.00200402
0.0028076
0.00344672
0.00390782
0.0041825
0.00427883
0.0042253
0.00406105
0.0038305
0.0035786
0.00334556
0.00316037
0.00303873
0.00298331
0.00298608
0.00303135
0.00310203
0.00317518
0.00323298
0.00326504
0.000288076
0.000244977
0.000173953
8.68004e-05
7.1055e-06
-6.12869e-05
-0.000115967
-0.000158512
-0.00019361
-0.000227732
-0.000267936
-0.000321425
-0.000395776
-0.000499321
-0.00064201
-0.000835222
-0.00108874
-0.00141013
-0.00180572
-0.00227477
-0.00281189
-0.00340965
-0.00405838
-0.00474696
-0.00546445
-0.00620014
-0.00694359
-0.00768483
-0.00841419
-0.00912262
-0.00980163
-0.0104435
-0.0110412
-0.0115876
-0.0120774
-0.0125084
-0.0128791
-0.0131835
-0.0134182
-0.0135781
-0.0136608
-0.0136644
-0.013587
-0.0134276
-0.0131854
-0.0128566
-0.0124433
-0.0119451
-0.0113625
-0.010697
-0.00995026
-0.00912511
-0.0082274
-0.0072644
-0.00624608
-0.00518445
-0.00409079
-0.00297639
-0.001865
-0.000782017
0.000240639
0.00117114
0.00198368
0.0026401
0.00312801
0.00344168
0.00359386
0.00361165
0.00353406
0.00340118
0.00325321
0.003123
0.00303012
0.00298183
0.00297472
0.00299914
0.00304169
0.00308706
0.00311612
0.00312997
0.000458982
0.00039733
0.000304256
0.000205169
0.000117522
4.43439e-05
-1.58117e-05
-6.69361e-05
-0.000115229
-0.000168064
-0.000233268
-0.000319123
-0.000434651
-0.000590229
-0.000797498
-0.0010681
-0.00141082
-0.00182992
-0.00232502
-0.00289195
-0.00352189
-0.00420437
-0.00492794
-0.00568129
-0.00645359
-0.00723446
-0.00801402
-0.00878297
-0.00953252
-0.0102545
-0.0109415
-0.0115867
-0.0121841
-0.0127291
-0.013218
-0.0136476
-0.0140132
-0.014312
-0.0145427
-0.014702
-0.0147884
-0.0148004
-0.0147369
-0.0145976
-0.0143819
-0.0140874
-0.0137151
-0.0132652
-0.0127382
-0.0121349
-0.0114563
-0.0107039
-0.00988128
-0.00899276
-0.00804379
-0.00704072
-0.00599293
-0.0049187
-0.00383182
-0.00274467
-0.00167548
-0.000651318
0.000299396
0.00114468
0.00185364
0.00240593
0.00279911
0.00303975
0.00315381
0.00317539
0.00313993
0.00308345
0.00303217
0.00299894
0.00298644
0.00298971
0.00300262
0.00301428
0.00301381
0.00301045
0.000672351
0.000588503
0.000471907
0.000356325
0.000259378
0.000178499
0.000108312
4.21667e-05
-2.77279e-05
-0.000109726
-0.000212535
-0.000345489
-0.000519104
-0.000745078
-0.00103544
-0.00140018
-0.00184381
-0.00236582
-0.00296217
-0.0036242
-0.00434034
-0.00509915
-0.00588877
-0.00669803
-0.00751639
-0.00833393
-0.00914132
-0.00992997
-0.0106919
-0.0114199
-0.0121077
-0.0127494
-0.0133404
-0.0138771
-0.0143562
-0.014775
-0.0151303
-0.0154207
-0.0156449
-0.0158014
-0.0158892
-0.0159072
-0.0158551
-0.0157326
-0.0155394
-0.0152749
-0.0149394
-0.0145332
-0.0140569
-0.0135113
-0.0128971
-0.0122155
-0.0114683
-0.010658
-0.0097872
-0.00885897
-0.00787817
-0.00685325
-0.00579354
-0.0047139
-0.00363403
-0.00256394
-0.00151874
-0.000527923
0.000376203
0.00116641
0.00181445
0.00230937
0.00265318
0.00286667
0.0029774
0.00301795
0.00302222
0.00301217
0.00299869
0.00298397
0.00296807
0.00294627
0.002919
0.00290054
0.00091872
0.000812519
0.0006678
0.000533172
0.000424675
0.000332707
0.000247168
0.000158737
5.80192e-05
-6.43453e-05
-0.000217876
-0.000412885
-0.000660851
-0.000973558
-0.00136123
-0.00182966
-0.00237908
-0.00300496
-0.00369863
-0.00444869
-0.00524275
-0.0060689
-0.00691537
-0.00777129
-0.00862646
-0.00947144
-0.0102976
-0.011097
-0.0118627
-0.0125886
-0.0132693
-0.0139004
-0.0144783
-0.0150003
-0.0154641
-0.0158678
-0.0162096
-0.0164887
-0.0167043
-0.0168556
-0.0169421
-0.0169635
-0.0169197
-0.0168108
-0.0166368
-0.0163977
-0.0160941
-0.0157263
-0.015295
-0.0148009
-0.0142448
-0.0136273
-0.0129496
-0.0122127
-0.011418
-0.0105668
-0.00966109
-0.00870384
-0.00769867
-0.00665191
-0.00557287
-0.00447506
-0.00338046
-0.00229714
-0.00124365
-0.000252537
0.000636477
0.00139301
0.00199433
0.00243576
0.00273018
0.00290026
0.00297923
0.00300241
0.00299255
0.00296302
0.0029214
0.00287027
0.00282151
0.00279092
0.00118745
0.00105739
0.000881175
0.000725027
0.00060217
0.000494845
0.000388012
0.000269582
0.000128555
-4.54016e-05
-0.000262414
-0.000533411
-0.000869582
-0.001281
-0.00177433
-0.00235068
-0.0030057
-0.00373068
-0.00451438
-0.0053439
-0.00620663
-0.0070905
-0.00798403
-0.00887667
-0.00975871
-0.0106213
-0.0114566
-0.0122578
-0.0130188
-0.0137348
-0.0144017
-0.0150162
-0.015576
-0.0160792
-0.0165242
-0.0169101
-0.0172362
-0.017502
-0.0177072
-0.0178516
-0.0179351
-0.0179578
-0.0179199
-0.0178218
-0.0176637
-0.0174461
-0.0171697
-0.016835
-0.0164428
-0.0159938
-0.0154886
-0.0149279
-0.0143123
-0.0136421
-0.0129175
-0.0121386
-0.0113057
-0.0104188
-0.00947849
-0.00848585
-0.00744284
-0.00635399
-0.00522947
-0.00408524
-0.002937
-0.00180046
-0.000712578
0.000284274
0.00114891
0.00184524
0.00235926
0.00269788
0.00288252
0.00295419
0.00295543
0.00291401
0.00285005
0.00277463
0.00271036
0.00267182
0.00146401
0.00130812
0.0010984
0.000917737
0.000777208
0.000649898
0.000515605
0.000359429
0.000168756
-6.72467e-05
-0.000358989
-0.00071719
-0.00115137
-0.00166858
-0.00227066
-0.00295372
-0.00370926
-0.00452589
-0.0053906
-0.00628995
-0.00721124
-0.00814251
-0.00907265
-0.0099916
-0.0108903
-0.0117607
-0.0125961
-0.0133906
-0.0141396
-0.0148394
-0.0154873
-0.0160811
-0.0166193
-0.017101
-0.0175255
-0.0178925
-0.0182019
-0.0184536
-0.0186477
-0.0187844
-0.018864
-0.0188867
-0.0188531
-0.0187636
-0.0186187
-0.0184192
-0.0181658
-0.0178592
-0.0175004
-0.01709
-0.0166287
-0.0161172
-0.0155557
-0.0149443
-0.0142825
-0.0135696
-0.0128044
-0.0119854
-0.0111107
-0.0101784
-0.00918688
-0.00813548
-0.00702537
-0.0058607
-0.00465218
-0.00342273
-0.00219134
-0.000996892
0.00010802
0.00106677
0.0018298
0.00237464
0.00270587
0.00285496
0.00287969
0.00283173
0.0027475
0.0026514
0.00257602
0.00253149
0.00172979
0.00154745
0.00130151
0.00109453
0.000933079
0.000781062
0.000613089
0.000411554
0.000163086
-0.000143344
-0.000518737
-0.000971802
-0.00150949
-0.00213423
-0.0028428
-0.00362708
-0.00447535
-0.00537425
-0.0063098
-0.00726842
-0.00823749
-0.00920535
-0.0101614
-0.0110963
-0.0120018
-0.012871
-0.0136983
-0.0144793
-0.0152106
-0.0158898
-0.0165152
-0.0170857
-0.0176007
-0.01806
-0.0184636
-0.0188117
-0.0191045
-0.0193424
-0.0195256
-0.0196548
-0.0197303
-0.0197525
-0.0197221
-0.0196396
-0.0195058
-0.0193215
-0.0190875
-0.0188046
-0.0184739
-0.0180961
-0.0176721
-0.0172023
-0.016687
-0.0161262
-0.0155191
-0.0148645
-0.0141605
-0.0134045
-0.012593
-0.0117221
-0.0107874
-0.00978496
-0.0087112
-0.00756454
-0.00634681
-0.00506696
-0.00374382
-0.00240858
-0.00110899
8.94638e-05
0.00111198
0.00189665
0.00241628
0.00268513
0.00275881
0.00271464
0.00261269
0.00249801
0.00241196
0.0023598
0.00196468
0.00175516
0.00147303
0.00123809
0.00105255
0.00087115
0.000663558
0.000410671
9.86401e-05
-0.000285205
-0.000749825
-0.00130159
-0.0019435
-0.0026727
-0.00348176
-0.00435888
-0.00529001
-0.00626048
-0.00725583
-0.00826255
-0.00926829
-0.0102619
-0.0112334
-0.0121744
-0.0130779
-0.0139383
-0.0147512
-0.0155135
-0.0162232
-0.016879
-0.0174801
-0.0180264
-0.018518
-0.0189552
-0.0193387
-0.0196688
-0.0199461
-0.0201712
-0.0203446
-0.0204668
-0.0205384
-0.0205602
-0.0205324
-0.0204559
-0.0203315
-0.0201601
-0.0199424
-0.0196796
-0.0193724
-0.019022
-0.018629
-0.0181941
-0.0177177
-0.0171996
-0.0166392
-0.0160349
-0.0153846
-0.014685
-0.0139321
-0.0131205
-0.0122441
-0.0112964
-0.0102705
-0.00916051
-0.00796315
-0.00667876
-0.00531534
-0.00389507
-0.00245846
-0.00106721
0.000194954
0.00123442
0.00198114
0.00241805
0.00258141
0.00255932
0.00244741
0.00231441
0.00221309
0.00214975
0.00215029
0.00191323
0.00159557
0.00133179
0.00111925
0.000904141
0.000652629
0.000344562
-3.60925e-05
-0.000501013
-0.00105693
-0.00170735
-0.0024496
-0.00327687
-0.00417762
-0.00513721
-0.00613997
-0.00717045
-0.00821406
-0.00925753
-0.0102889
-0.0112978
-0.0122752
-0.0132139
-0.014108
-0.0149535
-0.0157473
-0.0164876
-0.0171734
-0.0178045
-0.0183811
-0.0189035
-0.0193727
-0.0197892
-0.0201539
-0.0204676
-0.0207311
-0.0209449
-0.0211096
-0.021226
-0.0212945
-0.0213159
-0.0212907
-0.0212196
-0.0211034
-0.020943
-0.0207393
-0.0204932
-0.0202058
-0.0198781
-0.0195109
-0.019105
-0.0186608
-0.0181782
-0.0176567
-0.017095
-0.0164907
-0.0158405
-0.01514
-0.0143833
-0.0135634
-0.0126721
-0.0117005
-0.0106395
-0.00948118
-0.00822045
-0.00685729
-0.00540255
-0.00388536
-0.00235907
-0.000903268
0.000378349
0.00137624
0.00202369
0.00232637
0.00236107
0.0022512
0.00209968
0.00197442
0.0018969
0.00226547
0.00200436
0.00165333
0.00136054
0.00111856
0.0008666
0.000568947
0.000202846
-0.000249085
-0.000795802
-0.00144193
-0.00218623
-0.00302204
-0.00393824
-0.00491992
-0.00595033
-0.00701273
-0.00809131
-0.00917159
-0.0102407
-0.0112873
-0.012302
-0.0132769
-0.0142061
-0.0150853
-0.0159115
-0.0166832
-0.0173996
-0.0180608
-0.0186674
-0.0192201
-0.0197201
-0.0201684
-0.020566
-0.0209141
-0.0212134
-0.0214648
-0.021669
-0.0218267
-0.0219383
-0.0220047
-0.0220262
-0.0220036
-0.0219374
-0.0218285
-0.0216777
-0.021486
-0.0212542
-0.0209834
-0.0206746
-0.0203287
-0.0199467
-0.0195289
-0.0190755
-0.0185861
-0.0180596
-0.017494
-0.016886
-0.0162312
-0.0155238
-0.0147562
-0.0139197
-0.013004
-0.0119981
-0.0108909
-0.00967311
-0.00833862
-0.00688877
-0.00533993
-0.00373294
-0.00213984
-0.000657767
0.000587903
0.00148068
0.00197034
0.00210429
0.00201822
0.00185068
0.00169227
0.00159944
0.00229758
0.00201512
0.00163371
0.00131231
0.00103919
0.000749345
0.000404134
-2.22144e-05
-0.000544585
-0.00117068
-0.0019022
-0.00273326
-0.00365331
-0.00464744
-0.00569805
-0.00678696
-0.00789679
-0.00901165
-0.0101174
-0.0112016
-0.0122541
-0.0132663
-0.0142318
-0.0151461
-0.0160062
-0.0168105
-0.0175585
-0.0182506
-0.0188875
-0.0194705
-0.020001
-0.0204804
-0.0209099
-0.0212909
-0.0216244
-0.0219115
-0.0221528
-0.0223492
-0.0225012
-0.0226095
-0.0226744
-0.0226967
-0.0226768
-0.0226153
-0.0225131
-0.0223709
-0.0221895
-0.0219699
-0.0217131
-0.0214202
-0.021092
-0.0207295
-0.0203333
-0.0199037
-0.0194406
-0.018943
-0.0184093
-0.0178366
-0.0172209
-0.0165565
-0.0158362
-0.0150508
-0.0141898
-0.0132408
-0.0121908
-0.0110273
-0.00974031
-0.00832369
-0.00678218
-0.00514177
-0.00346377
-0.00183607
-0.000376445
0.000767471
0.00148476
0.00176987
0.00173935
0.00156116
0.00136395
0.00125669
0.00223576
0.00193562
0.00152768
0.00117887
0.000874503
0.000546157
0.000152345
-0.000332414
-0.000922158
-0.00162322
-0.00243267
-0.00334126
-0.00433456
-0.0053945
-0.00650153
-0.00763651
-0.00878178
-0.0099216
-0.0110423
-0.0121323
-0.0131824
-0.0141854
-0.0151363
-0.0160317
-0.0168701
-0.017651
-0.018375
-0.0190431
-0.0196569
-0.020218
-0.0207282
-0.0211891
-0.0216022
-0.0219688
-0.0222901
-0.0225669
-0.0228001
-0.0229904
-0.0231382
-0.0232441
-0.0233086
-0.0233321
-0.0233151
-0.0232583
-0.0231622
-0.0230276
-0.0228554
-0.0226464
-0.0224015
-0.0221219
-0.0218085
-0.0214622
-0.0210837
-0.0206734
-0.0202315
-0.0197574
-0.0192497
-0.0187062
-0.0181232
-0.0174957
-0.0168168
-0.0160779
-0.0152681
-0.014375
-0.0133843
-0.0122814
-0.011053
-0.00968861
-0.00818354
-0.00654823
-0.00482686
-0.00310973
-0.00149026
-0.000114563
0.000854667
0.00133648
0.00139718
0.00122297
0.000990492
0.000868929
0.0020737
0.00176015
0.00133027
0.000956311
0.000621519
0.000254827
-0.000186528
-0.000726259
-0.00137853
-0.00214725
-0.00302586
-0.00400138
-0.00505602
-0.00616928
-0.00732025
-0.00848923
-0.00965857
-0.0108129
-0.0119391
-0.0130268
-0.0140678
-0.0150563
-0.0159885
-0.0168625
-0.0176779
-0.0184351
-0.0191355
-0.0197808
-0.0203731
-0.0209143
-0.0214064
-0.0218512
-0.0222501
-0.0226046
-0.0229157
-0.0231843
-0.023411
-0.0235966
-0.0237415
-0.0238461
-0.0239109
-0.023936
-0.0239222
-0.0238698
-0.0237795
-0.0236519
-0.0234878
-0.0232881
-0.0230536
-0.0227853
-0.0224843
-0.0221514
-0.0217874
-0.021393
-0.0209683
-0.0205132
-0.0200267
-0.0195069
-0.018951
-0.0183545
-0.0177113
-0.0170133
-0.0162504
-0.01541
-0.0144777
-0.0134375
-0.0122737
-0.0109725
-0.00952351
-0.00792452
-0.00619783
-0.00443018
-0.00270865
-0.00114915
6.39352e-05
0.000776294
0.000976603
0.000829392
0.000574643
0.000436114
0.0018098
0.00148744
0.00104086
0.000644713
0.00028067
-0.00012315
-0.000608325
-0.00119834
-0.00190712
-0.00273506
-0.00367273
-0.00470377
-0.00580757
-0.0069618
-0.00814469
-0.00933635
-0.0105193
-0.0116787
-0.0128025
-0.0138811
-0.0149076
-0.0158776
-0.0167886
-0.0176398
-0.0184317
-0.0191656
-0.0198435
-0.0204677
-0.0210404
-0.0215638
-0.0220401
-0.0224709
-0.0228579
-0.0232023
-0.0235051
-0.0237671
-0.023989
-0.0241712
-0.0243143
-0.0244184
-0.024484
-0.0245113
-0.0245007
-0.0244527
-0.0243678
-0.0242466
-0.0240898
-0.0238983
-0.0236728
-0.0234143
-0.0231237
-0.0228021
-0.0224503
-0.0220688
-0.0216583
-0.0212186
-0.0207492
-0.0202488
-0.0197151
-0.0191444
-0.0185314
-0.0178691
-0.0171479
-0.016356
-0.0154791
-0.014501
-0.013404
-0.012172
-0.0107917
-0.0092524
-0.0075568
-0.00575772
-0.00398619
-0.0023032
-0.000878336
7.68234e-05
0.000458359
0.000368209
0.000114874
-4.6604e-05
0.00144678
0.00112046
0.000662553
0.000247372
-0.000143686
-0.00058168
-0.00110649
-0.00174139
-0.00249891
-0.00337694
-0.00436306
-0.00543803
-0.00657902
-0.00776247
-0.00896612
-0.0101701
-0.0113574
-0.0125139
-0.0136283
-0.0146925
-0.0157006
-0.0166495
-0.0175377
-0.0183656
-0.0191343
-0.0198459
-0.0205028
-0.0211076
-0.0216627
-0.0221705
-0.022633
-0.023052
-0.023429
-0.0237651
-0.0240613
-0.0243183
-0.0245365
-0.0247165
-0.0248586
-0.0249629
-0.0250298
-0.0250595
-0.0250523
-0.0250085
-0.0249288
-0.0248135
-0.0246634
-0.0244791
-0.0242615
-0.0240115
-0.0237301
-0.023418
-0.0230763
-0.0227057
-0.0223068
-0.0218797
-0.0214243
-0.0209398
-0.0204243
-0.0198749
-0.0192874
-0.0186555
-0.0179709
-0.0172227
-0.0163972
-0.0154783
-0.0144477
-0.0132873
-0.0119815
-0.0105161
-0.00888049
-0.00708545
-0.00527986
-0.00353203
-0.00194727
-0.00076305
-0.000172802
-0.000162391
-0.000395764
-0.000588051
0.000990964
0.000666041
0.000201818
-0.000228995
-0.000644254
-0.00111209
-0.00167156
-0.00234533
-0.00314353
-0.00406209
-0.005086
-0.00619363
-0.00736054
-0.00856235
-0.00977665
-0.0109839
-0.0121675
-0.0133143
-0.0144141
-0.0154597
-0.0164467
-0.0173727
-0.0182376
-0.0190423
-0.0197887
-0.0204793
-0.0211169
-0.0217042
-0.0222437
-0.0227379
-0.0231886
-0.0235976
-0.0239663
-0.0242958
-0.0245867
-0.0248399
-0.0250556
-0.0252342
-0.025376
-0.0254811
-0.0255496
-0.0255818
-0.025578
-0.0255384
-0.0254635
-0.0253537
-0.0252096
-0.0250319
-0.0248214
-0.0245789
-0.0243053
-0.0240016
-0.0236686
-0.0233071
-0.0229179
-0.0225013
-0.0220574
-0.0215859
-0.0210854
-0.0205538
-0.0199876
-0.0193816
-0.0187287
-0.0180191
-0.0172403
-0.0163767
-0.0154102
-0.0143209
-0.0130912
-0.0117054
-0.0101467
-0.00840931
-0.00656983
-0.0047971
-0.00311599
-0.00174127
-0.000932621
-0.000771241
-0.000968046
-0.00120025
0.00045265
0.000133219
-0.000332089
-0.000774568
-0.00121034
-0.00170392
-0.00229307
-0.00299876
-0.00382948
-0.00477913
-0.00583055
-0.00696029
-0.00814278
-0.00935324
-0.0105694
-0.011772
-0.0129454
-0.0140771
-0.0151582
-0.0161824
-0.0171463
-0.0180488
-0.0188904
-0.0196726
-0.0203979
-0.0210691
-0.021689
-0.0222607
-0.0227865
-0.0232688
-0.0237095
-0.0241101
-0.024472
-0.0247961
-0.025083
-0.0253333
-0.0255473
-0.0257253
-0.0258673
-0.0259735
-0.0260439
-0.0260788
-0.0260783
-0.0260427
-0.0259724
-0.0258677
-0.0257291
-0.0255574
-0.0253532
-0.0251174
-0.0248508
-0.0245543
-0.0242288
-0.0238751
-0.0234942
-0.0230865
-0.0226523
-0.0221916
-0.0217036
-0.0211868
-0.0206385
-0.0200546
-0.019429
-0.0187534
-0.0180163
-0.0172033
-0.016297
-0.0152771
-0.0141238
-0.0128203
-0.0113487
-0.00969128
-0.00785413
-0.00606948
-0.00435035
-0.00283761
-0.00182593
-0.00148749
-0.00161765
-0.00190008
-0.000155003
-0.000466588
-0.000927723
-0.00137781
-0.0018304
-0.00234556
-0.00295893
-0.00368972
-0.00454489
-0.0055166
-0.00658597
-0.00772824
-0.00891714
-0.0101278
-0.0113382
-0.0125298
-0.0136877
-0.0148003
-0.0158596
-0.0168605
-0.0178006
-0.0186795
-0.0194982
-0.020259
-0.0209645
-0.0216178
-0.0222219
-0.0227796
-0.0232934
-0.0237655
-0.0241977
-0.0245913
-0.0249477
-0.0252675
-0.0255513
-0.0257996
-0.0260125
-0.0261902
-0.0263329
-0.0264404
-0.026513
-0.0265506
-0.0265534
-0.0265216
-0.0264555
-0.0263555
-0.0262221
-0.0260559
-0.0258574
-0.0256276
-0.0253671
-0.025077
-0.0247581
-0.0244113
-0.0240375
-0.0236374
-0.0232115
-0.02276
-0.0222825
-0.0217782
-0.0212452
-0.0206801
-0.0200781
-0.019432
-0.0187319
-0.0179648
-0.0171141
-0.0161601
-0.0150814
-0.013859
-0.0124753
-0.0109064
-0.00914207
-0.00733385
-0.00561455
-0.00402294
-0.00284227
-0.00232545
-0.00236301
-0.00271065
-0.000818465
-0.00111965
-0.00157249
-0.00202665
-0.00249241
-0.00302477
-0.00365666
-0.00440593
-0.00527793
-0.00626335
-0.00734206
-0.00848843
-0.00967585
-0.0108796
-0.0120782
-0.0132536
-0.0143919
-0.0154824
-0.0165181
-0.0174948
-0.0184108
-0.0192664
-0.0200632
-0.0208038
-0.021491
-0.0221281
-0.0227179
-0.0232632
-0.0237665
-0.0242297
-0.0246547
-0.0250425
-0.0253943
-0.0257107
-0.0259921
-0.026239
-0.0264514
-0.0266293
-0.0267728
-0.026882
-0.0269567
-0.026997
-0.0270029
-0.0269748
-0.0269127
-0.0268171
-0.0266884
-0.0265271
-0.0263339
-0.0261094
-0.0258546
-0.0255702
-0.0252572
-0.0249165
-0.024549
-0.0241555
-0.0237368
-0.0232932
-0.0228249
-0.0223313
-0.0218112
-0.0212623
-0.0206806
-0.0200604
-0.019393
-0.018667
-0.0178671
-0.0169745
-0.0159677
-0.0148257
-0.0135299
-0.0120569
-0.0103921
-0.00858018
-0.0068851
-0.00527565
-0.00397387
-0.00328296
-0.00321732
-0.00363537
-0.00152377
-0.00181214
-0.00225346
-0.00270847
-0.00318362
-0.00372858
-0.00437368
-0.00513527
-0.00601715
-0.00700886
-0.00808939
-0.00923264
-0.010412
-0.011603
-0.0127849
-0.0139404
-0.0150561
-0.0161226
-0.0171336
-0.0180857
-0.018978
-0.0198111
-0.0205872
-0.0213089
-0.0219794
-0.0226016
-0.0231786
-0.023713
-0.0242071
-0.0246628
-0.0250815
-0.0254645
-0.0258125
-0.0261262
-0.0264059
-0.0266518
-0.0268639
-0.0270424
-0.027187
-0.0272977
-0.0273746
-0.0274175
-0.0274265
-0.0274018
-0.0273435
-0.027252
-0.0271276
-0.0269709
-0.0267824
-0.0265629
-0.0263131
-0.0260339
-0.0257262
-0.025391
-0.0250291
-0.0246416
-0.0242292
-0.0237926
-0.0233322
-0.0228479
-0.0223391
-0.0218042
-0.0212403
-0.0206426
-0.0200041
-0.0193148
-0.0185609
-0.0177251
-0.0167863
-0.0157224
-0.0145153
-0.0131453
-0.0115841
-0.00981069
-0.00812724
-0.00655295
-0.0051892
-0.00434896
-0.00418571
-0.00466267
-0.00225645
-0.00253044
-0.00295757
-0.00340994
-0.00389085
-0.00444424
-0.00509777
-0.00586617
-0.00675182
-0.00774339
-0.00881938
-0.00995356
-0.0111195
-0.0122934
-0.0134549
-0.0145876
-0.015679
-0.0167205
-0.0177064
-0.0186342
-0.0195034
-0.0203152
-0.0210718
-0.0217761
-0.0224312
-0.02304
-0.0236056
-0.0241303
-0.0246164
-0.0250654
-0.0254789
-0.0258577
-0.0262027
-0.0265142
-0.0267926
-0.0270378
-0.02725
-0.0274291
-0.0275749
-0.0276873
-0.0277663
-0.0278117
-0.0278236
-0.0278021
-0.0277473
-0.0276595
-0.0275392
-0.0273866
-0.0272025
-0.0269875
-0.0267424
-0.0264679
-0.026165
-0.0258347
-0.025478
-0.0250958
-0.0246891
-0.0242588
-0.0238055
-0.0233295
-0.0228306
-0.022308
-0.0217595
-0.0211817
-0.0205687
-0.019912
-0.0191996
-0.0184154
-0.0175395
-0.0165495
-0.0154264
-0.0141517
-0.0126961
-0.0110363
-0.00934503
-0.00781572
-0.00643997
-0.00549375
-0.00526066
-0.00577017
-0.0030026
-0.00326092
-0.00367156
-0.00411836
-0.00460169
-0.00515976
-0.00581749
-0.0065879
-0.0074721
-0.00845814
-0.00952439
-0.0106448
-0.0117933
-0.0129466
-0.0140852
-0.0151934
-0.0162595
-0.0172756
-0.0182368
-0.019141
-0.0199881
-0.0207798
-0.0215183
-0.0222065
-0.0228476
-0.0234444
-0.0239998
-0.0245159
-0.0249949
-0.0254382
-0.0258471
-0.0262225
-0.0265648
-0.0268746
-0.0271519
-0.0273968
-0.0276093
-0.0277891
-0.0279361
-0.0280501
-0.0281311
-0.0281789
-0.0281935
-0.028175
-0.0281234
-0.0280391
-0.0279224
-0.0277738
-0.0275937
-0.0273828
-0.0271418
-0.0268717
-0.0265733
-0.0262475
-0.0258954
-0.0255182
-0.0251167
-0.0246921
-0.0242452
-0.0237766
-0.0232865
-0.0227748
-0.02224
-0.0216796
-0.0210892
-0.0204615
-0.0197862
-0.019049
-0.0182312
-0.0173113
-0.016268
-0.015083
-0.0137304
-0.0121939
-0.0105274
-0.00904887
-0.00769148
-0.00668179
-0.00640549
-0.0069019
-0.00374903
-0.00399044
-0.00438278
-0.0048217
-0.00530457
-0.00586406
-0.0065223
-0.00729071
-0.0081692
-0.00914533
-0.0101977
-0.0113008
-0.0124289
-0.0135594
-0.0146736
-0.0157564
-0.0167969
-0.0177878
-0.0187249
-0.0196066
-0.020433
-0.0212058
-0.0219276
-0.0226012
-0.0232295
-0.0238155
-0.0243617
-0.0248703
-0.025343
-0.0257813
-0.0261863
-0.0265586
-0.0268989
-0.0272072
-0.0274837
-0.0277284
-0.0279412
-0.0281217
-0.0282699
-0.0283855
-0.0284684
-0.0285184
-0.0285355
-0.0285197
-0.0284712
-0.0283901
-0.0282768
-0.0281316
-0.0279552
-0.0277481
-0.027511
-0.0272449
-0.0269505
-0.0266289
-0.0262812
-0.0259084
-0.0255118
-0.0250924
-0.0246513
-0.0241894
-0.0237073
-0.0232053
-0.0226827
-0.0221378
-0.0215673
-0.0209654
-0.0203233
-0.0196285
-0.018864
-0.0180091
-0.0170418
-0.0159454
-0.0146997
-0.013277
-0.0116631
-0.0102191
-0.00891142
-0.00787809
-0.00755668
-0.00797686
-0.0044836
-0.00470709
-0.00507977
-0.00550892
-0.00598894
-0.00654708
-0.00720277
-0.00796596
-0.00883555
-0.0097981
-0.0108337
-0.0119168
-0.0130226
-0.0141291
-0.015218
-0.0162753
-0.0172906
-0.0182571
-0.0191712
-0.0200315
-0.0208385
-0.021594
-0.0223004
-0.0229607
-0.0235776
-0.0241539
-0.0246919
-0.0251937
-0.0256609
-0.0260948
-0.0264964
-0.0268661
-0.0272045
-0.0275116
-0.0277875
-0.0280321
-0.0282452
-0.0284265
-0.0285758
-0.0286929
-0.0287775
-0.0288296
-0.028849
-0.0288357
-0.0287899
-0.0287117
-0.0286014
-0.0284595
-0.0282864
-0.0280828
-0.0278493
-0.0275867
-0.0272961
-0.0269784
-0.0266346
-0.0262661
-0.0258739
-0.0254593
-0.0250236
-0.0245678
-0.024093
-0.0235997
-0.023088
-0.0225569
-0.022004
-0.021425
-0.0208125
-0.0201556
-0.0194391
-0.0186437
-0.0177478
-0.0167341
-0.0155856
-0.0142732
-0.0127643
-0.0113296
-0.0100718
-0.0090433
-0.00866277
-0.00897593
-0.00519471
-0.00540006
-0.00575228
-0.00617021
-0.00664541
-0.00719991
-0.00785053
-0.00860587
-0.0094646
-0.010411
-0.0114272
-0.012489
-0.0135715
-0.0146533
-0.0157171
-0.0167492
-0.0177401
-0.0186834
-0.0195758