/*--------------------------------*- C++ -*----------------------------------*\
  =========                 |
  \\      /  F ield         | OpenFOAM: The Open Source CFD Toolbox
   \\    /   O peration     | Website:  https://openfoam.org
    \\  /    A nd           | Version:  13
     \\/     M anipulation  |
\*---------------------------------------------------------------------------*/
FoamFile
{
    format      ascii;
    class       volVectorField;
    location    "3.8";
    object      U;
}
// * * * * * * * * * * * * * * * * * * * * * * * * * * * * * * * * * * * * * //

dimensions      [0 1 -1 0 0 0 0];

internalField   nonuniform List<vector> 
6400
(
(-7.65328e-05 4.7215e-05 0)
(0.000438006 -0.000152728 0)
(0.00178316 -0.000343694 0)
(0.00352827 -0.000425089 0)
(0.00527102 -0.00037913 0)
(0.00674336 -0.000266165 0)
(0.00776284 -0.000130961 0)
(0.00832625 -2.74246e-05 0)
(0.00853454 1.5293e-05 0)
(0.00852402 2.96427e-06 0)
(0.00844471 -4.44514e-05 0)
(0.00837042 -0.000119152 0)
(0.00836872 -0.000195865 0)
(0.00843964 -0.000264757 0)
(0.00855006 -0.000323012 0)
(0.00865073 -0.000369967 0)
(0.00868422 -0.000402093 0)
(0.00862239 -0.000408738 0)
(0.00841637 -0.000399048 0)
(0.00799657 -0.000372435 0)
(0.00733184 -0.000337932 0)
(0.00636649 -0.000301146 0)
(0.0050674 -0.000264313 0)
(0.00341177 -0.000242235 0)
(0.00137147 -0.000264553 0)
(-0.00104464 -0.000342075 0)
(-0.00381856 -0.000411732 0)
(-0.00712568 -0.000354702 0)
(-0.0110649 -7.89682e-05 0)
(-0.0156647 0.000466245 0)
(-0.0213243 0.00121584 0)
(-0.027917 0.00197156 0)
(-0.0351757 0.00263508 0)
(-0.0429436 0.00319533 0)
(-0.0510049 0.00363219 0)
(-0.0591705 0.0039416 0)
(-0.0672542 0.00412776 0)
(-0.0751059 0.0042034 0)
(-0.0825911 0.00418272 0)
(-0.0896061 0.0040808 0)
(-0.0960587 0.00391041 0)
(-0.101876 0.00368001 0)
(-0.106995 0.00339579 0)
(-0.111368 0.00305936 0)
(-0.114954 0.00267364 0)
(-0.117716 0.00224854 0)
(-0.119526 0.00181879 0)
(-0.120349 0.00142344 0)
(-0.120457 0.000828633 0)
(-0.119278 0.000296384 0)
(-0.117219 -0.000314946 0)
(-0.113967 -0.000928708 0)
(-0.109668 -0.0015511 0)
(-0.104226 -0.00216665 0)
(-0.0977028 -0.00275701 0)
(-0.0901229 -0.00332311 0)
(-0.0816263 -0.0038732 0)
(-0.0721933 -0.00436157 0)
(-0.0620101 -0.00478051 0)
(-0.0512215 -0.00509494 0)
(-0.0400364 -0.00526987 0)
(-0.0286964 -0.00527067 0)
(-0.0174857 -0.00508512 0)
(-0.0066662 -0.00470788 0)
(0.00336373 -0.00417703 0)
(0.0122675 -0.00342986 0)
(0.019799 -0.00251809 0)
(0.0256675 -0.00148182 0)
(0.0296275 -0.00038883 0)
(0.0316691 0.000716776 0)
(0.0313626 0.00165823 0)
(0.0295104 0.00223964 0)
(0.0256204 0.00260396 0)
(0.0205641 0.00254092 0)
(0.0150797 0.00208481 0)
(0.00990802 0.00139094 0)
(0.00559982 0.000731698 0)
(0.00241444 0.000261543 0)
(0.000510128 -5.44305e-05 0)
(-0.000157713 -0.000261612 0)
(4.38771e-05 -0.000392903 0)
(0.00156857 -0.00177191 0)
(0.0043685 -0.0028696 0)
(0.00751744 -0.0032463 0)
(0.0104472 -0.00296333 0)
(0.0128123 -0.00230266 0)
(0.0144618 -0.0014899 0)
(0.0154093 -0.000743013 0)
(0.015759 -0.000200089 0)
(0.0156239 0.000112191 0)
(0.0151768 0.000223113 0)
(0.0145053 0.000206098 0)
(0.0136904 0.000139178 0)
(0.0127243 9.85437e-05 0)
(0.0115545 0.000130474 0)
(0.010107 0.000248183 0)
(0.00831246 0.000441104 0)
(0.00612247 0.000702917 0)
(0.0034419 0.00104997 0)
(0.000188057 0.00149268 0)
(-0.00372783 0.00203496 0)
(-0.00847495 0.00268195 0)
(-0.0141448 0.00341351 0)
(-0.0207983 0.00421327 0)
(-0.0284895 0.00508626 0)
(-0.0372769 0.00606579 0)
(-0.0471603 0.00716594 0)
(-0.0579191 0.00836345 0)
(-0.0693025 0.00965596 0)
(-0.0809465 0.010958 0)
(-0.0923936 0.0120737 0)
(-0.103578 0.012904 0)
(-0.114378 0.0134199 0)
(-0.124653 0.0136247 0)
(-0.134283 0.013532 0)
(-0.143198 0.0131872 0)
(-0.15133 0.0126243 0)
(-0.158642 0.011883 0)
(-0.1651 0.0109955 0)
(-0.170688 0.00999154 0)
(-0.175389 0.00889302 0)
(-0.179187 0.00771363 0)
(-0.182076 0.00646656 0)
(-0.18404 0.00515969 0)
(-0.185075 0.0038033 0)
(-0.185161 0.00240372 0)
(-0.184266 0.000960603 0)
(-0.182378 -0.000545561 0)
(-0.179537 -0.00212708 0)
(-0.175626 -0.00376442 0)
(-0.17072 -0.00544361 0)
(-0.164747 -0.00715575 0)
(-0.157735 -0.00887852 0)
(-0.149657 -0.0105946 0)
(-0.14053 -0.0122682 0)
(-0.13037 -0.0138654 0)
(-0.119212 -0.0153293 0)
(-0.10718 -0.0166334 0)
(-0.0943698 -0.0177137 0)
(-0.0809621 -0.018502 0)
(-0.0671607 -0.0189407 0)
(-0.0531782 -0.0189626 0)
(-0.039273 -0.0185264 0)
(-0.0257284 -0.0176037 0)
(-0.0128498 -0.0161968 0)
(-0.000922188 -0.01428 0)
(0.0097772 -0.0119052 0)
(0.0189616 -0.00910129 0)
(0.0263975 -0.00601991 0)
(0.0319271 -0.00275189 0)
(0.0354078 0.000488138 0)
(0.0367899 0.00346151 0)
(0.0360063 0.00605635 0)
(0.0331958 0.00799628 0)
(0.0286076 0.00876051 0)
(0.022405 0.008441 0)
(0.0154336 0.00713384 0)
(0.00875771 0.00517593 0)
(0.00345463 0.00281227 0)
(0.000318459 0.000650862 0)
(0.000191977 -0.00146656 0)
(0.00264337 -0.00448488 0)
(0.0061585 -0.00626196 0)
(0.00951228 -0.00650833 0)
(0.0122978 -0.00566421 0)
(0.0143313 -0.00424476 0)
(0.0156218 -0.00270103 0)
(0.0162129 -0.00129643 0)
(0.0161696 -0.000170511 0)
(0.0155592 0.00061755 0)
(0.0144943 0.00109666 0)
(0.0130282 0.00137636 0)
(0.0111757 0.00159229 0)
(0.00890618 0.00186895 0)
(0.00614743 0.00228842 0)
(0.00282058 0.00287469 0)
(-0.00117684 0.00362776 0)
(-0.00597345 0.00456 0)
(-0.0116686 0.00569154 0)
(-0.0183601 0.00704822 0)
(-0.0261223 0.00864345 0)
(-0.0349541 0.0104318 0)
(-0.0448536 0.01236 0)
(-0.0557495 0.0143582 0)
(-0.0674781 0.0163205 0)
(-0.0798052 0.0181518 0)
(-0.0924503 0.0197922 0)
(-0.105117 0.0211742 0)
(-0.117556 0.0222572 0)
(-0.129495 0.0229959 0)
(-0.140751 0.0233735 0)
(-0.151213 0.0233867 0)
(-0.160801 0.0230399 0)
(-0.169496 0.0223811 0)
(-0.177314 0.0214309 0)
(-0.184265 0.0202284 0)
(-0.190365 0.0188224 0)
(-0.195638 0.0172486 0)
(-0.2001 0.0155377 0)
(-0.20376 0.0137147 0)
(-0.206632 0.0118078 0)
(-0.208722 0.00982314 0)
(-0.210029 0.00777171 0)
(-0.210548 0.00565804 0)
(-0.210271 0.00348114 0)
(-0.209187 0.0012416 0)
(-0.207289 -0.00106946 0)
(-0.204519 -0.00346861 0)
(-0.200873 -0.00594612 0)
(-0.196325 -0.00847839 0)
(-0.190853 -0.0110699 0)
(-0.184428 -0.0137039 0)
(-0.177035 -0.0163585 0)
(-0.16866 -0.0190055 0)
(-0.159303 -0.021602 0)
(-0.148977 -0.0240937 0)
(-0.137716 -0.0264076 0)
(-0.125601 -0.0284701 0)
(-0.112712 -0.0301868 0)
(-0.0991739 -0.0314646 0)
(-0.0851744 -0.0322054 0)
(-0.0709217 -0.0323165 0)
(-0.0566484 -0.0317218 0)
(-0.0426431 -0.0303879 0)
(-0.029198 -0.0283018 0)
(-0.0165777 -0.0254699 0)
(-0.0050134 -0.0219327 0)
(0.00520996 -0.0177678 0)
(0.0138848 -0.0131211 0)
(0.0209074 -0.00816233 0)
(0.026141 -0.00309731 0)
(0.0295986 0.00183717 0)
(0.0311853 0.00633409 0)
(0.0307546 0.0100428 0)
(0.0283723 0.0128254 0)
(0.0243778 0.0141024 0)
(0.0187582 0.0138166 0)
(0.0122641 0.0119093 0)
(0.00587872 0.00837833 0)
(0.000813936 0.00345699 0)
(0.000351993 -0.00307547 0)
(0.00344475 -0.00785828 0)
(0.00706698 -0.00978739 0)
(0.0100352 -0.00942857 0)
(0.0121973 -0.00778045 0)
(0.0135411 -0.00559324 0)
(0.0141397 -0.00333089 0)
(0.0140614 -0.00126897 0)
(0.0133599 0.000442783 0)
(0.0120816 0.001753 0)
(0.0102198 0.00272971 0)
(0.00775353 0.00351578 0)
(0.00464212 0.00427909 0)
(0.000827791 0.00516704 0)
(-0.00374994 0.006271 0)
(-0.00917608 0.00763753 0)
(-0.0155502 0.00928522 0)
(-0.0229694 0.0112179 0)
(-0.0315027 0.0134351 0)
(-0.0411744 0.0159174 0)
(-0.0519415 0.0186093 0)
(-0.0636732 0.0214015 0)
(-0.0761679 0.0241645 0)
(-0.0891564 0.0267672 0)
(-0.102335 0.0290852 0)
(-0.115458 0.0310352 0)
(-0.128239 0.0324835 0)
(-0.140443 0.0333862 0)
(-0.151862 0.0337828 0)
(-0.162382 0.0337157 0)
(-0.171981 0.0332304 0)
(-0.180643 0.0323636 0)
(-0.188411 0.0311463 0)
(-0.195319 0.0296228 0)
(-0.201421 0.0278427 0)
(-0.206751 0.0258451 0)
(-0.21136 0.0236705 0)
(-0.215275 0.021349 0)
(-0.218517 0.0189116 0)
(-0.221108 0.0163754 0)
(-0.223054 0.0137568 0)
(-0.224363 0.0110634 0)
(-0.225027 0.00829684 0)
(-0.22504 0.00545548 0)
(-0.224384 0.00253417 0)
(-0.223045 -0.000471562 0)
(-0.220998 -0.00356761 0)
(-0.218206 -0.00674988 0)
(-0.214644 -0.0100423 0)
(-0.21028 -0.0134318 0)
(-0.205083 -0.0169121 0)
(-0.199011 -0.0204603 0)
(-0.192041 -0.0240505 0)
(-0.184146 -0.0276485 0)
(-0.175307 -0.0312017 0)
(-0.165515 -0.0346354 0)
(-0.154778 -0.0378511 0)
(-0.143138 -0.0407467 0)
(-0.130659 -0.0432101 0)
(-0.11743 -0.0450923 0)
(-0.103594 -0.0462489 0)
(-0.0893413 -0.046563 0)
(-0.0748764 -0.0459107 0)
(-0.0604778 -0.0442199 0)
(-0.0464664 -0.0414691 0)
(-0.0331685 -0.0377295 0)
(-0.0208296 -0.033042 0)
(-0.00970136 -0.0275307 0)
(1.06163e-06 -0.0213583 0)
(0.00813133 -0.0147685 0)
(0.0145803 -0.00801881 0)
(0.0193082 -0.00136347 0)
(0.0223228 0.00491268 0)
(0.0236859 0.0104583 0)
(0.0233112 0.0148694 0)
(0.0211386 0.0178454 0)
(0.0173721 0.0189492 0)
(0.0123042 0.0178969 0)
(0.0064983 0.0143068 0)
(0.00100453 0.00709212 0)
(0.000543116 -0.00508909 0)
(0.00393231 -0.0114149 0)
(0.00715031 -0.012938 0)
(0.00939194 -0.0116875 0)
(0.0107367 -0.00913871 0)
(0.0112425 -0.00615818 0)
(0.011021 -0.00319428 0)
(0.0101352 -0.000492714 0)
(0.00860522 0.00182933 0)
(0.00641576 0.00376728 0)
(0.00351494 0.00541257 0)
(-0.000167307 0.00692395 0)
(-0.0047052 0.0084792 0)
(-0.0101716 0.0102291 0)
(-0.0166352 0.0122748 0)
(-0.0241634 0.0146688 0)
(-0.0328133 0.0174242 0)
(-0.0426093 0.0205154 0)
(-0.0535173 0.0238835 0)
(-0.0654222 0.0274235 0)
(-0.0781208 0.0309895 0)
(-0.0913357 0.0343963 0)
(-0.104782 0.0375094 0)
(-0.11815 0.0401843 0)
(-0.13117 0.0422278 0)
(-0.143544 0.0435888 0)
(-0.155053 0.0442935 0)
(-0.165651 0.0443664 0)
(-0.175297 0.0438677 0)
(-0.184035 0.0428824 0)
(-0.191898 0.0414855 0)
(-0.198942 0.0397438 0)
(-0.205234 0.0377083 0)
(-0.210813 0.0354246 0)
(-0.215732 0.032932 0)
(-0.220031 0.0302629 0)
(-0.223748 0.0274503 0)
(-0.226905 0.02452 0)
(-0.229523 0.0214875 0)
(-0.231615 0.018367 0)
(-0.23318 0.0151713 0)
(-0.234225 0.0118979 0)
(-0.234741 0.00854297 0)
(-0.234719 0.0050975 0)
(-0.234141 0.00155089 0)
(-0.232993 -0.00210541 0)
(-0.23124 -0.00588015 0)
(-0.228846 -0.00977569 0)
(-0.225777 -0.0138037 0)
(-0.221997 -0.0179649 0)
(-0.217485 -0.0222661 0)
(-0.21217 -0.0266755 0)
(-0.206013 -0.0311609 0)
(-0.198976 -0.0356866 0)
(-0.191019 -0.0401941 0)
(-0.182112 -0.044597 0)
(-0.172226 -0.0487723 0)
(-0.161368 -0.0525904 0)
(-0.149576 -0.0559144 0)
(-0.1369 -0.0585507 0)
(-0.123436 -0.0603205 0)
(-0.109343 -0.0610548 0)
(-0.0948087 -0.0605817 0)
(-0.0800753 -0.0587841 0)
(-0.0654117 -0.0555922 0)
(-0.0512166 -0.0510536 0)
(-0.0378721 -0.0453054 0)
(-0.0256192 -0.0384881 0)
(-0.0147087 -0.030825 0)
(-0.00533816 -0.0226078 0)
(0.00235796 -0.014161 0)
(0.00832386 -0.00580939 0)
(0.0125828 0.00213117 0)
(0.0152038 0.00932243 0)
(0.0162318 0.0154067 0)
(0.0156861 0.0199583 0)
(0.0136037 0.0225138 0)
(0.0101516 0.0226574 0)
(0.00560997 0.0195718 0)
(0.000821296 0.010566 0)
(0.000753075 -0.00737081 0)
(0.00405051 -0.0146944 0)
(0.00649253 -0.0152987 0)
(0.00778035 -0.0130661 0)
(0.00820171 -0.00959962 0)
(0.00780169 -0.00585109 0)
(0.00669179 -0.00219817 0)
(0.00490093 0.00116601 0)
(0.00240857 0.00417115 0)
(-0.000844375 0.00684929 0)
(-0.00494395 0.00931598 0)
(-0.00998228 0.0117373 0)
(-0.0160423 0.0142848 0)
(-0.0231917 0.0170981 0)
(-0.031478 0.0202644 0)
(-0.0409207 0.0238155 0)
(-0.0514999 0.0277247 0)
(-0.0631287 0.0318975 0)
(-0.0756436 0.0362034 0)
(-0.088796 0.0404421 0)
(-0.102277 0.0444438 0)
(-0.1158 0.0480096 0)
(-0.129029 0.0508874 0)
(-0.141587 0.0529855 0)
(-0.15327 0.0542675 0)
(-0.163989 0.0547348 0)
(-0.173764 0.054479 0)
(-0.182642 0.0536073 0)
(-0.190671 0.0522216 0)
(-0.197928 0.0504132 0)
(-0.204456 0.0482511 0)
(-0.210318 0.0457993 0)
(-0.215564 0.0431013 0)
(-0.220233 0.040201 0)
(-0.224369 0.0371323 0)
(-0.228004 0.0339194 0)
(-0.231161 0.0305867 0)
(-0.233859 0.0271582 0)
(-0.236118 0.0236436 0)
(-0.23794 0.0200499 0)
(-0.239326 0.0163852 0)
(-0.240283 0.0126376 0)
(-0.240804 0.00879889 0)
(-0.240883 0.00485549 0)
(-0.240509 0.000790257 0)
(-0.239678 -0.00341684 0)
(-0.238372 -0.00778224 0)
(-0.236558 -0.0123137 0)
(-0.234199 -0.0170158 0)
(-0.231234 -0.0218796 0)
(-0.227619 -0.0269137 0)
(-0.223313 -0.0321116 0)
(-0.218231 -0.0374215 0)
(-0.212304 -0.0428009 0)
(-0.205472 -0.0481911 0)
(-0.197732 -0.0535454 0)
(-0.189008 -0.058723 0)
(-0.179225 -0.0635339 0)
(-0.168407 -0.0678339 0)
(-0.156557 -0.0713902 0)
(-0.143716 -0.0739718 0)
(-0.130008 -0.0753719 0)
(-0.115569 -0.0753573 0)
(-0.100649 -0.0737621 0)
(-0.0854961 -0.0704413 0)
(-0.0704119 -0.0653737 0)
(-0.055887 -0.0587254 0)
(-0.0423214 -0.0507175 0)
(-0.0299866 -0.0416213 0)
(-0.0191523 -0.0317838 0)
(-0.0100116 -0.0216079 0)
(-0.00266668 -0.0115059 0)
(0.00287998 -0.00187098 0)
(0.00671194 0.0069312 0)
(0.0089528 0.0145469 0)
(0.00970331 0.0205836 0)
(0.00902102 0.0245578 0)
(0.00698735 0.025919 0)
(0.00397664 0.0235935 0)
(0.000453267 0.0133059 0)
(0.000928805 -0.00973119 0)
(0.00375253 -0.017289 0)
(0.00510964 -0.0167224 0)
(0.0054255 -0.0134213 0)
(0.00483601 -0.00910063 0)
(0.00348856 -0.00461625 0)
(0.00143376 -0.000266715 0)
(-0.00134034 0.0038113 0)
(-0.00489177 0.00759001 0)
(-0.00930807 0.0111288 0)
(-0.0146866 0.0145538 0)
(-0.0211183 0.0180246 0)
(-0.0286739 0.0216938 0)
(-0.037393 0.0256725 0)
(-0.0472738 0.0300104 0)
(-0.0582634 0.0346839 0)
(-0.0702421 0.0396154 0)
(-0.0830222 0.0446225 0)
(-0.0963041 0.049486 0)
(-0.109793 0.0540288 0)
(-0.123143 0.0579311 0)
(-0.135937 0.0610133 0)
(-0.147875 0.0631486 0)
(-0.158849 0.0643229 0)
(-0.168863 0.0646138 0)
(-0.177965 0.0641331 0)
(-0.18622 0.0630019 0)
(-0.193696 0.0613238 0)
(-0.200464 0.0592001 0)
(-0.206584 0.0567112 0)
(-0.212102 0.0539229 0)
(-0.217066 0.0508905 0)
(-0.221511 0.0476529 0)
(-0.225475 0.0442473 0)
(-0.228987 0.0407033 0)
(-0.232073 0.0370449 0)
(-0.234748 0.0332965 0)
(-0.237021 0.0294804 0)
(-0.238899 0.0256087 0)
(-0.240441 0.0215996 0)
(-0.241638 0.017523 0)
(-0.242479 0.0133662 0)
(-0.242959 0.00912056 0)
(-0.24307 0.00477229 0)
(-0.242796 0.000304189 0)
(-0.242125 -0.00430608 0)
(-0.241084 -0.00907541 0)
(-0.239645 -0.0140306 0)
(-0.237807 -0.0191994 0)
(-0.235556 -0.0246109 0)
(-0.232844 -0.0302729 0)
(-0.229655 -0.0362211 0)
(-0.225914 -0.042361 0)
(-0.221506 -0.0486524 0)
(-0.216324 -0.0550331 0)
(-0.210205 -0.0613833 0)
(-0.203064 -0.0675841 0)
(-0.194753 -0.0733984 0)
(-0.185306 -0.0787402 0)
(-0.174733 -0.0833908 0)
(-0.162928 -0.0870006 0)
(-0.150023 -0.0893387 0)
(-0.136049 -0.0900657 0)
(-0.121241 -0.0889935 0)
(-0.105817 -0.0859041 0)
(-0.0900816 -0.0806982 0)
(-0.0744407 -0.0734235 0)
(-0.0594578 -0.0643949 0)
(-0.0455597 -0.0539643 0)
(-0.0330693 -0.0425268 0)
(-0.0222666 -0.03057 0)
(-0.0133364 -0.018614 0)
(-0.00634262 -0.00716306 0)
(-0.00122898 0.00333729 0)
(0.0021706 0.0125061 0)
(0.00404515 0.0199757 0)
(0.0045392 0.0252895 0)
(0.00378013 0.0278213 0)
(0.00209689 0.0261597 0)
(3.97747e-05 0.0149079 0)
(0.00100735 -0.0119178 0)
(0.00294725 -0.0189354 0)
(0.00323431 -0.0170952 0)
(0.00247151 -0.0127088 0)
(0.000862618 -0.00761338 0)
(-0.00146112 -0.00241389 0)
(-0.00450374 0.00265933 0)
(-0.00831529 0.00751607 0)
(-0.0129788 0.0121569 0)
(-0.01859 0.0166555 0)
(-0.0252399 0.0211341 0)
(-0.0330009 0.0257322 0)
(-0.0419116 0.0305676 0)
(-0.0519625 0.0357047 0)
(-0.0630802 0.0411333 0)
(-0.0751495 0.0467765 0)
(-0.0879467 0.0524491 0)
(-0.101143 0.0579344 0)
(-0.114446 0.0629365 0)
(-0.127431 0.0671857 0)
(-0.13968 0.070455 0)
(-0.151019 0.0726429 0)
(-0.161396 0.0737906 0)
(-0.17083 0.0740019 0)
(-0.179384 0.0734005 0)
(-0.187127 0.0721015 0)
(-0.194137 0.0702244 0)
(-0.200483 0.0678689 0)
(-0.206223 0.0651253 0)
(-0.211401 0.0620633 0)
(-0.216056 0.058743 0)
(-0.220224 0.0552129 0)
(-0.223932 0.0515115 0)
(-0.227207 0.047674 0)
(-0.230067 0.043733 0)
(-0.232522 0.0397164 0)
(-0.234661 0.0355815 0)
(-0.236479 0.0313698 0)
(-0.237997 0.027076 0)
(-0.239193 0.0227737 0)
(-0.240077 0.0183906 0)
(-0.24066 0.0139204 0)
(-0.240949 0.00935254 0)
(-0.240952 0.00467221 0)
(-0.240677 -0.000138477 0)
(-0.240132 -0.00509961 0)
(-0.239313 -0.0102241 0)
(-0.238211 -0.0155419 0)
(-0.236813 -0.0210722 0)
(-0.235102 -0.0268328 0)
(-0.233049 -0.0328279 0)
(-0.230614 -0.039049 0)
(-0.227768 -0.0456002 0)
(-0.224482 -0.0524567 0)
(-0.220694 -0.0595705 0)
(-0.216321 -0.0668776 0)
(-0.211275 -0.074315 0)
(-0.205325 -0.0815106 0)
(-0.198117 -0.0882019 0)
(-0.189457 -0.0940709 0)
(-0.179288 -0.0988485 0)
(-0.167817 -0.102419 0)
(-0.154904 -0.104254 0)
(-0.140763 -0.104113 0)
(-0.125543 -0.101685 0)
(-0.109541 -0.0967898 0)
(-0.0931071 -0.0893585 0)
(-0.0767832 -0.0795899 0)
(-0.0612469 -0.0679809 0)
(-0.046974 -0.0550296 0)
(-0.0343207 -0.0412737 0)
(-0.0235827 -0.0273508 0)
(-0.014925 -0.0139029 0)
(-0.0083576 -0.00151216 0)
(-0.00373511 0.00934715 0)
(-0.000813193 0.0182795 0)
(0.000685888 0.0248835 0)
(0.00102922 0.0284872 0)
(0.000504076 0.0273849 0)
(-0.000237775 0.0154189 0)
(0.000955804 -0.0137117 0)
(0.00179494 -0.0194935 0)
(0.00093936 -0.0162903 0)
(-0.000901916 -0.0109711 0)
(-0.00351919 -0.00513387 0)
(-0.00683255 0.000782495 0)
(-0.0108848 0.00661559 0)
(-0.0157521 0.01231 0)
(-0.0215259 0.0178815 0)
(-0.0282945 0.0234014 0)
(-0.0361282 0.0289741 0)
(-0.0450663 0.0347046 0)
(-0.0551005 0.0406612 0)
(-0.0661559 0.0468457 0)
(-0.0781155 0.0531924 0)
(-0.090748 0.0595221 0)
(-0.103729 0.0655922 0)
(-0.116694 0.071073 0)
(-0.12923 0.0756808 0)
(-0.140974 0.0791748 0)
(-0.151802 0.0815065 0)
(-0.16168 0.0827302 0)
(-0.170625 0.0829545 0)
(-0.17871 0.0823039 0)
(-0.186012 0.0809122 0)
(-0.192603 0.0788981 0)
(-0.198552 0.0763722 0)
(-0.203911 0.0734237 0)
(-0.208726 0.0701314 0)
(-0.213031 0.0665579 0)
(-0.21686 0.0627582 0)
(-0.220243 0.0587768 0)
(-0.223206 0.0546511 0)
(-0.225774 0.0504134 0)
(-0.227995 0.0460759 0)
(-0.229895 0.0416599 0)
(-0.231451 0.0372186 0)
(-0.232671 0.0327282 0)
(-0.233595 0.028185 0)
(-0.234236 0.0235901 0)
(-0.234627 0.0189274 0)
(-0.234791 0.0141967 0)
(-0.234746 0.00938504 0)
(-0.234513 0.00447594 0)
(-0.234109 -0.000552929 0)
(-0.233542 -0.00572681 0)
(-0.232793 -0.0110715 0)
(-0.231879 -0.0166192 0)
(-0.230796 -0.0224008 0)
(-0.229539 -0.0284473 0)
(-0.228095 -0.0347817 0)
(-0.22644 -0.0414182 0)
(-0.224544 -0.0483594 0)
(-0.222361 -0.0555928 0)
(-0.219823 -0.0630892 0)
(-0.216842 -0.0707826 0)
(-0.21329 -0.0785754 0)
(-0.209147 -0.0866371 0)
(-0.204249 -0.0946425 0)
(-0.198381 -0.102275 0)
(-0.191103 -0.108929 0)
(-0.181858 -0.113998 0)
(-0.170784 -0.117255 0)
(-0.158051 -0.118485 0)
(-0.143743 -0.117237 0)
(-0.128079 -0.113182 0)
(-0.111428 -0.106195 0)
(-0.0941746 -0.0962491 0)
(-0.0770686 -0.083746 0)
(-0.060925 -0.0694101 0)
(-0.0462784 -0.0539138 0)
(-0.0335206 -0.0379523 0)
(-0.0229502 -0.0223246 0)
(-0.0146924 -0.00778792 0)
(-0.00867486 0.00501361 0)
(-0.00464157 0.0155838 0)
(-0.00220938 0.0235219 0)
(-0.000982097 0.0280428 0)
(-0.000520788 0.0274743 0)
(-0.000288957 0.0152384 0)
(0.000791975 -0.0147034 0)
(0.000402506 -0.018856 0)
(-0.0016315 -0.0143469 0)
(-0.00450815 -0.00820518 0)
(-0.00811709 -0.0016575 0)
(-0.0124202 0.00498141 0)
(-0.0174766 0.0116044 0)
(-0.0233756 0.0181768 0)
(-0.0302043 0.0247134 0)
(-0.0380315 0.0312684 0)
(-0.0468962 0.0379151 0)
(-0.0567943 0.0447112 0)
(-0.0676591 0.0516636 0)
(-0.0793789 0.0587193 0)
(-0.0917247 0.0657069 0)
(-0.104387 0.0723638 0)
(-0.116964 0.0783514 0)
(-0.129038 0.0833596 0)
(-0.140351 0.0871798 0)
(-0.150745 0.0897523 0)
(-0.160191 0.0911442 0)
(-0.168718 0.0914536 0)
(-0.176393 0.0908265 0)
(-0.183294 0.0894017 0)
(-0.189493 0.0873078 0)
(-0.195051 0.0846559 0)
(-0.200017 0.0815436 0)
(-0.204434 0.0780513 0)
(-0.208336 0.0742505 0)
(-0.211754 0.0702003 0)
(-0.21472 0.0659534 0)
(-0.217264 0.0615531 0)
(-0.219415 0.0570365 0)
(-0.221204 0.0524334 0)
(-0.222643 0.0477718 0)
(-0.223768 0.0430585 0)
(-0.224593 0.0383102 0)
(-0.225176 0.0335269 0)
(-0.225533 0.0287194 0)
(-0.225686 0.0238872 0)
(-0.22566 0.0190198 0)
(-0.225475 0.0141081 0)
(-0.225149 0.00913473 0)
(-0.2247 0.00407984 0)
(-0.224143 -0.00108043 0)
(-0.223487 -0.00637123 0)
(-0.222737 -0.0118274 0)
(-0.221911 -0.0174781 0)
(-0.221017 -0.0233579 0)
(-0.22006 -0.0295005 0)
(-0.219041 -0.0359387 0)
(-0.217952 -0.0427038 0)
(-0.216778 -0.0498239 0)
(-0.215496 -0.0573124 0)
(-0.214059 -0.0651661 0)
(-0.212396 -0.0733504 0)
(-0.210403 -0.0817862 0)
(-0.207964 -0.0903458 0)
(-0.204918 -0.0988624 0)
(-0.201042 -0.107235 0)
(-0.196267 -0.115403 0)
(-0.190226 -0.122743 0)
(-0.182309 -0.128326 0)
(-0.171868 -0.131312 0)
(-0.159378 -0.131798 0)
(-0.144863 -0.129209 0)
(-0.128695 -0.123315 0)
(-0.111255 -0.113941 0)
(-0.0930954 -0.101216 0)
(-0.075149 -0.0857793 0)
(-0.0583937 -0.0686287 0)
(-0.0434432 -0.0506397 0)
(-0.0307143 -0.0326911 0)
(-0.0204868 -0.0157481 0)
(-0.0128083 -0.000674339 0)
(-0.00748411 0.0118447 0)
(-0.00407444 0.0212867 0)
(-0.00211755 0.0267344 0)
(-0.00095857 0.0267587 0)
(-0.000210938 0.0147133 0)
(0.000554392 -0.0149265 0)
(-0.00116071 -0.017015 0)
(-0.00430879 -0.0113247 0)
(-0.00818534 -0.00441967 0)
(-0.0127683 0.00280466 0)
(-0.018033 0.0101638 0)
(-0.0240524 0.0175903 0)
(-0.030917 0.0250526 0)
(-0.0386985 0.0325485 0)
(-0.0474376 0.0401025 0)
(-0.0571347 0.0477444 0)
(-0.0677344 0.0554745 0)
(-0.0791364 0.0632484 0)
(-0.0911264 0.0709044 0)
(-0.103402 0.0781767 0)
(-0.115574 0.084719 0)
(-0.127241 0.0902019 0)
(-0.138168 0.0944413 0)
(-0.148198 0.0973632 0)
(-0.157275 0.0990002 0)
(-0.165441 0.0994794 0)
(-0.172753 0.0989427 0)
(-0.17929 0.0975441 0)
(-0.185119 0.0954166 0)
(-0.190293 0.0926783 0)
(-0.194862 0.0894304 0)
(-0.198863 0.0857613 0)
(-0.202333 0.0817474 0)
(-0.205305 0.077457 0)
(-0.207814 0.0729492 0)
(-0.209894 0.068276 0)
(-0.21158 0.0634815 0)
(-0.212906 0.0586019 0)
(-0.213908 0.0536656 0)
(-0.21462 0.0486951 0)
(-0.215078 0.0437066 0)
(-0.215313 0.0387158 0)
(-0.215359 0.0337246 0)
(-0.215238 0.0287354 0)
(-0.214976 0.023745 0)
(-0.214591 0.0187416 0)
(-0.214102 0.0137119 0)
(-0.213526 0.00863702 0)
(-0.212879 0.00349541 0)
(-0.212178 -0.00173683 0)
(-0.211435 -0.00708553 0)
(-0.210662 -0.0125848 0)
(-0.209877 -0.0182662 0)
(-0.209093 -0.0241651 0)
(-0.208323 -0.0303172 0)
(-0.207577 -0.0367589 0)
(-0.20686 -0.0435268 0)
(-0.206173 -0.0506556 0)
(-0.20551 -0.058173 0)
(-0.204851 -0.0660966 0)
(-0.204154 -0.0744283 0)
(-0.20335 -0.0831489 0)
(-0.202343 -0.0922037 0)
(-0.200989 -0.101454 0)
(-0.199095 -0.110684 0)
(-0.196425 -0.119601 0)
(-0.192661 -0.127922 0)
(-0.18763 -0.135611 0)
(-0.18081 -0.141559 0)
(-0.17119 -0.144456 0)
(-0.158868 -0.143993 0)
(-0.14411 -0.139934 0)
(-0.127284 -0.131895 0)
(-0.10893 -0.119848 0)
(-0.0897958 -0.104097 0)
(-0.0710084 -0.0855676 0)
(-0.053725 -0.0655837 0)
(-0.038637 -0.0452543 0)
(-0.0261659 -0.025677 0)
(-0.0165273 -0.00798863 0)
(-0.00964234 0.00687223 0)
(-0.00511169 0.0181616 0)
(-0.00244652 0.0248208 0)
(-0.000873872 0.0256163 0)
(-1.59174e-05 0.0141483 0)
(0.000133607 -0.0141725 0)
(-0.00281861 -0.0140084 0)
(-0.00698561 -0.00724459 0)
(-0.0118109 0.000341712 0)
(-0.0173218 0.00821014 0)
(-0.0234914 0.0162782 0)
(-0.0303988 0.0245004 0)
(-0.038126 0.0328319 0)
(-0.0467217 0.0412408 0)
(-0.0561925 0.0497102 0)
(-0.0664949 0.0582169 0)
(-0.0775428 0.0667149 0)
(-0.0891441 0.0750502 0)
(-0.101014 0.0829656 0)
(-0.112785 0.090119 0)
(-0.124092 0.096174 0)
(-0.134688 0.100927 0)
(-0.14441 0.104291 0)
(-0.153185 0.106275 0)
(-0.161041 0.107002 0)
(-0.168042 0.10663 0)
(-0.174252 0.105315 0)
(-0.179739 0.103202 0)
(-0.184553 0.100413 0)
(-0.18874 0.097059 0)
(-0.192339 0.0932341 0)
(-0.195387 0.0890239 0)
(-0.197925 0.0845047 0)
(-0.19999 0.0797455 0)
(-0.201627 0.0748067 0)
(-0.202877 0.069741 0)
(-0.203782 0.0645925 0)
(-0.204384 0.0593968 0)
(-0.204724 0.0541823 0)
(-0.204839 0.0489709 0)
(-0.204764 0.043777 0)
(-0.204529 0.0386105 0)
(-0.204161 0.0334717 0)
(-0.20368 0.0283585 0)
(-0.203107 0.0232631 0)
(-0.202459 0.0181731 0)
(-0.201751 0.013073 0)
(-0.200997 0.00794322 0)
(-0.200212 0.002762 0)
(-0.199411 -0.00249491 0)
(-0.198605 -0.00785416 0)
(-0.197811 -0.0133476 0)
(-0.197044 -0.0190075 0)
(-0.196321 -0.0248694 0)
(-0.19566 -0.03097 0)
(-0.195075 -0.0373478 0)
(-0.194582 -0.0440425 0)
(-0.194194 -0.0510929 0)
(-0.193916 -0.0585343 0)
(-0.193746 -0.0663956 0)
(-0.193668 -0.0746955 0)
(-0.193648 -0.0834391 0)
(-0.193627 -0.0926083 0)
(-0.193504 -0.102146 0)
(-0.193132 -0.11194 0)
(-0.192296 -0.121782 0)
(-0.19071 -0.131314 0)
(-0.188028 -0.14006 0)
(-0.183827 -0.147747 0)
(-0.177743 -0.153763 0)
(-0.168811 -0.156447 0)
(-0.156591 -0.155032 0)
(-0.141454 -0.149247 0)
(-0.123803 -0.13875 0)
(-0.104426 -0.123719 0)
(-0.0842822 -0.104691 0)
(-0.0647514 -0.082954 0)
(-0.0471476 -0.0602179 0)
(-0.0322204 -0.0378423 0)
(-0.0203449 -0.0172126 0)
(-0.0116163 0.000421283 0)
(-0.00574568 0.0140411 0)
(-0.00229384 0.0224094 0)
(-0.000429352 0.0243697 0)
(0.000238172 0.0138709 0)
(-0.000311127 -0.0124118 0)
(-0.00445224 -0.00988006 0)
(-0.00955769 -0.00217886 0)
(-0.0152672 0.00601663 0)
(-0.0216378 0.0144922 0)
(-0.0286309 0.0232438 0)
(-0.0363239 0.03223 0)
(-0.0447835 0.0413793 0)
(-0.0540298 0.0506184 0)
(-0.0640328 0.0598791 0)
(-0.0747215 0.0690965 0)
(-0.0859283 0.0781185 0)
(-0.0973971 0.086704 0)
(-0.108795 0.0945194 0)
(-0.119783 0.101227 0)
(-0.130101 0.106596 0)
(-0.139568 0.110497 0)
(-0.148105 0.112929 0)
(-0.155712 0.113997 0)
(-0.16245 0.113865 0)
(-0.168384 0.112699 0)
(-0.173571 0.11065 0)
(-0.178064 0.107854 0)
(-0.181907 0.104427 0)
(-0.185141 0.100474 0)
(-0.187808 0.0960899 0)
(-0.189952 0.0913614 0)
(-0.191622 0.0863675 0)
(-0.192866 0.081179 0)
(-0.193735 0.0758573 0)
(-0.194277 0.0704545 0)
(-0.19454 0.0650135 0)
(-0.194568 0.0595682 0)
(-0.1944 0.0541432 0)
(-0.19407 0.0487563 0)
(-0.193611 0.0434178 0)
(-0.193046 0.0381319 0)
(-0.192396 0.0328962 0)
(-0.191679 0.0277047 0)
(-0.19091 0.0225471 0)
(-0.190101 0.0174092 0)
(-0.189263 0.0122742 0)
(-0.188408 0.00712274 0)
(-0.187546 0.00193288 0)
(-0.18669 -0.00331941 0)
(-0.185851 -0.00866035 0)
(-0.185044 -0.0141196 0)
(-0.184284 -0.0197284 0)
(-0.18359 -0.0255209 0)
(-0.182981 -0.0315334 0)
(-0.182476 -0.0378046 0)
(-0.182098 -0.0443752 0)
(-0.181866 -0.0512868 0)
(-0.181797 -0.0585805 0)
(-0.181902 -0.0662943 0)
(-0.182184 -0.0744604 0)
(-0.18263 -0.0831007 0)
(-0.183209 -0.0922194 0)
(-0.183863 -0.101794 0)
(-0.184491 -0.111764 0)
(-0.184943 -0.122014 0)
(-0.18499 -0.132345 0)
(-0.18432 -0.142414 0)
(-0.182531 -0.151651 0)
(-0.179105 -0.15938 0)
(-0.173515 -0.16519 0)
(-0.164906 -0.167394 0)
(-0.152628 -0.164841 0)
(-0.136886 -0.156996 0)
(-0.118249 -0.143674 0)
(-0.0977618 -0.125287 0)
(-0.0766559 -0.102713 0)
(-0.0566214 -0.0777279 0)
(-0.0390699 -0.0524626 0)
(-0.024744 -0.0285948 0)
(-0.0139267 -0.00773997 0)
(-0.00648904 0.00875261 0)
(-0.00209182 0.0194608 0)
(8.93357e-05 0.0231226 0)
(0.000448819 0.0139956 0)
(-0.000766664 -0.00968001 0)
(-0.0059933 -0.00473076 0)
(-0.011942 0.00379393 0)
(-0.0184534 0.0125287 0)
(-0.0255968 0.0215656 0)
(-0.0333112 0.0309576 0)
(-0.0416671 0.0406522 0)
(-0.0507109 0.0505382 0)
(-0.0604323 0.0604892 0)
(-0.0707761 0.0704007 0)
(-0.0816013 0.0801079 0)
(-0.0926903 0.0893799 0)
(-0.103746 0.097899 0)
(-0.114449 0.105325 0)
(-0.124541 0.111398 0)
(-0.133814 0.11594 0)
(-0.142171 0.118924 0)
(-0.149596 0.120434 0)
(-0.156132 0.120626 0)
(-0.161844 0.119681 0)
(-0.166787 0.117759 0)
(-0.171012 0.115005 0)
(-0.174565 0.111548 0)
(-0.17749 0.107502 0)
(-0.179834 0.102974 0)
(-0.181647 0.0980619 0)
(-0.182984 0.0928565 0)
(-0.183902 0.0874388 0)
(-0.184457 0.0818797 0)
(-0.184705 0.0762397 0)
(-0.184696 0.0705683 0)
(-0.184477 0.0649044 0)
(-0.18409 0.0592767 0)
(-0.183571 0.053705 0)
(-0.182948 0.0482014 0)
(-0.182246 0.0427711 0)
(-0.181484 0.0374131 0)
(-0.180676 0.0321222 0)
(-0.179835 0.0268889 0)
(-0.17897 0.0217006 0)
(-0.178089 0.0165418 0)
(-0.177199 0.0113951 0)
(-0.176307 0.00624119 0)
(-0.175421 0.00105883 0)
(-0.174549 -0.00417507 0)
(-0.173702 -0.00948525 0)
(-0.172891 -0.014899 0)
(-0.172133 -0.0204454 0)
(-0.171445 -0.0261562 0)
(-0.170848 -0.0320658 0)
(-0.170365 -0.0382112 0)
(-0.17002 -0.0446325 0)
(-0.169839 -0.0513721 0)
(-0.169849 -0.0584738 0)
(-0.170069 -0.065982 0)
(-0.170518 -0.0739387 0)
(-0.171199 -0.0823805 0)
(-0.172105 -0.0913322 0)
(-0.173202 -0.1008 0)
(-0.174429 -0.110759 0)
(-0.17568 -0.12114 0)
(-0.176795 -0.131815 0)
(-0.177538 -0.142569 0)
(-0.177565 -0.153051 0)
(-0.176419 -0.162677 0)
(-0.173541 -0.170611 0)
(-0.168233 -0.175976 0)
(-0.159631 -0.177374 0)
(-0.147001 -0.173313 0)
(-0.130409 -0.162971 0)
(-0.110644 -0.146344 0)
(-0.0890184 -0.124164 0)
(-0.0671457 -0.0977871 0)
(-0.0470023 -0.0696494 0)
(-0.0300582 -0.0423404 0)
(-0.0169517 -0.0178199 0)
(-0.00774568 0.0021168 0)
(-0.00220737 0.0158366 0)
(0.000435344 0.0218222 0)
(0.000620447 0.0144405 0)
(-0.00120669 -0.00603208 0)
(-0.00738415 0.00133916 0)
(-0.0140724 0.0105793 0)
(-0.0212923 0.0197841 0)
(-0.0291026 0.0293261 0)
(-0.0374193 0.0392978 0)
(-0.0463011 0.0496219 0)
(-0.0557726 0.0601344 0)
(-0.0658039 0.0706744 0)
(-0.0762774 0.0810433 0)
(-0.087012 0.0909989 0)
(-0.0977511 0.100247 0)
(-0.108203 0.108437 0)
(-0.118109 0.115288 0)
(-0.127248 0.120574 0)
(-0.135488 0.124217 0)
(-0.142797 0.126276 0)
(-0.1492 0.126894 0)
(-0.154753 0.126252 0)
(-0.159516 0.124528 0)
(-0.163538 0.121877 0)
(-0.166867 0.11844 0)
(-0.16955 0.114345 0)
(-0.171639 0.10971 0)
(-0.173191 0.104648 0)
(-0.174266 0.0992583 0)
(-0.174927 0.0936354 0)
(-0.175239 0.08786 0)
(-0.175259 0.0820009 0)
(-0.175045 0.0761146 0)
(-0.174644 0.0702453 0)
(-0.174101 0.0644255 0)
(-0.17345 0.0586777 0)
(-0.172722 0.0530155 0)
(-0.171938 0.047445 0)
(-0.171116 0.041966 0)
(-0.170268 0.0365734 0)
(-0.169405 0.0312583 0)
(-0.168531 0.0260085 0)
(-0.167651 0.0208104 0)
(-0.166769 0.0156471 0)
(-0.165887 0.0105 0)
(-0.165008 0.00535145 0)
(-0.164137 0.000181138 0)
(-0.16328 -0.0050321 0)
(-0.162443 -0.0103114 0)
(-0.161639 -0.0156811 0)
(-0.160881 -0.0211674 0)
(-0.160186 -0.0267988 0)
(-0.159575 -0.0326065 0)
(-0.159071 -0.0386247 0)
(-0.158703 -0.0448914 0)
(-0.158499 -0.0514477 0)
(-0.158491 -0.0583384 0)
(-0.158709 -0.0656109 0)
(-0.15918 -0.0733138 0)
(-0.159925 -0.0814943 0)