/*--------------------------------*- C++ -*----------------------------------*\
  =========                 |
  \\      /  F ield         | OpenFOAM: The Open Source CFD Toolbox
   \\    /   O peration     | Website:  https://openfoam.org
    \\  /    A nd           | Version:  13
     \\/     M anipulation  |
\*---------------------------------------------------------------------------*/
FoamFile
{
    format      ascii;
    class       volScalarField;
    location    "2.5";
    object      k;
}
// * * * * * * * * * * * * * * * * * * * * * * * * * * * * * * * * * * * * * //

dimensions      [0 2 -2 0 0 0 0];

internalField   nonuniform List<scalar> 
1600
(
1.22356e-06
5.58813e-06
1.17648e-05
1.72287e-05
2.23975e-05
2.73683e-05
3.17359e-05
3.50043e-05
3.7688e-05
3.97644e-05
4.30073e-05
4.96598e-05
6.10969e-05
7.81506e-05
9.67104e-05
0.000118476
0.000143657
0.000168424
0.000193248
0.000218877
0.000245664
0.000274519
0.000306231
0.000342183
0.00038487
0.000434073
0.000476256
0.000517911
0.000549883
0.000568167
0.000574728
0.000555082
0.000501936
0.000413985
0.000294161
0.000166699
7.24274e-05
2.71231e-05
7.96894e-06
1.52153e-06
5.99221e-06
4.15564e-05
8.18627e-05
0.000114678
0.000144949
0.000174193
0.000202165
0.00022769
0.000247289
0.000263589
0.000290527
0.000342925
0.000421313
0.000506669
0.000557971
0.000603008
0.000654879
0.000702144
0.000749376
0.000797059
0.000846394
0.000897969
0.000951179
0.0010041
0.00105411
0.00110125
0.00115333
0.00120141
0.00124409
0.00126521
0.00127198
0.00123427
0.0011406
0.000984986
0.000749797
0.000486385
0.00023399
9.46866e-05
3.18557e-05
4.51242e-06
1.51931e-05
9.66847e-05
0.000167931
0.000225521
0.000281066
0.000338843
0.00040167
0.000471337
0.000547766
0.000628871
0.0007057
0.00074052
0.000750348
0.000753508
0.000767447
0.000797315
0.000826372
0.000855356
0.00088622
0.000918894
0.000953476
0.000989138
0.00102578
0.00106312
0.00110098
0.0011397
0.00117888
0.00121574
0.0012483
0.00126518
0.00127064
0.00124588
0.00117122
0.00104634
0.000849627
0.00058548
0.000285611
0.000113292
4.32334e-05
5.97347e-06
2.92459e-05
0.000167398
0.000267585
0.00034891
0.000429874
0.000516854
0.000611374
0.000708227
0.000794052
0.000835343
0.000844982
0.00082553
0.000816257
0.000815505
0.000832305
0.00085209
0.000873701
0.000897756
0.00092426
0.000951412
0.000978871
0.00100683
0.0010346
0.00106176
0.00108863
0.00111471
0.00113942
0.0011614
0.00117889
0.00118786
0.00119074
0.00117606
0.00113593
0.0010587
0.000932843
0.00071941
0.000386716
0.000130404
4.30177e-05
5.6298e-06
5.0287e-05
0.000251469
0.000383584
0.000488757
0.000592594
0.000699626
0.000803369
0.00087655
0.000902585
0.000898006
0.000859433
0.000841672
0.000835813
0.000837353
0.000855661
0.000873831
0.000897837
0.00092375
0.000951376
0.000979542
0.0010078
0.00103507
0.00106068
0.00108454
0.0011062
0.00112612
0.00114428
0.00116058
0.00117316
0.001179
0.00118027
0.00116725
0.00113501
0.00108592
0.00100864
0.000874117
0.000601327
0.000205086
4.97944e-05
6.08914e-06
7.72804e-05
0.000347974
0.000511976
0.000637351
0.000753759
0.000860145
0.000928362
0.000950329
0.000936182
0.000889771
0.000856137
0.000843124
0.000840551
0.000849729
0.00087103
0.000894389
0.000923584
0.00095413
0.000986092
0.00101784
0.00104866
0.00107787
0.00110541
0.00113153
0.00115641
0.00118038
0.00120398
0.0012268
0.0012471
0.00125994
0.00126481
0.00125989
0.00122861
0.00116487
0.00107061
0.000950072
0.000766821
0.000363128
7.83688e-05
8.59987e-06
0.000107925
0.000451195
0.000643852
0.000782003
0.000896983
0.000970912
0.000995122
0.000982065
0.000926555
0.000873391
0.000849818
0.000842689
0.000844145
0.000862489
0.00088814
0.000917276
0.000950006
0.000982974
0.00101596
0.00104766
0.00107785
0.00110636
0.00113335
0.00115929
0.00118527
0.00121274
0.00124294
0.00127658
0.00131261
0.00134583
0.001363
0.00136856
0.00135824
0.00131028
0.00121087
0.0010564
0.000854702
0.000573111
0.000139578
1.54988e-05
0.00013998
0.000553231
0.000768904
0.000912151
0.00100584
0.00103974
0.00103507
0.000977499
0.00090733
0.000862356
0.000845469
0.000842041
0.000851165
0.00087562
0.000904303
0.000935524
0.000967693
0.000998814
0.00102866
0.00105712
0.00108432
0.00111051
0.0011361
0.00116162
0.00118857
0.00121821
0.00125214
0.00129199
0.00133931
0.00139344
0.00144437
0.00146864
0.00147456
0.00145354
0.00137789
0.00122915
0.000996472
0.000674626
0.000218761
3.0911e-05
0.000170635
0.000646296
0.000878826
0.00101786
0.0010803
0.00109019
0.00104795
0.000966098
0.0008898
0.000854665
0.000843033
0.000842446
0.000858512
0.000885073
0.000913486
0.000942409
0.000970825
0.000998063
0.00102415
0.00104824
0.00107105
0.00109339
0.00111639
0.00114149
0.00116942
0.00120161
0.00123987
0.00128614
0.0013418
0.00140716
0.00148217
0.00155099
0.00158
0.0015841
0.00153849
0.0014096
0.00118239
0.000857469
0.000373926
7.64624e-05
0.000197971
0.000723954
0.000969313
0.00109345
0.00113271
0.00112024
0.00104521
0.000948901
0.000878301
0.000848924
0.000840441
0.000842378
0.000861553
0.000887235
0.000913518
0.000940026
0.000964481
0.000986194
0.00100501
0.00102234
0.00103998
0.00105907
0.00108053
0.00110508
0.00113359
0.00116741
0.00120847
0.00125923
0.00132236
0.00139961
0.00148969
0.00158909
0.00167117
0.00169839
0.0016891
0.00158905
0.00136312
0.00101034
0.000539079
0.000153032
0.000219562
0.000783339
0.0010334
0.00114418
0.00116984
0.00113388
0.00103895
0.000934045
0.000869401
0.000843502
0.000836745
0.000841091
0.000860701
0.000885028
0.000908524
0.000929531
0.000946211
0.00095973
0.000971765
0.000984186
0.000998078
0.00101458
0.00103456
0.00105871
0.00108782
0.00112302
0.00116609
0.00121966
0.00128718
0.00137217
0.00147636
0.00159625
0.00172303
0.00180275
0.00182267
0.00176788
0.00156545
0.00119796
0.000660198
0.000236632
0.000234311
0.000822944
0.00107279
0.00117483
0.00119152
0.00113732
0.00102993
0.000922239
0.000861693
0.000837878
0.000832116
0.000837799
0.000856813
0.00087771
0.000895206
0.000908415
0.000918235
0.000925597
0.00093227
0.00094005
0.000950351
0.000964339
0.000982942
0.00100687
0.00103676
0.0010735
0.00111854
0.00117432
0.00124457
0.00133409
0.00144744
0.00158561
0.00174002
0.0018844
0.00194182
0.00192944
0.0017554
0.00138077
0.000819412
0.000317331
0.000241933
0.000842924
0.00108922
0.00118632
0.00119834
0.00113531
0.00102157
0.000913177
0.00085463
0.000831664
0.00082621
0.000831585
0.000847853
0.000863473
0.000875328
0.000882682
0.000886541
0.000888414
0.000890146
0.000893549
0.00090027
0.000911726
0.000928919
0.000952661
0.000983526
0.00102212
0.00106947
0.00112758
0.00119996
0.00129199
0.00141032
0.0015603
0.00173999
0.00193066
0.00205365
0.0020797
0.00194842
0.0015669
0.000945846
0.000389534
0.000240686
0.000841966
0.00108606
0.00118339
0.00119546
0.00113041
0.00101451
0.000906697
0.000848153
0.000824703
0.000818857
0.000822622
0.000835098
0.00084652
0.000852806
0.000854756
0.000853936
0.000850898
0.000848379
0.000847757
0.000850803
0.000859545
0.000875152
0.000898604
0.000930517
0.000971283
0.00102146
0.00108241
0.0011571
0.00125088
0.00137167
0.00152829
0.00172478
0.00194954
0.00214546
0.00221594
0.00213403
0.00175509
0.00109114
0.000462315
0.000236067
0.000833518
0.00107365
0.00117292
0.00118684
0.00112314
0.00100929
0.000902651
0.00084239
0.00081716
0.000810261
0.00081184
0.000820636
0.000827437
0.000829511
0.000827818
0.000822684
0.000815621
0.000808786
0.000804988
0.000804582
0.000810359
0.000824125
0.000847072
0.000879992
0.000923153
0.00097662
0.00104099
0.00111844
0.00121388
0.00133578
0.00149564
0.00170323
0.00195446
0.00221494
0.00234225
0.00231259
0.00194172
0.00122466
0.000531739
0.000226268
0.000813741
0.00104793
0.00115127
0.00117024
0.00111437
0.00100655
0.000902579
0.000838088
0.00080967
0.000800613
0.000800076
0.000805128
0.000808044
0.000807459
0.000802574
0.000794242
0.00078404
0.00077397
0.000766584
0.000763723
0.00076649
0.000778213
0.00080041
0.000834195
0.000879839
0.000936931
0.0010052
0.00108584
0.00118305
0.00130529
0.00146594
0.00168012
0.00195326
0.00225751
0.00245822
0.00247891
0.00212925
0.00136763
0.000603081
0.000212309
0.000785222
0.00101325
0.00112192
0.00114867
0.00110408
0.00100574
0.000904454
0.000836995
0.000803121
0.000790607
0.000787887
0.00078937
0.000789796
0.000786871
0.000779833
0.000769423
0.000757123
0.000744809
0.000734565
0.000729498
0.000729788
0.000739507
0.000760791
0.000795258
0.000843341
0.000904219
0.00097667
0.00106073
0.00115976
0.00128177
0.00144113
0.00165692
0.00194335
0.00228377
0.0025626
0.00263451
0.00231322
0.00150514
0.000673344
0.000195918
0.000752399
0.000972559
0.00108676
0.00112303
0.00109212
0.00100623
0.000909266
0.000838437
0.000798913
0.000781605
0.000775739
0.000774291
0.000772638
0.000768103
0.000759854
0.000748415
0.000735079
0.000721556
0.000709805
0.000702676
0.000701419
0.00070947
0.000729901
0.000764911
0.000815278
0.000879936
0.00095693
0.00104513
0.00114614
0.00126707
0.00142292
0.00163694
0.00193071
0.00229949
0.00264898
0.00277976
0.00249773
0.00165204
0.000746142
0.00017832
0.000717051
0.000928533
0.00104702
0.00109413
0.00107829
0.00100734
0.000917438
0.000843386
0.000798973
0.000774871
0.000764784
0.000760448
0.000756896
0.000751275
0.000742541
0.000730946
0.000717546
0.000703866
0.00069177
0.000683648
0.000681624
0.000688744
0.000708876
0.000745104
0.000798054
0.000866371
0.00094726
0.00103856
0.00114093
0.00126069
0.00141207
0.00162119
0.00191709
0.00230702
0.00271902
0.00291473
0.00267828
0.0017982
0.000818876
0.00016327
0.000677816
0.00088282
0.00100364
0.00106229
0.00106179
0.00100833
0.000928162
0.000854014
0.000802436
0.000773487
0.000756891
0.000748721
0.000743059
0.000736523
0.000727715
0.000716566
0.000703858
0.000690916
0.000679477
0.000671732
0.000670255
0.000677573
0.000698352
0.000736175
0.000791185
0.000861678
0.000944794
0.00103787
0.00114102
0.00125962
0.00140742
0.00160941
0.00190337
0.00230961
0.00277297
0.00304028
0.00285807
0.00195253
0.000894128
0.00014897
0.000636763
0.000836674
0.000958642
0.00102706
0.00104198
0.00100785
0.000940848
0.000869374
0.000812035
0.000776257
0.000755365
0.000741603
0.000732517
0.000724534
0.000715601
0.000705159
0.000693643
0.000682116
0.000672134
0.000665813
0.000665875
0.000673912
0.000695574
0.000734747
0.000791646
0.000864884
0.000950811
0.00104585
0.00114913
0.00126505
0.00140674
0.00160063
0.00188894
0.00230686
0.00281388
0.00315638
0.00303475
0.00210981
0.000969733
0.000134987
0.000595458
0.000790844
0.000912932
0.000989144
0.00101892
0.00100378
0.000954605
0.000889182
0.000829921
0.000785609
0.000758636
0.000741575
0.000728767
0.000718081
0.000708077
0.000697928
0.000687561
0.000677689
0.000669608
0.000665432
0.000667182
0.000677137
0.000701177
0.000742804
0.000802054
0.000877315
0.000964783
0.00106047
0.00116278
0.00127525
0.00141007
0.00159371
0.00187225
0.00229427
0.00283864
0.00326257
0.0032095
0.00227503
0.00104733
0.00012141
0.000554745
0.000745813
0.000867165
0.000949203
0.000992279
0.000993657
0.000965126
0.000911124
0.000854522
0.000805997
0.000769963
0.000746972
0.000731068
0.000718595
0.000707584
0.000697139
0.000687253
0.000678333
0.000671855
0.000670303
0.000674365
0.000687549
0.000715287
0.000759487
0.000820533
0.000896735
0.000984349
0.00107928
0.00117949
0.00128766
0.00141494
0.00158694
0.00185304
0.00227419
0.00284891
0.00335866
0.00338008
0.00244566
0.00112515
0.000108519
0.000515384
0.000701988
0.000821889
0.000907927
0.000961854
0.000980034
0.000967672
0.000933215
0.000884028
0.000835849
0.000794934
0.000763304
0.000741494
0.000725423
0.000712462
0.000701367
0.000691741
0.000684149
0.00068034
0.000681727
0.000688842
0.000706067
0.000737273
0.000783518
0.00084528
0.000920949
0.0010071
0.0010998
0.00119672
0.00129973
0.00141818
0.00157825
0.0018298
0.00224601
0.00284993
0.00344228
0.00354466
0.00262406
0.00120408
9.6583e-05
0.000477869
0.000659797
0.000777617
0.000866068
0.000928341
0.000961776
0.000965799
0.000949799
0.000914568
0.00087188
0.000831028
0.000795842
0.000767139
0.000745103
0.000728417
0.00071562
0.000705877
0.000699586
0.000698914
0.000702359
0.000712431
0.000733277
0.000766542
0.000813418
0.000874171
0.000947459
0.00103038
0.00111936
0.00121192
0.00130873
0.00141892
0.00156598
0.00180081
0.00220686
0.0028321
0.00350636
0.00370229
0.00280954
0.00128263
8.5914e-05
0.000442848
0.000619443
0.000734847
0.000824407
0.000892574
0.000938055
0.000959296
0.000956608
0.000940144
0.000908925
0.000873456
0.000839103
0.000808633
0.000783246
0.000762867
0.000747225
0.000736201
0.000729808
0.000730136
0.000734524
0.000746015
0.00076832
0.000801629
0.000846969
0.00090456
0.000973471
0.00105144
0.00113532
0.00122188
0.00131242
0.00141445
0.00154827
0.00176489
0.00215669
0.00279773
0.00354443
0.00384904
0.00300284
0.00136093
7.66326e-05
0.000410591
0.00058132
0.000694062
0.000783722
0.000855738
0.000910075
0.000944677
0.000957432
0.000954973
0.000941377
0.00091599
0.000887241
0.000858863
0.000833136
0.00081125
0.00079375
0.000780983
0.000773269
0.000772909
0.000776976
0.000787898
0.000808896
0.000839726
0.000881115
0.000933395
0.000996115
0.00106757
0.00114434
0.00122544
0.00131025
0.00140339
0.00152377
0.00172074
0.00209364
0.00274484
0.00355936
0.00398243
0.00320147
0.00143753
6.87329e-05
0.000381211
0.00054575
0.000655692
0.000744805
0.000819176
0.000879697
0.00092481
0.000953362
0.000964337
0.000962422
0.00095234
0.000933095
0.000910617
0.000887863
0.000866841
0.000848874
0.000834886
0.000825579
0.000822853
0.000825553
0.000833924
0.000850955
0.000876965
0.000912347
0.000957614
0.00101264
0.00107571
0.00114647
0.00122173
0.00129991
0.00138453
0.00149168
0.00166788
0.00201638
0.0026691
0.00355718
0.00409625
0.00340446
0.00151229
6.21433e-05
0.000354764
0.000512951
0.000620116
0.000708424
0.000784215
0.00084889
0.000901614
0.000941347
0.000964942
0.000976898
0.000977272
0.000970641
0.000956892
0.000939706
0.000921792
0.000904959
0.000890594
0.000879781
0.000873798
0.000874143
0.000878571
0.000889759
0.000909385
0.00093742
0.000974544
0.00102064
0.00107657
0.00114019
0.00120897
0.00128081
0.00135743
0.00145185
0.00160671
0.00192437
0.00256314
0.00350544
0.00418254
0.00360757
0.00158399
5.67298e-05
0.000331181
0.00048297
0.000587611
0.000675285
0.000752132
0.000819694
0.000877739
0.000925153
0.000960896
0.000983192
0.00099486
0.000997054
0.00099278
0.00098304
0.000969586
0.000955047
0.000941072
0.000929021
0.000920161
0.000915855
0.000916739
0.000921924
0.000933899
0.000954017
0.000982576
0.00102087
0.00106867
0.00112492
0.00118728
0.00125309
0.0013223
0.00140463
0.00153801
0.00182123
0.00243114
0.00341623
0.00423016
0.00380785
0.00165255
5.23754e-05
0.000310514
0.000455802
0.000558418
0.000646064
0.000724189
0.000794185
0.000856146
0.000909179
0.000952222
0.000984044
0.00100501
0.00101611
0.00101851
0.00101513
0.00100698
0.000995061
0.00098178
0.000968681
0.000957149
0.000948503
0.000943976
0.000944646
0.000949683
0.000961683
0.000982587
0.00101282
0.00105272
0.00110166
0.00115761
0.00121759
0.00127994
0.00135095
0.00146278
0.00170779
0.00227392
0.00328084
0.00424818
0.0039976
0.00171731
4.8938e-05
0.000292567
0.000431361
0.000532821
0.000621601
0.000701856
0.000774633
0.000840029
0.000897368
0.000945796
0.000984389
0.0010118
0.00102943
0.00103793
0.00103801
0.00103375
0.00102423
0.00101128
0.00099706
0.000983035
0.000970659
0.000961285
0.000956308
0.000956975
0.00096237
0.000975554
0.000998448
0.00103088
0.00107265
0.00112218
0.00117645
0.00123248
0.00129307
0.00138396
0.00158968
0.00210044
0.00311292
0.00424785
0.00416562
0.00177899
4.64168e-05
0.000278
0.000410088
0.000511645
0.000603224
0.000687296
0.000764387
0.000833912
0.000894972
0.000946572
0.000987725
0.00101924
0.00104071
0.00105264
0.00105534
0.00105221
0.0010439
0.00103067
0.00101516
0.000998957
0.000983561
0.000970469
0.000961082
0.000957005
0.000958633
0.000965757
0.000981556
0.00100708
0.00104183
0.00108488
0.00113357
0.00118419
0.00123654
0.00130897
0.00147566
0.00192503
0.0029145
0.00420328
0.00428369
0.00183881
4.56163e-05
0.000266906
0.000392458
0.000496593
0.000594269
0.000684714
0.000765777
0.000837518
0.000900047
0.000952957
0.000996087
0.00102916
0.00105179
0.00106459
0.00106785
0.00106472
0.00105628
0.00104245
0.00102595
0.00100837
0.0009912
0.000975984
0.000964105
0.000956759
0.00095554
0.000958953
0.000968963
0.000988814
0.0010179
0.00105582
0.00110084
0.00115011
0.00120129
0.00126827
0.00141868
0.00181929
0.002756
0.00415854
0.00433628
0.00190196
4.69695e-05
0.000258436
0.000382096
0.000492836
0.00059638
0.000690805
0.000775437
0.000849964
0.000913879
0.00096709
0.00100961
0.00104148
0.00106308
0.00107509
0.00107789
0.00107465
0.00106626
0.0010528
0.00103676
0.00101959
0.00100278
0.000987596
0.000975264
0.000967243
0.000965122
0.000967571
0.000975642
0.00099251
0.00101841
0.00105356
0.00109761
0.00114962
0.00120711
0.00127876
0.00142234
0.00179408
0.00269415
0.00413649
0.00434257
0.00197317
5.15705e-05
0.000259005
0.000383707
0.000499242
0.000608816
0.000708523
0.000796525
0.000872048
0.0009354
0.000987343
0.00102855
0.00105945
0.00108067
0.00109303
0.00109708
0.00109509
0.00108904
0.00107856
0.00106605
0.00105285
0.00104039
0.00102987
0.00102238
0.00102007
0.00102249
0.00103007
0.00104552
0.00106961
0.00110387
0.00115041
0.00121051
0.00128547
0.00137514
0.00149379
0.00166686
0.00203197
0.0028148
0.00414621
0.00426564
0.0020122
5.90768e-05
0.000268995
0.000403018
0.000528563
0.000645876
0.000750994
0.000842407
0.000919935
0.000984691
0.00103811
0.00108127
0.00111513
0.00114074
0.00115913
0.00117128
0.0011785
0.00118303
0.00118557
0.00118765
0.00119072
0.00119626
0.00120561
0.00121992
0.00124109
0.00126993
0.0013073
0.00135542
0.0014159
0.00149079
0.00158367
0.00169624
0.00183767
0.0020008
0.00221291
0.00245248
0.00283297
0.00343908
0.00437517
0.00423479
0.00202965
7.78297e-05
0.000316513
0.000482792
0.000635532
0.000775192
0.00090076
0.00101272
0.00111154
0.00119857
0.00127547
0.00134358
0.00140449
0.00145986
0.00151106
0.00155958
0.00160662
0.00165409
0.00170346
0.00175646
0.00181429
0.00187875
0.00195078
0.00203208
0.00212315
0.0022261
0.00234056
0.00246926
0.00261126
0.00277009
0.00294573
0.00313933
0.00336295
0.00359711
0.00388716
0.0041664
0.00451773
0.00480249
0.00486736
0.00423328
0.0020087
0.000127925
0.000494554
0.00083343
0.00116806
0.00144771
0.00169415
0.00192014
0.00212852
0.00232036
0.00249714
0.00266158
0.00281617
0.00296424
0.00310757
0.00324879
0.00338874
0.00352998
0.00367243
0.00381926
0.00396925
0.00412594
0.00428647
0.00445547
0.00462764
0.0048096
0.00499274
0.00518744
0.00537984
0.00558619
0.00578559
0.00599889
0.00620145
0.00640894
0.00662214
0.00672654
0.00661724
0.00622066
0.00524904
0.00401254
0.00185686
8.76366e-05
0.000158657
0.0002585
0.000362576
0.000461081
0.000550062
0.000630738
0.000704795
0.000773777
0.000838037
0.000898504
0.000955057
0.00100874
0.00105923
0.00110799
0.00115422
0.00119987
0.00124352
0.00128774
0.00133042
0.00137491
0.00141813
0.00146443
0.00150955
0.00155902
0.00160717
0.00166084
0.00171282
0.00177108
0.00182684
0.00188818
0.00194472
0.0020023
0.0020531
0.00209828
0.00215308
0.00216981
0.00214192
0.0020404
0.0016795
)
;

boundaryField
{
    movingWall
    {
        type            kqRWallFunction;
        value           nonuniform List<scalar> 
40
(
8.76366e-05
0.000158657
0.0002585
0.000362576
0.000461081
0.000550062
0.000630738
0.000704795
0.000773777
0.000838037
0.000898504
0.000955057
0.00100874
0.00105923
0.00110799
0.00115422
0.00119987
0.00124352
0.00128774
0.00133042
0.00137491
0.00141813
0.00146443
0.00150955
0.00155902
0.00160717
0.00166084
0.00171282
0.00177108
0.00182684
0.00188818
0.00194472
0.0020023
0.0020531
0.00209828
0.00215308
0.00216981
0.00214192
0.0020404
0.0016795
)
;
    }
    fixedWalls
    {
        type            kqRWallFunction;
        value           nonuniform List<scalar> 
120
(
1.22356e-06
5.99221e-06
1.51931e-05
2.92459e-05
5.0287e-05
7.72804e-05
0.000107925
0.00013998
0.000170635
0.000197971
0.000219562
0.000234311
0.000241933
0.000240686
0.000236067
0.000226268
0.000212309
0.000195918
0.00017832
0.00016327
0.00014897
0.000134987
0.00012141
0.000108519
9.6583e-05
8.5914e-05
7.66326e-05
6.87329e-05
6.21433e-05
5.67298e-05
5.23754e-05
4.8938e-05
4.64168e-05
4.56163e-05
4.69695e-05
5.15705e-05
5.90768e-05
7.78297e-05
0.000127925
8.76366e-05
1.52153e-06
4.51242e-06
5.97347e-06
5.6298e-06
6.08914e-06
8.59987e-06
1.54988e-05
3.0911e-05
7.64624e-05
0.000153032
0.000236632
0.000317331
0.000389534
0.000462315
0.000531739
0.000603081
0.000673344
0.000746142
0.000818876
0.000894128
0.000969733
0.00104733
0.00112515
0.00120408
0.00128263
0.00136093
0.00143753
0.00151229
0.00158399
0.00165255
0.00171731
0.00177899
0.00183881
0.00190196
0.00197317
0.0020122
0.00202965
0.0020087
0.00185686
0.0016795
1.22356e-06
5.58813e-06
1.17648e-05
1.72287e-05
2.23975e-05
2.73683e-05
3.17359e-05
3.50043e-05
3.7688e-05
3.97644e-05
4.30073e-05
4.96598e-05
6.10969e-05
7.81506e-05
9.67104e-05
0.000118476
0.000143657
0.000168424
0.000193248
0.000218877
0.000245664
0.000274519
0.000306231
0.000342183
0.00038487
0.000434073
0.000476256
0.000517911
0.000549883
0.000568167
0.000574728
0.000555082
0.000501936
0.000413985
0.000294161
0.000166699
7.24274e-05
2.71231e-05
7.96894e-06
1.52153e-06
)
;
    }
    frontAndBack
    {
        type            empty;
    }
}


// ************************************************************************* //
