/*--------------------------------*- C++ -*----------------------------------*\
  =========                 |
  \\      /  F ield         | OpenFOAM: The Open Source CFD Toolbox
   \\    /   O peration     | Website:  https://openfoam.org
    \\  /    A nd           | Version:  13
     \\/     M anipulation  |
\*---------------------------------------------------------------------------*/
FoamFile
{
    format      ascii;
    class       surfaceScalarField;
    location    "2.5";
    object      phi;
}
// * * * * * * * * * * * * * * * * * * * * * * * * * * * * * * * * * * * * * //

dimensions      [0 3 -1 0 0 0 0];

internalField   nonuniform List<scalar> 
3120
(
4.81282e-08
-4.81305e-08
1.06293e-07
-5.81649e-08
1.52834e-07
-4.65412e-08
1.86466e-07
-3.36321e-08
2.115e-07
-2.50345e-08
2.30034e-07
-1.85341e-08
2.40172e-07
-1.0138e-08
2.37757e-07
2.41561e-09
2.16429e-07
2.13281e-08
1.7486e-07
4.1568e-08
1.16729e-07
5.81315e-08
3.13609e-08
8.53679e-08
-1.02211e-07
1.33572e-07
-3.12045e-07
2.09833e-07
-6.22406e-07
3.10361e-07
-1.01516e-06
3.92752e-07
-1.42572e-06
4.10565e-07
-1.80578e-06
3.80053e-07
-2.13809e-06
3.32319e-07
-2.41513e-06
2.77034e-07
-2.63535e-06
2.20222e-07
-2.79833e-06
1.62983e-07
-2.90317e-06
1.04834e-07
-2.95122e-06
4.80471e-08
-2.93903e-06
-1.21903e-08
-2.86367e-06
-7.53551e-08
-2.72598e-06
-1.37689e-07
-2.51689e-06
-2.09092e-07
-2.23791e-06
-2.78975e-07
-1.88434e-06
-3.53575e-07
-1.46002e-06
-4.24318e-07
-9.80716e-07
-4.79305e-07
-4.80675e-07
-5.00041e-07
-1.54028e-08
-4.65273e-07
3.57848e-07
-3.73251e-07
5.21467e-07
-1.63619e-07
4.59173e-07
6.2294e-08
2.91417e-07
1.67756e-07
1.16594e-07
1.74823e-07
1.16594e-07
6.02105e-08
-1.08341e-07
1.16251e-07
-1.14205e-07
1.47482e-07
-7.7772e-08
1.59398e-07
-4.55484e-08
1.57397e-07
-2.30335e-08
1.4117e-07
-2.30746e-09
1.04623e-07
2.64092e-08
3.78839e-08
6.91543e-08
-7.10835e-08
1.30295e-07
-2.4473e-07
2.15214e-07
-5.14484e-07
3.27886e-07
-8.91413e-07
4.62296e-07
-1.3547e-06
5.96859e-07
-1.85183e-06
7.06965e-07
-2.30908e-06
7.67615e-07
-2.6855e-06
7.69165e-07
-3.00185e-06
7.26913e-07
-3.27154e-06
6.49748e-07
-3.49426e-06
5.55033e-07
-3.6689e-06
4.51674e-07
-3.7957e-06
3.47024e-07
-3.87545e-06
2.42739e-07
-3.90926e-06
1.38638e-07
-3.89413e-06
3.29181e-08
-3.8325e-06
-7.3815e-08
-3.72152e-06
-1.86343e-07
-3.55445e-06
-3.04751e-07
-3.33026e-06
-4.33291e-07
-3.04009e-06
-5.6914e-07
-2.68342e-06
-7.1025e-07
-2.25955e-06
-8.48189e-07
-1.773e-06
-9.65852e-07
-1.24164e-06
-1.0314e-06
-6.94695e-07
-1.01221e-06
-2.09145e-07
-8.58801e-07
1.576e-07
-5.30364e-07
2.93929e-07
-7.40347e-08
2.43437e-07
2.18248e-07
1.12924e-07
3.05335e-07
2.29519e-07
4.27054e-08
-1.51047e-07
5.88401e-08
-1.3034e-07
4.87303e-08
-6.76623e-08
1.92581e-08
-1.60762e-08
-3.08149e-08
2.70395e-08
-1.10582e-07
7.74595e-08
-2.34664e-07
1.50491e-07
-4.22482e-07
2.56972e-07
-6.94057e-07
4.0187e-07
-1.05694e-06
5.781e-07
-1.4915e-06
7.62447e-07
-1.95443e-06
9.2522e-07
-2.39796e-06
1.0404e-06
-2.78791e-06
1.09691e-06
-3.11394e-06
1.09365e-06
-3.37955e-06
1.03477e-06
-3.59237e-06
9.39734e-07
-3.76446e-06
8.21833e-07
-3.90104e-06
6.91616e-07
-4.00328e-06
5.53914e-07
-4.07357e-06
4.1731e-07
-4.11201e-06
2.81187e-07
-4.119e-06
1.45626e-07
-4.09156e-06
5.47725e-09
-4.03242e-06
-1.32956e-07
-3.93907e-06
-2.79695e-07
-3.80763e-06
-4.36189e-07
-3.63539e-06
-6.05532e-07
-3.41543e-06
-7.89102e-07
-3.14004e-06
-9.85639e-07
-2.80265e-06
-1.18558e-06
-2.39714e-06
-1.37136e-06
-1.92562e-06
-1.50292e-06
-1.40368e-06
-1.53416e-06
-8.59184e-07
-1.4033e-06
-3.54186e-07
-1.03536e-06
-1.50067e-08
-4.13214e-07
7.5382e-08
1.2786e-07
4.83798e-08
3.32337e-07
2.77898e-07
8.247e-09
-1.59294e-07
-2.30857e-08
-9.90072e-08
-7.99137e-08
-1.08343e-08
-1.58538e-07
6.25478e-08
-2.69436e-07
1.37938e-07
-4.28491e-07
2.36514e-07
-6.53011e-07
3.75011e-07
-9.55113e-07
5.59074e-07
-1.33078e-06
7.77534e-07
-1.75412e-06
1.00144e-06
-2.18766e-06
1.19599e-06
-2.59309e-06
1.33065e-06
-2.94074e-06
1.38805e-06
-3.22134e-06
1.37751e-06
-3.44314e-06
1.31545e-06
-3.61955e-06
1.21119e-06
-3.75915e-06
1.07933e-06
-3.86795e-06
9.30635e-07
-3.95233e-06
7.75996e-07
-4.01751e-06
6.19094e-07
-4.06164e-06
4.61431e-07
-4.08267e-06
3.02218e-07
-4.08011e-06
1.43071e-07
-4.05409e-06
-2.05419e-08
-4.00462e-06
-1.82428e-07
-3.93083e-06
-3.53491e-07
-3.83095e-06
-5.36065e-07
-3.70333e-06
-7.33149e-07
-3.54527e-06
-9.47162e-07
-3.35358e-06
-1.17733e-06
-3.12147e-06
-1.41769e-06
-2.83565e-06
-1.65719e-06
-2.47104e-06
-1.86752e-06
-2.01825e-06
-1.98695e-06
-1.48286e-06
-1.93868e-06
-8.85799e-07
-1.63243e-06
-3.33646e-07
-9.65367e-07
-6.83967e-08
-1.37389e-07
-7.92384e-11
2.64019e-07
2.77819e-07
-3.43631e-08
-1.2493e-07
-1.15731e-07
-1.76388e-08
-2.19876e-07
9.33104e-08
-3.52801e-07
1.95472e-07
-5.27904e-07
3.13041e-07
-7.60836e-07
4.69446e-07
-1.0613e-06
6.75474e-07
-1.42409e-06
9.21862e-07
-1.82423e-06
1.17768e-06
-2.22822e-06
1.40543e-06
-2.60072e-06
1.56849e-06
-2.91368e-06
1.64361e-06
-3.16441e-06
1.63878e-06
-3.36192e-06
1.57502e-06
-3.51472e-06
1.46825e-06
-3.63377e-06
1.33023e-06
-3.72735e-06
1.17292e-06
-3.80092e-06
1.0042e-06
-3.85302e-06
8.28098e-07
-3.88465e-06
6.50719e-07
-3.89632e-06
4.73103e-07
-3.89177e-06
2.97666e-07
-3.87261e-06
1.2391e-07
-3.84222e-06
-5.09324e-08
-3.79718e-06
-2.27469e-07
-3.73863e-06
-4.1204e-07
-3.66641e-06
-6.08286e-07
-3.5792e-06
-8.20352e-07
-3.47465e-06
-1.05172e-06
-3.34837e-06
-1.3036e-06
-3.19352e-06
-1.57254e-06
-3.00277e-06
-1.84793e-06
-2.76041e-06
-2.10988e-06
-2.43228e-06
-2.31508e-06
-1.98531e-06
-2.38566e-06
-1.40688e-06
-2.21085e-06
-7.07747e-07
-1.6645e-06
-1.6905e-07
-6.76086e-07
-7.20696e-09
1.02176e-07
2.70612e-07
-7.96205e-08
-4.531e-08
-2.0587e-07
1.0861e-07
-3.57154e-07
2.44594e-07
-5.40084e-07
3.78403e-07
-7.68517e-07
5.41475e-07
-1.05286e-06
7.53787e-07
-1.39163e-06
1.01425e-06
-1.76428e-06
1.29451e-06
-2.14127e-06
1.55468e-06
-2.48987e-06
1.75403e-06
-2.78197e-06
1.86059e-06
-3.01265e-06
1.8743e-06
-3.1928e-06
1.81893e-06
-3.33201e-06
1.71422e-06
-3.43723e-06
1.57346e-06
-3.51524e-06
1.40825e-06
-3.56931e-06
1.22699e-06
-3.60261e-06
1.0375e-06
-3.61862e-06
8.44112e-07
-3.62012e-06
6.5221e-07
-3.61006e-06
4.63043e-07
-3.58963e-06
2.77245e-07
-3.55963e-06
9.39076e-08
-3.52187e-06
-8.86927e-08
-3.47626e-06
-2.7308e-07
-3.42472e-06
-4.6358e-07
-3.36848e-06
-6.64529e-07
-3.30796e-06
-8.8087e-07
-3.24247e-06
-1.1172e-06
-3.16941e-06
-1.37666e-06
-3.08295e-06
-1.65901e-06
-2.97236e-06
-1.95852e-06
-2.8232e-06
-2.25904e-06
-2.61192e-06
-2.52636e-06
-2.2926e-06
-2.70499e-06
-1.81599e-06
-2.68746e-06
-1.14864e-06
-2.33186e-06
-3.8193e-07
-1.44279e-06
-2.78262e-08
-2.51927e-07
2.42786e-07
-1.19392e-07
7.40823e-08
-2.86738e-07
2.75956e-07
-4.76981e-07
4.34838e-07
-6.98503e-07
5.99925e-07
-9.62246e-07
8.05218e-07
-1.27207e-06
1.06361e-06
-1.61455e-06
1.35673e-06
-1.96463e-06
1.64458e-06
-2.29428e-06
1.88433e-06
-2.57505e-06
2.0348e-06
-2.79573e-06
2.08127e-06
-2.96522e-06
2.04379e-06
-3.09405e-06
1.94776e-06
-3.18886e-06
1.80903e-06
-3.2553e-06
1.63991e-06
-3.29815e-06
1.45109e-06
-3.32171e-06
1.25056e-06
-3.32935e-06
1.04513e-06
-3.3244e-06
8.39167e-07
-3.30854e-06
6.36353e-07
-3.28337e-06
4.37871e-07
-3.25014e-06
2.44011e-07
-3.21028e-06
5.4054e-08
-3.16542e-06
-1.33551e-07
-3.11713e-06
-3.21379e-07
-3.06757e-06
-5.13136e-07
-3.01882e-06
-7.1328e-07
-2.97257e-06
-9.27116e-07
-2.92959e-06
-1.16019e-06
-2.88881e-06
-1.41744e-06
-2.8462e-06
-1.70162e-06
-2.79381e-06
-2.01091e-06
-2.71777e-06
-2.33508e-06
-2.59442e-06
-2.64971e-06
-2.39122e-06
-2.90818e-06
-2.05025e-06
-3.02843e-06
-1.50999e-06
-2.87211e-06
-7.06815e-07
-2.24597e-06
-8.70465e-08
-8.71696e-07
1.55739e-07
-1.52528e-07
2.2661e-07
-3.50576e-07
4.74004e-07
-5.68691e-07
6.52952e-07
-8.1423e-07
8.45464e-07
-1.09455e-06
1.08554e-06
-1.40557e-06
1.37462e-06
-1.7281e-06
1.67926e-06
-2.03944e-06
1.95593e-06
-2.31331e-06
2.15819e-06
-2.53228e-06
2.25377e-06
-2.69881e-06
2.2478e-06
-2.82382e-06
2.16879e-06
-2.91498e-06
2.03892e-06
-2.97747e-06
1.87152e-06
-3.01642e-06
1.67886e-06
-3.03627e-06
1.47093e-06
-3.04085e-06
1.25514e-06
-3.03297e-06
1.03726e-06
-3.01493e-06
8.2112e-07
-2.98797e-06
6.09398e-07
-2.95325e-06
4.03149e-07
-2.91192e-06
2.02684e-07
-2.86543e-06
7.55609e-09
-2.81545e-06
-1.83523e-07
-2.76411e-06
-3.72726e-07
-2.71393e-06
-5.63314e-07
-2.66763e-06
-7.5958e-07
-2.62781e-06
-9.66936e-07
-2.59636e-06
-1.19164e-06
-2.5736e-06
-1.4402e-06
-2.55715e-06
-1.71807e-06
-2.54064e-06
-2.02742e-06
-2.5119e-06
-2.36382e-06
-2.45064e-06
-2.71097e-06
-2.32654e-06
-3.03228e-06
-2.09569e-06
-3.25929e-06
-1.69796e-06
-3.26984e-06
-1.04983e-06
-2.8941e-06
-2.33231e-07
-1.68829e-06
-7.74916e-08
-1.75627e-07
4.02238e-07
-3.93102e-07
6.91478e-07
-6.26745e-07
8.86596e-07
-8.81858e-07
1.10058e-06
-1.16191e-06
1.3656e-06
-1.45628e-06
1.66899e-06
-1.74676e-06
1.96974e-06
-2.01285e-06
2.22202e-06
-2.23418e-06
2.37952e-06
-2.40434e-06
2.42393e-06
-2.53126e-06
2.37472e-06
-2.62418e-06
2.26171e-06
-2.6886e-06
2.10335e-06
-2.72931e-06
1.91223e-06
-2.75097e-06
1.70052e-06
-2.75742e-06
1.47738e-06
-2.75169e-06
1.24941e-06
-2.73588e-06
1.02145e-06
-2.71144e-06
7.96684e-07
-2.67922e-06
5.77171e-07
-2.63999e-06
3.6392e-07
-2.59469e-06
1.57386e-07
-2.54458e-06
-4.25559e-08
-2.49134e-06
-2.36761e-07
-2.43717e-06
-4.26894e-07
-2.38482e-06
-6.15667e-07
-2.33742e-06
-8.06979e-07
-2.29824e-06
-1.00611e-06
-2.27016e-06
-1.21973e-06
-2.25483e-06
-1.45553e-06
-2.25156e-06
-1.72134e-06
-2.25585e-06
-2.02313e-06
-2.25771e-06
-2.36196e-06
-2.23917e-06
-2.72951e-06
-2.17213e-06
-3.09933e-06
-2.01687e-06
-3.41455e-06
-1.738e-06
-3.54871e-06
-1.26293e-06
-3.36917e-06
-4.35088e-07
-2.51613e-06
-5.1258e-07
-1.87287e-07
5.89525e-07
-4.13072e-07
9.17263e-07
-6.50622e-07
1.12415e-06
-9.02914e-07
1.35287e-06
-1.16891e-06
1.63159e-06
-1.43618e-06
1.93626e-06
-1.68974e-06
2.2233e-06
-1.91135e-06
2.44364e-06
-2.08846e-06
2.55662e-06
-2.22181e-06
2.55728e-06
-2.32016e-06
2.47307e-06
-2.39042e-06
2.33196e-06
-2.43704e-06
2.14997e-06
-2.46451e-06
1.9397e-06
-2.47682e-06
1.71283e-06
-2.47706e-06
1.47762e-06
-2.46744e-06
1.23979e-06
-2.44932e-06
1.00333e-06
-2.42347e-06
7.70834e-07
-2.39031e-06
5.44018e-07
-2.35032e-06
3.23927e-07
-2.30417e-06
1.11234e-07
-2.25292e-06
-9.38018e-08
-2.19816e-06
-2.91524e-07
-2.14203e-06
-4.83022e-07
-2.08731e-06
-6.70389e-07
-2.03729e-06
-8.56998e-07
-1.9956e-06
-1.0478e-06
-1.96577e-06
-1.24956e-06
-1.9505e-06
-1.4708e-06
-1.95057e-06
-1.72126e-06
-1.96336e-06
-2.01034e-06
-1.98119e-06
-2.34412e-06
-1.98931e-06
-2.72139e-06
-1.96266e-06
-3.12598e-06
-1.86472e-06
-3.51249e-06
-1.65834e-06
-3.75509e-06
-1.29398e-06
-3.73354e-06
-6.43598e-07
-3.16651e-06
-1.15618e-06
-1.878e-07
7.77326e-07
-4.11706e-07
1.14117e-06
-6.4325e-07
1.35569e-06
-8.82581e-07
1.5922e-06
-1.12532e-06
1.87434e-06
-1.36076e-06
2.17169e-06
-1.57619e-06
2.43873e-06
-1.75801e-06
2.62546e-06
-1.89965e-06
2.69826e-06
-2.00558e-06
2.66322e-06
-2.08346e-06
2.55095e-06
-2.13829e-06
2.38679e-06
-2.17401e-06
2.18569e-06
-2.19459e-06
1.96029e-06
-2.20324e-06
1.72147e-06
-2.20221e-06
1.4766e-06
-2.19296e-06
1.23053e-06
-2.17617e-06
9.86541e-07
-2.15211e-06
7.46779e-07
-2.12088e-06
5.12784e-07
-2.08264e-06
2.85689e-07
-2.03783e-06
6.64241e-08
-1.98734e-06
-1.44289e-07
-1.93264e-06
-3.46225e-07
-1.87581e-06
-5.39854e-07
-1.81956e-06
-7.26639e-07
-1.76717e-06
-9.0939e-07
-1.72234e-06
-1.09264e-06
-1.68891e-06
-1.28299e-06
-1.67028e-06
-1.48943e-06
-1.6684e-06
-1.72314e-06
-1.68227e-06
-1.99647e-06
-1.7062e-06
-2.32019e-06
-1.7284e-06
-2.69919e-06
-1.72776e-06
-3.12662e-06
-1.6701e-06
-3.57015e-06
-1.50213e-06
-3.92306e-06
-1.21255e-06
-4.02311e-06
-7.32658e-07
-3.64641e-06
-1.88884e-06
-1.78632e-07
9.55957e-07
-3.91954e-07
1.35449e-06
-6.09476e-07
1.57321e-06
-8.28349e-07
1.81107e-06
-1.04282e-06
2.08881e-06
-1.24449e-06
2.37336e-06
-1.42389e-06
2.61812e-06
-1.57066e-06
2.77223e-06
-1.68393e-06
2.81153e-06
-1.76947e-06
2.74876e-06
-1.83267e-06
2.61416e-06
-1.8774e-06
2.43152e-06
-1.90711e-06
2.2154e-06
-1.92506e-06
1.97823e-06
-1.93361e-06
1.73002e-06
-1.93428e-06
1.47727e-06
-1.92785e-06
1.2241e-06
-1.91451e-06
9.73204e-07
-1.89414e-06
7.26402e-07
-1.8665e-06
4.85146e-07
-1.83155e-06
2.50735e-07
-1.78953e-06
2.44078e-08
-1.74121e-06
-1.9261e-07
-1.68797e-06
-3.99463e-07
-1.63185e-06
-5.95975e-07
-1.57548e-06
-7.83007e-07
-1.52202e-06
-9.62849e-07
-1.47505e-06
-1.13961e-06
-1.4384e-06
-1.31964e-06
-1.41578e-06
-1.51204e-06
-1.40996e-06
-1.72896e-06
-1.42133e-06
-1.9851e-06
-1.44601e-06
-2.29551e-06
-1.47428e-06
-2.67092e-06
-1.48861e-06
-3.11229e-06
-1.46065e-06
-3.59812e-06
-1.33222e-06
-4.05149e-06
-1.09688e-06
-4.25845e-06
-6.73864e-07
-4.06942e-06
-2.5627e-06
-1.61973e-07
1.11793e-06
-3.57635e-07
1.55015e-06
-5.54934e-07
1.77051e-06
-7.48571e-07
2.00471e-06
-9.32425e-07
2.27266e-06
-1.10016e-06
2.5411e-06
-1.24623e-06
2.76419e-06
-1.36219e-06
2.8882e-06
-1.45285e-06
2.90219e-06
-1.52242e-06
2.81833e-06
-1.57485e-06
2.66659e-06
-1.61303e-06
2.4697e-06
-1.63977e-06
2.24214e-06
-1.65752e-06
1.99598e-06
-1.66788e-06
1.74038e-06
-1.6717e-06
1.48109e-06
-1.66925e-06
1.22165e-06
-1.66035e-06
9.64295e-07
-1.64454e-06
7.10599e-07
-1.62138e-06
4.6198e-07
-1.5906e-06
2.19957e-07
-1.55234e-06
-1.38467e-08
-1.50729e-06
-2.37662e-07
-1.45677e-06
-4.49983e-07
-1.4028e-06
-6.49944e-07
-1.34797e-06
-8.37837e-07
-1.29531e-06
-1.01551e-06
-1.24816e-06
-1.18676e-06
-1.21011e-06
-1.35769e-06
-1.18483e-06
-1.53733e-06
-1.17551e-06
-1.73828e-06
-1.18366e-06
-1.97696e-06
-1.20703e-06
-2.27213e-06
-1.23766e-06
-2.64029e-06
-1.26074e-06
-3.08922e-06
-1.25143e-06
-3.60742e-06
-1.16129e-06
-4.14163e-06
-9.52078e-07
-4.46766e-06
-5.94576e-07
-4.42692e-06
-3.15728e-06
-1.38994e-07
1.25692e-06
-3.11856e-07
1.72301e-06
-4.85121e-07
1.94378e-06
-6.51012e-07
2.1706e-06
-8.03478e-07
2.42513e-06
-9.38356e-07
2.67598e-06
-1.05304e-06
2.87887e-06
-1.14193e-06
2.97709e-06
-1.21348e-06
2.97375e-06
-1.26997e-06
2.87482e-06
-1.31401e-06
2.71063e-06
-1.34764e-06
2.50333e-06
-1.37294e-06
2.26743e-06
-1.39152e-06
2.01456e-06
-1.40432e-06
1.75317e-06
-1.41166e-06
1.48843e-06
-1.41341e-06
1.22341e-06
-1.4091e-06
9.59991e-07
-1.39811e-06
6.99605e-07
-1.37979e-06
4.43665e-07
-1.35374e-06
1.93902e-07
-1.32e-06
-4.75873e-08
-1.27917e-06
-2.78491e-07
-1.23257e-06
-4.96583e-07
-1.18222e-06
-7.00298e-07
-1.13068e-06
-8.89369e-07
-1.08089e-06
-1.06531e-06
-1.03593e-06
-1.23172e-06
-9.99038e-07
-1.39458e-06
-9.73567e-07
-1.5628e-06
-9.62772e-07
-1.74907e-06
-9.68872e-07
-1.97086e-06
-9.91106e-07
-2.2499e-06
-1.02319e-06
-2.6082e-06
-1.05228e-06
-3.06013e-06
-1.0562e-06
-3.6035e-06
-1.00092e-06
-4.19691e-06
-8.17001e-07
-4.65158e-06
-5.11661e-07
-4.73226e-06
-3.66894e-06
-1.12362e-07
1.36929e-06
-2.58481e-07
1.86913e-06
-4.05009e-07
2.0903e-06
-5.41826e-07
2.30742e-06
-6.63127e-07
2.54643e-06
-7.66776e-07
2.77962e-06
-8.51652e-07
2.96375e-06
-9.16769e-07
3.0422e-06
-9.7094e-07
3.02792e-06
-1.01566e-06
2.91954e-06
-1.05235e-06
2.74731e-06
-1.08216e-06
2.53314e-06
-1.10633e-06
2.2916e-06
-1.12573e-06
2.03397e-06
-1.14071e-06
1.76815e-06
-1.15116e-06
1.49889e-06
-1.15668e-06
1.22892e-06
-1.15663e-06
9.59936e-07
-1.15025e-06
6.93227e-07
-1.13684e-06
4.30254e-07
-1.11588e-06
1.7294e-07
-1.0873e-06
-7.6166e-08
-1.05166e-06
-3.14132e-07
-1.01024e-06
-5.38004e-07
-9.65052e-07
-7.45481e-07
-9.18672e-07
-9.35749e-07
-8.73921e-07
-1.11006e-06
-8.33652e-07
-1.27198e-06
-8.00698e-07
-1.42754e-06
-7.77974e-07
-1.58552e-06
-7.68507e-07
-1.75854e-06
-7.74878e-07
-1.96449e-06
-7.97487e-07
-2.22729e-06
-8.31696e-07
-2.57399e-06
-8.65922e-07
-3.02591e-06
-8.80183e-07
-3.58924e-06
-8.46508e-07
-4.23059e-06
-6.98256e-07
-4.79983e-06
-4.41669e-07
-4.98885e-06
-4.11061e-06
-8.33119e-08
1.4526e-06
-2.00736e-07
1.98656e-06
-3.19204e-07
2.20877e-06
-4.26825e-07
2.41504e-06
-5.17946e-07
2.63755e-06
-5.91654e-07
2.85333e-06
-6.47998e-07
3.02009e-06
-6.91305e-07
3.08551e-06
-7.28668e-07
3.06528e-06
-7.61833e-07
2.95271e-06
-7.91149e-07
2.77663e-06
-8.16833e-07
2.55882e-06
-8.39324e-07
2.3141e-06
-8.58802e-07
2.05345e-06
-8.75079e-07
1.78443e-06
-8.87733e-07
1.51154e-06
-8.96165e-07
1.23736e-06
-8.99651e-07
9.63422e-07
-8.97414e-07
6.9099e-07
-8.8873e-07
4.2157e-07
-8.73068e-07
1.57278e-07
-8.50275e-07
-9.89583e-08
-8.20838e-07
-3.4357e-07
-7.85981e-07
-5.7286e-07
-7.47679e-07
-7.83783e-07
-7.08447e-07
-9.74982e-07
-6.70991e-07
-1.14751e-06
-6.37917e-07
-1.30506e-06
-6.11658e-07
-1.4538e-06
-5.94647e-07
-1.60253e-06
-5.89531e-07
-1.76365e-06
-5.98969e-07
-1.95505e-06
-6.2427e-07
-2.20199e-06
-6.62491e-07
-2.53577e-06
-7.03528e-07
-2.98487e-06
-7.29632e-07
-3.56314e-06
-7.15929e-07
-4.24429e-06
-5.98629e-07
-4.91713e-06
-3.75345e-07
-5.21213e-06
-4.48595e-06
-5.25554e-08
1.50515e-06
-1.40948e-07
2.07495e-06
-2.31172e-07
2.29899e-06
-3.10314e-07
2.49418e-06
-3.72594e-07
2.69983e-06
-4.17461e-07
2.8982e-06
-4.47112e-07
3.04974e-06
-4.69657e-07
3.10806e-06
-4.89691e-07
3.08531e-06
-5.10453e-07
2.97347e-06
-5.31459e-07
2.79763e-06
-5.51963e-07
2.57933e-06
-5.7158e-07
2.33371e-06
-5.89847e-07
2.07172e-06
-6.06141e-07
1.80072e-06
-6.19768e-07
1.52517e-06
-6.3e-07
1.24759e-06
-6.36094e-07
9.69516e-07
-6.3732e-07
6.92216e-07
-6.33021e-07
4.17271e-07
-6.22723e-07
1.4698e-07
-6.06275e-07
-1.15406e-07
-5.84091e-07
-3.65754e-07
-5.57303e-07
-5.99648e-07
-5.27762e-07
-8.13324e-07
-4.97828e-07
-1.00492e-06
-4.70001e-07
-1.17534e-06
-4.46592e-07
-1.32847e-06
-4.2964e-07
-1.47075e-06
-4.211e-07
-1.61107e-06
-4.2318e-07
-1.76158e-06
-4.38417e-07
-1.93981e-06
-4.68748e-07
-2.17166e-06
-5.12755e-07
-2.49176e-06
-5.6182e-07
-2.9358e-06
-5.9941e-07
-3.52555e-06
-6.0005e-07
-4.24365e-06
-5.1809e-07
-4.99909e-06
-3.29385e-07
-5.40084e-06
-4.81534e-06
-2.25224e-08
1.52768e-06
-8.11895e-08
2.13362e-06
-1.43778e-07
2.36158e-06
-1.95714e-07
2.54612e-06
-2.30774e-07
2.73489e-06
-2.48393e-07
2.91582e-06
-2.52987e-07
3.05433e-06
-2.54924e-07
3.10999e-06
-2.5693e-07
3.08732e-06
-2.63759e-07
2.9803e-06
-2.74734e-07
2.80861e-06
-2.88339e-07
2.59293e-06
-3.03392e-07
2.34877e-06
-3.18816e-07
2.08714e-06
-3.33604e-07
1.81551e-06
-3.46799e-07
1.53836e-06
-3.57587e-07
1.25838e-06
-3.65245e-07
9.77174e-07
-3.69145e-07
6.96116e-07
-3.68774e-07
4.169e-07
-3.63795e-07
1.42e-07
-3.54151e-07
-1.25051e-07
-3.40229e-07
-3.79676e-07
-3.23043e-07
-6.16833e-07
-3.04225e-07
-8.32143e-07
-2.85829e-07
-1.02331e-06
-2.69998e-07
-1.19117e-06
-2.58654e-07
-1.33981e-06
-2.53413e-07
-1.47599e-06
-2.55783e-07
-1.6087e-06
-2.67563e-07
-1.7498e-06
-2.91095e-07
-1.91628e-06
-3.28696e-07
-2.13406e-06
-3.80205e-07
-2.44025e-06
-4.38664e-07
-2.87734e-06
-4.88741e-07
-3.47547e-06
-5.04501e-07
-4.22789e-06
-4.49081e-07
-5.05451e-06
-2.8908e-07
-5.56084e-06
-5.10442e-06
8.59925e-09
1.51908e-06
-2.29679e-08
2.16518e-06
-5.9228e-08
2.39784e-06
-8.57511e-08
2.57264e-06
-9.57028e-08
2.74484e-06
-8.84562e-08
2.90857e-06
-6.94759e-08
3.03535e-06
-5.01838e-08
3.0907e-06
-3.3376e-08
3.07051e-06
-2.48119e-08
2.97173e-06
-2.34918e-08
2.80729e-06
-2.7833e-08
2.59727e-06
-3.6139e-08
2.35707e-06
-4.68073e-08
2.09781e-06
-5.83473e-08
1.82705e-06
-6.9621e-08
1.54964e-06
-7.96974e-08
1.26845e-06
-8.7882e-08
9.85358e-07
-9.3675e-08
7.01909e-07
-9.67552e-08
4.1998e-07
-9.69962e-08
1.42241e-07
-9.45105e-08
-1.27536e-07
-8.97453e-08
-3.84441e-07
-8.36012e-08
-6.22977e-07
-7.74011e-08
-8.38343e-07
-7.27248e-08
-1.02799e-06
-7.1155e-08
-1.19274e-06
-7.40695e-08
-1.3369e-06
-8.2615e-08
-1.46744e-06
-9.7904e-08
-1.59341e-06
-1.21396e-07
-1.7263e-06
-1.55228e-07
-1.88245e-06
-2.01951e-07
-2.08733e-06
-2.624e-07
-2.3798e-06
-3.31199e-07
-2.80854e-06
-3.94102e-07
-3.41257e-06
-4.26575e-07
-4.19542e-06
-3.94645e-07
-5.08644e-06
-2.59919e-07
-5.69557e-06
-5.36433e-06
3.46835e-08
1.48439e-06
3.14508e-08
2.16842e-06
2.01736e-08
2.40912e-06
1.72319e-08
2.57558e-06
3.00173e-08
2.73206e-06
5.95888e-08
2.879e-06
1.00704e-07
2.99424e-06
1.42168e-07
3.04924e-06
1.79085e-07
3.03359e-06
2.05369e-07
2.94545e-06
2.21116e-07
2.79154e-06
2.28003e-07
2.59038e-06
2.28353e-07
2.35672e-06
2.24305e-07
2.10186e-06
2.17616e-07
1.83374e-06
2.09683e-07
1.55757e-06
2.01496e-07
1.27664e-06
1.93704e-07
9.9315e-07
1.86665e-07
7.08948e-07
1.80483e-07
4.26163e-07
1.75032e-07
1.47692e-07
1.69976e-07
-1.2248e-07
1.64763e-07
-3.79228e-07
1.58611e-07
-6.16825e-07
1.50601e-07
-8.30333e-07
1.39784e-07
-1.01717e-06
1.25287e-07
-1.17825e-06
1.06382e-07
-1.31799e-06
8.24275e-08
-1.44349e-06
5.26921e-08
-1.56368e-06
1.60111e-08
-1.68962e-06
-2.95871e-08
-1.83685e-06
-8.68153e-08
-2.0301e-06
-1.57348e-07
-2.30927e-06
-2.37284e-07
-2.72861e-06
-3.13298e-07
-3.33656e-06
-3.61955e-07
-4.14676e-06
-3.50297e-07
-5.0981e-06
-2.35774e-07
-5.81009e-06
-5.60011e-06
5.94154e-08
1.42498e-06
8.12845e-08
2.14655e-06
9.28707e-08
2.39753e-06
1.11097e-07
2.55736e-06
1.44168e-07
2.69899e-06
1.93587e-07
2.82958e-06
2.54668e-07
2.93316e-06
3.17432e-07
2.98647e-06
3.74487e-07
2.97654e-06
4.20471e-07
2.89947e-06
4.53181e-07
2.75883e-06
4.74141e-07
2.56943e-06
4.85814e-07
2.34505e-06
4.90634e-07
2.09704e-06
4.90681e-07
1.83369e-06
4.87557e-07
1.56069e-06
4.82363e-07
1.28183e-06
4.75738e-07
9.99775e-07
4.67923e-07
7.16763e-07
4.58819e-07
4.35267e-07
4.4805e-07
1.58462e-07
4.35057e-07
-1.09488e-07
4.19195e-07
-3.63366e-07
3.9982e-07
-5.9745e-07
3.7647e-07
-8.06983e-07
3.48911e-07
-9.89612e-07
3.171e-07
-1.14643e-06
2.81061e-07
-1.28195e-06
2.40706e-07
-1.40314e-06
1.95641e-07
-1.51861e-06
1.44915e-07
-1.6389e-06
8.66567e-08
-1.77859e-06
1.80354e-08
-1.96148e-06
-6.33149e-08
-2.22792e-06
-1.54881e-07
-2.63704e-06
-2.44177e-07
-3.24726e-06
-3.08701e-07
-4.08224e-06
-3.16757e-07
-5.09005e-06
-2.18441e-07
-5.90841e-06
-5.81855e-06
8.11477e-08
1.34383e-06
1.25626e-07
2.10207e-06
1.57827e-07
2.36533e-06
1.94855e-07
2.52033e-06
2.4542e-07
2.64842e-06
3.11823e-07
2.76318e-06
3.90368e-07
2.85461e-06
4.72438e-07
2.9044e-06
5.4979e-07
2.89919e-06
6.16322e-07
2.83294e-06
6.68115e-07
2.70704e-06
7.05641e-07
2.5319e-06
7.31099e-07
2.31959e-06
7.47037e-07
2.0811e-06
7.55714e-07
1.82501e-06
7.58888e-07
1.55752e-06
7.57758e-07
1.28296e-06
7.52976e-07
1.00456e-06
7.44714e-07
7.25025e-07
7.32716e-07
4.47264e-07
7.16412e-07
1.74766e-07
6.95064e-07
-8.81393e-08
6.68043e-07
-3.36346e-07
6.34903e-07
-5.64309e-07
5.95685e-07
-7.67765e-07
5.50905e-07
-9.44832e-07
5.01359e-07
-1.09689e-06
4.47827e-07
-1.22842e-06
3.9079e-07
-1.3461e-06
3.30187e-07
-1.45801e-06
2.65194e-07
-1.5739e-06
1.93985e-07
-1.70739e-06
1.13624e-07
-1.88112e-06
2.10967e-08
-2.13539e-06
-8.22819e-08
-2.53366e-06
-1.84683e-07
-3.14486e-06
-2.63865e-07
-4.00306e-06
-2.90457e-07
-5.06345e-06
-2.05019e-07
-5.99384e-06
-6.02357e-06
9.82343e-08
1.2456e-06
1.63149e-07
2.03715e-06
2.13815e-07
2.31467e-06
2.67255e-07
2.46689e-06
3.32679e-07
2.583e-06
4.13222e-07
2.68264e-06
5.06425e-07
2.76141e-06
6.052e-07
2.80563e-06
7.01428e-07
2.80296e-06
7.87968e-07
2.7464e-06
8.59898e-07
2.63511e-06
9.16078e-07
2.47572e-06
9.57682e-07
2.27799e-06
9.86932e-07
2.05185e-06
1.00611e-06
1.80584e-06
1.01705e-06
1.54657e-06
1.02104e-06
1.27898e-06
1.01875e-06
1.00685e-06
1.01032e-06
7.33458e-07
9.95397e-07
4.62187e-07
9.73336e-07
1.96826e-07
9.43273e-07
-5.80761e-08
9.04865e-07
-2.97937e-07
8.57917e-07
-5.17362e-07
8.03045e-07
-7.12893e-07
7.41481e-07
-8.83268e-07
6.74767e-07
-1.03017e-06
6.04339e-07
-1.15799e-06
5.31165e-07
-1.27293e-06
4.55485e-07
-1.38233e-06
3.76604e-07
-1.49502e-06
2.92691e-07
-1.62347e-06
2.00684e-07
-1.78912e-06
9.70675e-08
-2.03178e-06
-1.80832e-08
-2.41851e-06
-1.33536e-07
-3.0294e-06
-2.26635e-07
-3.90996e-06
-2.68964e-07
-5.02112e-06
-1.9673e-07
-6.06608e-06
-6.2203e-06
1.10144e-07
1.13545e-06
1.92797e-07
1.9545e-06
2.59849e-07
2.24762e-06
3.27529e-07
2.39921e-06
4.05387e-07
2.50514e-06
4.97349e-07
2.59067e-06
6.02227e-07
2.65653e-06
7.14478e-07
2.69338e-06
8.26577e-07
2.69086e-06
9.31278e-07
2.64169e-06
1.02281e-06
2.54358e-06
1.0984e-06
2.40013e-06
1.15781e-06
2.21857e-06
1.20234e-06
2.00733e-06
1.23382e-06
1.77436e-06
1.25401e-06
1.52638e-06
1.26419e-06
1.2688e-06
1.26505e-06
1.00598e-06
1.25676e-06
7.41748e-07
1.23899e-06
4.79963e-07
1.21117e-06
2.24645e-07
1.17241e-06
-1.93193e-08
1.12296e-06
-2.48484e-07
1.0629e-06
-4.57304e-07
9.93473e-07
-6.43465e-07
9.16526e-07
-8.0632e-07
8.34175e-07
-9.47824e-07
7.48347e-07
-1.07216e-06
6.60387e-07
-1.18497e-06
5.70789e-07
-1.29273e-06
4.78966e-07
-1.4032e-06
3.83091e-07
-1.5276e-06
2.8003e-07
-1.68605e-06
1.6584e-07
-1.91759e-06
3.95064e-08
-2.29218e-06
-8.88246e-08
-2.90107e-06
-1.95853e-07
-3.80293e-06
-2.52015e-07
-4.96496e-06
-1.92491e-07
-6.1256e-06
-6.41279e-06
1.16481e-07
1.01897e-06
2.13908e-07
1.85708e-06
2.95201e-07
2.16632e-06
3.75156e-07
2.31925e-06
4.63297e-07
2.417e-06
5.64183e-07
2.48979e-06
6.77761e-07
2.54295e-06
7.99965e-07
2.57118e-06
9.2435e-07
2.56647e-06
1.04408e-06
2.52197e-06
1.15293e-06
2.43473e-06
1.24681e-06
2.30624e-06
1.32404e-06
2.14133e-06
1.38469e-06
1.94668e-06
1.42974e-06
1.72931e-06
1.46046e-06
1.49567e-06
1.4779e-06
1.25135e-06
1.48273e-06
1.00115e-06
1.47516e-06
7.49321e-07
1.45499e-06
5.00132e-07
1.42177e-06
2.57872e-07
1.37558e-06
2.68693e-08
1.31609e-06
-1.89e-07
1.24457e-06
-3.8578e-07
1.16266e-06
-5.61558e-07
1.07268e-06
-7.16334e-07
9.77092e-07
-8.5224e-07
8.78139e-07
-9.73209e-07
7.77427e-07
-1.08425e-06
6.7562e-07
-1.19092e-06
5.72244e-07
-1.29982e-06
4.65581e-07
-1.42093e-06
3.5242e-07
-1.57289e-06
2.28443e-07
-1.79361e-06
9.16283e-08
-2.15536e-06
-4.90588e-08
-2.76039e-06
-1.69454e-07
-3.68253e-06
-2.37373e-07
-4.89704e-06
-1.91403e-07
-6.17157e-06
-6.60419e-06
1.17083e-07
9.01888e-07
2.2599e-07
1.74817e-06
3.19408e-07
2.0729e-06
4.09888e-07
2.22878e-06
5.06478e-07
2.32041e-06
6.14152e-07
2.38211e-06
7.33789e-07
2.42332e-06
8.6271e-07
2.44225e-06
9.95808e-07
2.43338e-06
1.12659e-06
2.39118e-06
1.24901e-06
2.31231e-06
1.35834e-06
2.19691e-06
1.45163e-06
2.04805e-06
1.52761e-06
1.8707e-06
1.58621e-06
1.67071e-06
1.62794e-06
1.45394e-06
1.65342e-06
1.22587e-06
1.66311e-06
9.91451e-07
1.65724e-06
7.5519e-07
1.63584e-06
5.21533e-07
1.59883e-06
2.9488e-07
1.54649e-06
7.92164e-08
1.47938e-06
-1.21891e-07
1.39908e-06
-3.05485e-07
1.30771e-06
-4.70188e-07
1.20783e-06
-6.16454e-07
1.10211e-06
-7.46513e-07
9.92914e-07
-8.64017e-07
8.81949e-07
-9.73288e-07
7.69979e-07
-1.07895e-06
6.56766e-07
-1.18661e-06
5.40763e-07
-1.30493e-06
4.18702e-07
-1.45083e-06
2.85891e-07
-1.6608e-06
1.39344e-07
-2.00882e-06
-1.3104e-08
-2.60794e-06
-1.46665e-07
-3.54897e-06
-2.25531e-07
-4.81818e-06
-1.91345e-07
-6.20576e-06
-6.79554e-06
1.12214e-07
7.89674e-07
2.28912e-07
1.63147e-06
3.32291e-07
1.96953e-06
4.317e-07
2.12937e-06
5.35297e-07
2.21681e-06
6.48145e-07
2.26927e-06
7.71808e-07
2.29966e-06
9.04724e-07
2.30934e-06
1.04297e-06
2.29513e-06
1.18092e-06
2.25324e-06
1.31278e-06
2.18045e-06
1.43362e-06
2.07608e-06
1.53972e-06
1.94194e-06
1.62876e-06
1.78165e-06
1.69958e-06
1.59989e-06
1.75179e-06
1.40173e-06
1.78545e-06
1.19222e-06
1.8007e-06
9.76198e-07
1.79771e-06
7.58181e-07
1.7767e-06
5.42545e-07
1.738e-06
3.33585e-07
1.68222e-06
1.34996e-07
1.61053e-06
-5.02104e-08
1.52491e-06
-2.19863e-07
1.42769e-06
-3.72969e-07
1.32156e-06
-5.10316e-07
1.20919e-06
-6.34148e-07
1.09289e-06
-7.47717e-07
9.74309e-07
-8.54704e-07
8.54436e-07
-9.5908e-07
7.33325e-07
-1.0655e-06
6.09595e-07
-1.1812e-06
4.80036e-07
-1.32127e-06
3.39657e-07
-1.52042e-06
1.84386e-07
-1.85355e-06
2.07348e-08
-2.44429e-06
-1.25802e-07
-3.40243e-06
-2.14789e-07
-4.72919e-06
-1.93597e-07
-6.22695e-06
-6.98913e-06
1.02624e-07
6.87051e-07
2.23047e-07
1.51105e-06
3.33974e-07
1.8586e-06
4.40789e-07
2.02255e-06
5.50298e-07
2.1073e-06
6.67224e-07
2.15234e-06
7.93527e-07
2.17335e-06
9.28423e-07
2.17444e-06
1.06892e-06
2.15463e-06
1.21061e-06
2.11155e-06
1.3481e-06
2.04296e-06
1.47643e-06
1.94775e-06
1.59153e-06
1.82684e-06
1.6904e-06
1.68278e-06
1.77106e-06
1.51923e-06
1.83233e-06
1.34046e-06
1.87363e-06
1.15091e-06
1.89478e-06
9.55054e-07
1.8958e-06
7.57163e-07
1.87701e-06
5.61336e-07
1.83908e-06
3.71514e-07
1.783e-06
1.91071e-07
1.7103e-06
2.24908e-08
1.62305e-06
-1.32611e-07
1.52381e-06
-2.73725e-07
1.41519e-06
-4.01698e-07
1.29963e-06
-5.1859e-07
1.17924e-06
-6.27324e-07
1.05575e-06
-7.31218e-07
9.30322e-07
-8.33652e-07
8.03191e-07
-9.38369e-07
6.73272e-07
-1.05128e-06
5.37602e-07
-1.1856e-06
3.91062e-07
-1.37388e-06
2.28485e-07
-1.69097e-06
5.46686e-08
-2.27047e-06
-1.04974e-07
-3.24279e-06
-2.04988e-07
-4.62917e-06
-1.96341e-07
-6.2356e-06
-7.18548e-06
8.94046e-08
5.97646e-07
2.09187e-07
1.39126e-06
3.24923e-07
1.74286e-06
4.37572e-07
1.9099e-06
5.52106e-07
1.99277e-06
6.72462e-07
2.03198e-06
8.00636e-07
2.04518e-06
9.36356e-07
2.03872e-06
1.07736e-06
2.01363e-06
1.22013e-06
1.96878e-06
1.3601e-06
1.90299e-06
1.49247e-06
1.81538e-06
1.61305e-06
1.70626e-06
1.71847e-06
1.57736e-06
1.80623e-06
1.43147e-06
1.87463e-06
1.27206e-06
1.92258e-06
1.10296e-06
1.94956e-06
9.28075e-07
1.95547e-06
7.51256e-07
1.94062e-06
5.76184e-07
1.90587e-06
4.06259e-07
1.85251e-06
2.44437e-07
1.78216e-06
9.28408e-08
1.69689e-06
-4.73436e-08
1.59918e-06
-1.76011e-07
1.49142e-06
-2.93947e-07
1.37579e-06
-4.02957e-07
1.25426e-06
-5.05789e-07
1.12848e-06
-6.05441e-07
9.9961e-07
-7.04781e-07
8.6811e-07
-8.06869e-07
7.33327e-07
-9.16499e-07
5.9274e-07
-1.04502e-06
4.41344e-07
-1.22249e-06
2.72901e-07
-1.52253e-06
8.99412e-08
-2.08751e-06
-8.26032e-08
-3.07025e-06
-1.95451e-07
-4.51633e-06
-1.99695e-07
-6.23135e-06
-7.38517e-06
7.37435e-08
5.23903e-07
1.88395e-07
1.27661e-06
3.05866e-07
1.62539e-06
4.22653e-07
1.79312e-06
5.41439e-07
1.87398e-06
6.64953e-07
1.90847e-06
7.94837e-07
1.91529e-06
9.31025e-07
1.90254e-06
1.07177e-06
1.87289e-06
1.21405e-06
1.82649e-06
1.35422e-06
1.76281e-06
1.48804e-06
1.68157e-06
1.61135e-06
1.58295e-06
1.72064e-06
1.46807e-06
1.8131e-06
1.33901e-06
1.88673e-06
1.19843e-06
1.94019e-06
1.0495e-06
1.9727e-06
8.95559e-07
1.98407e-06
7.39896e-07
1.97454e-06
5.85714e-07
1.94502e-06
4.35779e-07
1.89686e-06
2.92595e-07
1.83171e-06
1.57986e-07
1.75147e-06
3.29021e-08
1.65823e-06
-8.27786e-08
1.55418e-06
-1.89896e-07
1.44127e-06
-2.90047e-07
1.3212e-06
-3.85715e-07
1.19536e-06
-4.79607e-07
1.06487e-06
-5.74285e-07
9.3038e-07
-6.72381e-07
7.91758e-07
-7.77877e-07
6.47182e-07
-9.0044e-07
4.92112e-07
-1.06742e-06