/*--------------------------------*- C++ -*----------------------------------*\
  =========                 |
  \\      /  F ield         | OpenFOAM: The Open Source CFD Toolbox
   \\    /   O peration     | Website:  https://openfoam.org
    \\  /    A nd           | Version:  13
     \\/     M anipulation  |
\*---------------------------------------------------------------------------*/
FoamFile
{
    format      ascii;
    class       volScalarField;
    location    "300";
    object      k;
}
// * * * * * * * * * * * * * * * * * * * * * * * * * * * * * * * * * * * * * //

dimensions      [0 2 -2 0 0 0 0];

internalField   nonuniform List<scalar> 
12225
(
0.598938
1.89833
2.40118
3.39463
3.6412
2.67054
1.88447
2.74693
2.10697
1.69824
2.33671
2.76943
2.0918
1.71425
1.51455
1.37271
2.02793
2.55214
0.384451
0.294684
0.223257
0.355177
0.347413
0.361154
0.375157
0.429273
0.427182
0.426343
0.415471
0.471916
0.502203
0.538012
0.554743
0.606954
0.646609
0.697738
0.357829
0.277751
0.150577
0.0831236
0.0538017
0.0437934
0.0461173
0.0500733
0.0429141
0.0445294
0.0422886
0.0448901
0.0537155
0.0599661
0.0677906
0.0754692
0.0853621
0.0973132
0.28238
0.259844
0.173502
0.106749
0.0683854
0.0482904
0.0392443
0.0340503
0.0311535
0.0283199
0.0263086
0.0249141
0.0244958
0.0239687
0.0240336
0.0240436
0.0244358
0.0249106
0.277842
0.262035
0.238839
0.213102
0.184588
0.154137
0.132017
0.115351
0.105784
0.0980678
0.0929782
0.0878267
0.0842276
0.0793194
0.0764991
0.0719942
0.0701798
0.0661946
0.300742
0.290215
0.297637
0.286819
0.266901
0.244469
0.222736
0.203992
0.191315
0.181012
0.174988
0.169172
0.165515
0.159855
0.156249
0.150216
0.147981
0.142322
0.338891
0.333828
0.340252
0.334108
0.316684
0.301551
0.288903
0.277684
0.269538
0.26181
0.256599
0.249927
0.245625
0.239815
0.236371
0.231459
0.229209
0.224819
0.364735
0.35898
0.359401
0.352871
0.344098
0.334916
0.328083
0.321398
0.316612
0.310912
0.307161
0.302249
0.298949
0.294394
0.291692
0.287728
0.285797
0.281994
0.371832
0.368359
0.366589
0.362316
0.357469
0.352146
0.34771
0.343151
0.339646
0.335769
0.33278
0.329272
0.326697
0.323421
0.321262
0.318243
0.316661
0.313751
0.37345
0.370984
0.368765
0.365807
0.362703
0.359375
0.356341
0.353182
0.350484
0.347625
0.345225
0.342596
0.340461
0.33803
0.336197
0.333956
0.332477
0.330355
0.373794
0.371481
0.369319
0.366976
0.36464
0.362231
0.359943
0.35759
0.355443
0.353239
0.351257
0.349202
0.347395
0.345493
0.343902
0.34216
0.340809
0.33917
0.373833
0.371548
0.369414
0.367284
0.365234
0.363187
0.361231
0.359269
0.357421
0.355574
0.35385
0.352119
0.350532
0.34893
0.347509
0.34604
0.344802
0.343429
0.373834
0.371555
0.369418
0.367359
0.365408
0.363514
0.361712
0.359949
0.358273
0.356629
0.35507
0.353539
0.352103
0.350691
0.349392
0.3481
0.346942
0.345747
0.37383
0.371555
0.369409
0.367365
0.365433
0.363587
0.361837
0.360157
0.358558
0.357018
0.355551
0.354134
0.352791
0.351493
0.350271
0.349087
0.347983
0.346901
0.373827
0.371553
0.369401
0.367359
0.365424
0.363585
0.361841
0.360179
0.358599
0.357091
0.355655
0.354282
0.352974
0.351723
0.350532
0.349395
0.348312
0.347277
0.373826
0.371551
0.369396
0.367352
0.365413
0.363572
0.361824
0.360162
0.358582
0.357077
0.355644
0.354279
0.352977
0.351736
0.350551
0.349422
0.348344
0.347316
0.373825
0.37155
0.369393
0.367346
0.365405
0.363562
0.36181
0.360146
0.358562
0.357055
0.35562
0.354252
0.352949
0.351706
0.35052
0.34939
0.34831
0.34728
0.373825
0.371549
0.369391
0.367343
0.3654
0.363555
0.361802
0.360135
0.35855
0.35704
0.355602
0.354233
0.352927
0.351682
0.350494
0.349361
0.34828
0.347248
0.373825
0.371549
0.369391
0.367343
0.365399
0.363554
0.3618
0.360133
0.358546
0.357036
0.355597
0.354226
0.352919
0.351672
0.350483
0.349349
0.348266
0.347233
0.373826
0.37155
0.369392
0.367346
0.365404
0.36356
0.361807
0.36014
0.358554
0.357044
0.355605
0.354234
0.352927
0.351681
0.350492
0.349358
0.348275
0.347242
0.37383
0.371551
0.369392
0.367347
0.365407
0.363563
0.361808
0.360137
0.358546
0.35703
0.355587
0.354214
0.352907
0.351663
0.350477
0.349348
0.34827
0.347244
0.373874
0.371521
0.369324
0.367269
0.365327
0.363461
0.361671
0.35995
0.358302
0.356739
0.35526
0.353869
0.352556
0.351327
0.350158
0.349069
0.348014
0.347038
0.374143
0.371049
0.368431
0.366374
0.364389
0.362412
0.360476
0.358516
0.356614
0.354839
0.353191
0.351708
0.350361
0.349175
0.348108
0.347141
0.346142
0.345357
0.375334
0.36659
0.36105
0.360448
0.358545
0.356455
0.354305
0.351635
0.348962
0.346636
0.344306
0.342399
0.340706
0.339241
0.339176
0.3357
0.334313
0.333023
0.364208
0.344521
0.331131
0.33722
0.322808
0.327541
0.327931
0.324248
0.319941
0.316769
0.311202
0.308293
0.301514
0.298935
0.296724
0.297584
0.301785
0.300695
0.40109
0.271012
0.23468
0.245061
0.212447
0.231899
0.246208
0.243077
0.23995
0.230996
0.228742
0.219036
0.224694
0.220654
0.220099
0.228612
0.246943
0.26553
0.373523
0.190088
0.109984
0.0923884
0.0640704
0.0587773
0.0585206
0.0583178
0.0589842
0.0588871
0.0708637
0.084729
0.10132
0.133947
0.155827
0.174648
0.199452
0.224589
0.180084
0.0741942
0.0357951
0.0228673
0.0192764
0.0171565
0.0184323
0.0279946
0.0389459
0.0416827
0.0476905
0.0513991
0.054995
0.0677784
0.0878178
0.114903
0.145735
0.179951
0.067118
0.0255688
0.0388685
0.0539734
0.108915
0.146074
0.156242
0.168026
0.213688
0.228877
0.255645
0.288036
0.324992
0.346038
0.37335
0.419516
0.474439
0.526989
0.918372
1.24367
1.45289
1.56393
1.60376
1.59584
1.56517
1.52364
1.47532
1.42712
1.38068
1.33728
1.2994
1.26536
1.23728
1.21544
1.19876
1.18651
1.57945e-08
3.91728e-07
2.01068e-06
7.97444e-06
2.70691e-05
8.45702e-05
0.000222413
0.000444077
0.000722386
0.00101273
0.00127408
0.00147627
0.00161274
0.00166733
0.001654
0.00157986
0.00146889
0.00128986
0.00109653
0.000940326
0.000795773
0.000656076
0.000520245
0.000392479
0.000275925
0.000178257
0.000106057
5.92887e-05
3.25581e-05
1.84126e-05
1.11525e-05
7.50131e-06
6.1432e-06
8.21452e-06
1.53388e-05
2.75451e-05
0.000133062
0.000274481
0.000579845
0.000877801
0.0009859
0.000927873
0.000780372
0.000687498
0.000706729
0.000844783
0.00106137
0.00186145
0.00347636
0.00899225
0.0291365
0.0681057
0.100728
0.119077
0.130588
0.153433
0.15655
0.151421
0.1626
0.150887
0.165549
0.181499
0.15852
0.177922
0.184425
0.195009
0.203338
0.212468
0.220799
0.229311
0.237435
0.245577
0.253496
0.261376
0.269114
0.276793
0.284366
0.291873
0.299291
0.30664
0.313905
0.321097
0.328203
0.335231
0.342166
0.349013
0.35576
0.362407
0.368942
0.375361
0.381653
0.38781
0.393822
0.399678
0.405369
0.410886
0.416223
0.421383
0.426382
0.431255
0.436077
0.440708
0.44521
0.449552
0.453744
0.457776
0.461645
0.465346
0.468875
0.472228
0.4754
0.478388
0.481185
0.483791
0.486201
0.488412
0.490421
0.492228
0.493829
0.495225
0.496418
0.497413
0.498218
0.498844
0.499296
0.499515
0.499471
0.499473
0.49899
0.498244
0.496286
0.495493
0.493389
0.491839
0.489847
0.487703
0.485355
0.482793
0.479999
0.476996
0.473894
0.470459
0.467036
0.463282
0.459495
0.455523
0.451433
0.447231
0.442964
0.438555
0.434168
0.429624
0.425118
0.420487
0.415866
0.41122
0.406611
0.402053
0.397555
0.393138
0.388802
0.384571
0.380451
0.376448
0.372575
0.368848
0.365276
0.361868
0.358628
0.35556
0.352672
0.34995
0.347359
0.344884
0.34248
0.340024
0.337447
0.33447
0.33079
0.317077
8.40824e-08
2.38643e-06
1.62143e-05
6.97778e-05
0.000257784
0.000725982
0.00169359
0.00307535
0.00468892
0.00633686
0.00783945
0.00907171
0.00997827
0.0105669
0.0108266
0.0107772
0.0106536
0.0103304
0.00983752
0.00913889
0.00824395
0.00719042
0.00601247
0.00480467
0.00357356
0.00251574
0.00170459
0.00112052
0.000724856
0.000466483
0.000306748
0.000214498
0.000171068
0.000158796
0.000241866
0.000317604
0.00154674
0.00307372
0.0061048
0.00888517
0.0105391
0.0108343
0.0108178
0.0111657
0.0131943
0.0174828
0.0243087
0.0368443
0.0576967
0.0849448
0.111709
0.13738
0.156159
0.171301
0.185676
0.204199
0.219468
0.237797
0.258195
0.277192
0.298444
0.319003
0.339678
0.361322
0.381829
0.40234
0.422253
0.441941
0.461265
0.480361
0.499197
0.51787
0.536363
0.554735
0.572985
0.591142
0.609209
0.627199
0.645113
0.662955
0.680723
0.698416
0.716029
0.733557
0.75099
0.768323
0.785543
0.802641
0.819605
0.836423
0.853078
0.869553
0.885829
0.901884
0.917698
0.933244
0.948493
0.963413
0.977969
0.992122
1.00584
1.01935
1.03258
1.04554
1.05821
1.07059
1.08265
1.0944
1.10581
1.11686
1.12756
1.13787
1.14779
1.15731
1.16641
1.17507
1.18328
1.19104
1.19832
1.20511
1.2114
1.21718
1.22243
1.22715
1.23133
1.23495
1.23804
1.24064
1.24268
1.24397
1.24438
1.24444
1.2442
1.2437
1.24253
1.24081
1.23851
1.23553
1.232
1.22794
1.22318
1.21799
1.21216
1.20596
1.19917
1.19199
1.18433
1.17635
1.16791
1.15928
1.15022
1.14101
1.13146
1.12172
1.1118
1.10179
1.09174
1.08168
1.07166
1.0617
1.05185
1.04214
1.0326
1.02324
1.01412
1.00524
0.996643
0.988356
0.980403
0.972789
0.965536
0.958625
0.952038
0.945742
0.93968
0.933724
0.927692
0.92128
0.912844
0.890398
2.18356e-07
6.51889e-06
4.9394e-05
0.000226582
0.000771829
0.00196481
0.00401464
0.00640748
0.0088071
0.0109873
0.0128064
0.0142108
0.0152031
0.0158248
0.0161239
0.0161258
0.0159947
0.0157141
0.0152632
0.014682
0.0139761
0.0131346
0.0121513
0.0110083
0.00975904
0.00832708
0.00678772
0.00527099
0.00392051
0.00278596
0.00196205
0.00144108
0.00115396
0.000923756
0.001382
0.00210043
0.00691096
0.0137462
0.021596
0.0275783
0.0312821
0.0332866
0.0369412
0.0461314
0.0627336
0.081048
0.101017
0.123645
0.146547
0.168522
0.191741
0.214246
0.23723
0.262307
0.291018
0.321426
0.351891
0.383041
0.413962
0.444755
0.475361
0.50526
0.534459
0.562924
0.590596
0.617633
0.644073
0.670009
0.695518
0.720666
0.745515
0.770116
0.794509
0.818727
0.842793
0.866725
0.890533
0.914227
0.937807
0.961275
0.984628
1.00786
1.03097
1.05394
1.07676
1.09943
1.12194
1.14427
1.16641
1.18835
1.21007
1.23156
1.25281
1.2738
1.29452
1.31496
1.33511
1.35495
1.37449
1.39371
1.41263
1.43121
1.44943
1.46728
1.48474
1.50179
1.51841
1.53458
1.5503
1.56553
1.58027
1.59449
1.60819
1.62133
1.63391
1.6459
1.6573
1.66808
1.67822
1.68771
1.69654
1.70468
1.71212
1.71883
1.72481
1.73003
1.73449
1.73818
1.74109
1.74305
1.74422
1.74471
1.74488
1.74421
1.74244
1.73986
1.73646
1.7322
1.72716
1.72138
1.71471
1.70742
1.6993
1.69062
1.68123
1.67126
1.66072
1.64968
1.6381
1.62617
1.61376
1.60109
1.58805
1.5748
1.56134
1.54775
1.53409
1.52041
1.50676
1.49319
1.47975
1.46648
1.45342
1.4406
1.42807
1.41586
1.404
1.39253
1.38149
1.37089
1.36076
1.3511
1.34192
1.33319
1.32484
1.3168
1.30883
1.30069
1.29061
1.27049
7.81609e-07
2.3525e-05
0.000182742
0.000750768
0.00219503
0.00518248
0.00876593
0.0122536
0.0152843
0.0177025
0.0194849
0.0206702
0.0213328
0.0215875
0.0215361
0.0213136
0.0208569
0.0202757
0.0196041
0.0188594
0.0180478
0.0171689
0.0162179
0.0151726
0.0140252
0.0127548
0.0113663
0.0098915
0.00839925
0.00700904
0.00570437
0.00471811
0.00376113
0.00401157
0.00627422
0.0132348
0.0268519
0.040066
0.0510611
0.060041
0.0690196
0.080241
0.0943875
0.110774
0.127435
0.145162
0.165051
0.1879
0.212104
0.238606
0.267281
0.297527
0.329906
0.36421
0.400063
0.436387
0.472734
0.508955
0.544761
0.580134
0.614921
0.648942
0.682242
0.714817
0.746735
0.77806
0.808867
0.839227
0.869205
0.898864
0.928256
0.957426
0.986408
1.01523
1.04391
1.07247
1.1009
1.12922
1.15742
1.18549
1.21344
1.24125
1.26891
1.29642
1.32375
1.35091
1.37787
1.40462
1.43115
1.45744
1.48349
1.50928
1.53479
1.56001
1.58494
1.60955
1.63384
1.65779
1.6814
1.70463
1.72747
1.7499
1.77189
1.79341
1.81446
1.83499
1.855
1.87446
1.89335
1.91165
1.92935
1.94642
1.96283
1.97859
1.99365
2.00801
2.02164
2.03453
2.04666
2.058
2.06855
2.07826
2.08714
2.09516
2.10229
2.10851
2.11381
2.11818
2.12161
2.12404
2.12545
2.12608
2.12618
2.12501
2.12277
2.11956
2.11537
2.1102
2.1041
2.09708
2.08911
2.08031
2.07063
2.0602
2.04899
2.03708
2.02449
2.0113
1.99751
1.98324
1.96846
1.95331
1.93777
1.92195
1.9059
1.88967
1.87334
1.85696
1.8406
1.82432
1.80816
1.79218
1.77643
1.76094
1.74576
1.73093
1.71649
1.70249
1.68895
1.67592
1.66342
1.65146
1.64005
1.62919
1.61883
1.60893
1.59928
1.58971
1.57864
1.56075
2.56395e-06
7.67476e-05
0.000572156
0.00220787
0.00607694
0.0113717
0.0163308
0.0203433
0.02328
0.025221
0.0263418
0.0268357
0.0268325
0.0266097
0.0260953
0.0254064
0.0246203
0.0237748
0.0228964
0.0219984
0.0210831
0.0201458
0.0191785
0.0181628
0.0170823
0.0159156
0.0146491
0.0132994
0.011922
0.0105819
0.00921029
0.00836686
0.00930739
0.0142511
0.0268689
0.0455102
0.0637535
0.0793796
0.0922549
0.103733
0.115236
0.127702
0.141439
0.156565
0.174423
0.195817
0.220469
0.248075
0.278342
0.310812
0.345079
0.380799
0.417847
0.455817
0.494333
0.533004
0.57166
0.610171
0.648409
0.686305
0.723763
0.760696
0.797108
0.832989
0.868382
0.903328
0.937876
0.972075
1.00598
1.03963
1.07307
1.10633
1.13945
1.17244
1.20532
1.2381
1.27077
1.30334
1.3358
1.36813
1.40034
1.4324
1.4643
1.49603
1.52757
1.55891
1.59004
1.62093
1.65157
1.68195
1.71205
1.74185
1.77134
1.80051
1.82933
1.8578
1.88588
1.91357
1.94085
1.96768
1.99404
2.01991
2.04526
2.07007
2.09431
2.11795
2.14098
2.16336
2.18507
2.2061
2.22642
2.246
2.26483
2.28288
2.30014
2.31658
2.33218
2.34693
2.3608
2.37377
2.38581
2.39692
2.40707
2.41623
2.4244
2.43153
2.43762
2.44264
2.4466
2.44947
2.45116
2.45189
2.45187
2.45052
2.44799
2.44435
2.4396
2.43376
2.42684
2.41888
2.40989
2.39992
2.38898
2.37716
2.36447
2.35098
2.33672
2.32175
2.30612
2.2899
2.27313
2.25588
2.23821
2.2202
2.20189
2.18337
2.1647
2.14596
2.1272
2.10848
2.08989
2.07146
2.05324
2.0353
2.01767
2.00039
1.98352
1.9671
1.95117
1.93576
1.92092
1.90666
1.893
1.87994
1.8675
1.85563
1.8442
1.83305
1.82086
1.8038
7.95249e-06
0.000232697
0.00166877
0.00595258
0.0135447
0.0203452
0.0253469
0.0286088
0.0305005
0.0314162
0.0316557
0.0314781
0.0309683
0.0301937
0.0292811
0.0282874
0.0272583
0.0262243
0.0252049
0.0242075
0.0232304
0.0222654
0.0212993
0.020311
0.0192759
0.0181696
0.0169556
0.0156229
0.014254
0.0135248
0.0141045
0.0175454
0.0271852
0.0449733
0.0668857
0.0876513
0.105162
0.118803
0.129557
0.139383
0.149925
0.162148
0.177845
0.197271
0.220412
0.24726
0.277301
0.309785
0.344115
0.379829
0.416653
0.454385
0.492883
0.531948
0.571407
0.611115
0.650977
0.690905
0.730806
0.770599
0.8102
0.849547
0.88861
0.927373
0.965842
1.00403
1.04197
1.07968
1.1172
1.15456
1.1918
1.22893
1.26598
1.30295
1.33986
1.37671
1.41349
1.45018
1.48679
1.52329
1.55966
1.59589
1.63196
1.66784
1.70353
1.73899
1.77422
1.80919
1.84388
1.87828
1.91236
1.94611
1.97951
2.01254
2.04517
2.07739
2.10917
2.14049
2.17133
2.20165
2.23143
2.26064
2.28926
2.31726
2.3446
2.37127
2.39722
2.42244
2.4469
2.47057
2.49343
2.51546
2.53662
2.55691
2.57629
2.59474
2.61226
2.6288
2.64435
2.6589
2.67242
2.68488
2.69628
2.70658
2.71576
2.72381
2.7307
2.73642
2.74095
2.7443
2.74635
2.74724
2.74722
2.74581
2.74311
2.73918
2.73402
2.72764
2.72008
2.71135
2.70148
2.69052
2.6785
2.66547
2.65148
2.63658
2.62081
2.60425
2.58693
2.56894
2.55031
2.53113
2.51147
2.49138
2.47095
2.45025
2.42935
2.40833
2.38724
2.36617
2.34519
2.32434
2.3037
2.2833
2.2632
2.24345
2.2241
2.20519
2.18677
2.16889
2.15158
2.13488
2.11881
2.1034
2.08866
2.07461
2.06114
2.04813
2.03444
2.01707
2.45498e-05
0.00067911
0.00444922
0.013829
0.0231469
0.0294139
0.0331368
0.0351522
0.036049
0.0361803
0.0358542
0.035108
0.0340994
0.0329422
0.0317106
0.0304597
0.0292298
0.0280456
0.0269199
0.0258536
0.0248404
0.0238668
0.0229116
0.0219483
0.0209373
0.0199154
0.0190633
0.018642
0.0192114
0.0222119
0.0297979
0.0444278
0.0649812
0.0868907
0.107508
0.124573
0.137308
0.146963
0.155558
0.165174
0.177988
0.194718
0.215464
0.240154
0.268392
0.299545
0.33278
0.367462
0.403236
0.4399
0.47734
0.515476
0.554252
0.593598
0.633452
0.673751
0.714435
0.755429
0.796645
0.838007
0.879443
0.920889
0.962298
1.00364
1.04489
1.08605
1.12712
1.16812
1.20906
1.24997
1.29085
1.33173
1.37261
1.4135
1.45439
1.49528
1.53615
1.57697
1.61774
1.65843
1.699
1.73943
1.7797
1.81979
1.85966
1.89929
1.93866
1.97775
2.01654
2.05499
2.0931
2.13083
2.16816
2.20506
2.24153
2.27752
2.31301
2.34798
2.38239
2.41622
2.44945
2.48203
2.51394
2.54514
2.57561
2.60532
2.63422
2.6623
2.68951
2.71584
2.74126
2.76573
2.78924
2.81176
2.83326
2.85374
2.87316
2.8915
2.90874
2.92487
2.93985
2.95368
2.96632
2.97777
2.98799
2.99698
3.00469
3.01113
3.01628
3.02013
3.0226
3.02373
3.02378
3.02239
3.01961
3.01546
3.00998
3.00316
2.99505
2.98565
2.975
2.96314
2.95012
2.93597
2.92076
2.90453
2.88734
2.86925
2.85032
2.8306
2.81018
2.78912
2.76749
2.74537
2.72284
2.69997
2.67684
2.65353
2.6301
2.60665
2.58323
2.55992
2.53676
2.51382
2.49116
2.46881
2.44685
2.42531
2.40426
2.38373
2.36378
2.34445
2.32576
2.30777
2.29051
2.274
2.2582
2.24299
2.22739
2.20888
7.13326e-05
0.00183054
0.0103749
0.0234911
0.0320484
0.0368891
0.0394461
0.0405786
0.0407627
0.040353
0.0394389
0.0382096
0.0367986
0.0353009
0.0337912
0.0323228
0.0309324
0.0296397
0.0284528
0.0273702
0.0263867
0.0254995
0.0247077
0.0240059
0.0235363
0.0235265
0.0244318
0.0272408
0.0334392
0.0454253
0.062615
0.0824308
0.102783
0.121508
0.136945
0.148635
0.157544
0.166116
0.176492
0.190233
0.207923
0.229675
0.255153
0.283836
0.315
0.347982
0.38218
0.417269
0.453115
0.489672
0.526928
0.564884
0.60354
0.642894
0.682932
0.723621
0.764908
0.806734
0.849034
0.891736
0.934768
0.978066
1.02157
1.06525
1.10906
1.15298
1.19701
1.24114
1.28537
1.32971
1.37417
1.41875
1.46344
1.50824
1.55313
1.59809
1.6431
1.68813
1.73314
1.77809
1.82296
1.86769
1.91227
1.95665
2.0008
2.0447
2.08832
2.13162
2.17459
2.21719
2.2594
2.30118
2.34252
2.38337
2.42373
2.46355
2.50282
2.54149
2.57955
2.61696
2.65368
2.68969
2.72494
2.75941
2.79305
2.82584
2.85774
2.88871
2.91872
2.94774
2.97573
3.00267
3.02854
3.0533
3.07694
3.09944
3.12076
3.1409
3.15982
3.17751
3.19395
3.20912
3.22301
3.23559
3.24684
3.25675
3.26529
3.27245
3.27822
3.28258
3.28549
3.28688
3.28706
3.28572
3.28288
3.27857
3.27281
3.2656
3.25698
3.24696
3.23558
3.22287
3.20889
3.19368
3.17729
3.15977
3.14119
3.1216
3.10106
3.07965
3.05744
3.0345
3.01091
2.98674
2.96209
2.93703
2.91164
2.88599
2.86018
2.83427
2.80834
2.78246
2.75669
2.73109
2.70573
2.68065
2.65592
2.6316
2.60773
2.58438
2.56159
2.53942
2.51791
2.49711
2.47707
2.45784
2.4394
2.42168
2.40376
2.38349
0.000181577
0.0042811
0.019209
0.0324648
0.0397232
0.0434764
0.0452125
0.0456633
0.0452811
0.0442859
0.042872
0.0412125
0.0394324
0.0376322
0.0358905
0.0342625
0.0327864
0.0314835
0.0303654
0.0294381
0.028699
0.0282349
0.0281236
0.028491
0.0297397
0.0325479
0.0381918
0.0478198
0.0614238
0.077639
0.0954226
0.113164
0.129392
0.143065
0.15413
0.163573
0.173104
0.184612
0.199314
0.217819
0.24004
0.265606
0.293976
0.324539
0.356666
0.389863
0.423835
0.458478
0.49379
0.529804
0.566564
0.604113
0.642489
0.681718
0.7218
0.762718
0.804446
0.84694
0.890145
0.933998
0.978434
1.02339
1.06881
1.11464
1.16084
1.20738
1.25423
1.30139
1.34884
1.39657
1.44458
1.49285
1.54138
1.59013
1.63909
1.68821
1.73746
1.78679
1.83616
1.8855
1.93478
1.98395
2.03295
2.08176
2.13033
2.17861
2.22659
2.27422
2.32147
2.36831
2.41471
2.46064
2.50606
2.55095
2.59526
2.63899
2.68209
2.72453
2.76628
2.80732
2.84759
2.88706
2.9257
2.96346
3.00031
3.03621
3.07112
3.105
3.13781
3.16952
3.20009
3.22949
3.25771
3.2847
3.31045
3.33493
3.35813
3.38002
3.40057
3.41978
3.43763
3.4541
3.46917
3.48283
3.49506
3.50584
3.51515
3.52299
3.52933
3.53417
3.53747
3.53915
3.53944
3.53815
3.53525
3.53077
3.52473
3.51713
3.50801
3.49739
3.48529
3.47176
3.45684
3.44058
3.42303
3.40424
3.38427
3.36319
3.34106
3.31795
3.29395
3.26912
3.24356
3.21734
3.19054
3.16326
3.13556
3.10754
3.07927
3.05084
3.02231
2.99378
2.96529
2.93691
2.90872
2.88077
2.85313
2.82586
2.79903
2.77268
2.74688
2.72168
2.69715
2.67333
2.6503
2.6281
2.60675
2.58621
2.56564
2.54311
0.000401056
0.00863658
0.0284792
0.0406604
0.0467633
0.0497208
0.0508357
0.050745
0.0498368
0.048343
0.0464899
0.0444474
0.0423578
0.0403341
0.0384641
0.036811
0.0354243
0.0343415
0.0335842
0.0332337
0.0332434
0.0338582
0.0354215
0.0384679
0.0436229
0.0514335
0.0619561
0.07481
0.0893849
0.104718
0.119799
0.133687
0.145926
0.156698
0.166782
0.177467
0.190117
0.205757
0.224756
0.247038
0.272219
0.299816
0.329304
0.360185
0.392043
0.42462
0.457817
0.491644
0.526161
0.561441
0.597562
0.634594
0.67259
0.711582
0.751593
0.792629
0.834676
0.877707
0.92168
0.966545
1.01224
1.05872
1.10592
1.15378
1.20227
1.25134
1.30096
1.35111
1.40176
1.45289
1.50449
1.55652
1.60895
1.66175
1.71487
1.76826
1.82187
1.87563
1.92948
1.98335
2.03718
2.0909
2.14447
2.19783
2.25093
2.30372
2.35616
2.40821
2.45985
2.51102
2.5617
2.61184
2.66141
2.71037
2.7587
2.80637
2.85333
2.89957
2.94504
2.98971
3.03354
3.07648
3.1185
3.15954
3.19958
3.23856
3.27645
3.3132
3.34877
3.38312
3.41622
3.44803
3.47852
3.50767
3.53545
3.56184
3.58682
3.61037
3.63246
3.65309
3.67224
3.6899
3.70605
3.72067
3.73377
3.74532
3.75531
3.76372
3.77054
3.77577
3.77938
3.7813
3.78166
3.78037
3.77736
3.77268
3.76632
3.75832
3.74868
3.73744
3.72462
3.71027
3.69441
3.6771
3.65839
3.63833
3.61698
3.59441
3.57068
3.54588
3.52008
3.49337
3.46582
3.43753
3.40857
3.37903
3.349
3.31855
3.28778
3.25675
3.22556
3.19428
3.16298
3.13173
3.10059
3.06966
3.03898
3.00864
2.97869
2.94919
2.92022
2.89184
2.8641
2.83709
2.81086
2.78549
2.76101
2.73741
2.71391
2.68876
0.000768998
0.0150406
0.0369348
0.048193
0.0536292
0.0560542
0.0566806
0.0561255
0.0547575
0.0528551
0.0506476
0.0483293
0.0460652
0.0439881
0.0422067
0.0408064
0.0398834
0.039524
0.0396397
0.0404505
0.0421727
0.0451035
0.0495631
0.0558251
0.0640163
0.0740501
0.0855984
0.0981717
0.11114
0.123861
0.135902
0.147142
0.157813
0.168546
0.180289
0.193996
0.210329
0.229542
0.251526
0.275962
0.302438
0.330541
0.359884
0.390151
0.421119
0.452688
0.48486
0.517701
0.5513
0.585758
0.621169
0.657612
0.69515
0.733836
0.773709
0.814788
0.857079
0.900569
0.945231
0.991031
1.03792
1.08586
1.13478
1.18464
1.2354
1.287
1.3394
1.39258
1.44649
1.5011
1.55637
1.61226
1.66872
1.7257
1.78311
1.84091
1.89901
1.95733
2.0158
2.07431
2.13281
2.1912
2.24943
2.30745
2.36518
2.42257
2.47956
2.53612
2.59219
2.64774
2.70273
2.75711
2.81084
2.86389
2.91622
2.9678
3.0186
3.06859
3.11774
3.16599
3.21331
3.25964
3.30495
3.34919
3.39231
3.43427
3.47503
3.51454
3.55275
3.58961
3.6251
3.65917
3.69179
3.72295
3.7526
3.78074
3.80734
3.83238
3.85584
3.87772
3.89799
3.91666
3.9337
3.94913
3.96292
3.97506
3.98555
3.99439
4.00154
4.00702
4.0108
4.01285
4.0132
4.01182
4.00862
4.00365
3.99692
3.98846
3.97827
3.96638
3.95282
3.93763
3.92083
3.90247
3.88261
3.86129
3.83856
3.81451
3.7892
3.76272
3.73514
3.70654
3.67702
3.64666
3.61553
3.58374
3.55136
3.51847
3.48516
3.45152
3.41761
3.38353
3.34935
3.31514
3.281
3.24699
3.21319
3.17967
3.14651
3.11376
3.0815
3.0498
3.01872
2.98835
2.95877
2.93006
2.90227
2.87542
2.84878
2.82082
0.0012647
0.0221801
0.0447573
0.0555561
0.060615
0.0626503
0.0629328
0.0620227
0.0603153
0.0581253
0.0557165
0.0533143
0.0511126
0.0492753
0.0479371
0.0472896
0.0472141
0.0478979
0.0494476
0.0520026
0.0557218
0.0607479
0.0671587
0.0749319
0.0839438
0.0939544
0.104612
0.115552
0.126474
0.137235
0.147871
0.158627
0.170002
0.182644
0.197142
0.213895
0.23303
0.254436
0.277854
0.302968
0.329466
0.357066
0.385537
0.414711
0.444495
0.474879
0.505917
0.537702
0.570345
0.603955
0.63863
0.674463
0.711534
0.749908
0.789638
0.83076
0.873295
0.917247
0.962609
1.00936
1.05747
1.10691
1.15761
1.20954
1.26265
1.31687
1.37218
1.4285
1.48581
1.54404
1.60316
1.66309
1.72375
1.78508
1.84696
1.90931
1.97205
2.03507
2.09827
2.16153
2.22477
2.28791
2.35087
2.4136
2.47601
2.53803
2.59959
2.66065
2.72114
2.78103
2.84027
2.89883
2.95664
3.01369
3.06992
3.12531
3.17983
3.23344
3.2861
3.33777
3.38841
3.43795
3.48636
3.53359
3.57959
3.62431
3.66771
3.70974
3.75035
3.78949
3.82711
3.86319
3.89769
3.93059
3.96186
3.99148
4.01943
4.04569
4.07025
4.0931
4.11424
4.13365
4.15133
4.16729
4.18152
4.19402
4.20478
4.21379
4.22107
4.22659
4.23036
4.23236
4.23257
4.23099
4.22745
4.22208
4.2149
4.20591
4.19512
4.18255
4.16823
4.15219
4.13445
4.11506
4.09406
4.07149
4.04742
4.02192
3.99506
3.96693
3.93761
3.90717
3.87571
3.84331
3.81005
3.77603
3.74132
3.70601
3.67018
3.63391
3.59729
3.56039
3.52331
3.48612
3.44893
3.41181
3.37485
3.33811
3.30167
3.26561
3.22998
3.19488
3.16037
3.12655
3.0935
3.06134
3.0301
2.99987
2.96994
2.93898
0.00185132
0.0289315
0.0524045
0.0631393
0.0679686
0.0697082
0.0697372
0.0685493
0.0666125
0.0642918
0.0618915
0.0596673
0.0578258
0.0565877
0.0560879
0.0562227
0.0572646
0.0592093
0.0621253
0.0660515
0.0710232
0.0770425
0.0840385
0.091891
0.100449
0.109534
0.118986
0.128717
0.138718
0.149093
0.160079
0.172026
0.185331
0.200328
0.217208
0.236007
0.256614
0.278835
0.302439
0.327204
0.352936
0.379478
0.406717
0.43459
0.463085
0.492244
0.522152
0.552914
0.584645
0.617461
0.651471
0.686778
0.723472
0.761637
0.801339
0.842625
0.885531
0.930081
0.976284
1.02414
1.07363
1.12473
1.17739
1.23159
1.28726
1.34435
1.4028
1.46254
1.52352
1.58566
1.6489
1.71313
1.77826
1.84416
1.9107
1.97777
2.04526
2.11306
2.18103
2.24906
2.31704
2.38489
2.45255
2.51993
2.58696
2.65354
2.71959
2.78503
2.84981
2.91387
2.97719
3.03972
3.10141
3.16223
3.22214
3.28109
3.33905
3.396
3.45189
3.50667
3.56031
3.61273
3.6639
3.71376
3.76227
3.80938
3.85505
3.89921
3.94183
3.98285
4.02222
4.05991
4.09589
4.13013
4.16262
4.19332
4.22223
4.24933
4.27461
4.29805
4.31967
4.33945
4.35741
4.37355
4.38788
4.40039
4.41109
4.41999
4.42709
4.4324
4.43592
4.43764
4.43753
4.43555
4.43151
4.42561
4.41786
4.40826
4.39681
4.38353
4.36843
4.35154
4.33289
4.31249
4.29038
4.26661
4.24125
4.21436
4.18603
4.15633
4.12534
4.09315
4.05983
4.02547
3.99015
3.95397
3.917
3.87933
3.84104
3.80221
3.7629
3.72322
3.68327
3.64313
3.60292
3.56271
3.52259
3.48264
3.44293
3.40353
3.36452
3.32598
3.288
3.25069
3.21413
3.17845
3.1437
3.11
3.07669
3.04269
0.00266187
0.0347679
0.0597788
0.0707723
0.0755659
0.0771414
0.0769568
0.0755424
0.0734594
0.0711526
0.068974
0.0671787
0.0660058
0.0655481
0.0657327
0.0668531
0.06887
0.0717564
0.0754994
0.0800874
0.08549
0.0916482
0.0984873
0.105937
0.113941
0.122472
0.131533
0.141181
0.151539
0.162798
0.175174
0.188875
0.204055
0.220782
0.239029
0.258697
0.279638
0.301693
0.324712
0.34857
0.37317
0.398452
0.424386
0.450978
0.47827
0.506334
0.535272
0.565199
0.596229
0.628476
0.662055
0.697078
0.733651
0.771865
0.811802
0.85353
0.897105
0.94257
0.989955
1.03927
1.09052
1.14369
1.19874
1.25563
1.31431
1.37472
1.43678
1.5004
1.5655
1.63196
1.69968
1.76853
1.83837
1.90904
1.98039
2.05226
2.12453
2.19705
2.26969
2.34234
2.41489
2.48727
2.55942
2.63126
2.70268
2.77357
2.84384
2.91339
2.98214
3.05001
3.11702
3.18314
3.24831
3.31249
3.37563
3.4377
3.49865
3.55846
3.61708
3.67446
3.73057
3.78534
3.83873
3.89067
3.94113
3.99006
4.03741
4.08314
4.12719
4.16951
4.21005
4.24878
4.28567
4.32069
4.35383
4.38507
4.41439
4.44179
4.46725
4.49077
4.51236
4.53203
4.54978
4.56564
4.57961
4.59171
4.60195
4.61034
4.6169
4.62166
4.62463
4.62579
4.62513
4.62248
4.61774
4.61117
4.60273
4.59243
4.58026
4.56623
4.55034
4.53263
4.51309
4.49176
4.46861
4.44372
4.41717
4.38901
4.35933
4.32819
4.29567
4.26185
4.2268
4.19061
4.15336
4.11513
4.07603
4.03611
3.99548
3.95419
3.91231
3.86995
3.82722
3.78423
3.74108
3.69786
3.65466
3.61156
3.56864
3.52596
3.4836
3.44165
3.40022
3.35943
3.31937
3.28017
3.24191
3.20473
3.16802
3.131
0.00354081
0.0410715
0.0672877
0.078539
0.0833037
0.08474
0.084334
0.0826349
0.0803595
0.0781212
0.0763188
0.0752214
0.0748127
0.0749441
0.0759432
0.0777945
0.0804491
0.0838595
0.08799
0.0928129
0.0983006
0.104429
0.111186
0.118584
0.126642
0.13541
0.144966
0.155416
0.166886
0.179495
0.193325
0.208426
0.224795
0.242377
0.261081
0.280797
0.301418
0.322851
0.345022
0.367888
0.391425
0.415635
0.440537
0.466185
0.492655
0.520027
0.5484
0.577897
0.608641
0.640756
0.674369
0.7096
0.74657
0.78539
0.826158
0.868961
0.91387
0.960945
1.01023
1.06176
1.11553
1.17153
1.22972
1.29005
1.35247
1.41689
1.48321
1.55131
1.62105
1.69227
1.76479
1.83845
1.91309
1.98853
2.06459
2.14111
2.21793
2.29486
2.37178
2.44863
2.52532
2.60182
2.67804
2.75386
2.82918
2.90386
2.97779
3.05086
3.12298
3.19408
3.26423
3.33336
3.4014
3.4683
3.53401
3.59849
3.66171
3.72363
3.78422
3.84345
3.90125
3.95759
4.01239
4.06562
4.11723
4.16718
4.21543
4.26192
4.30661
4.34945
4.39038
4.42938
4.4664
4.50144
4.53448
4.56552
4.59452
4.6215
4.64645
4.66938
4.69028
4.70918
4.72611
4.74108
4.75412
4.76526
4.77451
4.78189
4.78746
4.79125
4.7933
4.79355
4.79203
4.78832
4.78268
4.77522
4.76594
4.75483
4.74186
4.72704
4.71036
4.69183
4.67145
4.64924
4.62517
4.59933
4.57176
4.54252
4.51168
4.47929
4.44543
4.41016
4.37358
4.33575
4.29676
4.25669
4.21562
4.17365
4.13086
4.0873
4.043
3.99813
3.9528
3.90713
3.86121
3.81513
3.76899
3.72287
3.67686
3.63101
3.58539
3.54014
3.49536
3.45117
3.4077
3.36506
3.32334
3.28273
3.24264
3.20272
0.0044974
0.0474101
0.074841
0.0863782
0.0911059
0.0923589
0.0916037
0.0895795
0.0872748
0.0853346
0.0841393
0.0836774
0.0837177
0.084523
0.0861177
0.0884769
0.0915478
0.095291
0.0996863
0.104734
0.110445
0.116842
0.123961
0.131851
0.140578
0.150215
0.160837
0.17251
0.185266
0.199128
0.214096
0.230137
0.247175
0.265131
0.283922
0.303476
0.323739
0.344676
0.366277
0.388552
0.411521
0.435225
0.459737
0.485162
0.511571
0.538989
0.567538
0.597418
0.628742
0.661639
0.696244
0.732692
0.771122
0.811665
0.854432
0.899524
0.947018
0.996971
1.04942
1.10439
1.1619
1.22189
1.28428
1.349
1.41599
1.48514
1.55634
1.62944
1.70426
1.78054
1.85795
1.93633
2.01557
2.09554
2.17604
2.25687
2.3378
2.41853
2.49909
2.57945
2.65962
2.73958
2.81922
2.89832
2.97674
3.05434
3.13102
3.20667
3.28126
3.35481
3.42722
3.49842
3.56833
3.63689
3.70407
3.76982
3.83414
3.89701
3.95839
4.01826
4.07658
4.13328
4.18832
4.24165
4.29324
4.34304
4.39104
4.43716
4.48138
4.52363
4.56387
4.60205
4.63816
4.67219
4.70412
4.73396
4.76169
4.78732
4.81085
4.83229
4.85165
4.86897
4.88428
4.89762
4.90903
4.91853
4.92617
4.93196
4.936
4.93835
4.93906
4.93812
4.93512
4.93006
4.92328
4.91477
4.90452
4.89251
4.87872
4.86312
4.84569
4.82643
4.80531
4.78235
4.75758
4.731
4.70264
4.67255
4.64077
4.60736
4.57238
4.5359
4.49799
4.45873
4.41819
4.37647
4.33363
4.28978
4.24499
4.19933
4.15286