/*--------------------------------*- C++ -*----------------------------------*\
  =========                 |
  \\      /  F ield         | OpenFOAM: The Open Source CFD Toolbox
   \\    /   O peration     | Website:  https://openfoam.org
    \\  /    A nd           | Version:  13
     \\/     M anipulation  |
\*---------------------------------------------------------------------------*/
FoamFile
{
    format      ascii;
    class       volScalarField;
    location    "300";
    object      nut;
}
// * * * * * * * * * * * * * * * * * * * * * * * * * * * * * * * * * * * * * //

dimensions      [0 2 -1 0 0 0 0];

internalField   nonuniform List<scalar> 
12225
(
5.95616e-06
1.91746e-05
2.47133e-05
3.56699e-05
3.90872e-05
2.92887e-05
2.10715e-05
3.12868e-05
2.44605e-05
2.00453e-05
2.79659e-05
3.35658e-05
2.56514e-05
2.12425e-05
1.89504e-05
1.73053e-05
2.57123e-05
3.25753e-05
6.00655e-05
1.75591e-05
1.55165e-05
2.49249e-05
2.03364e-05
2.16219e-05
2.24592e-05
2.61363e-05
2.38021e-05
2.3042e-05
2.28935e-05
2.60413e-05
2.63052e-05
2.76242e-05
2.75702e-05
3.0635e-05
3.25907e-05
3.54042e-05
0.000117264
7.65243e-05
2.88869e-05
8.29875e-06
4.22409e-06
4.69085e-06
3.72589e-06
5.70568e-06
4.91096e-06
5.08088e-06
3.84475e-06
3.88225e-06
4.65962e-06
5.46448e-06
6.20194e-06
7.14965e-06
8.36615e-06
9.83117e-06
7.36111e-06
2.77765e-05
3.7368e-05
2.26092e-05
1.3405e-05
9.2527e-06
7.24116e-06
4.72192e-06
3.85012e-06
3.55622e-06
3.40285e-06
3.37088e-06
3.43474e-06
3.5029e-06
3.66151e-06
3.73951e-06
3.90421e-06
4.03328e-06
4.43203e-06
9.43343e-06
1.31043e-05
2.07553e-05
2.34024e-05
2.17902e-05
2.03076e-05
1.69587e-05
1.82736e-05
1.57326e-05
1.49229e-05
1.45249e-05
1.46053e-05
1.42379e-05
1.43661e-05
1.38178e-05
1.40126e-05
1.34421e-05
1.15914e-05
2.2123e-05
2.94517e-05
4.73986e-05
6.14171e-05
6.08369e-05
6.60549e-05
5.88366e-05
5.38713e-05
4.3638e-05
3.91092e-05
3.78831e-05
3.8869e-05
3.90805e-05
4.04162e-05
3.99553e-05
4.1421e-05
4.05791e-05
5.0605e-05
7.80012e-05
0.000122529
0.000147506
0.000145387
0.000143201
0.000125273
0.000115845
0.000101172
0.000107727
9.96588e-05
9.49321e-05
9.49409e-05
9.45155e-05
9.64038e-05
9.59741e-05
9.8486e-05
9.75231e-05
0.000264882
0.000203249
0.00027517
0.000300671
0.00029782
0.000287354
0.000269507
0.000254614
0.00023615
0.000215968
0.000215772
0.000206685
0.000202209
0.000198741
0.000199829
0.000198761
0.000201779
0.000199325
0.00060681
0.000474361
0.000552552
0.000542043
0.000510486
0.000473303
0.000442339
0.000417396
0.000403522
0.000389824
0.000381778
0.000375226
0.000369274
0.000363828
0.000357041
0.000356466
0.000351629
0.000349152
0.000797655
0.00075607
0.000760343
0.000746266
0.000706405
0.000672307
0.000636249
0.000608209
0.000592668
0.000581145
0.000571593
0.000563416
0.000555042
0.000547084
0.000538649
0.000531572
0.000526416
0.000517691
0.000852161
0.000828692
0.00082543
0.000823164
0.000804883
0.000790143
0.000766157
0.000748268
0.000734924
0.000726476
0.000718467
0.000709601
0.000701222
0.000692803
0.000685167
0.0006782
0.000671384
0.000662814
0.000850767
0.000848501
0.000845286
0.000842667
0.000837731
0.00083135
0.000820689
0.00081238
0.00080268
0.000798525
0.000793081
0.000787351
0.000781004
0.000775437
0.000769515
0.000764476
0.000759499
0.000752938
0.000851506
0.000850262
0.000849445
0.000848292
0.000846662
0.000844487
0.000841501
0.000838184
0.00083501
0.000831992
0.000828893
0.000825716
0.000822351
0.000819033
0.000816089
0.00081321
0.000809927
0.000806887
0.000851551
0.000850627
0.000849829
0.000848985
0.000848173
0.000847243
0.000846293
0.000845185
0.000844088
0.000842861
0.000841619
0.000840228
0.000838908
0.000837467
0.000836356
0.000835003
0.000834173
0.000832836
0.000851545
0.000850667
0.000849864
0.000849065
0.000848331
0.000847598
0.000846921
0.000846237
0.000845588
0.000844919
0.000844264
0.000843582
0.000842926
0.000842254
0.000841654
0.000841044
0.000840547
0.000840016
0.00085154
0.000850672
0.000849857
0.000849073
0.000848335
0.000847626
0.000846956
0.000846314
0.000845703
0.000845115
0.00084455
0.000844005
0.000843479
0.000842973
0.000842489
0.000842025
0.00084159
0.000841172
0.000851537
0.000850673
0.000849852
0.00084907
0.000848328
0.00084762
0.000846947
0.000846305
0.000845692
0.000845107
0.000844548
0.000844013
0.000843501
0.00084301
0.000842541
0.000842092
0.000841664
0.000841252
0.000851539
0.000850677
0.000849858
0.000849077
0.000848335
0.000847628
0.000846955
0.000846312
0.000845698
0.000845112
0.000844551
0.000844015
0.000843502
0.000843012
0.000842542
0.000842093
0.000841662
0.000841251
0.000851537
0.000850674
0.000849851
0.000849069
0.000848325
0.000847616
0.000846941
0.000846296
0.00084568
0.000845091
0.000844529
0.000843991
0.000843476
0.000842983
0.000842512
0.000842061
0.00084163
0.000841217
0.000851544
0.000850671
0.000849844
0.000849066
0.000848324
0.000847616
0.000846936
0.000846283
0.000845657
0.00084506
0.000844491
0.000843951
0.000843436
0.000842947
0.000842479
0.000842034
0.000841606
0.000841199
0.000851664
0.00085058
0.000849616
0.000848956
0.000848211
0.000847493
0.00084672
0.000845916
0.000845124
0.00084439
0.000843737
0.000843182
0.000842694
0.000842282
0.000841883
0.00084154
0.000841173
0.000840871
0.000852764
0.000848131
0.000844423
0.000846417
0.000844547
0.000844454
0.000842888
0.000840335
0.000838028
0.000835827
0.000834568
0.000834039
0.000833972
0.000834337
0.000834578
0.000835308
0.000835559
0.000836448
0.000843724
0.000812719
0.000767064
0.000810266
0.000773622
0.000802579
0.000801658
0.000790948
0.000785008
0.000769688
0.000769136
0.000769782
0.000771976
0.000774978
0.000778367
0.000785531
0.000789827
0.000800045
0.000741367
0.000497642
0.000460663
0.000605657
0.000483944
0.000584264
0.000587386
0.000577414
0.000566814
0.000552462
0.000552438
0.000536974
0.000537607
0.000541014
0.000558891
0.000578023
0.000601324
0.000635131
0.00029082
0.000102483
0.00010308
0.000172285
0.000129607
0.000177769
0.000172333
0.000179551
0.000186563
0.00019482
0.000229894
0.000223505
0.000241796
0.000267827
0.000293995
0.000321474
0.000344332
0.000374589
8.5248e-05
1
3.10722e-05
2.91535e-05
2.56179e-05
2.95479e-05
4.03196e-05
4.16884e-05
4.35454e-05
5.22599e-05
6.49008e-05
7.3258e-05
8.49774e-05
9.42361e-05
0.000105686
0.000124343
0.000148749
0.000178608
2.6673e-05
1.14751e-05
6.02808e-06
5.38358e-06
2.92121e-06
3.5053e-06
4.71395e-06
4.96488e-06
5.48817e-06
5.94791e-06
7.16834e-06
9.94287e-06
1.50366e-05
2.45127e-05
3.37109e-05
4.36586e-05
5.78058e-05
7.36013e-05
1.90617e-06
1.17377e-06
7.46606e-07
7.5445e-07
1.26858e-06
1.00756e-06
7.5753e-07
1.18934e-06
2.02797e-06
2.78634e-06
4.07784e-06
5.35614e-06
6.8507e-06
9.45708e-06
1.30488e-05
1.76655e-05
2.32719e-05
2.96264e-05
1.74407e-07
1.22283e-07
4.81474e-07
1.62375e-06
6.01964e-06
6.76775e-05
1.20787e-05
8.71021e-06
9.87804e-06
1.04035e-05
1.27466e-05
1.79958e-05
2.27693e-05
2.3807e-05
2.86959e-05
3.25709e-05
4.01154e-05
4.42045e-05
1.20017e-05
1.64032e-05
1.93776e-05
2.11379e-05
2.19753e-05
2.21647e-05
2.20276e-05
2.17178e-05
2.12853e-05
2.08262e-05
2.03631e-05
1.99148e-05
1.9522e-05
1.91598e-05
1.88642e-05
1.8643e-05
1.84843e-05
1.83787e-05
1.37784e-12
1.55804e-10
7.99027e-10
3.16621e-09
1.07382e-08
3.35188e-08
8.80729e-08
1.75691e-07
2.85539e-07
3.99939e-07
5.02684e-07
5.81912e-07
6.35108e-07
6.55985e-07
6.50118e-07
6.20378e-07
5.76246e-07
5.05516e-07
4.29321e-07
3.67798e-07
3.10946e-07
2.561e-07
2.02871e-07
1.52891e-07
1.07376e-07
6.92959e-08
4.11854e-08
2.29992e-08
1.26164e-08
7.12723e-09
4.31225e-09
2.89729e-09
2.37011e-09
3.16571e-09
5.9046e-09
1.05913e-08
5.11049e-08
1.05298e-07
2.22184e-07
3.35959e-07
3.76885e-07
3.54279e-07
2.97601e-07
2.61865e-07
2.6886e-07
3.20983e-07
4.02776e-07
7.05508e-07
1.31591e-06
3.3995e-06
1.10008e-05
2.56807e-05
3.7932e-05
4.47824e-05
4.78203e-05
4.97383e-05
4.56613e-05
4.02404e-05
4.00586e-05
3.48625e-05
3.61123e-05
3.76701e-05
3.15869e-05
3.41673e-05
3.42301e-05
3.51204e-05
3.56304e-05
3.63069e-05
3.68676e-05
3.74761e-05
3.80355e-05
3.86103e-05
3.91609e-05
3.97152e-05
4.02568e-05
4.0798e-05
4.1332e-05
4.18645e-05
4.23926e-05
4.29193e-05
4.34431e-05
4.39659e-05
4.44865e-05
4.50064e-05
4.55246e-05
4.60421e-05
4.65581e-05
4.70735e-05
4.75873e-05
4.81e-05
4.8611e-05
4.91202e-05
4.96273e-05
5.01323e-05
5.06352e-05
5.11363e-05
5.1636e-05
5.21354e-05
5.26374e-05
5.31474e-05
5.3674e-05
5.4199e-05
5.47321e-05
5.52714e-05
5.58194e-05
5.6376e-05
5.69423e-05
5.75192e-05
5.81072e-05
5.87075e-05
5.93208e-05
5.99483e-05
6.05909e-05
6.125e-05
6.19265e-05
6.26224e-05
6.33387e-05
6.40775e-05
6.48403e-05
6.56296e-05
6.64478e-05
6.7298e-05
6.81842e-05
6.91105e-05
7.00808e-05
7.10895e-05
7.21355e-05
7.32681e-05
7.44144e-05
7.56081e-05
7.67086e-05
7.80831e-05
7.93495e-05
8.01849e-05
7.99162e-05
7.96435e-05
7.93502e-05
7.90385e-05
7.8703e-05
7.83498e-05
7.79962e-05
7.75947e-05
7.72167e-05
7.67882e-05
7.63676e-05
7.59242e-05
7.54694e-05
7.50026e-05
7.45318e-05
7.4039e-05
7.35575e-05
7.30475e-05
7.25501e-05
7.20292e-05
7.15106e-05
7.09853e-05
7.04604e-05
6.99376e-05
6.9417e-05
6.89007e-05
6.83877e-05
6.78823e-05
6.73836e-05
6.68922e-05
6.64096e-05
6.59382e-05
6.54789e-05
6.50328e-05
6.46002e-05
6.41816e-05
6.37794e-05
6.33903e-05
6.30105e-05
6.26414e-05
6.22765e-05
6.19063e-05
6.15284e-05
6.1116e-05
6.06351e-05
5.91898e-05
7.33496e-12
1.19753e-09
1.65817e-08
8.92989e-08
3.92051e-07
1.20673e-06
2.80209e-06
5.13692e-06
8.03317e-06
1.12899e-05
1.46031e-05
1.76467e-05
2.01548e-05
2.19966e-05
2.30158e-05
2.31824e-05
2.29833e-05
2.18106e-05
2.02197e-05
1.72644e-05
1.37824e-05
1.05003e-05
7.69255e-06
5.45539e-06
3.66734e-06
2.38893e-06
1.53345e-06
9.88004e-07
6.47036e-07
4.30705e-07
3.07996e-07
2.42674e-07
2.33325e-07
2.53416e-07
4.37418e-07
6.45294e-07
3.37775e-06
6.79791e-06
1.32876e-05
1.83082e-05
2.03956e-05
1.96513e-05
1.83677e-05
1.61197e-05
1.56301e-05
1.61285e-05
1.72173e-05
2.16594e-05
3.04073e-05
4.19617e-05
5.3697e-05
6.56331e-05
7.53107e-05
8.36741e-05
9.30862e-05
0.000106029
0.000117338
0.000131033
0.000144849
0.000155685
0.000170666
0.000186762
0.000196611
0.000211276
0.000223838
0.000236317
0.000248203
0.000259607
0.000270602
0.000281176
0.000291381
0.000301283
0.000310894
0.000320269
0.000329429
0.000338402
0.00034721
0.000355866
0.000364388
0.000372785
0.000381067
0.000389241
0.000397313
0.000405288
0.000413171
0.000420961
0.000428663
0.000436277
0.000443805
0.000451244
0.000458595
0.000465849
0.000473
0.000480033
0.000486933
0.000493669
0.0005002
0.000506462
0.000512364
0.000517786
0.000522556
0.000527375
0.000532004
0.000536554
0.000540978
0.000545291
0.000549483
0.000553553
0.000557499
0.000561315
0.000565
0.000568548
0.000571956
0.000575219
0.000578332
0.00058129
0.00058409
0.000586725
0.000589189
0.000591476
0.000593582
0.000595501
0.000597227
0.000598756
0.000600084
0.000601235
0.000602249
0.00060309
0.000603611
0.00060404
0.000603933
0.000603884
0.000603798
0.000604237
0.00060384
0.000603547
0.000603343
0.000602378
0.000601385
0.000600799
0.000598917
0.000597926
0.000595631
0.000594299
0.000591887
0.000589791
0.000587119
0.000584744
0.000581544
0.000579082
0.000575658
0.000572848
0.000569378
0.000566119
0.000562624
0.000559061
0.000555484
0.000551838
0.000548196
0.000544487
0.000540808
0.000537125
0.000533454
0.000529806
0.000526204
0.000522646
0.000519145
0.00051573
0.000512405
0.000509164
0.000506017
0.000502929
0.000499879
0.000496859
0.000493827
0.000490788
0.000487495
0.000483736
0.000478994
0.000464294
1.90484e-11
3.24937e-09
6.11998e-08
3.65437e-07
1.19423e-06
3.05611e-06
6.55403e-06
1.15205e-05
1.76681e-05
2.47185e-05
3.20125e-05
3.90317e-05
4.53609e-05
5.07024e-05
5.4821e-05
5.75459e-05
5.92018e-05
5.97586e-05
5.86855e-05
5.59835e-05
5.21048e-05
4.63085e-05
3.93966e-05
3.20883e-05
2.52552e-05
1.90724e-05
1.38919e-05
9.8061e-06
6.84158e-06
4.69191e-06
3.33777e-06
2.53263e-06
2.19155e-06
1.95778e-06
3.34176e-06
5.65487e-06
1.86176e-05
3.54316e-05
5.1461e-05
5.87459e-05
5.6724e-05
4.57581e-05
3.91804e-05
4.04069e-05
4.7281e-05
5.51186e-05
6.5974e-05
7.90707e-05
9.24551e-05
0.00010677
0.000125583
0.000145599
0.0001681
0.000193099
0.000223088
0.000255547
0.000288267
0.000321848
0.000353812
0.000384377
0.000414706
0.000445355
0.000472151
0.000499694
0.00052503
0.000549365
0.000572791
0.000595059
0.000616667
0.000637477
0.0006577
0.000677382
0.000696598
0.00071541
0.00073386
0.000751989
0.000769825
0.000787393
0.000804711
0.000821793
0.000838651
0.000855293
0.000871727
0.000887956
0.000903982
0.000919807
0.00093543
0.000950847
0.000966056
0.000981048
0.000995814
0.00101034
0.00102461
0.0010386
0.00105227
0.00106561
0.00107856
0.0010911
0.00110319
0.00111482
0.00112613
0.00113729
0.00114817
0.00115884
0.00116926
0.00117943
0.00118934
0.00119899
0.00120837
0.00121747
0.00122629
0.00123481
0.00124304
0.00125095
0.00125855
0.00126583
0.00127277
0.00127936
0.0012856
0.00129148
0.00129698
0.00130211
0.00130684
0.00131118
0.00131511
0.00131863
0.00132171
0.00132434
0.0013265
0.00132811
0.00132929
0.00133056
0.00133108
0.00133228
0.00133202
0.00133152
0.00133081
0.00132912
0.00132694
0.00132508
0.00132154
0.00131878
0.00131431
0.00131054
0.00130559
0.00130065
0.00129498
0.00128941
0.00128279
0.00127675
0.00126957
0.00126284
0.00125536
0.00124795
0.00124024
0.00123236
0.00122439
0.0012163
0.00120817
0.00119997
0.00119178
0.0011836
0.00117547
0.00116739
0.00115941
0.00115155
0.00114382
0.00113627
0.00112891
0.00112175
0.00111478
0.00110796
0.00110127
0.00109465
0.00108802
0.00108142
0.00107427
0.00106611
0.00105527
0.00102877
6.8184e-11
1.15071e-08
1.83412e-07
8.10228e-07
2.58179e-06
7.14364e-06
1.42755e-05
2.38136e-05
3.48589e-05
4.63009e-05
5.74627e-05
6.78359e-05
7.68283e-05
8.41428e-05
8.96673e-05
9.36837e-05
9.5736e-05
9.62223e-05
9.52721e-05
9.28005e-05
8.87331e-05
8.32859e-05
7.68358e-05
6.84394e-05
5.90408e-05
4.92014e-05
3.97574e-05
3.13167e-05
2.43858e-05
1.90349e-05
1.48381e-05
1.22285e-05
9.91703e-06
1.09976e-05
1.6754e-05
3.09627e-05
5.14694e-05
6.77253e-05
7.4849e-05
7.29446e-05
7.1265e-05
7.24496e-05
7.71219e-05
8.59637e-05
9.84063e-05
0.000112213
0.000125827
0.000147928
0.000172276
0.000201983
0.000237308
0.000275334
0.00031753
0.00036221
0.000409865
0.000457995
0.000505755
0.000552622
0.000597544
0.000640883
0.000682798
0.000723415
0.000761666
0.000798635
0.000834208
0.000868191
0.000901018
0.000932719
0.000963524
0.00099347
0.00102271
0.0010513
0.00107934
0.00110686
0.00113393
0.00116058
0.00118684
0.00121272
0.00123825
0.00126344
0.0012883
0.00131283
0.00133703
0.00136092
0.00138448
0.00140772
0.00143064
0.00145322
0.00147545
0.00149734
0.00151887
0.00154002
0.00156077
0.00158112
0.00160103
0.00162051
0.00163952
0.00165808
0.00167618
0.00169386
0.0017112
0.00172821
0.00174485
0.00176114
0.00177704
0.00179257
0.0018077
0.00182242
0.00183674
0.00185063
0.00186409
0.00187711
0.00188967
0.00190178
0.00191341
0.00192456
0.00193522
0.00194537
0.00195501
0.00196411
0.00197269
0.00198071
0.00198818
0.00199508
0.0020014
0.00200714
0.00201219
0.0020164
0.00202015
0.00202325
0.00202557
0.00202781
0.00202933
0.00203048
0.00203054
0.00203
0.00202889
0.00202681
0.00202401
0.00202094
0.00201652
0.0020121
0.00200634
0.00200049
0.00199366
0.00198642
0.00197843
0.00197015
0.00196097
0.00195178
0.00194171
0.00193159
0.00192083
0.00190989
0.0018986
0.00188705
0.0018753
0.00186339
0.00185137
0.00183927
0.00182714
0.00181503
0.00180296
0.00179097
0.00177911
0.0017674
0.00175588
0.0017446
0.00173358
0.00172284
0.00171239
0.00170218
0.00169217
0.00168228
0.00167255
0.00166264
0.00165211
0.00164042
0.00162505
0.00159411
2.23667e-10
3.33013e-08
4.07893e-07
1.97287e-06
6.84671e-06
1.65391e-05
3.05736e-05
4.70388e-05
6.42553e-05
8.09131e-05
9.58315e-05
0.000108233
0.000117634
0.000124793
0.000129231
0.000131473
0.000131942
0.000130895
0.000128544
0.000124995
0.000120056
0.000114203
0.000107398
9.89353e-05
8.92017e-05
7.8402e-05
6.70422e-05
5.59425e-05
4.61667e-05
3.82587e-05
3.04196e-05
2.47734e-05
2.42671e-05
3.17182e-05
5.00863e-05
7.10801e-05
8.44027e-05
9.12945e-05
9.49641e-05
9.83393e-05
0.000104075
0.000113923
0.000128911
0.000140426
0.000155204
0.000179048
0.000210387
0.000245907
0.000288048
0.000335325
0.000386993
0.000440904
0.000497548
0.000555184
0.000613658
0.000671478
0.000728233
0.000783482
0.000836901
0.000888431
0.000938227
0.000986529
0.00103312
0.00107792
0.00112122
0.00116309
0.00120372
0.00124325
0.0012818
0.00131946
0.00135634
0.00139251
0.00142804
0.00146298
0.00149737
0.00153125
0.00156464
0.00159755
0.00163
0.001662
0.00169355
0.00172465
0.00175532
0.00178554
0.00181532
0.00184465
0.00187354
0.00190196
0.00192993
0.00195742
0.00198444
0.00201096
0.00203699
0.0020625
0.00208751
0.002112
0.00213598
0.00215946
0.00218245
0.00220497
0.00222703
0.00224864
0.00226978
0.00229043
0.00231059
0.00233025
0.0023494
0.00236801
0.0023861
0.00240364
0.00242062
0.00243704
0.00245289
0.00246815
0.00248282
0.00249689
0.00251034
0.00252317
0.00253536
0.00254691
0.00255781
0.00256804
0.0025776
0.00258648
0.00259467
0.00260215
0.00260874
0.00261435
0.00261941
0.00262374
0.00262715
0.00263011
0.00263243
0.0026339
0.00263436
0.002634
0.00263283
0.0026307
0.00262769
0.002624
0.00261921
0.00261384
0.0026074
0.00260036
0.00259242
0.00258379
0.00257438
0.00256439
0.00255359
0.00254236
0.00253038
0.00251801
0.00250506
0.0024917
0.00247794
0.00246382
0.00244942
0.00243478
0.00241996
0.00240502
0.00239
0.00237496
0.00235994
0.00234499
0.00233016
0.00231549
0.00230102
0.0022868
0.00227286
0.00225923
0.00224593
0.00223295
0.00222025
0.00220774
0.0021954
0.00218299
0.00216993
0.00215562
0.0021378
0.00210695
6.93739e-10
8.19083e-08
1.01181e-06
5.19825e-06
1.69998e-05
3.57467e-05
5.8156e-05
8.14543e-05
0.000102777
0.000120198
0.000133737
0.000144313
0.000152048
0.000157076
0.000159938
0.0001609
0.000160196
0.000158021
0.000154603
0.000150015
0.000144215
0.00013763
0.000130055
0.00012114
0.000111005
9.73072e-05
8.14284e-05
6.63055e-05
5.27267e-05
4.32482e-05
3.89609e-05
4.17858e-05
5.50772e-05
7.53958e-05
9.38226e-05
0.000106822
0.000115316
0.000121228
0.00012801
0.000139037
0.000155704
0.000164995
0.000180331
0.000205342
0.000237164
0.000275817
0.000322144
0.000373561
0.000430534
0.000490581
0.000553156
0.000616949
0.000681829
0.000746779
0.000811436
0.000875045
0.000937355
0.000997865
0.00105667
0.00111428
0.00117002
0.00122409
0.00127651
0.00132734
0.00137673
0.00142478
0.00147162
0.00151737
0.00156212
0.00160596
0.00164897
0.00169122
0.00173277
0.00177365
0.00181389
0.00185354
0.00189259
0.00193106
0.00196897
0.00200631
0.0020431
0.00207933
0.002115
0.00215011
0.00218467
0.00221866
0.00225209
0.00228496
0.00231726
0.00234898
0.00238013
0.00241069
0.00244067
0.00247006
0.00249885
0.00252707
0.0025547
0.00258177
0.00260829
0.00263424
0.00265963
0.00268446
0.00270872
0.00273239
0.00275548
0.00277795
0.00279982
0.00282107
0.00284168
0.00286166
0.002881
0.00289967
0.00291768
0.00293502
0.00295169
0.00296767
0.00298296
0.00299755
0.00301143
0.00302459
0.00303704
0.00304875
0.00305973
0.00306996
0.00307944
0.00308818
0.00309591
0.00310262
0.00310872
0.00311404
0.00311839
0.00312202
0.00312505
0.00312706
0.00312807
0.00312815
0.00312731
0.00312548
0.0031227
0.00311905
0.00311437
0.00310886
0.00310236
0.00309502
0.00308676
0.00307768
0.00306776
0.00305708
0.00304559
0.00303344
0.00302056
0.00300709
0.00299299
0.00297836
0.00296324
0.00294767
0.00293173
0.00291547
0.00289895
0.00288223
0.00286537
0.00284843
0.00283145
0.0028145
0.00279762
0.00278087
0.00276429
0.00274795
0.00273188
0.00271612
0.00270071
0.00268564
0.00267088
0.00265639
0.0026421
0.00262788
0.00261313
0.00259733
0.00257813
0.00254939
2.14161e-09
2.05068e-07
2.61991e-06
1.38079e-05
3.62113e-05
6.48289e-05
9.4011e-05
0.000119566
0.000140066
0.000155541
0.00016702
0.000174601
0.000179285
0.000181828
0.000182625
0.000181941
0.000179957
0.000176773
0.000172324
0.000166635
0.000159789
0.00015192
0.000142656
0.000131916
0.000112792
9.58854e-05
8.13716e-05
6.91052e-05
6.10208e-05
6.12449e-05
7.16586e-05
8.64301e-05
0.000108984
0.000124753
0.000136085
0.000144887
0.000153197
0.00016441
0.000178858
0.000187336
0.000201798
0.000225966
0.000256709
0.000295221
0.000341109
0.000393994
0.000452881
0.000515544
0.000581389
0.00064889
0.000717565
0.000786734
0.000856039
0.000924916
0.000993081
0.00105984
0.00112524
0.00118984
0.00125268
0.00131399
0.00137368
0.00143183
0.00148849
0.00154371
0.00159759
0.00165021
0.00170167
0.00175207
0.00180147
0.00184995
0.00189757
0.00194439
0.00199046
0.00203579
0.00208042
0.00212436
0.00216762
0.00221021
0.00225214
0.00229341
0.00233401
0.00237395
0.00241323
0.00245186
0.00248982
0.00252712
0.00256376
0.00259975
0.00263507
0.00266974
0.00270375
0.00273709
0.00276978
0.00280181
0.00283318
0.00286389
0.00289394
0.00292334
0.00295207
0.00298017
0.00300762
0.00303442
0.00306057
0.00308606
0.00311088
0.00313503
0.0031585
0.00318128
0.00320337
0.00322476
0.00324545
0.00326545
0.00328476
0.00330335
0.00332122
0.00333837
0.00335478
0.00337045
0.00338539
0.00339957
0.00341301
0.00342569
0.00343761
0.00344877
0.00345915
0.00346878
0.00347744
0.00348504
0.00349201
0.00349817
0.0035034
0.00350776
0.0035115
0.00351422
0.00351593
0.00351667
0.00351645
0.00351525
0.00351306
0.00350991
0.00350576
0.00350068
0.00349461
0.00348766
0.0034798
0.00347105
0.0034614
0.0034509
0.00343956
0.00342743
0.00341451
0.00340089
0.00338657
0.00337162
0.00335609
0.00334002
0.00332348
0.00330653
0.00328923
0.00327164
0.00325382
0.00323583
0.00321774
0.00319958
0.00318143
0.00316334
0.00314537
0.00312758
0.00311002
0.00309273
0.00307576
0.00305912
0.0030428
0.00302678
0.00301101
0.00299546
0.00297971
0.00296306
0.00294386
0.00291742
6.22272e-09
5.2879e-07
6.78707e-06
2.89116e-05
6.19183e-05
9.65056e-05
0.000126377
0.000150032
0.000167921
0.000180871
0.000189389
0.000194538
0.000197304
0.000198119
0.000197326
0.000195151
0.000191676
0.00018686
0.000180897
0.000173871
0.000165867
0.000156573
0.000145966
0.000126738
0.000109301
9.58179e-05
8.729e-05
8.57539e-05
8.77029e-05
9.81087e-05
0.000117005
0.000137966
0.000157695
0.00017294
0.000182627
0.000193393
0.000198934
0.000207177
0.000220625
0.000242466
0.000270724
0.000307137
0.000350614
0.000401456
0.000458788
0.000521577
0.000588168
0.000657033
0.000727473
0.00079873
0.000870426
0.000942158
0.0010136
0.00108421
0.00115379
0.00122282
0.00129059
0.00135703
0.00142201
0.00148557
0.00154771
0.00160844
0.00166782
0.00172588
0.00178271
0.00183836
0.0018929
0.00194641
0.00199895
0.00205057
0.00210134
0.00215128
0.00220043
0.00224881
0.00229643
0.0023433
0.00238943
0.00243481
0.00247944
0.00252333
0.00256648
0.00260888
0.00265053
0.00269144
0.00273161
0.00277105
0.00280973
0.00284769
0.00288492
0.00292143
0.00295722
0.00299229
0.00302664
0.00306027
0.0030932
0.00312541
0.00315691
0.00318767
0.00321773
0.0032471
0.00327579
0.00330378
0.00333108
0.00335768
0.00338357
0.00340875
0.00343322
0.00345697
0.00347999
0.00350229
0.00352385
0.00354467
0.00356475
0.0035841
0.0036027
0.00362055
0.00363767
0.00365403
0.00366964
0.00368451
0.00369862
0.00371199
0.00372461
0.00373648
0.00374759
0.00375798
0.00376744
0.0037759
0.00378373
0.00379078
0.00379696
0.00380222
0.00380685
0.00381051
0.0038132
0.00381493
0.0038157
0.00381551
0.00381434
0.0038122
0.00380908
0.00380498
0.0037999
0.00379387
0.00378685
0.00377887
0.00376996
0.00376013
0.00374939
0.00373779
0.00372534
0.00371209
0.00369808
0.00368334
0.00366793
0.00365189
0.00363529
0.00361817
0.0036006
0.00358265
0.00356437
0.00354582
0.00352707
0.00350817
0.00348918
0.00347016
0.00345118
0.0034323
0.00341357
0.00339506
0.00337681
0.00335886
0.00334121
0.00332385
0.00330685
0.00329023
0.00327368
0.00325663
0.00323762
0.00321392
1.58399e-08
1.2786e-06
1.49282e-05
4.86275e-05
8.97776e-05
0.000127065
0.000156534
0.000177601
0.000191992
0.000201685
0.000207334
0.000209783
0.000209729
0.000207848
0.000204577
0.000200128
0.000194554
0.000187881
0.00018002
0.000171051
0.000161186
0.000150182
0.000138627
0.000124484
0.000114902
0.000107396
0.000105709
0.000112854
0.000127073
0.000144346
0.000162847
0.000180071
0.000194759
0.000205726
0.000213933
0.000223592
0.000236432
0.000255962
0.0002811
0.000314181
0.00035411
0.000401257
0.000454854
0.000514568
0.000579214
0.000647404
0.00071772
0.000789295
0.000861665
0.0009344
0.00100718
0.0010797
0.00115134
0.00122255
0.00129315
0.00136263
0.00143091
0.00149795
0.00156369
0.00162812
0.00169126
0.00175312
0.00181373
0.00187315
0.00193142
0.00198861
0.00204475
0.00209992
0.00215414
0.00220749
0.00226
0.0023117
0.00236262
0.00241277
0.00246216
0.00251074
0.00255854
0.00260555
0.00265177
0.00269719
0.0027418
0.0027856
0.0028286
0.0028708
0.0029122
0.00295283
0.00299273
0.00303183
0.00307014
0.00310766
0.0031444
0.00318036
0.00321556
0.00324998
0.00328365
0.00331657
0.00334874
0.00338019
0.00341091
0.00344091
0.0034702
0.00349877
0.00352661
0.00355373
0.00358012
0.00360578
0.00363071
0.0036549
0.00367835
0.00370106
0.00372303
0.00374425
0.00376472
0.00378445
0.00380344
0.00382168
0.00383919
0.00385596
0.003872
0.0038873
0.00390188
0.00391574
0.00392888
0.0039413
0.00395302
0.00396407
0.00397423
0.00398352
0.0039922
0.00400015
0.00400733
0.00401363
0.00401927
0.00402404
0.0040279
0.00403084
0.00403287
0.00403398
0.00403414
0.00403337
0.00403163
0.00402892
0.00402524
0.00402059
0.00401495
0.00400833
0.00400074
0.00399219
0.00398269
0.00397226
0.00396092
0.0039487
0.00393564
0.00392177
0.00390713
0.00389177
0.00387573
0.00385908
0.00384186
0.00382414
0.00380599
0.00378744
0.00376858
0.00374945
0.00373012
0.00371066
0.00369113
0.0036716
0.00365213
0.00363278
0.00361362
0.00359468
0.00357601
0.0035576
0.00353942
0.00352172
0.00350426
0.00348659
0.0034676
0.00344563
3.49863e-08
2.88998e-06
2.6905e-05
7.08408e-05
0.000115372
0.000152277
0.000180028
0.00019915
0.000211161
0.000217176
0.000218979
0.000217803
0.000214523
0.000209702
0.000203665
0.000196409
0.000188119
0.000178474
0.000168121
0.000158142
0.000148287
0.000138766
0.000130634
0.000125419
0.00012483
0.000129789
0.00013969
0.00015322
0.000168869
0.000184844
0.000200101
0.000213151
0.000223516
0.000234815
0.000248604
0.000266516
0.000289086
0.000318507
0.000354395
0.000397178
0.000446122
0.000501047
0.000561246
0.000626005
0.000694112
0.000764385
0.000835911
0.000908147
0.000980728
0.00105336
0.00112551
0.00119709
0.00126867
0.00133929
0.00140898
0.00147761
0.0015451
0.00161141
0.00167652
0.00174041
0.00180311
0.00186462
0.001925
0.00198428
0.00204253
0.00209979
0.00215612
0.00221155
0.00226607
0.00231981
0.00237278
0.00242501
0.00247652
0.00252733
0.00257747
0.00262702
0.00267585
0.00272385
0.00277099
0.00281727
0.00286267
0.00290719
0.00295084
0.00299362
0.00303553
0.00307658
0.00311673
0.00315607
0.00319461
0.00323236
0.00326933
0.00330553
0.00334095
0.00337562
0.00340952
0.00344268
0.00347511
0.0035068
0.00353776
0.00356799
0.00359749
0.00362627
0.00365431
0.00368163
0.00370821
0.00373406
0.00375919
0.00378357
0.00380722
0.00383014
0.00385231
0.00387374
0.00389444
0.00391441
0.00393364
0.00395215
0.00396994
0.00398701
0.00400337
0.00401904
0.00403401
0.00404829
0.0040619
0.00407485
0.00408716
0.00409884
0.00410967
0.00411983
0.00412939
0.00413831
0.00414653
0.00415399
0.00416079
0.00416682
0.00417199
0.00417633
0.00417982
0.00418245
0.0041842
0.00418506
0.00418499
0.00418398
0.00418202
0.0041791
0.00417519
0.00417029
0.0041644
0.00415751
0.00414963
0.00414077
0.00413094
0.00412017
0.00410847
0.00409588
0.00408242
0.00406815
0.00405309
0.0040373
0.00402084
0.00400374
0.00398608
0.00396791
0.00394929
0.00393028
0.00391094
0.00389134
0.00387155
0.00385164
0.00383168
0.00381174
0.00379188
0.00377216
0.00375264
0.00373335
0.00371438
0.00369579
0.00367753
0.00365928
0.00364019
0.00361971
6.70838e-08
5.88533e-06
4.12706e-05
9.36533e-05
0.000141508
0.000177708
0.000202507
0.000217678
0.00022517
0.000227135
0.000225246
0.000220714
0.000214375
0.000206524
0.000197946
0.000188395
0.00017828
0.000168639
0.000160271
0.000153406
0.000147843
0.000144508
0.000144295
0.000147706
0.00015475
0.000164931
0.00017736
0.000191049
0.00020517
0.000218469
0.000230151
0.000242373
0.000257196
0.000274538
0.000295534
0.000321746
0.000353716
0.000391913
0.000435934
0.000485584
0.000540325
0.000599761
0.000663226
0.000729914
0.000798832
0.000869102
0.000940082
0.00101136
0.00108267
0.00115336
0.00122391
0.00129407
0.00136347
0.00143192
0.00149935
0.00156569
0.00163091
0.001695
0.00175797
0.00181983
0.00188059
0.00194023
0.00199882
0.00205647
0.00211324
0.00216917
0.00222436
0.00227896
0.00233318
0.00238675
0.00243963
0.00249182
0.00254333
0.00259417
0.00264432
0.00269368
0.00274225
0.00279001
0.00283693
0.00288304
0.00292831
0.00297274
0.0030163
0.00305902
0.00310089
0.00314193
0.00318217
0.00322162
0.00326026
0.00329813
0.00333521
0.00337152
0.00340705
0.00344182
0.00347583
0.00350908
0.00354159
0.00357337
0.00360441
0.00363472
0.00366431
0.00369317
0.00372132
0.00374874
0.00377545
0.00380143
0.0038267
0.00385125
0.00387508
0.00389819
0.00392057
0.00394223
0.00396317
0.00398339
0.00400291
0.00402171
0.00403982
0.00405723
0.00407397
0.00409004
0.00410544
0.00412021
0.00413434
0.00414785
0.0041608
0.0041731
0.00418472
0.00419579
0.0042063
0.00421624
0.00422558
0.00423429
0.00424238
0.00424978
0.0042564
0.00426226
0.00426737
0.00427169
0.0042752
0.00427787
0.00427968
0.00428059
0.00428058
0.00427962
0.0042777
0.00427477
0.00427084
0.00426589
0.00425992
0.00425292
0.0042449
0.00423586
0.00422583
0.00421482
0.00420286
0.00418998
0.00417621
0.00416159
0.00414617
0.00413
0.00411312
0.0040956
0.00407749
0.00405885
0.00403974
0.00402024
0.00400042
0.00398034
0.00396008
0.00393972
0.00391931
0.00389895
0.0038787
0.00385862
0.00383882
0.00381937
0.00380027
0.00378136
0.00376188
0.00374251
1.10327e-07
1.01866e-05
5.44666e-05
0.000111764
0.000161845
0.00019796
0.000220235
0.000231755
0.000235535
0.000234018
0.000229057
0.000221735
0.000213233
0.000204122
0.000194738
0.000185926
0.000177572
0.000171132
0.000166846
0.000164438
0.000164242
0.000166602
0.000171617
0.000179104
0.000188668
0.00019981
0.000212035
0.000224383
0.000236152
0.000248432
0.000263385
0.000281021
0.000301076
0.000325103
0.000353775
0.000387731
0.000426979
0.000471376