/*--------------------------------*- C++ -*----------------------------------*\
  =========                 |
  \\      /  F ield         | OpenFOAM: The Open Source CFD Toolbox
   \\    /   O peration     | Website:  https://openfoam.org
    \\  /    A nd           | Version:  13
     \\/     M anipulation  |
\*---------------------------------------------------------------------------*/
FoamFile
{
    format      ascii;
    class       volScalarField;
    location    "300";
    object      omega;
}
// * * * * * * * * * * * * * * * * * * * * * * * * * * * * * * * * * * * * * //

dimensions      [0 0 -1 0 0 0 0];

internalField   nonuniform List<scalar> 
12225
(
31477.7
31477.7
31477.7
31477.7
31477.7
42016
38429.4
31477.7
47335.3
42708.5
31477.7
31477.7
41995.2
41679.4
44589.4
39336.9
31477.7
31477.7
6400.52
16782.4
14388.4
14249.9
17083.3
16703.1
16704
16424.4
17947.2
18502.9
18148
17875.4
18958.4
19467.2
20121.1
19487.5
19078.5
18728.1
3051.47
3629.57
5212.64
10016.4
12736.9
9335.92
12377.5
8776.04
8738.45
8764.11
10999
11562.9
11527.9
10973.8
10930.5
10555.6
10203.3
9898.44
38361.1
9354.81
4643.07
4721.51
5101.47
5219.06
5419.62
7211.1
8091.56
7963.49
7731.33
7390.98
7131.77
6842.53
6563.84
6429.6
6258.85
6176.27
62689.5
27777.2
18226
10267.3
7887.57
7073.72
6500.89
6801.85
5788.89
6233.43
6230.56
6046.63
5766.94
5571.01
5324.97
5210.27
5008.34
4924.42
25945.2
13118.3
10105.9
6051.21
4345.71
4018.44
3371.99
3467.08
3551.34
4148.03
4474.34
4465.62
4258.28
4090.4
3866
3759.59
3572.61
3507.27
6696.79
4279.78
2776.92
2265.05
2178.22
2105.78
2306.19
2397.02
2664.15
2430.31
2574.78
2632.69
2587.14
2537.3
2451.88
2411.68
2327.33
2305.29
1376.97
1766.21
1306.11
1173.61
1155.39
1165.52
1217.35
1262.3
1340.73
1439.62
1423.55
1462.36
1478.42
1481.29
1459.71
1447.61
1416.39
1414.74
612.765
776.537
663.447
668.426
700.253
744.018
786.071
822.125
841.706
861.334
871.659
877.529
884.701
888.939
899.79
892.772
900.552
898.608
468.184
490.674
484.998
490.183
513.45
534.54
560.066
580.691
591.366
598.173
603.97
608.071
613.398
617.876
624.147
628.242
631.586
638.132
438.642
448.274
447.427
445.812
453.035
458.437
469.802
477.89
483.646
486.237
488.898
492.11
495.414
498.689
501.924
504.512
507.622
511.712
439.407
437.888
437.029
435.859
435.98
436.864
440.156
442.242
445.285
445.288
446.171
447.22
448.822
449.979
451.595
452.651
453.987
456.119
439.027
436.989
434.893
433.057
431.587
430.455
429.841
429.439
429.064
428.644
428.366
428.16
428.167
428.176
428.13
428.056
428.362
428.495
438.999
436.801
434.686
432.711
430.848
429.142
427.556
426.128
424.788
423.578
422.461
421.474
420.536
419.709
418.806
418.067
417.159
416.53
438.999
436.778
434.659
432.663
430.756
428.959
427.242
425.624
424.083
422.634
421.261
419.973
418.749
417.597
416.48
415.43
414.387
413.417
439
436.774
434.657
432.65
430.741
428.93
427.205
425.566
424.004
422.519
421.105
419.759
418.477
417.256
416.09
414.978
413.912
412.895
439
436.772
434.655
432.645
430.735
428.92
427.193
425.551
423.986
422.497
421.077
419.724
418.433
417.202
416.027
414.907
413.835
412.814
438.999
436.769
434.65
432.638
430.726
428.909
427.18
425.535
423.969
422.477
421.055
419.699
418.407
417.173
415.996
414.873
413.8
412.776
439
436.771
434.653
432.642
430.73
428.913
427.185
425.54
423.974
422.482
421.059
419.703
418.41
417.176
415.998
414.874
413.8
412.775
438.998
436.773
434.659
432.647
430.736
428.92
427.195
425.555
423.994
422.507
421.088
419.733
418.439
417.204
416.024
414.897
413.822
412.794
438.941
436.821
434.775
432.704
430.797
428.986
427.306
425.737
424.252
422.826
421.443
420.093
418.785
417.512
416.302
415.13
414.029
412.957
438.426
438.047
437.368
433.911
432.571
430.41
429.085
428.341
427.554
426.81
425.681
424.284
422.743
421.085
419.563
417.893
416.504
414.895
443.442
456.553
480.313
452.165
471.017
451.56
449.663
453.274
454.281
461.016
459.205
456.893
453.85
450.561
447.228
441.919
438.25
431.672
506.273
736.654
783.762
595.135
740.88
610.091
603.189
608.982
615.656
627.439
623.248
637.645
633.746
627.046
606.873
580.773
555.962
524.337
1252.35
3361.73
3212.37
1957.34
2490.66
1842.51
1902.89
1805.88
1714.93
1625.95
1353.68
1379.36
1246.98
1116.15
1009.28
925.688
876.437
802.733
4704.98
0.271012
7552.73
8405.86
8292.91
7848.24
6106.4
5830.81
5510.34
4420.14
3524.49
2989.92
2644.16
2341.5
2082.58
1838.56
1660.13
1486.66
14003.8
16565.3
18245.2
17161.2
21932.9
16768.1
12414.3
11746.1
10747.5
9900.48
9885.65
8521.59
6738.24
5464.39
4622.44
4000.32
3450.39
3051.42
94474.5
63210.3
47943.8
30309.9
15195.2
17027.7
24332.2
23537.9
19204.4
14959.7
11695
9596.31
8027.65
7166.95
6729.95
6504.4
6262.25
6074.02
384834
209096
80728.2
33240
18093.4
2158.39
12935.3
19290.8
21632.7
21999.9
20056
16005.8
14273.3
14535.1
13010.5
12880.1
11814.3
11821.7
18117.5
23168.2
25324.6
26403.7
26717.5
26640.1
26474.5
26115.5
25717.3
25300.3
24894.8
24516.9
24169.5
23864.9
23615.5
23424.8
23279.4
23173.7
11463.2
2514.24
2516.41
2518.61
2520.83
2523.07
2525.32
2527.6
2529.9
2532.22
2534.57
2536.93
2539.31
2541.72
2544.15
2546.6
2549.08
2551.57
2554.09
2556.64
2559.2
2561.79
2564.41
2567.05
2569.71
2572.4
2575.12
2577.86
2580.62
2583.41
2586.23
2589.08
2591.95
2594.85
2597.77
2600.73
2603.71
2606.72
2609.76
2612.82
2615.92
2619.05
2622.2
2625.39
2628.61
2631.86
2635.14
2638.45
2641.79
2645.17
2648.58
2652.02
2655.5
2659.01
2662.55
2666.13
2669.74
2673.39
2677.08
3241.86
3422.9
2688.35
3344.92
3428.27
3519.43
3616.59
3697
3781.67
3858.14
3934.8
4006.98
4078.22
4146.68
4213.89
4279.16
4343.19
4405.69
4467.03
4527.07
4586.03
4643.83
4700.6
4756.28
4810.96
4864.59
4917.22
4968.79
5019.35
5068.83
5117.24
5164.53
5210.67
5255.62
5299.34
5341.8
5382.95
5422.81
5461.41
5498.91
5535.57
5571.86
5606.8
5640.9
5673.94
5706.01
5737.06
5767.08
5796.05
5823.95
5850.77
5876.49
5901.09
5924.55
5946.87
5968.01
5987.99
6006.79
6024.39
6040.81
6056.04
6070.11
6083.05
6094.94
6105.94
6116.41
6125.85
6132.33
6134.2
6142.64
6140.17
6145.59
6137.65
6137.89
6133.81
6129.5
6123.57
6116.61
6108.32
6098.86
6088.03
6075.86
6063.03
6048.38
6033.25
6016.88
5999.71
5981.67
5962.87
5943.29
5923.3
5902.42
5881.44
5859.65
5837.73
5815.44
5793.03
5770.77
5748.74
5727.06
5705.86
5685.26
5665.27
5646.04
5627.68
5610.26
5593.85
5578.53
5564.38
5551.5
5539.91
5529.56
5520.56
5512.71
5505.7
5499.34
5492.56
5484.4
5472.71
5455.42
5356.95
11463.2
1992.8
977.842
781.396
657.526
601.611
604.401
598.676
583.695
561.284
536.836
514.073
495.081
480.388
470.398
464.886
463.537
473.639
486.531
529.35
598.15
684.783
781.597
880.719
974.427
1053.08
1111.6
1134.12
1120.27
1083.07
995.95
883.894
733.175
626.623
552.94
492.186
457.921
452.157
459.436
485.312
516.732
551.33
588.957
692.673
844.162
1083.97
1411.87
1701.08
1897.46
2024.34
2080.35
2093.14
2073.52
2047.24
1994.66
1925.88
1870.4
1814.79
1782.51
1780.47
1748.71
1708.08
1727.66
1710.19
1705.83
1702.54
1701.24
1702.34
1704.59
1708.4
1713.21
1718.89
1725.23
1732.09
1739.33
1746.86
1754.58
1762.46
1770.4
1778.39
1786.36
1794.3
1802.18
1809.96
1817.63
1825.16
1832.54
1839.75
1846.77
1853.59
1860.2
1866.6
1872.79
1878.8
1884.65
1890.42
1896.23
1902.24
1908.74
1916.08
1924.85
1932.88
1940.92
1948.61
1956.11
1963.33
1970.32
1977.04
1983.51
1989.72
1995.67
2001.36
2006.79
2011.95
2016.85
2021.48
2025.86
2029.98
2033.84
2037.46
2040.83
2043.95
2046.84
2049.5
2051.92
2054.02
2055.69
2057.14
2058.74
2059.43
2060.47
2060.72
2060.62
2058.3
2057.71
2055.87
2052.75
2051.09
2048.6
2043.84
2042.32
2037.03
2035.09
2029.21
2026
2021.04
2017.2
2011.74
2008.3
2001.92
1998.1
1991.81
1987.19
1981.41
1976.1
1970.79
1965.39
1960.15
1954.89
1949.91
1944.97
1940.22
1935.68
1931.35
1927.23
1923.36
1919.78
1916.42
1913.33
1910.56
1908.11
1906.08
1904.54
1903.44
1902.85
1902.5
1902.98
1904.51
1905.76
1917.75
11463.2
2006.2
807.095
620.03
646.301
642.913
612.546
556.18
498.474
444.497
400.044
364.083
335.158
312.112
294.119
280.224
270.173
262.96
260.084
262.256
268.23
283.632
308.434
343.063
386.417
436.604
488.61
537.521
573.041
593.779
587.832
569.003
526.551
471.839
413.555
371.437
371.207
387.965
419.658
469.45
551.479
668.965
833.516
1028.77
1203.76
1353.19
1484.71
1563.73
1585.06
1578.37
1526.8
1471.48
1411.25
1358.4
1304.5
1257.8
1220.71
1190.13
1170
1157.08
1146.26
1134.51
1131.97
1126.54
1124.88
1124.27
1124.45
1125.95
1127.87
1130.5
1133.52
1136.9
1140.56
1144.42
1148.44
1152.58
1156.8
1161.08
1165.4
1169.73
1174.06
1178.38
1182.67
1186.92
1191.13
1195.29
1199.39
1203.42
1207.4
1211.31
1215.16
1218.96
1222.72
1226.47
1230.22
1234
1237.86
1241.82
1245.92
1250.16
1254.41
1258.44
1262.38
1266.16
1269.82
1273.32
1276.68
1279.9
1282.97
1285.89
1288.66
1291.28
1293.75
1296.07
1298.24
1300.26
1302.12
1303.84
1305.4
1306.81
1308.07
1309.17
1310.12
1310.9
1311.53
1312
1312.31
1312.49
1312.55
1312.43
1312.14
1311.26
1310.88
1309.19
1308.11
1306.67
1304.82
1303.26
1301.61
1299.07
1297.51
1294.69
1292.92
1290.02
1287.71
1284.95
1282.43
1279.41
1276.98
1273.68
1271.11
1267.84
1265.02
1261.9
1258.9
1255.92
1252.94
1250.03
1247.14
1244.36
1241.63
1239
1236.46
1234.04
1231.72
1229.53
1227.46
1225.53
1223.73
1222.1
1220.65
1219.45
1218.52
1217.91
1217.66
1217.65
1218.35
1220.03
1223.02
1234.97
11463.2
2044.38
996.35
926.614
850.199
725.467
614.052
514.565
438.462
382.335
339.087
304.709
277.669
256.558
240.177
227.506
217.858
210.717
205.769
203.226
203.394
206.144
211.072
221.693
237.551
259.236
285.891
315.854
344.432
368.22
384.44
385.829
379.26
364.767
374.49
427.444
521.706
591.596
655.202
734.396
845.639
980.825
1092.14
1171.64
1241.28
1293.63
1311.73
1270.21
1231.19
1181.32
1126.31
1080.61
1038.97
1005.52
976.083
952.82
934.711
920.982
911.667
905.211
900.589
897.053
895.723
895.048
895.142
896.184
897.726
899.765
902.111
904.772
907.646
910.704
913.903
917.213
920.611
924.076
927.591
931.142
934.716
938.303
941.892
945.477
949.05
952.604
956.135
959.64
963.115
966.559
969.972
973.354
976.709
980.04
983.353
986.653
989.947
993.24
996.536
999.83
1003.11
1006.36
1009.51
1012.55
1015.5
1018.33
1021.05
1023.67
1026.17
1028.55
1030.82
1032.98
1035.01
1036.92
1038.72
1040.39
1041.93
1043.36
1044.66
1045.83
1046.88
1047.8
1048.59
1049.25
1049.77
1050.16
1050.41
1050.51
1050.5
1050.48
1050.22
1049.82
1049.31
1048.46
1047.72
1046.56
1045.43
1044.12
1042.63
1041.14
1039.57
1037.68
1036
1033.9
1032.05
1029.85
1027.75
1025.5
1023.28
1020.89
1018.63
1016.12
1013.78
1011.25
1008.82
1006.32
1003.84
1001.39
998.952
996.552
994.182
991.871
989.61
987.411
985.283
983.231
981.257
979.367
977.568
975.863
974.256
972.764
971.403
970.205
969.199
968.441
967.879
967.694
968.023
969.083
971.444
979.07
11463.2
2304.64
1402.71
1119.12
887.57
687.564
534.146
432.48
362.304
311.705
274.876
247.943
228.102
213.231
201.928
193.244
186.599
181.632
178.121
175.994
175.61
176.404
178.573
183.583
191.501
203
218.506
237.734
258.238
276.587
292.638
309.696
343.102
417.122
520.843
609.076
681.795
755.94
835.76
911.425
977.731
1034.43
1083.16
1114.93
1123.83
1093.66
1047.92
1008.82
966.306
926.897
891.691
863.678
839.814
821.02
805.553
793.777
784.996
778.794
774.775
772.491
771.415
771.083
771.556
772.771
774.498
776.666
779.145
781.883
784.816
787.918
791.15
794.488
797.912
801.407
804.958
808.553
812.183
815.837
819.507
823.186
826.867
830.543
834.208
837.859
841.49
845.099
848.683
852.24
855.768
859.267
862.737
866.178
869.589
872.971
876.322
879.638
882.913
886.138
889.298
892.383
895.379
898.279
901.084
903.789
906.393
908.894
911.288
913.575
915.752
917.817
919.77
921.609
923.332
924.937
926.422
927.788
929.031
930.152
931.148
932.017
932.756
933.365
933.84
934.179
934.377
934.431
934.405
934.32
934.025
933.579
933.01
932.239
931.41
930.375
929.254
927.999
926.606
925.136
923.567
921.83
920.082
918.156
916.232
914.167
912.073
909.894
907.681
905.382
903.09
900.7
898.333
895.899
893.479
891.036
888.599
886.173
883.763
881.377
879.02
876.703
874.429
872.206
870.039
867.933
865.892
863.919
862.02
860.198
858.464
856.824
855.287
853.873
852.607
851.524
850.641
850.042
849.887
850.356
851.742
856.117
11463.2
2840.95
1649.29
1145.11
796.759
569.149
435.844
351.226
296.764
261.369
236.701
218.124
203.674
192.223
183.078
175.808
170.156
165.954
163.03
161.367
161.082
161.777
163.771
167.666
173.649
182.465
194.911
211.996
234.112
264.098
306.162
367.443
464.994
571.247
655.115
723.976
788.871
844.96
889.162
926.897
962.885
982.743
986.215
960.693
929.364
896.464
860.796
829.276
799.277
774.242
753.229
736.504
722.884
712.322
704.192
698.381
694.484
692.383
691.615
691.569
692.466
694.021
696.124
698.67
701.55
704.693
708.04
711.547
715.182
718.924
722.751
726.65
730.609
734.617
738.666
742.747
746.853
750.977
755.111
759.247
763.38
767.504
771.612
775.701
779.765
783.802
787.807
791.78
795.715
799.612
803.469
807.283
811.052
814.774
818.443
822.055
825.604
829.078
832.473
835.782
838.999
842.121
845.146
848.069
850.889
853.603
856.207
858.698
861.075
863.334
865.475
867.497
869.396
871.171
872.818
874.338
875.727
876.984
878.107
879.094
879.942
880.65
881.215
881.633
881.903
882.014
882.036
881.97
881.696
881.266
880.694
879.956
879.096
878.078
876.934
875.654
874.24
872.711
871.066
869.288
867.425
865.436
863.375
861.213
858.983
856.676
854.31
851.875
849.403
846.871
844.317
841.723
839.117
836.495
833.87
831.25
828.642
826.052
823.486
820.954
818.46
816.009
813.609
811.262
808.973
806.744
804.58
802.484
800.464
798.523
796.672
794.924
793.3
791.826
790.531
789.461
788.764
788.552
789.113
791.198
11463.2
3311.64
1698.24
1001.53
639.218
453.716
352.478
294
257.371
232.61
214.67
201.075
190.196
181.173
173.638
167.416
162.427
158.653
156.217
155.151
155.458
157.101
160.607
166.163
174.3
186.014
202.94
228.737
267.933
327.32
415.831
514.032
596.243
664.127
724.033
773.385
811.784
843.152
869.73
881.698
882.014
861.71
839.331
813.47
786.822
760.278
734.807
712.766
693.573
677.927
665.222
655.21
647.46
641.786
637.865
635.711
634.916
634.898
635.951
637.759
640.211
643.153
646.492
650.145
654.041
658.126
662.359
666.709
671.155
675.678
680.265
684.908
689.597
694.326
699.087
703.874
708.679
713.495
718.314
723.128
727.932
732.717
737.477
742.208
746.905
751.562
756.178
760.748
765.268
769.735
774.147
778.5
782.79
787.015
791.171
795.253
799.259
803.183
807.023
810.768
814.415
817.958
821.396
824.724
827.938
831.035
834.012
836.865
839.59
842.185
844.645
846.966
849.144
851.182
853.078
854.83
856.437
857.896
859.205
860.362
861.366
862.214
862.902
863.429
863.793
863.987
864.054
864.017
863.767
863.345
862.761
862.01
861.107
860.046
858.835
857.476
855.969
854.325
852.547
850.633
848.602
846.448
844.19
841.818
839.347
836.789
834.155
831.449
828.687
825.868
823.01
820.115
817.195
814.258
811.313
808.369
805.432
802.511
799.612
796.742
793.908
791.115
788.368
785.672
783.03
780.444
777.92
775.46
773.07
770.754
768.52
766.38
764.349
762.451
760.711
759.15
757.858
756.985
756.622
757.133
11463.2
3461.75
1528.62
812.516
517.592
382.249
312.13
270.467
242.75
223.104
208.242
196.412
186.507
178.181
171.245
165.629
161.378
158.62
157.288
157.417
159.083
162.86
169.27
178.866
194.362
218.235
252.722
306.884
381.278
463.01
535.149
597.473
651.781
698.715
737.015
768.564
791.941
801.803
799.966
784.575
768.025
747.792
727.731
707.017
686.591
667.172
649.781
635.08
622.861
613.063
605.368
599.564
595.443
592.963
591.906
591.764
592.682
594.486
597.067
600.264
603.97
608.083
612.522
617.22
622.121
627.181
632.367
637.654
643.023
648.459
653.951
659.49
665.07
670.682
676.321
681.982
687.655
693.331
699.003
704.66
710.294
715.899
721.466
726.989
732.463
737.882
743.244
748.544
753.777
758.939
764.027
769.037
773.966
778.811
783.567
788.233
792.806
797.288
801.668
805.936
810.09
814.124
818.035
821.82
825.475
828.996
832.378
835.619
838.714
841.66
844.454
847.095
849.578
851.903
854.067
856.067
857.903
859.571
861.07
862.397
863.551
864.529
865.328
865.946
866.381
866.624
866.713
866.668
866.399
865.939
865.293
864.464
863.459
862.279
860.927
859.407
857.721
855.876
853.877
851.728
849.439
847.015
844.468
841.8
839.033
836.169
833.216
830.185
827.084
823.923
820.713
817.462
814.181
810.879
807.566
804.249
800.938
797.639
794.361
791.11
787.892
784.715
781.581
778.496
775.463
772.487
769.569
766.716
763.929
761.216
758.582
756.036
753.592
751.272
749.074
747.013
745.155
743.613
742.446
741.613
11463.2
3348.28
1286.76
667.623
442.463
342.159
288.835
257.112
235.849
219.58
206.777
196.452
188.016
181.056
175.438
171.203
168.52
167.571
168.678
172.101
178.048
188.005
202.873
224.447
257.164
303.065
361.292
423.731
483.374
537.868
585.964
628.443
664.37
695.413
720.456
731.571
732.152
721.249
709.051
693.293
677.868
661.935
646.307
630.702
615.775
602.195
590.529
580.87
573.065
566.999
562.527
559.519
558.036
557.621
558.171
559.739
562.192
565.4
569.26
573.665
578.524
583.754
589.286
595.06
601.026
607.146
613.389
619.733
626.159
632.651
639.195
645.782
652.403
659.049
665.713
672.395
679.082
685.763
692.427
699.063
705.662
712.215
718.714
725.151
731.517
737.805
744
750.114
756.145
762.088
767.941
773.698
779.356
784.91
790.359
795.698
800.924
806.029
811.011
815.864
820.584
825.166
829.607
833.903
838.049
842.04
845.874
849.544
853.048
856.381
859.54
862.522
865.325
867.946
870.383
872.634
874.697
876.569
878.248
879.732
881.019
882.107
882.993
883.674
884.148
884.403
884.486
884.39
884.056
883.507
882.749
881.783
880.617
879.251
877.691
875.939
873.999
871.878
869.58
867.113
864.487
861.709
858.79
855.74
852.57
849.291
845.911
842.442
838.895
835.281
831.611
827.897
824.15
820.379
816.595
812.808
809.025
805.255
801.505
797.783
794.095
790.448
786.845
783.292
779.793
776.351
772.971
769.656
766.41
763.238
760.146
757.141
754.233
751.443
748.794
746.254
743.882
741.76
739.889
738.07
11463.2
2988.45
1058.51
573.968
405.324
326.516
282.377
254.808
236.013
222.599
212.303
204.071
197.451
192.34
188.86
187.42
188.308
192.418
199.762
210.151
224.183
243.995
271.151
306.715
349.459
396.286
443.527
488.252
529.315
566.522
598.693
627.196
652.868
667.326
670.872
665.877
657.649
646.004
634.196
621.984
610.189
598.38
586.738
575.37
564.812
555.505
547.686
541.37
536.5
533.003
530.926
530.115
530.152
531.314
533.431
536.426
540.208
544.682
549.759
555.353
561.388
567.793
574.504
581.462
588.619
595.936
603.382
610.934
618.585
626.299
634.061
641.859
649.681
657.511
665.33
673.105
680.856
688.596
696.315
704
711.637
719.218
726.732
734.172
741.527
748.793
755.971
763.043
770
776.838
783.554
790.143
796.601
802.927
809.117
815.168
821.077
826.841
832.459
837.926
843.237
848.388
853.375
858.192
862.836
867.302
871.585
875.68
879.584
883.291
886.798
890.102
893.2
896.091
898.772
901.241
903.495
905.533
907.351
908.947
910.321
911.47
912.391
913.083
913.537
913.75
913.772
913.561
913.098
912.395
911.455
910.282
908.881
907.255
905.41
903.347
901.072
898.592
895.913
893.045
889.996
886.778
883.402
879.879
876.221
872.441
868.549
864.559
860.483
856.334
852.126
847.87
843.58
839.265
834.937
830.607
826.283
821.973
817.685
813.427
809.207
805.028
800.898
796.821
792.801
788.843
784.952
781.131
777.383
773.714
770.127
766.627
763.224
759.93
756.75
753.692
750.778
748.072
745.54
742.811
11463.2
2555.61
894.941
514.589
378.982
315.428
279.894
257.837
243.183
232.703
224.855
218.968
214.881
212.992
213.224
216.6
223.712
234.37
247.33
263.682
285.254
312.117
343.486
377.946
413.675
448.976
482.625
513.856
541.696
566.951
590.492
607.088
613.591
613.925
610.045
602.948
594.627
585.697
576.981
568.309
559.735
551.12
542.627
534.516
527.168
520.869
515.764
511.884
509.204
507.869
507.531
508.172
509.839
512.484
516.03
520.403
525.522
531.308
537.684
544.574
551.913
559.654
567.725
576.056
584.6
593.314
602.153
611.06
619.964
628.93
637.953
647.021
656.117
665.22
674.318
683.417
692.499
701.551
710.556
719.489
728.339
737.098
745.759
754.311
762.743
771.044
779.204
787.219
795.086
802.801
810.362
817.764
825.006
832.086
839
845.749
852.329
858.74
864.979
871.041
876.921
882.613
888.114
893.417
898.519
903.415
908.101
912.57
916.819
920.842
924.636
928.198
931.525
934.616
937.469
940.082
942.453
944.579
946.458
948.088
949.468
950.596
951.471
952.09
952.442
952.545
952.406
951.998
951.321
950.377
949.17
947.703
945.98
944.006
941.786
939.324
936.625
933.696
930.547
927.187
923.627
919.88
915.957
911.873
907.64
903.273
898.784
894.188
889.501
884.738
879.912
875.038
870.129
865.198
860.255
855.312
850.378
845.463
840.574
835.719
830.905
826.139
821.425
816.77
812.18
807.659
803.213
798.844
794.556
790.352
786.235
782.21
778.282
774.461
770.751
767.159
763.7
760.42
757.275
753.725
11463.2
2177.39
821.738
497.083
374.525
316.479
285.753
267.622
256.078
248.38
243.242
240.441
239.703
241.401
246.163
254.347
265.888
279.888
296.367
316.245
339.266
364.628
391.329
418.37
444.928
470.218
493.373
514.978
535.563
552.403
561.425
564.467
564.647
561.802
557.253
551.659
545.765
539.774
533.806
527.761
521.632
515.462
509.451
503.867
498.994
495.039
492.111
490.365
489.72
489.973
491.302
493.622
496.903
501.112
506.215
512.155
518.821
526.145
534.055
542.475
551.315
560.444
569.846
579.543
589.502
599.68
610.037
620.545
631.195
641.913
652.662
663.422
674.18
684.886
695.521
706.078
716.545
726.9
737.133
747.244
757.232
767.097
776.835
786.438
795.889
805.175
814.282
823.205
831.94
840.484
848.837
856.996
864.96
872.729
880.301
887.677
894.856
901.836
908.615
915.188
921.55
927.694
933.614
939.307
944.766
949.988
954.968
959.701
964.182
968.406
972.369
976.069
979.503
982.672
985.573
988.206
990.569
992.659
994.475
996.015
997.279
998.264
998.971
999.396
999.54
999.405
998.987
998.279
997.277
995.984
994.402
992.534
990.384
987.959
985.262
982.299
979.076
975.601
971.884
967.937
963.772
959.403
954.844
950.109
945.212
940.17
934.999
929.715
924.336
918.879
913.359
907.792
902.191
896.571
890.943
885.32
879.711
874.127
868.575
863.064
857.599
852.189
846.838
841.556
836.349
831.222
826.179
821.224
816.358
811.585
806.907
802.326
797.845
793.475
789.218
785.078
781.066
777.217
773.493
769.194
11463.2
1913.63
757.028
476.453
371.288
322.115
296.201
281.474
272.795
267.923
265.865
265.728
268.111
273.137
280.967
291.45
304.197
318.88
335.668
354.15
373.907
394.357
414.71
434.366
452.94
470.82
488.275
503.19
513.492
519.032
521.349
521.914
520.915
518.667
515.703
512.344
508.789
505.066
501.185
497.147
493.026
488.959
485.153
481.839
479.227
477.576
476.939
477.207
478.641
481.043
484.408
488.71
493.912
499.95
506.7
514.079
522.197
531.024
540.5
550.556
561.129
572.188
583.663
595.479
607.583
619.93
632.459
645.127
657.912
670.697
683.413
696.001
708.41
720.638
732.678
744.532
756.209
767.712
779.032
790.168
801.131
811.941
822.603
833.107
843.433
853.558
863.463
873.14
882.581
891.784
900.754
909.495
918.006
926.289
934.344
942.171
949.77
957.142
964.284
971.19
977.854
984.268
990.427
996.325
1001.96
1007.32
1012.4
1017.21
1021.73
1025.97
1029.91
1033.56
1036.91
1039.96
1042.72
1045.18
1047.35
1049.22
1050.79
1052.06
1053.04
1053.71
1054.08
1054.14
1053.92
1053.38
1052.54
1051.39
1049.92
1048.14
1046.05
1043.65
1040.95
1037.95
1034.65
1031.08
1027.22
1023.09
1018.7
1014.07
1009.2
1004.11
998.82
993.344
987.695
981.892
975.954
969.902
963.755
957.528
951.241
944.909
938.547
932.17
925.791
919.423
913.077
906.763
900.49
894.266
888.095
881.988
875.952
869.997
864.13
858.357
852.68
847.102
841.625
836.252
830.982
825.816
820.758
815.818
810.997
806.294
801.724
797.307
793.024
788.002
11463.2
1898.57
752.51
478.066
378.203
332.857
310.025
297.829
291.616
289.063
288.688
290.754
295.195
301.86
310.6
321.094
333.021
346.172
360.337
375.198
390.348
405.334
419.822
434.084
448.388
460.904
470.165
476.858
481.557
484.602
486.143
486.744
486.768
486.074
485.062
483.747
482.186
480.417
478.499
476.537
474.712
473.246
472.201
471.76
471.916
472.966
474.856
477.485
480.723
484.912
490.114
496.325
503.515
511.648
520.708
530.677
541.47
553.034
565.284
578.137
591.522
605.379
619.624
634.172
648.964
663.988
679.095
694.172
709.105
723.851
738.345
752.524
766.348
779.8
792.886
805.626
818.071
830.277
842.221
853.905
865.372
876.678
887.85
898.867
909.691
920.286
930.625
940.692
950.477
959.961
969.179
978.137
986.838
995.282
1003.47
1011.41
1019.09
1026.53
1033.7
1040.62
1047.27
1053.64
1059.73
1065.53
1071.03
1076.24
1081.13
1085.72
1089.99
1093.95
1097.58
1100.89
1103.88
1106.54
1108.88
1110.91
1112.62
1114.01
1115.08
1115.83
1116.28
1116.39
1116.2
1115.71
1114.89
1113.75
1112.28
1110.5
1108.38
1105.94
1103.18
1100.09
1096.68
1092.96
1088.94
1084.62
1080
1075.1
1069.93
1064.5
1058.82
1052.92
1046.81
1040.5
1034.01
1027.36
1020.59
1013.69
1006.71
999.644
992.524
985.362
978.175
970.979
963.788
956.615
949.474
942.376
935.329
928.34
921.414
914.563
907.799
901.131
894.568
888.113
881.769
875.536
869.418
863.416
857.527
851.75
846.091
840.566
835.164
829.885
824.727
819.707
814.847
809.123
11463.2
1858.43
741.635
480.988
387.507
346.053
325.662
315.3
310.417
308.74
308.878
311.609
316.42
323.005
331.035
340.119
350.017
360.556
371.538
382.728
393.881
404.939
415.994
425.689
433.732
440.471
446.311
451.155
455.164
458.505
461.341
463.902
466.15
468.024
469.575
470.846
471.89
472.764
473.539
474.275
474.978
475.527
476.549
478.3
480.988
484.745
489.514
495.319
502.258
510.288
519.429
529.675
540.97
553.255
566.486
580.614
595.587
611.366
627.735
644.56
661.731
679.151
696.725
714.357
731.945
749.345
766.536
783.445
799.978
816.04
831.525
846.366
860.567
874.15
887.143
899.596
911.628
923.517
935.063
946.274
957.256
968.168
979.057
989.847
1000.45
1010.82
1020.9
1030.68
1040.16
1049.36
1058.28
1066.92
1075.28
1083.35
1091.14
1098.66
1105.91
1112.89
1119.61
1126.05
1132.21
1138.08
1143.65
1148.91
1153.85
1158.47
1162.76
1166.72
1170.34
1173.62
1176.55
1179.14
1181.37
1183.27
1184.81
1186.03
1186.92
1187.48
1187.69
1187.57
1187.16
1186.41
1185.33
1183.94
1182.23
1180.2
1177.85
1175.17
1172.16
1168.82
1165.16
1161.16
1156.85
1152.23
1147.29
1142.06
1136.53
1130.71
1124.61
1118.25
1111.64
1104.8
1097.75
1090.51
1083.11
1075.55
1067.87
1060.08
1052.2
1044.24
1036.24
1028.19
1020.13
1012.06
1004
995.979
987.995
980.064
972.198
964.402
956.679
949.051
941.528
934.12
926.832
919.668
912.629
905.713
898.929
892.275
885.741
879.331
873.047
866.894
860.871
854.973
849.194
843.541
838.086
831.678
11463.7
1837.06
741.24
489.064
399.706
360.08
340.835
331.102
326.34
324.526
324.357
326.588
330.746
336.336
342.957
350.272
358.129
366.446
375.142
384.154
392.969
401.299
409.088
416.714
423.907
430.779
437.399
443.733
449.725
455.353
460.54
465.103
469.206
473.067
476.747
480.302
483.802
487.327
490.973
494.846
499.095
503.98
509.617
516.251
524.159
533.316
543.59
555.013
567.625
581.392
596.333
612.5
629.709
647.758
666.504
685.806
705.482
725.354
745.369
765.431
785.436
805.295
824.933
844.284
863.289
881.889
900.049
917.718
934.828
951.28
966.886
981.615
995.557
1008.77
1021.29
1033.1
1044.27
1054.92
1065
1074.6
1083.97
1093.57
1103.44
1113.28
1122.92
1132.26
1141.27
1149.93
1158.27
1166.34
1174.12
1181.58
1188.73
1195.57
1202.1
1208.36
1214.33
1220.05
1225.51
1230.71
1235.63
1240.27
1244.61
1248.64
1252.36
1255.75
1258.81
1261.54
1263.92
1265.96
1267.64
1268.97
1269.94
1270.55
1270.82
1270.74
1270.39
1269.67
1268.62
1267.25
1265.56
1263.56
1261.25
1258.63
1255.71
1252.49
1248.96
1245.11
1240.95
1236.48
1231.68
1226.57
1221.15
1215.44
1209.42
1203.12
1196.53
1189.65
1182.51
1175.11
1167.46
1159.59
1151.51
1143.24
1134.83
1126.28
1117.6
1108.82
1099.96
1091.02
1082.04
1073.02
1064
1054.98
1045.98
1037.02
1028.11
1019.27
1010.51
1001.85
993.296
984.861
976.549
968.369
960.325
952.417
944.647
937.014
929.519
922.157
914.924
907.828
900.867
894.043
887.352
880.791
874.351
868.03
861.952
854.871
11462.8
1819.4
742.639
497.607
409.676
370.723
352.059
342.103
337.03
334.947
334.579
336.368
340.046
345.049
351.101
358.028
365.52
373.429
381.678
390.09
398.784
407.594
416.313
425.116
433.957
442.906
452.01
461.217
470.338
479.418
488.464
497.562
506.691
515.854
525.092
534.461
544.035
553.901
564.151
574.882
586.238
598.39
611.361
625.212
639.901
655.471
672.111
689.797
708.507
728.227
749.031
770.46
792.368
814.662
837.185
859.756
882.182
904.289
925.945
947.036
967.491
987.265
1006.34
1024.7
1042.37
1059.37
1075.74
1091.5
1106.66
1121.2
1135.12
1148.24
1160.76
1172.75
1184.18
1194.98
1205.04
1214.21
1222.75
1230.84
1238.73
1246.82
1255
1262.96
1270.56
1277.75
1284.52
1290.87
1296.86
1302.51
1307.84
1312.85
1317.55
1321.97
1326.11
1330.01
1333.68
1337.14
1340.4
1343.44
1346.26
1348.84
1351.17
1353.24
1355.02
1356.51
1357.71
1358.62
1359.22
1359.49
1359.45
1359.11
1358.41
1357.4
1356.08
1354.46
1352.56
1350.36
1347.86
1345.07
1341.99
1338.63
1335
1331.09
1326.92
1322.47
1317.74
1312.73
1307.43
1301.84
1295.96
1289.78
1283.31
1276.57
1269.56
1262.28
1254.72
1246.9
1238.83
1230.5
1221.95
1213.17
1204.2
1195.04
1185.73
1176.28
1166.7
1157.02
1147.25
1137.42
1127.54
1117.64
1107.72
1097.81
1087.94
1078.1
1068.33
1058.63
1049.02
1039.52
1030.15
1020.91
1011.8
1002.83
994.003
985.315
976.773
968.374
960.121
952.02
944.074
936.276
928.623
921.11
913.733
906.491
899.374
892.374
885.659
877.946
11461.8
1807.35
745.587
501.22
415.525
377.775
360.049
350.523
346.142
344.583
344.728
347.758
352.524
358.689
365.921
374.244
383.751
393.638
404.098
415.489
428.01
441.165
454.919
469.459
484.808
500.944
517.796
535.239
553.276
571.846
590.864
610.27
629.914
649.677
669.514
689.426
709.451
729.678
750.164
770.831
791.721
812.855
834.231
855.849
877.716
900.017
923.361
947.238
971.466
995.891
1020.08
1044.01
1067.62
1090.79
1113.36
1135.09
1155.82
1175.48
1193.96
1211.19
1227.16
1241.9
1255.44
1267.87
1279.28
1289.79
1299.62
1308.8
1317.44
1325.66
1333.72
1341.71
1349.62
1357.35
1364.81
1371.83
1378.27
1384.32
1390.14
1395.86
1401.94
1407.72
1412.85
1417.4
1421.4
1424.97
1428.12
1430.89
1433.33
1435.48
1437.35
1438.96
1440.35
1441.53
1442.55
1443.43
1444.19
1444.83
1445.37
1445.77
1446.03
1446.13
1446.08
1445.85
1445.39
1444.69
1443.79
1442.65
1441.28
1439.64
1437.75
1435.6
1433.18
1430.51
1427.59
1424.43
1421.03
1417.4
1413.52
1409.4
1405.05
1400.46
1395.65
1390.62
1385.36
1379.87