/*--------------------------------*- C++ -*----------------------------------*\
  =========                 |
  \\      /  F ield         | OpenFOAM: The Open Source CFD Toolbox
   \\    /   O peration     | Website:  https://openfoam.org
    \\  /    A nd           | Version:  13
     \\/     M anipulation  |
\*---------------------------------------------------------------------------*/
FoamFile
{
    format      ascii;
    class       volScalarField;
    location    "300";
    object      p;
}
// * * * * * * * * * * * * * * * * * * * * * * * * * * * * * * * * * * * * * //

dimensions      [0 2 -2 0 0 0 0];

internalField   nonuniform List<scalar> 
12225
(
-4.93378
-5.79628
-6.20728
-6.35007
-6.48775
-6.64413
-6.77736
-6.88882
-6.99425
-7.08256
-7.15608
-7.22847
-7.29882
-7.37137
-7.44628
-7.51753
-7.59111
-7.68016
-5.21141
-5.8379
-6.18989
-6.32883
-6.4606
-6.61082
-6.74556
-6.85484
-6.95486
-7.04797
-7.12747
-7.19876
-7.26933
-7.34151
-7.41717
-7.49269
-7.55983
-7.60404
-5.38456
-5.82542
-6.16659
-6.33561
-6.47247
-6.61757
-6.74948
-6.8581
-6.95494
-7.0456
-7.1259
-7.19763
-7.26656
-7.33479
-7.40387
-7.46996
-7.5243
-7.55683
-5.52285
-5.84661
-6.16311
-6.34739
-6.48149
-6.6161
-6.74156
-6.84796
-6.94251
-7.03094
-7.11093
-7.18297
-7.25091
-7.31695
-7.38188
-7.44253
-7.49291
-7.52643
-5.66292
-5.89393
-6.17402
-6.35839
-6.49036
-6.61778
-6.73884
-6.84399
-6.93712
-7.02352
-7.10253
-7.17419
-7.24115
-7.30527
-7.36682
-7.42341
-7.47085
-7.50507
-5.77632
-5.95349
-6.19002
-6.36661
-6.49676
-6.61818
-6.73426
-6.83706
-6.9283
-7.01252
-7.09014
-7.1611
-7.22709
-7.28941
-7.34809
-7.40131
-7.44623
-7.48031
-5.87027
-6.00977
-6.2114
-6.37778
-6.50356
-6.61877
-6.72987
-6.8305
-6.92053
-7.00338
-7.07995
-7.1502
-7.21512
-7.27562
-7.33163
-7.38189
-7.42462
-7.45837
-5.95753
-6.06671
-6.23977
-6.39285
-6.51254
-6.62209
-6.72857
-6.82665
-6.91495
-6.99588
-7.07055
-7.13911
-7.20218
-7.26035
-7.31363
-7.36121
-7.40206
-7.43535
-6.0399
-6.12524
-6.27195
-6.41052
-6.5241
-6.62856
-6.73008
-6.82455
-6.91017
-6.98855
-7.06086
-7.1274
-7.18853
-7.24463
-7.29572
-7.34133
-7.3809
-7.41402
-6.1151
-6.18167
-6.30467
-6.42976
-6.53728
-6.63657
-6.73273
-6.82296
-6.90548
-6.9812
-7.05116
-7.11567
-7.17492
-7.22914
-7.27837
-7.32235
-7.36086
-7.39374
-6.18261
-6.23444
-6.33708
-6.44932
-6.55035
-6.64428
-6.73511
-6.82104
-6.90037
-6.97348
-7.04114
-7.10362
-7.16103
-7.21349
-7.26107
-7.30367
-7.34129
-7.37386
-6.23811
-6.27975
-6.36678
-6.46753
-6.56204
-6.65089
-6.73697
-6.819
-6.89537
-6.96608
-7.03162
-7.09223
-7.14797
-7.19891
-7.24513
-7.28664
-7.32354
-7.35582
-6.28775
-6.32193
-6.39585
-6.48579
-6.57364
-6.65742
-6.73887
-6.81704
-6.89042
-6.9587
-7.02212
-7.08086
-7.13495
-7.18445
-7.22942
-7.26994
-7.30619
-7.33818
-6.33816
-6.36615
-6.42786
-6.50663
-6.58692
-6.66496
-6.74128
-6.81509
-6.88502
-6.95047
-7.01147
-7.06809
-7.12033
-7.16823
-7.21188
-7.25137
-7.28691
-7.31855
-6.38745
-6.4103
-6.46131
-6.52926
-6.6015
-6.67333
-6.7442
-6.8133
-6.87938
-6.94167
-6.99997
-7.05424
-7.10447
-7.15066
-7.1929
-7.2313
-7.26608
-7.29731
-6.43276
-6.45149
-6.4937
-6.55194
-6.61626
-6.68179
-6.74718
-6.8115
-6.87356
-6.93251
-6.98796
-7.03978
-7.08789
-7.1323
-7.17309
-7.21036
-7.24433
-7.27508
-6.47001
-6.48564
-6.5212
-6.5716
-6.62898
-6.68876
-6.74916
-6.80906
-6.86731
-6.92303
-6.9757
-7.02512
-7.07117
-7.11385
-7.15321
-7.18936
-7.2225
-7.25274
-6.49307
-6.50673
-6.53812
-6.58339
-6.63596
-6.69158
-6.74828
-6.80484
-6.86013
-6.91324
-6.96364
-7.01104
-7.05533
-7.09648
-7.13456
-7.16968
-7.20199
-7.23166
-6.49208
-6.50527
-6.53573
-6.57987
-6.63126
-6.6857
-6.74123
-6.79664
-6.85078
-6.90276
-6.95203
-6.99833
-7.04155
-7.08171
-7.11887
-7.15319
-7.18483
-7.21401
-6.45858
-6.47368
-6.50808
-6.55692
-6.61239
-6.67004
-6.72821
-6.78581
-6.84163
-6.89478
-6.94477
-6.99144
-7.03473
-7.07474
-7.11157
-7.14545
-7.17658
-7.20526
-6.41037
-6.42873
-6.47018
-6.5271
-6.58925
-6.65212
-6.71475
-6.77615
-6.83499
-6.89037
-6.94197
-6.9897
-7.03364
-7.0739
-7.1107
-7.14433
-7.17507
-7.20327
-6.34837
-6.37199
-6.42466
-6.49317
-6.5639
-6.6333
-6.70171
-6.76809
-6.83081
-6.88908
-6.94278
-6.99199
-7.0368
-7.07743
-7.11422
-7.14757
-7.17784
-7.20548
-6.27442
-6.30613
-6.3751
-6.458
-6.53799
-6.6145
-6.68956
-6.76165
-6.82874
-6.89025
-6.9464
-6.99732
-7.04313
-7.08416
-7.12088
-7.15383
-7.18345
-7.21035
-6.18832
-6.23302
-6.32397
-6.42225
-6.51067
-6.59448
-6.67694
-6.75517
-6.82691
-6.89205
-6.95099
-7.00392
-7.05095
-7.09246
-7.1291
-7.1616
-7.19053
-7.21666
-6.09315
-6.15782
-6.27702
-6.38946
-6.48368
-6.57432
-6.66438
-6.74872
-6.82512
-6.89418
-6.95618
-7.01105
-7.05911
-7.1009
-7.13729
-7.16911
-7.19708
-7.22213
-5.98892
-6.08626
-6.23893
-6.36439
-6.46301
-6.56017
-6.65722
-6.74689
-6.82744
-6.90033
-6.9657
-7.02288
-7.07202
-7.11405
-7.14998
-7.18075
-7.20734
-7.23132
-5.87036
-6.01348
-6.20538
-6.33976
-6.4444
-6.55043
-6.65447
-6.74842
-6.83188
-6.90711
-6.97453
-7.03326
-7.08303
-7.12466
-7.15942
-7.18843
-7.21294
-7.23508
-5.73649
-5.97447
-6.1897
-6.31617
-6.42434
-6.54124
-6.65375
-6.75322
-6.84109
-6.91968
-6.98919
-7.04922
-7.09927
-7.13995
-7.17284
-7.19954
-7.22163
-7.24149
-5.55636
-5.95977
-6.20781
-6.31407
-6.41493
-6.53416
-6.64852
-6.74912
-6.83939
-6.92156
-6.99458
-7.05717
-7.10892
-7.15025
-7.1825
-7.20769
-7.22815
-7.24523
-5.2867
-5.88282
-6.19478
-6.31047
-6.41899
-6.54679
-6.66614
-6.76924
-6.86263
-6.94953
-7.02785
-7.09475
-7.14974
-7.19259
-7.22361
-7.24563
-7.26195
-7.27285
-8.12612
-8.12621
-8.12625
-8.12622
-8.12588
-8.12469
-8.12244
-8.11965
-8.11713
-8.1158
-8.11639
-8.11895
-8.12304
-8.12807
-8.13341
-8.1385
-8.14289
-8.14621
-8.14831
-8.14937
-8.14968
-8.14944
-8.14877
-8.14789
-8.14701
-8.14633
-8.14592
-8.14572
-8.14559
-8.14536
-8.14496
-8.1444
-8.14369
-8.14282
-8.14177
-8.14066
-8.13971
-8.13936
-8.14009
-8.14208
-8.14494
-8.14791
-8.15036
-8.15221
-8.15389
-8.156
-8.15914
-8.16301
-8.16645
-8.16916
-8.1736
-8.18384
-8.20361
-8.23265
-8.26943
-8.31409
-8.36757
-8.42919
-8.49742
-8.57038
-8.64527
-8.71985
-8.79286
-8.8631
-8.92918
-8.99055
-9.04691
-9.09816
-9.14431
-9.18546
-9.22169
-9.25315
-9.27989
-9.30204
-9.3196
-9.33264
-9.34112
-9.34506
-9.34439
-9.33911
-9.32913
-9.31442
-9.29489
-9.27054
-9.24127
-9.20706
-9.16779
-9.12341
-9.07379
-9.01885
-8.95853
-8.89272
-8.82133
-8.7443
-8.66166
-8.57348
-8.47981
-8.38052
-8.27534
-8.16393
-8.04611
-7.92191
-7.79144
-7.6547
-7.51169
-7.36239
-7.2068
-7.04494
-6.87683
-6.7025
-6.52203
-6.33547
-6.14289
-5.94436
-5.73999
-5.52985
-5.31411
-5.09292
-4.86645
-4.63485
-4.3983
-4.15698
-3.91113
-3.66099
-3.40685
-3.14898
-2.88772
-2.6234
-2.35644
-2.08719
-1.8161
-1.54357
-1.26997
-0.995476
-0.720471
-0.445491
-0.171089
0.102278
0.374192
0.644284
0.91218
1.1775
1.43989
1.69896
1.95443
2.20599
2.4534
2.69641
2.93486
3.16856
3.3974
3.62127
3.84014
4.05395
4.26273
4.4665
4.66534
4.85934
5.04863
5.23334
5.41364
5.58971
5.76174
5.92994
6.09453
6.25573
6.41377
6.56888
6.72131
6.87126
7.01899
7.16469
7.30856
7.4508
7.59162
7.73125
7.86997
8.00783
8.14797
8.28043
-8.12717
-8.12733
-8.12764
-8.12789
-8.12776
-8.1269
-8.12521
-8.12331
-8.12218
-8.1225
-8.1245
-8.12799
-8.13254
-8.13763
-8.14275
-8.1475
-8.15157
-8.15478
-8.15701
-8.15812
-8.15804
-8.15694
-8.15508
-8.15283
-8.15054
-8.14853
-8.14699
-8.14595
-8.14527
-8.14473
-8.14417
-8.14356
-8.14291
-8.14221
-8.1415
-8.14083
-8.14047
-8.1409
-8.14253
-8.14527
-8.1484
-8.15095
-8.15235
-8.15274
-8.15232
-8.1513
-8.15102
-8.15362
-8.15993
-8.16751
-8.17563
-8.18743
-8.20471
-8.229
-8.26359
-8.31071
-8.36919
-8.43647
-8.50975
-8.58583
-8.66234
-8.7379
-8.81059
-8.87868
-8.94196
-9.00039
-9.05386
-9.10246
-9.14627
-9.18542
-9.22001
-9.25013
-9.27585
-9.29721
-9.3142
-9.32685
-9.33511
-9.33894
-9.33828
-9.33309
-9.32329
-9.30883
-9.28963
-9.26565
-9.2368
-9.20306
-9.16433
-9.12054
-9.07159
-9.01742
-8.95795
-8.8931
-8.82278
-8.74689
-8.66536
-8.57808
-8.48494
-8.3858
-8.28062
-8.16941
-8.05222
-7.92896
-7.79952
-7.66385
-7.52192
-7.37371
-7.21923
-7.05848
-6.89149
-6.7183
-6.53896
-6.35354
-6.1621
-5.96473
-5.7615
-5.55253
-5.33794
-5.11789
-4.89254
-4.66205
-4.42657
-4.1863
-3.94145
-3.69228
-3.43904
-3.18204
-2.92157
-2.65797
-2.39158
-2.12277
-1.85188
-1.57928
-1.30542
-1.03086
-0.756002
-0.481178
-0.206852
0.0665325
0.338537
0.608791
0.876923
1.14256
1.40531
1.66484
1.9208
2.17292
2.42093
2.6646
2.90373
3.13816
3.36775
3.5924
3.81205
4.02666
4.23623
4.4408
4.64042
4.83519
5.02522
5.21065
5.39163
5.56836
5.74102
5.90981
6.07495
6.23666
6.39517
6.55072
6.70353
6.85385
7.00189
7.1479
7.29207
7.43462
7.57579
7.71579
7.85503
7.99308
8.13557
8.26692
-8.12834
-8.12833
-8.12834
-8.12838
-8.12838
-8.12839
-8.12865
-8.1296
-8.1316
-8.13473
-8.13881
-8.14353
-8.14854
-8.1535
-8.15811
-8.16213
-8.16538
-8.16778
-8.16927
-8.1698
-8.16933
-8.16794
-8.16577
-8.16297
-8.15971
-8.15618
-8.15257
-8.14907
-8.14584
-8.14301
-8.14063
-8.13873
-8.13721
-8.13598
-8.13504
-8.1347
-8.13551
-8.13791
-8.14176
-8.14602
-8.14918
-8.1501
-8.14903
-8.1474
-8.1467
-8.14721
-8.14921
-8.15454
-8.16464
-8.17943
-8.19921
-8.22493
-8.25695
-8.29579
-8.34209
-8.39567
-8.45506
-8.51852
-8.58436
-8.65087
-8.71689
-8.78158
-8.84402
-8.90334
-8.95918
-9.01135
-9.05968
-9.10412
-9.14463
-9.18118
-9.21375
-9.24235
-9.26693
-9.28746
-9.30389
-9.31617
-9.32422
-9.32799
-9.32739
-9.32235
-9.31279
-9.29864
-9.27981
-9.25625
-9.22789
-9.19465
-9.15648
-9.11328
-9.06498
-9.01149
-8.95276
-8.88872
-8.81928
-8.74437
-8.66393
-8.57781
-8.48587
-8.38795
-8.28399
-8.174
-8.05801
-7.93598
-7.80783
-7.67347
-7.53289
-7.38604
-7.23293
-7.07356
-6.90797
-6.73618
-6.55825
-6.37423
-6.18421
-5.98826
-5.78646
-5.57891
-5.36575
-5.14711
-4.92315
-4.69403
-4.45989
-4.22094
-3.97738
-3.72945
-3.47741
-3.22156
-2.96218
-2.69961
-2.43417
-2.16623
-1.89615
-1.62428
-1.35104
-1.07698
-0.802501
-0.528
-0.253906
0.0193378
0.291318
0.561653
0.82996
1.09585
1.35893
1.61887
1.87532
2.12798
2.3766
2.62093
2.86078
3.09595
3.32632
3.55178
3.77225
3.9877
4.19811
4.40351
4.60396
4.79952
4.99033
5.1765
5.35819
5.53558
5.70884
5.87819
6.04383
6.20598
6.36487
6.52072
6.67379
6.82428
6.97245
7.11851
7.26269
7.4052
7.54633
7.68631
7.82577
7.96351
8.10814
8.23422
-8.12941
-8.12916
-8.12883
-8.12885
-8.12987
-8.1322
-8.13568
-8.14001
-8.1449
-8.15009
-8.15535
-8.16047
-8.16529
-8.16966
-8.17344
-8.17653
-8.17882
-8.18027
-8.18084
-8.18053
-8.17932
-8.17726
-8.17443
-8.17089
-8.16671
-8.16199
-8.15682
-8.15133
-8.14574
-8.14028
-8.13522
-8.13076
-8.12707
-8.12441
-8.1232
-8.124
-8.1271
-8.13185
-8.13675
-8.14035
-8.14205
-8.1422
-8.14203
-8.14316
-8.14659
-8.15292
-8.16305
-8.17797
-8.19817
-8.22374
-8.2545
-8.29005
-8.32998
-8.37404
-8.42194
-8.47327
-8.5274
-8.58368
-8.6413
-8.69939
-8.7572
-8.81404
-8.86928
-8.92235
-8.97285
-9.02048
-9.06504
-9.10638
-9.14436
-9.1789
-9.2099
-9.23729
-9.26098
-9.28087
-9.29688
-9.30891
-9.31686
-9.32064
-9.32016
-9.31532
-9.30604
-9.29223
-9.2738
-9.2507
-9.22283
-9.19014
-9.15255
-9.10998
-9.06236
-9.0096
-8.95164
-8.88839
-8.81979
-8.74575
-8.6662
-8.58103
-8.49011
-8.39331
-8.29055
-8.18179
-8.06704
-7.94623
-7.81931
-7.68621
-7.54689
-7.40132
-7.24951
-7.09145
-6.92717
-6.7567
-6.58009
-6.39741
-6.20872
-6.01409
-5.81363
-5.60742
-5.39559
-5.17828
-4.95563
-4.72778
-4.49491
-4.25719
-4.01484
-3.76808
-3.51717
-3.26238
-3.00402
-2.74239
-2.47783
-2.21069
-1.94131
-1.6701
-1.39745
-1.12384
-0.849682
-0.575416
-0.301472
-0.0282906
0.243724
0.514188
0.782708
1.04889
1.31234
1.57272
1.82967
2.08291
2.33215
2.57716
2.81772
3.05365
3.28481
3.51108
3.73239
3.94867
4.15993
4.36616
4.56743
4.76381
4.9554
5.14232
5.32473
5.50278
5.67668
5.8466
6.01277
6.17538
6.33468
6.49087
6.64421
6.7949
6.9432
7.08932
7.23352
7.37599
7.51702
7.65679
7.79606
7.93292
8.07764
8.1966
-8.13151
-8.13099
-8.13065
-8.13189
-8.13547
-8.14076
-8.14689
-8.15326
-8.1595
-8.16538
-8.1708
-8.17571
-8.18006
-8.1838
-8.18685
-8.18915
-8.19064
-8.19128
-8.19105
-8.18994
-8.18796
-8.18512
-8.18146
-8.17704
-8.17189
-8.16608
-8.15967
-8.15277
-8.14552
-8.13816
-8.13103
-8.12452
-8.11921
-8.11582
-8.11506
-8.11709
-8.12087
-8.12505
-8.12869
-8.13148
-8.13387
-8.1368
-8.14145
-8.14887
-8.15987
-8.17526
-8.19544
-8.22024
-8.24901
-8.28132
-8.31677
-8.35505
-8.39603
-8.43967
-8.48579
-8.53416
-8.58434
-8.63587
-8.68818
-8.74069
-8.79285
-8.84416
-8.89415
-8.94242
-8.98863
-9.03252
-9.07387
-9.1125
-9.14824
-9.18095
-9.2105
-9.23675
-9.25956
-9.27882
-9.29438
-9.30612
-9.31392
-9.31764
-9.31719
-9.31246
-9.30335
-9.28976
-9.27162
-9.24884
-9.22134
-9.18906
-9.15194
-9.10988
-9.06281
-9.01066
-8.95335
-8.89081
-8.82294
-8.74967
-8.67092
-8.58658
-8.49654
-8.40069
-8.29895
-8.19127
-8.07758
-7.95783
-7.83196
-7.69992
-7.56166
-7.41717
-7.26643
-7.10944
-6.94624
-6.77685
-6.60133
-6.41972
-6.23211
-6.03856
-5.83917
-5.63403
-5.42327
-5.20701
-4.9854
-4.75857
-4.52669
-4.28993
-4.04853
-3.80266
-3.55262
-3.29863
-3.04103
-2.78008
-2.51616
-2.24955
-1.98067
-1.70988
-1.4376
-1.16424
-0.890265
-0.616085
-0.342161
-0.0689113
0.203244
0.473915
0.742705
1.00922
1.27305
1.53386
1.7913
2.04506
2.29486
2.54047
2.78165
3.01823
3.25005
3.477
3.69897
3.91594
4.12786
4.33477
4.53668
4.73369
4.92588
5.11338
5.29633
5.47489
5.64925
5.81959
5.98613
6.14908
6.30864
6.46505
6.61855
6.76936
6.9177
7.06381
7.20791
7.35021
7.49098
7.63035
7.7691
7.90475
8.0486
8.16008
-8.13532
-8.13452
-8.13496
-8.1387
-8.14491
-8.15197
-8.15911
-8.16593
-8.17224
-8.17799
-8.18316
-8.18774
-8.19169
-8.19495
-8.19747
-8.1992
-8.20009
-8.20012
-8.19929
-8.19757
-8.19498
-8.19153
-8.18725
-8.18216
-8.17626
-8.16957
-8.16219
-8.15427
-8.14598
-8.13758
-8.12952
-8.12239
-8.11699
-8.11407
-8.11365
-8.11492
-8.11691
-8.11935
-8.12254
-8.127
-8.13313
-8.14142
-8.15273
-8.16796
-8.18738
-8.2108
-8.23774
-8.26777
-8.30048
-8.33556
-8.37282
-8.41208
-8.45325
-8.4962
-8.54077
-8.58673
-8.63376
-8.68154
-8.72966
-8.77776
-8.82546
-8.8724
-8.91827
-8.96273
-9.00553
-9.04641
-9.08515
-9.12156
-9.15544
-9.18664
-9.21496
-9.24025
-9.26232
-9.28103
-9.29619
-9.30766
-9.31529
-9.31894
-9.31847
-9.31378
-9.30475
-9.2913
-9.27333
-9.25076
-9.22351
-9.19152
-9.15472
-9.11303
-9.06638
-9.01469
-8.9579
-8.89592
-8.82866
-8.75603
-8.67795
-8.59432
-8.50502
-8.40997
-8.30906
-8.20223
-8.0894
-7.97051
-7.84549
-7.71429
-7.57688
-7.43322
-7.28331
-7.12715
-6.96477
-6.79621
-6.6215
-6.44071
-6.2539
-6.06116
-5.86257
-5.65823
-5.44826
-5.23278
-5.01192
-4.78582
-4.55466
-4.31859
-4.07784
-3.83261
-3.58314
-3.32969
-3.07256
-2.81204
-2.54847
-2.28217
-2.01352
-1.7429
-1.47075
-1.19746
-0.923473
-0.649228
-0.375175
-0.101735
0.17067
0.44164
0.710766
0.977649
1.24189
1.50313
1.76103
2.01527
2.26557
2.51168
2.75338
2.99048
3.22282
3.45028
3.67275
3.89021
4.10261
4.30998
4.51232
4.70974
4.9023
5.09015
5.27341
5.45225
5.62683
5.79736
5.96403
6.12708
6.28669
6.44312
6.59657
6.74729
6.89549
7.0414
7.18524
7.32721
7.46756
7.60635
7.74435
7.87864
8.0215
8.12574
-8.14007
-8.13963
-8.14183
-8.14776
-8.15505
-8.16233
-8.16926
-8.17574
-8.18174
-8.18722
-8.19215
-8.19647
-8.20013
-8.20307
-8.20524
-8.20659
-8.2071
-8.20674
-8.20549
-8.20337
-8.20037
-8.19651
-8.19182
-8.18624
-8.17974
-8.17239
-8.1644
-8.15601
-8.14744
-8.13904
-8.13133
-8.125
-8.12058
-8.11792
-8.11639
-8.11578
-8.11646
-8.1191
-8.12406
-8.13155
-8.14212
-8.15633
-8.17432
-8.19589
-8.22072
-8.24846
-8.27875
-8.31126
-8.34581
-8.38221
-8.42029
-8.45988
-8.50081
-8.54293
-8.58605
-8.63
-8.67456
-8.71948
-8.76451
-8.8094
-8.85387
-8.89766
-8.94053
-8.98221
-9.02248
-9.06111
-9.09789
-9.13262
-9.16511
-9.19515
-9.22254
-9.2471
-9.26862
-9.28691
-9.30178
-9.31304
-9.32052
-9.32408
-9.32357
-9.31887
-9.30987
-9.29646
-9.27856
-9.25609
-9.22898
-9.19716
-9.16055
-9.1191
-9.07273
-9.02138
-8.96496
-8.9034
-8.83661
-8.7645
-8.68697
-8.60392
-8.51524
-8.42082
-8.32058
-8.21443
-8.10228
-7.98405
-7.85969
-7.72914
-7.59235
-7.44931
-7.3
-7.14445
-6.98265
-6.81467
-6.64053
-6.46031
-6.27407
-6.08189
-5.88386
-5.68008
-5.47065
-5.2557
-5.03535
-4.80976
-4.57907
-4.34346
-4.10312
-3.85828
-3.60914
-3.35601
-3.09911
-2.83881
-2.57537
-2.30916
-2.04053
-1.76991
-1.49767
-1.22427
-0.950105
-0.67565
-0.401331
-0.127585
0.145177
0.416531
0.686065
0.953363
1.21804
1.47972
1.73807
1.99276
2.24351
2.49005
2.73217
2.96968
3.20242
3.43025
3.65309
3.87086
4.08356
4.29119
4.49379
4.6914
4.88416
5.07214
5.2555
5.43438
5.60898
5.77947
5.94608
6.10899
6.26845
6.42467
6.57789
6.72833
6.87622
7.02176
7.1652
7.30669
7.44648
7.58453
7.72162
7.85447
7.99636
8.09391
-8.14387
-8.14443
-8.14868
-8.15548
-8.16253
-8.16929
-8.17575
-8.18188
-8.18762
-8.19292
-8.19768
-8.20185
-8.20535
-8.20813
-8.21013
-8.2113
-8.21161
-8.21105
-8.20959
-8.20725
-8.20403
-8.19994
-8.19495
-8.18903
-8.18222
-8.17474
-8.16679
-8.15864
-8.15059
-8.14312
-8.13667
-8.13144
-8.12724
-8.12375
-8.12111
-8.11998
-8.1211
-8.1252
-8.13278
-8.14408
-8.15911
-8.17768
-8.19954
-8.22439
-8.25189
-8.28174
-8.31369
-8.34753
-8.38306
-8.4201
-8.45846
-8.49796
-8.53845
-8.57977
-8.62176
-8.66427
-8.70711
-8.75011
-8.79307
-8.8358
-8.87809
-8.91975
-8.96056
-9.00032
-9.03883
-9.0759
-9.11132
-9.1449
-9.17643
-9.20569
-9.23248
-9.25657
-9.27774
-9.29578
-9.31046
-9.32159
-9.32898
-9.33246
-9.33189
-9.32714
-9.31809
-9.30465
-9.28673
-9.26427
-9.23717
-9.20539
-9.16886
-9.12752
-9.08131
-9.03015
-8.97398
-8.91272
-8.84628
-8.77456
-8.69747
-8.61489
-8.5267
-8.43281
-8.33309
-8.22746
-8.11582
-7.9981
-7.87422
-7.74413
-7.60778
-7.46517
-7.31627
-7.16111
-6.9997
-6.83208
-6.65831
-6.47845
-6.29256
-6.10073
-5.90305
-5.69962
-5.49053
-5.27592
-5.05589
-4.8306
-4.60019
-4.36484
-4.12473
-3.88007
-3.63109
-3.37806
-3.12124
-2.86094
-2.59747
-2.33118
-2.06243
-1.79162
-1.51916
-1.24548
-0.971016
-0.696223
-0.42153
-0.147375
0.125819
0.397617
0.667602
0.935352
1.20048
1.46261
1.7214
1.97652
2.22768
2.4746
2.71708
2.95491
3.18795
3.41605
3.63914
3.85712
4.07
4.27776
4.48045
4.67812
4.87089
5.05884
5.24214
5.42091
5.59534
5.76562
5.93198
6.09461
6.25375
6.40962
6.56246
6.7125
6.85995
7.00502
7.14793
7.28884
7.42796
7.56518
7.70128
7.83265
7.97359
8.06511
-8.145
-8.14689
-8.15242
-8.15905
-8.16556
-8.1719
-8.17806
-8.18401
-8.18964
-8.19487
-8.19961
-8.20378
-8.20729
-8.21008
-8.21209
-8.21327
-8.21359
-8.21303
-8.21157
-8.20921
-8.20594
-8.20175
-8.19664
-8.19066
-8.18396
-8.17677
-8.16939
-8.16212
-8.15524
-8.14897
-8.14335
-8.13828
-8.13374
-8.12991
-8.12743
-8.12721
-8.13004
-8.13646
-8.14664
-8.16048
-8.17784
-8.19849
-8.22214
-8.24849
-8.27725
-8.30816
-8.34098
-8.37551
-8.41154
-8.44888
-8.48732
-8.52672
-8.5669
-8.60772
-8.64901
-8.69062
-8.73242
-8.77424
-8.81593
-8.85732
-8.89825
-8.93856
-8.97808
-9.01664
-9.05406
-9.09017
-9.12478
-9.15768
-9.18867
-9.21752
-9.24401
-9.26788
-9.28892
-9.30687
-9.3215
-9.33258
-9.33991
-9.34332
-9.34267
-9.33782
-9.32867
-9.31512
-9.29709
-9.27451
-9.24732
-9.21547
-9.1789
-9.13755
-9.09137
-9.04029
-8.98426
-8.92319
-8.857
-8.78558
-8.70883
-8.62661
-8.53882
-8.44532
-8.346
-8.24076
-8.1295
-8.01213
-7.88858
-7.7588
-7.62274
-7.48038
-7.33172
-7.17677
-7.01557
-6.84815
-6.67456
-6.49488
-6.30918
-6.11753
-5.92003
-5.71677
-5.50786
-5.29341
-5.07355
-4.8484
-4.61812
-4.38286
-4.14282
-3.89819
-3.64922
-3.39613
-3.13924
-2.87881
-2.61518
-2.34867
-2.07967
-1.80855
-1.53576
-1.2617
-0.986836
-0.711608
-0.436463
-0.161829
0.111843
0.384126
0.654583
0.922804
1.18838
1.45096
1.71017
1.96569
2.21721
2.46447
2.70724
2.94533
3.17858
3.40687
3.63008
3.84816
4.06108
4.26885
4.47148
4.66907
4.86169
5.04948
5.23254
5.41105
5.58516
5.75509
5.92105
6.08327
6.24196
6.39738
6.54973
6.69927
6.84619
6.99071
7.13301
7.27327
7.41165
7.548
7.68307
7.81302
7.95303
8.03927
-8.14206
-8.14511
-8.15093
-8.1572
-8.16346
-8.16968
-8.17581
-8.18177
-8.18748
-8.19283
-8.19773
-8.20208
-8.20579
-8.20879
-8.21101
-8.21238
-8.21288
-8.21245
-8.2111
-8.20882
-8.20563
-8.20153
-8.19657
-8.19087
-8.18464
-8.17815
-8.17166
-8.16532
-8.15919
-8.1533
-8.14773
-8.14259
-8.13817
-8.13499
-8.13377
-8.13516
-8.13966
-8.14762
-8.15915
-8.17422
-8.19268
-8.21428
-8.23876
-8.26582
-8.2952
-8.32666
-8.35996
-8.3949
-8.43126
-8.46883
-8.50743
-8.54689
-8.58702
-8.62767
-8.66868
-8.70991
-8.75123
-8.79248
-8.83353
-8.87424
-8.91448
-8.95409
-8.99295
-9.0309
-9.06779
-9.10345
-9.1377
-9.17035
-9.20116
-9.22991
-9.25635
-9.28024
-9.30131
-9.3193
-9.33396
-9.34505
-9.35236
-9.3557
-9.35495
-9.34997
-9.34066
-9.32692
-9.3087
-9.28593
-9.25855
-9.22652
-9.1898
-9.14833
-9.10207
-9.05097
-8.99498
-8.93402
-8.86799
-8.79678
-8.72028
-8.63834
-8.55084
-8.45764
-8.35862
-8.25366
-8.14266
-8.02553
-7.90219
-7.77258
-7.63667
-7.49444
-7.34587
-7.191
-7.02986
-6.86248
-6.68895
-6.50931
-6.32365
-6.13204
-5.93458
-5.73137
-5.52251
-5.3081
-5.08827
-4.86314
-4.63286
-4.39758
-4.15748
-3.91277
-3.66367
-3.41044
-3.15335
-2.89268
-2.62877
-2.36195
-2.09261
-1.8211
-1.54788
-1.27337
-0.998029
-0.722309
-0.446655
-0.171512
0.102661
0.37543
0.646367
0.915059
1.1811
1.44412
1.70375
1.95965
2.2115
2.45905
2.70204
2.94032
3.17369
3.40206
3.6253
3.84336
4.0562
4.26384
4.4663
4.66367
4.85602
5.04351
5.22623
5.40434
5.57801
5.74746
5.91291
6.07459
6.23274
6.3876
6.53938
6.68834
6.83467
6.97857
7.12021
7.25976
7.39736
7.53281
7.66686
7.79543
7.93452
8.01627
-8.13353
-8.13726
-8.14303
-8.14933
-8.1558
-8.16225
-8.16862
-8.17484
-8.18084
-8.18651
-8.19175
-8.19645
-8.2005
-8.20383
-8.20635
-8.20799
-8.20872
-8.20852
-8.20739
-8.20535
-8.20242
-8.19865
-8.19415
-8.18906
-8.18352
-8.1777
-8.17173
-8.16568
-8.15965
-8.15372
-8.14809
-8.1431
-8.13922
-8.13694
-8.13678
-8.13927
-8.14482
-8.15371
-8.16607
-8.18185
-8.2009
-8.223
-8.2479
-8.27534
-8.30509
-8.33691
-8.37059
-8.40591
-8.44263
-8.48058
-8.51952
-8.55927
-8.59964
-8.64049
-8.68163
-8.72294
-8.76425
-8.80544
-8.84638
-8.88694
-8.927
-8.96645
-9.00513
-9.04292
-9.07968
-9.11526
-9.14949
-9.18216
-9.21306
-9.24195
-9.26858
-9.29267
-9.31394
-9.33211
-9.3469
-9.35806
-9.36535
-9.36861
-9.36772
-9.36255
-9.35301
-9.33902
-9.32051
-9.29744
-9.26978
-9.23748
-9.20051
-9.15881
-9.11237
-9.06115
-9.00511
-8.94418
-8.87824
-8.80719
-8.73087
-8.64915
-8.56187
-8.4689
-8.37009
-8.26533
-8.1545
-8.03752
-7.9143
-7.78478
-7.64892
-7.5067
-7.35813
-7.20323
-7.04204
-6.87462
-6.70102
-6.52133
-6.3356
-6.14395
-5.94644
-5.74318
-5.53426
-5.31981
-5.09992
-4.87474
-4.64437
-4.409
-4.16876
-3.92389
-3.67458
-3.42113
-3.16376
-2.90279
-2.63852
-2.37134
-2.10159
-1.82966
-1.55596
-1.28096
-1.00509
-0.728843
-0.452648
-0.176975
0.097724
0.370997
0.642426
0.911579
1.17807
1.44151
1.70155
1.95779
2.20994
2.4577
2.70085
2.93921
3.17261
3.40093
3.62408
3.84198
4.05463
4.26201
4.46418
4.6612
4.85319
5.04025
5.22253
5.40013
5.57325
5.74209
5.90693
6.06798
6.2255
6.37972
6.53089
6.67921
6.8249
6.96813
7.10908
7.24788
7.38468
7.51922
7.65228
7.77955
7.91773
7.99574
-8.11821
-8.12213
-8.12814
-8.13513
-8.14232
-8.14935
-8.15618
-8.16284
-8.16929
-8.17542
-8.18114
-8.1863
-8.19079
-8.19452
-8.19742
-8.19942
-8.2005
-8.20067
-8.19994
-8.19832
-8.19585
-8.19259
-8.18863
-8.18407
-8.17899
-8.17349
-8.16765
-8.16158
-8.15541
-8.14938
-8.1438
-8.13907
-8.13557
-8.1338
-8.13426
-8.13742
-8.14365
-8.15317
-8.16606
-8.18227
-8.20167
-8.22405
-8.24921
-8.27693
-8.30699
-8.33919
-8.37331
-8.40912
-8.44638
-8.48488
-8.52439
-8.56472
-8.60568
-8.64709
-8.68877
-8.73054
-8.77225
-8.81376
-8.85495
-8.89572
-8.93594
-8.97552
-9.01434
-9.05229
-9.08923
-9.12502
-9.15949
-9.19243
-9.22365
-9.25289
-9.27986
-9.30429
-9.32587
-9.34431
-9.35927
-9.37048
-9.37769
-9.38077
-9.37963
-9.37419
-9.36434
-9.35
-9.33112
-9.30767
-9.27964
-9.24698
-9.20967
-9.16766
-9.12093
-9.06951
-9.01337
-8.95241
-8.88653
-8.81558
-8.73943
-8.65789
-8.57081
-8.47801
-8.37938
-8.27477
-8.16408
-8.0472
-7.92405
-7.79457
-7.65871
-7.51645
-7.36781
-7.21282
-7.05153
-6.88399
-6.71029
-6.53048
-6.34465
-6.15289
-5.95527
-5.75192
-5.54291
-5.32837
-5.10839
-4.88309
-4.65261
-4.41709
-4.17669
-3.93162
-3.68209
-3.42836
-3.17069
-2.90939
-2.64476
-2.37718
-2.107
-1.8346
-1.56039
-1.28484
-1.00844
-0.731637
-0.454896
-0.178689
0.0965261
0.370293
0.642185
0.911774
1.17868
1.44251
1.7029
1.95945
2.21183
2.45976
2.70301
2.94139
3.17474
3.40293
3.62588
3.84353
4.05587
4.26289
4.46465
4.66122
4.85273
5.0393
5.22106
5.39808
5.57054
5.73869
5.90282
6.06315
6.21997
6.3735
6.52398
6.67165
6.81668
6.95922
7.09944
7.23748
7.37346
7.5071
7.6392
7.76526
7.9025
7.97752
-8.09568
-8.09952
-8.10637
-8.1147
-8.12299
-8.13075
-8.13813
-8.14531
-8.15234
-8.15911
-8.16548
-8.17128
-8.17637
-8.18064
-8.18404
-8.18655
-8.18816
-8.18888
-8.18871
-8.18765
-8.18573
-8.183
-8.17949
-8.17527
-8.1704
-8.16494
-8.159
-8.15275
-8.1464
-8.14024
-8.13459
-8.12985
-8.12647
-8.12496
-8.12579
-8.12938
-8.13603
-8.14592
-8.1591
-8.17553
-8.19509
-8.21762
-8.24296
-8.27094
-8.30137
-8.33406
-8.36877
-8.40528
-8.44332
-8.48263
-8.523
-8.5642
-8.60602
-8.64825
-8.6907
-8.73318
-8.77554
-8.81764
-8.85935
-8.90057
-8.94119
-8.98114
-9.02032
-9.05864
-9.09597
-9.13218
-9.1671
-9.20052
-9.23219
-9.26182
-9.28913
-9.31383
-9.33565
-9.35426
-9.3693
-9.38041
-9.38735
-9.39008
-9.38861
-9.38286
-9.37269
-9.35798
-9.3387
-9.31485
-9.28644
-9.25343
-9.21577
-9.1734
-9.12633
-9.07465
-9.01835
-8.9573
-8.89142
-8.82057
-8.74458
-8.66324
-8.57634
-8.48372
-8.38524
-8.28078
-8.17021
-8.05345
-7.93038
-7.80094
-7.66506
-7.52275
-7.37403
-7.21894
-7.05754
-6.88989
-6.71607
-6.53615
-6.3502
-6.15832
-5.9606
-5.75714
-5.54805
-5.33341
-5.11335
-4.88796
-4.65737
-4.42171
-4.18116
-3.93589
-3.68615
-3.43216
-3.17421
-2.91257
-2.64761
-2.37964
-2.10905
-1.83618
-1.56147
-1.2854
-1.00848
-0.731162
-0.453919
-0.177224
0.0984461
0.372646
0.644928
0.914882
1.1821
1.44625
1.70691
1.96368
2.21621
2.46425
2.70754
2.94591
3.17916
3.40719
3.62988
3.84722
4.05915
4.26572
4.46697
4.663
4.85394
5.03995
5.22112
5.39751
5.56927
5.73669
5.90004
6.05961
6.21566
6.36846
6.51824
6.66524
6.80961
6.95147
7.09096
7.22823
7.3634
7.49617
7.62734
7.75228
7.88856
7.96129
-8.06642
-8.07052
-8.0788
-8.08889
-8.09839
-8.10683
-8.11476
-8.12266
-8.13059
-8.13833
-8.14561
-8.15222
-8.15802
-8.16293
-8.16693
-8.17007
-8.17236
-8.17376
-8.17425
-8.17381
-8.17246
-8.17019
-8.16702
-8.16299
-8.15814
-8.15257
-8.14644
-8.13993
-8.13327
-8.12678
-8.12086
-8.11595
-8.11253
-8.11107
-8.11203
-8.11575
-8.1225
-8.13243
-8.14561
-8.16202
-8.18158
-8.2042
-8.22973
-8.25801
-8.28888
-8.32215
-8.35758
-8.39491
-8.43387
-8.4742
-8.51564
-8.55794
-8.60084
-8.6441
-8.68751
-8.73088
-8.77406
-8.81689
-8.85927
-8.90108
-8.94224
-8.98267
-9.0223
-9.06104
-9.09879
-9.13542
-9.17074
-9.20453
-9.23652
-9.26636
-9.29376
-9.31849
-9.34032
-9.35894
-9.37387
-9.38467
-9.39111
-9.39334
-9.39154
-9.38562
-9.37528
-9.36035
-9.34077
-9.31662
-9.28793
-9.25469
-9.21682
-9.17419
-9.12683
-9.07491
-9.01843
-8.95724
-8.8913
-8.82053
-8.74469
-8.66353
-8.57679
-8.48432
-8.38597
-8.28163
-8.17118
-8.05451
-7.93153
-7.80211
-7.6662
-7.52381
-7.37497
-7.21975
-7.05822
-6.89043
-6.71647
-6.53641
-6.35031
-6.15828
-5.96043
-5.75686
-5.54767
-5.33296
-5.11284
-4.88738
-4.65672
-4.42097
-4.1803
-3.9349
-3.685
-3.43082
-3.17265
-2.91078
-2.64555
-2.3773
-2.10639
-1.83315
-1.55804
-1.28157
-1.00426
-0.726565
-0.448964
-0.17194
0.104031
0.378494
0.651003
0.921134
1.18848
1.4527
1.7134
1.97017
2.22266
2.47064
2.71384
2.95208
3.18515
3.41294
3.63534
3.85229
4.06376
4.26979
4.47045
4.66584
4.85611
5.04148
5.22202
5.39776
5.56883
5.73554
5.89815
6.05696
6.21223
6.36428
6.51335
6.6597
6.80345
6.94466
7.08346
7.22001
7.35441
7.48634
7.61664
7.74053
7.87584
7.94696
-8.03252
-8.03742
-8.04757
-8.05971
-8.07052
-8.0798
-8.08843
-8.09704
-8.10583
-8.1146
-8.12303
-8.1308
-8.13758
-8.14315
-8.14769
-8.15144
-8.15441
-8.15653
-8.15772
-8.15793
-8.15711
-8.15526
-8.15235
-8.14842
-8.14353
-8.13778
-8.13131
-8.12437
-8.11724
-8.1103
-8.10396
-8.0987
-8.09497
-8.09323
-8.09389
-8.09728
-8.10366
-8.1132
-8.126
-8.14209
-8.16143
-8.18396
-8.20957
-8.23814
-8.26949
-8.30341
-8.33966
-8.37794
-8.41797
-8.45948
-8.50215
-8.54569
-8.58981
-8.63425
-8.67876
-8.72313
-8.76717
-8.81074
-8.8537
-8.89597
-8.93749
-8.97818
-9.018
-9.05689
-9.09477
-9.1315
-9.16692
-9.20077
-9.23273
-9.26238
-9.2894
-9.31363
-9.33509
-9.35348
-9.36815
-9.3785
-9.38431
-9.38598
-9.38399
-9.37816
-9.36797
-9.35305
-9.33334
-9.30899
-9.28014
-9.24684
-9.20904
-9.16664
-9.11959
-9.06786
-9.0115
-8.95048
-8.88473
-8.8141
-8.73839
-8.65736
-8.57075
-8.47839
-8.38016
-8.27593
-8.16556
-8.04893
-7.92592
-7.79641
-7.66035
-7.51775
-7.36867
-7.21317
-7.05134
-6.88326
-6.709
-6.52864
-6.34226
-6.14997
-5.95189
-5.74813
-5.53878
-5.32396
-5.10373
-4.87822
-4.64748
-4.41169
-4.17095
-3.92549
-3.6755
-3.42124
-3.16294
-2.90094
-2.63554
-2.36711
-2.09597
-1.82248
-1.5471
-1.2704
-0.992844
-0.714917
-0.4371
-0.159894
0.116234
0.390809
0.663389
0.933519
1.20078
1.46476
1.72509
1.98143
2.2335
2.48101
2.72374
2.96144
3.19398
3.42117
3.64295
3.85924
4.07003
4.27532
4.4752
4.66975
4.85915
5.04362
5.22331
5.39822
5.56852
5.7345
5.89644
6.05451
6.20904
6.36034
6.50871
6.65443
6.7976
6.93825
7.07647
7.2124
7.34614
7.47732
7.60684
7.72974
7.86409
7.93425
-7.99606
-8.00204
-8.01456
-8.02909
-8.04092
-8.05039
-8.05967
-8.06952
-8.07956
-8.08943
-8.09888
-8.10764
-8.1153
-8.12163
-8.12688
-8.13142
-8.13526
-8.13826
-8.14029
-8.14125
-8.14108
-8.13973
-8.13714
-8.13334
-8.12836
-8.12233
-8.11542
-8.1079
-8.10009
-8.09239
-8.08523
-8.07907
-8.0744
-8.07166
-8.07126
-8.07356
-8.07884
-8.08733
-8.09917
-8.11445
-8.13319
-8.15538
-8.18095
-8.20977
-8.24166
-8.27636
-8.3136
-8.35306
-8.3944
-8.43729
-8.48136
-8.52629
-8.57171
-8.61732
-8.66285
-8.70808
-8.75278
-8.7968
-8.84003
-8.88239
-8.92385
-8.96438
-9.00397
-9.04259
-9.08017
-9.11663
-9.15179
-9.18536
-9.21687
-9.24572
-9.27144
-9.29418
-9.31456
-9.33267
-9.34762
-9.35862
-9.36558
-9.36857
-9.36753
-9.36215
-9.3521
-9.33705
-9.31702
-9.29226
-9.26301
-9.22935
-9.19134
-9.14899
-9.10212
-9.05055
-8.99431
-8.93349
-8.86795
-8.79746
-8.72187
-8.64099
-8.55458
-8.46244
-8.36444
-8.26043
-8.15024
-8.03372
-7.91074
-7.7812
-7.64505
-7.5023
-7.35302
-7.19728
-7.03518
-6.86681
-6.69225
-6.5116
-6.32496
-6.13243
-5.93415
-5.73024
-5.52078