/*--------------------------------*- C++ -*----------------------------------*\
  =========                 |
  \\      /  F ield         | OpenFOAM: The Open Source CFD Toolbox
   \\    /   O peration     | Website:  https://openfoam.org
    \\  /    A nd           | Version:  13
     \\/     M anipulation  |
\*---------------------------------------------------------------------------*/
FoamFile
{
    format      ascii;
    class       surfaceScalarField;
    location    "300";
    object      phi;
}
// * * * * * * * * * * * * * * * * * * * * * * * * * * * * * * * * * * * * * //

dimensions      [0 3 -1 0 0 0 0];

internalField   nonuniform List<scalar> 
24170
(
3.04205e-06
1.46356e-07
2.88315e-06
1.58915e-07
2.73938e-06
1.43787e-07
2.60887e-06
1.30511e-07
2.49345e-06
1.1543e-07
2.39563e-06
9.78152e-08
2.31377e-06
8.18732e-08
2.24207e-06
7.16984e-08
2.18029e-06
6.17852e-08
2.12952e-06
5.07748e-08
2.08773e-06
4.17926e-08
2.05529e-06
3.24412e-08
2.03175e-06
2.35421e-08
2.01327e-06
1.84795e-08
1.99947e-06
1.38009e-08
1.99119e-06
8.27659e-09
1.98774e-06
3.44652e-09
-7.68614e-10
1.9885e-06
3.49573e-06
6.78818e-08
3.54534e-06
1.09328e-07
3.5765e-06
1.12654e-07
3.59011e-06
1.16907e-07
3.58568e-06
1.19869e-07
3.56746e-06
1.16041e-07
3.54122e-06
1.0812e-07
3.50973e-06
1.03189e-07
3.47595e-06
9.55767e-08
3.44327e-06
8.34562e-08
3.41185e-06
7.32137e-08
3.37839e-06
6.59057e-08
3.34298e-06
5.89519e-08
3.30921e-06
5.22464e-08
3.27783e-06
4.51825e-08
3.24878e-06
3.7321e-08
3.22189e-06
3.03292e-08
2.48709e-08
3.19625e-06
3.67907e-06
5.1332e-08
3.69449e-06
9.39057e-08
3.71117e-06
9.59926e-08
3.72946e-06
9.86148e-08
3.74786e-06
1.01479e-07
3.76436e-06
9.95392e-08
3.77753e-06
9.49557e-08
3.78902e-06
9.16986e-08
3.79851e-06
8.60902e-08
3.80451e-06
7.74595e-08
3.80789e-06
6.98362e-08
3.80962e-06
6.41769e-08
3.8096e-06
5.89712e-08
3.80813e-06
5.37145e-08
3.80514e-06
4.81743e-08
3.80034e-06
4.21287e-08
3.79414e-06
3.65256e-08
3.13067e-08
3.7877e-06
3.93554e-06
4.11832e-08
3.94648e-06
8.29898e-08
3.95279e-06
8.97032e-08
3.95904e-06
9.23803e-08
3.96591e-06
9.46223e-08
3.97264e-06
9.2817e-08
3.97888e-06
8.87162e-08
3.98579e-06
8.47981e-08
3.99278e-06
7.91013e-08
3.99865e-06
7.15973e-08
4.00377e-06
6.47167e-08
4.00883e-06
5.91175e-08
4.01379e-06
5.40169e-08
4.01851e-06
4.89901e-08
4.02282e-06
4.3863e-08
4.02637e-06
3.85838e-08
4.02926e-06
3.36301e-08
2.91879e-08
4.03138e-06
4.21287e-06
3.54407e-08
4.22407e-06
7.17879e-08
4.23116e-06
8.26172e-08
4.23732e-06
8.62235e-08
4.24338e-06
8.85666e-08
4.24879e-06
8.74085e-08
4.25351e-06
8.3992e-08
4.25833e-06
7.9981e-08
4.26289e-06
7.45452e-08
4.26654e-06
6.79493e-08
4.2696e-06
6.16572e-08
4.27257e-06
5.6154e-08
4.2755e-06
5.10863e-08
4.27833e-06
4.61544e-08
4.28097e-06
4.12302e-08
4.28323e-06
3.63228e-08
4.28519e-06
3.16745e-08
2.73987e-08
4.28698e-06
4.51387e-06
3.06589e-08
4.52359e-06
6.20804e-08
4.53066e-06
7.55714e-08
4.5369e-06
7.99931e-08
4.54311e-06
8.23618e-08
4.54876e-06
8.17714e-08
4.55382e-06
7.89416e-08
4.55871e-06
7.50873e-08
4.5632e-06
7.00642e-08
4.5669e-06
6.42541e-08
4.57001e-06
5.85418e-08
4.57288e-06
5.32902e-08
4.57558e-06
4.83836e-08
4.5781e-06
4.36371e-08
4.58037e-06
3.89638e-08
4.5823e-06
3.43886e-08
4.58393e-06
3.0045e-08
2.59647e-08
4.58537e-06
4.83774e-06
2.56381e-08
4.8454e-06
5.4412e-08
4.85228e-06
6.86939e-08
4.8585e-06
7.3782e-08
4.86465e-06
7.62061e-08
4.87035e-06
7.60769e-08
4.87553e-06
7.37637e-08
4.88044e-06
7.01787e-08
4.88492e-06
6.55784e-08
4.88878e-06
6.04002e-08
4.89212e-06
5.5204e-08
4.89515e-06
5.02616e-08
4.89795e-06
4.55802e-08
4.90052e-06
4.10655e-08
4.90282e-06
3.66659e-08
4.90481e-06
3.24072e-08
4.90649e-06
2.83669e-08
2.45503e-08
4.90791e-06
5.18421e-06
2.10053e-08
5.19087e-06
4.77658e-08
5.19765e-06
6.19239e-08
5.20385e-06
6.75932e-08
5.2099e-06
7.01605e-08
5.21564e-06
7.03446e-08
5.22093e-06
6.84758e-08
5.22586e-06
6.52484e-08
5.23036e-06
6.10895e-08
5.23431e-06
5.64466e-08
5.2378e-06
5.17153e-08
5.24096e-06
4.71082e-08
5.24385e-06
4.26884e-08
5.24649e-06
3.84268e-08
5.24885e-06
3.43041e-08
5.25092e-06
3.03439e-08
5.25269e-06
2.6597e-08
2.30712e-08
5.25417e-06
5.55509e-06
1.7251e-08
5.56143e-06
4.14192e-08
5.56813e-06
5.52261e-08
5.57436e-06
6.13687e-08
5.5804e-06
6.41207e-08
5.58619e-06
6.45481e-08
5.59161e-06
6.30625e-08
5.59663e-06
6.02269e-08
5.6012e-06
5.65172e-08
5.60529e-06
5.23572e-08
5.60895e-06
4.80548e-08
5.61227e-06
4.37958e-08
5.61529e-06
3.96652e-08
5.61804e-06
3.56764e-08
5.62051e-06
3.18352e-08
5.62269e-06
2.81671e-08
5.62458e-06
2.47053e-08
2.14642e-08
5.6262e-06
5.9528e-06
1.42282e-08
5.95873e-06
3.54917e-08
5.9653e-06
4.8661e-08
5.9716e-06
5.50796e-08
5.97771e-06
5.80112e-08
5.9836e-06
5.86642e-08
5.98915e-06
5.75167e-08
5.99432e-06
5.50669e-08
5.99904e-06
5.17926e-08
6.00332e-06
4.80806e-08
6.00719e-06
4.41905e-08
6.01069e-06
4.02908e-08
6.01388e-06
3.64753e-08
6.01678e-06
3.27823e-08
6.01938e-06
2.92336e-08
6.02169e-06
2.58584e-08
6.02372e-06
2.26796e-08
1.97127e-08
6.02547e-06
6.37926e-06
1.17799e-08
6.38467e-06
3.00817e-08
6.39102e-06
4.2311e-08
6.39734e-06
4.87526e-08
6.40356e-06
5.17923e-08
6.40959e-06
5.26439e-08
6.4153e-06
5.18037e-08
6.42064e-06
4.97327e-08
6.42555e-06
4.68803e-08
6.43004e-06
4.3595e-08
6.43412e-06
4.01097e-08
6.43783e-06
3.65779e-08
6.44121e-06
3.30979e-08
6.44427e-06
2.97195e-08
6.44703e-06
2.64774e-08
6.44949e-06
2.33994e-08
6.45166e-06
2.05028e-08
1.78095e-08
6.45357e-06
5.74258e-06
1.00361e-08
5.74671e-06
2.595e-08
5.75183e-06
3.71892e-08
5.75715e-06
4.34432e-08
5.76244e-06
4.64973e-08
5.76761e-06
4.74741e-08
5.77256e-06
4.68631e-08
5.7772e-06
4.50945e-08
5.7815e-06
4.25825e-08
5.78545e-06
3.96432e-08
5.78906e-06
3.64924e-08
5.79237e-06
3.32767e-08
5.79538e-06
3.00881e-08
5.79811e-06
2.69888e-08
5.80057e-06
2.40119e-08
5.80278e-06
2.11914e-08
5.80475e-06
1.85381e-08
1.60773e-08
5.80649e-06
6.99986e-06
8.32901e-09
7.00415e-06
2.16596e-08
7.00968e-06
3.16622e-08
7.01561e-06
3.75085e-08
7.02166e-06
4.04572e-08
7.02763e-06
4.15023e-08
7.03339e-06
4.11045e-08
7.03884e-06
3.965e-08
7.04392e-06
3.75013e-08
7.04862e-06
3.49423e-08
7.05294e-06
3.21696e-08
7.05691e-06
2.93141e-08
7.06053e-06
2.64707e-08
7.06382e-06
2.3696e-08
7.0668e-06
2.10331e-08
7.06948e-06
1.85087e-08
7.07189e-06
1.61383e-08
1.39421e-08
7.07402e-06
8.53252e-06
6.65135e-09
8.53687e-06
1.7308e-08
8.54273e-06
2.58068e-08
8.54924e-06
3.09985e-08
8.556e-06
3.36959e-08
8.56278e-06
3.47233e-08
8.56939e-06
3.44968e-08
8.57569e-06
3.33433e-08
8.58163e-06
3.15687e-08
8.58716e-06
2.94147e-08
8.59227e-06
2.70548e-08
8.59698e-06
2.46059e-08
8.6013e-06
2.21539e-08
8.60525e-06
1.9755e-08
8.60883e-06
1.745e-08
8.61207e-06
1.52665e-08
8.615e-06
1.32157e-08
1.13221e-08
8.61762e-06
1.04009e-05
5.00104e-09
1.04052e-05
1.29505e-08
1.04114e-05
1.96804e-08
1.04184e-05
2.39576e-08
1.04259e-05
2.62342e-08
1.04334e-05
2.71414e-08
1.04409e-05
2.70189e-08
1.04481e-05
2.6137e-08
1.0455e-05
2.47299e-08
1.04614e-05
2.29975e-08
1.04674e-05
2.10777e-08
1.04729e-05
1.90761e-08
1.0478e-05
1.70592e-08
1.04827e-05
1.50843e-08
1.04869e-05
1.31818e-08
1.04908e-05
1.13825e-08
1.04943e-05
9.6904e-09
8.13305e-09
1.04975e-05
1.26784e-05
3.36739e-09
1.26828e-05
8.57841e-09
1.26892e-05
1.33023e-08
1.26967e-05
1.63992e-08
1.27049e-05
1.80656e-08
1.27133e-05
1.87246e-08
1.27217e-05
1.86266e-08
1.27299e-05
1.79656e-08
1.27377e-05
1.69121e-08
1.27451e-05
1.5605e-08
1.2752e-05
1.41539e-08
1.27585e-05
1.26321e-08
1.27644e-05
1.10991e-08
1.27699e-05
9.59181e-09
1.2775e-05
8.14267e-09
1.27796e-05
6.76922e-09
1.27838e-05
5.48071e-09
4.29512e-09
1.27876e-05
1.54548e-05
1.71823e-09
1.54593e-05
4.09798e-09
1.5466e-05
6.59095e-09
1.54742e-05
8.24749e-09
1.54831e-05
9.09435e-09
1.54925e-05
9.36399e-09
1.55019e-05
9.19457e-09
1.55112e-05
8.69927e-09
1.55201e-05
7.97427e-09
1.55287e-05
7.10018e-09
1.55367e-05
6.14048e-09
1.55442e-05
5.14118e-09
1.55511e-05
4.13708e-09
1.55576e-05
3.15288e-09
1.55635e-05
2.2073e-09
1.5569e-05
1.31397e-09
1.5574e-05
4.75399e-10
-2.90822e-10
1.55785e-05
1.88394e-05
-3.04819e-11
1.88442e-05
-7.27284e-10
1.88516e-05
-7.51168e-10
1.88606e-05
-8.07737e-10
1.88707e-05
-9.93336e-10
1.88813e-05
-1.25584e-09
1.88921e-05
-1.58336e-09
1.89028e-05
-1.95717e-09
1.89131e-05
-2.36049e-09
1.8923e-05
-2.77962e-09
1.89323e-05
-3.20327e-09
1.89411e-05
-3.62275e-09
1.89493e-05
-4.03137e-09
1.89568e-05
-4.42363e-09
1.89638e-05
-4.79545e-09
1.89703e-05
-5.14177e-09
1.89762e-05
-5.46542e-09
-5.75387e-09
1.89817e-05
2.29654e-05
-2.08882e-09
2.29711e-05
-6.45582e-09
2.29799e-05
-9.49119e-09
2.29907e-05
-1.15887e-08
2.30027e-05
-1.3009e-08
2.30153e-05
-1.39136e-08
2.30282e-05
-1.44387e-08
2.30409e-05
-1.46742e-08
2.30532e-05
-1.46965e-08
2.3065e-05
-1.45722e-08
2.30762e-05
-1.43525e-08
2.30866e-05
-1.4075e-08
2.30964e-05
-1.37675e-08
2.31054e-05
-1.345e-08
2.31138e-05
-1.31367e-08
2.31214e-05
-1.28338e-08
2.31285e-05
-1.25502e-08
-1.22807e-08
2.31351e-05
1.68124e-05
-3.82988e-09
1.68172e-05
-1.12062e-08
1.68243e-05
-1.65973e-08
1.68329e-05
-2.01579e-08
1.68423e-05
-2.23992e-08
1.68521e-05
-2.36967e-08
1.68619e-05
-2.42899e-08
1.68716e-05
-2.43434e-08
1.68809e-05
-2.40099e-08
1.68898e-05
-2.34162e-08
1.68981e-05
-2.26614e-08
1.69058e-05
-2.18144e-08
1.6913e-05
-2.09303e-08
1.69196e-05
-2.00484e-08
1.69256e-05
-1.91973e-08
1.69312e-05
-1.83929e-08
1.69363e-05
-1.76463e-08
-1.69571e-08
1.6941e-05
1.46364e-05
-5.6718e-09
1.46415e-05
-1.6233e-08
1.46487e-05
-2.38636e-08
1.46572e-05
-2.86048e-08
1.46662e-05
-3.14355e-08
1.46755e-05
-3.29706e-08
1.46847e-05
-3.35173e-08
1.46937e-05
-3.33024e-08
1.47022e-05
-3.25543e-08
1.47103e-05
-3.14609e-08
1.47178e-05
-3.01538e-08
1.47247e-05
-2.87329e-08
1.4731e-05
-2.72745e-08
1.47368e-05
-2.58387e-08
1.47421e-05
-2.44682e-08
1.47469e-05
-2.31876e-08
1.47513e-05
-2.20117e-08
-2.09374e-08
1.47553e-05
1.27422e-05
-7.69814e-09
1.27479e-05
-2.19794e-08
1.27556e-05
-3.15528e-08
1.27641e-05
-3.70991e-08
1.27729e-05
-4.02658e-08
1.27819e-05
-4.18884e-08
1.27906e-05
-4.22514e-08
1.2799e-05
-4.16641e-08
1.28069e-05
-4.04403e-08
1.28142e-05
-3.88108e-08
1.2821e-05
-3.69353e-08
1.28272e-05
-3.49301e-08
1.28328e-05
-3.28932e-08
1.28379e-05
-3.09019e-08
1.28424e-05
-2.9022e-08
1.28465e-05
-2.72848e-08
1.28502e-05
-2.57084e-08
-2.42805e-08
1.28536e-05
1.10933e-05
-1.00482e-08
1.11002e-05
-2.89373e-08
1.11084e-05
-3.97485e-08
1.11169e-05
-4.55648e-08
1.11255e-05
-4.8814e-08
1.11339e-05
-5.03588e-08
1.11421e-05
-5.04125e-08
1.11498e-05
-4.93705e-08
1.1157e-05
-4.7634e-08
1.11637e-05
-4.54618e-08
1.11697e-05
-4.30149e-08
1.11752e-05
-4.04255e-08
1.11802e-05
-3.78091e-08
1.11845e-05
-3.52755e-08
1.11884e-05
-3.29051e-08
1.11919e-05
-3.07397e-08
1.1195e-05
-2.879e-08
-2.70415e-08
1.11977e-05
9.65777e-06
-1.26036e-08
9.66639e-06
-3.75566e-08
9.6749e-06
-4.82485e-08
9.68305e-06
-5.37233e-08
9.69116e-06
-5.69203e-08
9.6991e-06
-5.8298e-08
9.70665e-06
-5.7958e-08
9.7137e-06
-5.64195e-08
9.72023e-06
-5.41639e-08
9.72623e-06
-5.14525e-08
9.73167e-06
-4.84557e-08
9.73655e-06
-4.52997e-08
9.74086e-06
-4.21188e-08
9.74463e-06
-3.90477e-08
9.74792e-06
-3.61965e-08
9.7508e-06
-3.36137e-08
9.75333e-06
-3.13196e-08
-2.92929e-08
9.75558e-06
8.40855e-06
-1.57959e-08
8.41759e-06
-4.65993e-08
8.42622e-06
-5.68921e-08
8.43416e-06
-6.16582e-08
8.44202e-06
-6.478e-08
8.44958e-06
-6.58554e-08
8.45665e-06
-6.5033e-08
8.46319e-06
-6.29522e-08
8.46918e-06
-6.01581e-08
8.47465e-06
-5.69161e-08
8.47958e-06
-5.33837e-08
8.48395e-06
-4.96759e-08
8.48776e-06
-4.59264e-08
8.49102e-06
-4.23051e-08
8.49378e-06
-3.89561e-08
8.49612e-06
-3.59555e-08
8.49815e-06
-3.33425e-08
-3.10411e-08
8.4999e-06
7.32339e-06
-2.18978e-08
7.33184e-06
-5.5052e-08
7.33981e-06
-6.48663e-08
7.3475e-06
-6.93499e-08
7.35503e-06
-7.23166e-08
7.36212e-06
-7.29505e-08
7.36864e-06
-7.15526e-08
7.37463e-06
-6.8937e-08
7.38011e-06
-6.56436e-08
7.38512e-06
-6.19246e-08
7.38966e-06
-5.7922e-08
7.39368e-06
-5.36985e-08
7.39714e-06
-4.93883e-08
7.40007e-06
-4.52288e-08
7.40253e-06
-4.14184e-08
7.40463e-06
-3.80525e-08
7.40648e-06
-3.51881e-08
-3.27284e-08
7.40816e-06
6.37881e-06
-3.06398e-08
6.38748e-06
-6.37318e-08
6.39472e-06
-7.21094e-08
6.4019e-06
-7.65342e-08
6.40914e-06
-7.95637e-08
6.41606e-06
-7.98662e-08
6.42258e-06
-7.80757e-08
6.4288e-06
-7.51568e-08
6.43475e-06
-7.15989e-08
6.44042e-06
-6.7591e-08
6.4458e-06
-6.33028e-08
6.45079e-06
-5.86951e-08
6.45535e-06
-5.39412e-08
6.45941e-06
-4.92949e-08
6.46298e-06
-4.49829e-08
6.46619e-06
-4.1259e-08
6.46915e-06
-3.81531e-08
-3.5666e-08
6.47208e-06
5.55909e-06
-4.42637e-08
5.56843e-06
-7.30767e-08
5.58054e-06
-8.42243e-08
5.59491e-06
-9.09115e-08
5.60987e-06
-9.45319e-08
5.62508e-06
-9.50806e-08
5.6401e-06
-9.30999e-08
5.65449e-06
-8.95478e-08
5.66791e-06
-8.50212e-08
5.68015e-06
-7.98376e-08
5.69109e-06
-7.42448e-08
5.70038e-06
-6.79856e-08
5.70781e-06
-6.13642e-08
5.71339e-06
-5.48745e-08
5.71719e-06
-4.87857e-08
5.71941e-06
-4.34731e-08
5.72017e-06
-3.89187e-08
-3.53439e-08
5.71985e-06
4.88902e-06
-1.05676e-07
4.93926e-06
-1.23327e-07
4.98144e-06
-1.26404e-07
5.01396e-06
-1.23442e-07
5.03633e-06
-1.16912e-07
5.04896e-06
-1.07712e-07
5.05326e-06
-9.74043e-08
5.05082e-06
-8.71102e-08
5.04309e-06
-7.72916e-08
5.03088e-06
-6.7633e-08
5.01459e-06
-5.79618e-08
4.9958e-06
-4.91969e-08
4.97551e-06
-4.10717e-08
4.95396e-06
-3.33176e-08
4.93149e-06
-2.63202e-08
4.9083e-06
-2.02806e-08
4.88484e-06
-1.5464e-08
-1.2099e-08
4.8616e-06
4.097e-06
3.97367e-06
3.84727e-06
3.72383e-06
3.60691e-06
3.4992e-06
3.4018e-06
3.31469e-06
3.23739e-06
3.16976e-06
3.1118e-06
3.0626e-06
3.02153e-06
2.98821e-06
2.96189e-06
2.94161e-06
2.92615e-06
2.91405e-06
-7.37187e-09
7.3786e-09
-1.98696e-08
1.25236e-08
-3.34967e-08
1.36328e-08
-4.47965e-08
1.13296e-08
-4.89377e-08
4.13695e-09
-4.05539e-08
-8.34342e-09
-1.82252e-08
-2.23517e-08
1.5891e-08
-3.40744e-08
5.77553e-08
-4.18978e-08
1.03029e-07
-4.52388e-08
1.47697e-07
-4.47026e-08
1.89216e-07
-4.14918e-08
2.25755e-07
-3.65739e-08
2.56423e-07
-3.06474e-08
2.80571e-07
-2.41822e-08
2.98022e-07
-1.74364e-08
3.08504e-07
-1.05203e-08
3.11918e-07
-3.40443e-09
3.07986e-07
3.8933e-09
2.96846e-07
1.11441e-08
2.78797e-07
1.80073e-08
2.54598e-07
2.41984e-08
2.25129e-07
2.94215e-08
1.91766e-07
3.33546e-08
1.56077e-07
3.5633e-08
1.20117e-07
3.5934e-08
8.59834e-08
3.40572e-08
5.58515e-08
3.00785e-08
3.128e-08
2.44711e-08
1.31009e-08
1.80922e-08
1.22898e-09
1.1747e-08
-4.68667e-09
5.80655e-09
-4.87068e-09
5.3922e-11
8.12354e-10
-5.79741e-09
1.28261e-08
-1.21344e-08
3.19959e-08
-1.92623e-08
5.80864e-08
-2.61814e-08
8.8269e-08
-3.02471e-08
1.17528e-07
-2.93244e-08
1.4116e-07
-2.36804e-08
1.563e-07
-1.51907e-08
1.62962e-07
-6.70476e-09
1.63254e-07
-3.37728e-10
1.59953e-07
3.26135e-09
1.56359e-07
3.54746e-09
1.536e-07
2.71969e-09
1.44549e-07
9.00324e-09
1.21242e-07
2.32711e-08
7.65979e-08
4.45931e-08
5.75392e-09
7.07993e-08
-8.96012e-08
9.53085e-08
-2.03978e-07
1.14345e-07
-3.34409e-07
1.304e-07
-4.77495e-07
1.43057e-07
-6.26087e-07
1.48565e-07
-7.76347e-07
1.50234e-07
-9.25894e-07
1.49523e-07
-1.07014e-06
1.44222e-07
-1.20654e-06
1.36381e-07
-1.33405e-06
1.27486e-07
-1.45236e-06
1.18289e-07
-1.5603e-06
1.07924e-07
-1.65853e-06
9.82129e-08
-1.74877e-06
9.0216e-08
-1.83121e-06
8.24332e-08
-1.90674e-06
7.55058e-08
-1.97619e-06
6.9437e-08
-2.04031e-06
6.41112e-08
-2.0998e-06
5.94775e-08
-2.15523e-06
5.5423e-08
-2.20711e-06
5.18698e-08
-2.25585e-06
4.87294e-08
-2.30179e-06
4.59316e-08
-2.34521e-06
4.34109e-08
-2.38633e-06
4.11154e-08
-2.42534e-06
3.90002e-08
-2.46238e-06
3.70304e-08
-2.49757e-06
3.5177e-08
-2.53099e-06
3.34173e-08
-2.56274e-06
3.17322e-08
-2.59285e-06
3.01077e-08
-2.62139e-06
2.85309e-08
-2.64839e-06
2.69923e-08
-2.67388e-06
2.54818e-08
-2.69787e-06
2.39934e-08
-2.7204e-06
2.25199e-08
-2.74146e-06
2.10579e-08
-2.76105e-06
1.96021e-08
-2.77919e-06
1.81474e-08
-2.79586e-06
1.66891e-08
-2.81106e-06
1.52178e-08
-2.82477e-06
1.37295e-08
-2.83697e-06
1.22172e-08
-2.84762e-06
1.06749e-08
-2.85669e-06
9.09057e-09
-2.86413e-06
7.45195e-09
-2.86985e-06
5.74187e-09
-2.87378e-06
3.95092e-09
-2.87586e-06
2.09007e-09
-2.87607e-06
2.3301e-10
-2.87465e-06
-1.41794e-09
-2.87178e-06
-2.86747e-09
-2.8675e-06
-4.28117e-09
-2.86182e-06
-5.68944e-09
-2.85472e-06
-7.10471e-09
-2.8462e-06
-8.53283e-09
-2.83624e-06
-9.97041e-09
-2.82483e-06
-1.14212e-08
-2.81195e-06
-1.28806e-08
-2.79759e-06
-1.43522e-08
-2.78176e-06
-1.58312e-08
-2.76443e-06
-1.73206e-08
-2.7456e-06
-1.88148e-08
-2.72527e-06
-2.03154e-08
-2.70343e-06
-2.18171e-08
-2.68008e-06
-2.33213e-08
-2.65522e-06
-2.4825e-08
-2.62886e-06
-2.63292e-08
-2.601e-06
-2.78299e-08
-2.57163e-06
-2.93237e-08
-2.54078e-06
-3.0806e-08
-2.50846e-06
-3.2273e-08
-2.47468e-06
-3.37251e-08
-2.43945e-06
-3.51577e-08
-2.40282e-06
-3.65676e-08
-2.3648e-06
-3.79456e-08
-2.32543e-06
-3.93029e-08
-2.28472e-06
-4.06366e-08
-2.24275e-06
-4.19084e-08
-2.19955e-06
-4.31222e-08
-2.15522e-06
-4.42822e-08
-2.1098e-06
-4.53587e-08
-2.06337e-06
-4.63985e-08
-2.01594e-06
-4.74051e-08
-1.96748e-06
-4.84666e-08
-1.91803e-06
-4.94562e-08
-1.86773e-06
-5.03548e-08
-1.81664e-06
-5.11676e-08
-1.76486e-06
-5.191e-08
-1.71248e-06
-5.25576e-08
-1.65954e-06
-5.31329e-08
-1.60615e-06
-5.35989e-08
-1.55236e-06
-5.39804e-08
-1.4983e-06
-5.4268e-08
-1.44403e-06
-5.44647e-08
-1.38965e-06
-5.45821e-08
-1.33523e-06
-5.46114e-08
-1.28086e-06
-5.45575e-08
-1.22662e-06
-5.44268e-08
-1.17259e-06
-5.42118e-08
-1.11883e-06
-5.39275e-08
-1.06542e-06
-5.35694e-08
-1.01243e-06
-5.3147e-08
-9.5991e-07
-5.26682e-08
-9.0791e-07
-5.21329e-08
-8.5648e-07
-5.15568e-08
-8.05651e-07
-5.09397e-08
-7.55456e-07
-5.0295e-08
-7.05913e-07
-4.96254e-08
-6.57039e-07
-4.89433e-08
-6.08842e-07
-4.82495e-08
-5.61322e-07
-4.75566e-08
-5.14479e-07
-4.68633e-08
-4.683e-07
-4.61815e-08
-4.22773e-07
-4.55138e-08
-3.77868e-07
-4.48744e-08
-3.3356e-07
-4.42615e-08
-2.89799e-07
-4.36987e-08
-2.46544e-07
-4.31781e-08
-2.03752e-07
-4.27004e-08
-1.6136e-07
-4.22858e-08
-1.19301e-07
-4.19424e-08
-7.76218e-08
-4.15489e-08
-3.64599e-08
-4.10231e-08
3.88486e-09
-4.01906e-08
4.28269e-08
-3.87827e-08
7.97354e-08
-3.67382e-08
1.13104e-07
-3.32187e-08
1.43747e-07
-3.05087e-08
-8.40227e-09
1.52207e-07
-3.21954e-09
1.06044e-08
-8.58714e-09
1.79329e-08
-1.06846e-08
1.57292e-08
-2.91147e-09
3.60922e-09
1.88809e-08
-1.76678e-08
5.40441e-08
-4.34749e-08
9.83378e-08
-6.66622e-08
1.4655e-07
-8.22668e-08
1.93906e-07
-8.92702e-08
2.3766e-07
-8.89769e-08
2.7643e-07
-8.34891e-08
3.09758e-07
-7.48063e-08
3.37575e-07
-6.44074e-08
3.6018e-07
-5.32422e-08
3.77852e-07
-4.18737e-08
3.9102e-07
-3.05994e-08
4.00027e-07
-1.95503e-08
4.05413e-07
-8.78948e-09
4.07554e-07
1.72532e-09
4.06595e-07
1.20997e-08
4.02197e-07
2.23767e-08
3.93925e-07
3.24589e-08
3.81234e-07
4.20811e-08
3.63752e-07
5.0819e-08
3.41252e-07
5.80943e-08
3.13938e-07
6.3219e-08
2.82452e-07
6.54936e-08
2.48102e-07
6.43845e-08
2.12801e-07
5.97058e-08
1.7913e-07
5.16974e-08
1.49893e-07
4.0892e-08
1.27713e-07
2.78919e-08
1.14481e-07
1.31658e-08
1.11393e-07
-2.82018e-09
1.18354e-07
-1.9206e-08
1.33621e-07
-3.46137e-08
1.52764e-07
-4.54008e-08
1.69691e-07
-4.72309e-08
1.79781e-07
-3.94702e-08
1.81222e-07
-2.51665e-08
1.73776e-07
-7.79606e-09
1.58653e-07
8.37123e-09
1.36237e-07
2.20226e-08
1.00365e-07
3.90839e-08
4.1298e-08
6.25499e-08
-4.89324e-08
9.29008e-08
-1.6915e-07
1.29181e-07
-3.11356e-07
1.65454e-07
-4.66433e-07
1.9965e-07
-6.2677e-07
2.3112e-07
-7.88528e-07
2.57053e-07
-9.49503e-07
2.75306e-07
-1.1054e-06
2.86284e-07
-1.25198e-06
2.89619e-07
-1.38816e-06
2.84734e-07
-1.51142e-06
2.73484e-07
-1.62044e-06
2.58525e-07
-1.71677e-06
2.40543e-07
-1.80177e-06
2.21365e-07
-1.87668e-06
2.02384e-07
-1.94271e-06
1.84298e-07
-2.00211e-06
1.67315e-07
-2.0559e-06
1.51995e-07
-2.10449e-06
1.38793e-07
-2.14924e-06
1.27171e-07
-2.19082e-06
1.1707e-07
-2.22971e-06
1.08323e-07
-2.26634e-06
1.00724e-07
-2.30096e-06
9.40982e-08
-2.33382e-06
8.82741e-08
-2.36507e-06
8.31093e-08
-2.39482e-06
7.84779e-08
-2.42317e-06
7.42766e-08
-2.45019e-06
7.04192e-08
-2.47591e-06
6.68359e-08
-2.50039e-06
6.34709e-08
-2.52365e-06
6.02792e-08
-2.5457e-06
5.72256e-08
-2.56657e-06
5.42815e-08
-2.58627e-06
5.14242e-08
-2.60481e-06
4.86358e-08
-2.62218e-06
4.59014e-08
-2.6384e-06
4.32083e-08
-2.65347e-06
4.05461e-08
-2.66739e-06
3.79062e-08
-2.68015e-06
3.52814e-08
-2.69176e-06
3.26665e-08
-2.70221e-06
3.00556e-08
-2.7115e-06
2.74451e-08
-2.71963e-06
2.48264e-08
-2.72659e-06
2.21951e-08
-2.73239e-06
1.95452e-08
-2.73703e-06
1.68708e-08
-2.74051e-06
1.41676e-08
-2.74284e-06
1.14319e-08
-2.74404e-06
8.66916e-09
-2.74418e-06
5.89093e-09
-2.74334e-06
3.11903e-09
-2.74161e-06
3.74699e-10
-2.73904e-06
-2.32625e-09
-2.73543e-06
-5.02416e-09
-2.73055e-06
-7.75392e-09
-2.72433e-06
-1.05065e-08
-2.71674e-06
-1.32805e-08
-2.70778e-06
-1.60785e-08
-2.69742e-06
-1.89008e-08
-2.68566e-06
-2.17459e-08
-2.67247e-06
-2.46134e-08
-2.65785e-06
-2.75008e-08
-2.64179e-06
-3.04078e-08
-2.62429e-06
-3.33311e-08
-2.60533e-06
-3.62698e-08
-2.58492e-06
-3.92196e-08
-2.56304e-06
-4.21784e-08
-2.5397e-06
-4.51411e-08
-2.5149e-06
-4.81063e-08
-2.48863e-06
-5.10704e-08
-2.4609e-06
-5.40318e-08
-2.43172e-06
-5.69842e-08
-2.4011e-06
-5.99216e-08
-2.36904e-06
-6.28356e-08
-2.33555e-06
-6.57213e-08
-2.30066e-06
-6.85733e-08
-2.26439e-06
-7.13877e-08
-2.22675e-06
-7.41576e-08
-2.18777e-06
-7.68761e-08
-2.14749e-06
-7.95363e-08
-2.10595e-06
-8.21296e-08
-2.06316e-06
-8.46382e-08
-2.01919e-06
-8.70571e-08
-1.97404e-06
-8.93828e-08
-1.92777e-06
-9.16004e-08
-1.8804e-06
-9.37383e-08
-1.832e-06
-9.57927e-08
-1.7827e-06
-9.77627e-08
-1.73257e-06
-9.9607e-08
-1.68165e-06
-1.01301e-07
-1.63004e-06
-1.02848e-07
-1.5778e-06
-1.04242e-07
-1.52501e-06
-1.05466e-07
-1.47176e-06
-1.06521e-07
-1.4181e-06
-1.07391e-07
-1.36413e-06
-1.08077e-07
-1.30994e-06
-1.08593e-07
-1.25561e-06
-1.08924e-07
-1.20123e-06
-1.09098e-07
-1.14687e-06
-1.09098e-07
-1.09261e-06
-1.08937e-07
-1.03854e-06
-1.08617e-07
-9.84728e-07
-1.08143e-07
-9.31244e-07
-1.07522e-07
-8.78155e-07
-1.06767e-07
-8.25521e-07
-1.05881e-07
-7.73397e-07
-1.04888e-07
-7.2183e-07
-1.03788e-07
-6.70861e-07
-1.02605e-07
-6.20523e-07
-1.01348e-07
-5.7084e-07
-1.00037e-07
-5.21829e-07
-9.86869e-08
-4.73499e-07
-9.73104e-08
-4.25852e-07
-9.5925e-08
-3.78882e-07
-9.45394e-08
-3.32582e-07
-9.31694e-08
-2.8693e-07
-9.18198e-08
-2.41909e-07
-9.05175e-08
-1.97478e-07
-8.92664e-08
-1.53605e-07
-8.80914e-08
-1.10236e-07
-8.70042e-08
-6.73222e-08
-8.60258e-08
-2.48078e-08
-8.51271e-08
1.72906e-08
-8.42972e-08
5.89392e-08
-8.3483e-08
1.00165e-07
-8.26703e-08
1.41032e-07
-8.17676e-08
1.81559e-07
-8.05989e-08
2.21734e-07
-7.88226e-08
2.61163e-07
-7.60381e-08
2.99512e-07
-7.14331e-08
3.3366e-07
-6.45437e-08
-4.1188e-08
3.66526e-07
3.90124e-10
1.02164e-08
4.23524e-09
1.41158e-08
1.85536e-08
1.41015e-09
5.01318e-08
-2.7947e-08
9.73166e-08
-6.48596e-08
1.51099e-07
-9.72426e-08
2.02457e-07
-1.18029e-07
2.46539e-07
-1.26336e-07
2.82034e-07
-1.24774e-07
3.09799e-07
-1.1673e-07
3.31298e-07
-1.04998e-07
3.47964e-07
-9.14631e-08
3.60798e-07
-7.72522e-08
3.70544e-07
-6.29813e-08
3.77626e-07
-4.89686e-08
3.82394e-07
-3.53633e-08
3.85053e-07
-2.22263e-08
3.85848e-07
-9.58459e-09
3.84994e-07
2.55931e-09
3.82849e-07
1.42392e-08
3.79678e-07
2.55259e-08
3.75673e-07
3.64531e-08
3.70754e-07
4.69739e-08
3.64639e-07
5.69163e-08
3.56755e-07
6.59458e-08
3.46411e-07
7.35353e-08
3.32893e-07
7.89719e-08
3.1582e-07
8.14207e-08
2.95408e-07
8.00701e-08
2.72723e-07
7.43346e-08
2.49617e-07
6.39397e-08
2.284e-07
4.90482e-08
2.11242e-07
3.02524e-08
1.99444e-07
8.90641e-09
1.92346e-07
-1.21786e-08
1.85886e-07
-2.82101e-08
1.74137e-07
-3.37044e-08
1.53788e-07
-2.69229e-08
1.24516e-07
-1.02404e-08
8.62823e-08
1.30296e-08
3.63199e-08
4.21206e-08
-3.13039e-08
7.59543e-08
-1.2238e-07
1.13062e-07
-2.37463e-07
1.54143e-07
-3.73259e-07
1.98327e-07
-5.23198e-07
2.42826e-07
-6.78636e-07
2.84608e-07
-8.33948e-07
3.20756e-07
-9.83815e-07
3.49509e-07
-1.12281e-06
3.70108e-07
-1.24791e-06
3.82142e-07
-1.35825e-06
3.85636e-07
-1.45327e-06
3.81298e-07
-1.53364e-06
3.69976e-07
-1.60185e-06
3.52934e-07
-1.66049e-06
3.32111e-07
-1.71144e-06
3.09466e-07
-1.75707e-06
2.86167e-07
-1.79906e-06
2.63345e-07
-1.83846e-06
2.41775e-07
-1.876e-06
2.21828e-07
-1.91239e-06
2.03698e-07
-1.9479e-06
1.87491e-07
-1.98235e-06
1.73238e-07
-2.01589e-06
1.60699e-07
-2.04851e-06
1.49687e-07
-2.0802e-06
1.40006e-07
-2.11094e-06
1.31456e-07
-2.14071e-06
1.23856e-07
-2.16948e-06
1.17042e-07
-2.19725e-06
1.10873e-07
-2.224e-06
1.05229e-07
-2.24974e-06
1.00008e-07
-2.27445e-06
9.51251e-08
-2.29813e-06
9.05122e-08
-2.32078e-06
8.61138e-08
-2.34239e-06
8.18855e-08
-2.36296e-06
7.7792e-08
-2.38249e-06
7.38052e-08
-2.40097e-06
6.99025e-08
-2.4184e-06
6.6066e-08
-2.43479e-06
6.22808e-08
-2.45012e-06
5.85342e-08
-2.46439e-06
5.48161e-08
-2.4776e-06
5.11174e-08
-2.48976e-06
4.74308e-08
-2.50084e-06
4.37502e-08
-2.51085e-06
4.00709e-08
-2.51979e-06
3.63866e-08
-2.52765e-06
3.26926e-08
-2.53443e-06
2.89823e-08
-2.54012e-06
2.52508e-08
-2.54474e-06
2.14951e-08
-2.54828e-06
1.77104e-08
-2.55073e-06
1.38976e-08
-2.55212e-06
1.00597e-08
-2.55243e-06
6.20682e-09
-2.55165e-06
2.34675e-09
-2.54975e-06
-1.51753e-09
-2.54667e-06
-5.40072e-09
-2.54236e-06
-9.33383e-09
-2.53679e-06
-1.33298e-08
-2.52993e-06
-1.73775e-08
-2.52175e-06
-2.14694e-08
-2.51223e-06
-2.56034e-08
-2.50137e-06
-2.97748e-08
-2.48914e-06
-3.39823e-08
-2.47553e-06
-3.82218e-08
-2.46055e-06
-4.24919e-08
-2.44416e-06
-4.67884e-08
-2.42638e-06
-5.11096e-08
-2.4072e-06
-5.54508e-08
-2.3866e-06
-5.98091e-08
-2.36459e-06
-6.41792e-08
-2.34116e-06
-6.85569e-08
-2.31632e-06
-7.29373e-08
-2.29006e-06
-7.73164e-08
-2.26238e-06
-8.16891e-08
-2.2333e-06
-8.60483e-08
-2.20282e-06
-9.0385e-08
-2.17094e-06
-9.46893e-08
-2.13768e-06
-9.89525e-08
-2.10306e-06
-1.03166e-07
-2.06709e-06
-1.07324e-07
-2.0298e-06
-1.11416e-07
-1.99121e-06
-1.15432e-07
-1.95135e-06
-1.19358e-07
-1.91027e-06
-1.2318e-07
-1.86798e-06
-1.26887e-07
-1.82454e-06
-1.30468e-07
-1.77999e-06
-1.33908e-07
-1.73437e-06
-1.37197e-07
-1.68774e-06
-1.40348e-07
-1.64016e-06
-1.43358e-07
-1.59173e-06
-1.46189e-07
-1.54252e-06
-1.48828e-07
-1.49259e-06
-1.51253e-07
-1.44202e-06
-1.53462e-07
-1.39088e-06
-1.55441e-07
-1.33925e-06
-1.5717e-07
-1.28721e-06
-1.58647e-07
-1.23481e-06
-1.59856e-07
-1.18216e-06
-1.60797e-07
-1.12933e-06
-1.61483e-07
-1.07641e-06
-1.61907e-07
-1.02347e-06
-1.62087e-07
-9.70603e-07
-1.6202e-07
-9.17877e-07
-1.6171e-07
-8.65371e-07
-1.6117e-07
-8.13151e-07
-1.60404e-07
-7.61287e-07
-1.59426e-07
-7.09837e-07
-1.58252e-07
-6.58858e-07
-1.56894e-07
-6.08397e-07
-1.55377e-07
-5.58497e-07
-1.53715e-07
-5.09194e-07
-1.51931e-07
-4.60515e-07
-1.50049e-07
-4.12478e-07
-1.48092e-07
-3.65093e-07
-1.46086e-07
-3.18364e-07
-1.44051e-07
-2.72285e-07
-1.42013e-07
-2.26846e-07
-1.39986e-07
-1.82029e-07
-1.37991e-07
-1.37809e-07
-1.36042e-07
-9.41561e-08
-1.34171e-07
-5.103e-08
-1.32393e-07
-8.3855e-09
-1.30734e-07
3.38148e-08
-1.29204e-07
7.56172e-08
-1.27826e-07
1.17098e-07
-1.26609e-07
1.58348e-07
-1.25548e-07
1.99447e-07
-1.24586e-07
2.40447e-07
-1.23674e-07
2.81372e-07
-1.22699e-07
3.22231e-07
-1.21462e-07
3.63003e-07
-1.19599e-07
4.03539e-07
-1.16574e-07
4.43645e-07
-1.11543e-07
4.82352e-07
-1.03259e-07
-8.17859e-08
5.22924e-07
2.13397e-10
1.00015e-08
1.29881e-08
1.35617e-09
5.01377e-08
-3.57458e-08
1.07183e-07
-8.4979e-08
1.68202e-07
-1.25886e-07
2.20368e-07
-1.49397e-07
2.58799e-07
-1.56467e-07
2.84657e-07
-1.52183e-07
3.01331e-07
-1.41455e-07
3.12176e-07
-1.27565e-07
3.19493e-07
-1.12322e-07
3.24671e-07
-9.66325e-08
3.2835e-07
-8.09396e-08
3.30844e-07
-6.54699e-08
3.32214e-07
-5.03488e-08
3.32508e-07
-3.56546e-08
3.3171e-07
-2.14414e-08
3.29876e-07
-7.75204e-09
3.27044e-07
5.37521e-09
3.23355e-07
1.79231e-08
3.18974e-07
2.98879e-08
3.14153e-07
4.12632e-08
3.0908e-07
5.20232e-08
3.03899e-07
6.20797e-08
2.98566e-07
7.12495e-08
2.92866e-07
7.92091e-08
2.86342e-07
8.54588e-08
2.78421e-07
8.93073e-08
2.68545e-07
8.9902e-08
2.56406e-07
8.64308e-08
2.42082e-07
7.82128e-08
2.26216e-07
6.48602e-08
2.09473e-07
4.69343e-08
1.91298e-07
2.70222e-08
1.67858e-07
1.12018e-08
1.33811e-07
5.78884e-09
8.71655e-08
1.28956e-08
2.83035e-08
3.19016e-08
-4.41943e-08
6.22207e-08
-1.32921e-07
1.0173e-07
-2.3859e-07
1.47766e-07
-3.59992e-07
1.9734e-07
-4.94484e-07
2.47541e-07
-6.36553e-07
2.96201e-07
-7.79901e-07
3.41667e-07
-9.18523e-07
3.81442e-07
-1.04682e-06
4.12899e-07
-1.16113e-06
4.35057e-07
-1.25979e-06
4.48165e-07
-1.34231e-06
4.52626e-07
-1.40958e-06
4.49405e-07
-1.46362e-06
4.3967e-07
-1.50692e-06
4.24594e-07
-1.54239e-06
4.05429e-07
-1.57293e-06
3.8347e-07
-1.60087e-06
3.60047e-07
-1.62771e-06
3.36294e-07
-1.65453e-06
3.12984e-07
-1.6819e-06
2.90706e-07
-1.70999e-06
2.69849e-07
-1.73877e-06
2.50605e-07
-1.76814e-06
2.33061e-07
-1.79788e-06
2.17226e-07
-1.8277e-06
2.03042e-07
-1.85737e-06
1.90364e-07
-1.88672e-06
1.79032e-07
-1.9156e-06
1.68881e-07
-1.94389e-06
1.59743e-07
-1.9715e-06
1.51462e-07
-1.99836e-06
1.43896e-07
-2.02441e-06
1.3692e-07
-2.04961e-06
1.30427e-07
-2.07393e-06
1.24322e-07
-2.09733e-06
1.1853e-07
-2.11981e-06
1.12985e-07
-2.14134e-06
1.07637e-07
-2.1619e-06
1.02445e-07
-2.18149e-06
9.73766e-08
-2.20009e-06
9.24052e-08
-2.2177e-06
8.75104e-08
-2.23431e-06
8.26756e-08
-2.24992e-06
7.78871e-08
-2.26453e-06
7.31331e-08
-2.27812e-06
6.84037e-08
-2.29069e-06
6.36902e-08
-2.30225e-06
5.8985e-08
-2.31278e-06
5.4282e-08
-2.32228e-06
4.95752e-08
-2.33075e-06
4.48597e-08
-2.33818e-06
4.01276e-08
-2.34457e-06
3.53752e-08
-2.34991e-06
3.05959e-08
-2.3542e-06
2.57859e-08
-2.35742e-06
2.09406e-08
-2.35958e-06
1.60584e-08
-2.36066e-06
1.11392e-08
-2.36063e-06
6.18537e-09
-2.35948e-06
1.19622e-09
-2.35716e-06
-3.83375e-09
-2.35364e-06
-8.91914e-09
-2.34891e-06
-1.40762e-08
-2.34293e-06
-1.93097e-08
-2.33571e-06
-2.46135e-08
-2.3272e-06
-2.99796e-08
-2.31741e-06
-3.54034e-08
-2.30632e-06
-4.08784e-08
-2.2939e-06
-4.64014e-08
-2.28016e-06
-5.19667e-08
-2.26508e-06
-5.75718e-08
-2.24866e-06
-6.32109e-08
-2.23089e-06
-6.88815e-08
-2.21176e-06
-7.45778e-08
-2.19126e-06
-8.0296e-08
-2.16941e-06
-8.60296e-08
-2.14618e-06
-9.17738e-08
-2.12158e-06
-9.75216e-08
-2.09562e-06
-1.03268e-07
-2.06829e-06
-1.09005e-07
-2.0396e-06