/*--------------------------------*- C++ -*----------------------------------*\
  =========                 |
  \\      /  F ield         | OpenFOAM: The Open Source CFD Toolbox
   \\    /   O peration     | Website:  https://openfoam.org
    \\  /    A nd           | Version:  13
     \\/     M anipulation  |
\*---------------------------------------------------------------------------*/
FoamFile
{
    format      ascii;
    class       volVectorField;
    location    "300";
    object      U;
}
// * * * * * * * * * * * * * * * * * * * * * * * * * * * * * * * * * * * * * //

dimensions      [0 1 -1 0 0 0 0];

internalField   nonuniform List<vector> 
12225
(
(9.75248 0.0489017 0)
(9.28066 0.0936553 0)
(8.82206 0.0982719 0)
(8.38257 0.093944 0)
(7.99114 0.0907658 0)
(7.65399 0.0777308 0)
(7.37981 0.0583079 0)
(7.13935 0.0635065 0)
(6.92785 0.0612236 0)
(6.75277 0.0351039 0)
(6.6093 0.0181691 0)
(6.48761 0.0194453 0)
(6.40508 0.02084 0)
(6.34159 0.0170808 0)
(6.28795 0.00682807 0)
(6.25525 -0.00917125 0)
(6.23643 -0.0174496 0)
(6.23225 -0.00925213 0)
(10.1068 0.0561985 0)
(10.3121 0.0925984 0)
(10.4368 0.0952761 0)
(10.5017 0.0950249 0)
(10.5118 0.0928173 0)
(10.4735 0.0895727 0)
(10.4054 0.085545 0)
(10.3243 0.0778402 0)
(10.2203 0.0716609 0)
(10.1228 0.0687343 0)
(10.0304 0.0640077 0)
(9.94078 0.0556036 0)
(9.83444 0.0469395 0)
(9.73313 0.0416624 0)
(9.63627 0.0381015 0)
(9.54844 0.0344841 0)
(9.46648 0.0289985 0)
(9.39029 0.0208127 0)
(10.0097 0.0453301 0)
(10.0592 0.0691641 0)
(10.1111 0.0682745 0)
(10.159 0.0725788 0)
(10.208 0.0793482 0)
(10.2563 0.0820974 0)
(10.2976 0.0826887 0)
(10.3316 0.0840396 0)
(10.3598 0.0825738 0)
(10.3806 0.0781559 0)
(10.3935 0.0741089 0)
(10.4009 0.0706411 0)
(10.4028 0.0672988 0)
(10.4005 0.0640888 0)
(10.3946 0.0598149 0)
(10.3837 0.0541459 0)
(10.3686 0.0484209 0)
(10.3506 0.0419882 0)
(10.0113 0.0258392 0)
(10.0367 0.05215 0)
(10.0631 0.0594715 0)
(10.0794 0.06522 0)
(10.0945 0.070382 0)
(10.1113 0.0721489 0)
(10.1282 0.071723 0)
(10.1453 0.0714931 0)
(10.1628 0.0692985 0)
(10.179 0.0647824 0)
(10.1932 0.0607196 0)
(10.2063 0.0578684 0)
(10.219 0.0550506 0)
(10.2313 0.0518115 0)
(10.2428 0.0482258 0)
(10.2529 0.0440692 0)
(10.2611 0.039904 0)
(10.2684 0.035974 0)
(10.0066 0.0244667 0)
(10.0228 0.050571 0)
(10.0493 0.0598043 0)
(10.066 0.0648771 0)
(10.0796 0.0688847 0)
(10.0925 0.0703481 0)
(10.1047 0.0701515 0)
(10.1163 0.0697803 0)
(10.1273 0.0678815 0)
(10.1369 0.0642957 0)
(10.1449 0.0607078 0)
(10.1521 0.0577236 0)
(10.1591 0.0548456 0)
(10.1659 0.0517385 0)
(10.1723 0.0482104 0)
(10.1782 0.0442362 0)
(10.1833 0.0402472 0)
(10.188 0.0365177 0)
(10.0018 0.021661 0)
(10.0195 0.0443807 0)
(10.04 0.0547577 0)
(10.0556 0.0598853 0)
(10.0692 0.0639363 0)
(10.0817 0.0658051 0)
(10.0937 0.0659498 0)
(10.1049 0.0653026 0)
(10.1152 0.0633468 0)
(10.1242 0.0602108 0)
(10.1318 0.0569126 0)
(10.1384 0.0538955 0)
(10.1446 0.0509626 0)
(10.1503 0.0478725 0)
(10.1556 0.0444914 0)
(10.1603 0.0408219 0)
(10.1643 0.0370769 0)
(10.1677 0.0333595 0)
(10.0009 0.0176548 0)
(10.0174 0.0382231 0)
(10.033 0.0493569 0)
(10.0475 0.0549293 0)
(10.0602 0.0590422 0)
(10.072 0.0611717 0)
(10.0833 0.0615604 0)
(10.0939 0.0609466 0)
(10.1035 0.0592748 0)
(10.1121 0.0567663 0)
(10.1195 0.0540072 0)
(10.1261 0.0512874 0)
(10.1322 0.0485513 0)
(10.1377 0.0456538 0)
(10.1427 0.0425093 0)
(10.1472 0.0391425 0)
(10.151 0.0356855 0)
(10.1542 0.0321693 0)
(10.0017 0.0142935 0)
(10.0142 0.0332581 0)
(10.0278 0.0444187 0)
(10.0413 0.0502347 0)
(10.053 0.0542258 0)
(10.0641 0.0565357 0)
(10.0748 0.0572405 0)
(10.0847 0.0568297 0)
(10.0938 0.0554324 0)
(10.1019 0.0533044 0)
(10.1091 0.0508277 0)
(10.1155 0.0482195 0)
(10.1214 0.0455203 0)
(10.1267 0.0426716 0)
(10.1315 0.0396419 0)
(10.1358 0.0364646 0)
(10.1396 0.0332273 0)
(10.1427 0.0299574 0)
(10.0015 0.0119421 0)
(10.0111 0.0291453 0)
(10.0237 0.0399658 0)
(10.0361 0.0458859 0)
(10.0471 0.0497957 0)
(10.0576 0.0521329 0)
(10.0677 0.0530051 0)
(10.0772 0.0527093 0)
(10.0858 0.0514723 0)
(10.0936 0.0495955 0)
(10.1006 0.0473563 0)
(10.1069 0.0449278 0)
(10.1126 0.0423785 0)
(10.1177 0.0397021 0)
(10.1224 0.0368954 0)
(10.1267 0.0339886 0)
(10.1303 0.0310426 0)
(10.1335 0.0280849 0)
(10.0011 0.00988523 0)
(10.0087 0.0251618 0)
(10.02 0.0355253 0)
(10.0315 0.0415103 0)
(10.0419 0.0453588 0)
(10.0519 0.0476702 0)
(10.0615 0.048605 0)
(10.0706 0.0484135 0)
(10.0789 0.0473751 0)
(10.0865 0.0457571 0)
(10.0933 0.0437689 0)
(10.0995 0.041557 0)
(10.1051 0.0391945 0)
(10.1102 0.0367059 0)
(10.1149 0.0341053 0)
(10.119 0.0314303 0)
(10.1227 0.0287211 0)
(10.1258 0.0260087 0)
(10.0008 0.00820029 0)
(10.0068 0.0214154 0)
(10.0166 0.0310082 0)
(10.0272 0.036964 0)
(10.0371 0.0407629 0)
(10.0467 0.0430631 0)
(10.0559 0.0440618 0)
(10.0646 0.0440024 0)
(10.0727 0.0431585 0)
(10.08 0.0417682 0)
(10.0867 0.0400082 0)
(10.0928 0.0380016 0)
(10.0984 0.035828 0)
(10.1035 0.0335259 0)
(10.108 0.0311275 0)
(10.1121 0.0286702 0)
(10.1158 0.0261847 0)
(10.1189 0.0237083 0)
(10.0006 0.00687622 0)
(10.0055 0.0183567 0)
(10.014 0.0271519 0)
(10.0236 0.0328525 0)
(10.033 0.03651 0)
(10.0422 0.0387473 0)
(10.051 0.0397771 0)
(10.0593 0.0398247 0)
(10.0672 0.0391415 0)
(10.0743 0.0379386 0)
(10.0809 0.0363716 0)
(10.087 0.0345515 0)
(10.0925 0.0325559 0)
(10.0975 0.0304354 0)
(10.102 0.0282261 0)
(10.1061 0.0259668 0)
(10.1097 0.0236832 0)
(10.1129 0.0214171 0)
(10.0005 0.0057681 0)
(10.0045 0.01552 0)
(10.0118 0.0234305 0)
(10.0205 0.0287607 0)
(10.0292 0.0322241 0)
(10.0378 0.0343728 0)
(10.0462 0.0354187 0)
(10.0543 0.0355584 0)
(10.0618 0.0350136 0)
(10.0688 0.0339749 0)
(10.0753 0.0325835 0)
(10.0812 0.0309427 0)
(10.0866 0.0291272 0)
(10.0915 0.027191 0)
(10.096 0.0251734 0)
(10.1001 0.0231131 0)
(10.1037 0.0210333 0)
(10.1069 0.0189721 0)
(10.0004 0.00470689 0)
(10.0037 0.0126815 0)
(10.0098 0.0195163 0)
(10.0174 0.0242884 0)
(10.0254 0.0274286 0)
(10.0334 0.0293989 0)
(10.0413 0.0303955 0)
(10.0489 0.0305878 0)
(10.0561 0.0301626 0)
(10.0628 0.029284 0)
(10.0691 0.0280771 0)
(10.0748 0.0266316 0)
(10.0801 0.0250201 0)
(10.085 0.023292 0)
(10.0894 0.0214914 0)
(10.0934 0.0196516 0)
(10.097 0.0177957 0)
(10.1002 0.0159607 0)
(10.0003 0.00366808 0)
(10.003 0.00983106 0)
(10.0081 0.0154076 0)
(10.0147 0.0194329 0)
(10.0219 0.022116 0)
(10.0292 0.02381 0)
(10.0365 0.0246833 0)
(10.0435 0.0248787 0)
(10.0503 0.0245428 0)
(10.0567 0.0238101 0)
(10.0627 0.0227835 0)
(10.0682 0.0215432 0)
(10.0733 0.0201487 0)
(10.078 0.0186503 0)
(10.0823 0.0170842 0)
(10.0863 0.015486 0)
(10.0898 0.0138703 0)
(10.093 0.0122777 0)
(10.0003 0.00264022 0)
(10.0025 0.00697524 0)
(10.0067 0.0111288 0)
(10.0124 0.0142136 0)
(10.0188 0.0162883 0)
(10.0254 0.0175946 0)
(10.0321 0.0182597 0)
(10.0386 0.0183941 0)
(10.045 0.0181045 0)
(10.051 0.0174916 0)
(10.0566 0.0166353 0)
(10.0619 0.0155994 0)
(10.0668 0.0144328 0)
(10.0713 0.0131769 0)
(10.0755 0.0118633 0)
(10.0793 0.010521 0)
(10.0828 0.00916231 0)
(10.0859 0.00782224 0)
(10.0002 0.00160817 0)
(10.0021 0.00408544 0)
(10.0057 0.00666846 0)
(10.0106 0.00862193 0)
(10.0163 0.00992217 0)
(10.0223 0.0107112 0)
(10.0284 0.011068 0)
(10.0345 0.0110634 0)
(10.0404 0.010766 0)
(10.0461 0.0102386 0)
(10.0515 0.0095366 0)
(10.0565 0.00870123 0)
(10.0612 0.0077697 0)
(10.0655 0.00676849 0)
(10.0695 0.00572352 0)
(10.0732 0.00465341 0)
(10.0766 0.00356825 0)
(10.0797 0.00249482 0)
(10.0002 0.000533799 0)
(10.0018 0.00106088 0)
(10.005 0.00191229 0)
(10.0095 0.00254082 0)
(10.0147 0.0028861 0)
(10.0203 0.00301147 0)
(10.026 0.00294339 0)
(10.0317 0.00271053 0)
(10.0373 0.00234067 0)
(10.0427 0.00185996 0)
(10.0478 0.00129153 0)
(10.0526 0.000654268 0)
(10.0571 -3.58367e-05 0)
(10.0613 -0.000765446 0)
(10.0652 -0.001523 0)
(10.0687 -0.00229712 0)
(10.072 -0.00308621 0)
(10.075 -0.00386877 0)
(10.0002 -0.000672951 0)
(10.0018 -0.00233373 0)
(10.0049 -0.00345368 0)
(10.0092 -0.00436104 0)
(10.0143 -0.00514702 0)
(10.0198 -0.00582414 0)
(10.0254 -0.00642126 0)
(10.031 -0.00695596 0)
(10.0365 -0.00744368 0)
(10.0417 -0.0078998 0)
(10.0467 -0.00833633 0)
(10.0515 -0.00876357 0)
(10.0559 -0.00918906 0)
(10.0599 -0.00961874 0)
(10.0637 -0.0100569 0)
(10.0672 -0.010504 0)
(10.0704 -0.0109666 0)
(10.0734 -0.0114339 0)
(10.0002 -0.00187792 0)
(10.002 -0.00571004 0)
(10.0055 -0.00876749 0)
(10.0103 -0.011141 0)
(10.0158 -0.0129851 0)
(10.0216 -0.0144035 0)
(10.0275 -0.0154793 0)
(10.0333 -0.0162722 0)
(10.039 -0.0168415 0)
(10.0444 -0.0172419 0)
(10.0495 -0.0175214 0)
(10.0543 -0.0177168 0)
(10.0587 -0.0178603 0)
(10.0628 -0.0179775 0)
(10.0666 -0.0180892 0)
(10.0701 -0.0182085 0)
(10.0732 -0.0183498 0)
(10.0761 -0.0185138 0)
(10.0003 -0.00301456 0)
(10.0024 -0.00889029 0)
(10.0067 -0.0136538 0)
(10.0122 -0.0171934 0)
(10.0184 -0.0198293 0)
(10.0247 -0.021781 0)
(10.0311 -0.0231737 0)
(10.0373 -0.0240991 0)
(10.0433 -0.0246582 0)
(10.049 -0.0249424 0)
(10.0543 -0.0250262 0)
(10.0593 -0.024969 0)
(10.0638 -0.0248224 0)
(10.068 -0.0246303 0)
(10.0717 -0.0244292 0)
(10.0752 -0.0242439 0)
(10.0783 -0.0240957 0)
(10.0812 -0.0239908 0)
(10.0003 -0.00427054 0)
(10.0031 -0.0124498 0)
(10.0085 -0.0188222 0)
(10.0152 -0.0233046 0)
(10.0222 -0.02653 0)
(10.0292 -0.0288677 0)
(10.0362 -0.0304524 0)
(10.0429 -0.0314056 0)
(10.0493 -0.031872 0)
(10.0553 -0.0319786 0)
(10.0609 -0.0318193 0)
(10.066 -0.0314707 0)
(10.0706 -0.0310019 0)
(10.0748 -0.030474 0)
(10.0786 -0.0299414 0)
(10.082 -0.0294409 0)
(10.085 -0.0290029 0)
(10.0878 -0.0286339 0)
(10.0005 -0.00571354 0)
(10.0042 -0.0166791 0)
(10.0115 -0.0243425 0)
(10.0194 -0.0294927 0)
(10.0273 -0.0331613 0)
(10.0349 -0.0357738 0)
(10.0424 -0.0374209 0)
(10.0496 -0.0382826 0)
(10.0564 -0.0385677 0)
(10.0627 -0.0384281 0)
(10.0684 -0.0379704 0)
(10.0736 -0.0372801 0)
(10.0783 -0.036438 0)
(10.0825 -0.0355305 0)
(10.0862 -0.0346405 0)
(10.0895 -0.0338193 0)
(10.0925 -0.0330956 0)
(10.0951 -0.0324661 0)
(10.0007 -0.00721749 0)
(10.0055 -0.0215046 0)
(10.0154 -0.0298084 0)
(10.0245 -0.0352082 0)
(10.0331 -0.0391857 0)
(10.0413 -0.0420067 0)
(10.0493 -0.0436844 0)
(10.057 -0.0444567 0)
(10.064 -0.0445794 0)
(10.0705 -0.0442149 0)
(10.0765 -0.0434713 0)
(10.0818 -0.0424481 0)
(10.0866 -0.041251 0)
(10.0907 -0.0399854 0)
(10.0944 -0.0387463 0)
(10.0976 -0.0375993 0)
(10.1004 -0.036593 0)
(10.1029 -0.0357426 0)
(10.0011 -0.00917641 0)
(10.0069 -0.0271562 0)
(10.0191 -0.0349946 0)
(10.0297 -0.0402722 0)
(10.0392 -0.0442774 0)
(10.0481 -0.0471606 0)
(10.0568 -0.0488163 0)
(10.065 -0.0494832 0)
(10.0725 -0.0494535 0)
(10.0793 -0.0488924 0)
(10.0855 -0.0478919 0)
(10.091 -0.0465265 0)
(10.0959 -0.0449117 0)
(10.1001 -0.0432113 0)
(10.1037 -0.0415808 0)
(10.1067 -0.0401032 0)
(10.1093 -0.0388192 0)
(10.1116 -0.0377162 0)
(10.001 -0.0117818 0)
(10.0128 -0.0327911 0)
(10.0245 -0.0421136 0)
(10.0367 -0.0472402 0)
(10.0468 -0.0512476 0)
(10.0564 -0.0537481 0)
(10.0657 -0.0549414 0)
(10.0744 -0.0551981 0)
(10.0822 -0.0548424 0)
(10.0894 -0.0539996 0)
(10.0959 -0.0527501 0)
(10.1018 -0.0511186 0)
(10.1069 -0.0491923 0)
(10.1113 -0.0471336 0)
(10.1149 -0.0451172 0)
(10.118 -0.0432961 0)
(10.1207 -0.041779 0)
(10.1231 -0.0404584 0)
(10.0004 -0.0166441 0)
(10.0201 -0.0359438 0)
(10.0328 -0.0450802 0)
(10.0452 -0.051836 0)
(10.0559 -0.0569685 0)
(10.0666 -0.0599623 0)
(10.0773 -0.0610923 0)
(10.0874 -0.0610281 0)
(10.0969 -0.060205 0)
(10.106 -0.0588407 0)
(10.1147 -0.0570385 0)
(10.1229 -0.0547668 0)
(10.1304 -0.0521532 0)
(10.1372 -0.0494877 0)
(10.1432 -0.0470093 0)
(10.1484 -0.0448654 0)
(10.1533 -0.0431656 0)
(10.1578 -0.0418945 0)
(10.0026 -0.0265837 0)
(10.0317 -0.0447314 0)
(10.0515 -0.0491381 0)
(10.0771 -0.0536109 0)
(10.102 -0.0587163 0)
(10.1292 -0.0624902 0)
(10.157 -0.064629 0)
(10.1838 -0.0656569 0)
(10.209 -0.0658519 0)
(10.2322 -0.0651922 0)
(10.2532 -0.0637637 0)
(10.2716 -0.0617458 0)
(10.2868 -0.0592422 0)
(10.2985 -0.0564492 0)
(10.3069 -0.0536561 0)
(10.3123 -0.0511721 0)
(10.315 -0.0491209 0)
(10.3152 -0.0477444 0)
(10.0549 -0.0384233 0)
(10.1763 -0.0663879 0)
(10.2826 -0.0761035 0)
(10.3585 -0.0798076 0)
(10.4136 -0.0821748 0)
(10.4496 -0.0830163 0)
(10.4667 -0.0823643 0)
(10.4682 -0.0807926 0)
(10.4569 -0.0786151 0)
(10.4363 -0.0759196 0)
(10.4065 -0.0727149 0)
(10.3689 -0.0685044 0)
(10.3287 -0.0634648 0)
(10.2849 -0.0580006 0)
(10.2394 -0.0524612 0)
(10.192 -0.0474732 0)
(10.1433 -0.0431473 0)
(10.0951 -0.0398879 0)
(9.86572 -0.0364362 0)
(9.60246 -0.0747327 0)
(9.31314 -0.0890131 0)
(9.00968 -0.0926604 0)
(8.71885 -0.0908869 0)
(8.45029 -0.0856869 0)
(8.20646 -0.0787048 0)
(7.98692 -0.0709617 0)
(7.79153 -0.0631305 0)
(7.61847 -0.0551566 0)
(7.46874 -0.0469991 0)
(7.34246 -0.0395067 0)
(7.2343 -0.0323177 0)
(7.14642 -0.0250675 0)
(7.07558 -0.0180575 0)
(7.02077 -0.0115749 0)
(6.97878 -0.00611031 0)
(6.94793 -0.00206976 0)
(-0.00240067 0.00684335 -1.10066e-18)
(-0.0115306 0.011447 1.1926e-18)
(-0.0237809 0.0124947 0)
(-0.0366844 0.0105992 0)
(-0.0453349 0.00522243 0)
(-0.0427876 -0.00363929 -8.62994e-19)
(-0.0270021 -0.0156509 0)
(-0.000821546 -0.0279279 0)
(0.0327388 -0.0368903 0)
(0.0710581 -0.0412413 0)
(0.111248 -0.0416257 4.28065e-19)
(0.150154 -0.0390753 0)
(0.185449 -0.034525 0)
(0.215807 -0.0287061 0)
(0.240557 -0.0221492 0)
(0.259379 -0.0151823 2.46073e-19)
(0.272061 -0.00798275 0)
(0.278707 -0.000530481 0)
(0.278802 0.0071887 0)
(0.272046 0.0149091 0)
(0.258925 0.0221329 0)
(0.240005 0.0282418 0)
(0.215915 0.0326233 0)
(0.187562 0.0347419 3.1832e-19)
(0.156234 0.034148 -3.63262e-19)
(0.123581 0.0305986 4.27439e-19)
(0.0915495 0.0242132 5.19493e-19)
(0.0621956 0.015725 0)
(0.0373982 0.00666374 0)
(0.0182983 -0.000901633 -1.1012e-18)
(0.00506779 -0.00569246 -1.42589e-18)
(-0.00282426 -0.00844636 0)
(-0.00595816 -0.01066 0)
(-0.0027687 -0.0128549 -1.63442e-18)
(0.00538574 -0.0158205 0)
(0.0196318 -0.0197702 0)
(0.0401588 -0.0240986 8.50812e-19)
(0.0657605 -0.0273308 0)
(0.0928914 -0.0275625 5.30717e-19)
(0.117343 -0.0241995 9.18065e-19)
(0.135582 -0.0181482 0)
(0.146027 -0.0113878 0)
(0.14939 -0.0056604 0)
(0.147541 -0.00224511 0)
(0.143827 -0.00247975 0)
(0.140884 -0.00717047 8.45806e-19)
(0.136145 -0.0157098 8.53965e-19)
(0.123544 -0.0231836 8.80561e-19)
(0.0968383 -0.0204546 0)
(0.0506209 -0.00275483 -1.16109e-18)
(-0.0327402 0.0213133 0)
(-0.133312 0.0455792 5.04003e-19)
(-0.243962 0.0719144 3.41188e-19)
(-0.367456 0.0944091 0)
(-0.502068 0.101731 0)
(-0.642652 0.107299 0)
(-0.778871 0.113936 1.6063e-19)
(-0.914317 0.112542 0)
(-1.04408 0.107753 0)
(-1.1654 0.102397 0)
(-1.27855 0.0964114 0)
(-1.38316 0.0860682 0)
(-1.47862 0.0766881 0)
(-1.56572 0.0708948 0)
(-1.64601 0.0642652 0)
(-1.71961 0.0583819 -9.04211e-20)
(-1.78733 0.0533095 0)
(-1.84997 0.0488351 0)
(-1.90815 0.0449762 8.36507e-20)
(-1.96244 0.0416083 8.18835e-20)
(-2.01334 0.0386808 0)
(-2.06125 0.0361088 -7.88221e-20)
(-2.10653 0.0338382 7.74714e-20)
(-2.14944 0.0318096 0)
(-2.19021 0.0299815 -7.50314e-20)
(-2.22903 0.0283153 0)
(-2.26604 0.0267827 0)
(-2.30136 0.0253594 7.18334e-20)
(-2.33507 0.0240263 0)
(-2.36726 0.0227681 -6.99061e-20)
(-2.39798 0.0215726 0)
(-2.42727 0.0204297 6.80855e-20)
(-2.45518 0.0193308 6.72041e-20)
(-2.48174 0.0182686 6.63371e-20)
(-2.50695 0.0172368 1.30964e-19)
(-2.53085 0.0162288 -1.29273e-19)
(-2.55343 0.0152385 0)
(-2.5747 0.0142579 0)
(-2.59466 0.0132777 0)
(-2.6133 0.0122874 -1.22632e-19)
(-2.63062 0.0112736 -1.20988e-19)
(-2.6466 0.0102257 1.19347e-19)
(-2.66122 0.009132 0)
(-2.67444 0.00798756 -1.16062e-19)
(-2.68624 0.00679568 -1.14417e-19)
(-2.69657 0.00557691 -1.12771e-19)
(-2.70537 0.00436209 0)
(-2.71257 0.003186 0)
(-2.71808 0.00207598 0)
(-2.72182 0.00106284 -1.06193e-19)
(-2.72377 0.000210301 0)
(-2.72446 -0.000531694 0)
(-2.7238 -0.00125656 1.00956e-19)
(-2.72183 -0.00197133 0)
(-2.71854 -0.00268184 0)
(-2.71392 -0.00339043 9.53736e-20)
(-2.70794 -0.00409594 0)
(-2.70058 -0.00480054 0)
(-2.69184 -0.00550212 -8.93529e-20)
(-2.6817 -0.00620312 -8.72348e-20)
(-2.67015 -0.00690141 0)
(-2.65716 -0.00759959 8.28161e-20)
(-2.64274 -0.00829584 0)
(-2.62686 -0.00899296 -7.8137e-20)
(-2.60953 -0.00968974 0)
(-2.59072 -0.0103891 -7.3175e-20)
(-2.57045 -0.0110902 -7.058e-20)
(-2.54869 -0.0117948 0)
(-2.52546 -0.0125014 0)
(-2.50074 -0.01321 0)
(-2.47454 -0.0139198 0)
(-2.44687 -0.0146305 0)
(-2.41773 -0.0153411 0)
(-2.38713 -0.0160484 0)
(-2.35509 -0.016742 -4.65736e-20)
(-2.32163 -0.0174207 4.30891e-20)
(-2.28678 -0.018102 0)
(-2.25055 -0.0187953 0)
(-2.21296 -0.0194009 0)
(-2.1741 -0.0199355 0)
(-2.13398 -0.0203504 4.7242e-20)
(-2.09273 -0.0205817 0)
(-2.05033 -0.0206597 -2.95048e-20)
(-2.00688 -0.0207872 2.01314e-20)
(-1.96229 -0.0212593 0)
(-1.91662 -0.0218321 0)
(-1.86993 -0.0223677 0)
(-1.82233 -0.0228625 2.12569e-20)
(-1.7739 -0.0233217 3.26529e-20)
(-1.72471 -0.0237416 0)
(-1.67479 -0.0241311 5.67916e-20)
(-1.62429 -0.0244621 6.95812e-20)
(-1.57319 -0.0247606 -8.28383e-20)
(-1.52167 -0.0250069 0)
(-1.46975 -0.0252129 0)
(-1.41755 -0.0253754 -1.25756e-19)
(-1.36513 -0.0254931 0)
(-1.31259 -0.0255669 0)
(-1.25997 -0.0255997 0)
(-1.2074 -0.0255838 0)
(-1.1549 -0.025532 2.08582e-19)
(-1.1026 -0.0254328 2.27024e-19)
(-1.05051 -0.0252984 0)
(-0.998741 -0.0251253 2.65885e-19)
(-0.947314 -0.0249185 0)
(-0.896289 -0.0246822 0)
(-0.845708 -0.0244169 3.2962e-19)
(-0.795602 -0.0241274 0)
(-0.746 -0.0238163 3.76088e-19)
(-0.696917 -0.0234876 0)
(-0.64837 -0.0231431 0)
(-0.600361 -0.0227882 4.52609e-19)
(-0.552891 -0.022425 0)
(-0.505957 -0.0220586 5.08896e-19)
(-0.459546 -0.021694 0)
(-0.413636 -0.021338 0)
(-0.3682 -0.0209941 0)
(-0.323199 -0.0206729 -6.37556e-19)
(-0.278587 -0.0203758 0)
(-0.234319 -0.0201026 7.12336e-19)
(-0.190337 -0.0198632 0)
(-0.146569 -0.0196785 0)
(-0.103006 -0.0195205 0)
(-0.0597442 -0.0193474 0)
(-0.0168722 -0.0190834 0)
(0.0250352 -0.0184486 0)
(0.0654738 -0.0170643 0)
(0.100966 -0.0149079 -1.91298e-18)
(0.142093 -0.0128186 0)
(0.147492 -0.00206558 0)
(-0.000109401 0.018493 3.35205e-18)
(-0.00544426 0.0318708 -3.56098e-18)
(-0.0109736 0.0326488 0)
(-0.0105507 0.0229045 2.62317e-18)
(0.00351249 0.0013984 0)
(0.0311356 -0.0334701 7.18981e-19)
(0.0677496 -0.0713235 -9.28271e-19)
(0.109397 -0.101586 -6.72047e-19)
(0.152142 -0.119513 0)
(0.192863 -0.125204 -4.4495e-19)
(0.229715 -0.121357 -1.95205e-19)
(0.261927 -0.111146 0)
(0.289283 -0.097188 0)
(0.311877 -0.0813202 0)
(0.329958 -0.0647193 0)
(0.343831 -0.0480449 -1.51928e-19)
(0.35387 -0.031593 0)
(0.360283 -0.0154698 3.07853e-19)
(0.363788 0.000372109 0)
(0.364634 0.0159338 0)
(0.362591 0.0309943 -3.20146e-19)
(0.357256 0.0452633 0)
(0.348176 0.0582538 3.38933e-19)
(0.334899 0.0693175 -1.76201e-19)
(0.31711 0.0776431 1.85364e-19)
(0.294747 0.0823493 -1.9767e-19)
(0.268184 0.0826295 -2.14332e-19)
(0.238335 0.0780312 0)
(0.206715 0.068727 0)
(0.175335 0.0555994 3.09462e-19)
(0.146584 0.0399513 -3.62576e-19)
(0.122902 0.0229333 0)
(0.106841 0.00520677 0)
(0.0992927 -0.0129668 5.35895e-19)
(0.101688 -0.0304755 0)
(0.112796 -0.0471368 0)
(0.129406 -0.0610762 -3.66311e-19)
(0.146388 -0.0675515 0)
(0.158797 -0.0634849 2.75827e-19)
(0.164143 -0.0506091 -5.23096e-19)
(0.16175 -0.0333316 0)
(0.152181 -0.0173141 0)
(0.135693 -0.00561428 -1.23081e-18)
(0.111009 0.0028534 -1.34807e-18)
(0.071962 0.0114411 -1.56164e-18)
(0.00694609 0.0279879 8.17777e-19)
(-0.0937558 0.0630632 -5.74769e-19)
(-0.217064 0.107055 -1.08937e-18)
(-0.352628 0.152259 5.04957e-19)
(-0.495152 0.194992 1.8926e-19)
(-0.643626 0.230559 0)
(-0.791875 0.256835 -1.25903e-19)
(-0.93727 0.274515 1.09812e-19)
(-1.07669 0.283733 0)
(-1.20808 0.284089 0)
(-1.32701 0.276306 0)
(-1.43382 0.263411 -7.72602e-20)
(-1.5285 0.246509 0)
(-1.61191 0.227522 1.40573e-19)
(-1.68575 0.207926 0)
(-1.75099 0.188857 1.30855e-19)
(-1.80969 0.170991 0)
(-1.86235 0.154637 -1.2436e-19)
(-1.91044 0.140231 0)
(-1.95451 0.127479 1.19003e-19)
(-1.99545 0.11636 -5.84166e-20)
(-2.03383 0.106722 0)
(-2.07002 0.0983714 -1.12698e-19)
(-2.10434 0.0911261 -5.54549e-20)
(-2.13699 0.084804 -5.4624e-20)
(-2.16817 0.0792478 0)
(-2.19798 0.0743198 -5.30104e-20)
(-2.22651 0.0699038 -5.23662e-20)
(-2.25384 0.0659039 0)
(-2.28002 0.0622412 5.10013e-20)
(-2.30508 0.058853 -1.00596e-19)
(-2.32905 0.0556887 0)
(-2.35195 0.0527086 -4.90895e-20)
(-2.3738 0.0498805 0)
(-2.3946 0.0471792 1.43524e-19)
(-2.41436 0.0445842 0)
(-2.4331 0.0420791 -1.3996e-19)
(-2.4508 0.0396504 -4.60915e-20)
(-2.46747 0.0372867 4.54269e-20)
(-2.48312 0.0349798 8.96873e-20)
(-2.49773 0.032723 -8.85197e-20)
(-2.5113 0.0305118 0)
(-2.52384 0.0283417 0)
(-2.53533 0.0262088 0)
(-2.54577 0.024107 2.51612e-19)
(-2.55515 0.0220303 8.26992e-20)
(-2.56347 0.0199726 -8.14898e-20)
(-2.57074 0.0179244 0)
(-2.57695 0.0158747 -7.90074e-20)
(-2.58209 0.0138089 7.78092e-20)
(-2.58619 0.0117194 7.65655e-20)
(-2.58928 0.00960525 0)
(-2.59141 0.00748147 0)
(-2.59268 0.00537478 0)
(-2.59317 0.00333169 7.14896e-20)
(-2.59294 0.00141248 0)
(-2.5915 -0.000410221 -1.37648e-19)
(-2.58884 -0.0022028 -2.02287e-19)
(-2.58491 -0.00397767 1.32089e-19)
(-2.57968 -0.00574158 0)
(-2.57315 -0.00749684 6.32469e-20)
(-2.56529 -0.00924151 0)
(-2.55608 -0.0109768 1.20321e-19)
(-2.54551 -0.0126997 -5.8731e-20)
(-2.53356 -0.0144115 -5.71594e-20)
(-2.52024 -0.0161088 0)
(-2.50551 -0.0177921 -1.61115e-19)
(-2.48938 -0.0194572 1.04129e-19)
(-2.47183 -0.021104 5.01602e-20)
(-2.45286 -0.0227286 0)
(-2.43246 -0.0243317 4.65624e-20)
(-2.41062 -0.025911 1.34524e-19)
(-2.38734 -0.0274667 0)
(-2.36262 -0.0289947 8.21733e-20)
(-2.33647 -0.0304915 7.82177e-20)
(-2.30888 -0.0319525 7.41708e-20)
(-2.27986 -0.0333759 0)
(-2.24942 -0.0347603 0)
(-2.21757 -0.0361048 0)
(-2.18433 -0.037408 -2.88031e-20)
(-2.1497 -0.0386665 -2.58827e-20)
(-2.11372 -0.0398791 0)
(-2.07642 -0.0410404 -4.29152e-20)
(-2.03783 -0.0421533 -3.79748e-20)
(-1.99797 -0.0432176 0)
(-1.95686 -0.0442448 -2.69002e-20)
(-1.91454 -0.045229 -4.47034e-20)
(-1.87102 -0.0461944 1.59963e-20)
(-1.82638 -0.0470909 1.20681e-20)
(-1.78067 -0.0478839 0)
(-1.734 -0.0485724 0)
(-1.68643 -0.0491729 0)
(-1.63801 -0.0496921 -1.38024e-20)
(-1.58883 -0.0501317 1.81963e-20)
(-1.53895 -0.0504738 5.14155e-20)
(-1.48843 -0.0507356 -3.33925e-20)
(-1.43736 -0.0508977 3.80789e-20)
(-1.38579 -0.0509697 4.71315e-20)
(-1.33383 -0.0509581 0)
(-1.28155 -0.0508555 0)
(-1.22903 -0.0506813 -6.6459e-20)
(-1.17636 -0.0504262 0)
(-1.12361 -0.0500967 0)
(-1.07086 -0.049699 1.80262e-19)
(-1.01819 -0.0492319 0)
(-0.965659 -0.0487042 1.04517e-19)
(-0.913352 -0.0481204 -1.14659e-19)
(-0.861313 -0.0474844 0)
(-0.809619 -0.0468078 1.2837e-19)
(-0.758307 -0.0460897 0)
(-0.707429 -0.0453439 0)
(-0.657023 -0.0445741 -1.54763e-19)
(-0.607116 -0.0437899 3.23642e-19)
(-0.557731 -0.0429975 -1.70955e-19)
(-0.508881 -0.0422039 0)
(-0.460574 -0.0414156 0)
(-0.412807 -0.0406375 1.93225e-19)
(-0.365574 -0.0398752 0)
(-0.318863 -0.039132 2.09233e-19)
(-0.272653 -0.0384175 0)
(-0.226916 -0.0377351 0)
(-0.181615 -0.037093 0)
(-0.136702 -0.0364986 2.42023e-19)
(-0.0921296 -0.0359585 0)
(-0.0478417 -0.0354633 -2.57019e-19)
(-0.00377065 -0.0350137 0)
(0.0399925 -0.0345736 0)
(0.0834159 -0.0341075 5.36392e-19)
(0.126625 -0.0335811 -5.34838e-19)
(0.169677 -0.0329165 0)
(0.212507 -0.0319239 0)
(0.255301 -0.0303672 0)
(0.295783 -0.0280736 1.58657e-18)
(0.339731 -0.0247887 0)
(0.36447 -0.0140872 -1.07775e-18)
(0.000349339 0.0210488 3.0657e-22)
(0.000740588 0.0352626 4.91476e-18)
(0.00671816 0.0273032 0)
(0.0260684 -0.00514681 -3.33764e-18)
(0.0630203 -0.0608458 0)
(0.110404 -0.121151 0)
(0.158653 -0.168022 -3.36723e-22)
(0.201535 -0.193943 3.9445e-19)
(0.23681 -0.200208 3.38946e-19)
(0.264678 -0.191995 3.0229e-19)
(0.286361 -0.174821 0)
(0.303221 -0.152968 0)
(0.316337 -0.129231 -2.49591e-19)
(0.326451 -0.105222 -4.83589e-19)
(0.334049 -0.0817829 4.74642e-19)
(0.339459 -0.0592893 0)
(0.342909 -0.0378673 4.7305e-19)
(0.344574 -0.0175431 -2.39191e-19)
(0.344638 0.00173787 0)
(0.343436 0.0201021 4.91518e-19)
(0.341205 0.0377334 2.49863e-19)
(0.338154 0.0547029 -5.14886e-19)
(0.334377 0.0708711 -2.67219e-19)
(0.329716 0.0858368 0)
(0.323772 0.0989163 5.88846e-19)
(0.315945 0.109167 6.21445e-19)
(0.305541 0.115466 0)
(0.291996 0.116707 7.03903e-19)
(0.275161 0.112057 0)
(0.255573 0.10121 8.28728e-19)
(0.234569 0.0844573 4.58821e-19)
(0.214136 0.0626368 0)
(0.196599 0.0368677 0)
(0.183987 0.00865957 0)
(0.176302 -0.0205794 0)
(0.171333 -0.0477197 0)
(0.16395 -0.065193 0)
(0.148982 -0.0656954 8.74702e-19)
(0.126386 -0.0502346 -1.24017e-18)
(0.0963128 -0.0247636 0)
(0.0582573 0.00636906 0)
(0.00882237 0.0385997 0)
(-0.0627439 0.0711909 7.23214e-22)
(-0.158327 0.112912 6.95406e-19)
(-0.273042 0.164414 1.01782e-18)
(-0.404061 0.220277 -7.75277e-19)
(-0.544885 0.27662 -3.07724e-19)
(-0.687892 0.328691 2.52817e-19)
(-0.828061 0.372593 5.67026e-22)
(-0.960725 0.406978 1.88566e-19)
(-1.08184 0.430475 0)
(-1.18983 0.442211 1.52942e-19)
(-1.28419 0.442942 1.23493e-21)
(-1.36475 0.433489 0)
(-1.43301 0.415135 0)
(-1.4911 0.390587 -1.1832e-19)
(-1.54159 0.362691 0)
(-1.58634 0.333092 0)
(-1.62713 0.303641 1.05195e-19)
(-1.66526 0.275677 2.0206e-19)
(-1.70151 0.249842 -9.75283e-20)
(-1.73652 0.226415 0)
(-1.77069 0.20564 9.27323e-20)
(-1.80404 0.187624 0)
(-1.83656 0.171933 8.89842e-20)
(-1.86831 0.158312 8.68853e-20)
(-1.89927 0.146487 -1.70537e-19)
(-1.92942 0.136177 -8.36958e-20)
(-1.95874 0.127133 0)
(-1.98721 0.11913 1.6156e-19)
(-2.01481 0.111983 0)
(-2.04153 0.105533 2.34587e-19)
(-2.06737 0.0996488 1.53915e-19)
(-2.09232 0.0942249 1.51575e-19)
(-2.11636 0.0891748 -1.49317e-19)
(-2.1395 0.0844303 2.20775e-19)
(-2.16174 0.079937 0)
(-2.18305 0.0756522 0)
(-2.20345 0.0715416 -1.40879e-19)
(-2.22293 0.0675783 -2.08384e-19)
(-2.24148 0.0637406 0)
(-2.25909 0.0600108 6.75341e-20)
(-2.27577 0.0563741 0)
(-2.29151 0.0528181 -1.9665e-19)
(-2.30631 0.0493329 -1.0355e-22)
(-2.32015 0.0459098 9.47068e-23)
(-2.33304 0.0425426 1.25297e-19)
(-2.34497 0.0392255 0)
(-2.35593 0.0359531 -1.21456e-19)
(-2.36592 0.0327194 -6.36346e-23)
(-2.37492 0.0295193 0)
(-2.38295 0.0263492 0)
(-2.38999 0.0232075 0)
(-2.39604 0.0200926 1.11836e-19)
(-2.40111 0.0170062 0)
(-2.4052 0.0139518 0)
(-2.40829 0.0109363 0)
(-2.41039 0.00796584 0)
(-2.41147 0.00504271 0)
(-2.41148 0.00215893 9.99532e-20)
(-2.41039 -0.000718715 0)
(-2.40811 -0.00360233 9.56954e-20)
(-2.40463 -0.00647642 9.35527e-20)
(-2.39993 -0.00933743 -9.13829e-20)
(-2.39397 -0.0121854 0)
(-2.38674 -0.0150181 -8.69534e-20)
(-2.37822 -0.0178346 0)
(-2.36839 -0.0206326 -8.23898e-20)
(-2.35725 -0.0234108 8.00534e-20)
(-2.34477 -0.0261671 2.33452e-19)
(-2.33095 -0.0288998 0)
(-2.31578 -0.0316065 2.18915e-19)
(-2.29924 -0.0342847 7.08301e-20)
(-2.28133 -0.0369313 0)
(-2.26204 -0.0395432 1.30985e-19)
(-2.24136 -0.0421182 1.25777e-19)
(-2.21929 -0.0446543 -1.80409e-19)
(-2.19582 -0.0471492 0)
(-2.17096 -0.0495989 -5.44693e-20)
(-2.1447 -0.0519979 -5.16756e-20)
(-2.11704 -0.0543403 -1.47275e-19)
(-2.08799 -0.0566219 0)
(-2.05756 -0.058839 0)
(-2.02576 -0.0609892 0)
(-1.9926 -0.0630679 -3.78982e-20)
(-1.9581 -0.0650702 0)
(-1.92228 -0.0669891 0)
(-1.88517 -0.0688193 2.75441e-20)
(-1.8468 -0.070553 2.42794e-20)
(-1.8072 -0.0721836 0)
(-1.7664 -0.0737097 0)
(-1.72443 -0.0751275 2.82291e-20)
(-1.68135 -0.0764552 0)
(-1.63722 -0.0776903 -1.40241e-20)
(-1.5921 -0.0788067 -8.03796e-21)
(-1.54606 -0.0797974 0)
(-1.49918 -0.0806526 0)
(-1.45151 -0.0813751 -1.43869e-20)
(-1.40313 -0.0819611 -1.41619e-21)
(-1.3541 -0.0824014 -1.4422e-21)
(-1.30451 -0.0826963 0)
(-1.25439 -0.0828422 -9.29224e-20)
(-1.20386 -0.0828379 0)
(-1.15296 -0.0826992 0)
(-1.1018 -0.0824191 0)
(-1.05045 -0.0820154 7.98368e-20)
(-0.998989 -0.0814846 0)
(-0.947488 -0.0808351 -1.89793e-19)
(-0.896029 -0.0800723 -1.04757e-19)
(-0.844673 -0.0792034 0)
(-0.7935 -0.0782347 -1.21416e-19)
(-0.742563 -0.0771789 0)
(-0.691927 -0.0760406 0)
(-0.64164 -0.0748372 -4.35769e-19)
(-0.59175 -0.073573 3.05924e-19)
(-0.542297 -0.0722634 0)
(-0.493312 -0.0709188 3.3825e-19)
(-0.444819 -0.0695521 -1.78419e-19)
(-0.396835 -0.0681752 0)
(-0.349366 -0.0667979 0)
(-0.302411 -0.0654314 0)
(-0.255963 -0.064083 -6.23976e-19)
(-0.21001 -0.0627615 0)
(-0.164528 -0.0614723 -2.23074e-19)
(-0.11949 -0.0602287 0)
(-0.0748629 -0.0590357 0)
(-0.0305993 -0.057906 0)
(0.0133506 -0.0568448 0)
(0.0570113 -0.0558601 0)
(0.10045 -0.0549475 0)
(0.143775 -0.0541009 -5.1204e-19)
(0.187067 -0.0532874 0)
(0.230398 -0.05249 -2.59867e-19)
(0.273813 -0.0516664 7.81514e-19)
(0.317343 -0.0507275 0)
(0.360942 -0.0495057 0)
(0.404813 -0.047765 -5.25899e-19)
(0.447424 -0.0451118 -5.2918e-19)
(0.49327 -0.0411117 5.31699e-19)
(0.527722 -0.0303365 5.41309e-19)
(-0.000946181 0.020819 -6.73126e-18)
(0.00234582 0.0218776 -7.78357e-18)
(0.0229746 -0.0182515 -3.36259e-18)
(0.0671483 -0.0951035 -9.05085e-19)
(0.122855 -0.175393 0)
(0.175171 -0.23293 8.50672e-19)
(0.215784 -0.259927 -3.45451e-19)
(0.243829 -0.261455 0)
(0.262048 -0.246613 -2.65742e-19)
(0.27379 -0.223146 0)
(0.281622 -0.195992 4.57974e-19)
(0.287118 -0.167822 0)
(0.29111 -0.139927 2.09082e-19)
(0.293971 -0.112883 4.07859e-19)
(0.295832 -0.086933 -4.02421e-19)
(0.296721 -0.0621757 0)
(0.296642 -0.0386425 -4.0425e-19)
(0.295607 -0.0163448 0)
(0.293646 0.00472192 0)
(0.29086 0.024598 -4.21056e-19)
(0.287357 0.0433523 0)
(0.28333 0.0610406 -5.32245e-22)
(0.279003 0.0776589 0)
(0.27454 0.0930609 0)
(0.270008 0.106909 4.16504e-22)
(0.265299 0.118616 -5.36871e-19)
(0.260111 0.127315 -5.75618e-19)
(0.253949 0.131887 -6.18976e-19)
(0.246232 0.13109 0)
(0.236486 0.123843 -1.44802e-18)
(0.22461 0.109383 0)
(0.211044 0.0877049 -8.77497e-19)
(0.196575 0.0596312 0)
(0.181592 0.0271191 0)
(0.163946 -0.00510901 1.08061e-18)
(0.13801 -0.0268538 0)
(0.100984 -0.0286197 -8.70773e-19)
(0.0535714 -0.0107904 -6.79548e-22)
(-0.00413856 0.0220657 1.59717e-18)
(-0.075711 0.0656221 -1.37116e-18)
(-0.163645 0.118954 0)
(-0.266871 0.179841 0)
(-0.384445 0.243552 -3.52578e-19)
(-0.511539 0.308158 0)
(-0.642425 0.372103 -2.41418e-19)
(-0.772037 0.430998 2.06805e-19)
(-0.89488 0.479825 1.8124e-19)
(-1.00612 0.516525 0)
(-1.10369 0.540862 -1.45779e-19)
(-1.18675 0.552851 -1.33423e-19)
(-1.25518 0.553382 2.48446e-19)
(-1.31068 0.543744 -1.14976e-19)
(-1.35527 0.525546 -1.08086e-19)