/*--------------------------------*- C++ -*----------------------------------*\
  =========                 |
  \\      /  F ield         | OpenFOAM: The Open Source CFD Toolbox
   \\    /   O peration     | Website:  https://openfoam.org
    \\  /    A nd           | Version:  13
     \\/     M anipulation  |
\*---------------------------------------------------------------------------*/
FoamFile
{
    format      ascii;
    class       volScalarField;
    location    "2";
    object      epsilon;
}
// * * * * * * * * * * * * * * * * * * * * * * * * * * * * * * * * * * * * * //

dimensions      [0 2 -3 0 0 0 0];

internalField   nonuniform List<scalar> 
400
(
5.56827e-05
0.000121296
0.000173609
0.000205532
0.000224612
0.00023727
0.000248107
0.000259902
0.000273781
0.000290313
0.000311923
0.000345136
0.000398882
0.000478523
0.000584369
0.000637586
0.000651517
0.000517667
0.0002407
0.000116585
0.000127589
0.000133065
0.000173204
0.000202857
0.000224331
0.000242048
0.000259092
0.000276913
0.000296705
0.000322176
0.000362904
0.000436673
0.000567824
0.000772653
0.00102136
0.00123144
0.00132419
0.00132519
0.000908857
0.000565341
0.000228007
0.000176822
0.000205537
0.000235489
0.000260051
0.000281834
0.000303076
0.000324794
0.000350407
0.00039153
0.000472597
0.000628677
0.000885778
0.00122539
0.00158757
0.00192004
0.00215276
0.00223843
0.00206614
0.00159355
0.000312898
0.000219717
0.000240217
0.000269949
0.000297772
0.000324342
0.000351323
0.000381281
0.000422209
0.000493777
0.000629049
0.000861116
0.00119031
0.00156448
0.00191925
0.0022466
0.00255665
0.00270702
0.00271446
0.00252899
0.000380062
0.000253851
0.000266904
0.000295656
0.000325611
0.000356577
0.000390435
0.000431271
0.000489759
0.000587843
0.000756604
0.00101761
0.00135317
0.0017073
0.00204187
0.0023788
0.00271804
0.00293695
0.00299652
0.00301599
0.00043055
0.000279528
0.000286297
0.000313647
0.000344772
0.000379069
0.000418734
0.000468365
0.000538273
0.000647671
0.000821741
0.00107474
0.0013941
0.00173458
0.00207338
0.00244847
0.00285227
0.00317234
0.00329792
0.00343004
0.000466439
0.000297752
0.000299369
0.000325006
0.000356409
0.000392588
0.000435687
0.000489662
0.000561855
0.000664159
0.000818343
0.00105335
0.00135755
0.00168964
0.0020457
0.00247505
0.00300172
0.00345033
0.00363071
0.00377268
0.000489935
0.000309645
0.000307275
0.000330803
0.000361549
0.000397895
0.000441476
0.000494678
0.000561146
0.000653208
0.000790041
0.00099357
0.00126835
0.00158643
0.00196064
0.00246168
0.00312956
0.00375957
0.00399074
0.00404154
0.000503248
0.000316816
0.000311048
0.000331904
0.000360961
0.000396306
0.000438778
0.00048986
0.000551088
0.000626231
0.000731358
0.000894851
0.00113433
0.00143642
0.00182452
0.00238961
0.0031991
0.00409582
0.00446126
0.0042784
0.000508623
0.000320542
0.000311706
0.000330318
0.000357852
0.000391392
0.000431412
0.000478121
0.000530429
0.000589359
0.000665821
0.000787715
0.000984453
0.00126101
0.00165447
0.00227563
0.00322136
0.00438917
0.00497122
0.00444993
0.000507708
0.000321797
0.000310652
0.000326695
0.000351713
0.000382758
0.000419593
0.000461623
0.000506788
0.000553527
0.000607402
0.000690838
0.000840005
0.00108069
0.00146659
0.00212784
0.00320316
0.0046175
0.00550836
0.0045831
0.000504713
0.000321465
0.000308407
0.000321913
0.000344534
0.000373037
0.000406735
0.000444565
0.00048401
0.000522205
0.000560695
0.000614836
0.000718389
0.000914319
0.00127502
0.00194556
0.00310256
0.00473913
0.0060425
0.00466083
0.000499521
0.000320306
0.000305533
0.000317137
0.000337856
0.00036431
0.000395453
0.000429881
0.000464929
0.000497256
0.000526129
0.000560835
0.000629435
0.000777647
0.00109285
0.00173579
0.00293331
0.00478172
0.00653017
0.00469724
0.000497274
0.000318451
0.000303423
0.000314703
0.00033522
0.000361417
0.000391924
0.000425019
0.000457864
0.000486891
0.000510003
0.000532043
0.000575913
0.000683423
0.000941274
0.00151504
0.00269983
0.00474762
0.0068681
0.00470818
0.000499648
0.000317689
0.000303988
0.000316848
0.000339305
0.000367622
0.000400191
0.000435054
0.000469247
0.000499137
0.000522172
0.000541367
0.000574399
0.000652875
0.000857213
0.00136466
0.00247262
0.00462984
0.00700619
0.00470464
0.000509509
0.000319415
0.000310717
0.000330967
0.000362265
0.000400428
0.000443327
0.00048848
0.000532496
0.000571569
0.000602629
0.000627294
0.000658892
0.000730248
0.000906359
0.0013455
0.00237865
0.00457384
0.00698502
0.00468486
0.000537453
0.000332296
0.000342737
0.000390095
0.000453387
0.000527374
0.000608761
0.000693847
0.000777642
0.000856016
0.000924564
0.000985426
0.00104684
0.00114124
0.00132852
0.00173947
0.00264584
0.00470971
0.00651253
0.00461965
0.000609422
0.000390564
0.00048579
0.000642313
0.000828249
0.00103481
0.00125508
0.00148222
0.00170397
0.00191782
0.00211152
0.00229651
0.00246708
0.0026664
0.00291717
0.0033576
0.00409073
0.00567692
0.00620754
0.00454726
0.000665582
0.00058665
0.00107173
0.00170064
0.00234031
0.00298792
0.00363176
0.00426712
0.00485141
0.00540658
0.00588238
0.00633937
0.00672272
0.00711689
0.00746316
0.00785297
0.00772828
0.00739518
0.00639351
0.00439494
0.000538326
0.00074433
0.00114917
0.00155196
0.00193947
0.00230248
0.00265239
0.00297751
0.00330693
0.00359543
0.00390305
0.00413771
0.0044113
0.0045734
0.00478135
0.0048535
0.00488959
0.00486739
0.00473579
0.00418977
)
;

boundaryField
{
    movingWall
    {
        type            epsilonWallFunction;
        value           nonuniform List<scalar> 
20
(
0.000538326
0.00074433
0.00114917
0.00155196
0.00193947
0.00230248
0.00265239
0.00297751
0.00330693
0.00359543
0.00390305
0.00413771
0.0044113
0.0045734
0.00478135
0.0048535
0.00488959
0.00486739
0.00473579
0.00418977
)
;
    }
    fixedWalls
    {
        type            epsilonWallFunction;
        value           nonuniform List<scalar> 
60
(
5.56827e-05
0.000127589
0.000228007
0.000312898
0.000380062
0.00043055
0.000466439
0.000489935
0.000503248
0.000508623
0.000507708
0.000504713
0.000499521
0.000497274
0.000499648
0.000509509
0.000537453
0.000609422
0.000665582
0.000538326
0.000116585
0.000565341
0.00159355
0.00252899
0.00301599
0.00343004
0.00377268
0.00404154
0.0042784
0.00444993
0.0045831
0.00466083
0.00469724
0.00470818
0.00470464
0.00468486
0.00461965
0.00454726
0.00439494
0.00418977
5.56827e-05
0.000121296
0.000173609
0.000205532
0.000224612
0.00023727
0.000248107
0.000259902
0.000273781
0.000290313
0.000311923
0.000345136
0.000398882
0.000478523
0.000584369
0.000637586
0.000651517
0.000517667
0.0002407
0.000116585
)
;
    }
    frontAndBack
    {
        type            empty;
    }
}


// ************************************************************************* //
