/*--------------------------------*- C++ -*----------------------------------*\
  =========                 |
  \\      /  F ield         | OpenFOAM: The Open Source CFD Toolbox
   \\    /   O peration     | Website:  https://openfoam.org
    \\  /    A nd           | Version:  13
     \\/     M anipulation  |
\*---------------------------------------------------------------------------*/
FoamFile
{
    format      ascii;
    class       volScalarField;
    location    "2";
    object      k;
}
// * * * * * * * * * * * * * * * * * * * * * * * * * * * * * * * * * * * * * //

dimensions      [0 2 -2 0 0 0 0];

internalField   nonuniform List<scalar> 
400
(
1.72228e-05
3.76085e-05
5.38536e-05
6.37594e-05
6.96742e-05
7.35954e-05
7.6957e-05
8.06275e-05
8.49693e-05
9.01985e-05
9.71591e-05
0.000108
0.000125543
0.000151319
0.000185209
0.000202001
0.000206375
0.000163968
7.61782e-05
3.68285e-05
3.95828e-05
0.000127066
0.000170394
0.000194402
0.000208605
0.000217331
0.000223629
0.000229957
0.000238923
0.000254551
0.00028378
0.00033668
0.000422344
0.000537411
0.000652471
0.000715316
0.000736734
0.000654838
0.000364001
0.00017953
7.08894e-05
0.00021391
0.000281868
0.000321604
0.000347579
0.000365491
0.000378021
0.000386622
0.000394286
0.000408882
0.000445451
0.000524681
0.000659303
0.000829495
0.000984142
0.00107379
0.00110943
0.00107983
0.000784734
0.000502285
9.73873e-05
0.000277982
0.000362359
0.000413365
0.00044844
0.000473721
0.000491174
0.00050143
0.000508371
0.000524787
0.000575888
0.000691906
0.000875819
0.00107949
0.00124484
0.0013418
0.00138039
0.00136178
0.00109295
0.000791622
0.000118362
0.000326296
0.000423072
0.000482795
0.00052501
0.000556204
0.00057789
0.000590161
0.000597793
0.000617154
0.000680886
0.000821772
0.00102881
0.00124121
0.00141195
0.00151903
0.00156173
0.00154318
0.00127085
0.000942257
0.000134125
0.000361421
0.000467651
0.000534266
0.000582075
0.000617909
0.000643139
0.000657301
0.000665089
0.000683937
0.000750641
0.000899924
0.00111499
0.00133488
0.00152353
0.00166588
0.0017284
0.00172757
0.00146525
0.00107149
0.000145319
0.000385568
0.000498752
0.000570754
0.000622951
0.000662419
0.000690578
0.000705803
0.00071264
0.000726889
0.000786474
0.000927682
0.00113883
0.00136445
0.00156996
0.00176272
0.00187759
0.00189972
0.00165405
0.00117771
0.000152633
0.0004008
0.000518755
0.000594761
0.000650298
0.000692593
0.000723189
0.000739133
0.000744225
0.00075051
0.000792923
0.000915491
0.00111677
0.00134384
0.00157112
0.00180322
0.00200203
0.00206762
0.00183724
0.00126153
0.000156758
0.000409053
0.000529973
0.000608704
0.000666639
0.000711073
0.000743694
0.000760648
0.000763803
0.000762905
0.000787781
0.000885438
0.00106429
0.00128685
0.00153334
0.0018105
0.00209409
0.00222793
0.0020338
0.00133515
0.000158395
0.000412042
0.00053453
0.00061483
0.000674252
0.000720166
0.000754311
0.000773199
0.000776769
0.000771371
0.000779026
0.000843545
0.0009912
0.00120353
0.001467
0.00178735
0.00213722
0.00236524
0.00222078
0.00138848
0.000158069
0.000411172
0.000533997
0.00061495
0.000675319
0.000722451
0.000758174
0.000779924
0.000786139
0.00077982
0.000777292
0.000810708
0.000918833
0.00111225
0.00138452
0.00174035
0.00214935
0.00247419
0.00239755
0.00142992
0.000157092
0.000408806
0.000531614
0.000612757
0.000673496
0.000721385
0.000758486
0.000783399
0.000793582
0.000789794
0.000782062
0.000797677
0.000867291
0.00102805
0.00129674
0.00167344
0.00212698
0.00252979
0.00255468
0.00145403
0.000155422
0.000404855
0.000527216
0.000608494
0.00067
0.000719505
0.00075902
0.000787106
0.000801842
0.000802274
0.000795486
0.000801398
0.000843567
0.00096517
0.00121087
0.00158699
0.00206849
0.00254749
0.00268752
0.00146532
0.000154678
0.00040153
0.00052392
0.000606191
0.000669368
0.000720683
0.000762701
0.000794913
0.000814648
0.000820626
0.000817166
0.000817606
0.000843998
0.000930999
0.00113229
0.00148399
0.00197166
0.00252569
0.00276811
0.0014687
0.000155397
0.000401383
0.000524467
0.000608372
0.000673975
0.000728885
0.000775577
0.000813506
0.000840059
0.000852867
0.000853899
0.000853252
0.000867122
0.000927596
0.00107905
0.00138244
0.00184845
0.00245822
0.002797
0.00146751
0.000158439
0.000404875
0.000531354
0.000620328
0.000692456
0.000755094
0.000810483
0.000857945
0.000894993
0.000918871
0.00092922
0.000932054
0.000941145
0.00098035
0.00109134
0.00133718
0.00177342
0.00238784
0.00273828
0.00146135
0.000167125
0.000420201
0.000556771
0.000659089
0.000747178
0.000827542
0.000901913
0.000969318
0.0010271
0.00107251
0.00110361
0.00112333
0.00114071
0.00117691
0.001261
0.00144456
0.00177947
0.00235872
0.00256727
0.00144105
0.000189546
0.000465809
0.000639862
0.000785934
0.000920549
0.0010483
0.00117006
0.00128453
0.00138801
0.00147913
0.00155417
0.00161679
0.00166849
0.00172677
0.00180604
0.00194421
0.00213383
0.002472
0.00236566
0.00141846
0.000207252
0.000540145
0.000869228
0.00116566
0.00142636
0.00166294
0.00188002
0.00208042
0.00225687
0.00241607
0.00254867
0.00266798
0.00276409
0.00285217
0.00293108
0.00298904
0.00292796
0.002754
0.00228691
0.00137093
0.000167601
0.000231873
0.000358178
0.000483853
0.000604754
0.000717984
0.000827141
0.000928524
0.00103126
0.00112118
0.00121712
0.00129021
0.00137552
0.00142606
0.00149104
0.00151364
0.00152507
0.00151818
0.00147715
0.00130681
)
;

boundaryField
{
    movingWall
    {
        type            kqRWallFunction;
        value           nonuniform List<scalar> 
20
(
0.000167601
0.000231873
0.000358178
0.000483853
0.000604754
0.000717984
0.000827141
0.000928524
0.00103126
0.00112118
0.00121712
0.00129021
0.00137552
0.00142606
0.00149104
0.00151364
0.00152507
0.00151818
0.00147715
0.00130681
)
;
    }
    fixedWalls
    {
        type            kqRWallFunction;
        value           nonuniform List<scalar> 
60
(
1.72228e-05
3.95828e-05
7.08894e-05
9.73873e-05
0.000118362
0.000134125
0.000145319
0.000152633
0.000156758
0.000158395
0.000158069
0.000157092
0.000155422
0.000154678
0.000155397
0.000158439
0.000167125
0.000189546
0.000207252
0.000167601
3.68285e-05
0.00017953
0.000502285
0.000791622
0.000942257
0.00107149
0.00117771
0.00126153
0.00133515
0.00138848
0.00142992
0.00145403
0.00146532
0.0014687
0.00146751
0.00146135
0.00144105
0.00141846
0.00137093
0.00130681
1.72228e-05
3.76085e-05
5.38536e-05
6.37594e-05
6.96742e-05
7.35954e-05
7.6957e-05
8.06275e-05
8.49693e-05
9.01985e-05
9.71591e-05
0.000108
0.000125543
0.000151319
0.000185209
0.000202001
0.000206375
0.000163968
7.61782e-05
3.68285e-05
)
;
    }
    frontAndBack
    {
        type            empty;
    }
}


// ************************************************************************* //
