/*--------------------------------*- C++ -*----------------------------------*\
  =========                 |
  \\      /  F ield         | OpenFOAM: The Open Source CFD Toolbox
   \\    /   O peration     | Website:  https://openfoam.org
    \\  /    A nd           | Version:  13
     \\/     M anipulation  |
\*---------------------------------------------------------------------------*/
FoamFile
{
    format      ascii;
    class       volScalarField;
    location    "2";
    object      nut;
}
// * * * * * * * * * * * * * * * * * * * * * * * * * * * * * * * * * * * * * //

dimensions      [0 2 -1 0 0 0 0];

internalField   nonuniform List<scalar> 
400
(
4.79436e-07
1.04947e-06
1.50348e-06
1.78013e-06
1.94515e-06
2.05448e-06
2.14832e-06
2.25112e-06
2.37336e-06
2.52218e-06
2.72372e-06
3.04157e-06
3.55617e-06
4.30655e-06
5.28297e-06
5.75986e-06
5.88347e-06
4.67421e-06
2.16984e-06
1.04705e-06
1.1052e-06
1.09204e-05
1.50866e-05
1.67669e-05
1.74582e-05
1.75625e-05
1.73718e-05
1.71868e-05
1.73155e-05
1.81008e-05
1.99716e-05
2.33626e-05
2.82723e-05
3.36412e-05
3.75135e-05
3.73961e-05
3.68904e-05
2.91229e-05
1.31205e-05
5.13106e-06
1.98362e-06
2.32898e-05
3.47893e-05
3.95289e-05
4.18109e-05
4.26581e-05
4.24349e-05
4.14197e-05
3.99293e-05
3.84304e-05
3.77877e-05
3.94099e-05
4.41659e-05
5.05352e-05
5.49068e-05
5.40465e-05
5.14574e-05
4.68821e-05
2.68243e-05
1.42488e-05
2.728e-06
3.16527e-05
4.91944e-05
5.69677e-05
6.0781e-05
6.22709e-05
6.18024e-05
5.93496e-05
5.50905e-05
5.0197e-05
4.74498e-05
5.00351e-05
5.79978e-05
6.7036e-05
7.26674e-05
7.21257e-05
6.70774e-05
6.16543e-05
3.96056e-05
2.23013e-05
3.31749e-06
3.77475e-05
6.03556e-05
7.09549e-05
7.61866e-05
7.80832e-05
7.69811e-05
7.26832e-05
6.56693e-05
5.83134e-05
5.5147e-05
5.9726e-05
7.03985e-05
8.12124e-05
8.78725e-05
8.73012e-05
8.07608e-05
7.29762e-05
4.85081e-05
2.64942e-05
3.76044e-06
4.20576e-05
6.87495e-05
8.19061e-05
8.84441e-05
9.0651e-05
8.89025e-05
8.30208e-05
7.39604e-05
6.5001e-05
6.17125e-05
6.78192e-05
8.02591e-05
9.24559e-05
0.000100754
0.000102009
9.42626e-05
8.46711e-05
5.85899e-05
3.01242e-05
4.07468e-06
4.49355e-05
7.47834e-05
9.02088e-05
9.79943e-05
0.000100594
9.8513e-05
9.15616e-05
8.13502e-05
7.15989e-05
6.80262e-05
7.35309e-05
8.59818e-05
9.91669e-05
0.000108437
0.000112986
0.000105699
9.41366e-05
6.78187e-05
3.30878e-05
4.27959e-06
4.6691e-05
7.88206e-05
9.62405e-05
0.000105269
0.0001085
0.00010662
9.93951e-05
8.88331e-05
7.76075e-05
7.16235e-05
7.59193e-05
8.84971e-05
0.00010245
0.000113309
0.00011888
0.000115266
0.00010234
7.61236e-05
3.54396e-05
4.39462e-06
4.75328e-05
8.12685e-05
0.000100471
0.000110806
0.000114826
0.000113445
0.000106301
9.52763e-05
8.36467e-05
7.63701e-05
7.88512e-05
8.98714e-05
0.000103757
0.000115976
0.000123456
0.000123368
0.000109069
8.34449e-05
3.74993e-05
4.43946e-06
4.76696e-05
8.24975e-05
0.000102996
0.000114336
0.00011926
0.0001187
0.000112535
0.000102376
9.08635e-05
8.2033e-05
8.13e-05
8.98194e-05
0.000103381
0.000117069
0.000126345
0.000127615
0.000114712
8.92877e-05
3.89915e-05
4.42916e-06
4.72834e-05
8.26126e-05
0.000104179
0.000116701
0.000122726
0.000123297
0.000118593
0.000109753
9.88763e-05
8.95231e-05
8.56238e-05
9.04553e-05
0.000103026
0.000117635
0.000128108
0.000129801
0.000119317
9.39198e-05
4.01522e-05
4.40056e-06
4.67889e-05
8.24727e-05
0.000104974
0.00011849
0.000125553
0.000127299
0.000124244
0.000117104
0.000107505
9.81744e-05
9.31402e-05
9.42349e-05
0.000104033
0.000118694
0.000129544
0.000131235
0.000121539
9.72076e-05
4.08252e-05
4.35228e-06
4.60551e-05
8.18769e-05
0.000105077
0.000119581
0.000127891
0.000131115
0.000129706
0.000124461
0.000116495
0.000108247
0.000103063
0.000101749
0.000107812
0.000120747
0.000130585
0.000131278
0.000122147
9.95457e-05
4.11403e-05
4.33016e-06
4.55655e-05
8.14186e-05
0.00010509
0.000120294
0.000129337
0.000133582
0.000133806
0.000130451
0.000124481
0.000117839
0.000113079
0.000111319
0.000114144
0.000122587
0.000130823
0.00012959
0.000120928
0.000100409
4.12339e-05
4.34975e-06
4.56413e-05
8.1437e-05
0.000105131
0.000120487
0.000130064
0.000135277
0.000136905
0.000135351
0.000131155
0.000125673
0.000121033
0.000117812
0.000118612
0.000122247
0.00012604
0.000124366
0.000117467
0.000100495
4.11982e-05
4.43422e-06
4.6188e-05
8.17797e-05
0.000104641
0.000119124
0.00012815
0.000133354
0.000135617
0.000135383
0.000132948
0.000128953
0.000124639
0.000120988
0.00011845
0.000118267
0.000119601
0.000118997
0.000112195
9.66117e-05
4.10257e-05
4.67721e-06
4.78224e-05
8.14019e-05
0.000100222
0.000110821
0.00011687
0.000120261
0.000121874
0.000122093
0.000120938
0.000118559
0.000115248
0.00011187
0.000109232
0.000107722
0.000107968
0.000107711
0.000106317
9.10825e-05
4.04569e-05
5.30582e-06
4.99996e-05
7.5852e-05
8.65502e-05
9.20822e-05
9.55768e-05
9.81722e-05
0.000100188
0.000101758
0.000102671
0.000102955
0.000102443
0.000101556
0.000100644
0.000100632
0.000101321
0.000100175
9.68784e-05
8.11388e-05
3.98223e-05
5.80818e-06
4.47594e-05
6.3449e-05
7.19076e-05
7.82396e-05
8.32961e-05
8.75888e-05
9.12871e-05
9.44904e-05
9.71712e-05
9.93842e-05
0.000101056
0.000102283
0.000102873
0.000103604
0.000102394
9.98367e-05
9.23043e-05
7.36212e-05
3.84873e-05
4.69622e-06
6.50095e-06
1.00474e-05
1.35766e-05
1.69714e-05
2.01501e-05
2.32147e-05
2.60601e-05
2.89436e-05
3.14662e-05
3.41592e-05
3.6208e-05
3.86022e-05
4.002e-05
4.18474e-05
4.24847e-05
4.28106e-05
4.26179e-05
4.14666e-05
3.6684e-05
)
;

boundaryField
{
    movingWall
    {
        type            nutkWallFunction;
        Cmu             0.09;
        kappa           0.41;
        E               9.8;
        value           uniform 0;
    }
    fixedWalls
    {
        type            nutkWallFunction;
        Cmu             0.09;
        kappa           0.41;
        E               9.8;
        value           uniform 0;
    }
    frontAndBack
    {
        type            empty;
    }
}


// ************************************************************************* //
