/*--------------------------------*- C++ -*----------------------------------*\
  =========                 |
  \\      /  F ield         | OpenFOAM: The Open Source CFD Toolbox
   \\    /   O peration     | Website:  https://openfoam.org
    \\  /    A nd           | Version:  13
     \\/     M anipulation  |
\*---------------------------------------------------------------------------*/
FoamFile
{
    format      ascii;
    class       volScalarField;
    location    "2";
    object      p;
}
// * * * * * * * * * * * * * * * * * * * * * * * * * * * * * * * * * * * * * //

dimensions      [0 2 -2 0 0 0 0];

internalField   nonuniform List<scalar> 
400
(
2.39421e-08
-1.1126e-05
-1.58191e-05
-1.62254e-05
-1.41825e-05
-1.0883e-05
-6.87698e-06
-2.41349e-06
3.29404e-06
1.44311e-05
4.17462e-05
0.000108104
0.000285792
0.000692576
0.00135738
0.00223685
0.00319877
0.00395318
0.00435167
0.00439113
1.26559e-05
6.38508e-07
-2.52872e-06
2.10753e-07
4.7158e-06
8.39045e-06
8.51523e-06
1.65098e-06
-1.53893e-05
-4.3432e-05
-7.53235e-05
-7.97088e-05
2.48219e-05
0.00034816
0.000937778
0.00179175
0.00277085
0.00361938
0.00414197
0.00432813
9.78009e-06
-1.07729e-05
-1.91383e-05
-1.79503e-05
-1.60337e-05
-1.91007e-05
-3.29919e-05
-6.57643e-05
-0.000127239
-0.000226819
-0.000363588
-0.000500483
-0.000539114
-0.000353761
0.000129142
0.000914229
0.00190435
0.00289684
0.00366202
0.00403992
-2.45108e-05
-5.80102e-05
-7.98733e-05
-8.93993e-05
-9.99676e-05
-0.000121587
-0.000163858
-0.000239468
-0.000365136
-0.000560728
-0.000833981
-0.00114152
-0.00136338
-0.00135016
-0.00100592
-0.000319883
0.000646674
0.00174133
0.00271254
0.00318731
-9.949e-05
-0.000145899
-0.000185569
-0.000213493
-0.000245844
-0.000296594
-0.000378952
-0.000509908
-0.000712799
-0.00101769
-0.00143963
-0.00192696
-0.00233794
-0.00249693
-0.00229241
-0.00171943
-0.000825402
0.000275577
0.00133464
0.0018376
-0.000214372
-0.000270113
-0.000326389
-0.000375207
-0.000433633
-0.000518367
-0.000645531
-0.00083584
-0.00111771
-0.00152707
-0.00208343
-0.00272496
-0.00328638
-0.00357754
-0.00349561
-0.00304309
-0.00226547
-0.00125087
-0.000198181
0.000290899
-0.000361017
-0.000421429
-0.000490405
-0.000558643
-0.000642613
-0.000760273
-0.000929521
-0.00117367
-0.00152408
-0.00201348
-0.00266745
-0.00341328
-0.00407303
-0.00445589
-0.00447198
-0.00413111
-0.00348334
-0.00260856
-0.00168058
-0.00119003
-0.000527213
-0.000587968
-0.000664775
-0.000748378
-0.000853643
-0.000998379
-0.00120077
-0.00148459
-0.00188428
-0.00242276
-0.00312105
-0.00391319
-0.00461873
-0.00505421
-0.00514398
-0.00490219
-0.00438212
-0.0036557
-0.0028938
-0.00243641
-0.000700075
-0.000757643
-0.00083716
-0.000930537
-0.00105053
-0.00121369
-0.00143752
-0.00174407
-0.00216211
-0.00271698
-0.00341243
-0.00419468
-0.00490007
-0.00535423
-0.0054932
-0.00533394
-0.00492671
-0.00433786
-0.00374263
-0.00332256
-0.000868189
-0.000920098
-0.000997492
-0.00109446
-0.00122149
-0.00139316
-0.00162529
-0.00193668
-0.00234944
-0.00288593
-0.00353966
-0.00427016
-0.00493837
-0.00538194
-0.00554891
-0.00545466
-0.00514121
-0.00466398
-0.00420761
-0.00382668
-0.00102329
-0.00106766
-0.00113863
-0.00123301
-0.00135933
-0.00152986
-0.00175785
-0.00205926
-0.00244994
-0.00294509
-0.00353514
-0.00418362
-0.00478019
-0.00519354
-0.00537236
-0.00532525
-0.00508235
-0.00467538
-0.00432404
-0.00394687
-0.00116054
-0.00119568
-0.00125645
-0.00134237
-0.00146093
-0.0016226
-0.00183625
-0.00211769
-0.0024758
-0.00291811
-0.00343416
-0.00398919
-0.0045039
-0.00487334
-0.00504526
-0.00502087
-0.00482507
-0.00442554
-0.0041711
-0.00371592
-0.00127895
-0.00130283
-0.00134973
-0.00142147
-0.0015261
-0.00167207
-0.00186788
-0.00212311
-0.00244423
-0.00283293
-0.00327727
-0.00374649
-0.00418066
-0.00449933
-0.00464956
-0.00462198
-0.00442753
-0.00399307
-0.00384314
-0.00316411
-0.00138005
-0.00139142
-0.00142034
-0.00147213
-0.00155764
-0.00168404
-0.00185832
-0.00208679
-0.00237289
-0.00271459
-0.00309877
-0.00349719
-0.00386162
-0.00412867
-0.00424669
-0.00419265
-0.00396562
-0.00345337
-0.00339341
-0.00233904
-0.00147092
-0.00146318
-0.00146814
-0.00149529
-0.00155785
-0.00166246
-0.00181469
-0.00201864
-0.0022752
-0.00257977
-0.00291819
-0.00326357
-0.00357358
-0.00379321
-0.0038715
-0.00377158
-0.00348256
-0.00285173
-0.00281591
-0.00126997
-0.00156435
-0.00152297
-0.0014945
-0.00148979
-0.00152509
-0.00160608
-0.0017369
-0.00191982
-0.00215377
-0.00243207
-0.00273947
-0.00304889
-0.00332048
-0.00350074
-0.00353668
-0.00337159
-0.00297772
-0.00213469
-0.00199311
0.000194567
-0.0016896
-0.00158479
-0.00150165
-0.00145313
-0.0014554
-0.00151061
-0.00162073
-0.00178636
-0.00200495
-0.00226796
-0.00255895
-0.00284807
-0.00309451
-0.0032396
-0.00322488
-0.00295626
-0.00237866
-0.00116437
-0.000623158
0.00299525
-0.00188964
-0.0016718
-0.00149969
-0.00138909
-0.0013566
-0.00138978
-0.0014846
-0.00163935
-0.00185024
-0.00210637
-0.0023906
-0.00266892
-0.00289794
-0.00300144
-0.00290067
-0.00244837
-0.00158933
0.000206725
0.00194388
0.00907553
-0.00230785
-0.00187584
-0.00162102
-0.00147317
-0.00141798
-0.00143572
-0.00151809
-0.00166198
-0.00186334
-0.00210929
-0.00238628
-0.0026517
-0.00287209
-0.00294315
-0.00278894
-0.00216193
-0.000798868
0.00196308
0.00616325
0.018969
-0.00237569
-2.02679e-05
0.000147612
6.86728e-05
5.88703e-06
-8.12746e-05
-0.000234295
-0.000453412
-0.000728727
-0.00104561
-0.00138407
-0.0017135
-0.0019685
-0.00207403
-0.0018627
-0.00118542
0.000521605
0.00446533
0.0118968
0.0264982
)
;

boundaryField
{
    movingWall
    {
        type            zeroGradient;
    }
    fixedWalls
    {
        type            zeroGradient;
    }
    frontAndBack
    {
        type            empty;
    }
}


// ************************************************************************* //
