# vtk DataFile Version 2.0
tracks
ASCII
DATASET POLYDATA
POINTS 12030 float
-0.0206 0.000999968 1e-05 -0.02058 0.00099997 1e-05 -0.02056 0.000999975 1e-05 -0.02054 0.000999981
1e-05 -0.02052 0.000999989 1e-05 -0.0205 0.001 1e-05 -0.0202034 0.00100016 1e-05
-0.0199069 0.0010006 1e-05 -0.0196103 0.00100131 1e-05 -0.0193137 0.00100229 1e-05 -0.0190172
0.00100355 1e-05 -0.0187132 0.00100506 1e-05 -0.0184093 0.00100668 1e-05 -0.0181054 0.0010084
1e-05 -0.0178015 0.0010102 1e-05 -0.0174976 0.00101209 1e-05 -0.0172058 0.00101399 1e-05
-0.016914 0.00101591 1e-05 -0.0166222 0.00101786 1e-05 -0.0163305 0.00101985 1e-05 -0.0160387
0.00102187 1e-05 -0.0158983 0.00102286 1e-05 -0.015758 0.00102386 1e-05 -0.0156177 0.00102486
1e-05 -0.0154773 0.00102587 1e-05 -0.0153464 0.00102682 1e-05 -0.0152048 0.00102785 1e-05
-0.0150631 0.00102889 1e-05 -0.0149214 0.00102993 1e-05 -0.0147798 0.00103099 1e-05 -0.0146381
0.00103204 1e-05 -0.0143692 0.00103407 1e-05 -0.0141002 0.0010361 1e-05 -0.0138313 0.00103814
1e-05 -0.0135624 0.00104019 1e-05 -0.0132934 0.00104225 1e-05 -0.0130353 0.00104423 1e-05
-0.0127771 0.00104621 1e-05 -0.0125189 0.00104817 1e-05 -0.0122607 0.00105013 1e-05 -0.0120025
0.00105208 1e-05 -0.0117547 0.00105395 1e-05 -0.0115068 0.00105581 1e-05 -0.0112589 0.00105765
1e-05 -0.0110111 0.0010595 1e-05 -0.0107632 0.00106133 1e-05 -0.0105252 0.00106309 1e-05
-0.0102873 0.00106484 1e-05 -0.0100493 0.00106659 1e-05 -0.00981133 0.00106834 1e-05 -0.00957337
0.00107008 1e-05 -0.00934491 0.00107176 1e-05 -0.00911645 0.00107342 1e-05 -0.00888799 0.00107508
1e-05 -0.00865954 0.00107674 1e-05 -0.00843108 0.00107839 1e-05 -0.00821175 0.00107998 1e-05
-0.00799242 0.00108154 1e-05 -0.00777309 0.0010831 1e-05 -0.00755376 0.00108464 1e-05 -0.00733443
0.00108617 1e-05 -0.00712387 0.00108763 1e-05 -0.0069133 0.00108907 1e-05 -0.00670273 0.00109049
1e-05 -0.00649216 0.0010919 1e-05 -0.0062816 0.00109328 1e-05 -0.00607944 0.00109461 1e-05
-0.00587729 0.00109591 1e-05 -0.00567514 0.00109719 1e-05 -0.00547298 0.00109846 1e-05 -0.00527083
0.0010997 1e-05 -0.00507675 0.0011009 1e-05 -0.00488267 0.00110207 1e-05 -0.0046886 0.00110322
1e-05 -0.00449452 0.00110436 1e-05 -0.00430044 0.00110548 1e-05 -0.00411412 0.00110656 1e-05
-0.0039278 0.00110761 1e-05 -0.00374147 0.00110864 1e-05 -0.00355515 0.00110965 1e-05 -0.00336883
0.00111065 1e-05 -0.00318995 0.0011116 1e-05 -0.00301107 0.00111252 1e-05 -0.00283219 0.00111341
1e-05 -0.00265331 0.00111429 1e-05 -0.00247443 0.00111514 1e-05 -0.0023027 0.00111596 1e-05
-0.00213097 0.00111674 1e-05 -0.00195924 0.0011175 1e-05 -0.0017875 0.00111824 1e-05 -0.00161577
0.00111897 1e-05 -0.0014509 0.00111965 1e-05 -0.00128603 0.00112031 1e-05 -0.00112116 0.00112095
1e-05 -0.000956289 0.00112157 1e-05 -0.000791418 0.00112217 1e-05 -0.000633135 0.00112274 1e-05
-0.000474851 0.00112328 1e-05 -0.000316567 0.00112381 1e-05 -0.000158283 0.00112432 1e-05 0
0.00112482 1e-05 0.000105677 0.00112515 1e-05 0.000211355 0.00112547 1e-05 0.000317032 0.00112578
1e-05 0.00042271 0.00112609 1e-05 0.000528387 0.00112639 1e-05 0.000634886 0.0011267 1e-05
0.000741385 0.001127 1e-05 0.000847885 0.00112729 1e-05 0.000954384 0.00112758 1e-05 0.00106088
0.00112786 1e-05 0.00116821 0.00112815 1e-05 0.00127554 0.00112843 1e-05 0.00138286 0.00112869
1e-05 0.00149019 0.00112896 1e-05 0.00159752 0.00112921 1e-05 0.00170568 0.00112947 1e-05
0.00181384 0.00112972 1e-05 0.001922 0.00112996 1e-05 0.00203016 0.00113019 1e-05 0.00213833
0.00113042 1e-05 0.00224733 0.00113065 1e-05 0.00235633 0.00113087 1e-05 0.00246533 0.00113109
1e-05 0.00257434 0.0011313 1e-05 0.00268334 0.00113151 1e-05 0.00279319 0.00113172 1e-05
0.00290304 0.00113192 1e-05 0.00301289 0.00113212 1e-05 0.00312274 0.00113232 1e-05 0.00323259
0.00113251 1e-05 0.00334329 0.00113271 1e-05 0.003454 0.0011329 1e-05 0.0035647 0.00113308
1e-05 0.0036754 0.00113326 1e-05 0.00378611 0.00113344 1e-05 0.00389767 0.00113361 1e-05
0.00400924 0.00113377 1e-05 0.0041208 0.00113394 1e-05 0.00423237 0.00113409 1e-05 0.00434393
0.00113424 1e-05 0.00445636 0.00113438 1e-05 0.00456879 0.00113451 1e-05 0.00468123 0.00113464
1e-05 0.00479366 0.00113476 1e-05 0.00490609 0.00113487 1e-05 0.0050194 0.00113497 1e-05
0.0051327 0.00113507 1e-05 0.00524601 0.00113515 1e-05 0.00535931 0.00113523 1e-05 0.00547262
0.0011353 1e-05 0.00558681 0.00113536 1e-05 0.005701 0.00113542 1e-05 0.00581518 0.00113546
1e-05 0.00592937 0.0011355 1e-05 0.00604356 0.00113553 1e-05 0.00615863 0.00113554 1e-05
0.00627371 0.00113555 1e-05 0.00638878 0.00113556 1e-05 0.00650386 0.00113555 1e-05 0.00661893
0.00113553 1e-05 0.0067349 0.00113551 1e-05 0.00685087 0.00113548 1e-05 0.00696684 0.00113544
1e-05 0.00708281 0.00113539 1e-05 0.00719878 0.00113534 1e-05 0.00731565 0.00113527 1e-05
0.00743252 0.0011352 1e-05 0.00754939 0.00113512 1e-05 0.00766626 0.00113504 1e-05 0.00778313
0.00113494 1e-05 0.00790091 0.00113484 1e-05 0.00801869 0.00113473 1e-05 0.00813647 0.00113462
1e-05 0.00825425 0.0011345 1e-05 0.00837203 0.00113437 1e-05 0.00849073 0.00113424 1e-05
0.00860942 0.00113409 1e-05 0.00872812 0.00113395 1e-05 0.00884682 0.00113379 1e-05 0.00896551
0.00113364 1e-05 0.00902953 0.00113355 1e-05 0.00909356 0.00113346 1e-05 0.00915758 0.00113336
1e-05 0.00922161 0.00113327 1e-05 0.00928456 0.00113318 1e-05 0.00934037 0.00113309 1e-05
0.00939618 0.00113301 1e-05 0.00945199 0.00113292 1e-05 0.00950779 0.00113283 1e-05 0.0095636
0.00113274 1e-05 0.00968415 0.00113255 1e-05 0.0098047 0.00113235 1e-05 0.00992525 0.00113214
1e-05 0.0100458 0.00113193 1e-05 0.0101663 0.00113171 1e-05 0.0102878 0.00113148 1e-05
0.0104093 0.00113125 1e-05 0.0105308 0.00113102 1e-05 0.0106523 0.00113079 1e-05 0.0107738
0.00113054 1e-05 0.0108962 0.00113028 1e-05 0.0110186 0.00113002 1e-05 0.0111411 0.00112976
1e-05 0.0112635 0.0011295 1e-05 0.0113859 0.00112923 1e-05 0.0115093 0.00112894 1e-05
0.0116327 0.00112865 1e-05 0.0117561 0.00112836 1e-05 0.0118795 0.00112807 1e-05 0.0120028
0.00112777 1e-05 0.0121272 0.00112744 1e-05 0.0122515 0.00112713 1e-05 0.0123759 0.00112681
1e-05 0.0125002 0.00112648 1e-05 0.0126245 0.00112615 1e-05 0.0127498 0.00112578 1e-05
0.0128752 0.00112543 1e-05 0.0130005 0.00112507 1e-05 0.0131258 0.00112471 1e-05 0.0132511
0.00112433 1e-05 0.0133774 0.00112393 1e-05 0.0135036 0.00112353 1e-05 0.0136299 0.00112313
1e-05 0.0137562 0.00112272 1e-05 0.0138825 0.0011223 1e-05 0.0140098 0.00112184 1e-05
0.014137 0.0011214 1e-05 0.0142643 0.00112094 1e-05 0.0143915 0.00112048 1e-05 0.0145188
0.00112 1e-05 0.0146471 0.00111949 1e-05 0.0147753 0.00111899 1e-05 0.0149036 0.00111847
1e-05 0.0150318 0.00111794 1e-05 0.0151601 0.0011174 1e-05 0.0152893 0.00111683 1e-05
0.0154186 0.00111626 1e-05 0.0155478 0.00111567 1e-05 0.0156771 0.00111508 1e-05 0.0158063
0.00111447 1e-05 0.0159366 0.00111383 1e-05 0.0160668 0.00111318 1e-05 0.0161971 0.00111252
1e-05 0.0163273 0.00111184 1e-05 0.0164576 0.00111116 1e-05 0.0165889 0.00111044 1e-05
0.0167201 0.00110972 1e-05 0.0168514 0.00110898 1e-05 0.0169827 0.00110822 1e-05 0.0171139
0.00110745 1e-05 0.0172462 0.00110666 1e-05 0.0173785 0.00110586 1e-05 0.0175108 0.00110503
1e-05 0.0176431 0.0011042 1e-05 0.0177754 0.00110334 1e-05 0.0179087 0.00110248 1e-05
0.018042 0.00110159 1e-05 0.0181753 0.00110068 1e-05 0.0183087 0.00109975 1e-05 0.018442
0.00109882 1e-05 0.0185763 0.00109787 1e-05 0.0187107 0.0010969 1e-05 0.018845 0.0010959
1e-05 0.0189794 0.00109489 1e-05 0.0191137 0.00109388 1e-05 0.0192491 0.00109286 1e-05
0.0193845 0.00109181 1e-05 0.0195199 0.00109073 1e-05 0.0196553 0.00108964 1e-05 0.0197907
0.00108855 1e-05 0.0199272 0.00108746 1e-05 0.0200636 0.00108633 1e-05 0.0202001 0.00108518
1e-05 0.0203365 0.00108401 1e-05 0.020473 0.00108285 1e-05 0.0206105 0.0010817 1e-05
0.020748 0.00108051 1e-05 0.0208855 0.00107929 1e-05 0.021023 0.00107806 1e-05 0.0211606
0.00107684 1e-05 0.0212991 0.00107564 1e-05 0.0214377 0.0010744 1e-05 0.0215763 0.00107312
1e-05 0.0217149 0.00107183 1e-05 0.0218535 0.00107057 1e-05 0.0219931 0.00106933 1e-05
0.0221328 0.00106805 1e-05 0.0222724 0.00106673 1e-05 0.0224121 0.00106541 1e-05 0.0225517
0.00106412 1e-05 0.0226925 0.00106285 1e-05 0.0228332 0.00106154 1e-05 0.022974 0.00106019
1e-05 0.0231147 0.00105885 1e-05 0.0232555 0.00105754 1e-05 0.0233973 0.00105626 1e-05
0.0235391 0.00105494 1e-05 0.023681 0.00105358 1e-05 0.0238228 0.00105223 1e-05 0.0239647
0.00105092 1e-05 0.0241076 0.00104964 1e-05 0.0242505 0.00104833 1e-05 0.0243935 0.00104698
1e-05 0.0245364 0.00104564 1e-05 0.0246794 0.00104434 1e-05 0.0248234 0.00104308 1e-05
0.0249675 0.00104179 1e-05 0.0251115 0.00104046 1e-05 0.0252556 0.00103914 1e-05 0.0253996
0.00103787 1e-05 0.0255448 0.00103664 1e-05 0.02569 0.00103538 1e-05 0.0258351 0.00103409
1e-05 0.0259803 0.00103281 1e-05 0.0261255 0.00103158 1e-05 0.0262718 0.0010304 1e-05
0.0264181 0.00102918 1e-05 0.0265644 0.00102794 1e-05 0.0267107 0.00102672 1e-05 0.026857
0.00102554 1e-05 0.0270044 0.00102441 1e-05 0.0271519 0.00102324 1e-05 0.0272993 0.00102206
1e-05 0.0274468 0.00102089 1e-05 0.0275942 0.00101977 1e-05 0.0277428 0.00101869 1e-05
0.0278914 0.00101758 1e-05 0.0280399 0.00101646 1e-05 0.0281885 0.00101536 1e-05 0.0283371
0.00101429 1e-05 0.0284869 0.00101326 1e-05 0.0286366 0.00101221 1e-05 0.0287863 0.00101114
1e-05 0.0289361 0.00101009 1e-05 0.0290858 0.00100907 1e-05 0.0292367 0.0010081 1e-05
0.0293876 0.00100708 1e-05 0.0295385 0.00100607 1e-05 0.0296894 0.00100507 1e-05 0.0298403
0.00100408 1e-05 0.0299924 0.00100315 1e-05 0.0301445 0.00100216 1e-05 0.0302966 0.00100118
1e-05 0.0304486 0.00100021 1e-05 0.0306007 0.000999248 1e-05 0.030754 0.000998323 1e-05
0.0309072 0.000997354 1e-05 0.0310605 0.000996385 1e-05 0.0312138 0.000995419 1e-05 0.031367
0.000994456 1e-05 0.0315215 0.000993523 1e-05 0.0316759 0.000992543 1e-05 0.0318304 0.000991561
1e-05 0.0319848 0.000990574 1e-05 0.0321393 0.000989585 1e-05 0.0322949 0.000988614 1e-05
0.0324506 0.000987596 1e-05 0.0326062 0.000986569 1e-05 0.0327619 0.000985532 1e-05 0.0329175
[...]
POINT_DATA 12030
FIELD attributes 4
age 1 12030 float
-9.99857e-06 -7.99866e-06 -5.99885e-06 -3.99914e-06 -1.99952e-06 0 2.96496e-05 5.92779e-05 8.88848e-05 0.00011847 0.000148035
0.000178299 0.000208541 0.000238757 0.000268947 0.000299112 0.000328042 0.000356956 0.000385851 0.000414726 0.000443583
0.000457452 0.000471318 0.000485179 0.000499038 0.000511961 0.000525943 0.000539921 0.000553895 0.000567866 0.000581832
0.000608336 0.000634828 0.000661308 0.000687775 0.000714229 0.000739612 0.000764988 0.000790354 0.000815709 0.000841055
0.000865375 0.000889692 0.000914002 0.000938305 0.000962599 0.00098591 0.00100922 0.00103253 0.00105583 0.00107912
0.00110147 0.00112382 0.00114617 0.00116851 0.00119085 0.00121228 0.00123372 0.00125515 0.00127658 0.001298
0.00131855 0.00133911 0.00135967 0.00138022 0.00140077 0.00142049 0.00144021 0.00145993 0.00147964 0.00149936
0.00151828 0.0015372 0.00155612 0.00157504 0.00159396 0.00161211 0.00163027 0.00164842 0.00166657 0.00168473
0.00170215 0.00171957 0.00173699 0.00175441 0.00177183 0.00178856 0.00180528 0.001822 0.00183872 0.00185544
0.0018715 0.00188755 0.0019036 0.00191965 0.00193571 0.00195113 0.00196654 0.00198195 0.00199736 0.00201277
0.00202307 0.00203337 0.00204366 0.00205395 0.00206424 0.00207463 0.002085 0.00209537 0.00210575 0.00211613
0.0021266 0.00213705 0.00214751 0.00215797 0.00216844 0.00217899 0.00218953 0.00220008 0.00221062 0.00222117
0.00223181 0.00224244 0.00225307 0.00226371 0.00227434 0.00228507 0.00229579 0.00230651 0.00231723 0.00232795
0.00233877 0.00234957 0.00236038 0.00237119 0.002382 0.00239291 0.0024038 0.0024147 0.0024256 0.0024365
0.0024475 0.00245849 0.00246948 0.00248047 0.00249146 0.00250256 0.00251364 0.00252472 0.00253581 0.0025469
0.00255809 0.00256927 0.00258045 0.00259164 0.00260283 0.00261412 0.0026254 0.00263669 0.00264798 0.00265927
0.00267067 0.00268205 0.00269345 0.00270484 0.00271625 0.00272775 0.00273925 0.00275075 0.00276226 0.00277378
0.00278539 0.00279701 0.00280863 0.00282026 0.00283189 0.00284363 0.00285536 0.00286711 0.00287886 0.00289062
0.00289696 0.00290331 0.00290966 0.00291602 0.00292227 0.00292781 0.00293335 0.0029389 0.00294445 0.00295
0.002962 0.002974 0.00298601 0.00299803 0.00301005 0.00302221 0.00303435 0.00304651 0.00305867 0.00307085
0.00308317 0.00309546 0.00310777 0.00312009 0.00313241 0.0031449 0.00315736 0.00316982 0.0031823 0.00319479
0.00320746 0.00322007 0.00323271 0.00324535 0.00325801 0.00327086 0.00328365 0.00329646 0.00330928 0.00332211
0.00333515 0.00334813 0.00336111 0.00337412 0.00338714 0.00340037 0.00341353 0.00342671 0.00343991 0.00345312
0.00346655 0.00347991 0.00349329 0.00350668 0.00352009 0.00353373 0.00354729 0.00356087 0.00357447 0.00358809
0.00360195 0.00361573 0.00362952 0.00364333 0.00365718 0.00367125 0.00368526 0.00369927 0.00371331 0.00372739
0.00374168 0.00375592 0.00377016 0.00378442 0.00379874 0.00381326 0.00382774 0.00384222 0.00385672 0.00387127
0.00388603 0.00390075 0.00391547 0.00393022 0.00394502 0.00396001 0.00397499 0.00398996 0.00400496 0.00402001
0.00403525 0.00405049 0.00406571 0.00408097 0.00409628 0.00411178 0.00412727 0.00414276 0.00415829 0.00417386
0.00418962 0.00420538 0.00422114 0.00423694 0.00425279 0.0042688 0.00428483 0.00430088 0.00431695 0.00433307
0.00434936 0.00436567 0.00438199 0.00439835 0.00441474 0.0044313 0.00444789 0.0044645 0.00448114 0.00449781
0.00451465 0.00453152 0.00454842 0.00456534 0.0045823 0.00459941 0.00461656 0.00463375 0.00465096 0.00466819
0.00468559 0.00470302 0.00472049 0.00473798 0.0047555 0.00477317 0.00479088 0.00480863 0.00482641 0.0048442
0.00486215 0.00488014 0.00489817 0.00491622 0.00493429 0.00495251 0.00497077 0.00498907 0.00500739 0.00502573
0.00504421 0.00506275 0.00508131 0.00509989 0.00511849 0.00513724 0.00515603 0.00517485 0.00519369 0.00521254
0.00523155 0.00525059 0.00526966 0.00528874 0.00530784 0.0053271 0.00534639 0.0053657 0.00538502 0.00540436
0.00542386 0.00544338 0.00546293 0.00548248 0.00550205 0.00552178 0.00554154 0.00556131 0.00558109 0.00560089
0.00562084 0.00564082 0.00566082 0.00568082 0.00570084 0.00572101 0.00574122 0.00576143 0.00578165 0.00580188
0.00582228 0.0058427 0.00586313 0.00588357 0.00590402 0.00592464 0.00594527 0.00596592 0.00598658 0.00600725
0.00602809 0.00604894 0.00606981 0.00609069 0.00611158 0.00611544 0.0061193 0.00612316 0.00612703 0.00613079
0.00614802 0.00616526 0.00618252 0.00619978 0.00621705 0.00623835 0.00625966 0.00628098 0.00630232 0.00632368
0.00634521 0.00636676 0.00638832 0.00640991 0.00643151 0.00645328 0.00647508 0.0064969 0.00651873 0.00654059
0.00656262 0.00658468 0.00660676 0.00662885 0.00665098 0.00667327 0.0066956 0.00671795 0.00674032 0.00676272
0.00678529 0.0068079 0.00683053 0.0068532 0.00687588 0.00689874 0.00692164 0.00694457 0.00696753 0.00699051
0.00701367 0.00703687 0.00706011 0.00708338 0.00710666 0.00713014 0.00715366 0.00717721 0.0072008 0.00722441
0.00724821 0.00727205 0.00729593 0.00731984 0.00734377 0.0073679 0.00739208 0.00741629 0.00744054 0.00746481
0.00748928 0.00751379 0.00753835 0.00756294 0.00758754 0.00761236 0.00763722 0.00766212 0.00768705 0.007712
0.00773717 0.00776238 0.00778763 0.00781291 0.00783821 0.00786372 0.00788928 0.00791488 0.0079405 0.00796615
0.00799202 0.00801793 0.00804387 0.00806985 0.00809584 0.00812206 0.00814832 0.00817461 0.00820092 0.00822726
0.00825383 0.00828043 0.00830706 0.00833372 0.0083604 0.00838731 0.00841425 0.00844122 0.00846821 0.00849523
0.00852247 0.00854975 0.00857704 0.00860437 0.00863171 0.00865929 0.00868689 0.00871451 0.00874216 0.00876983
0.00879773 0.00882566 0.0088536 0.00888157 0.00890955 0.0089168 0.00892405 0.0089313 0.00893855 0.00894581
0.0089668 0.0089878 0.00900882 0.00902984 0.00905087 0.00907941 0.00910797 0.00913654 0.00916513 0.00919375
0.00922259 0.00925146 0.00928034 0.00930924 0.00933816 0.00936732 0.00939649 0.00942568 0.00945489 0.00948412
0.00951358 0.00954306 0.00957257 0.00960208 0.00963162 0.00966138 0.00969118 0.00972099 0.00975082 0.00978066
0.00981074 0.00984084 0.00987097 0.00990111 0.00993126 0.00996165 0.00999207 0.0100225 0.010053 0.0100834
0.0101142 0.0101449 0.0101757 0.0102064 0.0102372 0.0102683 0.0102994 0.0103305 0.0103616 0.0103927
0.0104241 0.0104555 0.0104869 0.0105184 0.0105499 0.0105816 0.0106133 0.0106451 0.010677 0.0107088
0.0107409 0.010773 0.0108051 0.0108373 0.0108695 0.010902 0.0109344 0.010967 0.0109995 0.0110321
0.0110649 0.0110978 0.0111307 0.0111637 0.0111966 0.0112298 0.0112631 0.0112964 0.0113298 0.0113631
0.0113968 0.0114304 0.0114642 0.0114979 0.0115317 0.0115657 0.0115998 0.011634 0.0116681 0.0117023
0.0117368 0.0117713 0.0118059 0.0118405 0.0118751 0.0118865 0.0118978 0.0119092 0.0119205 0.0119316
0.0119553 0.011979 0.0120027 0.0120264 0.0120502 0.0120856 0.012121 0.0121565 0.012192 0.0122275
0.0122634 0.0122993 0.0123352 0.0123712 0.0124073 0.0124436 0.01248 0.0125164 0.0125529 0.0125894
0.0126262 0.0126631 0.0127001 0.012737 0.0127741 0.0128114 0.0128488 0.0128862 0.0129237 0.0129612
0.0129991 0.013037 0.013075 0.013113 0.013151 0.0131894 0.0132278 0.0132663 0.0133048 0.0133434
0.0133823 0.0134213 0.0134603 0.0134994 0.0135385 0.013578 0.0136175 0.0136571 0.0136967 0.0137364
0.0137642 0.0137921 0.01382 0.0138479 0.0138747 0.0138872 0.0138996 0.0139121 0.0139246 0.0139371
0.0139777 0.0140184 0.0140591 0.0140998 0.0141406 0.0141818 0.014223 0.0142643 0.0143057 0.0143471
0.0143888 0.0144306 0.0144725 0.0145144 0.0145564 0.0145988 0.0146412 0.0146837 0.0147263 0.0147689
0.0148119 0.0148549 0.014898 0.0149412 0.0149844 0.0150281 0.0150717 0.0151155 0.0151593 0.0152032
0.0152475 0.0152919 0.0153363 0.0153808 0.0154253 0.0154703 0.0155153 0.0155604 0.0156056 0.0156508
0.0156601 0.0156693 0.0156785 0.0156877 0.0156969 0.0157334 0.0157699 0.0158066 0.0158432 0.0158799
0.0159263 0.0159727 0.0160193 0.0160658 0.0161125 0.0161596 0.0162068 0.0162541 0.0163014 0.0163488
0.0163967 0.0164446 0.0164926 0.0165407 0.0165889 0.0166376 0.0166863 0.0167351 0.016784 0.016833
0.0168824 0.016932 0.0169816 0.0170313 0.0170811 0.0171315 0.0171819 0.0172323 0.0172829 0.0173336
0.0173531 0.0173726 0.0173922 0.0174117 0.0174309 0.0174627 0.0174947 0.0175266 0.0175586 0.0175907
0.0176428 0.017695 0.0177473 0.0177997 0.0178523 0.0179053 0.0179585 0.0180118 0.0180651 0.0181187
0.0181727 0.0182269 0.0182812 0.0183356 0.0183902 0.0184453 0.0185005 0.0185559 0.0186114 0.018667
0.0187232 0.0187796 0.0188361 0.0188927 0.0189495 0.0189874 0.0190253 0.0190634 0.0191015 0.0191385
0.0191584 0.0191783 0.0191982 0.0192181 0.0192381 0.0192967 0.0193554 0.0194143 0.0194734 0.0195327
0.0195925 0.0196526 0.0197128 0.0197731 0.0198337 0.019895 0.0199564 0.0200179 0.0200796 0.0201416
0.0202043 0.0202671 0.0203301 0.0203933 0.0204567 0.0205209 0.0205852 0.0206497 0.0207145 0.0207794
0.0207992 0.0208189 0.0208387 0.0208585 0.0208781 0.0209243 0.0209707 0.0210171 0.0210637 0.0211104
0.0211777 0.0212453 0.0213131 0.0213811 0.0214494 0.0215185 0.0215878 0.0216574 0.0217272 0.0217973
0.0218681 0.0219393 0.0220107 0.0220823 0.0221543 0.0222271 0.0223002 0.0223735 0.0224472 0.0225211
0.0225562 0.0225914 0.0226266 0.0226618 0.0226966 0.0227368 0.0227771 0.0228175 0.022858 0.0228986
0.0229755 0.0230527 0.0231302 0.0232081 0.0232863 0.0233654 0.0234449 0.0235246 0.0236047 0.0236852
0.0237667 0.0238485 0.0239306 0.0240131 0.0240959 0.0241798 0.0242641 0.0243487 0.0244337 0.0245191
0.0245424 0.0245658 0.0245891 0.0246126 0.0246358 0.0246993 0.0247631 0.024827 0.0248912 0.0249556
0.0250447 0.0251342 0.0252241 0.0253144 0.0254052 0.025497 0.0255893 0.0256821 0.0257752 0.0258689
0.0259637 0.0260589 0.0261546 0.0262508 0.0263474 0.0264247 0.0265022 0.02658 0.0266582 0.0267349
0.0267563 0.0267777 0.0267991 0.0268205 0.026842 0.026943 0.0270446 0.0271466 0.0272492 0.0273523
0.0274566 0.0275615 0.0276669 0.0277728 0.0278793 0.0279871 0.0280955 0.0282044 0.0283139 0.0284239
0.0285353 0.0286473 0.0287599 0.0288731 0.0289868 0.0289952 0.0290036 0.029012 0.0290205 0.0290289
0.0291359 0.0292434 0.0293514 0.0294599 0.029569 0.029688 0.0298077 0.029928 0.0300489 0.0301704
0.0302934 0.0304171 0.0305415 0.0306665 0.0307921 0.0309193 0.0310472 0.0311757 0.0313049 0.0314347
0.0314559 0.031477 0.0314981 0.0315193 0.0315404 0.0316513 0.0317626 0.0318744 0.0319866 0.0320994
0.0322351 0.0323716 0.0325088 0.0326467 0.0327852 0.0329254 0.0330663 0.033208 0.0333503 0.0334933
0.033638 0.0337834 0.0339296 0.0340764 0.0342239 0.0342342 0.0342446 0.0342549 0.0342652 0.0342756
0.0344148 0.0345546 0.034695 0.034836 0.0349776 0.0351313 0.0352859 0.0354411 0.0355971 0.0357537
0.035912 0.0360711 0.036231 0.0363915 0.0365527 0.036685 0.0368179 0.0369513 0.037085 0.0372177
0.0372491 0.0372806 0.0373121 0.0373437 0.0373752 0.037543 0.0377114 0.0378805 0.0380503 0.0382208
0.0383931 0.0385663 0.0387402 0.0389147 0.0390899 0.039267 0.0394449 0.0396235 0.0398028 0.0399827
0.040038 0.0400933 0.0401486 0.0402041 0.0402593 0.0403868 0.0405146 0.0406427 0.0407712 0.0409
0.0410866 0.0412739 0.041462 0.0416508 0.0418401 0.0420313 0.0422234 0.0424161 0.0426095 0.0428034
0.0429261 0.043049 0.0431722 0.0432956 0.0434189 0.043493 0.0435672 0.0436415 0.0437158 0.0437903
0.0439908 0.0441919 0.0443936 0.0445959 0.0447987 0.0450034 0.0452088 0.0454149 0.0456214 0.0458284
0.0460026 0.0461772 0.0463522 0.0465275 0.0467052 0.0467398 0.0467744 0.046809 0.0468437 0.0468783
0.0470911 0.0473044 0.0475181 0.0477322 0.0479465 0.0481626 0.0483791 0.0485961 0.0488133 0.0490307
0.0492501 0.0494701 0.0496902 0.0499103 0.0501301 0.0501388 0.0501474 0.050156 0.0501646 0.0501732
0.0503776 0.0505822 0.0507871 0.0509922 0.0511971 0.0514187 0.0516404 0.0518621 0.0520837 0.0523048
0.0523544 0.0524041 0.0524538 0.0525035 0.0525538 0.0527336 0.0529132 0.0530927 0.0532722 0.0534511
0.0536884 0.0539255 0.0541623 0.0543987 0.0546341 0.0547073 0.0547804 0.0548535 0.0549265 0.0550019
0.0551717 0.0553412 0.0555103 0.0556792 0.0558473 0.0560971 0.056346 0.0565942 0.0568414 0.0570868
0.0571835 0.05728 0.0573764 0.0574726 0.0575745 0.0577292 0.0578834 0.0580371 0.0581903 0.0583427
0.0585996 0.058855 0.0591089 0.0593612 0.0596112 0.0597572 0.0599026 0.0600474 0.0601916 0.0603531
0.0604592 0.0605651 0.0606706 0.0607757 0.0608804 0.0611384 0.0613942 0.061648 0.0618995 0.0621484
0.0624005 0.0626502 0.0628977 0.0631428 0.0634064 0.0634155 0.0634247 0.0634338 0.063443 0.0634522
0.0636963 0.0639381 0.0641773 0.0644142 0.0646487 0.0648988 0.0651462 0.0653909 0.0656329 0.0658722
0.0661031 0.0663315 0.0665574 0.0667808 0.0670711 0.0670716 0.067072 0.0670724 0.0670729 0.0670733
0.0673143 0.0675524 0.0677876 0.06802 0.0682498 0.0684856 0.0687185 0.0689486 0.0691758 0.0694005
0.069631 0.0698586 0.0700833 0.0703053 0.0705247 0.0707385 0.0709498 0.0711585 0.0713648 0.0716223
0.0716267 0.071631 0.0716354 0.0716397 0.0716441 0.0718591 0.0720715 0.0722812 0.0724884 0.0726932
0.0729077 0.0731194 0.0733284 0.0735348 0.0737388 0.073948 0.0741544 0.074358 0.0745591 0.0747582
0.0749626 0.0751645 0.0753639 0.0755607 0.0757549 0.0759537 0.0761494 0.0763427 0.0765338 0.076723
0.076918 0.077111 0.0773007 0.0774873 0.0776707 0.0777551 0.0778388 0.0779222 0.0780052 0.0780639
0.0781688 0.078273 0.0783764 0.078479 0.0785808 -9.9999e-06 -7.99991e-06 -5.99992e-06 -3.99994e-06 -1.99997e-06
0 2.96563e-05 5.93111e-05 8.89633e-05 0.000118612 0.000148257 0.000178631 0.000208999 0.000239361 0.000269717
0.000300066 0.000329194 0.000358316 0.00038743 0.000416538 0.000445638 0.000473568 0.000501491 0.000529408 0.000557317
0.000585221 0.000612003 0.000638779 0.000665549 0.000692313 0.000719072 0.000744756 0.000770434 0.000796108 0.000821776
0.000847439 0.000872072 0.0008967 0.000921323 0.000945942 0.000970557 0.000994183 0.00101781 0.00104142 0.00106504
0.00108865 0.00111131 0.00113397 0.00115663 0.00117928 0.00120193 0.00122367 0.0012454 0.00126714 0.00128887
0.00131059 0.00133145 0.0013523 0.00137315 0.001394 0.00141484 0.00143485 0.00145486 0.00147486 0.00149486
0.00151486 0.00153406 0.00155325 0.00157245 0.00159164 0.00161082 0.00162924 0.00164766 0.00166608 0.00168449
0.0017029 0.00172058 0.00173825 0.00175592 0.00177359 0.00179126 0.00180822 0.00182518 0.00184214 0.0018591
0.00187605 0.00189233 0.00190861 0.00192488 0.00194116 0.00195743 0.00197305 0.00198867 0.00200429 0.00201991
0.00203553 0.00204596 0.00205638 0.00206681 0.00207723 0.00208766 0.00209817 0.00210867 0.00211918 0.00212968
0.00214019 0.00215077 0.00216136 0.00217195 0.00218253 0.00219312 0.00220378 0.00221445 0.00222512 0.00223578
0.00224645 0.0022572 0.00226795 0.00227869 0.00228944 0.00230019 0.00231102 0.00232185 0.00233268 0.00234351
0.00235434 0.00236525 0.00237617 0.00238708 0.00239799 0.0024089 0.0024199 0.0024309 0.00244189 0.00245289
0.00246389 0.00247497 0.00248605 0.00249713 0.00250821 0.00251929 0.00253046 0.00254162 0.00255279 0.00256395
0.00257512 0.00258637 0.00259762 0.00260888 0.00262013 0.00263138 0.00264272 0.00265406 0.0026654 0.00267674
0.00268807 0.0026995 0.00271093 0.00272236 0.00273378 0.00274521 0.00275672 0.00276824 0.00277975 0.00279127
0.00280278 0.00281439 0.00282599 0.0028376 0.0028492 0.00286081 0.0028725 0.0028842 0.00289589 0.00290759
0.00291928 0.00293107 0.00294285 0.00295464 0.00296642 0.00297821 0.00299009 0.00300196 0.00301384 0.00302572
0.0030376 0.00304957 0.00306154 0.0030735 0.00308547 0.00309744 0.00310951 0.00312157 0.00313363 0.00314569
0.00315776 0.00316991 0.00318207 0.00319422 0.00320638 0.00321854 0.00323079 0.00324304 0.00325529 0.00326754
0.00327979 0.00329213 0.00330448 0.00331682 0.00332917 0.00334151 0.00335395 0.00336639 0.00337883 0.00339127
0.00340371 0.00341625 0.00342879 0.00344132 0.00345386 0.0034664 0.00347903 0.00349166 0.0035043 0.00351693
0.00352957 0.0035423 0.00355503 0.00356776 0.00358049 0.00359322 0.00360606 0.00361889 0.00363172 0.00364455
0.00365738 0.00366221 0.00366705 0.00367189 0.00367672 0.00368155 0.00368965 0.00369774 0.00370584 0.00371393
0.00372203 0.00373506 0.00374809 0.00376112 0.00377415 0.00378718 0.00380032 0.00381345 0.00382658 0.00383972
0.00385285 0.00386608 0.00387932 0.00389256 0.00390579 0.00391903 0.00393237 0.00394571 0.00395904 0.00397238
0.00398572 0.00399917 0.00401261 0.00402605 0.0040395 0.00405294 0.00406649 0.00408004 0.00409359 0.00410714
0.00412069 0.00413434 0.004148 0.00416165 0.00417531 0.00418896 0.00420272 0.00421649 0.00423025 0.00424401
0.00425777 0.00427164 0.00428551 0.00429938 0.00431325 0.00432711 0.00434109 0.00435507 0.00436904 0.00438302
0.00439699 0.00441108 0.00442516 0.00443924 0.00445332 0.00446741 0.0044816 0.00449579 0.00450998 0.00452417
0.00453836 0.00455265 0.00456695 0.00458125 0.00459555 0.00460984 0.00462425 0.00463865 0.00465306 0.00466746
0.00468186 0.00469637 0.00471089 0.0047254 0.00473991 0.00475441 0.00476903 0.00478365 0.00479827 0.00481288
0.0048275 0.00484222 0.00485695 0.00487167 0.00488639 0.00490111 0.00491595 0.00493078 0.00494561 0.00496044
0.00497526 0.0049902 0.00500514 0.00502008 0.00503501 0.00504994 0.00506499 0.00508004 0.00509508 0.00511012
0.00512516 0.00514031 0.00515547 0.00517062 0.00518577 0.00520092 0.00521618 0.00523144 0.0052467 0.00526196
0.00527722 0.00529259 0.00530796 0.00532333 0.0053387 0.00535407 0.00536956 0.00538504 0.00540052 0.005416
0.00543148 0.00544709 0.00546268 0.00547828 0.00549388 0.00550947 0.00552519 0.0055409 0.00555662 0.00557233
0.00558804 0.00560388 0.00561971 0.00563555 0.00565138 0.00566722 0.00568317 0.00569913 0.00571509 0.00573104
0.005747 0.00576308 0.00577916 0.00579525 0.00581133 0.00582741 0.00584362 0.00585983 0.00587604 0.00589225
0.00590817 0.00590823 0.00590829 0.00590835 0.00590841 0.00590847 0.00592481 0.00594115 0.00595749 0.00597383
0.00599018 0.00600666 0.00602313 0.00603961 0.00605609 0.00607257 0.00608918 0.0061058 0.00612241 0.00613903
0.00615565 0.00617241 0.00618916 0.00620592 0.00622267 0.00623943 0.00625634 0.00627323 0.00629013 0.00630703
0.00632393 0.00634099 0.00635803 0.00637507 0.00639212 0.00640917 0.00642638 0.00644357 0.00646076 0.00647795
0.00649516 0.00651252 0.00652986 0.0065472 0.00656454 0.0065819 0.00659942 0.00661692 0.00663441 0.0066519
0.00666941 0.00668709 0.00670475 0.00672239 0.00674003 0.00675771 0.00677555 0.00679336 0.00681116 0.00682896
0.00684679 0.00686479 0.00688277 0.00690073 0.00691869 0.00693668 0.00695485 0.00697299 0.00699111 0.00700923
0.00702738 0.00704572 0.00706402 0.0070823 0.00710058 0.00711891 0.00713741 0.00715588 0.00717432 0.00719277
0.00721126 0.00722993 0.00724857 0.00726718 0.0072858 0.00730446 0.0073233 0.00734211 0.00736089 0.00737969
0.00739851 0.00741753 0.00743651 0.00745547 0.00747444 0.00749344 0.00751263 0.00753179 0.00755093 0.00757008
0.00758925 0.00760862 0.00762795 0.00764728 0.00766662 0.00768596 0.00770551 0.00772502 0.00774453 0.00776406
0.00778359 0.00780332 0.00782302 0.00784272 0.00786244 0.00788216 0.00790208 0.00792197 0.00794187 0.00796178
0.0079817 0.00800181 0.0080219 0.008042 0.00806211 0.00808222 0.00810252 0.00812282 0.00814312 0.00816343
0.00818376 0.00818492 0.00818607 0.00818723 0.00818839 0.00818954 0.00820888 0.00822823 0.00824758 0.00826695
0.00828633 0.00830704 0.00832776 0.00834849 0.00836923 0.00838998 0.00841092 0.00843186 0.00845281 0.00847377
0.00849474 0.00851592 0.00853708 0.00855826 0.00857944 0.00860064 0.00862207 0.00864346 0.00866487 0.00868628
0.00870773 0.0087294 0.00875104 0.00877268 0.00879434 0.00881603 0.00883796 0.00885985 0.00888174 0.00890364
0.00892559 0.00894778 0.00896994 0.00899208 0.00901423 0.00903645 0.0090589 0.00908132 0.00910373 0.00912615
0.00914864 0.00917136 0.00919406 0.00921674 0.00923944 0.0092622 0.00928521 0.00930819 0.00933115 0.00935414
0.00937719 0.00940048 0.00942375 0.009447 0.00947028 0.00949362 0.00951721 0.00954077 0.00956434 0.00958793
0.00961157 0.00963545 0.00965932 0.0096832 0.00970711 0.00973104 0.00975523 0.00977941 0.00980361 0.00982784
0.0098521 0.00987661 0.00990111 0.00992564 0.0099502 0.00997479 0.0099944 0.010014 0.0100336 0.0100533