/*--------------------------------*- C++ -*----------------------------------*\
  =========                 |
  \\      /  F ield         | OpenFOAM: The Open Source CFD Toolbox
   \\    /   O peration     | Website:  https://openfoam.org
    \\  /    A nd           | Version:  13
     \\/     M anipulation  |
\*---------------------------------------------------------------------------*/
FoamFile
{
    format      ascii;
    class       volScalarField;
    location    "7";
    object      epsilon;
}
// * * * * * * * * * * * * * * * * * * * * * * * * * * * * * * * * * * * * * //

dimensions      [0 2 -3 0 0 0 0];

internalField   nonuniform List<scalar> 
6400
(
2.74132e-05
0.000140859
0.000342111
0.000551554
0.00070984
0.000798902
0.000831329
0.000834392
0.000839059
0.000869428
0.000943749
0.00109004
0.00132173
0.00164375
0.00203962
0.00248743
0.00296459
0.00346122
0.00395543
0.00443407
0.00491397
0.00543564
0.00605393
0.00680425
0.00765919
0.00852941
0.00939251
0.0102478
0.011121
0.0120364
0.0129838
0.0139292
0.0148576
0.0157694
0.0166903
0.0176248
0.0185937
0.0196029
0.0206655
0.0217853
0.0229702
0.0242293
0.0255701
0.0270106
0.0285587
0.0302656
0.0322239
0.0346364
0.0371421
0.0396726
0.0421688
0.0445964
0.0468853
0.0489696
0.0507745
0.0522093
0.0529761
0.0532834
0.0532738
0.0523165
0.0505789
0.048052
0.0447683
0.040839
0.0363707
0.03157
0.0266714
0.0218796
0.0173718
0.013339
0.0100703
0.00732675
0.00511018
0.00341318
0.00219184
0.00136018
0.000818033
0.00046908
0.000221512
4.71485e-05
0.000132686
0.000132397
0.000216555
0.000314088
0.000387464
0.000432004
0.000453982
0.000463945
0.000475079
0.000500606
0.00055462
0.000656984
0.000823839
0.00106766
0.0013922
0.00179857
0.00228872
0.00286905
0.00354545
0.0043272
0.0052221
0.00626699
0.00751254
0.00898516
0.0106763
0.0126067
0.0146125
0.0165507
0.0183167
0.0198187
0.0209573
0.0218392
0.0224378
0.0228493
0.0231102
0.0232787
0.0233956
0.0234946
0.0235993
0.0237293
0.0239069
0.024138
0.0244314
0.0247506
0.0251254
0.0255835
0.0261238
0.0267394
0.0274353
0.0281651
0.0289374
0.0297036
0.030449
0.0311241
0.0316889
0.0320162
0.0321293
0.0320376
0.0316616
0.0308844
0.0297358
0.0281917
0.0262445
0.0239715
0.0214541
0.018793
0.0161048
0.0135081
0.0110915
0.00894376
0.00713043
0.0055761
0.00424454
0.00311368
0.00218053
0.00142897
0.000871634
0.000489321
0.000254123
0.000249366
0.00029043
0.000241004
0.0003223
0.000405395
0.000455506
0.000480763
0.000494414
0.000509983
0.000542036
0.000608146
0.000731866
0.00094099
0.00126251
0.00171608
0.00231398
0.00306849
0.00399195
0.00509884
0.00639922
0.00789971
0.0096061
0.0114862
0.0134557
0.0153664
0.017038
0.0182387
0.0189605
0.0193584
0.0195559
0.0196947
0.0197768
0.0197107
0.0194029
0.0191178
0.0188144
0.0185506
0.0183357
0.0182047
0.0181504
0.018144
0.0182524
0.0184379
0.0187171
0.0191202
0.0196317
0.0202335
0.0209167
0.0216766
0.0225107
0.023402
0.0243422
0.0253072
0.026276
0.0272129
0.028079
0.0288253
0.0293888
0.0296521
0.0296964
0.0293776
0.0286217
0.0274172
0.025732
0.0236798
0.0213372
0.0188021
0.0162027
0.013654
0.0112627
0.00911142
0.00725318
0.00568941
0.00439686
0.00333583
0.00246884
0.00177251
0.00120424
0.000753476
0.000466879
0.000666539
0.0005046
0.000416319
0.000509199
0.000589178
0.000630382
0.00065135
0.00067205
0.000712827
0.000796115
0.000952679
0.00122151
0.00164445
0.00225646
0.00307912
0.00412264
0.00539136
0.00688529
0.00858468
0.0104366
0.0123487
0.0141887
0.0158128
0.0170704
0.0177546
0.0180428
0.0181134
0.0180682
0.0177266
0.0171889
0.0166024
0.0159471
0.0154351
0.0150454
0.0147122
0.0144611
0.0143048
0.0142353
0.0142205
0.0143033
0.0144676
0.0147187
0.015049
0.0154643
0.0159637
0.0165441
0.0172052
0.0179483
0.018772
0.0196753
0.0206529
0.0216978
0.0227969
0.0239319
0.0250751
0.0261906
0.0272307
0.0281361
0.0288266
0.0291592
0.029231
0.0288628
0.0280613
0.0268358
0.0249943
0.0227389
0.0201706
0.0174347
0.0146816
0.0120574
0.00968009
0.00762695
0.00592435
0.00455492
0.00347261
0.0026226
0.00195496
0.00141703
0.000978954
0.000699606
0.00110872
0.000809685
0.000660243
0.000752604
0.000830248
0.000873813
0.000907579
0.000958537
0.00105728
0.00124153
0.00155936
0.00206508
0.00280707
0.00381406
0.00509034
0.00661959
0.00836533
0.0102621
0.0122011
0.014024
0.0155644
0.016605
0.0170729
0.0172089
0.0171627
0.0167557
0.0160465
0.0151858
0.0143849
0.0137304
0.013129
0.0126268
0.0122389
0.0119357
0.0117087
0.0115665
0.0115003
0.0114811
0.0115192
0.0116352
0.0118041
0.0120357
0.0123256
0.0126781
0.0130942
0.0135776
0.0141324
0.0147635
0.0154756
0.0162736
0.0171612
0.0181401
0.0192077
0.0203576
0.0215759
0.0228417
0.0241216
0.0253615
0.0265007
0.0274612
0.0280615
0.0282872
0.0281231
0.0273822
0.026209
0.0242823
0.0218422
0.0190561
0.0161051
0.0131831
0.0104735
0.00811443
0.00617495
0.00465289
0.00349475
0.00262167
0.0019641
0.00146136
0.00107331
0.000853055
0.00141324
0.00124534
0.000981103
0.00105718
0.00113682
0.00119721
0.00126508
0.00137676
0.0015774
0.00192285
0.00247721
0.00330043
0.00442918
0.00586272
0.00756066
0.00944597
0.0114036
0.0132787
0.0148891
0.0159812
0.0164579
0.0165727
0.0164447
0.0159104
0.0149545
0.0139636
0.013077
0.012275
0.0115973
0.0110303
0.0105492
0.010163
0.00985545
0.00961303
0.00942954
0.00929902
0.0092193
0.00918302
0.00917437
0.00921171
0.00928714
0.00940054
0.00955392
0.00974824
0.00998795
0.0102774
0.0106236
0.0110344
0.0115201
0.0120918
0.0127624
0.0135448
0.0144505
0.0154888
0.0166631
0.0179673
0.0193899
0.0208997
0.0224475
0.0239725
0.0253673
0.0265147
0.0271077
0.0272756
0.0268106
0.0258343
0.0238332
0.0212192
0.0181767
0.014947
0.0118008
0.00898119
0.00664555
0.00484138
0.00352265
0.00258097
0.00191362
0.00142854
0.00107145
0.000914068
0.00152394
0.0018503
0.00138512
0.00143468
0.00152656
0.00162191
0.00174954
0.00195839
0.00231045
0.00287695
0.00372669
0.00490479
0.00641088
0.00818841
0.0101267
0.0120685
0.0138206
0.015176
0.0158424
0.0160401
0.0159783
0.0154486
0.0144282
0.0133137
0.0123089
0.0113949
0.0106171
0.00994641
0.00938512
0.00891022
0.00851096
0.00817895
0.00790059
0.0076684
0.00747616
0.00731896
0.0071931
0.0070948
0.00702239
0.00698281
0.00696631
0.00696437
0.00699739
0.00705551
0.00714695
0.00727155
0.00743662
0.00764746
0.00791329
0.00824539
0.00865876
0.00917203
0.00980853
0.0105934
0.011552
0.0126976
0.0140609
0.0156451
0.0174207
0.0193347
0.0213362
0.0232976
0.0250671
0.0263194
0.0268469
0.0268665
0.0260091
0.0239532
0.0210884
0.017669
0.0140427
0.0105956
0.00763963
0.00533754
0.00369072
0.0025859
0.00184392
0.00135385
0.0010342
0.000906413
0.00147962
0.00266056
0.00187702
0.00189852
0.00201657
0.00216845
0.00238419
0.00272751
0.00327471
0.00410157
0.00526174
0.00676077
0.00853798
0.0104643
0.0123555
0.0139968
0.0150755
0.0155153
0.0155894
0.0152349
0.0143345
0.0131307
0.011993
0.0109527
0.0100573
0.00928127
0.00862453
0.00806055
0.00758074
0.00716751
0.00681285
0.00650705
0.00624244
0.00601411
0.0058178
0.00565051
0.0055093
0.0053915
0.00529616
0.00522257
0.00516844
0.00514021
0.00512985
0.00513316
0.00516963
0.00522679
0.00531348
0.00543106
0.00558579
0.00578248
0.0060287
0.00633486
0.00671519
0.00719002
0.00779058
0.00856942
0.00956287
0.0108378
0.0124363
0.0143401
0.0165618
0.019003
0.021536
0.0239786
0.0260356
0.0271085
0.0274441
0.0268216
0.0246437
0.0214021
0.0174529
0.0133165
0.00951803
0.00643255
0.0041981
0.00274046
0.00184866
0.00129284
0.000971296
0.000871311
0.00137541
0.00370163
0.00246025
0.00245803
0.00262348
0.00285175
0.00318164
0.00368861
0.00445427
0.00554166
0.00696689
0.00867561
0.0105353
0.0123481
0.0138811
0.0147649
0.0150671
0.0150755
0.0144757
0.0133383
0.0120818
0.0109047
0.00986875
0.00896974
0.00820547
0.00754907
0.00698807
0.00650324
0.00608559
0.00572361
0.00541122
0.0051415
0.00490991
0.00471255
0.00454566
0.00440623
0.00429182
0.00420032
0.00412994
0.00407892
0.0040492
0.00403647
0.00403407
0.00405256
0.00408943
0.00414397
0.00421841
0.00431376
0.00443274
0.00457816
0.00475433
0.00496666
0.00522258
0.00553224
0.0059093
0.00637473
0.00695816
0.00770784
0.00870504
0.0100981
0.0119462
0.0142918
0.017076
0.0201469
0.023284
0.0261167
0.027857
0.0285141
0.028136
0.0257533
0.0219669
0.0173449
0.0126248
0.00847889
0.00532118
0.0032206
0.00198234
0.00129758
0.000923589
0.00081563
0.00125854
0.00498379
0.00314223
0.003126
0.00335297
0.00367566
0.00413753
0.00481935
0.0057945
0.00709442
0.00868014
0.0104292
0.012145
0.0135888
0.0143816
0.0146372
0.0145194
0.0137559
0.012507
0.0112368
0.0100351
0.00899088
0.00809601
0.00733195
0.00668111
0.00612199
0.00564257
0.00523029
0.004878
0.00457784
0.00432461
0.00411263
0.00393751
0.0037948
0.00368065
0.00359148
0.00352414
0.00347589
0.0034461
0.00343237
0.00342862
0.00343754
0.00346076
0.00349648
0.00354492
0.00360633
0.00368153
0.00377167
0.00387827
0.00400327
0.00414919
0.00431924
0.0045177
0.00475035
0.00502526
0.00535132
0.00574284
0.00622279
0.00682868
0.00762231
0.00870593
0.0102812
0.0125529
0.0155264
0.0190739
0.0228931
0.0265782
0.0290087
0.0299678
0.0297617
0.0270566
0.022541
0.0171348
0.0118174
0.00739888
0.00427882
0.0023929
0.00139879
0.000924691
0.000768424
0.0011644
0.0065267
0.00393774
0.00390733
0.00420384
0.00463068
0.00522757
0.00607052
0.0072098
0.00863054
0.0102321
0.0118321
0.0131968
0.0139503
0.0141929
0.0140039
0.0131479
0.0118745
0.0105603
0.00935236
0.00829189
0.00739484
0.00663208
0.0059841
0.00543285
0.00496364
0.00456703
0.00423397
0.00395769
0.00373101
0.00354787
0.00340202
0.00328805
0.00320083
0.00313596
0.00308973
0.00305959
0.00304484
0.00303964
0.00304136
0.00305646
0.00307975
0.00311334
0.00315638
0.00320991
0.00327448
0.00335125
0.00344151
0.00354662
0.00366816
0.00380782
0.00396745
0.00414912
0.00435526
0.00458901
0.00485492
0.00516013
0.00551623
0.00594272
0.00646693
0.00713667
0.00804292
0.0093451
0.0113604
0.0143796
0.0182827
0.0227889
0.0273712
0.0304878
0.0317121
0.0315382
0.0282865
0.0228662
0.0166127
0.010764
0.00623379
0.00330063
0.00171317
0.000989433
0.000758622
0.00113687
0.00840892
0.00487356
0.0047986
0.0051634
0.00569254
0.0064093
0.00737346
0.00860028
0.0100226
0.0114846
0.0127673
0.0135053
0.0137482
0.0135394
0.012647
0.0113978
0.0100566
0.00882309
0.00775114
0.00684163
0.00607834
0.0054333
0.00489065
0.00443578
0.00405798
0.00374832
0.00349795
0.00329877
0.00314267
0.00302236
0.00293106
0.00286306
0.0028135
0.00277858
0.00275543
0.00274388
0.00273943
0.00273909
0.00274859
0.00276527
0.00278933
0.00282172
0.00286293
0.00291415
0.0029764
0.00305109
0.00313968
0.00324375
0.003365
0.00350518
0.00366606
0.00384934
0.00405656
0.00428903
0.00454798
0.00483488
0.00515251
0.00550698
0.00591163
0.00639275
0.00699669
0.00779398
0.0089358
0.010694
0.0136203
0.0178158
0.0229873
0.0284941
0.0322388
0.0336565
0.0332956
0.0291559
0.0226774
0.0155717
0.00938373
0.00498525
0.0024151
0.00120182
0.000796193
0.00118318
0.0105032
0.00591088
0.00577943
0.00620716
0.00682483
0.00762853
0.00865243
0.00987131
0.0111699
0.0123553
0.013082
0.0133277
0.0131332
0.0122734
0.0110532
0.00970751
0.00844066
0.00734515
0.00642088
0.00564906
0.00500593
0.00447024
0.00402894
0.00366936
0.00338108
0.00315374
0.00297721
0.00284205
0.00273962
0.00266255
0.00260468
0.00256126
0.00252865
0.00250436
0.00248678
0.00247523
0.00246958
0.00246779
0.00247177
0.00248296
0.00250112
0.0025273
0.00256249
0.00260787
0.00266469
0.00273442
0.00281863
0.00291908
0.00303768
0.00317648
0.00333764
0.00352328
0.00373537
0.0039755
0.00424462
0.00454286
0.00486956
0.0052238
0.00560629
0.00602325
0.0064939
0.0070626
0.00780421
0.00885344
0.0104918
0.0132701
0.0177104
0.0235404
0.0299889
0.0342012
0.0356727
0.0347903
0.0293833
0.0216699
0.0138662
0.00768043
0.00371211
0.0016873
0.000936456
0.0013682
0.0127485
0.00702597
0.00682471
0.00730263
0.00798372
0.0088273
0.00983683
0.0109487
0.0120123
0.0127162
0.0129603
0.0128122
0.0120231
0.0108392
0.00949607
0.00819797
0.0070645
0.00611624
0.00533001
0.00468199
0.00415021
0.00371813
0.00337283
0.00310119
0.0028912
0.00273096
0.00260965
0.0025178
0.00244757
0.00239283
0.00234899
0.00231292
0.00228256
0.0022568
0.00223516
0.00221765
0.00220446
0.00219753
0.00219515
0.00219781
0.00220937
0.00222879
0.00225741
0.00229633
0.00234672
0.00241002
0.00248778
0.00258182
0.0026942
0.00282725
0.00298353
0.00316581
0.00337688
0.00361934
0.00389531
0.0042059
0.0045508
0.00492784
0.0053332
0.00576277
0.00621602
0.00670419
0.00726545
0.00798441
0.00898911
0.0105707
0.0133147
0.0180148
0.0245454
0.0319317
0.0362752
0.0375692
0.0356453
0.0285669
0.0195962
0.0114946
0.00576454
0.00258569
0.00126967
0.00180235
0.015072
0.00819033
0.00790406
0.00841219
0.00912248
0.00995037
0.0108679
0.0117805
0.0124341
0.012669
0.0125815
0.0118793
0.0107529
0.0094168
0.00808748
0.00690589
0.00591851
0.00510874
0.00444781
0.00391284
0.00348444
0.00314708
0.00288621
0.00268734
0.00253721
0.00242372
0.00233676
0.00226827
0.00221223
0.00216444
0.0021222
0.00208398
0.00204909
0.00201745
0.00198932
0.00196519
0.00194568
0.00193168
0.00192481
0.00192269
0.00192746
0.00194195
0.0019649
0.00199801
0.00204208
0.00209846
0.00216859
0.00225427
0.00235755
0.00248091
0.00262719
0.00279962
0.00300177
0.00323738
0.00351004
0.00382277
0.00417731
0.00457332
0.00500755
0.00547355
0.00596269
0.00646805
0.00699345
0.00757118
0.00829032
0.00929026
0.0108809
0.0137244
0.0188123
0.0261663
0.0343373
0.0383167
0.0391879
0.035415
0.0262916
0.01644
0.00866106
0.00396179
0.00185725
0.00248079
0.0174012
0.00937306
0.00898432
0.00949664
0.0101961
0.0109497
0.0116996
0.0122742
0.0124949
0.0124337
0.0118392
0.0107846
0.00946876
0.00810738
0.00686842
0.00582556
0.00497752
0.00429364
0.00374624
0.00331383
0.00297762
0.00272089
0.00252737
0.00238199
0.00227171
0.00218574
0.00211589
0.00205628
0.00200308
0.001954
0.00190794
0.00186459
0.00182411
0.00178697
0.00175375
0.00172505
0.00170148
0.00168358
0.00167337
0.00166937
0.00166937
0.00168041
0.00169911
0.00172732
0.00176565
0.00181527
0.00187749
0.00195395
0.00204662
0.00215795
0.00229082
0.0024487
0.00263561
0.00285609
0.00311504
0.00341736
0.00376735
0.00416777
0.00461862
0.00511579
0.00565017
0.00620828
0.0067764
0.00735081
0.00795998
0.00870199
0.00972927
0.0113964
0.0144949
0.0202101
0.0286671
0.0369532
0.0402904
0.0403791
0.03341
0.0224712
0.0124796
0.00586373
0.00269801
0.00334549
0.0196971
0.0105437
0.0100324
0.0105184
0.0111651
0.0117891
0.0122776
0.0124778
0.0123933
0.0119094
0.0109289
0.0096481
0.00826082
0.00695557
0.00584022
0.00493511
0.00421395
0.00364336
0.00319748
0.0028548
0.00259568
0.00240199
0.002257
0.00214645
0.00205897
0.00198608
0.00192201
0.00186317
0.00180763
0.00175462
0.00170409
0.00165641
0.00161213
0.00157187
0.0015362
0.00150561
0.00148056
0.00146141
0.0014494
0.00144405
0.00144299
0.00145088
0.00146665
0.00149082
0.00152415
0.00156757
0.00162223
0.0016896
0.00177149
0.00187015
0.00198835
0.00212951
0.00229774
0.00249794
0.00273578
0.00301752
0.00334965
0.0037381
0.00418701
0.00469702
0.00526323
0.00587357
0.00650902
0.00714805
0.00777902
0.00842896
0.00921188
0.0102964
0.0121195
0.0156415
0.0221971
0.0320229
0.039961
0.0424102
0.0399967
0.0294181
0.0173364
0.0083705
0.00381779
0.00434247
0.0219045
0.0116716
0.0110161
0.0114443
0.0119998
0.0124216
0.0125904
0.0124894
0.0120862
0.0111879
0.00995155
0.00855041
0.00717585
0.00597051
0.00498643
0.00420885
0.00360124
0.00313112
0.00277317
0.0025049
0.00230573
0.00215725
0.00204379
0.00195312
0.00187638
0.00180769
0.00174361
0.00168242
0.00162357
0.00156722
0.00151386
0.0014641
0.00141852
0.00137764
0.00134187
0.0013115
0.00128679
0.0012679
0.00125562
0.00124996
0.00124853
0.00125439
0.00126793
0.00128881
0.00131785
0.00135578
0.00140363
0.00146266
0.00153446
0.00162107
0.001725
0.00184942
0.00199826
0.00217637
0.00238962
0.00264492
0.00295016
0.00331366
0.00374334
0.00424504
0.00482016
0.00546276
0.00615705
0.00687721
0.00759265
0.00828426
0.00898322
0.00981915
0.0110011
0.0131113
0.017364
0.0250748
0.0363114
0.0427208
0.0438579
0.0367747
0.023339
0.0116379
0.00526584
0.00542521
0.0239404
0.0127274
0.011909
0.0122512
0.0126669
0.0128439
0.0127686
0.0123605
0.0115592
0.0103799
0.0089776
0.007539
0.00623021
0.00514268
0.00428468
0.00362166
0.0031142
0.00273088
0.00244582
0.00223569
0.0020799
0.00196119
0.00186609
0.00178507
0.00171195
0.00164321
0.00157723
0.00151361
0.00145261
0.0013948
0.00134081
0.0012912
0.00124642
0.00120677
0.00117246
0.00114359
0.00112023
0.00110242
0.00109066
0.00108514
0.00108362
0.00108818
0.00109989
0.00111804
0.00114341
0.0011766
0.0012185
0.00127019
0.00133306
0.00140887
0.00149986
0.00160886
0.00173944
0.00189611
0.00208451
0.0023116
0.00258577
0.00291673
0.00331503
0.00379092
0.00435222
0.00500107
0.00572981
0.00651728
0.00732843
0.00812179
0.00887333
0.00962772
0.0105265
0.0118773
0.0144869
0.0199412
0.0294981
0.0407694
0.0451549
0.0434055
0.0303966
0.0158414
0.00708723
0.00655719
0.0257312
0.0136837
0.0126895
0.0129191
0.0131386
0.0131253
0.0127512
0.0120498
0.0109305
0.00954461
0.00805324
0.00663628
0.00542202
0.00445467
0.00371211
0.00315013
0.00272926
0.00241836
0.00219092
0.00202365
0.00189715
0.00179641
0.00171076
0.00163342
0.0015606
0.0014906
0.00142306
0.00135831
0.00129695
0.00123963
0.00118687
0.00113905
0.00109641
0.00105905
0.00102699
0.00100018
0.000978583
0.000962132
0.000951136
0.000945912
0.000944398
0.000948021
0.000958163
0.000974007
0.000996231
0.00102536
0.00106214
0.00110751
0.00116268
0.00122917
0.00130891
0.00140437
0.00151871
0.00165597
0.00182131
0.00202129
0.00226413
0.00255991
0.00292056
0.00335923
0.00388895
0.00451972
0.00525413
0.00608153
0.00697277
0.0078797
0.00874716
0.00954965
0.0103617
0.0113476
0.012973
0.0163812
0.0234999
0.0355855
0.0450363
0.0469998
0.0380514
0.0211393
0.00932803
0.00774242
0.0272362
0.0145201
0.0133376
0.0134216
0.0134883
0.0132518
0.0126278
0.0116004
0.010249
0.00872492
0.00720496
0.00584788
0.00474004
0.00388695
0.00324727
0.00277294
0.00242502
0.00217235
0.00198841
0.00185104
0.00174306
0.00165226
0.0015708
0.00149433
0.00142092
0.00135012
0.00128225
0.00121796
0.00115787
0.0011025
0.00105219
0.00100709
0.000967239
0.00093258
0.000902999
0.000878361
0.000858541
0.000843428
0.000833181
0.000828249
0.000826749
0.000829591
0.000838358
0.000852212
0.000871729
0.000897372
0.000929787
0.000969789
0.00101841
0.00107697
0.00114714
0.00123104
0.00133142
0.00145182
0.00159681
0.00177232
0.00198601
0.00224761
0.00256927
0.00296557
0.00345281
0.00404721
0.00476109
0.00559669
0.00653811
0.00754411
0.00854836
0.00948019
0.010322
0.0111826
0.0123093
0.0144312
0.0192446
0.028797
0.0423846
0.0481824
0.0452293
0.0276164
0.0120582
0.00896159
0.0284337
0.0152326
0.0138465
0.0137804
0.0136932
0.013228
0.0123593
0.0110813
0.00955348
0.0079491
0.00644478
0.0051694
0.00416923
0.00342054
0.0028709
0.00247118
0.00218304
0.00197553
0.00182307
0.00170558
0.00160864
0.00152288
0.00144301
0.0013666
0.00129299
0.00122244
0.00115558
0.00109307
0.00103539
0.00098286
0.000935594
0.000893572
0.000856674
0.000824727
0.000797538
0.00077492
0.00075671
0.00074278
0.000733158
0.000728448
0.000726937
0.000729075
0.000736616
0.000748735
0.000765912
0.000788564
0.000817254
0.000852693
0.00089578
0.00094765
0.00100974
0.0010839
0.00117248
0.00127855
0.0014061
0.00156036
0.00174821
0.00197863
0.00226325
0.00261678
0.00305706
0.00360422
0.00427816
0.00509324
0.00604969
0.00712239
0.0082512
0.00934429
0.0103146
0.0111644
0.0120928
0.0134919
0.0165497
0.0236312
0.036793
0.0480408
0.0499186
0.0352646
0.0154643
0.0103178
0.029319
0.0158219
0.0142167
0.014005
0.0137565
0.0131166
0.011997
0.0105243
0.00887201
0.0072337
0.005775
0.0045913
0.00369385
0.00303821
0.00256612
0.00222867
0.00198821
0.00181463
0.00168415
0.00157935
0.00148867
0.00140537
0.00132618
0.00125005
0.00117709
0.00110788
0.0010431
0.000983236
0.000928599
0.000879282
0.000835226
0.00079627
0.000762191
0.000732749
0.00070771
0.000686863
0.000670036
0.000657102
0.000647968
0.000643395
0.000641843
0.000643331
0.000649773
0.000660368
0.000675515
0.000695591
0.000721093
0.000752646
0.000791038
0.00083726
0.00089256
0.000958531
0.00103721
0.00113124
0.00124407
0.00138026
0.00154587
0.00174893
0.00200016
0.00231357
0.00270712
0.00320275
0.00382525
0.00459852
0.00553813
0.0066391
0.00786085
0.00911599
0.0102818
0.0112618
0.012071
0.0131316
0.0150808
0.019894
0.030401
0.0458373
0.0519001
0.0436751
0.0198677
0.0120768
0.0299067
0.0162861
0.0144603
0.0141039
0.0137131
0.0128856
0.0115785
0.00995554
0.00822367
0.00658656
0.00519195
0.00410192
0.00329901
0.00272485
0.00231857
0.00203209
0.00182876
0.00168
0.00156446
0.00146753
0.00138037
0.00129841
0.00121991
0.00114468
0.00107322
0.00100621
0.000944166
0.000887408
0.000836032
0.00078996
0.000748999
0.000712893
0.000681362
0.000654132
0.000630954
0.000611615
0.000595942
0.000583811
0.00057513
0.000570581
0.000568959
0.000569854
0.000575309
0.000584563
0.000597943
0.000615789
0.000638546
0.000666771
0.000701161
0.000742588
0.000792148
0.000851228
0.000921596
0.00100554
0.00110603
0.00122703
0.0013738
0.00155343
0.00177551
0.00205293
0.00240284
0.0028474
0.00341381
0.00413241
0.00503119
0.00612461
0.00739607
0.00877757
0.0101406
0.0113264
0.0122741
0.0130612
0.0144214
0.0175305
0.0254083
0.0410099
0.0522973
0.0514266
0.0255596
0.0144441
0.0301972
0.0166308
0.0145892
0.0140893
0.0135828
0.012582
0.0111265
0.00939476
0.00762026
0.00600954
0.00468874
0.00368934
0.00297136
0.00246757
0.00211635
0.00187087
0.00169589
0.00156495
0.00145937
0.00136731
0.00128228
0.0012014
0.00112396
0.00105028
0.000981005
0.0009167
0.000857721
0.000804188
0.000756023
0.00071302
0.000674895
0.000641339
0.000612043
0.000586725
0.000565136
0.000547068
0.000532357
0.000520887
0.000512573
0.000507999
0.000506292
0.000506668
0.000511237
0.00051931
0.000531145
0.000547051
0.000567429
0.000592781
0.00062373
0.000661056
0.00070573
0.000758972
0.000822333
0.0008978
0.000987962
0.00109623
0.00122719
0.00138701
0.00158415
0.00183019
0.00214096
0.00253773
0.00304816
0.00370609
0.00454839
0.00560629
0.00688876
0.00835775
0.00990259
0.0113398
0.0124942
0.0132872
0.0142196
0.0162618
0.0218243
0.0346806
0.0517541
0.0562237
0.033099
0.0173935
0.0301778
0.0168538
0.0146137
0.0140078
0.0133546
0.0122281
0.0106601
0.00885587
0.0070681
0.00550062
0.0042571
0.00334231
0.00269933
0.00225559
0.00194989
0.0017369
0.00158326
0.00146495
0.001366
0.00127708
0.00119359
0.00111391
0.00103799
0.000966386
0.000899695
0.000838339
0.000782485
0.000732082
0.000686923
0.000646711
0.000611112
0.00057979
0.00055243
0.000528751
0.000508515
0.000491525
0.000477626
0.000466706
0.000458693
0.000454055
0.000452242
0.000452221
0.000455987
0.000463018
0.000473497
0.000487706
0.000506007
0.000528858
0.000556823
0.000590607
0.000631081
0.000679334
0.00073674
0.000805048
0.000886519
0.000984124
0.00110183
0.00124502
0.00142108
0.00164027
0.00191687
0.00227064
0.00272839
0.00332505
0.00410279
0.00510536
0.00636414
0.00787267
0.00955225
0.0112272
0.012654
0.0136267
0.0142635
0.0156971
0.0193976
0.0293087
0.0486817
0.0582917
0.042597
0.0208029
0.0300147
0.0169955
0.0145752
0.0138326
0.0130664
0.0118411
0.0101938
0.00834813
0.00656949
0.00505554
0.00388846
0.00305074
0.00247311
0.00208012
0.00181164
0.00162413
0.00148641
0.00137701
0.00128256
0.00119584
0.00111375
0.00103553
0.00096151
0.000892291
0.000828367
0.000769984
0.000717139
0.00066965
0.000627218
0.00058949
0.000556107
0.000526724
0.000501033
0.000478764
0.000459688
0.000443622
0.000430421
0.000419981
0.000412235
0.000407506
0.000405511
0.000405281
0.000408301
0.000414411
0.000423698
0.000436414
0.00045289
0.000473546
0.0004989
0.000529593
0.00056642
0.000610365
0.000662661
0.000724865
0.000798976
0.000887598
0.000994191
0.00112344
0.00128179
0.00147825
0.00172551
0.00204154
0.00245146
0.00298962
0.0037005
0.00463633
0.00584695
0.00735693
0.00912707
0.0110077
0.0127208
0.0140222
0.0146902
0.0155388
0.0180394
0.0256992
0.0432306
0.058715
0.0525423
0.0242812
0.0296551
0.0170745
0.0144719
0.013593
0.0127339
0.0114357
0.00973839
0.00787709
0.00612405
0.0046689
0.00357464
0.00280584
0.00228455
0.00193407
0.00169576
0.00152809
0.00140219
0.00129915
0.00120787
0.0011229
0.00104225
0.000965733
0.000893853
0.000827165
0.000766014
0.000710484
0.000660437
0.00061559
0.000575585
0.000540041
0.000508589
0.000480888
0.000456641
0.00043559
0.000417521
0.000402259
0.000389669
0.000379651
0.000372141
0.000367331
0.000365178
0.00036478
0.000367157
0.000372453
0.000380688
0.000392085
0.000406949
0.000425665
0.000448713
0.000476686
0.000510313
0.000550498
0.00059836
0.000655308
0.000723127
0.000804128
0.000901355
0.0010189
0.0011624
0.00133973
0.0015621
0.00184557
0.00221322
0.00269764
0.00334338
0.00420726
0.00535254
0.00683077
0.00864493
0.0106944
0.0127249
0.0143372
0.0151591
0.0157102
0.0173835
0.0227137
0.0377559
0.0579083
0.0607448
0.0270275
0.0290965
0.0170713
0.0142994
0.0133075
0.0123714
0.0110236
0.00930167
0.00744554
0.00572963
0.00433492
0.00330815
0.0026001
0.00212695
0.00181183
0.00159782
0.00144552
0.00132843
0.00122999
0.0011411
0.00105768
0.000978565
0.000903918
0.000834288
0.000770129
0.000711639
0.000658762
0.000611254
0.000568764
0.000530899
0.000497264
0.000467493
0.000441255
0.000418264
0.000398277
0.00038109
0.00036654
0.000354494
0.000344857
0.000337562
0.000332699
0.000330414
0.00032987
0.000331703
0.000336282
0.000343588
0.000353818
0.000367251
0.000384243
0.000405243
0.0004308
0.000461595
0.000498463
0.000542438
0.000594808
0.000657193
0.000731668
0.00082094
0.000928621
0.00105965
0.00122092
0.00142228
0.001678
0.00200891
0.00244527
0.00303012
0.00382181
0.00489215
0.00631365
0.00812686
0.0102826
0.012572
0.0145939
0.0157143
0.0162201
0.0171782
0.0208315
0.0325327
0.0556841
0.0648969
0.0282681
0.0283704
0.017037
0.0140903
0.0129904
0.0119913
0.0106141
0.00888882
0.00705427
0.0053831
0.00404789
0.0030824
0.00242724
0.00199487
0.00170896
0.00151445
0.00137405
0.00126357
0.00116856
0.00108158
0.00099964
0.000922139
0.000849436
0.000782052
0.000720324
0.000664312
0.000613847
0.000568609
0.000528202
0.000492212
0.000460246
0.000431941
0.00040698
0.000385091
0.000366042
0.00034964
0.000335725
0.000324172
0.000314886
0.000307798
0.000302911
0.000300514
0.000299843
0.000301222
0.000305171
0.000311657
0.000320851
0.00033301
0.000348466
0.000367635
0.000391036
0.000419305
0.000453223
0.000493756
0.000542097
0.000599736
0.000668564
0.000751018
0.000850319
0.000970827
0.00111861
0.00130231
0.00153455
0.00183393
0.00222811
0.00275767
0.00348031
0.00447255
0.00582275
0.00760485
0.00982189
0.0123198
0.0147096
0.0162305
0.0168232
0.0172871
0.0198305
0.0290336
0.0515201
0.0663903
0.0284748
0.0275182
0.0169576
0.0138545
0.0126536
0.0116039
0.0102143
0.00850304
0.00670264
0.00508077
0.00380242
0.00289165
0.00228202
0.00188393
0.00162202
0.00144308
0.00131193
0.00120647
0.0011141
0.00102874
0.000948252
0.000872397
0.000801629
0.000736408
0.000676948
0.000623195
0.000574892
0.000531663
0.000493085
0.000458738
0.000428229
0.000401208
0.00037737
0.000356455
0.000338239
0.000322538
0.000309197
0.000298094
0.000289131
0.000282241
0.000277382
0.00027488
0.000274096
0.000275096
0.000278494
0.000284256
0.000292532
0.000303556
0.000317638
0.00033517
0.000356638
0.000382641
0.000413919
0.000451378
0.000496139
0.00054959
0.000613478
0.000690029
0.00078215
0.000893735
0.00103015
0.00119902
0.00141145
0.00168401
0.00204166
0.00252195
0.00318033
0.00409463
0.00536346
0.00708771
0.00932035
0.0119782
0.0147386
0.0167609
0.0175424
0.0178445
0.0193762
0.0263827
0.0467882
0.0664358
0.0279078
0.026574
0.016849
0.013603
0.0123074
0.0112175
0.00982935
0.00814596
0.00638906
0.00481887
0.00359367
0.00273098
0.00216013
0.00179062
0.0015483
0.00138179
0.00125784
0.00115624
0.00106598
0.000982076
0.000902996
0.000828767
0.000759864
0.000696665
0.000639277
0.000587552
0.000541165
0.000499703
0.000462728
0.000429817
0.000400585
0.000374693
0.000351846
0.000331795
0.000314324
0.000299254
0.000286434
0.000275743
0.000267082
0.000260379
0.000255589
0.000252988
0.000252104
0.00025279
0.00025571
0.000260833
0.000268293
0.000278307
0.000291162
0.000307226
0.000326957
0.000350923
0.000379826
0.000414525
0.00045608
0.000505801
0.000565322
0.000636707
0.000722617
0.000826569
0.000953359
0.00110974
0.00130552
0.0015554
0.00188173
0.00231888
0.00291909
0.00375915
0.00494354
0.00659344
0.00880393
0.0115558
0.0146042
0.0171975
0.0182596
0.0185012
0.0192519
0.024433
0.0424403
0.0642505
0.0269696
0.0255685
0.0167259
0.0133447
0.0119601
0.0108387
0.00946298
0.0078181
0.00611144
0.00459348
0.00341726
0.00259633
0.00205806
0.00171213
0.0014857
0.00132907
0.00121075
0.00111218
0.00102366
0.000941087
0.000863371
0.000790703
0.000723547
0.000662199
0.000606674
0.000556748
0.000512046
0.000472131
0.000436556
0.000404902
0.00037679
0.000351892
0.000329923
0.00031064
0.000293837
0.000279336
0.000266991
0.000256677
0.000248297
0.000241775
0.000237063
0.000234381
0.000233406
0.000233836
0.000236339
0.000240901
0.000247639
0.000256754
0.000268513
0.000283262
0.000301433
0.000323566
0.000350328
0.000382538
0.000421207
0.000467582
0.000523208
0.000590025
0.000670504
0.000767869
0.000886452
0.00103228
0.00121407
0.00144482
0.00174451
0.00214422
0.00269249
0.00346333
0.0045634
0.00612896
0.00829273
0.0110958
0.014344
0.0174878
0.0190355
0.0193537
0.0195198
0.0230915
0.0385587
0.0611914
0.0258293
0.0245052
0.0166057
0.01309
0.0116194
0.0104727
0.00911761
0.00751919
0.00586736
0.00440113
0.00326938
0.00248423
0.00197295
0.00164622
0.00143256
0.00128375
0.00116986
0.00107371
0.000986672
0.000905322
0.0008289
0.000757695
0.000692141
0.000632459
0.000578586
0.000530238
0.000487009
0.000448442
0.000414089
0.000383532
0.000356403
0.000332381
0.00031119
0.000292592
0.000276386
0.000262399
0.000250482
0.000240514
0.000232393
0.000226043
0.000221408
0.000218658
0.000217602
0.000217822
0.000219966
0.000224032
0.000230133
0.000238449
0.000249232
0.000262805
0.000279578
0.000300062
0.000324893
0.000354856
0.000390918
0.000434273
0.000486401
0.000549143
0.000624828
0.00071645
0.000827979
0.000964856
0.00113486
0.00134953
0.00162666
0.00199425
0.00249685
0.00320454
0.00422314
0.00569827
0.00779428
0.010617
0.0140588
0.0176106
0.0197816
0.020253
0.0201643
0.0223873