/*--------------------------------*- C++ -*----------------------------------*\
  =========                 |
  \\      /  F ield         | OpenFOAM: The Open Source CFD Toolbox
   \\    /   O peration     | Website:  https://openfoam.org
    \\  /    A nd           | Version:  13
     \\/     M anipulation  |
\*---------------------------------------------------------------------------*/
FoamFile
{
    format      ascii;
    class       volScalarField;
    location    "7";
    object      k;
}
// * * * * * * * * * * * * * * * * * * * * * * * * * * * * * * * * * * * * * //

dimensions      [0 2 -2 0 0 0 0];

internalField   nonuniform List<scalar> 
6400
(
5.35454e-07
2.75135e-06
6.68235e-06
1.07733e-05
1.3865e-05
1.56046e-05
1.6238e-05
1.62978e-05
1.63889e-05
1.69821e-05
1.84337e-05
2.12909e-05
2.58162e-05
3.21059e-05
3.98378e-05
4.85844e-05
5.79041e-05
6.76043e-05
7.72571e-05
8.66058e-05
9.59792e-05
0.000106169
0.000118245
0.0001329
0.000149599
0.000166596
0.000183453
0.000200159
0.000217213
0.000235093
0.000253598
0.000272063
0.000290195
0.000308006
0.000325992
0.000344245
0.000363169
0.000382881
0.000403637
0.000425507
0.000448651
0.000473244
0.000499433
0.000527568
0.000557805
0.000591146
0.000629394
0.000676516
0.000725456
0.000774881
0.000823636
0.00087105
0.000915755
0.000956465
0.000991716
0.00101974
0.00103472
0.00104072
0.00104053
0.00102183
0.00098789
0.000938534
0.000874397
0.000797651
0.000710376
0.00061661
0.000520934
0.000427341
0.000339297
0.000260531
0.000196688
0.000143102
9.98093e-05
6.66645e-05
4.28098e-05
2.65662e-05
1.59774e-05
9.16183e-06
4.32647e-06
9.20882e-07
2.59171e-06
2.18112e-05
5.29292e-05
8.28411e-05
0.000105003
0.000118223
0.000124509
0.000127032
0.000129299
0.000134309
0.000145444
0.000166638
0.000199017
0.000241996
0.000293561
0.000351077
0.000412217
0.000474671
0.000536625
0.000597351
0.000658716
0.000725001
0.000801641
0.00089142
0.000990796
0.00109107
0.00118866
0.00128161
0.00137079
0.0014573
0.00153944
0.00161607
0.00168578
0.00174923
0.00180899
0.00186577
0.00192167
0.0019775
0.00203461
0.00209358
0.00215513
0.00221992
0.0022881
0.00236002
0.00243498
0.0025129
0.0025922
0.00267015
0.00275234
0.0028375
0.00292507
0.00301207
0.00309682
0.00317573
0.0032455
0.00330199
0.00333375
0.00334466
0.00333663
0.0032953
0.00321657
0.00309991
0.00294369
0.00275075
0.00252584
0.00227681
0.00201516
0.00174957
0.00148764
0.00123455
0.000993141
0.000773423
0.000582205
0.000422004
0.000293969
0.000196112
0.000125143
7.53149e-05
3.64764e-05
4.87052e-06
5.67283e-06
4.73884e-05
0.000110311
0.00016326
0.000199336
0.00022059
0.000232241
0.000240129
0.000250158
0.000268136
0.000299785
0.000349862
0.000420112
0.000508814
0.00061203
0.000725613
0.000846368
0.000971692
0.00109906
0.00122631
0.00135174
0.00147458
0.00159274
0.00170123
0.00179513
0.00187054
0.00192474
0.00196234
0.00199105
0.00201782
0.00204708
0.00207813
0.002112
0.0021455
0.00218271
0.00222247
0.00226671
0.00231524
0.00236911
0.00242836
0.00249284
0.00256309
0.00263869
0.00271966
0.00280601
0.00289759
0.00299349
0.00309523
0.00320247
0.00331387
0.0034283
0.00354368
0.00365784
0.00376754
0.00386907
0.00395775
0.00402838
0.00406941
0.00408292
0.0040685
0.00401008
0.00390682
0.00375416
0.00355382
0.00330808
0.00302363
0.00271723
0.00239791
0.00207604
0.00176218
0.00146537
0.00119244
0.000948537
0.000736062
0.000556076
0.000407787
0.000287897
0.000188859
9.58681e-05
1.30186e-05
9.85606e-06
7.972e-05
0.000173657
0.000244451
0.000290784
0.000319412
0.000338612
0.00035671
0.000381917
0.000422288
0.000485064
0.000574784
0.000691341
0.00083014
0.000984445
0.00114779
0.00131456
0.00147924
0.00163585
0.00177855
0.00190163
0.00200299
0.00208008
0.00212582
0.00214544
0.00215011
0.00214489
0.00214114
0.00214006
0.0021442
0.00215432
0.00216755
0.00218593
0.00220906
0.00223755
0.00227099
0.00231006
0.00235462
0.00240467
0.00246046
0.00252202
0.00258961
0.00266311
0.00274248
0.00282739
0.00291798
0.00301535
0.00311922
0.00322919
0.0033445
0.00346412
0.00358651
0.00370966
0.00383074
0.00394629
0.00405192
0.0041424
0.00421163
0.00424595
0.0042542
0.00422223
0.00414589
0.00402536
0.00385696
0.00363552
0.00336145
0.00305153
0.0027161
0.00237099
0.00203053
0.00170699
0.00140934
0.00114291
0.000909833
0.000710201
0.000542435
0.00040214
0.000279699
0.000152085
2.16551e-05
1.5815e-05
0.000122984
0.000248795
0.000336684
0.00039342
0.000430822
0.000460542
0.000493731
0.000541115
0.000612574
0.000715338
0.000851449
0.00101655
0.00120154
0.00139581
0.0015893
0.00177279
0.00193751
0.00207424
0.00217859
0.00223982
0.00226385
0.00226615
0.00223657
0.0022059
0.0021783
0.00215588
0.00214037
0.00213283
0.00213018
0.00213088
0.0021372
0.00214807
0.00216321
0.00218253
0.00220594
0.00223334
0.00226444
0.00229917
0.00233775
0.00238022
0.00242698
0.00247885
0.00253647
0.00260075
0.00267202
0.00274982
0.00283472
0.00292687
0.0030264
0.0031332
0.00324673
0.00336609
0.00348977
0.00361569
0.00374076
0.00386038
0.00396912
0.00406031
0.00411905
0.00414156
0.00412707
0.00405428
0.00392643
0.00375027
0.00351878
0.00322842
0.00289788
0.00254444
0.00218673
0.00184216
0.00152439
0.00124145
0.000996074
0.000787506
0.000612679
0.000465741
0.000334538
0.000190132
2.7603e-05
2.43243e-05
0.000180474
0.000340149
0.000445948
0.000514511
0.000562965
0.000606743
0.000660108
0.000736
0.000844628
0.000990736
0.00117136
0.00137627
0.00159117
0.00180108
0.00199217
0.00215237
0.00227429
0.00234061
0.00236284
0.00235148
0.0023068
0.00226236
0.00221851
0.00217756
0.0021418
0.00211241
0.00208888
0.00207009
0.00205494
0.00204232
0.00203492
0.00203107
0.00202971
0.00203004
0.00203399
0.00204011
0.00204903
0.00206074
0.00207567
0.00209413
0.00211669
0.00214317
0.00217419
0.00221022
0.00225179
0.00229962
0.00235471
0.00241804
0.00249067
0.00257369
0.00266792
0.00277394
0.00289175
0.00302035
0.00315795
0.00330255
0.00344921
0.00359267
0.00372335
0.00383257
0.00389404
0.00391322
0.00387607
0.00377207
0.00360629
0.00336132
0.0030538
0.00270123
0.00232695
0.00195574
0.00160914
0.0013016
0.00103894
0.000820133
0.000640019
0.000490321
0.000356422
0.000206877
2.97652e-05
3.61403e-05
0.000254123
0.000450067
0.000575097
0.00065718
0.000719142
0.000780443
0.000858201
0.000966321
0.00111299
0.00129788
0.00151137
0.00173703
0.0019558
0.00214961
0.00230328
0.00239744
0.00243314
0.00243259
0.00238413
0.00233131
0.00226839
0.00220748
0.00214601
0.00209175
0.00204472
0.00200377
0.0019671
0.00193421
0.00190554
0.00188104
0.00185928
0.00183985
0.0018225
0.00180732
0.00179464
0.00178413
0.00177616
0.00177108
0.00176882
0.00176833
0.00177121
0.00177728
0.00178687
0.00180045
0.00181836
0.00184137
0.00187021
0.00190612
0.00195043
0.0020049
0.00207165
0.00215293
0.0022511
0.00236784
0.00250216
0.00265693
0.00282851
0.00301165
0.0031995
0.00338432
0.00355077
0.00367609
0.00373243
0.00373827
0.00365659
0.00350264
0.0032438
0.00290762
0.00252046
0.00211505
0.00172424
0.00137405
0.00107837
0.000838312
0.000646868
0.000491476
0.000355032
0.000205743
2.88996e-05
5.19663e-05
0.000344982
0.000579223
0.000724832
0.000822032
0.00089957
0.000980778
0.0010847
0.00122424
0.00140312
0.00161424
0.00184104
0.00206177
0.00225426
0.00240084
0.00247397
0.00249366
0.00246417
0.00240962
0.00233429
0.00225083
0.00216295
0.00208485
0.00201465
0.00195491
0.00190021
0.00185061
0.00180483
0.00176291
0.00172461
0.00168958
0.00165738
0.00162808
0.0016017
0.00157834
0.00155796
0.00154034
0.00152555
0.00151355
0.00150427
0.00149784
0.00149476
0.00149381
0.00149563
0.00150139
0.00151042
0.00152362
0.00154128
0.0015639
0.00159205
0.00162665
0.00166877
0.00171998
0.00178259
0.00186045
0.00196058
0.0020858
0.00224213
0.00243034
0.00264033
0.00287101
0.00310755
0.00333404
0.00352746
0.00363443
0.00366673
0.00361533
0.0034651
0.00317854
0.00279919
0.00236434
0.0019186
0.00150446
0.00115173
0.000870984
0.000655186
0.000487555
0.000346642
0.000199071
2.68642e-05
7.23004e-05
0.000452882
0.000727031
0.000894295
0.00100772
0.00110181
0.00120316
0.00133131
0.0014961
0.00169515
0.00191422
0.00213105
0.00232095
0.00245737
0.00251868
0.00252786
0.00248492
0.00241774
0.00232164
0.00221083
0.00210766
0.00201656
0.00193551
0.00186266
0.00179723
0.00173636
0.00168046
0.00162884
0.00158175
0.00153903
0.00150064
0.00146651
0.00143668
0.00141095
0.00138914
0.00137101
0.00135635
0.00134494
0.00133646
0.00133102
0.0013285
0.00132778
0.00132936
0.00133397
0.00134117
0.00135097
0.00136362
0.00137925
0.00139813
0.00142053
0.00144695
0.00147791
0.00151413
0.00155657
0.00160664
0.0016666
0.00173975
0.00183235
0.00195578
0.00213007
0.00235089
0.00261132
0.00289273
0.00317735
0.00343446
0.00359431
0.00365071
0.00362678
0.00347336
0.00314669
0.00271182
0.00221986
0.00172994
0.00129453
0.000944022
0.000681705
0.000489041
0.000334231
0.000185712
2.45814e-05
9.73434e-05
0.000576246
0.000891584
0.00108127
0.00121113
0.00132097
0.00143979
0.00158614
0.00176526
0.00196814
0.00217445
0.00235856
0.00248815
0.00254273
0.00254702
0.00250145
0.00241675
0.00229687
0.00216966
0.00205426
0.00195068
0.00185892
0.00177613
0.0017008
0.00163197
0.00156868
0.00151146
0.00146011
0.00141491
0.00137567
0.00134229
0.00131446
0.00129179
0.00127381
0.00126001
0.00124984
0.0012428
0.001239
0.00123744
0.00123723
0.0012396
0.00124354
0.0012494
0.00125707
0.00126652
0.0012778
0.00129109
0.00130652
0.00132434
0.00134479
0.00136802
0.00139433
0.00142404
0.00145753
0.00149525
0.00153783
0.00158665
0.00164428
0.00171555
0.00180916
0.00193957
0.00213641
0.00240797
0.0027257
0.00306418
0.00338434
0.00359785
0.00367672
0.00366958
0.00350128
0.00312228
0.00262176
0.00206841
0.00153755
0.0010892
0.000748588
0.000507268
0.000330697
0.000173992
2.27426e-05
0.000127479
0.000711436
0.00106982
0.00128223
0.00142742
0.00155011
0.00168076
0.00183576
0.00201514
0.00220392
0.00237779
0.00250202
0.00255327
0.00255547
0.00250952
0.00241049
0.00227361
0.00213519
0.00200605
0.00189187
0.00178981
0.00169848
0.00161564
0.00154065
0.00147318
0.00141327
0.00136126
0.00131697
0.00128025
0.00125052
0.00122718
0.00120942
0.00119645
0.00118746
0.00118193
0.00117931
0.00117848
0.00117916
0.0011819
0.00118577
0.00119121
0.00119783
0.00120588
0.0012153
0.00122621
0.00123874
0.00125305
0.00126926
0.00128753
0.00130797
0.00133068
0.0013558
0.00138343
0.00141375
0.00144703
0.00148349
0.00152302
0.00156628
0.00161469
0.00167155
0.00174444
0.00184708
0.00200303
0.00225535
0.00260022
0.00298215
0.00336633
0.00362966
0.00372749
0.00372387
0.00352346
0.00307878
0.00250512
0.00189263
0.001332
0.000884164
0.000561597
0.000341919
0.000171556
2.22048e-05
0.000164242
0.000853841
0.0012581
0.00149249
0.00165046
0.00178105
0.00191546
0.00206733
0.00223185
0.0023897
0.00250764
0.00255723
0.00255919
0.00251386
0.00240651
0.00225871
0.0021085
0.00196795
0.00184218
0.00173126
0.00163203
0.00154331
0.00146399
0.00139412
0.00133372
0.00128283
0.0012412
0.00120811
0.00118269
0.00116384
0.00115046
0.00114145
0.00113609
0.00113355
0.00113271
0.00113299
0.00113499
0.00113793
0.001142
0.00114697
0.00115307
0.00116025
0.00116874
0.00117864
0.00119012
0.00120338
0.00121859
0.00123593
0.00125555
0.00127756
0.00130204
0.00132899
0.00135833
0.00138989
0.00142345
0.0014588
0.00149593
0.00153516
0.00157638
0.00161981
0.00166802
0.00172714
0.00180986
0.00193953
0.00215574
0.00250898
0.00293024
0.00337459
0.00367827
0.00378823
0.00377106
0.00351484
0.00299018
0.00234007
0.00167978
0.00110791
0.000676114
0.000381587
0.000179648
2.31092e-05
0.000205147
0.00100378
0.00145238
0.00170666
0.00187347
0.00200545
0.00213407
0.00227038
0.00240583
0.00251383
0.00256137
0.00256386
0.0025193
0.00240959
0.0022552
0.0020934
0.00194124
0.00180463
0.00168428
0.00157819
0.00148413
0.00140162
0.00133029
0.00127025
0.00122116
0.00118235
0.00115274
0.00113094
0.00111554
0.00110513
0.00109848
0.00109477
0.00109306
0.00109252
0.00109257
0.00109377
0.00109573
0.00109838
0.00110186
0.00110623
0.00111168
0.00111835
0.00112647
0.00113619
0.00114774
0.00116133
0.00117714
0.0011954
0.00121629
0.00123996
0.00126655
0.00129609
0.00132853
0.00136366
0.00140109
0.00144025
0.00148044
0.00152098
0.00156159
0.00160272
0.00164401
0.00168694
0.00173686
0.00180537
0.00191592
0.00211037
0.00245204
0.00291023
0.00340687
0.00373504
0.00384502
0.00379182
0.00345031
0.00283053
0.00211073
0.00142294
0.000864659
0.000469316
0.000207197
2.67224e-05
0.000249002
0.00115763
0.00164778
0.00191896
0.00208977
0.0022158
0.00232874
0.00243776
0.00252978
0.00257246
0.00257486
0.00252985
0.00242202
0.00226435
0.00209282
0.00192827
0.00178038
0.00165043
0.001537
0.00143802
0.00135235
0.00127983
0.00122006
0.00117249
0.00113595
0.00110892
0.00108964
0.00107635
0.00106749
0.00106172
0.00105804
0.00105571
0.00105417
0.00105321
0.00105279
0.00105273
0.00105337
0.00105468
0.0010569
0.00106016
0.00106466
0.0010706
0.00107816
0.00108754
0.00109894
0.00111257
0.00112863
0.00114736
0.00116896
0.00119368
0.00122171
0.00125322
0.00128827
0.00132682
0.00136859
0.00141305
0.0014593
0.00150614
0.0015522
0.00159631
0.00163833
0.00167873
0.00171845
0.00176126
0.00182034
0.00191921
0.00210122
0.00243244
0.00292308
0.00346462
0.00379168
0.0038823
0.00376816
0.00329988
0.00258192
0.00180845
0.00112486
0.000612154
0.000265812
3.52015e-05
0.000294384
0.00131134
0.00183926
0.00212373
0.00229325
0.00240603
0.00249421
0.00256499
0.00259791
0.00259798
0.00254973
0.00244585
0.00228765
0.00210845
0.00193153
0.00177094
0.0016305
0.00150893
0.00140431
0.00131516
0.00124081
0.00118073
0.00113385
0.00109865
0.00107313
0.00105519
0.00104284
0.00103436
0.00102838
0.00102391
0.0010203
0.00101716
0.00101432
0.00101178
0.00100963
0.00100808
0.00100737
0.00100723
0.00100822
0.00101057
0.00101431
0.00101967
0.0010268
0.00103587
0.00104706
0.00106056
0.00107657
0.00109531
0.00111703
0.001142
0.00117051
0.00120281
0.00123918
0.00127975
0.00132455
0.00137332
0.00142541
0.00147968
0.00153442
0.00158742
0.00163643
0.00168015
0.00171845
0.00175415
0.00179441
0.00184705
0.00194028
0.00211633
0.00244998
0.00297145
0.00354818
0.00383494
0.0038874
0.00367614
0.00304504
0.00223209
0.0014393
0.000801995
0.000352238
4.84522e-05
0.000339877
0.00146099
0.00202216
0.00231603
0.00247882
0.0025718
0.00262559
0.00264716
0.00263833
0.00258394
0.00248363
0.00232668
0.00214187
0.00195311
0.00177843
0.00162551
0.00149438
0.00138282
0.00128907
0.00121193
0.00115045
0.00110322
0.00106825
0.0010432
0.00102563
0.00101332
0.00100444
0.000997599
0.000991858
0.000986636
0.000981647
0.000976811
0.000972189
0.000967932
0.000964215
0.000961234
0.000959367
0.000958599
0.000958564
0.000960369
0.000963694
0.000968715
0.000975593
0.000984448
0.000995437
0.00100872
0.00102449
0.00104294
0.00106433
0.00108895
0.0011171
0.00114916
0.00118548
0.00122645
0.00127234
0.00132328
0.00137909
0.00143913
0.00150206
0.00156568
0.00162694
0.00168224
0.00172988
0.00176799
0.00179428
0.00183032
0.0018828
0.00197391
0.0021526
0.00250533
0.00306852
0.0036304
0.00386761
0.00385271
0.00345358
0.00266358
0.00178832
0.0010273
0.000459311
6.53409e-05
0.000384719
0.00160222
0.00219271
0.00249261
0.00264193
0.00270516
0.00272084
0.00269993
0.00263699
0.00253874
0.00238326
0.00219462
0.00199496
0.00180514
0.00163728
0.00149415
0.00137376
0.00127373
0.00119235
0.00112814
0.0010793
0.00104348
0.00101794
0.000999933
0.000987026
0.000977269
0.000969243
0.000962032
0.00095512
0.000948294
0.000941544
0.000934987
0.000928802
0.000923195
0.000918366
0.000914502
0.000911893
0.00091068
0.000910388
0.000911808
0.000914982
0.000919862
0.000926615
0.000935331
0.000946143
0.000959187
0.000974628
0.000992656
0.0010135
0.00103743
0.00106478
0.00109593
0.00113131
0.00117141
0.00121673
0.00126771
0.00132463
0.00138746
0.00145557
0.00152749
0.00160059
0.00167092
0.00173341
0.00178573
0.00182348
0.00184154
0.00187154
0.00192479
0.00201783
0.00220769
0.00259331
0.00320329
0.00371296
0.00388364
0.00372455
0.00307461
0.00215845
0.00127932
0.000580872
8.48136e-05
0.000427834
0.00173379
0.00234769
0.00264624
0.00277584
0.00281058
0.00279036
0.0027215
0.00261378
0.00245994
0.0022684
0.00205907
0.00185359
0.00166831
0.00150994
0.00137793
0.0012694
0.00118188
0.00111333
0.0010615
0.00102367
0.000996735
0.00097763
0.000963676
0.000952767
0.000943424
0.000934724
0.000926191
0.000917661
0.000909174
0.000900882
0.000892991
0.000885715
0.000879255
0.00087379
0.000869474
0.000866546
0.000865169
0.000864806
0.000866082
0.000869216
0.000874045
0.00088072
0.000889323
0.000899963
0.000912763
0.000927865
0.000945439
0.000965691
0.000988868
0.00101527
0.00104527
0.00107932
0.00111792
0.0011617
0.00121127
0.00126728
0.00133018
0.00140009
0.00147647
0.00155771
0.00164073
0.00172059
0.00179057
0.00184744
0.00187911
0.00189263
0.0019167
0.00197182
0.00207166
0.00228411
0.00272729
0.00338085
0.00376345
0.00382549
0.0034384
0.00253962
0.00155416
0.000713107
0.000105961
0.0004676
0.00185219
0.00248195
0.00277426
0.00288196
0.00289292
0.00283059
0.00271466
0.00256116
0.0023654
0.00214741
0.00192645
0.00172165
0.0015444
0.00139706
0.00127705
0.001181
0.00110615
0.00104974
0.00100863
0.000979381
0.000958563
0.000943196
0.000930969
0.000920283
0.000910171
0.000900157
0.000890102
0.000880076
0.000870258
0.000860865
0.000852117
0.00084421
0.000837311
0.00083156
0.000827071
0.000824052
0.000822637
0.000822262
0.000823487
0.000826584
0.000831356
0.000837932
0.000846396
0.000856844
0.000869387
0.000884154
0.000901297
0.000920998
0.000943475
0.000968997
0.000997898
0.00103059
0.00106757
0.00110946
0.00115698
0.00121092
0.00127211
0.0013412
0.00141851
0.00150355
0.00159458
0.00168796
0.00177769
0.0018553
0.00191242
0.00193645
0.0019457
0.00196492
0.00202375
0.00213661
0.00239088
0.00292075
0.00355097
0.00380667
0.00366351
0.00290997
0.00184777
0.000853354
0.000128071
0.000502576
0.00195448
0.00259336
0.00287653
0.00296526
0.00294936
0.00284548
0.00268948
0.00248916
0.00226225
0.00202637
0.00180082
0.00160114
0.001434
0.00129853
0.0011909
0.00110733
0.00104441
0.000998576
0.000965961
0.000942758
0.000925615
0.000911931
0.000899917
0.000888502
0.000877169
0.000865776
0.000854404
0.000843246
0.000832526
0.000822465
0.000813252
0.000805044
0.000797966
0.000792117
0.000787577
0.000784518
0.000783075
0.000782685
0.000783825
0.000786823
0.000791472
0.000797886
0.000806153
0.000816363
0.000828624
0.000843054
0.000859794
0.000879005
0.000900881
0.000925657
0.000953623
0.000985141
0.00102067
0.00106077
0.00110616
0.00115768
0.0012163
0.00128306
0.00135885
0.00144413
0.00153847
0.00163981
0.00174375
0.00184283
0.00192646
0.0019797
0.00199491
0.00199926
0.00201598
0.0020804
0.002218
0.00254542
0.00316612
0.00364638
0.00374158
0.00324977
0.00215471
0.000996706
0.000151221
0.00053197
0.00203947
0.00268156
0.0029539
0.00302694
0.00298131
0.00283882
0.00264126
0.00240656
0.00215603
0.00190939
0.00168449
0.00149279
0.00133689
0.00121362
0.00111826
0.00104647
0.000994096
0.000956828
0.000930404
0.000911029
0.000895708
0.000882367
0.000869754
0.000857259
0.000844702
0.000832157
0.000819819
0.000807917
0.000796669
0.00078626
0.000776834
0.000768507
0.000761363
0.000755472
0.000750891
0.000747736
0.000746214
0.000745767
0.000746725
0.000749534
0.000753973
0.000760145
0.000768143
0.000778059
0.000789998
0.000804077
0.000820426
0.000839196
0.00086056
0.000884725
0.000911941
0.000942522
0.000976862
0.00101546
0.00105897
0.0011082
0.00116414
0.00122797
0.00130096
0.00138424
0.00147846
0.00158314
0.00169574
0.00181067
0.0019183
0.0020034
0.00204495
0.00205285
0.00205272
0.00206879
0.00214419
0.00232708
0.00277485
0.00342798
0.00370521
0.00349075
0.00246418
0.00114197
0.000175033
0.00055536
0.00210717
0.00274754
0.0030081
0.0030665
0.00299125
0.00281734
0.00258136
0.0023183
0.00205081
0.00179909
0.00157855
0.00139655
0.00125237
0.00114117
0.00105746
0.000996246
0.000952649
0.000921887
0.000899626
0.00088237
0.000867636
0.000853895
0.000840373
0.000826808
0.000813242
0.000799862
0.000786898
0.000774566
0.000763047
0.000752478
0.000742964
0.000734579
0.000727382
0.000721424
0.00071675
0.000713407
0.000711722
0.000711166
0.000711832
0.00071436
0.000718503
0.000724355
0.000732015
0.000741578
0.000753152
0.000766852
0.000782808
0.00080116
0.00082207
0.000845724
0.000872341
0.000902193
0.000935617
0.000973045
0.00101504
0.00106233
0.00111586
0.00117679
0.00124654
0.00132664
0.0014185
0.0015229
0.00163921
0.00176418
0.00189078
0.00200724
0.00208391
0.00210905
0.00211026
0.00210228
0.00212423
0.00222246
0.00248656
0.00307838
0.00354205
0.00359218
0.00277669
0.00130327
0.000201522
0.000572652
0.00215824
0.00279271
0.00304102
0.00308595
0.00298457
0.00277837
0.00251338
0.00222818
0.00194941
0.00169697
0.00148325
0.00131185
0.00117941
0.00107974
0.00100667
0.000954513
0.000917864
0.000891752
0.000872051
0.000855734
0.000840865
0.000826411
0.000811969
0.000797515
0.000783214
0.000769291
0.000755964
0.000743409
0.000731761
0.000721116
0.000711541
0.000703087
0.000695795
0.000689703
0.000684852
0.000681284
0.000679318
0.000678596
0.000678891
0.000681055
0.000684831
0.000690298
0.000697562
0.000706721
0.000717886
0.000731175
0.000746717
0.000764651
0.000785131
0.000808331
0.000834449
0.000863723
0.000896446
0.000932986
0.000973825
0.00101959
0.00107113
0.00112953
0.00119619
0.00127279
0.00136118
0.00146304
0.00157916
0.00170835
0.00184587
0.00198179
0.00209987
0.00216248
0.00217405
0.00215913
0.00214431
0.002186
0.0023294
0.00275384
0.00338042
0.00360583
0.003081
0.00150512
0.000235877
0.000584131
0.00219367
0.00281808
0.00305297
0.00308517
0.00296453
0.00272993
0.00244089
0.00213906
0.00185368
0.0016037
0.00139834
0.00123787
0.00111676
0.00102779
0.000964083
0.000919392
0.000888
0.000865021
0.000846723
0.000830609
0.000815257
0.000800037
0.000784811
0.000769697
0.000754909
0.000740663
0.00072714
0.000714473
0.000702754
0.000692044
0.000682387
0.000673819
0.000666372
0.000660082
0.00065499
0.00065114
0.000648792
0.000647826
0.000647766
0.000649487
0.000652845
0.000657882
0.000664706
0.000673418
0.000684135
0.000696978
0.000712078
0.000729575
0.000749622
0.000772386
0.000798054
0.000826842
0.000859008
0.000894871
0.000934842
0.000979461
0.00102945
0.00108579
0.00114978
0.00122308
0.00130775
0.001406
0.0015198
0.00164989
0.0017943
0.00194642
0.00209311
0.00219732
0.00223497
0.00223505
0.00219739
0.00218313
0.00225564
0.0025054
0.00310584
0.00348866
0.00331506
0.00176035
0.000282112
0.000589804
0.00221379
0.00282481
0.00304952
0.00307362
0.00293002
0.00267446
0.00236668
0.00205301
0.00176471
0.00151942
0.00132326
0.00117359
0.00106316
0.000983822
0.000928111
0.000889362
0.000861792
0.000840796
0.000823127
0.000806811
0.000790865
0.000774961
0.000759131
0.000743563
0.000728472
0.000714044
0.000700416
0.000687679
0.000675892
0.000665094
0.000655315
0.000646582
0.000638928
0.00063239
0.000627014
0.000622853
0.000620045
0.000618721
0.000618411
0.000619618
0.000622526
0.000627105
0.000633459
0.000641696
0.000651933
0.000664296
0.00067892
0.00069595
0.00071554
0.000737857
0.000763083
0.000791422
0.000823111
0.000858432
0.000897741
0.000941499
0.000990326
0.00104507
0.00110688
0.00117732
0.00125842
0.00135264
0.0014626
0.0015904
0.00173619
0.0018962
0.00206021
0.0022096
0.00229099
0.00230622
0.00227587
0.00223241
0.00223369
0.00237244
0.00283304
0.00335484
0.00342388
0.00206412
0.000339718
0.000589426
0.00222139
0.00281987
0.00303491
0.00304743
0.00288671
0.00261463
0.00229288
0.00197145
0.00168308
0.00144393
0.00125726
0.00111797
0.00101735
0.000946485
0.000897419
0.000863267
0.000838375
0.00081854
0.000801025
0.000784323
0.000767802
0.000751343
0.000735077
0.000719212
0.00070394
0.000689407
0.000675708
0.000662902
0.000651025
0.000640102
0.000630158
0.000621219
0.00061332
0.000606501
0.000600811
0.000596307
0.000593052
0.000591336
0.000590777
0.00059147
0.000593914
0.000598022
0.000603893
0.000611635
0.000621368
0.000633222
0.000647337
0.000663862
0.000682958
0.000704795
0.000729557
0.000757444
0.000788682
0.000823531
0.000862306
0.000905406
0.000953362
0.0010069
0.00106702
0.00113513
0.00121314
0.00130355
0.00140936
0.00153366
0.00167853
0.0018431
0.00202081
0.0021966
0.00232611
0.00237213
0.00236573
0.00228813
0.00224915
0.00230661
0.00259769
0.00321182
0.00344862
0.00240438
0.00040631
0.000586238
0.00221937
0.00280382
0.00300518
0.00300905
0.00283654
0.0025525
0.00222109
0.00189529
0.00160895
0.0013768
0.00119953
0.00106996
0.000978174
0.000914611
0.00087095
0.00084027
0.000817188
0.000797959
0.00078033
0.000763191
0.000746169
0.000729285
0.000712717
0.000696661
0.000681275
0.000666667
0.000652898
0.000640005
0.000628009
0.000616929
0.000606789
0.000597618
0.000589452
0.000582338
0.000576325
0.000571469
0.000567832
0.000565691
0.000564876
0.000565096
0.000567074
0.000570714
0.000576099
0.000583337
0.000592549
0.00060387
0.000617445
0.000633428
0.000651986
0.000673298
0.000697554
0.000724958
0.000755732
0.000790126
0.000828429
0.000870996
0.000918285
0.000970917
0.00102975
0.00109603
0.00117146
0.00125845
0.00136006
0.00147992
0.00162143
0.00178606
0.00197048
0.00216275
0.00233895
0.00243098
0.00244598
0.00239017
0.00229899
0.00228596
0.00244616
0.00298912
0.00336214
0.00273921
0.000474248
0.000579217
0.00221069
0.00277413
0.00296557
0.00296212
0.00278153
0.00248973
0.00215247
0.00182507
0.00154225
0.00131747
0.00114924
0.00102859
0.000944626
0.000887237
0.000847897
0.000819786
0.00079788
0.000778901
0.000761027
0.000743466
0.000726033
0.000708833
0.000692053
0.000675868
0.000660399
0.00064572
0.000631868
0.000618865
0.000606725
0.000595467
0.000585115
0.000575703
0.000567271
0.000559869
0.000553548
0.000548368
0.000544391
0.000541819
0.000540696
0.000540568
0.000542079
0.000545261
0.000550166
0.0005569
0.000565585
0.000576356
0.000589363
0.000604768
0.000622745
0.000643482
0.000667179
0.000694048
0.000724318
0.000758236
0.000796079
0.000838175
0.000884928
0.000936872
0.000994748
0.00105962
0.00113301
0.00121711
0.00131494
0.00143036
0.00156767
0.00173038
0.00191862
0.0021252
0.00233119
0.00247475
0.00251829
0.00249221
0.00236435
0.00229945
0.00237098
0.00278726
0.00323158
0.00299924
0.000527889
0.000568305
0.00219246
0.00273581
0.00291855
0.00290862
0.00272338
0.0024276
0.0020878
0.00176103
0.00148274
0.00126536
0.00110559
0.000992996
0.000915835
0.000863594
0.000827657
0.000801414
0.000780237
0.000761291
0.00074312
0.000725181
0.000707419
0.000689981
0.000673048
0.000656764
0.000641219
0.00062646
0.00061251
0.000599378
0.00058708
0.000575635
0.000565071
0.000555427
0.000546745
0.000539078
0.000532481
0.000527013
0.000522739
0.000519756
0.000518293
0.000517923
0.000518985
0.000521725
0.000526166
0.000532405
0.00054056
0.000550772
0.000563191
0.000577987
0.000595342
0.000615454
0.000638535
0.000664811
0.000694519
0.000727916
0.000765276
0.000806913
0.000853195
0.000904593
0.000961743
0.00102555
0.00109736
0.00117912
0.00127363
0.00138476
0.00151724
0.0016759
0.00186341
0.00207634
0.00230004
0.00249506
0.00258239
0.00258624
0.00247549
0.00234569
0.00233663
0.00261641
0.00311004
0.00312163
0.00055212
0.000554124
0.00216763
0.00269077
0.00286555
0.00285049
0.00266353
0.00236708
0.0020276
0.00170322
0.00143006
0.00121985
0.00106784
0.000962396
0.000891079
0.000843075
0.000809788
0.000784879
0.000764125
0.000745085
0.00072661
0.000708343
0.000690315
0.000672692
0.000655637
0.000639266
0.000623641
0.000608792
0.000594729
0.00058146
0.000569001
0.000557374
0.000546612
0.000536755
0.000527852
0.000519953
0.000513114
0.000507393
0.000502849
0.000499544
0.000497749
0.000497162
0.00049782
0.000500146
0.000504143
0.000509899
0.000517532
0.000527181
0.000539
0.000553163
0.000569862
0.000589304
0.000611716
0.000637335
0.000666418
0.000699232
0.000736062
0.000777218
0.000823048
0.000873979
0.000930566
0.000993588
0.00106419
0.0011441
0.00123588
0.00134321
0.00147103
0.00162509
0.00181034
0.00202718
0.00226569
0.00249917
0.00264005
0.00267036
0.00259184
0.00240211
0.00232908
0.00247089
0.00300374
0.00315585
0.000556158
0.000537478
0.00213828
0.00264069
0.00280807
0.00278932
0.00260315
0.0023089
0.00197213
0.00165152
0.00138382
0.00118036
0.00103532
0.000936128
0.000869762
0.000825208
0.000793964
0.000769992
0.000749452
0.00073025
0.000711484
0.000692934
0.000674687
0.00065691
0.000639748
0.00062329
0.000607578
0.000592629
0.000578448
0.000565043
0.00055243
0.000540637
0.000529699
0.00051966
0.000510569
0.000502476
0.000495436
0.000489502
0.000484728
0.000481171
0.000479067
0.000478279
0.000478586
0.000480529
0.000484106
0.000489398
0.00049652
0.00050561
0.000516824
0.00053034
0.000546357
0.000565093
0.000586786
0.000611692
0.000640085
0.00067225
0.000708488
0.000749116
0.00079448
0.000844977
0.000901102
0.000963528
0.00103324
0.00111173
0.00120128
0.00130531
0.00142868
0.0015776
0.00175859
0.00197528
0.00222282
0.00248091
0.00267967
0.00274513
0.00270622
0.00250701
0.00236092
0.00240074
0.00284014
0.00312789
0.000545085
0.000519037
0.00210616
0.00258717
0.00274751
0.00272642
0.00254317
0.00225355
0.00192152
0.00160576
0.0013436
0.00114633
0.00100745
0.000913625
0.000851399
0.000809625
0.000779939
0.000756611
0.000736149
0.000716753
0.000697716
0.000678919
0.000660483
0.00064257
0.000625305
0.000608756
0.000592952
0.0005779
0.000563603
0.000550069
0.000537319
0.000525383
0.000514299
0.000504112
0.000494871
0.000486625
0.000479426
0.000473322
0.000468363
0.000464601
0.00046222
0.00046124
0.000461256
0.00046285
0.000466033
0.000470883
0.000477511
0.000486052
0.000496664
0.000509527
0.000524845
0.000542847
0.000563783
0.000587927
0.000615569
0.000647019
0.000682598
0.00072264
0.000767499
0.000817559
0.000873277
0.000935242
0.0010043
0.00108173
0.00116954
0.00127084
0.00139026
0.0015342
0.00171023
0.00192461
0.00217662
0.00245028
0.00269852
0.00281133
0.0028088
0.00262712
0.002404
0.00237253
0.0026986
0.00305912
0.000526759
0.000499397
0.00207198
0.00253142
0.00268511
0.00266286
0.00248431
0.00220136
0.00187574
0.00156564
0.00130897
0.00111727
0.0009837
0.000894411
0.000835596
0.000796035
0.000767526
0.000744628
0.000724156
0.000704554
0.000685267
0.00066625
0.000647644
0.000629603
0.000612235
0.000595593
0.000579695
0.000564541
0.000550136
0.00053649
0.000523624
0.000511572
0.000500374
0.000490076
0.000480724
0.000472366
0.000465048
0.000458817
0.000453718