/*--------------------------------*- C++ -*----------------------------------*\
  =========                 |
  \\      /  F ield         | OpenFOAM: The Open Source CFD Toolbox
   \\    /   O peration     | Website:  https://openfoam.org
    \\  /    A nd           | Version:  13
     \\/     M anipulation  |
\*---------------------------------------------------------------------------*/
FoamFile
{
    format      ascii;
    class       volScalarField;
    location    "7";
    object      nut;
}
// * * * * * * * * * * * * * * * * * * * * * * * * * * * * * * * * * * * * * //

dimensions      [0 2 -1 0 0 0 0];

internalField   nonuniform List<scalar> 
6400
(
9.41296e-10
4.8367e-09
1.17472e-08
1.89388e-08
2.43737e-08
2.74318e-08
2.85452e-08
2.86503e-08
2.88105e-08
2.98531e-08
3.24048e-08
3.74274e-08
4.53821e-08
5.64384e-08
7.003e-08
8.54053e-08
1.01788e-07
1.1884e-07
1.35808e-07
1.52242e-07
1.68719e-07
1.86631e-07
2.0786e-07
2.33622e-07
2.62976e-07
2.92854e-07
3.22487e-07
3.51852e-07
3.81831e-07
4.13262e-07
4.4579e-07
4.7825e-07
5.10123e-07
5.41433e-07
5.7305e-07
6.05136e-07
6.38403e-07
6.73053e-07
7.0954e-07
7.47985e-07
7.8867e-07
8.31902e-07
8.77939e-07
9.27397e-07
9.8055e-07
1.03916e-06
1.10639e-06
1.18923e-06
1.27526e-06
1.36214e-06
1.44784e-06
1.53119e-06
1.60977e-06
1.68133e-06
1.7433e-06
1.79256e-06
1.81888e-06
1.82943e-06
1.8291e-06
1.79622e-06
1.73656e-06
1.6498e-06
1.53705e-06
1.40214e-06
1.24873e-06
1.0839e-06
9.15716e-07
7.51195e-07
5.96429e-07
4.57971e-07
3.45745e-07
2.5155e-07
1.75448e-07
1.17185e-07
7.52525e-08
4.6699e-08
2.80856e-08
1.6105e-08
7.60524e-09
1.61876e-09
4.55607e-09
3.23389e-07
1.1643e-06
1.96645e-06
2.56103e-06
2.91176e-06
3.07329e-06
3.13039e-06
3.16713e-06
3.24307e-06
3.4327e-06
3.80397e-06
4.32694e-06
4.93659e-06
5.57106e-06
6.16764e-06
6.68193e-06
7.06789e-06
7.30993e-06
7.42154e-06
7.47816e-06
7.54851e-06
7.69867e-06
7.95942e-06
8.2754e-06
8.4985e-06
8.70226e-06
8.93174e-06
9.23284e-06
9.64418e-06
1.01773e-05
1.07628e-05
1.13989e-05
1.20522e-05
1.27442e-05
1.34587e-05
1.42059e-05
1.49798e-05
1.57872e-05
1.66241e-05
1.7485e-05
1.83745e-05
1.92861e-05
2.0253e-05
2.12384e-05
2.22144e-05
2.31495e-05
2.39974e-05
2.48505e-05
2.57278e-05
2.66105e-05
2.74892e-05
2.83465e-05
2.9163e-05
2.99157e-05
3.06495e-05
3.1132e-05
3.14259e-05
3.16465e-05
3.16441e-05
3.13147e-05
3.06774e-05
2.97158e-05
2.84085e-05
2.67636e-05
2.48255e-05
2.26936e-05
2.03945e-05
1.79575e-05
1.53369e-05
1.24494e-05
9.65488e-06
7.18727e-06
5.14758e-06
3.56682e-06
2.4223e-06
1.61705e-06
1.0433e-06
4.71218e-07
8.56159e-09
9.97242e-09
8.38614e-07
3.398e-06
5.91727e-06
7.85089e-06
9.10929e-06
9.81815e-06
1.0176e-05
1.03906e-05
1.06401e-05
1.10518e-05
1.17071e-05
1.25817e-05
1.35776e-05
1.4569e-05
1.54429e-05
1.61501e-05
1.66659e-05
1.69887e-05
1.71328e-05
1.71192e-05
1.70373e-05
1.69678e-05
1.69511e-05
1.70221e-05
1.72656e-05
1.75848e-05
1.79028e-05
1.82444e-05
1.86063e-05
1.90703e-05
1.97192e-05
2.06902e-05
2.167e-05
2.27899e-05
2.39637e-05
2.52195e-05
2.65003e-05
2.7831e-05
2.92507e-05
3.06415e-05
3.20671e-05
3.34795e-05
3.4816e-05
3.60963e-05
3.73461e-05
3.85571e-05
3.97775e-05
4.10037e-05
4.22338e-05
4.34551e-05
4.46589e-05
4.58283e-05
4.69445e-05
4.79815e-05
4.89064e-05
4.9696e-05
5.02631e-05
5.0522e-05
5.07101e-05
5.05654e-05
5.01033e-05
4.92941e-05
4.80018e-05
4.61591e-05
4.37617e-05
4.10118e-05
3.79008e-05
3.44409e-05
3.06731e-05
2.66447e-05
2.24931e-05
1.84166e-05
1.46173e-05
1.12724e-05
8.44344e-06
6.19446e-06
4.26036e-06
1.77168e-06
2.28847e-08
1.73261e-08
1.37389e-06
5.33018e-06
9.12811e-06
1.2072e-05
1.40971e-05
1.53548e-05
1.60653e-05
1.64894e-05
1.68466e-05
1.73358e-05
1.80813e-05
1.90634e-05
2.01428e-05
2.11568e-05
2.19924e-05
2.25882e-05
2.29402e-05
2.30767e-05
2.30544e-05
2.29379e-05
2.28345e-05
2.28117e-05
2.2908e-05
2.296e-05
2.29702e-05
2.2916e-05
2.32759e-05
2.39799e-05
2.4923e-05
2.61927e-05
2.7395e-05
2.85834e-05
2.98524e-05
3.11592e-05
3.24483e-05
3.37383e-05
3.50888e-05
3.63845e-05
3.76596e-05
3.8893e-05
4.01054e-05
4.12751e-05
4.2403e-05
4.34882e-05
4.45395e-05
4.55927e-05
4.6647e-05
4.76989e-05
4.87443e-05
4.97751e-05
5.07823e-05
5.17528e-05
5.26703e-05
5.3515e-05
5.42633e-05
5.48885e-05
5.53795e-05
5.56438e-05
5.5723e-05
5.55888e-05
5.51278e-05
5.43422e-05
5.35664e-05
5.23124e-05
5.04171e-05
4.80688e-05
4.5223e-05
4.19611e-05
3.83339e-05
3.43836e-05
3.01739e-05
2.58098e-05
2.1454e-05
1.73091e-05
1.35457e-05
1.02711e-05
7.19219e-06
2.9755e-06
3.80663e-08
2.78014e-08
2.06176e-06
7.40219e-06
1.22879e-05
1.59418e-05
1.84057e-05
1.99146e-05
2.07508e-05
2.12258e-05
2.16577e-05
2.23011e-05
2.32438e-05
2.43842e-05
2.55253e-05
2.64889e-05
2.71751e-05
2.75628e-05
2.76906e-05
2.76115e-05
2.7445e-05
2.71914e-05
2.70166e-05
2.68576e-05
2.62315e-05
2.61369e-05
2.66133e-05
2.75458e-05
2.86625e-05
2.98175e-05
3.11059e-05
3.23644e-05
3.35887e-05
3.47932e-05
3.59693e-05
3.70648e-05
3.80821e-05
3.90996e-05
4.00627e-05
4.08893e-05
4.16682e-05
4.23651e-05
4.30097e-05
4.36204e-05
4.42205e-05
4.48348e-05
4.5468e-05
4.60959e-05
4.6732e-05
4.73767e-05
4.8034e-05
4.87058e-05
4.93923e-05
5.00921e-05
5.08005e-05
5.15104e-05
5.22102e-05
5.28844e-05
5.35025e-05
5.40307e-05
5.44159e-05
5.45733e-05
5.45082e-05
5.40258e-05
5.29404e-05
5.21288e-05
5.10187e-05
4.92252e-05
4.69289e-05
4.41988e-05
4.10903e-05
3.76393e-05
3.38687e-05
2.98111e-05
2.55511e-05
2.12899e-05
1.72007e-05
1.3359e-05
9.38444e-06
3.81396e-06
4.8522e-08
4.27597e-08
2.98783e-06
9.84989e-06
1.57442e-05
1.99004e-05
2.25469e-05
2.40654e-05
2.48616e-05
2.53543e-05
2.59185e-05
2.67663e-05
2.78802e-05
2.9077e-05
3.01381e-05
3.09075e-05
3.13223e-05
3.13995e-05
3.12656e-05
3.08525e-05
3.05306e-05
3.00285e-05
2.9123e-05
2.89525e-05
2.96207e-05
3.05621e-05
3.15714e-05
3.27173e-05
3.38622e-05
3.4965e-05
3.60262e-05
3.69374e-05
3.78146e-05
3.86219e-05
3.93206e-05
3.98852e-05
4.03871e-05
4.07909e-05
4.11874e-05
4.14903e-05
4.17521e-05
4.19852e-05
4.22062e-05
4.24064e-05
4.25954e-05
4.27788e-05
4.29563e-05
4.31329e-05
4.33174e-05
4.35187e-05
4.37466e-05
4.40134e-05
4.43309e-05
4.47116e-05
4.51657e-05
4.56955e-05
4.62888e-05
4.69678e-05
4.76994e-05
4.84577e-05
4.91853e-05
4.98581e-05
5.03443e-05
5.05287e-05
5.04334e-05
4.95684e-05
4.91112e-05
4.79217e-05
4.61752e-05
4.39349e-05
4.12957e-05
3.83292e-05
3.50671e-05
3.14943e-05
2.75775e-05
2.34546e-05
1.92651e-05
1.51465e-05
1.06709e-05
4.21393e-06
5.23229e-08
6.35308e-08
4.19607e-06
1.27069e-05
1.9499e-05
2.39654e-05
2.6604e-05
2.79914e-05
2.86896e-05
2.92114e-05
2.9916e-05
3.09094e-05
3.20676e-05
3.31633e-05
3.39956e-05
3.44596e-05
3.45468e-05
3.40863e-05
3.36321e-05
3.32029e-05
3.20163e-05
3.16631e-05
3.2097e-05
3.29411e-05
3.36733e-05
3.45583e-05
3.54411e-05
3.63304e-05
3.71068e-05
3.77886e-05
3.83972e-05
3.89351e-05
3.93799e-05
3.97286e-05
3.99851e-05
4.01666e-05
4.0298e-05
4.03789e-05
4.04318e-05
4.04286e-05
4.04208e-05
4.04097e-05
4.03504e-05
4.02925e-05
4.02078e-05
4.01216e-05
4.00151e-05
3.99031e-05
3.97801e-05
3.9658e-05
3.95409e-05
3.94423e-05
3.93797e-05
3.93792e-05
3.94799e-05
3.97398e-05
4.00737e-05
4.06093e-05
4.13326e-05
4.22197e-05
4.31808e-05
4.4246e-05
4.52672e-05
4.62103e-05
4.67015e-05
4.68136e-05
4.62669e-05
4.60967e-05
4.49062e-05
4.30631e-05
4.07146e-05
3.79978e-05
3.50239e-05
3.18351e-05
2.83576e-05
2.44592e-05
2.04236e-05
1.60574e-05
1.09692e-05
4.20308e-06
5.08014e-08
9.1351e-08
5.70644e-06
1.59045e-05
2.34479e-05
2.8046e-05
3.05472e-05
3.17408e-05
3.23364e-05
3.28869e-05
3.36747e-05
3.46882e-05
3.57286e-05
3.65603e-05
3.7016e-05
3.70629e-05
3.6539e-05
3.60708e-05
3.50554e-05
3.43005e-05
3.42114e-05
3.47248e-05
3.5108e-05
3.57168e-05
3.63209e-05
3.70584e-05
3.76798e-05
3.82391e-05
3.86725e-05
3.90241e-05
3.92913e-05
3.94833e-05
3.96035e-05
3.96665e-05
3.96865e-05
3.96784e-05
3.96513e-05
3.96063e-05
3.95489e-05
3.94774e-05
3.94037e-05
3.92817e-05
3.91994e-05
3.91242e-05
3.89431e-05
3.88147e-05
3.86418e-05
3.84689e-05
3.82756e-05
3.80669e-05
3.78385e-05
3.75919e-05
3.73233e-05
3.70305e-05
3.67094e-05
3.63518e-05
3.61761e-05
3.61281e-05
3.6381e-05
3.70701e-05
3.78836e-05
3.90383e-05
4.03566e-05
4.17216e-05
4.3013e-05
4.38539e-05
4.40911e-05
4.38585e-05
4.38498e-05
4.24856e-05
4.04054e-05
3.77809e-05
3.48069e-05
3.16678e-05
2.84376e-05
2.49138e-05
2.08985e-05
1.6548e-05
1.11341e-05
4.09341e-06
4.72234e-08
1.27096e-07
7.50296e-06
1.93536e-05
2.74364e-05
3.20489e-05
3.43404e-05
3.53203e-05
3.58118e-05
3.63518e-05
3.71209e-05
3.80125e-05
3.87955e-05
3.92621e-05
3.91526e-05
3.86685e-05
3.81699e-05
3.68636e-05
3.63429e-05
3.63689e-05
3.64102e-05
3.6663e-05
3.70854e-05
3.75883e-05
3.80545e-05
3.85084e-05
3.88297e-05
3.90813e-05
3.92369e-05
3.93415e-05
3.93951e-05
3.94188e-05
3.94222e-05
3.94192e-05
3.94158e-05
3.94152e-05
3.9417e-05
3.94191e-05
3.94191e-05
3.94103e-05
3.93769e-05
3.93515e-05
3.93325e-05
3.92463e-05
3.91626e-05
3.90655e-05
3.8939e-05
3.87949e-05
3.8624e-05
3.84278e-05
3.81992e-05
3.79389e-05
3.76402e-05
3.72965e-05
3.69017e-05
3.64434e-05
3.59264e-05
3.53414e-05
3.47128e-05
3.40912e-05
3.41823e-05
3.48032e-05
3.59397e-05
3.73809e-05
3.90225e-05
4.06481e-05
4.17387e-05
4.20666e-05
4.20748e-05
4.21607e-05
4.05678e-05
3.81586e-05
3.51294e-05
3.17664e-05
2.83437e-05
2.49041e-05
2.10988e-05
1.65882e-05
1.08857e-05
3.80565e-06
4.32105e-08
1.71118e-07
9.51088e-06
2.28864e-05
3.13821e-05
3.59158e-05
3.79569e-05
3.87128e-05
3.9076e-05
3.95316e-05
4.0163e-05
4.08029e-05
4.1223e-05
4.10028e-05
4.04609e-05
3.98888e-05
3.87862e-05
3.82137e-05
3.7963e-05
3.77036e-05
3.78469e-05
3.80899e-05
3.84143e-05
3.87231e-05
3.89673e-05
3.91537e-05
3.92494e-05
3.93106e-05
3.93345e-05
3.93584e-05
3.93845e-05
3.94291e-05
3.94925e-05
3.95767e-05
3.96762e-05
3.97848e-05
3.98933e-05
3.99923e-05
4.00918e-05
4.01511e-05
4.01814e-05
4.0231e-05
4.02153e-05
4.01806e-05
4.01196e-05
4.00312e-05
3.99153e-05
3.97758e-05
3.96128e-05
3.94297e-05
3.92273e-05
3.89961e-05
3.87309e-05
3.84203e-05
3.80468e-05
3.76016e-05
3.70624e-05
3.64099e-05
3.56335e-05
3.47505e-05
3.38364e-05
3.29313e-05
3.27241e-05
3.36103e-05
3.50557e-05
3.69118e-05
3.87849e-05
4.01606e-05
4.05983e-05
4.0721e-05
4.07778e-05
3.89236e-05
3.61033e-05
3.2583e-05
2.87566e-05
2.49538e-05
2.10767e-05
1.65564e-05
1.0644e-05
3.54569e-06
3.9978e-08
2.24093e-07
1.15682e-05
2.63624e-05
3.51989e-05
3.96008e-05
4.13685e-05
4.18823e-05
4.20679e-05
4.23462e-05
4.27241e-05
4.30056e-05
4.26929e-05
4.20585e-05
4.14108e-05
4.0474e-05
3.97739e-05
3.91798e-05
3.88544e-05
3.87261e-05
3.88482e-05
3.89878e-05
3.91483e-05
3.92584e-05
3.93207e-05
3.9351e-05
3.93602e-05
3.93892e-05
3.94415e-05
3.95371e-05
3.96698e-05
3.98403e-05
4.00369e-05
4.02506e-05
4.04676e-05
4.06916e-05
4.09108e-05
4.10507e-05
4.11687e-05
4.13367e-05
4.14024e-05
4.14674e-05
4.14772e-05
4.14632e-05
4.14112e-05
4.1327e-05
4.12095e-05
4.1061e-05
4.08818e-05
4.06731e-05
4.04352e-05
4.01681e-05
3.9873e-05
3.95498e-05
3.91983e-05
3.88163e-05
3.8384e-05
3.78452e-05
3.71531e-05
3.62849e-05
3.5236e-05
3.40519e-05
3.28571e-05
3.17853e-05
3.18364e-05
3.32829e-05
3.51218e-05
3.72616e-05
3.88909e-05
3.94322e-05
3.95727e-05
3.95004e-05
3.73084e-05
3.39985e-05
2.99504e-05
2.56155e-05
2.13162e-05
1.65688e-05
1.06341e-05
3.49166e-06
3.90322e-08
2.88717e-07
1.34633e-05
2.96865e-05
3.88268e-05
4.30673e-05
4.45434e-05
4.47833e-05
4.4725e-05
4.47296e-05
4.47518e-05
4.43278e-05
4.35793e-05
4.28748e-05
4.20072e-05
4.12124e-05
4.02849e-05
3.9787e-05
3.95048e-05
3.9404e-05
3.94283e-05
3.94379e-05
3.94534e-05
3.94413e-05
3.9434e-05
3.94515e-05
3.95134e-05
3.9638e-05
3.98199e-05
4.00579e-05
4.03353e-05
4.06407e-05
4.09572e-05
4.12875e-05
4.16198e-05
4.19077e-05
4.21043e-05
4.2322e-05
4.25467e-05
4.27036e-05
4.28165e-05
4.28994e-05
4.29371e-05
4.29405e-05
4.29032e-05
4.28287e-05
4.27162e-05
4.25673e-05
4.23824e-05
4.21625e-05
4.1908e-05
4.1619e-05
4.12951e-05
4.09349e-05
4.05362e-05
4.00966e-05
3.96141e-05
3.90882e-05
3.85154e-05
3.78319e-05
3.69388e-05
3.57894e-05
3.4446e-05
3.29914e-05
3.1659e-05
3.07076e-05
3.18001e-05
3.36172e-05
3.5969e-05
3.77704e-05
3.83749e-05
3.844e-05
3.81353e-05
3.54849e-05
3.16492e-05
2.70628e-05
2.21596e-05
1.70352e-05
1.09041e-05
3.64812e-06
4.06217e-08
3.60621e-07
1.53416e-05
3.28488e-05
4.22324e-05
4.62857e-05
4.7449e-05
4.73722e-05
4.69963e-05
4.66363e-05
4.60321e-05
4.51351e-05
4.43892e-05
4.34941e-05
4.2576e-05
4.14118e-05
4.06294e-05
4.01814e-05
3.99042e-05
3.97629e-05
3.9681e-05
3.96005e-05
3.95524e-05
3.95319e-05
3.95761e-05
3.96945e-05
3.9894e-05
4.01692e-05
4.05033e-05
4.08812e-05
4.12828e-05
4.16935e-05
4.21148e-05
4.25251e-05
4.28946e-05
4.3202e-05
4.34989e-05
4.37546e-05
4.39989e-05
4.42068e-05
4.43567e-05
4.447e-05
4.45394e-05
4.45674e-05
4.45514e-05
4.44924e-05
4.43899e-05
4.42449e-05
4.4058e-05
4.38302e-05
4.35626e-05
4.32561e-05
4.29108e-05
4.25256e-05
4.20979e-05
4.1623e-05
4.10949e-05
4.05073e-05
3.9857e-05
3.91473e-05
3.83821e-05
3.74582e-05
3.6264e-05
3.4789e-05
3.3133e-05
3.1488e-05
3.02054e-05
3.05541e-05
3.23805e-05
3.48331e-05
3.67106e-05
3.72996e-05
3.71947e-05
3.64633e-05
3.32751e-05
2.89168e-05
2.37264e-05
1.81264e-05
1.17485e-05
4.12593e-06
4.69726e-08
4.37713e-07
1.71661e-05
3.58062e-05
4.5383e-05
4.92303e-05
5.00583e-05
4.96168e-05
4.88496e-05
4.79492e-05
4.68359e-05
4.604e-05
4.49583e-05
4.39118e-05
4.25727e-05
4.15109e-05
4.08197e-05
4.03818e-05
4.00824e-05
3.98899e-05
3.97506e-05
3.96601e-05
3.96481e-05
3.972e-05
3.98963e-05
4.01681e-05
4.05252e-05
4.09472e-05
4.14122e-05
4.19018e-05
4.23987e-05
4.28908e-05
4.33686e-05
4.38172e-05
4.42365e-05
4.46288e-05
4.49766e-05
4.53004e-05
4.55564e-05
4.57977e-05
4.60256e-05
4.6174e-05
4.62836e-05
4.63445e-05
4.63553e-05
4.63158e-05
4.62247e-05
4.60824e-05
4.58895e-05
4.56474e-05
4.53582e-05
4.50246e-05
4.46488e-05
4.42327e-05
4.37761e-05
4.32762e-05
4.27263e-05
4.21156e-05
4.14303e-05
4.06583e-05
3.97968e-05
3.88627e-05
3.78317e-05
3.65807e-05
3.49661e-05
3.31765e-05
3.13606e-05
2.98438e-05
2.95596e-05
3.13295e-05
3.38323e-05
3.56694e-05
3.61068e-05
3.58508e-05
3.43064e-05
3.06166e-05
2.56073e-05
1.9755e-05
1.30433e-05
5.00843e-06
6.18766e-08
5.17487e-07
1.8896e-05
3.85192e-05
4.82538e-05
5.18839e-05
5.23605e-05
5.15182e-05
5.02634e-05
4.88512e-05
4.7948e-05
4.6505e-05
4.53221e-05
4.38022e-05
4.24881e-05
4.15177e-05
4.08726e-05
4.04269e-05
4.01113e-05
3.99048e-05
3.97841e-05
3.97668e-05
3.98693e-05
4.00893e-05
4.04239e-05
4.08495e-05
4.13452e-05
4.18859e-05
4.24512e-05
4.30248e-05
4.35935e-05
4.41483e-05
4.46819e-05
4.51887e-05
4.56681e-05
4.61172e-05
4.65399e-05
4.6941e-05
4.72676e-05
4.75293e-05
4.78044e-05
4.80401e-05
4.81864e-05
4.82917e-05
4.83343e-05
4.83186e-05
4.82405e-05
4.81001e-05
4.78973e-05
4.76336e-05
4.73115e-05
4.69352e-05
4.65094e-05
4.60396e-05
4.55306e-05
4.49852e-05
4.44023e-05
4.37746e-05
4.30869e-05
4.2316e-05
4.14341e-05
4.042e-05
3.92793e-05
3.80034e-05
3.65772e-05
3.49556e-05
3.30499e-05
3.11391e-05
2.93709e-05
2.8716e-05
3.03694e-05
3.29981e-05
3.45439e-05
3.47064e-05
3.43432e-05
3.17404e-05
2.72749e-05
2.15265e-05
1.46115e-05
6.01237e-06
8.51686e-08
5.97457e-07
2.04954e-05
4.09626e-05
5.08347e-05
5.42376e-05
5.43644e-05
5.30304e-05
5.1382e-05
5.01381e-05
4.83292e-05
4.68915e-05
4.51764e-05
4.36049e-05
4.23462e-05
4.14436e-05
4.08212e-05
4.03785e-05
4.00819e-05
3.9921e-05
3.98906e-05
4.00043e-05
4.02585e-05
4.0637e-05
4.11189e-05
4.16745e-05
4.22803e-05
4.29136e-05
4.35584e-05
4.42022e-05
4.48366e-05
4.54558e-05
4.60555e-05
4.6633e-05
4.71861e-05
4.77114e-05
4.82057e-05
4.86839e-05
4.91226e-05
4.94189e-05
4.97239e-05
5.00688e-05
5.02597e-05
5.04148e-05
5.04957e-05
5.05085e-05
5.04479e-05
5.03125e-05
5.01014e-05
4.9815e-05
4.94556e-05
4.90272e-05
4.85361e-05
4.79903e-05
4.7399e-05
4.67718e-05
4.61163e-05
4.54355e-05
4.4724e-05
4.39647e-05
4.31259e-05
4.21622e-05
4.10251e-05
3.97442e-05
3.8271e-05
3.64008e-05
3.46479e-05
3.27924e-05
3.07701e-05
2.8771e-05
2.79514e-05
2.95607e-05
3.20996e-05
3.34139e-05
3.30841e-05
3.21295e-05
2.8415e-05
2.30639e-05
1.6198e-05
7.03742e-06
1.14856e-07
6.76284e-07
2.19126e-05
4.3132e-05
5.3162e-05
5.62628e-05
5.58661e-05
5.42669e-05
5.25784e-05
5.0498e-05
4.87068e-05
4.67745e-05
4.49284e-05
4.33599e-05
4.21629e-05
4.13106e-05
4.07133e-05
4.03064e-05
4.00767e-05
4.0017e-05
4.01227e-05
4.03905e-05
4.07984e-05
4.13192e-05
4.19241e-05
4.25843e-05
4.32787e-05
4.39898e-05
4.47063e-05
4.54201e-05
4.61259e-05
4.68201e-05
4.74992e-05
4.81601e-05
4.87991e-05
4.94113e-05
4.99918e-05
5.05481e-05
5.10744e-05
5.14643e-05
5.18162e-05
5.2216e-05
5.24876e-05
5.26882e-05
5.28137e-05
5.28599e-05
5.28229e-05
5.26995e-05
5.24875e-05
5.21857e-05
5.1795e-05
5.13182e-05
5.07607e-05
5.01309e-05
4.94401e-05
4.87023e-05
4.79326e-05
4.71449e-05
4.6348e-05
4.55411e-05
4.47071e-05
4.38078e-05
4.27809e-05
4.15461e-05
4.01499e-05
3.84696e-05
3.621e-05
3.42209e-05
3.23834e-05
3.02361e-05
2.8044e-05
2.72682e-05
2.88387e-05
3.10489e-05
3.20074e-05
3.12152e-05
2.89206e-05
2.41861e-05
1.75973e-05
7.95411e-06
1.49086e-07
7.52073e-07
2.31795e-05
4.50295e-05
5.50698e-05
5.77903e-05
5.72347e-05
5.56574e-05
5.33728e-05
5.08734e-05
4.86791e-05
4.65362e-05
4.46269e-05
4.30919e-05
4.19549e-05
4.11502e-05
4.06009e-05
4.02705e-05
4.01504e-05
4.02268e-05
4.04849e-05
4.09029e-05
4.14478e-05
4.20877e-05
4.27933e-05
4.35406e-05
4.4313e-05
4.50983e-05
4.58892e-05
4.66805e-05
4.74685e-05
4.82494e-05
4.90192e-05
4.9773e-05
5.05051e-05
5.12091e-05
5.18783e-05
5.25192e-05
5.31324e-05
5.36069e-05
5.4009e-05
5.44628e-05
5.48122e-05
5.50583e-05
5.52299e-05
5.53131e-05
5.53056e-05
5.52026e-05
5.50006e-05
5.46968e-05
5.42897e-05
5.37798e-05
5.31701e-05
5.24672e-05
5.16814e-05
5.08275e-05
4.99245e-05
4.89937e-05
4.80566e-05
4.71296e-05
4.62177e-05
4.5306e-05
4.43512e-05
4.32737e-05
4.19576e-05
4.04568e-05
3.83613e-05
3.58872e-05
3.36726e-05
3.18084e-05
2.94599e-05
2.70411e-05
2.66974e-05
2.83302e-05
2.98384e-05
3.00309e-05
2.89339e-05
2.48712e-05
1.86793e-05
8.6913e-06
1.8626e-07
8.21975e-07
2.42592e-05
4.65537e-05
5.65402e-05
5.90128e-05
5.8643e-05
5.6475e-05
5.36585e-05
5.10724e-05
4.85131e-05
4.6229e-05
4.4304e-05
4.28185e-05
4.1742e-05
4.09973e-05
4.05274e-05
4.03087e-05
4.03245e-05
4.05488e-05
4.09539e-05
4.15053e-05
4.21662e-05
4.29055e-05
4.36976e-05
4.4524e-05
4.53729e-05
4.62364e-05
4.71096e-05
4.79883e-05
4.88683e-05
4.97446e-05
5.06112e-05
5.1461e-05
5.22866e-05
5.30802e-05
5.38342e-05
5.45561e-05
5.52473e-05
5.57924e-05
5.62434e-05
5.67467e-05
5.7163e-05
5.74528e-05
5.76677e-05
5.77889e-05
5.78147e-05
5.77396e-05
5.75588e-05
5.72679e-05
5.68633e-05
5.63425e-05
5.57053e-05
5.49545e-05
5.4097e-05
5.31452e-05
5.21172e-05
5.10372e-05
4.99336e-05
4.88364e-05
4.77707e-05
4.67485e-05
4.57583e-05
4.47533e-05
4.36404e-05
4.22727e-05
4.05284e-05
3.80337e-05
3.53893e-05
3.30102e-05
3.10341e-05
2.83607e-05
2.57991e-05
2.60278e-05
2.78357e-05
2.88821e-05
2.78287e-05
2.50723e-05
1.93975e-05
9.2475e-06
2.25126e-07
8.83458e-07
2.51247e-05
4.77009e-05
5.76431e-05
6.02309e-05
5.9647e-05
5.71483e-05
5.40256e-05
5.10161e-05
4.82576e-05
4.5889e-05
4.39804e-05
4.25541e-05
4.15454e-05
4.08814e-05
4.05196e-05
4.04344e-05
4.05944e-05
4.09616e-05
4.1498e-05
4.21639e-05
4.29238e-05
4.375e-05
4.46221e-05
4.5527e-05
4.64567e-05
4.74056e-05
4.83693e-05
4.9343e-05
5.03206e-05
5.12949e-05
5.22574e-05
5.31995e-05
5.41121e-05
5.49866e-05
5.58149e-05
5.66044e-05
5.73607e-05
5.79661e-05
5.84561e-05
5.89985e-05
5.94697e-05
5.97978e-05
6.00503e-05
6.02073e-05
6.02672e-05
6.02244e-05
6.00734e-05
5.98087e-05
5.94246e-05
5.89161e-05
5.82793e-05
5.75127e-05
5.66183e-05
5.56032e-05
5.44813e-05
5.32741e-05
5.20118e-05
5.07307e-05
4.94701e-05
4.82642e-05
4.71313e-05
4.60607e-05
4.49983e-05
4.38335e-05
4.23888e-05
4.03249e-05
3.7506e-05
3.47175e-05
3.22336e-05
3.0026e-05
2.70284e-05
2.4814e-05
2.53526e-05
2.65708e-05
2.68076e-05
2.4979e-05
1.97665e-05
9.58487e-06
2.6582e-07
9.35128e-07
2.57815e-05
4.8522e-05
5.85096e-05
6.11354e-05
6.03644e-05
5.7437e-05
5.41242e-05
5.08574e-05
4.79502e-05
4.55408e-05
4.367e-05
4.23116e-05
4.13834e-05
4.08215e-05
4.05871e-05
4.06426e-05
4.0942e-05
4.14386e-05
4.20892e-05
4.28542e-05
4.37016e-05
4.46088e-05
4.55604e-05
4.65475e-05
4.7564e-05
4.86048e-05
4.96645e-05
5.07359e-05
5.18106e-05
5.28787e-05
5.39302e-05
5.49546e-05
5.59422e-05
5.68842e-05
5.77728e-05
5.86108e-05
5.94184e-05
6.00772e-05
6.05902e-05
6.11578e-05
6.16722e-05
6.20305e-05
6.2313e-05
6.25008e-05
6.25924e-05
6.25826e-05
6.24661e-05
6.22366e-05
6.18872e-05
6.14107e-05
6.08001e-05
6.00496e-05
5.91557e-05
5.81192e-05
5.69468e-05
5.56541e-05
5.42667e-05
5.28214e-05
5.13641e-05
4.99448e-05
4.86079e-05
4.73776e-05
4.62413e-05
4.51302e-05
4.39005e-05
4.22566e-05
3.97001e-05
3.67445e-05
3.39127e-05
3.12925e-05
2.86726e-05
2.53254e-05
2.40643e-05
2.49523e-05
2.56436e-05
2.42471e-05
1.97889e-05
9.7336e-06
3.07679e-07
9.76244e-07
2.62342e-05
4.90671e-05
5.90969e-05
6.18049e-05
6.08769e-05
5.78001e-05
5.41189e-05
5.06316e-05
4.76185e-05
4.52004e-05
4.33828e-05
4.21014e-05
4.12682e-05
4.08247e-05
4.07256e-05
4.09179e-05
4.13451e-05
4.1956e-05
4.27066e-05
4.35599e-05
4.44889e-05
4.5476e-05
4.65098e-05
4.75836e-05
4.86917e-05
4.98278e-05
5.09838e-05
5.21501e-05
5.33155e-05
5.44682e-05
5.55966e-05
5.66896e-05
5.77374e-05
5.87316e-05
5.96651e-05
6.05324e-05
6.13766e-05
6.20851e-05
6.26036e-05
6.31801e-05
6.37275e-05
6.41068e-05
6.44102e-05
6.46216e-05
6.47397e-05
6.47603e-05
6.46785e-05
6.44881e-05
6.41819e-05
6.37512e-05
6.31868e-05
6.24791e-05
6.16198e-05
6.06028e-05
5.94271e-05
5.80992e-05
5.66364e-05
5.50692e-05
5.34425e-05
5.18134e-05
5.02443e-05
4.87901e-05
4.74806e-05
4.63014e-05
4.51752e-05
4.39464e-05
4.18267e-05
3.88118e-05
3.58988e-05
3.28924e-05
3.01003e-05
2.68609e-05
2.3548e-05
2.31804e-05
2.3504e-05
2.32646e-05
1.96769e-05
9.88507e-06
3.54242e-07
1.00664e-06
2.64962e-05
4.93737e-05
5.94291e-05
6.23034e-05
6.11203e-05
5.79098e-05
5.40214e-05
5.03643e-05
4.72813e-05
4.48785e-05
4.31255e-05
4.19309e-05
4.1205e-05
4.08885e-05
4.0923e-05
4.12424e-05
4.1784e-05
4.2496e-05
4.3336e-05
4.42712e-05
4.52798e-05
4.6348e-05
4.74672e-05
4.86309e-05
4.98322e-05
5.10622e-05
5.23102e-05
5.35636e-05
5.48091e-05
5.60336e-05
5.72245e-05
5.83709e-05
5.94634e-05
6.04939e-05
6.14562e-05
6.23448e-05
6.32056e-05
6.39604e-05
6.44711e-05
6.50396e-05
6.56106e-05
6.60016e-05
6.63166e-05
6.65432e-05
6.66805e-05
6.67258e-05
6.6675e-05
6.65229e-05
6.62624e-05
6.58845e-05
6.53787e-05
6.47329e-05
6.39346e-05
6.2972e-05
6.18361e-05
6.05238e-05
5.90412e-05
5.74084e-05
5.56623e-05
5.38579e-05
5.20658e-05
5.03612e-05
4.88067e-05
4.74281e-05
4.61886e-05
4.49663e-05
4.35333e-05
4.09336e-05
3.77725e-05
3.47582e-05
3.15137e-05
2.8518e-05
2.45476e-05
2.24509e-05
2.2437e-05
2.25469e-05
1.95611e-05
1.02621e-05
4.14632e-07
1.02682e-06
2.65931e-05
4.94279e-05
5.94771e-05
6.24687e-05
6.13833e-05
5.79286e-05
5.38611e-05
5.00754e-05
4.69518e-05
4.45817e-05
4.29023e-05
4.18031e-05
4.11927e-05
4.10042e-05
4.1165e-05
4.15995e-05
4.22433e-05
4.30459e-05
4.39682e-05
4.49822e-05
4.60701e-05
4.72211e-05
4.84273e-05
4.96812e-05
5.09733e-05
5.2292e-05
5.36235e-05
5.4953e-05
5.62657e-05
5.75478e-05
5.87869e-05
5.99724e-05
6.10957e-05
6.215e-05
6.31296e-05
6.40306e-05
6.48906e-05
6.56741e-05
6.61853e-05
6.67271e-05
6.7313e-05
6.77076e-05
6.80252e-05
6.82579e-05
6.8406e-05
6.84681e-05
6.84417e-05
6.83227e-05
6.81051e-05
6.77806e-05
6.73382e-05
6.67648e-05
6.60449e-05
6.51622e-05
6.41008e-05
6.28484e-05
6.13994e-05
5.97607e-05
5.7956e-05
5.60313e-05
5.40556e-05
5.21162e-05
5.03049e-05
4.86944e-05
4.731e-05
4.61015e-05
4.49214e-05
4.28514e-05
3.96912e-05
3.66291e-05
3.32715e-05
2.97436e-05
2.61209e-05
2.22343e-05
2.11696e-05
2.09449e-05
1.92326e-05
1.09115e-05
4.95904e-07
1.03679e-06
2.65216e-05
4.92253e-05
5.9404e-05
6.25971e-05
6.14091e-05
5.7857e-05
5.36581e-05
4.978e-05
4.66391e-05
4.43141e-05
4.27153e-05
4.17178e-05
4.12259e-05
4.11611e-05
4.14381e-05
4.19761e-05
4.27118e-05
4.35972e-05
4.45972e-05
4.56882e-05
4.68556e-05
4.80897e-05
4.93822e-05
5.07232e-05
5.21004e-05
5.34991e-05
5.49032e-05
5.62962e-05
5.76629e-05
5.89892e-05
6.02636e-05
6.14763e-05
6.26198e-05
6.36884e-05
6.46779e-05
6.55858e-05
6.64271e-05
6.72166e-05
6.77538e-05
6.82479e-05
6.88389e-05
6.9231e-05
6.95429e-05
6.97732e-05
6.99231e-05
6.99929e-05
6.9982e-05
6.98879e-05
6.97063e-05
6.94302e-05
6.90494e-05
6.85506e-05
6.79172e-05
6.71296e-05
6.6167e-05
6.50088e-05
6.36386e-05
6.20492e-05
6.02486e-05
5.82672e-05
5.61629e-05
5.40218e-05
5.19493e-05
5.00491e-05
4.83908e-05
4.69753e-05
4.57061e-05
4.43731e-05
4.16565e-05
3.83123e-05
3.50837e-05
3.15429e-05
2.76132e-05
2.3211e-05
2.08287e-05
1.95723e-05
1.87655e-05
1.15851e-05
5.97164e-07
1.03613e-06
2.63507e-05
4.89712e-05
5.91788e-05
6.25861e-05
6.13327e-05
5.77167e-05
5.34285e-05
4.94892e-05
4.63489e-05
4.40779e-05
4.25645e-05
4.16721e-05
4.12972e-05
4.13485e-05
4.17309e-05
4.23623e-05
4.31815e-05
4.41439e-05
4.52184e-05
4.63849e-05
4.7631e-05
4.89467e-05
5.0322e-05
5.17442e-05
5.31979e-05
5.4666e-05
5.61307e-05
5.75749e-05
5.89831e-05
6.03421e-05
6.16412e-05
6.28717e-05
6.40273e-05
6.5103e-05
6.60957e-05
6.7003e-05
6.78241e-05
6.86102e-05
6.91799e-05
6.96205e-05
7.02002e-05
7.05871e-05
7.08867e-05
7.11066e-05
7.12495e-05
7.13177e-05
7.13122e-05
7.12329e-05
7.10775e-05
7.08407e-05
7.05143e-05
7.00857e-05
6.95385e-05
6.88517e-05
6.8001e-05
6.69599e-05
6.57026e-05
6.42088e-05
6.247e-05
6.0498e-05
5.83334e-05
5.60522e-05
5.37639e-05
5.15968e-05
4.96678e-05
4.804e-05
4.66842e-05
4.54611e-05
4.33743e-05
4.00214e-05
3.6964e-05
3.30352e-05
2.90042e-05
2.46855e-05
2.07216e-05
1.90712e-05
1.83623e-05
1.22143e-05
7.14222e-07
1.03052e-06
2.60836e-05
4.85432e-05
5.87596e-05
6.23657e-05
6.11546e-05
5.75227e-05
5.31846e-05
4.92109e-05
4.60851e-05
4.38737e-05
4.24484e-05
4.16612e-05
4.13987e-05
4.15569e-05
4.20347e-05
4.27507e-05
4.36465e-05
4.46812e-05
4.58273e-05
4.70675e-05
4.83898e-05
4.97833e-05
5.12354e-05
5.27305e-05
5.42508e-05
5.57772e-05
5.72909e-05
5.87748e-05
6.0214e-05
6.15964e-05
6.29122e-05
6.41539e-05
6.53159e-05
6.6394e-05
6.73851e-05
6.82865e-05
6.90959e-05
6.98644e-05
7.04716e-05
7.08737e-05
7.14111e-05
7.17958e-05
7.20784e-05
7.22811e-05
7.24091e-05
7.24665e-05
7.24563e-05
7.23808e-05
7.22399e-05
7.20309e-05
7.17478e-05
7.138e-05
7.09122e-05
7.03236e-05
6.95884e-05
6.8676e-05
6.75535e-05
6.61896e-05
6.45599e-05
6.26566e-05
6.04983e-05
5.81415e-05
5.56856e-05
5.32673e-05
5.10346e-05
4.91025e-05
4.74994e-05
4.61236e-05
4.4729e-05
4.1811e-05
3.84e-05
3.50003e-05
3.06127e-05
2.60709e-05
2.09552e-05
1.8601e-05
1.7327e-05
1.28524e-05
8.33647e-07
1.01818e-06
2.57602e-05
4.78596e-05
5.82297e-05
6.20136e-05
6.08905e-05
5.72875e-05
5.2936e-05
4.89509e-05
4.58499e-05
4.37014e-05
4.23644e-05
4.16801e-05
4.15231e-05
4.17788e-05
4.23429e-05
4.31356e-05
4.41021e-05
4.52049e-05
4.64196e-05
4.77301e-05
4.91245e-05
5.05899e-05
5.2111e-05
5.36697e-05
5.5246e-05
5.68198e-05
5.8372e-05
5.9886e-05
6.13479e-05
6.27467e-05
6.40738e-05
6.53228e-05
6.64885e-05
6.75674e-05
6.85563e-05
6.94529e-05
7.02554e-05
7.09975e-05
7.16293e-05
7.20177e-05
7.24999e-05
7.28784e-05
7.31406e-05
7.33209e-05
7.34273e-05
7.34656e-05
7.34412e-05
7.33585e-05
7.32201e-05
7.30261e-05
7.27732e-05
7.24533e-05
7.20535e-05
7.15544e-05
7.093e-05
7.01482e-05
6.91712e-05
6.7959e-05
6.64739e-05
6.46893e-05
6.26005e-05
6.02394e-05
5.76864e-05
5.50739e-05
5.25715e-05
5.0346e-05
4.85009e-05
4.70198e-05
4.57343e-05
4.33165e-05
3.98098e-05
3.68754e-05
3.20246e-05
2.7375e-05
2.22747e-05
1.85187e-05
1.62305e-05
1.33277e-05
9.27944e-07
9.98999e-07
2.53419e-05
4.71083e-05
5.76076e-05
6.15459e-05
6.05534e-05
5.70211e-05
5.26897e-05
4.87134e-05
4.56447e-05
4.35599e-05
4.23096e-05
4.17235e-05
4.1664e-05
4.20081e-05
4.265e-05
4.35127e-05
4.45445e-05
4.5711e-05
4.69901e-05
4.83666e-05
4.98272e-05
5.13571e-05
5.29384e-05
5.45508e-05
5.61729e-05
5.77841e-05
5.93658e-05
6.09022e-05
6.23807e-05
6.37914e-05
6.51268e-05
6.63813e-05
6.75504e-05
6.86307e-05
6.96193e-05
7.0514e-05
7.13138e-05
7.20257e-05
7.26677e-05
7.30659e-05
7.34868e-05
7.38545e-05
7.40944e-05
7.42485e-05
7.43278e-05
7.43401e-05
7.4293e-05
7.41931e-05
7.40457e-05
7.38539e-05
7.36172e-05
7.33311e-05
7.29851e-05
7.25624e-05
7.20386e-05
7.13813e-05
7.05506e-05
6.95005e-05
6.81828e-05
6.65542e-05
6.45874e-05
6.22866e-05
5.97044e-05
5.69549e-05
5.42105e-05
5.167e-05
4.94969e-05
4.77438e-05
4.63028e-05
4.45654e-05
4.11257e-05
3.83077e-05
3.40026e-05
2.88274e-05
2.35885e-05
1.8938e-05
1.56331e-05
1.35139e-05
9.70541e-07
9.7407e-07
2.4821e-05
4.62463e-05
5.68901e-05
6.09842e-05
6.01557e-05
5.67317e-05
5.2451e-05
4.85008e-05
4.54698e-05
4.34478e-05
4.22806e-05
4.17864e-05
4.1816e-05
4.22397e-05
4.29518e-05
4.38781e-05
4.49697e-05
4.61951e-05
4.75337e-05
4.89703e-05
5.04902e-05
5.20762e-05
5.37084e-05
5.53647e-05
5.70232e-05
5.86633e-05
6.02671e-05
6.18202e-05
6.3311e-05
6.47309e-05
6.60734e-05
6.73335e-05
6.8507e-05
6.95905e-05
7.05808e-05
7.14751e-05
7.22712e-05
7.29668e-05
7.36118e-05
7.4024e-05
7.43862e-05
7.47396e-05
7.49561e-05
7.50816e-05
7.513e-05
7.51111e-05
7.50343e-05
7.49086e-05
7.4742e-05
7.45405e-05
7.43069e-05
7.40399e-05
7.37325e-05
7.33711e-05
7.29338e-05
7.23898e-05
7.16987e-05
7.08113e-05
6.96721e-05
6.82245e-05
6.64208e-05
6.42376e-05
6.16961e-05
5.88826e-05
5.59584e-05
5.31427e-05
5.06564e-05
4.86336e-05
4.70378e-05
4.56277e-05
4.26447e-05
3.95411e-05
3.59378e-05
3.00405e-05
2.46195e-05
1.89256e-05
1.57612e-05
1.35011e-05
9.7764e-07
9.44809e-07
2.42666e-05
4.52988e-05
5.60846e-05
6.03444e-05
5.97082e-05
5.64261e-05
5.22238e-05
4.83151e-05
4.53254e-05
4.33636e-05
4.22741e-05
4.18646e-05
4.19746e-05
4.24696e-05
4.32446e-05
4.42281e-05
4.5374e-05
4.66529e-05
4.80451e-05
4.9535e-05
5.11062e-05
5.27396e-05
5.44133e-05
5.61046e-05
5.77911e-05
5.94528e-05
6.1073e-05
6.26384e-05
6.41389e-05
6.55668e-05
6.69164e-05
6.81831e-05
6.93629e-05
7.0452e-05
7.14466e-05
7.23432e-05
7.31381e-05
7.3828e-05
7.44657e-05
7.48966e-05
7.52072e-05
7.55437e-05
7.57368e-05
7.58327e-05
7.58479e-05
7.57941e-05
7.56824e-05
7.55243e-05
7.53301e-05
7.51087e-05
7.48663e-05
7.46049e-05
7.43214e-05
7.40056e-05
7.36391e-05
7.31936e-05
7.26303e-05
7.18991e-05
7.09398e-05
6.96862e-05
6.80736e-05
6.60534e-05
6.36133e-05
6.08042e-05
5.77614e-05
5.47045e-05
5.18948e-05