/*--------------------------------*- C++ -*----------------------------------*\
  =========                 |
  \\      /  F ield         | OpenFOAM: The Open Source CFD Toolbox
   \\    /   O peration     | Website:  https://openfoam.org
    \\  /    A nd           | Version:  13
     \\/     M anipulation  |
\*---------------------------------------------------------------------------*/
FoamFile
{
    format      ascii;
    class       volScalarField;
    location    "7";
    object      p;
}
// * * * * * * * * * * * * * * * * * * * * * * * * * * * * * * * * * * * * * //

dimensions      [0 2 -2 0 0 0 0];

internalField   nonuniform List<scalar> 
6400
(
4.94281e-09
1.96585e-05
2.85829e-05
1.36871e-05
-3.02844e-05
-9.83272e-05
-0.000180838
-0.00026876
-0.00035583
-0.000438956
-0.000518784
-0.000599466
-0.000685656
-0.000782503
-0.000895117
-0.00102756
-0.00118278
-0.00136251
-0.00156799
-0.00179993
-0.00205877
-0.00234577
-0.00266372
-0.00301706
-0.00341213
-0.00385353
-0.00433725
-0.00485436
-0.00538363
-0.00588958
-0.00636647
-0.00682212
-0.00725441
-0.00766059
-0.00803553
-0.0083709
-0.00865568
-0.00887701
-0.00902128
-0.00907492
-0.00902498
-0.00886027
-0.00857234
-0.00815633
-0.00760922
-0.00692433
-0.00609501
-0.00513548
-0.00406208
-0.00288208
-0.00161531
-0.000282623
0.00108753
0.00246321
0.00380482
0.00506731
0.00620616
0.00717979
0.00794813
0.00847904
0.0087531
0.00876679
0.00853236
0.00807185
0.00744094
0.00669325
0.00589353
0.00510547
0.00438625
0.00376655
0.00328154
0.00294396
0.00272394
0.00259483
0.00253871
0.00253143
0.00255356
0.00258979
0.00262937
0.00265653
-1.48724e-05
5.19235e-06
9.54805e-06
-1.02882e-05
-5.71008e-05
-0.000125109
-0.000203775
-0.000284595
-0.000362628
-0.000436536
-0.000508309
-0.000581956
-0.000662291
-0.000753995
-0.000860904
-0.00098651
-0.00113412
-0.00130623
-0.00150355
-0.00172635
-0.0019737
-0.00224596
-0.00254611
-0.00287686
-0.00324124
-0.00364612
-0.00409917
-0.00459952
-0.00513405
-0.00567924
-0.00620659
-0.00670596
-0.00717931
-0.00762355
-0.00803309
-0.00839951
-0.00871193
-0.00895809
-0.00912511
-0.00920058
-0.00917269
-0.00903132
-0.00876862
-0.00837841
-0.00785546
-0.00719573
-0.00640732
-0.0054961
-0.00446324
-0.00332506
-0.00209951
-0.000809126
0.00051871
0.00185126
0.00315108
0.00437827
0.00549048
0.00644561
0.00720706
0.00774408
0.00803676
0.00808076
0.0078874
0.00748295
0.0069116
0.00622764
0.00549286
0.00476762
0.00410469
0.00354634
0.00311259
0.002811
0.00262916
0.00254288
0.00252718
0.00255631
0.00259903
0.00263754
0.00266991
0.00269567
-3.08584e-05
-8.54421e-06
-9.74743e-06
-3.86205e-05
-9.33866e-05
-0.000164011
-0.000238934
-0.000309995
-0.000374478
-0.000434022
-0.000492318
-0.000554241
-0.000624803
-0.000707773
-0.000805621
-0.000920134
-0.00105285
-0.001206
-0.00138183
-0.00158301
-0.00181308
-0.0020753
-0.00237386
-0.0027136
-0.00309885
-0.00353207
-0.0040138
-0.00454051
-0.00510188
-0.00568073
-0.00625718
-0.00681509
-0.00734493
-0.00784012
-0.00829384
-0.00869723
-0.0090403
-0.00931228
-0.00950177
-0.00959753
-0.00958947
-0.00946874
-0.00922806
-0.00886208
-0.00836841
-0.00774682
-0.00698977
-0.00611179
-0.00511922
-0.00402358
-0.00284106
-0.00159268
-0.000304378
0.000993167
0.00226499
0.0034732
0.00457625
0.00553279
0.0063069
0.00686887
0.00719828
0.00728846
0.00714998
0.00680822
0.00630465
0.00569236
0.00501958
0.00436102
0.00375766
0.00324843
0.00285835
0.00260232
0.0024685
0.00242925
0.00245087
0.00251076
0.00257945
0.00263724
0.0026845
0.00272153
-3.947e-05
-1.79903e-05
-2.65912e-05
-6.65591e-05
-0.000131424
-0.000205315
-0.000276717
-0.000339099
-0.000391054
-0.000434756
-0.000476314
-0.000522409
-0.000578532
-0.000648403
-0.000733779
-0.000835428
-0.000954667
-0.00109426
-0.00125804
-0.00145145
-0.00168143
-0.00195573
-0.0022818
-0.00266229
-0.0030996
-0.00359506
-0.00414495
-0.00473919
-0.00536238
-0.00599794
-0.00662942
-0.00724167
-0.00782224
-0.00836198
-0.00885263
-0.0092851
-0.00965067
-0.00993986
-0.0101428
-0.0102496
-0.0102519
-0.010142
-0.0099133
-0.00956142
-0.0090847
-0.00848225
-0.00775327
-0.00690307
-0.00593863
-0.00487093
-0.00371522
-0.00249116
-0.00122266
6.22532e-05
0.00133103
0.0025462
0.00366688
0.00465301
0.00546686
0.00607746
0.00646315
0.00661325
0.00653549
0.00625483
0.00580994
0.00524953
0.00462883
0.00400965
0.00344166
0.00296406
0.00260144
0.00236535
0.00224853
0.00223522
0.00229692
0.00239222
0.00249279
0.00258087
0.00265207
0.0027015
-3.40084e-05
-1.97457e-05
-3.83597e-05
-8.97999e-05
-0.000164248
-0.000241122
-0.000309002
-0.000362806
-0.000402521
-0.000432363
-0.000459472
-0.000491419
-0.00053414
-0.000591301
-0.000665022
-0.000757082
-0.000870508
-0.00101094
-0.00118536
-0.00140174
-0.0016699
-0.00199537
-0.00238296
-0.00283714
-0.00335744
-0.00393818
-0.00456954
-0.00523727
-0.00592402
-0.00661366
-0.00729072
-0.00794277
-0.00855922
-0.00912964
-0.00964498
-0.0100967
-0.0104765
-0.0107758
-0.0109863
-0.0110997
-0.0111089
-0.0110075
-0.0107897
-0.0104514
-0.00999158
-0.00940964
-0.00870604
-0.00788321
-0.0069461
-0.00590467
-0.0047735
-0.0035709
-0.00231781
-0.00103836
0.000237762
0.00147261
0.00262514
0.0036583
0.00453372
0.00521721
0.00568503
0.00592225
0.0059302
0.00572856
0.00535663
0.00486066
0.00429467
0.00371644
0.00317907
0.00272399
0.00237849
0.00215369
0.00204664
0.00204127
0.00211311
0.00222865
0.0023547
0.00247028
0.00256404
0.00262269
-5.82364e-06
-5.26087e-06
-3.61813e-05
-0.000101349
-0.000184056
-0.000262143
-0.00032612
-0.000372371
-0.00040207
-0.000421198
-0.000438022
-0.000460556
-0.000494894
-0.000545351
-0.000615677
-0.000710196
-0.000835327
-0.000999739
-0.00121426
-0.00148606
-0.00182267
-0.00223144
-0.00271404
-0.00326766
-0.0038837
-0.00455046
-0.0052558
-0.00598602
-0.00672587
-0.00746026
-0.00817513
-0.00885885
-0.00950132
-0.0100931
-0.0106256
-0.0110904
-0.0114796
-0.0117858
-0.0120022
-0.0121214
-0.0121382
-0.0120481
-0.0118458
-0.0115275
-0.0110935
-0.0105419
-0.00987274
-0.00908768
-0.00819043
-0.00718816
-0.0060934
-0.00492194
-0.00369021
-0.00241834
-0.00113504
0.000120023
0.00130951
0.00240172
0.00335628
0.00413416
0.00471122
0.00506733
0.0051985
0.00511438
0.00484849
0.00444728
0.00396248
0.00344792
0.00295683
0.00253344
0.0022078
0.00199394
0.00189099
0.00188567
0.00195548
0.00207205
0.00220497
0.00233083
0.00243419
0.00249594
5.53115e-05
3.85494e-05
-8.41887e-06
-9.03874e-05
-0.000178447
-0.000256936
-0.000317748
-0.000358585
-0.000382561
-0.000396874
-0.000410389
-0.000431373
-0.000466563
-0.00052199
-0.000604348
-0.000721043
-0.00088228
-0.00109993
-0.00138222
-0.00173783
-0.00217332
-0.0026902
-0.00327998
-0.00393212
-0.00463665
-0.00538176
-0.00615381
-0.00693915
-0.00772418
-0.00849566
-0.00924121
-0.00995007
-0.0106126
-0.0112202
-0.0117648
-0.0122377
-0.0126314
-0.0129411
-0.0131615
-0.0132886
-0.0133179
-0.0132445
-0.0130641
-0.0127739
-0.0123729
-0.0118582
-0.0112303
-0.0104917
-0.00964754
-0.00870386
-0.00766678
-0.00654498
-0.00535282
-0.00411115
-0.00284594
-0.00158424
-0.000355666
0.00080564
0.00184996
0.00274158
0.00345534
0.00396338
0.00425671
0.00433593
0.00422337
0.00395889
0.00359246
0.00317532
0.00275811
0.00238631
0.0020929
0.00189529
0.00179589
0.00178614
0.00184554
0.00195024
0.00207331
0.00219147
0.00228919
0.00234566
0.000159479
0.000122342
5.38637e-05
-4.19654e-05
-0.000135529
-0.000215338
-0.000275079
-0.000314737
-0.000339176
-0.000356655
-0.000376484
-0.000407359
-0.000457354
-0.000535294
-0.000650798
-0.000815134
-0.00104033
-0.00133805
-0.00171647
-0.00218207
-0.00273178
-0.00335749
-0.00404885
-0.0047943
-0.00558105
-0.00639619
-0.00722664
-0.00805967
-0.00888298
-0.00968479
-0.0104542
-0.0111816
-0.0118575
-0.012473
-0.0130208
-0.0134942
-0.01389
-0.0142043
-0.0144325
-0.0145714
-0.0146154
-0.0145595
-0.0144003
-0.014135
-0.0137674
-0.0132921
-0.0127105
-0.0120256
-0.0112424
-0.0103655
-0.00939748
-0.0083433
-0.00721553
-0.00603166
-0.00481017
-0.0035687
-0.00232973
-0.00113383
-1.19823e-05
0.00100789
0.00187784
0.00256544
0.00305696
0.00334146
0.00343139
0.00335253
0.00314839
0.00286799
0.00255838
0.00226489
0.00202287
0.00185336
0.00176297
0.00174648
0.00178993
0.00187426
0.00197513
0.00207302
0.00215061
0.0021924
0.000311998
0.000254335
0.000161291
5.19615e-05
-4.82006e-05
-0.000130922
-0.000193293
-0.000237589
-0.000270493
-0.000301247
-0.000339652
-0.000395282
-0.000478263
-0.000600408
-0.000774694
-0.00101319
-0.00132884
-0.00173283
-0.0022281
-0.00281063
-0.00347344
-0.00420506
-0.0049925
-0.00582241
-0.00668178
-0.00755772
-0.00843804
-0.00931087
-0.0101649
-0.0109895
-0.0117749
-0.0125121
-0.0131916
-0.0138066
-0.0143528
-0.0148285
-0.015231
-0.0155533
-0.0157901
-0.0159363
-0.0159888
-0.015946
-0.015807
-0.0155711
-0.0152337
-0.0147987
-0.0142659
-0.0136365
-0.0129127
-0.0120975
-0.0111958
-0.0102143
-0.00916207
-0.0080515
-0.00689592
-0.005706
-0.00449635
-0.0032945
-0.00212221
-0.00101476
-1.03514e-05
0.000869762
0.00157899
0.00209977
0.00243287
0.00258871
0.00259418
0.00249288
0.00232796
0.00214253
0.00197474
0.00184956
0.00177803
0.00175958
0.00178542
0.00184227
0.00191271
0.00198138
0.00202836
0.00205124
0.000520162
0.000439806
0.000319543
0.000195233
8.59935e-05
-2.55728e-06
-7.24321e-05
-0.000128681
-0.000179811
-0.000236003
-0.000307744
-0.000405875
-0.000543047
-0.00073388
-0.000992027
-0.00132977
-0.00175907
-0.00228409
-0.00290081
-0.00360098
-0.00437321
-0.00520303
-0.00607702
-0.00698154
-0.00790386
-0.00883152
-0.00975296
-0.0106571
-0.0115335
-0.0123725
-0.0131654
-0.0139043
-0.0145837
-0.0151994
-0.0157465
-0.016221
-0.0166174
-0.0169318
-0.0171624
-0.0173074
-0.0173648
-0.0173332
-0.0172124
-0.0170022
-0.0166989
-0.0163047
-0.0158209
-0.0152484
-0.0145889
-0.0138443
-0.0130181
-0.0121149
-0.0111406
-0.0101021
-0.00900711
-0.00786734
-0.00670263
-0.00552811
-0.00435565
-0.00320474
-0.00210188
-0.00107677
-0.000169818
0.000602391
0.00120202
0.00162972
0.00189073
0.00201284
0.00203292
0.00198916
0.00192013
0.00185711
0.00181688
0.00180425
0.00181539
0.00184347
0.00187933
0.00191143
0.00192497
0.00192912
0.000786714
0.00067762
0.000529246
0.000384859
0.000264836
0.000165686
8.19636e-05
5.01596e-06
-7.56381e-05
-0.000171132
-0.000292738
-0.000453146
-0.000667144
-0.00094988
-0.00131438
-0.00177124
-0.0023261
-0.00297713
-0.00371529
-0.00452792
-0.00540101
-0.00631976
-0.00727045
-0.00823968
-0.00921499
-0.0101844
-0.0111371
-0.0120626
-0.0129518
-0.0137962
-0.0145885
-0.0153227
-0.0159942
-0.0165988
-0.017133
-0.0175937
-0.0179775
-0.0182821
-0.0185064
-0.0186494
-0.0187098
-0.0186871
-0.0185811
-0.0183917
-0.0181178
-0.0177603
-0.0173205
-0.0167996
-0.0161992
-0.0155213
-0.0147683
-0.0139437
-0.0130512
-0.0120947
-0.0110786
-0.0100094
-0.00889656
-0.00775035
-0.00658665
-0.00542726
-0.00428312
-0.00316811
-0.0021033
-0.00112436
-0.00026218
0.000449504
0.000997955
0.00138601
0.00163374
0.00177082
0.0018306
0.00184856
0.00185218
0.0018538
0.00185655
0.00185846
0.00185924
0.00185242
0.00183441
0.00182222
0.00109985
0.000961627
0.000778727
0.000611353
0.000476857
0.00036325
0.000258644
0.000151199
2.86855e-05
-0.000120823
-0.000309803
-0.000552253
-0.00086361
-0.00125787
-0.00174547
-0.0023323
-0.0030179
-0.00379409
-0.00464768
-0.00556429
-0.00652865
-0.0075261
-0.00854284
-0.00956573
-0.0105826
-0.0115822
-0.0125543
-0.0134897
-0.0143805
-0.0152198
-0.0160019
-0.0167221
-0.0173769
-0.0179633
-0.0184791
-0.0189224
-0.0192912
-0.0195842
-0.0198007
-0.01994
-0.0200015
-0.0199852
-0.0198911
-0.0197194
-0.0194703
-0.0191445
-0.0187431
-0.0182676
-0.0177195
-0.0171006
-0.0164131
-0.0156594
-0.0148423
-0.0139641
-0.0130279
-0.0120371
-0.0109954
-0.00990718
-0.00877908
-0.00762094
-0.0064467
-0.00528106
-0.00412637
-0.00299843
-0.00192551
-0.000951517
-0.000111562
0.000569719
0.00108538
0.00144567
0.00167357
0.00179932
0.00186032
0.00188401
0.00188331
0.00186415
0.00183311
0.00179108
0.00174689
0.00172073
0.00144563
0.00127675
0.00105485
0.00086165
0.000709103
0.000575136
0.000441573
0.000293207
0.000116277
-0.000102085
-0.000374825
-0.000716858
-0.00114236
-0.00166225
-0.00228269
-0.00300379
-0.00381843
-0.00471361
-0.00567418
-0.00668469
-0.00772954
-0.00879417
-0.00986487
-0.0109289
-0.0119746
-0.0129916
-0.013971
-0.0149049
-0.0157871
-0.0166122
-0.0173762
-0.018076
-0.0187092
-0.019274
-0.019769
-0.0201932
-0.0205456
-0.0208257
-0.0210331
-0.0211675
-0.0212288
-0.0212171
-0.0211328
-0.0209763
-0.0207483
-0.0204496
-0.0200814
-0.0196452
-0.0191425
-0.0185751
-0.0179447
-0.0172534
-0.016503
-0.0156953
-0.0148318
-0.0139143
-0.0129441
-0.0119226
-0.0108512
-0.00973186
-0.00856816
-0.00736926
-0.00615027
-0.00493044
-0.0037169
-0.00253871
-0.00143837
-0.00046473
0.000344009
0.000966949
0.0014062
0.00167998
0.00182204
0.00187773
0.00187786
0.00184164
0.00178428
0.00171411
0.00165098
0.00161613
0.00180638
0.001604
0.00134067
0.00111757
0.000942689
0.0007821
0.000611221
0.000411659
0.000168313
-0.000131888
-0.000502898
-0.000958632
-0.00151016
-0.0021641
-0.00292055
-0.00377331
-0.00471014
-0.00571522
-0.00677224
-0.00786508
-0.00897816
-0.0100971
-0.0112084
-0.0123001
-0.0133616
-0.0143839
-0.0153594
-0.0162823
-0.0171478
-0.0179523
-0.0186934
-0.0193691
-0.0199782
-0.0205199
-0.0209935
-0.0213985
-0.0217345
-0.0220017
-0.0221999
-0.0223291
-0.0223895
-0.0223814
-0.0223054
-0.022162
-0.0219521
-0.0216767
-0.021337
-0.0209345
-0.0204706
-0.0199471
-0.0193657
-0.0187281
-0.0180356
-0.0172894
-0.0164905
-0.0156391
-0.0147351
-0.0137779
-0.0127665
-0.0116992
-0.0105747
-0.00939234
-0.0081543
-0.00687121
-0.00556519
-0.0042489
-0.0029477
-0.00171833
-0.000619629
0.000292103
0.000982787
0.00145036
0.00171426
0.00182218
0.00183159
0.00178136
0.00170192
0.00161024
0.00153509
0.00149509
0.00215777
0.00192048
0.00161249
0.0013575
0.00115614
0.000962695
0.000746408
0.000486475
0.000166779
-0.00022674
-0.000707676
-0.00128681
-0.00197113
-0.00276067
-0.00364971
-0.00462673
-0.00567578
-0.00677938
-0.00792048
-0.00908263
-0.0102504
-0.0114097
-0.012548
-0.0136544
-0.0147197
-0.0157366
-0.0166995
-0.0176042
-0.0184477
-0.0192279
-0.0199436
-0.0205939
-0.0211785
-0.0216972
-0.0221499
-0.0225367
-0.0228576
-0.0231128
-0.0233026
-0.0234271
-0.0234867
-0.0234818
-0.0234131
-0.0232811
-0.0230869
-0.0228315
-0.0225161
-0.0221422
-0.0217113
-0.0212251
-0.020685
-0.0200926
-0.0194492
-0.0187557
-0.0180123
-0.0172189
-0.0163743
-0.0154766
-0.014523
-0.0135098
-0.0124327
-0.0112873
-0.0100703
-0.0087812
-0.00742534
-0.00601654
-0.0045833
-0.00315734
-0.00180676
-0.000607317
0.000365426
0.00106939
0.00150525
0.00170502
0.00173953
0.00168209
0.0015827
0.00147262
0.00138994
0.0013457
0.00247317
0.00220113
0.00184802
0.00155912
0.00132709
0.00109451
0.000825787
0.000498068
9.37182e-05
-0.000402306
-0.00100046
-0.00170762
-0.00252446
-0.00344525
-0.00445891
-0.00554946
-0.00669846
-0.00788744
-0.00909885
-0.0103162
-0.0115245
-0.0127105
-0.0138629
-0.0149722
-0.0160314
-0.0170348
-0.0179788
-0.0188609
-0.0196794
-0.0204337
-0.0211234
-0.0217487
-0.0223098
-0.0228069
-0.0232405
-0.0236109
-0.0239183
-0.0241631
-0.0243456
-0.0244664
-0.0245256
-0.0245238
-0.0244616
-0.0243399
-0.0241594
-0.0239213
-0.0236268
-0.0232773
-0.0228743
-0.0224193
-0.0219138
-0.0213593
-0.0207569
-0.0201074
-0.0194109
-0.0186669
-0.0178739
-0.0170294
-0.0161295
-0.0151691
-0.0141421
-0.0130415
-0.0118605
-0.0105933
-0.00923717
-0.00779449
-0.00628013
-0.0047267
-0.00318387
-0.00173333
-0.000473757
0.000505084
0.00116007
0.00150368
0.0015982
0.00154545
0.0014288
0.00130137
0.00121069
0.00115917
0.00273094
0.00242179
0.00202445
0.00170011
0.00143318
0.00115618
0.000830064
0.000429167
-6.6988e-05
-0.000670629
-0.00138819
-0.00222164
-0.00316555
-0.00420901
-0.0053359
-0.00652687
-0.0077619
-0.00902185
-0.010289
-0.0115472
-0.0127822
-0.0139821
-0.0151372
-0.0162401
-0.0172854
-0.0182698
-0.019191
-0.0200481
-0.0208408
-0.0215692
-0.022234
-0.0228358
-0.0233752
-0.0238529
-0.0242696
-0.0246256
-0.0249215
-0.0251576
-0.0253344
-0.0254522
-0.0255116
-0.025513
-0.025457
-0.0253445
-0.0251762
-0.0249533
-0.0246768
-0.0243482
-0.0239687
-0.02354
-0.0230634
-0.0225403
-0.0219719
-0.0213588
-0.0207013
-0.0199986
-0.0192494
-0.0184508
-0.0175986
-0.0166874
-0.01571
-0.0146578
-0.0135216
-0.0122918
-0.0109604
-0.00952347
-0.00798436
-0.00636091
-0.00469394
-0.00305258
-0.00153915
-0.000273358
0.000647087
0.00118892
0.00139376
0.0013704
0.00124456
0.00109887
0.00099323
0.000928602
0.00289915
0.002559
0.00212047
0.00176015
0.00145505
0.00113056
0.000743463
0.000264178
-0.000326242
-0.00103716
-0.0018718
-0.00282531
-0.00388727
-0.00504154
-0.00626788
-0.00754462
-0.00885066
-0.0101666
-0.0114748
-0.0127598
-0.0140089
-0.0152116
-0.0163603
-0.0174495
-0.0184759
-0.0194378
-0.0203344
-0.021166
-0.0219333
-0.0226373
-0.0232789
-0.0238593
-0.0243794
-0.0248401
-0.0252421
-0.025586
-0.0258723
-0.0261014
-0.0262738
-0.0263898
-0.0264499
-0.0264547
-0.0264047
-0.0263006
-0.0261433
-0.0259337
-0.0256729
-0.0253622
-0.0250028
-0.0245963
-0.0241439
-0.023647
-0.0231066
-0.0225235
-0.0218979
-0.0212294
-0.0205166
-0.0197567
-0.0189459
-0.0180785
-0.0171472
-0.0161428
-0.0150548
-0.0138715
-0.0125812
-0.0111745
-0.00964699
-0.00800467
-0.00627293
-0.00450777
-0.00280016
-0.00127253
-6.43205e-05
0.000727092
0.00110255
0.0011517
0.00102896
0.000864461
0.000732848
0.000650752
0.00296304
0.00259518
0.0021189
0.00172286
0.00137816
0.00100439
0.000553455
-5.34747e-06
-0.000688661
-0.00150363
-0.00244819
-0.00351239
-0.00468037
-0.00593132
-0.00724191
-0.00858887
-0.00995055
-0.0113075
-0.0126427
-0.013942
-0.0151941
-0.0163906
-0.0175259
-0.0185965
-0.0196008
-0.0205385
-0.0214103
-0.0222171
-0.0229605
-0.0236418
-0.0242626
-0.0248241
-0.0253274
-0.0257735
-0.0261631
-0.0264968
-0.0267753
-0.026999
-0.0271681
-0.0272832
-0.0273447
-0.027353
-0.0273087
-0.0272124
-0.027065
-0.0268673
-0.0266203
-0.0263252
-0.0259832
-0.0255955
-0.0251636
-0.0246885
-0.0241713
-0.023613
-0.0230136
-0.0223731
-0.0216902
-0.0209627
-0.0201869
-0.0193576
-0.0184677
-0.0175081
-0.0164679
-0.0153344
-0.0140938
-0.012733
-0.0112419
-0.00961686
-0.00786871
-0.0060369
-0.00420117
-0.00246887
-0.000984467
9.50883e-05
0.000694137
0.00086789
0.000776579
0.000594415
0.000425175
0.000324628
0.00290781
0.00251686
0.00200764
0.00157749
0.00119305
0.000768377
0.000252853
-0.000382563
-0.00115432
-0.0020665
-0.00311146
-0.00427427
-0.00553406
-0.00686621
-0.00824516
-0.00964666
-0.0110489
-0.0124327
-0.0137822
-0.0150847
-0.0163309
-0.0175143
-0.0186313
-0.0196802
-0.0206608
-0.0215742
-0.0224217
-0.0232052
-0.0239265
-0.0245876
-0.0251898
-0.0257348
-0.0262237
-0.0266573
-0.0270366
-0.0273622
-0.0276344
-0.0278539
-0.0280209
-0.0281357
-0.0281989
-0.0282109
-0.0281721
-0.0280832
-0.0279448
-0.0277578
-0.0275231
-0.0272417
-0.0269147
-0.0265433
-0.0261288
-0.0256721
-0.0251745
-0.0246366
-0.0240589
-0.0234413
-0.022783
-0.0220821
-0.0213356
-0.0205388
-0.0196852
-0.0187663
-0.0177713
-0.0166873
-0.0154998
-0.0141932
-0.0127537
-0.011171
-0.00944348
-0.0075915
-0.00568158
-0.00381086
-0.00210116
-0.000733496
0.000138523
0.000498041
0.000475509
0.000279576
6.64929e-05
-5.10506e-05
0.00272471
0.00231619
0.00177983
0.00131822
0.000894149
0.000419062
-0.000157809
-0.00086549
-0.00171944
-0.0027192
-0.00385277
-0.00510026
-0.00643646
-0.00783383
-0.00926531
-0.0107061
-0.0121346
-0.0135325
-0.0148853
-0.016182
-0.0174152
-0.0185805
-0.0196761
-0.0207016
-0.0216583
-0.0225479
-0.0233725
-0.0241345
-0.024836
-0.0254789
-0.026065
-0.0265957
-0.0270723
-0.0274955
-0.0278663
-0.0281851
-0.0284525
-0.0286688
-0.0288344
-0.0289497
-0.0290149
-0.0290305
-0.028997
-0.0289149
-0.0287849
-0.0286076
-0.0283838
-0.0281146
-0.0278009
-0.0274438
-0.0270443
-0.0266035
-0.0261224
-0.0256017
-0.0250421
-0.0244435
-0.0238055
-0.0231266
-0.0224043
-0.0216349
-0.0208125
-0.0199296
-0.018976
-0.0179394
-0.0168048
-0.0155558
-0.014176
-0.0126515
-0.010972
-0.00913835
-0.00719087
-0.00524199
-0.00337469
-0.00175243
-0.000585884
1.03216e-05
0.000102854
-8.7575e-05
-0.000342714
-0.000476058
0.00241125
0.00199113
0.00143406
0.00094422
0.000482099
-4.09274e-05
-0.00067465
-0.00144825
-0.00237554
-0.00345193
-0.00466095
-0.00597826
-0.00737517
-0.00882202
-0.0102908
-0.0117568
-0.0131987
-0.0145996
-0.0159463
-0.01723
-0.0184452
-0.0195891
-0.0206614
-0.0216632
-0.0225963
-0.0234633
-0.0242667
-0.0250091
-0.0256928
-0.0263198
-0.0268919
-0.0274104
-0.0278764
-0.0282909
-0.0286546
-0.028968
-0.0292315
-0.0294456
-0.0296105
-0.0297265
-0.0297939
-0.0298132
-0.0297848
-0.0297091
-0.0295867
-0.0294183
-0.0292045
-0.0289462
-0.0286443
-0.0282997
-0.0279134
-0.0274864
-0.0270196
-0.0265138
-0.0259695
-0.0253869
-0.0247658
-0.0241052
-0.0234033
-0.0226568
-0.0218611
-0.0210095
-0.020093
-0.0191
-0.0180162
-0.0168248
-0.0155079
-0.0140489
-0.0124337
-0.0106509
-0.00870774
-0.00670718
-0.00475081
-0.00293928
-0.00149673
-0.000625316
-0.000359252
-0.000516925
-0.000800903
-0.000950618
0.00197064
0.00154515
0.000973888
0.000459508
-3.78129e-05
-0.000604268
-0.00128914
-0.00212146
-0.00311193
-0.00425276
-0.00552332
-0.00689545
-0.00833775
-0.00981914
-0.0113112
-0.0127895
-0.0142337
-0.0156282
-0.0169617
-0.0182271
-0.0194206
-0.0205411
-0.0215895
-0.0225676
-0.0234782
-0.024324
-0.025108
-0.0258328
-0.0265007
-0.0271137
-0.0276735
-0.0281814
-0.0286386
-0.0290457
-0.0294035
-0.0297125
-0.029973
-0.0301854
-0.03035
-0.0304671
-0.0305369
-0.0305598
-0.0305361
-0.0304664
-0.0303511
-0.0301908
-0.0299861
-0.0297377
-0.0294464
-0.0291131
-0.0287386
-0.0283239
-0.0278696
-0.0273767
-0.0268456
-0.0262768
-0.0256702
-0.0250252
-0.0243403
-0.0236133
-0.0228403
-0.0220158
-0.0211319
-0.0201784
-0.0191419
-0.0180061
-0.0167524
-0.0153619
-0.0138181
-0.012105
-0.010213
-0.00818029
-0.00617811
-0.00424889
-0.00257514
-0.00141992
-0.000935453
-0.00102391
-0.00130719
-0.00147967
0.00141105
0.00098644
0.00040709
-0.000127274
-0.000655709
-0.00126063
-0.00199024
-0.00287248
-0.00391551
-0.00510823
-0.00642642
-0.00783885
-0.00931214
-0.0108144
-0.0123172
-0.0137967
-0.0152338
-0.0166144
-0.0179291
-0.0191724
-0.0203421
-0.0214382
-0.0224626
-0.0234179
-0.0243072
-0.0251334
-0.0258997
-0.0266086
-0.0272625
-0.0278632
-0.0284123
-0.0289111
-0.0293605
-0.0297614
-0.0301143
-0.0304196
-0.0306777
-0.030889
-0.0310536
-0.0311719
-0.031244
-0.0312704
-0.0312513
-0.0311872
-0.0310784
-0.0309256
-0.0307292
-0.0304898
-0.0302082
-0.0298852
-0.0295213
-0.0291176
-0.0286746
-0.0281932
-0.0276739
-0.0271172
-0.0265232
-0.0258916
-0.0252216
-0.0245113
-0.0237578
-0.0229567
-0.0221015
-0.0211832
-0.0201899
-0.0191062
-0.0179139
-0.0165925
-0.0151235
-0.0134893
-0.0116693
-0.00965929
-0.00761633
-0.00563215
-0.00379497
-0.00238152
-0.00164715
-0.0016063
-0.0018668
-0.00207417
0.000744652
0.000327215
-0.000254059
-0.000803634
-0.00135834
-0.00199633
-0.002764
-0.00368722
-0.0047719
-0.00600409
-0.00735658
-0.00879577
-0.010287
-0.0117979
-0.0133005
-0.014772
-0.0161945
-0.0175557
-0.0188475
-0.0200662
-0.0212108
-0.0222824
-0.0232834
-0.0242169
-0.0250861
-0.0258944
-0.0266445
-0.0273391
-0.0279804
-0.0285702
-0.0291099
-0.0296008
-0.0300436
-0.030439
-0.0307877
-0.03109
-0.0313462
-0.0315566
-0.0317215
-0.031841
-0.0319155
-0.0319452
-0.0319304
-0.0318714
-0.0317688
-0.0316228
-0.031434
-0.031203
-0.0309303
-0.0306166
-0.0302625
-0.0298688
-0.0294362
-0.0289652
-0.0284566
-0.0279108
-0.0273281
-0.0267085
-0.0260514
-0.0253558
-0.0246194
-0.0238388
-0.0230087
-0.0221217
-0.0211673
-0.0201317
-0.0189973
-0.0177437
-0.0163498
-0.0147971
-0.0130634
-0.0111293
-0.00905095
-0.00704574
-0.00512085
-0.0035018
-0.0025115
-0.00228223
-0.0024975
-0.00275121
-1.16926e-05
-0.000417874
-0.000994699
-0.00155474
-0.00213128
-0.00279687
-0.00359514
-0.00455033
-0.00566607
-0.00692597
-0.00830045
-0.0097542
-0.0112518
-0.0127609
-0.0142544
-0.0157104
-0.0171126
-0.01845
-0.0197164
-0.0209092
-0.0220283
-0.0230756
-0.024054
-0.0249669
-0.0258175
-0.0266091
-0.0273446
-0.0280263
-0.0286563
-0.0292364
-0.0297678
-0.0302516
-0.0306885
-0.0310793
-0.0314243
-0.031724
-0.0319786
-0.0321884
-0.0323536
-0.0324744
-0.0325511
-0.0325839
-0.0325731
-0.032519
-0.032422
-0.0322824
-0.0321007
-0.0318773
-0.0316128
-0.0313078
-0.0309627
-0.0305783
-0.0301552
-0.0296939
-0.0291951
-0.0286594
-0.0280871
-0.0274784
-0.0268331
-0.0261505
-0.0254293
-0.0246669
-0.0238591
-0.0229999
-0.0220805
-0.0210886
-0.0200083
-0.0188196
-0.0175002
-0.0160304
-0.0143901
-0.012548
-0.0104872
-0.00845944
-0.00650972
-0.0047527
-0.00353028
-0.0030851
-0.00321637
-0.00353197
-0.000839236
-0.00123175
-0.00179923
-0.00236544
-0.00295887
-0.00364618
-0.00446776
-0.00544622
-0.00658305
-0.00785986
-0.00924532
-0.010703
-0.0121971
-0.0136959
-0.015173
-0.0166078
-0.0179854
-0.0192964
-0.0205358
-0.0217019
-0.0227958
-0.0238195
-0.0247764
-0.0256699
-0.0265032
-0.0272796
-0.0280016
-0.0286716
-0.0292915
-0.0298628
-0.0303867
-0.0308641
-0.0312959
-0.0316824
-0.0320242
-0.0323216
-0.0325749
-0.0327842
-0.0329498
-0.0330719
-0.0331506
-0.0331864
-0.0331793
-0.0331296
-0.0330378
-0.0329041
-0.0327289
-0.0325127
-0.0322558
-0.0319588
-0.0316221
-0.0312464
-0.0308322
-0.03038
-0.0298905
-0.0293642
-0.0288015
-0.028203
-0.0275686
-0.0268981
-0.0261906
-0.0254445
-0.0246567
-0.0238224
-0.0229344
-0.0219821
-0.0209514
-0.0198235
-0.0185764
-0.0171879
-0.0156376
-0.0138949
-0.0119289
-0.00986846
-0.00792564
-0.00610529
-0.00469823
-0.00403227
-0.00404037
-0.00444442
-0.00171996
-0.00209658
-0.00265082
-0.00321885
-0.00382423
-0.00452749
-0.00536566
-0.00635941
-0.00750833
-0.00879251
-0.0101794
-0.011632
-0.0131147
-0.0145963
-0.0160515
-0.0174609
-0.0188111
-0.020094
-0.0213057
-0.0224454
-0.0235145
-0.0245157
-0.0254522
-0.0263275
-0.0271448
-0.027907
-0.0286167
-0.029276
-0.0298867
-0.03045
-0.0309671
-0.0314389
-0.0318659
-0.0322487
-0.0325876
-0.0328829
-0.0331349
-0.0333438
-0.0335098
-0.0336331
-0.0337138
-0.0337522
-0.0337485
-0.033703
-0.033616
-0.0334877
-0.0333186
-0.0331089
-0.0328591
-0.0325696
-0.0322408
-0.0318732
-0.0314674
-0.0310238
-0.0305431
-0.0300257
-0.0294724
-0.0288834
-0.0282593
-0.0276
-0.0269053
-0.0261741
-0.0254044
-0.0245926
-0.0237329
-0.0228166
-0.0218313
-0.0207601
-0.0195818
-0.0182726
-0.0168111
-0.0151726
-0.0133222
-0.011268
-0.00934398
-0.0075251
-0.0059972
-0.00512322
-0.00499568
-0.00550034
-0.00263562
-0.00299441
-0.00353201
-0.00409764
-0.00471043
-0.0054244
-0.00627313
-0.00727507
-0.00842825
-0.00971165
-0.0110921
-0.0125323
-0.0139972
-0.0154564
-0.0168857
-0.018267
-0.0195882
-0.0208423
-0.0220263
-0.0231401
-0.0241854
-0.0251651
-0.0260825
-0.0269408
-0.0277432
-0.0284924
-0.0291908
-0.0298403
-0.0304424
-0.0309985
-0.0315094
-0.031976
-0.0323987
-0.032778
-0.0331143
-0.0334077
-0.0336586
-0.0338671
-0.0340335
-0.0341578
-0.0342403
-0.0342811
-0.0342806
-0.0342388
-0.0341562
-0.034033
-0.0338694
-0.0336658
-0.0334226
-0.0331401
-0.0328186
-0.0324588
-0.0320609
-0.0316255
-0.0311531
-0.0306444
-0.0300999
-0.0295202
-0.0289059
-0.0282573
-0.0275746
-0.0268573
-0.0261042
-0.0253128
-0.0244788
-0.0235951
-0.0226512
-0.0216321
-0.0205181
-0.0192857
-0.0179135
-0.0163802
-0.0146444
-0.0126637
-0.0107364
-0.00895998
-0.00738012
-0.00633994
-0.00610235
-0.00668296
-0.00356852
-0.00390738
-0.00442545
-0.00498533
-0.00560148
-0.00632145
-0.00717538
-0.00817945
-0.00933027
-0.0106062
-0.0119738
-0.013396
-0.0148384
-0.0162716
-0.0176723
-0.019024
-0.0203156
-0.021541
-0.0226979
-0.0237867
-0.0248093
-0.0257687
-0.0266681
-0.0275106
-0.0282992
-0.0290364
-0.0297243
-0.0303648
-0.0309591
-0.0315085
-0.0320137
-0.0324754
-0.0328942
-0.0332703
-0.0336041
-0.0338958
-0.0341457
-0.0343538
-0.0345204
-0.0346457
-0.0347298
-0.0347728
-0.0347751
-0.0347368
-0.0346582
-0.0345396
-0.0343811
-0.0341832
-0.033946
-0.03367
-0.0333555
-0.0330028
-0.0326125
-0.0321849
-0.0317206
-0.0312202
-0.0306842
-0.0301135
-0.0295086
-0.0288703
-0.0281989
-0.0274947
-0.026757
-0.0259845
-0.0251739
-0.0243198
-0.0234135
-0.0224422
-0.0213879
-0.0202283
-0.0189403
-0.017503
-0.0158817
-0.0140365
-0.0121031
-0.0103778
-0.00879754
-0.007649
-0.0073465
-0.00796125
-0.00450134
-0.00481854
-0.00531478
-0.00586625
-0.00648234
-0.00720427
-0.00805886
-0.00906002
-0.0102032
-0.0114663
-0.0128161
-0.0142163
-0.0156329
-0.0170377
-0.0184087
-0.0197302
-0.0209922
-0.0221895
-0.0233203
-0.0243853
-0.0253865
-0.026327
-0.0272096
-0.0280375
-0.0288133
-0.0295393
-0.0302176
-0.0308497
-0.0314368
-0.03198
-0.0324799
-0.0329372
-0.0333523
-0.0337254
-0.034057
-0.0343471
-0.0345959
-0.0348037
-0.0349705
-0.0350965
-0.035182
-0.035227
-0.0352319
-0.0351967
-0.0351218
-0.0350073
-0.0348535
-0.0346607
-0.0344292
-0.0341592
-0.0338511
-0.0335053
-0.0331221
-0.0327019
-0.0322453
-0.0317529
-0.0312252
-0.0306632
-0.0300675
-0.029439
-0.0287786
-0.0280867
-0.0273635
-0.0266083
-0.0258192
-0.0249922
-0.0241202
-0.0231925
-0.0221933
-0.0211018
-0.0198942
-0.0185493
-0.0170416
-0.0153357
-0.0134335
-0.0117519
-0.010209
-0.00900829
-0.00866605
-0.00925766
-0.00541805
-0.00571241
-0.00618529
-0.00672608
-0.00733927
-0.00805984
-0.00891139
-0.00990568
-0.0110372
-0.0122833
-0.013612
-0.0149873
-0.0163763
-0.0177516
-0.0190923
-0.0203839
-0.0216172
-0.0227875
-0.0238935
-0.0249361
-0.0259174
-0.0268401
-0.0277072
-0.0285215
-0.0292855
-0.0300013
-0.0306707
-0.0312951
-0.0318756
-0.032413
-0.032908
-0.0333612
-0.0337728
-0.0341432
-0.0344726
-0.0347612
-0.0350091
-0.0352164
-0.0353834
-0.0355101
-0.0355968
-0.0356436
-0.0356507
-0.0356183
-0.0355467
-0.0354359
-0.0352864
-0.0350983
-0.0348719
-0.0346075
-0.0343054
-0.0339659
-0.0335894
-0.0331762
-0.032727
-0.0322422
-0.0317225
-0.0311689
-0.0305821
-0.0299632
-0.0293132
-0.0286331
-0.0279235
-0.0271845
-0.0264152
-0.0256128
-0.024772
-0.023884
-0.022935
-0.0219061
-0.0207745
-0.0195195
-0.0181208
-0.0165366
-0.0147313
-0.0130678
-0.0115712
-0.010362
-0.00997099
-0.0104608
-0.00630338
-0.00657501
-0.0070236
-0.00755198
-0.00815999
-0.00887657
-0.00972219
-0.0107066
-0.0118237
-0.0130502
-0.014355
-0.0157041
-0.0170646
-0.0184103
-0.0197213
-0.0209839
-0.0221897
-0.0233345
-0.0244173
-0.025439
-0.0264018
-0.0273082
-0.028161
-0.0289628
-0.029716
-0.0304223
-0.0310835