/*--------------------------------*- C++ -*----------------------------------*\
  =========                 |
  \\      /  F ield         | OpenFOAM: The Open Source CFD Toolbox
   \\    /   O peration     | Website:  https://openfoam.org
    \\  /    A nd           | Version:  13
     \\/     M anipulation  |
\*---------------------------------------------------------------------------*/
FoamFile
{
    format      ascii;
    class       surfaceScalarField;
    location    "7";
    object      phi;
}
// * * * * * * * * * * * * * * * * * * * * * * * * * * * * * * * * * * * * * //

dimensions      [0 3 -1 0 0 0 0];

internalField   nonuniform List<scalar> 
12640
(
1.63032e-09
-1.63042e-09
1.51375e-08
-1.35072e-08
3.89398e-08
-2.38024e-08
6.64487e-08
-2.75089e-08
9.13175e-08
-2.48688e-08
1.09951e-07
-1.86338e-08
1.20991e-07
-1.10392e-08
1.25314e-07
-4.32353e-09
1.25209e-07
1.04762e-10
1.23004e-07
2.20549e-09
1.20682e-07
2.32209e-09
1.19524e-07
1.15794e-09
1.19941e-07
-4.1679e-10
1.21649e-07
-1.70816e-09
1.23813e-07
-2.16459e-09
1.25506e-07
-1.69233e-09
1.25853e-07
-3.47338e-10
1.24328e-07
1.52534e-09
1.20106e-07
4.22153e-09
1.12292e-07
7.81362e-09
1.00307e-07
1.1985e-08
8.35771e-08
1.67303e-08
6.16546e-08
2.19225e-08
3.43563e-08
2.72982e-08
1.65383e-09
3.27025e-08
-3.66391e-08
3.82929e-08
-8.18142e-08
4.51751e-08
-1.36239e-07
5.44246e-08
-2.02805e-07
6.65657e-08
-2.83825e-07
8.10204e-08
-3.78383e-07
9.45584e-08
-4.82929e-07
1.04545e-07
-5.94008e-07
1.11079e-07
-7.08208e-07
1.142e-07
-8.22556e-07
1.14348e-07
-9.34445e-07
1.11889e-07
-1.04174e-06
1.07295e-07
-1.14271e-06
1.00966e-07
-1.23597e-06
9.32662e-08
-1.32047e-06
8.45006e-08
-1.39533e-06
7.48618e-08
-1.45986e-06
6.45268e-08
-1.51344e-06
5.35748e-08
-1.55549e-06
4.2057e-08
-1.58542e-06
2.99279e-08
-1.60286e-06
1.74355e-08
-1.60815e-06
5.29135e-09
-1.59927e-06
-8.88035e-09
-1.57699e-06
-2.22785e-08
-1.54029e-06
-3.67007e-08
-1.48919e-06
-5.10991e-08
-1.42352e-06
-6.56685e-08
-1.34355e-06
-7.99667e-08
-1.24973e-06
-9.38245e-08
-1.1427e-06
-1.07034e-07
-1.02333e-06
-1.19371e-07
-8.92992e-07
-1.30333e-07
-7.53478e-07
-1.39514e-07
-6.0712e-07
-1.46358e-07
-4.56769e-07
-1.50352e-07
-3.05882e-07
-1.50886e-07
-1.58284e-07
-1.47598e-07
-1.79785e-08
-1.40305e-07
1.11432e-07
-1.2941e-07
2.25455e-07
-1.14023e-07
3.20175e-07
-9.47204e-08
3.92133e-07
-7.19581e-08
4.38918e-07
-4.67853e-08
4.59175e-07
-2.02567e-08
4.51813e-07
7.36185e-09
4.19777e-07
3.20364e-08
3.65569e-07
5.42081e-08
2.95414e-07
7.01552e-08
2.18474e-07
7.69399e-08
1.46086e-07
7.2388e-08
8.55081e-08
6.05775e-08
4.05532e-08
4.49549e-08
1.1854e-08
2.86992e-08
-5.29461e-10
1.23834e-08
-5.29462e-10
1.04588e-08
-1.20892e-08
4.30533e-08
-4.61016e-08
8.82827e-08
-6.90318e-08
1.34529e-07
-7.37557e-08
1.7419e-07
-6.45295e-08
2.0346e-07
-4.79034e-08
2.21707e-07
-2.92864e-08
2.29923e-07
-1.25393e-08
2.29906e-07
1.21351e-10
2.24002e-07
8.11009e-09
2.14475e-07
1.18488e-08
2.02886e-07
1.2747e-08
1.89719e-07
1.27503e-08
1.74411e-07
1.35998e-08
1.55905e-07
1.63411e-08
1.33048e-07
2.1165e-08
1.0491e-07
2.77902e-08
7.02679e-08
3.61675e-08
2.78798e-08
4.66097e-08
-2.37508e-08
5.94442e-08
-8.66238e-08
7.4858e-08
-1.62547e-07
9.26536e-08
-2.5274e-07
1.12115e-07
-3.58036e-07
1.32594e-07
-4.78989e-07
1.53656e-07
-6.15345e-07
1.74649e-07
-7.64712e-07
1.94543e-07
-9.2293e-07
2.12642e-07
-1.08462e-06
2.2826e-07
-1.24392e-06
2.40317e-07
-1.39729e-06
2.47932e-07
-1.54375e-06
2.50999e-07
-1.68186e-06
2.49192e-07
-1.81038e-06
2.42719e-07
-1.9283e-06
2.32266e-07
-2.03496e-06
2.18555e-07
-2.1299e-06
2.02226e-07
-2.2128e-06
1.83875e-07
-2.28347e-06
1.6393e-07
-2.34176e-06
1.42789e-07
-2.38755e-06
1.2066e-07
-2.42075e-06
9.77249e-08
-2.44125e-06
7.4072e-08
-2.44898e-06
4.97924e-08
-2.44402e-06
2.49605e-08
-2.42535e-06
-1.23007e-09
-2.39357e-06
-2.64907e-08
-2.34886e-06
-5.35895e-08
-2.29012e-06
-8.10223e-08
-2.21783e-06
-1.08988e-07
-2.13169e-06
-1.37237e-07
-2.03175e-06
-1.65614e-07
-1.91793e-06
-1.93788e-07
-1.7904e-06
-2.21349e-07
-1.64969e-06
-2.47744e-07
-1.49689e-06
-2.72168e-07
-1.33329e-06
-2.93938e-07
-1.16067e-06
-3.12135e-07
-9.81366e-07
-3.2566e-07
-7.9805e-07
-3.33668e-07
-6.1373e-07
-3.35206e-07
-4.31833e-07
-3.29495e-07
-2.55992e-07
-3.16146e-07
-9.02559e-08
-2.95146e-07
6.21361e-08
-2.66415e-07
1.97856e-07
-2.30441e-07
3.13119e-07
-1.87221e-07
4.05551e-07
-1.39217e-07
4.7264e-07
-8.73452e-08
5.13762e-07
-3.37608e-08
5.27334e-07
1.84646e-08
5.13796e-07
6.77465e-08
4.75116e-07
1.08834e-07
4.12834e-07
1.39222e-07
3.30094e-07
1.55129e-07
2.37212e-07
1.53459e-07
1.46649e-07
1.35517e-07
7.08673e-08
1.04481e-07
2.00094e-08
6.32414e-08
1.94799e-08
1.98202e-08
-3.19094e-08
6.5908e-08
-9.21895e-08
1.17823e-07
-1.20947e-07
1.6367e-07
-1.19603e-07
1.98958e-07
-9.98171e-08
2.227e-07
-7.16457e-08
2.35565e-07
-4.21509e-08
2.38531e-07
-1.55053e-08
2.32761e-07
5.89114e-09
2.19733e-07
2.11378e-08
2.00846e-07
3.07359e-08
1.76687e-07
3.69056e-08
1.47065e-07
4.23727e-08
1.11166e-07
4.94985e-08
6.78184e-08
5.96889e-08
1.56e-08
7.33834e-08
-4.72153e-08
9.06055e-08
-1.22446e-07
1.11399e-07
-2.11635e-07
1.35799e-07
-3.16016e-07
1.63825e-07
-4.36088e-07
1.9493e-07
-5.71493e-07
2.28059e-07
-7.2116e-07
2.61782e-07
-8.82667e-07
2.94102e-07
-1.05262e-06
3.23605e-07
-1.22677e-06
3.488e-07
-1.40084e-06
3.68617e-07
-1.57086e-06
3.82656e-07
-1.73321e-06
3.90611e-07
-1.8853e-06
3.9241e-07
-2.02564e-06
3.88273e-07
-2.15324e-06
3.786e-07
-2.2681e-06
3.6405e-07
-2.37066e-06
3.45279e-07
-2.46123e-06
3.22831e-07
-2.54017e-06
2.97497e-07
-2.60779e-06
2.69846e-07
-2.66434e-06
2.40432e-07
-2.71001e-06
2.09592e-07
-2.7449e-06
1.77682e-07
-2.76909e-06
1.44854e-07
-2.78257e-06
1.11206e-07
-2.7853e-06
7.67948e-08
-2.77712e-06
4.16115e-08
-2.75772e-06
5.56946e-09
-2.72758e-06
-3.13718e-08
-2.6851e-06
-6.8972e-08
-2.631e-06
-1.07694e-07
-2.56471e-06
-1.47304e-07
-2.48598e-06
-1.87727e-07
-2.39454e-06
-2.2867e-07
-2.29027e-06
-2.69882e-07
-2.17312e-06
-3.10945e-07
-2.0432e-06
-3.51268e-07
-1.90092e-06
-3.90024e-07
-1.74694e-06
-4.26142e-07
-1.58232e-06
-4.58565e-07
-1.40843e-06
-4.8602e-07
-1.22716e-06
-5.06933e-07
-1.04099e-06
-5.19832e-07
-8.52725e-07
-5.23475e-07
-6.65647e-07
-5.16574e-07
-4.83383e-07
-4.98411e-07
-3.09646e-07
-4.68883e-07
-1.47743e-07
-4.28318e-07
-9.80368e-10
-3.77203e-07
1.28781e-07
-3.16982e-07
2.38172e-07
-2.48608e-07
3.25784e-07
-1.74957e-07
3.90816e-07
-9.8793e-08
4.3234e-07
-2.30594e-08
4.50099e-07
4.99875e-08
4.42824e-07
1.1611e-07
4.12099e-07
1.69947e-07
3.59054e-07
2.08174e-07
2.86857e-07
2.25656e-07
2.02134e-07
2.2024e-07
1.15473e-07
1.91142e-07
4.05874e-08
1.38127e-07
6.00673e-08
2.75822e-08
-5.94916e-08
8.01609e-08
-1.44768e-07
1.29828e-07
-1.70614e-07
1.67949e-07
-1.57724e-07
1.93216e-07
-1.25084e-07
2.06821e-07
-8.5251e-08
2.09968e-07
-4.52982e-08
2.03783e-07
-9.31961e-09
1.89055e-07
2.06191e-08
1.66265e-07
4.39274e-08
1.35191e-07
6.18096e-08
9.53257e-08
7.67712e-08
4.58906e-08
9.18079e-08
-1.40623e-08
1.09451e-07
-8.56347e-08
1.31261e-07
-1.70175e-07
1.57924e-07
-2.6915e-07
1.8958e-07
-3.83841e-07
2.26089e-07
-5.14819e-07
2.66776e-07
-6.61614e-07
3.1062e-07
-8.22439e-07
3.55755e-07
-9.94136e-07
3.99755e-07
-1.17288e-06
4.40526e-07
-1.35437e-06
4.75594e-07
-1.53448e-06
5.0371e-07
-1.70929e-06
5.23617e-07
-1.87532e-06
5.34642e-07
-2.02984e-06
5.37179e-07
-2.17151e-06
5.32278e-07
-2.29992e-06
5.20819e-07
-2.41529e-06
5.03644e-07
-2.51823e-06
4.81538e-07
-2.60937e-06
4.5519e-07
-2.68944e-06
4.25346e-07
-2.75914e-06
3.92539e-07
-2.81904e-06
3.57397e-07
-2.86956e-06
3.20367e-07
-2.91101e-06
2.81882e-07
-2.9436e-06
2.42175e-07
-2.96738e-06
2.01465e-07
-2.98238e-06
1.59856e-07
-2.98853e-06
1.17358e-07
-2.98568e-06
7.39389e-08
-2.97357e-06
2.95047e-08
-2.95198e-06
-1.60269e-08
-2.92064e-06
-6.2705e-08
-2.879e-06
-1.10616e-07
-2.82681e-06
-1.59884e-07
-2.76364e-06
-2.10476e-07
-2.68906e-06
-2.62309e-07
-2.6027e-06
-3.15027e-07
-2.50427e-06
-3.68309e-07
-2.39353e-06
-4.21684e-07
-2.27034e-06
-4.74455e-07
-2.13473e-06
-5.25642e-07
-1.98699e-06
-5.73882e-07
-1.82791e-06
-6.17637e-07
-1.65852e-06
-6.55417e-07
-1.48025e-06
-6.85202e-07
-1.29519e-06
-7.04888e-07
-1.10582e-06
-7.12848e-07
-9.15173e-07
-7.07219e-07
-7.26852e-07
-6.86732e-07
-5.45027e-07
-6.50707e-07
-3.73496e-07
-5.99849e-07
-2.15353e-07
-5.35346e-07
-7.38373e-08
-4.58498e-07
4.90726e-08
-3.71518e-07
1.51587e-07
-2.77472e-07
2.32613e-07
-1.79819e-07
2.91746e-07
-8.21925e-08
3.29712e-07
1.20217e-08
3.46531e-07
9.92908e-08
3.41492e-07
1.74986e-07
3.14795e-07
2.34871e-07
2.67052e-07
2.73399e-07
2.02108e-07
2.85184e-07
1.25806e-07
2.67444e-07
4.86813e-08
2.15252e-07
1.08749e-07
3.35667e-08
-9.30584e-08
8.56153e-08
-1.96817e-07
1.26713e-07
-2.11712e-07
1.53452e-07
-1.84462e-07
1.66579e-07
-1.38211e-07
1.68318e-07
-8.69895e-08
1.60041e-07
-3.70216e-08
1.42491e-07
8.2299e-09
1.15829e-07
4.7282e-08
7.96078e-08
8.01482e-08
3.28647e-08
1.08553e-07
-2.55871e-08
1.35223e-07
-9.69109e-08
1.63132e-07
-1.82183e-07
1.94723e-07
-2.82416e-07
2.31494e-07
-3.98463e-07
2.7397e-07
-5.30759e-07
3.21877e-07
-6.79072e-07
3.74402e-07
-8.41953e-07
4.29657e-07
-1.01633e-06
4.84998e-07
-1.19842e-06
5.3784e-07
-1.38365e-06
5.84986e-07
-1.56772e-06
6.246e-07
-1.7464e-06
6.54279e-07
-1.91535e-06
6.72658e-07
-2.07196e-06
6.80229e-07
-2.21534e-06
6.78019e-07
-2.34551e-06
6.67351e-07
-2.46293e-06
6.49699e-07
-2.56833e-06
6.26212e-07
-2.66256e-06
5.97874e-07
-2.74645e-06
5.65433e-07
-2.82076e-06
5.29495e-07
-2.88611e-06
4.90703e-07
-2.94313e-06
4.49558e-07
-2.99224e-06
4.06509e-07
-3.03379e-06
3.61911e-07
-3.068e-06
3.16093e-07
-3.09501e-06
2.6919e-07
-3.11481e-06
2.2126e-07
-3.12735e-06
1.72399e-07
-3.13256e-06
1.22564e-07
-3.13025e-06
7.16262e-08
-3.12014e-06
1.93975e-08
-3.10197e-06
-3.41911e-08
-3.07533e-06
-8.93528e-08
-3.03974e-06
-1.46201e-07
-2.99483e-06
-2.04793e-07
-2.94013e-06
-2.65181e-07
-2.87501e-06
-3.27423e-07
-2.79888e-06
-3.91157e-07
-2.71128e-06
-4.55911e-07
-2.61175e-06
-5.21222e-07
-2.49986e-06
-5.86345e-07
-2.37522e-06
-6.50282e-07
-2.23769e-06
-7.1141e-07
-2.08779e-06
-7.6753e-07
-1.92606e-06
-8.17152e-07
-1.75341e-06
-8.57848e-07
-1.57164e-06
-8.86664e-07
-1.38279e-06
-9.01693e-07
-1.18968e-06
-9.00327e-07
-9.95416e-07
-8.81e-07
-8.03989e-07
-8.42135e-07
-6.20108e-07
-7.8373e-07
-4.48152e-07
-7.07302e-07
-2.91298e-07
-6.15353e-07
-1.52306e-07
-5.1051e-07
-3.34014e-08
-3.96377e-07
6.40955e-08
-2.77316e-07
1.3974e-07
-1.57837e-07
1.94011e-07
-4.22499e-08
2.27875e-07
6.54273e-08
2.41748e-07
1.61112e-07
2.36079e-07
2.4054e-07
2.11176e-07
2.98302e-07
1.68006e-07
3.28354e-07
1.0967e-07
3.2578e-07
4.39229e-08
2.80999e-07
1.52672e-07
3.70745e-08
-1.30133e-07
8.20871e-08
-2.41829e-07
1.10644e-07
-2.40269e-07
1.23544e-07
-1.97362e-07
1.23585e-07
-1.38252e-07
1.12756e-07
-7.61608e-08
9.20414e-08
-1.63068e-08
6.1573e-08
3.86982e-08
2.08912e-08
8.79638e-08
-3.11373e-08
1.32177e-07
-9.58991e-08
1.73314e-07
-1.74789e-07
2.14113e-07
-2.68988e-07
2.5733e-07
-3.79344e-07
3.05079e-07
-5.06302e-07
3.58452e-07
-6.49638e-07
4.17307e-07
-8.08283e-07
4.80522e-07
-9.79922e-07
5.46042e-07
-1.16112e-06
6.10853e-07
-1.34728e-06
6.71159e-07
-1.5339e-06
7.24459e-07
-1.71606e-06
7.67151e-07
-1.88857e-06
7.97104e-07
-2.04836e-06
8.14069e-07
-2.19458e-06
8.18877e-07
-2.32745e-06
8.13102e-07
-2.44777e-06
7.98338e-07
-2.55657e-06
7.76149e-07
-2.65473e-06
7.47862e-07
-2.74309e-06
7.14575e-07
-2.8224e-06
6.77184e-07
-2.8933e-06
6.36334e-07
-2.95644e-06
5.92636e-07
-3.01235e-06
5.46607e-07
-3.06145e-06
4.98656e-07
-3.10403e-06
4.4909e-07
-3.1403e-06
3.98186e-07
-3.17045e-06
3.46237e-07
-3.19461e-06
2.93352e-07
-3.21271e-06
2.3936e-07
-3.22475e-06
1.8444e-07
-3.23074e-06
1.28554e-07
-3.2306e-06
7.14862e-08
-3.2241e-06
1.28931e-08
-3.21124e-06
-4.70502e-08
-3.19156e-06
-1.09029e-07
-3.1646e-06
-1.73165e-07
-3.1298e-06
-2.39587e-07
-3.0866e-06
-3.08386e-07
-3.03426e-06
-3.79758e-07
-2.97194e-06
-4.53481e-07
-2.89878e-06
-5.29071e-07
-2.81395e-06
-6.06052e-07
-2.71684e-06
-6.83455e-07
-2.60702e-06
-7.601e-07
-2.48382e-06
-8.34611e-07
-2.34698e-06
-9.0437e-07
-2.19657e-06
-9.67562e-07
-2.03278e-06
-1.02164e-06
-1.85713e-06
-1.06231e-06
-1.67115e-06
-1.08768e-06
-1.47735e-06
-1.09412e-06
-1.27868e-06
-1.07968e-06
-1.07883e-06
-1.04198e-06
-8.82162e-07
-9.80402e-07
-6.94171e-07
-8.95293e-07
-5.19482e-07
-7.90042e-07
-3.61523e-07
-6.68469e-07
-2.23297e-07
-5.34603e-07
-1.06922e-07
-3.93691e-07
-1.33232e-08
-2.51435e-07
5.77845e-08
-1.13358e-07
1.07616e-07
1.55953e-08
1.37692e-07
1.31037e-07
1.49165e-07
2.29067e-07
1.42687e-07
3.04779e-07
1.1875e-07
3.52291e-07
7.96479e-08
3.64882e-07
3.16661e-08
3.28981e-07
1.84338e-07
3.70995e-08
-1.67232e-07
6.96357e-08
-2.74366e-07
8.34861e-08
-2.54119e-07
8.17494e-08
-1.95626e-07
6.81838e-08
-1.24687e-07
4.42019e-08
-5.21789e-08
1.01168e-08
1.77783e-08
-3.45306e-08
8.33456e-08
-9.0779e-08
1.44212e-07
-1.60027e-07
2.01424e-07
-2.43759e-07
2.57046e-07
-3.43251e-07
3.13605e-07
-4.59331e-07
3.73411e-07
-5.92207e-07
4.37955e-07
-7.41312e-07
5.07558e-07
-9.05127e-07
5.81121e-07
-1.08081e-06
6.56201e-07
-1.26423e-06
7.29468e-07
-1.45071e-06
7.97329e-07
-1.6352e-06
8.55647e-07
-1.81168e-06
9.00946e-07
-1.97613e-06
9.31597e-07
-2.12691e-06
9.47883e-07
-2.26411e-06
9.51265e-07
-2.38858e-06
9.43351e-07
-2.50138e-06
9.25899e-07
-2.60357e-06
9.0053e-07
-2.69614e-06
8.68721e-07
-2.77989e-06
8.3161e-07
-2.85548e-06
7.9017e-07
-2.92348e-06
7.45186e-07
-2.98442e-06
6.97268e-07
-3.03875e-06
6.4697e-07
-3.08686e-06
5.94714e-07
-3.12909e-06
5.40892e-07
-3.16565e-06
4.85643e-07
-3.1966e-06
4.29136e-07
-3.22218e-06
3.71817e-07
-3.24251e-06
3.13689e-07
-3.25791e-06
2.54755e-07
-3.26835e-06
1.94879e-07
-3.27366e-06
1.33864e-07
-3.2737e-06
7.15263e-08
-3.26825e-06
7.44231e-09
-3.25758e-06
-5.77175e-08
-3.24166e-06
-1.24946e-07
-3.22044e-06
-1.94388e-07
-3.19374e-06
-2.66283e-07
-3.16127e-06
-3.40859e-07
-3.12269e-06
-4.1834e-07
-3.07717e-06
-4.99001e-07
-3.02348e-06
-5.82755e-07
-2.96035e-06
-6.69181e-07
-2.88607e-06
-7.57733e-07
-2.79862e-06
-8.47557e-07
-2.69622e-06
-9.37008e-07
-2.57814e-06
-1.02245e-06
-2.44461e-06
-1.1011e-06
-2.29597e-06
-1.17028e-06
-2.13208e-06
-1.22619e-06
-1.95385e-06
-1.26591e-06
-1.76369e-06
-1.28428e-06
-1.56398e-06
-1.27939e-06
-1.35841e-06
-1.24755e-06
-1.15098e-06
-1.18784e-06
-9.47033e-07
-1.09924e-06
-7.53156e-07
-9.83919e-07
-5.74324e-07
-8.473e-07
-4.14256e-07
-6.94671e-07
-2.76173e-07
-5.31774e-07
-1.62033e-07
-3.65574e-07
-7.22546e-08
-2.03136e-07
-5.75061e-09
-5.09086e-08
3.94298e-08
8.58563e-08
6.56618e-08
2.02835e-07
7.45788e-08
2.95862e-07
6.71525e-08
3.59718e-07
4.57003e-08
3.86335e-07
1.66209e-08
3.5806e-07
2.00959e-07
3.24487e-08
-1.99681e-07
4.98886e-08
-2.91806e-07
4.78639e-08
-2.52094e-07
3.1221e-08
-1.78983e-07
3.77314e-09
-9.72386e-08
-3.38508e-08
-1.4555e-08
-8.20409e-08
6.59684e-08
-1.41739e-07
1.43044e-07
-2.14254e-07
2.16727e-07
-3.01006e-07
2.88177e-07
-4.03269e-07
3.59309e-07
-5.21894e-07
4.3223e-07
-6.57044e-07
5.08561e-07
-8.08052e-07
5.88963e-07
-9.73189e-07
6.72695e-07
-1.14926e-06
7.5719e-07
-1.33184e-06
8.38783e-07
-1.51597e-06
9.13599e-07
-1.69558e-06
9.76943e-07
-1.8654e-06
1.02546e-06
-2.02224e-06
1.05778e-06
-2.16545e-06
1.07481e-06
-2.29549e-06
1.07792e-06
-2.4133e-06
1.06907e-06
-2.51997e-06
1.05002e-06
-2.61664e-06
1.02257e-06
-2.70423e-06
9.88128e-07
-2.7835e-06
9.47987e-07
-2.85502e-06
9.03135e-07
-2.9193e-06
8.54449e-07
-2.97676e-06
8.02641e-07
-3.02779e-06
7.483e-07
-3.07272e-06
6.91894e-07
-3.11172e-06
6.33721e-07
-3.14519e-06
5.74358e-07
-3.1738e-06
5.14248e-07
-3.19812e-06
4.53459e-07
-3.21821e-06
3.91905e-07
-3.23398e-06
3.29458e-07
-3.24548e-06
2.66261e-07
-3.25274e-06
2.02138e-07
-3.25584e-06
1.3696e-07
-3.25495e-06
7.06355e-08
-3.24975e-06
2.24419e-09
-3.24103e-06
-6.64404e-08
-3.22837e-06
-1.37602e-07
-3.2117e-06
-2.11059e-07
-3.19085e-06
-2.87135e-07
-3.16553e-06
-3.66178e-07
-3.13551e-06
-4.48362e-07
-3.10052e-06
-5.33988e-07
-3.06012e-06
-6.23157e-07
-3.01366e-06
-7.15635e-07
-2.96033e-06
-8.11066e-07
-2.89916e-06
-9.08726e-07
-2.82821e-06
-1.00796e-06
-2.74311e-06
-1.10755e-06
-2.63974e-06
-1.20447e-06
-2.51616e-06
-1.29386e-06
-2.37257e-06
-1.36979e-06
-2.21055e-06
-1.42793e-06
-2.03172e-06
-1.46311e-06
-1.83757e-06
-1.47353e-06
-1.63183e-06
-1.4533e-06
-1.41826e-06
-1.4014e-06
-1.20162e-06
-1.31587e-06
-9.88983e-07
-1.19656e-06
-7.88039e-07
-1.04824e-06
-6.04363e-07
-8.78347e-07
-4.42046e-07
-6.94091e-07
-3.04458e-07
-5.03163e-07
-1.93281e-07
-3.14313e-07
-1.0829e-07
-1.359e-07
-4.74111e-08
2.49773e-08
-7.37068e-09
1.62795e-07
1.46725e-08
2.73819e-07
2.11202e-08
3.5327e-07
1.51398e-08
3.92315e-07
3.16876e-09
3.70031e-07
2.04127e-07
2.35013e-08
-2.23182e-07
2.44085e-08
-2.92713e-07
5.82413e-09
-2.3351e-07
-2.52016e-08
-1.47957e-07
-6.65678e-08
-5.58724e-08
-1.18183e-07
3.70598e-08
-1.8087e-07
1.28655e-07
-2.55856e-07
2.1803e-07
-3.44466e-07
3.05338e-07
-4.479e-07
3.9161e-07
-5.66987e-07
4.78396e-07
-7.01904e-07
5.67148e-07
-8.52056e-07
6.58713e-07
-1.01577e-06
7.52678e-07
-1.18967e-06
8.46591e-07
-1.36919e-06
9.36713e-07
-1.54909e-06
1.01868e-06
-1.72314e-06
1.08765e-06
-1.88655e-06
1.14035e-06
-2.037e-06
1.17592e-06
-2.174e-06
1.19478e-06
-2.29806e-06
1.19888e-06
-2.41021e-06
1.19007e-06
-2.51156e-06
1.17042e-06
-2.60315e-06
1.14162e-06
-2.68587e-06
1.10529e-06
-2.7604e-06
1.06265e-06
-2.82725e-06
1.01484e-06
-2.8869e-06
9.62783e-07
-2.93974e-06
9.07293e-07
-2.98616e-06
8.49056e-07
-3.02655e-06
7.88689e-07
-3.06147e-06
7.26815e-07
-3.0916e-06
6.63854e-07
-3.11719e-06
5.99944e-07
-3.13815e-06
5.35214e-07
-3.15458e-06
4.69888e-07
-3.16657e-06
4.03896e-07
-3.17455e-06
3.3743e-07
-3.17892e-06
2.70635e-07
-3.18012e-06
2.03338e-07
-3.17849e-06
1.35329e-07
-3.17424e-06
6.63882e-08
-3.16797e-06
-4.03341e-09
-3.15905e-06
-7.5359e-08
-3.1478e-06
-1.48847e-07
-3.13423e-06
-2.24626e-07
-3.11831e-06
-3.03057e-07
-3.09998e-06
-3.84512e-07
-3.07902e-06
-4.69323e-07
-3.05515e-06
-5.57858e-07
-3.02791e-06
-6.50391e-07
-2.99655e-06
-7.46997e-07
-2.96008e-06
-8.47533e-07
-2.91738e-06
-9.51427e-07
-2.86773e-06
-1.05761e-06
-2.80962e-06
-1.16566e-06
-2.74128e-06
-1.27281e-06
-2.65812e-06
-1.37703e-06
-2.55273e-06
-1.47518e-06
-2.42113e-06
-1.55953e-06
-2.26393e-06
-1.62031e-06
-2.08552e-06
-1.65194e-06
-1.88814e-06
-1.65067e-06
-1.67585e-06
-1.61369e-06
-1.45288e-06
-1.53885e-06
-1.22567e-06
-1.42377e-06
-1.00306e-06
-1.27085e-06
-7.9433e-07
-1.08707e-06
-6.0578e-07
-8.82641e-07
-4.41879e-07
-6.67064e-07
-3.06012e-07
-4.5018e-07
-1.99369e-07
-2.42543e-07
-1.20732e-07
-5.36594e-08
-6.67493e-08
1.08812e-07
-3.27693e-08
2.39839e-07
-1.47141e-08
3.35215e-07
-7.46015e-09
3.85061e-07
-5.37357e-09
3.67945e-07
1.98754e-07
1.14361e-08
-2.34618e-07
-5.22374e-09
-2.76053e-07
-3.93345e-08
-1.99399e-07
-8.47679e-08
-1.02524e-07
-1.40122e-07
-5.186e-10
-2.0572e-07
1.02659e-07
-2.82787e-07
2.05722e-07
-3.72585e-07
3.07828e-07
-4.76246e-07
4.08998e-07
-5.94556e-07
5.09921e-07
-7.2772e-07
6.1156e-07
-8.75267e-07
7.14694e-07
-1.03573e-06
8.19175e-07
-1.20584e-06
9.2279e-07
-1.38094e-06
1.02168e-06
-1.55561e-06
1.11138e-06
-1.72411e-06
1.18719e-06
-1.88197e-06
1.24551e-06
-2.02707e-06
1.28545e-06
-2.1588e-06
1.30764e-06
-2.27776e-06
1.31374e-06
-2.38493e-06
1.30605e-06
-2.48141e-06
1.28655e-06
-2.56814e-06
1.25715e-06
-2.64592e-06
1.2194e-06
-2.71536e-06
1.17472e-06
-2.77696e-06
1.12425e-06
-2.83118e-06
1.06906e-06
-2.87845e-06
1.01006e-06
-2.91924e-06
9.48085e-07
-2.95403e-06
8.83846e-07
-2.9833e-06
8.17956e-07
-3.00732e-06
7.50831e-07
-3.02638e-06
6.82919e-07
-3.04087e-06
6.14435e-07
-3.05129e-06
5.45629e-07
-3.05815e-06
4.76747e-07
-3.06206e-06
4.07815e-07
-3.06347e-06
3.38835e-07
-3.06255e-06
2.69719e-07
-3.05952e-06
2.00307e-07
-3.0546e-06
1.30407e-07
-3.04796e-06
5.97476e-08
-3.03999e-06
-1.19999e-08
-3.03041e-06
-8.49402e-08
-3.01957e-06
-1.59686e-07
-3.00763e-06
-2.36565e-07
-2.9947e-06
-3.15992e-07
-2.98084e-06
-3.9837e-07
-2.96604e-06
-4.8412e-07
-2.95024e-06
-5.73666e-07
-2.93324e-06
-6.67389e-07
-2.91467e-06
-7.65565e-07
-2.89391e-06
-8.68292e-07
-2.86995e-06
-9.75391e-07
-2.8411e-06
-1.08645e-06
-2.80594e-06
-1.20082e-06
-2.76221e-06
-1.31654e-06
-2.70806e-06
-1.43118e-06
-2.64089e-06
-1.54235e-06
-2.55531e-06
-1.64511e-06
-2.44006e-06
-1.73556e-06
-2.29214e-06
-1.79986e-06
-2.11437e-06
-1.82844e-06
-1.91386e-06
-1.8142e-06
-1.69373e-06
-1.75898e-06
-1.46007e-06
-1.65742e-06
-1.22099e-06
-1.50994e-06
-9.87556e-07
-1.32051e-06
-7.70893e-07
-1.0993e-06
-5.78206e-07
-8.59751e-07
-4.1425e-07
-6.14136e-07
-2.82142e-07
-3.7465e-07
-1.82176e-07
-1.53625e-07
-1.11785e-07
3.84201e-08
-6.56655e-08
1.9372e-07
-3.77689e-08
3.07318e-07
-2.03863e-08
3.67678e-07
-9.15555e-09
3.56714e-07
1.89598e-07
-2.51174e-09
-2.32107e-07
-3.61323e-08
-2.42432e-07
-8.57064e-08
-1.49825e-07
-1.45309e-07
-4.29208e-08
-2.14215e-07
6.83866e-08
-2.93461e-07
1.81905e-07
-3.84231e-07
2.96492e-07
-4.87686e-07
4.11283e-07
-6.04613e-07
5.25925e-07
-7.35254e-07
6.40562e-07
-8.7926e-07
7.55566e-07
-1.03543e-06
8.70862e-07
-1.20079e-06
9.84533e-07
-1.37075e-06
1.09275e-06
-1.54003e-06
1.19097e-06
-1.70332e-06
1.27468e-06
-1.85635e-06
1.34022e-06
-1.99686e-06
1.38602e-06
-2.12418e-06
1.41278e-06
-2.2387e-06
1.42216e-06
-2.34145e-06
1.41648e-06
-2.43338e-06
1.39798e-06
-2.51537e-06
1.36854e-06
-2.58811e-06
1.32989e-06
-2.65216e-06
1.28346e-06
-2.70801e-06
1.23057e-06
-2.75612e-06
1.17236e-06
-2.797e-06
1.10994e-06
-2.83119e-06
1.04425e-06
-2.85924e-06
9.76133e-07
-2.88171e-06
9.06319e-07
-2.89915e-06
8.35392e-07
-2.91212e-06
7.63803e-07
-2.92116e-06
6.9196e-07
-2.92684e-06
6.20112e-07
-2.92968e-06
5.48472e-07
-2.93009e-06
4.77159e-07
-2.92842e-06
4.06147e-07
-2.92495e-06
3.3536e-07
-2.9199e-06
2.64666e-07
-2.91347e-06
1.93882e-07
-2.90585e-06
1.22784e-07
-2.89721e-06
5.11053e-08
-2.88777e-06
-2.14377e-08
-2.87757e-06
-9.51389e-08
-2.86684e-06
-1.70417e-07
-2.85576e-06
-2.47639e-07
-2.84453e-06
-3.27225e-07
-2.83331e-06
-4.09592e-07
-2.82224e-06
-4.9519e-07
-2.81143e-06
-5.8447e-07
-2.80095e-06
-6.77871e-07
-2.79074e-06
-7.7578e-07
-2.78054e-06
-8.78487e-07
-2.76978e-06
-9.86151e-07
-2.75747e-06
-1.09876e-06
-2.74235e-06
-1.21594e-06
-2.72223e-06
-1.33666e-06
-2.69404e-06
-1.45937e-06
-2.6549e-06
-1.58148e-06
-2.60175e-06
-1.69826e-06
-2.5306e-06
-1.80671e-06
-2.4317e-06
-1.89876e-06
-2.29408e-06
-1.96606e-06
-2.11857e-06
-1.98971e-06
-1.91391e-06
-1.96364e-06
-1.68461e-06
-1.88672e-06
-1.43883e-06
-1.75572e-06
-1.18691e-06
-1.57244e-06
-9.42482e-07
-1.34373e-06
-7.18715e-07
-1.08352e-06
-5.23746e-07
-8.09105e-07
-3.62287e-07
-5.3611e-07
-2.3677e-07
-2.79142e-07
-1.46047e-07
-5.2303e-08
-8.55112e-08
1.33185e-07
-4.77809e-08
2.69588e-07
-2.37509e-08
3.43648e-07
-8.28909e-09
3.41252e-07
1.81309e-07
-1.74018e-08
-2.14705e-07
-6.76569e-08
-1.92177e-07
-1.317e-07
-8.57823e-08
-2.04711e-07
3.00905e-08
-2.86624e-07
1.50299e-07
-3.78601e-07
2.73883e-07
-4.81852e-07
3.99743e-07
-5.97255e-07
5.26686e-07
-7.25148e-07
6.53817e-07
-8.65295e-07
7.80709e-07
-1.01674e-06
9.07013e-07
-1.17691e-06
1.03103e-06
-1.34151e-06
1.14914e-06
-1.50552e-06
1.25676e-06
-1.66403e-06
1.34948e-06
-1.81295e-06
1.4236e-06
-1.94964e-06
1.47691e-06
-2.07325e-06
1.50963e-06
-2.18404e-06
1.52357e-06
-2.28287e-06
1.52098e-06
-2.37066e-06
1.50427e-06
-2.44817e-06
1.47548e-06
-2.51603e-06
1.4364e-06
-2.57477e-06
1.38863e-06
-2.62491e-06
1.3336e-06
-2.66699e-06
1.27265e-06
-2.70163e-06
1.207e-06
-2.72949e-06
1.13781e-06
-2.75129e-06
1.06604e-06
-2.76774e-06
9.92579e-07
-2.77953e-06
9.1811e-07
-2.78733e-06
8.43192e-07
-2.79177e-06
7.68249e-07
-2.79342e-06
6.93605e-07
-2.79276e-06
6.19449e-07
-2.79018e-06
5.459e-07
-2.786e-06
4.72974e-07
-2.78045e-06
4.00595e-07
-2.77373e-06
3.28642e-07
-2.76602e-06
2.56953e-07
-2.75746e-06
1.85326e-07
-2.7482e-06
1.13524e-07
-2.73838e-06
4.12825e-08
-2.72814e-06
-3.16782e-08
-2.7176e-06
-1.05674e-07
-2.70695e-06
-1.81064e-07
-2.69638e-06
-2.5821e-07
-2.6861e-06
-3.37505e-07
-2.67634e-06
-4.19361e-07
-2.66731e-06
-5.04215e-07
-2.65926e-06
-5.92524e-07
-2.65238e-06
-6.84744e-07
-2.64684e-06
-7.8132e-07
-2.64267e-06
-8.82658e-07
-2.63972e-06
-9.891e-07
-2.63761e-06
-1.10088e-06
-2.63558e-06
-1.21797e-06
-2.63223e-06
-1.34002e-06
-2.62542e-06
-1.46618e-06
-2.61218e-06
-1.59472e-06
-2.58765e-06
-1.72279e-06
-2.5482e-06
-1.84616e-06
-2.48854e-06
-1.95842e-06
-2.40162e-06
-2.05299e-06
-2.27241e-06
-2.11892e-06
-2.0987e-06
-2.13735e-06
-1.88832e-06
-2.0971e-06
-1.64813e-06
-1.9959e-06
-1.38888e-06
-1.83169e-06
-1.12375e-06
-1.60886e-06
-8.69221e-07
-1.33805e-06
-6.40633e-07
-1.03769e-06
-4.46635e-07
-7.30107e-07
-2.91455e-07
-4.34323e-07
-1.76114e-07
-1.67644e-07
-9.74175e-08
5.44883e-08
-4.81824e-08
2.20353e-07
-1.93773e-08
3.14843e-07
-3.922e-09
3.25797e-07
1.77387e-07
-3.23957e-08
-1.82309e-07
-9.80828e-08
-1.2649e-07
-1.75687e-07
-8.17859e-09
-2.61196e-07
1.156e-07
-3.55089e-07
2.44192e-07
-4.58561e-07
3.77355e-07
-5.72678e-07
5.13859e-07
-6.97972e-07
6.5198e-07
-8.34362e-07
7.90208e-07
-9.81112e-07
9.27459e-07
-1.13603e-06
1.06193e-06
-1.29532e-06
1.19032e-06
-1.45434e-06
1.30815e-06
-1.60855e-06
1.41096e-06
-1.75398e-06
1.49491e-06
-1.88768e-06
1.5573e-06
-2.00836e-06
1.59759e-06
-2.11615e-06
1.61742e-06
-2.21172e-06
1.61914e-06
-2.29591e-06
1.60517e-06
-2.36943e-06
1.5778e-06
-2.43288e-06
1.53893e-06
-2.48679e-06
1.49032e-06
-2.53174e-06
1.43358e-06
-2.56838e-06
1.37024e-06
-2.59746e-06
1.30172e-06
-2.6198e-06
1.22934e-06
-2.63626e-06
1.15426e-06
-2.64768e-06
1.07746e-06
-2.65486e-06
9.99761e-07
-2.65854e-06
9.21788e-07
-2.65936e-06
8.44021e-07
-2.65791e-06
7.66792e-07
-2.65462e-06
6.90317e-07
-2.64987e-06
6.147e-07
-2.64394e-06
5.39968e-07
-2.63702e-06
4.6606e-07
-2.62929e-06
3.9286e-07
-2.62086e-06
3.20216e-07
-2.61185e-06
2.47936e-07
-2.60233e-06
1.75808e-07
-2.5924e-06
1.03596e-07
-2.58216e-06
3.10398e-08
-2.5717e-06
-4.21345e-08
-2.56115e-06
-1.16223e-07
-2.55067e-06
-1.9155e-07
-2.54043e-06
-2.68448e-07
-2.53065e-06
-3.47278e-07
-2.52159e-06
-4.28421e-07
-2.51352e-06
-5.12287e-07
-2.50674e-06
-5.99308e-07
-2.50154e-06
-6.89938e-07
-2.49822e-06
-7.84641e-07
-2.497e-06
-8.83883e-07
-2.49799e-06
-9.88109e-07
-2.50116e-06
-1.0977e-06
-2.50622e-06
-1.21291e-06
-2.51246e-06
-1.33378e-06
-2.51865e-06
-1.45999e-06
-2.5227e-06
-1.59067e-06
-2.52134e-06
-1.72414e-06
-2.51004e-06
-1.85746e-06
-2.48255e-06
-1.98591e-06
-2.43319e-06
-2.10234e-06
-2.35349e-06
-2.19863e-06
-2.22973e-06
-2.2611e-06
-2.05543e-06
-2.2714e-06
-1.83712e-06
-2.21421e-06
-1.58416e-06
-2.08464e-06
-1.31057e-06
-1.88246e-06
-1.03281e-06
-1.6158e-06
-7.70679e-07
-1.29983e-06
-5.41428e-07
-9.59357e-07
-3.53388e-07
-6.22364e-07
-2.09648e-07
-3.11384e-07
-1.09009e-07
-4.61507e-08
-4.56939e-08
1.57038e-07
-1.15044e-08
2.80654e-07
2.23337e-09
3.12059e-07
1.7962e-07
-4.6715e-08
-1.35594e-07
-1.2644e-07
-4.67653e-08
-2.16272e-07
8.16539e-08
-3.13191e-07
2.12519e-07
-4.17755e-07
3.48756e-07
-5.31173e-07
4.90773e-07
-6.54287e-07
6.36973e-07
-7.87288e-07
7.84982e-07
-9.29653e-07
9.32573e-07
-1.07957e-06
1.07738e-06
-1.23378e-06
1.21615e-06
-1.38822e-06
1.34476e-06
-1.53862e-06
1.45855e-06
-1.68114e-06
1.55348e-06
-1.81262e-06
1.62639e-06
-1.93125e-06
1.67594e-06
-2.03684e-06
1.70318e-06
-2.12995e-06
1.71052e-06
-2.21128e-06
1.70047e-06
-2.28154e-06
1.67543e-06
-2.34131e-06
1.63757e-06
-2.39115e-06
1.58878e-06
-2.43174e-06
1.5309e-06
-2.46382e-06
1.46566e-06
-2.4883e-06
1.39471e-06
-2.50612e-06
1.31955e-06
-2.51828e-06
1.2415e-06
-2.52573e-06
1.16171e-06
-2.52935e-06
1.08108e-06
-2.52991e-06
1.00032e-06
-2.52809e-06
9.19966e-07
-2.52443e-06
8.40366e-07
-2.51938e-06
7.61743e-07
-2.51327e-06
6.84208e-07
-2.50635e-06
6.07778e-07
-2.49879e-06
5.32402e-07
-2.49069e-06
4.57965e-07
-2.48215e-06
3.84316e-07
-2.47322e-06
3.11284e-07
-2.46393e-06
2.38654e-07
-2.45433e-06
1.66206e-07
-2.44445e-06
9.37183e-08
-2.43436e-06
2.09426e-08
-2.42411e-06
-5.23858e-08
-2.4138e-06
-1.2653e-07
-2.40357e-06
-2.01778e-07
-2.39359e-06
-2.78429e-07
-2.38407e-06
-3.56801e-07
-2.37525e-06
-4.37234e-07
-2.36745e-06
-5.20094e-07
-2.36098e-06
-6.05776e-07
-2.35621e-06
-6.94705e-07
-2.35352e-06
-7.87338e-07
-2.35324e-06
-8.84157e-07
-2.35569e-06
-9.85662e-07
-2.36105e-06
-1.09234e-06
-2.36934e-06
-1.20463e-06
-2.38028e-06
-1.32284e-06
-2.39321e-06
-1.44706e-06
-2.40686e-06
-1.57701e-06
-2.41918e-06
-1.71183e-06
-2.42691e-06
-1.84973e-06
-2.42522e-06
-1.9876e-06
-2.40716e-06
-2.1204e-06
-2.36534e-06
-2.24045e-06
-2.29028e-06
-2.33616e-06
-2.16752e-06
-2.39416e-06
-1.98941e-06
-2.39232e-06
-1.76039e-06
-2.31366e-06
-1.49298e-06
-2.14987e-06
-1.20489e-06
-1.90388e-06
-9.16599e-07
-1.58812e-06
-6.51669e-07
-1.22429e-06
-4.28153e-07
-8.4588e-07
-2.53091e-07
-4.86446e-07
-1.2742e-07
-1.71821e-07
-4.70765e-08
7.66947e-08
-5.26375e-09
2.38841e-07
7.60116e-09
2.99194e-07
1.87222e-07
-5.9779e-08
-7.58151e-08
-1.51795e-07
4.52507e-08
-2.52591e-07
1.8245e-07
-3.59477e-07
3.19405e-07
-4.73168e-07
4.62447e-07
-5.94778e-07
6.12382e-07
-7.24913e-07
7.67108e-07
-8.63363e-07
9.23432e-07
-1.00869e-06
1.0779e-06
-1.15819e-06
1.22688e-06
-1.30849e-06
1.36644e-06
-1.45558e-06
1.49184e-06
-1.59572e-06
1.5987e-06
-1.72566e-06
1.68341e-06
-1.84313e-06
1.74386e-06
-1.94746e-06
1.78027e-06
-2.039e-06
1.79472e-06
-2.11839e-06
1.7899e-06
-2.18628e-06
1.76836e-06
-2.2433e-06
1.73245e-06
-2.29004e-06
1.68432e-06
-2.32726e-06
1.62599e-06
-2.35582e-06
1.55946e-06
-2.37673e-06
1.48658e-06
-2.39109e-06
1.40907e-06
-2.39999e-06
1.32845e-06
-2.40447e-06
1.24599e-06
-2.40548e-06
1.16272e-06
-2.40382e-06
1.07943e-06
-2.40019e-06
9.96691e-07
-2.39512e-06
9.14898e-07
-2.38904e-06
8.34283e-07
-2.38225e-06
7.54953e-07
-2.37497e-06
6.76926e-07
-2.36733e-06
6.00142e-07
-2.35942e-06
5.24489e-07
-2.35127e-06
4.49811e-07
-2.34288e-06
3.75934e-07
-2.33427e-06
3.02671e-07
-2.32542e-06
2.29803e-07
-2.31631e-06
1.57102e-07
-2.30696e-06
8.43648e-08
-2.29738e-06
1.13664e-08
-2.28762e-06
-6.21489e-08
-2.27775e-06
-1.36404e-07
-2.26787e-06
-2.11653e-07
-2.25815e-06
-2.88155e-07
-2.24876e-06
-3.66186e-07
-2.23996e-06
-4.46035e-07
-2.23203e-06
-5.2802e-07
-2.22532e-06
-6.12486e-07
-2.22021e-06
-6.99815e-07
-2.21712e-06
-7.90427e-07
-2.21649e-06
-8.84793e-07
-2.21873e-06
-9.83422e-07
-2.22421e-06
-1.08686e-06
-2.23318e-06
-1.19566e-06
-2.2457e-06
-1.31033e-06