/*--------------------------------*- C++ -*----------------------------------*\
  =========                 |
  \\      /  F ield         | OpenFOAM: The Open Source CFD Toolbox
   \\    /   O peration     | Website:  https://openfoam.org
    \\  /    A nd           | Version:  13
     \\/     M anipulation  |
\*---------------------------------------------------------------------------*/
FoamFile
{
    format      ascii;
    class       volVectorField;
    location    "7";
    object      U;
}
// * * * * * * * * * * * * * * * * * * * * * * * * * * * * * * * * * * * * * //

dimensions      [0 1 -1 0 0 0 0];

internalField   nonuniform List<vector> 
6400
(
(-0.00012474 8.22447e-05 0)
(0.000437446 -0.000170286 0)
(0.00206453 -0.000428152 0)
(0.00421727 -0.000542854 0)
(0.0063615 -0.000478852 0)
(0.00815243 -0.000320012 0)
(0.0093459 -0.000128631 0)
(0.00994437 1.53826e-05 0)
(0.0100724 6.92046e-05 0)
(0.009968 4.80777e-05 0)
(0.00975664 -2.89365e-05 0)
(0.00960411 -0.000134415 0)
(0.00957585 -0.000243815 0)
(0.00966972 -0.000332576 0)
(0.00983867 -0.000404628 0)
(0.0100044 -0.000457787 0)
(0.0100941 -0.000491888 0)
(0.0100542 -0.000495645 0)
(0.00984617 -0.000478225 0)
(0.00937638 -0.000438939 0)
(0.00860433 -0.000390358 0)
(0.0074749 -0.000340813 0)
(0.00594312 -0.000294653 0)
(0.00398219 -0.000275896 0)
(0.00155684 -0.000321741 0)
(-0.00130862 -0.000433896 0)
(-0.00462697 -0.000488861 0)
(-0.008635 -0.000324809 0)
(-0.0134512 0.000175418 0)
(-0.0190587 0.00102647 0)
(-0.0262702 0.00206052 0)
(-0.0342946 0.00294233 0)
(-0.0430037 0.0036585 0)
(-0.0520927 0.0041943 0)
(-0.0613088 0.00455402 0)
(-0.070416 0.0047503 0)
(-0.079229 0.00480679 0)
(-0.0875902 0.00474635 0)
(-0.0953823 0.00459108 0)
(-0.102506 0.00435894 0)
(-0.108884 0.00406214 0)
(-0.114455 0.00370967 0)
(-0.119172 0.00330461 0)
(-0.123008 0.00285097 0)
(-0.125929 0.00235988 0)
(-0.127775 0.0018796 0)
(-0.128585 0.00144069 0)
(-0.128598 0.000759059 0)
(-0.127216 0.000197617 0)
(-0.124918 -0.000477648 0)
(-0.121337 -0.00111806 0)
(-0.116677 -0.00178331 0)
(-0.110802 -0.00242325 0)
(-0.103819 -0.00304881 0)
(-0.0957479 -0.00365592 0)
(-0.0867015 -0.00424423 0)
(-0.0766763 -0.00476122 0)
(-0.0658638 -0.00520127 0)
(-0.0544207 -0.00553636 0)
(-0.0425519 -0.00573005 0)
(-0.0304994 -0.0057499 0)
(-0.0185456 -0.00557954 0)
(-0.00695202 -0.00521662 0)
(0.00387746 -0.00470229 0)
(0.0136076 -0.0039607 0)
(0.0219958 -0.00303943 0)
(0.0287327 -0.00197508 0)
(0.0335301 -0.000825688 0)
(0.0364124 0.000333613 0)
(0.036766 0.00156659 0)
(0.0354231 0.0022217 0)
(0.0319827 0.00281047 0)
(0.0267672 0.00301971 0)
(0.0206857 0.0027322 0)
(0.0145089 0.00205058 0)
(0.00905383 0.00122178 0)
(0.00476944 0.000538255 0)
(0.00181111 0.000127053 0)
(0.000168279 -0.00016463 0)
(-0.000232189 -0.000343032 0)
(1.46965e-05 -0.000376615 0)
(0.00179065 -0.00207775 0)
(0.00518206 -0.0035005 0)
(0.0089768 -0.00398686 0)
(0.0124817 -0.00361324 0)
(0.0152775 -0.00275233 0)
(0.0171869 -0.0016995 0)
(0.0182329 -0.000738681 0)
(0.0185397 -5.55576e-05 0)
(0.0182674 0.000317573 0)
(0.017616 0.000421955 0)
(0.0167504 0.000339991 0)
(0.0157589 0.000191739 0)
(0.0146338 8.91154e-05 0)
(0.0133049 9.52491e-05 0)
(0.0116699 0.00022375 0)
(0.00963986 0.000454237 0)
(0.00715178 0.000769791 0)
(0.00409333 0.00118711 0)
(0.000359777 0.00171782 0)
(-0.00415702 0.00236636 0)
(-0.00967798 0.00315005 0)
(-0.0163067 0.00403815 0)
(-0.0241062 0.00501601 0)
(-0.0331234 0.00610066 0)
(-0.0434525 0.00730005 0)
(-0.0550096 0.00863769 0)
(-0.0674493 0.0101138 0)
(-0.0804045 0.0116759 0)
(-0.0933576 0.0131639 0)
(-0.105749 0.014271 0)
(-0.117803 0.014968 0)
(-0.129219 0.0152599 0)
(-0.139918 0.0151681 0)
(-0.149801 0.0147632 0)
(-0.1588 0.0140939 0)
(-0.166875 0.0132168 0)
(-0.173991 0.012176 0)
(-0.180134 0.0110095 0)
(-0.185291 0.00974612 0)
(-0.189448 0.00840373 0)
(-0.192604 0.00699885 0)
(-0.194749 0.00553803 0)
(-0.195877 0.00403339 0)
(-0.19598 0.00249391 0)
(-0.195021 0.0009237 0)
(-0.193006 -0.00069796 0)
(-0.189959 -0.00239805 0)
(-0.185782 -0.00413916 0)
(-0.180554 -0.00591852 0)
(-0.174198 -0.00771836 0)
(-0.166754 -0.00952291 0)
(-0.158187 -0.0113104 0)
(-0.148526 -0.01305 0)
(-0.137776 -0.0147084 0)
(-0.126006 -0.0162336 0)
(-0.113332 -0.0175909 0)
(-0.0998519 -0.0187232 0)
(-0.0857364 -0.0195558 0)
(-0.0712052 -0.0200388 0)
(-0.0564652 -0.0201067 0)
(-0.0417747 -0.0197154 0)
(-0.0274205 -0.0188388 0)
(-0.0137104 -0.0174835 0)
(-0.000930188 -0.0156158 0)
(0.0106522 -0.0132749 0)
(0.0207464 -0.0104812 0)
(0.0291025 -0.00737778 0)
(0.0355654 -0.00402914 0)
(0.0399379 -0.000618894 0)
(0.0422108 0.00260295 0)
(0.0422449 0.00556778 0)
(0.0401399 0.00800401 0)
(0.0360781 0.00965838 0)
(0.0302058 0.00986571 0)
(0.022917 0.00893932 0)
(0.0152294 0.00711595 0)
(0.00825949 0.00481934 0)
(0.00308609 0.00234767 0)
(0.0002309 0.000298955 0)
(0.000200368 -0.00161324 0)
(0.00316866 -0.00534113 0)
(0.00742175 -0.00757602 0)
(0.0114097 -0.00786189 0)
(0.0146896 -0.00677964 0)
(0.017051 -0.00498775 0)
(0.0185182 -0.00305352 0)
(0.0191513 -0.0013058 0)
(0.0190262 7.35834e-05 0)
(0.0182431 0.00100174 0)
(0.0169496 0.00150873 0)
(0.0152212 0.00173767 0)
(0.0130747 0.00188255 0)
(0.010472 0.00211727 0)
(0.00732586 0.00254997 0)
(0.00353438 0.00320706 0)
(-0.00102596 0.00407872 0)
(-0.00651559 0.00517492 0)
(-0.0130603 0.00651824 0)
(-0.0207809 0.00814314 0)
(-0.0297626 0.0100567 0)
(-0.0399869 0.0122022 0)
(-0.0514236 0.0144959 0)
(-0.0639366 0.0168177 0)
(-0.0772757 0.0190435 0)
(-0.0911401 0.0210806 0)
(-0.105163 0.0228323 0)
(-0.11903 0.0242394 0)
(-0.132403 0.0252394 0)
(-0.14502 0.0258121 0)
(-0.156716 0.0259502 0)
(-0.167438 0.0256489 0)
(-0.177115 0.0249577 0)
(-0.185815 0.0239101 0)
(-0.193533 0.0225504 0)
(-0.200309 0.0209496 0)
(-0.206166 0.0191533 0)
(-0.211129 0.0172075 0)
(-0.215212 0.0151417 0)
(-0.218429 0.0129909 0)
(-0.220789 0.0107668 0)
(-0.222293 0.0084809 0)
(-0.222938 0.00614192 0)
(-0.222717 0.00374925 0)
(-0.221621 0.00130371 0)
(-0.219639 -0.00120139 0)
(-0.216724 -0.00378423 0)
(-0.21287 -0.00643552 0)
(-0.208052 -0.00912827 0)
(-0.202252 -0.0118718 0)
(-0.19544 -0.0146445 0)
(-0.187609 -0.0174289 0)
(-0.178745 -0.0201947 0)
(-0.168854 -0.0229012 0)
(-0.157952 -0.0254925 0)
(-0.146081 -0.0278962 0)
(-0.133318 -0.0300425 0)
(-0.119757 -0.0318402 0)
(-0.105514 -0.0331886 0)
(-0.0907776 -0.0339981 0)
(-0.0757635 -0.0341807 0)
(-0.0607 -0.0336558 0)
(-0.0458707 -0.0323811 0)
(-0.0315821 -0.030363 0)
(-0.0181067 -0.0275973 0)
(-0.00566724 -0.0241165 0)
(0.00545102 -0.0199846 0)
(0.0150257 -0.0153222 0)
(0.0229486 -0.0102844 0)
(0.0290809 -0.00505852 0)
(0.0333844 0.000128563 0)
(0.0358388 0.00505148 0)
(0.0363087 0.00935911 0)
(0.034721 0.0127283 0)
(0.0313512 0.0150473 0)
(0.0263088 0.0156298 0)
(0.0197534 0.0145816 0)
(0.0125849 0.0119794 0)
(0.00588782 0.00795053 0)
(0.000786333 0.00297479 0)
(0.000418302 -0.00355281 0)
(0.00423539 -0.00945149 0)
(0.00860174 -0.0118027 0)
(0.0121132 -0.0113115 0)
(0.0146455 -0.00924273 0)
(0.0161935 -0.00652834 0)
(0.0168572 -0.0037404 0)
(0.0167292 -0.00122181 0)
(0.0158889 0.000830079 0)
(0.014395 0.00234469 0)
(0.012245 0.00340382 0)
(0.00941582 0.00419615 0)
(0.00585613 0.00495453 0)
(0.00149534 0.00588152 0)
(-0.00374164 0.00709765 0)
(-0.00995355 0.00865337 0)
(-0.0172612 0.0105642 0)
(-0.0257846 0.0128338 0)
(-0.0356042 0.0154513 0)
(-0.0467339 0.0183834 0)
(-0.0590875 0.021537 0)
(-0.0724673 0.0247668 0)
(-0.0865817 0.0278955 0)
(-0.101068 0.0307549 0)
(-0.115626 0.033251 0)
(-0.129908 0.0351996 0)
(-0.143627 0.0365014 0)
(-0.156497 0.0371729 0)
(-0.168355 0.0372791 0)
(-0.179161 0.0368668 0)
(-0.188892 0.0359977 0)
(-0.197607 0.0347103 0)
(-0.205347 0.0330422 0)
(-0.212185 0.0310643 0)
(-0.218159 0.0288222 0)
(-0.223336 0.0263718 0)
(-0.227745 0.023753 0)
(-0.231419 0.0210078 0)
(-0.234376 0.0181593 0)
(-0.236627 0.0152282 0)
(-0.238178 0.0122265 0)
(-0.239023 0.00915899 0)
(-0.239155 0.006026 0)
(-0.238558 0.00282383 0)
(-0.237215 -0.000450943 0)
(-0.235102 -0.00380432 0)
(-0.232184 -0.00723557 0)
(-0.228435 -0.010765 0)
(-0.223823 -0.0143776 0)
(-0.218316 -0.0180663 0)
(-0.211879 -0.0218079 0)
(-0.204489 -0.0255797 0)
(-0.196122 -0.0293462 0)
(-0.186761 -0.0330548 0)
(-0.176401 -0.0366306 0)
(-0.165055 -0.0399755 0)
(-0.152766 -0.0429883 0)
(-0.139609 -0.0455591 0)
(-0.125679 -0.0475445 0)
(-0.111109 -0.0488001 0)
(-0.0960961 -0.0492139 0)
(-0.0808531 -0.048664 0)
(-0.0656346 -0.0470753 0)
(-0.0507559 -0.0444129 0)
(-0.0365689 -0.0407428 0)
(-0.0233301 -0.036126 0)
(-0.0112862 -0.0306543 0)
(-0.000657355 -0.024461 0)
(0.00840226 -0.0177788 0)
(0.0157734 -0.0108506 0)
(0.0214019 -0.00392824 0)
(0.0253002 0.0027612 0)
(0.027514 0.00890784 0)
(0.0280558 0.0140984 0)
(0.0267863 0.0179904 0)
(0.023744 0.0202804 0)
(0.0191056 0.0205272 0)
(0.0132688 0.018581 0)
(0.00690994 0.014243 0)
(0.00107041 0.00675075 0)
(0.000694947 -0.00604942 0)
(0.00491872 -0.0138083 0)
(0.00877502 -0.0155743 0)
(0.0114244 -0.0139749 0)
(0.0130034 -0.0108194 0)
(0.0135856 -0.00716388 0)
(0.0133184 -0.00355687 0)
(0.0122882 -0.000305183 0)
(0.0105316 0.00243679 0)
(0.00803578 0.00465542 0)
(0.00473726 0.0064666 0)
(0.000547728 0.00808357 0)
(-0.00462559 0.00975041 0)
(-0.0108709 0.0116716 0)
(-0.0182708 0.0139764 0)
(-0.026903 0.0167222 0)
(-0.0368275 0.0199156 0)
(-0.0480651 0.0235223 0)
(-0.0605533 0.0274423 0)
(-0.0741182 0.0315327 0)
(-0.0884713 0.0355687 0)
(-0.103255 0.0393497 0)
(-0.11811 0.0427419 0)
(-0.132727 0.0454622 0)
(-0.146722 0.0473833 0)
(-0.159777 0.0485182 0)
(-0.171798 0.0488896 0)
(-0.182728 0.0485554 0)
(-0.192618 0.0476205 0)
(-0.201511 0.0461804 0)
(-0.209468 0.0443161 0)
(-0.216579 0.0420982 0)
(-0.22289 0.0395758 0)
(-0.228462 0.0368011 0)
(-0.233345 0.033816 0)
(-0.237583 0.0306616 0)
(-0.241203 0.0273712 0)
(-0.244229 0.0239749 0)
(-0.246676 0.0204862 0)
(-0.248547 0.0169183 0)
(-0.249841 0.0132786 0)
(-0.250552 0.00956374 0)
(-0.250669 0.00576754 0)
(-0.250173 0.00188101 0)
(-0.24905 -0.002103 0)
(-0.247264 -0.00619407 0)
(-0.244781 -0.0103965 0)
(-0.241564 -0.014721 0)
(-0.237582 -0.0191682 0)
(-0.232799 -0.0237358 0)
(-0.227154 -0.0283942 0)
(-0.220611 -0.0331177 0)
(-0.21313 -0.0378675 0)
(-0.204672 -0.0425819 0)
(-0.195208 -0.047173 0)
(-0.184723 -0.0515202 0)
(-0.173214 -0.0554892 0)
(-0.160738 -0.0589533 0)
(-0.147348 -0.0617255 0)
(-0.13314 -0.0636148 0)
(-0.118285 -0.0644781 0)
(-0.102965 -0.0641371 0)
(-0.0874323 -0.0624746 0)
(-0.0719304 -0.0594185 0)
(-0.0568224 -0.0549928 0)
(-0.042531 -0.0493285 0)
(-0.0293221 -0.04256 0)
(-0.0174267 -0.0348882 0)
(-0.00705677 -0.0265772 0)
(0.00163693 -0.0179358 0)
(0.00858103 -0.00928192 0)
(0.0137839 -0.000910477 0)
(0.0173136 0.00687046 0)
(0.0192423 0.0137339 0)
(0.0195857 0.0193181 0)
(0.0183541 0.0231706 0)
(0.0155576 0.0248408 0)
(0.0114043 0.024009 0)
(0.00625489 0.0200539 0)
(0.000936428 0.010539 0)
(0.00100328 -0.00894266 0)
(0.0051217 -0.0178206 0)
(0.00803188 -0.0183898 0)
(0.00956675 -0.0156055 0)
(0.0100854 -0.0113605 0)
(0.00964212 -0.00680957 0)
(0.00838227 -0.00241198 0)
(0.00634982 0.00158882 0)
(0.00352783 0.00509699 0)
(-0.000152459 0.00814885 0)
(-0.00479731 0.010895 0)
(-0.0105215 0.0135589 0)
(-0.0174274 0.0163747 0)
(-0.025596 0.0195301 0)
(-0.0350824 0.0231355 0)
(-0.0459015 0.027214 0)
(-0.0580078 0.0317111 0)
(-0.0712763 0.0365315 0)
(-0.0854838 0.0414459 0)
(-0.100266 0.0461954 0)
(-0.11527 0.0506154 0)
(-0.130146 0.0543496 0)
(-0.144435 0.0572083 0)
(-0.15777 0.059126 0)
(-0.170013 0.0600655 0)
(-0.181166 0.0601117 0)
(-0.191278 0.0593919 0)
(-0.200421 0.0580378 0)
(-0.208683 0.0561627 0)
(-0.216122 0.0538557 0)
(-0.222812 0.0511926 0)
(-0.228806 0.0482295 0)
(-0.234153 0.0450184 0)
(-0.238905 0.0416022 0)
(-0.243097 0.0380146 0)
(-0.246759 0.0342861 0)
(-0.249908 0.0304433 0)
(-0.252562 0.0265104 0)
(-0.254732 0.0224961 0)
(-0.256421 0.0184051 0)
(-0.257627 0.0142396 0)
(-0.258349 0.00998992 0)
(-0.258581 0.00564285 0)
(-0.258313 0.00118181 0)
(-0.257547 -0.00341425 0)
(-0.25625 -0.00815943 0)
(-0.254394 -0.0130587 0)
(-0.251931 -0.0181133 0)
(-0.248817 -0.0233254 0)
(-0.245003 -0.0286979 0)
(-0.240435 -0.0342101 0)
(-0.23503 -0.0398221 0)
(-0.228719 -0.0454874 0)
(-0.221433 -0.0511363 0)
(-0.213151 -0.0567072 0)
(-0.203869 -0.062105 0)
(-0.193455 -0.0671097 0)
(-0.181952 -0.0715827 0)
(-0.169395 -0.0753073 0)
(-0.155786 -0.078026 0)
(-0.141303 -0.079571 0)
(-0.12607 -0.0796988 0)
(-0.110331 -0.0782735 0)
(-0.0943429 -0.0751288 0)
(-0.0783908 -0.0702442 0)
(-0.0628902 -0.0637084 0)
(-0.0483197 -0.0557904 0)
(-0.0349418 -0.0467141 0)
(-0.0230265 -0.0367945 0)
(-0.0127904 -0.0264159 0)
(-0.00436256 -0.015983 0)
(0.00223096 -0.00588013 0)
(0.00705774 0.00354587 0)
(0.0102432 0.0119711 0)
(0.0119035 0.019068 0)
(0.0121031 0.0244098 0)
(0.010852 0.0275136 0)
(0.0082462 0.0279041 0)
(0.00463656 0.0246546 0)
(0.0005616 0.0136604 0)
(0.00125508 -0.0119837 0)
(0.00478031 -0.0209767 0)
(0.0063924 -0.0201128 0)
(0.00681872 -0.0160519 0)
(0.00618904 -0.0108152 0)
(0.00468587 -0.00541924 0)
(0.00237717 -0.000229773 0)
(-0.000746532 0.00457655 0)
(-0.00475078 0.00895811 0)
(-0.00973962 0.0129888 0)
(-0.0158331 0.0168352 0)
(-0.0231431 0.0207127 0)
(-0.031755 0.0248287 0)
(-0.0417142 0.0293335 0)
(-0.0530129 0.0342873 0)
(-0.0655612 0.0396454 0)
(-0.0792171 0.045275 0)
(-0.0936824 0.0509297 0)
(-0.108563 0.0563885 0)
(-0.123526 0.0612811 0)
(-0.1381 0.0653322 0)
(-0.151801 0.0683351 0)
(-0.164419 0.0702012 0)
(-0.175923 0.0709834 0)
(-0.186376 0.0708195 0)
(-0.195844 0.0698503 0)
(-0.204423 0.0682075 0)
(-0.212194 0.0660147 0)
(-0.219232 0.0633705 0)
(-0.22559 0.0603573 0)
(-0.231322 0.0570413 0)
(-0.236467 0.0534701 0)
(-0.241067 0.0496892 0)
(-0.245158 0.0457351 0)
(-0.248767 0.0416402 0)
(-0.251911 0.0374324 0)
(-0.254607 0.0331383 0)
(-0.256864 0.0287741 0)
(-0.258695 0.0243449 0)
(-0.26012 0.0198033 0)
(-0.26116 0.0151756 0)
(-0.261789 0.0104716 0)
(-0.262005 0.00567259 0)
(-0.261791 0.000764184 0)
(-0.261137 -0.00427323 0)
(-0.260074 -0.00946476 0)
(-0.258583 -0.0148334 0)
(-0.256671 -0.0204108 0)
(-0.25431 -0.0262223 0)
(-0.251474 -0.0322989 0)
(-0.24813 -0.0386073 0)
(-0.244177 -0.0450915 0)
(-0.239523 -0.0517273 0)
(-0.234061 -0.0584517 0)
(-0.227633 -0.0651442 0)
(-0.220059 -0.0716288 0)
(-0.211235 -0.0776961 0)
(-0.201118 -0.0832029 0)
(-0.189912 -0.0880673 0)
(-0.17737 -0.0918438 0)
(-0.163684 -0.0943398 0)
(-0.148908 -0.0952316 0)
(-0.133285 -0.0943412 0)
(-0.117015 -0.0914458 0)
(-0.10044 -0.0864844 0)
(-0.0838528 -0.0794213 0)
(-0.0678139 -0.0705166 0)
(-0.0528326 -0.0601548 0)
(-0.03919 -0.0486707 0)
(-0.0271902 -0.0365207 0)
(-0.0170538 -0.0242114 0)
(-0.00888189 -0.0122419 0)
(-0.00265108 -0.0010563 0)
(0.00178154 0.00897974 0)
(0.00461465 0.017553 0)
(0.00600503 0.0242984 0)
(0.00604151 0.028761 0)
(0.00479395 0.0303291 0)
(0.00264957 0.0277786 0)
(9.85801e-05 0.0156312 0)
(0.00135897 -0.0148324 0)
(0.00378243 -0.0229962 0)
(0.0041683 -0.0206094 0)
(0.00336144 -0.015286 0)
(0.00158827 -0.00916351 0)
(-0.00100349 -0.00295336 0)
(-0.00441247 0.00305758 0)
(-0.00869609 0.00874738 0)
(-0.0139522 0.0141112 0)
(-0.0202951 0.0192423 0)
(-0.0278353 0.0243045 0)
(-0.03666 0.0294879 0)
(-0.0468134 0.0349546 0)
(-0.0582816 0.04079 0)
(-0.0709693 0.0469876 0)
(-0.0847006 0.0534033 0)
(-0.0991409 0.0597824 0)
(-0.113925 0.0658491 0)
(-0.128608 0.0712214 0)
(-0.142697 0.0755898 0)
(-0.155796 0.0787265 0)
(-0.167798 0.0806153 0)
(-0.178715 0.0813568 0)
(-0.188607 0.0811051 0)
(-0.197564 0.0799938 0)
(-0.205675 0.0781701 0)
(-0.213029 0.0757555 0)
(-0.219689 0.0728593 0)
(-0.225709 0.0695656 0)
(-0.23113 0.0659475 0)
(-0.23599 0.0620638 0)
(-0.240321 0.0579629 0)
(-0.244153 0.0536878 0)
(-0.247505 0.0492795 0)
(-0.250391 0.0447766 0)
(-0.252849 0.0401739 0)
(-0.25497 0.0354487 0)
(-0.256743 0.0306489 0)
(-0.258179 0.0257716 0)
(-0.259273 0.0208616 0)
(-0.260019 0.0158842 0)
(-0.260431 0.0108115 0)
(-0.260513 0.00563825 0)
(-0.260269 0.000345725 0)
(-0.259708 -0.00508281 0)
(-0.258852 -0.0106573 0)
(-0.257677 -0.0164079 0)
(-0.25618 -0.022351 0)
(-0.254341 -0.0285002 0)
(-0.252135 -0.0348547 0)
(-0.249529 -0.0414833 0)
(-0.246516 -0.0484332 0)
(-0.243051 -0.0556669 0)
(-0.239079 -0.0631534 0)
(-0.234519 -0.0708493 0)
(-0.229279 -0.0786591 0)
(-0.223115 -0.0862359 0)
(-0.215688 -0.0933398 0)
(-0.206584 -0.0994962 0)
(-0.195849 -0.104497 0)
(-0.183658 -0.108228 0)
(-0.169988 -0.110233 0)
(-0.155055 -0.110295 0)
(-0.138995 -0.108068 0)
(-0.122174 -0.103454 0)
(-0.104874 -0.0963431 0)
(-0.0875269 -0.086807 0)
(-0.0708462 -0.0753181 0)
(-0.0553725 -0.0623891 0)
(-0.0414327 -0.0484814 0)
(-0.0293623 -0.0342064 0)
(-0.0193749 -0.0201964 0)
(-0.0115333 -0.00703884 0)
(-0.00574215 0.0047857 0)
(-0.0017713 0.0149154 0)
(0.00065999 0.0230492 0)
(0.00176183 0.0287804 0)
(0.00169962 0.0314414 0)
(0.000803396 0.0294119 0)
(-0.00027026 0.0163766 0)
(0.00127397 -0.0171913 0)
(0.00236454 -0.0237368 0)
(0.00144742 -0.0197555 0)
(-0.000581341 -0.0133664 0)
(-0.00348095 -0.00640263 0)
(-0.00718001 0.000621815 0)
(-0.0117211 0.00749867 0)
(-0.0171952 0.014146 0)
(-0.0237106 0.0205773 0)
(-0.0313714 0.0268847 0)
(-0.0402612 0.0332113 0)
(-0.0504241 0.039704 0)
(-0.061843 0.0464592 0)
(-0.0744446 0.0534968 0)
(-0.08804 0.0606947 0)
(-0.102264 0.067794 0)
(-0.116768 0.0744596 0)
(-0.131075 0.0803244 0)
(-0.144641 0.0850313 0)
(-0.157231 0.0884044 0)
(-0.168728 0.0904305 0)
(-0.179155 0.0912511 0)
(-0.188579 0.0909944 0)
(-0.197097 0.0898294 0)
(-0.204794 0.0878942 0)
(-0.21175 0.0853268 0)
(-0.218028 0.0822319 0)
(-0.223672 0.0787046 0)
(-0.228722 0.0748202 0)
(-0.233213 0.0706465 0)
(-0.237175 0.0662395 0)
(-0.24064 0.0616485 0)
(-0.24363 0.0569174 0)
(-0.246218 0.0520488 0)
(-0.248442 0.0470771 0)
(-0.250316 0.0420477 0)
(-0.251809 0.0369973 0)
(-0.25294 0.0318929 0)
(-0.253728 0.0267364 0)
(-0.254209 0.0215259 0)
(-0.254424 0.0162494 0)
(-0.2544 0.0109005 0)
(-0.254161 0.00546709 0)
(-0.253733 -7.37449e-05 0)
(-0.25313 -0.00575001 0)
(-0.252318 -0.0115764 0)
(-0.251326 -0.0175914 0)
(-0.250145 -0.0238249 0)
(-0.248776 -0.0303067 0)
(-0.247205 -0.037057 0)
(-0.245416 -0.0440881 0)
(-0.243379 -0.0514027 0)
(-0.241047 -0.0589938 0)
(-0.238357 -0.0668308 0)
(-0.235221 -0.0748463 0)
(-0.231513 -0.0829926 0)
(-0.227238 -0.0914248 0)
(-0.222233 -0.0998269 0)
(-0.216265 -0.1079 0)
(-0.208915 -0.115053 0)
(-0.199453 -0.120579 0)
(-0.187772 -0.124008 0)
(-0.174399 -0.125486 0)
(-0.159288 -0.124427 0)
(-0.142849 -0.120688 0)
(-0.125371 -0.114083 0)
(-0.107221 -0.104526 0)
(-0.0890147 -0.0922909 0)
(-0.0716031 -0.0780451 0)
(-0.0556055 -0.0624805 0)
(-0.0413985 -0.0462082 0)
(-0.0293401 -0.030002 0)
(-0.0196213 -0.0146179 0)
(-0.0122454 -0.000716497 0)
(-0.00701806 0.0112041 0)
(-0.00358651 0.0208157 0)
(-0.00158625 0.0277823 0)
(-0.000684533 0.0313668 0)
(-0.000490757 0.029766 0)
(-0.000379465 0.0162205 0)
(0.00103354 -0.0185397 0)
(0.00066224 -0.0230864 0)
(-0.00158408 -0.0176074 0)
(-0.00478184 -0.0102931 0)
(-0.00880035 -0.00252761 0)
(-0.0136121 0.00532246 0)
(-0.0192868 0.0131054 0)
(-0.0259321 0.0207623 0)
(-0.0336493 0.0283048 0)
(-0.0425172 0.0358057 0)
(-0.0525783 0.0433696 0)
(-0.0638183 0.0510829 0)
(-0.0761796 0.0589822 0)
(-0.0894948 0.0669753 0)
(-0.103401 0.0747958 0)
(-0.11751 0.0820997 0)
(-0.131373 0.0885122 0)
(-0.144498 0.0936499 0)
(-0.156645 0.0973597 0)
(-0.167724 0.0996571 0)
(-0.17773 0.100633 0)
(-0.186755 0.100465 0)
(-0.194878 0.0993116 0)
(-0.202189 0.097334 0)
(-0.208754 0.0946614 0)
(-0.214631 0.0914135 0)
(-0.219862 0.0876832 0)
(-0.224485 0.0835577 0)
(-0.228534 0.0791088 0)
(-0.232046 0.0744023 0)
(-0.235057 0.0694934 0)
(-0.237605 0.0644302 0)
(-0.239735 0.0592511 0)
(-0.24145 0.0540073 0)
(-0.242783 0.048706 0)
(-0.243773 0.0433578 0)
(-0.244445 0.0379743 0)
(-0.244864 0.0325591 0)
(-0.245072 0.0271239 0)
(-0.245089 0.0216693 0)
(-0.244924 0.0161831 0)
(-0.244601 0.0106504 0)
(-0.244136 0.00505202 0)
(-0.243549 -0.000635969 0)
(-0.242842 -0.00643778 0)
(-0.24202 -0.0123886 0)
(-0.241108 -0.0185162 0)
(-0.240109 -0.0248547 0)
(-0.239036 -0.0314374 0)
(-0.237888 -0.0382983 0)
(-0.236664 -0.0454704 0)
(-0.235355 -0.0529807 0)
(-0.233941 -0.0608451 0)
(-0.232381 -0.0690616 0)
(-0.230607 -0.0775946 0)
(-0.228519 -0.0863633 0)
(-0.226007 -0.0952468 0)
(-0.222905 -0.104089 0)
(-0.218987 -0.112802 0)
(-0.214218 -0.1214 0)
(-0.208234 -0.129298 0)
(-0.200486 -0.135592 0)
(-0.189867 -0.139108 0)
(-0.176745 -0.139761 0)
(-0.161559 -0.137493 0)
(-0.144678 -0.132048 0)
(-0.126408 -0.123152 0)
(-0.107318 -0.110918 0)
(-0.0881582 -0.0957661 0)
(-0.0699691 -0.0786373 0)
(-0.0534717 -0.060431 0)
(-0.0390966 -0.0419339 0)
(-0.0272009 -0.0240901 0)
(-0.0179282 -0.00777213 0)
(-0.0111921 0.00630377 0)
(-0.0066519 0.0176533 0)
(-0.00379661 0.025942 0)
(-0.00216616 0.0303212 0)
(-0.00115297 0.0291699 0)
(-0.000346902 0.0156163 0)
(0.000723501 -0.0189004 0)
(-0.00122241 -0.0210356 0)
(-0.00472909 -0.0142422 0)
(-0.00905831 -0.00607539 0)
(-0.0141789 0.00246006 0)
(-0.0200783 0.0111365 0)
(-0.0268493 0.0198454 0)
(-0.0345962 0.0285283 0)
(-0.0434003 0.0371758 0)
(-0.0533043 0.0458244 0)
(-0.0642989 0.0545253 0)
(-0.0763389 0.0633132 0)
(-0.0892841 0.0721248 0)
(-0.102802 0.0806996 0)
(-0.116485 0.0886847 0)
(-0.129902 0.0957044 0)
(-0.142635 0.101399 0)
(-0.15441 0.105574 0)
(-0.165128 0.108235 0)
(-0.174786 0.109477 0)
(-0.183453 0.109474 0)
(-0.191222 0.108409 0)
(-0.198161 0.10644 0)
(-0.204338 0.103711 0)
(-0.209798 0.10034 0)
(-0.214583 0.0964341 0)
(-0.21873 0.0920831 0)
(-0.222278 0.0873727 0)
(-0.225269 0.0823771 0)
(-0.227745 0.0771636 0)
(-0.229752 0.0717892 0)
(-0.231336 0.066302 0)
(-0.232541 0.0607393 0)
(-0.233409 0.0551331 0)
(-0.233986 0.0495034 0)
(-0.234318 0.0438691 0)
(-0.234438 0.0382438 0)
(-0.234381 0.0326303 0)
(-0.23417 0.0270244 0)
(-0.233825 0.0214183 0)
(-0.233361 0.0157986 0)
(-0.232795 0.0101476 0)
(-0.232141 0.00444398 0)
(-0.231415 -0.00133495 0)
(-0.230625 -0.0072124 0)
(-0.229783 -0.0132243 0)
(-0.228907 -0.0193997 0)
(-0.228011 -0.0257723 0)
(-0.227109 -0.0323759 0)
(-0.226213 -0.0392462 0)
(-0.225335 -0.0464195 0)
(-0.224483 -0.0539299 0)
(-0.223658 -0.0618068 0)
(-0.222847 -0.0700711 0)
(-0.222019 -0.0787309 0)
(-0.221116 -0.0877754 0)
(-0.220048 -0.0971547 0)
(-0.218676 -0.106735 0)
(-0.216807 -0.116304 0)
(-0.214201 -0.125579 0)
(-0.210538 -0.134245 0)
(-0.205676 -0.142491 0)
(-0.19911 -0.149179 0)
(-0.189859 -0.15307 0)
(-0.177073 -0.152892 0)
(-0.161856 -0.149384 0)
(-0.144382 -0.141943 0)
(-0.125223 -0.130536 0)
(-0.105085 -0.115374 0)
(-0.084925 -0.0971207 0)
(-0.0659837 -0.0770258 0)
(-0.0490992 -0.0562463 0)
(-0.0347422 -0.03577 0)
(-0.0232353 -0.0167154 0)
(-0.0146398 -6.02708e-05 0)
(-0.00872627 0.0134526 0)
(-0.0049218 0.0233374 0)
(-0.00270008 0.028603 0)
(-0.00119666 0.0280084 0)
(-0.000169328 0.014822 0)
(0.000152092 -0.018111 0)
(-0.00320186 -0.017654 0)
(-0.00786167 -0.00967492 0)
(-0.0132693 -0.00074932 0)
(-0.0194468 0.00852111 0)
(-0.0263783 0.0180127 0)
(-0.0341641 0.0276403 0)
(-0.0428974 0.0373255 0)
(-0.0526294 0.0470211 0)
(-0.0633586 0.0567146 0)
(-0.0750484 0.0664112 0)
(-0.0875853 0.0760644 0)
(-0.100679 0.0854296 0)
(-0.113932 0.0941538 0)
(-0.126932 0.101861 0)
(-0.139313 0.108215 0)
(-0.150784 0.112985 0)
(-0.161199 0.116121 0)
(-0.170565 0.117733 0)
(-0.17893 0.117988 0)
(-0.186376 0.117079 0)
(-0.192973 0.115179 0)
(-0.198775 0.112434 0)
(-0.203828 0.108974 0)
(-0.208171 0.104911 0)
(-0.211847 0.100352 0)
(-0.214901 0.0953893 0)
(-0.217385 0.0901128 0)
(-0.219355 0.0846003 0)
(-0.220869 0.0789208 0)
(-0.221983 0.0731317 0)
(-0.222752 0.0672795 0)
(-0.223229 0.0614003 0)
(-0.223461 0.0555228 0)
(-0.223492 0.0496663 0)
(-0.223355 0.0438449 0)
(-0.223078 0.0380633 0)
(-0.222684 0.0323168 0)
(-0.22219 0.0265977 0)
(-0.221609 0.0208941 0)
(-0.220955 0.0151903 0)
(-0.220239 0.00946773 0)
(-0.219473 0.00370513 0)
(-0.218667 -0.00212028 0)
(-0.217832 -0.00803302 0)
(-0.216981 -0.0140643 0)
(-0.216128 -0.0202439 0)
(-0.215289 -0.0266044 0)
(-0.214482 -0.0331797 0)
(-0.213725 -0.0400054 0)
(-0.213037 -0.0471185 0)
(-0.212436 -0.0545555 0)
(-0.211937 -0.0623505 0)
(-0.211549 -0.0705327 0)
(-0.211268 -0.0791249 0)
(-0.211076 -0.0881399 0)
(-0.210929 -0.0975708 0)
(-0.210743 -0.107376 0)
(-0.210382 -0.117463 0)
(-0.209639 -0.12764 0)
(-0.208226 -0.137557 0)
(-0.20579 -0.146733 0)
(-0.201871 -0.154902 0)
(-0.196206 -0.161794 0)
(-0.187904 -0.165714 0)
(-0.175553 -0.164917 0)
(-0.160151 -0.159925 0)
(-0.141958 -0.15028 0)
(-0.121779 -0.136072 0)
(-0.100518 -0.117726 0)
(-0.0793796 -0.0962001 0)
(-0.0598162 -0.0731143 0)
(-0.0427759 -0.0499409 0)
(-0.028731 -0.027883 0)
(-0.0179243 -0.00823829 0)
(-0.0102825 0.00794516 0)
(-0.0053083 0.0198892 0)
(-0.00245139 0.0264752 0)
(-0.00075181 0.0267106 0)
(8.85783e-05 0.014281 0)
(-0.00042384 -0.0160737 0)
(-0.00514014 -0.0129805 0)
(-0.010864 -0.00398688 0)
(-0.0172829 0.00561659 0)
(-0.0244441 0.0155805 0)
(-0.0323202 0.0258621 0)
(-0.0410083 0.0363727 0)
(-0.0505825 0.0469981 0)
(-0.0610575 0.057642 0)
(-0.0724044 0.0682464 0)
(-0.0845314 0.0787535 0)
(-0.0971933 0.0889336 0)
(-0.110027 0.0984519 0)
(-0.122649 0.10693 0)
(-0.134717 0.114038 0)
(-0.145941 0.119522 0)
(-0.156128 0.123265 0)
(-0.165257 0.125355 0)
(-0.173376 0.125967 0)
(-0.180548 0.125294 0)
(-0.186843 0.123524 0)
(-0.19231 0.120814 0)
(-0.196991 0.117302 0)
(-0.200932 0.113116 0)
(-0.204179 0.108372 0)
(-0.20679 0.103181 0)
(-0.208827 0.0976448 0)
(-0.21036 0.0918558 0)
(-0.211457 0.0858941 0)
(-0.212184 0.0798277 0)
(-0.212603 0.0737107 0)
(-0.21277 0.0675851 0)
(-0.212734 0.0614816 0)
(-0.212535 0.0554221 0)
(-0.212207 0.0494188 0)
(-0.211775 0.043477 0)
(-0.211257 0.0375948 0)
(-0.210668 0.0317644 0)
(-0.210019 0.0259743 0)
(-0.209319 0.0202106 0)
(-0.208576 0.0144566 0)
(-0.207796 0.00869294 0)
(-0.206987 0.00289876 0)
(-0.206156 -0.00294842 0)
(-0.205313 -0.00887289 0)
(-0.204468 -0.0149021 0)
(-0.203635 -0.0210642 0)
(-0.202829 -0.0273896 0)
(-0.202071 -0.0339103 0)
(-0.201379 -0.0406606 0)
(-0.200779 -0.0476763 0)
(-0.200294 -0.0549947 0)
(-0.199948 -0.0626531 0)
(-0.199763 -0.0706871 0)
(-0.199752 -0.0791292 0)
(-0.199922 -0.088005 0)
(-0.20026 -0.0973261 0)
(-0.20073 -0.107084 0)
(-0.201258 -0.117242 0)
(-0.201714 -0.127713 0)
(-0.201889 -0.138331 0)
(-0.201476 -0.148788 0)
(-0.200064 -0.158515 0)
(-0.197119 -0.166842 0)
(-0.192093 -0.173562 0)
(-0.184313 -0.17729 0)
(-0.172261 -0.175735 0)
(-0.156467 -0.169055 0)
(-0.1374 -0.156895 0)
(-0.116076 -0.139549 0)
(-0.0936764 -0.117737 0)
(-0.0716852 -0.0927847 0)
(-0.0517732 -0.0667979 0)
(-0.0349608 -0.0415624 0)
(-0.0216521 -0.0185504 0)
(-0.0119545 0.000815245 0)
(-0.0055265 0.0154261 0)
(-0.00188568 0.023978 0)
(-4.48066e-05 0.0255339 0)
(0.000377318 0.0142348 0)
(-0.00100451 -0.0128804 0)
(-0.0069578 -0.00713428 0)
(-0.013642 0.00273871 0)
(-0.0209834 0.0129415 0)
(-0.0290342 0.0235481 0)
(-0.0377423 0.0345714 0)
(-0.0471973 0.0459009 0)
(-0.0574486 0.0573723 0)
(-0.0684823 0.0688399 0)
(-0.0802239 0.0801924 0)
(-0.0924686 0.0911941 0)
(-0.104905 0.101544 0)
(-0.117191 0.110865 0)
(-0.128987 0.118815 0)
(-0.140013 0.12512 0)
(-0.150043 0.129603 0)
(-0.159006 0.132296 0)
(-0.16694 0.133371 0)
(-0.173902 0.133028 0)
(-0.179951 0.131462 0)
(-0.18514 0.128848 0)
(-0.189511 0.125337 0)
(-0.193112 0.121069 0)
(-0.195999 0.116178 0)
(-0.19824 0.110791 0)
(-0.19991 0.105026 0)
(-0.201088 0.0989887 0)
(-0.201852 0.0927729 0)
(-0.202276 0.0864552 0)
(-0.202427 0.0800976 0)
(-0.202363 0.0737468 0)
(-0.202134 0.0674366 0)
(-0.201778 0.0611892 0)
(-0.201325 0.0550178 0)
(-0.2008 0.0489266 0)
(-0.200217 0.0429146 0)
(-0.199588 0.0369746 0)
(-0.198922 0.031096 0)
(-0.198222 0.0252655 0)
(-0.197492 0.0194664 0)
(-0.196736 0.0136818 0)
(-0.195956 0.00789312 0)
(-0.195155 0.00207969 0)
(-0.194339 -0.00377973 0)
(-0.193515 -0.0097078 0)
(-0.19269 -0.0157289 0)
(-0.191877 -0.0218686 0)
(-0.191092 -0.028154 0)
(-0.190353 -0.0346143 0)
(-0.189682 -0.0412806 0)
(-0.189105 -0.0481863 0)
(-0.188648 -0.0553672 0)
(-0.188343 -0.0628608 0)
(-0.188218 -0.0707059 0)
(-0.1883 -0.0789413 0)
(-0.188611 -0.0876033 0)
(-0.189159 -0.0967205 0)
(-0.189938 -0.106309 0)
(-0.190911 -0.116361 0)
(-0.192007 -0.126835 0)
(-0.193094 -0.13764 0)
(-0.193967 -0.148612 0)
(-0.194304 -0.159462 0)
(-0.193656 -0.169666 0)
(-0.191445 -0.178377 0)
(-0.186918 -0.184722 0)
(-0.179316 -0.187903 0)
(-0.16726 -0.185342 0)
(-0.150833 -0.176638 0)
(-0.130708 -0.161541 0)
(-0.108164 -0.14066 0)
(-0.0846868 -0.11505 0)
(-0.0621297 -0.0865914 0)
(-0.0423331 -0.057972 0)
(-0.0263105 -0.0312521 0)
(-0.0143038 -0.00819461 0)
(-0.00615992 0.00971686 0)
(-0.00150679 0.0209725 0)
(0.000602544 0.0244862 0)
(0.000582755 0.0146207 0)
(-0.00155636 -0.00859573 0)
(-0.00859314 -0.000233957 0)
(-0.0161259 0.0103979 0)
(-0.0242869 0.0211226 0)
(-0.0331102 0.0323101 0)
(-0.0425195 0.0440089 0)
(-0.0525924 0.0560693 0)
(-0.063352 0.0682756 0)
(-0.0747488 0.0804193 0)
(-0.0866047 0.0922303 0)
(-0.0986761 0.103421 0)
(-0.110662 0.113635 0)
(-0.122229 0.122502 0)
(-0.133102 0.129722 0)
(-0.143037 0.135068 0)
(-0.151913 0.138503 0)
(-0.159735 0.140161 0)
(-0.166558 0.140254 0)
(-0.172435 0.138984 0)
(-0.177418 0.136541 0)
(-0.181553 0.133095 0)
(-0.184893 0.1288 0)
(-0.187502 0.12381 0)
(-0.189457 0.118267 0)
(-0.190843 0.112309 0)
(-0.191749 0.106056 0)
(-0.192262 0.0996144 0)
(-0.192462 0.0930713 0)
(-0.19242 0.0864956 0)
(-0.192195 0.0799393 0)
(-0.191837 0.0734388 0)
(-0.191383 0.0670179 0)
(-0.190863 0.0606898 0)
(-0.190297 0.0544593 0)
(-0.189698 0.0483244 0)
(-0.189075 0.0422782 0)
(-0.188432 0.0363098 0)
(-0.18777 0.0304061 0)
(-0.187091 0.0245528 0)
(-0.186392 0.018732 0)
(-0.185673 0.0129259 0)
(-0.184935 0.0071175 0)
(-0.184177 0.0012874 0)
(-0.183402 -0.00458434 0)
(-0.182615 -0.0105179 0)
(-0.181822 -0.0165348 0)
(-0.181034 -0.0226574 0)
(-0.180265 -0.0289093 0)
(-0.179532 -0.0353159 0)
(-0.178857 -0.0419046 0)
(-0.178264 -0.0487052 0)
(-0.177784 -0.0557503 0)
(-0.177448 -0.0630755 0)
(-0.177291 -0.0707196 0)
(-0.177348 -0.078724 0)
(-0.177652 -0.0871311 0)
(-0.178228 -0.095982 0)
(-0.17909 -0.105312 0)
(-0.180232 -0.115142 0)
(-0.181618 -0.125469 0)