/*--------------------------------*- C++ -*----------------------------------*\
  =========                 |
  \\      /  F ield         | OpenFOAM: The Open Source CFD Toolbox
   \\    /   O peration     | Website:  https://openfoam.org
    \\  /    A nd           | Version:  13
     \\/     M anipulation  |
\*---------------------------------------------------------------------------*/
FoamFile
{
    format      ascii;
    class       volScalarField;
    location    "1800";
    object      k;
}
// * * * * * * * * * * * * * * * * * * * * * * * * * * * * * * * * * * * * * //

dimensions      [0 2 -2 0 0 0 0];

internalField   nonuniform List<scalar> 
12225
(
0.292011
2.32518
2.24195
1.94468
1.89292
1.7948
1.88094
1.57387
1.45693
1.71781
1.5064
1.73465
1.48623
2.20365
2.14001
2.5125
2.09871
1.59685
0.305789
0.461829
0.604765
0.611233
0.623456
0.594853
0.630367
0.63499
0.647236
0.654766
0.670426
0.706808
0.674623
0.633606
0.638992
0.63621
0.664642
0.697748
0.355286
0.361337
0.326986
0.258118
0.232763
0.224074
0.212391
0.204926
0.199055
0.18837
0.184266
0.149145
0.107079
0.104793
0.106452
0.0954291
0.0894843
0.0957938
0.368258
0.366555
0.352822
0.291577
0.224419
0.162328
0.118479
0.0843006
0.0647568
0.0577416
0.0573856
0.0498447
0.0419329
0.0383259
0.0361542
0.0340347
0.0337864
0.0335219
0.372336
0.3697
0.365559
0.346365
0.309774
0.266784
0.226398
0.189958
0.159467
0.134052
0.114167
0.0999449
0.0897893
0.0811585
0.0757626
0.071151
0.0688754
0.0659754
0.373362
0.371149
0.368181
0.361158
0.342385
0.321484
0.296954
0.274567
0.253522
0.236635
0.219599
0.204117
0.193267
0.182022
0.174303
0.166356
0.161682
0.155538
0.373636
0.371694
0.368696
0.365111
0.35684
0.345418
0.332321
0.319609
0.306712
0.296542
0.286913
0.277447
0.269777
0.262579
0.257091
0.250839
0.247516
0.241674
0.373721
0.37178
0.369241
0.366847
0.36242
0.356001
0.348783
0.341994
0.33478
0.328539
0.323086
0.317597
0.313313
0.308389
0.305055
0.300259
0.297792
0.29304
0.373777
0.37167
0.369501
0.367408
0.364514
0.360682
0.356407
0.352181
0.347978
0.344004
0.34049
0.336898
0.334032
0.330803
0.328446
0.325324
0.323536
0.32049
0.373823
0.371578
0.369546
0.367521
0.365281
0.362597
0.359732
0.356832
0.354023
0.351266
0.348779
0.346241
0.344081
0.341796
0.339959
0.337824
0.336334
0.334319
0.373845
0.371541
0.369482
0.36748
0.365496
0.363358
0.361178
0.358981
0.356865
0.354768
0.352827
0.350877
0.349127
0.347355
0.345821
0.344199
0.342887
0.341388
0.373842
0.371547
0.369442
0.367425
0.36551
0.36358
0.361685
0.359806
0.358003
0.356229
0.354557
0.352909
0.351376
0.349866
0.348494
0.347117
0.345914
0.344643
0.373838
0.371552
0.369418
0.367389
0.365476
0.363623
0.361846
0.360119
0.35847
0.356866
0.355345
0.353861
0.352465
0.351102
0.349837
0.348594
0.34746
0.34632
0.373831
0.371555
0.369408
0.367369
0.365446
0.363608
0.361865
0.360194
0.358606
0.35708
0.355629
0.354232
0.352904
0.351626
0.350415
0.349251
0.348152
0.34709
0.373829
0.371553
0.3694
0.36736
0.365425
0.363589
0.361844
0.360186
0.358607
0.357106
0.355671
0.354306
0.352998
0.351754
0.350563
0.349429
0.348345
0.347311
0.373826
0.371552
0.369396
0.367351
0.365414
0.363572
0.361826
0.360163
0.358586
0.35708
0.355652
0.354284
0.352985
0.351741
0.350559
0.349426
0.34835
0.347317
0.373826
0.37155
0.369392
0.367346
0.365405
0.363563
0.361812
0.360148
0.358565
0.357059
0.355624
0.354257
0.352953
0.351711
0.350524
0.349394
0.348313
0.347284
0.373825
0.371549
0.369391
0.367344
0.365401
0.363557
0.361804
0.360138
0.358552
0.357044
0.355606
0.354238
0.352932
0.351689
0.3505
0.349369
0.348286
0.347256
0.373825
0.37155
0.369391
0.367344
0.365401
0.363556
0.361802
0.360136
0.358549
0.35704
0.355601
0.354233
0.352925
0.351681
0.350492
0.34936
0.348277
0.347246
0.373825
0.371551
0.369394
0.367349
0.365405
0.363564
0.361809
0.360146
0.358556
0.35705
0.355606
0.354238
0.352925
0.351682
0.350487
0.349356
0.348267
0.347236
0.373829
0.37155
0.369398
0.367359
0.365421
0.363576
0.36182
0.360144
0.358548
0.35702
0.355561
0.354164
0.35283
0.351555
0.350339
0.349179
0.34807
0.347016
0.373843
0.371539
0.369417
0.367404
0.365445
0.363548
0.361712
0.359952
0.358254
0.356621
0.355036
0.353517
0.352046
0.350651
0.349302
0.348042
0.346809
0.345678
0.373895
0.371484
0.369481
0.367429
0.365157
0.362796
0.360469
0.358249
0.356141
0.354107
0.352132
0.350251
0.348404
0.346684
0.344984
0.343457
0.341894
0.340545
0.374021
0.371232
0.368993
0.366046
0.361918
0.357434
0.353083
0.349329
0.346031
0.343022
0.340276
0.337748
0.335387
0.333283
0.331108
0.329166
0.327038
0.325361
0.373684
0.371257
0.363929
0.35517
0.344051
0.329973
0.318562
0.309711
0.300755
0.295716
0.287864
0.284545
0.28565
0.287832
0.287542
0.286349
0.284179
0.28242
0.375985
0.361432
0.329418
0.301056
0.277248
0.244213
0.222736
0.194978
0.182684
0.164655
0.157419
0.14759
0.145517
0.142625
0.151047
0.158008
0.162563
0.169454
0.379188
0.272987
0.19713
0.166705
0.149903
0.124411
0.102391
0.0802056
0.0646098
0.0528123
0.0465204
0.0419501
0.0397885
0.0373331
0.0362357
0.0352488
0.034615
0.0374969
0.226359
0.0869045
0.0418695
0.0223988
0.0137546
0.00939134
0.00674969
0.00866613
0.00833875
0.0116192
0.0119928
0.0124164
0.0153229
0.0184193
0.0213485
0.0241621
0.0267729
0.0296791
0.0601496
0.0221318
0.0352392
0.0518001
0.0820211
0.10171
0.125306
0.177245
0.214384
0.231928
0.249609
0.282683
0.299525
0.329334
0.345733
0.375763
0.391252
0.419207
0.94605
1.26864
1.4698
1.57048
1.60391
1.59322
1.55989
1.51358
1.46456
1.41595
1.36777
1.32439
1.28532
1.25087
1.21992
1.19324
1.169
1.14812
1.53074e-08
3.80604e-07
1.94044e-06
7.61795e-06
2.54689e-05
7.84701e-05
0.000203955
0.00040487
0.000657357
0.000925592
0.00116849
0.00135986
0.00148867
0.00154378
0.00153019
0.00146675
0.00136002
0.00117757
0.00100043
0.000854924
0.000718139
0.000586745
0.000457379
0.000337488
0.000227237
0.000138636
7.68358e-05
4.00644e-05
2.07823e-05
1.12734e-05
6.63935e-06
4.60964e-06
4.45425e-06
7.70162e-06
1.59457e-05
3.70097e-05
0.000208541
0.000397881
0.00077236
0.00108177
0.00113461
0.0010464
0.000857393
0.000753881
0.000760909
0.000864618
0.00101463
0.00158445
0.00264821
0.00637088
0.0181986
0.0468302
0.0818235
0.0980088
0.107278
0.127408
0.135252
0.113286
0.120946
0.13129
0.155066
0.164431
0.147661
0.154457
0.169167
0.178456
0.186121
0.195464
0.203145
0.211517
0.219275
0.227203
0.234813
0.242487
0.249932
0.2574
0.264689
0.271971
0.279107
0.286218
0.293193
0.300131
0.306938
0.313697
0.320323
0.326881
0.333308
0.339644
0.345852
0.351941
0.357892
0.363703
0.369352
0.374845
0.380152
0.385284
0.390211
0.394969
0.399564
0.404103
0.408445
0.412686
0.41678
0.420754
0.424607
0.42832
0.431919
0.435362
0.438689
0.441853
0.444901
0.447782
0.450546
0.453143
0.455622
0.457935
0.460126
0.462157
0.464062
0.465808
0.46742
0.468878
0.470196
0.471363
0.472381
0.473247
0.473947
0.474483
0.474813
0.474914
0.474732
0.475022
0.474566
0.474322
0.47398
0.473568
0.473214
0.472684
0.47171
0.470569
0.469404
0.46798
0.466418
0.464745
0.462914
0.460958
0.458864
0.456652
0.454335
0.45185
0.449306
0.446577
0.443821
0.440866
0.437922
0.434768
0.431661
0.428378
0.425081
0.421745
0.418341
0.41492
0.411473
0.40801
0.404544
0.401069
0.397603
0.394139
0.390701
0.387278
0.383895
0.380534
0.377207
0.373877
0.370519
0.367029
0.363293
0.358979
0.353427
0.336859
8.17544e-08
2.29625e-06
1.54116e-05
6.59206e-05
0.0002343
0.000685564
0.00154929
0.00277827
0.00421676
0.00571159
0.00709618
0.00824938
0.00912635
0.00968762
0.0100101
0.00998642
0.00986586
0.00957789
0.0090925
0.00840582
0.00751408
0.00648376
0.00531387
0.00415369
0.00294613
0.0019968
0.00129348
0.000813194
0.00050047
0.000305741
0.00019262
0.000132272
0.000109146
0.000134939
0.000224599
0.000361506
0.00219274
0.00406001
0.0074811
0.0102606
0.0117119
0.0117147
0.0115704
0.011846
0.013459
0.0168643
0.0219369
0.0317421
0.0490226
0.0747425
0.0999344
0.125848
0.146415
0.160768
0.17126
0.185626
0.20006
0.215696
0.230156
0.25095
0.268973
0.286833
0.304715
0.323575
0.343697
0.362519
0.381111
0.399718
0.417853
0.435947
0.453792
0.471571
0.489196
0.506765
0.52423
0.541648
0.558985
0.576281
0.593505
0.610688
0.627792
0.644845
0.66181
0.678709
0.695501
0.712204
0.728781
0.745238
0.761546
0.777681
0.793635
0.809365
0.824862
0.840097
0.855043
0.869666
0.883926
0.897782
0.91119
0.924141
0.936883
0.949371
0.961605
0.973606
0.985348
0.99684
1.00805
1.01899
1.02962
1.03997
1.05
1.05973
1.06914
1.07824
1.08702
1.09547
1.10359
1.11138
1.11885
1.12597
1.13276
1.1392
1.1453
1.15105
1.15645
1.16148
1.16616
1.17046
1.1744
1.17795
1.18112
1.18394
1.1863
1.18818
1.18974
1.19061
1.19235
1.19257
1.19369
1.19371
1.19429
1.19393
1.19321
1.19212
1.19064
1.18878
1.18653
1.18391
1.1809
1.17755
1.17378
1.1697
1.16521
1.16043
1.15524
1.1498
1.14399
1.1379
1.13157
1.12497
1.11814
1.11112
1.10391
1.09653
1.08901
1.08134
1.07355
1.06564
1.05763
1.04955
1.0414
1.03319
1.02493
1.01657
1.00807
0.999284
0.990015
0.979933
0.967041
0.938837
2.13166e-07
6.41206e-06
4.84898e-05
0.0002258
0.000653521
0.00180841
0.00364892
0.00583127
0.00805541
0.0100964
0.0118169
0.013157
0.0141104
0.0146964
0.0149917
0.0149737
0.0148493
0.0145285
0.014067
0.0134794
0.0127689
0.0119272
0.0109447
0.00980386
0.00856644
0.00711943
0.00558942
0.00414777
0.00289067
0.00192717
0.00130492
0.000945565
0.000707161
0.000738112
0.00117003
0.00233188
0.00801032
0.0160625
0.0238669
0.0294438
0.0327244
0.0343276
0.0375417
0.0459127
0.0605449
0.07684
0.0942204
0.114103
0.134837
0.154374
0.175349
0.19596
0.216675
0.238196
0.262071
0.288527
0.315167
0.341613
0.371719
0.40021
0.427964
0.455498
0.482585
0.509264
0.535458
0.560937
0.585931
0.610514
0.634706
0.658626
0.682291
0.705762
0.729061
0.752227
0.775272
0.798216
0.821062
0.843822
0.866492
0.889077
0.911566
0.933957
0.956238
0.978404
1.00044
1.02233
1.04406
1.06562
1.08698
1.10814
1.12907
1.14973
1.17012
1.19021
1.21
1.22946
1.24859
1.26738
1.28585
1.30399
1.32182
1.3393
1.35644
1.37324
1.38966
1.40573
1.4214
1.43668
1.45154
1.46598
1.47999
1.49357
1.5067
1.51939
1.53163
1.54341
1.55473
1.56559
1.57598
1.5859
1.59534
1.60431
1.6128
1.62081
1.62832
1.63534
1.64187
1.64789
1.65341
1.65842
1.66293
1.66692
1.67038
1.67331
1.67574
1.67766
1.67928
1.68005
1.68049
1.68034
1.68002
1.67904
1.67754
1.67551
1.67294
1.66984
1.6662
1.66203
1.65731
1.65211
1.64635
1.64014
1.63338
1.62619
1.61847
1.61036
1.60176
1.59279
1.58346
1.57376
1.56376
1.55347
1.54294
1.53217
1.5212
1.51004
1.49871
1.48722
1.47561
1.46389
1.45209
1.44024
1.42833
1.41637
1.4043
1.39206
1.37946
1.36627
1.3505
1.32398
7.15211e-07
2.15025e-05
0.000168378
0.000709951
0.00201141
0.00477756
0.00811792
0.0114263
0.0143303
0.0166453
0.018332
0.0194303
0.0200298
0.0201996
0.0201035
0.0198223
0.0193356
0.0187361
0.0180562
0.0173122
0.016508
0.0156388
0.0146975
0.0136584
0.0125145
0.0112421
0.00983973
0.00835948
0.00688975
0.00549703
0.00425279
0.00331103
0.00269048
0.00307881
0.00578431
0.0143499
0.0290925
0.0421813
0.0525762
0.0608351
0.069149
0.0795836
0.0926788
0.107332
0.121925
0.137162
0.1539
0.173467
0.194405
0.217299
0.242509
0.269258
0.297852
0.328061
0.359801
0.392441
0.425324
0.458417
0.491695
0.52437
0.556546
0.588214
0.619342
0.649932
0.679942
0.709425
0.738468
0.767151
0.795522
0.823642
0.851554
0.8793
0.906911
0.934412
0.96182
0.989148
1.0164
1.04358
1.07068
1.0977
1.12464
1.15148
1.17821
1.20481
1.23128
1.25759
1.28373
1.30969
1.33544
1.36096
1.38623
1.41122
1.43592
1.46031
1.48437
1.50809
1.53147
1.55448
1.57713
1.59939
1.62125
1.64269
1.66371
1.6843
1.70443
1.7241
1.74329
1.76198
1.78015
1.7978
1.81491
1.83149
1.8475
1.86296
1.87786
1.89218
1.90593
1.9191
1.93168
1.94368
1.95507
1.96587
1.97608
1.98567
1.99466
2.00303
2.01078
2.01791
2.02442
2.03029
2.03554
2.04015
2.04412
2.04745
2.05015
2.05221
2.05363
2.05418
2.05412
2.05359
2.05249
2.05073
2.04832
2.04525
2.04153
2.03716
2.03214
2.02648
2.02017
2.01326
2.00571
1.99758
1.98883
1.97955
1.96967
1.95928
1.94836
1.93697
1.92514
1.91289
1.90027
1.88731
1.87406
1.86053
1.84675
1.83276
1.81856
1.80419
1.78967
1.77503
1.76031
1.74555
1.73076
1.71596
1.70115
1.68629
1.67127
1.65594
1.63858
1.61377
2.3906e-06
7.16791e-05
0.000542021
0.00205319
0.00568855
0.0107151
0.01548
0.0193321
0.0220951
0.0238464
0.0247778
0.0250879
0.024984
0.0246318
0.0240207
0.023287
0.0224823
0.0216421
0.0207885
0.0199302
0.0190644
0.0181825
0.0172719
0.01631
0.0152769
0.0141462
0.0129099
0.0115888
0.0102513
0.00895642
0.00758984
0.00669903
0.00773571
0.0133592
0.0279996
0.0476122
0.065496
0.080186
0.0919884
0.102524
0.11316
0.124443
0.136475
0.149329
0.164198
0.182179
0.203048
0.226707
0.252992
0.281515
0.311981
0.3439
0.377102
0.41125
0.44608
0.481257
0.516572
0.551962
0.587242
0.622234
0.656915
0.691223
0.725142
0.758662
0.791781
0.824546
0.857
0.889195
0.92117
0.952971
0.984634
1.01619
1.04767
1.07908
1.11045
1.14178
1.17306
1.2043
1.23549
1.26663
1.29769
1.32867
1.35954
1.3903
1.42092
1.45139
1.48168
1.51177
1.54165
1.5713
1.60068
1.62978
1.65855
1.68699
1.71508
1.7428
1.77012
1.79705
1.82353
1.84957
1.87515
1.90023
1.92483
1.9489
1.97245
1.99545
2.01787
2.0397
2.06093
2.08152
2.10149
2.12081
2.13947
2.15746
2.17478
2.19141
2.20736
2.22261
2.23716
2.251
2.26413
2.27654
2.28823
2.2992
2.30944
2.31895
2.32771
2.33573
2.34301
2.34954
2.35531
2.36034
2.36461
2.36813
2.37088
2.37287
2.37396
2.3742
2.37373
2.37262
2.37079
2.36821
2.36488
2.36078
2.35594
2.35034
2.344
2.33692
2.3291
2.32058
2.31135
2.30145
2.29087
2.27965
2.26779
2.25534
2.24229
2.22871
2.21462
2.20006
2.18509
2.16973
2.15402
2.138
2.1217
2.10516
2.08838
2.07141
2.05428
2.03702
2.01969
2.00232
1.98496
1.96764
1.95039
1.93322
1.91607
1.89882
1.88008
1.85581
7.57868e-06
0.000221964
0.00159395
0.00566621
0.0129675
0.0195241
0.0242414
0.0271747
0.0287376
0.0293562
0.0293258
0.0289819
0.0282744
0.0273848
0.0264004
0.0253794
0.0243632
0.0233763
0.0224316
0.0215292
0.0206608
0.019812
0.018963
0.0180844
0.0171593
0.0161446
0.0150097
0.0137218
0.0123353
0.011484
0.0118892
0.0152682
0.0255348
0.0450618
0.0680382
0.0887336
0.105288
0.117653
0.127188
0.135805
0.144924
0.155281
0.168397
0.18471
0.204249
0.227201
0.25317
0.281623
0.312044
0.343957
0.377071
0.411105
0.445906
0.481312
0.517184
0.553387
0.589828
0.626447
0.663127
0.699781
0.736348
0.772769
0.809017
0.845074
0.880934
0.916611
0.95213
0.987517
1.0228
1.05801
1.09318
1.12833
1.16346
1.19861
1.23377
1.26895
1.30413
1.33932
1.37449
1.40964
1.44474
1.47978
1.51474
1.54958
1.5843
1.61886
1.65325
1.68743
1.72141
1.75513
1.78858
1.82172
1.85452
1.88695
1.91901
1.95065
1.98185
2.01259
2.04284
2.07257
2.10178
2.13044
2.15852
2.18602
2.2129
2.23914
2.26472
2.28962
2.31381
2.33729
2.36002
2.38201
2.40322
2.42367
2.44332
2.46218
2.48024
2.49748
2.51391
2.52951
2.54427
2.55821
2.5713
2.58355
2.59495
2.6055
2.61518
2.624
2.63196
2.63905
2.64527
2.65062
2.6551
2.65871
2.66144
2.66323
2.66399
2.66386
2.66296
2.66124
2.65867
2.65526
2.651
2.64588
2.63991
2.6331
2.62545
2.61699
2.6077
2.59763
2.58677
2.57516
2.5628
2.54973
2.53596
2.52153
2.50645
2.49077
2.47454
2.45779
2.44057
2.42292
2.40488
2.3865
2.3678
2.34883
2.32961
2.31017
2.29056
2.27082
2.251
2.23116
2.21135
2.19164
2.17206
2.15266
2.13342
2.11427
2.09401
2.06936
2.40189e-05
0.000661965
0.00433265
0.0134356
0.0223876
0.0281912
0.0314393
0.0330254
0.0335379
0.0333744
0.032763
0.0317635
0.0305729
0.0292924
0.0279981
0.0267429
0.0255613
0.0244693
0.0234698
0.022553
0.0217032
0.0208955
0.0200954
0.0192444
0.0182982
0.0172749
0.0162861
0.0156368
0.0159424
0.0187985
0.0267267
0.0423477
0.0642809
0.0871066
0.107717
0.123856
0.135202
0.143389
0.150553
0.158437
0.169145
0.183243
0.200838
0.222003
0.246427
0.273662
0.303019
0.333933
0.366021
0.399049
0.432871
0.467378
0.502511
0.53822
0.574457
0.611167
0.6483
0.685798
0.723578
0.761572
0.799716
0.837955
0.876249
0.914569
0.952897
0.99123
1.02957
1.06794
1.10634
1.1448
1.18333
1.22194
1.26065
1.29945
1.33835
1.37734
1.4164
1.45552
1.49469
1.53387
1.57303
1.61216
1.65123
1.6902
1.72906
1.76776
1.80629
1.84461
1.88271
1.92055
1.95811
1.99533
2.03219
2.06866
2.1047
2.14028
2.17538
2.20996
2.24399
2.27745
2.3103
2.34254
2.37413
2.40506
2.43528
2.46477
2.49351
2.52148
2.54864
2.57498
2.60047
2.62511
2.64886
2.67174
2.6937
2.71476
2.73489
2.7541
2.77236
2.78968
2.80605
2.82147
2.83592
2.8494
2.86191
2.87344
2.884
2.89357
2.90215
2.90975
2.91636
2.92198
2.92661
2.93024
2.93289
2.93442
2.93489
2.93438
2.93295
2.93058
2.92727
2.923
2.91778
2.91162
2.90452
2.89649
2.88753
2.87767
2.86692
2.8553
2.84282
2.82951
2.8154
2.8005
2.78485
2.76847
2.75138
2.73365
2.71531
2.69641
2.677
2.65711
2.6368
2.61611
2.59507
2.57373
2.55212
2.53027
2.50823
2.48606
2.46381
2.44155
2.41935
2.39727
2.37539
2.35376
2.3324
2.31126
2.28927
2.26358
7.14913e-05
0.00181887
0.0102629
0.0229143
0.0308286
0.0350629
0.0370984
0.0377687
0.0375766
0.0367993
0.0355528
0.0340595
0.0324519
0.0308321
0.0292763
0.0278338
0.0265317
0.0253754
0.0243584
0.0234625
0.0226702
0.0219713
0.0213364
0.0207813
0.0204262
0.0205083
0.0214467
0.0241831
0.0302667
0.0423586
0.0605975
0.0814206
0.102233
0.120731
0.1353
0.145551
0.152883
0.159691
0.16822
0.179747
0.194836
0.213574
0.235695
0.260803
0.288295
0.317583
0.348142
0.37965
0.411945
0.444952
0.478637
0.512986
0.548003
0.583692
0.620049
0.657052
0.694661
0.732832
0.771507
0.810626
0.85013
0.889964
0.930083
0.970452
1.01104
1.05184
1.09284
1.13404
1.17544
1.21704
1.25886
1.30089
1.34314
1.38559
1.42825
1.47108
1.51406
1.55718
1.6004
1.64368
1.687
1.7303
1.77357
1.81676
1.85984
1.90277
1.94553
1.98808
2.03039
2.07243
2.11416
2.15555
2.19654
2.2371
2.27719
2.31678
2.35582
2.39429
2.43215
2.46938
2.50593
2.54179
2.57692
2.6113
2.64488
2.67765
2.70957
2.74061
2.77074
2.79994
2.8282
2.85547
2.88176
2.90704
2.9313
2.95453
2.97672
2.99785
3.01792
3.03693
3.05486
3.07171
3.08748
3.10215
3.11573
3.12821
3.13958
3.14984
3.159
3.16705
3.174
3.17983
3.18455
3.18816
3.19066
3.19192
3.19206
3.1911
3.1891
3.18605
3.18194
3.17678
3.17058
3.16334
3.15508
3.1458
3.13551
3.12424
3.11201
3.09882
3.08471
3.0697
3.05382
3.0371
3.01956
3.00123
2.98216
2.96238
2.94196
2.92093
2.89934
2.87725
2.85469
2.83172
2.80837
2.78469
2.76072
2.73649
2.71205
2.68748
2.66283
2.63817
2.61358
2.58915
2.56495
2.54105
2.5175
2.49426
2.47036
2.44313
0.000185004
0.00431463
0.0190318
0.0314745
0.0379928
0.0411378
0.0423343
0.0422905
0.0414805
0.0400523
0.0382811
0.0363349
0.0343515
0.0324384
0.0306743
0.0291061
0.0277589
0.0266332
0.0257209
0.0249861
0.0244087
0.0240413
0.0238531
0.0241042
0.0252304
0.0279734
0.0338258
0.0439976
0.0584463
0.0756902
0.0940211
0.11189
0.127704
0.140417
0.150052
0.157782
0.165516
0.175097
0.187651
0.203667
0.223075
0.245537
0.270582
0.297683
0.3263
0.355996
0.386496
0.417679
0.449519
0.482028
0.515239
0.549185
0.583907
0.619434
0.655774
0.692922
0.73086
0.769557
0.808969
0.849048
0.889742
0.931001
0.972781
1.01504
1.05775
1.10089
1.14444
1.18838
1.23271
1.27743
1.32252
1.36799
1.4138
1.45996
1.50643
1.55318
1.60018
1.64739
1.69478
1.74228
1.78985
1.83745
1.88503
1.93255
1.97997
2.02725
2.07434
2.12121
2.16781
2.21415
2.26014
2.30576
2.35095
2.39567
2.43987
2.48352
2.52656
2.56896
2.61069
2.6517
2.69198
2.73147
2.77016
2.80799
2.84494
2.88097
2.91605
2.95014
2.98323
3.01527
3.04624
3.07612
3.1049
3.13254
3.15904
3.18439
3.20857
3.23157
3.2534
3.27403
3.29346
3.31168
3.32869
3.34449
3.35907
3.37242
3.38454
3.39543
3.40509
3.41352
3.42072
3.4267
3.43144
3.43496
3.43722
3.43816
3.43789
3.43643
3.43379
3.42999
3.42504
3.41894
3.41171
3.40335
3.39387
3.3833
3.37164
3.35893
3.34517
3.3304
3.31464
3.29791
3.28025
3.26169
3.24225
3.22197
3.2009
3.17909
3.15659
3.13344
3.10971
3.08543
3.06066
3.03543
3.00981
2.98382
2.95751
2.93092
2.90412
2.87716
2.85013
2.82309
2.79613
2.76934
2.7428
2.7166
2.69079
2.66537
2.63941
2.61038
0.000410847
0.00876076
0.0280362
0.0392827
0.044639
0.0469646
0.0475113
0.0469053
0.0454894
0.0435541
0.0413281
0.0389987
0.0367218
0.034615
0.0327632
0.0312154
0.0300058
0.0291275
0.0285992
0.0284172
0.0286137
0.0293981
0.0310511
0.0341253
0.0396233
0.0479061
0.0589045
0.072223
0.0871823
0.102688
0.117554
0.130831
0.142065
0.151484
0.159972
0.168942
0.179752
0.193341
0.210023
0.229696
0.252009
0.276522
0.302774
0.330331
0.358837
0.38806
0.4179
0.448349
0.479449
0.511259
0.543847
0.577278
0.611605
0.646863
0.683082
0.720273
0.758432
0.797542
0.837575
0.878496
0.920263
0.962835
1.00617
1.05023
1.09499
1.1404
1.18646
1.23313
1.28041
1.32827
1.37669
1.42565
1.47513
1.52509
1.57549
1.62629
1.67744
1.72888
1.78056
1.83241
1.88438
1.9364
1.98842
2.04038
2.09225
2.14397
2.19549
2.24677
2.29778
2.34846
2.39879
2.4487
2.49814
2.54705
2.5954
2.64312
2.69017
2.7365
2.78209
2.82689
2.87086
2.91396
2.95616
2.9974
3.03766
3.07689
3.11506
3.15215
3.1881
3.22289
3.2565
3.28889
3.32005
3.34995
3.37859
3.40594
3.43201
3.45677
3.48023
3.50238
3.52319
3.54268
3.56083
3.57764
3.5931
3.60722
3.61998
3.63139
3.64145
3.65015
3.65751
3.66352
3.66818
3.6715
3.67344
3.67399
3.67322
3.67115
3.66779
3.66317
3.6573
3.65019
3.64185
3.63229
3.62155
3.60963
3.59655
3.58235
3.56703
3.55064
3.53319
3.51471
3.49524
3.47482
3.45346
3.43123
3.40816
3.38432
3.35975
3.33452
3.30866
3.28223
3.25526
3.22782
3.19994
3.17167
3.14305
3.11414
3.085
3.0557
3.02631
2.99691
2.96759
2.93844
2.90955
2.88103
2.85292
2.82524
2.79714
2.76642
0.000784086
0.0152288
0.0361368
0.0464464
0.0511334
0.0529164
0.0529844
0.0518891
0.050023
0.0476884
0.0451378
0.042582
0.0401963
0.0381125
0.0364323
0.0352037
0.0345487
0.0343538
0.0346548
0.0356835
0.0376596
0.0409104
0.045796
0.0525742
0.0611085
0.0713887
0.0830639
0.0956223
0.108385
0.120663
0.131973
0.1422
0.151601
0.160895
0.171068
0.183065
0.19749
0.214555
0.234136
0.255928
0.279555
0.304646
0.330869
0.357949
0.3857
0.414029
0.442935
0.472463
0.502694
0.533713
0.565608
0.598453
0.632313
0.66724
0.703275
0.740444
0.778759
0.818219
0.858813
0.900519
0.943311
0.987158
1.03202
1.07788
1.12468
1.17241
1.22102
1.2705
1.32081
1.37192
1.4238
1.4764
1.5297
1.58362
1.63812
1.69313
1.74858
1.8044
1.86053
1.91688
1.97338
2.02994
2.08651
2.14303
2.19945
2.2557
2.31174
2.36752
2.42296
2.47805
2.53274
2.58695
2.64064
2.69374
2.74619
2.79794
2.84895
2.89915
2.94852
2.99701
3.04457
3.09118
3.13676
3.18129
3.22472
3.26701
3.30812
3.34804
3.38669
3.42407
3.46013
3.49486
3.52821
3.56019
3.59077
3.61995
3.64771
3.67406
3.69897
3.72244
3.74446
3.76503
3.78414
3.80179
3.81797
3.83268
3.84592
3.85768
3.86798
3.8768
3.88417
3.89006
3.8945
3.89748
3.89899
3.89904
3.89765
3.89483
3.89064
3.88509
3.8782
3.86998
3.86046
3.84963
3.83754
3.82421
3.80965
3.79389
3.77697
3.75891
3.73974
3.71949
3.69819
3.67588
3.65261
3.62841
3.60336
3.5775
3.55089
3.52359
3.49565
3.46711
3.43801
3.40839
3.37831
3.34781
3.31694
3.28575
3.25432
3.22272
3.19103
3.15932
3.12768
3.0962
3.06498
3.03412
3.00368
2.97373
2.94345
2.91087
0.00127178
0.0221127
0.0436149
0.0534862
0.0578076
0.0592285
0.0589661
0.0575252
0.0553494
0.0527887
0.0501347
0.0476218
0.0454429
0.0437471
0.0427193
0.0423376
0.0425594
0.0435698
0.0454464
0.0483325
0.0523731
0.0576901
0.0643378
0.0722655
0.0813038
0.091197
0.101584
0.11211
0.122454
0.132446
0.1421
0.151696
0.161769
0.172982
0.185897
0.200876
0.218017
0.237202
0.258182
0.280668
0.304379
0.329069
0.354543
0.380657
0.407342
0.434585
0.462435
0.490968
0.520286
0.550486
0.581662
0.613901
0.647282
0.681868
0.717716
0.754863
0.793342
0.833167
0.874344
0.916872
0.96074
1.00593
1.05241
1.10016
1.14914
1.19932
1.25065
1.3031
1.35662
1.41118
1.46673
1.52321
1.58055
1.63866
1.69748
1.75691
1.81687
1.87726
1.938
1.99899
2.06014
2.12136
2.18258
2.24372
2.30475
2.36559
2.42618
2.48646
2.54636
2.60583
2.66483
2.72329
2.78113
2.83831
2.89475
2.9504
3.0052
3.05911
3.11208
3.16406
3.21502
3.2649
3.31365
3.36122
3.40757
3.45265
3.49644
3.5389
3.57998
3.61966
3.6579
3.69466
3.72993
3.76368
3.79591
3.82662
3.85579
3.88342
3.90951
3.93403
3.95699
3.97837
3.99818
4.0164
4.03305
4.04811
4.06159
4.07348
4.08379
4.09252
4.09968
4.10526
4.10928
4.11175
4.11266
4.11204
4.10986
4.10615
4.10098
4.09437
4.08634
4.0769
4.06608
4.05389
4.04037
4.02553
4.00942
3.99205
3.97347
3.9537
3.93279
3.91074
3.88761
3.86341
3.83822
3.81208
3.78507
3.75724
3.72864
3.69933
3.66936
3.63878
3.60761
3.57591
3.5437
3.51105
3.47799
3.44462
3.41099
3.37718
3.34326
3.30931
3.27542
3.24167
3.20816
3.175
3.14227
3.11004
3.07757
3.04309
0.00187646
0.0285469
0.050908
0.0607513
0.0648645
0.066046
0.0655421
0.0638563
0.0615089
0.0589247
0.0564413
0.0543049
0.0526856
0.0518417
0.051624
0.0521633
0.0535582
0.0558263
0.0590189
0.0631653
0.0682814
0.0743483
0.0812982
0.0890084
0.0973088
0.106017
0.114977
0.12409
0.133328
0.142789
0.152713
0.163472
0.175448
0.188955
0.204159
0.221084
0.23962
0.259582
0.280759
0.302951
0.325989
0.349737
0.374105
0.39904
0.424543
0.45065
0.477438
0.505
0.533441
0.562867
0.593384
0.625087
0.658065
0.692398
0.728158
0.765401
0.804172
0.844502
0.88642
0.92994
0.975071
1.0218
1.07013
1.12001
1.17143
1.22435
1.2787
1.33445
1.39154
1.4499
1.50947
1.57016
1.63186
1.69448
1.75788
1.82197
1.88662
1.95174
2.01721
2.08294
2.1488
2.21471
2.28058
2.34635
2.41197
2.47736
2.54246
2.60719
2.67144
2.73519
2.79835
2.86089
2.92268
2.98371
3.04388
3.10316
3.16148
3.21878
3.27503
3.33018
3.38418
3.43697
3.4885
3.53871
3.58758
3.63504
3.68108
3.72565
3.76873
3.81028
3.85026
3.88865
3.92541
3.9605
3.99395
4.02577
4.05594
4.08446
4.11132
4.1365
4.16001
4.18183
4.20196
4.22041
4.23717
4.25225
4.26563
4.27734
4.28737
4.29572
4.30239
4.3074
4.31076
4.31248
4.31257
4.31107
4.30785
4.30306
4.29674
4.28891
4.27959
4.26879
4.25655
4.24288
4.22782
4.2114
4.19365
4.17461
4.15432
4.13282
4.11013
4.0863
4.06132
4.03526
4.00817
3.98014
3.95123
3.92149
3.89097
3.85974
3.82784
3.79531
3.76218
3.72851
3.69429
3.65959
3.62448
3.58903
3.55333
3.51743
3.48142
3.44535
3.40932
3.3734
3.33769
3.30231
3.26735
3.23292
3.1983
3.162
0.00265079
0.0341153
0.0579221
0.0680361
0.0721258
0.0731853
0.0725113
0.0706523
0.0682169
0.0657513
0.0636671
0.0621981
0.0614776
0.0613197
0.0619498
0.0634304
0.065725
0.0688114
0.0726794
0.0773048
0.0826518
0.0886674
0.0952822
0.102425
0.110034
0.118068
0.126517
0.135436
0.144939
0.155212
0.166456
0.178875
0.192608
0.207718
0.224173
0.241881
0.260708
0.28051
0.301154
0.322525
0.344543
0.367154
0.390339
0.414107
0.438502
0.463587
0.489456
0.516211
0.543964
0.57282
0.602888
0.634272
0.667076
0.701395
0.737316
0.774914
0.814257
0.855403
0.898403
0.943291
0.990095
1.03882
1.08946
1.142
1.19639
1.25259
1.31053
1.37015
1.43134
1.49401
1.55807
1.62338
1.68981
1.75721
1.82542
1.8943
1.96373
2.0336
2.10379
2.17419
2.24469
2.3152
2.38561
2.45587
2.52593
2.59571
2.66512
2.73407
2.80244
2.87018
2.93724
3.00351
3.06888
3.13334
3.19683
3.25929
3.32066
3.38087
3.43989
3.49768
3.55417
3.60931
3.66304
3.71532
3.76609
3.81532
3.863
3.90908
3.95353
3.99634
4.03746
4.07686
4.11453
4.15042
4.18458
4.21698
4.24762
4.27651
4.30363
4.32896
4.35251
4.37427
4.39424
4.41242
4.42882
4.44344
4.45629
4.46737
4.47669
4.48426
4.49008
4.49417
4.49655
4.49723
4.49625
4.49351
4.48903
4.48294
4.47526
4.46601
4.45521
4.4429
4.42909
4.41382
4.39711
4.37901
4.35956
4.33879
4.31674
4.29347
4.26902
4.24341
4.21663
4.18874
4.15984
4.13
4.09927
4.06773
4.03541
4.00237
3.96866
3.93432
3.89938
3.86389
3.8278
3.79122
3.75423
3.71689
3.67929
3.64148
3.60353
3.56552
3.52751
3.48956
3.4518
3.41434
3.37728
3.34075
3.3041
3.26612
0.00347267
0.0400169
0.0649623
0.0753528
0.0794333
0.0803962
0.0794751
0.0773523
0.0749182
0.0727891
0.0713569
0.0707015
0.0705803
0.0711258
0.0724655
0.0745602
0.0773694
0.0808493
0.084972
0.0897085
0.0950342
0.100928
0.107379
0.114387
0.121959
0.130139
0.138992
0.148614
0.159111
0.170598
0.183142
0.196798
0.211562
0.227391
0.244204
0.261909
0.280412
0.299629
0.319496
0.339969
0.361031
0.38268
0.404939
0.427852
0.451492
0.475947
0.501294
0.527639
0.555093
0.583776
0.613807
0.645309
0.678399
0.713194
0.749805
0.788333
0.828873
0.871505
0.916304
0.963327
1.01262
1.06419
1.11804
1.17411
1.23237
1.29273
1.3551
1.41936
1.48535
1.55293
1.62191
1.69215
1.76349
1.83574
1.90873
1.98225
2.05622
2.13054
2.20511
2.27985
2.35465
2.42938
2.50398
2.5784
2.65253
2.72628
2.79959
2.87226
2.94426
3.01546
3.08582
3.15524
3.22362
3.29096
3.35722
3.42228
3.48608
3.54856
3.60968
3.66939
3.72763
3.78437
3.83953
3.89309
3.94497
3.99519
4.04369
4.09047
4.1355
4.17876
4.22022
4.25986
4.29767
4.33367
4.36782
4.40011
4.43054
4.45911
4.48581
4.51063
4.53356
4.55461
4.57379
4.59109
4.60654
4.62013
4.63187
4.64177
4.64985
4.65612
4.66063
4.66337
4.66438
4.66367
4.66118
4.65683
4.65079
4.6431
4.63378
4.62285
4.61035
4.59631
4.58074
4.5637
4.54521
4.52531
4.50405
4.48147
4.45761
4.43253
4.40627
4.37888
4.35035
4.32075
4.29015
4.25862
4.22623
4.19302
4.15905
4.12436
4.08901
4.05303
4.01648
3.97937
3.94163
3.90339
3.86474
3.82575
3.78648
3.74698
3.70733
3.66759
3.62782
3.58806
3.54844
3.5091
3.47012
3.43168
3.39316
3.35372
0.00434669
0.0458642
0.0719338
0.0825967
0.0866852
0.0875145
0.0862704
0.0839919
0.0817683
0.0801829
0.0794386
0.0792593
0.0797051
0.0807952
0.0826086
0.0850926
0.0882145
0.0919342
0.0962459
0.101141
0.106631
0.112729
0.119463
0.126871
0.135002
0.143917
0.153669
0.16432
0.175902
0.188428
0.201894
0.21629
0.231551
0.247626
0.264442
0.281952
0.300104
0.318873
0.338245
0.358221
0.378817
0.400058
0.422007
0.444739
0.468381
0.492956
0.518514
0.545218
0.573174
0.602506
0.633359
0.665871
0.700185
0.736444
0.774792
0.815359
0.858266
0.90362
0.951502
1.00197
1.05508
1.11085
1.16921
1.23006
1.29331
1.35885
1.42652
1.49616
1.56756
1.64045
1.71451
1.78962
1.86564
1.94243
2.01979
2.09754
2.1757
2.25406
2.33258
2.41109
2.4895
2.56771
2.64586
2.72378
2.80135
2.87838
2.95476
3.03041
3.10514
3.17892
3.25166
3.32335
3.39397
3.46344
3.53162
3.5984
3.6637
3.72746
3.78965
3.85023
3.90916
3.9664
4.02189
4.0756
4.12748
4.17754
4.22576
4.27213
4.31663
4.35926
4.39999
4.4388
4.4757
4.51067
4.54372
4.57484
4.60403
4.63131
4.65665
4.68006
4.70154
4.72109
4.73871
4.75443
4.76824
4.78017
4.7902
4.79836
4.80465
4.80911
4.81177
4.81266
4.81185
4.80922
4.80467
4.79838
4.7904
4.78075
4.76947
4.75658
4.74211
4.72611
4.7086
4.68962
4.66921
4.64741
4.62426
4.59981
4.57411
4.54721
4.51916
4.49001
4.45983
4.42865
4.39652
4.36347