/*--------------------------------*- C++ -*----------------------------------*\
  =========                 |
  \\      /  F ield         | OpenFOAM: The Open Source CFD Toolbox
   \\    /   O peration     | Website:  https://openfoam.org
    \\  /    A nd           | Version:  13
     \\/     M anipulation  |
\*---------------------------------------------------------------------------*/
FoamFile
{
    format      ascii;
    class       volScalarField;
    location    "1800";
    object      nut;
}
// * * * * * * * * * * * * * * * * * * * * * * * * * * * * * * * * * * * * * //

dimensions      [0 2 -1 0 0 0 0];

internalField   nonuniform List<scalar> 
12225
(
2.90254e-06
2.34872e-05
2.31158e-05
2.04994e-05
2.04376e-05
1.98201e-05
2.11684e-05
1.80094e-05
1.69364e-05
2.03095e-05
1.80835e-05
2.10957e-05
1.82736e-05
2.73457e-05
2.6786e-05
3.16743e-05
2.66212e-05
2.04194e-05
4.32617e-05
5.73216e-05
4.31984e-05
3.83279e-05
3.31794e-05
2.43956e-05
2.95863e-05
2.93384e-05
3.0187e-05
3.31317e-05
2.81096e-05
2.93511e-05
2.92762e-05
2.94404e-05
3.28341e-05
3.22274e-05
3.44371e-05
3.35105e-05
0.000218076
0.000132561
8.25646e-05
4.87887e-05
3.76658e-05
3.06106e-05
2.76541e-05
2.5485e-05
2.35621e-05
2.26535e-05
2.1049e-05
1.6805e-05
1.20317e-05
1.18346e-05
1.20751e-05
1.08458e-05
9.61036e-06
1.06326e-05
0.000540928
0.00038604
0.000269967
0.000140502
9.14574e-05
5.47399e-05
3.88227e-05
2.85065e-05
1.98212e-05
1.0617e-05
1.30027e-05
1.07774e-05
7.08541e-06
5.88192e-06
5.56042e-06
5.30705e-06
5.47665e-06
5.52897e-06
0.000763684
0.000676349
0.000533131
0.000392659
0.000220602
0.000160128
9.23665e-05
0.000100908
7.95738e-05
4.15819e-05
3.94931e-05
3.42942e-05
2.94424e-05
1.93027e-05
2.05598e-05
1.84775e-05
1.5986e-05
1.44315e-05
0.00083517
0.000800962
0.000738563
0.000600666
0.000458693
0.000361377
0.000269294
0.000207073
0.000173849
0.000135858
9.54107e-05
7.38398e-05
7.98132e-05
7.40359e-05
5.97296e-05
6.25263e-05
5.60695e-05
5.15315e-05
0.000851185
0.000835301
0.000809795
0.000753991
0.000650863
0.000590627
0.000471285
0.000331653
0.000277726
0.0002488
0.000192022
0.000164432
0.000139907
0.000146292
0.000134234
0.000133236
0.000130256
0.000125625
0.000852742
0.000850327
0.000840391
0.000826209
0.000766025
0.000670487
0.000559836
0.000462305
0.000394698
0.000355179
0.000322403
0.000300227
0.00027931
0.000279532
0.000274231
0.00026814
0.000262686
0.000253991
0.000850993
0.000852818
0.000845643
0.000837413
0.000817118
0.000762468
0.000689033
0.000623125
0.000568981
0.000529224
0.000500498
0.000479246
0.00046485
0.000453721
0.000446634
0.000439815
0.000433248
0.000426023
0.000851877
0.000851008
0.000852597
0.000846527
0.000833174
0.00080675
0.000770573
0.000736463
0.000704064
0.000677983
0.000657758
0.000641066
0.000630183
0.000620668
0.000614626
0.000606769
0.00060332
0.000591989
0.000851448
0.000850762
0.000850804
0.00085249
0.00084611
0.000835355
0.000818804
0.000804132
0.000787676
0.000773991
0.000761679
0.00075106
0.000743665
0.000736456
0.00073289
0.000723788
0.000719944
0.000715106
0.000851516
0.000850583
0.000850459
0.000849396
0.00085094
0.000846536
0.000839904
0.000833258
0.000825884
0.00081928
0.00081285
0.000806842
0.000801493
0.000797089
0.000792367
0.000790112
0.000785553
0.000783088
0.000851529
0.000850642
0.000849942
0.000849302
0.000848838
0.000847713
0.000845763
0.000843521
0.000840906
0.000838313
0.000835783
0.000833183
0.00083102
0.000828636
0.000826973
0.000824784
0.00082367
0.000821383
0.000851549
0.000850659
0.000849867
0.000849112
0.000848459
0.000847731
0.000846912
0.000845997
0.000845056
0.000844036
0.000843094
0.000842038
0.000841159
0.00084012
0.000839358
0.000838349
0.000837715
0.000836739
0.000851546
0.00085067
0.00084986
0.000849079
0.000848358
0.000847655
0.000846983
0.000846316
0.000845682
0.000845046
0.000844449
0.000843841
0.000843279
0.0008427
0.000842179
0.000841632
0.000841156
0.000840646
0.00085154
0.000850673
0.000849855
0.000849073
0.000848337
0.00084763
0.000846963
0.00084632
0.000845712
0.000845124
0.000844569
0.000844028
0.000843516
0.000843017
0.000842547
0.000842087
0.000841655
0.000841231
0.000851538
0.000850672
0.000849851
0.00084907
0.000848328
0.000847621
0.000846949
0.000846307
0.000845695
0.000845111
0.000844552
0.000844018
0.000843507
0.000843017
0.000842548
0.000842099
0.00084167
0.000841258
0.000851539
0.000850677
0.000849858
0.000849078
0.000848336
0.00084763
0.000846956
0.000846314
0.0008457
0.000845115
0.000844555
0.00084402
0.000843508
0.000843018
0.000842548
0.0008421
0.000841668
0.000841257
0.000851537
0.000850674
0.000849852
0.00084907
0.000848326
0.000847618
0.000846942
0.000846299
0.000845683
0.000845096
0.000844533
0.000843997
0.000843481
0.00084299
0.000842516
0.000842066
0.000841631
0.000841219
0.000851536
0.000850675
0.000849856
0.00084908
0.000848333
0.000847626
0.000846939
0.000846293
0.000845661
0.000845067
0.000844477
0.000843924
0.000843369
0.000842854
0.000842334
0.00084186
0.000841375
0.000840944
0.000851522
0.000850701
0.000849954
0.000849183
0.000848411
0.000847592
0.000846726
0.000845907
0.000845057
0.00084426
0.000843393
0.000842584
0.000841684
0.000840865
0.000839946
0.000839181
0.000838271
0.000837608
0.000851571
0.000850821
0.000850558
0.000849405
0.000848014
0.000845153
0.000842104
0.000838944
0.000836129
0.000833194
0.000830511
0.000827883
0.000825412
0.000822608
0.000820082
0.000817628
0.000814761
0.000812783
0.000851938
0.000850819
0.000846786
0.000842178
0.000832438
0.000813023
0.000795152
0.000777519
0.000766388
0.000749703
0.000740418
0.000731323
0.000730873
0.000716575
0.000717903
0.000714106
0.000708966
0.00070545
0.000856433
0.000833688
0.000792732
0.000765719
0.000701711
0.000633232
0.00058144
0.000546046
0.00052184
0.000497758
0.000485613
0.000467417
0.000461917
0.000456775
0.000465326
0.000452379
0.000458502
0.000462329
0.000910605
0.000661558
0.000486901
0.000417319
0.000306021
0.000251506
0.000230983
0.000214318
0.000190465
0.000189966
0.000178345
0.000175416
0.000177559
0.000179446
0.000181822
0.000186398
0.000189191
0.000190214
0.00645816
0.000225934
0.000103231
8.35506e-05
6.38883e-05
6.61936e-05
6.05748e-05
4.48688e-05
4.74389e-05
4.08419e-05
3.6309e-05
3.35009e-05
3.37854e-05
3.42337e-05
3.75805e-05
4.10011e-05
4.40428e-05
4.82911e-05
0.00011862
0.381755
1.71146e-05
1.20536e-05
1.11866e-05
1.10892e-05
8.94225e-06
6.31924e-06
5.26676e-06
4.63366e-06
5.26497e-06
6.48546e-06
7.15349e-06
7.36644e-06
7.18554e-06
7.19283e-06
6.52961e-06
7.59288e-06
3.51802e-06
1.27945e-06
1.00488e-06
5.85916e-07
4.21343e-07
4.85067e-07
5.61736e-07
1.25054e-06
1.99235e-06
1.22968e-06
5.04257e-07
8.0192e-07
1.08046e-06
1.06107e-06
1.19832e-06
1.39987e-06
1.72289e-06
2.03393e-06
1.36652e-07
9.22202e-08
3.83915e-07
1.36651e-06
5.15178e-06
6.1054e-06
6.04385e-06
1.15402e-05
1.70393e-05
1.95827e-05
2.14893e-05
2.57061e-05
2.71843e-05
2.88767e-05
2.94517e-05
3.12191e-05
3.17948e-05
3.34376e-05
1.23634e-05
1.67326e-05
1.96104e-05
2.12321e-05
2.19904e-05
2.21497e-05
2.19823e-05
2.16089e-05
2.11701e-05
2.07076e-05
2.02181e-05
1.97708e-05
1.93631e-05
1.90022e-05
1.86759e-05
1.83982e-05
1.81453e-05
1.79325e-05
1.33535e-12
1.5138e-10
7.71115e-10
3.02466e-09
1.01034e-08
3.11011e-08
8.07639e-08
1.60179e-07
2.59835e-07
3.65525e-07
4.61021e-07
5.36028e-07
5.86249e-07
6.07375e-07
6.01456e-07
5.75962e-07
5.33537e-07
4.61507e-07
3.91697e-07
3.34394e-07
2.8061e-07
2.29037e-07
1.78356e-07
1.31469e-07
8.84291e-08
5.38936e-08
2.98378e-08
1.55418e-08
8.05323e-09
4.36376e-09
2.56719e-09
1.78042e-09
1.7185e-09
2.96805e-09
6.13821e-09
1.42305e-08
8.00939e-08
1.52637e-07
2.95951e-07
4.14025e-07
4.33732e-07
3.99535e-07
3.26974e-07
2.8715e-07
2.89472e-07
3.2852e-07
3.8504e-07
6.00524e-07
1.00243e-06
2.4085e-06
6.87108e-06
1.76583e-05
3.08129e-05
3.68592e-05
4.02913e-05
4.42015e-05
4.22194e-05
3.20333e-05
3.13536e-05
3.1724e-05
3.53014e-05
3.55545e-05
3.054e-05
3.0681e-05
3.24255e-05
3.31384e-05
3.35556e-05
3.43e-05
3.47762e-05
3.53864e-05
3.59072e-05
3.64673e-05
3.69863e-05
3.75244e-05
3.80357e-05
3.85584e-05
3.90626e-05
3.95744e-05
4.00737e-05
4.05788e-05
4.10744e-05
4.15752e-05
4.20689e-05
4.25676e-05
4.30606e-05
4.35576e-05
4.40512e-05
4.45478e-05
4.50431e-05
4.55397e-05
4.60353e-05
4.65302e-05
4.70227e-05
4.75146e-05
4.80027e-05
4.84892e-05
4.8971e-05
4.94534e-05
4.99386e-05
5.04386e-05
5.0934e-05
5.14384e-05
5.19474e-05
5.24642e-05
5.29891e-05
5.35196e-05
5.40586e-05
5.46014e-05
5.5153e-05
5.57079e-05
5.62723e-05
5.68405e-05
5.7419e-05
5.80021e-05
5.85963e-05
5.91961e-05
5.98079e-05
6.04272e-05
6.10593e-05
6.1701e-05
6.23569e-05
6.30258e-05
6.37108e-05
6.44113e-05
6.51286e-05
6.58638e-05
6.6617e-05
6.73903e-05
6.81799e-05
6.89848e-05
6.97993e-05
7.07381e-05
7.16241e-05
7.26036e-05
7.36353e-05
7.47285e-05
7.59093e-05
7.7143e-05
7.77788e-05
7.75791e-05
7.73769e-05
7.7148e-05
7.69136e-05
7.66661e-05
7.64061e-05
7.61352e-05
7.58518e-05
7.5557e-05
7.52585e-05
7.49353e-05
7.46201e-05
7.42726e-05
7.39408e-05
7.35707e-05
7.32242e-05
7.28333e-05
7.24732e-05
7.20744e-05
7.16832e-05
7.12882e-05
7.0882e-05
7.04753e-05
7.00648e-05
6.96509e-05
6.92362e-05
6.88181e-05
6.84005e-05
6.79803e-05
6.75622e-05
6.71425e-05
6.67261e-05
6.63087e-05
6.58942e-05
6.54766e-05
6.50566e-05
6.46222e-05
6.41659e-05
6.36557e-05
6.3034e-05
6.14159e-05
7.13188e-12
1.15484e-09
1.56632e-08
8.32185e-08
3.4758e-07
1.12001e-06
2.50766e-06
4.52301e-06
7.00059e-06
9.84546e-06
1.27459e-05
1.54599e-05
1.77987e-05
1.95449e-05
2.06788e-05
2.09869e-05
2.0737e-05
1.996e-05
1.83401e-05
1.54089e-05
1.20642e-05
9.02379e-06
6.44156e-06
4.45691e-06
2.85404e-06
1.79755e-06
1.10722e-06
6.94592e-07
4.36341e-07
2.82403e-07
1.98852e-07
1.5914e-07
1.60499e-07
2.30295e-07
4.31731e-07
7.67835e-07
4.92395e-06
9.09084e-06
1.63433e-05
2.12448e-05
2.26788e-05
2.1285e-05
1.95591e-05
1.7383e-05
1.64719e-05
1.65198e-05
1.66124e-05
1.96119e-05
2.67785e-05
3.79253e-05
4.88676e-05
6.09053e-05
7.10689e-05
7.92493e-05
8.63347e-05
9.68253e-05
0.00010645
0.000114573
0.000129354
0.000143695
0.000156786
0.000170405
0.000179878
0.00019405
0.000206651
0.000218445
0.000230028
0.000241309
0.000252181
0.000262591
0.000272662
0.000282497
0.000292087
0.000301467
0.000310676
0.000319714
0.000328615
0.000337379
0.000346024
0.00035456
0.000362982
0.000371307
0.000379523
0.000387652
0.000395674
0.00040361
0.00041144
0.000419178
0.000426801
0.000434314
0.000441692
0.000448945
0.000456038
0.000462974
0.000469706
0.000476207
0.000482392
0.000488172
0.000493391
0.000497885
0.000502411
0.000506755
0.000510976
0.000515077
0.000519054
0.000522909
0.000526641
0.000530245
0.000533723
0.00053707
0.000540289
0.000543378
0.00054634
0.000549173
0.000551882
0.000554463
0.000556921
0.000559255
0.000561471
0.000563567
0.000565547
0.000567408
0.000569151
0.000570774
0.00057228
0.000573669
0.000574943
0.000576101
0.000577142
0.000578053
0.000578816
0.000579398
0.000579842
0.000580082
0.000580234
0.00058006
0.000580421
0.00058012
0.000580527
0.000580602
0.000580902
0.000580812
0.000580628
0.000580322
0.00057989
0.000579329
0.000578631
0.000577821
0.000576785
0.000575907
0.000574511
0.00057343
0.000571739
0.000570434
0.000568465
0.00056694
0.000564812
0.000562756
0.000560691
0.000558353
0.000556016
0.000553561
0.000551029
0.000548421
0.000545738
0.000542983
0.000540159
0.000537266
0.000534314
0.000531298
0.000528231
0.000525102
0.000521916
0.000518648
0.000515249
0.000511633
0.000507673
0.000503047
0.000496967
0.000480487
1.85957e-11
3.22502e-09
6.07707e-08
3.61263e-07
9.87871e-07
2.72973e-06
5.73855e-06
1.00192e-05
1.5383e-05
2.15252e-05
2.80982e-05
3.46008e-05
4.05055e-05
4.54675e-05
4.93498e-05
5.18365e-05
5.33755e-05
5.37071e-05
5.25837e-05
4.98985e-05
4.60772e-05
4.04742e-05
3.38315e-05
2.70051e-05
2.06856e-05
1.51271e-05
1.05122e-05
7.1291e-06
4.65979e-06
3.06108e-06
2.11022e-06
1.60771e-06
1.33207e-06
1.58051e-06
2.88609e-06
6.33479e-06
2.16429e-05
4.17704e-05
5.78647e-05
6.48435e-05
6.1752e-05
5.02318e-05
4.22225e-05
4.23117e-05
4.78437e-05
5.42956e-05
6.30896e-05
7.51662e-05
8.70152e-05
9.95598e-05
0.000116392
0.000134835
0.000155496
0.000178164
0.000204358
0.000233871
0.000262994
0.000290567
0.000324278
0.000353688
0.000382024
0.000410803
0.000436421
0.000463816
0.000488512
0.000512619
0.000535572
0.000557784
0.000579013
0.000599612
0.000619651
0.000639225
0.000658381
0.000677172
0.000695647
0.000713825
0.000731742
0.000749407
0.00076684
0.000784049
0.00080104
0.000817816
0.000834378
0.000850729
0.00086686
0.000882772
0.000898451
0.000913895
0.000929083
0.000944005
0.000958637
0.000972958
0.000986935
0.00100054
0.00101374
0.00102647
0.0010387
0.00105037
0.00106147
0.00107214
0.00108263
0.0010928
0.0011027
0.00111232
0.00112167
0.00113075
0.00113955
0.00114807
0.0011563
0.00116425
0.00117191
0.00117929
0.00118639
0.0011932
0.00119974
0.00120601
0.00121201
0.00121774
0.00122321
0.00122842
0.00123338
0.00123808
0.00124253
0.00124672
0.00125066
0.00125434
0.00125778
0.00126095
0.00126387
0.00126651
0.00126885
0.00127093
0.00127272
0.00127424
0.00127554
0.00127652
0.00127749
0.00127803
0.00127854
0.00127878
0.00127898
0.00127882
0.00127842
0.00127773
0.00127676
0.0012755
0.00127394
0.00127218
0.00126992
0.00126772
0.00126478
0.00126206
0.00125849
0.00125524
0.00125105
0.00124725
0.00124266
0.00123799
0.00123321
0.00122803
0.00122274
0.00121723
0.00121155
0.00120571
0.00119971
0.00119357
0.00118728
0.00118086
0.00117431
0.00116765
0.00116088
0.00115399
0.00114699
0.00113982
0.00113239
0.00112451
0.0011159
0.00110578
0.00109219
0.00106227
6.23917e-11
1.05855e-08
1.69202e-07
7.48054e-07
2.29201e-06
6.3474e-06
1.26927e-05
2.13187e-05
3.16042e-05
4.24704e-05
5.30071e-05
6.27059e-05
7.10827e-05
7.76683e-05
8.26003e-05
8.59528e-05
8.74826e-05
8.7527e-05
8.6249e-05
8.35123e-05
7.94591e-05
7.40232e-05
6.76241e-05
5.94616e-05
5.03279e-05
4.10284e-05
3.21413e-05
2.4589e-05
1.84694e-05
1.38295e-05
1.0293e-05
8.05089e-06
6.76039e-06
8.18313e-06
1.502e-05
3.2602e-05
5.54347e-05
7.24272e-05
8.06097e-05
7.77168e-05
7.49633e-05
7.50503e-05
7.8316e-05
8.52734e-05
9.57144e-05
0.000109095
0.00012036
0.000139211
0.000161763
0.000187567
0.000219428
0.000253969
0.000292492
0.000333381
0.000376924
0.000421421
0.000465423
0.000508617
0.000552405
0.000593496
0.000633333
0.000672176
0.000708645
0.000745397
0.000779802
0.000813152
0.000845164
0.000876256
0.000906448
0.000935918
0.00096475
0.000993028
0.00102081
0.00104815
0.00107509
0.00110166
0.00112788
0.00115376
0.00117932
0.00120455
0.00122947
0.00125407
0.00127835
0.0013023
0.00132592
0.00134918
0.00137209
0.00139462
0.00141676
0.00143849
0.00145979
0.00148062
0.00150095
0.00152077
0.00154004
0.00155874
0.00157686
0.0015944
0.0016114
0.00162795
0.00164412
0.00165985
0.00167517
0.00169006
0.00170454
0.00171861
0.00173225
0.00174546
0.00175824
0.00177059
0.00178251
0.001794
0.00180507
0.00181571
0.00182593
0.00183574
0.00184514
0.00185414
0.00186274
0.00187095
0.00187876
0.00188619
0.00189322
0.00189987
0.00190613
0.001912
0.00191748
0.00192257
0.00192727
0.00193156
0.00193544
0.00193894
0.00194203
0.00194475
0.00194712
0.00194905
0.00195068
0.00195176
0.00195252
0.00195306
0.00195325
0.00195302
0.00195241
0.00195137
0.00194991
0.00194802
0.00194571
0.00194303
0.00193979
0.00193633
0.00193218
0.00192791
0.0019229
0.00191781
0.00191193
0.00190603
0.00189946
0.00189259
0.00188545
0.0018779
0.0018701
0.001862
0.00185365
0.00184507
0.00183626
0.00182723
0.001818
0.00180857
0.00179896
0.00178919
0.00177927
0.0017692
0.00175896
0.0017485
0.00173769
0.00172631
0.00171398
0.00169967
0.00168059
0.00164508
2.08545e-10
3.12345e-08
3.788e-07
1.77959e-06
6.1989e-06
1.50585e-05
2.81977e-05
4.40368e-05
6.07303e-05
7.66135e-05
9.04737e-05
0.000101614
0.000109948
0.00011586
0.000119171
0.000120521
0.000120251
0.000118643
0.000115919
0.000112133
0.000107151
0.000101468
9.48537e-05
8.67866e-05
7.74706e-05
6.71412e-05
5.63089e-05
4.61122e-05
3.73111e-05
3.02729e-05
2.4371e-05
2.04626e-05
2.07148e-05
2.96696e-05
5.11995e-05
7.38003e-05
8.74478e-05
9.41291e-05
9.72863e-05
0.00010007
0.000104988
0.00011345
0.000126362
0.000137871
0.000150344
0.000171219
0.000199509
0.000230834
0.000268968
0.00031116
0.000358284
0.000407645
0.000459809
0.000513096
0.000567267
0.000621102
0.000674045
0.000725893
0.000776818
0.000825494
0.000873173
0.000919284
0.000963859
0.00100738
0.00104918
0.00108983
0.0011293
0.00116782
0.00120547
0.00124236
0.00127858
0.0013142
0.00134928
0.00138385
0.00141795
0.00145161
0.00148484
0.00151765
0.00155005
0.00158203
0.00161359
0.00164472
0.00167542
0.00170568
0.00173549
0.00176483
0.00179368
0.00182205
0.0018499
0.00187723
0.00190401
0.00193021
0.00195581
0.00198079
0.00200515
0.00202887
0.00205198
0.00207448
0.00209641
0.0021178
0.00213866
0.00215898
0.00217877
0.00219802
0.00221674
0.00223492
0.00225256
0.00226965
0.00228619
0.00230218
0.00231762
0.0023325
0.00234685
0.00236065
0.00237391
0.00238664
0.00239884
0.00241052
0.00242169
0.00243235
0.0024425
0.00245214
0.00246127
0.0024699
0.00247803
0.00248565
0.00249277
0.00249938
0.00250548
0.00251108
0.00251618
0.00252079
0.0025249
0.00252855
0.00253175
0.00253441
0.00253647
0.00253798
0.00253907
0.00253978
0.00254001
0.00253975
0.002539
0.00253772
0.00253593
0.00253362
0.00253078
0.00252745
0.00252354
0.00251921
0.00251424
0.00250889
0.0025029
0.00249654
0.00248953
0.00248218
0.00247425
0.00246589
0.00245714
0.00244796
0.00243842
0.00242854
0.00241833
0.00240783
0.00239705
0.00238599
0.00237468
0.00236312
0.00235134
0.00233935
0.00232717
0.00231479
0.0023022
0.00228936
0.00227614
0.00226233
0.00224753
0.00223074
0.00220875
0.00217291
6.6113e-10
7.74303e-08
9.43368e-07
4.80486e-06
1.58812e-05
3.39262e-05
5.5769e-05
7.80049e-05
9.72546e-05
0.000112283
0.000123532
0.000132257
0.00013811
0.000141782
0.000143622
0.000143884
0.000142766
0.000140426
0.00013705
0.000132665
0.000127237
0.00012121
0.000114236
0.000106072
9.68809e-05
8.21262e-05
6.78772e-05
5.45009e-05
4.25717e-05
3.46419e-05
3.18583e-05
3.56122e-05
5.02132e-05
7.3188e-05
9.34267e-05
0.000107211
0.000115712
0.000121319
0.000127622
0.000137894
0.000153794
0.00016286
0.000176023
0.00019867
0.000227235
0.000261965
0.000303724
0.000349907
0.000401627
0.000456122
0.000513581
0.000572366
0.000632394
0.000692641
0.00075276
0.000812113
0.000870435
0.000927388
0.000983004
0.00103743
0.00109036
0.0011419
0.00119203
0.00124094
0.00128849
0.0013349
0.00138026
0.00142468
0.00146826
0.00151108
0.0015532
0.00159469
0.0016356
0.00167594
0.00171576
0.00175506
0.00179386
0.00183215
0.00186994
0.00190721
0.00194397
0.0019802
0.00201589
0.00205103
0.00208561
0.00211962
0.00215304
0.00218587
0.0022181
0.0022497
0.00228067
0.00231099
0.00234063
0.00236959
0.00239787
0.00242546
0.0024524
0.00247868
0.00250433
0.00252934
0.00255373
0.0025775
0.00260065
0.00262317
0.00264507
0.00266634
0.00268698
0.00270698
0.00272634
0.00274506
0.00276314
0.00278058
0.00279739
0.00281356
0.0028291
0.00284401
0.00285831
0.00287199
0.00288506
0.00289753
0.0029094
0.00292067
0.00293134
0.00294141
0.00295088
0.00295977
0.00296805
0.00297575
0.00298285
0.00298937
0.00299531
0.00300072
0.00300557
0.00300991
0.00301362
0.0030167
0.00301907
0.00302087
0.00302223
0.00302306
0.00302334
0.00302307
0.00302224
0.00302083
0.00301885
0.00301629
0.00301317
0.00300948
0.0030052
0.00300039
0.00299498
0.00298906
0.00298253
0.0029755
0.00296787
0.00295975
0.00295108
0.00294192
0.0029323
0.00292223
0.00291174
0.00290087
0.00288962
0.00287804
0.00286612
0.0028539
0.00284136
0.00282854
0.00281546
0.00280214
0.0027886
0.00277484
0.00276085
0.00274661
0.002732
0.00271686
0.00270082
0.00268298
0.00266057
0.00262659
2.0953e-09
1.96586e-07
2.49159e-06
1.32012e-05
3.50406e-05
6.31083e-05
9.07598e-05
0.000113854
0.000131528
0.000144246
0.000152937
0.000157898
0.000160405
0.000161235
0.000160829
0.000159435
0.000157189
0.000154132
0.000150148
0.000145173
0.000139293
0.000132537
0.000124493
0.000109909
9.38167e-05
7.94033e-05
6.63481e-05
5.5346e-05
4.87235e-05
5.0632e-05
6.34539e-05
8.19886e-05
0.000105259
0.000121645
0.000133941
0.000142834
0.000150861
0.000161857
0.000178238
0.000185344
0.000198119
0.0002203
0.000248047
0.000283164
0.000324718
0.000372615
0.000425936
0.000482773
0.00054284
0.000604609
0.000667889
0.00073179
0.000796005
0.000859988
0.000923464
0.000985826
0.00104705
0.00110766
0.00116676
0.00122465
0.00128126
0.00133658
0.00139065
0.00144355
0.00149528
0.00154597
0.00159568
0.00164449
0.00169249
0.00173973
0.00178627
0.00183215
0.00187742
0.00192208
0.00196616
0.00200967
0.00205259
0.00209494
0.00213671
0.00217788
0.00221844
0.00225838
0.00229769
0.00233636
0.00237439
0.00241175
0.00244844
0.00248447
0.00251982
0.00255448
0.00258846
0.00262172
0.00265427
0.00268609
0.00271718
0.00274755
0.0027772
0.00280612
0.00283434
0.00286187
0.00288872
0.00291488
0.00294037
0.00296517
0.00298928
0.00301271
0.00303544
0.00305748
0.00307882
0.00309945
0.00311938
0.00313861
0.00315714
0.00317498
0.00319214
0.00320861
0.0032244
0.0032395
0.00325392
0.00326767
0.00328074
0.00329314
0.00330487
0.00331594
0.00332634
0.00333607
0.00334515
0.00335356
0.00336132
0.00336842
0.0033749
0.00338085
0.00338616
0.00339086
0.00339491
0.00339819
0.00340079
0.00340279
0.00340426
0.00340514
0.00340544
0.00340515
0.00340426
0.00340282
0.00340079
0.00339817
0.00339496
0.00339117
0.0033868
0.00338186
0.00337633
0.00337024
0.00336358
0.00335637
0.00334858
0.00334025
0.00333138
0.003322
0.00331213
0.0033018
0.00329102
0.00327983
0.00326823
0.00325627
0.00324394
0.00323127
0.00321825
0.00320492
0.00319129
0.00317739
0.00316324
0.00314886
0.00313425
0.00311939
0.0031042
0.00308856
0.00307217
0.00305431
0.00303283
0.00300203
6.23657e-09
5.17161e-07
6.6509e-06
2.84257e-05
6.06866e-05
9.28253e-05
0.000119377
0.000139666
0.000154594
0.000164339
0.000169787
0.000172386
0.00017299
0.000172187
0.000170382
0.000167792
0.000164446
0.000160207
0.000155184
0.000149414
0.000142907
0.000135397
0.000121143
0.000105245
9.1757e-05
8.13913e-05
7.54886e-05
7.62812e-05
7.97322e-05
9.14563e-05
0.000113275
0.000136821
0.000157811
0.000168444
0.0001782
0.000189658
0.000198283
0.000205218
0.00021769
0.000237621
0.000263429
0.000296904
0.000336608
0.000383088
0.000435241
0.000492264
0.000552771
0.000615539
0.000680065
0.00074558
0.000811768
0.000878133
0.00094438
0.00100997
0.00107472
0.00113909
0.00120233
0.00126461
0.00132574
0.00138572
0.00144455
0.00150224
0.0015588
0.0016143
0.00166877
0.00172227
0.00177486
0.0018266
0.00187755
0.00192776
0.00197728
0.00202613
0.00207435
0.00212195
0.00216894
0.0022153
0.00226103
0.00230613
0.00235058
0.00239437
0.00243748
0.0024799
0.00252162
0.00256263
0.00260293
0.0026425
0.00268134
0.00271946
0.00275686
0.00279354
0.00282949
0.00286471
0.00289919
0.00293292
0.00296591
0.00299815
0.00302962
0.00306036
0.00309037
0.00311967
0.00314827
0.00317616
0.00320334
0.0032298
0.00325555
0.00328057
0.00330487
0.00332843
0.00335125
0.00337333
0.00339467
0.00341526
0.0034351
0.00345421
0.00347256
0.00349018
0.00350706
0.0035232
0.00353861
0.0035533
0.00356726
0.00358049
0.003593
0.00360479
0.00361587
0.00362623
0.00363589
0.00364484
0.00365309
0.00366064
0.00366756
0.00367389
0.00367959
0.00368456
0.00368887
0.00369238
0.00369523
0.00369745
0.00369908
0.00370012
0.00370054
0.00370036
0.00369955
0.00369816
0.00369618
0.00369361
0.00369045
0.00368671
0.00368239
0.0036775
0.00367203
0.00366601
0.00365942
0.00365228
0.00364457
0.00363632
0.00362754
0.00361824
0.00360844
0.00359817
0.00358745
0.0035763
0.00356473
0.00355276
0.00354041
0.00352769
0.00351459
0.00350116
0.0034874
0.00347334
0.00345901
0.00344443
0.00342962
0.00341456
0.00339922
0.00338351
0.00336722
0.00334986
0.00332977
0.00330274
1.61389e-08
1.28021e-06
1.49301e-05
4.81041e-05
8.75305e-05
0.000122131
0.000147916
0.000165007
0.000175442
0.000181235
0.000183449
0.000182991
0.000180798
0.000177571
0.000173716
0.000169369
0.000164509
0.000159086
0.000152996
0.000146322
0.000138628
0.000128771
0.000114067
0.000103119
9.72287e-05
9.33153e-05
9.408e-05
0.000103859
0.000121157
0.000141377
0.000161707
0.000180102
0.000195023
0.000205382
0.000213332
0.000222051
0.000233886
0.000251812
0.000275127
0.000305645
0.000342479
0.000385908
0.000435033
0.000489587
0.000548425
0.000610481
0.00067464
0.000740169
0.000806648
0.000873642
0.000940851
0.00100793
0.00107431
0.00114042
0.00120595
0.00127068
0.00133448
0.00139731
0.00145912
0.0015199
0.00157964
0.00163834
0.00169603
0.00175275
0.00180853
0.00186343
0.00191748
0.00197073
0.00202323
0.00207501
0.00212613
0.0021766
0.00222647
0.00227572
0.00232437
0.00237238
0.00241973
0.00246642
0.00251243
0.00255774
0.00260233
0.00264619
0.0026893
0.00273165
0.00277327
0.00281416
0.00285432
0.00289371
0.00293234
0.0029702
0.00300732
0.00304368
0.00307928
0.00311414
0.00314825
0.00318161
0.00321425
0.00324616
0.00327736
0.00330783
0.0033376
0.00336664
0.00339496
0.00342256
0.00344942
0.00347554
0.00350092
0.00352554
0.00354941
0.00357251
0.00359485
0.00361641
0.0036372
0.00365722
0.00367646
0.00369493
0.00371262
0.00372955
0.0037457
0.00376109
0.00377572
0.00378958
0.00380268
0.00381503
0.00382663
0.00383748
0.00384758
0.00385695
0.00386558
0.00387349
0.00388078
0.00388742
0.00389339
0.00389863
0.00390316
0.0039069
0.00391
0.00391247
0.00391432
0.00391555
0.00391617
0.00391619
0.00391562
0.00391445
0.0039127
0.00391038
0.00390749
0.00390405
0.00390005
0.0038955
0.00389041
0.00388478
0.00387862
0.00387192
0.00386468
0.00385692
0.00384864
0.00383986
0.0038306
0.00382087
0.0038107
0.00380008
0.00378905
0.00377761
0.00376577
0.00375353
0.0037409
0.00372791
0.00371457
0.0037009
0.00368695
0.00367272
0.00365824
0.00364353
0.00362856
0.00361328
0.00359757
0.00358099
0.00356218
0.00353846
3.58404e-08
2.95265e-06
2.71569e-05
7.05777e-05
0.000112983
0.000146463
0.000169336
0.00018383
0.000191033
0.000192883
0.000191269
0.00018754
0.000182591
0.000176972
0.000170947
0.000164389
0.000157643
0.000150331
0.000143085
0.000136079
0.000128732
0.000121447
0.000114932
0.000111031
0.000113012
0.000120781
0.000133101
0.000148683
0.00016607
0.000183328
0.000199085
0.000211901
0.000222343
0.000233551
0.000246257
0.000262922
0.000284034
0.000311459
0.000344863
0.000384521
0.000429773
0.000480349
0.000535532
0.000594687
0.000656798
0.000720948
0.000786386
0.000852632
0.00091936
0.000986284
0.00105288
0.0011191
0.00118527
0.00125075
0.00131554
0.00137951
0.00144261
0.00150478
0.00156601
0.00162629
0.0016856
0.00174396
0.00180139
0.00185792
0.00191361
0.0019685
0.00202264
0.00207605
0.00212872
0.00218074
0.00223215
0.00228299
0.00233327
0.00238304
0.00243232
0.00248121
0.00252954
0.00257718
0.00262409
0.00267025
0.00271563
0.00276022
0.00280399
0.00284694
0.00288908
0.00293038
0.00297085
0.00301055
0.00304951
0.00308775
0.00312529
0.00316212
0.00319825
0.00323367
0.00326841
0.00330246
0.00333582
0.00336848
0.00340044
0.0034317
0.00346226
0.00349212
0.00352125
0.00354967
0.00357736
0.00360432
0.00363052
0.00365597
0.00368067
0.00370459
0.00372773
0.00375009
0.00377167
0.00379246
0.00381245
0.00383165
0.00385005
0.00386766
0.00388448
0.0039005
0.00391573
0.00393018
0.00394383
0.0039567
0.00396879
0.00398011
0.00399066
0.00400044
0.00400947
0.00401778
0.00402543
0.00403242
0.00403867
0.00404421
0.00404902
0.0040531
0.00405651
0.00405928
0.00406142
0.00406295
0.00406388
0.00406422
0.00406397
0.00406316
0.00406179
0.00405987
0.00405741
0.00405442
0.00405092
0.0040469
0.00404238
0.00403736
0.00403183
0.00402579
0.00401926
0.00401222
0.0040047
0.00399671
0.00398825
0.00397934
0.00397
0.00396023
0.00395004
0.00393943
0.00392842
0.00391699
0.00390517
0.00389295
0.00388037
0.00386744
0.00385419
0.00384065
0.00382685
0.0038128
0.00379851
0.00378396
0.00376907
0.00375353
0.00373622
0.00371618
6.84001e-08
6.09761e-06
4.17456e-05
9.29032e-05
0.000137567
0.000169004
0.000189235
0.000199331
0.000202266
0.000200482
0.000195776
0.000189374
0.000182066
0.000174106
0.000166281
0.000158182
0.000150605
0.000143771
0.000138081
0.000133391
0.000130235
0.00012958
0.000132245
0.000138551
0.000147807
0.000159775
0.000173576
0.000188284
0.000202972
0.000216277
0.000227866
0.000240445
0.000254798
0.000271246
0.00029102
0.000315775
0.000345849
0.000381611
0.000422663
0.000468749
0.000519347
0.000574031
0.000632188
0.000693141
0.000756087
0.000820331
0.000885347
0.00095078
0.00101633
0.00108146
0.00114661
0.00121137
0.00127562
0.00133917
0.00140195
0.00146388
0.00152492
0.00158507
0.00164431
0.00170268
0.00176016
0.00181678
0.00187246
0.00192736
0.00198152
0.00203501
0.00208789
0.00214028
0.00219245
0.00224417
0.00229536
0.00234601
0.00239613
0.00244575
0.00249485
0.00254334
0.00259123
0.00263849
0.00268505
0.00273092
0.00277608
0.00282048
0.0028641
0.00290693
0.00294897
0.00299024
0.00303079
0.00307063
0.00310976
0.0031482
0.00318599
0.00322311
0.00325958
0.0032954
0.00333058
0.00336511
0.00339898
0.0034322
0.00346475
0.00349663
0.00352784
0.00355837
0.00358821
0.00361735
0.00364578
0.00367349
0.00370046
0.0037267
0.00375217
0.00377689
0.00380082
0.00382398
0.00384635
0.00386792
0.00388868
0.00390864
0.0039278
0.00394614
0.00396367
0.00398039
0.0039963
0.0040114
0.00402568
0.00403917
0.00405184
0.00406373
0.00407482
0.00408513
0.00409466
0.00410348
0.0041116
0.004119
0.00412567
0.00413163
0.00413686
0.00414139
0.00414523
0.00414841
0.00415097
0.00415293
0.00415429
0.00415508
0.00415531
0.00415498
0.00415412
0.00415274
0.00415086
0.00414848
0.00414562
0.00414229
0.00413849
0.00413423
0.00412949
0.00412429
0.00411862
0.00411249
0.0041059
0.00409887
0.00409141
0.00408352
0.00407521
0.0040665
0.00405737
0.00404783
0.00403787
0.0040275
0.0040167
0.00400551
0.00399392
0.00398197
0.00396967
0.00395706
0.00394417
0.003931
0.0039176
0.00390396
0.00389005
0.00387565
0.00385978
0.00384293
1.10944e-07
1.0344e-05
5.4525e-05
0.000110188
0.000156668
0.000187812
0.000204929
0.000211653
0.000211483
0.000207049
0.000200238
0.000192057
0.000183704
0.000175566
0.000168164
0.000161593
0.000156062
0.00015246
0.000150592
0.000150604
0.000152823
0.000157447
0.000164453
0.000173574
0.000184341
0.000196361
0.000209006
0.000221362
0.000233071
0.000245815
0.000260976
0.000277975
0.000296982
0.000319872
0.000347135
0.000379277
0.000416227