/*--------------------------------*- C++ -*----------------------------------*\
  =========                 |
  \\      /  F ield         | OpenFOAM: The Open Source CFD Toolbox
   \\    /   O peration     | Website:  https://openfoam.org
    \\  /    A nd           | Version:  13
     \\/     M anipulation  |
\*---------------------------------------------------------------------------*/
FoamFile
{
    format      ascii;
    class       volScalarField;
    location    "1800";
    object      omega;
}
// * * * * * * * * * * * * * * * * * * * * * * * * * * * * * * * * * * * * * //

dimensions      [0 0 -1 0 0 0 0];

internalField   nonuniform List<scalar> 
12225
(
31477.7
31477.7
46880.5
47078.7
57200.6
56000.3
47216.9
41216.3
42740.4
50465.5
51616.3
49128.5
44189.5
31477.7
31477.7
31477.7
39307.2
47909.9
7068.35
8056.79
13999.7
15947.5
18790.4
24383.7
21306.1
21643.6
21440.9
19762.6
23850.4
24081.1
23043.4
21521.6
19461.2
19741.3
18585.8
20821.8
1629.19
2725.81
3960.37
5290.52
6179.69
7320.14
7680.27
8041.05
8448.09
8315.26
8754.18
8875
8899.74
8854.83
8815.84
8798.74
9311.23
9009.44
680.791
949.526
1306.91
2075.25
2453.81
2965.44
3051.8
2957.24
3267.04
5438.58
4413.37
4624.94
5918.21
6515.87
6502.07
6413.1
6169.17
6062.95
487.553
546.612
685.682
882.1
1404.22
1666.07
2451.08
1882.49
2004.01
3223.82
2890.81
2914.34
3049.66
4204.5
3685
3850.68
4308.48
4571.62
447.049
463.379
498.51
601.263
746.436
889.61
1102.72
1325.95
1458.29
1741.79
2301.62
2764.33
2421.49
2458.56
2918.21
2660.57
2883.6
3018.31
438.96
444.982
455.296
484.237
548.256
584.833
705.138
963.684
1104.37
1191.89
1494.16
1687.31
1928.26
1794.89
1915.24
1882.67
1900.23
1923.77
438.258
437.22
439.368
444.013
473.118
530.958
623.009
739.759
848.194
924.994
1002.12
1057.86
1121.74
1103.23
1112.4
1119.78
1133.64
1153.74
439.224
435.814
436.947
438.742
446.097
473.046
517.257
565.186
611.58
650.017
680.301
702.975
718.579
729.088
735.381
739.683
746.77
752.282
438.823
436.632
433.436
434.151
438.421
449.455
466.837
484.521
502.828
518.104
530.255
540.101
546.003
550.69
553.114
556.758
557.473
564.738
439.07
436.716
434.273
431.066
431.972
434.974
441.104
446.42
453.061
458.362
463.223
467.175
469.469
471.657
471.86
475.552
476.268
477.395
439.031
436.815
434.403
432.572
429.537
429.491
430.627
431.806
433.479
434.808
436.19
437.396
438.402
438.93
439.813
439.326
440.344
440.107
439.02
436.79
434.639
432.578
430.56
428.946
427.833
426.924
426.29
425.695
425.164
424.71
424.136
423.711
423.033
422.649
421.844
421.631
439.001
436.784
434.665
432.651
430.717
428.919
427.276
425.763
424.357
423.063
421.814
420.685
419.545
418.543
417.48
416.594
415.597
414.812
439.001
436.778
434.66
432.656
430.743
428.935
427.215
425.593
424.045
422.587
421.187
419.872
418.602
417.413
416.257
415.18
414.127
413.148
439
436.774
434.657
432.649
430.741
428.928
427.205
425.564
424.005
422.518
421.105
419.753
418.469
417.24
416.071
414.952
413.887
412.867
439.001
436.772
434.655
432.645
430.736
428.921
427.194
425.552
423.988
422.5
421.079
419.727
418.435
417.205
416.029
414.909
413.836
412.815
438.999
436.769
434.65
432.639
430.727
428.91
427.181
425.537
423.97
422.48
421.057
419.703
418.41
417.178
416
414.879
413.805
412.782
439
436.771
434.654
432.643
430.732
428.915
427.187
425.542
423.976
422.485
421.063
419.708
418.415
417.184
416.007
414.885
413.812
412.789
439.001
436.772
434.655
432.644
430.734
428.92
427.196
425.557
423.995
422.51
421.096
419.751
418.471
417.251
416.09
414.981
413.926
412.912
439.013
436.758
434.61
432.603
430.713
428.951
427.316
425.749
424.288
422.879
421.584
420.331
419.196
418.087
417.097
416.095
415.224
414.295
439.004
436.683
434.323
432.542
430.943
430.157
429.533
429.054
428.467
428.017
427.491
427.013
426.509
426.268
425.935
425.673
425.658
425.301
438.876
436.619
436.333
436.285
438.66
446.231
453.333
460.759
464.7
472.33
475.586
478.928
476.696
483.807
480.544
480.96
482.244
482.734
436.72
445.289
465.47
478.041
515.764
564.461
607.256
639.743
663.097
689.134
700.714
722.583
726.076
729.644
711.561
727.633
713.275
703.743
410.369
561.186
747.439
851.076
1124.27
1311.99
1379.16
1445.1
1579.05
1556.68
1614.09
1622.12
1608.76
1604
1581.45
1536.22
1502.07
1484.74
53.4649
1599.73
3191.06
3603.28
4339.57
3689.38
3677.05
4345.52
3850.94
4031.53
4335.54
4405.56
4307.1
4166.23
4019.3
3853.74
3691.03
3509.01
3196.68
0.272987
11518.2
13830.3
13400.3
11219.1
11450.3
12692.3
12267.5
11397.5
8835.84
6468.34
5562.12
5067.99
5042.87
4900.54
5301.24
4938.43
64342.8
67923.5
41666.2
38228.8
32644.7
19360.9
12015.8
6929.92
4185.39
9448.93
23783.1
15483.4
14181.8
17359.1
17815.4
17260.2
15539.6
14592
440165
239989
91789
37907
15920.9
16659.1
20732.7
15358.9
12581.7
11843.5
11615.5
10996.7
10825.4
10966.2
11218.7
11147
11228.8
11352.7
18117.5
23446.4
25464.2
26413.6
26708.7
26607.1
26419.8
26064.1
25650.5
25214.4
24787.5
24389.9
24024.5
23698.6
23401.8
23144.5
22906.6
22691.9
11463.2
2514.24
2516.41
2518.61
2520.83
2523.07
2525.32
2527.6
2529.9
2532.22
2534.57
2536.93
2539.31
2541.72
2544.15
2546.6
2549.08
2551.57
2554.09
2556.64
2559.2
2561.79
2564.41
2567.05
2569.71
2572.4
2575.12
2577.86
2580.62
2583.41
2586.23
2589.08
2591.95
2594.85
2597.77
2600.73
2603.71
2606.72
2609.76
2612.82
2615.92
2619.05
2622.2
2625.39
2628.61
2631.86
2635.14
2638.45
2641.79
2645.17
2648.58
2652.02
2655.5
2659.01
2662.55
2666.13
2669.74
3447.05
3297.98
3332.21
3177.98
2688.35
3267.64
3262.92
3327.92
3470.68
3534.01
3624.85
3699.42
3776.61
3848.37
3920.12
3988.09
4055.77
4120.59
4184.81
4246.86
4308.13
4367.65
4426.31
4483.45
4539.71
4594.6
4648.58
4701.3
4753.03
4803.59
4853.09
4901.48
4948.74
4994.83
5039.74
5083.4
5125.85
5166.94
5206.74
5245.12
5282.27
5318.27
5353.72
5387.89
5421.34
5453.89
5485.63
5516.62
5546.71
5576.06
5604.47
5632.13
5658.82
5684.77
5709.75
5734
5757.28
5779.82
5801.42
5822.26
5842.2
5861.37
5879.65
5897.14
5913.72
5929.44
5944.28
5958.2
5971.24
5983.27
5994.34
6004.19
6012.85
6019.76
6027.89
6035.46
6042.08
6048.07
6053.52
6058.01
6062.31
6064.76
6065.67
6066.46
6066.01
6064.18
6061.93
6058.59
6054.47
6049.48
6043.81
6036.99
6029.87
6021.24
6012.67
6002.38
5992.42
5980.57
5969.36
5956.14
5943.55
5929.99
5916.06
5901.93
5887.44
5872.75
5857.94
5842.96
5827.96
5812.86
5797.84
5782.83
5768.01
5753.3
5738.83
5724.43
5710.08
5695.34
5679.61
5661.78
5639.38
5606.92
5484.88
11463.2
1988.38
983.937
792.139
674.089
612.104
617.825
614.252
602.344
580.124
556.742
533.599
512.755
495.659
484.074
475.841
475.761
479.855
495.771
545.519
622.841
718.519
824.936
931.966
1032.27
1110.85
1168.22
1170.75
1146.97
1082.64
968.661
831.163
680.041
585.938
520.228
470.812
445.321
446.605
457.746
482.968
516.427
550.375
591.563
681.469
817.092
1020.85
1320.51
1618.51
1830.67
1970.78
2045
2066.28
2060.19
2028.64
1983.67
1917.12
1879.38
1882.61
1779.27
1746.41
1715.54
1683.24
1694.01
1667.49
1663.18
1659.54
1656.8
1656.46
1656.96
1660.17
1664.3
1669.3
1674.83
1681
1687.38
1694.16
1701.03
1708.11
1715.21
1722.39
1729.54
1736.69
1743.79
1750.82
1757.76
1764.58
1771.29
1777.85
1784.31
1790.6
1796.8
1802.82
1808.76
1814.57
1820.38
1826.24
1832.38
1839.07
1846.79
1856.13
1864.77
1873.43
1881.9
1890.21
1898.35
1906.33
1914.11
1921.73
1929.14
1936.38
1943.41
1950.27
1956.92
1963.39
1969.65
1975.73
1981.59
1987.26
1992.71
1997.94
2002.95
2007.73
2012.3
2016.65
2020.77
2024.66
2028.3
2031.7
2034.86
2037.79
2040.58
2043.39
2045.9
2048.29
2050.45
2052.57
2054.29
2055.74
2056.23
2055.99
2055.92
2055.63
2055.03
2054.24
2053.22
2051.99
2050.58
2048.92
2047.38
2044.68
2043.09
2039.83
2038.01
2034.29
2032.21
2028.08
2025.43
2022.02
2018.17
2014.79
2010.99
2007.22
2003.36
1999.44
1995.48
1991.48
1987.46
1983.44
1979.42
1975.44
1971.49
1967.61
1963.79
1960.05
1956.47
1953.13
1950.11
1947.99
1945.88
1953.93
11463.2
1988.23
797.913
625.031
661.545
662.488
635.861
582.008
523.658
469.049
420.559
380.252
348.358
323.228
303.785
288.864
278.205
270.514
267.517
270.137
277.119
294.687
323.507
363.038
414.126
470.64
531.708
581.809
620.344
629.572
618.381
588.144
530.873
467.01
405.404
368.107
370.112
384.543
412.461
454.074
529.932
641.75
792.156
978.724
1153.56
1301.03
1431.56
1518.01
1549.59
1550.57
1506.53
1453.33
1393.45
1336.95
1282.41
1233.71
1198.38
1175.68
1146.3
1131.53
1120.25
1108.8
1105.78
1097.99
1096.1
1094.26
1094.03
1094.54
1096.19
1098.42
1101.09
1104.09
1107.35
1110.84
1114.46
1118.22
1122.07
1125.99
1129.95
1133.96
1137.98
1142.01
1146.05
1150.08
1154.09
1158.09
1162.06
1166.02
1169.95
1173.87
1177.78
1181.68
1185.61
1189.56
1193.6
1197.75
1202.07
1206.6
1211.39
1216.25
1220.93
1225.57
1230.11
1234.56
1238.92
1243.19
1247.34
1251.39
1255.33
1259.17
1262.89
1266.5
1269.99
1273.37
1276.63
1279.76
1282.77
1285.65
1288.39
1291
1293.47
1295.8
1298
1300.05
1301.97
1303.74
1305.38
1306.86
1308.21
1309.45
1310.57
1311.58
1312.44
1313.18
1313.75
1314.25
1314.51
1314.56
1314.38
1314.02
1313.56
1312.96
1312.2
1311.32
1310.3
1309.17
1307.9
1306.44
1305.05
1303.21
1301.69
1299.57
1297.89
1295.52
1293.69
1291.13
1288.98
1286.59
1284.01
1281.53
1278.9
1276.24
1273.52
1270.76
1267.97
1265.15
1262.3
1259.44
1256.57
1253.71
1250.86
1248.05
1245.29
1242.62
1240.12
1237.92
1236.18
1235.57
1236.51
1246.37
11463.2
2031.32
995.133
949.064
877.577
752.68
639.573
535.977
453.429
391.926
345.84
309.864
281.782
260.076
243.383
230.618
221.022
214.06
209.35
207.301
207.754
211.269
217.341
229.7
248.659
274.008
306.14
339.968
373.037
397.485
413.174
411.263
397.977
376.239
385.107
440.155
524.806
582.396
636.197
706.035
808.032
940.626
1056.48
1135.39
1203.64
1257.27
1278.67
1246.07
1201.79
1158.51
1105.19
1060.2
1018.32
984.042
954.57
931.233
913.845
901.3
890.099
883.528
878.757
875.089
873.981
871.928
871.942
872.438
873.757
875.487
877.625
880.036
882.668
885.474
888.422
891.485
894.64
897.871
901.161
904.503
907.883
911.296
914.733
918.189
921.66
925.14
928.625
932.115
935.607
939.101
942.599
946.101
949.612
953.132
956.671
960.24
963.85
967.507
971.215
974.965
978.732
982.454
986.088
989.663
993.164
996.589
999.936
1003.2
1006.37
1009.46
1012.46
1015.37
1018.18
1020.89
1023.51
1026.03
1028.44
1030.75
1032.95
1035.04
1037.01
1038.87
1040.62
1042.25
1043.76
1045.16
1046.45
1047.61
1048.66
1049.59
1050.41
1051.12
1051.72
1052.2
1052.57
1052.81
1052.92
1052.93
1052.78
1052.48
1052.03
1051.47
1050.81
1050.03
1049.13
1048.11
1046.99
1045.76
1044.42
1042.95
1041.44
1039.73
1038.05
1036.14
1034.29
1032.19
1030.2
1027.94
1025.74
1023.45
1021.05
1018.63
1016.13
1013.59
1011.01
1008.38
1005.72
1003.02
1000.31
997.576
994.832
992.084
989.346
986.63
983.964
981.389
978.97
976.817
975.082
974.269
975
980.97
11463.2
2294.87
1430.89
1153.74
917.671
711.562
548.982
438.999
363.824
311.256
273.867
246.893
227.234
212.6
201.565
193.22
186.961
182.414
179.336
177.737
177.921
179.194
182.09
187.932
197.196
210.693
229.269
251.317
274.753
295.856
311.429
324.458
361.092
426.452
530.444
607.63
669.975
736.947
810.855
882.676
947.497
1003.6
1051.56
1083.11
1092.15
1064.01
1017.74
982.123
940.605
904.728
870.766
843.626
820.126
801.507
786.367
774.844
766.375
760.391
755.958
753.772
752.331
751.914
752.332
753.105
754.665
756.579
758.874
761.413
764.159
767.064
770.097
773.237
776.466
779.769
783.135
786.556
790.022
793.528
797.068
800.636
804.227
807.838
811.463
815.1
818.746
822.397
826.053
829.711
833.369
837.032
840.691
844.354
848.012
851.677
855.338
858.999
862.643
866.263
869.836
873.348
876.786
880.154
883.449
886.665
889.801
892.85
895.814
898.685
901.467
904.154
906.747
909.241
911.636
913.928
916.118
918.202
920.179
922.044
923.799
925.441
926.971
928.388
929.694
930.888
931.967
932.933
933.785
934.524
935.151
935.667
936.069
936.35
936.515
936.554
936.457
936.263
935.93
935.468
934.88
934.183
933.378
932.457
931.421
930.276
929.023
927.663
926.196
924.614
922.95
921.156
919.303
917.317
915.287
913.125
910.933
908.612
906.25
903.815
901.3
898.735
896.108
893.429
890.703
887.935
885.132
882.298
879.438
876.558
873.664
870.766
867.875
865.013
862.202
859.475
856.888
854.528
852.521
851.208
851.196
854.066
11463.2
2866.63
1689.64
1179.27
816.533
575.487
434.675
348.371
295.489
261.448
237.393
219.132
204.724
193.148
183.819
176.388
170.651
166.467
163.675
162.283
162.381
163.452
165.999
170.492
177.118
186.82
200.687
218.781
241.365
271.401
316.266
377.385
476.213
577.382
652.394
714.639
773.321
824.095
864.842
900.383
934.704
953.468
956.675
929.734
898.844
867.296
833.554
804.85
776.949
754.09
734.2
718.255
705.108
694.894
687.051
681.416
677.624
675.496
674.592
674.53
675.324
676.74
678.687
680.995
683.696
686.65
689.82
693.149
696.609
700.173
703.824
707.55
711.34
715.186
719.081
723.02
726.997
731.008
735.047
739.11
743.193
747.291
751.399
755.515
759.633
763.752
767.866
771.973
776.073
780.158
784.232
788.285
792.316
796.321
800.297
804.236
808.127
811.958
815.723
819.413
823.022
826.551
829.994
833.349
836.612
839.78
842.85
845.819
848.687
851.451
854.108
856.657
859.096
861.423
863.64
865.743
867.73
869.6
871.352
872.986
874.501
875.898
877.178
878.339
879.381
880.305
881.109
881.795
882.362
882.811
883.138
883.33
883.395
883.318
883.136
882.829
882.389
881.82
881.125
880.313
879.383
878.333
877.163
875.878
874.476
872.959
871.328
869.581
867.729
865.762
863.7
861.527
859.271
856.91
854.474
851.94
849.332
846.648
843.889
841.066
838.181
835.24
832.247
829.21
826.135
823.027
819.892
816.735
813.563
810.386
807.215
804.068
800.968
797.944
795.043
792.336
789.918
788.03
787.054
787.852
11463.2
3367.3
1738.91
1017.76
638.906
446.712
346.401
290.069
254.988
231.371
214.225
201.165
190.598
181.675
174.086
167.735
162.616
158.755
156.311
155.353
155.81
157.659
161.418
167.29
176.065
188.33
205.206
230.195
268.938
327.75
416.779
516.507
597.894
661.54
715.892
759.551
793.47
821.573
844.677
854.826
853.757
831.79
809.679
784.008
758.895
734.436
711.419
691.698
674.271
660.012
648.118
638.678
631.291
625.847
622.067
619.954
619.166
619.142
620.161
621.871
624.165
626.938
630.101
633.557
637.269
641.171
645.227
649.403
653.678
658.034
662.459
666.943
671.48
676.065
680.692
685.356
690.054
694.779
699.528
704.294
709.073
713.859
718.648
723.433
728.212
732.978
737.728
742.457
747.16
751.835
756.477
761.077
765.633
770.137
774.589
778.977
783.301
787.551
791.716
795.79
799.768
803.65
807.428
811.103
814.669
818.124
821.465
824.691
827.797
830.785
833.649
836.391
839.007
841.497
843.854
846.085
848.187
850.162
852.007
853.723
855.31
856.77
858.101
859.304
860.379
861.326
862.144
862.834
863.396
863.83
864.131
864.274
864.285
864.157
863.909
863.524
863.003
862.345
861.554
860.634
859.585
858.407
857.097
855.65
854.072
852.367
850.535
848.577
846.499
844.299
841.985
839.557
837.025
834.386
831.652
828.819
825.898
822.893
819.808
816.65
813.425
810.139
806.797
803.406
799.975
796.509
793.013
789.495
785.961
782.421
778.887
775.376
771.907
768.508
765.218
762.091
759.201
756.719
754.832
754.017
11463.2
3517.04
1543.09
806.11
507.996
377.731
310.766
270.421
243.066
223.924
209.396
197.577
187.594
179.062
171.828
165.882
161.34
158.391
156.964
157.031
158.636
162.273
168.274
177.447
192.219
215.11
248.686
302.507
379.604
463.157
534.958
595.088
646.948
690.113
724.292
752.352
771.036
778.151
772.747
756.442
739.614
719.335
700.205
680.791
662.38
645.149
629.813
616.776
605.744
596.785
589.622
584.178
580.278
577.928
576.941
576.821
577.761
579.491
581.946
584.987
588.509
592.425
596.665
601.159
605.863
610.732
615.735
620.847
626.048
631.324
636.663
642.057
647.498
652.981
658.5
664.054
669.634
675.236
680.853
686.479
692.107
697.731
703.345
708.942
714.517
720.065
725.581
731.056
736.486
741.865
747.189
752.45
757.639
762.754
767.787
772.735
777.596
782.358
787.011
791.549
795.971
800.271
804.449
808.501
812.423
816.214
819.871
823.393
826.777
830.023
833.129
836.093
838.915
841.595
844.132
846.527
848.779
850.888
852.855
854.679
856.362
857.903
859.304
860.563
861.682
862.66
863.497
864.193
864.749
865.165
865.425
865.52
865.463
865.275
864.942
864.461
863.832
863.055
862.132
861.066
859.858
858.508
857.018
855.382
853.605
851.686
849.629
847.435
845.106
842.644
840.055
837.341
834.51
831.563
828.509
825.348
822.089
818.736
815.298
811.78
808.19
804.533
800.816
797.046
793.233
789.383
785.501
781.595
777.673
773.745
769.823
765.923
762.062
758.267
754.569
751.012
747.649
744.587
741.901
739.728
11463.2
3370.25
1274.73
654.299
434.052
336.834
286.204
256.295
236.435
220.997
208.674
198.561
189.999
182.678
176.578
171.85
168.738
167.414
168.115
170.761
176.073
185.275
199.218
220.067
252.881
299.773
359.543
423.627
482.401
535.379
581.428
621.261
654.814
683.687
703.375
710.567
707.681
695.348
682.053
666.351
651.353
636.257
621.979
608.03
594.976
583.141
572.892
564.302
557.268
551.746
547.631
544.865
543.516
543.161
543.78
545.314
547.675
550.741
554.421
558.621
563.257
568.259
573.563
579.115
584.869
590.789
596.845
603.015
609.281
615.626
622.034
628.495
634.998
641.535
648.1
654.693
661.306
667.93
674.557
681.179
687.788
694.378
700.94
707.467
713.95
720.374
726.736
733.04
739.279
745.452
751.547
757.558
763.473
769.288
774.993
780.584
786.049
791.384
796.584
801.644
806.562
811.335
815.962
820.436
824.759
828.926
832.938
836.791
840.486
844.019
847.392
850.601
853.65
856.536
859.262
861.827
864.233
866.479
868.568
870.499
872.273
873.892
875.354
876.662
877.814
878.812
879.654
880.342
880.874
881.253
881.454
881.484
881.35
881.069
880.626
880.022
879.255
878.327
877.24
875.993
874.589
873.027
871.308
869.431
867.398
865.209
862.866
860.372
857.727
854.936
852.002
848.93
845.726
842.395
838.942
835.374
831.696
827.917
824.044
820.086
816.048
811.938
807.764
803.533
799.255
794.937
790.586
786.21
781.819
777.422
773.032
768.665
764.336
760.07
755.891
751.838
747.948
744.31
740.953
737.716
11463.2
2967.08
1032.38
556.589
395.096
320.659
280.574
255.156
238.124
225.806
216.073
207.949
201.114
195.596
191.657
189.887
190.341
193.755
199.876
208.828
222.273
242.065
270.171
307.35
350.612
396.635
442.555
485.75
524.974
560.134
590.472
617.417
638.947
648.613
649.617
642.558
632.853
620.76
609.003
597.356
586.377
575.671
565.37
555.47
546.343
538.264
531.419
525.841
521.503
518.369
516.535
515.843
516.004
517.18
519.243
522.122
525.738
530.005
534.846
540.185
545.956
552.096
558.553
565.272
572.209
579.325
586.59
593.981
601.491
609.09
616.754
624.468
632.215
639.977
647.733
655.443
663.14
670.842
678.542
686.232
693.9
701.538
709.138
716.692
724.193
731.636
739.013
746.301
753.491
760.572
767.542
774.386
781.097
787.665
794.085
800.348
806.449
812.385
818.155
823.756
829.185
834.44
839.518
844.416
849.133
853.669
858.021
862.19
866.175
869.974
873.587
877.015
880.259
883.319
886.198
888.897
891.418
893.763
895.933
897.929
899.753
901.405
902.887
904.198
905.339
906.311
907.113
907.747
908.211
908.5
908.6
908.515
908.264
907.84
907.24
906.465
905.513
904.385
903.081
901.603
899.952
898.127
896.129
893.958
891.615
889.1
886.417
883.565
880.549
877.372
874.036
870.547
866.913
863.138
859.23
855.194
851.04
846.777
842.413
837.957
833.416
828.798
824.11
819.361
814.562
809.721
804.845
799.943
795.028
790.109
785.199
780.312
775.465
770.678
765.973
761.38
756.928
752.69
748.656
744.428
11463.2
2497.5
865.645
499.944
371.697
313.108
279.992
260.316
247.313
237.868
230.559
224.857
220.779
218.904
219.101
222.552
229.4
238.948
250.975
267.511
289.167
315.714
346.298
379.456
413.435
446.807
478.546
507.861
533.992
557.908
579.17
591.405
594.984
593.169
587.824
579.733
571.029
562.234
553.954
545.981
538.282
530.714
523.371
516.415
510.126
504.71
500.295
496.921
494.618
493.51
493.286
494.03
495.691
498.248
501.641
505.81
510.689
516.205
522.292
528.885
535.923
543.355
551.158
559.251
567.585
576.119
584.813
593.613
602.435
611.325
620.293
629.326
638.403
647.501
656.602
665.711
674.807
683.879
692.923
701.916
710.85
719.715
728.506
737.216
745.836
754.354
762.752
771.021
779.149
787.133
794.963
802.627
810.117
817.423
824.539
831.458
838.177
844.693
851.005
857.113
863.014
868.707
874.187
879.455
884.508
889.349
893.976
898.393
902.595
906.586
910.364
913.932
917.29
920.442
923.391
926.14
928.692
931.051
933.217
935.194
936.982
938.584
940
941.231
942.279
943.144
943.825
944.324
944.639
944.761
944.684
944.419
943.967
943.328
942.499
941.481
940.272
938.873
937.284
935.507
933.541
931.386
929.043
926.511
923.792
920.887
917.797
914.526
911.074
907.447
903.647
899.681
895.555
891.276
886.852
882.291
877.604
872.801
867.89
862.882
857.784
852.603
847.349
842.03
836.658
831.24
825.786
820.309
814.819
809.33
803.852
798.4
792.988
787.635
782.361
777.19
772.145
767.285
762.594
757.461
11463.2
2137.75
799.906
485.411
368.982
315.361
287.74
271.79
261.72
254.957
250.376
247.957
247.37
249.177
254.034
262.001
272.709
285.78
301.786
320.924
342.705
366.409
391.224
416.338
441.051
464.435
486.034
506.457
525.391
538.804
544.496
545.717
544.709
540.787
535.517
529.628
523.794
518.137
512.683
507.305
501.962
496.671
491.574
486.864
482.76
479.424
476.956
475.536
475.06
475.462
476.816
479.083
482.235
486.243
491.07
496.694
503.054
510.06
517.65
525.762
534.328
543.258
552.405
561.858
571.606
581.615
591.847
602.27
612.883
623.624
634.437
645.289
656.167
667.016
677.801
688.505
699.107
709.589
719.946
730.195
740.34
750.378
760.309
770.13
779.831
789.398
798.811
808.052
817.109
825.968
834.626
843.07
851.286
859.269
867.011
874.509
881.76
888.764
895.522
902.033
908.298
914.314
920.079
925.593
930.856
935.871
940.64
945.167
949.452
953.497
957.302
960.87
964.204
967.306
970.184
972.843
975.289
977.523
979.549
981.37
982.989
984.408
985.627
986.649
987.477
988.11
988.548
988.794
988.842
988.686
988.327
987.766
987.008
986.049
984.891
983.531
981.969
980.206
978.241
976.074
973.706
971.136
968.364
965.391
962.217
958.843
955.271
951.504
947.546
943.399
939.068
934.558
929.876
925.028
920.027
914.883
909.607
904.208
898.697
893.083
887.375
881.581
875.71
869.771
863.774
857.73
851.652
845.552
839.444
833.339
827.25
821.189
815.172
809.213
803.331
797.548
791.881
786.381
781.043
775.067
11463.2
1883.97
739.175
467.376
367.879
322.498
299.333
286.458
278.912
274.725
273.022
272.874
275.214
280.035
287.38
297.041
308.756
322.501
338.184
355.345
373.482
392.08
410.615
428.566
445.868
462.732
478.607
491.291
498.519
501.87
503.123
503.021
501.211
498.379
495.12
491.718
488.318
484.917
481.487
478.005
474.518
471.125
467.985
465.272
463.158
461.874
461.428
461.819
463.215
465.56
468.801
472.915
477.884
483.67
490.207
497.36
505.12
513.564
522.664
532.367
542.614
553.357
564.595
576.229
588.207
600.484
613.016
625.75
638.659
651.667
664.667
677.588
690.352
702.94
715.334
727.517
739.479
751.225
762.773
774.154
785.383
796.467
807.415
818.231
828.906
839.419
849.741
859.846
869.706
879.319
888.667
897.744
906.526
915.017
923.21
931.105
938.7
945.998
953.003
959.714
966.137
972.265
978.102
983.645
988.9
993.867
998.558
1002.97
1007.12
1011
1014.62
1017.97
1021.07
1023.91
1026.51
1028.87
1031.01
1032.92
1034.6
1036.07
1037.33
1038.38
1039.22
1039.85
1040.28
1040.5
1040.53
1040.36
1039.98
1039.39
1038.59
1037.59
1036.38
1034.97
1033.35
1031.52
1029.48
1027.23
1024.77
1022.1
1019.22
1016.13
1012.82
1009.31
1005.58
1001.65
997.506
993.158
988.61
983.864
978.926
973.801
968.493
963.012
957.372
951.585
945.663
939.615
933.45
927.179
920.811
914.354
907.817
901.212
894.544
887.829
881.082
874.319
867.552
860.794
854.056
847.35
840.691
834.09
827.567
821.143
814.83
808.673
802.696
795.926
11463.2
1872.36
735.787
470.1
375.814
333.997
313.444
302.617
296.944
294.425
293.86
295.453
299.433
305.473
313.375
322.859
333.713
345.727
358.649
372.128
385.809
399.33
412.776
426.289
439.014
449.472
456.845
461.903
465.461
467.282
468.053
468.21
467.696
466.716
465.509
464.164
462.713
461.171
459.569
457.977
456.531
455.451
454.772
454.563
454.947
456.1
458.026
460.694
464.002
467.989
472.878
478.706
485.474
493.156
501.725
511.185
521.513
532.645
544.535
557.106
570.287
584.016
598.242
612.863
627.799
642.999
658.427
673.924
689.361
704.643
719.717
734.517
748.979
763.067
776.756
790.033
802.916
815.438
827.664
839.692
851.551
863.251
874.818
886.273
897.596
908.745
919.67
930.331
940.692
950.739
960.467
969.857
978.875
987.536
995.845
1003.8
1011.4
1018.65
1025.55
1032.12
1038.35
1044.25
1049.81
1055.04
1059.94
1064.53
1068.8
1072.77
1076.46
1079.85
1082.97
1085.8
1088.36
1090.65
1092.71
1094.51
1096.07
1097.39
1098.47
1099.32
1099.97
1100.39
1100.59
1100.58
1100.37
1099.96
1099.33
1098.5
1097.48
1096.25
1094.82
1093.19
1091.35
1089.3
1087.05
1084.59
1081.91
1079.02
1075.92
1072.61
1069.08
1065.34
1061.38
1057.2
1052.81
1048.21
1043.39
1038.36
1033.13
1027.7
1022.07
1016.25
1010.24
1004.06
997.722
991.236
984.612
977.861
970.991
964.011
956.933
949.766
942.519
935.203
927.821
920.395
912.944
905.484
898.025
890.581
883.162
875.78
868.448
861.175
853.984
846.896
839.925
833.102
826.495
818.974
11463.2
1833.73
727.463
474.84
386.035
347.002
327.904
317.918
312.87
310.796
310.495
312.558
316.758
322.592
329.718
337.807
346.695
356.18
366.067
376.126
386.344
396.83
406.498
414.693
421.487
427.149
431.935
435.754
438.865
441.369
443.502
445.441
447.245
448.797
450.152
451.354
452.437
453.441
454.413
455.389
456.372
457.216
458.403
460.172
462.705
466.236
470.677
476.03
482.371
489.749
498.151
507.609
518.136
529.709
542.285
555.841
570.336
585.745
602.027
618.973
636.45
654.34
672.53
690.896
709.317
727.655
745.759
763.585
781.037
798.014
814.419
830.204
845.327
859.782
873.573
886.674
899.186
911.184
922.807
934.376
945.895
957.294
968.654
980.045
991.379
1002.55
1013.49
1024.11
1034.39
1044.29
1053.82
1062.98
1071.78
1080.19
1088.2
1095.79
1102.97
1109.74
1116.11
1122.11
1127.71
1132.94
1137.78
1142.26
1146.36
1150.12
1153.53
1156.65
1159.45
1161.94
1164.14
1166.04
1167.65
1169
1170.11
1170.98
1171.58
1171.94
1172.04
1171.9
1171.6
1171.07
1170.3
1169.33
1168.16
1166.79
1165.23
1163.47
1161.52
1159.38
1157.05
1154.53
1151.82
1148.9
1145.77
1142.44
1138.91
1135.17
1131.22
1127.07
1122.7
1118.12
1113.33
1108.33
1103.12
1097.69
1092.05
1086.21
1080.16
1073.91
1067.47
1060.85
1054.06
1047.11
1040.02
1032.78
1025.4
1017.89
1010.26
1002.53
994.692
986.769
978.769
970.704
962.572
954.407
946.226
938.044
929.868
921.711
913.585
905.504
897.479
889.518
881.646
873.887
866.252
858.76
851.53
843.302
11463.7
1811.72
727.122
482.876
396.296
358.394
340.067
330.139
324.841
322.573
322.131
323.819
327.387
332.263
338.081
344.55
351.592
359.086
366.981
374.842
382.471
389.637
396.553
403.201
409.463
415.425
421.129
426.588
431.816
436.769
441.416
445.658
449.342
452.894
456.391
459.893
463.446
467.109
470.942
475.009
479.41
484.342
489.865
496.125
503.352
511.769
521.113
531.422
542.77
555.196
568.707
583.351
599.211
616.281
634.35
653.296
672.992
693.264
713.933
734.921
756.095
777.302
798.4
819.255
839.746
859.764
879.217
898.043
916.18
933.54
949.948
965.469
980.147
994.064
1007.28
1019.85
1031.81
1043.15
1053.96
1064.36
1074.46
1084.38
1094.5
1105.04
1115.67
1126.16
1136.4
1146.3
1155.79
1164.85
1173.49
1181.74
1189.62
1197.1
1204.12
1210.66
1216.71
1222.3
1227.44
1232.15
1236.45
1240.32
1243.79
1246.85
1249.53
1251.81
1253.74
1255.41
1256.76
1257.79
1258.52
1258.95
1259.07
1258.89
1258.59
1258.02
1257.19
1256.12
1254.83
1253.33
1251.63
1249.74
1247.65
1245.38
1242.92
1240.3
1237.5
1234.52
1231.38
1228.06
1224.57
1220.91
1217.06
1213.02
1208.8
1204.39
1199.79
1195
1190.01
1184.83
1179.46
1173.89
1168.12
1162.15
1155.97
1149.6
1143.03
1136.26
1129.29
1122.14
1114.8
1107.28
1099.62
1091.81
1083.85
1075.75
1067.52
1059.16
1050.68
1042.09
1033.41
1024.65
1015.82
1006.93
998.01
989.079
980.14
971.206
962.285
953.39
944.533
935.728
926.988
918.322
909.758
901.319
893.014
884.848
876.994
868.099
11462.8
1791.69
727.132
488.489
403.253
366.144
348.019
337.948
332.459
330.045
329.491
330.901
334.088
338.509
343.933
350.018
356.67
363.675
370.92
378.489
386.3
394.121
401.869
409.611
417.351
425.154
433.05
441.093
449.283
457.471
465.727
474.137
482.819
491.747
500.955
510.495
520.403
530.724
541.493
552.728
564.491
576.862
589.819
603.345
617.449
631.954
647.146
663.127
679.928
697.578
716.128
735.684
756.157
777.283
799.084
821.462
844.274
867.332
890.427
913.362
935.953
958.029
979.455
1000.11
1019.9
1038.76
1056.67
1073.64
1089.7
1104.89
1119.27
1132.82
1145.48
1157.5
1169.04
1180.19
1190.88
1201.04
1210.65
1219.6
1228.04
1236.42
1245.15
1254.17
1263.13
1271.91
1280.37
1288.44
1296.04
1303.18
1309.84
1316.08
1321.87
1327.2
1332.04
1336.37
1340.18
1343.5
1346.39
1348.9
1351
1352.69
1354
1354.92
1355.48
1355.65
1355.49
1355.26
1354.68
1353.81
1352.67
1351.28
1349.62
1347.75
1345.69
1343.43
1340.96
1338.31
1335.47
1332.46
1329.28
1325.94
1322.45
1318.81
1315.02
1311.09
1307.02
1302.81
1298.45
1293.95
1289.31
1284.51
1279.55
1274.43
1269.15
1263.7
1258.09
1252.31
1246.36
1240.23
1233.93
1227.45
1220.79
1213.94
1206.91
1199.69
1192.29
1184.71
1176.94
1169
1160.87
1152.58
1144.12
1135.51
1126.75
1117.85
1108.81
1099.65
1090.37
1080.98
1071.5
1061.95
1052.32
1042.64
1032.96
1023.27
1013.57
1003.87
994.196
984.551
974.953
965.418
955.961
946.617
937.393
928.302
919.354
910.545
902.089
892.6
11461.8
1778.01
727.999
490.904
406.578
371.323
353.673
344.216
339.538
337.919
338.019
340.482
344.586
349.943
356.285
363.715
372.295
381.164
390.506
400.718
411.891
423.801
435.97
448.754
462.205
476.35
491.181
506.706
522.847
539.751
557.43
575.915
595.15
615.023
635.463
656.445
677.931
699.911
722.401
745.126
767.965
790.8
813.474
835.86
857.878
879.455
900.819
922.575
944.409
966.29
988.249
1010.19
1032.01
1053.84
1075.66
1097.42
1118.98
1140.15
1160.74
1180.58
1199.51
1217.39
1234.1
1249.56
1263.73
1276.57
1288.15
1298.54
1307.96
1316.5
1324.54
1332.12
1339.35
1346.3
1353.01
1359.51
1365.74
1371.62
1377.31
1382.93
1388.72
1395.13
1401.7
1407.91
1413.83
1419.42
1424.68
1429.55
1433.99
1437.94
1441.45
1444.56
1447.25
1449.49
1451.26
1452.58
1453.43
1453.87
1453.89
1453.7
1453.15
1452.24
1451.02
1449.5
1447.7
1445.62
1443.36
1440.91
1438.26
1435.41
1432.36
1429.13
1425.72
1422.16
1418.45
1414.61
1410.62
1406.51
1402.26
1397.89
1393.4