/*--------------------------------*- C++ -*----------------------------------*\
  =========                 |
  \\      /  F ield         | OpenFOAM: The Open Source CFD Toolbox
   \\    /   O peration     | Website:  https://openfoam.org
    \\  /    A nd           | Version:  13
     \\/     M anipulation  |
\*---------------------------------------------------------------------------*/
FoamFile
{
    format      ascii;
    class       volScalarField;
    location    "1800";
    object      p;
}
// * * * * * * * * * * * * * * * * * * * * * * * * * * * * * * * * * * * * * //

dimensions      [0 2 -2 0 0 0 0];

internalField   nonuniform List<scalar> 
12225
(
-4.14974
-5.02458
-5.42184
-5.5621
-5.71105
-5.88371
-6.0344
-6.16039
-6.27059
-6.36296
-6.43933
-6.50427
-6.56761
-6.62867
-6.69382
-6.76491
-6.84144
-6.93463
-4.42376
-5.0635
-5.3992
-5.53308
-5.67804
-5.84881
-6.00019
-6.12586
-6.23044
-6.32204
-6.4075
-6.48098
-6.54698
-6.61189
-6.67785
-6.74692
-6.81098
-6.8578
-4.63199
-5.0568
-5.3805
-5.54398
-5.6926
-5.85612
-6.00428
-6.12758
-6.23027
-6.32097
-6.40377
-6.47547
-6.54041
-6.60374
-6.66608
-6.72784
-6.78157
-6.81825
-4.76662
-5.07216
-5.38345
-5.55998
-5.70183
-5.85297
-5.99406
-6.11313
-6.21364
-6.30284
-6.38381
-6.45557
-6.52143
-6.58481
-6.64601
-6.70424
-6.75508
-6.79235
-4.8848
-5.11993
-5.4003
-5.57576
-5.71193
-5.85389
-5.98948
-6.10584
-6.20492
-6.29279
-6.37275
-6.44484
-6.5109
-6.57307
-6.63183
-6.68653
-6.73463
-6.77199
-4.99535
-5.18099
-5.41848
-5.58931
-5.72259
-5.85675
-5.98592
-6.09841
-6.19497
-6.28092
-6.3594
-6.43074
-6.49589
-6.55645
-6.61309
-6.66529
-6.71137
-6.7486
-5.09779
-5.23746
-5.4417
-5.60538
-5.73493
-5.86118
-5.98316
-6.09146
-6.18573
-6.27013
-6.34736
-6.41787
-6.48227
-6.54175
-6.59688
-6.64722
-6.69167
-6.72854
-5.18986
-5.296
-5.47087
-5.62403
-5.74829
-5.86695
-5.98197
-6.086
-6.17786
-6.26046
-6.33609
-6.40527
-6.46849
-6.52662
-6.58007
-6.62852
-6.67135
-6.70756
-5.27346
-5.35594
-5.50321
-5.64384
-5.76224
-5.87405
-5.98248
-6.08203
-6.17106
-6.25156
-6.32534
-6.39293
-6.45475
-6.51141
-6.56323
-6.61006
-6.6516
-6.68734
-5.34952
-5.4139
-5.53715
-5.66462
-5.77648
-5.88173
-5.98374
-6.07864
-6.16462
-6.24284
-6.31464
-6.38051
-6.44079
-6.49593
-6.54619
-6.59158
-6.63203
-6.66724
-5.41831
-5.46876
-5.57181
-5.68603
-5.79063
-5.88945
-5.98534
-6.0756
-6.15837
-6.23415
-6.30384
-6.36787
-6.42651
-6.4801
-6.5289
-6.57301
-6.6125
-6.64725
-5.47523
-5.5163
-5.60378
-5.70623
-5.8038
-5.89684
-5.98734
-6.07332
-6.15296
-6.22629
-6.29391
-6.35615
-6.4132
-6.46539
-6.51291
-6.55597
-6.59468
-6.62897
-5.52652
-5.56051
-5.63491
-5.72641
-5.81696
-5.90439
-5.98974
-6.07149
-6.14792
-6.21872
-6.28422
-6.34459
-6.40008
-6.45085
-6.49721
-6.53926
-6.57726
-6.61109
-5.5786
-5.60669
-5.66894
-5.74916
-5.83189
-5.91309
-5.99282
-6.06983
-6.14258
-6.21044
-6.27345
-6.33173
-6.38541
-6.43468
-6.47973
-6.52077
-6.55795
-6.59134
-5.62972
-5.65272
-5.70435
-5.77369
-5.84807
-5.92264
-5.99643
-6.06838
-6.13701
-6.20159
-6.26182
-6.31781
-6.36951
-6.41719
-6.46088
-6.50085
-6.53721
-6.57009
-5.67673
-5.69571
-5.73859
-5.79813
-5.86436
-5.93219
-6.00012
-6.06688
-6.13129
-6.19233
-6.24972
-6.30321
-6.35299
-6.39893
-6.44133
-6.48017
-6.5158
-6.54814
-5.71563
-5.7315
-5.76778
-5.8194
-5.87845
-5.94021
-6.00273
-6.06478
-6.12511
-6.18282
-6.23738
-6.28859
-6.33639
-6.3808
-6.42187
-6.45977
-6.49461
-6.52657
-5.73997
-5.75394
-5.78607
-5.83251
-5.88655
-5.94386
-6.00236
-6.06081
-6.11799
-6.17303
-6.22531
-6.27464
-6.32083
-6.36394
-6.40394
-6.44102
-6.47523
-6.50682
-5.73977
-5.75329
-5.78452
-5.82978
-5.88249
-5.93839
-5.99549
-6.05258
-6.1085
-6.16238
-6.21363
-6.26203
-6.30741
-6.34983
-6.38926
-6.42591
-6.45981
-6.49127
-5.7061
-5.72155
-5.75677
-5.80676
-5.86344
-5.92245
-5.98196
-6.04118
-6.0987
-6.15387
-6.20592
-6.25496
-6.30064
-6.34331
-6.38278
-6.41953
-6.4534
-6.48496
-5.65721
-5.67595
-5.71835
-5.77635
-5.83971
-5.90372
-5.96767
-6.03052
-6.09119
-6.14858
-6.20247
-6.25265
-6.29934
-6.34246
-6.38241
-6.41923
-6.45341
-6.48495
-5.59423
-5.61853
-5.67209
-5.74168
-5.81345
-5.88388
-5.95337
-6.02122
-6.08578
-6.14613
-6.2022
-6.25401
-6.30177
-6.34557
-6.38588
-6.42294
-6.45719
-6.48892
-5.51961
-5.55196
-5.62202
-5.70585
-5.78665
-5.86373
-5.9396
-6.01304
-6.0819
-6.14556
-6.20404
-6.2577
-6.30655
-6.35116
-6.3917
-6.429
-6.4632
-6.49499
-5.43492
-5.47692
-5.5694
-5.66939
-5.75843
-5.84228
-5.92507
-6.0044
-6.07772
-6.14476
-6.20593
-6.26151
-6.31179
-6.3571
-6.39818
-6.43565
-6.4702
-6.50236
-5.34047
-5.39614
-5.51723
-5.63347
-5.72942
-5.81986
-5.91009
-5.99543
-6.07303
-6.14333
-6.20713
-6.26463
-6.3161
-6.36201
-6.4031
-6.44031
-6.47459
-6.5063
-5.23263
-5.33182
-5.47376
-5.60497
-5.70748
-5.80501
-5.90235
-5.99285
-6.07394
-6.14678
-6.21242
-6.27143
-6.32403
-6.3705
-6.41167
-6.44872
-6.48279
-6.51477
-5.10735
-5.25072
-5.43853
-5.57936
-5.68849
-5.79621
-5.90179
-5.99719
-6.08155
-6.15632
-6.22234
-6.281
-6.33281
-6.37798
-6.41761
-6.45338
-6.48672
-6.51906
-4.97022
-5.20188
-5.42771
-5.55882
-5.66784
-5.78566
-5.90031
-6.00164
-6.09118
-6.17092
-6.24016
-6.30019
-6.35158
-6.39499
-6.43231
-6.46591
-6.49771
-6.52996
-4.79253
-5.18663
-5.4512
-5.56252
-5.66154
-5.78084
-5.89793
-6.00063
-6.09062
-6.1722
-6.24562
-6.30852
-6.35984
-6.40136
-6.43602
-6.46642
-6.49489
-6.52237
-4.52329
-5.10309
-5.42931
-5.55096
-5.65822
-5.78823
-5.91448
-6.024
-6.11627
-6.19846
-6.27563
-6.34122
-6.39204
-6.43114
-6.46246
-6.4883
-6.51132
-6.53221
-7.39333
-7.39343
-7.39345
-7.39333
-7.39292
-7.39174
-7.3895
-7.38658
-7.38382
-7.38209
-7.3823
-7.38469
-7.38882
-7.39401
-7.39953
-7.40476
-7.40918
-7.4124
-7.41432
-7.41515
-7.41521
-7.41467
-7.41373
-7.41266
-7.4117
-7.41102
-7.41064
-7.41045
-7.41027
-7.40996
-7.40946
-7.40882
-7.40804
-7.40705
-7.40581
-7.40446
-7.40332
-7.403
-7.40402
-7.40638
-7.40944
-7.41245
-7.41503
-7.41731
-7.41959
-7.42216
-7.42535
-7.42887
-7.43198
-7.43428
-7.43748
-7.44498
-7.46082
-7.48549
-7.51815
-7.55899
-7.60845
-7.66597
-7.7299
-7.79859
-7.87043
-7.94353
-8.01591
-8.08605
-8.1531
-8.21663
-8.2759
-8.3308
-8.38118
-8.42713
-8.46862
-8.50579
-8.53861
-8.56718
-8.5914
-8.61131
-8.62675
-8.63769
-8.64397
-8.64553
-8.6422
-8.63386
-8.62035
-8.60146
-8.57706
-8.54697
-8.51126
-8.46989
-8.423
-8.37057
-8.31234
-8.24829
-8.17839
-8.10269
-8.02124
-7.93412
-7.84134
-7.74296
-7.63896
-7.52936
-7.41422
-7.29372
-7.16803
-7.03719
-6.90145
-6.761
-6.61604
-6.46665
-6.31297
-6.15505
-5.99302
-5.82696
-5.65697
-5.48316
-5.30562
-5.12444
-4.93964
-4.75119
-4.55911
-4.3635
-4.16447
-3.96214
-3.7565
-3.54762
-3.3354
-3.11996
-2.90122
-2.67933
-2.45422
-2.22603
-1.99473
-1.76047
-1.52322
-1.28316
-1.0403
-0.79486
-0.546942
-0.296796
-0.0443534
0.210366
0.467157
0.725644
0.985628
1.2469
1.50926
1.77247
2.0363
2.30046
2.56471
2.82876
3.09234
3.35517
3.61697
3.87746
4.13634
4.39335
4.64822
4.9007
5.15054
5.39753
5.64146
5.88214
6.1194
6.35306
6.58296
6.80895
7.03087
7.2486
7.46199
7.67093
7.8753
8.07501
8.26993
8.46
8.64513
8.82526
9.00066
9.1713
9.34029
9.49877
-7.39441
-7.39455
-7.3948
-7.39504
-7.39494
-7.39417
-7.39248
-7.39035
-7.38887
-7.3889
-7.39074
-7.39425
-7.39898
-7.40433
-7.40971
-7.41466
-7.41883
-7.42202
-7.42405
-7.42477
-7.42418
-7.42254
-7.42022
-7.41764
-7.4152
-7.41319
-7.41173
-7.41073
-7.40999
-7.40933
-7.40871
-7.40813
-7.40754
-7.40684
-7.40596
-7.405
-7.40443
-7.40492
-7.40681
-7.40977
-7.4129
-7.41527
-7.41662
-7.41741
-7.41769
-7.41728
-7.41731
-7.42017
-7.42652
-7.43268
-7.43847
-7.44769
-7.46198
-7.48278
-7.51323
-7.55518
-7.60813
-7.66999
-7.73844
-7.81111
-7.8854
-7.9591
-8.0306
-8.09952
-8.16497
-8.226
-8.28266
-8.33509
-8.38327
-8.42733
-8.46727
-8.5032
-8.53507
-8.56293
-8.58668
-8.60629
-8.62161
-8.63256
-8.63899
-8.64078
-8.63778
-8.62984
-8.61681
-8.59849
-8.57472
-8.54534
-8.51032
-8.46964
-8.42344
-8.3716
-8.31402
-8.2506
-8.18136
-8.10631
-8.02548
-7.93893
-7.84666
-7.74871
-7.64508
-7.53586
-7.42115
-7.30106
-7.17572
-7.04541
-6.91029
-6.77052
-6.6262
-6.47747
-6.32441
-6.16712
-6.00571
-5.84025
-5.67087
-5.49764
-5.32069
-5.14008
-4.95587
-4.76801
-4.57654
-4.38155
-4.18316
-3.98144
-3.77644
-3.56815
-3.35657
-3.14173
-2.92364
-2.70236
-2.47791
-2.25034
-2.0197
-1.78604
-1.54942
-1.30992
-1.06759
-0.822547
-0.57482
-0.324532
-0.0719461
0.182572
0.438915
0.696961
0.956527
1.21742
1.47944
1.74234
2.0059
2.26983
2.5339
2.79781
3.06129
3.32407
3.58586
3.84637
4.10534
4.36247
4.6175
4.87017
5.12024
5.36749
5.6117
5.85269
6.09027
6.32428
6.55455
6.78093
7.00326
7.22141
7.43525
7.64466
7.84953
8.04976
8.24526
8.43602
8.62195
8.80303
8.9795
9.15071
9.32209
9.48019
-7.39563
-7.39561
-7.39561
-7.39562
-7.39564
-7.39565
-7.39588
-7.39681
-7.39886
-7.40216
-7.40653
-7.41164
-7.41708
-7.42246
-7.42743
-7.43171
-7.4351
-7.43749
-7.43882
-7.43902
-7.4381
-7.43615
-7.43331
-7.42979
-7.42579
-7.42155
-7.41736
-7.41347
-7.41008
-7.40732
-7.40518
-7.40352
-7.4021
-7.40076
-7.39968
-7.39934
-7.40032
-7.403
-7.40707
-7.41126
-7.414
-7.41424
-7.41276
-7.41146
-7.41173
-7.41286
-7.41434
-7.41877
-7.42787
-7.44088
-7.45817
-7.4808
-7.50917
-7.54386
-7.5855
-7.63407
-7.6886
-7.74775
-7.81011
-7.87436
-7.93905
-8.00304
-8.06541
-8.12573
-8.18352
-8.2383
-8.28984
-8.33807
-8.38288
-8.42425
-8.4621
-8.4964
-8.52707
-8.55404
-8.5772
-8.59644
-8.6116
-8.62255
-8.62911
-8.63115
-8.6285
-8.62101
-8.6085
-8.5908
-8.56772
-8.53912
-8.50489
-8.46503
-8.41957
-8.36849
-8.31163
-8.24894
-8.18043
-8.10609
-8.02596
-7.94005
-7.84842
-7.75111
-7.64819
-7.53977
-7.42594
-7.30677
-7.18237
-7.05295
-6.91869
-6.77978
-6.63631
-6.48842
-6.33617
-6.17971
-6.01911
-5.85448
-5.68591
-5.51351
-5.33738
-5.15759
-4.97419
-4.78717
-4.59657
-4.40248
-4.205
-4.00418
-3.80008
-3.59267
-3.38201
-3.16806
-2.9509
-2.73051
-2.50699
-2.28031
-2.05058
-1.81779
-1.58206
-1.34342
-1.10198
-0.857809
-0.611001
-0.36161
-0.109874
0.143907
0.399544
0.656908
0.915825
1.17612
1.43759
1.7
1.9631
2.22664
2.49035
2.75396
3.01719
3.27977
3.54141
3.80183
4.06075
4.31788
4.57296
4.82572
5.07591
5.32332
5.56771
5.80891
6.04671
6.28095
6.51146
6.73809
6.96069
7.17912
7.39324
7.60294
7.80811
8.00866
8.20448
8.3955
8.58173
8.76321
8.94049
9.11236
9.28659
9.44045
-7.39679
-7.39654
-7.39621
-7.39622
-7.39725
-7.39973
-7.40353
-7.40833
-7.41377
-7.41956
-7.42543
-7.43115
-7.4365
-7.44131
-7.44544
-7.44873
-7.4511
-7.45249
-7.45286
-7.45219
-7.45048
-7.44779
-7.44418
-7.43975
-7.43458
-7.42879
-7.42254
-7.41605
-7.40961
-7.40356
-7.39816
-7.39358
-7.38997
-7.38758
-7.38691
-7.38855
-7.39243
-7.39754
-7.40228
-7.4054
-7.40658
-7.40639
-7.40618
-7.40726
-7.41035
-7.41591
-7.42469
-7.43765
-7.45555
-7.47853
-7.50629
-7.53842
-7.57471
-7.61501
-7.65913
-7.7068
-7.75756
-7.81092
-7.86623
-7.92276
-7.9797
-8.03632
-8.09197
-8.14618
-8.19852
-8.24867
-8.29636
-8.3414
-8.38363
-8.42291
-8.45914
-8.4922
-8.52196
-8.54829
-8.57106
-8.59011
-8.60526
-8.61633
-8.62316
-8.62555
-8.62334
-8.61634
-8.60439
-8.58731
-8.56491
-8.53704
-8.50356
-8.46444
-8.41971
-8.36927
-8.31307
-8.25104
-8.18315
-8.10945
-8.02992
-7.94462
-7.85357
-7.75684
-7.65451
-7.54667
-7.43343
-7.3149
-7.1912
-7.06252
-6.92902
-6.79085
-6.64812
-6.50096
-6.34946
-6.19373
-6.03388
-5.87
-5.70219
-5.53057
-5.35522
-5.17622
-4.99361
-4.80741
-4.61767
-4.42447
-4.2279
-4.028
-3.8248
-3.61831
-3.40856
-3.19554
-2.97931
-2.75986
-2.53726
-2.31151
-2.0827
-1.85081
-1.61597
-1.3782
-1.13761
-0.894281
-0.648312
-0.399788
-0.148905
0.104103
0.35902
0.615709
0.873996
1.13372
1.39465
1.65658
1.91925
2.18241
2.44578
2.70911
2.9721
3.2345
3.496
3.75633
4.0152
4.27234
4.52746
4.7803
5.03062
5.27817
5.52274
5.76412
6.00213
6.23659
6.46733
6.6942
6.91704
7.13571
7.35008
7.56002
7.76543
7.96623
8.16232
8.35366
8.54028
8.72216
8.89998
9.07197
9.24705
9.39458
-7.39902
-7.3985
-7.39817
-7.39944
-7.40328
-7.40916
-7.41605
-7.42326
-7.43034
-7.43702
-7.44317
-7.44871
-7.45359
-7.45774
-7.46109
-7.46357
-7.4651
-7.46564
-7.46516
-7.46364
-7.46108
-7.45751
-7.45297
-7.44751
-7.4412
-7.43409
-7.42627
-7.41788
-7.40914
-7.40042
-7.3922
-7.38505
-7.37969
-7.37698
-7.37758
-7.38092
-7.38537
-7.38977
-7.39353
-7.39643
-7.39883
-7.40144
-7.40536
-7.4116
-7.42113
-7.43477
-7.45288
-7.47509
-7.50091
-7.53012
-7.56238
-7.59745
-7.63527
-7.67578
-7.71888
-7.7644
-7.81202
-7.86137
-7.912
-7.96342
-8.01507
-8.06647
-8.11718
-8.1668
-8.215
-8.26149
-8.30601
-8.34837
-8.38837
-8.42584
-8.46063
-8.49258
-8.52152
-8.54728
-8.5697
-8.58858
-8.60372
-8.61492
-8.62197
-8.62468
-8.62285
-8.61629
-8.60481
-8.58824
-8.56638
-8.53908
-8.50617
-8.46761
-8.42335
-8.37344
-8.31764
-8.25603
-8.18853
-8.11521
-8.03603
-7.95109
-7.86039
-7.76403
-7.66206
-7.55457
-7.4417
-7.32353
-7.20028
-7.07206
-6.93908
-6.80141
-6.65922
-6.51258
-6.36164
-6.20646
-6.04719
-5.88391
-5.71673
-5.54574
-5.37106
-5.19273
-5.0108
-4.82533
-4.63635
-4.44397
-4.24821
-4.04915
-3.84676
-3.64113
-3.4322
-3.22007
-3.00467
-2.7861
-2.56432
-2.33945
-2.11143
-1.88039
-1.64632
-1.40935
-1.16949
-0.9269
-0.681619
-0.433819
-0.183635
0.0686909
0.322993
0.5791
0.836874
1.09611
1.35663
1.61817
1.88052
2.14338
2.40652
2.66964
2.93249
3.19476
3.4562
3.7165
3.97538
4.23256
4.48775
4.7407
4.99115
5.23886
5.4836
5.72518
5.9634
6.19808
6.42904
6.65614
6.87922
7.09814
7.31276
7.52297
7.72865
7.92971
8.12609
8.31773
8.50464
8.68673
8.86466
9.0361
9.21081
9.3514
-7.40307
-7.40226
-7.40271
-7.40676
-7.41368
-7.42169
-7.42982
-7.43761
-7.44483
-7.45138
-7.45727
-7.46247
-7.46694
-7.47062
-7.47343
-7.47532
-7.47624
-7.47614
-7.47502
-7.47285
-7.46964
-7.46541
-7.46017
-7.45392
-7.44668
-7.43849
-7.4295
-7.41986
-7.40977
-7.39967
-7.39025
-7.38232
-7.37697
-7.37484
-7.37537
-7.37725
-7.37975
-7.38284
-7.38674
-7.39166
-7.39757
-7.40487
-7.41478
-7.4283
-7.44562
-7.46652
-7.49065
-7.51772
-7.5474
-7.57944
-7.61366
-7.64994
-7.68819
-7.72834
-7.77027
-7.81384
-7.85881
-7.90492
-7.95187
-7.99932
-8.04691
-8.0943
-8.14118
-8.18724
-8.23219
-8.27579
-8.3178
-8.358
-8.3962
-8.43221
-8.46584
-8.49691
-8.52521
-8.55056
-8.57275
-8.59155
-8.60675
-8.61812
-8.62544
-8.62847
-8.62702
-8.62085
-8.6098
-8.59365
-8.57222
-8.54533
-8.51283
-8.47461
-8.43074
-8.381
-8.32547
-8.26401
-8.19666
-8.12342
-8.04433
-7.95944
-7.86881
-7.7725
-7.67059
-7.56317
-7.45036
-7.33232
-7.20922
-7.08122
-6.94847
-6.81108
-6.66917
-6.52285
-6.37223
-6.21742
-6.05854
-5.89568
-5.72895
-5.55847
-5.3843
-5.20652
-5.02517
-4.84031
-4.65201
-4.46033
-4.26531
-4.06698
-3.86536
-3.66049
-3.45235
-3.24098
-3.02637
-2.80857
-2.58757
-2.36344
-2.13617
-1.90586
-1.6725
-1.43621
-1.19703
-0.955061
-0.710399
-0.463197
-0.213612
0.0381453
0.291928
0.547571
0.804933
1.06381
1.324
1.58527
1.84737
2.11004
2.37303
2.63603
2.89881
3.16104
3.42247
3.68279
3.94172
4.19897
4.45427
4.70734
4.95793
5.20579
5.45071
5.69247
5.93087
6.16575
6.39693
6.62425
6.84755
7.06669
7.28154
7.49196
7.69786
7.89914
8.09572
8.28754
8.47458
8.65665
8.83439
9.00492
9.17899
9.31273
-7.40819
-7.40776
-7.4101
-7.41672
-7.42503
-7.43335
-7.44127
-7.44869
-7.45555
-7.46183
-7.46748
-7.47243
-7.47662
-7.47997
-7.48243
-7.48393
-7.48444
-7.48393
-7.48238
-7.47979
-7.47615
-7.47149
-7.46575
-7.45887
-7.45091
-7.44203
-7.43243
-7.42231
-7.41198
-7.40198
-7.39309
-7.38622
-7.38177
-7.37913
-7.3777
-7.37754
-7.37899
-7.38249
-7.38787
-7.39511
-7.40491
-7.41789
-7.43409
-7.45339
-7.47559
-7.50047
-7.52773
-7.55717
-7.58863
-7.62197
-7.65704
-7.69371
-7.73185
-7.77138
-7.81218
-7.85412
-7.89703
-7.94073
-7.985
-8.02961
-8.07432
-8.11886
-8.163
-8.20648
-8.24907
-8.29056
-8.3307
-8.36932
-8.4062
-8.44114
-8.47395
-8.50441
-8.53232
-8.55744
-8.57956
-8.59843
-8.6138
-8.62543
-8.63306
-8.63646
-8.63538
-8.62961
-8.61893
-8.60314
-8.58205
-8.55546
-8.5232
-8.48521
-8.4414
-8.3918
-8.33623
-8.27468
-8.20722
-8.13381
-8.05453
-7.96942
-7.87856
-7.78202
-7.67986
-7.57222
-7.45921
-7.34105
-7.21785
-7.08984
-6.95706
-6.81972
-6.67785
-6.53164
-6.38115
-6.22653
-6.06785
-5.90526
-5.73885
-5.56873
-5.39495
-5.2176
-5.03674
-4.85242
-4.66471
-4.47365
-4.2793
-4.08162
-3.88072
-3.67652
-3.46913
-3.25845
-3.0446
-2.82748
-2.60722
-2.38374
-2.15719
-1.9275
-1.69481
-1.45911
-1.22054
-0.979118
-0.735017
-0.488337
-0.239281
0.0120068
0.265352
0.520635
0.777667
1.03628
1.29624
1.55732
1.81927
2.08184
2.34474
2.60771
2.87047
3.13273
3.3942
3.6546
3.91361
4.17097
4.42638
4.67958
4.9303
5.17831
5.42339
5.66532
5.9039
6.13897
6.37034
6.59785
6.82133
7.04064
7.25565
7.46623
7.67229
7.87371
8.07041
8.2623
8.44933
8.63124
8.80859
8.97809
9.15153
9.27881
-7.41231
-7.41299
-7.41767
-7.42538
-7.43346
-7.44119
-7.44857
-7.4556
-7.46219
-7.46827
-7.47376
-7.47855
-7.48257
-7.48574
-7.48801
-7.48931
-7.48962
-7.48889
-7.48712
-7.48431
-7.48045
-7.47551
-7.46938
-7.46214
-7.45402
-7.44516
-7.43571
-7.42596
-7.4164
-7.40773
-7.40049
-7.3947
-7.38984
-7.38572
-7.38311
-7.38265
-7.3844
-7.38876
-7.39619
-7.40682
-7.42062
-7.43742
-7.45704
-7.47929
-7.50392
-7.53073
-7.55954
-7.59016
-7.62247
-7.65634
-7.69163
-7.72823
-7.76603
-7.80494
-7.84485
-7.88562
-7.92713
-7.96923
-8.01175
-8.05452
-8.09733
-8.13999
-8.1823
-8.22405
-8.26505
-8.3051
-8.344
-8.38156
-8.41757
-8.45184
-8.48416
-8.5143
-8.54205
-8.56717
-8.5894
-8.60848
-8.62415
-8.63613
-8.64416
-8.64797
-8.6473
-8.64192
-8.6316
-8.61613
-8.59529
-8.56889
-8.53676
-8.4988
-8.45498
-8.40517
-8.34938
-8.28756
-8.21971
-8.1459
-8.06616
-7.98058
-7.88923
-7.79218
-7.68952
-7.58139
-7.46798
-7.34943
-7.22594
-7.09765
-6.96467
-6.82713
-6.68514
-6.53883
-6.38831
-6.2337
-6.0751
-5.91264
-5.74642
-5.57653
-5.40305
-5.22605
-5.04559
-4.86174
-4.67456
-4.48407
-4.2903
-4.09326
-3.89299
-3.68947
-3.48274
-3.27275
-3.05956
-2.84313
-2.62352
-2.4007
-2.17476
-1.94569
-1.71359
-1.47847
-1.24043
-0.99953
-0.755924
-0.509736
-0.261141
-0.0102682
0.242723
0.497704
0.754488
1.0129
1.2727
1.53367
1.79553
2.05805
2.32094
2.58393
2.84673
3.10906
3.37063
3.63114
3.89026
4.14774
4.40328
4.65662
4.90748
5.15566
5.40089
5.64299
5.88175
6.11699
6.34853
6.5762
6.79983
7.01928
7.23442
7.44512
7.65128
7.8528
8.04956
8.24145
8.4284
8.61004
8.78693
8.95536
9.12826
9.24961
-7.41365
-7.41574
-7.42197
-7.42953
-7.43695
-7.44417
-7.45122
-7.45802
-7.46447
-7.47047
-7.47591
-7.48067
-7.48467
-7.48783
-7.49008
-7.49137
-7.49167
-7.49094
-7.48918
-7.48635
-7.48246
-7.47741
-7.47122
-7.46412
-7.4563
-7.44793
-7.43929
-7.43078
-7.4228
-7.41564
-7.40921
-7.40333
-7.39802
-7.39372
-7.39129
-7.39135
-7.39434
-7.40057
-7.41012
-7.42278
-7.43847
-7.45697
-7.47808
-7.50156
-7.52721
-7.55483
-7.58428
-7.61538
-7.64801
-7.68204
-7.71734
-7.75382
-7.79137
-7.82988
-7.86923
-7.90932
-7.95002
-7.9912
-8.03271
-8.07441
-8.11611
-8.15766
-8.19889
-8.23963
-8.27969
-8.3189
-8.35708
-8.39405
-8.42961
-8.46356
-8.4957
-8.52579
-8.55362
-8.57892
-8.60144
-8.62089
-8.63698
-8.64942
-8.65793
-8.6622
-8.66198
-8.65701
-8.64703
-8.63183
-8.61118
-8.58488
-8.55275
-8.51469
-8.47059
-8.42054
-8.36427
-8.30195
-8.23351
-8.15906
-8.07862
-7.99233
-7.90024
-7.80243
-7.69906
-7.59023
-7.4762
-7.35707
-7.2331
-7.10432
-6.97096
-6.83304
-6.69077
-6.5442
-6.39352
-6.23879
-6.08016
-5.91771
-5.75158
-5.58184
-5.40859
-5.23187
-5.05177
-4.86836
-4.68164
-4.49169
-4.29846
-4.10204
-3.90235
-3.6995
-3.49338
-3.28409
-3.0715
-2.85575
-2.63673
-2.41456
-2.18917
-1.96071
-1.72913
-1.49456
-1.257
-1.0166
-0.773451
-0.527723
-0.279525
-0.0290186
0.22369
0.47842
0.735025
0.993278
1.25299
1.51388
1.77572
2.03823
2.30116
2.56419
2.82708
3.08951
3.35122
3.61185
3.87113
4.12874
4.38443
4.6379
4.88893
5.13725
5.38265
5.6249
5.86381
6.09921
6.33091
6.55871
6.78246
7.00202
7.21725
7.42804
7.63427
7.83582
8.0326
8.22445
8.41124
8.59255
8.76892
8.93631
9.10871
9.22478
-7.41068
-7.41401
-7.42059
-7.42769
-7.43477
-7.44181
-7.44876
-7.45554
-7.46202
-7.4681
-7.47365
-7.47857
-7.48274
-7.48608
-7.48851
-7.48999
-7.49046
-7.48989
-7.48826
-7.48556
-7.48176
-7.47687
-7.47101
-7.46441
-7.45728
-7.44988
-7.4425
-7.4353
-7.42832
-7.42165
-7.4154
-7.40969
-7.40485
-7.40146
-7.40017
-7.40146
-7.40565
-7.41294
-7.42339
-7.43688
-7.45328
-7.47238
-7.49398
-7.51784
-7.54379
-7.57164
-7.60126
-7.63249
-7.66521
-7.69928
-7.73461
-7.77108
-7.80855
-7.84694
-7.88612
-7.92598
-7.96639
-8.00723
-8.04834
-8.08961
-8.13085
-8.17195
-8.21272
-8.25302
-8.29268
-8.33155
-8.36945
-8.40623
-8.44167
-8.4756
-8.5078
-8.53806
-8.56614
-8.59178
-8.61472
-8.63466
-8.65129
-8.6643
-8.67336
-8.67818
-8.67846
-8.67391
-8.66428
-8.64933
-8.62881
-8.60254
-8.57031
-8.53199
-8.48762
-8.43695
-8.38014
-8.31706
-8.24782
-8.17248
-8.09114
-8.00391
-7.91087
-7.81213
-7.70782
-7.59815
-7.4833
-7.36347
-7.23881
-7.10944
-6.9755
-6.8371
-6.69439
-6.54748
-6.39651
-6.24158
-6.08281
-5.92032
-5.7542
-5.58455
-5.41146
-5.23501
-5.05524
-4.87222
-4.68598
-4.49651
-4.30384
-4.10798
-3.90892
-3.70668
-3.50121
-3.29253
-3.0806
-2.86545
-2.64705
-2.42545
-2.20065
-1.97274
-1.7417
-1.50763
-1.27056
-1.03062
-0.787925
-0.542615
-0.294793
-0.0445946
0.207858
0.46239
0.71884
0.976984
1.23661
1.49746
1.7593
2.02184
2.28481
2.54793
2.81093
3.0735
3.33536
3.59616
3.85558
4.11335
4.36918
4.62282
4.874
5.12247
5.36802
5.61042
5.84948
6.08504
6.31688
6.54481
6.76866
6.9883
7.20359
7.41443
7.6207
7.82227
8.01903
8.21079
8.39738
8.57832
8.75414
8.92052
9.09243
9.20391
-7.40171
-7.40575
-7.41221
-7.41925
-7.42648
-7.43369
-7.44081
-7.44777
-7.45447
-7.46081
-7.46664
-7.47186
-7.47633
-7.47997
-7.48268
-7.48443
-7.48515
-7.48484
-7.48347
-7.48106
-7.47761
-7.47324
-7.46808
-7.46233
-7.45615
-7.44968
-7.44305
-7.4364
-7.42983
-7.42346
-7.41756
-7.41248
-7.40858
-7.40625
-7.40597
-7.40817
-7.41315
-7.42108
-7.432
-7.44583
-7.46245
-7.48167
-7.5033
-7.52714
-7.55305
-7.58087
-7.61046
-7.6417
-7.67446
-7.70863
-7.74407
-7.78067
-7.81831
-7.85688
-7.89626
-7.93631
-7.9769
-8.0179
-8.05915
-8.10052
-8.14185
-8.18301
-8.22382
-8.26413
-8.30379
-8.34267
-8.38059
-8.41742
-8.45296
-8.48707
-8.51952
-8.55011
-8.57861
-8.60474
-8.62824
-8.64879
-8.66607
-8.67974
-8.68945
-8.69486
-8.69566
-8.69156
-8.68227
-8.66754
-8.64711
-8.62079
-8.58837
-8.54974
-8.5048
-8.45356
-8.39588
-8.33185
-8.2616
-8.18518
-8.10276
-8.01441
-7.92024
-7.82042
-7.71504
-7.60441
-7.48862
-7.36797
-7.24248
-7.11241
-6.97778
-6.83882
-6.69557
-6.54826
-6.39692
-6.24176
-6.0828
-5.92022
-5.75406
-5.58449
-5.41156
-5.23536
-5.05594
-4.87332
-4.68754
-4.49857
-4.30647
-4.11117
-3.91276
-3.7111
-3.5063
-3.29822
-3.08696
-2.87239
-2.65463
-2.43358
-2.20938
-1.98198
-1.7515
-1.51791
-1.28135
-1.04187
-0.799623
-0.554709
-0.307251
-0.0573344
0.194871
0.449232
0.705533
0.963594
1.22315
1.484
1.74584
2.00844
2.27148
2.53471
2.79783
3.06057
3.32262
3.58361
3.84318
4.1011
4.35708
4.61087
4.86219
5.11082
5.35651
5.59905
5.83824
6.07395
6.30594
6.53397
6.75789
6.97759
7.19293
7.4038
7.61007
7.81163
8.00835
8.19999
8.38635
8.5669
8.74216
8.90757
9.07899
9.18655
-7.38547
-7.38966
-7.39628
-7.40397
-7.41183
-7.41949
-7.42693
-7.43419
-7.44124
-7.44798
-7.45425
-7.4599
-7.46477
-7.46878
-7.47186
-7.47398
-7.47509
-7.47519
-7.47427
-7.47235
-7.46951
-7.46583
-7.4614
-7.45637
-7.45085
-7.44497
-7.43882
-7.43255
-7.42633
-7.42043
-7.41514
-7.41072
-7.40753
-7.40599
-7.40651
-7.40944
-7.41504
-7.42342
-7.43463
-7.44859
-7.4652
-7.4843
-7.50574
-7.52939
-7.55511
-7.58278
-7.6123
-7.64354
-7.67638
-7.71071
-7.74641
-7.78335
-7.82143
-7.86051
-7.90045
-7.9411
-7.98229
-8.02386
-8.06566
-8.10753
-8.14932
-8.19087
-8.23203
-8.27266
-8.31261
-8.35175
-8.38992
-8.42699
-8.46281
-8.49723
-8.53006
-8.56109
-8.5901
-8.61682
-8.64096
-8.6622
-8.68018
-8.69454
-8.70488
-8.71088
-8.7122
-8.70854
-8.69957
-8.68502
-8.66463
-8.6382
-8.60551
-8.56643
-8.52091
-8.46878
-8.41013
-8.34501
-8.27356
-8.19595
-8.1123
-8.02272
-7.92735
-7.82633
-7.71986
-7.60813
-7.49139
-7.36978
-7.24346
-7.11257
-6.97725
-6.83763
-6.69386
-6.54608
-6.39441
-6.23898
-6.07987
-5.91717
-5.751
-5.5815
-5.40877
-5.23285
-5.05379
-4.8716
-4.68629
-4.49787
-4.30633
-4.11166
-3.91386
-3.71287
-3.50871
-3.3013
-3.09067
-2.87675
-2.65959
-2.43917
-2.21556
-1.98874
-1.75881
-1.52577
-1.28972
-1.05075
-0.808976
-0.56448
-0.317367
-0.0677409
0.184237
0.438415
0.694588
0.952559
1.21208
1.47292
1.73479
1.99745
2.26058
2.52393
2.7872
3.05013
3.31241
3.57362
3.83335
4.09142
4.34756
4.60149
4.85297
5.10174
5.34757
5.59024
5.82957
6.06544
6.29758
6.52569
6.74968
6.96941
7.18478
7.39566
7.60193
7.80347
8.00013
8.19164
8.37775
8.55788
8.73259
8.89709
9.06798
9.17232
-7.3617
-7.36576
-7.37316
-7.3821
-7.39088
-7.39907
-7.40689
-7.41458
-7.42219
-7.42959
-7.43652
-7.44277
-7.44816
-7.45265
-7.4562
-7.45879
-7.46041
-7.46103
-7.46067
-7.45935
-7.45713
-7.45407
-7.45027
-7.44581
-7.44079
-7.43534
-7.42959
-7.42374
-7.418
-7.4126
-7.40781
-7.40396
-7.40144
-7.40061
-7.40183
-7.40537
-7.41145
-7.42013
-7.43146
-7.44537
-7.46178
-7.48058
-7.50169
-7.525
-7.55044
-7.57791
-7.60734
-7.63862
-7.67164
-7.70628
-7.74242
-7.77994
-7.81869
-7.85854
-7.89931
-7.94083
-7.98292
-8.02539
-8.06806
-8.11075
-8.15327
-8.19548
-8.23723
-8.27839
-8.31882
-8.35838
-8.39695
-8.4344
-8.47057
-8.50531
-8.53846
-8.56987
-8.59931
-8.62653
-8.65125
-8.67313
-8.69177
-8.70674
-8.71766
-8.72418
-8.72602
-8.72281
-8.7142
-8.69984
-8.67948
-8.65288
-8.61984
-8.58021
-8.53389
-8.48093
-8.42114
-8.35481
-8.2821
-8.20324
-8.11833
-8.0275
-7.93092
-7.82868
-7.7211
-7.60827
-7.49054
-7.36795
-7.24079
-7.10908
-6.97308
-6.83283
-6.68856
-6.54034
-6.38838
-6.23274
-6.07355
-5.91082
-5.74469
-5.57532
-5.40284
-5.22724
-5.04855
-4.86682
-4.68199
-4.49415
-4.30319
-4.1092
-3.91203
-3.71177
-3.50827
-3.30162
-3.09166
-2.87849
-2.662
-2.4423
-2.21931
-1.99317
-1.76383
-1.53141
-1.29593
-1.05752
-0.816236
-0.572181
-0.325419
-0.0761046
0.175639
0.429613
0.685652
0.943514
1.20299
1.4638
1.72571
1.98841
2.25163
2.51508
2.77849
3.04162
3.30423
3.56573
3.82565
4.08386
4.34015
4.59423
4.84586
5.09477
5.34075
5.58355
5.82301
6.05908
6.29139
6.51958
6.7436
6.96336
7.17874
7.38963
7.59588
7.79738
7.99399
8.18535
8.3712
8.55091
8.72507
8.88871
9.05901
9.1608
-7.33139
-7.33567
-7.34442
-7.35496
-7.36474
-7.37353
-7.382
-7.39037
-7.39864
-7.40681
-7.41466
-7.42181
-7.4279
-7.43286
-7.43685
-7.43994
-7.44209
-7.44328
-7.44348
-7.44274
-7.44107
-7.43855
-7.43522
-7.4312
-7.42658
-7.42153
-7.41619
-7.41075
-7.40542
-7.40049
-7.39625
-7.39303
-7.39118
-7.391
-7.39281
-7.39681
-7.40315
-7.41191
-7.42311
-7.43673
-7.45276
-7.47111
-7.49176
-7.51463
-7.5397
-7.56689
-7.59617
-7.62745
-7.66065
-7.69567
-7.73237
-7.77063
-7.81027
-7.85112
-7.89298
-7.93564
-7.97889
-8.02252
-8.06629
-8.11002
-8.15349
-8.19653
-8.23898
-8.28072
-8.32162
-8.36156
-8.40041
-8.43804
-8.47433
-8.50913
-8.54235
-8.57388
-8.60353
-8.63106
-8.65618
-8.67852
-8.69762
-8.71304
-8.72438
-8.73142
-8.73385
-8.73128
-8.72319
-8.70918
-8.6889
-8.66216
-8.62872
-8.58845
-8.54143
-8.48745
-8.42667
-8.35913
-8.28519
-8.20509
-8.11893
-8.02686
-7.92901
-7.82558
-7.71677
-7.60283
-7.48398
-7.36044
-7.23234
-7.09987
-6.96313
-6.82229
-6.67748
-6.52887
-6.37662
-6.22084
-6.06163
-5.89906
-5.73321
-5.56414
-5.39191
-5.21659
-5.03825
-4.8569
-4.67255
-4.48522
-4.29486
-4.10148
-3.90499
-3.70541
-3.50267
-3.29677
-3.08764
-2.8753
-2.65968
-2.44081
-2.21866
-1.99328
-1.76469
-1.53297
-1.29817
-1.06041
-0.819729
-0.576189
-0.32989
-0.0809787
0.170403
0.42407
0.679838
0.937478
1.19676
1.45743
1.71921
1.98182
2.24498
2.50838
2.77175
3.03491
3.29772
3.55947
3.81953
4.07786
4.33427
4.5885
4.84026
5.08931
5.33542
5.57834
5.81797
6.05435
6.28691
6.51518
6.73924
6.95902
7.17442
7.38531
7.59156
7.79305
7.98963
8.18088
8.36644
8.54573
8.71935
8.88217
9.05182
9.15173
-7.2971
-7.30218
-7.31277
-7.32529
-7.33616
-7.34532
-7.35414
-7.36333
-7.37274
-7.38197
-7.39078
-7.39885
-7.40569
-7.41112
-7.4155
-7.41904
-7.42168
-7.42337
-7.42406
-7.42379
-7.42255
-7.42041
-7.41745
-7.41378
-7.40951
-7.40479
-7.39978
-7.39473
-7.38986
-7.38545
-7.3818
-7.3792
-7.37795
-7.3783
-7.38047
-7.38464
-7.39095
-7.39945
-7.41021
-7.42324
-7.43857
-7.45618
-7.4761
-7.4983
-7.52281
-7.5496
-7.57865
-7.60991
-7.64332
-7.67879
-7.71618
-7.75534
-7.79607
-7.83815
-7.88135
-7.92539
-7.97001
-8.01493
-8.05988
-8.10461
-8.14891
-8.19259
-8.2355
-8.27751
-8.31852
-8.35843
-8.39716
-8.43457
-8.47055
-8.50498
-8.53782
-8.56903
-8.59848
-8.62594
-8.65115
-8.67358
-8.69278
-8.70826
-8.71979
-8.72738
-8.73072
-8.72915
-8.72196
-8.70859
-8.68865
-8.66207
-8.6287
-8.58853
-8.54135
-8.48719
-8.42595
-8.35783
-8.28307
-8.20187
-8.11443
-8.02101
-7.92175
-7.81696
-7.70675
-7.59154
-7.47143
-7.34677
-7.21762
-7.08425
-6.94667
-6.80514
-6.65971
-6.51065
-6.35803
-6.20205
-6.04275
-5.88029
-5.71466
-5.54581
-5.3738
-5.19872
-5.02069
-4.8397
-4.65581
-4.46895
-4.27916
-4.08632
-3.8905
-3.69155
-3.48955
-3.28435
-3.07606
-2.8645
-2.64976
-2.4317
-2.21041
-1.9858
-1.75798
-1.52697
-1.29291
-1.05582
-0.815757
-0.572773
-0.327005
-0.078565
0.172367
0.425641
0.681035
0.938354
1.19733
1.45774
1.71926
1.98164
2.24456
2.50772
2.77078
3.03347
3.29547
3.55655
3.81638
4.07464
4.331
4.58519
4.83692
5.08595
5.33201
5.57489
5.81452
6.05104
6.28377
6.51204
6.7361
6.9559
7.17132
7.38223
7.58849
7.79004
7.9867
8.17786
8.36315
8.54202
8.71513
8.87716
9.04612
9.14478
-7.26104
-7.2672
-7.28008
-7.2945
-7.30577
-7.31526
-7.32507
-7.33539
-7.34582
-7.35603
-7.36579
-7.37477
-7.38234
-7.38833
-7.39318
-7.39722
-7.40035
-7.4025
-7.40361
-7.40372
-7.40282
-7.40102
-7.39834
-7.39494
-7.39092
-7.3865
-7.38182
-7.37714
-7.37268
-7.36873
-7.36552
-7.36331
-7.36233
-7.36279
-7.36489
-7.36874
-7.3745
-7.38221
-7.39202
-7.40394
-7.41808
-7.43447
-7.45326
-7.47447
-7.49821
-7.52448
-7.55331
-7.58465
-7.61843
-7.65455
-7.69286
-7.73315
-7.77517
-7.81864
-7.86323
-7.90865
-7.95454
-8.0006
-8.04647
-8.09191
-8.13665
-8.18054
-8.22342
-8.26521
-8.30583
-8.34526
-8.38342
-8.42028
-8.45562
-8.48924
-8.52101
-8.55104
-8.57928
-8.60601
-8.63121
-8.65446
-8.67493
-8.6918
-8.70495
-8.71397
-8.71859
-8.71802
-8.71173
-8.69894
-8.67939
-8.65289
-8.61968
-8.57955
-8.53239
-8.47801
-8.41647
-8.34792
-8.27245
-8.19025
-8.10163
-8.00688
-7.90634
-7.8002
-7.68878
-7.57233
-7.45117
-7.32547
-7.19545
-7.06125
-6.92303
-6.7809
-6.63505
-6.48564
-6.33282
-6.17669
-6.01736
-5.85491
-5.68935
-5.52068
-5.34894