/*--------------------------------*- C++ -*----------------------------------*\
  =========                 |
  \\      /  F ield         | OpenFOAM: The Open Source CFD Toolbox
   \\    /   O peration     | Website:  https://openfoam.org
    \\  /    A nd           | Version:  13
     \\/     M anipulation  |
\*---------------------------------------------------------------------------*/
FoamFile
{
    format      ascii;
    class       surfaceScalarField;
    location    "1800";
    object      phi;
}
// * * * * * * * * * * * * * * * * * * * * * * * * * * * * * * * * * * * * * //

dimensions      [0 3 -1 0 0 0 0];

internalField   nonuniform List<scalar> 
24170
(
3.05931e-06
1.29136e-07
2.90597e-06
1.53374e-07
2.76301e-06
1.42952e-07
2.63381e-06
1.29464e-07
2.51836e-06
1.15412e-07
2.4237e-06
9.47248e-08
2.34755e-06
7.62537e-08
2.2829e-06
6.4889e-08
2.22419e-06
5.86201e-08
2.17371e-06
5.06035e-08
2.13337e-06
4.03477e-08
2.09924e-06
3.41997e-08
2.06999e-06
2.92463e-08
2.04507e-06
2.49144e-08
2.0253e-06
1.97257e-08
2.01276e-06
1.24937e-08
2.00683e-06
5.81747e-09
-1.85858e-09
2.0086e-06
3.47193e-06
7.44527e-08
3.51135e-06
1.13652e-07
3.53151e-06
1.22443e-07
3.53269e-06
1.27973e-07
3.51959e-06
1.28077e-07
3.49742e-06
1.16705e-07
3.47079e-06
1.02712e-07
3.44238e-06
9.32238e-08
3.41191e-06
8.88919e-08
3.37869e-06
8.3752e-08
3.34454e-06
7.43884e-08
3.31453e-06
6.41757e-08
3.28873e-06
5.5013e-08
3.2653e-06
4.83444e-08
3.24259e-06
4.24488e-08
3.21892e-06
3.61594e-08
3.19413e-06
3.0596e-08
2.31113e-08
3.1692e-06
3.68108e-06
5.59343e-08
3.6973e-06
9.76045e-08
3.71328e-06
1.06444e-07
3.73059e-06
1.10911e-07
3.74703e-06
1.11637e-07
3.75985e-06
1.03919e-07
3.76917e-06
9.35834e-08
3.77642e-06
8.62212e-08
3.78291e-06
8.23905e-08
3.78799e-06
7.87497e-08
3.79042e-06
7.19688e-08
3.79116e-06
6.34862e-08
3.79049e-06
5.57005e-08
3.78909e-06
4.97664e-08
3.787e-06
4.45249e-08
3.78382e-06
3.93011e-08
3.77995e-06
3.43695e-08
2.79054e-08
3.77504e-06
3.93572e-06
4.55708e-08
3.94586e-06
8.70728e-08
3.95425e-06
9.76234e-08
3.96302e-06
1.01746e-07
3.97176e-06
1.02416e-07
3.97877e-06
9.6602e-08
3.9841e-06
8.80894e-08
3.98907e-06
8.11401e-08
3.9947e-06
7.65826e-08
4.00101e-06
7.23232e-08
4.00683e-06
6.60466e-08
4.01172e-06
5.85604e-08
4.01577e-06
5.16424e-08
4.0195e-06
4.60614e-08
4.02299e-06
4.10558e-08
4.02608e-06
3.61993e-08
4.02902e-06
3.14072e-08
2.61932e-08
4.03074e-06
4.21502e-06
3.77098e-08
4.22429e-06
7.79969e-08
4.23195e-06
9.00081e-08
4.23924e-06
9.46496e-08
4.24634e-06
9.53524e-08
4.25198e-06
9.10057e-08
4.25606e-06
8.4188e-08
4.25951e-06
7.788e-08
4.26318e-06
7.29385e-08
4.26728e-06
6.82668e-08
4.27107e-06
6.22664e-08
4.27418e-06
5.54607e-08
4.27672e-06
4.91098e-08
4.27907e-06
4.37028e-08
4.28134e-06
3.87691e-08
4.28345e-06
3.40464e-08
4.28539e-06
2.94009e-08
2.48126e-08
4.28668e-06
4.51555e-06
3.12283e-08
4.52429e-06
6.8912e-08
4.53191e-06
8.2071e-08
4.53895e-06
8.73303e-08
4.54568e-06
8.83235e-08
4.55134e-06
8.51214e-08
4.55584e-06
7.95803e-08
4.55969e-06
7.3933e-08
4.56348e-06
6.9048e-08
4.56741e-06
6.42495e-08
4.57102e-06
5.86073e-08
4.57399e-06
5.2456e-08
4.57643e-06
4.66562e-08
4.57863e-06
4.15087e-08
4.58065e-06
3.67483e-08
4.58247e-06
3.22086e-08
4.584e-06
2.78514e-08
2.37915e-08
4.58504e-06
4.83803e-06
2.59233e-08
4.84619e-06
6.09642e-08
4.85381e-06
7.45321e-08
4.86089e-06
8.03809e-08
4.86756e-06
8.17104e-08
4.87334e-06
7.93912e-08
4.87816e-06
7.48975e-08
4.88237e-06
6.98463e-08
4.88637e-06
6.50969e-08
4.89031e-06
6.03367e-08
4.89389e-06
5.50344e-08
4.89691e-06
4.94268e-08
4.89948e-06
4.40909e-08
4.90175e-06
3.92189e-08
4.9038e-06
3.46792e-08
4.90561e-06
3.03799e-08
4.90711e-06
2.63345e-08
2.25911e-08
4.90819e-06
5.18388e-06
2.16309e-08
5.19142e-06
5.31685e-08
5.19893e-06
6.67788e-08
5.20606e-06
7.30581e-08
5.21275e-06
7.48208e-08
5.21868e-06
7.33204e-08
5.22378e-06
6.97245e-08
5.22825e-06
6.53158e-08
5.23242e-06
6.08585e-08
5.23641e-06
5.63116e-08
5.24002e-06
5.13926e-08
5.24313e-06
4.62951e-08
5.24583e-06
4.13827e-08
5.24822e-06
3.68168e-08
5.25036e-06
3.25305e-08
5.25223e-06
2.84957e-08
5.25379e-06
2.47285e-08
2.13588e-08
5.25502e-06
5.55485e-06
1.81186e-08
5.56169e-06
4.65248e-08
5.56895e-06
5.96111e-08
5.57607e-06
6.60281e-08
5.58279e-06
6.81427e-08
5.58887e-06
6.72844e-08
5.59425e-06
6.44424e-08
5.59902e-06
6.06218e-08
5.60341e-06
5.65039e-08
5.60753e-06
5.22076e-08
5.61127e-06
4.76588e-08
5.61456e-06
4.30009e-08
5.61746e-06
3.84848e-08
5.62003e-06
3.42344e-08
5.62232e-06
3.02323e-08
5.62432e-06
2.64812e-08
5.62603e-06
2.30166e-08
1.98709e-08
5.6274e-06
5.9527e-06
1.52137e-08
5.95882e-06
4.01681e-08
5.96576e-06
5.24556e-08
5.97277e-06
5.88147e-08
5.97953e-06
6.1208e-08
5.98578e-06
6.08924e-08
5.99143e-06
5.87117e-08
5.99652e-06
5.54668e-08
6.00119e-06
5.17865e-08
6.00551e-06
4.78493e-08
6.00944e-06
4.37067e-08
6.01294e-06
3.94804e-08
6.01606e-06
3.5368e-08
6.01883e-06
3.14534e-08
6.0213e-06
2.77678e-08
6.02347e-06
2.43149e-08
6.02532e-06
2.11236e-08
1.82929e-08
6.02688e-06
6.37925e-06
1.27466e-08
6.38476e-06
3.48213e-08
6.39133e-06
4.59372e-08
6.39816e-06
5.20036e-08
6.40488e-06
5.44685e-08
6.41125e-06
5.45115e-08
6.41713e-06
5.28418e-08
6.42251e-06
5.01112e-08
6.42745e-06
4.68471e-08
6.43201e-06
4.32953e-08
6.43615e-06
3.95566e-08
6.43988e-06
3.57664e-08
6.44323e-06
3.20181e-08
6.44623e-06
2.84758e-08
6.4489e-06
2.51025e-08
6.45126e-06
2.19759e-08
6.45331e-06
1.90916e-08
1.6487e-08
6.45503e-06
5.74263e-06
1.10101e-08
5.74682e-06
3.05427e-08
5.75208e-06
4.05751e-08
5.75769e-06
4.63077e-08
5.76329e-06
4.87756e-08
5.7687e-06
4.90485e-08
5.77378e-06
4.77251e-08
5.77849e-06
4.53866e-08
5.78285e-06
4.24828e-08
5.78687e-06
3.9278e-08
5.79054e-06
3.59052e-08
5.79385e-06
3.24079e-08
5.79687e-06
2.90526e-08
5.79956e-06
2.57487e-08
5.802e-06
2.27088e-08
5.80415e-06
1.98116e-08
5.80603e-06
1.71783e-08
1.48016e-08
5.80766e-06
6.99994e-06
9.18988e-09
7.00435e-06
2.61824e-08
7.01005e-06
3.4868e-08
7.01625e-06
4.0042e-08
7.02257e-06
4.24039e-08
7.02876e-06
4.27881e-08
7.03467e-06
4.17889e-08
7.04021e-06
3.98221e-08
7.04538e-06
3.73202e-08
7.05016e-06
3.4506e-08
7.05451e-06
3.14807e-08
7.05852e-06
2.8438e-08
7.06211e-06
2.53842e-08
7.06541e-06
2.25063e-08
7.06833e-06
1.9728e-08
7.07098e-06
1.71883e-08
7.07328e-06
1.47982e-08
1.27265e-08
7.07533e-06
8.53264e-06
7.44527e-09
8.53719e-06
2.16381e-08
8.54326e-06
2.88101e-08
8.55004e-06
3.32957e-08
8.55705e-06
3.53586e-08
8.56405e-06
3.58138e-08
8.5708e-06
3.50097e-08
8.57723e-06
3.34328e-08
8.58326e-06
3.12938e-08
8.58885e-06
2.88953e-08
8.594e-06
2.62813e-08
8.59871e-06
2.3666e-08
8.60304e-06
2.10453e-08
8.60695e-06
1.8557e-08
8.61052e-06
1.61761e-08
8.61368e-06
1.39697e-08
8.61655e-06
1.19354e-08
1.01254e-08
8.61902e-06
1.0401e-05
5.66504e-09
1.04057e-05
1.70021e-08
1.04121e-05
2.24651e-08
1.04194e-05
2.59963e-08
1.04271e-05
2.77149e-08
1.04349e-05
2.80248e-08
1.04425e-05
2.74425e-08
1.04498e-05
2.61052e-08
1.04568e-05
2.44074e-08
1.04633e-05
2.23466e-08
1.04693e-05
2.02644e-08
1.04748e-05
1.80339e-08
1.04799e-05
1.59603e-08
1.04845e-05
1.38578e-08
1.04888e-05
1.19634e-08
1.04926e-05
1.01167e-08
1.04961e-05
8.49843e-09
7.01809e-09
1.04992e-05
1.26786e-05
3.92536e-09
1.26833e-05
1.2227e-08
1.269e-05
1.58191e-08
1.26979e-05
1.82245e-08
1.27063e-05
1.93163e-08
1.27149e-05
1.94651e-08
1.27235e-05
1.88905e-08
1.27319e-05
1.78585e-08
1.27397e-05
1.64502e-08
1.27473e-05
1.49072e-08
1.27541e-05
1.32138e-08
1.27607e-05
1.15896e-08
1.27665e-05
9.93097e-09
1.27721e-05
8.4105e-09
1.27771e-05
6.91669e-09
1.27818e-05
5.59164e-09
1.27858e-05
4.32898e-09
3.28215e-09
1.27897e-05
1.5455e-05
2.13297e-09
1.54599e-05
7.30284e-09
1.5467e-05
8.79575e-09
1.54755e-05
9.79274e-09
1.54847e-05
1.00972e-08
1.54943e-05
9.88212e-09
1.55039e-05
9.28221e-09
1.55134e-05
8.42916e-09
1.55224e-05
7.39108e-09
1.5531e-05
6.2762e-09
1.55391e-05
5.12947e-09
1.55466e-05
4.01377e-09
1.55537e-05
2.93199e-09
1.55601e-05
1.92191e-09
1.55661e-05
9.76898e-10
1.55716e-05
1.23139e-10
1.55767e-05
-6.5095e-10
-1.30297e-09
1.55812e-05
1.88396e-05
2.45731e-10
1.88449e-05
1.93453e-09
1.88526e-05
1.06464e-09
1.8862e-05
3.84315e-10
1.88724e-05
-3.09456e-10
1.88832e-05
-1.02549e-09
1.88943e-05
-1.74198e-09
1.89051e-05
-2.44881e-09
1.89156e-05
-3.12835e-09
1.89256e-05
-3.76984e-09
1.89351e-05
-4.35819e-09
1.8944e-05
-4.89279e-09
1.89523e-05
-5.36953e-09
1.896e-05
-5.79e-09
1.89672e-05
-6.15292e-09
1.89737e-05
-6.45968e-09
1.89799e-05
-6.71062e-09
-6.89176e-09
1.89854e-05
2.29656e-05
-1.9795e-09
2.29719e-05
-4.4748e-09
2.2981e-05
-8.15252e-09
2.29921e-05
-1.08062e-08
2.30045e-05
-1.27144e-08
2.30174e-05
-1.40108e-08
2.30305e-05
-1.4916e-08
2.30434e-05
-1.54335e-08
2.30561e-05
-1.57376e-08
2.3068e-05
-1.58008e-08
2.30795e-05
-1.57669e-08
2.30901e-05
-1.55949e-08
2.31002e-05
-1.53857e-08
2.31094e-05
-1.50956e-08
2.31182e-05
-1.47975e-08
2.31261e-05
-1.44517e-08
2.31337e-05
-1.41056e-08
-1.37204e-08
2.31404e-05
1.68125e-05
-3.84437e-09
1.68177e-05
-9.75475e-09
1.68251e-05
-1.56142e-08
1.68338e-05
-1.97245e-08
1.68435e-05
-2.23812e-08
1.68534e-05
-2.41026e-08
1.68635e-05
-2.49688e-08
1.68732e-05
-2.53698e-08
1.68829e-05
-2.52199e-08
1.68918e-05
-2.48942e-08
1.69005e-05
-2.42614e-08
1.69083e-05
-2.36128e-08
1.69159e-05
-2.27918e-08
1.69226e-05
-2.20325e-08
1.69292e-05
-2.11751e-08
1.6935e-05
-2.04023e-08
1.69406e-05
-1.95634e-08
-1.88069e-08
1.69456e-05
1.46365e-05
-5.79125e-09
1.46418e-05
-1.51812e-08
1.46493e-05
-2.31712e-08
1.46579e-05
-2.84373e-08
1.46671e-05
-3.17319e-08
1.46766e-05
-3.36075e-08
1.4686e-05
-3.44804e-08
1.46951e-05
-3.44948e-08
1.47038e-05
-3.40044e-08
1.47121e-05
-3.30906e-08
1.47197e-05
-3.19913e-08
1.47269e-05
-3.07272e-08
1.47334e-05
-2.94424e-08
1.47396e-05
-2.81248e-08
1.47452e-05
-2.68564e-08
1.47505e-05
-2.55985e-08
1.47552e-05
-2.44073e-08
-2.32286e-08
1.47598e-05
1.27423e-05
-7.93539e-09
1.27481e-05
-2.10415e-08
1.2756e-05
-3.10234e-08
1.27646e-05
-3.71598e-08
1.27737e-05
-4.08176e-08
1.27827e-05
-4.27727e-08
1.27916e-05
-4.34007e-08
1.28001e-05
-4.30555e-08
1.28081e-05
-4.20333e-08
1.28155e-05
-4.05789e-08
1.28224e-05
-3.89131e-08
1.28288e-05
-3.71012e-08
1.28346e-05
-3.53171e-08
1.284e-05
-3.35095e-08
1.28449e-05
-3.18263e-08
1.28495e-05
-3.01619e-08
1.28537e-05
-2.8616e-08
-2.71219e-08
1.28575e-05
1.10934e-05
-1.03768e-08
1.11001e-05
-2.7793e-08
1.11084e-05
-3.92452e-08
1.1117e-05
-4.58278e-08
1.11257e-05
-4.95852e-08
1.11343e-05
-5.14223e-08
1.11426e-05
-5.17374e-08
1.11504e-05
-5.08994e-08
1.11577e-05
-4.93147e-08
1.11644e-05
-4.73177e-08
1.11705e-05
-4.50531e-08
1.11761e-05
-4.27449e-08
1.11812e-05
-4.04016e-08
1.11858e-05
-3.82219e-08
1.11901e-05
-3.60779e-08
1.1194e-05
-3.41176e-08
1.11977e-05
-3.22146e-08
-3.04669e-08
1.12009e-05
9.65815e-06
-1.33223e-08
9.66618e-06
-3.57662e-08
9.67441e-06
-4.74633e-08
9.68266e-06
-5.40725e-08
9.69099e-06
-5.79168e-08
9.6991e-06
-5.95679e-08
9.70679e-06
-5.94435e-08
9.71396e-06
-5.80596e-08
9.72054e-06
-5.59093e-08
9.72655e-06
-5.33038e-08
9.73198e-06
-5.04984e-08
9.73689e-06
-4.76447e-08
9.74127e-06
-4.48899e-08
9.7453e-06
-4.22234e-08
9.74896e-06
-3.97682e-08
9.75235e-06
-3.74877e-08
9.75551e-06
-3.53241e-08
-3.34011e-08
9.75843e-06
8.40948e-06
-1.74337e-08
8.41804e-06
-4.43546e-08
8.42608e-06
-5.54762e-08
8.43408e-06
-6.21185e-08
8.44211e-06
-6.59711e-08
8.44986e-06
-6.73309e-08
8.45708e-06
-6.66743e-08
8.46371e-06
-6.47035e-08
8.46976e-06
-6.19362e-08
8.4752e-06
-5.87554e-08
8.48005e-06
-5.53672e-08
8.48434e-06
-5.19761e-08
8.48816e-06
-4.86883e-08
8.49156e-06
-4.56538e-08
8.49465e-06
-4.28664e-08
8.49755e-06
-4.03242e-08
8.50017e-06
-3.80298e-08
-3.58666e-08
8.5027e-06
7.32354e-06
-2.3701e-08
7.33246e-06
-5.32568e-08
7.34074e-06
-6.37982e-08
7.34855e-06
-6.9951e-08
7.35619e-06
-7.36297e-08
7.36341e-06
-7.45683e-08
7.3701e-06
-7.33874e-08
7.37623e-06
-7.08426e-08
7.38175e-06
-6.74643e-08
7.38665e-06
-6.36662e-08
7.39097e-06
-5.97e-08
7.39476e-06
-5.57753e-08
7.39805e-06
-5.20379e-08
7.40097e-06
-4.85847e-08
7.40361e-06
-4.55147e-08
7.40607e-06
-4.27945e-08
7.40838e-06
-4.03157e-08
-3.80305e-08
7.41047e-06
6.37815e-06
-3.17889e-08
6.38869e-06
-6.38283e-08
6.3964e-06
-7.15101e-08
6.40298e-06
-7.66045e-08
6.4104e-06
-8.10801e-08
6.41761e-06
-8.18098e-08
6.42435e-06
-8.01403e-08
6.4307e-06
-7.72067e-08
6.43655e-06
-7.33171e-08
6.44191e-06
-6.90429e-08
6.44683e-06
-6.46981e-08
6.45133e-06
-6.02882e-08
6.45543e-06
-5.61424e-08
6.4592e-06
-5.23852e-08
6.46277e-06
-4.90908e-08
6.46622e-06
-4.62311e-08
6.46952e-06
-4.36402e-08
-4.13104e-08
6.47268e-06
5.55717e-06
-4.34929e-08
5.56858e-06
-7.5254e-08
5.58166e-06
-8.46111e-08
5.59698e-06
-9.20079e-08
5.61275e-06
-9.68773e-08
5.62831e-06
-9.73901e-08
5.64367e-06
-9.55095e-08
5.65839e-06
-9.19314e-08
5.67184e-06
-8.67553e-08
5.68391e-06
-8.11671e-08
5.6946e-06
-7.54475e-08
5.70382e-06
-6.95258e-08
5.71172e-06
-6.40576e-08
5.71846e-06
-5.91467e-08
5.72422e-06
-5.48714e-08
5.72919e-06
-5.11891e-08
5.7334e-06
-4.79258e-08
-4.53794e-08
5.73743e-06
4.89048e-06
-1.06369e-07
4.94132e-06
-1.26101e-07
4.98444e-06
-1.27764e-07
5.01725e-06
-1.24894e-07
5.03935e-06
-1.19009e-07
5.05187e-06
-1.09929e-07
5.05518e-06
-9.88233e-08
5.05125e-06
-8.80017e-08
5.04273e-06
-7.82325e-08
5.02957e-06
-6.80671e-08
5.01274e-06
-5.8684e-08
4.99431e-06
-5.11264e-08
4.97484e-06
-4.46054e-08
4.95467e-06
-3.90031e-08
4.93407e-06
-3.42759e-08
4.91344e-06
-3.05733e-08
4.89338e-06
-2.78976e-08
-2.64181e-08
4.87432e-06
4.09631e-06
3.9702e-06
3.84243e-06
3.71754e-06
3.59853e-06
3.4886e-06
3.38977e-06
3.30177e-06
3.22353e-06
3.15545e-06
3.09676e-06
3.04563e-06
3.00102e-06
2.96202e-06
2.92774e-06
2.89716e-06
2.86924e-06
2.84283e-06
-7.52523e-09
7.43825e-09
-2.0876e-08
1.32242e-08
-3.51831e-08
1.41847e-08
-4.72517e-08
1.19895e-08
-5.2367e-08
5.03202e-09
-4.50187e-08
-7.42994e-09
-2.32399e-08
-2.18176e-08
1.08054e-08
-3.41537e-08
5.35111e-08
-4.27216e-08
1.00174e-07
-4.67498e-08
1.46746e-07
-4.65737e-08
1.90147e-07
-4.34577e-08
2.28553e-07
-3.84083e-08
2.60696e-07
-3.2172e-08
2.85941e-07
-2.52484e-08
3.03869e-07
-1.79324e-08
3.1422e-07
-1.03514e-08
3.16717e-07
-2.48592e-09
3.11129e-07
5.59358e-09
2.97559e-07
1.35812e-08
2.76478e-07
2.10934e-08
2.48692e-07
2.77791e-08
2.15428e-07
3.32727e-08
1.78243e-07
3.71504e-08
1.39255e-07
3.89804e-08
1.00808e-07
3.83954e-08
6.55269e-08
3.52546e-08
3.56485e-08
2.9812e-08
1.2708e-08
2.29084e-08
-3.17186e-09
1.57926e-08
-1.27217e-08
9.53629e-09
-1.69074e-08
4.09634e-09
-1.56915e-08
-1.20241e-09
-8.65472e-09
-7.16056e-09
5.78935e-09
-1.43936e-08
2.86163e-08
-2.29651e-08
5.91133e-08
-3.04877e-08
9.27868e-08
-3.3756e-08
1.23956e-07
-3.12319e-08
1.48015e-07
-2.40533e-08
1.62525e-07
-1.46071e-08
1.68455e-07
-5.85613e-09
1.68353e-07
2.94273e-11
1.65456e-07
3.00254e-09
1.61728e-07
3.66715e-09
1.58575e-07
3.27053e-09
1.51274e-07
7.166e-09
1.32453e-07
1.89179e-08
9.39983e-08
3.82702e-08
3.10348e-08
6.30919e-08
-5.56473e-08
8.66313e-08
-1.60949e-07
1.05504e-07
-2.82543e-07
1.21608e-07
-4.17315e-07
1.34906e-07
-5.58863e-07
1.41484e-07
-7.01871e-07
1.43096e-07
-8.4498e-07
1.43037e-07
-9.8576e-07
1.40881e-07
-1.12067e-06
1.34851e-07
-1.24731e-06
1.26727e-07
-1.3657e-06
1.18345e-07
-1.47481e-06
1.09177e-07
-1.57553e-06
1.0066e-07
-1.66816e-06
9.26526e-08
-1.75305e-06
8.485e-08
-1.8313e-06
7.82492e-08
-1.90374e-06
7.24247e-08
-1.97084e-06
6.7098e-08
-2.0333e-06
6.24724e-08
-2.09169e-06
5.83887e-08
-2.14644e-06
5.47934e-08
-2.19803e-06
5.15943e-08
-2.24669e-06
4.87312e-08
-2.29283e-06
4.61183e-08
-2.3365e-06
4.37343e-08
-2.37806e-06
4.14997e-08
-2.41743e-06
3.94157e-08
-2.45493e-06
3.74164e-08
-2.49038e-06
3.55251e-08
-2.52412e-06
3.36634e-08
-2.55594e-06
3.18756e-08
-2.58611e-06
3.00963e-08
-2.61441e-06
2.83783e-08
-2.64114e-06
2.6648e-08
-2.66608e-06
2.49637e-08
-2.68943e-06
2.32611e-08
-2.71101e-06
2.15804e-08
-2.73093e-06
1.98652e-08
-2.74909e-06
1.81532e-08
-2.76555e-06
1.64058e-08
-2.78031e-06
1.46681e-08
-2.79341e-06
1.29057e-08
-2.80475e-06
1.11508e-08
-2.81436e-06
9.36646e-09
-2.82217e-06
7.57871e-09
-2.8282e-06
5.74055e-09
-2.83235e-06
3.87912e-09
-2.83463e-06
1.96599e-09
-2.83501e-06
1.09504e-10
-2.83379e-06
-1.5071e-09
-2.83115e-06
-2.86312e-09
-2.82718e-06
-4.12733e-09
-2.8219e-06
-5.34514e-09
-2.81533e-06
-6.50374e-09
-2.80757e-06
-7.66317e-09
-2.79862e-06
-8.77093e-09
-2.78859e-06
-9.89731e-09
-2.77744e-06
-1.09733e-08
-2.76529e-06
-1.20692e-08
-2.75206e-06
-1.31086e-08
-2.73786e-06
-1.41654e-08
-2.72263e-06
-1.51645e-08
-2.70648e-06
-1.61806e-08
-2.68933e-06
-1.71434e-08
-2.67128e-06
-1.81238e-08
-2.65228e-06
-1.90552e-08
-2.63241e-06
-1.99967e-08
-2.61163e-06
-2.08938e-08
-2.59e-06
-2.17993e-08
-2.56747e-06
-2.26825e-08
-2.54405e-06
-2.35772e-08
-2.51972e-06
-2.44637e-08
-2.4945e-06
-2.53551e-08
-2.46842e-06
-2.62416e-08
-2.44147e-06
-2.71295e-08
-2.41367e-06
-2.80217e-08
-2.38498e-06
-2.89101e-08
-2.35542e-06
-2.9816e-08
-2.32493e-06
-3.0714e-08
-2.29355e-06
-3.1642e-08
-2.26121e-06
-3.25528e-08
-2.22797e-06
-3.3492e-08
-2.19374e-06
-3.44015e-08
-2.15861e-06
-3.53472e-08
-2.12248e-06
-3.62384e-08
-2.08546e-06
-3.71574e-08
-2.04749e-06
-3.79923e-08
-2.00869e-06
-3.88019e-08
-1.96894e-06
-3.95751e-08
-1.92818e-06
-4.0502e-08
-1.88642e-06
-4.14382e-08
-1.84378e-06
-4.23302e-08
-1.80026e-06
-4.32298e-08
-1.75588e-06
-4.41314e-08
-1.71063e-06
-4.50178e-08
-1.66453e-06
-4.58939e-08
-1.6176e-06
-4.67458e-08
-1.56988e-06
-4.75767e-08
-1.52137e-06
-4.83823e-08
-1.47212e-06
-4.91567e-08
-1.42214e-06
-4.99013e-08
-1.37149e-06
-5.06082e-08
-1.32018e-06
-5.12799e-08
-1.26827e-06
-5.19036e-08
-1.21579e-06
-5.2488e-08
-1.16279e-06
-5.30183e-08
-1.10932e-06
-5.35095e-08
-1.05541e-06
-5.39597e-08
-1.0011e-06
-5.43645e-08
-9.46422e-07
-5.4737e-08
-8.9141e-07
-5.50812e-08
-8.36089e-07
-5.53914e-08
-7.80485e-07
-5.56834e-08
-7.24614e-07
-5.59465e-08
-6.68509e-07
-5.61923e-08
-6.12179e-07
-5.64071e-08
-5.55669e-07
-5.66012e-08
-4.98983e-07
-5.67625e-08
-4.4217e-07
-5.69057e-08
-3.85225e-07
-5.70151e-08
-3.2821e-07
-5.71022e-08
-2.7113e-07
-5.7141e-08
-2.14098e-07
-5.71105e-08
-1.57186e-07
-5.69605e-08
-1.00617e-07
-5.66359e-08
-4.47598e-08
-5.58924e-08
9.68035e-09
-5.44942e-08
6.11076e-08
-5.1444e-08
1.08666e-07
-4.75821e-08
-2.23482e-08
1.31046e-07
-3.60704e-09
1.09175e-08
-1.01263e-08
1.95825e-08
-1.34485e-08
1.73084e-08
-6.62609e-09
5.04049e-09
1.52534e-08
-1.69653e-08
5.15083e-08
-4.37581e-08
9.76449e-08
-6.79942e-08
1.48139e-07
-8.47031e-08
1.98143e-07
-9.27395e-08
2.44547e-07
-9.31968e-08
2.85989e-07
-8.80241e-08
3.21728e-07
-7.92248e-08
3.51672e-07
-6.83576e-08
3.75952e-07
-5.64664e-08
3.94888e-07
-4.41871e-08
4.08829e-07
-3.18739e-08
4.1817e-07
-1.96895e-08
4.2342e-07
-7.72566e-09
4.24975e-07
4.04696e-09
4.22844e-07
1.5724e-08
4.16644e-07
2.73056e-08
4.05811e-07
3.86161e-08
3.89795e-07
4.92962e-08
3.68152e-07
5.87853e-08
3.40775e-07
6.63558e-08
3.07984e-07
7.11745e-08
2.70766e-07
7.24636e-08
2.30822e-07
6.9741e-08
1.90696e-07
6.30258e-08
1.53615e-07
5.28579e-08
1.23168e-07
3.99942e-08
1.02168e-07
2.50551e-08
9.26269e-08
8.38798e-09
9.46919e-08
-9.28708e-09
1.07653e-07
-2.73083e-08
1.28254e-07
-4.36316e-08
1.51232e-07
-5.34552e-08
1.69989e-07
-5.25508e-08
1.80551e-07
-4.18261e-08
1.81902e-07
-2.53814e-08
1.74158e-07
-6.91793e-09
1.58901e-07
9.49908e-09
1.37168e-07
2.16825e-08
1.04821e-07
3.55209e-08
5.276e-08
5.56129e-08
-2.65947e-08
8.27292e-08
-1.35686e-07
1.16172e-07
-2.68174e-07
1.51424e-07
-4.15016e-07
1.85079e-07
-5.68208e-07
2.16301e-07
-7.24168e-07
2.42599e-07
-8.8032e-07
2.61698e-07
-1.03266e-06
2.73969e-07
-1.17712e-06
2.79388e-07
-1.31269e-06
2.77052e-07
-1.43762e-06
2.68057e-07
-1.54993e-06
2.55347e-07
-1.64924e-06
2.4022e-07
-1.73747e-06
2.23079e-07
-1.81583e-06
2.05116e-07
-1.88535e-06
1.87854e-07
-1.9477e-06
1.71535e-07
-2.00379e-06
1.56742e-07
-2.05475e-06
1.43611e-07
-2.10186e-06
1.31938e-07
-2.14548e-06
1.21863e-07
-2.18618e-06
1.13119e-07
-2.22454e-06
1.05447e-07
-2.2608e-06
9.87421e-08
-2.29524e-06
9.28285e-08
-2.32799e-06
8.75631e-08
-2.3592e-06
8.28179e-08
-2.38894e-06
7.84916e-08
-2.4173e-06
7.44927e-08
-2.4443e-06
7.07542e-08
-2.47003e-06
6.7209e-08
-2.49443e-06
6.38282e-08
-2.51759e-06
6.05582e-08
-2.53943e-06
5.73851e-08
-2.56005e-06
5.42657e-08
-2.57937e-06
5.12036e-08
-2.59745e-06
4.81642e-08
-2.61422e-06
4.51592e-08
-2.62976e-06
4.2157e-08
-2.64398e-06
3.91754e-08
-2.65695e-06
3.61829e-08
-2.66859e-06
3.31917e-08
-2.67893e-06
3.01853e-08
-2.68797e-06
2.7153e-08
-2.69571e-06
2.41224e-08
-2.70223e-06
2.10814e-08
-2.70751e-06
1.80442e-08
-2.71155e-06
1.5028e-08
-2.71437e-06
1.2021e-08
-2.71603e-06
9.05053e-09
-2.71659e-06
6.10538e-09
-2.71616e-06
3.23031e-09
-2.71483e-06
4.28116e-10
-2.71269e-06
-2.23842e-09
-2.70957e-06
-4.82028e-09
-2.70524e-06
-7.33363e-09
-2.69968e-06
-9.79076e-09
-2.69284e-06
-1.21684e-08
-2.6848e-06
-1.44851e-08
-2.67558e-06
-1.67561e-08
-2.66524e-06
-1.89869e-08
-2.6538e-06
-2.11913e-08
-2.64132e-06
-2.33571e-08
-2.62779e-06
-2.54952e-08
-2.61325e-06
-2.75868e-08
-2.59771e-06
-2.96482e-08
-2.5812e-06
-3.16601e-08
-2.56372e-06
-3.36446e-08
-2.54531e-06
-3.55831e-08
-2.52596e-06
-3.75e-08
-2.50571e-06
-3.93736e-08
-2.48455e-06
-4.1226e-08
-2.4625e-06
-4.30378e-08
-2.43958e-06
-4.48377e-08
-2.41575e-06
-4.66167e-08
-2.39103e-06
-4.84019e-08
-2.36541e-06
-5.01791e-08
-2.33889e-06
-5.19627e-08
-2.3115e-06
-5.37408e-08
-2.28324e-06
-5.5526e-08
-2.25409e-06
-5.73122e-08
-2.22406e-06
-5.91082e-08
-2.19312e-06
-6.09138e-08
-2.16128e-06
-6.27297e-08
-2.12852e-06
-6.45601e-08
-2.09485e-06
-6.63953e-08
-2.06024e-06
-6.82426e-08
-2.0247e-06
-7.00867e-08
-1.98821e-06
-7.19426e-08
-1.95077e-06
-7.3777e-08
-1.91237e-06
-7.56143e-08
-1.87298e-06
-7.74131e-08
-1.83256e-06
-7.9177e-08
-1.79108e-06
-8.09313e-08
-1.74864e-06
-8.27341e-08
-1.70531e-06
-8.45495e-08
-1.66108e-06
-8.6346e-08
-1.61598e-06
-8.81526e-08
-1.57e-06
-8.99437e-08
-1.52316e-06
-9.1715e-08
-1.47548e-06
-9.34499e-08
-1.42698e-06
-9.51437e-08
-1.37768e-06
-9.67868e-08
-1.32761e-06
-9.83782e-08
-1.27681e-06
-9.99091e-08
-1.2253e-06
-1.01375e-07
-1.17312e-06
-1.02772e-07
-1.1203e-06
-1.04089e-07
-1.0669e-06
-1.05323e-07
-1.01294e-06
-1.06462e-07
-9.58483e-07
-1.07512e-07
-9.03563e-07
-1.08464e-07
-8.48231e-07
-1.09342e-07
-7.92517e-07
-1.10126e-07
-7.36465e-07
-1.10848e-07
-6.80101e-07
-1.11499e-07
-6.23457e-07
-1.12099e-07
-5.66554e-07
-1.12645e-07
-5.09416e-07
-1.13151e-07
-4.52062e-07
-1.13608e-07
-3.94515e-07
-1.14022e-07
-3.368e-07
-1.14381e-07
-2.78936e-07
-1.14694e-07
-2.20951e-07
-1.14956e-07
-1.62859e-07
-1.1517e-07
-1.04695e-07
-1.15328e-07
-4.64704e-08
-1.15419e-07
1.17615e-08
-1.15396e-07
6.99228e-08
-1.15165e-07
1.27783e-07
-1.14539e-07
1.85044e-07
-1.13187e-07
2.41093e-07
-1.10579e-07
2.9531e-07
-1.05686e-07
3.44383e-07
-9.66761e-08
-6.92767e-08
3.91319e-07
-7.11543e-11
1.08911e-08
2.85001e-09
1.65068e-08
1.67629e-08
3.24634e-09
4.92138e-08
-2.74857e-08
9.83128e-08
-6.61162e-08
1.54726e-07
-1.00212e-07
2.09315e-07
-1.22601e-07
2.56806e-07
-1.32226e-07
2.95554e-07
-1.315e-07
3.26066e-07
-1.23731e-07
3.49794e-07
-1.11758e-07
3.68141e-07
-9.75856e-08
3.82248e-07
-8.2467e-08
3.92891e-07
-6.71144e-08
4.00608e-07
-5.19032e-08
4.05757e-07
-3.70193e-08
4.08612e-07
-2.25405e-08
4.09403e-07
-8.50695e-09
4.08392e-07
5.06617e-09
4.05921e-07
1.82054e-08
4.02264e-07
3.09723e-08
3.97516e-07
4.33737e-08
3.91498e-07
5.53222e-08
3.83725e-07
6.65639e-08
3.73449e-07
7.66399e-08
3.59782e-07
8.48463e-08
3.41989e-07
9.02645e-08
3.19864e-07
9.18731e-08
2.94132e-07
8.87693e-08
2.66601e-07
8.04006e-08
2.39931e-07
6.66861e-08
2.1692e-07
4.80791e-08
1.99812e-07
2.55293e-08
1.89881e-07
6.32905e-10
1.85634e-07
-2.30329e-08
1.81371e-07
-3.93933e-08
1.70448e-07
-4.25369e-08
1.50415e-07
-3.2527e-08
1.2192e-07
-1.33485e-08
8.55545e-08
1.10092e-08
3.92021e-08
3.94067e-08
-2.22571e-08
7.10123e-08
-1.05215e-07
1.04633e-07
-2.11652e-07
1.41987e-07
-3.39273e-07
1.83232e-07
-4.82332e-07
2.25798e-07
-6.32635e-07
2.6647e-07
-7.83758e-07
3.02559e-07
-9.30611e-07
3.31935e-07
-1.06794e-06
3.53644e-07
-1.19263e-06
3.67292e-07
-1.30369e-06
3.72772e-07
-1.40047e-06
3.70751e-07
-1.48314e-06
3.62077e-07
-1.55381e-06
3.47729e-07
-1.61503e-06
3.29295e-07
-1.66845e-06
3.0877e-07
-1.71563e-06
2.87414e-07
-1.75858e-06
2.66027e-07
-1.7988e-06
2.45356e-07
-1.83706e-06
2.26109e-07
-1.87402e-06
2.085e-07
-1.90992e-06
1.92641e-07
-1.94488e-06
1.78569e-07
-1.97907e-06
1.66118e-07
-2.01238e-06
1.55167e-07
-2.04479e-06
1.45528e-07
-2.07634e-06
1.3699e-07
-2.10698e-06
1.29386e-07
-2.1367e-06
1.22552e-07
-2.16547e-06
1.16344e-07
-2.19329e-06
1.1064e-07
-2.22011e-06
1.05338e-07
-2.24596e-06
1.00345e-07
-2.27079e-06
9.55956e-08
-2.29461e-06
9.10293e-08
-2.31737e-06
8.66013e-08
-2.33908e-06
8.22723e-08
-2.3597e-06
7.8015e-08
-2.37924e-06
7.38006e-08
-2.39765e-06
6.96172e-08
-2.41493e-06
6.5446e-08
-2.43105e-06
6.12827e-08
-2.44602e-06
5.71138e-08
-2.4598e-06
5.29403e-08
-2.4724e-06
4.87524e-08
-2.48378e-06
4.45516e-08
-2.49396e-06
4.03251e-08
-2.50291e-06
3.60843e-08
-2.51066e-06
3.18267e-08
-2.51724e-06
2.75715e-08
-2.52263e-06
2.33392e-08
-2.52685e-06
1.91176e-08
-2.52988e-06
1.49457e-08
-2.53179e-06
1.08087e-08
-2.53256e-06
6.7489e-09
-2.53224e-06
2.75511e-09
-2.53081e-06
-1.13344e-09
-2.52826e-06
-4.93753e-09
-2.52452e-06
-8.66347e-09
-2.5196e-06
-1.23342e-08
-2.51349e-06
-1.59301e-08
-2.50617e-06
-1.94358e-08
-2.4977e-06
-2.28702e-08
-2.4881e-06
-2.62292e-08
-2.47744e-06
-2.95449e-08
-2.46571e-06
-3.27994e-08
-2.45298e-06
-3.6014e-08
-2.43923e-06
-3.91635e-08
-2.42451e-06
-4.22669e-08
-2.4088e-06
-4.53023e-08
-2.39217e-06
-4.82901e-08
-2.37458e-06
-5.12139e-08
-2.35609e-06
-5.40946e-08
-2.33669e-06
-5.69204e-08
-2.3164e-06
-5.9708e-08
-2.29523e-06
-6.24487e-08
-2.27319e-06
-6.51572e-08
-2.25026e-06
-6.78351e-08
-2.22647e-06
-7.04991e-08
-2.20178e-06
-7.31563e-08
-2.17622e-06
-7.58131e-08
-2.14978e-06
-7.84719e-08
-2.12247e-06
-8.11351e-08
-2.09429e-06
-8.38064e-08
-2.06523e-06
-8.64862e-08
-2.03528e-06
-8.91808e-08
-2.00443e-06
-9.18886e-08
-1.97268e-06
-9.46148e-08
-1.94001e-06
-9.73547e-08
-1.90643e-06
-1.00111e-07
-1.87191e-06
-1.02876e-07
-1.83646e-06
-1.05653e-07
-1.80006e-06
-1.08432e-07
-1.76272e-06
-1.11205e-07
-1.72441e-06
-1.1397e-07
-1.68514e-06
-1.16712e-07
-1.64487e-06
-1.19417e-07
-1.60361e-06
-1.22108e-07
-1.56141e-06
-1.24811e-07
-1.51831e-06
-1.27517e-07
-1.47434e-06
-1.30223e-07
-1.42949e-06
-1.32921e-07
-1.38377e-06
-1.35598e-07
-1.3372e-06
-1.3823e-07
-1.28981e-06
-1.4081e-07
-1.2416e-06
-1.43318e-07
-1.19261e-06
-1.45752e-07
-1.14288e-06
-1.48098e-07
-1.09243e-06
-1.50357e-07
-1.04129e-06
-1.52513e-07
-9.89495e-07
-1.54567e-07
-9.37093e-07
-1.56499e-07
-8.84119e-07
-1.58309e-07
-8.3062e-07
-1.59975e-07
-7.76637e-07
-1.61509e-07
-7.22219e-07
-1.62898e-07
-6.67408e-07
-1.64168e-07
-6.12242e-07
-1.65307e-07
-5.56759e-07
-1.66342e-07
-5.00992e-07
-1.67279e-07
-4.44967e-07
-1.68132e-07
-3.88712e-07
-1.6891e-07
-3.32244e-07
-1.69624e-07
-2.75587e-07
-1.70272e-07
-2.18756e-07
-1.70853e-07
-1.61778e-07
-1.71362e-07
-1.04668e-07
-1.71799e-07
-4.74487e-08
-1.72175e-07
9.87717e-09
-1.72487e-07
6.72803e-08
-1.72726e-07
1.24728e-07
-1.72854e-07
1.82155e-07
-1.72814e-07
2.39477e-07
-1.72471e-07
2.96543e-07
-1.71596e-07
3.53149e-07
-1.69778e-07
4.08936e-07
-1.6636e-07
4.63469e-07
-1.60209e-07
5.15853e-07
-1.49053e-07
-1.22917e-07
5.6951e-07
-5.5818e-11
1.08592e-08
1.24533e-08
3.86283e-09
5.07873e-08
-3.5166e-08
1.1023e-07
-8.69846e-08
1.74462e-07
-1.30373e-07
2.3015e-07
-1.55929e-07
2.71949e-07
-1.64415e-07
3.00524e-07
-1.60822e-07
3.19155e-07
-1.50138e-07
3.3123e-07
-1.35822e-07
3.39314e-07
-1.19847e-07
3.44947e-07
-1.03227e-07
3.48944e-07
-8.64671e-08
3.5166e-07
-6.9832e-08
3.53221e-07
-5.34652e-08
3.53666e-07
-3.74597e-08
3.53005e-07
-2.18778e-08
3.5128e-07
-6.77278e-09
3.48545e-07
7.80425e-09
3.44933e-07
2.18283e-08
3.40624e-07
3.52861e-08
3.35856e-07
4.81521e-08
3.30808e-07
6.03776e-08
3.25553e-07
7.18294e-08
3.19939e-07
8.22646e-08
3.13567e-07
9.1233e-08
3.05794e-07
9.80562e-08
2.9587e-07
1.01815e-07
2.83264e-07
1.01403e-07
2.67914e-07
9.5773e-08
2.5042e-07
8.42221e-08
2.31916e-07
6.65893e-08
2.13652e-07
4.38371e-08
1.94917e-07
1.93543e-08
1.7078e-07
1.11572e-09
1.35251e-07
-3.89353e-09
8.76869e-08
5.02765e-09
2.95684e-08
2.55769e-08
-4.01063e-08
5.63135e-08
-1.24055e-07
9.49683e-08
-2.23523e-07
1.38869e-07
-3.38041e-07
1.85545e-07
-4.66224e-07
2.32813e-07
-6.03277e-07
2.79056e-07
-7.42847e-07
3.22801e-07
-8.78848e-07
3.61813e-07
-1.0058e-06
3.93421e-07
-1.11963e-06
4.16407e-07
-1.21863e-06
4.30944e-07
-1.30224e-06
4.37263e-07
-1.37109e-06
4.36142e-07
-1.42696e-06
4.28646e-07
-1.47211e-06
4.15904e-07
-1.50912e-06
3.99098e-07
-1.54077e-06
3.79377e-07
-1.5694e-06
3.5794e-07
-1.59655e-06
3.35926e-07
-1.62325e-06
3.14121e-07
-1.65027e-06
2.93052e-07
-1.67802e-06
2.73117e-07
-1.70654e-06
2.54625e-07
-1.73572e-06
2.37687e-07
-1.76539e-06
2.22311e-07
-1.79529e-06
2.0847e-07
-1.82523e-06
1.96053e-07
-1.85499e-06
1.84929e-07
-1.88442e-06
1.74948e-07
-1.91337e-06
1.65946e-07
-1.94176e-06
1.57774e-07
-1.96949e-06
1.50289e-07
-1.99651e-06
1.43365e-07
-2.02275e-06
1.36891e-07
-2.04817e-06
1.30771e-07
-2.07274e-06
1.24927e-07
-2.09642e-06
1.19288e-07
-2.11918e-06
1.13798e-07
-2.14098e-06
1.08417e-07
-2.16181e-06
1.03106e-07
-2.18162e-06
9.7837e-08
-2.20039e-06
9.25873e-08
-2.21811e-06
8.73417e-08
-2.23474e-06
8.20868e-08
-2.25027e-06
7.68153e-08
-2.26469e-06
7.15204e-08
-2.27796e-06
6.62011e-08
-2.29009e-06
6.08531e-08
-2.30104e-06
5.54762e-08
-2.31082e-06
5.00726e-08
-2.31941e-06
4.4638e-08
-2.32682e-06
3.92083e-08
-2.33307e-06
3.37645e-08
-2.33817e-06
2.83486e-08
-2.3421e-06
2.29528e-08
-2.34486e-06
1.76119e-08
-2.34647e-06
1.23186e-08
-2.34694e-06
7.10951e-09
-2.34626e-06
1.97246e-09
-2.34443e-06
-3.06335e-09
-2.34144e-06
-8.02043e-09
-2.33729e-06
-1.28905e-08
-2.33197e-06
-1.76816e-08
-2.32549e-06
-2.2381e-08
-2.31788e-06
-2.6976e-08
-2.30916e-06
-3.14858e-08
-2.29937e-06
-3.59056e-08
-2.28855e-06
-4.02644e-08
-2.27671e-06
-4.45424e-08
-2.26389e-06
-4.87629e-08
-2.2501e-06
-5.28969e-08
-2.23535e-06
-5.69701e-08
-2.21967e-06
-6.09535e-08
-2.20307e-06
-6.48773e-08
-2.18557e-06
-6.87157e-08
-2.16717e-06
-7.25016e-08
-2.1479e-06
-7.62127e-08
-2.12776e-06
-7.98816e-08
-2.10676e-06
-8.34888e-08
-2.08491e-06