/*--------------------------------*- C++ -*----------------------------------*\
  =========                 |
  \\      /  F ield         | OpenFOAM: The Open Source CFD Toolbox
   \\    /   O peration     | Website:  https://openfoam.org
    \\  /    A nd           | Version:  13
     \\/     M anipulation  |
\*---------------------------------------------------------------------------*/
FoamFile
{
    format      ascii;
    class       volVectorField;
    location    "1800";
    object      U;
}
// * * * * * * * * * * * * * * * * * * * * * * * * * * * * * * * * * * * * * //

dimensions      [0 1 -1 0 0 0 0];

internalField   nonuniform List<vector> 
12225
(
(9.80063 0.0552739 0)
(9.35149 0.113891 0)
(8.89125 0.126717 0)
(8.46101 0.13007 0)
(8.06843 0.125255 0)
(7.73266 0.0888458 0)
(7.47436 0.0519717 0)
(7.25605 0.0373323 0)
(7.06895 0.0472105 0)
(6.8869 0.0551123 0)
(6.74986 0.0392516 0)
(6.63555 0.0153678 0)
(6.53526 -0.00490766 0)
(6.45106 -0.0117585 0)
(6.37881 -0.0121824 0)
(6.32598 -0.00883732 0)
(6.2995 0.0052982 0)
(6.29251 0.00579515 0)
(10.0597 0.0523461 0)
(10.2303 0.082139 0)
(10.3232 0.0858252 0)
(10.3536 0.0844376 0)
(10.3247 0.0827305 0)
(10.2715 0.0832513 0)
(10.1963 0.0825631 0)
(10.1185 0.0785319 0)
(10.0326 0.0697635 0)
(9.9402 0.0598299 0)
(9.83554 0.0558902 0)
(9.74022 0.0557078 0)
(9.65919 0.0530542 0)
(9.58998 0.0469257 0)
(9.52213 0.0404901 0)
(9.45646 0.0321083 0)
(9.38621 0.0208269 0)
(9.30858 0.0120936 0)
(10.019 0.0429585 0)
(10.0701 0.0709158 0)
(10.1179 0.0764306 0)
(10.1643 0.0817658 0)
(10.2088 0.0865432 0)
(10.2489 0.0846768 0)
(10.2796 0.0798737 0)
(10.3025 0.077495 0)
(10.3207 0.0792046 0)
(10.3378 0.0803164 0)
(10.3472 0.0760513 0)
(10.3509 0.0699541 0)
(10.3506 0.065463 0)
(10.3478 0.0627564 0)
(10.3434 0.0587903 0)
(10.3365 0.0531075 0)
(10.3272 0.047243 0)
(10.3145 0.0382093 0)
(10.0091 0.0323215 0)
(10.0374 0.0581398 0)
(10.0637 0.067785 0)
(10.0866 0.0750289 0)
(10.107 0.0791428 0)
(10.1269 0.0770505 0)
(10.1429 0.072416 0)
(10.156 0.0691462 0)
(10.1694 0.0679107 0)
(10.1846 0.0668138 0)
(10.2004 0.0633438 0)
(10.2139 0.058184 0)
(10.225 0.0531533 0)
(10.2349 0.049391 0)
(10.2443 0.0460538 0)
(10.2529 0.0424534 0)
(10.2605 0.0386201 0)
(10.2677 0.0332664 0)
(10.0051 0.0258783 0)
(10.0281 0.053518 0)
(10.0508 0.0641118 0)
(10.0691 0.0701259 0)
(10.085 0.0733299 0)
(10.0998 0.072276 0)
(10.1117 0.0690501 0)
(10.1207 0.0663755 0)
(10.129 0.0650936 0)
(10.1382 0.063866 0)
(10.1477 0.0608278 0)
(10.1558 0.0564478 0)
(10.1623 0.052101 0)
(10.1681 0.0484924 0)
(10.1737 0.0450501 0)
(10.1791 0.0414065 0)
(10.1839 0.0374399 0)
(10.1883 0.0328531 0)
(10.0032 0.0214514 0)
(10.0223 0.0479584 0)
(10.0428 0.0588231 0)
(10.0594 0.0647191 0)
(10.074 0.0678759 0)
(10.0873 0.0677671 0)
(10.0989 0.0656859 0)
(10.1082 0.0634615 0)
(10.1166 0.0618273 0)
(10.1251 0.0600624 0)
(10.1335 0.0570295 0)
(10.1408 0.0529953 0)
(10.1466 0.0489036 0)
(10.1518 0.0451952 0)
(10.1565 0.0415937 0)
(10.1608 0.0379098 0)
(10.1646 0.0340593 0)
(10.1678 0.0300629 0)
(10.0022 0.0178842 0)
(10.0177 0.04253 0)
(10.036 0.0534575 0)
(10.0517 0.0596601 0)
(10.0655 0.0630345 0)
(10.0781 0.0635978 0)
(10.0892 0.062316 0)
(10.0986 0.0604502 0)
(10.107 0.0587315 0)
(10.1152 0.0568115 0)
(10.123 0.0540034 0)
(10.1298 0.0504606 0)
(10.1355 0.0468213 0)
(10.1405 0.0433811 0)
(10.145 0.0399945 0)
(10.1491 0.036539 0)
(10.1525 0.0330053 0)
(10.1555 0.0294812 0)
(10.0016 0.0149205 0)
(10.0139 0.0372654 0)
(10.0299 0.0482632 0)
(10.0447 0.0547256 0)
(10.0578 0.058222 0)
(10.0698 0.0592238 0)
(10.0806 0.0584116 0)
(10.0898 0.0568448 0)
(10.0981 0.0551788 0)
(10.106 0.053223 0)
(10.1133 0.0505757 0)
(10.1198 0.0473885 0)
(10.1253 0.0440702 0)
(10.1302 0.0408176 0)
(10.1346 0.0375648 0)
(10.1385 0.0342661 0)
(10.1419 0.0309521 0)
(10.1448 0.0277489 0)
(10.0012 0.012478 0)
(10.0109 0.0325863 0)
(10.0247 0.0432033 0)
(10.0384 0.0496338 0)
(10.0508 0.0531529 0)
(10.0622 0.0544305 0)
(10.0726 0.0540965 0)
(10.0817 0.0529063 0)
(10.09 0.0513547 0)
(10.0976 0.0494551 0)
(10.1047 0.0470233 0)
(10.111 0.0441652 0)
(10.1166 0.041148 0)
(10.1215 0.038123 0)
(10.1259 0.0350724 0)
(10.1297 0.032 0)
(10.1331 0.0289544 0)
(10.1361 0.0260543 0)
(10.001 0.0104857 0)
(10.0087 0.0283743 0)
(10.0204 0.0382665 0)
(10.0328 0.0444756 0)
(10.0445 0.0480417 0)
(10.0553 0.0496023 0)
(10.0653 0.0496537 0)
(10.0744 0.0487623 0)
(10.0826 0.0473836 0)
(10.0901 0.0456029 0)
(10.0971 0.0433794 0)
(10.1033 0.0408002 0)
(10.1088 0.0380568 0)
(10.1138 0.035259 0)
(10.1182 0.0324289 0)
(10.1221 0.0295862 0)
(10.1255 0.0267852 0)
(10.1285 0.024132 0)
(10.0008 0.00881771 0)
(10.0069 0.024578 0)
(10.0169 0.0335988 0)
(10.028 0.0394712 0)
(10.0388 0.0429403 0)
(10.049 0.0446297 0)
(10.0587 0.0449482 0)
(10.0675 0.044327 0)
(10.0756 0.043148 0)
(10.0831 0.0415408 0)
(10.0899 0.0395369 0)
(10.0961 0.0372233 0)
(10.1016 0.0347244 0)
(10.1066 0.0321678 0)
(10.111 0.0295596 0)
(10.115 0.0269613 0)
(10.1184 0.0244035 0)
(10.1215 0.0219913 0)
(10.0006 0.00748057 0)
(10.0057 0.021305 0)
(10.0143 0.0294402 0)
(10.0243 0.034907 0)
(10.0342 0.0382237 0)
(10.0438 0.0399648 0)
(10.053 0.0404531 0)
(10.0616 0.040041 0)
(10.0695 0.0390369 0)
(10.0768 0.037605 0)
(10.0835 0.0358131 0)
(10.0895 0.0337169 0)
(10.095 0.0314738 0)
(10.1 0.029119 0)
(10.1045 0.0267526 0)
(10.1085 0.0243646 0)
(10.112 0.0220363 0)
(10.1152 0.0198083 0)
(10.0005 0.00634816 0)
(10.0048 0.0185463 0)
(10.0122 0.0257127 0)
(10.0212 0.0307027 0)
(10.0303 0.0338014 0)
(10.0393 0.0354823 0)
(10.048 0.036042 0)
(10.0562 0.0357536 0)
(10.0638 0.0348929 0)
(10.071 0.0336144 0)
(10.0775 0.0319858 0)
(10.0835 0.0300879 0)
(10.0889 0.0280425 0)
(10.0938 0.0258929 0)
(10.0982 0.0237223 0)
(10.1022 0.0215469 0)
(10.1058 0.0194024 0)
(10.109 0.0174045 0)
(10.0005 0.00523083 0)
(10.004 0.0156452 0)
(10.0103 0.0216903 0)
(10.0182 0.0260542 0)
(10.0265 0.0288075 0)
(10.0348 0.0303483 0)
(10.0429 0.0309015 0)
(10.0506 0.0307151 0)
(10.0579 0.0299774 0)
(10.0648 0.0288597 0)
(10.0711 0.0273917 0)
(10.0768 0.0257399 0)
(10.0821 0.0238922 0)
(10.087 0.0220118 0)
(10.0914 0.0200486 0)
(10.0953 0.0181267 0)
(10.0988 0.0162043 0)
(10.1021 0.0144355 0)
(10.0004 0.00412988 0)
(10.0033 0.012628 0)
(10.0087 0.0174269 0)
(10.0155 0.0210156 0)
(10.0229 0.0233167 0)
(10.0305 0.0246031 0)
(10.0379 0.0250849 0)
(10.0452 0.0249235 0)
(10.0521 0.024297 0)
(10.0585 0.0232891 0)
(10.0645 0.0220378 0)
(10.0701 0.0205678 0)
(10.0752 0.0190122 0)
(10.0799 0.0173479 0)
(10.0841 0.0156877 0)
(10.088 0.0139902 0)
(10.0915 0.0123664 0)
(10.0948 0.0108126 0)
(10.0003 0.00302676 0)
(10.0028 0.00953757 0)
(10.0073 0.0129731 0)
(10.0132 0.0156191 0)
(10.0198 0.0173286 0)
(10.0266 0.0182449 0)
(10.0334 0.0185563 0)
(10.0401 0.0183517 0)
(10.0466 0.0177748 0)
(10.0526 0.0168865 0)
(10.0583 0.0158106 0)
(10.0636 0.0145728 0)
(10.0685 0.0132682 0)
(10.073 0.0118856 0)
(10.0772 0.0104975 0)
(10.081 0.00909772 0)
(10.0845 0.00774079 0)
(10.0877 0.00647694 0)
(10.0003 0.00191508 0)
(10.0023 0.00635926 0)
(10.0062 0.00830671 0)
(10.0113 0.00984431 0)
(10.0172 0.0107775 0)
(10.0234 0.0112141 0)
(10.0296 0.0112236 0)
(10.0358 0.010917 0)
(10.0419 0.0103192 0)
(10.0476 0.00955416 0)
(10.053 0.00861811 0)
(10.0581 0.00763578 0)
(10.0628 0.00655405 0)
(10.0671 0.00548114 0)
(10.0712 0.00435698 0)
(10.0749 0.00328107 0)
(10.0783 0.00219252 0)
(10.0815 0.00122091 0)
(10.0002 0.0007513 0)
(10.0021 0.00300535 0)
(10.0055 0.00330611 0)
(10.0101 0.00353427 0)
(10.0155 0.00352918 0)
(10.0212 0.00331665 0)
(10.027 0.0029291 0)
(10.0329 0.00240438 0)
(10.0386 0.00176278 0)
(10.044 0.00104619 0)
(10.0492 0.000276351 0)
(10.0541 -0.000517856 0)
(10.0587 -0.00133164 0)
(10.0629 -0.00214377 0)
(10.0669 -0.00295277 0)
(10.0705 -0.00373977 0)
(10.0739 -0.00450555 0)
(10.0771 -0.00520817 0)
(10.0002 -0.000551432 0)
(10.002 -0.000786039 0)
(10.0053 -0.00235377 0)
(10.0098 -0.003637 0)
(10.015 -0.00476232 0)
(10.0206 -0.005751 0)
(10.0263 -0.0066553 0)
(10.032 -0.0074587 0)
(10.0376 -0.00821227 0)
(10.043 -0.00888778 0)
(10.0481 -0.0095324 0)
(10.0529 -0.0101181 0)
(10.0574 -0.0106848 0)
(10.0616 -0.0112049 0)
(10.0656 -0.0117104 0)
(10.0692 -0.012176 0)
(10.0726 -0.012624 0)
(10.0757 -0.0130185 0)
(10.0002 -0.00184752 0)
(10.0022 -0.00458826 0)
(10.0059 -0.00797998 0)
(10.0108 -0.0107065 0)
(10.0164 -0.0128619 0)
(10.0223 -0.0145871 0)
(10.0283 -0.0159313 0)
(10.0343 -0.0170048 0)
(10.0401 -0.0178056 0)
(10.0456 -0.018453 0)
(10.0508 -0.0189274 0)
(10.0557 -0.0193301 0)
(10.0603 -0.0196209 0)
(10.0646 -0.0198888 0)
(10.0686 -0.0200813 0)
(10.0722 -0.0202742 0)
(10.0757 -0.020405 0)
(10.0789 -0.0205373 0)
(10.0003 -0.00305758 0)
(10.0026 -0.00807714 0)
(10.007 -0.013064 0)
(10.0127 -0.0169501 0)
(10.019 -0.0198973 0)
(10.0254 -0.0221473 0)
(10.0319 -0.0237974 0)
(10.0382 -0.0249911 0)
(10.0443 -0.0257821 0)
(10.0501 -0.026318 0)
(10.0556 -0.0266164 0)
(10.0606 -0.0268004 0)
(10.0653 -0.0268509 0)
(10.0697 -0.0268694 0)
(10.0737 -0.0268128 0)
(10.0774 -0.0267557 0)
(10.0809 -0.0266459 0)
(10.0841 -0.0265364 0)
(10.0004 -0.00435396 0)
(10.0033 -0.0117708 0)
(10.0087 -0.0183047 0)
(10.0155 -0.0231489 0)
(10.0227 -0.0267447 0)
(10.0298 -0.0293808 0)
(10.0369 -0.0312441 0)
(10.0437 -0.032442 0)
(10.0502 -0.0331606 0)
(10.0563 -0.0334874 0)
(10.0619 -0.0335912 0)
(10.0671 -0.0334869 0)
(10.0719 -0.0333151 0)
(10.0763 -0.0330383 0)
(10.0803 -0.0327725 0)
(10.0841 -0.0324426 0)
(10.0875 -0.0321378 0)
(10.0907 -0.0317905 0)
(10.0006 -0.0057979 0)
(10.0043 -0.0159733 0)
(10.0113 -0.0239121 0)
(10.0194 -0.0295254 0)
(10.0274 -0.0335942 0)
(10.0352 -0.0364845 0)
(10.0429 -0.038385 0)
(10.0502 -0.0394912 0)
(10.057 -0.0400006 0)
(10.0633 -0.0400908 0)
(10.0691 -0.0398906 0)
(10.0743 -0.0395116 0)
(10.0792 -0.0390303 0)
(10.0835 -0.0385138 0)
(10.0875 -0.0379763 0)
(10.0912 -0.0374388 0)
(10.0946 -0.0368935 0)
(10.0978 -0.0363598 0)
(10.0007 -0.00752328 0)
(10.0061 -0.0205867 0)
(10.0149 -0.0298319 0)
(10.0241 -0.0359384 0)
(10.0328 -0.0401685 0)
(10.0413 -0.043184 0)
(10.0494 -0.0450923 0)
(10.0572 -0.0460563 0)
(10.0643 -0.0463471 0)
(10.0709 -0.0461833 0)
(10.0768 -0.0456949 0)
(10.0821 -0.0450326 0)
(10.0869 -0.0442647 0)
(10.0913 -0.0434919 0)
(10.0953 -0.0427164 0)
(10.0989 -0.0420126 0)
(10.1023 -0.0412834 0)
(10.1055 -0.0406686 0)
(10.0011 -0.00980825 0)
(10.0089 -0.0260975 0)
(10.0191 -0.0345202 0)
(10.0295 -0.0405552 0)
(10.0392 -0.0452293 0)
(10.0483 -0.0483442 0)
(10.0572 -0.0501771 0)
(10.0656 -0.0510351 0)
(10.0731 -0.0511715 0)
(10.08 -0.0508159 0)
(10.0861 -0.050126 0)
(10.0915 -0.0492254 0)
(10.0963 -0.0482257 0)
(10.1006 -0.0472021 0)
(10.1045 -0.0462346 0)
(10.108 -0.0453267 0)
(10.1113 -0.0444708 0)
(10.1145 -0.0437231 0)
(10.0016 -0.0130562 0)
(10.0132 -0.0307494 0)
(10.026 -0.0398095 0)
(10.0377 -0.0468642 0)
(10.0483 -0.0517473 0)
(10.0581 -0.0546936 0)
(10.0676 -0.0561317 0)
(10.0765 -0.0565144 0)
(10.0845 -0.0561712 0)
(10.0916 -0.0553702 0)
(10.0979 -0.0542973 0)
(10.1034 -0.0531057 0)
(10.1082 -0.0518787 0)
(10.1125 -0.0507154 0)
(10.1162 -0.0496642 0)
(10.1197 -0.0487373 0)
(10.123 -0.0479128 0)
(10.1261 -0.0471094 0)
(9.99968 -0.0173171 0)
(10.0195 -0.0355823 0)
(10.0368 -0.0456202 0)
(10.0467 -0.0526454 0)
(10.0576 -0.0581114 0)
(10.0689 -0.0612752 0)
(10.0799 -0.0625338 0)
(10.0903 -0.0624722 0)
(10.0999 -0.0614529 0)
(10.1087 -0.0598483 0)
(10.1167 -0.0579065 0)
(10.1241 -0.0558368 0)
(10.1309 -0.053879 0)
(10.1371 -0.0521282 0)
(10.1428 -0.0506918 0)
(10.1482 -0.0495445 0)
(10.1536 -0.0485444 0)
(10.1585 -0.047607 0)
(10.0018 -0.0271204 0)
(10.0282 -0.0461683 0)
(10.0532 -0.0491888 0)
(10.0797 -0.0538846 0)
(10.1069 -0.0601427 0)
(10.1348 -0.0639792 0)
(10.163 -0.0659784 0)
(10.1906 -0.0669692 0)
(10.2161 -0.0670703 0)
(10.2391 -0.066334 0)
(10.2598 -0.0651034 0)
(10.2777 -0.0636236 0)
(10.2931 -0.06209 0)
(10.3063 -0.0606725 0)
(10.3175 -0.0594791 0)
(10.3271 -0.0585886 0)
(10.3354 -0.0579368 0)
(10.3423 -0.0577213 0)
(10.0588 -0.0379052 0)
(10.1793 -0.0679039 0)
(10.2875 -0.0766463 0)
(10.366 -0.0809857 0)
(10.4201 -0.0838615 0)
(10.4556 -0.0847793 0)
(10.4726 -0.0843699 0)
(10.4703 -0.0828596 0)
(10.4566 -0.0800784 0)
(10.4349 -0.0769241 0)
(10.4024 -0.0735617 0)
(10.3654 -0.0696885 0)
(10.3262 -0.0659406 0)
(10.2848 -0.0625161 0)
(10.2426 -0.0596505 0)
(10.1994 -0.0573515 0)
(10.1571 -0.0554215 0)
(10.1165 -0.0543706 0)
(9.86221 -0.0375041 0)
(9.60024 -0.0744467 0)
(9.30194 -0.0883416 0)
(8.99755 -0.0929848 0)
(8.70181 -0.0925237 0)
(8.42767 -0.0883001 0)
(8.17828 -0.0814364 0)
(7.95762 -0.0737963 0)
(7.75978 -0.0662483 0)
(7.58382 -0.0579726 0)
(7.43489 -0.0500675 0)
(7.30511 -0.0432787 0)
(7.19127 -0.0370011 0)
(7.09251 -0.0312928 0)
(7.0053 -0.0262087 0)
(6.92904 -0.0221416 0)
(6.85955 -0.0192472 0)
(6.79686 -0.0176989 0)
(-0.00262553 0.00676287 -1.00746e-18)
(-0.0120647 0.011417 1.1188e-18)
(-0.025121 0.0124314 0)
(-0.0383773 0.010759 0)
(-0.0477363 0.00561212 0)
(-0.0463912 -0.00317989 -8.02252e-19)
(-0.0313552 -0.0153009 0)
(-0.0054292 -0.0280158 0)
(0.0286192 -0.0376733 0)
(0.0679436 -0.0426026 0)
(0.109458 -0.0432385 4.15067e-19)
(0.150021 -0.0406756 0)
(0.187071 -0.0359222 0)
(0.218998 -0.0297571 0)
(0.244946 -0.0227281 0)
(0.2645 -0.0151818 2.35522e-19)
(0.277357 -0.00731402 0)
(0.283633 0.000902014 0)
(0.28252 0.00941119 0)
(0.273925 0.0178227 0)
(0.258377 0.0254947 0)
(0.236481 0.0316983 0)
(0.209011 0.0357538 0)
(0.177148 0.0370685 3.17579e-19)
(0.142497 0.035193 -3.68839e-19)
(0.107104 0.0299769 4.43791e-19)
(0.0732807 0.0218102 5.54959e-19)
(0.0434501 0.0119014 0)
(0.0196465 0.00248705 0)
(0.00273565 -0.00397396 -1.26942e-18)
(-0.00821362 -0.00703028 -1.35164e-18)
(-0.0145834 -0.00860267 0)
(-0.0163132 -0.0102192 0)
(-0.0121893 -0.0128446 -1.28098e-18)
(-0.00220124 -0.0169125 0)
(0.0151404 -0.0225989 0)
(0.0392494 -0.0280431 7.92025e-19)
(0.0683391 -0.03141 0)
(0.0979571 -0.0308453 4.84321e-19)
(0.123549 -0.026369 8.44459e-19)
(0.141657 -0.0194779 0)
(0.151252 -0.012412 0)
(0.153827 -0.0070266 0)
(0.151994 -0.00419225 0)
(0.148662 -0.00448442 0)
(0.145724 -0.00887234 7.86882e-19)
(0.141718 -0.0172555 7.96671e-19)
(0.131447 -0.0254024 8.15905e-19)
(0.108179 -0.0239188 0)
(0.0671866 -0.00703273 -1.02579e-18)
(-0.00283542 0.0150115 0)
(-0.0975662 0.0360748 5.91919e-19)
(-0.201142 0.0601935 3.84108e-19)
(-0.316514 0.0831339 0)
(-0.443081 0.0924371 0)
(-0.577517 0.0967627 0)
(-0.708937 0.105766 1.65205e-19)
(-0.838223 0.113565 0)
(-0.964887 0.111654 0)
(-1.08618 0.104462 0)
(-1.19903 0.0969703 0)
(-1.30408 0.0875442 0)
(-1.40127 0.0799489 0)
(-1.49066 0.0730614 0)
(-1.57316 0.0656741 0)
(-1.64897 0.0603632 -9.18543e-20)
(-1.71929 0.0558661 0)
(-1.78465 0.0513743 0)
(-1.84553 0.0475821 8.44718e-20)
(-1.9025 0.0442175 8.25666e-20)
(-1.95604 0.0412755 0)
(-2.00656 0.0386703 -7.93048e-20)
(-2.05437 0.0363489 7.78852e-20)
(-2.09976 0.0342428 0)
(-2.14294 0.0323292 -7.5366e-20)
(-2.18409 0.0305474 0)
(-2.22333 0.0288931 0)
(-2.26077 0.0273176 7.21809e-20)
(-2.29646 0.0258319 0)
(-2.3305 0.0243839 -7.0338e-20)
(-2.36291 0.0229971 0)
(-2.39374 0.0216288 6.86521e-20)
(-2.423 0.0203078 6.78516e-20)
(-2.45072 0.0189863 6.70736e-20)
(-2.47693 0.0176974 1.32617e-19)
(-2.50162 0.0164017 -1.31105e-19)
(-2.52479 0.0151281 0)
(-2.54642 0.0138469 0)
(-2.56652 0.0125803 0)
(-2.58506 0.0113155 -1.25048e-19)
(-2.60204 0.0100712 -1.23512e-19)
(-2.6175 0.0088277 1.21956e-19)
(-2.63139 0.00760218 0)
(-2.64369 0.00637345 -1.18767e-19)
(-2.65437 0.00515572 -1.17128e-19)
(-2.6634 0.00392533 -1.15459e-19)
(-2.67076 0.00270141 0)
(-2.67638 0.00148093 0)
(-2.68023 0.000347413 0)
(-2.68229 -0.000601911 -1.08438e-19)
(-2.68311 -0.00139009 0)
(-2.68265 -0.00211111 0)
(-2.68094 -0.00276966 1.02611e-19)
(-2.67802 -0.00337412 0)
(-2.67393 -0.00396455 0)
(-2.66873 -0.00451875 9.6331e-20)
(-2.66246 -0.00506963 0)
(-2.65514 -0.00558472 0)
(-2.64682 -0.00609722 -8.96442e-20)
(-2.63751 -0.00657129 -8.73301e-20)
(-2.62723 -0.00704254 0)
(-2.61598 -0.0074753 8.25779e-20)
(-2.6038 -0.00790584 0)
(-2.59068 -0.00830014 -7.76669e-20)
(-2.57666 -0.00869291 0)
(-2.56174 -0.00905239 -7.26067e-20)
(-2.54593 -0.00940919 -7.00231e-20)
(-2.52924 -0.00973846 0)
(-2.51169 -0.0100685 0)
(-2.49327 -0.0103847 0)
(-2.47397 -0.0107033 0)
(-2.45377 -0.0110122 0)
(-2.43268 -0.0113192 0)
(-2.41071 -0.0116173 0)
(-2.38787 -0.0119141 -4.79141e-20)
(-2.36416 -0.0122091 4.49559e-20)
(-2.33956 -0.0125041 0)
(-2.31406 -0.0128075 0)
(-2.28765 -0.0131156 0)
(-2.2603 -0.0134453 0)
(-2.23199 -0.0137779 5.86093e-20)
(-2.20272 -0.0141163 0)
(-2.17247 -0.0144388 -4.5109e-20)
(-2.14122 -0.0147668 3.81064e-20)
(-2.10898 -0.0150515 0)
(-2.07572 -0.015295 0)
(-2.04151 -0.0153807 0)
(-2.00635 -0.0152653 -8.10483e-21)
(-1.97025 -0.0151162 -3.55321e-23)
(-1.93307 -0.015331 0)
(-1.89479 -0.0157263 1.6929e-20)
(-1.85551 -0.0160848 2.58733e-20)
(-1.81526 -0.0164651 -3.51622e-20)
(-1.77404 -0.0168543 0)
(-1.73186 -0.0172442 0)
(-1.68871 -0.0176397 -6.53975e-20)
(-1.64461 -0.0180348 0)
(-1.59958 -0.0184303 0)
(-1.55363 -0.0188257 0)
(-1.50681 -0.0192147 0)
(-1.4591 -0.0196026 1.25686e-19)
(-1.41057 -0.0199804 1.39587e-19)
(-1.36121 -0.0203546 0)
(-1.31109 -0.0207142 1.69563e-19)
(-1.26021 -0.0210693 0)
(-1.20866 -0.0214071 0)
(-1.15642 -0.021742 2.2083e-19)
(-1.10358 -0.0220685 0)
(-1.05015 -0.0223841 2.6002e-19)
(-0.996158 -0.0227005 0)
(-0.941643 -0.0230144 0)
(-0.886621 -0.0233271 3.27958e-19)
(-0.831117 -0.0236445 0)
(-0.775147 -0.0239638 3.80745e-19)
(-0.718731 -0.0242895 0)
(-0.661888 -0.024618 0)
(-0.60464 -0.024954 0)
(-0.547008 -0.0252957 -5.10596e-19)
(-0.489016 -0.0256493 0)
(-0.430681 -0.0260121 5.91898e-19)
(-0.372026 -0.0263897 0)
(-0.31308 -0.0267761 0)
(-0.253899 -0.0271706 0)
(-0.194562 -0.0275662 0)
(-0.135229 -0.0279154 0)
(-0.0762379 -0.0280663 0)
(-0.0178267 -0.027652 0)
(0.0368341 -0.0259208 -2.04912e-18)
(0.0970405 -0.0227618 0)
(0.115248 -0.0104014 0)
(-0.00070581 0.0187694 3.06799e-18)
(-0.00611353 0.0342247 -3.46808e-18)
(-0.0129708 0.0346918 0)
(-0.0135492 0.0253165 2.48447e-18)
(-0.000194634 0.00379602 0)
(0.028411 -0.0317609 7.34879e-19)
(0.066484 -0.0708584 -9.35954e-19)
(0.109853 -0.102817 -6.71963e-19)
(0.154708 -0.12259 0)
(0.197779 -0.129821 -4.40838e-19)
(0.237033 -0.126878 -1.92869e-19)
(0.27154 -0.116882 0)
(0.300951 -0.102542 0)
(0.325269 -0.0858356 0)
(0.344678 -0.0680595 0)
(0.359471 -0.0499772 -1.48756e-19)
(0.370016 -0.0319466 0)
(0.376496 -0.0141338 3.01293e-19)
(0.379746 0.00347762 0)
(0.379848 0.0208093 0)
(0.376498 0.0375781 -3.10983e-19)
(0.369237 0.0533587 0)
(0.357539 0.0675119 3.29645e-19)
(0.340902 0.0791623 -1.71941e-19)
(0.319025 0.0872884 1.82076e-19)
(0.291944 0.0908295 -1.96103e-19)
(0.260249 0.0889465 -2.15724e-19)
(0.225211 0.0813962 0)
(0.188804 0.0688376 0)
(0.153599 0.0527692 3.35232e-19)
(0.122548 0.0348623 -4.04847e-19)
(0.0987275 0.0163109 0)
(0.0847423 -0.00252403 0)
(0.0817144 -0.0213382 5.83612e-19)
(0.0895943 -0.039662 0)
(0.106015 -0.0575541 0)
(0.126784 -0.071365 -3.51397e-19)
(0.146173 -0.0750645 0)
(0.159409 -0.0669601 2.60996e-19)
(0.164791 -0.0505684 -4.99287e-19)
(0.162161 -0.0310482 0)
(0.152277 -0.0141154 0)
(0.135914 -0.00319841 -1.1929e-18)
(0.112566 0.00314467 -1.30694e-18)
(0.0770084 0.00976977 -1.49309e-18)
(0.0216115 0.023588 8.40022e-19)
(-0.0662603 0.0527406 -6.43449e-19)
(-0.181649 0.0931922 -1.20986e-18)
(-0.309868 0.136355 5.53733e-19)
(-0.445177 0.178246 2.05035e-19)
(-0.587167 0.213947 0)
(-0.731115 0.241093 -1.33712e-19)
(-0.872435 0.260379 1.15301e-19)
(-1.00881 0.271838 0)
(-1.13878 0.274616 0)
(-1.2588 0.268949 0)
(-1.36761 0.257769 -7.93404e-20)
(-1.46479 0.243161 0)
(-1.55179 0.226281 1.43776e-19)
(-1.62863 0.208363 0)
(-1.69711 0.190878 1.33679e-19)
(-1.75849 0.17403 0)
(-1.81353 0.15842 -1.267e-19)
(-1.86381 0.144365 0)
(-1.90997 0.1318 1.21074e-19)
(-1.95285 0.120804 -5.93718e-20)
(-1.993 0.111183 0)
(-2.03077 0.102781 -1.14323e-19)
(-2.0666 0.0954534 -5.62196e-20)
(-2.10071 0.0890297 -5.53528e-20)
(-2.13327 0.0833581 0)
(-2.16442 0.0782999 -5.36748e-20)
(-2.19425 0.0737472 -5.30437e-20)
(-2.22282 0.069592 0)
(-2.25019 0.0657711 5.16829e-20)
(-2.27639 0.0622007 -1.01951e-19)
(-2.30145 0.0588556 0)
(-2.32538 0.0556698 -4.98395e-20)
(-2.34817 0.0526405 0)
(-2.36984 0.0497044 1.45989e-19)
(-2.39038 0.0468807 0)
(-2.40979 0.0441182 -1.42768e-19)
(-2.42807 0.0414446 -4.71025e-20)
(-2.4452 0.0388061 4.64809e-20)
(-2.46119 0.0362351 9.19448e-20)
(-2.47602 0.0336827 -9.09253e-20)
(-2.48967 0.0311725 0)
(-2.50214 0.0286705 0)
(-2.51344 0.0261888 0)
(-2.52356 0.0237267 2.60156e-19)
(-2.53253 0.0212965 8.55881e-20)
(-2.54037 0.0188925 -8.44264e-20)
(-2.54708 0.0165339 0)
(-2.55267 0.0141998 -8.21048e-20)
(-2.55715 0.0119138 8.07613e-20)
(-2.5606 0.00965192 7.94791e-20)
(-2.56308 0.00744827 0)
(-2.56467 0.00529377 0)
(-2.5655 0.00326356 0)
(-2.56563 0.00140331 7.39911e-20)
(-2.56465 -0.00029338 0)
(-2.56251 -0.00190817 -1.42185e-19)
(-2.55919 -0.00344684 -2.08543e-19)
(-2.55471 -0.0049142 1.35957e-19)
(-2.5491 -0.00633913 0)
(-2.54241 -0.00770737 6.48841e-20)
(-2.53467 -0.00905074 0)
(-2.52592 -0.0103401 1.22822e-19)
(-2.51617 -0.0116052 -5.98671e-20)
(-2.50544 -0.0128116 -5.81479e-20)
(-2.49374 -0.0139931 0)
(-2.4811 -0.0151157 -1.6322e-19)
(-2.46751 -0.0162161 1.05358e-19)
(-2.45301 -0.0172618 5.06872e-20)
(-2.4376 -0.0182889 0)
(-2.42129 -0.0192644 4.7023e-20)
(-2.40409 -0.0202187 1.35908e-19)
(-2.38601 -0.0211254 0)
(-2.36706 -0.0220166 8.32559e-20)
(-2.34722 -0.022879 7.94695e-20)
(-2.32649 -0.0237367 7.56517e-20)
(-2.30486 -0.0245753 0)
(-2.28234 -0.0254065 0)
(-2.25892 -0.0262198 0)
(-2.23462 -0.0270249 -3.02797e-20)
(-2.20942 -0.0278181 -2.78507e-20)
(-2.18332 -0.0286033 0)
(-2.1563 -0.0293842 -4.81445e-20)
(-2.12835 -0.0301552 -4.40806e-20)
(-2.09945 -0.0309263 0)
(-2.06961 -0.0316827 -3.53282e-20)
(-2.0388 -0.0324414 -6.32343e-20)
(-2.00702 -0.0331827 2.68483e-20)
(-1.97424 -0.0339317 2.35577e-20)
(-1.94047 -0.0346537 0)
(-1.90568 -0.035395 0)
(-1.86986 -0.0361278 0)
(-1.83296 -0.0368797 4.51971e-21)
(-1.79492 -0.0376166 -9.49509e-22)
(-1.7558 -0.0383334 8.76902e-21)
(-1.71567 -0.0390071 -9.83707e-21)
(-1.67456 -0.039661 1.35886e-20)
(-1.63247 -0.0403118 1.98937e-20)
(-1.5894 -0.0409501 0)
(-1.54536 -0.0415717 0)
(-1.50035 -0.0421708 -3.4507e-20)
(-1.45438 -0.0427434 0)
(-1.40749 -0.0432867 0)
(-1.35968 -0.0438027 1.04779e-19)
(-1.31099 -0.0442851 0)
(-1.26142 -0.0447347 6.38746e-20)
(-1.21104 -0.0451481 -7.18507e-20)
(-1.15983 -0.0455236 0)
(-1.10787 -0.0458574 8.35567e-20)
(-1.05517 -0.0461492 0)
(-1.00178 -0.046398 0)
(-0.947735 -0.0466048 -1.06685e-19)
(-0.893088 -0.0467806 2.26712e-19)
(-0.837862 -0.0469149 -1.22014e-19)
(-0.782092 -0.0470251 0)
(-0.725815 -0.04711 0)
(-0.66905 -0.0471745 1.44637e-19)
(-0.611823 -0.0472227 0)
(-0.55415 -0.0472574 1.61988e-19)
(-0.496049 -0.0472786 0)
(-0.437536 -0.0472868 0)
(-0.378633 -0.0472805 0)
(-0.319358 -0.0472615 2.01387e-19)
(-0.259731 -0.0472324 0)
(-0.199768 -0.047192 -2.21541e-19)
(-0.139489 -0.0471405 0)
(-0.0789193 -0.0470711 0)
(-0.0180892 -0.046963 5.02639e-19)
(0.0429721 -0.0467696 -5.12292e-19)
(0.104117 -0.0464215 0)
(0.165001 -0.0457833 0)
(0.225524 -0.0445686 0)
(0.283413 -0.0422598 1.57053e-18)
(0.34384 -0.037986 0)
(0.382059 -0.025349 -1.08676e-18)
(-5.89303e-05 0.0219926 3.38012e-22)
(-8.60649e-05 0.0390986 4.85813e-18)
(0.00503955 0.0309169 0)
(0.0246732 -0.00274553 -3.33575e-18)
(0.0629465 -0.0606506 0)
(0.112376 -0.123419 0)
(0.163282 -0.172933 -4.05065e-22)
(0.209169 -0.201436 3.87581e-19)
(0.247461 -0.209768 3.33234e-19)
(0.278033 -0.202716 2.97579e-19)
(0.301946 -0.185674 0)
(0.320538 -0.163082 0)
(0.334955 -0.137983 -2.47133e-19)
(0.346029 -0.112213 -4.79828e-19)
(0.354308 -0.0867664 4.7192e-19)
(0.360173 -0.062123 0)
(0.363888 -0.0384606 4.72353e-19)
(0.365641 -0.0158426 -2.39316e-19)
(0.365649 0.00575764 0)
(0.364247 0.0264578 4.88954e-19)
(0.361671 0.0464152 2.47808e-19)
(0.358106 0.0656297 -5.09383e-19)
(0.353558 0.0838547 -2.63464e-19)
(0.347723 0.100516 0)
(0.340025 0.114701 5.77459e-19)
(0.329672 0.125186 6.0892e-19)
(0.31585 0.130605 0)
(0.29803 0.129725 6.94597e-19)
(0.276379 0.121811 0)
(0.252001 0.106885 8.359e-19)
(0.226998 0.0857018 4.69893e-19)
(0.204058 0.0595004 0)
(0.18594 0.0296317 0)
(0.174213 -0.00257135 0)
(0.168925 -0.0354627 0)
(0.166718 -0.0639981 0)
(0.160619 -0.0783568 0)
(0.145782 -0.0731629 8.18703e-19)
(0.123472 -0.0528649 -1.16307e-18)
(0.0944821 -0.0248218 0)
(0.0584923 0.00662879 0)
(0.013106 0.0373993 0)
(-0.0509113 0.0657752 6.90132e-22)
(-0.138597 0.101661 7.15223e-19)
(-0.245925 0.148538 1.06119e-18)
(-0.369753 0.20121 -8.12573e-19)
(-0.504835 0.255135 -3.23006e-19)
(-0.643929 0.306591 2.6493e-19)
(-0.78086 0.35084 4.37927e-22)
(-0.911302 0.386033 1.96634e-19)
(-1.03151 0.411098 0)
(-1.13963 0.424984 1.58759e-19)
(-1.23508 0.428299 1.08567e-21)
(-1.31748 0.422013 0)
(-1.38803 0.407108 0)
(-1.44852 0.385668 -1.21815e-19)
(-1.50122 0.36062 0)
(-1.54777 0.333806 0)
(-1.5898 0.306415 1.08129e-19)
(-1.62868 0.279663 2.07336e-19)
(-1.6656 0.254741 -9.99926e-20)
(-1.70114 0.231989 0)
(-1.73566 0.211615 9.49728e-20)
(-1.76939 0.193685 0)
(-1.80243 0.177945 9.10972e-20)
(-1.83476 0.164277 8.88364e-20)
(-1.86634 0.152394 -1.74234e-19)
(-1.89717 0.141976 -8.5448e-20)
(-1.92725 0.132818 0)
(-1.95653 0.124693 1.64785e-19)
(-1.98501 0.11741 0)
(-2.01267 0.110811 2.39157e-19)
(-2.03948 0.104763 1.56883e-19)
(-2.06544 0.0991557 1.54502e-19)
(-2.09052 0.0939045 -1.52226e-19)
(-2.11472 0.0889341 2.25185e-19)
(-2.13802 0.0841976 0)
(-2.16039 0.079642 0)
(-2.18181 0.0752405 -1.4398e-19)
(-2.20227 0.0709539 -2.13238e-19)
(-2.22175 0.0667744 0)
(-2.24023 0.0626742 6.93152e-20)
(-2.25768 0.0586541 0)
(-2.27411 0.054692 -2.02455e-19)
(-2.28948 0.050794 -1.37674e-22)
(-2.30379 0.0469404 1.15016e-22)
(-2.31701 0.0431346 1.29705e-19)
(-2.32913 0.0393627 0)
(-2.34015 0.0356257 -1.26168e-19)
(-2.35008 0.0319342 -1.27373e-23)
(-2.35892 0.0282933 0)
(-2.36669 0.0247192 0)
(-2.37338 0.021212 0)
(-2.37899 0.0177869 1.16758e-19)
(-2.38354 0.0144463 0)
(-2.38704 0.0112078 0)
(-2.38953 0.00808281 0)
(-2.391 0.00509136 0)
(-2.39144 0.0022387 0)
(-2.39082 -0.000509069 1.0418e-19)
(-2.38909 -0.00317132 0)
(-2.38623 -0.00573875 9.93829e-20)
(-2.38224 -0.00819914 9.69997e-20)
(-2.37715 -0.01057 -9.45815e-20)
(-2.37098 -0.0128557 0)
(-2.36378 -0.0150743 -8.96532e-20)
(-2.35556 -0.0172231 0)
(-2.34636 -0.0193086 -8.46198e-20)
(-2.3362 -0.0213235 8.20683e-20)
(-2.32508 -0.0232717 2.38973e-19)
(-2.31302 -0.0251491 0)
(-2.30004 -0.0269605 2.2341e-19)
(-2.28615 -0.0287064 7.22009e-20)
(-2.27136 -0.0303919 0)
(-2.25568 -0.03202 1.3334e-19)
(-2.23912 -0.0335928 1.28043e-19)
(-2.2217 -0.0351133 -1.83812e-19)
(-2.20341 -0.0365833 0)
(-2.18424 -0.038013 -5.57404e-20)
(-2.16421 -0.0394082 -5.30573e-20)
(-2.14329 -0.0407811 -1.51699e-19)
(-2.12149 -0.0421307 0)
(-2.09881 -0.0434621 0)
(-2.07525 -0.044773 0)
(-2.0508 -0.0460684 -4.01984e-20)
(-2.02546 -0.0473473 0)
(-1.99922 -0.0486149 0)
(-1.97205 -0.0498709 3.13882e-20)
(-1.94395 -0.0511177 2.86475e-20)
(-1.91491 -0.0523549 0)
(-1.88492 -0.0535808 0)
(-1.85395 -0.0547945 4.06902e-20)
(-1.82202 -0.0559928 0)
(-1.78908 -0.0571763 -2.9446e-20)
(-1.75515 -0.0583328 -2.45236e-20)
(-1.72021 -0.059467 0)
(-1.68424 -0.0605658 0)
(-1.64721 -0.061629 7.2048e-21)
(-1.6091 -0.0626737 -8.36852e-22)
(-1.56995 -0.0637166 -8.59513e-22)
(-1.5298 -0.0647471 0)
(-1.48867 -0.0657586 -3.42919e-20)
(-1.44656 -0.066756 0)
(-1.40348 -0.0677279 0)
(-1.35943 -0.0686649 0)
(-1.31442 -0.0695609 4.28501e-20)
(-1.26847 -0.0704085 0)
(-1.2216 -0.0712054 -1.10082e-19)
(-1.17384 -0.0719481 -6.28729e-20)
(-1.1252 -0.0726359 0)
(-1.07572 -0.0732623 -7.68001e-20)
(-1.02542 -0.0738298 0)
(-0.974335 -0.074328 0)
(-0.922498 -0.0747595 -2.935e-19)
(-0.869956 -0.0751142 2.09853e-19)
(-0.816737 -0.0754002 0)
(-0.762891 -0.0756109 2.40549e-19)
(-0.708456 -0.0757643 -1.29354e-19)
(-0.653466 -0.0758511 0)
(-0.597959 -0.0758891 0)
(-0.541964 -0.0758799 0)
(-0.485509 -0.0758323 -4.82896e-19)
(-0.428615 -0.0757504 0)
(-0.371301 -0.0756403 -1.78566e-19)
(-0.313583 -0.0755008 0)
(-0.255476 -0.0753332 0)
(-0.196999 -0.0751341 0)
(-0.138167 -0.0749054 0)
(-0.0789988 -0.0746495 0)
(-0.0195046 -0.0743689 0)
(0.040314 -0.0740613 -4.69038e-19)
(0.100428 -0.0737131 0)
(0.160788 -0.0732921 -2.43956e-19)
(0.221324 -0.0727271 7.40667e-19)
(0.281933 -0.0719213 0)
(0.342381 -0.0707098 0)
(0.402653 -0.068801 -5.14568e-19)
(0.461157 -0.0656776 -5.2457e-19)
(0.521878 -0.0603513 5.32086e-19)
(0.569688 -0.0473937 5.48807e-19)
(-0.00103669 0.0224125 -6.14468e-18)
(0.0017661 0.0273381 -7.63234e-18)
(0.0227657 -0.0147316 -3.31356e-18)
(0.0686132 -0.0955919 -8.86411e-19)
(0.12686 -0.180101 0)
(0.182253 -0.241556 8.28296e-19)
(0.226067 -0.271796 -3.36954e-19)
(0.256901 -0.275427 0)
(0.277207 -0.261335 -2.60544e-19)
(0.290325 -0.237468 0)
(0.299 -0.20912 4.52619e-19)
(0.305011 -0.179274 0)
(0.309333 -0.149435 2.08463e-19)
(0.312431 -0.120298 4.0858e-19)
(0.314481 -0.0921624 -4.04994e-19)
(0.31553 -0.0651549 0)
(0.315589 -0.039319 -4.104e-19)
(0.314669 -0.0146782 0)
(0.312813 0.00875941 0)
(0.31012 0.0310209 -4.27999e-19)
(0.306695 0.0521607 0)
(0.302737 0.0722053 -6.70444e-22)
(0.298463 0.0911081 0)
(0.294012 0.108635 0)
(0.289368 0.124316 5.43662e-22)
(0.284293 0.137345 -5.3658e-19)
(0.278303 0.146547 -5.73452e-19)
(0.270709 0.150464 -6.14726e-19)
(0.260836 0.147582 0)
(0.248332 0.136673 -1.44337e-18)
(0.233455 0.117126 0)
(0.217126 0.0892938 -8.91667e-19)
(0.200693 0.0546475 0)
(0.185018 0.0158688 0)
(0.167175 -0.0203904 1.07128e-18)
(0.1401 -0.0415743 0)
(0.10169 -0.0396276 -8.28568e-19)
(0.0538504 -0.0184696 -7.19991e-22)
(-0.00246543 0.0161479 1.52081e-18)
(-0.0703722 0.0596513 -1.33578e-18)
(-0.153223 0.110618 0)
(-0.250204 0.16749 0)
(-0.361323 0.226791 -3.59414e-19)
(-0.483262 0.287404 0)
(-0.610313 0.348285 -2.4886e-19)
(-0.736936 0.40563 2.13189e-19)
(-0.857969 0.454202 1.87038e-19)
(-0.968431 0.491604 0)
(-1.06594 0.517546 -1.50553e-19)
(-1.14969 0.531809 -1.37888e-19)
(-1.21939 0.535062 2.56663e-19)
(-1.27645 0.528427 -1.18899e-19)
(-1.32274 0.513447 -1.11734e-19)
(-1.36045 0.491827 0)
(-1.3921 0.465213 0)