/*--------------------------------*- C++ -*----------------------------------*\
  =========                 |
  \\      /  F ield         | OpenFOAM: The Open Source CFD Toolbox
   \\    /   O peration     | Website:  https://openfoam.org
    \\  /    A nd           | Version:  13
     \\/     M anipulation  |
\*---------------------------------------------------------------------------*/
FoamFile
{
    format      ascii;
    class       volScalarField;
    location    "5";
    object      epsilon;
}
// * * * * * * * * * * * * * * * * * * * * * * * * * * * * * * * * * * * * * //

dimensions      [0 2 -3 0 0 0 0];

internalField   nonuniform List<scalar> 
6400
(
2.36289e-05
0.000121117
0.000292007
0.000471114
0.000608634
0.000688303
0.000719854
0.000725749
0.00073155
0.000759104
0.000824425
0.000950399
0.00115015
0.00142865
0.00177411
0.00216915
0.00259557
0.0030444
0.0034986
0.0039432
0.00438608
0.00486034
0.005413
0.00608441
0.00686615
0.0076895
0.00850481
0.00931457
0.0101371
0.0109923
0.0118785
0.0127618
0.0136308
0.0144767
0.015324
0.0161793
0.0170614
0.0179789
0.0189436
0.0199622
0.0210408
0.0221873
0.0234089
0.0247176
0.0261208
0.0276472
0.0293585
0.0313883
0.0338746
0.0362149
0.0386548
0.0409962
0.0432624
0.0453475
0.0471961
0.0487164
0.0497203
0.0501943
0.0503471
0.0497793
0.0483741
0.0462014
0.0432764
0.039663
0.035504
0.0309314
0.0262432
0.0216219
0.0172465
0.0132337
0.0100282
0.00732663
0.00512755
0.00343346
0.00220777
0.00136822
0.000818816
0.000465395
0.000217969
4.62653e-05
0.000114618
0.000113263
0.000184496
0.000267997
0.000332036
0.000371976
0.000392657
0.000402827
0.000413347
0.000436136
0.000483189
0.000570651
0.000713023
0.000921479
0.00120033
0.00155181
0.00197869
0.0024874
0.00308389
0.00377586
0.00457186
0.00549552
0.00659452
0.00790106
0.00941466
0.011138
0.0129921
0.014824
0.0165358
0.0180359
0.0192178
0.0201382
0.020795
0.0212486
0.0215485
0.0217412
0.0218715
0.0219716
0.022069
0.0221812
0.0223295
0.022526
0.0227803
0.0230687
0.0233968
0.0237849
0.0242676
0.0248169
0.0254509
0.0261301
0.0268483
0.0275841
0.0283044
0.0289816
0.0295688
0.0299798
0.0301567
0.0301743
0.0299188
0.0293347
0.0283574
0.027023
0.0252884
0.0232114
0.0208659
0.018347
0.0157729
0.0132642
0.0109099
0.00878014
0.00699872
0.00547502
0.00417101
0.00306387
0.00214965
0.00141499
0.000864129
0.000483852
0.000249692
0.000244322
0.000251237
0.000205134
0.000273386
0.000345415
0.00039031
0.000413941
0.000427231
0.000441556
0.000469572
0.000526406
0.000631741
0.000809578
0.00108384
0.00147282
0.00198844
0.00264394
0.00345183
0.00442677
0.00557923
0.00691588
0.00844179
0.0101395
0.0119429
0.0137339
0.0153541
0.016607
0.0173911
0.0178578
0.0181044
0.0182588
0.0183653
0.0183736
0.018144
0.017879
0.0176012
0.0173441
0.0171287
0.0169746
0.0169015
0.0168807
0.0169375
0.0170861
0.0173088
0.0176406
0.0180782
0.0186139
0.019226
0.0199146
0.0206747
0.0214975
0.02237
0.0232781
0.024199
0.0251064
0.0259629
0.0267259
0.0273506
0.0277162
0.0278371
0.0276913
0.0271399
0.0261544
0.0247065
0.0228686
0.0207156
0.0183434
0.0158738
0.0134202
0.0110913
0.0089747
0.00713832
0.00558905
0.00430875
0.00326164
0.00240979
0.00172543
0.00117157
0.00073267
0.000453382
0.000649042
0.000436235
0.000354
0.000433088
0.000503922
0.000541947
0.000562117
0.000581348
0.000617
0.000688775
0.000822387
0.00105171
0.00141355
0.00193998
0.00265253
0.0035635
0.00467924
0.00600391
0.00752454
0.00919964
0.0109529
0.0126714
0.0142207
0.0154694
0.0162388
0.0165899
0.0167055
0.016726
0.0164852
0.0160397
0.0155116
0.0149073
0.0144043
0.0140032
0.0136829
0.0134258
0.0132509
0.0131662
0.0131392
0.0131812
0.0133144
0.0135188
0.0138027
0.0141615
0.0146004
0.0151155
0.0157071
0.0163749
0.0171196
0.0179401
0.0188344
0.0197964
0.0208166
0.0218798
0.0229646
0.0240396
0.0250646
0.0259862
0.026743
0.027197
0.0273605
0.0272073
0.0266006
0.0255939
0.0240622
0.0220392
0.0196832
0.0171165
0.0144814
0.0119299
0.00959014
0.00755075
0.00584908
0.00447763
0.00339572
0.00255085
0.00189128
0.00136515
0.000940564
0.000672096
0.00106832
0.000698346
0.000561769
0.000642225
0.000712418
0.000753155
0.000784661
0.000830036
0.000915606
0.00107397
0.00134664
0.00178145
0.00242249
0.00329835
0.00441725
0.00576951
0.00732827
0.00904178
0.010819
0.0125238
0.0140008
0.0150899
0.0156194
0.0158055
0.0158216
0.0155297
0.0149553
0.0141681
0.013418
0.0127768
0.0122105
0.0117196
0.0113374
0.0110364
0.0108122
0.0106612
0.0105885
0.0105642
0.0105823
0.0106786
0.0108234
0.011025
0.011281
0.0115929
0.0119631
0.0123938
0.0128893
0.0134538
0.0140923
0.0148095
0.0156098
0.0164959
0.0174685
0.0185221
0.019648
0.0208288
0.0220394
0.0232361
0.0243625
0.0253512
0.026081
0.0264125
0.0264574
0.0259484
0.0250194
0.023435
0.0212843
0.0187325
0.0159424
0.0131208
0.0104605
0.00811088
0.00615717
0.00461348
0.00343798
0.00255828
0.00189975
0.00140208
0.00102346
0.000812648
0.00134877
0.00107156
0.00083634
0.000904612
0.000977779
0.00103384
0.00109535
0.00119354
0.00136749
0.00166577
0.00214484
0.00285907
0.0038445
0.00510599
0.00661417
0.00830717
0.0100893
0.0118273
0.0133556
0.014481
0.0150165
0.0151781
0.0151382
0.0147143
0.0139251
0.0130059
0.0121628
0.0114081
0.010758
0.010214
0.0097567
0.00938573
0.00909373
0.00886425
0.00869261
0.00857137
0.00850036
0.00846859
0.00846159
0.00849969
0.00857079
0.00867722
0.00881858
0.00899616
0.00921322
0.00947335
0.00978234
0.0101468
0.0105756
0.0110791
0.0116688
0.0123568
0.0131564
0.0140771
0.0151254
0.0163007
0.0175934
0.0189855
0.020435
0.0218896
0.0232671
0.0244608
0.0252369
0.0255371
0.0253884
0.0246791
0.0231022
0.0208273
0.0180183
0.0149464
0.0118862
0.0090862
0.00672351
0.00487207
0.00350887
0.00253994
0.00185735
0.00137097
0.00101949
0.000865398
0.00144309
0.00158927
0.00118353
0.00123056
0.00131561
0.00140306
0.00151726
0.00170048
0.00200683
0.00249914
0.00323955
0.0042716
0.00560096
0.00718495
0.00893271
0.0107106
0.0123509
0.0136762
0.0143994
0.0146469
0.0146558
0.014247
0.0133997
0.0123782
0.0114345
0.0105728
0.00983575
0.00920427
0.00867477
0.00823227
0.00786373
0.0075604
0.00731092
0.00710601
0.00694027
0.00680797
0.00670514
0.00662745
0.00657535
0.00655061
0.00654239
0.00655198
0.00659016
0.00665002
0.00673734
0.00685343
0.00700341
0.0071922
0.00742731
0.00771755
0.00807617
0.00851784
0.00906176
0.00973251
0.0105538
0.0115458
0.0127289
0.0141214
0.0157125
0.0174598
0.0193103
0.0211753
0.0229222
0.0243619
0.0250739
0.0252521
0.024874
0.0233679
0.0208391
0.0176729
0.0142129
0.0108313
0.00785376
0.00548048
0.00375221
0.00258381
0.00181293
0.00130556
0.000983183
0.000856812
0.00139844
0.00228286
0.00160774
0.00163199
0.00174143
0.00187952
0.00207168
0.00237343
0.00285211
0.00357591
0.00459568
0.00592221
0.00750935
0.00925016
0.0109861
0.0125264
0.0136213
0.0141108
0.0142263
0.0139912
0.0132636
0.0121859
0.0111249
0.0101545
0.00931135
0.00858513
0.00797346
0.00745408
0.00701674
0.00664632
0.00633278
0.00606696
0.00584096
0.00564906
0.00548704
0.00535123
0.00523837
0.005146
0.00507312
0.00501815
0.00498156
0.0049644
0.00495962
0.00497368
0.00500972
0.00506606
0.0051465
0.00525378
0.00539264
0.00556845
0.00578655
0.00605585
0.00638767
0.00679813
0.0073105
0.00796278
0.00879819
0.00986535
0.0112209
0.0128801
0.0148398
0.0170549
0.0194049
0.0217613
0.0238755
0.0252083
0.0256977
0.0256886
0.0241384
0.021273
0.0176228
0.0136597
0.00989217
0.00673183
0.00437979
0.00281207
0.00185003
0.00126638
0.000929023
0.000822744
0.00129948
0.0031762
0.00211228
0.0021177
0.00227033
0.00247713
0.00277095
0.00321829
0.00389227
0.00485161
0.00611598
0.00764456
0.00932744
0.0109941
0.0124387
0.0133533
0.0137108
0.0137626
0.0133187
0.0123342
0.0111891
0.0101021
0.00913209
0.00829585
0.00758625
0.00698489
0.00647658
0.00604401
0.00567673
0.00536346
0.00509682
0.00486997
0.00467774
0.00451598
0.00438093
0.0042695
0.00417941
0.00410861
0.00405551
0.00401849
0.00400013
0.00399354
0.00399594
0.00401939
0.00405527
0.00410811
0.00417781
0.00426656
0.00437625
0.00450978
0.00467065
0.00486371
0.005095
0.00537257
0.0057076
0.00611545
0.00662
0.00725659
0.00808391
0.00920987
0.0107464
0.0127527
0.0151878
0.0179794
0.0209184
0.0237391
0.0257869
0.0266908
0.0268958
0.0252813
0.0219565
0.0176885
0.0131309
0.0089623
0.00567118
0.00341027
0.00204773
0.00129523
0.000897776
0.000774571
0.00119759
0.00428043
0.00270338
0.00269891
0.00290834
0.00320034
0.00361271
0.00421752
0.00508201
0.0062387
0.00765985
0.00924426
0.010823
0.0121855
0.0129938
0.013277
0.013263
0.0126415
0.0115461
0.0103932
0.00928134
0.00831248
0.0074831
0.00678324
0.00619295
0.00569414
0.00527214
0.00491488
0.00461369
0.00436052
0.0041495
0.00397506
0.00383267
0.00371815
0.00362793
0.00355869
0.00350773
0.00347247
0.00345409
0.00344688
0.00344643
0.00346132
0.00348511
0.00352159
0.00356814
0.00362714
0.00369845
0.00378372
0.00388423
0.00400192
0.00413904
0.00429842
0.00448365
0.00469951
0.00495247
0.0052509
0.00560416
0.00602995
0.00655534
0.00722619
0.00811805
0.00936739
0.0112239
0.0137535
0.0168802
0.0204036
0.0239704
0.0267508
0.0280307
0.0283928
0.0266047
0.022673
0.0176542
0.0124545
0.00794909
0.0046392
0.00256409
0.00144665
0.000916037
0.00074091
0.0011261
0.00560787
0.00339276
0.00338064
0.0036549
0.00404184
0.00457704
0.00532953
0.00634753
0.00762373
0.00907563
0.0105469
0.0118314
0.0125928
0.0128569
0.0127686
0.0120784
0.0109422
0.00975384
0.00864065
0.00766053
0.00683618
0.00614216
0.00556127
0.00507378
0.00466544
0.0043247
0.00404247
0.0038111
0.0036236
0.00347398
0.00335652
0.00326621
0.00319851
0.00314951
0.00311597
0.00309698
0.00308868
0.00308689
0.00309467
0.00311064
0.00313545
0.00316793
0.0032096
0.00326033
0.00332164
0.0033943
0.00347987
0.00357971
0.00369549
0.00382888
0.00398167
0.00415575
0.00435323
0.0045766
0.00482926
0.00511646
0.00544674
0.0058346
0.00630176
0.00688085
0.00763762
0.00869152
0.0102613
0.0127213
0.016099
0.0201888
0.0245406
0.028045
0.0296295
0.0300529
0.0279042
0.0231743
0.0172755
0.0114858
0.00679575
0.00363144
0.00184676
0.00101777
0.000748778
0.00112739
0.00723978
0.00420799
0.00416128
0.00449989
0.00498124
0.00562757
0.0064946
0.00760056
0.0088918
0.0102354
0.0114391
0.0121788
0.0124401
0.0123298
0.0116047
0.0104892
0.00927433
0.00814481
0.00715798
0.00632676
0.00563716
0.00506262
0.00458665
0.00419314
0.00387082
0.00360969
0.00340121
0.00323737
0.00311081
0.00301485
0.00294351
0.00289169
0.00285511
0.0028304
0.00281603
0.00280948
0.00280757
0.00281091
0.00282166
0.00283799
0.0028611
0.00289127
0.00292975
0.00297743
0.00303574
0.00310601
0.00318988
0.00328897
0.00340507
0.00353999
0.00369549
0.0038733
0.00407488
0.00430142
0.00455375
0.00483266
0.00513954
0.005478
0.00585691
0.00629527
0.00682918
0.00750663
0.00843874
0.00983251
0.0121009
0.0156508
0.0202689
0.0254627
0.029632
0.0314122
0.0317529
0.0289475
0.023131
0.0163438
0.0101231
0.00550062
0.00267913
0.00129395
0.00081159
0.00120356
0.00906945
0.00511563
0.00502346
0.00542231
0.005987
0.00671674
0.00764536
0.00875541
0.00994952
0.0110595
0.0117822
0.0120443
0.0119462
0.0112363
0.0101584
0.00894028
0.00778463
0.00678138
0.00593955
0.00524562
0.00467557
0.00420782
0.00382787
0.00352211
0.00327999
0.00309128
0.00294673
0.0028377
0.00275656
0.00269669
0.00265266
0.00262018
0.00259608
0.00257817
0.00256517
0.00255607
0.00255159
0.0025502
0.00255347
0.00256261
0.00257813
0.002601
0.00263241
0.00267362
0.00272604
0.00279118
0.00287075
0.00296657
0.00308062
0.00321501
0.00337194
0.00355355
0.00376184
0.00399833
0.00426389
0.00455841
0.00488074
0.00522901
0.00560197
0.00600215
0.00644187
0.00695369
0.00759319
0.00845438
0.00974466
0.0118753
0.0155419
0.0206833
0.0267646
0.0314758
0.0333048
0.0333858
0.0293068
0.0222751
0.0146819
0.0083573
0.00412468
0.00187813
0.000999156
0.00144837
0.0110429
0.00609531
0.00594549
0.00639375
0.00702036
0.00779269
0.00871761
0.0097429
0.0107384
0.0114336
0.0116919
0.0116282
0.0109761
0.00994265
0.00873434
0.00755325
0.00651987
0.00565882
0.00495356
0.00438097
0.00391784
0.0035467
0.00325373
0.00302591
0.00285195
0.00272093
0.00262323
0.00255035
0.00249533
0.00245265
0.00241822
0.00238921
0.00236389
0.00234137
0.00232138
0.00230406
0.00229001
0.00228047
0.00227629
0.00227559
0.00228272
0.00229797
0.00232208
0.00235635
0.0024021
0.0024608
0.00253411
0.00262392
0.00273234
0.00286178
0.00301485
0.00319437
0.00340315
0.00364384
0.0039185
0.00422817
0.0045723
0.00494829
0.00535147
0.00577607
0.00621835
0.00668339
0.00719788
0.00782586
0.00865581
0.00990087
0.0120027
0.0158054
0.0214939
0.0284602
0.0335174
0.0352798
0.0345399
0.0287067
0.0203258
0.0122683
0.00631115
0.00287449
0.00140167
0.00195495
0.0130967
0.00712241
0.00690077
0.0073809
0.00803947
0.00880511
0.0096564
0.0105122
0.0111558
0.0114048
0.0113856
0.010817
0.00983901
0.00864774
0.00744358
0.00636936
0.00547525
0.00474948
0.00416603
0.00370066
0.00333293
0.00304685
0.00282809
0.00266326
0.00254037
0.0024486
0.00237895
0.00232415
0.0022788
0.00223911
0.00220269
0.00216826
0.00213538
0.00210419
0.00207517
0.00204904
0.00202664
0.00200884
0.00199734
0.00199235
0.00199168
0.0020009
0.00201922
0.00204744
0.00208688
0.00213877
0.00220469
0.00228645
0.00238621
0.00250649
0.00265021
0.00282071
0.00302162
0.00325676
0.00352978
0.0038437
0.0042002
0.0045987
0.0050355
0.00550327
0.00599169
0.00649062
0.0069977
0.00753397
0.00816892
0.00899788
0.0102494
0.0124355
0.0165228
0.0228462
0.030709
0.035644
0.0370357
0.0347227
0.0267159
0.017219
0.00930998
0.00433679
0.00204241
0.00266918
0.0151649
0.00816929
0.00785974
0.00834858
0.00900346
0.00970985
0.0104195
0.0109902
0.011228
0.0112214
0.0107534
0.009842
0.00867702
0.00745209
0.00632906
0.00538614
0.00462632
0.00402201
0.00354564
0.00317426
0.00288888
0.00267333
0.00251258
0.0023931
0.00230325
0.00223336
0.00217606
0.00212602
0.0020798
0.0020354
0.001992
0.00194953
0.00190843
0.00186941
0.0018333
0.00180096
0.00177319
0.00175076
0.00173436
0.00172603
0.00172315
0.00172708
0.00174163
0.00176499
0.0017989
0.00184425
0.00190248
0.00197524
0.00206459
0.00217302
0.00230355
0.00245974
0.00264576
0.0028663
0.00312639
0.00343106
0.00378465
0.0041899
0.00464657
0.00515003
0.00569019
0.00625173
0.00681745
0.00737709
0.00794701
0.00860574
0.00945588
0.0107684
0.0131574
0.0177515
0.0249396
0.0335241
0.0376659
0.0383715
0.0332479
0.0231361
0.0131985
0.00631163
0.00292893
0.00354356
0.0171895
0.00920701
0.00879234
0.00926264
0.00987625
0.0104732
0.0109633
0.0111806
0.0111561
0.0107853
0.00994657
0.00881927
0.00757919
0.00640147
0.00539411
0.0045827
0.00394427
0.00344658
0.00306301
0.00277156
0.00255345
0.00239199
0.00227214
0.00218121
0.00210897
0.00204778
0.0019924
0.00193962
0.00188781
0.00183648
0.00178589
0.00173669
0.00168975
0.00164594
0.0016061
0.00157092
0.00154104
0.00151695
0.0014991
0.00148936
0.00148565
0.0014867
0.00149866
0.00151836
0.00154761
0.00158704
0.00163792
0.00170172
0.00178031
0.001876
0.00199169
0.00213092
0.00229798
0.002498
0.00273687
0.0030211
0.00335739
0.00375182
0.0042085
0.00472782
0.00530421
0.00592435
0.00656698
0.0072066
0.00782458
0.00843517
0.00912953
0.0100225
0.0114655
0.0142291
0.019618
0.0280722
0.0364782
0.0396183
0.038744
0.0297603
0.0180737
0.00889411
0.00408975
0.00452422
0.019153
0.0102101
0.00967003
0.0100932
0.0106305
0.0110611
0.0112526
0.0112182
0.0109083
0.0101507
0.00907144
0.00782642
0.00659262
0.00550638
0.00462321
0.00393301
0.00340121
0.00299552
0.00269024
0.00246365
0.00229687
0.00217336
0.00207914
0.00200324
0.00193764
0.00187701
0.00181829
0.00176008
0.00170217
0.00164505
0.00158953
0.00153658
0.00148707
0.00144179
0.00140134
0.0013662
0.00133673
0.00131319
0.00129581
0.00128607
0.00128223
0.00128218
0.00129225
0.0013092
0.00133455
0.00136883
0.0014131
0.00146864
0.00153709
0.00162053
0.00172157
0.00184354
0.00199055
0.00216769
0.00238113
0.00263815
0.00294699
0.00331636
0.00375442
0.00426706
0.00485536
0.00551253
0.00622107
0.00695216
0.00767038
0.00834894
0.00900549
0.00973688
0.0107034
0.0123638
0.0157099
0.0221828
0.0322262
0.0396152
0.041395
0.0364794
0.0239851
0.0122265
0.00557276
0.00556837
0.0209772
0.0111529
0.0104686
0.0108184
0.0112436
0.0114433
0.0114301
0.0111142
0.0104507
0.00943177
0.0081946
0.00691006
0.00573452
0.00475822
0.00399418
0.00341139
0.00297154
0.00264337
0.00240166
0.00222485
0.00209446
0.00199506
0.00191461
0.00184446
0.00177903
0.0017152
0.00165171
0.00158852
0.00152627
0.00146592
0.00140846
0.00135478
0.00130558
0.0012614
0.00122257
0.00118931
0.00116174
0.00113993
0.00112392
0.00111486
0.00111122
0.00111104
0.00111963
0.00113443
0.0011565
0.00118637
0.00122489
0.00127318
0.00133263
0.00140506
0.00149278
0.00159874
0.00172669
0.00188139
0.00206879
0.00229626
0.00257268
0.00290829
0.00331418
0.00380101
0.00437673
0.00504311
0.00579132
0.00659781
0.00742323
0.00821937
0.00895285
0.00965475
0.0104283
0.0115156
0.0135517
0.0178934
0.0259364
0.0370538
0.042111
0.0418334
0.0307245
0.016466
0.00740372
0.00664287
0.0225914
0.0120105
0.0111693
0.0114223
0.0116724
0.0117029
0.011424
0.0108531
0.0098959
0.00868377
0.0073603
0.00609264
0.0050038
0.00414007
0.00348411
0.00299438
0.00263228
0.00236749
0.00217519
0.00203437
0.00192777
0.00184192
0.00176719
0.00169746
0.00162937
0.00156162
0.00149425
0.001428
0.00136393
0.00130304
0.00124623
0.00119415
0.00114723
0.00110572
0.00106971
0.00103921
0.00101415
0.000994478
0.000980108
0.000971974
0.000968724
0.000968565
0.000976007
0.000988993
0.0010083
0.00103439
0.00106801
0.00111008
0.00116182
0.00122476
0.00130092
0.00139285
0.00150384
0.00163817
0.00180128
0.00200014
0.00224349
0.00254208
0.00290855
0.00335682
0.00390049
0.00454981
0.00530688
0.00615952
0.0070753
0.00799989
0.0088677
0.00963854
0.01037
0.0112062
0.0125073
0.0151938
0.02107
0.0314542
0.0415987
0.044322
0.0377502
0.0217382
0.00964049
0.00777415
0.0239515
0.0127634
0.0117537
0.0118806
0.0119855
0.0118294
0.0113253
0.0104602
0.00928944
0.00794711
0.00659419
0.00538015
0.00438985
0.00363268
0.00307178
0.00266126
0.00236341
0.00214875
0.00199311
0.00187675
0.00178433
0.00170484
0.0016312
0.00155955
0.0014884
0.00141772
0.00134832
0.00128129
0.00121771
0.00115843
0.00110408
0.00105503
0.00101144
0.000973305
0.000940539
0.000912993
0.000890502
0.000872915
0.000860103
0.000852836
0.000849939
0.000849801
0.000856243
0.000867648
0.000884572
0.000907445
0.000936891
0.000973709
0.00101893
0.00107388
0.00114026
0.00122028
0.00131677
0.00143345
0.00157515
0.00174817
0.00196065
0.00222301
0.00254824
0.00295189
0.00345127
0.00406339
0.00480083
0.00566512
0.00663825
0.00767471
0.00870014
0.009629
0.0104202
0.0111466
0.0120967
0.0137846
0.0176178
0.025588
0.0385655
0.0449944
0.0438721
0.0280829
0.0123711
0.00894577
0.025038
0.0134027
0.0122168
0.0122046
0.0121757
0.0118149
0.0110983
0.0100015
0.00866747
0.00724872
0.0059081
0.00476869
0.00387812
0.0032175
0.00273852
0.00239427
0.00214822
0.00197184
0.00184219
0.0017414
0.00165652
0.0015791
0.00150443
0.00143053
0.00135722
0.00128527
0.0012158
0.00114994
0.00108856
0.00103227
0.000981398
0.000936031
0.000896109
0.000861461
0.000831868
0.000807095
0.000786924
0.000771168
0.000759678
0.00075308
0.000750426
0.000750263
0.00075577
0.000765762
0.000780617
0.000800728
0.000826633
0.000859022
0.000898782
0.000947047
0.00100527
0.00107534
0.00115968
0.00126148
0.00138494
0.00153559
0.00172074
0.00195001
0.00223588
0.00259415
0.00304393
0.00360668
0.00430328
0.00514831
0.00614075
0.00725217
0.0084162
0.00953013
0.0104873
0.0112727
0.0120045
0.0131664
0.0155968
0.0214895
0.032726
0.0445428
0.0473457
0.0354238
0.0158271
0.0103371
0.0258425
0.0139354
0.0125536
0.0124098
0.0122395
0.011723
0.0107794
0.00950577
0.00805628
0.00660438
0.00530445
0.00424921
0.00345339
0.00287789
0.00246843
0.00217863
0.00197332
0.00182525
0.00171321
0.00162164
0.00154016
0.00146271
0.00138654
0.0013111
0.00123702
0.00116545
0.00109753
0.00103421
0.000976096
0.000923492
0.000876461
0.000834884
0.000798535
0.000767137
0.000740397
0.000718044
0.000699838
0.000685589
0.000675147
0.000669005
0.000666473
0.000666235
0.00067085
0.000679567
0.000692612
0.000710344
0.000733234
0.000761883
0.000797062
0.000839748
0.000891191
0.000952998
0.00102725
0.00111668
0.00122487
0.00135663
0.00151837
0.00171869
0.00196906
0.00228461
0.00268468
0.00319289
0.00383567
0.00463812
0.00561575
0.00676149
0.00802969
0.00932366
0.0105045
0.0114664
0.0121589
0.0129845
0.0145645
0.0184435
0.0273516
0.0419652
0.0487059
0.0431275
0.0202874
0.0121907
0.0263785
0.0143572
0.0127765
0.0125026
0.0122043
0.0115245
0.0104081
0.00899749
0.00747386
0.00602166
0.00477987
0.00381061
0.0031014
0.00259957
0.0022483
0.00200249
0.0018285
0.00170071
0.0016001
0.0015136
0.00143324
0.00135507
0.00127786
0.00120197
0.0011285
0.00105864
0.000993393
0.000933418
0.00087904
0.000830307
0.000787071
0.000749064
0.00071596
0.000687422
0.000663129
0.000642801
0.000626202
0.000613148
0.000603508
0.000597641
0.000595129
0.000594777
0.000598549
0.000606111
0.000617569
0.000633244
0.000653553
0.000679029
0.000710347
0.000748358
0.000794146
0.000849093
0.000914986
0.00099416
0.0010897
0.00120571
0.00134777
0.0015234
0.00174289
0.00202013
0.00237367
0.00282749
0.00341091
0.00415631
0.00509285
0.00623431
0.00756047
0.00899582
0.0103991
0.0115914
0.0124571
0.0130462
0.0141563
0.0166587
0.0233239
0.0369634
0.0488745
0.0497116
0.0259911
0.0146061
0.0266471
0.0146723
0.0128959
0.0124919
0.0120926
0.0112554
0.010005
0.00849493
0.00693136
0.00550242
0.0043279
0.00344154
0.00280953
0.0023706
0.00206745
0.00185663
0.00170622
0.0015926
0.00149913
0.00141518
0.00133497
0.0012562
0.00117875
0.00110353
0.00103175
0.000964518
0.000902561
0.000846264
0.000795695
0.000750695
0.00071097
0.000676158
0.00064588
0.000619778
0.000597529
0.00057886
0.00056355
0.000551434
0.000542396
0.000536667
0.000534105
0.000533612
0.000536604
0.000543124
0.000553184
0.000567071
0.000585159
0.000607923
0.000635964
0.00067003
0.000711072
0.000760292
0.000819237
0.000889915
0.000974972
0.00107794
0.00120361
0.00135853
0.00155171
0.00179564
0.00210743
0.0025102
0.00303397
0.00371527
0.0045933
0.00570017
0.00704273
0.00857627
0.0101769
0.0116365
0.0127782
0.0134335
0.0140743
0.0157742
0.0203418
0.0315068
0.0479295
0.0533297
0.0335998
0.0174728
0.0266341
0.0148791
0.0129226
0.0124221
0.0118908
0.0109398
0.00958746
0.0080111
0.00643475
0.00504483
0.00394075
0.00313144
0.00256703
0.00218124
0.00191745
0.00173408
0.00160114
0.00149722
0.00140807
0.00132532
0.00124504
0.00116619
0.00108935
0.00101568
0.00094636
0.000882248
0.000823822
0.000771205
0.000724259
0.000682678
0.000646074
0.000614034
0.000586162
0.000562099
0.000541535
0.000524216
0.000509939
0.000498557
0.000489972
0.000484294
0.000481634
0.000480987
0.000483273
0.000488854
0.000497683
0.000510008
0.000526171
0.000546599
0.000571832
0.00060254
0.000639564
0.000683964
0.000737093
0.000800694
0.000877055
0.00096922
0.0010813
0.00121896
0.00139006
0.00160559
0.001881
0.00223778
0.00270517
0.00332118
0.00413125
0.00518161
0.00650369
0.00808708
0.00984424
0.011583
0.0130217
0.0138693
0.0143693
0.0154392
0.0184489
0.0270212
0.0445759
0.0548063
0.0426274
0.0207347
0.0264903
0.0150116
0.012891
0.0122692
0.0116343
0.0105933
0.0091689
0.00755461
0.00598625
0.00464492
0.00361041
0.0028709
0.00236493
0.00202364
0.00179176
0.0016297
0.00150955
0.00141218
0.00132562
0.00124349
0.00116333
0.001085
0.00100948
0.000937984
0.000871529
0.000810727
0.0007558
0.000706662
0.000663019
0.000624471
0.000590576
0.000560902
0.000535054
0.000512686
0.00049351
0.000477291
0.000463848
0.000453049
0.000444811
0.000439136
0.00043635
0.000435545
0.000437202
0.000441944
0.000449685
0.000460641
0.000475124
0.000493523
0.000516328
0.000544146
0.000577733
0.000618036
0.000666252
0.000723914
0.000793016
0.000876198
0.000977015
0.00110035
0.00125301
0.00144463
0.0016889
0.00200535
0.00242146
0.00297479
0.00371376
0.00469433
0.00596812
0.00755706
0.0094136
0.0113747
0.0131434
0.0143197
0.0148528
0.0153991
0.0174832
0.0239675
0.0396726
0.0550082
0.0515628
0.0238929
0.0261702
0.0150905
0.0128034
0.0120566
0.0113372
0.0102294
0.00875932
0.00713066
0.0055855
0.00429769
0.00332928
0.00265185
0.0021959
0.0018916
0.00168541
0.00153977
0.00142891
0.00133596
0.00125101
0.00116936
0.00108965
0.00101237
0.000938681
0.000869721
0.000806288
0.000748755
0.000697128
0.000651159
0.00061045
0.000574539
0.000542964
0.000515291
0.00049114
0.000470184
0.000452157
0.000436844
0.000424082
0.000413753
0.000405781
0.000400129
0.000397187
0.000396223
0.000397331
0.000401325
0.000408103
0.000417854
0.000430861
0.000447483
0.000468169
0.000493475
0.00052409
0.000560871
0.000604892
0.00065752
0.000720513
0.000796182
0.00088762
0.000999057
0.00113639
0.00130801
0.00152595
0.00180768
0.00217842
0.00267398
0.00334323
0.00424788
0.0054551
0.00701647
0.00892806
0.0110743
0.0131769
0.0147478
0.0154581
0.0158199
0.017061
0.0215061
0.0346939
0.0543011
0.0583986
0.0262211
0.0256782
0.0150947
0.0126533
0.0118025
0.0110125
0.00985875
0.00836588
0.00674186
0.00523057
0.00399777
0.00309047
0.00246748
0.00205399
0.00178027
0.00159463
0.00146159
0.0013575
0.00126757
0.00118372
0.0011026
0.00102371
0.000947885
0.000876334
0.000810048
0.000749602
0.000695154
0.000646539
0.00060339
0.00056524
0.000531598
0.000501997
0.000476015
0.00045329
0.000433518
0.000416451
0.000401895
0.000389701
0.00037976
0.000372005
0.0003664
0.000363289
0.00036217
0.000362806
0.000366138
0.000372065
0.000380752
0.000392456
0.000407511
0.000426332
0.000449433
0.00047745
0.000511168
0.000551567
0.000599879
0.000657679
0.000727013
0.000810596
0.000912119
0.00103671
0.00119165
0.00138749
0.00163968
0.00197101
0.00241475
0.00301837
0.00384582
0.00497455
0.00647984
0.00839822
0.0106685
0.0130677
0.0151042
0.016048
0.0163896
0.0169783
0.0200689
0.0303195
0.0519727
0.0617679
0.0272072
0.0250378
0.0150707
0.0124701
0.0115199
0.0106715
0.00948989
0.00799339
0.00638894
0.00491853
0.0037399
0.00288795
0.00231215
0.00193444
0.00168587
0.00151662
0.00139324
0.0012941
0.0012063
0.00112332
0.0010429
0.000965105
0.000890993
0.000821712
0.000758079
0.000700462
0.000648839
0.000602912
0.000562232
0.000526293
0.000494593
0.000466669
0.000442119
0.000420599
0.000401828
0.000385576
0.000371663
0.000359954
0.000350349
0.000342784
0.000337228
0.000333958
0.000332693
0.000332934
0.000335682
0.000340856
0.000348601
0.00035915
0.000372815
0.000389983
0.000411133
0.000436856
0.000467883
0.000505118
0.000549689
0.000603025
0.000666963
0.000743915
0.000837129
0.000951087
0.00109214
0.0012695
0.00149678
0.00179431
0.00219254
0.00273635
0.00348945
0.00453543
0.005968
0.00785958
0.0101993
0.0128087
0.0152839
0.0166836
0.0171301
0.0173587
0.0193655
0.0275038
0.0480487
0.0629337
0.027356
0.0242822
0.0150102
0.0122636
0.0112195
0.0103235
0.00912927
0.00764478
0.00607133
0.00464606
0.00351918
0.00271651
0.00218119
0.00183345
0.00160544
0.00144924
0.00133328
0.00123781
0.0011516
0.00106943
0.000989851
0.000913354
0.000841077
0.000774066
0.000712958
0.00065794
0.000608846
0.000565282
0.000526743
0.000492703
0.00046266
0.000436165
0.000412833
0.000392341
0.000374425
0.000358873
0.000345519
0.000334234
0.000324927
0.000317537
0.000312033
0.000308618
0.0003072
0.00030714
0.000309372
0.00031388
0.000320789
0.000330313
0.000342741
0.000358435
0.000377846
0.00040153
0.00043017
0.000464611
0.000505902
0.000555356
0.000614648
0.000685948
0.000772147
0.000877197
0.00100666
0.0011686
0.00137496
0.00164378
0.00200253
0.00249285
0.00317629
0.00413874
0.0054869
0.00732469
0.00969575
0.01249
0.0153421
0.0172845
0.0178841
0.0179707
0.0190907
0.0251781
0.0439899
0.0629277
0.0268612
0.0234457
0.0149218
0.0120429
0.0109108
0.00997627
0.00878166
0.00732159
0.00578764
0.00440954
0.00333113
0.00257179
0.00207082
0.00174797
0.00153672
0.00139088
0.00128065
0.00118795
0.001103
0.00102163
0.000943026
0.000867934
0.000797507
0.000732669
0.000673891
0.00062121
0.000574345
0.000532834
0.000496139
0.000463725
0.000435098
0.000409822
0.000387533
0.000367924
0.000350749
0.000335807
0.000322944
0.000312038
0.000303001
0.000295777
0.000290333
0.000286781
0.000285176
0.000284933
0.000286708
0.000290628
0.000296796
0.000305408
0.000316732
0.000331109
0.000348964
0.000370821
0.000397328
0.000429282
0.000467667
0.000513709
0.000568955
0.000635387
0.000715611
0.000813149
0.00093291
0.00108197
0.00127082
0.0015154
0.0018403
0.00228364
0.00290364
0.00378562
0.00504399
0.0068067
0.00916421
0.0120753
0.0152605
0.0178054
0.0187303
0.0187627
0.0190659
0.0235807
0.040149
0.0609961
0.0260918
0.0225528
0.01482
0.0118163
0.0106012
0.0096357
0.00845044
0.0070243
0.00553591
0.00420552
0.00317179
0.0024501
0.00197795
0.00167559
0.0014779
0.00134029
0.00123451
0.00114397
0.00106008
0.000979533
0.00090197
0.00082831
0.00075967
0.000696848
0.00064017
0.000589552
0.000544628
0.000504887
0.000469773
0.000438749
0.000411331
0.000387102
0.000365709
0.000346866
0.000330336
0.000315931
0.000303504
0.000292939
0.000284151
0.000277081
0.000271699
0.000268034
0.000266263
0.00026587
0.000267257
0.000270662
0.000276174
0.000283974
0.000294312
0.000307509
0.000323967
0.000344184
0.000368775
0.000398498
0.000434288
0.000477301
0.000528985
0.000591178
0.000666262
0.000757414
0.000869009
0.00100729
0.0011815
0.0014057
0.00170179
0.00210429
0.00266741
0.00347388
0.00464179
0.00631777
0.00863445
0.0116118
0.0150231
0.018185
0.0195769
0.0197016
0.0195817
0.0225029
0.0367255
0.0582417
0.0250862
0.0216159
0.0147213
0.0115931
0.0102975
0.00930656
0.00813792
0.00675276
0.00531377
0.00403078
0.00303779
0.00234837
0.00190008
0.0016144
0.00142759
0.00129648
0.0011942
0.00110537
0.00102243
0.000942723
0.000866231
0.000793967
0.000726995
0.000665996
0.000611176
0.000562354
0.000519101
0.000480875
0.00044711
0.000417273
0.00039089
0.000367559
0.000346942
0.000328764
0.000312801
0.000298872
0.000286835
0.000276577
0.000268016
0.000261091
0.000255767
0.000252034
0.00025011
0.000249581
0.000250642
0.000253596
0.000258529
0.000265607
0.000275066
0.000287206
0.000302409
0.000321149
0.000344014
0.000371728
0.000405184
0.000445485
0.000494004
0.000552467
0.000623083
0.000708758
0.000813436
0.000942678
0.00110464
0.00131175
0.00158346
0.00195082
0.00246367
0.00320069
0.00428005
0.00586103
0.00811365
0.0111245
0.0147304
0.0183749
0.0203903
0.0207037