/*--------------------------------*- C++ -*----------------------------------*\
  =========                 |
  \\      /  F ield         | OpenFOAM: The Open Source CFD Toolbox
   \\    /   O peration     | Website:  https://openfoam.org
    \\  /    A nd           | Version:  13
     \\/     M anipulation  |
\*---------------------------------------------------------------------------*/
FoamFile
{
    format      ascii;
    class       volScalarField;
    location    "5";
    object      k;
}
// * * * * * * * * * * * * * * * * * * * * * * * * * * * * * * * * * * * * * //

dimensions      [0 2 -2 0 0 0 0];

internalField   nonuniform List<scalar> 
6400
(
4.61528e-07
2.36571e-06
5.70363e-06
9.20205e-06
1.18881e-05
1.34442e-05
1.40604e-05
1.41754e-05
1.42886e-05
1.48267e-05
1.61025e-05
1.85631e-05
2.24648e-05
2.79049e-05
3.4653e-05
4.23695e-05
5.06991e-05
5.94666e-05
6.83389e-05
7.70238e-05
8.5675e-05
9.4939e-05
0.000105735
0.00011885
0.00013412
0.000150203
0.000166128
0.000181945
0.000198011
0.000214715
0.000232027
0.00024928
0.000266252
0.000282777
0.000299326
0.000316034
0.000333265
0.000351185
0.00037003
0.000389927
0.000410995
0.00043339
0.000457253
0.000482816
0.000510224
0.000540041
0.00057347
0.000613122
0.000661685
0.000707396
0.000755053
0.000800786
0.000845048
0.000885772
0.000921876
0.000951566
0.000971168
0.000980424
0.000983406
0.000972308
0.000944855
0.000902413
0.000845276
0.000774693
0.000693456
0.000604144
0.000512572
0.000422307
0.000336848
0.000258471
0.000195863
0.000143098
0.000100147
6.70593e-05
4.312e-05
2.67229e-05
1.59924e-05
9.08982e-06
4.2573e-06
9.03638e-07
2.23876e-06
1.88718e-05
4.56484e-05
7.17478e-05
9.14128e-05
0.000103404
0.000109327
0.000111888
0.000114087
0.000118679
0.000128588
0.000147159
0.000175608
0.000213649
0.000259722
0.000311621
0.000367388
0.000425081
0.000482975
0.000540096
0.000597456
0.000658603
0.000728407
0.000810484
0.00090312
0.000999168
0.00109306
0.00118331
0.00127027
0.0013546
0.00143532
0.00151038
0.00157925
0.0016414
0.00169942
0.0017541
0.00180736
0.0018602
0.00191387
0.00196917
0.00202675
0.00208728
0.00215115
0.00221863
0.00228933
0.00236297
0.00243922
0.00251533
0.00259103
0.00267331
0.00275667
0.00284165
0.00292479
0.00300408
0.00307573
0.0031361
0.00317626
0.00319306
0.00319466
0.00316786
0.00310397
0.0030033
0.00286394
0.00268672
0.0024763
0.00223891
0.00198717
0.0017298
0.001474
0.00122896
0.000991366
0.000773625
0.000583051
0.000422957
0.000294734
0.000196367
0.000124762
7.44625e-05
3.57637e-05
4.77203e-06
4.90724e-06
4.12036e-05
9.61292e-05
0.000143302
0.000175989
0.000195574
0.000206491
0.00021387
0.000222919
0.000238849
0.000266817
0.000311169
0.000373769
0.000453456
0.000547021
0.000650904
0.000762337
0.000879045
0.000998675
0.00111908
0.00123847
0.0013558
0.00146953
0.0015757
0.00166928
0.00174667
0.00180504
0.00184558
0.00187599
0.00190228
0.00192957
0.00195838
0.00199017
0.00202173
0.00205619
0.00209313
0.00213401
0.002179
0.00222878
0.00228379
0.00234392
0.0024094
0.00248029
0.00255629
0.00263751
0.00272384
0.002815
0.00291109
0.00301262
0.00311918
0.00322885
0.00334055
0.00345188
0.00356036
0.00366238
0.00375381
0.00382958
0.00388053
0.00390131
0.0039012
0.00385952
0.00377469
0.00364234
0.00346202
0.00323587
0.00296778
0.00267503
0.00236734
0.00205428
0.00174703
0.00145466
0.0011844
0.000942007
0.00073052
0.000551157
0.000403266
0.000283731
0.000185252
9.35891e-05
1.2677e-05
8.52066e-06
6.95076e-05
0.000152493
0.000216318
0.00025866
0.000285091
0.00030285
0.000319341
0.000341914
0.000377855
0.00043382
0.000514195
0.000619365
0.000745671
0.000887355
0.00103875
0.00119485
0.00135064
0.00150058
0.00163914
0.00176076
0.00186229
0.00194176
0.00199392
0.00201825
0.00202574
0.00202499
0.00202066
0.00201939
0.00202219
0.00203093
0.00204285
0.00205952
0.00208055
0.00210686
0.00213784
0.00217411
0.00221563
0.00226243
0.00231455
0.00237224
0.00243552
0.00250455
0.00257921
0.00265939
0.00274458
0.00283628
0.00293419
0.00303821
0.0031478
0.00326197
0.00337952
0.0034986
0.00361692
0.00373125
0.00383769
0.0039313
0.00400666
0.00405216
0.00406879
0.00405352
0.00399509
0.00389142
0.00374469
0.00354537
0.00329218
0.00300007
0.00267924
0.00234505
0.00201209
0.00169305
0.00139771
0.0011323
0.000899706
0.000700444
0.000533185
0.000393625
0.000272403
0.000147321
2.08664e-05
1.36403e-05
0.000107384
0.000219509
0.000299287
0.000351374
0.00038592
0.000413256
0.000443381
0.000485986
0.000550118
0.000642627
0.000765885
0.000916573
0.00108696
0.00126769
0.00144975
0.0016247
0.00178416
0.00191936
0.00202534
0.00209427
0.00212481
0.00213159
0.00211059
0.0020818
0.00205608
0.00203529
0.00201955
0.00201181
0.00200882
0.00200889
0.00201472
0.0020248
0.00203914
0.00205793
0.00208043
0.00210701
0.00213717
0.00217078
0.00220801
0.00224887
0.00229357
0.00234279
0.00239708
0.00245718
0.0025241
0.00259699
0.0026765
0.00276279
0.00285608
0.00295634
0.00306336
0.00317626
0.00329395
0.00341453
0.00353555
0.00365303
0.00376197
0.00385634
0.00392549
0.00395652
0.00395946
0.00390637
0.00380087
0.00364286
0.00343807
0.00316969
0.00285795
0.00251886
0.00217076
0.00183126
0.00151504
0.00123165
0.000985177
0.000775655
0.000600454
0.000453865
0.000323967
0.000182889
2.63444e-05
2.09301e-05
0.000157886
0.000301145
0.000397677
0.000460843
0.000505644
0.00054587
0.000594403
0.000663057
0.000761366
0.000894162
0.00105945
0.00124861
0.00144906
0.0016473
0.00183069
0.00198799
0.00211087
0.00218416
0.00221185
0.00221254
0.00217381
0.00213301
0.00209438
0.00205529
0.00202172
0.00199366
0.00197076
0.00195291
0.00193857
0.00192795
0.00192283
0.00192081
0.00192066
0.00192435
0.00193015
0.00193859
0.00194937
0.00196259
0.00197864
0.00199782
0.00202045
0.00204653
0.00207648
0.00211074
0.00214986
0.00219431
0.00224506
0.00230302
0.00236923
0.00244469
0.0025305
0.00262727
0.00273532
0.00285418
0.00298238
0.00311804
0.00325768
0.00339626
0.00352633
0.00363892
0.00371473
0.00374456
0.00373197
0.0036505
0.0035079
0.00329304
0.00301058
0.00267804
0.00231776
0.00195375
0.00160847
0.0012985
0.00103209
0.000809866
0.000627547
0.000477074
0.000343917
0.00019783
2.81869e-05
3.10426e-05
0.000222896
0.00039969
0.000514269
0.00059015
0.00064754
0.000703948
0.000774956
0.000873425
0.00100728
0.00117694
0.0013744
0.00158524
0.00179226
0.00197867
0.00213012
0.00223134
0.00227502
0.0022812
0.0022437
0.0021969
0.00213947
0.00208345
0.00202583
0.00197389
0.00192982
0.00189154
0.00185838
0.00182964
0.00180575
0.00178571
0.00176872
0.00175396
0.0017414
0.00173122
0.00172284
0.00171663
0.00171272
0.00171099
0.00171064
0.00171295
0.00171763
0.00172488
0.00173514
0.00174858
0.00176576
0.00178715
0.00181352
0.00184581
0.00188529
0.00193332
0.00199166
0.00206265
0.00214848
0.0022513
0.00237182
0.00251008
0.00266653
0.0028365
0.00301386
0.00319074
0.00335645
0.00349468
0.00356928
0.00359019
0.00353651
0.00341737
0.00319095
0.002883
0.00251779
0.00212517
0.0017377
0.00138379
0.00108104
0.000833971
0.000637331
0.000479657
0.000342689
0.000196513
2.73149e-05
4.45902e-05
0.000303453
0.000515924
0.000649916
0.000740065
0.000812044
0.000886992
0.000982392
0.00111038
0.00127504
0.00147066
0.00168287
0.00189214
0.0020782
0.00222382
0.00230472
0.00233107
0.00231361
0.00226504
0.00220012
0.00212452
0.00204171
0.00196854
0.00190213
0.00184711
0.00179769
0.00175383
0.00171451
0.00167935
0.00164798
0.00161975
0.00159435
0.00157157
0.00155144
0.00153389
0.00151868
0.00150577
0.00149508
0.00148651
0.0014801
0.00147638
0.00147481
0.00147463
0.00147777
0.00148338
0.00149213
0.00150428
0.00152042
0.00154091
0.00156627
0.00159722
0.00163472
0.00167998
0.00173472
0.0018017
0.00188573
0.0019929
0.0021268
0.00229155
0.00248312
0.00269438
0.00291771
0.0031371
0.00333581
0.00346684
0.00351677
0.00349315
0.0033894
0.00314031
0.00279466
0.00238336
0.00194789
0.00153199
0.00116973
0.000877192
0.000651879
0.000478797
0.000335363
0.00019001
2.53817e-05
6.20399e-05
0.000399605
0.000649506
0.000804003
0.000909526
0.000997126
0.00109105
0.00120941
0.00136171
0.00154653
0.00175161
0.001957
0.00214001
0.00227887
0.00234619
0.00236162
0.00232916
0.00227439
0.00218904
0.00208673
0.0019896
0.00190447
0.00182952
0.00176307
0.001705
0.00165201
0.00160441
0.00156135
0.00152271
0.00148819
0.00145755
0.00143068
0.00140743
0.00138761
0.00137096
0.00135729
0.00134639
0.00133803
0.00133196
0.00132853
0.00132711
0.00132689
0.00132919
0.00133371
0.00134042
0.00134955
0.00136118
0.00137556
0.00139291
0.00141356
0.00143783
0.00146624
0.00149932
0.00153782
0.00158277
0.00163576
0.00169958
0.00177838
0.00188047
0.00202156
0.00221145
0.00244532
0.0027029
0.00297455
0.00323213
0.00342243
0.00350298
0.00350728
0.0034033
0.00312329
0.00272757
0.00225921
0.00177581
0.00133264
0.00096704
0.000689095
0.000485267
0.000326175
0.000177973
2.33913e-05
8.3609e-05
0.000510186
0.000798866
0.00097462
0.0010958
0.00119846
0.00130918
0.00144528
0.00161221
0.00180244
0.00199791
0.00217523
0.00230768
0.00236881
0.00237911
0.00234295
0.0022723
0.00216586
0.00204719
0.00193981
0.00184334
0.00175938
0.00168488
0.00161853
0.00155928
0.00150574
0.00145822
0.00141622
0.00137974
0.0013485
0.00132227
0.00130071
0.00128341
0.00126996
0.00125985
0.00125262
0.00124801
0.00124581
0.00124509
0.00124579
0.00124842
0.00125233
0.00125793
0.00126501
0.00127372
0.00128414
0.00129641
0.00131073
0.00132731
0.00134643
0.00136834
0.00139317
0.0014212
0.00145272
0.00148805
0.00152747
0.00157196
0.00162316
0.00168456
0.00176285
0.00186893
0.00202292
0.00225282
0.0025386
0.00285185
0.00316727
0.00341756
0.00352997
0.00354635
0.00343733
0.0031148
0.00265634
0.00212503
0.00159553
0.00113293
0.000772586
0.00051344
0.000328039
0.000169298
2.19944e-05
0.000109538
0.000632138
0.000961259
0.00115862
0.00129457
0.0014098
0.00153236
0.0016777
0.00184651
0.00202565
0.00219309
0.00232017
0.0023781
0.00238643
0.00234997
0.00226698
0.00214413
0.00201464
0.00189459
0.00178926
0.00169626
0.00161483
0.00154239
0.00147818
0.00142147
0.0013719
0.00132955
0.00129399
0.00126497
0.00124188
0.00122414
0.00121102
0.00120178
0.00119572
0.00119267
0.00119146
0.00119132
0.00119314
0.00119589
0.00119981
0.00120481
0.00121087
0.00121812
0.00122661
0.00123652
0.001248
0.00126122
0.00127638
0.00129363
0.00131312
0.00133495
0.00135922
0.001386
0.00141538
0.00144751
0.00148268
0.00152042
0.00156104
0.00160525
0.00165539
0.00171708
0.00180082
0.00192455
0.00211968
0.00241587
0.00276459
0.00313562
0.0034385
0.0035751
0.00359604
0.00346794
0.00308721
0.00255609
0.00196184
0.00139585
0.000928154
0.000582944
0.000346405
0.000170538
2.20193e-05
0.000141415
0.000760908
0.00113341
0.00135177
0.00150026
0.00162367
0.00175083
0.0018947
0.00205144
0.0022037
0.00232434
0.00238045
0.00238851
0.00235266
0.00226152
0.00212806
0.00198996
0.00185899
0.00174347
0.00164299
0.0015548
0.00147767
0.00140999
0.00135148
0.00130172
0.00126044
0.00122725
0.00120137
0.00118198
0.00116806
0.00115864
0.00115284
0.00115001
0.00114894
0.00114885
0.00115024
0.00115233
0.00115533
0.00115888
0.00116324
0.00116842
0.00117457
0.00118187
0.00119052
0.00120073
0.00121272
0.00122672
0.00124294
0.00126156
0.00128272
0.00130653
0.00133299
0.00136202
0.00139343
0.00142693
0.00146216
0.00149891
0.00153723
0.00157709
0.00161786
0.00166132
0.00171218
0.00177943
0.00188076
0.00204806
0.00233047
0.00271192
0.00313268
0.00347717
0.00362671
0.00364271
0.00347481
0.00301377
0.00240394
0.0017544
0.00117064
0.000716042
0.000398062
0.000183236
2.35062e-05
0.000177154
0.000897086
0.00131165
0.00154917
0.00170666
0.00183238
0.00195542
0.00208632
0.00221763
0.00232842
0.0023823
0.0023908
0.00235572
0.00226227
0.00212315
0.00197494
0.00183447
0.00170875
0.00160013
0.00150608
0.00142444
0.00135425
0.00129463
0.0012453
0.00120564
0.00117489
0.001152
0.00113568
0.00112468
0.00111771
0.0011139
0.00111214
0.00111153
0.00111147
0.00111216
0.00111334
0.00111484
0.0011168
0.00111926
0.00112245
0.00112654
0.00113176
0.00113834
0.00114652
0.00115654
0.00116866
0.00118313
0.00120018
0.00122005
0.00124292
0.00126895
0.00129821
0.00133065
0.00136607
0.00140404
0.00144394
0.00148493
0.00152613
0.0015669
0.00160732
0.00164696
0.00168639
0.00172943
0.00178521
0.00187191
0.00202152
0.00228392
0.00269116
0.003157
0.0035278
0.00367578
0.00367577
0.00342441
0.00286917
0.00218011
0.00149528
0.000920165
0.000501715
0.000218832
2.82861e-05
0.000215702
0.00103738
0.00149153
0.00174546
0.00190757
0.00202889
0.00213872
0.00224578
0.00234055
0.00239001
0.00239846
0.0023631
0.00227138
0.00212984
0.00197331
0.00182211
0.00168653
0.00156898
0.00146858
0.00138266
0.0013098
0.00124923
0.00120018
0.00116186
0.00113305
0.00111233
0.00109811
0.00108882
0.00108304
0.00107958
0.00107753
0.00107616
0.00107505
0.00107405
0.00107324
0.00107258
0.00107227
0.00107222
0.00107294
0.00107452
0.00107729
0.00108142
0.00108716
0.00109476
0.00110443
0.00111645
0.00113104
0.00114848
0.00116903
0.00119295
0.00122048
0.0012518
0.00128704
0.00132615
0.00136886
0.00141461
0.00146244
0.001511
0.00155866
0.00160382
0.00164566
0.00168375
0.00171988
0.00175885
0.00180657
0.00188439
0.00202141
0.0022731
0.00270064
0.00320652
0.0035855
0.00372153
0.00366413
0.0032952
0.00262855
0.00187696
0.00118788
0.00065479
0.000285742
3.81792e-05
0.000255819
0.00117813
0.00166836
0.00193541
0.0020973
0.00220746
0.00229563
0.00236997
0.00241042
0.00241686
0.00237874
0.00229075
0.00214942
0.00198653
0.00182453
0.00167765
0.00155054
0.00144259
0.00135171
0.00127575
0.0012136
0.00116428
0.00112652
0.00109881
0.00107931
0.00106614
0.00105748
0.00105178
0.00104782
0.0010447
0.00104183
0.00103888
0.00103577
0.00103259
0.00102946
0.00102656
0.0010241
0.0010225
0.00102187
0.00102189
0.00102369
0.00102701
0.00103215
0.00103929
0.00104863
0.00106041
0.00107486
0.00109223
0.00111281
0.00113691
0.00116486
0.00119697
0.00123353
0.00127475
0.00132066
0.00137101
0.00142518
0.00148195
0.00153949
0.00159534
0.00164673
0.00169202
0.00173019
0.00175847
0.00179237
0.00183877
0.00191053
0.00204224
0.00229472
0.00274388
0.00328598
0.0036386
0.00373652
0.00359229
0.00305307
0.00228474
0.00150067
0.000849265
0.000376156
5.21287e-05
0.000296219
0.00131574
0.00183777
0.00211433
0.00227105
0.00236386
0.00242276
0.0024499
0.00245108
0.00240716
0.00232266
0.00218319
0.00201593
0.00184362
0.0016841
0.00154557
0.00142871
0.00133138
0.00125129
0.00118661
0.00113601
0.0010979
0.00107032
0.00105112
0.00103811
0.00102929
0.00102299
0.00101796
0.00101335
0.00100864
0.00100363
0.000998306
0.000992805
0.000987332
0.000982125
0.000977427
0.000973493
0.000970561
0.000969084
0.0009686
0.000969626
0.000972619
0.000977443
0.000984332
0.000993435
0.00100494
0.00101907
0.00103605
0.00105617
0.00107976
0.00110718
0.00113885
0.00117521
0.00121666
0.00126356
0.00131608
0.00137406
0.00143685
0.00150309
0.00157047
0.00163568
0.00169464
0.00174499
0.00178552
0.00180548
0.00183204
0.00187759
0.00194662
0.00208025
0.00234652
0.00282547
0.00339401
0.00367315
0.00370829
0.00341385
0.00269165
0.00184141
0.00107422
0.000484161
6.92066e-05
0.000335766
0.00144652
0.00199608
0.0022788
0.00242495
0.00249187
0.00251323
0.00250319
0.00245367
0.00237016
0.00223274
0.00206282
0.00188115
0.00170801
0.00155577
0.00142768
0.00132203
0.00123611
0.00116759
0.0011145
0.00107491
0.0010465
0.00102677
0.00101324
0.0010037
0.000996396
0.000990031
0.000983784
0.000977218
0.000970196
0.000962786
0.000955181
0.000947638
0.000940425
0.000933806
0.00092802
0.000923288
0.000919791
0.000918006
0.000917387
0.00091819
0.000921152
0.000925916
0.000932722
0.000941671
0.000952926
0.000966666
0.000983108
0.00100251
0.0010252
0.00105154
0.00108199
0.00111705
0.00115728
0.00120327
0.00125553
0.00131442
0.00137992
0.00145143
0.00152744
0.00160522
0.00168059
0.00174804
0.00180388
0.00184204
0.00185725
0.00187581
0.00192015
0.00199065
0.00213354
0.00243052
0.00295685
0.00349409
0.00370804
0.00361577
0.00306825
0.00219815
0.00132255
0.000604243
8.83607e-05
0.000374119
0.00156788
0.00214056
0.00242371
0.00255207
0.00259099
0.00258154
0.00252725
0.00243501
0.0023003
0.00212862
0.00193885
0.00175172
0.00158344
0.0014411
0.00132448
0.00123058
0.0011564
0.00109939
0.00105708
0.00102684
0.00100579
0.000991176
0.000980566
0.000972049
0.000964282
0.000956443
0.000948142
0.000939302
0.000930049
0.000920626
0.000911322
0.000902429
0.000894211
0.000886902
0.000880698
0.000875761
0.000872254
0.00087053
0.000869974
0.000870941
0.000874021
0.000878862
0.000885667
0.000894516
0.000905543
0.000918902
0.000934781
0.000953414
0.000975088
0.00100016
0.00102906
0.00106231
0.00110054
0.00114444
0.00119477
0.00125224
0.00131742
0.00139047
0.00147086
0.00155693
0.00164548
0.00173137
0.00180743
0.00186829
0.00190106
0.0019122
0.00192354
0.00196607
0.0020419
0.00220245
0.00254814
0.00312703
0.00356549
0.00367703
0.0033869
0.00255912
0.00159076
0.000733098
0.000108755
0.000409753
0.00167777
0.00226622
0.00254433
0.0026526
0.00266951
0.00262168
0.0025232
0.00239011
0.00221523
0.0020184
0.0018176
0.00163146
0.0014715
0.0013404
0.00123566
0.00115356
0.00109082
0.0010444
0.00101121
0.000988069
0.000971861
0.000959898
0.000950079
0.000940951
0.000931661
0.000921829
0.000911413
0.000900586
0.000889627
0.000878849
0.000868555
0.00085901
0.000850431
0.000842995
0.000836838
0.000832063
0.000828863
0.000827359
0.000826951
0.000828221
0.000831446
0.000836383
0.000843191
0.000851939
0.000862746
0.000875743
0.000891097
0.000909011
0.00092974
0.000953597
0.000980979
0.00101238
0.00104839
0.00108976
0.00113732
0.00119202
0.00125481
0.00132649
0.0014074
0.00149708
0.0015937
0.00169348
0.00179022
0.00187506
0.00193626
0.00196142
0.0019682
0.00197371
0.00201597
0.00210116
0.00229272
0.00271972
0.00332534
0.00360599
0.0035486
0.00290008
0.00187354
0.000867367
0.000129742
0.000441284
0.00177322
0.00237115
0.00264128
0.00273045
0.00272498
0.00263896
0.00250308
0.00232585
0.00212173
0.00190797
0.00170303
0.00152224
0.00137251
0.00125317
0.00116023
0.00108951
0.00103724
0.000999843
0.000973703
0.000955357
0.000941774
0.000930595
0.000920196
0.000909631
0.000898493
0.000886751
0.000874604
0.000862357
0.000850343
0.00083887
0.0008282
0.000818536
0.000810035
0.000802808
0.000796937
0.000792482
0.000789655
0.000788394
0.000788135
0.00078966
0.000792972
0.000797943
0.000804695
0.000813301
0.000823867
0.000836514
0.00085139
0.000868674
0.000888588
0.000911405
0.00093747
0.000967218
0.0010012
0.00104009
0.00108476
0.00113621
0.00119559
0.0012641
0.00134278
0.00143219
0.00153185
0.00163958
0.00175074
0.00185766
0.00194963
0.00200721
0.00202223
0.00202336
0.002023
0.00207018
0.00217006
0.00241968
0.00294746
0.00345543
0.00359234
0.00320183
0.00216588
0.00100286
0.000151839
0.000467852
0.00185272
0.00245424
0.00271455
0.00278905
0.00275677
0.00263459
0.00246147
0.00225145
0.00202513
0.00180132
0.00159733
0.00142461
0.001286
0.00117838
0.00109678
0.0010365
0.000993285
0.000963037
0.000941855
0.000926304
0.000913673
0.000902079
0.000890414
0.000878191
0.000865356
0.000852112
0.000838785
0.000825721
0.000813236
0.000801586
0.000790964
0.000781507
0.000773307
0.000766424
0.000760899
0.000756761
0.000754225
0.000753136
0.000752973
0.000754609
0.000757905
0.000762804
0.000769412
0.000777808
0.000788092
0.000800382
0.000814813
0.000831548
0.00085078
0.000872747
0.000897745
0.000926148
0.000958433
0.000995211
0.00103726
0.00108557
0.00114133
0.00120595
0.00128089
0.00136749
0.00146648
0.0015773
0.00169716
0.00181999
0.00193555
0.00202916
0.002076
0.00208397
0.00207546
0.00207009
0.00212508
0.00225991
0.00261161
0.00321692
0.00351115
0.00338503
0.00245814
0.00114345
0.000174722
0.000489074
0.00191621
0.00251659
0.0027663
0.00282742
0.00276853
0.00261744
0.002408
0.0021715
0.00192933
0.00170094
0.00150144
0.00133833
0.00121107
0.00111473
0.0010436
0.000992495
0.000956673
0.000931704
0.00091366
0.000899377
0.000886605
0.000873981
0.000860869
0.000847147
0.000833002
0.000818766
0.000804798
0.000791421
0.000778893
0.000767398
0.000757058
0.000747947
0.000740107
0.000733561
0.000728325
0.00072441
0.00072201
0.000720983
0.00072084
0.000722415
0.000725575
0.000730288
0.000736657
0.000744767
0.000754719
0.00076663
0.00078063
0.000796869
0.000815524
0.000836802
0.000860958
0.000888312
0.000919269
0.000954354
0.000994253
0.00103985
0.0010923
0.001153
0.00122363
0.00130601
0.00140176
0.00151178
0.00163533
0.00176886
0.00190481
0.00203059
0.00211446
0.00214347
0.00214412
0.00212375
0.00211834
0.00218885
0.00239305
0.00288926
0.00336614
0.00345161
0.00275484
0.00130827
0.000201895
0.000504789
0.00196427
0.00255953
0.00279814
0.00284695
0.0027635
0.00258315
0.00234671
0.0020896
0.001837
0.00160821
0.00141552
0.00126272
0.00114655
0.00106074
0.000998968
0.000955585
0.000925486
0.000904138
0.000887809
0.000873758
0.00086025
0.000846407
0.00083198
0.000817102
0.000802099
0.000787341
0.000773164
0.000759829
0.000747518
0.000736344
0.000726366
0.00071761
0.000710085
0.000703791
0.000698729
0.00069491
0.000692476
0.00069139
0.00069119
0.000692545
0.000695456
0.000699882
0.000705925
0.000713677
0.000723245
0.000734747
0.000748312
0.000764085
0.000782228
0.000802932
0.000826419
0.000852963
0.000882909
0.000916702
0.000954926
0.000998353
0.00104801
0.00110523
0.00117169
0.0012494
0.00134055
0.00144703
0.00156972
0.00170721
0.00185431
0.00200049
0.00212899
0.00219849
0.00221168
0.00219159
0.00216342
0.00216886
0.00227871
0.00261244
0.00319785
0.00344507
0.00303238
0.00151733
0.000238098
0.00051526
0.00199785
0.002584
0.00281027
0.00284708
0.00274663
0.00253977
0.002281
0.00200848
0.0017499
0.00152372
0.00133922
0.00119684
0.00109118
0.00101494
0.000961267
0.000924133
0.000898248
0.000879181
0.000863559
0.00084913
0.000834656
0.000819673
0.000804213
0.000788568
0.000773115
0.000758205
0.000744113
0.000731026
0.000719052
0.000708241
0.000698606
0.000690141
0.000682833
0.000676674
0.000671662
0.000667812
0.000665196
0.000663941
0.000663613
0.000664628
0.000667193
0.00067125
0.000676895
0.00068423
0.000693367
0.000704427
0.000717542
0.000732855
0.000750522
0.00077072
0.000793652
0.000819558
0.000848735
0.000881559
0.000918522
0.000960283
0.00100773
0.00106206
0.00112486
0.00119814
0.00128435
0.00138609
0.00150556
0.00164349
0.00179749
0.00196009
0.00211708
0.00223176
0.00227546
0.00227604
0.00222166
0.00219088
0.00223094
0.00241957
0.00293463
0.00331553
0.00322028
0.00177389
0.000285272
0.000520507
0.0020172
0.00259098
0.00280765
0.00283736
0.00271575
0.00248958
0.00221347
0.00193008
0.00166903
0.00144754
0.00127189
0.00113966
0.00104371
0.000975959
0.000929099
0.000896848
0.000873915
0.000856132
0.000840568
0.00082547
0.00081004
0.000794128
0.000777958
0.000761895
0.000746309
0.000731496
0.000717659
0.000704908
0.000693291
0.00068281
0.000673446
0.000665174
0.000657973
0.000651832
0.000646756
0.000642762
0.000639884
0.000638351
0.000637837
0.000638432
0.000640581
0.000644208
0.000649404
0.000656277
0.000664943
0.00067553
0.000688172
0.000703015
0.000720214
0.000739939
0.00076238
0.000787757
0.000816328
0.000848418
0.000884443
0.00092496
0.000970725
0.00102278
0.00108253
0.0011519
0.00123334
0.00132977
0.00144426
0.00157912
0.00173439
0.00190562
0.00208155
0.00224229
0.00233196
0.00235007
0.00231794
0.00224335
0.00222208
0.00232243
0.00270131
0.00320734
0.00329944
0.00206951
0.000341265
0.000520253
0.00202491
0.00258683
0.0027949
0.00281422
0.00267652
0.00243509
0.00214613
0.00185574
0.00159489
0.00137941
0.00121277
0.00109014
0.00100299
0.000942603
0.00090133
0.00087278
0.000851807
0.000834614
0.000818744
0.000802902
0.000786648
0.000770063
0.000753476
0.000737268
0.000721764
0.000707193
0.00069368
0.000681275
0.000669976
0.000659753
0.000650568
0.000642389
0.000635193
0.000628974
0.000623742
0.000619522
0.000616352
0.000614443
0.000613691
0.000613841
0.000615525
0.000618683
0.000623395
0.000629773
0.00063794
0.000648026
0.000660172
0.000674526
0.000691246
0.000710502
0.000732478
0.00075738
0.000785444
0.000816956
0.000852274
0.000891868
0.000936377
0.000986688
0.00104404
0.00111016
0.00118739
0.00127873
0.00138774
0.00151794
0.00167153
0.00184718
0.0020372
0.00222506
0.00236557
0.00241715
0.00241107
0.00232361
0.00225785
0.00227871
0.00249909
0.00306122
0.00331035
0.00239445
0.000404977
0.000517445
0.00202344
0.00257273
0.00276826
0.00277931
0.00263068
0.00237825
0.0020805
0.00178629
0.00152761
0.00131887
0.00116105
0.0010473
0.000967991
0.000913871
0.000877086
0.000851261
0.000831513
0.000814464
0.000798121
0.000781585
0.000764691
0.000747671
0.000730901
0.000714737
0.000699442
0.000685171
0.000671988
0.00065989
0.000648842
0.000638795
0.000629702
0.000621529
0.000614258
0.000607892
0.000602447
0.000597958
0.000594476
0.000592129
0.000591035
0.000590832
0.000592003
0.000594669
0.00059888
0.000604746
0.000612392
0.000621956
0.000633582
0.000647423
0.000663643
0.000682415
0.000703922
0.000728366
0.00075597
0.000786994
0.000821753
0.000860651
0.00090423
0.00095324
0.00100875
0.00107227
0.00114593
0.00123264
0.00133612
0.00146061
0.00160992
0.00178542
0.00198288
0.00218876
0.00237735
0.00247777
0.00249497
0.00243316
0.00230888
0.00227061
0.00239086
0.00285077
0.00320964
0.0026984
0.000466665
0.000511193
0.00201606
0.00254588
0.00273165
0.00273637
0.00258015
0.0023206
0.00201763
0.00172222
0.00146709
0.00126539
0.00111596
0.00101027
0.00093782
0.000888958
0.000855714
0.000831846
0.000812801
0.000795638
0.000778782
0.00076166
0.00074431
0.000727053
0.000710265
0.000694257
0.000679226
0.000665261
0.000652373
0.000640523
0.000629653
0.000619705
0.00061063
0.000602398
0.000594999
0.000588441
0.000582751
0.00057797
0.000574156
0.000571379
0.000569867
0.000569376
0.000570032
0.000572201
0.000575906
0.000581253
0.000588369
0.000597395
0.00060848
0.000621785
0.000637477
0.000655737
0.000676753
0.000700727
0.000727878
0.000758452
0.000792737
0.000831087
0.000873966
0.000922012
0.000976128
0.00103763
0.0011084
0.00119115
0.00128953
0.00140815
0.00155198
0.00172477
0.00192604
0.00214695
0.00236633
0.00252083
0.00256903
0.00254156
0.0023988
0.00230242
0.00233727
0.00268781
0.00309941
0.00292017
0.000512143
0.000501582
0.00200025
0.0025111
0.00268769
0.0026873
0.00252654
0.00226337
0.00195828
0.00166375
0.00141309
0.00121838
0.00107674
0.000978267
0.000911744
0.000867232
0.000836745
0.000814246
0.000795555
0.000778145
0.000760805
0.000743223
0.000725575
0.000708225
0.000691524
0.000675726
0.000660966
0.000647278
0.000634633
0.000622967
0.000612209
0.000602297
0.000593187
0.000584853
0.000577294
0.000570524
0.000564576
0.000559498
0.000555348
0.000552194
0.00055024
0.000549461
0.000549646
0.000551326
0.000554531
0.000559362
0.000565946
0.000574425
0.000584955
0.0005977
0.000612836
0.000630551
0.000651041
0.000674515
0.000701195
0.000731321
0.000765166
0.000803052
0.000845384
0.000892707
0.000945788
0.00100575
0.00107425
0.0011537
0.00124758
0.00136052
0.00149814
0.00166587
0.00186625
0.00209446
0.00233319
0.00254044
0.00263426
0.00263877
0.00251628
0.00234777
0.00231685
0.00253213
0.00299443
0.00302131
0.000531403
0.000489074
0.00197809
0.00246979
0.00263848
0.00263363
0.00247118
0.00220746
0.0019029
0.0016109
0.00136525
0.00117728
0.00104273
0.000950621
0.000889158
0.000848207
0.000819839
0.000798278
0.000779716
0.000762006
0.000744247
0.000726321
0.000708497
0.000691148
0.000674586
0.000659011
0.0006445
0.000631046
0.000618588
0.000607047
0.000596347
0.000586427
0.000577247
0.000568789
0.000561057
0.000554074
0.000547876
0.000542516
0.000538055
0.000534565
0.000532179
0.000531062
0.000530885
0.000532087
0.000534807
0.000539133
0.00054519
0.000553121
0.000563085
0.000575252
0.000589806
0.000606942
0.000626868
0.000649801
0.000675972
0.000705627
0.00073903
0.000776487
0.000818362
0.000865127
0.000917438
0.000976249
0.00104299
0.0011198
0.00120985
0.00131766
0.00144912
0.00161091
0.00180829
0.00204081
0.0022961
0.00254398
0.00269312
0.0027259
0.00264237
0.00242106
0.00231671
0.00241998
0.0028961
0.00304894
0.00053431
0.000474314
0.00195166
0.00242371
0.00258522
0.00257696
0.00241515
0.00215356
0.00185176
0.00156358
0.0013232
0.00114154
0.00101334
0.000926762
0.000869571
0.000831507
0.000804754
0.000783819
0.000765249
0.000747236
0.000729129
0.000710956
0.000693041
0.000675745
0.000659341
0.000643973
0.000629675
0.000616404
0.000604082
0.000592619
0.000581938
0.000571981
0.000562714
0.000554126
0.000546227
0.000539043
0.000532616
0.000527
0.000522258
0.000518464
0.000515702
0.000514204
0.000513753
0.000514507
0.000516766
0.000520606
0.000526148
0.000533536
0.00054293
0.000554506
0.000568455
0.000584981
0.000604303
0.000626651
0.000652269
0.000681411
0.000714348
0.000751375
0.000792834
0.000839146
0.000890875
0.000948833
0.00101424
0.00108896
0.00117585
0.00127913
0.00140469
0.00155986
0.00175193
0.00198418
0.00224961
0.00252412
0.00273318
0.00280165
0.0027565
0.00253925
0.00236125
0.00236726
0.00274947
0.00302386
0.000524643
0.000457975
0.00192258
0.00237437
0.00252912
0.00251854
0.00235935
0.00210211
0.00180495
0.00152155
0.00128655
0.00111068
0.000988052
0.000906213
0.000852585
0.000816842
0.000791311
0.000770781
0.000752129
0.000733833
0.000715443
0.000697096
0.000679141
0.000661922
0.000645667
0.000630477
0.000616349
0.000603216
0.000590985
0.000579564
0.000568877
0.00055887
0.000549514
0.000540803
0.000532752
0.000525391
0.000518763
0.000512923
0.000507934
0.000503868
0.0005008
0.000498936
0.000498233
0.000498586
0.000500415
0.000503793
0.000508839
0.000515694
0.000524521
0.0005355
0.000548828
0.000564718
0.000583401
0.000605122
0.000630138
0.000658718
0.000691146
0.000727721
0.000768771
0.000814685
0.000865958
0.000923284
0.000987702
0.00106082
0.00114517
0.0012446
0.00136481
0.00151345
0.00169924
0.00192869
0.00219946
0.00249166
0.00275255
0.00286996
0.00286497
0.00266608
0.00240342
0.00234861
0.00263093
0.00296784
0.000509612
0.000440533
0.0018916
0.00232296
0.00247131
0.00245942
0.00230445
0.00205344
0.00176246
0.00148459
0.00125489
0.00108425
0.000966416
0.00088857
0.000837879
0.000803983
0.000779369
0.000759094
0.000740322
0.000721774
0.000703158
0.000684684
0.000666718
0.000649574
0.000633447
0.000618398
0.000604397
0.000591361
0.000579189
0.000567786
0.000557079
0.000547019
0.000537581
0.000528764
0.000520585
0.000513076
0.000506281
0.000500255
0.00049506
0.000490763