/*--------------------------------*- C++ -*----------------------------------*\
  =========                 |
  \\      /  F ield         | OpenFOAM: The Open Source CFD Toolbox
   \\    /   O peration     | Website:  https://openfoam.org
    \\  /    A nd           | Version:  13
     \\/     M anipulation  |
\*---------------------------------------------------------------------------*/
FoamFile
{
    format      ascii;
    class       volScalarField;
    location    "5";
    object      nut;
}
// * * * * * * * * * * * * * * * * * * * * * * * * * * * * * * * * * * * * * //

dimensions      [0 2 -1 0 0 0 0];

internalField   nonuniform List<scalar> 
6400
(
8.11327e-10
4.15873e-09
1.00266e-08
1.61765e-08
2.08985e-08
2.36338e-08
2.47169e-08
2.49189e-08
2.51177e-08
2.60635e-08
2.8306e-08
3.26315e-08
3.94906e-08
4.90543e-08
6.09176e-08
7.44834e-08
8.91273e-08
1.04541e-07
1.20139e-07
1.35407e-07
1.50617e-07
1.66903e-07
1.85883e-07
2.0894e-07
2.35785e-07
2.64058e-07
2.92054e-07
3.19859e-07
3.48102e-07
3.77468e-07
4.07901e-07
4.38232e-07
4.68068e-07
4.97119e-07
5.26211e-07
5.55585e-07
5.85876e-07
6.1738e-07
6.5051e-07
6.85489e-07
7.22527e-07
7.61897e-07
8.03847e-07
8.48787e-07
8.96971e-07
9.4939e-07
1.00816e-06
1.07788e-06
1.16324e-06
1.2436e-06
1.32738e-06
1.40777e-06
1.48557e-06
1.55716e-06
1.62062e-06
1.67281e-06
1.70725e-06
1.72352e-06
1.72876e-06
1.70923e-06
1.66096e-06
1.58635e-06
1.4859e-06
1.36181e-06
1.219e-06
1.062e-06
9.01021e-07
7.42345e-07
5.92118e-07
4.54346e-07
3.44291e-07
2.51539e-07
1.76039e-07
1.17877e-07
7.5796e-08
4.69733e-08
2.81116e-08
1.59783e-08
7.48367e-09
1.58846e-09
3.93553e-09
2.82996e-07
1.0165e-06
1.72874e-06
2.26501e-06
2.58706e-06
2.73959e-06
2.79698e-06
2.83399e-06
2.90648e-06
3.07981e-06
3.41544e-06
3.8925e-06
4.45818e-06
5.05778e-06
5.63196e-06
6.13922e-06
6.53795e-06
6.8076e-06
6.95292e-06
7.02688e-06
7.10363e-06
7.24116e-06
7.48248e-06
7.79702e-06
8.067e-06
8.27652e-06
8.50111e-06
8.78236e-06
9.15639e-06
9.64803e-06
1.01952e-05
1.07941e-05
1.14114e-05
1.20622e-05
1.2737e-05
1.34418e-05
1.41743e-05
1.49377e-05
1.57334e-05
1.65563e-05
1.74067e-05
1.82821e-05
1.92039e-05
2.01605e-05
2.1128e-05
2.20657e-05
2.29448e-05
2.37401e-05
2.46151e-05
2.54738e-05
2.63465e-05
2.72006e-05
2.80248e-05
2.87942e-05
2.95252e-05
3.01085e-05
3.04101e-05
3.07007e-05
3.07888e-05
3.05782e-05
3.00404e-05
2.91911e-05
2.79889e-05
2.64491e-05
2.45896e-05
2.25321e-05
2.03028e-05
1.79232e-05
1.54815e-05
1.26384e-05
9.83824e-06
7.33526e-06
5.2549e-06
3.63693e-06
2.45258e-06
1.62116e-06
1.03135e-06
4.61022e-07
8.38853e-09
8.62646e-09
7.4486e-07
3.04213e-06
5.35066e-06
7.14175e-06
8.31624e-06
8.98219e-06
9.32299e-06
9.52438e-06
9.75364e-06
1.01421e-05
1.0764e-05
1.16007e-05
1.2565e-05
1.35437e-05
1.4422e-05
1.51526e-05
1.57101e-05
1.60885e-05
1.62973e-05
1.63523e-05
1.6316e-05
1.62739e-05
1.62704e-05
1.63334e-05
1.65337e-05
1.68612e-05
1.71664e-05
1.74952e-05
1.78369e-05
1.82459e-05
1.87864e-05
1.96468e-05
2.05753e-05
2.16185e-05
2.27344e-05
2.39283e-05
2.51742e-05
2.64516e-05
2.78075e-05
2.91931e-05
3.05786e-05
3.19875e-05
3.33387e-05
3.46318e-05
3.5873e-05
3.70944e-05
3.82986e-05
3.95087e-05
4.07319e-05
4.19442e-05
4.3145e-05
4.43158e-05
4.54409e-05
4.64961e-05
4.74522e-05
4.82591e-05
4.88979e-05
4.92085e-05
4.94647e-05
4.93972e-05
4.90297e-05
4.83271e-05
4.71696e-05
4.54914e-05
4.32142e-05
4.05715e-05
3.75844e-05
3.42437e-05
3.06073e-05
2.66792e-05
2.25891e-05
1.85353e-05
1.47255e-05
1.13452e-05
8.4826e-06
6.18426e-06
4.2156e-06
1.73872e-06
2.22844e-08
1.49785e-08
1.2283e-06
4.83247e-06
8.35728e-06
1.11108e-05
1.30132e-05
1.41991e-05
1.48753e-05
1.52756e-05
1.56249e-05
1.61052e-05
1.6834e-05
1.77967e-05
1.88659e-05
1.98866e-05
2.07533e-05
2.14011e-05
2.18193e-05
2.20287e-05
2.20775e-05
2.202e-05
2.19491e-05
2.19362e-05
2.20345e-05
2.20979e-05
2.21081e-05
2.20646e-05
2.22914e-05
2.28816e-05
2.37261e-05
2.49021e-05
2.60749e-05
2.72614e-05
2.84722e-05
2.9756e-05
3.10419e-05
3.23105e-05
3.36255e-05
3.49495e-05
3.62122e-05
3.74646e-05
3.8678e-05
3.98652e-05
4.10065e-05
4.21099e-05
4.31616e-05
4.42142e-05
4.52614e-05
4.63078e-05
4.73483e-05
4.83745e-05
4.9379e-05
5.03489e-05
5.12698e-05
5.21223e-05
5.28837e-05
5.3527e-05
5.40252e-05
5.43369e-05
5.44565e-05
5.43526e-05
5.40014e-05
5.32502e-05
5.24492e-05
5.13299e-05
4.95579e-05
4.73251e-05
4.46125e-05
4.14868e-05
3.79937e-05
3.41657e-05
3.00598e-05
2.57701e-05
2.14542e-05
1.73103e-05
1.35283e-05
1.02148e-05
7.10034e-06
2.90631e-06
3.66807e-08
2.39785e-08
1.84741e-06
6.75241e-06
1.13158e-05
1.47535e-05
1.70827e-05
1.85176e-05
1.93236e-05
1.97925e-05
2.02257e-05
2.08634e-05
2.17925e-05
2.29234e-05
2.40724e-05
2.50687e-05
2.58124e-05
2.62746e-05
2.64802e-05
2.64739e-05
2.63684e-05
2.6159e-05
2.60146e-05
2.58727e-05
2.53397e-05
2.51164e-05
2.54405e-05
2.63139e-05
2.73567e-05
2.85098e-05
2.97436e-05
3.09916e-05
3.22226e-05
3.34333e-05
3.46117e-05
3.57515e-05
3.67889e-05
3.78215e-05
3.88455e-05
3.97156e-05
4.05397e-05
4.1285e-05
4.1968e-05
4.26103e-05
4.32277e-05
4.38441e-05
4.44864e-05
4.5117e-05
4.57503e-05
4.63872e-05
4.70312e-05
4.76844e-05
4.83484e-05
4.90213e-05
4.97001e-05
5.03779e-05
5.10455e-05
5.16874e-05
5.22817e-05
5.27954e-05
5.31748e-05
5.33408e-05
5.33294e-05
5.29272e-05
5.19675e-05
5.0964e-05
4.99817e-05
4.82704e-05
4.61101e-05
4.35201e-05
4.05427e-05
3.72113e-05
3.35514e-05
2.95929e-05
2.54079e-05
2.11656e-05
1.70807e-05
1.32228e-05
9.22939e-06
3.70439e-06
4.63109e-08
3.67934e-08
2.68255e-06
9.02259e-06
1.45567e-05
1.84882e-05
2.10077e-05
2.2469e-05
2.32532e-05
2.37536e-05
2.43239e-05
2.51681e-05
2.62764e-05
2.74802e-05
2.85719e-05
2.9399e-05
2.98961e-05
3.00735e-05
3.00263e-05
2.96492e-05
2.93215e-05
2.90274e-05
2.80939e-05
2.78284e-05
2.83501e-05
2.92314e-05
3.02447e-05
3.13566e-05
3.2492e-05
3.36056e-05
3.4666e-05
3.56425e-05
3.65917e-05
3.74601e-05
3.81938e-05
3.88829e-05
3.94444e-05
3.99397e-05
4.04183e-05
4.07849e-05
4.11105e-05
4.13976e-05
4.16618e-05
4.19009e-05
4.21198e-05
4.23262e-05
4.25226e-05
4.27082e-05
4.28936e-05
4.30858e-05
4.32943e-05
4.35295e-05
4.38043e-05
4.41305e-05
4.45195e-05
4.49781e-05
4.55007e-05
4.60875e-05
4.67397e-05
4.74249e-05
4.81001e-05
4.87209e-05
4.9211e-05
4.94167e-05
4.93723e-05
4.85978e-05
4.79385e-05
4.686e-05
4.5272e-05
4.31857e-05
4.06758e-05
3.78094e-05
3.46315e-05
3.11469e-05
2.73217e-05
2.32405e-05
1.90828e-05
1.49413e-05
1.04416e-05
4.07014e-06
4.95502e-08
5.45706e-08
3.77807e-06
1.16839e-05
1.80923e-05
2.23403e-05
2.48724e-05
2.62271e-05
2.6933e-05
2.74728e-05
2.81879e-05
2.91851e-05
3.03533e-05
3.14783e-05
3.23639e-05
3.28987e-05
3.30639e-05
3.27647e-05
3.23498e-05
3.19761e-05
3.09145e-05
3.04888e-05
3.07439e-05
3.15611e-05
3.23021e-05
3.31665e-05
3.40776e-05
3.49853e-05
3.58305e-05
3.65976e-05
3.73187e-05
3.79596e-05
3.85113e-05
3.89634e-05
3.93245e-05
3.96213e-05
3.98407e-05
4.00173e-05
4.01509e-05
4.02215e-05
4.02553e-05
4.03048e-05
4.02908e-05
4.02661e-05
4.02182e-05
4.01519e-05
4.00676e-05
3.9967e-05
3.98523e-05
3.97319e-05
3.9609e-05
3.94929e-05
3.93968e-05
3.93433e-05
3.93639e-05
3.95081e-05
3.97755e-05
4.01551e-05
4.07276e-05
4.14732e-05
4.23351e-05
4.3271e-05
4.42329e-05
4.51174e-05
4.57278e-05
4.59389e-05
4.5253e-05
4.49786e-05
4.39747e-05
4.23276e-05
4.0142e-05
3.75272e-05
3.46032e-05
3.14458e-05
2.80312e-05
2.42262e-05
2.01647e-05
1.58602e-05
1.075e-05
4.05639e-06
4.80172e-08
7.83869e-08
5.15475e-06
1.46791e-05
2.18299e-05
2.62262e-05
2.86471e-05
2.98336e-05
3.04541e-05
3.10313e-05
3.18375e-05
3.28689e-05
3.39422e-05
3.48338e-05
3.53813e-05
3.55314e-05
3.5096e-05
3.46578e-05
3.38632e-05
3.30019e-05
3.28455e-05
3.33356e-05
3.37237e-05
3.43458e-05
3.49712e-05
3.57668e-05
3.64777e-05
3.71385e-05
3.77039e-05
3.81895e-05
3.8597e-05
3.89194e-05
3.91674e-05
3.93492e-05
3.94799e-05
3.95713e-05
3.96257e-05
3.96543e-05
3.96547e-05
3.96309e-05
3.95783e-05
3.95159e-05
3.947e-05
3.93487e-05
3.92325e-05
3.90912e-05
3.89352e-05
3.87641e-05
3.85805e-05
3.83764e-05
3.81555e-05
3.79137e-05
3.76517e-05
3.73646e-05
3.70471e-05
3.66896e-05
3.63756e-05
3.62328e-05
3.62802e-05
3.6693e-05
3.73949e-05
3.83098e-05
3.94835e-05
4.0702e-05
4.19462e-05
4.29108e-05
4.33146e-05
4.27499e-05
4.28332e-05
4.17213e-05
3.98863e-05
3.74267e-05
3.45207e-05
3.13775e-05
2.81164e-05
2.46266e-05
2.06727e-05
1.62923e-05
1.08955e-05
3.94941e-06
4.46187e-08
1.09063e-07
6.80383e-06
1.79285e-05
2.56252e-05
3.00554e-05
3.22934e-05
3.32896e-05
3.38208e-05
3.43972e-05
3.51959e-05
3.61213e-05
3.69542e-05
3.74899e-05
3.75756e-05
3.71006e-05
3.66101e-05
3.54765e-05
3.49552e-05
3.49654e-05
3.5025e-05
3.52665e-05
3.57456e-05
3.63125e-05
3.68769e-05
3.74569e-05
3.79247e-05
3.83308e-05
3.86494e-05
3.89075e-05
3.91073e-05
3.9261e-05
3.93812e-05
3.94771e-05
3.9556e-05
3.96201e-05
3.96707e-05
3.9709e-05
3.97308e-05
3.97342e-05
3.97113e-05
3.96916e-05
3.96545e-05
3.95602e-05
3.94772e-05
3.93625e-05
3.92351e-05
3.90835e-05
3.89132e-05
3.87201e-05
3.85028e-05
3.8255e-05
3.79759e-05
3.76572e-05
3.72908e-05
3.68678e-05
3.63767e-05
3.58256e-05
3.52105e-05
3.45558e-05
3.42257e-05
3.45142e-05
3.54339e-05
3.65704e-05
3.80678e-05
3.96055e-05
4.088e-05
4.13767e-05
4.11622e-05
4.12328e-05
3.99856e-05
3.78531e-05
3.49834e-05
3.16678e-05
2.81833e-05
2.46798e-05
2.08703e-05
1.63628e-05
1.06653e-05
3.68034e-06
4.11192e-08
1.46981e-07
8.66549e-06
2.12815e-05
2.93947e-05
3.37682e-05
3.57815e-05
3.65749e-05
3.69923e-05
3.74964e-05
3.81717e-05
3.88619e-05
3.93464e-05
3.93325e-05
3.88655e-05
3.83682e-05
3.72501e-05
3.67598e-05
3.65652e-05
3.62919e-05
3.64878e-05
3.67894e-05
3.72288e-05
3.76653e-05
3.80703e-05
3.84292e-05
3.87042e-05
3.89382e-05
3.91251e-05
3.92915e-05
3.94411e-05
3.95856e-05
3.97283e-05
3.98703e-05
4.00094e-05
4.01414e-05
4.02585e-05
4.03683e-05
4.044e-05
4.04778e-05
4.0529e-05
4.0525e-05
4.05009e-05
4.04404e-05
4.03637e-05
4.02556e-05
4.01279e-05
3.99765e-05
3.98072e-05
3.96205e-05
3.94196e-05
3.92033e-05
3.89599e-05
3.86813e-05
3.83517e-05
3.79527e-05
3.74693e-05
3.68815e-05
3.61716e-05
3.53432e-05
3.44526e-05
3.35592e-05
3.28138e-05
3.32109e-05
3.43599e-05
3.58748e-05
3.76651e-05
3.92949e-05
4.00083e-05
3.98655e-05
3.99694e-05
3.85118e-05
3.59717e-05
3.26324e-05
2.88228e-05
2.49002e-05
2.09509e-05
1.64005e-05
1.05726e-05
3.4816e-06
3.86627e-08
1.92563e-07
1.06002e-05
2.45994e-05
3.30557e-05
3.73177e-05
3.90816e-05
3.9653e-05
3.99086e-05
4.02511e-05
4.06908e-05
4.10421e-05
4.09493e-05
4.04184e-05
3.9866e-05
3.89246e-05
3.82938e-05
3.7813e-05
3.74507e-05
3.73876e-05
3.76122e-05
3.78803e-05
3.82098e-05
3.84995e-05
3.87582e-05
3.89787e-05
3.91681e-05
3.93552e-05
3.95418e-05
3.97429e-05
3.99555e-05
4.01806e-05
4.0411e-05
4.06395e-05
4.08561e-05
4.10854e-05
4.12535e-05
4.13549e-05
4.15053e-05
4.15924e-05
4.16503e-05
4.16661e-05
4.16543e-05
4.16074e-05
4.15332e-05
4.1428e-05
4.1297e-05
4.11399e-05
4.09593e-05
4.07558e-05
4.05302e-05
4.02819e-05
4.00105e-05
3.97155e-05
3.93956e-05
3.90485e-05
3.86695e-05
3.81975e-05
3.75887e-05
3.68014e-05
3.58428e-05
3.4743e-05
3.35805e-05
3.24861e-05
3.1787e-05
3.26281e-05
3.40717e-05
3.60582e-05
3.79425e-05
3.88235e-05
3.87263e-05
3.87896e-05
3.7014e-05
3.40379e-05
3.01584e-05
2.58037e-05
2.13503e-05
1.65609e-05
1.06111e-05
3.49569e-06
3.87056e-08
2.48602e-07
1.23832e-05
2.77835e-05
3.65468e-05
4.06666e-05
4.21616e-05
4.24792e-05
4.25089e-05
4.25963e-05
4.27012e-05
4.25057e-05
4.18754e-05
4.12738e-05
4.0402e-05
3.96652e-05
3.88569e-05
3.84279e-05
3.81868e-05
3.8219e-05
3.83998e-05
3.8595e-05
3.88168e-05
3.90101e-05
3.92034e-05
3.93981e-05
3.96113e-05
3.98541e-05
4.01236e-05
4.04191e-05
4.07295e-05
4.10463e-05
4.13644e-05
4.16888e-05
4.19751e-05
4.21826e-05
4.23835e-05
4.25663e-05
4.27369e-05
4.28369e-05
4.29114e-05
4.29442e-05
4.29446e-05
4.29094e-05
4.28425e-05
4.27434e-05
4.26151e-05
4.24583e-05
4.22749e-05
4.20659e-05
4.18318e-05
4.15726e-05
4.12871e-05
4.09728e-05
4.06259e-05
4.02416e-05
3.98151e-05
3.93433e-05
3.88236e-05
3.82198e-05
3.74206e-05
3.63733e-05
3.51477e-05
3.37697e-05
3.23775e-05
3.11969e-05
3.12316e-05
3.26562e-05
3.46872e-05
3.67226e-05
3.7685e-05
3.76104e-05
3.75399e-05
3.53401e-05
3.18225e-05
2.73642e-05
2.24223e-05
1.72237e-05
1.10212e-05
3.72331e-06
4.13178e-08
3.11432e-07
1.41583e-05
3.08232e-05
3.9834e-05
4.37853e-05
4.49898e-05
4.50116e-05
4.47434e-05
4.44856e-05
4.41192e-05
4.33521e-05
4.2712e-05
4.18082e-05
4.09931e-05
3.99373e-05
3.92643e-05
3.89068e-05
3.87508e-05
3.87974e-05
3.89171e-05
3.90567e-05
3.92266e-05
3.94071e-05
3.96267e-05
3.98846e-05
4.01885e-05
4.05327e-05
4.09064e-05
4.12981e-05
4.16938e-05
4.20974e-05
4.24843e-05
4.28322e-05
4.31247e-05
4.33971e-05
4.3644e-05
4.38383e-05
4.40165e-05
4.41545e-05
4.4248e-05
4.4303e-05
4.43212e-05
4.43029e-05
4.42492e-05
4.41605e-05
4.40386e-05
4.38846e-05
4.37001e-05
4.34868e-05
4.3246e-05
4.29786e-05
4.26844e-05
4.23615e-05
4.20056e-05
4.16099e-05
4.11649e-05
4.06603e-05
4.00873e-05
3.94444e-05
3.87384e-05
3.78965e-05
3.68082e-05
3.54509e-05
3.39265e-05
3.23627e-05
3.0971e-05
3.02066e-05
3.15137e-05
3.35144e-05
3.55856e-05
3.65119e-05
3.64233e-05
3.60119e-05
3.32611e-05
2.91351e-05
2.40781e-05
1.8475e-05
1.20623e-05
4.31352e-06
4.97177e-08
3.79199e-07
1.58898e-05
3.36757e-05
4.28851e-05
4.66491e-05
4.75413e-05
4.72229e-05
4.65895e-05
4.59133e-05
4.49634e-05
4.42815e-05
4.32206e-05
4.23033e-05
4.10615e-05
4.0124e-05
3.95602e-05
3.92636e-05
3.91517e-05
3.9185e-05
3.92736e-05
3.94097e-05
3.9601e-05
3.98431e-05
4.01506e-05
4.05133e-05
4.09256e-05
4.13716e-05
4.18363e-05
4.23058e-05
4.27674e-05
4.32125e-05
4.36257e-05
4.4002e-05
4.43429e-05
4.46567e-05
4.49373e-05
4.51869e-05
4.53718e-05
4.5516e-05
4.56648e-05
4.57571e-05
4.58024e-05
4.58096e-05
4.5776e-05
4.57015e-05
4.55871e-05
4.54333e-05
4.5242e-05
4.50153e-05
4.47559e-05
4.44666e-05
4.41501e-05
4.38075e-05
4.34379e-05
4.30369e-05
4.25952e-05
4.2098e-05
4.15258e-05
4.08577e-05
4.00794e-05
3.91965e-05
3.8177e-05
3.69858e-05
3.55768e-05
3.39348e-05
3.22783e-05
3.0639e-05
2.94221e-05
3.05395e-05
3.25142e-05
3.45201e-05
3.53313e-05
3.49835e-05
3.40426e-05
3.05934e-05
2.58445e-05
2.01224e-05
1.34241e-05
5.24258e-06
6.7106e-08
4.49726e-07
1.75388e-05
3.63013e-05
4.56751e-05
4.9242e-05
4.98072e-05
4.91169e-05
4.80879e-05
4.68734e-05
4.60956e-05
4.4728e-05
4.36607e-05
4.22605e-05
4.10704e-05
4.02497e-05
3.97693e-05
3.95188e-05
3.94349e-05
3.9472e-05
3.95814e-05
3.97712e-05
4.00409e-05
4.03854e-05
4.08015e-05
4.12706e-05
4.17784e-05
4.23059e-05
4.28382e-05
4.33623e-05
4.38682e-05
4.43487e-05
4.47981e-05
4.52165e-05
4.56049e-05
4.59632e-05
4.62871e-05
4.65748e-05
4.68411e-05
4.70527e-05
4.71719e-05
4.73538e-05
4.74425e-05
4.74835e-05
4.74791e-05
4.74235e-05
4.73183e-05
4.71626e-05
4.6958e-05
4.67066e-05
4.64123e-05
4.60795e-05
4.5714e-05
4.53213e-05
4.49061e-05
4.44707e-05
4.40125e-05
4.35221e-05
4.29808e-05
4.23599e-05
4.16224e-05
4.07322e-05
3.9698e-05
3.85015e-05
3.69393e-05
3.53942e-05
3.38188e-05
3.20516e-05
3.01851e-05
2.86827e-05
2.96593e-05
3.16451e-05
3.34291e-05
3.39278e-05
3.34481e-05
3.14012e-05
2.7284e-05
2.17704e-05
1.49679e-05
6.23499e-06
9.1626e-08
5.20749e-07
1.9072e-05
3.86737e-05
4.81919e-05
5.15568e-05
5.17935e-05
5.07012e-05
4.91509e-05
4.81564e-05
4.64734e-05
4.5151e-05
4.35854e-05
4.21526e-05
4.10492e-05
4.03309e-05
3.99158e-05
3.97094e-05
3.96646e-05
3.97435e-05
3.99223e-05
4.0205e-05
4.05799e-05
4.10342e-05
4.15517e-05
4.21105e-05
4.26933e-05
4.32828e-05
4.38669e-05
4.44362e-05
4.49848e-05
4.55095e-05
4.60087e-05
4.6483e-05
4.69315e-05
4.73524e-05
4.77428e-05
4.81008e-05
4.8424e-05
4.87334e-05
4.89196e-05
4.91051e-05
4.92963e-05
4.93708e-05
4.94065e-05
4.93758e-05
4.92841e-05
4.91281e-05
4.89086e-05
4.86271e-05
4.82872e-05
4.78943e-05
4.74558e-05
4.69809e-05
4.64795e-05
4.59613e-05
4.54335e-05
4.48978e-05
4.43467e-05
4.376e-05
4.31012e-05
4.23168e-05
4.13427e-05
4.01984e-05
3.88944e-05
3.6917e-05
3.51015e-05
3.35539e-05
3.16704e-05
2.96007e-05
2.79162e-05
2.88094e-05
3.09251e-05
3.22383e-05
3.22539e-05
3.15476e-05
2.81832e-05
2.31217e-05
1.64545e-05
7.20298e-06
1.21646e-07
5.90273e-07
2.04538e-05
4.07843e-05
5.04569e-05
5.35864e-05
5.33598e-05
5.18522e-05
5.04388e-05
4.85696e-05
4.68777e-05
4.51071e-05
4.34244e-05
4.20212e-05
4.10153e-05
4.03842e-05
4.00297e-05
3.98804e-05
3.98997e-05
4.00567e-05
4.03347e-05
4.07249e-05
4.12064e-05
4.1759e-05
4.23611e-05
4.29913e-05
4.36338e-05
4.42755e-05
4.49082e-05
4.55268e-05
4.61291e-05
4.67141e-05
4.72815e-05
4.78305e-05
4.83588e-05
4.88635e-05
4.93404e-05
4.97855e-05
5.01938e-05
5.05945e-05
5.08565e-05
5.1073e-05
5.13666e-05
5.14852e-05
5.15669e-05
5.1568e-05
5.1496e-05
5.13454e-05
5.11159e-05
5.08076e-05
5.04227e-05
4.99659e-05
4.94447e-05
4.88694e-05
4.82534e-05
4.76119e-05
4.69607e-05
4.63135e-05
4.56781e-05
4.50512e-05
4.44129e-05
4.3721e-05
4.29069e-05
4.18776e-05
4.06375e-05
3.90283e-05
3.68037e-05
3.46873e-05
3.31085e-05
3.11054e-05
2.87918e-05
2.7101e-05
2.80302e-05
3.01216e-05
3.12346e-05
3.03697e-05
2.847e-05
2.40609e-05
1.76997e-05
8.03468e-06
1.55316e-07
6.57697e-07
2.16689e-05
4.26452e-05
5.23811e-05
5.51407e-05
5.4623e-05
5.33027e-05
5.12412e-05
4.892e-05
4.69151e-05
4.49534e-05
4.32283e-05
4.18903e-05
4.09806e-05
4.04287e-05
4.01431e-05
4.00706e-05
4.0178e-05
4.04348e-05
4.08209e-05
4.13153e-05
4.18916e-05
4.25265e-05
4.31979e-05
4.38879e-05
4.45845e-05
4.52792e-05
4.59682e-05
4.66497e-05
4.73234e-05
4.79887e-05
4.86443e-05
4.92874e-05
4.99139e-05
5.05186e-05
5.10954e-05
5.1638e-05
5.21436e-05
5.26345e-05
5.29653e-05
5.32417e-05
5.36213e-05
5.37944e-05
5.39234e-05
5.39616e-05
5.39154e-05
5.37783e-05
5.35484e-05
5.32238e-05
5.2805e-05
5.22944e-05
5.16976e-05
5.10241e-05
5.02873e-05
4.95048e-05
4.86979e-05
4.78894e-05
4.71009e-05
4.63472e-05
4.56306e-05
4.49324e-05
4.42057e-05
4.33667e-05
4.22905e-05
4.09557e-05
3.89585e-05
3.65429e-05
3.42001e-05
3.25025e-05
3.03501e-05
2.77894e-05
2.63434e-05
2.73085e-05
2.88815e-05
2.9396e-05
2.83008e-05
2.45744e-05
1.86274e-05
8.67951e-06
1.91168e-07
7.20342e-07
2.27153e-05
4.41527e-05
5.38553e-05
5.63226e-05
5.60471e-05
5.41194e-05
5.15545e-05
4.91964e-05
4.68259e-05
4.47436e-05
4.30285e-05
4.17735e-05
4.09559e-05
4.04843e-05
4.02817e-05
4.03035e-05
4.05127e-05
4.08753e-05
4.13642e-05
4.19512e-05
4.26083e-05
4.33125e-05
4.40445e-05
4.47914e-05
4.55455e-05
4.6303e-05
4.70631e-05
4.78257e-05
4.85901e-05
4.93545e-05
5.01152e-05
5.08668e-05
5.16024e-05
5.23144e-05
5.29945e-05
5.36348e-05
5.42414e-05
5.48145e-05
5.52057e-05
5.55564e-05
5.5999e-05
5.62313e-05
5.6405e-05
5.64824e-05
5.64663e-05
5.63504e-05
5.6131e-05
5.58047e-05
5.53693e-05
5.48246e-05
5.4173e-05
5.34208e-05
5.25788e-05
5.16635e-05
5.06973e-05
4.97079e-05
4.87264e-05
4.77828e-05
4.69005e-05
4.60873e-05
4.53268e-05
4.45682e-05
4.37174e-05
4.26267e-05
4.10515e-05
3.86743e-05
3.6111e-05
3.36199e-05
3.17631e-05
2.93202e-05
2.64395e-05
2.56673e-05
2.68586e-05
2.77904e-05
2.70916e-05
2.46364e-05
1.91857e-05
9.1453e-06
2.28061e-07
7.75774e-07
2.35616e-05
4.53035e-05
5.4969e-05
5.74848e-05
5.7105e-05
5.48647e-05
5.19566e-05
4.91986e-05
4.6657e-05
4.45135e-05
4.28431e-05
4.16781e-05
4.09509e-05
4.05667e-05
4.04599e-05
4.05854e-05
4.08992e-05
4.13627e-05
4.19435e-05
4.26107e-05
4.33377e-05
4.41041e-05
4.48956e-05
4.5704e-05
4.65261e-05
4.73613e-05
4.82098e-05
4.90711e-05
4.99427e-05
5.08198e-05
5.16955e-05
5.25613e-05
5.34078e-05
5.42249e-05
5.50032e-05
5.57336e-05
5.64317e-05
5.70762e-05
5.7516e-05
5.79325e-05
5.84292e-05
5.87129e-05
5.89267e-05
5.90413e-05
5.90569e-05
5.89676e-05
5.87685e-05
5.84547e-05
5.80218e-05
5.74665e-05
5.67877e-05
5.59871e-05
5.5071e-05
5.40515e-05
5.29482e-05
5.17886e-05
5.06077e-05
4.94457e-05
4.83423e-05
4.7329e-05
4.64178e-05
4.559e-05
4.47857e-05
4.38966e-05
4.27625e-05
4.089e-05
3.8185e-05
3.55311e-05
3.28683e-05
3.08386e-05
2.78947e-05
2.50088e-05
2.48575e-05
2.58325e-05
2.62046e-05
2.4441e-05
1.94217e-05
9.38917e-06
2.66904e-07
8.22481e-07
2.42044e-05
4.61213e-05
5.58211e-05
5.84116e-05
5.78203e-05
5.51594e-05
5.21302e-05
4.91108e-05
4.64451e-05
4.42856e-05
4.2681e-05
4.16086e-05
4.09732e-05
4.06842e-05
4.06808e-05
4.09109e-05
4.13243e-05
4.18791e-05
4.25406e-05
4.32787e-05
4.40697e-05
4.48978e-05
4.57537e-05
4.66338e-05
4.75379e-05
4.84665e-05
4.94191e-05
5.03927e-05
5.13815e-05
5.23771e-05
5.33691e-05
5.43462e-05
5.52965e-05
5.62088e-05
5.70728e-05
5.78796e-05
5.86506e-05
5.93525e-05
5.98323e-05
6.02974e-05
6.08353e-05
6.11606e-05
6.14069e-05
6.15537e-05
6.15993e-05
6.15387e-05
6.13663e-05
6.10763e-05
6.06627e-05
6.01194e-05
5.94416e-05
5.86264e-05
5.76743e-05
5.65912e-05
5.53906e-05
5.40952e-05
5.27384e-05
5.13639e-05
5.00225e-05
4.87654e-05
4.76328e-05
4.66395e-05
4.57591e-05
4.49082e-05
4.39327e-05
4.25939e-05
4.02825e-05
3.75101e-05
3.47802e-05
3.18825e-05
2.94848e-05
2.609e-05
2.39896e-05
2.41504e-05
2.46594e-05
2.3506e-05
1.93647e-05
9.51188e-06
3.07129e-07
8.5979e-07
2.46567e-05
4.66563e-05
5.64311e-05
5.90918e-05
5.83863e-05
5.5557e-05
5.21782e-05
4.89632e-05
4.62161e-05
4.4073e-05
4.25462e-05
4.15671e-05
4.10265e-05
4.08382e-05
4.0939e-05
4.12688e-05
4.17732e-05
4.24096e-05
4.31434e-05
4.3947e-05
4.48014e-05
4.56956e-05
4.6625e-05
4.75893e-05
4.85894e-05
4.96247e-05
5.06922e-05
5.17851e-05
5.28937e-05
5.40056e-05
5.51075e-05
5.61854e-05
5.72264e-05
5.82185e-05
5.91518e-05
6.00177e-05
6.08387e-05
6.15833e-05
6.20982e-05
6.25904e-05
6.31529e-05
6.35099e-05
6.37793e-05
6.39506e-05
6.40218e-05
6.39884e-05
6.38453e-05
6.35862e-05
6.3204e-05
6.26908e-05
6.20385e-05
6.124e-05
6.02901e-05
5.91875e-05
5.79376e-05
5.6555e-05
5.50663e-05
5.35118e-05
5.19457e-05
5.04313e-05
4.90325e-05
4.77993e-05
4.67507e-05
4.58575e-05
4.50276e-05
4.40931e-05
4.22223e-05
3.94289e-05
3.67041e-05
3.38147e-05
3.06735e-05
2.76465e-05
2.39839e-05
2.29574e-05
2.28945e-05
2.26467e-05
1.92815e-05
9.73272e-06
3.54893e-07
8.87419e-07
2.49189e-05
4.69675e-05
5.67826e-05
5.95991e-05
5.86304e-05
5.57122e-05
5.21405e-05
4.87794e-05
4.59865e-05
4.38822e-05
4.24393e-05
4.15541e-05
4.11106e-05
4.10242e-05
4.12252e-05
4.16469e-05
4.22339e-05
4.2944e-05
4.37448e-05
4.46128e-05
4.55339e-05
4.65017e-05
4.75153e-05
4.85757e-05
4.96828e-05
5.08335e-05
5.20206e-05
5.3233e-05
5.44568e-05
5.56764e-05
5.68758e-05
5.80398e-05
5.91549e-05
6.02094e-05
6.1194e-05
6.21015e-05
6.2949e-05
6.37222e-05
6.42699e-05
6.47674e-05
6.53362e-05
6.57153e-05
6.59974e-05
6.61843e-05
6.62742e-05
6.62636e-05
6.61484e-05
6.59224e-05
6.55784e-05
6.51072e-05
6.44987e-05
6.37421e-05
6.28272e-05
6.1746e-05
6.04951e-05
5.90791e-05
5.75143e-05
5.58322e-05
5.40822e-05
5.23307e-05
5.06552e-05
4.91313e-05
4.7813e-05
4.67101e-05
4.57682e-05
4.48556e-05
4.37527e-05
4.14108e-05
3.83939e-05
3.55522e-05
3.24413e-05
2.90678e-05
2.53382e-05
2.2457e-05
2.19315e-05
2.1931e-05
1.91891e-05
1.02135e-05
4.18526e-07
9.05827e-07
2.50207e-05
4.70347e-05
5.6851e-05
5.97766e-05
5.89142e-05
5.57778e-05
5.20442e-05
4.85773e-05
4.57669e-05
4.37158e-05
4.23594e-05
4.15681e-05
4.12223e-05
4.12353e-05
4.15298e-05
4.20355e-05
4.26976e-05
4.34762e-05
4.4342e-05
4.52762e-05
4.62696e-05
4.73197e-05
4.84273e-05
4.9593e-05
5.08139e-05
5.20828e-05
5.33881e-05
5.47141e-05
5.60433e-05
5.73575e-05
5.86393e-05
5.98728e-05
6.10448e-05
6.21445e-05
6.31638e-05
6.40968e-05
6.49496e-05
6.57382e-05
6.63181e-05
6.68018e-05
6.73584e-05
6.77503e-05
6.80351e-05
6.82279e-05
6.8328e-05
6.83336e-05
6.82415e-05
6.80468e-05
6.77422e-05
6.73187e-05
6.67648e-05
6.60675e-05
6.52124e-05
6.41858e-05
6.29763e-05
6.1578e-05
5.99953e-05
5.82468e-05
5.63714e-05
5.44302e-05
5.25058e-05
5.06936e-05
4.90831e-05
4.77328e-05
4.66428e-05
4.57347e-05
4.48411e-05
4.31063e-05
4.02017e-05
3.74269e-05
3.40497e-05
3.05163e-05
2.68892e-05
2.259e-05
2.0969e-05
2.02426e-05
1.87746e-05
1.08962e-05
5.0145e-07
9.15052e-07
2.49598e-05
4.6851e-05
5.67933e-05
5.9917e-05
5.8974e-05
5.57544e-05
5.19074e-05
4.837e-05
4.55633e-05
4.35739e-05
4.23045e-05
4.16062e-05
4.13567e-05
4.1464e-05
4.18447e-05
4.24274e-05
4.31592e-05
4.40032e-05
4.49342e-05
4.59384e-05
4.70105e-05
4.81507e-05
4.93596e-05
5.06356e-05
5.1972e-05
5.33569e-05
5.47737e-05
5.62032e-05
5.76249e-05
5.90189e-05
6.03671e-05
6.1654e-05
6.2867e-05
6.39964e-05
6.50355e-05
6.59798e-05
6.68271e-05
6.76153e-05
6.8227e-05
6.86823e-05
6.92095e-05
6.96051e-05
6.98834e-05
7.00724e-05
7.01737e-05
7.01873e-05
7.01113e-05
6.99422e-05
6.9674e-05
6.9298e-05
6.88027e-05
6.81738e-05
6.73944e-05
6.64462e-05
6.5311e-05
6.39737e-05
6.24261e-05
6.06725e-05
5.87362e-05
5.66657e-05
5.4538e-05
5.24549e-05
5.05293e-05
4.88594e-05
4.74948e-05
4.64062e-05
4.54692e-05
4.44643e-05
4.20592e-05
3.88987e-05
3.59964e-05
3.21818e-05
2.81719e-05
2.38638e-05
2.08444e-05
1.93165e-05
1.83719e-05
1.1472e-05
5.99878e-07
9.14605e-07
2.48015e-05
4.66045e-05
5.65954e-05
5.99444e-05
5.89355e-05
5.56635e-05
5.17444e-05
4.81663e-05
4.5379e-05
4.34558e-05
4.22722e-05
4.16652e-05
4.15084e-05
4.17039e-05
4.2164e-05
4.28177e-05
4.36154e-05
4.45236e-05
4.55216e-05
4.65999e-05
4.77565e-05
4.89922e-05
5.03064e-05
5.16936e-05
5.31426e-05
5.46367e-05
5.61553e-05
5.76758e-05
5.9176e-05
6.0635e-05
6.20349e-05
6.33608e-05
6.46012e-05
6.57478e-05
6.67948e-05
6.77388e-05
6.8578e-05
6.93481e-05
6.99895e-05
7.04104e-05
7.08925e-05
7.1283e-05
7.15467e-05
7.1723e-05
7.18166e-05
7.18292e-05
7.17608e-05
7.16096e-05
7.1371e-05
7.10377e-05
7.0599e-05
7.00403e-05
6.93436e-05
6.84878e-05
6.74495e-05
6.62057e-05
6.47371e-05
6.30333e-05
6.11006e-05
5.89697e-05
5.67037e-05
5.44008e-05
5.21874e-05
5.01962e-05
4.85294e-05
4.72171e-05
4.61868e-05
4.52631e-05
4.34805e-05
4.03816e-05
3.77232e-05
3.38171e-05
2.97171e-05
2.5331e-05
2.08017e-05
1.89204e-05
1.79954e-05
1.2105e-05
7.11877e-07
9.0967e-07
2.45468e-05
4.62109e-05
5.62136e-05
5.97549e-05
5.87959e-05
5.55188e-05
5.15661e-05
4.79724e-05
4.52156e-05
4.336e-05
4.226e-05
4.17415e-05
4.16727e-05
4.195e-05
4.24833e-05
4.32038e-05
4.40647e-05
4.50368e-05
4.61038e-05
4.72599e-05
4.85048e-05
4.98388e-05
5.12583e-05
5.27537e-05
5.43089e-05
5.59028e-05
5.75113e-05
5.91098e-05
6.06748e-05
6.21856e-05
6.36246e-05
6.49782e-05
6.62358e-05
6.73905e-05
6.84379e-05
6.93759e-05
7.02047e-05
7.09413e-05
7.15928e-05
7.20004e-05
7.24198e-05
7.27965e-05
7.30389e-05
7.31947e-05
7.32722e-05
7.32749e-05
7.3205e-05
7.30623e-05
7.28445e-05
7.25458e-05
7.21569e-05
7.16643e-05
7.105e-05
7.02915e-05
6.93622e-05
6.82332e-05
6.68758e-05
6.52667e-05
6.33945e-05
6.12694e-05
5.89342e-05
5.64726e-05
5.40102e-05
5.17006e-05
4.96908e-05
4.80713e-05
4.68256e-05
4.58017e-05
4.47186e-05
4.20392e-05
3.91237e-05
3.58735e-05
3.11568e-05
2.65403e-05
2.14649e-05
1.84365e-05
1.68549e-05
1.27092e-05
8.20322e-07
8.98679e-07
2.42409e-05
4.55611e-05
5.57017e-05
5.94412e-05
5.85708e-05
5.53316e-05
5.13804e-05
4.77924e-05
4.50737e-05
4.32851e-05
4.22657e-05
4.18318e-05
4.18458e-05
4.21988e-05
4.28001e-05
4.35835e-05
4.45059e-05
4.5542e-05
4.66796e-05
4.79157e-05
4.92505e-05
5.06823e-05
5.2204e-05
5.38013e-05
5.54538e-05
5.71365e-05
5.88229e-05
6.0487e-05
6.21049e-05
6.36563e-05
6.51247e-05
6.64974e-05
6.77652e-05
6.89222e-05
6.99651e-05
7.0893e-05
7.1707e-05
7.24102e-05
7.30449e-05
7.34592e-05
7.38078e-05
7.41631e-05
7.43789e-05
7.45079e-05
7.45619e-05
7.45466e-05
7.44661e-05
7.43224e-05
7.41151e-05
7.38407e-05
7.3492e-05
7.3057e-05
7.25188e-05
7.1855e-05
7.10376e-05
7.00339e-05
6.88084e-05
6.73265e-05
6.55611e-05
6.35016e-05
6.11669e-05
5.86184e-05
5.59692e-05
5.33797e-05
5.10322e-05
4.90795e-05
4.7583e-05
4.64655e-05
4.55069e-05
4.34026e-05
4.02768e-05
3.76086e-05
3.27361e-05
2.79645e-05
2.28612e-05
1.87407e-05
1.59218e-05
1.31418e-05
9.0027e-07
8.81783e-07
2.38553e-05
4.48507e-05
5.50841e-05
5.90188e-05
5.82736e-05
5.51114e-05
5.11933e-05
4.7629e-05
4.49533e-05
4.32298e-05
4.22871e-05
4.19333e-05
4.20244e-05
4.24475e-05
4.31124e-05
4.39555e-05
4.49378e-05
4.60377e-05
4.72465e-05
4.85629e-05
4.99864e-05
5.15128e-05
5.31308e-05
5.48217e-05
5.65613e-05
5.83216e-05
6.00744e-05
6.1793e-05
6.34539e-05
6.50373e-05
6.6528e-05
6.79141e-05
6.91878e-05
7.03438e-05
7.13797e-05
7.2295e-05
7.3091e-05
7.37695e-05
7.43687e-05
7.47937e-05
7.5075e-05
7.54024e-05
7.55875e-05
7.5685e-05
7.57095e-05
7.56691e-05
7.55697e-05
7.54155e-05
7.52084e-05
7.49472e-05
7.46271e-05
7.42383e-05
7.3766e-05
7.31888e-05
7.2479e-05
7.1602e-05
7.05179e-05
6.91837e-05
6.75587e-05
6.56134e-05
6.33416e-05
6.07774e-05
5.80103e-05
5.51925e-05
5.25242e-05
5.02077e-05
4.83744e-05
4.7011e-05
4.59238e-05
4.4449e-05
4.13488e-05
3.90503e-05
3.47688e-05
2.92186e-05
2.40722e-05
1.90324e-05
1.55273e-05
1.33006e-05
9.34129e-07
8.59795e-07
2.3367e-05
4.40245e-05
5.43881e-05
5.84965e-05
5.79147e-05
5.48655e-05
5.10091e-05
4.74839e-05
4.48545e-05
4.31929e-05
4.23225e-05
4.20437e-05
4.22063e-05
4.26943e-05
4.34184e-05
4.43184e-05
4.53587e-05
4.65215e-05
4.78007e-05
4.91955e-05
5.07043e-05
5.23196e-05
5.40261e-05
5.58012e-05
5.76172e-05
5.94443e-05
6.12532e-05
6.30172e-05
6.47132e-05
6.63225e-05
6.78307e-05
6.92271e-05
7.05045e-05
7.16585e-05
7.26871e-05
7.35902e-05
7.43694e-05
7.5028e-05
7.55847e-05
7.60048e-05
7.6243e-05
7.65332e-05
7.66847e-05
7.67473e-05
7.6738e-05
7.66667e-05
7.65414e-05
7.63682e-05
7.61514e-05
7.58924e-05
7.55886e-05
7.52334e-05
7.48141e-05
7.43117e-05
7.36997e-05
7.29437e-05
7.20014e-05
7.08243e-05
6.93614e-05
6.75664e-05
6.54097e-05
6.28958e-05
6.0084e-05
5.71051e-05
5.41618e-05
5.1495e-05
4.93117e-05
4.76922e-05
4.65213e-05
4.54742e-05
4.2709e-05
4.0084e-05
3.66833e-05
3.03905e-05
2.49434e-05
1.91633e-05
1.57104e-05
1.3294e-05
9.39238e-07
8.33847e-07
2.28382e-05
4.31107e-05
5.36119e-05
5.78934e-05
5.75037e-05
5.45997e-05
5.08309e-05
4.73584e-05
4.47769e-05
4.31734e-05
4.23702e-05
4.2161e-05
4.23895e-05
4.29372e-05
4.37166e-05
4.46705e-05
4.57665e-05
4.69901e-05
4.83371e-05
4.98068e-05
5.13954e-05
5.30922e-05
5.48781e-05
5.67273e-05
5.86095e-05
6.04936e-05
6.23497e-05
6.41516e-05
6.58769e-05
6.75079e-05
6.9031e-05
7.04363e-05
7.17173e-05
7.28699e-05
7.38922e-05
7.47845e-05
7.55486e-05
7.61878e-05
7.67078e-05
7.71069e-05
7.73268e-05
7.75689e-05
7.76872e-05
7.77135e-05
7.76674e-05
7.7561e-05
7.7404e-05
7.72047e-05
7.69695e-05
7.67023e-05
7.64033e-05
7.60686e-05
7.56885e-05
7.5247e-05
7.47198e-05
7.40738e-05
7.32668e-05
7.22471e-05
7.09565e-05
6.93355e-05
6.73339e-05
6.49272e-05
6.21401e-05
5.90715e-05
5.59089e-05