/*--------------------------------*- C++ -*----------------------------------*\
  =========                 |
  \\      /  F ield         | OpenFOAM: The Open Source CFD Toolbox
   \\    /   O peration     | Website:  https://openfoam.org
    \\  /    A nd           | Version:  13
     \\/     M anipulation  |
\*---------------------------------------------------------------------------*/
FoamFile
{
    format      ascii;
    class       volScalarField;
    location    "5";
    object      p;
}
// * * * * * * * * * * * * * * * * * * * * * * * * * * * * * * * * * * * * * //

dimensions      [0 2 -2 0 0 0 0];

internalField   nonuniform List<scalar> 
6400
(
-1.67289e-09
1.78821e-05
2.57952e-05
1.20424e-05
-2.82734e-05
-9.08527e-05
-0.000167055
-0.00024867
-0.000329849
-0.000407761
-0.000482836
-0.000558603
-0.000639386
-0.000729917
-0.000834843
-0.000957955
-0.00110212
-0.00126916
-0.00146034
-0.0016765
-0.00191822
-0.00218626
-0.00248289
-0.00281195
-0.00317909
-0.00358927
-0.00404043
-0.00452482
-0.00502694
-0.0055161
-0.00597937
-0.00641966
-0.00683645
-0.00722671
-0.00758613
-0.0079079
-0.00818274
-0.00839952
-0.00854607
-0.00861004
-0.00857933
-0.00844268
-0.00819072
-0.00781739
-0.00732047
-0.00669912
-0.00594355
-0.00504772
-0.0040347
-0.00291993
-0.00171185
-0.000432036
0.0008966
0.00224368
0.00357477
0.00484716
0.00601649
0.00704082
0.00787932
0.00849611
0.00886688
0.00898188
0.00884707
0.00848361
0.00793088
0.00724611
0.00649184
0.00573046
0.00502124
0.00439966
0.00389898
0.00354445
0.00330971
0.00316678
0.0030998
0.00308464
0.00310132
0.00313389
0.00317114
0.00319788
-1.35857e-05
4.68133e-06
8.6477e-06
-9.48702e-06
-5.23579e-05
-0.000114943
-0.000187802
-0.000263145
-0.000336378
-0.000406196
-0.00047404
-0.000543429
-0.000618898
-0.000704658
-0.000804257
-0.000920919
-0.00105787
-0.00121765
-0.00140117
-0.00160895
-0.00184045
-0.00209535
-0.00237584
-0.00268485
-0.00302495
-0.00340146
-0.00382202
-0.00428765
-0.00478877
-0.00530602
-0.00581302
-0.00629499
-0.0067505
-0.00717725
-0.00757031
-0.00792261
-0.00822484
-0.00846627
-0.00863529
-0.00872043
-0.00871067
-0.00859585
-0.00836764
-0.00801982
-0.00754826
-0.00694972
-0.00622237
-0.00537159
-0.00440592
-0.00332929
-0.00216224
-0.000922461
0.000365039
0.00167115
0.00296083
0.00419587
0.00533573
0.00633849
0.00716568
0.00778401
0.0081688
0.00830983
0.00821233
0.00789827
0.00740557
0.00677848
0.0060891
0.00538935
0.00473521
0.0041712
0.00372762
0.00340923
0.0032108
0.00310977
0.00308215
0.00310372
0.00314267
0.00317969
0.00321155
0.00323718
-2.78958e-05
-7.48546e-06
-8.35301e-06
-3.44793e-05
-8.44904e-05
-0.000149594
-0.000219435
-0.000286386
-0.000347578
-0.000404431
-0.000460029
-0.000518721
-0.000585168
-0.000662946
-0.000754374
-0.000861142
-0.000984741
-0.00112729
-0.00129102
-0.00147836
-0.00169244
-0.00193647
-0.00221401
-0.00252947
-0.00288705
-0.0032891
-0.00373662
-0.00422739
-0.00475324
-0.00529957
-0.00584783
-0.00638159
-0.00688976
-0.00736507
-0.00780106
-0.00819006
-0.00852308
-0.00879052
-0.00898216
-0.00908765
-0.0090973
-0.00900245
-0.00879581
-0.00847183
-0.00802712
-0.00745953
-0.00676494
-0.00594863
-0.00502063
-0.00398694
-0.00286245
-0.00166498
-0.00041774
0.000851579
0.00211058
0.00332338
0.00445045
0.00545038
0.00628584
0.00692463
0.00734223
0.00752618
0.00748071
0.00722608
0.00679733
0.00624176
0.00561719
0.0049816
0.00438731
0.00387573
0.00347197
0.00319869
0.0030469
0.00299252
0.0030025
0.00305437
0.0031194
0.00317607
0.00322277
0.0032592
-3.53986e-05
-1.5345e-05
-2.28148e-05
-5.89687e-05
-0.000118301
-0.000186732
-0.00025369
-0.000313005
-0.000363125
-0.000405615
-0.000445961
-0.000490176
-0.000543323
-0.000608934
-0.000688864
-0.000783899
-0.000895188
-0.00102517
-0.00117734
-0.00135663
-0.0015693
-0.00182214
-0.00212261
-0.00247372
-0.0028778
-0.00333649
-0.00384725
-0.00440196
-0.00498718
-0.00558735
-0.00618675
-0.00677083
-0.00732663
-0.00784453
-0.00831666
-0.00873472
-0.00909068
-0.00937609
-0.00958184
-0.00969893
-0.00971923
-0.0096354
-0.00944105
-0.00913126
-0.00870303
-0.00815456
-0.00748507
-0.0066976
-0.00579831
-0.00479423
-0.00369797
-0.00252659
-0.00130178
-4.90253e-05
0.00120204
0.00241712
0.00355694
0.00458132
0.00545214
0.00613586
0.00660697
0.00684976
0.00686501
0.00667134
0.00630192
0.00580158
0.00522578
0.00463336
0.00407432
0.00359541
0.00322106
0.00296788
0.00283233
0.00280087
0.00284855
0.0029346
0.00303002
0.00311604
0.00318609
0.00323443
-2.99516e-05
-1.58247e-05
-3.24001e-05
-7.90917e-05
-0.000147479
-0.000219018
-0.000283084
-0.000334711
-0.000373753
-0.000403635
-0.000430749
-0.000461971
-0.000502775
-0.00055665
-0.000625655
-0.000711534
-0.000817028
-0.000946996
-0.00110765
-0.00130643
-0.0015528
-0.0018518
-0.00220819
-0.00262655
-0.00310735
-0.00364645
-0.00423497
-0.0048604
-0.00550709
-0.00615938
-0.00680239
-0.00742383
-0.00801296
-0.00855977
-0.00905563
-0.00949242
-0.00986277
-0.0101589
-0.0103727
-0.0104963
-0.0105234
-0.0104479
-0.0102645
-0.00996847
-0.00955698
-0.00902928
-0.00838492
-0.00762574
-0.00675549
-0.0057799
-0.00471027
-0.00356254
-0.00235702
-0.0011158
0.000135402
0.00136383
0.00252946
0.00359363
0.00451927
0.00527058
0.00581946
0.00614745
0.00624895
0.00613649
0.0058419
0.00540852
0.00488937
0.00434047
0.0038156
0.0033602
0.00300407
0.00276282
0.00263706
0.00261339
0.0026696
0.00277353
0.00289221
0.00300379
0.00309497
0.00315177
-3.66672e-06
-1.45505e-06
-2.93396e-05
-8.84933e-05
-0.000164901
-0.000237961
-0.000298745
-0.000343669
-0.000373428
-0.000393394
-0.000410905
-0.000433325
-0.00046629
-0.000513818
-0.000579299
-0.000666741
-0.000782064
-0.000932889
-0.00112891
-0.00137808
-0.00168695
-0.00206225
-0.00250677
-0.00301887
-0.00359115
-0.00421335
-0.00487354
-0.00555926
-0.00625667
-0.0069514
-0.00762996
-0.0082807
-0.00889376
-0.0094602
-0.0099718
-0.0104207
-0.0108001
-0.011103
-0.0113222
-0.0114506
-0.0114849
-0.01142
-0.0112513
-0.0109749
-0.0105884
-0.0100904
-0.00947995
-0.00875839
-0.00792833
-0.0069945
-0.00596473
-0.00485198
-0.00367443
-0.00244945
-0.00119915
4.24304e-05
0.00123628
0.00234832
0.0033434
0.00418132
0.00483191
0.00527401
0.00549611
0.0055028
0.00531719
0.00498157
0.00454676
0.0040656
0.00359119
0.00317053
0.00283693
0.0026084
0.00248771
0.00246437
0.00251825
0.00262199
0.00274581
0.00286544
0.00296465
0.00302389
5.28052e-05
3.9323e-05
-2.94693e-06
-7.75891e-05
-0.000159369
-0.000233093
-0.000291096
-0.000331042
-0.000355439
-0.000370738
-0.000384935
-0.000405628
-0.000439074
-0.000490788
-0.000566624
-0.000673608
-0.000821072
-0.00101989
-0.00127806
-0.00160429
-0.00200439
-0.00248097
-0.00302763
-0.0036344
-0.00429178
-0.00498907
-0.00571335
-0.00645191
-0.00719208
-0.00792129
-0.00862774
-0.00930088
-0.00993158
-0.0105117
-0.0110334
-0.0114885
-0.0118714
-0.0121763
-0.0123976
-0.0125339
-0.0125798
-0.0125303
-0.0123816
-0.0121308
-0.0117762
-0.0113143
-0.0107448
-0.0100685
-0.00928811
-0.00840937
-0.00743903
-0.00638484
-0.00525512
-0.00406658
-0.00284241
-0.00160832
-0.000392444
0.000773425
0.00184814
0.00278744
0.00356312
0.00414864
0.00452582
0.00469371
0.00466379
0.00446834
0.00415608
0.00377699
0.00338171
0.00301753
0.00272048
0.00251161
0.00239701
0.00237005
0.00241438
0.00250591
0.00261895
0.00272967
0.00282173
0.00287495
0.000148679
0.000116573
5.51323e-05
-3.29938e-05
-0.000119987
-0.000194989
-0.000252019
-0.000290697
-0.000315253
-0.000333096
-0.000352695
-0.000382076
-0.000428739
-0.000500598
-0.000606204
-0.000756058
-0.00096203
-0.00123434
-0.00158127
-0.00200983
-0.00251788
-0.00309826
-0.00374195
-0.00443777
-0.00517382
-0.0059379
-0.00671756
-0.00750096
-0.00827645
-0.00903295
-0.00976018
-0.0104489
-0.0110901
-0.0116758
-0.0121985
-0.0126535
-0.0130372
-0.0133448
-0.0135736
-0.0137217
-0.0137806
-0.0137474
-0.0136185
-0.0133919
-0.0130668
-0.0126415
-0.0121157
-0.0114904
-0.0107684
-0.00995449
-0.00905414
-0.00807107
-0.00700923
-0.00588275
-0.00471029
-0.00350952
-0.00229946
-0.00111154
1.89255e-05
0.00106185
0.00198083
0.00273126
0.00329462
0.00366107
0.00383319
0.00382591
0.00368032
0.00344319
0.00316183
0.00288202
0.00264199
0.00246596
0.00236398
0.00233338
0.00236334
0.00243455
0.00252559
0.00261557
0.00268628
0.00272441
0.00028903
0.00023807
0.000153969
5.33824e-05
-3.98042e-05
-0.000117551
-0.000176833
-0.000219484
-0.000251434
-0.000281037
-0.000317263
-0.000368988
-0.00044559
-0.000557438
-0.00071625
-0.00093414
-0.00122373
-0.00159467
-0.00205091
-0.00259
-0.00320542
-0.00388666
-0.00462183
-0.0053979
-0.00620266
-0.00702381
-0.00784982
-0.00866963
-0.00947263
-0.0102489
-0.0109892
-0.0116852
-0.012328
-0.0129115
-0.0134325
-0.0138896
-0.0142779
-0.0145917
-0.0148272
-0.0149785
-0.0150443
-0.0150226
-0.0149114
-0.0147096
-0.0144158
-0.0140296
-0.0135511
-0.0129805
-0.0123194
-0.0115701
-0.0107353
-0.00981949
-0.00883074
-0.00777862
-0.00667589
-0.005535
-0.00436658
-0.0031912
-0.0020345
-0.000920258
0.000108336
0.00102224
0.00179151
0.00238246
0.00279131
0.00301709
0.00308445
0.00303173
0.00290166
0.00273727
0.00257806
0.00245206
0.00237382
0.00234584
0.00236006
0.00240573
0.00246658
0.00252717
0.00256731
0.00258662
0.000480082
0.000408537
0.000299176
0.000185014
8.37381e-05
5.76301e-07
-6.53646e-05
-0.000118612
-0.000166837
-0.000219311
-0.000285688
-0.000376057
-0.000501928
-0.00067627
-0.000911932
-0.00122182
-0.00161726
-0.00210191
-0.00267274
-0.00332325
-0.00404264
-0.00481716
-0.00563404
-0.00648018
-0.00734356
-0.00821233
-0.00907569
-0.0099233
-0.0107455
-0.0115335
-0.0122791
-0.0129751
-0.0136164
-0.0141991
-0.0147187
-0.0151706
-0.0155502
-0.0158553
-0.0160846
-0.0162349
-0.0163048
-0.0162928
-0.016198
-0.0160196
-0.0157567
-0.015409
-0.0149769
-0.0144609
-0.0138621
-0.0131819
-0.0124219
-0.011585
-0.0106761
-0.00970087
-0.00866602
-0.00758013
-0.00645856
-0.00531939
-0.00417695
-0.00304376
-0.00194386
-0.000902029
4.03633e-05
0.000860618
0.00152078
0.00200944
0.00233149
0.00250735
0.00256845
0.00255371
0.00250101
0.00244363
0.00240176
0.00238343
0.00238644
0.00240642
0.00243411
0.00245838
0.002466
0.00246711
0.000724907
0.000626726
0.000492159
0.000359496
0.000247949
0.000155712
7.74971e-05
5.70592e-06
-6.91208e-05
-0.000157191
-0.000268939
-0.000416086
-0.000612077
-0.00087081
-0.00120502
-0.00162601
-0.00213915
-0.0027425
-0.00342845
-0.00418557
-0.00500024
-0.00585838
-0.00674683
-0.00765281
-0.00856462
-0.00947101
-0.0103618
-0.0112276
-0.0120598
-0.0128508
-0.0135938
-0.0142832
-0.0149149
-0.0154852
-0.0159907
-0.0164282
-0.0167951
-0.0170899
-0.0173116
-0.0174588
-0.0175305
-0.0175258
-0.0174443
-0.0172857
-0.0170495
-0.0167359
-0.0163453
-0.0158785
-0.0153365
-0.0147205
-0.0140317
-0.0132724
-0.0124453
-0.0115536
-0.0106007
-0.00959117
-0.0085323
-0.00743329
-0.0063062
-0.00517284
-0.0040474
-0.00293898
-0.00186922
-0.000868031
2.45218e-05
0.000784597
0.00138617
0.00182968
0.00212413
0.00229755
0.0023826
0.00241416
0.00242186
0.00242213
0.00242112
0.00241695
0.00241141
0.00239808
0.00237569
0.00236094
0.00101272
0.000888218
0.000722221
0.00056849
0.000444019
0.000338622
0.000241602
0.000142282
2.9485e-05
-0.000107804
-0.000281122
-0.000503425
-0.000789002
-0.00115107
-0.00160029
-0.002143
-0.00277884
-0.00350025
-0.00429528
-0.00515027
-0.00605033
-0.00698156
-0.00793075
-0.00888553
-0.00983456
-0.0107673
-0.0116745
-0.0125476
-0.0133793
-0.0141635
-0.0148949
-0.0155692
-0.0161833
-0.0167346
-0.0172211
-0.0176407
-0.0179921
-0.0182745
-0.018487
-0.0186292
-0.0187005
-0.0187005
-0.0186294
-0.0184871
-0.0182736
-0.0179894
-0.0176352
-0.0172117
-0.0167199
-0.0161609
-0.0155359
-0.0148465
-0.0140944
-0.0132814
-0.0124094
-0.0114807
-0.0104982
-0.00946515
-0.00838627
-0.00726996
-0.00612771
-0.0049805
-0.00384114
-0.00272104
-0.00164451
-0.000647348
0.000230988
0.000960731
0.00152538
0.00192795
0.00218977
0.00233899
0.00241157
0.00243855
0.00243651
0.00241421
0.00237938
0.00233317
0.00228631
0.00225817
0.00133085
0.00117887
0.000977399
0.000800034
0.000659228
0.000535456
0.000412272
0.00027582
0.000113362
-8.69289e-05
-0.000337165
-0.000651219
-0.00104251
-0.00152173
-0.00209542
-0.0027641
-0.00352117
-0.00435445
-0.00524984
-0.00619232
-0.00716683
-0.00815961
-0.00915765
-0.0101491
-0.0111232
-0.0120704
-0.0129824
-0.0138522
-0.0146739
-0.0154429
-0.0161553
-0.0168084
-0.0174002
-0.0179291
-0.0183939
-0.0187938
-0.019128
-0.0193964
-0.0195986
-0.0197345
-0.0198039
-0.0198069
-0.0197439
-0.0196151
-0.0194209
-0.0191619
-0.0188389
-0.0184528
-0.0180047
-0.0174955
-0.0169264
-0.0162986
-0.0156132
-0.014871
-0.0140729
-0.0132196
-0.0123119
-0.0113502
-0.0103355
-0.00926897
-0.00815318
-0.00699471
-0.00580575
-0.00460993
-0.00341389
-0.0022379
-0.00112139
-0.00011871
0.000732114
0.00139998
0.00188041
0.00218809
0.00235222
0.00241727
0.00241967
0.00238223
0.00232284
0.0022504
0.00218609
0.00214976
0.00166355
0.00148144
0.00124198
0.00103742
0.000876409
0.000728591
0.000571583
0.000388452
0.000165123
-0.000110414
-0.000451277
-0.000870608
-0.00137911
-0.00198363
-0.00268482
-0.00347708
-0.00434874
-0.00528485
-0.00626991
-0.00728828
-0.00832513
-0.00936689
-0.010401
-0.0114164
-0.0124034
-0.0133535
-0.01426
-0.0151174
-0.0159214
-0.0166689
-0.0173576
-0.0179859
-0.0185528
-0.0190576
-0.0194999
-0.0198795
-0.0201964
-0.0204507
-0.0206423
-0.0207716
-0.0208386
-0.0208437
-0.0207872
-0.0206698
-0.0204919
-0.0202544
-0.0199581
-0.019604
-0.0191932
-0.0187267
-0.0182056
-0.0176309
-0.0170033
-0.0163233
-0.0155909
-0.0148059
-0.0139674
-0.0130742
-0.0121246
-0.0111167
-0.0100489
-0.00892045
-0.00773289
-0.00649333
-0.00521534
-0.00392203
-0.00263332
-0.00139931
-0.000277011
0.00067425
0.00141059
0.00192076
0.002219
0.00234648
0.00236293
0.00231372
0.00223294
0.00213957
0.00206415
0.00202277
0.00198862
0.00177498
0.00149482
0.00126095
0.00107586
0.000898274
0.000699946
0.000461331
0.000167693
-0.000193912
-0.000636466
-0.00117036
-0.00180269
-0.00253417
-0.00335963
-0.00426821
-0.00524462
-0.00627223
-0.0073347
-0.00841625
-0.00950238
-0.01058
-0.0116373
-0.0126644
-0.0136529
-0.014596
-0.0154885
-0.0163267
-0.0171077
-0.0178299
-0.0184922
-0.0190941
-0.0196353
-0.0201161
-0.0205364
-0.0208967
-0.0211971
-0.0214381
-0.0216198
-0.0217429
-0.0218076
-0.0218143
-0.0217635
-0.0216558
-0.021492
-0.0212728
-0.0209993
-0.0206724
-0.0202932
-0.0198629
-0.0193823
-0.0188526
-0.0182742
-0.0176475
-0.0169721
-0.0162471
-0.0154709
-0.0146411
-0.0137542
-0.0128062
-0.0117927
-0.0107092
-0.00955222
-0.0083198
-0.00701406
-0.00564741
-0.00424727
-0.00284226
-0.00149187
-0.000270215
0.000743746
0.00149636
0.00197685
0.00220959
0.00226043
0.00220801
0.00210763
0.00199579
0.00191238
0.00186564
0.00228175
0.00203659
0.00171497
0.00144988
0.00123688
0.00102366
0.000777123
0.000476021
0.000104313
-0.000352191
-0.000903422
-0.0015565
-0.00231271
-0.00316697
-0.00410892
-0.00512328
-0.00619237
-0.00729855
-0.00842505
-0.00955628
-0.0106783
-0.0117787
-0.0128472
-0.013875
-0.0148555
-0.0157837
-0.0166561
-0.0174705
-0.0182255
-0.0189206
-0.0195558
-0.0201313
-0.0206478
-0.0211056
-0.0215055
-0.0218479
-0.0221335
-0.0223627
-0.0225359
-0.0226536
-0.0227165
-0.0227248
-0.022679
-0.02258
-0.0224285
-0.0222252
-0.0219711
-0.0216673
-0.0213148
-0.0209148
-0.0204683
-0.0199762
-0.0194391
-0.0188571
-0.01823
-0.0175565
-0.0168347
-0.0160614
-0.0152326
-0.0143428
-0.0133857
-0.0123542
-0.011241
-0.0100397
-0.00874665
-0.00736355
-0.00590196
-0.00438882
-0.00287143
-0.00142333
-0.000139815
0.000883889
0.00159018
0.00198047
0.00210548
0.00206417
0.00194911
0.00181977
0.00172614
0.00167037
0.00252198
0.00224345
0.00188121
0.00158357
0.00133872
0.00108466
0.000785071
0.000416465
-4.01946e-05
-0.000596395
-0.00125864
-0.00202963
-0.00290458
-0.00387337
-0.00492073
-0.00602811
-0.0071763
-0.00834708
-0.00952367
-0.0106909
-0.0118358
-0.0129471
-0.0140159
-0.0150354
-0.0160006
-0.0169084
-0.0177567
-0.0185448
-0.0192725
-0.0199405
-0.0205493
-0.0210999
-0.0215932
-0.0220302
-0.0224117
-0.0227384
-0.0230111
-0.0232302
-0.0233963
-0.0235099
-0.0235715
-0.0235816
-0.0235407
-0.0234496
-0.0233088
-0.0231193
-0.022882
-0.0225979
-0.022268
-0.0218935
-0.0214754
-0.0210146
-0.0205117
-0.019967
-0.0193801
-0.0187499
-0.0180744
-0.0173503
-0.0165733
-0.0157372
-0.0148349
-0.0138578
-0.0127961
-0.01164
-0.0103813
-0.00901497
-0.00754256
-0.00597815
-0.00435763
-0.00274424
-0.00123238
6.3327e-05
0.00103509
0.00163059
0.00187915
0.00187993
0.00176066
0.00161292
0.00150105
0.00143115
0.00268125
0.00237419
0.00197379
0.00164299
0.00136307
0.00106497
0.000709095
0.000268103
-0.00027594
-0.000931755
-0.00170314
-0.0025862
-0.00357129
-0.00464321
-0.00578266
-0.00696885
-0.00818168
-0.00940273
-0.0106155
-0.0118058
-0.0129615
-0.0140732
-0.0151336
-0.0161378
-0.0170825
-0.0179663
-0.0187885
-0.0195496
-0.0202504
-0.0208922
-0.0214763
-0.022004
-0.0224765
-0.022895
-0.0232605
-0.0235737
-0.0238355
-0.0240463
-0.0242068
-0.0243174
-0.0243786
-0.0243909
-0.0243547
-0.0242708
-0.0241398
-0.0239625
-0.0237397
-0.0234725
-0.0231619
-0.0228089
-0.0224145
-0.0219797
-0.0215051
-0.0209911
-0.0204374
-0.0198431
-0.0192063
-0.0185241
-0.017792
-0.0170041
-0.0161527
-0.0152285
-0.0142208
-0.0131178
-0.0119075
-0.0105802
-0.00912995
-0.00756018
-0.00589202
-0.00417555
-0.00249557
-0.000963321
0.000284019
0.00113262
0.00156171
0.00164744
0.00153893
0.00137364
0.00123251
0.0011457
0.0027445
0.00241203
0.00197664
0.00161274
0.001296
0.00095241
0.000537721
2.28875e-05
-0.000607326
-0.00135992
-0.00223385
-0.00322014
-0.00430388
-0.00546534
-0.00668223
-0.00793234
-0.00919513
-0.0104524
-0.0116882
-0.0128894
-0.0140457
-0.0151491
-0.0161944
-0.0171783
-0.0180993
-0.0189572
-0.0197529
-0.0204874
-0.0211626
-0.0217801
-0.0223417
-0.0228489
-0.0233031
-0.0237056
-0.0240574
-0.0243594
-0.0246122
-0.0248165
-0.0249727
-0.0250814
-0.0251429
-0.0251576
-0.0251262
-0.0250491
-0.0249269
-0.0247605
-0.0245505
-0.024298
-0.0240039
-0.0236691
-0.0232947
-0.0228816
-0.0224304
-0.0219417
-0.0214152
-0.0208504
-0.0202457
-0.0195985
-0.0189047
-0.0181586
-0.017353
-0.0164785
-0.0155237
-0.014476
-0.0133214
-0.0120465
-0.0106408
-0.00909875
-0.00742761
-0.00566081
-0.00387405
-0.00216502
-0.00066533
0.000462034
0.0011208
0.00134415
0.00127738
0.00109655
0.000916916
0.000812663
0.00269797
0.0023443
0.00187821
0.00148256
0.00112908
0.000738454
0.000263775
-0.000322051
-0.00103441
-0.00187767
-0.00284518
-0.00392319
-0.00509197
-0.00632811
-0.00760725
-0.00890633
-0.0102048
-0.0114849
-0.0127317
-0.0139337
-0.0150818
-0.0161703
-0.0171956
-0.018156
-0.0190516
-0.0198834
-0.020653
-0.0213624
-0.0220137
-0.0226092
-0.0231506
-0.0236398
-0.0240783
-0.0244671
-0.0248075
-0.0251002
-0.0253459
-0.0255451
-0.0256983
-0.0258059
-0.0258683
-0.0258858
-0.025859
-0.0257883
-0.0256744
-0.0255177
-0.0253192
-0.0250795
-0.0247997
-0.0244806
-0.0241232
-0.0237283
-0.0232967
-0.0228289
-0.0223249
-0.0217844
-0.021206
-0.0205877
-0.019926
-0.0192158
-0.0184504
-0.0176208
-0.016716
-0.0157228
-0.0146263
-0.0134112
-0.012063
-0.0105709
-0.00893095
-0.00715755
-0.00531015
-0.00348845
-0.00179285
-0.000397495
0.0005318
0.000949254
0.000961335
0.00077294
0.000551586
0.000432164
0.00253332
0.00216347
0.00167198
0.00124698
0.000856941
0.000419643
-0.000112193
-0.000765193
-0.00155399
-0.00247878
-0.00352868
-0.00468513
-0.00592423
-0.00721979
-0.00854608
-0.00987974
-0.0112005
-0.0124914
-0.0137389
-0.0149328
-0.0160662
-0.0171349
-0.0181369
-0.0190722
-0.0199419
-0.020748
-0.0214928
-0.0221788
-0.0228086
-0.0233843
-0.0239081
-0.0243818
-0.0248067
-0.0251841
-0.025515
-0.0258002
-0.0260402
-0.0262356
-0.0263868
-0.0264941
-0.0265579
-0.0265784
-0.0265562
-0.0264916
-0.0263852
-0.0262375
-0.0260491
-0.0258209
-0.0255537
-0.0252482
-0.0249054
-0.0245261
-0.024111
-0.0236607
-0.0231754
-0.0226549
-0.0220982
-0.0215038
-0.0208688
-0.0201889
-0.019458
-0.0186682
-0.0178089
-0.0168674
-0.0158286
-0.0146757
-0.013392
-0.0119633
-0.0103782
-0.00863542
-0.0067663
-0.00487969
-0.0030525
-0.00143235
-0.000226906
0.00042959
0.000569981
0.000396201
0.000139207
4.53526e-06
0.00224805
0.00186745
0.00135653
0.000905267
0.000479964
-1.98564e-06
-0.000586694
-0.00130094
-0.00215799
-0.00315396
-0.00427374
-0.00549446
-0.0067889
-0.00812889
-0.00948796
-0.0108428
-0.0121738
-0.013465
-0.0147044
-0.0158836
-0.0169971
-0.0180427
-0.0190197
-0.0199293
-0.0207735
-0.0215551
-0.0222768
-0.0229415
-0.0235518
-0.0241102
-0.0246186
-0.0250789
-0.0254923
-0.0258602
-0.0261833
-0.0264624
-0.0266981
-0.0268907
-0.0270407
-0.0271483
-0.0272137
-0.0272374
-0.0272197
-0.0271609
-0.0270614
-0.0269219
-0.0267428
-0.0265249
-0.0262688
-0.0259754
-0.0256453
-0.0252795
-0.0248786
-0.0244432
-0.0239736
-0.0234698
-0.0229312
-0.0223567
-0.0217439
-0.0210894
-0.020388
-0.0196328
-0.0188142
-0.0179202
-0.0169362
-0.0158452
-0.0146286
-0.0132698
-0.0117541
-0.0100697
-0.00822092
-0.00629079
-0.00439515
-0.00261424
-0.00115927
-0.000237555
8.39959e-05
-4.61323e-05
-0.000319963
-0.00047286
0.00184498
0.00145932
0.000935058
0.000460947
2.90458e-06
-0.000519513
-0.00115181
-0.0019206
-0.00283629
-0.00389192
-0.00506835
-0.00633905
-0.00767425
-0.00904452
-0.0104231
-0.0117872
-0.0131179
-0.0144007
-0.0156251
-0.0167842
-0.0178745
-0.0188949
-0.0198462
-0.0207303
-0.02155
-0.0223086
-0.0230091
-0.0236545
-0.0242476
-0.0247907
-0.0252858
-0.0257346
-0.0261384
-0.0264982
-0.026815
-0.0270893
-0.0273215
-0.0275122
-0.0276615
-0.0277698
-0.0278372
-0.0278641
-0.0278507
-0.0277973
-0.0277044
-0.0275724
-0.0274018
-0.0271932
-0.0269471
-0.0266644
-0.0263457
-0.0259917
-0.0256032
-0.0251807
-0.0247246
-0.024235
-0.0237117
-0.0231539
-0.0225598
-0.0219267
-0.0212504
-0.020525
-0.0197421
-0.0188911
-0.0179579
-0.016926
-0.0157763
-0.0144897
-0.0130496
-0.01144
-0.00964965
-0.0077041
-0.00577358
-0.00389759
-0.00224135
-0.00105623
-0.000516423
-0.000563636
-0.000827989
-0.0010066
0.00133151
0.000946596
0.000414676
-7.81232e-05
-0.000565159
-0.00112331
-0.00179711
-0.00261225
-0.00357656
-0.00467994
-0.00589981
-0.0072067
-0.00856901
-0.00995662
-0.011343
-0.0127058
-0.0140274
-0.0152948
-0.0164988
-0.0176344
-0.0186992
-0.0196935
-0.020619
-0.0214784
-0.0222751
-0.0230123
-0.0236934
-0.0243216
-0.0248994
-0.0254291
-0.0259126
-0.0263516
-0.0267472
-0.0271004
-0.0274119
-0.0276823
-0.027912
-0.0281013
-0.0282504
-0.0283597
-0.0284292
-0.0284592
-0.02845
-0.0284018
-0.028315
-0.0281899
-0.0280271
-0.0278269
-0.02759
-0.0273169
-0.0270084
-0.026665
-0.0262875
-0.0258763
-0.025432
-0.0249548
-0.0244447
-0.0239012
-0.023323
-0.0227081
-0.0220533
-0.0213535
-0.0206019
-0.019789
-0.0189021
-0.0179255
-0.0168404
-0.015626
-0.0142635
-0.0127353
-0.0110214
-0.00911828
-0.00715275
-0.00523919
-0.00344692
-0.00203045
-0.00125094
-0.0011563
-0.00139189
-0.00160796
0.000718975
0.000340526
-0.000193322
-0.000700342
-0.00121176
-0.00180053
-0.00250963
-0.00336266
-0.00436529
-0.00550466
-0.00675532
-0.00808555
-0.00946259
-0.0108561
-0.01224
-0.013593
-0.0148985
-0.016145
-0.0173249
-0.0184345
-0.0194727
-0.0204408
-0.0213411
-0.0221769
-0.0229519
-0.0236695
-0.0243332
-0.0249458
-0.02551
-0.026028
-0.0265016
-0.0269321
-0.0273207
-0.0276683
-0.0279754
-0.0282426
-0.0284703
-0.0286587
-0.028808
-0.0289184
-0.0289901
-0.0290232
-0.029018
-0.0289746
-0.0288935
-0.0287749
-0.0286191
-0.0284267
-0.0281981
-0.0279339
-0.0276346
-0.0273008
-0.0269332
-0.0265323
-0.0260985
-0.0256324
-0.0251338
-0.0246028
-0.0240384
-0.0234393
-0.022803
-0.0221255
-0.0214012
-0.0206219
-0.0197765
-0.0188507
-0.0178265
-0.0166828
-0.0153982
-0.0139538
-0.0123291
-0.0105071
-0.00852164
-0.00659895
-0.00474151
-0.00314757
-0.00213159
-0.00184943
-0.00202937
-0.00229393
2.29762e-05
-0.000345325
-0.000875114
-0.00139183
-0.00192348
-0.00253777
-0.00327512
-0.00415755
-0.00518846
-0.00635265
-0.0076224
-0.00896443
-0.0103454
-0.011735
-0.013108
-0.0144441
-0.0157281
-0.0169498
-0.018103
-0.0191853
-0.0201966
-0.0211388
-0.022015
-0.0228286
-0.0235835
-0.0242831
-0.0249309
-0.0255297
-0.0260819
-0.0265896
-0.0270544
-0.0274776
-0.0278602
-0.0282029
-0.0285064
-0.028771
-0.0289971
-0.0291849
-0.0293346
-0.0294462
-0.02952
-0.0295561
-0.0295547
-0.0295159
-0.02944
-0.0293273
-0.0291782
-0.0289929
-0.028772
-0.0285159
-0.0282251
-0.0279001
-0.0275416
-0.02715
-0.0267259
-0.0262696
-0.0257816
-0.0252617
-0.0247096
-0.0241244
-0.0235042
-0.0228463
-0.0221458
-0.0213963
-0.0205881
-0.0197084
-0.0187405
-0.017664
-0.0164563
-0.0150972
-0.0135676
-0.0118382
-0.0098909
-0.00794629
-0.00608318
-0.00437796
-0.00315437
-0.0026696
-0.00275869
-0.00308682
-0.000739218
-0.00109509
-0.00161619
-0.00213855
-0.00268587
-0.00332015
-0.00407884
-0.00498239
-0.00603212
-0.00721088
-0.00848928
-0.00983306
-0.0112086
-0.0125864
-0.0139417
-0.0152556
-0.0165141
-0.0177084
-0.0188336
-0.019888
-0.0208727
-0.0217899
-0.022643
-0.0234359
-0.0241722
-0.0248555
-0.0254889
-0.0260752
-0.0266167
-0.0271152
-0.0275723
-0.0279891
-0.0283664
-0.028705
-0.0290054
-0.0292679
-0.0294927
-0.0296801
-0.0298302
-0.0299432
-0.030019
-0.0300579
-0.03006
-0.0300255
-0.0299545
-0.0298474
-0.0297043
-0.0295257
-0.0293118
-0.0290632
-0.0287803
-0.0284635
-0.0281133
-0.0277304
-0.0273151
-0.0268681
-0.0263896
-0.0258799
-0.025339
-0.0247662
-0.0241605
-0.0235198
-0.0228406
-0.0221173
-0.0213422
-0.0205041
-0.0195877
-0.0185741
-0.0174406
-0.0161649
-0.0147276
-0.0131001
-0.0112537
-0.00928181
-0.00743776
-0.00569518
-0.00431396
-0.00362495
-0.00359577
-0.00400805
-0.00155097
-0.00189223
-0.00240095
-0.00292496
-0.00348334
-0.00413211
-0.00490575
-0.00582282
-0.00688281
-0.00806707
-0.00934512
-0.0106822
-0.0120449
-0.0134043
-0.0147368
-0.0160246
-0.0172551
-0.0184205
-0.0195169
-0.0205438
-0.0215025
-0.0223958
-0.0232273
-0.0240008
-0.02472
-0.0253883
-0.0260087
-0.0265838
-0.0271157
-0.027606
-0.0280562
-0.0284673
-0.0288401
-0.029175
-0.0294727
-0.0297333
-0.0299572
-0.0301443
-0.0302949
-0.0304091
-0.0304869
-0.0305284
-0.0305338
-0.0305032
-0.0304368
-0.0303348
-0.0301973
-0.0300248
-0.0298176
-0.0295759
-0.0293003
-0.0289911
-0.0286488
-0.0282739
-0.027867
-0.0274286
-0.0269591
-0.0264589
-0.0259281
-0.0253668
-0.0247742
-0.024149
-0.0234886
-0.0227889
-0.0220434
-0.0212426
-0.0203733
-0.0194179
-0.0183547
-0.01716
-0.0158136
-0.0142926
-0.0125624
-0.0106103
-0.00878021
-0.00705927
-0.00558497
-0.00471146
-0.00456099
-0.00505867
-0.00239531
-0.00272022
-0.00321339
-0.00373501
-0.00430008
-0.00495843
-0.00574125
-0.00666511
-0.00772791
-0.00890994
-0.0101801
-0.0115036
-0.0128475
-0.0141838
-0.0154899
-0.0167491
-0.0179499
-0.0190858
-0.0201537
-0.0211537
-0.0220875
-0.0229582
-0.0237694
-0.024525
-0.0252285
-0.0258831
-0.0264917
-0.0270566
-0.0275798
-0.0280628
-0.0285068
-0.0289128
-0.0292814
-0.0296132
-0.0299085
-0.0301675
-0.0303904
-0.0305774
-0.0307285
-0.0308438
-0.0309234
-0.0309674
-0.0309759
-0.0309489
-0.0308866
-0.0307893
-0.0306571
-0.0304903
-0.0302891
-0.0300539
-0.0297851
-0.029483
-0.0291481
-0.0287809
-0.0283818
-0.0279515
-0.0274905
-0.0269992
-0.0264781
-0.0259273
-0.0253468
-0.0247357
-0.0240924
-0.0234138
-0.0226948
-0.0219276
-0.0211008
-0.0201986
-0.0192006
-0.0180835
-0.0168262
-0.015408
-0.0137911
-0.0119383
-0.0101003
-0.00842326
-0.00691785
-0.00590536
-0.0056637
-0.00621879
-0.00325581
-0.00356253
-0.00403752
-0.00455349
-0.00512134
-0.00578479
-0.0065717
-0.00749658
-0.00855595
-0.00972934
-0.0109856
-0.0122903
-0.013611
-0.0149207
-0.016198
-0.0174272
-0.0185979
-0.0197045
-0.0207445
-0.0217186
-0.0226287
-0.0234782
-0.0242706
-0.0250097
-0.0256987
-0.0263408
-0.0269386
-0.0274943
-0.0280096
-0.028486
-0.0289244
-0.0293258
-0.0296907
-0.0300196
-0.0303127
-0.0305702
-0.0307924
-0.0309792
-0.0311308
-0.0312472
-0.0313285
-0.0313747
-0.0313859
-0.0313622
-0.0313038
-0.0312108
-0.0310834
-0.0309218
-0.0307263
-0.0304971
-0.0302346
-0.0299392
-0.0296113
-0.0292512
-0.0288596
-0.028437
-0.0279841
-0.0275013
-0.0269892
-0.0264485
-0.0258791
-0.0252811
-0.0246533
-0.0239938
-0.0232988
-0.0225619
-0.0217735
-0.0209198
-0.0199823
-0.0189384
-0.017765
-0.0164418
-0.0149365
-0.0132182
-0.0113908
-0.0097665
-0.00827036
-0.00717097
-0.00687839
-0.00745131
-0.00411657
-0.00440353
-0.0048582
-0.00536593
-0.00593328
-0.00659797
-0.00738463
-0.00830575
-0.00935671
-0.0105163
-0.0117541
-0.013036
-0.0143307
-0.0156118
-0.016859
-0.0180577
-0.0191985
-0.0202764
-0.0212898
-0.0222392
-0.0231272
-0.0239569
-0.0247319
-0.0254557
-0.0261315
-0.0267622
-0.0273501
-0.0278974
-0.0284056
-0.0288759
-0.0293093
-0.0297064
-0.0300679
-0.0303941
-0.0306852
-0.0309415
-0.0311629
-0.0313496
-0.0315016
-0.031619
-0.0317017
-0.0317499
-0.0317637
-0.031743
-0.0316881
-0.031599
-0.031476
-0.0313192
-0.0311289
-0.0309053
-0.0306487
-0.0303595
-0.0300381
-0.0296849
-0.0293004
-0.0288851
-0.0284398
-0.0279651
-0.0274618
-0.0269304
-0.0263716
-0.0257857
-0.0251722
-0.0245301
-0.0238567
-0.0231471
-0.0223934
-0.0215838
-0.0207018
-0.019726
-0.0186327
-0.0174023
-0.016011
-0.0144257
-0.0126376
-0.0110547
-0.00960523
-0.00846845
-0.00813812
-0.00866985
-0.00496291
-0.00522897
-0.0056618
-0.00615916
-0.00672329
-0.007386
-0.00816882
-0.00908229
-0.0101213
-0.0112633
-0.012479
-0.0137358
-0.0150026
-0.016254
-0.0174709
-0.0186395
-0.0197513
-0.0208018
-0.0217897
-0.0227162
-0.0235835
-0.024395
-0.0251539
-0.0258637
-0.0265274
-0.0271476
-0.0277266
-0.0282662
-0.0287678
-0.0292326
-0.0296613
-0.0300547
-0.0304131
-0.0307368
-0.0310261
-0.0312811
-0.0315018
-0.0316883
-0.0318407
-0.0319589
-0.032043
-0.032093
-0.032109
-0.032091
-0.0320392
-0.0319538
-0.0318347
-0.0316823
-0.0314968
-0.0312783
-0.0310272
-0.0307438
-0.0304285
-0.0300816
-0.0297038
-0.0292956
-0.0288576
-0.0283907
-0.0278956
-0.0273732
-0.0268243
-0.0262496
-0.0256494
-0.0250232
-0.0243694
-0.0236844
-0.022962
-0.0221922
-0.0213603
-0.0204468
-0.0194288
-0.018287
-0.0170017
-0.0155357
-0.0138545
-0.0122869
-0.0108848
-0.00974735
-0.009366
-0.00978092
-0.00578083
-0.00602596
-0.00643609
-0.00692145
-0.00748014
-0.00813832
-0.00891461
-0.00981761
-0.0108414
-0.0119637
-0.0131551
-0.0143853
-0.0156235
-0.0168453
-0.0180324
-0.0191719
-0.0202559
-0.0212805
-0.0222447
-0.0231498
-0.0239981
-0.0247927
-0.025537
-0.026234
-0.0268867