/*--------------------------------*- C++ -*----------------------------------*\
  =========                 |
  \\      /  F ield         | OpenFOAM: The Open Source CFD Toolbox
   \\    /   O peration     | Website:  https://openfoam.org
    \\  /    A nd           | Version:  13
     \\/     M anipulation  |
\*---------------------------------------------------------------------------*/
FoamFile
{
    format      ascii;
    class       surfaceScalarField;
    location    "5";
    object      phi;
}
// * * * * * * * * * * * * * * * * * * * * * * * * * * * * * * * * * * * * * //

dimensions      [0 3 -1 0 0 0 0];

internalField   nonuniform List<scalar> 
12640
(
1.61724e-09
-1.6172e-09
1.41959e-08
-1.25787e-08
3.62458e-08
-2.20499e-08
6.17968e-08
-2.5551e-08
8.5035e-08
-2.32383e-08
1.02603e-07
-1.7568e-08
1.13217e-07
-1.06139e-08
1.17606e-07
-4.38921e-09
1.17828e-07
-2.2143e-10
1.16039e-07
1.78848e-09
1.14067e-07
1.97228e-09
1.13117e-07
9.49564e-10
1.13606e-07
-4.8835e-10
1.15274e-07
-1.66819e-09
1.17384e-07
-2.11074e-09
1.19088e-07
-1.70331e-09
1.19573e-07
-4.8505e-10
1.18341e-07
1.23144e-09
1.14681e-07
3.6601e-09
1.07718e-07
6.96287e-09
9.68137e-08
1.09047e-08
8.14638e-08
1.53499e-08
6.12074e-08
2.02564e-08
3.5862e-08
2.53454e-08
5.4225e-09
3.04395e-08
-3.0249e-08
3.56715e-08
-7.21299e-08
4.18808e-08
-1.22189e-07
5.00593e-08
-1.83003e-07
6.08142e-08
-2.56939e-07
7.39352e-08
-3.43959e-07
8.70203e-08
-4.41424e-07
9.74648e-08
-5.46182e-07
1.04758e-07
-6.55073e-07
1.08891e-07
-7.65222e-07
1.10149e-07
-8.74067e-07
1.08845e-07
-9.79437e-07
1.05371e-07
-1.07955e-06
1.00109e-07
-1.17294e-06
9.33932e-08
-1.25847e-06
8.55312e-08
-1.33521e-06
7.67377e-08
-1.40239e-06
6.71795e-08
-1.45935e-06
5.69646e-08
-1.50549e-06
4.61398e-08
-1.54019e-06
3.46972e-08
-1.56275e-06
2.25617e-08
-1.57341e-06
1.06573e-08
-1.57167e-06
-1.73598e-09
-1.55577e-06
-1.59008e-08
-1.52667e-06
-2.91013e-08
-1.48295e-06
-4.37203e-08
-1.425e-06
-5.79503e-08
-1.3526e-06
-7.24041e-08
-1.26622e-06
-8.63793e-08
-1.16639e-06
-9.98301e-08
-1.05388e-06
-1.12503e-07
-9.29854e-07
-1.2403e-07
-7.95889e-07
-1.33965e-07
-6.54045e-07
-1.41844e-07
-5.07015e-07
-1.4703e-07
-3.58078e-07
-1.48937e-07
-2.10949e-07
-1.47129e-07
-6.9653e-08
-1.41296e-07
6.18205e-08
-1.31474e-07
1.79484e-07
-1.17664e-07
2.78539e-07
-9.90546e-08
3.55908e-07
-7.73694e-08
4.08762e-07
-5.28536e-08
4.35358e-07
-2.65967e-08
4.35236e-07
1.22196e-10
4.09593e-07
2.56434e-08
3.6132e-07
4.82728e-08
2.95739e-07
6.55808e-08
2.21728e-07
7.40114e-08
1.50588e-07
7.11401e-08
8.98628e-08
6.07247e-08
4.39362e-08
4.59267e-08
1.39864e-08
2.99498e-08
3.96721e-10
1.35896e-08
3.96719e-10
9.7942e-09
-1.14114e-08
4.01473e-08
-4.29318e-08
8.25236e-08
-6.44262e-08
1.26231e-07
-6.92582e-08
1.64042e-07
-6.10497e-08
1.92241e-07
-4.57667e-08
2.10076e-07
-2.84487e-08
2.1843e-07
-1.27437e-08
2.19002e-07
-7.93406e-10
2.13982e-07
6.80883e-09
2.05509e-07
1.04452e-08
1.95034e-07
1.14242e-08
1.8303e-07
1.1516e-08
1.68999e-07
1.2363e-08
1.51932e-07
1.49554e-08
1.30698e-07
1.95315e-08
1.04419e-07
2.57931e-08
7.20121e-08
3.36388e-08
3.2301e-08
4.33712e-08
-1.60676e-08
5.53315e-08
-7.48864e-08
6.97235e-08
-1.45977e-07
8.64407e-08
-2.30606e-07
1.04885e-07
-3.29592e-07
1.24332e-07
-4.43496e-07
1.44343e-07
-5.7226e-07
1.64436e-07
-7.14134e-07
1.83755e-07
-8.6547e-07
2.01396e-07
-1.02153e-06
2.16877e-07
-1.17689e-06
2.29288e-07
-1.32764e-06
2.37775e-07
-1.4722e-06
2.42027e-07
-1.60927e-06
2.41828e-07
-1.73754e-06
2.37155e-07
-1.85592e-06
2.28536e-07
-1.9637e-06
2.16621e-07
-2.06033e-06
2.02002e-07
-2.14548e-06
1.85255e-07
-2.21889e-06
1.66808e-07
-2.28041e-06
1.47051e-07
-2.32991e-06
1.26239e-07
-2.36727e-06
1.04539e-07
-2.39237e-06
8.20622e-08
-2.40509e-06
5.88599e-08
-2.40536e-06
3.49652e-08
-2.39298e-06
1.01856e-08
-2.36757e-06
-1.4755e-08
-2.32886e-06
-4.04467e-08
-2.27731e-06
-6.74453e-08
-2.21182e-06
-9.4593e-08
-2.13306e-06
-1.22484e-07
-2.04049e-06
-1.50521e-07
-1.93427e-06
-1.78625e-07
-1.81432e-06
-2.06327e-07
-1.68096e-06
-2.33185e-07
-1.53502e-06
-2.5845e-07
-1.3777e-06
-2.81351e-07
-1.21055e-06
-3.01108e-07
-1.03579e-06
-3.16606e-07
-8.55925e-07
-3.26897e-07
-6.73841e-07
-3.31021e-07
-4.92854e-07
-3.28116e-07
-3.16635e-07
-3.17515e-07
-1.49055e-07
-2.99053e-07
5.87101e-09
-2.7259e-07
1.45569e-07
-2.38752e-07
2.65776e-07
-1.97577e-07
3.63727e-07
-1.50805e-07
4.36946e-07
-9.9816e-08
4.8363e-07
-4.65618e-08
5.039e-07
5.37362e-09
4.96261e-07
5.59119e-08
4.63201e-07
9.8641e-08
4.06362e-07
1.3085e-07
3.28276e-07
1.49227e-07
2.38537e-07
1.50464e-07
1.49366e-07
1.35097e-07
7.33288e-08
1.05988e-07
2.11503e-08
6.57681e-08
2.1547e-08
1.83406e-08
-2.9752e-08
6.13419e-08
-8.59331e-08
1.10517e-07
-1.13602e-07
1.54517e-07
-1.13258e-07
1.88778e-07
-9.53106e-08
2.12167e-07
-6.91554e-08
2.25205e-07
-4.14868e-08
2.28802e-07
-1.63404e-08
2.24051e-07
3.95707e-09
2.12279e-07
1.85817e-08
1.94874e-07
2.78498e-08
1.7243e-07
3.38682e-08
1.44781e-07
3.91654e-08
1.11182e-07
4.59613e-08
7.05076e-08
5.563e-08
2.14111e-08
6.86281e-08
-3.77344e-08
8.49387e-08
-1.08672e-07
1.04576e-07
-1.92876e-07
1.27575e-07
-2.91584e-07
1.5404e-07
-4.05416e-07
1.83556e-07
-5.34142e-07
2.15166e-07
-6.76835e-07
2.47579e-07
-8.31493e-07
2.7899e-07
-9.95097e-07
3.07947e-07
-1.16374e-06
3.33078e-07
-1.33333e-06
3.53342e-07
-1.50005e-06
3.68115e-07
-1.66033e-06
3.77166e-07
-1.81144e-06
3.80398e-07
-1.95163e-06
3.77964e-07
-2.07977e-06
3.70164e-07
-2.19555e-06
3.57611e-07
-2.2993e-06
3.40904e-07
-2.39132e-06
3.20551e-07
-2.47194e-06
2.97248e-07
-2.5415e-06
2.71555e-07
-2.60025e-06
2.44009e-07
-2.6484e-06
2.1496e-07
-2.68609e-06
1.84742e-07
-2.71342e-06
1.5357e-07
-2.73041e-06
1.21521e-07
-2.737e-06
8.86566e-08
-2.73309e-06
5.49521e-08
-2.71849e-06
2.03591e-08
-2.69319e-06
-1.51153e-08
-2.6565e-06
-5.14364e-08
-2.60813e-06
-8.88181e-08
-2.54822e-06
-1.2736e-07
-2.47605e-06
-1.66762e-07
-2.3915e-06
-2.07034e-07
-2.2943e-06
-2.47723e-07
-2.18437e-06
-2.88555e-07
-2.06169e-06
-3.28998e-07
-1.92654e-06
-3.68338e-07
-1.77942e-06
-4.05575e-07
-1.62118e-06
-4.3959e-07
-1.45308e-06
-4.69201e-07
-1.2768e-06
-4.9289e-07
-1.09462e-06
-5.09076e-07
-9.09185e-07
-5.16458e-07
-7.23641e-07
-5.1366e-07
-5.41554e-07
-4.99602e-07
-3.66628e-07
-4.73979e-07
-2.02323e-07
-4.36895e-07
-5.21149e-08
-3.8896e-07
8.13091e-08
-3.31001e-07
1.95274e-07
-2.64769e-07
2.87755e-07
-1.92297e-07
3.57851e-07
-1.16658e-07
4.04162e-07
-4.0937e-08
4.27291e-07
3.27826e-08
4.25391e-07
1.00541e-07
3.99445e-07
1.56796e-07
3.5078e-07
1.97892e-07
2.82519e-07
2.18724e-07
2.00703e-07
2.16913e-07
1.15609e-07
1.91081e-07
4.09643e-08
1.40413e-07
6.25114e-08
2.5433e-08
-5.5185e-08
7.48107e-08
-1.35311e-07
1.22385e-07
-1.61176e-07
1.59483e-07
-1.50357e-07
1.84503e-07
-1.20331e-07
1.984e-07
-8.3052e-08
2.02266e-07
-4.53526e-08
1.97144e-07
-1.12189e-08
1.83783e-07
1.7318e-08
1.62702e-07
3.96632e-08
1.33673e-07
5.68784e-08
9.62379e-08
7.13032e-08
4.96628e-08
8.57404e-08
-6.96491e-09
1.02589e-07
-7.46861e-08
1.23351e-07
-1.54758e-07
1.487e-07
-2.48617e-07
1.78797e-07
-3.57523e-07
2.13483e-07
-4.82127e-07
2.52178e-07
-6.22169e-07
2.94082e-07
-7.76224e-07
3.37611e-07
-9.41394e-07
3.80336e-07
-1.11421e-06
4.20395e-07
-1.29062e-06
4.55398e-07
-1.46664e-06
4.83963e-07
-1.63845e-06
5.04894e-07
-1.80253e-06
5.17421e-07
-1.95607e-06
5.21653e-07
-2.09743e-06
5.18524e-07
-2.22598e-06
5.08955e-07
-2.34179e-06
4.93772e-07
-2.44536e-06
4.73736e-07
-2.53727e-06
4.49519e-07
-2.6182e-06
4.21835e-07
-2.68886e-06
3.91213e-07
-2.74985e-06
3.58231e-07
-2.80163e-06
3.23333e-07
-2.84454e-06
2.86925e-07
-2.87884e-06
2.49256e-07
-2.90464e-06
2.1054e-07
-2.92199e-06
1.70922e-07
-2.93086e-06
1.30394e-07
-2.93114e-06
8.89363e-08
-2.92262e-06
4.64344e-08
-2.90505e-06
2.78789e-09
-2.87813e-06
-4.20416e-08
-2.8414e-06
-8.81575e-08
-2.79452e-06
-1.35701e-07
-2.73719e-06
-1.84687e-07
-2.66887e-06
-2.35084e-07
-2.58912e-06
-2.86789e-07
-2.49755e-06
-3.39292e-07
-2.39392e-06
-3.92181e-07
-2.27802e-06
-4.44896e-07
-2.14978e-06
-4.96584e-07
-2.00929e-06
-5.46066e-07
-1.85712e-06
-5.91756e-07
-1.69421e-06
-6.32113e-07
-1.52179e-06
-6.65312e-07
-1.34169e-06
-6.89176e-07
-1.15623e-06
-7.01915e-07
-9.68264e-07
-7.01627e-07
-7.81176e-07
-6.8669e-07
-5.99002e-07
-6.56153e-07
-4.25805e-07
-6.10092e-07
-2.65104e-07
-5.49661e-07
-1.19954e-07
-4.76151e-07
6.99125e-09
-3.91714e-07
1.14059e-07
-2.99365e-07
1.99728e-07
-2.02326e-07
2.63313e-07
-1.04522e-07
3.05493e-07
-9.3973e-09
3.26492e-07
7.95424e-08
3.25639e-07
1.57648e-07
3.02993e-07
2.20538e-07
2.58986e-07
2.62731e-07
1.97286e-07
2.78613e-07
1.23467e-07
2.649e-07
4.79249e-08
2.15955e-07
1.10436e-07
3.09495e-08
-8.61344e-08
8.03354e-08
-1.84697e-07
1.20214e-07
-2.01054e-07
1.46715e-07
-1.76858e-07
1.60243e-07
-1.33858e-07
1.62809e-07
-8.56188e-08
1.55705e-07
-3.82486e-08
1.39666e-07
4.82028e-09
1.14825e-07
4.21588e-08
8.08139e-08
7.36747e-08
3.67252e-08
1.00967e-07
-1.85641e-08
1.26593e-07
-8.6172e-08
1.53348e-07
-1.67131e-07
1.83548e-07
-2.62413e-07
2.18632e-07
-3.72871e-07
2.59159e-07
-4.99035e-07
3.04961e-07
-6.40804e-07
3.55252e-07
-7.96993e-07
4.08367e-07
-9.64928e-07
4.62016e-07
-1.14113e-06
5.13811e-07
-1.32124e-06
5.60445e-07
-1.50113e-06
6.00284e-07
-1.67668e-06
6.30957e-07
-1.84361e-06
6.50894e-07
-1.99898e-06
6.60264e-07
-2.14155e-06
6.59989e-07
-2.27122e-06
6.51317e-07
-2.38832e-06
6.35629e-07
-2.49353e-06
6.14159e-07
-2.58762e-06
5.87869e-07
-2.67144e-06
5.57555e-07
-2.74573e-06
5.2381e-07
-2.81115e-06
4.87252e-07
-2.86832e-06
4.48384e-07
-2.91772e-06
4.07635e-07
-2.95974e-06
3.6535e-07
-2.99465e-06
3.21839e-07
-3.02264e-06
2.77243e-07
-3.04368e-06
2.31581e-07
-3.05784e-06
1.85078e-07
-3.06503e-06
1.37586e-07
-3.06514e-06
8.90425e-08
-3.05795e-06
3.92474e-08
-3.04316e-06
-1.20004e-08
-3.02041e-06
-6.47899e-08
-2.98919e-06
-1.19377e-07
-2.94906e-06
-1.75834e-07
-2.89961e-06
-2.34141e-07
-2.84037e-06
-2.94323e-07
-2.7707e-06
-3.56458e-07
-2.68985e-06
-4.20142e-07
-2.59743e-06
-4.84599e-07
-2.49299e-06
-5.49336e-07
-2.37612e-06
-6.13455e-07
-2.24643e-06
-6.75755e-07
-2.10414e-06
-7.34051e-07
-1.9498e-06
-7.86456e-07
-1.78413e-06
-8.30979e-07
-1.60854e-06
-8.64765e-07
-1.425e-06
-8.85453e-07
-1.23601e-06
-8.90622e-07
-1.04454e-06
-8.78152e-07
-8.54251e-07
-8.46446e-07
-6.69724e-07
-7.9462e-07
-4.9576e-07
-7.23624e-07
-3.35825e-07
-6.36086e-07
-1.92983e-07
-5.34557e-07
-6.98645e-08
-4.22483e-07
3.20522e-08
-3.04243e-07
1.12047e-07
-1.84517e-07
1.70375e-07
-6.77256e-08
2.07998e-07
4.19193e-08
2.25414e-07
1.40233e-07
2.23113e-07
2.22838e-07
2.01454e-07
2.84391e-07
1.61345e-07
3.18722e-07
1.05757e-07
3.20488e-07
4.2346e-08
2.79366e-07
1.52782e-07
3.42944e-08
-1.20429e-07
7.76383e-08
-2.28041e-07
1.05829e-07
-2.29245e-07
1.19237e-07
-1.90265e-07
1.20218e-07
-1.34839e-07
1.10676e-07
-7.60764e-08
9.15712e-08
-1.91442e-08
6.30393e-08
3.33522e-08
2.46898e-08
8.05083e-08
-2.45496e-08
1.22914e-07
-8.59996e-08
1.62417e-07
-1.60995e-07
2.01588e-07
-2.50684e-07
2.43037e-07
-3.55911e-07
2.88775e-07
-4.77135e-07
3.39857e-07
-6.14246e-07
3.96269e-07
-7.6639e-07
4.57105e-07
-9.31609e-07
5.20472e-07
-1.10677e-06
5.83528e-07
-1.28756e-06
6.42805e-07
-1.46957e-06
6.95819e-07
-1.64825e-06
7.39127e-07
-1.81836e-06
7.70398e-07
-1.97651e-06
7.89104e-07
-2.12146e-06
7.95849e-07
-2.25325e-06
7.92049e-07
-2.37255e-06
7.79287e-07
-2.48033e-06
7.59103e-07
-2.57751e-06
7.3281e-07
-2.66491e-06
7.01561e-07
-2.74329e-06
6.6624e-07
-2.8133e-06
6.27567e-07
-2.87562e-06
5.86131e-07
-2.9308e-06
5.42436e-07
-2.97931e-06
4.96889e-07
-3.02146e-06
4.49786e-07
-3.05754e-06
4.0143e-07
-3.08777e-06
3.52072e-07
-3.11234e-06
3.0181e-07
-3.13103e-06
2.50271e-07
-3.14407e-06
1.98118e-07
-3.15137e-06
1.44892e-07
-3.15288e-06
9.05475e-08
-3.14846e-06
3.48303e-08
-3.13798e-06
-2.24847e-08
-3.12124e-06
-8.15296e-08
-3.09784e-06
-1.4278e-07
-3.06727e-06
-2.06403e-07
-3.02887e-06
-2.72537e-07
-2.98196e-06
-3.41238e-07
-2.92582e-06
-4.1259e-07
-2.85942e-06
-4.86549e-07
-2.78188e-06
-5.62138e-07
-2.69242e-06
-6.38798e-07
-2.59054e-06
-7.15333e-07
-2.47572e-06
-7.90576e-07
-2.34732e-06
-8.62452e-07
-2.20532e-06
-9.28455e-07
-2.04979e-06
-9.86509e-07
-1.88174e-06
-1.03281e-06
-1.70274e-06
-1.06445e-06
-1.51477e-06
-1.0786e-06
-1.32071e-06
-1.07221e-06
-1.12388e-06
-1.04328e-06
-9.28346e-07
-9.90157e-07
-7.39493e-07
-9.12477e-07
-5.6243e-07
-8.13148e-07
-4.01105e-07
-6.95882e-07
-2.58879e-07
-5.64709e-07
-1.38122e-07
-4.25e-07
-4.01001e-08
-2.82539e-07
3.5184e-08
-1.4301e-07
8.87616e-08
-1.16584e-08
1.22097e-07
1.06897e-07
1.36524e-07
2.08411e-07
1.32822e-07
2.88093e-07
1.11582e-07
3.39962e-07
7.51476e-08
3.56923e-07
2.9822e-08
3.24692e-07
1.82604e-07
3.4526e-08
-1.54955e-07
6.65059e-08
-2.60021e-07
8.08848e-08
-2.43624e-07
8.02398e-08
-1.8962e-07
6.80845e-08
-1.22684e-07
4.58216e-08
-5.38135e-08
1.37864e-08
1.2891e-08
-2.84388e-08
7.55774e-08
-8.18221e-08
1.33892e-07
-1.47697e-07
1.88789e-07
-2.27486e-07
2.42207e-07
-3.22434e-07
2.96536e-07
-4.33378e-07
3.53981e-07
-5.60591e-07
4.15987e-07
-7.03595e-07
4.82862e-07
-8.61084e-07
5.53759e-07
-1.03056e-06
6.26582e-07
-1.20829e-06
6.98196e-07
-1.38975e-06
7.64989e-07
-1.57013e-06
8.2319e-07
-1.74362e-06
8.6931e-07
-1.90595e-06
9.0145e-07
-2.055e-06
9.19457e-07
-2.19064e-06
9.24739e-07
-2.31355e-06
9.18759e-07
-2.42474e-06
9.03239e-07
-2.52527e-06
8.79817e-07
-2.61612e-06
8.49949e-07
-2.69813e-06
8.14822e-07
-2.77201e-06
7.75438e-07
-2.83837e-06
7.32599e-07
-2.89775e-06
6.86952e-07
-2.95065e-06
6.39035e-07
-2.99749e-06
5.89273e-07
-3.03864e-06
5.38036e-07
-3.07424e-06
4.85387e-07
-3.10451e-06
4.31701e-07
-3.12968e-06
3.77238e-07
-3.14999e-06
3.22119e-07
-3.16593e-06
2.66212e-07
-3.17714e-06
2.09333e-07
-3.18361e-06
1.5136e-07
-3.18518e-06
9.21163e-08
-3.18169e-06
3.1341e-08
-3.17318e-06
-3.09974e-08
-3.15961e-06
-9.50953e-08
-3.14097e-06
-1.61424e-07
-3.11715e-06
-2.30224e-07
-3.08791e-06
-3.01775e-07
-3.05286e-06
-3.76285e-07
-3.01159e-06
-4.5386e-07
-2.96336e-06
-5.34783e-07
-2.90656e-06
-6.18938e-07
-2.83968e-06
-7.05678e-07
-2.76071e-06
-7.94305e-07
-2.66775e-06
-8.83533e-07
-2.55945e-06
-9.70752e-07
-2.43544e-06
-1.05247e-06
-2.29592e-06
-1.12602e-06
-2.14123e-06
-1.1875e-06
-1.97188e-06
-1.23381e-06
-1.78944e-06
-1.26104e-06
-1.5965e-06
-1.26515e-06
-1.3962e-06
-1.24357e-06
-1.19218e-06
-1.19418e-06
-9.89443e-07
-1.11521e-06
-7.94443e-07
-1.00815e-06
-6.12951e-07
-8.77374e-07
-4.49253e-07
-7.28406e-07
-3.06893e-07
-5.6736e-07
-1.88183e-07
-4.01249e-07
-9.39349e-08
-2.37258e-07
-2.34251e-08
-8.21681e-08
2.51976e-08
5.82745e-08
5.42654e-08
1.79343e-07
6.56348e-08
2.76724e-07
6.06083e-08
3.44988e-07
4.15427e-08
3.75988e-07
1.48841e-08
3.5135e-07
1.97488e-07
3.05904e-08
-1.85545e-07
4.83983e-08
-2.77828e-07
4.76633e-08
-2.42889e-07
3.26268e-08
-1.74584e-07
7.04625e-09
-9.71036e-08
-2.84217e-08
-1.83456e-08
-7.41032e-08
5.85725e-08
-1.3088e-07
1.32355e-07
-2e-07
2.03011e-07
-2.8283e-07
2.71619e-07
-3.80612e-07
3.39988e-07
-4.94202e-07
4.10126e-07
-6.2383e-07
4.83609e-07
-7.6892e-07
5.61078e-07
-9.27955e-07
6.41896e-07
-1.09809e-06
7.23893e-07
-1.27525e-06
8.03743e-07
-1.45465e-06
8.77595e-07
-1.63057e-06
9.40906e-07
-1.79759e-06
9.90213e-07
-1.95222e-06
1.02394e-06
-2.09345e-06
1.04268e-06
-2.22152e-06
1.04753e-06
-2.3373e-06
1.04051e-06
-2.44182e-06
1.02328e-06
-2.53623e-06
9.97649e-07
-2.6215e-06
9.65088e-07
-2.69843e-06
9.26878e-07
-2.76767e-06
8.84066e-07
-2.82977e-06
8.37543e-07
-2.88522e-06
7.88039e-07
-2.93441e-06
7.36145e-07
-2.97769e-06
6.82315e-07
-3.0153e-06
6.26888e-07
-3.04773e-06
5.70466e-07
-3.07569e-06
5.13342e-07
-3.09956e-06
4.55571e-07
-3.11941e-06
3.97089e-07
-3.13494e-06
3.37655e-07
-3.14652e-06
2.7779e-07
-3.15405e-06
2.16864e-07
-3.15774e-06
1.55044e-07
-3.15769e-06
9.2073e-08
-3.15401e-06
2.7659e-08
-3.14684e-06
-3.81674e-08
-3.13615e-06
-1.0579e-07
-3.12182e-06
-1.75748e-07
-3.1037e-06
-2.48347e-07
-3.08152e-06
-3.23956e-07
-3.05492e-06
-4.02886e-07
-3.02347e-06
-4.85307e-07
-2.98696e-06
-5.71289e-07
-2.94477e-06
-6.61127e-07
-2.89618e-06
-7.54271e-07
-2.8403e-06
-8.50191e-07
-2.77584e-06
-9.47992e-07
-2.69969e-06
-1.0469e-06
-2.6074e-06
-1.14476e-06
-2.49559e-06
-1.23783e-06
-2.36329e-06
-1.31979e-06
-2.21161e-06
-1.38549e-06
-2.04278e-06
-1.42986e-06
-1.85774e-06
-1.45019e-06
-1.65975e-06
-1.44156e-06
-1.45208e-06
-1.40185e-06
-1.23955e-06
-1.32774e-06
-1.02814e-06
-1.21956e-06
-8.25831e-07
-1.07968e-06
-6.39134e-07
-9.15103e-07
-4.72794e-07
-7.33701e-07
-3.30562e-07
-5.4348e-07
-2.14546e-07
-3.53275e-07
-1.24955e-07
-1.71759e-07
-6.02565e-08
-6.42415e-09
-1.71865e-08
1.36273e-07
7.35684e-09
2.52181e-07
1.5912e-08
3.36433e-07
1.20884e-08
3.79812e-07
2.10895e-09
3.6133e-07
1.99597e-07
2.26404e-08
-2.08186e-07
2.4795e-08
-2.79983e-07
8.0884e-09
-2.26182e-07
-2.09145e-08
-1.45581e-07
-5.99672e-08
-5.80509e-08
-1.0897e-07
3.06575e-08
-1.68679e-07
1.18281e-07
-2.40257e-07
2.03933e-07
-3.24983e-07
2.87737e-07
-4.24027e-07
3.70664e-07
-5.38228e-07
4.54189e-07
-6.67829e-07
5.39727e-07
-8.12293e-07
6.28073e-07
-9.70123e-07
7.18907e-07
-1.13836e-06
8.10138e-07
-1.31275e-06
8.98281e-07
-1.4882e-06
9.79194e-07
-1.65864e-06
1.04803e-06
-1.8192e-06
1.10146e-06
-1.96724e-06
1.13826e-06
-2.10196e-06
1.15866e-06
-2.22367e-06
1.16439e-06
-2.33335e-06
1.15721e-06
-2.43207e-06
1.13924e-06
-2.52094e-06
1.11214e-06
-2.60089e-06
1.0776e-06
-2.67266e-06
1.03686e-06
-2.73687e-06
9.91093e-07
-2.79405e-06
9.41243e-07
-2.84465e-06
8.88137e-07
-2.88907e-06
8.32461e-07
-2.92774e-06
7.7482e-07
-2.96124e-06
7.15813e-07
-2.99016e-06
6.55806e-07
-3.01458e-06
5.94881e-07
-3.03454e-06
5.3331e-07
-3.05011e-06
4.7114e-07
-3.06152e-06
4.08495e-07
-3.06935e-06
3.45492e-07
-3.07384e-06
2.8228e-07
-3.07546e-06
2.18482e-07
-3.07447e-06
1.54049e-07
-3.0711e-06
8.87043e-08
-3.06558e-06
2.21396e-08
-3.05796e-06
-4.57836e-08
-3.0482e-06
-1.15554e-07
-3.03634e-06
-1.8761e-07
-3.02236e-06
-2.62319e-07
-3.00622e-06
-3.40098e-07
-2.98778e-06
-4.21326e-07
-2.96677e-06
-5.06321e-07
-2.94269e-06
-5.95371e-07
-2.91505e-06
-6.88769e-07
-2.88288e-06
-7.86434e-07
-2.84505e-06
-8.88025e-07
-2.80045e-06
-9.9259e-07
-2.74798e-06
-1.09937e-06
-2.68608e-06
-1.20666e-06
-2.61207e-06
-1.31185e-06
-2.5192e-06
-1.41265e-06
-2.4013e-06
-1.50339e-06
-2.25731e-06
-1.57386e-06
-2.0899e-06
-1.6176e-06
-1.90325e-06
-1.62821e-06
-1.69946e-06
-1.60564e-06
-1.48353e-06
-1.54368e-06
-1.26108e-06
-1.442e-06
-1.03975e-06
-1.30101e-06
-8.29226e-07
-1.12563e-06
-6.3713e-07
-9.25797e-07
-4.68687e-07
-7.11923e-07
-3.2771e-07
-4.94252e-07
-2.15937e-07
-2.83532e-07
-1.32583e-07
-8.97784e-08
-7.49453e-08
7.8636e-08
-3.8309e-08
2.15544e-07
-1.82336e-08
3.16357e-07
-9.11453e-09
3.70693e-07
-5.68319e-09
3.57898e-07
1.93914e-07
1.16245e-08
-2.1981e-07
-3.10111e-09
-2.65257e-07
-3.48258e-08
-1.94458e-07
-7.77414e-08
-1.02666e-07
-1.30305e-07
-5.48762e-09
-1.9286e-07
9.32134e-08
-2.66502e-07
1.91922e-07
-3.52454e-07
2.89885e-07
-4.51827e-07
3.8711e-07
-5.65419e-07
4.84255e-07
-6.93491e-07
5.82261e-07
-8.35609e-07
6.81844e-07
-9.90428e-07
7.82892e-07
-1.15504e-06
8.83522e-07
-1.32515e-06
9.80242e-07
-1.49555e-06
1.06869e-06
-1.66045e-06
1.14409e-06
-1.8153e-06
1.20288e-06
-1.95774e-06
1.2439e-06
-2.08688e-06
1.2674e-06
-2.20316e-06
1.27494e-06
-2.30747e-06
1.26869e-06
-2.40094e-06
1.25069e-06
-2.48457e-06
1.22287e-06
-2.55924e-06
1.18681e-06
-2.62562e-06
1.14398e-06
-2.68432e-06
1.09556e-06
-2.73584e-06
1.04261e-06
-2.78065e-06
9.86061e-07
-2.81924e-06
9.26725e-07
-2.85208e-06
8.65296e-07
-2.87962e-06
8.0236e-07
-2.90213e-06
7.38323e-07
-2.91992e-06
6.73605e-07
-2.93345e-06
6.08402e-07
-2.94317e-06
5.43034e-07
-2.94967e-06
4.7764e-07
-2.95342e-06
4.12245e-07
-2.95476e-06
3.46832e-07
-2.95385e-06
2.81366e-07
-2.951e-06
2.15637e-07
-2.94644e-06
1.49486e-07
-2.94036e-06
8.26265e-08
-2.93296e-06
1.47363e-08
-2.92433e-06
-5.4406e-08
-2.91462e-06
-1.25273e-07
-2.90396e-06
-1.98261e-07
-2.8925e-06
-2.73787e-07
-2.8803e-06
-3.52297e-07
-2.8674e-06
-4.34224e-07
-2.85372e-06
-5.19995e-07
-2.83907e-06
-6.10029e-07
-2.82314e-06
-7.04692e-07
-2.80541e-06
-8.04169e-07
-2.78502e-06
-9.08417e-07
-2.76053e-06
-1.01707e-06
-2.73032e-06
-1.12958e-06
-2.69237e-06
-1.24461e-06
-2.64473e-06
-1.3595e-06
-2.58499e-06
-1.47239e-06
-2.50964e-06
-1.57874e-06
-2.4092e-06
-1.6743e-06
-2.27673e-06
-1.75007e-06
-2.11295e-06
-1.79199e-06
-1.92439e-06
-1.7942e-06
-1.71413e-06
-1.75394e-06
-1.48856e-06
-1.66757e-06
-1.25457e-06
-1.535e-06
-1.02226e-06
-1.35794e-06
-8.03298e-07
-1.14476e-06
-6.06452e-07
-9.0877e-07
-4.37322e-07
-6.63382e-07
-2.99616e-07
-4.21238e-07
-1.94168e-07
-1.95227e-07
-1.19225e-07
3.69329e-09
-6.96381e-08
1.65957e-07
-3.94224e-08
2.86142e-07
-2.06277e-08
3.51898e-07
-8.74166e-09
3.46012e-07
1.85173e-07
-1.42705e-09
-2.18383e-07
-3.23264e-08
-2.34358e-07
-7.90585e-08
-1.47726e-07
-1.35678e-07
-4.60457e-08
-2.01444e-07
6.02778e-08
-2.77203e-07
1.68973e-07
-3.64146e-07
2.78865e-07
-4.63398e-07
3.89137e-07
-5.75752e-07
4.99464e-07
-7.01501e-07
6.10004e-07
-8.40305e-07
7.21066e-07
-9.91033e-07
8.32572e-07
-1.15103e-06
9.42887e-07
-1.31608e-06
1.04858e-06
-1.48109e-06
1.14525e-06
-1.64071e-06
1.22831e-06
-1.79056e-06
1.29394e-06
-1.9282e-06
1.34052e-06
-2.05268e-06
1.36838e-06
-2.16422e-06
1.37894e-06
-2.26381e-06
1.37452e-06
-2.35243e-06
1.35732e-06
-2.43106e-06
1.32932e-06
-2.50046e-06
1.29227e-06
-2.5613e-06
1.24765e-06
-2.61413e-06
1.19681e-06
-2.65949e-06
1.14091e-06
-2.69789e-06
1.08101e-06
-2.72988e-06
1.01805e-06
-2.756e-06
9.52843e-07
-2.77678e-06
8.86084e-07
-2.79276e-06
8.18338e-07
-2.80448e-06
7.5004e-07
-2.81246e-06
6.81582e-07
-2.81726e-06
6.13206e-07
-2.81936e-06
5.4513e-07
-2.81914e-06
4.77425e-07
-2.81696e-06
4.10065e-07
-2.81312e-06
3.42992e-07
-2.80784e-06
2.76087e-07
-2.80135e-06
2.09148e-07
-2.79384e-06
1.41968e-07
-2.78547e-06
7.42637e-08
-2.77646e-06
5.71974e-09
-2.76692e-06
-6.39429e-08
-2.75704e-06
-1.35153e-07
-2.747e-06
-2.08297e-07
-2.73699e-06
-2.83804e-07
-2.72716e-06
-3.62123e-07
-2.71767e-06
-4.43714e-07
-2.70861e-06
-5.29052e-07
-2.70003e-06
-6.18612e-07
-2.69189e-06
-7.12834e-07
-2.68399e-06
-8.12071e-07
-2.67586e-06
-9.16543e-07
-2.66664e-06
-1.0263e-06
-2.6551e-06
-1.14112e-06
-2.6395e-06
-1.26021e-06
-2.61687e-06
-1.38213e-06
-2.58448e-06
-1.50478e-06
-2.53909e-06
-1.62413e-06
-2.47696e-06
-1.73643e-06
-2.39206e-06
-1.83497e-06
-2.27132e-06
-1.91273e-06
-2.1126e-06
-1.95292e-06
-1.92104e-06
-1.9455e-06
-1.70307e-06
-1.88553e-06
-1.46593e-06
-1.77215e-06
-1.21924e-06
-1.60462e-06
-9.75577e-07
-1.38842e-06
-7.48876e-07
-1.13547e-06
-5.49037e-07
-8.63221e-07
-3.81828e-07
-5.88448e-07
-2.50321e-07
-3.26733e-07
-1.53889e-07
-9.27392e-08
-8.89296e-08
1.00998e-07
-4.81823e-08
2.45394e-07
-2.28299e-08
3.26546e-07
-7.2853e-09
3.30468e-07
1.77887e-07
-1.53016e-08
-2.03082e-07
-6.23571e-08
-1.87303e-07
-1.2313e-07
-8.6953e-08
-1.92772e-07
2.35962e-08
-2.71124e-07
1.3863e-07
-3.5926e-07
2.57109e-07
-4.58358e-07
3.77963e-07
-5.69293e-07
5.00072e-07
-6.9244e-07
6.22611e-07
-8.27561e-07
7.45126e-07
-9.73729e-07
8.67234e-07
-1.12863e-06
9.87474e-07
-1.28836e-06
1.10261e-06
-1.44807e-06
1.20829e-06
-1.60281e-06
1.29999e-06
-1.74836e-06
1.37385e-06
-1.88195e-06
1.42754e-06
-2.00251e-06
1.46108e-06
-2.11009e-06
1.47597e-06
-2.20554e-06
1.47438e-06
-2.28982e-06
1.4588e-06
-2.36379e-06
1.43129e-06
-2.42819e-06
1.39372e-06
-2.48365e-06
1.34773e-06
-2.53076e-06
1.29476e-06
-2.5701e-06
1.23615e-06
-2.60229e-06
1.1731e-06
-2.62799e-06
1.10671e-06
-2.64786e-06
1.03792e-06
-2.66258e-06
9.67564e-07
-2.67281e-06
8.96317e-07
-2.67919e-06
8.24716e-07
-2.68233e-06
7.53178e-07
-2.68276e-06
6.82017e-07
-2.68098e-06
6.11425e-07
-2.67737e-06
5.41517e-07
-2.67224e-06
4.72294e-07
-2.66586e-06
4.0369e-07
-2.65847e-06
3.35599e-07
-2.65024e-06
2.67859e-07
-2.64135e-06
2.00253e-07
-2.63193e-06
1.32552e-07
-2.62214e-06
6.44756e-08
-2.61215e-06
-4.27502e-09
-2.60207e-06
-7.40207e-08
-2.59209e-06
-1.45129e-07
-2.5824e-06
-2.17986e-07
-2.57321e-06
-2.93001e-07
-2.56472e-06
-3.70612e-07
-2.55715e-06
-4.51277e-07
-2.55073e-06
-5.35479e-07
-2.54563e-06
-6.23713e-07
-2.54199e-06
-7.16467e-07
-2.53987e-06
-8.14193e-07
-2.53914e-06
-9.17278e-07
-2.53943e-06
-1.02601e-06
-2.54009e-06
-1.14046e-06
-2.53991e-06
-1.26038e-06
-2.53696e-06
-1.38508e-06
-2.52861e-06
-1.51314e-06
-2.51071e-06
-1.64203e-06
-2.47906e-06
-1.76808e-06
-2.42895e-06
-1.88508e-06
-2.35429e-06
-1.98739e-06
-2.24344e-06
-2.06378e-06
-2.08834e-06
-2.1006e-06
-1.89312e-06
-2.08076e-06
-1.66548e-06
-1.99978e-06
-1.41532e-06
-1.85479e-06
-1.15528e-06
-1.64846e-06
-9.0092e-07
-1.38983e-06
-6.68624e-07
-1.09552e-06
-4.69099e-07
-7.87973e-07
-3.07632e-07
-4.882e-07
-1.86013e-07
-2.14358e-07
-1.01893e-07
1.68779e-08
-4.87681e-08
1.9227e-07
-1.81547e-08
2.95932e-07
-2.72939e-09
3.15042e-07
1.75158e-07
-2.95235e-08
-1.73558e-07
-9.15288e-08
-1.25297e-07
-1.6545e-07
-1.30321e-08
-2.47219e-07
1.05365e-07
-3.37198e-07
2.2861e-07
-4.36519e-07
3.5643e-07
-5.46223e-07
4.87667e-07
-6.66862e-07
6.20711e-07
-7.98354e-07
7.54102e-07
-9.39952e-07
8.86724e-07
-1.08969e-06
1.01697e-06
-1.24412e-06
1.1419e-06
-1.39878e-06
1.25728e-06
-1.5491e-06
1.3586e-06
-1.69098e-06
1.44188e-06
-1.82136e-06
1.50423e-06
-1.93879e-06
1.54497e-06
-2.0432e-06
1.56549e-06
-2.13522e-06
1.56798e-06
-2.21576e-06
1.55493e-06
-2.28565e-06
1.52869e-06
-2.34558e-06
1.49122e-06
-2.39619e-06
1.44434e-06
-2.43813e-06
1.38966e-06
-2.47206e-06
1.32869e-06
-2.49871e-06
1.2628e-06
-2.51887e-06
1.19326e-06
-2.53333e-06
1.12117e-06
-2.5429e-06
1.04749e-06
-2.54833e-06
9.72994e-07
-2.55032e-06
8.98312e-07
-2.54952e-06
8.23913e-07
-2.54648e-06
7.50132e-07
-2.54165e-06
6.77192e-07
-2.53543e-06
6.05204e-07
-2.52811e-06
5.34194e-07
-2.51992e-06
4.64103e-07
-2.51105e-06
3.94822e-07
-2.50165e-06
3.26202e-07
-2.49185e-06
2.58056e-07
-2.48175e-06
1.90151e-07
-2.47144e-06
1.22249e-07
-2.46105e-06
5.40775e-08
-2.45067e-06
-1.46516e-08
-2.44043e-06
-8.42558e-08
-2.4305e-06
-1.55066e-07
-2.42104e-06
-2.27442e-07
-2.41228e-06
-3.01767e-07
-2.40444e-06
-3.78447e-07
-2.3978e-06
-4.57919e-07
-2.39263e-06
-5.40648e-07
-2.38922e-06
-6.27125e-07
-2.38783e-06
-7.17857e-07
-2.38867e-06
-8.13352e-07
-2.39185e-06
-9.14097e-07
-2.39733e-06
-1.02053e-06
-2.40482e-06
-1.13296e-06
-2.4137e-06
-1.2515e-06
-2.42284e-06
-1.37594e-06
-2.43041e-06
-1.50557e-06
-2.43353e-06
-1.63891e-06
-2.42821e-06
-1.7734e-06
-2.40845e-06
-1.90483e-06
-2.36876e-06
-2.02708e-06
-2.30167e-06
-2.13087e-06
-2.19609e-06
-2.20617e-06
-2.04155e-06
-2.2353e-06
-1.84058e-06
-2.20076e-06
-1.60127e-06
-2.09409e-06
-1.33699e-06
-1.91275e-06
-1.06385e-06
-1.66297e-06
-8.00984e-07
-1.35838e-06
-5.6713e-07
-1.02183e-06
-3.7299e-07
-6.82341e-07
-2.22682e-07
-3.64666e-07
-1.16004e-07
-8.97997e-08
-4.79809e-08
1.24247e-07
-1.11621e-08
2.59113e-07
3.09838e-09
3.00782e-07
1.78256e-07
-4.31908e-08
-1.30367e-07
-1.18817e-07
-4.96709e-08
-2.04643e-07
7.27935e-08
-2.97481e-07
1.98203e-07
-3.97832e-07
3.28962e-07
-5.06843e-07
4.6544e-07
-6.2534e-07
6.06164e-07
-7.53504e-07
7.48875e-07
-8.90828e-07
8.91427e-07
-1.03563e-06
1.03153e-06
-1.18496e-06
1.16631e-06
-1.33496e-06
1.29189e-06
-1.48132e-06
1.40364e-06
-1.62012e-06
1.4974e-06
-1.74808e-06
1.56984e-06
-1.86329e-06
1.61943e-06
-1.96537e-06
1.64705e-06
-2.05481e-06
1.65493e-06
-2.1324e-06
1.64557e-06
-2.19896e-06
1.62149e-06
-2.25518e-06
1.58491e-06
-2.30173e-06
1.53777e-06
-2.33932e-06
1.48192e-06
-2.3687e-06
1.41905e-06
-2.39074e-06
1.35072e-06
-2.40632e-06
1.27839e-06
-2.41637e-06
1.20331e-06
-2.42179e-06
1.12659e-06
-2.42341e-06
1.04911e-06
-2.42198e-06
9.71569e-07
-2.41817e-06
8.94503e-07
-2.41254e-06
8.18278e-07
-2.40554e-06
7.4313e-07
-2.39753e-06
6.69183e-07
-2.38879e-06
5.96462e-07
-2.37951e-06
5.2492e-07
-2.36986e-06
4.54446e-07
-2.35992e-06
3.8489e-07
-2.34979e-06
3.16072e-07
-2.33953e-06
2.47788e-07
-2.32917e-06
1.79794e-07
-2.31877e-06
1.11847e-07
-2.30839e-06
4.36961e-08
-2.2981e-06
-2.49374e-08
-2.28801e-06
-9.43469e-08
-2.27824e-06
-1.64831e-07
-2.26897e-06
-2.36714e-07
-2.2604e-06
-3.10339e-07
-2.25277e-06
-3.86075e-07
-2.24637e-06
-4.64318e-07
-2.24152e-06
-5.45499e-07
-2.23856e-06
-6.30083e-07
-2.23785e-06
-7.18568e-07
-2.23972e-06
-8.11483e-07
-2.24445e-06
-9.09372e-07
-2.2522e-06
-1.01277e-06
-2.26299e-06
-1.12217e-06
-2.27654e-06
-1.23795e-06
-2.29223e-06
-1.36025e-06
-2.3089e-06
-1.4889e-06
-2.32466e-06
-1.62315e-06
-2.33662e-06
-1.76144e-06
-2.34044e-06
-1.90101e-06
-2.33026e-06
-2.03726e-06
-2.29804e-06
-2.16308e-06
-2.23607e-06
-2.26815e-06
-2.13126e-06
-2.34011e-06
-1.97379e-06
-2.35822e-06
-1.7636e-06
-2.30429e-06
-1.51059e-06
-2.16575e-06
-1.23171e-06
-1.94185e-06
-9.47111e-07
-1.64298e-06
-6.80105e-07
-1.28883e-06
-4.51171e-07
-9.11275e-07
-2.69584e-07
-5.46253e-07
-1.37562e-07
-2.21821e-07
-5.19575e-08
3.86419e-08
-6.67419e-09
2.1383e-07
7.75252e-09
2.86355e-07
1.86009e-07
-5.57309e-08
-7.46364e-08
-1.43339e-07
3.79369e-08
-2.39803e-07
1.69258e-07
-3.42334e-07
3.00733e-07
-4.5157e-07
4.38198e-07
-5.68566e-07
5.82435e-07
-6.93892e-07
7.3149e-07
-8.27357e-07
8.8234e-07
-9.67622e-07
1.03169e-06
-1.11221e-06
1.17612e-06
-1.25794e-06
1.31203e-06
-1.40084e-06
1.43479e-06
-1.53709e-06
1.5399e-06
-1.66335e-06
1.62366e-06
-1.77723e-06
1.68372e-06
-1.87794e-06
1.72014e-06
-1.96574e-06
1.73486e-06
-2.04132e-06
1.73051e-06
-2.10546e-06
1.70971e-06
-2.15891e-06
1.67493e-06
-2.20235e-06
1.62835e-06
-2.23657e-06
1.57199e-06
-2.26241e-06
1.50777e-06
-2.28084e-06
1.43748e-06
-2.29287e-06
1.36275e-06
-2.29952e-06
1.28503e-06
-2.30177e-06
1.20556e-06
-2.30051e-06
1.12534e-06
-2.29656e-06
1.04516e-06
-2.2906e-06
9.65602e-07
-2.28318e-06
8.87084e-07
-2.27476e-06
8.09857e-07
-2.26568e-06
7.34051e-07
-2.25619e-06
6.59695e-07
-2.24647e-06
5.86739e-07
-2.23662e-06
5.15073e-07
-2.22672e-06
4.44544e-07
-2.21679e-06
3.74968e-07
-2.20686e-06
3.06139e-07
-2.19692e-06
2.37848e-07
-2.18698e-06
1.69851e-07
-2.17703e-06
1.019e-07
-2.16711e-06
3.37713e-08
-2.15725e-06
-3.47962e-08
-2.14753e-06
-1.04067e-07
-2.13805e-06
-1.74305e-07
-2.12897e-06
-2.45796e-07
-2.12047e-06
-3.18839e-07
-2.11279e-06
-3.93754e-07
-2.10622e-06
-4.70891e-07
-2.10108e-06
-5.50632e-07
-2.09777e-06
-6.33399e-07
-2.09667e-06
-7.19661e-07
-2.09822e-06
-8.09934e-07
-2.10282e-06
-9.0478e-07
-2.11079e-06
-1.0048e-06
-2.12238e-06
-1.11058e-06
-2.13762e-06
-1.22271e-06