/*--------------------------------*- C++ -*----------------------------------*\
  =========                 |
  \\      /  F ield         | OpenFOAM: The Open Source CFD Toolbox
   \\    /   O peration     | Website:  https://openfoam.org
    \\  /    A nd           | Version:  13
     \\/     M anipulation  |
\*---------------------------------------------------------------------------*/
FoamFile
{
    format      ascii;
    class       volVectorField;
    location    "5";
    object      U;
}
// * * * * * * * * * * * * * * * * * * * * * * * * * * * * * * * * * * * * * //

dimensions      [0 1 -1 0 0 0 0];

internalField   nonuniform List<vector> 
6400
(
(-0.000110288 7.21637e-05 0)
(0.000418338 -0.000158701 0)
(0.00192563 -0.000391022 0)
(0.00392162 -0.000494285 0)
(0.00591983 -0.000437634 0)
(0.00759806 -0.000295238 0)
(0.00873282 -0.000124066 0)
(0.00931805 6.36171e-06 0)
(0.00946805 5.76523e-05 0)
(0.00938896 4.07374e-05 0)
(0.00921481 -2.59612e-05 0)
(0.00908387 -0.000121105 0)
(0.00906666 -0.000220101 0)
(0.00916061 -0.000302126 0)
(0.00932501 -0.000370429 0)
(0.00948869 -0.000422843 0)
(0.00958407 -0.000458786 0)
(0.00955952 -0.000467407 0)
(0.00938454 -0.000456177 0)
(0.00897117 -0.000423135 0)
(0.00827237 -0.000377487 0)
(0.00724254 -0.000330418 0)
(0.00583167 -0.00028654 0)
(0.00401628 -0.000263426 0)
(0.00176711 -0.000295851 0)
(-0.000914869 -0.000392662 0)
(-0.00398801 -0.000470423 0)
(-0.00768308 -0.000372702 0)
(-0.0121181 8.82019e-06 0)
(-0.0172922 0.000717599 0)
(-0.0237873 0.00164172 0)
(-0.0312518 0.00250727 0)
(-0.0394093 0.00323249 0)
(-0.0480265 0.00380189 0)
(-0.0568578 0.00421091 0)
(-0.0656756 0.00446535 0)
(-0.0742918 0.00458205 0)
(-0.082545 0.00458112 0)
(-0.0903104 0.00448223 0)
(-0.0974849 0.00430336 0)
(-0.103986 0.00405753 0)
(-0.109743 0.00375406 0)
(-0.1147 0.00339724 0)
(-0.118818 0.00298781 0)
(-0.122069 0.00252939 0)
(-0.124437 0.0020394 0)
(-0.125619 0.00161612 0)
(-0.126008 0.00121021 0)
(-0.125369 0.000426679 0)
(-0.123476 -9.14487e-05 0)
(-0.120592 -0.000793014 0)
(-0.116471 -0.0014134 0)
(-0.111256 -0.00207467 0)
(-0.104854 -0.00269351 0)
(-0.0973672 -0.003302 0)
(-0.0888693 -0.00389341 0)
(-0.0793902 -0.00443813 0)
(-0.0690373 -0.00490615 0)
(-0.057999 -0.00529228 0)
(-0.0464382 -0.00554432 0)
(-0.0345971 -0.00563426 0)
(-0.0227464 -0.00553869 0)
(-0.0111769 -0.00524845 0)
(-0.000208929 -0.00477449 0)
(0.00979227 -0.00412464 0)
(0.0184886 -0.00321999 0)
(0.0255978 -0.00220763 0)
(0.0308605 -0.00108839 0)
(0.0342176 5.74291e-05 0)
(0.0351782 0.00138216 0)
(0.0342802 0.00199892 0)
(0.0314488 0.00260424 0)
(0.0266262 0.00290254 0)
(0.0208595 0.00270364 0)
(0.0148558 0.00209632 0)
(0.00943258 0.00130075 0)
(0.00509378 0.000611391 0)
(0.00203293 0.000170821 0)
(0.000290728 -0.000133605 0)
(-0.00020808 -0.000323703 0)
(1.83482e-05 -0.000363048 0)
(0.00167031 -0.00193517 0)
(0.00483129 -0.00324822 0)
(0.00840477 -0.00371277 0)
(0.0117333 -0.00338586 0)
(0.0144113 -0.00260056 0)
(0.0162635 -0.00163218 0)
(0.0172979 -0.0007386 0)
(0.0176359 -9.7613e-05 0)
(0.0174209 0.000253762 0)
(0.016855 0.00035806 0)
(0.016075 0.000289162 0)
(0.0151746 0.000155735 0)
(0.0141461 6.15397e-05 0)
(0.0129252 6.6259e-05 0)
(0.0114143 0.000185259 0)
(0.00952027 0.000401621 0)
(0.00719506 0.000692294 0)
(0.00433145 0.00107605 0)
(0.00083191 0.00156758 0)
(-0.00340552 0.00217095 0)
(-0.00855761 0.00289752 0)
(-0.0147736 0.00373238 0)
(-0.0221013 0.00464622 0)
(-0.0305889 0.00565142 0)
(-0.0403071 0.00676604 0)
(-0.051246 0.00801198 0)
(-0.0630936 0.00937791 0)
(-0.0755374 0.0108418 0)
(-0.0881173 0.0122827 0)
(-0.100303 0.0134438 0)
(-0.112131 0.0142325 0)
(-0.123439 0.0146454 0)
(-0.134082 0.0146898 0)
(-0.143975 0.0144201 0)
(-0.153038 0.013884 0)
(-0.161227 0.0131312 0)
(-0.168503 0.0122061 0)
(-0.174846 0.011145 0)
(-0.180244 0.00997866 0)
(-0.184682 0.008727 0)
(-0.188152 0.00740569 0)
(-0.190646 0.00602376 0)
(-0.192155 0.00458852 0)
(-0.192676 0.00310649 0)
(-0.19219 0.00158308 0)
(-0.190658 3.44706e-05 0)
(-0.18811 -0.00156858 0)
(-0.184488 -0.00327688 0)
(-0.179786 -0.00500543 0)
(-0.174025 -0.00678376 0)
(-0.167153 -0.0085706 0)
(-0.159198 -0.0103579 0)
(-0.150136 -0.0121132 0)
(-0.139996 -0.0138049 0)
(-0.128793 -0.0153853 0)
(-0.116642 -0.016812 0)
(-0.103637 -0.0180442 0)
(-0.0899203 -0.0190038 0)
(-0.0757091 -0.0196319 0)
(-0.0611977 -0.0198636 0)
(-0.0466365 -0.0196488 0)
(-0.0323066 -0.0189465 0)
(-0.0185061 -0.0177443 0)
(-0.00551601 -0.0160335 0)
(0.00632916 -0.0138132 0)
(0.0167428 -0.0111507 0)
(0.0255191 -0.00812975 0)
(0.0324465 -0.00483256 0)
(0.0372895 -0.00142433 0)
(0.0400562 0.00182378 0)
(0.0405995 0.00482837 0)
(0.0389674 0.00736765 0)
(0.035336 0.00916194 0)
(0.0298978 0.00957794 0)
(0.0229382 0.00885947 0)
(0.0154342 0.00719058 0)
(0.00850631 0.00498101 0)
(0.00324108 0.00252353 0)
(0.000261864 0.000424001 0)
(0.000185653 -0.00151311 0)
(0.00293017 -0.00497342 0)
(0.00692844 -0.00708833 0)
(0.0107381 -0.00740987 0)
(0.0139048 -0.00644073 0)
(0.0162134 -0.0047879 0)
(0.0176722 -0.00298012 0)
(0.0183376 -0.00133695 0)
(0.018282 -3.18656e-05 0)
(0.0175903 0.000855991 0)
(0.0164073 0.00134594 0)
(0.0148069 0.0015747 0)
(0.0128075 0.00171986 0)
(0.0103733 0.0019448 0)
(0.007427 0.00235279 0)
(0.0038636 0.00297551 0)
(-0.000425329 0.00379788 0)
(-0.00559903 0.00482754 0)
(-0.011774 0.00608386 0)
(-0.0190673 0.00760255 0)
(-0.0275669 0.00939763 0)
(-0.0372784 0.0114269 0)
(-0.0481578 0.01361 0)
(-0.0601105 0.0158391 0)
(-0.0729144 0.0179951 0)
(-0.0862952 0.0199872 0)
(-0.0999164 0.021734 0)
(-0.113464 0.0231624 0)
(-0.126628 0.0242175 0)
(-0.139131 0.0248748 0)
(-0.150792 0.0251241 0)
(-0.16153 0.0249554 0)
(-0.171272 0.0244112 0)
(-0.18005 0.0235213 0)
(-0.187877 0.0223223 0)
(-0.194777 0.0208749 0)
(-0.200779 0.0192256 0)
(-0.205906 0.0174193 0)
(-0.210178 0.0154853 0)
(-0.213606 0.0134551 0)
(-0.216203 0.0113488 0)
(-0.217972 0.00917443 0)
(-0.218913 0.00694112 0)
(-0.219019 0.00464881 0)
(-0.218283 0.00229566 0)
(-0.216688 -0.000118691 0)
(-0.214202 -0.00259811 0)
(-0.210804 -0.00515554 0)
(-0.206477 -0.00778637 0)
(-0.20119 -0.0104599 0)
(-0.194922 -0.0131931 0)
(-0.187647 -0.0159458 0)
(-0.179358 -0.0187022 0)
(-0.170046 -0.0214222 0)
(-0.159723 -0.0240581 0)
(-0.148413 -0.0265417 0)
(-0.136179 -0.0287991 0)
(-0.123108 -0.0307476 0)
(-0.109299 -0.032285 0)
(-0.0949233 -0.0333161 0)
(-0.0801823 -0.0337494 0)
(-0.0652981 -0.0334993 0)
(-0.0505387 -0.0324942 0)
(-0.0362057 -0.0307272 0)
(-0.0225863 -0.0281914 0)
(-0.00994936 -0.0249231 0)
(0.00145458 -0.0209626 0)
(0.0113985 -0.0164371 0)
(0.0197043 -0.0114853 0)
(0.0262406 -0.00630231 0)
(0.0309188 -0.00111046 0)
(0.0337834 0.00387991 0)
(0.0346975 0.00832132 0)
(0.0335398 0.0118571 0)
(0.0305065 0.014386 0)
(0.0258236 0.015225 0)
(0.0195581 0.0144342 0)
(0.0125717 0.0120488 0)
(0.00593025 0.00816575 0)
(0.000801911 0.00317656 0)
(0.000377448 -0.00330293 0)
(0.00391407 -0.00881465 0)
(0.00806639 -0.011113 0)
(0.0114643 -0.0107458 0)
(0.0139486 -0.00885762 0)
(0.0154996 -0.00632798 0)
(0.0162042 -0.00370557 0)
(0.0161484 -0.00132252 0)
(0.0154044 0.000631389 0)
(0.014034 0.0020822 0)
(0.0120337 0.00310296 0)
(0.0093831 0.00386967 0)
(0.00603464 0.00459934 0)
(0.00192133 0.00548345 0)
(-0.00303186 0.00663999 0)
(-0.00891216 0.00811656 0)
(-0.0158371 0.00992811 0)
(-0.0239244 0.0120756 0)
(-0.0332552 0.0145511 0)
(-0.0438546 0.0173333 0)
(-0.0556592 0.0203445 0)
(-0.0685 0.0234514 0)
(-0.0821084 0.0264901 0)
(-0.0961537 0.0293019 0)
(-0.110337 0.0317873 0)
(-0.124337 0.0337858 0)
(-0.137855 0.0351835 0)
(-0.150615 0.0359659 0)
(-0.16243 0.0361944 0)
(-0.173231 0.0359174 0)
(-0.182992 0.0351957 0)
(-0.191752 0.0340676 0)
(-0.199547 0.032569 0)
(-0.206448 0.0307613 0)
(-0.212497 0.0286901 0)
(-0.217752 0.0264079 0)
(-0.222255 0.0239532 0)
(-0.226037 0.0213645 0)
(-0.229121 0.0186685 0)
(-0.231521 0.0158847 0)
(-0.233245 0.0130276 0)
(-0.234293 0.010102 0)
(-0.234659 0.00710824 0)
(-0.234332 0.00404189 0)
(-0.233292 0.000898542 0)
(-0.231517 -0.00232555 0)
(-0.228973 -0.0056344 0)
(-0.225633 -0.00904222 0)
(-0.221469 -0.0125506 0)
(-0.216446 -0.0161466 0)
(-0.210527 -0.0198223 0)
(-0.203674 -0.0235435 0)
(-0.195867 -0.0272828 0)
(-0.187084 -0.0309961 0)
(-0.177312 -0.0346191 0)
(-0.166553 -0.0380618 0)
(-0.154833 -0.0412177 0)
(-0.142213 -0.043979 0)
(-0.128779 -0.0462138 0)
(-0.114645 -0.047768 0)
(-0.0999863 -0.0485231 0)
(-0.0850119 -0.0483485 0)
(-0.0699556 -0.0471421 0)
(-0.0551146 -0.0448521 0)
(-0.0408385 -0.041501 0)
(-0.0274328 -0.0371695 0)
(-0.0151388 -0.0319194 0)
(-0.00418865 -0.0259096 0)
(0.00521923 -0.0193432 0)
(0.0129528 -0.0124637 0)
(0.0189439 -0.00553807 0)
(0.0231951 0.0012138 0)
(0.0257353 0.00748581 0)
(0.0266127 0.0128761 0)
(0.0256896 0.0170016 0)
(0.0229555 0.0195695 0)
(0.0186104 0.0201273 0)
(0.01301 0.0184791 0)
(0.00680265 0.0143727 0)
(0.001051 0.00692781 0)
(0.000619581 -0.00560313 0)
(0.00456136 -0.0129214 0)
(0.00828255 -0.0147465 0)
(0.0108849 -0.0133592 0)
(0.0124724 -0.0104416 0)
(0.0131044 -0.00701009 0)
(0.0129177 -0.00359848 0)
(0.0119945 -0.000507462 0)
(0.0103701 0.0021101 0)
(0.00803455 0.00423733 0)
(0.00492969 0.00597917 0)
(0.000972153 0.0075347 0)
(-0.00392669 0.00913305 0)
(-0.00985145 0.0109679 0)
(-0.0168818 0.0131632 0)
(-0.0250922 0.0157766 0)
(-0.0345462 0.0188178 0)
(-0.0452727 0.022254 0)
(-0.057224 0.0259979 0)
(-0.0702543 0.0299351 0)
(-0.0841122 0.0338626 0)
(-0.0984475 0.0375608 0)
(-0.11293 0.0409279 0)
(-0.127248 0.0436942 0)
(-0.14104 0.0457087 0)
(-0.153977 0.0469606 0)
(-0.165914 0.0474739 0)
(-0.176801 0.0472954 0)
(-0.186659 0.0465169 0)
(-0.195532 0.0452372 0)
(-0.203479 0.0435356 0)
(-0.21058 0.0414846 0)
(-0.216887 0.0391342 0)
(-0.222461 0.036535 0)
(-0.227351 0.0337282 0)
(-0.231605 0.0307515 0)
(-0.235256 0.0276379 0)
(-0.238328 0.0244162 0)
(-0.240841 0.0210999 0)
(-0.2428 0.0177033 0)
(-0.244207 0.0142376 0)
(-0.245063 0.0106955 0)
(-0.245356 0.00707331 0)
(-0.245074 0.00335931 0)
(-0.2442 -0.000456603 0)
(-0.242707 -0.00438406 0)
(-0.240553 -0.0084292 0)
(-0.237707 -0.0126012 0)
(-0.234127 -0.0169015 0)
(-0.229779 -0.021331 0)
(-0.224636 -0.0258903 0)
(-0.218621 -0.0305356 0)
(-0.211696 -0.0352302 0)
(-0.203825 -0.0399291 0)
(-0.194968 -0.0445559 0)
(-0.185108 -0.0490053 0)
(-0.174223 -0.0531366 0)
(-0.162346 -0.0568174 0)
(-0.149532 -0.059885 0)
(-0.135859 -0.0621419 0)
(-0.121462 -0.0634248 0)
(-0.106524 -0.0635585 0)
(-0.0912675 -0.0623936 0)
(-0.0759385 -0.0598368 0)
(-0.0608508 -0.0558599 0)
(-0.0464409 -0.0505654 0)
(-0.0330273 -0.0440998 0)
(-0.0208499 -0.0366592 0)
(-0.0101548 -0.0284948 0)
(-0.00111038 -0.0199088 0)
(0.00618962 -0.0112379 0)
(0.0117323 -0.00278319 0)
(0.0155738 0.00513932 0)
(0.017793 0.0121989 0)
(0.0184155 0.0180301 0)
(0.0174487 0.0221814 0)
(0.0149125 0.0241887 0)
(0.0109966 0.0236971 0)
(0.00604186 0.0200224 0)
(0.000890062 0.0106155 0)
(0.000894638 -0.00827255 0)
(0.00478245 -0.016755 0)
(0.00764617 -0.0175081 0)
(0.00919457 -0.0149996 0)
(0.00977177 -0.0110381 0)
(0.00941765 -0.00674176 0)
(0.0082732 -0.00256552 0)
(0.00638162 0.00124931 0)
(0.00372911 0.00460465 0)
(0.000252184 0.00753138 0)
(-0.00414969 0.0101688 0)
(-0.00958614 0.0127265 0)
(-0.0161563 0.0154253 0)
(-0.0239394 0.0184432 0)
(-0.0329903 0.0218864 0)
(-0.0433281 0.0257848 0)
(-0.0549215 0.0300972 0)
(-0.067663 0.0347318 0)
(-0.0813632 0.0394863 0)
(-0.095694 0.044117 0)
(-0.110288 0.0484768 0)
(-0.124831 0.0522205 0)
(-0.138896 0.0551513 0)
(-0.152073 0.0571835 0)
(-0.164211 0.0582714 0)
(-0.175271 0.0584774 0)
(-0.185297 0.0579185 0)
(-0.194363 0.056726 0)
(-0.202543 0.0550099 0)
(-0.209907 0.0528657 0)
(-0.21652 0.0503671 0)
(-0.222439 0.0475761 0)
(-0.227718 0.044542 0)
(-0.232408 0.0413065 0)
(-0.236546 0.0379048 0)
(-0.240165 0.0343663 0)
(-0.24329 0.0307163 0)
(-0.245939 0.0269766 0)
(-0.248127 0.0231568 0)
(-0.249856 0.0192639 0)
(-0.251125 0.0153025 0)
(-0.25194 0.0112553 0)
(-0.252292 0.00711596 0)
(-0.252176 0.00286602 0)
(-0.251582 -0.0015145 0)
(-0.250497 -0.00604721 0)
(-0.248897 -0.0107414 0)
(-0.246749 -0.015607 0)
(-0.244 -0.0206398 0)
(-0.240597 -0.0258385 0)
(-0.23648 -0.0312026 0)
(-0.231601 -0.036712 0)
(-0.225857 -0.0422988 0)
(-0.219182 -0.0479141 0)
(-0.211509 -0.0534794 0)
(-0.202867 -0.0589436 0)
(-0.193152 -0.0641185 0)
(-0.182321 -0.0688191 0)
(-0.17042 -0.0728662 0)
(-0.157465 -0.076007 0)
(-0.143558 -0.0780351 0)
(-0.128851 -0.0787313 0)
(-0.113524 -0.0779025 0)
(-0.0978505 -0.0753963 0)
(-0.082082 -0.0711118 0)
(-0.0665884 -0.0650755 0)
(-0.051873 -0.0575605 0)
(-0.0382623 -0.048781 0)
(-0.0260487 -0.0390458 0)
(-0.015472 -0.0287425 0)
(-0.0066858 -0.0182873 0)
(0.00025779 -0.00807682 0)
(0.00540506 0.00152207 0)
(0.00887045 0.0101713 0)
(0.010777 0.0175311 0)
(0.0112042 0.0231826 0)
(0.0101767 0.026633 0)
(0.00777908 0.0273703 0)
(0.0043853 0.0244247 0)
(0.000511541 0.0136034 0)
(0.00112967 -0.0110924 0)
(0.00450375 -0.0198335 0)
(0.00616091 -0.0192294 0)
(0.00664635 -0.0155172 0)
(0.00611902 -0.0105894 0)
(0.00474028 -0.00547239 0)
(0.00258127 -0.00052964 0)
(-0.000365116 0.00406198 0)
(-0.00415945 0.00825787 0)
(-0.00889988 0.0121244 0)
(-0.0147014 0.0158176 0)
(-0.0216721 0.0195405 0)
(-0.0298965 0.0234902 0)
(-0.0394223 0.0278099 0)
(-0.0502465 0.0325594 0)
(-0.0622947 0.0377059 0)
(-0.0754391 0.043142 0)
(-0.0894212 0.0486405 0)
(-0.103872 0.0539752 0)
(-0.118465 0.0588246 0)
(-0.132746 0.0629009 0)
(-0.146258 0.0659968 0)
(-0.158731 0.0679941 0)
(-0.170105 0.068931 0)
(-0.180437 0.0689247 0)
(-0.189778 0.0681128 0)
(-0.198226 0.0666292 0)
(-0.205861 0.064594 0)
(-0.21276 0.0621085 0)
(-0.21898 0.0592585 0)
(-0.224576 0.0561103 0)
(-0.229592 0.0527162 0)
(-0.234074 0.0491203 0)
(-0.238056 0.0453593 0)
(-0.241568 0.0414654 0)
(-0.244632 0.0374678 0)
(-0.247264 0.0333906 0)
(-0.249476 0.0292499 0)
(-0.251273 0.0250561 0)
(-0.252741 0.020705 0)
(-0.253823 0.016314 0)
(-0.254532 0.0118344 0)
(-0.254854 0.0072664 0)
(-0.254782 0.00259118 0)
(-0.254299 -0.00220949 0)
(-0.253411 -0.00715761 0)
(-0.252124 -0.0122773 0)
(-0.250422 -0.0175966 0)
(-0.248304 -0.0231475 0)
(-0.245741 -0.0289522 0)
(-0.242694 -0.0350293 0)
(-0.239136 -0.0413813 0)
(-0.234954 -0.0478888 0)
(-0.23003 -0.0545266 0)
(-0.224245 -0.0612086 0)
(-0.217386 -0.0677683 0)
(-0.20936 -0.0740306 0)
(-0.200029 -0.0797798 0)
(-0.189508 -0.0849218 0)
(-0.177756 -0.089155 0)
(-0.164764 -0.0921779 0)
(-0.150684 -0.0937263 0)
(-0.135624 -0.0935266 0)
(-0.119849 -0.0913934 0)
(-0.103634 -0.087179 0)
(-0.0872502 -0.0808015 0)
(-0.0712011 -0.0724393 0)
(-0.0560539 -0.0624702 0)
(-0.0421561 -0.0512329 0)
(-0.0298339 -0.0391984 0)
(-0.0193371 -0.0268775 0)
(-0.010795 -0.014782 0)
(-0.00421327 -0.00338351 0)
(0.000519425 0.00692039 0)
(0.00359565 0.0157907 0)
(0.00519412 0.0228647 0)
(0.00542275 0.027677 0)
(0.0043693 0.0296003 0)
(0.00240394 0.0273343 0)
(6.01332e-05 0.0154203 0)
(0.00124119 -0.0137567 0)
(0.00362575 -0.0218427 0)
(0.0040948 -0.0198068 0)
(0.00340564 -0.014862 0)
(0.00176934 -0.00906982 0)
(-0.000662659 -0.00316171 0)
(-0.00388611 0.0025755 0)
(-0.00795405 0.00801877 0)
(-0.0129587 0.0131598 0)
(-0.0190097 0.0180845 0)
(-0.0262138 0.0229473 0)
(-0.0346573 0.0279283 0)
(-0.0443874 0.0331834 0)
(-0.0553959 0.0387974 0)
(-0.0675952 0.0447613 0)
(-0.0808366 0.0509648 0)
(-0.0948219 0.0571764 0)
(-0.109189 0.0631357 0)
(-0.12353 0.0684665 0)
(-0.137369 0.0728654 0)
(-0.150272 0.0761034 0)
(-0.162116 0.0781299 0)
(-0.172876 0.0790136 0)
(-0.18261 0.0789125 0)
(-0.1914 0.0779522 0)
(-0.199333 0.0762786 0)
(-0.206503 0.0740162 0)
(-0.212975 0.0712736 0)
(-0.218809 0.0681394 0)
(-0.224051 0.0646888 0)
(-0.228743 0.0609826 0)
(-0.23292 0.0570703 0)
(-0.236612 0.0529944 0)
(-0.239841 0.048796 0)
(-0.242622 0.0445123 0)
(-0.245026 0.0401129 0)
(-0.247098 0.0356208 0)
(-0.248839 0.0310567 0)
(-0.25027 0.0264169 0)
(-0.251346 0.0217881 0)
(-0.252108 0.0170561 0)
(-0.252551 0.0122443 0)
(-0.252693 0.00732885 0)
(-0.252541 0.00229742 0)
(-0.252105 -0.00286675 0)
(-0.251391 -0.00818079 0)
(-0.25039 -0.0136736 0)
(-0.249093 -0.0193676 0)
(-0.247484 -0.0252829 0)
(-0.245541 -0.031431 0)
(-0.243233 -0.0378092 0)
(-0.240509 -0.044441 0)
(-0.237363 -0.0514364 0)
(-0.233746 -0.0587188 0)
(-0.22959 -0.0662478 0)
(-0.224799 -0.0739629 0)
(-0.219242 -0.0816329 0)
(-0.212603 -0.0889583 0)
(-0.204487 -0.0955708 0)
(-0.194692 -0.101067 0)
(-0.183292 -0.105293 0)
(-0.170508 -0.108031 0)
(-0.156308 -0.108857 0)
(-0.14094 -0.107508 0)
(-0.124666 -0.103789 0)
(-0.107788 -0.0975234 0)
(-0.0906766 -0.0887621 0)
(-0.0739649 -0.0778144 0)
(-0.0583043 -0.0652226 0)
(-0.0440742 -0.0514964 0)
(-0.0316509 -0.0372462 0)
(-0.0212746 -0.0231123 0)
(-0.013045 -0.00970947 0)
(-0.00690801 0.00243773 0)
(-0.00265822 0.0129274 0)
(-1.54154e-05 0.0214224 0)
(0.00125753 0.0275162 0)
(0.00136853 0.030528 0)
(0.000633795 0.0287905 0)
(-0.000274968 0.0160386 0)
(0.00118625 -0.0159954 0)
(0.00233218 -0.0226508 0)
(0.00154866 -0.0190865 0)
(-0.000325308 -0.0130859 0)
(-0.00305117 -0.00647571 0)
(-0.00655466 0.000222531 0)
(-0.0108738 0.00679654 0)
(-0.0160936 0.0131633 0)
(-0.0223181 0.019333 0)
(-0.029648 0.0253918 0)
(-0.0381661 0.0314754 0)
(-0.0479191 0.0377247 0)
(-0.0588994 0.044235 0)
(-0.0710289 0.0510243 0)
(-0.0841506 0.0579922 0)
(-0.0979453 0.0649046 0)
(-0.112062 0.0714597 0)
(-0.126037 0.0772816 0)
(-0.139354 0.082026 0)
(-0.151741 0.0854898 0)
(-0.163054 0.0876389 0)
(-0.1733 0.0885951 0)
(-0.182531 0.088475 0)
(-0.190846 0.0874501 0)
(-0.198327 0.0856545 0)
(-0.205061 0.0832302 0)
(-0.211116 0.0802846 0)
(-0.216543 0.0769143 0)
(-0.221388 0.0731983 0)
(-0.225689 0.0692047 0)
(-0.229481 0.0649903 0)
(-0.232797 0.0606036 0)
(-0.235661 0.0560862 0)
(-0.238147 0.0514442 0)
(-0.240282 0.0467115 0)
(-0.242064 0.0419444 0)
(-0.243481 0.0371429 0)
(-0.244549 0.0322965 0)
(-0.245312 0.0274013 0)
(-0.24579 0.0224605 0)
(-0.246031 0.0174525 0)
(-0.246049 0.0123812 0)
(-0.24587 0.00722647 0)
(-0.245509 0.00197062 0)
(-0.244985 -0.00341182 0)
(-0.244289 -0.00894687 0)
(-0.243422 -0.0146673 0)
(-0.242388 -0.0206055 0)
(-0.241184 -0.0267949 0)
(-0.239803 -0.0332639 0)
(-0.238228 -0.0400315 0)
(-0.236429 -0.0471043 0)
(-0.23437 -0.054477 0)
(-0.231995 -0.0621289 0)
(-0.229225 -0.0700116 0)
(-0.225948 -0.0780326 0)
(-0.222059 -0.0862678 0)
(-0.217538 -0.0946455 0)
(-0.212163 -0.102889 0)
(-0.205637 -0.110454 0)
(-0.197343 -0.116737 0)
(-0.186766 -0.120987 0)
(-0.17429 -0.123242 0)
(-0.160082 -0.123144 0)
(-0.144436 -0.12045 0)
(-0.127556 -0.114816 0)
(-0.109926 -0.106255 0)
(-0.0919763 -0.0948285 0)
(-0.0745142 -0.0810943 0)
(-0.0582835 -0.0658036 0)
(-0.0437468 -0.0496206 0)
(-0.0312928 -0.0333212 0)
(-0.0211512 -0.0176816 0)
(-0.0133691 -0.00340419 0)
(-0.00780031 0.00895492 0)
(-0.00411929 0.0189918 0)
(-0.00193785 0.0263592 0)
(-0.0008902 0.030287 0)
(-0.000562247 0.0290095 0)
(-0.000359482 0.0158456 0)
(0.000985574 -0.01734 0)
(0.000753095 -0.0221345 0)
(-0.00131668 -0.0171084 0)
(-0.00432484 -0.0101954 0)
(-0.00813271 -0.0028011 0)
(-0.0127126 0.00469655 0)
(-0.0181297 0.0121462 0)
(-0.024485 0.0194878 0)
(-0.0318771 0.0267312 0)
(-0.0403839 0.0339454 0)
(-0.0500508 0.0412307 0)
(-0.0608713 0.0486726 0)
(-0.072785 0.0563022 0)
(-0.0856425 0.0640446 0)
(-0.0991225 0.0716676 0)
(-0.112863 0.0788426 0)
(-0.126412 0.0851983 0)
(-0.13927 0.0903555 0)
(-0.1512 0.0941441 0)
(-0.162075 0.096548 0)
(-0.171873 0.0976459 0)
(-0.180676 0.0976004 0)
(-0.188562 0.0965718 0)
(-0.195628 0.0947227 0)
(-0.201942 0.0921841 0)
(-0.207571 0.08908 0)
(-0.212562 0.0855062 0)
(-0.21696 0.0815512 0)
(-0.220802 0.0772886 0)
(-0.224128 0.0727834 0)
(-0.226973 0.0680904 0)
(-0.229375 0.0632565 0)
(-0.231376 0.0583186 0)
(-0.232978 0.0533219 0)
(-0.234224 0.048271 0)
(-0.235141 0.0431834 0)
(-0.235773 0.0380651 0)
(-0.236178 0.0329264 0)
(-0.236379 0.0277743 0)
(-0.236387 0.0226079 0)
(-0.236232 0.0174096 0)
(-0.235931 0.01217 0)
(-0.235502 0.00686679 0)
(-0.234959 0.00147763 0)
(-0.234315 -0.00402568 0)
(-0.233577 -0.00967245 0)
(-0.232759 -0.0154953 0)
(-0.231872 -0.0215276 0)
(-0.230923 -0.0278054 0)
(-0.229919 -0.0343636 0)
(-0.228856 -0.0412359 0)
(-0.227725 -0.0484537 0)
(-0.226508 -0.0560423 0)
(-0.225174 -0.0640074 0)
(-0.223664 -0.0723317 0)
(-0.221889 -0.080955 0)
(-0.219737 -0.089768 0)
(-0.217066 -0.0986229 0)
(-0.213673 -0.107317 0)
(-0.209408 -0.115985 0)
(-0.204115 -0.124203 0)
(-0.197301 -0.131159 0)
(-0.188096 -0.13587 0)
(-0.176049 -0.137486 0)
(-0.161986 -0.136456 0)
(-0.145935 -0.13211 0)
(-0.128392 -0.124354 0)
(-0.109877 -0.113208 0)
(-0.0909757 -0.0988878 0)
(-0.0727043 -0.0822183 0)
(-0.0559286 -0.064196 0)
(-0.0411704 -0.045669 0)
(-0.02883 -0.0275892 0)
(-0.019101 -0.0108688 0)
(-0.0119484 0.00371542 0)
(-0.00708516 0.0155914 0)
(-0.00400061 0.024354 0)
(-0.00223353 0.0291053 0)
(-0.00112936 0.028326 0)
(-0.000304762 0.0152286 0)
(0.0007184 -0.0177371 0)
(-0.00101699 -0.0202713 0)
(-0.00431036 -0.0139526 0)
(-0.00841235 -0.00619849 0)
(-0.0132892 0.00194828 0)
(-0.0189244 0.0102484 0)
(-0.025404 0.0185947 0)
(-0.0328298 0.02693 0)
(-0.0412822 0.0352455 0)
(-0.050806 0.0435767 0)
(-0.0613982 0.0519749 0)
(-0.0730094 0.0604667 0)
(-0.0855129 0.0690006 0)
(-0.0986115 0.0773501 0)
(-0.111925 0.0851859 0)
(-0.125031 0.0921345 0)
(-0.137489 0.0978209 0)
(-0.149026 0.10205 0)
(-0.159524 0.104804 0)
(-0.16895 0.106147 0)
(-0.177372 0.106252 0)
(-0.18488 0.105295 0)
(-0.19155 0.103442 0)
(-0.197457 0.100838 0)
(-0.202653 0.0976051 0)
(-0.207188 0.093854 0)
(-0.211103 0.0896757 0)
(-0.214441 0.0851559 0)
(-0.217245 0.0803678 0)
(-0.219557 0.0753766 0)
(-0.22142 0.0702376 0)
(-0.222878 0.0649969 0)
(-0.223976 0.0596902 0)
(-0.224751 0.0543481 0)
(-0.225252 0.0489898 0)
(-0.225517 0.0436356 0)
(-0.225584 0.038295 0)
(-0.225482 0.0329691 0)
(-0.225236 0.0276552 0)
(-0.224866 0.0223474 0)
(-0.224391 0.0170291 0)
(-0.223827 0.0116848 0)
(-0.223188 0.00629176 0)
(-0.222489 0.000826461 0)
(-0.221743 -0.00473859 0)
(-0.220962 -0.0104332 0)
(-0.220162 -0.0162904 0)
(-0.219356 -0.0223445 0)
(-0.218559 -0.0286317 0)
(-0.217783 -0.0351885 0)
(-0.217038 -0.0420523 0)
(-0.216331 -0.0492599 0)
(-0.215664 -0.0568454 0)
(-0.215028 -0.0648338 0)
(-0.214396 -0.0732387 0)
(-0.213718 -0.0820562 0)
(-0.212914 -0.0912546 0)
(-0.211863 -0.100738 0)
(-0.210385 -0.11032 0)
(-0.208266 -0.119721 0)
(-0.205221 -0.128624 0)
(-0.200964 -0.137068 0)
(-0.195256 -0.144448 0)
(-0.187341 -0.149517 0)
(-0.175985 -0.150796 0)
(-0.161939 -0.148549 0)
(-0.145431 -0.142395 0)
(-0.127093 -0.132269 0)
(-0.107547 -0.118244 0)
(-0.0876359 -0.100814 0)
(-0.0685679 -0.081101 0)
(-0.0513485 -0.0603897 0)
(-0.0365536 -0.0397285 0)
(-0.0245616 -0.0202775 0)
(-0.0154817 -0.00306684 0)
(-0.00914903 0.0110719 0)
(-0.00504598 0.021536 0)
(-0.00265451 0.0272929 0)
(-0.00109271 0.0271427 0)
(-0.000113936 0.0145035 0)
(0.000206699 -0.0170883 0)
(-0.00289091 -0.0171287 0)
(-0.00730701 -0.00963099 0)
(-0.0124545 -0.00112779 0)
(-0.0183554 0.00773629 0)
(-0.0249918 0.0168301 0)
(-0.032458 0.0260687 0)
(-0.040846 0.0353784 0)
(-0.0502082 0.044716 0)
(-0.0605479 0.0540712 0)
(-0.0718233 0.0634403 0)
(-0.0839305 0.0727842 0)
(-0.0966103 0.081891 0)
(-0.109494 0.0904363 0)
(-0.122177 0.0980463 0)
(-0.134274 0.104367 0)
(-0.145487 0.10916 0)
(-0.155664 0.112365 0)
(-0.164783 0.114061 0)
(-0.172881 0.114402 0)
(-0.18005 0.113587 0)
(-0.186363 0.111788 0)
(-0.191883 0.109158 0)
(-0.196664 0.105831 0)
(-0.200754 0.101923 0)
(-0.204198 0.097539 0)
(-0.207045 0.0927724 0)
(-0.209345 0.0877099 0)
(-0.211152 0.0824268 0)
(-0.212521 0.0769893 0)
(-0.213504 0.0714528 0)
(-0.214155 0.0658619 0)
(-0.214523 0.0602514 0)
(-0.214655 0.0546496 0)
(-0.214593 0.0490757 0)
(-0.214369 0.0435428 0)
(-0.214012 0.0380534 0)
(-0.213547 0.0326038 0)
(-0.212992 0.0271872 0)
(-0.212364 0.0217927 0)
(-0.211675 0.0164033 0)
(-0.21094 0.0110011 0)
(-0.210169 0.0055636 0)
(-0.209374 6.6929e-05 0)
(-0.208568 -0.00551557 0)
(-0.207762 -0.0112136 0)
(-0.206971 -0.017059 0)
(-0.206211 -0.0230859 0)
(-0.205499 -0.0293298 0)
(-0.204852 -0.0358283 0)
(-0.204288 -0.04262 0)
(-0.203823 -0.0497443 0)
(-0.203472 -0.0572393 0)
(-0.203242 -0.065138 0)
(-0.203131 -0.0734669 0)
(-0.203122 -0.0822421 0)
(-0.203177 -0.0914638 0)
(-0.203222 -0.101103 0)
(-0.203137 -0.111085 0)
(-0.202739 -0.121264 0)
(-0.201768 -0.13134 0)
(-0.199901 -0.140868 0)
(-0.196711 -0.149364 0)
(-0.191841 -0.156816 0)
(-0.184725 -0.161924 0)
(-0.174083 -0.162903 0)
(-0.159943 -0.159329 0)
(-0.142899 -0.151206 0)
(-0.123591 -0.138362 0)
(-0.102932 -0.121188 0)
(-0.0820057 -0.100438 0)
(-0.062259 -0.0776264 0)
(-0.0448245 -0.0543584 0)
(-0.0302898 -0.031942 0)
(-0.0189648 -0.011719 0)
(-0.0108308 0.00516139 0)
(-0.00547732 0.0178111 0)
(-0.00238584 0.0250484 0)
(-0.000616858 0.0258538 0)
(0.000146421 0.0140572 0)
(-0.000324097 -0.0152524 0)
(-0.00474262 -0.0127317 0)
(-0.0101927 -0.00421987 0)
(-0.0163201 0.00495301 0)
(-0.0231753 0.0144956 0)
(-0.0307292 0.0243585 0)
(-0.0390746 0.0344571 0)
(-0.0482849 0.0446848 0)
(-0.0583792 0.0549521 0)
(-0.0693225 0.0651949 0)
(-0.0810293 0.0753587 0)
(-0.0932817 0.0852445 0)
(-0.105744 0.0945464 0)
(-0.118041 0.102892 0)
(-0.129813 0.109935 0)
(-0.140764 0.11541 0)
(-0.150692 0.11919 0)
(-0.15956 0.121343 0)
(-0.167401 0.122022 0)
(-0.174282 0.121424 0)
(-0.180283 0.119742 0)
(-0.185461 0.117137 0)
(-0.189869 0.113753 0)
(-0.193556 0.10972 0)
(-0.196574 0.105153 0)
(-0.19898 0.100162 0)
(-0.200835 0.0948446 0)
(-0.202202 0.0892892 0)
(-0.203146 0.0835728 0)
(-0.203729 0.0777608 0)
(-0.204012 0.0719056 0)
(-0.204046 0.0660482 0)
(-0.203882 0.0602194 0)
(-0.203558 0.054441 0)
(-0.203109 0.0487253 0)
(-0.202561 0.0430775 0)
(-0.201936 0.0374958 0)
(-0.201251 0.0319727 0)
(-0.200517 0.0264975 0)
(-0.199747 0.0210563 0)
(-0.198949 0.0156315 0)
(-0.19813 0.0102038 0)
(-0.1973 0.00475111 0)
(-0.196466 -0.000750166 0)
(-0.195639 -0.00632548 0)
(-0.194828 -0.0120033 0)
(-0.194049 -0.0178133 0)
(-0.193315 -0.0237877 0)
(-0.192646 -0.0299606 0)
(-0.192061 -0.036368 0)
(-0.191583 -0.0430484 0)
(-0.191234 -0.0500418 0)
(-0.191038 -0.0573887 0)
(-0.191012 -0.0651285 0)
(-0.191172 -0.0732971 0)
(-0.191522 -0.0819241 0)
(-0.192049 -0.0910265 0)
(-0.19272 -0.100602 0)
(-0.193468 -0.110619 0)
(-0.194178 -0.121008 0)
(-0.194666 -0.131629 0)
(-0.194658 -0.142232 0)
(-0.193776 -0.15235 0)
(-0.191553 -0.161307 0)
(-0.187379 -0.168511 0)
(-0.180752 -0.173426 0)
(-0.170423 -0.173729 0)
(-0.156083 -0.168788 0)
(-0.138298 -0.158326 0)
(-0.117893 -0.142431 0)
(-0.0960766 -0.121789 0)
(-0.0742368 -0.0975204 0)
(-0.0540695 -0.0716324 0)
(-0.0367969 -0.0461271 0)
(-0.0229656 -0.0225478 0)
(-0.0127369 -0.00243123 0)
(-0.00586592 0.0129996 0)
(-0.00191782 0.022371 0)
(4.71156e-05 0.0246619 0)
(0.000415842 0.0140996 0)
(-0.000864512 -0.0123178 0)
(-0.00648744 -0.00719764 0)
(-0.012873 0.00219716 0)
(-0.0198955 0.0119644 0)
(-0.0276143 0.0221374 0)
(-0.0359777 0.0327246 0)
(-0.0450711 0.0436236 0)
(-0.0549447 0.0546814 0)
(-0.0655824 0.0657522 0)
(-0.0769129 0.0767253 0)
(-0.0887504 0.0873947 0)
(-0.100812 0.0974846 0)
(-0.11276 0.10663 0)
(-0.124248 0.114476 0)
(-0.134987 0.120737 0)
(-0.144742 0.125223 0)
(-0.153431 0.127951 0)
(-0.161078 0.129075 0)
(-0.167741 0.128788 0)
(-0.17349 0.127295 0)
(-0.178386 0.124775 0)
(-0.182482 0.121385 0)
(-0.18583 0.117267 0)
(-0.188491 0.112554 0)
(-0.190527 0.107368 0)
(-0.192011 0.101823 0)
(-0.193016 0.09602 0)
(-0.193616 0.0900486 0)
(-0.19388 0.0839829 0)
(-0.193872 0.0778834 0)
(-0.19365 0.0717965 0)
(-0.193261 0.0657562 0)
(-0.192747 0.0597857 0)
(-0.19214 0.0538986 0)
(-0.191465 0.0481004 0)
(-0.190741 0.04239 0)
(-0.189981 0.0367604 0)
(-0.189196 0.0312016 0)
(-0.188392 0.0257004 0)
(-0.187575 0.0202401 0)
(-0.186749 0.0148019 0)
(-0.185917 0.00936694 0)
(-0.185084 0.00391374 0)
(-0.184256 -0.00158047 0)
(-0.183438 -0.00713965 0)
(-0.182641 -0.0127897 0)
(-0.181875 -0.0185579 0)
(-0.181157 -0.0244734 0)
(-0.180504 -0.0305675 0)
(-0.179937 -0.0368737 0)
(-0.17948 -0.0434283 0)
(-0.179161 -0.05027 0)
(-0.179008 -0.0574395 0)
(-0.179048 -0.0649793 0)
(-0.179308 -0.0729316 0)
(-0.179806 -0.0813365 0)
(-0.18055 -0.0902273 0)
(-0.181533 -0.0996247 0)
(-0.18272 -0.109528 0)
(-0.184043 -0.119903 0)
(-0.185384 -0.130666 0)
(-0.186557 -0.14167 0)
(-0.187279 -0.152659 0)
(-0.187146 -0.163204 0)
(-0.185615 -0.172549 0)
(-0.182002 -0.179744 0)
(-0.175586 -0.184137 0)
(-0.165196 -0.183478 0)
(-0.150385 -0.176762 0)
(-0.13163 -0.16353 0)
(-0.110027 -0.144158 0)
(-0.0870977 -0.119681 0)
(-0.0645814 -0.0917389 0)
(-0.0444415 -0.062988 0)
(-0.0279092 -0.0357762 0)
(-0.0153581 -0.0119343 0)
(-0.00673695 0.00688997 0)
(-0.00171885 0.0191193 0)
(0.000589459 0.0235413 0)
(0.00060916 0.0145367 0)
(-0.0013824 -0.0083376 0)
(-0.00806576 -0.000639534 0)
(-0.0152777 0.00952017 0)
(-0.0230954 0.0198073 0)
(-0.0315655 0.0305518 0)
(-0.0406117 0.0418007 0)
(-0.0503074 0.0534164 0)
(-0.0606757 0.0651883 0)
(-0.0716659 0.076922 0)
(-0.0831172 0.0883603 0)
(-0.0948064 0.0992445 0)
(-0.106443 0.109235 0)
(-0.117688 0.117951 0)
(-0.128261 0.125089 0)
(-0.137908 0.130403 0)
(-0.146497 0.133841 0)
(-0.154025 0.135526 0)
(-0.160544 0.135657 0)
(-0.166116 0.134442 0)
(-0.170804 0.13208 0)
(-0.174663 0.128746 0)
(-0.17775 0.124596 0)
(-0.180132 0.119781 0)
(-0.18188 0.114438 0)
(-0.183075 0.108698 0)
(-0.1838 0.102676 0)
(-0.184135 0.0964747 0)
(-0.184156 0.0901776 0)
(-0.183932 0.0838529 0)
(-0.183521 0.0775528 0)
(-0.182975 0.0713147 0)
(-0.182333 0.065164 0)
(-0.181627 0.0591152 0)
(-0.18088 0.0531742 0)
(-0.180109 0.0473399 0)
(-0.179325 0.0416058 0)
(-0.178534 0.0359614 0)
(-0.17774 0.0303928 0)
(-0.176946 0.0248847 0)
(-0.176151 0.019421 0)
(-0.175355 0.013981 0)
(-0.174559 0.00854543 0)
(-0.173764 0.00309555 0)
(-0.172971 -0.00239069 0)
(-0.172186 -0.00793515 0)
(-0.171416 -0.0135608 0)
(-0.17067 -0.019292 0)
(-0.169962 -0.0251544 0)
(-0.16931 -0.0311757 0)
(-0.168734 -0.0373859 0)
(-0.168259 -0.0438177 0)
(-0.167913 -0.050507 0)
(-0.167729 -0.0574929 0)
(-0.16774 -0.064818 0)
(-0.167979 -0.0725273 0)
(-0.168477 -0.0806672 0)
(-0.169258 -0.0892829 0)
(-0.170334 -0.0984135 0)
(-0.171698 -0.108086 0)
(-0.173315 -0.118303 0)