/*--------------------------------*- C++ -*----------------------------------*\
  =========                 |
  \\      /  F ield         | OpenFOAM: The Open Source CFD Toolbox
   \\    /   O peration     | Website:  https://openfoam.org
    \\  /    A nd           | Version:  13
     \\/     M anipulation  |
\*---------------------------------------------------------------------------*/
FoamFile
{
    format      ascii;
    class       volScalarField;
    location    "800";
    object      k;
}
// * * * * * * * * * * * * * * * * * * * * * * * * * * * * * * * * * * * * * //

dimensions      [0 2 -2 0 0 0 0];

internalField   nonuniform List<scalar> 
12225
(
0.684646
1.35503
1.77598
1.81168
1.77548
1.73702
1.89497
1.40539
2.24768
2.94906
3.2314
3.06568
2.39744
1.69631
1.4294
2.23698
2.17361
2.50518
0.399672
0.414487
0.481757
0.553628
0.583886
0.639368
0.660794
0.606606
0.615743
0.615085
0.613851
0.683966
0.664887
0.660157
0.657581
0.694269
0.699217
0.72355
0.377804
0.371976
0.323545
0.243764
0.180458
0.144559
0.115566
0.119601
0.121722
0.123119
0.11056
0.107824
0.112355
0.118834
0.12562
0.13323
0.137058
0.145872
0.374464
0.37233
0.342898
0.272176
0.200417
0.147175
0.108892
0.0844129
0.0679683
0.055552
0.0485954
0.0444441
0.0421359
0.0418063
0.0426939
0.0481264
0.0585454
0.073405
0.373763
0.372004
0.365187
0.335292
0.296561
0.246598
0.206085
0.166126
0.134713
0.111397
0.094401
0.0815896
0.0762556
0.0709755
0.0695605
0.0741167
0.0857082
0.100784
0.373829
0.371808
0.367903
0.356131
0.33415
0.297753
0.262817
0.228006
0.200054
0.176954
0.161118
0.152183
0.14436
0.141774
0.139232
0.143076
0.151337
0.16102
0.373849
0.371684
0.368793
0.363621
0.351715
0.334073
0.314187
0.292081
0.27414
0.258934
0.248946
0.240199
0.230915
0.225853
0.221562
0.21999
0.216412
0.217349
0.37385
0.371607
0.369296
0.366133
0.360123
0.351679
0.34233
0.332739
0.323258
0.316529
0.309865
0.305475
0.300664
0.295557
0.292661
0.288441
0.286546
0.281767
0.373842
0.371576
0.369571
0.367008
0.363413
0.35899
0.353996
0.349153
0.344248
0.340471
0.337039
0.334081
0.331737
0.328723
0.326957
0.324244
0.322602
0.319814
0.373841
0.37156
0.369541
0.36733
0.364749
0.361891
0.358812
0.355774
0.352822
0.350196
0.347989
0.345848
0.344208
0.342237
0.340771
0.33881
0.337286
0.335129
0.37384
0.371555
0.369466
0.367403
0.365274
0.363066
0.360832
0.358602
0.35648
0.35446
0.352711
0.351007
0.349574
0.348033
0.346715
0.345154
0.343796
0.342089
0.373835
0.371557
0.369431
0.367397
0.365416
0.363452
0.361538
0.35965
0.35786
0.356128
0.354565
0.353049
0.351702
0.350324
0.349083
0.34772
0.346487
0.345069
0.373833
0.371557
0.369415
0.367382
0.365446
0.363577
0.361788
0.360054
0.358411
0.356824
0.355352
0.35393
0.352623
0.351329
0.350132
0.348898
0.347749
0.346531
0.373829
0.371556
0.369407
0.367369
0.365439
0.363597
0.361847
0.360172
0.358582
0.357059
0.355622
0.354244
0.352949
0.351696
0.350515
0.349353
0.348253
0.347158
0.373827
0.371554
0.369401
0.36736
0.365425
0.363586
0.361841
0.360179
0.3586
0.357094
0.355663
0.354298
0.353
0.351759
0.350578
0.349444
0.348361
0.347319
0.373826
0.371552
0.369396
0.367352
0.365413
0.363573
0.361824
0.360162
0.358581
0.357076
0.355644
0.354277
0.352977
0.351734
0.350551
0.34942
0.348342
0.34731
0.373826
0.37155
0.369393
0.367346
0.365405
0.363561
0.36181
0.360145
0.358562
0.357055
0.355619
0.354251
0.352947
0.351704
0.350517
0.349386
0.348305
0.347274
0.373825
0.37155
0.369391
0.367343
0.3654
0.363554
0.361801
0.360134
0.358549
0.35704
0.355602
0.354233
0.352927
0.351683
0.350494
0.349362
0.348279
0.347247
0.373825
0.371549
0.36939
0.367342
0.365398
0.363553
0.361798
0.360131
0.358545
0.357036
0.355597
0.354228
0.352921
0.351676
0.350487
0.349354
0.34827
0.347237
0.373826
0.37155
0.369393
0.367344
0.365404
0.363557
0.361806
0.360139
0.358554
0.357047
0.355608
0.354241
0.352931
0.351687
0.350493
0.349359
0.34827
0.347237
0.373827
0.371552
0.369396
0.367351
0.36541
0.363568
0.361818
0.360156
0.358575
0.357066
0.355624
0.354239
0.352914
0.351641
0.350423
0.349258
0.348146
0.347088
0.373831
0.371549
0.369404
0.367359
0.365422
0.363581
0.361846
0.360189
0.358607
0.357062
0.355548
0.354054
0.352583
0.351156
0.349756
0.348439
0.347165
0.345999
0.373836
0.371548
0.369412
0.367379
0.365429
0.363614
0.361901
0.360229
0.358571
0.356776
0.354904
0.35287
0.350782
0.348695
0.346599
0.3447
0.342826
0.341249
0.373842
0.371549
0.369421
0.367431
0.36544
0.363674
0.361942
0.360079
0.357976
0.355223
0.352136
0.348328
0.344518
0.340425
0.336453
0.332916
0.32935
0.326667
0.373845
0.371572
0.36946
0.367559
0.365507
0.363642
0.361726
0.359096
0.355556
0.350292
0.343992
0.335986
0.328016
0.318967
0.31131
0.303645
0.297622
0.291953
0.373863
0.371633
0.369725
0.36796
0.365819
0.363402
0.360828
0.355993
0.34881
0.337368
0.323247
0.306096
0.288519
0.27016
0.255159
0.241432
0.230579
0.221956
0.373915
0.372136
0.371154
0.36977
0.367327
0.363703
0.359009
0.348596
0.331633
0.307806
0.277516
0.244917
0.21128
0.181354
0.159576
0.145039
0.136975
0.134166
0.374656
0.376602
0.37894
0.379522
0.377706
0.372945
0.363381
0.338764
0.308699
0.268346
0.223742
0.180299
0.153982
0.133302
0.117957
0.116973
0.118407
0.119302
0.38906
0.425943
0.449635
0.466268
0.483333
0.498533
0.505659
0.516674
0.517331
0.51921
0.505647
0.515925
0.501667
0.508377
0.498973
0.500293
0.504192
0.505326
0.94455
1.24545
1.4412
1.54879
1.59742
1.59344
1.57957
1.5469
1.50685
1.46453
1.42154
1.38064
1.34186
1.30603
1.27301
1.24247
1.216
1.19114
1.41208e-08
3.52488e-07
1.81658e-06
7.21957e-06
2.44046e-05
7.55872e-05
0.000200671
0.00040756
0.000671813
0.000957012
0.00121799
0.00142677
0.00156904
0.0016343
0.00161931
0.00155888
0.0014419
0.00124608
0.00105669
0.000898991
0.000751542
0.000608584
0.00047066
0.000342324
0.000226648
0.000135553
7.35589e-05
3.76202e-05
1.91956e-05
1.03274e-05
6.09954e-06
4.32015e-06
4.39442e-06
8.15692e-06
2.10188e-05
5.27482e-05
0.000207024
0.000463249
0.000793551
0.000979485
0.000939676
0.000795247
0.00065388
0.000638664
0.000717621
0.000938253
0.00124034
0.00215494
0.00431073
0.0112561
0.0339245
0.0699673
0.103039
0.122933
0.126016
0.117043
0.137382
0.119491
0.128135
0.139234
0.16424
0.168513
0.147063
0.164317
0.172092
0.180149
0.189093
0.196623
0.204929
0.212395
0.220182
0.227558
0.234997
0.242243
0.249449
0.256544
0.263574
0.270508
0.277386
0.28416
0.290897
0.297516
0.304112
0.310574
0.317035
0.323353
0.32967
0.335842
0.342002
0.348057
0.354069
0.359996
0.365848
0.371593
0.377247
0.382772
0.3882
0.39347
0.398632
0.403611
0.408473
0.413159
0.417754
0.42226
0.426572
0.430753
0.434748
0.438612
0.442271
0.445799
0.449106
0.452275
0.455211
0.458001
0.460552
0.462945
0.465099
0.467083
0.468829
0.470397
0.471742
0.472901
0.473851
0.47461
0.475188
0.475585
0.475839
0.475934
0.475899
0.475554
0.475397
0.474166
0.47383
0.472002
0.471181
0.469462
0.468264
0.466636
0.464882
0.462956
0.460915
0.458748
0.456489
0.454134
0.451703
0.449193
0.446623
0.443987
0.441303
0.438563
0.435782
0.432952
0.430089
0.427182
0.42425
0.421289
0.418319
0.415339
0.412374
0.409432
0.406509
0.403603
0.400714
0.397844
0.394988
0.392151
0.389326
0.386524
0.38374
0.380986
0.378252
0.375542
0.372837
0.370123
0.367346
0.364422
0.361243
0.357454
0.352445
0.337388
7.50188e-08
2.12561e-06
1.44374e-05
6.19026e-05
0.000222526
0.000665917
0.00152348
0.00279231
0.0042971
0.00587409
0.00734261
0.0085767
0.00950564
0.010121
0.0104318
0.0104016
0.0102785
0.00996629
0.00945255
0.00871224
0.00776049
0.00663891
0.00539591
0.00413079
0.00288186
0.00191993
0.00122284
0.000758173
0.000460107
0.00027928
0.000176311
0.000122361
0.000102779
0.000129327
0.00027628
0.0005514
0.00217246
0.00471437
0.00773571
0.00984809
0.0104513
0.0102412
0.0103699
0.0114297
0.0148383
0.0196863
0.0270306
0.0406529
0.0631615
0.0870915
0.111859
0.133611
0.150362
0.163648
0.176346
0.191488
0.205945
0.221569
0.237187
0.256599
0.274897
0.292532
0.310981
0.330686
0.349384
0.367849
0.386227
0.40416
0.421998
0.439552
0.456989
0.474252
0.491399
0.508435
0.525367
0.542214
0.558968
0.575638
0.592222
0.608719
0.625136
0.641454
0.657694
0.673828
0.689893
0.705846
0.721729
0.737492
0.753186
0.768789
0.784315
0.799757
0.815089
0.830308
0.84539
0.860339
0.875133
0.889763
0.904203
0.91842
0.932389
0.94604
0.959327
0.972199
0.984888
0.997261
1.00938
1.02118
1.03269
1.04386
1.0547
1.06517
1.07528
1.085
1.09431
1.1032
1.11167
1.11968
1.12724
1.13433
1.14094
1.14708
1.15273
1.1579
1.16257
1.16677
1.17048
1.17371
1.17646
1.17875
1.18063
1.1821
1.18302
1.1832
1.18299
1.18273
1.18229
1.18152
1.18051
1.17907
1.17726
1.17511
1.17265
1.16988
1.16684
1.16354
1.15999
1.1562
1.1522
1.14798
1.14357
1.13895
1.13415
1.12916
1.124
1.11868
1.11322
1.10762
1.10195
1.09619
1.09035
1.08443
1.07845
1.07239
1.06626
1.06005
1.05377
1.04742
1.041
1.03453
1.028
1.02141
1.01474
1.00796
1.00099
0.993712
0.985926
0.977234
0.965688
0.940089
2.09304e-07
6.32812e-06
4.8084e-05
0.000226123
0.000650223
0.00180149
0.00368825
0.00593208
0.00821799
0.0103176
0.012089
0.0134696
0.0144514
0.015058
0.015349
0.0153297
0.0151969
0.0148692
0.014387
0.0137719
0.0130265
0.0121382
0.0110918
0.0098861
0.00853268
0.00697837
0.00535236
0.0038867
0.00261155
0.00172823
0.00117745
0.000855112
0.000660739
0.000593555
0.00142963
0.00314423
0.00916938
0.0168626
0.0233075
0.0277726
0.0302601
0.0326781
0.038519
0.0512642
0.0682814
0.0854878
0.104133
0.124622
0.143979
0.16365
0.183853
0.204098
0.225398
0.2484
0.273296
0.298989
0.326133
0.353266
0.382662
0.410416
0.43789
0.464884
0.491494
0.517512
0.542871
0.567694
0.59207
0.616015
0.639639
0.662971
0.686074
0.70898
0.731721
0.754319
0.77679
0.799145
0.821387
0.843518
0.865537
0.887441
0.909228
0.93089
0.952425
0.973826
0.995098
1.01623
1.03723
1.05807
1.07878
1.09936
1.11979
1.14007
1.16019
1.18013
1.19987
1.21943
1.23878
1.25794
1.27688
1.29562
1.31411
1.33236
1.35035
1.36806
1.38548
1.40254
1.41925
1.43556
1.45148
1.46696
1.48201
1.49657
1.51064
1.52418
1.5372
1.54963
1.5615
1.57275
1.5834
1.59341
1.60279
1.61151
1.61956
1.62696
1.63368
1.63974
1.64514
1.64987
1.65394
1.65736
1.66013
1.66226
1.66373
1.66441
1.6647
1.66479
1.66431
1.66315
1.66148
1.65928
1.65659
1.65342
1.64982
1.6458
1.64138
1.6366
1.63147
1.626
1.62021
1.61412
1.60773
1.60106
1.59412
1.58691
1.57945
1.57175
1.56383
1.5557
1.5474
1.53894
1.53033
1.52158
1.5127
1.50371
1.49458
1.48534
1.47596
1.46648
1.45689
1.44722
1.43746
1.42763
1.41772
1.40771
1.39755
1.38716
1.37634
1.36482
1.3506
1.32647
7.33358e-07
2.20041e-05
0.000171568
0.000726356
0.00202835
0.0048339
0.00824131
0.0116139
0.0145788
0.0169531
0.0186898
0.019827
0.0204513
0.0206313
0.0205369
0.0202512
0.0197485
0.0191279
0.0184222
0.0176479
0.016809
0.0158996
0.0149097
0.013814
0.0125958
0.0112278
0.0097198
0.00812477
0.00661298
0.00509898
0.0039865
0.00293327
0.00262605
0.00327393
0.00730565
0.0174731
0.0311282
0.0427094
0.0517385
0.0599061
0.0695827
0.0822019
0.0974925
0.11318
0.128426
0.144418
0.162476
0.182904
0.203977
0.227958
0.253493
0.281128
0.310521
0.341464
0.373408
0.405884
0.438613
0.471406
0.504067
0.536106
0.567649
0.598627
0.629049
0.658886
0.688176
0.716998
0.745421
0.773503
0.801307
0.828883
0.856275
0.883516
0.910632
0.937642
0.964554
0.991374
1.0181
1.04473
1.07126
1.09767
1.12396
1.1501
1.1761
1.20195
1.22762
1.25312
1.27844
1.30357
1.32852
1.35328
1.37786
1.40223
1.42639
1.45032
1.47402
1.49749
1.52073
1.54374
1.56651
1.58903
1.6113
1.63329
1.65498
1.67633
1.69731
1.71789
1.73805
1.75774
1.77696
1.79566
1.81382
1.83142
1.84842
1.86479
1.88052
1.89556
1.9099
1.92352
1.9364
1.94851
1.95986
1.97041
1.98016
1.9891
1.99724
2.00458
2.0111
2.01682
2.02174
2.02586
2.02919
2.03174
2.0335
2.03441
2.03476
2.03477
2.034
2.03245
2.03025
2.02744
2.02402
2.02004
2.0155
2.01046
2.00492
1.99892
1.99247
1.9856
1.97832
1.97065
1.96261
1.9542
1.94545
1.93635
1.92693
1.91719
1.90717
1.89687
1.88634
1.87557
1.8646
1.85345
1.84211
1.83061
1.81893
1.8071
1.79511
1.78297
1.7707
1.75833
1.74586
1.73331
1.7207
1.70803
1.69527
1.68238
1.66925
1.65565
1.63992
1.61725
2.44184e-06
7.32027e-05
0.000548682
0.00207009
0.00573639
0.0108491
0.0156997
0.0196433
0.0224895
0.0243112
0.0252919
0.0256331
0.0255369
0.025183
0.0245522
0.0237943
0.022961
0.0220892
0.0212015
0.0203069
0.0194033
0.0184817
0.0175292
0.0165218
0.015437
0.0142413
0.0129219
0.0115092
0.010081
0.00869546
0.00706816
0.00677169
0.00857502
0.0161407
0.0328736
0.0514119
0.0679462
0.081517
0.0930848
0.104102
0.115639
0.127936
0.14099
0.154851
0.171377
0.190956
0.213069
0.237996
0.265056
0.294491
0.325452
0.357929
0.391435
0.425681
0.460346
0.495245
0.530171
0.565073
0.59976
0.634131
0.668159
0.701795
0.735034
0.767875
0.80035
0.832506
0.864387
0.896041
0.927512
0.95884
0.99006
1.0212
1.05227
1.0833
1.11428
1.14521
1.17608
1.20689
1.23761
1.26824
1.29875
1.32911
1.35932
1.38936
1.4192
1.44884
1.47826
1.50746
1.53642
1.56516
1.59366
1.62191
1.64991
1.67762
1.70507
1.73224
1.75914
1.78575
1.8121
1.83813
1.86386
1.88924
1.91426
1.93887
1.96305
1.98677
2.00999
2.03269
2.05483
2.07639
2.09733
2.11762
2.13722
2.15611
2.17424
2.19159
2.20814
2.22386
2.23872
2.2527
2.26579
2.27798
2.28924
2.29957
2.30897
2.31744
2.32498
2.33158
2.33726
2.34202
2.34586
2.34879
2.35084
2.35191
2.35231
2.35217
2.35109
2.34918
2.34652
2.34313
2.33904
2.33428
2.32889
2.32288
2.3163
2.30915
2.30147
2.29328
2.2846
2.27544
2.26584
2.25579
2.24532
2.23445
2.22318
2.21153
2.19952
2.18719
2.17455
2.16163
2.14845
2.13503
2.12139
2.10755
2.0935
2.07925
2.06482
2.05021
2.03546
2.02058
2.0056
1.99055
1.97546
1.96034
1.9452
1.93005
1.9148
1.89933
1.88224
1.85994
7.69621e-06
0.000225425
0.00160854
0.00570196
0.0131222
0.0198165
0.0246687
0.0277116
0.0293428
0.0299964
0.0299717
0.02962
0.0288845
0.0279627
0.0269432
0.025886
0.0248322
0.0238074
0.022824
0.0218822
0.020974
0.020085
0.0191949
0.0182745
0.0173045
0.0162326
0.0150158
0.0136287
0.0124465
0.0118885
0.0127688
0.0177891
0.0303521
0.0512645
0.0736896
0.0930899
0.108104
0.119316
0.128524
0.137576
0.147536
0.159368
0.174292
0.192273
0.213561
0.238069
0.265182
0.294524
0.325493
0.35785
0.391198
0.425379
0.460179
0.495457
0.531087
0.566988
0.603051
0.639225
0.675402
0.711515
0.74751
0.783343
0.818996
0.854464
0.889753
0.924886
0.959892
0.994801
1.02965
1.06446
1.09926
1.13407
1.1689
1.20376
1.23865
1.27355
1.30845
1.34333
1.37817
1.41294
1.4476
1.48214
1.51652
1.55071
1.58469
1.61844
1.65194
1.68517
1.71813
1.75081
1.78321
1.8153
1.84709
1.87855
1.90969
1.94049
1.97097
2.00111
2.03091
2.06035
2.08942
2.11808
2.14631
2.17407
2.20133
2.22807
2.25425
2.27985
2.30482
2.32914
2.35276
2.37565
2.39777
2.41909
2.43957
2.45917
2.47787
2.49563
2.51242
2.52824
2.54304
2.55682
2.56956
2.58125
2.59188
2.60147
2.60999
2.61746
2.62387
2.62924
2.63358
2.63689
2.63919
2.6404
2.64082
2.64049
2.63915
2.63688
2.63375
2.62979
2.62502
2.61949
2.61322
2.60625
2.59861
2.59032
2.58141
2.5719
2.56181
2.55117
2.54
2.52832
2.51615
2.50351
2.4904
2.47685
2.46289
2.44854
2.43383
2.41879
2.40344
2.38781
2.37192
2.35579
2.33942
2.32282
2.30601
2.28901
2.27183
2.25453
2.23712
2.21964
2.20214
2.18466
2.16722
2.14986
2.13254
2.11518
2.09657
2.0738
2.43645e-05
0.000671647
0.00437345
0.0135874
0.0227442
0.0287201
0.0320607
0.0336754
0.0341827
0.0340026
0.0333552
0.032317
0.0310884
0.0297706
0.0284392
0.0271484
0.0259317
0.0248053
0.023771
0.0228193
0.0219349
0.0210911
0.0202519
0.0193604
0.0183771
0.0172975
0.0162755
0.0158159
0.0166469
0.0210084
0.031278
0.0494583
0.0719076
0.0940306
0.113082
0.127258
0.137004
0.144509
0.151919
0.161135
0.173622
0.189506
0.208919
0.231746
0.257581
0.285847
0.315859
0.347192
0.379529
0.412711
0.446595
0.481104
0.516171
0.551747
0.587787
0.624252
0.661083
0.698223
0.735595
0.773142
0.810806
0.848546
0.886328
0.924135
0.96196
0.99981
1.0377
1.07564
1.11366
1.15178
1.19001
1.22837
1.26687
1.30549
1.34423
1.38307
1.42199
1.46095
1.49992
1.53886
1.57773
1.61648
1.65509
1.6935
1.73169
1.76962
1.80727
1.84462
1.88163
1.91833
1.95467
1.99066
2.02629
2.06153
2.09637
2.13084
2.16489
2.19857
2.23183
2.26467
2.29707
2.329
2.36043
2.39133
2.42167
2.45143
2.48057
2.50905
2.53685
2.56391
2.59022
2.61571
2.64036
2.6641
2.68693
2.70878
2.72964
2.74945
2.76819
2.78583
2.80235
2.81772
2.83194
2.84499
2.85686
2.86754
2.87705
2.88537
2.89251
2.89848
2.90329
2.90695
2.90948
2.91081
2.91121
2.91069
2.90907
2.90642
2.90279
2.89822
2.89274
2.8864
2.87923
2.87126
2.86252
2.85304
2.84285
2.83199
2.82046
2.8083
2.79554
2.78219
2.76828
2.75384
2.73887
2.7234
2.70745
2.69107
2.67428
2.65712
2.6396
2.62176
2.60361
2.58519
2.56651
2.54757
2.52839
2.50899
2.48942
2.4697
2.44987
2.42999
2.41011
2.39027
2.37054
2.35095
2.33151
2.31215
2.29183
2.26798
7.25078e-05
0.00184269
0.0103644
0.0232852
0.0313851
0.0356921
0.0377313
0.0383715
0.0381375
0.0372968
0.0359892
0.0344406
0.0327828
0.0311209
0.0295305
0.0280616
0.0267386
0.0255662
0.0245353
0.0236322
0.0228517
0.0221854
0.0216107
0.0211886
0.0211066
0.0216371
0.0233281
0.0271192
0.0349018
0.049687
0.0690051
0.0895875
0.109554
0.126502
0.139021
0.147617
0.154207
0.161531
0.171394
0.184628
0.201523
0.221939
0.245547
0.271842
0.300187
0.330009
0.360872
0.392558
0.424953
0.458013
0.491712
0.526047
0.561017
0.596621
0.632852
0.669683
0.707072
0.744975
0.783335
0.822098
0.86121
0.900627
0.940309
0.980234
1.02038
1.06075
1.10134
1.14216
1.18322
1.22454
1.26612
1.30797
1.35009
1.39246
1.43507
1.47788
1.52086
1.56396
1.60714
1.65033
1.6935
1.73657
1.7795
1.82224
1.86475
1.90698
1.94889
1.99045
2.03165
2.07245
2.11285
2.15283
2.19238
2.23147
2.27011
2.30828
2.34599
2.38323
2.42
2.45628
2.49205
2.52728
2.56194
2.59601
2.62946
2.66226
2.69437
2.72577
2.75641
2.78624
2.81524
2.84334
2.87052
2.89671
2.92189
2.946
2.96901
2.99087
3.01155
3.03102
3.04925
3.06621
3.08189
3.09628
3.10936
3.12114
3.1316
3.14074
3.14858
3.15511
3.16035
3.16432
3.16704
3.16843
3.16878
3.16803
3.16608
3.16299
3.15881
3.15358
3.14735
3.14014
3.132
3.12297
3.11308
3.10236
3.09084
3.07857
3.06555
3.05182
3.03741
3.02235
3.00666
2.99037
2.97349
2.95606
2.93811
2.91966
2.90077
2.88145
2.86174
2.84167
2.82127
2.80055
2.77954
2.75824
2.73668
2.7149
2.69292
2.67078
2.64855
2.62627
2.60399
2.58179
2.55973
2.53788
2.51624
2.49479
2.47255
2.44718
0.00018778
0.00436401
0.0192903
0.0319622
0.0385647
0.041704
0.0428495
0.0427388
0.0418356
0.0403155
0.0384593
0.0364405
0.0344008
0.0324523
0.0306726
0.0291094
0.0277827
0.0266929
0.0258238
0.0251317
0.0246365
0.0243507
0.0243354
0.0249604
0.0268371
0.0309977
0.0387782
0.0508377
0.0666462
0.0840809
0.102118
0.11897
0.133272
0.144267
0.152563
0.159806
0.168056
0.178852
0.193003
0.210642
0.231545
0.25528
0.281327
0.309132
0.338184
0.368121
0.398752
0.430014
0.461906
0.494454
0.52769
0.561653
0.596376
0.631878
0.66816
0.705214
0.743017
0.781534
0.820722
0.860533
0.90092
0.941839
0.983253
1.02513
1.06745
1.1102
1.15338
1.19698
1.24101
1.28547
1.33036
1.37569
1.42144
1.4676
1.51412
1.56097
1.60809
1.65543
1.70292
1.75048
1.79805
1.84556
1.89293
1.94012
1.98706
2.0337
2.07999
2.1259
2.17137
2.2164
2.26095
2.30502
2.34859
2.39162
2.43413
2.47608
2.5175
2.55837
2.59871
2.63847
2.67765
2.71621
2.75414
2.79141
2.82797
2.86383
2.89892
2.93323
2.9667
2.9993
3.03097
3.06168
3.09136
3.11998
3.14748
3.17382
3.19895
3.22283
3.24542
3.26668
3.28657
3.30508
3.32217
3.33785
3.35209
3.36489
3.37624
3.38614
3.39461
3.40163
3.40724
3.41144
3.41427
3.41566
3.41588
3.41483
3.41248
3.40888
3.40408
3.39812
3.39105
3.38291
3.37373
3.36357
3.35246
3.34043
3.32753
3.31378
3.29922
3.28387
3.26776
3.25094
3.23342
3.21524
3.19641
3.17698
3.15697
3.13644
3.11541
3.09392
3.07201
3.04969
3.02701
3.00398
2.98063
2.95697
2.93303
2.90884
2.88445
2.85991
2.83526
2.81057
2.7859
2.76132
2.73691
2.71274
2.68884
2.66519
2.6409
2.61366
0.000417281
0.0088405
0.0283881
0.0397748
0.0451332
0.0473912
0.0478297
0.0471027
0.0455538
0.0434904
0.0411488
0.0387297
0.0363971
0.0342767
0.0324537
0.0309806
0.0298817
0.0291484
0.0288312
0.0288836
0.0294833
0.0308056
0.0332489
0.0375139
0.0443364
0.053852
0.0658682
0.0798493
0.0949643
0.109991
0.123921
0.135973
0.146019
0.15457
0.162836
0.172306
0.184215
0.199175
0.217261
0.238201
0.26157
0.286899
0.313725
0.341642
0.370348
0.399676
0.429581
0.460084
0.491242
0.523115
0.555772
0.589272
0.623658
0.658961
0.695202
0.732384
0.770499
0.809524
0.849428
0.890174
0.931722
0.974034
1.01707
1.06081
1.10522
1.15029
1.196
1.24235
1.28934
1.33696
1.3852
1.43406
1.48351
1.53352
1.58405
1.63503
1.68641
1.73809
1.79
1.84204
1.89413
1.94618
1.9981
2.04983
2.10129
2.15243
2.20319
2.25351
2.30336
2.35269
2.40148
2.44971
2.49736
2.54441
2.59084
2.63663
2.6818
2.72634
2.77026
2.81352
2.85612
2.89803
2.93922
2.97967
3.01935
3.05822
3.09627
3.13345
3.16972
3.20503
3.23933
3.27258
3.3047
3.33567
3.36542
3.39391
3.42108
3.4469
3.4713
3.49425
3.51571
3.53567
3.55408
3.57095
3.58624
3.59996
3.6121
3.62266
3.63163
3.63904
3.6449
3.64923
3.65205
3.65336
3.65333
3.65188
3.64903
3.64482
3.6393
3.63252
3.62452
3.61535
3.60505
3.59368
3.58126
3.56785
3.55349
3.5382
3.52203
3.505
3.48715
3.46851
3.44911
3.42899
3.40818
3.3867
3.36461
3.34196
3.31877
3.2951
3.27097
3.2464
3.22143
3.19608
3.17038
3.14435
3.11803
3.09144
3.06465
3.0377
3.01065
2.98356
2.95649
2.92952
2.90273
2.87621
2.84999
2.82409
2.79765
2.76865
0.000796954
0.0153533
0.0365038
0.0468512
0.0514722
0.0531366
0.0530436
0.0517707
0.0497198
0.0472098
0.0445123
0.0418576
0.0394341
0.0373827
0.0358031
0.0347813
0.0343761
0.0344708
0.0352238
0.0368353
0.0395889
0.0438026
0.0497639
0.0575133
0.0668986
0.0777922
0.0898045
0.102335
0.114698
0.126292
0.136812
0.146308
0.155267
0.164592
0.175306
0.188229
0.203783
0.221987
0.242586
0.265216
0.289487
0.315039
0.341559
0.368813
0.396658
0.42505
0.454015
0.483619
0.513947
0.545086
0.577116
0.610103
0.644105
0.679168
0.715323
0.752589
0.79097
0.830457
0.871034
0.912674
0.955346
0.999022
1.04367
1.08926
1.13577
1.18318
1.23148
1.28065
1.33068
1.38155
1.43325
1.48575
1.53902
1.59302
1.64769
1.70294
1.75869
1.81484
1.87129
1.92792
1.98462
2.04128
2.09782
2.15413
2.21016
2.26583
2.32107
2.37584
2.43007
2.48372
2.53675
2.58914
2.64089
2.69195
2.74229
2.79192
2.84082
2.88901
2.93647
2.9832
3.02918
3.07437
3.11877
3.16233
3.20504
3.24685
3.28776
3.3277
3.36667
3.40457
3.44139
3.47703
3.51148
3.54465
3.5765
3.60699
3.63605
3.66363
3.68969
3.71417
3.73705
3.75828
3.77785
3.79574
3.81192
3.8264
3.83916
3.85021
3.85954
3.86718
3.87313
3.87744
3.8801
3.88118
3.88075
3.87879
3.87531
3.87036
3.86401
3.85628
3.84725
3.83695
3.82544
3.81275
3.79895
3.78408
3.76817
3.75127
3.73343
3.71467
3.69502
3.67453
3.65321
3.63111
3.60827
3.58472
3.56053
3.53574
3.51039
3.48453
3.45818
3.43136
3.40411
3.37646
3.34843
3.32004
3.29135
3.26239
3.23322
3.20389
3.17446
3.14498
3.11553
3.08618
3.05701
3.02812
2.99956
2.97136
2.94273
2.91184
0.00129182
0.0222951
0.0439772
0.0537988
0.0579791
0.0592294
0.058742
0.0570574
0.0546371
0.0518579
0.0490412
0.0464481
0.0442908
0.0427282
0.041983
0.0418944
0.0426344
0.0441893
0.0467218
0.0503628
0.055225
0.0613709
0.0687794
0.0773226
0.086784
0.0968693
0.107229
0.117521
0.127505
0.137091
0.146418
0.15591
0.1662
0.177941
0.19162
0.207477
0.225483
0.245437
0.267047
0.290022
0.314087
0.339021
0.364649
0.390862
0.417619
0.444941
0.472893
0.501565
0.53106
0.561467
0.592877
0.62537
0.659015
0.693866
0.72997
0.767357
0.806045
0.846041
0.887341
0.929936
0.973807
1.01893
1.06528
1.11284
1.16157
1.21147
1.2625
1.31466
1.36792
1.42225
1.47762
1.53399
1.59131
1.64953
1.70854
1.76825
1.82855
1.8893
1.9504
2.01169
2.07306
2.13436
2.1955
2.25638
2.31692
2.37705
2.43669
2.49579
2.55429
2.61214
2.6693
2.72575
2.78147
2.83643
2.89058
2.94391
2.99643
3.04813
3.09901
3.14906
3.19826
3.2466
3.29403
3.34054
3.3861
3.43068
3.47426
3.51678
3.55822
3.59852
3.63762
3.67547
3.71199
3.74713
3.78085
3.81309
3.84379
3.8729
3.90036
3.92613
3.95016
3.97243
3.99291
4.01158
4.02841
4.04342
4.05657
4.06789
4.07737
4.08502
4.09087
4.09494
4.09726
4.0979
4.09692
4.09428
4.09001
4.08418
4.07685
4.06805
4.05786
4.04631
4.03347
4.01938
4.0041
3.98767
3.97015
3.95158
3.932
3.91145
3.88997
3.86758
3.84432
3.82021
3.79532
3.76969
3.7434
3.71648
3.68898
3.66095
3.63241
3.60338
3.57389
3.54397
3.51364
3.48294
3.45192
3.42064
3.38914
3.35749
3.32573
3.29392
3.26212
3.23043
3.19891
3.16767
3.13677
3.10627
3.07543
3.04263
0.00189684
0.0288372
0.0512023
0.060927
0.064849
0.0658276
0.0650363
0.0630452
0.0604047
0.0575798
0.0549477
0.0527848
0.0513395
0.0507644
0.0509209
0.0519841
0.0539464
0.0568456
0.0607074
0.0655362
0.0713135
0.0779761
0.0854166
0.0934805
0.101987
0.110768
0.1197
0.128719
0.137861
0.147299
0.157348
0.168415
0.180867
0.194965
0.210806
0.228344
0.247417
0.267822
0.289341
0.31179
0.335011
0.358894
0.383364
0.408397
0.434011
0.460266
0.487251
0.515061
0.543804
0.573582
0.604492
0.636619
0.670047
0.704841
0.741059
0.77874
0.817914
0.858603
0.900819
0.944566
0.989835
1.03662
1.0849
1.13466
1.18589
1.23857
1.29266
1.34816
1.40501
1.46319
1.52262
1.58325
1.645
1.70776
1.77143
1.83584
1.90087
1.96635
2.03215
2.09811
2.16409
2.22995
2.29557
2.36086
2.42574
2.49012
2.55393
2.61708
2.67956
2.74133
2.80232
2.86253
2.92194
2.9805
3.03817
3.09491
3.15074
3.20565
3.25966
3.31273
3.36486
3.41602
3.46618
3.51533
3.56343
3.61046
3.65637
3.70115
3.74473
3.78709
3.82813
3.86782
3.90607
3.94284
3.97807
4.01171
4.04368
4.07396
4.10246
4.12916
4.15401
4.17697
4.19802
4.21714
4.23431
4.24953
4.26279
4.27408
4.28343
4.29083
4.29631
4.2999
4.30165
4.30162
4.29991
4.29638
4.29114
4.28426
4.27578
4.26577
4.25428
4.24136
4.22708
4.21148
4.19462
4.17655
4.15734
4.13702
4.11565
4.09327
4.06992
4.04563
4.02041
3.99429
3.96735
3.93966
3.91129
3.88228
3.85268
3.82252
3.79184
3.76066
3.729
3.69687
3.66431
3.63137
3.59811
3.56459
3.53086
3.49697
3.46297
3.42891
3.39486
3.36089
3.32709
3.29355
3.26036
3.22762
3.19461
3.15994
0.00269858
0.0344165
0.0581994
0.0681408
0.0719849
0.0728027
0.0717756
0.0695586
0.0667962
0.0640912
0.0619078
0.0605593
0.0600613
0.0602805
0.0614025
0.063415
0.0662732
0.0699423
0.0743902
0.0795714
0.0854241
0.0918748
0.098844
0.106258
0.114064
0.122235
0.130792
0.139831
0.149502
0.160016
0.171586
0.184405
0.198577
0.214123
0.230978
0.249028
0.268125
0.288134
0.308927
0.330414
0.352524
0.375229
0.398525
0.422445
0.447044
0.472404
0.498626
0.525814
0.554075
0.583508
0.614215
0.646292
0.679826
0.714894
0.751563
0.789888
0.829914
0.871678
0.915207
0.960519
1.00762
1.05651
1.10719
1.15965
1.21387
1.26985
1.32755
1.38695
1.44799
1.51059
1.57466
1.64009
1.70675
1.77449
1.84314
1.91251
1.98241
2.05267
2.12312
2.19358
2.26393
2.33406
2.40386
2.47326
2.54214
2.61042
2.67795
2.74465
2.81062
2.87576
2.94007
3.00351
3.06605
3.12766
3.18829
3.2479
3.3065
3.36408
3.42066
3.47621
3.53073
3.58418
3.63654
3.6878
3.73792
3.78686
3.83461
3.88111
3.92632
3.9702
4.01268
4.05369
4.09316
4.13105
4.16728
4.20181
4.23457
4.26552
4.29458
4.32173
4.34692
4.37012
4.3913
4.41045
4.42755
4.44259
4.45558
4.4665
4.47537
4.4822
4.48701
4.48984
4.49075
4.48987
4.48713
4.48249
4.47608
4.46795
4.45817
4.44678
4.43385
4.41943
4.40358
4.38636
4.36784
4.34805
4.32707
4.30495
4.28175
4.2575
4.23227
4.20607
4.17892
4.15081
4.12187
4.09217
4.06179
4.03075
3.99911
3.96691
3.93418
3.90095
3.86723
3.83299
3.79831
3.76325
3.72788
3.69226
3.65642
3.62042
3.58431
3.54814
3.51195
3.47582
3.43984
3.40413
3.36875
3.33385
3.29875
3.26235
0.00353602
0.0404493
0.0653257
0.0754735
0.079249
0.0799219
0.0785653
0.0760342
0.0732889
0.0709915
0.0695922
0.0690832
0.0692539
0.0702068
0.0720134
0.0746061
0.077923
0.0819077
0.0865168
0.0917087
0.0974483
0.103712
0.110488
0.117776
0.1256
0.134017
0.143117
0.153005
0.163798
0.175603
0.18848
0.20246
0.217514
0.233585
0.250579
0.268407
0.286979
0.30623
0.326112
0.346606
0.367711
0.389455
0.411875
0.435043
0.459043
0.483966
0.509899
0.53695
0.565235
0.594863
0.625947
0.658585
0.692875
0.728903
0.766743
0.806462
0.848108
0.891733
0.937363
0.985039
1.03477
1.08657
1.14042
1.19634
1.2543
1.31431
1.37633
1.44032
1.50621
1.5739
1.64324
1.71405
1.78609
1.85915
1.933
2.00739
2.08214
2.15701
2.2318
2.30627
2.38041
2.45425
2.52766
2.60057
2.67287
2.74444
2.81506
2.88478
2.9536
3.02152
3.08843
3.15437
3.21929
3.28315
3.34589
3.40753
3.46802
3.5274
3.58567
3.64283
3.69885
3.75373
3.80744
3.85995
3.91125
3.96128
4.01004
4.05746
4.10353
4.14815
4.19129
4.23287
4.27285
4.31113
4.34767
4.3824
4.41528
4.44623
4.47524
4.50222
4.52718
4.55005
4.57082
4.58948
4.60601
4.62042
4.63269
4.64284
4.65085
4.65674
4.66054
4.66229
4.6621
4.66008
4.65599
4.65002
4.64221
4.63263
4.62134
4.6084
4.59386
4.57779
4.56024
4.54128
4.52096
4.49936
4.47652
4.45252
4.4274
4.40122
4.37405
4.34591
4.31684
4.28682
4.25597
4.22437
4.19208
4.15912
4.12556
4.09143
4.05677
4.02161
3.98598
3.94979
3.91316
3.87616
3.83886
3.8013
3.76354
3.72561
3.68757
3.64946
3.6113
3.57317
3.5352
3.49747
3.46007
3.42316
3.38611
3.34819
0.00445102
0.0464544
0.0724429
0.0828178
0.0865169
0.0869914
0.0852329
0.0825424
0.0800689
0.0784305
0.0777673
0.0777436
0.0785341
0.0800054
0.0822448
0.0851714
0.0887345
0.0928877
0.0976142
0.102905
0.108763
0.115207
0.122267
0.12999
0.138433
0.147661
0.157732
0.168701
0.180595
0.19341
0.207127
0.221717
0.237109
0.25324
0.270044
0.287483
0.305522
0.324166
0.343417
0.363317
0.383897
0.405236
0.427419
0.450579
0.474814
0.500142
0.526665
0.55453
0.583867
0.614794
0.647436
0.681878
0.718232
0.756567
0.796976
0.839491
0.884177
0.931036
0.980109
1.03141
1.08498
1.14079
1.19881
1.25906
1.32151
1.38619
1.45306
1.52211
1.59325
1.66639
1.74132
1.81778
1.89537
1.97377
2.05265
2.13185
2.21118
2.29032
2.36903
2.44703
2.52461
2.60167
2.67805
2.75377
2.82879
2.90286
2.97602
3.04811
3.1191
3.18885
3.2574
3.32474
3.39088
3.45574
3.51931
3.5816
3.64262
3.7024
3.76097
3.81834
3.8745
3.92945
3.98315
4.03561
4.08677
4.13662
4.18513
4.23226
4.27797
4.32219
4.36488
4.40595
4.44536
4.48302
4.51888
4.55286
4.58493
4.61503
4.64311
4.66914
4.69307
4.71488
4.73454
4.75206
4.76741
4.7806
4.79163
4.8005
4.80719
4.81173
4.81413
4.81443
4.81294
4.80928
4.80363
4.79606
4.78663
4.7754
4.76243
4.74777
4.73148
4.71363
4.69427
4.67348
4.6513
4.62782
4.60308
4.57716
4.55011
4.52199
4.49287
4.46279
4.43181
4.39999
4.36737
4.33398
4.29988
4.26512
4.22974
4.19379