/*--------------------------------*- C++ -*----------------------------------*\
  =========                 |
  \\      /  F ield         | OpenFOAM: The Open Source CFD Toolbox
   \\    /   O peration     | Website:  https://openfoam.org
    \\  /    A nd           | Version:  13
     \\/     M anipulation  |
\*---------------------------------------------------------------------------*/
FoamFile
{
    format      ascii;
    class       volScalarField;
    location    "800";
    object      nut;
}
// * * * * * * * * * * * * * * * * * * * * * * * * * * * * * * * * * * * * * //

dimensions      [0 2 -1 0 0 0 0];

internalField   nonuniform List<scalar> 
12225
(
6.80676e-06
1.36885e-05
1.82882e-05
1.90905e-05
1.91261e-05
1.91179e-05
2.12641e-05
1.60422e-05
2.60687e-05
3.47166e-05
3.8544e-05
3.69905e-05
2.92447e-05
2.09151e-05
1.77736e-05
2.80179e-05
2.73961e-05
3.17881e-05
0.00012004
4.91859e-05
4.17914e-05
3.47468e-05
3.45483e-05
3.35531e-05
3.47265e-05
3.29145e-05
3.54371e-05
3.39812e-05
3.51527e-05
3.86558e-05
3.66779e-05
3.55607e-05
3.45995e-05
3.69345e-05
3.70483e-05
3.84429e-05
0.000461681
0.000163358
7.81129e-05
4.87681e-05
2.8445e-05
2.0585e-05
1.57312e-05
1.58762e-05
1.59662e-05
1.48134e-05
1.34684e-05
1.25057e-05
1.31709e-05
1.35805e-05
1.41117e-05
1.48989e-05
1.54e-05
1.63921e-05
0.000732277
0.000569089
0.000197874
8.25167e-05
5.96324e-05
4.35609e-05
2.85283e-05
2.18138e-05
1.68944e-05
1.34587e-05
8.9006e-06
8.23125e-06
7.00399e-06
6.60602e-06
6.93906e-06
8.06714e-06
1.04006e-05
1.35422e-05
0.000826476
0.000781608
0.00045642
0.000257253
0.000197771
0.000128363
0.000101656
7.00223e-05
3.98794e-05
3.22891e-05
2.6883e-05
2.31578e-05
1.78988e-05
1.68211e-05
1.55007e-05
1.61918e-05
1.97744e-05
2.46777e-05
0.000848562
0.000824309
0.000581108
0.000430239
0.000363739
0.000260582
0.000194494
0.000163116
8.53532e-05
6.72843e-05
5.90441e-05
5.53172e-05
5.14798e-05
4.53725e-05
4.17847e-05
4.34569e-05
4.9585e-05
5.65889e-05
0.000853371
0.000848142
0.000722633
0.000637672
0.000510472
0.000422753
0.000312855
0.000220194
0.000182734
0.000145018
0.000125093
0.000106196
0.000102863
0.000101446
9.63743e-05
9.64088e-05
0.000101122
0.000108489
0.000853449
0.000851544
0.000810905
0.00075943
0.000683003
0.000568097
0.000475546
0.000374721
0.000320103
0.000272111
0.000243935
0.000226143
0.000216915
0.000212271
0.000210185
0.000208305
0.000217507
0.000220011
0.000851349
0.00085232
0.000841723
0.000823982
0.000799916
0.000747205
0.000676537
0.000599935
0.000536314
0.000490209
0.000450971
0.000428414
0.000409292
0.000395994
0.000394348
0.000387118
0.00039324
0.000393845
0.00085118
0.000851134
0.000850018
0.000845209
0.000837176
0.000823472
0.000796064
0.000756979
0.000716562
0.000679285
0.000649247
0.000625891
0.000608146
0.0005919
0.000583846
0.000570813
0.000568751
0.000564784
0.000851345
0.00085094
0.000849873
0.000849906
0.000848387
0.000843923
0.000837402
0.000824118
0.00080654
0.000787616
0.000771913
0.000758006
0.000744925
0.000734699
0.000725121
0.000717694
0.000708026
0.000702347
0.00085147
0.000850746
0.00084971
0.000849831
0.000848843
0.00084768
0.000846511
0.000842193
0.00083612
0.000828456
0.000821509
0.000814579
0.000808638
0.000802533
0.000797397
0.000791407
0.000786578
0.00078122
0.000851549
0.000850656
0.000849785
0.000849277
0.00084871
0.000847853
0.000847152
0.000845729
0.000843832
0.000841293
0.000838963
0.000836377
0.000834297
0.000831946
0.000830174
0.000827748
0.000826191
0.000823321
0.00085156
0.000850652
0.000849848
0.000849091
0.000848449
0.000847731
0.000847091
0.000846303
0.000845526
0.000844527
0.00084368
0.000842682
0.000841931
0.000841012
0.000840391
0.000839503
0.000838898
0.000837913
0.000851548
0.000850666
0.000849862
0.000849072
0.000848363
0.00084765
0.000847005
0.000846335
0.00084573
0.000845077
0.000844503
0.00084389
0.000843368
0.000842812
0.000842343
0.000841846
0.000841397
0.000840922
0.00085154
0.000850672
0.000849857
0.000849073
0.000848338
0.000847629
0.000846964
0.000846318
0.000845713
0.00084512
0.000844565
0.000844022
0.000843513
0.000843017
0.000842551
0.000842101
0.000841672
0.000841259
0.000851538
0.000850673
0.000849852
0.00084907
0.000848328
0.00084762
0.000846948
0.000846305
0.000845693
0.000845107
0.000844548
0.000844012
0.0008435
0.000843009
0.000842541
0.000842092
0.000841663
0.000841251
0.000851539
0.000850678
0.000849858
0.000849077
0.000848335
0.000847628
0.000846954
0.000846311
0.000845698
0.000845112
0.000844551
0.000844016
0.000843503
0.000843012
0.000842542
0.000842092
0.000841661
0.000841249
0.000851537
0.000850674
0.000849851
0.000849069
0.000848324
0.000847615
0.000846939
0.000846295
0.00084568
0.000845093
0.000844531
0.000843995
0.000843479
0.000842987
0.000842514
0.000842063
0.000841628
0.000841214
0.000851536
0.000850674
0.000849851
0.000849069
0.000848325
0.000847615
0.00084694
0.000846299
0.000845685
0.000845101
0.000844532
0.000843989
0.00084345
0.000842939
0.000842429
0.000841952
0.000841479
0.000841048
0.000851522
0.000850689
0.000849844
0.000849083
0.000848323
0.000847621
0.000846947
0.000846336
0.000845722
0.000845131
0.000844452
0.000843747
0.000842984
0.000842196
0.000841276
0.000840463
0.000839633
0.000838963
0.00085143
0.00085079
0.000849768
0.000849181
0.000848248
0.00084767
0.000846966
0.00084656
0.000845811
0.000844811
0.000843883
0.000841331
0.000840774
0.000836975
0.000832351
0.000830455
0.000827265
0.000823877
0.000851168
0.000851149
0.00084947
0.000849638
0.000847838
0.000848235
0.000846434
0.000847735
0.000845703
0.000842726
0.000835801
0.00082415
0.000810952
0.000797906
0.000784811
0.000774043
0.000763345
0.000755107
0.000851103
0.000851401
0.000849336
0.000849773
0.000847197
0.000847062
0.000844189
0.000838377
0.000827475
0.000815754
0.000792533
0.000761986
0.00073235
0.000706007
0.000679323
0.000656078
0.000630875
0.000610509
0.000852091
0.000851284
0.000848025
0.000843787
0.000837612
0.000826214
0.000813735
0.000786556
0.000764682
0.000735744
0.000695427
0.000648717
0.000604638
0.000557323
0.000520832
0.000485135
0.000450335
0.000422898
0.000859257
0.000843887
0.000823696
0.0008013
0.0007786
0.000737287
0.000690482
0.000630567
0.000591529
0.000538893
0.000476832
0.000421984
0.000382925
0.000344951
0.00030751
0.00027728
0.000257177
0.000236496
0.000885491
0.000762893
0.000691187
0.000638108
0.000575148
0.000491955
0.000424431
0.000362613
0.000314529
0.000271008
0.000219847
0.000180133
0.000146278
0.000119826
9.95991e-05
8.52029e-05
7.75335e-05
7.48649e-05
0.000782523
0.000505776
0.000381302
0.000297241
0.000235073
0.000188302
0.000159441
0.000128644
0.000104293
8.32335e-05
6.35841e-05
4.86761e-05
3.933e-05
3.27256e-05
2.79123e-05
2.68725e-05
2.67092e-05
2.66269e-05
0.000574228
0.000108445
8.13219e-05
6.54302e-05
5.8679e-05
5.53537e-05
5.28067e-05
5.16928e-05
5.02074e-05
4.91223e-05
4.69658e-05
4.7498e-05
4.5718e-05
4.62871e-05
4.51862e-05
4.54517e-05
4.49737e-05
4.40957e-05
1.23437e-05
1.64279e-05
1.92295e-05
2.09327e-05
2.18748e-05
2.21002e-05
2.21797e-05
2.19797e-05
2.16537e-05
2.12721e-05
2.08569e-05
2.04496e-05
2.00531e-05
1.96816e-05
1.93342e-05
1.90078e-05
1.87295e-05
1.84629e-05
1.23183e-12
1.40197e-10
7.21894e-10
2.86649e-09
9.6812e-09
2.99585e-08
7.94636e-08
1.61244e-07
2.65549e-07
3.77934e-07
4.8055e-07
5.62402e-07
6.17899e-07
6.42992e-07
6.36484e-07
6.12141e-07
5.65658e-07
4.88358e-07
4.13723e-07
3.51631e-07
2.93662e-07
2.37561e-07
1.83536e-07
1.33353e-07
8.81996e-08
5.26952e-08
2.85653e-08
1.45936e-08
7.43835e-09
3.99757e-09
2.35847e-09
1.66861e-09
1.69541e-09
3.14351e-09
8.09108e-09
2.02821e-08
7.95114e-08
1.77714e-07
3.04071e-07
3.74876e-07
3.59214e-07
3.0364e-07
2.49363e-07
2.43264e-07
2.73004e-07
3.56498e-07
4.70691e-07
8.16744e-07
1.63174e-06
4.25534e-06
1.28086e-05
2.63826e-05
3.88021e-05
4.62326e-05
4.61732e-05
3.73042e-05
4.00438e-05
3.19061e-05
3.17602e-05
3.23913e-05
3.61281e-05
3.53051e-05
2.96049e-05
3.1908e-05
3.23179e-05
3.28254e-05
3.35265e-05
3.40018e-05
3.46312e-05
3.51356e-05
3.57082e-05
3.62273e-05
3.67686e-05
3.72908e-05
3.78173e-05
3.83371e-05
3.88572e-05
3.93728e-05
3.98902e-05
4.04027e-05
4.09198e-05
4.143e-05
4.19469e-05
4.24555e-05
4.29737e-05
4.34823e-05
4.4e-05
4.4508e-05
4.50245e-05
4.55367e-05
4.60524e-05
4.65651e-05
4.70763e-05
4.75823e-05
4.80866e-05
4.85856e-05
4.90848e-05
4.9578e-05
5.00728e-05
5.05612e-05
5.10521e-05
5.1539e-05
5.20333e-05
5.25348e-05
5.30292e-05
5.35274e-05
5.40247e-05
5.45298e-05
5.50357e-05
5.55532e-05
5.60732e-05
5.66079e-05
5.71472e-05
5.77035e-05
5.82672e-05
5.88501e-05
5.94435e-05
6.00576e-05
6.06857e-05
6.13362e-05
6.20043e-05
6.26957e-05
6.34089e-05
6.41484e-05
6.4917e-05
6.57163e-05
6.65528e-05
6.74258e-05
6.83404e-05
6.92717e-05
7.02945e-05
7.12241e-05
7.23549e-05
7.33273e-05
7.45268e-05
7.56602e-05
7.69519e-05
7.75942e-05
7.73386e-05
7.70661e-05
7.6783e-05
7.64882e-05
7.61845e-05
7.58717e-05
7.55514e-05
7.52236e-05
7.48898e-05
7.45495e-05
7.42045e-05
7.38538e-05
7.34991e-05
7.31394e-05
7.27764e-05
7.24088e-05
7.20386e-05
7.16651e-05
7.12906e-05
7.09143e-05
7.05392e-05
7.01652e-05
6.97929e-05
6.94215e-05
6.90514e-05
6.86828e-05
6.83149e-05
6.79483e-05
6.75824e-05
6.72181e-05
6.68548e-05
6.64936e-05
6.61335e-05
6.57751e-05
6.54161e-05
6.50559e-05
6.46891e-05
6.43084e-05
6.39041e-05
6.34446e-05
6.28752e-05
6.13977e-05
6.54429e-12
1.06828e-09
1.46839e-08
7.77425e-08
3.25702e-07
1.0854e-06
2.46558e-06
4.53012e-06
7.08584e-06
1.00114e-05
1.30266e-05
1.58609e-05
1.829e-05
2.01483e-05
2.12738e-05
2.15886e-05
2.1357e-05
2.05348e-05
1.88558e-05
1.57839e-05
1.23013e-05
9.11016e-06
6.44716e-06
4.37113e-06
2.75906e-06
1.71361e-06
1.04222e-06
6.46946e-07
4.02579e-07
2.59623e-07
1.83186e-07
1.47869e-07
1.50834e-07
2.19827e-07
5.35813e-07
1.1743e-06
4.82867e-06
1.04074e-05
1.65958e-05
1.99301e-05
1.99007e-05
1.84207e-05
1.67702e-05
1.598e-05
1.71447e-05
1.72212e-05
1.82419e-05
2.32117e-05
3.28705e-05
4.30412e-05
5.41748e-05
6.45123e-05
7.37046e-05
8.17648e-05
8.9885e-05
9.83936e-05
0.000110389
0.000118054
0.000135176
0.000148127
0.000162341
0.000177252
0.00018674
0.000200753
0.000212353
0.000224328
0.000235625
0.00024676
0.000257204
0.000267395
0.000277204
0.000286777
0.000296047
0.000305114
0.000313943
0.000322595
0.000331045
0.000339339
0.000347451
0.000355419
0.000363225
0.000370894
0.000378417
0.000385808
0.000393074
0.000400215
0.000407249
0.000414165
0.000420985
0.000427713
0.000434366
0.000440955
0.00044749
0.000453965
0.000460389
0.000466748
0.000473057
0.000479283
0.000485433
0.000491439
0.000497271
0.0005028
0.00050788
0.000512386
0.000516996
0.000521403
0.000525742
0.000529949
0.000534045
0.000538015
0.000541856
0.000545562
0.000549125
0.000552541
0.000555801
0.000558904
0.000561838
0.000564602
0.000567185
0.000569584
0.000571793
0.000573814
0.00057564
0.000577274
0.000578709
0.000579947
0.00058098
0.000581816
0.000582464
0.00058299
0.000583382
0.000583525
0.000583579
0.000583214
0.000582836
0.000582366
0.000581943
0.000581574
0.000581209
0.000580689
0.000580031
0.000579244
0.000578338
0.000577317
0.000576192
0.000574968
0.000573654
0.000572252
0.00057077
0.000569209
0.000567576
0.000565867
0.000564089
0.000562237
0.000560317
0.00055833
0.000556286
0.000554186
0.000552045
0.000549863
0.000547643
0.000545388
0.000543102
0.000540783
0.000538426
0.000536031
0.000533594
0.000531118
0.0005286
0.000526045
0.000523447
0.000520802
0.000518092
0.000515305
0.000512385
0.000509245
0.000505771
0.000501648
0.000496122
0.000480656
1.82588e-11
3.16885e-09
6.00931e-08
3.62443e-07
9.87572e-07
2.70549e-06
5.74845e-06
1.00463e-05
1.54093e-05
2.15506e-05
2.81205e-05
3.46423e-05
4.0561e-05
4.55479e-05
4.94072e-05
5.19155e-05
5.34554e-05
5.38181e-05
5.27137e-05
4.99815e-05
4.6072e-05
4.0339e-05
3.35436e-05
2.65842e-05
2.00887e-05
1.44628e-05
9.83077e-06
6.56972e-06
4.1561e-06
2.74179e-06
1.91043e-06
1.47151e-06
1.26431e-06
1.30586e-06
3.58331e-06
8.48894e-06
2.4528e-05
4.32582e-05
5.56112e-05
5.82332e-05
5.24813e-05
4.16948e-05
3.84052e-05
4.26998e-05
4.97148e-05
5.75576e-05
6.86662e-05
8.06037e-05
9.25717e-05
0.00010701
0.000124486
0.000143804
0.000165873
0.000190231
0.0002172
0.000245408
0.000275585
0.000305122
0.000337993
0.000367437
0.00039675
0.000424521
0.00045031
0.00047627
0.00050018
0.000523516
0.000545987
0.000567418
0.00058802
0.000608019
0.000627425
0.000646356
0.00066482
0.000682897
0.000700594
0.000717957
0.00073499
0.000751721
0.00076815
0.0007843
0.000800167
0.00081577
0.000831109
0.000846199
0.000861048
0.000875668
0.000890068
0.000904255
0.000918246
0.000932057
0.000945701
0.000959189
0.000972527
0.000985703
0.000998722
0.00101157
0.00102424
0.0010367
0.00104895
0.00106092
0.00107258
0.00108388
0.0010948
0.00110547
0.00111604
0.00112635
0.00113646
0.00114633
0.00115596
0.00116533
0.00117443
0.00118323
0.00119174
0.00119992
0.00120778
0.00121528
0.00122242
0.00122919
0.00123556
0.00124154
0.00124711
0.00125226
0.00125701
0.00126133
0.00126524
0.00126872
0.00127179
0.00127444
0.0012767
0.00127859
0.00128008
0.00128115
0.00128188
0.00128208
0.00128215
0.00128215
0.00128189
0.00128133
0.00128042
0.00127927
0.0012778
0.00127605
0.00127404
0.00127178
0.00126929
0.00126658
0.00126368
0.00126058
0.0012573
0.00125385
0.00125023
0.00124645
0.00124252
0.00123842
0.00123416
0.00122975
0.0012252
0.00122053
0.00121574
0.00121085
0.00120588
0.00120082
0.00119568
0.00119047
0.00118517
0.00117979
0.00117431
0.00116876
0.00116311
0.00115739
0.00115157
0.00114567
0.00113963
0.00113342
0.00112693
0.00112
0.00111235
0.00110323
0.00109073
0.00106267
6.39748e-11
1.08211e-08
1.72423e-07
7.66693e-07
2.29743e-06
6.35305e-06
1.26962e-05
2.12524e-05
3.14463e-05
4.22507e-05
5.27453e-05
6.23911e-05
7.07428e-05
7.73313e-05
8.22909e-05
8.56738e-05
8.71963e-05
8.72169e-05
8.58783e-05
8.3161e-05
7.90363e-05
7.35707e-05
6.69888e-05
5.86339e-05
4.92957e-05
3.97994e-05
3.08174e-05
2.32513e-05
1.73253e-05
1.25834e-05
9.57033e-06
7.11135e-06
6.63374e-06
8.65834e-06
1.84163e-05
3.78014e-05
5.77461e-05
7.11089e-05
7.16246e-05
6.8916e-05
6.85416e-05
7.14081e-05
7.77716e-05
8.73886e-05
0.000100508
0.000113334
0.000127009
0.000150657
0.000172431
0.000202472
0.000235026
0.000272013
0.000311862
0.00035414
0.000397834
0.00044219
0.000486152
0.000529869
0.000572513
0.000613435
0.000653037
0.000690742
0.000726777
0.000761763
0.000795477
0.000827745
0.000859005
0.000889243
0.000918652
0.000947336
0.000975367
0.00100282
0.00102974
0.00105618
0.00108215
0.00110769
0.00113281
0.00115752
0.00118183
0.00120575
0.00122927
0.0012524
0.00127516
0.00129754
0.00131956
0.00134122
0.00136255
0.00138354
0.00140423
0.00142461
0.00144472
0.00146456
0.00148413
0.00150343
0.00152246
0.00154121
0.00155967
0.00157784
0.0015957
0.00161323
0.00163043
0.00164727
0.00166381
0.00168008
0.0016961
0.00171179
0.00172716
0.00174218
0.00175683
0.00177109
0.00178495
0.00179837
0.00181133
0.00182382
0.00183581
0.00184728
0.00185822
0.00186859
0.00187839
0.00188761
0.00189623
0.00190425
0.00191167
0.00191849
0.0019247
0.0019303
0.0019353
0.00193971
0.00194354
0.0019468
0.00194948
0.00195158
0.00195315
0.00195408
0.00195468
0.00195513
0.00195505
0.00195446
0.00195339
0.0019519
0.00194997
0.00194762
0.00194488
0.00194177
0.00193831
0.00193452
0.00193043
0.00192604
0.00192138
0.00191645
0.00191126
0.00190582
0.00190014
0.00189421
0.00188803
0.00188163
0.00187502
0.00186821
0.00186122
0.00185406
0.00184676
0.00183932
0.00183175
0.00182406
0.00181623
0.00180827
0.00180017
0.00179194
0.00178358
0.00177509
0.00176649
0.00175774
0.00174882
0.00173966
0.00173014
0.00172004
0.00170899
0.00169597
0.00167839
0.00164515
2.13015e-10
3.19779e-08
3.83307e-07
1.78076e-06
6.18303e-06
1.4991e-05
2.79766e-05
4.36672e-05
6.02124e-05
7.60362e-05
8.98711e-05
0.000101047
0.0001094
0.000115338
0.000118667
0.000120073
0.000119858
0.000118267
0.000115501
0.000111639
0.000106589
0.000100744
9.3982e-05
8.57431e-05
7.62245e-05
6.56555e-05
5.46371e-05
4.44304e-05
3.5676e-05
2.87799e-05
2.22924e-05
1.99417e-05
2.21212e-05
3.36159e-05
5.63042e-05
7.43495e-05
8.43413e-05
8.90605e-05
9.19751e-05
9.61254e-05
0.00010335
0.00011474
0.000130929
0.000141514
0.000157147
0.000183513
0.000212589
0.000248855
0.000287716
0.000333773
0.000381502
0.000432927
0.000485678
0.000539495
0.000593326
0.000646809
0.000699128
0.000750623
0.000800455
0.000848554
0.00089519
0.000940381
0.000983985
0.00102618
0.00106708
0.00110673
0.00114535
0.00118301
0.00121983
0.00125589
0.00129128
0.00132603
0.0013602
0.00139383
0.00142692
0.00145949
0.00149156
0.00152313
0.00155419
0.00158476
0.00161482
0.00164437
0.00167344
0.001702
0.00173009
0.0017577
0.00178484
0.00181154
0.0018378
0.00186365
0.00188912
0.0019142
0.00193891
0.00196325
0.00198722
0.00201081
0.00203404
0.00205691
0.0020794
0.00210152
0.00212328
0.00214466
0.00216569
0.00218636
0.00220666
0.00222654
0.00224599
0.00226498
0.0022835
0.00230151
0.00231899
0.00233592
0.00235227
0.00236802
0.00238315
0.00239762
0.00241142
0.00242453
0.00243693
0.00244862
0.00245959
0.00246983
0.00247934
0.00248811
0.00249616
0.00250347
0.00251007
0.00251595
0.00252112
0.00252559
0.00252936
0.00253245
0.00253487
0.00253656
0.0025378
0.00253874
0.00253896
0.00253857
0.00253762
0.00253613
0.0025341
0.00253157
0.00252855
0.00252506
0.00252114
0.00251681
0.00251208
0.00250698
0.00250152
0.00249571
0.00248957
0.0024831
0.00247631
0.0024692
0.00246177
0.00245405
0.00244604
0.00243778
0.00242927
0.00242053
0.0024116
0.00240247
0.00239316
0.00238367
0.002374
0.00236415
0.00235412
0.00234391
0.00233353
0.00232299
0.00231228
0.00230139
0.00229029
0.00227892
0.00226716
0.0022548
0.00224144
0.00222605
0.00220573
0.00217224
6.71382e-10
7.85627e-08
9.45838e-07
4.78209e-06
1.57891e-05
3.36979e-05
5.5393e-05
7.77233e-05
9.75915e-05
0.000113251
0.000124928
0.000133802
0.000139584
0.000143064
0.000144653
0.000144637
0.000143227
0.000140588
0.000136901
0.000132177
0.000126513
0.000120202
0.000112976
0.000104654
9.52905e-05
8.09089e-05
6.63613e-05
5.26341e-05
4.17256e-05
3.50352e-05
3.32428e-05
3.93042e-05
5.56975e-05
7.77314e-05
9.47935e-05
0.000105487
0.000112179
0.000117899
0.000126032
0.00013908
0.000154709
0.000165257
0.00018357
0.000209773
0.000241011
0.000280416
0.000324194
0.000374082
0.000426825
0.000483675
0.000541622
0.000601398
0.000661483
0.000721612
0.000781159
0.000839905
0.000897228
0.000953495
0.00100819
0.00106172
0.00111365
0.00116413
0.00121324
0.00126103
0.00130762
0.00135309
0.00139758
0.00144115
0.00148389
0.00152588
0.00156718
0.00160781
0.00164783
0.00168724
0.00172606
0.00176431
0.00180196
0.00183904
0.00187552
0.00191141
0.00194669
0.00198137
0.00201545
0.00204893
0.00208182
0.00211412
0.00214585
0.00217702
0.00220765
0.00223776
0.00226738
0.00229652
0.00232519
0.00235339
0.00238114
0.00240843
0.00243527
0.00246168
0.00248765
0.00251318
0.00253829
0.00256296
0.00258718
0.00261095
0.00263424
0.00265702
0.00267928
0.002701
0.00272214
0.00274269
0.00276261
0.00278189
0.0028005
0.00281842
0.00283563
0.0028521
0.00286782
0.00288277
0.00289694
0.00291032
0.0029229
0.00293469
0.00294568
0.00295586
0.00296525
0.00297384
0.00298165
0.00298868
0.00299493
0.00300042
0.00300516
0.0030091
0.00301234
0.00301478
0.00301669
0.00301816
0.00301886
0.0030189
0.0030183
0.00301708
0.00301528
0.00301291
0.00301
0.00300655
0.00300261
0.00299819
0.00299332
0.002988
0.00298227
0.00297612
0.00296958
0.00296265
0.00295533
0.00294764
0.00293957
0.00293115
0.00292239
0.00291331
0.00290394
0.00289429
0.00288439
0.00287424
0.00286386
0.00285326
0.00284243
0.00283137
0.00282009
0.0028086
0.0027969
0.002785
0.00277292
0.00276063
0.00274813
0.00273536
0.00272223
0.00270853
0.00269393
0.0026775
0.00265667
0.00262498
2.12545e-09
1.98807e-07
2.4941e-06
1.3127e-05
3.48357e-05
6.28326e-05
9.0533e-05
0.000113648
0.000131436
0.000144458
0.000153496
0.000158896
0.000161613
0.000162452
0.000161901
0.000160246
0.000157645
0.000154167
0.000149723
0.000144251
0.000137985
0.000130748
0.000122302
0.000108847
9.26993e-05
7.79207e-05
6.4341e-05
5.38733e-05
4.91301e-05
5.4544e-05
6.8882e-05
8.99114e-05
0.000108601
0.000122446
0.000132676
0.000140536
0.000149406
0.000162914
0.000177017
0.000186706
0.000204948
0.00023049
0.000261421
0.000300247
0.000345044
0.000396441
0.000451657
0.000510654
0.000571603
0.000634538
0.00069811
0.000762286
0.000826297
0.000889886
0.000952565
0.00101415
0.0010747
0.00113429
0.00119244
0.00124935
0.00130491
0.00135917
0.00141221
0.00146407
0.00151485
0.00156461
0.00161345
0.00166142
0.0017086
0.00175503
0.00180077
0.00184584
0.00189027
0.00193406
0.00197723
0.00201977
0.00206166
0.00210291
0.00214349
0.0021834
0.00222263
0.00226117
0.00229902
0.00233618
0.00237266
0.00240846
0.00244359
0.00247807
0.00251191
0.00254515
0.00257779
0.00260986
0.00264138
0.00267234
0.00270276
0.00273265
0.00276202
0.00279086
0.00281919
0.002847
0.00287427
0.00290102
0.00292724
0.00295292
0.00297803
0.00300256
0.0030265
0.00304981
0.00307249
0.00309452
0.00311588
0.00313656
0.00315653
0.00317577
0.00319426
0.00321198
0.00322891
0.00324504
0.00326037
0.00327487
0.00328855
0.00330141
0.00331344
0.00332465
0.00333503
0.0033446
0.00335335
0.0033613
0.00336844
0.00337483
0.00338034
0.00338507
0.00338907
0.00339223
0.00339482
0.00339686
0.00339812
0.00339868
0.00339855
0.00339777
0.00339637
0.00339435
0.00339176
0.00338862
0.00338498
0.00338084
0.00337619
0.00337106
0.00336546
0.0033594
0.0033529
0.00334596
0.00333858
0.00333078
0.00332257
0.00331395
0.00330495
0.00329559
0.00328588
0.00327586
0.00326554
0.00325493
0.00324404
0.00323289
0.00322148
0.00320979
0.00319785
0.00318566
0.00317324
0.0031606
0.00314775
0.00313469
0.00312141
0.00310788
0.00309403
0.00307971
0.00306465
0.00304807
0.003028
0.0029993
6.32525e-09
5.21462e-07
6.63333e-06
2.84049e-05
6.07138e-05
9.31068e-05
0.00011989
0.000140218
0.000155164
0.000164872
0.000170373
0.00017296
0.000173553
0.000172681
0.000170725
0.000167885
0.000164166
0.000159449
0.000153855
0.000147597
0.000140652
0.000132772
0.000119998
0.000104172
9.13843e-05
8.26031e-05
7.9235e-05
8.09666e-05
8.41354e-05
0.00010055
0.00012301
0.000144439
0.000157908
0.000167471
0.000177661
0.000190871
0.000197328
0.000206361
0.000222873
0.000246036
0.000275696
0.000312424
0.000355396
0.000405142
0.000460048
0.000519367
0.000581261
0.000645248
0.000710411
0.000776451
0.000842728
0.000908993
0.000974875
0.00103975
0.00110393
0.00116745
0.0012298
0.00129109
0.00135118
0.00141011
0.00146788
0.0015245
0.00158002
0.0016345
0.001688
0.00174058
0.0017923
0.00184321
0.00189336
0.00194281
0.00199157
0.00203969
0.00208717
0.00213401
0.0021802
0.00222574
0.00227062
0.00231481
0.00235829
0.00240104
0.00244305
0.00248432
0.00252482
0.00256456
0.00260355
0.00264179
0.00267929
0.00271606
0.00275213
0.00278751
0.00282221
0.00285626
0.00288968
0.00292248
0.00295465
0.00298622
0.00301719
0.00304757
0.00307736
0.00310655
0.00313515
0.00316316
0.00319058
0.00321741
0.00324361
0.0032692
0.00329414
0.00331843
0.00334206
0.003365
0.00338725
0.00340878
0.00342957
0.00344962
0.00346891
0.00348742
0.00350514
0.00352207
0.00353819
0.00355349
0.00356798
0.00358165
0.0035945
0.00360653
0.00361775
0.00362815
0.00363774
0.00364654
0.00365457
0.00366177
0.00366807
0.00367365
0.00367848
0.00368245
0.00368585
0.00368861
0.00369059
0.00369185
0.00369241
0.0036923
0.00369154
0.00369014
0.00368814
0.00368554
0.00368237
0.00367864
0.00367438
0.0036696
0.00366431
0.00365853
0.00365226
0.00364551
0.00363829
0.0036306
0.00362246
0.00361388
0.00360489
0.0035955
0.00358573
0.0035756
0.00356514
0.00355436
0.00354326
0.00353187
0.00352017
0.00350817
0.00349589
0.00348333
0.00347051
0.00345745
0.00344417
0.00343067
0.00341696
0.00340301
0.00338879
0.0033742
0.00335904
0.00334279
0.0033239
0.00329869
1.63811e-08
1.28514e-06
1.49365e-05
4.81057e-05
8.75205e-05
0.000122006
0.000147777
0.000164994
0.00017528
0.000180999
0.000183198
0.000182768
0.000180526
0.000177171
0.000173097
0.000168449
0.00016315
0.000157248
0.000150562
0.000143152
0.000134662
0.000124989
0.000111811
0.000102548
9.70414e-05
9.41408e-05
9.91204e-05
0.000112745
0.000131497
0.000150834
0.00016955
0.000185667
0.000198023
0.000205971
0.000213814
0.000223416
0.000238286
0.000258475
0.000285521
0.000319231
0.000359359
0.000405746
0.000457739
0.000514861
0.00057571
0.000639245
0.000704381
0.000770646
0.000837523
0.000904702
0.00097183
0.00103837
0.00110422
0.0011699
0.00123458
0.00129839
0.0013612
0.00142298
0.0014837
0.00154336
0.00160197
0.00165956
0.00171616
0.00177183
0.00182661
0.00188056
0.00193372
0.00198613
0.00203785
0.00208891
0.00213934
0.00218917
0.00223841
0.00228705
0.00233507
0.00238245
0.00242918
0.00247522
0.00252055
0.00256514
0.00260896
0.002652
0.00269423
0.00273567
0.00277631
0.00281619
0.00285531
0.00289364
0.00293119
0.00296798
0.00300403
0.00303935
0.00307396
0.00310788
0.0031411
0.00317364
0.00320552
0.00323673
0.00326729
0.00329722
0.00332652
0.00335517
0.00338318
0.00341055
0.00343726
0.00346331
0.00348869
0.00351339
0.00353741
0.00356074
0.00358336
0.00360526
0.00362644
0.00364688
0.00366657
0.00368551
0.00370369
0.00372109
0.00373772
0.00375357
0.00376864
0.00378292
0.00379641
0.00380911
0.00382103
0.00383217
0.00384253
0.00385213
0.00386099
0.00386893
0.00387609
0.00388254
0.00388823
0.00389309
0.00389736
0.00390094
0.00390376
0.00390586
0.00390725
0.00390796
0.003908
0.0039074
0.00390616
0.00390432
0.00390189
0.00389887
0.0038953
0.00389118
0.00388652
0.00388134
0.00387564
0.00386943
0.00386272
0.00385552
0.00384783
0.00383967
0.00383107
0.00382204
0.00381261
0.0038028
0.00379262
0.00378209
0.00377122
0.00376002
0.00374849
0.00373663
0.00372446
0.003712
0.00369926
0.00368626
0.00367302
0.00365955
0.00364588
0.00363199
0.00361787
0.00360346
0.00358863
0.00357291
0.00355507
0.00353277
3.64016e-08
2.94936e-06
2.71084e-05
7.04971e-05
0.000112873
0.000146096
0.000168677
0.000182955
0.000190026
0.000191701
0.000189871
0.000185913
0.000180728
0.000174891
0.00016858
0.000161883
0.000154864
0.000147408
0.000140149
0.00013297
0.000125901
0.000119317
0.000114308
0.000113307
0.000118239
0.000128116
0.00014184
0.000158022
0.000174845
0.000190733
0.000204486
0.000214955
0.000224955
0.000236374
0.000250639
0.000268763
0.00029285
0.000323039
0.000359598
0.000402069
0.000450055
0.000503123
0.000560597
0.000621667
0.000685216
0.000750379
0.000816485
0.000883149
0.000950035
0.00101685
0.00108302
0.00114899
0.00121442
0.00127917
0.00134302
0.00140597
0.00146797
0.00152899
0.00158902
0.00164808
0.00170616
0.00176329
0.00181953
0.00187493
0.00192955
0.00198344
0.00203663
0.00208913
0.002141
0.00219232
0.00224311
0.00229339
0.00234318
0.00239252
0.00244146
0.00248999
0.00253792
0.00258516
0.00263169
0.00267746
0.00272245
0.0027666
0.00280992
0.00285239
0.00289401
0.00293478
0.0029747
0.00301382
0.00305216
0.00308973
0.00312653
0.00316259
0.0031979
0.00323247
0.00326632
0.00329943
0.00333183
0.00336353
0.00339452
0.00342483
0.00345445
0.00348339
0.00351163
0.00353919
0.00356605
0.00359223
0.00361773
0.00364253
0.00366665
0.00369007
0.00371279
0.00373482
0.00375614
0.00377675
0.00379664
0.00381581
0.00383427
0.003852
0.003869
0.00388527
0.00390081
0.00391561
0.00392968
0.003943
0.00395559
0.00396744
0.00397855
0.00398898
0.00399858
0.00400738
0.00401547
0.00402284
0.00402946
0.00403531
0.00404055
0.00404506
0.00404884
0.00405189
0.00405424
0.00405591
0.00405691
0.00405725
0.00405695
0.00405603
0.0040545
0.00405237
0.00404966
0.00404639
0.00404256
0.00403818
0.00403326
0.0040278
0.00402182
0.00401531
0.00400829
0.00400078
0.00399281
0.00398439
0.00397554
0.00396629
0.00395665
0.00394664
0.00393626
0.00392552
0.00391443
0.003903
0.00389123
0.00387915
0.00386678
0.00385413
0.00384123
0.00382809
0.00381475
0.0038012
0.00378745
0.00377348
0.00375921
0.00374429
0.0037277
0.00370866
6.95226e-08
6.06547e-06
4.1512e-05
9.21824e-05
0.000136454
0.000167624
0.000187627
0.000197408
0.000199921
0.000197654
0.000192465
0.00018562
0.000177882
0.000169689
0.000161552
0.000153577
0.000146282
0.000139948
0.000135071
0.000131417
0.000129874
0.000131322
0.000136231
0.000144334
0.000155003
0.000167742
0.000181679
0.000195991
0.000209506
0.000221165
0.000232281
0.00024519
0.000259781
0.000277145
0.000298905
0.000325859
0.000358607
0.00039692
0.00044052
0.000488932
0.00054173
0.000598423
0.000658351
0.000720727
0.000784712
0.000849657
0.000915096
0.000980724
0.00104602
0.00111093
0.00117575
0.00123989
0.0013033
0.0013659
0.00142759
0.00148833
0.00154813
0.00160698
0.00166491
0.00172192
0.00177804
0.00183318
0.00188753
0.00194116
0.00199413
0.00204652
0.00209848
0.00215025
0.00220165
0.00225258
0.00230305
0.00235307
0.00240266
0.00245183
0.00250056
0.00254878
0.00259654
0.00264376
0.00269039
0.0027364
0.00278174
0.00282633
0.00287013
0.00291312
0.0029553
0.00299668
0.0030373
0.00307714
0.00311621
0.00315451
0.00319203
0.00322879
0.00326477
0.00329997
0.0033344
0.00336806
0.00340094
0.00343305
0.00346441
0.00349501
0.00352487
0.00355399
0.00358238
0.00361003
0.00363696
0.00366318
0.00368869
0.00371351
0.00373763
0.00376106
0.00378381
0.00380588
0.00382727
0.00384798
0.00386802
0.00388738
0.00390607
0.00392409
0.00394144
0.00395811
0.00397412
0.00398945
0.0040041
0.00401807
0.00403135
0.00404394
0.00405588
0.0040671
0.00407757
0.00408733
0.0040964
0.00410477
0.00411243
0.00411937
0.00412567
0.00413125
0.0041361
0.00414024
0.00414368
0.00414644
0.00414853
0.00414995
0.00415073
0.00415087
0.00415039
0.0041493
0.00414762
0.00414535
0.0041425
0.00413909
0.00413511
0.00413058
0.0041255
0.00411986
0.00411369
0.00410701
0.00409984
0.0040922
0.00408413
0.00407563
0.00406672
0.00405742
0.00404774
0.00403768
0.00402725
0.00401644
0.00400529
0.00399381
0.00398203
0.00396995
0.0039576
0.00394502
0.00393221
0.00391921
0.00390603
0.00389266
0.00387909
0.00386505
0.00384964
0.00383346
1.12692e-07
1.02914e-05
5.46986e-05
0.000110092
0.000155744
0.000186251
0.000202584
0.000208534
0.000207565
0.000202365
0.000194847
0.000186067
0.00017744
0.000169096
0.000162145
0.000156054
0.000151885
0.000149571
0.000149091
0.000150714
0.000154682
0.000161008
0.000169463
0.000179625
0.000191019
0.000203244
0.000215479
0.000226985
0.000238373
0.000251685
0.000267121
0.000284284
0.000304543
0.000329047
0.00035835
0.000392618
0.000431754