/*--------------------------------*- C++ -*----------------------------------*\
  =========                 |
  \\      /  F ield         | OpenFOAM: The Open Source CFD Toolbox
   \\    /   O peration     | Website:  https://openfoam.org
    \\  /    A nd           | Version:  13
     \\/     M anipulation  |
\*---------------------------------------------------------------------------*/
FoamFile
{
    format      ascii;
    class       volScalarField;
    location    "800";
    object      omega;
}
// * * * * * * * * * * * * * * * * * * * * * * * * * * * * * * * * * * * * * //

dimensions      [0 0 -1 0 0 0 0];

internalField   nonuniform List<scalar> 
12225
(
31477.7
37257.6
42370.5
50648.1
49998.4
52361.6
46350.8
38420.2
31477.7
31477.7
31477.7
31477.7
39912.1
44193.8
39217.3
31477.7
31477.7
31477.7
3329.49
8426.95
11527.7
15933.2
16900.6
19055.4
19028.5
18429.8
17375.6
18100.8
17462.4
17218.5
17676.8
18564.2
19005.5
18693.8
18303.5
18631.8
818.324
2277.06
4142.02
4998.43
6344.09
7022.52
7346.32
7533.36
7623.69
8311.33
8208.88
8622.02
8530.5
8750.3
8901.83
8942.3
8899.87
8898.9
511.37
654.256
1732.91
3298.44
3360.88
3378.6
3816.97
3869.69
4023.13
4127.58
5459.78
5399.43
6015.98
6328.51
6152.69
5965.73
5629.05
5420.46
452.236
475.946
800.112
1303.35
1499.52
1921.09
2027.28
2372.48
3378
3449.98
3511.55
3523.19
4260.37
4219.42
4487.59
4577.42
4334.31
4084
440.544
451.054
633.105
827.752
918.652
1142.64
1351.29
1397.81
2343.84
2629.95
2728.77
2751.09
2804.21
3124.68
3332.13
3292.37
3052.07
2845.43
438.085
438.234
510.346
570.233
688.999
790.232
1004.26
1326.47
1500.22
1785.53
1990.1
2261.84
2244.88
2226.35
2298.98
2281.84
2140.11
2003.42
438.046
436.392
455.413
482.116
527.263
619.048
719.868
887.965
1009.86
1163.23
1270.28
1350.8
1386.09
1392.36
1392.4
1384.71
1317.42
1280.69
439.117
435.959
439.064
445.408
454.314
480.443
523.247
581.984
641.879
694.541
747.362
779.808
810.513
830.122
829.108
837.582
820.37
812.032
439.203
436.547
434.745
434.603
435.69
439.469
450.733
469.992
492.381
515.536
535.989
552.569
565.996
578.2
583.666
593.557
593.03
593.375
439.117
436.641
434.731
432.287
430.552
430.212
430.894
435.134
441.987
450.041
456.932
463.065
469.275
473.707
478.148
480.92
485.57
487.065
439.047
436.743
434.772
432.319
430.488
428.761
427.092
427.04
428.001
429.869
431.603
433.413
434.932
436.523
437.779
439.37
440.499
441.705
439.003
436.789
434.715
432.582
430.59
428.82
427.064
425.733
424.742
424.137
423.561
423.17
422.659
422.298
421.758
421.502
420.906
420.894
438.993
436.789
434.674
432.661
430.714
428.905
427.165
425.583
424.094
422.792
421.513
420.377
419.214
418.182
417.085
416.143
415.131
414.313
438.997
436.78
434.66
432.66
430.741
428.934
427.201
425.575
424.012
422.558
421.151
419.839
418.56
417.364
416.194
415.093
414.027
413.021
439
436.774
434.657
432.651
430.74
428.929
427.201
425.563
423.999
422.515
421.097
419.749
418.46
417.233
416.06
414.939
413.869
412.846
439.001
436.772
434.655
432.646
430.735
428.92
427.193
425.55
423.986
422.496
421.076
419.723
418.431
417.2
416.024
414.902
413.829
412.807
438.999
436.769
434.65
432.638
430.726
428.908
427.179
425.534
423.968
422.476
421.055
419.7
418.407
417.174
415.996
414.873
413.8
412.775
439
436.771
434.653
432.641
430.73
428.912
427.183
425.539
423.972
422.481
421.059
419.704
418.411
417.179
416.001
414.879
413.805
412.781
439.002
436.771
434.657
432.644
430.735
428.917
427.192
425.546
423.981
422.49
421.071
419.722
418.437
417.215
416.05
414.939
413.879
412.862
439.01
436.766
434.663
432.644
430.744
428.927
427.203
425.548
423.987
422.497
421.13
419.841
418.648
417.528
416.537
415.554
414.64
413.711
439.063
436.711
434.711
432.604
430.796
428.919
427.226
425.474
423.98
422.653
421.324
420.826
419.356
419.554
420.202
419.577
419.654
419.965
439.203
436.525
434.873
432.394
431.012
428.671
427.56
424.93
423.991
423.359
424.628
428.163
432.555
437.012
441.634
445.324
449.109
451.921
439.244
436.397
434.953
432.387
431.351
429.336
428.745
429.495
432.613
435.454
444.317
457.131
470.429
482.183
495.277
507.433
522.053
535.074
438.739
436.484
435.671
435.607
436.368
440.131
444.526
456.543
464.973
476.106
494.648
517.924
542.5
572.319
597.718
625.898
660.89
690.362
435.101
440.382
448.861
459.203
469.842
492.891
522.574
564.561
589.675
626.038
677.905
725.374
753.46
783.184
829.758
870.717
896.577
938.519
422.268
487.797
536.981
579.479
638.665
739.302
845.859
961.345
1054.38
1135.78
1262.32
1359.65
1444.37
1513.48
1602.19
1702.27
1766.66
1792.11
478.779
744.602
993.807
1276.82
1606.76
1980.57
2279.1
2633.34
2959.91
3224.01
3518.83
3704.05
3915.12
4073.32
4226
4352.89
4433.21
4480.5
25.0159
3927.74
5529.08
7126.19
8236.9
9006.31
9575.67
9995.08
10303.9
10569.7
10766.3
10862
10973.1
10983.1
11042.6
11007.1
11041.5
11126.9
18117.5
23192
25237.4
26309.1
26761.8
26753.7
26596.1
26351.3
25987.6
25594.9
25204.1
24823.1
24462.1
24118.9
23806.8
23518.9
23265.7
23028.1
11463.2
2514.24
2516.41
2518.61
2520.83
2523.07
2525.32
2527.6
2529.9
2532.22
2534.57
2536.93
2539.31
2541.72
2544.15
2546.6
2549.08
2551.57
2554.09
2556.64
2559.2
2561.79
2564.41
2567.05
2569.71
2572.4
2575.12
2577.86
2580.62
2583.41
2586.23
2589.08
2591.95
2594.85
2597.77
2600.73
2603.71
2606.72
2609.76
2612.82
2615.92
2619.05
2622.2
2625.39
2628.61
2631.86
2635.14
2638.45
2641.79
2645.17
2648.58
2652.02
2655.5
2659.01
2662.55
3137.52
2669.74
3431.45
3309.26
3401.13
3341.02
2688.35
3220.2
3279.54
3398.79
3470.85
3560.62
3633.06
3711.74
3781.67
3853.16
3920.26
3986.85
4051.05
4114.18
4175.62
4236.05
4294.94
4353.04
4409.63
4465.65
4520.15
4574.22
4626.79
4679.07
4729.9
4780.43
4829.61
4878.38
4926.11
4973.27
5019.57
5065.14
5109.71
5153.5
5196.16
5238.01
5278.6
5318.32
5356.68
5394.12
5430.32
5465.76
5500.69
5534.18
5566.81
5598.13
5628.59
5657.69
5685.95
5712.8
5738.77
5763.31
5786.91
5809.09
5830.28
5850.08
5868.82
5886.2
5902.47
5917.47
5931.37
5944.13
5955.78
5966.48
5976.1
5985.09
5993.44
6002.02
6007.6
6009.06
6015.7
6014.35
6018.91
6014.95
6016.14
6015.37
6013.8
6010.99
6007.26
6002.82
5997.63
5991.89
5985.55
5978.75
5971.44
5963.74
5955.6
5947.12
5938.26
5929.08
5919.55
5909.73
5899.59
5889.2
5878.57
5867.8
5856.91
5846.03
5835.26
5824.51
5813.8
5803.12
5792.49
5781.87
5771.3
5760.76
5750.3
5739.91
5729.67
5719.52
5709.49
5699.46
5689.31
5678.65
5666.79
5652.89
5634.1
5605.48
5495.12
11463.2
1989.74
983.21
796.252
683.219
613.523
617.899
616.389
606.435
586.739
563.661
540.744
519.717
502.323
490.362
481.81
481.273
485.338
501.307
551.972
630.865
728.738
836.943
945.015
1044.51
1120.4
1173.31
1171.93
1142.9
1075.72
962.468
827.497
681.403
588.312
515.628
469.554
449.909
452.983
466.125
494.13
525.172
555.961
618.352
715.251
865.473
1143.14
1481.78
1751.4
1921.53
2023.45
2064.77
2071.1
2040.07
2001.45
1961.9
1946.14
1865.63
1876.83
1754.65
1732.3
1693.33
1650.37
1665.31
1647.23
1645.3
1639.78
1639.16
1637.86
1640.71
1643.83
1648.57
1653.73
1659.87
1666.38
1673.45
1680.79
1688.49
1696.35
1704.48
1712.68
1721.07
1729.48
1738.01
1746.54
1755.12
1763.67
1772.2
1780.67
1789.1
1797.44
1805.66
1813.69
1821.47
1829.01
1836.25
1843.26
1849.95
1856.45
1862.67
1868.84
1875.01
1881.54
1888.89
1897.4
1905.02
1912.65
1919.91
1926.94
1933.71
1940.2
1946.46
1952.44
1958.18
1963.65
1968.89
1973.87
1978.62
1983.13
1987.42
1991.5
1995.38
1999.05
2002.52
2005.8
2008.91
2011.86
2014.66
2017.32
2019.79
2021.9
2023.77
2025.78
2027.17
2028.76
2029.71
2030.91
2031.63
2031.58
2031.13
2030.46
2029.65
2028.69
2027.61
2026.41
2025.09
2023.65
2022.11
2020.45
2018.68
2016.81
2014.83
2012.76
2010.59
2008.34
2006.01
2003.61
2001.16
1998.65
1996.12
1993.57
1990.98
1988.36
1985.71
1983.03
1980.33
1977.6
1974.86
1972.11
1969.36
1966.62
1963.9
1961.22
1958.6
1956.04
1953.59
1951.35
1949.35
1948.05
1946.47
1955.85
11463.2
1996.98
800.158
623.885
658.406
665.865
641.608
590.474
533.313
478.761
429.899
388.82
356.288
330.597
310.663
295.282
284.292
276.285
272.927
275.54
282.744
300.905
330.669
371.879
424.751
482.506
544.45
591.608
628.367
630.328
616.326
581.113
522.608
454.531
398.969
370.391
373.833
389.813
419.115
476.92
574.874
706.553
887.714
1074.26
1233.12
1367.56
1487.61
1546.1
1555.32
1529.29
1476.9
1419.27
1358.86
1305.78
1258.26
1218.33
1183.42
1157.79
1132.16
1116.97
1103.69
1095.08
1091.46
1086.59
1085.35
1084.39
1084.4
1085.64
1087.78
1090.38
1093.48
1096.89
1100.63
1104.59
1108.76
1113.08
1117.55
1122.12
1126.78
1131.51
1136.3
1141.12
1145.97
1150.82
1155.68
1160.52
1165.33
1170.1
1174.83
1179.5
1184.08
1188.58
1192.96
1197.24
1201.4
1205.48
1209.47
1213.41
1217.3
1221.22
1225.18
1229.25
1233.42
1237.54
1241.42
1245.21
1248.83
1252.31
1255.65
1258.84
1261.9
1264.81
1267.6
1270.23
1272.75
1275.12
1277.38
1279.51
1281.52
1283.42
1285.2
1286.87
1288.43
1289.87
1291.21
1292.44
1293.56
1294.58
1295.48
1296.24
1296.9
1297.48
1297.88
1298.21
1298.36
1298.44
1298.33
1297.99
1297.61
1297.06
1296.44
1295.73
1294.95
1294.09
1293.15
1292.14
1291.05
1289.88
1288.64
1287.33
1285.95
1284.49
1282.98
1281.4
1279.78
1278.11
1276.39
1274.62
1272.8
1270.95
1269.06
1267.12
1265.14
1263.12
1261.07
1258.99
1256.87
1254.74
1252.58
1250.42
1248.26
1246.11
1244.02
1242
1240.14
1238.53
1237.33
1237.11
1238.25
1248.25
11463.2
2033.44
995.039
947.388
882.878
760.879
649.114
546.477
463.611
401.249
354.34
317.786
289.094
266.791
249.565
236.376
226.483
219.315
214.515
212.213
212.675
216.113
222.57
235.597
255.515
282.109
315.4
349.433
381.695
405.215
416.548
412.477
395.863
378.125
396.696
462.236
539.053
600.62
667.709
755.137
877.209
1010.58
1104.04
1174.01
1235.46
1274.27
1279.24
1214.04
1182.95
1125.87
1078.58
1033.51
995.701
964.208
938.602
917.896
902.213
889.667
880.446
873.94
869.245
866.644
865.532
864.948
865.111
866.206
867.772
869.844
872.264
874.961
877.9
881.031
884.331
887.77
891.33
894.99
898.739
902.558
906.439
910.366
914.331
918.319
922.322
926.328
930.328
934.314
938.273
942.199
946.088
949.93
953.718
957.442
961.094
964.673
968.185
971.636
975.034
978.388
981.707
985
988.269
991.511
994.69
997.767
1000.72
1003.57
1006.3
1008.93
1011.45
1013.87
1016.18
1018.38
1020.47
1022.46
1024.35
1026.13
1027.82
1029.4
1030.88
1032.27
1033.56
1034.74
1035.83
1036.81
1037.69
1038.48
1039.17
1039.75
1040.23
1040.61
1040.89
1041.07
1041.14
1041.11
1040.97
1040.74
1040.38
1039.9
1039.35
1038.7
1037.98
1037.18
1036.31
1035.37
1034.37
1033.29
1032.14
1030.92
1029.64
1028.28
1026.86
1025.38
1023.84
1022.25
1020.6
1018.9
1017.15
1015.34
1013.5
1011.6
1009.66
1007.68
1005.65
1003.59
1001.49
999.354
997.189
994.996
992.782
990.555
988.321
986.101
983.919
981.814
979.843
978.105
976.741
976.229
977.079
983.044
11463.2
2289.17
1431.44
1162.47
927.763
723.71
561.172
449.84
373.502
319.732
281.424
253.674
233.426
218.342
206.9
198.165
191.568
186.774
183.562
181.897
182.038
183.452
186.517
192.69
202.521
216.91
236.505
259.039
282.57
302.137
317.065
336.714
376.043
456.649
554.406
630.245
700.466
777.117
855.966
925.948
984.819
1036.54
1076.84
1094.24
1090.55
1040.56
1002.26
956.365
921.243
882.309
853.079
826.766
805.956
789.037
775.873
765.674
758.332
752.805
749.274
747.308
746.388
746.287
746.997
748.285
750.036
752.22
754.692
757.426
760.363
763.472
766.729
770.115
773.614
777.211
780.897
784.66
788.489
792.374
796.306
800.275
804.269
808.28
812.296
816.308
820.307
824.285
828.233
832.142
836.01
839.832
843.598
847.304
850.944
854.514
858.021
861.462
864.849
868.175
871.452
874.667
877.821
880.904
883.902
886.803
889.604
892.314
894.924
897.443
899.861
902.187
904.413
906.545
908.574
910.508
912.338
914.072
915.701
917.233
918.661
919.988
921.209
922.323
923.327
924.223
925.012
925.691
926.262
926.723
927.074
927.315
927.452
927.478
927.399
927.205
926.91
926.513
926.005
925.394
924.693
923.901
923.027
922.071
921.038
919.93
918.749
917.492
916.162
914.759
913.285
911.741
910.131
908.457
906.723
904.929
903.08
901.175
899.217
897.206
895.146
893.038
890.883
888.683
886.44
884.159
881.842
879.491
877.108
874.698
872.266
869.818
867.37
864.936
862.536
860.204
857.989
855.974
854.274
853.23
853.339
856.23
11463.2
2869.36
1700.65
1192.36
831.091
588.062
445.341
356.541
300.67
264.866
239.911
221.372
206.933
195.456
186.261
178.972
173.376
169.341
166.719
165.552
165.786
167.094
169.902
174.619
181.597
192.009
206.809
226.045
250.479
285.52
334.533
403.898
506.876
606.581
680.37
747.195
806.619
853.842
891.365
924.889
953.634
964.364
949.454
916.577
886.107
848.984
817.973
787.325
762.592
739.858
722.271
707.317
695.678
686.597
679.871
675.062
672.126
670.402
669.914
670.154
671.225
672.898
675.051
677.593
680.437
683.534
686.826
690.285
693.881
697.599
701.425
705.348
709.359
713.45
717.614
721.842
726.125
730.455
734.821
739.214
743.623
748.036
752.445
756.837
761.205
765.54
769.832
774.074
778.263
782.393
786.46
790.459
794.383
798.232
802.006
805.709
809.34
812.904
816.398
819.819
823.161
826.421
829.593
832.673
835.661
838.559
841.364
844.077
846.695
849.217
851.641
853.968
856.193
858.314
860.327
862.231
864.024
865.704
867.268
868.714
870.039
871.24
872.315
873.264
874.087
874.782
875.351
875.791
876.106
876.293
876.351
876.304
876.124
875.821
875.402
874.869
874.219
873.458
872.595
871.632
870.573
869.422
868.182
866.857
865.451
863.961
862.391
860.741
859.014
857.213
855.34
853.399
851.394
849.326
847.198
845.01
842.765
840.465
838.113
835.711
833.26
830.764
828.226
825.649
823.036
820.388
817.708
815.001
812.27
809.524
806.773
804.033
801.323
798.672
796.121
793.737
791.611
789.982
789.174
790.024
11463.2
3378.39
1753.52
1035.07
652.899
457.089
354.133
296.312
260.071
235.381
217.303
203.385
192.363
183.258
175.658
169.417
164.494
160.899
158.767
158.192
158.966
161.311
165.589
172.162
181.831
194.894
214.377
244.218
288.933
357.473
454.081
550.078
625.138
689.991
744.01
784.633
815.702
842.437
858.212
863.045
847.151
822.186
799.165
771.849
746.517
721.033
699.334
679.897
663.973
650.413
639.719
631.133
624.68
620.02
617.057
615.545
615.133
615.558
616.881
618.837
621.352
624.311
627.619
631.209
635.02
639.015
643.156
647.423
651.799
656.273
660.836
665.482
670.205
674.998
679.856
684.77
689.731
694.73
699.757
704.8
709.847
714.887
719.909
724.9
729.851
734.754
739.599
744.376
749.084
753.718
758.272
762.746
767.132
771.432
775.641
779.768
783.809
787.774
791.655
795.46
799.183
802.82
806.366
809.818
813.179
816.444
819.617
822.69
825.665
828.534
831.297
833.942
836.474
838.885
841.175
843.338
845.374
847.276
849.042
850.668
852.152
853.491
854.682
855.726
856.62
857.366
857.962
858.41
858.709
858.854
858.873
858.756
858.488
858.083
857.544
856.877
856.08
855.161
854.125
852.975
851.717
850.354
848.889
847.324
845.651
843.886
842.03
840.087
838.06
835.953
833.767
831.508
829.179
826.784
824.323
821.798
819.212
816.569
813.87
811.12
808.32
805.473
802.583
799.653
796.687
793.685
790.651
787.588
784.502
781.401
778.294
775.195
772.122
769.1
766.164
763.366
760.775
758.562
756.879
756.171
11463.2
3533.7
1562.48
819.761
516.935
383.345
314.717
273.655
245.789
226.217
211.238
199.125
188.892
180.222
172.971
167.148
162.875
160.34
159.47
160.113
162.47
167.094
174.113
185.202
202.585
228.456
269.669
334.943
414.829
494.15
560.971
620.246
671.67
712.762
744.49
770.073
781.475
782.758
769.02
750.41
730.963
710.378
690.912
670.979
652.513
635.406
620.844
608.382
598.179
589.879
583.476
578.714
575.476
573.81
573.274
573.629
574.95
577.013
579.741
583.001
586.705
590.77
595.124
599.713
604.49
609.423
614.486
619.66
624.933
630.295
635.739
641.26
646.852
652.509
658.226
663.992
669.798
675.633
681.485
687.341
693.188
699.013
704.803
710.546
716.231
721.849
727.391
732.845
738.209
743.477
748.65
753.721
758.691
763.555
768.316
772.976
777.539
782.008
786.387
790.677
794.874
798.973
802.97
806.865
810.658
814.347
817.929
821.402
824.763
828.006
831.128
834.123
836.989
839.718
842.307
844.75
847.043
849.18
851.157
852.969
854.615
856.089
857.392
858.521
859.476
860.256
860.862
861.294
861.545
861.635
861.584
861.355
860.963
860.415
859.715
858.869
857.878
856.749
855.487
854.097
852.584
850.954
849.211
847.358
845.401
843.344
841.187
838.938
836.596
834.168
831.654
829.063
826.396
823.658
820.849
817.974
815.034
812.033
808.976
805.864
802.701
799.49
796.234
792.938
789.604
786.233
782.83
779.397
775.942
772.471
768.995
765.526
762.08
758.679
755.352
752.14
749.095
746.317
743.869
741.864
11463.2
3395.75
1291.49
664.417
440.636
341.819
289.96
259.032
238.678
222.739
209.933
199.381
190.559
183.17
177.199
172.809
170.29
169.751
171.516
175.56
182.951
194.823
211.756
237.581
276.553
329.27
391.223
450.91
506.825
557.442
602.29
640.773
673.015
700.425
713.532
715.282
705.27
691.954
675.967
659.84
644.327
629.162
614.601
600.418
587.421
575.869
566.102
557.992
551.515
546.538
542.986
540.899
540.089
540.111
541.205
543.143
545.856
549.225
553.16
557.572
562.383
567.525
572.938
578.572
584.388
590.357
596.455
602.667
608.979
615.378
621.857
628.408
635.025
641.698
648.424
655.194
661.99
668.8
675.612
682.41
689.181
695.912
702.587
709.193
715.718
722.146
728.466
734.679
740.782
746.771
752.64
758.392
764.026
769.536
774.929
780.202
785.366
790.419
795.369
800.209
804.94
809.56
814.068
818.462
822.741
826.906
830.948
834.871
838.664
842.326
845.847
849.226
852.451
855.521
858.425
861.161
863.72
866.098
868.287
870.284
872.083
873.684
875.083
876.28
877.273
878.063
878.651
879.032
879.206
879.217
879.04
878.663
878.103
877.366
876.459
875.385
874.151
872.761
871.221
869.539
867.72
865.77
863.695
861.499
859.189
856.768
854.242
851.613
848.887
846.066
843.155
840.159
837.084
833.932
830.706
827.409
824.045
820.618
817.133
813.591
809.996
806.351
802.66
798.927
795.155
791.346
787.503
783.632
779.738
775.83
771.916
768.009
764.123
760.278
756.497
752.813
749.265
745.945
742.854
739.834
11463.2
2997.43
1047.2
564.205
399.859
324.383
283.557
257.455
239.724
226.866
216.72
208.322
201.392
195.989
192.512
191.376
192.954
197.74
205.719
217.219
234.178
258.183
290.871
331.081
374.973
420.339
464.383
505.304
543.136
576.675
606.013
632.566
649.104
653.922
649.684
641.109
629.041
616.568
604.178
592.437
581.195
570.235
559.626
549.559
540.483
532.633
526.135
520.959
517.077
514.448
513.17
512.862
513.542
515.149
517.641
520.909
524.874
529.45
534.559
540.129
546.094
552.396
558.975
565.785
572.785
579.946
587.244
594.675
602.214
609.838
617.538
625.302
633.118
640.965
648.811
656.642
664.484
672.333
680.171
687.981
695.747
703.455
711.089
718.636
726.083
733.422
740.643
747.727
754.667
761.457
768.097
774.591
780.939
787.141
793.199
799.118
804.903
810.562
816.096
821.507
826.795
831.958
836.997
841.908
846.691
851.343
855.86
860.239
864.473
868.555
872.478
876.234
879.815
883.213
886.421
889.432
892.238
894.833
897.207
899.357
901.278
902.967
904.421
905.641
906.626
907.377
907.893
908.165
908.23
908.086
907.716
907.13
906.338
905.348
904.166
902.8
901.254
899.535
897.652
895.611
893.419
891.084
888.612
886.009
883.282
880.436
877.477
874.409
871.237
867.966
864.599
861.142
857.601
853.979
850.281
846.509
842.668
838.763
834.798
830.776
826.701
822.573
818.398
814.18
809.921
805.625
801.295
796.938
792.56
788.169
783.773
779.384
775.015
770.683
766.407
762.215
758.135
754.239
750.502
746.536
11463.2
2531.27
879.354
508.245
377.212
316.998
282.707
262.252
248.697
238.85
231.275
225.502
221.687
220.301
221.62
226.475
234.998
246.312
260.779
280.292
304.825
333.55
365.29
398.473
431.596
463.761
494.302
522.141
547.471
571.032
588.995
596.713
597.683
593.884
586.493
577.638
568.261
559.274
550.682
542.44
534.374
526.448
518.81
511.724
505.482
500.261
496.139
493.124
491.334
490.657
490.848
492.064
494.209
497.23
501.071
505.659
510.92
516.78
523.173
530.032
537.304
544.966
552.927
561.138
569.556
578.142
586.844
595.582
604.4
613.318
622.324
631.408
640.55
649.728
658.93
668.14
677.322
686.464
695.546
704.545
713.445
722.238
730.913
739.458
747.861
756.111
764.191
772.093
779.815
787.355
794.711
801.894
808.905
815.749
822.423
828.941
835.305
841.528
847.611
853.559
859.372
865.048
870.586
875.983
881.239
886.347
891.307
896.108
900.75
905.215
909.503
913.596
917.489
921.17
924.635
927.87
930.872
933.626
936.128
938.369
940.346
942.056
943.496
944.667
945.57
946.206
946.565
946.671
946.53
946.138
945.496
944.617
943.506
942.177
940.635
938.89
936.947
934.816
932.505
930.023
927.377
924.577
921.63
918.543
915.323
911.978
908.514
904.936
901.25
897.461
893.572
889.59
885.52
881.368
877.136
872.831
868.457
864.019
859.521
854.968
850.36
845.699
840.991
836.238
831.444
826.613
821.75
816.861
811.954
807.037
802.116
797.203
792.309
787.449
782.64
777.904
773.263
768.777
764.415
759.585
11463.2
2166.39
803.99
488.672
372.271
318.008
289.963
273.612
263.229
256.259
251.691
249.631
249.611
252.686
258.922
268.46
280.702
295.44
313.378
334.161
357.023
381.167
405.867
430.467
454.322
476.616
497.629
517.745
534.895
544.696
548.132
548.428
545.735
540.776
534.729
528.446
522.248
516.28
510.438
504.649
498.883
493.234
487.892
483.096
479.061
475.924
473.806
472.835
472.715
473.611
475.456
478.239
481.917
486.45
491.82
497.952
504.753
512.159
520.104
528.513
537.292
546.298
555.624
565.259
575.165
585.307
595.654
606.206
616.911
627.714
638.584
649.501
660.441
671.349
682.191
692.933
703.537
713.975
724.237
734.328
744.25
754.006
763.598
773.021
782.263
791.31
800.144
808.755
817.146
825.313
833.265
841.009
848.557
855.911
863.078
870.064
876.884
883.547
890.061
896.431
902.656
908.737
914.67
920.454
926.083
931.555
936.862
941.998
946.954
951.718
956.278
960.622
964.736
968.612
972.24
975.609
978.709
981.529
984.06
986.295
988.228
989.856
991.179
992.196
992.91
993.319
993.431
993.252
992.787
992.041
991.021
989.737
988.2
986.421
984.412
982.181
979.736
977.089
974.249
971.226
968.03
964.669
961.154
957.492
953.692
949.761
945.707
941.537
937.257
932.872
928.387
923.808
919.141
914.388
909.558
904.657
899.69
894.662
889.577
884.437
879.244
874
868.708
863.371
857.994
852.581
847.139
841.676
836.198
830.712
825.226
819.749
814.291
808.865
803.486
798.174
792.946
787.853
782.876
777.238
11463.2
1887.54
746.269
472.244
371.387
325.295
301.693
288.54
280.842
276.74
275.274
275.894
279.111
285.01
293.522
304.37
317.242
332.187
348.809
366.56
384.917
403.379
421.511
438.89
455.832
472.534
487.179
497.69
503.176
505.401
505.97
504.907
502.298
498.902
495.176
491.371
487.543
483.698
479.799
475.87
471.985
468.298
464.997
462.275
460.336
459.413
459.294
460.239
462.235
465.17
469.012
473.736
479.3
485.628
492.575
500.143
508.409
517.344
526.892
536.994
547.603
558.724
570.256
582.153
594.378
606.887
619.633
632.592
645.7
658.85
671.971
684.997
697.87
710.565
723.044
735.263
747.186
758.793
770.083
781.068
791.78
802.255
812.519
822.578
832.425
842.031
851.372
860.43
869.218
877.746
886.013
894.041
901.848
909.436
916.82
924.007
931.019
937.864
944.56
951.11
957.517
963.78
969.895
975.86
981.666
987.313
992.785
998.081
1003.18
1008.08
1012.75
1017.19
1021.37
1025.29
1028.93
1032.28
1035.33
1038.07
1040.49
1042.57
1044.31
1045.71
1046.77
1047.49
1047.87
1047.91
1047.63
1047.02
1046.1
1044.86
1043.33
1041.5
1039.41
1037.05
1034.44
1031.6
1028.53
1025.24
1021.75
1018.07
1014.21
1010.18
1005.99
1001.65
997.167
992.551
987.812
982.956
977.992
972.925
967.761
962.506
957.164
951.738
946.24
940.678
935.057
929.379
923.648
917.865
912.033
906.153
900.227
894.255
888.246
882.206
876.143
870.064
863.974
857.882
851.793
845.714
839.654
833.626
827.644
821.727
815.888
810.17
804.584
798.178
11463.2
1888.18
742.926
474.282
378.987
336.725
315.976
305.04
299.42
297.129
296.873
299.249
303.963
310.827
319.559
329.826
341.387
353.983
367.277
380.9
394.493
407.906
421.296
434.718
446.634
455.636
462.053
466.43
469.052
470.225
470.576
470.23
469.127
467.651
465.953
464.11
462.147
460.099
458.018
456.012
454.245
453.01
452.433
452.391
453.185
454.873
457.368
460.587
464.414
469.157
474.865
481.528
489.12
497.6
506.968
517.189
528.194
539.943
552.358
565.374
578.94
593.021
607.528
622.406
637.633
653.166
668.864
684.616
700.323
715.932
731.366
746.537
761.368
775.793
789.746
803.186
816.078
828.419
840.215
851.504
862.378
872.974
883.348
893.523
903.487
913.195
922.567
931.571
940.266
948.645
956.733
964.548
972.113
979.444
986.555
993.467
1000.2
1006.78
1013.21
1019.52
1025.7
1031.75
1037.67
1043.46
1049.1
1054.59
1059.92
1065.08
1070.04
1074.79
1079.32
1083.59
1087.59
1091.31
1094.73
1097.85
1100.63
1103.07
1105.15
1106.88
1108.22
1109.2
1109.8
1110.02
1109.89
1109.38
1108.52
1107.31
1105.75
1103.85
1101.64
1099.12
1096.3
1093.21
1089.85
1086.25
1082.41
1078.35
1074.08
1069.61
1064.96
1060.13
1055.14
1050.01
1044.73
1039.32
1033.79
1028.14
1022.39
1016.55
1010.62
1004.6
998.502
992.326
986.091
979.802
973.462
967.072
960.635
954.152
947.625
941.055
934.445
927.79
921.103
914.395
907.672
900.939
894.202
887.468
880.74
874.026
867.33
860.669
854.055
847.507
841.037
834.676
828.48
821.343
11463.2
1837.24
731.238
477.916
388.82
349.698
330.584
320.557
315.604
313.744
313.706
316.443
321.192
327.601
335.259
343.819
353.087
362.844
372.864
383.02
393.453
403.75
412.814
420.288
426.482
431.72
435.973
439.297
441.891
443.928
445.587
446.939
448.093
449.069
449.842
450.467
450.994
451.499
452.055
452.747
453.608
454.537
455.991
458.246
461.591
466.134
471.72
478.358
486.105
494.894
504.733
515.611
527.495
540.311
554.011
568.532
583.823
599.902
616.547
633.656
651.143
668.948
686.994
705.209
723.49
741.751
759.975
778.094
796.02
813.664
830.923
847.673
863.79
879.141
893.66
907.328
920.156
932.145
943.329
953.706
963.527
973.201
982.756
992.182
1001.5
1010.6
1019.4
1027.86
1035.95
1043.67
1051.01
1058.01
1064.7
1071.12
1077.28
1083.22
1088.96
1094.56
1100.04
1105.41
1110.69
1115.89
1120.99
1126
1130.9
1135.69
1140.35
1144.86
1149.22
1153.38
1157.34
1161.04
1164.48
1167.63
1170.5
1173.04
1175.24
1177.06
1178.54
1179.63
1180.31
1180.59
1180.5
1179.97
1179.07
1177.78
1176.12
1174.08
1171.67
1168.91
1165.81
1162.39
1158.65
1154.63
1150.34
1145.79
1141
1135.98
1130.75
1125.33
1119.72
1113.93
1107.99
1101.9
1095.67
1089.32
1082.85
1076.28
1069.61
1062.86
1056.03
1049.12
1042.16
1035.17
1028.13
1021.05
1013.93
1006.77
999.563
992.321
985.042
977.728
970.383
963
955.597
948.185
940.767
933.347
925.929
918.52
911.123
903.743
896.383
889.058
881.788
874.588
867.471
860.456
853.649
845.816
11463.7
1818.68
731.297
485.982
399.099
361.077
342.672
332.607
327.383
325.298
325.061
327.295
331.271
336.525
342.665
349.418
356.69
364.347
372.231
379.877
387.198
394.062
400.715
406.996
412.912
418.533
423.856
428.902
433.686
438.174
442.335
446.086
449.239
452.079
454.824
457.573
460.407
463.434
466.757
470.511
474.84
480.022
486.197
493.605
502.537
513.006
524.67
537.537
551.593
566.744
582.951
600.213
618.516
637.545
657.119
677.064
697.217
717.381
737.564
757.716
777.803
797.792
817.663
837.395
856.956
876.329
895.491
914.409
933.019
951.248
968.992
986.121
1002.43
1017.8
1032.13
1045.49
1057.92
1069.4
1079.96
1089.72
1098.85
1107.51
1115.82
1124.03
1132.33
1140.37
1148.07
1155.33
1162.13
1168.39
1174.15
1179.47
1184.37
1188.92
1193.17
1197.17
1200.97
1204.63
1208.2
1211.72
1215.22
1218.69
1222.14
1225.57
1228.96
1232.31
1235.59
1238.79
1241.9
1244.87
1247.66
1250.25
1252.59
1254.66
1256.47
1257.99
1259.15
1259.92
1260.37
1260.44
1260.06
1259.27
1258.11
1256.54
1254.57
1252.22
1249.47
1246.34
1242.84
1238.98
1234.78
1230.24
1225.4
1220.26
1214.86
1209.2
1203.31
1197.19
1190.87
1184.35
1177.66
1170.81
1163.8
1156.65
1149.38
1141.99
1134.5
1126.91
1119.24
1111.49
1103.68
1095.81
1087.9
1079.98
1072.03
1064.05
1056.03
1047.99
1039.91
1031.8
1023.67
1015.51
1007.34
999.173
991.014
982.858
974.704
966.554
958.41
950.278
942.164
934.076
926.013
917.996
910.044
902.172
894.391
886.708
879.284
870.786
11462.8
1799.88
731.937
491.515
405.92
368.615
350.302
340.017
334.574
332.317
331.926
333.764
337.296
342.043
347.722
354.024
360.821
367.884
375.147
382.726
390.348
397.953
405.482
412.959
420.418
427.898
435.401
442.952
450.545
458.04
465.451
472.813
480.278
487.903
495.728
503.859
512.399
521.491
531.272
541.928
553.629
566.592
580.871
596.524
613.45
631.492
650.836
671.484
693.28
716.035
739.564
763.727
788.061
812.344
836.346
859.861
882.716
904.777
925.997
946.376
965.965
984.874
1003.19
1020.98
1038.35
1055.35
1072.08
1088.56
1104.79
1120.72
1136.31
1151.45
1166.06
1179.93
1193.08
1205.51
1217.22
1228.13
1238.16
1247.55
1256.34
1264.38
1272.06
1279.44
1286.26
1292.37
1297.74
1302.37
1306.41
1309.83
1312.67
1315.02
1316.94
1318.52
1319.84
1320.96
1321.96
1322.89
1323.84
1324.85
1325.92
1327.07
1328.3
1329.59
1330.93
1332.36
1333.76
1335.16
1336.57
1337.84
1339.02
1340.06
1340.84
1341.4
1341.8
1341.94
1341.69
1340.96
1340.02
1338.71
1337.04
1334.98
1332.55
1329.73
1326.54
1322.98
1319.06
1314.77
1310.14
1305.17
1299.88
1294.27
1288.38
1282.21
1275.79
1269.14
1262.27
1255.19
1247.92
1240.48
1232.88
1225.12
1217.23
1209.22
1201.08
1192.85
1184.52
1176.1
1167.61
1159.06
1150.44
1141.76
1133.03
1124.27
1115.48
1106.65
1097.79
1088.91
1079.99
1071.06
1062.1
1053.13
1044.14
1035.18
1026.24
1017.31
1008.38
999.456
990.548
981.659
972.797
963.972
955.207
946.512
937.892
929.364
920.934
912.603
904.575
895.48
11461.8
1788.02
733.802
494.126
409.181
373.61
355.614
345.933
341.159
339.565
339.925
342.712
347.12
352.688
359.223
366.853
375.581
384.513
393.98
404.348
415.594
427.517
439.707
452.471
465.817
479.722
494.128
508.977
524.153
539.696
555.619
571.933
588.682
605.815
623.319
641.262
659.738
678.895
698.932
720.152
742.626
766.411
791.478
817.721
844.977
873.168
902.565
933.165
964.214
995.222
1025.73
1055.05
1082.87
1109.03
1133.36
1155.73
1176.05
1194.35
1210.7
1225.25
1238.23
1250.09
1260.97
1271.09
1280.63
1289.8
1298.92
1308.09
1317.25
1326.52
1335.8
1345.11
1354.39
1363.67
1372.94
1382.03
1390.72
1398.83
1406.07
1412.79
1419.31
1425.69
1431.52
1436.45
1440.09
1442.61
1444.26
1444.84
1445.24
1444.9
1443.99
1442.64
1440.94
1439
1436.91
1434.76
1432.63
1430.56
1428.65
1426.92
1425.38
1424.02
1422.85
1421.85
1420.95
1420.4
1419.72
1419.16
1418.82
1418.18
1417.58
1417
1416.04
1414.96
1413.73
1412.25
1410.48
1408.41
1406.05
1403.38
1400.37