/*--------------------------------*- C++ -*----------------------------------*\
  =========                 |
  \\      /  F ield         | OpenFOAM: The Open Source CFD Toolbox
   \\    /   O peration     | Website:  https://openfoam.org
    \\  /    A nd           | Version:  13
     \\/     M anipulation  |
\*---------------------------------------------------------------------------*/
FoamFile
{
    format      ascii;
    class       volScalarField;
    location    "800";
    object      p;
}
// * * * * * * * * * * * * * * * * * * * * * * * * * * * * * * * * * * * * * //

dimensions      [0 2 -2 0 0 0 0];

internalField   nonuniform List<scalar> 
12225
(
-4.25008
-5.12639
-5.52239
-5.6619
-5.80887
-5.97699
-6.12626
-6.24518
-6.34613
-6.42982
-6.49159
-6.55669
-6.63171
-6.70595
-6.77546
-6.84124
-6.9108
-6.99841
-4.51941
-5.16172
-5.49536
-5.63123
-5.77584
-5.94271
-6.09353
-6.21218
-6.31106
-6.39591
-6.46909
-6.53921
-6.61249
-6.68416
-6.75026
-6.81375
-6.87591
-6.92029
-4.72463
-5.156
-5.47665
-5.64028
-5.78802
-5.9494
-6.09593
-6.21315
-6.30945
-6.39304
-6.47007
-6.54153
-6.61026
-6.67508
-6.73524
-6.79238
-6.84391
-6.87912
-4.85982
-5.17145
-5.47874
-5.65429
-5.79486
-5.94408
-6.08339
-6.19853
-6.29401
-6.37807
-6.45592
-6.52698
-6.5931
-6.65511
-6.7131
-6.76736
-6.8159
-6.85195
-4.9803
-5.21763
-5.49397
-5.66854
-5.80281
-5.94276
-6.07685
-6.19064
-6.28595
-6.37009
-6.44717
-6.51713
-6.58151
-6.64185
-6.69829
-6.75044
-6.7967
-6.83271
-5.09169
-5.27169
-5.51016
-5.67993
-5.81104
-5.9434
-6.07135
-6.18206
-6.27584
-6.35865
-6.434
-6.50259
-6.56577
-6.62483
-6.6798
-6.73003
-6.77419
-6.80963
-5.19117
-5.33182
-5.53267
-5.69463
-5.82219
-5.94686
-6.06764
-6.17434
-6.26611
-6.34741
-6.42138
-6.48909
-6.55157
-6.60958
-6.66309
-6.71155
-6.75405
-6.7891
-5.281
-5.39162
-5.56228
-5.71317
-5.83561
-5.9527
-6.06626
-6.16851
-6.25781
-6.33731
-6.40973
-6.47623
-6.53752
-6.59404
-6.64584
-6.69256
-6.73366
-6.76836
-5.3638
-5.44795
-5.59403
-5.73293
-5.84969
-5.95994
-6.06676
-6.16433
-6.25079
-6.32825
-6.39894
-6.46394
-6.52379
-6.5788
-6.62905
-6.6743
-6.7143
-6.74868
-5.439
-5.50349
-5.62652
-5.75269
-5.86316
-5.96706
-6.06754
-6.16049
-6.24397
-6.31927
-6.38816
-6.45156
-6.50991
-6.56346
-6.61225
-6.6562
-6.6952
-6.72914
-5.50669
-5.5571
-5.65977
-5.77278
-5.87608
-5.97367
-6.06809
-6.15647
-6.23688
-6.30997
-6.37702
-6.4388
-6.49563
-6.54773
-6.59515
-6.6379
-6.67603
-6.70948
-5.56272
-5.60364
-5.69054
-5.79178
-5.88801
-5.97976
-6.06879
-6.15297
-6.23043
-6.30135
-6.36661
-6.4268
-6.48221
-6.53298
-6.57922
-6.62097
-6.65836
-6.69141
-5.6131
-5.64696
-5.72063
-5.8109
-5.90008
-5.98613
-6.06998
-6.14998
-6.2244
-6.29304
-6.35641
-6.41495
-6.46888
-6.51835
-6.56344
-6.60426
-6.641
-6.67367
-5.66434
-5.69218
-5.75364
-5.83265
-5.91397
-5.99373
-6.07193
-6.14726
-6.21815
-6.28406
-6.34517
-6.40176
-6.45399
-6.50197
-6.54582
-6.58565
-6.62168
-6.65396
-5.71452
-5.73725
-5.78806
-5.85619
-5.92917
-6.00224
-6.07449
-6.1448
-6.21171
-6.2745
-6.33303
-6.38743
-6.43776
-6.48414
-6.52667
-6.56548
-6.60077
-6.63264
-5.76072
-5.77934
-5.8214
-5.87972
-5.9445
-6.01082
-6.07715
-6.14232
-6.20505
-6.26445
-6.32021
-6.37226
-6.42063
-6.46536
-6.50656
-6.54434
-6.57892
-6.61038
-5.79888
-5.8144
-5.84982
-5.90018
-5.95772
-6.01787
-6.07876
-6.13914
-6.19783
-6.25391
-6.30693
-6.35668
-6.40314
-6.4463
-6.48625
-6.52309
-6.55699
-6.58809
-5.82291
-5.83648
-5.86768
-5.91272
-5.9651
-6.02062
-6.07733
-6.13398
-6.18942
-6.24277
-6.29349
-6.34134
-6.3862
-6.42807
-6.46698
-6.50305
-6.53639
-6.56716
-5.82322
-5.83629
-5.86642
-5.90998
-5.96066
-6.01439
-6.06932
-6.1243
-6.17822
-6.23025
-6.27979
-6.32665
-6.37067
-6.41186
-6.45023
-6.48593
-6.51903
-6.54975
-5.79149
-5.80638
-5.8402
-5.88789
-5.9419
-5.99801
-6.0548
-6.11131
-6.16644
-6.21936
-6.26956
-6.31693
-6.36126
-6.40273
-6.44121
-6.47706
-6.5102
-6.54104
-5.74529
-5.76336
-5.80385
-5.85895
-5.91876
-5.97918
-6.03956
-6.09917
-6.1568
-6.21163
-6.26337
-6.31188
-6.35723
-6.39932
-6.43844
-6.47457
-6.50812
-6.53909
-5.68566
-5.7091
-5.76038
-5.82604
-5.89328
-5.95912
-6.02429
-6.08806
-6.14893
-6.20621
-6.25985
-6.30994
-6.35647
-6.39953
-6.43934
-6.47607
-6.51003
-6.54142
-5.61479
-5.64677
-5.71376
-5.79271
-5.86789
-5.93961
-6.0103
-6.0787
-6.143
-6.20285
-6.25848
-6.31014
-6.35781
-6.40187
-6.4423
-6.47967
-6.51396
-6.54569
-5.53359
-5.579
-5.66766
-5.76118
-5.84386
-5.92189
-5.99877
-6.07202
-6.13963
-6.20184
-6.25942
-6.31248
-6.3613
-6.406
-6.44716
-6.48499
-6.51973
-6.55175
-5.44205
-5.50887
-5.62537
-5.73274
-5.82098
-5.90535
-5.98909
-6.06723
-6.1379
-6.20241
-6.26172
-6.31619
-6.36583
-6.41126
-6.45285
-6.49101
-6.5261
-6.55797
-5.33975
-5.43796
-5.58895
-5.70843
-5.80037
-5.89072
-5.98088
-6.06348
-6.13708
-6.2037
-6.26498
-6.321
-6.37202
-6.41837
-6.46073
-6.49951
-6.53507
-6.56783
-5.22565
-5.36953
-5.55536
-5.6823
-5.77968
-5.87837
-5.97535
-6.06205
-6.13826
-6.20667
-6.26879
-6.32546
-6.37678
-6.42343
-6.46571
-6.50422
-6.53979
-6.57329
-5.09153
-5.32872
-5.53634
-5.65475
-5.75591
-5.86601
-5.97199
-6.06469
-6.14549
-6.21738
-6.28176
-6.33937
-6.39117
-6.43764
-6.4794
-6.51738
-6.55254
-6.58624
-4.9001
-5.3069
-5.54653
-5.64514
-5.74038
-5.85487
-5.96443
-6.05882
-6.14088
-6.21417
-6.27991
-6.33835
-6.39009
-6.43615
-6.47772
-6.51569
-6.55091
-6.58299
-4.64374
-5.2329
-5.53519
-5.64299
-5.74555
-5.86915
-5.98508
-6.08218
-6.16524
-6.23904
-6.30537
-6.36423
-6.41508
-6.45962
-6.49959
-6.53543
-6.56843
-6.59688
-7.4676
-7.46767
-7.46767
-7.46761
-7.46733
-7.46632
-7.46414
-7.46114
-7.45821
-7.45628
-7.45631
-7.45857
-7.46263
-7.46778
-7.4733
-7.47854
-7.48297
-7.48619
-7.48813
-7.48908
-7.48931
-7.48897
-7.48828
-7.48745
-7.48672
-7.48619
-7.48584
-7.48559
-7.48533
-7.48496
-7.48445
-7.48379
-7.48295
-7.48183
-7.48046
-7.47898
-7.47786
-7.47769
-7.47875
-7.48067
-7.48273
-7.48442
-7.48582
-7.48736
-7.48946
-7.4926
-7.49683
-7.50125
-7.50483
-7.50797
-7.51347
-7.52557
-7.5468
-7.57642
-7.61364
-7.6592
-7.713
-7.77401
-7.84079
-7.91163
-7.98438
-8.05675
-8.12729
-8.19516
-8.25944
-8.31934
-8.37448
-8.42478
-8.47014
-8.51057
-8.54611
-8.57674
-8.60253
-8.62339
-8.63942
-8.65048
-8.6567
-8.65797
-8.65443
-8.64596
-8.63276
-8.61477
-8.59225
-8.56515
-8.53378
-8.49814
-8.45844
-8.41461
-8.36675
-8.31486
-8.25906
-8.19937
-8.1358
-8.06819
-7.99646
-7.92047
-7.84026
-7.75579
-7.66718
-7.57435
-7.47724
-7.37561
-7.26914
-7.15742
-7.04013
-6.91712
-6.7881
-6.65294
-6.51139
-6.36339
-6.20876
-6.04752
-5.87957
-5.70497
-5.52373
-5.336
-5.14195
-4.94186
-4.73595
-4.52443
-4.30745
-4.08524
-3.85818
-3.62659
-3.39094
-3.15154
-2.90884
-2.66313
-2.41487
-2.16433
-1.91196
-1.65803
-1.40296
-1.147
-0.890544
-0.633844
-0.377271
-0.120951
0.135101
0.390848
0.646007
0.900389
1.15379
1.40608
1.65713
1.90683
2.15511
2.4019
2.64715
2.89081
3.13285
3.37323
3.61192
3.84887
4.08405
4.31742
4.54893
4.77855
5.00626
5.23199
5.45573
5.67741
5.89699
6.11438
6.32952
6.54229
6.7526
6.96031
7.16531
7.36745
7.5666
7.7626
7.9553
8.14451
8.33011
8.51192
8.68995
8.86401
9.03713
9.19993
-7.46863
-7.46876
-7.46906
-7.4694
-7.4694
-7.46871
-7.46702
-7.46479
-7.46316
-7.46303
-7.46474
-7.46816
-7.47284
-7.47818
-7.48358
-7.48856
-7.49275
-7.49596
-7.498
-7.49869
-7.4981
-7.49652
-7.49433
-7.49196
-7.48978
-7.48804
-7.48678
-7.48588
-7.48515
-7.48446
-7.48382
-7.48319
-7.48251
-7.48167
-7.48061
-7.47959
-7.47916
-7.47983
-7.48158
-7.48377
-7.48554
-7.48634
-7.48644
-7.48629
-7.48578
-7.48546
-7.48709
-7.49288
-7.50075
-7.50757
-7.51579
-7.52846
-7.54649
-7.57232
-7.60914
-7.65759
-7.71601
-7.78208
-7.85329
-7.92693
-8.00057
-8.07301
-8.14319
-8.20983
-8.27184
-8.32917
-8.38191
-8.42996
-8.47338
-8.51216
-8.54634
-8.57588
-8.60079
-8.62101
-8.63652
-8.64724
-8.65319
-8.65431
-8.65063
-8.64211
-8.62884
-8.61083
-8.58824
-8.5611
-8.52966
-8.49398
-8.45424
-8.41046
-8.36268
-8.31104
-8.25553
-8.1963
-8.13329
-8.0664
-7.99549
-7.92047
-7.84126
-7.75777
-7.66992
-7.5776
-7.48079
-7.37938
-7.27326
-7.1622
-7.04592
-6.92399
-6.79616
-6.66218
-6.52189
-6.37512
-6.22177
-6.06177
-5.89508
-5.72169
-5.54166
-5.35509
-5.16215
-4.96313
-4.75822
-4.54763
-4.33152
-4.11016
-3.88386
-3.65302
-3.41801
-3.17923
-2.93704
-2.69182
-2.44395
-2.19379
-1.94171
-1.68803
-1.43311
-1.17724
-0.920737
-0.663846
-0.406827
-0.149926
0.10651
0.362364
0.61758
0.87202
1.12549
1.37786
1.62898
1.87877
2.12714
2.37403
2.61937
2.86314
3.10527
3.34576
3.58455
3.82162
4.05692
4.29041
4.52205
4.75181
4.97965
5.20552
5.4294
5.65122
5.87094
6.08849
6.30379
6.51674
6.72724
6.93515
7.14038
7.34277
7.5422
7.73851
7.93156
8.12122
8.3074
8.48994
8.66901
8.84385
9.01944
9.18171
-7.46979
-7.46977
-7.46978
-7.46984
-7.46991
-7.46995
-7.47016
-7.47103
-7.47302
-7.47627
-7.48061
-7.48571
-7.49117
-7.49659
-7.50159
-7.50591
-7.50931
-7.51171
-7.51302
-7.51319
-7.51222
-7.51023
-7.50738
-7.50386
-7.49988
-7.49571
-7.49162
-7.48785
-7.48461
-7.482
-7.47997
-7.47834
-7.47686
-7.4755
-7.47463
-7.47477
-7.47638
-7.47937
-7.48282
-7.48536
-7.48573
-7.48385
-7.48131
-7.48012
-7.48083
-7.48238
-7.48561
-7.49336
-7.50568
-7.52192
-7.543
-7.56956
-7.60193
-7.64077
-7.68663
-7.73896
-7.7965
-7.85791
-7.92164
-7.98627
-8.05046
-8.1134
-8.17442
-8.23291
-8.28825
-8.34015
-8.38844
-8.43293
-8.47354
-8.51013
-8.54261
-8.57089
-8.59486
-8.6144
-8.62943
-8.63985
-8.64561
-8.64664
-8.64291
-8.63441
-8.62117
-8.60322
-8.58064
-8.55352
-8.52203
-8.48631
-8.44651
-8.40267
-8.35493
-8.30333
-8.248
-8.18904
-8.12636
-8.05996
-7.98963
-7.91538
-7.83702
-7.75455
-7.66777
-7.57666
-7.48108
-7.38094
-7.27612
-7.16636
-7.0514
-6.93086
-6.80449
-6.672
-6.53325
-6.38803
-6.23626
-6.07781
-5.91267
-5.74081
-5.56227
-5.37714
-5.18563
-4.98793
-4.78428
-4.57487
-4.35986
-4.13955
-3.91425
-3.68436
-3.45021
-3.21223
-2.97076
-2.72622
-2.47893
-2.22932
-1.9777
-1.72447
-1.46992
-1.21441
-0.958204
-0.701619
-0.444892
-0.188284
0.0679653
0.323695
0.578819
0.833155
1.08655
1.33883
1.58989
1.83961
2.08793
2.33477
2.58007
2.82378
3.06588
3.30633
3.5451
3.78214
4.01743
4.2509
4.48254
4.7123
4.94014
5.16601
5.38989
5.61171
5.83143
6.04898
6.26428
6.47723
6.68774
6.89567
7.10092
7.30333
7.5028
7.69917
7.89232
8.08207
8.26836
8.45108
8.63066
8.80578
8.98406
9.14208
-7.47084
-7.47058
-7.47023
-7.4702
-7.47121
-7.47369
-7.47753
-7.48239
-7.48791
-7.49378
-7.49972
-7.50551
-7.51092
-7.51578
-7.51993
-7.52323
-7.52558
-7.52693
-7.52723
-7.52649
-7.52469
-7.5219
-7.5182
-7.51367
-7.50839
-7.50247
-7.49611
-7.48955
-7.48312
-7.47718
-7.47198
-7.46769
-7.46451
-7.46282
-7.46325
-7.46604
-7.47044
-7.47491
-7.47795
-7.47896
-7.47824
-7.47694
-7.47678
-7.47878
-7.48339
-7.49115
-7.50278
-7.51915
-7.54061
-7.56703
-7.59804
-7.63321
-7.67233
-7.71522
-7.76167
-7.81133
-7.86376
-7.91841
-7.97453
-8.03135
-8.08807
-8.14403
-8.19864
-8.25142
-8.30192
-8.34979
-8.39476
-8.43659
-8.47506
-8.50999
-8.54121
-8.56852
-8.59179
-8.61084
-8.62553
-8.63573
-8.64135
-8.6423
-8.63852
-8.63
-8.61673
-8.59876
-8.57615
-8.54898
-8.51741
-8.48158
-8.44164
-8.39772
-8.34991
-8.29837
-8.24317
-8.18438
-8.12205
-8.05604
-7.98631
-7.91271
-7.83518
-7.75361
-7.66789
-7.57794
-7.48365
-7.38491
-7.2815
-7.17318
-7.05963
-6.94056
-6.81566
-6.68471
-6.5475
-6.40384
-6.25361
-6.0967
-5.93306
-5.76265
-5.58553
-5.40177
-5.21157
-5.01511
-4.8126
-4.60423
-4.3902
-4.17081
-3.94638
-3.71729
-3.48389
-3.24659
-3.00573
-2.76173
-2.51495
-2.26579
-2.01458
-1.76171
-1.50748
-1.25225
-0.996295
-0.739937
-0.483424
-0.227026
0.0290729
0.284703
0.539742
0.79399
1.0473
1.29949
1.55047
1.80011
2.04836
2.29511
2.54034
2.78398
3.02601
3.26639
3.50509
3.74207
3.9773
4.21073
4.44233
4.67204
4.89984
5.12568
5.34952
5.57131
5.791
6.00851
6.22378
6.43671
6.64719
6.8551
7.06032
7.26271
7.46216
7.65853
7.85168
8.0415
8.22791
8.41078
8.59065
8.76561
8.94464
9.0964
-7.47298
-7.47245
-7.47206
-7.47326
-7.47711
-7.48306
-7.49009
-7.49745
-7.50469
-7.51151
-7.51776
-7.52337
-7.52829
-7.53245
-7.53579
-7.53823
-7.53969
-7.54014
-7.53956
-7.53792
-7.53523
-7.53152
-7.52683
-7.52121
-7.51472
-7.50742
-7.49939
-7.49082
-7.48198
-7.47332
-7.46539
-7.45891
-7.45469
-7.45357
-7.45565
-7.4595
-7.46349
-7.46685
-7.4693
-7.47107
-7.47285
-7.47572
-7.48074
-7.48879
-7.50085
-7.51751
-7.53864
-7.5636
-7.59204
-7.6237
-7.65821
-7.69539
-7.73515
-7.77744
-7.82211
-7.86894
-7.91761
-7.96773
-8.01881
-8.07033
-8.12179
-8.1727
-8.22262
-8.27113
-8.31788
-8.36253
-8.40478
-8.44437
-8.48103
-8.51452
-8.5446
-8.57105
-8.59364
-8.61218
-8.62646
-8.63634
-8.64167
-8.64236
-8.63832
-8.62954
-8.616
-8.59774
-8.57481
-8.54733
-8.5154
-8.47923
-8.43895
-8.39472
-8.34672
-8.29497
-8.23977
-8.18104
-8.11893
-8.05323
-7.984
-7.91099
-7.83425
-7.75356
-7.66892
-7.58018
-7.48723
-7.38993
-7.28794
-7.18108
-7.06893
-6.95131
-6.82783
-6.69834
-6.56254
-6.42031
-6.27144
-6.11589
-5.95351
-5.78434
-5.60836
-5.42572
-5.23653
-5.04102
-4.83934
-4.6317
-4.41835
-4.19956
-3.97572
-3.74712
-3.5142
-3.27727
-3.0368
-2.79309
-2.54662
-2.29769
-2.04673
-1.79404
-1.54002
-1.28492
-1.02913
-0.772892
-0.516518
-0.260207
-0.00419838
0.251381
0.506333
0.760506
1.0137
1.26579
1.51665
1.76618
2.01429
2.26093
2.50603
2.74955
2.99146
3.23172
3.47031
3.70719
3.94232
4.17566
4.40716
4.6368
4.86453
5.09031
5.31409
5.53584
5.7555
5.97299
6.18824
6.40115
6.61161
6.81952
7.02475
7.22717
7.42666
7.62307
7.81629
8.00619
8.19269
8.37561
8.55545
8.72977
8.90843
9.05335
-7.47698
-7.47612
-7.47651
-7.48055
-7.48757
-7.49574
-7.50406
-7.51203
-7.5194
-7.52606
-7.53202
-7.53725
-7.54172
-7.54537
-7.54813
-7.54994
-7.55076
-7.55055
-7.54929
-7.54698
-7.54362
-7.53923
-7.53383
-7.52741
-7.51998
-7.51161
-7.50244
-7.49265
-7.48251
-7.47263
-7.46379
-7.45697
-7.45316
-7.45238
-7.45345
-7.45517
-7.45732
-7.4602
-7.46412
-7.4693
-7.47581
-7.48446
-7.49638
-7.51222
-7.53202
-7.55537
-7.58187
-7.61115
-7.64283
-7.67674
-7.71265
-7.75046
-7.79007
-7.83141
-7.87434
-7.91871
-7.96428
-8.0108
-8.05796
-8.10541
-8.15282
-8.19986
-8.24617
-8.29142
-8.33528
-8.37745
-8.41762
-8.45548
-8.49075
-8.52313
-8.55235
-8.57811
-8.60016
-8.61825
-8.63215
-8.64165
-8.64661
-8.64689
-8.64241
-8.63313
-8.61905
-8.60021
-8.57668
-8.54856
-8.516
-8.47918
-8.4383
-8.39356
-8.34501
-8.29305
-8.23755
-8.1788
-8.11673
-8.05133
-7.98246
-7.91007
-7.83403
-7.75426
-7.67069
-7.58319
-7.49162
-7.39571
-7.2952
-7.18973
-7.07902
-6.96277
-6.84071
-6.71256
-6.57809
-6.43713
-6.28948
-6.13504
-5.97372
-5.80551
-5.63041
-5.44858
-5.26012
-5.06521
-4.86404
-4.65681
-4.44379
-4.2253
-4.00168
-3.77328
-3.54049
-3.30369
-3.06328
-2.81964
-2.5732
-2.32431
-2.07337
-1.82071
-1.5667
-1.31164
-1.05588
-0.799686
-0.543351
-0.287078
-0.0310957
0.224441
0.479324
0.733399
0.986468
1.23842
1.48911
1.73848
1.98641
2.23286
2.47777
2.7211
2.96281
3.20289
3.44129
3.678
3.91297
4.14615
4.3775
4.607
4.8346
5.06027
5.28396
5.50562
5.72521
5.94264
6.15785
6.37073
6.58118
6.78908
6.99433
7.19677
7.39629
7.59274
7.78601
7.97594
8.16244
8.34524
8.52484
8.69825
8.87635
9.01458
-7.48204
-7.48153
-7.48388
-7.49061
-7.49909
-7.50759
-7.51569
-7.52325
-7.53021
-7.53655
-7.54221
-7.54715
-7.55129
-7.55458
-7.55694
-7.55833
-7.55872
-7.55807
-7.55638
-7.55364
-7.54986
-7.54505
-7.53916
-7.53213
-7.52403
-7.51506
-7.50539
-7.4953
-7.48517
-7.47566
-7.46772
-7.4621
-7.45856
-7.45623
-7.4549
-7.45495
-7.45697
-7.46124
-7.4676
-7.47632
-7.48804
-7.50308
-7.52137
-7.54276
-7.56708
-7.59401
-7.6232
-7.65447
-7.6876
-7.72245
-7.75882
-7.7966
-7.83567
-7.87593
-7.9173
-7.95964
-8.00282
-8.04667
-8.09097
-8.13553
-8.18009
-8.22439
-8.26817
-8.31115
-8.35302
-8.39348
-8.43224
-8.46897
-8.50335
-8.53504
-8.56373
-8.58909
-8.61081
-8.62858
-8.64216
-8.65131
-8.65583
-8.65559
-8.65051
-8.64053
-8.62566
-8.60597
-8.58152
-8.55245
-8.51893
-8.48117
-8.43941
-8.39381
-8.34467
-8.29207
-8.23622
-8.17729
-8.11516
-8.04995
-7.98139
-7.90957
-7.83421
-7.7554
-7.67292
-7.5867
-7.49651
-7.40201
-7.30296
-7.1989
-7.08965
-6.97476
-6.85408
-6.7272
-6.594
-6.45415
-6.30758
-6.15408
-5.99362
-5.82612
-5.65169
-5.47037
-5.28235
-5.08775
-4.88676
-4.67965
-4.46665
-4.24817
-4.02446
-3.79598
-3.56302
-3.32608
-3.08547
-2.84169
-2.59505
-2.34602
-2.0949
-1.84214
-1.58799
-1.33287
-1.07703
-0.820826
-0.564452
-0.308185
-0.0521914
0.203292
0.458116
0.712055
0.964989
1.21674
1.46725
1.71637
1.96407
2.21026
2.45492
2.69798
2.93944
3.17926
3.41743
3.6539
3.88864
4.12159
4.35274
4.58204
4.80946
5.03496
5.2585
5.48004
5.69952
5.91687
6.13202
6.34485
6.55527
6.76315
6.96839
7.17084
7.37037
7.56686
7.76014
7.95006
8.1365
8.3191
8.49832
8.67077
8.84836
8.98031
-7.48606
-7.48667
-7.49149
-7.49939
-7.50764
-7.51553
-7.52303
-7.53014
-7.53677
-7.54286
-7.5483
-7.55303
-7.55696
-7.56003
-7.56217
-7.56334
-7.5635
-7.56263
-7.56072
-7.55778
-7.5538
-7.54871
-7.54245
-7.53513
-7.52699
-7.51816
-7.50883
-7.49935
-7.49031
-7.48241
-7.47603
-7.4707
-7.46586
-7.4619
-7.45992
-7.46032
-7.46325
-7.46931
-7.47884
-7.49172
-7.50777
-7.52679
-7.54859
-7.57292
-7.59956
-7.62827
-7.65882
-7.69105
-7.72477
-7.75985
-7.79612
-7.8335
-7.87187
-7.91116
-7.95127
-7.99212
-8.0336
-8.07562
-8.11802
-8.16066
-8.20335
-8.2459
-8.28808
-8.32964
-8.37032
-8.40983
-8.44784
-8.48402
-8.51803
-8.54949
-8.57804
-8.6033
-8.62492
-8.64257
-8.65594
-8.66476
-8.66883
-8.66799
-8.66216
-8.65128
-8.6354
-8.61457
-8.5889
-8.55857
-8.52377
-8.48475
-8.44179
-8.39514
-8.34503
-8.29175
-8.23536
-8.176
-8.11379
-8.04859
-7.98038
-7.90902
-7.83444
-7.75655
-7.67524
-7.59033
-7.50152
-7.40849
-7.31086
-7.20828
-7.10043
-6.98698
-6.86761
-6.74201
-6.60995
-6.47117
-6.32552
-6.17283
-6.01304
-5.84609
-5.67208
-5.49108
-5.30323
-5.10868
-4.90764
-4.70036
-4.48716
-4.26838
-4.04436
-3.8155
-3.58218
-3.34484
-3.10385
-2.85968
-2.61269
-2.36332
-2.11191
-1.85888
-1.60451
-1.34921
-1.09324
-0.836917
-0.580466
-0.324144
-0.0681385
0.187315
0.442048
0.695854
0.948607
1.20015
1.45041
1.69926
1.94667
2.19256
2.4369
2.67964
2.92078
3.16029
3.39816
3.63434
3.86879
4.10146
4.33232
4.56136
4.78854
5.01382
5.23717
5.45855
5.67789
5.89514
6.1102
6.32296
6.53332
6.74117
6.94638
7.14884
7.34838
7.54488
7.73817
7.92806
8.11439
8.29674
8.47556
8.64706
8.82425
8.95051
-7.48728
-7.4894
-7.49584
-7.50359
-7.51115
-7.51847
-7.52558
-7.53241
-7.53884
-7.54479
-7.55014
-7.55479
-7.55866
-7.56167
-7.56377
-7.5649
-7.56504
-7.56417
-7.56226
-7.55931
-7.55528
-7.55011
-7.54387
-7.53681
-7.52909
-7.52088
-7.51254
-7.50446
-7.49703
-7.49034
-7.48415
-7.47831
-7.47309
-7.46934
-7.46803
-7.46969
-7.47466
-7.48319
-7.49519
-7.51041
-7.52864
-7.54961
-7.57308
-7.5988
-7.62654
-7.65608
-7.68724
-7.71983
-7.7537
-7.78871
-7.82473
-7.86168
-7.89946
-7.93799
-7.97719
-8.01702
-8.05738
-8.09823
-8.13944
-8.18092
-8.22253
-8.26411
-8.30547
-8.34638
-8.38659
-8.42581
-8.4637
-8.49992
-8.53408
-8.56577
-8.59457
-8.62007
-8.64187
-8.65957
-8.67285
-8.68141
-8.68501
-8.68348
-8.67674
-8.66478
-8.64763
-8.62539
-8.59821
-8.56629
-8.52987
-8.48928
-8.44484
-8.39683
-8.34568
-8.29136
-8.23432
-8.17442
-8.112
-8.04678
-7.97887
-7.90797
-7.83418
-7.75727
-7.67716
-7.5936
-7.50619
-7.41466
-7.31846
-7.21742
-7.11098
-6.99898
-6.8809
-6.75657
-6.62558
-6.48781
-6.34295
-6.19097
-6.03168
-5.86515
-5.69136
-5.51048
-5.32259
-5.12787
-4.92656
-4.71889
-4.50527
-4.28596
-4.06143
-3.83196
-3.5981
-3.36014
-3.11864
-2.87389
-2.62644
-2.37658
-2.12481
-1.87138
-1.61675
-1.36117
-1.10503
-0.848528
-0.591979
-0.335568
-0.079565
0.175859
0.430463
0.68412
0.936641
1.18795
1.4379
1.68645
1.9335
2.17905
2.42301
2.66539
2.90614
3.1453
3.38281
3.61866
3.85276
4.0851
4.31565
4.54438
4.77128
4.99631
5.21944
5.44062
5.65982
5.87695
6.09191
6.30459
6.51489
6.7227
6.92789
7.13033
7.32989
7.52639
7.71968
7.90953
8.09574
8.27782
8.45622
8.62682
8.80369
8.92491
-7.48433
-7.48779
-7.49456
-7.50178
-7.50894
-7.51601
-7.52296
-7.5297
-7.53612
-7.5421
-7.54753
-7.55229
-7.55629
-7.55945
-7.56171
-7.563
-7.56329
-7.56256
-7.56077
-7.55793
-7.55401
-7.54904
-7.54317
-7.53664
-7.52967
-7.52251
-7.51543
-7.5085
-7.50174
-7.49522
-7.48907
-7.48356
-7.47927
-7.47695
-7.47725
-7.48056
-7.48711
-7.49705
-7.5103
-7.52667
-7.54593
-7.56782
-7.59206
-7.61841
-7.64664
-7.67654
-7.70793
-7.74063
-7.77449
-7.80939
-7.8452
-7.88182
-7.91916
-7.95717
-7.99579
-8.03499
-8.0747
-8.11489
-8.15549
-8.19643
-8.23759
-8.27886
-8.32005
-8.36096
-8.40133
-8.44087
-8.47924
-8.51604
-8.55085
-8.58321
-8.61266
-8.63871
-8.66092
-8.67887
-8.69216
-8.70047
-8.70355
-8.70124
-8.69345
-8.68019
-8.66153
-8.6376
-8.6086
-8.57479
-8.53646
-8.49399
-8.4478
-8.39827
-8.34562
-8.29038
-8.23233
-8.17192
-8.10911
-8.04394
-7.97622
-7.9059
-7.83288
-7.75703
-7.67817
-7.59596
-7.51004
-7.41996
-7.32534
-7.22577
-7.12088
-7.01026
-6.89353
-6.77037
-6.64046
-6.50358
-6.35949
-6.20806
-6.0492
-5.88292
-5.70924
-5.5283
-5.3402
-5.14513
-4.94335
-4.73515
-4.52089
-4.30091
-4.07565
-3.84547
-3.61086
-3.3722
-3.13
-2.88462
-2.63656
-2.38617
-2.1339
-1.88006
-1.62506
-1.3692
-1.1128
-0.856114
-0.599419
-0.342935
-0.0869209
0.16843
0.422903
0.67636
0.92864
1.17965
1.42928
1.67747
1.92414
2.16927
2.41281
2.65476
2.89509
3.13384
3.37097
3.60641
3.84013
4.07208
4.30225
4.53063
4.75721
4.98195
5.20482
5.42579
5.64482
5.86182
6.07667
6.28925
6.49948
6.70723
6.9124
7.11483
7.31439
7.51091
7.7042
7.89399
8.08007
8.26187
8.43986
8.60961
8.7862
8.90309
-7.47552
-7.4797
-7.48627
-7.49336
-7.50058
-7.50776
-7.51483
-7.52172
-7.52833
-7.53454
-7.54023
-7.54527
-7.54955
-7.55298
-7.55549
-7.55703
-7.55755
-7.55704
-7.55549
-7.55291
-7.54933
-7.54488
-7.5397
-7.534
-7.5279
-7.52151
-7.51495
-7.50835
-7.50181
-7.49554
-7.48992
-7.48538
-7.48239
-7.48144
-7.48305
-7.48759
-7.49527
-7.50618
-7.52026
-7.53735
-7.55722
-7.57961
-7.60426
-7.63094
-7.65943
-7.68954
-7.72106
-7.75383
-7.78771
-7.82254
-7.85821
-7.89463
-7.93172
-7.96945
-8.00776
-8.04664
-8.08606
-8.126
-8.16643
-8.20732
-8.24856
-8.29005
-8.33161
-8.37306
-8.41413
-8.45451
-8.49384
-8.53168
-8.56759
-8.60105
-8.63151
-8.65844
-8.68133
-8.69966
-8.71304
-8.72112
-8.72362
-8.72039
-8.71134
-8.69654
-8.67608
-8.65018
-8.61906
-8.58303
-8.54248
-8.49787
-8.44968
-8.39829
-8.34426
-8.28764
-8.22868
-8.16764
-8.10446
-8.03929
-7.97181
-7.90211
-7.82993
-7.7552
-7.67765
-7.59683
-7.51244
-7.42386
-7.33087
-7.23283
-7.12951
-7.02027
-6.90491
-6.78288
-6.65403
-6.51795
-6.37457
-6.22361
-6.06509
-5.89893
-5.72526
-5.54411
-5.35567
-5.16012
-4.95772
-4.74886
-4.53382
-4.31308
-4.08694
-3.85598
-3.6205
-3.38109
-3.13808
-2.89205
-2.6433
-2.39237
-2.13953
-1.88528
-1.62986
-1.3737
-1.11702
-0.860152
-0.603305
-0.346779
-0.0907696
0.164462
0.41878
0.671984
0.923992
1.17466
1.42393
1.6717
1.91795
2.16261
2.40569
2.64715
2.88701
3.12531
3.36202
3.59703
3.8303
4.06182
4.29159
4.51959
4.74581
4.97024
5.19284
5.4136
5.63247
5.84935
6.06407
6.27655
6.4867
6.69441
6.89954
7.10197
7.30154
7.49808
7.69137
7.88112
8.06705
8.24859
8.42617
8.59515
8.77145
8.88471
-7.4594
-7.46367
-7.47034
-7.47802
-7.48583
-7.49342
-7.50079
-7.50797
-7.51492
-7.52153
-7.52764
-7.5331
-7.53775
-7.54153
-7.54438
-7.54625
-7.54713
-7.547
-7.54587
-7.54378
-7.54077
-7.53696
-7.53242
-7.52728
-7.52165
-7.51563
-7.50934
-7.50294
-7.4967
-7.49094
-7.48601
-7.48229
-7.48024
-7.48035
-7.48303
-7.48859
-7.49722
-7.50896
-7.52374
-7.5414
-7.56174
-7.58451
-7.60949
-7.63645
-7.6652
-7.69551
-7.72722
-7.76013
-7.79407
-7.82893
-7.86457
-7.90093
-7.93794
-7.97558
-8.0138
-8.0526
-8.09197
-8.13195
-8.17251
-8.21365
-8.25531
-8.29739
-8.33975
-8.38219
-8.42443
-8.46614
-8.50691
-8.54627
-8.58372
-8.61866
-8.65049
-8.67855
-8.70226
-8.72108
-8.73454
-8.74228
-8.74403
-8.73961
-8.72901
-8.71233
-8.68977
-8.66158
-8.62805
-8.58953
-8.5465
-8.49952
-8.44911
-8.39586
-8.34015
-8.28236
-8.22246
-8.16066
-8.09723
-8.032
-7.96492
-7.89584
-7.82463
-7.75109
-7.67485
-7.59553
-7.51263
-7.42572
-7.33431
-7.23795
-7.13613
-7.0284
-6.91431
-6.79348
-6.66559
-6.53035
-6.38757
-6.23707
-6.07879
-5.91272
-5.73893
-5.55751
-5.36862
-5.1725
-4.96945
-4.75982
-4.54398
-4.32237
-4.09538
-3.86352
-3.6272
-3.38696
-3.14319
-2.89642
-2.64701
-2.39547
-2.14212
-1.88738
-1.63156
-1.37504
-1.1181
-0.861021
-0.604063
-0.347502
-0.0915594
0.163539
0.417638
0.670574
0.922246
1.17253
1.42138
1.66869
1.91446
2.15862
2.40118
2.64211
2.88146
3.1193
3.35557
3.59011
3.82289
4.05393
4.28324
4.51083
4.73668
4.96077
5.18309
5.40361
5.62232
5.83908
6.05367
6.26603
6.4761
6.68375
6.88886
7.0913
7.29088
7.48745
7.68076
7.87046
8.05625
8.23752
8.41473
8.583
8.75901
8.86933
-7.43549
-7.43955
-7.447
-7.45593
-7.46466
-7.47278
-7.48054
-7.48815
-7.49566
-7.50293
-7.5097
-7.51574
-7.52089
-7.52512
-7.5284
-7.53072
-7.53208
-7.53247
-7.53187
-7.53034
-7.5279
-7.52462
-7.52056
-7.51581
-7.51047
-7.50465
-7.49854
-7.4924
-7.48649
-7.48112
-7.47666
-7.47358
-7.47231
-7.47331
-7.47691
-7.48337
-7.49283
-7.50531
-7.52071
-7.5389
-7.55968
-7.58284
-7.60818
-7.63548
-7.66455
-7.69518
-7.72718
-7.76034
-7.79449
-7.82948
-7.8652
-7.90158
-7.93857
-7.97615
-8.01432
-8.05312
-8.09258
-8.13275
-8.17365
-8.2153
-8.25766
-8.30068
-8.3442
-8.38803
-8.43185
-8.47531
-8.51795
-8.55924
-8.59856
-8.63525
-8.66857
-8.69781
-8.72228
-8.7414
-8.75472
-8.76187
-8.76255
-8.7566
-8.74406
-8.72518
-8.70026
-8.6696
-8.63348
-8.59235
-8.54677
-8.49735
-8.4448
-8.38963
-8.33253
-8.27339
-8.21257
-8.15007
-8.08632
-8.02109
-7.95445
-7.88609
-7.81592
-7.74362
-7.66875
-7.59097
-7.50963
-7.42445
-7.33469
-7.24007
-7.1398
-7.03362
-6.92082
-6.80121
-6.67426
-6.53987
-6.39767
-6.24763
-6.08957
-5.92356
-5.74961
-5.56787
-5.37853
-5.18182
-4.97811
-4.76769
-4.55106
-4.32855
-4.10074
-3.86795
-3.63084
-3.38972
-3.14523
-2.89768
-2.64767
-2.3955
-2.14169
-1.88649
-1.63032
-1.37345
-1.11629
-0.859055
-0.602066
-0.345542
-0.0897555
0.165137
0.418929
0.671528
0.922777
1.17262
1.42096
1.66776
1.91296
2.15656
2.39854
2.6389
2.8777
3.11512
3.35101
3.58507
3.81731
4.04784
4.27668
4.50384
4.72932
4.95308
5.17511
5.39542
5.61402
5.83072
6.0452
6.25743
6.46741
6.67502
6.88012
7.08256
7.28218
7.4788
7.67214
7.8618
8.04745
8.22846
8.40532
8.57295
8.7486
8.85665
-7.40459
-7.40887
-7.4177
-7.42829
-7.43805
-7.4468
-7.45523
-7.46354
-7.4717
-7.47972
-7.4874
-7.49433
-7.50016
-7.50485
-7.50858
-7.51143
-7.51335
-7.51431
-7.51429
-7.5133
-7.51136
-7.50851
-7.50477
-7.50025
-7.49506
-7.48938
-7.48338
-7.47734
-7.47156
-7.46643
-7.46237
-7.45982
-7.45921
-7.46094
-7.46529
-7.47248
-7.48261
-7.49569
-7.51163
-7.53031
-7.55158
-7.57522
-7.60103
-7.62878
-7.65829
-7.68931
-7.72166
-7.7551
-7.78945
-7.82458
-7.86038
-7.89677
-7.93372
-7.97124
-8.00936
-8.04818
-8.08776
-8.12822
-8.1696
-8.21195
-8.25525
-8.29944
-8.34437
-8.38981
-8.43544
-8.48081
-8.52543
-8.56867
-8.60987
-8.64821
-8.68292
-8.7131
-8.73803
-8.75707
-8.76986
-8.77603
-8.77533
-8.76751
-8.75279
-8.73155
-8.70435
-8.67135
-8.6329
-8.58938
-8.54146
-8.48987
-8.43531
-8.37835
-8.31964
-8.25932
-8.19731
-8.13407
-8.0698
-8.0046
-7.9383
-7.87071
-7.80158
-7.7305
-7.65707
-7.58076
-7.50114
-7.41763
-7.32971
-7.23677
-7.13823
-7.03353
-6.92216
-6.80371
-6.67782
-6.54423
-6.40269
-6.25308
-6.09531
-5.92938
-5.75533
-5.5733
-5.38349
-5.1862
-4.98176
-4.77056
-4.55306
-4.32967
-4.10092
-3.86725
-3.62921
-3.38726
-3.14194
-2.89367
-2.64299
-2.39028
-2.13602
-1.88054
-1.62418
-1.3672
-1.10994
-0.852716
-0.595824
-0.339511
-0.0840141
0.170494
0.423846
0.675927
0.926614
1.17584
1.42351
1.66961
1.91409
2.15695
2.39817
2.63776
2.87582
3.11262
3.34801
3.5815
3.81313
4.04309
4.27143
4.49814
4.72322
4.94663
5.16837
5.38844
5.60698
5.82372
6.03816
6.25028
6.46019
6.66777
6.87288
7.07535
7.27503
7.47173
7.66517
7.85482
8.04034
8.22111
8.39764
8.56467
8.73991
8.84636
-7.36922
-7.37434
-7.38511
-7.39776
-7.40867
-7.4178
-7.42657
-7.43569
-7.44497
-7.45404
-7.46269
-7.47056
-7.47715
-7.48234
-7.48652
-7.4899
-7.4924
-7.49394
-7.49447
-7.49397
-7.49243
-7.48988
-7.48636
-7.48196
-7.47681
-7.47107
-7.46499
-7.45889
-7.45313
-7.44812
-7.44429
-7.44209
-7.44191
-7.4441
-7.44893
-7.45657
-7.46713
-7.48062
-7.49698
-7.5161
-7.53782
-7.56195
-7.58827
-7.61655
-7.64657
-7.67805
-7.71075
-7.74446
-7.77899
-7.81421
-7.85
-7.88632
-7.92316
-7.96057
-7.99862
-8.03744
-8.07713
-8.11784
-8.15964
-8.20261
-8.24676
-8.29201
-8.33819
-8.38507
-8.43227
-8.47932
-8.52564
-8.57055
-8.6133
-8.653
-8.68867
-8.71934
-8.74421
-8.76267
-8.77443
-8.77932
-8.77691
-8.76717
-8.75042
-8.72745
-8.69867
-8.66422
-8.62424
-8.57908
-8.52954
-8.47639
-8.41999
-8.36153
-8.30102
-8.23911
-8.17576
-8.11155
-8.04663
-7.98122
-7.91507
-7.84804
-7.77979
-7.70983
-7.63781
-7.56302
-7.48516
-7.40341
-7.31737
-7.22615
-7.12938
-7.0262
-6.91632
-6.79907
-6.67429
-6.54152
-6.40069
-6.25152
-6.09406
-5.92821
-5.75408
-5.57175
-5.38144
-5.18351
-4.97827
-4.76625
-4.54779
-4.3235
-4.09373
-3.85914
-3.62011
-3.37732
-3.13111
-2.88214
-2.63074
-2.37752
-2.1228
-1.86706
-1.6105
-1.35346
-1.09618
-0.839036
-0.582308
-0.326285
-0.071147
0.182894
0.435726
0.687191
0.937222
1.18571
1.43262
1.67788
1.9215
2.16345
2.40373
2.64233
2.87928
3.11461
3.34842
3.58071
3.81147
4.0407
4.26838
4.49449
4.71902
4.94193
5.1632
5.38286
5.60114
5.81782
6.03221
6.24425
6.4541
6.66167
6.8668
7.06933
7.26908
7.46593
7.65956
7.84929
8.03472
8.21527
8.3915
8.55799
8.73276
8.83824
-7.33157
-7.33787
-7.35106
-7.36569
-7.37702
-7.3865
-7.39626
-7.40646
-7.41672
-7.42675
-7.43635
-7.44514
-7.45251
-7.45834
-7.46312
-7.46716
-7.47031
-7.4725
-7.47361
-7.47363
-7.4725
-7.47025
-7.46688
-7.4625
-7.45724
-7.45132
-7.445
-7.43863
-7.4326
-7.42736
-7.42335
-7.421
-7.42069
-7.42279
-7.42755
-7.43517
-7.44575
-7.45933
-7.47586
-7.49523
-7.51731
-7.54188
-7.56875
-7.59761
-7.62821
-7.6602
-7.69335
-7.72737
-7.76211
-7.79736
-7.8331
-7.86925
-7.90584
-7.9429
-7.98059
-8.01908
-8.05854
-8.09914
-8.14097
-8.18418
-8.22876
-8.27467
-8.32175
-8.36972
-8.41819
-8.46663
-8.51431
-8.56053
-8.60445
-8.64515
-8.68147
-8.71235
-8.73689
-8.75466
-8.76586
-8.77044
-8.76775
-8.75779
-8.74062
-8.7171
-8.68707
-8.65132
-8.60944
-8.56262
-8.51102
-8.4558
-8.3976
-8.33681
-8.27441
-8.21054
-8.14573
-8.08035
-8.01478
-7.94898
-7.88288
-7.81625
-7.74874
-7.67994
-7.60925
-7.53619
-7.46008
-7.38029
-7.29608
-7.20679
-7.11174
-7.01031
-6.90193
-6.78612
-6.66252
-6.5308
-6.39074
-6.24222
-6.08517
-5.91955