/*--------------------------------*- C++ -*----------------------------------*\
  =========                 |
  \\      /  F ield         | OpenFOAM: The Open Source CFD Toolbox
   \\    /   O peration     | Website:  https://openfoam.org
    \\  /    A nd           | Version:  13
     \\/     M anipulation  |
\*---------------------------------------------------------------------------*/
FoamFile
{
    format      ascii;
    class       surfaceScalarField;
    location    "800";
    object      phi;
}
// * * * * * * * * * * * * * * * * * * * * * * * * * * * * * * * * * * * * * //

dimensions      [0 3 -1 0 0 0 0];

internalField   nonuniform List<scalar> 
24170
(
3.05744e-06
1.31063e-07
2.90919e-06
1.48489e-07
2.76901e-06
1.39951e-07
2.64324e-06
1.25898e-07
2.5344e-06
1.08848e-07
2.43951e-06
9.49028e-08
2.35879e-06
8.08332e-08
2.2902e-06
6.86367e-08
2.232e-06
5.81031e-08
2.18396e-06
4.79922e-08
2.14484e-06
3.90653e-08
2.11345e-06
3.13993e-08
2.08742e-06
2.59561e-08
2.06643e-06
2.09685e-08
2.05041e-06
1.60203e-08
2.03751e-06
1.28935e-08
2.02969e-06
7.77163e-09
6.52572e-10
2.02903e-06
3.47407e-06
7.43026e-08
3.5119e-06
1.10681e-07
3.53102e-06
1.20601e-07
3.53169e-06
1.25147e-07
3.51754e-06
1.22793e-07
3.49735e-06
1.1503e-07
3.47529e-06
1.02859e-07
3.45151e-06
9.24126e-08
3.42547e-06
8.40858e-08
3.39703e-06
7.64258e-08
3.36838e-06
6.77035e-08
3.33897e-06
6.08163e-08
3.30863e-06
5.62787e-08
3.27988e-06
4.97159e-08
3.2534e-06
4.25088e-08
3.22953e-06
3.6761e-08
3.20716e-06
3.01304e-08
2.30698e-08
3.18474e-06
3.68142e-06
5.5498e-08
3.69755e-06
9.48196e-08
3.71402e-06
1.03886e-07
3.73158e-06
1.07636e-07
3.7474e-06
1.06947e-07
3.76082e-06
1.01547e-07
3.77105e-06
9.2759e-08
3.77881e-06
8.47245e-08
3.78464e-06
7.82246e-08
3.78857e-06
7.24921e-08
3.79014e-06
6.61111e-08
3.78996e-06
6.10138e-08
3.78891e-06
5.72797e-08
3.78643e-06
5.21714e-08
3.78245e-06
4.6483e-08
3.77785e-06
4.13475e-08
3.77221e-06
3.57421e-08
2.95034e-08
3.76577e-06
3.93592e-06
4.49933e-08
3.94586e-06
8.47696e-08
3.954e-06
9.54523e-08
3.96264e-06
9.88212e-08
3.97061e-06
9.87485e-08
3.97775e-06
9.42942e-08
3.98379e-06
8.67025e-08
3.98923e-06
7.93105e-08
3.99448e-06
7.29748e-08
3.99969e-06
6.7306e-08
4.00436e-06
6.14646e-08
4.00885e-06
5.6549e-08
4.0136e-06
5.25116e-08
4.018e-06
4.7772e-08
4.02177e-06
4.272e-08
4.02513e-06
3.79893e-08
4.02781e-06
3.30641e-08
2.80677e-08
4.02926e-06
4.21512e-06
3.708e-08
4.22439e-06
7.5716e-08
4.23198e-06
8.77322e-08
4.23915e-06
9.16715e-08
4.24577e-06
9.20846e-08
4.25145e-06
8.85565e-08
4.25598e-06
8.22702e-08
4.25975e-06
7.55942e-08
4.2632e-06
6.95225e-08
4.26649e-06
6.40095e-08
4.2694e-06
5.85515e-08
4.27223e-06
5.3721e-08
4.27529e-06
4.94219e-08
4.27822e-06
4.4816e-08
4.28086e-06
4.00611e-08
4.28334e-06
3.54866e-08
4.2855e-06
3.08751e-08
2.64e-08
4.28715e-06
4.5156e-06
3.05883e-08
4.52437e-06
6.68215e-08
4.53187e-06
8.00359e-08
4.53872e-06
8.46873e-08
4.54523e-06
8.54426e-08
4.55097e-06
8.27312e-08
4.5557e-06
7.75432e-08
4.55964e-06
7.16629e-08
4.56315e-06
6.6029e-08
4.56639e-06
6.07848e-08
4.56928e-06
5.56839e-08
4.57202e-06
5.0996e-08
4.57479e-06
4.66543e-08
4.57738e-06
4.22205e-08
4.5797e-06
3.77454e-08
4.58178e-06
3.33946e-08
4.58353e-06
2.91273e-08
2.50864e-08
4.58485e-06
4.83804e-06
2.53126e-08
4.84619e-06
5.88782e-08
4.85364e-06
7.2538e-08
4.86042e-06
7.79048e-08
4.86684e-06
7.89972e-08
4.87259e-06
7.6947e-08
4.87748e-06
7.2706e-08
4.88163e-06
6.75608e-08
4.88527e-06
6.2397e-08
4.88861e-06
5.74502e-08
4.89164e-06
5.26635e-08
4.89448e-06
4.81542e-08
4.89723e-06
4.38812e-08
4.89979e-06
3.96342e-08
4.90209e-06
3.54241e-08
4.90413e-06
3.13333e-08
4.90586e-06
2.73848e-08
2.36774e-08
4.90724e-06
5.18385e-06
2.10749e-08
5.19138e-06
5.12616e-08
5.19879e-06
6.49879e-08
5.20564e-06
7.09573e-08
5.21201e-06
7.25303e-08
5.21775e-06
7.11536e-08
5.22275e-06
6.77061e-08
5.22707e-06
6.32448e-08
5.2309e-06
5.85687e-08
5.23438e-06
5.39762e-08
5.23756e-06
4.94976e-08
5.24052e-06
4.52075e-08
5.24331e-06
4.10869e-08
5.24589e-06
3.70484e-08
5.24822e-06
3.30908e-08
5.25028e-06
2.92616e-08
5.25206e-06
2.5598e-08
2.22016e-08
5.25354e-06
5.55481e-06
1.76336e-08
5.56167e-06
4.45592e-08
5.56891e-06
5.77557e-08
5.57585e-06
6.4008e-08
5.58231e-06
6.60446e-08
5.58816e-06
6.52785e-08
5.59334e-06
6.25475e-08
5.59789e-06
5.87206e-08
5.60195e-06
5.45264e-08
5.60564e-06
5.0296e-08
5.60901e-06
4.61282e-08
5.61214e-06
4.20851e-08
5.61504e-06
3.8169e-08
5.61772e-06
3.43573e-08
5.62014e-06
3.06554e-08
5.6223e-06
2.70951e-08
5.62417e-06
2.37211e-08
2.05791e-08
5.62576e-06
5.95266e-06
1.4782e-08
5.95882e-06
3.83154e-08
5.96576e-06
5.07076e-08
5.97267e-06
5.69973e-08
5.97926e-06
5.93828e-08
5.98533e-06
5.91596e-08
5.99078e-06
5.70777e-08
5.99563e-06
5.38676e-08
5.99998e-06
5.01805e-08
6.00393e-06
4.63537e-08
6.00754e-06
4.25249e-08
6.01087e-06
3.87646e-08
6.01394e-06
3.51053e-08
6.01675e-06
3.15468e-08
6.01929e-06
2.8113e-08
6.02156e-06
2.48237e-08
6.02355e-06
2.17175e-08
1.88608e-08
6.02528e-06
6.37922e-06
1.23793e-08
6.38475e-06
3.29175e-08
6.39131e-06
4.41541e-08
6.39806e-06
5.02235e-08
6.40466e-06
5.27464e-08
6.41089e-06
5.28991e-08
6.41662e-06
5.13535e-08
6.42178e-06
4.87099e-08
6.42645e-06
4.55195e-08
6.43071e-06
4.21115e-08
6.4346e-06
3.8647e-08
6.43817e-06
3.52143e-08
6.44144e-06
3.18358e-08
6.44442e-06
2.85702e-08
6.44712e-06
2.54159e-08
6.44953e-06
2.24155e-08
6.45167e-06
1.95931e-08
1.69818e-08
6.45353e-06
5.7426e-06
1.06539e-08
5.7468e-06
2.87191e-08
5.75203e-06
3.88758e-08
5.75756e-06
4.46428e-08
5.76306e-06
4.71933e-08
5.76837e-06
4.75654e-08
5.77334e-06
4.63717e-08
5.77791e-06
4.4142e-08
5.78209e-06
4.13462e-08
5.78591e-06
3.82969e-08
5.78942e-06
3.51594e-08
5.79263e-06
3.19886e-08
5.79558e-06
2.89024e-08
5.79826e-06
2.58741e-08
5.80069e-06
2.29908e-08
5.80286e-06
2.02301e-08
5.80479e-06
1.76457e-08
1.52726e-08
5.8065e-06
6.99992e-06
8.88644e-09
7.00431e-06
2.43898e-08
7.00995e-06
3.32422e-08
7.01605e-06
3.85097e-08
7.02224e-06
4.09735e-08
7.0283e-06
4.1476e-08
7.03407e-06
4.05963e-08
7.03945e-06
3.87583e-08
7.04444e-06
3.63774e-08
7.04904e-06
3.3718e-08
7.05326e-06
3.09158e-08
7.05715e-06
2.81073e-08
7.06071e-06
2.53122e-08
7.06397e-06
2.26173e-08
7.06692e-06
2.00152e-08
7.06958e-06
1.75605e-08
7.07195e-06
1.52553e-08
1.31506e-08
7.07406e-06
8.53261e-06
7.15214e-09
8.53713e-06
1.99164e-08
8.5431e-06
2.72697e-08
8.54974e-06
3.18736e-08
8.55659e-06
3.40926e-08
8.56341e-06
3.46563e-08
8.56999e-06
3.40041e-08
8.57623e-06
3.25422e-08
8.58206e-06
3.05508e-08
8.58749e-06
2.82901e-08
8.59251e-06
2.58809e-08
8.59714e-06
2.34456e-08
8.60142e-06
2.10236e-08
8.60533e-06
1.86844e-08
8.6089e-06
1.64349e-08
8.61212e-06
1.43167e-08
8.61503e-06
1.23346e-08
1.05344e-08
8.61762e-06
1.0401e-05
5.41655e-09
1.04056e-05
1.5349e-08
1.04118e-05
2.10368e-08
1.04189e-05
2.47257e-08
1.04265e-05
2.6588e-08
1.0434e-05
2.70593e-08
1.04415e-05
2.65946e-08
1.04486e-05
2.54174e-08
1.04553e-05
2.38288e-08
1.04616e-05
2.19521e-08
1.04675e-05
1.99872e-08
1.0473e-05
1.79478e-08
1.0478e-05
1.59708e-08
1.04827e-05
1.40181e-08
1.04869e-05
1.21827e-08
1.04908e-05
1.04311e-08
1.04943e-05
8.82449e-09
7.35632e-09
1.04975e-05
1.26785e-05
3.70436e-09
1.26832e-05
1.07109e-08
1.26897e-05
1.45383e-08
1.26973e-05
1.7115e-08
1.27055e-05
1.83933e-08
1.27139e-05
1.86845e-08
1.27222e-05
1.8263e-08
1.27303e-05
1.73526e-08
1.2738e-05
1.60929e-08
1.27453e-05
1.46592e-08
1.27521e-05
1.31124e-08
1.27585e-05
1.15698e-08
1.27644e-05
1.00257e-08
1.27699e-05
8.55469e-09
1.27749e-05
7.13959e-09
1.27796e-05
5.8305e-09
1.27838e-05
4.61021e-09
3.52617e-09
1.27876e-05
1.54549e-05
1.97695e-09
1.54597e-05
5.94805e-09
1.54665e-05
7.72716e-09
1.54747e-05
8.93746e-09
1.54836e-05
9.4457e-09
1.54929e-05
9.38592e-09
1.55023e-05
8.92239e-09
1.55114e-05
8.18098e-09
1.55203e-05
7.25102e-09
1.55287e-05
6.22538e-09
1.55366e-05
5.15942e-09
1.55441e-05
4.10188e-09
1.55511e-05
3.07141e-09
1.55575e-05
2.09404e-09
1.55635e-05
1.17595e-09
1.5569e-05
3.32556e-10
1.55741e-05
-4.35655e-10
-1.10971e-09
1.55787e-05
1.88395e-05
1.70505e-10
1.88445e-05
8.56405e-10
1.88519e-05
3.33137e-10
1.88609e-05
-8.16125e-11
1.88709e-05
-5.5009e-10
1.88814e-05
-1.11306e-09
1.88921e-05
-1.72324e-09
1.89026e-05
-2.35469e-09
1.89129e-05
-2.98509e-09
1.89227e-05
-3.59167e-09
1.8932e-05
-4.16258e-09
1.89408e-05
-4.68646e-09
1.8949e-05
-5.16136e-09
1.89567e-05
-5.58215e-09
1.89639e-05
-5.95045e-09
1.89705e-05
-6.26386e-09
1.89766e-05
-6.5244e-09
-6.72762e-09
1.89822e-05
2.29654e-05
-1.92247e-09
2.29714e-05
-5.08474e-09
2.298e-05
-8.34891e-09
2.29906e-05
-1.06749e-08
2.30024e-05
-1.23313e-08
2.30148e-05
-1.35123e-08
2.30274e-05
-1.43427e-08
2.30399e-05
-1.48755e-08
2.30522e-05
-1.51932e-08
2.30639e-05
-1.53288e-08
2.30751e-05
-1.53457e-08
2.30857e-05
-1.52506e-08
2.30957e-05
-1.50908e-08
2.31049e-05
-1.48584e-08
2.31136e-05
-1.4594e-08
2.31216e-05
-1.42836e-08
2.31291e-05
-1.39557e-08
-1.36034e-08
2.31359e-05
1.68124e-05
-3.66427e-09
1.68172e-05
-9.92824e-09
1.68242e-05
-1.53029e-08
1.68324e-05
-1.89938e-08
1.68415e-05
-2.14202e-08
1.6851e-05
-2.30088e-08
1.68606e-05
-2.39203e-08
1.68701e-05
-2.43483e-08
1.68793e-05
-2.43639e-08
1.68881e-05
-2.41453e-08
1.68965e-05
-2.37006e-08
1.69043e-05
-2.31602e-08
1.69118e-05
-2.24852e-08
1.69187e-05
-2.17917e-08
1.69252e-05
-2.10215e-08
1.69311e-05
-2.02706e-08
1.69367e-05
-1.94758e-08
-1.87253e-08
1.69418e-05
1.46364e-05
-5.51335e-09
1.46414e-05
-1.49602e-08
1.46484e-05
-2.23034e-08
1.46564e-05
-2.70924e-08
1.46651e-05
-3.01065e-08
1.4674e-05
-3.19329e-08
1.46829e-05
-3.28549e-08
1.46916e-05
-3.30568e-08
1.47e-05
-3.27741e-08
1.4708e-05
-3.21428e-08
1.47155e-05
-3.12948e-08
1.47227e-05
-3.02711e-08
1.47293e-05
-2.91632e-08
1.47356e-05
-2.79857e-08
1.47413e-05
-2.67961e-08
1.47467e-05
-2.55919e-08
1.47515e-05
-2.44089e-08
-2.32517e-08
1.47561e-05
1.27422e-05
-7.62024e-09
1.27477e-05
-2.04532e-08
1.2755e-05
-2.96028e-08
1.2763e-05
-3.51536e-08
1.27714e-05
-3.85366e-08
1.27799e-05
-4.04836e-08
1.27883e-05
-4.12761e-08
1.27964e-05
-4.11969e-08
1.28042e-05
-4.0529e-08
1.28115e-05
-3.94875e-08
1.28184e-05
-3.82066e-08
1.28249e-05
-3.67406e-08
1.28309e-05
-3.51953e-08
1.28365e-05
-3.35707e-08
1.28416e-05
-3.19733e-08
1.28464e-05
-3.03586e-08
1.28507e-05
-2.87992e-08
-2.72876e-08
1.28548e-05
1.10935e-05
-1.0165e-08
1.10997e-05
-2.67288e-08
1.11074e-05
-3.7262e-08
1.11154e-05
-4.32119e-08
1.11236e-05
-4.67742e-08
1.11318e-05
-4.87106e-08
1.11398e-05
-4.92627e-08
1.11474e-05
-4.87914e-08
1.11545e-05
-4.7688e-08
1.11613e-05
-4.62257e-08
1.11675e-05
-4.44842e-08
1.11733e-05
-4.25894e-08
1.11788e-05
-4.05711e-08
1.11837e-05
-3.85807e-08
1.11883e-05
-3.65496e-08
1.11925e-05
-3.45937e-08
1.11964e-05
-3.26501e-08
-3.08227e-08
1.11999e-05
9.65842e-06
-1.33756e-08
9.66571e-06
-3.39549e-08
9.67373e-06
-4.52542e-08
9.68175e-06
-5.12388e-08
9.68982e-06
-5.48681e-08
9.69773e-06
-5.66364e-08
9.70526e-06
-5.68053e-08
9.71233e-06
-5.58605e-08
9.7189e-06
-5.42835e-08
9.72502e-06
-5.23257e-08
9.73068e-06
-5.01494e-08
9.73591e-06
-4.77918e-08
9.74066e-06
-4.54013e-08
9.74507e-06
-4.29603e-08
9.74909e-06
-4.05888e-08
9.75277e-06
-3.82798e-08
9.75615e-06
-3.59968e-08
-3.38977e-08
9.7592e-06
8.40952e-06
-1.75256e-08
8.41805e-06
-4.24858e-08
8.42633e-06
-5.3529e-08
8.43431e-06
-5.92343e-08
8.44226e-06
-6.28075e-08
8.44988e-06
-6.42728e-08
8.45698e-06
-6.39203e-08
8.46354e-06
-6.24323e-08
8.46958e-06
-6.03158e-08
8.47511e-06
-5.79e-08
8.48021e-06
-5.52336e-08
8.48484e-06
-5.24432e-08
8.48909e-06
-4.95859e-08
8.49295e-06
-4.68294e-08
8.49649e-06
-4.4128e-08
8.49976e-06
-4.15126e-08
8.50268e-06
-3.89918e-08
-3.65522e-08
8.50539e-06
7.32273e-06
-2.29681e-08
7.33275e-06
-5.24771e-08
7.34139e-06
-6.21344e-08
7.34952e-06
-6.73711e-08
7.35746e-06
-7.07676e-08
7.3649e-06
-7.17219e-08
7.37171e-06
-7.07484e-08
7.37795e-06
-6.86947e-08
7.38361e-06
-6.60192e-08
7.38877e-06
-6.30343e-08
7.39346e-06
-5.99307e-08
7.39773e-06
-5.66689e-08
7.40157e-06
-5.34603e-08
7.40507e-06
-5.03157e-08
7.4083e-06
-4.73485e-08
7.4113e-06
-4.45325e-08
7.41413e-06
-4.17648e-08
-3.9169e-08
7.41669e-06
6.37788e-06
-3.07763e-08
6.38952e-06
-6.41234e-08
6.39933e-06
-7.19545e-08
6.40858e-06
-7.66574e-08
6.41739e-06
-7.95754e-08
6.42547e-06
-7.97977e-08
6.43279e-06
-7.80997e-08
6.43946e-06
-7.53932e-08
6.4455e-06
-7.20865e-08
6.45096e-06
-6.85376e-08
6.45595e-06
-6.48483e-08
6.46046e-06
-6.11918e-08
6.4646e-06
-5.75514e-08
6.46842e-06
-5.41331e-08
6.47203e-06
-5.09612e-08
6.47551e-06
-4.79954e-08
6.47883e-06
-4.51135e-08
-4.24124e-08
6.48203e-06
5.5604e-06
-4.57016e-08
5.57609e-06
-7.98132e-08
5.59087e-06
-8.67453e-08
5.6049e-06
-9.07357e-08
5.61791e-06
-9.26026e-08
5.62967e-06
-9.15636e-08
5.64019e-06
-8.86481e-08
5.64955e-06
-8.47894e-08
5.65784e-06
-8.04408e-08
5.66533e-06
-7.59966e-08
5.67214e-06
-7.16451e-08
5.67827e-06
-6.72922e-08
5.68368e-06
-6.29502e-08
5.68837e-06
-5.88259e-08
5.69238e-06
-5.49984e-08
5.69576e-06
-5.13947e-08
5.69861e-06
-4.79769e-08
-4.5275e-08
5.70146e-06
4.88058e-06
-9.86626e-08
4.91562e-06
-1.14848e-07
4.94157e-06
-1.12711e-07
4.95926e-06
-1.08483e-07
4.96907e-06
-1.02441e-07
4.97206e-06
-9.45559e-08
4.96956e-06
-8.61899e-08
4.96286e-06
-7.81409e-08
4.95326e-06
-7.08769e-08
4.9414e-06
-6.41475e-08
4.92755e-06
-5.77722e-08
4.91236e-06
-5.20902e-08
4.8965e-06
-4.70818e-08
4.88e-06
-4.23303e-08
4.86284e-06
-3.78661e-08
4.84554e-06
-3.41109e-08
4.82866e-06
-3.11104e-08
-2.93834e-08
4.81273e-06
4.10401e-06
3.98916e-06
3.87645e-06
3.76796e-06
3.66552e-06
3.57096e-06
3.48477e-06
3.40662e-06
3.33574e-06
3.2716e-06
3.21383e-06
3.16174e-06
3.11466e-06
3.07232e-06
3.03445e-06
3.00033e-06
2.96921e-06
2.93985e-06
-7.36163e-09
7.27879e-09
-2.01885e-08
1.26931e-08
-3.42595e-08
1.39629e-08
-4.65516e-08
1.21675e-08
-5.23306e-08
5.70206e-09
-4.5995e-08
-6.48237e-09
-2.50071e-08
-2.10265e-08
8.50696e-09
-3.36673e-08
5.10248e-08
-4.25439e-08
9.78468e-08
-4.69296e-08
1.44834e-07
-4.70077e-08
1.88802e-07
-4.40409e-08
2.27811e-07
-3.90381e-08
2.60522e-07
-3.2768e-08
2.86232e-07
-2.57549e-08
3.04499e-07
-1.83127e-08
3.15024e-07
-1.05912e-08
3.17576e-07
-2.57781e-09
3.11864e-07
5.63696e-09
2.9812e-07
1.37417e-08
2.76716e-07
2.13306e-08
2.48676e-07
2.80558e-08
2.15088e-07
3.35213e-08
1.77777e-07
3.73084e-08
1.3873e-07
3.89768e-08
1.00462e-07
3.8201e-08
6.54552e-08
3.48945e-08
3.59261e-08
2.93914e-08
1.31902e-08
2.25666e-08
-2.61224e-09
1.56113e-08
-1.22579e-08
9.44403e-09
-1.63541e-08
3.90669e-09
-1.48358e-08
-1.70046e-09
-6.84644e-09
-8.16413e-09
8.78593e-09
-1.57142e-08
3.25323e-08
-2.39152e-08
6.25315e-08
-2.99468e-08
9.34403e-08
-3.11194e-08
1.20492e-07
-2.69376e-08
1.39193e-07
-1.89556e-08
1.48947e-07
-9.68817e-09
1.51e-07
-2.31013e-09
1.49341e-07
1.63731e-09
1.47035e-07
2.09262e-09
1.47042e-07
-1.27005e-11
1.4646e-07
3.68969e-10
1.37438e-07
9.11251e-09
1.11201e-07
2.60252e-08
6.05799e-08
5.07634e-08
-1.70108e-08
7.74234e-08
-1.15474e-07
9.85874e-08
-2.31174e-07
1.15596e-07
-3.60563e-07
1.29426e-07
-4.99337e-07
1.38701e-07
-6.42719e-07
1.4338e-07
-7.88217e-07
1.45465e-07
-9.31441e-07
1.43245e-07
-1.06962e-06
1.38172e-07
-1.20077e-06
1.31219e-07
-1.3236e-06
1.2283e-07
-1.43807e-06
1.14546e-07
-1.54284e-06
1.04763e-07
-1.6383e-06
9.55595e-08
-1.72616e-06
8.78506e-08
-1.8067e-06
8.06487e-08
-1.88085e-06
7.41227e-08
-1.949e-06
6.82608e-08
-2.01214e-06
6.30963e-08
-2.07058e-06
5.85449e-08
-2.12514e-06
5.45012e-08
-2.17598e-06
5.09179e-08
-2.22374e-06
4.76838e-08
-2.26847e-06
4.47758e-08
-2.31067e-06
4.21008e-08
-2.35032e-06
3.9657e-08
-2.38781e-06
3.73617e-08
-2.42311e-06
3.5233e-08
-2.45645e-06
3.32109e-08
-2.48786e-06
3.13116e-08
-2.51747e-06
2.94996e-08
-2.54536e-06
2.77813e-08
-2.57157e-06
2.61397e-08
-2.59628e-06
2.45622e-08
-2.61935e-06
2.30679e-08
-2.64105e-06
2.16145e-08
-2.66125e-06
2.02441e-08
-2.68023e-06
1.88971e-08
-2.69783e-06
1.76286e-08
-2.71418e-06
1.64136e-08
-2.72937e-06
1.52504e-08
-2.74343e-06
1.41561e-08
-2.7565e-06
1.30857e-08
-2.76859e-06
1.20394e-08
-2.7797e-06
1.10071e-08
-2.78978e-06
9.96751e-09
-2.79876e-06
8.94e-09
-2.80664e-06
7.86652e-09
-2.81327e-06
6.77938e-09
-2.81869e-06
5.58962e-09
-2.82268e-06
4.33438e-09
-2.82525e-06
2.92598e-09
-2.82624e-06
1.4014e-09
-2.8257e-06
-1.97238e-10
-2.8238e-06
-1.65694e-09
-2.8207e-06
-2.94954e-09
-2.81643e-06
-4.2627e-09
-2.81088e-06
-5.55705e-09
-2.80409e-06
-6.91527e-09
-2.7959e-06
-8.25758e-09
-2.78638e-06
-9.67488e-09
-2.77537e-06
-1.10693e-08
-2.76296e-06
-1.25399e-08
-2.74898e-06
-1.398e-08
-2.73356e-06
-1.54887e-08
-2.71653e-06
-1.69612e-08
-2.69802e-06
-1.84926e-08
-2.67789e-06
-1.99901e-08
-2.65625e-06
-2.153e-08
-2.63301e-06
-2.30278e-08
-2.6083e-06
-2.45316e-08
-2.58212e-06
-2.59888e-08
-2.55453e-06
-2.74279e-08
-2.52552e-06
-2.88287e-08
-2.4951e-06
-3.01965e-08
-2.46332e-06
-3.15274e-08
-2.43021e-06
-3.28066e-08
-2.39586e-06
-3.4054e-08
-2.3603e-06
-3.52277e-08
-2.32365e-06
-3.63705e-08
-2.28589e-06
-3.74237e-08
-2.24718e-06
-3.84736e-08
-2.20748e-06
-3.94117e-08
-2.16698e-06
-4.03311e-08
-2.12563e-06
-4.11349e-08
-2.08365e-06
-4.19102e-08
-2.04097e-06
-4.25664e-08
-1.99783e-06
-4.31605e-08
-1.95415e-06
-4.36947e-08
-1.90997e-06
-4.4338e-08
-1.86524e-06
-4.4919e-08
-1.82007e-06
-4.54058e-08
-1.77446e-06
-4.5821e-08
-1.72846e-06
-4.61757e-08
-1.68211e-06
-4.64778e-08
-1.63548e-06
-4.6742e-08
-1.58858e-06
-4.69734e-08
-1.54145e-06
-4.7182e-08
-1.49408e-06
-4.73706e-08
-1.44653e-06
-4.75465e-08
-1.39877e-06
-4.77111e-08
-1.35085e-06
-4.78696e-08
-1.30274e-06
-4.80216e-08
-1.25447e-06
-4.81693e-08
-1.20603e-06
-4.83116e-08
-1.15744e-06
-4.845e-08
-1.10869e-06
-4.85875e-08
-1.05979e-06
-4.87271e-08
-1.01072e-06
-4.88763e-08
-9.61493e-07
-4.90359e-08
-9.12079e-07
-4.92153e-08
-8.62468e-07
-4.94131e-08
-8.12642e-07
-4.96391e-08
-7.62572e-07
-4.98866e-08
-7.1225e-07
-5.01601e-08
-6.61642e-07
-5.04487e-08
-6.10756e-07
-5.0754e-08
-5.59555e-07
-5.10679e-08
-5.08054e-07
-5.13941e-08
-4.56216e-07
-5.17261e-08
-4.04065e-07
-5.20648e-08
-3.51575e-07
-5.23995e-08
-2.98797e-07
-5.27131e-08
-2.45747e-07
-5.29784e-08
-1.92556e-07
-5.31449e-08
-1.39386e-07
-5.31182e-08
-8.66822e-08
-5.26766e-08
-3.49719e-08
-5.16895e-08
1.4056e-08
-4.90461e-08
6.01304e-08
-4.61109e-08
-2.30526e-08
8.31778e-08
-3.38769e-09
1.05054e-08
-9.61531e-09
1.87051e-08
-1.27318e-08
1.68347e-08
-6.01456e-09
5.19389e-09
1.55677e-08
-1.60347e-08
5.1203e-08
-4.22754e-08
9.68563e-08
-6.67314e-08
1.47248e-07
-8.41474e-08
1.97611e-07
-9.29328e-08
2.4458e-07
-9.3959e-08
2.86655e-07
-8.91061e-08
3.2298e-07
-8.04109e-08
3.53408e-07
-6.94926e-08
3.78056e-07
-5.74516e-08
3.97236e-07
-4.49684e-08
4.11313e-07
-3.24212e-08
4.20672e-07
-1.99943e-08
4.25856e-07
-7.79051e-09
4.27233e-07
4.20985e-09
4.24857e-07
1.61018e-08
4.18274e-07
2.78656e-08
4.07007e-07
3.93088e-08
3.90449e-07
5.00383e-08
3.68268e-07
5.94686e-08
3.4035e-07
6.6845e-08
3.07174e-07
7.13297e-08
2.69818e-07
7.21758e-08
2.30147e-07
6.8974e-08
1.90764e-07
6.18332e-08
1.54886e-07
5.1349e-08
1.2585e-07
3.83034e-08
1.06297e-07
2.32694e-08
9.78938e-08
6.51594e-09
1.0079e-07
-1.12436e-08
1.14128e-07
-2.91315e-08
1.34027e-07
-4.39738e-08
1.54757e-07
-5.06648e-08
1.70018e-07
-4.65584e-08
1.7728e-07
-3.41729e-08
1.75458e-07
-1.73538e-08
1.65591e-07
1.70944e-10
1.4907e-07
1.39312e-08
1.24961e-07
2.57711e-08
8.41957e-08
4.25742e-08
1.73019e-08
6.6923e-08
-8.20707e-08
9.96282e-08
-2.0875e-07
1.35836e-07
-3.53265e-07
1.70514e-07
-5.05614e-07
2.03131e-07
-6.60507e-07
2.323e-07
-8.1672e-07
2.54808e-07
-9.71296e-07
2.7015e-07
-1.12045e-06
2.78574e-07
-1.26148e-06
2.7971e-07
-1.39204e-06
2.73928e-07
-1.50966e-06
2.63077e-07
-1.61484e-06
2.4842e-07
-1.70803e-06
2.31371e-07
-1.7903e-06
2.13496e-07
-1.86298e-06
1.95509e-07
-1.92698e-06
1.78561e-07
-1.98477e-06
1.62555e-07
-2.03724e-06
1.48064e-07
-2.0849e-06
1.3551e-07
-2.12871e-06
1.24494e-07
-2.16942e-06
1.14831e-07
-2.20749e-06
1.06359e-07
-2.24332e-06
9.89233e-08
-2.27712e-06
9.23608e-08
-2.30914e-06
8.65096e-08
-2.33946e-06
8.12524e-08
-2.36826e-06
7.64666e-08
-2.39557e-06
7.20783e-08
-2.4215e-06
6.79947e-08
-2.44605e-06
6.41795e-08
-2.46932e-06
6.057e-08
-2.49129e-06
5.71469e-08
-2.51202e-06
5.3873e-08
-2.53153e-06
5.07447e-08
-2.54983e-06
4.77385e-08
-2.56697e-06
4.48508e-08
-2.58296e-06
4.20713e-08
-2.59786e-06
3.93946e-08
-2.61164e-06
3.68223e-08
-2.62439e-06
3.43367e-08
-2.6361e-06
3.19474e-08
-2.64685e-06
2.96343e-08
-2.65661e-06
2.7412e-08
-2.66541e-06
2.52681e-08
-2.67328e-06
2.32159e-08
-2.68027e-06
2.1221e-08
-2.68644e-06
1.92719e-08
-2.69178e-06
1.7353e-08
-2.6963e-06
1.54444e-08
-2.69993e-06
1.35402e-08
-2.70266e-06
1.16293e-08
-2.70444e-06
9.68651e-09
-2.70528e-06
7.71174e-09
-2.70518e-06
5.66597e-09
-2.70418e-06
3.57789e-09
-2.70238e-06
1.40844e-09
-2.69988e-06
-7.99282e-10
-2.6968e-06
-3.06185e-09
-2.6929e-06
-5.38675e-09
-2.68798e-06
-7.81795e-09
-2.6819e-06
-1.03268e-08
-2.67462e-06
-1.28999e-08
-2.66606e-06
-1.55437e-08
-2.65618e-06
-1.82432e-08
-2.64491e-06
-2.10154e-08
-2.63223e-06
-2.38324e-08
-2.6181e-06
-2.67164e-08
-2.6025e-06
-2.96278e-08
-2.5854e-06
-3.25924e-08
-2.56678e-06
-3.5565e-08
-2.54665e-06
-3.85759e-08
-2.52499e-06
-4.15792e-08
-2.5018e-06
-4.45967e-08
-2.47712e-06
-4.7577e-08
-2.45098e-06
-5.0533e-08
-2.42341e-06
-5.34202e-08
-2.39447e-06
-5.62586e-08
-2.36415e-06
-5.90194e-08
-2.33249e-06
-6.17139e-08
-2.2995e-06
-6.4321e-08
-2.26528e-06
-6.68417e-08
-2.22985e-06
-6.92651e-08
-2.19329e-06
-7.15813e-08
-2.15565e-06
-7.3794e-08
-2.117e-06
-7.58865e-08
-2.07741e-06
-7.78809e-08
-2.03693e-06
-7.97393e-08
-1.99563e-06
-8.14935e-08
-1.95356e-06
-8.31035e-08
-1.91079e-06
-8.46097e-08
-1.86734e-06
-8.59849e-08
-1.82324e-06
-8.72635e-08
-1.77854e-06
-8.84543e-08
-1.73337e-06
-8.96125e-08
-1.68778e-06
-9.06708e-08
-1.64174e-06
-9.16065e-08
-1.59528e-06
-9.24226e-08
-1.54843e-06
-9.31323e-08
-1.50124e-06
-9.37474e-08
-1.45376e-06
-9.42938e-08
-1.40599e-06
-9.47751e-08
-1.35797e-06
-9.52183e-08
-1.30971e-06
-9.56172e-08
-1.26124e-06
-9.60007e-08
-1.21254e-06
-9.63552e-08
-1.16365e-06
-9.67099e-08
-1.11454e-06
-9.70436e-08
-1.06524e-06
-9.73831e-08
-1.01574e-06
-9.77014e-08
-9.66044e-07
-9.80271e-08
-9.1615e-07
-9.83373e-08
-8.6607e-07
-9.86673e-08
-8.15784e-07
-9.89996e-08
-7.65296e-07
-9.93688e-08
-7.14584e-07
-9.976e-08
-6.63638e-07
-1.00203e-07
-6.12435e-07
-1.00684e-07
-5.60957e-07
-1.01221e-07
-5.09186e-07
-1.01795e-07
-4.57101e-07
-1.02409e-07
-4.04697e-07
-1.03046e-07
-3.51953e-07
-1.03708e-07
-2.98871e-07
-1.04385e-07
-2.45431e-07
-1.05079e-07
-1.91642e-07
-1.05782e-07
-1.37493e-07
-1.06479e-07
-8.30175e-08
-1.07136e-07
-2.82539e-08
-1.07692e-07
2.66868e-08
-1.08054e-07
8.1668e-08
-1.08069e-07
1.36425e-07
-1.07423e-07
1.90423e-07
-1.05681e-07
2.43202e-07
-1.01842e-07
2.91412e-07
-9.43445e-08
-6.97988e-08
3.38142e-07
2.77897e-10
1.00884e-08
3.12614e-09
1.56357e-08
1.69181e-08
2.83955e-09
4.89349e-08
-2.69657e-08
9.77077e-08
-6.48809e-08
1.54457e-07
-9.91012e-08
2.09942e-07
-1.22247e-07
2.58486e-07
-1.32746e-07
2.98203e-07
-1.32672e-07
3.29446e-07
-1.25244e-07
3.53669e-07
-1.13349e-07
3.72299e-07
-9.90742e-08
3.86535e-07
-8.37488e-08
3.9719e-07
-6.8134e-08
4.04836e-07
-5.26385e-08
4.09855e-07
-3.74635e-08
4.1253e-07
-2.27011e-08
4.13116e-07
-8.39749e-09
4.11868e-07
5.42117e-09
4.09163e-07
1.87846e-08
4.05243e-07
3.17473e-08
4.00225e-07
4.43064e-08
3.93867e-07
5.63547e-08
3.85695e-07
6.76152e-08
3.74905e-07
7.75922e-08
3.60656e-07
8.55404e-08
3.42269e-07
9.05067e-08
3.19723e-07
9.14611e-08
2.93913e-07
8.75651e-08
2.66812e-07
7.83623e-08
2.41098e-07
6.39162e-08
2.19441e-07
4.48191e-08
2.03698e-07
2.21622e-08
1.94736e-07
-2.39393e-09
1.90267e-07
-2.47041e-08
1.83742e-07
-3.75519e-08
1.69677e-07
-3.66134e-08
1.46482e-07
-2.34891e-08
1.15153e-07
-2.84178e-09
7.47528e-08
2.28678e-08
2.15972e-08
5.33079e-08
-5.19054e-08
8.73073e-08
-1.50478e-07
1.24312e-07
-2.7288e-07
1.64936e-07
-4.13799e-07
2.07832e-07
-5.64482e-07
2.503e-07
-7.17658e-07
2.89018e-07
-8.68686e-07
3.21533e-07
-1.01213e-06
3.46576e-07
-1.14369e-06
3.63851e-07
-1.26175e-06
3.72859e-07
-1.36559e-06
3.73975e-07
-1.45498e-06
3.67956e-07
-1.53108e-06
3.55802e-07
-1.5961e-06
3.38937e-07
-1.6521e-06
3.19076e-07
-1.70129e-06
2.97611e-07
-1.7456e-06
2.75672e-07
-1.7864e-06
2.54303e-07
-1.82493e-06
2.34028e-07
-1.86168e-06
2.15322e-07
-1.89743e-06
1.98296e-07
-1.93237e-06
1.83013e-07
-1.96637e-06
1.69508e-07
-1.99945e-06
1.57574e-07
-2.03162e-06
1.47002e-07
-2.06287e-06
1.37608e-07
-2.09317e-06
1.29214e-07
-2.12246e-06
1.21656e-07
-2.15075e-06
1.14782e-07
-2.17797e-06
1.08472e-07
-2.20412e-06
1.02613e-07
-2.22919e-06
9.71254e-08
-2.25315e-06
9.19376e-08
-2.27599e-06
8.69973e-08
-2.29771e-06
8.22586e-08
-2.3183e-06
7.76996e-08
-2.33777e-06
7.32946e-08
-2.3561e-06
6.90358e-08
-2.37332e-06
6.49121e-08
-2.38944e-06
6.09206e-08
-2.40447e-06
5.70583e-08
-2.41844e-06
5.33245e-08
-2.43136e-06
4.972e-08
-2.44327e-06
4.62374e-08
-2.45421e-06
4.28804e-08
-2.46422e-06
3.96364e-08
-2.47329e-06
3.65118e-08
-2.48144e-06
3.35006e-08
-2.48874e-06
3.05881e-08
-2.49522e-06
2.777e-08
-2.50092e-06
2.50105e-08
-2.50588e-06
2.22958e-08
-2.51008e-06
1.9596e-08
-2.51347e-06
1.69134e-08
-2.51608e-06
1.42078e-08
-2.51782e-06
1.14923e-08
-2.51876e-06
8.71353e-09
-2.51882e-06
5.89355e-09
-2.51806e-06
2.98523e-09
-2.51644e-06
5.0707e-13
-2.51397e-06
-3.09587e-09
-2.51059e-06
-6.31901e-09
-2.50621e-06
-9.69573e-09
-2.50079e-06
-1.32429e-08
-2.49422e-06
-1.69154e-08
-2.48647e-06
-2.07204e-08
-2.47745e-06
-2.46241e-08
-2.46715e-06
-2.86488e-08
-2.45546e-06
-3.27586e-08
-2.4424e-06
-3.69747e-08
-2.42789e-06
-4.1257e-08
-2.41195e-06
-4.56199e-08
-2.39451e-06
-5.00232e-08
-2.37561e-06
-5.44753e-08
-2.3552e-06
-5.89408e-08
-2.33331e-06
-6.34206e-08
-2.30994e-06
-6.78791e-08
-2.28512e-06
-7.23054e-08
-2.25887e-06
-7.66684e-08
-2.23124e-06
-8.09529e-08
-2.20226e-06
-8.51442e-08
-2.17195e-06
-8.92292e-08
-2.14034e-06
-9.31989e-08
-2.10748e-06
-9.70387e-08
-2.07342e-06
-1.00743e-07
-2.03821e-06
-1.04297e-07
-2.00193e-06
-1.07697e-07
-1.96462e-06
-1.10931e-07
-1.92636e-06
-1.14001e-07
-1.88718e-06
-1.16901e-07
-1.84717e-06
-1.19629e-07
-1.80636e-06
-1.22182e-07
-1.76483e-06
-1.24558e-07
-1.72261e-06
-1.2676e-07
-1.67976e-06
-1.28801e-07
-1.63633e-06
-1.30693e-07
-1.59236e-06
-1.32458e-07
-1.54794e-06
-1.3411e-07
-1.50309e-06
-1.35623e-07
-1.45781e-06
-1.36982e-07
-1.41212e-06
-1.38181e-07
-1.36606e-06
-1.39242e-07
-1.31966e-06
-1.40177e-07
-1.27296e-06
-1.41016e-07
-1.22598e-06
-1.4177e-07
-1.17873e-06
-1.42465e-07
-1.13124e-06
-1.43107e-07
-1.08352e-06
-1.43718e-07
-1.03556e-06
-1.44301e-07
-9.87377e-07
-1.44875e-07
-9.38969e-07
-1.45436e-07
-8.90333e-07
-1.45994e-07
-8.41475e-07
-1.46539e-07
-7.92392e-07
-1.47081e-07
-7.43089e-07
-1.47617e-07
-6.93559e-07
-1.48164e-07
-6.43804e-07
-1.4873e-07
-5.93809e-07
-1.49332e-07
-5.43568e-07
-1.49978e-07
-4.93063e-07
-1.50682e-07
-4.4228e-07
-1.51451e-07
-3.91197e-07
-1.52285e-07
-3.39802e-07
-1.53182e-07
-2.88076e-07
-1.54125e-07
-2.36014e-07
-1.55108e-07
-1.83599e-07
-1.56117e-07
-1.30832e-07
-1.57156e-07
-7.76998e-08
-1.5821e-07
-2.42104e-08
-1.59277e-07
2.96361e-08
-1.60324e-07
8.38191e-08
-1.61325e-07
1.38319e-07
-1.6219e-07
1.93061e-07
-1.62799e-07
2.47919e-07
-1.62924e-07
3.02689e-07
-1.62191e-07
3.57038e-07
-1.60024e-07
4.10569e-07
-1.55374e-07
4.62359e-07
-1.46135e-07
-1.23064e-07
5.15633e-07
-1.95038e-10
1.01735e-08
1.18953e-08
3.3626e-09
4.99023e-08
-3.52739e-08
1.09455e-07
-8.66002e-08
1.74659e-07
-1.30122e-07
2.31891e-07
-1.56384e-07
2.75237e-07
-1.65616e-07
3.04952e-07
-1.62501e-07
3.24245e-07
-1.51983e-07
3.36571e-07
-1.37604e-07
3.44639e-07
-1.21434e-07
3.50088e-07
-1.04552e-07
3.53824e-07
-8.75035e-08
3.56236e-07
-7.05704e-08
3.57485e-07
-5.39093e-08
3.57615e-07
-3.76183e-08
3.56655e-07
-2.17674e-08
3.54646e-07
-6.41383e-09
3.51646e-07
8.38684e-09
3.47797e-07
2.2611e-08
3.43268e-07
3.6238e-08
3.38312e-07
4.92373e-08
3.33076e-07
6.15515e-08
3.27623e-07
7.30384e-08
3.21734e-07
8.34345e-08
3.14985e-07
9.2252e-08
3.06681e-07
9.87558e-08
2.96131e-07
1.01958e-07
2.82879e-07
1.00747e-07
2.67004e-07
9.41725e-08
2.49261e-07
8.15844e-08
2.30881e-07
6.31297e-08
2.12821e-07
4.01751e-08
1.9336e-07
1.70018e-08
1.66518e-07
2.13173e-09
1.27654e-07
1.23201e-09
7.67852e-08
1.42705e-08
1.37387e-08
3.94582e-08
-6.38443e-08
7.47271e-08
-1.58325e-07
1.17282e-07
-2.69379e-07
1.64342e-07
-3.95219e-07
2.13111e-07
-5.32185e-07
2.61268e-07
-6.74207e-07
3.06936e-07
-8.14961e-07
3.48579e-07
-9.48514e-07
3.83838e-07
-1.07008e-06
4.10583e-07
-1.17721e-06
4.28643e-07
-1.26897e-06
4.38327e-07
-1.34528e-06
4.40145e-07
-1.40749e-06
4.35068e-07
-1.45771e-06
4.24181e-07
-1.49844e-06
4.08673e-07
-1.5324e-06
3.89755e-07
-1.56211e-06
3.68654e-07
-1.58955e-06
3.46512e-07
-1.61613e-06
3.24193e-07
-1.64281e-06
3.02352e-07
-1.67002e-06
2.81522e-07
-1.698e-06
2.62002e-07
-1.72666e-06
2.43987e-07
-1.7559e-06
2.27533e-07
-1.7855e-06
2.12615e-07
-1.81518e-06
1.99178e-07
-1.8447e-06
1.87089e-07
-1.87389e-06
1.76187e-07
-1.9026e-06
1.66311e-07
-1.9307e-06
1.57307e-07
-1.95809e-06
1.49034e-07
-1.98467e-06
1.41362e-07
-2.01039e-06
1.3418e-07
-2.03518e-06
1.27395e-07
-2.059e-06
1.20934e-07
-2.08181e-06
1.1473e-07
-2.10357e-06
1.08743e-07
-2.12427e-06
1.02937e-07
-2.14389e-06
9.72911e-08
-2.16242e-06
9.1792e-08
-2.17986e-06
8.64357e-08
-2.1962e-06
8.12208e-08
-2.21147e-06
7.615e-08
-2.22567e-06
7.12279e-08
-2.23884e-06
6.64593e-08
-2.25099e-06
6.1848e-08
-2.26216e-06
5.7395e-08
-2.27239e-06
5.30997e-08
-2.28171e-06
4.89609e-08
-2.29013e-06
4.49711e-08
-2.2977e-06
4.1123e-08
-2.30443e-06
3.74184e-08
-2.3104e-06
3.38104e-08
-2.31564e-06
3.0291e-08
-2.32017e-06
2.68272e-08
-2.32399e-06
2.33889e-08
-2.32706e-06
1.99651e-08
-2.32936e-06
1.65165e-08
-2.33088e-06
1.30458e-08
-2.33158e-06
9.4983e-09
-2.33146e-06
5.8885e-09
-2.33049e-06
2.15601e-09
-2.32865e-06
-1.69666e-09
-2.32592e-06
-5.72243e-09
-2.32224e-06
-9.93558e-09
-2.31757e-06
-1.43572e-08
-2.31185e-06
-1.89884e-08
-2.30502e-06
-2.3797e-08
-2.29702e-06
-2.87882e-08
-2.28779e-06
-3.39253e-08
-2.27728e-06
-3.92305e-08
-2.26544e-06
-4.46558e-08
-2.25224e-06
-5.02284e-08
-2.23765e-06
-5.58883e-08
-2.22163e-06
-6.16616e-08
-2.20418e-06
-6.74817e-08
-2.18527e-06
-7.33723e-08
-2.16491e-06
-7.92663e-08
-2.14311e-06
-8.51785e-08
-2.11987e-06
-9.10458e-08
-2.09522e-06
-9.68752e-08