/*--------------------------------*- C++ -*----------------------------------*\
  =========                 |
  \\      /  F ield         | OpenFOAM: The Open Source CFD Toolbox
   \\    /   O peration     | Website:  https://openfoam.org
    \\  /    A nd           | Version:  13
     \\/     M anipulation  |
\*---------------------------------------------------------------------------*/
FoamFile
{
    format      ascii;
    class       volVectorField;
    location    "800";
    object      U;
}
// * * * * * * * * * * * * * * * * * * * * * * * * * * * * * * * * * * * * * //

dimensions      [0 1 -1 0 0 0 0];

internalField   nonuniform List<vector> 
12225
(
(9.79007 0.0542999 0)
(9.34881 0.106315 0)
(8.91314 0.124847 0)
(8.47697 0.121201 0)
(8.11059 0.104863 0)
(7.79147 0.0838642 0)
(7.51559 0.0567137 0)
(7.28497 0.0399224 0)
(7.08551 0.0304481 0)
(6.91794 0.0242178 0)
(6.78606 0.0122255 0)
(6.67062 0.0115443 0)
(6.58593 0.0224234 0)
(6.51023 0.0139829 0)
(6.45359 0.000354574 0)
(6.40966 -0.00463506 0)
(6.37376 -0.0127402 0)
(6.3563 -0.00897299 0)
(10.0683 0.0531644 0)
(10.2321 0.0829852 0)
(10.3254 0.0851846 0)
(10.3483 0.0850216 0)
(10.3222 0.0851337 0)
(10.2643 0.0840029 0)
(10.2033 0.0807554 0)
(10.1374 0.0748507 0)
(10.0653 0.068796 0)
(9.98514 0.062513 0)
(9.89781 0.0575524 0)
(9.81794 0.0506269 0)
(9.72743 0.0431189 0)
(9.63822 0.0406249 0)
(9.55849 0.0378532 0)
(9.48474 0.0334902 0)
(9.41733 0.0284346 0)
(9.35166 0.0182985 0)
(10.0191 0.0427992 0)
(10.0705 0.0676598 0)
(10.1194 0.0743302 0)
(10.1668 0.0793776 0)
(10.2108 0.0826279 0)
(10.2505 0.0835041 0)
(10.2835 0.0816503 0)
(10.3082 0.0795365 0)
(10.327 0.0774289 0)
(10.3403 0.0748408 0)
(10.3475 0.0709803 0)
(10.3496 0.0680522 0)
(10.3476 0.0661624 0)
(10.3426 0.0621199 0)
(10.3335 0.0574809 0)
(10.3216 0.0535721 0)
(10.308 0.047755 0)
(10.2909 0.0397276 0)
(10.0093 0.0319495 0)
(10.0379 0.0566284 0)
(10.0629 0.0662056 0)
(10.086 0.0726992 0)
(10.1051 0.0757445 0)
(10.1239 0.0747889 0)
(10.1409 0.0709162 0)
(10.1559 0.0672857 0)
(10.1694 0.064507 0)
(10.1827 0.0620456 0)
(10.1954 0.0589223 0)
(10.2071 0.056405 0)
(10.2188 0.0546842 0)
(10.2304 0.0517459 0)
(10.2408 0.0481187 0)
(10.25 0.0446777 0)
(10.2576 0.0405066 0)
(10.2639 0.0355537 0)
(10.0052 0.0255341 0)
(10.0284 0.0523265 0)
(10.0508 0.0626815 0)
(10.0691 0.068102 0)
(10.0843 0.0707704 0)
(10.0984 0.0704659 0)
(10.1107 0.0677324 0)
(10.1208 0.0646936 0)
(10.1294 0.0621155 0)
(10.1373 0.0598217 0)
(10.1447 0.0571347 0)
(10.1515 0.0547729 0)
(10.1584 0.052785 0)
(10.1655 0.0500014 0)
(10.172 0.0466434 0)
(10.1782 0.0432117 0)
(10.1837 0.0392814 0)
(10.1887 0.0350415 0)
(10.003 0.0211264 0)
(10.0227 0.0465954 0)
(10.0428 0.0573881 0)
(10.059 0.0627427 0)
(10.0732 0.0657319 0)
(10.0864 0.0661001 0)
(10.0982 0.0643115 0)
(10.108 0.0617617 0)
(10.1162 0.0591917 0)
(10.1236 0.0566876 0)
(10.1304 0.0539528 0)
(10.1367 0.0514092 0)
(10.1427 0.0490251 0)
(10.1486 0.0461748 0)
(10.154 0.0429142 0)
(10.1589 0.0394879 0)
(10.1632 0.035759 0)
(10.1668 0.0319037 0)
(10.0022 0.0175099 0)
(10.0178 0.0410179 0)
(10.0358 0.0520585 0)
(10.051 0.0579145 0)
(10.0642 0.0610921 0)
(10.0765 0.0618501 0)
(10.0876 0.0607002 0)
(10.0971 0.0585924 0)
(10.1052 0.0562591 0)
(10.1123 0.0539326 0)
(10.1189 0.0514743 0)
(10.1249 0.049073 0)
(10.1307 0.0466903 0)
(10.1362 0.0439985 0)
(10.1412 0.0409899 0)
(10.1457 0.037782 0)
(10.1496 0.0343675 0)
(10.153 0.0309067 0)
(10.0018 0.0145162 0)
(10.0138 0.0359755 0)
(10.0297 0.0469613 0)
(10.0442 0.0531043 0)
(10.0567 0.0563145 0)
(10.0682 0.0573485 0)
(10.0786 0.0566242 0)
(10.0877 0.0549456 0)
(10.0955 0.0529507 0)
(10.1026 0.0508079 0)
(10.109 0.0485293 0)
(10.1149 0.0462018 0)
(10.1204 0.043804 0)
(10.1256 0.0411743 0)
(10.1303 0.0383025 0)
(10.1346 0.0352585 0)
(10.1383 0.0320923 0)
(10.1416 0.0289484 0)
(10.0014 0.0121494 0)
(10.0108 0.0313346 0)
(10.0246 0.0419121 0)
(10.0382 0.0481077 0)
(10.0502 0.0514883 0)
(10.0611 0.0527979 0)
(10.0711 0.0525117 0)
(10.0799 0.051224 0)
(10.0877 0.0494748 0)
(10.0946 0.0475114 0)
(10.1009 0.0453868 0)
(10.1068 0.0431612 0)
(10.1122 0.0408177 0)
(10.1172 0.0382992 0)
(10.1218 0.0356082 0)
(10.126 0.0327886 0)
(10.1296 0.0298951 0)
(10.1328 0.0270263 0)
(10.0011 0.0102075 0)
(10.0086 0.0271029 0)
(10.0204 0.0370319 0)
(10.0328 0.043112 0)
(10.0442 0.0465937 0)
(10.0547 0.0481761 0)
(10.0644 0.0482535 0)
(10.0731 0.0473126 0)
(10.0808 0.0458338 0)
(10.0878 0.0440681 0)
(10.0941 0.0421018 0)
(10.1 0.0399923 0)
(10.1053 0.037751 0)
(10.1103 0.0353649 0)
(10.1148 0.0328489 0)
(10.1188 0.0302297 0)
(10.1224 0.0275626 0)
(10.1256 0.0249272 0)
(10.0008 0.00856619 0)
(10.0069 0.0233225 0)
(10.0169 0.0323788 0)
(10.028 0.0381726 0)
(10.0386 0.0416126 0)
(10.0486 0.0433354 0)
(10.058 0.0436948 0)
(10.0666 0.0430723 0)
(10.0743 0.0418677 0)
(10.0813 0.040319 0)
(10.0876 0.0385405 0)
(10.0935 0.0365917 0)
(10.0988 0.0344917 0)
(10.1037 0.0322659 0)
(10.1082 0.0299246 0)
(10.1122 0.0275076 0)
(10.1158 0.0250588 0)
(10.119 0.0226512 0)
(10.0007 0.00725487 0)
(10.0057 0.0201271 0)
(10.0142 0.028295 0)
(10.0241 0.0337293 0)
(10.0339 0.0370483 0)
(10.0433 0.038818 0)
(10.0523 0.0393565 0)
(10.0607 0.0389754 0)
(10.0683 0.0380013 0)
(10.0753 0.036657 0)
(10.0816 0.0350596 0)
(10.0875 0.0332597 0)
(10.0929 0.0313162 0)
(10.0978 0.0292429 0)
(10.1022 0.0270839 0)
(10.1062 0.0248555 0)
(10.1098 0.022609 0)
(10.113 0.0204001 0)
(10.0006 0.00613935 0)
(10.0048 0.0173514 0)
(10.0121 0.0245692 0)
(10.021 0.0295586 0)
(10.0299 0.0326777 0)
(10.0387 0.0343925 0)
(10.0472 0.0350031 0)
(10.0552 0.0347689 0)
(10.0626 0.0339685 0)
(10.0695 0.0327964 0)
(10.0758 0.0313551 0)
(10.0816 0.0297135 0)
(10.0869 0.0279292 0)
(10.0918 0.0260249 0)
(10.0962 0.0240458 0)
(10.1002 0.022012 0)
(10.1038 0.0199659 0)
(10.1071 0.0179717 0)
(10.0005 0.00504206 0)
(10.004 0.014473 0)
(10.0102 0.0205884 0)
(10.0179 0.0249837 0)
(10.0261 0.02779 0)
(10.0341 0.0293759 0)
(10.042 0.0299957 0)
(10.0496 0.0298739 0)
(10.0567 0.0292208 0)
(10.0633 0.0282095 0)
(10.0694 0.0269232 0)
(10.075 0.0254625 0)
(10.0803 0.0238441 0)
(10.0851 0.022144 0)
(10.0895 0.0203606 0)
(10.0934 0.0185531 0)
(10.097 0.016732 0)
(10.1003 0.014969 0)
(10.0004 0.0039581 0)
(10.0033 0.0115042 0)
(10.0085 0.0163961 0)
(10.0152 0.0200404 0)
(10.0224 0.0224134 0)
(10.0298 0.0237666 0)
(10.037 0.0243226 0)
(10.044 0.0242457 0)
(10.0507 0.0237064 0)
(10.057 0.0228241 0)
(10.0629 0.0217111 0)
(10.0683 0.0204143 0)
(10.0734 0.0190087 0)
(10.0781 0.0175064 0)
(10.0823 0.0159612 0)
(10.0863 0.0143817 0)
(10.0898 0.0128135 0)
(10.0931 0.0112923 0)
(10.0003 0.00287748 0)
(10.0027 0.00848516 0)
(10.0071 0.0120352 0)
(10.0128 0.0147588 0)
(10.0192 0.0165544 0)
(10.0258 0.0175561 0)
(10.0325 0.0179479 0)
(10.039 0.0178382 0)
(10.0452 0.017355 0)
(10.0512 0.0165869 0)
(10.0567 0.0156265 0)
(10.062 0.0145193 0)
(10.0668 0.0133227 0)
(10.0713 0.0120513 0)
(10.0755 0.0107477 0)
(10.0793 0.00942403 0)
(10.0828 0.00811353 0)
(10.086 0.00685059 0)
(10.0003 0.00179539 0)
(10.0023 0.00540719 0)
(10.006 0.00749382 0)
(10.0109 0.00913219 0)
(10.0166 0.0101794 0)
(10.0226 0.0107054 0)
(10.0287 0.0108109 0)
(10.0347 0.0105865 0)
(10.0405 0.01009 0)
(10.0461 0.00940907 0)
(10.0515 0.00857789 0)
(10.0564 0.00766507 0)
(10.0611 0.00667174 0)
(10.0655 0.00564925 0)
(10.0695 0.00459264 0)
(10.0732 0.00354305 0)
(10.0766 0.00249623 0)
(10.0798 0.00150123 0)
(10.0002 0.000678632 0)
(10.002 0.00219776 0)
(10.0052 0.00267818 0)
(10.0097 0.00304631 0)
(10.0148 0.00317677 0)
(10.0203 0.00306775 0)
(10.026 0.00276853 0)
(10.0316 0.00231802 0)
(10.0372 0.00174553 0)
(10.0425 0.00108897 0)
(10.0476 0.000371984 0)
(10.0524 -0.000380568 0)
(10.057 -0.00115789 0)
(10.0612 -0.00194285 0)
(10.0651 -0.00272918 0)
(10.0688 -0.00350288 0)
(10.0722 -0.0042595 0)
(10.0753 -0.00497777 0)
(10.0002 -0.000555767 0)
(10.0018 -0.00135614 0)
(10.005 -0.00269377 0)
(10.0093 -0.00378661 0)
(10.0143 -0.00474566 0)
(10.0196 -0.00563123 0)
(10.0251 -0.00645627 0)
(10.0306 -0.00722187 0)
(10.036 -0.00794428 0)
(10.0412 -0.00861764 0)
(10.0463 -0.00925868 0)
(10.051 -0.00985725 0)
(10.0555 -0.0104304 0)
(10.0597 -0.0109651 0)
(10.0636 -0.0114785 0)
(10.0672 -0.0119565 0)
(10.0706 -0.0124115 0)
(10.0737 -0.0128321 0)
(10.0002 -0.00177127 0)
(10.002 -0.00484981 0)
(10.0055 -0.0079522 0)
(10.0102 -0.0104226 0)
(10.0155 -0.0123932 0)
(10.0211 -0.014003 0)
(10.0268 -0.0153084 0)
(10.0325 -0.0163697 0)
(10.038 -0.0172165 0)
(10.0434 -0.017913 0)
(10.0485 -0.0184688 0)
(10.0534 -0.0189345 0)
(10.0579 -0.0193015 0)
(10.0622 -0.0196161 0)
(10.0662 -0.0198612 0)
(10.0699 -0.0200766 0)
(10.0733 -0.0202381 0)
(10.0765 -0.0203912 0)
(10.0003 -0.00290723 0)
(10.0024 -0.00805908 0)
(10.0065 -0.012682 0)
(10.0119 -0.0162445 0)
(10.0177 -0.0189796 0)
(10.0238 -0.0211211 0)
(10.0299 -0.0227649 0)
(10.0359 -0.0240031 0)
(10.0418 -0.0249092 0)
(10.0474 -0.0255778 0)
(10.0528 -0.0260438 0)
(10.0578 -0.0263673 0)
(10.0625 -0.0265558 0)
(10.0669 -0.0266645 0)
(10.071 -0.0266851 0)
(10.0748 -0.0266621 0)
(10.0783 -0.0265774 0)
(10.0816 -0.0264815 0)
(10.0004 -0.00415401 0)
(10.0031 -0.0114643 0)
(10.0082 -0.0175225 0)
(10.0145 -0.0219773 0)
(10.0212 -0.0253129 0)
(10.0278 -0.0278563 0)
(10.0345 -0.0297378 0)
(10.041 -0.031064 0)
(10.0472 -0.031976 0)
(10.0532 -0.0325718 0)
(10.0588 -0.0329398 0)
(10.064 -0.0330984 0)
(10.0689 -0.0331262 0)
(10.0735 -0.0330141 0)
(10.0777 -0.0328389 0)
(10.0815 -0.0325723 0)
(10.0851 -0.0322714 0)
(10.0885 -0.0319334 0)
(10.0005 -0.00561308 0)
(10.0042 -0.0152647 0)
(10.0108 -0.022605 0)
(10.0183 -0.0277281 0)
(10.0258 -0.0315134 0)
(10.0331 -0.0343482 0)
(10.0404 -0.0363469 0)
(10.0475 -0.0376681 0)
(10.0542 -0.0384966 0)
(10.0604 -0.0389877 0)
(10.0663 -0.0391986 0)
(10.0717 -0.0391878 0)
(10.0768 -0.0390002 0)
(10.0815 -0.038698 0)
(10.0858 -0.0382935 0)
(10.0897 -0.0378139 0)
(10.0934 -0.037269 0)
(10.0967 -0.0367133 0)
(10.0007 -0.00741048 0)
(10.0059 -0.019652 0)
(10.0144 -0.0279576 0)
(10.0233 -0.0334862 0)
(10.0317 -0.0376168 0)
(10.0399 -0.0406578 0)
(10.0479 -0.0426832 0)
(10.0555 -0.043898 0)
(10.0626 -0.0445778 0)
(10.0692 -0.0448959 0)
(10.0753 -0.0449217 0)
(10.0809 -0.0447004 0)
(10.0861 -0.0442974 0)
(10.0908 -0.0437737 0)
(10.0952 -0.0431451 0)
(10.0992 -0.0424694 0)
(10.1028 -0.0416799 0)
(10.1062 -0.0409373 0)
(10.0011 -0.00969607 0)
(10.0085 -0.0248573 0)
(10.0195 -0.0336781 0)
(10.0299 -0.0393174 0)
(10.0393 -0.0436148 0)
(10.0484 -0.0467135 0)
(10.0572 -0.0486367 0)
(10.0654 -0.0496751 0)
(10.0729 -0.0501464 0)
(10.0798 -0.0502428 0)
(10.0861 -0.0500388 0)
(10.0919 -0.0495808 0)
(10.0972 -0.0489429 0)
(10.102 -0.048173 0)
(10.1064 -0.0473175 0)
(10.1104 -0.0463951 0)
(10.1141 -0.0453821 0)
(10.1176 -0.0443638 0)
(10.0017 -0.0127484 0)
(10.0124 -0.0307111 0)
(10.0268 -0.0396505 0)
(10.039 -0.0453958 0)
(10.0497 -0.0497112 0)
(10.06 -0.0525453 0)
(10.0698 -0.0541222 0)
(10.0788 -0.0548636 0)
(10.0869 -0.055069 0)
(10.0943 -0.0549456 0)
(10.101 -0.0545537 0)
(10.1071 -0.0539044 0)
(10.1126 -0.0530906 0)
(10.1176 -0.0522119 0)
(10.1222 -0.0512841 0)
(10.1265 -0.050302 0)
(10.1304 -0.0492387 0)
(10.1343 -0.0481602 0)
(10.0028 -0.0172053 0)
(10.0191 -0.0366376 0)
(10.0384 -0.0447674 0)
(10.054 -0.0508193 0)
(10.0676 -0.0555373 0)
(10.0806 -0.0583338 0)
(10.0928 -0.0595949 0)
(10.1039 -0.0599371 0)
(10.1139 -0.0596698 0)
(10.1229 -0.0590623 0)
(10.131 -0.0582064 0)
(10.1385 -0.0571315 0)
(10.1452 -0.0559274 0)
(10.1515 -0.054678 0)
(10.1573 -0.053464 0)
(10.1628 -0.0522826 0)
(10.1681 -0.051011 0)
(10.1733 -0.0497188 0)
(10.0065 -0.0256926 0)
(10.0385 -0.0457179 0)
(10.0697 -0.0507276 0)
(10.0957 -0.0559592 0)
(10.1191 -0.0611228 0)
(10.1413 -0.0644983 0)
(10.1617 -0.066305 0)
(10.1797 -0.0671847 0)
(10.1955 -0.0674186 0)
(10.2096 -0.0671861 0)
(10.2225 -0.0665635 0)
(10.2342 -0.0657332 0)
(10.2446 -0.0647497 0)
(10.2537 -0.0636649 0)
(10.2616 -0.0625416 0)
(10.2682 -0.0614822 0)
(10.2738 -0.0604084 0)
(10.2788 -0.0596826 0)
(10.0507 -0.0370067 0)
(10.147 -0.0648201 0)
(10.2164 -0.0693377 0)
(10.2596 -0.0706032 0)
(10.2861 -0.071796 0)
(10.2988 -0.0720213 0)
(10.2992 -0.071287 0)
(10.2892 -0.069999 0)
(10.2717 -0.0684265 0)
(10.2494 -0.066746 0)
(10.2226 -0.0650454 0)
(10.1921 -0.0631637 0)
(10.1597 -0.0610405 0)
(10.1264 -0.0589667 0)
(10.0914 -0.057079 0)
(10.0554 -0.0552461 0)
(10.0197 -0.0534343 0)
(9.98571 -0.0525308 0)
(9.87025 -0.0369479 0)
(9.62835 -0.0717994 0)
(9.36425 -0.0841335 0)
(9.09659 -0.0876137 0)
(8.84101 -0.0864225 0)
(8.60615 -0.0821358 0)
(8.39139 -0.0764297 0)
(8.19631 -0.0700934 0)
(8.01936 -0.0637765 0)
(7.85847 -0.0576607 0)
(7.71349 -0.0516999 0)
(7.58339 -0.0462311 0)
(7.4656 -0.0413011 0)
(7.3589 -0.0365604 0)
(7.26363 -0.0320077 0)
(7.17863 -0.0281233 0)
(7.10115 -0.025036 0)
(7.03077 -0.023262 0)
(-0.00252956 0.00673905 -1.01767e-18)
(-0.0117074 0.0115519 1.13664e-18)
(-0.0240583 0.0128245 0)
(-0.0373202 0.0112274 0)
(-0.0473846 0.00609619 0)
(-0.0472175 -0.00270463 -8.0362e-19)
(-0.032832 -0.0147998 0)
(-0.00720798 -0.02766 0)
(0.0266194 -0.0375893 0)
(0.0657792 -0.0427771 0)
(0.107511 -0.0436243 4.24349e-19)
(0.148542 -0.0412237 0)
(0.186135 -0.0365577 0)
(0.218599 -0.0304045 0)
(0.245013 -0.0233171 0)
(0.264936 -0.0156595 2.3749e-19)
(0.278021 -0.00764885 0)
(0.284409 0.000742613 0)
(0.283227 0.00943684 0)
(0.274475 0.0180008 0)
(0.258718 0.0257105 0)
(0.236555 0.0318105 0)
(0.20882 0.0356046 0)
(0.17675 0.0365364 3.23524e-19)
(0.142053 0.0342229 -3.76618e-19)
(0.10677 0.0286687 4.54197e-19)
(0.0732101 0.0204661 5.68422e-19)
(0.0436418 0.0110074 0)
(0.0199593 0.00248231 0)
(0.00309108 -0.00311225 -1.29317e-18)
(-0.00784624 -0.00583052 -1.38566e-18)
(-0.0143119 -0.00752221 0)
(-0.0157631 -0.0094033 0)
(-0.0110061 -0.0123019 -1.34009e-18)
(-2.8287e-05 -0.0163995 0)
(0.018334 -0.0214164 0)
(0.0427281 -0.0254848 7.50324e-19)
(0.0705653 -0.0269094 0)
(0.0972802 -0.0244246 4.91123e-19)
(0.118625 -0.0186091 8.8527e-19)
(0.131883 -0.0113275 0)
(0.137255 -0.00489142 0)
(0.136696 -0.00104622 0)
(0.134161 -0.000603156 0)
(0.132976 -0.00450822 0)
(0.133275 -0.0130664 8.74205e-19)
(0.130301 -0.0240097 8.71866e-19)
(0.116857 -0.0288111 8.97967e-19)
(0.0866515 -0.0175602 0)
(0.0323685 0.00479547 -1.09901e-18)
(-0.0570077 0.0242231 0)
(-0.157171 0.0465877 4.52846e-19)
(-0.268176 0.0702006 3.17655e-19)
(-0.390766 0.0885428 0)
(-0.52135 0.100924 0)
(-0.654204 0.111576 0)
(-0.786306 0.114247 1.54704e-19)
(-0.916898 0.112904 0)
(-1.04038 0.108748 0)
(-1.15779 0.101901 0)
(-1.2671 0.0953613 0)
(-1.36846 0.0842428 0)
(-1.46135 0.0745524 0)
(-1.54605 0.068476 0)
(-1.62425 0.0625915 0)
(-1.69637 0.057148 -9.13811e-20)
(-1.7629 0.0520952 0)
(-1.82448 0.0477233 0)
(-1.88171 0.0438462 8.47919e-20)
(-1.93512 0.0404305 8.30968e-20)
(-1.98513 0.0373969 0)
(-2.0321 0.0346853 -8.01941e-20)
(-2.07635 0.0322533 7.89278e-20)
(-2.11812 0.0300401 0)
(-2.15763 0.0280327 -7.66515e-20)
(-2.19503 0.0261732 0)
(-2.2305 0.0244692 0)
(-2.26412 0.0228763 7.3646e-20)
(-2.296 0.0214075 0)
(-2.32621 0.0200342 -7.17781e-20)
(-2.35486 0.0187638 0)
(-2.38198 0.0175817 6.99412e-20)
(-2.40769 0.0164862 6.90187e-20)
(-2.43198 0.0154838 6.80929e-20)
(-2.45494 0.0145513 1.34314e-19)
(-2.47662 0.0137079 -1.32432e-19)
(-2.49709 0.0129143 0)
(-2.51639 0.0121952 0)
(-2.53451 0.0115281 0)
(-2.55155 0.0108997 -1.24764e-19)
(-2.56757 0.0103127 -1.22834e-19)
(-2.58266 0.00972848 1.20906e-19)
(-2.59687 0.00913806 0)
(-2.6102 0.00852324 -1.17055e-19)
(-2.62263 0.00786654 -1.15133e-19)
(-2.63409 0.00717121 -1.13218e-19)
(-2.64456 0.0064101 0)
(-2.65396 0.00561262 0)
(-2.66225 0.00475803 0)
(-2.66932 0.00390111 -1.05688e-19)
(-2.67511 0.00302051 0)
(-2.67952 0.00215723 0)
(-2.68245 0.00133533 1.00392e-19)
(-2.68387 0.000637998 0)
(-2.68427 2.03533e-05 0)
(-2.68354 -0.000618315 9.52918e-20)
(-2.68167 -0.00125563 0)
(-2.67862 -0.00193085 0)
(-2.67431 -0.00260689 -9.02707e-20)
(-2.66871 -0.00332651 -8.85661e-20)
(-2.66177 -0.00404257 0)
(-2.65345 -0.00480228 8.50536e-20)
(-2.64371 -0.00555321 0)
(-2.63252 -0.00634287 -8.13294e-20)
(-2.61986 -0.00711851 0)
(-2.6057 -0.00792502 -7.73115e-20)
(-2.59004 -0.00871426 -7.51705e-20)
(-2.57285 -0.00952191 0)
(-2.55416 -0.0103045 0)
(-2.53396 -0.0110859 0)
(-2.5123 -0.0118403 0)
(-2.48921 -0.0125845 0)
(-2.46472 -0.0133053 0)
(-2.43882 -0.0140079 0)
(-2.41154 -0.0146845 -5.41266e-20)
(-2.38289 -0.0153301 5.09334e-20)
(-2.35295 -0.0159466 0)
(-2.32176 -0.016515 0)
(-2.28939 -0.0170449 0)
(-2.25588 -0.0175213 0)
(-2.22131 -0.018009 6.60073e-20)
(-2.1857 -0.0184137 0)
(-2.14916 -0.018779 -4.98776e-20)
(-2.11172 -0.0190514 4.14423e-20)
(-2.07348 -0.0192331 0)
(-2.03449 -0.0192475 0)
(-1.99487 -0.0190384 0)
(-1.95469 -0.0188138 -5.32161e-21)
(-1.91388 -0.0188935 4.29424e-21)
(-1.87244 -0.0190779 0)
(-1.83043 -0.0191942 2.42988e-20)
(-1.78787 -0.0192771 3.47035e-20)
(-1.7448 -0.0193311 -4.53841e-20)
(-1.70127 -0.0193612 0)
(-1.65731 -0.019376 0)
(-1.61296 -0.0193781 -7.91661e-20)
(-1.56825 -0.0193737 0)
(-1.52319 -0.0193644 0)
(-1.4778 -0.0193552 0)
(-1.4321 -0.0193468 0)
(-1.38608 -0.0193431 1.42199e-19)
(-1.33976 -0.0193438 1.56032e-19)
(-1.29314 -0.019352 0)
(-1.24622 -0.0193677 1.85201e-19)
(-1.199 -0.0193941 0)
(-1.15148 -0.0194332 0)
(-1.10367 -0.0194885 2.33426e-19)
(-1.05555 -0.0195635 0)
(-1.00712 -0.0196605 2.69249e-19)
(-0.958357 -0.019783 0)
(-0.909251 -0.0199322 0)
(-0.859776 -0.0201123 3.30085e-19)
(-0.809905 -0.0203213 0)
(-0.759615 -0.0205612 3.76655e-19)
(-0.708879 -0.020829 0)
(-0.65768 -0.0211265 0)
(-0.605999 -0.0214523 0)
(-0.553819 -0.021809 -4.89925e-19)
(-0.501124 -0.0221959 0)
(-0.447901 -0.0226141 5.60309e-19)
(-0.394142 -0.0230602 0)
(-0.339851 -0.0235275 0)
(-0.285057 -0.0240068 0)
(-0.229826 -0.0244912 0)
(-0.174295 -0.024945 0)
(-0.118751 -0.0252423 0)
(-0.0636192 -0.025223 0)
(-0.0115335 -0.0243455 -2.00226e-18)
(0.0463172 -0.0219425 0)
(0.0632836 -0.0106158 0)
(-0.000175422 0.0183242 3.10655e-18)
(-0.0060591 0.0328982 -3.54553e-18)
(-0.0118395 0.0341361 0)
(-0.0127185 0.0257485 2.51084e-18)
(1.3509e-05 0.00552731 0)
(0.028212 -0.0287942 7.54949e-19)
(0.0657878 -0.067988 -9.55947e-19)
(0.108982 -0.100938 -6.81732e-19)
(0.154017 -0.121933 0)
(0.197548 -0.130206 -4.42921e-19)
(0.237363 -0.127962 -1.93193e-19)
(0.272418 -0.11833 0)
(0.302309 -0.104077 0)
(0.327004 -0.0872641 0)
(0.346682 -0.0692613 0)
(0.361646 -0.0508759 -1.48513e-19)
(0.372257 -0.0325131 0)
(0.378713 -0.0143636 3.01376e-19)
(0.381862 0.00357039 0)
(0.381767 0.0212032 0)
(0.378127 0.0382136 -3.1224e-19)
(0.370495 0.05416 0)
(0.358357 0.0683407 3.32402e-19)
(0.341235 0.0798494 -1.73799e-19)
(0.318876 0.0876234 1.84497e-19)
(0.291385 0.0906202 -1.99221e-19)
(0.259456 0.088089 -2.19674e-19)
(0.224455 0.0799659 0)
(0.188433 0.0670906 0)
(0.154053 0.0510812 3.40572e-19)
(0.12421 0.0335604 -4.07999e-19)
(0.101847 0.0154416 0)
(0.0889711 -0.00334301 0)
(0.0868028 -0.0224841 5.49147e-19)
(0.0951815 -0.0412071 0)
(0.111711 -0.0585447 0)
(0.131447 -0.0695574 -3.35272e-19)
(0.148289 -0.0691368 0)
(0.158356 -0.0580079 2.65001e-19)
(0.160621 -0.0404907 -5.26995e-19)
(0.155518 -0.0220769 0)
(0.143848 -0.00878608 0)
(0.126266 -0.00194607 -1.29415e-18)
(0.0987922 0.00156469 -1.42565e-18)
(0.0540624 0.00924359 -1.68758e-18)
(-0.0190371 0.0327832 7.73113e-19)
(-0.128244 0.0726286 -4.96625e-19)
(-0.255306 0.116725 -9.77804e-19)
(-0.389166 0.160901 4.66771e-19)
(-0.528642 0.20063 1.79595e-19)
(-0.672325 0.231976 0)
(-0.814791 0.254849 -1.2341e-19)
(-0.954216 0.269515 1.08762e-19)
(-1.08795 0.27559 0)
(-1.2136 0.273312 0)
(-1.32757 0.264987 0)
(-1.43035 0.252134 -7.7687e-20)
(-1.52139 0.235882 0)
(-1.60268 0.218141 1.42283e-19)
(-1.67422 0.199779 0)
(-1.7375 0.182291 1.33187e-19)
(-1.79442 0.16577 0)
(-1.84578 0.150511 -1.26735e-19)
(-1.89284 0.136913 0)
(-1.93604 0.124851 1.21455e-19)
(-1.97619 0.114239 -5.96776e-20)
(-2.01376 0.104955 0)
(-2.04922 0.0968202 -1.15384e-19)
(-2.08277 0.0896896 -5.68536e-20)
(-2.11465 0.0833751 -5.60773e-20)
(-2.145 0.0777687 0)
(-2.17393 0.0727155 -5.45925e-20)
(-2.20152 0.0681496 -5.39922e-20)
(-2.22785 0.0639531 0)
(-2.25296 0.0600959 5.27377e-20)
(-2.27689 0.0564893 -1.04218e-19)
(-2.29968 0.0531249 0)
(-2.32134 0.0499445 -5.09451e-20)
(-2.34191 0.04695 0)
(-2.36139 0.0441044 1.49254e-19)
(-2.37982 0.0414062 0)
(-2.39722 0.0388369 -1.45607e-19)
(-2.41362 0.0363882 -4.79009e-20)
(-2.42903 0.0340666 4.72901e-20)
(-2.44348 0.0318454 9.32756e-20)
(-2.457 0.029747 -9.19397e-20)
(-2.46964 0.027735 0)
(-2.48141 0.0258414 0)
(-2.4923 0.0240472 0)
(-2.50235 0.0223587 2.58912e-19)
(-2.51158 0.0207618 8.48668e-20)
(-2.52006 0.0192284 -8.34383e-20)
(-2.52779 0.0177519 0)
(-2.53479 0.0163123 -8.05405e-20)
(-2.54101 0.0148981 7.91379e-20)
(-2.54641 0.0135034 7.77019e-20)
(-2.55097 0.0120893 0)
(-2.55466 0.0106608 0)
(-2.55748 0.00916312 0)
(-2.55944 0.00762687 7.20162e-20)
(-2.56062 0.00600499 0)
(-2.56111 0.00434498 -1.38527e-19)
(-2.56103 0.00266361 -2.03743e-19)
(-2.56045 0.00104658 1.33137e-19)
(-2.5589 -0.000525558 0)
(-2.55632 -0.00211259 6.3946e-20)
(-2.55264 -0.00369791 0)
(-2.54777 -0.0053133 1.22765e-19)
(-2.54167 -0.00692555 -6.01316e-20)
(-2.53428 -0.00857337 -5.88562e-20)
(-2.52557 -0.0102108 0)
(-2.51548 -0.0118817 -1.68482e-19)
(-2.50398 -0.0135321 1.09661e-19)
(-2.49105 -0.0152079 5.33309e-20)
(-2.47666 -0.0168535 0)
(-2.4608 -0.0185152 5.03769e-20)
(-2.44345 -0.0201418 1.46794e-19)
(-2.42462 -0.0217683 0)
(-2.40431 -0.0233432 9.14783e-20)
(-2.38254 -0.0248887 8.80494e-20)
(-2.35934 -0.0263684 8.44933e-20)
(-2.33475 -0.0278036 0)
(-2.30879 -0.0291754 0)
(-2.28146 -0.0304938 0)
(-2.25279 -0.0317474 -3.47325e-20)
(-2.22282 -0.0329353 -3.19787e-20)
(-2.19161 -0.0340582 0)
(-2.15921 -0.0351039 -5.56347e-20)
(-2.12566 -0.0360874 -5.09574e-20)
(-2.09103 -0.0369868 0)
(-2.05537 -0.0378275 -4.04956e-20)
(-2.01874 -0.0385792 -7.23946e-20)
(-1.9812 -0.0392807 3.02883e-20)
(-1.9428 -0.0398936 2.65914e-20)
(-1.9036 -0.0404707 0)
(-1.86363 -0.0409871 0)
(-1.82291 -0.0414929 0)
(-1.78148 -0.04194 3.16011e-21)
(-1.73943 -0.0423317 9.01608e-22)
(-1.69685 -0.0426271 1.48029e-20)
(-1.65372 -0.0428515 -1.39633e-20)
(-1.61006 -0.0430084 1.82102e-20)
(-1.56589 -0.0431078 2.56721e-20)
(-1.52125 -0.0431576 0)
(-1.47618 -0.043172 0)
(-1.4307 -0.0431548 -4.20422e-20)
(-1.38484 -0.0431191 0)
(-1.33862 -0.0430635 0)
(-1.29204 -0.0430011 1.22327e-19)
(-1.24511 -0.0429273 0)
(-1.19785 -0.0428542 7.2858e-20)
(-1.15024 -0.0427741 -8.07002e-20)
(-1.10229 -0.0426974 0)
(-1.054 -0.0426141 9.19756e-20)
(-1.00537 -0.0425355 0)
(-0.9564 -0.042454 0)
(-0.907085 -0.0423833 -1.1327e-19)
(-0.85742 -0.0423185 2.38538e-19)
(-0.807392 -0.0422723 -1.26909e-19)
(-0.75699 -0.0422414 0)
(-0.706193 -0.0422362 0)
(-0.65498 -0.0422536 1.46653e-19)
(-0.603324 -0.0422984 0)
(-0.551203 -0.0423651 1.61541e-19)
(-0.498592 -0.0424531 0)
(-0.445473 -0.0425569 0)
(-0.391827 -0.042676 0)
(-0.337641 -0.0428089 1.95153e-19)
(-0.282899 -0.0429548 0)
(-0.227589 -0.0431122 -2.12446e-19)
(-0.171704 -0.0432772 0)
(-0.115249 -0.0434376 0)
(-0.0582464 -0.0435669 4.78833e-19)
(-0.000775864 -0.043615 -4.94261e-19)
(0.0570525 -0.0435041 0)
(0.115009 -0.0431104 0)
(0.172985 -0.0422603 0)
(0.228935 -0.0405361 1.523e-18)
(0.288095 -0.0370077 0)
(0.325585 -0.0256495 -1.05106e-18)
(0.000336975 0.0207878 3.12629e-22)
(0.000155431 0.0372985 4.90241e-18)
(0.00558154 0.0299565 0)
(0.0246874 -0.00218816 -3.37562e-18)
(0.0623522 -0.0582036 0)
(0.111745 -0.120394 0)
(0.163312 -0.170909 -4.02263e-22)
(0.210178 -0.20109 3.89246e-19)
(0.249432 -0.210938 3.33476e-19)
(0.280777 -0.204879 2.97221e-19)
(0.305229 -0.188282 0)
(0.324153 -0.165712 0)
(0.338743 -0.140363 -2.4669e-19)
(0.349872 -0.114189 -4.79265e-19)
(0.358122 -0.088271 4.71764e-19)
(0.363896 -0.0631322 0)
(0.36747 -0.0389841 4.72975e-19)
(0.369053 -0.0159062 -2.39886e-19)
(0.368868 0.00610935 0)
(0.367244 0.0271876 4.90219e-19)
(0.364441 0.0474774 2.4873e-19)
(0.360642 0.066958 -5.12162e-19)
(0.35583 0.085337 -2.65368e-19)
(0.349677 0.101993 0)
(0.341581 0.115949 5.84408e-19)
(0.330741 0.125931 6.17952e-19)
(0.316376 0.130552 0)
(0.298057 0.128624 7.08564e-19)
(0.276122 0.119566 0)
(0.251866 0.103587 8.55307e-19)
(0.227506 0.0816512 4.80005e-19)
(0.205695 0.0550054 0)
(0.188914 0.0250561 0)
(0.178003 -0.00704729 0)
(0.173367 -0.0393182 0)
(0.170252 -0.0642695 0)
(0.161593 -0.0724035 0)
(0.144081 -0.062097 8.17602e-19)
(0.119082 -0.0401532 -1.22442e-18)
(0.0867811 -0.012273 0)
(0.047044 0.0182862 0)
(-0.00619662 0.0479883 0)
(-0.0853461 0.0805086 6.02452e-22)
(-0.187941 0.124348 6.37095e-19)
(-0.308516 0.176752 9.39913e-19)
(-0.441789 0.232268 -7.25981e-19)
(-0.581782 0.286431 -2.92402e-19)
(-0.721973 0.334576 2.4372e-19)
(-0.856986 0.37402 5.85829e-22)
(-0.983184 0.404168 1.85998e-19)
(-1.0976 0.423288 0)
(-1.19942 0.431405 1.53358e-19)
(-1.28808 0.429257 1.20494e-21)
(-1.364 0.417901 0)
(-1.42879 0.399123 0)
(-1.48436 0.375281 -1.20049e-19)
(-1.53301 0.348431 0)
(-1.57631 0.320388 0)
(-1.61606 0.292795 1.07535e-19)
(-1.65328 0.266487 2.06796e-19)
(-1.68875 0.242247 -9.98673e-20)
(-1.72308 0.220195 0)
(-1.75667 0.200542 9.50802e-20)
(-1.78956 0.183414 0)
(-1.82167 0.168469 9.13095e-20)
(-1.85299 0.155393 8.93148e-20)
(-1.88353 0.143925 -1.75407e-19)
(-1.91327 0.133821 -8.61532e-20)
(-1.94217 0.124862 0)
(-1.97018 0.116833 1.66818e-19)
(-1.9973 0.10958 0)
(-2.02349 0.102951 2.42973e-19)
(-2.04873 0.0968456 1.59675e-19)
(-2.073 0.0911627 1.57506e-19)
(-2.0963 0.0858419 -1.55409e-19)
(-2.1186 0.0808184 2.30097e-19)
(-2.13992 0.0760616 0)
(-2.16023 0.0715337 0)
(-2.17953 0.0672215 -1.47396e-19)
(-2.19784 0.0631036 -2.18124e-19)
(-2.21516 0.0591707 0)
(-2.2315 0.0554128 7.06762e-20)
(-2.24688 0.0518218 0)
(-2.26132 0.0483957 -2.05805e-19)
(-2.27483 0.0451194 7.63307e-23)
(-2.28747 0.0419968 -8.24134e-23)
(-2.29925 0.0390107 1.30687e-19)
(-2.3102 0.0361688 0)
(-2.32031 0.0334611 -1.26159e-19)
(-2.32962 0.0308817 5.1903e-23)
(-2.33819 0.0284131 0)
(-2.34604 0.0260301 0)
(-2.35322 0.0237179 0)
(-2.35972 0.0214536 1.14685e-19)
(-2.36551 0.0192361 0)
(-2.37058 0.0170415 0)
(-2.37489 0.0148682 0)
(-2.37844 0.01269 0)
(-2.38122 0.0105044 0)
(-2.38323 0.00829629 1.01225e-19)
(-2.38445 0.00605707 0)
(-2.3849 0.00378135 9.70244e-20)
(-2.38454 0.00145174 9.48878e-20)
(-2.38331 -0.000952406 -9.27984e-20)
(-2.38111 -0.00344519 0)
(-2.37787 -0.00598641 -8.87252e-20)
(-2.37354 -0.00857377 0)
(-2.36805 -0.0111927 -8.47478e-20)
(-2.36134 -0.0138483 8.27717e-20)
(-2.35336 -0.0165288 2.42506e-19)
(-2.34406 -0.0192344 0)
(-2.33341 -0.0219531 2.30565e-19)
(-2.32137 -0.024679 7.50165e-20)
(-2.30792 -0.0274012 0)
(-2.29302 -0.0301099 1.41376e-19)
(-2.27668 -0.0327981 1.37027e-19)
(-2.25889 -0.0354533 -1.98565e-19)
(-2.23964 -0.0380661 0)
(-2.21895 -0.0406172 -6.12746e-20)
(-2.19685 -0.043097 -5.88e-20)
(-2.17336 -0.0454865 -1.69497e-19)
(-2.1485 -0.0477868 0)
(-2.1223 -0.0499861 0)
(-2.09477 -0.0520859 0)
(-2.06596 -0.0540761 -4.61698e-20)
(-2.03591 -0.0559565 0)
(-2.00465 -0.0577193 0)
(-1.97226 -0.0593631 3.61989e-20)
(-1.93878 -0.0608858 3.30404e-20)
(-1.90425 -0.0622859 0)
(-1.86875 -0.063568 0)
(-1.83231 -0.0647247 4.64392e-20)
(-1.795 -0.0657651 0)
(-1.75686 -0.0666803 -3.28715e-20)
(-1.71794 -0.0674835 -2.7094e-20)
(-1.67828 -0.0681767 0)
(-1.63794 -0.0687781 0)
(-1.59695 -0.0692998 6.09026e-21)
(-1.55538 -0.0697577 -1.1348e-21)
(-1.51328 -0.0701267 -1.13069e-21)
(-1.47064 -0.0703978 0)
(-1.42748 -0.0705729 -4.57281e-20)
(-1.38383 -0.0706647 0)
(-1.33971 -0.0706839 0)
(-1.29516 -0.0706481 0)
(-1.2502 -0.0705646 5.18475e-20)
(-1.20486 -0.0704493 0)
(-1.15913 -0.0703047 -1.29786e-19)
(-1.11304 -0.0701454 -7.30002e-20)
(-1.06659 -0.0699705 0)
(-1.01977 -0.0697929 -8.69998e-20)
(-0.972601 -0.0696072 0)
(-0.925061 -0.0694229 0)
(-0.877154 -0.069231 -3.21545e-19)
(-0.828877 -0.0690411 2.27556e-19)
(-0.780229 -0.0688478 0)
(-0.731206 -0.0686648 2.55339e-19)
(-0.6818 -0.0684906 -1.35674e-19)
(-0.632002 -0.0683382 0)
(-0.581798 -0.0682072 0)
(-0.531169 -0.0681077 0)
(-0.480097 -0.0680389 -4.88934e-19)
(-0.428557 -0.0680038 0)
(-0.376528 -0.0679972 -1.77896e-19)
(-0.323988 -0.0680141 0)
(-0.270919 -0.0680487 0)
(-0.217308 -0.0680966 0)
(-0.163139 -0.0681577 0)
(-0.108401 -0.0682269 0)
(-0.0530828 -0.0683018 0)
(0.00281256 -0.0683688 -4.5449e-19)
(0.0592817 -0.0684121 0)
(0.116317 -0.0683956 -2.36115e-19)
(0.173877 -0.0682625 7.15652e-19)
(0.231876 -0.0679106 0)
(0.290098 -0.0671791 0)
(0.348525 -0.0658271 -4.95216e-19)
(0.405621 -0.0633686 -5.04344e-19)
(0.465453 -0.0589005 5.11175e-19)
(0.512658 -0.0473709 5.26532e-19)
(-0.00104648 0.0208163 -6.24759e-18)
(0.00157188 0.0255694 -7.75124e-18)
(0.02217 -0.0157585 -3.38081e-18)
(0.0677058 -0.0947018 -9.06379e-19)
(0.126396 -0.178397 0)
(0.183031 -0.240825 8.33743e-19)
(0.228344 -0.272757 -3.37314e-19)
(0.260428 -0.277819 0)
(0.281536 -0.264509 -2.59854e-19)
(0.295036 -0.240825 0)
(0.30379 -0.212266 4.51867e-19)
(0.309695 -0.181993 0)
(0.313808 -0.151634 2.08607e-19)
(0.31665 -0.121947 4.09342e-19)
(0.318422 -0.0932686 -4.06201e-19)
(0.31919 -0.0657401 0)
(0.318974 -0.0394195 -4.12633e-19)
(0.317798 -0.0143365 0)
(0.315699 0.00949273 0)
(0.312775 0.0321015 -4.3072e-19)
(0.309144 0.0535365 0)
(0.305005 0.0738147 -7.04838e-22)
(0.30057 0.0928705 0)
(0.295957 0.110446 0)
(0.291116 0.126027 6.19499e-22)
(0.285765 0.138735 -5.46011e-19)
(0.279379 0.147316 -5.85432e-19)
(0.271249 0.150238 -6.29355e-19)
(0.260774 0.146023 0)
(0.24769 0.133528 -1.48872e-18)
(0.232488 0.11239 0)
(0.216059 0.0833475 -9.23924e-19)
(0.199802 0.048104 0)
(0.184123 0.00967429 0)
(0.164554 -0.0235194 1.02414e-18)
(0.134942 -0.0379025 0)
(0.0938849 -0.0296452 -8.11991e-19)
(0.0429325 -0.00371935 -8.27259e-22)
(-0.0190088 0.0344203 1.58935e-18)
(-0.0965017 0.0822225 -1.30195e-18)
(-0.189502 0.138525 0)
(-0.297332 0.199817 0)
(-0.418089 0.262542 -3.33788e-19)
(-0.546206 0.32508 0)
(-0.676053 0.385541 -2.31898e-19)
(-0.802033 0.439168 2.00636e-19)
(-0.919242 0.481768 1.77415e-19)
(-1.02394 0.51278 0)
(-1.1151 0.53205 -1.44999e-19)
(-1.19207 0.539974 -1.33513e-19)
(-1.25533 0.53738 2.5026e-19)
(-1.30678 0.525563 -1.16363e-19)
(-1.34842 0.506195 -1.09779e-19)
(-1.38272 0.481054 0)