/*--------------------------------*- C++ -*----------------------------------*\
  =========                 |
  \\      /  F ield         | OpenFOAM: The Open Source CFD Toolbox
   \\    /   O peration     | Website:  https://openfoam.org
    \\  /    A nd           | Version:  13
     \\/     M anipulation  |
\*---------------------------------------------------------------------------*/
FoamFile
{
    format      ascii;
    class       volScalarField;
    location    "6.5";
    object      epsilon;
}
// * * * * * * * * * * * * * * * * * * * * * * * * * * * * * * * * * * * * * //

dimensions      [0 2 -3 0 0 0 0];

internalField   nonuniform List<scalar> 
6400
(
2.63774e-05
0.000135484
0.000328762
0.000530354
0.000683106
0.000769211
0.000800527
0.000803199
0.000807202
0.000835965
0.000907239
0.00104918
0.00127554
0.00159141
0.0019815
0.00242446
0.00289805
0.00339183
0.00388462
0.00436203
0.00483892
0.00535474
0.00596357
0.00670253
0.00754777
0.00841278
0.00927001
0.010119
0.0109845
0.0118911
0.01283
0.0137661
0.0146856
0.0155871
0.0164965
0.0174184
0.0183737
0.0193684
0.0204156
0.0215194
0.0226875
0.0239289
0.025251
0.0266729
0.0282003
0.0298823
0.0318061
0.0341677
0.0366659
0.0391762
0.0416619
0.0440809
0.0463668
0.0484528
0.0502644
0.0517118
0.0525101
0.0528393
0.0528593
0.0519519
0.0502618
0.047784
0.0445519
0.040665
0.0362403
0.0314724
0.0266064
0.0218377
0.0173468
0.0133162
0.0100574
0.00732113
0.00510849
0.00341281
0.00219168
0.00135975
0.000817278
0.000468217
0.00022096
4.7017e-05
0.000127721
0.000127438
0.000208566
0.00030282
0.000373921
0.000417118
0.000438341
0.000447747
0.000458089
0.000482142
0.000533591
0.000632325
0.000794346
0.00103222
0.00135011
0.00174944
0.00223225
0.00280476
0.00347266
0.00424454
0.00512794
0.00615748
0.00738375
0.00883483
0.0105039
0.0124088
0.0143988
0.0163276
0.0180908
0.0195974
0.0207417
0.0216307
0.0222367
0.022653
0.0229177
0.023088
0.0232051
0.0233026
0.0234048
0.0235307
0.0237026
0.0239268
0.0242174
0.0245321
0.0249019
0.0253506
0.0258829
0.0264881
0.0271769
0.027898
0.0286645
0.0294262
0.0301693
0.0308451
0.031414
0.0317526
0.0318738
0.0317976
0.0314376
0.0306853
0.0295597
0.0280436
0.0261234
0.0238755
0.0213798
0.0187373
0.0160642
0.0134785
0.0110693
0.00892335
0.00711371
0.00556323
0.00423531
0.00310737
0.0021765
0.00142693
0.000870496
0.000488577
0.000253588
0.000248624
0.000279687
0.000231976
0.000310825
0.000391868
0.000440871
0.000465447
0.000478406
0.000492939
0.000523114
0.000586016
0.000705047
0.000907604
0.0012207
0.0016642
0.00225048
0.00299219
0.00390165
0.00499327
0.00627694
0.00775889
0.00944462
0.0113045
0.0132569
0.0151576
0.0168294
0.0180438
0.018775
0.0191813
0.019383
0.0195195
0.0196077
0.0195522
0.0192522
0.0189682
0.0186661
0.0184016
0.0181851
0.0180497
0.017992
0.0179833
0.0180844
0.0182655
0.0185343
0.0189281
0.0194293
0.0200225
0.0206963
0.0214462
0.0222709
0.0231532
0.0240851
0.0250432
0.0260067
0.0269406
0.0278066
0.0285556
0.0291318
0.0294077
0.0294615
0.0291651
0.0284364
0.0272626
0.0256063
0.0235809
0.0212604
0.0187457
0.0161629
0.0136261
0.0112421
0.00909494
0.00723934
0.00567742
0.00438655
0.00332726
0.00246209
0.00176729
0.0012007
0.000751268
0.000465386
0.000663995
0.000486233
0.000401093
0.000491956
0.000570627
0.000611165
0.000631452
0.000650964
0.000689626
0.000769185
0.000920045
0.00118068
0.00159275
0.00219138
0.00299855
0.00402496
0.00527515
0.00674984
0.00843022
0.0102647
0.0121628
0.0139942
0.0156158
0.0168789
0.017577
0.0178732
0.0179474
0.0179154
0.0175833
0.017057
0.0164767
0.0158216
0.0153098
0.0149152
0.0145827
0.0143291
0.0141689
0.0140965
0.0140795
0.0141557
0.0143154
0.0145596
0.0148832
0.0152902
0.0157813
0.0163523
0.0170038
0.0177366
0.0185497
0.0194421
0.020409
0.0214434
0.0225328
0.0236595
0.0247965
0.0259084
0.0269485
0.0278577
0.0285632
0.0289092
0.0289926
0.0286516
0.0278746
0.02668
0.0248807
0.0226499
0.0201071
0.0173929
0.0146552
0.01204
0.00966725
0.00761608
0.00591418
0.00454511
0.00346333
0.00261422
0.00194773
0.00141126
0.000974738
0.000696439
0.00110297
0.000780806
0.000637052
0.000728302
0.000805098
0.000847945
0.000880515
0.000929227
0.00102407
0.00120208
0.00151074
0.00200404
0.00273047
0.00371927
0.00497555
0.00648396
0.00820945
0.0100885
0.0120146
0.0138316
0.0153736
0.0164279
0.0169062
0.0170485
0.0170113
0.0166176
0.015926
0.0150695
0.014271
0.0136153
0.0130157
0.012512
0.0121234
0.0118185
0.0115908
0.0114457
0.0113776
0.0113571
0.011391
0.0115033
0.0116678
0.0118942
0.0121784
0.0125242
0.0129329
0.0134078
0.0139534
0.0145745
0.0152759
0.0160623
0.0169376
0.0179042
0.0189594
0.0200974
0.0213049
0.0225614
0.0238355
0.0250734
0.0262152
0.0271838
0.027802
0.0280402
0.0279124
0.0271974
0.0260566
0.0241705
0.0217657
0.0190098
0.0160804
0.0131711
0.0104673
0.00810969
0.00616939
0.00464583
0.00348664
0.00261344
0.00195624
0.00145438
0.00106754
0.000848195
0.00140401
0.00120216
0.000948324
0.00102448
0.00110346
0.00116269
0.00122841
0.00133626
0.00153066
0.00186671
0.00240806
0.00321465
0.00432377
0.00573586
0.00741218
0.00927781
0.0112203
0.0130875
0.0146975
0.0158027
0.016291
0.016412
0.0162997
0.0157778
0.0148424
0.0138552
0.0129697
0.0121698
0.0114927
0.0109262
0.0104459
0.0100598
0.0097528
0.0095105
0.00932727
0.00919646
0.00911603
0.00907906
0.00906972
0.00910478
0.00917826
0.00928881
0.0094387
0.00962873
0.00986326
0.0101464
0.0104853
0.0108874
0.0113631
0.0119235
0.012581
0.0133492
0.0142398
0.0152623
0.0164209
0.0177104
0.0191181
0.0206172
0.0221571
0.0236805
0.0250795
0.0262387
0.0268586
0.0270442
0.0266138
0.0256865
0.0237313
0.0211599
0.0181509
0.0149422
0.0118052
0.00898746
0.00664919
0.00484063
0.00351814
0.00257444
0.00190618
0.00142147
0.00106523
0.000907883
0.00151189
0.00178833
0.00134119
0.0013921
0.00148323
0.00157668
0.00170082
0.00190385
0.00224696
0.00280077
0.00363396
0.00479224
0.00627664
0.00803274
0.00995248
0.0118814
0.0136289
0.0149962
0.0156756
0.0158821
0.0158315
0.0153184
0.0143181
0.0132097
0.0122075
0.0112957
0.0105196
0.00985109
0.00929158
0.00881885
0.0084218
0.00809189
0.00781582
0.00758569
0.00739548
0.00724002
0.00711572
0.00701874
0.00694727
0.00690781
0.00689117
0.00688894
0.0069205
0.0069769
0.00706571
0.00718687
0.00734754
0.00755279
0.00781159
0.0081353
0.00853832
0.00903847
0.00965943
0.010426
0.0113644
0.0124904
0.0138294
0.0153911
0.017148
0.0190468
0.0210388
0.0229972
0.024775
0.0260607
0.0266159
0.0266541
0.0258597
0.0238627
0.0210502
0.0176679
0.0140593
0.0106178
0.00765858
0.00534882
0.0036937
0.00258298
0.00183865
0.00134733
0.00102774
0.000899928
0.00146719
0.00257495
0.0018204
0.00184442
0.0019615
0.00211046
0.00232114
0.00265647
0.00319207
0.00400343
0.00514468
0.00662282
0.00837952
0.0102888
0.0121695
0.0138093
0.0149027
0.0153554
0.0154366
0.0150999
0.0142233
0.0130302
0.0118942
0.0108582
0.00996519
0.00919224
0.00853861
0.00797816
0.00750197
0.00709264
0.00674183
0.00643987
0.00617903
0.00595424
0.00576128
0.00559701
0.00545845
0.00534291
0.00524944
0.00517728
0.0051243
0.00509647
0.00508622
0.00508923
0.00512471
0.00518039
0.00526504
0.0053799
0.00553117
0.00572321
0.00596366
0.00626246
0.00663351
0.00709614
0.00768014
0.0084351
0.009403
0.0106457
0.0122112
0.0140847
0.016278
0.0187012
0.0212219
0.0236681
0.0257449
0.0268583
0.0272142
0.0266694
0.0245677
0.0213914
0.0174757
0.0133556
0.00955772
0.00646252
0.00421463
0.00274532
0.00184661
0.00128833
0.000965488
0.000864606
0.00136317
0.00358766
0.00238943
0.00239098
0.00255476
0.0027791
0.00310235
0.00359936
0.00435132
0.00542158
0.00682752
0.00851716
0.0103611
0.0121647
0.0136974
0.0145967
0.0149123
0.0149304
0.0143543
0.0132336
0.0119848
0.0108129
0.00977959
0.00888503
0.00812444
0.00747272
0.00691645
0.00643669
0.00602413
0.00566724
0.00535974
0.0050947
0.00486747
0.0046741
0.00451081
0.00437455
0.0042629
0.00417373
0.00410526
0.00405571
0.00402703
0.00401479
0.00401256
0.00403101
0.00406722
0.00412082
0.00419386
0.00428738
0.00440402
0.00454655
0.00471922
0.0049273
0.00517793
0.00548098
0.00584959
0.00630383
0.00687257
0.00760131
0.00856695
0.0099148
0.0117161
0.01402
0.0167656
0.019816
0.0229439
0.0257972
0.027582
0.0282611
0.0279795
0.0257059
0.0219775
0.0173923
0.0126855
0.00853375
0.00535894
0.00323928
0.00198727
0.00129554
0.000919306
0.000809508
0.00124785
0.00483748
0.00305556
0.0030442
0.00326915
0.00358685
0.00404073
0.0047112
0.00567169
0.00695464
0.00852323
0.0102581
0.0119659
0.0134107
0.0142162
0.0144801
0.0143832
0.0136389
0.0124058
0.0111445
0.00994773
0.00890799
0.0080175
0.0072589
0.00661343
0.00606033
0.00558684
0.00518055
0.00483398
0.00453926
0.00429105
0.00408366
0.00391265
0.00377355
0.00366255
0.00357603
0.00351088
0.00346435
0.00343595
0.00342297
0.00341954
0.00342891
0.00345187
0.00348718
0.00353482
0.0035953
0.00366925
0.00375789
0.00386272
0.00398567
0.00412922
0.00429652
0.00449173
0.00472048
0.00499057
0.00531073
0.00569451
0.00616374
0.00675428
0.00752536
0.00857429
0.0100905
0.0122994
0.0152175
0.0187225
0.0225232
0.0262232
0.0287028
0.0296867
0.0295779
0.0270231
0.0225744
0.0172058
0.0118969
0.00746453
0.0043195
0.00241042
0.00140232
0.000922171
0.00076333
0.00115616
0.00634117
0.00383269
0.00380924
0.00410363
0.00452474
0.00511285
0.00594402
0.00706917
0.00847517
0.0100641
0.011657
0.0130227
0.013788
0.0140381
0.0138685
0.013038
0.0117753
0.0104716
0.00926935
0.00821399
0.00732249
0.00656573
0.00592432
0.00537964
0.00491714
0.0045269
0.0041999
0.00392916
0.00370751
0.00352881
0.00338686
0.00327624
0.00319183
0.00312927
0.00308486
0.00305621
0.00304228
0.00303746
0.00303974
0.00305466
0.00307772
0.00311069
0.00315296
0.00320548
0.00326888
0.00334432
0.00343312
0.00353665
0.00365649
0.00379433
0.00395201
0.00413156
0.00433534
0.00456636
0.00482898
0.00512998
0.00548045
0.00589905
0.00641207
0.00706448
0.00794308
0.00920065
0.0111359
0.0140725
0.0179172
0.0223868
0.0269755
0.0301515
0.0314081
0.0313501
0.0282692
0.0229215
0.0167036
0.0108576
0.00630302
0.00333887
0.00172705
0.000991104
0.000756177
0.00113269
0.00818176
0.00474909
0.00468335
0.00504613
0.00556923
0.0062772
0.00723035
0.00844522
0.00985687
0.0113126
0.0125961
0.0133455
0.0135961
0.013409
0.0125391
0.0113019
0.00996992
0.00874393
0.00767757
0.00677437
0.00601788
0.00537996
0.00484455
0.00439666
0.00402551
0.0037219
0.003477
0.00328263
0.00313071
0.00301396
0.00292564
0.00286008
0.00281245
0.00277899
0.00275689
0.00274588
0.00274164
0.00274132
0.00275054
0.00276663
0.00278994
0.00282136
0.00286147
0.00291143
0.00297233
0.00304556
0.00313263
0.00323514
0.0033548
0.00349338
0.00365265
0.00383431
0.0040399
0.0042707
0.00452782
0.0048126
0.00512751
0.0054782
0.00587721
0.00634956
0.00693981
0.00771431
0.00881766
0.010511
0.0133237
0.0174362
0.0225506
0.0280527
0.0318757
0.0333378
0.0331139
0.0291562
0.0227499
0.0156806
0.00948138
0.00504962
0.00244599
0.00121119
0.000796223
0.00118233
0.0102346
0.00576651
0.00564661
0.00607274
0.00668465
0.00748045
0.00849538
0.00970595
0.0109993
0.0121855
0.0129229
0.0131763
0.013002
0.0121629
0.0109591
0.0096229
0.00836398
0.00727528
0.00635769
0.00559332
0.0049578
0.00442969
0.00399562
0.00364269
0.00336042
0.00313834
0.00296636
0.00283507
0.00273586
0.00266142
0.00260564
0.00256378
0.00253228
0.00250869
0.00249143
0.00247967
0.00247372
0.00247165
0.00247463
0.00248487
0.0025019
0.00252681
0.00256064
0.00260457
0.00265988
0.00272805
0.00281068
0.00290953
0.00302655
0.00316381
0.00332348
0.00350771
0.00371849
0.0039574
0.0042254
0.00452255
0.00484806
0.0052008
0.005581
0.00599415
0.0064582
0.00701543
0.00773738
0.00875124
0.0103259
0.012989
0.0173175
0.023065
0.0295001
0.0338208
0.0353558
0.0346229
0.0293913
0.0217673
0.0139808
0.00777
0.00376382
0.00170939
0.000942101
0.00137463
0.0124394
0.00686168
0.00667443
0.00715156
0.00782779
0.00866527
0.00966899
0.0107772
0.0118419
0.0125558
0.0128076
0.0126783
0.01191
0.0107435
0.00941273
0.00812296
0.00699714
0.00605624
0.00527777
0.00463781
0.00411385
0.00368913
0.00335049
0.00308471
0.00287981
0.00272387
0.00260614
0.00251721
0.0024493
0.00239631
0.00235373
0.00231844
0.00228847
0.00226273
0.0022408
0.00222271
0.00220877
0.00220073
0.00219771
0.00219867
0.00220894
0.00222689
0.002254
0.00229134
0.00234013
0.00240179
0.00247791
0.0025703
0.00268107
0.00281254
0.00296733
0.00314821
0.00335803
0.00359942
0.00387451
0.00418446
0.00452889
0.00490556
0.00531042
0.00573894
0.00618985
0.00667313
0.00722477
0.00792584
0.00889729
0.0104164
0.0130424
0.0176071
0.0240259
0.0313999
0.0358979
0.0372629
0.0355292
0.0286123
0.019706
0.0116013
0.0058362
0.00262164
0.0012845
0.00181943
0.0147246
0.00800673
0.00773698
0.00824554
0.00895247
0.00977683
0.0106924
0.0116065
0.0122699
0.012513
0.0124433
0.011762
0.0106543
0.00933249
0.00801337
0.0068399
0.00586059
0.00505894
0.00440635
0.00387946
0.0034585
0.00312781
0.00287271
0.00267875
0.00253272
0.00242258
0.0023383
0.00227186
0.00221731
0.00217051
0.00212881
0.00209073
0.00205565
0.00202351
0.00199465
0.00196961
0.00194902
0.00193363
0.0019254
0.00192245
0.00192525
0.00193827
0.00195967
0.00199115
0.00203359
0.00208829
0.00215674
0.00224071
0.00234231
0.002464
0.00260868
0.0027796
0.00298038
0.0032148
0.00348654
0.00379866
0.00415295
0.00454906
0.00498368
0.00545014
0.00593936
0.00644366
0.00696547
0.0075348
0.00823714
0.00920445
0.0107315
0.0134521
0.0183766
0.0255758
0.0338277
0.0379409
0.0388986
0.0353541
0.0263657
0.0165512
0.00874829
0.00401031
0.00187988
0.00250379
0.0170183
0.00917104
0.0088015
0.00931586
0.010014
0.0107672
0.0115197
0.0121046
0.0123345
0.0122875
0.0117157
0.0106811
0.00938171
0.00803249
0.0068029
0.00576853
0.00492911
0.00425379
0.0037147
0.00328989
0.00296037
0.00270938
0.00252068
0.00237925
0.00227216
0.00218867
0.00212067
0.00206236
0.00200994
0.0019612
0.0019151
0.00187138
0.00183028
0.0017923
0.00175808
0.00172826
0.00170347
0.00168429
0.00167229
0.00166704
0.00166617
0.00167509
0.00169244
0.00171902
0.00175574
0.00180369
0.00186421
0.00193892
0.00202983
0.00213938
0.00227049
0.00242665
0.00261195
0.00283098
0.00308871
0.00339015
0.00373968
0.00414015
0.0045916
0.00508985
0.00562559
0.00618485
0.00675305
0.00732503
0.00792649
0.00865197
0.00964572
0.0112472
0.0142212
0.0197597
0.0280285
0.0364252
0.039918
0.0401148
0.033407
0.022571
0.0125776
0.00592249
0.00272716
0.00337015
0.0192778
0.0103242
0.00983513
0.0103252
0.0109731
0.0116002
0.0120986
0.0123078
0.0122392
0.0117781
0.0108183
0.00955615
0.00818336
0.00688911
0.00578308
0.00488694
0.00417471
0.00361264
0.00317458
0.00283871
0.00258536
0.00239646
0.00225535
0.00214789
0.00206277
0.0019916
0.00192867
0.00187047
0.00181513
0.00176194
0.00171094
0.00166255
0.0016174
0.00157612
0.00153933
0.00150756
0.00148127
0.00146086
0.00144715
0.00144065
0.00143883
0.00144466
0.00145918
0.00148179
0.00151358
0.00155536
0.00160834
0.00167395
0.00175401
0.00185079
0.00196708
0.00210631
0.00227265
0.00247106
0.00270728
0.00298768
0.00331888
0.00370695
0.00415616
0.00466722
0.00523521
0.00584781
0.00648544
0.00712554
0.00775484
0.00839732
0.00916281
0.0102107
0.0119614
0.0153462
0.0217266
0.0313688
0.0394336
0.0420123
0.0398528
0.0294785
0.0174389
0.00843882
0.00385213
0.00436413
0.021454
0.0114364
0.0108062
0.0112406
0.0118001
0.0122317
0.0124102
0.0123268
0.0119432
0.0110678
0.00985211
0.00846817
0.00710678
0.005912
0.00493747
0.00416916
0.00357041
0.00310836
0.00275745
0.00249508
0.00230075
0.00215617
0.00204576
0.0019574
0.00188231
0.00181468
0.00175114
0.00169005
0.00163096
0.00157408
0.00151999
0.00146934
0.00142278
0.00138085
0.00134398
0.00131249
0.00128664
0.0012666
0.0012528
0.0012461
0.00124398
0.00124798
0.00126035
0.00127977
0.00130735
0.00134372
0.00138992
0.0014472
0.00151717
0.00160183
0.00170373
0.00182606
0.00197277
0.00214875
0.00235995
0.0026134
0.0029171
0.00327956
0.00370889
0.00421111
0.00478776
0.00543291
0.00613047
0.0068539
0.00757131
0.00826166
0.0089526
0.00976871
0.0109082
0.012934
0.0170265
0.0245453
0.0356445
0.0422609
0.0435121
0.0367481
0.0234337
0.0117141
0.00530375
0.00543956
0.0234652
0.0124786
0.0116883
0.0120391
0.0124641
0.0126504
0.0125915
0.0122027
0.0114262
0.0102702
0.00888787
0.00746521
0.00616884
0.0050918
0.00424355
0.00358977
0.00309076
0.00271478
0.00243588
0.00223074
0.00207894
0.00196332
0.00187055
0.00179116
0.00171906
0.00165083
0.00158492
0.00152102
0.00145949
0.00140095
0.00134612
0.00129559
0.00124985
0.00120922
0.00117392
0.00114407
0.00111972
0.00110091
0.00108782
0.00108138
0.00107925
0.00108216
0.00109278
0.0011096
0.00113359
0.0011653
0.0012056
0.00125558
0.00131662
0.00139048
0.00147939
0.00158619
0.00171446
0.00186875
0.00205476
0.00227953
0.00255156
0.00288075
0.00327787
0.00375343
0.00431552
0.00496646
0.00569861
0.00649048
0.00730604
0.00810213
0.00885221
0.00959707
0.0104716
0.011771
0.0142678
0.0195396
0.0288652
0.0401797
0.0447092
0.0432164
0.0304548
0.0159213
0.00712403
0.006559
0.0252371
0.0134238
0.0124605
0.0127018
0.0129306
0.0129316
0.0125771
0.0119006
0.0108069
0.00944429
0.00797204
0.0065701
0.00536786
0.00441104
0.00367821
0.00312515
0.00271206
0.00240767
0.0021855
0.00202239
0.00189912
0.00180078
0.00171681
0.00164053
0.00156822
0.00149831
0.0014305
0.00136524
0.0013032
0.00124509
0.00119149
0.00114282
0.00109932
0.00106111
0.00102822
0.00100059
0.000978155
0.000960865
0.000948715
0.000942687
0.000940623
0.000942797
0.000951919
0.000966546
0.00098748
0.0010152
0.00105046
0.00109419
0.00114757
0.00121213
0.00128978
0.001383
0.00149495
0.00162968
0.00179238
0.00198968
0.00222989
0.00252326
0.0028819
0.00331928
0.00384875
0.00448067
0.0052179
0.00604979
0.00694673
0.00785925
0.00872979
0.00952959
0.0103292
0.0112854
0.012846
0.0161217
0.023035
0.0348754
0.044502
0.0466078
0.0380281
0.0212144
0.00935991
0.00773222
0.0267278
0.0142512
0.0131023
0.0132006
0.013278
0.0130603
0.0124587
0.011459
0.0101341
0.00863299
0.00713136
0.00578867
0.00469265
0.00385004
0.00321986
0.00275388
0.00241296
0.00216595
0.00198646
0.00185252
0.0017471
0.00165809
0.00157778
0.00150189
0.00142861
0.00135758
0.00128925
0.00122433
0.00116353
0.00110741
0.00105635
0.00101051
0.000969956
0.000934608
0.000904351
0.000879039
0.000858532
0.000842716
0.000831498
0.000825833
0.000823837
0.000825397
0.000833209
0.000845943
0.000864251
0.00088857
0.00091954
0.000957965
0.00100487
0.00106155
0.00112967
0.00121135
0.00130932
0.00142712
0.00156935
0.00174196
0.00195267
0.00221135
0.00253031
0.00292439
0.0034103
0.00400467
0.00472027
0.00555965
0.00650688
0.00752004
0.00853097
0.00946553
0.010302
0.0111443
0.0122321
0.0142696
0.0189102
0.0282072
0.0417581
0.0476956
0.0450503
0.027672
0.0120826
0.00893627
0.0279159
0.0149554
0.0136075
0.0135564
0.0134833
0.0130389
0.0121974
0.0109476
0.00944665
0.00786474
0.00637808
0.00511665
0.00412814
0.00338972
0.00284911
0.00245705
0.00217511
0.00197246
0.00182374
0.00170903
0.00161407
0.0015296
0.00145043
0.00137423
0.00130047
0.00122952
0.00116211
0.00109895
0.00104062
0.000987435
0.000939549
0.00089694
0.000859484
0.000826997
0.000799273
0.00077611
0.000757332
0.000742801
0.000732412
0.000726989
0.000725021
0.00072601
0.000732651
0.00074373
0.000759772
0.000781177
0.0008085
0.000842439
0.000883881
0.000933948
0.000994065
0.00106606
0.00115227
0.00125576
0.00138051
0.00153177
0.00171644
0.00194359
0.00222499
0.00257556
0.00301349
0.00355941
0.00423376
0.00505149
0.00601318
0.00709351
0.0082311
0.00933124
0.0103016
0.011137
0.0120441
0.0133894
0.016331
0.0232112
0.0360808
0.0474777
0.0495205
0.0352815
0.0154869
0.0102875
0.0287951
0.0155388
0.0139751
0.01378
0.0135486
0.0129313
0.011841
0.0103978
0.00877251
0.00715619
0.00571461
0.00454452
0.00365849
0.00301277
0.00254911
0.00221857
0.00198353
0.00181411
0.00168675
0.00158418
0.00149499
0.00141255
0.00133371
0.00125753
0.00118425
0.00111456
0.00104922
0.000988775
0.000933578
0.00088374
0.000839207
0.000799808
0.000765309
0.000735456
0.000709997
0.000688708
0.000671402
0.00065794
0.000648217
0.000642932
0.00064095
0.0006414
0.000646982
0.000656606
0.000670685
0.000689586
0.000713795
0.000743929
0.000780761
0.000825267
0.00087868
0.000942574
0.00101897
0.00111048
0.00122055
0.00135373
0.00151608
0.00171569
0.00196335
0.00227324
0.00266362
0.00315687
0.00377838
0.00455278
0.00549633
0.00660445
0.00783618
0.00910239
0.0102763
0.0112542
0.0120356
0.013064
0.0149394
0.0195877
0.0298397
0.0451906
0.0513745
0.0435997
0.0198916
0.0120518
0.0293797
0.0159989
0.0142174
0.0138795
0.0135072
0.0127059
0.0114285
0.00983586
0.00813087
0.00651528
0.00513733
0.00406059
0.00326879
0.00270405
0.00230553
0.00202522
0.00182662
0.00168141
0.00156844
0.00147328
0.0013872
0.00130576
0.00122735
0.0011519
0.00108005
0.00101255
0.000949996
0.000892757
0.000840946
0.000794489
0.000753186
0.000716766
0.000684932
0.000657395
0.000633888
0.000614185
0.000598104
0.000585507
0.000576302
0.000571067
0.000569028
0.000569012
0.000573621
0.000581962
0.000594333
0.000611071
0.000632609
0.000659495
0.000692412
0.000732218
0.000779991
0.000837097
0.000905282
0.000986807
0.00108463
0.00120268
0.0013462
0.00152232
0.00174064
0.00201419
0.00236034
0.00280163
0.00336582
0.00408404
0.00498514
0.00608433
0.00736518
0.00875876
0.0101337
0.0113261
0.0122665
0.0130098
0.0143249
0.0173203
0.0249929
0.0403217
0.0517102
0.051183
0.0255823
0.0144228
0.029671
0.0163412
0.0143461
0.0138661
0.0133805
0.012407
0.0109824
0.00928138
0.00753357
0.00594393
0.0046394
0.00365293
0.00294564
0.00245069
0.00210657
0.00186657
0.00169571
0.00156778
0.00146432
0.00137363
0.00128934
0.00120872
0.0011312
0.00105722
0.000987532
0.000922787
0.000863393
0.000809495
0.000761023
0.000717762
0.000679413
0.000645649
0.000616144
0.000590597
0.000568746
0.000550372
0.000535303
0.000523414
0.000514624
0.000509338
0.00050712
0.00050687
0.000510545
0.000517753
0.000528634
0.000543494
0.000562723
0.000586814
0.000616379
0.00065218
0.000695171
0.000746552
0.000807848
0.00088102
0.000968626
0.00107405
0.00120184
0.00135817
0.0015515
0.00179349
0.00210011
0.00249292
0.00300011
0.00365627
0.00449929
0.00556149
0.00685257
0.00833422
0.00989359
0.0113421
0.0124991
0.0132724
0.014145
0.0161231
0.0215036
0.0340803
0.0511325
0.0557676
0.0331353
0.0173643
0.029654
0.016563
0.0143716
0.0137868
0.0131562
0.012058
0.0105216
0.0087483
0.00698697
0.00544017
0.00421252
0.00331028
0.0026775
0.002242
0.00194275
0.00173463
0.00158457
0.00146882
0.0013716
0.00128372
0.00120072
0.00112112
0.00104501
0.000973069
0.000905999
0.000844281
0.000788118
0.000737468
0.000692119
0.000651759
0.000616034
0.000584587
0.000557085
0.000533233
0.00051278
0.000495519
0.000481292
0.000469983
0.000461521
0.000456156
0.000453764
0.000453317
0.00045617
0.000462374
0.000471949
0.000485168
0.000502388
0.000524054
0.00055072
0.000583075
0.000621972
0.00066848
0.000723946
0.00079009
0.000869141
0.000964033
0.0010787
0.00121849
0.00139078
0.00160585
0.00187808
0.00222743
0.00268114
0.00327483
0.00405166
0.00505666
0.00632241
0.00784305
0.00953901
0.0112309
0.012667
0.0136258
0.0142344
0.0156005
0.0191738
0.028845
0.0479838
0.0577252
0.0425747
0.0207541
0.029495
0.0167039
0.0143344
0.0136153
0.0128724
0.0116759
0.0100606
0.00824589
0.00649341
0.00499975
0.00384815
0.00302255
0.0024546
0.00206925
0.00180661
0.00162343
0.00148884
0.00138162
0.00128858
0.00120263
0.00112083
0.00104256
0.000968306
0.00089877
0.000834529
0.000775876
0.000722829
0.000675201
0.00063268
0.000594894
0.000561459
0.000532013
0.000506226
0.000483818
0.000464551
0.000448233
0.000434717
0.000423897
0.000415705
0.000410265
0.000407711
0.000407086
0.000409231
0.000414546
0.000422973
0.000434753
0.00045021
0.000469754
0.000493891
0.000523249
0.000558604
0.000600919
0.000651401
0.000711578
0.000783412
0.00086947
0.000973169
0.00109915
0.00125383
0.0014462
0.00168901
0.00200035
0.00240568
0.00293992
0.00364853
0.00458506
0.00580088
0.00732169
0.00910824
0.0110085
0.0127382
0.0140316
0.0146713
0.0154636
0.0178866
0.0253447
0.0425799
0.0581011
0.0523682
0.0241804
0.0291426
0.0167835
0.0142337
0.0133793
0.0125443
0.0112753
0.00961023
0.00777972
0.00605253
0.0046173
0.00353811
0.00278098
0.00226884
0.00192543
0.00169242
0.00152862
0.00140547
0.00130428
0.00121414
0.00112973
0.00104922
0.000972591
0.000900465
0.0008335
0.000772108
0.000716403
0.000666252
0.000621361
0.000581351
0.000545817
0.000514367
0.000486643
0.000462328
0.000441157
0.000422906
0.000407399
0.000394497
0.0003841
0.000376147
0.00037065
0.00036795
0.000367163
0.000368707
0.000373237
0.000380653
0.000391164
0.000405067
0.00042274
0.00044465
0.000471377
0.000503632
0.000542299
0.000588472
0.000643528
0.000709218
0.00078781
0.000882303
0.000996741
0.00113671
0.00131005
0.00152797
0.00180664
0.00216932
0.0026491
0.00329139
0.00415432
0.00530288
0.00679027
0.00862023
0.010691
0.0127438
0.0143629
0.0151638
0.0156801
0.0172723
0.0224406
0.0371804
0.0572927
0.0603555
0.0268477
0.028595
0.0167812
0.0140641
0.0130978
0.0121864
0.010868
0.00917815
0.00735258
0.00566219
0.00428704
0.00327495
0.0025781
0.00211357
0.00180499
0.00159582
0.001447
0.00133233
0.00123547
0.00114749
0.00106448
0.000985414
0.000910616
0.000840757
0.000776378
0.000717727
0.000664762
0.000617237
0.00057478
0.000536974
0.0005034
0.000473668
0.000447429
0.000424385
0.000404284
0.000386916
0.000372116
0.000359753
0.000349732
0.000341991
0.000336501
0.000333651
0.000332717
0.000333756
0.000337596
0.00034412
0.000353509
0.000366036
0.000382049
0.000401985
0.00042638
0.000455899
0.000491357
0.000533763
0.000584373
0.000644774
0.000716997
0.0008037
0.000908441
0.0010361
0.00119352
0.00139053
0.00164142
0.00196716
0.00239837
0.00297885
0.00376816
0.00483995
0.00626879
0.00809665
0.0102739
0.0125878
0.0146292
0.0157236
0.016201
0.0170893
0.020636
0.0320879
0.0550329
0.0643613
0.0280386
0.0278817
0.0167487
0.0138583
0.012785
0.0118109
0.010463
0.00876959
0.00696527
0.00531927
0.00400327
0.00305207
0.00240767
0.00198343
0.0017036
0.00151351
0.00137627
0.00126794
0.00117428
0.00108804
0.00100638
0.000928867
0.000856004
0.000788424
0.000726537
0.000670438
0.000619964
0.00057478
0.000534466
0.000498584
0.000466712
0.000438468
0.000413519
0.00039158
0.000372413
0.000355822
0.000341649
0.000329769
0.000320089
0.000312548
0.000307112
0.000304119
0.000303053
0.000303673
0.000306908
0.000312645
0.000321041
0.000332345
0.00034688
0.000365055
0.000387373
0.000414455
0.000447064
0.000486142
0.00053285
0.000588646
0.000655375
0.000735427
0.000831961
0.000949275
0.00109337
0.00127285
0.00150031
0.00179444
0.00218315
0.00270761
0.00342663
0.00441855
0.00577409
0.00756941
0.00980815
0.0123336
0.0147492
0.0162593
0.0168283
0.0172483
0.0196922
0.0287051
0.0508872
0.0657898
0.0282308
0.0270426
0.0166721
0.0136263
0.0124525
0.0114281
0.0100675
0.00838772
0.00661715
0.00502013
0.00376065
0.00286379
0.00226448
0.00187409
0.00161784
0.00144299
0.00131471
0.00121117
0.00111997
0.00103522
0.000954923
0.000879019
0.000808099
0.00074272
0.000683161
0.000629388
0.000581141
0.000538022
0.000499584
0.000465377
0.000434984
0.000408035
0.000384211
0.000363241
0.000344899
0.000328998
0.000315388
0.000303948
0.000294586
0.000287239
0.000281871
0.000278757
0.000277575
0.000277854
0.000280561
0.000285605
0.000293121
0.000303336
0.000316552
0.000333152
0.000353609
0.00037851
0.000408573
0.000444683
0.000487932
0.000539674
0.000601612
0.000675921
0.000765449
0.00087402
0.00100693
0.00117173
0.00137949
0.0016468
0.00199879
0.00247347
0.00312724
0.00403964
0.00531175
0.00704718
0.00930047
0.0119871
0.0147795
0.0167998
0.0175525
0.0178153
0.0192708
0.0261093
0.046257
0.0658191
0.0276647
0.0261129
0.0165662
0.0133785
0.0121107
0.0110461
0.00968665
0.00803418
0.00630668
0.00476095
0.00355433
0.00270521
0.0021443
0.00178208
0.00154508
0.00138237
0.00126106
0.00116119
0.00107196
0.000988551
0.000909603
0.000835305
0.000766265
0.00070295
0.000645516
0.000593827
0.000547548
0.00050624
0.000469436
0.000436686
0.00040758
0.000381763
0.000358925
0.000338811
0.000321203
0.000305922
0.000292822
0.000281785
0.000272721
0.000265563
0.00026027
0.000257053
0.000255764
0.000255778
0.000258027
0.000262459
0.000269195
0.000278441
0.00029048
0.000305669
0.000324456
0.000347396
0.000375171
0.000408621
0.000448777
0.000496915
0.000554628
0.000623926
0.000707411
0.000808528
0.000931991
0.00108447
0.00127573
0.00152041
0.001841
0.00227218
0.00286699
0.0037038
0.00488959
0.00654873
0.00877872
0.0115598
0.0146426
0.017247
0.0182921
0.0184964
0.0191646
0.0242223
0.0419896
0.0636673
0.0267549
0.025122
0.0164456
0.013124
0.0117679
0.0106716
0.00932404
0.0077095
0.00603176
0.00453788
0.00337996
0.00257231
0.00204363
0.00170466
0.00148325
0.00133018
0.00121431
0.00111733
0.00102972
0.000947555
0.000869926
0.00079718
0.000729906
0.00066848
0.000612954
0.000563108
0.000518553
0.000478822
0.000443439
0.000411957
0.000383975
0.000359148
0.00033718
0.000317824
0.000300871
0.000286148
0.000273513
0.000262847
0.000254062
0.000247087
0.00024188
0.000238571
0.00023714
0.000236998
0.000238841
0.000242735
0.00024878
0.000257165
0.000268153
0.000282079
0.000299367
0.000320542
0.000346256
0.000377308
0.000414682
0.000459592
0.000513543
0.000578423
0.000656639
0.000751342
0.000866778
0.00100889
0.0011863
0.00141196
0.00170588
0.0020994
0.00264167
0.00340807
0.00450772
0.00608034
0.00826201
0.0110943
0.0143792
0.0175439
0.0190793
0.0193633
0.0194778
0.0229196
0.0381797
0.0606513
0.0256307
0.0240756
0.0163279
0.012873
0.0114314
0.0103096
0.00898217
0.00741341
0.00578992
0.00434744
0.00323378
0.00246165
0.00195965
0.0016396
0.00143073
0.00128529
0.0011737
0.00107901
0.000992787
0.000911784
0.000835419
0.000764134
0.000698481
0.000638751
0.000584911
0.000536677
0.000493621
0.000455258
0.000421108
0.000390728
0.000363726
0.000339768
0.000318568
0.000299885
0.000283518
0.000269297
0.000257082
0.000246757
0.000238229
0.000231428
0.000226307
0.000222921
0.000221359
0.000221094
0.000222593
0.000226014
0.000231449
0.000239071
0.000249122
0.000261919
0.000277863
0.000297452
0.000321307
0.000350195
0.000385058
0.000427059
0.000477635
0.00053858
0.000612156
0.000701284
0.000809841
0.000943174
0.00110896
0.00131867
0.00159007
0.00195133
0.00244747
0.00314976
0.00416632
0.00564639
0.00775839
0.0106097
0.0140873
0.0176715
0.0198316
0.0202822
0.0201351
0.0222578