/*--------------------------------*- C++ -*----------------------------------*\
  =========                 |
  \\      /  F ield         | OpenFOAM: The Open Source CFD Toolbox
   \\    /   O peration     | Website:  https://openfoam.org
    \\  /    A nd           | Version:  13
     \\/     M anipulation  |
\*---------------------------------------------------------------------------*/
FoamFile
{
    format      ascii;
    class       volScalarField;
    location    "6.5";
    object      nut;
}
// * * * * * * * * * * * * * * * * * * * * * * * * * * * * * * * * * * * * * //

dimensions      [0 2 -1 0 0 0 0];

internalField   nonuniform List<scalar> 
6400
(
9.05721e-10
4.65212e-09
1.12888e-08
1.82109e-08
2.34559e-08
2.64125e-08
2.74878e-08
2.75797e-08
2.77173e-08
2.87052e-08
3.11529e-08
3.60271e-08
4.38002e-08
5.46465e-08
6.80409e-08
8.32505e-08
9.95113e-08
1.16465e-07
1.33384e-07
1.49775e-07
1.66148e-07
1.83858e-07
2.04762e-07
2.30134e-07
2.59154e-07
2.88853e-07
3.18284e-07
3.47432e-07
3.77147e-07
4.08273e-07
4.40511e-07
4.72651e-07
5.04219e-07
5.3517e-07
5.66393e-07
5.98047e-07
6.30846e-07
6.64997e-07
7.00954e-07
7.3885e-07
7.78958e-07
8.21579e-07
8.66972e-07
9.15793e-07
9.6823e-07
1.02598e-06
1.09203e-06
1.17312e-06
1.25889e-06
1.34508e-06
1.43041e-06
1.51347e-06
1.59195e-06
1.66356e-06
1.72576e-06
1.77544e-06
1.80285e-06
1.81414e-06
1.81482e-06
1.78366e-06
1.72563e-06
1.64055e-06
1.52958e-06
1.39613e-06
1.24421e-06
1.08052e-06
9.13452e-07
7.49734e-07
5.95548e-07
4.57173e-07
3.45288e-07
2.51348e-07
1.75384e-07
1.17168e-07
7.52442e-08
4.66827e-08
2.80588e-08
1.6075e-08
7.58611e-09
1.61421e-09
4.38556e-09
3.11625e-07
1.122e-06
1.89889e-06
2.47682e-06
2.81821e-06
2.97493e-06
3.02915e-06
3.06439e-06
3.13884e-06
3.32597e-06
3.69505e-06
4.21681e-06
4.8287e-06
5.46834e-06
6.07166e-06
6.59378e-06
6.98908e-06
7.24027e-06
7.35948e-06
7.41881e-06
7.4888e-06
7.63508e-06
7.89137e-06
8.20643e-06
8.4361e-06
8.63966e-06
8.86695e-06
9.16343e-06
9.56777e-06
1.00956e-05
1.06746e-05
1.1305e-05
1.19521e-05
1.26375e-05
1.33452e-05
1.40853e-05
1.4852e-05
1.56518e-05
1.64814e-05
1.73355e-05
1.82182e-05
1.91197e-05
2.00788e-05
2.10578e-05
2.20317e-05
2.29646e-05
2.38173e-05
2.46604e-05
2.55368e-05
2.64149e-05
2.7292e-05
2.81484e-05
2.89655e-05
2.97204e-05
3.04544e-05
3.09503e-05
3.1243e-05
3.14782e-05
3.14881e-05
3.11764e-05
3.0554e-05
2.96114e-05
2.83208e-05
2.66937e-05
2.47685e-05
2.26497e-05
2.03613e-05
1.79322e-05
1.53345e-05
1.24564e-05
9.66413e-06
7.1949e-06
5.15176e-06
3.56836e-06
2.42112e-06
1.61429e-06
1.03996e-06
4.6935e-07
8.53589e-09
9.60361e-09
8.10368e-07
3.29089e-06
5.74425e-06
7.63234e-06
8.86224e-06
9.5544e-06
9.90241e-06
1.01146e-05
1.03688e-05
1.07868e-05
1.14537e-05
1.23443e-05
1.336e-05
1.43738e-05
1.52689e-05
1.59953e-05
1.6528e-05
1.68651e-05
1.70208e-05
1.70163e-05
1.69382e-05
1.68691e-05
1.68508e-05
1.6918e-05
1.71524e-05
1.7472e-05
1.77866e-05
1.81241e-05
1.84822e-05
1.8931e-05
1.95604e-05
2.05147e-05
2.14837e-05
2.25902e-05
2.3752e-05
2.49953e-05
2.62671e-05
2.75856e-05
2.8991e-05
3.03756e-05
3.17889e-05
3.32009e-05
3.45336e-05
3.58122e-05
3.70565e-05
3.8261e-05
3.94758e-05
4.06949e-05
4.19206e-05
4.31373e-05
4.43383e-05
4.55063e-05
4.66232e-05
4.76634e-05
4.85948e-05
4.93827e-05
4.99675e-05
5.02371e-05
5.04388e-05
5.03096e-05
4.98633e-05
4.90778e-05
4.78106e-05
4.60014e-05
4.36262e-05
4.08973e-05
3.78067e-05
3.43657e-05
3.06182e-05
2.66071e-05
2.24686e-05
1.84001e-05
1.46043e-05
1.12597e-05
8.43003e-06
6.17899e-06
4.24524e-06
1.76446e-06
2.27966e-08
1.66959e-08
1.33045e-06
5.18169e-06
8.8928e-06
1.17746e-05
1.3759e-05
1.49933e-05
1.56935e-05
1.61223e-05
1.64915e-05
1.69994e-05
1.77691e-05
1.87789e-05
1.98875e-05
2.09295e-05
2.17912e-05
2.24096e-05
2.27802e-05
2.2931e-05
2.29186e-05
2.28076e-05
2.27049e-05
2.26791e-05
2.27712e-05
2.28225e-05
2.28325e-05
2.27608e-05
2.31002e-05
2.37841e-05
2.47043e-05
2.5964e-05
2.7154e-05
2.83401e-05
2.95937e-05
3.08921e-05
3.21745e-05
3.34547e-05
3.47926e-05
3.60859e-05
3.73518e-05
3.85811e-05
3.97871e-05
4.09538e-05
4.20769e-05
4.31592e-05
4.42039e-05
4.52516e-05
4.63004e-05
4.73472e-05
4.83887e-05
4.94161e-05
5.04211e-05
5.13907e-05
5.23091e-05
5.31564e-05
5.39093e-05
5.45407e-05
5.50365e-05
5.53183e-05
5.54089e-05
5.529e-05
5.48582e-05
5.40728e-05
5.32987e-05
5.20848e-05
5.0217e-05
4.7896e-05
4.50724e-05
4.18314e-05
3.82257e-05
3.42967e-05
3.01064e-05
2.57581e-05
2.14137e-05
1.72749e-05
1.35148e-05
1.02412e-05
7.16475e-06
2.96153e-06
3.78678e-08
2.68108e-08
2.00031e-06
7.21587e-06
1.20033e-05
1.55898e-05
1.80121e-05
1.95008e-05
2.03344e-05
2.08204e-05
2.12719e-05
2.19408e-05
2.29131e-05
2.40857e-05
2.52588e-05
2.62524e-05
2.69649e-05
2.73743e-05
2.7518e-05
2.74486e-05
2.72863e-05
2.70319e-05
2.68579e-05
2.66995e-05
2.60726e-05
2.59559e-05
2.64014e-05
2.73244e-05
2.84267e-05
2.9576e-05
3.08539e-05
3.21034e-05
3.33202e-05
3.45194e-05
3.56864e-05
3.67798e-05
3.77904e-05
3.87985e-05
3.97616e-05
4.05837e-05
4.13584e-05
4.20515e-05
4.26908e-05
4.32968e-05
4.38902e-05
4.44967e-05
4.51243e-05
4.57459e-05
4.6376e-05
4.70145e-05
4.7666e-05
4.83324e-05
4.9014e-05
4.97098e-05
5.04154e-05
5.11238e-05
5.18242e-05
5.25002e-05
5.3124e-05
5.36612e-05
5.40612e-05
5.42298e-05
5.41877e-05
5.37374e-05
5.26811e-05
5.18594e-05
5.07858e-05
4.90151e-05
4.67386e-05
4.40283e-05
4.0942e-05
3.75137e-05
3.37651e-05
2.97275e-05
2.54835e-05
2.12318e-05
1.71497e-05
1.33129e-05
9.34466e-06
3.79329e-06
4.82038e-08
4.1279e-08
2.9049e-06
9.6249e-06
1.54159e-05
1.95068e-05
2.21176e-05
2.36241e-05
2.4426e-05
2.49362e-05
2.55252e-05
2.64028e-05
2.75496e-05
2.878e-05
2.98733e-05
3.06718e-05
3.11113e-05
3.12082e-05
3.10885e-05
3.06769e-05
3.0351e-05
2.98749e-05
2.8947e-05
2.87593e-05
2.93943e-05
3.03245e-05
3.13278e-05
3.24633e-05
3.35965e-05
3.46931e-05
3.5745e-05
3.66521e-05
3.75264e-05
3.83311e-05
3.90288e-05
3.9591e-05
4.00932e-05
4.04949e-05
4.08877e-05
4.11911e-05
4.14495e-05
4.16803e-05
4.18979e-05
4.20939e-05
4.22782e-05
4.24569e-05
4.26297e-05
4.28011e-05
4.29801e-05
4.31756e-05
4.33972e-05
4.36574e-05
4.39681e-05
4.43418e-05
4.47894e-05
4.53145e-05
4.59065e-05
4.65799e-05
4.73113e-05
4.80731e-05
4.88085e-05
4.94925e-05
5.00079e-05
5.02135e-05
5.01638e-05
4.93005e-05
4.88606e-05
4.76925e-05
4.59649e-05
4.37431e-05
4.11267e-05
3.81828e-05
3.49417e-05
3.13893e-05
2.74905e-05
2.3379e-05
1.91993e-05
1.5085e-05
1.06159e-05
4.18702e-06
5.1908e-08
6.14068e-08
4.08901e-06
1.24445e-05
1.91334e-05
2.35408e-05
2.61525e-05
2.75368e-05
2.82481e-05
2.87931e-05
2.95268e-05
3.05529e-05
3.17453e-05
3.28745e-05
3.37378e-05
3.42284e-05
3.43361e-05
3.38855e-05
3.34361e-05
3.30199e-05
3.18379e-05
3.14642e-05
3.18601e-05
3.26938e-05
3.34156e-05
3.42916e-05
3.51676e-05
3.60486e-05
3.68217e-05
3.75047e-05
3.81169e-05
3.86537e-05
3.90994e-05
3.94486e-05
3.97057e-05
3.98872e-05
4.00186e-05
4.00985e-05
4.01502e-05
4.01448e-05
4.01349e-05
4.01222e-05
4.00591e-05
3.99988e-05
3.9911e-05
3.98226e-05
3.97138e-05
3.95998e-05
3.94749e-05
3.93514e-05
3.92327e-05
3.91314e-05
3.90648e-05
3.90578e-05
3.91477e-05
3.93907e-05
3.97314e-05
4.02506e-05
4.09632e-05
4.18435e-05
4.28034e-05
4.38664e-05
4.48959e-05
4.58643e-05
4.63851e-05
4.6529e-05
4.59711e-05
4.58574e-05
4.46885e-05
4.28636e-05
4.05428e-05
3.7851e-05
3.4896e-05
3.17217e-05
2.82608e-05
2.43784e-05
2.03461e-05
1.59928e-05
1.09145e-05
4.1752e-06
5.03734e-08
8.84173e-08
5.57373e-06
1.56084e-05
2.30521e-05
2.75992e-05
3.00826e-05
3.12813e-05
3.18966e-05
3.2475e-05
3.32951e-05
3.43427e-05
3.54174e-05
3.62815e-05
3.67663e-05
3.68383e-05
3.63229e-05
3.58565e-05
3.48714e-05
3.40925e-05
3.39725e-05
3.44703e-05
3.48495e-05
3.54478e-05
3.60466e-05
3.67805e-05
3.74007e-05
3.79601e-05
3.83967e-05
3.8752e-05
3.90223e-05
3.92159e-05
3.93381e-05
3.9402e-05
3.94224e-05
3.94138e-05
3.93853e-05
3.93379e-05
3.92778e-05
3.92029e-05
3.91257e-05
3.89988e-05
3.8913e-05
3.88368e-05
3.86504e-05
3.85212e-05
3.83468e-05
3.81742e-05
3.79825e-05
3.77766e-05
3.7552e-05
3.731e-05
3.70479e-05
3.67631e-05
3.64516e-05
3.61052e-05
3.58988e-05
3.58466e-05
3.60702e-05
3.67355e-05
3.75392e-05
3.86753e-05
3.99957e-05
4.13574e-05
4.26653e-05
4.35532e-05
4.38345e-05
4.357e-05
4.36237e-05
4.22754e-05
4.02335e-05
3.7645e-05
3.46945e-05
3.15671e-05
2.8343e-05
2.48294e-05
2.08249e-05
1.6477e-05
1.10747e-05
4.06508e-06
4.68024e-08
1.23192e-07
7.34455e-06
1.90281e-05
2.70186e-05
3.15869e-05
3.38686e-05
3.48608e-05
3.53776e-05
3.59493e-05
3.67527e-05
3.76787e-05
3.84943e-05
3.89897e-05
3.89215e-05
3.84382e-05
3.79374e-05
3.6647e-05
3.6112e-05
3.61211e-05
3.61514e-05
3.63925e-05
3.68135e-05
3.73114e-05
3.7779e-05
3.82345e-05
3.85597e-05
3.88156e-05
3.89762e-05
3.90846e-05
3.91408e-05
3.91658e-05
3.91696e-05
3.91653e-05
3.91594e-05
3.91549e-05
3.91519e-05
3.91483e-05
3.9142e-05
3.91268e-05
3.90848e-05
3.90537e-05
3.90313e-05
3.89364e-05
3.88491e-05
3.87481e-05
3.86199e-05
3.84753e-05
3.8306e-05
3.81136e-05
3.78911e-05
3.76378e-05
3.73485e-05
3.70166e-05
3.66357e-05
3.61931e-05
3.5688e-05
3.51212e-05
3.45071e-05
3.38738e-05
3.39136e-05
3.448e-05
3.56101e-05
3.70219e-05
3.86652e-05
4.02917e-05
4.14417e-05
4.18229e-05
4.17944e-05
4.1924e-05
4.03794e-05
3.80251e-05
3.50353e-05
3.16921e-05
2.82704e-05
2.48297e-05
2.10271e-05
1.65213e-05
1.08255e-05
3.77775e-06
4.28428e-08
1.66107e-07
9.33095e-06
2.25402e-05
3.09469e-05
3.54433e-05
3.74815e-05
3.82562e-05
3.86494e-05
3.91396e-05
3.98062e-05
4.04795e-05
4.09291e-05
4.07541e-05
4.02247e-05
3.96634e-05
3.85428e-05
3.79713e-05
3.7714e-05
3.74367e-05
3.75752e-05
3.78143e-05
3.81411e-05
3.84512e-05
3.87014e-05
3.88927e-05
3.89946e-05
3.90606e-05
3.90884e-05
3.91141e-05
3.91402e-05
3.91827e-05
3.92423e-05
3.93207e-05
3.94129e-05
3.95129e-05
3.96119e-05
3.97012e-05
3.9787e-05
3.98372e-05
3.98618e-05
3.98974e-05
3.98756e-05
3.98322e-05
3.97662e-05
3.96732e-05
3.95552e-05
3.94147e-05
3.92524e-05
3.90713e-05
3.8873e-05
3.86505e-05
3.83959e-05
3.80986e-05
3.77417e-05
3.73165e-05
3.67981e-05
3.61696e-05
3.54191e-05
3.45579e-05
3.36639e-05
3.27774e-05
3.24733e-05
3.32935e-05
3.47255e-05
3.65496e-05
3.84199e-05
3.98702e-05
4.0371e-05
4.04854e-05
4.05464e-05
3.87682e-05
3.60097e-05
3.25312e-05
2.87171e-05
2.49043e-05
2.10187e-05
1.65003e-05
1.06116e-05
3.52617e-06
3.96946e-08
2.1774e-07
1.13762e-05
2.60013e-05
3.47511e-05
3.91211e-05
4.08922e-05
4.14302e-05
4.16499e-05
4.19649e-05
4.2378e-05
4.26914e-05
4.24291e-05
4.1813e-05
4.11803e-05
4.02306e-05
3.95209e-05
3.89355e-05
3.85856e-05
3.84522e-05
3.85747e-05
3.87168e-05
3.88835e-05
3.89994e-05
3.90694e-05
3.91055e-05
3.91199e-05
3.91514e-05
3.92041e-05
3.9297e-05
3.94245e-05
3.95874e-05
3.97743e-05
3.99763e-05
4.01804e-05
4.0389e-05
4.05908e-05
4.0719e-05
4.0825e-05
4.09752e-05
4.10296e-05
4.10808e-05
4.10812e-05
4.10578e-05
4.09995e-05
4.09106e-05
4.07911e-05
4.0643e-05
4.04669e-05
4.02639e-05
4.00342e-05
3.97777e-05
3.94948e-05
3.91853e-05
3.88483e-05
3.84812e-05
3.80727e-05
3.7559e-05
3.68975e-05
3.60599e-05
3.50437e-05
3.38882e-05
3.2711e-05
3.16563e-05
3.15808e-05
3.29721e-05
3.4748e-05
3.68918e-05
3.85986e-05
3.92194e-05
3.93219e-05
3.9295e-05
3.71858e-05
3.39464e-05
2.99345e-05
2.56043e-05
2.12907e-05
1.65334e-05
1.06047e-05
3.48229e-06
3.88885e-08
2.8094e-07
1.32575e-05
2.93136e-05
3.83698e-05
4.25831e-05
4.4068e-05
4.43369e-05
4.43158e-05
4.43584e-05
4.44155e-05
4.40467e-05
4.332e-05
4.2632e-05
4.17456e-05
4.09512e-05
4.00269e-05
3.95254e-05
3.92298e-05
3.91328e-05
3.91618e-05
3.91786e-05
3.92025e-05
3.91978e-05
3.91973e-05
3.92185e-05
3.92817e-05
3.94038e-05
3.95802e-05
3.98093e-05
4.00751e-05
4.03663e-05
4.06665e-05
4.09768e-05
4.12885e-05
4.15577e-05
4.17349e-05
4.19346e-05
4.21383e-05
4.22762e-05
4.23722e-05
4.2439e-05
4.24634e-05
4.24554e-05
4.24097e-05
4.23295e-05
4.22147e-05
4.20669e-05
4.18867e-05
4.1675e-05
4.14322e-05
4.11583e-05
4.08525e-05
4.0513e-05
4.01371e-05
3.97213e-05
3.92628e-05
3.87601e-05
3.82093e-05
3.75585e-05
3.67013e-05
3.55885e-05
3.42796e-05
3.28537e-05
3.15174e-05
3.05234e-05
3.14873e-05
3.32646e-05
3.55989e-05
3.74649e-05
3.8138e-05
3.81989e-05
3.79544e-05
3.54036e-05
3.16308e-05
2.70714e-05
2.21683e-05
1.70362e-05
1.0896e-05
3.64752e-06
4.05923e-08
3.51428e-07
1.51246e-05
3.24671e-05
4.17691e-05
4.57992e-05
4.69758e-05
4.69319e-05
4.65957e-05
4.62746e-05
4.57312e-05
4.48607e-05
4.41338e-05
4.32264e-05
4.23167e-05
4.11464e-05
4.03651e-05
3.99129e-05
3.96334e-05
3.95012e-05
3.94272e-05
3.93562e-05
3.93163e-05
3.93018e-05
3.93492e-05
3.94665e-05
3.96613e-05
3.99275e-05
4.02493e-05
4.06115e-05
4.09948e-05
4.13848e-05
4.17771e-05
4.21603e-05
4.25057e-05
4.27935e-05
4.30627e-05
4.32931e-05
4.35066e-05
4.3694e-05
4.38215e-05
4.39145e-05
4.39667e-05
4.39802e-05
4.39534e-05
4.38872e-05
4.37817e-05
4.36378e-05
4.34563e-05
4.32386e-05
4.29855e-05
4.2698e-05
4.23759e-05
4.20178e-05
4.16205e-05
4.11787e-05
4.0685e-05
4.01319e-05
3.95144e-05
3.88337e-05
3.80945e-05
3.72082e-05
3.60529e-05
3.46205e-05
3.30035e-05
3.13894e-05
3.01145e-05
3.02693e-05
3.205e-05
3.44635e-05
3.63988e-05
3.70569e-05
3.69644e-05
3.63283e-05
3.32294e-05
2.89148e-05
2.37495e-05
1.81525e-05
1.17718e-05
4.13946e-06
4.71933e-08
4.27132e-07
1.694e-05
3.54188e-05
4.49161e-05
4.87437e-05
4.95887e-05
4.91831e-05
4.84578e-05
4.76245e-05
4.65439e-05
4.577e-05
4.46836e-05
4.3649e-05
4.23075e-05
4.12429e-05
4.05535e-05
4.01159e-05
3.98228e-05
3.96417e-05
3.95116e-05
3.94301e-05
3.94238e-05
3.94974e-05
3.9671e-05
3.99352e-05
4.02804e-05
4.0686e-05
4.11311e-05
4.15973e-05
4.20677e-05
4.25307e-05
4.29768e-05
4.33952e-05
4.37773e-05
4.41347e-05
4.44654e-05
4.47441e-05
4.49754e-05
4.51739e-05
4.53844e-05
4.55066e-05
4.55954e-05
4.56388e-05
4.56364e-05
4.5588e-05
4.54928e-05
4.53513e-05
4.51643e-05
4.49334e-05
4.46608e-05
4.43489e-05
4.40001e-05
4.36159e-05
4.31959e-05
4.27367e-05
4.22307e-05
4.16659e-05
4.10268e-05
4.02985e-05
3.94747e-05
3.85687e-05
3.75679e-05
3.63535e-05
3.47918e-05
3.30461e-05
3.12778e-05
2.97653e-05
2.93154e-05
3.10198e-05
3.34649e-05
3.53477e-05
3.58667e-05
3.56003e-05
3.42224e-05
3.05765e-05
2.56136e-05
1.9786e-05
1.30807e-05
5.03591e-06
6.2463e-08
5.05597e-07
1.86632e-05
3.81288e-05
4.77862e-05
5.13998e-05
5.18962e-05
5.10914e-05
4.99096e-05
4.8539e-05
4.76606e-05
4.62209e-05
4.5054e-05
4.35356e-05
4.22203e-05
4.12507e-05
4.06105e-05
4.01708e-05
3.9866e-05
3.96711e-05
3.95588e-05
3.95473e-05
3.96504e-05
3.9866e-05
4.01908e-05
4.06015e-05
4.10776e-05
4.15944e-05
4.21321e-05
4.26746e-05
4.32093e-05
4.37277e-05
4.42231e-05
4.4691e-05
4.51298e-05
4.55404e-05
4.59171e-05
4.62749e-05
4.65945e-05
4.68027e-05
4.70334e-05
4.72533e-05
4.73738e-05
4.74589e-05
4.74864e-05
4.74602e-05
4.73772e-05
4.72372e-05
4.70404e-05
4.67885e-05
4.64841e-05
4.61312e-05
4.57347e-05
4.52998e-05
4.48313e-05
4.43317e-05
4.37993e-05
4.32263e-05
4.25964e-05
4.18848e-05
4.10609e-05
4.00993e-05
3.89991e-05
3.7765e-05
3.63465e-05
3.47584e-05
3.29248e-05
3.10602e-05
2.93039e-05
2.85099e-05
3.01026e-05
3.26028e-05
3.42362e-05
3.44648e-05
3.41482e-05
3.16452e-05
2.72437e-05
2.15388e-05
1.46467e-05
6.03912e-06
8.59577e-08
5.84353e-07
2.02583e-05
4.05714e-05
5.03692e-05
5.37608e-05
5.39116e-05
5.26398e-05
5.10083e-05
4.98337e-05
4.80384e-05
4.66148e-05
4.49068e-05
4.33368e-05
4.20796e-05
4.11822e-05
4.05684e-05
4.01357e-05
3.98513e-05
3.97001e-05
3.96748e-05
3.9789e-05
4.00374e-05
4.04044e-05
4.08691e-05
4.14024e-05
4.19811e-05
4.25831e-05
4.31926e-05
4.37978e-05
4.43908e-05
4.49662e-05
4.55207e-05
4.6052e-05
4.65585e-05
4.70381e-05
4.74871e-05
4.79033e-05
4.83061e-05
4.86044e-05
4.88422e-05
4.91439e-05
4.93251e-05
4.9453e-05
4.95187e-05
4.95197e-05
4.94535e-05
4.93182e-05
4.91131e-05
4.88389e-05
4.84976e-05
4.80936e-05
4.76329e-05
4.71234e-05
4.65746e-05
4.59955e-05
4.53937e-05
4.47718e-05
4.4124e-05
4.34323e-05
4.26635e-05
4.17701e-05
4.06991e-05
3.9454e-05
3.80557e-05
3.61914e-05
3.44559e-05
3.26703e-05
3.06935e-05
2.86917e-05
2.77357e-05
2.93021e-05
3.17758e-05
3.30558e-05
3.28879e-05
3.19883e-05
2.83414e-05
2.3045e-05
1.6217e-05
7.05565e-06
1.15701e-07
6.61934e-07
2.16764e-05
4.27393e-05
5.2698e-05
5.58025e-05
5.54419e-05
5.38555e-05
5.22322e-05
5.01921e-05
4.8415e-05
4.64987e-05
4.46584e-05
4.30932e-05
4.19016e-05
4.10586e-05
4.04729e-05
4.00778e-05
3.98589e-05
3.98049e-05
3.99108e-05
4.01725e-05
4.05676e-05
4.10697e-05
4.16501e-05
4.22808e-05
4.29408e-05
4.36132e-05
4.42871e-05
4.49549e-05
4.5612e-05
4.62554e-05
4.68825e-05
4.74907e-05
4.80769e-05
4.86371e-05
4.91665e-05
4.96603e-05
5.01461e-05
5.05433e-05
5.08156e-05
5.11679e-05
5.14328e-05
5.16031e-05
5.1713e-05
5.17466e-05
5.17038e-05
5.15804e-05
5.13746e-05
5.10852e-05
5.07131e-05
5.02609e-05
4.97342e-05
4.91412e-05
4.84933e-05
4.78044e-05
4.70896e-05
4.63625e-05
4.56319e-05
4.48964e-05
4.41386e-05
4.3319e-05
4.23734e-05
4.12181e-05
3.98659e-05
3.82451e-05
3.60212e-05
3.40366e-05
3.22702e-05
3.01675e-05
2.7968e-05
2.70276e-05
2.85635e-05
3.08e-05
3.18027e-05
3.10018e-05
2.88065e-05
2.4134e-05
1.75905e-05
7.95834e-06
1.49826e-07
7.36654e-07
2.29408e-05
4.4643e-05
5.46226e-05
5.73476e-05
5.67896e-05
5.52693e-05
5.30297e-05
5.0561e-05
4.83907e-05
4.62616e-05
4.43587e-05
4.283e-05
4.17024e-05
4.09102e-05
4.03738e-05
4.00544e-05
3.99415e-05
4.00185e-05
4.02706e-05
4.06756e-05
4.12008e-05
4.18151e-05
4.24894e-05
4.32001e-05
4.3931e-05
4.46705e-05
4.54118e-05
4.61504e-05
4.68832e-05
4.76073e-05
4.83194e-05
4.90153e-05
4.96899e-05
5.03377e-05
5.09527e-05
5.15289e-05
5.20982e-05
5.25795e-05
5.2898e-05
5.33005e-05
5.36437e-05
5.38586e-05
5.40139e-05
5.40844e-05
5.40712e-05
5.39686e-05
5.37733e-05
5.34824e-05
5.30943e-05
5.26094e-05
5.20306e-05
5.13644e-05
5.06211e-05
4.98157e-05
4.89669e-05
4.80965e-05
4.72257e-05
4.6371e-05
4.5537e-05
4.47083e-05
4.38409e-05
4.2854e-05
4.16291e-05
4.01764e-05
3.81484e-05
3.57099e-05
3.35001e-05
3.1707e-05
2.94028e-05
2.69688e-05
2.64588e-05
2.80184e-05
2.95853e-05
2.98529e-05
2.87881e-05
2.47874e-05
1.86452e-05
8.67935e-06
1.86749e-07
8.05709e-07
2.40214e-05
4.61751e-05
5.61044e-05
5.85674e-05
5.82111e-05
5.60893e-05
5.33209e-05
5.07719e-05
4.8228e-05
4.59569e-05
4.40401e-05
4.25644e-05
4.15007e-05
4.077e-05
4.03124e-05
4.01019e-05
4.01199e-05
4.0339e-05
4.07315e-05
4.12633e-05
4.18982e-05
4.26053e-05
4.33594e-05
4.41426e-05
4.49435e-05
4.57548e-05
4.65722e-05
4.73925e-05
4.82121e-05
4.90268e-05
4.98314e-05
5.06196e-05
5.13844e-05
5.2119e-05
5.28162e-05
5.34696e-05
5.41141e-05
5.46652e-05
5.50317e-05
5.54797e-05
5.58894e-05
5.6148e-05
5.63461e-05
5.64549e-05
5.64754e-05
5.64015e-05
5.62284e-05
5.59514e-05
5.55667e-05
5.50716e-05
5.44656e-05
5.37514e-05
5.29358e-05
5.20313e-05
5.10561e-05
5.00346e-05
4.89957e-05
4.79695e-05
4.69812e-05
4.60423e-05
4.51409e-05
4.42294e-05
4.32143e-05
4.19472e-05
4.02677e-05
3.78315e-05
3.52274e-05
3.28505e-05
3.09463e-05
2.83303e-05
2.57005e-05
2.58105e-05
2.75636e-05
2.86152e-05
2.76329e-05
2.496e-05
1.93347e-05
9.21968e-06
2.25183e-07
8.66549e-07
2.48893e-05
4.73316e-05
5.72152e-05
5.97904e-05
5.92308e-05
5.67828e-05
5.36954e-05
5.07175e-05
4.79762e-05
4.5621e-05
4.37232e-05
4.231e-05
4.13163e-05
4.06661e-05
4.03143e-05
4.0233e-05
4.03896e-05
4.07454e-05
4.12632e-05
4.19035e-05
4.26311e-05
4.3419e-05
4.42471e-05
4.51029e-05
4.59787e-05
4.68701e-05
4.77732e-05
4.86841e-05
4.95975e-05
5.05067e-05
5.14043e-05
5.22818e-05
5.31309e-05
5.39437e-05
5.47128e-05
5.54314e-05
5.61371e-05
5.67471e-05
5.71529e-05
5.76358e-05
5.80995e-05
5.83968e-05
5.86322e-05
5.87776e-05
5.88332e-05
5.87928e-05
5.86511e-05
5.84019e-05
5.80393e-05
5.75577e-05
5.6953e-05
5.62233e-05
5.53703e-05
5.44013e-05
5.33301e-05
5.21788e-05
5.09781e-05
4.9765e-05
4.85792e-05
4.74549e-05
4.64102e-05
4.54336e-05
4.44704e-05
4.34117e-05
4.20863e-05
4.00993e-05
3.73206e-05
3.45748e-05
3.20851e-05
2.99496e-05
2.6988e-05
2.46732e-05
2.5134e-05
2.63657e-05
2.6646e-05
2.48494e-05
1.96786e-05
9.53804e-06
2.65464e-07
9.17733e-07
2.55488e-05
4.81599e-05
5.8088e-05
6.07017e-05
5.99523e-05
5.70698e-05
5.37984e-05
5.0562e-05
4.76735e-05
4.52787e-05
4.34215e-05
4.20787e-05
4.11661e-05
4.06164e-05
4.03883e-05
4.04426e-05
4.07329e-05
4.12124e-05
4.18388e-05
4.25725e-05
4.33822e-05
4.42456e-05
4.51479e-05
4.60808e-05
4.70389e-05
4.80182e-05
4.90139e-05
5.00195e-05
5.10274e-05
5.20282e-05
5.30122e-05
5.39696e-05
5.48912e-05
5.57686e-05
5.65947e-05
5.73634e-05
5.81135e-05
5.87731e-05
5.92045e-05
5.97079e-05
6.02139e-05
6.0542e-05
6.08073e-05
6.09844e-05
6.10731e-05
6.10677e-05
6.09626e-05
6.07509e-05
6.04252e-05
5.99776e-05
5.94007e-05
5.8688e-05
5.78356e-05
5.68442e-05
5.57206e-05
5.44808e-05
5.31511e-05
5.17692e-05
5.03822e-05
4.90409e-05
4.77896e-05
4.66518e-05
4.56121e-05
4.45977e-05
4.34596e-05
4.19429e-05
3.94869e-05
3.65805e-05
3.3797e-05
3.11591e-05
2.86128e-05
2.52867e-05
2.38976e-05
2.47181e-05
2.54072e-05
2.40711e-05
1.96809e-05
9.67596e-06
3.06803e-07
9.58524e-07
2.60063e-05
4.87079e-05
5.86864e-05
6.13766e-05
6.04799e-05
5.74363e-05
5.37975e-05
5.03404e-05
4.73473e-05
4.49457e-05
4.31443e-05
4.188e-05
4.10616e-05
4.06273e-05
4.053e-05
4.0716e-05
4.11287e-05
4.17174e-05
4.24386e-05
4.32556e-05
4.41421e-05
4.50807e-05
4.60609e-05
4.70768e-05
4.81234e-05
4.91954e-05
5.02854e-05
5.13842e-05
5.24812e-05
5.35649e-05
5.46239e-05
5.56477e-05
5.66267e-05
5.75531e-05
5.84204e-05
5.92235e-05
5.99995e-05
6.06971e-05
6.11461e-05
6.16512e-05
6.21889e-05
6.25389e-05
6.28253e-05
6.30274e-05
6.31445e-05
6.3172e-05
6.31043e-05
6.29347e-05
6.26551e-05
6.22561e-05
6.17276e-05
6.10593e-05
6.02422e-05
5.927e-05
5.81415e-05
5.68635e-05
5.54542e-05
5.39451e-05
5.23826e-05
5.08255e-05
4.93377e-05
4.79748e-05
4.67666e-05
4.56972e-05
4.46861e-05
4.35698e-05
4.15429e-05
3.86182e-05
3.57726e-05
3.2802e-05
2.99872e-05
2.68322e-05
2.34643e-05
2.30185e-05
2.33333e-05
2.31104e-05
1.9569e-05
9.83118e-06
3.53193e-07
9.88713e-07
2.62715e-05
4.90196e-05
5.90264e-05
6.1879e-05
6.07225e-05
5.75519e-05
5.37047e-05
5.0078e-05
4.70167e-05
4.46324e-05
4.28975e-05
4.17202e-05
4.10072e-05
4.06962e-05
4.07279e-05
4.10359e-05
4.15583e-05
4.22435e-05
4.30496e-05
4.39443e-05
4.49063e-05
4.59224e-05
4.6985e-05
4.80884e-05
4.92266e-05
5.03915e-05
5.15727e-05
5.2758e-05
5.39343e-05
5.50884e-05
5.62084e-05
5.72834e-05
5.83046e-05
5.9265e-05
6.01593e-05
6.09837e-05
6.17631e-05
6.24801e-05
6.29578e-05
6.34403e-05
6.39997e-05
6.4363e-05
6.46616e-05
6.48805e-05
6.50192e-05
6.50743e-05
6.50411e-05
6.49134e-05
6.4683e-05
6.43402e-05
6.38732e-05
6.3269e-05
6.25143e-05
6.15966e-05
6.05068e-05
5.92419e-05
5.78087e-05
5.62283e-05
5.45393e-05
5.27989e-05
5.10794e-05
4.94576e-05
4.79965e-05
4.67212e-05
4.55937e-05
4.44929e-05
4.31948e-05
4.06884e-05
3.75876e-05
3.46575e-05
3.14432e-05
2.8462e-05
2.45207e-05
2.23134e-05
2.2273e-05
2.24066e-05
1.94525e-05
1.02203e-05
4.13765e-07
1.00879e-06
2.63715e-05
4.90795e-05
5.90806e-05
6.20475e-05
6.09887e-05
5.75763e-05
5.35494e-05
4.97949e-05
4.66947e-05
4.4345e-05
4.26849e-05
4.16021e-05
4.10016e-05
4.08146e-05
4.09681e-05
4.13869e-05
4.20072e-05
4.27791e-05
4.36637e-05
4.46338e-05
4.56721e-05
4.67686e-05
4.79167e-05
4.91095e-05
5.03384e-05
5.15921e-05
5.2857e-05
5.41185e-05
5.53615e-05
5.65723e-05
5.77387e-05
5.88505e-05
5.98999e-05
6.08809e-05
6.17897e-05
6.26237e-05
6.33903e-05
6.41175e-05
6.4626e-05
6.50697e-05
6.56368e-05
6.6008e-05
6.631e-05
6.65373e-05
6.66896e-05
6.67649e-05
6.676e-05
6.66695e-05
6.64862e-05
6.62006e-05
6.58004e-05
6.52712e-05
6.45967e-05
6.37595e-05
6.27436e-05
6.15364e-05
6.0133e-05
5.85411e-05
5.67865e-05
5.49174e-05
5.30055e-05
5.11409e-05
4.94167e-05
4.79055e-05
4.66292e-05
4.55323e-05
4.44609e-05
4.25318e-05
3.94748e-05
3.64753e-05
3.3161e-05
2.96519e-05
2.60921e-05
2.2161e-05
2.10154e-05
2.07742e-05
1.9102e-05
1.08763e-05
4.95166e-07
1.01879e-06
2.63031e-05
4.88823e-05
5.90117e-05
6.21789e-05
6.10203e-05
5.751e-05
5.33518e-05
4.95059e-05
4.63901e-05
4.4087e-05
4.25079e-05
4.15251e-05
4.10398e-05
4.09723e-05
4.12378e-05
4.17564e-05
4.24651e-05
4.33166e-05
4.4276e-05
4.53206e-05
4.64366e-05
4.76154e-05
4.88496e-05
5.01302e-05
5.14452e-05
5.27802e-05
5.41187e-05
5.54442e-05
5.6741e-05
5.7995e-05
5.91947e-05
6.03307e-05
6.13965e-05
6.23871e-05
6.32997e-05
6.41328e-05
6.48858e-05
6.56076e-05
6.61534e-05
6.6561e-05
6.71006e-05
6.74819e-05
6.77796e-05
6.80069e-05
6.81643e-05
6.82513e-05
6.82661e-05
6.82051e-05
6.80623e-05
6.78293e-05
6.74944e-05
6.70428e-05
6.64566e-05
6.57155e-05
6.47978e-05
6.36829e-05
6.23546e-05
6.08067e-05
5.90489e-05
5.71139e-05
5.50629e-05
5.29856e-05
5.09903e-05
4.91827e-05
4.76323e-05
4.63373e-05
4.51982e-05
4.40012e-05
4.13926e-05
3.81125e-05
3.49913e-05
3.14704e-05
2.7536e-05
2.3188e-05
2.07354e-05
1.94577e-05
1.86515e-05
1.15423e-05
5.96156e-07
1.0182e-06
2.61349e-05
4.863e-05
5.87933e-05
6.21782e-05
6.09504e-05
5.73754e-05
5.31279e-05
4.9222e-05
4.61084e-05
4.38604e-05
4.23662e-05
4.14862e-05
4.11144e-05
4.11592e-05
4.15267e-05
4.21355e-05
4.29248e-05
4.38508e-05
4.48828e-05
4.60016e-05
4.71958e-05
4.84567e-05
4.97749e-05
5.11386e-05
5.25324e-05
5.39389e-05
5.53397e-05
5.67172e-05
5.80555e-05
5.9341e-05
6.05631e-05
6.17138e-05
6.27874e-05
6.37803e-05
6.46903e-05
6.55164e-05
6.62583e-05
6.69622e-05
6.75459e-05
6.79183e-05
6.84154e-05
6.88018e-05
6.90897e-05
6.93094e-05
6.94635e-05
6.9553e-05
6.95779e-05
6.95364e-05
6.94244e-05
6.92351e-05
6.89583e-05
6.85799e-05
6.8082e-05
6.74425e-05
6.66363e-05
6.56365e-05
6.44175e-05
6.29599e-05
6.12566e-05
5.93218e-05
5.71996e-05
5.49699e-05
5.27463e-05
5.06602e-05
4.88288e-05
4.73122e-05
4.60757e-05
4.49739e-05
4.3028e-05
3.97698e-05
3.68045e-05
3.29422e-05
2.89466e-05
2.46496e-05
2.0628e-05
1.89696e-05
1.82541e-05
1.21739e-05
7.12537e-07
1.01274e-06
2.58697e-05
4.82107e-05
5.83827e-05
6.19641e-05
6.07785e-05
5.71871e-05
5.28901e-05
4.89509e-05
4.58532e-05
4.36655e-05
4.22583e-05
4.1481e-05
4.12181e-05
4.13666e-05
4.18265e-05
4.25173e-05
4.33812e-05
4.43779e-05
4.54805e-05
4.66728e-05
4.79441e-05
4.92845e-05
5.06822e-05
5.2122e-05
5.35855e-05
5.5053e-05
5.6505e-05
5.79235e-05
5.9293e-05
6.06009e-05
6.18377e-05
6.29967e-05
6.40733e-05
6.50649e-05
6.59704e-05
6.67898e-05
6.7524e-05
6.81971e-05
6.87958e-05
6.9168e-05
6.96057e-05
6.99912e-05
7.02648e-05
7.04705e-05
7.06136e-05
7.06967e-05
7.07216e-05
7.06887e-05
7.05959e-05
7.04386e-05
7.02087e-05
6.98939e-05
6.94772e-05
6.89366e-05
6.82451e-05
6.73718e-05
6.62839e-05
6.49506e-05
6.33492e-05
6.14738e-05
5.93467e-05
5.70284e-05
5.46238e-05
5.22741e-05
5.01305e-05
4.83075e-05
4.6829e-05
4.55884e-05
4.43404e-05
4.15383e-05
3.8217e-05
3.49134e-05
3.05197e-05
2.59981e-05
2.09181e-05
1.84956e-05
1.71941e-05
1.28067e-05
8.30178e-07
1.00064e-06
2.55497e-05
4.75343e-05
5.78527e-05
6.16207e-05
6.05208e-05
5.69576e-05
5.26476e-05
4.86982e-05
4.56265e-05
4.35018e-05
4.21817e-05
4.15045e-05
4.13441e-05
4.15873e-05
4.21312e-05
4.2897e-05
4.38303e-05
4.48942e-05
4.60654e-05
4.73292e-05
4.86747e-05
5.00901e-05
5.15607e-05
5.30681e-05
5.45916e-05
5.611e-05
5.76032e-05
5.90535e-05
6.04462e-05
6.17701e-05
6.30169e-05
6.4181e-05
6.52588e-05
6.62485e-05
6.71497e-05
6.79628e-05
6.86893e-05
6.93319e-05
6.99371e-05
7.03219e-05
7.06957e-05
7.10749e-05
7.13312e-05
7.15178e-05
7.1643e-05
7.17114e-05
7.17267e-05
7.16911e-05
7.16052e-05
7.14668e-05
7.12703e-05
7.10059e-05
7.06586e-05
7.02075e-05
6.96257e-05
6.88804e-05
6.79338e-05
6.67465e-05
6.52821e-05
6.3516e-05
6.14469e-05
5.91109e-05
5.65938e-05
5.40343e-05
5.16066e-05
4.94784e-05
4.77488e-05
4.63911e-05
4.52289e-05
4.29635e-05
3.95619e-05
3.67361e-05
3.19446e-05
2.73173e-05
2.22518e-05
1.84699e-05
1.6128e-05
1.32679e-05
9.21762e-07
9.81842e-07
2.5138e-05
4.67892e-05
5.72341e-05
6.11602e-05
6.019e-05
5.66969e-05
5.24074e-05
4.8468e-05
4.54296e-05
4.33685e-05
4.21334e-05
4.15518e-05
4.14863e-05
4.18158e-05
4.24359e-05
4.32705e-05
4.42685e-05
4.53964e-05
4.66331e-05
4.79651e-05
4.93802e-05
5.08644e-05
5.23999e-05
5.3966e-05
5.55401e-05
5.71001e-05
5.86262e-05
6.01013e-05
6.15119e-05
6.2848e-05
6.41026e-05
6.5271e-05
6.63505e-05
6.73398e-05
6.82383e-05
6.90465e-05
6.97648e-05
7.03939e-05
7.09898e-05
7.13939e-05
7.17075e-05
7.20759e-05
7.23129e-05
7.24766e-05
7.25785e-05
7.26251e-05
7.26218e-05
7.2573e-05
7.24819e-05
7.23489e-05
7.21714e-05
7.19423e-05
7.16494e-05
7.12743e-05
7.07913e-05
7.01674e-05
6.93624e-05
6.83309e-05
6.70259e-05
6.54061e-05
6.34473e-05
6.11578e-05
5.85961e-05
5.58832e-05
5.31984e-05
5.0745e-05
4.86852e-05
4.70622e-05
4.57489e-05
4.41607e-05
4.08424e-05
3.81493e-05
3.39155e-05
2.87303e-05
2.35435e-05
1.88607e-05
1.5567e-05
1.34489e-05
9.62653e-07
9.57348e-07
2.46211e-05
4.59326e-05
5.65216e-05
6.0605e-05
5.97984e-05
5.64132e-05
5.21749e-05
4.82626e-05
4.52627e-05
4.32641e-05
4.21104e-05
4.16185e-05
4.164e-05
4.20474e-05
4.27367e-05
4.36344e-05
4.46925e-05
4.58803e-05
4.71788e-05
4.85742e-05
5.0053e-05
5.15986e-05
5.31907e-05
5.48066e-05
5.64226e-05
5.80166e-05
5.9569e-05
6.10639e-05
6.24892e-05
6.3836e-05
6.50983e-05
6.62723e-05
6.73559e-05
6.83477e-05
6.92473e-05
7.00544e-05
7.07693e-05
7.1392e-05
7.1968e-05
7.23948e-05
7.26595e-05
7.30132e-05
7.32297e-05
7.3368e-05
7.34425e-05
7.34613e-05
7.34317e-05
7.33605e-05
7.3253e-05
7.31126e-05
7.29397e-05
7.27306e-05
7.24761e-05
7.21609e-05
7.17618e-05
7.12472e-05
7.05764e-05
6.97008e-05
6.85659e-05
6.71169e-05
6.53092e-05
6.31234e-05
6.05863e-05
5.77914e-05
5.49082e-05
5.21628e-05
4.97785e-05
4.78852e-05
4.64363e-05
4.51773e-05
4.23155e-05
3.93278e-05
3.58291e-05
2.99215e-05
2.45386e-05
1.88695e-05
1.56976e-05
1.34368e-05
9.69253e-07
9.28539e-07
2.40693e-05
4.49899e-05
5.57215e-05
5.99714e-05
5.93567e-05
5.61131e-05
5.19537e-05
4.80839e-05
4.51259e-05
4.3187e-05
4.21096e-05
4.17005e-05
4.18008e-05
4.22784e-05
4.30303e-05
4.39854e-05
4.50987e-05
4.6342e-05
4.76973e-05
4.91503e-05
5.06858e-05
5.22849e-05
5.39253e-05
5.55827e-05
5.72332e-05
5.88547e-05
6.04286e-05
6.19402e-05
6.33787e-05
6.47362e-05
6.60077e-05
6.719e-05
6.8281e-05
6.92796e-05
7.01848e-05
7.09962e-05
7.17136e-05
7.23372e-05
7.28894e-05
7.33201e-05
7.35693e-05
7.39004e-05
7.40954e-05
7.4207e-05
7.42511e-05
7.42378e-05
7.41759e-05
7.40744e-05
7.39409e-05
7.37818e-05
7.36004e-05
7.33965e-05
7.31645e-05
7.28925e-05
7.25606e-05
7.21397e-05
7.15906e-05
7.08635e-05
6.98994e-05
6.86339e-05
6.70051e-05
6.4968e-05
6.25162e-05
5.97075e-05
5.66864e-05