/*--------------------------------*- C++ -*----------------------------------*\
  =========                 |
  \\      /  F ield         | OpenFOAM: The Open Source CFD Toolbox
   \\    /   O peration     | Website:  https://openfoam.org
    \\  /    A nd           | Version:  13
     \\/     M anipulation  |
\*---------------------------------------------------------------------------*/
FoamFile
{
    format      ascii;
    class       surfaceScalarField;
    location    "6.5";
    object      phi;
}
// * * * * * * * * * * * * * * * * * * * * * * * * * * * * * * * * * * * * * //

dimensions      [0 3 -1 0 0 0 0];

internalField   nonuniform List<scalar> 
12640
(
1.60393e-09
-1.60372e-09
1.48994e-08
-1.32955e-08
3.83511e-08
-2.34517e-08
6.54944e-08
-2.71433e-08
9.00737e-08
-2.45793e-08
1.08523e-07
-1.84491e-08
1.19488e-07
-1.09649e-08
1.23814e-07
-4.32678e-09
1.23762e-07
5.27479e-11
1.21643e-07
2.11854e-09
1.19406e-07
2.23696e-09
1.1833e-07
1.0763e-09
1.18829e-07
-4.99176e-10
1.20602e-07
-1.77284e-09
1.22824e-07
-2.22168e-09
1.24571e-07
-1.74745e-09
1.24982e-07
-4.10701e-10
1.23532e-07
1.44962e-09
1.1943e-07
4.10182e-09
1.11782e-07
7.64827e-09
9.99941e-08
1.17879e-08
8.35057e-08
1.64885e-08
6.18634e-08
2.16422e-08
3.48809e-08
2.69825e-08
2.52945e-09
3.23515e-08
-3.5369e-08
3.78985e-08
-8.00396e-08
4.46706e-08
-1.33797e-07
5.37577e-08
-1.99509e-07
6.57116e-08
-2.79559e-07
8.00505e-08
-3.73161e-07
9.36016e-08
-4.76848e-07
1.03687e-07
-5.872e-07
1.10352e-07
-7.00826e-07
1.13626e-07
-8.14755e-07
1.13929e-07
-9.26378e-07
1.11623e-07
-1.03355e-06
1.07172e-07
-1.13453e-06
1.00976e-07
-1.22792e-06
9.33964e-08
-1.31266e-06
8.47409e-08
-1.38787e-06
7.52052e-08
-1.45284e-06
6.49667e-08
-1.50695e-06
5.4111e-08
-1.54964e-06
4.26977e-08
-1.58031e-06
3.06681e-08
-1.59845e-06
1.81356e-08
-1.60455e-06
6.10661e-09
-1.59657e-06
-7.98029e-09
-1.57521e-06
-2.13605e-08
-1.5395e-06
-3.57156e-08
-1.48939e-06
-5.01074e-08
-1.42472e-06
-6.46686e-08
-1.34573e-06
-7.899e-08
-1.25285e-06
-9.28823e-08
-1.14672e-06
-1.06129e-07
-1.02819e-06
-1.18529e-07
-8.98611e-07
-1.2958e-07
-7.59733e-07
-1.38878e-07
-6.13867e-07
-1.45866e-07
-4.63851e-07
-1.50016e-07
-3.13115e-07
-1.50735e-07
-1.65476e-07
-1.4764e-07
-2.4937e-08
-1.40539e-07
1.04801e-07
-1.29738e-07
2.19342e-07
-1.14541e-07
3.14664e-07
-9.53224e-08
3.87404e-07
-7.274e-08
4.35022e-07
-4.7618e-08
4.56113e-07
-2.10907e-08
4.49629e-07
6.48367e-09
4.18429e-07
3.12001e-08
3.64976e-07
5.3453e-08
2.95406e-07
6.95703e-08
2.18783e-07
7.66228e-08
1.4653e-07
7.22527e-08
8.59352e-08
6.0595e-08
4.08807e-08
4.50545e-08
1.20617e-08
2.88191e-08
-4.29498e-10
1.24912e-08
-4.29499e-10
1.02761e-08
-1.18799e-08
4.23974e-08
-4.54168e-08
8.71192e-08
-6.81735e-08
1.32986e-07
-7.30102e-08
1.7242e-07
-6.40137e-08
2.01597e-07
-4.76256e-08
2.19844e-07
-2.92118e-08
2.28133e-07
-1.26161e-08
2.28251e-07
-6.53008e-11
2.22525e-07
7.84507e-09
2.1322e-07
1.15421e-08
2.01872e-07
1.24236e-08
1.88951e-07
1.24223e-08
1.739e-07
1.3278e-08
1.55656e-07
1.60224e-08
1.33063e-07
2.08457e-08
1.05206e-07
2.74462e-08
7.08994e-08
3.57561e-08
2.89125e-08
4.60888e-08
-2.22232e-08
5.8784e-08
-8.44757e-08
7.40403e-08
-1.59673e-07
9.16861e-08
-2.49059e-07
1.11027e-07
-3.53471e-07
1.31395e-07
-4.73477e-07
1.52357e-07
-6.08857e-07
1.73279e-07
-7.57329e-07
1.93142e-07
-9.14806e-07
2.11235e-07
-1.07599e-06
2.26891e-07
-1.23498e-06
2.39049e-07
-1.3882e-06
2.46816e-07
-1.53459e-06
2.50078e-07
-1.67274e-06
2.48506e-07
-1.80139e-06
2.42274e-07
-1.91952e-06
2.32056e-07
-2.02646e-06
2.18567e-07
-2.12173e-06
2.02444e-07
-2.20504e-06
1.84283e-07
-2.27616e-06
1.64515e-07
-2.33496e-06
1.43538e-07
-2.38132e-06
1.21568e-07
-2.41514e-06
9.87821e-08
-2.4363e-06
7.52728e-08
-2.44474e-06
5.11402e-08
-2.44056e-06
2.64879e-08
-2.42256e-06
1.38902e-10
-2.39166e-06
-2.48001e-08
-2.34784e-06
-5.17965e-08
-2.29002e-06
-7.91852e-08
-2.21864e-06
-1.0709e-07
-2.13344e-06
-1.35305e-07
-2.03444e-06
-1.63668e-07
-1.92157e-06
-1.91859e-07
-1.79498e-06
-2.19472e-07
-1.65515e-06
-2.45967e-07
-1.50315e-06
-2.70531e-07
-1.34025e-06
-2.92475e-07
-1.16822e-06
-3.10909e-07
-9.89384e-07
-3.24702e-07
-8.06388e-07
-3.33011e-07
-6.2223e-07
-3.34893e-07
-4.40329e-07
-3.29541e-07
-2.64337e-07
-3.1653e-07
-9.82402e-08
-2.95835e-07
5.45882e-08
-2.67369e-07
1.90827e-07
-2.31561e-07
3.06846e-07
-1.88758e-07
4.00048e-07
-1.40821e-07
4.67953e-07
-8.8995e-08
5.0985e-07
-3.54136e-08
5.24255e-07
1.67952e-08
5.1147e-07
6.62373e-08
4.73487e-07
1.07554e-07
4.11913e-07
1.38196e-07
3.29763e-07
1.54403e-07
2.37272e-07
1.53087e-07
1.46886e-07
1.3544e-07
7.10955e-08
1.04609e-07
2.01084e-08
6.34783e-08
1.96789e-08
1.94702e-08
-3.135e-08
6.49757e-08
-9.09223e-08
1.16509e-07
-1.19707e-07
1.62206e-07
-1.18707e-07
1.9749e-07
-9.92977e-08
2.21319e-07
-7.14552e-08
2.34325e-07
-4.22178e-08
2.37479e-07
-1.57698e-08
2.31931e-07
5.48331e-09
2.19124e-07
2.06518e-08
2.00491e-07
3.01753e-08
1.76613e-07
3.63016e-08
1.47297e-07
4.17381e-08
1.11743e-07
4.88316e-08
6.8786e-08
5.89796e-08
1.70206e-08
7.26111e-08
-4.52598e-08
8.97265e-08
-1.19867e-07
1.10364e-07
-2.0834e-07
1.34561e-07
-3.11922e-07
1.62366e-07
-4.31148e-07
1.93266e-07
-5.65692e-07
2.2623e-07
-7.14508e-07
2.59844e-07
-8.75232e-07
2.92119e-07
-1.04452e-06
3.21642e-07
-1.21815e-06
3.46916e-07
-1.39187e-06
3.66862e-07
-1.5617e-06
3.81065e-07
-1.72403e-06
3.89215e-07
-1.87622e-06
3.91237e-07
-2.01675e-06
3.87345e-07
-2.14459e-06
3.77921e-07
-2.25971e-06
3.63627e-07
-2.36255e-06
3.45111e-07
-2.45341e-06
3.22914e-07
-2.53266e-06
2.97819e-07
-2.60061e-06
2.70394e-07
-2.65752e-06
2.41196e-07
-2.70357e-06
2.10563e-07
-2.73888e-06
1.78849e-07
-2.76353e-06
1.46218e-07
-2.77751e-06
1.12761e-07
-2.78078e-06
7.85411e-08
-2.77318e-06
4.35442e-08
-2.75437e-06
7.67565e-09
-2.72505e-06
-2.91776e-08
-2.68327e-06
-6.65811e-08
-2.62993e-06
-1.05137e-07
-2.56448e-06
-1.44633e-07
-2.4866e-06
-1.84971e-07
-2.39605e-06
-2.25858e-07
-2.29268e-06
-2.6704e-07
-2.17642e-06
-3.08115e-07
-2.04739e-06
-3.48502e-07
-1.90596e-06
-3.87394e-07
-1.75278e-06
-4.23713e-07
-1.58887e-06
-4.56385e-07
-1.41561e-06
-4.84169e-07
-1.23485e-06
-5.05465e-07
-1.04907e-06
-5.18795e-07
-8.61024e-07
-5.22935e-07
-6.74005e-07
-5.16561e-07
-4.91633e-07
-4.98902e-07
-3.17619e-07
-4.69848e-07
-1.55275e-07
-4.29713e-07
-7.81238e-09
-3.79024e-07
1.22354e-07
-3.18925e-07
2.32354e-07
-2.5082e-07
3.20641e-07
-1.77282e-07
3.86368e-07
-1.01141e-07
4.28547e-07
-2.5383e-08
4.47027e-07
4.77571e-08
4.40465e-07
1.14116e-07
4.10413e-07
1.68249e-07
3.5794e-07
2.06875e-07
2.86251e-07
2.24776e-07
2.01897e-07
2.19794e-07
1.1544e-07
1.91067e-07
4.06055e-08
1.38312e-07
6.02844e-08
2.71352e-08
-5.84852e-08
7.92219e-08
-1.43009e-07
1.28723e-07
-1.69209e-07
1.66891e-07
-1.56874e-07
1.92305e-07
-1.24712e-07
2.061e-07
-8.52504e-08
2.09463e-07
-4.55804e-08
2.03509e-07
-9.81603e-09
1.89031e-07
1.99615e-08
1.66528e-07
4.31541e-08
1.35764e-07
6.09394e-08
9.62438e-08
7.5822e-08
4.71993e-08
9.07825e-08
-1.2306e-08
1.08337e-07
-8.33551e-08
1.30029e-07
-1.67275e-07
1.56531e-07
-2.65532e-07
1.87984e-07
-3.79423e-07
2.24254e-07
-5.0955e-07
2.64689e-07
-6.55492e-07
3.08308e-07
-8.15525e-07
3.53299e-07
-9.8652e-07
3.97225e-07
-1.1647e-06
4.38023e-07
-1.34577e-06
4.73193e-07
-1.52561e-06
5.01482e-07
-1.70032e-06
5.21621e-07
-1.86637e-06
5.32911e-07
-2.02101e-06
5.35705e-07
-2.16285e-06
5.31058e-07
-2.29146e-06
5.19847e-07
-2.40704e-06
5.02922e-07
-2.51018e-06
4.81065e-07
-2.60152e-06
4.54967e-07
-2.68178e-06
4.25373e-07
-2.75168e-06
3.92814e-07
-2.81178e-06
3.57919e-07
-2.86252e-06
3.21131e-07
-2.90421e-06
2.82885e-07
-2.93706e-06
2.43413e-07
-2.96114e-06
2.02934e-07
-2.97649e-06
1.61565e-07
-2.98303e-06
1.19304e-07
-2.98062e-06
7.61297e-08
-2.96901e-06
3.19324e-08
-2.94795e-06
-1.33817e-08
-2.91727e-06
-5.98551e-08
-2.87631e-06
-1.07548e-07
-2.82484e-06
-1.56607e-07
-2.76246e-06
-2.07013e-07
-2.6887e-06
-2.58722e-07
-2.6032e-06
-3.11359e-07
-2.50566e-06
-3.64584e-07
-2.39582e-06
-4.17952e-07
-2.27355e-06
-4.70775e-07
-2.13883e-06
-5.22108e-07
-1.99194e-06
-5.70608e-07
-1.83366e-06
-6.14668e-07
-1.66497e-06
-6.52858e-07
-1.4873e-06
-6.83135e-07
-1.30273e-06
-7.03363e-07
-1.11371e-06
-7.11957e-07
-9.23252e-07
-7.07016e-07
-7.34931e-07
-6.87223e-07
-5.52909e-07
-6.5187e-07
-3.81042e-07
-6.0158e-07
-2.22504e-07
-5.37562e-07
-8.03672e-08
-4.61062e-07
4.31558e-08
-3.74343e-07
1.46311e-07
-2.80437e-07
2.27986e-07
-1.82816e-07
2.87745e-07
-8.5142e-08
3.26322e-07
9.18012e-09
3.43749e-07
9.66895e-08
3.39303e-07
1.72694e-07
3.13185e-07
2.32993e-07
2.65952e-07
2.72009e-07
2.01439e-07
2.84306e-07
1.25466e-07
2.67041e-07
4.856e-08
2.15218e-07
1.08844e-07
3.31017e-08
-9.15869e-08
8.48832e-08
-1.9479e-07
1.26023e-07
-2.10348e-07
1.52942e-07
-1.83794e-07
1.66294e-07
-1.38064e-07
1.68271e-07
-8.72271e-08
1.60241e-07
-3.7551e-08
1.42957e-07
7.46799e-09
1.1658e-07
4.63383e-08
8.06838e-08
7.90507e-08
3.43072e-08
1.07316e-07
-2.37234e-08
1.33853e-07
-9.4558e-08
1.61617e-07
-1.79258e-07
1.93037e-07
-2.78827e-07
2.29598e-07
-3.94122e-07
2.71826e-07
-5.25605e-07
3.19466e-07
-6.73088e-07
3.71737e-07
-8.35182e-07
4.26783e-07
-1.00887e-06
4.82002e-07
-1.19041e-06
5.34837e-07
-1.37524e-06
5.82052e-07
-1.55906e-06
6.21847e-07
-1.73765e-06
6.51783e-07
-1.90664e-06
6.70464e-07
-2.06335e-06
6.78336e-07
-2.20685e-06
6.76406e-07
-2.33714e-06
6.65999e-07
-2.45467e-06
6.48591e-07
-2.56017e-06
6.25341e-07
-2.65448e-06
5.97236e-07
-2.73845e-06
5.65034e-07
-2.81282e-06
5.29339e-07
-2.87824e-06
4.90795e-07
-2.93533e-06
4.49901e-07
-2.98452e-06
4.0711e-07
-3.02617e-06
3.62776e-07
-3.06051e-06
3.17226e-07
-3.08769e-06
2.70596e-07
-3.10768e-06
2.22919e-07
-3.12047e-06
1.74356e-07
-3.12597e-06
1.24808e-07
-3.12402e-06
7.4176e-08
-3.11434e-06
2.22544e-08
-3.09667e-06
-3.10503e-08
-3.0706e-06
-8.59291e-08
-3.03564e-06
-1.4251e-07
-2.99139e-06
-2.00857e-07
-2.93743e-06
-2.60972e-07
-2.87316e-06
-3.2299e-07
-2.79789e-06
-3.8663e-07
-2.71119e-06
-4.51288e-07
-2.61258e-06
-5.16563e-07
-2.50165e-06
-5.81701e-07
-2.37801e-06
-6.4575e-07
-2.24141e-06
-7.07205e-07
-2.09241e-06
-7.63667e-07
-1.93152e-06
-8.13754e-07
-1.75958e-06
-8.55067e-07
-1.57843e-06
-8.84522e-07
-1.39008e-06
-9.00306e-07
-1.1973e-06
-8.99788e-07
-1.00321e-06
-8.81315e-07
-8.11756e-07
-8.43328e-07
-6.27625e-07
-7.8571e-07
-4.55276e-07
-7.09911e-07
-2.97886e-07
-6.18452e-07
-1.58281e-07
-5.13948e-07
-3.87355e-08
-3.99983e-07
5.94051e-08
-2.80957e-07
1.35679e-07
-1.61416e-07
1.90533e-07
-4.56735e-08
2.24963e-07
6.22595e-08
2.39366e-07
1.58291e-07
2.34205e-07
2.38154e-07
2.09784e-07
2.9643e-07
1.67054e-07
3.27036e-07
1.09105e-07
3.2499e-07
4.36873e-08
2.80636e-07
1.52532e-07
3.66738e-08
-1.28261e-07
8.16882e-08
-2.39805e-07
1.10435e-07
-2.39094e-07
1.23604e-07
-1.96963e-07
1.23912e-07
-1.38372e-07
1.13351e-07
-7.66657e-08
9.29129e-08
-1.71128e-08
6.27397e-08
3.76413e-08
2.23895e-08
8.66885e-08
-2.92597e-08
1.307e-07
-9.35852e-08
1.71642e-07
-1.71969e-07
2.12236e-07
-2.65581e-07
2.55229e-07
-3.75267e-07
3.02724e-07
-5.01481e-07
3.55811e-07
-6.44028e-07
4.14372e-07
-8.01889e-07
4.77327e-07
-9.72821e-07
5.4267e-07
-1.15343e-06
6.07394e-07
-1.33915e-06
6.6772e-07
-1.52547e-06
7.21157e-07
-1.70752e-06
7.64098e-07
-1.88003e-06
7.94359e-07
-2.03989e-06
8.11649e-07
-2.18619e-06
8.16762e-07
-2.31912e-06
8.11266e-07
-2.43947e-06
7.96753e-07
-2.54827e-06
7.74801e-07
-2.64642e-06
7.46736e-07
-2.73474e-06
7.13668e-07
-2.814e-06
6.76497e-07
-2.88485e-06
6.35876e-07
-2.94792e-06
5.92418e-07
-3.00377e-06
5.46641e-07
-3.05282e-06
4.98953e-07
-3.09537e-06
4.49657e-07
-3.13164e-06
3.99048e-07
-3.16182e-06
3.47406e-07
-3.18608e-06
2.94849e-07
-3.20425e-06
2.4109e-07
-3.21645e-06
1.86556e-07
-3.22263e-06
1.30993e-07
-3.22273e-06
7.4275e-08
-3.21654e-06
1.60653e-08
-3.20404e-06
-4.3553e-08
-3.18482e-06
-1.05151e-07
-3.15842e-06
-1.6891e-07
-3.12428e-06
-2.3499e-07
-3.08179e-06
-3.03468e-07
-3.0303e-06
-3.74474e-07
-2.96888e-06
-4.4805e-07
-2.8967e-06
-5.23474e-07
-2.81288e-06
-6.00382e-07
-2.71677e-06
-6.77812e-07
-2.60799e-06
-7.54523e-07
-2.48587e-06
-8.29326e-07
-2.35008e-06
-8.99464e-07
-2.2007e-06
-9.6313e-07
-2.03777e-06
-1.01799e-06
-1.8629e-06
-1.05939e-06
-1.6776e-06
-1.0856e-06
-1.48432e-06
-1.09308e-06
-1.286e-06
-1.07963e-06
-1.08632e-06
-1.043e-06
-8.89562e-07
-9.82472e-07
-7.01267e-07
-8.98206e-07
-5.26111e-07
-7.93609e-07
-3.6756e-07
-6.72499e-07
-2.28685e-07
-5.38858e-07
-1.11645e-07
-3.97997e-07
-1.73978e-08
-2.55664e-07
5.43197e-08
-1.17391e-07
1.04717e-07
1.18624e-08
1.35293e-07
1.27715e-07
1.47233e-07
2.26213e-07
1.41195e-07
3.02469e-07
1.17672e-07
3.50559e-07
7.89681e-08
3.63694e-07
3.138e-08
3.28224e-07
1.83912e-07
3.68394e-08
-1.651e-07
6.95919e-08
-2.72557e-07
8.37517e-08
-2.53254e-07
8.23362e-08
-1.95548e-07
6.907e-08
-1.25106e-07
4.53862e-08
-5.29819e-08
1.16132e-08
1.66602e-08
-3.26931e-08
8.19476e-08
-8.85562e-08
1.42552e-07
-1.57362e-07
1.99506e-07
-2.40584e-07
2.54863e-07
-3.39491e-07
3.11144e-07
-4.54915e-07
3.70653e-07
-5.87075e-07
4.34884e-07
-7.35431e-07
5.04168e-07
-8.98517e-07
5.77458e-07
-1.07356e-06
6.5237e-07
-1.25648e-06
7.25585e-07
-1.44258e-06
7.93497e-07
-1.62686e-06
8.51999e-07
-1.80329e-06
8.97593e-07
-1.96778e-06
9.28587e-07
-2.11861e-06
9.45186e-07
-2.25583e-06
9.48868e-07
-2.38028e-06
9.41214e-07
-2.49302e-06
9.24001e-07
-2.59511e-06
8.98849e-07
-2.68756e-06
8.67245e-07
-2.77115e-06
8.30334e-07
-2.84658e-06
7.89098e-07
-2.91441e-06
7.44326e-07
-2.97517e-06
6.96636e-07
-3.02934e-06
6.46581e-07
-3.07728e-06
5.94586e-07
-3.11937e-06
5.41043e-07
-3.15577e-06
4.86059e-07
-3.1866e-06
4.29878e-07
-3.21209e-06
3.72897e-07
-3.23239e-06
3.15144e-07
-3.24789e-06
2.5659e-07
-3.25842e-06
1.97086e-07
-3.26388e-06
1.36454e-07
-3.26411e-06
7.45095e-08
-3.25893e-06
1.08867e-08
-3.24856e-06
-5.39272e-08
-3.23296e-06
-1.20753e-07
-3.21209e-06
-1.89784e-07
-3.18581e-06
-2.61271e-07
-3.1538e-06
-3.35469e-07
-3.11574e-06
-4.12539e-07
-3.07098e-06
-4.92807e-07
-3.01819e-06
-5.76267e-07
-2.9561e-06
-6.62469e-07
-2.88304e-06
-7.50872e-07
-2.79693e-06
-8.40634e-07
-2.69589e-06
-9.30372e-07
-2.5791e-06
-1.01625e-06
-2.4468e-06
-1.09543e-06
-2.29931e-06
-1.16548e-06
-2.13644e-06
-1.22227e-06
-1.95915e-06
-1.26289e-06
-1.76971e-06
-1.28252e-06
-1.57059e-06
-1.27875e-06
-1.36541e-06
-1.24818e-06
-1.15811e-06
-1.18977e-06
-9.54035e-07
-1.10228e-06
-7.59793e-07
-9.87851e-07
-5.80421e-07
-8.51871e-07
-4.197e-07
-6.99579e-07
-2.80931e-07
-5.36765e-07
-1.66106e-07
-3.70488e-07
-7.56753e-08
-2.07822e-07
-8.58713e-09
-5.52258e-08
3.71286e-08
8.19994e-08
6.38198e-08
1.99522e-07
7.31397e-08
2.93149e-07
6.61031e-08
3.57595e-07
4.50278e-08
3.84769e-07
1.63316e-08
3.5692e-07
2.00243e-07
3.23691e-08
-1.97469e-07
5.0174e-08
-2.90362e-07
4.85636e-08
-2.51644e-07
3.22725e-08
-1.79257e-07
5.15942e-09
-9.79926e-08
-3.21312e-08
-1.56913e-08
-7.99651e-08
6.44941e-08
-1.3927e-07
1.41252e-07
-2.1134e-07
2.14622e-07
-2.97585e-07
2.85752e-07
-3.99275e-07
3.56553e-07
-5.17264e-07
4.29132e-07
-6.51732e-07
5.0512e-07
-8.02037e-07
5.85189e-07
-9.66497e-07
6.68629e-07
-1.14198e-06
7.5294e-07
-1.32411e-06
8.34497e-07
-1.50792e-06
9.09399e-07
-1.68739e-06
9.72965e-07
-1.85719e-06
1.0218e-06
-2.01404e-06
1.05445e-06
-2.15726e-06
1.0718e-06
-2.28725e-06
1.07518e-06
-2.40496e-06
1.06658e-06
-2.51149e-06
1.04774e-06
-2.60797e-06
1.02048e-06
-2.69534e-06
9.86224e-07
-2.77436e-06
9.46262e-07
-2.84562e-06
9.01594e-07
-2.90963e-06
8.53105e-07
-2.96681e-06
8.0151e-07
-3.01758e-06
7.47401e-07
-3.06224e-06
6.91243e-07
-3.10099e-06
6.33341e-07
-3.13425e-06
5.74302e-07
-3.16272e-06
5.1453e-07
-3.18694e-06
4.5409e-07
-3.20694e-06
3.92899e-07
-3.22257e-06
3.30776e-07
-3.23403e-06
2.68053e-07
-3.24125e-06
2.043e-07
-3.24436e-06
1.39569e-07
-3.24351e-06
7.36557e-08
-3.23853e-06
5.90819e-09
-3.22996e-06
-6.2493e-08
-3.21758e-06
-1.33133e-07
-3.20127e-06
-2.06098e-07
-3.18084e-06
-2.81695e-07
-3.15603e-06
-3.6028e-07
-3.12651e-06
-4.42065e-07
-3.09211e-06
-5.27208e-07
-3.05233e-06
-6.16042e-07
-3.00658e-06
-7.08217e-07
-2.95401e-06
-8.03441e-07
-2.89369e-06
-9.0096e-07
-2.82399e-06
-1.00007e-06
-2.74048e-06
-1.09976e-06
-2.63891e-06
-1.19701e-06
-2.51708e-06
-1.2873e-06
-2.37497e-06
-1.36438e-06
-2.2141e-06
-1.42376e-06
-2.03637e-06
-1.46026e-06
-1.84308e-06
-1.47204e-06
-1.63803e-06
-1.45323e-06
-1.4249e-06
-1.4029e-06
-1.20843e-06
-1.31876e-06
-9.95615e-07
-1.20067e-06
-7.94208e-07
-1.05328e-06
-6.09896e-07
-8.83891e-07
-4.46873e-07
-6.99789e-07
-3.08557e-07
-5.08804e-07
-1.96664e-07
-3.19715e-07
-1.10999e-07
-1.40891e-07
-4.95548e-08
2.05551e-08
-9.04815e-09
1.59016e-07
1.34094e-08
2.70691e-07
2.02147e-08
3.5079e-07
1.45956e-08
3.90388e-07
2.96633e-09
3.68549e-07
2.0321e-07
2.36363e-08
-2.21105e-07
2.50189e-08
-2.91745e-07
6.888e-09
-2.33513e-07
-2.37651e-08
-1.48604e-07
-6.47529e-08
-5.70048e-08
-1.15985e-07
3.55411e-08
-1.78264e-07
1.26773e-07
-2.52801e-07
2.15789e-07
-3.4091e-07
3.0273e-07
-4.43784e-07
3.88626e-07
-5.62259e-07
4.75028e-07
-6.96529e-07
5.63403e-07
-8.46016e-07
6.54608e-07
-1.00909e-06
7.48263e-07
-1.18244e-06
8.41981e-07
-1.36155e-06
9.32051e-07
-1.54118e-06
1.01413e-06
-1.71511e-06
1.08332e-06
-1.87849e-06
1.13634e-06
-2.02892e-06
1.17223e-06
-2.16587e-06
1.19139e-06
-2.28982e-06
1.19576e-06
-2.4018e-06
1.18716e-06
-2.50293e-06
1.1677e-06
-2.59426e-06
1.13907e-06
-2.67668e-06
1.1029e-06
-2.75088e-06
1.06042e-06
-2.81739e-06
1.01278e-06
-2.8767e-06
9.60898e-07
-2.9292e-06
9.05606e-07
-2.97528e-06
8.47589e-07
-3.01534e-06
7.87468e-07
-3.04998e-06
7.25877e-07
-3.07986e-06
6.6322e-07
-3.10517e-06
5.9961e-07
-3.12587e-06
5.35229e-07
-3.14202e-06
4.70243e-07
-3.15374e-06
4.04624e-07
-3.16154e-06
3.38572e-07
-3.16576e-06
2.7227e-07
-3.16688e-06
2.0542e-07
-3.16521e-06
1.37907e-07
-3.16107e-06
6.95149e-08
-3.15459e-06
-5.73918e-10
-3.1459e-06
-7.11868e-08
-3.13485e-06
-1.44178e-07
-3.12153e-06
-2.19426e-07
-3.10591e-06
-2.97315e-07
-3.08794e-06
-3.78247e-07
-3.06745e-06
-4.62557e-07
-3.04408e-06
-5.5058e-07
-3.01746e-06
-6.42661e-07
-2.9868e-06
-7.38867e-07
-2.95115e-06
-8.39095e-07
-2.90929e-06
-9.42822e-07
-2.86057e-06
-1.04879e-06
-2.80342e-06
-1.15691e-06
-2.73618e-06
-1.26426e-06
-2.65474e-06
-1.36873e-06
-2.55153e-06
-1.46759e-06
-2.42206e-06
-1.55323e-06
-2.26666e-06
-1.61566e-06
-2.08936e-06
-1.64934e-06
-1.89311e-06
-1.64948e-06
-1.68161e-06
-1.61439e-06
-1.45915e-06
-1.54122e-06
-1.23216e-06
-1.42765e-06
-1.00932e-06
-1.27612e-06
-8.00028e-07
-1.09318e-06
-6.10755e-07
-8.89062e-07
-4.46081e-07
-6.73478e-07
-3.09432e-07
-4.56363e-07
-2.02037e-07
-2.48286e-07
-1.22715e-07
-5.87672e-08
-6.8184e-08
1.04485e-07
-3.37901e-08
2.36297e-07
-1.53997e-08
3.324e-07
-7.81856e-09
3.82807e-07
-5.46963e-09
3.662e-07
1.9774e-07
1.17489e-08
-2.32854e-07
-4.3987e-09
-2.75597e-07
-3.8017e-08
-1.99895e-07
-8.30199e-08
-1.03601e-07
-1.37927e-07
-2.09743e-09
-2.03102e-07
1.00716e-07
-2.7971e-07
2.03381e-07
-3.69008e-07
3.05086e-07
-4.72122e-07
4.05844e-07
-5.89843e-07
5.06347e-07
-7.22391e-07
6.07576e-07
-8.69308e-07
7.1032e-07
-1.02916e-06
8.1446e-07
-1.19875e-06
9.17848e-07
-1.37345e-06
1.01668e-06
-1.54788e-06
1.10648e-06
-1.71625e-06
1.1825e-06
-1.87405e-06
1.24112e-06
-2.01909e-06
1.28139e-06
-2.15072e-06
1.30386e-06
-2.26952e-06
1.3102e-06
-2.37645e-06
1.30269e-06
-2.47265e-06
1.28336e-06
-2.55905e-06
1.2541e-06
-2.63647e-06
1.21649e-06
-2.70551e-06
1.17194e-06
-2.76671e-06
1.12161e-06
-2.82051e-06
1.06658e-06
-2.86737e-06
1.00776e-06
-2.90775e-06
9.45987e-07
-2.94213e-06
8.81975e-07
-2.97101e-06
8.16339e-07
-2.99462e-06
7.4949e-07
-3.01328e-06
6.81884e-07
-3.0274e-06
6.13724e-07
-3.03746e-06
5.45292e-07
-3.04402e-06
4.76804e-07
-3.0477e-06
4.08302e-07
-3.0489e-06
3.39775e-07
-3.04778e-06
2.71147e-07
-3.04459e-06
2.02237e-07
-3.03956e-06
1.32877e-07
-3.03282e-06
6.27697e-08
-3.02494e-06
-8.45796e-09
-3.01534e-06
-8.07799e-08
-3.0046e-06
-1.54919e-07
-2.99282e-06
-2.31202e-07
-2.98011e-06
-3.10031e-07
-2.96654e-06
-3.91818e-07
-2.95211e-06
-4.76985e-07
-2.93673e-06
-5.65963e-07
-2.92023e-06
-6.59155e-07
-2.90225e-06
-7.56847e-07
-2.88218e-06
-8.59166e-07
-2.85906e-06
-9.65946e-07
-2.83109e-06
-1.07675e-06
-2.79697e-06
-1.19103e-06
-2.75432e-06
-1.30691e-06
-2.70139e-06
-1.42166e-06
-2.63556e-06
-1.53341e-06
-2.55185e-06
-1.63694e-06
-2.43915e-06
-1.72836e-06
-2.29356e-06
-1.79494e-06
-2.11742e-06
-1.82562e-06
-1.91828e-06
-1.81353e-06
-1.69905e-06
-1.76045e-06
-1.46606e-06
-1.66065e-06
-1.22721e-06
-1.51497e-06
-9.9349e-07
-1.3269e-06
-7.76135e-07
-1.10642e-06
-5.82626e-07
-8.66987e-07
-4.17821e-07
-6.21169e-07
-2.84871e-07
-3.81236e-07
-1.84108e-07
-1.5953e-07
-1.13046e-07
3.34225e-08
-6.64215e-08
1.89673e-07
-3.81646e-08
3.04143e-07
-2.05288e-08
3.65171e-07
-9.14098e-09
3.54812e-07
1.88599e-07
-2.09524e-09
-2.30759e-07
-3.50994e-08
-2.42593e-07
-8.41539e-08
-1.5084e-07
-1.43269e-07
-4.44861e-08
-2.11731e-07
6.63649e-08
-2.90489e-07
1.79474e-07
-3.80751e-07
2.93643e-07
-4.83666e-07
4.08001e-07
-6.0002e-07
5.22198e-07
-7.30069e-07
6.36396e-07
-8.73472e-07
7.50978e-07
-1.02905e-06
8.65896e-07
-1.19388e-06
9.79296e-07
-1.36345e-06
1.08742e-06
-1.53248e-06
1.18571e-06
-1.69563e-06
1.26963e-06
-1.84856e-06
1.33544e-06
-1.98898e-06
1.38154e-06
-2.11616e-06
1.40857e-06
-2.23047e-06
1.41817e-06
-2.33293e-06
1.41266e-06
-2.42453e-06
1.39429e-06
-2.50613e-06
1.36497e-06
-2.57845e-06
1.32642e-06
-2.64206e-06
1.2801e-06
-2.69743e-06
1.22732e-06
-2.74508e-06
1.16925e-06
-2.78548e-06
1.10699e-06
-2.81919e-06
1.04147e-06
-2.84676e-06
9.73557e-07
-2.86876e-06
9.03973e-07
-2.88573e-06
8.33305e-07
-2.89824e-06
7.62004e-07
-2.90684e-06
6.90483e-07
-2.91211e-06
6.1899e-07
-2.91456e-06
5.47748e-07
-2.91462e-06
4.76861e-07
-2.91262e-06
4.06308e-07
-2.90886e-06
3.36011e-07
-2.90355e-06
2.65839e-07
-2.89692e-06
1.95604e-07
-2.88913e-06
1.25086e-07
-2.88036e-06
5.4002e-08
-2.87089e-06
-1.79275e-08
-2.86068e-06
-9.09867e-08
-2.84999e-06
-1.6561e-07
-2.83902e-06
-2.42171e-07
-2.82796e-06
-3.21095e-07
-2.81697e-06
-4.02806e-07
-2.8062e-06
-4.87756e-07
-2.79576e-06
-5.76406e-07
-2.7857e-06
-6.69208e-07
-2.77599e-06
-7.66561e-07
-2.76638e-06
-8.68772e-07
-2.75632e-06
-9.76005e-07
-2.7448e-06
-1.08827e-06
-2.73059e-06
-1.20524e-06
-2.71159e-06
-1.32591e-06
-2.68456e-06
-1.44869e-06
-2.64681e-06
-1.57116e-06
-2.59516e-06
-1.68859e-06
-2.52556e-06
-1.79796e-06
-2.42931e-06
-1.89118e-06
-2.29428e-06
-1.96065e-06
-2.12093e-06
-1.98689e-06
-1.91785e-06
-1.96353e-06
-1.68968e-06
-1.88881e-06
-1.4446e-06
-1.76005e-06
-1.19287e-06
-1.57864e-06
-9.48044e-07
-1.35124e-06
-7.23486e-07
-1.09154e-06
-5.27607e-07
-8.17048e-07
-3.65231e-07
-5.43612e-07
-2.38809e-07
-2.85952e-07
-1.47271e-07
-5.81158e-08
-8.6104e-08
1.28506e-07
-4.79339e-08
2.65973e-07
-2.36859e-08
3.40923e-07
-8.16949e-09
3.39296e-07
1.8043e-07
-1.68426e-08
-2.13917e-07
-6.64772e-08
-1.92959e-07
-1.29969e-07
-8.7348e-08
-2.02466e-07
2.80105e-08
-2.83876e-07
1.47775e-07
-3.75334e-07
2.70932e-07
-4.78043e-07
3.96352e-07
-5.92882e-07
5.22841e-07
-7.20197e-07
6.49513e-07
-8.59755e-07
7.75953e-07
-1.01062e-06
9.01839e-07
-1.17026e-06
1.02554e-06
-1.33445e-06
1.14349e-06
-1.49819e-06
1.25115e-06
-1.65652e-06
1.34404e-06
-1.80531e-06
1.41842e-06
-1.94187e-06
1.47199e-06
-2.0653e-06
1.50497e-06
-2.17585e-06
1.51912e-06
-2.27435e-06
1.51667e-06
-2.36176e-06
1.50007e-06
-2.43884e-06
1.47136e-06
-2.50624e-06
1.43236e-06
-2.56449e-06
1.38467e-06
-2.61412e-06
1.32973e-06
-2.65567e-06
1.26888e-06
-2.68979e-06
1.20336e-06
-2.71712e-06
1.13432e-06
-2.73838e-06
1.06273e-06
-2.75429e-06
9.89467e-07
-2.76555e-06
9.15231e-07
-2.77282e-06
8.4058e-07
-2.77676e-06
7.65939e-07
-2.77791e-06
6.91635e-07
-2.77678e-06
6.17859e-07
-2.77376e-06
5.44731e-07
-2.76916e-06
4.7226e-07
-2.76323e-06
4.00373e-07
-2.75616e-06
3.28949e-07
-2.74815e-06
2.57825e-07
-2.73934e-06
1.86793e-07
-2.72987e-06
1.15616e-07
-2.71989e-06
4.40239e-08
-2.70956e-06
-2.82624e-08
-2.69898e-06
-1.01562e-07
-2.68835e-06
-1.76244e-07
-2.67785e-06
-2.52669e-07
-2.6677e-06
-3.31242e-07
-2.65813e-06
-4.12378e-07
-2.64937e-06
-4.96522e-07
-2.64163e-06
-5.84138e-07
-2.63515e-06
-6.75695e-07
-2.63006e-06
-7.71649e-07
-2.62642e-06
-8.72416e-07
-2.62407e-06
-9.78353e-07
-2.62263e-06
-1.08971e-06
-2.62139e-06
-1.20649e-06
-2.61896e-06
-1.32834e-06
-2.61319e-06
-1.45446e-06
-2.60118e-06
-1.58317e-06
-2.57811e-06
-1.71167e-06
-2.54021e-06
-1.83586e-06
-2.48239e-06
-1.94899e-06
-2.39789e-06
-2.04515e-06
-2.2716e-06
-2.11318e-06
-2.10052e-06
-2.13461e-06
-1.89187e-06
-2.09746e-06
-1.65299e-06
-1.99893e-06
-1.39445e-06
-1.83718e-06
-1.12945e-06
-1.61624e-06
-8.7441e-07
-1.34658e-06
-6.44917e-07
-1.04654e-06
-4.49952e-07
-7.38577e-07
-2.9378e-07
-4.42124e-07
-1.77514e-07
-1.74382e-07
-9.80478e-08
4.90395e-08
-4.82665e-08
2.16191e-07
-1.92039e-08
3.11861e-07
-3.74648e-09
3.23839e-07
1.76683e-07
-3.17668e-08
-1.8215e-07
-9.68085e-08
-1.27917e-07
-1.73827e-07
-1.03298e-08
-2.5879e-07
1.12974e-07
-3.52143e-07
2.41128e-07
-4.55065e-07
3.73854e-07
-5.68618e-07
5.09905e-07
-6.93339e-07
6.47562e-07
-8.29148e-07
7.85322e-07
-9.75313e-07
9.22118e-07
-1.1297e-06
1.05622e-06
-1.28856e-06
1.1844e-06
-1.44727e-06
1.30221e-06
-1.60126e-06
1.40514e-06
-1.74653e-06
1.48931e-06
-1.88006e-06
1.55195e-06
-2.00053e-06
1.59247e-06
-2.10804e-06
1.61248e-06
-2.20325e-06
1.61433e-06
-2.28703e-06
1.60044e-06
-2.36009e-06
1.57313e-06
-2.42303e-06
1.53431e-06
-2.47642e-06
1.48575e-06
-2.52082e-06
1.42907e-06
-2.5569e-06
1.36581e-06
-2.58541e-06
1.29739e-06
-2.60717e-06
1.22513e-06
-2.62304e-06
1.15019e-06
-2.63387e-06
1.07356e-06
-2.64045e-06
9.96055e-07
-2.64354e-06
9.1832e-07
-2.64379e-06
8.40827e-07
-2.64177e-06
7.63915e-07
-2.63793e-06
6.878e-07
-2.63266e-06
6.12587e-07
-2.62623e-06
5.38302e-07
-2.61885e-06
4.64884e-07
-2.61069e-06
3.92214e-07
-2.60189e-06
3.20141e-07
-2.59253e-06
2.48472e-07
-2.58273e-06
1.76988e-07
-2.57256e-06
1.05451e-07
-2.56214e-06
3.35992e-08
-2.55156e-06
-3.88448e-08
-2.54094e-06
-1.12182e-07
-2.53044e-06
-1.86741e-07
-2.52025e-06
-2.6286e-07
-2.51058e-06
-3.40907e-07
-2.50169e-06
-4.21268e-07
-2.49385e-06
-5.04361e-07
-2.48736e-06
-5.90626e-07
-2.48253e-06
-6.80529e-07
-2.47964e-06
-7.74543e-07
-2.47891e-06
-8.73147e-07
-2.48046e-06
-9.768e-07
-2.48427e-06
-1.0859e-06
-2.49003e-06
-1.20072e-06
-2.49707e-06
-1.3213e-06
-2.50416e-06
-1.44737e-06
-2.50925e-06
-1.57808e-06
-2.50911e-06
-1.71181e-06
-2.49933e-06
-1.84564e-06
-2.47342e-06
-1.9749e-06
-2.42592e-06
-2.09265e-06
-2.34857e-06
-2.19053e-06
-2.2279e-06
-2.25528e-06
-2.05646e-06
-2.2689e-06
-1.84035e-06
-2.21504e-06
-1.58886e-06
-2.08866e-06
-1.31599e-06
-1.88912e-06
-1.03826e-06
-1.62431e-06
-7.75467e-07
-1.30933e-06
-5.45227e-07
-9.68817e-07
-3.56153e-07
-6.31197e-07
-2.11405e-07
-3.1913e-07
-1.09896e-07
-5.24695e-08
-4.59266e-08
1.52222e-07
-1.13893e-08
2.77324e-07
2.39005e-09
3.10059e-07
1.79073e-07
-4.60355e-08
-1.36114e-07
-1.25091e-07
-4.88616e-08
-2.1433e-07
7.89094e-08
-3.10671e-07
2.09315e-07
-4.14668e-07
3.45125e-07
-5.27516e-07
4.86702e-07
-6.50054e-07
6.32444e-07
-7.82471e-07
7.79979e-07
-9.2425e-07
9.27101e-07
-1.07362e-06
1.07148e-06
-1.22737e-06
1.20997e-06
-1.38146e-06
1.33849e-06
-1.5316e-06
1.45235e-06
-1.67391e-06
1.54745e-06
-1.80518e-06
1.62058e-06
-1.92357e-06
1.67034e-06
-2.02887e-06
1.69776e-06
-2.12159e-06
1.70521e-06
-2.20248e-06
1.69521e-06
-2.27225e-06
1.67021e-06
-2.33149e-06
1.63237e-06
-2.38078e-06
1.5836e-06
-2.42079e-06
1.52576e-06
-2.45228e-06
1.46056e-06
-2.47615e-06
1.38967e-06
-2.49335e-06
1.31459e-06
-2.50488e-06
1.23665e-06
-2.51168e-06
1.15699e-06
-2.51465e-06
1.07652e-06
-2.51456e-06
9.95967e-07
-2.51209e-06
9.15851e-07
-2.5078e-06
8.36537e-07
-2.50214e-06
7.58248e-07
-2.49543e-06
6.81096e-07
-2.48795e-06
6.05099e-07
-2.47985e-06
5.30204e-07
-2.47126e-06
4.56296e-07
-2.46227e-06
3.8322e-07
-2.45293e-06
3.10804e-07
-2.44329e-06
2.38834e-07
-2.43338e-06
1.6708e-07
-2.42325e-06
9.53201e-08
-2.41296e-06
2.33027e-08
-2.40256e-06
-4.92403e-08
-2.39216e-06
-1.22577e-07
-2.3819e-06
-1.97001e-07
-2.37195e-06
-2.72815e-07
-2.36251e-06
-3.50344e-07
-2.35385e-06
-4.29934e-07
-2.34625e-06
-5.11959e-07
-2.34005e-06
-5.96822e-07
-2.33562e-06
-6.84959e-07
-2.33333e-06
-7.76836e-07
-2.33353e-06
-8.7295e-07
-2.33651e-06
-9.73812e-07
-2.34249e-06
-1.07993e-06
-2.35146e-06
-1.19175e-06
-2.36315e-06
-1.3096e-06
-2.37692e-06
-1.43361e-06
-2.39151e-06
-1.5635e-06
-2.40487e-06
-1.69844e-06
-2.41383e-06
-1.83668e-06
-2.41355e-06
-1.97518e-06
-2.39725e-06
-2.10894e-06
-2.35744e-06
-2.23035e-06
-2.28479e-06
-2.32792e-06
-2.16508e-06
-2.38861e-06
-1.99001e-06
-2.39011e-06
-1.76344e-06
-2.31523e-06
-1.4976e-06
-2.15496e-06
-1.21018e-06
-1.91174e-06
-9.21744e-07
-1.59776e-06
-6.55977e-07
-1.23458e-06
-4.31418e-07
-8.55757e-07
-2.55306e-07
-4.95242e-07
-1.28695e-07
-1.7908e-07
-4.76131e-08
7.11403e-08
-5.35247e-09
2.35063e-07
7.67233e-09
2.97035e-07
1.86745e-07
-5.90685e-08
-7.70457e-08
-1.50416e-07
4.24857e-08
-2.50593e-07
1.79086e-07
-3.56884e-07
3.15607e-07
-4.69993e-07
4.58234e-07
-5.91022e-07
6.0773e-07
-7.20566e-07
7.61988e-07
-8.58418e-07
9.17832e-07
-1.00318e-06
1.07186e-06
-1.15218e-06
1.22049e-06
-1.30209e-06
1.35988e-06
-1.44886e-06
1.48527e-06
-1.58875e-06
1.59224e-06
-1.71845e-06
1.67715e-06
-1.83566e-06
1.73779e-06
-1.93967e-06
1.77435e-06
-2.03081e-06
1.7889e-06
-2.10974e-06
1.78413e-06
-2.17712e-06
1.7626e-06
-2.23359e-06
1.72668e-06
-2.27976e-06
1.67854e-06
-2.31638e-06
1.62022e-06
-2.34432e-06
1.5537e-06
-2.3646e-06
1.48084e-06
-2.3783e-06
1.40338e-06
-2.38652e-06
1.32282e-06
-2.39031e-06
1.24044e-06
-2.39062e-06
1.15729e-06
-2.38826e-06
1.07416e-06
-2.38392e-06
9.91629e-07
-2.37816e-06
9.10089e-07
-2.3714e-06
8.29776e-07
-2.36395e-06
7.50804e-07
-2.35605e-06
6.7319e-07
-2.34782e-06
5.96873e-07
-2.33936e-06
5.2174e-07
-2.3307e-06
4.47637e-07
-2.32186e-06
3.74378e-07
-2.31283e-06
3.01778e-07
-2.30362e-06
2.29621e-07
-2.2942e-06
1.57667e-07
-2.28459e-06
8.57079e-08
-2.27481e-06
1.35195e-08
-2.26489e-06
-5.91568e-08
-2.25492e-06
-1.32551e-07
-2.245e-06
-2.06922e-07
-2.23528e-06
-2.82533e-07
-2.22596e-06
-3.59664e-07
-2.21728e-06
-4.38613e-07
-2.20953e-06
-5.19703e-07
-2.20307e-06
-6.03289e-07
-2.19827e-06
-6.89761e-07
-2.19555e-06
-7.79552e-07
-2.19536e-06
-8.73143e-07
-2.19811e-06
-9.7106e-07
-2.20418e-06
-1.07386e-06
-2.21381e-06
-1.18212e-06