/*--------------------------------*- C++ -*----------------------------------*\
  =========                 |
  \\      /  F ield         | OpenFOAM: The Open Source CFD Toolbox
   \\    /   O peration     | Website:  https://openfoam.org
    \\  /    A nd           | Version:  13
     \\/     M anipulation  |
\*---------------------------------------------------------------------------*/
FoamFile
{
    format      ascii;
    class       volScalarField;
    location    "0.5";
    object      p;
}
// * * * * * * * * * * * * * * * * * * * * * * * * * * * * * * * * * * * * * //

dimensions      [0 2 -2 0 0 0 0];

internalField   nonuniform List<scalar> 
1600
(
1.84234e-08
-3.37578e-06
-6.80002e-06
-8.36314e-06
-6.88757e-06
-1.70065e-06
7.55281e-06
2.10337e-05
3.87923e-05
6.08202e-05
8.7081e-05
0.000117528
0.000152111
0.000190782
0.000233489
0.000280172
0.000330755
0.000385135
0.000443174
0.000504685
0.000569423
0.000637025
0.000707186
0.000779472
0.000853141
0.000927572
0.00100196
0.00107539
0.00114683
0.00121516
0.00127919
0.00133771
0.00138951
0.00143347
0.00146866
0.00149449
0.00151092
0.0015187
0.00151981
0.00151721
3.37198e-06
-2.99265e-08
-2.55658e-06
-2.83637e-06
-1.49717e-07
5.92324e-06
1.57162e-05
2.94366e-05
4.71902e-05
6.90197e-05
9.4931e-05
0.00012491
0.000158932
0.000196963
0.000238962
0.000284878
0.000334636
0.000388139
0.000445248
0.00050578
0.00056949
0.000636065
0.000705165
0.00077625
0.000848777
0.000922069
0.000995339
0.0010677
0.00113815
0.00120563
0.001269
0.00132711
0.00137884
0.00142317
0.00145928
0.00148662
0.00150508
0.00151491
0.00151719
0.00151464
6.84909e-06
2.38638e-06
-2.82252e-07
5.44008e-07
4.70612e-06
1.20237e-05
2.26807e-05
3.68915e-05
5.48053e-05
7.65171e-05
0.000102084
0.000131538
0.000164889
0.000202134
0.000243256
0.000288218
0.000336962
0.000389402
0.000445412
0.000504818
0.000567391
0.000632838
0.000700798
0.000770786
0.000842259
0.000914564
0.000986948
0.00105856
0.00112844
0.0011956
0.00125894
0.00131741
0.00136997
0.00141567
0.00145373
0.00148361
0.00150487
0.00151678
0.00151922
0.00151568
8.346e-06
2.29854e-06
-1.93229e-06
-1.385e-06
3.30878e-06
1.13462e-05
2.26346e-05
3.72883e-05
5.54262e-05
7.71472e-05
0.00010253
0.000131634
0.000164502
0.000201162
0.000241623
0.000285877
0.000333889
0.000385596
0.000440893
0.000499631
0.000561602
0.000626534
0.000694081
0.000763799
0.000835158
0.000907536
0.000980206
0.00105234
0.00112303
0.00119127
0.00125603
0.00131625
0.00137087
0.00141891
0.0014595
0.00149188
0.00151511
0.0015275
0.00152832
0.00152291
6.48883e-06
-1.20792e-06
-7.56713e-06
-8.24917e-06
-3.93554e-06
4.13707e-06
1.56057e-05
3.04439e-05
4.86952e-05
7.04227e-05
9.56961e-05
0.000124583
0.000157144
0.000193432
0.000233484
0.00027732
0.000324938
0.000376303
0.000431343
0.000489938
0.000551913
0.000617026
0.00068496
0.000755305
0.000827561
0.00090113
0.000975304
0.00104927
0.00112212
0.00119284
0.00126036
0.00132356
0.0013813
0.00143244
0.00147589
0.00151059
0.00153511
0.00154702
0.00154563
0.00153821
4.74301e-07
-8.6504e-06
-1.70668e-05
-1.93039e-05
-1.58744e-05
-8.25189e-06
3.00368e-06
1.77394e-05
3.59163e-05
5.75478e-05
8.26794e-05
0.000111373
0.0001437
0.000179728
0.000219523
0.000263134
0.000310594
0.000361902
0.000417026
0.000475885
0.000538343
0.000604197
0.000673169
0.000744889
0.000818889
0.000894594
0.00097131
0.00104823
0.00112441
0.00119882
0.00127029
0.00133758
0.00139939
0.00145437
0.00150116
0.00153834
0.00156404
0.0015754
0.00157195
0.00156274
-1.00899e-05
-2.03835e-05
-3.06115e-05
-3.44427e-05
-3.21371e-05
-2.52705e-05
-1.45247e-05
-1.45408e-07
1.77588e-05
3.9153e-05
6.40544e-05
9.25146e-05
0.000124607
0.000160416
0.000200031
0.000243534
0.000290991
0.000342446
0.00039791
0.000457348
0.000520674
0.000587734
0.000658296
0.000732037
0.000808528
0.000887219
0.000967432
0.00104835
0.00112899
0.00120825
0.00128485
0.00135738
0.00142432
0.00148404
0.00153486
0.00157502
0.00160224
0.00161331
0.00160816
0.00159738
-2.53338e-05
-3.65792e-05
-4.83746e-05
-5.37402e-05
-5.26653e-05
-4.6746e-05
-3.6729e-05
-2.29187e-05
-5.47503e-06
1.55274e-05
4.00803e-05
6.82241e-05
0.000100034
0.000135609
0.000175062
0.000218506
0.000266051
0.000317784
0.000373767
0.000434023
0.000498523
0.000567172
0.000639797
0.000716131
0.00079579
0.000878262
0.000962883
0.00104882
0.00113506
0.00122038
0.00130337
0.00138242
0.00145571
0.00152131
0.00157715
0.00162108
0.00165043
0.00166168
0.00165515
0.00164293
-4.52271e-05
-5.72726e-05
-7.0434e-05
-7.72479e-05
-7.74423e-05
-7.25903e-05
-6.34644e-05
-5.04006e-05
-3.35918e-05
-1.31412e-05
1.09235e-05
3.86341e-05
7.0069e-05
0.000105342
0.000144589
0.000187961
0.00023561
0.000287675
0.000344277
0.000405503
0.000471393
0.000541924
0.000616996
0.00069641
0.000779846
0.000866835
0.000956744
0.00104873
0.00114173
0.00123441
0.0013252
0.00141222
0.00149334
0.00156623
0.00162837
0.00167716
0.00170951
0.00172152
0.0017139
0.00170026
-6.96538e-05
-8.24089e-05
-9.67926e-05
-0.000104974
-0.000106446
-0.00010274
-9.46302e-05
-8.24649e-05
-6.64546e-05
-4.67202e-05
-2.33022e-05
3.82687e-06
3.47511e-05
6.96001e-05
0.000108538
0.000151754
0.000199445
0.000251811
0.000309038
0.000371287
0.00043868
0.000511281
0.00058908
0.000671963
0.000759695
0.000851874
0.000947908
0.00104697
0.00114794
0.00124939
0.00134953
0.00144623
0.00153695
0.00161888
0.00168897
0.00174407
0.00178051
0.00179397
0.0017855
0.00177043
-9.846e-05
-0.000111878
-0.000127398
-0.000136888
-0.00013964
-0.000137139
-0.00013015
-0.00011902
-0.000103967
-8.51197e-05
-6.25257e-05
-3.61572e-05
-5.92171e-06
2.83294e-05
6.67902e-05
0.000109689
0.000157278
0.000209819
0.000267574
0.000330788
0.000399678
0.000474413
0.000555093
0.00064171
0.000734153
0.000832102
0.000935043
0.00104218
0.00115238
0.00126412
0.0013754
0.00148375
0.00158621
0.00167936
0.00175949
0.00182273
0.00186469
0.00188043
0.00187132
0.00185468
-0.000131472
-0.00014554
-0.000162158
-0.000172928
-0.000176968
-0.000175728
-0.000169957
-0.000159994
-0.000146057
-0.000128278
-0.000106705
-8.13077e-05
-5.19817e-05
-1.85573e-05
1.91916e-05
6.15374e-05
0.000108788
0.000161276
0.000219345
0.000283337
0.000353581
0.000430368
0.000513933
0.00060442
0.000701823
0.000805996
0.000916533
0.00103272
0.00115344
0.00127709
0.00140149
0.00152382
0.00164058
0.00174766
0.00184048
0.00191423
0.00196352
0.00198256
0.00197303
0.00195461
-0.000168507
-0.000183238
-0.000200957
-0.000213005
-0.000218359
-0.000218439
-0.000213983
-0.00020532
-0.000192664
-0.000176147
-0.000155816
-0.000131632
-0.00010348
-7.11667e-05
-3.44328e-05
7.04048e-06
5.36207e-05
0.000105715
0.000163757
0.000228198
0.000299491
0.000378071
0.000464335
0.0005586
0.000661059
0.000771743
0.000890423
0.00101653
0.00114904
0.00128633
0.00142606
0.00156505
0.00169922
0.00182358
0.00193248
0.0020198
0.00207879
0.00210245
0.00209269
0.00207215
-0.000209381
-0.000224811
-0.000243662
-0.000257015
-0.000263723
-0.000265193
-0.000262157
-0.000254934
-0.000243734
-0.000228688
-0.00020984
-0.000187146
-0.000160475
-0.000129613
-9.42669e-05
-5.40703e-05
-8.59448e-06
4.26453e-05
0.00010018
0.000164579
0.000236433
0.000316344
0.000404897
0.000502626
0.000609967
0.0007272
0.000854352
0.000991089
0.00113657
0.00128926
0.00144672
0.00160547
0.00176075
0.00190658
0.00203587
0.0021408
0.00221265
0.00224262
0.00223285
0.0022097
-0.000253914
-0.000270091
-0.000290132
-0.00030484
-0.000312959
-0.000315903
-0.000314399
-0.000308764
-0.000299207
-0.000285857
-0.000268757
-0.00024786
-0.000223021
-0.000194006
-0.000160488
-0.000122058
-7.82254e-05
-2.84262e-05
2.79702e-05
9.16561e-05
0.000163376
0.000243915
0.000334077
0.000434653
0.000546379
0.000669862
0.000805485
0.000953266
0.00111269
0.00128245
0.00146019
0.00164217
0.00182299
0.00199547
0.00215074
0.00227863
0.00236761
0.00240619
0.00239663
0.00237004
-0.00030193
-0.000318914
-0.000340222
-0.000356353
-0.000365959
-0.000370469
-0.00037062
-0.000366732
-0.000359013
-0.000347599
-0.000332534
-0.000313769
-0.000291151
-0.000264429
-0.000233249
-0.00019716
-0.000155613
-0.000107971
-5.35035e-05
8.608e-06
7.92671e-05
0.000159457
0.000250223
0.00035266
0.000467861
0.000596838
0.000740458
0.000899244
0.00107319
0.00126144
0.00146195
0.00167094
0.00188247
0.00208802
0.0022765
0.00243455
0.00254655
0.00259693
0.00258771
0.00255634
-0.000353257
-0.000371116
-0.000393782
-0.000411422
-0.000422602
-0.000428783
-0.000430721
-0.000428743
-0.000423068
-0.00041384
-0.000401113
-0.00038484
-0.000364867
-0.00034093
-0.000312656
-0.000279559
-0.000241045
-0.000196404
-0.000144818
-8.53446e-05
-1.69232e-05
6.16334e-05
0.000151634
0.000254499
0.000371735
0.00050486
0.000655347
0.000824399
0.00101277
0.00122037
0.00144581
0.00168568
0.00193375
0.00218019
0.00241122
0.0026092
0.00275257
0.0028192
0.00281032
0.0027718
-0.000407724
-0.000426536
-0.000450663
-0.000469912
-0.000482764
-0.000490726
-0.000494585
-0.000494685
-0.000491262
-0.000484478
-0.000474401
-0.000460996
-0.000444114
-0.000423492
-0.000398743
-0.000369362
-0.000334715
-0.000294044
-0.000246448
-0.000190881
-0.000126136
-5.08258e-05
3.66208e-05
0.000137968
0.000255175
0.000390359
0.000545667
0.000723244
0.000924888
0.00115168
0.00140338
0.00167755
0.00196836
0.00226497
0.00255052
0.00280173
0.00298835
0.00307765
0.00306878
0.00301901
-0.000465167
-0.000485014
-0.000510718
-0.000531686
-0.000546313
-0.000556169
-0.000562082
-0.000564424
-0.000563457
-0.000559371
-0.000552258
-0.000542103
-0.000528775
-0.000512018
-0.00049145
-0.000466559
-0.000436695
-0.000401063
-0.000358713
-0.000308515
-0.00024914
-0.000179033
-9.6378e-05
9.2826e-07
0.000115298
0.00024947
0.000406452
0.000589441
0.000801629
0.00104574
0.00132339
0.00163402
0.00197328
0.00233044
0.00268546
0.00300793
0.00325482
0.0033762
0.00336643
0.00329855
-0.000525423
-0.000546398
-0.000573806
-0.000596608
-0.000613115
-0.000624974
-0.000633065
-0.0006378
-0.000639482
-0.000638335
-0.000634488
-0.000627958
-0.000618642
-0.000606308
-0.000590595
-0.000571001
-0.000546883
-0.000517444
-0.000481709
-0.000438509
-0.000386437
-0.000323816
-0.000248637
-0.000158509
-5.05983e-05
7.84395e-05
0.000232499
0.00041596
0.000633741
0.000890676
0.00119111
0.00153759
0.0019289
0.00235671
0.00279899
0.00321658
0.00354842
0.00371682
0.00370361
0.00360679
-0.000588337
-0.000610545
-0.000639795
-0.000664553
-0.000683039
-0.000696994
-0.000707369
-0.000714628
-0.000719123
-0.000721131
-0.000720828
-0.000718274
-0.00071341
-0.000706043
-0.000695848
-0.000682362
-0.000664976
-0.000642921
-0.000615247
-0.000580793
-0.000538142
-0.000485567
-0.000420959
-0.000341738
-0.000244749
-0.000126143
1.87739e-05
0.000195662
0.000410984
0.000672454
0.000987873
0.00136441
0.00180643
0.0023114
0.00285979
0.0034043
0.0038583
0.00409475
0.0040675
0.00393142
-0.000653769
-0.000677328
-0.000708574
-0.000735408
-0.00075596
-0.000772084
-0.000784818
-0.000794694
-0.00080213
-0.000807467
-0.000810943
-0.000812676
-0.000812661
-0.000810764
-0.000806717
-0.000800117
-0.000790423
-0.000776936
-0.000758782
-0.000734873
-0.000703864
-0.000664085
-0.000613453
-0.000549362
-0.000468534
-0.000366833
-0.000239023
-7.84732e-05
0.000123113
0.000375545
0.000691356
0.0010834
0.00156455
0.00214321
0.0028129
0.00352417
0.00414409
0.00445285
0.00439193
0.00424156
-0.0007216
-0.00074665
-0.00078006
-0.00080909
-0.000831773
-0.000850102
-0.000865223
-0.000877757
-0.000888206
-0.00089699
-0.000904421
-0.000910689
-0.000915858
-0.000919867
-0.000922526
-0.00092352
-0.000922407
-0.000918602
-0.000911362
-0.000899751
-0.000882593
-0.000858403
-0.000825297
-0.000780862
-0.000721988
-0.000644627
-0.000543468
-0.00041147
-0.000239318
-1.48949e-05
0.00027708
0.000656438
0.00114609
0.00177291
0.00255747
0.00344632
0.00423496
0.00460409
0.00454457
0.00449974
-0.000791752
-0.000818458
-0.000854221
-0.000885558
-0.000910401
-0.000930917
-0.000948391
-0.000963555
-0.000977014
-0.000989285
-0.00100077
-0.00101174
-0.00102234
-0.00103259
-0.00104241
-0.0010516
-0.00105982
-0.00106667
-0.00107159
-0.00107387
-0.00107261
-0.00106666
-0.00105452
-0.00103426
-0.0010033
-0.000958203
-0.000894311
-0.000805116
-0.000681724
-0.000511833
-0.000278392
4.12255e-05
0.000477824
0.00107759
0.00188233
0.00282821
0.00369875
0.00420022
0.00439807
0.00471744
-0.000864207
-0.000892769
-0.000931097
-0.000964832
-0.00099181
-0.00101442
-0.00103413
-0.0010518
-0.00106817
-0.00108387
-0.00109941
-0.00111514
-0.00113131
-0.00114804
-0.00116534
-0.00118314
-0.00120129
-0.00121956
-0.00123763
-0.0012551
-0.00127145
-0.001286
-0.00129786
-0.00130585
-0.00130835
-0.00130318
-0.00128721
-0.00125587
-0.00120279
-0.00111864
-0.000989735
-0.000798293
-0.000520891
-0.000123139
0.000429493
0.00118105
0.00204893
0.00291289
0.00378992
0.00468973
-0.000939037
-0.000969703
-0.00101083
-0.00104702
-0.00107603
-0.00110053
-0.00112223
-0.00114217
-0.00116125
-0.00118021
-0.00119968
-0.00122013
-0.00124187
-0.00126515
-0.00129009
-0.00131675
-0.00134517
-0.00137533
-0.00140721
-0.00144076
-0.00147592
-0.00151262
-0.00155075
-0.00159014
-0.00163055
-0.00167164
-0.00171278
-0.00175293
-0.0017908
-0.00182418
-0.00184987
-0.00186909
-0.00189749
-0.00193476
-0.00187384
-0.00155629
-0.000771049
0.000625321
0.0022768
0.00360893
-0.00101645
-0.00104953
-0.0010937
-0.00113234
-0.00116315
-0.0011892
-0.0012125
-0.00123433
-0.00125575
-0.00127767
-0.00130084
-0.00132581
-0.00135301
-0.00138276
-0.00141531
-0.00145086
-0.00148963
-0.00153183
-0.00157776
-0.00162775
-0.00168227
-0.00174192
-0.00180749
-0.00188002
-0.00196094
-0.00205215
-0.00215627
-0.00227709
-0.00242037
-0.0025944
-0.00281202
-0.00310538
-0.00354755
-0.00415315
-0.0047114
-0.00483017
-0.00410462
-0.00240366
-0.000301624
0.00108958
-0.00109687
-0.00113272
-0.0011802
-0.00122117
-0.00125336
-0.00128041
-0.00130472
-0.00132785
-0.0013511
-0.00137554
-0.00140203
-0.00143121
-0.0014636
-0.00149959
-0.00153954
-0.00158378
-0.00163269
-0.00168674
-0.00174649
-0.00181271
-0.00188638
-0.0019688
-0.00206168
-0.00216734
-0.00228893
-0.00243078
-0.00259895
-0.00280237
-0.00305433
-0.00337472
-0.00379439
-0.00437661
-0.00522989
-0.00634929
-0.00739824
-0.00780122
-0.00716572
-0.0055426
-0.00336216
-0.00192554
-0.001181
-0.00122007
-0.00127106
-0.00131404
-0.00134691
-0.00137411
-0.00139857
-0.00142222
-0.00144661
-0.00147297
-0.00150228
-0.00153525
-0.00157244
-0.00161431
-0.00166127
-0.00171379
-0.00177237
-0.0018377
-0.00191062
-0.00199226
-0.0020841
-0.00218809
-0.00230681
-0.00244376
-0.00260365
-0.00279297
-0.00302085
-0.00330034
-0.00365085
-0.00410158
-0.00469537
-0.00550502
-0.00664577
-0.00807028
-0.00936313
-0.00990287
-0.00940294
-0.00801861
-0.00617599
-0.00460819
-0.00127
-0.00131278
-0.00136737
-0.00141167
-0.0014441
-0.0014702
-0.00149362
-0.00151674
-0.00154138
-0.00156895
-0.00160047
-0.00163672
-0.00167823
-0.00172551
-0.00177898
-0.00183918
-0.00190674
-0.00198249
-0.00206751
-0.00216325
-0.0022716
-0.00239505
-0.00253693
-0.00270167
-0.00289523
-0.00312566
-0.00340414
-0.00374608
-0.0041737
-0.00471986
-0.00542992
-0.00637099
-0.00762425
-0.00911956
-0.0104584
-0.0110534
-0.0107051
-0.0095805
-0.0081514
-0.00658142
-0.00136572
-0.00141271
-0.00147064
-0.00151498
-0.00154516
-0.00156835
-0.00158913
-0.00161039
-0.00163422
-0.00166217
-0.00169527
-0.00173424
-0.00177959
-0.00183175
-0.00189117
-0.00195836
-0.00203403
-0.00211911
-0.00221484
-0.00232294
-0.00244561
-0.00258571
-0.00274713
-0.00293499
-0.00315602
-0.00341916
-0.00373638
-0.00412361
-0.00460236
-0.00520144
-0.00596117
-0.00693656
-0.00815623
-0.0095471
-0.0107955
-0.011383
-0.0111445
-0.0102068
-0.00911152
-0.0074956
-0.00147107
-0.0015226
-0.0015829
-0.00162491
-0.00165006
-0.00166781
-0.00168388
-0.00170165
-0.00172348
-0.00175096
-0.00178501
-0.00182624
-0.00187498
-0.00193156
-0.00199634
-0.0020698
-0.00215263
-0.00224581
-0.00235065
-0.00246908
-0.00260346
-0.00275692
-0.00293366
-0.00313921
-0.00338074
-0.00366746
-0.00401114
-0.0044267
-0.00493279
-0.00555233
-0.00631392
-0.00724511
-0.00834548
-0.00954163
-0.0106283
-0.0111362
-0.0109369
-0.0100345
-0.00915731
-0.00738103
-0.00159076
-0.00164658
-0.00170678
-0.00174227
-0.00175814
-0.00176694
-0.00177568
-0.00178809
-0.00180668
-0.00183294
-0.00186757
-0.0019108
-0.00196267
-0.00202331
-0.00209296
-0.00217198
-0.00226101
-0.002361
-0.00247334
-0.0025997
-0.00274288
-0.00290617
-0.00309366
-0.00331118
-0.00356599
-0.00386725
-0.0042261
-0.00465589
-0.00517181
-0.00578963
-0.0065234
-0.00737899
-0.00833682
-0.00932567
-0.0101651
-0.0105398
-0.0102745
-0.00920912
-0.00856437
-0.00633737
-0.00173261
-0.00179087
-0.00184532
-0.0018669
-0.00186707
-0.00186217
-0.00186022
-0.00186547
-0.00187997
-0.00190493
-0.00194029
-0.0019855
-0.00204036
-0.00210486
-0.00217899
-0.00226292
-0.00235716
-0.00246261
-0.00258059
-0.00271275
-0.00286187
-0.00303126
-0.00322508
-0.00344903
-0.00371029
-0.00401783
-0.0043821
-0.00481482
-0.00532791
-0.00593077
-0.00662569
-0.00740084
-0.0082184
-0.00899633
-0.0095797
-0.00972781
-0.00924514
-0.00791306
-0.00739746
-0.00438344
-0.00190988
-0.00196457
-0.00200083
-0.00199525
-0.00197
-0.00194541
-0.00192981
-0.00192791
-0.0019393
-0.00196318
-0.00199896
-0.00204608
-0.00210407
-0.00217248
-0.00225088
-0.00233914
-0.00243767
-0.0025473
-0.00266927
-0.00280534
-0.00295799
-0.00313047
-0.00332697
-0.00355307
-0.00381557
-0.00412333
-0.00448598
-0.00491375
-0.00541558
-0.0059954
-0.00664646
-0.00734193
-0.00802564
-0.00859762
-0.00890452
-0.00872758
-0.00788461
-0.00618606
-0.00522943
-0.00136794
-0.00214933
-0.00218325
-0.00217182
-0.00211571
-0.00205143
-0.00200376
-0.00197715
-0.00196842
-0.00197631
-0.00199924
-0.00203601
-0.00208576
-0.0021474
-0.00221996
-0.00230255
-0.00239458
-0.00249645
-0.00260912
-0.00273383
-0.00287237
-0.00302701
-0.00320083
-0.0033981
-0.0036243
-0.00388613
-0.0041916
-0.00454979
-0.00496928
-0.00545601
-0.0060079
-0.00660932
-0.00721857
-0.00775823
-0.00810094
-0.00807502
-0.00743375
-0.00600686
-0.00354142
-0.00156734
0.00378661
-0.00249668
-0.00245266
-0.00234506
-0.00220613
-0.00209887
-0.00203115
-0.0019934
-0.0019796
-0.0019863
-0.00201038
-0.00204955
-0.00210223
-0.00216695
-0.00224247
-0.00232784
-0.00242208
-0.00252529
-0.00263907
-0.00276514
-0.00290527
-0.00306157
-0.00323693
-0.00343555
-0.00366266
-0.00392473
-0.00422891
-0.00458344
-0.00499457
-0.00546503
-0.00598562
-0.00652939
-0.00703664
-0.00740653
-0.00746389
-0.00699999
-0.00567837
-0.00330849
0.000600442
0.00470365
0.0133803
-0.00306712
-0.00280007
-0.00249756
-0.00225046
-0.00210701
-0.00202691
-0.00198473
-0.00197053
-0.00197855
-0.00200431
-0.0020447
-0.00209733
-0.00216126
-0.00223639
-0.00232052
-0.00241302
-0.00251564
-0.0026297
-0.00275675
-0.00289848
-0.00305712
-0.00323559
-0.00343785
-0.00366818
-0.00393282
-0.00423772
-0.00459037
-0.00499352
-0.00544667
-0.00593196
-0.00641245
-0.00680293
-0.00697953
-0.00669254
-0.00569707
-0.00345773
0.00031706
0.00667806
0.0147468
0.0295544
-0.00394846
-0.00295971
-0.00244851
-0.00215864
-0.00201177
-0.00193154
-0.00189129
-0.00188087
-0.00189248
-0.00191998
-0.00195995
-0.00201046
-0.00207081
-0.00214094
-0.0022214
-0.00231334
-0.0024171
-0.00253318
-0.00266247
-0.00280673
-0.00296844
-0.00315054
-0.00335704
-0.00359122
-0.00385977
-0.00416658
-0.0045195
-0.00491571
-0.00535383
-0.00580373
-0.00622663
-0.00651416
-0.00652876
-0.0059856
-0.00449394
-0.00126152
0.00437842
0.0141612
0.0281817
0.051572
-0.00490292
-0.000932169
-0.000248631
-0.000362899
-0.000459858
-0.000502089
-0.000552283
-0.000632523
-0.000732802
-0.000839876
-0.000948171
-0.00105865
-0.0011742
-0.00129511
-0.00142112
-0.00155311
-0.00169297
-0.00184214
-0.00200257
-0.00217592
-0.00236498
-0.00257282
-0.00280301
-0.00306082
-0.0033509
-0.00368031
-0.00405036
-0.00446365
-0.00490406
-0.00534856
-0.00572778
-0.00595337
-0.00586013
-0.00527582
-0.00363229
0.000237432
0.0079774
0.0211789
0.0414293
0.0691674
)
;

boundaryField
{
    movingWall
    {
        type            zeroGradient;
    }
    fixedWalls
    {
        type            zeroGradient;
    }
    frontAndBack
    {
        type            empty;
    }
}


// ************************************************************************* //
