/*--------------------------------*- C++ -*----------------------------------*\
  =========                 |
  \\      /  F ield         | OpenFOAM: The Open Source CFD Toolbox
   \\    /   O peration     | Website:  https://openfoam.org
    \\  /    A nd           | Version:  13
     \\/     M anipulation  |
\*---------------------------------------------------------------------------*/
FoamFile
{
    format      ascii;
    class       volScalarField;
    location    "0.2";
    object      epsilon;
}
// * * * * * * * * * * * * * * * * * * * * * * * * * * * * * * * * * * * * * //

dimensions      [0 2 -3 0 0 0 0];

internalField   nonuniform List<scalar> 
6400
(
0.000500663
0.00211924
0.00395352
0.00548291
0.00667111
0.00757138
0.00824142
0.008731
0.00908159
0.00932729
0.00949576
0.00960889
0.0096835
0.0097321
0.00976365
0.00978436
0.00979839
0.00980842
0.00981614
0.00982258
0.00982834
0.00983379
0.00983914
0.00984449
0.00984991
0.00985544
0.00986108
0.00986686
0.00987276
0.0098788
0.00988496
0.00989125
0.00989766
0.00990419
0.00991082
0.00991755
0.00992437
0.00993128
0.00993824
0.00994524
0.00995223
0.00995915
0.00996598
0.00997321
0.00998067
0.00998814
0.00999563
0.0100031
0.0100106
0.0100181
0.0100255
0.010033
0.0100403
0.0100476
0.0100549
0.0100621
0.0100691
0.010076
0.0100826
0.0100888
0.0100944
0.0100989
0.0101014
0.0101009
0.0100952
0.0100811
0.0100538
0.0100063
0.00992858
0.0098072
0.00962441
0.00935758
0.00897868
0.00845369
0.00774186
0.00679506
0.00555896
0.0039867
0.00212436
0.00050061
0.00212398
0.00217647
0.00301329
0.00372783
0.00426086
0.00464364
0.00491307
0.00509954
0.00522637
0.00531106
0.00536654
0.00540223
0.00542485
0.00543905
0.00544796
0.00545366
0.00545744
0.00546012
0.00546219
0.00546394
0.00546552
0.00546703
0.00546852
0.00547001
0.00547153
0.00547308
0.00547465
0.00547625
0.00547788
0.00547954
0.00548122
0.00548293
0.00548466
0.0054864
0.00548816
0.00548994
0.00549172
0.00549351
0.0054953
0.00549708
0.00549884
0.00550059
0.00550235
0.00550429
0.0055063
0.00550832
0.00551032
0.00551231
0.00551429
0.00551626
0.00551821
0.00552013
0.00552204
0.00552391
0.00552576
0.00552758
0.00552936
0.00553109
0.00553274
0.0055343
0.00553569
0.0055368
0.00553736
0.00553709
0.00553538
0.00553129
0.00552329
0.00550909
0.00548526
0.00544686
0.00538693
0.00529589
0.0051608
0.00496438
0.00468382
0.00428967
0.0037455
0.00302044
0.00217621
0.00211896
0.00398431
0.00302085
0.00342623
0.00384236
0.00415673
0.00437703
0.00452635
0.00462518
0.00468932
0.00473018
0.00475576
0.00477155
0.00478117
0.00478701
0.00479057
0.0047928
0.00479424
0.00479525
0.00479602
0.00479666
0.00479723
0.00479777
0.00479831
0.00479885
0.00479939
0.00479995
0.00480051
0.00480109
0.00480167
0.00480227
0.00480288
0.00480349
0.00480411
0.00480474
0.00480538
0.00480602
0.00480667
0.00480732
0.00480796
0.00480861
0.00480925
0.0048099
0.00481057
0.00481129
0.00481203
0.00481277
0.00481351
0.00481425
0.00481499
0.00481572
0.00481644
0.00481716
0.00481787
0.00481857
0.00481926
0.00481995
0.00482061
0.00482126
0.00482189
0.00482247
0.00482299
0.0048234
0.00482359
0.00482347
0.0048228
0.00482118
0.00481799
0.00481219
0.00480214
0.00478536
0.00475806
0.00471469
0.00464722
0.00454432
0.0043905
0.00416532
0.00384652
0.00342549
0.00301291
0.00395176
0.00555442
0.0037455
0.00384713
0.00407493
0.00425892
0.00438708
0.00447033
0.00452203
0.00455288
0.00457059
0.00458037
0.00458556
0.00458821
0.00458953
0.00459018
0.00459053
0.00459073
0.00459088
0.004591
0.00459111
0.00459122
0.00459133
0.00459144
0.00459156
0.00459167
0.00459179
0.00459192
0.00459205
0.00459218
0.00459231
0.00459245
0.00459259
0.00459274
0.00459289
0.00459304
0.0045932
0.00459336
0.00459352
0.00459368
0.00459385
0.00459402
0.00459419
0.00459438
0.00459459
0.0045948
0.00459502
0.00459525
0.00459548
0.00459571
0.00459594
0.00459617
0.00459641
0.00459664
0.00459688
0.00459711
0.00459735
0.00459759
0.00459782
0.00459806
0.00459828
0.00459849
0.00459871
0.00459891
0.0045991
0.00459925
0.00459924
0.00459892
0.00459787
0.0045954
0.00459021
0.00458016
0.00456182
0.00452994
0.00447677
0.00439162
0.00426132
0.00407437
0.00384165
0.00372713
0.00547875
0.00678878
0.00428937
0.00416572
0.00426165
0.00435646
0.00442176
0.00446045
0.00448034
0.00448859
0.00449038
0.00448906
0.00448662
0.00448411
0.00448198
0.00448037
0.00447923
0.00447845
0.00447794
0.0044776
0.00447737
0.00447719
0.00447705
0.00447692
0.00447681
0.00447669
0.00447658
0.00447647
0.00447636
0.00447625
0.00447613
0.00447602
0.00447592
0.00447581
0.0044757
0.0044756
0.0044755
0.0044754
0.00447531
0.00447521
0.00447513
0.00447504
0.00447497
0.0044749
0.00447484
0.0044748
0.00447475
0.00447472
0.00447469
0.00447466
0.00447465
0.00447463
0.00447463
0.00447463
0.00447464
0.00447465
0.00447467
0.00447471
0.00447476
0.00447481
0.00447489
0.00447502
0.00447525
0.00447564
0.00447627
0.00447726
0.00447874
0.00448081
0.00448352
0.00448672
0.00448989
0.00449188
0.0044906
0.00448258
0.00446251
0.00442316
0.00435633
0.00425843
0.00415596
0.0042596
0.00666392
0.00773452
0.00468334
0.00439071
0.00439174
0.00442301
0.00444352
0.00445011
0.00444688
0.00443843
0.00442819
0.00441827
0.00440974
0.00440298
0.00439794
0.00439434
0.00439188
0.00439024
0.00438915
0.00438841
0.0043879
0.00438752
0.00438721
0.00438694
0.00438669
0.00438644
0.00438619
0.00438595
0.0043857
0.00438545
0.00438521
0.00438496
0.00438471
0.00438446
0.00438421
0.00438397
0.00438372
0.00438348
0.00438325
0.00438301
0.00438278
0.00438256
0.00438235
0.00438214
0.00438194
0.00438175
0.00438156
0.00438139
0.00438122
0.00438106
0.00438091
0.00438077
0.00438063
0.00438051
0.00438039
0.00438029
0.0043802
0.00438015
0.00438012
0.0043801
0.00438014
0.0043803
0.00438065
0.00438133
0.00438249
0.00438436
0.00438726
0.0043915
0.00439744
0.00440531
0.00441509
0.00442633
0.0044378
0.00444721
0.00445088
0.00444397
0.00442184
0.00438666
0.00437599
0.00464161
0.00756067
0.00844614
0.00496385
0.00454446
0.00447676
0.00446218
0.0044502
0.00443316
0.0044126
0.00439137
0.00437172
0.00435489
0.00434133
0.00433096
0.00432336
0.004318
0.00431433
0.00431187
0.00431025
0.00430917
0.00430842
0.00430788
0.00430745
0.00430708
0.00430674
0.00430642
0.0043061
0.00430578
0.00430546
0.00430514
0.00430482
0.0043045
0.00430418
0.00430385
0.00430353
0.00430321
0.00430289
0.00430258
0.00430227
0.00430196
0.00430166
0.00430136
0.00430107
0.00430079
0.00430052
0.00430026
0.0043
0.00429976
0.00429952
0.0042993
0.00429908
0.00429887
0.00429867
0.00429849
0.00429832
0.00429816
0.00429803
0.00429794
0.00429788
0.00429785
0.00429792
0.00429817
0.00429873
0.00429974
0.00430147
0.00430424
0.00430849
0.00431472
0.00432349
0.00433531
0.00435052
0.00436909
0.00439041
0.00441296
0.00443421
0.00445087
0.00446072
0.00446991
0.00452499
0.00491008
0.00822672
0.00897192
0.00516048
0.0046474
0.0045299
0.00448218
0.00444643
0.0044118
0.00437806
0.00434692
0.00431978
0.00429732
0.00427957
0.0042661
0.00425626
0.00424931
0.00424454
0.00424133
0.00423922
0.00423781
0.00423686
0.00423618
0.00423566
0.00423523
0.00423485
0.00423449
0.00423413
0.00423378
0.00423343
0.00423308
0.00423273
0.00423237
0.00423202
0.00423166
0.00423131
0.00423096
0.00423061
0.00423026
0.00422992
0.00422958
0.00422925
0.00422893
0.00422861
0.00422831
0.00422801
0.00422772
0.00422744
0.00422717
0.00422691
0.00422665
0.00422642
0.00422619
0.00422597
0.00422577
0.00422558
0.00422542
0.00422528
0.00422519
0.00422513
0.00422513
0.00422527
0.00422567
0.00422645
0.00422783
0.00423014
0.00423378
0.00423929
0.00424732
0.00425858
0.00427377
0.00429347
0.00431796
0.004347
0.00437963
0.00441403
0.00444796
0.00448081
0.00452159
0.00462345
0.00509545
0.00871187
0.00935268
0.00529608
0.00471507
0.00456186
0.00449023
0.00443702
0.00438925
0.00434545
0.00430655
0.00427342
0.00424636
0.0042251
0.00420899
0.0041972
0.00418883
0.00418307
0.00417918
0.00417661
0.00417491
0.00417378
0.00417299
0.0041724
0.00417193
0.00417152
0.00417114
0.00417078
0.00417042
0.00417007
0.00416971
0.00416935
0.00416899
0.00416864
0.00416828
0.00416792
0.00416757
0.00416722
0.00416687
0.00416653
0.0041662
0.00416587
0.00416554
0.00416523
0.00416492
0.00416463
0.00416434
0.00416406
0.0041638
0.00416354
0.0041633
0.00416306
0.00416284
0.00416264
0.00416244
0.00416227
0.00416212
0.00416201
0.00416193
0.00416189
0.00416196
0.00416221
0.00416276
0.00416378
0.00416555
0.00416842
0.00417288
0.00417956
0.00418919
0.00420261
0.00422066
0.00424409
0.00427337
0.00430852
0.00434891
0.00439321
0.00443985
0.00448926
0.00455242
0.00468716
0.00522103
0.00905754
0.0096225
0.00538795
0.00475878
0.00458035
0.00449159
0.00442562
0.00436801
0.00431651
0.00427153
0.00423361
0.00420279
0.0041786
0.00416025
0.00414677
0.00413717
0.00413052
0.00412602
0.00412304
0.00412108
0.00411978
0.00411889
0.00411826
0.00411776
0.00411735
0.00411697
0.00411661
0.00411627
0.00411592
0.00411558
0.00411523
0.00411489
0.00411455
0.00411421
0.00411387
0.00411353
0.0041132
0.00411287
0.00411255
0.00411224
0.00411193
0.00411163
0.00411133
0.00411105
0.00411078
0.00411051
0.00411026
0.00411002
0.00410978
0.00410956
0.00410936
0.00410916
0.00410898
0.00410882
0.00410867
0.00410856
0.00410849
0.00410843
0.00410844
0.00410858
0.00410895
0.00410967
0.00411094
0.00411308
0.00411648
0.00412169
0.00412941
0.00414045
0.00415574
0.00417621
0.00420271
0.00423586
0.00427584
0.00432223
0.00437399
0.00442998
0.00449127
0.00457011
0.00472756
0.00530435
0.00929786
0.00980941
0.00544903
0.00478654
0.00459062
0.00448971
0.00441447
0.00434953
0.00429214
0.00424242
0.00420068
0.0041668
0.0041402
0.00411997
0.00410505
0.00409439
0.00408696
0.00408193
0.00407859
0.00407639
0.00407495
0.00407398
0.00407331
0.0040728
0.00407238
0.00407202
0.00407168
0.00407135
0.00407103
0.00407071
0.00407039
0.00407008
0.00406976
0.00406945
0.00406914
0.00406883
0.00406853
0.00406824
0.00406795
0.00406766
0.00406739
0.00406712
0.00406686
0.00406661
0.00406637
0.00406614
0.00406592
0.00406572
0.00406552
0.00406534
0.00406517
0.00406501
0.00406487
0.00406474
0.00406464
0.00406457
0.00406452
0.00406451
0.00406458
0.00406482
0.0040653
0.00406618
0.0040677
0.00407018
0.00407406
0.00407995
0.00408859
0.00410085
0.00411772
0.00414021
0.00416923
0.0042055
0.00424928
0.00430028
0.00435764
0.00442046
0.0044902
0.00457986
0.00475266
0.00535834
0.00946046
0.00993595
0.00548887
0.00480391
0.00459607
0.00448667
0.00440477
0.0043344
0.00427255
0.00421916
0.0041744
0.00413806
0.00410949
0.0040877
0.00407159
0.00406002
0.00405194
0.00404644
0.00404278
0.00404038
0.00403882
0.00403779
0.00403708
0.00403656
0.00403616
0.00403581
0.0040355
0.0040352
0.0040349
0.00403462
0.00403433
0.00403405
0.00403377
0.00403349
0.00403321
0.00403294
0.00403268
0.00403242
0.00403217
0.00403192
0.00403169
0.00403146
0.00403124
0.00403103
0.00403083
0.00403064
0.00403047
0.0040303
0.00403015
0.00403001
0.00402988
0.00402977
0.00402967
0.00402959
0.00402953
0.0040295
0.00402948
0.00402952
0.00402967
0.00402999
0.00403059
0.00403163
0.00403337
0.00403616
0.00404047
0.00404695
0.00405638
0.00406967
0.00408787
0.00411201
0.00414308
0.00418182
0.00422856
0.00428309
0.00434462
0.00441237
0.00448804
0.00458504
0.00476793
0.00539244
0.0095672
0.0100198
0.00551441
0.00481465
0.00459885
0.00448361
0.00439696
0.00432263
0.00425744
0.00420123
0.00415412
0.00411584
0.00408568
0.00406263
0.00404553
0.00403321
0.00402459
0.0040187
0.00401478
0.00401221
0.00401054
0.00400945
0.00400872
0.00400821
0.00400781
0.00400749
0.0040072
0.00400693
0.00400667
0.00400641
0.00400616
0.00400591
0.00400567
0.00400543
0.00400519
0.00400496
0.00400473
0.00400452
0.0040043
0.0040041
0.00400391
0.00400372
0.00400354
0.00400338
0.00400322
0.00400308
0.00400294
0.00400282
0.00400271
0.00400262
0.00400253
0.00400246
0.00400241
0.00400237
0.00400236
0.00400235
0.00400238
0.00400249
0.0040027
0.0040031
0.00400381
0.00400499
0.00400693
0.00400999
0.00401468
0.00402166
0.00403175
0.00404591
0.00406519
0.00409067
0.00412337
0.00416405
0.00421307
0.00427025
0.00433483
0.0044061
0.00448583
0.00458769
0.00477702
0.00541335
0.00963488
0.0100744
0.00553059
0.00482125
0.00460022
0.00448102
0.00439106
0.00431388
0.00424622
0.00418789
0.00413898
0.00409918
0.00406778
0.00404373
0.00402584
0.00401291
0.00400384
0.00399763
0.00399349
0.00399079
0.00398904
0.00398791
0.00398716
0.00398665
0.00398627
0.00398596
0.0039857
0.00398546
0.00398523
0.00398501
0.00398479
0.00398458
0.00398437
0.00398416
0.00398397
0.00398377
0.00398359
0.00398341
0.00398324
0.00398307
0.00398292
0.00398277
0.00398264
0.00398251
0.0039824
0.0039823
0.0039822
0.00398213
0.00398206
0.00398201
0.00398197
0.00398194
0.00398193
0.00398192
0.00398193
0.00398197
0.00398205
0.00398221
0.00398249
0.00398296
0.00398376
0.00398508
0.00398719
0.00399048
0.00399548
0.00400289
0.00401352
0.00402838
0.00404853
0.00407508
0.00410905
0.00415121
0.00420195
0.00426109
0.00432787
0.00440159
0.00448405
0.00458903
0.0047823
0.00542573
0.009676
0.0101095
0.00554079
0.00482533
0.00460092
0.00447907
0.00438683
0.00430762
0.00423818
0.00417828
0.00412802
0.00408708
0.00405472
0.00402989
0.00401138
0.00399799
0.00398856
0.0039821
0.00397779
0.00397497
0.00397315
0.00397199
0.00397123
0.00397072
0.00397036
0.00397008
0.00396984
0.00396963
0.00396943
0.00396923
0.00396905
0.00396887
0.00396869
0.00396852
0.00396836
0.0039682
0.00396805
0.00396791
0.00396777
0.00396765
0.00396753
0.00396743
0.00396733
0.00396724
0.00396717
0.0039671
0.00396705
0.00396702
0.00396698
0.00396696
0.00396696
0.00396696
0.00396698
0.00396701
0.00396706
0.00396714
0.00396727
0.00396748
0.00396781
0.00396835
0.00396924
0.00397066
0.00397291
0.0039764
0.00398166
0.00398941
0.00400048
0.00401589
0.00403673
0.0040641
0.00409904
0.00414233
0.00419434
0.00425488
0.00432321
0.00439859
0.00448283
0.00458973
0.00478528
0.00543271
0.0096995
0.0101322
0.0055473
0.00482791
0.00460131
0.00447772
0.00438393
0.00430332
0.00423261
0.00417159
0.00412034
0.00407855
0.00404548
0.00402006
0.00400109
0.00398733
0.00397763
0.00397098
0.00396654
0.00396363
0.00396177
0.00396058
0.00395982
0.00395932
0.00395896
0.0039587
0.00395848
0.0039583
0.00395812
0.00395796
0.0039578
0.00395765
0.0039575
0.00395736
0.00395723
0.00395711
0.00395699
0.00395688
0.00395678
0.00395669
0.00395661
0.00395653
0.00395647
0.00395642
0.00395638
0.00395635
0.00395632
0.00395631
0.0039563
0.00395631
0.00395634
0.00395638
0.00395643
0.0039565
0.00395659
0.00395671
0.00395688
0.00395712
0.0039575
0.0039581
0.00395906
0.00396057
0.00396294
0.00396659
0.00397206
0.00398007
0.00399149
0.00400733
0.0040287
0.0040567
0.00409236
0.00413648
0.0041894
0.00425094
0.00432032
0.00439678
0.00448212
0.00459011
0.00478689
0.00543632
0.00971147
0.0101472
0.00555161
0.00482963
0.0046016
0.00447686
0.00438203
0.00430047
0.00422889
0.00416708
0.00411513
0.00407273
0.00403914
0.0040133
0.00399398
0.00397996
0.00397006
0.00396327
0.00395872
0.00395576
0.00395386
0.00395265
0.00395189
0.00395139
0.00395105
0.00395081
0.00395061
0.00395044
0.00395029
0.00395015
0.00395002
0.00394989
0.00394977
0.00394966
0.00394955
0.00394946
0.00394937
0.00394929
0.00394922
0.00394916
0.00394911
0.00394906
0.00394903
0.003949
0.00394899
0.00394898
0.00394896
0.00394898
0.003949
0.00394904
0.0039491
0.00394916
0.00394925
0.00394934
0.00394947
0.00394962
0.00394982
0.0039501
0.00395053
0.00395117
0.00395219
0.00395377
0.00395624
0.00396001
0.00396565
0.00397388
0.00398556
0.00400174
0.00402349
0.00405196
0.00408816
0.00413286
0.00418643
0.00424864
0.0043187
0.00439584
0.00448179
0.00459036
0.00478768
0.00543786
0.00971608
0.0101575
0.00555466
0.00483087
0.00460187
0.00447636
0.00438085
0.00429865
0.00422648
0.00416413
0.0041117
0.00406888
0.00403493
0.00400879
0.00398923
0.00397502
0.00396498
0.00395809
0.00395348
0.00395047
0.00394855
0.00394733
0.00394657
0.00394608
0.00394575
0.00394551
0.00394533
0.00394518
0.00394505
0.00394493
0.00394482
0.00394471
0.00394462
0.00394453
0.00394445
0.00394438
0.00394431
0.00394426
0.00394422
0.00394418
0.00394415
0.00394413
0.00394412
0.00394411
0.0039441
0.0039441
0.00394411
0.00394415
0.0039442
0.00394427
0.00394435
0.00394444
0.00394455
0.00394467
0.00394482
0.003945
0.00394523
0.00394555
0.003946
0.00394669
0.00394775
0.0039494
0.00395195
0.00395582
0.00396159
0.00396997
0.00398187
0.00399829
0.00402034
0.00404915
0.00408573
0.00413085
0.00418484
0.00424748
0.00431796
0.00439546
0.00448173
0.00459053
0.00478796
0.00543821
0.00971618
0.0101654
0.00555705
0.00483186
0.00460215
0.00447612
0.00438015
0.00429752
0.00422496
0.00416226
0.00410952
0.00406642
0.00403223
0.00400589
0.00398618
0.00397184
0.00396171
0.00395475
0.00395009
0.00394705
0.00394512
0.0039439
0.00394313
0.00394265
0.00394233
0.00394211
0.00394194
0.0039418
0.00394169
0.00394158
0.00394149
0.0039414
0.00394133
0.00394126
0.0039412
0.00394115
0.00394111
0.00394108
0.00394106
0.00394104
0.00394103
0.00394101
0.00394101
0.00394101
0.003941
0.00394102
0.00394106
0.00394112
0.00394119
0.00394128
0.00394138
0.0039415
0.00394163
0.00394178
0.00394195
0.00394215
0.00394241
0.00394275
0.00394323
0.00394396
0.00394506
0.00394676
0.00394937
0.00395332
0.00395919
0.0039677
0.00397975
0.00399635
0.00401863
0.00404768
0.00408452
0.00412991
0.00418418
0.00424708
0.00431779
0.00439549
0.00448189
0.0045907
0.00478799
0.00543782
0.00971323
0.0101719
0.00555911
0.00483274
0.00460246
0.00447605
0.00437976
0.00429686
0.00422405
0.00416113
0.00410818
0.00406491
0.00403057
0.0040041
0.00398429
0.00396988
0.00395969
0.00395269
0.003948
0.00394495
0.003943
0.00394178
0.00394102
0.00394054
0.00394023
0.00394002
0.00393986
0.00393974
0.00393963
0.00393954
0.00393947
0.0039394
0.00393934
0.00393929
0.00393925
0.00393922
0.0039392
0.00393918
0.00393918
0.00393917
0.00393917
0.00393916
0.00393916
0.00393915
0.00393916
0.0039392
0.00393926
0.00393934
0.00393943
0.00393954
0.00393966
0.00393979
0.00393994
0.00394011
0.0039403
0.00394052
0.0039408
0.00394117
0.00394168
0.00394243
0.00394357
0.00394531
0.00394797
0.00395199
0.00395793
0.00396654
0.0039787
0.00399545
0.00401787
0.00404709
0.00408411
0.00412969
0.00418414
0.0042472
0.00431804
0.00439582
0.00448221
0.0045909
0.00478788
0.00543696
0.00970824
0.0101779
0.00556106
0.00483358
0.0046028
0.00447608
0.00437956
0.00429648
0.00422352
0.00416046
0.00410739
0.00406402
0.0040296
0.00400306
0.00398319
0.00396874
0.00395852
0.0039515
0.0039468
0.00394374
0.0039418
0.00394057
0.00393982
0.00393934
0.00393904
0.00393883
0.00393868
0.00393857
0.00393848
0.0039384
0.00393834
0.00393828
0.00393824
0.00393821
0.00393819
0.00393817
0.00393816
0.00393816
0.00393816
0.00393816
0.00393815
0.00393815
0.00393815
0.00393815
0.00393817
0.00393823
0.0039383
0.0039384
0.00393851
0.00393863
0.00393876
0.00393891
0.00393908
0.00393927
0.00393947
0.00393972
0.00394001
0.0039404
0.00394093
0.00394171
0.00394287
0.00394465
0.00394735
0.00395142
0.00395742
0.0039661
0.00397836
0.00399521
0.00401775
0.0040471
0.00408426
0.00412997
0.00418454
0.0042477
0.00431859
0.00439636
0.00448265
0.00459113
0.00478768
0.0054358
0.00970181
0.0101837
0.00556301
0.00483443
0.00460316
0.00447618
0.00437949
0.00429628
0.00422322
0.00416008
0.00410696
0.00406354
0.00402908
0.00400251
0.00398262
0.00396815
0.00395792
0.00395089
0.00394619
0.00394314
0.00394119
0.00393997
0.00393922
0.00393875
0.00393845
0.00393825
0.00393811
0.003938
0.00393792
0.00393786
0.00393781
0.00393777
0.00393775
0.00393772
0.00393771
0.0039377
0.0039377
0.0039377
0.0039377
0.0039377
0.0039377
0.0039377
0.00393768
0.0039377
0.00393774
0.00393781
0.0039379
0.00393801
0.00393813
0.00393826
0.00393841
0.00393858
0.00393876
0.00393895
0.00393918
0.00393943
0.00393974
0.00394015
0.0039407
0.0039415
0.00394269
0.0039445
0.00394724
0.00395135
0.00395741
0.00396616
0.0039785
0.00399544
0.00401808
0.00404754
0.00408481
0.00413061
0.00418526
0.00424847
0.00431935
0.00439705
0.0044832
0.00459139
0.00478743
0.00543443
0.00969429
0.0101897
0.00556504
0.00483532
0.00460356
0.00447632
0.0043795
0.00429619
0.00422307
0.00415989
0.00410675
0.00406332
0.00402885
0.00400228
0.00398238
0.00396791
0.00395768
0.00395066
0.00394597
0.00394291
0.00394097
0.00393976
0.00393901
0.00393854
0.00393825
0.00393805
0.00393792
0.00393782
0.00393775
0.0039377
0.00393766
0.00393763
0.00393763
0.00393761
0.00393761
0.0039376
0.00393759
0.00393758
0.00393759
0.00393759
0.00393759
0.00393759
0.00393759
0.00393761
0.00393767
0.00393775
0.00393785
0.00393797
0.00393811
0.00393825
0.00393842
0.00393859
0.00393879
0.003939
0.00393924
0.00393951
0.00393984
0.00394026
0.00394083
0.00394165
0.00394287
0.0039447
0.00394748
0.00395164
0.00395776
0.00396657
0.00397898
0.003996
0.00401873
0.00404828
0.00408563
0.00413151
0.00418621
0.00424942
0.00432028
0.00439788
0.00448382
0.00459168
0.00478715
0.0054329
0.00968584
0.010196
0.00556717
0.00483625
0.00460399
0.0044765
0.00437954
0.00429617
0.00422301
0.00415982
0.00410668
0.00406326
0.0040288
0.00400224
0.00398235
0.00396789
0.00395767
0.00395065
0.00394596
0.00394291
0.00394097
0.00393976
0.00393902
0.00393856
0.00393827
0.00393808
0.00393795
0.00393787
0.0039378
0.00393777
0.00393773
0.00393772
0.00393771
0.0039377
0.0039377
0.00393769
0.00393769
0.00393768
0.00393771
0.00393772
0.00393772
0.00393771
0.00393772
0.00393776
0.00393784
0.00393793
0.00393804
0.00393817
0.00393832
0.00393848
0.00393865
0.00393885
0.00393905
0.00393928
0.00393953
0.00393982
0.00394017
0.00394061
0.0039412
0.00394205
0.00394329
0.00394516
0.00394798
0.00395218
0.00395835
0.00396723
0.00397971
0.0039968
0.00401961
0.00404924
0.00408666
0.0041326
0.00418733
0.00425055
0.00432134
0.00439881
0.00448453
0.00459201
0.00478686
0.00543124
0.00967654
0.0102026
0.00556942
0.00483724
0.00460445
0.0044767
0.00437961
0.00429618
0.00422301
0.00415982
0.00410668
0.00406327
0.00402882
0.00400228
0.00398241
0.00396796
0.00395776
0.00395076
0.00394608
0.00394304
0.00394111
0.0039399
0.00393917
0.00393871
0.00393843
0.00393825
0.00393814
0.00393806
0.00393802
0.00393799
0.00393796
0.00393795
0.00393794
0.00393794
0.00393793
0.00393791
0.00393792
0.00393795
0.00393798
0.003938
0.003938
0.00393798
0.00393801
0.00393807
0.00393815
0.00393826
0.00393838
0.00393853
0.00393868
0.00393886
0.00393905
0.00393926
0.00393948
0.00393972
0.00393999
0.0039403
0.00394067
0.00394113
0.00394175
0.00394262
0.00394389
0.00394579
0.00394865
0.0039529
0.00395912
0.00396806
0.00398061
0.00399778
0.00402067
0.00405038
0.00408787
0.00413386
0.00418861
0.00425181
0.00432254
0.00439986
0.00448532
0.00459239
0.00478655
0.00542945
0.00966643
0.0102096
0.00557182
0.0048383
0.00460495
0.00447693
0.0043797
0.00429621
0.00422302
0.00415983
0.00410671
0.00406331
0.0040289
0.00400239
0.00398255
0.00396813
0.00395795
0.00395097
0.00394631
0.00394328
0.00394136
0.00394016
0.00393943
0.00393898
0.00393871
0.00393854
0.00393844
0.00393838
0.00393834
0.00393832
0.0039383
0.00393829
0.00393828
0.00393828
0.00393827
0.00393825
0.00393827
0.00393832
0.00393835
0.00393836
0.00393836
0.00393836
0.0039384
0.00393847
0.00393857
0.00393869
0.00393883
0.00393899
0.00393916
0.00393935
0.00393955
0.00393978
0.00394002
0.00394028
0.00394057
0.0039409
0.00394129
0.00394178
0.00394242
0.00394332
0.00394463
0.00394657
0.00394946
0.00395376
0.00396004
0.00396905
0.00398167
0.00399892
0.00402189
0.00405167
0.00408923
0.00413527
0.00419005
0.00425323
0.00432387
0.00440102
0.0044862
0.00459283
0.00478625
0.00542754
0.00965548
0.010217
0.00557438
0.00483942
0.00460549
0.00447718
0.00437981
0.00429626
0.00422304
0.00415987
0.00410676
0.00406341
0.00402903
0.00400256
0.00398276
0.00396838
0.00395822
0.00395126
0.00394661
0.0039436
0.00394169
0.0039405
0.00393978
0.00393933
0.00393907
0.00393891
0.00393881
0.00393876
0.00393873
0.00393872
0.0039387
0.0039387
0.00393869
0.00393869
0.00393866
0.00393867
0.0039387
0.00393877
0.0039388
0.00393881
0.00393879
0.00393881
0.00393887
0.00393895
0.00393907
0.0039392
0.00393935
0.00393952
0.00393971
0.00393992
0.00394014
0.00394038
0.00394064
0.00394093
0.00394124
0.00394159
0.00394201
0.00394252
0.00394319
0.00394413
0.00394547
0.00394745
0.0039504
0.00395475
0.00396109
0.00397017
0.00398287
0.0040002
0.00402326
0.00405313
0.00409076
0.00413685
0.00419165
0.0042548
0.00432534
0.00440231
0.00448718
0.00459333
0.00478594
0.00542552
0.00964368
0.0102249
0.00557709
0.00484063
0.00460606
0.00447746
0.00437994
0.00429632
0.00422309
0.00415992
0.00410685
0.00406354
0.0040292
0.00400278
0.00398302
0.00396867
0.00395854
0.0039516
0.00394698
0.00394398
0.00394207
0.0039409
0.00394018
0.00393974
0.00393948
0.00393933
0.00393924
0.00393919
0.00393917
0.00393916
0.00393915
0.00393915
0.00393914
0.00393914
0.00393912
0.00393913
0.00393918
0.00393925
0.00393929
0.00393929
0.00393928
0.00393932
0.00393939
0.00393949
0.00393962
0.00393977
0.00393993
0.00394012
0.00394033
0.00394055
0.0039408
0.00394106
0.00394134
0.00394165
0.00394199
0.00394237
0.00394281
0.00394336
0.00394407
0.00394504
0.00394642
0.00394845
0.00395145
0.00395586
0.00396227
0.00397143
0.00398421
0.00400164
0.00402479
0.00405474
0.00409245
0.0041386
0.00419342
0.00425653
0.00432698
0.00440374
0.00448828
0.0045939
0.00478565
0.00542339
0.00963098
0.0102332
0.00557997
0.0048419
0.00460668
0.00447776
0.00438009
0.0042964
0.00422316
0.00416001
0.00410697
0.0040637
0.00402941
0.00400303
0.00398331
0.003969
0.00395891
0.00395199
0.00394739
0.0039444
0.00394251
0.00394134
0.00394062
0.0039402
0.00393994
0.0039398
0.00393971
0.00393968
0.00393966
0.00393964
0.00393964
0.00393963
0.00393963
0.00393963
0.00393962
0.00393965
0.00393971
0.00393978
0.00393981
0.00393981
0.00393982
0.00393987
0.00393996
0.00394008
0.00394022
0.00394039
0.00394057
0.00394078
0.003941
0.00394125
0.00394151
0.0039418
0.00394211
0.00394245
0.00394281
0.00394323
0.0039437
0.00394428
0.00394503
0.00394604
0.00394748
0.00394956
0.00395262
0.0039571
0.00396359
0.00397283
0.00398571
0.00400323
0.00402648
0.00405654
0.00409433
0.00414054
0.00419538
0.00425846
0.00432878
0.00440533
0.00448951
0.00459456
0.00478538
0.00542113
0.00961731
0.010242
0.00558302
0.00484327
0.00460735
0.00447809
0.00438026
0.0042965
0.00422324
0.00416011
0.00410711
0.00406388
0.00402965
0.00400332
0.00398365
0.00396937
0.00395931
0.00395242
0.00394784
0.00394486
0.00394298
0.00394182
0.00394111
0.00394069
0.00394044
0.00394031
0.00394023
0.0039402
0.00394017
0.00394016
0.00394016
0.00394016
0.00394016
0.00394014
0.00394015
0.0039402
0.00394027
0.00394034
0.00394036
0.00394037
0.0039404
0.00394047
0.00394058
0.00394071
0.00394087
0.00394105
0.00394126
0.00394148
0.00394173
0.003942
0.00394229
0.00394261
0.00394295
0.00394331
0.00394371
0.00394416
0.00394468
0.0039453
0.00394609
0.00394715
0.00394864
0.00395078
0.00395391
0.00395847
0.00396504
0.00397438
0.00398736
0.004005
0.00402837
0.00405853
0.00409642
0.00414269
0.00419756
0.00426059
0.00433079
0.0044071
0.00449088
0.00459532
0.00478514
0.00541876
0.00960261
0.0102513
0.00558626
0.00484471
0.00460806
0.00447845
0.00438045
0.00429662
0.00422334
0.00416023
0.00410727
0.0040641
0.00402992
0.00400364
0.00398401
0.00396978
0.00395975
0.00395289
0.00394832
0.00394537
0.0039435
0.00394234
0.00394164
0.00394122
0.00394098
0.00394085
0.00394078
0.00394075
0.00394073
0.00394072
0.00394071
0.00394071
0.00394071
0.00394069
0.00394072
0.00394078
0.00394085
0.0039409
0.00394094
0.00394097
0.00394102
0.00394111
0.00394123
0.00394139
0.00394156
0.00394177
0.00394199
0.00394224
0.00394252
0.00394281
0.00394313
0.00394348
0.00394385
0.00394425
0.00394469
0.00394518
0.00394574
0.00394641
0.00394726
0.00394838
0.00394993
0.00395214
0.00395534
0.00395999
0.00396666
0.00397611
0.00398921
0.00400697
0.00403046
0.00406074
0.00409874
0.00414509
0.00419997
0.00426297
0.00433303
0.00440907
0.00449242
0.00459619
0.00478493
0.00541625
0.00958678
0.0102611
0.00558969
0.00484625
0.00460882
0.00447885
0.00438066
0.00429676
0.00422347
0.00416038
0.00410746
0.00406434
0.00403021
0.00400399
0.00398441
0.00397022
0.00396023
0.0039534
0.00394885
0.00394591
0.00394405
0.0039429
0.00394221
0.00394179
0.00394156
0.00394143
0.00394136
0.00394134
0.00394132
0.00394132
0.00394131
0.00394131
0.00394128
0.00394129
0.00394133
0.00394139
0.00394146
0.00394151
0.00394156
0.0039416
0.00394168
0.00394179
0.00394193
0.0039421
0.0039423
0.00394253
0.00394278
0.00394305
0.00394336
0.00394368
0.00394403
0.00394441
0.00394482
0.00394527
0.00394575
0.00394629
0.0039469
0.00394763
0.00394853
0.00394972
0.00395134
0.00395363
0.00395692
0.00396167
0.00396845
0.00397802
0.00399126
0.00400916
0.00403279
0.00406321
0.00410132
0.00414775
0.00420267
0.00426562
0.00433553
0.00441128
0.00449416
0.0045972
0.00478477
0.00541362
0.00956974
0.0102714
0.00559332
0.00484789
0.00460964
0.00447928
0.00438091
0.00429693
0.00422362
0.00416055
0.00410768
0.00406461
0.00403055
0.00400438
0.00398485
0.00397071
0.00396075
0.00395395
0.00394942
0.00394649
0.00394464
0.0039435
0.00394281
0.0039424
0.00394217
0.00394204
0.00394198
0.00394196
0.00394194
0.00394194
0.00394194
0.00394194
0.00394191
0.00394193
0.00394198
0.00394205
0.00394211
0.00394217
0.00394222
0.00394229
0.00394238
0.00394251
0.00394267
0.00394287
0.00394309
0.00394334
0.00394362
0.00394392
0.00394425
0.00394461
0.003945
0.00394542
0.00394587
0.00394636
0.0039469
0.00394749
0.00394816
0.00394895
0.00394993
0.00395119
0.00395289
0.00395528
0.00395867
0.00396353
0.00397045
0.00398016
0.00399354
0.0040116
0.00403539
0.00406596
0.0041042
0.00415073
0.00420568
0.00426858
0.00433832
0.00441376
0.00449612
0.00459836
0.00478464
0.00541085
0.00955137
0.0102823
0.00559717
0.00484964
0.00461051
0.00447974
0.00438118
0.00429711
0.00422379
0.00416075
0.00410792
0.00406492
0.00403091
0.0040048
0.00398533
0.00397123
0.00396131
0.00395454
0.00395003
0.00394712
0.00394528
0.00394414
0.00394346
0.00394305
0.00394282
0.00394269
0.00394264
0.00394261
0.0039426
0.0039426
0.0039426
0.0039426
0.00394258
0.0039426
0.00394267
0.00394274
0.00394281
0.00394287
0.00394293
0.00394301
0.00394312
0.00394327
0.00394346
0.00394368
0.00394392
0.0039442
0.0039445
0.00394484
0.00394521
0.0039456
0.00394603
0.0039465
0.003947
0.00394754
0.00394814
0.00394879
0.00394953