/*--------------------------------*- C++ -*----------------------------------*\
  =========                 |
  \\      /  F ield         | OpenFOAM: The Open Source CFD Toolbox
   \\    /   O peration     | Website:  https://openfoam.org
    \\  /    A nd           | Version:  13
     \\/     M anipulation  |
\*---------------------------------------------------------------------------*/
FoamFile
{
    format      ascii;
    class       volScalarField;
    location    "0.2";
    object      k;
}
// * * * * * * * * * * * * * * * * * * * * * * * * * * * * * * * * * * * * * //

dimensions      [0 2 -2 0 0 0 0];

internalField   nonuniform List<scalar> 
6400
(
9.68693e-06
4.10572e-05
7.66439e-05
0.000106346
0.000129445
0.000146968
0.000160026
0.000169581
0.000176434
0.000181245
0.00018455
0.000186773
0.000188242
0.0001892
0.000189823
0.000190233
0.00019051
0.000190709
0.000190861
0.000190988
0.000191101
0.000191208
0.000191313
0.000191418
0.000191524
0.000191632
0.000191743
0.000191856
0.000191971
0.00019209
0.00019221
0.000192334
0.000192459
0.000192587
0.000192717
0.000192849
0.000192982
0.000193118
0.000193254
0.000193391
0.000193528
0.000193664
0.000193798
0.00019394
0.000194086
0.000194232
0.000194379
0.000194526
0.000194673
0.000194819
0.000194965
0.000195111
0.000195255
0.000195399
0.000195541
0.000195682
0.00019582
0.000195954
0.000196084
0.000196206
0.000196315
0.000196402
0.000196451
0.000196439
0.000196323
0.000196042
0.000195501
0.000194561
0.000193029
0.000190641
0.000187054
0.000181827
0.000174418
0.000164169
0.000150294
0.000131862
0.000107827
7.72897e-05
4.11565e-05
9.6859e-06
4.11492e-05
0.000275302
0.000471658
0.000612626
0.000714449
0.000788489
0.0008423
0.000881148
0.000908877
0.000928379
0.000941868
0.00095104
0.000957178
0.000961237
0.000963908
0.000965677
0.000966876
0.000967725
0.000968367
0.000968889
0.000969346
0.00096977
0.000970181
0.000970589
0.000971
0.000971417
0.000971843
0.000972279
0.000972723
0.000973178
0.000973642
0.000974115
0.000974597
0.000975088
0.000975586
0.000976092
0.000976605
0.000977124
0.000977647
0.000978174
0.000978701
0.000979225
0.000979739
0.000980232
0.000980713
0.000981194
0.000981674
0.000982155
0.000982634
0.000983112
0.000983587
0.00098406
0.000984529
0.000984994
0.000985453
0.000985904
0.000986345
0.000986771
0.000987174
0.00098754
0.000987846
0.000988046
0.000988077
0.000987834
0.000987142
0.000985746
0.000983268
0.000979171
0.000972705
0.000962863
0.000948313
0.000927329
0.000897684
0.000856493
0.000799949
0.000722862
0.000617828
0.00047382
0.000275224
4.10516e-05
7.72427e-05
0.000473773
0.000757663
0.000949977
0.00108704
0.0011866
0.00125922
0.00131202
0.0013501
0.00137723
0.00139629
0.00140946
0.00141843
0.00142445
0.00142845
0.0014311
0.00143287
0.00143408
0.00143494
0.00143561
0.00143615
0.00143663
0.00143708
0.00143751
0.00143794
0.00143838
0.00143883
0.00143928
0.00143974
0.00144022
0.0014407
0.0014412
0.0014417
0.00144222
0.00144274
0.00144327
0.00144381
0.00144436
0.00144491
0.00144547
0.00144602
0.00144658
0.00144714
0.0014477
0.00144825
0.00144881
0.00144937
0.00144993
0.00145048
0.00145104
0.0014516
0.00145215
0.0014527
0.00145324
0.00145378
0.0014543
0.00145481
0.00145529
0.00145574
0.00145612
0.00145639
0.00145648
0.0014563
0.00145566
0.00145432
0.00145191
0.00144791
0.00144159
0.00143197
0.00141773
0.00139718
0.0013681
0.00132765
0.00127206
0.00119633
0.00109345
0.000953006
0.000757552
0.000471405
7.66092e-05
0.000107738
0.000617671
0.000953004
0.00117337
0.0013295
0.00144321
0.00152672
0.00158799
0.00163268
0.00166495
0.00168796
0.00170415
0.00171535
0.001723
0.00172815
0.00173159
0.00173389
0.00173544
0.00173652
0.00173731
0.00173792
0.00173843
0.00173889
0.00173932
0.00173974
0.00174016
0.00174058
0.00174102
0.00174146
0.00174191
0.00174238
0.00174285
0.00174333
0.00174383
0.00174433
0.00174484
0.00174536
0.00174589
0.00174642
0.00174696
0.0017475
0.00174805
0.0017486
0.00174915
0.0017497
0.00175026
0.00175082
0.00175138
0.00175194
0.0017525
0.00175306
0.00175361
0.00175416
0.00175471
0.00175525
0.00175577
0.00175627
0.00175673
0.00175714
0.00175745
0.0017576
0.00175751
0.00175702
0.00175593
0.00175391
0.00175053
0.00174516
0.00173696
0.00172484
0.00170732
0.00168254
0.00164806
0.00160077
0.00153653
0.00144979
0.00133268
0.00117315
0.000949643
0.000612147
0.000106264
0.000131738
0.000722616
0.00109336
0.0013328
0.00150187
0.00162536
0.00171661
0.00178413
0.00183388
0.00187024
0.00189652
0.00191526
0.00192844
0.00193758
0.00194381
0.00194803
0.00195085
0.00195276
0.00195406
0.00195497
0.00195565
0.0019562
0.00195666
0.00195708
0.00195748
0.00195787
0.00195827
0.00195867
0.00195908
0.0019595
0.00195993
0.00196037
0.00196081
0.00196127
0.00196174
0.00196222
0.0019627
0.00196319
0.00196369
0.0019642
0.00196471
0.00196522
0.00196574
0.00196627
0.00196679
0.00196732
0.00196786
0.00196839
0.00196893
0.00196946
0.00197
0.00197053
0.00197106
0.00197159
0.0019721
0.00197259
0.00197306
0.00197347
0.00197381
0.00197401
0.00197401
0.00197368
0.00197286
0.00197128
0.00196857
0.00196423
0.00195757
0.00194768
0.00193335
0.00191306
0.00188481
0.00184607
0.00179357
0.00172298
0.00162842
0.0015015
0.00132903
0.00108645
0.000713721
0.000129304
0.000150149
0.000799649
0.00119618
0.00144985
0.00162871
0.00175973
0.00185707
0.00192963
0.00198356
0.00202337
0.00205247
0.00207348
0.00208845
0.00209896
0.00210622
0.00211118
0.00211453
0.00211679
0.00211832
0.00211937
0.00212013
0.0021207
0.00212117
0.00212158
0.00212196
0.00212232
0.00212269
0.00212305
0.00212342
0.0021238
0.00212419
0.00212459
0.00212499
0.00212541
0.00212583
0.00212627
0.00212671
0.00212716
0.00212762
0.00212808
0.00212855
0.00212903
0.00212951
0.00212999
0.00213048
0.00213098
0.00213147
0.00213197
0.00213247
0.00213298
0.00213348
0.00213398
0.00213447
0.00213496
0.00213543
0.00213588
0.00213629
0.00213664
0.00213689
0.00213697
0.00213679
0.00213622
0.00213504
0.00213296
0.00212957
0.00212431
0.00211643
0.00210497
0.00208867
0.00206593
0.0020347
0.00199238
0.0019356
0.00185989
0.0017592
0.00162473
0.00144246
0.00118572
0.000787492
0.000146757
0.00016402
0.000856185
0.0012719
0.00153656
0.00172322
0.00186035
0.00196272
0.0020395
0.00209699
0.00213979
0.00217137
0.00219441
0.002211
0.00222277
0.002231
0.00223667
0.00224053
0.00224314
0.0022449
0.0022461
0.00224693
0.00224755
0.00224802
0.00224842
0.00224878
0.00224911
0.00224944
0.00224976
0.00225009
0.00225043
0.00225077
0.00225113
0.00225149
0.00225186
0.00225224
0.00225263
0.00225303
0.00225343
0.00225384
0.00225426
0.00225469
0.00225512
0.00225555
0.002256
0.00225644
0.0022569
0.00225735
0.00225781
0.00225827
0.00225873
0.00225919
0.00225965
0.0022601
0.00226055
0.00226098
0.00226138
0.00226173
0.002262
0.00226215
0.00226209
0.00226173
0.0022609
0.00225936
0.00225679
0.00225274
0.0022466
0.0022376
0.0022247
0.00220662
0.0021817
0.00214786
0.00210245
0.00204202
0.00196204
0.00185628
0.00171568
0.00152565
0.00125803
0.000841006
0.000159737
0.000174284
0.000897424
0.00132753
0.00160083
0.00179381
0.00193602
0.00204263
0.00212302
0.00218359
0.002229
0.00226276
0.00228761
0.00230566
0.00231859
0.00232771
0.00233405
0.00233839
0.00234134
0.00234332
0.00234466
0.00234558
0.00234623
0.00234672
0.00234711
0.00234744
0.00234774
0.00234804
0.00234832
0.00234861
0.00234891
0.00234921
0.00234952
0.00234984
0.00235016
0.0023505
0.00235084
0.00235119
0.00235155
0.00235191
0.00235228
0.00235266
0.00235305
0.00235344
0.00235383
0.00235424
0.00235464
0.00235505
0.00235547
0.00235588
0.0023563
0.00235672
0.00235713
0.00235754
0.00235794
0.00235832
0.00235866
0.00235895
0.00235914
0.00235919
0.002359
0.00235845
0.00235736
0.00235547
0.00235243
0.00234775
0.00234079
0.00233075
0.00231655
0.00229686
0.00227001
0.00223388
0.00218577
0.0021222
0.00203857
0.00192855
0.00178289
0.00158658
0.00131048
0.000879529
0.000169205
0.000181729
0.000927181
0.0013681
0.00164822
0.00184637
0.00199283
0.00210305
0.00218653
0.00224976
0.00229744
0.00233313
0.00235958
0.00237894
0.00239291
0.00240284
0.0024098
0.00241459
0.00241786
0.00242006
0.00242154
0.00242254
0.00242323
0.00242373
0.00242411
0.00242442
0.0024247
0.00242495
0.0024252
0.00242545
0.00242571
0.00242597
0.00242623
0.0024265
0.00242679
0.00242707
0.00242737
0.00242767
0.00242799
0.0024283
0.00242863
0.00242896
0.0024293
0.00242965
0.00243
0.00243035
0.00243071
0.00243108
0.00243145
0.00243182
0.00243219
0.00243257
0.00243294
0.0024333
0.00243365
0.00243398
0.00243427
0.00243449
0.0024346
0.00243454
0.00243422
0.00243348
0.00243215
0.00242992
0.00242643
0.00242117
0.00241347
0.00240247
0.0023871
0.00236599
0.00233743
0.00229928
0.00224882
0.00218254
0.00209579
0.00198216
0.00183229
0.00163089
0.00134816
0.000906898
0.000175962
0.000187014
0.000948345
0.00139737
0.00168286
0.00188524
0.00203525
0.00214852
0.00223464
0.00230016
0.00234982
0.00238719
0.00241504
0.00243556
0.00245046
0.00246113
0.00246864
0.00247385
0.00247741
0.00247981
0.00248142
0.00248249
0.00248323
0.00248374
0.00248411
0.00248441
0.00248465
0.00248488
0.00248509
0.00248531
0.00248552
0.00248574
0.00248596
0.00248619
0.00248643
0.00248667
0.00248693
0.00248719
0.00248745
0.00248773
0.00248801
0.0024883
0.00248859
0.00248889
0.00248919
0.00248951
0.00248982
0.00249014
0.00249047
0.0024908
0.00249113
0.00249145
0.00249178
0.0024921
0.00249241
0.00249268
0.00249292
0.00249307
0.00249311
0.00249295
0.00249249
0.00249158
0.00249001
0.00248748
0.00248358
0.00247778
0.0024694
0.00245756
0.00244114
0.00241877
0.00238871
0.00234881
0.00229632
0.00222771
0.00213829
0.00202163
0.00186826
0.00166275
0.00137487
0.000926006
0.000180667
0.000190682
0.000963145
0.00141819
0.00170789
0.00191371
0.00206665
0.00218248
0.00227085
0.00233833
0.00238968
0.0024285
0.00245757
0.0024791
0.00249482
0.00250613
0.00251414
0.00251972
0.00252354
0.00252613
0.00252786
0.002529
0.00252977
0.00253029
0.00253066
0.00253094
0.00253117
0.00253136
0.00253154
0.00253172
0.0025319
0.00253208
0.00253226
0.00253245
0.00253265
0.00253285
0.00253306
0.00253328
0.00253351
0.00253374
0.00253397
0.00253422
0.00253447
0.00253473
0.00253499
0.00253526
0.00253553
0.00253581
0.00253609
0.00253638
0.00253667
0.00253696
0.00253724
0.00253752
0.00253778
0.00253801
0.00253819
0.00253828
0.00253824
0.00253798
0.0025374
0.00253633
0.00253455
0.00253173
0.00252746
0.00252119
0.00251221
0.00249961
0.00248228
0.00245881
0.00242745
0.00238604
0.00233181
0.00226121
0.00216956
0.00205037
0.00189413
0.00168532
0.00139346
0.000939062
0.000183856
0.00019317
0.000973306
0.00143278
0.00172574
0.0019343
0.00208964
0.00220759
0.00229784
0.00236697
0.00241976
0.00245982
0.00248994
0.00251233
0.00252876
0.00254063
0.00254908
0.00255498
0.00255904
0.00256179
0.00256362
0.00256483
0.00256563
0.00256617
0.00256653
0.0025668
0.002567
0.00256717
0.00256732
0.00256746
0.0025676
0.00256775
0.00256789
0.00256805
0.00256821
0.00256837
0.00256855
0.00256873
0.00256891
0.0025691
0.0025693
0.00256951
0.00256972
0.00256993
0.00257016
0.00257039
0.00257062
0.00257086
0.0025711
0.00257135
0.0025716
0.00257185
0.0025721
0.00257233
0.00257255
0.00257274
0.00257286
0.0025729
0.00257279
0.00257245
0.00257175
0.00257054
0.00256856
0.00256549
0.00256089
0.0025542
0.00254469
0.00253145
0.00251332
0.0024889
0.00245643
0.00241373
0.00235803
0.00228577
0.00219225
0.00207098
0.00191242
0.00170101
0.00140613
0.000947761
0.000185954
0.000194822
0.000980156
0.00144283
0.00173828
0.001949
0.00210627
0.00222596
0.00231775
0.00238825
0.00244224
0.00248333
0.00251433
0.00253746
0.00255449
0.00256684
0.00257565
0.00258183
0.0025861
0.00258899
0.00259091
0.00259218
0.00259301
0.00259355
0.00259391
0.00259416
0.00259434
0.00259449
0.00259461
0.00259473
0.00259484
0.00259495
0.00259507
0.00259519
0.00259531
0.00259544
0.00259558
0.00259572
0.00259587
0.00259603
0.00259619
0.00259636
0.00259654
0.00259672
0.00259691
0.0025971
0.0025973
0.0025975
0.00259771
0.00259792
0.00259813
0.00259835
0.00259856
0.00259876
0.00259894
0.00259908
0.00259916
0.00259915
0.00259897
0.00259855
0.00259776
0.00259642
0.00259427
0.00259098
0.0025861
0.00257904
0.00256908
0.00255527
0.00253647
0.00251125
0.00247785
0.00243407
0.00237715
0.00230352
0.00220847
0.00208552
0.00192512
0.00171169
0.00141455
0.000953384
0.000187287
0.0001959
0.000984699
0.00144966
0.00174697
0.00195935
0.00211814
0.00223921
0.00233225
0.00240386
0.00245883
0.00250078
0.00253251
0.00255624
0.00257377
0.00258652
0.00259565
0.00260206
0.00260649
0.0026095
0.00261151
0.00261282
0.00261368
0.00261423
0.00261458
0.00261482
0.00261498
0.00261511
0.00261521
0.00261529
0.00261538
0.00261546
0.00261555
0.00261564
0.00261574
0.00261584
0.00261594
0.00261606
0.00261618
0.0026163
0.00261643
0.00261657
0.00261671
0.00261686
0.00261702
0.00261718
0.00261734
0.00261752
0.00261769
0.00261787
0.00261805
0.00261824
0.00261841
0.00261858
0.00261873
0.00261883
0.00261888
0.00261881
0.00261858
0.0026181
0.00261722
0.00261576
0.00261346
0.00260998
0.00260486
0.0025975
0.00258715
0.00257288
0.00255352
0.00252763
0.00249345
0.00244878
0.00239086
0.00231611
0.00221984
0.00209556
0.00193373
0.00171876
0.00141997
0.000956885
0.000188099
0.000196595
0.000987676
0.00145423
0.0017529
0.00196654
0.0021265
0.00224864
0.00234267
0.00241517
0.00247092
0.00251356
0.00254588
0.00257011
0.00258804
0.00260112
0.0026105
0.00261711
0.00262168
0.00262478
0.00262685
0.00262821
0.00262908
0.00262964
0.00262999
0.00263021
0.00263036
0.00263047
0.00263054
0.00263061
0.00263067
0.00263073
0.00263079
0.00263086
0.00263093
0.002631
0.00263108
0.00263117
0.00263126
0.00263136
0.00263146
0.00263157
0.00263169
0.00263181
0.00263194
0.00263207
0.00263221
0.00263235
0.0026325
0.00263265
0.00263281
0.00263296
0.00263311
0.00263325
0.00263337
0.00263344
0.00263345
0.00263335
0.00263307
0.00263253
0.00263157
0.00263002
0.0026276
0.00262396
0.00261864
0.00261102
0.00260036
0.0025857
0.00256587
0.00253944
0.00250463
0.00245924
0.00240051
0.00232488
0.00222764
0.00210232
0.0019394
0.0017233
0.00142333
0.000958953
0.000188564
0.000197044
0.000989623
0.00145727
0.00175692
0.00197148
0.00213231
0.00225528
0.00235006
0.00242325
0.00247962
0.0025228
0.00255558
0.00258021
0.00259846
0.0026118
0.00262138
0.00262814
0.00263282
0.00263601
0.00263813
0.00263951
0.0026404
0.00264096
0.00264131
0.00264153
0.00264166
0.00264175
0.00264181
0.00264186
0.0026419
0.00264194
0.00264198
0.00264202
0.00264207
0.00264212
0.00264218
0.00264224
0.00264231
0.00264239
0.00264247
0.00264255
0.00264264
0.00264274
0.00264285
0.00264296
0.00264307
0.00264319
0.00264332
0.00264345
0.00264358
0.00264371
0.00264384
0.00264396
0.00264405
0.0026441
0.00264408
0.00264394
0.00264362
0.00264303
0.00264201
0.00264038
0.00263786
0.00263409
0.0026286
0.00262078
0.00260985
0.00259488
0.00257467
0.0025478
0.00251249
0.00246653
0.00240717
0.00233084
0.00223286
0.00210675
0.00194301
0.00172608
0.00142529
0.000960068
0.000188802
0.000197341
0.000990912
0.0014593
0.00175962
0.00197485
0.00213632
0.0022599
0.00235525
0.00242896
0.0024858
0.00252939
0.00256253
0.00258746
0.00260597
0.0026195
0.00262924
0.00263612
0.00264089
0.00264413
0.00264629
0.0026477
0.0026486
0.00264916
0.00264951
0.00264971
0.00264984
0.00264991
0.00264996
0.00264999
0.00265001
0.00265004
0.00265006
0.00265009
0.00265012
0.00265015
0.00265019
0.00265023
0.00265028
0.00265034
0.0026504
0.00265047
0.00265054
0.00265062
0.00265071
0.0026508
0.0026509
0.002651
0.00265111
0.00265122
0.00265133
0.00265144
0.00265155
0.00265165
0.00265172
0.00265175
0.0026517
0.00265154
0.00265119
0.00265056
0.00264949
0.0026478
0.0026452
0.00264132
0.00263569
0.0026277
0.00261657
0.00260134
0.00258084
0.00255362
0.0025179
0.0024715
0.00241164
0.00233478
0.00223623
0.00210953
0.0019452
0.00172768
0.00142631
0.00096056
0.000188895
0.000197546
0.000991796
0.00146067
0.00176146
0.00197715
0.00213908
0.00226309
0.00235886
0.00243295
0.00249014
0.00253404
0.00256745
0.0025926
0.00261129
0.00262498
0.00263484
0.0026418
0.00264664
0.00264993
0.00265211
0.00265354
0.00265445
0.00265501
0.00265535
0.00265555
0.00265567
0.00265573
0.00265577
0.00265578
0.0026558
0.0026558
0.00265581
0.00265583
0.00265584
0.00265586
0.00265589
0.00265592
0.00265595
0.00265599
0.00265604
0.00265609
0.00265615
0.00265621
0.00265629
0.00265636
0.00265644
0.00265653
0.00265663
0.00265672
0.00265682
0.00265692
0.00265701
0.0026571
0.00265715
0.00265716
0.0026571
0.00265692
0.00265654
0.00265588
0.00265477
0.00265303
0.00265036
0.0026464
0.00264067
0.00263254
0.00262124
0.00260581
0.00258507
0.00255758
0.00252155
0.0024748
0.00241456
0.0023373
0.00223832
0.00211119
0.00194642
0.00172847
0.00142672
0.00096066
0.000188898
0.000197701
0.000992442
0.00146165
0.00176274
0.00197874
0.00214098
0.0022653
0.00236136
0.00243573
0.00249317
0.00253729
0.00257089
0.00259621
0.00261503
0.00262883
0.00263877
0.0026458
0.00265068
0.002654
0.00265621
0.00265765
0.00265856
0.00265912
0.00265946
0.00265966
0.00265976
0.00265982
0.00265984
0.00265985
0.00265985
0.00265985
0.00265985
0.00265985
0.00265986
0.00265987
0.00265988
0.0026599
0.00265992
0.00265995
0.00265999
0.00266003
0.00266008
0.00266013
0.00266019
0.00266026
0.00266033
0.0026604
0.00266049
0.00266057
0.00266066
0.00266075
0.00266083
0.0026609
0.00266095
0.00266095
0.00266087
0.00266067
0.00266028
0.00265959
0.00265846
0.00265667
0.00265395
0.00264992
0.0026441
0.00263587
0.00262444
0.00260886
0.00258793
0.00256022
0.00252396
0.00247694
0.00241641
0.00233883
0.00223953
0.00211207
0.00194698
0.00172875
0.00142675
0.000960501
0.000188841
0.00019783
0.000992956
0.00146238
0.00176368
0.00197988
0.00214233
0.00226685
0.00236311
0.00243767
0.00249528
0.00253955
0.00257328
0.00259872
0.00261764
0.00263151
0.00264151
0.00264858
0.00265349
0.00265683
0.00265906
0.0026605
0.00266141
0.00266198
0.00266231
0.0026625
0.00266261
0.00266265
0.00266267
0.00266267
0.00266267
0.00266266
0.00266265
0.00266264
0.00266264
0.00266264
0.00266265
0.00266266
0.00266267
0.00266269
0.00266272
0.00266275
0.00266279
0.00266284
0.00266289
0.00266295
0.00266301
0.00266308
0.00266316
0.00266324
0.00266332
0.0026634
0.00266347
0.00266354
0.00266357
0.00266357
0.00266348
0.00266327
0.00266287
0.00266216
0.002661
0.00265918
0.00265642
0.00265235
0.00264646
0.00263814
0.00262661
0.0026109
0.00258983
0.00256195
0.00252549
0.00247826
0.00241751
0.00233969
0.00224015
0.00211244
0.00194713
0.00172868
0.00142651
0.000960164
0.000188744
0.000197947
0.000993406
0.00146299
0.00176441
0.00198074
0.00214332
0.00226798
0.00236436
0.00243904
0.00249676
0.00254113
0.00257496
0.00260046
0.00261945
0.00263336
0.0026434
0.0026505
0.00265544
0.00265879
0.00266102
0.00266246
0.00266338
0.00266394
0.00266427
0.00266446
0.00266456
0.0026646
0.00266461
0.00266461
0.0026646
0.00266458
0.00266457
0.00266456
0.00266455
0.00266455
0.00266454
0.00266455
0.00266456
0.00266458
0.0026646
0.00266463
0.00266466
0.0026647
0.00266475
0.0026648
0.00266486
0.00266493
0.002665
0.00266507
0.00266515
0.00266522
0.0026653
0.00266536
0.00266539
0.00266538
0.00266528
0.00266507
0.00266465
0.00266393
0.00266276
0.00266092
0.00265812
0.00265401
0.00264807
0.00263968
0.00262807
0.00261226
0.00259107
0.00256306
0.00252645
0.00247905
0.00241811
0.00234011
0.00224037
0.00211248
0.00194699
0.00172839
0.0014261
0.000959705
0.000188618
0.000198062
0.00099383
0.00146352
0.00176503
0.00198143
0.00214409
0.00226883
0.00236529
0.00244004
0.00249783
0.00254227
0.00257614
0.00260169
0.00262071
0.00263466
0.00264471
0.00265183
0.00265677
0.00266013
0.00266237
0.00266381
0.00266473
0.00266529
0.00266562
0.0026658
0.0026659
0.00266594
0.00266595
0.00266594
0.00266592
0.0026659
0.00266589
0.00266587
0.00266586
0.00266585
0.00266585
0.00266585
0.00266586
0.00266587
0.00266589
0.00266591
0.00266595
0.00266598
0.00266603
0.00266608
0.00266614
0.0026662
0.00266627
0.00266634
0.00266641
0.00266649
0.00266656
0.00266662
0.00266665
0.00266663
0.00266654
0.00266632
0.0026659
0.00266517
0.00266398
0.00266212
0.00265931
0.00265516
0.00264917
0.00264073
0.00262905
0.00261316
0.00259187
0.00256375
0.00252701
0.00247947
0.00241839
0.00234023
0.00224034
0.0021123
0.00194666
0.00172794
0.00142556
0.000959153
0.000188471
0.000198179
0.000994252
0.00146403
0.00176559
0.00198204
0.00214474
0.00226952
0.00236602
0.00244081
0.00249864
0.0025431
0.00257701
0.00260258
0.00262161
0.00263557
0.00264564
0.00265276
0.00265771
0.00266107
0.0026633
0.00266475
0.00266566
0.00266622
0.00266655
0.00266673
0.00266682
0.00266686
0.00266686
0.00266686
0.00266684
0.00266682
0.0026668
0.00266678
0.00266677
0.00266676
0.00266675
0.00266675
0.00266676
0.00266677
0.00266679
0.00266681
0.00266684
0.00266688
0.00266692
0.00266697
0.00266703
0.00266709
0.00266716
0.00266723
0.00266731
0.00266738
0.00266746
0.00266752
0.00266755
0.00266753
0.00266744
0.00266722
0.00266679
0.00266606
0.00266486
0.00266299
0.00266016
0.00265598
0.00264996
0.00264147
0.00262973
0.00261376
0.00259239
0.00256417
0.00252733
0.00247967
0.00241846
0.00234016
0.00224014
0.00211197
0.0019462
0.00172737
0.00142492
0.000958525
0.000188305
0.000198301
0.000994688
0.00146455
0.00176613
0.0019826
0.00214532
0.00227011
0.00236664
0.00244144
0.00249928
0.00254375
0.00257767
0.00260324
0.00262228
0.00263625
0.00264631
0.00265344
0.00265838
0.00266174
0.00266397
0.00266541
0.00266632
0.00266688
0.0026672
0.00266738
0.00266747
0.00266751
0.00266751
0.0026675
0.00266748
0.00266746
0.00266744
0.00266742
0.00266741
0.0026674
0.00266739
0.00266739
0.0026674
0.00266741
0.00266743
0.00266745
0.00266748
0.00266752
0.00266757
0.00266762
0.00266768
0.00266774
0.00266781
0.00266788
0.00266796
0.00266804
0.00266812
0.00266818
0.00266821
0.0026682
0.00266811
0.00266789
0.00266747
0.00266673
0.00266553
0.00266364
0.00266079
0.00265659
0.00265054
0.00264201
0.00263021
0.00261419
0.00259274
0.00256443
0.00252749
0.00247972
0.00241839
0.00233997
0.00223982
0.00211153
0.00194565
0.00172672
0.00142421
0.00095783
0.000188123
0.000198431
0.000995143
0.00146507
0.00176668
0.00198315
0.00214587
0.00227067
0.00236719
0.00244199
0.00249983
0.0025443
0.0025782
0.00260378
0.00262281
0.00263677
0.00264682
0.00265394
0.00265888
0.00266223
0.00266446
0.0026659
0.00266681
0.00266736
0.00266769
0.00266787
0.00266795
0.00266799
0.00266799
0.00266798
0.00266796
0.00266794
0.00266792
0.0026679
0.00266789
0.00266788
0.00266787
0.00266787
0.00266788
0.00266789
0.00266791
0.00266794
0.00266797
0.00266801
0.00266806
0.00266811
0.00266817
0.00266824
0.00266831
0.00266839
0.00266847
0.00266856
0.00266864
0.0026687
0.00266874
0.00266874
0.00266865
0.00266843
0.00266801
0.00266727
0.00266606
0.00266417
0.00266131
0.00265709
0.00265101
0.00264244
0.00263059
0.00261451
0.00259299
0.00256459
0.00252755
0.00247968
0.00241824
0.0023397
0.00223943
0.00211101
0.00194502
0.001726
0.00142342
0.000957072
0.000187924
0.000198568
0.000995624
0.00146562
0.00176724
0.00198371
0.00214642
0.00227121
0.00236771
0.0024425
0.00250033
0.00254478
0.00257867
0.00260423
0.00262325
0.0026372
0.00264724
0.00265435
0.00265928
0.00266263
0.00266485
0.00266628
0.00266719
0.00266774
0.00266806
0.00266824
0.00266833
0.00266836
0.00266836
0.00266835
0.00266833
0.00266831
0.00266829
0.00266827
0.00266826
0.00266825
0.00266825
0.00266825
0.00266826
0.00266827
0.0026683
0.00266833
0.00266836
0.0026684
0.00266845
0.00266851
0.00266858
0.00266865
0.00266873
0.00266881
0.0026689
0.00266899
0.00266907
0.00266915
0.00266919
0.00266919
0.00266911
0.0026689
0.00266848
0.00266775
0.00266654
0.00266464
0.00266176
0.00265752
0.00265141
0.00264281
0.00263092
0.00261477
0.00259318
0.0025647
0.00252757
0.00247959
0.00241803
0.00233938
0.00223898
0.00211044
0.00194433
0.00172521
0.00142257
0.000956249
0.000187709
0.000198713
0.000996133
0.0014662
0.00176782
0.00198429
0.00214699
0.00227175
0.00236824
0.002443
0.00250081
0.00254524
0.00257911
0.00260465
0.00262365
0.00263758
0.00264761
0.00265471
0.00265963
0.00266296
0.00266518
0.00266661
0.00266751
0.00266806
0.00266838
0.00266855
0.00266864
0.00266867
0.00266868
0.00266866
0.00266865
0.00266862
0.00266861
0.00266859
0.00266858
0.00266857
0.00266857
0.00266857
0.00266859
0.0026686
0.00266863
0.00266866
0.0026687
0.00266875
0.0026688
0.00266886
0.00266893
0.00266901
0.0026691
0.00266919
0.00266928
0.00266938
0.00266947
0.00266955
0.00266961
0.00266962
0.00266954
0.00266934
0.00266893
0.00266819
0.00266699
0.00266508
0.0026622
0.00265794
0.0026518
0.00264316
0.00263122
0.00261501
0.00259335
0.00256479
0.00252755
0.00247947
0.00241779
0.00233901
0.00223848
0.00210981
0.00194358
0.00172435
0.00142164
0.00095536
0.000187477
0.000198867
0.000996671
0.00146681
0.00176844
0.0019849
0.00214757
0.00227231
0.00236877
0.00244351
0.00250129
0.00254569
0.00257954
0.00260505
0.00262403
0.00263794
0.00264795
0.00265503
0.00265994
0.00266327
0.00266547
0.0026669
0.0026678
0.00266834
0.00266866
0.00266884
0.00266892
0.00266895
0.00266896
0.00266895
0.00266893
0.00266891
0.00266889
0.00266888
0.00266887
0.00266886
0.00266886
0.00266887
0.00266888
0.00266891
0.00266894
0.00266897
0.00266902
0.00266907
0.00266913
0.0026692
0.00266927
0.00266936
0.00266945
0.00266955
0.00266965
0.00266976
0.00266986
0.00266995
0.00267002
0.00267003
0.00266997
0.00266978
0.00266937
0.00266864
0.00266744
0.00266553
0.00266264
0.00265836
0.0026522
0.00264352
0.00263153
0.00261526
0.00259352
0.00256487
0.00252754
0.00247933
0.00241753
0.00233862
0.00223795
0.00210914
0.00194277
0.00172343
0.00142065
0.000954402
0.000187228
0.000199029
0.000997241
0.00146745
0.00176909
0.00198553
0.00214819
0.0022729
0.00236933
0.00244404
0.00250178
0.00254615
0.00257997
0.00260545
0.00262441
0.00263829
0.00264829
0.00265535
0.00266025
0.00266356
0.00266576
0.00266718
0.00266807
0.00266862
0.00266893
0.00266911
0.00266919
0.00266922
0.00266923
0.00266922
0.0026692
0.00266918
0.00266916
0.00266915
0.00266914
0.00266914
0.00266915
0.00266916
0.00266917
0.0026692
0.00266923
0.00266928
0.00266932
0.00266938
0.00266945
0.00266952
0.00266961
0.0026697
0.0026698
0.00266991
0.00267002
0.00267014
0.00267025
0.00267035
0.00267043
0.00267046
0.00267041
0.00267023
0.00266983
0.00266911
0.00266791
0.002666
0.0026631
0.0026588
0.00265262
0.0026439
0.00263186
0.00261553
0.00259371
0.00256496
0.00252752
0.0024792
0.00241726
0.0023382
0.00223738
0.00210842
0.00194191
0.00172244
0.00141958
0.000953369
0.000186959
0.000199202
0.000997844
0.00146813
0.00176978
0.00198621
0.00214883
0.00227352
0.00236991
0.00244458
0.00250229
0.00254663
0.00258041
0.00260587
0.00262479
0.00263865
0.00264863
0.00265568
0.00266055
0.00266386
0.00266605
0.00266746
0.00266835
0.00266889
0.0026692
0.00266937
0.00266946
0.00266949
0.00266949
0.00266948
0.00266947
0.00266945
0.00266944
0.00266943
0.00266942
0.00266942
0.00266943
0.00266944
0.00266947
0.0026695
0.00266953
0.00266958
0.00266964
0.0026697
0.00266977
0.00266986
0.00266995
0.00267005
0.00267016
0.00267028
0.0026704
0.00267053
0.00267066
0.00267078
0.00267087
0.00267091
0.00267088
0.00267071
0.00267032
0.00266961
0.00266841
0.00266651
0.0026636
0.00265929
0.00265308
0.00264432
0.00263223
0.00261583
0.00259393
0.00256508
0.00252752
0.00247906
0.00241698
0.00233776
0.00223678
0.00210766
0.00194099
0.00172138
0.00141843
0.000952258
0.00018667
0.000199383
0.000998481
0.00146885
0.0017705
0.00198691
0.00214951
0.00227416
0.00237052
0.00244516
0.00250283
0.00254713
0.00258088
0.0026063
0.0026252
0.00263903
0.00264898
0.00265601
0.00266087
0.00266417
0.00266635
0.00266775
0.00266863
0.00266917
0.00266948
0.00266965
0.00266973
0.00266976
0.00266977
0.00266976
0.00266974
0.00266973
0.00266972
0.00266971
0.00266971
0.00266971
0.00266972
0.00266974
0.00266976
0.0026698
0.00266984
0.0026699
0.00266996
0.00267003
0.00267011
0.0026702
0.0026703
0.00267041
0.00267054
0.00267067
0.0026708
0.00267095
0.00267109
0.00267122
0.00267133
0.0026714
0.00267138
0.00267122
0.00267085
0.00267015
0.00266896
0.00266706
0.00266415
0.00265982
0.00265358
0.00264479
0.00263264
0.00261617
0.00259418
0.00256522
0.00252754
0.00247894
0.0024167
0.00233731
0.00223615
0.00210685
0.00194001
0.00172025
0.0014172
0.000951061
0.000186359
0.000199575
0.000999154
0.00146961
0.00177127
0.00198766
0.00215023
0.00227485
0.00237117
0.00244577
0.0025034
0.00254766
0.00258137
0.00260676
0.00262562
0.00263942
0.00264935
0.00265636
0.00266121
0.00266449
0.00266666
0.00266805
0.00266893
0.00266946
0.00266977
0.00266994
0.00267002
0.00267005
0.00267005
0.00267004
0.00267003
0.00267002
0.00267001
0.00267
0.00267
0.00267001
0.00267002
0.00267004
0.00267008
0.00267012
0.00267017
0.00267023
0.0026703
0.00267037
0.00267046
0.00267056
0.00267068
0.0026708
0.00267093
0.00267108
0.00267123
0.00267139
0.00267155
0.0026717
0.00267183
0.00267191
0.00267191
0.00267178
0.00267143
0.00267075
0.00266957
0.00266767
0.00266475
0.00266042
0.00265415
0.00264532
0.00263311
0.00261656
0.00259448
0.00256541
0.00252759
0.00247884
0.00241643
0.00233685
0.0022355
0.00210599
0.00193896
0.00171903
0.00141587
0.00094977
0.000186024
0.000199777
0.000999864
0.00147041
0.00177208
0.00198845
0.00215099
0.00227557
0.00237186
0.00244641
0.002504
0.00254822
0.00258189
0.00260724
0.00262607
0.00263984
0.00264975
0.00265673
0.00266156
0.00266483
0.00266698
0.00266837
0.00266924
0.00266977
0.00267007
0.00267024
0.00267032
0.00267035
0.00267035
0.00267034
0.00267033
0.00267032
0.00267031
0.00267031
0.00267031
0.00267032
0.00267034
0.00267036
0.0026704
0.00267045
0.00267051
0.00267057
0.00267065
0.00267074
0.00267084
0.00267095
0.00267107
0.00267121
0.00267136
0.00267152
0.00267169
0.00267187
0.00267205
0.00267222
0.00267237
0.00267248
0.0026725
0.00267239
0.00267206
0.00267139
0.00267023
0.00266834
0.00266542
0.00266108
0.00265479
0.00264591
0.00263365
0.00261702
0.00259484
0.00256564
0.00252768
0.00247876
0.00241616
0.00233639
0.00223482
0.00210509
0.00193785
0.00171773
0.00141444
0.000948377
0.000185663
0.000199991
0.00100061
0.00147126
0.00177293
0.00198929
0.0021518
0.00227634
0.00237258
0.00244709
0.00250463
0.00254881
0.00258244
0.00260775
0.00262655
0.00264029
0.00265016
0.00265713
0.00266194
0.00266519
0.00266733
0.00266871
0.00266957
0.0026701
0.0026704
0.00267056
0.00267063
0.00267066