/*--------------------------------*- C++ -*----------------------------------*\
  =========                 |
  \\      /  F ield         | OpenFOAM: The Open Source CFD Toolbox
   \\    /   O peration     | Website:  https://openfoam.org
    \\  /    A nd           | Version:  13
     \\/     M anipulation  |
\*---------------------------------------------------------------------------*/
FoamFile
{
    format      ascii;
    class       volScalarField;
    location    "0.2";
    object      p;
}
// * * * * * * * * * * * * * * * * * * * * * * * * * * * * * * * * * * * * * //

dimensions      [0 2 -2 0 0 0 0];

internalField   nonuniform List<scalar> 
6400
(
9.30353e-09
-1.45604e-06
-3.95373e-06
-6.89297e-06
-9.42456e-06
-1.12617e-05
-1.2136e-05
-1.18831e-05
-1.04116e-05
-7.68004e-06
-3.68019e-06
1.5737e-06
8.05344e-06
1.5723e-05
2.4543e-05
3.44737e-05
4.54771e-05
5.75177e-05
7.05634e-05
8.4585e-05
9.9556e-05
0.000115452
0.000132251
0.000149932
0.000168473
0.000187854
0.000208056
0.000229056
0.000250833
0.000273365
0.000296628
0.000320596
0.000345242
0.000370538
0.000396454
0.000422956
0.000450012
0.000477585
0.000505636
0.000534124
0.000563005
0.000592233
0.000621763
0.000651547
0.000681527
0.000711649
0.000741856
0.000772087
0.000802282
0.000832375
0.000862299
0.000891985
0.000921362
0.000950358
0.000978896
0.0010069
0.00103429
0.00106098
0.0010869
0.00111196
0.00113606
0.00115912
0.00118104
0.00120174
0.0012211
0.00123904
0.00125544
0.0012702
0.00128324
0.00129446
0.00130379
0.00131118
0.0013166
0.00132008
0.00132172
0.00132169
0.00132032
0.00131807
0.00131567
0.00131416
1.47147e-06
1.98324e-08
-2.12745e-06
-4.47782e-06
-6.50541e-06
-7.89791e-06
-8.4198e-06
-7.90974e-06
-6.26775e-06
-3.4392e-06
5.98114e-07
5.84335e-06
1.228e-05
1.98816e-05
2.8616e-05
3.84491e-05
4.93462e-05
6.12747e-05
7.42034e-05
8.81042e-05
0.000102951
0.000118719
0.000135387
0.000152932
0.000171334
0.000190573
0.000210628
0.000231478
0.000253101
0.000275475
0.000298576
0.000322378
0.000346855
0.000371979
0.000397719
0.000424043
0.000450917
0.000478305
0.000506168
0.000534467
0.000563156
0.000592192
0.000621529
0.000651115
0.000680897
0.00071082
0.000740828
0.00077086
0.000800856
0.000830749
0.000860475
0.000889964
0.000919145
0.000947945
0.00097629
0.0010041
0.0010313
0.00105781
0.00108355
0.00110842
0.00113235
0.00115523
0.00117699
0.00119752
0.00121673
0.00123453
0.00125081
0.00126548
0.00127845
0.00128966
0.00129903
0.00130653
0.00131216
0.00131595
0.00131801
0.00131852
0.00131775
0.0013161
0.00131416
0.00131265
3.98611e-06
2.15554e-06
3.90701e-09
-1.87276e-06
-3.18085e-06
-3.83868e-06
-3.72021e-06
-2.6967e-06
-6.70635e-07
2.42297e-06
6.62235e-06
1.19444e-05
1.83898e-05
2.59472e-05
3.45971e-05
4.43153e-05
5.50752e-05
6.68492e-05
7.96105e-05
9.33331e-05
0.000107993
0.000123566
0.000140032
0.000157368
0.000175555
0.000194572
0.000214399
0.000235014
0.000256398
0.000278526
0.000301375
0.000324921
0.000349137
0.000373994
0.000399463
0.000425513
0.000452109
0.000479215
0.000506793
0.000534804
0.000563205
0.00059195
0.000620994
0.000650285
0.000679772
0.0007094
0.000739113
0.000768851
0.000798553
0.000828155
0.000857591
0.000886793
0.00091569
0.000944209
0.000972277
0.000999817
0.00102675
0.001053
0.00107847
0.0011031
0.00112678
0.00114944
0.00117097
0.0011913
0.00121033
0.00122798
0.00124414
0.00125875
0.00127174
0.00128304
0.00129261
0.00130044
0.00130654
0.00131096
0.00131379
0.00131518
0.00131527
0.00131417
0.00131222
0.00131025
6.94881e-06
4.50622e-06
1.84626e-06
-5.62745e-08
-9.88611e-07
-1.11336e-06
-4.4685e-07
1.07521e-06
3.52155e-06
6.9468e-06
1.13899e-05
1.68745e-05
2.34111e-05
3.09992e-05
3.963e-05
4.92888e-05
5.99571e-05
7.1614e-05
8.42379e-05
9.78069e-05
0.0001123
0.000127695
0.000143973
0.000161113
0.000179097
0.000197904
0.000217514
0.000237908
0.000259063
0.000280959
0.000303572
0.000326877
0.000350849
0.000375459
0.000400678
0.000426475
0.000452816
0.000479667
0.000506989
0.000534742
0.000562885
0.000591373
0.000620159
0.000649195
0.000678428
0.000707803
0.000737267
0.000766758
0.000796216
0.000825578
0.000854779
0.000883749
0.00091242
0.000940718
0.000968571
0.000995902
0.00102263
0.00104869
0.00107398
0.00109843
0.00112195
0.00114445
0.00116586
0.00118609
0.00120505
0.00122265
0.00123884
0.00125352
0.00126665
0.00127819
0.00128809
0.00129635
0.00130299
0.00130804
0.00131156
0.00131361
0.00131417
0.00131306
0.00131057
0.00130799
9.5006e-06
6.52237e-06
3.08531e-06
7.35852e-07
-2.37886e-07
-1.67639e-07
8.02353e-07
2.66326e-06
5.44004e-06
9.16141e-06
1.38526e-05
1.95319e-05
2.62096e-05
3.38885e-05
4.25647e-05
5.22293e-05
6.28697e-05
7.44707e-05
8.70155e-05
0.000100487
0.000114866
0.000130135
0.000146277
0.000163272
0.000181103
0.000199752
0.000219199
0.000239425
0.00026041
0.000282132
0.000304569
0.000327696
0.000351489
0.000375919
0.000400959
0.000426577
0.00045274
0.000479413
0.000506559
0.00053414
0.000562113
0.000590434
0.000619056
0.000647932
0.00067701
0.000706235
0.000735552
0.000764903
0.000794227
0.000823461
0.000852539
0.000881393
0.000909955
0.000938152
0.00096591
0.000993155
0.00101981
0.00104579
0.00107103
0.00109543
0.00111892
0.00114142
0.00116284
0.0011831
0.00120212
0.00121983
0.00123617
0.00125105
0.00126444
0.00127629
0.00128657
0.00129526
0.00130235
0.00130787
0.00131181
0.00131414
0.00131471
0.00131311
0.00130975
0.00130656
1.13437e-05
7.87561e-06
3.62272e-06
6.48107e-07
-6.16864e-07
-5.97851e-07
4.67085e-07
2.50592e-06
5.49935e-06
9.445e-06
1.43474e-05
2.02121e-05
2.70424e-05
3.48381e-05
4.35955e-05
5.33078e-05
6.39654e-05
7.5557e-05
8.80696e-05
0.000101489
0.000115801
0.000130991
0.000147042
0.000163939
0.000181665
0.000200203
0.000219536
0.000239645
0.000260512
0.000282114
0.000304431
0.00032744
0.000351114
0.000375429
0.000400355
0.000425862
0.000451918
0.000478488
0.000505536
0.000533023
0.000560907
0.000589146
0.000617692
0.000646498
0.000675513
0.000704683
0.000733952
0.000763263
0.000792555
0.000821764
0.000850826
0.000879673
0.000908235
0.000936442
0.00096422
0.000991493
0.00101819
0.00104422
0.00106952
0.001094
0.00111758
0.00114018
0.00116173
0.00118214
0.00120135
0.00121927
0.00123585
0.00125102
0.00126473
0.00127693
0.00128757
0.00129664
0.0013041
0.00130992
0.00131405
0.0013164
0.00131669
0.00131442
0.00131016
0.00130641
1.21971e-05
8.31788e-06
3.32125e-06
-3.14022e-07
-1.9928e-06
-2.17911e-06
-1.17048e-06
9.14239e-07
4.01836e-06
8.10988e-06
1.3171e-05
1.91912e-05
2.61629e-05
3.40792e-05
4.29329e-05
5.27159e-05
6.34196e-05
7.50343e-05
8.75497e-05
0.000100955
0.000115237
0.000130385
0.000146385
0.000163223
0.000180885
0.000199356
0.000218619
0.000238657
0.000259451
0.000280983
0.000303232
0.000326174
0.000349786
0.000374042
0.000398914
0.000424373
0.000450386
0.000476921
0.00050394
0.000531406
0.000559277
0.000587511
0.000616062
0.000644881
0.000673919
0.000703121
0.000732433
0.000761796
0.00079115
0.000820431
0.000849576
0.000878516
0.000907182
0.000935502
0.000963404
0.000990812
0.00101765
0.00104384
0.00106931
0.00109397
0.00111775
0.00114057
0.00116235
0.00118302
0.0012025
0.00122072
0.00123762
0.00125313
0.00126719
0.00127975
0.00129075
0.00130013
0.00130786
0.00131385
0.00131803
0.00132023
0.00132011
0.00131713
0.00131205
0.00130784
1.18866e-05
7.67884e-06
2.04428e-06
-2.22272e-06
-4.36534e-06
-4.84881e-06
-4.00233e-06
-1.97502e-06
1.14845e-06
5.31112e-06
1.04743e-05
1.6611e-05
2.3701e-05
3.17285e-05
4.06803e-05
5.0545e-05
6.13125e-05
7.29734e-05
8.55183e-05
9.89381e-05
0.000113223
0.000128363
0.000144347
0.000161163
0.000178799
0.000197241
0.000216475
0.000236484
0.000257252
0.00027876
0.000300988
0.000323915
0.000347517
0.00037177
0.000396646
0.000422116
0.00044815
0.000474714
0.000501772
0.000529287
0.000557218
0.000585523
0.000614156
0.000643069
0.000672212
0.000701533
0.000730974
0.00076048
0.000789988
0.000819437
0.000848761
0.000877892
0.00090676
0.000935295
0.000963423
0.000991069
0.00101816
0.00104461
0.00107035
0.0010953
0.00111938
0.00114251
0.00116462
0.00118563
0.00120547
0.00122407
0.00124134
0.00125724
0.00127167
0.00128459
0.00129591
0.00130557
0.00131348
0.00131956
0.00132367
0.00132564
0.00132506
0.00132141
0.00131562
0.00131103
1.03141e-05
5.85222e-06
-3.11341e-07
-5.15244e-06
-7.76596e-06
-8.59535e-06
-7.98082e-06
-6.08773e-06
-3.01925e-06
1.1486e-06
6.35949e-06
1.25711e-05
1.97505e-05
2.78721e-05
3.69153e-05
4.68638e-05
5.77046e-05
6.94269e-05
8.20214e-05
9.54798e-05
0.000109794
0.000124955
0.000140954
0.000157782
0.000175427
0.000193877
0.00021312
0.000233142
0.000253925
0.000275454
0.000297709
0.000320669
0.000344313
0.000368615
0.000393551
0.000419091
0.000445206
0.000471863
0.000499026
0.000526658
0.00055472
0.000583169
0.00061196
0.000641046
0.000670377
0.000699899
0.000729557
0.000759294
0.000789048
0.000818756
0.000848354
0.000877772
0.000906942
0.000935791
0.000964245
0.00099223
0.00101967
0.00104648
0.0010726
0.00109793
0.00112241
0.00114595
0.00116848
0.00118992
0.00121019
0.00122921
0.00124692
0.00126323
0.00127806
0.00129133
0.00130296
0.00131285
0.0013209
0.001327
0.00133099
0.00133267
0.00133163
0.00132737
0.00132099
0.00131611
7.43354e-06
2.77838e-06
-3.81484e-06
-9.16209e-06
-1.22283e-05
-1.34225e-05
-1.30816e-05
-1.13762e-05
-8.41975e-06
-4.30132e-06
9.08939e-07
7.15555e-06
1.4394e-05
2.25888e-05
3.17115e-05
4.174e-05
5.26573e-05
6.44502e-05
7.71086e-05
9.0624e-05
0.000104989
0.000120196
0.000136238
0.000153107
0.000170793
0.000189286
0.000208575
0.000228646
0.000249485
0.000271077
0.000293402
0.000316443
0.000340177
0.000364581
0.000389629
0.000415296
0.00044155
0.00046836
0.000495692
0.000523508
0.00055177
0.000580435
0.000609459
0.000638794
0.000668392
0.000698197
0.000728156
0.000758211
0.000788299
0.000818359
0.000848323
0.000878124
0.000907691
0.000936951
0.000965831
0.000994254
0.00102214
0.00104942
0.00107601
0.00110182
0.00112679
0.00115083
0.00117386
0.0011958
0.00121657
0.00123609
0.00125427
0.00127103
0.00128627
0.0012999
0.00131182
0.00132192
0.00133008
0.00133615
0.00133999
0.00134138
0.00133991
0.00133511
0.00132825
0.00132313
3.23335e-06
-1.5685e-06
-8.50789e-06
-1.42938e-05
-1.77815e-05
-1.93397e-05
-1.92931e-05
-1.78097e-05
-1.50064e-05
-1.09801e-05
-5.81084e-06
4.35385e-07
7.70396e-06
1.59501e-05
2.51378e-05
3.52387e-05
4.62314e-05
5.80997e-05
7.08315e-05
8.44178e-05
9.88513e-05
0.000114125
0.000130234
0.00014717
0.000164925
0.000183492
0.000202859
0.000223016
0.000243948
0.000265642
0.00028808
0.000311244
0.000335114
0.000359668
0.000384881
0.000410726
0.000437176
0.000464198
0.000491759
0.000519823
0.000548351
0.000577302
0.00060663
0.00063629
0.00066623
0.0006964
0.000726742
0.000757198
0.000787708
0.000818208
0.00084863
0.000878906
0.000908965
0.000938733
0.000968135
0.000997093
0.00102553
0.00105337
0.00108052
0.00110691
0.00113246
0.00115708
0.00118069
0.00120321
0.00122455
0.00124462
0.00126332
0.00128056
0.00129624
0.00131024
0.00132245
0.00133275
0.00134099
0.00134704
0.00135072
0.00135183
0.00134997
0.00134471
0.00133745
0.00133214
-2.27579e-06
-7.19036e-06
-1.44101e-05
-2.0574e-05
-2.44467e-05
-2.63562e-05
-2.66098e-05
-2.53676e-05
-2.2745e-05
-1.88423e-05
-1.37459e-05
-7.52973e-06
-2.56771e-07
8.02015e-06
1.72578e-05
2.74219e-05
3.84862e-05
5.04311e-05
6.32423e-05
7.69097e-05
9.14256e-05
0.000106784
0.000122979
0.000140005
0.000157855
0.000176522
0.000195998
0.000216271
0.000237331
0.000259163
0.000281752
0.000305081
0.00032913
0.000353879
0.000379304
0.00040538
0.000432077
0.000459367
0.000487216
0.000515589
0.000544446
0.000573748
0.00060345
0.000633505
0.000663864
0.000694473
0.000725278
0.00075622
0.000787236
0.000818262
0.000849232
0.000880074
0.000910718
0.000941087
0.000971106
0.00100069
0.00102977
0.00105826
0.00108608
0.00111314
0.00113936
0.00116465
0.00118892
0.00121209
0.00123406
0.00125474
0.00127401
0.00129177
0.00130791
0.0013223
0.00133481
0.00134531
0.00135364
0.00135967
0.00136321
0.00136407
0.00136186
0.00135621
0.00134861
0.00134315
-9.06856e-06
-1.40733e-05
-2.15246e-05
-2.80152e-05
-3.22365e-05
-3.44782e-05
-3.50279e-05
-3.40346e-05
-3.16092e-05
-2.78516e-05
-2.28519e-05
-1.66893e-05
-9.43343e-06
-1.14396e-06
8.12947e-06
1.8347e-05
2.94775e-05
4.14981e-05
5.4392e-05
6.81475e-05
8.27564e-05
9.82124e-05
0.000114511
0.000131646
0.000149613
0.000168405
0.000188015
0.000208434
0.000229651
0.000251655
0.00027443
0.000297961
0.000322229
0.000347216
0.000372897
0.00039925
0.000426245
0.000453855
0.000482047
0.000510785
0.000540033
0.000569749
0.00059989
0.00063041
0.000661258
0.000692383
0.000723728
0.000755233
0.000786838
0.000818476
0.00085008
0.000881578
0.000912897
0.00094396
0.000974689
0.001005
0.00103482
0.00106406
0.00109263
0.00112044
0.00114742
0.00117346
0.00119848
0.00122238
0.00124505
0.00126639
0.00128628
0.00130461
0.00132125
0.00133605
0.00134889
0.00135961
0.00136805
0.00137407
0.0013775
0.00137814
0.00137564
0.00136964
0.00136176
0.00135616
-1.71116e-05
-2.21934e-05
-2.98425e-05
-3.66192e-05
-4.11558e-05
-4.37077e-05
-4.45431e-05
-4.37987e-05
-4.1578e-05
-3.79789e-05
-3.30922e-05
-2.70008e-05
-1.97792e-05
-1.14924e-05
-2.19583e-06
8.06561e-06
1.92566e-05
3.13506e-05
4.43284e-05
5.81767e-05
7.28864e-05
8.8451e-05
0.000104866
0.000122126
0.000140228
0.000159166
0.000178934
0.000199524
0.000220926
0.000243131
0.000266124
0.000289891
0.000314415
0.000339678
0.000365657
0.00039233
0.000419669
0.000447648
0.000476233
0.000505392
0.000535087
0.000565278
0.000595921
0.000626971
0.000658378
0.000690089
0.000722048
0.000754195
0.000786468
0.000818801
0.000851124
0.000883364
0.000915448
0.000947295
0.000978827
0.00100996
0.00104061
0.00107069
0.0011001
0.00112877
0.00115659
0.00118347
0.00120931
0.00123401
0.00125745
0.00127952
0.0013001
0.00131905
0.00133622
0.00135149
0.00136468
0.00137565
0.00138423
0.00139028
0.00139363
0.0013941
0.00139134
0.00138505
0.00137691
0.00137117
-2.63683e-05
-3.15217e-05
-3.93474e-05
-4.63799e-05
-5.12029e-05
-5.40432e-05
-5.51507e-05
-5.46495e-05
-5.2635e-05
-4.92009e-05
-4.44376e-05
-3.84297e-05
-3.1255e-05
-2.29832e-05
-1.36741e-05
-3.37713e-06
7.86841e-06
2.00328e-05
3.30944e-05
4.70381e-05
6.1854e-05
7.75354e-05
9.40774e-05
0.000111476
0.000129729
0.00014883
0.000168775
0.000189558
0.00021117
0.000233601
0.000256841
0.000280874
0.000305687
0.000331261
0.000357575
0.000384608
0.000412335
0.000440727
0.000469755
0.000499385
0.000529581
0.000560303
0.000591508
0.000623151
0.000655182
0.000687548
0.000720193
0.000753057
0.000786076
0.000819184
0.000852309
0.000885378
0.000918314
0.000951036
0.000983462
0.00101551
0.00104708
0.00107809
0.00110845
0.00113805
0.00116681
0.00119462
0.00122137
0.00124695
0.00127124
0.00129411
0.00131543
0.00133505
0.00135282
0.00136859
0.00138219
0.00139345
0.00140222
0.00140833
0.00141165
0.00141198
0.00140901
0.00140246
0.00139407
0.00138821
-3.68019e-05
-4.2027e-05
-5.00187e-05
-5.72859e-05
-6.23721e-05
-6.54805e-05
-6.68452e-05
-6.65784e-05
-6.47669e-05
-6.14997e-05
-5.68651e-05
-5.09485e-05
-4.38299e-05
-3.55823e-05
-2.62693e-05
-1.59442e-05
-4.64968e-06
7.58161e-06
2.07258e-05
3.47662e-05
4.96919e-05
6.54958e-05
8.21733e-05
9.97211e-05
0.000118136
0.000137416
0.000157555
0.000178549
0.000200391
0.000223072
0.000246583
0.00027091
0.000296041
0.000321958
0.000348642
0.000376072
0.000404225
0.000433073
0.000462588
0.000492736
0.000523483
0.00055479
0.000586614
0.00061891
0.000651628
0.000684716
0.000718116
0.000751769
0.00078561
0.000819572
0.000853581
0.000887563
0.000921438
0.000955125
0.000988536
0.00102158
0.00105417
0.00108622
0.00111761
0.00114825
0.00117804
0.00120686
0.00123461
0.00126115
0.00128637
0.00131012
0.00133225
0.00135262
0.00137105
0.00138738
0.00140143
0.00141304
0.00142204
0.00142827
0.00143159
0.00143184
0.00142869
0.0014219
0.00141328
0.00140728
-4.83784e-05
-5.36793e-05
-6.18339e-05
-6.93229e-05
-7.46546e-05
-7.80136e-05
-7.96212e-05
-7.95784e-05
-7.79642e-05
-7.48622e-05
-7.03582e-05
-6.45372e-05
-5.74808e-05
-4.92642e-05
-3.99541e-05
-2.96071e-05
-1.82686e-05
-5.97403e-06
7.2508e-06
2.13879e-05
3.64253e-05
5.23557e-05
6.91745e-05
8.68789e-05
0.000105467
0.000124936
0.000145283
0.000166504
0.000188593
0.000211544
0.000235348
0.000259993
0.000285468
0.000311756
0.00033884
0.000366701
0.000395316
0.000424659
0.000454702
0.000485414
0.00051676
0.000548702
0.000581198
0.000614204
0.00064767
0.000681543
0.000715766
0.000750279
0.000785017
0.000819909
0.000854884
0.000889863
0.000924765
0.000959504
0.000993993
0.00102814
0.00106184
0.00109501
0.00112753
0.00115931
0.00119022
0.00122015
0.00124899
0.00127659
0.00130282
0.00132753
0.00135056
0.00137174
0.0013909
0.00140786
0.00142243
0.00143445
0.00144374
0.00145014
0.00145352
0.00145371
0.00145043
0.00144341
0.00143455
0.0014284
-6.10673e-05
-6.64508e-05
-7.47712e-05
-8.24756e-05
-8.80404e-05
-9.16361e-05
-9.34736e-05
-9.36446e-05
-9.22206e-05
-8.928e-05
-8.4906e-05
-7.91825e-05
-7.21919e-05
-6.40112e-05
-5.47094e-05
-4.43456e-05
-3.29679e-05
-2.06138e-05
-7.31076e-06
6.92186e-06
2.20715e-05
3.81305e-05
5.50945e-05
7.29612e-05
9.1729e-05
0.000111397
0.000131963
0.000153423
0.000175775
0.000199013
0.000223128
0.000248112
0.000273953
0.000300638
0.00032815
0.000356472
0.000385581
0.000415455
0.000446065
0.000477381
0.000509371
0.000541996
0.000575216
0.000608986
0.000643258
0.000677978
0.000713091
0.000748533
0.00078424
0.00082014
0.00085616
0.00089222
0.000928236
0.000964119
0.000999778
0.00103512
0.00107003
0.00110442
0.00113818
0.00117118
0.00120332
0.00123447
0.00126449
0.00129324
0.00132058
0.00134634
0.00137036
0.00139244
0.00141241
0.00143007
0.00144524
0.00145773
0.00146737
0.001474
0.00147748
0.00147767
0.00147427
0.00146703
0.00145793
0.00145162
-7.48429e-05
-8.03172e-05
-8.88105e-05
-9.67295e-05
-0.00010252
-0.000106342
-0.000108398
-0.000108774
-0.000107533
-0.000104749
-0.000100503
-9.48773e-05
-8.79546e-05
-7.98131e-05
-7.05239e-05
-6.01478e-05
-4.87353e-05
-3.63255e-05
-2.29474e-05
-8.62119e-06
6.63991e-06
2.28281e-05
3.99393e-05
5.79718e-05
7.69248e-05
9.67981e-05
0.000117591
0.000139302
0.000161928
0.000185466
0.000209908
0.000235249
0.000261477
0.00028858
0.000316546
0.000345355
0.000374989
0.000405425
0.000436638
0.000468598
0.000501273
0.000534627
0.000568619
0.000603206
0.00063834
0.000673968
0.000710033
0.000746473
0.000783222
0.000820207
0.000857352
0.000894577
0.000931794
0.000968913
0.00100584
0.00104247
0.00107869
0.00111441
0.0011495
0.00118385
0.00121732
0.00124978
0.00128109
0.0013111
0.00133965
0.00136656
0.00139166
0.00141474
0.00143561
0.00145406
0.0014699
0.00148294
0.00149299
0.00149991
0.00150355
0.00150377
0.00150028
0.00149283
0.00148347
0.00147698
-8.96841e-05
-9.52585e-05
-0.000103934
-0.000112071
-0.000118084
-0.000122125
-0.000124393
-0.000124965
-0.0001239
-0.000121269
-0.000117148
-0.00011162
-0.000104766
-9.66668e-05
-8.73936e-05
-7.70095e-05
-6.55664e-05
-5.31049e-05
-3.96553e-05
-2.52384e-05
-9.86776e-06
6.44883e-06
2.37076e-05
4.19075e-05
6.10487e-05
8.1132e-05
0.000102158
0.000124127
0.000147037
0.000170885
0.000195669
0.00022138
0.000248012
0.000275554
0.000303994
0.000333316
0.000363501
0.00039453
0.000426378
0.000459018
0.000492418
0.000526543
0.000561355
0.00059681
0.000632861
0.000669455
0.000706536
0.000744041
0.000781902
0.000820048
0.0008584
0.000896874
0.000935382
0.000973829
0.00101212
0.00105014
0.00108778
0.00112493
0.00116147
0.00119726
0.00123218
0.00126607
0.00129879
0.00133017
0.00136004
0.00138821
0.00141449
0.00143867
0.00146053
0.00147987
0.00149647
0.00151014
0.00152068
0.00152795
0.00153181
0.0015321
0.00152853
0.00152088
0.00151123
0.00150455
-0.000105574
-0.000111259
-0.000120129
-0.00012849
-0.000134725
-0.000138981
-0.000141455
-0.000142218
-0.000141325
-0.000138842
-0.000134845
-0.000129413
-0.00012263
-0.000114575
-0.000105321
-9.49326e-05
-8.34633e-05
-7.09547e-05
-5.74377e-05
-4.29338e-05
-2.74567e-05
-1.1014e-05
6.39117e-06
2.47583e-05
4.40888e-05
6.43845e-05
8.56474e-05
0.000107879
0.000131079
0.000155248
0.000180382
0.000206478
0.000233528
0.000261525
0.000290458
0.000320314
0.000351075
0.000382724
0.000415238
0.000448591
0.000482752
0.00051769
0.000553365
0.000589737
0.000626758
0.000664376
0.000702535
0.000741171
0.000780217
0.0008196
0.000859239
0.00089905
0.00093894
0.000978811
0.00101856
0.00105808
0.00109725
0.00113594
0.00117404
0.0012114
0.00124788
0.00128332
0.00131756
0.00135043
0.00138175
0.0014113
0.00143888
0.00146427
0.00148724
0.00150756
0.00152502
0.0015394
0.00155052
0.00155821
0.00156232
0.00156272
0.00155911
0.00155124
0.00154129
0.0015344
-0.000122501
-0.000128305
-0.000137383
-0.000145977
-0.000152437
-0.000156909
-0.000159586
-0.000160536
-0.000159812
-0.000157475
-0.000153599
-0.000148264
-0.000141552
-0.000133544
-0.000124313
-0.000113925
-0.000102434
-8.98831e-05
-7.63037e-05
-6.17175e-05
-4.61381e-05
-2.95728e-05
-1.20241e-05
6.50846e-06
2.60273e-05
4.65358e-05
6.80373e-05
9.05347e-05
0.00011403
0.000138525
0.000164017
0.000190506
0.000217987
0.000246453
0.000275896
0.000306304
0.000337663
0.000369957
0.000403164
0.000437261
0.000472219
0.000508007
0.00054459
0.000581925
0.000619967
0.000658665
0.000697962
0.000737797
0.000778099
0.000818796
0.000859805
0.000901039
0.000942404
0.000983798
0.00102511
0.00106624
0.00110704
0.0011474
0.00118718
0.00122623
0.0012644
0.00130152
0.00133743
0.00137192
0.0014048
0.00143586
0.00146487
0.00149159
0.00151579
0.00153721
0.00155563
0.00157083
0.0015826
0.00159077
0.00159521
0.00159576
0.00159211
0.00158402
0.00157376
0.00156663
-0.000140456
-0.00014639
-0.000155688
-0.000164526
-0.000171217
-0.000175907
-0.000178787
-0.000179924
-0.000179366
-0.000177174
-0.00017342
-0.000168182
-0.000161544
-0.000153585
-0.000144381
-0.000133998
-0.000122491
-0.000109903
-9.62672e-05
-8.16044e-05
-6.59281e-05
-4.92451e-05
-3.15572e-05
-1.28628e-05
6.84181e-06
2.75613e-05
4.93008e-05
7.20649e-05
9.58575e-05
0.000120681
0.000146538
0.000173428
0.000201347
0.000230294
0.00026026
0.000291236
0.000323212
0.000356172
0.000390098
0.000424968
0.000460755
0.000497431
0.00053496
0.000573304
0.000612417
0.00065225
0.000692746
0.000733844
0.000775475
0.000817562
0.000860024
0.000902772
0.000945707
0.000988726
0.00103172
0.00107456
0.00111712
0.00115927
0.00120086
0.00124173
0.00128173
0.00132067
0.00135837
0.00139463
0.00142923
0.00146193
0.00149251
0.0015207
0.00154625
0.0015689
0.00158839
0.0016045
0.00161702
0.00162576
0.00163057
0.0016313
0.00162764
0.00161933
0.00160873
0.00160135
-0.000159434
-0.000165506
-0.00017504
-0.000184134
-0.000191064
-0.000195975
-0.000199061
-0.000200386
-0.000199995
-0.000197949
-0.000194318
-0.00018918
-0.000182617
-0.000174712
-0.000165539
-0.000155167
-0.00014365
-0.000131032
-0.000117346
-0.000102613
-8.68466e-05
-7.00524e-05
-5.22312e-05
-3.33803e-05
-1.34946e-05
7.43226e-06
2.94069e-05
5.2436e-05
7.65254e-05
0.00010168
0.000127903
0.000155198
0.000183563
0.000212998
0.000243498
0.000275056
0.000307665
0.000341311
0.000375977
0.000411646
0.000448292
0.000485889
0.000524404
0.000563799
0.000604032
0.000645054
0.000686809
0.000729235
0.000772264
0.000815821
0.000859821
0.000904173
0.000948777
0.000993526
0.0010383
0.00108298
0.00112742
0.00117149
0.00121503
0.00125787
0.00129984
0.00134076
0.00138041
0.00141858
0.00145505
0.00148956
0.00152185
0.00155166
0.0015787
0.0016027
0.0016234
0.00164053
0.00165389
0.00166328
0.00166853
0.00166949
0.00166583
0.0016573
0.00164633
0.00163868
-0.000179432
-0.000185652
-0.000195436
-0.000204799
-0.000211978
-0.000217117
-0.000220413
-0.000221929
-0.000221709
-0.000219811
-0.000216305
-0.00021127
-0.000204787
-0.00019694
-0.000187805
-0.000177449
-0.000165929
-0.000153289
-0.000139561
-0.000124766
-0.000108917
-9.20197e-05
-7.40729e-05
-5.50726e-05
-3.50123e-05
-1.3884e-05
8.32094e-06
3.16111e-05
5.59944e-05
8.14781e-05
0.000108068
0.000135769
0.000164583
0.000194512
0.000225554
0.000257705
0.00029096
0.000325307
0.000360734
0.000397224
0.000434757
0.000473306
0.000512843
0.000553331
0.00059473
0.000636992
0.000680063
0.000723883
0.000768383
0.000813487
0.00085911
0.00090516
0.000951533
0.00099812
0.0010448
0.00109144
0.0011379
0.00118402
0.00122965
0.00127461
0.00131872
0.00136176
0.00140353
0.00144379
0.00148229
0.00151877
0.00155295
0.00158454
0.00161323
0.00163873
0.00166076
0.00167904
0.00169335
0.00170347
0.00170923
0.00171047
0.00170683
0.00169806
0.0016867
0.00167875
-0.000200448
-0.000206827
-0.000216876
-0.000226522
-0.00023396
-0.000239336
-0.000242848
-0.000244561
-0.000244515
-0.00024277
-0.000239394
-0.000234467
-0.00022807
-0.000220288
-0.000211197
-0.000200865
-0.00018935
-0.000176696
-0.000162935
-0.000148088
-0.000132167
-0.000115175
-9.71119e-05
-7.79713e-05
-5.7745e-05
-3.64232e-05
-1.39952e-05
9.54968e-06
3.42216e-05
6.00302e-05
8.6984e-05
0.00011509
0.000144354
0.000174779
0.000206368
0.000239119
0.00027303
0.000308092
0.000344296
0.000381628
0.000420071
0.000459601
0.000500193
0.000541813
0.000584422
0.000627975
0.000672419
0.000717696
0.000763737
0.000810466
0.000857799
0.000905641
0.000953888
0.00100242
0.00105113
0.00109986
0.00114847
0.0011968
0.00124468
0.00129192
0.00133832
0.00138367
0.00142773
0.00147026
0.00151098
0.00154962
0.00158586
0.0016194
0.00164991
0.00167708
0.00170059
0.00172016
0.00173553
0.00174648
0.00175282
0.00175439
0.0017508
0.00174178
0.00173
0.00172173
-0.000222484
-0.00022903
-0.000239359
-0.000249304
-0.000257013
-0.000262636
-0.000266374
-0.00026829
-0.000268426
-0.000266839
-0.0002636
-0.000258787
-0.000252483
-0.000244772
-0.000235734
-0.000225435
-0.000213935
-0.000201277
-0.000187494
-0.000172605
-0.000156623
-0.000139548
-0.00012138
-0.00010211
-8.17283e-05
-6.02231e-05
-3.75817e-05
-1.37911e-05
1.11614e-05
3.7288e-05
6.45998e-05
9.3107e-05
0.000122818
0.000153739
0.000185876
0.000219231
0.000253804
0.000289591
0.000326585
0.000364775
0.000404149
0.000444687
0.000486364
0.000529151
0.000573011
0.000617903
0.000663775
0.000710571
0.000758223
0.000806657
0.000855787
0.000905517
0.000955743
0.00100635
0.0010572
0.00110815
0.00115906
0.00120975
0.00126004
0.00130973
0.00135862
0.00140646
0.00145301
0.00149801
0.00154115
0.00158214
0.00162065
0.00165634
0.00168885
0.00171786
0.00174302
0.00176402
0.00178058
0.00179247
0.00179948
0.00180142
0.0017979
0.00178864
0.0017764
0.0017678
-0.000245542
-0.000252266
-0.00026289
-0.000273149
-0.000281143
-0.000287024
-0.000290997
-0.000293125
-0.000293451
-0.000292032
-0.000288937
-0.000284245
-0.000278043
-0.000270413
-0.000261437
-0.000251182
-0.000239707
-0.000227057
-0.000213264
-0.000198346
-0.000182314
-0.000165171
-0.00014691
-0.000127524
-0.000107
-8.53238e-05
-6.24812e-05
-3.84564e-05
-1.32341e-05
1.32005e-05
4.08617e-05
6.97625e-05
9.99144e-05
0.000131328
0.000164011
0.00019797
0.000233208
0.000269725
0.000307518
0.00034658
0.000386902
0.000428468
0.000471258
0.000515244
0.000560395
0.000606671
0.000654024
0.000702398
0.000751731
0.000801946
0.00085296
0.000904677
0.000956989
0.00100978
0.0010629
0.00111623
0.00116958
0.0012228
0.00127567
0.00132801
0.00137956
0.0014301
0.00147935
0.00152703
0.00157281
0.00161638
0.00165737
0.00169542
0.00173015
0.00176119
0.00178818
0.00181077
0.00182867
0.00184162
0.00184939
0.00185177
0.00184835
0.00183883
0.00182612
0.00181714
-0.000269626
-0.000276536
-0.000287471
-0.00029806
-0.000306354
-0.000312506
-0.000316726
-0.000319078
-0.000319603
-0.00031836
-0.000315418
-0.000310859
-0.000304768
-0.00029723
-0.000288326
-0.000278127
-0.00026669
-0.000254061
-0.000240271
-0.000225338
-0.000209273
-0.000192074
-0.000173737
-0.000154249
-0.000133598
-0.000111767
-8.87378e-05
-6.44932e-05
-3.9015e-05
-1.22853e-05
1.57132e-05
4.49966e-05
7.55801e-05
0.000107478
0.000140701
0.000175261
0.000211163
0.000248412
0.000287009
0.000326952
0.000368235
0.000410847
0.000454771
0.000499986
0.000546462
0.000594163
0.000643046
0.000693059
0.000744138
0.000796211
0.000849196
0.000902997
0.000957504
0.0010126
0.00106814
0.00112397
0.00117994
0.00123585
0.0012915
0.00134666
0.0014011
0.00145456
0.00150673
0.00155732
0.00160599
0.00165237
0.00169608
0.00173673
0.00177391
0.0018072
0.00183622
0.0018606
0.00188
0.00189413
0.00190276
0.00190565
0.00190236
0.00189258
0.00187936
0.00186998
-0.000294738
-0.000301845
-0.000313108
-0.000324044
-0.000332652
-0.000339089
-0.000343569
-0.000346156
-0.000346893
-0.000345837
-0.00034306
-0.000338644
-0.000332675
-0.000325241
-0.000316423
-0.000306292
-0.000294908
-0.000282314
-0.000268543
-0.000253612
-0.000237528
-0.000220292
-0.000201895
-0.000182325
-0.000161564
-0.000139595
-0.000116397
-9.19504e-05
-6.62332e-05
-3.92247e-05
-1.09045e-05
1.87472e-05
4.9749e-05
8.2119e-05
0.000115873
0.000151025
0.000187586
0.000225564
0.000264965
0.000305793
0.000348045
0.000391716
0.000436794
0.000483261
0.000531093
0.000580258
0.000630717
0.00068242
0.000735311
0.000789317
0.000844359
0.000900341
0.000957154
0.00101468
0.00107277
0.00113127
0.00119001
0.00124879
0.00130741
0.00136562
0.00142317
0.00147977
0.00153512
0.00158888
0.00164068
0.00169015
0.00173685
0.00178036
0.00182023
0.00185603
0.00188731
0.00191367
0.00193474
0.00195021
0.00195982
0.0019633
0.00196019
0.00195014
0.00193637
0.00192656
-0.000320884
-0.000328197
-0.000339804
-0.000351106
-0.000360045
-0.000366782
-0.000371536
-0.000374372
-0.000375333
-0.000374477
-0.000371878
-0.000367617
-0.000361784
-0.000354467
-0.000345749
-0.000335702
-0.000324385
-0.000311843
-0.000298108
-0.000283196
-0.000267114
-0.000249859
-0.000231422
-0.000211789
-0.000190939
-0.000168853
-0.000145507
-0.000120878
-9.4942e-05
-6.76746e-05
-3.90517e-05
-9.0503e-06
2.23526e-05
5.51791e-05
8.94492e-05
0.000125181
0.000162389
0.000201089
0.00024129
0.000283002
0.000326227
0.000370964
0.000417208
0.000464946
0.000514159
0.00056482
0.000616897
0.000670343
0.000725105
0.000781116
0.000838298
0.000896557
0.000955787
0.00101586
0.00107664
0.00113797
0.00119966
0.00126151
0.0013233
0.00138478
0.00144567
0.00150567
0.00156446
0.00162167
0.0016769
0.00172974
0.00177973
0.00182639
0.00186925
0.00190781
0.0019416
0.00197018
0.00199313
0.00201011
0.00202082
0.00202499
0.00202209
0.00201178
0.00199743
0.00198715
-0.000348068
-0.000355597
-0.000367566
-0.000379252
-0.00038854
-0.000395593
-0.000400635
-0.000403735
-0.000404934