/*--------------------------------*- C++ -*----------------------------------*\
  =========                 |
  \\      /  F ield         | OpenFOAM: The Open Source CFD Toolbox
   \\    /   O peration     | Website:  https://openfoam.org
    \\  /    A nd           | Version:  13
     \\/     M anipulation  |
\*---------------------------------------------------------------------------*/
FoamFile
{
    format      ascii;
    class       surfaceScalarField;
    location    "0.2";
    object      phi;
}
// * * * * * * * * * * * * * * * * * * * * * * * * * * * * * * * * * * * * * //

dimensions      [0 3 -1 0 0 0 0];

internalField   nonuniform List<scalar> 
12640
(
4.03867e-10
-4.04046e-10
4.09234e-10
-5.37242e-12
-1.23476e-10
5.32705e-10
-1.09337e-09
9.6989e-10
-2.36507e-09
1.2717e-09
-3.82394e-09
1.45886e-09
-5.38863e-09
1.56469e-09
-7.00287e-09
1.61423e-09
-8.62809e-09
1.62522e-09
-1.02386e-08
1.61048e-09
-1.1818e-08
1.57939e-09
-1.33567e-08
1.53875e-09
-1.48501e-08
1.49333e-09
-1.62964e-08
1.4463e-09
-1.76959e-08
1.39956e-09
-1.905e-08
1.35411e-09
-2.03603e-08
1.31027e-09
-2.16283e-08
1.26799e-09
-2.28553e-08
1.22697e-09
-2.40421e-08
1.18683e-09
-2.51893e-08
1.14717e-09
-2.62969e-08
1.1076e-09
-2.73647e-08
1.0678e-09
-2.83922e-08
1.02749e-09
-2.93786e-08
9.86444e-10
-3.03231e-08
9.44484e-10
-3.12246e-08
9.01471e-10
-3.20819e-08
8.57296e-10
-3.28937e-08
8.11877e-10
-3.36589e-08
7.65154e-10
-3.4376e-08
7.17083e-10
-3.50436e-08
6.67634e-10
-3.56604e-08
6.1679e-10
-3.6225e-08
5.64541e-10
-3.67358e-08
5.10889e-10
-3.71917e-08
4.55841e-10
-3.75911e-08
3.99414e-10
-3.79327e-08
3.41629e-10
-3.82152e-08
2.82512e-10
-3.84373e-08
2.2208e-10
-3.85977e-08
1.60334e-10
-3.8695e-08
9.72876e-11
-3.87286e-08
3.35969e-11
-3.86972e-08
-3.13456e-11
-3.85998e-08
-9.74264e-11
-3.84353e-08
-1.64475e-10
-3.82029e-08
-2.32368e-10
-3.79019e-08
-3.01024e-10
-3.75316e-08
-3.70358e-10
-3.70913e-08
-4.40278e-10
-3.65806e-08
-5.10692e-10
-3.59991e-08
-5.8151e-10
-3.53465e-08
-6.52643e-10
-3.46224e-08
-7.24012e-10
-3.38269e-08
-7.9555e-10
-3.29597e-08
-8.67213e-10
-3.20207e-08
-9.3898e-10
-3.10098e-08
-1.01087e-09
-2.99269e-08
-1.08295e-09
-2.87716e-08
-1.15533e-09
-2.75434e-08
-1.22819e-09
-2.62417e-08
-1.30171e-09
-2.48656e-08
-1.3761e-09
-2.3414e-08
-1.45152e-09
-2.18861e-08
-1.52796e-09
-2.0281e-08
-1.60514e-09
-1.85987e-08
-1.68229e-09
-1.68408e-08
-1.75791e-09
-1.50113e-08
-1.82946e-09
-1.31182e-08
-1.8931e-09
-1.11749e-08
-1.94328e-09
-9.20254e-09
-1.97238e-09
-7.23238e-09
-1.97016e-09
-5.30948e-09
-1.92291e-09
-3.49802e-09
-1.81146e-09
-1.88975e-09
-1.60827e-09
-6.14582e-10
-1.27517e-09
1.63234e-10
-7.77818e-10
3.24935e-10
-1.61704e-10
3.24934e-10
6.36675e-12
-4.10415e-10
-6.59117e-10
6.60107e-10
-1.99297e-09
1.86655e-09
-3.79126e-09
2.76818e-09
-5.89175e-09
3.37218e-09
-8.18608e-09
3.75319e-09
-1.05983e-08
3.97691e-09
-1.30735e-08
4.08944e-09
-1.55714e-08
4.12315e-09
-1.80626e-08
4.10161e-09
-2.05256e-08
4.04243e-09
-2.29457e-08
3.95883e-09
-2.53129e-08
3.86057e-09
-2.76212e-08
3.75458e-09
-2.98671e-08
3.64544e-09
-3.20489e-08
3.53593e-09
-3.41661e-08
3.42742e-09
-3.62184e-08
3.32035e-09
-3.8206e-08
3.21455e-09
-4.01287e-08
3.1095e-09
-4.19861e-08
3.00456e-09
-4.37775e-08
2.89903e-09
-4.5502e-08
2.7923e-09
-4.71584e-08
2.68382e-09
-4.87451e-08
2.57312e-09
-5.02604e-08
2.45985e-09
-5.17026e-08
2.3437e-09
-5.30698e-08
2.22447e-09
-5.43599e-08
2.10198e-09
-5.55709e-08
1.97613e-09
-5.67007e-08
1.84684e-09
-5.77471e-08
1.71406e-09
-5.87081e-08
1.57778e-09
-5.95815e-08
1.43801e-09
-6.03654e-08
1.29477e-09
-6.10577e-08
1.14811e-09
-6.16564e-08
9.9809e-10
-6.21595e-08
8.44795e-10
-6.25653e-08
6.88315e-10
-6.2872e-08
5.28756e-10
-6.30779e-08
3.66229e-10
-6.31816e-08
2.01e-10
-6.3181e-08
3.2949e-11
-6.30753e-08
-1.37055e-10
-6.2863e-08
-3.09717e-10
-6.2543e-08
-4.8445e-10
-6.21144e-08
-6.61026e-10
-6.15762e-08
-8.39217e-10
-6.09277e-08
-1.01879e-09
-6.01685e-08
-1.1995e-09
-5.92981e-08
-1.38111e-09
-5.83163e-08
-1.56336e-09
-5.72229e-08
-1.74603e-09
-5.6018e-08
-1.92891e-09
-5.47017e-08
-2.11179e-09
-5.32744e-08
-2.29455e-09
-5.17363e-08
-2.47707e-09
-5.00878e-08
-2.65934e-09
-4.83294e-08
-2.84138e-09
-4.64614e-08
-3.02334e-09
-4.44842e-08
-3.20542e-09
-4.23981e-08
-3.38781e-09
-4.02036e-08
-3.57063e-09
-3.79014e-08
-3.75372e-09
-3.54928e-08
-3.9365e-09
-3.29803e-08
-4.11768e-09
-3.03677e-08
-4.29486e-09
-2.76615e-08
-4.46416e-09
-2.48711e-08
-4.61981e-09
-2.20106e-08
-4.75365e-09
-1.90991e-08
-4.85472e-09
-1.6163e-08
-4.90857e-09
-1.32369e-08
-4.89623e-09
-1.03675e-08
-4.79233e-09
-7.61697e-09
-4.56196e-09
-5.07083e-09
-4.15442e-09
-2.85059e-09
-3.4954e-09
-1.13324e-09
-2.49517e-09
-1.59889e-10
-1.13506e-09
1.65044e-10
-5.32568e-10
1.22155e-10
-1.8657e-09
1.99323e-09
-3.65537e-09
3.65622e-09
-5.73894e-09
4.85175e-09
-8.03315e-09
5.66638e-09
-1.04785e-08
6.19853e-09
-1.30275e-08
6.52591e-09
-1.56417e-08
6.70361e-09
-1.82897e-08
6.77118e-09
-2.09462e-08
6.75812e-09
-2.35908e-08
6.68703e-09
-2.62074e-08
6.57541e-09
-2.87835e-08
6.4367e-09
-3.13099e-08
6.28094e-09
-3.37797e-08
6.1153e-09
-3.61883e-08
5.94451e-09
-3.85323e-08
5.77142e-09
-4.08094e-08
5.59742e-09
-4.30178e-08
5.42291e-09
-4.51559e-08
5.24767e-09
-4.72225e-08
5.07112e-09
-4.9216e-08
4.89251e-09
-5.11348e-08
4.7111e-09
-5.29771e-08
4.52619e-09
-5.47412e-08
4.33718e-09
-5.64249e-08
4.14357e-09
-5.80262e-08
3.94496e-09
-5.95428e-08
3.74106e-09
-6.09724e-08
3.53163e-09
-6.23129e-08
3.31654e-09
-6.35617e-08
3.09569e-09
-6.47167e-08
2.86904e-09
-6.57755e-08
2.63658e-09
-6.67358e-08
2.39835e-09
-6.75955e-08
2.15442e-09
-6.83523e-08
1.90489e-09
-6.90041e-08
1.64988e-09
-6.95488e-08
1.38955e-09
-6.99846e-08
1.12407e-09
-7.03095e-08
8.53652e-10
-7.05218e-08
5.78516e-10
-7.06198e-08
2.98976e-10
-7.06019e-08
1.5099e-11
-7.04667e-08
-2.7231e-10
-7.02129e-08
-5.63514e-10
-6.98394e-08
-8.57932e-10
-6.93452e-08
-1.15518e-09
-6.87296e-08
-1.45488e-09
-6.79917e-08
-1.75661e-09
-6.71313e-08
-2.05996e-09
-6.61479e-08
-2.36451e-09
-6.50414e-08
-2.66984e-09
-6.38119e-08
-2.97554e-09
-6.24596e-08
-3.28123e-09
-6.09848e-08
-3.58657e-09
-5.93881e-08
-3.89125e-09
-5.76701e-08
-4.19505e-09
-5.58317e-08
-4.49782e-09
-5.38736e-08
-4.79947e-09
-5.17969e-08
-5.09998e-09
-4.96031e-08
-5.39929e-09
-4.72936e-08
-5.69729e-09
-4.48707e-08
-5.99358e-09
-4.23371e-08
-6.28728e-09
-3.96968e-08
-6.57676e-09
-3.69553e-08
-6.85921e-09
-3.41199e-08
-7.13028e-09
-3.12004e-08
-7.38362e-09
-2.82098e-08
-7.61046e-09
-2.51643e-08
-7.79917e-09
-2.20842e-08
-7.9348e-09
-1.89944e-08
-7.99836e-09
-1.5925e-08
-7.96559e-09
-1.29125e-08
-7.80485e-09
-1.00011e-08
-7.47338e-09
-7.24479e-09
-6.91072e-09
-4.71067e-09
-6.02952e-09
-2.4909e-09
-4.71494e-09
-7.72437e-10
-2.85353e-09
-6.07394e-10
-9.73103e-10
1.09526e-09
-2.77206e-09
3.79219e-09
-4.85674e-09
5.7409e-09
-7.10456e-09
7.09956e-09
-9.48072e-09
8.04255e-09
-1.19612e-08
8.67896e-09
-1.45222e-08
9.08694e-09
-1.71408e-08
9.32226e-09
-1.97957e-08
9.42601e-09
-2.24672e-08
9.42964e-09
-2.51381e-08
9.35789e-09
-2.77932e-08
9.2305e-09
-3.04196e-08
9.06317e-09
-3.30068e-08
8.86814e-09
-3.55461e-08
8.65459e-09
-3.80307e-08
8.42908e-09
-4.04552e-08
8.19595e-09
-4.28156e-08
7.95777e-09
-4.51085e-08
7.71578e-09
-4.73311e-08
7.47031e-09
-4.94811e-08
7.22112e-09
-5.15562e-08
6.96764e-09
-5.35543e-08
6.70917e-09
-5.54731e-08
6.44501e-09
-5.73105e-08
6.1745e-09
-5.9064e-08
5.89711e-09
-6.07314e-08
5.61236e-09
-6.23103e-08
5.31993e-09
-6.37982e-08
5.01956e-09
-6.51927e-08
4.71108e-09
-6.64914e-08
4.3944e-09
-6.76919e-08
4.0695e-09
-6.87917e-08
3.73639e-09
-6.97885e-08
3.39516e-09
-7.068e-08
3.04592e-09
-7.1464e-08
2.68882e-09
-7.21382e-08
2.32407e-09
-7.27005e-08
1.9519e-09
-7.3149e-08
1.57256e-09
-7.34817e-08
1.18637e-09
-7.36969e-08
7.93661e-10
-7.37927e-08
3.94814e-10
-7.37678e-08
-9.78761e-12
-7.36205e-08
-4.19647e-10
-7.33496e-08
-8.34403e-10
-7.2954e-08
-1.25352e-09
-7.24328e-08
-1.67645e-09
-7.1785e-08
-2.10263e-09
-7.10102e-08
-2.53147e-09
-7.01078e-08
-2.96237e-09
-6.90775e-08
-3.39472e-09
-6.79195e-08
-3.82791e-09
-6.66337e-08
-4.26134e-09
-6.52205e-08
-4.69442e-09
-6.36804e-08
-5.1266e-09
-6.20143e-08
-5.5574e-09
-6.0223e-08
-5.98638e-09
-5.83076e-08
-6.41315e-09
-5.62697e-08
-6.83738e-09
-5.4111e-08
-7.25869e-09
-5.18337e-08
-7.67661e-09
-4.94406e-08
-8.09043e-09
-4.69352e-08
-8.49897e-09
-4.43221e-08
-8.90034e-09
-4.16073e-08
-9.29155e-09
-3.87984e-08
-9.66817e-09
-3.59048e-08
-1.00239e-08
-3.29382e-08
-1.03502e-08
-2.99126e-08
-1.0636e-08
-2.68446e-08
-1.08672e-08
-2.3753e-08
-1.10264e-08
-2.06591e-08
-1.10922e-08
-1.75865e-08
-1.10382e-08
-1.45609e-08
-1.08305e-08
-1.16096e-08
-1.04247e-08
-8.76079e-09
-9.75953e-09
-6.04316e-09
-8.74715e-09
-3.49734e-09
-7.26076e-09
-1.26768e-09
-5.08318e-09
-1.87508e-09
-1.28132e-09
2.37658e-09
-3.38829e-09
5.89916e-09
-5.68907e-09
8.04167e-09
-8.07071e-09
9.4812e-09
-1.0518e-08
1.04898e-08
-1.30264e-08
1.11874e-08
-1.55888e-08
1.16493e-08
-1.81947e-08
1.19281e-08
-2.08315e-08
1.20628e-08
-2.34859e-08
1.20841e-08
-2.61447e-08
1.20167e-08
-2.87951e-08
1.18808e-08
-3.14251e-08
1.16932e-08
-3.40241e-08
1.14671e-08
-3.65828e-08
1.12133e-08
-3.90933e-08
1.09396e-08
-4.15491e-08
1.06518e-08
-4.39447e-08
1.03534e-08
-4.62757e-08
1.00468e-08
-4.85382e-08
9.73284e-09
-5.0729e-08
9.41192e-09
-5.28452e-08
9.08377e-09
-5.48839e-08
8.74789e-09
-5.68426e-08
8.40369e-09
-5.87187e-08
8.05057e-09
-6.05096e-08
7.688e-09
-6.22127e-08
7.31552e-09
-6.38256e-08
6.9328e-09
-6.53456e-08
6.53958e-09
-6.67702e-08
6.13571e-09
-6.8097e-08
5.72111e-09
-6.93232e-08
5.29578e-09
-7.04466e-08
4.85978e-09
-7.14647e-08
4.41324e-09
-7.23751e-08
3.95632e-09
-7.31755e-08
3.48924e-09
-7.38638e-08
3.01229e-09
-7.44376e-08
2.52577e-09
-7.48951e-08
2.03004e-09
-7.52342e-08
1.5255e-09
-7.54532e-08
1.0126e-09
-7.55502e-08
4.91841e-10
-7.55237e-08
-3.62553e-11
-7.53723e-08
-5.71111e-10
-7.50945e-08
-1.11213e-09
-7.46894e-08
-1.65865e-09
-7.41559e-08
-2.20996e-09
-7.34932e-08
-2.76532e-09
-7.27007e-08
-3.32396e-09
-7.1778e-08
-3.88508e-09
-7.07248e-08
-4.44787e-09
-6.95413e-08
-5.01149e-09
-6.82275e-08
-5.57514e-09
-6.67839e-08
-6.13799e-09
-6.52112e-08
-6.69926e-09
-6.35104e-08
-7.25821e-09
-6.16827e-08
-7.81412e-09
-5.97296e-08
-8.36627e-09
-5.7653e-08
-8.91394e-09
-5.54554e-08
-9.45629e-09
-5.31398e-08
-9.99223e-09
-5.07099e-08
-1.05203e-08
-4.81706e-08
-1.10384e-08
-4.55276e-08
-1.15433e-08
-4.27882e-08
-1.20309e-08
-3.99614e-08
-1.2495e-08
-3.70576e-08
-1.29277e-08
-3.40891e-08
-1.33188e-08
-3.10696e-08
-1.36555e-08
-2.80144e-08
-1.39224e-08
-2.49397e-08
-1.41011e-08
-2.18623e-08
-1.41697e-08
-1.87989e-08
-1.41015e-08
-1.57655e-08
-1.38639e-08
-1.2776e-08
-1.34143e-08
-9.84071e-09
-1.26948e-08
-6.9674e-09
-1.16205e-08
-4.17667e-09
-1.00515e-08
-1.60409e-09
-7.65576e-09
-3.47917e-09
-1.47804e-09
3.85462e-09
-3.79041e-09
8.21153e-09
-6.2539e-09
1.05052e-08
-8.75132e-09
1.19786e-08
-1.12712e-08
1.30097e-08
-1.38176e-08
1.37338e-08
-1.63926e-08
1.42244e-08
-1.89945e-08
1.45299e-08
-2.16178e-08
1.46861e-08
-2.42549e-08
1.47212e-08
-2.68964e-08
1.46582e-08
-2.95324e-08
1.45168e-08
-3.21526e-08
1.43134e-08
-3.47474e-08
1.40619e-08
-3.73077e-08
1.37735e-08
-3.98251e-08
1.34571e-08
-4.22926e-08
1.31193e-08
-4.4704e-08
1.27647e-08
-4.70538e-08
1.23966e-08
-4.93376e-08
1.20166e-08
-5.15514e-08
1.16257e-08
-5.36916e-08
1.12239e-08
-5.57549e-08
1.08112e-08
-5.77383e-08
1.03871e-08
-5.9639e-08
9.95123e-09
-6.14541e-08
9.50305e-09
-6.31808e-08
9.04222e-09
-6.48164e-08
8.56843e-09
-6.63583e-08
8.08145e-09
-6.78037e-08
7.58116e-09
-6.91501e-08
7.06752e-09
-7.03949e-08
6.54058e-09
-7.15356e-08
6.00043e-09
-7.25696e-08
5.44726e-09
-7.34946e-08
4.8813e-09
-7.43082e-08
4.30284e-09
-7.50081e-08
3.71223e-09
-7.55922e-08
3.10986e-09
-7.60584e-08
2.4962e-09
-7.64046e-08
1.87174e-09
-7.66291e-08
1.23705e-09
-7.673e-08
5.92732e-10
-7.67057e-08
-6.05465e-11
-7.65547e-08
-7.22072e-10
-7.62758e-08
-1.39109e-09
-7.58677e-08
-2.06676e-09
-7.53294e-08
-2.74822e-09
-7.46602e-08
-3.43455e-09
-7.38594e-08
-4.12477e-09
-7.29266e-08
-4.81788e-09
-7.18616e-08
-5.51285e-09
-7.06645e-08
-6.20862e-09
-6.93355e-08
-6.90413e-09
-6.78752e-08
-7.59831e-09
-6.62843e-08
-8.29009e-09
-6.45641e-08
-8.97841e-09
-6.27161e-08
-9.6622e-09
-6.0742e-08
-1.03404e-08
-5.86443e-08
-1.10116e-08
-5.6426e-08
-1.16746e-08
-5.40907e-08
-1.23275e-08
-5.16431e-08
-1.29679e-08
-4.90886e-08
-1.35928e-08
-4.64342e-08
-1.41978e-08
-4.36877e-08
-1.47773e-08
-4.08588e-08
-1.5324e-08
-3.7958e-08
-1.58285e-08
-3.49974e-08
-1.62794e-08
-3.19895e-08
-1.66633e-08
-2.89477e-08
-1.69642e-08
-2.5885e-08
-1.71638e-08
-2.28138e-08
-1.72409e-08
-1.97448e-08
-1.71705e-08
-1.66864e-08
-1.69223e-08
-1.36431e-08
-1.64575e-08
-1.06156e-08
-1.57223e-08
-7.60277e-09
-1.46333e-08
-4.62278e-09
-1.30315e-08
-1.81833e-09
-1.04602e-08
-5.2975e-09
-1.59672e-09
5.45133e-09
-4.04495e-09
1.06598e-08
-6.63072e-09
1.30909e-08
-9.22724e-09
1.45751e-08
-1.18194e-08
1.56018e-08
-1.44126e-08
1.6327e-08
-1.70134e-08
1.68252e-08
-1.9625e-08
1.71415e-08
-2.2247e-08
1.73082e-08
-2.48761e-08
1.73503e-08
-2.75066e-08
1.72887e-08
-3.01312e-08
1.71414e-08
-3.27418e-08
1.69241e-08
-3.533e-08
1.66501e-08
-3.78872e-08
1.63308e-08
-4.04057e-08
1.59755e-08
-4.28779e-08
1.55915e-08
-4.52975e-08
1.51843e-08
-4.76585e-08
1.47576e-08
-4.99559e-08
1.4314e-08
-5.21851e-08
1.38549e-08
-5.43422e-08
1.33809e-08
-5.64233e-08
1.28923e-08
-5.84251e-08
1.2389e-08
-6.03445e-08
1.18706e-08
-6.21783e-08
1.13369e-08
-6.39236e-08
1.07876e-08
-6.55776e-08
1.02224e-08
-6.71374e-08
9.64122e-09
-6.86002e-08
9.04399e-09
-6.99634e-08
8.4307e-09
-7.12242e-08
7.80145e-09
-7.23802e-08
7.1564e-09
-7.34287e-08
6.49578e-09
-7.43673e-08
5.81991e-09
-7.51936e-08
5.12913e-09
-7.59053e-08
4.42389e-09
-7.65001e-08
3.70467e-09
-7.69759e-08
2.97201e-09
-7.73307e-08
2.22652e-09
-7.75625e-08
1.46889e-09
-7.76696e-08
6.99823e-10
-7.76503e-08
-7.9869e-11
-7.75031e-08
-8.69332e-10
-7.72265e-08
-1.66765e-09
-7.68194e-08
-2.47383e-09
-7.62808e-08
-3.28682e-09
-7.56099e-08
-4.10551e-09
-7.48059e-08
-4.92873e-09
-7.38686e-08
-5.75526e-09
-7.27976e-08
-6.58383e-09
-7.15931e-08
-7.41315e-09
-7.02553e-08
-8.24187e-09
-6.8785e-08
-9.06864e-09
-6.7183e-08
-9.89208e-09
-6.54506e-08
-1.07107e-08
-6.35897e-08
-1.15232e-08
-6.16022e-08
-1.23278e-08
-5.94911e-08
-1.31227e-08
-5.72598e-08
-1.3906e-08
-5.49124e-08
-1.46749e-08
-5.24541e-08
-1.54262e-08
-4.9891e-08
-1.61559e-08
-4.72305e-08
-1.68584e-08
-4.44808e-08
-1.7527e-08
-4.16515e-08
-1.81532e-08
-3.8753e-08
-1.87269e-08
-3.57963e-08
-1.92361e-08
-3.27928e-08
-1.96669e-08
-2.97533e-08
-2.00037e-08
-2.66879e-08
-2.02291e-08
-2.36053e-08
-2.03235e-08
-2.05116e-08
-2.02642e-08
-1.74099e-08
-2.00241e-08
-1.42995e-08
-1.95679e-08
-1.11767e-08
-1.88451e-08
-8.03981e-09
-1.77701e-08
-4.91234e-09
-1.6159e-08
-1.9498e-09
-1.34228e-08
-7.2473e-09
-1.66249e-09
7.11382e-09
-4.19838e-09
1.31956e-08
-6.87547e-09
1.5768e-08
-9.55579e-09
1.72555e-08
-1.22172e-08
1.82632e-08
-1.48628e-08
1.89726e-08
-1.74998e-08
1.94622e-08
-2.01339e-08
1.97756e-08
-2.27676e-08
1.99419e-08
-2.54007e-08
1.99834e-08
-2.80303e-08
1.99183e-08
-3.06517e-08
1.97627e-08
-3.32585e-08
1.95309e-08
-3.58437e-08
1.92353e-08
-3.84e-08
1.88871e-08
-4.092e-08
1.84954e-08
-4.33964e-08
1.8068e-08
-4.58229e-08
1.76107e-08
-4.81932e-08
1.7128e-08
-5.0502e-08
1.66228e-08
-5.27443e-08
1.60973e-08
-5.49159e-08
1.55525e-08
-5.70126e-08
1.49891e-08
-5.90308e-08
1.44072e-08
-6.09671e-08
1.38068e-08
-6.2818e-08
1.31878e-08
-6.45806e-08
1.25501e-08
-6.62518e-08
1.18936e-08
-6.78286e-08
1.1218e-08
-6.93082e-08
1.05236e-08
-7.06878e-08
9.81028e-09
-7.19646e-08
9.07828e-09
-7.3136e-08
8.32781e-09
-7.41994e-08
7.55918e-09
-7.51523e-08
6.77276e-09
-7.59921e-08
5.96899e-09
-7.67166e-08
5.14838e-09
-7.73235e-08
4.3115e-09
-7.78105e-08
3.459e-09
-7.81755e-08
2.59159e-09
-7.84167e-08
1.71006e-09
-7.85321e-08
8.1525e-10
-7.85201e-08
-9.19058e-11
-7.8379e-08
-1.01041e-09
-7.81075e-08
-1.93918e-09
-7.77043e-08
-2.87707e-09
-7.71682e-08
-3.82283e-09
-7.64986e-08
-4.77518e-09
-7.56946e-08
-5.73272e-09
-7.47558e-08
-6.69401e-09
-7.36821e-08
-7.65755e-09
-7.24735e-08
-8.62176e-09
-7.11303e-08
-9.58502e-09
-6.96533e-08
-1.05456e-08
-6.80435e-08
-1.15019e-08
-6.63023e-08
-1.2452e-08
-6.44316e-08
-1.33939e-08
-6.24338e-08
-1.43255e-08
-6.03121e-08
-1.52445e-08
-5.80701e-08
-1.6148e-08
-5.57124e-08
-1.70326e-08
-5.32446e-08
-1.78941e-08
-5.0673e-08
-1.87274e-08
-4.80052e-08
-1.95262e-08
-4.52494e-08
-2.02827e-08
-4.2415e-08
-2.09877e-08
-3.95117e-08
-2.16303e-08
-3.65493e-08
-2.21984e-08
-3.35378e-08
-2.26785e-08
-3.04858e-08
-2.30556e-08
-2.74011e-08
-2.33138e-08
-2.42893e-08
-2.34354e-08
-2.11533e-08
-2.34002e-08
-1.79933e-08
-2.31841e-08
-1.48063e-08
-2.27549e-08
-1.15885e-08
-2.2063e-08
-8.34144e-09
-2.10172e-08
-5.09758e-09
-1.94028e-08
-2.0266e-09
-1.64937e-08
-9.2739e-09
-1.69303e-09
8.80685e-09
-4.28303e-09
1.57856e-08
-7.02798e-09
1.8513e-08
-9.77874e-09
2.00062e-08
-1.25051e-08
2.09896e-08
-1.52058e-08
2.16733e-08
-1.78865e-08
2.21429e-08
-2.05533e-08
2.24424e-08
-2.32104e-08
2.25989e-08
-2.58591e-08
2.26321e-08
-2.84988e-08
2.2558e-08
-3.11265e-08
2.23905e-08
-3.37378e-08
2.21421e-08
-3.63269e-08
2.18244e-08
-3.88875e-08
2.14477e-08
-4.14129e-08
2.10209e-08
-4.38965e-08
2.05516e-08
-4.63318e-08
2.0046e-08
-4.87128e-08
1.9509e-08
-5.10339e-08
1.89439e-08
-5.32901e-08
1.83535e-08
-5.54767e-08
1.77391e-08
-5.75895e-08
1.71018e-08
-5.96244e-08
1.64422e-08
-6.1578e-08
1.57603e-08
-6.34466e-08
1.50565e-08
-6.5227e-08
1.43306e-08
-6.69161e-08
1.35826e-08
-6.85108e-08
1.28127e-08
-7.0008e-08
1.20209e-08
-7.14051e-08
1.12073e-08
-7.2699e-08
1.03722e-08
-7.38871e-08
9.51594e-09
-7.49668e-08
8.63883e-09
-7.59354e-08
7.74134e-09
-7.67904e-08
6.82399e-09
-7.75294e-08
5.88737e-09
-7.815e-08
4.93214e-09
-7.865e-08
3.95904e-09
-7.90273e-08
2.96888e-09
-7.92798e-08
1.96256e-09
-7.94056e-08
9.41061e-10
-7.9403e-08
-9.45701e-11
-7.92702e-08
-1.14319e-09
-7.90058e-08
-2.20355e-09
-7.86085e-08
-3.27435e-09
-7.80772e-08
-4.35415e-09
-7.74109e-08
-5.44147e-09
-7.66089e-08
-6.53471e-09
-7.56708e-08
-7.63217e-09
-7.45962e-08
-8.73211e-09
-7.33853e-08
-9.83267e-09
-7.20384e-08
-1.09319e-08
-7.05563e-08
-1.20278e-08
-6.89399e-08
-1.31183e-08
-6.71909e-08
-1.4201e-08
-6.53112e-08
-1.52735e-08
-6.33036e-08
-1.63332e-08
-6.11711e-08
-1.73769e-08
-5.89179e-08
-1.84012e-08
-5.65486e-08
-1.94018e-08
-5.4069e-08
-2.03737e-08
-5.14856e-08
-2.13109e-08
-4.88057e-08
-2.22061e-08
-4.60376e-08
-2.30508e-08
-4.319e-08
-2.38353e-08
-4.02718e-08
-2.45485e-08
-3.72919e-08
-2.51783e-08
-3.42586e-08
-2.57118e-08
-3.1179e-08
-2.61352e-08
-2.80588e-08
-2.6434e-08
-2.49017e-08
-2.65925e-08
-2.17087e-08
-2.65931e-08
-1.84789e-08
-2.6414e-08
-1.52092e-08
-2.60245e-08
-1.18979e-08
-2.53743e-08
-8.5523e-09
-2.43628e-08
-5.21458e-09
-2.27405e-08
-2.06827e-09
-1.96401e-08
-1.13422e-08
-1.70089e-09
1.05077e-08
-4.32223e-09
1.8407e-08
-7.11761e-09
2.13083e-08
-9.92771e-09
2.28163e-08
-1.27142e-08
2.37761e-08
-1.54706e-08
2.44297e-08
-1.82e-08
2.48723e-08
-2.09075e-08
2.51499e-08
-2.35975e-08
2.52888e-08
-2.62723e-08
2.53069e-08
-2.89324e-08
2.52181e-08
-3.15764e-08
2.50345e-08
-3.42011e-08
2.47668e-08
-3.6802e-08
2.44253e-08
-3.93737e-08
2.40194e-08
-4.19104e-08
2.35575e-08
-4.44059e-08
2.3047e-08
-4.6854e-08
2.24942e-08
-4.9249e-08
2.1904e-08
-5.15854e-08
2.12803e-08
-5.38578e-08
2.06259e-08
-5.60616e-08
1.99429e-08
-5.81924e-08
1.92326e-08
-6.0246e-08
1.84958e-08
-6.22186e-08
1.7733e-08
-6.41067e-08
1.69445e-08
-6.59068e-08
1.61306e-08
-6.76155e-08
1.52914e-08
-6.92298e-08
1.4427e-08
-7.07467e-08
1.35377e-08
-7.2163e-08
1.26236e-08
-7.3476e-08
1.16852e-08
-7.46828e-08
1.07227e-08
-7.57807e-08
9.73672e-09
-7.6767e-08
8.72767e-09
-7.76392e-08
7.69618e-09
-7.83947e-08
6.64292e-09
-7.90312e-08
5.56864e-09
-7.95464e-08
4.47418e-09
-7.9938e-08
3.36045e-09
-8.02039e-08
2.22845e-09
-8.03421e-08
1.07928e-09
-8.03508e-08
-8.58698e-11
-8.02283e-08
-1.26572e-09
-7.99729e-08
-2.45889e-09
-7.95834e-08
-3.66387e-09
-7.90585e-08
-4.87908e-09
-7.83971e-08
-6.10281e-09
-7.75986e-08
-7.33323e-09
-7.66623e-08
-8.56844e-09
-7.55881e-08
-9.80639e-09
-7.43758e-08
-1.1045e-08
-7.30258e-08
-1.22819e-08
-7.15389e-08
-1.35147e-08
-6.99162e-08
-1.4741e-08
-6.81591e-08
-1.5958e-08
-6.62699e-08
-1.71627e-08
-6.42512e-08
-1.83519e-08
-6.21064e-08
-1.95218e-08
-5.98394e-08
-2.06681e-08
-5.74553e-08
-2.17859e-08
-5.49597e-08
-2.28693e-08
-5.23591e-08
-2.39115e-08
-4.96606e-08
-2.49045e-08
-4.68721e-08
-2.58393e-08
-4.40017e-08
-2.67057e-08
-4.10576e-08
-2.74926e-08
-3.80476e-08
-2.81883e-08
-3.49788e-08
-2.87806e-08
-3.18572e-08
-2.92569e-08
-2.86869e-08
-2.96042e-08
-2.54706e-08
-2.98088e-08
-2.22087e-08
-2.9855e-08
-1.89003e-08
-2.97225e-08
-1.55438e-08
-2.9381e-08
-1.2141e-08
-2.8777e-08
-8.70551e-09
-2.77983e-08
-5.28943e-09
-2.61566e-08
-2.08882e-09
-2.28407e-08
-1.3431e-08
-1.69531e-09
1.2203e-08
-4.33333e-09
2.1045e-08
-7.16667e-09
2.41417e-08
-1.00273e-08
2.56769e-08
-1.28693e-08
2.66181e-08
-1.5681e-08
2.72415e-08
-1.84622e-08
2.76535e-08
-2.12162e-08
2.79039e-08
-2.39467e-08
2.80193e-08
-2.66563e-08
2.80166e-08
-2.93462e-08
2.7908e-08
-3.20157e-08
2.7704e-08
-3.46627e-08
2.74137e-08
-3.72835e-08
2.70462e-08
-3.98738e-08
2.66097e-08
-4.24284e-08
2.61121e-08
-4.49416e-08
2.55603e-08
-4.74078e-08
2.49604e-08
-4.98213e-08
2.43175e-08
-5.21768e-08
2.36357e-08
-5.44691e-08
2.29182e-08
-5.66933e-08
2.21672e-08
-5.88451e-08
2.13844e-08
-6.09202e-08
2.05709e-08
-6.29147e-08
1.97275e-08
-6.48248e-08
1.88547e-08
-6.6647e-08
1.79529e-08
-6.8378e-08
1.70224e-08
-7.00145e-08
1.60635e-08
-7.15533e-08
1.50765e-08
-7.29914e-08
1.40617e-08
-7.43258e-08
1.30196e-08
-7.55537e-08
1.19506e-08
-7.66722e-08
1.08553e-08
-7.76787e-08
9.73413e-09
-7.85704e-08
8.58792e-09
-7.93448e-08
7.41737e-09
-7.99995e-08
6.22332e-09
-8.0532e-08
5.00669e-09
-8.09401e-08
3.76851e-09
-8.12215e-08
2.50987e-09
-8.13742e-08
1.23199e-09
-8.13963e-08
-6.38258e-11
-8.12858e-08
-1.37614e-09
-8.10413e-08
-2.70343e-09
-8.06612e-08
-4.04402e-09
-8.01441e-08
-5.39613e-09
-7.94891e-08
-6.75786e-09
-7.86951e-08
-8.12717e-09
-7.77617e-08
-9.50189e-09
-7.66884e-08
-1.08797e-08
-7.54751e-08
-1.22582e-08
-7.41222e-08
-1.36348e-08
-7.26304e-08
-1.50066e-08
-7.10006e-08
-1.63708e-08
-6.92345e-08
-1.77241e-08
-6.73342e-08
-1.90631e-08
-6.53024e-08
-2.03837e-08
-6.31424e-08
-2.16818e-08
-6.08583e-08
-2.29522e-08
-5.8455e-08
-2.41892e-08
-5.5938e-08
-2.53863e-08
-5.33137e-08
-2.65359e-08
-5.0589e-08
-2.76293e-08
-4.77712e-08
-2.86571e-08
-4.48679e-08
-2.9609e-08
-4.18866e-08
-3.04739e-08
-3.88342e-08
-3.12406e-08
-3.57171e-08
-3.18978e-08
-3.25401e-08
-3.24338e-08
-2.9307e-08
-3.28373e-08
-2.60198e-08
-3.3096e-08
-2.26792e-08
-3.31956e-08
-1.92853e-08
-3.31165e-08
-1.58389e-08
-3.28274e-08
-1.23459e-08
-3.227e-08
-8.82643e-09
-3.13177e-08
-5.34158e-09
-2.96415e-08
-2.09851e-09
-2.60837e-08
-1.55295e-08
-1.68312e-09
1.38862e-08
-4.32934e-09
2.36912e-08
-7.19231e-09
2.70046e-08
-1.00968e-08
2.85814e-08
-1.29905e-08
2.95118e-08
-1.58565e-08
3.01075e-08
-1.86913e-08
3.04883e-08
-2.1496e-08
3.07086e-08
-2.42731e-08
3.07964e-08
-2.70249e-08
3.07684e-08
-2.97525e-08
3.06357e-08
-3.24559e-08
3.04073e-08
-3.51333e-08
3.00912e-08
-3.77821e-08
2.9695e-08
-4.03985e-08
2.9226e-08
-4.29778e-08
2.86914e-08
-4.5515e-08
2.80975e-08
-4.80049e-08
2.74503e-08
-5.04421e-08
2.67547e-08
-5.28214e-08
2.6015e-08
-5.51378e-08
2.52346e-08
-5.73865e-08
2.44159e-08
-5.9563e-08
2.35608e-08
-6.16631e-08
2.26709e-08
-6.36826e-08
2.1747e-08
-6.5618e-08
2.079e-08
-6.74655e-08
1.98003e-08
-6.92217e-08
1.87785e-08
-7.08832e-08
1.7725e-08
-7.24468e-08
1.66401e-08
-7.39095e-08
1.55244e-08
-7.52682e-08
1.43783e-08
-7.65199e-08
1.32023e-08
-7.76617e-08
1.19971e-08
-7.8691e-08
1.07634e-08
-7.96048e-08
9.50179e-09
-8.04007e-08
8.21324e-09
-8.1076e-08
6.89863e-09
-8.16283e-08
5.55898e-09
-8.20552e-08
4.19537e-09
-8.23543e-08
2.80904e-09
-8.25237e-08
1.4013e-09
-8.25611e-08
-2.64187e-11
-8.24647e-08
-1.47256e-09
-8.22327e-08
-2.93542e-09
-8.18635e-08
-4.41318e-09
-8.13557e-08
-5.90389e-09
-8.07082e-08
-7.40543e-09
-7.99198e-08
-8.91553e-09
-7.89899e-08
-1.04318e-08
-7.7918e-08
-1.19516e-08
-7.67039e-08
-1.34723e-08
-7.53479e-08
-1.49908e-08
-7.38505e-08
-1.6504e-08
-7.22127e-08
-1.80086e-08
-7.0436e-08
-1.95008e-08
-6.85226e-08
-2.09765e-08
-6.64749e-08
-2.24314e-08
-6.42964e-08
-2.38603e-08
-6.19911e-08
-2.52576e-08
-5.95635e-08
-2.66168e-08
-5.70193e-08
-2.79306e-08
-5.43643e-08
-2.91908e-08
-5.16053e-08
-3.03883e-08
-4.87491e-08
-3.15133e-08
-4.58028e-08
-3.25552e-08
-4.27733e-08
-3.35034e-08
-3.9667e-08
-3.43469e-08
-3.64896e-08
-3.50752e-08
-3.32455e-08
-3.56779e-08
-2.99382e-08
-3.61446e-08
-2.65701e-08
-3.64642e-08
-2.31426e-08
-3.66231e-08
-1.96573e-08
-3.66017e-08
-1.61182e-08
-3.63666e-08
-1.25353e-08
-3.5853e-08
-8.93476e-09
-3.49182e-08
-5.38571e-09
-3.31905e-08
-2.10478e-09
-2.93647e-08
-1.76343e-08
-1.66921e-09
1.55554e-08
-4.31992e-09
2.63419e-08
-7.20773e-09
2.98924e-08
-1.01517e-08
3.15253e-08
-1.30939e-08
3.24541e-08
-1.60133e-08
3.30269e-08
-1.89028e-08
3.33778e-08
-2.17612e-08
3.3567e-08
-2.45896e-08
3.36248e-08
-2.73895e-08
3.35683e-08
-3.01617e-08
3.34079e-08
-3.29062e-08
3.31518e-08
-3.56217e-08
3.28067e-08
-3.83059e-08
3.23792e-08
-4.09554e-08
3.18756e-08
-4.35663e-08
3.13023e-08
-4.6134e-08
3.06652e-08
-4.86535e-08
2.99698e-08
-5.11199e-08
2.92211e-08
-5.35281e-08
2.84233e-08
-5.58733e-08
2.75798e-08
-5.81508e-08
2.66934e-08
-6.03561e-08
2.57662e-08
-6.2485e-08
2.47998e-08
-6.45334e-08
2.37955e-08
-6.64976e-08
2.27541e-08
-6.83738e-08
2.16765e-08
-7.01585e-08
2.05632e-08
-7.18483e-08
1.94148e-08
-7.344e-08
1.82318e-08
-7.49303e-08
1.70147e-08
-7.63163e-08
1.57642e-08
-7.75947e-08
1.44808e-08
-7.87628e-08
1.31652e-08
-7.98177e-08
1.18182e-08
-8.07565e-08
1.04406e-08
-8.15765e-08
9.03325e-09
-8.22751e-08
7.59721e-09
-8.28496e-08
6.13357e-09
-8.32978e-08
4.6435e-09
-8.3617e-08
3.12831e-09
-8.38052e-08
1.58944e-09
-8.38601e-08
2.84486e-11
-8.37796e-08
-1.55301e-09
-8.35619e-08
-3.15308e-09
-8.32054e-08
-4.76978e-09
-8.27083e-08
-6.40097e-09
-8.20694e-08
-8.04434e-09
-8.12875e-08
-9.6974e-09
-8.03618e-08
-1.13575e-08
-7.92916e-08
-1.30218e-08
-7.80768e-08
-1.46871e-08
-7.67172e-08
-1.63503e-08
-7.52135e-08
-1.80078e-08
-7.35664e-08
-1.96556e-08
-7.17775e-08
-2.12897e-08
-6.98485e-08
-2.29055e-08
-6.77821e-08
-2.44978e-08
-6.55814e-08
-2.6061e-08
-6.32502e-08
-2.75887e-08
-6.07931e-08
-2.90738e-08
-5.82153e-08
-3.05084e-08
-5.55226e-08
-3.18835e-08
-5.27212e-08
-3.31897e-08
-4.98177e-08
-3.44168e-08
-4.68187e-08
-3.55543e-08
-4.37306e-08
-3.65914e-08
-4.05595e-08
-3.7518e-08
-3.73108e-08
-3.8324e-08
-3.3989e-08
-3.89998e-08
-3.05976e-08
-3.95359e-08
-2.71398e-08
-3.99221e-08
-2.36181e-08
-4.01448e-08
-2.00364e-08
-4.01834e-08
-1.64013e-08
-4.00016e-08
-1.27272e-08
-3.9527e-08
-9.04578e-09
-3.85997e-08
-5.43279e-09
-3.68035e-08
-2.11299e-09
-3.26845e-08
-1.97473e-08
-1.6569e-09
1.72123e-08
-4.31208e-09
2.89971e-08
-7.22287e-09
3.28032e-08
-1.02038e-08
3.45063e-08
-1.31928e-08
3.5443e-08
-1.61648e-08
3.59989e-08
-1.91097e-08
3.63227e-08
-2.20242e-08
3.64814e-08
-2.49076e-08
3.65082e-08
-2.77604e-08
3.64211e-08
-3.05829e-08
3.62305e-08
-3.33749e-08
3.59437e-08
-3.61351e-08
3.55669e-08
-3.88614e-08
3.51055e-08
-4.15509e-08
3.45651e-08
-4.41999e-08
3.39513e-08
-4.68042e-08
3.32695e-08
-4.93593e-08
3.25249e-08
-5.18604e-08
3.17222e-08
-5.43028e-08
3.08656e-08
-5.66817e-08
2.99587e-08
-5.89926e-08
2.90043e-08
-6.12311e-08
2.80047e-08
-6.3393e-08
2.69617e-08
-6.54742e-08
2.58767e-08
-6.7471e-08
2.47509e-08
-6.93795e-08
2.35851e-08
-7.11963e-08
2.238e-08
-7.29179e-08
2.11364e-08
-7.4541e-08
1.98549e-08
-7.60624e-08
1.85361e-08
-7.74788e-08
1.71806e-08
-7.87872e-08
1.57892e-08
-7.99846e-08
1.43626e-08
-8.10681e-08
1.29017e-08
-8.20347e-08
1.14072e-08
-8.28817e-08
9.88024e-09
-8.36063e-08
8.32183e-09
-8.42059e-08
6.73314e-09
-8.46778e-08
5.11544e-09
-8.50197e-08
3.47014e-09
-8.5229e-08
1.79875e-09
-8.53035e-08
1.02967e-10
-8.5241e-08
-1.61548e-09
-8.50396e-08
-3.35454e-09
-8.46972e-08
-5.11212e-09
-8.42123e-08
-6.88589e-09
-8.35833e-08
-8.67335e-09
-8.28089e-08
-1.04718e-08
-8.1888e-08
-1.22783e-08
-8.082e-08
-1.40898e-08
-7.96043e-08
-1.59028e-08
-7.82409e-08
-1.77138e-08
-7.67299e-08
-1.95187e-08
-7.50723e-08
-2.13133e-08
-7.32691e-08
-2.30929e-08
-7.13222e-08
-2.48524e-08
-6.92339e-08
-2.65861e-08
-6.70071e-08
-2.82877e-08
-6.46456e-08
-2.99502e-08
-6.21536e-08
-3.15658e-08
-5.95361e-08
-3.31259e-08
-5.67986e-08
-3.46211e-08
-5.39469e-08
-3.60414e-08
-5.09874e-08
-3.73763e-08
-4.79264e-08
-3.86153e-08
-4.47701e-08
-3.97478e-08
-4.15243e-08
-4.07638e-08
-3.81944e-08
-4.16539e-08
-3.47852e-08
-4.2409e-08
-3.13008e-08
-4.30203e-08
-2.77452e-08
-4.34776e-08
-2.41227e-08
-4.37672e-08
-2.04391e-08
-4.3867e-08
-1.67043e-08
-4.37365e-08
-1.29361e-08
-4.32952e-08
-9.17114e-09
-4.23647e-08
-5.49077e-09
-4.04839e-08
-2.12676e-09
-3.60485e-08
-2.1874e-08
-1.6483e-09
1.88606e-08
-4.3106e-09
3.16594e-08
-7.24492e-09
3.57376e-08
-1.02624e-08
3.75237e-08
-1.32973e-08
3.8478e-08
-1.63217e-08
3.90233e-08
-1.93228e-08
3.93238e-08
-2.22952e-08
3.94537e-08
-2.52365e-08
3.94496e-08
-2.81463e-08
3.93308e-08
-3.1024e-08
3.91081e-08
-3.38689e-08
3.87886e-08
-3.66796e-08
3.83776e-08
-3.94542e-08
3.78801e-08
-4.21898e-08
3.73007e-08
-4.48831e-08
3.66445e-08
-4.753e-08
3.59164e-08
-5.01264e-08
3.51212e-08
-5.26677e-08
3.42635e-08
-5.51494e-08
3.33474e-08
-5.7567e-08
3.23763e-08
-5.99161e-08
3.13533e-08
-6.21923e-08
3.02808e-08
-6.43914e-08
2.91608e-08
-6.65096e-08
2.79949e-08
-6.85429e-08
2.67842e-08
-7.04877e-08
2.55298e-08
-7.23403e-08
2.42326e-08
-7.40973e-08
2.28934e-08
-7.57553e-08
2.15129e-08
-7.73111e-08
2.00918e-08
-7.87613e-08
1.86309e-08
-8.0103e-08
1.71308e-08
-8.13329e-08
1.55925e-08
-8.24481e-08
1.40169e-08
-8.34456e-08
1.24047e-08
-8.43226e-08
1.07572e-08
-8.50761e-08
9.07535e-09
-8.57034e-08
7.36048e-09
-8.62019e-08
5.6139e-09
-8.65689e-08
3.8371e-09
-8.68018e-08
2.03169e-09
-8.68983e-08
1.99426e-10
-8.6856e-08
-1.65778e-09
-8.66727e-08
-3.53782e-09
-8.63464e-08
-5.43841e-09
-8.58752e-08
-7.35709e-09
-8.52574e-08
-9.29115e-09
-8.44915e-08
-1.12377e-08
-8.35763e-08