/*--------------------------------*- C++ -*----------------------------------*\
  =========                 |
  \\      /  F ield         | OpenFOAM: The Open Source CFD Toolbox
   \\    /   O peration     | Website:  https://openfoam.org
    \\  /    A nd           | Version:  13
     \\/     M anipulation  |
\*---------------------------------------------------------------------------*/
FoamFile
{
    format      ascii;
    class       volVectorField;
    location    "0.2";
    object      U;
}
// * * * * * * * * * * * * * * * * * * * * * * * * * * * * * * * * * * * * * //

dimensions      [0 1 -1 0 0 0 0];

internalField   nonuniform List<vector> 
6400
(
(1.9758e-05 -1.97818e-05 0)
(4.22656e-05 -1.20542e-05 0)
(2.03315e-05 4.21256e-06 0)
(-4.25674e-05 1.84656e-05 0)
(-0.000135063 2.86195e-05 0)
(-0.000245747 3.4745e-05 0)
(-0.000367607 3.79548e-05 0)
(-0.000495379 3.91943e-05 0)
(-0.000625372 3.91482e-05 0)
(-0.000755072 3.83135e-05 0)
(-0.000882833 3.70454e-05 0)
(-0.00100765 3.55884e-05 0)
(-0.00112897 3.41006e-05 0)
(-0.00124657 3.2674e-05 0)
(-0.00136039 3.13527e-05 0)
(-0.00147053 3.01492e-05 0)
(-0.00157709 2.90565e-05 0)
(-0.0016802 2.80583e-05 0)
(-0.00178 2.71345e-05 0)
(-0.00187655 2.62653e-05 0)
(-0.00196991 2.54325e-05 0)
(-0.00206011 2.46211e-05 0)
(-0.00214713 2.38184e-05 0)
(-0.00223096 2.30143e-05 0)
(-0.00231153 2.22008e-05 0)
(-0.00238879 2.13714e-05 0)
(-0.00246264 2.05213e-05 0)
(-0.00253302 1.96464e-05 0)
(-0.0025998 1.87434e-05 0)
(-0.0026629 1.781e-05 0)
(-0.00272221 1.6844e-05 0)
(-0.00277762 1.58439e-05 0)
(-0.00282902 1.48083e-05 0)
(-0.00287629 1.37363e-05 0)
(-0.00291933 1.26272e-05 0)
(-0.00295801 1.14803e-05 0)
(-0.00299224 1.02954e-05 0)
(-0.0030219 9.07243e-06 0)
(-0.00304688 7.8106e-06 0)
(-0.00306708 6.50731e-06 0)
(-0.00308241 5.15909e-06 0)
(-0.00309275 3.76726e-06 0)
(-0.00309792 2.40413e-06 0)
(-0.00309808 9.50734e-07 0)
(-0.00309292 -5.27848e-07 0)
(-0.00308245 -2.03842e-06 0)
(-0.00306658 -3.5779e-06 0)
(-0.00304525 -5.14533e-06 0)
(-0.0030184 -6.73912e-06 0)
(-0.00298598 -8.35742e-06 0)
(-0.00294794 -9.99825e-06 0)
(-0.00290425 -1.16597e-05 0)
(-0.00285489 -1.33398e-05 0)
(-0.00279982 -1.5037e-05 0)
(-0.00273903 -1.67501e-05 0)
(-0.00267251 -1.84786e-05 0)
(-0.00260026 -2.0223e-05 0)
(-0.00252226 -2.19852e-05 0)
(-0.00243851 -2.37691e-05 0)
(-0.00234897 -2.55804e-05 0)
(-0.00225363 -2.74272e-05 0)
(-0.00215244 -2.93202e-05 0)
(-0.00204533 -3.12738e-05 0)
(-0.00193223 -3.33041e-05 0)
(-0.00181306 -3.54251e-05 0)
(-0.00168774 -3.76452e-05 0)
(-0.00155623 -3.99591e-05 0)
(-0.00141859 -4.23375e-05 0)
(-0.00127502 -4.47131e-05 0)
(-0.00112599 -4.69641e-05 0)
(-0.000972318 -4.88958e-05 0)
(-0.00081536 -5.02205e-05 0)
(-0.000657178 -5.05483e-05 0)
(-0.000500786 -4.93556e-05 0)
(-0.000350415 -4.58861e-05 0)
(-0.000212071 -3.9098e-05 0)
(-9.41845e-05 -2.76353e-05 0)
(-7.97142e-06 -1.08425e-05 0)
(3.13435e-05 7.53132e-06 0)
(1.79108e-05 1.78957e-05 0)
(1.20939e-05 -4.23159e-05 0)
(-1.14199e-05 1.15107e-05 0)
(-9.70549e-05 8.69331e-05 0)
(-0.000225292 0.000145719 0)
(-0.000383463 0.000185382 0)
(-0.000560733 0.00021 0)
(-0.000750025 0.000224063 0)
(-0.00094628 0.000230792 0)
(-0.00114577 0.00023244 0)
(-0.00134575 0.000230637 0)
(-0.00154422 0.000226582 0)
(-0.00173975 0.000221156 0)
(-0.00193138 0.000214991 0)
(-0.00211848 0.000208517 0)
(-0.0023007 0.000202004 0)
(-0.00247783 0.000195599 0)
(-0.0026498 0.000189362 0)
(-0.00281659 0.000183296 0)
(-0.00297819 0.000177371 0)
(-0.00313461 0.000171541 0)
(-0.00328583 0.000165756 0)
(-0.00343181 0.000159967 0)
(-0.00357247 0.000154131 0)
(-0.00370773 0.000148212 0)
(-0.00383748 0.00014218 0)
(-0.0039616 0.000136012 0)
(-0.00407994 0.000129688 0)
(-0.00419235 0.000123196 0)
(-0.00429868 0.000116525 0)
(-0.00439876 0.000109667 0)
(-0.00449243 0.000102617 0)
(-0.00457951 9.53723e-05 0)
(-0.00465985 8.79303e-05 0)
(-0.00473326 8.02909e-05 0)
(-0.00479959 7.24551e-05 0)
(-0.00485867 6.44248e-05 0)
(-0.00491034 5.6203e-05 0)
(-0.00495445 4.77933e-05 0)
(-0.00499084 3.92005e-05 0)
(-0.00501936 3.04298e-05 0)
(-0.0050399 2.14849e-05 0)
(-0.0050523 1.23787e-05 0)
(-0.00505645 3.14676e-06 0)
(-0.00505222 -6.23646e-06 0)
(-0.00503951 -1.57741e-05 0)
(-0.00501824 -2.54359e-05 0)
(-0.00498831 -3.52083e-05 0)
(-0.00494964 -4.50791e-05 0)
(-0.00490219 -5.50354e-05 0)
(-0.00484588 -6.50642e-05 0)
(-0.0047807 -7.51521e-05 0)
(-0.00470661 -8.52857e-05 0)
(-0.00462359 -9.54523e-05 0)
(-0.00453166 -0.00010564 0)
(-0.0044308 -0.00011584 0)
(-0.00432105 -0.000126044 0)
(-0.00420242 -0.000136249 0)
(-0.00407494 -0.000146456 0)
(-0.00393865 -0.000156671 0)
(-0.00379358 -0.000166909 0)
(-0.00363976 -0.000177192 0)
(-0.00347721 -0.000187542 0)
(-0.00330597 -0.00019798 0)
(-0.00312608 -0.000208517 0)
(-0.00293761 -0.000219141 0)
(-0.00274071 -0.000229801 0)
(-0.00253562 -0.000240375 0)
(-0.00232273 -0.000250646 0)
(-0.00210266 -0.000260267 0)
(-0.00187635 -0.000268723 0)
(-0.0016451 -0.000275295 0)
(-0.0014107 -0.00027901 0)
(-0.00117557 -0.000278564 0)
(-0.000942893 -0.000272202 0)
(-0.000716963 -0.000257498 0)
(-0.000503479 -0.000230915 0)
(-0.000310417 -0.00018738 0)
(-0.000149676 -0.000121531 0)
(-3.62484e-05 -3.64377e-05 0)
(7.65203e-06 3.13417e-05 0)
(-4.23974e-06 -2.04821e-05 0)
(-8.68925e-05 9.71527e-05 0)
(-0.000215305 0.000215441 0)
(-0.000370996 0.000302407 0)
(-0.000547559 0.000361303 0)
(-0.000738233 0.000399146 0)
(-0.00093879 0.000421913 0)
(-0.00114594 0.000433844 0)
(-0.00135693 0.000437953 0)
(-0.00156953 0.000436458 0)
(-0.0017819 0.000431039 0)
(-0.00199261 0.000422976 0)
(-0.00220052 0.000413233 0)
(-0.00240477 0.000402515 0)
(-0.00260473 0.000391305 0)
(-0.00279994 0.000379912 0)
(-0.0029901 0.000368503 0)
(-0.00317498 0.000357149 0)
(-0.00335443 0.000345855 0)
(-0.00352833 0.000334583 0)
(-0.00369655 0.000323281 0)
(-0.00385898 0.000311887 0)
(-0.00401551 0.000300342 0)
(-0.00416599 0.000288593 0)
(-0.00431029 0.000276596 0)
(-0.00444824 0.000264315 0)
(-0.00457968 0.000251722 0)
(-0.00470444 0.000238794 0)
(-0.00482233 0.000225517 0)
(-0.00493318 0.000211878 0)
(-0.0050368 0.000197872 0)
(-0.00513299 0.000183493 0)
(-0.00522159 0.000168743 0)
(-0.00530239 0.000153621 0)
(-0.00537524 0.000138132 0)
(-0.00543993 0.000122282 0)
(-0.00549631 0.000106077 0)
(-0.00554421 8.95276e-05 0)
(-0.00558347 7.2644e-05 0)
(-0.00561393 5.54385e-05 0)
(-0.00563545 3.79255e-05 0)
(-0.00564789 2.01255e-05 0)
(-0.00565112 2.06391e-06 0)
(-0.00564502 -1.62643e-05 0)
(-0.00562948 -3.48311e-05 0)
(-0.0056044 -5.36093e-05 0)
(-0.00556971 -7.25753e-05 0)
(-0.00552533 -9.17045e-05 0)
(-0.0054712 -0.000110971 0)
(-0.00540727 -0.00013035 0)
(-0.00533352 -0.000149813 0)
(-0.00524993 -0.000169336 0)
(-0.00515648 -0.000188892 0)
(-0.0050532 -0.000208457 0)
(-0.0049401 -0.000228012 0)
(-0.00481723 -0.000247539 0)
(-0.00468463 -0.000267026 0)
(-0.00454235 -0.000286469 0)
(-0.00439046 -0.000305868 0)
(-0.00422905 -0.000325228 0)
(-0.0040582 -0.000344561 0)
(-0.00387802 -0.000363875 0)
(-0.00368868 -0.000383164 0)
(-0.00349035 -0.000402392 0)
(-0.00328331 -0.000421475 0)
(-0.00306792 -0.00044025 0)
(-0.00284468 -0.000458446 0)
(-0.00261427 -0.000475642 0)
(-0.0023776 -0.000491239 0)
(-0.00213582 -0.000504416 0)
(-0.00189039 -0.000514097 0)
(-0.0016431 -0.000518889 0)
(-0.00139615 -0.00051699 0)
(-0.00115216 -0.000506017 0)
(-0.000914319 -0.000482715 0)
(-0.000686385 -0.000442426 0)
(-0.000473157 -0.000378424 0)
(-0.000282295 -0.000282423 0)
(-0.000121038 -0.000149697 0)
(-1.04627e-05 -7.66226e-06 0)
(-1.86965e-05 4.25214e-05 0)
(-0.000146017 0.000225315 0)
(-0.000302698 0.000371096 0)
(-0.000475158 0.000474741 0)
(-0.000660939 0.000546277 0)
(-0.000855894 0.000593891 0)
(-0.00105805 0.000623854 0)
(-0.00126566 0.000640674 0)
(-0.00147699 0.000647647 0)
(-0.0016904 0.000647264 0)
(-0.0019044 0.000641466 0)
(-0.00211771 0.000631776 0)
(-0.00232919 0.000619386 0)
(-0.00253792 0.000605207 0)
(-0.00274313 0.000589907 0)
(-0.0029442 0.000573945 0)
(-0.00314066 0.000557611 0)
(-0.00333213 0.000541064 0)
(-0.00351832 0.000524368 0)
(-0.00369899 0.000507523 0)
(-0.00387394 0.000490494 0)
(-0.00404299 0.000473224 0)
(-0.00420596 0.000455654 0)
(-0.00436268 0.000437723 0)
(-0.00451297 0.000419382 0)
(-0.00465665 0.000400586 0)
(-0.00479354 0.0003813 0)
(-0.00492344 0.000361499 0)
(-0.00504616 0.000341161 0)
(-0.0051615 0.000320275 0)
(-0.00526928 0.000298833 0)
(-0.00536929 0.000276832 0)
(-0.00546135 0.000254272 0)
(-0.00554526 0.000231157 0)
(-0.00562084 0.000207496 0)
(-0.0056879 0.000183298 0)
(-0.00574626 0.000158576 0)
(-0.00579576 0.000133345 0)
(-0.00583623 0.000107623 0)
(-0.00586752 8.14293e-05 0)
(-0.00588946 5.47876e-05 0)
(-0.00590193 2.77245e-05 0)
(-0.0059048 2.6877e-07 0)
(-0.00589794 -2.75578e-05 0)
(-0.00588123 -5.57216e-05 0)
(-0.00585459 -8.41879e-05 0)
(-0.00581793 -0.00011292 0)
(-0.00577118 -0.00014188 0)
(-0.00571428 -0.000171027 0)
(-0.0056472 -0.000200323 0)
(-0.00556989 -0.000229725 0)
(-0.00548236 -0.000259193 0)
(-0.0053846 -0.000288686 0)
(-0.00527663 -0.000318167 0)
(-0.00515848 -0.000347601 0)
(-0.00503022 -0.000376958 0)
(-0.0048919 -0.000406211 0)
(-0.0047436 -0.000435341 0)
(-0.00458544 -0.000464334 0)
(-0.00441754 -0.000493178 0)
(-0.00424004 -0.000521853 0)
(-0.00405316 -0.000550332 0)
(-0.00385714 -0.000578553 0)
(-0.0036523 -0.00060641 0)
(-0.00343906 -0.000633719 0)
(-0.00321795 -0.000660189 0)
(-0.00298964 -0.00068539 0)
(-0.00275499 -0.000708718 0)
(-0.00251501 -0.00072936 0)
(-0.00227093 -0.000746268 0)
(-0.00202417 -0.00075812 0)
(-0.00177632 -0.000763265 0)
(-0.0015292 -0.000759624 0)
(-0.00128477 -0.000744523 0)
(-0.00104511 -0.000714401 0)
(-0.000812296 -0.000664309 0)
(-0.000588691 -0.000587209 0)
(-0.000379244 -0.000473586 0)
(-0.00018694 -0.000310726 0)
(-2.68801e-05 -9.32206e-05 0)
(-2.91081e-05 0.00013549 0)
(-0.00018647 0.000383663 0)
(-0.000362806 0.000547836 0)
(-0.000548333 0.000660613 0)
(-0.00074192 0.000739519 0)
(-0.000940547 0.000793569 0)
(-0.00114364 0.00082886 0)
(-0.00135061 0.000849742 0)
(-0.00156058 0.000859458 0)
(-0.00177249 0.000860522 0)
(-0.00198528 0.000854943 0)
(-0.00219789 0.000844348 0)
(-0.00240932 0.000830052 0)
(-0.00261868 0.000813099 0)
(-0.00282515 0.000794294 0)
(-0.00302806 0.000774226 0)
(-0.00322684 0.000753301 0)
(-0.00342099 0.000731772 0)
(-0.00361014 0.000709776 0)
(-0.00379395 0.000687367 0)
(-0.00397214 0.000664543 0)
(-0.00414447 0.000641271 0)
(-0.00431072 0.0006175 0)
(-0.00447067 0.000593177 0)
(-0.00462411 0.00056825 0)
(-0.00477084 0.000542675 0)
(-0.00491065 0.000516413 0)
(-0.00504334 0.000489437 0)
(-0.00516871 0.000461727 0)
(-0.00528655 0.000433268 0)
(-0.00539665 0.000404055 0)
(-0.00549882 0.000374084 0)
(-0.00559285 0.000343361 0)
(-0.00567856 0.000311892 0)
(-0.00575574 0.000279689 0)
(-0.00582422 0.000246766 0)
(-0.00588381 0.000213144 0)
(-0.00593433 0.000178842 0)
(-0.00597562 0.000143887 0)
(-0.00600752 0.000108307 0)
(-0.00602988 7.21318e-05 0)
(-0.00604255 3.53975e-05 0)
(-0.0060454 -1.85964e-06 0)
(-0.00603831 -3.9597e-05 0)
(-0.00602116 -7.77757e-05 0)
(-0.00599387 -0.000116348 0)
(-0.00595634 -0.000155265 0)
(-0.0059085 -0.000194473 0)
(-0.0058503 -0.000233919 0)
(-0.0057817 -0.000273547 0)
(-0.00570266 -0.0003133 0)
(-0.00561319 -0.000353121 0)
(-0.00551329 -0.000392953 0)
(-0.00540298 -0.000432741 0)
(-0.00528231 -0.000472434 0)
(-0.00515135 -0.000511982 0)
(-0.00501018 -0.00055134 0)
(-0.00485891 -0.000590467 0)
(-0.00469768 -0.000629321 0)
(-0.00452666 -0.000667858 0)
(-0.00434606 -0.000706017 0)
(-0.00415616 -0.000743712 0)
(-0.00395729 -0.000780815 0)
(-0.00374986 -0.000817126 0)
(-0.00353441 -0.000852352 0)
(-0.00331158 -0.000886072 0)
(-0.00308213 -0.000917707 0)
(-0.00284699 -0.000946498 0)
(-0.00260718 -0.000971474 0)
(-0.00236389 -0.00099144 0)
(-0.00211837 -0.00100494 0)
(-0.00187196 -0.00101021 0)
(-0.001626 -0.0010051 0)
(-0.00138181 -0.000986906 0)
(-0.00114057 -0.000952125 0)
(-0.000903073 -0.000895972 0)
(-0.000670198 -0.000811586 0)
(-0.000445743 -0.00068848 0)
(-0.000231268 -0.00050506 0)
(-3.81218e-05 -0.000210531 0)
(-3.55243e-05 0.000247259 0)
(-0.00021237 0.00056178 0)
(-0.000402824 0.000739355 0)
(-0.000599028 0.000856326 0)
(-0.000799964 0.000938467 0)
(-0.00100284 0.000995858 0)
(-0.00120779 0.00103439 0)
(-0.00141497 0.00105807 0)
(-0.00162413 0.00106992 0)
(-0.00183472 0.0010723 0)
(-0.00204606 0.00106713 0)
(-0.00225736 0.00105603 0)
(-0.00246781 0.00104034 0)
(-0.0026766 0.00102117 0)
(-0.00288297 0.000999401 0)
(-0.00308623 0.000975714 0)
(-0.00328577 0.000950609 0)
(-0.00348103 0.000924428 0)
(-0.00367158 0.000897381 0)
(-0.00385701 0.000869582 0)
(-0.00403699 0.000841075 0)
(-0.00421121 0.000811857 0)
(-0.00437941 0.0007819 0)
(-0.00454134 0.000751163 0)
(-0.00469676 0.000719603 0)
(-0.00484545 0.000687178 0)
(-0.00498717 0.000653856 0)
(-0.00512172 0.000619607 0)
(-0.00524887 0.000584414 0)
(-0.00536842 0.000548265 0)
(-0.00548014 0.000511155 0)
(-0.00558384 0.000473084 0)
(-0.00567931 0.00043406 0)
(-0.00576634 0.000394094 0)
(-0.00584475 0.000353203 0)
(-0.00591434 0.000311407 0)
(-0.00597492 0.00026873 0)
(-0.00602632 0.000225202 0)
(-0.00606837 0.000180854 0)
(-0.00610091 0.000135723 0)
(-0.00612377 8.98497e-05 0)
(-0.00613681 4.32772e-05 0)
(-0.00613991 -3.94664e-06 0)
(-0.00613292 -5.17697e-05 0)
(-0.00611575 -0.000100138 0)
(-0.00608829 -0.000148993 0)
(-0.00605045 -0.00019827 0)
(-0.00600216 -0.000247903 0)
(-0.00594337 -0.000297822 0)
(-0.00587403 -0.000347957 0)
(-0.00579412 -0.000398232 0)
(-0.00570363 -0.000448574 0)
(-0.00560258 -0.000498907 0)
(-0.00549099 -0.000549157 0)
(-0.00536892 -0.000599251 0)
(-0.00523646 -0.000649117 0)
(-0.00509369 -0.000698684 0)
(-0.00494076 -0.000747881 0)
(-0.00477784 -0.000796633 0)
(-0.00460513 -0.000844849 0)
(-0.00442291 -0.000892417 0)
(-0.00423149 -0.000939184 0)
(-0.00403129 -0.00098494 0)
(-0.00382278 -0.00102939 0)
(-0.00360658 -0.00107213 0)
(-0.00338336 -0.00111263 0)
(-0.00315395 -0.00115018 0)
(-0.00291925 -0.00118391 0)
(-0.00268025 -0.00121275 0)
(-0.002438 -0.00123544 0)
(-0.00219356 -0.00125049 0)
(-0.00194797 -0.00125616 0)
(-0.00170215 -0.00125036 0)
(-0.00145689 -0.00123056 0)
(-0.00121267 -0.00119349 0)
(-0.000969508 -0.00113473 0)
(-0.000727548 -0.0010476 0)
(-0.000490439 -0.000920323 0)
(-0.000259694 -0.000721584 0)
(-4.49305e-05 -0.000348874 0)
(-3.90568e-05 0.000371093 0)
(-0.000228236 0.000753092 0)
(-0.00042883 0.000941957 0)
(-0.000633692 0.00106043 0)
(-0.000841427 0.00114305 0)
(-0.001049 0.00120139 0)
(-0.00125676 0.00124128 0)
(-0.00146526 0.00126643 0)
(-0.00167466 0.00127956 0)
(-0.00188482 0.00128279 0)
(-0.00209534 0.0012779 0)
(-0.0023057 0.00126639 0)
(-0.00251528 0.00124956 0)
(-0.0027234 0.00122851 0)
(-0.00292938 0.00120415 0)
(-0.00313256 0.00117723 0)
(-0.00333233 0.0011483 0)
(-0.00352813 0.00111777 0)
(-0.00371946 0.00108593 0)
(-0.00390589 0.00105295 0)
(-0.00408704 0.00101891 0)
(-0.00426256 0.000983857 0)
(-0.00443216 0.000947786 0)
(-0.00459554 0.000910676 0)
(-0.00475245 0.000872498 0)
(-0.00490264 0.00083322 0)
(-0.00504586 0.000792816 0)
(-0.00518189 0.000751262 0)
(-0.0053105 0.000708543 0)
(-0.00543145 0.000664651 0)
(-0.00554455 0.000619585 0)
(-0.00564956 0.000573349 0)
(-0.00574628 0.000525955 0)
(-0.00583451 0.000477419 0)
(-0.00591404 0.000427761 0)
(-0.00598469 0.000377009 0)
(-0.00604625 0.000325193 0)
(-0.00609855 0.000272349 0)
(-0.00614142 0.000218517 0)
(-0.00617468 0.00016374 0)
(-0.00619818 0.000108069 0)
(-0.00621177 5.15572e-05 0)
(-0.00621531 -5.73744e-06 0)
(-0.00620867 -6.37519e-05 0)
(-0.00619175 -0.000122419 0)
(-0.00616442 -0.000181666 0)
(-0.00612661 -0.000241417 0)
(-0.00607824 -0.000301589 0)
(-0.00601926 -0.000362098 0)
(-0.00594961 -0.000422854 0)
(-0.00586927 -0.000483767 0)
(-0.00577825 -0.000544741 0)
(-0.00567655 -0.000605682 0)
(-0.00556421 -0.000666494 0)
(-0.00544129 -0.000727077 0)
(-0.00530789 -0.000787335 0)
(-0.00516412 -0.000847166 0)
(-0.00501013 -0.000906463 0)
(-0.00484613 -0.000965107 0)
(-0.00467235 -0.00102296 0)
(-0.00448911 -0.00107984 0)
(-0.00429677 -0.00113553 0)
(-0.00409578 -0.00118973 0)
(-0.00388668 -0.00124206 0)
(-0.0036701 -0.00129202 0)
(-0.00344674 -0.00133897 0)
(-0.00321741 -0.00138211 0)
(-0.00298298 -0.00142052 0)
(-0.00274435 -0.00145307 0)
(-0.00250241 -0.00147851 0)
(-0.00225802 -0.00149538 0)
(-0.00201194 -0.00150205 0)
(-0.00176477 -0.0014966 0)
(-0.00151689 -0.00147674 0)
(-0.00126834 -0.00143952 0)
(-0.00101875 -0.00138081 0)
(-0.000768059 -0.00129392 0)
(-0.000520293 -0.00116527 0)
(-0.000277452 -0.000953197 0)
(-4.87037e-05 -0.000500488 0)
(-4.06533e-05 0.000501999 0)
(-0.000237295 0.000953077 0)
(-0.000445115 0.00115293 0)
(-0.00065693 0.00127177 0)
(-0.000870808 0.00135328 0)
(-0.00108325 0.00141089 0)
(-0.00129451 0.00145064 0)
(-0.0015053 0.00147606 0)
(-0.00171602 0.00148958 0)
(-0.00192674 0.00149307 0)
(-0.00213733 0.00148811 0)
(-0.00234749 0.00147606 0)
(-0.00255675 0.00145812 0)
(-0.00276458 0.00143535 0)
(-0.0029704 0.00140863 0)
(-0.00317359 0.00137872 0)
(-0.00337359 0.00134622 0)
(-0.00356983 0.0013116 0)
(-0.00376181 0.00127519 0)
(-0.00394908 0.00123721 0)
(-0.00413122 0.00119779 0)
(-0.00430786 0.00115702 0)
(-0.00447867 0.00111492 0)
(-0.00464334 0.00107149 0)
(-0.00480158 0.00102673 0)
(-0.00495313 0.000980621 0)
(-0.00509774 0.000933138 0)
(-0.00523514 0.00088427 0)
(-0.00536512 0.000834006 0)
(-0.00548743 0.000782344 0)
(-0.00560185 0.000729288 0)
(-0.00570816 0.000674847 0)
(-0.00580614 0.000619037 0)
(-0.00589559 0.000561879 0)
(-0.00597629 0.0005034 0)
(-0.00604804 0.000443632 0)
(-0.00611066 0.000382613 0)
(-0.00616396 0.000320386 0)
(-0.00620775 0.000256997 0)
(-0.00624187 0.0001925 0)
(-0.00626616 0.000126953 0)
(-0.00628046 6.04193e-05 0)
(-0.00628462 -7.03245e-06 0)
(-0.00627853 -7.53277e-05 0)
(-0.00626205 -0.000144387 0)
(-0.00623508 -0.000214124 0)
(-0.00619753 -0.000284447 0)
(-0.00614932 -0.000355261 0)
(-0.00609038 -0.000426463 0)
(-0.00602067 -0.000497947 0)
(-0.00594018 -0.000569602 0)
(-0.00584888 -0.000641313 0)
(-0.0057468 -0.000712964 0)
(-0.00563397 -0.000784431 0)
(-0.00551047 -0.000855592 0)
(-0.0053764 -0.000926316 0)
(-0.00523188 -0.000996469 0)
(-0.00507708 -0.0010659 0)
(-0.00491224 -0.00113444 0)
(-0.0047376 -0.0012019 0)
(-0.00455352 -0.00126804 0)
(-0.00436038 -0.00133256 0)
(-0.00415866 -0.00139508 0)
(-0.00394893 -0.00145514 0)
(-0.00373181 -0.00151215 0)
(-0.00350801 -0.00156539 0)
(-0.0032783 -0.00161403 0)
(-0.00304347 -0.00165707 0)
(-0.00280433 -0.00169344 0)
(-0.00256161 -0.00172189 0)
(-0.00231601 -0.00174108 0)
(-0.00206804 -0.00174953 0)
(-0.00181807 -0.00174551 0)
(-0.00156622 -0.00172699 0)
(-0.00131231 -0.0016913 0)
(-0.00105584 -0.00163448 0)
(-0.000796903 -0.00154952 0)
(-0.000540126 -0.00142058 0)
(-0.00028817 -0.00119516 0)
(-5.04867e-05 -0.000660105 0)
(-4.10011e-05 0.000636569 0)
(-0.000241789 0.00115854 0)
(-0.000454696 0.00137016 0)
(-0.000672072 0.00148923 0)
(-0.000891424 0.00156889 0)
(-0.0011087 0.00162472 0)
(-0.00132391 0.00166325 0)
(-0.00153774 0.00168794 0)
(-0.00175066 0.00170101 0)
(-0.0019629 0.00170414 0)
(-0.00217449 0.00169868 0)
(-0.00238527 0.00168584 0)
(-0.00259494 0.00166668 0)
(-0.00280308 0.00164218 0)
(-0.0030092 0.00161319 0)
(-0.00321278 0.00158044 0)
(-0.00341327 0.00154455 0)
(-0.00361015 0.00150601 0)
(-0.00380292 0.00146519 0)
(-0.00399111 0.00142236 0)
(-0.0041743 0.0013777 0)
(-0.0043521 0.00133131 0)
(-0.00452416 0.00128327 0)
(-0.00469014 0.0012336 0)
(-0.00484975 0.0011823 0)
(-0.00500271 0.00112938 0)
(-0.00514873 0.00107483 0)
(-0.00528757 0.00101865 0)
(-0.00541898 0.000960839 0)
(-0.00554272 0.000901392 0)
(-0.00565855 0.000840323 0)
(-0.00576624 0.000777648 0)
(-0.00586557 0.000713387 0)
(-0.00595634 0.000647568 0)
(-0.00603832 0.000580223 0)
(-0.00611131 0.000511392 0)
(-0.00617511 0.000441117 0)
(-0.00622954 0.000369448 0)
(-0.00627441 0.000296441 0)
(-0.00630955 0.000222157 0)
(-0.00633478 0.000146662 0)
(-0.00634994 7.00305e-05 0)
(-0.0063549 -7.65873e-06 0)
(-0.00634952 -8.63198e-05 0)
(-0.00633366 -0.00016586 0)
(-0.00630721 -0.000246181 0)
(-0.00627009 -0.000327176 0)
(-0.0062222 -0.000408733 0)
(-0.00616348 -0.000490734 0)
(-0.00609388 -0.000573053 0)
(-0.00601337 -0.00065556 0)
(-0.00592195 -0.000738118 0)
(-0.00581962 -0.000820586 0)
(-0.00570644 -0.000902815 0)
(-0.00558247 -0.000984651 0)
(-0.00544782 -0.00106593 0)
(-0.00530263 -0.00114648 0)
(-0.00514708 -0.00122611 0)
(-0.0049814 -0.00130459 0)
(-0.00480589 -0.00138168 0)
(-0.00462088 -0.00145707 0)
(-0.00442681 -0.00153039 0)
(-0.00422414 -0.0016012 0)
(-0.00401346 -0.00166894 0)
(-0.00379537 -0.00173296 0)
(-0.00357056 -0.0017925 0)
(-0.00333975 -0.00184668 0)
(-0.00310365 -0.00189453 0)
(-0.00286296 -0.00193498 0)
(-0.0026183 -0.00196687 0)
(-0.00237021 -0.00198899 0)
(-0.00211905 -0.00200001 0)
(-0.00186502 -0.00199843 0)
(-0.00160811 -0.00198242 0)
(-0.00134809 -0.00194949 0)
(-0.00108452 -0.00189569 0)
(-0.000817824 -0.00181341 0)
(-0.000553317 -0.00168417 0)
(-0.000294343 -0.00144427 0)
(-5.1025e-05 -0.000824242 0)
(-4.05851e-05 0.000772541 0)
(-0.000243321 0.00136728 0)
(-0.000459775 0.00159203 0)
(-0.000681611 0.00171185 0)
(-0.000905818 0.00178949 0)
(-0.00112778 0.00184301 0)
(-0.0013472 0.00187959 0)
(-0.00156461 0.00190279 0)
(-0.00178046 0.00191473 0)
(-0.00199503 0.00191691 0)
(-0.00220845 0.00191049 0)
(-0.00242067 0.00189653 0)
(-0.0026315 0.00187595 0)
(-0.00284063 0.00184963 0)
(-0.00304766 0.00181834 0)
(-0.00325212 0.0017828 0)
(-0.00345353 0.00174361 0)
(-0.0036514 0.00170126 0)
(-0.00384524 0.00165616 0)
(-0.0040346 0.00160859 0)
(-0.00421905 0.00155878 0)
(-0.00439819 0.00150688 0)
(-0.00457166 0.00145296 0)
(-0.00473911 0.00139709 0)
(-0.00490023 0.0013393 0)
(-0.00505473 0.00127961 0)
(-0.00520232 0.00121801 0)
(-0.00534274 0.00115453 0)
(-0.00547573 0.00108916 0)
(-0.00560103 0.00102191 0)
(-0.00571841 0.000952814 0)
(-0.00582764 0.000881882 0)
(-0.00592849 0.000809141 0)
(-0.00602073 0.000734627 0)
(-0.00610415 0.000658377 0)
(-0.00617854 0.000580437 0)
(-0.0062437 0.000500856 0)
(-0.00629942 0.000419692 0)
(-0.00634554 0.000337007 0)
(-0.00638185 0.00025287 0)
(-0.00640818 0.000167358 0)
(-0.00642439 8.05529e-05 0)
(-0.0064303 -7.45496e-06 0)
(-0.00642578 -9.65685e-05 0)
(-0.00641069 -0.000186683 0)
(-0.00638492 -0.000277685 0)
(-0.00634836 -0.000369456 0)
(-0.00630093 -0.000461865 0)
(-0.00624255 -0.000554778 0)
(-0.00617316 -0.00064805 0)
(-0.00609274 -0.00074153 0)
(-0.00600127 -0.000835058 0)
(-0.00589877 -0.000928466 0)
(-0.00578528 -0.00102158 0)
(-0.00566087 -0.00111421 0)
(-0.00552564 -0.00120616 0)
(-0.00537974 -0.00129721 0)
(-0.00522336 -0.00138713 0)
(-0.00505675 -0.00147564 0)
(-0.00488019 -0.00156243 0)
(-0.00469404 -0.00164713 0)
(-0.00449873 -0.00172931 0)
(-0.00429474 -0.00180845 0)
(-0.00408262 -0.00188393 0)
(-0.00386298 -0.00195506 0)
(-0.00363646 -0.00202103 0)
(-0.00340371 -0.00208096 0)
(-0.00316539 -0.00213389 0)
(-0.0029221 -0.00217881 0)
(-0.00267437 -0.00221466 0)
(-0.00242262 -0.00224036 0)
(-0.00216711 -0.00225472 0)
(-0.00190797 -0.00225643 0)
(-0.00164515 -0.00224381 0)
(-0.00137847 -0.00221447 0)
(-0.00110769 -0.00216428 0)
(-0.000833644 -0.00208478 0)
(-0.000562338 -0.00195453 0)
(-0.000297756 -0.00169839 0)
(-5.08547e-05 -0.000990712 0)
(-3.97506e-05 0.000908496 0)
(-0.000243076 0.00157782 0)
(-0.000462005 0.00181735 0)
(-0.000687464 0.00193881 0)
(-0.000915992 0.00201471 0)
(-0.00114246 0.00206575 0)
(-0.0013662 0.00209997 0)
(-0.00158756 0.00212116 0)
(-0.00180689 0.00213142 0)
(-0.00202447 0.00213213 0)
(-0.00224046 0.00212433 0)
(-0.00245487 0.0021089 0)
(-0.00266759 0.00208665 0)
(-0.00287839 0.00205834 0)
(-0.00308694 0.00202468 0)
(-0.00329285 0.00198632 0)
(-0.00349567 0.00194384 0)
(-0.00369497 0.00189773 0)
(-0.00389027 0.0018484 0)
(-0.00408113 0.00179618 0)
(-0.00426714 0.0017413 0)
(-0.0044479 0.00168393 0)
(-0.00462303 0.0016242 0)
(-0.00479218 0.00156218 0)
(-0.00495504 0.00149793 0)
(-0.0051113 0.00143148 0)
(-0.00526066 0.00136285 0)
(-0.00540285 0.00129206 0)
(-0.00553761 0.00121913 0)
(-0.00566468 0.00114409 0)
(-0.00578382 0.00106694 0)
(-0.00589478 0.000987727 0)
(-0.00599733 0.000906478 0)
(-0.00609124 0.000823235 0)
(-0.00617629 0.00073804 0)
(-0.00625227 0.000650946 0)
(-0.00631896 0.000562009 0)
(-0.00637618 0.000471293 0)
(-0.00642371 0.000378868 0)
(-0.00646138 0.000284812 0)
(-0.006489 0.000189208 0)
(-0.0065064 9.21497e-05 0)
(-0.00651343 -6.2634e-06 0)
(-0.00650992 -0.000105923 0)
(-0.00649576 -0.000206711 0)
(-0.0064708 -0.000308503 0)
(-0.00643493 -0.000411162 0)
(-0.00638807 -0.000514544 0)
(-0.00633012 -0.000618496 0)
(-0.00626103 -0.000722854 0)
(-0.00618077 -0.000827444 0)
(-0.0060893 -0.000932083 0)
(-0.00598665 -0.00103658 0)
(-0.00587284 -0.00114072 0)
(-0.00574794 -0.00124429 0)
(-0.00561207 -0.00134706 0)
(-0.00546537 -0.00144876 0)
(-0.00530802 -0.0015491 0)
(-0.00514028 -0.00164777 0)
(-0.00496242 -0.00174439 0)
(-0.00477482 -0.00183854 0)
(-0.00457789 -0.0019297 0)
(-0.00437211 -0.00201731 0)
(-0.004158 -0.00210071 0)
(-0.00393614 -0.00217914 0)
(-0.00370715 -0.00225179 0)
(-0.00347161 -0.00231776 0)
(-0.00323013 -0.00237615 0)
(-0.00298322 -0.00242601 0)
(-0.00273136 -0.00246637 0)
(-0.00247489 -0.00249626 0)
(-0.00221404 -0.00251466 0)
(-0.0019489 -0.00252036 0)
(-0.00167949 -0.0025118 0)
(-0.00140574 -0.00248654 0)
(-0.00112767 -0.00244013 0)
(-0.000846555 -0.00236306 0)
(-0.000569054 -0.00223068 0)
(-0.000299723 -0.00195625 0)
(-5.03607e-05 -0.00115828 0)
(-3.87528e-05 0.00104367 0)
(-0.00024193 0.00178928 0)
(-0.000462638 0.00204531 0)
(-0.000691125 0.00216951 0)
(-0.000923551 0.0022442 0)
(-0.00115432 0.00229288 0)
(-0.00138243 0.00232458 0)
(-0.00160798 0.00234344 0)
(-0.00183122 0.00235163 0)
(-0.00205235 0.00235047 0)
(-0.00227153 0.00234089 0)
(-0.0024888 0.00232367 0)
(-0.00270408 0.00229948 0)
(-0.0029172 0.00226898 0)
(-0.0031279 0.0022328 0)
(-0.00333583 0.00219154 0)
(-0.0035406 0.00214573 0)
(-0.00374179 0.00209586 0)
(-0.00393898 0.00204233 0)
(-0.00413175 0.00198548 0)
(-0.00431968 0.00192555 0)
(-0.00450237 0.00186276 0)
(-0.00467947 0.00179725 0)
(-0.00485061 0.00172911 0)
(-0.00501547 0.00165842 0)
(-0.00517374 0.00158523 0)
(-0.00532513 0.00150957 0)
(-0.00546934 0.00143148 0)
(-0.00560611 0.00135099 0)
(-0.00573518 0.00126812 0)
(-0.00585629 0.00118291 0)
(-0.00596921 0.00109539 0)
(-0.00607368 0.00100561 0)
(-0.00616948 0.000913596 0)
(-0.00625637 0.000819414 0)
(-0.00633415 0.000723118 0)
(-0.00640259 0.000624771 0)
(-0.00646149 0.000524443 0)
(-0.00651064 0.000422212 0)
(-0.00654985 0.000318162 0)
(-0.00657894 0.000212387 0)
(-0.00659772 0.000104988 0)
(-0.00660602 -3.92485e-06 0)
(-0.0066037 -0.000114233 0)
(-0.00659059 -0.000225806 0)
(-0.00656658 -0.000338505 0)
(-0.00653152 -0.000452181 0)
(-0.00648533 -0.000566672 0)
(-0.00642791 -0.000681806 0)
(-0.00635919 -0.0007974 0)
(-0.00627912 -0.00091326 0)
(-0.00618768 -0.00102918 0)
(-0.00608487 -0.00114493 0)
(-0.00597072 -0.00126028 0)
(-0.00584528 -0.00137497 0)
(-0.00570867 -0.00148874 0)
(-0.00556102 -0.00160127 0)
(-0.00540251 -0.00171223 0)
(-0.0052334 -0.00182124 0)
(-0.00505395 -0.00192789 0)
(-0.00486453 -0.00203167 0)
(-0.00466555 -0.00213203 0)
(-0.00445745 -0.00222835 0)
(-0.00424075 -0.0023199 0)
(-0.004016 -0.00240592 0)
(-0.00378375 -0.00248558 0)
(-0.00354458 -0.00255799 0)
(-0.00329902 -0.00262228 0)
(-0.00304756 -0.00267758 0)
(-0.00279061 -0.002723 0)
(-0.00252849 -0.00275768 0)
(-0.00226142 -0.00278069 0)
(-0.00198955 -0.00279094 0)
(-0.00171297 -0.00278686 0)
(-0.0014318 -0.0027659 0)
(-0.00114634 -0.00272315 0)
(-0.000858284 -0.00264788 0)
(-0.000574896 -0.00251206 0)
(-0.000301213 -0.00221722 0)
(-4.98096e-05 -0.0013264 0)
(-3.77627e-05 0.00117774 0)
(-0.000240515 0.00200117 0)
(-0.000462627 0.00227539 0)
(-0.000693761 0.00240351 0)
(-0.000929779 0.00247768 0)
(-0.00116469 0.00252432 0)
(-0.00139717 0.00255353 0)
(-0.00162709 0.00256991 0)
(-0.00185455 0.00257577 0)
(-0.00207967 0.00257243 0)
(-0.00230255 0.00256077 0)
(-0.00252324 0.00254145 0)
(-0.00274168 0.00251506 0)
(-0.00295773 0.00248216 0)
(-0.00317116 0.0024433 0)
(-0.00338167 0.00239902 0)
(-0.00358891 0.00234981 0)
(-0.0037925 0.00229612 0)
(-0.00399204 0.00223837 0)
(-0.00418713 0.00217688 0)
(-0.00437736 0.00211192 0)
(-0.00456236 0.00204372 0)
(-0.00474176 0.00197244 0)
(-0.00491521 0.00189819 0)
(-0.00508238 0.00182107 0)
(-0.00524296 0.00174114 0)
(-0.00539664 0.00165845 0)
(-0.00554315 0.00157305 0)
(-0.00568219 0.00148498 0)
(-0.00581352 0.00139427 0)
(-0.00593686 0.00130097 0)
(-0.00605197 0.00120512 0)
(-0.00615861 0.00110675 0)
(-0.00625653 0.00100594 0)
(-0.0063455 0.00090272 0)
(-0.0064253 0.000797169 0)
(-0.0064957 0.000689352 0)
(-0.0065565 0.000579347 0)
(-0.00660748 0.000467236 0)
(-0.00664843 0.000353114 0)
(-0.00667917 0.000237079 0)
(-0.00669951 0.000119243 0)
(-0.00670927 -2.75571e-07 0)
(-0.00670829 -0.000121346 0)
(-0.0066964 -0.000243827 0)
(-0.00667346 -0.000367567 0)
(-0.00663934 -0.000492402 0)
(-0.00659392 -0.000618154 0)
(-0.00653711 -0.000744633 0)
(-0.00646882 -0.000871638 0)
(-0.006389 -0.000998948 0)
(-0.0062976 -0.00112633 0)
(-0.00619461 -0.00125354 0)
(-0.00608007 -0.00138031 0)
(-0.00595401 -0.00150634 0)
(-0.00581654 -0.00163132 0)
(-0.00566777 -0.00175492 0)
(-0.0055079 -0.00187673 0)
(-0.00533715 -0.00199634 0)
(-0.00515579 -0.00211326 0)
(-0.00496416 -0.00222695 0)
(-0.00476265 -0.00233679 0)
(-0.00455171 -0.00244212 0)
(-0.00433181 -0.00254217 0)
(-0.00410348 -0.00263614 0)
(-0.00386724 -0.0027232 0)
(-0.00362362 -0.0028025 0)
(-0.00337314 -0.00287318 0)
(-0.00311624 -0.00293442 0)
(-0.00285333 -0.00298544 0)
(-0.00258472 -0.00302544 0)
(-0.00231069 -0.00305358 0)
(-0.00203143 -0.00306877 0)
(-0.00174718 -0.00306944 0)
(-0.00145825 -0.0030528 0)
(-0.00116522 -0.00301339 0)
(-0.000870197 -0.00293913 0)
(-0.000580953 -0.0027985 0)
(-0.000302932 -0.00248118 0)
(-4.93786e-05 -0.00149504 0)
(-3.68856e-05 0.00131073 0)
(-0.000239277 0.00221337 0)
(-0.000462672 0.00250734 0)
(-0.000696268 0.00264053 0)
(-0.000935693 0.00271496 0)
(-0.00117464 0.00275998 0)
(-0.00141148 0.0027869 0)