/*--------------------------------*- C++ -*----------------------------------*\
  =========                 |
  \\      /  F ield         | OpenFOAM: The Open Source CFD Toolbox
   \\    /   O peration     | Website:  https://openfoam.org
    \\  /    A nd           | Version:  13
     \\/     M anipulation  |
\*---------------------------------------------------------------------------*/
FoamFile
{
    format      ascii;
    class       volScalarField;
    location    "0.5";
    object      nut;
}
// * * * * * * * * * * * * * * * * * * * * * * * * * * * * * * * * * * * * * //

dimensions      [0 2 -1 0 0 0 0];

internalField   nonuniform List<scalar> 
400
(
2.3103e-05
2.53851e-05
2.71137e-05
2.80422e-05
2.847e-05
2.86536e-05
2.8736e-05
2.87816e-05
2.88166e-05
2.88494e-05
2.88831e-05
2.89253e-05
2.89599e-05
2.89719e-05
2.89241e-05
2.87322e-05
2.82403e-05
2.72034e-05
2.53659e-05
2.31021e-05
2.53792e-05
5.46835e-05
6.83547e-05
7.45812e-05
7.75021e-05
7.89223e-05
7.9687e-05
8.02016e-05
8.06398e-05
8.10595e-05
8.14522e-05
8.17396e-05
8.1933e-05
8.19598e-05
8.15461e-05
8.01716e-05
7.68442e-05
6.9641e-05
5.45082e-05
2.53785e-05
2.72271e-05
6.98273e-05
9.40487e-05
0.000106021
0.000111756
0.000114441
0.000115734
0.000116448
0.00011695
0.000117383
0.000117773
0.000118079
0.00011822
0.000117977
0.000116828
0.000113782
0.000107067
9.35683e-05
6.78832e-05
2.70906e-05
2.8292e-05
7.71711e-05
0.000107647
0.000123675
0.000131607
0.000135333
0.000137044
0.000137881
0.000138376
0.000138747
0.000139056
0.000139249
0.000139211
0.000138588
0.000136672
0.000132155
0.00012282
0.000105117
7.36729e-05
2.7987e-05
2.88328e-05
8.07855e-05
0.00011464
0.000133098
0.00014245
0.000146872
0.000148855
0.00014975
0.000150204
0.00015049
0.000150685
0.000150745
0.0001505
0.000149524
0.000146982
0.000141391
0.000130359
0.000110255
7.59666e-05
2.83675e-05
2.90942e-05
8.25826e-05
0.000118163
0.00013791
0.000148046
0.000152853
0.000154975
0.000155878
0.000156283
0.000156491
0.000156586
0.000156531
0.000156114
0.000154866
0.000151877
0.000145578
0.000133516
0.000112116
7.65175e-05
2.84867e-05
2.92302e-05
8.35363e-05
0.000119962
0.00014033
0.000150822
0.000155787
0.000157951
0.000158835
0.000159193
0.000159341
0.000159369
0.000159229
0.000158691
0.000157249
0.000153943
0.000147158
0.000134443
0.000112315
7.61822e-05
2.84956e-05
2.93221e-05
8.41564e-05
0.00012101
0.000141623
0.000152221
0.000157208
0.000159351
0.000160199
0.000160518
0.000160626
0.000160613
0.000160419
0.000159796
0.000158204
0.000154644
0.00014747
0.000134248
0.000111623
7.52237e-05
2.84466e-05
2.9409e-05
8.4701e-05
0.000121805
0.000142475
0.000153031
0.000157951
0.000160034
0.000160837
0.000161125
0.000161211
0.000161172
0.000160945
0.000160254
0.000158526
0.000154709
0.000147122
0.000133355
0.000110201
7.36419e-05
2.8358e-05
2.95106e-05
8.53037e-05
0.000122601
0.000143227
0.000153648
0.000158442
0.000160435
0.000161182
0.000161438
0.000161507
0.000161451
0.000161196
0.000160439
0.000158553
0.000154418
0.00014629
0.000131777
0.000107898
7.11969e-05
2.82237e-05
2.96412e-05
8.60499e-05
0.000123537
0.000144042
0.000154253
0.000158865
0.000160735
0.00016141
0.000161626
0.000161674
0.000161603
0.000161312
0.000160468
0.000158368
0.000153782
0.000144863
0.000129221
0.000104238
6.74054e-05
2.80183e-05
2.98165e-05
8.70185e-05
0.000124707
0.000144999
0.000154912
0.000159277
0.000160983
0.00016157
0.000161729
0.000161746
0.000161652
0.000161302
0.000160326
0.000157904
0.000152636
0.000142488
0.000125113
9.85065e-05
6.16146e-05
2.77186e-05
3.00599e-05
8.83012e-05
0.00012617
0.000146117
0.000155614
0.000159647
0.000161149
0.00016164
0.000161723
0.0001617
0.000161563
0.000161124
0.000159948
0.00015705
0.000150779
0.00013884
0.000118996
9.03183e-05
5.47497e-05
2.76148e-05
3.04095e-05
8.99796e-05
0.000127906
0.000147305
0.000156227
0.000159846
0.000161127
0.00016151
0.000161538
0.000161476
0.00016129
0.000160742
0.000159314
0.000155829
0.000148318
0.000134202
0.000111486
8.14239e-05
4.93808e-05
2.82889e-05
3.09084e-05
9.20577e-05
0.000129719
0.000148198
0.000156349
0.000159572
0.000160641
0.000160912
0.000160904
0.000160817
0.000160616
0.000160001
0.000158405
0.000154536
0.000146134
0.000130353
0.000105533
7.50238e-05
5.14714e-05
3.08481e-05
3.15631e-05
9.42439e-05
0.000130795
0.000147927
0.000155204
0.000157816
0.000158546
0.000158653
0.000158612
0.000158541
0.000158389
0.000157936
0.000156462
0.000153001
0.000145231
0.000130186
0.00010591
7.86358e-05
6.20969e-05
3.48858e-05
3.24501e-05
9.56723e-05
0.000129832
0.000144649
0.000150038
0.000151597
0.000151864
0.000151881
0.000151972
0.000152144
0.000152297
0.000152268
0.000151678
0.000149554
0.000144397
0.000133697
0.000114958
9.26557e-05
7.41609e-05
3.83702e-05
3.31884e-05
9.41339e-05
0.000123285
0.000133794
0.000137517
0.000139018
0.000139991
0.000140948
0.000141984
0.00014297
0.000143793
0.00014444
0.000144836
0.000144501
0.000142093
0.000136553
0.000124295
0.000106346
8.26873e-05
4.09426e-05
3.36694e-05
8.42453e-05
0.000106346
0.000116072
0.000122225
0.000126567
0.000129767
0.00013201
0.000133416
0.000134208
0.000134677
0.00013508
0.000135556
0.000135974
0.000135175
0.000133143
0.000126189
0.000109917
7.93873e-05
4.27518e-05
3.1195e-05
3.48812e-05
4.11259e-05
4.70961e-05
5.24127e-05
5.67252e-05
5.97609e-05
6.14227e-05
6.19178e-05
6.18832e-05
6.15007e-05
6.10131e-05
6.09285e-05
6.10132e-05
6.12555e-05
6.10606e-05
6.0215e-05
5.80619e-05
5.34171e-05
4.31473e-05
)
;

boundaryField
{
    movingWall
    {
        type            nutkWallFunction;
        Cmu             0.09;
        kappa           0.41;
        E               9.8;
        value           uniform 0;
    }
    fixedWalls
    {
        type            nutkWallFunction;
        Cmu             0.09;
        kappa           0.41;
        E               9.8;
        value           uniform 0;
    }
    frontAndBack
    {
        type            empty;
    }
}


// ************************************************************************* //
