/*--------------------------------*- C++ -*----------------------------------*\
  =========                 |
  \\      /  F ield         | OpenFOAM: The Open Source CFD Toolbox
   \\    /   O peration     | Website:  https://openfoam.org
    \\  /    A nd           | Version:  13
     \\/     M anipulation  |
\*---------------------------------------------------------------------------*/
FoamFile
{
    format      ascii;
    class       volScalarField;
    location    "7.9";
    object      k;
}
// * * * * * * * * * * * * * * * * * * * * * * * * * * * * * * * * * * * * * //

dimensions      [0 2 -2 0 0 0 0];

internalField   nonuniform List<scalar> 
6400
(
5.58575e-07
2.86993e-06
6.97565e-06
1.1237e-05
1.44503e-05
1.62598e-05
1.69283e-05
1.70129e-05
1.71366e-05
1.77933e-05
1.93537e-05
2.23531e-05
2.70559e-05
3.35505e-05
4.1488e-05
5.04275e-05
5.99136e-05
6.97669e-05
7.95249e-05
8.89614e-05
9.84617e-05
0.000108848
0.000121216
0.000136209
0.000153192
0.000170339
0.000187379
0.000204293
0.000221601
0.000239767
0.000258547
0.000277304
0.00029574
0.000313907
0.000332274
0.000350949
0.00037032
0.000390506
0.000411756
0.000434134
0.000457801
0.000482939
0.000509691
0.000538386
0.000569248
0.000603348
0.000642664
0.00069146
0.00074052
0.000790524
0.000839489
0.000887052
0.000931696
0.000972187
0.00100703
0.00103443
0.00104844
0.00105401
0.00105206
0.00103195
0.000996394
0.000945452
0.000879712
0.000801798
0.000713202
0.000618497
0.00052226
0.00042821
0.000339814
0.000261166
0.000197154
0.000143435
0.000100043
6.68746e-05
4.29943e-05
2.67193e-05
1.61e-05
9.25426e-06
4.37917e-06
9.33418e-07
2.70128e-06
2.2709e-05
5.50884e-05
8.6077e-05
0.000108979
0.000122659
0.000129247
0.000132035
0.000134597
0.000140071
0.000151937
0.000174014
0.00020743
0.000251478
0.000304054
0.000362493
0.000424435
0.000487504
0.00054993
0.000611102
0.000673147
0.000740485
0.000818619
0.000910012
0.00101066
0.00111159
0.00120982
0.00130335
0.0013931
0.00148011
0.00156261
0.00163959
0.00170962
0.00177359
0.00183391
0.00189141
0.00194809
0.0020048
0.00206288
0.00212286
0.00218547
0.00225138
0.00232067
0.00239358
0.00246943
0.00254817
0.00262803
0.00270616
0.00278965
0.00287538
0.00296357
0.0030508
0.0031355
0.00321396
0.00328284
0.00333804
0.00336756
0.00337707
0.00336612
0.00332141
0.00323908
0.00311871
0.00295869
0.00276233
0.00253429
0.0022831
0.00202002
0.00175332
0.00149069
0.00123656
0.000994694
0.000774818
0.00058344
0.000423373
0.000295264
0.000197237
0.000126091
7.60727e-05
3.69317e-05
4.9355e-06
5.91054e-06
4.9277e-05
0.000114462
0.000169013
0.000206127
0.00022809
0.000240332
0.000248865
0.000259712
0.000278801
0.000311898
0.000363664
0.000435704
0.000526157
0.000631006
0.000746098
0.000868217
0.000994723
0.0011231
0.00125124
0.00137751
0.00150117
0.00162004
0.00172884
0.00182267
0.00189764
0.00195112
0.00198844
0.00201722
0.00204451
0.0020745
0.00210634
0.00214078
0.00217512
0.00221312
0.00225381
0.00229899
0.00234853
0.00240349
0.00246385
0.00252941
0.00260081
0.00267748
0.00275958
0.00284702
0.00293968
0.0030368
0.0031397
0.00324811
0.00336043
0.00347566
0.00359156
0.00370593
0.00381543
0.00391628
0.00400373
0.00407258
0.00411052
0.00412207
0.00410405
0.00404141
0.0039336
0.00377624
0.00357137
0.00332136
0.00303378
0.00272502
0.00240396
0.00208096
0.00176642
0.00146926
0.00119616
0.000952118
0.000739542
0.000559314
0.000410683
0.00029038
0.000190854
9.70903e-05
1.32049e-05
1.02676e-05
8.28131e-05
0.000179769
0.000252501
0.000300122
0.000329745
0.000349903
0.000369116
0.000395734
0.000437899
0.000502811
0.000594848
0.00071371
0.000854656
0.00101089
0.00117592
0.00134405
0.00150973
0.00166691
0.00180979
0.00193271
0.00203373
0.00211019
0.00215494
0.00217392
0.0021783
0.00217317
0.00217
0.00216922
0.00217418
0.0021848
0.00219871
0.00221775
0.00224161
0.00227082
0.00230505
0.00234494
0.00239036
0.00244129
0.00249805
0.0025606
0.00262923
0.00270379
0.00278426
0.00287023
0.00296208
0.0030607
0.00316581
0.00327699
0.00339336
0.00351393
0.00363707
0.00376067
0.00388186
0.00399709
0.00410187
0.00419102
0.0042571
0.00428871
0.0042947
0.00425838
0.00417725
0.00405287
0.00387936
0.0036529
0.00337452
0.00306116
0.0027234
0.00237681
0.00203559
0.00171178
0.00141413
0.00114775
0.000914645
0.000714862
0.000546763
0.00040599
0.000282904
0.000154178
2.20024e-05
1.64727e-05
0.000127614
0.000257116
0.00034727
0.000405571
0.000444284
0.000475359
0.000510157
0.000559537
0.000633391
0.000738819
0.000877632
0.00104524
0.00123242
0.00142848
0.00162328
0.00180752
0.00197234
0.00210862
0.00221214
0.00227184
0.00229477
0.00229643
0.00226594
0.00223535
0.00220785
0.00218547
0.00217036
0.0021632
0.00216088
0.00216222
0.00216899
0.00218034
0.00219594
0.00221568
0.00223955
0.0022674
0.00229894
0.00233416
0.0023733
0.00241638
0.00246385
0.00251652
0.0025751
0.00264052
0.00271289
0.00279189
0.00287803
0.00297149
0.00307236
0.00318043
0.00329518
0.0034156
0.00354016
0.00366672
0.00379189
0.00391105
0.00401862
0.00410796
0.0041634
0.00418357
0.00416332
0.00408555
0.00395224
0.00377176
0.00353421
0.00323937
0.00290548
0.00254988
0.00219108
0.00184628
0.00152878
0.00124631
0.00100131
0.00079289
0.000617928
0.000470591
0.000338703
0.000192971
2.80941e-05
2.53248e-05
0.000186997
0.000351018
0.000459415
0.000529833
0.000579928
0.000625461
0.000680902
0.000759279
0.000870722
0.00101975
0.00120313
0.00141039
0.00162708
0.00183812
0.00202961
0.00218943
0.00231032
0.0023749
0.0023961
0.00238273
0.00233749
0.0022926
0.00224838
0.00220756
0.0021719
0.00214273
0.00211965
0.0021011
0.00208617
0.00207387
0.00206628
0.00206227
0.00206079
0.00206079
0.00206453
0.0020704
0.00207914
0.00209074
0.00210568
0.00212421
0.00214698
0.00217387
0.00220541
0.00224216
0.00228459
0.0023335
0.00238984
0.00245459
0.00252888
0.00261364
0.0027097
0.00281759
0.00293717
0.00306737
0.00320656
0.00335212
0.00349932
0.00364232
0.00377175
0.00387867
0.00393497
0.00395064
0.00390673
0.00379715
0.00362496
0.00337391
0.00306139
0.00270537
0.00232921
0.00195752
0.00161149
0.00130503
0.00104344
0.000825363
0.00064552
0.000495651
0.000361165
0.000210223
3.03443e-05
3.76005e-05
0.00026288
0.000463803
0.000591769
0.000676
0.00073992
0.000803334
0.000883542
0.000994454
0.00114409
0.00133184
0.00154777
0.00177522
0.00199496
0.00218884
0.00234185
0.00243431
0.0024688
0.00246582
0.00241621
0.00236244
0.00229922
0.00223807
0.00217682
0.00212263
0.00207564
0.00203469
0.00199781
0.00196439
0.001935
0.00190966
0.00188711
0.00186682
0.00184858
0.00183249
0.00181898
0.00180766
0.001799
0.00179326
0.00179063
0.00178996
0.00179255
0.00179869
0.00180844
0.0018224
0.00184083
0.00186463
0.00189449
0.00193161
0.00197742
0.00203383
0.00210281
0.00218666
0.00228758
0.00240681
0.00254444
0.00270203
0.00287592
0.00306072
0.00324948
0.00343412
0.00359885
0.00371838
0.00376948
0.00377113
0.00368306
0.0035189
0.00325266
0.00291083
0.00252007
0.00211323
0.00172289
0.00137441
0.00108076
0.000842357
0.000651873
0.000496628
0.000359792
0.00020914
2.94752e-05
5.40175e-05
0.000356283
0.0005961
0.000744971
0.000844596
0.000924369
0.00100796
0.00111453
0.00125692
0.00143863
0.00165221
0.00188083
0.00210251
0.00229503
0.00244008
0.00251153
0.00252988
0.00249823
0.00244237
0.00236617
0.0022821
0.00219414
0.00211589
0.00204547
0.0019853
0.00193
0.00187958
0.0018327
0.00178949
0.00174979
0.00171331
0.00167967
0.00164891
0.00162112
0.00159643
0.00157489
0.00155623
0.00154054
0.00152781
0.00151797
0.00151112
0.00150784
0.00150682
0.00150867
0.0015147
0.00152407
0.00153777
0.00155606
0.00157953
0.0016087
0.00164454
0.00168816
0.00174126
0.00180637
0.00188778
0.00199153
0.00212131
0.00228236
0.00247432
0.00268824
0.00292101
0.00315808
0.00338373
0.00357335
0.00367234
0.00369921
0.00364143
0.00347865
0.00318335
0.00279749
0.00235896
0.00191252
0.00150014
0.00115043
0.000872661
0.000658895
0.000492114
0.000351225
0.000202404
2.74029e-05
7.50752e-05
0.000466984
0.00074725
0.000918089
0.00103419
0.0011307
0.00123455
0.00136535
0.00153279
0.00173421
0.00195507
0.00217284
0.00236272
0.00249746
0.00255699
0.00256493
0.00252022
0.00245115
0.00235384
0.00224258
0.00213902
0.00204752
0.00196585
0.00189214
0.00182555
0.00176328
0.00170572
0.00165227
0.00160327
0.00155861
0.00151831
0.00148237
0.00145083
0.00142357
0.00140039
0.00138109
0.00136545
0.00135325
0.00134418
0.00133834
0.00133563
0.00133485
0.00133647
0.0013413
0.00134881
0.00135903
0.00137221
0.00138845
0.00140803
0.00143122
0.00145852
0.00149049
0.00152788
0.00157171
0.00162349
0.00168553
0.00176154
0.00185829
0.00198846
0.00216924
0.00239722
0.00266092
0.00294535
0.00322959
0.00348376
0.00363415
0.00368415
0.00365269
0.00348436
0.00314739
0.00270516
0.00220969
0.00172015
0.00128798
0.000941757
0.000683078
0.000492571
0.000338232
0.000188796
2.50556e-05
0.000100963
0.000593244
0.000915242
0.00110882
0.00124154
0.00135389
0.00147515
0.0016239
0.00180522
0.00200979
0.00221704
0.00240116
0.00252904
0.00258177
0.00258479
0.00253757
0.0024509
0.00232951
0.00220171
0.0020857
0.00198137
0.00188862
0.0018045
0.00172754
0.00165678
0.00159135
0.00153184
0.00147816
0.00143067
0.00138925
0.00135384
0.00132418
0.0012999
0.00128054
0.00126559
0.00125452
0.00124679
0.0012425
0.0012407
0.00124039
0.00124273
0.00124684
0.00125297
0.00126101
0.0012709
0.00128269
0.00129654
0.00131258
0.00133105
0.00135217
0.00137611
0.00140318
0.00143369
0.00146808
0.0015068
0.00155059
0.00160097
0.00166069
0.0017349
0.00183265
0.00196981
0.0021778
0.00245762
0.00277888
0.00311976
0.0034375
0.00363983
0.00371127
0.00369525
0.00350979
0.00311896
0.00261055
0.00205422
0.00152508
0.00108147
0.00074617
0.000508641
0.000333286
0.000176401
2.31153e-05
0.000132159
0.000731271
0.00109697
0.00131355
0.00146171
0.00158685
0.0017197
0.00187666
0.00205758
0.00224725
0.00242116
0.00254372
0.00259311
0.002594
0.0025463
0.00244507
0.00230664
0.0021675
0.0020375
0.00192226
0.00181884
0.00172577
0.00164086
0.0015635
0.00149347
0.00143091
0.00137628
0.00132948
0.00129043
0.00125861
0.00123343
0.00121411
0.00119985
0.00118983
0.00118344
0.00118035
0.00117929
0.00117962
0.00118243
0.0011864
0.0011921
0.00119907
0.00120756
0.00121748
0.00122895
0.00124207
0.00125698
0.00127381
0.00129269
0.00131373
0.00133705
0.00136275
0.00139098
0.00142192
0.00145589
0.00149308
0.00153351
0.0015779
0.00162784
0.00168693
0.00176319
0.00187121
0.00203585
0.00230206
0.00265388
0.00304146
0.00342293
0.00367391
0.00376311
0.00374906
0.00352941
0.00307176
0.0024901
0.0018756
0.00131832
0.000876364
0.000559551
0.000343118
0.000172916
2.24229e-05
0.000170057
0.000876677
0.00128873
0.0015275
0.00168845
0.0018213
0.00195751
0.00211074
0.00227604
0.00243392
0.00255029
0.00259803
0.00259866
0.00255151
0.00244186
0.0022925
0.00214102
0.00199947
0.00187233
0.00175971
0.00165838
0.00156721
0.00148515
0.00141239
0.00134909
0.00129537
0.00125111
0.00121565
0.00118816
0.00116754
0.00115269
0.00114251
0.00113613
0.00113301
0.00113187
0.00113182
0.00113376
0.00113675
0.00114108
0.00114636
0.0011529
0.00116059
0.00116965
0.00118016
0.00119229
0.00120621
0.00122208
0.00124007
0.0012603
0.0012829
0.00130792
0.00133536
0.00136514
0.00139712
0.00143108
0.00146686
0.0015045
0.00154439
0.00158643
0.00163103
0.00168096
0.00174276
0.00183031
0.00196804
0.00219796
0.00256413
0.00299157
0.00343483
0.00372456
0.00382439
0.00379509
0.00351823
0.00297976
0.00232212
0.00166179
0.00109473
0.000669235
0.000380098
0.000180145
2.32129e-05
0.000212118
0.00102956
0.00148638
0.0017452
0.00191491
0.00204885
0.00217875
0.00231571
0.00245114
0.00255761
0.00260333
0.00260447
0.00255798
0.0024459
0.00228975
0.00212644
0.00197286
0.00183471
0.00171234
0.00160384
0.00150701
0.00142147
0.001347
0.00128385
0.00123181
0.00119032
0.00115834
0.00113452
0.00111744
0.00110567
0.00109796
0.00109338
0.00109119
0.00109039
0.00109031
0.00109145
0.0010936
0.00109653
0.00110042
0.00110526
0.00111127
0.00111857
0.00112734
0.00113776
0.00115002
0.00116432
0.00118084
0.00119978
0.00122131
0.00124558
0.0012727
0.0013027
0.00133553
0.00137096
0.00140863
0.00144798
0.00148835
0.00152914
0.00157015
0.00161192
0.00165411
0.00169834
0.00175057
0.00182326
0.00194054
0.00214593
0.00250681
0.00297301
0.00347039
0.00378241
0.00388054
0.00381436
0.00345061
0.0028165
0.00209209
0.00140608
0.00085341
0.000463968
0.000206044
2.65831e-05
0.000257141
0.00118623
0.00168497
0.00196077
0.00213433
0.00226192
0.00237554
0.00248451
0.00257503
0.00261584
0.00261685
0.00256979
0.00245948
0.00229981
0.00212653
0.00196027
0.00181053
0.00167837
0.00156225
0.00146024
0.00137129
0.00129542
0.00123239
0.0011818
0.00114255
0.00111319
0.00109195
0.00107708
0.00106695
0.00106023
0.00105586
0.00105308
0.00105133
0.00105037
0.00105
0.00105006
0.00105108
0.00105279
0.00105553
0.00105936
0.00106449
0.0010711
0.00107937
0.00108949
0.00110163
0.00111601
0.00113281
0.00115226
0.00117455
0.0011999
0.0012285
0.0012605
0.00129595
0.00133479
0.00137675
0.00142128
0.00146752
0.00151431
0.00156035
0.00160461
0.00164711
0.00168848
0.00172892
0.00177409
0.00183671
0.00194159
0.00213495
0.00248596
0.0029873
0.00353002
0.00383772
0.00391671
0.0037885
0.00329431
0.00256704
0.00179106
0.00111081
0.00060385
0.000262423
3.47163e-05
0.000303655
0.00134254
0.00187937
0.00216852
0.00234056
0.00245442
0.0025426
0.00261208
0.00264369
0.0026414
0.00259122
0.00248473
0.00232428
0.00214306
0.00196417
0.00180146
0.00165857
0.00153413
0.00142625
0.00133362
0.00125575
0.00119229
0.00114232
0.00110439
0.00107657
0.00105674
0.00104289
0.00103324
0.0010264
0.00102134
0.00101736
0.00101405
0.00101121
0.00100879
0.00100684
0.00100572
0.00100533
0.00100558
0.00100722
0.00101014
0.00101452
0.00102055
0.00102839
0.00103819
0.00105013
0.00106439
0.00108116
0.00110066
0.00112312
0.0011488
0.00117795
0.00121084
0.00124769
0.00128864
0.00133369
0.00138254
0.00143457
0.00148863
0.00154305
0.00159572
0.00164454
0.00168844
0.00172767
0.00176491
0.00180682
0.00186256
0.00196145
0.00214896
0.00250332
0.00303962
0.00360781
0.0038805
0.00392068
0.00368857
0.00303824
0.00221729
0.00142467
0.000791975
0.000347654
4.77685e-05
0.000350292
0.00149453
0.00206491
0.00236346
0.00252849
0.00262208
0.00267484
0.00269521
0.00268407
0.00262713
0.00252427
0.00236479
0.00217767
0.00198667
0.00180964
0.00165406
0.00151987
0.00140488
0.00130748
0.00122667
0.00116168
0.00111129
0.00107357
0.00104624
0.00102682
0.00101307
0.0010031
0.000995482
0.00098922
0.000983692
0.000978574
0.000973754
0.000969263
0.000965225
0.000961806
0.000959204
0.000957795
0.000957305
0.000957874
0.000960243
0.000964143
0.000969792
0.000977328
0.000986877
0.000998592
0.00101263
0.00102917
0.00104842
0.0010706
0.001096
0.00112492
0.00115769
0.00119466
0.00123616
0.00128246
0.00133365
0.00138952
0.0014494
0.00151194
0.00157501
0.00163562
0.0016904
0.00173789
0.00177602
0.00180516
0.00184312
0.00189772
0.00199452
0.00218463
0.00255732
0.00313629
0.00368982
0.00391732
0.0038806
0.00345739
0.00265366
0.00177488
0.00101683
0.000454246
6.45767e-05
0.000396091
0.00163784
0.00223789
0.0025424
0.0026935
0.00275663
0.00277137
0.00274829
0.00268264
0.00258148
0.00242325
0.00223198
0.0020298
0.00183739
0.00166667
0.00152032
0.00139635
0.0012925
0.0012073
0.00113946
0.00108737
0.00104876
0.00102091
0.00100109
0.000986783
0.000975997
0.000967251
0.000959573
0.000952397
0.000945466
0.000938735
0.000932289
0.000926284
0.000920909
0.000916351
0.000912791
0.000910639
0.000909761
0.000909714
0.000911725
0.000915363
0.000920781
0.000928112
0.000937457
0.000948947
0.000962719
0.000978934
0.000997779
0.00101947
0.00104428
0.00107251
0.00110452
0.00114073
0.00118159
0.00122755
0.00127903
0.00133625
0.00139912
0.001467
0.00153839
0.00161068
0.00167999
0.0017415
0.00179333
0.00183121
0.00185105
0.00188409
0.00193954
0.00203857
0.00224031
0.00264657
0.00326921
0.00376441
0.00392134
0.00374536
0.00307203
0.00214751
0.00126931
0.000575934
8.40886e-05
0.00044013
0.00177123
0.00239483
0.00269787
0.00282893
0.0028635
0.0028416
0.00277011
0.00265925
0.00250224
0.00230775
0.00209558
0.00188726
0.00169893
0.00153718
0.00140145
0.00128897
0.00119747
0.00112515
0.00106994
0.00102923
0.000999948
0.000979011
0.000963678
0.000951773
0.000941751
0.000932622
0.000923852
0.000915228
0.000906749
0.000898535
0.000890767
0.000883643
0.000877355
0.000872077
0.000867965
0.000865341
0.000864178
0.00086396
0.000865664
0.000869148
0.000874397
0.000881553
0.000890702
0.000901959
0.000915447
0.00093131
0.000949716
0.000970863
0.000994992
0.00102239
0.00105341
0.00108847
0.00112806
0.00117275
0.00122311
0.00127973
0.00134301
0.00141301
0.00148912
0.00156971
0.00165169
0.00173019
0.00179873
0.00185499
0.00188705
0.0019017
0.0019292
0.00198688
0.00209331
0.00231879
0.00278349
0.00344794
0.0038094
0.00385657
0.00344565
0.00253266
0.00154535
0.00070877
0.000105378
0.000480706
0.00189119
0.00253072
0.00282742
0.00293634
0.00294687
0.00288235
0.00276331
0.00260635
0.00240724
0.00218607
0.00196196
0.00175392
0.00157312
0.00142193
0.00129782
0.00119765
0.00111885
0.00105889
0.00101478
0.000983094
0.000960394
0.000943632
0.000930419
0.000919072
0.000908553
0.000898317
0.00088817
0.000878134
0.000868352
0.000859016
0.00085033
0.00084248
0.000835634
0.000829933
0.000825499
0.000822581
0.000821242
0.000820925
0.000822368
0.000825692
0.000830759
0.000837711
0.000846632
0.000857628
0.000870813
0.000886319
0.000904298
0.000924927
0.000948419
0.000975033
0.00100509
0.00103897
0.00107715
0.00112021
0.00116883
0.00122373
0.00128566
0.00135523
0.00143265
0.00151738
0.00160762
0.00169972
0.00178773
0.00186336
0.00192
0.00194427
0.00195454
0.00197767
0.00203958
0.00216021
0.00243018
0.00297995
0.00360736
0.00385238
0.00368661
0.00290929
0.00184124
0.000850239
0.000127762
0.000516365
0.00199476
0.00264343
0.00293089
0.00302078
0.00300407
0.00289769
0.00273816
0.0025341
0.00230358
0.00206422
0.00183517
0.00163178
0.00146064
0.00132094
0.00120901
0.0011213
0.00105464
0.00100561
0.000970419
0.000945238
0.000926645
0.000911952
0.000899277
0.000887461
0.000875912
0.000864421
0.000853018
0.000841853
0.000831124
0.000821033
0.000811763
0.00080347
0.000796285
0.000790318
0.00078566
0.000782485
0.000780976
0.000780554
0.000781698
0.000784798
0.000789621
0.000796305
0.000804942
0.000815631
0.000828484
0.000843625
0.000861196
0.000881356
0.000904295
0.00093024
0.00095947
0.000992327
0.00102924
0.00107075
0.00111751
0.00117032
0.00123008
0.00129772
0.00137406
0.00145947
0.00155343
0.00165383
0.00175625
0.00185328
0.00193435
0.00198675
0.00200255
0.00200801
0.00202932
0.00209771
0.00224432
0.00258949
0.00322663
0.0036914
0.00377346
0.00325715
0.00215156
0.00099562
0.000151164
0.000546316
0.00208079
0.00273265
0.00300919
0.00308328
0.00303653
0.00289118
0.00268989
0.00245119
0.00219677
0.00194632
0.00171751
0.00152166
0.00136138
0.00123363
0.00113391
0.00105813
0.00100233
0.000962279
0.000933724
0.000912797
0.000896408
0.000882377
0.000869355
0.000856641
0.00084398
0.000831385
0.000819003
0.000807032
0.000795671
0.000785096
0.000775456
0.000766872
0.000759443
0.000753255
0.000748382
0.000744901
0.000743169
0.000742602
0.000743367
0.000746156
0.000750657
0.000757001
0.000765287
0.000775616
0.000788099
0.000802858
0.000820026
0.000839754
0.000862214
0.000887605
0.000916171
0.000948209
0.000984092
0.0010243
0.00106942
0.00112023
0.00117765
0.00124277
0.00131675
0.00140062
0.00149492
0.00159908
0.00171053
0.00182376
0.00192934
0.00201194
0.00205194
0.00206035
0.00206139
0.00208337
0.00216365
0.00235714
0.0028261
0.00348153
0.00375011
0.00351267
0.00246556
0.00114275
0.000175337
0.000570128
0.00214929
0.00279941
0.00306409
0.00312344
0.00304692
0.0028699
0.0026299
0.00236257
0.00209088
0.00183498
0.0016101
0.00142356
0.00127472
0.00115893
0.00107096
0.00100601
0.000959363
0.00092625
0.000902278
0.00088385
0.000868366
0.000854186
0.000840433
0.000826756
0.000813126
0.000799675
0.000786596
0.000774083
0.000762307
0.00075141
0.000741504
0.00073268
0.000725015
0.000718577
0.00071343
0.000709638
0.000707563
0.000706801
0.000707119
0.000709503
0.00071361
0.000719547
0.000727422
0.000737338
0.000749409
0.000763758
0.000780516
0.000799826
0.000821849
0.000846769
0.000874798
0.000906195
0.000941283
0.000980469
0.00102428
0.00107341
0.00112871
0.0011913
0.00126247
0.00134364
0.00143606
0.00154041
0.00165591
0.00177928
0.00190355
0.00201721
0.00209205
0.00211604
0.00211752
0.0021114
0.00214068
0.0022442
0.00252281
0.003131
0.00358412
0.00362365
0.00278181
0.0013043
0.000201899
0.000587733
0.00220095
0.00284511
0.00309748
0.00314328
0.00304038
0.00283097
0.00256175
0.00227202
0.00198872
0.00173171
0.00151327
0.00133701
0.00119973
0.00109549
0.00101835
0.000962799
0.000923501
0.000895449
0.000874416
0.000857248
0.000841884
0.000827173
0.000812608
0.000798084
0.000783698
0.000769632
0.000756075
0.000743195
0.000731128
0.000719979
0.000709834
0.000700763
0.00069283
0.000686096
0.000680622
0.00067647
0.000673937
0.000672888
0.000672807
0.000674682
0.000678339
0.000683817
0.000691232
0.00070069
0.00071231
0.000726216
0.000742539
0.000761423
0.000783023
0.00080751
0.00083508
0.000865962
0.000900436
0.000938853
0.000981665
0.00102947
0.00108304
0.00114341
0.00121187
0.00128999
0.00137947
0.00148182
0.0015977
0.00172581
0.00186136
0.00199449
0.00210904
0.00216969
0.00218081
0.00216723
0.002155
0.00220292
0.00235656
0.00279808
0.00342631
0.00364193
0.00309192
0.00150516
0.000236011
0.000599424
0.00223678
0.00287079
0.00310966
0.00314261
0.00302048
0.00278249
0.00248904
0.00218241
0.00189215
0.00163723
0.00142681
0.00126125
0.00113524
0.00104181
0.000974306
0.000926586
0.000892942
0.000868399
0.000849095
0.000832393
0.000816737
0.000801378
0.000786078
0.000770879
0.000755939
0.000741441
0.00072755
0.0007144
0.000702091
0.000690706
0.000680309
0.000670961
0.000662719
0.000655645
0.000649801
0.000645259
0.00064218
0.000640724
0.000640363
0.00064164
0.00064481
0.000649796
0.000656717
0.000665683
0.000676817
0.000690244
0.000706102
0.000724535
0.000745696
0.000769755
0.000796895
0.000827329
0.000861305
0.000899128
0.000941187
0.000987991
0.00104022
0.00109878
0.00116489
0.00124011
0.00132632
0.00142558
0.00153967
0.00166917
0.00181206
0.0019618
0.00210554
0.00220623
0.00224175
0.00224153
0.00220838
0.00219756
0.00227723
0.00253777
0.00315361
0.0035307
0.00333672
0.00176
0.000282052
0.000605207
0.00225711
0.0028776
0.00310623
0.0031311
0.00298593
0.00272691
0.00241454
0.00209581
0.0018023
0.00155172
0.00135022
0.00119532
0.00108002
0.000996413
0.000937213
0.000895805
0.000866352
0.000844124
0.000825722
0.000809022
0.000792905
0.000776924
0.00076102
0.000745312
0.000729971
0.000715162
0.000701016
0.000687634
0.000675094
0.000663458
0.000652783
0.000643125
0.00063454
0.000627092
0.000620849
0.000615884
0.000612279
0.00061037
0.000609731
0.000610408
0.000613067
0.000617545
0.000623953
0.000632405
0.000643024
0.000655941
0.000671298
0.000689242
0.000709933
0.000733537
0.000760239
0.000790241
0.000823773
0.000861107
0.000902584
0.000948638
0.000999852
0.00105702
0.00112122
0.00119391
0.00127697
0.0013727
0.0014835
0.00161125
0.00175595
0.00191373
0.00207448
0.00221983
0.00229835
0.00231254
0.00228239
0.00224304
0.00225266
0.00239788
0.00287265
0.00339177
0.00345254
0.0020646
0.000339814
0.000604813
0.00226474
0.0028726
0.00309155
0.00310482
0.00294249
0.00266688
0.0023404
0.00201365
0.00171976
0.00147501
0.00128279
0.0011382
0.00103281
0.000957927
0.000905699
0.000869243
0.000842802
0.000822019
0.000803991
0.000787056
0.000770445
0.000753928
0.00073755
0.000721462
0.000705824
0.000690771
0.000676404
0.000662799
0.000650018
0.000638113
0.000627137
0.000617147
0.000608202
0.000600369
0.000593717
0.000588321
0.000584258
0.000581855
0.000580927
0.000581063
0.000583198
0.000587168
0.000593058
0.000600983
0.000611067
0.000623446
0.000638266
0.00065568
0.000675854
0.000698961
0.000725188
0.000754735
0.000787827
0.000824716
0.000865705
0.000911176
0.000961628
0.00101774
0.00108046
0.00115109
0.00123142
0.00132378
0.00143096
0.00155579
0.00170016
0.00186309
0.00203806
0.00221033
0.00233558
0.00237905
0.00237179
0.00229781
0.00226254
0.00232751
0.00263189
0.00325113
0.00348077
0.00240744
0.000406869
0.00060156
0.00226266
0.00285638
0.0030616
0.00306618
0.00289207
0.00260449
0.00226822
0.00193687
0.00164472
0.00140671
0.00122374
0.00108888
0.000992482
0.000925163
0.000878665
0.000846008
0.000821669
0.000801728
0.000783759
0.000766492
0.000749421
0.000732463
0.000715719
0.000699341
0.000683466
0.000668201
0.000653623
0.000639791
0.000626757
0.00061457
0.000603285
0.00059296
0.00058366
0.000575454
0.000568416
0.000562623
0.000558154
0.00055523
0.000553927
0.00055372
0.000555308
0.000558778
0.000564156
0.000571551
0.000581089
0.000592907
0.000607157
0.000624
0.000643606
0.000666161
0.000691858
0.000720904
0.000753522
0.00078996
0.000830498
0.000875479
0.000925337
0.000980655
0.00104224
0.00111125
0.0011893
0.00127861
0.00138205
0.00150299
0.00164453
0.00180794
0.0019898
0.00217831
0.00234979
0.00243841
0.00245247
0.0023965
0.00231285
0.00230428
0.0024716
0.00302732
0.00339892
0.00274873
0.000476131
0.000594401
0.00225384
0.00282638
0.00302151
0.0030189
0.00283673
0.00254138
0.00219917
0.00186602
0.00157714
0.00134629
0.00117226
0.00104639
0.000957995
0.000897126
0.000855256
0.000825461
0.000802549
0.000783051
0.000764966
0.000747345
0.000729873
0.000712558
0.000695526
0.000678913
0.000662834
0.00064737
0.000632582
0.000618518
0.000605226
0.000592758
0.00058117
0.000570526
0.000560893
0.000552345
0.000544957
0.000538808
0.000533979
0.000530568
0.000528883
0.000528417
0.000529489
0.000532478
0.000537358
0.000544228
0.000553215
0.000564457
0.00057811
0.000594341
0.000613332
0.000635276
0.000660379
0.00068886
0.000720949
0.000756895
0.000796972
0.000841497
0.000890858
0.000945561
0.0010063
0.00107407
0.00115031
0.00123706
0.00133714
0.00145414
0.00159207
0.00175417
0.00194041
0.00214377
0.00234575
0.00248446
0.00252544
0.00249825
0.00237386
0.00231403
0.00239222
0.00281883
0.00326449
0.00301778
0.000531788
0.000583279
0.00223533
0.0027876
0.00297394
0.00296493
0.00277816
0.00247886
0.00213406
0.00180136
0.00151679
0.00129318
0.00112757
0.00100984
0.000928463
0.00087301
0.000834825
0.000807156
0.000785184
0.000765872
0.000747586
0.000729624
0.00071181
0.000694204
0.000676934
0.00066012
0.000643853
0.000628196
0.000613198
0.000598904
0.000585362
0.000572626
0.000560757
0.000549823
0.000539894
0.000531046
0.000523352
0.000516889
0.000511732
0.000507956
0.000505892
0.000505191
0.000505805
0.00050834
0.000512742
0.000519101
0.000527538
0.000538195
0.00055123
0.000566818
0.000585148
0.000606425
0.000630871
0.000658716
0.000690205
0.000725598
0.000765171
0.000809231
0.000858135
0.000912332
0.000972423
0.00103926
0.00111409
0.00119875
0.00129587
0.00140903
0.00154266
0.00170122
0.00188712
0.00209692
0.00231651
0.0025066
0.00259024
0.00259321
0.00248325
0.00236058
0.00235524
0.00264576
0.00313945
0.00314535
0.000557326
0.00056882
0.00221013
0.00274199
0.00292032
0.00290624
0.00271782
0.00241791
0.00207338
0.00174296
0.00146334
0.00124678
0.00108892
0.000978462
0.000903136
0.000852174
0.000816892
0.000790778
0.000769403
0.000750119
0.000731596
0.000713322
0.000695216
0.000677365
0.000659891
0.000642894
0.000626447
0.000610602
0.000595401
0.000580888
0.000567114
0.000554137
0.000542021
0.000530838
0.000520659
0.00051156
0.000503612
0.000496888
0.000491458
0.000487392
0.000484978
0.000484059
0.000484288
0.000486403
0.000490351
0.000496215
0.000504111
0.000514182
0.000526586
0.000541505
0.000559138
0.0005797
0.000603427
0.000630567
0.000661383
0.00069615
0.000735156
0.00077871
0.000827155
0.0008809
0.000940472
0.0010066
0.00108037
0.00116339
0.00125806
0.00136782
0.00149731
0.00165187
0.00183607
0.00205011
0.00228418
0.0025121
0.00264882
0.00267761
0.00259877
0.0024142
0.00234627
0.00249406
0.00303309
0.00318124
0.000561733
0.000551843
0.00218034
0.00269126
0.00286214
0.00284442
0.00265688
0.00235925
0.00201745
0.00169071
0.00141641
0.00120651
0.00105565
0.000951566
0.000881393
0.000834112
0.000801094
0.000776106
0.000755089
0.000735738
0.000716968
0.000698414
0.000680054
0.00066199
0.000644332
0.000627166
0.000610549
0.000594525
0.000579135
0.000564424
0.000550446
0.000537262
0.000524942
0.000513557
0.00050318
0.000493884
0.000485738
0.000478811
0.000473166
0.000468868
0.000466135
0.000464991
0.000464938
0.000466663
0.000470185
0.000475575
0.000482945
0.000492433
0.000504203
0.000518438
0.000535346
0.000555153
0.000578109
0.000604482
0.000634553
0.000668618
0.000706984
0.000749972
0.000797925
0.00085123
0.00091036
0.000975951
0.00104893
0.00113068
0.00122336
0.00133016
0.00145564
0.00160561
0.00178614
0.00200058
0.00224421
0.00249734
0.00269066
0.00275338
0.00271375
0.00251703
0.00237572
0.00242062
0.00286728
0.00315342
0.000550581
0.000533016
0.00214771
0.00263701
0.00280083
0.00278081
0.00259629
0.00230339
0.00196637
0.00164444
0.00137559
0.00117182
0.00102715
0.000928571
0.000862725
0.000818429
0.000787161
0.000762975
0.000742152
0.000722679
0.000703668
0.00068486
0.000666277
0.000648022
0.000630197
0.000612871
0.000596096
0.000579908
0.00056435
0.000549469
0.000535321
0.000521973
0.000509494
0.000497957
0.000487435
0.000477997
0.000469708
0.000462632
0.000456827
0.000452352
0.000449341
0.000447952
0.000447713
0.000449081
0.000452206
0.000457146
0.000464006
0.000472925
0.000484063
0.000497608
0.000513774
0.000532799
0.000554944
0.000580496
0.000609757
0.000643049
0.000680701
0.000723054
0.000770464
0.00082331
0.000882032
0.00094719
0.00101958
0.0011004
0.00119152
0.00129588
0.0014178
0.00156329
0.00173941
0.00195197
0.00220015
0.00246857
0.00271116
0.00282024
0.00281643
0.00263664
0.00241925
0.00239075
0.00272152
0.00308227
0.000531666
0.000512961
0.00211299
0.00258048
0.00273762
0.00271648
0.00253678
0.00225067
0.00192015
0.00160387
0.00134045
0.00114222
0.00100291
0.000908984
0.000846716
0.000804811
0.000774881
0.000751256
0.000730517
0.000710893
0.000691653
0.000672616
0.000653831
0.000635403
0.000617422
0.000599951
0.000583032
0.000566701
0.000551002
0.000535983
0.000521705
0.000508235
0.000495645
0.000484007
0.000473389
0.00046386
0.000455478
0.000448301
0.000442382
0.000437773
0.000434534
0.000432924
0.000432527