/*--------------------------------*- C++ -*----------------------------------*\
  =========                 |
  \\      /  F ield         | OpenFOAM: The Open Source CFD Toolbox
   \\    /   O peration     | Website:  https://openfoam.org
    \\  /    A nd           | Version:  13
     \\/     M anipulation  |
\*---------------------------------------------------------------------------*/
FoamFile
{
    format      ascii;
    class       volScalarField;
    location    "7.9";
    object      nut;
}
// * * * * * * * * * * * * * * * * * * * * * * * * * * * * * * * * * * * * * //

dimensions      [0 2 -1 0 0 0 0];

internalField   nonuniform List<scalar> 
6400
(
9.81923e-10
5.04508e-09
1.22626e-08
1.97536e-08
2.54022e-08
2.85832e-08
2.97582e-08
2.99068e-08
3.01242e-08
3.12783e-08
3.4021e-08
3.9293e-08
4.75594e-08
5.89754e-08
7.29279e-08
8.86417e-08
1.05316e-07
1.22637e-07
1.39789e-07
1.56377e-07
1.73077e-07
1.91334e-07
2.13075e-07
2.3943e-07
2.69284e-07
2.99426e-07
3.29379e-07
3.59111e-07
3.89535e-07
4.21469e-07
4.54481e-07
4.87452e-07
5.19859e-07
5.51795e-07
5.84082e-07
6.16909e-07
6.5096e-07
6.86444e-07
7.23799e-07
7.63135e-07
8.04738e-07
8.48927e-07
8.95953e-07
9.46393e-07
1.00064e-06
1.06059e-06
1.1297e-06
1.21547e-06
1.30171e-06
1.38961e-06
1.47568e-06
1.55928e-06
1.63776e-06
1.70893e-06
1.77018e-06
1.81833e-06
1.84297e-06
1.85275e-06
1.84932e-06
1.81397e-06
1.75147e-06
1.66192e-06
1.54636e-06
1.4094e-06
1.25366e-06
1.08719e-06
9.18023e-07
7.52702e-07
5.97319e-07
4.59072e-07
3.46553e-07
2.52127e-07
1.75853e-07
1.1755e-07
7.55743e-08
4.69667e-08
2.83002e-08
1.6267e-08
7.6977e-09
1.64077e-09
4.7486e-09
3.35463e-07
1.20729e-06
2.03483e-06
2.64663e-06
3.00792e-06
3.17628e-06
3.23927e-06
3.28113e-06
3.36347e-06
3.56199e-06
3.94153e-06
4.47161e-06
5.08453e-06
5.71808e-06
6.31078e-06
6.81837e-06
7.1935e-06
7.42328e-06
7.52352e-06
7.57535e-06
7.64472e-06
7.79884e-06
8.06425e-06
8.37963e-06
8.59083e-06
8.79438e-06
9.02707e-06
9.33513e-06
9.7568e-06
1.02977e-05
1.08926e-05
1.15367e-05
1.22001e-05
1.29021e-05
1.36274e-05
1.43854e-05
1.51703e-05
1.59891e-05
1.68368e-05
1.77075e-05
1.8607e-05
1.95321e-05
2.05086e-05
2.15008e-05
2.24769e-05
2.34099e-05
2.4245e-05
2.51116e-05
2.59875e-05
2.68738e-05
2.77514e-05
2.86064e-05
2.94177e-05
3.01629e-05
3.08929e-05
3.13475e-05
3.1642e-05
3.18378e-05
3.18119e-05
3.14525e-05
3.07901e-05
2.97984e-05
2.84675e-05
2.67987e-05
2.48457e-05
2.27037e-05
2.03954e-05
1.79531e-05
1.53048e-05
1.24128e-05
9.62465e-06
7.16573e-06
5.13966e-06
3.56605e-06
2.42739e-06
1.62486e-06
1.05198e-06
4.76607e-07
8.67561e-09
1.03901e-08
8.67545e-07
3.50468e-06
6.08814e-06
8.06732e-06
9.35645e-06
1.00869e-05
1.0463e-05
1.06893e-05
1.09447e-05
1.13653e-05
1.20244e-05
1.2896e-05
1.38817e-05
1.48555e-05
1.571e-05
1.63965e-05
1.68905e-05
1.71917e-05
1.73155e-05
1.72838e-05
1.7192e-05
1.71184e-05
1.71016e-05
1.71774e-05
1.74341e-05
1.77521e-05
1.80759e-05
1.84238e-05
1.87927e-05
1.92789e-05
1.99605e-05
2.09453e-05
2.19455e-05
2.30816e-05
2.42725e-05
2.55436e-05
2.68348e-05
2.81801e-05
2.96172e-05
3.10108e-05
3.24482e-05
3.38551e-05
3.51906e-05
3.64666e-05
3.77168e-05
3.89306e-05
4.01521e-05
4.13824e-05
4.26121e-05
4.38336e-05
4.50349e-05
4.62e-05
4.73089e-05
4.83349e-05
4.92437e-05
5.00354e-05
5.05686e-05
5.08103e-05
5.09756e-05
5.08053e-05
5.03163e-05
4.94666e-05
4.81411e-05
4.62585e-05
4.38353e-05
4.10658e-05
3.79369e-05
3.44622e-05
3.06784e-05
2.66389e-05
2.24836e-05
1.84096e-05
1.4619e-05
1.12835e-05
8.46027e-06
6.21876e-06
4.28863e-06
1.78928e-06
2.32115e-08
1.80492e-08
1.42027e-06
5.48488e-06
9.37163e-06
1.23803e-05
1.44503e-05
1.57381e-05
1.64695e-05
1.68997e-05
1.72618e-05
1.77515e-05
1.8491e-05
1.94588e-05
2.05166e-05
2.15057e-05
2.23135e-05
2.28815e-05
2.32071e-05
2.332e-05
2.32783e-05
2.31481e-05
2.30389e-05
2.30164e-05
2.31164e-05
2.31688e-05
2.31793e-05
2.31497e-05
2.35385e-05
2.42696e-05
2.52426e-05
2.65217e-05
2.77342e-05
2.89344e-05
3.02162e-05
3.15312e-05
3.28232e-05
3.41208e-05
3.54831e-05
3.67734e-05
3.8054e-05
3.92842e-05
4.04974e-05
4.16628e-05
4.2789e-05
4.38695e-05
4.49225e-05
4.59764e-05
4.70312e-05
4.80838e-05
4.91284e-05
5.0158e-05
5.11628e-05
5.21295e-05
5.30417e-05
5.38795e-05
5.46191e-05
5.52347e-05
5.57059e-05
5.59522e-05
5.60155e-05
5.58603e-05
5.53557e-05
5.45724e-05
5.37816e-05
5.24888e-05
5.05635e-05
4.81893e-05
4.53256e-05
4.20475e-05
3.84033e-05
3.4437e-05
3.02139e-05
2.58422e-05
2.14847e-05
1.73448e-05
1.35861e-05
1.03178e-05
7.24156e-06
3.00652e-06
3.86758e-08
2.89571e-08
2.13042e-06
7.60683e-06
1.25989e-05
1.63272e-05
1.884e-05
2.0378e-05
2.1229e-05
2.17087e-05
2.21406e-05
2.27785e-05
2.37074e-05
2.48253e-05
2.59374e-05
2.68695e-05
2.75242e-05
2.78825e-05
2.79848e-05
2.78864e-05
2.77079e-05
2.7449e-05
2.72699e-05
2.71089e-05
2.64795e-05
2.64145e-05
2.69307e-05
2.78721e-05
2.90029e-05
3.01597e-05
3.14571e-05
3.27222e-05
3.39503e-05
3.51576e-05
3.63349e-05
3.74243e-05
3.84416e-05
3.9462e-05
4.04137e-05
4.12357e-05
4.20094e-05
4.27006e-05
4.33425e-05
4.39502e-05
4.45514e-05
4.51697e-05
4.58031e-05
4.64333e-05
4.70718e-05
4.77196e-05
4.83804e-05
4.90555e-05
4.97455e-05
5.04482e-05
5.11591e-05
5.18709e-05
5.25716e-05
5.3243e-05
5.3855e-05
5.4375e-05
5.4746e-05
5.48912e-05
5.47958e-05
5.42749e-05
5.31661e-05
5.23619e-05
5.12064e-05
4.93942e-05
4.70842e-05
4.43408e-05
4.12162e-05
3.77476e-05
3.39599e-05
2.98876e-05
2.56183e-05
2.13564e-05
1.7271e-05
1.34324e-05
9.45555e-06
3.85726e-06
4.93839e-08
4.45178e-08
3.08426e-06
1.01089e-05
1.61207e-05
2.03535e-05
2.30461e-05
2.45884e-05
2.53937e-05
2.58871e-05
2.64461e-05
2.72813e-05
2.83738e-05
2.95414e-05
3.05686e-05
3.13033e-05
3.16857e-05
3.17342e-05
3.15755e-05
3.11505e-05
3.08287e-05
3.02909e-05
2.94107e-05
2.92634e-05
2.99558e-05
3.09129e-05
3.19214e-05
3.30752e-05
3.42275e-05
3.53309e-05
3.63943e-05
3.73081e-05
3.81739e-05
3.89691e-05
3.96588e-05
4.02067e-05
4.06966e-05
4.10871e-05
4.14723e-05
4.17638e-05
4.20176e-05
4.22436e-05
4.24595e-05
4.2658e-05
4.28464e-05
4.30309e-05
4.32101e-05
4.33904e-05
4.35798e-05
4.3787e-05
4.40227e-05
4.42981e-05
4.4625e-05
4.5016e-05
4.54797e-05
4.60166e-05
4.66235e-05
4.73101e-05
4.80478e-05
4.8806e-05
4.95295e-05
5.02084e-05
5.06443e-05
5.07973e-05
5.06379e-05
4.97969e-05
4.93174e-05
4.8111e-05
4.63523e-05
4.41022e-05
4.1449e-05
3.84682e-05
3.51924e-05
3.16044e-05
2.76743e-05
2.35487e-05
1.9357e-05
1.5243e-05
1.07647e-05
4.26694e-06
5.33394e-08
6.60968e-08
4.32492e-06
1.30216e-05
1.99367e-05
2.44772e-05
2.71561e-05
2.85608e-05
2.92625e-05
2.978e-05
3.04731e-05
3.14468e-05
3.25773e-05
3.36391e-05
3.44345e-05
3.4861e-05
3.49171e-05
3.44404e-05
3.39851e-05
3.35116e-05
3.23222e-05
3.19835e-05
3.24564e-05
3.32995e-05
3.40557e-05
3.49413e-05
3.58244e-05
3.67146e-05
3.74831e-05
3.8149e-05
3.87359e-05
3.9249e-05
3.96745e-05
4.0002e-05
4.02391e-05
4.04005e-05
4.05156e-05
4.05811e-05
4.06214e-05
4.06075e-05
4.05941e-05
4.05803e-05
4.05169e-05
4.046e-05
4.03757e-05
4.0293e-05
4.01898e-05
4.00831e-05
3.99662e-05
3.98493e-05
3.97382e-05
3.9648e-05
3.95958e-05
3.961e-05
3.97322e-05
3.999e-05
4.03511e-05
4.09089e-05
4.16535e-05
4.25527e-05
4.35339e-05
4.4606e-05
4.56244e-05
4.65317e-05
4.69717e-05
4.70577e-05
4.65387e-05
4.62923e-05
4.50835e-05
4.32296e-05
4.08625e-05
3.81317e-05
3.51523e-05
3.1962e-05
2.84751e-05
2.4569e-05
2.05375e-05
1.6159e-05
1.10638e-05
4.25707e-06
5.18117e-08
9.49555e-08
5.87112e-06
1.62726e-05
2.3941e-05
2.86086e-05
3.11435e-05
3.23479e-05
3.29413e-05
3.34812e-05
3.42508e-05
3.52385e-05
3.62471e-05
3.7044e-05
3.74658e-05
3.74625e-05
3.69267e-05
3.64496e-05
3.53923e-05
3.46454e-05
3.45919e-05
3.51158e-05
3.5496e-05
3.61101e-05
3.67143e-05
3.74385e-05
3.80462e-05
3.85852e-05
3.89922e-05
3.93142e-05
3.95507e-05
3.97136e-05
3.98074e-05
3.9845e-05
3.98429e-05
3.98154e-05
3.97734e-05
3.9717e-05
3.96521e-05
3.95766e-05
3.95022e-05
3.93815e-05
3.92995e-05
3.924e-05
3.90591e-05
3.89428e-05
3.87762e-05
3.86118e-05
3.84238e-05
3.82219e-05
3.79977e-05
3.77537e-05
3.74844e-05
3.71875e-05
3.68573e-05
3.65297e-05
3.63562e-05
3.63373e-05
3.6638e-05
3.73337e-05
3.81931e-05
3.93789e-05
4.06974e-05
4.20735e-05
4.33553e-05
4.41233e-05
4.42936e-05
4.41266e-05
4.403e-05
4.26517e-05
4.05374e-05
3.78849e-05
3.4903e-05
3.17742e-05
2.8557e-05
2.50302e-05
2.10144e-05
1.66654e-05
1.1236e-05
4.14634e-06
4.81691e-08
1.31972e-07
7.7049e-06
1.97719e-05
2.7977e-05
3.26554e-05
3.49746e-05
3.5959e-05
3.64418e-05
3.69644e-05
3.77089e-05
3.85696e-05
3.93178e-05
3.97486e-05
3.95827e-05
3.90796e-05
3.85731e-05
3.72516e-05
3.67357e-05
3.67691e-05
3.68169e-05
3.70713e-05
3.74836e-05
3.79776e-05
3.84232e-05
3.88493e-05
3.91401e-05
3.93557e-05
3.94738e-05
3.95412e-05
3.95598e-05
3.9552e-05
3.95278e-05
3.95013e-05
3.94797e-05
3.94657e-05
3.9459e-05
3.9457e-05
3.94572e-05
3.94519e-05
3.94297e-05
3.94129e-05
3.94002e-05
3.93351e-05
3.92606e-05
3.91803e-05
3.90658e-05
3.89359e-05
3.87767e-05
3.85914e-05
3.8371e-05
3.81161e-05
3.78193e-05
3.74738e-05
3.70738e-05
3.66074e-05
3.60732e-05
3.54678e-05
3.48108e-05
3.42548e-05
3.43785e-05
3.51022e-05
3.62444e-05
3.77363e-05
3.93732e-05
4.10013e-05
4.20095e-05
4.22571e-05
4.23374e-05
4.23506e-05
4.07066e-05
3.82411e-05
3.5181e-05
3.18222e-05
2.84292e-05
2.50125e-05
2.12105e-05
1.67e-05
1.0983e-05
3.85573e-06
4.40429e-08
1.77478e-07
9.7455e-06
2.3345e-05
3.19658e-05
3.65615e-05
3.86244e-05
3.93784e-05
3.97261e-05
4.01576e-05
4.07587e-05
4.13645e-05
4.17489e-05
4.1471e-05
4.09018e-05
4.03103e-05
3.92149e-05
3.86361e-05
3.83783e-05
3.81273e-05
3.8263e-05
3.84928e-05
3.87937e-05
3.9075e-05
3.92813e-05
3.94264e-05
3.94784e-05
3.94946e-05
3.94758e-05
3.94605e-05
3.94522e-05
3.94681e-05
3.95087e-05
3.95759e-05
3.96643e-05
3.9767e-05
3.98751e-05
3.99771e-05
4.00885e-05
4.01574e-05
4.01949e-05
4.02674e-05
4.0265e-05
4.02522e-05
4.02085e-05
4.01413e-05
4.00443e-05
3.99245e-05
3.97792e-05
3.96126e-05
3.94234e-05
3.92027e-05
3.89441e-05
3.86358e-05
3.82594e-05
3.7807e-05
3.7254e-05
3.65818e-05
3.57799e-05
3.48721e-05
3.39218e-05
3.29846e-05
3.2929e-05
3.39201e-05
3.53812e-05
3.72722e-05
3.91605e-05
4.04302e-05
4.07753e-05
4.09431e-05
4.09627e-05
3.90223e-05
3.61338e-05
3.25874e-05
2.87778e-05
2.50189e-05
2.11719e-05
1.66551e-05
1.07088e-05
3.5807e-06
4.0632e-08
2.32316e-07
1.18232e-05
2.68551e-05
3.58202e-05
4.02814e-05
4.20657e-05
4.25711e-05
4.27344e-05
4.29826e-05
4.33259e-05
4.35714e-05
4.31982e-05
4.2532e-05
4.18614e-05
4.09227e-05
4.02269e-05
3.96066e-05
3.92899e-05
3.91506e-05
3.92501e-05
3.93598e-05
3.94809e-05
3.95467e-05
3.95579e-05
3.95372e-05
3.94955e-05
3.94772e-05
3.94873e-05
3.95471e-05
3.96507e-05
3.97989e-05
3.99796e-05
4.01831e-05
4.03958e-05
4.06149e-05
4.08497e-05
4.1002e-05
4.11113e-05
4.13087e-05
4.13853e-05
4.14737e-05
4.15026e-05
4.15129e-05
4.14839e-05
4.14248e-05
4.13313e-05
4.12068e-05
4.10501e-05
4.08621e-05
4.06425e-05
4.03911e-05
4.01085e-05
3.97944e-05
3.94481e-05
3.90667e-05
3.86267e-05
3.80745e-05
3.73602e-05
3.64629e-05
3.53751e-05
3.41481e-05
3.2921e-05
3.18247e-05
3.20907e-05
3.35774e-05
3.55093e-05
3.76445e-05
3.91671e-05
3.96064e-05
3.97735e-05
3.96605e-05
3.73621e-05
3.39861e-05
2.99183e-05
2.56095e-05
2.13586e-05
1.66376e-05
1.06867e-05
3.50811e-06
3.94148e-08
2.98934e-07
1.3743e-05
3.02109e-05
3.94822e-05
4.37796e-05
4.52673e-05
4.54927e-05
4.54059e-05
4.53753e-05
4.53602e-05
4.48734e-05
4.40907e-05
4.33623e-05
4.24966e-05
4.16903e-05
4.07435e-05
4.0228e-05
3.99376e-05
3.98068e-05
3.97928e-05
3.9756e-05
3.97177e-05
3.96485e-05
3.95825e-05
3.95448e-05
3.95555e-05
3.96359e-05
3.97809e-05
3.99895e-05
4.02444e-05
4.05336e-05
4.08392e-05
4.11559e-05
4.14923e-05
4.17929e-05
4.19902e-05
4.22162e-05
4.24499e-05
4.26317e-05
4.27604e-05
4.28685e-05
4.29302e-05
4.29617e-05
4.29528e-05
4.29082e-05
4.28256e-05
4.27063e-05
4.25497e-05
4.23561e-05
4.21252e-05
4.18566e-05
4.15492e-05
4.12014e-05
4.08107e-05
4.03747e-05
3.98918e-05
3.93611e-05
3.87784e-05
3.80735e-05
3.71502e-05
3.59585e-05
3.45593e-05
3.30574e-05
3.16835e-05
3.08584e-05
3.21104e-05
3.39945e-05
3.63642e-05
3.80617e-05
3.85583e-05
3.86398e-05
3.82557e-05
3.55029e-05
3.16056e-05
2.70085e-05
2.21356e-05
1.70419e-05
1.09227e-05
3.64989e-06
4.08033e-08
3.72872e-07
1.56433e-05
3.34009e-05
4.29184e-05
4.70267e-05
4.81973e-05
4.81003e-05
4.76905e-05
4.72914e-05
4.66215e-05
4.56863e-05
4.49143e-05
4.40118e-05
4.30708e-05
4.18957e-05
4.10894e-05
4.06182e-05
4.03124e-05
4.01238e-05
3.99885e-05
3.98473e-05
3.9735e-05
3.96509e-05
3.96348e-05
3.96997e-05
3.98528e-05
4.009e-05
4.03935e-05
4.07474e-05
4.11304e-05
4.15274e-05
4.19334e-05
4.23429e-05
4.27174e-05
4.30286e-05
4.33222e-05
4.35915e-05
4.38547e-05
4.40804e-05
4.4251e-05
4.43912e-05
4.4489e-05
4.45492e-05
4.45672e-05
4.45442e-05
4.44785e-05
4.43703e-05
4.42192e-05
4.40255e-05
4.3789e-05
4.35099e-05
4.31873e-05
4.28197e-05
4.24038e-05
4.1935e-05
4.14075e-05
4.08158e-05
4.01575e-05
3.94366e-05
3.86556e-05
3.77025e-05
3.64621e-05
3.49334e-05
3.32252e-05
3.15307e-05
3.02127e-05
3.08429e-05
3.27374e-05
3.52376e-05
3.70178e-05
3.74975e-05
3.74181e-05
3.65502e-05
3.32619e-05
2.8862e-05
2.36618e-05
1.80823e-05
1.17159e-05
4.10522e-06
4.67271e-08
4.52016e-07
1.74873e-05
3.63823e-05
4.60959e-05
4.99971e-05
5.08284e-05
5.03621e-05
4.95575e-05
4.85885e-05
4.7431e-05
4.66061e-05
4.55069e-05
4.44325e-05
4.30764e-05
4.19931e-05
4.12694e-05
4.07948e-05
4.0447e-05
4.01924e-05
3.99869e-05
3.98262e-05
3.97455e-05
3.97534e-05
3.9873e-05
4.00968e-05
4.04138e-05
4.0803e-05
4.12411e-05
4.17087e-05
4.21874e-05
4.26651e-05
4.3132e-05
4.35766e-05
4.39989e-05
4.43893e-05
4.47335e-05
4.50677e-05
4.53372e-05
4.56107e-05
4.58507e-05
4.60287e-05
4.61699e-05
4.62667e-05
4.6317e-05
4.632e-05
4.62734e-05
4.61767e-05
4.60294e-05
4.58316e-05
4.55842e-05
4.52884e-05
4.49453e-05
4.45555e-05
4.41181e-05
4.36296e-05
4.30833e-05
4.24688e-05
4.17738e-05
4.09881e-05
4.01116e-05
3.91631e-05
3.81167e-05
3.68041e-05
3.51479e-05
3.32886e-05
3.13932e-05
2.98439e-05
2.98073e-05
3.1667e-05
3.42349e-05
3.59744e-05
3.63113e-05
3.60968e-05
3.43445e-05
3.06057e-05
2.55522e-05
1.96883e-05
1.29833e-05
4.96513e-06
6.10234e-08
5.33779e-07
1.92328e-05
3.91151e-05
4.89899e-05
5.26727e-05
5.31486e-05
5.22748e-05
5.09578e-05
4.9518e-05
4.85502e-05
4.70891e-05
4.58734e-05
4.43308e-05
4.29918e-05
4.19875e-05
4.12974e-05
4.07989e-05
4.0418e-05
4.0138e-05
3.99427e-05
3.98516e-05
3.98864e-05
4.00469e-05
4.03309e-05
4.07143e-05
4.11743e-05
4.16848e-05
4.2224e-05
4.27748e-05
4.33238e-05
4.38619e-05
4.43822e-05
4.48795e-05
4.53516e-05
4.57942e-05
4.62275e-05
4.6625e-05
4.69447e-05
4.72382e-05
4.75469e-05
4.77957e-05
4.79795e-05
4.81227e-05
4.82099e-05
4.82433e-05
4.82183e-05
4.81338e-05
4.79883e-05
4.7782e-05
4.75156e-05
4.71914e-05
4.68126e-05
4.63829e-05
4.59055e-05
4.5382e-05
4.48106e-05
4.41836e-05
4.34864e-05
4.26973e-05
4.17916e-05
4.07521e-05
3.95897e-05
3.83022e-05
3.68555e-05
3.51687e-05
3.31796e-05
3.11746e-05
2.93709e-05
2.89313e-05
3.0706e-05
3.33625e-05
3.48526e-05
3.49165e-05
3.45416e-05
3.18009e-05
2.7264e-05
2.1475e-05
1.45458e-05
5.96829e-06
8.39666e-08
6.15759e-07
2.08428e-05
4.15749e-05
5.15907e-05
5.50451e-05
5.51683e-05
5.37838e-05
5.21098e-05
5.08024e-05
4.89443e-05
4.74796e-05
4.57351e-05
4.41344e-05
4.28393e-05
4.18889e-05
4.12073e-05
4.06963e-05
4.03218e-05
4.00804e-05
3.99724e-05
4.00142e-05
4.02059e-05
4.05311e-05
4.0968e-05
4.14851e-05
4.20571e-05
4.26599e-05
4.32765e-05
4.38942e-05
4.45044e-05
4.51012e-05
4.56807e-05
4.62401e-05
4.67775e-05
4.72906e-05
4.77784e-05
4.82573e-05
4.86788e-05
4.89962e-05
4.93375e-05
4.9692e-05
4.99184e-05
5.01145e-05
5.02441e-05
5.0313e-05
5.03146e-05
5.02465e-05
5.01062e-05
4.98925e-05
4.96055e-05
4.92473e-05
4.88217e-05
4.83345e-05
4.77928e-05
4.72041e-05
4.65744e-05
4.59057e-05
4.51924e-05
4.44178e-05
4.3552e-05
4.25534e-05
4.13797e-05
4.00661e-05
3.85444e-05
3.67097e-05
3.49044e-05
3.29257e-05
3.08124e-05
2.87935e-05
2.81554e-05
2.98693e-05
3.24597e-05
3.37924e-05
3.32757e-05
3.22478e-05
2.84573e-05
2.30489e-05
1.61475e-05
7.00347e-06
1.13513e-07
6.96267e-07
2.22689e-05
4.37605e-05
5.3937e-05
5.70828e-05
5.66714e-05
5.50531e-05
5.33047e-05
5.11701e-05
4.93382e-05
4.73699e-05
4.54893e-05
4.38818e-05
4.26349e-05
4.17201e-05
4.10498e-05
4.05622e-05
4.02472e-05
4.01049e-05
4.0135e-05
4.03365e-05
4.06883e-05
4.11612e-05
4.17245e-05
4.23473e-05
4.30068e-05
4.36844e-05
4.4368e-05
4.50493e-05
4.57229e-05
4.63852e-05
4.70331e-05
4.7664e-05
4.82749e-05
4.88622e-05
4.94219e-05
4.99766e-05
5.04921e-05
5.08596e-05
5.12449e-05
5.16745e-05
5.19662e-05
5.22125e-05
5.239e-05
5.24992e-05
5.2534e-05
5.24901e-05
5.23636e-05
5.21515e-05
5.18523e-05
5.14662e-05
5.09959e-05
5.04471e-05
4.98283e-05
4.91508e-05
4.84272e-05
4.76695e-05
4.68854e-05
4.60733e-05
4.52168e-05
4.42793e-05
4.32022e-05
4.19127e-05
4.04723e-05
3.87505e-05
3.64795e-05
3.44774e-05
3.25125e-05
3.0274e-05
2.80665e-05
2.75047e-05
2.91371e-05
3.13102e-05
3.22028e-05
3.14333e-05
2.90153e-05
2.42122e-05
1.75773e-05
7.93785e-06
1.47812e-07
7.7368e-07
2.3544e-05
4.56677e-05
5.58552e-05
5.86196e-05
5.80701e-05
5.64497e-05
5.41133e-05
5.15596e-05
4.9319e-05
4.71355e-05
4.51837e-05
4.35973e-05
4.2396e-05
4.15151e-05
4.08812e-05
4.04621e-05
4.02543e-05
4.02507e-05
4.04387e-05
4.0797e-05
4.12912e-05
4.18866e-05
4.25515e-05
4.32599e-05
4.39936e-05
4.47396e-05
4.54898e-05
4.62389e-05
4.69829e-05
4.77186e-05
4.84426e-05
4.91511e-05
4.98396e-05
5.05037e-05
5.11384e-05
5.17615e-05
5.23518e-05
5.27981e-05
5.3224e-05
5.37024e-05
5.40705e-05
5.4363e-05
5.45906e-05
5.47438e-05
5.4818e-05
5.48073e-05
5.47063e-05
5.45101e-05
5.42146e-05
5.38176e-05
5.3319e-05
5.2722e-05
5.20337e-05
5.12656e-05
5.04334e-05
4.95561e-05
4.86528e-05
4.77386e-05
4.68181e-05
4.58769e-05
4.48729e-05
4.37301e-05
4.23399e-05
4.07904e-05
3.86631e-05
3.61485e-05
3.39187e-05
3.19256e-05
2.94903e-05
2.7074e-05
2.69492e-05
2.86791e-05
3.0108e-05
3.01947e-05
2.90681e-05
2.49379e-05
1.86932e-05
8.69548e-06
1.85234e-07
8.45006e-07
2.46298e-05
4.71995e-05
5.73358e-05
5.98593e-05
5.94887e-05
5.7279e-05
5.44066e-05
5.17666e-05
4.91594e-05
4.68278e-05
4.48496e-05
4.32991e-05
4.21446e-05
4.13121e-05
4.07495e-05
4.04389e-05
4.03693e-05
4.05192e-05
4.08608e-05
4.13584e-05
4.19722e-05
4.2668e-05
4.34178e-05
4.42013e-05
4.50052e-05
4.58206e-05
4.6642e-05
4.7465e-05
4.82858e-05
4.90999e-05
4.99026e-05
5.06886e-05
5.14523e-05
5.21883e-05
5.28911e-05
5.35747e-05
5.42318e-05
5.47489e-05
5.52073e-05
5.57268e-05
5.61642e-05
5.64998e-05
5.67754e-05
5.69735e-05
5.70912e-05
5.71214e-05
5.70575e-05
5.68926e-05
5.66203e-05
5.62352e-05
5.57336e-05
5.51148e-05
5.4382e-05
5.35435e-05
5.2614e-05
5.1614e-05
5.05693e-05
4.95075e-05
4.84525e-05
4.74162e-05
4.63878e-05
4.53219e-05
4.41273e-05
4.26622e-05
4.08722e-05
3.8332e-05
3.56352e-05
3.32396e-05
3.11356e-05
2.83553e-05
2.58763e-05
2.62581e-05
2.81381e-05
2.91762e-05
2.80327e-05
2.51762e-05
1.94493e-05
9.27144e-06
2.24584e-07
9.07689e-07
2.54994e-05
4.83522e-05
5.84492e-05
6.10887e-05
6.05058e-05
5.79679e-05
5.47865e-05
5.17194e-05
4.89071e-05
4.64823e-05
4.45083e-05
4.30035e-05
4.19048e-05
4.11445e-05
4.06862e-05
4.05103e-05
4.05903e-05
4.08898e-05
4.1369e-05
4.19853e-05
4.26994e-05
4.34809e-05
4.43069e-05
4.51625e-05
4.60379e-05
4.69269e-05
4.78245e-05
4.87257e-05
4.96253e-05
5.05173e-05
5.13952e-05
5.22525e-05
5.30827e-05
5.38801e-05
5.46393e-05
5.53685e-05
5.60802e-05
5.66597e-05
5.71383e-05
5.76872e-05
5.81838e-05
5.85569e-05
5.88752e-05
5.91166e-05
5.9279e-05
5.93548e-05
5.93367e-05
5.92164e-05
5.89854e-05
5.86354e-05
5.81588e-05
5.75503e-05
5.68079e-05
5.59345e-05
5.49398e-05
5.38413e-05
5.26654e-05
5.14455e-05
5.02186e-05
4.90183e-05
4.78635e-05
4.67452e-05
4.56111e-05
4.43508e-05
4.27838e-05
4.0654e-05
3.77918e-05
3.494e-05
3.24468e-05
3.01135e-05
2.7042e-05
2.49532e-05
2.55878e-05
2.67862e-05
2.6963e-05
2.51048e-05
1.98525e-05
9.63412e-06
2.6572e-07
9.60337e-07
2.61591e-05
4.91774e-05
5.93235e-05
6.20025e-05
6.12331e-05
5.8265e-05
5.48958e-05
5.15679e-05
4.85998e-05
4.61236e-05
4.41748e-05
4.27255e-05
4.1698e-05
4.10349e-05
4.07042e-05
4.06735e-05
4.08998e-05
4.13354e-05
4.19337e-05
4.26513e-05
4.34525e-05
4.43117e-05
4.52112e-05
4.61399e-05
4.70902e-05
4.80563e-05
4.90322e-05
5.00115e-05
5.09869e-05
5.19504e-05
5.28945e-05
5.38116e-05
5.46954e-05
5.55404e-05
5.6342e-05
5.70977e-05
5.78496e-05
5.8486e-05
5.8969e-05
5.95323e-05
6.00777e-05
6.04812e-05
6.08347e-05
6.11149e-05
6.13199e-05
6.14425e-05
6.14749e-05
6.14083e-05
6.12324e-05
6.09367e-05
6.05103e-05
5.99433e-05
5.92282e-05
5.83611e-05
5.73446e-05
5.61896e-05
5.49174e-05
5.35608e-05
5.21627e-05
5.07712e-05
4.94303e-05
4.81661e-05
4.69701e-05
4.57791e-05
4.44553e-05
4.269e-05
4.0028e-05
3.70109e-05
3.40933e-05
3.14829e-05
2.87375e-05
2.53401e-05
2.42426e-05
2.5212e-05
2.59104e-05
2.44378e-05
1.99033e-05
9.79704e-06
3.08214e-07
1.0022e-06
2.66116e-05
4.97293e-05
5.99162e-05
6.26844e-05
6.1761e-05
5.86418e-05
5.49005e-05
5.13472e-05
4.82647e-05
4.57687e-05
4.38607e-05
4.24782e-05
4.15395e-05
4.09935e-05
4.08014e-05
4.09141e-05
4.12754e-05
4.1831e-05
4.25325e-05
4.33389e-05
4.42195e-05
4.51534e-05
4.61268e-05
4.71308e-05
4.81582e-05
4.9202e-05
5.02545e-05
5.13069e-05
5.23499e-05
5.33743e-05
5.43716e-05
5.53343e-05
5.62563e-05
5.71326e-05
5.79595e-05
5.87343e-05
5.95046e-05
6.01912e-05
6.0667e-05
6.12268e-05
6.18115e-05
6.22371e-05
6.26174e-05
6.29298e-05
6.31726e-05
6.33395e-05
6.3423e-05
6.34138e-05
6.33012e-05
6.30729e-05
6.27158e-05
6.22161e-05
6.15609e-05
6.07398e-05
5.97473e-05
5.85851e-05
5.72659e-05
5.58158e-05
5.42756e-05
5.26991e-05
5.1147e-05
4.96742e-05
4.83126e-05
4.70515e-05
4.5819e-05
4.44669e-05
4.22483e-05
3.91216e-05
3.60944e-05
3.30351e-05
3.026e-05
2.68765e-05
2.36366e-05
2.33397e-05
2.36861e-05
2.34283e-05
1.97906e-05
9.94175e-06
3.54906e-07
1.03314e-06
2.6874e-05
5.00388e-05
6.02534e-05
6.31921e-05
6.20108e-05
5.8762e-05
5.48117e-05
5.10829e-05
4.79213e-05
4.54291e-05
4.35747e-05
4.22712e-05
4.14368e-05
4.10196e-05
4.09669e-05
4.1214e-05
4.16962e-05
4.23573e-05
4.315e-05
4.40374e-05
4.49936e-05
4.60016e-05
4.705e-05
4.81304e-05
4.92344e-05
5.03529e-05
5.14759e-05
5.25925e-05
5.36919e-05
5.47641e-05
5.58005e-05
5.67941e-05
5.77395e-05
5.8633e-05
5.94722e-05
6.02554e-05
6.10229e-05
6.17399e-05
6.22206e-05
6.27539e-05
6.33685e-05
6.38088e-05
6.42067e-05
6.45434e-05
6.48173e-05
6.50231e-05
6.51539e-05
6.52012e-05
6.5154e-05
6.49997e-05
6.47232e-05
6.43084e-05
6.37381e-05
6.2996e-05
6.20686e-05
6.0948e-05
5.96359e-05
5.81475e-05
5.6515e-05
5.47897e-05
5.30389e-05
5.1337e-05
4.97479e-05
4.8301e-05
4.69646e-05
4.56201e-05
4.40389e-05
4.1335e-05
3.80784e-05
3.49307e-05
3.16309e-05
2.85881e-05
2.45839e-05
2.2591e-05
2.26128e-05
2.26953e-05
1.96735e-05
1.02996e-05
4.14868e-07
1.05369e-06
2.69706e-05
5.0094e-05
6.03047e-05
6.3362e-05
6.22837e-05
5.87908e-05
5.46589e-05
5.07952e-05
4.75834e-05
4.5113e-05
4.3323e-05
4.21097e-05
4.13907e-05
4.11059e-05
4.11864e-05
4.15557e-05
4.21457e-05
4.29006e-05
4.37762e-05
4.47399e-05
4.577e-05
4.68521e-05
4.79756e-05
4.9131e-05
5.03079e-05
5.14949e-05
5.26793e-05
5.38489e-05
5.4992e-05
5.60985e-05
5.71603e-05
5.81713e-05
5.91277e-05
6.00269e-05
6.08682e-05
6.16521e-05
6.23966e-05
6.3121e-05
6.36328e-05
6.4116e-05
6.47463e-05
6.5197e-05
6.56038e-05
6.59564e-05
6.62531e-05
6.64901e-05
6.66616e-05
6.676e-05
6.67752e-05
6.66945e-05
6.65027e-05
6.61818e-05
6.5712e-05
6.50723e-05
6.42424e-05
6.32053e-05
6.19511e-05
6.04816e-05
5.88162e-05
5.6996e-05
5.50859e-05
5.31706e-05
5.13413e-05
4.96737e-05
4.81993e-05
4.68772e-05
4.55701e-05
4.3345e-05
4.00623e-05
3.68936e-05
3.34614e-05
2.98762e-05
2.61831e-05
2.23038e-05
2.13329e-05
2.11386e-05
1.93725e-05
1.09388e-05
4.958e-07
1.06386e-06
2.68979e-05
4.98901e-05
6.02329e-05
6.34953e-05
6.23175e-05
5.8728e-05
5.44622e-05
5.04996e-05
4.72609e-05
4.48258e-05
4.31092e-05
4.19951e-05
4.13969e-05
4.12417e-05
4.14456e-05
4.19251e-05
4.26116e-05
4.34515e-05
4.44042e-05
4.54414e-05
4.65444e-05
4.76997e-05
4.88964e-05
5.01229e-05
5.13663e-05
5.26127e-05
5.3848e-05
5.50586e-05
5.62329e-05
5.73613e-05
5.84366e-05
5.94541e-05
6.04111e-05
6.13065e-05
6.21409e-05
6.29159e-05
6.36342e-05
6.4352e-05
6.49053e-05
6.53439e-05
6.59489e-05
6.64158e-05
6.68235e-05
6.71835e-05
6.74943e-05
6.77535e-05
6.79567e-05
6.80978e-05
6.81678e-05
6.81551e-05
6.80449e-05
6.7819e-05
6.74561e-05
6.6932e-05
6.62213e-05
6.52993e-05
6.41451e-05
6.2747e-05
6.11086e-05
5.92555e-05
5.72408e-05
5.51467e-05
5.30762e-05
5.11334e-05
4.93921e-05
4.78593e-05
4.64456e-05
4.49442e-05
4.20836e-05
3.8644e-05
3.52964e-05
3.1647e-05
2.77621e-05
2.32369e-05
2.09176e-05
1.96999e-05
1.88845e-05
1.16238e-05
5.97336e-07
1.06316e-06
2.67246e-05
4.9634e-05
6.0009e-05
6.349e-05
6.22482e-05
5.85956e-05
5.42379e-05
5.02077e-05
4.69606e-05
4.45709e-05
4.29345e-05
4.19253e-05
4.14482e-05
4.14158e-05
4.17324e-05
4.23112e-05
4.30849e-05
4.40031e-05
4.50289e-05
4.61373e-05
4.73114e-05
4.85376e-05
4.98034e-05
5.10948e-05
5.23964e-05
5.36924e-05
5.49675e-05
5.6208e-05
5.74025e-05
5.85426e-05
5.96222e-05
6.0638e-05
6.15886e-05
6.2474e-05
6.32957e-05
6.40555e-05
6.47553e-05
6.54526e-05
6.60482e-05
6.64461e-05
6.70082e-05
6.74872e-05
6.78898e-05
6.82493e-05
6.85654e-05
6.8837e-05
6.90616e-05
6.92346e-05
6.93489e-05
6.93943e-05
6.93575e-05
6.92209e-05
6.8963e-05
6.85582e-05
6.79777e-05
6.71907e-05
6.61676e-05
6.48838e-05
6.33268e-05
6.15037e-05
5.94505e-05
5.72382e-05
5.49725e-05
5.27805e-05
5.07819e-05
4.90479e-05
4.75609e-05
4.61928e-05
4.39291e-05
4.04294e-05
3.72251e-05
3.32314e-05
2.9116e-05
2.47451e-05
2.08041e-05
1.91951e-05
1.84746e-05
1.22485e-05
7.15207e-07
1.05745e-06
2.64552e-05
4.92034e-05
5.95904e-05
6.32718e-05
6.2076e-05
5.84086e-05
5.39987e-05
4.9928e-05
4.66871e-05
4.43499e-05
4.27985e-05
4.18962e-05
4.15367e-05
4.16184e-05
4.20372e-05
4.27057e-05
4.35591e-05
4.45501e-05
4.56456e-05
4.68226e-05
4.80649e-05
4.9358e-05
5.06871e-05
5.20357e-05
5.33864e-05
5.47221e-05
5.6027e-05
5.72877e-05
5.84938e-05
5.9638e-05
6.07159e-05
6.17254e-05
6.26662e-05
6.35396e-05
6.43479e-05
6.50937e-05
6.57799e-05
6.64423e-05
6.70574e-05
6.74522e-05
6.79543e-05
6.84385e-05
6.88315e-05
6.91834e-05
6.94963e-05
6.97706e-05
7.00056e-05
7.01986e-05
7.03446e-05
7.04355e-05
7.04599e-05
7.04018e-05
7.02406e-05
6.99507e-05
6.95017e-05
6.88589e-05
6.79857e-05
6.6847e-05
6.54152e-05
6.3678e-05
6.16499e-05
5.93819e-05
5.69686e-05
5.45426e-05
5.22519e-05
5.02162e-05
4.84733e-05
4.69324e-05
4.53506e-05
4.2279e-05
3.87477e-05
3.51713e-05
3.0794e-05
2.61983e-05
2.10214e-05
1.8705e-05
1.74727e-05
1.28924e-05
8.36959e-07
1.04486e-06
2.61294e-05
4.85166e-05
5.9055e-05
6.29222e-05
6.18166e-05
5.81794e-05
5.37543e-05
4.96668e-05
4.64435e-05
4.41636e-05
4.2699e-05
4.19025e-05
4.16546e-05
4.18409e-05
4.23521e-05
4.31021e-05
4.40288e-05
4.50881e-05
4.62496e-05
4.74919e-05
4.87982e-05
5.01527e-05
5.15379e-05
5.29355e-05
5.43264e-05
5.56927e-05
5.70189e-05
5.82924e-05
5.9504e-05
6.0648e-05
6.17211e-05
6.27227e-05
6.36535e-05
6.45157e-05
6.53122e-05
6.60463e-05
6.67213e-05
6.73453e-05
6.79703e-05
6.83786e-05
6.88155e-05
6.92982e-05
6.9678e-05
7.00162e-05
7.0318e-05
7.05857e-05
7.08203e-05
7.1021e-05
7.11854e-05
7.13077e-05
7.13787e-05
7.13849e-05
7.13075e-05
7.11221e-05
7.0798e-05
7.02989e-05
6.95835e-05
6.86087e-05
6.73337e-05
6.57286e-05
6.3785e-05
6.15298e-05
5.90378e-05
5.64363e-05
5.38925e-05
5.15757e-05
4.96e-05
4.7965e-05
4.65157e-05
4.38929e-05
4.02373e-05
3.71149e-05
3.22228e-05
2.74958e-05
2.23167e-05
1.85805e-05
1.63433e-05
1.3385e-05
9.34796e-07
1.02531e-06
2.57072e-05
4.77601e-05
5.84281e-05
6.2455e-05
6.14833e-05
5.79184e-05
5.3512e-05
4.94286e-05
4.62317e-05
4.40113e-05
4.26333e-05
4.19389e-05
4.17948e-05
4.20762e-05
4.26712e-05
4.34953e-05
4.44894e-05
4.56125e-05
4.68359e-05
4.81391e-05
4.95043e-05
5.09135e-05
5.23474e-05
5.37858e-05
5.52086e-05
5.65981e-05
5.79391e-05
5.92204e-05
6.04341e-05
6.15759e-05
6.2644e-05
6.36386e-05
6.45616e-05
6.54153e-05
6.62028e-05
6.6927e-05
6.75906e-05
6.8196e-05
6.88136e-05
6.92418e-05
6.96173e-05
7.00927e-05
7.04564e-05
7.07758e-05
7.10598e-05
7.13122e-05
7.1536e-05
7.17326e-05
7.19019e-05
7.20409e-05
7.21432e-05
7.21978e-05
7.21885e-05
7.20929e-05
7.18817e-05
7.15184e-05
7.09593e-05
7.01558e-05
6.90571e-05
6.76175e-05
6.58068e-05
6.3625e-05
6.11193e-05
5.83975e-05
5.56262e-05
5.30032e-05
5.06981e-05
4.87798e-05
4.71676e-05
4.52424e-05
4.16291e-05
3.86012e-05
3.41882e-05
2.90058e-05
2.36809e-05
1.90331e-05
1.57014e-05
1.35813e-05
9.79687e-07
9.99894e-07
2.51818e-05
4.68915e-05
5.77054e-05
6.18925e-05
6.10883e-05
5.76338e-05
5.32775e-05
4.92166e-05
4.60526e-05
4.3892e-05
4.25979e-05
4.19999e-05
4.19512e-05
4.23186e-05
4.29892e-05
4.38807e-05
4.49368e-05
4.61188e-05
4.73995e-05
4.87583e-05
5.01762e-05
5.16332e-05
5.31083e-05
5.45799e-05
5.60279e-05
5.74346e-05
5.8786e-05
6.00723e-05
6.12869e-05
6.2427e-05
6.34919e-05
6.44827e-05
6.54016e-05
6.62512e-05
6.70343e-05
6.77532e-05
6.84099e-05
6.9006e-05
6.96054e-05
7.00571e-05
7.03809e-05
7.08438e-05
7.11891e-05
7.14857e-05
7.17459e-05
7.19755e-05
7.21791e-05
7.23607e-05
7.25223e-05
7.26639e-05
7.27819e-05
7.28685e-05
7.29104e-05
7.28879e-05
7.27741e-05
7.25334e-05
7.21219e-05
7.14879e-05
7.05737e-05
6.93211e-05
6.76805e-05
6.56255e-05
6.31727e-05
6.04018e-05
5.7467e-05
5.45831e-05
5.19723e-05
4.97791e-05
4.7984e-05
4.63635e-05
4.32141e-05
3.99142e-05
3.61763e-05
3.0269e-05
2.47621e-05
1.90139e-05
1.5833e-05
1.35702e-05
9.87434e-07
9.70051e-07
2.46226e-05
4.59366e-05
5.6894e-05
6.12506e-05
6.06425e-05
5.73324e-05
5.30548e-05
4.90328e-05
4.59064e-05
4.38041e-05
4.25893e-05
4.20806e-05
4.21185e-05
4.25632e-05
4.33018e-05
4.42543e-05
4.53668e-05
4.66025e-05
4.79352e-05
4.93438e-05
5.08077e-05
5.23055e-05
5.38147e-05
5.53131e-05
5.67806e-05
5.82004e-05
5.95597e-05
6.085e-05
6.20663e-05
6.32068e-05
6.42719e-05
6.52633e-05
6.61833e-05
6.70344e-05
6.78188e-05
6.85382e-05
6.91938e-05
6.97863e-05
7.03629e-05
7.08307e-05
7.11236e-05
7.15675e-05
7.18924e-05
7.21632e-05
7.23949e-05
7.25952e-05
7.27706e-05
7.29272e-05
7.30698e-05
7.3201e-05
7.33203e-05
7.3423e-05
7.34993e-05
7.35326e-05
7.34987e-05
7.33646e-05
7.30873e-05
7.26142e-05
7.18834e-05
7.08277e-05
6.93817e-05
6.74947e-05
6.51511e-05
6.23959e-05
5.93564e-05
5.62451e-05
5.33212e-05