/*--------------------------------*- C++ -*----------------------------------*\
  =========                 |
  \\      /  F ield         | OpenFOAM: The Open Source CFD Toolbox
   \\    /   O peration     | Website:  https://openfoam.org
    \\  /    A nd           | Version:  13
     \\/     M anipulation  |
\*---------------------------------------------------------------------------*/
FoamFile
{
    format      ascii;
    class       volScalarField;
    location    "7.9";
    object      p;
}
// * * * * * * * * * * * * * * * * * * * * * * * * * * * * * * * * * * * * * //

dimensions      [0 2 -2 0 0 0 0];

internalField   nonuniform List<scalar> 
6400
(
-5.32391e-11
2.00009e-05
2.89202e-05
1.34228e-05
-3.17228e-05
-0.000101318
-0.000185599
-0.000275343
-0.000364226
-0.000449144
-0.000530796
-0.000613414
-0.000701721
-0.000800883
-0.00091609
-0.00105145
-0.00120992
-0.00139316
-0.00160245
-0.00183846
-0.00210159
-0.00239325
-0.00271636
-0.00307548
-0.00347704
-0.0039258
-0.00441656
-0.0049403
-0.00547434
-0.00598391
-0.00646412
-0.00692291
-0.00735839
-0.00776783
-0.00814586
-0.00848379
-0.00877018
-0.0089918
-0.00913474
-0.00918516
-0.0091299
-0.0089577
-0.0086604
-0.00823382
-0.00767561
-0.00697782
-0.00613256
-0.00515772
-0.00407013
-0.00287685
-0.00159857
-0.000256616
0.00111983
0.00249815
0.00383769
0.00509321
0.00622044
0.00717784
0.00792594
0.00843362
0.00868275
0.00867158
0.00841417
0.00792971
0.00728248
0.00652202
0.00571417
0.00492202
0.00420219
0.00358455
0.00310369
0.00277007
0.00255348
0.00242824
0.00237473
0.00236933
0.00239281
0.00243003
0.00247034
0.00249776
-1.51415e-05
5.2636e-06
9.47943e-06
-1.10473e-05
-5.90744e-05
-0.000128611
-0.000208899
-0.000291353
-0.000370978
-0.000446449
-0.000519869
-0.000595321
-0.000677634
-0.00077156
-0.000880971
-0.00100943
-0.00116022
-0.00133584
-0.00153688
-0.00176356
-0.00201488
-0.00229142
-0.00259639
-0.00293236
-0.00330247
-0.00371403
-0.0041745
-0.00468236
-0.00522363
-0.00577397
-0.00630543
-0.00680869
-0.00728578
-0.00773362
-0.00814645
-0.00851552
-0.00882962
-0.00907614
-0.00924193
-0.0093144
-0.00928152
-0.00913318
-0.00886167
-0.00846119
-0.00792685
-0.00725478
-0.00645201
-0.00552601
-0.00447857
-0.00332737
-0.00209041
-0.000790986
0.000542887
0.00187771
0.00317571
0.00439669
0.00549793
0.00643768
0.00718001
0.00769489
0.00796376
0.00798377
0.00776768
0.00734215
0.00675387
0.00605757
0.005315
0.00458541
0.00392188
0.00336582
0.00293534
0.00263762
0.00245915
0.00237614
0.00236401
0.00239531
0.00243919
0.00247832
0.00251105
0.00253694
-3.13127e-05
-8.71486e-06
-1.02301e-05
-3.99962e-05
-9.60756e-05
-0.00016817
-0.00024449
-0.000316863
-0.000382664
-0.000443564
-0.000503313
-0.000566872
-0.000639257
-0.000724226
-0.000824291
-0.000941301
-0.00107682
-0.00123308
-0.00141232
-0.0016173
-0.0018516
-0.00211843
-0.00242214
-0.00276768
-0.00315932
-0.00359961
-0.00408898
-0.00462346
-0.0051922
-0.00577759
-0.00635967
-0.00692254
-0.0074569
-0.00795623
-0.00841353
-0.0088197
-0.00916447
-0.00943685
-0.00962516
-0.00971798
-0.00970512
-0.00957772
-0.00932869
-0.00895287
-0.00844738
-0.00781146
-0.00704123
-0.00614971
-0.00514326
-0.00403466
-0.0028407
-0.00158307
-0.000288363
0.00101209
0.00228284
0.00348561
0.00457864
0.00552081
0.00627682
0.00681771
0.00712411
0.00719094
0.00703014
0.00666818
0.00614768
0.00552134
0.00484426
0.00417996
0.00357546
0.00306786
0.00268149
0.00242957
0.00229966
0.00226288
0.00228786
0.00235035
0.00242034
0.00247876
0.00252646
0.00256384
-3.97919e-05
-1.82592e-05
-2.73445e-05
-6.83649e-05
-0.000134588
-0.00020982
-0.000282439
-0.000345914
-0.000398905
-0.000443704
-0.0004865
-0.000534005
-0.000591725
-0.000663392
-0.000750737
-0.000854583
-0.000976343
-0.00111884
-0.00128597
-0.0014833
-0.0017179
-0.00199766
-0.00232993
-0.00271731
-0.00316218
-0.0036658
-0.00422414
-0.00482672
-0.00545778
-0.00610062
-0.00673867
-0.00735671
-0.00794246
-0.0084868
-0.00898127
-0.00941663
-0.00978392
-0.0100734
-0.0102751
-0.0103789
-0.0103765
-0.01026
-0.0100229
-0.00966123
-0.00917312
-0.00855704
-0.00781406
-0.00694962
-0.00597096
-0.00488997
-0.00372244
-0.00248859
-0.00121285
7.61623e-05
0.00134508
0.00255581
0.00366764
0.00464044
0.00543696
0.00602723
0.00639027
0.00651697
0.0064167
0.00611577
0.00565383
0.00508017
0.00445177
0.00382786
0.00325887
0.00278271
0.00242334
0.00219142
0.00207921
0.00207033
0.00213477
0.00223226
0.00233429
0.00242319
0.002495
0.00254491
-3.37347e-05
-1.98198e-05
-3.90897e-05
-9.16724e-05
-0.000167446
-0.000245543
-0.000314481
-0.000369224
-0.000409795
-0.000440551
-0.000468707
-0.000501853
-0.000545953
-0.000604694
-0.000680243
-0.000774458
-0.000890492
-0.00103409
-0.00121235
-0.00143343
-0.0017071
-0.00203904
-0.00243399
-0.0028963
-0.00342533
-0.00401513
-0.00465555
-0.0053321
-0.00602721
-0.00672463
-0.00740892
-0.00806752
-0.0086898
-0.00926528
-0.00978481
-0.0102396
-0.0106212
-0.0109208
-0.0111301
-0.0112408
-0.0112453
-0.0111374
-0.0109111
-0.0105625
-0.010091
-0.00949601
-0.00877825
-0.00794039
-0.00698833
-0.0059329
-0.00478943
-0.00357621
-0.00231454
-0.00102911
0.00024882
0.00148037
0.00262561
0.00364684
0.00450596
0.00517009
0.0056159
0.00582977
0.00581477
0.00559229
0.00520265
0.00469287
0.00411752
0.00353418
0.00299537
0.00254141
0.00219901
0.00197843
0.00187585
0.00187489
0.00195015
0.00206832
0.00219621
0.00231299
0.00240767
0.00246697
-4.33258e-06
-4.56113e-06
-3.63254e-05
-0.000102783
-0.000186729
-0.000265925
-0.000330838
-0.000377901
-0.000408396
-0.00042835
-0.000446141
-0.000469782
-0.000505415
-0.00055742
-0.000629647
-0.000726597
-0.000854836
-0.00102318
-0.00124254
-0.00152004
-0.00186337
-0.00227984
-0.00277093
-0.0033336
-0.00395908
-0.00463537
-0.00535029
-0.00608993
-0.00683881
-0.00758171
-0.00830449
-0.00899547
-0.00964444
-0.0102418
-0.010779
-0.0112475
-0.0116388
-0.0119454
-0.0121608
-0.012278
-0.0122903
-0.0121938
-0.0119829
-0.0116536
-0.0112081
-0.0106437
-0.00996039
-0.00916004
-0.00824688
-0.00722929
-0.00612126
-0.00493751
-0.00369496
-0.00241478
-0.00112836
0.000124963
0.00130956
0.00239199
0.00333149
0.00409159
0.00464805
0.00498143
0.00508955
0.00498367
0.00469898
0.00428286
0.00378743
0.00326663
0.00277317
0.00235029
0.00202724
0.00181721
0.00171858
0.00171768
0.00179115
0.00191071
0.00204587
0.00217338
0.00227798
0.00234051
5.87744e-05
4.08759e-05
-7.29556e-06
-9.06358e-05
-0.000179885
-0.000259447
-0.000321147
-0.000362761
-0.000387536
-0.000402711
-0.000417223
-0.000439382
-0.000475996
-0.000533202
-0.000617889
-0.000737695
-0.000902978
-0.00112554
-0.00141374
-0.00177635
-0.00221994
-0.00274562
-0.00334466
-0.00400649
-0.00472106
-0.00547636
-0.00625868
-0.00705412
-0.00784897
-0.00862984
-0.00938419
-0.0101012
-0.0107711
-0.0113851
-0.0119353
-0.0124129
-0.0128097
-0.0131209
-0.0133411
-0.0134651
-0.0134898
-0.0134101
-0.0132216
-0.0129211
-0.0125089
-0.0119809
-0.0113383
-0.0105847
-0.00972532
-0.00876644
-0.00771326
-0.00657649
-0.00537152
-0.00412055
-0.002849
-0.00158448
-0.000357174
0.000796581
0.00182819
0.00270475
0.00339987
0.00388617
0.00415703
0.00421389
0.00408139
0.00380079
0.00342219
0.00299731
0.00257642
0.00220407
0.00191233
0.00171781
0.00162209
0.0016171
0.00167994
0.00178781
0.00191335
0.00203342
0.00213266
0.00219005
0.000165713
0.000127198
5.70581e-05
-4.01989e-05
-0.000134974
-0.000215977
-0.000276584
-0.000317095
-0.000342441
-0.000360941
-0.000381972
-0.000414306
-0.000466119
-0.000546386
-0.000665029
-0.000833541
-0.00106384
-0.00136758
-0.00175325
-0.00222716
-0.00278592
-0.00342127
-0.00412275
-0.00487872
-0.00567628
-0.00650247
-0.00734405
-0.00818814
-0.00902229
-0.00983456
-0.0106139
-0.0113505
-0.012035
-0.0126584
-0.013213
-0.0136915
-0.0140906
-0.0144069
-0.014635
-0.0147707
-0.0148106
-0.0147484
-0.014582
-0.0143094
-0.0139293
-0.0134404
-0.0128443
-0.0121447
-0.0113465
-0.0104537
-0.00946815
-0.00839774
-0.00725617
-0.00606129
-0.00483055
-0.00358149
-0.00234091
-0.00114728
-3.14062e-05
0.000977998
0.00183038
0.00249821
0.00296865
0.00323145
0.00330052
0.00320407
0.00298611
0.00269605
0.002381
0.00208554
0.00184396
0.00167654
0.00158927
0.0015765
0.00162336
0.00171106
0.00181441
0.00191433
0.00199364
0.00203636
0.000321826
0.000262498
0.000167509
5.63065e-05
-4.51172e-05
-0.000129025
-0.000192431
-0.000237763
-0.000271814
-0.000303908
-0.000343928
-0.000401547
-0.000487014
-0.000612378
-0.000790941
-0.00103481
-0.00135677
-0.00176814
-0.00227186
-0.0028637
-0.00353645
-0.00427865
-0.00507719
-0.00591864
-0.00678987
-0.00767797
-0.00857057
-0.00945566
-0.0103218
-0.0111581
-0.0119547
-0.0127024
-0.0133918
-0.0140156
-0.0145686
-0.015049
-0.0154552
-0.0157796
-0.0160171
-0.0161628
-0.0162119
-0.0161637
-0.0160173
-0.0157721
-0.0154239
-0.0149759
-0.0144287
-0.0137839
-0.0130438
-0.0122117
-0.0112935
-0.0102961
-0.00922951
-0.00810637
-0.00693963
-0.0057395
-0.00452384
-0.00331905
-0.00214656
-0.00104653
-5.3496e-05
0.000812966
0.00150263
0.00200351
0.00231606
0.00245304
0.00244287
0.00232996
0.00215754
0.00196819
0.00179937
0.00167504
0.0016056
0.0015899
0.00161883
0.00167867
0.00175165
0.00182239
0.00187103
0.00189476
0.000534556
0.000451979
0.000329395
0.000202898
9.22125e-05
2.19666e-06
-6.89432e-05
-0.000126512
-0.000179163
-0.000237183
-0.00031116
-0.000412049
-0.000552678
-0.00074794
-0.00101167
-0.00135606
-0.00179294
-0.00232656
-0.00295286
-0.00366338
-0.00444659
-0.00528807
-0.0061743
-0.00709158
-0.00802709
-0.00896826
-0.00990337
-0.0108211
-0.011711
-0.012563
-0.0133684
-0.0141189
-0.0148087
-0.0154335
-0.0159884
-0.0164694
-0.0168711
-0.0171888
-0.0174204
-0.0175646
-0.0176192
-0.0175827
-0.0174549
-0.0172352
-0.0169213
-0.0165147
-0.0160168
-0.0154291
-0.014753
-0.0139912
-0.0131477
-0.0122275
-0.011237
-0.010183
-0.00907421
-0.00792423
-0.0067517
-0.00557187
-0.00439653
-0.00324672
-0.0021458
-0.00113073
-0.000236662
0.000518841
0.00109994
0.00150911
0.00175337
0.00186173
0.00187212
0.0018222
0.00175015
0.00168656
0.00164728
0.00163648
0.00164992
0.00168043
0.0017186
0.00175268
0.00176765
0.00177248
0.000806081
0.000694483
0.000542915
0.000395888
0.000273828
0.000173287
8.80721e-05
9.42117e-06
-7.32658e-05
-0.000171242
-0.000295898
-0.000460063
-0.000678726
-0.000967228
-0.00133867
-0.00180344
-0.00236715
-0.00302803
-0.00377692
-0.00460102
-0.00548634
-0.00641804
-0.00738239
-0.00836586
-0.00935591
-0.0103404
-0.0113083
-0.012249
-0.013153
-0.0140118
-0.0148178
-0.0155647
-0.0162477
-0.0168624
-0.0174053
-0.0178734
-0.018263
-0.0185714
-0.0187973
-0.0189398
-0.0189978
-0.0189707
-0.0188581
-0.0186598
-0.0183754
-0.0180058
-0.0175521
-0.017016
-0.0163992
-0.015704
-0.0149335
-0.0140912
-0.0131813
-0.012208
-0.0111761
-0.010093
-0.00896828
-0.00781284
-0.0066448
-0.00548355
-0.00433858
-0.00322643
-0.0021669
-0.00119963
-0.000351347
0.000344044
0.000876329
0.00124925
0.0014849
0.00161341
0.0016678
0.00168343
0.00168674
0.00168918
0.00169338
0.0016971
0.00169971
0.00169458
0.00167761
0.00166592
0.00112436
0.000983053
0.000796162
0.00062574
0.000489032
0.000373594
0.000267084
0.000157433
3.22456e-05
-0.000120547
-0.000313567
-0.000560944
-0.00087829
-0.00127969
-0.00177551
-0.00237153
-0.0030673
-0.00385461
-0.00472019
-0.00564963
-0.00662769
-0.00763968
-0.00867173
-0.00971058
-0.0107439
-0.0117603
-0.0127492
-0.0137012
-0.0146083
-0.0154632
-0.0162601
-0.016994
-0.0176613
-0.0182588
-0.0187841
-0.0192353
-0.0196103
-0.0199076
-0.0201263
-0.0202656
-0.0203252
-0.0203049
-0.0202046
-0.0200246
-0.0197653
-0.0194275
-0.0190125
-0.0185219
-0.0179575
-0.0173213
-0.0166159
-0.0158441
-0.0150088
-0.0141129
-0.0131596
-0.0121529
-0.0110966
-0.00999547
-0.00885698
-0.00769143
-0.00651486
-0.00534843
-0.00419464
-0.0030714
-0.00200652
-0.00104369
-0.00021773
0.000448736
0.000950544
0.0012998
0.00151969
0.00164073
0.00169995
0.00172339
0.00172353
0.00170552
0.00167566
0.00163477
0.00159116
0.0015653
0.00147521
0.00130248
0.00107561
0.000878936
0.000723863
0.000587662
0.000451718
0.000300539
0.000120173
-0.000102392
-0.000380284
-0.000728508
-0.00116134
-0.00168969
-0.00231965
-0.00305125
-0.00387738
-0.00478507
-0.00575909
-0.00678403
-0.0078443
-0.00892528
-0.0100131
-0.0110949
-0.0121589
-0.0131943
-0.014192
-0.015144
-0.0160437
-0.0168856
-0.0176655
-0.01838
-0.0190265
-0.0196031
-0.0201085
-0.0205412
-0.0209003
-0.0211852
-0.0213953
-0.0215303
-0.02159
-0.0215747
-0.0214847
-0.0213203
-0.0210824
-0.0207721
-0.0203905
-0.0199394
-0.0194204
-0.0188356
-0.0181871
-0.0174771
-0.0167079
-0.0158814
-0.0149998
-0.0140648
-0.0130782
-0.0120415
-0.0109567
-0.00982564
-0.00865287
-0.00744789
-0.00622763
-0.00500739
-0.00379567
-0.00262254
-0.00153171
-0.000570232
0.000224614
0.000834419
0.00126309
0.0015293
0.00166721
0.0017214
0.00172161
0.00168615
0.0016295
0.00155988
0.00149694
0.0014622
0.00184041
0.0016334
0.00136463
0.00113714
0.000959214
0.000795932
0.000622115
0.000419038
0.000171453
-0.000133944
-0.000511281
-0.00097449
-0.00153467
-0.00219838
-0.00296564
-0.00383024
-0.00477999
-0.0057991
-0.00687126
-0.00798036
-0.00911077
-0.010248
-0.0113784
-0.0124897
-0.0135712
-0.0146134
-0.0156088
-0.0165511
-0.0174353
-0.0182577
-0.0190155
-0.0197068
-0.0203301
-0.0208844
-0.0213689
-0.0217831
-0.0221265
-0.0223989
-0.0226004
-0.0227307
-0.02279
-0.0227787
-0.0226973
-0.0225465
-0.022327
-0.0220402
-0.0216873
-0.0212699
-0.0207898
-0.0202489
-0.0196491
-0.0189924
-0.0182804
-0.0175147
-0.0166964
-0.0158261
-0.0149039
-0.0139296
-0.0129022
-0.0118205
-0.0106833
-0.00949013
-0.00824384
-0.00695511
-0.00564718
-0.00433068
-0.00303308
-0.00181124
-0.000723723
0.000174466
0.00085224
0.00130949
0.00156601
0.00167011
0.00167862
0.00162878
0.00154983
0.00145846
0.00138319
0.00134327
0.00219508
0.0019525
0.00163804
0.00137819
0.00117332
0.000976667
0.00075683
0.000492669
0.000167884
-0.000231869
-0.000720292
-0.00130817
-0.0020024
-0.00280298
-0.00370415
-0.00469445
-0.005758
-0.00687736
-0.00803547
-0.00921586
-0.010403
-0.0115826
-0.0127419
-0.0138697
-0.0149566
-0.015995
-0.0169791
-0.0179044
-0.0187677
-0.0195668
-0.0203001
-0.0209668
-0.0215664
-0.0220985
-0.0225629
-0.0229595
-0.0232883
-0.0235493
-0.0237428
-0.0238689
-0.0239278
-0.0239201
-0.0238464
-0.0237073
-0.0235038
-0.0232372
-0.0229088
-0.0225202
-0.0220731
-0.0215693
-0.0210106
-0.0203988
-0.0197354
-0.0190214
-0.0182577
-0.017444
-0.0165796
-0.0156629
-0.0146911
-0.0136608
-0.0125681
-0.0114086
-0.010179
-0.008879
-0.00751491
-0.00610194
-0.00466675
-0.00324275
-0.0018987
-0.000710236
0.000249033
0.000940179
0.00136536
0.00155804
0.00158972
0.00153189
0.00143294
0.00132322
0.00124035
0.0011964
0.00251189
0.00223428
0.00187398
0.00157965
0.00134359
0.00110724
0.000834346
0.000501699
9.13628e-05
-0.000411924
-0.0010187
-0.00173578
-0.00256372
-0.00349681
-0.00452401
-0.0056294
-0.00679463
-0.00800126
-0.0092317
-0.0104694
-0.0116991
-0.0129073
-0.0140825
-0.015215
-0.0162972
-0.0173236
-0.01829
-0.0191938
-0.0200332
-0.0208073
-0.0215157
-0.0221582
-0.022735
-0.0232463
-0.0236921
-0.0240729
-0.0243888
-0.0246399
-0.0248266
-0.0249494
-0.0250084
-0.0250041
-0.0249373
-0.0248087
-0.0246192
-0.0243702
-0.0240628
-0.0236987
-0.0232794
-0.0228068
-0.0222825
-0.0217082
-0.0210852
-0.0204146
-0.0196968
-0.0189314
-0.0181172
-0.0172518
-0.0163317
-0.015352
-0.0143067
-0.0131889
-0.011992
-0.0107105
-0.00934194
-0.00788928
-0.00636793
-0.00481115
-0.0032692
-0.00182471
-0.000576063
0.00038944
0.00103089
0.00136345
0.00145192
0.0013976
0.00128097
0.00115387
0.00106343
0.0010126
0.00277117
0.00245486
0.00204944
0.00171902
0.00144751
0.00116617
0.000835293
0.00042873
-7.43135e-05
-0.000686189
-0.00141342
-0.00225787
-0.00321406
-0.00427113
-0.00541305
-0.00662055
-0.00787368
-0.00915327
-0.0104415
-0.011722
-0.0129804
-0.0142045
-0.0153841
-0.0165116
-0.0175816
-0.0185902
-0.019535
-0.020415
-0.0212296
-0.0219788
-0.0226631
-0.0232829
-0.0238388
-0.0243313
-0.0247608
-0.0251279
-0.0254327
-0.0256756
-0.025857
-0.0259773
-0.0260369
-0.0260361
-0.0259758
-0.0258567
-0.0256797
-0.0254459
-0.0251567
-0.0248135
-0.0244178
-0.0239713
-0.0234757
-0.0229325
-0.022343
-0.0217081
-0.0210283
-0.0203032
-0.0195315
-0.0187105
-0.0178364
-0.0169037
-0.0159056
-0.0148336
-0.0136786
-0.0124312
-0.0110839
-0.00963296
-0.0080823
-0.00645048
-0.00477902
-0.00313792
-0.00163048
-0.000376281
0.000529147
0.0010575
0.00125296
0.0012251
0.00109831
0.000952968
0.000848366
0.000784779
0.00293717
0.00258984
0.0021427
0.0017758
0.00146559
0.00113625
0.000743781
0.000258091
-0.000340015
-0.00106007
-0.00190535
-0.0028709
-0.00394633
-0.00511559
-0.00635855
-0.0076536
-0.0089797
-0.0103173
-0.0116486
-0.0129581
-0.0142324
-0.0154609
-0.0166357
-0.0177511
-0.0188035
-0.0197908
-0.0207122
-0.0215677
-0.0223579
-0.0230836
-0.0237456
-0.0243448
-0.0248821
-0.0253582
-0.0257737
-0.0261291
-0.0264249
-0.0266613
-0.0268387
-0.0269575
-0.0270181
-0.0270211
-0.0269669
-0.0268565
-0.0266906
-0.0264703
-0.0261969
-0.0258716
-0.025496
-0.0250716
-0.0246
-0.0240825
-0.0235206
-0.0229152
-0.0222666
-0.0215746
-0.0208381
-0.0200545
-0.0192201
-0.0183294
-0.0173753
-0.0163488
-0.0152394
-0.0140359
-0.0127265
-0.0113023
-0.00975939
-0.00810439
-0.0063635
-0.00459348
-0.00288621
-0.00136549
-0.000170817
0.000604982
0.000967896
0.00100962
0.000884548
0.000720337
0.000590481
0.000509418
0.00299739
0.00262202
0.00213668
0.00173359
0.00138334
0.00100418
0.000547262
-1.85822e-05
-0.00071033
-0.00153527
-0.00249136
-0.00356864
-0.00475132
-0.0060187
-0.00734757
-0.0087147
-0.0100984
-0.011479
-0.0128394
-0.0141649
-0.015444
-0.016668
-0.0178309
-0.0189291
-0.0199606
-0.0209249
-0.0218226
-0.0226544
-0.0234216
-0.0241255
-0.0247674
-0.0253485
-0.0258696
-0.0263317
-0.0267354
-0.0270812
-0.0273696
-0.0276009
-0.0277755
-0.0278937
-0.0279559
-0.0279626
-0.0279145
-0.027812
-0.0276562
-0.027448
-0.0271884
-0.0268788
-0.0265204
-0.0261147
-0.0256633
-0.0251674
-0.0246283
-0.0240469
-0.0234239
-0.0227591
-0.0220514
-0.0212989
-0.0204981
-0.0196438
-0.0187293
-0.0177455
-0.0166818
-0.0155255
-0.0142633
-0.0128821
-0.0113724
-0.00973092
-0.0079695
-0.00612835
-0.00428774
-0.00255633
-0.00108128
-1.6587e-05
0.000567621
0.000730366
0.000634441
0.00045235
0.000285287
0.000185588
0.00293677
0.00253801
0.00201934
0.00158173
0.00119128
0.0007607
0.000238651
-0.000404395
-0.00118525
-0.00210817
-0.00316553
-0.00434247
-0.00561822
-0.00696829
-0.00836724
-0.00979079
-0.0112169
-0.0126264
-0.0140029
-0.0153334
-0.0166082
-0.0178206
-0.0189666
-0.0200444
-0.0210534
-0.0219945
-0.022869
-0.0236784
-0.0244245
-0.0251089
-0.0257331
-0.0262983
-0.0268057
-0.0272559
-0.0276498
-0.0279878
-0.0282704
-0.0284979
-0.0286706
-0.0287888
-0.0288531
-0.0288637
-0.0288212
-0.0287262
-0.0285796
-0.0283821
-0.0281349
-0.0278389
-0.0274955
-0.027106
-0.0266717
-0.026194
-0.025674
-0.0251126
-0.0245106
-0.0238679
-0.0231839
-0.0224569
-0.0216841
-0.0208609
-0.019981
-0.0190361
-0.0180155
-0.0169067
-0.0156951
-0.0143658
-0.0129049
-0.0113028
-0.00955844
-0.00769329
-0.0057743
-0.00389826
-0.00219156
-0.000835638
2.06338e-05
0.000366415
0.000336929
0.000140042
-7.10708e-05
-0.000188318
0.00274649
0.00232995
0.00178387
0.00131446
0.00088395
0.000402508
-0.000181386
-0.000897247
-0.00176092
-0.00277213
-0.00391897
-0.00518165
-0.00653512
-0.00795196
-0.00940515
-0.0108699
-0.0123242
-0.0137496
-0.015131
-0.0164573
-0.0177207
-0.0189164
-0.0200422
-0.0210978
-0.0220841
-0.0230025
-0.023855
-0.0246438
-0.0253709
-0.026038
-0.0266467
-0.0271984
-0.0276939
-0.0281343
-0.0285201
-0.0288518
-0.0291298
-0.0293545
-0.0295261
-0.029645
-0.0297115
-0.029726
-0.0296889
-0.0296009
-0.0294627
-0.029275
-0.0290388
-0.028755
-0.0284248
-0.0280493
-0.0276299
-0.0271677
-0.0266638
-0.0261193
-0.0255347
-0.0249103
-0.0242457
-0.0235398
-0.0227901
-0.021993
-0.0211429
-0.0202324
-0.0192515
-0.0181881
-0.0170274
-0.0157534
-0.0143499
-0.0128032
-0.0111038
-0.00925352
-0.00729405
-0.00533531
-0.00346444
-0.00184796
-0.000694418
-0.000113435
-3.13085e-05
-0.000224584
-0.000478763
-0.000612099
0.00242418
0.00199596
0.00142899
0.000931078
0.000462148
-6.76618e-05
-0.000708863
-0.00149114
-0.00242873
-0.00351728
-0.00474044
-0.00607403
-0.00748954
-0.00895741
-0.0104496
-0.0119412
-0.0134107
-0.0148407
-0.0162178
-0.0175326
-0.0187793
-0.0199549
-0.0210587
-0.0220916
-0.0230554
-0.0239522
-0.0247845
-0.0255546
-0.0262646
-0.0269165
-0.0275118
-0.0280517
-0.0285373
-0.0289694
-0.0293485
-0.0296751
-0.0299496
-0.0301723
-0.0303435
-0.0304633
-0.0305322
-0.0305506
-0.0305187
-0.0304373
-0.0303068
-0.030128
-0.0299017
-0.0296288
-0.0293103
-0.0289473
-0.0285409
-0.0280922
-0.0276023
-0.0270721
-0.0265023
-0.0258932
-0.0252449
-0.0245564
-0.023826
-0.0230508
-0.0222261
-0.0213455
-0.0204001
-0.0193787
-0.018267
-0.0170487
-0.0157059
-0.0142225
-0.0125845
-0.0107816
-0.00882322
-0.00681166
-0.00484523
-0.00303271
-0.00159837
-0.00074107
-0.000487674
-0.000650588
-0.00093587
-0.00108549
0.00197322
0.00153966
0.000958423
0.000435753
-6.87049e-05
-0.000642342
-0.00133512
-0.00217659
-0.00317792
-0.00433159
-0.00561717
-0.0070067
-0.00846894
-0.00997287
-0.01149
-0.0129956
-0.014469
-0.0158942
-0.0172594
-0.0185572
-0.0197835
-0.0209369
-0.022018
-0.0230283
-0.0239705
-0.0248471
-0.0256607
-0.026414
-0.0271089
-0.0277475
-0.0283311
-0.028861
-0.0293381
-0.0297632
-0.0301368
-0.0304593
-0.030731
-0.0309523
-0.0311234
-0.0312445
-0.0313159
-0.031338
-0.0313111
-0.0312357
-0.0311123
-0.0309417
-0.0307244
-0.0304614
-0.0301535
-0.0298017
-0.0294069
-0.0289702
-0.0284925
-0.0279748
-0.0274178
-0.0268219
-0.0261874
-0.0255137
-0.0247996
-0.0240428
-0.0232398
-0.022385
-0.021471
-0.0204876
-0.0194216
-0.0182571
-0.0169757
-0.0155589
-0.0139903
-0.0122544
-0.0103428
-0.00829748
-0.00628231
-0.00434553
-0.0026737
-0.00152932
-0.00105792
-0.00115431
-0.00144139
-0.00161335
0.00140194
0.000969427
0.000380103
-0.000162717
-0.000698589
-0.00131105
-0.00204895
-0.00294081
-0.00399523
-0.00520148
-0.00653559
-0.00796654
-0.00946109
-0.0109873
-0.0125167
-0.0140251
-0.0154929
-0.0169056
-0.0182534
-0.0195303
-0.0207339
-0.021864
-0.0229222
-0.0239106
-0.0248324
-0.0256902
-0.0264869
-0.027225
-0.0279065
-0.0285333
-0.0291067
-0.0296279
-0.0300978
-0.0305169
-0.0308859
-0.031205
-0.0314746
-0.031695
-0.0318663
-0.0319887
-0.0320626
-0.0320882
-0.032066
-0.0319963
-0.0318796
-0.0317164
-0.0315075
-0.0312535
-0.0309552
-0.0306134
-0.0302291
-0.0298032
-0.0293365
-0.02883
-0.0282843
-0.0277001
-0.0270776
-0.0264167
-0.0257166
-0.0249757
-0.0241913
-0.0233589
-0.0224724
-0.0215229
-0.0204988
-0.0193849
-0.0181633
-0.0168139
-0.0153184
-0.0136597
-0.0118175
-0.00978911
-0.00773321
-0.00573634
-0.00389432
-0.00248655
-0.00176395
-0.00173391
-0.00200014
-0.00220648
0.000722812
0.000297636
-0.000293509
-0.000851654
-0.00141405
-0.0020599
-0.00283626
-0.00376953
-0.00486616
-0.00611258
-0.0074819
-0.00894072
-0.0104545
-0.0119908
-0.0135215
-0.0150232
-0.0164777
-0.0178722
-0.0191983
-0.0204518
-0.0216314
-0.0227379
-0.0237736
-0.0247411
-0.0256437
-0.0264842
-0.0272655
-0.0279899
-0.0286594
-0.0292758
-0.0298402
-0.0303538
-0.0308174
-0.0312314
-0.0315965
-0.0319128
-0.0321806
-0.0324003
-0.032572
-0.0326959
-0.0327722
-0.0328012
-0.0327833
-0.0327189
-0.0326083
-0.0324521
-0.0322508
-0.0320051
-0.0317156
-0.0313831
-0.0310085
-0.0305924
-0.0301357
-0.0296394
-0.029104
-0.0285302
-0.0279185
-0.027269
-0.0265813
-0.0258543
-0.0250861
-0.0242734
-0.0234111
-0.0224918
-0.0215054
-0.0204383
-0.0192733
-0.0179901
-0.0165683
-0.0149894
-0.0132314
-0.0112754
-0.00918233
-0.00716156
-0.00522523
-0.00360533
-0.00262372
-0.00240614
-0.00262912
-0.00288167
-4.70919e-05
-0.000460848
-0.00104736
-0.00161603
-0.00220047
-0.00287425
-0.00368158
-0.00464728
-0.00577552
-0.00705035
-0.00844256
-0.00991703
-0.0114384
-0.0129743
-0.0144971
-0.0159846
-0.01742
-0.0187919
-0.0200936
-0.0213221
-0.0224771
-0.0235603
-0.0245742
-0.0255219
-0.0264066
-0.0272312
-0.0279983
-0.0287104
-0.0293691
-0.0299762
-0.0305327
-0.0310396
-0.0314975
-0.0319071
-0.0322687
-0.0325826
-0.032849
-0.0330682
-0.0332404
-0.0333656
-0.0334443
-0.0334765
-0.0334627
-0.0334031
-0.0332982
-0.0331484
-0.0329542
-0.0327161
-0.0324348
-0.032111
-0.0317452
-0.0313382
-0.0308909
-0.030404
-0.0298781
-0.029314
-0.0287123
-0.0280732
-0.0273966
-0.0266822
-0.0259285
-0.0251332
-0.0242923
-0.0234
-0.0224476
-0.0214232
-0.020311
-0.0190915
-0.0177427
-0.0162452
-0.0145788
-0.0127128
-0.0106331
-0.00859092
-0.00662382
-0.00485877
-0.00364038
-0.0032054
-0.00334563
-0.00366012
-0.000888857
-0.0012887
-0.00186564
-0.0024405
-0.00304204
-0.00373783
-0.00456885
-0.00555827
-0.00670816
-0.00800062
-0.00940469
-0.0108841
-0.0124032
-0.0139299
-0.0154375
-0.0169049
-0.0183168
-0.0196632
-0.0209388
-0.0221417
-0.0232723
-0.0243327
-0.0253258
-0.0262548
-0.0271228
-0.0279327
-0.0286869
-0.0293877
-0.0300367
-0.0306354
-0.0311847
-0.0316856
-0.0321385
-0.0325441
-0.0329027
-0.0332144
-0.0334796
-0.0336984
-0.0338711
-0.0339977
-0.0340785
-0.0341137
-0.0341036
-0.0340486
-0.033949
-0.0338051
-0.0336174
-0.0333865
-0.0331127
-0.0327968
-0.0324394
-0.032041
-0.0316024
-0.0311243
-0.0306075
-0.0300525
-0.0294601
-0.0288307
-0.0281646
-0.0274617
-0.0267212
-0.0259416
-0.02512
-0.0242519
-0.02333
-0.0223443
-0.0212808
-0.0201209
-0.0188432
-0.0174256
-0.0158479
-0.0140793
-0.0120906
-0.0100167
-0.00805349
-0.0062177
-0.00480899
-0.00415042
-0.00416701
-0.00456976
-0.00178424
-0.00216788
-0.00273132
-0.00330799
-0.00392168
-0.0046337
-0.00548169
-0.00648685
-0.0076494
-0.00894993
-0.0103563
-0.0118317
-0.0133403
-0.0148509
-0.0163376
-0.0177807
-0.0191661
-0.0204853
-0.0217341
-0.0229112
-0.0240179
-0.0250564
-0.0260298
-0.0269412
-0.0277937
-0.0285899
-0.0293323
-0.0300228
-0.0306629
-0.0312538
-0.0317966
-0.032292
-0.0327405
-0.0331425
-0.0334982
-0.0338081
-0.0340721
-0.0342906
-0.0344637
-0.0345915
-0.0346743
-0.0347123
-0.0347057
-0.0346548
-0.03456
-0.0344216
-0.03424
-0.0340157
-0.033749
-0.0334406
-0.0330909
-0.0327006
-0.0322703
-0.0318007
-0.0312924
-0.0307461
-0.0301627
-0.0295426
-0.0288863
-0.0281942
-0.027466
-0.0267009
-0.0258969
-0.0250505
-0.0241564
-0.0232059
-0.0221869
-0.021083
-0.019873
-0.0185336
-0.0170435
-0.0153773
-0.0135017
-0.0114317
-0.00948912
-0.00764884
-0.00611265
-0.00524132
-0.00511957
-0.00562535
-0.00271476
-0.00308025
-0.00362675
-0.00420098
-0.00482224
-0.00554526
-0.00640418
-0.00741801
-0.00858537
-0.00988582
-0.0112865
-0.0127505
-0.0142423
-0.0157315
-0.0171932
-0.018609
-0.0199662
-0.0212574
-0.0224792
-0.0236311
-0.0247146
-0.0257322
-0.026687
-0.0275819
-0.02842
-0.0292036
-0.0299351
-0.030616
-0.0312479
-0.0318318
-0.0323686
-0.032859
-0.0333033
-0.0337019
-0.0340551
-0.0343632
-0.0346262
-0.0348444
-0.0350179
-0.0351468
-0.0352314
-0.0352719
-0.0352684
-0.0352214
-0.0351311
-0.0349977
-0.0348217
-0.0346035
-0.0343434
-0.034042
-0.0336997
-0.033317
-0.0328945
-0.0324329
-0.0319329
-0.0313951
-0.0308202
-0.0302091
-0.0295624
-0.0288806
-0.028164
-0.0274124
-0.0266245
-0.0257982
-0.0249292
-0.0240108
-0.0230326
-0.02198
-0.0208336
-0.0195702
-0.0181685
-0.0166072
-0.0148452
-0.0128406
-0.0108979
-0.00909948
-0.00750507
-0.00646158
-0.00622569
-0.006812
-0.00366251
-0.00400771
-0.00453436
-0.00510279
-0.00572756
-0.00645686
-0.00732135
-0.00833777
-0.00950335
-0.010797
-0.0121856
-0.0136324
-0.0151026
-0.0165665
-0.0180006
-0.0193875
-0.0207157
-0.0219789
-0.0231742
-0.0243017
-0.025363
-0.0263609
-0.0272981
-0.0281777
-0.0290023
-0.0297743
-0.0304955
-0.0311677
-0.031792
-0.0323694
-0.0329007
-0.0333863
-0.0338268
-0.0342223
-0.0345731
-0.0348795
-0.0351415
-0.0353594
-0.0355331
-0.0356631
-0.0357493
-0.035792
-0.0357915
-0.0357479
-0.0356616
-0.0355329
-0.0353621
-0.0351495
-0.0348956
-0.0346007
-0.0342652
-0.0338898
-0.0334748
-0.0330209
-0.0325288
-0.0319991
-0.0314327
-0.0308303
-0.0301929
-0.0295211
-0.0288156
-0.0280767
-0.027304
-0.0264961
-0.0256502
-0.0247609
-0.0238199
-0.0228145
-0.0217271
-0.0205358
-0.0192176
-0.0177519
-0.0161036
-0.0142328
-0.0122816
-0.0105339
-0.00893515
-0.00777822
-0.00747454
-0.00809835
-0.00460994
-0.0049331
-0.0054376
-0.00599754
-0.00662239
-0.00735392
-0.00821945
-0.00923342
-0.0103919
-0.0116733
-0.013045
-0.0144704
-0.0159156
-0.0173519
-0.0187568
-0.0201142
-0.0214135
-0.0226491
-0.0238188
-0.024923
-0.0259634
-0.0269427
-0.0278635
-0.0287288
-0.0295409
-0.030302
-0.0310139
-0.0316779
-0.0322951
-0.0328665
-0.0333926
-0.0338739
-0.0343107
-0.0347033
-0.0350519
-0.0353567
-0.0356177
-0.0358352
-0.0360092
-0.03614
-0.0362276
-0.0362724
-0.0362744
-0.036234
-0.0361514
-0.0360269
-0.0358608
-0.0356535
-0.0354052
-0.0351164
-0.0347874
-0.0344187
-0.0340109
-0.0335644
-0.0330799
-0.0325581
-0.0319998
-0.031406
-0.0307776
-0.0301155
-0.0294207
-0.0286939
-0.0279355
-0.0271448
-0.0263201
-0.0254575
-0.0245504
-0.0235883
-0.0225556
-0.0214319
-0.0201936
-0.0188194
-0.0172832
-0.0155504
-0.0136294
-0.0119272
-0.0103621
-0.0091488
-0.00880447
-0.00940772
-0.00554083
-0.00584074
-0.00632155
-0.00687073
-0.0074928
-0.00822324
-0.00908609
-0.0100936
-0.011241
-0.0125061
-0.0138572
-0.0152584
-0.0166766
-0.0180841
-0.0194594
-0.0207873
-0.0220584
-0.0232674
-0.0244128
-0.025495
-0.0265158
-0.0274777
-0.0283833
-0.0292353
-0.0300358
-0.0307869
-0.03149
-0.0321464
-0.0327571
-0.0333229
-0.0338442
-0.0343214
-0.0347548
-0.0351447
-0.0354912
-0.0357945
-0.0360546
-0.0362716
-0.0364458
-0.0365773
-0.0366662
-0.0367127
-0.036717
-0.0366794
-0.0366002
-0.0364795
-0.0363177
-0.0361151
-0.035872
-0.0355888
-0.0352658
-0.0349035
-0.0345024
-0.0340629
-0.0335857
-0.0330715
-0.0325212
-0.0319356
-0.031316
-0.0306633
-0.0299789
-0.0292638
-0.0285188
-0.0277441
-0.026939
-0.026101
-0.0252249
-0.0243021
-0.0233194
-0.022258
-0.0210953
-0.0198108
-0.0183838
-0.0167724
-0.0149414
-0.0132592
-0.0117417
-0.0105165
-0.0101226
-0.0106252
-0.00643968
-0.00671648
-0.00717266
-0.00770933
-0.00832634
-0.00905304
-0.00991029
-0.0109084
-0.012042
-0.0132879
-0.0146157
-0.0159913
-0.0173816
-0.01876
-0.020106
-0.0214054
-0.0226494
-0.0238333
-0.0249558
-0.0260174
-0.02702
-0.0279658
-0.0288574
-0.0296971
-0.0304869
-0.0312287
-0.0319237
-0.0325732
-0.0331778
-0.0337383