/*--------------------------------*- C++ -*----------------------------------*\
  =========                 |
  \\      /  F ield         | OpenFOAM: The Open Source CFD Toolbox
   \\    /   O peration     | Website:  https://openfoam.org
    \\  /    A nd           | Version:  13
     \\/     M anipulation  |
\*---------------------------------------------------------------------------*/
FoamFile
{
    format      ascii;
    class       surfaceScalarField;
    location    "7.9";
    object      phi;
}
// * * * * * * * * * * * * * * * * * * * * * * * * * * * * * * * * * * * * * //

dimensions      [0 3 -1 0 0 0 0];

internalField   nonuniform List<scalar> 
12640
(
1.69932e-09
-1.69931e-09
1.54976e-08
-1.37983e-08
3.97254e-08
-2.42278e-08
6.76489e-08
-2.79235e-08
9.28295e-08
-2.51806e-08
1.11657e-07
-1.88279e-08
1.22779e-07
-1.11214e-08
1.27117e-07
-4.33811e-09
1.26994e-07
1.22972e-10
1.2476e-07
2.23433e-09
1.22404e-07
2.35558e-09
1.21208e-07
1.1956e-09
1.21574e-07
-3.654e-10
1.2323e-07
-1.65641e-09
1.25332e-07
-2.10132e-09
1.26946e-07
-1.61432e-09
1.27189e-07
-2.43496e-10
1.2554e-07
1.64984e-09
1.21126e-07
4.41309e-09
1.13057e-07
8.06936e-09
1.00778e-07
1.22793e-08
8.36913e-08
1.70865e-08
6.13573e-08
2.23339e-08
3.35892e-08
2.77681e-08
3.50925e-10
3.32382e-08
-3.85435e-08
3.88944e-08
-8.45186e-08
4.59751e-08
-1.40021e-07
5.55029e-08
-2.07972e-07
6.79508e-08
-2.90556e-07
8.25833e-08
-3.86684e-07
9.6128e-08
-4.92705e-07
1.06021e-07
-6.05083e-07
1.12378e-07
-7.2036e-07
1.15277e-07
-8.35535e-07
1.15175e-07
-9.47995e-07
1.1246e-07
-1.05561e-06
1.07616e-07
-1.15666e-06
1.01047e-07
-1.24978e-06
9.31233e-08
-1.33393e-06
8.41489e-08
-1.40824e-06
7.4312e-08
-1.47203e-06
6.37906e-08
-1.52469e-06
5.26552e-08
-1.56563e-06
4.09449e-08
-1.59426e-06
2.8626e-08
-1.61042e-06
1.61612e-08
-1.61424e-06
3.82181e-09
-1.60375e-06
-1.04878e-08
-1.57984e-06
-2.39149e-08
-1.54138e-06
-3.84613e-08
-1.48851e-06
-5.28685e-08
-1.42106e-06
-6.745e-08
-1.33936e-06
-8.1699e-08
-1.24387e-06
-9.54874e-08
-1.13525e-06
-1.0862e-07
-1.01442e-06
-1.20837e-07
-8.82788e-07
-1.31628e-07
-7.42197e-07
-1.40591e-07
-5.95021e-07
-1.47175e-07
-4.44145e-07
-1.50876e-07
-2.93079e-07
-1.51066e-07
-1.45669e-07
-1.47411e-07
-5.92629e-09
-1.39742e-07
1.22851e-07
-1.28777e-07
2.35839e-07
-1.12988e-07
3.29256e-07
-9.34172e-08
3.99864e-07
-7.06079e-08
4.45228e-07
-4.53644e-08
4.64067e-07
-1.88383e-08
4.55257e-07
8.80954e-09
4.21869e-07
3.33884e-08
3.66466e-07
5.5403e-08
2.95316e-07
7.11497e-08
2.18021e-07
7.72953e-08
1.45433e-07
7.25873e-08
8.4839e-08
6.05943e-08
3.99864e-08
4.48526e-08
1.14456e-08
2.85408e-08
-7.51406e-10
1.2197e-08
-7.51407e-10
1.07148e-08
-1.24141e-08
4.38931e-08
-4.69766e-08
8.97075e-08
-7.00422e-08
1.36364e-07
-7.45798e-08
1.76247e-07
-6.50637e-08
2.0559e-07
-4.81715e-08
2.2382e-07
-2.93514e-08
2.31956e-07
-1.24737e-08
2.31803e-07
2.75972e-10
2.25718e-07
8.31934e-09
2.1597e-07
1.21038e-08
2.04116e-07
1.3049e-08
1.90644e-07
1.31073e-08
1.7498e-07
1.40074e-08
1.5608e-07
1.6799e-08
1.32803e-07
2.16621e-08
1.04217e-07
2.83428e-08
6.90437e-08
3.68231e-08
2.6038e-08
4.74188e-08
-2.63402e-08
6.04475e-08
-9.01449e-08
7.6084e-08
-1.67154e-07
9.40953e-08
-2.58561e-07
1.13741e-07
-3.65207e-07
1.34415e-07
-4.87643e-07
1.55674e-07
-6.25579e-07
1.76831e-07
-7.76441e-07
1.96837e-07
-9.35947e-07
2.15009e-07
-1.09861e-06
2.30618e-07
-1.25859e-06
2.42561e-07
-1.41245e-06
2.49984e-07
-1.55919e-06
2.52762e-07
-1.6974e-06
2.50593e-07
-1.82586e-06
2.43731e-07
-1.94356e-06
2.32881e-07
-2.04988e-06
2.18774e-07
-2.14433e-06
2.02067e-07
-2.22663e-06
1.83353e-07
-2.29658e-06
1.63067e-07
-2.35403e-06
1.41603e-07
-2.39888e-06
1.19161e-07
-2.43102e-06
9.59289e-08
-2.45035e-06
7.19921e-08
-2.45684e-06
4.743e-08
-2.45049e-06
2.22792e-08
-2.43053e-06
-3.80487e-09
-2.3972e-06
-2.95052e-08
-2.35088e-06
-5.68049e-08
-2.29047e-06
-8.4329e-08
-2.21652e-06
-1.12407e-07
-2.12868e-06
-1.40713e-07
-2.02702e-06
-1.6911e-07
-1.91148e-06
-1.97242e-07
-1.78226e-06
-2.247e-07
-1.63998e-06
-2.50902e-07
-1.48576e-06
-2.75058e-07
-1.32089e-06
-2.96495e-07
-1.14723e-06
-3.14253e-07
-9.67124e-07
-3.27285e-07
-7.83265e-07
-3.34735e-07
-5.98694e-07
-3.35637e-07
-4.16842e-07
-3.29263e-07
-2.41291e-07
-3.15293e-07
-7.63075e-08
-2.93761e-07
7.51682e-08
-2.64463e-07
2.09674e-07
-2.27923e-07
3.23741e-07
-1.84675e-07
4.14815e-07
-1.36439e-07
4.80466e-07
-8.4489e-08
5.20248e-07
-3.09729e-08
5.32446e-07
2.11902e-08
5.17714e-07
7.01353e-08
4.78043e-07
1.10821e-07
4.14617e-07
1.4072e-07
3.30931e-07
1.56274e-07
2.3739e-07
1.54135e-07
1.46457e-07
1.35786e-07
7.05782e-08
1.0442e-07
1.98554e-08
6.29198e-08
1.9104e-08
2.02523e-08
-3.26664e-08
6.70084e-08
-9.37327e-08
1.19332e-07
-1.22366e-07
1.65315e-07
-1.20562e-07
2.00567e-07
-1.00316e-07
2.2417e-07
-7.17746e-08
2.36838e-07
-4.20192e-08
2.3956e-07
-1.51956e-08
2.33516e-07
6.31973e-09
2.20191e-07
2.16446e-08
2.00965e-07
3.13301e-08
1.76411e-07
3.76026e-08
1.46331e-07
4.31872e-08
1.09896e-07
5.04419e-08
6.59329e-08
6.07626e-08
1.30027e-08
7.45923e-08
-5.06417e-08
9.19873e-08
-1.2682e-07
1.13002e-07
-2.1708e-07
1.37678e-07
-3.22647e-07
1.66015e-07
-4.43984e-07
1.97421e-07
-5.80704e-07
2.30815e-07
-7.31715e-07
2.64751e-07
-8.94509e-07
2.97209e-07
-1.06561e-06
3.26771e-07
-1.24071e-06
3.51936e-07
-1.41552e-06
3.71642e-07
-1.58601e-06
3.85501e-07
-1.7486e-06
3.93211e-07
-1.90074e-06
3.94703e-07
-2.04096e-06
3.90205e-07
-2.16835e-06
3.80143e-07
-2.28292e-06
3.65172e-07
-2.38515e-06
3.45955e-07
-2.47533e-06
3.23061e-07
-2.55383e-06
2.97279e-07
-2.62096e-06
2.69192e-07
-2.67696e-06
2.39352e-07
-2.72199e-06
2.08099e-07
-2.75618e-06
1.7579e-07
-2.77958e-06
1.42565e-07
-2.79218e-06
1.08532e-07
-2.79393e-06
7.37404e-08
-2.7847e-06
3.8196e-08
-2.7642e-06
1.78506e-09
-2.73266e-06
-3.53531e-08
-2.68886e-06
-7.33006e-08
-2.63335e-06
-1.1232e-07
-2.56554e-06
-1.52139e-07
-2.48523e-06
-1.92716e-07
-2.39218e-06
-2.33757e-07
-2.28628e-06
-2.75015e-07
-2.16748e-06
-3.1604e-07
-2.03595e-06
-3.56229e-07
-1.89213e-06
-3.94725e-07
-1.73672e-06
-4.30463e-07
-1.57081e-06
-4.62408e-07
-1.39581e-06
-4.89251e-07
-1.21364e-06
-5.09454e-07
-1.02682e-06
-5.21554e-07
-8.38172e-07
-5.24286e-07
-6.51013e-07
-5.16422e-07
-4.68966e-07
-4.9734e-07
-2.95764e-07
-4.66962e-07
-1.34577e-07
-4.2565e-07
1.14661e-08
-3.73966e-07
1.39891e-07
-3.131e-07
2.48012e-07
-2.4456e-07
3.34384e-07
-1.70861e-07
3.98184e-07
-9.47721e-08
4.38587e-07
-1.92135e-08
4.55166e-07
5.3556e-08
4.4679e-07
1.19198e-07
4.14857e-07
1.72653e-07
3.6095e-07
2.10181e-07
2.87996e-07
2.27089e-07
2.02693e-07
2.21088e-07
1.1566e-07
1.91453e-07
4.06078e-08
1.37972e-07
5.97119e-08
2.81127e-08
-6.07791e-08
8.12194e-08
-1.46839e-07
1.31015e-07
-1.72162e-07
1.69015e-07
-1.58562e-07
1.94048e-07
-1.2535e-07
2.07373e-07
-8.50993e-08
2.1021e-07
-4.48563e-08
2.0369e-07
-8.67597e-09
1.88595e-07
2.14153e-08
1.65383e-07
4.48565e-08
1.33829e-07
6.28839e-08
9.34178e-08
7.80141e-08
4.33625e-08
9.32425e-08
-1.72911e-08
1.11096e-07
-8.96636e-08
1.33135e-07
-1.75136e-07
1.60064e-07
-2.75173e-07
1.92025e-07
-3.91041e-07
2.28869e-07
-5.23272e-07
2.6991e-07
-6.71347e-07
3.1409e-07
-8.33403e-07
3.59477e-07
-1.00624e-06
4.03651e-07
-1.18596e-06
4.44477e-07
-1.36825e-06
4.7949e-07
-1.54893e-06
5.07461e-07
-1.72412e-06
5.2712e-07
-1.89031e-06
5.37836e-07
-2.04486e-06
5.40048e-07
-2.18645e-06
5.34804e-07
-2.31473e-06
5.22983e-07
-2.42995e-06
5.05419e-07
-2.5327e-06
4.82897e-07
-2.62364e-06
4.56114e-07
-2.7035e-06
4.25812e-07
-2.77298e-06
3.92538e-07
-2.83261e-06
3.56917e-07
-2.88283e-06
3.19402e-07
-2.92391e-06
2.80433e-07
-2.95605e-06
2.40247e-07
-2.97933e-06
1.99064e-07
-2.99373e-06
1.56967e-07
-2.99919e-06
1.1399e-07
-2.99553e-06
7.00814e-08
-2.98251e-06
2.51775e-08
-2.95993e-06
-2.07927e-08
-2.92742e-06
-6.7868e-08
-2.88453e-06
-1.16184e-07
-2.83102e-06
-1.65834e-07
-2.7664e-06
-2.16759e-07
-2.6903e-06
-2.68814e-07
-2.60238e-06
-3.21677e-07
-2.50234e-06
-3.75053e-07
-2.38996e-06
-4.28419e-07
-2.26512e-06
-4.81071e-07
-2.12787e-06
-5.31974e-07
-1.9786e-06
-5.79733e-07
-1.81811e-06
-6.22905e-07
-1.64744e-06
-6.59922e-07
-1.4681e-06
-6.88788e-07
-1.28219e-06
-7.07466e-07
-1.09221e-06
-7.14264e-07
-9.01252e-07
-7.07383e-07
-7.12957e-07
-6.85636e-07
-5.31499e-07
-6.4842e-07
-3.60607e-07
-5.96543e-07
-2.03392e-07
-5.31181e-07
-6.2826e-08
-4.53666e-07
5.89567e-08
-3.66343e-07
1.60285e-07
-2.72189e-07
2.40137e-07
-1.74624e-07
2.98168e-07
-7.72442e-08
3.35102e-07
1.66221e-08
3.50899e-07
1.03401e-07
3.44959e-07
1.78593e-07
3.17354e-07
2.37785e-07
2.68851e-07
2.75592e-07
2.03264e-07
2.86675e-07
1.26445e-07
2.68272e-07
4.89257e-08
2.15492e-07
1.08638e-07
3.41049e-08
-9.4884e-08
8.63878e-08
-1.99122e-07
1.2734e-07
-2.13114e-07
1.53769e-07
-1.8499e-07
1.6654e-07
-1.38121e-07
1.6791e-07
-8.6469e-08
1.59252e-07
-3.61981e-08
1.41289e-07
9.28642e-09
1.14173e-07
4.85318e-08
7.74346e-08
8.15946e-08
3.00986e-08
1.1022e-07
-2.9029e-08
1.37142e-07
-1.01118e-07
1.65332e-07
-1.87257e-07
1.97234e-07
-2.88466e-07
2.34345e-07
-4.05599e-07
2.77197e-07
-5.39071e-07
3.25496e-07
-6.88595e-07
3.78394e-07
-8.52645e-07
4.33959e-07
-1.02809e-06
4.89536e-07
-1.21109e-06
5.42474e-07
-1.39706e-06
5.8962e-07
-1.58167e-06
6.29093e-07
-1.7607e-06
6.58521e-07
-1.92982e-06
6.76577e-07
-2.08651e-06
6.83807e-07
-2.22993e-06
6.81256e-07
-2.36013e-06
6.7025e-07
-2.47758e-06
6.52253e-07
-2.583e-06
6.28404e-07
-2.67726e-06
5.9968e-07
-2.76119e-06
5.66822e-07
-2.83551e-06
5.3044e-07
-2.90088e-06
4.91179e-07
-2.95788e-06
4.49541e-07
-3.00694e-06
4.05975e-07
-3.04838e-06
3.60838e-07
-3.08241e-06
3.14466e-07
-3.10916e-06
2.66999e-07
-3.12864e-06
2.18546e-07
-3.14075e-06
1.69078e-07
-3.14543e-06
1.18665e-07
-3.14247e-06
6.71175e-08
-3.13156e-06
1.4275e-08
-3.11249e-06
-3.9867e-08
-3.0848e-06
-9.55619e-08
-3.04807e-06
-1.5291e-07
-3.00195e-06
-2.11959e-07
-2.94588e-06
-2.72826e-07
-2.87924e-06
-3.35455e-07
-2.80155e-06
-3.99367e-07
-2.71231e-06
-4.64287e-07
-2.61109e-06
-5.29639e-07
-2.49747e-06
-5.94697e-07
-2.37104e-06
-6.58397e-07
-2.23184e-06
-7.18942e-07
-2.08032e-06
-7.7442e-07
-1.91707e-06
-8.23171e-07
-1.74313e-06
-8.62725e-07
-1.56025e-06
-8.90346e-07
-1.37053e-06
-9.03987e-07
-1.17682e-06
-9.01099e-07
-9.82253e-07
-8.80198e-07
-7.90904e-07
-8.39769e-07
-6.0749e-07
-7.79957e-07
-4.36275e-07
-7.02395e-07
-2.80363e-07
-6.09579e-07
-1.42484e-07
-5.04221e-07
-2.47659e-08
-3.89908e-07
7.15536e-08
-2.70944e-07
1.46075e-07
-1.51765e-07
1.99333e-07
-3.66363e-08
2.3226e-07
7.04747e-08
2.45332e-07
1.65521e-07
2.38898e-07
2.4422e-07
2.13286e-07
3.01204e-07
1.69481e-07
3.3048e-07
1.10579e-07
3.27174e-07
4.4315e-08
2.81756e-07
1.52953e-07
3.7518e-08
-1.32402e-07
8.24202e-08
-2.44024e-07
1.1063e-07
-2.41324e-07
1.23085e-07
-1.97446e-07
1.22689e-07
-1.37725e-07
1.11425e-07
-7.52049e-08
9.02599e-08
-1.5033e-08
5.93088e-08
4.02375e-08
1.80843e-08
8.97562e-08
-3.45618e-08
1.34241e-07
-1.00023e-07
1.75681e-07
-1.79703e-07
2.16822e-07
-2.74786e-07
2.60415e-07
-3.86119e-07
3.08567e-07
-5.14134e-07
3.6236e-07
-6.58585e-07
4.21649e-07
-8.18349e-07
4.85259e-07
-9.91032e-07
5.51077e-07
-1.17313e-06
6.16062e-07
-1.36004e-06
6.76446e-07
-1.54724e-06
7.29674e-07
-1.72978e-06
7.72156e-07
-1.90251e-06
8.0182e-07
-2.06245e-06
8.18463e-07
-2.20881e-06
8.22938e-07
-2.34185e-06
8.16849e-07
-2.46237e-06
8.01776e-07
-2.5714e-06
7.79274e-07
-2.66981e-06
7.50662e-07
-2.75843e-06
7.17024e-07
-2.838e-06
6.79256e-07
-2.90917e-06
6.3799e-07
-2.97257e-06
5.93835e-07
-3.0287e-06
5.47311e-07
-3.07798e-06
4.98828e-07
-3.12072e-06
4.48709e-07
-3.15707e-06
3.97193e-07
-3.18721e-06
3.44606e-07
-3.21125e-06
2.91031e-07
-3.22923e-06
2.36534e-07
-3.24099e-06
1.80837e-07
-3.24662e-06
1.24294e-07
-3.24604e-06
6.6537e-08
-3.23891e-06
7.14697e-09
-3.22538e-06
-5.33975e-08
-3.20485e-06
-1.16094e-07
-3.17683e-06
-1.80928e-07
-3.14082e-06
-2.47973e-07
-3.0963e-06
-3.17344e-07
-3.04243e-06
-3.8932e-07
-2.97849e-06
-4.63315e-07
-2.90359e-06
-5.39182e-07
-2.81696e-06
-6.16275e-07
-2.71805e-06
-6.936e-07
-2.60638e-06
-7.70071e-07
-2.48128e-06
-8.44039e-07
-2.34257e-06
-9.13131e-07
-2.19031e-06
-9.75434e-07
-2.02492e-06
-1.02811e-06
-1.84789e-06
-1.06738e-06
-1.66069e-06
-1.09118e-06
-1.46596e-06
-1.09583e-06
-1.26662e-06
-1.07954e-06
-1.06647e-06
-1.03992e-06
-8.69952e-07
-9.76472e-07
-6.82504e-07
-8.89843e-07
-5.0864e-07
-7.83443e-07
-3.51744e-07
-6.61117e-07
-2.14709e-07
-5.26944e-07
-9.95587e-08
-3.86094e-07
-7.13607e-09
-2.44188e-07
6.29013e-08
-1.06674e-07
1.11786e-07
2.15898e-08
1.41101e-07
1.36206e-07
1.51887e-07
2.33434e-07
1.44788e-07
3.08303e-07
1.2028e-07
3.54988e-07
8.06295e-08
3.66824e-07
3.20856e-08
3.303e-07
1.85038e-07
3.73529e-08
-1.69755e-07
6.95022e-08
-2.76174e-07
8.28389e-08
-2.5466e-07
8.05708e-08
-1.95178e-07
6.65071e-08
-1.23661e-07
4.20236e-08
-5.07213e-08
7.4181e-09
1.95725e-08
-3.77942e-08
8.54498e-08
-9.46717e-08
1.46634e-07
-1.64625e-07
2.04194e-07
-2.49147e-07
2.60203e-07
-3.49512e-07
3.17187e-07
-4.66543e-07
3.77446e-07
-6.00427e-07
4.4245e-07
-7.50574e-07
5.12507e-07
-9.15408e-07
5.86483e-07
-1.09201e-06
6.61859e-07
-1.27621e-06
7.35284e-07
-1.46334e-06
8.03188e-07
-1.6483e-06
8.61401e-07
-1.82509e-06
9.06464e-07
-1.98974e-06
9.36812e-07
-2.14074e-06
9.52814e-07
-2.27818e-06
9.55909e-07
-2.40297e-06
9.47729e-07
-2.51614e-06
9.3002e-07
-2.61876e-06
9.0439e-07
-2.71179e-06
8.72309e-07
-2.79603e-06
8.349e-07
-2.87213e-06
7.93123e-07
-2.94063e-06
7.47759e-07
-3.00205e-06
6.9941e-07
-3.05684e-06
6.48627e-07
-3.10537e-06
5.95833e-07
-3.14796e-06
5.4142e-07
-3.18486e-06
4.85613e-07
-3.21607e-06
4.28402e-07
-3.24183e-06
3.7036e-07
-3.26226e-06
3.11465e-07
-3.27746e-06
2.51737e-07
-3.28769e-06
1.91068e-07
-3.29267e-06
1.29265e-07
-3.2923e-06
6.61686e-08
-3.28625e-06
1.1037e-09
-3.27501e-06
-6.4637e-08
-3.25843e-06
-1.32676e-07
-3.23648e-06
-2.02883e-07
-3.20894e-06
-2.75509e-07
-3.17553e-06
-3.50754e-07
-3.13591e-06
-4.28946e-07
-3.08897e-06
-5.10249e-07
-3.0337e-06
-5.94453e-07
-2.96877e-06
-6.81209e-07
-2.8924e-06
-7.69963e-07
-2.80265e-06
-8.5982e-07
-2.69798e-06
-9.48718e-07
-2.57771e-06
-1.0334e-06
-2.44202e-06
-1.11112e-06
-2.29131e-06
-1.17883e-06
-2.1256e-06
-1.23309e-06
-1.94575e-06
-1.27103e-06
-1.75427e-06
-1.28732e-06
-1.5535e-06
-1.2803e-06
-1.34718e-06
-1.24624e-06
-1.13946e-06
-1.1842e-06
-9.35722e-07
-1.09358e-06
-7.42465e-07
-9.76699e-07
-5.64568e-07
-8.39014e-07
-4.05669e-07
-6.85843e-07
-2.68848e-07
-5.22915e-07
-1.55963e-07
-3.57073e-07
-6.73401e-08
-1.95296e-07
-1.80106e-09
-4.39493e-08
4.25113e-08
9.18933e-08
6.80646e-08
2.0788e-07
7.64306e-08
2.99937e-07
6.84972e-08
3.62921e-07
4.65633e-08
3.88758e-07
1.69852e-08
3.59878e-07
2.02023e-07
3.24634e-08
-2.02218e-07
4.93193e-08
-2.9303e-07
4.66339e-08
-2.51975e-07
2.94023e-08
-1.77946e-07
1.3868e-09
-9.56458e-08
-3.679e-08
-1.25445e-08
-8.55697e-08
6.83521e-08
-1.45909e-07
1.45789e-07
-2.19129e-07
2.19854e-07
-3.06659e-07
2.91724e-07
-4.09771e-07
3.63315e-07
-5.29307e-07
4.36723e-07
-6.65404e-07
5.13543e-07
-8.17375e-07
5.94421e-07
-9.8345e-07
6.78582e-07
-1.16036e-06
7.63389e-07
-1.34364e-06
8.45142e-07
-1.52834e-06
9.19982e-07
-1.70836e-06
9.83207e-07
-1.87845e-06
1.0315e-06
-2.03555e-06
1.06356e-06
-2.17908e-06
1.08034e-06
-2.3095e-06
1.08323e-06
-2.42777e-06
1.07418e-06
-2.53499e-06
1.05495e-06
-2.63228e-06
1.0273e-06
-2.72055e-06
9.9266e-07
-2.80052e-06
9.52281e-07
-2.87276e-06
9.07145e-07
-2.93776e-06
8.58119e-07
-2.99591e-06
8.05909e-07
-3.0476e-06
7.51101e-07
-3.09314e-06
6.94172e-07
-3.13272e-06
6.35414e-07
-3.16664e-06
5.75337e-07
-3.19551e-06
5.14482e-07
-3.22003e-06
4.52927e-07
-3.24026e-06
3.90587e-07
-3.25621e-06
3.27413e-07
-3.26769e-06
2.63221e-07
-3.27494e-06
1.9831e-07
-3.27787e-06
1.32202e-07
-3.27663e-06
6.49252e-08
-3.27124e-06
-4.28197e-09
-3.26191e-06
-7.39687e-08
-3.24858e-06
-1.46007e-07
-3.23113e-06
-2.20334e-07
-3.20938e-06
-2.97263e-07
-3.18303e-06
-3.771e-07
-3.15202e-06
-4.59959e-07
-3.11592e-06
-5.46341e-07
-3.07434e-06
-6.36034e-07
-3.0266e-06
-7.28955e-07
-2.9719e-06
-8.24662e-07
-2.90923e-06
-9.22485e-07
-2.83615e-06
-1.0218e-06
-2.74848e-06
-1.12107e-06
-2.64227e-06
-1.21733e-06
-2.51581e-06
-1.30529e-06
-2.36963e-06
-1.37927e-06
-2.20567e-06
-1.43498e-06
-2.02494e-06
-1.46805e-06
-1.82927e-06
-1.47598e-06
-1.62226e-06
-1.45325e-06
-1.40785e-06
-1.39861e-06
-1.19085e-06
-1.31057e-06
-9.78475e-07
-1.18908e-06
-7.78283e-07
-1.03921e-06
-5.95686e-07
-8.6844e-07
-4.34641e-07
-6.8396e-07
-2.98382e-07
-4.93332e-07
-1.885e-07
-3.05178e-07
-1.04686e-07
-1.27763e-07
-4.47229e-08
3.19297e-08
-5.3755e-09
1.68533e-07
1.61074e-08
2.78454e-07
2.21161e-08
3.56912e-07
1.57177e-08
3.95157e-07
3.36026e-09
3.72235e-07
2.05384e-07
2.32343e-08
-2.25453e-07
2.34025e-08
-2.93198e-07
4.08927e-09
-2.32662e-07
-2.75498e-08
-1.46307e-07
-6.9523e-08
-5.36726e-08
-1.21772e-07
3.97049e-08
-1.85121e-07
1.31701e-07
-2.60814e-07
2.21482e-07
-3.50188e-07
3.09228e-07
-4.54443e-07
3.95978e-07
-5.74398e-07
4.83271e-07
-7.10209e-07
5.72534e-07
-8.61262e-07
6.64596e-07
-1.02585e-06
7.5901e-07
-1.20053e-06
8.53257e-07
-1.38069e-06
9.43554e-07
-1.56109e-06
1.02554e-06
-1.73553e-06
1.09442e-06
-1.89926e-06
1.14693e-06
-2.05004e-06
1.18228e-06
-2.18744e-06
1.20097e-06
-2.31202e-06
1.20492e-06
-2.42479e-06
1.19599e-06
-2.52685e-06
1.17625e-06
-2.61924e-06
1.14734e-06
-2.70282e-06
1.11088e-06
-2.77823e-06
1.06807e-06
-2.84599e-06
1.02004e-06
-2.90652e-06
9.67678e-07
-2.96022e-06
9.11816e-07
-3.00743e-06
8.53126e-07
-3.04855e-06
7.9222e-07
-3.08409e-06
7.29711e-07
-3.11474e-06
6.66059e-07
-3.14086e-06
6.0146e-07
-3.1623e-06
5.35919e-07
-3.17918e-06
4.6981e-07
-3.19156e-06
4.02967e-07
-3.19972e-06
3.35569e-07
-3.20421e-06
2.67718e-07
-3.20537e-06
1.99466e-07
-3.2036e-06
1.3043e-07
-3.19913e-06
6.04626e-08
-3.19254e-06
-1.08712e-08
-3.18322e-06
-8.3293e-08
-3.17144e-06
-1.57784e-07
-3.15724e-06
-2.34537e-07
-3.14059e-06
-3.13916e-07
-3.12142e-06
-3.96262e-07
-3.09948e-06
-4.81899e-07
-3.07458e-06
-5.71243e-07
-3.04615e-06
-6.6446e-07
-3.01347e-06
-7.61639e-07
-2.97556e-06
-8.62577e-07
-2.93143e-06
-9.66616e-07
-2.88021e-06
-1.07301e-06
-2.8205e-06
-1.18078e-06
-2.75036e-06
-1.28747e-06
-2.66455e-06
-1.3911e-06
-2.55567e-06
-1.48815e-06
-2.42067e-06
-1.56998e-06
-2.26066e-06
-1.62805e-06
-2.08023e-06
-1.65641e-06
-1.88091e-06
-1.65256e-06
-1.66716e-06
-1.61237e-06
-1.4432e-06
-1.53453e-06
-1.21556e-06
-1.41672e-06
-9.93282e-07
-1.26149e-06
-7.85449e-07
-1.07627e-06
-5.98124e-07
-8.71284e-07
-4.35602e-07
-6.55854e-07
-3.01144e-07
-4.39636e-07
-1.95835e-07
-2.33072e-07
-1.18353e-07
-4.5552e-08
-6.52306e-08
1.1541e-07
-3.1824e-08
2.45048e-07
-1.41625e-08
3.39251e-07
-7.23751e-09
3.88232e-07
-5.36983e-09
3.70368e-07
2.00014e-07
1.09385e-08
-2.36391e-07
-6.50876e-09
-2.75751e-07
-4.13922e-08
-1.97778e-07
-8.75461e-08
-1.00153e-07
-1.43558e-07
2.33939e-09
-2.09858e-07
1.06005e-07
-2.87644e-07
2.09487e-07
-3.78197e-07
3.12035e-07
-4.82655e-07
4.13686e-07
-6.01797e-07
5.1512e-07
-7.35809e-07
6.17283e-07
-8.84205e-07
7.2093e-07
-1.04549e-06
8.25884e-07
-1.21635e-06
9.29866e-07
-1.39205e-06
1.02896e-06
-1.5672e-06
1.1187e-06
-1.7361e-06
1.19444e-06
-1.89432e-06
1.25265e-06
-2.03983e-06
1.29244e-06
-2.17206e-06
1.31452e-06
-2.29166e-06
1.32056e-06
-2.39959e-06
1.31285e-06
-2.49694e-06
1.29334e-06
-2.58463e-06
1.26394e-06
-2.66344e-06
1.22615e-06
-2.73393e-06
1.18137e-06
-2.79659e-06
1.13074e-06
-2.85186e-06
1.0753e-06
-2.90014e-06
1.01596e-06
-2.94189e-06
9.53563e-07
-2.97757e-06
8.88806e-07
-3.00766e-06
8.22312e-07
-3.03247e-06
7.54517e-07
-3.05226e-06
6.85856e-07
-3.06738e-06
6.16578e-07
-3.07833e-06
5.46868e-07
-3.08558e-06
4.77055e-07
-3.08974e-06
4.07131e-07
-3.09131e-06
3.37135e-07
-3.09054e-06
2.66956e-07
-3.08755e-06
1.96474e-07
-3.08259e-06
1.25465e-07
-3.07583e-06
5.3701e-08
-3.06757e-06
-1.91266e-08
-3.05767e-06
-9.31986e-08
-3.0464e-06
-1.6905e-07
-3.03393e-06
-2.47007e-07
-3.02037e-06
-3.27478e-07
-3.00578e-06
-4.10852e-07
-2.99013e-06
-4.97546e-07
-2.97339e-06
-5.87981e-07
-2.95535e-06
-6.825e-07
-2.93563e-06
-7.81361e-07
-2.91359e-06
-8.84619e-07
-2.88812e-06
-9.92084e-07
-2.85775e-06
-1.10339e-06
-2.82084e-06
-1.21769e-06
-2.77535e-06
-1.33297e-06
-2.7193e-06
-1.44715e-06
-2.65021e-06
-1.55725e-06
-2.56142e-06
-1.65876e-06
-2.44232e-06
-1.74716e-06
-2.29085e-06
-1.80788e-06
-2.11047e-06
-1.83295e-06
-1.90761e-06
-1.81523e-06
-1.68582e-06
-1.75631e-06
-1.45101e-06
-1.65153e-06
-1.21146e-06
-1.50105e-06
-9.78403e-07
-1.30933e-06
-7.62803e-07
-1.08688e-06
-5.71499e-07
-8.47158e-07
-4.09033e-07
-6.02103e-07
-2.78421e-07
-3.63684e-07
-1.79832e-07
-1.44141e-07
-1.10545e-07
4.61229e-08
-6.51725e-08
1.99675e-07
-3.7708e-08
3.11786e-07
-2.05363e-08
3.7106e-07
-9.33516e-09
3.59167e-07
1.90679e-07
-3.14094e-09
-2.3325e-07
-3.76809e-08
-2.41211e-07
-8.80559e-08
-1.47403e-07
-1.48402e-07
-3.98075e-08
-2.18067e-07
7.20048e-08
-2.98043e-07
1.85981e-07
-3.89569e-07
3.01012e-07
-4.93805e-07
4.16272e-07
-6.11536e-07
5.31416e-07
-7.42989e-07
6.46573e-07
-8.87806e-07
7.621e-07
-1.04477e-06
8.7789e-07
-1.21084e-06
9.91962e-07
-1.38141e-06
1.10043e-06
-1.55117e-06
1.19872e-06
-1.71488e-06
1.28241e-06
-1.86833e-06
1.3479e-06
-2.00931e-06
1.39363e-06
-2.13723e-06
1.42036e-06
-2.2525e-06
1.42978e-06
-2.35613e-06
1.42419e-06
-2.44906e-06
1.40578e-06
-2.53216e-06
1.37644e-06
-2.60607e-06
1.33785e-06
-2.67132e-06
1.29141e-06
-2.72837e-06
1.23842e-06
-2.77767e-06
1.18004e-06
-2.8197e-06
1.11733e-06
-2.85498e-06
1.05124e-06
-2.88405e-06
9.82633e-07
-2.90747e-06
9.12231e-07
-2.92579e-06
8.4063e-07
-2.93956e-06
7.6829e-07
-2.94932e-06
6.95615e-07
-2.95561e-06
6.22866e-07
-2.95899e-06
5.50249e-07
-2.95985e-06
4.77914e-07
-2.95855e-06
4.05833e-07
-2.95536e-06
3.33944e-07
-2.95051e-06
2.62108e-07
-2.9442e-06
1.90159e-07
-2.9366e-06
1.17867e-07
-2.92789e-06
4.49877e-08
-2.91825e-06
-2.87594e-08
-2.90778e-06
-1.03673e-07
-2.89668e-06
-1.80151e-07
-2.88513e-06
-2.58549e-07
-2.87334e-06
-3.39276e-07
-2.86145e-06
-4.22739e-07
-2.84962e-06
-5.09379e-07
-2.83796e-06
-5.99634e-07
-2.82654e-06
-6.9392e-07
-2.8153e-06
-7.92607e-07
-2.80395e-06
-8.95963e-07
-2.7919e-06
-1.00414e-06
-2.7782e-06
-1.11709e-06
-2.76152e-06
-1.23437e-06
-2.73955e-06
-1.35494e-06
-2.70947e-06
-1.47722e-06
-2.66832e-06
-1.5984e-06
-2.61288e-06
-1.7142e-06
-2.5392e-06
-1.82084e-06
-2.43626e-06
-1.91082e-06
-2.29473e-06
-1.97448e-06
-2.11589e-06
-1.99407e-06
-1.90854e-06
-1.96366e-06
-1.67729e-06
-1.88277e-06
-1.43024e-06
-1.7481e-06
-1.17784e-06
-1.56173e-06
-9.33908e-07
-1.33081e-06
-7.1138e-07
-1.06969e-06
-5.17924e-07
-7.95559e-07
-3.58059e-07
-5.2355e-07
-2.34112e-07
-2.68088e-07
-1.44769e-07
-4.32204e-08
-8.52333e-08
1.4014e-07
-4.80872e-08
2.7464e-07
-2.42163e-08
3.47189e-07
-8.6201e-09
3.4357e-07
1.82059e-07
-1.82182e-08
-2.15032e-07
-6.93957e-08
-1.90033e-07
-1.34277e-07
-8.25221e-08
-2.08073e-07
3.39885e-08
-2.90763e-07
1.54695e-07
-3.8351e-07
2.78728e-07
-4.87539e-07
4.05041e-07
-6.03731e-07
5.32464e-07
-7.32412e-07
6.60098e-07
-8.73345e-07
7.87506e-07
-1.02556e-06
9.14319e-07
-1.18644e-06
1.03877e-06
-1.35164e-06
1.15717e-06
-1.51614e-06
1.26493e-06
-1.6751e-06
1.35768e-06
-1.8245e-06
1.4318e-06
-1.96174e-06
1.48514e-06
-2.08602e-06
1.51791e-06
-2.19765e-06
1.53199e-06
-2.29747e-06
1.52959e-06
-2.38638e-06
1.5131e-06
-2.46511e-06
1.48451e-06
-2.53426e-06
1.4456e-06
-2.59433e-06
1.39791e-06
-2.64579e-06
1.34287e-06
-2.68917e-06
1.2818e-06
-2.72506e-06
1.21593e-06
-2.75412e-06
1.14638e-06
-2.77704e-06
1.07416e-06
-2.79454e-06
1.00013e-06
-2.80732e-06
9.25005e-07
-2.81603e-06
8.4934e-07
-2.8213e-06
7.73567e-07
-2.8237e-06
6.98013e-07
-2.82371e-06
6.22876e-07
-2.82174e-06
5.4828e-07
-2.81808e-06
4.74255e-07
-2.81298e-06
4.00728e-07
-2.80662e-06
3.27583e-07
-2.79917e-06
2.54661e-07
-2.79078e-06
1.81772e-07
-2.7816e-06
1.08682e-07
-2.77175e-06
3.514e-08
-2.76138e-06
-3.91315e-08
-2.75061e-06
-1.14438e-07
-2.73964e-06
-1.91128e-07
-2.72864e-06
-2.69549e-07
-2.71783e-06
-3.50086e-07
-2.70743e-06
-4.33137e-07
-2.69768e-06
-5.19129e-07
-2.68881e-06
-6.085e-07
-2.68104e-06
-7.01693e-07
-2.67451e-06
-7.99133e-07
-2.66927e-06
-9.0121e-07
-2.66515e-06
-1.00825e-06
-2.66178e-06
-1.12046e-06
-2.65836e-06
-1.23779e-06
-2.65344e-06
-1.35986e-06
-2.6449e-06
-1.48576e-06
-2.62959e-06
-1.61371e-06
-2.60294e-06
-1.74085e-06
-2.56112e-06
-1.86266e-06
-2.4987e-06
-1.97323e-06
-2.40812e-06
-2.06506e-06
-2.27465e-06
-2.12754e-06
-2.09705e-06
-2.14125e-06
-1.8836e-06
-2.09622e-06
-1.64122e-06
-1.99049e-06
-1.38062e-06
-1.82232e-06
-1.11508e-06
-1.59636e-06
-8.61223e-07
-1.32354e-06
-6.34033e-07
-1.02275e-06
-4.41644e-07
-7.15939e-07
-2.88148e-07
-4.21583e-07
-1.74378e-07
-1.56991e-07
-9.69474e-08
6.27098e-08
-4.85213e-08
2.26214e-07
-1.99687e-08
3.18636e-07
-4.31853e-09
3.2792e-07
1.7774e-07
-3.33023e-08
-1.8173e-07
-9.99318e-08
-1.23404e-07
-1.78422e-07
-4.03174e-09
-2.64741e-07
1.20307e-07
-3.59429e-07
2.49383e-07
-4.63688e-07
3.82987e-07
-5.78587e-07
5.1994e-07
-7.04659e-07
6.58535e-07
-8.41821e-07
7.9726e-07
-9.89327e-07
9.35012e-07
-1.14496e-06
1.06995e-06
-1.30486e-06
1.19867e-06
-1.4644e-06
1.31671e-06
-1.61909e-06
1.41962e-06
-1.76504e-06
1.50363e-06
-1.89936e-06
1.56612e-06
-2.02077e-06
1.60656e-06
-2.12947e-06
1.62661e-06
-2.22611e-06
1.62863e-06
-2.31151e-06
1.615e-06
-2.38636e-06
1.58795e-06
-2.4512e-06
1.54935e-06
-2.50654e-06
1.50093e-06
-2.5529e-06
1.44428e-06
-2.59094e-06
1.3809e-06
-2.62136e-06
1.31222e-06
-2.64498e-06
1.23955e-06
-2.66265e-06
1.16406e-06
-2.67523e-06
1.08673e-06
-2.6835e-06
1.0084e-06
-2.6882e-06
9.29705e-07
-2.68998e-06
8.51123e-07
-2.68941e-06
7.72995e-07
-2.68694e-06
6.95541e-07
-2.68293e-06
6.1887e-07
-2.67767e-06
5.43017e-07
-2.67134e-06
4.67929e-07
-2.66411e-06
3.93495e-07
-2.65609e-06
3.19566e-07
-2.64739e-06
2.45958e-07
-2.63809e-06
1.72469e-07
-2.62827e-06
9.88686e-08
-2.61804e-06
2.4908e-08
-2.60749e-06
-4.96819e-08
-2.59674e-06
-1.25186e-07
-2.58596e-06
-2.01914e-07
-2.57532e-06
-2.80191e-07
-2.56504e-06
-3.60364e-07
-2.55537e-06
-4.42803e-07
-2.5466e-06
-5.27902e-07
-2.53902e-06
-6.16079e-07
-2.53294e-06
-7.07771e-07
-2.52865e-06
-8.03426e-07
-2.52637e-06
-9.03491e-07
-2.52622e-06
-1.0084e-06
-2.52818e-06
-1.1185e-06
-2.53194e-06
-1.23403e-06
-2.53678e-06
-1.35501e-06
-2.54145e-06
-1.4811e-06
-2.54378e-06
-1.61138e-06
-2.54051e-06
-1.74412e-06
-2.52687e-06
-1.8763e-06
-2.49692e-06
-2.00318e-06
-2.44467e-06
-2.1173e-06
-2.36144e-06
-2.21078e-06
-2.23323e-06
-2.26947e-06
-2.05466e-06
-2.27479e-06
-1.83288e-06
-2.21227e-06
-1.57751e-06
-2.07769e-06
-1.30255e-06
-1.87132e-06
-1.02453e-06
-1.60156e-06
-7.63296e-07
-1.28398e-06
-5.35567e-07
-9.43668e-07
-3.49198e-07
-6.07952e-07
-2.07132e-07
-2.99058e-07
-1.07938e-07
-3.6484e-08
-4.56556e-08
1.63932e-07
-1.19215e-08
2.84902e-07
1.90102e-09
3.14098e-07
1.79641e-07
-4.76943e-08
-1.34035e-07
-1.28394e-07
-4.27038e-08
-2.19072e-07
8.66463e-08
-3.16835e-07
2.1807e-07
-4.22208e-07
3.54756e-07
-5.36416e-07
4.97195e-07
-6.60304e-07
6.43828e-07
-7.94071e-07
7.92303e-07
-9.37188e-07
9.40377e-07
-1.08782e-06
1.08564e-06
-1.24266e-06
1.2248e-06
-1.39766e-06
1.35367e-06
-1.54859e-06
1.46764e-06
-1.69166e-06
1.56269e-06
-1.82379e-06
1.63575e-06
-1.94321e-06
1.68554e-06
-2.04976e-06
1.71311e-06
-2.14399e-06
1.72084e-06
-2.22661e-06
1.71124e-06
-2.29827e-06
1.68666e-06
-2.35951e-06
1.64919e-06
-2.41086e-06
1.60071e-06
-2.45294e-06
1.54302e-06
-2.48649e-06
1.47783e-06
-2.51239e-06
1.40679e-06
-2.53157e-06
1.33141e-06
-2.54504e-06
1.25302e-06
-2.55373e-06
1.17275e-06
-2.55854e-06
1.09154e-06
-2.56023e-06
1.0101e-06
-2.55948e-06
9.28956e-07
-2.55684e-06
8.48478e-07
-2.55273e-06
7.6889e-07
-2.5475e-06
6.90304e-07
-2.54137e-06
6.12746e-07
-2.53453e-06
5.36169e-07
-2.52706e-06
4.60465e-07
-2.51906e-06
3.85491e-07
-2.51057e-06
3.11077e-07
-2.50163e-06
2.37018e-07
-2.49227e-06
1.63108e-07
-2.48253e-06
8.91284e-08
-2.47246e-06
1.48433e-08
-2.46214e-06
-6.00061e-08
-2.45165e-06
-1.35669e-07
-2.44114e-06
-2.12423e-07
-2.43078e-06
-2.90555e-07
-2.42077e-06
-3.70371e-07
-2.41138e-06
-4.52197e-07
-2.40289e-06
-5.36387e-07
-2.39565e-06
-6.23319e-07
-2.39002e-06
-7.13403e-07
-2.38637e-06
-8.07077e-07
-2.38506e-06
-9.04807e-07
-2.38638e-06
-1.00707e-06
-2.39053e-06
-1.11434e-06
-2.39753e-06
-1.22703e-06
-2.40711e-06
-1.34544e-06
-2.41859e-06
-1.46962e-06
-2.4307e-06
-1.59927e-06
-2.44133e-06
-1.73349e-06
-2.44718e-06
-1.87046e-06
-2.44337e-06
-2.007e-06
-2.42273e-06
-2.13794e-06
-2.37797e-06
-2.25553e-06
-2.29917e-06
-2.34827e-06
-2.17194e-06
-2.40202e-06
-1.98926e-06
-2.39496e-06
-1.75646e-06
-2.31048e-06
-1.4865e-06
-2.14129e-06
-1.19708e-06
-1.89098e-06
-9.08748e-07
-1.57231e-06
-6.44963e-07
-1.20745e-06
-4.23046e-07
-8.29868e-07
-2.49666e-07
-4.72438e-07
-1.25536e-07
-1.60614e-07
-4.63903e-08
8.47864e-08
-5.25836e-09
2.4377e-07
7.43718e-09
3.01402e-07
1.87078e-07
-6.08005e-08
-7.32349e-08
-1.53761e-07
5.02569e-08
-2.55433e-07
1.88318e-07
-3.63158e-07
3.25795e-07
-4.77658e-07
4.69256e-07
-6.00051e-07
6.19588e-07
-7.30956e-07
7.74732e-07
-8.70155e-07
9.31502e-07
-1.01619e-06
1.08641e-06
-1.16636e-06
1.2358e-06
-1.31725e-06
1.37569e-06
-1.46491e-06
1.50132e-06
-1.60564e-06
1.60837e-06
-1.73625e-06
1.6933e-06
-1.85454e-06
1.75405e-06
-1.95986e-06
1.79086e-06
-2.05257e-06
1.80581e-06
-2.13328e-06
1.80156e-06
-2.20263e-06
1.78059e-06
-2.26118e-06
1.7452e-06
-2.30949e-06
1.6975e-06
-2.34827e-06
1.63948e-06
-2.37836e-06
1.57311e-06
-2.40076e-06
1.50023e-06
-2.41655e-06
1.42259e-06
-2.42684e-06
1.34169e-06
-2.43265e-06
1.25883e-06
-2.43494e-06
1.17504e-06
-2.43451e-06
1.09112e-06
-2.43206e-06
1.00764e-06
-2.42811e-06
9.25008e-07
-2.42309e-06
8.43452e-07
-2.41728e-06
7.63087e-07
-2.41091e-06
6.83934e-07
-2.40411e-06
6.05939e-07
-2.39693e-06
5.28997e-07
-2.38943e-06
4.5296e-07
-2.3816e-06
3.77659e-07
-2.37344e-06
3.02916e-07
-2.36493e-06
2.28516e-07
-2.35608e-06
1.54249e-07
-2.34687e-06
7.99176e-08
-2.33733e-06
5.30688e-09
-2.3275e-06
-6.98334e-08
-2.31746e-06
-1.45708e-07
-2.30732e-06
-2.22563e-07
-2.29723e-06
-3.00645e-07
-2.28739e-06
-3.80216e-07
-2.27803e-06
-4.61555e-07
-2.26945e-06
-5.44964e-07
-2.262e-06
-6.30772e-07
-2.25606e-06
-7.19346e-07
-2.25204e-06
-8.11091e-07
-2.25039e-06
-9.06455e-07
-2.25153e-06
-1.00593e-06
-2.25583e-06
-1.11005e-06
-2.26354e-06
-1.21933e-06
-2.2747e-06
-1.33428e-06
-2.28905e-06
-1.45526e-06