/*--------------------------------*- C++ -*----------------------------------*\
  =========                 |
  \\      /  F ield         | OpenFOAM: The Open Source CFD Toolbox
   \\    /   O peration     | Website:  https://openfoam.org
    \\  /    A nd           | Version:  13
     \\/     M anipulation  |
\*---------------------------------------------------------------------------*/
FoamFile
{
    format      ascii;
    class       volScalarField;
    location    "4";
    object      epsilon;
}
// * * * * * * * * * * * * * * * * * * * * * * * * * * * * * * * * * * * * * //

dimensions      [0 2 -3 0 0 0 0];

internalField   nonuniform List<scalar> 
6400
(
2.06552e-05
0.000105551
0.000251653
0.00040565
0.000527493
0.000603967
0.000642716
0.000661983
0.000682242
0.000723144
0.000800442
0.000928562
0.00111947
0.00137561
0.00168837
0.00204481
0.00243073
0.00284106
0.00325653
0.00366614
0.00407416
0.00450888
0.00500898
0.0056101
0.00631283
0.0070668
0.00781432
0.00856359
0.00932493
0.0101171
0.0109426
0.0117749
0.0125904
0.0133865
0.014172
0.0149638
0.0157709
0.0166082
0.0174834
0.018407
0.0193829
0.020419
0.0215234
0.0227031
0.0239663
0.0253262
0.0268252
0.0285536
0.0307031
0.0329144
0.0351603
0.0373753
0.0395259
0.0415455
0.0433672
0.0449173
0.0460961
0.0466796
0.0469057
0.0466638
0.0455902
0.0437763
0.041235
0.0380084
0.0342552
0.0300438
0.0256488
0.021267
0.0170869
0.013208
0.00998374
0.00732711
0.00515944
0.0034779
0.00225067
0.00140021
0.000837887
0.000473232
0.000219554
4.65184e-05
0.000100647
9.73053e-05
0.000156246
0.000226399
0.000282284
0.000320035
0.000343432
0.000359649
0.000377528
0.000407827
0.00046134
0.000549882
0.000685406
0.000876551
0.00112763
0.00144172
0.00182215
0.00227508
0.00280497
0.00341939
0.00413014
0.00494759
0.00591555
0.00706296
0.00839092
0.0098909
0.0115446
0.0132099
0.0148026
0.0162414
0.0174299
0.0183672
0.0190706
0.0195679
0.0199117
0.0201398
0.0202937
0.0204065
0.0205051
0.0206079
0.0207334
0.0209
0.0211132
0.0213627
0.0216401
0.0219646
0.0223688
0.0228424
0.0233851
0.0239943
0.0246334
0.0253053
0.0259686
0.0266075
0.0271772
0.0276349
0.0278608
0.0279216
0.0277667
0.0273465
0.0265446
0.0254134
0.0239138
0.0220715
0.0199509
0.0176386
0.0152422
0.0128709
0.0106231
0.00856982
0.00681496
0.00532828
0.00406241
0.0029915
0.00210753
0.00140155
0.000861908
0.000483809
0.000249076
0.000244231
0.000222067
0.000174876
0.000227829
0.000286741
0.000326685
0.000351829
0.000370724
0.000392729
0.000428555
0.000491842
0.00059866
0.000768239
0.00101959
0.00136793
0.00182475
0.0024029
0.00311401
0.0039705
0.00498102
0.00615146
0.00748522
0.00897722
0.0105767
0.0121914
0.013687
0.0149108
0.0157322
0.0162556
0.016561
0.0167546
0.0169003
0.0169484
0.0168322
0.016598
0.0163648
0.0161294
0.0159266
0.0157654
0.0156787
0.0156471
0.015659
0.0157698
0.0159389
0.0162033
0.0165663
0.0170232
0.0175524
0.0181534
0.0188206
0.0195511
0.0203305
0.0211504
0.0219898
0.0228292
0.0236367
0.0243767
0.0250064
0.0254345
0.0256081
0.0255977
0.0252218
0.0244403
0.0232436
0.0216494
0.0197327
0.0175829
0.0153023
0.013002
0.0107878
0.00875061
0.00696091
0.00544197
0.00418434
0.00315905
0.00232982
0.00166217
0.00112962
0.000708897
0.000442124
0.000640286
0.000386957
0.000301061
0.000360769
0.000419022
0.000455251
0.00048065
0.000508689
0.00055382
0.000633063
0.000767917
0.000986132
0.00131696
0.00178624
0.00241286
0.00320944
0.00418386
0.0053406
0.00666961
0.00813836
0.00968665
0.0112256
0.0126425
0.0138248
0.0146523
0.0150644
0.0152351
0.015284
0.0151722
0.0148378
0.014392
0.0138813
0.0133968
0.0130202
0.0127173
0.0124692
0.0122876
0.0121915
0.0121553
0.0121624
0.0122661
0.0124263
0.0126638
0.0129662
0.0133428
0.0137888
0.0143046
0.0148887
0.0155432
0.016267
0.0170593
0.0179159
0.01883
0.0197896
0.0207783
0.0217711
0.0227346
0.0236244
0.0243863
0.0249229
0.0251565
0.0251715
0.0247452
0.0239547
0.0227191
0.0209679
0.0188751
0.0165368
0.0140898
0.0116766
0.00942483
0.00743084
0.00574702
0.00438017
0.00330075
0.00246186
0.00181154
0.00130037
0.000894842
0.000645183
0.00103829
0.000619196
0.000477112
0.000536871
0.000596462
0.000638457
0.000678053
0.000733889
0.000827967
0.000987686
0.00124708
0.00164431
0.00221429
0.00298092
0.00395373
0.00512851
0.00648606
0.00798554
0.00955307
0.0110793
0.012431
0.0134894
0.0140851
0.0143337
0.014394
0.0142385
0.0138006
0.013144
0.0124823
0.011882
0.0113728
0.0109133
0.0105471
0.0102616
0.0100445
0.00989199
0.00981617
0.00978848
0.00979151
0.00987081
0.00999495
0.01017
0.0103953
0.0106702
0.0109975
0.0113784
0.0118165
0.0123152
0.012879
0.0135118
0.0142178
0.0150001
0.0158602
0.0167956
0.0177999
0.0188608
0.0199585
0.0210609
0.0221199
0.0230793
0.0238696
0.0243095
0.0244494
0.0241735
0.0234561
0.0222271
0.020387
0.0181143
0.015572
0.0129384
0.0103941
0.00809551
0.00614664
0.00458456
0.00338647
0.00249278
0.00182996
0.00133548
0.000968237
0.000773172
0.00129717
0.000947868
0.000710214
0.000759653
0.000824752
0.000884422
0.000955272
0.0010626
0.00123873
0.00152352
0.00196221
0.00259759
0.00345865
0.00455167
0.00585696
0.0073283
0.00889024
0.0104346
0.0118218
0.0129136
0.0135048
0.013725
0.0137527
0.0134721
0.0128638
0.0120723
0.0113099
0.0106362
0.0100353
0.00953039
0.00910835
0.00876014
0.00848776
0.00827506
0.00811705
0.00800682
0.0079465
0.00792065
0.00791639
0.00795879
0.00802872
0.00813302
0.0082672
0.00843467
0.00863624
0.00887553
0.00915663
0.00948494
0.00986759
0.0103128
0.0108303
0.01143
0.0121236
0.0129207
0.0138283
0.0148492
0.0159791
0.0172048
0.0184988
0.0198189
0.0211064
0.0222669
0.0231566
0.023569
0.0236351
0.0231312
0.0220062
0.0200612
0.0175902
0.0147967
0.0119194
0.00920347
0.00684559
0.00495258
0.00353293
0.00251937
0.00180874
0.00131247
0.000965755
0.000821158
0.00138323
0.00140183
0.00100615
0.00103835
0.00111689
0.00120902
0.00133116
0.00151749
0.00181203
0.00226524
0.00292611
0.00382896
0.00497968
0.00634763
0.00786403
0.00942426
0.0108934
0.0121207
0.0128879
0.0131999
0.0132574
0.0130002
0.012357
0.0114869
0.0106446
0.00987028
0.00919517
0.00861921
0.00813004
0.00772482
0.00738842
0.0071136
0.00689126
0.00671182
0.00657029
0.00646066
0.0063793
0.00632082
0.00629062
0.00627949
0.00627918
0.00630749
0.00635171
0.00641926
0.00650815
0.00662305
0.00676652
0.00694313
0.00715918
0.00742214
0.00774156
0.00812888
0.00859958
0.00917226
0.00986673
0.0107038
0.0117045
0.0128835
0.0142428
0.0157563
0.0173859
0.0190721
0.0207123
0.0221595
0.0230826
0.0234298
0.02333
0.022271
0.0201871
0.0174337
0.0142813
0.0110706
0.00813446
0.00571148
0.00389322
0.00263654
0.00181265
0.00127126
0.000937782
0.000814326
0.00134295
0.00200812
0.00136904
0.00138239
0.00148669
0.00162769
0.00182248
0.00211524
0.00255974
0.00320986
0.00410542
0.00525548
0.00662565
0.00813381
0.00965475
0.0110335
0.0121039
0.0126325
0.0127956
0.0127045
0.0121668
0.0112833
0.0103544
0.00949022
0.0087241
0.0080634
0.00750411
0.00703221
0.00663542
0.00630368
0.00602539
0.00579315
0.0055988
0.00543673
0.00530254
0.0051924
0.00510333
0.00503254
0.00497918
0.00494041
0.00492062
0.00491346
0.00491591
0.00494077
0.00497915
0.00503723
0.00511514
0.00521635
0.0053442
0.00550374
0.0057008
0.00594323
0.00623975
0.00660364
0.00705423
0.00761575
0.00832111
0.00921098
0.0103338
0.0117147
0.0133602
0.0152572
0.0173209
0.0194593
0.0214799
0.0230634
0.0238112
0.0240016
0.023028
0.0207308
0.01757
0.0139387
0.0103175
0.00714363
0.00468314
0.00297919
0.00190839
0.00127221
0.000902311
0.000786504
0.00125723
0.00278706
0.00180224
0.00179975
0.00194621
0.00215117
0.0024379
0.00285822
0.00346954
0.00431775
0.0054184
0.00674057
0.00819963
0.00966186
0.0109623
0.0118809
0.0122874
0.0123855
0.0121118
0.0113598
0.0103844
0.00943865
0.00856581
0.00780943
0.007163
0.00661746
0.00615774
0.00576994
0.00544303
0.00516754
0.00493525
0.00474008
0.00457641
0.00444033
0.00432816
0.00423689
0.00416431
0.00410848
0.00406788
0.0040426
0.00403109
0.00402799
0.00403776
0.00406271
0.00409923
0.00415065
0.00421703
0.00430064
0.00440354
0.00452818
0.00467788
0.00485678
0.00507005
0.00532439
0.00562867
0.00599452
0.00644025
0.0069931
0.00769584
0.00862498
0.00987485
0.0115137
0.0135396
0.0159277
0.0185316
0.021158
0.0234323
0.0246466
0.0250702
0.024161
0.0215317
0.0178246
0.0136082
0.00954291
0.00616981
0.00374131
0.00220938
0.00134531
0.000902301
0.000753474
0.0011813
0.00374971
0.00231178
0.00230067
0.00249915
0.00278189
0.00317375
0.00372987
0.00450228
0.00551618
0.00675022
0.00812592
0.00951019
0.0107334
0.0115479
0.0118841
0.011948
0.0115297
0.0106657
0.00967502
0.0086992
0.00783174
0.0070787
0.00644434
0.00590941
0.00546057
0.00508288
0.00476561
0.00449983
0.00427816
0.00409449
0.0039438
0.00382162
0.00372428
0.00364839
0.00359112
0.00354993
0.00352345
0.0035108
0.00350676
0.00351122
0.00352788
0.00355365
0.00358985
0.00363583
0.00369303
0.00376184
0.00384369
0.00393996
0.0040524
0.00418316
0.00433477
0.00451039
0.00471406
0.00495113
0.0052289
0.00555473
0.00594179
0.00640984
0.00699145
0.00774177
0.00875576
0.010226
0.0122656
0.0148629
0.0179126
0.0211531
0.0241266
0.0258231
0.026441
0.0255015
0.0223851
0.0179824
0.0131093
0.0086375
0.00517214
0.00288123
0.00158077
0.000952111
0.000746966
0.0011496
0.00491752
0.00290967
0.00288835
0.00314497
0.00351277
0.00401226
0.00469487
0.00559717
0.00671324
0.00797891
0.0092713
0.0104256
0.0111863
0.011488
0.0115174
0.0110206
0.0101159
0.0091089
0.00812538
0.00724838
0.00650154
0.00587152
0.00534644
0.00490707
0.0045412
0.00423694
0.00398597
0.00378082
0.0036152
0.00348351
0.00338076
0.00330245
0.00324463
0.00320379
0.00317732
0.00316435
0.0031597
0.00316071
0.00317238
0.00319031
0.0032164
0.00324957
0.00329094
0.00334087
0.00340053
0.00347089
0.0035534
0.00364953
0.0037609
0.00388927
0.0040364
0.00420418
0.00439458
0.00460981
0.00485261
0.00512694
0.00543914
0.00579995
0.00622696
0.00674125
0.00738871
0.00825502
0.00949017
0.0114026
0.0141349
0.0175749
0.0214405
0.0251483
0.0272581
0.0279937
0.026861
0.0230511
0.0178028
0.0122732
0.00752981
0.00414271
0.00211182
0.00111697
0.000776998
0.00118068
0.0063394
0.00361281
0.00356008
0.00387422
0.00432602
0.0049227
0.00570401
0.00668268
0.0078166
0.00900156
0.0100848
0.010816
0.011103
0.0111156
0.0106088
0.00969975
0.00867899
0.00768643
0.00680046
0.00604879
0.00542213
0.00490152
0.00447154
0.00411667
0.00382661
0.0035916
0.00340411
0.0032569
0.00314356
0.00305821
0.0029956
0.00295114
0.00292091
0.00290234
0.00289344
0.00289038
0.0028909
0.0028988
0.00291188
0.0029301
0.00295439
0.00298506
0.00302329
0.00307006
0.00312675
0.00319475
0.00327566
0.0033712
0.00348316
0.00361341
0.00376376
0.00393598
0.00413162
0.00435191
0.0045977
0.00486953
0.00516816
0.00549567
0.00585772
0.00626771
0.00675161
0.00734326
0.00811792
0.00922424
0.010951
0.0137397
0.0175388
0.0220474
0.0264962
0.0288588
0.0296036
0.0280144
0.0232358
0.0170398
0.0109808
0.00620368
0.00310973
0.00149428
0.000887412
0.00131755
0.00793466
0.00439571
0.00430142
0.00466888
0.00519489
0.00586549
0.00670204
0.00768898
0.00874961
0.00975084
0.0104607
0.0107451
0.0107601
0.0102758
0.00940143
0.00837505
0.00736883
0.00646879
0.00570593
0.00507495
0.00455615
0.00413138
0.0037862
0.00350806
0.00328742
0.00311508
0.00298314
0.002884
0.00281099
0.00275815
0.00272047
0.00269389
0.00267532
0.00266263
0.00265416
0.0026495
0.0026477
0.00264885
0.00265494
0.00266525
0.00268153
0.00270435
0.00273513
0.00277508
0.00282569
0.0028885
0.00296527
0.00305784
0.00316824
0.0032986
0.00345113
0.00362803
0.0038313
0.00406255
0.0043227
0.00461173
0.00492849
0.00527086
0.0056367
0.00602619
0.00644659
0.00692063
0.00748842
0.00821235
0.0092391
0.010869
0.0136783
0.0178624
0.0230596
0.0281164
0.030536
0.0311441
0.0286476
0.0226075
0.0155133
0.00919624
0.00472041
0.00220201
0.00115209
0.00165874
0.00965869
0.00524119
0.00509377
0.00550468
0.00608668
0.00679723
0.00763509
0.00855648
0.00945757
0.0101407
0.0104294
0.0104618
0.0100262
0.00920231
0.00818801
0.00716406
0.00624222
0.00546022
0.00481707
0.00429381
0.00387018
0.0035302
0.00326073
0.00305037
0.00288924
0.00276789
0.00267796
0.00261182
0.00256308
0.00252647
0.00249793
0.00247457
0.00245453
0.00243677
0.00242082
0.00240685
0.00239519
0.00238746
0.00238414
0.0023837
0.00239067
0.00240485
0.00242768
0.00246015
0.00250383
0.00256016
0.0026309
0.00271795
0.00282346
0.00294985
0.00309974
0.00327592
0.00348124
0.00371831
0.00398923
0.00429507
0.00463536
0.00500758
0.00540696
0.00582718
0.00626267
0.00671405
0.00719888
0.00776431
0.00846693
0.00945897
0.0110756
0.0139579
0.0185874
0.0245801
0.0299717
0.0322305
0.0324879
0.0283383
0.0209251
0.0131473
0.00703813
0.00330998
0.00163416
0.00222877
0.0114559
0.00612794
0.00591432
0.00635329
0.00696606
0.00767563
0.00845663
0.00924093
0.00988372
0.01018
0.0102293
0.00986025
0.0090956
0.00810634
0.00706814
0.00611488
0.00530392
0.00463913
0.0041034
0.00367471
0.00333474
0.00306885
0.00286429
0.00270959
0.00259433
0.00250896
0.00244531
0.00239649
0.00235719
0.00232348
0.00229274
0.00226349
0.00223509
0.00220753
0.00218121
0.00215688
0.00213542
0.00211783
0.00210527
0.00209933
0.00209791
0.00210454
0.002121
0.00214695
0.0021841
0.00223368
0.00229732
0.00237687
0.0024745
0.00259276
0.00273458
0.00290329
0.00310251
0.00333603
0.00360745
0.00391977
0.00427464
0.00467154
0.00510682
0.00557313
0.00605977
0.00655503
0.0070521
0.00756304
0.0081402
0.00884204
0.00983604
0.0115074
0.0145816
0.0197414
0.026627
0.0321262
0.0340375
0.0331983
0.0268098
0.0180073
0.0101215
0.00486416
0.00233622
0.00297675
0.0132663
0.00703176
0.0067378
0.00718516
0.0077992
0.00846494
0.00913455
0.00972213
0.0100186
0.0100696
0.00977706
0.00907652
0.00812314
0.0070769
0.00608637
0.00523382
0.00453612
0.00397791
0.00353621
0.00318983
0.00292189
0.00271803
0.0025653
0.00245196
0.00236758
0.00230325
0.0022518
0.00220781
0.00216755
0.0021287
0.00209013
0.00205157
0.00201334
0.00197613
0.00194081
0.00190835
0.0018797
0.00185575
0.00183732
0.00182654
0.00182228
0.00182277
0.00183482
0.00185575
0.00188729
0.00193046
0.00198669
0.0020577
0.00214556
0.00225281
0.00238247
0.00253817
0.00272405
0.00294482
0.00320549
0.00351101
0.00386566
0.00427206
0.00472992
0.00523457
0.00577586
0.0063381
0.00690258
0.00745465
0.00800155
0.0086019
0.00931839
0.0103564
0.0121661
0.0156256
0.0214464
0.0292306
0.034267
0.0355658
0.0324922
0.0236413
0.0140371
0.00691874
0.0032754
0.00385179
0.0150297
0.00792715
0.007539
0.00797238
0.00855756
0.0091406
0.00965515
0.00993908
0.00998877
0.00977141
0.009142
0.0082334
0.00718791
0.00615836
0.00525215
0.00450713
0.00391442
0.00344979
0.00308932
0.00281308
0.00260468
0.00244956
0.00233463
0.00224845
0.00218142
0.00212595
0.00207657
0.00202962
0.00198307
0.00193609
0.00188871
0.00184153
0.00179542
0.00175139
0.0017104
0.00167339
0.00164113
0.00161433
0.00159358
0.00158021
0.00157414
0.00157285
0.00158121
0.00159864
0.00162555
0.00166298
0.00171212
0.0017745
0.001852
0.00194702
0.00206248
0.002202
0.00236995
0.00257151
0.0028126
0.00309976
0.00343962
0.00383813
0.00429924
0.00482311
0.00540396
0.00602821
0.00667407
0.00731441
0.0079262
0.00851392
0.00914246
0.00989142
0.0110157
0.0130872
0.017221
0.0240353
0.0323741
0.0362096
0.036496
0.0296854
0.0188491
0.00957617
0.00448148
0.0048028
0.0167219
0.00879172
0.0082941
0.0086906
0.00921872
0.00968622
0.00995889
0.010017
0.00983458
0.00928748
0.00843373
0.00739934
0.00633412
0.0053649
0.00455646
0.00391401
0.00341441
0.00303047
0.00273883
0.00252028
0.00235845
0.00223875
0.00214858
0.00207749
0.00201743
0.00196267
0.0019096
0.00185632
0.00180225
0.00174766
0.00169335
0.00164034
0.00158968
0.00154237
0.00149925
0.00146102
0.0014282
0.00140122
0.00138043
0.00136659
0.00136009
0.00135834
0.00136449
0.00137937
0.00140254
0.00143501
0.00147774
0.00153206
0.00159964
0.00168261
0.00178368
0.00190625
0.00205457
0.00223386
0.00245043
0.00271166
0.00302587
0.00340174
0.00384727
0.00436809
0.00496489
0.00563038
0.00634642
0.00708313
0.00780263
0.00847294
0.0091021
0.00975657
0.0105539
0.0118346
0.0143522
0.0194615
0.0277168
0.035591
0.0381451
0.0354084
0.024512
0.0129608
0.00599128
0.00578762
0.0183008
0.009606
0.0089838
0.00932107
0.00976947
0.0100581
0.0101349
0.00996536
0.00950924
0.0087193
0.00770947
0.00661687
0.00558064
0.00469316
0.00398258
0.00343276
0.00301384
0.00269822
0.00246325
0.00229006
0.00216239
0.00206622
0.00199009
0.00192521
0.00186547
0.0018071
0.00174825
0.00168847
0.00162819
0.00156836
0.00151011
0.00145454
0.00140261
0.00135511
0.00131262
0.00127555
0.00124417
0.00121865
0.00119914
0.0011861
0.00117991
0.00117817
0.00118313
0.00119601
0.00121614
0.00124437
0.00128151
0.00132869
0.00138734
0.00145933
0.00154707
0.00165361
0.00178285
0.00193973
0.00213044
0.00236257
0.00264521
0.00298876
0.00340435
0.00390247
0.00449071
0.00517022
0.00593141
0.00674964
0.00758354
0.00838034
0.0090969
0.00974668
0.0104327
0.0113182
0.0128725
0.0161515
0.0225636
0.0324865
0.0384265
0.0392138
0.0307189
0.017203
0.00783233
0.00681413
0.0197225
0.0103533
0.00959272
0.00985161
0.0101781
0.0102992
0.0101839
0.00980274
0.00908357
0.00811406
0.00700855
0.00590834
0.00493015
0.00413131
0.00351195
0.00304333
0.00269306
0.00243401
0.00224409
0.0021048
0.00200045
0.00191823
0.00184838
0.00178412
0.00172133
0.00165802
0.00159376
0.00152909
0.00146505
0.00140285
0.0013436
0.00128828
0.00123758
0.00119201
0.00115187
0.00111731
0.00108838
0.00106507
0.00104737
0.00103558
0.00103
0.00102842
0.00103265
0.00104388
0.00106146
0.00108608
0.00111843
0.00115945
0.00121038
0.00127282
0.00134885
0.00144114
0.00155316
0.00168937
0.00185549
0.0020588
0.0023084
0.00261538
0.00299264
0.00345422
0.00401354
0.00468031
0.00545576
0.00632661
0.00725918
0.00819704
0.00906943
0.00982295
0.0104639
0.0111803
0.0122207
0.0142583
0.0188447
0.0272572
0.0372267
0.0407648
0.0368149
0.022386
0.0100667
0.00787008
0.0209373
0.0110173
0.0101092
0.0102714
0.0104536
0.0104441
0.0101316
0.00951556
0.00860503
0.00750713
0.00635511
0.00528197
0.00437637
0.00366452
0.0031269
0.00272808
0.00243519
0.00222177
0.00206632
0.00195101
0.00186131
0.00178611
0.00171764
0.00165117
0.00158437
0.00151669
0.00144866
0.0013814
0.00131615
0.00125409
0.00119615
0.00114301
0.0010951
0.00105263
0.00101565
0.000984115
0.000957926
0.000936963
0.000921105
0.00091056
0.000905569
0.000904163
0.000907802
0.000917599
0.000932991
0.000954515
0.000982772
0.00101857
0.00106295
0.00111729
0.00118336
0.00126347
0.00136061
0.00147871
0.00162288
0.00179976
0.00201795
0.00228835
0.00262446
0.00304226
0.00355926
0.00419222
0.00495288
0.00584132
0.00683758
0.00789377
0.00893175
0.00985711
0.0106402
0.0112397
0.0120265
0.0133359
0.0162466
0.0226992
0.0337777
0.0410309
0.0415499
0.0284836
0.0128204
0.00902191
0.0219192
0.0115865
0.0105235
0.0105679
0.0106352
0.0104639
0.009987
0.00916504
0.00810374
0.00692267
0.0057616
0.00473708
0.00390885
0.00327785
0.00281172
0.00247196
0.00222612
0.00204851
0.00191841
0.0018191
0.00173769
0.00166502
0.00159538
0.00152586
0.00145559
0.00138502
0.00131525
0.0012476
0.00118326
0.00112318
0.00106803
0.00101818
0.000973782
0.000934816
0.000901161
0.00087264
0.000849058
0.000830232
0.000816
0.000806482
0.000801951
0.000800654
0.000803714
0.000812219
0.000825687
0.000844548
0.00086932
0.000900695
0.000939572
0.000987119
0.00104485
0.00111474
0.00119936
0.00130209
0.00142739
0.00158116
0.00177118
0.00200765
0.00230373
0.00267593
0.00314401
0.00372969
0.00445355
0.00532896
0.00635287
0.00749432
0.00868423
0.00981603
0.0107728
0.0115007
0.0120485
0.0129962
0.014862
0.0194186
0.0286734
0.0401882
0.043869
0.035283
0.0163459
0.0104859
0.0226568
0.0120624
0.0108324
0.0107597
0.0107205
0.0104122
0.00975156
0.00877532
0.00760277
0.00637581
0.00523235
0.00426806
0.00351591
0.00295762
0.00255298
0.00226248
0.00205448
0.00190421
0.00179204
0.00170275
0.00162535
0.00155272
0.00148101
0.00140881
0.00133633
0.0012646
0.00119496
0.00112866
0.00106669
0.00100972
0.000958112
0.000911969
0.000871226
0.000835703
0.000805165
0.00077936
0.000758047
0.000741024
0.000728113
0.000719352
0.000715119
0.000713852
0.000716306
0.000723629
0.000735395
0.00075195
0.000773748
0.000801387
0.000835642
0.000877515
0.000928304
0.000989693
0.00106388
0.00115377
0.00126321
0.00139733
0.001563
0.00176945
0.00202891
0.00235743
0.00277532
0.00330704
0.00397935
0.0048167
0.00583257
0.00701648
0.00831837
0.00963638
0.010823
0.0117877
0.0123917
0.0129423
0.0142251
0.0171853
0.0243449
0.0372627
0.0446714
0.0419297
0.0208565
0.0124313
0.0231582
0.0124467
0.0110433
0.0108587
0.0107075
0.0102796
0.00946612
0.00836711
0.00711832
0.0058747
0.00476646
0.00386699
0.00318621
0.00269193
0.00233951
0.00208954
0.00191142
0.00178148
0.00168151
0.00159807
0.00152212
0.00144845
0.0013748
0.0013009
0.00122762
0.00115628
0.0010882
0.00102444
0.000965695
0.000912347
0.000864491
0.000822028
0.000784738
0.00075234
0.000724536
0.000701044
0.000681613
0.000666041
0.000654161
0.000645913
0.000641828
0.000640522
0.000642355
0.000648592
0.000658847
0.000673401
0.00069265
0.00071712
0.000747484
0.000784609
0.000829615
0.000883946
0.00094949
0.00102873
0.00112497
0.00124263
0.00138771
0.00156835
0.00179562
0.00208444
0.00245458
0.00293134
0.0035451
0.00432856
0.00530979
0.00649957
0.00787313
0.00934982
0.0107829
0.0119823
0.0127884
0.0132603
0.0140367
0.0159942
0.0212782
0.0325622
0.0447241
0.0469603
0.0266327
0.0148246
0.0234342
0.0127402
0.0111632
0.0108634
0.0106366
0.0100747
0.00914705
0.00795649
0.00666099
0.00542257
0.00436004
0.00352534
0.00290952
0.00247075
0.00216219
0.00194517
0.00179024
0.0016751
0.00158316
0.00150284
0.00142703
0.00135216
0.00127721
0.00120272
0.00112992
0.00106017
0.000994614
0.000934042
0.000878877
0.000829234
0.000785004
0.000745942
0.000711733
0.00068204
0.000656545
0.00063496
0.000617044
0.000602607
0.000591498
0.000583637
0.00057955
0.000578148
0.000579372
0.000584617
0.000593532
0.000606341
0.000623399
0.000645166
0.000672236
0.000705368
0.000745533
0.000793985
0.000852348
0.000922759
0.00100805
0.00111204
0.0012399
0.00139874
0.00159837
0.0018523
0.00217902
0.00260325
0.00315671
0.00387717
0.00480375
0.00596621
0.00736617
0.00895164
0.0105912
0.0120683
0.0131784
0.0137153
0.0141375
0.0154512
0.0189929
0.0281756
0.043253
0.0494427
0.0340412
0.0175864
0.0234492
0.0129429
0.011208
0.0108201
0.0104872
0.00982558
0.0088093
0.00755516
0.00623706
0.00501932
0.00400772
0.00323485
0.00267695
0.00228579
0.00201376
0.00182322
0.00168607
0.0015815
0.00149467
0.00141588
0.00133971
0.00126396
0.00118856
0.00111451
0.00104317
0.000975792
0.000913282
0.000856153
0.000804575
0.000758455
0.000717538
0.000681485
0.000649931
0.00062252
0.000598934
0.000578897
0.000562186
0.00054863
0.000538096
0.000530511
0.00052633
0.000524796
0.000525451
0.000529796
0.00053752
0.000548808
0.00056397
0.000583418
0.00060768
0.000637428
0.000673516
0.000717038
0.00076941
0.000832478
0.000908689
0.00100133
0.00111487
0.00125547
0.00143173
0.00165566
0.00194413
0.00232042
0.00281592
0.00347078
0.00433176
0.00544428
0.00683556
0.00848741
0.0103025
0.0120784
0.0135275
0.0142685
0.0146244
0.0153061
0.0176989
0.0247549
0.0398664
0.0503266
0.0422402
0.0205939
0.0233372
0.0130751
0.0111931
0.0107115
0.0102848
0.00954533
0.00846461
0.00717122
0.00584957
0.00466282
0.00370363
0.00298803
0.00248102
0.00213035
0.0018885
0.00171907
0.0015954
0.0014983
0.00141468
0.00133656
0.00126003
0.00118395
0.00110888
0.00103607
0.000966851
0.000902281
0.000843008
0.000789295
0.000741101
0.000698183
0.000660191
0.000626733
0.000597423
0.000571911
0.00054989
0.000531105
0.000515355
0.000502485
0.000492383
0.000484982
0.000480652
0.000478963
0.000479126
0.000482655
0.000489324
0.000499278
0.000512793
0.000530238
0.000552089
0.000578945
0.000611567
0.000650925
0.00069826
0.000755187
0.000823832
0.000907039
0.00100867
0.00113408
0.00129073
0.00148923
0.00174464
0.00207837
0.00252032
0.00311084
0.00390083
0.00494709
0.00629848
0.00796927
0.00990084
0.0119212
0.0137285
0.0147863
0.0152108
0.01553
0.0170848
0.0222594
0.035741
0.0503347
0.04982
0.023344
0.0230779
0.0131613
0.0111384
0.0105449
0.0100442
0.00924533
0.00812202
0.00680993
0.00549926
0.00434981
0.003442
0.0027783
0.00231551
0.00199903
0.00178196
0.00162925
0.00151576
0.0014239
0.0013423
0.00126453
0.00118787
0.00111203
0.00103792
0.000966909
0.000900185
0.000838582
0.000782506
0.000732008
0.000686888
0.0006468
0.000611336
0.000580081
0.000552653
0.000528712
0.000507975
0.000490208
0.000475231
0.000462907
0.00045314
0.00044587
0.000441352
0.000439442
0.000439265
0.000442045
0.000447777
0.00045656
0.000468636
0.000484339
0.000504101
0.000528464
0.000558115
0.00059392
0.000636985
0.000688737
0.000751039
0.000826374
0.000918099
0.00103085
0.00117113
0.00134822
0.00157546
0.00187219
0.00226617
0.00279647
0.00351548
0.00448754
0.00577925
0.00743559
0.00943911
0.0116582
0.0138051
0.0153252
0.0158965
0.0160865
0.0168857
0.0204032
0.0314035
0.049769
0.0550809
0.0252356
0.0226782
0.0131941
0.0110284
0.0103412
0.00977677
0.0089351
0.00778821
0.0064743
0.00518538
0.00407652
0.00321744
0.00260002
0.0021753
0.00188753
0.00169072
0.00155122
0.00144539
0.00135725
0.00127699
0.0011995
0.00112305
0.00104791
0.000975237
0.000906344
0.000842259
0.000783588
0.000730525
0.000682953
0.000640557
0.000602924
0.000569619
0.000540224
0.000514367
0.000491731
0.000472053
0.000455123
0.000440779
0.000428897
0.000419396
0.000412222
0.000407503
0.000405341
0.000404926
0.000407047
0.000411951
0.000419702
0.000430514
0.000444692
0.000462631
0.000484826
0.000511904
0.00054465
0.000584062
0.000631413
0.000688359
0.000757082
0.000840523
0.000942721
0.00106934
0.00122849
0.00143191
0.00169686
0.00204868
0.00252415
0.00317499
0.00406938
0.00528668
0.00689825
0.00892784
0.0112951
0.0137655
0.0157726
0.0166045
0.0167878
0.0170321
0.0194547
0.0280643
0.0474136
0.0576425
0.026
0.0221515
0.0131864
0.0108867
0.0101108
0.00949228
0.00862226
0.00746788
0.00616572
0.00490624
0.00383905
0.00302512
0.00244846
0.00205626
0.00179246
0.00161214
0.00148306
0.00138303
0.00129759
0.00121829
0.00114117
0.00106525
0.000991182
0.000920227
0.000853594
0.000792129
0.00073623
0.000685918
0.000640949
0.000600928
0.000565405
0.000533933
0.000506105
0.000481565
0.000460019
0.000441225
0.000424993
0.000411175
0.000399662
0.00039038
0.000383282
0.000378386
0.000375985
0.000375359
0.000376914
0.000381088
0.00038793
0.000397629
0.000410464
0.0004268
0.000447094
0.000471925
0.000502012
0.000538266
0.000581841
0.000634222
0.000697354
0.000773832
0.000867199
0.00098241
0.00112654
0.00130993
0.00154785
0.00186316
0.00228984
0.00287755
0.0036955
0.00483155
0.00637857
0.00839755
0.0108532
0.0135381
0.01605
0.0173357
0.0176153
0.0176181
0.0190247
0.0258834
0.0440186
0.0585115
0.0261253
0.0215188
0.0131579
0.0107243
0.00986328
0.00919895
0.00831283
0.00716419
0.00588439
0.00465953
0.00363364
0.00286084
0.00231964
0.00195502
0.00171113
0.00154421
0.00142334
0.00132774
0.00124432
0.00116583
0.00108922
0.00101409
0.000941334
0.00087223
0.00080786
0.000748885
0.00069553
0.000647677
0.000604987
0.000567017
0.000533296
0.00050338
0.000476875
0.000453447
0.00043282
0.000414773
0.000399132
0.000385762
0.000374562
0.000365463
0.000358423
0.000353427
0.000350784
0.000349958
0.00035103
0.000354564
0.000360603
0.000369317
0.000380965
0.000395883
0.0004145
0.000437351
0.000465106
0.000498606
0.000538909
0.000587366
0.000645729
0.000716314
0.000802257
0.000907913
0.00103949
0.00120606
0.00142111
0.00170508
0.00208895
0.00261938
0.00336432
0.00441618
0.00588466
0.00786665
0.0103823
0.0132814
0.0161562
0.0180063
0.0184973
0.018341
0.0189016
0.0239941
0.0406985
0.0584772
0.0258037
0.0208131
0.013102
0.0105485
0.00960662
0.00890357
0.00801131
0.00687899
0.00562966
0.00444284
0.00345683
0.00272091
0.00221028
0.00186886
0.0016414
0.00148533
0.00137097
0.00127881
0.00119697
0.00111922
0.00104327
0.000969117
0.000897807
0.000830577
0.000768374
0.000711697
0.000660625
0.000614934
0.000574221
0.000538011
0.000505827
0.000477233
0.000451852
0.000429368
0.000409525
0.000392118
0.000376986
0.000364003
0.000353076
0.00034414
0.000337152
0.000332096
0.000329228
0.000328217
0.000328879
0.000331853
0.000337182
0.000345024
0.000355617
0.000369277
0.000386403
0.000407499
0.000433193
0.000464268
0.000501709
0.000546761
0.000601022
0.000666583
0.000746248
0.000843875
0.000964934
0.0011174
0.00131318
0.00157045
0.00191721
0.00239661
0.00307384
0.00404241
0.00542304
0.00734142
0.00986866
0.0129238
0.0161729
0.0186196
0.0194358
0.0192538
0.0191769
0.0227643
0.0374735
0.0568029
0.0252116
0.0200545
0.0130327
0.0103663
0.00934751
0.00861161
0.00772109
0.00661328
0.00540047
0.00425338
0.00330537
0.00260228
0.00211767
0.00179557
0.00158159
0.00143427
0.00132507
0.00123562
0.00115509
0.0010781
0.00100292
0.000929859
0.000860035
0.000794621
0.000734431
0.000679826
0.00063077
0.00058696
0.000547948
0.000513243
0.00048237
0.000454903
0.000430481
0.000408806
0.000389638
0.000372786
0.000358098
0.000345457
0.000334775
0.000325988
0.000319053
0.000313954
0.000310884
0.0003097
0.00031002
0.000312505
0.000317207
0.000324275
0.00033393
0.000346467
0.000362264
0.000381795
0.000405654
0.000434581
0.000469498
0.000511569
0.000562269
0.000623513
0.000697833
0.000788681
0.000900907
0.00104155
0.00122112
0.00145575
0.00177057
0.00220508
0.00282072
0.00370967
0.0049994
0.00683914
0.00934658
0.012503
0.0160326
0.0191164
0.0203476
0.0202801
0.0198046
0.0220231
0.0345994
0.0546163
0.0244302
0.0192591
0.0129647
0.0101858
0.00909199
0.00832746
0.00744458
0.00636735
0.00519526
0.00408871
0.00317646
0.0025023
0.00203959
0.00173338
0.00153034
0.00139003
0.00128495
0.00119769
0.00111829
0.00104208
0.000967761
0.00089584
0.000827477
0.000763765
0.000705401
0.00065263
0.000605331
0.000563142
0.000525587
0.000492167
0.000462411
0.000435907
0.000412309
0.000391333
0.000372751
0.000356384
0.000342089
0.000329754
0.000319293
0.000310644
0.000303765
0.000298635
0.000295385
0.000294034
0.000294072
0.000296131
0.00030028
0.00030666
0.000315479
0.000327013
0.000341621
0.000359751
0.00038197
0.000408979
0.000441655
0.000481094
0.000528679
0.000586182
0.000655921
0.000741016
0.000845801
0.000976521
0.00114248
0.00135798
0.00164549
0.00204087
0.00260125
0.00341558
0.00461395
0.00636339
0.0088248