/*--------------------------------*- C++ -*----------------------------------*\
  =========                 |
  \\      /  F ield         | OpenFOAM: The Open Source CFD Toolbox
   \\    /   O peration     | Website:  https://openfoam.org
    \\  /    A nd           | Version:  13
     \\/     M anipulation  |
\*---------------------------------------------------------------------------*/
FoamFile
{
    format      ascii;
    class       volScalarField;
    location    "4";
    object      k;
}
// * * * * * * * * * * * * * * * * * * * * * * * * * * * * * * * * * * * * * //

dimensions      [0 2 -2 0 0 0 0];

internalField   nonuniform List<scalar> 
6400
(
4.03475e-07
2.06184e-06
4.91592e-06
7.92424e-06
1.03044e-05
1.17981e-05
1.25548e-05
1.29308e-05
1.33262e-05
1.41249e-05
1.56347e-05
1.81373e-05
2.18667e-05
2.68703e-05
3.29803e-05
3.99433e-05
4.74821e-05
5.54978e-05
6.36133e-05
7.16144e-05
7.95843e-05
8.80757e-05
9.78444e-05
0.000109587
0.000123314
0.000138042
0.000152644
0.000167279
0.000182151
0.000197625
0.000213748
0.000230005
0.000245933
0.000261482
0.000276825
0.000292289
0.000308055
0.000324408
0.000341503
0.000359542
0.000378604
0.000398842
0.000420413
0.000443455
0.000468129
0.000494693
0.000523973
0.000557736
0.000599728
0.000642919
0.000686787
0.000730051
0.000772057
0.000811504
0.000847083
0.000877359
0.000900378
0.000911773
0.000916187
0.000911456
0.000890482
0.000855047
0.000805404
0.000742376
0.000669067
0.000586803
0.000500957
0.00041537
0.000333724
0.000257961
0.00019499
0.000143103
0.000100766
6.7924e-05
4.39556e-05
2.73461e-05
1.6364e-05
9.24249e-06
4.28814e-06
9.08567e-07
1.96604e-06
1.65886e-05
3.98153e-05
6.27208e-05
8.04893e-05
9.20571e-05
9.87552e-05
0.000102885
0.000107008
0.000113569
0.000125168
0.000144009
0.000171161
0.000206387
0.000248478
0.000295769
0.000346664
0.000399458
0.000452757
0.00050567
0.000558847
0.000615203
0.000678896
0.00075324
0.000837558
0.000926345
0.00101361
0.00109867
0.00118117
0.00126179
0.00133985
0.00141342
0.00148091
0.00154232
0.00159877
0.00165198
0.00170299
0.00175329
0.00180377
0.00185552
0.00190909
0.00196514
0.00202427
0.00208666
0.00215229
0.00222076
0.00229193
0.00236434
0.00243554
0.00251116
0.00258912
0.00266912
0.00274823
0.00282478
0.0028953
0.00295654
0.00300347
0.00302632
0.00303235
0.00301641
0.00296734
0.00288235
0.00276072
0.00260185
0.00240972
0.00218902
0.00195111
0.00170512
0.00145844
0.00121922
0.000988627
0.000774856
0.000586239
0.000427019
0.000298851
0.000199733
0.000126916
7.5305e-05
3.58323e-05
4.77015e-06
4.33788e-06
3.65748e-05
8.48698e-05
0.000127116
0.000157396
0.000176876
0.000189386
0.00019939
0.00021144
0.000230024
0.000259432
0.000302924
0.000361808
0.000435143
0.000520506
0.000615198
0.000716952
0.000823722
0.000933452
0.0010443
0.00115469
0.0012634
0.00136968
0.00147017
0.00156001
0.00163604
0.0016962
0.00174018
0.00177338
0.00180127
0.00182851
0.00185674
0.00188676
0.00191776
0.0019499
0.00198488
0.00202279
0.00206465
0.0021106
0.00216145
0.00221716
0.00227767
0.00234345
0.00241404
0.00248966
0.0025702
0.0026556
0.00274507
0.00283972
0.00293926
0.00304231
0.00314775
0.00325354
0.00335756
0.00345666
0.00354714
0.00362442
0.00368261
0.00371082
0.00371705
0.00369178
0.00362347
0.00351134
0.00335251
0.00314878
0.00290237
0.00262698
0.00233426
0.00203252
0.00173328
0.00144638
0.00117961
0.000939111
0.000728714
0.000549923
0.000402248
0.000282637
0.000183984
9.2601e-05
1.25058e-05
7.55897e-06
6.20956e-05
0.000135896
0.000193908
0.00023389
0.000260728
0.000280763
0.00030047
0.00032623
0.000364204
0.000419736
0.000496068
0.000593308
0.000708581
0.000837458
0.000975435
0.00111822
0.00126134
0.0014
0.00152936
0.00164474
0.00174234
0.001821
0.00187794
0.00190869
0.00192137
0.00192434
0.00192408
0.0019243
0.00192815
0.00193632
0.0019481
0.00196348
0.00198333
0.00200769
0.00203676
0.00207049
0.00210928
0.002153
0.00220161
0.00225545
0.00231441
0.00237876
0.00244837
0.00252328
0.00260311
0.00268827
0.00277935
0.00287618
0.00297835
0.00308512
0.00319543
0.00330773
0.00342006
0.00352968
0.00363316
0.00372618
0.00380377
0.00385619
0.00387826
0.00387745
0.00383341
0.00374795
0.00362244
0.00344674
0.00321911
0.00294764
0.00264484
0.0023245
0.00200089
0.00168711
0.00139398
0.00112888
0.000895779
0.00069586
0.000528129
0.00038842
0.00026753
0.000143989
2.02797e-05
1.20959e-05
9.61748e-05
0.000196795
0.000270157
0.000320129
0.000355673
0.000385833
0.000419304
0.000464373
0.000528499
0.000617008
0.000731488
0.000869165
0.00102395
0.00118842
0.00135508
0.00151657
0.0016653
0.0017938
0.00189657
0.00197029
0.00200657
0.0020182
0.00201107
0.00198622
0.00196412
0.00194512
0.0019305
0.00192326
0.00192083
0.00192158
0.00192761
0.00193746
0.0019519
0.00197033
0.00199265
0.0020188
0.00204862
0.00208174
0.00211835
0.00215843
0.00220208
0.00224956
0.00230145
0.00235837
0.00242108
0.0024896
0.0025639
0.00264431
0.00273097
0.00282393
0.00292302
0.00302764
0.00313679
0.00324898
0.00336208
0.00347294
0.003577
0.00366899
0.00374296
0.0037815
0.00379174
0.00375628
0.00367078
0.00353308
0.00335459
0.00311379
0.002825
0.00250407
0.00216813
0.0018348
0.00151983
0.00123455
0.000984893
0.000772173
0.000594457
0.000446369
0.000316276
0.000177273
2.53365e-05
1.85168e-05
0.000141547
0.000271102
0.000360768
0.000422143
0.000468468
0.000511754
0.000563077
0.000632353
0.000727258
0.000851383
0.00100287
0.00117475
0.00135693
0.00153833
0.00170826
0.00185688
0.00197533
0.00205479
0.00209038
0.00209777
0.00207194
0.0020361
0.00200198
0.00196708
0.00193717
0.00191158
0.00189153
0.00187661
0.00186462
0.00185702
0.00185389
0.00185324
0.00185653
0.00186263
0.00187125
0.0018823
0.00189557
0.00191103
0.00192906
0.00194972
0.00197333
0.00200015
0.0020303
0.00206415
0.00210216
0.00214477
0.00219265
0.00224662
0.00230756
0.00237632
0.00245387
0.00254091
0.00263774
0.00274418
0.00285927
0.0029815
0.00310831
0.00323541
0.0033573
0.00346541
0.00354692
0.00358355
0.00358718
0.0035269
0.00340682
0.00322746
0.00297448
0.00266733
0.00232521
0.00197106
0.0016279
0.00131438
0.00104158
0.00081259
0.000624615
0.000470336
0.000335762
0.000191262
2.70173e-05
2.73855e-05
0.000199982
0.000360918
0.000468278
0.000542682
0.000601912
0.000661102
0.000733483
0.000829684
0.000955958
0.00111234
0.00129222
0.0014839
0.00167321
0.00184597
0.00198959
0.00209458
0.00214554
0.00215884
0.00213503
0.00209289
0.00204707
0.00199713
0.00194792
0.00189984
0.00186033
0.00182627
0.00179783
0.00177339
0.0017532
0.00173797
0.00172527
0.00171518
0.0017076
0.00170194
0.00169837
0.00169672
0.00169628
0.0016978
0.00170127
0.00170643
0.00171366
0.00172311
0.00173493
0.00174947
0.00176713
0.00178833
0.00181376
0.00184414
0.00188042
0.00192389
0.00197592
0.00203835
0.00211323
0.00220229
0.00230651
0.00242642
0.00256286
0.0027126
0.00287091
0.00303135
0.00318637
0.00332151
0.00340907
0.00344161
0.00341786
0.00332421
0.00313874
0.0028665
0.00252966
0.00215518
0.0017747
0.00141797
0.00110617
0.000848122
0.000641473
0.000476688
0.000335892
0.000190276
2.62306e-05
3.92301e-05
0.000272468
0.000467004
0.000593443
0.000682336
0.00075614
0.000832993
0.000927601
0.00104991
0.00120304
0.0013822
0.00157561
0.00176728
0.00194021
0.00207936
0.00216528
0.00219766
0.00219536
0.00215391
0.00210347
0.00203889
0.00196714
0.00190014
0.00184014
0.0017903
0.00174688
0.00170878
0.00167547
0.00164611
0.00162063
0.00159849
0.00157885
0.00156184
0.00154715
0.00153462
0.00152414
0.00151544
0.00150845
0.00150333
0.0015002
0.00149881
0.00149854
0.00150062
0.00150468
0.00151098
0.00151978
0.00153145
0.00154647
0.00156534
0.00158866
0.00161688
0.00165087
0.00169159
0.00174046
0.00179958
0.0018726
0.00196393
0.00207743
0.00221713
0.00238223
0.00256547
0.00276354
0.00296409
0.00315246
0.00329672
0.00336168
0.00336732
0.00329467
0.00310071
0.00279673
0.0024169
0.00199925
0.00158644
0.00121535
0.000907773
0.000667063
0.000482195
0.000331732
0.000184901
2.4556e-05
5.44479e-05
0.000358997
0.000589028
0.000735661
0.00083998
0.000929037
0.00102353
0.00113862
0.00128211
0.00145277
0.00164052
0.001829
0.00199927
0.00213378
0.00220759
0.00223044
0.0022125
0.0021686
0.00209859
0.00201207
0.00192446
0.00184662
0.00177863
0.00171919
0.00166783
0.00162201
0.00158131
0.00154515
0.00151311
0.00148498
0.00146037
0.00143899
0.0014208
0.00140546
0.00139277
0.00138254
0.00137457
0.00136866
0.00136477
0.00136292
0.00136231
0.00136308
0.00136606
0.00137064
0.00137721
0.0013859
0.00139684
0.0014103
0.00142653
0.0014458
0.00146842
0.00149488
0.00152558
0.00156112
0.00160225
0.00165013
0.00170689
0.00177557
0.00186208
0.00197728
0.00213488
0.00233146
0.00255582
0.00279752
0.00303551
0.00324107
0.00334214
0.00336336
0.00330631
0.00309521
0.00274685
0.00231292
0.00184579
0.0014005
0.00101954
0.000721173
0.000499317
0.000330135
0.000176108
2.30722e-05
7.32547e-05
0.000458495
0.000725525
0.000893092
0.00101297
0.00111652
0.00122636
0.00135704
0.00151315
0.00168858
0.00186852
0.00203345
0.00216387
0.00223066
0.00224802
0.00222359
0.00217106
0.00208428
0.0019807
0.00188323
0.0017955
0.00171927
0.0016526
0.00159403
0.0015424
0.00149641
0.00145591
0.00142051
0.00139
0.00136413
0.00134258
0.00132505
0.0013112
0.00130062
0.00129289
0.0012876
0.00128482
0.00128369
0.00128356
0.00128536
0.00128826
0.00129252
0.00129815
0.00130508
0.00131349
0.00132347
0.00133517
0.00134881
0.00136462
0.00138284
0.00140374
0.00142745
0.00145419
0.0014842
0.00151767
0.00155471
0.00159602
0.00164263
0.00169711
0.00176454
0.00185298
0.00197536
0.00215925
0.0024012
0.00267277
0.00296091
0.00322209
0.00335916
0.00339361
0.00333834
0.00309726
0.00269211
0.00219647
0.00167986
0.00120882
0.000827197
0.000543338
0.000339074
0.000172757
2.24521e-05
9.60694e-05
0.00056822
0.000874087
0.00106281
0.00119731
0.00131292
0.00143353
0.00157225
0.00172994
0.00189597
0.00205214
0.00217803
0.00224198
0.00225732
0.00223197
0.00217018
0.00206877
0.00195431
0.00184654
0.0017503
0.00166605
0.0015929
0.00152873
0.00147243
0.00142315
0.00138036
0.00134394
0.00131356
0.00128887
0.00126941
0.00125463
0.00124393
0.00123668
0.00123257
0.00123074
0.00123028
0.00123142
0.00123388
0.00123721
0.00124162
0.00124682
0.00125301
0.0012602
0.0012685
0.00127809
0.00128913
0.00130181
0.00131634
0.00133291
0.00135169
0.0013728
0.00139635
0.00142242
0.00145107
0.00148238
0.00151657
0.00155297
0.0015916
0.00163281
0.00167832
0.0017324
0.0018018
0.00189996
0.00204877
0.00228645
0.00258651
0.00291724
0.00322921
0.00339662
0.00343837
0.00337114
0.00308136
0.00260743
0.00204743
0.00148869
0.00100533
0.00063455
0.000370642
0.000178362
2.30583e-05
0.000123848
0.00068485
0.00103169
0.00124094
0.00138796
0.00151165
0.00163663
0.00177412
0.00192143
0.00206455
0.00218382
0.00224668
0.00226191
0.00223695
0.00216889
0.00205771
0.00193569
0.00181781
0.00171282
0.00162127
0.00154188
0.00147304
0.0014132
0.00136172
0.00131808
0.00128193
0.00125289
0.00123037
0.00121363
0.00120186
0.00119418
0.0011902
0.00118853
0.0011882
0.00118943
0.00119165
0.00119466
0.00119825
0.00120236
0.0012071
0.00121248
0.0012187
0.00122591
0.00123432
0.00124415
0.00125565
0.00126906
0.00128461
0.00130252
0.00132297
0.00134608
0.0013719
0.00140038
0.00143135
0.00146451
0.00149949
0.00153594
0.00157376
0.00161254
0.0016513
0.00169162
0.00173655
0.00179239
0.00187297
0.00200147
0.00221401
0.00253413
0.00289992
0.00325976
0.0034427
0.00348301
0.00338595
0.00302157
0.00246944
0.00184929
0.00126411
0.000787449
0.000441102
0.000199661
2.573e-05
0.000155014
0.000808209
0.00119493
0.001423
0.00157939
0.00170602
0.00182784
0.00195429
0.00207992
0.00218893
0.00225029
0.00226615
0.00224182
0.00217128
0.00205502
0.00192596
0.00179933
0.001685
0.00158594
0.0015006
0.00142725
0.00136449
0.00131136
0.00126737
0.00123195
0.00120447
0.00118406
0.00116968
0.00116024
0.00115495
0.00115253
0.00115178
0.00115191
0.00115318
0.00115493
0.00115699
0.00115929
0.00116185
0.00116477
0.00116823
0.00117242
0.00117758
0.00118394
0.00119177
0.00120132
0.00121287
0.00122668
0.00124304
0.00126219
0.00128437
0.00130974
0.00133843
0.00137041
0.00140551
0.00144334
0.00148328
0.00152446
0.00156589
0.00160672
0.00164663
0.00168386
0.00172104
0.00175982
0.00180617
0.00187486
0.0019868
0.00218138
0.0025111
0.00291297
0.00330336
0.00348798
0.00351526
0.0033631
0.00289291
0.0022586
0.00159177
0.00100526
0.000559473
0.000247054
3.23915e-05
0.000188696
0.000935381
0.00135971
0.00160416
0.00176608
0.00188983
0.00200072
0.00210689
0.00220142
0.00225872
0.00227471
0.00225025
0.00218095
0.00206299
0.00192738
0.00179222
0.00166853
0.00156105
0.00146939
0.00139141
0.0013256
0.00127085
0.00122639
0.0011915
0.00116519
0.00114632
0.00113355
0.00112552
0.00112109
0.00111899
0.0011181
0.0011178
0.00111773
0.00111791
0.00111803
0.00111815
0.00111835
0.00111883
0.00111978
0.00112143
0.00112408
0.00112795
0.00113331
0.00114041
0.00114951
0.00116089
0.00117481
0.00119157
0.00121145
0.00123475
0.00126172
0.00129261
0.00132754
0.0013665
0.00140927
0.0014553
0.00150367
0.001553
0.00160157
0.00164755
0.00169004
0.00172621
0.00175734
0.00179126
0.00183407
0.00189391
0.00199654
0.00218281
0.00251715
0.00295697
0.00335606
0.00352408
0.00352449
0.00325943
0.00267396
0.0019619
0.00127612
0.000721709
0.000320609
4.35236e-05
0.000223807
0.00106303
0.00152175
0.00177962
0.00194285
0.00205787
0.00215055
0.00222862
0.00227785
0.00229219
0.00226577
0.0021997
0.0020824
0.00194202
0.00179812
0.00166458
0.00154773
0.00144861
0.00136533
0.00129589
0.00123899
0.00119355
0.00115855
0.00113272
0.00111459
0.00110254
0.00109497
0.00109044
0.00108775
0.00108589
0.0010842
0.00108239
0.00108035
0.00107811
0.00107569
0.0010733
0.00107115
0.00106961
0.00106893
0.00106883
0.00107019
0.00107311
0.00107771
0.00108426
0.00109298
0.0011041
0.00111789
0.00113463
0.00115462
0.0011782
0.00120573
0.00123754
0.00127397
0.00131524
0.00136141
0.00141228
0.00146721
0.00152504
0.00158393
0.00164133
0.00169426
0.00174205
0.00178098
0.00180383
0.00182948
0.00186891
0.00192442
0.00202305
0.00220837
0.00255379
0.003027
0.00341215
0.00355205
0.00347161
0.00305146
0.00234574
0.00158211
0.000918349
0.000414189
5.81318e-05
0.000259177
0.00118787
0.001677
0.00194504
0.00210532
0.00220599
0.0022742
0.00231183
0.00232108
0.00229185
0.00222942
0.00211438
0.00197105
0.00181894
0.00167458
0.0015471
0.00143898
0.00134903
0.00127497
0.00121498
0.0011677
0.00113174
0.00110554
0.00108732
0.00107518
0.00106731
0.00106211
0.00105832
0.00105499
0.00105152
0.00104764
0.0010433
0.0010386
0.00103371
0.00102885
0.0010243
0.00102032
0.0010172
0.00101535
0.00101463
0.00101499
0.00101748
0.00102171
0.001028
0.00103648
0.00104737
0.00106089
0.0010773
0.0010969
0.00112005
0.00114715
0.00117864
0.00121499
0.00125666
0.00130402
0.00135726
0.00141625
0.00148036
0.00154824
0.0016176
0.00168511
0.00174652
0.00180011
0.0018404
0.00185822
0.00187445
0.00190767
0.00196329
0.00206141
0.00225416
0.00262732
0.00312882
0.00345646
0.00353807
0.00334096
0.00271767
0.00190854
0.00113993
0.000521765
7.52225e-05
0.000293626
0.00130679
0.00182203
0.00209705
0.00225076
0.00233115
0.00236501
0.00236938
0.0023377
0.00227087
0.00216017
0.00201556
0.00185626
0.00170048
0.00156063
0.00144157
0.00134304
0.00126279
0.00119846
0.00114819
0.00111027
0.00108281
0.0010637
0.00105081
0.00104211
0.00103585
0.00103069
0.00102572
0.00102037
0.00101442
0.00100789
0.00100093
0.0009938
0.000986769
0.000980127
0.000974162
0.000969123
0.000965232
0.000962937
0.000962025
0.000962101
0.000964573
0.000968801
0.000975067
0.000983477
0.000994194
0.0010074
0.00102334
0.00104227
0.00106455
0.00109059
0.00112087
0.00115596
0.00119646
0.00124299
0.00129611
0.00135619
0.00142323
0.00149662
0.00157484
0.00165516
0.00173342
0.00180403
0.00186352
0.00190284
0.00191683
0.00192537
0.00195141
0.00200779
0.0021097
0.00232144
0.00273992
0.00324722
0.00347943
0.00347208
0.00305123
0.00224421
0.00138102
0.000638716
9.37975e-05
0.000326688
0.00141699
0.00195418
0.00223375
0.00237363
0.00242783
0.00243499
0.00240179
0.00232928
0.00222251
0.00207663
0.00191149
0.0017443
0.0015904
0.00145796
0.00134844
0.00125988
0.00118952
0.0011349
0.00109385
0.00106415
0.00104341
0.0010292
0.00101927
0.00101173
0.00100513
0.000998532
0.0009914
0.000983554
0.000975059
0.000966138
0.000957085
0.000948215
0.000939838
0.000932234
0.000925648
0.000920279
0.000916289
0.0009141
0.000913282
0.000913638
0.000916333
0.000920784
0.000927187
0.00093563
0.000946236
0.000959159
0.000974594
0.000992787
0.00101405
0.00103877
0.00106744
0.00110063
0.00113902
0.00118339
0.00123455
0.00129326
0.00136011
0.00143526
0.00151813
0.00160703
0.00169871
0.00178803
0.00186781
0.00193284
0.00196645
0.00197579
0.001979
0.00199839
0.0020561
0.00216927
0.0024193
0.00289328
0.00334416
0.00349213
0.00329483
0.00257308
0.00163785
0.000761953
0.000113033
0.000357535
0.00151644
0.0020716
0.00234873
0.00247187
0.00250447
0.00248149
0.00240904
0.00230238
0.00215624
0.00198589
0.00180798
0.00163892
0.00149048
0.00136697
0.00126742
0.00118883
0.00112814
0.00108259
0.00104958
0.0010264
0.00101033
0.00099887
0.000989912
0.000981895
0.000973796
0.000965078
0.000955579
0.000945407
0.000934823
0.000924161
0.000913766
0.000903956
0.000895009
0.000887154
0.000880569
0.00087539
0.000871751
0.00086996
0.000869388
0.000870289
0.000873311
0.000878056
0.000884644
0.000893153
0.000903678
0.000916347
0.000931324
0.000948822
0.000969113
0.000992547
0.00101957
0.00105072
0.0010867
0.00112831
0.00117649
0.00123228
0.00129668
0.00137052
0.00145412
0.00154693
0.00164704
0.00175056
0.00185128
0.00194041
0.00200541
0.00203135
0.00203565
0.00203359
0.00204645
0.00210818
0.00224418
0.00255643
0.00308519
0.00338251
0.00339863
0.00287676
0.00190606
0.000887606
0.000133083
0.00038531
0.00160423
0.00217027
0.00244186
0.0025479
0.00256223
0.0025072
0.0023997
0.0022552
0.00208109
0.00189323
0.00170878
0.00154209
0.00140121
0.0012873
0.00119769
0.00112873
0.00107702
0.00103943
0.00101289
0.000994354
0.000981026
0.000970552
0.000961171
0.000951741
0.000941668
0.000930785
0.000919215
0.00090725
0.000895253
0.000883588
0.000872583
0.00086251
0.000853582
0.000845955
0.000839743
0.000835019
0.000831997
0.000830645
0.000830353
0.000831811
0.000835141
0.000840136
0.000846868
0.00085541
0.000865843
0.000878275
0.000892848
0.000909745
0.000929199
0.000951515
0.000977078
0.00100638
0.00104006
0.0010789
0.00112385
0.00117606
0.00123677
0.00130728
0.00138866
0.0014814
0.00158491
0.00169682
0.00181229
0.00192357
0.00201999
0.0020815
0.00209712
0.0020949
0.00208531
0.00209482
0.00216733
0.00234363
0.00275386
0.00324352
0.00341071
0.00312962
0.00218035
0.00101513
0.000153709
0.000409043
0.00167837
0.00224977
0.00251384
0.00260378
0.00259955
0.0025122
0.00237485
0.00219796
0.00200176
0.00180235
0.00161609
0.00145457
0.00132236
0.00121815
0.00113811
0.00107811
0.00103435
0.00100329
0.000981532
0.000965915
0.000953765
0.000943057
0.00093246
0.000921264
0.000909253
0.000896544
0.000883445
0.000870337
0.000857604
0.000845579
0.000834531
0.00082466
0.000816105
0.000808957
0.00080327
0.000799075
0.000796641
0.00079568
0.000795639
0.000797512
0.000801049
0.000806183
0.000812964
0.000821465
0.00083176
0.000843949
0.000858158
0.000874545
0.000893313
0.00091472
0.000939099
0.000966878
0.00099861
0.001035
0.00107696
0.0011256
0.00118227
0.0012485
0.00132589
0.00141579
0.00151885
0.00163432
0.00175911
0.00188689
0.0020073
0.00210579
0.00215597
0.00216407
0.00214767
0.00212963
0.00214592
0.00223994
0.002489
0.0029971
0.0032955
0.00325579
0.00245325
0.00115393
0.000176206
0.000428226
0.00173818
0.00231
0.0025654
0.00264344
0.00261889
0.00250455
0.00233576
0.00213436
0.00192173
0.00171567
0.00153103
0.00137637
0.00125324
0.00115847
0.00108738
0.00103539
0.000998322
0.000972312
0.000953786
0.000939674
0.000927597
0.000915947
0.000903831
0.000890927
0.000877311
0.000863287
0.000849252
0.000835603
0.000822684
0.000810763
0.000800031
0.000790614
0.000782582
0.000775975
0.000770806
0.000767081
0.000765055
0.000764309
0.000764539
0.000766599
0.000770205
0.00077534
0.000782054
0.000790421
0.000800516
0.000812435
0.000826295
0.000842239
0.000860446
0.000881136
0.000904595
0.000931185
0.000961379
0.000995792
0.00103523
0.00108071
0.00113357
0.00119538
0.00126802
0.0013534
0.00145319
0.00156813
0.00169717
0.0018363
0.00197752
0.00210807
0.00219766
0.00222925
0.00222925
0.00218903
0.00216621
0.00220249
0.00233852
0.0027234
0.00317909
0.00329381
0.00272673
0.00132508
0.000204799
0.000442633
0.00178399
0.00235222
0.00259833
0.00266551
0.00261961
0.00248415
0.00228896
0.00206773
0.0018435
0.00163462
0.00145394
0.00130705
0.00119296
0.00110711
0.00104413
0.000999062
0.000967389
0.000945037
0.000928457
0.000914822
0.000902147
0.000889259
0.000875663
0.000861345
0.00084658
0.000831768
0.000817322
0.000803598
0.000790871
0.00077933
0.000769087
0.000760201
0.000752694
0.000746566
0.000741808
0.000738412
0.000736604
0.000735961
0.000736316
0.000738371
0.000741899
0.000746902
0.000753434
0.000761573
0.0007714
0.000783011
0.000796519
0.000812059
0.000829791
0.000849911
0.000872663
0.000898356
0.00092739
0.000960286
0.000997736
0.00104065
0.00109023
0.00114801
0.0012159
0.00129612
0.001391
0.00150244
0.0016311
0.0017751
0.0019286
0.00208042
0.00221338
0.0022882
0.00230322
0.00228059
0.00222071
0.00219929
0.00226654
0.0025007
0.00300442
0.00324901
0.00296708
0.00154
0.000242794
0.00045243
0.00181674
0.00237788
0.00261425
0.00267149
0.00261107
0.00245212
0.00223697
0.00200054
0.00176876
0.00155992
0.00138471
0.00124594
0.00114056
0.00106291
0.00100711
0.00096782
0.000940301
0.000920427
0.000904821
0.000891002
0.000877407
0.000863273
0.000848432
0.000833089
0.000817631
0.000802484
0.000788023
0.000774536
0.000762215
0.00075117
0.000741449
0.000733061
0.00072599
0.000720217
0.00071572
0.000712489
0.000710726
0.000710087
0.000710392
0.00071229
0.000715611
0.000720366
0.000726615
0.000734442
0.000743936
0.000755196
0.000768336
0.000783484
0.000800793
0.00082044
0.000842639
0.000867657
0.000895833
0.000927608
0.000963566
0.00100449
0.00105143
0.0011058
0.00116942
0.00124459
0.00133399
0.00144037
0.00156589
0.00171089
0.00187229
0.00204179
0.00220456
0.00232436
0.00237035
0.00237061
0.00230784
0.00224756
0.00224418
0.00237387
0.00277788
0.00313049
0.00310524
0.00179208
0.000289539
0.00045782
0.00183668
0.00238718
0.00261417
0.00266572
0.00259033
0.00241324
0.00218219
0.00193463
0.00169855
0.00149185
0.00132296
0.00119227
0.00109506
0.00102481
0.00097519
0.000940586
0.000916143
0.000897818
0.000882514
0.000868145
0.00085356
0.000838341
0.00082257
0.000806589
0.000790827
0.000775682
0.000761467
0.000748386
0.000736554
0.000726013
0.000716761
0.000708771
0.000702011
0.000696448
0.000692063
0.000688847
0.000686974
0.000686249
0.000686368
0.000687986
0.000690994
0.00069541
0.000701295
0.000708743
0.000717848
0.000728714
0.00074146
0.000756213
0.000773121
0.000792349
0.000814094
0.00083859
0.00086613
0.000897087
0.000931955
0.000971397
0.00101632
0.00106795
0.00112797
0.00119857
0.00128255
0.00138312
0.00150347
0.00164572
0.00180931
0.00198873
0.00217146
0.00233667
0.00243129
0.00245092
0.00241471
0.00230721
0.0022581
0.00231153
0.00258732
0.00304584
0.00315415
0.00207567
0.000343481
0.000458112
0.0018458
0.00238507
0.00260589
0.00264945
0.00255954
0.00236937
0.00212645
0.0018713
0.0016335
0.00143033
0.00126816
0.00114525
0.00105555
0.000991845
0.00094744
0.000916541
0.000894286
0.000876826
0.000861407
0.000846342
0.000830845
0.000814781
0.000798398
0.000782108
0.000766332
0.000751413
0.000737583
0.00072497
0.000713619
0.000703522
0.000694642
0.000686932
0.000680351
0.000674867
0.000670466
0.000667149
0.000665032
0.000664108
0.000663996
0.000665234
0.000667851
0.000671859
0.000677321
0.000684337
0.000693007
0.000703442
0.000715765
0.000730107
0.000746614
0.000765448
0.000786792
0.00081086
0.000837912
0.000868269
0.000902349
0.000940713
0.000984128
0.00103366
0.00109078
0.00115753
0.0012366
0.0013314
0.00144578
0.00158331
0.00174581
0.00193098
0.00212974
0.00232418
0.0024689
0.00252186
0.00251535
0.00241724
0.00230695
0.00229014
0.00243879
0.00290513
0.00314839
0.00237364
0.000402226
0.000455925
0.0018456
0.002375
0.0025857
0.00262148
0.00252196
0.00232228
0.00207116
0.00181142
0.00157388
0.00137515
0.00121973
0.00110414
0.00102122
0.000963203
0.000923123
0.000895086
0.000874327
0.000857263
0.000841504
0.000825738
0.000809487
0.000792826
0.000776107
0.000759759
0.000744163
0.00072959
0.000716196
0.000704039
0.000693111
0.000683366
0.000674748
0.0006672
0.000660681
0.000655166
0.000650649
0.000647145
0.000644688
0.000643454
0.000643114
0.00064391
0.000646083
0.000649639
0.000654639
0.000661185
0.000669385
0.000679358
0.00069123
0.000705138
0.00072123
0.000739668
0.000760631
0.000784321
0.000810973
0.000840872
0.000874379
0.000911969
0.000954291
0.00100225
0.00105713
0.00112074
0.00119559
0.00128503
0.00139322
0.00152468
0.00168311
0.0018691
0.00207686
0.00229081
0.00248321
0.00258647
0.00260441
0.00253592
0.00237434
0.00230109
0.00236853
0.0027244
0.00304315
0.00263771
0.000455945
0.000450857
0.00184084
0.00235359
0.00255497
0.00258552
0.00247928
0.00227343
0.00201735
0.00175554
0.00151974
0.00132593
0.00117708
0.00106824
0.000991348
0.000938216
0.000901668
0.000875803
0.000856025
0.000839056
0.000822866
0.000806473
0.00078965
0.000772615
0.000755773
0.000739538
0.00072423
0.000710048
0.000697079
0.000685324
0.000674736
0.000665246
0.000656785
0.000649299
0.000642748
0.000637116
0.000632407
0.000628642
0.000625854
0.000624225
0.000623623
0.000623962
0.000625663
0.00062874
0.000633254
0.000639307
0.000647015
0.0006565
0.000667896
0.000681344
0.000697
0.000715027
0.000735604
0.000758929
0.000785225
0.00081475
0.000847823
0.000884854
0.000926392
0.000973207
0.0010264
0.00108754
0.00115891
0.00124366
0.00134599
0.00147098
0.00162379
0.00180771
0.00202095
0.00225263
0.00247945
0.00263605
0.00268357
0.00265047
0.00248953
0.00234634
0.00233693
0.00260342
0.00295521
0.0028186
0.000492893
0.000443049
0.00182922
0.0023241
0.00251709
0.00254333
0.00243295
0.00222396
0.00196578
0.00170397
0.00147098
0.00128231
0.00113966
0.00103692
0.000965337
0.000916343
0.000882646
0.000858404
0.00083924
0.000822192
0.000805564
0.000788655
0.000771429
0.000754199
0.000737385
0.000721361
0.000706385
0.000692588
0.000679997
0.000668571
0.000658236
0.00064891
0.000640522
0.000633017
0.000626367
0.000620563
0.000615618
0.000611562
0.000608438
0.000606374
0.000605459
0.000605384
0.000606599
0.000609187
0.000613205
0.000618756
0.000625957
0.000634937
0.000645834
0.000658799
0.000673992
0.000691582
0.000711754
0.000734706
0.000760654
0.000789845
0.000822567
0.00085918
0.000900157
0.00094615
0.000998094
0.00105735
0.00112593
0.00120672
0.00130376
0.00142232
0.00156845
0.00174749
0.00196087
0.00220163
0.00244991
0.00266065
0.00275296
0.00275527
0.00261843
0.00240073
0.00232804
0.00247507
0.00287037
0.00289956
0.000507825
0.000432758
0.00181118
0.00228852
0.0024736
0.00249646
0.00238424
0.00217478
0.00191695
0.00165685
0.00142741
0.00124386
0.00110695
0.00100967
0.000942676
0.000897152
0.000865735
0.000842693
0.000823891
0.000806676
0.000789649
0.000772341
0.000754856
0.000737561
0.000720867
0.000705099
0.000690454
0.000677003
0.000664728
0.000653555
0.000643395
0.000634158
0.000625774
0.000618197
0.000611404
0.000605397
0.000600197
0.000595842
0.000592385
0.000589896
0.000588568
0.000588185
0.000588914
0.000591015
0.000594541
0.000599588
0.000606278
0.000614742
0.000625126
0.000637586
0.000652289
0.000669414
0.000689151
0.000711705
0.000737294
0.000766156
0.000798566
0.000834847
0.000875413
0.000920821
0.000971866
0.00102972
0.00109612
0.00117367
0.00126613
0.00137872
0.00151803
0.00169098
0.00190217
0.00214898
0.00241552
0.00266784
0.00281706
0.00284747
0.00275077
0.00250152
0.00235147
0.00239986
0.00278762
0.00292219
0.000510271
0.000420395
0.00178909
0.00224827
0.00242592
0.00244624
0.00233418
0.00212655
0.00187118
0.00161416
0.00138879
0.00121019
0.00107848
0.000985994
0.000922943
0.000880301
0.000850694
0.000828531
0.000809927
0.000792513
0.000775148
0.000757546
0.00073991
0.000722636
0.000706108
0.000690602
0.000676259
0.000663101
0.000651074
0.000640085
0.000630033
0.000620828
0.000612403
0.000604719
0.000597762
0.000591541
0.000586083
0.000581433
0.000577646
0.000574786
0.000573027
0.000572346
0.000572627
0.00057426
0.000577304
0.000581857
0.000588038
0.000595984
0.000605845
0.000617782
0.000631971
0.000648601
0.000667871
0.000689993
0.000715194
0.000743714
0.000775819
0.000811811
0.00085206
0.00089705
0.000947459
0.00100428
0.00106902
0.00114397
0.00123257
0.00133979
0.00147236
0.00163826
0.00184456
0.00209294
0.00237305
0.00265648
0.00286414
0.00292959
0.00287171
0.00262882
0.00239412
0.0023666
0.00266786
0.00290827
0.000503985
0.000406609
0.00176436
0.00220469
0.00237529
0.00239384
0.0022836
0.00207979
0.00182864
0.00157582
0.00135484
0.00118091
0.00105385
0.000965505
0.000905786
0.000865515
0.000837336
0.000815815
0.000797305
0.000779695
0.000762056
0.000744246
0.000726537
0.00070933
0.00069298
0.000677717
0.000663631
0.000650708
0.000638868
0.000628004
0.000618008
0.000608795
0.000600301
0.000592495
0.000585368
0.000578937
0.000573234
0.000568307
0.000564214
0.000561023
0.000558852
0.000557852
0.000557757
0.000558943
0.000561526
0.000565599
0.000571281
0.000578713
0.000588046
0.000599449
0.000613105
0.000629212
0.000647981
0.000669636
0.000694413
0.000722561
0.000754347
0.000790062
0.000830048
0.000874732
0.000924696
0.000980787
0.00104429
0.00111722
0.00120263
0.00130519
0.0014315
0.00159011
0.00179004
0.00203659
0.00232421
0.00262863
0.00289073
0.00300261
0.00298803
0.00276822
0.00245449
0.00235768
0.0025737
0.00286396
0.000492418
0.000391787
0.00173775
0.0021589
0.0023228
0.00234024
0.00223321
0.00203484
0.00178941
0.00154164
0.00132526
0.00115569
0.00103267
0.000947857
0.000890914
0.000852569
0.000825509
0.000804455
0.000785981
0.000768194
0.000750341
0.00073239
0.000714655
0.000697536
0.000681355
0.000666298
0.00065242
0.000639676
0.000627968
0.000617181
0.000607207
0.00059796
0.000589384
0.000581453
0.000574165
0.000567539
0.000561612
0.000556435
0.000552068
0.000548581
0.000546053
0.000544682
0.000544302
0.00054507
0.000547217
0.000550831
0.000556031