/*--------------------------------*- C++ -*----------------------------------*\
  =========                 |
  \\      /  F ield         | OpenFOAM: The Open Source CFD Toolbox
   \\    /   O peration     | Website:  https://openfoam.org
    \\  /    A nd           | Version:  13
     \\/     M anipulation  |
\*---------------------------------------------------------------------------*/
FoamFile
{
    format      ascii;
    class       volScalarField;
    location    "4";
    object      nut;
}
// * * * * * * * * * * * * * * * * * * * * * * * * * * * * * * * * * * * * * //

dimensions      [0 2 -1 0 0 0 0];

internalField   nonuniform List<scalar> 
6400
(
7.09327e-10
3.62486e-09
8.64272e-09
1.39318e-08
1.81162e-08
2.07421e-08
2.20719e-08
2.27325e-08
2.34271e-08
2.48307e-08
2.74846e-08
3.18842e-08
3.84409e-08
4.72382e-08
5.79806e-08
7.02229e-08
8.34769e-08
9.75691e-08
1.11837e-07
1.25903e-07
1.39913e-07
1.54841e-07
1.72015e-07
1.92658e-07
2.16792e-07
2.42684e-07
2.68355e-07
2.94084e-07
3.20228e-07
3.47431e-07
3.75774e-07
4.04351e-07
4.32351e-07
4.59684e-07
4.86654e-07
5.13837e-07
5.41552e-07
5.703e-07
6.00351e-07
6.32061e-07
6.65571e-07
7.01147e-07
7.39068e-07
7.79574e-07
8.22949e-07
8.69647e-07
9.21123e-07
9.80481e-07
1.05431e-06
1.13023e-06
1.20735e-06
1.28341e-06
1.35725e-06
1.42659e-06
1.48913e-06
1.54235e-06
1.58281e-06
1.60284e-06
1.61059e-06
1.60226e-06
1.56538e-06
1.50308e-06
1.41581e-06
1.305e-06
1.17613e-06
1.03151e-06
8.80596e-07
7.30142e-07
5.86617e-07
4.53435e-07
3.42747e-07
2.5154e-07
1.7712e-07
1.19391e-07
7.72607e-08
4.80661e-08
2.87632e-08
1.6246e-08
7.53771e-09
1.5971e-09
3.45639e-09
2.54521e-07
9.13132e-07
1.56384e-06
2.06553e-06
2.38319e-06
2.55577e-06
2.6489e-06
2.72978e-06
2.84635e-06
3.0564e-06
3.39429e-06
3.84683e-06
4.37349e-06
4.92778e-06
5.46093e-06
5.93575e-06
6.31229e-06
6.57724e-06
6.73021e-06
6.80555e-06
6.88471e-06
7.01219e-06
7.22974e-06
7.52424e-06
7.80822e-06
8.00946e-06
8.22394e-06
8.48264e-06
8.8225e-06
9.26958e-06
9.78916e-06
1.03499e-05
1.09408e-05
1.15534e-05
1.21954e-05
1.28618e-05
1.35576e-05
1.42805e-05
1.50363e-05
1.58206e-05
1.66295e-05
1.74673e-05
1.83438e-05
1.92657e-05
2.02079e-05
2.1135e-05
2.20253e-05
2.28293e-05
2.36528e-05
2.44918e-05
2.53378e-05
2.61759e-05
2.69902e-05
2.77602e-05
2.84677e-05
2.91404e-05
2.9521e-05
2.98041e-05
2.99449e-05
2.9854e-05
2.94221e-05
2.86838e-05
2.76042e-05
2.61945e-05
2.44501e-05
2.24782e-05
2.03303e-05
1.80207e-05
1.56111e-05
1.29076e-05
1.01414e-05
7.6139e-06
5.48592e-06
3.81398e-06
2.56172e-06
1.68194e-06
1.05491e-06
4.63938e-07
8.38508e-09
7.62628e-09
6.88456e-07
2.84537e-06
5.07169e-06
6.82495e-06
8.00295e-06
8.70734e-06
9.11083e-06
9.38883e-06
9.68193e-06
1.01183e-05
1.07501e-05
1.15551e-05
1.24578e-05
1.33626e-05
1.41755e-05
1.4856e-05
1.53801e-05
1.57437e-05
1.59555e-05
1.60313e-05
1.60023e-05
1.59636e-05
1.5956e-05
1.60025e-05
1.61558e-05
1.64592e-05
1.6766e-05
1.70906e-05
1.74287e-05
1.78051e-05
1.83071e-05
1.90341e-05
1.99423e-05
2.09102e-05
2.19832e-05
2.31218e-05
2.4335e-05
2.55708e-05
2.6872e-05
2.82537e-05
2.96072e-05
3.10096e-05
3.23688e-05
3.36741e-05
3.4925e-05
3.61601e-05
3.73585e-05
3.85621e-05
3.97693e-05
4.09732e-05
4.21622e-05
4.33246e-05
4.44427e-05
4.54956e-05
4.6454e-05
4.7279e-05
4.79879e-05
4.83957e-05
4.85778e-05
4.86337e-05
4.83487e-05
4.77405e-05
4.67236e-05
4.52209e-05
4.31179e-05
4.05882e-05
3.77164e-05
3.44653e-05
3.08986e-05
2.70484e-05
2.30124e-05
1.89693e-05
1.51286e-05
1.16822e-05
8.76102e-06
6.36456e-06
4.29754e-06
1.74554e-06
2.19831e-08
1.32894e-08
1.15268e-06
4.60706e-06
8.07606e-06
1.08147e-05
1.27288e-05
1.39467e-05
1.46715e-05
1.51302e-05
1.5546e-05
1.60791e-05
1.68172e-05
1.77363e-05
1.87279e-05
1.9667e-05
2.04674e-05
2.1072e-05
2.14687e-05
2.16751e-05
2.17313e-05
2.16884e-05
2.16109e-05
2.15875e-05
2.16622e-05
2.1765e-05
2.18082e-05
2.18057e-05
2.19605e-05
2.24605e-05
2.32489e-05
2.43091e-05
2.54956e-05
2.66487e-05
2.78381e-05
2.90937e-05
3.03848e-05
3.16469e-05
3.29418e-05
3.43014e-05
3.55644e-05
3.68441e-05
3.80678e-05
3.92762e-05
4.04344e-05
4.15574e-05
4.26338e-05
4.36847e-05
4.47291e-05
4.57686e-05
4.67984e-05
4.78131e-05
4.88035e-05
4.97584e-05
5.0664e-05
5.1503e-05
5.22544e-05
5.28944e-05
5.33981e-05
5.36982e-05
5.38105e-05
5.37558e-05
5.34468e-05
5.27761e-05
5.19823e-05
5.09923e-05
4.9411e-05
4.72869e-05
4.46822e-05
4.16474e-05
3.82311e-05
3.44741e-05
3.04308e-05
2.61846e-05
2.18792e-05
1.7702e-05
1.38572e-05
1.04419e-05
7.19849e-06
2.89212e-06
3.5649e-08
2.12662e-08
1.7448e-06
6.49234e-06
1.10127e-05
1.44464e-05
1.67911e-05
1.82563e-05
1.91112e-05
1.96498e-05
2.01575e-05
2.08372e-05
2.17482e-05
2.28085e-05
2.38669e-05
2.4785e-05
2.54794e-05
2.59217e-05
2.61267e-05
2.61385e-05
2.6042e-05
2.59007e-05
2.57271e-05
2.55748e-05
2.52881e-05
2.49363e-05
2.51583e-05
2.59065e-05
2.68713e-05
2.80174e-05
2.9198e-05
3.04509e-05
3.17062e-05
3.29223e-05
3.41373e-05
3.53212e-05
3.64052e-05
3.74726e-05
3.8576e-05
3.95131e-05
4.0407e-05
4.12285e-05
4.1983e-05
4.26841e-05
4.33461e-05
4.39932e-05
4.46449e-05
4.52961e-05
4.5937e-05
4.65752e-05
4.72112e-05
4.78474e-05
4.8484e-05
4.91197e-05
4.97505e-05
5.03706e-05
5.09718e-05
5.15418e-05
5.20592e-05
5.24945e-05
5.28236e-05
5.29414e-05
5.29237e-05
5.25314e-05
5.17016e-05
5.05437e-05
4.96786e-05
4.81723e-05
4.6125e-05
4.36169e-05
4.07027e-05
3.74263e-05
3.38218e-05
2.99201e-05
2.57795e-05
2.15272e-05
1.73797e-05
1.34274e-05
9.29809e-06
3.65806e-06
4.45386e-08
3.25556e-08
2.53895e-06
8.70746e-06
1.42029e-05
1.81343e-05
2.06764e-05
2.21818e-05
2.30357e-05
2.36218e-05
2.42591e-05
2.51144e-05
2.61711e-05
2.72875e-05
2.82932e-05
2.90627e-05
2.95417e-05
2.97395e-05
2.97056e-05
2.94259e-05
2.9121e-05
2.88568e-05
2.80938e-05
2.76952e-05
2.8041e-05
2.88467e-05
2.9862e-05
3.092e-05
3.20878e-05
3.32569e-05
3.43543e-05
3.54293e-05
3.64434e-05
3.7354e-05
3.82161e-05
3.89973e-05
3.96581e-05
4.02585e-05
4.08504e-05
4.12982e-05
4.17147e-05
4.20665e-05
4.23918e-05
4.26873e-05
4.29573e-05
4.32046e-05
4.34348e-05
4.36483e-05
4.38502e-05
4.40478e-05
4.42492e-05
4.44638e-05
4.47007e-05
4.4971e-05
4.52834e-05
4.56419e-05
4.60469e-05
4.65012e-05
4.70053e-05
4.75361e-05
4.80629e-05
4.85391e-05
4.88957e-05
4.90377e-05
4.89994e-05
4.83985e-05
4.74674e-05
4.67313e-05
4.52682e-05
4.32747e-05
4.08237e-05
3.79918e-05
3.48408e-05
3.13946e-05
2.76371e-05
2.35881e-05
1.94129e-05
1.51694e-05
1.0506e-05
4.00935e-06
4.74935e-08
4.8149e-08
3.57737e-06
1.12905e-05
1.76701e-05
2.19229e-05
2.44951e-05
2.5921e-05
2.67212e-05
2.73498e-05
2.81079e-05
2.90829e-05
3.01798e-05
3.12204e-05
3.20403e-05
3.2542e-05
3.27043e-05
3.25768e-05
3.21463e-05
3.1777e-05
3.09451e-05
3.0324e-05
3.05208e-05
3.12503e-05
3.20816e-05
3.29116e-05
3.38738e-05
3.4826e-05
3.57805e-05
3.66406e-05
3.74414e-05
3.82154e-05
3.88737e-05
3.94478e-05
3.99418e-05
4.03509e-05
4.06942e-05
4.09912e-05
4.11666e-05
4.13136e-05
4.14846e-05
4.15491e-05
4.16103e-05
4.16278e-05
4.16246e-05
4.15907e-05
4.15348e-05
4.14554e-05
4.13562e-05
4.12385e-05
4.11076e-05
4.098e-05
4.08607e-05
4.07684e-05
4.07345e-05
4.07804e-05
4.09073e-05
4.11285e-05
4.15047e-05
4.203e-05
4.26662e-05
4.33627e-05
4.41171e-05
4.48078e-05
4.53138e-05
4.54987e-05
4.50647e-05
4.4656e-05
4.39217e-05
4.24185e-05
4.03275e-05
3.77608e-05
3.4847e-05
3.16831e-05
2.82865e-05
2.45541e-05
2.04308e-05
1.6087e-05
1.08278e-05
4.00142e-06
4.61103e-08
6.89751e-08
4.88041e-06
1.41989e-05
2.13197e-05
2.57435e-05
2.82348e-05
2.95233e-05
3.0253e-05
3.09071e-05
3.17281e-05
3.27167e-05
3.3722e-05
3.45588e-05
3.50911e-05
3.52687e-05
3.48614e-05
3.44092e-05
3.38995e-05
3.28653e-05
3.27295e-05
3.31585e-05
3.36346e-05
3.42403e-05
3.49319e-05
3.57747e-05
3.65991e-05
3.73698e-05
3.80758e-05
3.86872e-05
3.92304e-05
3.9696e-05
4.0071e-05
4.03813e-05
4.06279e-05
4.08204e-05
4.09674e-05
4.10708e-05
4.11286e-05
4.1171e-05
4.11644e-05
4.11479e-05
4.11126e-05
4.10194e-05
4.0924e-05
4.07914e-05
4.06391e-05
4.0465e-05
4.02754e-05
4.00687e-05
3.98447e-05
3.95893e-05
3.93096e-05
3.89988e-05
3.86475e-05
3.82711e-05
3.79273e-05
3.76867e-05
3.75867e-05
3.77652e-05
3.82294e-05
3.8824e-05
3.96829e-05
4.06346e-05
4.16399e-05
4.24114e-05
4.27143e-05
4.25179e-05
4.24239e-05
4.17396e-05
4.00656e-05
3.77171e-05
3.48658e-05
3.1708e-05
2.83864e-05
2.48943e-05
2.0985e-05
1.64486e-05
1.09764e-05
3.91219e-06
4.3166e-08
9.57321e-08
6.43593e-06
1.73501e-05
2.50269e-05
2.95193e-05
3.18635e-05
3.29874e-05
3.363e-05
3.4264e-05
3.50561e-05
3.59343e-05
3.67176e-05
3.72329e-05
3.73798e-05
3.69174e-05
3.64385e-05
3.5571e-05
3.49455e-05
3.48923e-05
3.50869e-05
3.53143e-05
3.58284e-05
3.64582e-05
3.71359e-05
3.78314e-05
3.8453e-05
3.90036e-05
3.9477e-05
3.98749e-05
4.02138e-05
4.0493e-05
4.07226e-05
4.09157e-05
4.10748e-05
4.12054e-05
4.13101e-05
4.13902e-05
4.14441e-05
4.1467e-05
4.14723e-05
4.14671e-05
4.14139e-05
4.13398e-05
4.12464e-05
4.11272e-05
4.09919e-05
4.08324e-05
4.06505e-05
4.04464e-05
4.02169e-05
3.99573e-05
3.9668e-05
3.93409e-05
3.89679e-05
3.85433e-05
3.80518e-05
3.74958e-05
3.68689e-05
3.61809e-05
3.56328e-05
3.56269e-05
3.61321e-05
3.69105e-05
3.80081e-05
3.91953e-05
4.03464e-05
4.07882e-05
4.06097e-05
4.07205e-05
4.00448e-05
3.80973e-05
3.53804e-05
3.21311e-05
2.86113e-05
2.50049e-05
2.11861e-05
1.66791e-05
1.08711e-05
3.7045e-06
4.05565e-08
1.288e-07
8.18401e-06
2.05918e-05
2.87238e-05
3.31967e-05
3.53509e-05
3.62896e-05
3.68126e-05
3.73567e-05
3.8016e-05
3.8669e-05
3.9131e-05
3.92614e-05
3.87799e-05
3.82715e-05
3.72438e-05
3.67931e-05
3.66577e-05
3.64946e-05
3.6692e-05
3.70472e-05
3.7582e-05
3.81416e-05
3.86982e-05
3.921e-05
3.96493e-05
4.00306e-05
4.03587e-05
4.06457e-05
4.0903e-05
4.11348e-05
4.13486e-05
4.15471e-05
4.17292e-05
4.18923e-05
4.20327e-05
4.21658e-05
4.22434e-05
4.22832e-05
4.23482e-05
4.23386e-05
4.23103e-05
4.22488e-05
4.21611e-05
4.2045e-05
4.19052e-05
4.17414e-05
4.1558e-05
4.13572e-05
4.1142e-05
4.09119e-05
4.06581e-05
4.03731e-05
4.00428e-05
3.96449e-05
3.9163e-05
3.85836e-05
3.78855e-05
3.70763e-05
3.61965e-05
3.52933e-05
3.43423e-05
3.42107e-05
3.49135e-05
3.58929e-05
3.73008e-05
3.87278e-05
3.93275e-05
3.92003e-05
3.93311e-05
3.8569e-05
3.62727e-05
3.31219e-05
2.94036e-05
2.54272e-05
2.13738e-05
1.68079e-05
1.08678e-05
3.59593e-06
3.94645e-08
1.68914e-07
9.98691e-06
2.38069e-05
3.2325e-05
3.67285e-05
3.86659e-05
3.93943e-05
3.97484e-05
4.01208e-05
4.05472e-05
4.08805e-05
4.09513e-05
4.04406e-05
3.99193e-05
3.89281e-05
3.84617e-05
3.80769e-05
3.77367e-05
3.77672e-05
3.80388e-05
3.84241e-05
3.88929e-05
3.93405e-05
3.97639e-05
4.01394e-05
4.04739e-05
4.07821e-05
4.10727e-05
4.13547e-05
4.1632e-05
4.19041e-05
4.21697e-05
4.2422e-05
4.26776e-05
4.29059e-05
4.3049e-05
4.31925e-05
4.33511e-05
4.34251e-05
4.34896e-05
4.34993e-05
4.34839e-05
4.34309e-05
4.33479e-05
4.32337e-05
4.30918e-05
4.29235e-05
4.27312e-05
4.25162e-05
4.22794e-05
4.20209e-05
4.174e-05
4.14363e-05
4.11087e-05
4.07557e-05
4.03745e-05
3.99059e-05
3.93084e-05
3.85332e-05
3.76056e-05
3.65568e-05
3.53947e-05
3.4234e-05
3.31303e-05
3.32868e-05
3.42591e-05
3.57234e-05
3.73187e-05
3.80927e-05
3.80092e-05
3.80779e-05
3.70712e-05
3.437e-05
3.07399e-05
2.64892e-05
2.19571e-05
1.716e-05
1.10691e-05
3.68492e-06
4.05288e-08
2.17757e-07
1.16839e-05
2.6908e-05
3.57732e-05
4.0078e-05
4.17775e-05
4.22632e-05
4.23895e-05
4.25085e-05
4.26162e-05
4.25607e-05
4.20012e-05
4.14717e-05
4.05155e-05
3.99074e-05
3.9287e-05
3.8855e-05
3.86912e-05
3.88264e-05
3.91096e-05
3.94616e-05
3.98418e-05
4.01971e-05
4.0539e-05
4.08612e-05
4.11796e-05
4.15018e-05
4.18318e-05
4.21691e-05
4.25093e-05
4.28451e-05
4.32006e-05
4.35255e-05
4.37797e-05
4.40056e-05
4.42165e-05
4.4432e-05
4.45776e-05
4.4683e-05
4.47556e-05
4.47842e-05
4.47801e-05
4.47381e-05
4.4663e-05
4.4555e-05
4.44166e-05
4.42495e-05
4.40557e-05
4.38369e-05
4.3594e-05
4.33275e-05
4.30364e-05
4.27184e-05
4.23696e-05
4.19844e-05
4.15568e-05
4.10825e-05
4.05602e-05
3.99515e-05
3.91551e-05
3.81451e-05
3.69596e-05
3.56173e-05
3.42275e-05
3.29223e-05
3.21088e-05
3.29535e-05
3.43287e-05
3.60937e-05
3.69627e-05
3.68814e-05
3.68318e-05
3.5363e-05
3.22088e-05
2.80296e-05
2.31828e-05
1.79458e-05
1.1719e-05
4.04298e-06
4.52225e-08
2.72556e-07
1.3374e-05
2.98754e-05
3.90337e-05
4.32163e-05
4.46585e-05
4.48653e-05
4.47044e-05
4.44986e-05
4.42247e-05
4.3567e-05
4.3014e-05
4.20367e-05
4.12915e-05
4.0428e-05
3.98612e-05
3.95426e-05
3.95019e-05
3.96726e-05
3.99335e-05
4.0239e-05
4.05593e-05
4.08776e-05
4.12081e-05
4.15504e-05
4.19144e-05
4.22976e-05
4.26957e-05
4.31004e-05
4.35259e-05
4.39441e-05
4.43202e-05
4.46376e-05
4.49499e-05
4.52298e-05
4.5471e-05
4.56831e-05
4.58651e-05
4.59903e-05
4.60853e-05
4.6135e-05
4.61491e-05
4.61239e-05
4.60629e-05
4.59658e-05
4.58348e-05
4.56714e-05
4.54777e-05
4.52559e-05
4.50081e-05
4.47355e-05
4.44386e-05
4.41159e-05
4.37633e-05
4.33735e-05
4.29361e-05
4.24383e-05
4.18681e-05
4.12188e-05
4.04939e-05
3.95846e-05
3.85193e-05
3.7221e-05
3.57513e-05
3.42414e-05
3.26859e-05
3.13095e-05
3.17711e-05
3.31178e-05
3.49298e-05
3.58573e-05
3.57094e-05
3.55332e-05
3.33165e-05
2.9595e-05
2.47965e-05
1.92674e-05
1.27933e-05
4.768e-06
5.69283e-08
3.31779e-07
1.50242e-05
3.2666e-05
4.20732e-05
4.61193e-05
4.72888e-05
4.71848e-05
4.66906e-05
4.61178e-05
4.52793e-05
4.46513e-05
4.35609e-05
4.26967e-05
4.16234e-05
4.08318e-05
4.03523e-05
4.01396e-05
4.01667e-05
4.03398e-05
4.05798e-05
4.08633e-05
4.11747e-05
4.15132e-05
4.18866e-05
4.22915e-05
4.27272e-05
4.31838e-05
4.36523e-05
4.4133e-05
4.46046e-05
4.5043e-05
4.54434e-05
4.58088e-05
4.61576e-05
4.64717e-05
4.67509e-05
4.6996e-05
4.71884e-05
4.73347e-05
4.74827e-05
4.7568e-05
4.76144e-05
4.76156e-05
4.75778e-05
4.74971e-05
4.73758e-05
4.72145e-05
4.70155e-05
4.67814e-05
4.65156e-05
4.62218e-05
4.59032e-05
4.55621e-05
4.51979e-05
4.48067e-05
4.43791e-05
4.38997e-05
4.33469e-05
4.26956e-05
4.19241e-05
4.10465e-05
3.99435e-05
3.86089e-05
3.71928e-05
3.5756e-05
3.41286e-05
3.23916e-05
3.07226e-05
3.06791e-05
3.2015e-05
3.38214e-05
3.46791e-05
3.44123e-05
3.37404e-05
3.07528e-05
2.63488e-05
2.08242e-05
1.41625e-05
5.66108e-06
7.6494e-08
3.93515e-07
1.65966e-05
3.52391e-05
4.4864e-05
4.87676e-05
4.9655e-05
4.92205e-05
4.83726e-05
4.72467e-05
4.6451e-05
4.51676e-05
4.41653e-05
4.2908e-05
4.1872e-05
4.11693e-05
4.07814e-05
4.06479e-05
4.07105e-05
4.08859e-05
4.11298e-05
4.143e-05
4.17783e-05
4.21748e-05
4.26175e-05
4.30972e-05
4.36052e-05
4.41282e-05
4.46554e-05
4.51759e-05
4.56745e-05
4.61433e-05
4.65837e-05
4.69978e-05
4.73871e-05
4.77436e-05
4.80678e-05
4.83575e-05
4.8619e-05
4.88464e-05
4.89756e-05
4.91337e-05
4.92463e-05
4.92841e-05
4.92822e-05
4.92258e-05
4.9118e-05
4.89578e-05
4.87469e-05
4.84881e-05
4.8186e-05
4.78463e-05
4.74758e-05
4.70813e-05
4.66685e-05
4.62405e-05
4.57955e-05
4.53239e-05
4.4807e-05
4.42142e-05
4.35047e-05
4.26331e-05
4.16667e-05
4.04802e-05
3.87204e-05
3.70051e-05
3.55524e-05
3.38861e-05
3.20095e-05
3.01009e-05
2.97327e-05
3.09703e-05
3.26166e-05
3.33613e-05
3.2673e-05
3.12582e-05
2.75013e-05
2.22574e-05
1.56045e-05
6.60886e-06
1.02171e-07
4.55706e-07
1.80601e-05
3.75658e-05
4.73874e-05
5.11479e-05
5.17398e-05
5.09579e-05
4.94757e-05
4.83969e-05
4.69466e-05
4.57529e-05
4.4329e-05
4.30442e-05
4.20762e-05
4.14661e-05
4.11588e-05
4.10834e-05
4.11748e-05
4.13718e-05
4.16499e-05
4.19991e-05
4.24112e-05
4.28801e-05
4.33955e-05
4.3944e-05
4.45125e-05
4.50874e-05
4.56575e-05
4.62133e-05
4.67478e-05
4.72595e-05
4.77499e-05
4.82191e-05
4.86656e-05
4.90862e-05
4.94805e-05
4.9846e-05
5.01802e-05
5.04995e-05
5.07257e-05
5.08801e-05
5.11168e-05
5.12045e-05
5.12517e-05
5.12303e-05
5.11427e-05
5.09863e-05
5.07615e-05
5.04706e-05
5.01181e-05
4.97111e-05
4.92588e-05
4.87722e-05
4.82633e-05
4.77434e-05
4.72209e-05
4.66981e-05
4.61681e-05
4.56105e-05
4.49885e-05
4.42467e-05
4.33141e-05
4.22504e-05
4.08922e-05
3.88384e-05
3.67617e-05
3.51486e-05
3.34969e-05
3.14355e-05
2.92669e-05
2.89678e-05
3.01416e-05
3.13784e-05
3.16768e-05
3.09176e-05
2.81167e-05
2.33543e-05
1.69033e-05
7.48045e-06
1.32213e-07
5.16277e-07
1.93883e-05
3.96316e-05
4.96448e-05
5.32785e-05
5.35067e-05
5.21372e-05
5.08353e-05
4.92387e-05
4.74975e-05
4.59384e-05
4.44073e-05
4.31439e-05
4.2259e-05
4.17353e-05
4.14967e-05
4.14718e-05
4.16018e-05
4.18433e-05
4.21784e-05
4.25941e-05
4.30781e-05
4.36181e-05
4.41988e-05
4.48051e-05
4.54234e-05
4.60422e-05
4.66534e-05
4.72519e-05
4.78358e-05
4.84061e-05
4.89636e-05
4.95078e-05
5.0037e-05
5.05486e-05
5.10397e-05
5.15058e-05
5.19413e-05
5.23677e-05
5.27111e-05
5.29226e-05
5.32386e-05
5.34223e-05
5.35253e-05
5.35513e-05
5.3493e-05
5.33476e-05
5.31135e-05
5.27915e-05
5.23852e-05
5.19013e-05
5.13499e-05
5.07444e-05
5.01013e-05
4.94388e-05
4.87751e-05
4.81253e-05
4.74979e-05
4.68893e-05
4.62793e-05
4.56258e-05
4.48604e-05
4.38873e-05
4.27298e-05
4.11132e-05
3.88401e-05
3.64927e-05
3.46481e-05
3.29358e-05
3.06082e-05
2.81643e-05
2.81105e-05
2.93136e-05
3.00908e-05
2.97288e-05
2.8226e-05
2.4048e-05
1.79246e-05
8.19287e-06
1.64866e-07
5.74411e-07
2.05542e-05
4.14384e-05
5.16729e-05
5.50043e-05
5.47676e-05
5.3583e-05
5.18294e-05
4.96512e-05
4.78665e-05
4.60195e-05
4.44422e-05
4.32312e-05
4.24321e-05
4.19862e-05
4.18105e-05
4.18394e-05
4.20222e-05
4.23246e-05
4.27277e-05
4.32139e-05
4.37669e-05
4.43702e-05
4.50073e-05
4.56635e-05
4.63277e-05
4.6992e-05
4.76526e-05
4.83084e-05
4.89606e-05
4.96106e-05
5.02586e-05
5.09034e-05
5.15418e-05
5.21696e-05
5.27812e-05
5.33695e-05
5.39262e-05
5.44772e-05
5.49303e-05
5.52363e-05
5.56342e-05
5.59226e-05
5.60916e-05
5.61741e-05
5.61549e-05
5.60307e-05
5.57975e-05
5.54541e-05
5.5002e-05
5.44463e-05
5.37959e-05
5.30643e-05
5.22698e-05
5.14348e-05
5.0585e-05
4.97467e-05
4.89431e-05
4.81893e-05
4.74865e-05
4.68145e-05
4.61257e-05
4.5338e-05
4.43283e-05
4.30915e-05
4.10746e-05
3.85997e-05
3.61274e-05
3.40558e-05
3.21497e-05
2.95089e-05
2.70674e-05
2.7182e-05
2.82797e-05
2.87729e-05
2.75933e-05
2.43091e-05
1.86277e-05
8.72126e-06
1.98681e-07
6.2865e-07
2.15453e-05
4.29927e-05
5.32651e-05
5.62888e-05
5.61252e-05
5.46823e-05
5.2413e-05
5.0171e-05
4.79903e-05
4.60393e-05
4.44607e-05
4.33185e-05
4.26019e-05
4.22277e-05
4.21152e-05
4.22048e-05
4.2451e-05
4.28217e-05
4.32942e-05
4.38475e-05
4.44628e-05
4.5122e-05
4.58097e-05
4.65141e-05
4.72276e-05
4.79471e-05
4.86724e-05
4.94054e-05
5.01481e-05
5.09013e-05
5.16638e-05
5.24323e-05
5.32013e-05
5.39636e-05
5.47107e-05
5.54328e-05
5.61238e-05
5.6803e-05
5.73522e-05
5.77722e-05
5.82601e-05
5.86483e-05
5.88906e-05
5.90352e-05
5.90638e-05
5.89713e-05
5.87519e-05
5.84022e-05
5.79211e-05
5.73106e-05
5.65772e-05
5.5732e-05
5.47921e-05
5.37808e-05
5.27274e-05
5.16657e-05
5.06313e-05
4.96566e-05
4.87641e-05
4.79591e-05
4.72214e-05
4.64985e-05
4.56989e-05
4.46846e-05
4.31905e-05
4.08241e-05
3.82641e-05
3.56757e-05
3.3302e-05
3.10737e-05
2.80638e-05
2.60677e-05
2.63695e-05
2.67972e-05
2.65101e-05
2.42462e-05
1.9007e-05
9.05299e-06
2.33927e-07
6.77487e-07
2.23716e-05
4.41902e-05
5.44723e-05
5.74039e-05
5.73685e-05
5.55527e-05
5.287e-05
5.03915e-05
4.8038e-05
4.60279e-05
4.44782e-05
4.34113e-05
4.27723e-05
4.24674e-05
4.24209e-05
4.2577e-05
4.28912e-05
4.33303e-05
4.38686e-05
4.44833e-05
4.51547e-05
4.58657e-05
4.66035e-05
4.73605e-05
4.81336e-05
4.89235e-05
4.97327e-05
5.05642e-05
5.14191e-05
5.22964e-05
5.31922e-05
5.41e-05
5.50112e-05
5.59156e-05
5.68016e-05
5.76573e-05
5.84934e-05
5.92887e-05
5.99217e-05
6.04582e-05
6.10366e-05
6.15162e-05
6.18336e-05
6.20421e-05
6.21239e-05
6.20721e-05
6.18795e-05
6.15404e-05
6.1051e-05
6.04102e-05
5.96203e-05
5.86886e-05
5.76285e-05
5.64607e-05
5.52139e-05
5.39248e-05
5.26368e-05
5.13957e-05
5.02438e-05
4.92108e-05
4.83034e-05
4.74959e-05
4.67226e-05
4.58746e-05
4.48007e-05
4.2995e-05
4.02946e-05
3.77467e-05
3.50052e-05
3.23174e-05
2.96499e-05
2.6232e-05
2.50407e-05
2.54343e-05
2.5683e-05
2.39442e-05
1.91126e-05
9.2129e-06
2.70185e-07
7.19216e-07
2.30114e-05
4.50611e-05
5.53714e-05
5.83696e-05
5.82328e-05
5.60628e-05
5.33433e-05
5.05275e-05
4.80389e-05
4.60044e-05
4.45021e-05
4.35111e-05
4.29459e-05
4.271e-05
4.27322e-05
4.29569e-05
4.33385e-05
4.38427e-05
4.44419e-05
4.5113e-05
4.58372e-05
4.66e-05
4.73926e-05
4.82118e-05
4.90587e-05
4.99366e-05
5.08491e-05
5.1798e-05
5.27823e-05
5.37979e-05
5.48373e-05
5.58904e-05
5.69455e-05
5.79896e-05
5.90092e-05
5.99909e-05
6.09602e-05
6.186e-05
6.257e-05
6.32114e-05
6.38726e-05
6.44344e-05
6.48235e-05
6.50944e-05
6.52313e-05
6.52263e-05
6.5071e-05
6.47582e-05
6.42813e-05
6.3636e-05
6.28206e-05
6.18375e-05
6.06946e-05
5.94071e-05
5.79994e-05
5.65063e-05
5.49732e-05
5.34541e-05
5.2007e-05
5.06852e-05
4.95256e-05
4.85352e-05
4.76778e-05
4.68632e-05
4.59391e-05
4.46824e-05
4.24404e-05
3.96127e-05
3.69339e-05
3.39399e-05
3.10777e-05
2.77941e-05
2.45631e-05
2.3934e-05
2.38218e-05
2.29607e-05
1.90165e-05
9.34752e-06
3.09731e-07
7.52945e-07
2.34684e-05
4.56356e-05
5.60489e-05
5.91337e-05
5.89903e-05
5.65282e-05
5.35751e-05
5.05932e-05
4.80126e-05
4.59798e-05
4.45349e-05
4.3618e-05
4.3124e-05
4.29575e-05
4.30489e-05
4.33409e-05
4.3787e-05
4.43518e-05
4.50078e-05
4.57326e-05
4.65096e-05
4.73281e-05
4.8184e-05
4.90781e-05
5.00143e-05
5.09969e-05
5.20285e-05
5.31085e-05
5.42324e-05
5.53919e-05
5.65759e-05
5.77709e-05
5.89626e-05
6.01361e-05
6.1277e-05
6.23718e-05
6.34494e-05
6.44303e-05
6.52299e-05
6.59524e-05
6.66823e-05
6.73171e-05
6.77709e-05
6.80995e-05
6.82902e-05
6.83345e-05
6.82237e-05
6.79491e-05
6.75025e-05
6.68766e-05
6.6066e-05
6.50679e-05
6.3884e-05
6.25227e-05
6.10009e-05
5.93473e-05
5.76034e-05
5.58246e-05
5.40776e-05
5.24338e-05
5.0958e-05
4.96937e-05
4.86464e-05
4.77706e-05
4.69625e-05
4.60555e-05
4.42821e-05
4.15175e-05
3.88898e-05
3.57943e-05
3.24958e-05
2.93761e-05
2.53459e-05
2.32802e-05
2.26334e-05
2.22578e-05
1.89654e-05
9.66763e-06
3.59991e-07
7.78276e-07
2.37461e-05
4.59698e-05
5.6472e-05
5.96472e-05
5.93163e-05
5.69542e-05
5.37351e-05
5.06126e-05
4.79728e-05
4.59598e-05
4.45766e-05
4.37311e-05
4.33065e-05
4.32089e-05
4.3368e-05
4.37245e-05
4.42313e-05
4.48531e-05
4.55632e-05
4.63413e-05
4.71741e-05
4.80553e-05
4.8985e-05
4.9967e-05
5.10065e-05
5.21069e-05
5.3268e-05
5.44856e-05
5.5751e-05
5.70517e-05
5.83731e-05
5.96992e-05
6.10137e-05
6.23009e-05
6.35459e-05
6.47356e-05
6.5899e-05
6.69504e-05
6.78311e-05
6.86141e-05
6.93944e-05
7.00925e-05
7.06021e-05
7.09815e-05
7.12218e-05
7.13146e-05
7.12513e-05
7.10228e-05
7.06196e-05
7.00324e-05
6.92524e-05
6.82725e-05
6.70882e-05
6.57004e-05
6.41172e-05
6.2358e-05
6.04559e-05
5.84612e-05
5.64414e-05
5.44779e-05
5.26569e-05
5.10534e-05
4.97111e-05
4.86215e-05
4.77097e-05
4.68281e-05
4.57553e-05
4.35395e-05
4.05027e-05
3.77751e-05
3.42937e-05
3.06021e-05
2.69037e-05
2.31184e-05
2.18017e-05
2.12674e-05
1.88965e-05
1.02339e-05
4.26777e-07
7.95498e-07
2.38655e-05
4.60812e-05
5.66444e-05
5.99876e-05
5.96898e-05
5.7168e-05
5.38255e-05
5.06013e-05
4.79283e-05
4.59466e-05
4.46262e-05
4.38493e-05
4.34925e-05
4.34623e-05
4.36864e-05
4.41038e-05
4.46678e-05
4.53441e-05
4.61075e-05
4.69407e-05
4.78344e-05
4.87865e-05
4.98005e-05
5.08818e-05
5.20349e-05
5.32605e-05
5.4555e-05
5.59095e-05
5.73109e-05
5.87433e-05
6.01892e-05
6.16308e-05
6.30507e-05
6.4433e-05
6.57633e-05
6.70287e-05
6.82568e-05
6.93715e-05
7.03177e-05
7.11438e-05
7.19552e-05
7.27066e-05
7.32621e-05
7.3684e-05
7.39674e-05
7.41051e-05
7.40888e-05
7.39097e-05
7.3558e-05
7.3023e-05
7.22936e-05
7.13589e-05
7.02094e-05
6.88386e-05
6.72455e-05
6.54387e-05
6.34399e-05
6.12888e-05
5.90465e-05
5.67958e-05
5.46361e-05
5.26701e-05
5.09826e-05
4.96146e-05
4.85403e-05
4.76561e-05
4.67823e-05
4.50933e-05
4.22014e-05
3.95498e-05
3.61492e-05
3.23891e-05
2.83397e-05
2.38353e-05
2.13283e-05
1.97208e-05
1.848e-05
1.08528e-05
5.08948e-07
8.04975e-07
2.38306e-05
4.59434e-05
5.66168e-05
6.01268e-05
5.99407e-05
5.73011e-05
5.3865e-05
5.0571e-05
4.78846e-05
4.5941e-05
4.46824e-05
4.39715e-05
4.36806e-05
4.37154e-05
4.40012e-05
4.44763e-05
4.50949e-05
4.58242e-05
4.66415e-05
4.7533e-05
4.84935e-05
4.95246e-05
5.06317e-05
5.182e-05
5.3092e-05
5.44447e-05
5.58699e-05
5.73542e-05
5.88809e-05
6.04309e-05
6.19848e-05
6.3524e-05
6.50309e-05
6.64899e-05
6.78872e-05
6.92106e-05
7.04839e-05
7.1656e-05
7.26462e-05
7.35039e-05
7.4328e-05
7.51219e-05
7.57134e-05
7.61687e-05
7.64874e-05
7.66639e-05
7.66913e-05
7.65613e-05
7.62644e-05
7.57895e-05
7.51242e-05
7.42549e-05
7.31679e-05
7.18504e-05
7.02931e-05
6.84935e-05
6.64603e-05
6.42193e-05
6.18192e-05
5.93352e-05
5.68693e-05
5.45417e-05
5.24705e-05
5.07429e-05
4.93819e-05
4.83227e-05
4.7407e-05
4.63972e-05
4.40826e-05
4.1024e-05
3.82618e-05
3.3888e-05
2.97007e-05
2.53194e-05
2.13831e-05
1.93037e-05
1.81095e-05
1.13908e-05
6.03771e-07
8.05486e-07
2.36909e-05
4.56792e-05
5.64836e-05
6.02417e-05
6.00077e-05
5.73542e-05
5.38654e-05
5.053e-05
4.78451e-05
4.59431e-05
4.47441e-05
4.40967e-05
4.38695e-05
4.39664e-05
4.43106e-05
4.48406e-05
4.55119e-05
4.62938e-05
4.71665e-05
4.812e-05
4.91528e-05
5.02692e-05
5.1475e-05
5.2774e-05
5.41651e-05
5.56411e-05
5.71891e-05
5.87918e-05
6.04291e-05
6.20803e-05
6.37247e-05
6.53436e-05
6.69198e-05
6.84384e-05
6.98868e-05
7.12538e-05
7.25518e-05
7.37666e-05
7.47961e-05
7.56716e-05
7.64911e-05
7.73154e-05
7.79334e-05
7.84129e-05
7.87585e-05
7.89667e-05
7.90321e-05
7.89479e-05
7.87052e-05
7.82935e-05
7.76998e-05
7.6909e-05
7.59043e-05
7.46681e-05
7.31838e-05
7.14388e-05
6.94288e-05
6.7164e-05
6.46765e-05
6.20273e-05
5.93114e-05
5.66552e-05
5.42023e-05
5.20849e-05
5.03845e-05
4.90936e-05
4.80972e-05
4.71886e-05
4.54191e-05
4.23122e-05
3.99081e-05
3.59588e-05
3.12935e-05
2.66697e-05
2.16237e-05
1.90532e-05
1.77265e-05
1.20045e-05
7.07041e-07
8.0164e-07
2.34462e-05
4.53545e-05
5.61755e-05
6.01371e-05
5.99691e-05
5.73408e-05
5.38364e-05
5.04843e-05
4.7812e-05
4.59527e-05
4.48108e-05
4.42242e-05
4.40582e-05
4.42142e-05
4.46138e-05
4.51963e-05
4.5919e-05
4.67535e-05
4.76832e-05
4.8702e-05
4.98114e-05
5.10168e-05
5.23235e-05
5.37322e-05
5.52379e-05
5.68289e-05
5.8488e-05
6.01947e-05
6.19267e-05
6.3662e-05
6.53797e-05
6.70613e-05
6.86906e-05
7.02537e-05
7.1739e-05
7.31374e-05
7.44421e-05
7.56789e-05
7.67526e-05
7.76357e-05
7.84363e-05
7.92752e-05
7.99114e-05
8.04065e-05
8.07704e-05
8.10024e-05
8.10992e-05
8.10554e-05
8.08636e-05
8.05142e-05
7.99945e-05
7.9289e-05
7.83792e-05
7.72438e-05
7.58605e-05
7.42081e-05
7.22704e-05
7.00421e-05
6.75366e-05
6.4796e-05
6.18994e-05
5.89678e-05
5.61571e-05
5.36346e-05
5.1537e-05
4.99195e-05
4.87123e-05
4.77034e-05
4.65534e-05
4.38563e-05
4.12857e-05
3.80507e-05
3.26707e-05
2.78933e-05
2.26822e-05
1.86903e-05
1.65586e-05
1.25688e-05
8.01477e-07
7.9273e-07
2.31727e-05
4.47591e-05
5.5715e-05
5.98997e-05
5.9837e-05
5.72717e-05
5.37854e-05
5.04382e-05
4.77869e-05
4.59702e-05
4.48824e-05
4.43538e-05
4.42462e-05
4.44581e-05
4.49104e-05
4.55435e-05
4.63164e-05
4.72035e-05
4.81917e-05
4.92779e-05
5.04658e-05
5.17611e-05
5.31668e-05
5.46804e-05
5.62924e-05
5.7987e-05
5.97435e-05
6.15387e-05
6.3349e-05
6.51519e-05
6.69269e-05
6.86561e-05
7.03241e-05
7.1918e-05
7.3427e-05
7.48418e-05
7.61545e-05
7.73913e-05
7.85015e-05
7.93914e-05
8.01719e-05
8.0995e-05
8.16453e-05
8.21485e-05
8.25227e-05
8.27707e-05
8.28916e-05
8.28817e-05
8.27356e-05
8.24449e-05
8.1998e-05
8.13797e-05
8.05707e-05
7.95478e-05
7.82846e-05
7.67531e-05
7.49267e-05
7.27859e-05
7.03256e-05
6.75659e-05
6.45645e-05
6.14264e-05
5.83066e-05
5.53953e-05
5.28801e-05
5.08895e-05
4.94355e-05
4.83829e-05
4.74593e-05
4.53015e-05
4.22923e-05
3.97729e-05
3.46749e-05
2.93432e-05
2.409e-05
1.94246e-05
1.57929e-05
1.2981e-05
8.66432e-07
7.78998e-07
2.28241e-05
4.40799e-05
5.51402e-05
5.95461e-05
5.96226e-05
5.71556e-05
5.37182e-05
5.03949e-05
4.77712e-05
4.59958e-05
4.49589e-05
4.44854e-05
4.44331e-05
4.4698e-05
4.52004e-05
4.5882e-05
4.67039e-05
4.76434e-05
4.86904e-05
4.98446e-05
5.11106e-05
5.24933e-05
5.39931e-05
5.56035e-05
5.7311e-05
5.90959e-05
6.09348e-05
6.2803e-05
6.4676e-05
6.65315e-05
6.83496e-05
7.01133e-05
7.18079e-05
7.34215e-05
7.49439e-05
7.63665e-05
7.76823e-05
7.89041e-05
8.00351e-05
8.09421e-05
8.17007e-05
8.24837e-05
8.31399e-05
8.36442e-05
8.40215e-05
8.42783e-05
8.44161e-05
8.44334e-05
8.43268e-05
8.40895e-05
8.37114e-05
8.31784e-05
8.24714e-05
8.15664e-05
8.04344e-05
7.90426e-05
7.73563e-05
7.53435e-05
7.29819e-05
7.02696e-05
6.72388e-05
6.3971e-05
6.06073e-05
5.73449e-05
5.44073e-05
5.19861e-05
5.01653e-05
4.88634e-05
4.78249e-05
4.62834e-05
4.32451e-05
4.11477e-05
3.67561e-05
3.04552e-05
2.50726e-05
1.96454e-05
1.56392e-05
1.31269e-05
8.92681e-07
7.60903e-07
2.23894e-05
4.32969e-05
5.44647e-05
5.90909e-05
5.93364e-05
5.69999e-05
5.36392e-05
5.03569e-05
4.77659e-05
4.60302e-05
4.50408e-05
4.4619e-05
4.46188e-05
4.49336e-05
4.54835e-05
4.62115e-05
4.7081e-05
4.80718e-05
4.91768e-05
5.03975e-05
5.17389e-05
5.32039e-05
5.47899e-05
5.64868e-05
5.82772e-05
6.01384e-05
6.2045e-05
6.39713e-05
6.58928e-05
6.77876e-05
6.96365e-05
7.14234e-05
7.31347e-05
7.47589e-05
7.62866e-05
7.77102e-05
7.90238e-05
8.02243e-05
8.13424e-05
8.22876e-05
8.30186e-05
8.37517e-05
8.44042e-05
8.4903e-05
8.52771e-05
8.55364e-05
8.56846e-05
8.57228e-05
8.56492e-05
8.54593e-05
8.51447e-05
8.46926e-05
8.40851e-05
8.32982e-05
8.23021e-05
8.10606e-05
7.95333e-05
7.76783e-05
7.54583e-05
7.28502e-05
6.98599e-05
6.65399e-05
6.30076e-05
5.94527e-05
5.61214e-05
5.32642e-05
5.10527e-05
4.94942e-05
4.83847e-05
4.73155e-05
4.45e-05
4.2094e-05
3.86598e-05
3.19664e-05
2.6158e-05
2.00259e-05
1.58882e-05
1.31346e-05
8.9698e-07
7.39164e-07
2.18937e-05
4.24199e-05
5.36998e-05
5.85469e-05
5.89877e-05
5.68105e-05
5.35518e-05
5.03259e-05
4.7772e-05
4.60739e-05
4.51284e-05
4.47548e-05
4.48033e-05
4.51648e-05
4.57594e-05
4.65314e-05
4.74463e-05
4.84866e-05
4.96474e-05
5.09313e-05
5.23428e-05
5.38828e-05
5.55454e-05
5.73169e-05
5.91769e-05
6.11003e-05
6.30605e-05
6.50313e-05
6.69886e-05
6.8911e-05
7.07803e-05
7.25811e-05
7.43005e-05
7.59278e-05
7.74541e-05
7.8872e-05
8.01756e-05
8.13601e-05
8.24511e-05
8.34181e-05
8.41292e-05
8.48092e-05
8.54492e-05
8.59368e-05
8.63026e-05
8.6559e-05
8.67122e-05
8.67653e-05
8.67188e-05
8.65701e-05
8.63128e-05
8.5936e-05
8.54231e-05
8.47513e-05
8.38906e-05
8.28036e-05
8.1446e-05
7.97686e-05
7.77217e-05
7.52637e-05
7.23748e-05
6.90764e-05
6.54541e-05
6.16763e-05
5.7993e-05
5.46965e-05
5.20366e-05