/*--------------------------------*- C++ -*----------------------------------*\
  =========                 |
  \\      /  F ield         | OpenFOAM: The Open Source CFD Toolbox
   \\    /   O peration     | Website:  https://openfoam.org
    \\  /    A nd           | Version:  13
     \\/     M anipulation  |
\*---------------------------------------------------------------------------*/
FoamFile
{
    format      ascii;
    class       volScalarField;
    location    "4";
    object      p;
}
// * * * * * * * * * * * * * * * * * * * * * * * * * * * * * * * * * * * * * //

dimensions      [0 2 -2 0 0 0 0];

internalField   nonuniform List<scalar> 
6400
(
5.0321e-08
1.55648e-05
2.11503e-05
7.007e-06
-3.09522e-05
-8.89957e-05
-0.000159869
-0.000236573
-0.000313925
-0.000389749
-0.000464197
-0.000539941
-0.000620889
-0.000710964
-0.000814143
-0.000933805
-0.00107259
-0.00123197
-0.00141357
-0.00161843
-0.00184695
-0.00209982
-0.00237908
-0.00268794
-0.00303127
-0.00341349
-0.00383274
-0.00428289
-0.00475185
-0.00521443
-0.00565604
-0.00607651
-0.00647453
-0.00684641
-0.00718788
-0.00749312
-0.00775437
-0.00796219
-0.00810609
-0.0081752
-0.00815869
-0.00804623
-0.00782887
-0.00750012
-0.00705662
-0.00649653
-0.00581321
-0.00499943
-0.00407027
-0.00304071
-0.00191696
-0.000717535
0.000538033
0.00182303
0.00310773
0.00435585
0.00552499
0.00657318
0.00746165
0.00815349
0.00862054
0.00884716
0.00883382
0.0085965
0.00815115
0.0075694
0.00689497
0.00619013
0.00551323
0.00490885
0.00440851
0.00403646
0.00378387
0.00362463
0.00354329
0.00351646
0.00352433
0.0035506
0.00358403
0.00360991
-1.18843e-05
3.91173e-06
6.22805e-06
-1.15745e-05
-5.15753e-05
-0.000109498
-0.000177397
-0.000248689
-0.00031934
-0.000388228
-0.000456262
-0.000526293
-0.000602265
-0.000687637
-0.000785556
-0.00089905
-0.00103106
-0.00118401
-0.0013586
-0.00155555
-0.00177446
-0.00201527
-0.00228006
-0.00257115
-0.0028906
-0.00324267
-0.0036337
-0.00406516
-0.00453006
-0.00501284
-0.00549067
-0.00594776
-0.00638005
-0.00678498
-0.0071577
-0.00749182
-0.00777939
-0.00801111
-0.00817689
-0.00826644
-0.00826994
-0.008178
-0.00798264
-0.00767759
-0.00725807
-0.00672015
-0.0060608
-0.00528576
-0.0044017
-0.0034099
-0.00232535
-0.00116447
5.18615e-05
0.00129823
0.00254421
0.00375441
0.00489132
0.00591595
0.0067894
0.00747814
0.00795438
0.00820219
0.00822066
0.00802384
0.00763818
0.00711176
0.00649734
0.0058526
0.00523186
0.00468213
0.00423447
0.00390229
0.0036851
0.00356488
0.00352021
0.00352876
0.00355959
0.00359261
0.00362278
0.00364758
-2.32011e-05
-5.7587e-06
-7.52123e-06
-3.19914e-05
-7.78718e-05
-0.000137818
-0.000203084
-0.000267221
-0.000327641
-0.000385483
-0.000443036
-0.000503719
-0.00057143
-0.000649136
-0.000739021
-0.000842893
-0.000962292
-0.00109929
-0.00125591
-0.0014344
-0.00163757
-0.00186779
-0.00212828
-0.00242328
-0.00275634
-0.00312979
-0.00354453
-0.00399879
-0.00448598
-0.00499419
-0.00550715
-0.00600919
-0.00648898
-0.00693856
-0.00735157
-0.00772096
-0.00803873
-0.00829629
-0.0084847
-0.00859469
-0.0086174
-0.00854492
-0.00837025
-0.0080876
-0.00769274
-0.00718335
-0.00655959
-0.00581686
-0.00496674
-0.00401481
-0.00297174
-0.00185242
-0.000676324
0.000532514
0.00174562
0.00293021
0.00405089
0.00506872
0.00594608
0.00665006
0.00715367
0.00743979
0.00750549
0.00736364
0.00704081
0.00657991
0.00603159
0.00544909
0.00488843
0.00439121
0.00398612
0.00369731
0.00352397
0.00344825
0.00343994
0.00347723
0.00353309
0.00358527
0.00362972
0.00366494
-2.71929e-05
-1.02022e-05
-1.76118e-05
-5.04907e-05
-0.00010416
-0.000166849
-0.000229649
-0.000287272
-0.00033834
-0.000383834
-0.00042819
-0.000476166
-0.000531909
-0.000598459
-0.000677538
-0.000770228
-0.000877956
-0.00100301
-0.00114862
-0.00131904
-0.00151966
-0.00175626
-0.00203533
-0.00236094
-0.00273459
-0.00315763
-0.00362857
-0.00414083
-0.0046832
-0.00524168
-0.00580191
-0.00635018
-0.00687408
-0.00736373
-0.00781136
-0.00820933
-0.00855015
-0.00882631
-0.00902958
-0.00915193
-0.00918584
-0.00912463
-0.00896221
-0.00869332
-0.00831473
-0.00782534
-0.00722252
-0.00650798
-0.00568655
-0.00476409
-0.0037499
-0.00265768
-0.0015057
-0.000316283
0.000884551
0.00206649
0.00319469
0.00423097
0.00513821
0.00588182
0.00643411
0.00677552
0.00689948
0.00681679
0.00655318
0.00614746
0.00564847
0.00511041
0.0045866
0.00412154
0.00374557
0.00347816
0.00332253
0.00326712
0.00329193
0.0033602
0.00344346
0.0035226
0.00358895
0.00363514
-1.82042e-05
-6.35694e-06
-2.1591e-05
-6.33594e-05
-0.000124685
-0.00019006
-0.000250441
-0.00030152
-0.000343096
-0.000377808
-0.00041074
-0.000447291
-0.000491941
-0.000547736
-0.000616747
-0.000700884
-0.000802993
-0.000927221
-0.00107928
-0.00126595
-0.00149494
-0.00177176
-0.00210076
-0.00248573
-0.00292757
-0.00342348
-0.00396614
-0.00454467
-0.00514541
-0.00575362
-0.00635557
-0.0069392
-0.00749417
-0.00801114
-0.00848162
-0.00889798
-0.00925339
-0.00954085
-0.00975264
-0.00988178
-0.00992266
-0.00986968
-0.00971776
-0.00946192
-0.00909883
-0.00862864
-0.00804961
-0.00736231
-0.00656979
-0.00567632
-0.00468972
-0.00362255
-0.00249184
-0.00131791
-0.000123122
0.00106519
0.00221231
0.00328017
0.0042336
0.00503718
0.00566055
0.00608189
0.00628893
0.00628626
0.00609682
0.0057588
0.00531814
0.00482632
0.00433731
0.00389768
0.00354032
0.0032864
0.0031399
0.00309206
0.00312412
0.0032071
0.00331008
0.00341146
0.00349645
0.00354994
1.07465e-05
1.24124e-05
-1.26215e-05
-6.51757e-05
-0.000133412
-0.000200204
-0.000257885
-0.000303328
-0.00033703
-0.000363241
-0.000387855
-0.000416616
-0.000454225
-0.000504263
-0.000569938
-0.000655122
-0.000765515
-0.000907833
-0.00109019
-0.00132092
-0.00160511
-0.00194921
-0.00235699
-0.00282678
-0.003353
-0.00392693
-0.00453758
-0.00517374
-0.00582279
-0.0064714
-0.0071071
-0.00771845
-0.00829605
-0.0088315
-0.00931687
-0.009745
-0.0101094
-0.0104036
-0.0106206
-0.0107542
-0.0108016
-0.010758
-0.0106192
-0.0103809
-0.0100396
-0.00959744
-0.00905003
-0.00839804
-0.00764385
-0.00679035
-0.00584347
-0.00481243
-0.00371218
-0.00255998
-0.00137414
-0.00018065
0.000985551
0.00208913
0.00309899
0.00397808
0.00469223
0.00521853
0.00553865
0.00565123
0.00556917
0.00532802
0.00497251
0.00455118
0.00411536
0.00371298
0.00338039
0.00314028
0.00299984
0.00295294
0.0029829
0.00306475
0.003171
0.00327767
0.0033685
0.00342355
6.77652e-05
5.59285e-05
1.81686e-05
-4.79695e-05
-0.00012103
-0.000188588
-0.000243991
-0.000285227
-0.000314406
-0.000336611
-0.000358229
-0.000385399
-0.000423436
-0.000477213
-0.000552038
-0.000654661
-0.000793342
-0.000977769
-0.00121532
-0.00151393
-0.00187949
-0.00231486
-0.00281621
-0.00337429
-0.00398038
-0.004625
-0.00529659
-0.00598326
-0.0066731
-0.00735453
-0.00801646
-0.00864869
-0.00924271
-0.00979078
-0.0102854
-0.0107194
-0.0110869
-0.0113824
-0.0116009
-0.0117413
-0.0117988
-0.0117686
-0.011647
-0.0114316
-0.0111211
-0.0107103
-0.0101998
-0.0095899
-0.00888121
-0.00807769
-0.00718556
-0.00621149
-0.00516322
-0.00405193
-0.00289641
-0.00171968
-0.000546196
0.000594277
0.00166753
0.00263141
0.00345372
0.00410919
0.00457175
0.00483598
0.00490451
0.00480213
0.00456898
0.00425131
0.00389778
0.00355545
0.00326275
0.00304511
0.00291319
0.00286421
0.0028861
0.00295608
0.00305157
0.00314833
0.0032304
0.00327857
0.000160643
0.000132332
7.75606e-05
-6.37218e-07
-7.85599e-05
-0.000147525
-0.000202113
-0.000242331
-0.000271631
-0.000295961
-0.000322175
-0.000356961
-0.000406789
-0.000478467
-0.000579699
-0.000720292
-0.000911187
-0.0011608
-0.00147746
-0.00186785
-0.00233195
-0.00286344
-0.00345481
-0.00409598
-0.00477622
-0.00548426
-0.00620848
-0.00693783
-0.0076613
-0.00836861
-0.00904997
-0.00969653
-0.0103003
-0.0108538
-0.0113497
-0.0117831
-0.0121503
-0.0124472
-0.0126721
-0.0128228
-0.0128917
-0.0128757
-0.0127717
-0.0125778
-0.0122929
-0.0119152
-0.0114441
-0.01088
-0.0102242
-0.00948033
-0.00865307
-0.00774742
-0.00676625
-0.00571651
-0.00461386
-0.00347641
-0.0023232
-0.00117413
-6.44032e-05
0.000977236
0.00192044
0.00271968
0.00334965
0.00379807
0.00405734
0.00413813
0.00407101
0.00389638
0.00365925
0.00340493
0.00317332
0.00299251
0.00287695
0.00282817
0.00283738
0.0028879
0.00296396
0.00303981
0.00309987
0.00313285
0.000293161
0.000247901
0.000173248
8.27447e-05
-8.2993e-07
-7.21709e-05
-0.000128799
-0.000172441
-0.00020805
-0.000242464
-0.000283133
-0.00033764
-0.000413994
-0.000521021
-0.000669214
-0.000870605
-0.0011361
-0.00147369
-0.00188908
-0.00238117
-0.00294417
-0.00356953
-0.00424667
-0.00496359
-0.00570882
-0.006471
-0.00723923
-0.00800319
-0.00875287
-0.00947901
-0.0101729
-0.0108267
-0.0114327
-0.0119843
-0.0124781
-0.0129123
-0.0132832
-0.0135851
-0.0138149
-0.0139677
-0.0140416
-0.0140349
-0.0139459
-0.0137736
-0.0135169
-0.0131739
-0.0127455
-0.0122314
-0.0116323
-0.0109501
-0.0101867
-0.00934504
-0.0084306
-0.00745145
-0.00641785
-0.00534233
-0.00423631
-0.00311106
-0.00199083
-0.000900663
0.000126369
0.0010571
0.00186833
0.00251911
0.00299804
0.00330135
0.0034436
0.00345351
0.00337084
0.00323614
0.0030895
0.00296311
0.00287545
0.00283271
0.00283076
0.00285957
0.00290587
0.00295381
0.00298459
0.00299919
0.000470383
0.000405956
0.000308558
0.000205409
0.000113932
3.77403e-05
-2.46426e-05
-7.7353e-05
-0.000126898
-0.000181042
-0.000248031
-0.000336622
-0.000456434
-0.000618528
-0.000835112
-0.00111865
-0.00147893
-0.00191982
-0.00244006
-0.0030349
-0.0036947
-0.00440768
-0.00516178
-0.00594488
-0.00674562
-0.007553
-0.0083568
-0.0091474
-0.00991573
-0.0106535
-0.011353
-0.0120076
-0.0126118
-0.0131614
-0.0136528
-0.0140817
-0.014444
-0.014738
-0.0149621
-0.015113
-0.0151896
-0.0151907
-0.0151154
-0.0149631
-0.0147332
-0.0144245
-0.0140376
-0.0135727
-0.0130305
-0.012412
-0.0117184
-0.0109512
-0.0101138
-0.00921095
-0.00824824
-0.00723215
-0.0061721
-0.00508679
-0.00399055
-0.00289584
-0.00182084
-0.000791508
0.000162488
0.00100784
0.00171579
0.00226421
0.00265244
0.00288846
0.00299932
0.00301981
0.00298566
0.00293253
0.00288572
0.00285707
0.00284844
0.00285492
0.00287039
0.00288391
0.00288442
0.00288165
0.000692855
0.000605143
0.000483649
0.000363442
0.000262517
0.000178267
0.000105315
3.67397e-05
-3.56212e-05
-0.000120551
-0.000227246
-0.000365637
-0.000546967
-0.000783627
-0.00108831
-0.00147166
-0.00193858
-0.00248791
-0.0031144
-0.00380842
-0.00455749
-0.00534907
-0.00617063
-0.00701032
-0.00785707
-0.00870041
-0.00953075
-0.0103392
-0.0111177
-0.011859
-0.0125567
-0.0132053
-0.0138006
-0.014339
-0.0148176
-0.0152331
-0.0155833
-0.0158669
-0.0160829
-0.0162299
-0.0163069
-0.0163133
-0.0162488
-0.0161132
-0.0159062
-0.0156276
-0.0152778
-0.0148572
-0.0143666
-0.0138069
-0.0131788
-0.0124837
-0.0117234
-0.0109005
-0.0100177
-0.00907802
-0.00808626
-0.00705095
-0.00598152
-0.00489286
-0.00380554
-0.00272899
-0.00167837
-0.000681591
0.000227195
0.00102043
0.00166942
0.0021641
0.0025074
0.00272092
0.00283287
0.0028761
0.0028841
0.00287785
0.00286742
0.00285469
0.00284021
0.00281931
0.00279232
0.00277424
0.000950777
0.000839641
0.000689048
0.000549263
0.000436444
0.000340649
0.000251534
0.000159413
5.44565e-05
-7.3176e-05
-0.000233569
-0.000437738
-0.000697914
-0.00102651
-0.00143435
-0.00192753
-0.00250603
-0.00316416
-0.00389209
-0.00467745
-0.00550675
-0.00636716
-0.00724621
-0.00813238
-0.009015
-0.00988419
-0.0107311
-0.0115477
-0.0123271
-0.0130632
-0.0137508
-0.0143859
-0.0149652
-0.0154862
-0.0159469
-0.0163453
-0.0166804
-0.0169513
-0.0171574
-0.0172981
-0.0173732
-0.0173824
-0.0173258
-0.0172035
-0.0170158
-0.0167628
-0.0164452
-0.0160635
-0.0156185
-0.015111
-0.0145418
-0.0139118
-0.0132221
-0.0124739
-0.0116684
-0.010807
-0.00989159
-0.00892509
-0.00791096
-0.0068553
-0.00576748
-0.00466115
-0.00355894
-0.00246764
-0.00140615
-0.000406551
0.000489596
0.00125128
0.00185592
0.00229936
0.00259535
0.00276731
0.0028489
0.00287493
0.0028673
0.00283904
0.00279804
0.00274699
0.00269795
0.00266768
0.00123297
0.00109692
0.000913571
0.000751769
0.000624135
0.000512286
0.00040072
0.000276862
0.000129194
-5.30779e-05
-0.000280687
-0.000565378
-0.000919048
-0.00135231
-0.00187212
-0.00247941
-0.00316882
-0.00393044
-0.00475185
-0.00561916
-0.00651862
-0.00743734
-0.00836315
-0.00928494
-0.0101926
-0.011077
-0.0119302
-0.0127454
-0.0135168
-0.0142398
-0.0149106
-0.0155263
-0.0160849
-0.0165846
-0.0170245
-0.0174036
-0.0177215
-0.017978
-0.0181728
-0.018306
-0.0183775
-0.0183876
-0.0183367
-0.0182251
-0.0180534
-0.0178221
-0.0175319
-0.0171836
-0.016778
-0.0163161
-0.0157984
-0.0152258
-0.0145988
-0.0139179
-0.0131833
-0.0123951
-0.0115533
-0.0106581
-0.00970965
-0.00870886
-0.00765734
-0.00655937
-0.0054251
-0.004271
-0.00311274
-0.00196525
-0.0008652
0.000142231
0.00101501
0.00171657
0.0022335
0.00257376
0.00275964
0.00283266
0.002835
0.00279432
0.00273064
0.00265496
0.00259019
0.00255215
0.00152448
0.00136139
0.00114352
0.000956223
0.000810256
0.000677476
0.000536947
0.000373162
0.000172943
-7.49719e-05
-0.000381859
-0.000759078
-0.00121676
-0.00176216
-0.002397
-0.0031167
-0.00391144
-0.00476844
-0.00567356
-0.00661229
-0.00757091
-0.00853668
-0.00949787
-0.0104439
-0.0113656
-0.0122548
-0.0131047
-0.01391
-0.0146661
-0.0153699
-0.0160189
-0.0166114
-0.0171463
-0.0176228
-0.0180407
-0.0183997
-0.0186999
-0.0189415
-0.0191246
-0.0192497
-0.019317
-0.019327
-0.0192802
-0.0191772
-0.0190188
-0.0188056
-0.0185386
-0.0182186
-0.0178466
-0.0174235
-0.01695
-0.0164268
-0.0158543
-0.0152325
-0.0145611
-0.0138392
-0.0130657
-0.0122387
-0.0113564
-0.0104166
-0.00941712
-0.00835709
-0.0072372
-0.00606139
-0.0048405
-0.00359814
-0.0023525
-0.00114329
-2.56367e-05
0.000942673
0.00171134
0.00225868
0.00259031
0.00273889
0.00276319
0.00271513
0.00263108
0.00253476
0.0024592
0.00241559
0.0018057
0.00161472
0.00135922
0.00114489
0.000977279
0.000818652
0.00064265
0.000430874
0.000169466
-0.000153264
-0.000548967
-0.00102697
-0.00159453
-0.00225383
-0.00300112
-0.00382709
-0.00471855
-0.00566074
-0.0066385
-0.00763717
-0.00864323
-0.00964431
-0.0106293
-0.0115886
-0.0125139
-0.0133986
-0.0142372
-0.0150257
-0.0157612
-0.0164417
-0.0170659
-0.0176332
-0.0181433
-0.0185961
-0.018992
-0.0193313
-0.0196144
-0.0198417
-0.0200137
-0.020131
-0.0201941
-0.0202036
-0.0201599
-0.0200641
-0.0199168
-0.0197188
-0.0194713
-0.0191751
-0.0188313
-0.0184409
-0.0180046
-0.0175232
-0.0169969
-0.0164258
-0.0158091
-0.0151456
-0.0144333
-0.0136694
-0.0128505
-0.0119722
-0.0110301
-0.0100194
-0.00893645
-0.00777902
-0.0065486
-0.00525415
-0.00391535
-0.00256338
-0.0012471
-3.45351e-05
0.00099755
0.00178691
0.00230729
0.00257435
0.00264576
0.00260039
0.00249827
0.00238362
0.00229827
0.00224756
0.00205533
0.00183601
0.00154279
0.00129962
0.00110704
0.000917542
0.000699636
0.000433536
0.000104701
-0.00030045
-0.000791094
-0.00137397
-0.00205191
-0.00282171
-0.00367478
-0.00459785
-0.00557528
-0.00659102
-0.00762942
-0.00867595
-0.00971745
-0.0107422
-0.01174
-0.0127023
-0.0136224
-0.0144948
-0.0153159
-0.0160829
-0.0167943
-0.0174492
-0.0180475
-0.0185892
-0.0190747
-0.0195047
-0.0198798
-0.0202007
-0.020468
-0.0206823
-0.0208444
-0.0209547
-0.021014
-0.0210229
-0.020982
-0.0208923
-0.0207544
-0.0205694
-0.0203383
-0.0200621
-0.0197419
-0.0193787
-0.0189734
-0.0185268
-0.0180391
-0.0175105
-0.0169401
-0.0163266
-0.0156678
-0.0149603
-0.0141997
-0.0133808
-0.012497
-0.0115414
-0.0105067
-0.00938658
-0.00817723
-0.00687871
-0.00549901
-0.00406061
-0.00260496
-0.00119579
8.04199e-05
0.0011283
0.0018774
0.00231238
0.00247204
0.00244727
0.00233451
0.00220197
0.00210253
0.00204094
0.00225472
0.00200604
0.00167576
0.00140275
0.00118201
0.000956957
0.000692655
0.000368088
-3.3915e-05
-0.000525312
-0.00111301
-0.00180052
-0.00258477
-0.00345803
-0.00440728
-0.00541618
-0.00646743
-0.00754421
-0.00863079
-0.00971295
-0.0107781
-0.0118155
-0.0128161
-0.0137729
-0.0146804
-0.015535
-0.0163342
-0.0170768
-0.0177625
-0.0183912
-0.0189636
-0.0194806
-0.019943
-0.0203518
-0.020708
-0.0210123
-0.0212656
-0.0214686
-0.0216221
-0.0217266
-0.0217829
-0.0217915
-0.0217533
-0.0216689
-0.0215393
-0.0213654
-0.0211482
-0.0208888
-0.0205882
-0.0202476
-0.019868
-0.01945
-0.0189943
-0.0185007
-0.0179689
-0.0173975
-0.0167841
-0.0161255
-0.015417
-0.0146527
-0.0138252
-0.0129261
-0.011946
-0.0108754
-0.00970581
-0.00843172
-0.00705283
-0.00557991
-0.00404266
-0.00249609
-0.00102247
0.000272352
0.0012764
0.00192303
0.0022213
0.00225189
0.00214031
0.00198948
0.00186705
0.00179108
0.00238019
0.00210627
0.00174126
0.00143817
0.00118653
0.000922673
0.000609632
0.000223215
-0.000254588
-0.000832856
-0.00151644
-0.00230354
-0.00318678
-0.00415363
-0.0051874
-0.00626953
-0.00738168
-0.00850669
-0.00962901
-0.010735
-0.0118129
-0.0128531
-0.0138481
-0.0147923
-0.015682
-0.0165147
-0.0172897
-0.0180067
-0.0186662
-0.0192694
-0.0198173
-0.0203113
-0.0207525
-0.0211423
-0.0214817
-0.0217716
-0.0220129
-0.0222064
-0.0223528
-0.0224528
-0.0225068
-0.0225157
-0.0224801
-0.0224007
-0.0222784
-0.0221141
-0.0219088
-0.0216636
-0.0213795
-0.0210577
-0.0206992
-0.0203047
-0.0198751
-0.0194103
-0.0189101
-0.0183733
-0.017798
-0.0171809
-0.0165176
-0.0158019
-0.0150264
-0.0141819
-0.0132578
-0.0122427
-0.011125
-0.00989466
-0.00854534
-0.007078
-0.00550912
-0.00388074
-0.00226746
-0.000767903
0.000488844
0.00138411
0.00187044
0.00199943
0.00191022
0.0017432
0.00158798
0.00149636
0.00241893
0.00212252
0.00172585
0.00139292
0.00110856
0.000804857
0.000441405
-9.0578e-06
-0.000561709
-0.00122444
-0.00199862
-0.00287771
-0.00384989
-0.00489844
-0.0060038
-0.00714592
-0.00830587
-0.00946647
-0.0106126
-0.0117314
-0.0128124
-0.0138472
-0.0148298
-0.0157563
-0.0166244
-0.0174332
-0.0181828
-0.0188741
-0.0195085
-0.0200875
-0.0206128
-0.0210859
-0.0215083
-0.0218815
-0.0222064
-0.0224841
-0.0227155
-0.0229012
-0.023042
-0.0231386
-0.0231913
-0.0232009
-0.023168
-0.0230933
-0.0229776
-0.0228218
-0.0226268
-0.0223937
-0.0221235
-0.0218173
-0.0214763
-0.0211011
-0.0206927
-0.0202513
-0.0197768
-0.0192683
-0.0187242
-0.0181418
-0.0175168
-0.0168435
-0.0161147
-0.0153209
-0.0144513
-0.0134932
-0.0124332
-0.0112581
-0.00995728
-0.00852431
-0.00696348
-0.00530129
-0.00360198
-0.00195413
-0.000478448
0.000673187
0.0013899
0.00167007
0.00163518
0.00145683
0.00126251
0.00115576
0.00235931
0.00204425
0.00161983
0.00125826
0.000941198
0.000596802
0.000181615
-0.000330715
-0.000954901
-0.00169729
-0.00255424
-0.00351541
-0.00456466
-0.00568186
-0.00684536
-0.00803417
-0.00922912
-0.0104133
-0.0115723
-0.0126943
-0.0137701
-0.0147928
-0.015758
-0.0166633
-0.0175077
-0.0182915
-0.0190159
-0.0196825
-0.0202932
-0.02085
-0.0213549
-0.0218096
-0.0222156
-0.0225745
-0.0228872
-0.0231548
-0.0233781
-0.0235577
-0.0236943
-0.0237885
-0.0238406
-0.0238513
-0.0238213
-0.023751
-0.0236414
-0.0234932
-0.0233072
-0.0230845
-0.0228262
-0.0225332
-0.0222067
-0.0218474
-0.0214564
-0.0210339
-0.0205802
-0.0200947
-0.019576
-0.019022
-0.018429
-0.0177919
-0.0171038
-0.0163559
-0.0155373
-0.0146349
-0.0136344
-0.0125205
-0.0112794
-0.00989996
-0.00837694
-0.00672026
-0.00497592
-0.00323792
-0.00159889
-0.000209813
0.000763623
0.00124217
0.0012978
0.00112205
0.000890835
0.000769587
0.00219451
0.00186523
0.00141784
0.00102995
0.000680914
0.000295991
-0.000169473
-0.000740182
-0.00143091
-0.00224514
-0.00317541
-0.00420724
-0.00532075
-0.00649317
-0.00770145
-0.00892409
-0.010142
-0.0113388
-0.012501
-0.0136179
-0.0146818
-0.0156873
-0.0166316
-0.0175136
-0.0183334
-0.0190924
-0.0197924
-0.0204358
-0.0210248
-0.0215617
-0.0220485
-0.0224871
-0.0228792
-0.0232259
-0.0235286
-0.0237879
-0.0240048
-0.0241797
-0.0243132
-0.0244059
-0.0244581
-0.0244704
-0.0244432
-0.0243773
-0.0242733
-0.0241318
-0.0239539
-0.0237403
-0.0234921
-0.0232103
-0.022896
-0.02255
-0.0221733
-0.0217663
-0.0213295
-0.0208625
-0.0203645
-0.0198336
-0.019267
-0.0186602
-0.0180071
-0.0172996
-0.0165272
-0.0156774
-0.0147353
-0.0136845
-0.0125087
-0.0111936
-0.00972798
-0.00810897
-0.00635892
-0.00456969
-0.00282661
-0.00124892
-2.58355e-05
0.000686758
0.000882309
0.000732125
0.00047587
0.000338283
0.0019227
0.00158405
0.00111917
0.000708007
0.00032812
-9.609e-05
-0.000607863
-0.0012319
-0.00198264
-0.00285975
-0.00385253
-0.00494274
-0.00610742
-0.00732186
-0.00856212
-0.00980657
-0.0110365
-0.0122362
-0.0133933
-0.0144985
-0.0155454
-0.0165302
-0.0174514
-0.018309
-0.0191042
-0.0198392
-0.0205164
-0.0211384
-0.0217077
-0.0222269
-0.022698
-0.0231229
-0.023503
-0.0238397
-0.0241341
-0.0243868
-0.0245986
-0.02477
-0.0249015
-0.0249934
-0.0250462
-0.0250602
-0.0250361
-0.0249743
-0.0248754
-0.0247402
-0.0245693
-0.0243638
-0.0241245
-0.0238523
-0.0235484
-0.0232135
-0.0228487
-0.0224545
-0.0220315
-0.0215797
-0.0210984
-0.0205864
-0.0200415
-0.0194599
-0.0188364
-0.0181638
-0.0174326
-0.0166309
-0.0157441
-0.0147556
-0.0136471
-0.0124021
-0.0110065
-0.00944856
-0.00773076
-0.00590849
-0.00411495
-0.00241071
-0.000970425
-9.995e-06
0.000368735
0.00027399
1.71248e-05
-0.000142666
0.00154667
0.00120376
0.000726989
0.000295757
-0.000112694
-0.000572907
-0.00112658
-0.00179828
-0.00260069
-0.00353086
-0.00457477
-0.00571093
-0.00691398
-0.0081579
-0.00941831
-0.0106737
-0.011906
-0.0131004
-0.0142457
-0.0153339
-0.0163602
-0.017322
-0.0182189
-0.0190521
-0.0198234
-0.0205357
-0.0211916
-0.0217942
-0.0223461
-0.0228497
-0.0233072
-0.0237203
-0.0240905
-0.0244189
-0.0247065
-0.024954
-0.0251619
-0.0253307
-0.0254609
-0.0255527
-0.0256064
-0.0256225
-0.0256013
-0.0255434
-0.0254494
-0.0253198
-0.0251554
-0.024957
-0.0247254
-0.0244616
-0.0241666
-0.0238413
-0.0234865
-0.0231031
-0.0226915
-0.0222521
-0.0217846
-0.0212881
-0.0207609
-0.0202002
-0.0196016
-0.018959
-0.0182639
-0.0175053
-0.0166697
-0.0157403
-0.0146987
-0.0135259
-0.0122059
-0.0107239
-0.00906762
-0.00724736
-0.00541957
-0.00364925
-0.0020449
-0.000849723
-0.000258941
-0.000254177
-0.000491835
-0.000682165
0.00107312
0.000731451
0.000248024
-0.000199731
-0.000633801
-0.00112547
-0.00171572
-0.00242856
-0.00327406
-0.00424708
-0.00533067
-0.00650072
-0.00773011
-0.00899199
-0.0102619
-0.0115188
-0.0127452
-0.0139275
-0.0150558
-0.0161233
-0.0171264
-0.0180639
-0.0189363
-0.0197455
-0.0204942
-0.0211852
-0.0218218
-0.022407
-0.0229434
-0.0234335
-0.0238792
-0.0242824
-0.0246442
-0.0249658
-0.0252479
-0.0254913
-0.0256962
-0.0258633
-0.0259927
-0.0260847
-0.0261397
-0.0261579
-0.0261397
-0.0260856
-0.025996
-0.0258716
-0.025713
-0.0255209
-0.0252963
-0.0250399
-0.0247526
-0.0244355
-0.0240894
-0.0237151
-0.0233132
-0.0228842
-0.0224281
-0.0219445
-0.0214321
-0.0208887
-0.0203111
-0.0196939
-0.01903
-0.0183097
-0.0175203
-0.0166462
-0.0156688
-0.0145677
-0.0133246
-0.0119234
-0.0103457
-0.00858421
-0.00672089
-0.00492511
-0.0032217
-0.00183069
-0.00101709
-0.000860286
-0.00106227
-0.00129239
0.000512702
0.000176784
-0.00030794
-0.000768085
-0.00122381
-0.00174265
-0.00236424
-0.00311079
-0.00399064
-0.00499638
-0.00610866
-0.00730134
-0.00854609
-0.00981569
-0.0110859
-0.0123362
-0.0135501
-0.014715
-0.0158223
-0.0168665
-0.0178451
-0.0187578
-0.0196061
-0.0203923
-0.0211196
-0.0217911
-0.0224101
-0.0229797
-0.0235025
-0.0239808
-0.0244165
-0.0248112
-0.0251661
-0.025482
-0.0257597
-0.0259998
-0.0262026
-0.0263684
-0.0264976
-0.0265902
-0.0266465
-0.0266669
-0.0266516
-0.026601
-0.0265156
-0.0263959
-0.0262426
-0.0260563
-0.0258378
-0.025588
-0.0253077
-0.0249978
-0.0246592
-0.0242927
-0.0238992
-0.0234791
-0.0230326
-0.0225598
-0.0220598
-0.0215311
-0.0209711
-0.0203756
-0.0197387
-0.019052
-0.018304
-0.0174804
-0.0165632
-0.0155319
-0.0143659
-0.0130477
-0.0115587
-0.00987965
-0.00801685
-0.00620888
-0.00446604
-0.00293284
-0.00191117
-0.00157427
-0.0017098
-0.00199017
-0.000120725
-0.00044822
-0.000928787
-0.00139713
-0.00187067
-0.00241227
-0.00305936
-0.00383233
-0.0047379
-0.0057667
-0.00689745
-0.00810257
-0.009353
-0.0106215
-0.0118842
-0.0131213
-0.0143175
-0.0154611
-0.0165447
-0.017564
-0.0185174
-0.0194056
-0.0202305
-0.020995
-0.0217023
-0.022356
-0.0229593
-0.023515
-0.0240258
-0.0244939
-0.024921
-0.0253084
-0.0256574
-0.0259687
-0.0262429
-0.0264804
-0.0266816
-0.0268466
-0.0269758
-0.0270692
-0.027127
-0.0271495
-0.027137
-0.0270897
-0.0270082
-0.0268929
-0.0267444
-0.0265634
-0.0263505
-0.0261065
-0.0258323
-0.0255289
-0.0251969
-0.0248374
-0.0244511
-0.0240387
-0.0236006
-0.0231371
-0.0226477
-0.0221314
-0.0215865
-0.0210097
-0.0203961
-0.0197386
-0.0190275
-0.0182494
-0.0173878
-0.0164226
-0.0153317
-0.0140957
-0.0126959
-0.0111073
-0.00931733
-0.00748477
-0.00574145
-0.00412678
-0.00293115
-0.00241173
-0.00245313
-0.00279956
-0.000812658
-0.00112919
-0.0016013
-0.00207417
-0.00256165
-0.00312137
-0.00378789
-0.00458023
-0.00550337
-0.00654633
-0.00768639
-0.00889501
-0.0101428
-0.0114028
-0.0126517
-0.0138706
-0.015045
-0.0161646
-0.0172229
-0.0182166
-0.0191449
-0.0200092
-0.0208118
-0.0215559
-0.0222449
-0.0228823
-0.0234713
-0.0240148
-0.024515
-0.0249742
-0.0253938
-0.0257751
-0.0261192
-0.0264266
-0.0266978
-0.0269333
-0.0271333
-0.0272979
-0.0274273
-0.0275216
-0.027581
-0.0276056
-0.0275957
-0.0275516
-0.0274737
-0.0273624
-0.0272184
-0.027042
-0.0268342
-0.0265955
-0.0263269
-0.0260292
-0.0257032
-0.0253499
-0.0249701
-0.0245645
-0.0241338
-0.0236783
-0.0231982
-0.0226927
-0.0221609
-0.0216002
-0.0210068
-0.020375
-0.0196964
-0.0189592
-0.0181483
-0.0172446
-0.0162262
-0.0150711
-0.0137603
-0.0122693
-0.0105811
-0.00874342
-0.00702417
-0.00539053
-0.00406985
-0.00337148
-0.00330651
-0.00372613
-0.00154837
-0.0018515
-0.0023118
-0.00278579
-0.00328325
-0.0038562
-0.00453655
-0.00534172
-0.00627502
-0.00732421
-0.0084656
-0.00967014
-0.0109085
-0.012154
-0.0133842
-0.014581
-0.015731
-0.0168249
-0.0178571
-0.0188251
-0.0197289
-0.0205702
-0.0213518
-0.0220769
-0.0227492
-0.0233718
-0.0239481
-0.0244805
-0.0249715
-0.0254228
-0.025836
-0.026212
-0.0265518
-0.0268559
-0.0271248
-0.0273587
-0.0275578
-0.0277222
-0.027852
-0.0279472
-0.0280081
-0.0280348
-0.0280274
-0.0279862
-0.0279116
-0.0278041
-0.027664
-0.0274921
-0.0272888
-0.027055
-0.0267915
-0.026499
-0.0261784
-0.0258307
-0.0254567
-0.0250573
-0.0246331
-0.0241849
-0.0237129
-0.023217
-0.0226966
-0.02215
-0.0215744
-0.0209651
-0.0203152
-0.0196146
-0.0188497
-0.0180028
-0.0170526
-0.0159764
-0.0147552
-0.0133686
-0.0117866
-0.00998708
-0.00827941
-0.00668082
-0.00529559
-0.00444335
-0.00427723
-0.004759
-0.00231266
-0.00260077
-0.00304645
-0.00351792
-0.00402151
-0.00460332
-0.00529246
-0.00610459
-0.00704156
-0.00809016
-0.00922618
-0.0104204
-0.0116438
-0.0128703
-0.0140782
-0.0152504
-0.0163743
-0.0174416
-0.0184475
-0.0193904
-0.0202706
-0.0210902
-0.0218521
-0.0225598
-0.0232166
-0.0238259
-0.0243907
-0.0249134
-0.0253961
-0.0258405
-0.026248
-0.0266194
-0.0269556
-0.0272569
-0.0275238
-0.0277564
-0.0279548
-0.0281191
-0.0282494
-0.0283456
-0.028408
-0.0284365
-0.0284315
-0.028393
-0.0283216
-0.0282174
-0.0280811
-0.0279131
-0.0277141
-0.0274847
-0.0272257
-0.026938
-0.0266224
-0.0262798
-0.0259111
-0.0255173
-0.0250992
-0.0246575
-0.0241929
-0.0237055
-0.0231953
-0.0226611
-0.0221011
-0.0215117
-0.0208873
-0.0202193
-0.0194958
-0.0187006
-0.0178136
-0.0168119
-0.0156756
-0.0143857
-0.0129112
-0.0112266
-0.0095112
-0.00795793
-0.00655957
-0.00559797
-0.00535956
-0.00587649
-0.00309089
-0.00336256
-0.00379123
-0.00425714
-0.00476335
-0.00535009
-0.00604353
-0.00685757
-0.00779268
-0.00883499
-0.00996018
-0.0111392
-0.0123435
-0.0135476
-0.0147308
-0.0158768
-0.0169739
-0.0180145
-0.0189947
-0.0199133
-0.020771
-0.0215702
-0.0223139
-0.0230055
-0.0236484
-0.0242456
-0.0248
-0.025314
-0.0257893
-0.0262277
-0.0266301
-0.0269975
-0.0273305
-0.0276295
-0.0278946
-0.0281261
-0.028324
-0.0284884
-0.0286191
-0.0287163
-0.0287801
-0.0288104
-0.0288075
-0.0287716
-0.0287029
-0.0286019
-0.028469
-0.0283046
-0.0281094
-0.0278841
-0.0276294
-0.0273461
-0.027035
-0.0266971
-0.0263334
-0.0259447
-0.0255321
-0.0250965
-0.0246386
-0.024159
-0.0236579
-0.0231349
-0.0225888
-0.022017
-0.0214151
-0.0207762
-0.0200898
-0.0193417
-0.018513
-0.0175819
-0.0165261
-0.0153269
-0.0139569
-0.0123982
-0.0107082
-0.00920659
-0.00782639
-0.00679933
-0.00651738
-0.00702504
-0.00386914
-0.00412305
-0.00453279
-0.00499073
-0.00549658
-0.0060848
-0.00677869
-0.00759041
-0.00851922
-0.00955061
-0.0106607
-0.0118209
-0.0130031
-0.0141828
-0.0153398
-0.0164589
-0.0175291
-0.0185436
-0.019499
-0.0203944
-0.0212311
-0.0220113
-0.0227382
-0.0234151
-0.0240452
-0.0246315
-0.0251767
-0.0256827
-0.0261515
-0.0265844
-0.0269824
-0.0273463
-0.0276765
-0.0279733
-0.028237
-0.0284676
-0.0286651
-0.0288295
-0.0289607
-0.0290588
-0.0291238
-0.0291558
-0.0291549
-0.0291213
-0.0290552
-0.028957
-0.0288272
-0.0286661
-0.0284745
-0.0282529
-0.0280021
-0.0277228
-0.0274159
-0.0270824
-0.0267232
-0.0263394
-0.0259319
-0.0255018
-0.0250501
-0.0245776
-0.0240848
-0.0235719
-0.0230382
-0.0224821
-0.0219004
-0.0212873
-0.0206342
-0.0199286
-0.0191534
-0.0182876
-0.0173086
-0.0161988
-0.0149373
-0.0134953
-0.0118578
-0.010392
-0.00906274
-0.00801166
-0.00768567
-0.00812114
-0.00463459
-0.00486968
-0.00525907
-0.00570707
-0.00621005
-0.00679686
-0.00748799
-0.00829403
-0.00921329
-0.0102298
-0.0113217
-0.0124605
-0.0136189
-0.0147729
-0.0159033
-0.0169955
-0.0180394
-0.0190287
-0.0199605
-0.0208342
-0.0216513
-0.0224141
-0.0231256
-0.0237891
-0.0244077
-0.0249841
-0.0255208
-0.0260199
-0.0264828
-0.0269108
-0.0273048
-0.0276655
-0.0279932
-0.0282882
-0.0285505
-0.0287803
-0.0289774
-0.0291419
-0.0292736
-0.0293726
-0.0294388
-0.0294722
-0.0294731
-0.0294416
-0.0293778
-0.0292822
-0.0291552
-0.0289972
-0.0288087
-0.0285905
-0.0283432
-0.0280677
-0.0277647
-0.0274352
-0.0270802
-0.0267008
-0.0262981
-0.0258732
-0.0254273
-0.0249613
-0.0244761
-0.0239723
-0.0234498
-0.0229078
-0.022344
-0.0217539
-0.0211305
-0.0204629
-0.0197359
-0.0189298
-0.0180228
-0.0169968
-0.0158342
-0.0145043
-0.0129734
-0.0115172
-0.0102389
-0.00919379
-0.00880989
-0.00913578
-0.00537498
-0.00559106
-0.00595928
-0.00639582
-0.00689388
-0.00747691
-0.0081626
-0.00896017
-0.009868
-0.0108673
-0.0119381
-0.0130542
-0.0141878
-0.0153158
-0.0164198
-0.0174858
-0.0185044
-0.0194699
-0.0203795
-0.0212331
-0.0220321
-0.0227789