/*--------------------------------*- C++ -*----------------------------------*\
  =========                 |
  \\      /  F ield         | OpenFOAM: The Open Source CFD Toolbox
   \\    /   O peration     | Website:  https://openfoam.org
    \\  /    A nd           | Version:  13
     \\/     M anipulation  |
\*---------------------------------------------------------------------------*/
FoamFile
{
    format      ascii;
    class       surfaceScalarField;
    location    "4";
    object      phi;
}
// * * * * * * * * * * * * * * * * * * * * * * * * * * * * * * * * * * * * * //

dimensions      [0 3 -1 0 0 0 0];

internalField   nonuniform List<scalar> 
12640
(
1.93219e-09
-1.93318e-09
1.37979e-08
-1.18657e-08
3.39036e-08
-2.01057e-08
5.69785e-08
-2.30748e-08
7.80044e-08
-2.1026e-08
9.41115e-08
-1.6107e-08
1.04195e-07
-1.00831e-08
1.08887e-07
-4.69259e-09
1.09905e-07
-1.01785e-09
1.09073e-07
8.31513e-10
1.07932e-07
1.14103e-09
1.07444e-07
4.8856e-10
1.07954e-07
-5.09697e-10
1.09269e-07
-1.31578e-09
1.10811e-07
-1.54119e-09
1.11904e-07
-1.09314e-09
1.11847e-07
5.64445e-11
1.10295e-07
1.55208e-09
1.06489e-07
3.8066e-09
9.96588e-08
6.82976e-09
8.9234e-08
1.04247e-08
7.47287e-08
1.45053e-08
5.57202e-08
1.90085e-08
3.2029e-08
2.36912e-08
3.66654e-09
2.83624e-08
-2.9529e-08
3.31956e-08
-6.84006e-08
3.88715e-08
-1.14574e-07
4.6173e-08
-1.70274e-07
5.57e-08
-2.37682e-07
6.74083e-08
-3.17153e-07
7.94707e-08
-4.0676e-07
8.96077e-08
-5.03794e-07
9.70337e-08
-6.05545e-07
1.01751e-07
-7.0937e-07
1.03824e-07
-8.12882e-07
1.03513e-07
-9.13977e-07
1.01095e-07
-1.01089e-06
9.691e-08
-1.10214e-06
9.12511e-08
-1.18654e-06
8.44042e-08
-1.26314e-06
7.6598e-08
-1.33112e-06
6.79763e-08
-1.38979e-06
5.8672e-08
-1.43853e-06
4.87363e-08
-1.47671e-06
3.8185e-08
-1.5037e-06
2.6987e-08
-1.51922e-06
1.55217e-08
-1.52338e-06
4.16297e-09
-1.51423e-06
-9.15417e-09
-1.49237e-06
-2.18539e-08
-1.45676e-06
-3.56148e-08
-1.40734e-06
-4.94216e-08
-1.3439e-06
-6.34412e-08
-1.26665e-06
-7.72463e-08
-1.17604e-06
-9.06118e-08
-1.07279e-06
-1.03253e-07
-9.57772e-07
-1.15013e-07
-8.3235e-07
-1.25422e-07
-6.98323e-07
-1.34027e-07
-5.58083e-07
-1.40241e-07
-4.14573e-07
-1.4351e-07
-2.71365e-07
-1.43207e-07
-1.32373e-07
-1.38992e-07
-1.69964e-09
-1.30673e-07
1.17528e-07
-1.19228e-07
2.20181e-07
-1.02652e-07
3.02691e-07
-8.25105e-08
3.62056e-07
-5.93646e-08
3.96329e-07
-3.42729e-08
4.04138e-07
-7.8091e-09
3.86869e-07
1.72692e-08
3.46949e-07
3.99191e-08
2.88926e-07
5.80231e-08
2.20856e-07
6.80704e-08
1.53364e-07
6.74921e-08
9.40207e-08
5.9343e-08
4.77536e-08
4.62671e-08
1.65549e-08
3.11987e-08
1.44527e-09
1.51096e-08
1.44527e-09
9.55804e-09
-1.14912e-08
3.76567e-08
-3.99643e-08
7.63127e-08
-5.87617e-08
1.16065e-07
-6.28266e-08
1.50517e-07
-5.54788e-08
1.76372e-07
-4.19617e-08
1.92987e-07
-2.66983e-08
2.01156e-07
-1.28611e-08
2.02381e-07
-2.24284e-09
1.98494e-07
4.71818e-09
1.91251e-07
8.38374e-09
1.81801e-07
9.93847e-09
1.7051e-07
1.07822e-08
1.5698e-07
1.22141e-08
1.40396e-07
1.50423e-08
1.19849e-07
1.94537e-08
9.46275e-08
2.52784e-08
6.36475e-08
3.2532e-08
2.59147e-08
4.15394e-08
-1.98499e-08
5.25944e-08
-7.53169e-08
6.58917e-08
-1.42052e-07
8.12408e-08
-2.21205e-07
9.81612e-08
-3.13623e-07
1.16109e-07
-4.19887e-07
1.34626e-07
-5.40034e-07
1.53343e-07
-6.72701e-07
1.71538e-07
-8.14829e-07
1.88302e-07
-9.62336e-07
2.03207e-07
-1.11039e-06
2.15462e-07
-1.25518e-06
2.24265e-07
-1.39489e-06
2.29316e-07
-1.52816e-06
2.303e-07
-1.65362e-06
2.27207e-07
-1.77012e-06
2.20329e-07
-1.87685e-06
2.10238e-07
-1.97321e-06
1.97463e-07
-2.05882e-06
1.82515e-07
-2.13339e-06
1.65827e-07
-2.19674e-06
1.47745e-07
-2.2487e-06
1.28565e-07
-2.28916e-06
1.0843e-07
-2.31796e-06
8.74798e-08
-2.335e-06
6.57721e-08
-2.34016e-06
4.33496e-08
-2.33339e-06
2.02075e-08
-2.31394e-06
-3.92115e-09
-2.28194e-06
-2.78375e-08
-2.23769e-06
-5.34093e-08
-2.18011e-06
-7.94297e-08
-2.1096e-06
-1.06121e-07
-2.02583e-06
-1.33196e-07
-1.9288e-06
-1.60469e-07
-1.81845e-06
-1.87595e-07
-1.69493e-06
-2.14137e-07
-1.55864e-06
-2.39542e-07
-1.41068e-06
-2.6297e-07
-1.2524e-06
-2.83705e-07
-1.08569e-06
-3.0074e-07
-9.12868e-07
-3.13059e-07
-7.36678e-07
-3.197e-07
-5.602e-07
-3.19685e-07
-3.86901e-07
-3.12291e-07
-2.20335e-07
-2.9724e-07
-6.50445e-08
-2.74519e-07
7.62239e-08
-2.43921e-07
1.99874e-07
-2.06161e-07
3.0255e-07
-1.6204e-07
3.8165e-07
-1.13373e-07
4.35543e-07
-6.17023e-08
4.63164e-07
-1.03521e-08
4.63494e-07
3.95895e-08
4.38259e-07
8.3258e-08
3.89387e-07
1.16943e-07
3.18956e-07
1.37923e-07
2.35312e-07
1.42987e-07
1.49911e-07
1.31667e-07
7.50713e-08
1.06039e-07
2.22564e-08
6.79245e-08
2.37016e-08
1.71674e-08
-2.86587e-08
5.64366e-08
-7.92335e-08
1.01166e-07
-1.03491e-07
1.4119e-07
-1.0285e-07
1.72411e-07
-8.66992e-08
1.93804e-07
-6.3355e-08
2.05832e-07
-3.87261e-08
2.09276e-07
-1.63054e-08
2.05115e-07
1.91835e-09
1.94397e-07
1.5436e-08
1.78246e-07
2.45346e-08
1.57145e-07
3.10401e-08
1.30923e-07
3.70035e-08
9.8923e-08
4.42144e-08
6.01796e-08
5.37856e-08
1.3496e-08
6.61373e-08
-4.2599e-08
8.13733e-08
-1.0964e-07
9.95731e-08
-1.88946e-07
1.20846e-07
-2.81638e-07
1.45286e-07
-3.88329e-07
1.72583e-07
-5.0892e-07
2.01832e-07
-6.4277e-07
2.32012e-07
-7.88311e-07
2.6165e-07
-9.42851e-07
2.89166e-07
-1.10293e-06
3.13426e-07
-1.26476e-06
3.33369e-07
-1.4248e-06
3.48333e-07
-1.57967e-06
3.58082e-07
-1.72665e-06
3.62445e-07
-1.86388e-06
3.61497e-07
-1.99009e-06
3.55519e-07
-2.10473e-06
3.44943e-07
-2.20791e-06
3.30382e-07
-2.29987e-06
3.12298e-07
-2.38089e-06
2.91252e-07
-2.45124e-06
2.67815e-07
-2.51119e-06
2.42464e-07
-2.56094e-06
2.15576e-07
-2.60064e-06
1.87443e-07
-2.6304e-06
1.58327e-07
-2.65027e-06
1.28304e-07
-2.66023e-06
9.7438e-08
-2.6602e-06
6.57397e-08
-2.65004e-06
3.31949e-08
-2.62938e-06
-4.51297e-10
-2.59855e-06
-3.47572e-08
-2.55625e-06
-7.01316e-08
-2.50296e-06
-1.06706e-07
-2.43811e-06
-1.4428e-07
-2.36139e-06
-1.82836e-07
-2.27254e-06
-2.22052e-07
-2.17138e-06
-2.61625e-07
-2.05785e-06
-3.01125e-07
-1.93203e-06
-3.39957e-07
-1.7943e-06
-3.77275e-07
-1.64531e-06
-4.11962e-07
-1.48613e-06
-4.42887e-07
-1.31814e-06
-4.6872e-07
-1.14333e-06
-4.87871e-07
-9.6422e-07
-4.98813e-07
-7.83677e-07
-5.00227e-07
-6.05094e-07
-4.90875e-07
-4.32097e-07
-4.70237e-07
-2.68402e-07
-4.38213e-07
-1.17121e-07
-3.95202e-07
1.85519e-08
-3.41834e-07
1.36087e-07
-2.79575e-07
2.33068e-07
-2.10354e-07
3.08298e-07
-1.36932e-07
3.60437e-07
-6.24918e-08
3.89702e-07
1.03249e-08
3.945e-07
7.84598e-08
3.75116e-07
1.36326e-07
3.32975e-07
1.80065e-07
2.7109e-07
2.04872e-07
1.94723e-07
2.08034e-07
1.13445e-07
1.87317e-07
4.06246e-08
1.40745e-07
6.43263e-08
2.32781e-08
-5.19368e-08
6.79112e-08
-1.23867e-07
1.10929e-07
-1.46509e-07
1.44459e-07
-1.36381e-07
1.67056e-07
-1.09296e-07
1.79562e-07
-7.58609e-08
1.82912e-07
-4.20762e-08
1.77975e-07
-1.1368e-08
1.65309e-07
1.45841e-08
1.45339e-07
3.54054e-08
1.17803e-07
5.2071e-08
8.22887e-08
6.65545e-08
3.8154e-08
8.11382e-08
-1.53986e-08
9.7767e-08
-7.932e-08
1.17707e-07
-1.54802e-07
1.41619e-07
-2.43156e-07
1.69728e-07
-3.45507e-07
2.01924e-07
-4.62496e-07
2.37834e-07
-5.93978e-07
2.76768e-07
-7.38803e-07
3.17409e-07
-8.94593e-07
3.57621e-07
-1.05822e-06
3.95642e-07
-1.22606e-06
4.29487e-07
-1.39435e-06
4.57451e-07
-1.55955e-06
4.78626e-07
-1.71832e-06
4.92139e-07
-1.86787e-06
4.97885e-07
-2.00635e-06
4.96561e-07
-2.1329e-06
4.89e-07
-2.2474e-06
4.75999e-07
-2.35016e-06
4.58272e-07
-2.44167e-06
4.36459e-07
-2.52252e-06
4.11231e-07
-2.59335e-06
3.83125e-07
-2.65473e-06
3.52639e-07
-2.70716e-06
3.20237e-07
-2.75097e-06
2.8628e-07
-2.78644e-06
2.51045e-07
-2.81374e-06
2.1474e-07
-2.83294e-06
1.77527e-07
-2.84405e-06
1.39419e-07
-2.84702e-06
1.00399e-07
-2.84165e-06
6.0374e-08
-2.82768e-06
1.92265e-08
-2.805e-06
-2.31286e-08
-2.77307e-06
-6.66863e-08
-2.73155e-06
-1.11654e-07
-2.68016e-06
-1.58101e-07
-2.61845e-06
-2.05991e-07
-2.54594e-06
-2.55344e-07
-2.4622e-06
-3.05793e-07
-2.36691e-06
-3.56914e-07
-2.25983e-06
-4.08199e-07
-2.14081e-06
-4.58984e-07
-2.00982e-06
-5.08265e-07
-1.86715e-06
-5.54629e-07
-1.71356e-06
-5.96472e-07
-1.55004e-06
-6.32243e-07
-1.37812e-06
-6.59793e-07
-1.19989e-06
-6.77041e-07
-1.01791e-06
-6.8221e-07
-8.35362e-07
-6.73419e-07
-6.5609e-07
-6.49509e-07
-4.84216e-07
-6.10087e-07
-3.23349e-07
-5.56069e-07
-1.76577e-07
-4.88606e-07
-4.68216e-08
-4.0933e-07
6.38335e-08
-3.21009e-07
1.5386e-07
-2.26958e-07
2.22263e-07
-1.30894e-07
2.69085e-07
-3.64978e-08
2.94971e-07
5.25738e-08
2.9928e-07
1.32018e-07
2.82022e-07
1.97323e-07
2.43599e-07
2.43295e-07
1.87302e-07
2.64331e-07
1.18173e-07
2.56446e-07
4.61169e-08
2.12801e-07
1.10443e-07
2.78111e-08
-7.9748e-08
7.20366e-08
-1.68092e-07
1.0778e-07
-1.82252e-07
1.31394e-07
-1.59995e-07
1.4325e-07
-1.21152e-07
1.45112e-07
-7.77229e-08
1.38066e-07
-3.50294e-08
1.22677e-07
4.02073e-09
9.89608e-08
3.83002e-08
6.65421e-08
6.78241e-08
2.46027e-08
9.40103e-08
-2.78287e-08
1.18986e-07
-9.17293e-08
1.45039e-07
-1.68038e-07
1.74076e-07
-2.57667e-07
2.07336e-07
-3.61438e-07
2.4539e-07
-4.79929e-07
2.88219e-07
-6.1308e-07
3.35075e-07
-7.59919e-07
3.84673e-07
-9.1823e-07
4.35078e-07
-1.08486e-06
4.84039e-07
-1.25606e-06
5.28818e-07
-1.42785e-06
5.6744e-07
-1.59643e-06
5.98064e-07
-1.75796e-06
6.18978e-07
-1.90926e-06
6.29929e-07
-2.04879e-06
6.3167e-07
-2.17617e-06
6.25265e-07
-2.29156e-06
6.11943e-07
-2.39546e-06
5.92906e-07
-2.48857e-06
5.69108e-07
-2.57164e-06
5.41341e-07
-2.64539e-06
5.10207e-07
-2.71044e-06
4.76287e-07
-2.7674e-06
4.40083e-07
-2.81676e-06
4.01999e-07
-2.85891e-06
3.62386e-07
-2.89417e-06
3.21534e-07
-2.92272e-06
2.79595e-07
-2.9446e-06
2.36628e-07
-2.95992e-06
1.92839e-07
-2.96861e-06
1.48116e-07
-2.97062e-06
1.02404e-07
-2.96576e-06
5.55186e-08
-2.95373e-06
7.19391e-09
-2.93436e-06
-4.24986e-08
-2.9071e-06
-9.39513e-08
-2.87149e-06
-1.47261e-07
-2.82714e-06
-2.02453e-07
-2.77365e-06
-2.59475e-07
-2.71049e-06
-3.18505e-07
-2.63692e-06
-3.79361e-07
-2.55238e-06
-4.41455e-07
-2.45647e-06
-5.04115e-07
-2.34874e-06
-5.66706e-07
-2.22878e-06
-6.2823e-07
-2.09639e-06
-6.87014e-07
-1.95205e-06
-7.40819e-07
-1.79625e-06
-7.88043e-07
-1.62997e-06
-8.26073e-07
-1.45491e-06
-8.52098e-07
-1.27323e-06
-8.63893e-07
-1.08776e-06
-8.58881e-07
-9.01872e-07
-8.35402e-07
-7.19895e-07
-7.92063e-07
-5.46672e-07
-7.29293e-07
-3.8607e-07
-6.49207e-07
-2.41271e-07
-5.5413e-07
-1.14997e-07
-4.47283e-07
-9.19746e-09
-3.32758e-07
7.51304e-08
-2.15222e-07
1.37836e-07
-9.92032e-08
1.79651e-07
1.07591e-08
2.01209e-07
1.10459e-07
2.0311e-07
1.95422e-07
1.85833e-07
2.60573e-07
1.50295e-07
2.99869e-07
9.9183e-08
3.07558e-07
3.97996e-08
2.72184e-07
1.50243e-07
3.03265e-08
-1.10074e-07
6.87524e-08
-2.06518e-07
9.35956e-08
-2.07096e-07
1.04987e-07
-1.71387e-07
1.05067e-07
-1.21232e-07
9.5478e-08
-6.81339e-08
7.70013e-08
-1.65527e-08
4.96685e-08
3.13536e-08
1.30486e-08
7.492e-08
-3.38483e-08
1.14721e-07
-9.21748e-08
1.52337e-07
-1.63103e-07
1.89914e-07
-2.47658e-07
2.29594e-07
-3.46624e-07
2.73042e-07
-4.60469e-07
3.21181e-07
-5.89168e-07
3.74089e-07
-7.32074e-07
4.31125e-07
-8.87559e-07
4.9056e-07
-1.05278e-06
5.49893e-07
-1.2241e-06
6.06398e-07
-1.39742e-06
6.5736e-07
-1.5686e-06
7.00002e-07
-1.73291e-06
7.31742e-07
-1.88667e-06
7.51828e-07
-2.02828e-06
7.6059e-07
-2.15745e-06
7.59093e-07
-2.27462e-06
7.48848e-07
-2.38059e-06
7.31234e-07
-2.47621e-06
7.07562e-07
-2.56226e-06
6.78955e-07
-2.63945e-06
6.46297e-07
-2.70844e-06
6.10333e-07
-2.76986e-06
5.71628e-07
-2.82426e-06
5.30689e-07
-2.87212e-06
4.87939e-07
-2.91378e-06
4.43659e-07
-2.94954e-06
3.98144e-07
-2.97966e-06
3.51659e-07
-3.00431e-06
3.04244e-07
-3.02336e-06
2.55673e-07
-3.03702e-06
2.06498e-07
-3.04523e-06
1.56332e-07
-3.04795e-06
1.05123e-07
-3.04514e-06
5.27019e-08
-3.03638e-06
-1.56633e-09
-3.02201e-06
-5.68648e-08
-3.00143e-06
-1.14529e-07
-2.97426e-06
-1.74433e-07
-2.9399e-06
-2.36813e-07
-2.89765e-06
-3.01722e-07
-2.84697e-06
-3.69187e-07
-2.78696e-06
-4.39372e-07
-2.71666e-06
-5.11753e-07
-2.63528e-06
-5.85493e-07
-2.54224e-06
-6.59752e-07
-2.43704e-06
-7.33431e-07
-2.31888e-06
-8.0517e-07
-2.18756e-06
-8.72139e-07
-2.04307e-06
-9.32537e-07
-1.88571e-06
-9.83431e-07
-1.71684e-06
-1.02096e-06
-1.53788e-06
-1.04285e-06
-1.35156e-06
-1.04521e-06
-1.16089e-06
-1.02607e-06
-9.69773e-07
-9.83181e-07
-7.83142e-07
-9.15924e-07
-6.06486e-07
-8.25864e-07
-4.44068e-07
-7.16548e-07
-2.99314e-07
-5.92037e-07
-1.74972e-07
-4.571e-07
-7.27988e-08
-3.17396e-07
6.77908e-09
-1.78781e-07
6.43855e-08
-4.68473e-08
1.01394e-07
7.345e-08
1.19283e-07
1.77533e-07
1.19029e-07
2.60826e-07
1.01469e-07
3.17429e-07
6.8915e-08
3.40112e-07
2.74068e-08
3.13692e-07
1.7765e-07
3.01038e-08
-1.40178e-07
5.80074e-08
-2.34422e-07
6.99278e-08
-2.19016e-07
6.81812e-08
-1.6964e-07
5.58774e-08
-1.08928e-07
3.42107e-08
-4.64672e-08
3.42064e-09
1.42374e-08
-3.69484e-08
7.17226e-08
-8.78079e-08
1.2578e-07
-1.50363e-07
1.77277e-07
-2.25879e-07
2.27852e-07
-3.15452e-07
2.79487e-07
-4.19847e-07
3.33989e-07
-5.39352e-07
3.92547e-07
-6.73605e-07
4.55434e-07
-8.21513e-07
5.21997e-07
-9.80967e-07
5.90578e-07
-1.14881e-06
6.58405e-07
-1.32096e-06
7.22043e-07
-1.4931e-06
7.78539e-07
-1.66004e-06
8.24297e-07
-1.81728e-06
8.57243e-07
-1.96248e-06
8.76943e-07
-2.09506e-06
8.84408e-07
-2.21543e-06
8.80962e-07
-2.32443e-06
8.68091e-07
-2.423e-06
8.47413e-07
-2.51205e-06
8.20284e-07
-2.59242e-06
7.87939e-07
-2.66481e-06
7.5134e-07
-2.72981e-06
7.113e-07
-2.78797e-06
6.68492e-07
-2.83977e-06
6.23429e-07
-2.88564e-06
5.76562e-07
-2.92596e-06
5.28255e-07
-2.96092e-06
4.78619e-07
-2.99072e-06
4.27942e-07
-3.01559e-06
3.76532e-07
-3.03587e-06
3.24528e-07
-3.052e-06
2.71799e-07
-3.06367e-06
2.18165e-07
-3.07086e-06
1.6353e-07
-3.07348e-06
1.07739e-07
-3.07133e-06
5.05542e-08
-3.06452e-06
-8.37549e-09
-3.05278e-06
-6.86116e-08
-3.03626e-06
-1.31047e-07
-3.01482e-06
-1.95868e-07
-2.98833e-06
-2.63301e-07
-2.95639e-06
-3.33665e-07
-2.91856e-06
-4.07015e-07
-2.8744e-06
-4.83536e-07
-2.82279e-06
-5.63363e-07
-2.76211e-06
-6.46175e-07
-2.69065e-06
-7.31214e-07
-2.60667e-06
-8.17402e-07
-2.50852e-06
-9.03327e-07
-2.39548e-06
-9.85173e-07
-2.26764e-06
-1.06038e-06
-2.12497e-06
-1.1261e-06
-1.96767e-06
-1.17827e-06
-1.79637e-06
-1.21415e-06
-1.61346e-06
-1.22811e-06
-1.42144e-06
-1.2181e-06
-1.22397e-06
-1.18065e-06
-1.02569e-06
-1.11421e-06
-8.32696e-07
-1.01886e-06
-6.51156e-07
-8.98087e-07
-4.85786e-07
-7.57407e-07
-3.40327e-07
-6.02559e-07
-2.17576e-07
-4.40147e-07
-1.18909e-07
-2.77448e-07
-4.4134e-08
-1.21622e-07
8.29885e-09
2.10171e-08
4.0532e-08
1.453e-07
5.47204e-08
2.46638e-07
5.27183e-08
3.19431e-07
3.67635e-08
3.56067e-07
1.31121e-08
3.37344e-07
1.90762e-07
2.62042e-08
-1.66383e-07
4.10444e-08
-2.49262e-07
3.88809e-08
-2.16852e-07
2.36016e-08
-1.54361e-07
-1.41002e-09
-8.39167e-08
-3.55918e-08
-1.22855e-08
-7.93222e-08
5.79678e-08
-1.3344e-07
1.2584e-07
-1.99096e-07
1.91436e-07
-2.77527e-07
2.55707e-07
-3.69841e-07
3.20166e-07
-4.76809e-07
3.86456e-07
-5.98663e-07
4.55842e-07
-7.34899e-07
5.28783e-07
-8.84276e-07
6.04812e-07
-1.04448e-06
6.82202e-07
-1.21191e-06
7.58005e-07
-1.38224e-06
8.28734e-07
-1.55058e-06
8.90388e-07
-1.71154e-06
9.39494e-07
-1.86151e-06
9.74272e-07
-1.99907e-06
9.94798e-07
-2.12417e-06
1.00205e-06
-2.23742e-06
9.97655e-07
-2.3397e-06
9.83243e-07
-2.43206e-06
9.60455e-07
-2.51544e-06
9.30796e-07
-2.59065e-06
8.95492e-07
-2.65834e-06
8.55628e-07
-2.71906e-06
8.1206e-07
-2.7733e-06
7.65535e-07
-2.82146e-06
7.16651e-07
-2.8639e-06
6.65869e-07
-2.9009e-06
6.13567e-07
-2.93286e-06
5.60214e-07
-2.96042e-06
5.06179e-07
-2.98402e-06
4.51542e-07
-3.00371e-06
3.96217e-07
-3.01926e-06
3.40081e-07
-3.03098e-06
2.83519e-07
-3.03883e-06
2.26014e-07
-3.04299e-06
1.67693e-07
-3.04359e-06
1.08339e-07
-3.04077e-06
4.77304e-08
-3.03468e-06
-1.44683e-08
-3.02526e-06
-7.80239e-08
-3.01245e-06
-1.43859e-07
-2.99613e-06
-2.12186e-07
-2.97607e-06
-2.83363e-07
-2.95198e-06
-3.57755e-07
-2.9234e-06
-4.35594e-07
-2.88996e-06
-5.16977e-07
-2.85124e-06
-6.02089e-07
-2.80656e-06
-6.90854e-07
-2.75508e-06
-7.82689e-07
-2.69571e-06
-8.76777e-07
-2.62673e-06
-9.72309e-07
-2.5438e-06
-1.0681e-06
-2.44349e-06
-1.16069e-06
-2.32406e-06
-1.24553e-06
-2.18588e-06
-1.31645e-06
-2.0304e-06
-1.36963e-06
-1.85821e-06
-1.4003e-06
-1.67137e-06
-1.40493e-06
-1.47302e-06
-1.37899e-06
-1.26754e-06
-1.31969e-06
-1.06056e-06
-1.22584e-06
-8.59832e-07
-1.09881e-06
-6.72559e-07
-9.44679e-07
-5.03938e-07
-7.7118e-07
-3.57967e-07
-5.86118e-07
-2.37391e-07
-3.98024e-07
-1.43116e-07
-2.15898e-07
-7.40943e-08
-4.80045e-08
-2.75639e-08
9.87696e-08
-6.87335e-11
2.19143e-07
1.07836e-08
3.08579e-07
9.40703e-09
3.57444e-07
1.47576e-09
3.45275e-07
1.92237e-07
1.88872e-08
-1.8527e-07
1.91154e-08
-2.4949e-07
2.01963e-09
-1.99757e-07
-2.63063e-08
-1.26035e-07
-6.4024e-08
-4.6199e-08
-1.11015e-07
3.47052e-08
-1.67973e-07
1.14926e-07
-2.35988e-07
1.93855e-07
-3.16239e-07
2.71687e-07
-4.09795e-07
3.49263e-07
-5.1742e-07
4.27791e-07
-6.39357e-07
5.08393e-07
-7.75116e-07
5.91602e-07
-9.23438e-07
6.77105e-07
-1.08189e-06
7.63267e-07
-1.24679e-06
8.47099e-07
-1.41355e-06
9.2476e-07
-1.57674e-06
9.91926e-07
-1.73161e-06
1.04526e-06
-1.87514e-06
1.08303e-06
-2.00631e-06
1.10544e-06
-2.12513e-06
1.11361e-06
-2.23231e-06
1.10923e-06
-2.32882e-06
1.09416e-06
-2.41566e-06
1.07008e-06
-2.49378e-06
1.03857e-06
-2.56392e-06
1.00094e-06
-2.62672e-06
9.58296e-07
-2.68271e-06
9.11613e-07
-2.73234e-06
8.61689e-07
-2.77603e-06
8.09224e-07
-2.81417e-06
7.54797e-07
-2.84724e-06
6.9894e-07
-2.87576e-06
6.42078e-07
-2.89991e-06
5.84364e-07
-2.91973e-06
5.26003e-07
-2.93531e-06
4.6712e-07
-2.94692e-06
4.07832e-07
-2.95508e-06
3.48239e-07
-2.95998e-06
2.88415e-07
-2.96205e-06
2.28085e-07
-2.96155e-06
1.67191e-07
-2.9587e-06
1.05492e-07
-2.9537e-06
4.27307e-08
-2.94677e-06
-2.13973e-08
-2.93773e-06
-8.70633e-08
-2.9267e-06
-1.5489e-07
-2.91369e-06
-2.25197e-07
-2.89865e-06
-2.98404e-07
-2.88149e-06
-3.74915e-07
-2.862e-06
-4.55081e-07
-2.83978e-06
-5.39192e-07
-2.81434e-06
-6.27537e-07
-2.78495e-06
-7.20239e-07
-2.75054e-06
-8.17095e-07
-2.7098e-06
-9.17524e-07
-2.66191e-06
-1.0202e-06
-2.60529e-06
-1.12471e-06
-2.53793e-06
-1.22806e-06
-2.45545e-06
-1.32801e-06
-2.35095e-06
-1.42095e-06
-2.22214e-06
-1.49844e-06
-2.06993e-06
-1.55252e-06
-1.89766e-06
-1.5772e-06
-1.70679e-06
-1.56987e-06
-1.50155e-06
-1.52493e-06
-1.2867e-06
-1.44068e-06
-1.06968e-06
-1.31584e-06
-8.60252e-07
-1.15411e-06
-6.66925e-07
-9.64508e-07
-4.95445e-07
-7.57598e-07
-3.49984e-07
-5.43484e-07
-2.33064e-07
-3.32818e-07
-1.4477e-07
-1.36299e-07
-8.28528e-08
3.68527e-08
-4.31402e-08
1.7943e-07
-2.07013e-08
2.8614e-07
-9.72645e-09
3.46469e-07
-5.30763e-09
3.40856e-07
1.8693e-07
8.87094e-09
-1.94141e-07
-6.3983e-09
-2.34221e-07
-3.75497e-08
-1.68605e-07
-7.90921e-08
-8.44925e-08
-1.29556e-07
4.26469e-09
-1.89286e-07
9.44354e-08
-2.59303e-07
1.84943e-07
-3.40747e-07
2.753e-07
-4.34655e-07
3.65595e-07
-5.41773e-07
4.56381e-07
-6.6237e-07
5.48388e-07
-7.96026e-07
6.42049e-07
-9.41564e-07
7.3714e-07
-1.09663e-06
8.32173e-07
-1.25756e-06
9.24193e-07
-1.41966e-06
1.0092e-06
-1.57754e-06
1.08264e-06
-1.7268e-06
1.14119e-06
-1.86483e-06
1.18328e-06
-1.99054e-06
1.20874e-06
-2.10399e-06
1.21889e-06
-2.20589e-06
1.21551e-06
-2.29723e-06
1.20057e-06
-2.37897e-06
1.1759e-06
-2.45198e-06
1.1431e-06
-2.51698e-06
1.10357e-06
-2.57455e-06
1.0585e-06
-2.6252e-06
1.00895e-06
-2.66939e-06
9.55806e-07
-2.70757e-06
8.9987e-07
-2.74017e-06
8.41823e-07
-2.76761e-06
7.82237e-07
-2.79023e-06
7.21556e-07
-2.8083e-06
6.60152e-07
-2.82221e-06
5.98278e-07
-2.83242e-06
5.36205e-07
-2.8394e-06
4.74104e-07
-2.84355e-06
4.11985e-07
-2.8452e-06
3.49887e-07
-2.84457e-06
2.8778e-07
-2.84197e-06
2.25485e-07
-2.83763e-06
1.62854e-07
-2.83176e-06
9.96284e-08
-2.82456e-06
3.55276e-08
-2.81621e-06
-2.97467e-08
-2.80676e-06
-9.65205e-08
-2.79639e-06
-1.65253e-07
-2.78525e-06
-2.36342e-07
-2.77341e-06
-3.10237e-07
-2.76095e-06
-3.8738e-07
-2.74782e-06
-4.68209e-07
-2.73387e-06
-5.53144e-07
-2.71882e-06
-6.42581e-07
-2.70226e-06
-7.36804e-07
-2.68347e-06
-8.35888e-07
-2.66138e-06
-9.39609e-07
-2.63418e-06
-1.0474e-06
-2.60037e-06
-1.15851e-06
-2.55755e-06
-1.27088e-06
-2.50376e-06
-1.3818e-06
-2.43611e-06
-1.4886e-06
-2.34854e-06
-1.58601e-06
-2.23232e-06
-1.66874e-06
-2.08615e-06
-1.72337e-06
-1.9136e-06
-1.74242e-06
-1.71825e-06
-1.72027e-06
-1.50461e-06
-1.65432e-06
-1.27907e-06
-1.54138e-06
-1.05104e-06
-1.38214e-06
-8.32504e-07
-1.18304e-06
-6.33569e-07
-9.56533e-07
-4.60515e-07
-7.16538e-07
-3.17517e-07
-4.75815e-07
-2.06483e-07
-2.47333e-07
-1.26193e-07
-4.34375e-08
-7.26141e-08
1.25851e-07
-3.96761e-08
2.53202e-07
-1.95508e-08
3.26344e-07
-7.51294e-09
3.28818e-07
1.79417e-07
-2.88032e-09
-1.9126e-07
-3.33359e-08
-2.03765e-07
-7.84638e-08
-1.23477e-07
-1.32814e-07
-3.01428e-08
-1.95638e-07
6.70891e-08
-2.67714e-07
1.66511e-07
-3.50137e-07
2.67366e-07
-4.43968e-07
3.6913e-07
-5.49967e-07
4.71594e-07
-6.68442e-07
5.74856e-07
-7.99071e-07
6.79017e-07
-9.40828e-07
7.83807e-07
-1.09155e-06
8.87858e-07
-1.24769e-06
9.88315e-07
-1.40468e-06
1.08119e-06
-1.55742e-06
1.16194e-06
-1.70174e-06
1.22696e-06
-1.83507e-06
1.27452e-06
-1.95616e-06
1.30437e-06
-2.065e-06
1.31758e-06
-2.1623e-06
1.31619e-06
-2.24898e-06
1.30219e-06
-2.32596e-06
1.27755e-06
-2.39403e-06
1.24398e-06
-2.45386e-06
1.20293e-06
-2.50603e-06
1.15573e-06
-2.55103e-06
1.1035e-06
-2.58936e-06
1.04728e-06
-2.6215e-06
9.87954e-07
-2.64796e-06
9.26328e-07
-2.66922e-06
8.63082e-07
-2.68576e-06
7.98776e-07
-2.69806e-06
7.33861e-07
-2.70662e-06
6.68703e-07
-2.71192e-06
6.03579e-07
-2.71441e-06
5.38702e-07
-2.71448e-06
4.7417e-07
-2.71248e-06
4.09984e-07
-2.70872e-06
3.4613e-07
-2.70345e-06
2.82506e-07
-2.6969e-06
2.18937e-07
-2.68928e-06
1.55235e-07
-2.68079e-06
9.11372e-08
-2.67162e-06
2.63583e-08
-2.66196e-06
-3.9411e-08
-2.65195e-06
-1.0653e-07
-2.64179e-06
-1.75407e-07
-2.63168e-06
-2.46459e-07
-2.62177e-06
-3.20142e-07
-2.61223e-06
-3.96922e-07
-2.60316e-06
-4.77279e-07
-2.5946e-06
-5.617e-07
-2.58653e-06
-6.50655e-07
-2.57879e-06
-7.44549e-07
-2.57101e-06
-8.43665e-07
-2.5625e-06
-9.48113e-07
-2.55212e-06
-1.05779e-06
-2.53843e-06
-1.1722e-06
-2.51916e-06
-1.29015e-06
-2.49116e-06
-1.4098e-06
-2.45152e-06
-1.52824e-06
-2.39692e-06
-1.64061e-06
-2.32269e-06
-1.74297e-06
-2.21881e-06
-1.82725e-06
-2.0793e-06
-1.88193e-06
-1.90619e-06
-1.89339e-06
-1.70491e-06
-1.8556e-06
-1.48117e-06
-1.76512e-06
-1.24365e-06
-1.61966e-06
-1.00413e-06
-1.42256e-06
-7.77065e-07
-1.1836e-06
-5.74142e-07
-9.19461e-07
-4.01984e-07
-6.47974e-07
-2.64462e-07
-3.84855e-07
-1.62128e-07
-1.45772e-07
-9.1953e-08
5.56768e-08
-4.76103e-08
2.08859e-07
-2.0922e-08
2.99655e-07
-5.75129e-09
3.13647e-07
1.73666e-07
-1.55708e-08
-1.7569e-07
-6.09096e-08
-1.58426e-07
-1.19137e-07
-6.52502e-08
-1.85623e-07
3.63429e-08
-2.60183e-07
1.41649e-07
-3.43773e-07
2.50101e-07
-4.3749e-07
3.61084e-07
-5.42181e-07
4.7382e-07
-6.58234e-07
5.87647e-07
-7.85446e-07
7.02067e-07
-9.22969e-07
8.1654e-07
-1.06888e-06
9.29713e-07
-1.2199e-06
1.03889e-06
-1.37178e-06
1.14019e-06
-1.51975e-06
1.22916e-06
-1.65975e-06
1.30194e-06
-1.78909e-06
1.3563e-06
-1.90636e-06
1.3918e-06
-2.01135e-06
1.40935e-06
-2.1047e-06
1.41093e-06
-2.18726e-06
1.39876e-06
-2.25991e-06
1.37484e-06
-2.32339e-06
1.34103e-06
-2.37832e-06
1.29891e-06
-2.42528e-06
1.2499e-06
-2.46482e-06
1.19527e-06
-2.49749e-06
1.13617e-06
-2.52387e-06
1.07365e-06
-2.54454e-06
1.00863e-06
-2.56011e-06
9.419e-07
-2.57117e-06
8.74143e-07
-2.5783e-06
8.05904e-07
-2.58205e-06
7.37613e-07
-2.58295e-06
6.69595e-07
-2.58144e-06
6.02076e-07
-2.57794e-06
5.35197e-07
-2.57276e-06
4.68994e-07
-2.56622e-06
4.03436e-07
-2.55854e-06
3.38456e-07
-2.54995e-06
2.73911e-07
-2.54062e-06
2.09612e-07
-2.53073e-06
1.45349e-07
-2.52046e-06
8.08592e-08
-2.50996e-06
1.58609e-08
-2.49941e-06
-4.99636e-08
-2.48897e-06
-1.16961e-07
-2.47886e-06
-1.85519e-07
-2.46928e-06
-2.56045e-07
-2.46043e-06
-3.28984e-07
-2.45255e-06
-4.04802e-07
-2.44584e-06
-4.83992e-07
-2.44047e-06
-5.67067e-07
-2.43659e-06
-6.54544e-07
-2.43422e-06
-7.46911e-07
-2.43329e-06
-8.44597e-07
-2.43347e-06
-9.47934e-07
-2.43417e-06
-1.0571e-06
-2.4344e-06
-1.17196e-06
-2.43256e-06
-1.29199e-06
-2.42629e-06
-1.41607e-06
-2.41242e-06
-1.54211e-06
-2.38621e-06
-1.66683e-06
-2.34375e-06
-1.78543e-06
-2.27952e-06
-1.89147e-06
-2.18499e-06
-1.97645e-06
-2.05026e-06
-2.02812e-06
-1.87555e-06
-2.03032e-06
-1.66638e-06
-1.97428e-06
-1.43087e-06
-1.85518e-06
-1.18043e-06
-1.673e-06
-9.29811e-07
-1.43422e-06
-6.96173e-07
-1.1531e-06
-4.92454e-07
-8.51693e-07
-3.25206e-07
-5.52103e-07
-1.97213e-07
-2.73766e-07
-1.07091e-07
-3.44451e-08
-4.94761e-08
1.51245e-07
-1.67305e-08
2.6691e-07
-1.31292e-09
2.9823e-07
1.72353e-07
-2.84777e-08
-1.47212e-07
-8.76506e-08
-9.92534e-08
-1.5811e-07
5.20918e-09
-2.35869e-07
1.14102e-07
-3.21216e-07
2.26996e-07
-4.15166e-07
3.44052e-07
-5.18702e-07
4.6462e-07
-6.32379e-07
5.87497e-07
-7.56159e-07
7.11427e-07
-8.89392e-07
8.35301e-07
-1.03041e-06
9.57558e-07
-1.17632e-06
1.07563e-06
-1.32327e-06
1.18584e-06
-1.46689e-06
1.2838e-06
-1.60319e-06
1.36546e-06
-1.72926e-06
1.42801e-06
-1.84348e-06
1.47052e-06
-1.94542e-06
1.49374e-06
-2.03554e-06
1.49947e-06
-2.11466e-06
1.49005e-06
-2.18357e-06
1.46766e-06
-2.24299e-06
1.43426e-06
-2.29356e-06
1.39159e-06
-2.33586e-06
1.34121e-06
-2.3705e-06
1.28454e-06
-2.39812e-06
1.22289e-06
-2.41939e-06
1.15744e-06
-2.435e-06
1.08927e-06
-2.44567e-06
1.01929e-06
-2.45207e-06
9.48302e-07
-2.45486e-06
8.76931e-07
-2.45463e-06
8.05676e-07
-2.45193e-06
7.34908e-07
-2.44721e-06
6.64881e-07
-2.44089e-06
5.9575e-07
-2.43327e-06
5.27579e-07
-2.42462e-06
4.60349e-07
-2.41517e-06
3.93985e-07
-2.40509e-06
3.28374e-07
-2.39453e-06
2.63351e-07
-2.38363e-06
1.98709e-07
-2.3725e-06
1.34222e-07
-2.36128e-06
6.96364e-08
-2.3501e-06
4.68065e-09
-2.33909e-06
-6.09664e-08
-2.32844e-06
-1.27618e-07
-2.31832e-06
-1.95639e-07
-2.30895e-06
-2.65413e-07
-2.30057e-06
-3.3736e-07
-2.29345e-06
-4.11925e-07
-2.28785e-06
-4.89591e-07
-2.28405e-06
-5.70871e-07
-2.28229e-06
-6.563e-07
-2.28278e-06
-7.4642e-07
-2.28562e-06
-8.41757e-07
-2.29076e-06
-9.42791e-07
-2.29796e-06
-1.0499e-06
-2.30664e-06
-1.16328e-06
-2.3158e-06
-1.28283e-06
-2.32388e-06
-1.40799e-06
-2.32844e-06
-1.53755e-06
-2.32593e-06
-1.66934e-06
-2.31155e-06
-1.79982e-06
-2.27944e-06
-1.92358e-06
-2.22341e-06
-2.03248e-06
-2.13393e-06
-2.1176e-06
-2.00097e-06
-2.16327e-06
-1.82209e-06
-2.15316e-06
-1.60267e-06
-2.0746e-06
-1.35378e-06
-1.92188e-06
-1.09021e-06
-1.69779e-06
-8.30299e-07
-1.41301e-06
-5.94044e-07
-1.08795e-06
-3.94689e-07
-7.51457e-07
-2.37977e-07
-4.30478e-07
-1.24875e-07
-1.47547e-07
-5.15439e-08
7.79133e-08
-1.15542e-08
2.2692e-07
3.68379e-09
2.82992e-07
1.76036e-07
-4.0902e-08
-1.0631e-07
-1.12685e-07
-2.74702e-08
-1.94116e-07
8.66396e-08
-2.82131e-07
2.02118e-07
-3.77063e-07
3.21927e-07
-4.79945e-07
4.46934e-07
-5.91572e-07
5.76247e-07
-7.12151e-07
7.08076e-07
-8.41287e-07
8.40563e-07
-9.77597e-07
9.71611e-07
-1.11861e-06
1.09857e-06
-1.26095e-06
1.21797e-06
-1.40061e-06
1.3255e-06
-1.53378e-06
1.41696e-06
-1.65732e-06
1.489e-06
-1.76928e-06
1.53997e-06
-1.869e-06
1.57024e-06
-1.95672e-06
1.58146e-06
-2.03315e-06
1.57591e-06
-2.09908e-06
1.55597e-06
-2.15518e-06
1.52377e-06
-2.20213e-06
1.4812e-06
-2.24054e-06
1.43001e-06
-2.27108e-06
1.37176e-06
-2.29449e-06
1.30794e-06
-2.31151e-06
1.23992e-06
-2.32297e-06
1.16889e-06
-2.32964e-06
1.09594e-06
-2.3323e-06
1.02195e-06
-2.33164e-06
9.47651e-07
-2.32832e-06
8.73609e-07
-2.32289e-06
8.00239e-07
-2.31581e-06
7.27828e-07
-2.30747e-06
6.56545e-07
-2.29819e-06
5.86465e-07
-2.28819e-06
5.17585e-07
-2.27767e-06
4.4983e-07
-2.26677e-06
3.83085e-07
-2.2556e-06
3.17198e-07
-2.24423e-06
2.51988e-07
-2.23276e-06
1.87236e-07
-2.22124e-06
1.22706e-07
-2.20977e-06
5.81606e-08
-2.19843e-06
-6.65682e-09
-2.18734e-06
-7.20568e-08
-2.17664e-06
-1.38316e-07
-2.16651e-06
-2.05768e-07
-2.15717e-06
-2.74762e-07
-2.14884e-06
-3.4568e-07
-2.14184e-06
-4.18932e-07
-2.13646e-06
-4.94972e-07
-2.13304e-06
-5.74291e-07
-2.13192e-06
-6.57419e-07
-2.13342e-06
-7.44921e-07
-2.13779e-06
-8.3738e-07
-2.14521e-06
-9.35378e-07
-2.15566e-06
-1.03945e-06
-2.1689e-06
-1.15004e-06
-2.18435e-06
-1.26737e-06
-2.20097e-06
-1.39137e-06
-2.21706e-06
-1.52146e-06
-2.23009e-06
-1.65631e-06
-2.23637e-06
-1.79354e-06
-2.23075e-06
-1.9292e-06
-2.20612e-06
-2.05711e-06
-2.15532e-06
-2.16841e-06
-2.06764e-06
-2.25095e-06
-1.93255e-06
-2.28826e-06
-1.74601e-06
-2.26114e-06
-1.5139e-06
-2.15399e-06
-1.2506e-06
-1.96109e-06
-9.74882e-07
-1.68873e-06
-7.0953e-07
-1.3533e-06
-4.76809e-07
-9.84178e-07
-2.8916e-07
-6.18127e-07
-1.50474e-07
-2.86233e-07
-5.89687e-08
-1.35916e-08
-9.49968e-09
1.77451e-07
7.33543e-09
2.66157e-07
1.83372e-07
-5.23036e-08
-5.40063e-08
-1.35076e-07
5.53025e-08
-2.26351e-07
1.77914e-07
-3.23284e-07
2.99051e-07
-4.26377e-07
4.25021e-07
-5.36564e-07
5.57121e-07
-6.54398e-07
6.94081e-07
-7.79811e-07
8.3349e-07
-9.11763e-07
9.72514e-07
-1.04817e-06
1.10801e-06
-1.18624e-06
1.23664e-06
-1.32235e-06
1.35408e-06
-1.45284e-06
1.456e-06
-1.57451e-06
1.53863e-06
-1.68503e-06
1.59952e-06
-1.7834e-06
1.63834e-06
-1.86962e-06
1.65646e-06
-1.94425e-06
1.65609e-06
-2.00805e-06
1.6397e-06
-2.06172e-06
1.60964e-06
-2.10592e-06
1.56798e-06
-2.14135e-06
1.51663e-06
-2.16872e-06
1.45738e-06
-2.18884e-06
1.39188e-06
-2.20258e-06
1.32168e-06
-2.21081e-06
1.24815e-06
-2.21441e-06
1.1725e-06
-2.21423e-06
1.09575e-06
-2.21101e-06
1.01873e-06
-2.20543e-06
9.42073e-07
-2.19807e-06
8.66245e-07
-2.18939e-06
7.91565e-07
-2.17979e-06
7.18224e-07
-2.16955e-06
6.46303e-07
-2.15888e-06
5.75801e-07
-2.14795e-06
5.06651e-07
-2.13685e-06
4.38732e-07
-2.12566e-06
3.71892e-07
-2.11441e-06
3.05948e-07
-2.10313e-06
2.40706e-07
-2.09184e-06
1.75953e-07
-2.08058e-06
1.11439e-07
-2.06936e-06
4.69493e-08
-2.05827e-06
-1.77555e-08
-2.04737e-06
-8.29517e-08
-2.03679e-06
-1.48894e-07
-2.02669e-06
-2.15872e-07
-2.01726e-06
-2.84194e-07
-2.00874e-06
-3.54194e-07
-2.00143e-06
-4.26241e-07
-1.99567e-06
-5.0074e-07
-1.99181e-06
-5.78145e-07
-1.99027e-06
-6.58962e-07
-1.99144e-06
-7.43748e-07
-1.99571e-06
-8.33107e-07
-2.00341e-06
-9.27685e-07
-2.01473e-06
-1.02813e-06
-2.0297e-06
-1.13507e-06
-2.04807e-06
-1.249e-06