/*--------------------------------*- C++ -*----------------------------------*\
  =========                 |
  \\      /  F ield         | OpenFOAM: The Open Source CFD Toolbox
   \\    /   O peration     | Website:  https://openfoam.org
    \\  /    A nd           | Version:  13
     \\/     M anipulation  |
\*---------------------------------------------------------------------------*/
FoamFile
{
    format      ascii;
    class       volVectorField;
    location    "4";
    object      U;
}
// * * * * * * * * * * * * * * * * * * * * * * * * * * * * * * * * * * * * * //

dimensions      [0 1 -1 0 0 0 0];

internalField   nonuniform List<vector> 
6400
(
(-8.19941e-05 5.07133e-05 0)
(0.000442013 -0.000156555 0)
(0.00182944 -0.000356091 0)
(0.00363577 -0.000441721 0)
(0.00544068 -0.000393318 0)
(0.0069657 -0.000274589 0)
(0.0080187 -0.000132105 0)
(0.00859586 -2.30275e-05 0)
(0.00880222 2.14204e-05 0)
(0.00878419 8.06176e-06 0)
(0.0086952 -4.32488e-05 0)
(0.00861658 -0.000122608 0)
(0.00861802 -0.00020344 0)
(0.00869849 -0.000275313 0)
(0.00882216 -0.00033554 0)
(0.00893708 -0.000384146 0)
(0.00898286 -0.000418405 0)
(0.00892869 -0.00042475 0)
(0.0087302 -0.000414355 0)
(0.00831281 -0.000386219 0)
(0.00764044 -0.000348875 0)
(0.00665924 -0.000309276 0)
(0.00533098 -0.000270125 0)
(0.00363176 -0.000247419 0)
(0.00153334 -0.000272705 0)
(-0.000959653 -0.000356246 0)
(-0.00381692 -0.00043138 0)
(-0.00723251 -0.000366429 0)
(-0.0113112 -6.51382e-05 0)
(-0.0160753 0.000523624 0)
(-0.0219575 0.00132383 0)
(-0.0288022 0.00211745 0)
(-0.0363201 0.00280345 0)
(-0.0443335 0.00336875 0)
(-0.052616 0.00379804 0)
(-0.0609655 0.00409062 0)
(-0.0691951 0.00425491 0)
(-0.0771514 0.00430656 0)
(-0.0847039 0.00426175 0)
(-0.0917506 0.00413679 0)
(-0.0982032 0.00394479 0)
(-0.103991 0.00369443 0)
(-0.109054 0.00339152 0)
(-0.113347 0.00303676 0)
(-0.116836 0.00263263 0)
(-0.119495 0.00219162 0)
(-0.121137 0.00176603 0)
(-0.12184 0.00137434 0)
(-0.121792 0.00073154 0)
(-0.120424 0.000209454 0)
(-0.118182 -0.000428424 0)
(-0.114718 -0.00103728 0)
(-0.110213 -0.00167214 0)
(-0.104543 -0.00228466 0)
(-0.0977988 -0.00287879 0)
(-0.0899948 -0.0034468 0)
(-0.0812849 -0.00400348 0)
(-0.0716229 -0.0044882 0)
(-0.0612355 -0.00490164 0)
(-0.0502522 -0.00520276 0)
(-0.0389027 -0.00536031 0)
(-0.0274303 -0.00533747 0)
(-0.0161219 -0.00512108 0)
(-0.00519565 -0.00470874 0)
(0.00483881 -0.00419105 0)
(0.0136592 -0.00339731 0)
(0.0211114 -0.00245145 0)
(0.0268518 -0.00139514 0)
(0.0306858 -0.000297773 0)
(0.0324638 0.000935974 0)
(0.0320091 0.00169549 0)
(0.0299521 0.00231055 0)
(0.0258026 0.00267643 0)
(0.0205889 0.00257925 0)
(0.0149799 0.00208427 0)
(0.00975145 0.00136504 0)
(0.00544404 0.000698749 0)
(0.00229563 0.00023414 0)
(0.00044227 -7.80522e-05 0)
(-0.000173786 -0.000280124 0)
(4.0463e-05 -0.000394289 0)
(0.00160194 -0.0018194 0)
(0.00449106 -0.00296374 0)
(0.00774477 -0.00335969 0)
(0.0107748 -0.00306831 0)
(0.0132207 -0.00238171 0)
(0.0149271 -0.00153638 0)
(0.0159059 -0.000758463 0)
(0.0162661 -0.000194558 0)
(0.0161252 0.000127093 0)
(0.015665 0.000236826 0)
(0.0149773 0.000211674 0)
(0.0141472 0.000135043 0)
(0.0131664 8.75963e-05 0)
(0.0119801 0.000117299 0)
(0.0105111 0.000236895 0)
(0.00868697 0.000434504 0)
(0.00645977 0.000701926 0)
(0.00373034 0.00105602 0)
(0.000412308 0.00150963 0)
(-0.00358863 0.0020671 0)
(-0.00844389 0.00273517 0)
(-0.0142646 0.00349716 0)
(-0.0211102 0.00433124 0)
(-0.0290337 0.00524367 0)
(-0.0380953 0.00626408 0)
(-0.0482977 0.00740816 0)
(-0.0593919 0.00865593 0)
(-0.0711075 0.00999856 0)
(-0.0830503 0.0113429 0)
(-0.0947398 0.0124773 0)
(-0.106123 0.013297 0)
(-0.11708 0.0137816 0)
(-0.127462 0.0139349 0)
(-0.137164 0.0137851 0)
(-0.146112 0.0133788 0)
(-0.154247 0.0127556 0)
(-0.161534 0.0119573 0)
(-0.167943 0.0110176 0)
(-0.173462 0.00996673 0)
(-0.178073 0.00882628 0)
(-0.181766 0.00760985 0)
(-0.184535 0.00632973 0)
(-0.186366 0.00499218 0)
(-0.187255 0.00360562 0)
(-0.187186 0.00217699 0)
(-0.186125 0.000715522 0)
(-0.184072 -0.000800377 0)
(-0.181032 -0.00240743 0)
(-0.176925 -0.00406081 0)
(-0.171815 -0.00576027 0)
(-0.165626 -0.00748709 0)
(-0.158393 -0.00922397 0)
(-0.150083 -0.0109485 0)
(-0.140719 -0.0126273 0)
(-0.130313 -0.0142238 0)
(-0.118909 -0.0156817 0)
(-0.106642 -0.0169752 0)
(-0.0936068 -0.0180327 0)
(-0.0799916 -0.018788 0)
(-0.0660029 -0.0191824 0)
(-0.0518609 -0.0191499 0)
(-0.0378271 -0.0186492 0)
(-0.0241849 -0.0176558 0)
(-0.0112621 -0.0161984 0)
(0.000659571 -0.0141979 0)
(0.0113127 -0.0117447 0)
(0.0204183 -0.0088932 0)
(0.0277507 -0.0057537 0)
(0.0331358 -0.00244035 0)
(0.0364629 0.000800999 0)
(0.0376416 0.00379384 0)
(0.0366478 0.00638094 0)
(0.0336437 0.00827767 0)
(0.0288562 0.00895157 0)
(0.0224769 0.00853219 0)
(0.0153854 0.0071351 0)
(0.00866327 0.00511503 0)
(0.00338182 0.00272317 0)
(0.00030026 0.000580643 0)
(0.000192745 -0.00149083 0)
(0.00271747 -0.00461375 0)
(0.00635137 -0.00646752 0)
(0.00981982 -0.00673183 0)
(0.0127027 -0.00586107 0)
(0.0148089 -0.00439076 0)
(0.0161474 -0.00278953 0)
(0.0167648 -0.00133332 0)
(0.0167285 -0.000168278 0)
(0.0161078 0.000642601 0)
(0.0150217 0.00112859 0)
(0.0135265 0.00140489 0)
(0.0116379 0.00161458 0)
(0.00932495 0.00188857 0)
(0.00651477 0.00231192 0)
(0.00312377 0.00290955 0)
(-0.000952451 0.00367921 0)
(-0.00585121 0.0046334 0)
(-0.0116776 0.0057948 0)
(-0.018537 0.00719472 0)
(-0.0265107 0.00884714 0)
(-0.0356025 0.0107077 0)
(-0.0457989 0.0127177 0)
(-0.057023 0.0147927 0)
(-0.0690925 0.01682 0)
(-0.0817584 0.0187072 0)
(-0.0947218 0.020387 0)
(-0.107679 0.0217886 0)
(-0.120357 0.0228612 0)
(-0.132484 0.0235709 0)
(-0.14387 0.0239032 0)
(-0.154415 0.0238529 0)
(-0.164042 0.0234387 0)
(-0.172748 0.0227022 0)
(-0.180552 0.0216694 0)
(-0.187467 0.0203872 0)
(-0.193516 0.0189039 0)
(-0.198723 0.0172591 0)
(-0.203108 0.0154827 0)
(-0.20668 0.0136015 0)
(-0.209454 0.0116424 0)
(-0.211437 0.00961097 0)
(-0.212628 0.00751711 0)
(-0.213024 0.00536423 0)
(-0.212615 0.00315041 0)
(-0.211389 0.000875473 0)
(-0.209329 -0.00146889 0)
(-0.206398 -0.00389367 0)
(-0.202583 -0.00639799 0)
(-0.197855 -0.00895453 0)
(-0.192194 -0.011574 0)
(-0.185568 -0.0142316 0)
(-0.177965 -0.0169075 0)
(-0.169371 -0.01957 0)
(-0.15979 -0.0221772 0)
(-0.149235 -0.0246722 0)
(-0.137744 -0.02698 0)
(-0.125401 -0.0290239 0)
(-0.112289 -0.0307085 0)
(-0.0985402 -0.0319389 0)
(-0.0843459 -0.0326152 0)
(-0.0699207 -0.0326466 0)
(-0.0555024 -0.0319567 0)
(-0.0413857 -0.0305206 0)
(-0.0278701 -0.0283334 0)
(-0.0152198 -0.0253917 0)
(-0.00367382 -0.0217478 0)
(0.0065087 -0.0174888 0)
(0.015127 -0.01276 0)
(0.0220564 -0.00773412 0)
(0.0271708 -0.00263803 0)
(0.030498 0.00231796 0)
(0.0319375 0.00681004 0)
(0.0313415 0.0104748 0)
(0.0288074 0.01319 0)
(0.024659 0.0143535 0)
(0.0188968 0.0139397 0)
(0.0123002 0.0119127 0)
(0.00587001 0.00829289 0)
(0.000806477 0.00336079 0)
(0.000360128 -0.00314627 0)
(0.00356154 -0.00810211 0)
(0.00731438 -0.0101175 0)
(0.0103904 -0.00975752 0)
(0.0126344 -0.00805557 0)
(0.0140329 -0.00579188 0)
(0.0146623 -0.00344958 0)
(0.0145949 -0.00131627 0)
(0.0138873 0.000450828 0)
(0.012589 0.00179638 0)
(0.0106934 0.0027908 0)
(0.00817897 0.00358411 0)
(0.00500416 0.00435273 0)
(0.00110969 0.00525123 0)
(-0.00356795 0.00637543 0)
(-0.00911597 0.00777304 0)
(-0.0156409 0.00946415 0)
(-0.0232481 0.0114539 0)
(-0.0320121 0.013743 0)
(-0.0419607 0.0163155 0)
(-0.0530473 0.019109 0)
(-0.0651293 0.0220035 0)
(-0.0779851 0.0248637 0)
(-0.0913233 0.0275442 0)
(-0.10484 0.029925 0)
(-0.118262 0.0318993 0)
(-0.131297 0.0333343 0)
(-0.143688 0.034199 0)
(-0.155238 0.0345369 0)
(-0.165845 0.0343928 0)
(-0.175482 0.0338207 0)
(-0.184157 0.0328601 0)
(-0.19191 0.0315437 0)
(-0.19879 0.0299221 0)
(-0.204845 0.0280439 0)
(-0.21012 0.0259534 0)
(-0.214666 0.0236905 0)
(-0.218509 0.0212879 0)
(-0.221675 0.018776 0)
(-0.224182 0.0161729 0)
(-0.226038 0.013494 0)
(-0.227251 0.0107459 0)
(-0.227814 0.00792902 0)
(-0.227718 0.00504086 0)
(-0.226948 0.00207669 0)
(-0.225488 -0.00096741 0)
(-0.223306 -0.00410173 0)
(-0.220371 -0.00732633 0)
(-0.21666 -0.0106572 0)
(-0.212139 -0.0140833 0)
(-0.206774 -0.017601 0)
(-0.200526 -0.0211842 0)
(-0.193366 -0.0248052 0)
(-0.185271 -0.0284267 0)
(-0.176224 -0.0319969 0)
(-0.166216 -0.035439 0)
(-0.155258 -0.0386517 0)
(-0.143393 -0.0415268 0)
(-0.130691 -0.0439522 0)
(-0.117247 -0.0457757 0)
(-0.103204 -0.0468517 0)
(-0.0887618 -0.0470632 0)
(-0.0741295 -0.0462878 0)
(-0.0595924 -0.0444598 0)
(-0.0454802 -0.0415665 0)
(-0.0321204 -0.0376822 0)
(-0.019759 -0.0328551 0)
(-0.00863865 -0.0272081 0)
(0.00102791 -0.0209298 0)
(0.00909384 -0.0142577 0)
(0.015456 -0.00745752 0)
(0.0200898 -0.00077118 0)
(0.0230069 0.00551157 0)
(0.024275 0.0110219 0)
(0.0237883 0.0153576 0)
(0.0214958 0.0182267 0)
(0.0176078 0.0191909 0)
(0.0124311 0.0179889 0)
(0.00654851 0.0142709 0)
(0.00101083 0.00701155 0)
(0.000563355 -0.00523183 0)
(0.00408787 -0.0117936 0)
(0.00742905 -0.0133874 0)
(0.0097595 -0.0121047 0)
(0.0111642 -0.00947144 0)
(0.0117025 -0.00638869 0)
(0.0114915 -0.00332368 0)
(0.010598 -0.000533184 0)
(0.00904428 0.0018588 0)
(0.00681543 0.00384677 0)
(0.00385801 0.00552571 0)
(9.93032e-05 0.00706224 0)
(-0.0045378 0.00864314 0)
(-0.0101294 0.0104268 0)
(-0.0167482 0.0125195 0)
(-0.024466 0.0149772 0)
(-0.033346 0.017816 0)
(-0.0434179 0.0210098 0)
(-0.0546457 0.0244931 0)
(-0.0669082 0.0281649 0)
(-0.0799843 0.0318573 0)
(-0.0935742 0.0353675 0)
(-0.107378 0.0385792 0)
(-0.121075 0.041299 0)
(-0.134367 0.0433407 0)
(-0.146939 0.0446694 0)
(-0.15859 0.0453079 0)
(-0.169275 0.0452889 0)
(-0.178974 0.0446861 0)
(-0.18773 0.04359 0)
(-0.195591 0.0420794 0)
(-0.202619 0.0402236 0)
(-0.208877 0.0380745 0)
(-0.214415 0.0356804 0)
(-0.219282 0.0330813 0)
(-0.223525 0.0303118 0)
(-0.22718 0.027405 0)
(-0.230271 0.0243879 0)
(-0.232818 0.0212756 0)
(-0.234834 0.0180834 0)
(-0.23632 0.0148229 0)
(-0.237282 0.0114888 0)
(-0.237711 0.00807761 0)
(-0.237597 0.00457858 0)
(-0.236923 0.000981092 0)
(-0.235678 -0.00272299 0)
(-0.233817 -0.00654422 0)
(-0.231309 -0.0104896 0)
(-0.228117 -0.0145653 0)
(-0.224203 -0.0187711 0)
(-0.219547 -0.0231153 0)
(-0.214086 -0.0275711 0)
(-0.207768 -0.0321 0)
(-0.200554 -0.0366601 0)
(-0.192409 -0.0411946 0)
(-0.1833 -0.0456142 0)
(-0.173207 -0.0497944 0)
(-0.162127 -0.0535943 0)
(-0.150111 -0.0568793 0)
(-0.137212 -0.0594534 0)
(-0.123528 -0.0611308 0)
(-0.109227 -0.0617467 0)
(-0.0945005 -0.0611256 0)
(-0.0795989 -0.0591593 0)
(-0.0647972 -0.0557861 0)
(-0.0505043 -0.0510648 0)
(-0.0370983 -0.0451384 0)
(-0.0248187 -0.0381562 0)
(-0.0139153 -0.0303562 0)
(-0.00458105 -0.0220335 0)
(0.0030551 -0.0135183 0)
(0.00894896 -0.00512951 0)
(0.0131338 0.00281256 0)
(0.0156825 0.00997274 0)
(0.0166375 0.015992 0)
(0.0160134 0.0204398 0)
(0.0138449 0.0228544 0)
(0.0103048 0.0228385 0)
(0.00568847 0.0196102 0)
(0.000831214 0.0105202 0)
(0.0007887 -0.00761002 0)
(0.00423087 -0.0152083 0)
(0.00677327 -0.0158452 0)
(0.00812322 -0.0135463 0)
(0.0085807 -0.0099654 0)
(0.00819059 -0.00609127 0)
(0.00707071 -0.00231829 0)
(0.00525199 0.0011517 0)
(0.00271435 0.00424299 0)
(-0.000602657 0.00698885 0)
(-0.00478852 0.00951012 0)
(-0.00993925 0.0119813 0)
(-0.0161422 0.0145835 0)
(-0.02347 0.0174639 0)
(-0.0319744 0.0207154 0)
(-0.0416781 0.0243724 0)
(-0.0525625 0.0284096 0)
(-0.0645376 0.0327324 0)
(-0.0774387 0.0371892 0)
(-0.0909855 0.0415666 0)
(-0.104844 0.0457055 0)
(-0.118727 0.0493485 0)
(-0.132256 0.0522579 0)
(-0.145031 0.0543439 0)
(-0.156871 0.0555615 0)
(-0.167698 0.0559355 0)
(-0.177537 0.0555656 0)
(-0.18645 0.0545702 0)
(-0.194494 0.0530561 0)
(-0.201745 0.0511173 0)
(-0.208257 0.0488267 0)
(-0.214087 0.046247 0)
(-0.219291 0.043426 0)
(-0.223912 0.0404064 0)
(-0.227993 0.0372237 0)
(-0.231567 0.0339046 0)
(-0.234658 0.0304745 0)
(-0.237289 0.026955 0)
(-0.239476 0.0233582 0)
(-0.241222 0.0196912 0)
(-0.242529 0.0159591 0)
(-0.243406 0.0121471 0)
(-0.243844 0.00824998 0)
(-0.243839 0.00425178 0)
(-0.243376 0.000132826 0)
(-0.242457 -0.00413421 0)
(-0.241062 -0.0085535 0)
(-0.23916 -0.0131415 0)
(-0.236713 -0.0179023 0)
(-0.233654 -0.022822 0)
(-0.229945 -0.0279139 0)
(-0.225529 -0.0331676 0)
(-0.220337 -0.0385395 0)
(-0.214279 -0.043969 0)
(-0.207295 -0.0493978 0)
(-0.199366 -0.0547663 0)
(-0.190462 -0.0599611 0)
(-0.180474 -0.0647634 0)
(-0.169435 -0.0690277 0)
(-0.157364 -0.0725241 0)
(-0.144289 -0.0750064 0)
(-0.130357 -0.0762772 0)
(-0.1157 -0.0760955 0)
(-0.100583 -0.0743079 0)
(-0.0852536 -0.0707713 0)
(-0.0700295 -0.0654806 0)
(-0.0554049 -0.0586189 0)
(-0.0417746 -0.0504104 0)
(-0.0294127 -0.0411421 0)
(-0.0185859 -0.0311709 0)
(-0.00948186 -0.0209071 0)
(-0.00219223 -0.0107611 0)
(0.00329374 -0.00112555 0)
(0.00706773 0.00764189 0)
(0.00925569 0.0151929 0)
(0.0099545 0.0211306 0)
(0.00921558 0.0249691 0)
(0.00712058 0.0261726 0)
(0.0040458 0.0236998 0)
(0.000461382 0.0133053 0)
(0.000978385 -0.0100838 0)
(0.00393751 -0.0179178 0)
(0.00535928 -0.017338 0)
(0.00571345 -0.013938 0)
(0.005135 -0.00947603 0)
(0.00377544 -0.00484464 0)
(0.00168967 -0.000356594 0)
(-0.00113445 0.00384481 0)
(-0.00475661 0.00772937 0)
(-0.00926673 0.0113587 0)
(-0.0147669 0.0148654 0)
(-0.021353 0.0184184 0)
(-0.0291008 0.0221796 0)
(-0.038055 0.0262678 0)
(-0.0482165 0.0307355 0)
(-0.0595302 0.0355583 0)
(-0.0718765 0.0406612 0)
(-0.0850508 0.0458447 0)
(-0.0987291 0.0508779 0)
(-0.112602 0.0555429 0)
(-0.126283 0.0595235 0)
(-0.139337 0.0626272 0)
(-0.151463 0.0647234 0)
(-0.162567 0.0658181 0)
(-0.172678 0.0659999 0)
(-0.181834 0.0653898 0)
(-0.190118 0.0641192 0)
(-0.197603 0.0622974 0)
(-0.204363 0.0600286 0)
(-0.210461 0.0573956 0)
(-0.215941 0.0544661 0)
(-0.220856 0.0512949 0)
(-0.225244 0.0479241 0)
(-0.229143 0.0443911 0)
(-0.232583 0.0407281 0)
(-0.235589 0.0369624 0)
(-0.238175 0.0331199 0)
(-0.240355 0.0292193 0)
(-0.24214 0.025256 0)
(-0.243613 0.0211557 0)
(-0.244721 0.0170136 0)
(-0.245477 0.0127907 0)
(-0.245869 0.00848592 0)
(-0.245892 0.00408233 0)
(-0.245537 -0.000438466 0)
(-0.244784 -0.00510077 0)
(-0.243659 -0.00991907 0)
(-0.24214 -0.0149237 0)
(-0.24022 -0.0201421 0)
(-0.237896 -0.0256099 0)
(-0.235108 -0.0313268 0)
(-0.23184 -0.0373278 0)
(-0.228032 -0.043553 0)
(-0.223562 -0.0499192 0)
(-0.218311 -0.0563712 0)
(-0.212123 -0.0627908 0)
(-0.204859 -0.0690287 0)
(-0.196404 -0.0748567 0)
(-0.186749 -0.0801577 0)
(-0.175978 -0.0847591 0)
(-0.163944 -0.0882708 0)
(-0.150808 -0.0904776 0)
(-0.136597 -0.0910263 0)
(-0.121566 -0.0897431 0)
(-0.105934 -0.0864105 0)
(-0.0900138 -0.0809468 0)
(-0.0742272 -0.0734163 0)
(-0.0591429 -0.0641504 0)
(-0.0451791 -0.0535091 0)
(-0.0326628 -0.0419032 0)
(-0.0218709 -0.0298305 0)
(-0.0129789 -0.0178148 0)
(-0.00603886 -0.00635865 0)
(-0.000980377 0.00410094 0)
(0.00237137 0.0131963 0)
(0.00420539 0.0205665 0)
(0.00466295 0.0257472 0)
(0.00386292 0.028128 0)
(0.00213759 0.0263208 0)
(3.90448e-05 0.0149401 0)
(0.00106458 -0.0123869 0)
(0.00310892 -0.0196493 0)
(0.00343268 -0.0177532 0)
(0.0026806 -0.0132338 0)
(0.0010593 -0.00797483 0)
(-0.00129881 -0.00260915 0)
(-0.00439573 0.00262207 0)
(-0.00828235 0.00762285 0)
(-0.0130454 0.0123935 0)
(-0.0187843 0.0170106 0)
(-0.0255954 0.0216043 0)
(-0.0335559 0.0263229 0)
(-0.0427096 0.0312932 0)
(-0.0530498 0.0365852 0)
(-0.0645001 0.0421905 0)
(-0.076946 0.0480258 0)
(-0.0901414 0.0538907 0)
(-0.103734 0.0595589 0)
(-0.1174 0.064693 0)
(-0.130693 0.0690154 0)
(-0.143176 0.0722927 0)
(-0.154693 0.0744341 0)
(-0.165193 0.0754885 0)
(-0.174712 0.0755824 0)
(-0.183314 0.0748394 0)
(-0.191077 0.0733861 0)
(-0.19809 0.0713495 0)
(-0.204417 0.0688325 0)
(-0.21012 0.0659273 0)
(-0.215245 0.062706 0)
(-0.219832 0.0592307 0)
(-0.22392 0.0555524 0)
(-0.227537 0.0517113 0)
(-0.230709 0.0477471 0)
(-0.233451 0.0436956 0)
(-0.235817 0.039544 0)
(-0.237862 0.0353 0)
(-0.239586 0.0309862 0)
(-0.241011 0.0266141 0)
(-0.242092 0.0222454 0)
(-0.242873 0.0177848 0)
(-0.243349 0.01325 0)
(-0.243536 0.00862045 0)
(-0.243443 0.00388265 0)
(-0.243085 -0.000980744 0)
(-0.242465 -0.00598351 0)
(-0.241576 -0.0111555 0)
(-0.240412 -0.0165213 0)
(-0.238959 -0.0221019 0)
(-0.237199 -0.027916 0)
(-0.235103 -0.0339686 0)
(-0.232632 -0.0402522 0)
(-0.22974 -0.0468353 0)
(-0.226412 -0.0537511 0)
(-0.222584 -0.0609291 0)
(-0.218172 -0.0683059 0)
(-0.213082 -0.0758149 0)
(-0.207092 -0.083076 0)
(-0.19983 -0.089817 0)
(-0.191035 -0.0956627 0)
(-0.180672 -0.100347 0)
(-0.16899 -0.103799 0)
(-0.155836 -0.105453 0)
(-0.141455 -0.105093 0)
(-0.125997 -0.102403 0)
(-0.109777 -0.0972235 0)
(-0.0931485 -0.089498 0)
(-0.0766738 -0.0794466 0)
(-0.0610344 -0.0675893 0)
(-0.0466968 -0.0544281 0)
(-0.0340229 -0.0405198 0)
(-0.0233017 -0.0265104 0)
(-0.0146882 -0.0130437 0)
(-0.00817861 -0.000694501 0)
(-0.00361121 0.0100786 0)
(-0.000735152 0.0189003 0)
(0.000734656 0.0253744 0)
(0.00105571 0.0288302 0)
(0.000505466 0.0275754 0)
(-0.000249934 0.0154565 0)
(0.00101199 -0.0142867 0)
(0.00191895 -0.0202616 0)
(0.00106924 -0.0169613 0)
(-0.000788943 -0.0114777 0)
(-0.00344079 -0.00545781 0)
(-0.00681221 0.00064355 0)
(-0.0109437 0.00665599 0)
(-0.0159142 0.012519 0)
(-0.0218197 0.0182486 0)
(-0.0287527 0.0239204 0)
(-0.0367887 0.0296467 0)
(-0.0459716 0.0355413 0)
(-0.0562963 0.0416796 0)
(-0.0676878 0.0480652 0)
(-0.0800224 0.0546275 0)
(-0.0930439 0.06117 0)
(-0.106415 0.0674266 0)
(-0.119732 0.0730492 0)
(-0.13255 0.0777313 0)
(-0.144527 0.0812339 0)
(-0.155525 0.0835128 0)
(-0.165521 0.0846427 0)
(-0.17454 0.0847341 0)
(-0.182668 0.0839315 0)
(-0.18998 0.0823695 0)
(-0.196561 0.0801797 0)
(-0.202477 0.0774733 0)
(-0.207782 0.0743435 0)
(-0.212523 0.0708714 0)
(-0.216738 0.0671225 0)
(-0.220461 0.0631545 0)
(-0.223727 0.0590145 0)
(-0.226561 0.0547418 0)
(-0.229009 0.0503588 0)
(-0.231116 0.0458857 0)
(-0.23288 0.0413713 0)
(-0.234292 0.0368278 0)
(-0.235366 0.0322437 0)
(-0.236156 0.0276148 0)
(-0.236663 0.0229435 0)
(-0.236939 0.0182124 0)
(-0.236994 0.0134243 0)
(-0.236856 0.00856151 0)
(-0.236539 0.00360711 0)
(-0.236059 -0.00146225 0)
(-0.235422 -0.00667202 0)
(-0.234616 -0.0120537 0)
(-0.233654 -0.0176387 0)
(-0.232531 -0.0234605 0)
(-0.231246 -0.0295507 0)
(-0.229783 -0.035934 0)
(-0.22812 -0.0426253 0)
(-0.22622 -0.049626 0)
(-0.224041 -0.0569227 0)
(-0.221511 -0.0644838 0)
(-0.218539 -0.0722412 0)
(-0.214993 -0.0800846 0)
(-0.210839 -0.0881994 0)
(-0.205931 -0.0962582 0)
(-0.200039 -0.103942 0)
(-0.192731 -0.110622 0)
(-0.183347 -0.115613 0)
(-0.172061 -0.1187 0)
(-0.159092 -0.119718 0)
(-0.144523 -0.118198 0)
(-0.128609 -0.11384 0)
(-0.111727 -0.106531 0)
(-0.0942676 -0.0962589 0)
(-0.0770056 -0.0834577 0)
(-0.0607586 -0.0688697 0)
(-0.0460516 -0.0531761 0)
(-0.0332817 -0.0370901 0)
(-0.022739 -0.0214165 0)
(-0.0145367 -0.00690976 0)
(-0.00858605 0.00580003 0)
(-0.00461155 0.0162408 0)
(-0.00221703 0.0240399 0)
(-0.00100825 0.0284081 0)
(-0.00055408 0.0276703 0)
(-0.000307395 0.015263 0)
(0.000838115 -0.0153582 0)
(0.000475961 -0.0196438 0)
(-0.00157911 -0.0149992 0)
(-0.00449902 -0.00866971 0)
(-0.00816884 -0.00192085 0)
(-0.0125546 0.00492408 0)
(-0.017717 0.0117504 0)
(-0.0237497 0.0185196 0)
(-0.0307442 0.0252469 0)
(-0.0387737 0.0319914 0)
(-0.0478817 0.0388338 0)
(-0.0580668 0.0458392 0)
(-0.0692623 0.0530176 0)
(-0.081349 0.0603117 0)
(-0.0940718 0.0675302 0)
(-0.107105 0.074389 0)
(-0.120027 0.0805304 0)
(-0.132383 0.0856193 0)
(-0.143921 0.0894537 0)
(-0.154484 0.0919796 0)
(-0.164041 0.093268 0)
(-0.172637 0.0934381 0)
(-0.180344 0.0926447 0)
(-0.187249 0.0910374 0)
(-0.193422 0.0887484 0)
(-0.198928 0.0858968 0)
(-0.203819 0.0825809 0)
(-0.208137 0.0788863 0)
(-0.21192 0.0748871 0)
(-0.215205 0.0706462 0)
(-0.218027 0.0662185 0)
(-0.220417 0.0616496 0)
(-0.222413 0.056977 0)
(-0.224034 0.0522371 0)
(-0.225306 0.0474473 0)
(-0.22626 0.0426207 0)
(-0.226932 0.0377673 0)
(-0.227377 0.0328955 0)
(-0.227601 0.0280133 0)
(-0.227634 0.0231177 0)
(-0.2275 0.0181962 0)
(-0.227217 0.0132394 0)
(-0.226805 0.0082273 0)
(-0.226279 0.00313906 0)
(-0.225654 -0.00205105 0)
(-0.224938 -0.00737075 0)
(-0.224142 -0.0128536 0)
(-0.223279 -0.0185313 0)
(-0.222358 -0.0244398 0)
(-0.221385 -0.0306142 0)
(-0.220362 -0.0370888 0)
(-0.21928 -0.0438955 0)
(-0.218124 -0.0510628 0)
(-0.21687 -0.0586072 0)
(-0.215471 -0.066524 0)
(-0.213854 -0.0747778 0)
(-0.211908 -0.0832851 0)
(-0.209514 -0.0919118 0)
(-0.206505 -0.100486 0)
(-0.202646 -0.108884 0)
(-0.197875 -0.11709 0)
(-0.191813 -0.124441 0)
(-0.183847 -0.129995 0)
(-0.173226 -0.13281 0)
(-0.160484 -0.133031 0)
(-0.145691 -0.130125 0)
(-0.129257 -0.123887 0)
(-0.111568 -0.114158 0)
(-0.0931924 -0.101082 0)
(-0.0750861 -0.0853412 0)
(-0.058228 -0.0679465 0)
(-0.0432262 -0.0497841 0)
(-0.0304978 -0.031749 0)
(-0.0203127 -0.0148082 0)
(-0.012705 0.000183792 0)
(-0.00745822 0.0125608 0)
(-0.00410521 0.0218396 0)
(-0.00218064 0.0271048 0)
(-0.0010072 0.0269417 0)
(-0.000231457 0.0147044 0)
(0.000591272 -0.0156191 0)
(-0.00114218 -0.0177849 0)
(-0.00433937 -0.0119306 0)
(-0.00828498 -0.00481919 0)
(-0.0129553 0.00262673 0)
(-0.0183289 0.010215 0)
(-0.0244833 0.0178718 0)
(-0.0315131 0.0255621 0)
(-0.0394944 0.0332845 0)
(-0.0484719 0.0410679 0)
(-0.0584484 0.048948 0)
(-0.0693685 0.0569289 0)
(-0.0811258 0.0649628 0)
(-0.093482 0.0728676 0)
(-0.106114 0.0803579 0)
(-0.118619 0.0870754 0)
(-0.130572 0.0926613 0)
(-0.141723 0.0969248 0)
(-0.15192 0.0998044 0)
(-0.161107 0.101338 0)
(-0.169335 0.10167 0)
(-0.176673 0.100957 0)
(-0.183201 0.0993601 0)
(-0.188987 0.0970197 0)
(-0.19409 0.0940586 0)
(-0.198558 0.090584 0)
(-0.202433 0.0866873 0)
(-0.205755 0.0824504 0)
(-0.208563 0.0779454 0)
(-0.210896 0.073235 0)
(-0.212794 0.0683738 0)
(-0.214294 0.063407 0)
(-0.215438 0.0583712 0)
(-0.216262 0.0532957 0)
(-0.216806 0.0482021 0)
(-0.217108 0.0431095 0)
(-0.217201 0.0380289 0)
(-0.217119 0.032962 0)
(-0.216882 0.0279103 0)
(-0.216516 0.0228686 0)
(-0.216038 0.0178226 0)
(-0.215467 0.0127583 0)
(-0.214818 0.00765462 0)
(-0.214109 0.00248947 0)
(-0.213352 -0.00276298 0)
(-0.21256 -0.00813076 0)
(-0.21175 -0.0136474 0)
(-0.210935 -0.0193462 0)
(-0.210131 -0.0252636 0)
(-0.20935 -0.0314368 0)
(-0.208603 -0.0379031 0)
(-0.207897 -0.0447 0)
(-0.207232 -0.0518633 0)
(-0.206604 -0.0594225 0)
(-0.205992 -0.0673956 0)
(-0.205354 -0.0757853 0)
(-0.20462 -0.0845718 0)
(-0.203689 -0.0936993 0)
(-0.202412 -0.103024 0)
(-0.200587 -0.11232 0)
(-0.197968 -0.121279 0)
(-0.194227 -0.129608 0)
(-0.189193 -0.137305 0)
(-0.182328 -0.1432 0)
(-0.172587 -0.145965 0)
(-0.160001 -0.145195 0)
(-0.144956 -0.140785 0)
(-0.127841 -0.132367 0)
(-0.109219 -0.119933 0)
(-0.0898579 -0.103816 0)
(-0.0709098 -0.0849831 0)
(-0.05353 -0.0647736 0)
(-0.038404 -0.0443048 0)
(-0.0259501 -0.0246884 0)
(-0.0163714 -0.00705513 0)
(-0.00957141 0.00766786 0)
(-0.00511672 0.0187682 0)
(-0.00250265 0.0252021 0)
(-0.000929051 0.0257764 0)
(-3.54435e-05 0.0141009 0)
(0.000147143 -0.0148789 0)
(-0.00285677 -0.0147295 0)
(-0.00710009 -0.00777596 0)
(-0.0120207 3.4144e-05 0)
(-0.0176457 0.00814458 0)
(-0.0239517 0.016466 0)
(-0.031023 0.0249476 0)
(-0.0389462 0.0335407 0)
(-0.0477735 0.0422132 0)
(-0.0575141 0.0509515 0)
(-0.0681245 0.0597356 0)
(-0.0795138 0.0685175 0)
(-0.0914685 0.0771241 0)
(-0.103683 0.0852783 0)
(-0.115782 0.092628 0)
(-0.127377 0.0988125 0)
(-0.1382 0.103612 0)
(-0.148085 0.10694 0)
(-0.156972 0.108825 0)
(-0.164887 0.109401 0)
(-0.171905 0.108844 0)
(-0.178096 0.107315 0)
(-0.183526 0.104969 0)
(-0.188249 0.101935 0)
(-0.192312 0.0983279 0)
(-0.19576 0.0942491 0)
(-0.198636 0.0897892 0)
(-0.200984 0.0850305 0)
(-0.202853 0.0800459 0)
(-0.204289 0.0748994 0)
(-0.205341 0.0696456 0)
(-0.206056 0.064329 0)
(-0.20648 0.0589853 0)
(-0.206655 0.0536432 0)
(-0.206621 0.0483235 0)
(-0.206413 0.0430403 0)
(-0.206059 0.0377986 0)
(-0.205585 0.0325979 0)
(-0.205011 0.0274346 0)
(-0.204356 0.0222989 0)
(-0.203636 0.0171763 0)
(-0.202864 0.0120505 0)
(-0.202053 0.00690034 0)
(-0.201219 0.00170321 0)
(-0.200373 -0.00356658 0)
(-0.19953 -0.00893712 0)
(-0.198704 -0.0144404 0)
(-0.197912 -0.0201101 0)
(-0.19717 -0.0259823 0)
(-0.196497 -0.0320949 0)
(-0.195909 -0.0384873 0)
(-0.195422 -0.0452002 0)
(-0.19505 -0.0522735 0)
(-0.1948 -0.0597439 0)
(-0.194672 -0.0676411 0)
(-0.194649 -0.0759847 0)
(-0.194698 -0.0847804 0)
(-0.194758 -0.0940106 0)
(-0.194728 -0.103617 0)
(-0.194453 -0.113485 0)
(-0.193711 -0.123399 0)
(-0.192202 -0.132983 0)
(-0.189568 -0.141742 0)
(-0.18537 -0.149416 0)
(-0.179249 -0.155384 0)
(-0.170206 -0.157928 0)
(-0.157724 -0.156185 0)
(-0.142285 -0.150022 0)
(-0.124324 -0.13911 0)
(-0.104662 -0.123666 0)
(-0.0842848 -0.104263 0)
(-0.0645964 -0.0822322 0)
(-0.0469082 -0.0593 0)
(-0.0319614 -0.0368301 0)
(-0.0201211 -0.0162152 0)
(-0.0114664 0.00130057 0)
(-0.00568101 0.0147211 0)
(-0.0023012 0.0228256 0)
(-0.000461274 0.0245192 0)
(0.000223652 0.0137889 0)
(-0.000319948 -0.0130878 0)
(-0.00454711 -0.0105192 0)
(-0.00975454 -0.00260957 0)
(-0.0155856 0.00582706 0)
(-0.0220966 0.0145654 0)
(-0.029253 0.0235961 0)
(-0.0371378 0.0328719 0)
(-0.0458218 0.0423166 0)
(-0.055328 0.0518556 0)
(-0.0656266 0.0614219 0)
(-0.0766421 0.0709494 0)
(-0.0881885 0.0802675 0)
(-0.0999915 0.0891167 0)
(-0.111711 0.0971546 0)
(-0.122988 0.104023 0)
(-0.133539 0.109464 0)
(-0.143174 0.113347 0)
(-0.151822 0.115689 0)
(-0.159489 0.116607 0)
(-0.16624 0.116281 0)
(-0.172145 0.114888 0)
(-0.177263 0.112587 0)
(-0.181649 0.109523 0)
(-0.185351 0.105817 0)
(-0.188414 0.101582 0)
(-0.19089 0.0969219 0)
(-0.19283 0.091929 0)
(-0.194289 0.086688 0)
(-0.195325 0.0812735 0)
(-0.195993 0.0757491 0)
(-0.196347 0.0701679 0)
(-0.196437 0.0645723 0)
(-0.196309 0.0589951 0)
(-0.196003 0.0534596 0)
(-0.195553 0.0479811 0)
(-0.194989 0.0425681 0)
(-0.194334 0.0372213 0)
(-0.193606 0.0319362 0)
(-0.192821 0.0267054 0)
(-0.191993 0.0215166 0)
(-0.191132 0.0163541 0)
(-0.190248 0.0112001 0)
(-0.189351 0.00603387 0)
(-0.188452 0.00083295 0)
(-0.187562 -0.00442765 0)
(-0.186691 -0.00977517 0)
(-0.185856 -0.0152396 0)
(-0.185072 -0.0208531 0)
(-0.184357 -0.0266503 0)
(-0.183732 -0.0326682 0)
(-0.183218 -0.0389463 0)
(-0.182837 -0.0455261 0)
(-0.18261 -0.0524504 0)
(-0.182556 -0.0597612 0)
(-0.182689 -0.0674977 0)
(-0.183011 -0.0756934 0)
(-0.183512 -0.0843713 0)
(-0.184161 -0.0935362 0)
(-0.184899 -0.103166 0)
(-0.185625 -0.1132 0)
(-0.186182 -0.123522 0)
(-0.186336 -0.133925 0)
(-0.185759 -0.144058 0)
(-0.184035 -0.153321 0)
(-0.180625 -0.161019 0)
(-0.174995 -0.166774 0)
(-0.16627 -0.168819 0)
(-0.15373 -0.165931 0)
(-0.137673 -0.157678 0)
(-0.118708 -0.143909 0)
(-0.0979252 -0.12509 0)
(-0.0765849 -0.102139 0)
(-0.0564038 -0.0768812 0)
(-0.0387892 -0.0514623 0)
(-0.0244625 -0.0275583 0)
(-0.013695 -0.00678862 0)
(-0.0063362 0.00951425 0)
(-0.00202419 0.0199366 0)
(0.000102523 0.0232938 0)
(0.00044503 0.0139064 0)
(-0.00079838 -0.0102906 0)
(-0.00614336 -0.0052563 0)
(-0.0122171 0.00349195 0)
(-0.0188747 0.0124834 0)
(-0.0261845 0.0218036 0)
(-0.0340879 0.0315008 0)
(-0.0426611 0.0415158 0)
(-0.0519543 0.0517313 0)
(-0.0619586 0.0620181 0)
(-0.0726156 0.0722668 0)
(-0.0837675 0.0822937 0)
(-0.0951798 0.0918563 0)
(-0.10655 0.100627 0)
(-0.117542 0.108246 0)
(-0.127875 0.114427 0)
(-0.137326 0.118979 0)
(-0.145798 0.121888 0)
(-0.153286 0.123254 0)
(-0.159835 0.12325 0)
(-0.165512 0.122066 0)
(-0.170379 0.119875 0)
(-0.174486 0.11683 0)
(-0.177886 0.113069 0)
(-0.180628 0.108714 0)
(-0.182769 0.103884 0)
(-0.184369 0.0986836 0)
(-0.18549 0.0932099 0)
(-0.186197 0.0875486 0)
(-0.186554 0.0817734 0)
(-0.18662 0.0759452 0)
(-0.186448 0.0701127 0)
(-0.186087 0.0643131 0)
(-0.185577 0.0585727 0)
(-0.184953 0.0529085 0)
(-0.184243 0.0473298 0)
(-0.183467 0.0418389 0)
(-0.182643 0.0364321 0)
(-0.181784 0.0311019 0)
(-0.180899 0.0258377 0)
(-0.179996 0.0206248 0)
(-0.179081 0.0154463 0)
(-0.178159 0.0102843 0)
(-0.177238 0.00511846 0)
(-0.176323 -7.29043e-05 0)
(-0.175424 -0.00531331 0)
(-0.174549 -0.0106283 0)
(-0.173712 -0.0160454 0)
(-0.172928 -0.0215941 0)
(-0.172216 -0.0273066 0)
(-0.171597 -0.0332176 0)
(-0.171095 -0.0393647 0)
(-0.170737 -0.0457886 0)
(-0.170549 -0.0525326 0)
(-0.170559 -0.0596415 0)
(-0.17079 -0.0671606 0)
(-0.17126 -0.0751335 0)
(-0.171978 -0.083598 0)
(-0.172933 -0.0925804 0)
(-0.174097 -0.102088 0)
(-0.175406 -0.112096 0)
(-0.176753 -0.122536 0)
(-0.177975 -0.133278 0)
(-0.178828 -0.144103 0)
(-0.178956 -0.154651 0)
(-0.177884 -0.164315 0)
(-0.175032 -0.172221 0)
(-0.169677 -0.177512 0)
(-0.160941 -0.17873 0)
(-0.148048 -0.174325 0)
(-0.131127 -0.163544 0)
(-0.111021 -0.146444 0)
(-0.0890961 -0.12382 0)
(-0.0669991 -0.0970733 0)
(-0.0467304 -0.0687015 0)
(-0.0297461 -0.0412948 0)
(-0.0166612 -0.0168146 0)
(-0.00751879 0.00295708 0)
(-0.00206931 0.016388 0)
(0.000495629 0.0220481 0)
(0.000622478 0.0143643 0)
(-0.00125903 -0.00654269 0)
(-0.00758316 0.000955081 0)
(-0.0144202 0.0104326 0)
(-0.0218105 0.0199081 0)
(-0.029811 0.0297537 0)
(-0.0383401 0.0400569 0)
(-0.0474619 0.0507319 0)
(-0.0572048 0.061605 0)
(-0.0675333 0.07251 0)
(-0.0783164 0.0832253 0)
(-0.0893637 0.0935023 0)
(-0.100414 0.103033 0)
(-0.111155 0.111452 0)
(-0.12131 0.11845 0)
(-0.130639 0.123784 0)
(-0.139006 0.127377 0)
(-0.146383 0.129305 0)
(-0.152802 0.129728 0)
(-0.158323 0.128842 0)
(-0.163006 0.126834 0)
(-0.166906 0.123873 0)
(-0.170075 0.120108 0)
(-0.172569 0.11568 0)
(-0.17445 0.110717 0)
(-0.175785 0.105342 0)
(-0.176643 0.0996631 0)
(-0.177098 0.0937792 0)
(-0.177217 0.087774 0)
(-0.177065 0.0817167 0)
(-0.1767 0.0756626 0)
(-0.176171 0.0696534 0)
(-0.17552 0.0637186 0)
(-0.174782 0.0578774 0)
(-0.173983 0.0521397 0)
(-0.173143 0.0465085 0)
(-0.172277 0.0409808 0)
(-0.171394 0.0355489 0)
(-0.170501 0.0302017 0)
(-0.169602 0.0249257 0)
(-0.168701 0.0197065 0)
(-0.167798 0.0145258 0)
(-0.166895 0.00936412 0)
(-0.165995 0.00420391 0)
(-0.165101 -0.000975616 0)
(-0.164219 -0.00619637 0)
(-0.163358 -0.0114812 0)
(-0.162527 -0.0168547 0)
(-0.161741 -0.0223432 0)
(-0.161018 -0.0279754 0)
(-0.160379 -0.0337827 0)
(-0.159849 -0.0397997 0)
(-0.159457 -0.0460647 0)
(-0.159233 -0.0526195 0)
(-0.159211 -0.0595095 0)
(-0.159423 -0.0667832 0)
(-0.159897 -0.0744905 0)
(-0.160656 -0.08268 0)
(-0.161711 -0.0913952 0)