# vtk DataFile Version 2.0
tracks
ASCII
DATASET POLYDATA
POINTS 12025 float
-0.0206 0.000999967 1e-05 -0.02058 0.000999969 1e-05 -0.02056 0.000999974 1e-05 -0.02054 0.00099998
1e-05 -0.02052 0.000999989 1e-05 -0.0205 0.001 1e-05 -0.0202034 0.00100016 1e-05
-0.0199069 0.00100062 1e-05 -0.0196103 0.00100137 1e-05 -0.0193137 0.0010024 1e-05 -0.0190172
0.00100371 1e-05 -0.0187132 0.00100529 1e-05 -0.0184093 0.00100697 1e-05 -0.0181054 0.00100874
1e-05 -0.0178015 0.00101058 1e-05 -0.0174976 0.0010125 1e-05 -0.0172058 0.00101441 1e-05
-0.016914 0.00101634 1e-05 -0.0166222 0.00101827 1e-05 -0.0163305 0.00102021 1e-05 -0.0160387
0.00102216 1e-05 -0.0158997 0.00102309 1e-05 -0.0157607 0.00102403 1e-05 -0.0156217 0.00102498
1e-05 -0.0154827 0.00102593 1e-05 -0.0153547 0.00102682 1e-05 -0.0152114 0.00102781 1e-05
-0.0150681 0.00102882 1e-05 -0.0149247 0.00102983 1e-05 -0.0147814 0.00103084 1e-05 -0.0146381
0.00103186 1e-05 -0.0143692 0.00103381 1e-05 -0.0141002 0.00103578 1e-05 -0.0138313 0.00103779
1e-05 -0.0135624 0.00103983 1e-05 -0.0132934 0.0010419 1e-05 -0.0130353 0.00104393 1e-05
-0.0127771 0.00104597 1e-05 -0.0125189 0.00104802 1e-05 -0.0122607 0.00105008 1e-05 -0.0120025
0.00105216 1e-05 -0.0117547 0.00105418 1e-05 -0.0115068 0.0010562 1e-05 -0.0112589 0.00105822
1e-05 -0.0110111 0.00106024 1e-05 -0.0107632 0.00106227 1e-05 -0.0105252 0.00106424 1e-05
-0.0102873 0.00106619 1e-05 -0.0100493 0.00106813 1e-05 -0.00981133 0.00107007 1e-05 -0.00957337
0.001072 1e-05 -0.00934491 0.00107386 1e-05 -0.00911645 0.00107569 1e-05 -0.00888799 0.00107751
1e-05 -0.00865954 0.00107932 1e-05 -0.00843108 0.00108111 1e-05 -0.00821175 0.00108284 1e-05
-0.00799242 0.00108452 1e-05 -0.00777309 0.00108619 1e-05 -0.00755376 0.00108784 1e-05 -0.00733443
0.00108948 1e-05 -0.00712387 0.00109106 1e-05 -0.0069133 0.00109259 1e-05 -0.00670273 0.00109411
1e-05 -0.00649216 0.0010956 1e-05 -0.0062816 0.00109707 1e-05 -0.00607944 0.0010985 1e-05
-0.00587729 0.00109987 1e-05 -0.00567514 0.00110122 1e-05 -0.00547298 0.00110255 1e-05 -0.00527083
0.00110385 1e-05 -0.00507675 0.00110511 1e-05 -0.00488267 0.00110632 1e-05 -0.0046886 0.0011075
1e-05 -0.00449452 0.00110866 1e-05 -0.00430044 0.00110979 1e-05 -0.00411412 0.00111088 1e-05
-0.0039278 0.00111192 1e-05 -0.00374147 0.00111293 1e-05 -0.00355515 0.0011139 1e-05 -0.00336883
0.00111484 1e-05 -0.00318995 0.00111574 1e-05 -0.00301107 0.00111658 1e-05 -0.00283219 0.00111741
1e-05 -0.00265331 0.00111823 1e-05 -0.00247443 0.00111904 1e-05 -0.0023027 0.00111984 1e-05
-0.00213097 0.00112055 1e-05 -0.00195924 0.00112124 1e-05 -0.0017875 0.00112192 1e-05 -0.00161577
0.00112262 1e-05 -0.0014509 0.00112337 1e-05 -0.00128603 0.00112409 1e-05 -0.00112116 0.00112476
1e-05 -0.000956288 0.00112537 1e-05 -0.000791418 0.00112594 1e-05 -0.000633135 0.00112644 1e-05
-0.000474851 0.00112695 1e-05 -0.000316567 0.00112744 1e-05 -0.000158283 0.00112789 1e-05 0
0.0011283 1e-05 0.000105677 0.00112853 1e-05 0.000211355 0.00112881 1e-05 0.000317032 0.0011291
1e-05 0.000422709 0.00112939 1e-05 0.000528387 0.00112968 1e-05 0.000634886 0.00112993 1e-05
0.000741385 0.00113021 1e-05 0.000847884 0.0011305 1e-05 0.000954383 0.00113079 1e-05 0.00106088
0.00113107 1e-05 0.00116821 0.00113132 1e-05 0.00127554 0.0011316 1e-05 0.00138286 0.00113187
1e-05 0.00149019 0.00113214 1e-05 0.00159752 0.0011324 1e-05 0.00170568 0.00113264 1e-05
0.00181384 0.00113289 1e-05 0.001922 0.00113313 1e-05 0.00203016 0.00113337 1e-05 0.00213833
0.00113359 1e-05 0.00224733 0.00113379 1e-05 0.00235633 0.00113401 1e-05 0.00246533 0.00113421
1e-05 0.00257434 0.00113441 1e-05 0.00268334 0.0011346 1e-05 0.00279319 0.00113476 1e-05
0.00290304 0.00113494 1e-05 0.00301289 0.0011351 1e-05 0.00312274 0.00113526 1e-05 0.00323259
0.00113541 1e-05 0.00334329 0.00113554 1e-05 0.003454 0.00113568 1e-05 0.0035647 0.0011358
1e-05 0.0036754 0.00113593 1e-05 0.00378611 0.00113604 1e-05 0.00389767 0.00113613 1e-05
0.00400924 0.00113623 1e-05 0.0041208 0.00113632 1e-05 0.00423237 0.0011364 1e-05 0.00434393
0.00113647 1e-05 0.00445636 0.00113653 1e-05 0.00456879 0.00113658 1e-05 0.00468123 0.00113663
1e-05 0.00479366 0.00113668 1e-05 0.00490609 0.00113671 1e-05 0.0050194 0.00113672 1e-05
0.0051327 0.00113674 1e-05 0.00524601 0.00113675 1e-05 0.00535931 0.00113675 1e-05 0.00547262
0.00113674 1e-05 0.00558681 0.00113671 1e-05 0.005701 0.00113669 1e-05 0.00581518 0.00113665
1e-05 0.00592937 0.00113661 1e-05 0.00604356 0.00113655 1e-05 0.00615863 0.00113649 1e-05
0.00627371 0.00113642 1e-05 0.00638878 0.00113634 1e-05 0.00650386 0.00113625 1e-05 0.00661893
0.00113615 1e-05 0.0067349 0.00113604 1e-05 0.00685087 0.00113592 1e-05 0.00696684 0.00113579
1e-05 0.00708281 0.00113566 1e-05 0.00719878 0.00113552 1e-05 0.00731565 0.00113536 1e-05
0.00743252 0.0011352 1e-05 0.00754939 0.00113503 1e-05 0.00766626 0.00113486 1e-05 0.00778313
0.00113467 1e-05 0.00790091 0.00113447 1e-05 0.00801869 0.00113427 1e-05 0.00813647 0.00113406
1e-05 0.00825425 0.00113385 1e-05 0.00837203 0.00113363 1e-05 0.00849073 0.0011334 1e-05
0.00860942 0.00113316 1e-05 0.00872812 0.00113292 1e-05 0.00884682 0.00113267 1e-05 0.00896551
0.00113242 1e-05 0.00900806 0.00113233 1e-05 0.00905062 0.00113224 1e-05 0.00909317 0.00113214
1e-05 0.00913573 0.00113205 1e-05 0.00917802 0.00113196 1e-05 0.00925514 0.00113179 1e-05
0.00933225 0.00113161 1e-05 0.00940937 0.00113144 1e-05 0.00948649 0.00113126 1e-05 0.0095636
0.00113108 1e-05 0.00968415 0.0011308 1e-05 0.0098047 0.00113052 1e-05 0.00992525 0.00113023
1e-05 0.0100458 0.00112994 1e-05 0.0101663 0.00112965 1e-05 0.0102878 0.00112935 1e-05
0.0104093 0.00112905 1e-05 0.0105308 0.00112875 1e-05 0.0106523 0.00112845 1e-05 0.0107738
0.00112815 1e-05 0.0108962 0.00112783 1e-05 0.0110186 0.00112752 1e-05 0.0111411 0.00112722
1e-05 0.0112635 0.00112691 1e-05 0.0113859 0.0011266 1e-05 0.0115093 0.00112627 1e-05
0.0116327 0.00112595 1e-05 0.0117561 0.00112564 1e-05 0.0118795 0.00112532 1e-05 0.0120028
0.00112501 1e-05 0.0121272 0.00112467 1e-05 0.0122515 0.00112434 1e-05 0.0123759 0.00112402
1e-05 0.0125002 0.00112369 1e-05 0.0126245 0.00112337 1e-05 0.0127498 0.00112302 1e-05
0.0128752 0.00112268 1e-05 0.0130005 0.00112234 1e-05 0.0131258 0.001122 1e-05 0.0132511
0.00112166 1e-05 0.0133774 0.00112129 1e-05 0.0135036 0.00112094 1e-05 0.0136299 0.00112058
1e-05 0.0137562 0.00112022 1e-05 0.0138825 0.00111986 1e-05 0.0140098 0.00111946 1e-05
0.014137 0.00111908 1e-05 0.0142643 0.0011187 1e-05 0.0143915 0.00111831 1e-05 0.0145188
0.00111791 1e-05 0.0146471 0.0011175 1e-05 0.0147753 0.00111708 1e-05 0.0149036 0.00111666
1e-05 0.0150318 0.00111623 1e-05 0.0151601 0.00111579 1e-05 0.0152893 0.00111534 1e-05
0.0154186 0.00111488 1e-05 0.0155478 0.00111441 1e-05 0.0156771 0.00111394 1e-05 0.0158063
0.00111345 1e-05 0.0159366 0.00111295 1e-05 0.0160668 0.00111243 1e-05 0.0161971 0.00111191
1e-05 0.0163273 0.00111138 1e-05 0.0164576 0.00111083 1e-05 0.0165889 0.00111028 1e-05
0.0167201 0.0011097 1e-05 0.0168514 0.00110912 1e-05 0.0169827 0.00110852 1e-05 0.0171139
0.00110791 1e-05 0.0172462 0.00110729 1e-05 0.0173785 0.00110664 1e-05 0.0175108 0.00110599
1e-05 0.0176431 0.00110531 1e-05 0.0177754 0.00110463 1e-05 0.0179087 0.00110394 1e-05
0.018042 0.00110323 1e-05 0.0181753 0.0011025 1e-05 0.0183087 0.00110174 1e-05 0.018442
0.00110099 1e-05 0.0185763 0.00110023 1e-05 0.0187107 0.00109944 1e-05 0.018845 0.00109862
1e-05 0.0189794 0.00109779 1e-05 0.0191137 0.00109695 1e-05 0.0192491 0.00109612 1e-05
0.0193845 0.00109524 1e-05 0.0195199 0.00109434 1e-05 0.0196553 0.00109342 1e-05 0.0197907
0.00109251 1e-05 0.0199272 0.0010916 1e-05 0.0200636 0.00109064 1e-05 0.0202001 0.00108966
1e-05 0.0203365 0.00108865 1e-05 0.020473 0.00108766 1e-05 0.0206105 0.00108667 1e-05
0.020748 0.00108564 1e-05 0.0208855 0.00108457 1e-05 0.021023 0.00108348 1e-05 0.0211606
0.00108241 1e-05 0.0212991 0.00108135 1e-05 0.0214377 0.00108024 1e-05 0.0215763 0.00107909
1e-05 0.0217149 0.00107792 1e-05 0.0218535 0.00107678 1e-05 0.0219931 0.00107565 1e-05
0.0221328 0.00107447 1e-05 0.0222724 0.00107324 1e-05 0.0224121 0.00107201 1e-05 0.0225517
0.00107079 1e-05 0.0226925 0.00106959 1e-05 0.0228332 0.00106834 1e-05 0.022974 0.00106705
1e-05 0.0231147 0.00106575 1e-05 0.0232555 0.00106447 1e-05 0.0233973 0.00106321 1e-05
0.0235391 0.0010619 1e-05 0.023681 0.00106054 1e-05 0.0238228 0.00105918 1e-05 0.0239647
0.00105784 1e-05 0.0241076 0.00105652 1e-05 0.0242505 0.00105515 1e-05 0.0243935 0.00105374
1e-05 0.0245364 0.00105232 1e-05 0.0246794 0.00105093 1e-05 0.0248234 0.00104956 1e-05
0.0249675 0.00104815 1e-05 0.0251115 0.00104669 1e-05 0.0252556 0.00104522 1e-05 0.0253996
0.00104378 1e-05 0.0255448 0.00104237 1e-05 0.02569 0.00104091 1e-05 0.0258351 0.0010394
1e-05 0.0259803 0.00103789 1e-05 0.0261255 0.00103642 1e-05 0.0262718 0.00103496 1e-05
0.0264181 0.00103347 1e-05 0.0265644 0.00103193 1e-05 0.0267107 0.00103039 1e-05 0.026857
0.00102888 1e-05 0.0270044 0.00102739 1e-05 0.0271519 0.00102586 1e-05 0.0272993 0.00102429
1e-05 0.0274468 0.00102273 1e-05 0.0275942 0.00102118 1e-05 0.0277428 0.00101967 1e-05
0.0278914 0.0010181 1e-05 0.0280399 0.00101652 1e-05 0.0281885 0.00101493 1e-05 0.0283371
0.00101336 1e-05 0.0284869 0.00101181 1e-05 0.0286366 0.00101022 1e-05 0.0287863 0.00100862
1e-05 0.0289361 0.00100701 1e-05 0.0290858 0.00100542 1e-05 0.0292367 0.00100385 1e-05
0.0293876 0.00100224 1e-05 0.0295385 0.00100062 1e-05 0.0296894 0.000998996 1e-05 0.0298403
0.000997381 1e-05 0.0299924 0.00099579 1e-05 0.0301445 0.000994157 1e-05 0.0302966 0.000992521
1e-05 0.0304486 0.000990886 1e-05 0.0306007 0.000989252 1e-05 0.030754 0.00098764 1e-05
0.0309072 0.00098599 1e-05 0.0310605 0.000984341 1e-05 0.0312138 0.000982693 1e-05 0.031367
0.000981045 1e-05 0.0315215 0.000979413 1e-05 0.0316759 0.00097775 1e-05 0.0318304 0.000976087
1e-05 0.0319848 0.000974425 1e-05 0.0321393 0.000972764 1e-05 0.0322949 0.000971111 1e-05
0.0324506 0.000969435 1e-05 0.0326062 0.000967758 1e-05 0.0327619 0.000966082 1e-05 0.0329175
[...]
POINT_DATA 12025
FIELD attributes 4
age 1 12025 float
-9.99838e-06 -7.99849e-06 -5.9987e-06 -3.99903e-06 -1.99946e-06 0 2.96487e-05 5.92781e-05 8.88884e-05 0.00011848 0.000148053
0.000178327 0.000208583 0.000238812 0.000269017 0.000299197 0.000328138 0.000357063 0.000385967 0.000414852 0.000443718
0.000457458 0.000471196 0.000484931 0.000498662 0.000511301 0.000525453 0.000539602 0.000553747 0.000567888 0.000582026
0.000608545 0.000635054 0.00066155 0.000688034 0.000714505 0.000739904 0.000765296 0.000790677 0.000816046 0.000841402
0.000865727 0.000890051 0.000914364 0.000938665 0.000962955 0.000986251 0.00100955 0.00103284 0.00105612 0.00107939
0.00110171 0.00112403 0.00114635 0.00116866 0.00119096 0.00121234 0.00123373 0.00125512 0.0012765 0.00129788
0.00131837 0.00133888 0.00135938 0.00137988 0.00140038 0.00142002 0.00143969 0.00145934 0.001479 0.00149865
0.00151749 0.00153635 0.0015552 0.00157405 0.0015929 0.00161097 0.00162906 0.00164714 0.00166523 0.00168331
0.00170065 0.001718 0.00173536 0.00175272 0.00177007 0.00178672 0.00180337 0.00182004 0.00183672 0.00185341
0.00186944 0.00188546 0.00190148 0.00191752 0.00193356 0.00194898 0.00196438 0.00197978 0.00199517 0.00201056
0.00202085 0.00203113 0.00204141 0.00205169 0.00206197 0.00207233 0.00208269 0.00209305 0.00210341 0.00211377
0.00212421 0.00213465 0.00214509 0.00215552 0.00216596 0.00217648 0.002187 0.00219752 0.00220803 0.00221855
0.00222915 0.00223975 0.00225035 0.00226094 0.00227154 0.00228223 0.00229291 0.00230359 0.00231427 0.00232496
0.00233573 0.0023465 0.00235726 0.00236803 0.00237881 0.00238967 0.00240052 0.00241138 0.00242224 0.0024331
0.00244406 0.00245501 0.00246596 0.00247691 0.00248786 0.00249892 0.00250996 0.00252101 0.00253206 0.00254311
0.00255426 0.0025654 0.00257655 0.0025877 0.00259886 0.00261011 0.00262136 0.00263261 0.00264386 0.00265513
0.00266649 0.00267784 0.0026892 0.00270057 0.00271194 0.00272342 0.00273489 0.00274636 0.00275785 0.00276934
0.00278093 0.00279252 0.00280412 0.00281572 0.00282734 0.00283905 0.00285077 0.00286249 0.00287423 0.00288597
0.00289019 0.0028944 0.00289862 0.00290283 0.00290702 0.00291467 0.00292232 0.00292997 0.00293763 0.00294529
0.00295728 0.00296928 0.00298128 0.0029933 0.00300532 0.00301748 0.00302962 0.00304178 0.00305395 0.00306612
0.00307846 0.00309076 0.00310307 0.0031154 0.00312774 0.00314025 0.00315271 0.0031652 0.00317769 0.0031902
0.0032029 0.00321554 0.0032282 0.00324087 0.00325355 0.00326644 0.00327927 0.00329211 0.00330496 0.00331784
0.00333092 0.00334394 0.00335697 0.00337002 0.00338309 0.00339638 0.00340959 0.00342282 0.00343607 0.00344934
0.00346284 0.00347626 0.0034897 0.00350315 0.00351663 0.00353034 0.00354397 0.00355763 0.0035713 0.003585
0.00359892 0.00361279 0.00362666 0.00364055 0.00365448 0.00366863 0.00368272 0.00369682 0.00371094 0.0037251
0.00373947 0.0037538 0.00376813 0.00378248 0.00379688 0.00381149 0.00382605 0.00384062 0.00385521 0.00386985
0.00388468 0.0038995 0.0039143 0.00392913 0.00394402 0.00395909 0.00397415 0.0039892 0.00400428 0.00401941
0.00403473 0.00405003 0.00406533 0.00408066 0.00409605 0.00411161 0.00412717 0.00414273 0.00415831 0.00417395
0.00418976 0.00420557 0.00422139 0.00423724 0.00425313 0.0042692 0.00428527 0.00430136 0.00431747 0.00433362
0.00434994 0.00436627 0.00438263 0.004399 0.00441542 0.004432 0.0044486 0.00446522 0.00448186 0.00449854
0.00451538 0.00453225 0.00454914 0.00456605 0.004583 0.0046001 0.00461724 0.0046344 0.00465159 0.0046688
0.00468617 0.00470358 0.00472101 0.00473847 0.00475595 0.0047736 0.00479127 0.00480898 0.00482671 0.00484446
0.00486237 0.00488032 0.0048983 0.0049163 0.00493433 0.00495251 0.00497073 0.00498898 0.00500726 0.00502555
0.00504401 0.0050625 0.00508103 0.00509957 0.00511814 0.00513687 0.00515563 0.00517443 0.00519324 0.00521208
0.00523108 0.00525012 0.00526918 0.00528827 0.00530738 0.00532665 0.00534596 0.00536529 0.00538465 0.00540402
0.00542357 0.00544315 0.00546275 0.00548237 0.00550201 0.00552183 0.00554168 0.00556154 0.00558143 0.00560135
0.00562143 0.00564154 0.00566168 0.00568183 0.00570201 0.00572236 0.00574274 0.00576314 0.00578356 0.00580401
0.00582463 0.00584527 0.00586594 0.00588662 0.00590733 0.00591376 0.00592019 0.00592663 0.00593307 0.00593948
0.00595396 0.00596845 0.00598296 0.00599747 0.00601199 0.00603315 0.00605432 0.00607551 0.00609673 0.00611796
0.00613938 0.00616082 0.00618228 0.00620375 0.00622525 0.00624693 0.00626863 0.00629036 0.0063121 0.00633386
0.0063558 0.00637777 0.00639975 0.00642176 0.00644378 0.00646598 0.00648821 0.00651046 0.00653273 0.00655501
0.00657747 0.00659996 0.00662247 0.006645 0.00666755 0.00669027 0.00671302 0.0067358 0.00675859 0.00678139
0.00680437 0.00682739 0.00685042 0.00687347 0.00689654 0.00691978 0.00694305 0.00696634 0.00698965 0.00701298
0.00703648 0.00706001 0.00708356 0.00710714 0.00713072 0.00715448 0.00717827 0.00720209 0.00722593 0.00724977
0.00727379 0.00729784 0.00732192 0.00734602 0.00737012 0.0073944 0.00741872 0.00744306 0.00746742 0.00749178
0.00751633 0.00754091 0.00756551 0.00759014 0.00761476 0.00763957 0.00766441 0.00768929 0.00771417 0.00773906
0.00776414 0.00778925 0.00781439 0.00783954 0.0078647 0.00789004 0.00791542 0.00794083 0.00796625 0.00799168
0.0080173 0.00804295 0.00806864 0.00809433 0.00812003 0.00814593 0.00817186 0.00819782 0.00822378 0.00824976
0.00827594 0.00830215 0.00832839 0.00835464 0.0083809 0.00840736 0.00843386 0.00846038 0.00848691 0.00851346
0.00854022 0.00856701 0.00859381 0.00862064 0.00864748 0.00867453 0.00870162 0.00872873 0.00875585 0.00878299
0.00881035 0.00883773 0.00886514 0.00889256 0.00892001 0.00894768 0.00897537 0.00900309 0.00903082 0.00905858
0.00908657 0.00911458 0.00914261 0.00917066 0.00919874 0.00920232 0.0092059 0.00920948 0.00921306 0.00921661
0.00924136 0.00926613 0.00929092 0.00931572 0.00934054 0.00936918 0.00939785 0.00942655 0.00945526 0.009484
0.00951298 0.00954199 0.00957103 0.00960009 0.00962918 0.00965851 0.00968787 0.00971725 0.00974667 0.00977611
0.00980579 0.0098355 0.00986525 0.00989503 0.00992483 0.00995487 0.00998495 0.0100151 0.0100452 0.0100754
0.0101058 0.0101362 0.0101667 0.0101973 0.0102278 0.0102586 0.0102894 0.0103203 0.0103512 0.0103821
0.0104133 0.0104445 0.0104758 0.0105071 0.0105384 0.01057 0.0106016 0.0106333 0.0106649 0.0106967
0.0107286 0.0107607 0.0107927 0.0108248 0.010857 0.0108893 0.0109218 0.0109543 0.0109868 0.0110193
0.0110521 0.011085 0.0111179 0.0111508 0.0111838 0.0112171 0.0112504 0.0112837 0.0113171 0.0113505
0.0113841 0.0114179 0.0114517 0.0114855 0.0115193 0.0115302 0.0115412 0.0115521 0.0115631 0.0115738
0.0115971 0.0116204 0.0116438 0.0116671 0.0116905 0.0117251 0.0117597 0.0117944 0.0118292 0.0118639
0.011899 0.0119342 0.0119694 0.0120046 0.0120399 0.0120754 0.0121111 0.0121467 0.0121825 0.0122182
0.0122543 0.0122904 0.0123266 0.0123629 0.0123992 0.0124358 0.0124724 0.0125091 0.0125459 0.0125827
0.0126198 0.012657 0.0126942 0.0127315 0.0127689 0.0128065 0.0128443 0.012882 0.0129199 0.0129578
0.012996 0.0130343 0.0130726 0.013111 0.0131494 0.0131882 0.0132271 0.013266 0.0133049 0.0133439
0.0133712 0.0133986 0.013426 0.0134534 0.0134799 0.0134922 0.0135045 0.0135167 0.0135291 0.0135414
0.0135813 0.0136213 0.0136614 0.0137015 0.0137416 0.0137822 0.0138228 0.0138634 0.0139041 0.0139449
0.013986 0.0140272 0.0140685 0.0141098 0.0141511 0.0141929 0.0142347 0.0142765 0.0143185 0.0143605
0.0144028 0.0144453 0.0144877 0.0145303 0.0145729 0.0146159 0.014659 0.0147021 0.0147453 0.0147886
0.0148322 0.0148759 0.0149197 0.0149636 0.0150075 0.0150518 0.0150962 0.0151406 0.0151852 0.0152297
0.0152549 0.0152801 0.0153053 0.0153305 0.0153551 0.0153752 0.0153952 0.0154153 0.0154354 0.0154555
0.0155012 0.0155469 0.0155927 0.0156386 0.0156846 0.0157309 0.0157774 0.0158239 0.0158705 0.0159172
0.0159643 0.0160114 0.0160587 0.016106 0.0161534 0.0162012 0.0162491 0.0162971 0.0163451 0.0163932
0.0164418 0.0164905 0.0165392 0.016588 0.0166369 0.0166863 0.0167358 0.0167853 0.0168349 0.0168846
0.0169348 0.016985 0.0170354 0.0170858 0.0171363 0.0171586 0.017181 0.0172034 0.0172257 0.0172477
0.0172765 0.0173055 0.0173344 0.0173634 0.0173924 0.0174442 0.0174962 0.0175482 0.0176004 0.0176526
0.0177054 0.0177582 0.0178112 0.0178642 0.0179174 0.0179711 0.0180249 0.0180788 0.0181328 0.0181869
0.0182416 0.0182964 0.0183512 0.0184062 0.0184614 0.0185171 0.0185729 0.0186288 0.0186848 0.018741
0.0187978 0.0188547 0.0189117 0.0189688 0.0190262 0.0190437 0.0190613 0.0190789 0.0190965 0.0191138
0.0191543 0.0191949 0.0192356 0.0192763 0.0193171 0.0193762 0.0194354 0.0194947 0.0195542 0.0196139
0.0196742 0.0197346 0.0197952 0.0198559 0.0199169 0.0199785 0.0200402 0.0201021 0.0201642 0.0202265
0.0202895 0.0203526 0.0204159 0.0204793 0.020543 0.0206074 0.020672 0.0207368 0.0208017 0.0208669
0.0208851 0.0209034 0.0209216 0.0209399 0.0209579 0.0210059 0.0210539 0.0211021 0.0211503 0.0211987
0.0212662 0.0213339 0.0214018 0.02147 0.0215384 0.0216075 0.0216769 0.0217465 0.0218163 0.0218865
0.0219574 0.0220285 0.0220999 0.0221716 0.0222435 0.0223163 0.0223893 0.0224626 0.0225361 0.02261
0.0226527 0.0226955 0.0227384 0.0227814 0.0228234 0.022856 0.0228886 0.0229213 0.022954 0.0229868
0.0230636 0.0231406 0.023218 0.0232956 0.0233736 0.0234525 0.0235318 0.0236113 0.0236911 0.0237714
0.0238525 0.023934 0.0240159 0.024098 0.0241806 0.0242642 0.0243481 0.0244324 0.024517 0.024602
0.0246335 0.024665 0.0246966 0.0247282 0.0247594 0.0248145 0.0248698 0.0249253 0.0249809 0.0250367
0.0251254 0.0252145 0.025304 0.0253939 0.0254843 0.0255757 0.0256676 0.0257599 0.0258526 0.0259458
0.0260402 0.026135 0.0262302 0.0263259 0.0264222 0.0264983 0.0265748 0.0266515 0.0267285 0.0268035
0.0268257 0.0268479 0.0268701 0.0268923 0.0269146 0.0270152 0.0271164 0.027218 0.0273201 0.0274229
0.0275268 0.0276313 0.0277364 0.027842 0.0279481 0.0280556 0.0281637 0.0282723 0.0283815 0.0284913
0.0285889 0.028687 0.0287855 0.0288844 0.0289806 0.0289952 0.0290098 0.0290244 0.0290391 0.0290537
0.0291688 0.0292845 0.0294008 0.0295178 0.0296354 0.0297544 0.0298742 0.0299946 0.0301156 0.0302374
0.0303606 0.0304845 0.0306091 0.0307344 0.0308605 0.0309494 0.0310386 0.0311282 0.0312181 0.0313063
0.0313462 0.0313861 0.0314261 0.0314662 0.0315064 0.0316385 0.0317713 0.0319048 0.0320391 0.0321741
0.0323106 0.032448 0.0325862 0.0327251 0.0328648 0.033006 0.0331481 0.033291 0.0334346 0.033579
0.0336218 0.0336646 0.0337076 0.0337505 0.0337932 0.0338975 0.0340021 0.0341071 0.0342124 0.0343182
0.0344691 0.0346208 0.0347733 0.0349266 0.0350806 0.0352363 0.0353929 0.0355504 0.0357085 0.0358674
0.0359832 0.0360994 0.0362159 0.0363329 0.036449 0.036495 0.0365411 0.0365872 0.0366334 0.0366797
0.0368455 0.0370121 0.0371795 0.0373476 0.0375165 0.0376873 0.037859 0.0380315 0.0382048 0.0383787
0.0385432 0.0387085 0.0388745 0.0390411 0.0392075 0.0392193 0.0392312 0.039243 0.0392549 0.0392667
0.0394479 0.0396298 0.0398125 0.039996 0.0401801 0.0403663 0.0405533 0.0407411 0.0409296 0.0411188
0.04131 0.0415021 0.0416948 0.0418883 0.0420824 0.0420907 0.042099 0.0421073 0.0421157 0.042124
0.0423121 0.0425008 0.0426902 0.0428802 0.0430707 0.0432717 0.0434734 0.0436758 0.0438789 0.0440824
0.044288 0.0444943 0.0447012 0.0449087 0.0451166 0.0451398 0.0451631 0.0451864 0.0452097 0.0452331
0.0454202 0.0456076 0.0457955 0.0459837 0.0461722 0.0463862 0.0466008 0.0468159 0.0470314 0.047247
0.0474647 0.0476829 0.0479014 0.0481203 0.0483391 0.0483938 0.0484486 0.0485034 0.0485582 0.048614
0.0487802 0.0489465 0.049113 0.0492797 0.0494462 0.0496699 0.0498939 0.0501183 0.0503428 0.0505665
0.0507828 0.0509996 0.0512166 0.0514335 0.0516499 0.051667 0.0516841 0.0517013 0.0517184 0.0517356
0.0519432 0.0521507 0.0523579 0.052565 0.0527714 0.0530034 0.0532352 0.0534668 0.0536981 0.0539284
0.0539996 0.0540708 0.0541419 0.0542129 0.0542863 0.054453 0.0546195 0.0547857 0.0549516 0.0551168
0.0553617 0.0556059 0.0558494 0.0560921 0.0563331 0.0564641 0.0565948 0.0567252 0.0568553 0.0569959
0.057111 0.0572258 0.0573405 0.0574548 0.0575688 0.057822 0.0580739 0.0583245 0.0585737 0.0588208
0.0590401 0.0592583 0.0594753 0.059691 0.059944 0.0599711 0.0599983 0.0600254 0.0600525 0.0600796
0.0603358 0.0605901 0.0608424 0.0610928 0.0613409 0.0615966 0.0618502 0.0621017 0.0623509 0.0625977
0.062727 0.0628556 0.0629837 0.0631111 0.063255 0.0633734 0.0634913 0.0636086 0.0637254 0.0638417
0.0640933 0.0643424 0.064589 0.0648331 0.0650746 0.0653229 0.0655686 0.0658117 0.0660521 0.06629
0.0664557 0.0666201 0.0667833 0.0669452 0.0671404 0.0672092 0.0672778 0.0673462 0.0674143 0.0674822
0.0677223 0.0679596 0.0681941 0.0684259 0.0686551 0.0688906 0.0691232 0.069353 0.0695802 0.0698048
0.0700353 0.0702631 0.0704881 0.0707104 0.0709302 0.0711438 0.0713548 0.0715635 0.0717697 0.0720313
0.0720339 0.0720366 0.0720392 0.0720419 0.0720445 0.0722623 0.0724774 0.0726899 0.0728999 0.0731075
0.0733232 0.0735362 0.0737466 0.0739544 0.0741598 0.0743705 0.0745785 0.0747837 0.0749865 0.0751871
0.0753932 0.0755969 0.0757981 0.0759967 0.0761926 0.0763932 0.0765908 0.0767858 0.0769787 0.0771697
0.0773666 0.0775618 0.0777536 0.0779422 0.0781278 0.0782531 0.0783768 0.0784997 0.078622 0.0786936
0.078765 0.0788361 0.0789068 0.0789771 0.0790471 -9.99985e-06 -7.99986e-06 -5.99988e-06 -3.99991e-06 -1.99995e-06
0 2.9656e-05 5.93099e-05 8.89613e-05 0.00011861 0.000148256 0.000178633 0.000209006 0.000239374 0.000269737
0.000300094 0.00032923 0.000358358 0.00038748 0.000416594 0.0004457 0.000473636 0.000501564 0.000529485 0.000557399
0.000585306 0.000612092 0.000638871 0.000665644 0.000692412 0.000719173 0.000744859 0.000770539 0.000796214 0.000821883
0.000847547 0.00087218 0.000896808 0.000921431 0.000946049 0.000970662 0.000994287 0.00101791 0.00104152 0.00106514
0.00108874 0.0011114 0.00113406 0.00115671 0.00117936 0.001202 0.00122374 0.00124547 0.0012672 0.00128892
0.00131065 0.0013315 0.00135234 0.00137319 0.00139403 0.00141487 0.00143487 0.00145487 0.00147487 0.00149486
0.00151486 0.00153405 0.00155324 0.00157242 0.00159161 0.00161079 0.0016292 0.00164761 0.00166603 0.00168443
0.00170284 0.00172051 0.00173818 0.00175584 0.00177351 0.00179117 0.00180813 0.00182508 0.00184204 0.00185899
0.00187594 0.00189221 0.00190848 0.00192475 0.00194102 0.00195729 0.00197291 0.00198852 0.00200414 0.00201976
0.00203537 0.00204579 0.00205622 0.00206664 0.00207707 0.00208749 0.00209799 0.0021085 0.002119 0.0021295
0.00214001 0.00215059 0.00216117 0.00217176 0.00218234 0.00219292 0.00220359 0.00221425 0.00222492 0.00223558
0.00224625 0.00225699 0.00226774 0.00227849 0.00228923 0.00229998 0.00231081 0.00232163 0.00233246 0.00234329
0.00235412 0.00236503 0.00237594 0.00238686 0.00239777 0.00240868 0.00241967 0.00243067 0.00244167 0.00245266
0.00246366 0.00247474 0.00248582 0.0024969 0.00250798 0.00251906 0.00253023 0.00254139 0.00255256 0.00256373
0.00257489 0.00258614 0.0025974 0.00260865 0.0026199 0.00263116 0.0026425 0.00265384 0.00266518 0.00267652
0.00268786 0.00269929 0.00271072 0.00272215 0.00273357 0.002745 0.00275652 0.00276804 0.00277956 0.00279108
0.00280259 0.0028142 0.00282581 0.00283742 0.00284903 0.00286064 0.00287233 0.00288403 0.00289573 0.00290743
0.00291913 0.00293092 0.00294271 0.0029545 0.00296629 0.00297808 0.00298997 0.00300185 0.00301373 0.00302562
0.0030375 0.00304947 0.00306145 0.00307343 0.0030854 0.00309738 0.00310945 0.00312152 0.00313358 0.00314565
0.00315772 0.00316989 0.00318205 0.00319421 0.00320637 0.00321854 0.00323079 0.00324305 0.00325531 0.00326756
0.00327982 0.00329217 0.00330452 0.00331687 0.00332923 0.00334158 0.00335402 0.00336647 0.00337891 0.00339136
0.00340381 0.00341635 0.00342889 0.00344143 0.00345397 0.00346651 0.00347915 0.00349179 0.00350442 0.00351706
0.00352969 0.00354243 0.00355516 0.00356789 0.00358063 0.00359336 0.00360619 0.00361902 0.00363185 0.00364468
0.00365751 0.00366532 0.00367313 0.00368094 0.00368876 0.00369656 0.00370168 0.0037068 0.00371191 0.00371703
0.00372215 0.00373517 0.0037482 0.00376122 0.00377425 0.00378727 0.0038004 0.00381353 0.00382665 0.00383978
0.0038529 0.00386613 0.00387935 0.00389258 0.0039058 0.00391903 0.00393235 0.00394568 0.00395901 0.00397233
0.00398566 0.00399909 0.00401252 0.00402595 0.00403937 0.0040528 0.00406634 0.00407987 0.0040934 0.00410693
0.00412046 0.0041341 0.00414773 0.00416137 0.00417501 0.00418864 0.00420238 0.00421612 0.00422986 0.0042436
0.00425734 0.00427119 0.00428504 0.00429888 0.00431273 0.00432658 0.00434053 0.00435449 0.00436844 0.00438239
0.00439635 0.00441041 0.00442447 0.00443853 0.00445259 0.00446665 0.00448082 0.00449499 0.00450916 0.00452333
0.0045375 0.00455178 0.00456606 0.00458033 0.00459461 0.00460889 0.00462328 0.00463767 0.00465206 0.00466645
0.00468083 0.00469533 0.00470983 0.00472433 0.00473883 0.00475333 0.00476794 0.00478255 0.00479716 0.00481177
0.00482638 0.0048411 0.00485582 0.00487055 0.00488527 0.00489999 0.00491482 0.00492966 0.00494449 0.00495933
0.00497416 0.00498911 0.00500406 0.005019 0.00503395 0.0050489 0.00506396 0.00507902 0.00509408 0.00510914
0.0051242 0.00513938 0.00515456 0.00516973 0.00518491 0.00520008 0.00521538 0.00523067 0.00524596 0.00526125
0.00527654 0.00529195 0.00530736 0.00532277 0.00533817 0.00535358 0.00536911 0.00538463 0.00540015 0.00541568
0.0054312 0.00544685 0.00546249 0.00547813 0.00549377 0.00550941 0.00552518 0.00554094 0.0055567 0.00557246
0.00558822 0.00560411 0.00561999 0.00563587 0.00565175 0.00566763 0.00568364 0.00569964 0.00571564 0.00573164
0.00574764 0.00576377 0.0057799 0.00579602 0.00581215 0.00582827 0.00584452 0.00586077 0.00587702 0.00589327
0.00590952 0.00591755 0.00592559 0.00593363 0.00594167 0.00594965 0.005958 0.00596635 0.00597469 0.00598304
0.00599139 0.00600789 0.00602439 0.00604089 0.00605739 0.00607389 0.00609052 0.00610715 0.00612378 0.00614041
0.00615704 0.00617381 0.00619057 0.00620732 0.00622408 0.00624084 0.00625774 0.00627463 0.00629153 0.00630842
0.00632531 0.00634235 0.00635937 0.0063764 0.00639342 0.00641045 0.00642763 0.00644479 0.00646195 0.00647911
0.00649627 0.0065136 0.0065309 0.00654819 0.00656549 0.0065828 0.00660027 0.00661772 0.00663516 0.0066526
0.00667005 0.00668767 0.00670527 0.00672285 0.00674043 0.00675803 0.00677581 0.00679355 0.00681128 0.00682901
0.00684676 0.00686469 0.00688259 0.00690047 0.00691834 0.00693626 0.00695435 0.00697241 0.00699044 0.00700847
0.00702654 0.0070448 0.00706302 0.00708121 0.0070994 0.00711764 0.00713606 0.00715445 0.0071728 0.00719116
0.00720957 0.00722816 0.00724672 0.00726524 0.00728377 0.00730235 0.00732111 0.00733984 0.00735854 0.00737725
0.007396 0.00741494 0.00743385 0.00745273 0.00747162 0.00749055 0.00750968 0.00752877 0.00754784 0.00756693
0.00758604 0.00760535 0.00762463 0.0076439 0.00766318 0.00768248 0.00770198 0.00772145 0.00774092 0.0077604
0.00777989 0.00779959 0.00781926 0.00783893 0.00785862 0.00787832 0.00789822 0.00791809 0.00793798 0.00795788
0.00797779 0.00799789 0.00801798 0.00803808 0.0080582 0.00807832 0.00809246 0.0081066 0.00812075 0.0081349
0.00814864 0.0081549 0.00816116 0.00816743 0.00817369 0.00817996 0.00820049 0.00822102 0.00824157 0.00826213
0.00828271 0.00830348 0.00832425 0.00834503 0.00836582 0.00838663 0.00840765 0.00842865 0.00844967 0.0084707
0.00849175 0.00851302 0.00853426 0.00855552 0.00857679 0.00859809 0.00861961 0.00864112 0.00866262 0.00868414
0.0087057 0.00872749 0.00874925 0.00877101 0.00879278 0.0088146 0.00883666 0.00885869 0.0088807 0.00890274
0.00892483 0.00894716 0.00896946 0.00899175 0.00901405 0.00903642 0.00905903 0.00908161 0.00910418 0.00912676
0.00914941 0.0091723 0.00919517 0.00921802 0.00924089 0.00926383 0.009287 0.00931016 0.00933332 0.00935649
0.00937972 0.00940319 0.00942664 0.00945011 0.00947359 0.00949712 0.00952089 0.00954464 0.00956842 0.00959222
0.00961605 0.00964013 0.0096642 0.0096883 0.00971242 0.00973658 0.00976097 0.00978537 0.00980979 0.00983425
0.00985873 0.00986478 0.00987083 0.00987687 0.00988293 0.00988892 0.00990761 0.00992633 0.00994506 0.0099638