# vtk DataFile Version 2.0
tracks
ASCII
DATASET POLYDATA
POINTS 12025 float
-0.0206 0.000999969 1e-05 -0.02058 0.000999971 1e-05 -0.02056 0.000999975 1e-05 -0.02054 0.000999981
1e-05 -0.02052 0.00099999 1e-05 -0.0205 0.001 1e-05 -0.0202034 0.00100015 1e-05
-0.0199069 0.00100059 1e-05 -0.0196103 0.00100129 1e-05 -0.0193137 0.00100227 1e-05 -0.0190172
0.00100351 1e-05 -0.0187132 0.00100501 1e-05 -0.0184093 0.00100663 1e-05 -0.0181054 0.00100833
1e-05 -0.0178015 0.00101012 1e-05 -0.0174976 0.00101199 1e-05 -0.0172058 0.00101386 1e-05
-0.016914 0.00101575 1e-05 -0.0166222 0.00101767 1e-05 -0.0163305 0.00101962 1e-05 -0.0160387
0.00102159 1e-05 -0.0158861 0.00102264 1e-05 -0.0157334 0.00102369 1e-05 -0.0155808 0.00102475
1e-05 -0.0154282 0.00102581 1e-05 -0.0152851 0.00102682 1e-05 -0.0151557 0.00102773 1e-05
-0.0150263 0.00102865 1e-05 -0.0148969 0.00102958 1e-05 -0.0147675 0.0010305 1e-05 -0.0146381
0.00103144 1e-05 -0.0143692 0.00103339 1e-05 -0.0141002 0.00103536 1e-05 -0.0138313 0.00103734
1e-05 -0.0135624 0.00103935 1e-05 -0.0132934 0.00104137 1e-05 -0.0130353 0.00104332 1e-05
-0.0127771 0.00104529 1e-05 -0.0125189 0.00104726 1e-05 -0.0122607 0.00104924 1e-05 -0.0120025
0.00105123 1e-05 -0.0117547 0.00105315 1e-05 -0.0115068 0.00105507 1e-05 -0.0112589 0.00105698
1e-05 -0.0110111 0.00105888 1e-05 -0.0107632 0.00106079 1e-05 -0.0105252 0.00106261 1e-05
-0.0102873 0.00106441 1e-05 -0.0100493 0.00106619 1e-05 -0.00981133 0.00106796 1e-05 -0.00957337
0.00106971 1e-05 -0.00934491 0.00107137 1e-05 -0.00911645 0.001073 1e-05 -0.00888799 0.00107462
1e-05 -0.00865954 0.00107621 1e-05 -0.00843108 0.00107778 1e-05 -0.00821175 0.00107927 1e-05
-0.00799242 0.00108073 1e-05 -0.00777309 0.00108218 1e-05 -0.00755376 0.00108362 1e-05 -0.00733443
0.00108503 1e-05 -0.00712387 0.00108639 1e-05 -0.0069133 0.00108773 1e-05 -0.00670273 0.00108906
1e-05 -0.00649216 0.00109037 1e-05 -0.0062816 0.00109168 1e-05 -0.00607944 0.00109294 1e-05
-0.00587729 0.00109417 1e-05 -0.00567514 0.00109539 1e-05 -0.00547298 0.0010966 1e-05 -0.00527083
0.0010978 1e-05 -0.00507675 0.00109896 1e-05 -0.00488267 0.00110009 1e-05 -0.0046886 0.00110121
1e-05 -0.00449452 0.00110233 1e-05 -0.00430044 0.00110343 1e-05 -0.00411412 0.0011045 1e-05
-0.0039278 0.00110555 1e-05 -0.00374147 0.00110659 1e-05 -0.00355515 0.00110763 1e-05 -0.00336883
0.00110867 1e-05 -0.00318995 0.00110968 1e-05 -0.00301107 0.00111066 1e-05 -0.00283219 0.00111165
1e-05 -0.00265331 0.00111262 1e-05 -0.00247443 0.00111359 1e-05 -0.0023027 0.00111453 1e-05
-0.00213097 0.00111544 1e-05 -0.00195924 0.00111634 1e-05 -0.0017875 0.00111723 1e-05 -0.00161577
0.00111811 1e-05 -0.0014509 0.00111894 1e-05 -0.00128603 0.00111976 1e-05 -0.00112116 0.00112055
1e-05 -0.000956289 0.00112133 1e-05 -0.000791418 0.00112209 1e-05 -0.000633135 0.00112281 1e-05
-0.000474851 0.00112351 1e-05 -0.000316567 0.00112419 1e-05 -0.000158283 0.00112486 1e-05 0
0.00112551 1e-05 0.000105677 0.00112593 1e-05 0.000211355 0.00112635 1e-05 0.000317033 0.00112675
1e-05 0.00042271 0.00112715 1e-05 0.000528387 0.00112754 1e-05 0.000634886 0.00112793 1e-05
0.000741385 0.00112831 1e-05 0.000847885 0.00112867 1e-05 0.000954384 0.00112904 1e-05 0.00106088
0.0011294 1e-05 0.00116821 0.00112976 1e-05 0.00127554 0.00113011 1e-05 0.00138286 0.00113044
1e-05 0.00149019 0.00113077 1e-05 0.00159752 0.0011311 1e-05 0.00170568 0.00113142 1e-05
0.00181384 0.00113173 1e-05 0.001922 0.00113203 1e-05 0.00203016 0.00113231 1e-05 0.00213833
0.00113259 1e-05 0.00224733 0.00113287 1e-05 0.00235633 0.00113313 1e-05 0.00246533 0.00113338
1e-05 0.00257434 0.00113363 1e-05 0.00268334 0.00113386 1e-05 0.00279319 0.00113409 1e-05
0.00290304 0.00113432 1e-05 0.00301289 0.00113453 1e-05 0.00312274 0.00113474 1e-05 0.00323259
0.00113494 1e-05 0.00334329 0.00113514 1e-05 0.003454 0.00113533 1e-05 0.0035647 0.00113552
1e-05 0.0036754 0.0011357 1e-05 0.00378611 0.00113587 1e-05 0.00389767 0.00113604 1e-05
0.00400924 0.00113621 1e-05 0.0041208 0.00113637 1e-05 0.00423237 0.00113653 1e-05 0.00434393
0.00113668 1e-05 0.00445636 0.00113683 1e-05 0.00456879 0.00113697 1e-05 0.00468123 0.00113711
1e-05 0.00479366 0.00113725 1e-05 0.00490609 0.00113738 1e-05 0.0050194 0.00113751 1e-05
0.0051327 0.00113764 1e-05 0.00524601 0.00113776 1e-05 0.00535931 0.00113787 1e-05 0.00547262
0.00113798 1e-05 0.00558681 0.00113809 1e-05 0.005701 0.0011382 1e-05 0.00581518 0.0011383
1e-05 0.00592937 0.00113839 1e-05 0.00604356 0.00113848 1e-05 0.00615863 0.00113857 1e-05
0.00627371 0.00113865 1e-05 0.00638878 0.00113873 1e-05 0.00650386 0.0011388 1e-05 0.00661893
0.00113887 1e-05 0.0067349 0.00113894 1e-05 0.00685087 0.001139 1e-05 0.00696684 0.00113905
1e-05 0.00708281 0.0011391 1e-05 0.00719878 0.00113914 1e-05 0.00731565 0.00113918 1e-05
0.00743252 0.00113921 1e-05 0.00754939 0.00113924 1e-05 0.00766626 0.00113926 1e-05 0.00778313
0.00113928 1e-05 0.00790091 0.00113929 1e-05 0.00801869 0.00113929 1e-05 0.00813647 0.00113929
1e-05 0.00825425 0.00113928 1e-05 0.00837203 0.00113926 1e-05 0.00849073 0.00113924 1e-05
0.00860942 0.00113921 1e-05 0.00872812 0.00113917 1e-05 0.00884682 0.00113913 1e-05 0.00896551
0.00113908 1e-05 0.00908513 0.00113902 1e-05 0.00920475 0.00113895 1e-05 0.00932437 0.00113888
1e-05 0.00944398 0.0011388 1e-05 0.0095636 0.00113871 1e-05 0.00960178 0.00113868 1e-05
0.00963995 0.00113865 1e-05 0.00967813 0.00113862 1e-05 0.0097163 0.00113859 1e-05 0.00975389
0.00113855 1e-05 0.00983638 0.00113848 1e-05 0.00991887 0.0011384 1e-05 0.0100014 0.00113832
1e-05 0.0100839 0.00113823 1e-05 0.0101663 0.00113814 1e-05 0.0102878 0.001138 1e-05
0.0104093 0.00113785 1e-05 0.0105308 0.0011377 1e-05 0.0106523 0.00113753 1e-05 0.0107738
0.00113736 1e-05 0.0108962 0.00113717 1e-05 0.0110186 0.00113697 1e-05 0.0111411 0.00113677
1e-05 0.0112635 0.00113656 1e-05 0.0113859 0.00113633 1e-05 0.0115093 0.00113609 1e-05
0.0116327 0.00113584 1e-05 0.0117561 0.00113559 1e-05 0.0118795 0.00113533 1e-05 0.0120028
0.00113506 1e-05 0.0121272 0.00113475 1e-05 0.0122515 0.00113446 1e-05 0.0123759 0.00113415
1e-05 0.0125002 0.00113383 1e-05 0.0126245 0.0011335 1e-05 0.0127498 0.00113315 1e-05
0.0128752 0.00113279 1e-05 0.0130005 0.00113243 1e-05 0.0131258 0.00113205 1e-05 0.0132511
0.00113167 1e-05 0.0133774 0.00113125 1e-05 0.0135036 0.00113084 1e-05 0.0136299 0.00113042
1e-05 0.0137562 0.00112998 1e-05 0.0138825 0.00112954 1e-05 0.0140098 0.00112906 1e-05
0.014137 0.00112859 1e-05 0.0142643 0.0011281 1e-05 0.0143915 0.00112761 1e-05 0.0145188
0.0011271 1e-05 0.0146471 0.00112657 1e-05 0.0147753 0.00112603 1e-05 0.0149036 0.00112548
1e-05 0.0150318 0.00112492 1e-05 0.0151601 0.00112435 1e-05 0.0152893 0.00112376 1e-05
0.0154186 0.00112316 1e-05 0.0155478 0.00112255 1e-05 0.0156771 0.00112193 1e-05 0.0158063
0.0011213 1e-05 0.0159366 0.00112064 1e-05 0.0160668 0.00111998 1e-05 0.0161971 0.00111931
1e-05 0.0163273 0.00111862 1e-05 0.0164576 0.00111793 1e-05 0.0165889 0.00111722 1e-05
0.0167201 0.0011165 1e-05 0.0168514 0.00111576 1e-05 0.0169827 0.00111501 1e-05 0.0171139
0.00111426 1e-05 0.0172462 0.0011135 1e-05 0.0173785 0.00111271 1e-05 0.0175108 0.00111192
1e-05 0.0176431 0.00111111 1e-05 0.0177754 0.0011103 1e-05 0.0179087 0.00110948 1e-05
0.018042 0.00110865 1e-05 0.0181753 0.00110779 1e-05 0.0183087 0.00110693 1e-05 0.018442
0.00110606 1e-05 0.0185763 0.0011052 1e-05 0.0187107 0.00110431 1e-05 0.018845 0.0011034
1e-05 0.0189794 0.00110248 1e-05 0.0191137 0.00110156 1e-05 0.0192491 0.00110066 1e-05
0.0193845 0.00109972 1e-05 0.0195199 0.00109876 1e-05 0.0196553 0.00109779 1e-05 0.0197907
0.00109683 1e-05 0.0199272 0.00109588 1e-05 0.0200636 0.0010949 1e-05 0.0202001 0.00109389
1e-05 0.0203365 0.00109287 1e-05 0.020473 0.00109187 1e-05 0.0206105 0.00109089 1e-05
0.020748 0.00108987 1e-05 0.0208855 0.00108881 1e-05 0.021023 0.00108775 1e-05 0.0211606
0.00108672 1e-05 0.0212991 0.0010857 1e-05 0.0214377 0.00108464 1e-05 0.0215763 0.00108355
1e-05 0.0217149 0.00108246 1e-05 0.0218535 0.00108139 1e-05 0.0219931 0.00108034 1e-05
0.0221328 0.00107926 1e-05 0.0222724 0.00107814 1e-05 0.0224121 0.00107701 1e-05 0.0225517
0.00107591 1e-05 0.0226925 0.00107484 1e-05 0.0228332 0.00107373 1e-05 0.022974 0.00107258
1e-05 0.0231147 0.00107142 1e-05 0.0232555 0.0010703 1e-05 0.0233973 0.00106921 1e-05
0.0235391 0.00106808 1e-05 0.023681 0.0010669 1e-05 0.0238228 0.00106572 1e-05 0.0239647
0.00106458 1e-05 0.0241076 0.00106347 1e-05 0.0242505 0.00106231 1e-05 0.0243935 0.00106112
1e-05 0.0245364 0.00105992 1e-05 0.0246794 0.00105875 1e-05 0.0248234 0.00105763 1e-05
0.0249675 0.00105645 1e-05 0.0251115 0.00105523 1e-05 0.0252556 0.00105401 1e-05 0.0253996
0.00105283 1e-05 0.0255448 0.00105169 1e-05 0.02569 0.00105049 1e-05 0.0258351 0.00104926
1e-05 0.0259803 0.00104802 1e-05 0.0261255 0.00104682 1e-05 0.0262718 0.00104566 1e-05
0.0264181 0.00104444 1e-05 0.0265644 0.00104319 1e-05 0.0267107 0.00104194 1e-05 0.026857
0.00104072 1e-05 0.0270044 0.00103954 1e-05 0.0271519 0.00103831 1e-05 0.0272993 0.00103704
1e-05 0.0274468 0.00103577 1e-05 0.0275942 0.00103453 1e-05 0.0277428 0.00103333 1e-05
0.0278914 0.00103208 1e-05 0.0280399 0.00103079 1e-05 0.0281885 0.0010295 1e-05 0.0283371
0.00102824 1e-05 0.0284869 0.00102701 1e-05 0.0286366 0.00102574 1e-05 0.0287863 0.00102443
1e-05 0.0289361 0.00102312 1e-05 0.0290858 0.00102184 1e-05 0.0292367 0.00102058 1e-05
0.0293876 0.00101927 1e-05 0.0295385 0.00101794 1e-05 0.0296894 0.00101661 1e-05 0.0298403
0.00101529 1e-05 0.0299924 0.001014 1e-05 0.0301445 0.00101266 1e-05 0.0302966 0.0010113
1e-05 0.0304486 0.00100994 1e-05 0.0306007 0.00100858 1e-05 0.030754 0.00100725 1e-05
0.0309072 0.00100587 1e-05 0.0310605 0.00100447 1e-05 0.0312138 0.00100308 1e-05 0.031367
0.00100167 1e-05 0.0315215 0.0010003 1e-05 0.0316759 0.00099887 1e-05 0.0318304 0.000997436
1e-05 0.0319848 0.000995997 1e-05 0.0321393 0.000994551 1e-05 0.0322949 0.000993122 1e-05
0.0324506 0.000991649 1e-05 0.0326062 0.000990168 1e-05 0.0327619 0.000988681 1e-05 0.0329175
[...]
POINT_DATA 12025
FIELD attributes 4
age 1 12025 float
-9.99837e-06 -7.99848e-06 -5.9987e-06 -3.99902e-06 -1.99946e-06 0 2.96487e-05 5.92774e-05 8.88862e-05 0.000118475 0.000148045
0.000178318 0.000208572 0.000238801 0.000269007 0.000299188 0.000328133 0.000357063 0.000385974 0.000414865 0.000443738
0.00045883 0.000473918 0.000489003 0.000504084 0.00051822 0.000531 0.000543777 0.000556552 0.000569323 0.000582092
0.000608622 0.000635142 0.00066165 0.000688148 0.000714635 0.000740052 0.000765461 0.000790861 0.00081625 0.00084163
0.000865983 0.000890332 0.000914673 0.000939005 0.000963329 0.000986667 0.00101001 0.00103334 0.00105666 0.00107998
0.00110236 0.00112474 0.00114711 0.00116948 0.00119185 0.00121331 0.00123478 0.00125624 0.0012777 0.00129916
0.00131976 0.00134035 0.00136095 0.00138154 0.00140214 0.0014219 0.00144167 0.00146143 0.0014812 0.00150096
0.00151993 0.0015389 0.00155787 0.00157684 0.00159581 0.00161402 0.00163223 0.00165044 0.00166864 0.00168685
0.00170434 0.00172181 0.00173929 0.00175676 0.00177424 0.00179102 0.00180779 0.00182456 0.00184133 0.00185811
0.00187422 0.00189032 0.00190642 0.00192251 0.00193861 0.00195409 0.00196954 0.00198499 0.00200044 0.0020159
0.00202623 0.00203655 0.00204686 0.00205718 0.0020675 0.00207791 0.00208831 0.00209871 0.00210911 0.00211951
0.00213 0.00214049 0.00215097 0.00216145 0.00217194 0.00218252 0.00219308 0.00220365 0.00221421 0.00222478
0.00223545 0.0022461 0.00225675 0.0022674 0.00227805 0.00228881 0.00229954 0.00231028 0.00232102 0.00233177
0.00234261 0.00235343 0.00236426 0.00237509 0.00238592 0.00239686 0.00240778 0.0024187 0.00242962 0.00244054
0.00245157 0.00246258 0.00247359 0.00248461 0.00249563 0.00250675 0.00251786 0.00252897 0.00254008 0.0025512
0.00256242 0.00257362 0.00258483 0.00259605 0.00260726 0.00261858 0.00262989 0.00264121 0.00265252 0.00266384
0.00267527 0.00268669 0.00269811 0.00270953 0.00272096 0.0027325 0.00274402 0.00275556 0.00276709 0.00277864
0.00279028 0.00280193 0.00281358 0.00282523 0.0028369 0.00284866 0.00286043 0.0028722 0.00288398 0.00289577
0.00290766 0.00291955 0.00293146 0.00294337 0.00295529 0.00295909 0.0029629 0.00296671 0.00297052 0.00297427
0.00298251 0.00299075 0.00299899 0.00300724 0.00301549 0.00302766 0.00303984 0.00305202 0.00306421 0.00307642
0.00308876 0.00310108 0.00311342 0.00312576 0.00313812 0.00315063 0.00316312 0.00317561 0.00318812 0.00320064
0.00321333 0.00322598 0.00323865 0.00325133 0.00326402 0.0032769 0.00328973 0.00330257 0.00331543 0.0033283
0.00334137 0.00335438 0.00336741 0.00338046 0.00339352 0.00340679 0.00341999 0.00343322 0.00344646 0.00345972
0.00347319 0.0034866 0.00350003 0.00351348 0.00352694 0.00354062 0.00355424 0.00356788 0.00358154 0.00359522
0.00360912 0.00362297 0.00363682 0.0036507 0.00366462 0.00367874 0.00369281 0.0037069 0.00372101 0.00373516
0.00374951 0.00376382 0.00377814 0.00379249 0.00380687 0.00382146 0.00383602 0.00385058 0.00386516 0.0038798
0.00389462 0.00390943 0.00392423 0.00393907 0.00395395 0.00396902 0.00398407 0.00399913 0.00401422 0.00402935
0.00404467 0.00405998 0.0040753 0.00409064 0.00410603 0.0041216 0.00413717 0.00415274 0.00416835 0.004184
0.00419982 0.00421565 0.00423149 0.00424736 0.00426327 0.00427935 0.00429544 0.00431155 0.00432769 0.00434387
0.0043602 0.00437656 0.00439294 0.00440935 0.00442579 0.00444238 0.00445901 0.00447566 0.00449233 0.00450904
0.00452589 0.00454278 0.0045597 0.00457665 0.00459362 0.00461074 0.00462789 0.00464508 0.0046623 0.00467953
0.00469691 0.00471434 0.00473179 0.00474927 0.00476677 0.00478442 0.00480211 0.00481983 0.00483758 0.00485534
0.00487325 0.0048912 0.00490919 0.0049272 0.00494522 0.0049634 0.00498162 0.00499986 0.00501813 0.00503642
0.00505486 0.00507333 0.00509184 0.00511037 0.00512891 0.00514761 0.00516635 0.00518512 0.0052039 0.00522271
0.00524166 0.00526066 0.00527969 0.00529873 0.00531779 0.005337 0.00535626 0.00537553 0.00539483 0.00541415
0.00543362 0.00545313 0.00547266 0.00549221 0.00551178 0.00553151 0.00555127 0.00557106 0.00559086 0.00561068
0.00563066 0.00565068 0.00567072 0.00569077 0.00571084 0.00573108 0.00575135 0.00577164 0.00579195 0.00581227
0.00583277 0.00585329 0.00587383 0.00589439 0.00591497 0.00593572 0.00595649 0.00597729 0.0059981 0.00601893
0.00603889 0.00605887 0.00607886 0.00609887 0.00611805 0.00611928 0.0061205 0.00612172 0.00612295 0.00612417
0.00614544 0.00616672 0.00618803 0.00620935 0.00623069 0.00625221 0.00627376 0.00629532 0.0063169 0.0063385
0.00636028 0.00638209 0.00640391 0.00642575 0.00644762 0.00646965 0.00649172 0.00651381 0.00653591 0.00655804
0.00658034 0.00660267 0.00662502 0.00664738 0.00666977 0.00669234 0.00671493 0.00673755 0.00676018 0.00678284
0.00680566 0.00682853 0.00685141 0.00687431 0.00689723 0.00692032 0.00694345 0.0069666 0.00698977 0.00701296
0.00703632 0.00705972 0.00708314 0.00710658 0.00713003 0.00715366 0.00717733 0.00720102 0.00722473 0.00724845
0.00727236 0.00729629 0.00732026 0.00734425 0.00736824 0.00739242 0.00741663 0.00744087 0.00746513 0.00748939
0.00751384 0.00753833 0.00756284 0.00758738 0.00761191 0.00763664 0.0076614 0.00768619 0.007711 0.00773581
0.00776082 0.00778585 0.00781092 0.00783601 0.0078611 0.00788638 0.0079117 0.00793705 0.00796241 0.00798778
0.00801335 0.00803894 0.00806457 0.00809022 0.00811587 0.00814172 0.0081676 0.00819352 0.00821944 0.00824538
0.00827151 0.00829768 0.00832388 0.00835009 0.00837631 0.00840274 0.0084292 0.00845569 0.00848219 0.0085087
0.00853542 0.00856217 0.00858895 0.00861574 0.00864255 0.00866957 0.00869662 0.00872369 0.00875078 0.00877788
0.00880521 0.00883256 0.00885993 0.00888732 0.00891472 0.00894235 0.00897001 0.00899769 0.00902538 0.0090531
0.00908104 0.00910901 0.00913699 0.009165 0.00919302 0.00921704 0.00924108 0.00926513 0.0092892 0.00931181
0.00931636 0.0093209 0.00932545 0.00933 0.00933455 0.00936314 0.00939174 0.00942037 0.00944902 0.00947769
0.0095066 0.00953554 0.0095645 0.00959348 0.00962249 0.00965173 0.00968101 0.00971031 0.00973963 0.00976898
0.00979856 0.00982818 0.00985783 0.0098875 0.00991719 0.00994712 0.00997709 0.0100071 0.0100371 0.0100672
0.0100974 0.0101278 0.0101581 0.0101885 0.0102189 0.0102496 0.0102803 0.010311 0.0103417 0.0103725
0.0104035 0.0104346 0.0104657 0.0104968 0.010528 0.0105594 0.0105908 0.0106223 0.0106538 0.0106854
0.0107171 0.010749 0.0107808 0.0108128 0.0108447 0.0108769 0.0109091 0.0109414 0.0109737 0.011006
0.0110386 0.0110712 0.0111039 0.0111366 0.0111693 0.0112023 0.0112354 0.0112685 0.0113016 0.0113348
0.0113682 0.0114017 0.0114352 0.0114687 0.0115023 0.0115362 0.0115701 0.0116041 0.0116381 0.0116721
0.0116788 0.0116856 0.0116924 0.0116991 0.0117058 0.0117334 0.0117611 0.0117887 0.0118164 0.0118441
0.0118789 0.0119137 0.0119486 0.0119835 0.0120185 0.0120537 0.0120891 0.0121244 0.0121598 0.0121953
0.012231 0.0122668 0.0123027 0.0123386 0.0123746 0.0124108 0.0124471 0.0124835 0.01252 0.0125564
0.0125932 0.01263 0.012667 0.0127039 0.0127409 0.0127782 0.0128156 0.0128531 0.0128906 0.0129281
0.012966 0.0130039 0.0130419 0.01308 0.0131181 0.0131565 0.013195 0.0132336 0.0132722 0.0133109
0.0133499 0.013389 0.0134282 0.0134674 0.0135066 0.0135079 0.0135092 0.0135105 0.0135118 0.0135131
0.0135515 0.0135899 0.0136283 0.0136668 0.0137054 0.0137456 0.0137859 0.0138262 0.0138667 0.0139071
0.013948 0.0139889 0.0140298 0.0140709 0.014112 0.0141535 0.014195 0.0142366 0.0142783 0.01432
0.0143621 0.0144043 0.0144466 0.0144889 0.0145313 0.0145741 0.014617 0.0146599 0.0147029 0.014746
0.0147895 0.014833 0.0148766 0.0149203 0.0149641 0.0150083 0.0150525 0.0150968 0.0151412 0.0151857
0.0151939 0.015202 0.0152102 0.0152184 0.0152265 0.0152633 0.0153001 0.015337 0.015374 0.015411
0.0154566 0.0155023 0.0155481 0.0155939 0.0156399 0.0156862 0.0157327 0.0157792 0.0158258 0.0158725
0.0159196 0.0159668 0.0160141 0.0160614 0.0161089 0.0161568 0.0162048 0.0162528 0.016301 0.0163493
0.016398 0.0164468 0.0164957 0.0165446 0.0165937 0.0166432 0.0166929 0.0167426 0.0167924 0.0168424
0.0168662 0.0168901 0.0169141 0.016938 0.0169615 0.0169883 0.017015 0.0170418 0.0170686 0.0170955
0.0171468 0.0171982 0.0172496 0.0173012 0.0173529 0.0174052 0.0174575 0.0175099 0.0175624 0.017615
0.0176682 0.0177215 0.0177749 0.0178283 0.017882 0.0179362 0.0179904 0.0180448 0.0180993 0.018154
0.0182092 0.0182645 0.01832 0.0183756 0.0184313 0.0184876 0.0185441 0.0186006 0.0186573 0.0187142
0.018721 0.0187277 0.0187345 0.0187412 0.0187479 0.0187987 0.0188496 0.0189006 0.0189517 0.019003
0.0190616 0.0191204 0.0191794 0.0192384 0.0192977 0.0193576 0.0194177 0.0194779 0.0195382 0.0195988
0.01966 0.0197214 0.0197829 0.0198446 0.0199065 0.0199691 0.0200318 0.0200948 0.0201579 0.0202212
0.0202852 0.0203495 0.0204139 0.0204785 0.0205433 0.020553 0.0205627 0.0205723 0.020582 0.0205917
0.0206477 0.0207038 0.0207601 0.0208166 0.0208732 0.0209404 0.0210077 0.0210753 0.021143 0.0212111
0.0212799 0.0213489 0.0214181 0.0214876 0.0215573 0.0216279 0.0216986 0.0217696 0.0218409 0.0219124
0.0219848 0.0220574 0.0221303 0.0222034 0.0222769 0.0223245 0.0223722 0.02242 0.0224679 0.0225148
0.0225421 0.0225694 0.0225967 0.0226241 0.0226515 0.0227278 0.0228044 0.0228812 0.0229584 0.0230359
0.0231143 0.023193 0.023272 0.0233513 0.023431 0.0235116 0.0235925 0.0236738 0.0237553 0.0238373
0.0239202 0.0240034 0.024087 0.024171 0.0242553 0.0243147 0.0243743 0.024434 0.0244939 0.0245526
0.0245792 0.0246059 0.0246326 0.0246593 0.0246861 0.024774 0.0248622 0.0249508 0.0250398 0.0251293
0.0252198 0.0253107 0.025402 0.0254937 0.0255858 0.0256791 0.0257727 0.0258668 0.0259614 0.0260564
0.0261525 0.0262491 0.0263461 0.0264436 0.0265416 0.0265813 0.0266211 0.026661 0.026701 0.0267405
0.0268006 0.0268609 0.0269214 0.026982 0.0270428 0.0271451 0.0272479 0.0273512 0.0274549 0.0275592
0.0276648 0.0277709 0.0278775 0.0279846 0.0280923 0.0282012 0.0283107 0.0284208 0.0285314 0.0286426
0.0287354 0.0288286 0.0289221 0.0290161 0.0291082 0.0291288 0.0291494 0.02917 0.0291907 0.0292114
0.0293276 0.0294445 0.0295618 0.0296798 0.0297984 0.0299184 0.0300391 0.0301603 0.0302822 0.0304047
0.0305286 0.0306532 0.0307785 0.0309044 0.0310309 0.0311584 0.0312866 0.0314154 0.0315449 0.0316716
0.0316728 0.031674 0.0316752 0.0316765 0.0316777 0.03181 0.0319429 0.0320765 0.0322107 0.0323456
0.0324821 0.0326193 0.0327571 0.0328957 0.0330349 0.0331757 0.0333172 0.0334595 0.0336025 0.0337461
0.0338827 0.03402 0.034158 0.0342965 0.0344327 0.0344421 0.0344515 0.0344609 0.0344703 0.0344797
0.0346295 0.03478 0.0349312 0.035083 0.0352356 0.0353898 0.0355448 0.0357005 0.0358569 0.036014
0.0361727 0.0363322 0.0364925 0.0366534 0.0368151 0.0369268 0.037039 0.0371514 0.0372642 0.0373759
0.0374286 0.0374813 0.0375341 0.037587 0.0376399 0.037808 0.0379768 0.0381464 0.0383166 0.0384875
0.0386602 0.0388338 0.0390081 0.0391831 0.0393587 0.0395362 0.0397145 0.0398935 0.0400732 0.0402536
0.0402835 0.0403134 0.0403433 0.0403732 0.0404031 0.0405561 0.0407096 0.0408635 0.0410178 0.0411727
0.0413597 0.0415475 0.041736 0.0419252 0.042115 0.0423067 0.0424991 0.0426923 0.0428861 0.0430805
0.0431736 0.043267 0.0433605 0.0434541 0.0435477 0.0436517 0.043756 0.0438603 0.0439649 0.0440696
0.0442705 0.0444721 0.0446743 0.044877 0.0450803 0.0452854 0.0454913 0.0456978 0.0459048 0.0461121
0.0462551 0.0463983 0.0465418 0.0466855 0.0468312 0.0468978 0.0469644 0.047031 0.0470977 0.0471645
0.0473777 0.0475915 0.0478056 0.0480202 0.0482349 0.0484514 0.0486684 0.0488857 0.0491034 0.0493211
0.0495226 0.0497245 0.0499264 0.0501284 0.0503398 0.0503563 0.0503729 0.0503894 0.050406 0.0504225
0.0506359 0.0508495 0.0510634 0.0512776 0.0514914 0.0517135 0.0519355 0.0521576 0.0523795 0.052601
0.052635 0.0526691 0.0527032 0.0527373 0.0527718 0.0529676 0.0531633 0.0533589 0.0535543 0.0537492
0.0539869 0.0542243 0.0544615 0.0546983 0.054934 0.0549968 0.0550595 0.0551222 0.0551849 0.0552493
0.0554301 0.0556105 0.0557905 0.0559702 0.0561491 0.0563992 0.0566486 0.0568971 0.0571447 0.0573905
0.0574834 0.0575761 0.0576686 0.057761 0.0578587 0.0580178 0.0581763 0.0583344 0.0584919 0.0586486
0.058906 0.0591619 0.0594163 0.0596691 0.0599196 0.0600695 0.0602189 0.0603676 0.0605157 0.0606818
0.0607844 0.0608868 0.0609888 0.0610905 0.0611918 0.0614504 0.0617069 0.0619613 0.0622136 0.0624632
0.0627204 0.0629752 0.0632277 0.0634777 0.0637251 0.0637471 0.063769 0.0637909 0.0638128 0.0638351
0.0640667 0.0642961 0.0645234 0.0647485 0.0649714 0.0652225 0.0654709 0.0657166 0.0659596 0.0662
0.0664468 0.0666909 0.0669322 0.0671707 0.0674065 0.0674292 0.0674519 0.0674745 0.0674972 0.0675205
0.0677385 0.0679542 0.0681676 0.0683786 0.0685875 0.0688246 0.0690588 0.06929 0.0695185 0.0697444
0.0699761 0.070205 0.070431 0.0706542 0.0708748 0.0711012 0.0713247 0.0715454 0.0717633 0.0719787
0.0720168 0.0720547 0.0720926 0.0721304 0.0721705 0.0723509 0.0725294 0.0727061 0.0728809 0.0730541
0.0732698 0.0734828 0.073693 0.0739006 0.0741057 0.0743161 0.0745236 0.0747284 0.0749307 0.0751308
0.0753363 0.0755394 0.0757399 0.0759378 0.076133 0.0763328 0.0765296 0.0767237 0.0769158 0.0771059
0.0773019 0.0774961 0.0776869 0.0778744 0.0780589 0.0781704 0.0782805 0.0783901 0.078499 0.0785683
0.0786503 0.0787317 0.0788127 0.0788932 0.0789732 -9.9999e-06 -7.99991e-06 -5.99992e-06 -3.99994e-06 -1.99997e-06
0 2.96562e-05 5.9311e-05 8.89634e-05 0.000118613 0.000148258 0.000178633 0.000209003 0.000239367 0.000269726
0.000300077 0.000329208 0.000358332 0.000387449 0.000416559 0.000445662 0.000473595 0.000501521 0.000529441 0.000557354
0.000585261 0.000612047 0.000638827 0.000665601 0.000692369 0.000719131 0.000744819 0.0007705 0.000796177 0.000821848
0.000847513 0.000872148 0.000896778 0.000921402 0.000946022 0.000970637 0.000994264 0.00101789 0.0010415 0.00106512
0.00108873 0.00111139 0.00113405 0.0011567 0.00117935 0.001202 0.00122374 0.00124547 0.00126721 0.00128894
0.00131066 0.00133152 0.00135237 0.00137322 0.00139407 0.00141492 0.00143493 0.00145493 0.00147494 0.00149494
0.00151494 0.00153414 0.00155334 0.00157253 0.00159173 0.00161092 0.00162934 0.00164776 0.00166618 0.00168459
0.00170301 0.00172069 0.00173836 0.00175604 0.00177371 0.00179138 0.00180834 0.0018253 0.00184226 0.00185922
0.00187618 0.00189246 0.00190874 0.00192501 0.00194129 0.00195756 0.00197318 0.0019888 0.00200442 0.00202004
0.00203566 0.00204608 0.00205651 0.00206694 0.00207736 0.00208778 0.00209829 0.0021088 0.0021193 0.0021298
0.00214031 0.00215089 0.00216148 0.00217206 0.00218265 0.00219323 0.00220389 0.00221456 0.00222522 0.00223589
0.00224655 0.0022573 0.00226805 0.00227879 0.00228954 0.00230029 0.00231111 0.00232194 0.00233277 0.0023436
0.00235443 0.00236534 0.00237625 0.00238716 0.00239807 0.00240898 0.00241998 0.00243098 0.00244197 0.00245297
0.00246396 0.00247504 0.00248612 0.0024972 0.00250828 0.00251936 0.00253052 0.00254169 0.00255286 0.00256402
0.00257518 0.00258644 0.00259769 0.00260894 0.00262019 0.00263144 0.00264278 0.00265412 0.00266545 0.00267679
0.00268813 0.00269955 0.00271098 0.00272241 0.00273383 0.00274526 0.00275677 0.00276828 0.0027798 0.00279131
0.00280282 0.00281443 0.00282603 0.00283763 0.00284923 0.00286084 0.00287253 0.00288422 0.00289591 0.00290761
0.0029193 0.00293108 0.00294286 0.00295465 0.00296643 0.00297821 0.00299008 0.00300196 0.00301383 0.00302571
0.00303758 0.00304955 0.00306151 0.00307348 0.00308544 0.00309741 0.00310947 0.00312153 0.00313358 0.00314564
0.0031577 0.00316985 0.00318201 0.00319416 0.00320631 0.00321846 0.00323071 0.00324296 0.0032552 0.00326745
0.00327969 0.00329204 0.00330438 0.00331672 0.00332906 0.0033414 0.00335384 0.00336628 0.00337872 0.00339115
0.00340359 0.00341612 0.00342866 0.00344119 0.00345373 0.00346626 0.00347889 0.00349153 0.00350416 0.00351679
0.00352942 0.00354215 0.00355488 0.00356761 0.00358034 0.00359307 0.0036059 0.00361873 0.00363156 0.00364439
0.00365722 0.00366792 0.00367863 0.00368933 0.00370003 0.00371075 0.00371297 0.00371519 0.00371742 0.00371964
0.00372187 0.0037349 0.00374793 0.00376096 0.00377399 0.00378702 0.00380015 0.00381328 0.00382641 0.00383954
0.00385267 0.00386591 0.00387914 0.00389237 0.00390561 0.00391884 0.00393218 0.00394551 0.00395885 0.00397218
0.00398552 0.00399896 0.0040124 0.00402584 0.00403928 0.00405271 0.00406626 0.0040798 0.00409334 0.00410689
0.00412043 0.00413408 0.00414773 0.00416137 0.00417502 0.00418867 0.00420242 0.00421617 0.00422992 0.00424368
0.00425743 0.00427129 0.00428514 0.004299 0.00431286 0.00432672 0.00434068 0.00435464 0.00436861 0.00438257
0.00439653 0.0044106 0.00442467 0.00443874 0.00445281 0.00446688 0.00448106 0.00449524 0.00450941 0.00452359
0.00453776 0.00455205 0.00456633 0.00458062 0.0045949 0.00460918 0.00462358 0.00463797 0.00465236 0.00466675
0.00468114 0.00469564 0.00471014 0.00472464 0.00473914 0.00475364 0.00476825 0.00478286 0.00479747 0.00481208
0.00482668 0.0048414 0.00485612 0.00487084 0.00488556 0.00490028 0.00491511 0.00492994 0.00494476 0.00495959
0.00497442 0.00498936 0.0050043 0.00501924 0.00503418 0.00504912 0.00506417 0.00507922 0.00509427 0.00510933
0.00512438 0.00513954 0.00515471 0.00516987 0.00518504 0.0052002 0.00521548 0.00523076 0.00524604 0.00526132
0.00527659 0.00529199 0.00530738 0.00532278 0.00533817 0.00535356 0.00536908 0.00538459 0.0054001 0.00541561
0.00543112 0.00544675 0.00546237 0.005478 0.00549363 0.00550925 0.005525 0.00554075 0.0055565 0.00557224
0.00558799 0.00560386 0.00561973 0.00563559 0.00565146 0.00566733 0.00568332 0.00569931 0.00571529 0.00573128
0.00574727 0.00576338 0.0057795 0.00579561 0.00581172 0.00582783 0.00584407 0.00586031 0.00587654 0.00589278
0.00590902 0.00592182 0.00593462 0.00594742 0.00596023 0.00597287 0.00597646 0.00598005 0.00598365 0.00598724
0.00599083 0.00600732 0.00602381 0.0060403 0.00605679 0.00607328 0.0060899 0.00610652 0.00612314 0.00613976
0.00615638 0.00617314 0.00618989 0.00620664 0.00622339 0.00624014 0.00625703 0.00627391 0.0062908 0.00630768
0.00632456 0.00634159 0.00635861 0.00637563 0.00639264 0.00640966 0.00642683 0.00644399 0.00646114 0.00647829
0.00649545 0.00651276 0.00653006 0.00654735 0.00656464 0.00658194 0.0065994 0.00661683 0.00663426 0.00665169
0.00666914 0.00668675 0.00670433 0.0067219 0.00673947 0.00675707 0.00677483 0.00679256 0.00681028 0.00682799
0.00684574 0.00686365 0.00688154 0.0068994 0.00691726 0.00693516 0.00695323 0.00697127 0.00698929 0.00700731
0.00702536 0.00704359 0.00706179 0.00707997 0.00709814 0.00711636 0.00713475 0.00715312 0.00717145 0.00718979
0.00720817 0.00722673 0.00724526 0.00726376 0.00728226 0.00730081 0.00731954 0.00733824 0.00735691 0.00737558
0.0073943 0.0074132 0.00743208 0.00745092 0.00746978 0.00748867 0.00750775 0.0075268 0.00754584 0.00756488
0.00758395 0.00760321 0.00762244 0.00764166 0.0076609 0.00768015 0.0076996 0.00771902 0.00773843 0.00775786
0.0077773 0.00779694 0.00781654 0.00783616 0.00785579 0.00787542 0.00789526 0.00791507 0.00793489 0.00795472
0.00797456 0.0079946 0.00801461 0.00803464 0.00805469 0.00807474 0.00809497 0.0081152 0.00813545 0.0081557
0.00817597 0.00817654 0.00817711 0.00817768 0.00817826 0.00817883 0.0081987 0.00821858 0.00823847 0.00825837
0.00827829 0.00829897 0.00831964 0.00834033 0.00836103 0.00838175 0.00840266 0.00842357 0.00844449 0.00846542
0.00848636 0.00850753 0.00852866 0.00854982 0.00857099 0.00859217 0.00861358 0.00863497 0.00865636 0.00867777
0.00869921 0.00872088 0.00874252 0.00876416 0.00878581 0.00880751 0.00882945 0.00885135 0.00887324 0.00889514
0.00891711 0.00893931 0.00896148 0.00898363 0.0090058 0.00902803 0.0090505 0.00907295 0.00909537 0.00911781
0.00914032 0.00916307 0.00918579 0.0092085 0.00923122 0.00925401 0.00927704 0.00930005 0.00932304 0.00934606
0.00936913 0.00939245 0.00941575 0.00943905 0.00946238 0.00948574 0.00950935 0.00953295 0.00955656 0.0095802
0.00960386 0.00962777 0.00965167 0.0096756 0.00969956 0.00972354 0.00974776 0.00977198 0.00979624 0.00982052
0.00984482 0.00985713 0.00986945 0.00988177 0.0098941 0.00990613 0.00991844 0.00993077 0.0099431 0.00995543
0.00996778 0.00999265 0.0100175 0.0100425 0.0100674 0.0100924 0.0101176 0.0101428 0.0101681 0.0101934