/*--------------------------------*- C++ -*----------------------------------*\
  =========                 |
  \\      /  F ield         | OpenFOAM: The Open Source CFD Toolbox
   \\    /   O peration     | Website:  https://openfoam.org
    \\  /    A nd           | Version:  13
     \\/     M anipulation  |
\*---------------------------------------------------------------------------*/
FoamFile
{
    format      ascii;
    class       volScalarField;
    location    "2.2";
    object      k;
}
// * * * * * * * * * * * * * * * * * * * * * * * * * * * * * * * * * * * * * //

dimensions      [0 2 -2 0 0 0 0];

internalField   nonuniform List<scalar> 
6400
(
2.29902e-07
1.15293e-06
2.55946e-06
4.12207e-06
5.70485e-06
7.30561e-06
8.98028e-06
1.07967e-05
1.28158e-05
1.50885e-05
1.7656e-05
2.05515e-05
2.38122e-05
2.74551e-05
3.14789e-05
3.58686e-05
4.05933e-05
4.56138e-05
5.08818e-05
5.63464e-05
6.1961e-05
6.76927e-05
7.35355e-05
7.95335e-05
8.58159e-05
9.26102e-05
0.000100191
0.000108561
0.00011753
0.000126907
0.000136908
0.000147576
0.000158957
0.00017106
0.000183637
0.000196514
0.000209647
0.000223108
0.000236909
0.000251137
0.000265861
0.000281191
0.000297273
0.00031398
0.000331188
0.000348718
0.000366686
0.000385299
0.00040544
0.000429663
0.000455476
0.000480428
0.000504274
0.000526141
0.000545219
0.000560358
0.000569292
0.000573271
0.000573516
0.000564046
0.000546063
0.000519411
0.000484475
0.00044285
0.000395958
0.000345721
0.000292649
0.000239273
0.000188181
0.000141796
0.000102756
7.23338e-05
4.86542e-05
3.12284e-05
1.91397e-05
1.12004e-05
6.2364e-06
3.21241e-06
1.3418e-06
2.65673e-07
1.1527e-06
9.74441e-06
2.20638e-05
3.52799e-05
4.83718e-05
6.13871e-05
7.47578e-05
8.89626e-05
0.000104407
0.00012141
0.000140214
0.000160997
0.000183844
0.00020881
0.000235874
0.000264918
0.000295754
0.000328165
0.000361909
0.000396757
0.000432535
0.00046917
0.000506733
0.000545543
0.000586321
0.000630142
0.000677995
0.000729473
0.000783335
0.000838536
0.000895552
0.000953707
0.00101269
0.00107203
0.00113047
0.00118712
0.00124183
0.001295
0.00134683
0.00139789
0.00144864
0.00149967
0.00155155
0.00160418
0.00165739
0.00171087
0.0017646
0.00181814
0.00187022
0.00191985
0.001969
0.00201793
0.00206522
0.0021089
0.00214715
0.00217744
0.00219316
0.0021981
0.0021905
0.00216247
0.00211072
0.00203456
0.00193304
0.00180826
0.00166323
0.00149945
0.00132235
0.00113826
0.000954009
0.000776527
0.000610313
0.000459463
0.000330648
0.000226788
0.000147643
9.08093e-05
5.24826e-05
2.77108e-05
1.15257e-05
1.39213e-06
2.65313e-06
2.27709e-05
4.99058e-05
7.68009e-05
0.000102284
0.000127268
0.000152817
0.00017981
0.000208928
0.00024071
0.000275587
0.000313891
0.000355843
0.000401537
0.000450913
0.000503758
0.000559712
0.000618314
0.000679043
0.000741374
0.000804803
0.000868856
0.000933061
0.000996955
0.00106003
0.00112168
0.00118131
0.00123874
0.00129351
0.00134551
0.00139398
0.00143913
0.00148165
0.00152303
0.00156505
0.00160713
0.00164955
0.00169307
0.00173796
0.00178472
0.00183359
0.00188479
0.0019383
0.00199429
0.00205295
0.00211441
0.00217859
0.00224551
0.00231384
0.00238355
0.00245416
0.00252455
0.00259332
0.00265862
0.00271833
0.00276969
0.00280964
0.00283081
0.00283693
0.00282463
0.0027837
0.00271237
0.0026078
0.00246808
0.00229851
0.00210371
0.00188775
0.00165718
0.00142002
0.00118496
0.000960319
0.000753465
0.000570615
0.000415965
0.000290806
0.000193805
0.000121337
6.82268e-05
2.90864e-05
3.45475e-06
4.70411e-06
3.98636e-05
8.3007e-05
0.00012239
0.0001586
0.000193984
0.000230282
0.00026872
0.000310203
0.000355425
0.000404921
0.000459063
0.000518032
0.000581786
0.000650047
0.000722293
0.000797755
0.000875449
0.000954247
0.00103292
0.00111021
0.00118483
0.00125559
0.00132143
0.00138149
0.00143532
0.0014829
0.0015248
0.00156149
0.00159407
0.00162481
0.00165487
0.00168492
0.00171612
0.00174854
0.00178267
0.00181909
0.00185797
0.00189959
0.00194412
0.00199166
0.00204231
0.00209612
0.00215318
0.00221342
0.00227668
0.00234263
0.00241083
0.00248142
0.00255418
0.00262848
0.00270322
0.00277714
0.00284869
0.002916
0.00297697
0.00302891
0.00306722
0.00308553
0.00308882
0.00306816
0.00301662
0.002932
0.0028091
0.00264484
0.00244798
0.00222358
0.00197748
0.00171786
0.00145427
0.00119686
0.000955292
0.000737781
0.000550155
0.000395321
0.000272782
0.000178664
0.000106316
4.7757e-05
5.78094e-06
7.3561e-06
6.10845e-05
0.000120816
0.000172043
0.000218318
0.000263541
0.000310156
0.000359756
0.000413443
0.000471989
0.000535892
0.000605379
0.000680371
0.000760467
0.000844924
0.000932657
0.00102225
0.001112
0.00119998
0.00128417
0.00136261
0.00143357
0.00149583
0.00154876
0.00159242
0.00162769
0.00165575
0.00167875
0.00169912
0.0017181
0.00173745
0.00175728
0.00177874
0.00180233
0.00182817
0.0018566
0.00188761
0.00192106
0.00195733
0.00199651
0.00203865
0.00208379
0.002132
0.00218331
0.0022377
0.00229506
0.00235505
0.00241785
0.00248371
0.00255223
0.00262296
0.00269531
0.0027684
0.00284108
0.00291176
0.00297833
0.00303811
0.00308815
0.00312278
0.00313787
0.00313837
0.00310939
0.00305406
0.00296918
0.00284323
0.00266911
0.00245848
0.00221681
0.00195152
0.00167264
0.00139201
0.00112206
0.000874188
0.000657152
0.000476181
0.000332203
0.000221508
0.000135823
6.3546e-05
7.80203e-06
1.06722e-05
8.64464e-05
0.000163419
0.000226519
0.000282894
0.000338022
0.000395054
0.000455942
0.000521925
0.000593731
0.00067165
0.000755546
0.000844858
0.000938597
0.00103536
0.00113334
0.00123036
0.00132395
0.00141153
0.0014906
0.00155914
0.00161589
0.00166067
0.00169415
0.00171783
0.00173417
0.00174594
0.00175544
0.00176431
0.00177335
0.00178383
0.00179558
0.00180934
0.00182547
0.00184401
0.00186512
0.00188879
0.00191534
0.00194396
0.00197446
0.00200685
0.00204111
0.00207728
0.00211545
0.0021558
0.00219881
0.00224506
0.00229452
0.0023471
0.00240287
0.00246185
0.00252395
0.00258889
0.00265623
0.00272522
0.00279478
0.00286335
0.00292857
0.00298749
0.0030368
0.00306724
0.00307813
0.00306379
0.00301523
0.00293663
0.00281827
0.00264235
0.00242428
0.00216903
0.00188592
0.00158819
0.00129147
0.00101153
0.000761762
0.000551286
0.000383528
0.000255555
0.000157822
7.54569e-05
9.31463e-06
1.47283e-05
0.000115745
0.000210757
0.000286061
0.00035284
0.000418125
0.000485752
0.000557986
0.000636115
0.000720679
0.000811578
0.000908119
0.00100907
0.00111271
0.00121686
0.00131897
0.00141617
0.00150549
0.00158411
0.00164978
0.00170126
0.00173849
0.00176334
0.00177707
0.00178282
0.0017844
0.00178431
0.00178303
0.0017825
0.00178326
0.00178653
0.0017925
0.0018008
0.00181057
0.00182194
0.00183469
0.00184848
0.00186256
0.00187721
0.00189329
0.0019108
0.00192994
0.00195091
0.00197397
0.00199937
0.00202723
0.00205771
0.0020911
0.00212772
0.002168
0.00221233
0.00226117
0.00231487
0.00237366
0.00243757
0.00250632
0.00257931
0.00265549
0.00273286
0.0028088
0.00287886
0.0029383
0.00297277
0.002984
0.00295926
0.00289845
0.00279173
0.0026178
0.00239113
0.00211795
0.00181157
0.00149042
0.00117536
0.000886188
0.000638177
0.000439346
0.000288867
0.000176559
8.47198e-05
1.04412e-05
1.96844e-05
0.000148594
0.000262618
0.000350548
0.000428082
0.000503758
0.000582039
0.00066543
0.000755148
0.000851401
0.000953536
0.00106016
0.00116926
0.00127832
0.00138444
0.00148444
0.00157509
0.00165336
0.00171685
0.00176425
0.00179604
0.00181144
0.00181621
0.00181509
0.0018073
0.00179709
0.00178753
0.0017799
0.00177424
0.00176961
0.00176654
0.00176431
0.00176242
0.00176068
0.00175988
0.00175968
0.00176043
0.00176249
0.00176633
0.00177138
0.00177798
0.00178633
0.00179644
0.00180842
0.00182237
0.00183845
0.00185687
0.0018779
0.00190194
0.00192941
0.00196083
0.00199677
0.00203798
0.00208524
0.00213933
0.00220095
0.00227063
0.00234861
0.00243411
0.00252549
0.00262044
0.00271567
0.00280426
0.00287646
0.00291166
0.00291787
0.00287539
0.00278632
0.00261151
0.00236901
0.00206975
0.0017328
0.00138351
0.00104916
0.000753667
0.000512786
0.000330473
0.000197439
9.36506e-05
1.14967e-05
2.55041e-05
0.000184918
0.000318623
0.000419554
0.000508129
0.000594297
0.000683073
0.000777099
0.000877404
0.000983729
0.00109475
0.0012083
0.00132158
0.00143134
0.00153412
0.00162644
0.0017051
0.00176764
0.00181275
0.00183831
0.00184756
0.00184751
0.0018371
0.0018217
0.00180493
0.00178913
0.00177371
0.00175891
0.00174444
0.0017298
0.00171583
0.00170226
0.00168967
0.00167883
0.00166913
0.00166087
0.00165434
0.00164981
0.00164763
0.00164693
0.00164781
0.00165117
0.00165626
0.00166335
0.00167238
0.00168342
0.00169654
0.00171186
0.00172963
0.00175013
0.00177372
0.00180084
0.00183203
0.00186796
0.00190949
0.00195773
0.00201403
0.00208001
0.00215753
0.0022472
0.00234681
0.00245697
0.0025742
0.00269082
0.00279764
0.00286751
0.0028932
0.00287347
0.00279865
0.00261693
0.00234977
0.00201584
0.00164213
0.00126284
0.000912147
0.00061698
0.000390212
0.000226638
0.000105152
1.28905e-05
3.21788e-05
0.000224383
0.000378197
0.000492396
0.000592155
0.000688723
0.000787569
0.00089137
0.00100085
0.0011152
0.00123236
0.00134939
0.00146278
0.00156873
0.0016635
0.00174367
0.00180654
0.00185062
0.00187238
0.00187847
0.00187281
0.00185604
0.00183448
0.00181206
0.00178793
0.00176304
0.00173764
0.00171251
0.00168801
0.00166491
0.0016428
0.0016221
0.00160339
0.00158707
0.00157308
0.00156175
0.00155318
0.00154744
0.0015447
0.00154386
0.00154501
0.00154908
0.00155495
0.00156285
0.00157258
0.00158412
0.00159748
0.00161277
0.00163004
0.0016494
0.001671
0.00169502
0.00172167
0.00175123
0.0017841
0.00182082
0.00186206
0.00190906
0.00196371
0.00202916
0.00211127
0.00221089
0.0023295
0.0024603
0.00260152
0.00273853
0.00284369
0.00288834
0.00288836
0.00281709
0.0026211
0.00231951
0.00194275
0.00152895
0.00112218
0.000763159
0.0004782
0.000271096
0.000122579
1.50852e-05
3.96562e-05
0.000266513
0.0004406
0.000568166
0.000679072
0.000785727
0.000893959
0.00100637
0.00112332
0.00124335
0.00136372
0.00148078
0.00159047
0.00168868
0.00177172
0.0018367
0.00188113
0.00190179
0.00190623
0.00189652
0.00187484
0.00184848
0.00181825
0.00178495
0.00175017
0.0017155
0.00168198
0.00164922
0.00161789
0.0015886
0.00156161
0.00153754
0.00151689
0.00149992
0.00148667
0.00147711
0.0014717
0.00146958
0.00146939
0.00147236
0.00147781
0.00148548
0.00149492
0.00150606
0.00151873
0.00153289
0.00154854
0.00156564
0.00158422
0.00160434
0.00162609
0.00164958
0.0016749
0.00170214
0.00173141
0.00176301
0.00179696
0.00183382
0.00187436
0.00192018
0.00197379
0.00203885
0.00212253
0.00223653
0.00237684
0.00253424
0.00269883
0.00283723
0.00290147
0.00290873
0.00283411
0.00260996
0.00226244
0.00183671
0.00138318
0.000957432
0.000602925
0.000338004
0.000149803
1.86492e-05
4.78556e-05
0.000310731
0.000504955
0.00064579
0.0007676
0.000883819
0.00100053
0.00112018
0.00124268
0.00136598
0.00148667
0.00160056
0.00170323
0.00179057
0.00185932
0.00190644
0.00192815
0.00193234
0.00192045
0.00189507
0.0018639
0.00182577
0.00178352
0.00174035
0.00169767
0.00165582
0.00161561
0.00157733
0.00154186
0.00150996
0.00148215
0.00145898
0.00144068
0.00142725
0.00141881
0.00141502
0.00141414
0.00141637
0.00142174
0.00142953
0.00143935
0.00145082
0.00146368
0.0014778
0.00149304
0.00150939
0.00152683
0.0015454
0.0015652
0.00158636
0.00160898
0.00163313
0.00165889
0.00168625
0.00171507
0.00174552
0.00177708
0.00180986
0.00184403
0.00188016
0.00191945
0.00196382
0.00201745
0.00208687
0.00218123
0.00231969
0.00249087
0.00267788
0.00284333
0.00292105
0.00293005
0.0028398
0.00256702
0.00216362
0.00168427
0.00119818
0.000768379
0.00043285
0.000190416
2.41545e-05
5.66581e-05
0.000356384
0.000570294
0.000724086
0.000856361
0.000981432
0.00110554
0.00123092
0.00135702
0.00148123
0.0015996
0.00170754
0.00180054
0.00187471
0.00192704
0.00195214
0.00195764
0.00194574
0.00191807
0.0018822
0.00183703
0.00178707
0.00173625
0.00168557
0.00163622
0.0015888
0.0015443
0.00150351
0.0014674
0.00143672
0.00141189
0.00139308
0.00138007
0.00137353
0.00137127
0.00137165
0.00137632
0.00138366
0.00139337
0.0014048
0.00141764
0.00143162
0.00144656
0.00146238
0.00147906
0.00149663
0.00151515
0.00153475
0.00155556
0.00157771
0.00160135
0.00162659
0.00165349
0.00168208
0.00171232
0.00174358
0.00177543
0.00180769
0.00184021
0.00187303
0.00190687
0.00194253
0.00198089
0.00202555
0.0020838
0.00216622
0.00228958
0.00246888
0.00267485
0.00285946
0.00294263
0.00294654
0.00281767
0.00247861
0.00200582
0.00147616
0.000972794
0.00055779
0.000246829
3.20926e-05
6.59068e-05
0.000402757
0.0006356
0.000801827
0.000943947
0.00107702
0.00120735
0.00133692
0.00146473
0.00158769
0.00170144
0.00180122
0.00188261
0.00194209
0.00197341
0.001982
0.00197237
0.00194395
0.00190491
0.00185418
0.00179755
0.00173914
0.00168096
0.00162418
0.00156999
0.00151939
0.00147358
0.00143354
0.00140013
0.00137376
0.00135442
0.00134227
0.00133673
0.00133527
0.0013373
0.00134315
0.00135186
0.00136253
0.00137474
0.00138806
0.00140227
0.00141723
0.00143287
0.00144922
0.00146633
0.00148431
0.00150332
0.00152351
0.00154508
0.00156822
0.00159311
0.00161992
0.00164874
0.0016796
0.00171238
0.00174682
0.00178324
0.00181998
0.00185491
0.00188753
0.00191818
0.00194697
0.00197692
0.00201091
0.00205135
0.00210067
0.00217325
0.00228508
0.00246618
0.00268895
0.00288297
0.00296372
0.00294348
0.00274588
0.00232197
0.00177654
0.00120957
0.000711296
0.000319455
4.27082e-05
7.54249e-05
0.000449114
0.000699854
0.000877801
0.001029
0.00116913
0.00130448
0.00143675
0.00156456
0.00168439
0.00179167
0.00188168
0.00195033
0.00199086
0.00200464
0.00199973
0.00197305
0.00193256
0.00187804
0.00181582
0.00175044
0.00168482
0.00162078
0.00155973
0.00150304
0.00145199
0.00140781
0.00137137
0.00134306
0.00132277
0.00131078
0.00130562
0.00130448
0.0013072
0.00131364
0.00132275
0.00133366
0.0013458
0.00135884
0.00137256
0.00138684
0.00140166
0.00141707
0.00143317
0.00145008
0.00146797
0.00148702
0.00150744
0.00152947
0.00155332
0.00157926
0.00160749
0.00163822
0.00167155
0.00170746
0.00174575
0.00178593
0.0018278
0.00187134
0.00191316
0.00194939
0.00197962
0.00200457
0.00202613
0.00204987
0.00208435
0.0021305
0.0021956
0.00230237
0.00248331
0.00272006
0.00290799
0.00297398
0.00290691
0.00260324
0.00208072
0.00146918
0.000889068
0.000406539
5.58641e-05
8.50231e-05
0.000494729
0.000762078
0.000950866
0.00111028
0.00125646
0.00139566
0.00152928
0.00165557
0.00177075
0.00187016
0.00194932
0.00200246
0.00202475
0.00202614
0.00200477
0.00196484
0.00190894
0.00184239
0.0017709
0.00169815
0.00162678
0.00155869
0.00149552
0.0014388
0.00138988
0.00134973
0.00131876
0.00129674
0.00128391
0.00127842
0.00127718
0.00127973
0.00128605
0.00129489
0.00130539
0.00131692
0.00132914
0.00134186
0.00135501
0.0013686
0.00138269
0.00139741
0.00141289
0.0014293
0.00144683
0.00146567
0.00148605
0.00150821
0.0015324
0.00155893
0.00158808
0.00162015
0.00165537
0.0016939
0.00173573
0.00178061
0.00182793
0.00187661
0.00192657
0.00197578
0.00201839
0.00205029
0.00207298
0.00208737
0.00210095
0.00212452
0.00216715
0.00222689
0.00233302
0.0025193
0.002769
0.00292809
0.00296195
0.00281517
0.00236716
0.00173996
0.00108544
0.000504749
7.1032e-05
9.45107e-05
0.000538919
0.00082138
0.00102
0.00118667
0.00133793
0.00147988
0.00161366
0.00173721
0.00184658
0.00193708
0.0020043
0.00204001
0.00204925
0.00203639
0.00200015
0.00194601
0.00187725
0.00180089
0.00172161
0.00164296
0.00156752
0.00149735
0.00143426
0.00137976
0.00133497
0.00130034
0.00127563
0.00126084
0.00125428
0.00125251
0.00125418
0.00125979
0.0012679
0.00127754
0.00128811
0.00129922
0.00131068
0.00132246
0.00133459
0.00134717
0.00136032
0.0013742
0.00138896
0.00140479
0.00142187
0.00144037
0.00146053
0.00148258
0.00150679
0.00153347
0.00156296
0.00159563
0.00163186
0.00167198
0.00171622
0.0017646
0.00181681
0.00187208
0.00192897
0.00198607
0.00204329
0.00209276
0.00212695
0.00214595
0.00215444
0.00215867
0.0021699
0.00220522
0.00226529
0.00237382
0.00257357
0.00282379
0.00294069
0.00291282
0.00261257
0.00200823
0.00129377
0.000609286
8.74139e-05
0.000103705
0.000581067
0.000876976
0.00108431
0.00125728
0.00141264
0.00155636
0.00168931
0.0018092
0.00191202
0.00199336
0.00204626
0.00206659
0.00206478
0.00203635
0.00198745
0.00191947
0.00184028
0.00175556
0.00166995
0.00158694
0.0015092
0.0014389
0.00137783
0.00132729
0.00128787
0.00125932
0.00124129
0.00123284
0.00123016
0.00123044
0.00123482
0.00124187
0.00125043
0.00125984
0.00126969
0.00127979
0.00129012
0.00130073
0.00131171
0.00132323
0.00133544
0.0013485
0.00136258
0.00137785
0.00139446
0.00141259
0.00143245
0.00145425
0.00147825
0.00150476
0.00153415
0.00156684
0.00160329
0.00164399
0.00168939
0.00173981
0.00179534
0.00185564
0.0019198
0.00198606
0.00205168
0.00211658
0.00217289
0.00220709
0.0022215
0.00222458
0.00222071
0.00221905
0.00224704
0.00230779
0.00242493
0.00264644
0.00286177
0.00293212
0.0027851
0.00225873
0.00150742
0.000715011
0.00010451
0.000112429
0.000620628
0.000928233
0.00114311
0.00132137
0.00147994
0.00162459
0.00175592
0.00187146
0.00196716
0.00203857
0.00207676
0.00208634
0.00207143
0.00203034
0.00196704
0.00188803
0.00179982
0.00170816
0.00161767
0.00153188
0.00145354
0.00138481
0.00132729
0.0012818
0.00124827
0.00122575
0.00121415
0.00120966
0.00120887
0.00121141
0.00121709
0.00122444
0.00123262
0.00124119
0.00124995
0.00125883
0.00126792
0.00127733
0.00128721
0.00129772
0.00130905
0.00132135
0.0013348
0.00134952
0.00136569
0.00138345
0.00140298
0.00142448
0.00144818
0.00147438
0.00150343
0.00153577
0.00157191
0.00161244
0.00165797
0.00170909
0.00176624
0.00182958
0.00189873
0.00197253
0.00204875
0.00212387
0.00219669
0.00225802
0.00228899
0.00229908
0.00229622
0.0022781
0.00226795
0.00228973
0.00235478
0.00248951
0.00273531
0.00287311
0.00286038
0.00247838
0.00172244
0.000821004
0.000121711
0.000120519
0.000657176
0.000974657
0.00119585
0.00137843
0.00153939
0.00168426
0.0018134
0.00192422
0.00201283
0.00207311
0.00209822
0.00209845
0.00207008
0.00201692
0.00194197
0.0018533
0.00175743
0.00166019
0.00156624
0.00147917
0.00140173
0.00133592
0.00128292
0.00124291
0.00121507
0.00119873
0.00119148
0.00118935
0.00118992
0.00119391
0.00119991
0.00120687
0.00121421
0.00122169
0.00122922
0.00123685
0.00124471
0.00125297
0.0012618
0.00127137
0.00128186
0.00129343
0.00130625
0.00132045
0.00133617
0.00135355
0.00137275
0.00139395
0.00141734
0.0014432
0.00147186
0.00150374
0.00153934
0.0015793
0.00162432
0.00167517
0.00173261
0.00179721
0.00186918
0.00194809
0.00203245
0.00211938
0.00220433
0.00228535
0.00234656
0.00237328
0.00237883
0.00236405
0.00232885
0.00231125
0.00233328
0.00240857
0.00257823
0.00279891
0.00287318
0.00265549
0.00193703
0.000932586
0.000139769
0.00012785
0.000690384
0.00101589
0.00124217
0.00142813
0.00159074
0.00173526
0.00186183
0.00196776
0.00204916
0.00209788
0.00211355
0.00210347
0.00206406
0.00199846
0.0019136
0.00181663
0.00171442
0.00161291
0.00151684
0.00142982
0.00135449
0.00129252
0.00124454
0.00121002
0.00118748
0.00117614
0.0011717
0.0011708
0.00117265
0.00117714
0.00118286
0.00118906
0.00119536
0.00120165
0.00120795
0.00121436
0.00122105
0.00122819
0.00123599
0.00124462
0.00125425
0.00126506
0.00127721
0.00129083
0.00130606
0.00132304
0.00134191
0.00136281
0.00138594
0.00141153
0.00143987
0.00147134
0.00150641
0.00154571
0.00158996
0.00164004
0.0016969
0.00176145
0.00183445
0.00191614
0.00200593
0.00210187
0.00220017
0.00229475
0.00238311
0.00243936
0.00245892
0.00245693
0.0024231
0.00237011
0.00234663
0.00237798
0.00247256
0.00268491
0.00281603
0.00275091
0.0021463
0.0010612
0.000160905
0.000134327
0.000720032
0.00105172
0.00128189
0.00147033
0.00163393
0.00177767
0.00190143
0.0020024
0.00207661
0.00211477
0.00212266
0.00210207
0.00205217
0.00197666
0.00188318
0.00177922
0.00167192
0.00156736
0.00147034
0.00138445
0.00131209
0.00125446
0.00121151
0.001182
0.00116451
0.00115653
0.00115387
0.00115373
0.00115636
0.00116077
0.00116588
0.00117115
0.00117635
0.00118145
0.00118654
0.00119176
0.00119728
0.00120331
0.00121003
0.00121767
0.00122637
0.00123633
0.00124771
0.00126065
0.00127532
0.00129183
0.00131033
0.00133095
0.00135387
0.00137928
0.00140743
0.00143864
0.00147336
0.00151213
0.00155566
0.00160485
0.00166074
0.00172448
0.0017972
0.00187981
0.00197257
0.0020746
0.00218329
0.00229365
0.00239788
0.00248954
0.00253456
0.00254606
0.0025272
0.00246747
0.00239972
0.00237621
0.00242432
0.00256581
0.00274947
0.00278392
0.00234794
0.00121857
0.000187809
0.000139887
0.000745998
0.00108207
0.00131494
0.00150504
0.00166906
0.00181168
0.00193259
0.00202897
0.00209581
0.00212507
0.00212624
0.00209677
0.00203673
0.00195265
0.00185183
0.00174209
0.00163083
0.00152429
0.00142732
0.00134338
0.00127451
0.00122135
0.00118319
0.00115817
0.00114474
0.00113901
0.00113739
0.00113786
0.00114073
0.00114474
0.00114907
0.00115334
0.00115743
0.00116136
0.00116526
0.00116928
0.00117361
0.00117847
0.00118405
0.00119057
0.00119823
0.0012072
0.00121768
0.00122983
0.0012438
0.00125975
0.00127783
0.00129815
0.00132089
0.0013462
0.00137431
0.00140547
0.00144007
0.00147857
0.00152163
0.00157009
0.001625
0.00168763
0.00175937
0.00184159
0.00193532
0.00204072
0.00215639
0.00227859
0.00240056
0.00251409
0.00259729
0.00262896
0.00262952
0.00258215
0.0024902
0.00242066
0.00241015
0.00248742
0.00268162
0.00277627
0.00252172
0.00140204
0.000220612
0.000144495
0.00076826
0.00110698
0.00134145
0.00153241
0.00169636
0.00183766
0.00195578
0.00204786
0.00210745
0.00212992
0.0021246
0.0020867
0.00201873
0.00192741
0.00182046
0.00170607
0.00159187
0.00148427
0.00138811
0.00130663
0.00124147
0.00119267
0.00115885
0.0011377
0.00112725
0.00112305
0.00112202
0.00112291
0.00112565
0.00112907
0.00113255
0.00113581
0.0011388
0.00114157
0.00114427
0.00114706
0.00115015
0.00115375
0.00115808
0.00116336
0.00116983
0.00117767
0.00118709
0.00119829
0.00121144
0.00122672
0.00124428
0.00126426
0.00128682
0.0013121
0.00134028
0.00137159
0.00140632
0.00144487
0.00148779
0.00153584
0.00159002
0.0016516
0.0017221
0.00180323
0.00189661
0.00200334
0.00212327
0.0022541
0.00239025
0.00252203
0.0026412
0.00270599
0.00272339
0.00269781
0.00261169
0.00248816
0.00243042
0.00245372
0.00258519
0.00271379
0.00263148
0.00159601
0.000256069
0.00014814
0.000786887
0.00112662
0.0013616
0.00155272
0.00171616
0.00185597
0.00197139
0.00205937
0.00211255
0.00212985
0.00211922
0.00207378
0.0019991
0.00190177
0.00178984
0.00167182
0.00155557
0.00144763
0.00135281
0.00127408
0.0012126
0.0011678
0.00113772
0.00111993
0.00111151
0.0011083
0.00110764
0.00110869
0.0011111
0.00111384
0.00111644
0.00111869
0.00112059
0.0011222
0.00112367
0.00112518
0.00112696
0.00112921
0.00113218
0.0011361
0.00114122
0.00114778
0.00115599
0.00116609
0.00117828
0.00119275
0.0012097
0.00122927
0.00125161
0.00127688
0.00130523
0.00133683
0.00137192
0.00141081
0.00145395
0.00150199
0.00155582
0.00161664
0.00168601
0.00176579
0.00185803
0.00196461
0.00208657
0.00222318
0.0023707
0.00252121
0.00266197
0.00276858
0.00281032
0.00280839
0.00273872
0.00260356
0.00247755
0.00244609
0.00252259
0.00266891
0.00267794
0.00179988
0.000294289
0.000150832
0.000801983
0.00114121
0.0013757
0.00156631
0.00172882
0.00186699
0.00197975
0.0020639
0.00211218
0.00212654
0.00210968
0.00205865
0.00197858
0.00187643
0.00176059
0.00163985
0.0015223
0.00141457
0.0013214
0.00124548
0.00118746
0.00114622
0.00111932
0.00110414
0.00109714
0.00109458
0.00109411
0.00109513
0.00109708
0.00109911
0.00110082
0.00110207
0.00110287
0.0011033
0.00110352
0.00110372
0.00110411
0.00110495
0.00110645
0.00110889
0.00111255
0.00111769
0.00112456
0.00113341
0.0011445
0.00115804
0.00117424
0.0011933
0.00121538
0.00124062
0.00126917
0.00130117
0.00133679
0.00137628
0.00141997
0.00146839
0.0015223
0.00158279
0.00165133
0.00172984
0.00182061
0.00192609
0.00204832
0.002188
0.00234312
0.00250736
0.00266858
0.00281346
0.00289164
0.00291012
0.00286602
0.00273812
0.00255702
0.00246828
0.00248582
0.00262823
0.0026877
0.00200302
0.00033393
0.000152605
0.000813703
0.00115102
0.00138405
0.00157344
0.00173449
0.00187077
0.00198118
0.00206289
0.00210823
0.002119
0.00209745
0.00204201
0.00195779
0.00185197
0.0017332
0.00161053
0.00149227
0.00138513
0.00129376
0.00122052
0.00116562
0.00112743
0.00110315
0.00108991
0.0010839
0.00108173
0.00108135
0.00108218
0.00108361
0.00108494
0.00108572
0.00108595
0.00108569
0.00108495
0.00108389
0.00108273
0.00108168
0.00108112
0.00108106
0.00108196
0.00108406
0.00108767
0.00109308
0.00110057
0.00111042
0.0011229
0.00113825
0.00115668
0.00117839
0.00120355
0.00123229
0.00126474
0.00130102
0.0013413
0.00138582
0.00143498
0.00148939
0.00154999
0.00161813
0.00169566
0.00178499
0.00188891
0.00201027
0.00215111
0.00231132
0.00248679
0.00266764
0.00283704
0.00295938
0.00300409
0.00298755
0.00287564
0.00268024
0.0025117
0.00247532
0.00256745
0.00266377
0.00218669
0.000371537
0.000153508
0.000822205
0.00115623
0.00138664
0.00157412
0.00173385
0.00186907
0.00197821
0.00205786
0.00209961
0.00210784
0.00208302
0.00202442
0.00193724
0.00182882
0.00170803
0.00158414
0.00146563
0.0013593
0.00126969
0.00119889
0.00114668
0.00111102
0.0010888
0.00107696
0.0010716
0.00106965
0.00106928
0.00106982
0.00107072
0.00107119
0.00107118
0.00107047
0.00106912
0.0010672
0.00106488
0.00106236
0.00105988
0.00105772
0.00105618
0.00105559
0.00105606
0.00105808
0.00106195
0.00106798
0.00107649
0.00108779
0.00110215
0.00111983
0.00114107
0.00116605
0.00119493
0.00122782
0.00126481
0.00130602
0.00135158
0.00140178
0.00145707
0.00151822
0.00158641
0.00166337
0.00175148
0.00185373
0.00197353
0.00211399
0.00227668
0.00245965
0.00265501
0.00284699
0.003012
0.00309186
0.00310156
0.00301552
0.00281995
0.00258437
0.00248623
0.00253029
0.00263136
0.00233687
0.000403646
0.000153487
0.000827412
0.00115707
0.00138515
0.0015711
0.00172938
0.00186303
0.00197022
0.00204746
0.00208712
0.00209384
0.00206689
0.00200632
0.00191732
0.00180732
0.00168535
0.00156082
0.00144241
0.00133698
0.001249
0.00118028
0.00113028
0.00109663
0.00107598
0.00106509
0.00106013
0.00105826
0.00105781
0.001058
0.00105823
0.00105808
0.00105722
0.00105558
0.00105319
0.00105012
0.00104657
0.00104272
0.00103883
0.00103519
0.00103207
0.00102987
0.00102894
0.00102932
0.00103161
0.00103612
0.00104322
0.00105323
0.00106649
0.0010833
0.00110393
0.00112862
0.00115753
0.0011908
0.00122851
0.00127071
0.00131746
0.00136892
0.0014254
0.00148749
0.00155618
0.00163302
0.00172028
0.00182099
0.00193891
0.00207802
0.00224143
0.00242938
0.00263658
0.00284936
0.00304596
0.00317086
0.00320642
0.00315139
0.00296726
0.0026935
0.0025191
0.00250858
0.00260747
0.00244263
0.000426812
0.000152983
0.000830291
0.00115538
0.0013802
0.00156339
0.00171945
0.00185114
0.00195683
0.00203277
0.00207147
0.00207745
0.00204948
0.00198807
0.00189833
0.00178772
0.00166531
0.00154068
0.00142262
0.00131808
0.00123147
0.00116443
0.00111614
0.00108397
0.00106444
0.00105414
0.00104937
0.00104746
0.00104683
0.00104663
0.00104634
0.0010455
0.00104386
0.00104133
0.00103794
0.0010338
0.00102907
0.00102396
0.00101873
0.00101368
0.0010091
0.00100533
0.00100281
0.00100184
0.00100253
0.00100551
0.00101114
0.0010198
0.00103186
0.00104767
0.00106756
0.00109181
0.00112064
0.00115419
0.00119255
0.00123573
0.00128375
0.00133663
0.00139455
0.00145791
0.0015275
0.00160466
0.00169147
0.00179092
0.00190693
0.00204409
0.00220676
0.00239729
0.00261306
0.0028432
0.00306612
0.00323724
0.0033042
0.00328138
0.0031164
0.002829
0.00256513
0.00250075
0.00257802
0.00250585
0.00044062
0.00015168
0.000830328
0.00115056
0.00137074
0.00155087
0.00170476
0.00183487
0.00193935
0.00201447
0.00205308
0.00205906
0.00203111
0.00196992
0.00188048
0.00177016
0.00164803
0.00152373
0.00140619
0.00130246
0.00121692
0.00115111
0.00110401
0.00107285
0.00105401
0.001044
0.00103926
0.0010372
0.00103631
0.00103575
0.00103493
0.00103346
0.00103109
0.00102774
0.00102344
0.0010183
0.00101249
0.00100622
0.000999768
0.000993412
0.000987475
0.000982297
0.000978231
0.000975839
0.000975186
0.000976633
0.000980797
0.000988069
0.000998858
0.00101357
0.00103258
0.00105624
0.00108482
0.00111851
0.00115741
0.00120154
0.00125083
0.00130523
0.00136476
0.00142965
0.00150048
0.00157835
0.00166515
0.00176369
0.00187792
0.00201282
0.00217377
0.00236492
0.00258629
0.00282974
0.00307532
0.00328968
0.0033957
0.00340379
0.0032666
0.00297747
0.00263999
0.00250203
0.0025502
0.00253581
0.000446881
0.000149802
0.000828964
0.00114233
0.00135796
0.00153476
0.00168626
0.00181477
0.00191828
0.00199304
0.0020323
0.00203899
0.00201203
0.00195206
0.00186389
0.00175471
0.00163353
0.00150997
0.00139308
0.00129001
0.0012052
0.00114014
0.00109373
0.0010631
0.00104459
0.00103458
0.0010297
0.00102741
0.00102624
0.0010253
0.001024
0.00102195
0.00101892
0.00101483
0.00100972
0.0010037
0.000996931
0.000989641
0.000982095
0.000974587
0.000967439
0.000960993
0.000955608
0.000951709
0.000949896
0.000949927
0.000952665
0.000958551
0.00096803
0.000981557
0.000999575
0.00102249
0.00105066
0.00108433
0.00112363
0.00116858
0.0012191
0.00127505
0.00133631
0.00140293
0.00147528
0.00155422
0.00164139
0.00173939
0.00185209
0.00198467
0.00214325
0.0023336
0.00255832
0.00281243
0.00307842
0.00332578
0.00348049
0.0035174
0.00341318
0.00313045
0.00274442
0.00252448
0.00252755
0.00254738
0.000449133
0.000147465
0.000825579
0.00113179
0.00134239
0.00151556
0.0016645
0.00179138
0.00189411
0.00196889
0.00200944
0.00201751
0.00199242
0.00193461
0.00184861
0.0017414
0.00162177
0.00149932
0.00138321
0.00128065
0.00119621
0.00113141
0.00108519
0.00105463
0.00103606
0.00102582
0.00102064
0.00101806
0.00101659
0.00101528
0.00101353
0.00101096
0.00100735
0.00100263
0.000996831
0.000990054
0.000982473
0.000974315
0.000965843
0.000957354
0.00094917
0.000941633
0.000935104
0.000929962
0.000926801
0.000925762
0.000927137
0.000931676
0.000939845
0.000952142
0.000969072
0.000991118
0.00101871
0.00105217
0.0010917
0.00113735
0.00118901
0.00124648
0.00130952
0.00137801
0.00145209
0.0015324
0.00162028
0.00171811
0.00182958
0.00195991
0.00211573
0.00230411
0.00253008
0.0027921
0.00307636
0.00335208
0.00355463
0.00362468
0.00355578
0.0032845
0.00287347
0.0025551
0.00250669
0.00254962
0.000449509
0.00014456
0.000819998
0.0011192
0.00132448
0.00149377
0.00163999
0.00176521
0.00186728
0.00194241
0.00198477
0.00199486