/*--------------------------------*- C++ -*----------------------------------*\
  =========                 |
  \\      /  F ield         | OpenFOAM: The Open Source CFD Toolbox
   \\    /   O peration     | Website:  https://openfoam.org
    \\  /    A nd           | Version:  13
     \\/     M anipulation  |
\*---------------------------------------------------------------------------*/
FoamFile
{
    format      ascii;
    class       volScalarField;
    location    "2.2";
    object      nut;
}
// * * * * * * * * * * * * * * * * * * * * * * * * * * * * * * * * * * * * * //

dimensions      [0 2 -1 0 0 0 0];

internalField   nonuniform List<scalar> 
6400
(
4.04392e-10
2.02807e-09
4.50277e-09
7.25247e-09
1.0038e-08
1.28557e-08
1.58042e-08
1.90031e-08
2.256e-08
2.6564e-08
3.10874e-08
3.61878e-08
4.19296e-08
4.83425e-08
5.54228e-08
6.31435e-08
7.14503e-08
8.02739e-08
8.95301e-08
9.91295e-08
1.08991e-07
1.19058e-07
1.29322e-07
1.39861e-07
1.50906e-07
1.62858e-07
1.76201e-07
1.90928e-07
2.06704e-07
2.23196e-07
2.4079e-07
2.59556e-07
2.79577e-07
3.00865e-07
3.22983e-07
3.45621e-07
3.6871e-07
3.92372e-07
4.16629e-07
4.41637e-07
4.67517e-07
4.94461e-07
5.22727e-07
5.52097e-07
5.82347e-07
6.13165e-07
6.4476e-07
6.77491e-07
7.12916e-07
7.55527e-07
8.0093e-07
8.4483e-07
8.86791e-07
9.2528e-07
9.58876e-07
9.85555e-07
1.00131e-06
1.00836e-06
1.00885e-06
9.92279e-07
9.60714e-07
9.13901e-07
8.52499e-07
7.79291e-07
6.96807e-07
6.08461e-07
5.15116e-07
4.21224e-07
3.31332e-07
2.49704e-07
1.80979e-07
1.27422e-07
8.57246e-08
5.50318e-08
3.37338e-08
1.97424e-08
1.09922e-08
5.66136e-09
2.36432e-09
4.68101e-10
2.02761e-09
1.72649e-07
6.02359e-07
1.06156e-06
1.48649e-06
1.87835e-06
2.25511e-06
2.63421e-06
3.02591e-06
3.43328e-06
3.8536e-06
4.2797e-06
4.69918e-06
5.10342e-06
5.48499e-06
5.83651e-06
6.15287e-06
6.43204e-06
6.67269e-06
6.87415e-06
7.03662e-06
7.16166e-06
7.25302e-06
7.31936e-06
7.37806e-06
7.45914e-06
7.60085e-06
7.77934e-06
7.97223e-06
8.15436e-06
8.3849e-06
8.66802e-06
9.01734e-06
9.44865e-06
9.93668e-06
1.04697e-05
1.10394e-05
1.16486e-05
1.22916e-05
1.29674e-05
1.36717e-05
1.43998e-05
1.51794e-05
1.60152e-05
1.68992e-05
1.77906e-05
1.86864e-05
1.95604e-05
2.03789e-05
2.11139e-05
2.18048e-05
2.2509e-05
2.31908e-05
2.38434e-05
2.44558e-05
2.50257e-05
2.53637e-05
2.56335e-05
2.57909e-05
2.57818e-05
2.55173e-05
2.50007e-05
2.42068e-05
2.31528e-05
2.18825e-05
2.03394e-05
1.85652e-05
1.66017e-05
1.4501e-05
1.23244e-05
1.00484e-05
7.71361e-06
5.61196e-06
3.88822e-06
2.5708e-06
1.62388e-06
9.77673e-07
5.34067e-07
1.84004e-07
2.45305e-09
4.66709e-09
5.68714e-07
2.55072e-06
4.87443e-06
6.80281e-06
8.35839e-06
9.66113e-06
1.08158e-05
1.18818e-05
1.28781e-05
1.38001e-05
1.46356e-05
1.53721e-05
1.60033e-05
1.65272e-05
1.69407e-05
1.72479e-05
1.74629e-05
1.75972e-05
1.76626e-05
1.76713e-05
1.76362e-05
1.7571e-05
1.74909e-05
1.7411e-05
1.73423e-05
1.7297e-05
1.7348e-05
1.75248e-05
1.7873e-05
1.83104e-05
1.88048e-05
1.93264e-05
1.9858e-05
2.06041e-05
2.15076e-05
2.24933e-05
2.35808e-05
2.47504e-05
2.59989e-05
2.73177e-05
2.87055e-05
3.00948e-05
3.14489e-05
3.27581e-05
3.40719e-05
3.53641e-05
3.66363e-05
3.7851e-05
3.90304e-05
4.01707e-05
4.12747e-05
4.23216e-05
4.33e-05
4.41892e-05
4.49596e-05
4.5623e-05
4.60377e-05
4.62207e-05
4.6395e-05
4.62036e-05
4.56555e-05
4.46984e-05
4.32275e-05
4.13353e-05
3.90957e-05
3.64883e-05
3.3533e-05
3.02693e-05
2.67532e-05
2.30387e-05
1.9215e-05
1.54508e-05
1.19403e-05
8.83969e-06
6.25051e-06
4.16117e-06
2.40392e-06
7.17407e-07
6.08842e-09
8.27561e-09
1.07607e-06
4.92344e-06
9.3489e-06
1.28556e-05
1.54955e-05
1.75399e-05
1.91942e-05
2.05787e-05
2.17559e-05
2.27544e-05
2.35851e-05
2.42534e-05
2.47654e-05
2.51307e-05
2.5366e-05
2.54857e-05
2.5501e-05
2.54293e-05
2.52907e-05
2.51072e-05
2.4903e-05
2.47042e-05
2.45381e-05
2.44322e-05
2.44139e-05
2.45102e-05
2.47738e-05
2.51248e-05
2.54939e-05
2.604e-05
2.68255e-05
2.77576e-05
2.8901e-05
3.0095e-05
3.1318e-05
3.26212e-05
3.39683e-05
3.53449e-05
3.67342e-05
3.81177e-05
3.94774e-05
4.07911e-05
4.20572e-05
4.32762e-05
4.44504e-05
4.55641e-05
4.66097e-05
4.76038e-05
4.85583e-05
4.94711e-05
5.03324e-05
5.11309e-05
5.18579e-05
5.25042e-05
5.30657e-05
5.35344e-05
5.38349e-05
5.39166e-05
5.3853e-05
5.35104e-05
5.29149e-05
5.21216e-05
5.08921e-05
4.90338e-05
4.67821e-05
4.41742e-05
4.12049e-05
3.78882e-05
3.42548e-05
3.03529e-05
2.62535e-05
2.20664e-05
1.79222e-05
1.39989e-05
1.04521e-05
7.3352e-06
4.41732e-06
1.28244e-06
1.01869e-08
1.29426e-08
1.70369e-06
7.4372e-06
1.36101e-05
1.8334e-05
2.17377e-05
2.42267e-05
2.6115e-05
2.75981e-05
2.87869e-05
2.97414e-05
3.04938e-05
3.10623e-05
3.14602e-05
3.17e-05
3.17971e-05
3.17683e-05
3.1633e-05
3.14158e-05
3.11449e-05
3.08523e-05
3.0573e-05
3.03439e-05
3.02008e-05
3.01748e-05
3.03047e-05
3.04911e-05
3.07741e-05
3.13258e-05
3.20477e-05
3.30821e-05
3.41249e-05
3.52641e-05
3.64902e-05
3.76999e-05
3.89407e-05
4.02171e-05
4.14265e-05
4.26147e-05
4.37607e-05
4.48592e-05
4.59055e-05
4.68987e-05
4.78425e-05
4.87374e-05
4.95812e-05
5.03615e-05
5.10912e-05
5.17871e-05
5.24447e-05
5.30597e-05
5.36288e-05
5.41456e-05
5.46017e-05
5.49853e-05
5.52798e-05
5.54651e-05
5.55273e-05
5.53739e-05
5.50881e-05
5.48026e-05
5.39865e-05
5.29449e-05
5.19819e-05
5.08064e-05
4.89036e-05
4.66148e-05
4.39735e-05
4.09623e-05
3.75913e-05
3.3898e-05
2.99413e-05
2.58021e-05
2.15844e-05
1.74259e-05
1.34723e-05
9.7783e-06
6.03292e-06
1.74627e-06
1.37452e-08
1.87797e-08
2.45614e-06
1.00654e-05
1.77191e-05
2.33628e-05
2.72857e-05
3.00347e-05
3.20223e-05
3.35102e-05
3.46514e-05
3.55303e-05
3.61915e-05
3.66584e-05
3.6945e-05
3.70644e-05
3.7033e-05
3.68721e-05
3.66083e-05
3.62746e-05
3.59084e-05
3.55517e-05
3.52491e-05
3.50476e-05
3.4986e-05
3.5005e-05
3.51246e-05
3.54463e-05
3.60937e-05
3.69533e-05
3.78394e-05
3.88809e-05
3.99106e-05
4.09693e-05
4.20215e-05
4.30343e-05
4.40726e-05
4.50858e-05
4.60438e-05
4.69478e-05
4.77731e-05
4.85232e-05
4.91959e-05
4.97934e-05
5.03196e-05
5.07815e-05
5.11983e-05
5.15929e-05
5.19602e-05
5.22925e-05
5.2592e-05
5.28586e-05
5.30931e-05
5.32945e-05
5.34611e-05
5.35904e-05
5.36785e-05
5.37199e-05
5.37046e-05
5.36191e-05
5.3462e-05
5.30441e-05
5.26919e-05
5.2016e-05
5.08363e-05
4.96149e-05
4.85737e-05
4.6734e-05
4.45659e-05
4.19831e-05
3.8974e-05
3.5572e-05
3.18381e-05
2.7853e-05
2.3715e-05
1.9541e-05
1.54477e-05
1.14499e-05
7.14725e-06
2.07094e-06
1.64052e-08
2.59207e-08
3.31341e-06
1.27614e-05
2.17188e-05
2.80836e-05
3.23625e-05
3.52501e-05
3.72541e-05
3.86954e-05
3.97606e-05
4.05497e-05
4.1112e-05
4.14704e-05
4.16383e-05
4.16295e-05
4.14642e-05
4.11703e-05
4.07832e-05
4.03451e-05
3.99026e-05
3.95053e-05
3.91977e-05
3.90434e-05
3.89536e-05
3.89804e-05
3.93361e-05
3.99571e-05
4.06425e-05
4.14604e-05
4.22995e-05
4.3227e-05
4.41738e-05
4.51265e-05
4.6022e-05
4.6839e-05
4.7601e-05
4.83337e-05
4.88833e-05
4.93391e-05
4.97218e-05
5.00439e-05
5.03118e-05
5.05353e-05
5.07233e-05
5.08816e-05
5.10078e-05
5.10994e-05
5.11571e-05
5.11815e-05
5.11762e-05
5.11445e-05
5.10905e-05
5.1019e-05
5.09344e-05
5.08415e-05
5.07441e-05
5.0645e-05
5.0545e-05
5.04383e-05
5.03148e-05
5.0152e-05
4.99488e-05
4.94831e-05
4.9121e-05
4.81692e-05
4.70016e-05
4.59668e-05
4.43657e-05
4.22834e-05
3.96772e-05
3.65766e-05
3.30465e-05
2.91795e-05
2.50895e-05
2.09026e-05
1.67281e-05
1.25445e-05
7.87325e-06
2.29322e-06
1.83835e-08
3.46493e-08
4.22749e-06
1.54811e-05
2.56087e-05
3.25615e-05
3.70894e-05
4.00387e-05
4.20088e-05
4.3373e-05
4.43437e-05
4.50293e-05
4.54792e-05
4.57142e-05
4.5747e-05
4.55948e-05
4.52836e-05
4.48503e-05
4.43403e-05
4.3805e-05
4.32973e-05
4.28856e-05
4.25232e-05
4.22856e-05
4.2279e-05
4.25811e-05
4.29699e-05
4.35756e-05
4.42998e-05
4.51227e-05
4.59235e-05
4.67247e-05
4.74537e-05
4.80863e-05
4.86023e-05
4.90433e-05
4.94023e-05
4.96779e-05
4.98976e-05
5.01412e-05
5.03017e-05
5.04257e-05
5.05163e-05
5.05717e-05
5.05977e-05
5.05885e-05
5.05432e-05
5.04589e-05
5.0336e-05
5.0175e-05
4.99778e-05
4.97464e-05
4.9484e-05
4.91962e-05
4.88908e-05
4.85776e-05
4.82689e-05
4.79788e-05
4.77219e-05
4.75043e-05
4.73224e-05
4.71668e-05
4.70537e-05
4.69347e-05
4.67283e-05
4.62596e-05
4.58397e-05
4.45774e-05
4.38465e-05
4.23538e-05
4.02213e-05
3.74757e-05
3.41711e-05
3.04019e-05
2.63005e-05
2.20206e-05
1.77007e-05
1.33291e-05
8.39595e-06
2.47896e-06
2.02359e-08
4.49016e-08
5.19849e-06
1.81935e-05
2.9377e-05
3.68225e-05
4.15292e-05
4.44924e-05
4.63979e-05
4.76649e-05
4.85249e-05
4.90907e-05
4.94098e-05
4.95013e-05
4.93795e-05
4.90667e-05
4.85977e-05
4.80198e-05
4.73906e-05
4.67761e-05
4.61259e-05
4.56029e-05
4.52665e-05
4.51494e-05
4.52356e-05
4.55885e-05
4.61184e-05
4.67404e-05
4.73702e-05
4.79697e-05
4.84717e-05
4.8914e-05
4.92653e-05
4.9559e-05
4.98334e-05
5.00515e-05
5.02295e-05
5.03782e-05
5.05173e-05
5.06515e-05
5.0729e-05
5.08162e-05
5.089e-05
5.09097e-05
5.091e-05
5.08698e-05
5.07908e-05
5.06655e-05
5.04914e-05
5.02677e-05
4.99941e-05
4.96698e-05
4.92946e-05
4.88693e-05
4.83963e-05
4.78812e-05
4.73348e-05
4.67772e-05
4.62386e-05
4.57578e-05
4.5356e-05
4.49725e-05
4.47156e-05
4.45713e-05
4.44889e-05
4.44611e-05
4.40615e-05
4.36216e-05
4.26481e-05
4.20806e-05
4.0617e-05
3.83412e-05
3.53669e-05
3.17669e-05
2.76743e-05
2.32615e-05
1.87126e-05
1.40808e-05
8.90414e-06
2.69873e-06
2.2684e-08
5.66631e-08
6.20897e-06
2.08628e-05
3.30049e-05
4.08739e-05
4.57135e-05
4.86617e-05
5.04837e-05
5.16381e-05
5.23715e-05
5.27992e-05
5.2967e-05
5.28941e-05
5.25985e-05
5.211e-05
5.14736e-05
5.07456e-05
4.99922e-05
4.91138e-05
4.84943e-05
4.79689e-05
4.76739e-05
4.7643e-05
4.79136e-05
4.82763e-05
4.86619e-05
4.90225e-05
4.93436e-05
4.96269e-05
4.98945e-05
5.01124e-05
5.02912e-05
5.04563e-05
5.0621e-05
5.07753e-05
5.09318e-05
5.10955e-05
5.127e-05
5.14609e-05
5.15877e-05
5.17266e-05
5.18887e-05
5.19684e-05
5.20323e-05
5.20477e-05
5.20202e-05
5.19421e-05
5.18174e-05
5.16396e-05
5.14049e-05
5.11091e-05
5.07477e-05
5.03149e-05
4.98042e-05
4.92087e-05
4.85216e-05
4.77331e-05
4.68462e-05
4.58813e-05
4.49073e-05
4.41014e-05
4.3431e-05
4.29776e-05
4.26207e-05
4.2488e-05
4.2469e-05
4.22023e-05
4.17046e-05
4.10434e-05
4.04469e-05
3.89798e-05
3.64917e-05
3.32115e-05
2.92518e-05
2.47713e-05
1.99863e-05
1.50368e-05
9.54348e-06
3.01421e-06
2.65426e-08
6.98418e-08
7.2389e-06
2.34549e-05
3.64717e-05
4.47135e-05
4.96569e-05
5.25732e-05
5.42995e-05
5.53288e-05
5.59203e-05
5.61915e-05
5.61882e-05
5.59316e-05
5.54457e-05
5.47702e-05
5.39626e-05
5.30453e-05
5.19835e-05
5.12446e-05
5.05252e-05
5.00232e-05
4.98811e-05
4.99255e-05
5.00307e-05
5.01437e-05
5.02734e-05
5.04316e-05
5.05615e-05
5.06791e-05
5.07986e-05
5.0915e-05
5.1046e-05
5.1207e-05
5.14014e-05
5.16246e-05
5.18737e-05
5.21851e-05
5.25e-05
5.27126e-05
5.29987e-05
5.32966e-05
5.35154e-05
5.36954e-05
5.38317e-05
5.39131e-05
5.39414e-05
5.39137e-05
5.38261e-05
5.36755e-05
5.34598e-05
5.31779e-05
5.28279e-05
5.24056e-05
5.19046e-05
5.13172e-05
5.06413e-05
4.98519e-05
4.89428e-05
4.79029e-05
4.67308e-05
4.54275e-05
4.40085e-05
4.26389e-05
4.17434e-05
4.11687e-05
4.08212e-05
4.07715e-05
4.06237e-05
4.01423e-05
3.95126e-05
3.89036e-05
3.72918e-05
3.45051e-05
3.08654e-05
2.64741e-05
2.15528e-05
1.62985e-05
1.04355e-05
3.47386e-06
3.28123e-08
8.42949e-08
8.26854e-06
2.59391e-05
3.97573e-05
4.83346e-05
5.33643e-05
5.62396e-05
5.78625e-05
5.87565e-05
5.9192e-05
5.929e-05
5.90983e-05
5.86423e-05
5.79541e-05
5.70874e-05
5.60495e-05
5.47926e-05
5.39173e-05
5.30112e-05
5.22771e-05
5.19467e-05
5.17136e-05
5.15287e-05
5.1424e-05
5.13792e-05
5.13545e-05
5.13564e-05
5.1368e-05
5.14098e-05
5.14963e-05
5.16339e-05
5.18338e-05
5.20991e-05
5.24233e-05
5.28213e-05
5.32837e-05
5.36711e-05
5.40432e-05
5.45002e-05
5.49252e-05
5.52876e-05
5.55923e-05
5.5844e-05
5.60322e-05
5.61522e-05
5.62023e-05
5.61798e-05
5.6084e-05
5.5916e-05
5.56784e-05
5.53722e-05
5.49982e-05
5.45562e-05
5.40427e-05
5.34477e-05
5.27783e-05
5.19993e-05
5.11049e-05
5.00807e-05
4.89122e-05
4.76084e-05
4.61698e-05
4.45935e-05
4.27925e-05
4.10123e-05
3.99924e-05
3.94385e-05
3.92696e-05
3.9114e-05
3.86556e-05
3.80408e-05
3.73796e-05
3.53905e-05
3.22668e-05
2.81562e-05
2.32716e-05
1.78156e-05
1.16073e-05
4.09372e-06
4.24989e-08
9.98128e-08
9.27981e-06
2.82887e-05
4.28434e-05
5.17289e-05
5.6835e-05
5.96657e-05
6.11809e-05
6.19316e-05
6.21998e-05
6.21112e-05
6.17177e-05
6.10502e-05
6.01495e-05
5.90588e-05
5.76185e-05
5.65682e-05
5.54996e-05
5.45193e-05
5.39223e-05
5.33901e-05
5.29438e-05
5.26314e-05
5.23908e-05
5.22125e-05
5.20792e-05
5.2003e-05
5.19891e-05
5.20568e-05
5.22179e-05
5.2475e-05
5.28272e-05
5.32601e-05
5.38431e-05
5.44348e-05
5.48928e-05
5.54427e-05
5.60612e-05
5.6626e-05
5.71268e-05
5.75672e-05
5.79423e-05
5.82472e-05
5.84747e-05
5.8621e-05
5.8684e-05
5.86618e-05
5.85545e-05
5.83632e-05
5.80899e-05
5.77366e-05
5.73061e-05
5.68016e-05
5.62263e-05
5.55842e-05
5.48458e-05
5.40011e-05
5.30533e-05
5.20034e-05
5.08443e-05
4.95818e-05
4.81933e-05
4.66608e-05
4.49613e-05
4.30719e-05
4.08953e-05
3.90348e-05
3.81915e-05
3.78678e-05
3.75806e-05
3.7207e-05
3.6583e-05
3.57048e-05
3.32349e-05
2.95799e-05
2.49238e-05
1.94273e-05
1.29803e-05
4.85428e-06
5.64654e-08
1.16119e-07
1.02562e-05
3.04816e-05
4.57139e-05
5.48875e-05
6.00661e-05
6.28526e-05
6.42587e-05
6.48611e-05
6.49538e-05
6.46694e-05
6.4066e-05
6.31794e-05
6.20517e-05
6.04979e-05
5.91987e-05
5.80324e-05
5.67928e-05
5.5915e-05
5.50852e-05
5.43797e-05
5.38271e-05
5.33931e-05
5.30464e-05
5.27864e-05
5.26149e-05
5.25489e-05
5.26007e-05
5.27821e-05
5.30944e-05
5.35282e-05
5.4109e-05
5.48244e-05
5.55147e-05
5.6128e-05
5.68045e-05
5.75768e-05
5.82951e-05
5.89402e-05
5.95238e-05
6.00383e-05
6.04765e-05
6.08322e-05
6.10997e-05
6.12753e-05
6.13564e-05
6.13415e-05
6.12306e-05
6.10249e-05
6.07267e-05
6.0339e-05
5.98657e-05
5.93104e-05
5.86763e-05
5.79648e-05
5.71757e-05
5.63552e-05
5.54302e-05
5.43138e-05
5.30175e-05
5.1583e-05
5.00016e-05
4.83614e-05
4.67602e-05
4.50864e-05
4.30432e-05
4.07368e-05
3.82414e-05
3.69557e-05
3.6428e-05
3.6048e-05
3.57804e-05
3.49026e-05
3.36282e-05
3.05642e-05
2.63079e-05
2.09445e-05
1.44171e-05
5.69666e-06
7.51398e-08
1.32901e-07
1.11831e-05
3.25002e-05
4.83558e-05
5.78025e-05
6.30539e-05
6.57997e-05
6.70985e-05
6.75508e-05
6.74636e-05
6.69792e-05
6.61649e-05
6.50625e-05
6.34659e-05
6.18681e-05
6.06811e-05
5.91906e-05
5.80059e-05
5.6877e-05
5.58991e-05
5.50915e-05
5.44368e-05
5.39118e-05
5.35074e-05
5.32323e-05
5.3099e-05
5.31234e-05
5.33132e-05
5.36669e-05
5.41715e-05
5.48779e-05
5.57148e-05
5.65085e-05
5.7274e-05
5.80839e-05
5.89672e-05
5.98666e-05
6.06608e-05
6.13979e-05
6.20652e-05
6.26549e-05
6.31594e-05
6.35721e-05
6.38874e-05
6.41008e-05
6.42091e-05
6.42101e-05
6.41031e-05
6.38891e-05
6.35704e-05
6.31508e-05
6.26356e-05
6.20304e-05
6.13409e-05
6.05715e-05
5.97234e-05
5.87933e-05
5.781e-05
5.6823e-05
5.56865e-05
5.42504e-05
5.25535e-05
5.065e-05
4.85776e-05
4.65894e-05
4.47918e-05
4.28122e-05
4.03463e-05
3.75273e-05
3.57411e-05
3.4961e-05
3.44117e-05
3.41017e-05
3.2922e-05
3.10201e-05
2.72926e-05
2.22234e-05
1.57494e-05
6.53629e-06
9.82767e-08
1.49824e-07
1.20487e-05
3.4331e-05
5.07593e-05
6.04679e-05
6.57953e-05
6.85071e-05
6.97031e-05
7.00069e-05
6.9739e-05
6.90534e-05
6.80341e-05
6.65844e-05
6.47021e-05
6.33713e-05
6.18127e-05
6.02661e-05
5.88467e-05
5.75671e-05
5.64834e-05
5.55831e-05
5.48515e-05
5.4281e-05
5.38772e-05
5.36548e-05
5.36273e-05
5.38025e-05
5.41756e-05
5.47301e-05
5.55253e-05
5.64717e-05
5.73791e-05
5.82856e-05
5.92355e-05
6.02219e-05
6.12519e-05
6.22463e-05
6.31361e-05
6.39691e-05
6.47246e-05
6.53957e-05
6.59743e-05
6.64531e-05
6.68257e-05
6.70866e-05
6.72311e-05
6.72559e-05
6.7159e-05
6.69404e-05
6.66019e-05
6.61474e-05
6.55833e-05
6.49175e-05
6.41594e-05
6.33183e-05
6.24021e-05
6.14152e-05
6.03565e-05
5.92155e-05
5.80639e-05
5.68654e-05
5.5383e-05
5.34912e-05
5.13188e-05
4.88686e-05
4.64664e-05
4.43136e-05
4.22865e-05
3.96106e-05
3.65635e-05
3.44837e-05
3.35705e-05
3.27545e-05
3.21841e-05
3.0855e-05
2.78228e-05
2.31589e-05
1.68669e-05
7.29214e-06
1.24945e-07
1.66552e-07
1.28431e-05
3.59645e-05
5.29174e-05
6.28796e-05
6.8289e-05
7.09757e-05
7.20767e-05
7.22372e-05
7.17915e-05
7.09006e-05
6.96414e-05
6.77451e-05
6.60539e-05
6.45241e-05
6.27162e-05
6.10403e-05
5.94488e-05
5.80629e-05
5.68877e-05
5.59168e-05
5.51463e-05
5.45816e-05
5.42365e-05
5.41248e-05
5.4253e-05
5.4615e-05
5.51916e-05
5.60328e-05
5.70752e-05
5.81104e-05
5.91105e-05
6.02077e-05
6.13393e-05
6.24702e-05
6.35906e-05
6.46999e-05
6.56992e-05
6.66329e-05
6.74831e-05
6.82427e-05
6.89032e-05
6.94565e-05
6.98951e-05
7.02121e-05
7.04015e-05
7.04581e-05
7.03785e-05
7.01608e-05
6.98056e-05
6.93161e-05
6.86985e-05
6.79621e-05
6.71187e-05
6.61824e-05
6.51672e-05
6.40856e-05
6.29448e-05
6.17436e-05
6.04684e-05
5.91365e-05
5.78619e-05
5.63275e-05
5.42673e-05
5.17705e-05
4.90778e-05
4.62972e-05
4.37139e-05
4.14078e-05
3.8605e-05
3.52158e-05
3.30378e-05
3.18602e-05
3.11573e-05
3.00273e-05
2.79324e-05
2.37073e-05
1.76974e-05
7.88672e-06
1.53741e-07
1.82763e-07
1.35591e-05
3.73953e-05
5.48268e-05
6.50361e-05
7.05352e-05
7.3208e-05
7.42246e-05
7.42513e-05
7.36399e-05
7.25717e-05
7.09194e-05
6.88241e-05
6.73144e-05
6.5378e-05
6.34797e-05
6.15921e-05
5.98897e-05
5.84091e-05
5.71618e-05
5.61512e-05
5.53848e-05
5.48761e-05
5.46396e-05
5.4682e-05
5.49959e-05
5.55588e-05
5.63916e-05
5.75096e-05
5.86838e-05
5.97659e-05
6.09665e-05
6.22307e-05
6.35113e-05
6.47818e-05
6.60235e-05
6.71945e-05
6.83177e-05
6.93642e-05
7.0316e-05
7.11688e-05
7.1916e-05
7.2549e-05
7.30595e-05
7.34393e-05
7.36811e-05
7.37782e-05
7.3725e-05
7.35179e-05
7.31553e-05
7.26384e-05
7.19719e-05
7.11647e-05
7.02296e-05
6.91833e-05
6.80452e-05
6.68358e-05
6.55732e-05
6.42698e-05
6.29278e-05
6.15351e-05
6.00597e-05
5.86587e-05
5.70663e-05
5.47607e-05
5.1984e-05
4.91703e-05
4.6121e-05
4.2996e-05
4.03406e-05
3.72365e-05
3.35053e-05
3.13108e-05
2.99206e-05
2.9293e-05
2.75139e-05
2.3886e-05
1.81985e-05
8.27639e-06
1.83787e-07
1.98142e-07
1.41916e-05
3.86214e-05
5.64868e-05
6.69383e-05
7.25363e-05
7.52084e-05
7.6153e-05
7.60555e-05
7.52794e-05
7.40032e-05
7.19648e-05
7.00829e-05
6.83212e-05
6.6173e-05
6.40251e-05
6.20125e-05
6.02063e-05
5.86464e-05
5.73519e-05
5.63366e-05
5.5616e-05
5.52061e-05
5.51159e-05
5.53399e-05
5.58566e-05
5.66332e-05
5.77659e-05
5.90388e-05
6.02631e-05
6.15229e-05
6.28975e-05
6.43118e-05
6.57287e-05
6.71239e-05
6.84766e-05
6.97673e-05
7.09746e-05
7.21095e-05
7.31836e-05
7.41326e-05
7.49664e-05
7.56795e-05
7.62634e-05
7.67093e-05
7.7009e-05
7.71545e-05
7.71385e-05
7.69551e-05
7.66001e-05
7.60719e-05
7.53725e-05
7.4508e-05
7.34898e-05
7.23349e-05
7.10653e-05
6.97071e-05
6.82879e-05
6.68325e-05
6.5358e-05
6.38676e-05
6.2345e-05
6.07504e-05
5.92225e-05
5.74865e-05
5.48285e-05
5.1833e-05
4.89497e-05
4.55233e-05
4.20573e-05
3.89839e-05
3.54314e-05
3.15739e-05
2.94726e-05
2.78875e-05
2.67786e-05
2.38221e-05
1.84081e-05
8.51627e-06
2.14017e-07
2.12404e-07
1.47376e-05
3.96438e-05
5.78996e-05
6.85892e-05
7.42966e-05
7.69828e-05
7.78711e-05
7.7667e-05
7.67565e-05
7.51843e-05
7.29004e-05
7.11775e-05
6.9063e-05
6.67676e-05
6.4462e-05
6.23294e-05
6.04313e-05
5.88115e-05
5.74976e-05
5.65116e-05
5.58731e-05
5.55943e-05
5.56732e-05
5.60888e-05
5.68042e-05
5.78646e-05
5.9194e-05
6.05664e-05
6.18848e-05
6.33375e-05
6.48667e-05
6.6419e-05
6.79631e-05
6.9476e-05
7.09387e-05
7.23356e-05
7.36555e-05
7.48686e-05
7.60131e-05
7.7077e-05
7.79938e-05
7.87817e-05
7.94354e-05
7.99464e-05
8.03061e-05
8.05058e-05
8.05371e-05
8.03919e-05
8.00633e-05
7.95462e-05
7.88387e-05
7.79425e-05
7.68654e-05
7.56213e-05
7.42315e-05
7.27245e-05
7.11341e-05
6.94964e-05
6.78438e-05
6.61985e-05
6.45643e-05
6.29197e-05
6.12128e-05
5.95936e-05
5.75173e-05
5.44987e-05
5.14973e-05
4.83475e-05
4.45032e-05
4.07301e-05
3.72681e-05
3.30994e-05
2.94462e-05
2.71522e-05
2.61483e-05
2.36565e-05
1.84393e-05
8.69323e-06
2.45761e-07
2.25325e-07
1.51961e-05
4.04661e-05
5.90701e-05
6.99943e-05
7.58223e-05
7.85387e-05
7.9388e-05
7.90916e-05
7.80444e-05
7.61411e-05
7.39837e-05
7.21341e-05
6.97496e-05
6.72375e-05
6.48077e-05
6.25685e-05
6.05942e-05
5.8936e-05
5.763e-05
5.67035e-05
5.61754e-05
5.60498e-05
5.63111e-05
5.69257e-05
5.78492e-05
5.91623e-05
6.06265e-05
6.20732e-05
6.35578e-05
6.5175e-05
6.6845e-05
6.85257e-05
7.01887e-05
7.18124e-05
7.3379e-05
7.4874e-05
7.62856e-05
7.75928e-05
7.87789e-05
7.99252e-05
8.09288e-05
8.17817e-05
8.24965e-05
8.30666e-05
8.34842e-05
8.37405e-05
8.38266e-05
8.37328e-05
8.34498e-05
8.29689e-05
8.22834e-05
8.139e-05
8.029e-05
7.8992e-05
7.75127e-05
7.58787e-05
7.41259e-05
7.22975e-05
7.04396e-05
6.85933e-05
6.67855e-05
6.50186e-05
6.32607e-05
6.14386e-05
5.97411e-05
5.72366e-05
5.39029e-05
5.08814e-05
4.72952e-05
4.30238e-05
3.8914e-05
3.50652e-05
3.0332e-05
2.70419e-05
2.49141e-05
2.30967e-05
1.83862e-05
8.95007e-06
2.82928e-07
2.3674e-07
1.55678e-05
4.10942e-05
6.00049e-05
7.11607e-05
7.7121e-05
7.98843e-05
8.07112e-05
8.03347e-05
7.91508e-05
7.69803e-05
7.4922e-05
7.28538e-05
7.02793e-05
6.76312e-05
6.50857e-05
6.27543e-05
6.07208e-05
5.90455e-05
5.77715e-05
5.69285e-05
5.65301e-05
5.65684e-05
5.70124e-05
5.78134e-05
5.89838e-05
6.0469e-05
6.2046e-05
6.3586e-05
6.52452e-05
6.70076e-05
6.88069e-05
7.06059e-05
7.2378e-05
7.41021e-05
7.57609e-05
7.73399e-05
7.88268e-05
8.02105e-05
8.14537e-05
8.26152e-05
8.36999e-05
8.46062e-05
8.53692e-05
8.59879e-05
8.64566e-05
8.67675e-05
8.69118e-05
8.68792e-05
8.66586e-05
8.6238e-05
8.56061e-05
8.47534e-05
8.36741e-05
8.23687e-05
8.08461e-05
7.91265e-05
7.72429e-05
7.52404e-05
7.31741e-05
7.11015e-05
6.90732e-05
6.71202e-05
6.52412e-05
6.33937e-05
6.14855e-05
5.95809e-05
5.64666e-05
5.31788e-05
4.98773e-05
4.57284e-05
4.10215e-05
3.65448e-05
3.20475e-05
2.74658e-05
2.41432e-05
2.26099e-05
1.84176e-05
9.39473e-06
3.30241e-07
2.46535e-07
1.58547e-05
4.1536e-05
6.0713e-05
7.20974e-05
7.82022e-05
8.10307e-05
8.18585e-05
8.14414e-05
8.01066e-05
7.77913e-05
7.58349e-05
7.35077e-05
7.07391e-05
6.7967e-05
6.53178e-05
6.29085e-05
6.08326e-05
5.9159e-05
5.79365e-05
5.71938e-05
5.69357e-05
5.7141e-05
5.77653e-05
5.87519e-05
6.01413e-05
6.17603e-05
6.3434e-05
6.51027e-05
6.69175e-05
6.88103e-05
7.07268e-05
7.26324e-05
7.45009e-05
7.63114e-05
7.80463e-05
7.96911e-05
8.12339e-05
8.26654e-05
8.39555e-05
8.51105e-05
8.62379e-05
8.71899e-05
8.79854e-05
8.86385e-05
8.91471e-05
8.95058e-05
8.97069e-05
8.97406e-05
8.95946e-05
8.92546e-05
8.87052e-05
8.79308e-05
8.69178e-05
8.56571e-05
8.41472e-05
8.23981e-05
8.04345e-05
7.82976e-05
7.60451e-05
7.37458e-05
7.14706e-05
6.92781e-05
6.71985e-05
6.522e-05
6.32832e-05
6.13769e-05
5.89443e-05
5.53877e-05
5.22037e-05
4.84201e-05
4.35465e-05
3.85045e-05
3.37476e-05
2.8508e-05
2.43744e-05
2.20894e-05
1.85269e-05
9.95057e-06
3.87919e-07
2.54652e-07
1.60606e-05
4.18016e-05
6.12046e-05
7.28153e-05
7.90781e-05
8.19931e-05
8.28481e-05
8.24108e-05
8.08965e-05
7.8504e-05
7.66181e-05
7.40123e-05
7.11429e-05
6.82633e-05
6.55234e-05
6.30499e-05
6.09463e-05
5.92899e-05
5.81328e-05
5.75e-05
5.73858e-05
5.77555e-05
5.85527e-05
5.97188e-05
6.1285e-05
6.30185e-05
6.47888e-05
6.66004e-05
6.85496e-05
7.05588e-05
7.25793e-05
7.45775e-05
7.65271e-05
7.84066e-05
8.01985e-05
8.18883e-05
8.34645e-05
8.49181e-05
8.6242e-05
8.7399e-05
8.84932e-05
8.94807e-05
9.02918e-05
9.09622e-05
9.1496e-05
9.18914e-05
9.2143e-05
9.22423e-05
9.21774e-05
9.19327e-05
9.14894e-05
9.08267e-05
8.99232e-05
8.87596e-05
8.73224e-05
8.56083e-05
8.36292e-05
8.14165e-05
7.90232e-05
7.6523e-05
7.40021e-05
7.15454e-05
6.92165e-05
6.70363e-05
6.49652e-05
6.28925e-05
6.0918e-05
5.7696e-05
5.42281e-05
5.07888e-05
4.63611e-05
4.06506e-05
3.53907e-05
3.0112e-05
2.48635e-05
2.10111e-05
1.85652e-05
1.03411e-05
4.50248e-07
2.61069e-07
1.61886e-05
4.19189e-05
6.14878e-05
7.33267e-05
7.97645e-05
8.27937e-05
8.37224e-05
8.32731e-05
8.1494e-05
7.92271e-05
7.72879e-05
7.44815e-05
7.15098e-05
6.85368e-05
6.5719e-05
6.31938e-05
6.10746e-05
5.94463e-05
5.83627e-05
5.78427e-05
5.78692e-05
5.83933e-05
5.93469e-05
6.06968e-05
6.2395e-05
6.42327e-05
6.61054e-05
6.80528e-05
7.01187e-05
7.22298e-05
7.43395e-05
7.64143e-05
7.84277e-05
8.03576e-05
8.21864e-05
8.39002e-05
8.54888e-05
8.69456e-05
8.82676e-05
8.942e-05
9.04491e-05
9.14421e-05
9.22523e-05
9.29215e-05
9.34631e-05
9.38803e-05
9.41713e-05
9.43303e-05
9.43468e-05
9.42052e-05
9.38849e-05
9.33606e-05
9.26041e-05
9.15861e-05
9.02803e-05
8.86682e-05
8.67455e-05
8.4528e-05
8.20577e-05
7.94045e-05
7.66631e-05
7.39402e-05
7.13348e-05
6.89122e-05
6.66808e-05
6.45801e-05
6.24864e-05
5.99128e-05
5.61777e-05
5.28426e-05
4.88205e-05
4.31983e-05
3.71246e-05
3.16627e-05
2.58728e-05
2.0803e-05
1.83876e-05
1.07527e-05
5.17442e-07
2.65807e-07
1.62435e-05
4.18879e-05
6.15762e-05
7.36489e-05
8.02909e-05
8.34909e-05
8.44458e-05
8.38518e-05
8.20057e-05
7.996e-05
7.78152e-05
7.49114e-05
7.18542e-05
6.88019e-05
6.59186e-05
6.33522e-05
6.12264e-05
5.96325e-05
5.86247e-05
5.82149e-05
5.83739e-05
5.90411e-05
6.01401e-05
6.16479e-05
6.34565e-05
6.53921e-05
6.73693e-05
6.94372e-05
7.16039e-05
7.38016e-05
7.5984e-05
7.81179e-05
8.01777e-05
8.21392e-05
8.39851e-05
8.57023e-05
8.72824e-05
8.87216e-05
9.00128e-05
9.11511e-05
9.21139e-05
9.30471e-05
9.38476e-05
9.44976e-05
9.50281e-05
9.54495e-05
9.57651e-05
9.59728e-05
9.60649e-05
9.60275e-05
9.58392e-05
9.54723e-05
9.48924e-05
9.40613e-05
9.29402e-05
9.14945e-05
8.97012e-05
8.75567e-05
8.50851e-05
8.23448e-05
7.94291e-05
7.64587e-05
7.3562e-05
7.08452e-05
6.83591e-05
6.60713e-05
6.38552e-05
6.17338e-05
5.82063e-05
5.46165e-05
5.11265e-05
4.59533e-05
3.91015e-05
3.31532e-05
2.69624e-05
2.13728e-05
1.81624e-05
1.12313e-05
5.87124e-07
2.68923e-07
1.62315e-05
4.17132e-05
6.14835e-05
7.37933e-05
8.06694e-05
8.39139e-05
8.48321e-05
8.43262e-05
8.25858e-05
8.05857e-05
7.8286e-05
7.53148e-05
7.21886e-05
6.90709e-05
6.61333e-05
6.35344e-05
6.14074e-05
5.98499e-05
5.89151e-05
5.86079e-05
5.88879e-05
5.96844e-05
6.0915e-05
6.25527e-05
6.44574e-05
6.64846e-05
6.85632e-05
7.07346e-05
7.29876e-05
7.52591e-05
7.74914e-05
7.96633e-05
8.17564e-05
8.37322e-05
8.55768e-05
8.72784e-05
8.8828e-05
9.02424e-05
9.14821e-05
9.25789e-05
9.34851e-05
9.43063e-05
9.50766e-05
9.56894e-05
9.61896e-05
9.65962e-05
9.69187e-05
9.71601e-05
9.7317e-05
9.73781e-05
9.73236e-05
9.71241e-05
9.67414e-05
9.61296e-05
9.52381e-05
9.40165e-05
9.24222e-05
9.04289e-05
8.80381e-05
8.52889e-05
8.22641e-05
7.90888e-05
7.59146e-05
7.28903e-05
7.01215e-05
6.76336e-05
6.53508e-05
6.31013e-05
6.01388e-05
5.62207e-05
5.30336e-05
4.83107e-05
4.15814e-05
3.46599e-05
2.8434e-05
2.18374e-05
1.7717e-05
1.17563e-05
6.53219e-07
2.70505e-07
1.61562e-05
4.13938e-05
6.1193e-05
7.37483e-05
8.07496e-05
8.41265e-05
8.52239e-05
8.48422e-05
8.3064e-05
8.11132e-05
7.87117e-05
7.57007e-05
7.25233e-05
6.93539e-05
6.63723e-05
6.37472e-05
6.16213e-05
6.00977e-05
5.9229e-05
5.90128e-05
5.93995e-05
6.03096e-05
6.16549e-05
6.33979e-05
6.53865e-05
6.74973e-05
6.96705e-05
7.19285e-05
7.42528e-05
7.65628e-05
7.8845e-05
8.10487e-05
8.31512e-05
8.51244e-05
8.69522e-05
8.86235e-05
9.0132e-05
9.14775e-05
9.26669e-05
9.37117e-05
9.45546e-05
9.52425e-05
9.59508e-05
9.65109e-05
9.69625e-05
9.7335e-05
9.76454e-05
9.7903e-05
9.81095e-05
9.82582e-05
9.83318e-05
9.83018e-05
9.81275e-05
9.77572e-05
9.71301e-05
9.6181e-05
9.48475e-05
9.30795e-05
9.08518e-05
8.8178e-05
8.51214e-05
8.18006e-05
7.83798e-05
7.50427e-05
7.19476e-05
6.91767e-05
6.6698e-05
6.4355e-05
6.19227e-05
5.79096e-05
5.46088e-05
5.05792e-05
4.41214e-05
3.63739e-05
2.97635e-05
2.29462e-05
1.72672e-05
1.23018e-05
7.09634e-07
2.70461e-07
1.60165e-05
4.09291e-05
6.079e-05
7.35804e-05
8.07673e-05
8.43485e-05
8.55599e-05
8.52059e-05
8.34648e-05
8.1572e-05
7.91064e-05
7.60779e-05
7.2867e-05
6.96593e-05
6.66428e-05
6.39959e-05
6.18704e-05
6.03746e-05
5.95609e-05
5.94213e-05
5.98979e-05
6.0904e-05
6.23459e-05
6.41728e-05
6.62332e-05
6.84173e-05
7.06748e-05
7.30013e-05
7.53658e-05
7.77268e-05
8.00344e-05
8.22523e-05
8.4352e-05
8.63092e-05
8.81074e-05
8.9736e-05
9.11898e-05
9.24683e-05
9.35745e-05
9.45269e-05
9.53417e-05
9.59256e-05
9.64918e-05
9.69888e-05
9.73753e-05
9.76956e-05
9.79749e-05
9.82296e-05
9.8468e-05
9.86888e-05
9.88793e-05
9.90131e-05
9.90494e-05
9.89325e-05
9.85936e-05
9.79542e-05
9.69331e-05
9.54561e-05
9.34694e-05
9.0956e-05
8.79522e-05
8.45591e-05
8.09424e-05
7.73119e-05
7.38771e-05
7.07868e-05
6.80719e-05
6.56153e-05
6.32468e-05
5.96694e-05
5.59392e-05
5.24307e-05
4.64138e-05
3.82835e-05
3.10476e-05
2.39589e-05
1.74223e-05
1.27518e-05
7.50332e-07
2.69564e-07
1.58377e-05
4.04328e-05
6.03594e-05
7.32248e-05
8.0646e-05
8.4379e-05
8.57217e-05
8.54679e-05
8.38125e-05
8.19717e-05
7.94802e-05
7.64537e-05
7.32268e-05
6.99939e-05
6.69507e-05
6.42845e-05
6.21558e-05
6.06788e-05
5.99062e-05
5.98261e-05
6.0374e-05
6.14573e-05
6.29771e-05
6.48688e-05
6.69886e-05
6.92334e-05
7.15552e-05
7.39337e-05
7.63406e-05
7.87278e-05
8.1049e-05
8.32674e-05
8.53536e-05
8.72844e-05
8.90434e-05
9.06205e-05
9.20111e-05
9.32157e-05
9.42396e-05
9.50926e-05
9.58094e-05
9.63455e-05
9.6749e-05
9.71606e-05
9.74669e-05
9.77187e-05
9.79492e-05
9.81824e-05
9.84337e-05
9.87086e-05
9.89998e-05
9.92854e-05
9.95262e-05
9.96649e-05
9.96268e-05
9.93224e-05
9.86534e-05
9.75222e-05
9.58459e-05
9.35739e-05
9.07089e-05
8.73249e-05
8.35767e-05
7.96885e-05
7.59139e-05
7.24698e-05
6.94629e-05
6.68409e-05
6.43944e-05
6.13254e-05
5.72224e-05
5.40253e-05
4.85568e-05
4.05864e-05
3.23012e-05
2.49401e-05
1.77544e-05
1.31047e-05
7.74576e-07
2.67256e-07
1.56018e-05
3.98263e-05
5.96389e-05
7.27175e-05
8.03581e-05
8.42906e-05
8.57869e-05
8.5652e-05
8.41121e-05
8.2321e-05
7.98402e-05
7.68341e-05
7.36082e-05
7.03629e-05
6.73004e-05
6.4616e-05
6.24787e-05
6.10088e-05
6.02611e-05
6.02213e-05
6.08205e-05
6.19611e-05
6.354e-05
6.54788e-05
6.76445e-05
6.99354e-05
7.23032e-05
7.47237e-05
7.71582e-05
7.95593e-05
8.18826e-05
8.40911e-05
8.61551e-05
8.80517e-05
8.9765e-05
9.1285e-05
9.26078e-05
9.37345e-05
9.46714e-05
9.54301e-05
9.60271e-05
9.64887e-05
9.67681e-05
9.70675e-05
9.72824e-05
9.7453e-05
9.76197e-05
9.78144e-05
9.806e-05
9.83694e-05
9.87425e-05
9.91629e-05
9.95951e-05
9.99827e-05
0.000100247
0.000100291
0.000100001
9.92583e-05
9.79505e-05
9.59927e-05
9.33491e-05
9.00587e-05
8.62533e-05
8.21578e-05
7.80592e-05
7.42386e-05