/*--------------------------------*- C++ -*----------------------------------*\
  =========                 |
  \\      /  F ield         | OpenFOAM: The Open Source CFD Toolbox
   \\    /   O peration     | Website:  https://openfoam.org
    \\  /    A nd           | Version:  13
     \\/     M anipulation  |
\*---------------------------------------------------------------------------*/
FoamFile
{
    format      ascii;
    class       surfaceScalarField;
    location    "2.2";
    object      phi;
}
// * * * * * * * * * * * * * * * * * * * * * * * * * * * * * * * * * * * * * //

dimensions      [0 3 -1 0 0 0 0];

internalField   nonuniform List<scalar> 
12640
(
3.70459e-09
-3.70508e-09
1.09845e-08
-7.27996e-09
1.89855e-08
-8.00095e-09
2.5915e-08
-6.92959e-09
3.10933e-08
-5.17823e-09
3.45988e-08
-3.50556e-09
3.68377e-08
-2.23896e-09
3.82528e-08
-1.41511e-09
3.91863e-08
-9.33455e-10
3.98318e-08
-6.45542e-10
4.0245e-08
-4.13144e-10
4.03805e-08
-1.35553e-10
4.01157e-08
2.6481e-10
3.93051e-08
8.106e-10
3.78203e-08
1.48476e-09
3.55341e-08
2.28616e-09
3.23518e-08
3.18235e-09
2.81927e-08
4.15904e-09
2.29684e-08
5.22431e-09
1.65622e-08
6.40625e-09
8.81964e-09
7.74253e-09
-4.5205e-10
9.27169e-09
-1.15164e-08
1.10643e-08
-2.47223e-08
1.3206e-08
-4.04521e-08
1.57297e-08
-5.91043e-08
1.86522e-08
-8.11865e-08
2.20822e-08
-1.07412e-07
2.6225e-08
-1.38601e-07
3.11897e-08
-1.7529e-07
3.66892e-08
-2.17753e-07
4.24622e-08
-2.66186e-07
4.84339e-08
-3.20468e-07
5.42814e-08
-3.80128e-07
5.96598e-08
-4.44404e-07
6.42762e-08
-5.12179e-07
6.77755e-08
-5.82096e-07
6.99165e-08
-6.52711e-07
7.06152e-08
-7.22561e-07
6.98505e-08
-7.90252e-07
6.76904e-08
-8.54502e-07
6.42505e-08
-9.14149e-07
5.96471e-08
-9.68156e-07
5.40067e-08
-1.0156e-06
4.74403e-08
-1.05565e-06
4.0053e-08
-1.08758e-06
3.19314e-08
-1.11069e-06
2.31115e-08
-1.1245e-06
1.3804e-08
-1.12937e-06
4.86905e-09
-1.12379e-06
-5.57941e-09
-1.10793e-06
-1.58535e-08
-1.08136e-06
-2.65736e-08
-1.04394e-06
-3.74147e-08
-9.95719e-07
-4.82257e-08
-9.36916e-07
-5.88024e-08
-8.681e-07
-6.88163e-08
-7.90058e-07
-7.80414e-08
-7.03654e-07
-8.6404e-08
-6.1003e-07
-9.36248e-08
-5.10717e-07
-9.93124e-08
-4.07786e-07
-1.02931e-07
-3.03635e-07
-1.04151e-07
-2.01046e-07
-1.02589e-07
-1.03101e-07
-9.79451e-08
-1.29689e-08
-9.01323e-08
6.65903e-08
-7.95592e-08
1.32308e-07
-6.57175e-08
1.81614e-07
-4.93065e-08
2.1281e-07
-3.11958e-08
2.25394e-07
-1.25844e-08
2.2018e-07
5.21463e-09
1.99943e-07
2.02366e-08
1.68443e-07
3.15007e-08
1.31332e-07
3.71101e-08
9.44472e-08
3.68853e-08
6.16807e-08
3.27665e-08
3.51182e-08
2.65625e-08
1.55602e-08
1.9558e-08
3.69647e-09
1.18637e-08
3.69647e-09
7.26663e-09
-1.09717e-08
1.98412e-08
-1.98546e-08
3.19735e-08
-2.01332e-08
4.10261e-08
-1.59823e-08
4.63862e-08
-1.05383e-08
4.83862e-08
-5.50559e-09
4.77235e-08
-1.57632e-09
4.51058e-08
1.20261e-09
4.10665e-08
3.10588e-09
3.58959e-08
4.52504e-09
2.96409e-08
5.84178e-09
2.21582e-08
7.34718e-09
1.31979e-08
9.22506e-09
2.4423e-09
1.15662e-08
-1.04656e-08
1.43927e-08
-2.58314e-08
1.76519e-08
-4.39548e-08
2.13058e-08
-6.51516e-08
2.53558e-08
-8.97822e-08
2.98549e-08
-1.18287e-07
3.49114e-08
-1.51219e-07
4.06743e-08
-1.89252e-07
4.73043e-08
-2.33121e-07
5.49331e-08
-2.83518e-07
6.36036e-08
-3.41042e-07
7.32538e-08
-4.06112e-07
8.37222e-08
-4.78833e-07
9.48026e-08
-5.58921e-07
1.06313e-07
-6.45568e-07
1.17837e-07
-7.37628e-07
1.28749e-07
-8.33783e-07
1.38617e-07
-9.32345e-07
1.46996e-07
-1.0315e-06
1.53432e-07
-1.1295e-06
1.57665e-07
-1.22478e-06
1.59554e-07
-1.3159e-06
1.58893e-07
-1.40159e-06
1.55612e-07
-1.48083e-06
1.49851e-07
-1.55277e-06
1.41797e-07
-1.61675e-06
1.31669e-07
-1.67221e-06
1.1971e-07
-1.7187e-06
1.06138e-07
-1.75588e-06
9.11846e-08
-1.78349e-06
7.50465e-08
-1.80131e-06
5.78778e-08
-1.80919e-06
3.98053e-08
-1.80705e-06
2.09759e-08
-1.79413e-06
8.8194e-10
-1.77066e-06
-1.85985e-08
-1.73681e-06
-3.94258e-08
-1.69204e-06
-6.06324e-08
-1.63654e-06
-8.20728e-08
-1.57034e-06
-1.03612e-07
-1.49357e-06
-1.24991e-07
-1.40646e-06
-1.45914e-07
-1.30931e-06
-1.65966e-07
-1.20258e-06
-1.84779e-07
-1.08725e-06
-2.01725e-07
-9.64661e-07
-2.16219e-07
-8.36341e-07
-2.27632e-07
-7.0412e-07
-2.35152e-07
-5.70126e-07
-2.38145e-07
-4.36772e-07
-2.35943e-07
-3.06793e-07
-2.27924e-07
-1.83181e-07
-2.13744e-07
-6.92337e-08
-1.93507e-07
3.23924e-08
-1.67344e-07
1.19108e-07
-1.36022e-07
1.88283e-07
-1.0037e-07
2.37938e-07
-6.22395e-08
2.6697e-07
-2.3818e-08
2.74812e-07
1.23952e-08
2.62487e-07
4.38259e-08
2.3257e-07
6.70264e-08
1.89024e-07
8.04312e-08
1.38759e-07
8.30314e-08
8.89762e-08
7.63455e-08
4.58139e-08
6.27203e-08
1.43698e-08
4.33078e-08
1.80663e-08
8.40159e-09
-1.93733e-08
2.07847e-08
-3.22377e-08
3.02119e-08
-2.95605e-08
3.49086e-08
-2.06789e-08
3.5239e-08
-1.08686e-08
3.20159e-08
-2.28256e-09
2.60116e-08
4.42801e-09
1.78021e-08
9.41206e-09
7.72002e-09
1.3188e-08
-4.14243e-09
1.63875e-08
-1.7894e-08
1.95933e-08
-3.38031e-08
2.32563e-08
-5.22494e-08
2.76714e-08
-7.36695e-08
3.29863e-08
-9.85152e-08
3.92383e-08
-1.27273e-07
4.64095e-08
-1.60456e-07
5.44893e-08
-1.98602e-07
6.3502e-08
-2.42286e-07
7.35381e-08
-2.92118e-07
8.47441e-08
-3.48722e-07
9.72782e-08
-4.12663e-07
1.11245e-07
-4.84352e-07
1.26622e-07
-5.63944e-07
1.43196e-07
-6.51249e-07
1.60559e-07
-7.45674e-07
1.78147e-07
-8.46132e-07
1.95261e-07
-9.51045e-07
2.11227e-07
-1.05858e-06
2.25375e-07
-1.16684e-06
2.37006e-07
-1.27402e-06
2.45794e-07
-1.37839e-06
2.51368e-07
-1.47841e-06
2.53454e-07
-1.57274e-06
2.51994e-07
-1.66029e-06
2.47099e-07
-1.74039e-06
2.38992e-07
-1.81262e-06
2.27849e-07
-1.87669e-06
2.13922e-07
-1.93241e-06
1.97515e-07
-1.97966e-06
1.78915e-07
-2.01835e-06
1.58404e-07
-2.04845e-06
1.36238e-07
-2.0699e-06
1.12634e-07
-2.08262e-06
8.77644e-08
-2.08651e-06
6.17648e-08
-2.08145e-06
3.47465e-08
-2.06723e-06
6.75566e-09
-2.04423e-06
-2.21197e-08
-2.01124e-06
-5.15883e-08
-1.96877e-06
-8.18925e-08
-1.91662e-06
-1.12781e-07
-1.85464e-06
-1.44058e-07
-1.78277e-06
-1.75482e-07
-1.70103e-06
-2.06726e-07
-1.60956e-06
-2.37383e-07
-1.50861e-06
-2.66921e-07
-1.39867e-06
-2.94713e-07
-1.28047e-06
-3.19932e-07
-1.15499e-06
-3.4169e-07
-1.02366e-06
-3.58967e-07
-8.88054e-07
-3.70758e-07
-7.50135e-07
-3.76063e-07
-6.12063e-07
-3.74016e-07
-4.76169e-07
-3.63818e-07
-3.45106e-07
-3.44807e-07
-2.21772e-07
-3.16841e-07
-1.0888e-07
-2.80235e-07
-8.97526e-09
-2.35927e-07
7.60295e-08
-1.85375e-07
1.44132e-07
-1.30342e-07
1.93906e-07
-7.35922e-08
2.24373e-07
-1.8072e-08
2.35069e-07
3.31303e-08
2.26425e-07
7.56704e-08
2.0062e-07
1.06236e-07
1.61183e-07
1.22469e-07
1.13372e-07
1.24156e-07
6.42648e-08
1.11827e-07
2.22862e-08
8.52864e-08
4.03525e-08
7.79377e-09
-2.71671e-08
1.67155e-08
-4.11594e-08
2.05777e-08
-3.34227e-08
1.92972e-08
-1.93984e-08
1.39522e-08
-5.52372e-09
5.42133e-09
6.24835e-09
-5.75075e-09
1.56001e-08
-1.92738e-08
2.29351e-08
-3.50775e-08
2.89917e-08
-5.32823e-08
3.45923e-08
-7.4169e-08
4.048e-08
-9.81413e-08
4.72286e-08
-1.25685e-07
5.52148e-08
-1.57333e-07
6.46345e-08
-1.93649e-07
7.55542e-08
-2.35217e-07
8.79775e-08
-2.82634e-07
1.01907e-07
-3.36507e-07
1.17374e-07
-3.97419e-07
1.34451e-07
-4.65882e-07
1.53207e-07
-5.42246e-07
1.73642e-07
-6.26599e-07
1.95598e-07
-7.18667e-07
2.18689e-07
-8.17735e-07
2.42264e-07
-9.22621e-07
2.65445e-07
-1.03174e-06
2.87269e-07
-1.14325e-06
3.06765e-07
-1.25516e-06
3.23135e-07
-1.36564e-06
3.35857e-07
-1.47299e-06
3.44354e-07
-1.57565e-06
3.48462e-07
-1.67241e-06
3.48127e-07
-1.76242e-06
3.43465e-07
-1.84515e-06
3.34724e-07
-1.92031e-06
3.22252e-07
-1.98773e-06
3.06418e-07
-2.04741e-06
2.87528e-07
-2.09939e-06
2.65902e-07
-2.14374e-06
2.41861e-07
-2.18052e-06
2.15698e-07
-2.20979e-06
1.87678e-07
-2.23158e-06
1.58021e-07
-2.24584e-06
1.26894e-07
-2.25249e-06
9.44224e-08
-2.25143e-06
6.0706e-08
-2.2425e-06
2.58165e-08
-2.22556e-06
-1.01893e-08
-2.20045e-06
-4.72314e-08
-2.16678e-06
-8.52541e-08
-2.12444e-06
-1.24238e-07
-2.07321e-06
-1.64012e-07
-2.01288e-06
-2.04384e-07
-1.94329e-06
-2.4507e-07
-1.86432e-06
-2.85698e-07
-1.77592e-06
-3.25781e-07
-1.67817e-06
-3.64675e-07
-1.57133e-06
-4.01548e-07
-1.45587e-06
-4.35396e-07
-1.33248e-06
-4.65078e-07
-1.20219e-06
-4.8926e-07
-1.06637e-06
-5.06576e-07
-9.26827e-07
-5.15606e-07
-7.85801e-07
-5.15042e-07
-6.45637e-07
-5.03982e-07
-5.08754e-07
-4.8169e-07
-3.77847e-07
-4.47748e-07
-2.55748e-07
-4.02334e-07
-1.45031e-07
-3.46644e-07
-4.80713e-08
-2.82335e-07
3.33255e-08
-2.11738e-07
9.76493e-08
-1.37916e-07
1.43897e-07
-6.432e-08
1.71968e-07
5.05986e-09
1.81495e-07
6.6143e-08
1.73155e-07
1.14576e-07
1.48643e-07
1.46981e-07
1.11794e-07
1.61005e-07
6.7793e-08
1.55828e-07
2.48803e-08
1.28199e-07
6.52328e-08
5.85529e-09
-3.30224e-08
9.58622e-09
-4.48904e-08
7.06362e-09
-3.09001e-08
-2.60484e-10
-1.20743e-08
-1.11109e-08
5.32668e-09
-2.4834e-08
1.99714e-08
-4.11538e-08
3.19199e-08
-6.00542e-08
4.18354e-08
-8.17063e-08
5.06438e-08
-1.06428e-07
5.93136e-08
-1.34648e-07
6.87001e-08
-1.66875e-07
7.94558e-08
-2.03665e-07
9.20049e-08
-2.45599e-07
1.06569e-07
-2.9327e-07
1.23225e-07
-3.47266e-07
1.41974e-07
-4.08154e-07
1.62794e-07
-4.76436e-07
1.85657e-07
-5.52486e-07
2.105e-07
-6.36451e-07
2.37171e-07
-7.28147e-07
2.65339e-07
-8.26966e-07
2.94418e-07
-9.31848e-07
3.2357e-07
-1.04129e-06
3.51707e-07
-1.15348e-06
3.77632e-07
-1.2665e-06
4.00287e-07
-1.37854e-06
4.18807e-07
-1.48785e-06
4.32446e-07
-1.59285e-06
4.40858e-07
-1.69235e-06
4.43853e-07
-1.78551e-06
4.41623e-07
-1.87189e-06
4.34507e-07
-1.95125e-06
4.22829e-07
-2.02355e-06
4.07018e-07
-2.08881e-06
3.87521e-07
-2.14712e-06
3.6472e-07
-2.19857e-06
3.38978e-07
-2.24329e-06
3.10628e-07
-2.2814e-06
2.79965e-07
-2.31296e-06
2.47259e-07
-2.33802e-06
2.12739e-07
-2.35658e-06
1.76585e-07
-2.3686e-06
1.38914e-07
-2.37399e-06
9.9813e-08
-2.37264e-06
5.93545e-08
-2.36439e-06
1.75601e-08
-2.34904e-06
-2.55361e-08
-2.32637e-06
-6.99017e-08
-2.29612e-06
-1.15508e-07
-2.25803e-06
-1.62328e-07
-2.21178e-06
-2.10254e-07
-2.15709e-06
-2.59076e-07
-2.09367e-06
-3.08489e-07
-2.02127e-06
-3.58103e-07
-1.93965e-06
-4.07401e-07
-1.84863e-06
-4.55689e-07
-1.74818e-06
-5.02002e-07
-1.63845e-06
-5.45124e-07
-1.5198e-06
-5.83731e-07
-1.39287e-06
-6.1619e-07
-1.25869e-06
-6.40752e-07
-1.11857e-06
-6.5573e-07
-9.74498e-07
-6.59113e-07
-8.29099e-07
-6.49381e-07
-6.85176e-07
-6.25613e-07
-5.45394e-07
-5.8753e-07
-4.12614e-07
-5.35114e-07
-2.89769e-07
-4.69489e-07
-1.79563e-07
-3.92542e-07
-8.42794e-08
-3.07022e-07
-5.69593e-09
-2.165e-07
5.51196e-08
-1.25136e-07
9.75973e-08
-3.74179e-08
1.21847e-07
4.18934e-08
1.28361e-07
1.08062e-07
1.18456e-07
1.56885e-07
9.44264e-08
1.85035e-07
6.01366e-08
1.90118e-07
2.27138e-08
1.65622e-07
8.79466e-08
3.05896e-09
-3.60813e-08
5.96285e-10
-4.24277e-08
-8.27403e-09
-2.20298e-08
-2.14496e-08
1.1013e-09
-3.77379e-08
2.1615e-08
-5.67123e-08
3.89458e-08
-7.83497e-08
5.35573e-08
-1.02863e-07
6.6349e-08
-1.3062e-07
7.84002e-08
-1.6209e-07
9.07843e-08
-1.97813e-07
1.04423e-07
-2.38359e-07
1.20001e-07
-2.84307e-07
1.37954e-07
-3.36231e-07
1.58492e-07
-3.94675e-07
1.81669e-07
-4.60138e-07
2.07437e-07
-5.33023e-07
2.35679e-07
-6.13569e-07
2.66203e-07
-7.01764e-07
2.98695e-07
-7.97241e-07
3.32648e-07
-8.99204e-07
3.67302e-07
-1.0064e-06
4.01615e-07
-1.1172e-06
4.34372e-07
-1.22977e-06
4.64275e-07
-1.34226e-06
4.9012e-07
-1.45287e-06
5.10899e-07
-1.55999e-06
5.25928e-07
-1.66231e-06
5.34759e-07
-1.75892e-06
5.37471e-07
-1.84937e-06
5.34305e-07
-1.9334e-06
5.25654e-07
-2.01095e-06
5.12055e-07
-2.08203e-06
4.93914e-07
-2.14675e-06
4.7173e-07
-2.2052e-06
4.45971e-07
-2.25751e-06
4.17033e-07
-2.30383e-06
3.853e-07
-2.34428e-06
3.51077e-07
-2.37896e-06
3.14642e-07
-2.40793e-06
2.76228e-07
-2.43122e-06
2.36031e-07
-2.44884e-06
1.94211e-07
-2.46078e-06
1.5085e-07
-2.46694e-06
1.05971e-07
-2.46725e-06
5.96652e-08
-2.46156e-06
1.18724e-08
-2.44969e-06
-3.74047e-08
-2.43137e-06
-8.8221e-08
-2.40633e-06
-1.40546e-07
-2.37433e-06
-1.94332e-07
-2.33501e-06
-2.4957e-07
-2.28795e-06
-3.06138e-07
-2.23275e-06
-3.63689e-07
-2.16904e-06
-4.21814e-07
-2.09643e-06
-4.80007e-07
-2.01451e-06
-5.37612e-07
-1.92288e-06
-5.93634e-07
-1.82139e-06
-6.46615e-07
-1.71005e-06
-6.95072e-07
-1.58897e-06
-7.37262e-07
-1.45875e-06
-7.7098e-07
-1.32042e-06
-7.94051e-07
-1.17538e-06
-8.04161e-07
-1.02563e-06
-7.99127e-07
-8.7419e-07
-7.77055e-07
-7.2451e-07
-7.37209e-07
-5.79784e-07
-6.7984e-07
-4.43205e-07
-6.06068e-07
-3.18011e-07
-5.17736e-07
-2.07061e-07
-4.17971e-07
-1.12663e-07
-3.10898e-07
-3.64213e-08
-2.01377e-07
2.0886e-08
-9.47251e-08
5.92158e-08
3.56356e-09
7.92324e-08
8.80459e-08
8.21854e-08
1.53932e-07
7.01461e-08
1.97074e-07
4.66706e-08
2.13593e-07
1.80029e-08
1.9429e-07
1.0595e-07
-4.02355e-10
-3.5679e-08
-9.10866e-09
-3.37214e-08
-2.42641e-08
-6.87439e-09
-4.3145e-08
1.99823e-08
-6.48328e-08
4.33027e-08
-8.91351e-08
6.32482e-08
-1.1624e-07
8.06625e-08
-1.46541e-07
9.66494e-08
-1.80549e-07
1.12408e-07
-2.18841e-07
1.29076e-07
-2.62014e-07
1.47596e-07
-3.10656e-07
1.68644e-07
-3.65321e-07
1.92619e-07
-4.26512e-07
2.19683e-07
-4.94657e-07
2.49814e-07
-5.70069e-07
2.82849e-07
-6.52884e-07
3.18494e-07
-7.42977e-07
3.56296e-07
-8.39876e-07
3.95594e-07
-9.42697e-07
4.35469e-07
-1.05015e-06
4.74752e-07
-1.16059e-06
5.12057e-07
-1.27221e-06
5.45993e-07
-1.38323e-06
5.75297e-07
-1.49196e-06
5.98844e-07
-1.59686e-06
6.15803e-07
-1.69685e-06
6.25914e-07
-1.79131e-06
6.29224e-07
-1.8799e-06
6.26054e-07
-1.96246e-06
6.1687e-07
-2.03899e-06
6.02183e-07
-2.10953e-06
5.82594e-07
-2.1742e-06
5.58586e-07
-2.23315e-06
5.30679e-07
-2.2865e-06
4.99322e-07
-2.33438e-06
4.64913e-07
-2.37691e-06
4.27831e-07
-2.41422e-06
3.88381e-07
-2.44638e-06
3.46805e-07
-2.47344e-06
3.03292e-07
-2.49542e-06
2.58012e-07
-2.51237e-06
2.1116e-07
-2.52434e-06
1.62813e-07
-2.53124e-06
1.12872e-07
-2.53313e-06
6.15593e-08
-2.52995e-06
8.68715e-09
-2.52165e-06
-4.56989e-08
-2.50799e-06
-1.01884e-07
-2.48867e-06
-1.59862e-07
-2.46337e-06
-2.19634e-07
-2.43177e-06
-2.81177e-07
-2.39337e-06
-3.44529e-07
-2.34765e-06
-4.09418e-07
-2.29402e-06
-4.75436e-07
-2.23201e-06
-5.42023e-07
-2.16116e-06
-6.08459e-07
-2.08084e-06
-6.73955e-07
-1.99029e-06
-7.37171e-07
-1.88919e-06
-7.96163e-07
-1.77717e-06
-8.49282e-07
-1.65428e-06
-8.93875e-07
-1.52089e-06
-9.27436e-07
-1.378e-06
-9.47056e-07
-1.22723e-06
-9.49894e-07
-1.07075e-06
-9.33541e-07
-9.12021e-07
-8.95933e-07
-7.55133e-07
-8.36729e-07
-6.04151e-07
-7.5705e-07
-4.62744e-07
-6.59143e-07
-3.34503e-07
-5.46212e-07
-2.22508e-07
-4.22893e-07
-1.29092e-07
-2.94793e-07
-5.56262e-08
-1.68191e-07
-2.4468e-09
-4.96158e-08
3.08969e-08
5.47022e-08
4.59677e-08
1.38862e-07
4.50877e-08
1.97954e-07
3.18535e-08
2.26828e-07
1.24316e-08
2.13711e-07
1.18381e-07
-4.19781e-09
-3.14812e-08
-1.92104e-08
-1.87088e-08
-4.02881e-08
1.42032e-08
-6.46965e-08
4.43907e-08
-9.17089e-08
7.03151e-08
-1.21347e-07
9.28858e-08
-1.53962e-07
1.13277e-07
-1.90077e-07
1.32765e-07
-2.30301e-07
1.52632e-07
-2.75264e-07
1.74039e-07
-3.25576e-07
1.97908e-07
-3.81794e-07
2.24862e-07
-4.44398e-07
2.55223e-07
-5.13769e-07
2.89054e-07
-5.90156e-07
3.26201e-07
-6.73625e-07
3.66318e-07
-7.63987e-07
4.08856e-07
-8.60729e-07
4.53038e-07
-9.62949e-07
4.97815e-07
-1.06939e-06
5.41909e-07
-1.17848e-06
5.83838e-07
-1.2885e-06
6.22085e-07
-1.39772e-06
6.55209e-07
-1.50446e-06
6.82038e-07
-1.60736e-06
7.01739e-07
-1.70549e-06
7.13941e-07
-1.79827e-06
7.18692e-07
-1.88542e-06
7.16374e-07
-1.96684e-06
7.07477e-07
-2.04257e-06
6.92598e-07
-2.11269e-06
6.72302e-07
-2.1773e-06
6.472e-07
-2.23652e-06
6.17807e-07
-2.29046e-06
5.84623e-07
-2.33922e-06
5.4808e-07
-2.38289e-06
5.08586e-07
-2.42158e-06
4.66514e-07
-2.45537e-06
4.22176e-07
-2.4844e-06
3.75835e-07
-2.50875e-06
3.27638e-07
-2.52841e-06
2.77677e-07
-2.54349e-06
2.26241e-07
-2.55409e-06
1.73411e-07
-2.5604e-06
1.19178e-07
-2.56229e-06
6.34522e-08
-2.55972e-06
6.11457e-09
-2.55279e-06
-5.26274e-08
-2.54158e-06
-1.13095e-07
-2.52608e-06
-1.75357e-07
-2.50617e-06
-2.39549e-07
-2.48161e-06
-3.05734e-07
-2.45216e-06
-3.73981e-07
-2.41725e-06
-4.44325e-07
-2.37606e-06
-5.16626e-07
-2.32756e-06
-5.90525e-07
-2.27065e-06
-6.65371e-07
-2.20444e-06
-7.40165e-07
-2.12793e-06
-8.13674e-07
-2.04062e-06
-8.83474e-07
-1.94192e-06
-9.47986e-07
-1.83092e-06
-1.00488e-06
-1.7073e-06
-1.05105e-06
-1.57137e-06
-1.08299e-06
-1.42398e-06
-1.09729e-06
-1.26686e-06
-1.09066e-06
-1.10281e-06
-1.05998e-06
-9.35721e-07
-1.00381e-06
-7.70825e-07
-9.21946e-07
-6.12982e-07
-8.16986e-07
-4.66483e-07
-6.92711e-07
-3.35362e-07
-5.54013e-07
-2.22967e-07
-4.07188e-07
-1.31584e-07
-2.59573e-07
-6.22305e-08
-1.1897e-07
-1.46032e-08
7.07488e-09
1.2759e-08
1.11499e-07
2.25225e-08
1.88191e-07
1.87548e-08
2.30595e-07
7.58665e-09
2.2488e-07
1.25968e-07
-8.23701e-09
-2.32442e-08
-2.92473e-08
2.30151e-09
-5.59437e-08
4.08997e-08
-8.56516e-08
7.40986e-08
-1.17852e-07
1.02515e-07
-1.52729e-07
1.27763e-07
-1.90757e-07
1.51306e-07
-2.32546e-07
1.74553e-07
-2.78751e-07
1.98837e-07
-3.30012e-07
2.25301e-07
-3.8691e-07
2.54805e-07
-4.49927e-07
2.87879e-07
-5.19431e-07
3.24727e-07
-5.9564e-07
3.65263e-07
-6.78587e-07
4.09148e-07
-7.68064e-07
4.55794e-07
-8.63557e-07
5.0435e-07
-9.64206e-07
5.53687e-07
-1.06884e-06
6.02452e-07
-1.17601e-06
6.49074e-07
-1.28404e-06
6.9187e-07
-1.39125e-06
7.29292e-07
-1.49606e-06
7.60019e-07
-1.59716e-06
7.83138e-07
-1.69361e-06
7.98191e-07
-1.7849e-06
8.05227e-07
-1.87078e-06
8.04577e-07
-1.9512e-06
7.96791e-07
-2.02618e-06
7.82459e-07
-2.09579e-06
7.62211e-07
-2.1601e-06
7.36611e-07
-2.21915e-06
7.06253e-07
-2.27301e-06
6.71658e-07
-2.3217e-06
6.33321e-07
-2.36532e-06
5.91698e-07
-2.40394e-06
5.47207e-07
-2.43765e-06
5.00221e-07
-2.46653e-06
4.5106e-07
-2.49075e-06
4.00049e-07
-2.51063e-06
3.47519e-07
-2.52656e-06
2.9361e-07
-2.53865e-06
2.38326e-07
-2.54686e-06
1.81624e-07
-2.55137e-06
1.23689e-07
-2.55223e-06
6.43104e-08
-2.54944e-06
3.32371e-09
-2.54333e-06
-5.87364e-08
-2.5339e-06
-1.2252e-07
-2.52116e-06
-1.88105e-07
-2.50503e-06
-2.55679e-07
-2.48535e-06
-3.25406e-07
-2.46197e-06
-3.97369e-07
-2.43458e-06
-4.71707e-07
-2.40281e-06
-5.48399e-07
-2.36611e-06
-6.27228e-07
-2.32373e-06
-7.07749e-07
-2.2746e-06
-7.89296e-07
-2.21712e-06
-8.71154e-07
-2.14868e-06
-9.5191e-07
-2.06786e-06
-1.0288e-06
-1.97367e-06
-1.09907e-06
-1.86574e-06
-1.15899e-06
-1.74298e-06
-1.20574e-06
-1.60536e-06
-1.23492e-06
-1.45369e-06
-1.24233e-06
-1.28991e-06
-1.22376e-06
-1.11748e-06
-1.17625e-06
-9.41334e-07
-1.09809e-06
-7.67944e-07
-9.90376e-07
-6.03156e-07
-8.57499e-07
-4.52026e-07
-7.05143e-07
-3.19103e-07
-5.40112e-07
-2.07926e-07
-3.7075e-07
-1.205e-07
-2.06396e-07
-5.71751e-08
-5.62498e-08
-1.67111e-08
7.10353e-08
3.7866e-09
1.67693e-07
8.85589e-09
2.25526e-07
4.43613e-09
2.29299e-07
1.30404e-07
-1.23627e-08
-1.08814e-08
-3.89402e-08
2.8879e-08
-7.09236e-08
7.2883e-08
-1.05664e-07
1.08839e-07
-1.42832e-07
1.39684e-07
-1.8274e-07
1.67671e-07
-2.25943e-07
1.94509e-07
-2.73097e-07
2.21708e-07
-3.24867e-07
2.50606e-07
-3.81862e-07
2.82296e-07
-4.44595e-07
3.17539e-07
-5.13448e-07
3.56732e-07
-5.88645e-07
3.99924e-07
-6.70221e-07
4.46839e-07
-7.57982e-07
4.96909e-07
-8.51455e-07
5.49267e-07
-9.49854e-07
6.02749e-07
-1.05214e-06
6.55974e-07
-1.15697e-06
7.0728e-07
-1.26272e-06
7.5482e-07
-1.36778e-06
7.96932e-07
-1.47063e-06
8.32143e-07
-1.56996e-06
8.5935e-07
-1.66483e-06
8.78007e-07
-1.75475e-06
8.88109e-07
-1.83949e-06
8.89967e-07
-1.91898e-06
8.8407e-07
-1.99319e-06
8.71005e-07
-2.06212e-06
8.51386e-07
-2.12574e-06
8.25835e-07
-2.18407e-06
7.94937e-07
-2.2371e-06
7.59282e-07
-2.28486e-06
7.19417e-07
-2.32741e-06
6.75874e-07
-2.36487e-06
6.29159e-07
-2.39739e-06
5.7973e-07
-2.42518e-06
5.28006e-07
-2.44848e-06
4.74365e-07
-2.46755e-06
4.1912e-07
-2.48251e-06
3.62474e-07
-2.49351e-06
3.0461e-07
-2.50076e-06
2.4558e-07
-2.50465e-06
1.85507e-07
-2.50542e-06
1.24463e-07
-2.50346e-06
6.23506e-08
-2.49901e-06
-1.13201e-09
-2.49226e-06
-6.54825e-08
-2.48323e-06
-1.31547e-07
-2.47202e-06
-1.99314e-07
-2.45869e-06
-2.69013e-07
-2.44322e-06
-3.40872e-07
-2.4255e-06
-4.15093e-07
-2.40532e-06
-4.91888e-07
-2.38235e-06
-5.71373e-07
-2.35604e-06
-6.53533e-07
-2.32562e-06
-7.38172e-07
-2.29008e-06
-8.24837e-07
-2.24858e-06
-9.12648e-07
-2.19968e-06
-1.00082e-06
-2.14114e-06
-1.08734e-06
-2.06999e-06
-1.17022e-06
-1.98342e-06
-1.24555e-06
-1.88005e-06
-1.30911e-06
-1.75941e-06
-1.35556e-06
-1.62071e-06
-1.38103e-06
-1.46475e-06
-1.37972e-06
-1.29396e-06
-1.34704e-06
-1.11247e-06
-1.27958e-06
-9.26722e-07
-1.17612e-06
-7.44681e-07
-1.03954e-06
-5.73515e-07
-8.76309e-07
-4.19099e-07
-6.94528e-07
-2.86447e-07
-5.03402e-07
-1.78989e-07
-3.13854e-07
-9.81111e-08
-1.37128e-07
-4.31514e-08
1.60757e-08
-1.142e-08
1.35962e-07
2.12704e-09
2.11979e-07
2.91751e-09
2.28509e-07
1.33321e-07
-1.63583e-08
5.47689e-09
-4.81504e-08
6.0671e-08
-8.50047e-08
1.09737e-07
-1.24445e-07
1.48279e-07
-1.66276e-07
1.81515e-07
-2.10895e-07
2.12289e-07
-2.58906e-07
2.4252e-07
-3.10975e-07
2.73777e-07
-3.67741e-07
3.07373e-07
-4.29756e-07
3.44311e-07
-4.97441e-07
3.85223e-07
-5.71053e-07
4.30345e-07
-6.50663e-07
4.79533e-07
-7.36117e-07
5.32294e-07
-8.27012e-07
5.87804e-07
-9.2266e-07
6.44916e-07
-1.02217e-06
7.02256e-07
-1.1243e-06
7.5811e-07
-1.22751e-06
8.10485e-07
-1.33026e-06
8.57571e-07
-1.43107e-06
8.97741e-07
-1.52861e-06
9.29686e-07
-1.62197e-06
9.52709e-07
-1.71063e-06
9.66666e-07
-1.79432e-06
9.71803e-07
-1.87288e-06
9.68527e-07
-1.9462e-06
9.5739e-07
-2.0142e-06
9.39001e-07
-2.07679e-06
9.13979e-07
-2.13391e-06
8.82952e-07
-2.18552e-06
8.46546e-07
-2.23163e-06
8.05387e-07
-2.27229e-06
7.60085e-07
-2.30766e-06
7.11239e-07
-2.33791e-06
6.59412e-07
-2.3633e-06
6.05117e-07
-2.38411e-06
5.48814e-07
-2.40063e-06
4.90892e-07
-2.41315e-06
4.31633e-07
-2.42195e-06
3.71278e-07
-2.42741e-06
3.10067e-07
-2.42991e-06
2.48082e-07
-2.42979e-06
1.85386e-07
-2.42731e-06
1.21985e-07
-2.42274e-06
5.77829e-08
-2.41649e-06
-7.38356e-09
-2.40847e-06
-7.35009e-08
-2.39906e-06
-1.40965e-07
-2.3884e-06
-2.09971e-07
-2.37664e-06
-2.80775e-07
-2.36385e-06
-3.53653e-07
-2.35006e-06
-4.28888e-07
-2.33519e-06
-5.06758e-07
-2.31907e-06
-5.87496e-07
-2.30135e-06
-6.71246e-07
-2.28151e-06
-7.58017e-07
-2.25873e-06
-8.47614e-07
-2.2318e-06
-9.3958e-07
-2.19939e-06
-1.03322e-06
-2.1596e-06
-1.12714e-06
-2.11064e-06
-1.21918e-06
-2.04917e-06
-1.30702e-06
-1.97156e-06
-1.38672e-06
-1.87441e-06
-1.4527e-06
-1.75643e-06
-1.49901e-06
-1.61673e-06
-1.51942e-06
-1.45616e-06
-1.50761e-06
-1.27765e-06
-1.45809e-06
-1.08641e-06
-1.36736e-06
-8.90782e-07
-1.23517e-06
-7.00635e-07
-1.06646e-06
-5.24565e-07
-8.70598e-07
-3.69257e-07
-6.58709e-07
-2.3995e-07
-4.43161e-07
-1.39554e-07
-2.37524e-07
-6.83455e-08
-5.51328e-08
-2.41246e-08
9.17408e-08
-2.15452e-09
1.90009e-07
2.95964e-09
2.23395e-07
1.36281e-07
-2.01586e-08
2.56355e-08
-5.6688e-08
9.72004e-08
-9.79891e-08
1.51039e-07
-1.41741e-07
1.92031e-07
-1.8785e-07
2.27624e-07
-2.36765e-07
2.61204e-07
-2.89108e-07
2.94863e-07
-3.45528e-07
3.30196e-07
-4.06613e-07
3.68458e-07
-4.72836e-07
4.10534e-07
-5.4451e-07
4.56897e-07
-6.21764e-07
5.07598e-07
-7.0451e-07
5.6228e-07
-7.92427e-07
6.20211e-07
-8.84939e-07
6.80315e-07
-9.81297e-07
7.41274e-07
-1.08043e-06
8.01387e-07
-1.18084e-06
8.58526e-07
-1.28109e-06
9.10734e-07
-1.37975e-06
9.56229e-07
-1.47548e-06
9.93471e-07
-1.56735e-06
1.02156e-06
-1.6548e-06
1.04016e-06
-1.73745e-06
1.04932e-06
-1.81504e-06
1.04939e-06
-1.88738e-06
1.04086e-06
-1.9543e-06
1.02431e-06
-2.01564e-06
1.00035e-06
-2.0713e-06
9.69632e-07
-2.12118e-06
9.32832e-07
-2.16528e-06
8.90651e-07
-2.20369e-06
8.43797e-07
-2.23658e-06
7.92969e-07
-2.26418e-06
7.38844e-07
-2.28681e-06
6.82046e-07
-2.30483e-06
6.23138e-07
-2.31862e-06
5.626e-07
-2.32854e-06
5.00813e-07
-2.33499e-06
4.38079e-07
-2.33836e-06
3.74655e-07
-2.33903e-06
3.1073e-07
-2.33733e-06
2.46381e-07
-2.33357e-06
1.81634e-07
-2.32805e-06
1.16457e-07
-2.32102e-06
5.07518e-08
-2.31278e-06
-1.56163e-08
-2.30349e-06
-8.27929e-08
-2.29342e-06
-1.51041e-07
-2.28278e-06
-2.20606e-07
-2.27178e-06
-2.91774e-07
-2.26058e-06
-3.64856e-07
-2.24929e-06
-4.4018e-07
-2.23796e-06
-5.18086e-07
-2.22656e-06
-5.98891e-07
-2.21495e-06
-6.82864e-07
-2.20278e-06
-7.70185e-07
-2.1895e-06
-8.60897e-07
-2.17422e-06
-9.54852e-07
-2.15583e-06
-1.05162e-06
-2.1327e-06
-1.15027e-06
-2.10255e-06
-1.24933e-06
-2.06287e-06
-1.3467e-06
-2.01066e-06
-1.43893e-06
-1.9411e-06
-1.52227e-06
-1.8502e-06
-1.58991e-06
-1.73477e-06
-1.63484e-06
-1.59351e-06
-1.64887e-06
-1.42737e-06
-1.62423e-06
-1.24006e-06
-1.55467e-06
-1.03852e-06
-1.43671e-06
-8.33362e-07
-1.27161e-06
-6.36613e-07
-1.06735e-06
-4.58261e-07
-8.37062e-07
-3.05678e-07
-5.95744e-07
-1.83855e-07
-3.59347e-07
-9.461e-08
-1.44378e-07
-3.6538e-08
3.36689e-08
-5.80477e-09
1.59276e-07
3.60649e-09
2.13983e-07
1.39888e-07
-2.37135e-08
4.9349e-08
-6.44352e-08
1.37922e-07
-1.09712e-07
1.96315e-07
-1.57333e-07
2.39652e-07
-2.07266e-07
2.77557e-07
-2.59984e-07
3.13923e-07
-3.16102e-07
3.5098e-07
-3.76228e-07
3.90322e-07
-4.40884e-07
4.33115e-07
-5.10451e-07
4.801e-07
-5.85129e-07
5.31575e-07
-6.64918e-07
5.87387e-07
-7.49593e-07
6.46955e-07
-8.38687e-07
7.09305e-07
-9.31586e-07
7.73214e-07
-1.02742e-06
8.37107e-07
-1.1248e-06
8.98769e-07
-1.22233e-06
9.56058e-07
-1.31868e-06
1.00708e-06
-1.41252e-06
1.05007e-06
-1.50289e-06
1.08383e-06
-1.58911e-06
1.10778e-06
-1.67069e-06
1.12174e-06
-1.7473e-06
1.12592e-06
-1.81863e-06
1.12073e-06
-1.88445e-06
1.10668e-06
-1.94453e-06
1.08439e-06
-1.99869e-06
1.05451e-06
-2.04683e-06
1.01777e-06
-2.08893e-06
9.74939e-07
-2.12512e-06
9.26833e-07
-2.15559e-06
8.74268e-07
-2.18065e-06
8.18037e-07
-2.2007e-06
7.5889e-07
-2.21616e-06
6.97505e-07
-2.22748e-06
6.34454e-07
-2.23508e-06
5.70202e-07
-2.23939e-06
5.05125e-07
-2.24083e-06
4.39519e-07
-2.23978e-06
3.73604e-07
-2.23657e-06
3.07518e-07
-2.2315e-06
2.41313e-07
-2.22485e-06
1.7499e-07
-2.21689e-06
1.08495e-07
-2.20786e-06
4.17238e-08
-2.19802e-06
-2.54595e-08
-2.18758e-06
-9.32324e-08
-2.17679e-06
-1.61828e-07
-2.1659e-06
-2.315e-07
-2.15513e-06
-3.02543e-07
-2.1447e-06
-3.75282e-07
-2.13481e-06
-4.50072e-07
-2.12561e-06
-5.27291e-07
-2.11718e-06
-6.07319e-07
-2.10952e-06
-6.90524e-07
-2.10248e-06
-7.77222e-07
-2.09573e-06
-8.67647e-07
-2.08869e-06
-9.61888e-07
-2.08051e-06
-1.0598e-06
-2.06988e-06
-1.16089e-06
-2.05501e-06
-1.2642e-06
-2.03361e-06
-1.3681e-06
-2.00246e-06
-1.47008e-06
-1.95811e-06
-1.56662e-06
-1.89556e-06
-1.65246e-06
-1.8095e-06
-1.7209e-06
-1.69547e-06
-1.7629e-06
-1.55131e-06
-1.7684e-06
-1.37815e-06
-1.72783e-06
-1.18089e-06
-1.63397e-06
-9.68814e-07
-1.48369e-06
-7.55298e-07
-1.28086e-06
-5.54638e-07
-1.03772e-06
-3.78065e-07
-7.72317e-07
-2.33112e-07
-5.043e-07
-1.23965e-07
-2.53524e-07
-5.05859e-08
-3.97105e-08
-1.00235e-08
1.18713e-07
4.17021e-09
1.9979e-07
1.44058e-07
-2.69048e-08
7.62538e-08
-7.12768e-08
1.82294e-07
-1.20029e-07
2.45067e-07
-1.71031e-07
2.90655e-07
-2.24283e-07
3.30809e-07
-2.80256e-07
3.69896e-07
-3.39535e-07
4.10259e-07
-4.02675e-07
4.53462e-07
-4.7012e-07
5.0056e-07
-5.42154e-07
5.52135e-07
-6.18869e-07
6.0829e-07
-7.00146e-07
6.68663e-07
-7.85638e-07
7.32448e-07
-8.74844e-07
7.98511e-07
-9.67103e-07
8.65473e-07
-1.06121e-06
9.31219e-07
-1.1558e-06
9.93354e-07
-1.24964e-06
1.04989e-06
-1.34145e-06
1.09889e-06
-1.4302e-06
1.13882e-06
-1.51513e-06
1.16877e-06
-1.59564e-06
1.18829e-06
-1.67128e-06
1.19738e-06
-1.74166e-06
1.19631e-06
-1.80647e-06
1.18553e-06
-1.8654e-06
1.16562e-06
-1.91824e-06
1.13723e-06
-1.96485e-06
1.10112e-06
-2.00522e-06
1.05814e-06
-2.03948e-06
1.0092e-06
-2.06789e-06
9.55247e-07
-2.09083e-06
8.972e-07
-2.10873e-06
8.35941e-07
-2.12211e-06
7.72267e-07
-2.13145e-06
7.06851e-07
-2.13724e-06
6.40241e-07
-2.13992e-06
5.72877e-07
-2.1399e-06
5.05109e-07
-2.13757e-06
4.37191e-07
-2.13326e-06
3.69289e-07
-2.12724e-06
3.01499e-07
-2.11977e-06
2.33846e-07
-2.11109e-06
1.66308e-07
-2.10141e-06
9.88193e-08
-2.09096e-06
3.12736e-08
-2.07996e-06
-3.64679e-08
-2.06861e-06
-1.0458e-07
-2.05716e-06
-1.73279e-07
-2.04585e-06
-2.4281e-07
-2.03493e-06
-3.13458e-07
-2.02467e-06
-3.85546e-07
-2.01531e-06
-4.59434e-07
-2.00708e-06
-5.35519e-07
-2.00018e-06
-6.14222e-07
-1.99472e-06
-6.95978e-07
-1.99073e-06
-7.8121e-07
-1.98808e-06
-8.70303e-07
-1.98642e-06
-9.63544e-07
-1.98517e-06
-1.06106e-06
-1.98335e-06
-1.16271e-06
-1.97956e-06
-1.26798e-06
-1.97186e-06
-1.3758e-06
-1.95759e-06
-1.48435e-06
-1.93346e-06
-1.59075e-06
-1.89515e-06
-1.69077e-06
-1.83748e-06
-1.77858e-06
-1.75422e-06
-1.84615e-06
-1.63956e-06
-1.88306e-06
-1.4905e-06
-1.87689e-06
-1.30851e-06
-1.81596e-06
-1.10025e-06
-1.69195e-06
-8.78004e-07
-1.50311e-06
-6.58414e-07
-1.25731e-06
-4.58071e-07
-9.72661e-07
-2.88876e-07
-6.73494e-07
-1.57931e-07
-3.8447e-07
-6.75471e-08
-1.30094e-07
-1.56993e-08
6.68656e-08
4.21337e-09
1.79877e-07
1.48271e-07
-2.96683e-08
1.05922e-07
-7.71255e-08
2.29751e-07
-1.28826e-07
2.96767e-07
-1.8269e-07
3.44519e-07
-2.38718e-07
3.86836e-07
-2.9736e-07
4.28538e-07
-3.59156e-07
4.72055e-07
-4.24596e-07
5.18903e-07
-4.94045e-07
5.70009e-07
-5.67693e-07
6.25782e-07
-6.45528e-07
6.86125e-07
-7.27325e-07
7.50461e-07
-8.12687e-07
8.17809e-07
-9.01132e-07
8.86956e-07
-9.91733e-07
9.56074e-07
-1.08313e-06
1.02262e-06
-1.17421e-06
1.08443e-06
-1.26378e-06
1.13946e-06
-1.35077e-06
1.18588e-06
-1.43431e-06
1.22237e-06
-1.51371e-06
1.24817e-06
-1.5884e-06
1.26298e-06
-1.65792e-06
1.2669e-06
-1.72187e-06
1.26025e-06
-1.77989e-06
1.24355e-06
-1.8317e-06
1.21743e-06
-1.87714e-06
1.18267e-06
-1.91619e-06
1.14017e-06
-1.949e-06
1.09095e-06
-1.97587e-06
1.03607e-06
-1.99722e-06
9.76593e-07
-2.01356e-06
9.13537e-07
-2.02544e-06
8.47826e-07
-2.03342e-06
7.80241e-07
-2.03798e-06
7.11419e-07
-2.03962e-06
6.41872e-07
-2.03873e-06
5.71993e-07
-2.0357e-06
5.02078e-07
-2.03083e-06
4.32325e-07
-2.0244e-06
3.62851e-07
-2.01661e-06
2.93711e-07
-2.00767e-06
2.24908e-07
-1.99776e-06
1.56401e-07
-1.98706e-06
8.81182e-08
-1.97574e-06
1.99547e-08
-1.96399e-06
-4.82218e-08
-1.952e-06
-1.16572e-07
-1.93999e-06
-1.8529e-07
-1.9282e-06
-2.546e-07
-1.91689e-06
-3.24765e-07
-1.90634e-06
-3.9609e-07
-1.89686e-06
-4.68922e-07
-1.88872e-06
-5.43658e-07
-1.8822e-06
-6.20735e-07
-1.87755e-06
-7.00631e-07
-1.87492e-06
-7.83846e-07
-1.87434e-06
-8.70877e-07
-1.8757e-06