/*--------------------------------*- C++ -*----------------------------------*\
  =========                 |
  \\      /  F ield         | OpenFOAM: The Open Source CFD Toolbox
   \\    /   O peration     | Website:  https://openfoam.org
    \\  /    A nd           | Version:  13
     \\/     M anipulation  |
\*---------------------------------------------------------------------------*/
FoamFile
{
    format      ascii;
    class       volVectorField;
    location    "2.2";
    object      U;
}
// * * * * * * * * * * * * * * * * * * * * * * * * * * * * * * * * * * * * * //

dimensions      [0 1 -1 0 0 0 0];

internalField   nonuniform List<vector> 
6400
(
(7.92429e-05 -7.96533e-05 0)
(0.00055569 -0.000155727 0)
(0.00120474 -0.000181134 0)
(0.00182118 -0.000171922 0)
(0.00230811 -0.000144449 0)
(0.00265173 -0.000119962 0)
(0.00287567 -0.000105859 0)
(0.00301624 -0.000101543 0)
(0.0031063 -0.000103877 0)
(0.00316775 -0.000109851 0)
(0.00321034 -0.00011708 0)
(0.00323384 -0.000124001 0)
(0.00323096 -0.00012951 0)
(0.00319176 -0.000133738 0)
(0.00310258 -0.000136925 0)
(0.00295442 -0.000139251 0)
(0.0027382 -0.000141817 0)
(0.00244685 -0.000145234 0)
(0.00207394 -0.000149758 0)
(0.00161152 -0.000155506 0)
(0.00104852 -0.000162915 0)
(0.000368861 -0.000172837 0)
(-0.000438694 -0.000185307 0)
(-0.00140259 -0.000196052 0)
(-0.00255404 -0.000201749 0)
(-0.00392324 -0.000199185 0)
(-0.00554915 -0.000180548 0)
(-0.00747476 -0.000132138 0)
(-0.00974518 -3.61527e-05 0)
(-0.0124696 0.000118043 0)
(-0.0156345 0.000327026 0)
(-0.0192698 0.000599328 0)
(-0.0233809 0.000924442 0)
(-0.0279503 0.00127981 0)
(-0.0329262 0.00164174 0)
(-0.0382329 0.00198672 0)
(-0.0437688 0.00229029 0)
(-0.0494215 0.00253609 0)
(-0.0550708 0.0027139 0)
(-0.0606013 0.00282074 0)
(-0.0659024 0.00285808 0)
(-0.0708762 0.0028283 0)
(-0.0754391 0.00273373 0)
(-0.0795073 0.00257565 0)
(-0.0830124 0.00235807 0)
(-0.0858986 0.00208625 0)
(-0.0881363 0.00176938 0)
(-0.0895991 0.00144103 0)
(-0.0902573 0.0011436 0)
(-0.0903435 0.000698885 0)
(-0.0894025 0.000288454 0)
(-0.0877343 -0.000167368 0)
(-0.0851411 -0.000628639 0)
(-0.0817122 -0.00109413 0)
(-0.0774126 -0.00154838 0)
(-0.0722912 -0.00197438 0)
(-0.0663741 -0.00236086 0)
(-0.0597953 -0.00272852 0)
(-0.0525793 -0.00305052 0)
(-0.0448498 -0.00330179 0)
(-0.0367452 -0.00345654 0)
(-0.0284512 -0.00349841 0)
(-0.0201676 -0.00340985 0)
(-0.0121186 -0.00318192 0)
(-0.00452142 -0.00281836 0)
(0.00231144 -0.00235387 0)
(0.00812929 -0.00174284 0)
(0.0127677 -0.00103699 0)
(0.0160257 -0.000295341 0)
(0.0178548 0.000411962 0)
(0.0180362 0.001003 0)
(0.0171405 0.00127049 0)
(0.0149468 0.00139363 0)
(0.0120776 0.00128769 0)
(0.00903741 0.00101533 0)
(0.00618479 0.000702042 0)
(0.00377419 0.000443914 0)
(0.00190701 0.00025759 0)
(0.000630679 0.000105537 0)
(9.07548e-06 -2.31454e-05 0)
(0.000154341 -0.000552622 0)
(0.00106321 -0.00105972 0)
(0.0021154 -0.00114622 0)
(0.00298449 -0.000976227 0)
(0.00356226 -0.000713801 0)
(0.00384711 -0.000460848 0)
(0.00388859 -0.00026415 0)
(0.00374607 -0.00013068 0)
(0.00347208 -4.75314e-05 0)
(0.00310086 5.71949e-06 0)
(0.00264537 4.96659e-05 0)
(0.00209988 0.000100899 0)
(0.00144797 0.000169509 0)
(0.000666064 0.000260543 0)
(-0.000272788 0.000374722 0)
(-0.00139713 0.000509189 0)
(-0.00272989 0.000659788 0)
(-0.00429561 0.000825332 0)
(-0.00612079 0.00100776 0)
(-0.0082369 0.00121246 0)
(-0.0106829 0.00144757 0)
(-0.0135064 0.00172276 0)
(-0.0167695 0.00205024 0)
(-0.0205281 0.00243905 0)
(-0.0248343 0.00289181 0)
(-0.0297339 0.00340907 0)
(-0.0352487 0.00400119 0)
(-0.0413757 0.00468507 0)
(-0.0480759 0.00545117 0)
(-0.0552426 0.00623948 0)
(-0.0628129 0.00701059 0)
(-0.0706423 0.00773818 0)
(-0.0785871 0.00837999 0)
(-0.0864994 0.00890682 0)
(-0.0942626 0.00929478 0)
(-0.101746 0.00950626 0)
(-0.10884 0.0095291 0)
(-0.115455 0.00936907 0)
(-0.121517 0.00903488 0)
(-0.126965 0.00854169 0)
(-0.131752 0.0079063 0)
(-0.135838 0.00714356 0)
(-0.139187 0.00627266 0)
(-0.141778 0.00531363 0)
(-0.143594 0.00428088 0)
(-0.144626 0.0031837 0)
(-0.144855 0.00203239 0)
(-0.144246 0.000840943 0)
(-0.142784 -0.000399704 0)
(-0.140506 -0.00170064 0)
(-0.137335 -0.00303911 0)
(-0.133327 -0.00439583 0)
(-0.128448 -0.00576256 0)
(-0.122723 -0.00711909 0)
(-0.116155 -0.00844575 0)
(-0.108774 -0.00970811 0)
(-0.100613 -0.0108879 0)
(-0.0917013 -0.0119458 0)
(-0.0821584 -0.0128473 0)
(-0.0721022 -0.0135552 0)
(-0.0616547 -0.0140088 0)
(-0.050978 -0.0141683 0)
(-0.0402543 -0.0139885 0)
(-0.0296829 -0.0134295 0)
(-0.019496 -0.0124751 0)
(-0.00994847 -0.0111461 0)
(-0.00127041 -0.00943261 0)
(0.00631213 -0.00739294 0)
(0.0125892 -0.0050972 0)
(0.0173951 -0.00266883 0)
(0.0205764 -0.000299655 0)
(0.0221035 0.00181854 0)
(0.0219097 0.00355183 0)
(0.0201728 0.00471247 0)
(0.0171512 0.00505891 0)
(0.0132334 0.00476469 0)
(0.00906257 0.00402587 0)
(0.00521607 0.00305442 0)
(0.00215266 0.00192643 0)
(0.000232764 0.00068893 0)
(0.000197498 -0.00121871 0)
(0.00119827 -0.00213587 0)
(0.00212632 -0.0020897 0)
(0.00269279 -0.00158835 0)
(0.00288076 -0.000974973 0)
(0.00275104 -0.000421136 0)
(0.0023693 1.09838e-05 0)
(0.00179214 0.000321981 0)
(0.00105662 0.000543677 0)
(0.000179255 0.000718601 0)
(-0.000841466 0.000886812 0)
(-0.00202102 0.00107891 0)
(-0.00338655 0.0013147 0)
(-0.00497184 0.00160397 0)
(-0.00681299 0.00194882 0)
(-0.0089461 0.00234585 0)
(-0.0114129 0.00279313 0)
(-0.0142547 0.00329174 0)
(-0.0175158 0.0038484 0)
(-0.0212439 0.00447529 0)
(-0.0254893 0.00518794 0)
(-0.0303006 0.00600125 0)
(-0.0357198 0.00692389 0)
(-0.041771 0.00795371 0)
(-0.0484553 0.00907558 0)
(-0.0557428 0.0102601 0)
(-0.0635668 0.0114627 0)
(-0.071821 0.0126378 0)
(-0.0803623 0.0137339 0)
(-0.0890317 0.0147083 0)
(-0.0976877 0.0155297 0)
(-0.106186 0.0161539 0)
(-0.114391 0.0165423 0)
(-0.122193 0.0166744 0)
(-0.129483 0.0165552 0)
(-0.136195 0.0162009 0)
(-0.142296 0.0156137 0)
(-0.147752 0.014809 0)
(-0.152546 0.0138097 0)
(-0.156665 0.0126368 0)
(-0.160103 0.0113135 0)
(-0.162855 0.00986187 0)
(-0.164916 0.00829923 0)
(-0.166282 0.00663867 0)
(-0.166945 0.00489149 0)
(-0.166897 0.00306983 0)
(-0.166131 0.00118463 0)
(-0.164644 -0.000759311 0)
(-0.162395 -0.00276879 0)
(-0.159382 -0.00483545 0)
(-0.155595 -0.00693193 0)
(-0.151029 -0.0090503 0)
(-0.14567 -0.0111754 0)
(-0.139522 -0.0132837 0)
(-0.132586 -0.0153476 0)
(-0.124879 -0.0173314 0)
(-0.116434 -0.0191923 0)
(-0.107293 -0.0208701 0)
(-0.097521 -0.0223115 0)
(-0.0872242 -0.0234466 0)
(-0.076522 -0.0242034 0)
(-0.0655479 -0.0245223 0)
(-0.0544765 -0.024341 0)
(-0.0434829 -0.0235991 0)
(-0.0327593 -0.0222533 0)
(-0.0225381 -0.0203069 0)
(-0.0130429 -0.0177779 0)
(-0.00447701 -0.0147327 0)
(0.0029642 -0.0112627 0)
(0.00912151 -0.00750898 0)
(0.0138668 -0.00366339 0)
(0.0171193 5.78834e-05 0)
(0.0188158 0.0033888 0)
(0.0188682 0.00601639 0)
(0.0174295 0.00781122 0)
(0.0147622 0.00850147 0)
(0.01111 0.00819728 0)
(0.00706162 0.00702484 0)
(0.00324942 0.00507383 0)
(0.000419711 0.00226632 0)
(0.000215622 -0.001891 0)
(0.00107111 -0.00303271 0)
(0.00159525 -0.00264649 0)
(0.00168084 -0.00172554 0)
(0.00139841 -0.000766178 0)
(0.000831907 5.68752e-05 0)
(3.60046e-05 0.000702665 0)
(-0.000955435 0.001193 0)
(-0.00212805 0.00157886 0)
(-0.00348431 0.00191923 0)
(-0.00504094 0.00226802 0)
(-0.00682608 0.00266709 0)
(-0.00887608 0.00314391 0)
(-0.0112323 0.00371257 0)
(-0.0139389 0.00437749 0)
(-0.0170417 0.00513859 0)
(-0.0205885 0.00599628 0)
(-0.0246275 0.00695391 0)
(-0.0292072 0.00801975 0)
(-0.0343729 0.00920527 0)
(-0.0401608 0.0105203 0)
(-0.0465907 0.0119662 0)
(-0.0536571 0.0135294 0)
(-0.0613217 0.0151766 0)
(-0.0695085 0.016855 0)
(-0.0781067 0.018498 0)
(-0.0869754 0.0200315 0)
(-0.0959536 0.0213946 0)
(-0.104887 0.0225356 0)
(-0.113634 0.023389 0)
(-0.122069 0.0239329 0)
(-0.130064 0.0241563 0)
(-0.137549 0.0240603 0)
(-0.14447 0.0236551 0)
(-0.150785 0.0229562 0)
(-0.156489 0.0219861 0)
(-0.161572 0.0207683 0)
(-0.166036 0.0193282 0)
(-0.169887 0.017692 0)
(-0.17313 0.0158834 0)
(-0.17577 0.0139247 0)
(-0.177811 0.0118351 0)
(-0.179253 0.00963005 0)
(-0.18009 0.00732148 0)
(-0.180315 0.00491891 0)
(-0.179916 0.00242954 0)
(-0.178884 -0.000140597 0)
(-0.177204 -0.00278531 0)
(-0.174854 -0.00549311 0)
(-0.171815 -0.00827126 0)
(-0.168073 -0.0111011 0)
(-0.163612 -0.0139672 0)
(-0.158415 -0.0168487 0)
(-0.152472 -0.0197173 0)
(-0.145774 -0.0225369 0)
(-0.138322 -0.0252597 0)
(-0.13013 -0.0278255 0)
(-0.121229 -0.0301628 0)
(-0.111659 -0.0321878 0)
(-0.101489 -0.0338076 0)
(-0.0908245 -0.0349367 0)
(-0.0797755 -0.0354701 0)
(-0.0685131 -0.0353287 0)
(-0.0572332 -0.0344539 0)
(-0.0461134 -0.0327871 0)
(-0.035353 -0.0302944 0)
(-0.0251834 -0.0270039 0)
(-0.015823 -0.0230019 0)
(-0.00747 -0.0184121 0)
(-0.000293487 -0.0133984 0)
(0.0055695 -0.00818755 0)
(0.0100215 -0.00302963 0)
(0.0130108 0.00179121 0)
(0.0145461 0.00593349 0)
(0.0145852 0.00906716 0)
(0.0131975 0.0110115 0)
(0.0106454 0.0116059 0)
(0.00728287 0.0108388 0)
(0.00359945 0.00858568 0)
(0.000487664 0.00422366 0)
(0.000210999 -0.00245581 0)
(0.000747613 -0.00355574 0)
(0.000769075 -0.00270162 0)
(0.000346552 -0.00137572 0)
(-0.00039331 -0.000115131 0)
(-0.00138342 0.000946279 0)
(-0.00258775 0.0017978 0)
(-0.00399524 0.00248256 0)
(-0.00561263 0.0030678 0)
(-0.00746011 0.00362594 0)
(-0.00956825 0.00422179 0)
(-0.0119752 0.00490527 0)
(-0.0147241 0.00570916 0)
(-0.0178608 0.00665083 0)
(-0.0214326 0.00773668 0)
(-0.0254869 0.00896769 0)
(-0.0300705 0.0103442 0)
(-0.0352274 0.0118683 0)
(-0.0409943 0.0135427 0)
(-0.0473943 0.0153669 0)
(-0.054428 0.0173301 0)
(-0.0620652 0.019404 0)
(-0.0702399 0.0215385 0)
(-0.0788482 0.0236605 0)
(-0.087754 0.0256808 0)
(-0.0968017 0.0275157 0)
(-0.105842 0.0290893 0)
(-0.114735 0.0303324 0)
(-0.123337 0.0312074 0)
(-0.131541 0.0316856 0)
(-0.139262 0.03177 0)
(-0.146446 0.0314694 0)
(-0.153081 0.0308046 0)
(-0.159146 0.029808 0)
(-0.164646 0.0285143 0)
(-0.169587 0.0269535 0)
(-0.173973 0.0251528 0)
(-0.177817 0.0231387 0)
(-0.181127 0.0209353 0)
(-0.183912 0.0185657 0)
(-0.186175 0.0160494 0)
(-0.18792 0.0134019 0)
(-0.189143 0.0106348 0)
(-0.189841 0.00775664 0)
(-0.190003 0.00477488 0)
(-0.189621 0.0016935 0)
(-0.18868 -0.00148378 0)
(-0.187162 -0.00475323 0)
(-0.185048 -0.0081096 0)
(-0.182317 -0.0115523 0)
(-0.178948 -0.0150694 0)
(-0.174913 -0.0186443 0)
(-0.170192 -0.0222531 0)
(-0.164761 -0.0258648 0)
(-0.158602 -0.0294382 0)
(-0.151696 -0.0329177 0)
(-0.144034 -0.0362304 0)
(-0.135623 -0.0392881 0)
(-0.12648 -0.0419928 0)
(-0.116639 -0.0442264 0)
(-0.106177 -0.0458561 0)
(-0.0951883 -0.0467674 0)
(-0.0837791 -0.0468315 0)
(-0.0721508 -0.0459458 0)
(-0.0605374 -0.0440567 0)
(-0.0491499 -0.041145 0)
(-0.0381906 -0.037204 0)
(-0.0279101 -0.0323321 0)
(-0.0185367 -0.0266732 0)
(-0.0102696 -0.02043 0)
(-0.00327295 -0.0138668 0)
(0.00233339 -0.00728561 0)
(0.0064832 -0.00101789 0)
(0.00916684 0.00457777 0)
(0.0103947 0.00914822 0)
(0.0102238 0.0123782 0)
(0.00879394 0.0140428 0)
(0.00637181 0.0140085 0)
(0.00329771 0.01186 0)
(0.000431837 0.00616336 0)
(0.000185826 -0.00281844 0)
(0.000302226 -0.00361252 0)
(-0.000215492 -0.00223828 0)
(-0.00112658 -0.000551273 0)
(-0.00231116 0.000972263 0)
(-0.0037237 0.00225319 0)
(-0.00534639 0.00331319 0)
(-0.007187 0.00421529 0)
(-0.00926962 0.00504033 0)
(-0.0116287 0.00587075 0)
(-0.0143052 0.00677851 0)
(-0.0173442 0.00781804 0)
(-0.020792 0.00902447 0)
(-0.024695 0.010416 0)
(-0.0290984 0.0119987 0)
(-0.0340446 0.0137718 0)
(-0.0395707 0.0157315 0)
(-0.0457043 0.0178709 0)
(-0.0524566 0.020177 0)
(-0.0598144 0.022625 0)
(-0.0677326 0.0251716 0)
(-0.0761289 0.0277507 0)
(-0.0848868 0.0302757 0)
(-0.0938614 0.0326459 0)
(-0.102901 0.0347625 0)
(-0.111862 0.0365404 0)
(-0.120606 0.037912 0)
(-0.12901 0.0388286 0)
(-0.136979 0.0392811 0)
(-0.14447 0.0392729 0)
(-0.151453 0.0388301 0)
(-0.157915 0.0379926 0)
(-0.16386 0.0367884 0)
(-0.169288 0.0352551 0)
(-0.174212 0.0334306 0)
(-0.178639 0.0313467 0)
(-0.182581 0.0290337 0)
(-0.186049 0.0265168 0)
(-0.189051 0.0238201 0)
(-0.191595 0.0209627 0)
(-0.193685 0.0179611 0)
(-0.195321 0.0148284 0)
(-0.196503 0.0115724 0)
(-0.197228 0.0081989 0)
(-0.197487 0.00471342 0)
(-0.197273 0.00111523 0)
(-0.196575 -0.00259483 0)
(-0.195372 -0.00641665 0)
(-0.193642 -0.0103473 0)
(-0.191362 -0.0143845 0)
(-0.188515 -0.0185244 0)
(-0.185065 -0.022751 0)
(-0.18098 -0.0270392 0)
(-0.17623 -0.031358 0)
(-0.170781 -0.0356654 0)
(-0.164604 -0.0399031 0)
(-0.157667 -0.0439893 0)
(-0.149942 -0.0478211 0)
(-0.141428 -0.051284 0)
(-0.132129 -0.0542365 0)
(-0.12206 -0.0565286 0)
(-0.111303 -0.0580042 0)
(-0.0999483 -0.0584779 0)
(-0.0881206 -0.0578209 0)
(-0.0760063 -0.0559195 0)
(-0.0639099 -0.0527402 0)
(-0.0520838 -0.0483064 0)
(-0.0407639 -0.0426967 0)
(-0.0302318 -0.0360637 0)
(-0.0207286 -0.0286436 0)
(-0.0124651 -0.0207446 0)
(-0.00560197 -0.0127262 0)
(-0.000236751 -0.00497747 0)
(0.0035985 0.00209644 0)
(0.00592707 0.00809424 0)
(0.00681896 0.0126558 0)
(0.00640115 0.0154841 0)
(0.00488348 0.0163201 0)
(0.00264276 0.014539 0)
(0.000318729 0.00782701 0)
(0.000145687 -0.00293064 0)
(-0.000220902 -0.00316145 0)
(-0.00126983 -0.0012713 0)
(-0.00264275 0.000735625 0)
(-0.00426433 0.00249337 0)
(-0.00610246 0.00398441 0)
(-0.00815361 0.00526201 0)
(-0.0104413 0.00640689 0)
(-0.0130029 0.00751084 0)
(-0.0158833 0.00866306 0)
(-0.0191299 0.009939 0)
(-0.0227909 0.011394 0)
(-0.026912 0.0130623 0)
(-0.0315361 0.0149597 0)
(-0.036701 0.0170885 0)
(-0.0424374 0.0194417 0)
(-0.0487649 0.0220042 0)
(-0.0556859 0.0247521 0)
(-0.0631784 0.0276472 0)
(-0.0711891 0.0306328 0)
(-0.0796307 0.033629 0)
(-0.0883837 0.0365344 0)
(-0.0973049 0.0392433 0)
(-0.106247 0.0416503 0)
(-0.115073 0.0436575 0)
(-0.123649 0.0451877 0)
(-0.131863 0.0462065 0)
(-0.139652 0.0466957 0)
(-0.146978 0.0466741 0)
(-0.153827 0.0461736 0)
(-0.16019 0.0452307 0)
(-0.16607 0.0438925 0)
(-0.171476 0.0421957 0)
(-0.176417 0.0401813 0)
(-0.180906 0.0378861 0)
(-0.184952 0.0353416 0)
(-0.188565 0.0325797 0)
(-0.191756 0.0296238 0)
(-0.194533 0.0264929 0)
(-0.1969 0.0232038 0)
(-0.19886 0.0197727 0)
(-0.200416 0.0162126 0)
(-0.201572 0.0125292 0)
(-0.202326 0.00872585 0)
(-0.202676 0.00480571 0)
(-0.202624 0.000761162 0)
(-0.202169 -0.00341743 0)
(-0.201294 -0.00773366 0)
(-0.199981 -0.012184 0)
(-0.1982 -0.0167603 0)
(-0.195928 -0.0214599 0)
(-0.193136 -0.0262762 0)
(-0.189781 -0.0311839 0)
(-0.185817 -0.0361509 0)
(-0.181194 -0.0411345 0)
(-0.175883 -0.0460904 0)
(-0.169857 -0.0509559 0)
(-0.163028 -0.0555966 0)
(-0.155366 -0.0598813 0)
(-0.146849 -0.0636657 0)
(-0.13745 -0.066761 0)
(-0.127192 -0.0689693 0)
(-0.116121 -0.0700989 0)
(-0.104352 -0.0699381 0)
(-0.0920217 -0.0683121 0)
(-0.0793404 -0.0651311 0)
(-0.0666412 -0.060389 0)
(-0.0542574 -0.0542019 0)
(-0.0424885 -0.0467132 0)
(-0.0316313 -0.0381823 0)
(-0.0219582 -0.0289611 0)
(-0.0136916 -0.0194683 0)
(-0.00698457 -0.0101652 0)
(-0.00191074 -0.00152768 0)
(0.00154183 0.00598363 0)
(0.00345316 0.011947 0)
(0.00396755 0.0160045 0)
(0.00330408 0.0177918 0)
(0.00185682 0.0164699 0)
(0.000193043 0.00904991 0)
(7.98405e-05 -0.00274999 0)
(-0.000788284 -0.00220641 0)
(-0.00233749 0.000185236 0)
(-0.00415087 0.00247272 0)
(-0.00620067 0.0044443 0)
(-0.00846283 0.00614371 0)
(-0.0109453 0.0076522 0)
(-0.0136838 0.00906551 0)
(-0.0167253 0.0104836 0)
(-0.0201204 0.0119993 0)
(-0.0239196 0.0136878 0)
(-0.0281701 0.0156021 0)
(-0.0329136 0.0177718 0)
(-0.0381852 0.0202068 0)
(-0.0440111 0.0229013 0)
(-0.0504051 0.0258359 0)
(-0.0573641 0.0289783 0)
(-0.0648616 0.0322799 0)
(-0.0728418 0.0356723 0)
(-0.0812182 0.0390636 0)
(-0.089874 0.0423479 0)
(-0.0986754 0.0454054 0)
(-0.107483 0.0481187 0)
(-0.116156 0.0503895 0)
(-0.124566 0.0521395 0)
(-0.132624 0.0533163 0)
(-0.140271 0.0539119 0)
(-0.147472 0.0539493 0)
(-0.154215 0.0534608 0)
(-0.160501 0.0524904 0)
(-0.166333 0.0510827 0)
(-0.171719 0.0492865 0)
(-0.176669 0.0471428 0)
(-0.181193 0.0446924 0)
(-0.185299 0.0419704 0)
(-0.188993 0.0390087 0)
(-0.192284 0.0358361 0)
(-0.195181 0.0324764 0)
(-0.197692 0.0289483 0)
(-0.199824 0.0252686 0)
(-0.201583 0.021454 0)
(-0.20297 0.0175203 0)
(-0.20399 0.0134736 0)
(-0.204669 0.00928289 0)
(-0.204997 0.00498403 0)
(-0.204972 0.000565646 0)
(-0.204585 -0.00397918 0)
(-0.203858 -0.00865961 0)
(-0.202788 -0.0134855 0)
(-0.201377 -0.0184718 0)
(-0.1996 -0.0236237 0)
(-0.197446 -0.0289549 0)
(-0.194884 -0.0344395 0)
(-0.191854 -0.0400394 0)
(-0.188287 -0.0457152 0)
(-0.184093 -0.0513979 0)
(-0.179173 -0.0569986 0)
(-0.173483 -0.0624296 0)
(-0.16693 -0.0675392 0)
(-0.15952 -0.0722333 0)
(-0.151135 -0.0762604 0)
(-0.141758 -0.0793983 0)
(-0.131373 -0.0813931 0)
(-0.120022 -0.0819916 0)
(-0.10781 -0.080983 0)
(-0.0949145 -0.0781403 0)
(-0.0815854 -0.0734168 0)
(-0.068197 -0.06686 0)
(-0.0552101 -0.0586887 0)
(-0.0429489 -0.0491598 0)
(-0.0317618 -0.0386576 0)
(-0.0219532 -0.0276621 0)
(-0.0137552 -0.0167158 0)
(-0.00730438 -0.0063865 0)
(-0.00263124 0.00277883 0)
(0.000333178 0.0102739 0)
(0.00175504 0.0156601 0)
(0.00190146 0.0184771 0)
(0.00115094 0.0176802 0)
(0.000102999 0.00983682 0)
(-2.77784e-06 -0.00225262 0)
(-0.00136995 -0.000760664 0)
(-0.00338581 0.00210469 0)
(-0.00561758 0.00464284 0)
(-0.00808248 0.00681685 0)
(-0.0107602 0.00872786 0)
(-0.0136673 0.0104818 0)
(-0.016848 0.0121867 0)
(-0.0203551 0.0139478 0)
(-0.0242416 0.0158581 0)
(-0.0285571 0.0179896 0)
(-0.0333446 0.0203892 0)
(-0.0386387 0.0230786 0)
(-0.0444636 0.026058 0)
(-0.0508302 0.0293083 0)
(-0.0577331 0.0327932 0)
(-0.0651448 0.0364572 0)
(-0.0730112 0.0402236 0)
(-0.0812494 0.0439922 0)
(-0.0897548 0.0476525 0)
(-0.0983992 0.0510716 0)
(-0.107044 0.0541264 0)
(-0.115557 0.0567049 0)
(-0.12382 0.0587207 0)
(-0.131737 0.0601182 0)
(-0.139256 0.06089 0)
(-0.146346 0.0610507 0)
(-0.152999 0.0606405 0)
(-0.159213 0.0597047 0)
(-0.164996 0.0582939 0)
(-0.170352 0.0564533 0)
(-0.175284 0.0542316 0)
(-0.179799 0.05167 0)
(-0.183899 0.0488081 0)
(-0.18759 0.0456805 0)
(-0.190877 0.0423199 0)
(-0.193767 0.0387564 0)
(-0.19627 0.0350166 0)
(-0.198388 0.0311286 0)
(-0.200137 0.0271045 0)
(-0.201569 0.0229325 0)
(-0.202686 0.0186389 0)
(-0.2035 0.0142276 0)
(-0.204005 0.00973004 0)
(-0.204217 0.00510777 0)
(-0.204138 0.000365084 0)
(-0.203776 -0.00450014 0)
(-0.203153 -0.00949598 0)
(-0.202265 -0.0146358 0)
(-0.201112 -0.0199291 0)
(-0.199684 -0.0253807 0)
(-0.197967 -0.0309872 0)
(-0.195938 -0.0367766 0)
(-0.193578 -0.0427607 0)
(-0.19085 -0.0489168 0)
(-0.187701 -0.0552042 0)
(-0.184059 -0.0615642 0)
(-0.179842 -0.067912 0)
(-0.174857 -0.07399 0)
(-0.168886 -0.0795992 0)
(-0.161894 -0.0846054 0)
(-0.153846 -0.0888197 0)
(-0.144626 -0.0919098 0)
(-0.134209 -0.0935669 0)
(-0.122625 -0.0934885 0)
(-0.109964 -0.0913968 0)
(-0.0964553 -0.0871218 0)
(-0.0823938 -0.0805791 0)
(-0.0682854 -0.0719624 0)
(-0.0546621 -0.0616144 0)
(-0.0419213 -0.049935 0)
(-0.0304681 -0.0374456 0)
(-0.020636 -0.0247793 0)
(-0.0126543 -0.0126161 0)
(-0.00661999 -0.00161993 0)
(-0.00250114 0.00759137 0)
(-0.000139585 0.0144643 0)
(0.000781813 0.0184327 0)
(0.000658583 0.0182983 0)
(7.55416e-05 0.010302 0)
(-9.83337e-05 -0.0014295 0)
(-0.00194598 0.00115241 0)
(-0.00439096 0.00445984 0)
(-0.00701761 0.00722685 0)
(-0.00987942 0.00959702 0)
(-0.0129564 0.0117248 0)
(-0.0162709 0.0137374 0)
(-0.0198729 0.0157523 0)
(-0.0238174 0.0178769 0)
(-0.0281568 0.0202014 0)
(-0.0329367 0.0227913 0)
(-0.0381934 0.0256843 0)
(-0.0439518 0.0288912 0)
(-0.0502231 0.0323983 0)
(-0.057002 0.0361698 0)
(-0.064263 0.0401479 0)
(-0.0719567 0.0442515 0)
(-0.0800073 0.0483765 0)
(-0.0883238 0.0524072 0)
(-0.0967829 0.0562017 0)
(-0.105248 0.0596234 0)
(-0.113596 0.0625514 0)
(-0.12171 0.0648847 0)
(-0.129495 0.0665629 0)
(-0.136893 0.0675693 0)
(-0.143883 0.0679212 0)
(-0.150454 0.0676551 0)
(-0.156603 0.0668176 0)
(-0.162329 0.0654578 0)
(-0.167631 0.063626 0)
(-0.172508 0.0613676 0)
(-0.176962 0.0587291 0)
(-0.180992 0.0557524 0)
(-0.184602 0.0524777 0)
(-0.187799 0.0489432 0)
(-0.190594 0.0451836 0)
(-0.193002 0.0412301 0)
(-0.195038 0.0371097 0)
(-0.196723 0.0328452 0)
(-0.198088 0.0284608 0)
(-0.199123 0.0239858 0)
(-0.199845 0.01941 0)
(-0.200283 0.0147342 0)
(-0.200462 0.00996102 0)
(-0.200407 0.00508544 0)
(-0.200143 0.000105163 0)
(-0.199697 -0.0049902 0)
(-0.199063 -0.0102078 0)
(-0.198251 -0.0155684 0)
(-0.197268 -0.0210898 0)
(-0.196117 -0.0267886 0)
(-0.194791 -0.0326777 0)
(-0.193278 -0.0387654 0)
(-0.191559 -0.0450498 0)
(-0.189599 -0.0515199 0)
(-0.187347 -0.0581474 0)
(-0.184733 -0.0648811 0)
(-0.181661 -0.0716548 0)
(-0.178072 -0.0784852 0)
(-0.173818 -0.0851559 0)
(-0.168728 -0.0914233 0)
(-0.162425 -0.0967862 0)
(-0.154846 -0.101108 0)
(-0.145916 -0.104078 0)
(-0.135544 -0.105297 0)
(-0.12374 -0.104377 0)
(-0.110622 -0.101019 0)
(-0.0964419 -0.0950405 0)
(-0.0816021 -0.0864205 0)
(-0.0667392 -0.075514 0)
(-0.0524882 -0.0628275 0)
(-0.0393488 -0.0489233 0)
(-0.0277692 -0.0345002 0)
(-0.0181034 -0.0203722 0)
(-0.0105502 -0.00734791 0)
(-0.00514021 0.00380759 0)
(-0.001742 0.0124019 0)
(-4.88557e-05 0.0176829 0)
(0.000380358 0.0184058 0)
(0.000102291 0.0105755 0)
(-0.000196884 -0.00027984 0)
(-0.00249994 0.00350026 0)
(-0.00533828 0.00722134 0)
(-0.00833135 0.0102011 0)
(-0.0115656 0.0127638 0)
(-0.0150175 0.0151131 0)
(-0.0187127 0.0173944 0)
(-0.0227038 0.0197314 0)
(-0.0270457 0.0222307 0)
(-0.0317873 0.0249769 0)
(-0.0369681 0.0280262 0)
(-0.0426159 0.0314045 0)
(-0.0487445 0.0351083 0)
(-0.0553515 0.0391075 0)
(-0.0624154 0.0433466 0)
(-0.0698932 0.0477446 0)
(-0.0777194 0.052196 0)
(-0.0858154 0.0565841 0)
(-0.0940637 0.0607581 0)
(-0.102333 0.0645652 0)
(-0.110508 0.067878 0)
(-0.118468 0.0705788 0)
(-0.12612 0.0725937 0)
(-0.133409 0.0738976 0)
(-0.140308 0.0745055 0)
(-0.146802 0.0744476 0)
(-0.152879 0.0737669 0)
(-0.158534 0.0725111 0)
(-0.163759 0.0707289 0)
(-0.168548 0.0684697 0)
(-0.172897 0.0657815 0)
(-0.176805 0.0627122 0)
(-0.180273 0.0593072 0)
(-0.18331 0.0556116 0)
(-0.185929 0.0516682 0)
(-0.188149 0.0475159 0)
(-0.189989 0.0431894 0)
(-0.191475 0.03872 0)
(-0.192632 0.0341316 0)
(-0.193479 0.0294433 0)
(-0.194038 0.0246683 0)
(-0.194349 0.0198141 0)
(-0.194439 0.0148905 0)
(-0.194327 0.0098994 0)
(-0.194041 0.00483438 0)
(-0.193603 -0.000313327 0)
(-0.193028 -0.00555915 0)
(-0.192326 -0.0109167 0)
(-0.19152 -0.0164048 0)
(-0.190621 -0.0220439 0)
(-0.189637 -0.0278549 0)
(-0.188574 -0.0338587 0)
(-0.187429 -0.040075 0)
(-0.186194 -0.0465185 0)
(-0.184848 -0.0531958 0)
(-0.183358 -0.0601004 0)
(-0.181669 -0.0672058 0)
(-0.179702 -0.0744557 0)
(-0.177362 -0.0817589 0)
(-0.174518 -0.0889883 0)
(-0.170993 -0.0959873 0)
(-0.166643 -0.102647 0)
(-0.161183 -0.108512 0)
(-0.154203 -0.112944 0)
(-0.145638 -0.115748 0)
(-0.135338 -0.11641 0)
(-0.123301 -0.114488 0)
(-0.109676 -0.109635 0)
(-0.0947673 -0.101681 0)
(-0.0791045 -0.090731 0)
(-0.0634885 -0.0773077 0)
(-0.0486958 -0.0621423 0)
(-0.0353125 -0.0459974 0)
(-0.0238324 -0.0298078 0)
(-0.0146008 -0.0145608 0)
(-0.00774438 -0.00120589 0)
(-0.0031841 0.00938863 0)
(-0.000667399 0.0162676 0)
(0.000305871 0.0181846 0)
(0.000175297 0.0108022 0)
(-0.000297956 0.00118854 0)
(-0.0030196 0.0062431 0)
(-0.00621246 0.0103559 0)
(-0.00954124 0.0135366 0)
(-0.0131179 0.0162895 0)
(-0.0169134 0.0188633 0)
(-0.0209541 0.0214186 0)
(-0.0252934 0.0240827 0)
(-0.0299835 0.0269588 0)
(-0.0350679 0.0301228 0)
(-0.0405789 0.0336195 0)
(-0.0465347 0.0374606 0)
(-0.0529378 0.0416264 0)
(-0.0597724 0.0460681 0)
(-0.0670027 0.0507097 0)
(-0.0745741 0.0554481 0)
(-0.0824215 0.0601678 0)
(-0.0904364 0.0647131 0)
(-0.0984918 0.0689154 0)
(-0.10648 0.0726387 0)
(-0.114283 0.0757485 0)
(-0.121803 0.0781548 0)
(-0.128987 0.0798207 0)
(-0.135798 0.0807465 0)
(-0.142213 0.0809571 0)
(-0.148214 0.080488 0)
(-0.153788 0.0793843 0)
(-0.158921 0.0776956 0)
(-0.163603 0.0754715 0)
(-0.167825 0.0727632 0)
(-0.171583 0.0696232 0)
(-0.17488 0.0661041 0)
(-0.177727 0.0622581 0)
(-0.180139 0.0581365 0)
(-0.182141 0.0537864 0)
(-0.183759 0.049251 0)
(-0.185023 0.0445688 0)
(-0.185962 0.039771 0)
(-0.186609 0.0348814 0)
(-0.186994 0.0299196 0)
(-0.187147 0.0249026 0)
(-0.187098 0.0198381 0)
(-0.186874 0.0147297 0)
(-0.186497 0.00957631 0)
(-0.185989 0.0043703 0)
(-0.185374 -0.000898373 0)
(-0.184668 -0.00624178 0)
(-0.183888 -0.0116813 0)
(-0.183055 -0.0172356 0)
(-0.182186 -0.0229271 0)
(-0.181295 -0.0287795 0)
(-0.180394 -0.0348181 0)
(-0.179488 -0.0410679 0)
(-0.178581 -0.0475515 0)
(-0.177665 -0.0542863 0)
(-0.176722 -0.0612813 0)
(-0.175716 -0.0685327 0)
(-0.174592 -0.0760193 0)
(-0.173271 -0.0836949 0)
(-0.171644 -0.0914646 0)
(-0.169558 -0.0991786 0)
(-0.166825 -0.106621 0)
(-0.163202 -0.113514 0)
(-0.158435 -0.119627 0)
(-0.152085 -0.124225 0)
(-0.143874 -0.126794 0)
(-0.133618 -0.126773 0)
(-0.121287 -0.123647 0)
(-0.107066 -0.117039 0)
(-0.0913536 -0.106816 0)
(-0.0748518 -0.0932407 0)
(-0.0585634 -0.0770808 0)
(-0.043391 -0.0593436 0)
(-0.0300182 -0.0410576 0)
(-0.0189627 -0.0234128 0)
(-0.010502 -0.0075894 0)
(-0.0046523 0.00532088 0)
(-0.00122784 0.0141725 0)
(0.000278853 0.0176162 0)
(0.000275621 0.0110661 0)
(-0.000399537 0.00295334 0)
(-0.00349695 0.00934248 0)
(-0.00700225 0.0138277 0)
(-0.0106323 0.0172002 0)
(-0.0145164 0.0201403 0)
(-0.018618 0.0229386 0)
(-0.0229628 0.0257683 0)
(-0.0276025 0.0287574 0)
(-0.0325852 0.0320032 0)
(-0.0379483 0.0355711 0)
(-0.0437156 0.0394923 0)
(-0.0498958 0.0437628 0)
(-0.0564802 0.0483452 0)
(-0.0634415 0.0531715 0)
(-0.0707343 0.0581456 0)
(-0.0783076 0.063157 0)
(-0.0860676 0.0680529 0)
(-0.0938918 0.0726469 0)
(-0.101677 0.0767945 0)
(-0.109312 0.0803467 0)
(-0.116698 0.0831918 0)
(-0.123775 0.0852766 0)
(-0.130497 0.0865825 0)
(-0.136832 0.0871196 0)
(-0.142756 0.086919 0)
(-0.148247 0.0860214 0)
(-0.153287 0.0844733 0)
(-0.15786 0.0823257 0)
(-0.161952 0.0796321 0)
(-0.16556 0.0764498 0)
(-0.168688 0.0728386 0)
(-0.171347 0.0688596 0)
(-0.173561 0.0645727 0)
(-0.175356 0.0600347 0)
(-0.176766 0.0552982 0)
(-0.177827 0.0504098 0)
(-0.178575 0.045408 0)
(-0.179042 0.0403228 0)
(-0.179263 0.0351786 0)
(-0.179271 0.0299952 0)
(-0.179094 0.0247857 0)
(-0.178756 0.0195553 0)
(-0.178282 0.0143048 0)
(-0.177693 0.00903084 0)
(-0.177008 0.00372519 0)
(-0.176248 -0.00162304 0)
(-0.175432 -0.00702727 0)
(-0.174578 -0.0125073 0)
(-0.173706 -0.0180835 0)
(-0.172835 -0.0237794 0)
(-0.171983 -0.0296208 0)
(-0.171167 -0.0356356 0)
(-0.1704 -0.0418527 0)
(-0.169694 -0.0483008 0)
(-0.169052 -0.055006 0)
(-0.168469 -0.0619888 0)
(-0.167925 -0.0692611 0)
(-0.167387 -0.0768212 0)
(-0.166799 -0.0846477 0)
(-0.166075 -0.0926871 0)
(-0.165093 -0.100845 0)
(-0.163691 -0.108971 0)
(-0.161652 -0.116826 0)
(-0.158711 -0.124078 0)
(-0.154529 -0.130298 0)
(-0.148688 -0.134907 0)
(-0.140749 -0.137147 0)
(-0.130432 -0.136278 0)
(-0.117697 -0.131695 0)
(-0.102763 -0.123 0)
(-0.086179 -0.110135 0)
(-0.0688805 -0.093609 0)
(-0.0520683 -0.0745172 0)
(-0.036793 -0.0542167 0)
(-0.0238024 -0.0340512 0)
(-0.0135821 -0.0154885 0)
(-0.00630629 8.7407e-05 0)
(-0.00185692 0.0113417 0)
(0.000239589 0.0166781 0)
(0.00038447 0.0113825 0)
(-0.000495076 0.00498539 0)
(-0.00392179 0.0127553 0)
(-0.00769758 0.0175979 0)
(-0.0115918 0.0211545 0)
(-0.0157441 0.0242775 0)
(-0.02011 0.027297 0)
(-0.0247126 0.0303961 0)
(-0.0296007 0.0337015 0)
(-0.0348174 0.0373022 0)
(-0.0403928 0.0412517 0)
(-0.0463426 0.045566 0)
(-0.0526662 0.0502245 0)
(-0.0593449 0.0551717 0)
(-0.0663425 0.0603207 0)
(-0.0736202 0.0655688 0)
(-0.0811044 0.0707781 0)
(-0.0886792 0.0757462 0)
(-0.0962433 0.080315 0)
(-0.103697 0.0843283 0)
(-0.110939 0.087651 0)
(-0.117903 0.0902045 0)
(-0.124533 0.091948 0)
(-0.130788 0.0928742 0)
(-0.136636 0.0930035 0)
(-0.142051 0.0923703 0)
(-0.147006 0.0910181 0)
(-0.151481 0.0889963 0)
(-0.15546 0.0863611 0)
(-0.158937 0.0831741 0)
(-0.161917 0.0795023 0)
(-0.164417 0.0754161 0)
(-0.166461 0.0709853 0)
(-0.168083 0.0662768 0)
(-0.169323 0.0613533 0)
(-0.170222 0.0562704 0)
(-0.170817 0.0510733 0)
(-0.171145 0.0457978 0)
(-0.171243 0.0404737 0)
(-0.171142 0.0351235 0)
(-0.17087 0.0297627 0)
(-0.170451 0.0244006 0)
(-0.169906 0.0190403 0)
(-0.169255 0.0136807 0)
(-0.168517 0.00831691 0)
(-0.167707 0.00294056 0)
(-0.166844 -0.00245968 0)
(-0.165945 -0.00789793 0)
(-0.165029 -0.0133923 0)
(-0.164113 -0.0189632 0)
(-0.163219 -0.0246339 0)
(-0.162367 -0.0304309 0)
(-0.161577 -0.0363831 0)
(-0.16087 -0.0425219 0)
(-0.160262 -0.0488799 0)
(-0.159766 -0.0554899 0)
(-0.15939 -0.0623823 0)
(-0.159129 -0.0695825 0)
(-0.158965 -0.0771065 0)
(-0.158863 -0.084954 0)
(-0.158762 -0.0931009 0)
(-0.15857 -0.101489 0)
(-0.158153 -0.110014 0)
(-0.15733 -0.118504 0)
(-0.155862 -0.126701 0)
(-0.153449 -0.134224 0)
(-0.149715 -0.140568 0)
(-0.144199 -0.14504 0)
(-0.136372 -0.146768 0)
(-0.125835 -0.144809 0)
(-0.112535 -0.138422 0)
(-0.0967597 -0.127191 0)
(-0.0792778 -0.11124 0)
(-0.061281 -0.0914301 0)
(-0.0442056 -0.0692891 0)
(-0.0292337 -0.0465969 0)
(-0.0171178 -0.0250523 0)
(-0.00825782 -0.00642692 0)
(-0.00265139 0.00767542 0)
(0.000127564 0.0153399 0)
(0.000488005 0.0117298 0)
(-0.000580903 0.00725508 0)
(-0.00428731 0.0164376 0)
(-0.00829064 0.0216255 0)
(-0.0124094 0.0253589 0)
(-0.0167878 0.028659 0)
(-0.021373 0.0318928 0)
(-0.0261845 0.0352514 0)
(-0.0312669 0.0388581 0)
(-0.0366575 0.0427927 0)
(-0.0423796 0.0470947 0)
(-0.0484409 0.0517645 0)
(-0.0548324 0.0567646 0)
(-0.0615255 0.0620223 0)
(-0.0684906 0.0674413 0)
(-0.075679 0.0729047 0)
(-0.0829857 0.0782137 0)
(-0.0903083 0.0831836 0)
(-0.0975611 0.0876589 0)
(-0.104646 0.0914817 0)
(-0.111485 0.0945449 0)
(-0.118018 0.0967801 0)
(-0.124193 0.0981584 0)
(-0.129971 0.0986835 0)
(-0.135318 0.0983806 0)
(-0.140204 0.0972874 0)
(-0.144602 0.0954511 0)
(-0.148494 0.0929283 0)
(-0.151871 0.0897848 0)
(-0.15474 0.0860945 0)
(-0.157119 0.0819367 0)
(-0.159036 0.0773916 0)
(-0.160531 0.0725371 0)
(-0.161648 0.0674468 0)
(-0.162431 0.0621849 0)
(-0.162922 0.0568042 0)
(-0.16316 0.051347 0)
(-0.163181 0.0458472 0)
(-0.163017 0.0403311 0)
(-0.162695 0.0348167 0)
(-0.162238 0.0293153 0)
(-0.161664 0.0238329 0)
(-0.160991 0.0183705 0)
(-0.160234 0.0129257 0)
(-0.159406 0.00749271 0)