/*--------------------------------*- C++ -*----------------------------------*\
  =========                 |
  \\      /  F ield         | OpenFOAM: The Open Source CFD Toolbox
   \\    /   O peration     | Website:  https://openfoam.org
    \\  /    A nd           | Version:  13
     \\/     M anipulation  |
\*---------------------------------------------------------------------------*/
FoamFile
{
    format      ascii;
    class       volScalarField;
    location    "8.6";
    object      epsilon;
}
// * * * * * * * * * * * * * * * * * * * * * * * * * * * * * * * * * * * * * //

dimensions      [0 2 -3 0 0 0 0];

internalField   nonuniform List<scalar> 
6400
(
2.88382e-05
0.000148039
0.000359757
0.000579266
0.000744421
0.000836916
0.00087035
0.000873534
0.000878995
0.000911571
0.000990659
0.00114537
0.00138949
0.0017276
0.0021415
0.00260777
0.00310209
0.00361485
0.0041214
0.00461054
0.00510343
0.00564322
0.00628678
0.00706541
0.00794362
0.00882644
0.00970457
0.0105766
0.0114705
0.0124093
0.0133795
0.014349
0.0153023
0.016243
0.0171942
0.018162
0.0191656
0.0202115
0.0213121
0.0224706
0.0236955
0.0249963
0.0263801
0.0278624
0.0294565
0.0312172
0.0332492
0.0357747
0.0382913
0.0408632
0.0433761
0.0458166
0.0481042
0.0501767
0.051957
0.0533524
0.0540571
0.0543364
0.0542092
0.0531557
0.0513056
0.0486679
0.0452687
0.0412536
0.0366883
0.0318141
0.0268657
0.0220303
0.0174865
0.0134433
0.0101494
0.00738429
0.00515019
0.00344255
0.00221302
0.00137484
0.000827834
0.000475273
0.00022457
4.7811e-05
0.00013925
0.000140072
0.000229467
0.000332309
0.000409279
0.000455826
0.000478767
0.000489263
0.000501251
0.000528508
0.000585899
0.000694154
0.000870163
0.00112679
0.00146768
0.00189364
0.00240624
0.00301176
0.00371563
0.00452788
0.00545629
0.00654248
0.00783731
0.00936305
0.0111073
0.0130985
0.0151404
0.0171008
0.0188741
0.020366
0.0214956
0.0223629
0.0229511
0.0233542
0.0236105
0.0237783
0.0238978
0.0240027
0.0241152
0.0242559
0.0244478
0.0246945
0.0249942
0.0253236
0.0257099
0.0261888
0.026746
0.027384
0.0280939
0.0288394
0.0296216
0.030394
0.0311397
0.0318082
0.0323574
0.0326526
0.0327445
0.0326133
0.0321939
0.0313587
0.0301561
0.0285467
0.0265396
0.0242082
0.0216396
0.0189407
0.0162248
0.0136065
0.0111738
0.00902
0.00719692
0.005632
0.00428891
0.0031483
0.00220657
0.00144631
0.000882384
0.000495425
0.000257383
0.00025303
0.000304139
0.000254915
0.000341484
0.000428975
0.000481456
0.000507942
0.000522502
0.000539341
0.000573853
0.000644524
0.000775855
0.000996966
0.0013357
0.00181209
0.00243871
0.00322727
0.0041898
0.00534003
0.00668722
0.00823767
0.00999719
0.0119273
0.0139387
0.0158733
0.0175459
0.0187181
0.0194233
0.0198081
0.0199998
0.0201434
0.0202135
0.0201223
0.0198138
0.0195255
0.0192238
0.0189641
0.0187552
0.0186369
0.0185917
0.0185915
0.0187189
0.0189153
0.0192198
0.0196446
0.0201802
0.0208017
0.0215061
0.0222874
0.0231412
0.024051
0.025007
0.0259847
0.0269613
0.0279003
0.0287622
0.0294977
0.0300218
0.030249
0.0302668
0.0298914
0.0290678
0.0277895
0.0260413
0.023924
0.0215262
0.0189473
0.0163144
0.0137419
0.0113346
0.00917434
0.0073098
0.00574063
0.00444175
0.00337423
0.00250006
0.00179671
0.0012212
0.000764212
0.000473736
0.000677494
0.000527746
0.000439083
0.000537423
0.000621261
0.000664379
0.000686602
0.000708965
0.000752801
0.000841818
0.00100813
0.00129236
0.00173768
0.0023796
0.00323942
0.00432633
0.00564382
0.00718952
0.00894032
0.0108389
0.0127884
0.0146525
0.0162858
0.0175352
0.0181958
0.0184706
0.0185353
0.0184687
0.0181117
0.0175545
0.0169596
0.0163097
0.0158053
0.0154188
0.0150907
0.0148466
0.0147023
0.0146413
0.0146327
0.0147336
0.0149102
0.0151794
0.015527
0.0159633
0.0164833
0.0170862
0.0177704
0.0185373
0.0193853
0.0203129
0.0213136
0.0223803
0.0234985
0.0246485
0.0258012
0.026919
0.0279518
0.0288407
0.0294855
0.0297787
0.0298181
0.0293794
0.0285181
0.0272113
0.0252827
0.0229581
0.02033
0.0175479
0.0147632
0.0121197
0.00973269
0.00767519
0.00596994
0.00459758
0.00351132
0.00265624
0.00198295
0.00143886
0.000994787
0.00071147
0.00112964
0.000846448
0.000694423
0.000791689
0.000872892
0.00091858
0.000954474
0.00100894
0.00111406
0.00130933
0.00164473
0.00217625
0.00295296
0.00400296
0.00532874
0.0069112
0.00871014
0.0106548
0.0126304
0.0144735
0.0160169
0.017037
0.0174888
0.0176148
0.0175564
0.0171261
0.0163868
0.0155229
0.0147206
0.0140721
0.0134707
0.0129748
0.0125909
0.0122926
0.0120714
0.0119387
0.011879
0.011864
0.0119159
0.0120426
0.0122243
0.0124705
0.0127763
0.0131466
0.0135819
0.0140867
0.0146644
0.0153198
0.0160575
0.0168823
0.0177973
0.0188031
0.0198969
0.0210707
0.02231
0.0235925
0.0248787
0.0261158
0.0272396
0.0281711
0.0287162
0.0289039
0.0286482
0.0278414
0.0265739
0.0245576
0.0220355
0.0191817
0.0161821
0.0132317
0.01051
0.00814842
0.00621021
0.00468941
0.00353069
0.00265473
0.00199307
0.00148556
0.00109263
0.000869329
0.00144346
0.0013017
0.00102944
0.00110936
0.00119259
0.00125597
0.00132774
0.00144601
0.00165796
0.00202165
0.00260315
0.00346331
0.00463801
0.00612382
0.00787611
0.00981253
0.011812
0.0137136
0.0153332
0.0164088
0.0168693
0.016975
0.01682
0.0162604
0.0152826
0.0142851
0.0134013
0.0125981
0.0119224
0.0113576
0.0108776
0.010494
0.0101874
0.00994709
0.00976578
0.00963815
0.00956279
0.00952986
0.00952389
0.00956963
0.00965106
0.00977312
0.00993638
0.0101424
0.0103958
0.0107014
0.0110662
0.0114984
0.0120084
0.0126073
0.0133081
0.0141226
0.0150622
0.016135
0.0173429
0.0186796
0.0201306
0.0216599
0.0232198
0.0247403
0.0261161
0.0272087
0.0277379
0.0278586
0.0273096
0.0262002
0.0240912
0.0213767
0.0182565
0.0149788
0.0118123
0.00899058
0.00666142
0.00486534
0.00355164
0.00261066
0.00194161
0.00145277
0.00109164
0.000933361
0.0015607
0.0019338
0.00145056
0.00150268
0.00159867
0.00169854
0.00183274
0.00205246
0.00242209
0.00301507
0.0039014
0.00512547
0.00668383
0.00851479
0.0105013
0.0124797
0.014252
0.0155979
0.0162486
0.0164341
0.0163571
0.0158014
0.014752
0.0136353
0.012622
0.011708
0.0109295
0.010257
0.00969446
0.00921716
0.00881499
0.00847999
0.00819802
0.00796252
0.00776682
0.00760651
0.00747773
0.00737664
0.00730247
0.00726266
0.00724629
0.00724484
0.00728117
0.00734305
0.0074406
0.00757301
0.00774821
0.00797225
0.00825469
0.0086066
0.00904506
0.00958952
0.0102625
0.011089
0.0120901
0.0132884
0.0147056
0.0163383
0.0181537
0.020101
0.0221138
0.024073
0.0258124
0.0269766
0.0274412
0.0273913
0.026384
0.0241857
0.0211983
0.0176928
0.0140249
0.0105691
0.00762312
0.00533781
0.00370573
0.00260865
0.00186781
0.00137683
0.0010547
0.000926234
0.00151685
0.00278002
0.00196267
0.00198551
0.00210869
0.00226722
0.00249299
0.00285225
0.00342372
0.00428469
0.00548839
0.00703745
0.00886573
0.0108372
0.0127607
0.0144162
0.0154823
0.0159082
0.0159737
0.0155938
0.0146587
0.0134412
0.0123049
0.0112594
0.0103595
0.00958052
0.0089188
0.00834909
0.00786261
0.00744162
0.00707865
0.00676419
0.00649067
0.00625348
0.00604838
0.00587267
0.00572388
0.0055993
0.0054979
0.0054192
0.00536065
0.00532951
0.00531783
0.00531929
0.00535686
0.00541582
0.00550591
0.00562852
0.00579021
0.00599717
0.00625655
0.0065801
0.00698331
0.00748944
0.008135
0.00896307
0.0100224
0.011372
0.0130422
0.0150263
0.0173105
0.0197859
0.0223451
0.0247706
0.0267538
0.0277304
0.028012
0.0272008
0.0248442
0.0214536
0.0174189
0.0132507
0.00945634
0.00639477
0.00418745
0.00274955
0.00186653
0.00131191
0.000990246
0.000891251
0.00141138
0.00386634
0.00256942
0.00256746
0.00273952
0.00297697
0.00332074
0.00384877
0.00464452
0.00577118
0.00724242
0.0089988
0.0109009
0.012744
0.0142904
0.015164
0.015455
0.0154447
0.0148137
0.0136545
0.0123896
0.0112063
0.0101674
0.00926108
0.00848997
0.00782542
0.00725447
0.00675868
0.006329
0.00595435
0.00562907
0.00534649
0.00510235
0.00489298
0.00471497
0.00456536
0.00444169
0.00434211
0.00426476
0.00420807
0.00417322
0.00415759
0.00415373
0.00416972
0.00420721
0.00426237
0.00433904
0.0044375
0.00456087
0.00471202
0.00489533
0.00511671
0.00538426
0.00570886
0.0061053
0.00659664
0.00721658
0.00801961
0.00910115
0.0105916
0.0125566
0.0149955
0.0178631
0.0209815
0.0241317
0.0269122
0.0285316
0.0291285
0.0285231
0.0259045
0.0219601
0.0172585
0.0125158
0.00838853
0.00526898
0.0032046
0.00198838
0.00131237
0.000939946
0.000834214
0.00129105
0.00520264
0.00327874
0.00326162
0.00349651
0.00383115
0.00431054
0.00501761
0.0060265
0.00736707
0.00899601
0.0107844
0.0125289
0.0139855
0.0147711
0.0150202
0.0148767
0.0140856
0.0128203
0.0115385
0.0103308
0.0092793
0.00837654
0.00760167
0.00693931
0.00636676
0.00587265
0.00544493
0.00507678
0.00476089
0.00449243
0.00426602
0.00407753
0.00392272
0.00379783
0.00369938
0.00362419
0.00356962
0.00353416
0.00351719
0.00351176
0.0035178
0.00354093
0.00357635
0.00362593
0.00368863
0.00376593
0.00385853
0.00396815
0.00409666
0.00424672
0.00442173
0.00462627
0.00486659
0.00515148
0.00548989
0.00589864
0.00640349
0.00704576
0.00789312
0.00906251
0.0107849
0.0132026
0.0162978
0.0199377
0.0238075
0.0274469
0.029745
0.0306365
0.0301806
0.0271547
0.0224867
0.0170028
0.0116724
0.00728963
0.00422139
0.00237704
0.00140396
0.000936772
0.000784779
0.0011923
0.00681338
0.00410686
0.00407259
0.00437811
0.00481926
0.00543645
0.00630701
0.00748063
0.00893925
0.0105766
0.0122039
0.0135819
0.0143305
0.0145679
0.0143565
0.0134677
0.0121845
0.0108578
0.00964118
0.00857207
0.00766389
0.00688833
0.00622524
0.0056578
0.00517102
0.00475642
0.00440542
0.00411179
0.00386882
0.00367073
0.00351154
0.00338595
0.00328886
0.00321589
0.00316322
0.00312772
0.00310985
0.00310302
0.00310283
0.00311788
0.00314133
0.00317623
0.00322073
0.0032763
0.00334304
0.00342225
0.00351496
0.00362258
0.00374661
0.00388876
0.00405094
0.00423534
0.00444463
0.00468233
0.00495362
0.00526651
0.00563403
0.00607782
0.00662761
0.00733911
0.00831287
0.0097245
0.0119314
0.0151208
0.0191779
0.0237667
0.0283228
0.0312874
0.0324304
0.0319871
0.0283509
0.0227737
0.016439
0.0105941
0.00611979
0.0032474
0.00170095
0.000995417
0.000770559
0.00115806
0.00877114
0.00507854
0.00499614
0.00537064
0.0059157
0.00665412
0.00764588
0.00890442
0.0103582
0.0118456
0.0131421
0.0138768
0.014115
0.0138822
0.0129641
0.0117026
0.0103511
0.00910618
0.00802354
0.00710095
0.00632215
0.00565984
0.00509831
0.00462393
0.00422634
0.00389754
0.00362914
0.00341353
0.00324287
0.00311002
0.00300826
0.00293182
0.00287574
0.00283606
0.0028097
0.00279657
0.00279153
0.00279114
0.00280177
0.00282014
0.00284636
0.00288132
0.00292525
0.00297934
0.00304444
0.00312193
0.00321314
0.0033196
0.00344294
0.00358488
0.00374716
0.00393149
0.00413948
0.00437262
0.00463244
0.00492097
0.00524184
0.0056025
0.00601834
0.00651875
0.0071547
0.00800798
0.00924781
0.0111824
0.0143359
0.0187294
0.02403
0.0295354
0.0330904
0.0344007
0.0337277
0.0292049
0.0225406
0.0153644
0.00920961
0.00488198
0.0023735
0.00119552
0.000804263
0.00119941
0.0109441
0.00615397
0.00601105
0.00644855
0.00708265
0.00790756
0.00895659
0.0102017
0.0115229
0.0127221
0.0134475
0.0136892
0.0134744
0.012593
0.0113551
0.00999856
0.00871989
0.00761107
0.00667206
0.00588273
0.00522021
0.00466391
0.00420143
0.00382105
0.00351297
0.00326753
0.00307494
0.00292603
0.00281221
0.00272608
0.00266134
0.00261303
0.0025773
0.00255142
0.00253352
0.00252349
0.00251914
0.00251839
0.00252601
0.00254012
0.00256161
0.00259123
0.00262988
0.00267868
0.00273878
0.00281159
0.0028986
0.00300149
0.00312211
0.00326244
0.00342456
0.00361054
0.00382232
0.00406151
0.00432918
0.00462571
0.00495088
0.0053046
0.00568885
0.00611188
0.00659607
0.00719079
0.00797888
0.00911255
0.0108998
0.0139494
0.0186403
0.0246542
0.0311221
0.0350825
0.0364058
0.0351558
0.0293896
0.0214818
0.0136523
0.00752526
0.00363267
0.00166007
0.000935916
0.00137383
0.0132701
0.00730841
0.00709112
0.00757804
0.00827485
0.00913738
0.0101674
0.0112981
0.0123744
0.0130784
0.0133189
0.0131537
0.0123442
0.0111422
0.0097847
0.00847436
0.00732614
0.00636114
0.00555598
0.00488689
0.00433306
0.0038787
0.00351182
0.00322014
0.0029922
0.00281652
0.00268238
0.00258034
0.0025024
0.00244224
0.002395
0.00235725
0.00232665
0.00230181
0.00228201
0.00226707
0.00225775
0.00225383
0.00225346
0.00226134
0.00227648
0.00229974
0.00233214
0.00237468
0.00242856
0.0024951
0.00257584
0.0026725
0.00278707
0.0029218
0.00307915
0.00326177
0.00347235
0.00371343
0.00398707
0.00429445
0.00463546
0.00500835
0.00541008
0.00583782
0.00629305
0.00679019
0.00737253
0.00813311
0.00921641
0.010946
0.0139659
0.0189685
0.0257406
0.033146
0.0371505
0.0382883
0.0359329
0.0284845
0.0193871
0.0113011
0.0056464
0.00253474
0.00125531
0.00179352
0.0156728
0.00851216
0.00820484
0.00872031
0.00944433
0.0102874
0.0112192
0.0121423
0.0127963
0.0130276
0.0129255
0.0122037
0.0110583
0.00970597
0.00836225
0.00716528
0.00615959
0.00532945
0.00464628
0.00408801
0.00363648
0.003277
0.00299592
0.00277934
0.00261433
0.00248887
0.00239277
0.00231776
0.00225752
0.00220754
0.00216475
0.00212731
0.00209423
0.00206514
0.00204011
0.00201946
0.00200363
0.00199439
0.00199077
0.00199107
0.00200129
0.00201906
0.00204589
0.00208255
0.00213011
0.0021898
0.00226306
0.00235159
0.00245741
0.00258287
0.00273071
0.00290403
0.00310623
0.00334087
0.00361143
0.00392079
0.00427068
0.00466091
0.00508865
0.00554826
0.00603251
0.00653666
0.0070678
0.00766344
0.00842102
0.00949757
0.0112375
0.0143666
0.0198164
0.0274968
0.0354928
0.0391992
0.0398928
0.0355531
0.0261555
0.0162333
0.00851056
0.00388852
0.00183148
0.0024648
0.0180825
0.00973381
0.00931815
0.00983521
0.0105453
0.0113091
0.0120661
0.0126398
0.0128566
0.0127839
0.0121689
0.0110945
0.00976065
0.00838307
0.00712739
0.00606542
0.00519565
0.00448847
0.00391684
0.00346045
0.00310164
0.00282449
0.0026134
0.00245355
0.00233195
0.00223766
0.0021622
0.00209935
0.00204485
0.00199605
0.00195146
0.00191044
0.00187291
0.00183911
0.00180946
0.00178445
0.0017646
0.00175074
0.00174401
0.00174195
0.00174706
0.00176117
0.00178338
0.00181495
0.00185663
0.00190953
0.00197496
0.00205451
0.0021501
0.00226406
0.0023992
0.00255883
0.00274677
0.00296736
0.00322526
0.00352513
0.00387106
0.00426571
0.00470915
0.00519768
0.00572305
0.00627339
0.00683745
0.00741527
0.00804103
0.00882033
0.00992611
0.0117465
0.0151322
0.0212358
0.03008
0.0381465
0.0412067
0.0409624
0.0334395
0.0222857
0.0123046
0.00577114
0.00266246
0.00332853
0.0204486
0.0109413
0.0103972
0.0108844
0.0115378
0.0121661
0.0126523
0.0128479
0.0127508
0.0122468
0.011246
0.00994534
0.00853992
0.00721661
0.00608121
0.00515351
0.00440794
0.00381227
0.00334163
0.00297573
0.00269585
0.00248448
0.0023252
0.00220371
0.00210844
0.00203057
0.00196391
0.00190439
0.00184964
0.00179849
0.00175056
0.00170592
0.00166493
0.00162805
0.00159574
0.00156846
0.00154662
0.00153058
0.00152211
0.00151899
0.00152069
0.00153216
0.00155076
0.00157802
0.00161444
0.00166103
0.0017189
0.00178952
0.00187463
0.00197644
0.00209762
0.00224144
0.00241185
0.00261351
0.00285182
0.00313272
0.00346234
0.0038463
0.00428854
0.00478968
0.00534521
0.00594407
0.00656906
0.00720157
0.00783432
0.00850081
0.00932315
0.0104933
0.012484
0.0163224
0.0232711
0.0334817
0.041135
0.0433043
0.0403283
0.0293156
0.017149
0.00825819
0.00377326
0.00433078
0.0227233
0.0121029
0.0114086
0.0118342
0.0123919
0.0128098
0.0129728
0.0128577
0.0124358
0.0115153
0.0102573
0.00883576
0.00744157
0.00621526
0.00520779
0.0044049
0.00377122
0.00327553
0.00289359
0.00260399
0.00238677
0.00222385
0.00209952
0.00200129
0.0019199
0.00184898
0.00178456
0.00172443
0.00166762
0.0016139
0.00156348
0.00151677
0.00147422
0.00143625
0.00140325
0.00137551
0.00135328
0.00133678
0.00132751
0.00132386
0.00132378
0.0013331
0.0013489
0.00137251
0.00140433
0.00144524
0.00149622
0.00155853
0.00163376
0.00172388
0.00183135
0.00195922
0.00211128
0.00229217
0.00250748
0.00276379
0.00306856
0.00342967
0.00385457
0.00434876
0.00491357
0.00554349
0.00622388
0.00693115
0.00763821
0.00833087
0.00904726
0.00992934
0.0112099
0.0135119
0.018124
0.0262641
0.0377967
0.0437509
0.044634
0.0368589
0.0231653
0.0115068
0.00521292
0.00542425
0.0248195
0.0131894
0.0123258
0.0126613
0.0130724
0.0132432
0.013154
0.0127264
0.0119012
0.0106976
0.00927256
0.00781229
0.00648143
0.00536977
0.00448562
0.00379554
0.0032615
0.00285326
0.002546
0.00231715
0.00214642
0.00201655
0.0019138
0.00182816
0.0017529
0.00168393
0.0016191
0.0015575
0.00149903
0.00144395
0.00139269
0.00134568
0.00130331
0.00126587
0.00123357
0.00120657
0.00118496
0.00116885
0.00115927
0.0011552
0.00115465
0.00116197
0.00117555
0.00119602
0.00122386
0.00125978
0.00130464
0.00135955
0.0014259
0.00150542
0.0016003
0.0017133
0.00184789
0.00200842
0.00220028
0.00243012
0.0027059
0.00303682
0.00343283
0.0039036
0.00445644
0.00509336
0.00580717
0.00657821
0.00737427
0.00815838
0.0089121
0.00968757
0.0106429
0.0121113
0.0149779
0.0208346
0.0308934
0.0420785
0.0461638
0.0438366
0.0302999
0.0156983
0.00703284
0.00657477
0.0266626
0.0141729
0.0131268
0.0133444
0.0135571
0.0135306
0.0131366
0.0124108
0.0112648
0.00985298
0.00833747
0.00689683
0.00565765
0.00466337
0.00389272
0.00330299
0.00285602
0.00252178
0.00227457
0.0020915
0.0019532
0.00184436
0.00175382
0.0016742
0.00160107
0.00153213
0.0014665
0.00140409
0.00134519
0.00129024
0.00123964
0.00119374
0.00115275
0.00111682
0.001086
0.00106032
0.00103979
0.0010244
0.00101485
0.00101062
0.00100979
0.00101548
0.00102716
0.00104494
0.00106933
0.00110091
0.00114044
0.00118889
0.00124745
0.00131767
0.00140145
0.00150122
0.00162008
0.00176195
0.0019318
0.00213593
0.00238219
0.00268016
0.00304112
0.00347749
0.00400152
0.00462259
0.00534308
0.00615296
0.00702499
0.0079148
0.00877315
0.00958153
0.0104221
0.0114766
0.013249
0.0169583
0.0245253
0.0371288
0.0461991
0.0478659
0.0381316
0.0210038
0.00927876
0.00777628
0.0282116
0.0150328
0.0137919
0.0138591
0.0139158
0.0136605
0.0130118
0.0119558
0.0105754
0.00902392
0.00747808
0.00609489
0.00495938
0.00407721
0.00340846
0.0029066
0.00253389
0.00226004
0.00205905
0.00190885
0.00179198
0.00169571
0.00161156
0.00153451
0.00146195
0.00139285
0.00132709
0.00126497
0.00120691
0.0011533
0.00110444
0.00106049
0.00102154
0.000987571
0.000958548
0.000934398
0.000915053
0.000900466
0.00089107
0.000886756
0.000885721
0.000890054
0.000900063
0.000915514
0.000936892
0.000964707
0.000999627
0.00104249
0.00109435
0.00115653
0.00123071
0.00131902
0.00142415
0.00154958
0.00169976
0.00188043
0.00209892
0.00236455
0.00268886
0.00308563
0.00357026
0.004158
0.00486042
0.00567956
0.00660045
0.00758441
0.00857017
0.00949482
0.0103493
0.0112528
0.0124675
0.0147803
0.019981
0.0300847
0.0437518
0.0492542
0.0456434
0.0275233
0.0120203
0.00901955
0.029444
0.0157668
0.014313
0.0142276
0.0141251
0.0136371
0.0127402
0.0114308
0.00987194
0.00823853
0.00670629
0.00540228
0.00437211
0.00359299
0.00301413
0.00258786
0.00227679
0.00205058
0.00188384
0.00175627
0.00165295
0.00156385
0.00148292
0.00140702
0.00133484
0.00126615
0.0012012
0.0011404
0.00108413
0.00103265
0.000986108
0.000944518
0.000907834
0.000875953
0.000848752
0.000826107
0.000807911
0.000794087
0.000784851
0.000780463
0.000779237
0.000782406
0.000790932
0.000804351
0.000823112
0.000847664
0.000878597
0.000916648
0.000962742
0.00101804
0.00108401
0.00116249
0.00125584
0.00136711
0.0015002
0.00166022
0.00185381
0.00208962
0.00237876
0.0027352
0.00317581
0.0037196
0.00438527
0.00518632
0.00612291
0.00717136
0.00827544
0.0093507
0.010322
0.0112072
0.0121827
0.0137029
0.0170262
0.0245394
0.038325
0.0492619
0.0507918
0.0352587
0.0154283
0.0103807
0.0303567
0.0163729
0.0146928
0.0144582
0.0141905
0.0135246
0.0123735
0.0108671
0.00918226
0.00751321
0.00602441
0.00480976
0.00388061
0.00319396
0.00269323
0.00233073
0.00206952
0.00187978
0.00173763
0.00162518
0.00153019
0.00144514
0.00136598
0.00129094
0.00121956
0.00115202
0.00108869
0.00102995
0.000976047
0.000927094
0.00088309
0.000843946
0.000809519
0.000779643
0.00075415
0.000732886
0.000715726
0.000702577
0.000693475
0.000689004
0.000687595
0.000689758
0.000696962
0.000708605
0.000725083
0.000746802
0.000774284
0.000808184
0.000849321
0.000898718
0.000957657
0.00102776
0.00111108
0.00121026
0.00132872
0.00147095
0.00164285
0.00185221
0.00210931
0.00242754
0.00282397
0.00331938
0.00393714
0.00469979
0.00562193
0.00669873
0.0078917
0.00911842
0.0102654
0.0112524
0.0121285
0.0132592
0.0153771
0.020553
0.0316041
0.0472295
0.0530345
0.0438681
0.0198267
0.0121227
0.0309646
0.0168503
0.0149432
0.0145604
0.0141468
0.0132908
0.0119497
0.0102914
0.00852542
0.00685582
0.00542898
0.00430609
0.00347041
0.00286533
0.00243152
0.00212183
0.00190003
0.00173756
0.00161268
0.00151014
0.00142028
0.00133769
0.00125984
0.00118589
0.00111587
0.00105011
0.000988964
0.000932696
0.00088141
0.000835087
0.000793615
0.000756821
0.000724505
0.000696465
0.000672508
0.00065247
0.000636215
0.000623645
0.000614706
0.000610112
0.000608525
0.000609822
0.000615851
0.000625939
0.000640425
0.000659676
0.00068416
0.000714464
0.00075132
0.000795638
0.000848553
0.000911492
0.000986258
0.00107516
0.00118119
0.00130826
0.00146155
0.00164798
0.00187682
0.00216044
0.00251523
0.00296224
0.0035272
0.0042388
0.00512349
0.006195
0.00743774
0.00878742
0.0101225
0.0112946
0.0122617
0.0131494
0.0146087
0.0179737
0.026289
0.0424798
0.0535511
0.0519764
0.0255221
0.0144758
0.0312702
0.0172054
0.0150761
0.014546
0.0140146
0.0129828
0.0114916
0.00972317
0.00791322
0.00626827
0.00491336
0.00387965
0.00312847
0.00259438
0.00221709
0.00195039
0.00175919
0.00161676
0.00150385
0.00140782
0.00132126
0.00124046
0.00116394
0.00109147
0.00102328
0.000959722
0.000901066
0.000847429
0.000798789
0.000755023
0.000715938
0.000681311
0.000650908
0.000624509
0.000601912
0.000582948
0.000567481
0.000555413
0.000546686
0.00054193
0.000540174
0.00054074
0.000545728
0.000554455
0.0005672
0.000584294
0.000606162
0.000633334
0.000666471
0.000706391
0.000754109
0.000810895
0.000878345
0.000958492
0.00105395
0.00116815
0.00130562
0.00147244
0.00167684
0.00193001
0.00224713
0.00264849
0.00316036
0.00381475
0.00464651
0.00568523
0.00693955
0.00837384
0.00988419
0.0112993
0.0124494
0.0132848
0.0143443
0.0165425
0.0224991
0.0359552
0.0530506
0.0572074
0.0330393
0.0174354
0.0312535
0.0174353
0.0151023
0.0144634
0.0137825
0.0126232
0.0110184
0.00917648
0.00735202
0.00574873
0.00446952
0.0035195
0.00284339
0.00237036
0.00204024
0.00180804
0.00164027
0.00151244
0.00140783
0.00131619
0.00123199
0.00115276
0.00107778
0.00100712
0.000941082
0.000879954
0.000823879
0.000772852
0.00072675
0.00068537
0.000648472
0.000615799
0.000587105
0.00056216
0.000540765
0.000522752
0.000507986
0.00049637
0.000487843
0.000482926
0.000481012
0.000481004
0.000485065
0.000492602
0.000503822
0.000519026
0.000538601
0.00056303
0.000592914
0.000628996
0.000672197
0.000723657
0.000784807
0.000857451
0.000943903
0.00104717
0.00117122
0.00132138
0.00150489
0.00173174
0.00201569
0.00237567
0.00283722
0.00343352
0.00420449
0.00519161
0.00642472
0.00789791
0.00953667
0.0111749
0.0125868
0.0135945
0.0143226
0.0158813
0.0198563
0.0303189
0.0500811
0.0594992
0.0426684
0.0208808
0.0310902
0.0175812
0.0150635
0.0142853
0.0134891
0.0122297
0.0105447
0.00866061
0.00684424
0.00529309
0.00408912
0.00321571
0.00260544
0.00218441
0.00189323
0.00168843
0.00153847
0.00142124
0.00132246
0.00123394
0.00115164
0.00107402
0.00100079
0.000932163
0.000868439
0.000809791
0.000756249
0.000707704
0.000663957
0.000624756
0.000589827
0.000558902
0.000531727
0.000508075
0.00048775
0.000470588
0.000456459
0.000445266
0.000436951
0.000431857
0.000429683
0.000429407
0.000432606
0.000439101
0.000448985
0.000462529
0.000480086
0.000502098
0.000529119
0.000561829
0.00060107
0.000647882
0.000703559
0.000769726
0.000848445
0.000942379
0.00105502
0.00119106
0.00135684
0.00156119
0.00181642
0.00213978
0.00255533
0.00309574
0.00380323
0.00472735
0.00591554
0.00739164
0.00911921
0.0109565
0.01264
0.0139456
0.0146904
0.0156748
0.0183355
0.0263957
0.0446016
0.0600164
0.0529368
0.0244595
0.0307269
0.0176632
0.0149586
0.0140407
0.0131501
0.0118168
0.0100814
0.00818121
0.00638958
0.00489614
0.00376415
0.00295961
0.00240645
0.00202931
0.00177
0.00158681
0.00145033
0.00134085
0.00124629
0.00116017
0.00107959
0.00100364
0.000932304
0.000865832
0.000804445
0.000748215
0.000697071
0.000650825
0.000609225
0.000571986
0.00053882
0.000509452
0.000483632
0.000461136
0.000441772
0.000425382
0.000411837
0.000401041
0.00039293
0.000387696
0.000385316
0.000384832
0.000387296
0.000392879
0.000401594
0.000413678
0.000429452
0.000449327
0.000473813
0.000503539
0.000539283
0.000582004
0.000632886
0.00069341
0.000765438
0.000851354
0.000954265
0.0010783
0.00122905
0.00141429
0.00164492
0.0019365
0.00231113
0.00279995
0.00344533
0.00430117
0.00542764
0.00687412
0.00864442
0.0106441
0.0126332
0.0142334
0.0151158
0.0157417
0.0175892
0.0232667
0.0389126
0.0591915
0.0615843
0.0273571
0.0301604
0.0176605
0.0147824
0.0137491
0.0127802
0.0113967
0.00963649
0.00774116
0.00598604
0.00455223
0.00348727
0.00274373
0.00223966
0.00189929
0.00166589
0.00149966
0.00137342
0.00126968
0.00117829
0.00109415
0.00101523
0.000941019
0.00087164
0.000807326
0.000748209
0.000694264
0.000645339
0.000601188
0.000561524
0.000526042
0.00049445
0.000466474
0.000441866
0.00042041
0.000401918
0.000386234
0.00037323
0.00036281
0.000354905
0.000349582
0.00034704
0.000346386
0.000348238
0.000353028
0.000360718
0.000371515
0.000385714
0.000403693
0.000425926
0.000452999
0.000485635
0.000524726
0.000571372
0.000626934
0.000693119
0.000772089
0.000866632
0.000980424
0.00111842
0.00128745
0.00149717
0.00176143
0.00210029
0.00254271
0.00312972
0.00391676
0.00497213
0.00636513
0.00813532
0.0102372
0.012472
0.01446
0.0156504
0.0162253
0.0173329
0.0212047
0.033423
0.0570189
0.0660163
0.0286939
0.0294211
0.017626
0.0145686
0.0134249
0.0123919
0.0109788
0.00921516
0.00734135
0.00563058
0.00425577
0.00325194
0.00256178
0.00209954
0.00178976
0.00157732
0.0014244
0.00130597
0.00120656
0.00111766
0.00103528
0.000957972
0.00088552
0.000818092
0.000755868
0.000698894
0.000647064
0.000600161
0.0005579
0.00051997
0.000486061
0.000455876
0.000429146
0.00040563
0.000385114
0.000367418
0.000352384
0.000339887
0.000329827
0.000322132
0.000316772
0.000314101
0.000313307
0.000314658
0.000318759
0.000325554
0.000335219
0.000348024
0.000364318
0.000384544
0.000409248
0.00043911
0.000474963
0.000517837
0.000569001
0.000630036
0.00070293
0.000790219
0.000895211
0.00102232
0.00117761
0.0013696
0.00161058
0.00191856
0.00232007
0.00285386
0.00357486
0.00455584
0.00588115
0.00762228
0.00978428
0.0122215
0.0145601
0.0161199
0.0167715
0.0173318
0.0200857
0.0296691
0.052791
0.0676214
0.0289253
0.0285509
0.0175452
0.0143273
0.0130803
0.0119958
0.0105701
0.00882074
0.0069812
0.00531963
0.00400147
0.00305246
0.00240847
0.0019816
0.0016971
0.00150156
0.00135909
0.00124666
0.00115061
0.00106376
0.00098297
0.000907247
0.000836526
0.000770982
0.000710731
0.000655741
0.000605839
0.00056076
0.000520194
0.000483816
0.000451311
0.000422387
0.000396777
0.000374246
0.000354586
0.000337618
0.000323186
0.000311162
0.000301444
0.000293954
0.00028864
0.00028585
0.000284937
0.000285879
0.000289387
0.0002954
0.000304069
0.000315642
0.00033044
0.000348876
0.000371464
0.00039884
0.000431793
0.00047129
0.000518528
0.000574987
0.000642517
0.000723458
0.000820827
0.000938602
0.00108219
0.00125915
0.00148038
0.00176193
0.00212783
0.00261402
0.00327335
0.00417986
0.00542756
0.00711347
0.00929064
0.0118829
0.0145819
0.0166226
0.0174765
0.0178644
0.0195612
0.0269046
0.0478322
0.0676818
0.0283405
0.027584
0.0174338
0.0140694
0.0127257
0.0116003
0.0101762
0.00845499
0.00665929
0.00504947
0.00378453
0.00288394
0.00227944
0.0018822
0.00161848
0.00143651
0.00130226
0.00119451
0.00110112
0.00101601
0.000936702
0.000862505
0.000793446
0.000729679
0.000671255
0.000618074
0.000569912
0.00052647
0.000487418
0.000452425
0.000421175
0.00039338
0.000368779
0.00034714
0.000328259
0.000311958
0.000298082
0.000286502
0.000277111
0.000269828
0.000264597
0.000261711
0.000260696
0.00026131
0.000264309
0.000269639
0.000277435
0.000287919
0.000301389
0.000318231
0.000338927
0.000364076
0.000394425
0.000430889
0.000474603
0.000526968
0.000589724
0.000665059
0.000755761
0.000865464
0.00099904
0.00116324
0.00136773
0.00162681
0.00196207
0.00240644
0.0030098
0.00384526
0.00501233
0.00662717
0.00878303
0.011466
0.0144432
0.0170278
0.0181423
0.0184639
0.019398
0.0248215
0.0433076
0.0653995
0.0273455
0.0265537
0.0173073
0.0138043
0.0123698
0.0112122
0.00980069
0.00811852
0.00637351
0.00481636
0.00360063
0.00274224
0.00217111
0.00179843
0.00155165
0.00138055
0.00125278
0.00114871
0.00105749
0.000973906
0.000895975
0.000823227
0.000755732
0.000693609
0.000636851
0.000585302
0.000538698
0.000496716
0.000459013
0.000425255
0.000395127
0.000368345
0.000344652
0.00032382
0.000305647
0.000289956
0.000276593
0.000265426
0.000256347
0.00024927
0.000244137
0.000241177
0.000240074
0.000240426
0.00024299
0.000247728
0.000254758
0.000264281
0.000276577
0.000292001
0.000311008
0.000334163
0.000362173
0.00039591
0.000436452
0.000485134
0.000543613
0.000613955
0.000698774
0.000801434
0.000926382
0.0010797
0.00127002
0.00151006
0.00181913
0.00222712
0.00278038
0.00354945
0.00463589
0.00617
0.00828077
0.0110133
0.0141882
0.0172914
0.0188941
0.0192807
0.019569
0.0234
0.03927
0.0622292
0.0261627
0.0254593
0.0171828
0.0135425
0.0120202
0.0108369
0.00944627
0.00781112
0.00612162
0.00461677
0.00344598
0.00262391
0.00208054
0.00172796
0.00149486
0.00133242
0.00120977
0.00110863
0.0010192
0.000936978
0.000860328
0.000788934
0.000722884
0.00066226
0.000607003
0.000556914
0.000511696
0.00047101
0.000434505
0.000401845
0.000372718
0.000346842
0.000323965
0.00030386
0.000286329
0.000271194
0.000258301
0.000247516
0.000238729
0.000231851
0.000226819
0.000223803
0.000222623
0.000222768
0.000224961
0.000229185
0.000235544
0.000244224
0.000255481
0.000269648
0.000287151
0.000308525
0.000334438
0.000365721
0.000403405
0.000448767
0.000503393
0.000569258
0.000648842
0.000745302
0.000862755
0.00100674
0.00118503
0.00140897
0.0016958
0.00207249
0.00258163
0.00329007
0.00429854
0.00574605
0.00779118
0.010541
0.0139036
0.0173975
0.0196115
0.0201514
0.0201862
0.022608
0.0357425
0.0584155
0.0249353
0.0243741