/*--------------------------------*- C++ -*----------------------------------*\
  =========                 |
  \\      /  F ield         | OpenFOAM: The Open Source CFD Toolbox
   \\    /   O peration     | Website:  https://openfoam.org
    \\  /    A nd           | Version:  13
     \\/     M anipulation  |
\*---------------------------------------------------------------------------*/
FoamFile
{
    format      ascii;
    class       volScalarField;
    location    "8.6";
    object      k;
}
// * * * * * * * * * * * * * * * * * * * * * * * * * * * * * * * * * * * * * //

dimensions      [0 2 -2 0 0 0 0];

internalField   nonuniform List<scalar> 
6400
(
5.63235e-07
2.89134e-06
7.02638e-06
1.13136e-05
1.45393e-05
1.63458e-05
1.69989e-05
1.70611e-05
1.71679e-05
1.78043e-05
1.93493e-05
2.23713e-05
2.71394e-05
3.37434e-05
4.18275e-05
5.09344e-05
6.05888e-05
7.06037e-05
8.04971e-05
9.00505e-05
9.96773e-05
0.00011022
0.00012279
0.000137998
0.000155151
0.000172394
0.000189545
0.000206577
0.000224036
0.000242371
0.000261321
0.000280256
0.000298876
0.000317249
0.000335828
0.000354728
0.000374331
0.000394758
0.000416254
0.000438882
0.000462806
0.000488212
0.000515241
0.000544193
0.000575329
0.000609719
0.000649407
0.000698734
0.000747887
0.000798123
0.000847204
0.000894872
0.000939552
0.000980031
0.0010148
0.00104206
0.00105582
0.00106128
0.00105879
0.00103822
0.00100208
0.000950562
0.000884168
0.000805746
0.00071658
0.000621378
0.000524727
0.000430284
0.000341536
0.000262568
0.000198233
0.000144226
0.000100591
6.72387e-05
4.32242e-05
2.68531e-05
1.61693e-05
9.2831e-06
4.38636e-06
9.3386e-07
2.71967e-06
2.28432e-05
5.54099e-05
8.65524e-05
0.000109532
0.000123205
0.000129715
0.000132375
0.000134813
0.000140166
0.00015197
0.000174254
0.000208134
0.000252902
0.000306382
0.000365809
0.00042872
0.000492644
0.000555787
0.00061759
0.000680324
0.000748499
0.000827655
0.00092004
0.00102138
0.00112263
0.00122117
0.00131493
0.00140498
0.00149225
0.00157501
0.00165223
0.00172253
0.00178685
0.00184753
0.00190544
0.00196255
0.00201973
0.00207829
0.00213878
0.00220189
0.00226834
0.00233816
0.00241154
0.00248782
0.00256695
0.0026471
0.00272542
0.0028094
0.00289544
0.0029839
0.0030713
0.00315607
0.00323445
0.00330312
0.00335796
0.00338685
0.00339595
0.00338409
0.00333826
0.00325466
0.00313292
0.00297136
0.00277363
0.00254422
0.00229188
0.00202781
0.00176017
0.00149669
0.00124167
0.000998976
0.000778314
0.000586184
0.000425468
0.000296784
0.000198246
0.000126682
7.63517e-05
3.70152e-05
4.94227e-06
5.94016e-06
4.94821e-05
0.000114981
0.000169783
0.000207026
0.000228985
0.00024112
0.000249486
0.000260187
0.000279237
0.00031253
0.000364885
0.000437947
0.00052978
0.000636217
0.000752947
0.000876622
0.0010045
0.00113404
0.00126313
0.00139021
0.00151455
0.00163397
0.00174308
0.00183696
0.00191189
0.00196539
0.00200296
0.00203226
0.00206021
0.00209081
0.00212325
0.00215816
0.00219309
0.00223161
0.00227287
0.0023186
0.00236872
0.00242427
0.00248521
0.00255133
0.00262332
0.00270054
0.00278322
0.00287123
0.00296448
0.00306219
0.00316565
0.00327459
0.00338736
0.00350298
0.00361916
0.00373367
0.00384316
0.00394382
0.00403087
0.00409915
0.00413604
0.00414694
0.00412766
0.00406347
0.00395391
0.00379461
0.00358785
0.00333587
0.00304661
0.00273636
0.00241388
0.00208954
0.00177382
0.00147555
0.00120142
0.000956393
0.000742924
0.000561894
0.000412565
0.000291643
0.000191568
9.73593e-05
1.32331e-05
1.03075e-05
8.30779e-05
0.00018047
0.000253534
0.000301314
0.000330933
0.000350987
0.000370083
0.000396689
0.00043909
0.000504646
0.000597837
0.000718321
0.00086119
0.00101943
0.00118637
0.00135616
0.00152315
0.0016813
0.00182481
0.00194813
0.00204934
0.00212588
0.00217093
0.00219019
0.00219483
0.00219078
0.0021885
0.00218821
0.00219411
0.00220518
0.00221966
0.00223925
0.00226366
0.0022934
0.00232816
0.0023686
0.00241456
0.00246604
0.00252337
0.00258648
0.00265569
0.0027308
0.00281186
0.0028984
0.00299086
0.00309005
0.0031957
0.00330738
0.00342419
0.00354514
0.00366856
0.00379232
0.00391354
0.00402863
0.00413308
0.00422173
0.00428663
0.00431723
0.00432238
0.00428444
0.00420143
0.00407582
0.00390016
0.00367141
0.00339081
0.00307533
0.0027358
0.00238762
0.00204496
0.0017198
0.00142085
0.00115324
0.000919012
0.000718214
0.000549234
0.000407703
0.000283958
0.000154656
2.20645e-05
1.65323e-05
0.000128005
0.000258087
0.000348644
0.000407119
0.000445837
0.000476857
0.000511676
0.000561312
0.000635833
0.000742462
0.00088301
0.00105273
0.00124212
0.00144027
0.00163684
0.00182243
0.00198817
0.00212498
0.00222878
0.00228897
0.0023123
0.00231429
0.00228468
0.00225466
0.00222777
0.00220588
0.00219118
0.00218432
0.00218242
0.00218458
0.00219188
0.00220381
0.00221996
0.0022403
0.00226473
0.00229316
0.00232528
0.00236112
0.00240088
0.00244462
0.00249279
0.00254606
0.0026053
0.00267137
0.00274436
0.00282398
0.00291072
0.00300475
0.00310614
0.00321466
0.00332979
0.00345049
0.00357524
0.00370187
0.00382685
0.00394561
0.00405251
0.00414089
0.00419486
0.00421399
0.00419119
0.00411121
0.00397571
0.00379349
0.00355317
0.00325601
0.00292006
0.00256266
0.00220223
0.0018559
0.00153691
0.00125299
0.00100662
0.000796961
0.000620916
0.000472669
0.000340031
0.000193645
2.81942e-05
2.54241e-05
0.000187635
0.000352407
0.000461274
0.00053189
0.000582028
0.000627612
0.000683299
0.000762303
0.000874904
0.00102566
0.00121119
0.00142078
0.00163966
0.00185254
0.00204539
0.00220609
0.00232747
0.00239249
0.00241394
0.00240134
0.00235654
0.00231183
0.00226859
0.00222835
0.00219336
0.00216481
0.00214242
0.00212476
0.00211042
0.0020992
0.00209206
0.00208856
0.00208736
0.00208805
0.00209215
0.00209847
0.00210759
0.00211956
0.00213485
0.0021537
0.00217679
0.00220408
0.00223602
0.00227319
0.00231608
0.00236547
0.00242232
0.00248761
0.00256243
0.0026477
0.00274426
0.00285259
0.00297248
0.00310286
0.00324225
0.0033877
0.00353469
0.00367705
0.00380562
0.00391137
0.00396532
0.00397947
0.00393275
0.00382089
0.00364618
0.00339251
0.00307764
0.0027196
0.00234171
0.00196841
0.00162082
0.00131281
0.00104967
0.000830136
0.000649
0.000498065
0.000362759
0.000211102
3.04841e-05
3.77702e-05
0.000263914
0.000465782
0.000594292
0.000678767
0.000742807
0.00080644
0.000887183
0.000999126
0.00115037
0.0013402
0.00155845
0.00178815
0.0020098
0.00220512
0.00235906
0.00245217
0.00248701
0.00248475
0.00243561
0.00238217
0.00231979
0.00225962
0.00219966
0.0021461
0.00209995
0.00205978
0.0020237
0.00199098
0.0019619
0.00193681
0.00191466
0.00189465
0.00187666
0.00186084
0.00184743
0.00183622
0.0018276
0.00182185
0.00181919
0.00181849
0.00182103
0.00182714
0.00183681
0.00185074
0.00186912
0.00189294
0.00192285
0.0019601
0.0020062
0.00206302
0.00213255
0.00221709
0.00231878
0.00243858
0.00257713
0.00273533
0.0029096
0.00309456
0.00328321
0.00346749
0.00363125
0.00374838
0.00379744
0.00379751
0.00370686
0.00353919
0.00327017
0.002926
0.00253334
0.00212487
0.00173301
0.00138304
0.00108782
0.000847792
0.000655821
0.000499373
0.000361517
0.000210087
2.96276e-05
5.42986e-05
0.000357877
0.000598846
0.000748351
0.000848289
0.000928298
0.00101231
0.00111973
0.00126351
0.00144711
0.00166291
0.00189377
0.00211742
0.00231146
0.00245772
0.00252996
0.00254878
0.00251776
0.00246231
0.00238707
0.00230434
0.00221755
0.0021404
0.00207057
0.00201118
0.00195661
0.00190678
0.0018604
0.00181752
0.00177801
0.00174169
0.00170817
0.00167741
0.00164956
0.00162472
0.00160297
0.00158408
0.00156811
0.00155504
0.00154486
0.00153752
0.00153389
0.00153262
0.00153386
0.00153954
0.00154846
0.00156177
0.00157967
0.00160282
0.00163174
0.0016674
0.00171095
0.00176417
0.0018297
0.00191216
0.0020171
0.00214852
0.00231132
0.00250449
0.00271965
0.00295289
0.00319001
0.00341518
0.00360337
0.00369967
0.00372469
0.0036645
0.00349769
0.00319945
0.00281123
0.00237084
0.00192292
0.0015092
0.00115805
0.000878634
0.00066324
0.000495095
0.000353129
0.000203441
2.75676e-05
7.55164e-05
0.000469305
0.000750937
0.000922509
0.00103901
0.0011359
0.00124039
0.0013723
0.00154137
0.00174481
0.00196782
0.00218758
0.00237909
0.00251521
0.00257568
0.00258413
0.00253999
0.00247193
0.00237599
0.00226609
0.00216368
0.00207319
0.00199236
0.00191928
0.00185335
0.00179158
0.00173439
0.00168116
0.00163224
0.00158755
0.00154715
0.00151101
0.00147918
0.00145158
0.00142801
0.00140828
0.00139219
0.00137951
0.00136998
0.0013635
0.00136035
0.0013593
0.00136022
0.00136464
0.00137167
0.0013814
0.00139408
0.00140978
0.00142882
0.00145151
0.00147832
0.00150982
0.00154679
0.00159028
0.00164188
0.00170407
0.00178063
0.00187868
0.00201163
0.00219508
0.00242597
0.00269056
0.00297635
0.00326028
0.00351368
0.0036612
0.0037092
0.00367511
0.00350216
0.003162
0.00271726
0.00221999
0.00172919
0.00129585
0.000948203
0.000687879
0.000495795
0.000340288
0.000189958
2.52173e-05
0.000101617
0.000596444
0.000920022
0.00111444
0.00124765
0.00136053
0.00148262
0.00163267
0.00181573
0.00202228
0.00223149
0.0024173
0.00254679
0.00260064
0.00260428
0.00255773
0.00247232
0.00235261
0.0022262
0.00211142
0.0020081
0.00191618
0.00183275
0.00175631
0.00168599
0.00162082
0.00156141
0.00150769
0.00146002
0.00141834
0.00138259
0.00135253
0.0013278
0.00130798
0.00129257
0.00128106
0.00127289
0.00126804
0.00126587
0.00126531
0.00126708
0.00127085
0.00127648
0.00128411
0.0012935
0.00130479
0.00131811
0.00133361
0.00135147
0.00137189
0.00139511
0.00142144
0.00145122
0.00148489
0.00152288
0.00156611
0.00161614
0.0016758
0.00175058
0.00184961
0.00198955
0.00220253
0.00248579
0.00280834
0.00315035
0.00346772
0.00366677
0.00373605
0.00371709
0.00352636
0.00313196
0.00262091
0.00206295
0.00153277
0.00108812
0.000751383
0.000512253
0.000335621
0.00017767
2.32884e-05
0.000133077
0.000735462
0.00110295
0.00132048
0.00146924
0.00159502
0.00172884
0.00188719
0.00206985
0.00226136
0.00243699
0.00256137
0.00261207
0.0026137
0.00256683
0.00246724
0.00233053
0.00219275
0.00206407
0.00194987
0.00184728
0.00175488
0.00167047
0.00159346
0.00152362
0.00146105
0.00140627
0.00135921
0.00131981
0.00128759
0.001262
0.00124227
0.00122763
0.00121728
0.00121052
0.00120719
0.00120597
0.00120596
0.0012086
0.00121232
0.00121772
0.00122441
0.00123251
0.00124201
0.00125297
0.00126551
0.00127976
0.00129585
0.0013139
0.00133404
0.00135641
0.00138114
0.00140839
0.00143839
0.00147149
0.00150766
0.00154725
0.00159088
0.00164037
0.00169948
0.00177657
0.00188662
0.00205484
0.00232751
0.00268204
0.0030724
0.00345331
0.00370093
0.00378768
0.00377023
0.00354467
0.00308307
0.00249877
0.00188284
0.00132472
0.00088179
0.000563571
0.000345672
0.000174338
2.26191e-05
0.000171316
0.000881903
0.001296
0.00153583
0.00169747
0.00183105
0.0019683
0.00212293
0.00228988
0.00244943
0.00256774
0.00261698
0.00261845
0.00257224
0.00246436
0.00231677
0.0021669
0.00202666
0.00190065
0.00178888
0.00168822
0.00159752
0.00151577
0.00144311
0.00137974
0.00132581
0.00128124
0.00124542
0.00121757
0.00119663
0.00118153
0.00117117
0.00116468
0.0011615
0.00116033
0.00116028
0.00116228
0.00116525
0.00116959
0.00117481
0.00118121
0.00118869
0.00119744
0.00120754
0.00121915
0.00123243
0.00124755
0.00126466
0.00128391
0.0013054
0.00132922
0.00135537
0.0013838
0.00141438
0.00144696
0.00148143
0.00151789
0.00155679
0.00159781
0.00164167
0.00169127
0.00175354
0.00184258
0.00198373
0.00222003
0.00259189
0.00302219
0.00346577
0.00375178
0.00384871
0.00381546
0.0035321
0.00298937
0.00232919
0.00166772
0.00109994
0.000673548
0.000382988
0.000181677
2.34265e-05
0.000213758
0.00103588
0.00149498
0.00175497
0.00192545
0.00206016
0.0021911
0.00232941
0.00246637
0.00257482
0.00262214
0.00262423
0.00257876
0.00246851
0.00231424
0.00215267
0.00200056
0.00186356
0.00174211
0.00163427
0.00153791
0.00145263
0.00137823
0.00131497
0.0012627
0.0012209
0.00118863
0.00116456
0.00114732
0.0011355
0.00112786
0.00112355
0.00112157
0.00112094
0.00112113
0.00112265
0.00112507
0.00112823
0.00113227
0.00113718
0.00114315
0.00115029
0.00115878
0.00116879
0.00118051
0.00119412
0.00120981
0.00122778
0.0012482
0.00127121
0.00129694
0.00132542
0.00135661
0.00139031
0.0014262
0.00146376
0.0015024
0.0015416
0.00158125
0.00162198
0.00166317
0.0017069
0.00175925
0.00183315
0.00195322
0.00216354
0.00253345
0.00300335
0.00350202
0.00380969
0.00390432
0.00383387
0.00346278
0.00282434
0.00209784
0.0014109
0.000857617
0.000467191
0.00020778
2.68324e-05
0.000259187
0.00119367
0.00169491
0.00197199
0.00214636
0.00227474
0.00238937
0.00249959
0.00259199
0.00263446
0.00263648
0.00259049
0.00248205
0.00232432
0.00215292
0.00198826
0.00183979
0.00170859
0.00159317
0.00149163
0.00140295
0.00132712
0.00126398
0.00121315
0.00117366
0.00114409
0.00112275
0.00110791
0.00109799
0.00109161
0.0010877
0.00108549
0.00108439
0.00108394
0.00108388
0.0010847
0.00108608
0.00108819
0.00109116
0.0010951
0.00110022
0.00110668
0.00111466
0.00112433
0.0011359
0.00114954
0.00116546
0.00118386
0.00120496
0.00122895
0.00125604
0.00128637
0.00132001
0.0013569
0.0013968
0.00143919
0.00148327
0.00152795
0.00157205
0.00161465
0.00165589
0.00169616
0.00173591
0.00178119
0.00184483
0.00195221
0.00215071
0.00251126
0.00301764
0.00356213
0.00386438
0.00393983
0.00380678
0.00330422
0.00257352
0.00179573
0.00111478
0.000607124
0.000264428
3.50284e-05
0.000306116
0.00135109
0.00189062
0.00218115
0.00235405
0.00246871
0.00255789
0.0026289
0.00266167
0.00266105
0.00261175
0.00250713
0.00234865
0.00216942
0.0019923
0.00183098
0.00168914
0.00156544
0.00145806
0.0013657
0.00128788
0.00122432
0.00117415
0.00113604
0.00110812
0.00108836
0.00107474
0.00106552
0.00105928
0.00105495
0.00105179
0.00104933
0.00104731
0.00104563
0.00104447
0.00104396
0.00104385
0.00104466
0.00104651
0.00104953
0.00105386
0.00105971
0.0010672
0.00107652
0.00108783
0.00110131
0.00111715
0.00113556
0.00115678
0.00118106
0.00120865
0.00123981
0.00127476
0.00131366
0.00135649
0.001403
0.00145258
0.00150417
0.00155615
0.00160655
0.00165343
0.00169591
0.00173403
0.00177086
0.0018126
0.00186937
0.0019705
0.00216338
0.00252789
0.00307108
0.00363809
0.00390696
0.00394345
0.00370388
0.00304673
0.00222242
0.00142853
0.00079522
0.000349812
4.81385e-05
0.00035318
0.00150411
0.00207741
0.00237744
0.00254338
0.00263775
0.00269171
0.00271305
0.00270337
0.00264759
0.0025464
0.00238888
0.00220381
0.00201474
0.00183927
0.00168485
0.00155149
0.00143704
0.00133993
0.0012592
0.00119413
0.00114359
0.00110576
0.00107843
0.00105921
0.00104589
0.00103656
0.00102976
0.00102446
0.00101997
0.00101591
0.00101212
0.00100858
0.00100541
0.00100276
0.00100077
0.000999789
0.000999511
0.00100038
0.00100274
0.00100651
0.0010119
0.00101903
0.00102803
0.00103906
0.00105227
0.00106785
0.00108599
0.00110692
0.00113091
0.00115826
0.0011893
0.00122438
0.00126381
0.00130787
0.00135665
0.00140996
0.00146717
0.00152699
0.00158736
0.00164541
0.00169797
0.00174389
0.00178063
0.00180995
0.00184832
0.00190324
0.00200245
0.00219809
0.00258115
0.00316775
0.00371976
0.00394437
0.00390085
0.0034689
0.00265994
0.00177888
0.00102005
0.000456535
6.50074e-05
0.000399394
0.0016484
0.00225153
0.00255763
0.00270973
0.00277373
0.0027892
0.0027672
0.00270277
0.00260337
0.00244697
0.00225776
0.00205762
0.00186696
0.00169758
0.00155216
0.00142879
0.00132528
0.0012402
0.00117231
0.0011201
0.00108143
0.00105368
0.00103417
0.00102044
0.00101046
0.00100272
0.000996191
0.000990233
0.000984531
0.000978983
0.000973632
0.000968605
0.000964071
0.000960206
0.000957172
0.000955352
0.000954622
0.000954676
0.00095661
0.000960012
0.000965076
0.000971916
0.000980645
0.000991393
0.0010043
0.00101952
0.00103724
0.00105768
0.0010811
0.00110779
0.00113812
0.00117248
0.00121132
0.00125509
0.00130419
0.00135887
0.00141904
0.0014841
0.00155258
0.00162197
0.00168852
0.00174759
0.00179767
0.00183397
0.00185403
0.00188815
0.00194407
0.00204576
0.0022535
0.00267092
0.00330064
0.00379235
0.00394482
0.00376258
0.00308045
0.00215201
0.00127252
0.000578334
8.45824e-05
0.000443822
0.00178272
0.00240959
0.00271433
0.00284642
0.00288165
0.00286066
0.0027904
0.00268062
0.00252557
0.00233307
0.002123
0.00191661
0.00172981
0.00156914
0.00143411
0.00132203
0.00123069
0.00115836
0.00110307
0.00106233
0.0010332
0.00101266
0.000998002
0.000987034
0.000978159
0.000970322
0.000962911
0.000955646
0.000948464
0.000941441
0.000934726
0.000928498
0.000922939
0.000918223
0.000914504
0.000912051
0.000910924
0.000910674
0.000912165
0.000915307
0.0009201
0.000926683
0.000935145
0.000945603
0.000958181
0.000973023
0.000990294
0.00101019
0.00103295
0.00105885
0.00108824
0.00112152
0.00115919
0.00120177
0.00124987
0.00130404
0.00136469
0.00143189
0.00150506
0.00158264
0.00166161
0.00173722
0.00180317
0.00185757
0.00188869
0.00190328
0.00193228
0.00199067
0.00210023
0.00233258
0.00280887
0.00348022
0.00383533
0.00387743
0.00345725
0.00253817
0.00154868
0.000711293
0.000105939
0.000484764
0.00190354
0.00254649
0.00284496
0.00295491
0.00296604
0.00290245
0.00278449
0.0026294
0.00243205
0.00221294
0.0019909
0.0017846
0.0016051
0.00145474
0.00133112
0.00123116
0.00115239
0.00109238
0.00104826
0.00101674
0.000994467
0.000978435
0.000966237
0.000956137
0.000947015
0.000938244
0.000929552
0.000920897
0.000912374
0.000904142
0.000896385
0.000889285
0.000883009
0.000877705
0.000873506
0.000870568
0.000869136
0.000868706
0.000869779
0.000872659
0.000877173
0.000883471
0.000891635
0.000901775
0.000914006
0.00092846
0.000945287
0.000964663
0.0009868
0.00101195
0.00104043
0.00107261
0.00110896
0.00115004
0.00119652
0.00124911
0.00130854
0.00137543
0.00144999
0.00153172
0.00161888
0.00170791
0.00179299
0.00186597
0.00192087
0.00194449
0.00195487
0.00197994
0.00204295
0.0021676
0.00244666
0.00300748
0.0036361
0.00387779
0.00370388
0.0029167
0.001845
0.000852995
0.000128411
0.000520763
0.0020079
0.00266014
0.00294944
0.00304024
0.00302441
0.00291916
0.00276079
0.00255845
0.00232985
0.00209257
0.00186547
0.00166362
0.00149351
0.00135442
0.00124278
0.00115514
0.00108845
0.0010394
0.00100436
0.000979598
0.000961744
0.000948097
0.00093672
0.00092637
0.00091636
0.000906397
0.000896438
0.000886581
0.000876991
0.000867852
0.000859341
0.000851618
0.000844823
0.000839077
0.000834486
0.000831146
0.000829403
0.000828793
0.000829423
0.00083198
0.000836161
0.000842115
0.000849928
0.000859704
0.000871556
0.00088561
0.000902005
0.000920902
0.00094249
0.000966993
0.000994686
0.00102591
0.00106108
0.00110072
0.00114548
0.00119613
0.00125355
0.00131868
0.0013923
0.00147482
0.00156574
0.00166304
0.0017624
0.00185652
0.00193497
0.00198582
0.00200136
0.00200717
0.00203101
0.00210111
0.00225277
0.00260869
0.00325605
0.0037167
0.00379393
0.00326732
0.00215621
0.000998872
0.000151878
0.000551017
0.00209463
0.00275017
0.00302861
0.00310359
0.00305777
0.00291338
0.00271371
0.00247684
0.00222443
0.00197602
0.001749
0.00155444
0.00139495
0.0012676
0.00116803
0.00109223
0.0010364
0.000996454
0.000968262
0.00094803
0.000932669
0.000919945
0.00090842
0.000897291
0.000886209
0.000875105
0.000864072
0.000853269
0.000842878
0.00083307
0.000823999
0.000815797
0.000808578
0.00080244
0.000797472
0.000793754
0.000791616
0.000790785
0.000790936
0.000793073
0.000796853
0.000802394
0.000809792
0.000819151
0.000830584
0.000844214
0.000860176
0.00087862
0.000899721
0.000923677
0.000950731
0.000981176
0.00101538
0.00105381
0.00109706
0.00114586
0.00120113
0.00126392
0.00133537
0.00141652
0.00150791
0.00160901
0.00171737
0.00182761
0.00193043
0.00201061
0.0020494
0.00205782
0.00205944
0.0020849
0.00216769
0.00236744
0.00284905
0.00350881
0.0037752
0.00352848
0.00247172
0.00114654
0.000176161
0.000575087
0.00216374
0.00281764
0.00308431
0.00314464
0.00306927
0.00289331
0.00265489
0.00238947
0.00211982
0.00186589
0.0016426
0.00145712
0.00130885
0.00119328
0.00110532
0.00104033
0.000993727
0.000960888
0.000937521
0.000920051
0.000905837
0.000893148
0.000880998
0.000868933
0.000856833
0.000844767
0.000832885
0.000821361
0.000810363
0.000800039
0.000790514
0.000781896
0.000774279
0.000767748
0.000762384
0.000758264
0.000755611
0.000754421
0.000754204
0.000755778
0.000759089
0.000764154
0.000771077
0.000779966
0.000790936
0.000804111
0.000819624
0.000837621
0.000858266
0.000881742
0.000908266
0.000938096
0.000971551
0.00100904
0.00105107
0.00109831
0.00115162
0.00121207
0.00128092
0.00135956
0.00144926
0.00155068
0.0016631
0.00178338
0.00190473
0.00201582
0.00208872
0.00211202
0.00211363
0.00210869
0.00214266
0.00224914
0.00253748
0.00315645
0.0036078
0.00364324
0.00278939
0.00130815
0.000202747
0.000592912
0.00221592
0.00286396
0.00311841
0.00316526
0.00306329
0.00285533
0.00258782
0.00230008
0.00201882
0.00176366
0.0015466
0.00137118
0.00123427
0.0011301
0.00105291
0.000997338
0.000958202
0.000930622
0.000910428
0.000894443
0.000880523
0.000867405
0.000854468
0.000841504
0.000828537
0.0008157
0.000803158
0.000791073
0.000779589
0.000768826
0.000758888
0.000749865
0.000741839
0.000734888
0.000729089
0.00072452
0.000721261
0.000719613
0.000719094
0.00072002
0.000722804
0.000727344
0.000733746
0.00074212
0.000752586
0.000765269
0.000780305
0.00079784
0.000818031
0.000841056
0.000867112
0.000896434
0.0009293
0.00096606
0.00100716
0.00105318
0.00110489
0.00116329
0.00122963
0.00130544
0.00139241
0.00149204
0.001605
0.00173007
0.00186263
0.001993
0.00210531
0.00216446
0.00217524
0.00216281
0.00215243
0.00220437
0.00236475
0.00281739
0.00345066
0.00366337
0.00310196
0.00150857
0.000236769
0.000604785
0.00225222
0.00289019
0.00313116
0.003165
0.00304424
0.00280772
0.00251609
0.00221151
0.00192328
0.00167006
0.00146081
0.00129587
0.00117007
0.00107661
0.00100903
0.000961349
0.000928016
0.000904146
0.000885887
0.000870536
0.000856429
0.000842691
0.000828973
0.000815226
0.000801551
0.000788101
0.000775032
0.000762484
0.000750574
0.000739402
0.000729056
0.000719614
0.000711153
0.000703746
0.000697467
0.000692392
0.000688592
0.000686384
0.000685539
0.000685814
0.000688022
0.000692006
0.000697855
0.000705681
0.000715607
0.000727764
0.00074229
0.000759332
0.00077905
0.000801618
0.000827225
0.000856088
0.000888461
0.000924652
0.000965045
0.00101014
0.00106061
0.00111734
0.0011815
0.00125462
0.00133853
0.00143528
0.00154663
0.00167322
0.00181313
0.00196002
0.00210124
0.00219998
0.00223471
0.00223467
0.00220521
0.00219706
0.00228158
0.00254962
0.00317735
0.00355414
0.00335138
0.00176315
0.000282728
0.000610755
0.00227294
0.00289741
0.00312804
0.00315403
0.00301032
0.0027529
0.00244246
0.00212582
0.00183429
0.00158526
0.00138473
0.00123026
0.00111503
0.00103133
0.000972066
0.000930798
0.000901817
0.000880445
0.000863251
0.000848013
0.000833483
0.000819088
0.000804667
0.000790265
0.000776014
0.000762063
0.000748548
0.000735586
0.000723275
0.0007117
0.000700937
0.000691061
0.000682145
0.000674263
0.00066749
0.000661905
0.00065759
0.000654759
0.000653481
0.000653264
0.000654835
0.000658244
0.000663524
0.000670782
0.000680144
0.000691743
0.000705723
0.000722236
0.000741444
0.000763524
0.000788664
0.000817074
0.000848993
0.000884698
0.000924531
0.000968927
0.00101846
0.00107389
0.00113629
0.00120706
0.00128805
0.00138148
0.00148976
0.00161475
0.00175655
0.00191147
0.00206965
0.00221306
0.00229012
0.00230391
0.00227468
0.00223886
0.00225504
0.0024052
0.00289054
0.00341244
0.0034702
0.00206793
0.000340532
0.000610428
0.00228087
0.00289262
0.00311378
0.00312837
0.00296743
0.00269352
0.00236905
0.00204444
0.00175246
0.00150911
0.00131768
0.00117336
0.00106793
0.000992913
0.000940666
0.000904463
0.000878647
0.000858874
0.00084217
0.00082675
0.000811708
0.000796694
0.000781666
0.000766717
0.000751985
0.000737604
0.000723688
0.000710337
0.000697632
0.00068565
0.000674465
0.000664148
0.000654773
0.000646417
0.000639158
0.000633077
0.000628261
0.000624802
0.000623007
0.000622445
0.000623363
0.000626196
0.000630904
0.000637586
0.000646367
0.000657385
0.000670787
0.000686731
0.000705385
0.000726931
0.000751563
0.00077949
0.000810945
0.000846192
0.00088554
0.000929373
0.000978188
0.00103265
0.00109368
0.00116254
0.00124098
0.00133127
0.00143615
0.00155843
0.00170004
0.00186012
0.00203239
0.00220238
0.00232613
0.00236915
0.00236207
0.00229191
0.00225989
0.00233064
0.00264523
0.00327183
0.00349993
0.00241201
0.000407825
0.000607239
0.00227893
0.00287675
0.00308432
0.00309009
0.00291745
0.00263164
0.00229748
0.00196829
0.00167798
0.00144123
0.00125888
0.00112415
0.00102763
0.000960178
0.000913724
0.000881436
0.000857858
0.000839046
0.000822468
0.000806718
0.000791154
0.000775584
0.000760034
0.00074462
0.00072947
0.000714701
0.000700409
0.000686678
0.000673584
0.000661199
0.000649594
0.000638844
0.000629023
0.00062021
0.000612484
0.000605927
0.000600619
0.000596643
0.000594306
0.000593416
0.000593734
0.000596002
0.000600147
0.000606256
0.000614451
0.000624871
0.000637669
0.000653007
0.000671061
0.00069202
0.000716087
0.000743478
0.000774428
0.000809197
0.000848078
0.00089142
0.000939661
0.000993377
0.00105336
0.00112073
0.00119705
0.00128448
0.00138584
0.00150444
0.00164339
0.00180404
0.00198321
0.00216945
0.00233958
0.00242737
0.0024412
0.00238671
0.0023101
0.0023053
0.00247838
0.00304603
0.00341966
0.0027564
0.000477724
0.000600144
0.00227031
0.00284702
0.00304428
0.00304311
0.00286243
0.00256892
0.00222889
0.00189792
0.00161081
0.00138109
0.00120754
0.00108168
0.000993124
0.000932132
0.000890377
0.000861061
0.000839023
0.000820732
0.000804064
0.000787921
0.000771862
0.000755797
0.000739795
0.000723973
0.000708445
0.000693312
0.000678658
0.000664559
0.000651085
0.000638308
0.000626301
0.000615139
0.0006049
0.000595663
0.000587507
0.000580514
0.000574765
0.000570342
0.000567475
0.000566219
0.000566076
0.000567785
0.000571385
0.000576933
0.000584545
0.000594361
0.000606535
0.000621236
0.000638647
0.000658966
0.000682407
0.000709197
0.000739581
0.000773822
0.00081221
0.000855076
0.000902817
0.000955939
0.00101513
0.00108135
0.00115599
0.00124104
0.00133924
0.00145413
0.00158967
0.00174914
0.00193267
0.00213351
0.00233352
0.00247156
0.00251263
0.00248613
0.00236667
0.00231154
0.00239548
0.00283252
0.00328291
0.00302983
0.000534318
0.00058908
0.00225207
0.00280838
0.00299677
0.00298931
0.00280407
0.00250665
0.00216409
0.00183359
0.00155073
0.00132814
0.00116289
0.0010451
0.000963517
0.000907968
0.000869973
0.000842878
0.000821863
0.000803802
0.000786919
0.000770367
0.000753849
0.000737345
0.00072094
0.000704747
0.000688869
0.000673391
0.000658389
0.000643935
0.000630099
0.000616953
0.000604572
0.000593033
0.000582416
0.000572801
0.000564266
0.000556891
0.000550759
0.000545954
0.00054258
0.000540907
0.000540464
0.000541637
0.000544717
0.000549724
0.000556765
0.000565978
0.000577518
0.000591558
0.00060829
0.000627921
0.000650676
0.000676797
0.000706542
0.000740188
0.000778029
0.000820393
0.000867652
0.000920263
0.000978825
0.00104417
0.00111751
0.00120061
0.00129604
0.00140729
0.00153875
0.00169486
0.00187815
0.00208547
0.002303
0.00249225
0.00257639
0.00257991
0.00247307
0.00235782
0.00235606
0.00265648
0.00315546
0.00315988
0.00056043
0.00057464
0.00222698
0.00276283
0.00294317
0.00293069
0.00274382
0.00244583
0.00210359
0.00177537
0.00149743
0.00128178
0.00112419
0.00101361
0.000938068
0.000887042
0.000852019
0.000826557
0.000806195
0.000788172
0.000771009
0.000754054
0.000737115
0.000720213
0.000703443
0.000686908
0.000670698
0.000654893
0.000639561
0.000624774
0.000610602
0.000597118
0.000584402
0.000572531
0.000561585
0.000551643
0.000542783
0.000535082
0.000528618
0.000523465
0.000519699
0.000517618
0.000516914
0.000517608
0.000520202
0.000524694
0.000531182
0.0005398
0.000550705
0.000564072
0.000580098
0.000599001
0.000621017
0.000646404
0.000675438
0.000708412
0.000745636
0.000787442
0.000834199
0.00088633
0.00094437
0.00100904
0.00108139
0.00116297
0.00125611
0.00136417
0.00149168
0.00164399
0.0018257
0.00203727
0.00226941
0.00249663
0.00263328
0.00266227
0.00258615
0.00240816
0.00234576
0.00249965
0.00304791
0.00319652
0.000564949
0.000557643
0.00219724
0.00271208
0.00288495
0.00286884
0.00268286
0.00238718
0.00204769
0.00172318
0.00145052
0.00124147
0.0010908
0.00098655
0.000916157
0.000868848
0.000836149
0.000811869
0.000791892
0.000773786
0.000756313
0.00073897
0.000721642
0.000704377
0.000687268
0.000670413
0.000653892
0.000637778
0.000622141
0.000607048
0.000592573
0.000578792
0.000565785
0.000553631
0.000542408
0.000532196
0.000523068
0.000515097
0.000508354
0.000502909
0.000498829
0.000496376
0.00049543
0.00049571
0.000497856
0.000501864
0.000507822
0.000515862
0.000526137
0.000538827
0.000554132
0.000572278
0.000593513
0.000618111
0.000646367
0.000678593
0.000715121
0.000756302
0.000802506
0.000854148
0.000911717
0.000975849
0.00104744
0.00112785
0.00121914
0.00132441
0.00144812
0.00159603
0.00177419
0.00198614
0.00222749
0.0024791
0.00267286
0.00273656
0.00269964
0.00250789
0.00237256
0.00242327
0.0028796
0.003168
0.000553526
0.000538759
0.00216461
0.00265776
0.00282354
0.00280512
0.00262216
0.00233121
0.00199652
0.00167684
0.00140961
0.00120665
0.00106212
0.000963341
0.000897278
0.000852987
0.000822082
0.00079864
0.000778863
0.000760596
0.000742802
0.000725091
0.000707403
0.000689799
0.000672376
0.000655221
0.00063841
0.000622013
0.000606097
0.000590732
0.000575994
0.00056196
0.00054871
0.000536325
0.00052488
0.000514452
0.000505111
0.000496925
0.000489959
0.000484278
0.000479945
0.000477159
0.000475975
0.000475923
0.000477658
0.000481213
0.000486669
0.000494152
0.000503812
0.00051583
0.000530409
0.000547781
0.000568206
0.000591972
0.000619391
0.000650801
0.000686558
0.000727037
0.000772626
0.000823742
0.000880851
0.000944525
0.00101555
0.00109508
0.00118492
0.00128791
0.00140826
0.00155188
0.00172583
0.00193603
0.00218202
0.00244892
0.00269158
0.00280191
0.00280008
0.00262537
0.00241602
0.0023916
0.00273028
0.00309487
0.000534093
0.000518635
0.00212983
0.00260108
0.00276017
0.00274061
0.00256244
0.00227827
0.00195008
0.00163608
0.0013743
0.00117684
0.00103764
0.000943495
0.000881016
0.000839143
0.000809608
0.000786743
0.000767033
0.000748561
0.000730445
0.000712387
0.000694362
0.000676445
0.000658728
0.000641295
0.000624218
0.000607564
0.000591402
0.000575803
0.000560844
0.000546603
0.000533159
0.000520593
0.000508978
0.000498386
0.000488885
0.000480536
0.0004734
0.000467537
0.000463005
0.000459922
0.000458461
0.000458192