/*--------------------------------*- C++ -*----------------------------------*\
  =========                 |
  \\      /  F ield         | OpenFOAM: The Open Source CFD Toolbox
   \\    /   O peration     | Website:  https://openfoam.org
    \\  /    A nd           | Version:  13
     \\/     M anipulation  |
\*---------------------------------------------------------------------------*/
FoamFile
{
    format      ascii;
    class       volScalarField;
    location    "8.6";
    object      p;
}
// * * * * * * * * * * * * * * * * * * * * * * * * * * * * * * * * * * * * * //

dimensions      [0 2 -2 0 0 0 0];

internalField   nonuniform List<scalar> 
6400
(
4.81179e-10
2.01175e-05
2.91305e-05
1.36475e-05
-3.15668e-05
-0.000101252
-0.000185574
-0.000275271
-0.000364033
-0.000448756
-0.000530233
-0.000612789
-0.00070117
-0.000800626
-0.000916383
-0.00105255
-0.00121207
-0.00139655
-0.00160726
-0.00184482
-0.00210963
-0.00240317
-0.00272844
-0.00309005
-0.00349451
-0.00394616
-0.00443969
-0.00496567
-0.0055007
-0.00601098
-0.00649221
-0.00695213
-0.00738887
-0.00779961
-0.0081788
-0.00851757
-0.00880432
-0.00902571
-0.00916775
-0.00921653
-0.00915888
-0.00898356
-0.00868255
-0.00825185
-0.00768925
-0.00698652
-0.00613552
-0.00515512
-0.00406223
-0.00286391
-0.00158104
-0.000235096
0.00114456
0.00252511
0.00386571
0.00512105
0.00624698
0.00720195
0.00794667
0.00845028
0.00869495
0.00867932
0.00841782
0.00792878
0.00727852
0.00651547
0.00570558
0.00491186
0.00419075
0.00357204
0.00309023
0.00275565
0.00253814
0.00241216
0.00235796
0.00235197
0.002375
0.00241191
0.00245205
0.00247943
-1.52073e-05
5.31996e-06
9.60965e-06
-1.09217e-05
-5.90274e-05
-0.000128647
-0.000208937
-0.000291276
-0.000370686
-0.00044589
-0.000519059
-0.000594363
-0.000676712
-0.000770886
-0.000880796
-0.00101002
-0.00116181
-0.00133864
-0.00154104
-0.00176918
-0.00202197
-0.00230015
-0.00260709
-0.00294527
-0.00331786
-0.00373234
-0.00419597
-0.00470677
-0.00525029
-0.0058019
-0.00633427
-0.00683862
-0.00731688
-0.00776591
-0.00817979
-0.0085496
-0.00886401
-0.00911028
-0.0092752
-0.00934615
-0.00931107
-0.00915988
-0.00888491
-0.00848043
-0.00794169
-0.00726492
-0.006457
-0.00552567
-0.00447296
-0.00331691
-0.00207553
-0.000772305
0.000564582
0.00190145
0.00320045
0.00442134
0.00552132
0.00645877
0.00719794
0.007709
0.00797367
0.00798945
0.0077694
0.00734013
0.00674885
0.00605024
0.00530591
0.00457496
0.00391035
0.00335336
0.00292193
0.00262327
0.00244385
0.00235999
0.00234723
0.00237795
0.00242135
0.00246015
0.00249272
0.00251858
-3.15232e-05
-8.78715e-06
-1.02714e-05
-4.00994e-05
-9.6289e-05
-0.000168451
-0.00024471
-0.000316847
-0.000382281
-0.000442765
-0.000502144
-0.000565482
-0.000637857
-0.000723038
-0.000823526
-0.000941152
-0.00107747
-0.00123472
-0.00141514
-0.00162152
-0.0018575
-0.00212619
-0.002432
-0.00277997
-0.00317424
-0.00361737
-0.00410972
-0.00464705
-0.00521821
-0.00580546
-0.00638898
-0.00695311
-0.00748868
-0.00798916
-0.00844745
-0.00885432
-0.0091994
-0.0094716
-0.00965916
-0.0097506
-0.00973575
-0.00960575
-0.00935353
-0.00897397
-0.00846409
-0.00782333
-0.00704827
-0.00615176
-0.00514029
-0.00402695
-0.00282866
-0.00156729
-0.000269563
0.00103302
0.00230487
0.00350765
0.00459957
0.00553959
0.00629259
0.00682985
0.00713218
0.00719489
0.00703024
0.00666478
0.00614144
0.0055128
0.00483442
0.00416892
0.00356354
0.00305515
0.00266802
0.00241522
0.0022844
0.00224666
0.00227096
0.00233288
0.00240235
0.00246042
0.00250796
0.00254533
-4.02266e-05
-1.85707e-05
-2.77041e-05
-6.888e-05
-0.000135264
-0.000210533
-0.000282998
-0.000346108
-0.000398573
-0.000442798
-0.000485093
-0.000532277
-0.000589912
-0.000661732
-0.000749421
-0.000853772
-0.000976202
-0.00111957
-0.00128781
-0.00148654
-0.00172296
-0.00200491
-0.00233964
-0.00272977
-0.00317755
-0.00368416
-0.00424541
-0.00485063
-0.00548396
-0.00612873
-0.00676844
-0.00738792
-0.007975
-0.00852054
-0.00901603
-0.00945215
-0.00981985
-0.0101093
-0.0103103
-0.010413
-0.0104087
-0.0102898
-0.0100497
-0.00968447
-0.00919247
-0.00857158
-0.00782349
-0.00695377
-0.00596993
-0.00488414
-0.00371222
-0.0024745
-0.00119545
9.61452e-05
0.00136657
0.00257753
0.00368854
0.00465942
0.00545308
0.00603985
0.00639876
0.00652114
0.00641686
0.00611238
0.00564741
0.00507135
0.00444133
0.00381624
0.00324641
0.0027695
0.00240938
0.00217667
0.00206365
0.00205397
0.00211756
0.00221436
0.00231587
0.00240445
0.00247617
0.00252613
-3.44481e-05
-2.04782e-05
-3.99026e-05
-9.27386e-05
-0.00016872
-0.00024681
-0.000315486
-0.000369739
-0.000409647
-0.000439708
-0.000467262
-0.000499999
-0.000543935
-0.000602751
-0.000678589
-0.000773286
-0.000890022
-0.00103459
-0.00121417
-0.00143694
-0.00171268
-0.00204701
-0.00244461
-0.00290975
-0.00344168
-0.00403437
-0.0046775
-0.00535646
-0.00605377
-0.00675314
-0.00743923
-0.00809952
-0.00872332
-0.00930017
-0.00982089
-0.0102767
-0.0106589
-0.0109586
-0.0111674
-0.0112772
-0.0112801
-0.0111699
-0.0109407
-0.0105885
-0.0101129
-0.00951326
-0.00879014
-0.00794652
-0.00698888
-0.00592853
-0.00478053
-0.00356312
-0.00229749
-0.00100858
0.000271491
0.00150348
0.00264837
0.00366806
0.00452447
0.00518533
0.00562709
0.00583639
0.00581693
0.00559054
0.00519746
0.00468478
0.00410721
0.00352229
0.00298234
0.00252743
0.00218419
0.00196279
0.00185939
0.00185765
0.00193212
0.00204962
0.00217703
0.00229356
0.00238825
0.00244766
-5.31015e-06
-5.601e-06
-3.76127e-05
-0.000104422
-0.000188589
-0.000267714
-0.000332266
-0.000378727
-0.000408479
-0.000427663
-0.000444802
-0.000467996
-0.000503434
-0.000555502
-0.00062805
-0.000725583
-0.000854715
-0.00102432
-0.00124532
-0.00152485
-0.00187043
-0.0022893
-0.00278298
-0.0033483
-0.00397639
-0.00465522
-0.00537263
-0.00611464
-0.00686579
-0.00761084
-0.00833563
-0.00902854
-0.00967931
-0.0102783
-0.0108171
-0.011287
-0.0116793
-0.0119864
-0.0122015
-0.012318
-0.012329
-0.0122304
-0.0120166
-0.0116833
-0.0112336
-0.0106646
-0.00997595
-0.00916955
-0.00825013
-0.00722714
-0.00611396
-0.004925
-0.0036773
-0.00239258
-0.00110384
0.000150233
0.00133532
0.0024168
0.0033536
0.00411075
0.00466354
0.0049923
0.00509547
0.00498491
0.00469596
0.00427625
0.00377783
0.00325475
0.00275961
0.00233541
0.00201123
0.0018002
0.0017006
0.00169913
0.00177177
0.00189075
0.00202552
0.0021529
0.00225764
0.00232034
5.76328e-05
3.95415e-05
-8.97057e-06
-9.27505e-05
-0.000182176
-0.00026161
-0.000322889
-0.000363846
-0.00038785
-0.000402261
-0.00041614
-0.000437888
-0.000474358
-0.000531711
-0.000616857
-0.000737479
-0.000903945
-0.00112805
-0.00141809
-0.0017828
-0.00222866
-0.00275662
-0.00335803
-0.00402218
-0.00473905
-0.0054967
-0.00628143
-0.00707931
-0.00787659
-0.00865988
-0.00941659
-0.0101359
-0.010808
-0.0114242
-0.0119765
-0.0124564
-0.0128547
-0.0131666
-0.0133869
-0.0135105
-0.0135342
-0.0134527
-0.0132615
-0.0129571
-0.0125413
-0.0120086
-0.011361
-0.0106022
-0.00973714
-0.00877128
-0.00771098
-0.00656721
-0.00535615
-0.00410046
-0.002825
-0.00155735
-0.000328137
0.000824935
0.0018543
0.00272873
0.00342064
0.00390215
0.00416761
0.00421911
0.00408145
0.00379642
0.00341393
0.00298588
0.00256254
0.00218828
0.00189496
0.00169902
0.00160171
0.00159715
0.0016588
0.00176616
0.00189145
0.0020115
0.00211099
0.00216863
0.000164598
0.000125753
5.51636e-05
-4.25309e-05
-0.000137439
-0.000218291
-0.000278457
-0.000318335
-0.000342965
-0.000360792
-0.000381307
-0.000413362
-0.000465189
-0.000545803
-0.000665159
-0.000834746
-0.00106642
-0.00137182
-0.00175937
-0.00223529
-0.00279611
-0.00343347
-0.00413701
-0.00489508
-0.00569482
-0.00652337
-0.00736747
-0.00821421
-0.00905113
-0.00986627
-0.0106485
-0.0113881
-0.0120756
-0.0127022
-0.01326
-0.013741
-0.0141418
-0.0144592
-0.0146878
-0.0148235
-0.0148626
-0.014799
-0.0146307
-0.0143564
-0.0139719
-0.0134782
-0.0128772
-0.0121726
-0.0113688
-0.0104684
-0.00947467
-0.0083966
-0.00724842
-0.00604785
-0.00481161
-0.00355717
-0.00231384
-0.00111853
-1.6454e-06
0.00100726
0.00185589
0.00251885
0.00298373
0.00324123
0.00330453
0.0032027
0.00297991
0.00268567
0.00236723
0.00206906
0.00182529
0.00165607
0.00156739
0.00155388
0.00159995
0.00168749
0.00179066
0.00189066
0.00197035
0.00201342
0.000320988
0.000261216
0.000165682
5.4077e-05
-4.74632e-05
-0.000131225
-0.000194246
-0.000239047
-0.000272531
-0.000304141
-0.000343862
-0.000401444
-0.000487192
-0.000613188
-0.000792705
-0.00103781
-0.00136125
-0.00177429
-0.00227976
-0.00287333
-0.00354779
-0.00429175
-0.00509216
-0.00593566
-0.00680918
-0.00769984
-0.00859527
-0.00948347
-0.0103529
-0.0111928
-0.0119932
-0.0127448
-0.0134386
-0.0140664
-0.0146229
-0.0151056
-0.0155139
-0.0158403
-0.0160794
-0.0162261
-0.0162754
-0.0162263
-0.0160781
-0.0158302
-0.0154785
-0.0150261
-0.0144736
-0.0138228
-0.013076
-0.0122371
-0.0113118
-0.0103072
-0.00923377
-0.00810424
-0.00693097
-0.00572409
-0.00450334
-0.0032942
-0.00211828
-0.00101841
-2.6985e-05
0.000836435
0.00152149
0.00201774
0.00232447
0.0024553
0.00243935
0.00232123
0.00214443
0.00195146
0.00177972
0.00165304
0.00158187
0.00156501
0.00159325
0.00165284
0.00172583
0.00179683
0.00184591
0.00186997
0.000534339
0.00045121
0.000328002
0.000201113
9.03016e-05
3.49213e-07
-7.05359e-05
-0.000127759
-0.000180085
-0.000237906
-0.000311894
-0.000413069
-0.000554289
-0.000750425
-0.00101527
-0.00136101
-0.00179939
-0.00233451
-0.00296227
-0.00367421
-0.0044589
-0.005302
-0.0061901
-0.00710956
-0.00804763
-0.00899177
-0.00993026
-0.0108518
-0.0117458
-0.0126024
-0.0134125
-0.0141681
-0.0148626
-0.0154918
-0.0160508
-0.0165359
-0.0169413
-0.0172624
-0.0174965
-0.0176421
-0.0176972
-0.0176604
-0.0175312
-0.0173092
-0.016992
-0.0165814
-0.0160784
-0.0154847
-0.0148018
-0.0140328
-0.0131818
-0.012254
-0.0112556
-0.0101937
-0.0090773
-0.00792108
-0.00674281
-0.00555763
-0.00437779
-0.00322551
-0.00212232
-0.00110777
-0.000214691
0.000536424
0.00111217
0.00151505
0.00175301
0.0018553
0.00186037
0.00180588
0.00173003
0.00166345
0.00162194
0.00160965
0.00162223
0.00165243
0.0016907
0.00172518
0.00174062
0.00174573
0.000806916
0.000694597
0.000542331
0.000394843
0.000272538
0.000171966
8.68126e-05
8.23925e-06
-7.44485e-05
-0.000172586
-0.000297619
-0.000462411
-0.000681931
-0.000971487
-0.00134418
-0.00181031
-0.00237535
-0.00303745
-0.00378753
-0.00461286
-0.00549955
-0.00643292
-0.0073993
-0.00838529
-0.00937838
-0.0103665
-0.0113385
-0.0122839
-0.0131932
-0.0140576
-0.0148695
-0.0156224
-0.0163113
-0.0169318
-0.0174801
-0.0179534
-0.0183477
-0.0186602
-0.0188893
-0.0190339
-0.0190931
-0.0190662
-0.0189527
-0.0187526
-0.0184652
-0.0180917
-0.0176332
-0.0170914
-0.016468
-0.0157655
-0.0149872
-0.0141369
-0.0132186
-0.0122366
-0.0111961
-0.010105
-0.00897272
-0.00781053
-0.00663774
-0.00547232
-0.00432298
-0.00320766
-0.00214721
-0.001182
-0.000337188
0.000352804
0.000879132
0.00124565
0.00147517
0.00159823
0.00164789
0.00165977
0.00166028
0.00166081
0.00166387
0.00166717
0.00166989
0.00166523
0.00164875
0.00163732
0.00112659
0.000984394
0.000796659
0.000625672
0.000488603
0.000372917
0.000266193
0.000156281
3.07026e-05
-0.000122656
-0.000316428
-0.000564742
-0.000883178
-0.00128579
-0.00178288
-0.00238011
-0.00307694
-0.00386524
-0.00473182
-0.00566241
-0.00664192
-0.00765579
-0.00869028
-0.00973222
-0.0107694
-0.0117902
-0.0127844
-0.0137424
-0.0146559
-0.0155177
-0.0163218
-0.0170631
-0.0177376
-0.0183422
-0.0188741
-0.0193315
-0.0197121
-0.0200141
-0.0202367
-0.0203789
-0.0204403
-0.0204206
-0.02032
-0.0201385
-0.0198766
-0.0195352
-0.0191156
-0.0186194
-0.0180484
-0.017405
-0.0166918
-0.0159116
-0.0150675
-0.0141625
-0.0132001
-0.0121843
-0.0111191
-0.0100096
-0.00886354
-0.00769144
-0.00651024
-0.00533931
-0.00418234
-0.00305795
-0.00199401
-0.00103393
-0.000212633
0.000447987
0.00094331
0.00128634
0.00150061
0.00161704
0.00167291
0.00169397
0.00169267
0.00167404
0.0016442
0.00160374
0.00156059
0.00153491
0.00147909
0.00130528
0.00107736
0.000879965
0.000724344
0.000587632
0.000451142
0.000299315
0.00011814
-0.000105415
-0.000384418
-0.000733871
-0.00116798
-0.00169761
-0.00232873
-0.0030613
-0.00388826
-0.00479674
-0.0057717
-0.00679788
-0.00785987
-0.00894319
-0.0100341
-0.0111199
-0.0121887
-0.0132299
-0.0142342
-0.0151935
-0.0161011
-0.0169514
-0.0177399
-0.018463
-0.0191181
-0.019703
-0.0202161
-0.0206559
-0.0210215
-0.0213119
-0.0215265
-0.0216649
-0.021727
-0.0217129
-0.0216229
-0.0214575
-0.0212173
-0.0209035
-0.0205175
-0.0200609
-0.0195355
-0.0189434
-0.018287
-0.0175684
-0.0167901
-0.0159541
-0.0150628
-0.014118
-0.0131217
-0.0120756
-0.0109817
-0.00984213
-0.00866178
-0.00745051
-0.00622627
-0.00500252
-0.00378855
-0.00261453
-0.00152597
-0.000568785
0.000220058
0.000823234
0.00124559
0.00150626
0.00163999
0.00169137
0.00168983
0.00165354
0.00159671
0.00152741
0.00146483
0.00143019
0.00184607
0.00163779
0.00136775
0.00113929
0.000960557
0.000796453
0.000621724
0.000417593
0.000168744
-0.000138049
-0.000516838
-0.000981504
-0.00154305
-0.00220797
-0.0029762
-0.00384155
-0.00479195
-0.0058118
-0.00688499
-0.00799562
-0.00912826
-0.0102685
-0.011403
-0.0125195
-0.0136071
-0.0146566
-0.0156601
-0.0166112
-0.0175049
-0.0183372
-0.0191051
-0.0198063
-0.0204394
-0.021003
-0.0214963
-0.0219185
-0.022269
-0.0225477
-0.0227543
-0.0228886
-0.0229507
-0.0229411
-0.0228601
-0.0227084
-0.022487
-0.022197
-0.0218398
-0.0214171
-0.0209307
-0.0203825
-0.0197747
-0.0191091
-0.0183878
-0.0176122
-0.0167836
-0.0159028
-0.0149702
-0.0139854
-0.0129478
-0.0118563
-0.0107099
-0.0095082
-0.00825468
-0.00696
-0.00564774
-0.0043278
-0.00302936
-0.00180933
-0.000726021
0.000166033
0.000837063
0.001288
0.0015393
0.00163984
0.00164623
0.00159533
0.00151602
0.00142479
0.00134974
0.00130986
0.00220251
0.00195844
0.0016424
0.00138133
0.00117537
0.000977554
0.000756414
0.00049077
0.000164285
-0.000237255
-0.000727401
-0.00131683
-0.00201242
-0.00281406
-0.00371601
-0.00470688
-0.00577102
-0.00689122
-0.00805067
-0.00923313
-0.0104233
-0.011607
-0.0127716
-0.0139059
-0.0150005
-0.0160478
-0.0170416
-0.0179774
-0.0188518
-0.0196622
-0.020407
-0.021085
-0.0216954
-0.0222378
-0.0227118
-0.0231172
-0.0234538
-0.0237216
-0.0239208
-0.0240514
-0.0241136
-0.0241079
-0.0240348
-0.0238952
-0.0236901
-0.0234205
-0.023088
-0.0226942
-0.0222408
-0.0217298
-0.021163
-0.0205422
-0.0198691
-0.0191449
-0.0183704
-0.0175457
-0.0166701
-0.015742
-0.014759
-0.0137177
-0.0126143
-0.0114447
-0.0102057
-0.00889694
-0.00752539
-0.00610743
-0.00466837
-0.00324306
-0.00190047
-0.00071626
0.000236761
0.000921147
0.00134017
0.00152813
0.00155699
0.00149775
0.00139829
0.00128852
0.0012057
0.0011618
0.00252096
0.0022416
0.0018794
0.00158356
0.0013461
0.00110821
0.000833608
0.000499022
8.66035e-05
-0.000418753
-0.00102738
-0.00174604
-0.00257524
-0.00350924
-0.00453703
-0.00564293
-0.00680885
-0.00801662
-0.00924894
-0.0104895
-0.0117233
-0.0129369
-0.0141188
-0.0152595
-0.0163512
-0.0173881
-0.018366
-0.0192819
-0.0201339
-0.0209207
-0.0216418
-0.0222967
-0.0228853
-0.0234078
-0.0238641
-0.0242543
-0.0245786
-0.024837
-0.0250299
-0.0251575
-0.0252201
-0.0252181
-0.0251523
-0.0250235
-0.0248325
-0.0245807
-0.0242694
-0.0239002
-0.0234747
-0.0229949
-0.0224624
-0.021879
-0.0212461
-0.0205649
-0.019836
-0.019059
-0.0182328
-0.0173553
-0.016423
-0.0154312
-0.014374
-0.0132447
-0.0120367
-0.0107448
-0.00936677
-0.00790595
-0.00637815
-0.00481693
-0.00327317
-0.00182998
-0.000585699
0.000373471
0.00100812
0.00133474
0.0014192
0.00136297
0.00124551
0.00111817
0.00102769
0.000976967
0.0027815
0.00246323
0.00205562
0.00172338
0.00145012
0.00116688
0.000833857
0.000424989
-8.04302e-05
-0.000694545
-0.00142368
-0.00226968
-0.003227
-0.00428481
-0.00542725
-0.00663534
-0.00788943
-0.00917069
-0.0104616
-0.0117461
-0.0130098
-0.0142408
-0.0154288
-0.0165663
-0.0176475
-0.0186683
-0.0196263
-0.0205199
-0.0213485
-0.0221117
-0.0228098
-0.023443
-0.0240116
-0.0245161
-0.0249567
-0.0253337
-0.0256475
-0.0258982
-0.0260861
-0.0262116
-0.0262751
-0.0262769
-0.0262179
-0.0260988
-0.0259205
-0.0256842
-0.0253912
-0.0250429
-0.0246411
-0.0241874
-0.0236836
-0.0231311
-0.0225316
-0.0218859
-0.0211945
-0.0204573
-0.019673
-0.0188391
-0.017952
-0.0170062
-0.015995
-0.0149102
-0.0137426
-0.0124833
-0.0111247
-0.00966346
-0.0081038
-0.00646477
-0.00478834
-0.00314517
-0.00163908
-0.000389581
0.00050902
0.00103077
0.00122095
0.00119006
0.00106199
0.000916216
0.000811612
0.000748228
0.00294841
0.00259889
0.00214926
0.00178022
0.00146794
0.0011363
0.000741304
0.000253017
-0.000347637
-0.00107
-0.00191723
-0.00288424
-0.00396067
-0.00513057
-0.00637408
-0.00766995
-0.0089975
-0.0103375
-0.0116726
-0.0129872
-0.0142684
-0.0155056
-0.0166906
-0.0178177
-0.018883
-0.0198843
-0.0208204
-0.0216911
-0.0224965
-0.0232373
-0.023914
-0.0245275
-0.0250783
-0.025567
-0.0259941
-0.02636
-0.0266651
-0.0269096
-0.0270938
-0.0272182
-0.027283
-0.0272889
-0.0272363
-0.027126
-0.026959
-0.0267364
-0.0264593
-0.0261292
-0.0257475
-0.0253159
-0.0248359
-0.0243092
-0.0237371
-0.0231205
-0.02246
-0.0217555
-0.0210059
-0.0202087
-0.0193605
-0.0184558
-0.0174876
-0.0164471
-0.015324
-0.014107
-0.0127847
-0.0113484
-0.00979438
-0.00812972
-0.00638113
-0.00460588
-0.00289648
-0.00137751
-0.000188368
0.000580357
0.000936933
0.000974368
0.000847396
0.000682504
0.000552762
0.000471924
0.00300903
0.00263128
0.00214318
0.00173765
0.00138499
0.0010032
0.000543498
-2.51861e-05
-0.000719617
-0.00154692
-0.00250491
-0.00358355
-0.00476712
-0.00603513
-0.00736474
-0.00873311
-0.0101189
-0.011503
-0.0128683
-0.0142006
-0.0154883
-0.0167226
-0.0178976
-0.0190092
-0.0200554
-0.0210353
-0.021949
-0.0227972
-0.0235808
-0.0243008
-0.0249583
-0.0255543
-0.0260896
-0.0265648
-0.0269806
-0.0273373
-0.0276354
-0.0278752
-0.0280569
-0.0281809
-0.0282476
-0.0282574
-0.028211
-0.028109
-0.0279523
-0.0277418
-0.0274787
-0.0271643
-0.0267999
-0.0263871
-0.0259273
-0.025422
-0.0248725
-0.0242799
-0.0236446
-0.0229668
-0.0222456
-0.0214789
-0.0206635
-0.0197945
-0.0188649
-0.0178661
-0.0167874
-0.0156165
-0.01434
-0.0129451
-0.0114225
-0.00976933
-0.00799783
-0.00614876
-0.0043027
-0.00256932
-0.00109729
-3.89813e-05
0.000538294
0.000695361
0.000596433
0.000413421
0.000246592
0.000147084
0.00294827
0.00254697
0.00202528
0.00158499
0.00119184
0.000758342
0.000233264
-0.000412784
-0.0011964
-0.0021217
-0.00318088
-0.00435907
-0.00563566
-0.00698649
-0.00838651
-0.0098119
-0.0112411
-0.0126552
-0.0140381
-0.0153769
-0.0166621
-0.0178866
-0.0190465
-0.0201394
-0.0211647
-0.0221228
-0.0230146
-0.0238415
-0.024605
-0.0253063
-0.0259468
-0.0265276
-0.0270496
-0.0275134
-0.0279198
-0.0282691
-0.0285617
-0.0287979
-0.0289781
-0.0291024
-0.0291713
-0.0291853
-0.0291448
-0.0290505
-0.0289031
-0.0287036
-0.0284529
-0.0281523
-0.027803
-0.0274063
-0.0269637
-0.0264765
-0.0259459
-0.025373
-0.0247585
-0.0241025
-0.0234044
-0.0226628
-0.0218747
-0.0210359
-0.0201402
-0.0191793
-0.0181428
-0.0170181
-0.0157911
-0.0144466
-0.0129714
-0.0113558
-0.00959936
-0.00772403
-0.00579695
-0.00391513
-0.00220774
-0.000856242
-7.01365e-06
0.000331961
0.000298343
0.000100088
-0.000110813
-0.000228082
0.00275731
0.0023381
0.00178878
0.00131645
0.000883015
0.00039846
-0.00018869
-0.000907703
-0.0017742
-0.00278773
-0.00393629
-0.00520016
-0.00655452
-0.00797236
-0.00942712
-0.0108945
-0.0123529
-0.0137842
-0.0151736
-0.01651
-0.0177854
-0.0189951
-0.0201365
-0.0212089
-0.0222128
-0.0231494
-0.0240205
-0.0248278
-0.025573
-0.0262577
-0.0268834
-0.0274511
-0.0279617
-0.0284161
-0.0288147
-0.029158
-0.0294464
-0.0296801
-0.0298594
-0.0299846
-0.030056
-0.0300741
-0.0300393
-0.0299521
-0.0298133
-0.0296237
-0.0293842
-0.0290958
-0.0287598
-0.0283772
-0.0279494
-0.0274776
-0.0269631
-0.0264068
-0.0258095
-0.0251714
-0.0244924
-0.0237713
-0.0230058
-0.0221924
-0.0213257
-0.0203983
-0.0194005
-0.0183203
-0.017143
-0.0158528
-0.0144335
-0.0128718
-0.0111585
-0.00929602
-0.00732686
-0.00535928
-0.00348367
-0.00186824
-0.000720213
-0.000146598
-7.01432e-05
-0.000265662
-0.00051989
-0.000653406
0.00243379
0.00200278
0.0014324
0.000931379
0.00045935
-7.37917e-05
-0.000718416
-0.00150392
-0.00244435
-0.00353516
-0.00475997
-0.00609476
-0.00751132
-0.00898057
-0.010475
-0.0119702
-0.013445
-0.0148824
-0.0162691
-0.0175957
-0.0188562
-0.0200474
-0.0211684
-0.0222195
-0.0232022
-0.0241184
-0.0249701
-0.0257595
-0.0264884
-0.0271585
-0.0277712
-0.0283277
-0.0288287
-0.0292751
-0.0296674
-0.0300059
-0.0302911
-0.0305231
-0.0307022
-0.0308286
-0.0309027
-0.0309248
-0.0308954
-0.030815
-0.0306841
-0.0305036
-0.0302741
-0.0299968
-0.0296725
-0.0293024
-0.0288876
-0.0284293
-0.0279285
-0.0273864
-0.0268036
-0.0261806
-0.0255174
-0.0248133
-0.0240666
-0.0232744
-0.0224324
-0.0215342
-0.0205711
-0.0195319
-0.0184026
-0.0171669
-0.0158073
-0.0143076
-0.012654
-0.0108368
-0.00886697
-0.00684584
-0.00487058
-0.00305505
-0.00162347
-0.000772924
-0.000526272
-0.000692497
-0.000978641
-0.00112847
0.00198107
0.00154466
0.000959884
0.000433956
-7.37576e-05
-0.000650906
-0.00134723
-0.00219198
-0.00319614
-0.00435202
-0.00563923
-0.00703004
-0.00849362
-0.00999946
-0.0115196
-0.0130298
-0.0145099
-0.015944
-0.0173205
-0.0186318
-0.0198736
-0.0210441
-0.0221437
-0.0231735
-0.0241358
-0.0250327
-0.0258667
-0.0266399
-0.0273543
-0.0280115
-0.028613
-0.0291598
-0.0296527
-0.0300925
-0.0304795
-0.0308142
-0.0310969
-0.0313277
-0.031507
-0.031635
-0.0317118
-0.0317379
-0.0317137
-0.0316395
-0.031516
-0.0313437
-0.0311235
-0.030856
-0.0305424
-0.0301834
-0.0297802
-0.0293338
-0.0288452
-0.0283154
-0.0277452
-0.0271351
-0.0264853
-0.0257956
-0.0250646
-0.0242904
-0.0234694
-0.0225963
-0.0216638
-0.0206617
-0.0195773
-0.0183945
-0.0170952
-0.0156611
-0.0140758
-0.012324
-0.0103982
-0.00834252
-0.00631666
-0.00437283
-0.00270008
-0.00156058
-0.00109609
-0.00119698
-0.00148623
-0.00165816
0.00140754
0.000972124
0.000379168
-0.000167041
-0.000706318
-0.0013224
-0.00206391
-0.0029591
-0.00401633
-0.00522477
-0.00656056
-0.00799298
-0.00948927
-0.0110181
-0.0125514
-0.0140656
-0.0155415
-0.0169646
-0.0183252
-0.0196172
-0.0208378
-0.0219865
-0.0230644
-0.0240735
-0.0250163
-0.0258953
-0.026713
-0.0274716
-0.0281731
-0.028819
-0.0294107
-0.0299491
-0.0304351
-0.0308692
-0.0312519
-0.0315835
-0.0318643
-0.0320945
-0.0322743
-0.0324038
-0.0324834
-0.0325133
-0.0324939
-0.0324256
-0.0323089
-0.0321443
-0.0319325
-0.0316742
-0.0313702
-0.0310213
-0.0306286
-0.0301929
-0.0297152
-0.0291964
-0.0286373
-0.0280386
-0.0274005
-0.0267231
-0.0260058
-0.0252469
-0.0244439
-0.0235926
-0.0226868
-0.021718
-0.0206745
-0.0195415
-0.0183012
-0.0169335
-0.0154203
-0.0137448
-0.0118869
-0.00984487
-0.00777827
-0.00577108
-0.00392402
-0.00251817
-0.00180173
-0.00177763
-0.00204721
-0.00225308
0.000725664
0.000297582
-0.000297282
-0.000858919
-0.00142478
-0.00207432
-0.00285438
-0.00379101
-0.00489046
-0.00613911
-0.00751023
-0.00897082
-0.0104868
-0.0120265
-0.0135621
-0.0150709
-0.0165349
-0.0179413
-0.0192817
-0.0205518
-0.0217497
-0.0228761
-0.0239327
-0.0249218
-0.0258462
-0.0267086
-0.0275114
-0.0282568
-0.0289467
-0.0295826
-0.0301657
-0.0306968
-0.0311768
-0.0316061
-0.0319851
-0.0323142
-0.0325935
-0.0328233
-0.0330037
-0.033135
-0.0332172
-0.0332508
-0.033236
-0.0331731
-0.0330627
-0.0329052
-0.0327011
-0.0324512
-0.0321561
-0.0318165
-0.0314334
-0.0310075
-0.0305398
-0.030031
-0.029482
-0.0288935
-0.0282659
-0.0275996
-0.0268941
-0.0261487
-0.0253614
-0.0245291
-0.0236469
-0.0227075
-0.0217011
-0.0206141
-0.0194295
-0.0181273
-0.016687
-0.0150904
-0.0133155
-0.0113435
-0.00923893
-0.00720609
-0.00526066
-0.00363881
-0.00266167
-0.0024506
-0.00267798
-0.00292981
-4.74629e-05
-0.000464089
-0.00105436
-0.00162656
-0.00221452
-0.00289205
-0.00370315
-0.00467227
-0.00580338
-0.00708053
-0.00847475
-0.00995136
-0.0114755
-0.0130156
-0.0145445
-0.0160403
-0.0174865
-0.0188717
-0.0201892
-0.0214356
-0.0226103
-0.0237144
-0.0247502
-0.0257202
-0.0266274
-0.0274744
-0.0282636
-0.0289971
-0.0296766
-0.0303035
-0.0308789
-0.0314036
-0.0318783
-0.0323034
-0.0326793
-0.0330063
-0.0332844
-0.033514
-0.0336952
-0.0338281
-0.0339129
-0.0339499
-0.0339394
-0.0338816
-0.033777
-0.033626
-0.0334292
-0.033187
-0.0329001
-0.0325691
-0.0321949
-0.0317781
-0.0313195
-0.0308201
-0.0302804
-0.0297014
-0.0290835
-0.0284272
-0.0277326
-0.0269993
-0.026226
-0.0254105
-0.0245491
-0.0236361
-0.0226629
-0.0216179
-0.0204855
-0.0192462
-0.0178782
-0.0163621
-0.0146779
-0.0127949
-0.0107011
-0.00864766
-0.00666768
-0.00489619
-0.00367967
-0.0032506
-0.00339607
-0.0037096
-0.00089286
-0.00129553
-0.00187619
-0.0024546
-0.00305974
-0.00375935
-0.00459419
-0.0055871
-0.00673995
-0.00803489
-0.00944125
-0.0109233
-0.0124459
-0.0139777
-0.0154924
-0.0169693
-0.0183933
-0.0197545
-0.0210471
-0.0222691
-0.0234204
-0.0245027
-0.0255185
-0.0264705
-0.0273616
-0.0281944
-0.0289711
-0.0296937
-0.0303637
-0.0309825
-0.031551
-0.03207
-0.03254
-0.0329614
-0.0333345
-0.0336596
-0.0339368
-0.0341663
-0.0343482
-0.0344827
-0.0345699
-0.0346101
-0.0346035
-0.0345505
-0.0344513
-0.0343064
-0.0341162
-0.0338812
-0.0336019
-0.033279
-0.032913
-0.0325048
-0.0320549
-0.0315642
-0.0310333
-0.0304632
-0.0298545
-0.0292076
-0.0285231
-0.0278009
-0.0270403
-0.0262401
-0.0253975
-0.024508
-0.0235648
-0.0225579
-0.0214734
-0.0202932
-0.0189955
-0.0175587
-0.0159622
-0.0141756
-0.0121706
-0.0100863
-0.00810834
-0.00626133
-0.00485106
-0.00419696
-0.00421881
-0.00462027
-0.00179225
-0.00217863
-0.00274573
-0.00332601
-0.00394336
-0.00465925
-0.00551112
-0.00651985
-0.0076855
-0.00898873
-0.0103978
-0.0118763
-0.0133892
-0.0149057
-0.0164006
-0.0178544
-0.0192532
-0.0205884
-0.0218553
-0.0230526
-0.0241809
-0.0252421
-0.0262388
-0.0271738
-0.0280499
-0.0288695
-0.0296346
-0.0303472
-0.0310086
-0.03162
-0.0321823
-0.032696
-0.0331618
-0.0335798
-0.0339505
-0.0342739
-0.0345503
-0.0347797
-0.0349623
-0.0350983
-0.0351877
-0.0352309
-0.035228
-0.0351793
-0.0350851
-0.0349458
-0.0347617
-0.0345334
-0.0342612
-0.0339458
-0.0335876
-0.0331874
-0.0327457
-0.0322633
-0.031741
-0.0311794
-0.0305794
-0.0299416
-0.0292666
-0.0285549
-0.0278062
-0.02702
-0.0261944
-0.0253263
-0.0244102
-0.0234379
-0.0223975
-0.0212725
-0.0200421
-0.0186828
-0.0171734
-0.0154884
-0.0135949
-0.0115132
-0.00955694
-0.00770167
-0.00615978
-0.0052903
-0.00517241
-0.0056783
-0.00272708
-0.00309524
-0.00364537
-0.00422321
-0.00484818
-0.00557512
-0.00643799
-0.00745551
-0.00862615
-0.00992957
-0.0113333
-0.012801
-0.0142978
-0.0157939
-0.0172648
-0.0186925
-0.0200642
-0.0213724
-0.0226135
-0.0237864
-0.0248923
-0.0259333
-0.026912
-0.027831
-0.028693
-0.0295003
-0.0302548
-0.0309582
-0.0316116
-0.0322162
-0.0327727
-0.0332817
-0.0337435
-0.0341585
-0.0345269
-0.0348488
-0.0351244
-0.0353537
-0.035537
-0.0356743
-0.0357658
-0.0358116
-0.0358121
-0.0357674
-0.0356778
-0.0355436
-0.0353653
-0.0351431
-0.0348776
-0.0345691
-0.0342183
-0.0338257
-0.0333918
-0.0329175
-0.0324032
-0.0318499
-0.0312584
-0.0306294
-0.0299637
-0.029262
-0.0285246
-0.0277515
-0.0269416
-0.026093
-0.0252016
-0.0242608
-0.0232606
-0.0221866
-0.0210192
-0.0197356
-0.0183144
-0.0167342
-0.0149539
-0.012932
-0.010978
-0.00916442
-0.00756017
-0.00651499
-0.00628065
-0.00686988
-0.00367939
-0.00402722
-0.00455745
-0.00512948
-0.00575799
-0.00649127
-0.00735981
-0.00838005
-0.00954913
-0.0108461
-0.0122382
-0.0136893
-0.0151653
-0.016637
-0.0180813
-0.0194811
-0.0208248
-0.022106
-0.0233214
-0.0244707
-0.0255551
-0.0265769
-0.0275385
-0.0284426
-0.0292915
-0.0300873
-0.0308319
-0.0315267
-0.0321728
-0.0327711
-0.0333223
-0.0338268
-0.034285
-0.0346972
-0.0350634
-0.0353839
-0.0356587
-0.035888
-0.0360718
-0.0362103
-0.0363036
-0.0363519
-0.0363554
-0.0363143
-0.0362289
-0.0360995
-0.0359264
-0.0357099
-0.0354505
-0.0351487
-0.0348048
-0.0344193
-0.0339929
-0.0335262
-0.0330199
-0.0324746
-0.0318914
-0.031271
-0.0306143
-0.0299224
-0.0291958
-0.0284351
-0.02764
-0.0268094
-0.0259406
-0.0250285
-0.024065
-0.0230377
-0.0219291
-0.0207172
-0.0193791
-0.0178941
-0.0162274
-0.0143384
-0.0123748
-0.0106116
-0.00900038
-0.00783849
-0.0075346
-0.00816378
-0.00463162
-0.00495734
-0.00546537
-0.0060289
-0.00665751
-0.0073931
-0.00826277
-0.00928073
-0.010443
-0.0117281
-0.0131037
-0.0145341
-0.0159859
-0.0174308
-0.0188468
-0.020218
-0.0215337
-0.0227881
-0.0239787
-0.0251053
-0.0261694
-0.027173
-0.0281186
-0.0290087
-0.0298453
-0.0306306
-0.031366
-0.0320528
-0.0326921
-0.0332846
-0.0338308
-0.0343312
-0.034786
-0.0351955
-0.0355597
-0.0358788
-0.0361529
-0.036382
-0.0365663
-0.0367058
-0.0368008
-0.0368512
-0.0368574
-0.0368196
-0.036738
-0.0366129
-0.0364446
-0.0362334
-0.0359798
-0.035684
-0.0353465
-0.0349679
-0.0345486
-0.0340892
-0.0335905
-0.0330531
-0.0324779
-0.0318659
-0.0312181
-0.0305357
-0.0298196
-0.0290708
-0.0282896
-0.0274758
-0.0266279
-0.0257421
-0.0248122
-0.0238277
-0.0227734
-0.0216289
-0.0203704
-0.0189766
-0.0174211
-0.0156697
-0.0137358
-0.0120194
-0.0104397
-0.00921853
-0.00887343
-0.00948463
-0.00556747
-0.00586986
-0.00635414
-0.00690689
-0.00753276
-0.00826733
-0.00913445
-0.0101462
-0.0112975
-0.0125667
-0.0139224
-0.0153292
-0.0167546
-0.0181715
-0.0195587
-0.0209013
-0.0221896
-0.0234182
-0.024585
-0.0256902
-0.026735
-0.0277217
-0.0286524
-0.0295293
-0.0303547
-0.03113
-0.0318569
-0.0325363
-0.0331692
-0.0337563
-0.0342979
-0.0347944
-0.0352461
-0.0356531
-0.0360154
-0.0363332
-0.0366066
-0.0368355
-0.0370201
-0.0371605
-0.0372569
-0.0373093
-0.0373179
-0.037283
-0.0372048
-0.0370836
-0.0369197
-0.0367133
-0.0364648
-0.0361747
-0.0358432
-0.035471
-0.0350584
-0.034606
-0.0341145
-0.0335847
-0.0330174
-0.0324137
-0.0317746
-0.0311015
-0.0303956
-0.0296582
-0.0288902
-0.0280922
-0.0272635
-0.0264019
-0.0255026
-0.0245572
-0.0235526
-0.0224702
-0.0212873
-0.0199832
-0.0185373
-0.0169074
-0.0150584
-0.0133638
-0.0118329
-0.0105979
-0.0102033
-0.0107163
-0.00647136
-0.00675057
-0.00721013
-0.00775037
-0.00837122
-0.00910214
-0.00996384
-0.0109663
-0.012104
-0.0133545
-0.0146876
-0.0160693
-0.0174675
-0.018856
-0.0202147
-0.0215294
-0.0227913
-0.0239953
-0.0251398
-0.0262248
-0.0272518
-0.0282226
-0.0291395
-0.0300044
-0.0308192
-0.0315854
-0.0323044
-0.032977
-0.033604