/*--------------------------------*- C++ -*----------------------------------*\
  =========                 |
  \\      /  F ield         | OpenFOAM: The Open Source CFD Toolbox
   \\    /   O peration     | Website:  https://openfoam.org
    \\  /    A nd           | Version:  13
     \\/     M anipulation  |
\*---------------------------------------------------------------------------*/
FoamFile
{
    format      ascii;
    class       surfaceScalarField;
    location    "8.6";
    object      phi;
}
// * * * * * * * * * * * * * * * * * * * * * * * * * * * * * * * * * * * * * //

dimensions      [0 3 -1 0 0 0 0];

internalField   nonuniform List<scalar> 
12640
(
1.67895e-09
-1.67896e-09
1.55125e-08
-1.38336e-08
3.98316e-08
-2.43191e-08
6.7855e-08
-2.80235e-08
9.31026e-08
-2.52475e-08
1.11947e-07
-1.88445e-08
1.23034e-07
-1.10873e-08
1.27308e-07
-4.27326e-09
1.27111e-07
1.97054e-10
1.24822e-07
2.28856e-09
1.22444e-07
2.37799e-09
1.21262e-07
1.18219e-09
1.21672e-07
-4.10634e-10
1.23382e-07
-1.70966e-09
1.25527e-07
-2.14441e-09
1.27158e-07
-1.63109e-09
1.27382e-07
-2.24634e-10
1.25682e-07
1.70033e-09
1.21175e-07
4.50702e-09
1.12972e-07
8.20253e-09
1.00536e-07
1.24369e-08
8.32579e-08
1.72776e-08
6.07083e-08
2.25496e-08
3.27036e-08
2.80047e-08
-7.87974e-10
3.34916e-08
-3.99867e-08
3.91987e-08
-8.6356e-08
4.63693e-08
-1.42377e-07
5.60207e-08
-2.10966e-07
6.85898e-08
-2.94197e-07
8.32307e-08
-3.90873e-07
9.66761e-08
-4.97323e-07
1.0645e-07
-6.1e-07
1.12677e-07
-7.25458e-07
1.15458e-07
-8.40707e-07
1.15249e-07
-9.53152e-07
1.12445e-07
-1.06068e-06
1.07529e-07
-1.16158e-06
1.00901e-07
-1.25451e-06
9.29301e-08
-1.33843e-06
8.39179e-08
-1.41248e-06
7.40473e-08
-1.47597e-06
6.34956e-08
-1.5283e-06
5.23299e-08
-1.56889e-06
4.05852e-08
-1.59712e-06
2.82323e-08
-1.6129e-06
1.57808e-08
-1.61631e-06
3.40671e-09
-1.60539e-06
-1.09168e-08
-1.58106e-06
-2.43335e-08
-1.54216e-06
-3.88978e-08
-1.48887e-06
-5.32919e-08
-1.421e-06
-6.78643e-08
-1.33891e-06
-8.20891e-08
-1.24307e-06
-9.58484e-08
-1.13412e-06
-1.08949e-07
-1.01299e-06
-1.21126e-07
-8.81122e-07
-1.31868e-07
-7.40351e-07
-1.40771e-07
-5.9306e-07
-1.4729e-07
-4.42138e-07
-1.50922e-07
-2.91106e-07
-1.51032e-07
-1.43804e-07
-1.47302e-07
-4.23546e-09
-1.39568e-07
1.24386e-07
-1.28622e-07
2.37164e-07
-1.12778e-07
3.30352e-07
-9.31883e-08
4.00748e-07
-7.03956e-08
4.45929e-07
-4.51811e-08
4.64625e-07
-1.8696e-08
4.55711e-07
8.91413e-09
4.22249e-07
3.3462e-08
3.66793e-07
5.54562e-08
2.9559e-07
7.12029e-08
2.18273e-07
7.73166e-08
1.45645e-07
7.26281e-08
8.49998e-08
6.06453e-08
4.00931e-08
4.49068e-08
1.15065e-08
2.85866e-08
-7.20379e-10
1.22268e-08
-7.20381e-10
1.07153e-08
-1.23942e-08
4.39985e-08
-4.71168e-08
8.99879e-08
-7.03085e-08
1.36817e-07
-7.4853e-08
1.76826e-07
-6.5256e-08
2.06226e-07
-4.82446e-08
2.24446e-07
-2.93075e-08
2.32517e-07
-1.23437e-08
2.32263e-07
4.50758e-10
2.26061e-07
8.49023e-09
2.16195e-07
1.22437e-08
2.04229e-07
1.31483e-08
1.90635e-07
1.31834e-08
1.74831e-07
1.4095e-08
1.55754e-07
1.69323e-08
1.32265e-07
2.1858e-08
1.0343e-07
2.86102e-08
6.7959e-08
3.71713e-08
2.46069e-08
4.78591e-08
-2.81834e-08
6.09929e-08
-9.24903e-08
7.67438e-08
-1.70053e-07
9.48406e-08
-2.62033e-07
1.1453e-07
-3.69267e-07
1.35238e-07
-4.92283e-07
1.56508e-07
-6.30735e-07
1.77651e-07
-7.81978e-07
1.97612e-07
-9.41677e-07
2.15719e-07
-1.10432e-06
2.31233e-07
-1.26414e-06
2.4305e-07
-1.4178e-06
2.50334e-07
-1.5643e-06
2.52956e-07
-1.70226e-06
2.50632e-07
-1.83044e-06
2.43636e-07
-1.94786e-06
2.32674e-07
-2.05389e-06
2.18475e-07
-2.14806e-06
2.01696e-07
-2.23008e-06
1.82923e-07
-2.29974e-06
1.62588e-07
-2.3569e-06
1.41082e-07
-2.40145e-06
1.18598e-07
-2.43329e-06
9.53274e-08
-2.45231e-06
7.13534e-08
-2.45848e-06
4.67504e-08
-2.45179e-06
2.15453e-08
-2.4315e-06
-4.50332e-09
-2.39782e-06
-3.02745e-08
-2.35114e-06
-5.75995e-08
-2.29036e-06
-8.51186e-08
-2.21605e-06
-1.132e-07
-2.12785e-06
-1.41496e-07
-2.02584e-06
-1.69876e-07
-1.90995e-06
-1.97975e-07
-1.78042e-06
-2.25382e-07
-1.63786e-06
-2.51509e-07
-1.48341e-06
-2.75576e-07
-1.31836e-06
-2.96918e-07
-1.14458e-06
-3.14552e-07
-9.64409e-07
-3.27458e-07
-7.80556e-07
-3.34774e-07
-5.96061e-07
-3.35527e-07
-4.14353e-07
-3.29011e-07
-2.38981e-07
-3.1494e-07
-7.42613e-08
-2.93342e-07
7.69413e-08
-2.6398e-07
2.11151e-07
-2.27398e-07
3.24935e-07
-1.8418e-07
4.15743e-07
-1.35989e-07
4.81163e-07
-8.4116e-08
5.20769e-07
-3.06917e-08
5.32837e-07
2.13943e-08
5.1803e-07
7.02631e-08
4.78322e-07
1.10911e-07
4.14846e-07
1.40792e-07
3.31119e-07
1.56355e-07
2.37527e-07
1.54237e-07
1.46537e-07
1.35897e-07
7.06116e-08
1.04512e-07
1.98655e-08
6.2973e-08
1.91451e-08
2.02875e-08
-3.26817e-08
6.72073e-08
-9.40366e-08
1.19742e-07
-1.22843e-07
1.65913e-07
-1.21024e-07
2.01291e-07
-1.00634e-07
2.24946e-07
-7.18996e-08
2.37596e-07
-4.19578e-08
2.40235e-07
-1.49833e-08
2.34052e-07
6.63419e-09
2.20545e-07
2.1997e-08
2.01107e-07
3.16819e-08
1.76311e-07
3.79442e-08
1.45954e-07
4.35409e-08
1.092e-07
5.08485e-08
6.48745e-08
6.12581e-08
1.15351e-08
7.51974e-08
-5.25685e-08
9.27138e-08
-1.29251e-07
1.13853e-07
-2.2005e-07
1.38658e-07
-3.2617e-07
1.67113e-07
-4.48038e-07
1.98612e-07
-5.85229e-07
2.32032e-07
-7.36635e-07
2.65936e-07
-8.99714e-07
2.98316e-07
-1.07095e-06
3.27743e-07
-1.24604e-06
3.52741e-07
-1.4207e-06
3.72275e-07
-1.59094e-06
3.85958e-07
-1.7532e-06
3.93497e-07
-1.90499e-06
3.94836e-07
-2.04486e-06
3.90198e-07
-2.17191e-06
3.80012e-07
-2.28621e-06
3.64933e-07
-2.3882e-06
3.4562e-07
-2.47817e-06
3.22649e-07
-2.55649e-06
2.96799e-07
-2.62346e-06
2.68657e-07
-2.6793e-06
2.38765e-07
-2.72417e-06
2.07463e-07
-2.7582e-06
1.75106e-07
-2.78143e-06
1.41829e-07
-2.79384e-06
1.07741e-07
-2.79538e-06
7.28929e-08
-2.78593e-06
3.72954e-08
-2.76518e-06
7.95718e-10
-2.73333e-06
-3.63485e-08
-2.68924e-06
-7.43635e-08
-2.63341e-06
-1.13433e-07
-2.56526e-06
-1.53268e-07
-2.48461e-06
-1.9385e-07
-2.39122e-06
-2.34888e-07
-2.28497e-06
-2.76127e-07
-2.16582e-06
-3.17118e-07
-2.03396e-06
-3.57243e-07
-1.88984e-06
-3.95636e-07
-1.73417e-06
-4.31244e-07
-1.56804e-06
-4.63047e-07
-1.39288e-06
-4.89715e-07
-1.2106e-06
-5.09733e-07
-1.02374e-06
-5.2164e-07
-8.35116e-07
-5.24146e-07
-6.48066e-07
-5.16061e-07
-4.66196e-07
-4.96811e-07
-2.9323e-07
-4.66308e-07
-1.32307e-07
-4.24903e-07
1.34595e-08
-3.73164e-07
1.41565e-07
-3.12286e-07
2.49386e-07
-2.4381e-07
3.35487e-07
-1.70216e-07
3.99046e-07
-9.42513e-08
4.39256e-07
-1.88157e-08
4.55676e-07
5.38431e-08
4.47192e-07
1.19395e-07
4.15163e-07
1.7282e-07
3.61186e-07
2.10333e-07
2.88163e-07
2.2726e-07
2.02801e-07
2.21259e-07
1.1572e-07
1.91593e-07
4.06336e-08
1.3806e-07
5.97787e-08
2.8195e-08
-6.08767e-08
8.15156e-08
-1.47357e-07
1.31525e-07
-1.72853e-07
1.69686e-07
-1.59184e-07
1.94801e-07
-1.25748e-07
2.08127e-07
-8.52262e-08
2.10893e-07
-4.47232e-08
2.04238e-07
-8.32868e-09
1.88952e-07
2.19202e-08
1.65494e-07
4.5455e-08
1.33641e-07
6.3535e-08
9.28783e-08
7.87068e-08
4.24236e-08
9.39956e-08
-1.86701e-08
1.11942e-07
-9.1517e-08
1.34105e-07
-1.77496e-07
1.61176e-07
-2.78063e-07
1.93281e-07
-3.94465e-07
2.30255e-07
-5.27205e-07
2.71398e-07
-6.75715e-07
3.15623e-07
-8.38091e-07
3.60988e-07
-1.01111e-06
4.05047e-07
-1.19085e-06
4.45678e-07
-1.373e-06
4.8047e-07
-1.55345e-06
5.08188e-07
-1.7283e-06
5.27595e-07
-1.89412e-06
5.38091e-07
-2.0483e-06
5.40135e-07
-2.18956e-06
5.34757e-07
-2.31756e-06
5.22836e-07
-2.43255e-06
5.05195e-07
-2.53514e-06
4.82602e-07
-2.62597e-06
4.55761e-07
-2.70576e-06
4.25405e-07
-2.77519e-06
3.92086e-07
-2.83481e-06
3.56415e-07
-2.885e-06
3.1885e-07
-2.92606e-06
2.79825e-07
-2.95818e-06
2.39578e-07
-2.9814e-06
1.98328e-07
-2.99572e-06
1.56154e-07
-3.00107e-06
1.13093e-07
-2.99727e-06
6.90918e-08
-2.98407e-06
2.40939e-08
-2.96131e-06
-2.1971e-08
-2.92853e-06
-6.91282e-08
-2.88535e-06
-1.17537e-07
-2.83151e-06
-1.67278e-07
-2.76652e-06
-2.18251e-07
-2.69006e-06
-2.70315e-07
-2.60176e-06
-3.23188e-07
-2.50133e-06
-3.76553e-07
-2.38856e-06
-4.29891e-07
-2.26332e-06
-4.82483e-07
-2.12568e-06
-5.33274e-07
-1.97607e-06
-5.80852e-07
-1.81527e-06
-6.23847e-07
-1.64435e-06
-6.60638e-07
-1.46483e-06
-6.89252e-07
-1.27878e-06
-7.07688e-07
-1.08873e-06
-7.14197e-07
-8.97784e-07
-7.0701e-07
-7.09605e-07
-6.84989e-07
-5.28351e-07
-6.47561e-07
-3.57718e-07
-5.95536e-07
-2.00805e-07
-5.30077e-07
-6.05518e-08
-4.52539e-07
6.09073e-08
-3.65269e-07
1.61921e-07
-2.7123e-07
2.41484e-07
-1.73814e-07
2.9926e-07
-7.65923e-08
3.35971e-07
1.7132e-08
3.51574e-07
1.03793e-07
3.45488e-07
1.78906e-07
3.17762e-07
2.38059e-07
2.69171e-07
2.75851e-07
2.03504e-07
2.86926e-07
1.26605e-07
2.68492e-07
4.90019e-08
2.15662e-07
1.08781e-07
3.42467e-08
-9.51235e-08
8.67708e-08
-1.99881e-07
1.279e-07
-2.13983e-07
1.54426e-07
-1.8571e-07
1.67202e-07
-1.38525e-07
1.68498e-07
-8.65226e-08
1.59699e-07
-3.59238e-08
1.41533e-07
9.83743e-09
1.14161e-07
4.92919e-08
7.71136e-08
8.25027e-08
2.9413e-08
1.11236e-07
-3.01321e-08
1.38252e-07
-1.02683e-07
1.66546e-07
-1.89314e-07
1.98573e-07
-2.91033e-07
2.35824e-07
-4.08674e-07
2.78817e-07
-5.42626e-07
3.27233e-07
-6.92563e-07
3.80193e-07
-8.56914e-07
4.35749e-07
-1.03251e-06
4.91214e-07
-1.21547e-06
5.43953e-07
-1.40126e-06
5.90839e-07
-1.58558e-06
6.30001e-07
-1.76425e-06
6.59132e-07
-1.93298e-06
6.7692e-07
-2.08932e-06
6.83934e-07
-2.23246e-06
6.81232e-07
-2.36245e-06
6.70131e-07
-2.47977e-06
6.52073e-07
-2.58512e-06
6.28182e-07
-2.67936e-06
5.99435e-07
-2.76331e-06
5.66552e-07
-2.83769e-06
5.30149e-07
-2.90315e-06
4.90863e-07
-2.96026e-06
4.49196e-07
-3.00943e-06
4.05587e-07
-3.05098e-06
3.60394e-07
-3.0851e-06
3.13952e-07
-3.11192e-06
2.66398e-07
-3.13145e-06
2.1785e-07
-3.14356e-06
1.68271e-07
-3.1482e-06
1.17732e-07
-3.14515e-06
6.60412e-08
-3.1341e-06
1.30443e-08
-3.11484e-06
-4.12377e-08
-3.0869e-06
-9.70601e-08
-3.04991e-06
-1.54531e-07
-3.00346e-06
-2.13727e-07
-2.94698e-06
-2.74728e-07
-2.87991e-06
-3.37386e-07
-2.80177e-06
-4.01327e-07
-2.71208e-06
-4.6625e-07
-2.61038e-06
-5.31586e-07
-2.49626e-06
-5.96602e-07
-2.36933e-06
-6.60211e-07
-2.22967e-06
-7.20505e-07
-2.07774e-06
-7.75784e-07
-1.9141e-06
-8.24277e-07
-1.73986e-06
-8.63485e-07
-1.55674e-06
-8.90813e-07
-1.36683e-06
-9.04107e-07
-1.173e-06
-9.00836e-07
-9.7842e-07
-8.79572e-07
-7.87163e-07
-8.38819e-07
-6.03962e-07
-7.78736e-07
-4.33025e-07
-7.01014e-07
-2.77436e-07
-6.08129e-07
-1.39913e-07
-5.02792e-07
-2.25559e-08
-3.88587e-07
7.34223e-08
-2.69792e-07
1.47632e-07
-1.50802e-07
2.00617e-07
-3.58525e-08
2.33302e-07
7.11071e-08
2.46189e-07
1.66019e-07
2.39597e-07
2.4465e-07
2.13846e-07
3.01603e-07
1.69911e-07
3.30861e-07
1.10874e-07
3.27529e-07
4.44584e-08
2.82078e-07
1.53239e-07
3.77157e-08
-1.32839e-07
8.28432e-08
-2.45009e-07
1.11166e-07
-2.42305e-07
1.2363e-07
-1.98174e-07
1.23157e-07
-1.38052e-07
1.11745e-07
-7.51106e-08
9.0372e-08
-1.4551e-08
5.91609e-08
4.10485e-08
1.76269e-08
9.08259e-08
-3.53787e-08
1.35508e-07
-1.01246e-07
1.77103e-07
-1.81372e-07
2.18378e-07
-2.76927e-07
2.62101e-07
-3.88738e-07
3.10383e-07
-5.1721e-07
3.64297e-07
-6.62065e-07
4.23672e-07
-8.22134e-07
4.87302e-07
-9.94982e-07
5.53041e-07
-1.17708e-06
6.17846e-07
-1.36383e-06
6.77964e-07
-1.55074e-06
7.3086e-07
-1.73291e-06
7.73009e-07
-1.90526e-06
8.02357e-07
-2.06487e-06
8.18739e-07
-2.21097e-06
8.23025e-07
-2.34385e-06
8.16812e-07
-2.4643e-06
8.01675e-07
-2.57331e-06
7.79147e-07
-2.67177e-06
7.50534e-07
-2.7605e-06
7.16906e-07
-2.84022e-06
6.79156e-07
-2.91158e-06
6.37911e-07
-2.97519e-06
5.93764e-07
-3.03156e-06
5.47233e-07
-3.08109e-06
4.98726e-07
-3.12408e-06
4.48577e-07
-3.16068e-06
3.96992e-07
-3.19104e-06
3.4431e-07
-3.21525e-06
2.90615e-07
-3.2334e-06
2.35991e-07
-3.24527e-06
1.80148e-07
-3.25098e-06
1.2344e-07
-3.25044e-06
6.55017e-08
-3.24327e-06
5.87476e-09
-3.22966e-06
-5.48513e-08
-3.20894e-06
-1.17774e-07
-3.18065e-06
-1.82823e-07
-3.1443e-06
-2.5008e-07
-3.09931e-06
-3.19717e-07
-3.04493e-06
-3.91766e-07
-2.9804e-06
-4.65859e-07
-2.90487e-06
-5.41778e-07
-2.81759e-06
-6.1886e-07
-2.7181e-06
-6.96096e-07
-2.60582e-06
-7.72486e-07
-2.4801e-06
-8.46227e-07
-2.3408e-06
-9.15092e-07
-2.18794e-06
-9.77138e-07
-2.02209e-06
-1.02933e-06
-1.84466e-06
-1.06824e-06
-1.65712e-06
-1.09165e-06
-1.46212e-06
-1.09583e-06
-1.26262e-06
-1.07907e-06
-1.0624e-06
-1.03904e-06
-8.65969e-07
-9.75166e-07
-6.78726e-07
-8.88258e-07
-5.05149e-07
-7.81706e-07
-3.48607e-07
-6.59334e-07
-2.1196e-07
-5.25234e-07
-9.71996e-08
-3.84553e-07
-5.14153e-09
-2.4286e-07
6.45669e-08
-1.05561e-07
1.13138e-07
2.25358e-08
1.42258e-07
1.369e-07
1.52848e-07
2.3406e-07
1.45571e-07
3.0888e-07
1.20892e-07
3.5554e-07
8.10552e-08
3.67366e-07
3.22907e-08
3.30842e-07
1.8553e-07
3.75828e-08
-1.70422e-07
6.98951e-08
-2.77321e-07
8.32682e-08
-2.55679e-07
8.09232e-08
-1.95829e-07
6.67088e-08
-1.23837e-07
4.20146e-08
-5.04164e-08
7.14756e-09
2.03161e-08
-3.83708e-08
8.65668e-08
-9.55959e-08
1.48051e-07
-1.65934e-07
2.05846e-07
-2.50871e-07
2.62041e-07
-3.51669e-07
3.19176e-07
-4.69129e-07
3.79561e-07
-6.0341e-07
4.44664e-07
-7.53883e-07
5.14771e-07
-9.18928e-07
5.88716e-07
-1.09559e-06
6.63959e-07
-1.2797e-06
7.37152e-07
-1.46659e-06
8.04737e-07
-1.65122e-06
8.62593e-07
-1.82765e-06
9.07292e-07
-1.99196e-06
9.37323e-07
-2.14269e-06
9.53081e-07
-2.27995e-06
9.56004e-07
-2.40467e-06
9.47741e-07
-2.51786e-06
9.29999e-07
-2.62056e-06
9.04382e-07
-2.71376e-06
8.72342e-07
-2.79822e-06
8.34995e-07
-2.8746e-06
7.93285e-07
-2.94342e-06
7.47983e-07
-3.0052e-06
6.99686e-07
-3.06037e-06
6.48936e-07
-3.10929e-06
5.9615e-07
-3.15227e-06
5.41707e-07
-3.18959e-06
4.859e-07
-3.22121e-06
4.28606e-07
-3.24734e-06
3.70438e-07
-3.26811e-06
3.11389e-07
-3.28359e-06
2.51467e-07
-3.29402e-06
1.90583e-07
-3.29914e-06
1.28563e-07
-3.29891e-06
6.5263e-08
-3.29285e-06
-1.82931e-10
-3.28166e-06
-6.60414e-08
-3.26506e-06
-1.34374e-07
-3.24302e-06
-2.04867e-07
-3.21534e-06
-2.77753e-07
-3.18177e-06
-3.53294e-07
-3.14174e-06
-4.31796e-07
-3.09425e-06
-5.13345e-07
-3.0383e-06
-5.97728e-07
-2.97256e-06
-6.84602e-07
-2.89521e-06
-7.73442e-07
-2.8044e-06
-8.63301e-07
-2.69872e-06
-9.51907e-07
-2.57757e-06
-1.03624e-06
-2.44108e-06
-1.11363e-06
-2.28959e-06
-1.18082e-06
-2.12324e-06
-1.23458e-06
-1.94282e-06
-1.27207e-06
-1.75085e-06
-1.2878e-06
-1.54975e-06
-1.28017e-06
-1.34317e-06
-1.24562e-06
-1.13534e-06
-1.183e-06
-9.31666e-07
-1.09193e-06
-7.38605e-07
-9.74767e-07
-5.6101e-07
-8.36929e-07
-4.02492e-07
-6.83752e-07
-2.66087e-07
-5.20958e-07
-1.53612e-07
-3.55336e-07
-6.53437e-08
-1.93829e-07
-3.61545e-11
-4.27718e-08
4.39118e-08
9.29516e-08
6.92104e-08
2.08761e-07
7.73759e-08
3.00714e-07
6.92382e-08
3.63678e-07
4.70802e-08
3.89524e-07
1.72333e-08
3.60689e-07
2.02763e-07
3.26838e-08
-2.03106e-07
4.96244e-08
-2.94262e-07
4.68909e-08
-2.52945e-07
2.95095e-08
-1.78447e-07
1.28326e-09
-9.56108e-08
-3.71522e-08
-1.1981e-08
-8.62323e-08
6.93962e-08
-1.46906e-07
1.47241e-07
-2.2049e-07
2.21635e-07
-3.08403e-07
2.93759e-07
-4.11904e-07
3.65542e-07
-5.31817e-07
4.39088e-07
-6.68251e-07
5.15996e-07
-8.20481e-07
5.96893e-07
-9.86689e-07
6.80979e-07
-1.16358e-06
7.65609e-07
-1.34672e-06
8.47098e-07
-1.53116e-06
9.21594e-07
-1.71085e-06
9.84428e-07
-1.8806e-06
1.03234e-06
-2.03739e-06
1.06409e-06
-2.1807e-06
1.08063e-06
-2.31101e-06
1.08338e-06
-2.42928e-06
1.07428e-06
-2.5366e-06
1.05506e-06
-2.63408e-06
1.02747e-06
-2.72262e-06
9.92923e-07
-2.80294e-06
9.52662e-07
-2.8756e-06
9.07654e-07
-2.94106e-06
8.58752e-07
-2.99973e-06
8.06648e-07
-3.05196e-06
7.51923e-07
-3.09808e-06
6.95055e-07
-3.13828e-06
6.36341e-07
-3.17277e-06
5.76203e-07
-3.20211e-06
5.1524e-07
-3.22706e-06
4.53554e-07
-3.2477e-06
3.91076e-07
-3.26403e-06
3.27724e-07
-3.2759e-06
2.63334e-07
-3.28351e-06
1.98193e-07
-3.28675e-06
1.31803e-07
-3.28568e-06
6.41927e-08
-3.28055e-06
-5.31432e-09
-3.27119e-06
-7.53975e-08
-3.25779e-06
-1.47778e-07
-3.24019e-06
-2.22467e-07
-3.21819e-06
-2.99749e-07
-3.19159e-06
-3.79892e-07
-3.16023e-06
-4.63152e-07
-3.12377e-06
-5.49813e-07
-3.08173e-06
-6.39763e-07
-3.03345e-06
-7.32889e-07
-2.97815e-06
-8.28741e-07
-2.91477e-06
-9.26682e-07
-2.84056e-06
-1.02611e-06
-2.75152e-06
-1.12528e-06
-2.64387e-06
-1.22128e-06
-2.51604e-06
-1.30865e-06
-2.36876e-06
-1.38186e-06
-2.20408e-06
-1.43675e-06
-2.02252e-06
-1.46936e-06
-1.82625e-06
-1.47644e-06
-1.61874e-06
-1.45313e-06
-1.40397e-06
-1.39777e-06
-1.1868e-06
-1.3091e-06
-9.74467e-07
-1.1871e-06
-7.74486e-07
-1.03691e-06
-5.9222e-07
-8.66018e-07
-4.31593e-07
-6.81585e-07
-2.95777e-07
-4.91151e-07
-1.86329e-07
-3.03277e-07
-1.02929e-07
-1.26172e-07
-4.3236e-08
3.32591e-08
-4.12521e-09
1.69651e-07
1.71174e-08
2.79471e-07
2.29069e-08
3.57888e-07
1.62526e-08
3.96179e-07
3.59505e-09
3.73347e-07
2.06358e-07
2.34047e-08
-2.26511e-07
2.35743e-08
-2.94431e-07
4.13334e-09
-2.33504e-07
-2.77096e-08
-1.46604e-07
-6.99359e-08
-5.33845e-08
-1.22479e-07
4.05623e-08
-1.86152e-07
1.33069e-07
-2.62191e-07
2.2328e-07
-3.5192e-07
3.11364e-07
-4.56526e-07
3.98365e-07
-5.76811e-07
4.85828e-07
-7.12908e-07
5.75185e-07
-8.64164e-07
6.67253e-07
-1.02884e-06
7.61565e-07
-1.20346e-06
8.55605e-07
-1.38347e-06
9.45614e-07
-1.5636e-06
1.02723e-06
-1.73771e-06
1.0957e-06
-1.9011e-06
1.14782e-06
-2.05161e-06
1.18285e-06
-2.18884e-06
1.20132e-06
-2.31337e-06
1.20516e-06
-2.4262e-06
1.19621e-06
-2.52844e-06
1.17652e-06
-2.62111e-06
1.14773e-06
-2.70505e-06
1.11142e-06
-2.78092e-06
1.06879e-06
-2.84922e-06
1.02095e-06
-2.91035e-06
9.68789e-07
-2.9647e-06
9.13101e-07
-3.01261e-06
8.54558e-07
-3.05444e-06
7.93753e-07
-3.09065e-06
7.31269e-07
-3.12191e-06
6.67597e-07
-3.14868e-06
6.02976e-07
-3.17078e-06
5.37339e-07
-3.18835e-06
4.71121e-07
-3.20139e-06
4.04122e-07
-3.21017e-06
3.36498e-07
-3.21518e-06
2.68346e-07
-3.21674e-06
1.9975e-07
-3.21527e-06
1.30342e-07
-3.21105e-06
5.99732e-08
-3.20461e-06
-1.17627e-08
-3.19538e-06
-8.46285e-08
-3.18359e-06
-1.59568e-07
-3.16929e-06
-2.36766e-07
-3.15245e-06
-3.16582e-07
-3.133e-06
-3.99347e-07
-3.11073e-06
-4.85423e-07
-3.08538e-06
-5.7516e-07
-3.0564e-06
-6.68739e-07
-3.02307e-06
-7.66225e-07
-2.98441e-06
-8.67397e-07
-2.93955e-06
-9.71541e-07
-2.88753e-06
-1.07813e-06
-2.82697e-06
-1.18585e-06
-2.75581e-06
-1.29244e-06
-2.66852e-06
-1.39594e-06
-2.55778e-06
-1.49261e-06
-2.42116e-06
-1.57336e-06
-2.25996e-06
-1.63057e-06
-2.0785e-06
-1.6579e-06
-1.87832e-06
-1.65331e-06
-1.6639e-06
-1.61219e-06
-1.43952e-06
-1.53348e-06
-1.21166e-06
-1.41497e-06
-9.89415e-07
-1.25915e-06
-7.81824e-07
-1.07361e-06
-5.9488e-07
-8.68529e-07
-4.32812e-07
-6.53219e-07
-2.9883e-07
-4.37259e-07
-1.93969e-07
-2.31034e-07
-1.16854e-07
-4.38558e-08
-6.40242e-08
1.16821e-07
-3.08456e-08
2.46293e-07
-1.33969e-08
3.40439e-07
-6.7363e-09
3.89518e-07
-5.16965e-09
3.7178e-07
2.01188e-07
1.10351e-08
-2.37546e-07
-6.49779e-09
-2.76898e-07
-4.15679e-08
-1.98434e-07
-8.79684e-08
-1.00204e-07
-1.44263e-07
2.9103e-09
-2.10879e-07
1.07178e-07
-2.88996e-07
2.11187e-07
-3.79886e-07
3.14169e-07
-4.84668e-07
4.16147e-07
-6.04107e-07
5.17804e-07
-7.38368e-07
6.20088e-07
-8.86932e-07
7.23749e-07
-1.04827e-06
8.28592e-07
-1.21906e-06
9.32351e-07
-1.3946e-06
1.03114e-06
-1.56949e-06
1.12051e-06
-1.73806e-06
1.19581e-06
-1.89597e-06
1.25361e-06
-2.04122e-06
1.29308e-06
-2.17332e-06
1.31495e-06
-2.2929e-06
1.3209e-06
-2.40094e-06
1.3132e-06
-2.49853e-06
1.2938e-06
-2.58657e-06
1.26456e-06
-2.66583e-06
1.22699e-06
-2.73688e-06
1.18247e-06
-2.80018e-06
1.1321e-06
-2.85617e-06
1.07694e-06
-2.90523e-06
1.01785e-06
-2.9478e-06
9.5567e-07
-2.98432e-06
8.91083e-07
-3.01527e-06
8.24702e-07
-3.04099e-06
7.56981e-07
-3.0617e-06
6.88313e-07
-3.07772e-06
6.1899e-07
-3.08952e-06
5.49143e-07
-3.09753e-06
4.79132e-07
-3.10235e-06
4.08939e-07
-3.10447e-06
3.38618e-07
-3.10419e-06
2.68071e-07
-3.10162e-06
1.97179e-07
-3.097e-06
1.25716e-07
-3.09049e-06
5.34706e-08
-3.0824e-06
-1.98575e-08
-3.07257e-06
-9.44524e-08
-3.06131e-06
-1.70837e-07
-3.04874e-06
-2.49329e-07
-3.035e-06
-3.30328e-07
-3.02012e-06
-4.1422e-07
-3.00412e-06
-5.01424e-07
-2.98694e-06
-5.9234e-07
-2.96838e-06
-6.87307e-07
-2.94804e-06
-7.86565e-07
-2.92528e-06
-8.90152e-07
-2.89895e-06
-9.97872e-07
-2.86769e-06
-1.10939e-06
-2.82977e-06
-1.22377e-06
-2.78326e-06
-1.33895e-06
-2.72611e-06
-1.45309e-06
-2.65583e-06
-1.56289e-06
-2.56514e-06
-1.66406e-06
-2.44411e-06
-1.75159e-06
-2.29096e-06
-1.81105e-06
-2.1094e-06
-1.83487e-06
-1.90545e-06
-1.81615e-06
-1.68289e-06
-1.75604e-06
-1.44754e-06
-1.65031e-06
-1.20772e-06
-1.49897e-06
-9.74729e-07
-1.30661e-06
-7.59425e-07
-1.08383e-06
-5.68558e-07
-8.44086e-07
-4.06593e-07
-5.99224e-07
-2.76491e-07
-3.61136e-07
-1.78353e-07
-1.41994e-07
-1.09423e-07
4.78906e-08
-6.4317e-08
2.01187e-07
-3.70674e-08
3.1319e-07
-2.01299e-08
3.72581e-07
-9.18275e-09
3.60833e-07
1.92006e-07
-3.12795e-09
-2.34418e-07
-3.78233e-08
-2.42203e-07
-8.84345e-08
-1.47823e-07
-1.49058e-07
-3.95808e-08
-2.19033e-07
7.28855e-08
-2.99331e-07
1.87476e-07
-3.91181e-07
3.03037e-07
-4.95728e-07
4.18716e-07
-6.13737e-07
5.34156e-07
-7.45419e-07
6.49486e-07
-8.90385e-07
7.65054e-07
-1.04738e-06
8.80743e-07
-1.21338e-06
9.94594e-07
-1.38378e-06
1.10275e-06
-1.5533e-06
1.20066e-06
-1.7167e-06
1.2839e-06
-1.86984e-06
1.34896e-06
-2.01059e-06
1.39436e-06
-2.1384e-06
1.42088e-06
-2.25368e-06
1.43023e-06
-2.35746e-06
1.42468e-06
-2.45067e-06
1.40642e-06
-2.53418e-06
1.3773e-06
-2.60862e-06
1.339e-06
-2.67453e-06
1.2929e-06
-2.73234e-06
1.24028e-06
-2.7825e-06
1.18226e-06
-2.82546e-06
1.11989e-06
-2.86172e-06
1.05412e-06
-2.89182e-06
9.85767e-07
-2.91629e-06
9.15557e-07
-2.93567e-06
8.44078e-07
-2.95047e-06
7.71787e-07
-2.96123e-06
6.9907e-07
-2.96844e-06
6.26204e-07
-2.97268e-06
5.53376e-07
-2.9743e-06
4.80757e-07
-2.97368e-06
4.08322e-07
-2.97109e-06
3.36026e-07
-2.96676e-06
2.63735e-07
-2.96086e-06
1.91284e-07
-2.9536e-06
1.18451e-07
-2.94513e-06
4.50009e-08
-2.93564e-06
-2.93402e-08
-2.92523e-06
-1.04865e-07
-2.9141e-06
-1.81963e-07
-2.90245e-06
-2.60983e-07
-2.89045e-06
-3.42326e-07
-2.87828e-06
-4.26396e-07
-2.86607e-06
-5.13624e-07
-2.85398e-06
-6.04439e-07
-2.84203e-06
-6.99251e-07
-2.83018e-06
-7.98414e-07
-2.81815e-06
-9.02188e-07
-2.8053e-06
-1.01072e-06
-2.79074e-06
-1.12396e-06
-2.77308e-06
-1.24142e-06
-2.74998e-06
-1.36206e-06
-2.71876e-06
-1.48431e-06
-2.67643e-06
-1.60522e-06
-2.6197e-06
-1.72079e-06
-2.54448e-06
-1.82681e-06
-2.43937e-06
-1.91616e-06
-2.29585e-06
-1.97838e-06
-2.11543e-06
-1.99657e-06
-1.90681e-06
-1.96466e-06
-1.67464e-06
-1.88249e-06
-1.42697e-06
-1.74664e-06
-1.17429e-06
-1.55928e-06
-9.30447e-07
-1.32768e-06
-7.08293e-07
-1.06624e-06
-5.15344e-07
-7.92174e-07
-3.5604e-07
-5.20439e-07
-2.32634e-07
-2.654e-07
-1.43746e-07
-4.09976e-08
-8.45417e-08
1.41983e-07
-4.7629e-08
2.76277e-07
-2.39497e-08
3.48901e-07
-8.53631e-09
3.4542e-07
1.83469e-07
-1.82865e-08
-2.16131e-07
-6.96813e-08
-1.90808e-07
-1.34835e-07
-8.26685e-08
-2.08933e-07
3.45163e-08
-2.91941e-07
1.55894e-07
-3.85009e-07
2.80544e-07
-4.89344e-07
4.07372e-07
-6.05809e-07
5.35181e-07
-7.34713e-07
6.6306e-07
-8.75791e-07
7.90564e-07
-1.02804e-06
9.17307e-07
-1.18885e-06
1.04155e-06
-1.3539e-06
1.15965e-06
-1.51817e-06
1.26702e-06
-1.67684e-06
1.35933e-06
-1.82594e-06
1.433e-06
-1.96296e-06
1.48598e-06
-2.08714e-06
1.51854e-06
-2.1988e-06
1.53255e-06
-2.29879e-06
1.53022e-06
-2.38802e-06
1.51391e-06
-2.46722e-06
1.48561e-06
-2.53698e-06
1.44707e-06
-2.59779e-06
1.39981e-06
-2.65013e-06
1.34523e-06
-2.69449e-06
1.28464e-06
-2.73145e-06
1.21922e-06
-2.76163e-06
1.15008e-06
-2.78573e-06
1.07821e-06
-2.80442e-06
1.00445e-06
-2.81837e-06
9.2951e-07
-2.82823e-06
8.53935e-07
-2.83459e-06
7.78154e-07
-2.83801e-06
7.0249e-07
-2.83896e-06
6.27152e-07
-2.83785e-06
5.52261e-07
-2.83496e-06
4.77865e-07
-2.83053e-06
4.03896e-07
-2.82476e-06
3.30252e-07
-2.8178e-06
2.5678e-07
-2.80981e-06
1.83295e-07
-2.80093e-06
1.09572e-07
-2.7913e-06
3.53674e-08
-2.78105e-06
-3.95884e-08
-2.77032e-06
-1.15595e-07
-2.75929e-06
-1.92991e-07
-2.74816e-06
-2.72119e-07
-2.73713e-06
-3.53356e-07
-2.72643e-06
-4.37095e-07
-2.7163e-06
-5.23754e-07
-2.70698e-06
-6.13763e-07
-2.69867e-06
-7.07555e-07
-2.69154e-06
-8.05546e-07
-2.68561e-06
-9.08118e-07
-2.68073e-06
-1.01559e-06
-2.67653e-06
-1.12816e-06
-2.6722e-06
-1.24575e-06
-2.66625e-06
-1.368e-06
-2.6566e-06
-1.49396e-06
-2.64e-06
-1.62182e-06
-2.61205e-06
-1.74873e-06
-2.56881e-06
-1.87005e-06
-2.50486e-06
-1.98012e-06
-2.41225e-06
-2.07099e-06
-2.2766e-06
-2.13221e-06
-2.09714e-06
-2.14412e-06
-1.88221e-06
-2.09741e-06
-1.63876e-06
-1.99008e-06
-1.37752e-06
-1.82053e-06
-1.11172e-06
-1.59348e-06
-8.58022e-07
-1.31993e-06
-6.31292e-07
-1.0189e-06
-4.39484e-07
-7.12248e-07
-2.86603e-07
-4.1828e-07
-1.73389e-07
-1.54212e-07
-9.6389e-08
6.49826e-08
-4.8249e-08
2.28137e-07
-1.98562e-08
3.20509e-07
-4.30102e-09
3.29864e-07
1.79168e-07
-3.3444e-08
-1.82687e-07
-1.00338e-07
-1.23915e-07
-1.79129e-07
-3.87738e-09
-2.65762e-07
1.2115e-07
-3.60771e-07
2.50903e-07
-4.65339e-07
3.85112e-07
-5.80518e-07
5.2255e-07
-7.06818e-07
6.61482e-07
-8.44134e-07
8.00376e-07
-9.9169e-07
9.38119e-07
-1.14726e-06
1.07288e-06
-1.30704e-06
1.20132e-06
-1.46638e-06
1.31899e-06
-1.6208e-06
1.42145e-06
-1.76647e-06
1.50499e-06
-1.90056e-06
1.56709e-06
-2.02188e-06
1.6073e-06
-2.13061e-06
1.62727e-06
-2.22745e-06
1.62938e-06
-2.3132e-06
1.61597e-06
-2.38855e-06
1.58927e-06
-2.45406e-06
1.55112e-06
-2.51022e-06
1.50322e-06
-2.55755e-06
1.44714e-06
-2.59667e-06
1.38435e-06
-2.62827e-06
1.31624e-06
-2.65315e-06
1.24409e-06
-2.67211e-06
1.16905e-06
-2.68598e-06
1.09208e-06
-2.69553e-06
1.01401e-06
-2.70147e-06
9.35451e-07
-2.70444e-06
8.56897e-07
-2.70497e-06
7.78684e-07
-2.70351e-06
7.01035e-07
-2.70043e-06
6.24072e-07
-2.696e-06
5.47831e-07
-2.69042e-06
4.72279e-07
-2.68383e-06
3.9731e-07
-2.67636e-06
3.22784e-07
-2.66811e-06
2.48531e-07
-2.65917e-06
1.74354e-07
-2.64963e-06
1.00029e-07
-2.63958e-06
2.53167e-08
-2.62912e-06
-5.00438e-08
-2.61839e-06
-1.26331e-07
-2.60753e-06
-2.03849e-07
-2.59673e-06
-2.82915e-07
-2.58622e-06
-3.63869e-07
-2.57624e-06
-4.47074e-07
-2.56708e-06
-5.32917e-07
-2.55903e-06
-6.21808e-07
-2.55241e-06
-7.14173e-07
-2.54751e-06
-8.10452e-07
-2.54454e-06
-9.11084e-07
-2.54365e-06
-1.01649e-06
-2.54479e-06
-1.12702e-06
-2.54766e-06
-1.24288e-06
-2.55155e-06
-1.36411e-06
-2.55519e-06
-1.49032e-06
-2.55639e-06
-1.62062e-06
-2.55187e-06
-1.75325e-06
-2.53679e-06
-1.88513e-06
-2.50536e-06
-2.01155e-06
-2.45146e-06
-2.12489e-06
-2.36632e-06
-2.21735e-06
-2.23579e-06
-2.27466e-06
-2.05517e-06
-2.27802e-06
-1.83173e-06
-2.21353e-06
-1.5752e-06
-2.07706e-06
-1.29956e-06
-1.86912e-06
-1.02135e-06
-1.59815e-06
-7.60402e-07
-1.27985e-06
-5.33222e-07
-9.39428e-07
-3.47495e-07
-6.04007e-07
-2.06069e-07
-2.95638e-07
-1.07409e-07
-3.36775e-08
-4.54913e-08
1.66219e-07
-1.1926e-08
2.86943e-07
1.86497e-09
3.16073e-07
1.81033e-07
-4.78973e-08
-1.3479e-07
-1.28896e-07
-4.29157e-08
-2.1989e-07
8.71163e-08
-3.17976e-07
2.19236e-07
-4.23665e-07
3.56591e-07
-5.38164e-07
4.99611e-07
-6.62298e-07
6.46685e-07
-7.96239e-07
7.95422e-07
-9.3943e-07
9.43567e-07
-1.09003e-06
1.08872e-06
-1.24478e-06
1.22763e-06
-1.39961e-06
1.35615e-06
-1.5503e-06
1.46968e-06
-1.69311e-06
1.56425e-06
-1.82501e-06
1.6369e-06
-1.94433e-06
1.68641e-06
-2.05092e-06
1.71388e-06
-2.14535e-06
1.7217e-06
-2.22833e-06
1.71236e-06
-2.30052e-06
1.68816e-06
-2.36247e-06
1.65122e-06
-2.4147e-06
1.60335e-06
-2.45782e-06
1.54634e-06
-2.49255e-06
1.48187e-06
-2.51971e-06
1.41152e-06
-2.54025e-06
1.33677e-06
-2.5551e-06
1.25894e-06
-2.56518e-06
1.17913e-06
-2.57135e-06
1.09825e-06
-2.57436e-06
1.01702e-06
-2.57486e-06
9.35952e-07
-2.57339e-06
8.55421e-07
-2.57036e-06
7.75656e-07
-2.5661e-06
6.96781e-07
-2.56086e-06
6.18832e-07
-2.5548e-06
5.4177e-07
-2.54803e-06
4.65503e-07
-2.54062e-06
3.89899e-07
-2.53262e-06
3.14794e-07
-2.52409e-06
2.39996e-07
-2.51505e-06
1.65311e-07
-2.50554e-06
9.05222e-08
-2.49563e-06
1.54017e-08
-2.48537e-06
-6.02983e-08
-2.47488e-06
-1.36824e-07
-2.46428e-06
-2.14445e-07
-2.45376e-06
-2.93442e-07
-2.44351e-06
-3.74114e-07
-2.4338e-06
-4.56783e-07
-2.42493e-06
-5.41791e-07
-2.41723e-06
-6.29511e-07
-2.41106e-06
-7.20341e-07
-2.4068e-06
-8.14712e-07
-2.4048e-06
-9.1308e-07
-2.40538e-06
-1.01592e-06
-2.40872e-06
-1.12367e-06
-2.41484e-06
-1.23676e-06
-2.42348e-06
-1.35547e-06
-2.43396e-06
-1.47984e-06
-2.44502e-06
-1.60957e-06
-2.45453e-06
-1.74374e-06
-2.45914e-06
-1.88052e-06
-2.45399e-06
-2.0167e-06
-2.43181e-06
-2.14707e-06
-2.38539e-06
-2.26378e-06
-2.30453e-06
-2.35551e-06
-2.17498e-06
-2.40757e-06
-1.99007e-06
-2.39844e-06
-1.75547e-06
-2.31166e-06
-1.48428e-06
-2.14031e-06
-1.1942e-06
-1.88822e-06
-9.05773e-07
-1.56828e-06
-6.42396e-07
-1.20281e-06
-4.21118e-07
-8.25285e-07
-2.48419e-07
-4.68336e-07
-1.24905e-07
-1.57192e-07
-4.62096e-08
8.7524e-08
-5.29387e-09
2.46028e-07
7.38287e-09
3.03397e-07
1.88416e-07
-6.10492e-08
-7.37406e-08
-1.54333e-07
5.03684e-08
-2.56332e-07
1.89115e-07
-3.64381e-07
3.27285e-07
-4.79186e-07
4.71396e-07
-6.01845e-07
6.22271e-07
-7.32951e-07
7.7779e-07
-8.72262e-07
9.34734e-07
-1.01832e-06
1.08962e-06
-1.16842e-06
1.23883e-06
-1.31919e-06
1.3784e-06
-1.46665e-06
1.50361e-06
-1.60714e-06
1.61017e-06
-1.73753e-06
1.69465e-06
-1.85571e-06
1.75507e-06
-1.96106e-06
1.79175e-06
-2.05395e-06
1.80677e-06
-2.13502e-06
1.80278e-06
-2.20491e-06
1.78225e-06
-2.26419e-06
1.74744e-06
-2.31342e-06
1.70045e-06
-2.35328e-06
1.64322e-06
-2.3846e-06
1.57767e-06
-2.40835e-06
1.50561e-06
-2.42556e-06
1.42873e-06
-2.4373e-06
1.34851e-06
-2.44457e-06
1.26621e-06
-2.44829e-06
1.18285e-06
-2.44925e-06
1.09921e-06
-2.4481e-06
1.01587e-06
-2.44537e-06
9.33223e-07
-2.44146e-06
8.51517e-07
-2.43668e-06
7.70875e-07
-2.43123e-06
6.91331e-07
-2.42524e-06
6.12843e-07
-2.41879e-06
5.35318e-07
-2.41191e-06
4.58622e-07
-2.40461e-06
3.826e-07
-2.3969e-06
3.07077e-07
-2.38875e-06
2.31852e-07
-2.38017e-06
1.56728e-07
-2.37116e-06
8.15108e-08
-2.36174e-06
5.98804e-09
-2.35197e-06
-7.0075e-08
-2.34191e-06
-1.46884e-07
-2.33167e-06
-2.24677e-07
-2.32142e-06
-3.03695e-07
-2.31134e-06
-3.84193e-07
-2.30168e-06
-4.66444e-07
-2.29273e-06
-5.50743e-07
-2.28483e-06
-6.3741e-07
-2.27837e-06
-7.26804e-07
-2.27376e-06
-8.19318e-07
-2.27145e-06
-9.15392e-07
-2.27186e-06
-1.01551e-06
-2.27535e-06
-1.12018e-06
-2.28219e-06
-1.22993e-06
-2.29242e-06
-1.34523e-06