# vtk DataFile Version 2.0
tracks
ASCII
DATASET POLYDATA
POINTS 12025 float
-0.0206 0.000999967 1e-05 -0.02058 0.00099997 1e-05 -0.02056 0.000999974 1e-05 -0.02054 0.00099998
1e-05 -0.02052 0.000999989 1e-05 -0.0205 0.001 1e-05 -0.0202034 0.00100016 1e-05
-0.0199069 0.00100061 1e-05 -0.0196103 0.00100134 1e-05 -0.0193137 0.00100234 1e-05 -0.0190172
0.00100361 1e-05 -0.0187132 0.00100515 1e-05 -0.0184093 0.0010068 1e-05 -0.0181054 0.00100854
1e-05 -0.0178015 0.00101036 1e-05 -0.0174976 0.00101227 1e-05 -0.0172058 0.00101417 1e-05
-0.016914 0.0010161 1e-05 -0.0166222 0.00101805 1e-05 -0.0163305 0.00102004 1e-05 -0.0160387
0.00102205 1e-05 -0.0159024 0.001023 1e-05 -0.0157661 0.00102396 1e-05 -0.0156298 0.00102493
1e-05 -0.0154935 0.0010259 1e-05 -0.0153646 0.00102682 1e-05 -0.0152193 0.00102786 1e-05
-0.015074 0.00102891 1e-05 -0.0149287 0.00102997 1e-05 -0.0147834 0.00103103 1e-05 -0.0146381
0.0010321 1e-05 -0.0143692 0.00103409 1e-05 -0.0141002 0.00103608 1e-05 -0.0138313 0.00103809
1e-05 -0.0135624 0.0010401 1e-05 -0.0132934 0.00104211 1e-05 -0.0130353 0.00104406 1e-05
-0.0127771 0.00104599 1e-05 -0.0125189 0.00104792 1e-05 -0.0122607 0.00104985 1e-05 -0.0120025
0.00105177 1e-05 -0.0117547 0.0010536 1e-05 -0.0115068 0.00105543 1e-05 -0.0112589 0.00105725
1e-05 -0.0110111 0.00105906 1e-05 -0.0107632 0.00106087 1e-05 -0.0105252 0.00106259 1e-05
-0.0102873 0.0010643 1e-05 -0.0100493 0.00106599 1e-05 -0.00981133 0.00106767 1e-05 -0.00957337
0.00106934 1e-05 -0.00934491 0.00107093 1e-05 -0.00911645 0.0010725 1e-05 -0.00888799 0.00107406
1e-05 -0.00865954 0.0010756 1e-05 -0.00843108 0.00107714 1e-05 -0.00821175 0.0010786 1e-05
-0.00799242 0.00108006 1e-05 -0.00777309 0.0010815 1e-05 -0.00755376 0.00108294 1e-05 -0.00733443
0.00108438 1e-05 -0.00712387 0.00108575 1e-05 -0.0069133 0.00108712 1e-05 -0.00670273 0.00108847
1e-05 -0.00649216 0.00108982 1e-05 -0.0062816 0.00109116 1e-05 -0.00607944 0.00109245 1e-05
-0.00587729 0.00109372 1e-05 -0.00567514 0.00109497 1e-05 -0.00547298 0.00109622 1e-05 -0.00527083
0.00109745 1e-05 -0.00507675 0.00109863 1e-05 -0.00488267 0.0010998 1e-05 -0.0046886 0.00110095
1e-05 -0.00449452 0.00110209 1e-05 -0.00430044 0.00110322 1e-05 -0.00411412 0.0011043 1e-05
-0.0039278 0.00110536 1e-05 -0.00374147 0.00110641 1e-05 -0.00355515 0.00110746 1e-05 -0.00336883
0.00110849 1e-05 -0.00318995 0.00110949 1e-05 -0.00301107 0.00111046 1e-05 -0.00283219 0.00111143
1e-05 -0.00265331 0.00111238 1e-05 -0.00247443 0.00111332 1e-05 -0.0023027 0.00111422 1e-05
-0.00213097 0.00111509 1e-05 -0.00195924 0.00111595 1e-05 -0.0017875 0.00111679 1e-05 -0.00161577
0.00111761 1e-05 -0.0014509 0.00111839 1e-05 -0.00128603 0.00111914 1e-05 -0.00112116 0.00111988
1e-05 -0.000956289 0.0011206 1e-05 -0.000791418 0.0011213 1e-05 -0.000633135 0.00112196 1e-05
-0.000474851 0.0011226 1e-05 -0.000316567 0.00112323 1e-05 -0.000158283 0.00112384 1e-05 0
0.00112443 1e-05 0.000105677 0.00112482 1e-05 0.000211355 0.0011252 1e-05 0.000317032 0.00112558
1e-05 0.00042271 0.00112594 1e-05 0.000528387 0.0011263 1e-05 0.000634886 0.00112666 1e-05
0.000741385 0.00112701 1e-05 0.000847885 0.00112736 1e-05 0.000954384 0.0011277 1e-05 0.00106088
0.00112804 1e-05 0.00116821 0.00112839 1e-05 0.00127554 0.00112872 1e-05 0.00138286 0.00112905
1e-05 0.00149019 0.00112937 1e-05 0.00159752 0.00112969 1e-05 0.00170568 0.00113001 1e-05
0.00181384 0.00113032 1e-05 0.001922 0.00113061 1e-05 0.00203016 0.00113089 1e-05 0.00213833
0.00113116 1e-05 0.00224733 0.00113143 1e-05 0.00235633 0.00113168 1e-05 0.00246533 0.00113191
1e-05 0.00257434 0.00113214 1e-05 0.00268334 0.00113235 1e-05 0.00279319 0.00113255 1e-05
0.00290304 0.00113273 1e-05 0.00301289 0.00113291 1e-05 0.00312274 0.00113307 1e-05 0.00323259
0.00113321 1e-05 0.00334329 0.00113335 1e-05 0.003454 0.00113348 1e-05 0.0035647 0.00113359
1e-05 0.0036754 0.00113369 1e-05 0.00378611 0.00113378 1e-05 0.00389767 0.00113386 1e-05
0.00400924 0.00113393 1e-05 0.0041208 0.00113399 1e-05 0.00423237 0.00113404 1e-05 0.00434393
0.00113408 1e-05 0.00445636 0.00113411 1e-05 0.00456879 0.00113413 1e-05 0.00468123 0.00113414
1e-05 0.00479366 0.00113415 1e-05 0.00490609 0.00113415 1e-05 0.0050194 0.00113414 1e-05
0.0051327 0.00113412 1e-05 0.00524601 0.0011341 1e-05 0.00535931 0.00113408 1e-05 0.00547262
0.00113404 1e-05 0.00558681 0.00113401 1e-05 0.005701 0.00113396 1e-05 0.00581518 0.00113392
1e-05 0.00592937 0.00113387 1e-05 0.00604356 0.00113382 1e-05 0.00615863 0.00113376 1e-05
0.00627371 0.0011337 1e-05 0.00638878 0.00113364 1e-05 0.00650386 0.00113357 1e-05 0.00661893
0.00113351 1e-05 0.0067349 0.00113344 1e-05 0.00685087 0.00113336 1e-05 0.00696684 0.00113329
1e-05 0.00708281 0.00113322 1e-05 0.00719878 0.00113314 1e-05 0.00731565 0.00113306 1e-05
0.00743252 0.00113298 1e-05 0.00754939 0.0011329 1e-05 0.00766626 0.00113282 1e-05 0.00778313
0.00113274 1e-05 0.00790091 0.00113265 1e-05 0.00801869 0.00113257 1e-05 0.00813647 0.00113249
1e-05 0.00825425 0.0011324 1e-05 0.00837203 0.00113232 1e-05 0.00849073 0.00113223 1e-05
0.00860942 0.00113214 1e-05 0.00872812 0.00113205 1e-05 0.00884682 0.00113196 1e-05 0.00896551
0.00113187 1e-05 0.00900401 0.00113185 1e-05 0.00904252 0.00113182 1e-05 0.00908102 0.00113179
1e-05 0.00911952 0.00113176 1e-05 0.00915798 0.00113173 1e-05 0.0092391 0.00113166 1e-05
0.00932023 0.0011316 1e-05 0.00940135 0.00113154 1e-05 0.00948248 0.00113147 1e-05 0.0095636
0.00113141 1e-05 0.00968415 0.00113131 1e-05 0.0098047 0.00113121 1e-05 0.00992525 0.0011311
1e-05 0.0100458 0.001131 1e-05 0.0101663 0.00113089 1e-05 0.0102878 0.00113077 1e-05
0.0104093 0.00113066 1e-05 0.0105308 0.00113055 1e-05 0.0106523 0.00113043 1e-05 0.0107738
0.0011303 1e-05 0.0108962 0.00113016 1e-05 0.0110186 0.00113003 1e-05 0.0111411 0.00112989
1e-05 0.0112635 0.00112975 1e-05 0.0113859 0.0011296 1e-05 0.0115093 0.00112943 1e-05
0.0116327 0.00112926 1e-05 0.0117561 0.0011291 1e-05 0.0118795 0.00112892 1e-05 0.0120028
0.00112874 1e-05 0.0121272 0.00112853 1e-05 0.0122515 0.00112833 1e-05 0.0123759 0.00112812
1e-05 0.0125002 0.0011279 1e-05 0.0126245 0.00112767 1e-05 0.0127498 0.00112742 1e-05
0.0128752 0.00112716 1e-05 0.0130005 0.0011269 1e-05 0.0131258 0.00112663 1e-05 0.0132511
0.00112635 1e-05 0.0133774 0.00112604 1e-05 0.0135036 0.00112573 1e-05 0.0136299 0.00112541
1e-05 0.0137562 0.00112507 1e-05 0.0138825 0.00112472 1e-05 0.0140098 0.00112435 1e-05
0.014137 0.00112397 1e-05 0.0142643 0.00112357 1e-05 0.0143915 0.00112317 1e-05 0.0145188
0.00112275 1e-05 0.0146471 0.0011223 1e-05 0.0147753 0.00112184 1e-05 0.0149036 0.00112137
1e-05 0.0150318 0.00112088 1e-05 0.0151601 0.00112038 1e-05 0.0152893 0.00111985 1e-05
0.0154186 0.00111931 1e-05 0.0155478 0.00111875 1e-05 0.0156771 0.00111818 1e-05 0.0158063
0.00111759 1e-05 0.0159366 0.00111698 1e-05 0.0160668 0.00111635 1e-05 0.0161971 0.00111571
1e-05 0.0163273 0.00111505 1e-05 0.0164576 0.00111437 1e-05 0.0165889 0.00111367 1e-05
0.0167201 0.00111296 1e-05 0.0168514 0.00111222 1e-05 0.0169827 0.00111147 1e-05 0.0171139
0.0011107 1e-05 0.0172462 0.00110992 1e-05 0.0173785 0.00110912 1e-05 0.0175108 0.00110829
1e-05 0.0176431 0.00110745 1e-05 0.0177754 0.0011066 1e-05 0.0179087 0.00110573 1e-05
0.018042 0.00110484 1e-05 0.0181753 0.00110393 1e-05 0.0183087 0.001103 1e-05 0.018442
0.00110207 1e-05 0.0185763 0.00110113 1e-05 0.0187107 0.00110016 1e-05 0.018845 0.00109916
1e-05 0.0189794 0.00109815 1e-05 0.0191137 0.00109714 1e-05 0.0192491 0.00109612 1e-05
0.0193845 0.00109507 1e-05 0.0195199 0.001094 1e-05 0.0196553 0.00109291 1e-05 0.0197907
0.00109183 1e-05 0.0199272 0.00109075 1e-05 0.0200636 0.00108963 1e-05 0.0202001 0.00108848
1e-05 0.0203365 0.00108732 1e-05 0.020473 0.00108618 1e-05 0.0206105 0.00108503 1e-05
0.020748 0.00108386 1e-05 0.0208855 0.00108265 1e-05 0.021023 0.00108143 1e-05 0.0211606
0.00108022 1e-05 0.0212991 0.00107903 1e-05 0.0214377 0.0010778 1e-05 0.0215763 0.00107654
1e-05 0.0217149 0.00107526 1e-05 0.0218535 0.00107401 1e-05 0.0219931 0.00107278 1e-05
0.0221328 0.00107151 1e-05 0.0222724 0.0010702 1e-05 0.0224121 0.00106888 1e-05 0.0225517
0.00106759 1e-05 0.0226925 0.00106632 1e-05 0.0228332 0.00106502 1e-05 0.022974 0.00106367
1e-05 0.0231147 0.00106232 1e-05 0.0232555 0.001061 1e-05 0.0233973 0.0010597 1e-05
0.0235391 0.00105836 1e-05 0.023681 0.00105699 1e-05 0.0238228 0.00105561 1e-05 0.0239647
0.00105427 1e-05 0.0241076 0.00105295 1e-05 0.0242505 0.00105159 1e-05 0.0243935 0.00105019
1e-05 0.0245364 0.00104879 1e-05 0.0246794 0.00104743 1e-05 0.0248234 0.00104609 1e-05
0.0249675 0.00104472 1e-05 0.0251115 0.0010433 1e-05 0.0252556 0.00104188 1e-05 0.0253996
0.00104051 1e-05 0.0255448 0.00103916 1e-05 0.02569 0.00103777 1e-05 0.0258351 0.00103634
1e-05 0.0259803 0.00103492 1e-05 0.0261255 0.00103353 1e-05 0.0262718 0.00103218 1e-05
0.0264181 0.00103078 1e-05 0.0265644 0.00102935 1e-05 0.0267107 0.00102792 1e-05 0.026857
0.00102653 1e-05 0.0270044 0.00102516 1e-05 0.0271519 0.00102376 1e-05 0.0272993 0.00102233
1e-05 0.0274468 0.0010209 1e-05 0.0275942 0.0010195 1e-05 0.0277428 0.00101813 1e-05
0.0278914 0.00101672 1e-05 0.0280399 0.00101529 1e-05 0.0281885 0.00101386 1e-05 0.0283371
0.00101245 1e-05 0.0284869 0.00101107 1e-05 0.0286366 0.00100965 1e-05 0.0287863 0.00100822
1e-05 0.0289361 0.00100679 1e-05 0.0290858 0.00100538 1e-05 0.0292367 0.00100399 1e-05
0.0293876 0.00100257 1e-05 0.0295385 0.00100113 1e-05 0.0296894 0.0009997 1e-05 0.0298403
0.000998277 1e-05 0.0299924 0.000996882 1e-05 0.0301445 0.000995446 1e-05 0.0302966 0.000994008
1e-05 0.0304486 0.000992572 1e-05 0.0306007 0.000991139 1e-05 0.030754 0.000989732 1e-05
0.0309072 0.000988286 1e-05 0.0310605 0.000986842 1e-05 0.0312138 0.000985398 1e-05 0.031367
0.000983956 1e-05 0.0315215 0.000982535 1e-05 0.0316759 0.00098108 1e-05 0.0318304 0.000979625
1e-05 0.0319848 0.000978171 1e-05 0.0321393 0.000976717 1e-05 0.0322949 0.000975277 1e-05
0.0324506 0.000973809 1e-05 0.0326062 0.00097234 1e-05 0.0327619 0.000970871 1e-05 0.0329175
[...]
POINT_DATA 12025
FIELD attributes 4
age 1 12025 float
-9.99845e-06 -7.99856e-06 -5.99876e-06 -3.99907e-06 -1.99948e-06 0 2.96491e-05 5.92768e-05 8.88832e-05 0.000118468 0.000148033
0.000178298 0.000208542 0.00023876 0.000268954 0.000299124 0.000328057 0.000356977 0.000385878 0.000414761 0.000443626
0.000457101 0.000470573 0.000484042 0.000497508 0.00051023 0.000524579 0.000538925 0.000553266 0.000567604 0.000581939
0.00060846 0.00063497 0.000661471 0.00068796 0.000714439 0.000739847 0.00076525 0.000790645 0.000816032 0.00084141
0.000865764 0.000890115 0.000914461 0.000938801 0.000963134 0.000986486 0.00100984 0.00103319 0.00105653 0.00107987
0.00110227 0.00112467 0.00114707 0.00116946 0.00119186 0.00121335 0.00123484 0.00125633 0.00127782 0.00129931
0.00131994 0.00134056 0.00136119 0.00138181 0.00140243 0.00142223 0.00144202 0.00146181 0.0014816 0.00150139
0.0015204 0.00153939 0.00155839 0.00157738 0.00159638 0.00161462 0.00163285 0.00165108 0.00166932 0.00168755
0.00170506 0.00172256 0.00174006 0.00175756 0.00177506 0.00179188 0.00180867 0.00182547 0.00184227 0.00185907
0.00187521 0.00189134 0.00190746 0.00192358 0.00193971 0.00195522 0.0019707 0.00198618 0.00200166 0.00201715
0.0020275 0.00203784 0.00204818 0.00205852 0.00206886 0.0020793 0.00208972 0.00210014 0.00211056 0.00212099
0.00213151 0.00214202 0.00215252 0.00216303 0.00217354 0.00218414 0.00219473 0.00220532 0.00221591 0.0022265
0.00223719 0.00224786 0.00225854 0.00226921 0.00227989 0.00229067 0.00230143 0.00231219 0.00232295 0.00233371
0.00234458 0.00235543 0.00236628 0.00237714 0.00238799 0.00239896 0.0024099 0.00242085 0.00243179 0.00244275
0.0024538 0.00246484 0.00247589 0.00248693 0.00249798 0.00250914 0.00252028 0.00253142 0.00254257 0.00255372
0.00256497 0.00257622 0.00258746 0.00259872 0.00260997 0.00262133 0.00263268 0.00264403 0.00265539 0.00266675
0.00267822 0.00268968 0.00270115 0.00271262 0.00272409 0.00273567 0.00274725 0.00275883 0.00277041 0.002782
0.0027937 0.00280539 0.00281709 0.0028288 0.00284051 0.00285233 0.00286415 0.00287598 0.00288781 0.00289965
0.0029035 0.00290734 0.00291119 0.00291503 0.00291888 0.00292698 0.0029351 0.00294321 0.00295133 0.00295945
0.00297154 0.00298363 0.00299573 0.00300784 0.00301995 0.0030322 0.00304443 0.00305667 0.00306893 0.00308119
0.0030936 0.00310599 0.00311838 0.00313079 0.00314321 0.00315579 0.00316834 0.00318089 0.00319346 0.00320605
0.0032188 0.00323152 0.00324424 0.00325698 0.00326973 0.00328267 0.00329556 0.00330846 0.00332138 0.00333431
0.00334743 0.0033605 0.00337359 0.00338669 0.0033998 0.00341313 0.00342639 0.00343966 0.00345295 0.00346626
0.00347979 0.00349324 0.00350672 0.00352021 0.00353372 0.00354745 0.00356111 0.00357479 0.00358849 0.00360221
0.00361615 0.00363003 0.00364393 0.00365784 0.00367179 0.00368595 0.00370005 0.00371417 0.00372831 0.00374248
0.00375686 0.0037712 0.00378555 0.00379991 0.00381433 0.00382893 0.00384351 0.00385809 0.00387269 0.00388735
0.00390219 0.00391701 0.00393183 0.00394667 0.00396157 0.00397666 0.00399173 0.00400679 0.00402189 0.00403703
0.00405236 0.00406768 0.00408301 0.00409835 0.00411375 0.00412933 0.00414491 0.00416049 0.0041761 0.00419176
0.00420759 0.00422343 0.00423928 0.00425516 0.00427108 0.00428717 0.00430327 0.00431939 0.00433553 0.00435172
0.00436807 0.00438444 0.00440083 0.00441725 0.0044337 0.00445032 0.00446696 0.00448362 0.00450031 0.00451703
0.00453391 0.00455082 0.00456776 0.00458472 0.00460172 0.00461887 0.00463605 0.00465326 0.0046705 0.00468777
0.00470519 0.00472264 0.00474013 0.00475765 0.00477518 0.00479288 0.00481061 0.00482837 0.00484616 0.00486396
0.00488193 0.00489993 0.00491797 0.00493603 0.00495411 0.00497235 0.00499062 0.00500893 0.00502726 0.00504561
0.00506412 0.00508267 0.00510125 0.00511985 0.00513847 0.00515725 0.00517607 0.00519492 0.00521378 0.00523267
0.00525172 0.00527081 0.00528993 0.00530906 0.00532822 0.00534753 0.00536689 0.00538627 0.00540567 0.00542509
0.00544468 0.0054643 0.00548394 0.0055036 0.00552329 0.00554314 0.00556302 0.00558293 0.00560285 0.0056228
0.00564291 0.00566305 0.00568322 0.0057034 0.00572361 0.00574398 0.00576438 0.00578481 0.00580525 0.00582571
0.00584635 0.00586701 0.00588769 0.00590839 0.00592911 0.00594789 0.0059667 0.00598552 0.00600435 0.00602279
0.00602499 0.00602719 0.00602939 0.0060316 0.0060338 0.00605495 0.00607613 0.00609732 0.00611853 0.00613976
0.00616117 0.0061826 0.00620405 0.00622552 0.006247 0.00626867 0.00629035 0.00631206 0.00633378 0.00635552
0.00637744 0.00639938 0.00642134 0.00644332 0.00646531 0.00648748 0.00650968 0.00653189 0.00655412 0.00657637
0.00659879 0.00662124 0.00664371 0.00666619 0.00668869 0.00671137 0.00673407 0.00675679 0.00677953 0.00680229
0.00682521 0.00684817 0.00687114 0.00689413 0.00691714 0.00694032 0.00696353 0.00698676 0.00701001 0.00703326
0.00705669 0.00708016 0.00710364 0.00712714 0.00715065 0.00717434 0.00719806 0.0072218 0.00724556 0.00726932
0.00729327 0.00731724 0.00734124 0.00736526 0.00738928 0.00741348 0.00743771 0.00746197 0.00748625 0.00751053
0.00753499 0.00755948 0.00758401 0.00760855 0.00763309 0.00765781 0.00768257 0.00770736 0.00773216 0.00775697
0.00778196 0.00780698 0.00783204 0.00785711 0.00788218 0.00790745 0.00793275 0.00795808 0.00798342 0.00800877
0.00803431 0.00805988 0.00808549 0.00811111 0.00813674 0.00816256 0.00818842 0.00821431 0.00824021 0.00826612
0.00829223 0.00831838 0.00834456 0.00837075 0.00839695 0.00842335 0.0084498 0.00847626 0.00850275 0.00852925
0.00855596 0.0085827 0.00860947 0.00863625 0.00866306 0.00869008 0.00871713 0.00874421 0.0087713 0.00879841
0.00882575 0.00885312 0.00888051 0.00890792 0.00893535 0.00896302 0.00899071 0.00901842 0.00904616 0.00907392
0.0090995 0.0091251 0.00915072 0.00917636 0.00920054 0.00920326 0.00920599 0.00920871 0.00921144 0.00921416
0.0092425 0.00927086 0.00929925 0.00932767 0.00935611 0.0093848 0.00941351 0.00944225 0.00947102 0.00949982
0.00952886 0.00955794 0.00958704 0.00961617 0.00964534 0.00967474 0.00970418 0.00973366 0.00976316 0.0097927
0.00982247 0.00985229 0.00988214 0.00991202 0.00994193 0.00997208 0.0100023 0.0100325 0.0100628 0.0100931
0.0101236 0.0101542 0.0101848 0.0102155 0.0102462 0.0102771 0.0103081 0.0103391 0.0103702 0.0104013
0.0104326 0.010464 0.0104954 0.0105269 0.0105583 0.0105901 0.0106219 0.0106537 0.0106856 0.0107175
0.0107496 0.0107818 0.010814 0.0108463 0.0108786 0.0109112 0.0109438 0.0109765 0.0110091 0.0110419
0.0110748 0.0111079 0.011141 0.0111741 0.0112072 0.0112406 0.0112741 0.0113076 0.0113411 0.0113747
0.0114085 0.0114424 0.0114763 0.0115103 0.0115442 0.0115671 0.01159 0.0116129 0.0116358 0.011658
0.0116696 0.0116812 0.0116928 0.0117044 0.011716 0.0117508 0.0117855 0.0118203 0.0118551 0.01189
0.0119252 0.0119604 0.0119956 0.0120309 0.0120663 0.0121019 0.0121375 0.0121733 0.012209 0.0122448
0.0122809 0.012317 0.0123532 0.0123894 0.0124257 0.0124622 0.0124989 0.0125355 0.0125722 0.012609
0.012646 0.0126831 0.0127202 0.0127574 0.0127947 0.0128322 0.0128698 0.0129074 0.0129451 0.0129828
0.0130209 0.013059 0.0130971 0.0131353 0.0131735 0.0132121 0.0132507 0.0132894 0.0133281 0.0133669
0.013406 0.0134451 0.0134843 0.0135235 0.0135628 0.0136025 0.0136422 0.0136819 0.0137217 0.0137616
0.0137619 0.0137622 0.0137624 0.0137627 0.013763 0.013803 0.0138429 0.0138829 0.013923 0.0139631
0.0140038 0.0140447 0.0140855 0.0141265 0.0141674 0.0142088 0.0142502 0.0142917 0.0143332 0.0143747
0.0144167 0.0144587 0.0145008 0.0145429 0.0145851 0.0146276 0.0146703 0.014713 0.0147557 0.0147985
0.0148418 0.014885 0.0149284 0.0149718 0.0150152 0.0150591 0.015103 0.015147 0.0151911 0.0152353
0.0152798 0.0153244 0.0153691 0.0154139 0.0154587 0.0154867 0.0155148 0.0155428 0.0155709 0.015598
0.0156156 0.0156331 0.0156506 0.0156682 0.0156858 0.0157317 0.0157778 0.0158239 0.0158701 0.0159163
0.015963 0.0160098 0.0160566 0.0161036 0.0161506 0.016198 0.0162456 0.0162932 0.0163409 0.0163887
0.0164369 0.0164852 0.0165336 0.0165821 0.0166307 0.0166797 0.0167288 0.016778 0.0168273 0.0168767
0.0169266 0.0169766 0.0170266 0.0170768 0.017127 0.0171712 0.0172154 0.0172597 0.0173041 0.0173469
0.0173539 0.0173609 0.0173678 0.0173748 0.0173818 0.0174334 0.0174852 0.017537 0.017589 0.017641
0.0176936 0.0177462 0.017799 0.0178519 0.0179049 0.0179584 0.0180121 0.0180658 0.0181197 0.0181737
0.0182282 0.0182829 0.0183377 0.0183925 0.0184476 0.0185032 0.0185589 0.0186148 0.0186707 0.0187268
0.0187836 0.0188404 0.0188973 0.0189545 0.0190117 0.0190353 0.0190589 0.0190826 0.0191062 0.0191296
0.0191641 0.0191986 0.0192332 0.0192679 0.0193026 0.0193617 0.0194209 0.0194802 0.0195397 0.0195994
0.0196597 0.0197202 0.0197808 0.0198415 0.0199025 0.0199641 0.0200259 0.0200878 0.0201499 0.0202123
0.0202753 0.0203384 0.0204018 0.0204653 0.020529 0.0205935 0.0206581 0.0207229 0.0207879 0.0208532
0.0208794 0.0209057 0.0209321 0.0209585 0.0209845 0.0210245 0.0210645 0.0211047 0.0211449 0.0211852
0.0212528 0.0213205 0.0213884 0.0214566 0.0215251 0.0215942 0.0216636 0.0217333 0.0218031 0.0218733
0.0219442 0.0220153 0.0220867 0.0221584 0.0222303 0.0223031 0.0223761 0.0224493 0.0225228 0.0225966
0.0226614 0.0227263 0.0227914 0.0228568 0.0229199 0.0229305 0.0229411 0.0229517 0.0229623 0.022973
0.0230496 0.0231266 0.0232039 0.0232814 0.0233593 0.0234381 0.0235172 0.0235966 0.0236763 0.0237564
0.0238374 0.0239187 0.0240003 0.0240823 0.0241647 0.024248 0.0243317 0.0244157 0.0245 0.0245848
0.0246568 0.024729 0.0248015 0.0248743 0.0249447 0.0249593 0.0249739 0.0249885 0.0250031 0.0250177
0.0251061 0.0251948 0.025284 0.0253735 0.0254635 0.0255545 0.0256459 0.0257378 0.0258301 0.0259228
0.0260167 0.026111 0.0262057 0.0263009 0.0263966 0.0264934 0.0265907 0.0266885 0.0267867 0.0268854
0.0269234 0.0269615 0.0269997 0.0270379 0.0270756 0.0271383 0.0272011 0.0272641 0.0273274 0.0273908
0.0274941 0.0275978 0.027702 0.0278068 0.0279122 0.0280188 0.0281259 0.0282337 0.028342 0.0284508
0.028561 0.0286718 0.0287832 0.0288951 0.0290077 0.0290731 0.0291388 0.0292046 0.0292707 0.0293355
0.0293851 0.0294347 0.0294845 0.0295343 0.0295843 0.0297022 0.0298207 0.0299398 0.0300595 0.03018
0.0303018 0.0304244 0.0305476 0.0306715 0.030796 0.030922 0.0310488 0.0311763 0.0313044 0.0314333
0.0314962 0.0315593 0.0316226 0.031686 0.0317487 0.0318172 0.031886 0.0319549 0.0320241 0.0320934
0.0322283 0.0323639 0.0325002 0.0326373 0.032775 0.0329144 0.0330546 0.0331955 0.0333372 0.0334795
0.0336235 0.0337684 0.033914 0.0340603 0.0342073 0.034233 0.0342586 0.0342843 0.0343101 0.0343357
0.0344595 0.0345837 0.0347084 0.0348336 0.0349594 0.0351129 0.0352672 0.0354222 0.0355781 0.0357345
0.0358928 0.0360518 0.0362117 0.0363723 0.0365336 0.0366478 0.0367625 0.0368774 0.0369928 0.0371075
0.0371574 0.0372073 0.0372573 0.0373074 0.0373575 0.0375256 0.0376944 0.037864 0.0380343 0.0382053
0.0383782 0.038552 0.0387265 0.0389018 0.0390778 0.0392556 0.0394344 0.0396139 0.039794 0.0399749
0.039979 0.0399832 0.0399873 0.0399915 0.0399956 0.0401745 0.0403541 0.0405343 0.0407153 0.0408968
0.0410846 0.0412732 0.0414625 0.0416525 0.0418431 0.0420357 0.0422291 0.0424232 0.042618 0.0428133
0.0428598 0.0429064 0.0429529 0.0429996 0.0430463 0.0431978 0.0433497 0.043502 0.0436547 0.0438076
0.0440096 0.0442123 0.0444157 0.0446197 0.0448241 0.0450305 0.0452376 0.0454453 0.0456535 0.045862
0.0459464 0.0460308 0.0461154 0.0462 0.0462856 0.0464123 0.0465392 0.0466663 0.0467935 0.0469208
0.0471353 0.0473503 0.0475658 0.0477817 0.0479976 0.0482154 0.0484336 0.0486522 0.0488711 0.0490901
0.0492301 0.0493702 0.0495104 0.0496506 0.0497961 0.0498763 0.0499566 0.0500368 0.0501171 0.0501974
0.0504118 0.0506267 0.0508418 0.0510571 0.051272 0.0514891 0.0517062 0.0519232 0.0521401 0.0523706
0.0523738 0.052377 0.0523803 0.0523835 0.0523867 0.0526178 0.0528488 0.0530796 0.0533102 0.0535401
0.0537787 0.054017 0.0542551 0.0544926 0.0547292 0.0547607 0.0547922 0.0548237 0.0548552 0.0548872
0.0551006 0.0553135 0.0555259 0.0557378 0.0559486 0.0561995 0.0564496 0.0566988 0.056947 0.0571936
0.0572629 0.0573322 0.0574013 0.0574704 0.0575425 0.0577264 0.0579097 0.0580923 0.0582742 0.0584551
0.0587131 0.0589696 0.0592246 0.059478 0.0597291 0.0598647 0.0599998 0.0601344 0.0602685 0.0604172
0.0605354 0.0606532 0.0607706 0.0608876 0.061004 0.0612632 0.0615203 0.0617753 0.0620282 0.0622784
0.0625362 0.0627917 0.0630447 0.0632954 0.0635434 0.06356 0.0635767 0.0635933 0.0636099 0.0636268
0.0638646 0.0641001 0.0643334 0.0645644 0.0647931 0.0650449 0.065294 0.0655405 0.0657842 0.0660252
0.0662728 0.0665176 0.0667596 0.0669989 0.0672354 0.0672624 0.0672894 0.0673164 0.0673433 0.0673711
0.0675854 0.0677973 0.0680071 0.0682146 0.0684201 0.068658 0.0688929 0.069125 0.0693543 0.0695809
0.0698135 0.0700431 0.0702699 0.0704939 0.0707154 0.0709426 0.0711669 0.0713884 0.0716071 0.0718232
0.0718734 0.0719235 0.0719734 0.0720232 0.0720769 0.0722451 0.0724117 0.0725767 0.0727401 0.072902
0.0731185 0.0733322 0.0735431 0.0737514 0.0739572 0.0741684 0.0743766 0.0745821 0.074785 0.0749858
0.075192 0.0753957 0.0755968 0.0757954 0.0759911 0.0761915 0.0763889 0.0765835 0.0767761 0.0769668
0.0771633 0.077358 0.0775493 0.0777374 0.0779224 0.0780409 0.0781579 0.0782743 0.07839 0.0784614
0.0785377 0.0786135 0.0786889 0.0787639 0.0788384 -9.99991e-06 -7.99991e-06 -5.99992e-06 -3.99994e-06 -1.99997e-06
0 2.96563e-05 5.93112e-05 8.89635e-05 0.000118613 0.000148258 0.000178632 0.000209001 0.000239363 0.00026972
0.000300069 0.000329198 0.00035832 0.000387434 0.000416542 0.000445642 0.000473573 0.000501496 0.000529414 0.000557324
0.000585229 0.000612012 0.000638789 0.000665561 0.000692327 0.000719087 0.000744773 0.000770453 0.000796128 0.000821799
0.000847464 0.000872098 0.000896728 0.000921354 0.000945975 0.000970592 0.00099422 0.00101785 0.00104147 0.00106508
0.0010887 0.00111136 0.00113402 0.00115668 0.00117934 0.00120199 0.00122373 0.00124547 0.00126721 0.00128895
0.00131068 0.00133154 0.0013524 0.00137325 0.0013941 0.00141495 0.00143497 0.00145498 0.00147499 0.001495
0.001515 0.0015342 0.0015534 0.0015726 0.0015918 0.00161099 0.00162941 0.00164784 0.00166626 0.00168468
0.00170309 0.00172077 0.00173845 0.00175613 0.0017738 0.00179147 0.00180844 0.0018254 0.00184236 0.00185932
0.00187628 0.00189256 0.00190884 0.00192511 0.00194139 0.00195766 0.00197329 0.00198891 0.00200453 0.00202015
0.00203577 0.0020462 0.00205662 0.00206705 0.00207748 0.0020879 0.00209841 0.00210891 0.00211942 0.00212992
0.00214043 0.00215101 0.0021616 0.00217218 0.00218277 0.00219335 0.00220402 0.00221469 0.00222535 0.00223602
0.00224668 0.00225743 0.00226818 0.00227892 0.00228967 0.00230042 0.00231125 0.00232208 0.00233291 0.00234374
0.00235456 0.00236548 0.00237639 0.0023873 0.00239822 0.00240913 0.00242013 0.00243112 0.00244212 0.00245312
0.00246411 0.0024752 0.00248628 0.00249736 0.00250844 0.00251952 0.00253069 0.00254186 0.00255303 0.0025642
0.00257537 0.00258662 0.00259788 0.00260913 0.00262039 0.00263164 0.00264298 0.00265433 0.00266567 0.00267701
0.00268836 0.00269979 0.00271122 0.00272265 0.00273408 0.00274551 0.00275703 0.00276855 0.00278007 0.00279159
0.00280311 0.00281472 0.00282633 0.00283794 0.00284955 0.00286116 0.00287286 0.00288456 0.00289626 0.00290795
0.00291965 0.00293144 0.00294323 0.00295502 0.00296681 0.0029786 0.00299048 0.00300236 0.00301424 0.00302612
0.003038 0.00304998 0.00306195 0.00307392 0.00308589 0.00309786 0.00310993 0.00312199 0.00313405 0.00314612
0.00315818 0.00317034 0.00318249 0.00319465 0.0032068 0.00321896 0.00323121 0.00324346 0.00325571 0.00326796
0.0032802 0.00329255 0.00330489 0.00331723 0.00332957 0.00334192 0.00335435 0.00336679 0.00337923 0.00339166
0.0034041 0.00341663 0.00342917 0.0034417 0.00345423 0.00346676 0.00347939 0.00349202 0.00350465 0.00351728
0.0035299 0.00354263 0.00355535 0.00356808 0.00358081 0.00359353 0.00360635 0.00361918 0.003632 0.00364482
0.00365765 0.00366621 0.00367477 0.00368333 0.0036919 0.00370042 0.00370479 0.00370916 0.00371353 0.00371789
0.00372226 0.00373528 0.00374831 0.00376133 0.00377435 0.00378737 0.0038005 0.00381362 0.00382675 0.00383987
0.00385299 0.00386622 0.00387944 0.00389267 0.0039059 0.00391912 0.00393245 0.00394578 0.00395911 0.00397244
0.00398577 0.0039992 0.00401263 0.00402607 0.0040395 0.00405293 0.00406647 0.00408001 0.00409354 0.00410708
0.00412062 0.00413426 0.0041479 0.00416155 0.00417519 0.00418883 0.00420258 0.00421633 0.00423008 0.00424383
0.00425758 0.00427143 0.00428529 0.00429914 0.004313 0.00432685 0.00434082 0.00435478 0.00436874 0.0043827
0.00439666 0.00441073 0.00442481 0.00443888 0.00445295 0.00446701 0.00448119 0.00449537 0.00450955 0.00452373
0.0045379 0.00455219 0.00456648 0.00458077 0.00459505 0.00460934 0.00462373 0.00463813 0.00465252 0.00466692
0.00468131 0.00469582 0.00471033 0.00472483 0.00473933 0.00475384 0.00476845 0.00478307 0.00479768 0.0048123
0.00482691 0.00484164 0.00485636 0.00487109 0.00488581 0.00490054 0.00491538 0.00493021 0.00494505 0.00495988
0.00497472 0.00498967 0.00500462 0.00501956 0.00503451 0.00504946 0.00506452 0.00507958 0.00509464 0.0051097
0.00512476 0.00513993 0.0051551 0.00517028 0.00518545 0.00520062 0.00521591 0.0052312 0.00524648 0.00526177
0.00527705 0.00529246 0.00530786 0.00532326 0.00533866 0.00535406 0.00536958 0.0053851 0.00540061 0.00541613
0.00543165 0.00544728 0.00546292 0.00547855 0.00549418 0.00550981 0.00552557 0.00554132 0.00555707 0.00557282
0.00558857 0.00560444 0.00562031 0.00563618 0.00565205 0.00566792 0.00568391 0.0056999 0.00571589 0.00573188
0.00574787 0.00576398 0.00578009 0.0057962 0.00581231 0.00582842 0.00584466 0.00586089 0.00587713 0.00589336
0.00590959 0.00591731 0.00592502 0.00593274 0.00594045 0.00594809 0.00595675 0.00596541 0.00597406 0.00598272
0.00599138 0.00600786 0.00602435 0.00604083 0.00605731 0.0060738 0.00609041 0.00610702 0.00612363 0.00614024
0.00615685 0.0061736 0.00619034 0.00620708 0.00622382 0.00624055 0.00625743 0.0062743 0.00629117 0.00630804
0.00632491 0.00634193 0.00635893 0.00637594 0.00639294 0.00640994 0.0064271 0.00644423 0.00646137 0.00647851
0.00649565 0.00651295 0.00653023 0.0065475 0.00656477 0.00658206 0.0065995 0.00661692 0.00663433 0.00665175
0.00666917 0.00668676 0.00670433 0.00672189 0.00673944 0.00675702 0.00677476 0.00679248 0.00681018 0.00682788
0.0068456 0.0068635 0.00688137 0.00689921 0.00691706 0.00693494 0.006953 0.00697102 0.00698903 0.00700703
0.00702507 0.00704328 0.00706147 0.00707963 0.0070978 0.007116 0.00713438 0.00715273 0.00717105 0.00718938
0.00720775 0.0072263 0.00724481 0.0072633 0.0072818 0.00730034 0.00731906 0.00733775 0.00735641 0.00737508
0.00739379 0.00741269 0.00743156 0.0074504 0.00746926 0.00748815 0.00750722 0.00752627 0.00754531 0.00756435
0.00758342 0.00760268 0.00762191 0.00764114 0.00766038 0.00767963 0.00769908 0.0077185 0.00773793 0.00775736
0.00777681 0.00779646 0.00781608 0.00783571 0.00785535 0.007875 0.00789484 0.00791467 0.00793451 0.00795436
0.00797422 0.00799427 0.00801431 0.00803436 0.00805442 0.0080745 0.00807866 0.00808282 0.00808698 0.00809114
0.00809527 0.00811138 0.00812749 0.0081436 0.00815973 0.00817587 0.00819635 0.00821683 0.00823732 0.00825783
0.00827836 0.00829908 0.00831979 0.00834051 0.00836125 0.008382 0.00840297 0.00842392 0.00844488 0.00846585
0.00848684 0.00850806 0.00852925 0.00855045 0.00857166 0.00859291 0.00861438 0.00863583 0.00865727 0.00867873
0.00870023 0.00872197 0.00874368 0.00876537 0.00878708 0.00880884 0.00883085 0.00885282 0.00887477 0.00889674
0.00891877 0.00894104 0.00896329 0.00898551 0.00900775 0.00903005 0.0090526 0.00907512 0.00909762 0.00912013
0.00914272 0.00916554 0.00918834 0.00921112 0.00923392 0.00925679 0.00927989 0.00930298 0.00932605 0.00934915
0.0093723 0.0093957 0.00941908 0.00944245 0.00946586 0.0094893 0.00951299 0.00953666 0.00956034 0.00958405
0.00960779 0.00963178 0.00965575 0.00967975 0.00970378 0.00972783 0.00975212 0.00977641 0.00980073 0.00982507
0.00984944 0.00986753 0.00988563 0.00990374 0.00992187 0.00993938 0.00994604 0.00995269 0.00995935 0.00996602