/*--------------------------------*- C++ -*----------------------------------*\
  =========                 |
  \\      /  F ield         | OpenFOAM: The Open Source CFD Toolbox
   \\    /   O peration     | Website:  https://openfoam.org
    \\  /    A nd           | Version:  13
     \\/     M anipulation  |
\*---------------------------------------------------------------------------*/
FoamFile
{
    format      ascii;
    class       volScalarField;
    location    "0.1";
    object      epsilon;
}
// * * * * * * * * * * * * * * * * * * * * * * * * * * * * * * * * * * * * * //

dimensions      [0 2 -3 0 0 0 0];

internalField   nonuniform List<scalar> 
6400
(
0.0027553
0.00708
0.0110952
0.0138277
0.0155312
0.0165458
0.0171271
0.0174475
0.0176176
0.017705
0.0177488
0.0177707
0.0177819
0.0177881
0.0177921
0.0177952
0.017798
0.0178006
0.0178032
0.0178059
0.0178086
0.0178114
0.0178143
0.0178173
0.0178203
0.0178235
0.0178267
0.01783
0.0178333
0.0178367
0.0178402
0.0178437
0.0178473
0.0178509
0.0178546
0.0178583
0.017862
0.0178657
0.0178695
0.0178732
0.0178768
0.0178809
0.0178851
0.0178893
0.0178935
0.0178977
0.0179019
0.017906
0.0179101
0.0179142
0.0179182
0.0179222
0.0179261
0.01793
0.0179338
0.0179375
0.0179411
0.0179447
0.0179482
0.0179516
0.0179549
0.0179582
0.0179613
0.0179643
0.017967
0.0179693
0.0179705
0.0179692
0.0179627
0.0179446
0.0179031
0.0178151
0.0176398
0.0173074
0.0167053
0.0156598
0.0139163
0.0111399
0.00708806
0.0027554
0.00708778
0.00731033
0.00879379
0.0096863
0.0101566
0.0103926
0.0105071
0.0105609
0.0105854
0.0105963
0.010601
0.010603
0.0106039
0.0106044
0.0106047
0.0106049
0.0106051
0.0106053
0.0106055
0.0106057
0.010606
0.0106062
0.0106064
0.0106067
0.0106069
0.0106072
0.0106074
0.0106077
0.010608
0.0106082
0.0106085
0.0106088
0.010609
0.0106093
0.0106096
0.0106099
0.0106101
0.0106104
0.0106107
0.0106109
0.0106112
0.0106117
0.0106122
0.0106128
0.0106133
0.0106138
0.0106144
0.0106149
0.0106154
0.0106159
0.0106164
0.0106169
0.0106174
0.0106179
0.0106184
0.0106188
0.0106193
0.0106197
0.0106202
0.0106206
0.010621
0.0106214
0.0106217
0.0106221
0.0106224
0.0106227
0.0106229
0.010623
0.0106225
0.0106208
0.0106164
0.0106056
0.0105807
0.0105258
0.0104093
0.0101701
0.00969572
0.0087984
0.00731034
0.00708005
0.0111389
0.00879842
0.00902554
0.00913818
0.00912544
0.00906765
0.00900762
0.00896076
0.00892914
0.00890979
0.00889881
0.00889292
0.00888988
0.00888831
0.00888748
0.00888697
0.00888662
0.00888632
0.00888604
0.00888577
0.00888549
0.00888521
0.00888492
0.00888462
0.00888432
0.00888401
0.00888369
0.00888336
0.00888303
0.00888269
0.00888235
0.008882
0.00888164
0.00888129
0.00888092
0.00888056
0.00888019
0.00887982
0.00887945
0.00887908
0.00887873
0.00887842
0.00887813
0.00887784
0.00887756
0.00887728
0.008877
0.00887672
0.00887644
0.00887617
0.0088759
0.00887564
0.00887537
0.00887512
0.00887486
0.00887462
0.00887438
0.00887414
0.00887391
0.00887369
0.00887347
0.00887327
0.00887308
0.00887292
0.00887284
0.00887293
0.0088734
0.00887467
0.00887757
0.00888357
0.00889505
0.00891541
0.00894867
0.00899781
0.00906062
0.00912143
0.00913685
0.0090255
0.00879386
0.0110948
0.0139148
0.00969567
0.00913692
0.00879915
0.00851307
0.00828666
0.00812213
0.00801089
0.00794028
0.00789799
0.00787396
0.00786093
0.00785414
0.00785066
0.00784885
0.00784785
0.0078472
0.0078467
0.00784627
0.00784584
0.00784542
0.00784499
0.00784455
0.0078441
0.00784364
0.00784317
0.00784269
0.00784219
0.00784169
0.00784118
0.00784067
0.00784014
0.00783961
0.00783908
0.00783854
0.00783799
0.00783745
0.0078369
0.00783635
0.0078358
0.00783527
0.00783474
0.00783423
0.00783372
0.00783321
0.00783271
0.00783221
0.00783172
0.00783123
0.00783075
0.00783027
0.0078298
0.00782934
0.00782889
0.00782845
0.00782802
0.00782759
0.00782718
0.00782678
0.00782639
0.00782602
0.00782568
0.00782537
0.00782515
0.00782511
0.0078255
0.00782679
0.00782991
0.00783665
0.00785005
0.00787512
0.00791932
0.00799281
0.00810796
0.00827722
0.00850868
0.00879915
0.00913821
0.00968639
0.0138264
0.0156582
0.0101701
0.00912154
0.00850873
0.00805329
0.00771869
0.0074836
0.00732605
0.00722535
0.00716396
0.00712825
0.0071084
0.0070978
0.00709231
0.00708948
0.00708798
0.0070871
0.0070865
0.00708601
0.00708556
0.00708511
0.00708467
0.00708421
0.00708375
0.00708327
0.00708278
0.00708229
0.00708178
0.00708126
0.00708074
0.0070802
0.00707967
0.00707912
0.00707857
0.00707802
0.00707746
0.0070769
0.00707634
0.00707578
0.00707522
0.00707466
0.00707412
0.00707357
0.00707303
0.0070725
0.00707197
0.00707145
0.00707093
0.00707041
0.00706991
0.00706941
0.00706892
0.00706843
0.00706796
0.0070675
0.00706704
0.0070666
0.00706617
0.00706576
0.00706536
0.00706498
0.00706464
0.00706436
0.00706424
0.00706444
0.00706536
0.00706775
0.00707305
0.00708385
0.00710447
0.00714176
0.00720572
0.00731012
0.00747243
0.00771308
0.00805337
0.00851319
0.00912557
0.0101567
0.0155288
0.0167042
0.0104094
0.00906078
0.00827732
0.00771309
0.00730587
0.00702102
0.00682903
0.00670466
0.00662741
0.00658146
0.0065553
0.00654102
0.00653349
0.00652961
0.00652759
0.00652649
0.0065258
0.00652529
0.00652486
0.00652445
0.00652403
0.00652362
0.00652319
0.00652276
0.00652231
0.00652186
0.0065214
0.00652093
0.00652045
0.00651997
0.00651948
0.00651899
0.00651849
0.00651799
0.00651748
0.00651698
0.00651647
0.00651597
0.00651546
0.00651496
0.00651446
0.00651397
0.00651348
0.00651299
0.00651251
0.00651203
0.00651156
0.0065111
0.00651064
0.00651019
0.00650975
0.00650931
0.00650888
0.00650847
0.00650806
0.00650766
0.00650728
0.00650691
0.00650655
0.00650623
0.00650595
0.00650577
0.00650582
0.00650636
0.00650791
0.00651152
0.00651908
0.00653386
0.00656117
0.00660915
0.00668948
0.00681804
0.00701525
0.00730599
0.00771892
0.00828694
0.00906789
0.0103926
0.0165421
0.0173076
0.0105261
0.00899798
0.00810806
0.00747247
0.00701524
0.00669447
0.00647649
0.00633348
0.00624321
0.00618851
0.00615675
0.00613907
0.0061296
0.00612468
0.00612215
0.00612081
0.00612005
0.00611954
0.00611913
0.00611877
0.00611841
0.00611806
0.00611769
0.00611732
0.00611694
0.00611656
0.00611616
0.00611577
0.00611536
0.00611495
0.00611454
0.00611412
0.0061137
0.00611327
0.00611285
0.00611242
0.006112
0.00611157
0.00611114
0.00611072
0.0061103
0.00610989
0.00610947
0.00610907
0.00610866
0.00610826
0.00610787
0.00610748
0.00610709
0.00610672
0.00610635
0.00610598
0.00610563
0.00610528
0.00610495
0.00610462
0.0061043
0.006104
0.00610371
0.00610346
0.00610327
0.00610322
0.00610347
0.00610437
0.0061066
0.00611143
0.00612116
0.00613961
0.00617285
0.00622992
0.00632363
0.00647114
0.00669457
0.00702128
0.00748402
0.00812261
0.009008
0.010507
0.0171218
0.0176419
0.0105813
0.0089488
0.0079928
0.00731009
0.00681803
0.00647112
0.00623349
0.00607593
0.00597516
0.00591319
0.00587663
0.00585596
0.00584474
0.00583885
0.00583584
0.00583428
0.00583344
0.00583293
0.00583256
0.00583224
0.00583195
0.00583165
0.00583136
0.00583105
0.00583074
0.00583043
0.00583011
0.00582979
0.00582946
0.00582913
0.00582879
0.00582846
0.00582812
0.00582778
0.00582743
0.00582709
0.00582675
0.00582641
0.00582607
0.00582573
0.0058254
0.00582507
0.00582474
0.00582441
0.00582409
0.00582377
0.00582346
0.00582316
0.00582285
0.00582256
0.00582227
0.00582198
0.00582171
0.00582144
0.00582117
0.00582092
0.00582067
0.00582044
0.00582023
0.00582006
0.00581996
0.00582004
0.0058205
0.00582175
0.00582462
0.0058306
0.00584228
0.00586395
0.00590224
0.00596685
0.00607129
0.00623354
0.0064767
0.00682948
0.00732672
0.00801162
0.00896131
0.0105606
0.0174404
0.0178197
0.0106065
0.00891542
0.00791908
0.00720549
0.00668933
0.00632356
0.00607128
0.00590254
0.00579352
0.0057257
0.0056852
0.00566202
0.00564929
0.00564256
0.00563911
0.00563736
0.00563645
0.00563593
0.00563559
0.00563532
0.00563508
0.00563484
0.00563461
0.00563437
0.00563413
0.00563388
0.00563363
0.00563338
0.00563312
0.00563287
0.00563261
0.00563234
0.00563208
0.00563182
0.00563156
0.00563129
0.00563103
0.00563077
0.00563051
0.00563025
0.00563
0.00562975
0.0056295
0.00562925
0.00562901
0.00562877
0.00562854
0.00562831
0.00562808
0.00562786
0.00562765
0.00562744
0.00562723
0.00562703
0.00562684
0.00562666
0.00562648
0.00562632
0.00562617
0.00562607
0.00562607
0.00562627
0.00562692
0.0056285
0.00563194
0.00563891
0.00565227
0.00567664
0.00571906
0.0057897
0.00590254
0.00607606
0.00633387
0.00670536
0.00722631
0.00794133
0.0089299
0.010585
0.0176083
0.0179107
0.0106178
0.00889488
0.00787456
0.0071412
0.00660873
0.00622967
0.00596674
0.00578969
0.00567439
0.00560205
0.00555845
0.00553326
0.0055193
0.00551188
0.00550806
0.00550614
0.00550516
0.00550464
0.00550433
0.0055041
0.0055039
0.00550372
0.00550354
0.00550336
0.00550317
0.00550299
0.0055028
0.00550261
0.00550242
0.00550222
0.00550203
0.00550183
0.00550164
0.00550144
0.00550125
0.00550105
0.00550086
0.00550067
0.00550048
0.00550029
0.00550011
0.00549992
0.00549974
0.00549957
0.00549939
0.00549922
0.00549906
0.0054989
0.00549874
0.00549858
0.00549843
0.00549829
0.00549815
0.00549801
0.00549788
0.00549776
0.00549764
0.00549754
0.00549745
0.00549741
0.00549748
0.00549779
0.00549861
0.00550047
0.00550439
0.00551218
0.0055269
0.00555342
0.00559908
0.00567437
0.00579357
0.00597543
0.00624383
0.00662842
0.00716529
0.0078994
0.00891081
0.0105956
0.0176931
0.0179556
0.0106227
0.00888318
0.00784908
0.00710349
0.00656038
0.00617229
0.00590192
0.00571892
0.00559906
0.00552337
0.00547744
0.00545072
0.00543582
0.00542785
0.00542375
0.00542169
0.00542067
0.00542014
0.00541985
0.00541965
0.0054195
0.00541935
0.00541922
0.00541908
0.00541895
0.00541881
0.00541867
0.00541853
0.00541839
0.00541825
0.00541811
0.00541797
0.00541782
0.00541768
0.00541755
0.00541741
0.00541727
0.00541714
0.00541701
0.00541687
0.00541675
0.00541662
0.0054165
0.00541638
0.00541626
0.00541615
0.00541604
0.00541593
0.00541583
0.00541573
0.00541563
0.00541554
0.00541545
0.00541536
0.00541528
0.00541521
0.00541514
0.00541508
0.00541505
0.00541506
0.0054152
0.00541559
0.00541654
0.00541862
0.00542292
0.00543135
0.00544711
0.00547527
0.00552335
0.00560207
0.00572588
0.00591368
0.00618943
0.00658286
0.00713003
0.00787581
0.00890012
0.0106001
0.017734
0.0179774
0.0106249
0.00887693
0.00783521
0.00708237
0.00653261
0.00613868
0.00586333
0.00567628
0.00555326
0.00547522
0.00542764
0.00539982
0.00538423
0.00537587
0.00537155
0.00536939
0.00536833
0.0053678
0.00536752
0.00536735
0.00536723
0.00536712
0.00536702
0.00536692
0.00536682
0.00536672
0.00536662
0.00536652
0.00536641
0.00536631
0.00536621
0.00536611
0.00536602
0.00536592
0.00536582
0.00536573
0.00536564
0.00536555
0.00536546
0.00536537
0.00536529
0.00536521
0.00536513
0.00536505
0.00536498
0.00536491
0.00536484
0.00536478
0.00536472
0.00536466
0.0053646
0.00536455
0.0053645
0.00536445
0.00536441
0.00536438
0.00536434
0.00536432
0.00536432
0.00536438
0.00536457
0.00536503
0.00536608
0.00536833
0.0053729
0.0053818
0.00539832
0.00542765
0.00547746
0.00555857
0.00568558
0.00587741
0.00615805
0.00655716
0.0071107
0.0078633
0.00889458
0.010602
0.0177526
0.0179881
0.0106259
0.00887376
0.00782798
0.00707104
0.00651734
0.0061198
0.00584132
0.00565165
0.00552654
0.00544694
0.00539825
0.00536969
0.00535364
0.005345
0.00534053
0.0053383
0.00533722
0.00533669
0.00533642
0.00533627
0.00533617
0.00533608
0.00533601
0.00533593
0.00533586
0.00533579
0.00533571
0.00533564
0.00533557
0.0053355
0.00533543
0.00533536
0.00533529
0.00533523
0.00533516
0.0053351
0.00533504
0.00533498
0.00533492
0.00533487
0.00533482
0.00533477
0.00533472
0.00533468
0.00533464
0.0053346
0.00533456
0.00533453
0.0053345
0.00533447
0.00533444
0.00533442
0.0053344
0.00533438
0.00533437
0.00533436
0.00533435
0.00533436
0.00533439
0.00533448
0.0053347
0.0053352
0.00533633
0.00533869
0.00534347
0.00535269
0.00536974
0.00539986
0.00545083
0.00553355
0.00566265
0.00585708
0.00614081
0.00654341
0.00710069
0.00785708
0.00889193
0.0106026
0.0177602
0.0179937
0.0106265
0.00887221
0.00782433
0.00706517
0.00650926
0.00610962
0.00582926
0.005638
0.00551161
0.00543103
0.00538164
0.0053526
0.00533626
0.00532744
0.00532288
0.00532061
0.0053195
0.00531898
0.00531872
0.00531858
0.00531849
0.00531842
0.00531836
0.0053183
0.00531825
0.00531819
0.00531814
0.00531809
0.00531804
0.00531799
0.00531794
0.00531789
0.00531784
0.0053178
0.00531776
0.00531772
0.00531768
0.00531764
0.00531761
0.00531758
0.00531755
0.00531752
0.0053175
0.00531747
0.00531745
0.00531743
0.00531742
0.00531741
0.0053174
0.00531739
0.00531739
0.00531738
0.00531738
0.00531739
0.00531739
0.0053174
0.00531741
0.00531744
0.00531748
0.00531759
0.00531784
0.00531838
0.00531955
0.005322
0.0053269
0.00533634
0.00535372
0.00538436
0.00543608
0.00551982
0.00565023
0.00584626
0.00613184
0.00653647
0.00709584
0.00785423
0.0088908
0.0106028
0.0177625
0.0179972
0.0106269
0.00887146
0.0078225
0.0070622
0.00650511
0.00610433
0.00582291
0.00563074
0.00550361
0.00542245
0.00537265
0.00534333
0.0053268
0.00531788
0.00531327
0.00531097
0.00530986
0.00530933
0.00530907
0.00530894
0.00530886
0.0053088
0.00530876
0.00530871
0.00530867
0.00530863
0.00530859
0.00530855
0.00530851
0.00530847
0.00530844
0.0053084
0.00530837
0.00530834
0.00530831
0.00530829
0.00530826
0.00530824
0.00530822
0.00530821
0.00530819
0.00530818
0.00530817
0.00530816
0.00530815
0.00530815
0.00530814
0.00530814
0.00530815
0.00530816
0.00530816
0.00530818
0.00530819
0.0053082
0.00530822
0.00530824
0.00530827
0.0053083
0.00530836
0.00530849
0.00530875
0.00530931
0.00531051
0.00531301
0.005318
0.00532757
0.00534517
0.00537613
0.00542831
0.00551266
0.00564386
0.00584084
0.00612748
0.00653324
0.00709373
0.00785311
0.00889043
0.0106028
0.0177622
0.0180001
0.0106273
0.00887107
0.00782155
0.00706067
0.00650299
0.00610163
0.00581967
0.00562701
0.00549948
0.00541802
0.00536798
0.00533851
0.00532189
0.00531291
0.00530826
0.00530595
0.00530483
0.0053043
0.00530405
0.00530393
0.00530385
0.0053038
0.00530376
0.00530372
0.00530369
0.00530366
0.00530362
0.00530359
0.00530356
0.00530353
0.00530351
0.00530348
0.00530346
0.00530344
0.00530342
0.0053034
0.00530339
0.00530338
0.00530337
0.00530336
0.00530335
0.00530335
0.00530334
0.00530334
0.00530334
0.00530334
0.00530335
0.00530336
0.00530338
0.00530339
0.00530341
0.00530343
0.00530345
0.00530347
0.0053035
0.00530353
0.00530356
0.0053036
0.00530367
0.0053038
0.00530407
0.00530465
0.00530587
0.0053084
0.00531344
0.0053231
0.00534083
0.00537198
0.00542443
0.00550915
0.0056408
0.00583832
0.00612556
0.00653193
0.007093
0.00785285
0.00889043
0.0106027
0.0177607
0.0180027
0.0106277
0.00887083
0.00782098
0.00705983
0.00650188
0.00610025
0.00581803
0.00562515
0.00549742
0.00541581
0.00536567
0.00533612
0.00531945
0.00531044
0.00530578
0.00530346
0.00530234
0.00530181
0.00530157
0.00530144
0.00530137
0.00530133
0.00530129
0.00530126
0.00530122
0.00530119
0.00530117
0.00530114
0.00530111
0.00530109
0.00530107
0.00530105
0.00530103
0.00530102
0.00530101
0.005301
0.00530099
0.00530098
0.00530098
0.00530098
0.00530097
0.00530097
0.00530097
0.00530097
0.00530098
0.00530099
0.005301
0.00530101
0.00530103
0.00530105
0.00530108
0.0053011
0.00530113
0.00530116
0.00530119
0.00530122
0.00530126
0.00530131
0.00530138
0.00530152
0.00530179
0.00530238
0.00530361
0.00530616
0.00531123
0.00532094
0.00533875
0.00537002
0.00542263
0.00550757
0.00563948
0.00583731
0.00612488
0.00653158
0.00709294
0.007853
0.00889063
0.0106026
0.0177585
0.0180055
0.0106282
0.00887066
0.00782057
0.00705928
0.00650123
0.0060995
0.00581719
0.00562422
0.00549642
0.00541475
0.00536456
0.00533499
0.0053183
0.00530928
0.00530461
0.00530229
0.00530117
0.00530065
0.0053004
0.00530028
0.00530021
0.00530016
0.00530013
0.0053001
0.00530007
0.00530004
0.00530002
0.00529999
0.00529997
0.00529995
0.00529993
0.00529992
0.0052999
0.00529989
0.00529989
0.00529988
0.00529988
0.00529987
0.00529987
0.00529987
0.00529987
0.00529987
0.00529987
0.00529987
0.00529988
0.00529989
0.00529991
0.00529993
0.00529995
0.00529997
0.0053
0.00530003
0.00530006
0.00530009
0.00530012
0.00530016
0.0053002
0.00530025
0.00530033
0.00530047
0.00530075
0.00530134
0.00530258
0.00530514
0.00531024
0.00531998
0.00533784
0.00536918
0.00542189
0.00550696
0.00563904
0.00583705
0.00612482
0.00653171
0.00709323
0.00785337
0.00889092
0.0106025
0.0177558
0.0180085
0.0106287
0.00887051
0.00782021
0.00705886
0.00650077
0.00609903
0.00581671
0.00562373
0.00549593
0.00541425
0.00536406
0.00533448
0.00531779
0.00530877
0.00530411
0.00530178
0.00530067
0.00530014
0.00529989
0.00529977
0.00529971
0.00529966
0.00529963
0.0052996
0.00529957
0.00529955
0.00529952
0.0052995
0.00529948
0.00529946
0.00529944
0.00529943
0.00529942
0.00529941
0.00529941
0.0052994
0.0052994
0.0052994
0.0052994
0.0052994
0.0052994
0.0052994
0.0052994
0.0052994
0.00529941
0.00529943
0.00529945
0.00529947
0.00529949
0.00529952
0.00529954
0.00529957
0.0052996
0.00529964
0.00529967
0.00529971
0.00529975
0.00529981
0.00529989
0.00530003
0.00530031
0.00530091
0.00530216
0.00530473
0.00530984
0.0053196
0.00533749
0.00536889
0.00542167
0.00550683
0.00563902
0.00583716
0.00612506
0.00653207
0.00709368
0.00785385
0.00889128
0.0106023
0.0177527
0.0180118
0.0106292
0.00887035
0.00781986
0.00705846
0.00650039
0.00609868
0.00581639
0.00562345
0.00549567
0.00541401
0.00536384
0.00533427
0.00531759
0.00530858
0.00530392
0.0053016
0.00530048
0.00529995
0.00529971
0.00529959
0.00529952
0.00529948
0.00529944
0.00529942
0.00529939
0.00529936
0.00529934
0.00529932
0.0052993
0.00529928
0.00529927
0.00529925
0.00529924
0.00529924
0.00529924
0.00529923
0.00529923
0.00529923
0.00529923
0.00529923
0.00529923
0.00529923
0.00529923
0.00529924
0.00529925
0.00529926
0.00529928
0.0052993
0.00529933
0.00529936
0.00529938
0.00529941
0.00529945
0.00529948
0.00529952
0.00529956
0.0052996
0.00529966
0.00529974
0.00529988
0.00530017
0.00530076
0.00530202
0.0053046
0.00530972
0.0053195
0.00533742
0.00536886
0.0054217
0.00550693
0.00563921
0.00583745
0.00612545
0.00653257
0.00709424
0.00785441
0.00889168
0.0106022
0.0177494
0.0180153
0.0106297
0.00887019
0.0078195
0.00705807
0.00650003
0.00609837
0.00581614
0.00562324
0.00549551
0.00541389
0.00536375
0.0053342
0.00531753
0.00530853
0.00530387
0.00530155
0.00530044
0.00529991
0.00529967
0.00529955
0.00529948
0.00529944
0.00529941
0.00529938
0.00529935
0.00529933
0.0052993
0.00529928
0.00529926
0.00529925
0.00529923
0.00529922
0.00529921
0.00529921
0.00529921
0.0052992
0.0052992
0.0052992
0.0052992
0.0052992
0.0052992
0.0052992
0.0052992
0.00529921
0.00529922
0.00529924
0.00529926
0.00529928
0.00529931
0.00529933
0.00529936
0.00529939
0.00529943
0.00529946
0.0052995
0.00529954
0.00529959
0.00529964
0.00529973
0.00529987
0.00530016
0.00530076
0.00530202
0.0053046
0.00530973
0.00531954
0.00533748
0.00536896
0.00542185
0.00550715
0.0056395
0.00583783
0.00612593
0.00653314
0.00709487
0.00785503
0.00889213
0.010602
0.0177458
0.018019
0.0106303
0.00887001
0.00781912
0.00705766
0.00649966
0.00609807
0.00581591
0.00562308
0.0054954
0.00541382
0.00536371
0.00533419
0.00531754
0.00530855
0.00530389
0.00530158
0.00530046
0.00529994
0.00529969
0.00529957
0.00529951
0.00529947
0.00529943
0.0052994
0.00529938
0.00529935
0.00529933
0.00529931
0.00529929
0.00529928
0.00529926
0.00529925
0.00529925
0.00529924
0.00529924
0.00529924
0.00529924
0.00529923
0.00529923
0.00529924
0.00529924
0.00529924
0.00529924
0.00529925
0.00529926
0.00529928
0.0052993
0.00529932
0.00529935
0.00529938
0.00529941
0.00529944
0.00529947
0.00529951
0.00529955
0.00529959
0.00529964
0.0052997
0.00529978
0.00529993
0.00530022
0.00530082
0.00530208
0.00530468
0.00530982
0.00531964
0.00533761
0.00536912
0.00542207
0.00550743
0.00563987
0.00583829
0.00612648
0.00653377
0.00709557
0.0078557
0.00889261
0.0106019
0.0177419
0.018023
0.010631
0.00886983
0.00781871
0.00705723
0.00649928
0.00609775
0.00581567
0.00562291
0.0054953
0.00541378
0.0053637
0.00533421
0.00531757
0.00530859
0.00530395
0.00530163
0.00530052
0.0053
0.00529976
0.00529964
0.00529957
0.00529953
0.00529949
0.00529947
0.00529944
0.00529942
0.00529939
0.00529937
0.00529935
0.00529934
0.00529933
0.00529932
0.00529931
0.00529931
0.00529931
0.0052993
0.0052993
0.0052993
0.0052993
0.00529931
0.00529931
0.00529931
0.00529931
0.00529932
0.00529933
0.00529935
0.00529937
0.00529939
0.00529942
0.00529945
0.00529948
0.00529952
0.00529955
0.00529959
0.00529963
0.00529967
0.00529972
0.00529978
0.00529987
0.00530002
0.00530031
0.00530092
0.00530218
0.00530478
0.00530994
0.00531977
0.00533777
0.00536932
0.00542232
0.00550775
0.00564027
0.00583878
0.00612708
0.00653446
0.00709631
0.00785643
0.00889314
0.0106017
0.0177377
0.0180273
0.0106317
0.00886964
0.00781828
0.00705677
0.00649887
0.00609743
0.00581543
0.00562275
0.00549521
0.00541374
0.00536371
0.00533424
0.00531763
0.00530866
0.00530402
0.00530171
0.0053006
0.00530008
0.00529984
0.00529972
0.00529965
0.00529961
0.00529957
0.00529955
0.00529952
0.0052995
0.00529947
0.00529945
0.00529944
0.00529942
0.00529941
0.0052994
0.00529939
0.00529939
0.00529939
0.00529939
0.00529939
0.00529938
0.00529939
0.00529939
0.0052994
0.0052994
0.0052994
0.0052994
0.00529942
0.00529944
0.00529946
0.00529948
0.00529951
0.00529954
0.00529958
0.00529961
0.00529965
0.00529969
0.00529973
0.00529977
0.00529982
0.00529989
0.00529997
0.00530013
0.00530042
0.00530103
0.0053023
0.00530491
0.00531008
0.00531993
0.00533796
0.00536955
0.0054226
0.0055081
0.00564071
0.00583932
0.00612772
0.0065352
0.00709712
0.00785722
0.0088937
0.0106015
0.0177332
0.0180319
0.0106324
0.00886943
0.00781783
0.00705629
0.00649844
0.00609709
0.00581518
0.00562259
0.00549511
0.0054137
0.00536372
0.00533428
0.00531769
0.00530873
0.0053041
0.0053018
0.00530069
0.00530017
0.00529993
0.00529981
0.00529974
0.0052997
0.00529967
0.00529964
0.00529961
0.00529959
0.00529956
0.00529954
0.00529953
0.00529951
0.0052995
0.00529949
0.00529949
0.00529948
0.00529948
0.00529948
0.00529948
0.00529948
0.00529948
0.00529949
0.0052995
0.0052995
0.00529949
0.0052995
0.00529952
0.00529954
0.00529956
0.00529959
0.00529962
0.00529965
0.00529968
0.00529972
0.00529976
0.0052998
0.00529984
0.00529989
0.00529994
0.0053
0.00530009
0.00530025
0.00530055
0.00530116
0.00530244
0.00530505
0.00531023
0.00532011
0.00533817
0.0053698
0.00542291
0.00550849
0.00564119
0.00583991
0.00612842
0.006536
0.00709799
0.00785806
0.00889431
0.0106013
0.0177284
0.0180368
0.0106332
0.00886922
0.00781735
0.00705578
0.00649799
0.00609673
0.00581492
0.00562241
0.00549502
0.00541367
0.00536373
0.00533433
0.00531776
0.00530882
0.0053042
0.0053019
0.0053008
0.00530028
0.00530003
0.00529991
0.00529984
0.0052998
0.00529977
0.00529974
0.00529971
0.00529969
0.00529966
0.00529964
0.00529963
0.00529961
0.0052996
0.0052996
0.00529959
0.00529959
0.00529958
0.00529958
0.00529958
0.00529958
0.00529958
0.00529959
0.0052996
0.0052996
0.0052996
0.00529961
0.00529962
0.00529965
0.00529967
0.0052997
0.00529973
0.00529976
0.0052998
0.00529984
0.00529988
0.00529992
0.00529997
0.00530001
0.00530007
0.00530013
0.00530023
0.00530038
0.00530069
0.0053013
0.00530259
0.00530521
0.00531041
0.0053203
0.00533839
0.00537008
0.00542325
0.00550891
0.00564171
0.00584054
0.00612917
0.00653686
0.00709892
0.00785896
0.00889496
0.0106011
0.0177233
0.018042
0.0106341
0.00886899
0.00781684
0.00705524
0.00649752
0.00609635
0.00581464
0.00562224
0.00549492
0.00541364
0.00536375
0.00533439
0.00531784
0.00530892
0.0053043
0.00530201
0.00530091
0.00530039
0.00530014
0.00530002
0.00529995
0.00529991
0.00529988
0.00529985
0.00529982
0.0052998
0.00529977
0.00529975
0.00529974
0.00529972
0.00529971
0.00529971
0.0052997
0.0052997
0.00529969
0.00529969
0.00529969
0.00529969
0.0052997
0.00529971
0.00529971
0.00529971
0.00529972
0.00529972
0.00529974
0.00529976
0.00529979
0.00529982
0.00529985
0.00529989
0.00529992
0.00529997
0.00530001
0.00530005
0.0053001
0.00530015
0.00530021
0.00530028
0.00530037
0.00530053
0.00530084
0.00530146
0.00530275
0.00530539
0.0053106
0.00532052
0.00533864
0.00537037
0.00542361
0.00550936
0.00564226
0.00584121
0.00612997
0.00653778
0.00709991
0.00785993
0.00889567
0.0106009
0.0177178
0.0180475
0.010635
0.00886876
0.00781631
0.00705467
0.00649702
0.00609595
0.00581436
0.00562205
0.00549483
0.00541362
0.00536378
0.00533445
0.00531793
0.00530902
0.00530442
0.00530213
0.00530103
0.00530051
0.00530026
0.00530014
0.00530007
0.00530003
0.0053
0.00529997
0.00529994
0.00529991
0.00529989
0.00529987
0.00529985
0.00529984
0.00529983
0.00529982
0.00529982
0.00529981
0.00529981
0.00529981
0.00529981
0.00529981
0.00529981
0.00529982
0.00529983
0.00529983
0.00529984
0.00529985
0.00529987
0.00529989
0.00529992
0.00529995
0.00529998
0.00530002
0.00530006
0.0053001
0.00530015
0.0053002
0.00530025
0.0053003
0.00530036
0.00530043
0.00530053
0.00530069
0.005301
0.00530163
0.00530293
0.00530558
0.0053108
0.00532075
0.00533891
0.00537069
0.00542401
0.00550984
0.00564286
0.00584194
0.00613083
0.00653877
0.00710098
0.00786098
0.00889642
0.0106007
0.017712
0.0180533
0.0106359
0.00886852
0.00781575
0.00705408
0.0064965
0.00609554
0.00581406
0.00562186
0.00549473
0.00541359
0.00536381
0.00533453
0.00531803
0.00530914
0.00530454
0.00530226
0.00530116
0.00530064
0.0053004
0.00530027
0.0053002
0.00530016
0.00530012
0.00530009
0.00530006
0.00530004
0.00530002
0.0053
0.00529998
0.00529997
0.00529996
0.00529995
0.00529994
0.00529994
0.00529994
0.00529994
0.00529994
0.00529993
0.00529994
0.00529995
0.00529996
0.00529996
0.00529997
0.00529998
0.0053
0.00530003
0.00530005
0.00530009
0.00530012
0.00530016
0.00530021
0.00530025
0.0053003
0.00530035
0.0053004
0.00530046
0.00530052
0.0053006
0.0053007
0.00530087
0.00530119
0.00530182
0.00530313
0.00530578
0.00531103
0.005321
0.0053392
0.00537104
0.00542443
0.00551037
0.00564351
0.00584273
0.00613176
0.00653983
0.00710213
0.00786209
0.00889723
0.0106005
0.0177059
0.0180594
0.0106369
0.00886827
0.00781516
0.00705346
0.00649595
0.00609511
0.00581375
0.00562167
0.00549463
0.00541357
0.00536385
0.00533461
0.00531814
0.00530927
0.00530468
0.0053024
0.0053013
0.00530078
0.00530054
0.00530042
0.00530035
0.0053003
0.00530026
0.00530023
0.0053002
0.00530017
0.00530015
0.00530013
0.00530011
0.0053001
0.00530009
0.00530008
0.00530008
0.00530008
0.00530007
0.00530007
0.00530007
0.00530007
0.00530007
0.00530008
0.00530009
0.0053001
0.00530011
0.00530012
0.00530014
0.00530017
0.0053002
0.00530024
0.00530028
0.00530032
0.00530036
0.00530041
0.00530046
0.00530052
0.00530058
0.00530064
0.0053007
0.00530078
0.00530089
0.00530106
0.00530138
0.00530203
0.00530334
0.00530601
0.00531127
0.00532128
0.00533952
0.00537142
0.00542489
0.00551094
0.0056442
0.00584357
0.00613276
0.00654097
0.00710336
0.00786329
0.00889811
0.0106003
0.0176993
0.0180659
0.010638
0.008868
0.00781455
0.0070528
0.00649538
0.00609466
0.00581343
0.00562146
0.00549453
0.00541356
0.0053639
0.0053347
0.00531826
0.0053094
0.00530483
0.00530255
0.00530146
0.00530094
0.00530069
0.00530057
0.0053005
0.00530045
0.00530041
0.00530038
0.00530035
0.00530032
0.0053003
0.00530027
0.00530026
0.00530024
0.00530023
0.00530022
0.00530022
0.00530022
0.00530021
0.00530021
0.00530021
0.00530021
0.00530022
0.00530023
0.00530024
0.00530025
0.00530026
0.00530027
0.0053003
0.00530033
0.00530036
0.0053004
0.00530044
0.00530048
0.00530053
0.00530059
0.00530064
0.0053007
0.00530076
0.00530082
0.0053009
0.00530098
0.00530109
0.00530127
0.0053016
0.00530225
0.00530358
0.00530626
0.00531154
0.00532158
0.00533987
0.00537184
0.0054254
0.00551155
0.00564496
0.00584448
0.00613383
0.00654219
0.00710468
0.00786457
0.00889905
0.0106001
0.0176923
0.0180728
0.0106392
0.00886773
0.0078139
0.00705212
0.00649477
0.00609418
0.00581309
0.00562126
0.00549444
0.00541355
0.00536396
0.0053348
0.0053184
0.00530956
0.00530499
0.00530272
0.00530163
0.00530111
0.00530086
0.00530073
0.00530066
0.00530061
0.00530057
0.00530054
0.0053005
0.00530048
0.00530045
0.00530043
0.00530041
0.00530039
0.00530038
0.00530038
0.00530037
0.00530037
0.00530036
0.00530036
0.00530036
0.00530036
0.00530037
0.00530038
0.00530039
0.0053004
0.00530042
0.00530043
0.00530046
0.00530049
0.00530053
0.00530057
0.00530061
0.00530066
0.00530071
0.00530077
0.00530083
0.00530089
0.00530096
0.00530103
0.00530111
0.0053012
0.00530132
0.0053015
0.00530183
0.00530249
0.00530383
0.00530653
0.00531184
0.00532191
0.00534025
0.00537228
0.00542594
0.00551222
0.00564577
0.00584546
0.00613499
0.00654351
0.0071061
0.00786595
0.00890006
0.0105999
0.0176848
0.0180801
0.0106404
0.00886745
0.00781322
0.0070514
0.00649415
0.00609369
0.00581275
0.00562105
0.00549434
0.00541355
0.00536402
0.00533492
0.00531854
0.00530972
0.00530517
0.0053029
0.00530181
0.00530129
0.00530104
0.00530091
0.00530084
0.00530078
0.00530074
0.00530071
0.00530067
0.00530064
0.00530061
0.00530059
0.00530057
0.00530055
0.00530054
0.00530054
0.00530053
0.00530053
0.00530052
0.00530052
0.00530052
0.00530052
0.00530053
0.00530054
0.00530056
0.00530057
0.00530058
0.00530061
0.00530063
0.00530067
0.00530071
0.00530075
0.0053008
0.00530085
0.00530091
0.00530097
0.00530103
0.0053011
0.00530117
0.00530125
0.00530133
0.00530143
0.00530156
0.00530175
0.00530209
0.00530276
0.00530411
0.00530683
0.00531216
0.00532227
0.00534066
0.00537277
0.00542653
0.00551294
0.00564665
0.00584651
0.00613623
0.00654493
0.00710763
0.00786744
0.00890114
0.0105997
0.0176769
0.0180878
0.0106417
0.00886716
0.00781252
0.00705065
0.00649349
0.00609318
0.00581239
0.00562083
0.00549424
0.00541355
0.0053641
0.00533504
0.0053187
0.0053099
0.00530536
0.0053031
0.00530201
0.00530149
0.00530123
0.0053011
0.00530103
0.00530097
0.00530093
0.00530089
0.00530085
0.00530082
0.00530079
0.00530076
0.00530074
0.00530073
0.00530071
0.00530071
0.0053007
0.0053007
0.00530069
0.00530069
0.00530069
0.00530069
0.0053007
0.00530071
0.00530073
0.00530074
0.00530076
0.00530079
0.00530082
0.00530085
0.0053009
0.00530095
0.005301
0.00530106
0.00530112
0.00530118
0.00530125
0.00530133
0.00530141
0.00530149
0.00530158
0.00530168
0.00530182
0.00530202
0.00530237
0.00530305
0.00530442
0.00530716
0.00531252
0.00532266
0.00534111
0.00537331
0.00542717
0.00551372
0.0056476
0.00584766
0.00613758
0.00654646
0.00710928
0.00786903
0.00890231
0.0105994
0.0176684
0.018096
0.0106431