/*--------------------------------*- C++ -*----------------------------------*\
  =========                 |
  \\      /  F ield         | OpenFOAM: The Open Source CFD Toolbox
   \\    /   O peration     | Website:  https://openfoam.org
    \\  /    A nd           | Version:  13
     \\/     M anipulation  |
\*---------------------------------------------------------------------------*/
FoamFile
{
    format      ascii;
    class       volVectorField;
    location    "0.1";
    object      U;
}
// * * * * * * * * * * * * * * * * * * * * * * * * * * * * * * * * * * * * * //

dimensions      [0 1 -1 0 0 0 0];

internalField   nonuniform List<vector> 
6400
(
(5.54745e-06 -5.53488e-06 0)
(-1.18898e-05 6.92022e-06 0)
(-6.49354e-05 2.19552e-05 0)
(-0.000142122 3.22457e-05 0)
(-0.000234742 3.76523e-05 0)
(-0.000335466 3.97383e-05 0)
(-0.000439388 3.98527e-05 0)
(-0.000543354 3.89259e-05 0)
(-0.000645514 3.75496e-05 0)
(-0.00074493 3.60623e-05 0)
(-0.000841249 3.46289e-05 0)
(-0.000934435 3.331e-05 0)
(-0.0010246 3.21113e-05 0)
(-0.00111189 3.1015e-05 0)
(-0.00119646 2.9996e-05 0)
(-0.00127839 2.90299e-05 0)
(-0.00135776 2.80959e-05 0)
(-0.0014346 2.71773e-05 0)
(-0.00150889 2.62614e-05 0)
(-0.00158062 2.5339e-05 0)
(-0.00164974 2.4403e-05 0)
(-0.0017162 2.34487e-05 0)
(-0.00177993 2.24727e-05 0)
(-0.00184086 2.14727e-05 0)
(-0.00189892 2.04474e-05 0)
(-0.00195405 1.93961e-05 0)
(-0.00200615 1.83185e-05 0)
(-0.00205517 1.72147e-05 0)
(-0.00210103 1.60852e-05 0)
(-0.00214366 1.49306e-05 0)
(-0.002183 1.37516e-05 0)
(-0.00221898 1.25494e-05 0)
(-0.00225154 1.13249e-05 0)
(-0.00228062 1.00794e-05 0)
(-0.00230618 8.81425e-06 0)
(-0.00232816 7.5308e-06 0)
(-0.00234652 6.23066e-06 0)
(-0.00236121 4.91423e-06 0)
(-0.00237222 3.57855e-06 0)
(-0.0023795 2.21967e-06 0)
(-0.00238296 9.02598e-07 0)
(-0.00238274 -4.68612e-07 0)
(-0.00237868 -1.83823e-06 0)
(-0.00237081 -3.21322e-06 0)
(-0.00235914 -4.59104e-06 0)
(-0.00234365 -5.9701e-06 0)
(-0.00232435 -7.34853e-06 0)
(-0.00230125 -8.72439e-06 0)
(-0.00227436 -1.00957e-05 0)
(-0.0022437 -1.14604e-05 0)
(-0.00220931 -1.28165e-05 0)
(-0.0021712 -1.41621e-05 0)
(-0.00212943 -1.54952e-05 0)
(-0.00208402 -1.6814e-05 0)
(-0.00203504 -1.81169e-05 0)
(-0.00198252 -1.94023e-05 0)
(-0.00192652 -2.06693e-05 0)
(-0.00186711 -2.1917e-05 0)
(-0.00180434 -2.31453e-05 0)
(-0.00173828 -2.43548e-05 0)
(-0.00166898 -2.55478e-05 0)
(-0.00159648 -2.67278e-05 0)
(-0.00152085 -2.79005e-05 0)
(-0.0014421 -2.90744e-05 0)
(-0.00136024 -3.02614e-05 0)
(-0.00127525 -3.14774e-05 0)
(-0.00118707 -3.27429e-05 0)
(-0.00109562 -3.40821e-05 0)
(-0.00100077 -3.5519e-05 0)
(-0.000902382 -3.70695e-05 0)
(-0.000800386 -3.87223e-05 0)
(-0.000694863 -4.04068e-05 0)
(-0.000586243 -4.19419e-05 0)
(-0.000475567 -4.2973e-05 0)
(-0.000364828 -4.28939e-05 0)
(-0.00025733 -4.07424e-05 0)
(-0.00015818 -3.51295e-05 0)
(-7.49642e-05 -2.44301e-05 0)
(-1.68235e-05 -8.78219e-06 0)
(4.36281e-06 4.35857e-06 0)
(-6.90704e-06 1.18451e-05 0)
(-6.74499e-05 6.73762e-05 0)
(-0.000159767 0.000115443 0)
(-0.000272654 0.000147664 0)
(-0.000399298 0.000166424 0)
(-0.000533983 0.000175575 0)
(-0.000672808 0.00017829 0)
(-0.000812861 0.000176936 0)
(-0.000952033 0.000173257 0)
(-0.00108894 0.000168451 0)
(-0.00122276 0.000163267 0)
(-0.00135311 0.000158103 0)
(-0.00147986 0.000153127 0)
(-0.00160299 0.00014837 0)
(-0.00172254 0.000143799 0)
(-0.00183855 0.000139352 0)
(-0.00195104 0.000134968 0)
(-0.00205999 0.000130593 0)
(-0.00216537 0.000126183 0)
(-0.00226711 0.000121707 0)
(-0.00236514 0.00011714 0)
(-0.00245937 0.000112466 0)
(-0.00254968 0.000107674 0)
(-0.00263599 0.000102758 0)
(-0.00271818 9.77152e-05 0)
(-0.00279614 9.25444e-05 0)
(-0.00286977 8.72468e-05 0)
(-0.00293897 8.18248e-05 0)
(-0.00300364 7.6282e-05 0)
(-0.00306367 7.06229e-05 0)
(-0.00311898 6.48525e-05 0)
(-0.00316949 5.89766e-05 0)
(-0.00321509 5.30011e-05 0)
(-0.00325573 4.69327e-05 0)
(-0.00329133 4.0778e-05 0)
(-0.00332182 3.45444e-05 0)
(-0.00334714 2.82391e-05 0)
(-0.00336725 2.18695e-05 0)
(-0.00338209 1.54413e-05 0)
(-0.00339162 8.96057e-06 0)
(-0.00339582 2.45359e-06 0)
(-0.00339465 -4.08181e-06 0)
(-0.00338809 -1.06495e-05 0)
(-0.00337614 -1.72322e-05 0)
(-0.00335879 -2.38199e-05 0)
(-0.00333605 -3.0403e-05 0)
(-0.00330791 -3.69723e-05 0)
(-0.00327441 -4.35182e-05 0)
(-0.00323557 -5.00313e-05 0)
(-0.00319142 -5.65019e-05 0)
(-0.003142 -6.29206e-05 0)
(-0.00308736 -6.92778e-05 0)
(-0.00302757 -7.55643e-05 0)
(-0.00296268 -8.17714e-05 0)
(-0.00289276 -8.78907e-05 0)
(-0.00281791 -9.39149e-05 0)
(-0.00273819 -9.98379e-05 0)
(-0.00265369 -0.000105656 0)
(-0.00256452 -0.000111367 0)
(-0.00247077 -0.000116974 0)
(-0.00237252 -0.00012248 0)
(-0.00226987 -0.000127899 0)
(-0.00216289 -0.000133249 0)
(-0.00205166 -0.000138558 0)
(-0.00193621 -0.000143867 0)
(-0.00181656 -0.000149227 0)
(-0.00169273 -0.000154695 0)
(-0.00156468 -0.000160326 0)
(-0.00143242 -0.000166146 0)
(-0.00129597 -0.000172108 0)
(-0.00115556 -0.000178021 0)
(-0.00101163 -0.000183452 0)
(-0.000865086 -0.000187612 0)
(-0.000717429 -0.000189256 0)
(-0.00057088 -0.000186598 0)
(-0.00042848 -0.000177234 0)
(-0.000294259 -0.000157929 0)
(-0.000174125 -0.000124715 0)
(-7.51576e-05 -7.50688e-05 0)
(-8.76942e-06 -1.68146e-05 0)
(-2.20998e-05 6.50261e-05 0)
(-0.000115836 0.000159774 0)
(-0.000225723 0.000225232 0)
(-0.000347542 0.000268844 0)
(-0.000478119 0.000295827 0)
(-0.000614443 0.000310529 0)
(-0.000754587 0.000316378 0)
(-0.000896755 0.000316067 0)
(-0.0010393 0.00031175 0)
(-0.00118086 0.000305081 0)
(-0.00132042 0.000297229 0)
(-0.0014573 0.000288932 0)
(-0.00159109 0.000280589 0)
(-0.00172154 0.000272366 0)
(-0.00184852 0.000264289 0)
(-0.00197197 0.000256315 0)
(-0.0020918 0.000248372 0)
(-0.00220796 0.00024039 0)
(-0.00232037 0.000232307 0)
(-0.00242894 0.000224075 0)
(-0.00253357 0.000215658 0)
(-0.00263414 0.000207031 0)
(-0.00273054 0.000198178 0)
(-0.00282266 0.000189091 0)
(-0.00291038 0.000179765 0)
(-0.00299358 0.000170202 0)
(-0.00307215 0.000160403 0)
(-0.00314597 0.000150375 0)
(-0.00321494 0.000140126 0)
(-0.00327895 0.000129663 0)
(-0.0033379 0.000118997 0)
(-0.00339171 0.000108139 0)
(-0.00344028 9.71006e-05 0)
(-0.00348353 8.58936e-05 0)
(-0.00352139 7.45311e-05 0)
(-0.00355378 6.30264e-05 0)
(-0.00358065 5.13931e-05 0)
(-0.00360195 3.96451e-05 0)
(-0.00361761 2.77964e-05 0)
(-0.00362761 1.58625e-05 0)
(-0.0036319 3.86456e-06 0)
(-0.00363046 -8.1878e-06 0)
(-0.00362326 -2.02801e-05 0)
(-0.00361031 -3.2394e-05 0)
(-0.00359159 -4.45126e-05 0)
(-0.00356712 -5.66189e-05 0)
(-0.00353689 -6.86955e-05 0)
(-0.00350094 -8.07252e-05 0)
(-0.00345929 -9.26905e-05 0)
(-0.00341198 -0.000104574 0)
(-0.00335906 -0.000116358 0)
(-0.00330058 -0.000128024 0)
(-0.00323659 -0.000139558 0)
(-0.00316719 -0.000150941 0)
(-0.00309243 -0.000162158 0)
(-0.00301241 -0.000173197 0)
(-0.00292722 -0.000184044 0)
(-0.00283696 -0.000194691 0)
(-0.00274173 -0.000205133 0)
(-0.00264164 -0.000215369 0)
(-0.00253679 -0.000225408 0)
(-0.00242729 -0.000235265 0)
(-0.00231325 -0.000244969 0)
(-0.00219475 -0.00025456 0)
(-0.0020719 -0.000264092 0)
(-0.00194476 -0.000273629 0)
(-0.00181342 -0.00028323 0)
(-0.00167799 -0.000292924 0)
(-0.00153864 -0.000302666 0)
(-0.00139566 -0.000312258 0)
(-0.00124953 -0.000321262 0)
(-0.00110102 -0.000328893 0)
(-0.000951214 -0.000333935 0)
(-0.000801571 -0.000334688 0)
(-0.000653818 -0.000328963 0)
(-0.000509823 -0.00031403 0)
(-0.000371584 -0.000286398 0)
(-0.000242239 -0.000241595 0)
(-0.000125093 -0.000174123 0)
(-2.4401e-05 -7.50033e-05 0)
(-3.26264e-05 0.000142656 0)
(-0.000148767 0.00027299 0)
(-0.000270469 0.000347183 0)
(-0.000397931 0.000396009 0)
(-0.000529848 0.000427581 0)
(-0.000664874 0.000446102 0)
(-0.000802564 0.000454667 0)
(-0.000942175 0.000455808 0)
(-0.00108269 0.000451684 0)
(-0.00122307 0.000444095 0)
(-0.00136233 0.000434434 0)
(-0.00149973 0.000423681 0)
(-0.00163466 0.000412446 0)
(-0.00176672 0.000401053 0)
(-0.00189564 0.000389628 0)
(-0.00202122 0.000378179 0)
(-0.0021433 0.000366659 0)
(-0.00226176 0.000355003 0)
(-0.00237648 0.000343144 0)
(-0.00248733 0.000331029 0)
(-0.00259419 0.000318615 0)
(-0.00269694 0.000305873 0)
(-0.00279545 0.000292786 0)
(-0.0028896 0.000279344 0)
(-0.00297926 0.000265544 0)
(-0.0030643 0.000251387 0)
(-0.0031446 0.000236881 0)
(-0.00322006 0.000222034 0)
(-0.00329055 0.000206859 0)
(-0.00335598 0.00019137 0)
(-0.00341623 0.00017558 0)
(-0.00347122 0.000159508 0)
(-0.00352085 0.000143171 0)
(-0.00356504 0.000126586 0)
(-0.00360372 0.000109773 0)
(-0.00363681 9.27526e-05 0)
(-0.00366426 7.55444e-05 0)
(-0.00368599 5.81697e-05 0)
(-0.00370197 4.065e-05 0)
(-0.00371216 2.30079e-05 0)
(-0.00371651 5.26824e-06 0)
(-0.003715 -1.25484e-05 0)
(-0.00370761 -3.04187e-05 0)
(-0.00369433 -4.83178e-05 0)
(-0.00367516 -6.62211e-05 0)
(-0.0036501 -8.41034e-05 0)
(-0.00361916 -0.000101939 0)
(-0.00358237 -0.000119703 0)
(-0.00353976 -0.000137368 0)
(-0.00349136 -0.000154909 0)
(-0.00343722 -0.0001723 0)
(-0.0033774 -0.000189515 0)
(-0.00331196 -0.000206529 0)
(-0.00324098 -0.000223317 0)
(-0.00316454 -0.000239857 0)
(-0.00308273 -0.000256126 0)
(-0.00299564 -0.000272107 0)
(-0.00290338 -0.000287784 0)
(-0.00280606 -0.000303148 0)
(-0.0027038 -0.000318196 0)
(-0.00259671 -0.000332932 0)
(-0.00248493 -0.000347375 0)
(-0.00236856 -0.000361552 0)
(-0.00224775 -0.000375507 0)
(-0.00212263 -0.000389292 0)
(-0.00199334 -0.000402959 0)
(-0.00186006 -0.000416537 0)
(-0.00172302 -0.000429991 0)
(-0.00158256 -0.000443164 0)
(-0.00143912 -0.000455691 0)
(-0.00129337 -0.000466912 0)
(-0.00114614 -0.000475795 0)
(-0.000998464 -0.000480901 0)
(-0.000851465 -0.000480392 0)
(-0.000706204 -0.00047208 0)
(-0.000563465 -0.000453411 0)
(-0.000423727 -0.000421239 0)
(-0.000288428 -0.000371236 0)
(-0.00015896 -0.000294857 0)
(-3.51482e-05 -0.000158501 0)
(-3.83158e-05 0.000236287 0)
(-0.000168683 0.000400597 0)
(-0.000299399 0.000478498 0)
(-0.000432233 0.000528216 0)
(-0.000566426 0.00056128 0)
(-0.000701366 0.000581725 0)
(-0.000837505 0.000592109 0)
(-0.000974888 0.000594542 0)
(-0.0011131 0.000590939 0)
(-0.00125148 0.000583012 0)
(-0.00138927 0.000572198 0)
(-0.00152576 0.000559596 0)
(-0.00166032 0.000545969 0)
(-0.00179246 0.000531778 0)
(-0.0019218 0.000517258 0)
(-0.00204804 0.000502494 0)
(-0.00217096 0.000487483 0)
(-0.00229037 0.000472183 0)
(-0.0024061 0.000456541 0)
(-0.002518 0.000440506 0)
(-0.00262593 0.000424039 0)
(-0.00272974 0.000407112 0)
(-0.00282929 0.000389706 0)
(-0.00292445 0.000371816 0)
(-0.00301509 0.00035344 0)
(-0.00310107 0.000334583 0)
(-0.00318227 0.000315257 0)
(-0.00325858 0.000295476 0)
(-0.00332987 0.000275255 0)
(-0.00339604 0.000254614 0)
(-0.00345698 0.000233574 0)
(-0.00351261 0.000212158 0)
(-0.00356282 0.000190389 0)
(-0.00360753 0.000168293 0)
(-0.00364666 0.000145894 0)
(-0.00368015 0.00012322 0)
(-0.00370793 0.000100298 0)
(-0.00372993 7.71557e-05 0)
(-0.00374612 5.38229e-05 0)
(-0.00375645 3.03292e-05 0)
(-0.00376088 6.70549e-06 0)
(-0.00375938 -1.70182e-05 0)
(-0.00375194 -4.08106e-05 0)
(-0.00373854 -6.46392e-05 0)
(-0.00371919 -8.84713e-05 0)
(-0.00369387 -0.000112273 0)
(-0.00366262 -0.000136011 0)
(-0.00362545 -0.000159651 0)
(-0.00358238 -0.000183158 0)
(-0.00353347 -0.000206498 0)
(-0.00347876 -0.000229635 0)
(-0.00341829 -0.000252534 0)
(-0.00335215 -0.000275163 0)
(-0.00328041 -0.000297488 0)
(-0.00320315 -0.000319476 0)
(-0.00312046 -0.0003411 0)
(-0.00303244 -0.000362331 0)
(-0.00293921 -0.000383149 0)
(-0.00284088 -0.000403535 0)
(-0.00273757 -0.000423482 0)
(-0.00262943 -0.000442988 0)
(-0.00251659 -0.000462066 0)
(-0.0023992 -0.000480738 0)
(-0.00227742 -0.000499036 0)
(-0.00215144 -0.000516994 0)
(-0.00202146 -0.000534634 0)
(-0.00188774 -0.00055193 0)
(-0.00175062 -0.000568763 0)
(-0.00161052 -0.000584857 0)
(-0.001468 -0.000599699 0)
(-0.00132374 -0.000612476 0)
(-0.00117851 -0.000622036 0)
(-0.00103314 -0.0006269 0)
(-0.000888321 -0.00062533 0)
(-0.000744509 -0.000615397 0)
(-0.000601679 -0.000594976 0)
(-0.000459394 -0.000561473 0)
(-0.000318357 -0.000510716 0)
(-0.000179422 -0.000430537 0)
(-4.09332e-05 -0.000258421 0)
(-4.07483e-05 0.000338836 0)
(-0.000179461 0.000537282 0)
(-0.000316946 0.00061658 0)
(-0.000454803 0.000664521 0)
(-0.000592109 0.000696702 0)
(-0.00072837 0.000717289 0)
(-0.000864449 0.000728353 0)
(-0.00100088 0.000731521 0)
(-0.00113771 0.000728338 0)
(-0.00127463 0.000720286 0)
(-0.00141115 0.000708704 0)
(-0.00154667 0.0006947 0)
(-0.00168062 0.000679106 0)
(-0.0018125 0.00066248 0)
(-0.00194185 0.000645154 0)
(-0.00206835 0.000627287 0)
(-0.0021917 0.000608935 0)
(-0.00231165 0.000590094 0)
(-0.00242802 0.000570731 0)
(-0.0025406 0.000550813 0)
(-0.00264924 0.000530308 0)
(-0.00275378 0.000509195 0)
(-0.00285406 0.000487461 0)
(-0.00294994 0.000465103 0)
(-0.00304128 0.000442125 0)
(-0.00312794 0.000418539 0)
(-0.0032098 0.000394359 0)
(-0.00328673 0.000369604 0)
(-0.00335862 0.000344297 0)
(-0.00342535 0.000318464 0)
(-0.00348682 0.00029213 0)
(-0.00354293 0.000265324 0)
(-0.00359359 0.000238078 0)
(-0.00363871 0.000210421 0)
(-0.00367822 0.000182388 0)
(-0.00371203 0.00015401 0)
(-0.00374009 0.000125324 0)
(-0.00376234 9.63631e-05 0)
(-0.00377872 6.71652e-05 0)
(-0.0037892 3.77669e-05 0)
(-0.00379373 8.20658e-06 0)
(-0.00379229 -2.14775e-05 0)
(-0.00378486 -5.1246e-05 0)
(-0.00377143 -8.10585e-05 0)
(-0.00375199 -0.000110874 0)
(-0.00372655 -0.000140651 0)
(-0.00369511 -0.000170346 0)
(-0.00365771 -0.000199917 0)
(-0.00361437 -0.00022932 0)
(-0.00356513 -0.000258512 0)
(-0.00351004 -0.000287448 0)
(-0.00344916 -0.000316085 0)
(-0.00338255 -0.00034438 0)
(-0.00331029 -0.00037229 0)
(-0.00323247 -0.000399775 0)
(-0.00314919 -0.000426795 0)
(-0.00306054 -0.000453316 0)
(-0.00296664 -0.000479306 0)
(-0.00286762 -0.000504739 0)
(-0.00276362 -0.000529597 0)
(-0.00265477 -0.000553871 0)
(-0.00254124 -0.000577559 0)
(-0.0024232 -0.000600671 0)
(-0.00230085 -0.000623218 0)
(-0.0021744 -0.000645204 0)
(-0.00204412 -0.000666604 0)
(-0.00191034 -0.000687329 0)
(-0.00177343 -0.000707174 0)
(-0.00163389 -0.000725759 0)
(-0.00149228 -0.000742472 0)
(-0.00134923 -0.000756428 0)
(-0.00120537 -0.00076647 0)
(-0.00106126 -0.000771229 0)
(-0.000917226 -0.000769204 0)
(-0.000773256 -0.000758848 0)
(-0.000628825 -0.000738532 0)
(-0.000483085 -0.000706149 0)
(-0.000336642 -0.000657359 0)
(-0.000190541 -0.00057568 0)
(-4.34098e-05 -0.000367498 0)
(-4.12784e-05 0.000445648 0)
(-0.000184275 0.000679573 0)
(-0.000326575 0.000759956 0)
(-0.000468823 0.000804922 0)
(-0.000609598 0.000834723 0)
(-0.00074816 0.000854059 0)
(-0.000885441 0.000864715 0)
(-0.00102221 0.000867894 0)
(-0.0011588 0.000864757 0)
(-0.00129518 0.000856493 0)
(-0.00143108 0.000844258 0)
(-0.00156608 0.000829082 0)
(-0.00169969 0.000811795 0)
(-0.00183143 0.000793002 0)
(-0.00196087 0.000773101 0)
(-0.00208762 0.00075232 0)
(-0.00221136 0.00073077 0)
(-0.00233182 0.000708488 0)
(-0.00244876 0.000685476 0)
(-0.00256197 0.00066172 0)
(-0.00267128 0.000637203 0)
(-0.00277649 0.000611916 0)
(-0.00287745 0.000585854 0)
(-0.00297401 0.000559021 0)
(-0.00306601 0.000531429 0)
(-0.00315332 0.000503095 0)
(-0.00323581 0.000474038 0)
(-0.00331334 0.000444286 0)
(-0.0033858 0.000413866 0)
(-0.00345308 0.00038281 0)
(-0.00351506 0.000351151 0)
(-0.00357165 0.000318923 0)
(-0.00362276 0.000286165 0)
(-0.00366829 0.000252914 0)
(-0.00370817 0.00021921 0)
(-0.00374231 0.000185092 0)
(-0.00377067 0.000150604 0)
(-0.00379317 0.000115786 0)
(-0.00380977 8.0684e-05 0)
(-0.00382043 4.53413e-05 0)
(-0.00382509 9.80399e-06 0)
(-0.00382374 -2.58816e-05 0)
(-0.00381636 -6.16679e-05 0)
(-0.00380293 -9.75067e-05 0)
(-0.00378345 -0.000133348 0)
(-0.00375792 -0.000169143 0)
(-0.00372635 -0.000204839 0)
(-0.00368877 -0.000240385 0)
(-0.0036452 -0.000275728 0)
(-0.00359569 -0.000310816 0)
(-0.00354028 -0.000345595 0)
(-0.00347904 -0.000380013 0)
(-0.00341202 -0.000414015 0)
(-0.0033393 -0.000447551 0)
(-0.00326099 -0.00048057 0)
(-0.00317716 -0.000513022 0)
(-0.00308794 -0.000544862 0)
(-0.00299344 -0.000576049 0)
(-0.00289379 -0.000606545 0)
(-0.00278914 -0.00063632 0)
(-0.00267964 -0.000665351 0)
(-0.00256547 -0.00069362 0)
(-0.00244683 -0.000721116 0)
(-0.00232393 -0.000747822 0)
(-0.00219703 -0.000773704 0)
(-0.00206643 -0.000798686 0)
(-0.00193249 -0.000822615 0)
(-0.00179562 -0.000845211 0)
(-0.00165631 -0.000866025 0)
(-0.00151509 -0.000884394 0)
(-0.00137249 -0.000899435 0)
(-0.00122899 -0.00091008 0)
(-0.0010849 -0.000915146 0)
(-0.000940267 -0.000913436 0)
(-0.000794785 -0.000903797 0)
(-0.0006477 -0.000885027 0)
(-0.000498107 -0.000855296 0)
(-0.000346888 -0.000809671 0)
(-0.000195622 -0.000726737 0)
(-4.39758e-05 -0.000480998 0)
(-4.08453e-05 0.000553844 0)
(-0.000185487 0.000824991 0)
(-0.000330991 0.000907318 0)
(-0.000476866 0.000949168 0)
(-0.000621091 0.000975865 0)
(-0.000762502 0.000993029 0)
(-0.00090188 0.0010024 0)
(-0.00104003 0.00100488 0)
(-0.00117742 0.0010013 0)
(-0.00131421 0.000992561 0)
(-0.0014503 0.00097959 0)
(-0.00158541 0.000963287 0)
(-0.00171916 0.000944429 0)
(-0.00185113 0.000923623 0)
(-0.0019809 0.0009013 0)
(-0.0021081 0.000877739 0)
(-0.00223238 0.000853098 0)
(-0.00235347 0.000827459 0)
(-0.00247109 0.000800855 0)
(-0.00258503 0.000773298 0)
(-0.00269507 0.000744791 0)
(-0.00280104 0.000715338 0)
(-0.00290275 0.000684947 0)
(-0.00300005 0.000653631 0)
(-0.00309278 0.00062141 0)
(-0.00318081 0.000588308 0)
(-0.00326398 0.000554352 0)
(-0.00334217 0.000519575 0)
(-0.00341526 0.000484014 0)
(-0.00348314 0.000447704 0)
(-0.00354569 0.000410687 0)
(-0.00360281 0.000373004 0)
(-0.00365441 0.000334699 0)
(-0.0037004 0.000295817 0)
(-0.00374069 0.000256404 0)
(-0.00377522 0.000216508 0)
(-0.00380391 0.000176177 0)
(-0.00382671 0.000135463 0)
(-0.00384356 9.44143e-05 0)
(-0.00385442 5.30849e-05 0)
(-0.00385925 1.15276e-05 0)
(-0.00385802 -3.02033e-05 0)
(-0.00385071 -7.20522e-05 0)
(-0.00383731 -0.000113963 0)
(-0.0038178 -0.000155877 0)
(-0.0037922 -0.000197736 0)
(-0.00376051 -0.00023948 0)
(-0.00372275 -0.000281049 0)
(-0.00367896 -0.000322381 0)
(-0.00362917 -0.000363413 0)
(-0.00357344 -0.000404083 0)
(-0.00351181 -0.000444329 0)
(-0.00344436 -0.000484086 0)
(-0.00337117 -0.000523293 0)
(-0.00329232 -0.000561889 0)
(-0.00320793 -0.000599813 0)
(-0.00311809 -0.000637009 0)
(-0.00302293 -0.000673424 0)
(-0.00292259 -0.000709006 0)
(-0.00281722 -0.000743712 0)
(-0.002707 -0.000777501 0)
(-0.0025921 -0.000810336 0)
(-0.00247274 -0.000842178 0)
(-0.00234915 -0.000872981 0)
(-0.00222163 -0.000902668 0)
(-0.00209047 -0.000931115 0)
(-0.00195606 -0.000958112 0)
(-0.00181882 -0.000983327 0)
(-0.00167919 -0.00100627 0)
(-0.00153766 -0.00102627 0)
(-0.00139465 -0.00104252 0)
(-0.00125047 -0.00105407 0)
(-0.00110527 -0.00105997 0)
(-0.000958906 -0.00105932 0)
(-0.000810948 -0.00105131 0)
(-0.000660609 -0.00103503 0)
(-0.000507154 -0.00100868 0)
(-0.000351917 -0.00096633 0)
(-0.000197121 -0.000881205 0)
(-4.35885e-05 -0.000596019 0)
(-4.00426e-05 0.000661829 0)
(-0.000184845 0.00097187 0)
(-0.000332351 0.00105752 0)
(-0.000481112 0.00109677 0)
(-0.000628548 0.00112024 0)
(-0.000773026 0.00113475 0)
(-0.000915057 0.00114223 0)
(-0.00105535 0.00114343 0)
(-0.00119439 0.00113893 0)
(-0.00133242 0.00112936 0)
(-0.00146947 0.00111545 0)
(-0.00160536 0.00109793 0)
(-0.00173981 0.0010775 0)
(-0.00187246 0.00105473 0)
(-0.00200293 0.00103006 0)
(-0.00213088 0.00100379 0)
(-0.00225596 0.000976123 0)
(-0.00237788 0.000947178 0)
(-0.00249637 0.000917019 0)
(-0.00261119 0.000885684 0)
(-0.00272213 0.000853198 0)
(-0.00282899 0.000819581 0)
(-0.00293158 0.000784853 0)
(-0.00302975 0.00074904 0)
(-0.00312333 0.000712169 0)
(-0.00321218 0.000674275 0)
(-0.00329614 0.000635392 0)
(-0.0033751 0.000595561 0)
(-0.00344892 0.000554824 0)
(-0.00351749 0.000513226 0)
(-0.00358069 0.000470814 0)
(-0.00363842 0.000427637 0)
(-0.00369059 0.000383746 0)
(-0.00373711 0.000339192 0)
(-0.00377789 0.000294028 0)
(-0.00381285 0.00024831 0)
(-0.00384194 0.000202094 0)
(-0.00386508 0.000155436 0)
(-0.00388223 0.000108396 0)
(-0.00389334 6.1032e-05 0)
(-0.00389836 1.34064e-05 0)
(-0.00389728 -3.44191e-05 0)
(-0.00389006 -8.2381e-05 0)
(-0.00387669 -0.000130414 0)
(-0.00385717 -0.000178453 0)
(-0.00383149 -0.00022643 0)
(-0.00379967 -0.000274277 0)
(-0.00376172 -0.000321923 0)
(-0.00371768 -0.000369298 0)
(-0.00366759 -0.00041633 0)
(-0.00361149 -0.000462947 0)
(-0.00354943 -0.000509076 0)
(-0.0034815 -0.000554643 0)
(-0.00340776 -0.000599575 0)
(-0.00332831 -0.0006438 0)
(-0.00324326 -0.000687246 0)
(-0.0031527 -0.000729845 0)
(-0.00305678 -0.000771528 0)
(-0.00295564 -0.000812233 0)
(-0.00284942 -0.000851896 0)
(-0.00273832 -0.00089046 0)
(-0.00262251 -0.000927865 0)
(-0.00250224 -0.000964045 0)
(-0.00237774 -0.000998919 0)
(-0.00224931 -0.00103237 0)
(-0.00211727 -0.00106424 0)
(-0.00198198 -0.00109426 0)
(-0.00184385 -0.00112207 0)
(-0.0017033 -0.00114717 0)
(-0.00156071 -0.00116894 0)
(-0.00141643 -0.00118662 0)
(-0.00127067 -0.00119946 0)
(-0.00112343 -0.00120671 0)
(-0.000974515 -0.00120774 0)
(-0.000823467 -0.001202 0)
(-0.000669613 -0.0011887 0)
(-0.000512507 -0.00116584 0)
(-0.000353977 -0.00112619 0)
(-0.000196841 -0.00103742 0)
(-4.28601e-05 -0.000711009 0)
(-3.92181e-05 0.000768936 0)
(-0.000183566 0.00111926 0)
(-0.000332313 0.0012097 0)
(-0.000483361 0.0012472 0)
(-0.000633694 0.00126772 0)
(-0.000781246 0.00127947 0)
(-0.000926222 0.00128472 0)
(-0.00106916 0.00128422 0)
(-0.00121048 0.00127838 0)
(-0.00135044 0.00126764 0)
(-0.00148911 0.00125252 0)
(-0.0016264 0.00123363 0)
(-0.0017621 0.00121153 0)
(-0.00189591 0.00118676 0)
(-0.0020275 0.00115973 0)
(-0.00215655 0.00113077 0)
(-0.00228272 0.0011001 0)
(-0.00240574 0.00106787 0)
(-0.00252533 0.00103417 0)
(-0.00264124 0.000999061 0)
(-0.00275326 0.000962592 0)
(-0.00286119 0.000924798 0)
(-0.00296484 0.000885717 0)
(-0.00306404 0.000845383 0)
(-0.00315861 0.000803837 0)
(-0.00324842 0.00076112 0)
(-0.00333331 0.000717276 0)
(-0.00341316 0.000672354 0)
(-0.00348782 0.000626403 0)
(-0.00355719 0.000579476 0)
(-0.00362115 0.000531626 0)
(-0.0036796 0.000482911 0)
(-0.00373243 0.000433387 0)
(-0.00377956 0.000383114 0)
(-0.0038209 0.000332152 0)
(-0.00385637 0.000280562 0)
(-0.00388591 0.000228409 0)
(-0.00390946 0.000175757 0)
(-0.00392695 0.000122671 0)
(-0.00393835 6.92193e-05 0)
(-0.0039436 1.547e-05 0)
(-0.00394269 -3.85066e-05 0)
(-0.00393558 -9.2639e-05 0)
(-0.00392226 -0.000146854 0)
(-0.00390272 -0.000201078 0)
(-0.00387696 -0.000255234 0)
(-0.00384499 -0.000309245 0)
(-0.00380683 -0.000363031 0)
(-0.00376251 -0.000416514 0)
(-0.00371206 -0.00046961 0)
(-0.00365554 -0.000522239 0)
(-0.003593 -0.000574316 0)
(-0.0035245 -0.000625757 0)
(-0.00345013 -0.000676479 0)
(-0.00336998 -0.000726396 0)
(-0.00328415 -0.000775426 0)
(-0.00319276 -0.000823486 0)
(-0.00309594 -0.000870494 0)
(-0.00299383 -0.00091637 0)
(-0.0028866 -0.000961037 0)
(-0.00277442 -0.00100441 0)
(-0.0026575 -0.00104642 0)
(-0.00253606 -0.00108696 0)
(-0.00241037 -0.00112592 0)
(-0.00228071 -0.00116315 0)
(-0.00214739 -0.00119845 0)
(-0.00201078 -0.00123154 0)
(-0.00187123 -0.00126202 0)
(-0.00172913 -0.00128941 0)
(-0.00158481 -0.00131314 0)
(-0.00143853 -0.00133256 0)
(-0.00129042 -0.00134707 0)
(-0.00114046 -0.00135612 0)
(-0.000988428 -0.00135928 0)
(-0.000833947 -0.00135614 0)
(-0.000676529 -0.00134593 0)
(-0.000516049 -0.00132626 0)
(-0.00035479 -0.00128843 0)
(-0.000196029 -0.00119449 0)
(-4.21434e-05 -0.000825361 0)
(-3.85492e-05 0.000875092 0)
(-0.000182414 0.00126678 0)
(-0.000332052 0.00136334 0)
(-0.000485002 0.00140004 0)
(-0.000637954 0.00141811 0)
(-0.000788492 0.00142724 0)
(-0.000936534 0.00143015 0)
(-0.00108242 0.00142769 0)
(-0.00122646 0.00142021 0)
(-0.00136886 0.00140799 0)
(-0.00150971 0.00139141 0)
(-0.00164894 0.00137093 0)
(-0.00178639 0.00134702 0)
(-0.00192182 0.00132015 0)
(-0.00205493 0.00129071 0)
(-0.00218544 0.00125903 0)
(-0.00231303 0.00122533 0)
(-0.00243743 0.0011898 0)
(-0.00255837 0.00115254 0)
(-0.00267561 0.00111364 0)
(-0.00278894 0.00107317 0)
(-0.00289814 0.00103117 0)
(-0.00300302 0.00098771 0)
(-0.00310342 0.000942824 0)
(-0.00319916 0.000896565 0)
(-0.00329008 0.000848986 0)
(-0.00337605 0.000800139 0)
(-0.00345692 0.000750081 0)
(-0.00353256 0.00069887 0)
(-0.00360286 0.000646566 0)
(-0.00366769 0.000593229 0)
(-0.00372695 0.000538924 0)
(-0.00378055 0.000483715 0)
(-0.00382838 0.000427668 0)
(-0.00387037 0.000370851 0)
(-0.00390643 0.000313334 0)
(-0.0039365 0.000255186 0)
(-0.0039605 0.000196479 0)
(-0.0039784 0.000137288 0)
(-0.00399012 7.76855e-05 0)
(-0.00399564 1.77492e-05 0)
(-0.00399493 -4.24433e-05 0)
(-0.00398794 -0.000102812 0)
(-0.00397468 -0.000163277 0)
(-0.00395512 -0.000223754 0)
(-0.00392927 -0.000284159 0)
(-0.00389714 -0.000344406 0)
(-0.00385873 -0.000404406 0)
(-0.00381409 -0.00046407 0)
(-0.00376324 -0.000523306 0)
(-0.00370623 -0.000582022 0)
(-0.00364312 -0.000640124 0)
(-0.00357398 -0.000697516 0)
(-0.00349888 -0.000754103 0)
(-0.00341791 -0.000809789 0)
(-0.00333119 -0.000864477 0)
(-0.00323882 -0.000918071 0)
(-0.00314094 -0.000970474 0)
(-0.00303769 -0.00102159 0)
(-0.00292925 -0.00107133 0)
(-0.00281578 -0.00111958 0)
(-0.0026975 -0.00116624 0)
(-0.00257464 -0.00121119 0)
(-0.00244744 -0.0012543 0)
(-0.0023162 -0.00129537 0)
(-0.00218121 -0.00133419 0)
(-0.00204281 -0.00137044 0)
(-0.00190135 -0.00140373 0)
(-0.00175714 -0.0014336 0)
(-0.00161049 -0.00145954 0)
(-0.0014616 -0.00148101 0)
(-0.00131057 -0.00149753 0)
(-0.00115739 -0.00150871 0)
(-0.00100188 -0.00151427 0)
(-0.000843794 -0.00151385 0)
(-0.000682851 -0.00150659 0)
(-0.000519227 -0.00148958 0)
(-0.000355566 -0.00145258 0)
(-0.00019546 -0.0013521 0)
(-4.16131e-05 -0.000939075 0)
(-3.81047e-05 0.000980561 0)
(-0.000181805 0.00141447 0)
(-0.000332314 0.00151825 0)
(-0.000487008 0.00155503 0)
(-0.000642404 0.00157124 0)
(-0.000795835 0.00157803 0)
(-0.000946978 0.00157867 0)
(-0.00109598 0.00157415 0)
(-0.00124303 0.00156482 0)
(-0.00138825 0.00155088 0)
(-0.00153169 0.0015326 0)
(-0.0016733 0.00151031 0)
(-0.00181294 0.00148442 0)
(-0.0019504 0.00145532 0)
(-0.00208543 0.00142337 0)
(-0.00221774 0.00138889 0)
(-0.00234707 0.00135212 0)
(-0.00247314 0.00131323 0)
(-0.0025957 0.00127238 0)
(-0.00271452 0.00122965 0)
(-0.00282937 0.00118514 0)
(-0.00294005 0.00113891 0)
(-0.00304637 0.00109102 0)
(-0.00314816 0.00104154 0)
(-0.00324523 0.000990519 0)
(-0.00333744 0.000938029 0)
(-0.00342464 0.000884129 0)
(-0.00350668 0.000828882 0)
(-0.00358344 0.000772356 0)
(-0.00365479 0.000714618 0)
(-0.00372062 0.000655736 0)
(-0.00378081 0.000595781 0)
(-0.00383527 0.000534826 0)
(-0.00388391 0.000472944 0)
(-0.00392663 0.000410209 0)
(-0.00396336 0.000346698 0)
(-0.00399402 0.000282489 0)
(-0.00401855 0.000217661 0)
(-0.0040369 0.000152294 0)
(-0.004049 8.64711e-05 0)
(-0.00405483 2.02757e-05 0)
(-0.00405433 -4.62064e-05 0)
(-0.0040475 -0.000112888 0)
(-0.0040343 -0.000179679 0)
(-0.00401472 -0.000246488 0)
(-0.00398877 -0.000313223 0)
(-0.00395645 -0.000379787 0)
(-0.00391777 -0.000446084 0)
(-0.00387276 -0.000512014 0)
(-0.00382145 -0.000577476 0)
(-0.00376389 -0.000642366 0)
(-0.00370014 -0.000706581 0)
(-0.00363026 -0.000770014 0)
(-0.00355432 -0.000832556 0)
(-0.00347242 -0.0008941 0)
(-0.00338467 -0.000954536 0)
(-0.00329117 -0.00101375 0)
(-0.00319207 -0.00107164 0)
(-0.0030875 -0.00112808 0)
(-0.00297764 -0.00118297 0)
(-0.00286266 -0.00123618 0)
(-0.00274277 -0.00128759 0)
(-0.0026182 -0.00133704 0)
(-0.00248919 -0.00138439 0)
(-0.00235602 -0.00142941 0)
(-0.00221897 -0.00147186 0)
(-0.00207837 -0.00151142 0)
(-0.00193452 -0.0015477 0)
(-0.00178772 -0.00158028 0)
(-0.00163823 -0.00160869 0)
(-0.00148625 -0.00163248 0)
(-0.00133188 -0.00165128 0)
(-0.00117513 -0.00166483 0)
(-0.00101592 -0.0016729 0)
(-0.000854136 -0.00167515 0)
(-0.000689703 -0.00167053 0)
(-0.000523044 -0.00165558 0)
(-0.000357068 -0.00161852 0)
(-0.000195551 -0.00151037 0)
(-4.13344e-05 -0.00105248 0)
(-3.78943e-05 0.00108576 0)
(-0.000181915 0.00156263 0)
(-0.000333503 0.00167447 0)
(-0.00048998 0.00171209 0)
(-0.000647778 0.001727 0)
(-0.000804059 0.00173181 0)
(-0.000958317 0.00173033 0)
(-0.00111054 0.00172376 0)
(-0.00126078 0.00171247 0)
(-0.00140908 0.00169664 0)
(-0.00155544 0.00167646 0)
(-0.00169978 0.00165218 0)
(-0.00184198 0.00162413 0)
(-0.00198183 0.00159264 0)
(-0.00211911 0.00155807 0)
(-0.00225356 0.00152069 0)
(-0.00238493 0.00148075 0)
(-0.00251295 0.00143846 0)
(-0.0026374 0.00139394 0)
(-0.00275804 0.00134734 0)
(-0.00287465 0.00129873 0)
(-0.00298703 0.0012482 0)
(-0.00309499 0.00119584 0)
(-0.00319835 0.0011417 0)
(-0.00329694 0.00108587 0)
(-0.0033906 0.00102841 0)
(-0.00347918 0.000969396 0)
(-0.00356255 0.0009089 0)
(-0.00364056 0.000846995 0)
(-0.0037131 0.000783758 0)
(-0.00378004 0.000719264 0)
(-0.00384129 0.000653593 0)
(-0.00389672 0.000586822 0)
(-0.00394625 0.000519034 0)
(-0.0039898 0.00045031 0)
(-0.00402727 0.000380732 0)
(-0.00405861 0.000310387 0)
(-0.00408373 0.000239361 0)
(-0.00410258 0.000167741 0)
(-0.00411511 9.56181e-05 0)
(-0.00412127 2.30824e-05 0)
(-0.00412104 -4.97721e-05 0)
(-0.00411436 -0.00012285 0)
(-0.00410124 -0.000196054 0)
(-0.00408165 -0.000269284 0)
(-0.00405558 -0.000342439 0)
(-0.00402305 -0.000415413 0)
(-0.00398407 -0.000488101 0)
(-0.00393865 -0.000560393 0)
(-0.00388683 -0.000632179 0)
(-0.00382866 -0.000703344 0)
(-0.00376418 -0.000773773 0)
(-0.00369347 -0.000843348 0)
(-0.00361659 -0.00091195 0)
(-0.00353364 -0.000979457 0)
(-0.00344472 -0.00104574 0)
(-0.00334995 -0.00111069 0)
(-0.00324946 -0.00117417 0)
(-0.00314338 -0.00123604 0)
(-0.0030319 -0.00129619 0)
(-0.00291518 -0.00135447 0)
(-0.00279343 -0.00141073 0)
(-0.00266687 -0.0014648 0)
(-0.00253575 -0.00151651 0)
(-0.00240031 -0.00156562 0)
(-0.00226085 -0.00161186 0)
(-0.00211766 -0.0016549 0)
(-0.00197102 -0.00169439 0)
(-0.00182121 -0.00172989 0)
(-0.00166848 -0.00176101 0)
(-0.00151303 -0.00178736 0)
(-0.00135499 -0.00180866 0)
(-0.00119442 -0.0018247 0)
(-0.00103135 -0.0018353 0)
(-0.000865794 -0.00184007 0)
(-0.000697846 -0.00183773 0)
(-0.000528119 -0.00182428 0)
(-0.000359704 -0.00178638 0)