/*--------------------------------*- C++ -*----------------------------------*\
  =========                 |
  \\      /  F ield         | OpenFOAM: The Open Source CFD Toolbox
   \\    /   O peration     | Website:  https://openfoam.org
    \\  /    A nd           | Version:  13
     \\/     M anipulation  |
\*---------------------------------------------------------------------------*/
FoamFile
{
    format      ascii;
    class       volScalarField;
    location    "1100";
    object      k;
}
// * * * * * * * * * * * * * * * * * * * * * * * * * * * * * * * * * * * * * //

dimensions      [0 2 -2 0 0 0 0];

internalField   nonuniform List<scalar> 
12225
(
0.422897
1.86441
1.89733
1.85258
1.79499
1.75183
1.84464
1.56958
1.69309
1.49382
1.63455
1.30603
1.99008
2.63581
2.53951
1.99612
1.57801
2.4494
0.336081
0.438469
0.521074
0.563809
0.572075
0.57254
0.604797
0.611203
0.632399
0.651501
0.629121
0.597063
0.620091
0.600578
0.638501
0.617789
0.614684
0.648464
0.351997
0.369338
0.376324
0.343665
0.28899
0.24106
0.231173
0.212457
0.181273
0.148838
0.151519
0.151724
0.152107
0.149722
0.141398
0.136252
0.145003
0.157069
0.363437
0.365307
0.364956
0.342016
0.28694
0.238716
0.191983
0.159339
0.134547
0.117809
0.104583
0.0991643
0.0948263
0.0938921
0.0950566
0.0947618
0.0944192
0.0945901
0.369865
0.367319
0.363396
0.343147
0.300679
0.260291
0.220693
0.193678
0.170754
0.157319
0.142334
0.135703
0.12887
0.122687
0.121095
0.119965
0.119349
0.119289
0.372532
0.369788
0.364013
0.346034
0.317693
0.286466
0.262548
0.239182
0.22624
0.212235
0.203756
0.193852
0.189456
0.182519
0.180576
0.178891
0.177864
0.177192
0.373505
0.371241
0.367111
0.356225
0.340422
0.32126
0.303546
0.290004
0.277933
0.270272
0.262492
0.258226
0.249998
0.247041
0.244305
0.248197
0.243954
0.24526
0.373769
0.371522
0.368983
0.363238
0.35464
0.345402
0.335291
0.328077
0.320048
0.31472
0.309572
0.303182
0.299701
0.29452
0.292459
0.293776
0.293095
0.290664
0.373825
0.371548
0.369491
0.36615
0.36151
0.356348
0.350793
0.346516
0.342251
0.338673
0.335773
0.332542
0.330153
0.327312
0.325256
0.322492
0.32057
0.317273
0.373837
0.371541
0.369508
0.367121
0.364184
0.360997
0.35764
0.354714
0.351975
0.349473
0.347295
0.345043
0.343055
0.34078
0.338852
0.336407
0.33456
0.331991
0.373841
0.371545
0.369462
0.367363
0.365115
0.362796
0.360434
0.358226
0.356165
0.354208
0.352416
0.350593
0.348894
0.347041
0.345371
0.34346
0.341896
0.339988
0.373834
0.371558
0.369432
0.367396
0.365373
0.363371
0.361402
0.359516
0.35774
0.356033
0.354434
0.352837
0.35132
0.349742
0.348276
0.346709
0.345351
0.34383
0.373832
0.371558
0.369417
0.367385
0.365435
0.363554
0.361747
0.360013
0.358372
0.356795
0.355305
0.353841
0.352449
0.35105
0.349734
0.34839
0.347174
0.3459
0.373828
0.371556
0.369408
0.367369
0.365435
0.363589
0.361835
0.360158
0.358569
0.357049
0.355608
0.354216
0.352891
0.3516
0.350372
0.349169
0.348039
0.346923
0.373828
0.371554
0.3694
0.367359
0.365421
0.363583
0.361834
0.360172
0.35859
0.357088
0.355654
0.354289
0.352984
0.351737
0.350544
0.3494
0.348311
0.347263
0.373826
0.371552
0.369396
0.36735
0.365412
0.363568
0.361821
0.360155
0.358576
0.357068
0.355639
0.354271
0.352973
0.351729
0.350547
0.349414
0.348338
0.347305
0.373826
0.37155
0.369392
0.367346
0.365404
0.36356
0.361808
0.360142
0.358557
0.35705
0.355614
0.354247
0.352943
0.351701
0.350515
0.349386
0.348305
0.347277
0.373825
0.371549
0.369391
0.367344
0.3654
0.363555
0.3618
0.360134
0.358546
0.357037
0.355598
0.354229
0.352922
0.351679
0.35049
0.349359
0.348277
0.347247
0.373825
0.37155
0.369392
0.367344
0.3654
0.363554
0.361799
0.360131
0.358543
0.357033
0.355593
0.354222
0.352914
0.35167
0.35048
0.349348
0.348265
0.347234
0.373825
0.371552
0.369392
0.36735
0.365403
0.363563
0.361804
0.360142
0.358549
0.357043
0.3556
0.354232
0.352922
0.351679
0.350489
0.349358
0.348275
0.347244
0.373826
0.371553
0.369398
0.367352
0.365414
0.363568
0.361819
0.360147
0.358563
0.357048
0.355611
0.354236
0.352931
0.351684
0.350499
0.349366
0.348288
0.347258
0.373828
0.371554
0.369401
0.367362
0.365419
0.36357
0.361802
0.360116
0.358509
0.356975
0.35552
0.354133
0.35282
0.351574
0.350388
0.349267
0.348189
0.347176
0.373831
0.371549
0.369405
0.367348
0.365355
0.363408
0.361533
0.359714
0.357995
0.356339
0.354805
0.353352
0.352004
0.350748
0.349539
0.348436
0.347348
0.346396
0.373799
0.371586
0.369327
0.367049
0.364705
0.36224
0.359903
0.357589
0.355509
0.35346
0.351704
0.350081
0.34856
0.347221
0.345792
0.34455
0.343414
0.342547
0.373622
0.37197
0.368626
0.365205
0.361294
0.357011
0.35338
0.349736
0.346929
0.344004
0.341773
0.340005
0.337566
0.335513
0.332815
0.330191
0.328698
0.325431
0.373456
0.372412
0.367088
0.357542
0.345816
0.335556
0.327331
0.321834
0.317831
0.313852
0.310943
0.307481
0.306075
0.303491
0.300824
0.297599
0.294568
0.292385
0.374537
0.36938
0.347135
0.299566
0.270877
0.232945
0.205389
0.196065
0.197438
0.183176
0.1799
0.178405
0.193701
0.213514
0.213353
0.212783
0.22117
0.233543
0.376616
0.364914
0.262721
0.154652
0.0869094
0.0553576
0.0466074
0.0430754
0.0439381
0.042961
0.0549665
0.0790217
0.103519
0.133061
0.168943
0.198325
0.221104
0.241414
0.395398
0.322212
0.205257
0.139392
0.162279
0.171195
0.148288
0.154278
0.174303
0.237929
0.298356
0.34719
0.410939
0.464384
0.513336
0.549027
0.580937
0.608021
0.702811
1.16764
1.43875
1.56301
1.60398
1.59864
1.57081
1.52965
1.48236
1.43641
1.39559
1.35942
1.32826
1.30194
1.28017
1.26208
1.2458
1.23284
1.4534e-08
3.61978e-07
1.87113e-06
7.46185e-06
2.53026e-05
7.7416e-05
0.000209393
0.000428881
0.000712665
0.00101504
0.00129635
0.00151515
0.00167166
0.0017412
0.00172981
0.00166703
0.00155303
0.00135767
0.0011497
0.000978102
0.000819057
0.000665841
0.000517931
0.000380619
0.000255429
0.000154744
8.47142e-05
4.31909e-05
2.17721e-05
1.1482e-05
6.61234e-06
4.45611e-06
4.0449e-06
7.01015e-06
1.48463e-05
3.51031e-05
0.000164427
0.00037716
0.000751726
0.00105157
0.00107086
0.000969957
0.00076665
0.000671735
0.000699417
0.000853283
0.00108171
0.00175134
0.00309829
0.00747647
0.0219787
0.0532319
0.0877686
0.114851
0.132379
0.139737
0.139098
0.132659
0.148647
0.170377
0.147313
0.162427
0.176812
0.155024
0.172673
0.179771
0.188614
0.196758
0.205189
0.212925
0.220986
0.228587
0.236292
0.243774
0.251232
0.258572
0.265846
0.273034
0.280151
0.287188
0.294158
0.301043
0.307864
0.314594
0.321265
0.327834
0.334344
0.340743
0.347075
0.353294
0.35942
0.365442
0.371358
0.377157
0.382833
0.388371
0.393767
0.399003
0.40408
0.408982
0.413732
0.418351
0.422904
0.427265
0.431503
0.435591
0.439533
0.443326
0.446961
0.450444
0.453757
0.456913
0.459891
0.462708
0.465339
0.467804
0.470079
0.472185
0.474101
0.475848
0.477401
0.478771
0.479938
0.48092
0.481699
0.4823
0.482696
0.482908
0.482896
0.48286
0.482683
0.482135
0.48154
0.480699
0.479795
0.478779
0.477618
0.476238
0.474557
0.472768
0.470775
0.468645
0.466358
0.463937
0.461378
0.4587
0.455904
0.452999
0.449991
0.446887
0.443697
0.440419
0.437072
0.433643
0.430162
0.426612
0.423028
0.419387
0.415726
0.412043
0.408383
0.404737
0.401129
0.397558
0.394038
0.390568
0.387156
0.383809
0.38053
0.37733
0.374208
0.371167
0.368191
0.365257
0.362307
0.359257
0.355976
0.352167
0.347214
0.331487
7.45303e-08
2.14447e-06
1.44782e-05
6.16918e-05
0.000231347
0.000655238
0.0015689
0.00291328
0.00451731
0.00617936
0.00772764
0.00900172
0.0099771
0.0105785
0.0109238
0.0109082
0.0107562
0.0104468
0.00990562
0.00914079
0.00815783
0.00701149
0.00572437
0.00443355
0.003121
0.00209731
0.00134653
0.000838078
0.000509903
0.000307944
0.000191396
0.000128954
0.000102888
0.000122085
0.000203619
0.000332667
0.00170016
0.00383889
0.00724023
0.00995226
0.0112318
0.0111284
0.0107959
0.0111101
0.0131727
0.0175968
0.0234943
0.0344508
0.0533138
0.0788461
0.103368
0.127007
0.145106
0.15977
0.173599
0.188603
0.202767
0.219091
0.237902
0.25519
0.272365
0.292062
0.310672
0.329167
0.349239
0.367824
0.386748
0.405105
0.423424
0.441401
0.459302
0.477003
0.494609
0.512101
0.529505
0.54683
0.564077
0.581258
0.598365
0.615406
0.632375
0.649268
0.666085
0.682816
0.699465
0.716014
0.732469
0.748807
0.765034
0.781117
0.797065
0.81287
0.828524
0.844016
0.859326
0.874439
0.88933
0.903977
0.918347
0.932405
0.946107
0.959401
0.972281
0.984965
0.99737
1.00952
1.02138
1.03296
1.04424
1.05521
1.06586
1.07617
1.08614
1.09576
1.10501
1.11389
1.12239
1.13049
1.13821
1.14552
1.15241
1.15888
1.1649
1.17047
1.17559
1.18027
1.18448
1.18825
1.19156
1.19443
1.19685
1.19882
1.20037
1.20137
1.202
1.20231
1.20241
1.20207
1.20158
1.20059
1.19915
1.19726
1.19494
1.19221
1.18906
1.18552
1.1816
1.17731
1.17266
1.16768
1.16236
1.15674
1.15081
1.1446
1.13811
1.13139
1.12442
1.11724
1.10987
1.10237
1.09477
1.08709
1.07937
1.07161
1.06385
1.05608
1.04833
1.04061
1.03293
1.02531
1.01777
1.0103
1.0029
0.995524
0.988098
0.980496
0.972494
0.963781
0.95242
0.92605
1.87786e-07
5.60196e-06
4.31164e-05
0.000195424
0.000765953
0.00181854
0.00381389
0.00615686
0.00853471
0.0107102
0.0125504
0.0139864
0.0150158
0.0156516
0.0159729
0.0159636
0.0158294
0.0155254
0.0150321
0.014399
0.0136328
0.0127183
0.0116457
0.0104
0.00902505
0.00743154
0.00575564
0.00421237
0.00287208
0.00189774
0.0012758
0.000918026
0.000679478
0.000688979
0.00103369
0.00212482
0.00696183
0.0151483
0.0226455
0.0280105
0.0311372
0.0328637
0.0363181
0.0449844
0.0613781
0.0788996
0.0971411
0.117835
0.1387
0.158463
0.179222
0.19959
0.220795
0.24373
0.26876
0.295016
0.322047
0.350856
0.379086
0.407267
0.435397
0.463392
0.490658
0.517363
0.543565
0.569093
0.594208
0.618846
0.643158
0.667152
0.690912
0.714461
0.737843
0.76108
0.784191
0.807191
0.830086
0.852881
0.875575
0.898169
0.920656
0.943033
0.965292
0.987426
1.00943
1.03129
1.053
1.07456
1.09594
1.11712
1.1381
1.15888
1.17944
1.19977
1.21986
1.2397
1.25926
1.27855
1.29754
1.31624
1.33462
1.35269
1.37047
1.38793
1.40503
1.42177
1.43814
1.4541
1.46964
1.48476
1.49944
1.51365
1.52739
1.54064
1.55339
1.56563
1.57734
1.58851
1.59915
1.60923
1.61874
1.62767
1.636
1.64373
1.65086
1.65737
1.66328
1.66858
1.67326
1.67733
1.68079
1.68365
1.68591
1.68755
1.68857
1.68905
1.68917
1.68861
1.68747
1.6857
1.68333
1.68036
1.67679
1.67265
1.66794
1.66269
1.65692
1.65063
1.64385
1.63661
1.62891
1.6208
1.61227
1.60336
1.59409
1.58449
1.57457
1.56439
1.55398
1.54338
1.53262
1.52176
1.51082
1.49983
1.48881
1.47779
1.46677
1.45578
1.44485
1.43398
1.42321
1.41255
1.40199
1.39151
1.38107
1.37056
1.35977
1.34847
1.33471
1.31028
7.32535e-07
2.20701e-05
0.000174937
0.000696643
0.00211228
0.00494615
0.0084834
0.0119573
0.015009
0.017454
0.0192537
0.0204375
0.0210945
0.0212989
0.021216
0.0209413
0.0204436
0.0198251
0.01912
0.0183423
0.0174991
0.0165808
0.0155798
0.0144667
0.0132291
0.0118344
0.0102872
0.00864648
0.00704995
0.00551223
0.00421465
0.00322401
0.00259836
0.0029543
0.00553965
0.0137635
0.0280663
0.0408909
0.0509411
0.0589392
0.0673393
0.078425
0.0927226
0.108761
0.124192
0.140171
0.157479
0.177721
0.199049
0.222448
0.247903
0.275134
0.304433
0.335453
0.367731
0.400678
0.434018
0.467529
0.500732
0.533598
0.566074
0.597993
0.629324
0.660061
0.690238
0.71992
0.74918
0.778075
0.806669
0.835013
0.863154
0.891129
0.918967
0.946692
0.974317
1.00185
1.0293
1.05666
1.08392
1.11109
1.13814
1.16508
1.19189
1.21856
1.24507
1.27142
1.2976
1.32357
1.34935
1.37488
1.40017
1.42521
1.44999
1.4745
1.49873
1.52265
1.54628
1.56958
1.59256
1.6152
1.63749
1.65942
1.68096
1.7021
1.72281
1.74307
1.76286
1.78215
1.80093
1.81918
1.83687
1.854
1.87054
1.88648
1.9018
1.91648
1.93052
1.94389
1.95659
1.96861
1.97994
1.99055
2.00045
2.0096
2.01803
2.02571
2.03265
2.03884
2.0443
2.049
2.05295
2.05617
2.05866
2.0604
2.06135
2.0617
2.06146
2.06038
2.05857
2.05603
2.05276
2.04878
2.0441
2.03873
2.03268
2.02599
2.01866
2.01073
2.00221
1.99313
1.98352
1.9734
1.96281
1.95176
1.94028
1.92842
1.91618
1.90363
1.8908
1.87774
1.8645
1.85111
1.83762
1.82406
1.81045
1.79683
1.78321
1.76961
1.75606
1.7426
1.72923
1.716
1.70291
1.68996
1.67712
1.66433
1.65146
1.6383
1.62321
1.60073
2.41015e-06
7.19564e-05
0.000545875
0.00211857
0.00583507
0.0110812
0.016039
0.0200625
0.0229795
0.0248612
0.0258949
0.0262867
0.0262195
0.0258934
0.0252752
0.0245187
0.0236824
0.0228031
0.0219091
0.0210085
0.0201017
0.0191774
0.0182238
0.0172134
0.0161253
0.0149226
0.013585
0.0121307
0.0106491
0.00920918
0.00768449
0.00671605
0.00771979
0.0132803
0.027732
0.0471058
0.0648744
0.0795354
0.0915098
0.102437
0.113653
0.125607
0.138366
0.151953
0.167442
0.186132
0.207644
0.231997
0.258809
0.287869
0.318802
0.351291
0.385081
0.419776
0.455057
0.490668
0.526419
0.562148
0.597721
0.633034
0.668051
0.702671
0.736883
0.770686
0.804098
0.837171
0.869943
0.902462
0.934773
0.966919
0.998934
1.03085
1.06269
1.09446
1.12618
1.15785
1.18947
1.22103
1.25252
1.28392
1.31523
1.34642
1.37749
1.4084
1.43915
1.46972
1.50009
1.53025
1.56016
1.58982
1.61919
1.64827
1.67706
1.70553
1.73368
1.76148
1.78893
1.81601
1.84271
1.86901
1.89489
1.92033
1.94531
1.9698
1.99378
2.01722
2.04011
2.06241
2.0841
2.10516
2.12557
2.14531
2.16436
2.18269
2.20029
2.21714
2.23323
2.24854
2.26306
2.27677
2.28967
2.30174
2.31295
2.32332
2.33283
2.34148
2.34926
2.35618
2.36223
2.3674
2.37171
2.37516
2.37776
2.37945
2.38025
2.38042
2.37974
2.37815
2.37571
2.37244
2.36835
2.36344
2.35773
2.35124
2.34398
2.33598
2.32726
2.31785
2.30777
2.29705
2.28573
2.27383
2.26138
2.24843
2.23498
2.22109
2.20679
2.19212
2.17712
2.16186
2.14638
2.13072
2.11492
2.09903
2.08309
2.06711
2.05111
2.03514
2.01921
2.00336
1.98762
1.97203
1.95661
1.94137
1.92633
1.91145
1.89665
1.88179
1.86548
1.8437
7.5849e-06
0.000221659
0.00161452
0.00575406
0.0133149
0.020118
0.025075
0.0282152
0.0299298
0.0306489
0.0306743
0.0303625
0.0296677
0.0287581
0.0277381
0.0266681
0.0255964
0.0245507
0.0235493
0.0225932
0.0216772
0.0207852
0.0198978
0.0189817
0.0180183
0.0169556
0.0157537
0.0143696
0.0129174
0.0119803
0.0123345
0.0157283
0.0260264
0.0455669
0.0685638
0.0894046
0.106149
0.118669
0.128405
0.137277
0.146749
0.157576
0.171303
0.188293
0.208495
0.232166
0.258779
0.28784
0.318793
0.351236
0.384881
0.419482
0.454843
0.490774
0.52714
0.563831
0.600743
0.637787
0.674885
0.711945
0.748911
0.785725
0.822357
0.858795
0.895041
0.931116
0.967042
1.00285
1.03857
1.07423
1.10986
1.14548
1.18109
1.21672
1.25237
1.28802
1.32367
1.3593
1.3949
1.43044
1.46591
1.50128
1.53653
1.57163
1.60656
1.64129
1.67582
1.71011
1.74414
1.77787
1.81129
1.84439
1.87715
1.90955
1.94157
1.9732
2.00442
2.03521
2.06556
2.09544
2.12482
2.15369
2.18201
2.20977
2.23694
2.26349
2.28939
2.31462
2.33914
2.36295
2.386
2.40827
2.42975
2.4504
2.47021
2.48916
2.50723
2.5244
2.54066
2.556
2.57039
2.58384
2.59632
2.60782
2.61835
2.6279
2.63645
2.64403
2.65061
2.6562
2.66081
2.66444
2.6671
2.66871
2.66937
2.66928
2.66816
2.66606
2.66302
2.65904
2.65415
2.64834
2.64165
2.63408
2.62565
2.6164
2.60635
2.59553
2.58397
2.57169
2.55873
2.54513
2.53093
2.51615
2.50083
2.48501
2.46872
2.45202
2.43495
2.41758
2.39994
2.38209
2.36408
2.34595
2.32774
2.30947
2.29118
2.27289
2.25464
2.23647
2.21841
2.20051
2.18281
2.16533
2.14811
2.13115
2.1144
2.09777
2.08006
2.05804
2.39844e-05
0.000660083
0.00438311
0.0137102
0.0230239
0.0291509
0.0326394
0.0343773
0.0349853
0.0348589
0.0342706
0.0332531
0.0320274
0.0306929
0.0293328
0.0280034
0.0267462
0.0255805
0.0245143
0.023539
0.0226411
0.0217943
0.0209642
0.0200863
0.0191121
0.0180348
0.0169216
0.0162081
0.0165033
0.0194586
0.0276538
0.0437644
0.065946
0.0889646
0.109748
0.125937
0.137227
0.145336
0.152547
0.160656
0.171828
0.186465
0.204705
0.226555
0.251642
0.279522
0.30947
0.340949
0.373589
0.407165
0.44154
0.476612
0.512305
0.548559
0.585329
0.622565
0.660212
0.698202
0.736463
0.774926
0.813532
0.852228
0.890976
0.929751
0.96854
1.00734
1.04617
1.08504
1.12397
1.16296
1.20205
1.24124
1.28054
1.31994
1.35944
1.39903
1.43868
1.47838
1.51809
1.55779
1.59744
1.63701
1.67647
1.71579
1.75495
1.79391
1.83264
1.87112
1.90931
1.94719
1.98472
2.02188
2.05866
2.09504
2.13098
2.16648
2.20151
2.23604
2.27006
2.30354
2.33645
2.36877
2.40047
2.43152
2.46189
2.49157
2.5205
2.54868
2.57606
2.60261
2.62831
2.65313
2.67704
2.70002
2.72204
2.74308
2.76313
2.78215
2.80014
2.81708
2.83296
2.84776
2.86147
2.87409
2.8856
2.89601
2.90532
2.91351
2.92059
2.92657
2.93144
2.93522
2.93791
2.93941
2.93993
2.9395
2.93795
2.93533
2.93167
2.92698
2.92128
2.91458
2.9069
2.89825
2.88868
2.87819
2.86682
2.8546
2.84157
2.82774
2.81318
2.7979
2.78195
2.76537
2.74819
2.73045
2.7122
2.69348
2.67436
2.65489
2.63512
2.6151
2.59489
2.57453
2.55406
2.53351
2.51292
2.49232
2.47174
2.45123
2.43084
2.41062
2.39062
2.37088
2.35143
2.33233
2.31353
2.29499
2.27564
2.25269
7.17426e-05
0.00182016
0.0104067
0.0235325
0.0318595
0.0363607
0.0385541
0.0393069
0.0391473
0.0383757
0.0370983
0.0355497
0.0338685
0.0321608
0.0305112
0.028974
0.0275838
0.0263492
0.0252669
0.0243207
0.0234981
0.0227869
0.0221597
0.021641
0.021364
0.0215635
0.0227152
0.0256148
0.0319149
0.0445501
0.0632112
0.0842095
0.105193
0.123749
0.138167
0.148156
0.155287
0.162069
0.170833
0.182766
0.198404
0.217753
0.240528
0.266286
0.29441
0.324299
0.355424
0.387481
0.420319
0.453869
0.488105
0.523011
0.558589
0.594838
0.631751
0.669306
0.707457
0.74616
0.785357
0.824991
0.865004
0.905345
0.94597
0.98685
1.02796
1.06929
1.11084
1.15261
1.1946
1.23682
1.27929
1.32199
1.36493
1.40809
1.45145
1.495
1.53869
1.5825
1.62639
1.67031
1.71422
1.75807
1.80184
1.84548
1.88895
1.93222
1.97525
2.01801
2.06047
2.10258
2.14431
2.18564
2.22653
2.26697
2.30692
2.34636
2.38527
2.42362
2.46138
2.49853
2.53503
2.57086
2.60599
2.64039
2.67402
2.70686
2.73888
2.77004
2.80031
2.82965
2.85803
2.88542
2.91178
2.9371
2.96134
2.98447
3.00649
3.02736
3.04707
3.0656
3.08294
3.09907
3.11398
3.12768
3.14015
3.15138
3.16139
3.17016
3.1777
3.18401
3.1891
3.19298
3.19565
3.19702
3.19733
3.19652
3.19451
3.19134
3.18703
3.18159
3.17505
3.16743
3.15874
3.149
3.13825
3.1265
3.1138
3.10017
3.08565
3.07028
3.05409
3.03712
3.01942
3.00102
2.98198
2.96231
2.94208
2.92135
2.90016
2.87859
2.85667
2.83448
2.81205
2.78944
2.7667
2.74385
2.72094
2.69799
2.67506
2.65219
2.62944
2.60686
2.58451
2.56245
2.54072
2.51939
2.49844
2.47784
2.45661
2.43226
0.000187044
0.00433731
0.0194472
0.032416
0.0392694
0.0425922
0.0438896
0.0438805
0.0430729
0.0415992
0.0397569
0.0377138
0.035619
0.0335862
0.0317054
0.0300303
0.0285938
0.0273994
0.0264374
0.0256734
0.0250769
0.0246797
0.0244963
0.0247911
0.0260633
0.0291566
0.0355201
0.0462906
0.0613469
0.0789852
0.0975648
0.115493
0.131222
0.143681
0.153011
0.160525
0.168273
0.178082
0.191066
0.207611
0.227622
0.250719
0.2764
0.304108
0.333299
0.36354
0.394569
0.426275
0.458641
0.49168
0.525429
0.559925
0.595204
0.631292
0.668196
0.705907
0.744404
0.783656
0.823618
0.864241
0.905476
0.947276
0.989598
1.03241
1.07568
1.11939
1.16353
1.2081
1.25309
1.29849
1.3443
1.39052
1.43711
1.48407
1.53135
1.57892
1.62675
1.67476
1.72292
1.77117
1.81944
1.86769
1.91587
1.96392
2.01181
2.0595
2.10693
2.15409
2.20091
2.24736
2.29338
2.33896
2.38406
2.42864
2.47268
2.51615
2.55901
2.60124
2.64281
2.68369
2.72384
2.76324
2.80184
2.83962
2.87655
2.91259
2.94771
2.98188
3.01504
3.04718
3.07824
3.10819
3.13701
3.16465
3.19109
3.2163
3.24026
3.26295
3.28433
3.30441
3.32315
3.34056
3.35662
3.37134
3.38469
3.39668
3.40732
3.41659
3.42451
3.43108
3.43632
3.44023
3.44279
3.44398
3.44401
3.44275
3.44021
3.43642
3.43139
3.42516
3.41773
3.40913
3.39938
3.3885
3.37653
3.36349
3.34942
3.33435
3.31832
3.30137
3.28354
3.26486
3.24539
3.22516
3.20422
3.18262
3.1604
3.13763
3.11437
3.09068
3.06662
3.04224
3.01758
2.99272
2.96768
2.94251
2.91725
2.89194
2.86662
2.84137
2.81622
2.79125
2.76652
2.74209
2.71802
2.69437
2.67117
2.64839
2.62511
2.59897
0.000418296
0.00884062
0.0287102
0.0403948
0.0460089
0.0484682
0.0490762
0.0484702
0.0470102
0.0449821
0.0426306
0.04015
0.0377136
0.0354501
0.0334591
0.0317977
0.0305092
0.0295943
0.0290641
0.0289317
0.0292542
0.0302105
0.0320913
0.0354686
0.0413407
0.0500767
0.0615833
0.0753821
0.0907143
0.106417
0.121311
0.134466
0.145498
0.154698
0.163069
0.172105
0.183191
0.197207
0.21442
0.234669
0.257581
0.282683
0.309503
0.337596
0.366617
0.396338
0.426673
0.457619
0.489223
0.521548
0.554664
0.588634
0.62351
0.659327
0.69611
0.733868
0.772594
0.812271
0.852868
0.89435
0.936675
0.979807
1.0237
1.06834
1.11367
1.15969
1.20638
1.25371
1.30168
1.35028
1.39948
1.44926
1.49959
1.55043
1.60173
1.65345
1.70551
1.75785
1.8104
1.86309
1.91584
1.9686
2.02129
2.07386
2.12627
2.17846
2.23039
2.28201
2.33328
2.38413
2.43452
2.48442
2.53378
2.58258
2.63076
2.6783
2.72516
2.77131
2.81672
2.86136
2.90518
2.94815
2.99023
3.0314
3.07161
3.11083
3.14903
3.18617
3.2222
3.25709
3.29079
3.32326
3.35447
3.38437
3.41294
3.44016
3.46598
3.4904
3.51337
3.5349
3.55495
3.57354
3.59064
3.60626
3.62039
3.63302
3.64417
3.65384
3.66203
3.66875
3.67401
3.67783
3.68019
3.68111
3.68072
3.67893
3.67577
3.67127
3.66545
3.65833
3.64994
3.64029
3.62941
3.61734
3.60409
3.5897
3.57422
3.55766
3.54009
3.52153
3.50202
3.48162
3.46035
3.43827
3.41542
3.39186
3.36764
3.34282
3.31748
3.29167
3.26546
3.23888
3.212
3.18486
3.15753
3.13002
3.1024
3.0747
3.04699
3.01933
2.99177
2.96438
2.93724
2.9104
2.88393
2.85792
2.83238
2.80731
2.78187
2.7539
0.000801156
0.0153915
0.0369404
0.0476638
0.0525773
0.0544545
0.0545277
0.0533749
0.0513998
0.0489018
0.0461533
0.0433777
0.0407748
0.0384916
0.0366456
0.0352927
0.0345497
0.0343516
0.0347294
0.0358839
0.0380789
0.0416575
0.0469777
0.0542729
0.0633452
0.0741064
0.0862004
0.099078
0.11203
0.124362
0.135624
0.145743
0.155052
0.164343
0.174665
0.18696
0.20181
0.219372
0.239494
0.26183
0.285998
0.311609
0.338334
0.365893
0.394114
0.422908
0.452282
0.482288
0.51301
0.544535
0.57695
0.610328
0.644734
0.680216
0.716815
0.754553
0.793438
0.833469
0.87463
0.916903
0.960258
1.00467
1.0501
1.09653
1.14392
1.19226
1.24152
1.29168
1.34271
1.39459
1.44728
1.50076
1.55497
1.60984
1.66531
1.7213
1.77774
1.83454
1.89161
1.94887
2.00621
2.06356
2.12085
2.17803
2.23502
2.29178
2.34826
2.40439
2.46013
2.51542
2.5702
2.62442
2.67805
2.73105
2.78337
2.83497
2.8858
2.93585
2.98506
3.03341
3.08084
3.12733
3.17283
3.2173
3.2607
3.30302
3.3442
3.3842
3.42299
3.46051
3.49673
3.53158
3.56505
3.59708
3.62764
3.65671
3.68424
3.71022
3.73462
3.75743
3.77863
3.79822
3.81619
3.83254
3.84727
3.86037
3.87186
3.88175
3.89003
3.89673
3.90186
3.90543
3.90745
3.90796
3.907
3.90455
3.90065
3.89532
3.8886
3.88049
3.87104
3.86026
3.84818
3.83483
3.82024
3.80445
3.7875
3.76942
3.75026
3.73006
3.70887
3.68671
3.66364
3.6397
3.61493
3.58941
3.56319
3.53634
3.50893
3.48102
3.45266
3.42391
3.39482
3.36544
3.33581
3.30598
3.276
3.24593
3.21583
3.18577
3.1558
3.126
3.09643
3.06717
3.03829
3.00986
2.98193
2.95453
2.92685
2.89697
0.00129653
0.022361
0.044466
0.0547106
0.0592364
0.0607208
0.0604293
0.0588764
0.0565209
0.0537161
0.0507842
0.0479814
0.0455341
0.0436155
0.042424
0.041992
0.0422468
0.0433507
0.045413
0.0485733
0.0529773
0.0587429
0.0658871
0.0743233
0.0838351
0.0941301
0.104828
0.115569
0.126032
0.136066
0.145725
0.155343
0.165514
0.176925
0.190152
0.205529
0.223132
0.242803
0.264283
0.28726
0.311456
0.336613
0.362545
0.389106
0.416237
0.443929
0.472238
0.501246
0.531053
0.561759
0.593459
0.626236
0.660167
0.695315
0.731729
0.769448
0.808497
0.848891
0.890631
0.933718
0.978138
1.02388
1.07092
1.11923
1.16879
1.21957
1.27154
1.32468
1.37894
1.4343
1.49069
1.54807
1.60637
1.66549
1.72533
1.78579
1.84678
1.90819
1.96991
2.03184
2.09385
2.15587
2.21782
2.27962
2.34123
2.40257
2.46358
2.5242
2.58437
2.64402
2.70309
2.76155
2.81936
2.87646
2.9328
2.98833
3.04302
3.09682
3.14969
3.2016
3.25249
3.30233
3.35106
3.39864
3.44505
3.49025
3.53419
3.57685
3.61816
3.65809
3.69659
3.7336
3.76908
3.80299
3.8353
3.86597
3.89496
3.92225
3.94782
3.97165
3.99374
4.01407
4.03265
4.04947
4.06454
4.07786
4.08944
4.0993
4.10745
4.1139
4.11868
4.12179
4.12326
4.12314
4.12146
4.11818
4.11338
4.10709
4.09932
4.09011
4.07949
4.06747
4.0541
4.03939
4.02339
4.00614
3.98767
3.96803
3.94726
3.92541
3.90251
3.87861
3.85375
3.82795
3.80128
3.77382
3.74563
3.71679
3.68735
3.65738
3.62693
3.59606
3.56481
3.53323
3.50135
3.46924
3.43694
3.40454
3.3721
3.33968
3.30735
3.27517
3.24321
3.21154
3.18024
3.1494
3.11907
3.08932
3.05938
3.02752
0.00187992
0.0288851
0.0517638
0.0619553
0.0662572
0.0674844
0.0669101
0.0650572
0.0624599
0.0595552
0.0567255
0.0542533
0.0523544
0.0513083
0.0510365
0.0516157
0.053125
0.0556039
0.0590847
0.0635879
0.069132
0.0756737
0.0830954
0.091256
0.0999525
0.10899
0.118199
0.12749
0.136847
0.146401
0.156434
0.167349
0.179557
0.193367
0.208946
0.226291
0.245278
0.265697
0.287338
0.309986
0.333477
0.357667
0.382478
0.407854
0.433805
0.460369
0.487631
0.515682
0.544634
0.574588
0.605649
0.63791
0.671456
0.706366
0.742704
0.780523
0.819858
0.860745
0.903206
0.947259
0.99291
1.04016
1.089
1.13942
1.19139
1.24489
1.29989
1.35633
1.41417
1.47334
1.53379
1.59542
1.65813
1.72179
1.78626
1.8514
1.9171
1.98323
2.04968
2.11631
2.18301
2.24968
2.31624
2.38262
2.44877
2.51461
2.58005
2.64503
2.70946
2.77327
2.83643
2.8989
2.96063
3.02158
3.08169
3.1409
3.19916
3.25643
3.31267
3.36783
3.42187
3.47472
3.52635
3.57671
3.62577
3.6735
3.71984
3.76478
3.80825
3.8502
3.8906
3.92938
3.9665
4.00192
4.0356
4.0675
4.09756
4.12579
4.15215
4.17664
4.19925
4.21996
4.23878
4.25572
4.27077
4.28396
4.2953
4.3048
4.31249
4.3184
4.32253
4.32491
4.32557
4.32461
4.32196
4.31765
4.31176
4.30432
4.29535
4.28489
4.27296
4.2596
4.24484
4.2287
4.21122
4.19246
4.17243
4.1512
4.1288
4.1053
4.08071
4.0551
4.02847
4.00086
3.97234
3.94301
3.91292
3.88216
3.85077
3.81882
3.78637
3.75347
3.72015
3.68646
3.65242
3.61811
3.58359
3.54894
3.51425
3.47956
3.44494
3.41046
3.37617
3.34216
3.3085
3.27529
3.2426
3.21052
3.17833
3.14455
0.00264275
0.0341524
0.0585614
0.0691231
0.0734555
0.074574
0.0737989
0.0717332
0.0689938
0.0661398
0.0636634
0.0618308
0.0608897
0.0606608
0.0613032
0.0628842
0.06537
0.0687296
0.072931
0.0779518
0.0837243
0.0901724
0.0971973
0.10472
0.112652
0.120954
0.129611
0.1387
0.148352
0.158785
0.170224
0.182891
0.196932
0.2124
0.229259
0.247393
0.266668
0.286919
0.308017
0.329837
0.352309
0.375369
0.399015
0.42325
0.448127
0.473709
0.500098
0.527393
0.555705
0.585135
0.615791
0.64777
0.681173
0.716089
0.752593
0.790759
0.830648
0.872316
0.91581
0.961172
1.00843
1.0576
1.10868
1.16168
1.21658
1.27334
1.33191
1.39224
1.45423
1.51779
1.5828
1.64913
1.71664
1.78515
1.85448
1.92445
1.99492
2.06575
2.13684
2.20805
2.27928
2.35043
2.42142
2.49219
2.56267
2.63276
2.70239
2.77144
2.83982
2.90741
2.97425
3.04031
3.10555
3.16992
3.23334
3.29576
3.35711
3.41736
3.47645
3.53435
3.59099
3.64633
3.70031
3.75289
3.80405
3.85373
3.90192
3.94856
3.99362
4.03703
4.07876
4.11875
4.15695
4.19332
4.22783
4.26043
4.29108
4.31975
4.34643
4.3711
4.39374
4.41436
4.43296
4.44954
4.46411
4.47671
4.48734
4.49604
4.50284
4.50778
4.51089
4.51218
4.51175
4.50964
4.50572
4.50014
4.49293
4.48414
4.47379
4.46191
4.44855
4.43372
4.41747
4.39981
4.38081
4.36048
4.33888
4.31605
4.29203
4.26689
4.24066
4.21339
4.18507
4.15572
4.12546
4.09437
4.06251
4.02994
3.99673
3.96294
3.92861
3.89381
3.85856
3.82291
3.78684
3.75046
3.71385
3.67711
3.6403
3.60348
3.56671
3.53006
3.49356
3.4573
3.42139
3.38591
3.35095
3.31662
3.28226
3.24667
0.00340312
0.0397585
0.0654001
0.0763447
0.0807391
0.0817812
0.0807539
0.0783635
0.0755575
0.0730133
0.0711477
0.0702186
0.0700036
0.0705154
0.0719121
0.0741608
0.0771986
0.0809722
0.0854284
0.0905314
0.0962237
0.10248
0.109261
0.116566
0.124387
0.13278
0.141816
0.151614
0.1623
0.174007
0.186821
0.200796
0.215935
0.232174
0.249432
0.267598
0.286576
0.306268
0.326618
0.347574
0.369129
0.39128
0.41406
0.437516
0.461728
0.486759
0.512703
0.539667
0.567759
0.597094
0.627779
0.659935
0.693661
0.729069
0.766253
0.805312
0.846328
0.889383
0.934555
0.981907
1.0315
1.08336
1.1375
1.19392
1.25259
1.31346
1.37648
1.44151
1.50845
1.5771
1.64727
1.71876
1.79135
1.86485
1.93906
2.01378
2.08882
2.16398
2.23925
2.31462
2.38996
2.46515
2.54013
2.61484
2.68919
2.76306
2.83633
2.9089
2.98065
3.05149
3.12151
3.19065
3.25885
3.32604
3.39216
3.45712
3.52087
3.58338
3.64458
3.70445
3.76292
3.81994
3.87547
3.92946
3.98188
4.0327
4.0819
4.12943
4.17526
4.21933
4.26159
4.302
4.34051
4.37707
4.41167
4.44424
4.47479
4.50325
4.52958
4.55378
4.57583
4.59572
4.61347
4.62909
4.6426
4.65402
4.66339
4.67074
4.67612
4.67958
4.68118
4.68098
4.67913
4.67538
4.66989
4.66273
4.65393
4.64353
4.63157
4.61809
4.60311
4.58667
4.56881
4.54956
4.52894
4.50701
4.4838
4.45935
4.43372
4.40696
4.37912
4.35024
4.32032
4.2894
4.25756
4.22488
4.19142
4.15724
4.12238
4.08692
4.0509
4.01438
3.9774
3.93997
3.90207
3.86383
3.82536
3.78672
3.74799
3.70923
3.67049
3.63185
3.59332
3.55499
3.51698
3.47939
3.44231
3.40588
3.36946
3.33227
0.00420299
0.0451826
0.0721428
0.083553
0.0880502
0.0889805
0.0876276
0.0850188
0.0823776
0.0803252
0.0792522
0.0789229
0.0792595
0.0803422
0.0822423
0.0848961
0.0882443
0.0922377
0.0968366
0.102036
0.107807
0.11418
0.121143
0.128767
0.137073
0.146166
0.156088
0.166944
0.178767
0.191591
0.205415
0.220227
0.235958
0.252533
0.269887
0.287937
0.306652
0.325978
0.345928
0.366475
0.387668
0.409518
0.432127
0.455571
0.479916
0.505148
0.531434
0.558885
0.587607
0.617707
0.649319
0.682551
0.717532
0.75439
0.793243
0.834216
0.877414
0.922957
0.970919
1.02141
1.07449
1.13024
1.1886
1.24957
1.31308
1.37907
1.44742
1.51799
1.59059
1.66496
1.74079
1.81771
1.89533
1.9736
2.0524
2.13153
2.21071
2.28973
2.3688
2.4478
2.52657
2.60505
2.68327
2.76123
2.8387
2.91553
2.9916
3.06682
3.14117
3.21463
3.28711
3.35856
3.4289
3.49804
3.56589
3.63238
3.69747
3.76111
3.82328
3.88394
3.94303
4.00051
4.05634
4.11049
4.16294
4.21366
4.26264
4.30985
4.35526
4.39881
4.44047
4.48017
4.51789
4.55357
4.58719
4.6187
4.64808
4.67528
4.70027
4.72303
4.74355
4.76184
4.77791
4.79178
4.80349
4.81305
4.82052
4.82592
4.82933
4.83082
4.83046
4.82843
4.82446
4.81872
4.81128
4.80217
4.79146
4.77919
4.76539
4.7501
4.73335
4.71519
4.69563
4.67472
4.65247
4.62893
4.60414
4.57813
4.55096
4.52268
4.49332
4.46293
4.43157
4.39929
4.3661
4.33205
4.2972
4.2616
4.22531
4.18838
4.15087
4.11282