/*--------------------------------*- C++ -*----------------------------------*\
  =========                 |
  \\      /  F ield         | OpenFOAM: The Open Source CFD Toolbox
   \\    /   O peration     | Website:  https://openfoam.org
    \\  /    A nd           | Version:  13
     \\/     M anipulation  |
\*---------------------------------------------------------------------------*/
FoamFile
{
    format      ascii;
    class       volScalarField;
    location    "1100";
    object      nut;
}
// * * * * * * * * * * * * * * * * * * * * * * * * * * * * * * * * * * * * * //

dimensions      [0 2 -1 0 0 0 0];

internalField   nonuniform List<scalar> 
12225
(
4.20428e-06
1.88302e-05
1.95331e-05
1.95163e-05
1.93239e-05
1.92606e-05
2.06606e-05
1.78758e-05
1.96056e-05
1.75786e-05
1.95035e-05
1.57741e-05
2.43147e-05
3.25446e-05
3.16476e-05
2.51059e-05
1.99823e-05
3.12002e-05
4.02733e-05
5.92898e-05
4.77057e-05
3.94711e-05
2.68153e-05
2.39225e-05
2.96923e-05
2.98616e-05
3.04467e-05
3.22062e-05
3.2102e-05
3.21843e-05
3.21841e-05
3.2874e-05
3.421e-05
3.19172e-05
3.18915e-05
3.39235e-05
7.53997e-05
0.000136611
0.000155453
0.000103579
5.84131e-05
4.08551e-05
3.34449e-05
2.91069e-05
2.55589e-05
2.10496e-05
2.02768e-05
2.0337e-05
2.00286e-05
1.85881e-05
1.81088e-05
1.64317e-05
1.75415e-05
1.83623e-05
0.000215532
0.000306487
0.0003576
0.000269398
0.000167224
0.000107837
8.15992e-05
6.27264e-05
4.96763e-05
4.17842e-05
3.43539e-05
3.02333e-05
2.77751e-05
2.62128e-05
2.62374e-05
2.56141e-05
2.2421e-05
2.40429e-05
0.000510877
0.000504757
0.000514742
0.000268638
0.000277258
0.000202988
0.000118689
7.92532e-05
7.5055e-05
5.46267e-05
5.75097e-05
5.28817e-05
3.87904e-05
4.10183e-05
3.58574e-05
3.36733e-05
3.45299e-05
3.61808e-05
0.000750769
0.000641892
0.000592718
0.000514872
0.000208136
0.000266407
0.000207637
0.000160266
0.000137527
0.000115936
7.99893e-05
8.48342e-05
7.6487e-05
6.71548e-05
6.38682e-05
6.35834e-05
6.66542e-05
7.0527e-05
0.000827165
0.000796974
0.000512252
0.000562457
0.000464989
0.000316848
0.00030354
0.000260914
0.000189783
0.000144407
0.000155213
0.000137399
0.000127681
0.000125394
0.000126716
0.000133188
0.000137374
0.000143977
0.000855425
0.000836476
0.000774106
0.000509011
0.000568552
0.000505401
0.000413137
0.000316982
0.000331043
0.000309828
0.000266325
0.000264595
0.000249446
0.000239638
0.000237871
0.000242717
0.000251689
0.000254839
0.000852861
0.000847017
0.000840841
0.000767494
0.0006624
0.000592489
0.000532623
0.000492004
0.000456339
0.000436856
0.000422073
0.000410468
0.000407353
0.000399881
0.000396143
0.000395489
0.000400964
0.000399566
0.000849985
0.000850348
0.000851662
0.000842549
0.000796836
0.000753343
0.000704698
0.000671882
0.000637226
0.00061605
0.000595227
0.00058372
0.000569157
0.00056214
0.000552354
0.000548511
0.000545743
0.000546487
0.000850996
0.000850185
0.000852324
0.000850783
0.00083889
0.000824363
0.000801958
0.00078511
0.000763453
0.000749191
0.000732235
0.000722146
0.000708628
0.000701416
0.000690286
0.000685716
0.000681327
0.000678791
0.000851143
0.000851079
0.000849633
0.000851572
0.000847458
0.000843605
0.000835858
0.000828284
0.000818214
0.00081069
0.000801508
0.000795065
0.000786661
0.000781298
0.000773586
0.000769495
0.000765593
0.000762829
0.000851397
0.000850749
0.000849824
0.000849635
0.000848581
0.000847219
0.000844872
0.000842457
0.000839112
0.000836144
0.000832769
0.000829772
0.00082663
0.000823859
0.00082097
0.000817088
0.000814413
0.000812251
0.000851529
0.000850661
0.000849851
0.000849169
0.000848448
0.000847667
0.00084676
0.000845789
0.000844726
0.00084361
0.000842539
0.000841346
0.000840299
0.000839062
0.000838033
0.000836671
0.000835732
0.00083424
0.000851543
0.000850671
0.000849857
0.000849084
0.000848359
0.000847646
0.000846963
0.000846277
0.000845628
0.000844966
0.000844363
0.000843726
0.000843159
0.000842531
0.000841983
0.000841344
0.000840813
0.000840176
0.000851539
0.000850674
0.000849855
0.000849073
0.000848335
0.000847626
0.000846957
0.000846309
0.000845699
0.000845105
0.000844549
0.000844005
0.000843495
0.000842992
0.00084252
0.00084205
0.000841612
0.000841174
0.000851538
0.000850673
0.000849852
0.00084907
0.000848327
0.000847619
0.000846945
0.000846301
0.000845688
0.000845102
0.000844543
0.000844007
0.000843497
0.000843007
0.00084254
0.000842091
0.000841662
0.00084125
0.000851538
0.000850678
0.000849858
0.000849078
0.000848335
0.000847628
0.000846953
0.00084631
0.000845695
0.000845109
0.000844547
0.000844012
0.000843498
0.000843009
0.000842539
0.000842092
0.000841661
0.000841251
0.000851537
0.000850674
0.000849852
0.00084907
0.000848325
0.000847616
0.000846939
0.000846294
0.000845677
0.000845089
0.000844526
0.000843988
0.000843473
0.000842982
0.000842511
0.000842062
0.00084163
0.000841219
0.000851536
0.000850676
0.00084985
0.000849073
0.000848325
0.000847621
0.000846939
0.000846297
0.000845674
0.000845086
0.000844518
0.000843981
0.000843462
0.000842973
0.000842499
0.000842052
0.00084162
0.000841212
0.000851529
0.000850682
0.000849852
0.000849081
0.000848333
0.000847615
0.000846926
0.000846241
0.000845598
0.000844948
0.00084436
0.000843774
0.00084325
0.000842744
0.000842271
0.000841838
0.000841407
0.000841041
0.000851468
0.000850736
0.000849866
0.000849076
0.000848163
0.000847175
0.000846229
0.000845101
0.000844113
0.000842863
0.00084198
0.0008409
0.000840276
0.00083953
0.000839016
0.000838555
0.000838096
0.000838062
0.00085115
0.000851199
0.000849808
0.0008476
0.00084419
0.000839556
0.000836177
0.00083158
0.000828687
0.000823873
0.000820515
0.000816943
0.000813959
0.000810883
0.000809177
0.000806118
0.000805606
0.000808677
0.000851211
0.000851701
0.000844831
0.000826164
0.000799679
0.000772273
0.000758133
0.000748856
0.000742146
0.000729207
0.000723191
0.000715302
0.000708081
0.000701047
0.000697178
0.00068792
0.000690598
0.000680947
0.000853094
0.000840678
0.000812328
0.000692565
0.00061324
0.000542605
0.000527205
0.000485149
0.000504225
0.000467339
0.00048701
0.000492893
0.000480829
0.00048055
0.000475937
0.000474107
0.000463645
0.000459575
0.000867068
0.000769078
0.00063059
0.000356757
0.000274836
0.000208805
0.00019933
0.000188532
0.000204667
0.000181298
0.000182538
0.000192937
0.000215722
0.000211911
0.000226228
0.000221195
0.00022205
0.000223833
0.00136275
0.000408148
0.000277298
0.000107466
0.000145327
5.47817e-05
4.06783e-05
3.33933e-05
3.92125e-05
3.57622e-05
3.90247e-05
4.38335e-05
5.36145e-05
6.56529e-05
7.18558e-05
7.62861e-05
8.37553e-05
9.06404e-05
0.000795469
0.00028725
7.36686e-05
2.79471e-05
8.60087e-06
3.52125e-06
4.84605e-06
5.07295e-06
5.33462e-06
4.27552e-06
5.37391e-06
8.3691e-06
1.23854e-05
1.82482e-05
2.62629e-05
3.42653e-05
4.08519e-05
4.83605e-05
0.000286297
3.26601e-05
1.20177e-05
6.91635e-06
1.15971e-05
1.30905e-05
1.06587e-05
1.24615e-05
1.44335e-05
1.84252e-05
2.28468e-05
2.68167e-05
3.33975e-05
3.78687e-05
4.28324e-05
4.75719e-05
5.19861e-05
5.39545e-05
9.18265e-06
1.54025e-05
1.91981e-05
2.11373e-05
2.19875e-05
2.22088e-05
2.21063e-05
2.17944e-05
2.13645e-05
2.09192e-05
2.05183e-05
2.01582e-05
1.98466e-05
1.95861e-05
1.93789e-05
1.92139e-05
1.90661e-05
1.89577e-05
1.26788e-12
1.43971e-10
7.43568e-10
2.96268e-09
1.00374e-08
3.06833e-08
8.29171e-08
1.69679e-07
2.81697e-07
4.00851e-07
5.11469e-07
5.9724e-07
6.58312e-07
6.85047e-07
6.79918e-07
6.54608e-07
6.09253e-07
5.32092e-07
4.50141e-07
3.82574e-07
3.20044e-07
2.59912e-07
2.01969e-07
1.48271e-07
9.93996e-08
6.01555e-08
3.28972e-08
1.67546e-08
8.43677e-09
4.4445e-09
2.55675e-09
1.72112e-09
1.56056e-09
2.70157e-09
5.71502e-09
1.34974e-08
6.31512e-08
1.44688e-07
2.88045e-07
4.02464e-07
4.09362e-07
3.70347e-07
2.92369e-07
2.55861e-07
2.66079e-07
3.24213e-07
4.10493e-07
6.63777e-07
1.1728e-06
2.82646e-06
8.29829e-06
2.00722e-05
3.30517e-05
4.31931e-05
4.97189e-05
4.76715e-05
4.2369e-05
3.68258e-05
3.80849e-05
4.06994e-05
3.32306e-05
3.48181e-05
3.62133e-05
3.05716e-05
3.2897e-05
3.31699e-05
3.38143e-05
3.43578e-05
3.49733e-05
3.54865e-05
3.60689e-05
3.65886e-05
3.71362e-05
3.76589e-05
3.81871e-05
3.87063e-05
3.92244e-05
3.97384e-05
4.02508e-05
4.07607e-05
4.12699e-05
4.17766e-05
4.2284e-05
4.27886e-05
4.32954e-05
4.37988e-05
4.4305e-05
4.48072e-05
4.53111e-05
4.5811e-05
4.63108e-05
4.68099e-05
4.73091e-05
4.78071e-05
4.8304e-05
4.87987e-05
4.92914e-05
4.97809e-05
5.02685e-05
5.07532e-05
5.1239e-05
5.17292e-05
5.22307e-05
5.27263e-05
5.32262e-05
5.37289e-05
5.42361e-05
5.47485e-05
5.52662e-05
5.57912e-05
5.63226e-05
5.68633e-05
5.74119e-05
5.79718e-05
5.85413e-05
5.91241e-05
5.97184e-05
6.03287e-05
6.09537e-05
6.15971e-05
6.2257e-05
6.29361e-05
6.36335e-05
6.43538e-05
6.50964e-05
6.58667e-05
6.6663e-05
6.74903e-05
6.83451e-05
6.92585e-05
7.02169e-05
7.11898e-05
7.22277e-05
7.33057e-05
7.44555e-05
7.5675e-05
7.69629e-05
7.83039e-05
7.81038e-05
7.78506e-05
7.75797e-05
7.72976e-05
7.70019e-05
7.66943e-05
7.63747e-05
7.60442e-05
7.57034e-05
7.53519e-05
7.49911e-05
7.46206e-05
7.4242e-05
7.38538e-05
7.34593e-05
7.30548e-05
7.26458e-05
7.22275e-05
7.18062e-05
7.13766e-05
7.09448e-05
7.05079e-05
7.00722e-05
6.96352e-05
6.92002e-05
6.87665e-05
6.83356e-05
6.79076e-05
6.74831e-05
6.70632e-05
6.66475e-05
6.62381e-05
6.58337e-05
6.54362e-05
6.50428e-05
6.46531e-05
6.42602e-05
6.38587e-05
6.34353e-05
6.29647e-05
6.23888e-05
6.08249e-05
6.50168e-12
1.07722e-09
1.46363e-08
7.66401e-08
3.35355e-07
1.07034e-06
2.54873e-06
4.74491e-06
7.4593e-06
1.05608e-05
1.37357e-05
1.66864e-05
1.92449e-05
2.11225e-05
2.23545e-05
2.27258e-05
2.24512e-05
2.1648e-05
1.99637e-05
1.68512e-05
1.32001e-05
9.82705e-06
6.96968e-06
4.7642e-06
3.01888e-06
1.87965e-06
1.14547e-06
7.0771e-07
4.38533e-07
2.79187e-07
1.92592e-07
1.49452e-07
1.4609e-07
2.03009e-07
3.83192e-07
6.9661e-07
3.76665e-06
8.50276e-06
1.57276e-05
2.05445e-05
2.17287e-05
2.03176e-05
1.82676e-05
1.6341e-05
1.64012e-05
1.73473e-05
1.75753e-05
2.09883e-05
2.88212e-05
3.96678e-05
5.04138e-05
6.1359e-05
7.04555e-05
7.92038e-05
8.81405e-05
9.73745e-05
0.000107411
0.000118489
0.000131308
0.000149355
0.000157872
0.000172776
0.000187956
0.000196389
0.000210228
0.000221584
0.000233244
0.00024439
0.000255149
0.000265467
0.00027545
0.000285183
0.000294622
0.000303865
0.000312881
0.000321731
0.000330399
0.000338923
0.000347292
0.000355533
0.000363636
0.000371619
0.000379478
0.000387222
0.000394855
0.000402378
0.000409794
0.000417102
0.000424303
0.000431401
0.000438389
0.000445286
0.000452088
0.000458799
0.000465414
0.000471927
0.000478322
0.000484576
0.000490653
0.000496485
0.000501977
0.000506965
0.000511366
0.000515841
0.000520134
0.000524342
0.000528431
0.000532407
0.000536267
0.000540006
0.000543623
0.000547115
0.000550478
0.000553709
0.000556807
0.000559766
0.000562586
0.000565263
0.000567798
0.00057019
0.000572436
0.000574529
0.000576465
0.000578238
0.000579848
0.000581295
0.000582578
0.000583695
0.000584645
0.000585419
0.000586046
0.000586502
0.000586828
0.000586899
0.000586845
0.000586694
0.000586559
0.000586399
0.00058636
0.000586194
0.000585868
0.000585386
0.000584748
0.000583958
0.000583012
0.00058193
0.000580701
0.000579355
0.00057785
0.000576252
0.000574475
0.000572651
0.000570606
0.000568555
0.000566274
0.000563988
0.000561513
0.00055901
0.000556366
0.000553685
0.000550919
0.00054811
0.000545251
0.000542357
0.00053943
0.000536474
0.000533494
0.000530495
0.00052748
0.000524457
0.000521423
0.000518386
0.000515337
0.000512231
0.000509027
0.000505645
0.000501946
0.000497647
0.000492007
0.000476069
1.63816e-11
2.77933e-09
5.37869e-08
3.15323e-07
1.17743e-06
2.75135e-06
5.97157e-06
1.04695e-05
1.60728e-05
2.24867e-05
2.93724e-05
3.62183e-05
4.2463e-05
4.77343e-05
5.1862e-05
5.45381e-05
5.61959e-05
5.66702e-05
5.56602e-05
5.28885e-05
4.88989e-05
4.3035e-05
3.5946e-05
2.86235e-05
2.17252e-05
1.57094e-05
1.07312e-05
7.16081e-06
4.57166e-06
2.96525e-06
2.02773e-06
1.5316e-06
1.25312e-06
1.44272e-06
2.49026e-06
5.6945e-06
1.86411e-05
3.93743e-05
5.53102e-05
6.21643e-05
5.89253e-05
4.82907e-05
4.05055e-05
4.07786e-05
4.75874e-05
5.48714e-05
6.44689e-05
7.69286e-05
8.92228e-05
0.000102141
0.000119261
0.000137671
0.000158803
0.000182651
0.000209403
0.000237325
0.000267449
0.00029913
0.000328603
0.000360535
0.000387917
0.000415918
0.000445643
0.000469831
0.000494906
0.000518612
0.000541568
0.000563395
0.000584459
0.000604853
0.000624664
0.000643992
0.000662855
0.000681343
0.000699464
0.00071727
0.000734771
0.000751995
0.000768949
0.000785649
0.000802099
0.000818311
0.000834286
0.000850033
0.000865554
0.000880853
0.000895932
0.000910791
0.000925429
0.000939846
0.000954037
0.000968012
0.000981766
0.000995294
0.00100858
0.00102162
0.00103437
0.0010468
0.00105888
0.00107055
0.00108177
0.00109252
0.00110297
0.00111329
0.00112333
0.00113316
0.00114275
0.00115209
0.00116117
0.00117
0.00117855
0.00118683
0.00119483
0.00120255
0.00120997
0.00121709
0.00122391
0.00123042
0.00123662
0.00124251
0.00124808
0.00125333
0.00125824
0.00126281
0.00126704
0.00127092
0.00127445
0.00127764
0.00128048
0.00128296
0.00128511
0.00128691
0.00128839
0.0012895
0.00129028
0.0012908
0.00129126
0.00129147
0.00129142
0.00129105
0.00129031
0.00128923
0.0012878
0.00128602
0.00128391
0.00128148
0.00127872
0.00127567
0.00127229
0.00126865
0.00126467
0.0012605
0.00125595
0.00125127
0.00124621
0.00124103
0.00123553
0.0012299
0.00122405
0.00121807
0.00121193
0.00120569
0.00119936
0.00119296
0.00118649
0.00117997
0.0011734
0.0011668
0.00116018
0.00115355
0.00114692
0.00114027
0.0011336
0.00112683
0.00111987
0.00111254
0.00110452
0.00109512
0.00108248
0.00105361
6.3903e-11
1.08812e-08
1.7766e-07
7.42515e-07
2.40362e-06
6.52295e-06
1.31175e-05
2.19887e-05
3.25568e-05
4.3752e-05
5.46759e-05
6.47893e-05
7.35575e-05
8.04996e-05
8.57078e-05
8.93092e-05
9.10014e-05
9.11681e-05
8.99446e-05
8.73045e-05
8.31494e-05
7.76951e-05
7.10264e-05
6.25222e-05
5.28344e-05
4.28933e-05
3.33039e-05
2.5167e-05
1.86632e-05
1.36656e-05
1.00298e-05
7.71072e-06
6.36819e-06
7.75511e-06
1.42576e-05
3.14319e-05
5.39221e-05
7.03561e-05
7.76227e-05
7.43219e-05
7.16806e-05
7.24412e-05
7.67514e-05
8.48323e-05
9.62363e-05
0.000110823
0.000122774
0.000142803
0.000165627
0.000192567
0.000224794
0.000259986
0.000299112
0.000340823
0.000384625
0.00042887
0.000473963
0.000518251
0.000560712
0.00060264
0.00064275
0.000680816
0.000719
0.000754313
0.000788745
0.000821676
0.000853578
0.000884426
0.000914426
0.000943668
0.000972244
0.00100024
0.0010277
0.00105468
0.00108123
0.00110736
0.0011331
0.00115848
0.00118348
0.00120813
0.00123243
0.00125639
0.00128
0.00130327
0.0013262
0.0013488
0.00137106
0.00139297
0.00141455
0.00143577
0.00145664
0.00147716
0.00149732
0.00151712
0.00153654
0.00155557
0.00157419
0.00159238
0.00161013
0.00162741
0.00164423
0.00166062
0.00167668
0.00169243
0.00170781
0.00172285
0.00173751
0.00175179
0.00176568
0.00177917
0.00179224
0.0018049
0.00181713
0.00182892
0.00184027
0.00185116
0.0018616
0.00187157
0.00188108
0.00189012
0.00189869
0.00190677
0.00191436
0.00192144
0.00192803
0.00193412
0.0019397
0.00194478
0.00194936
0.00195342
0.00195696
0.00196001
0.00196259
0.00196466
0.00196623
0.00196749
0.00196844
0.00196891
0.00196891
0.00196842
0.00196743
0.00196592
0.00196391
0.0019614
0.0019584
0.00195493
0.00195098
0.00194658
0.00194172
0.00193646
0.00193074
0.00192466
0.00191813
0.00191129
0.00190401
0.00189644
0.0018885
0.0018803
0.0018718
0.00186309
0.00185417
0.00184509
0.00183586
0.00182653
0.0018171
0.00180759
0.00179801
0.00178838
0.00177871
0.00176903
0.00175934
0.00174965
0.00173991
0.00173006
0.00171997
0.00170942
0.00169798
0.00168461
0.00166695
0.00163289
2.1025e-10
3.18866e-08
3.8392e-07
1.82983e-06
6.30801e-06
1.53602e-05
2.86881e-05
4.47256e-05
6.18197e-05
7.82422e-05
9.27086e-05
0.000104489
0.000113312
0.000119664
0.000123222
0.000124694
0.000124477
0.000122884
0.000120146
0.000116378
0.00011128
0.000105514
9.88225e-05
9.05845e-05
8.09681e-05
7.01914e-05
5.86853e-05
4.7757e-05
3.83007e-05
3.07005e-05
2.43521e-05
2.01822e-05
2.10392e-05
2.93852e-05
5.05949e-05
7.28364e-05
8.60341e-05
9.21371e-05
9.48684e-05
9.77197e-05
0.000103085
0.000112301
0.000126339
0.000139297
0.000152555
0.000174709
0.000203864
0.000236525
0.000275313
0.000318687
0.000366262
0.000416444
0.000469144
0.000523047
0.000577539
0.00063163
0.000685274
0.000737471
0.000788153
0.000836899
0.000885098
0.000930985
0.00097583
0.00101884
0.00106056
0.00110101
0.00114037
0.00117872
0.00121621
0.00125291
0.0012889
0.00132427
0.00135905
0.00139329
0.00142703
0.00146028
0.00149307
0.00152539
0.00155726
0.00158868
0.00161965
0.00165017
0.00168024
0.00170986
0.00173902
0.00176773
0.00179599
0.00182378
0.00185111
0.00187797
0.00190436
0.00193027
0.0019557
0.00198065
0.00200511
0.00202907
0.00205253
0.00207548
0.00209792
0.00211986
0.00214129
0.00216226
0.00218278
0.00220286
0.00222247
0.00224161
0.00226025
0.00227839
0.00229602
0.00231312
0.00232969
0.0023457
0.00236117
0.00237607
0.0023904
0.00240415
0.00241731
0.00242989
0.00244188
0.00245328
0.00246408
0.00247427
0.00248386
0.00249283
0.00250119
0.00250894
0.00251607
0.00252259
0.00252851
0.00253381
0.00253844
0.00254243
0.00254592
0.00254875
0.00255099
0.00255289
0.00255425
0.00255499
0.00255515
0.0025547
0.00255363
0.00255195
0.00254967
0.00254678
0.00254331
0.00253926
0.00253464
0.00252945
0.00252372
0.00251747
0.00251069
0.00250344
0.00249568
0.00248748
0.0024788
0.00246971
0.0024602
0.00245034
0.00244012
0.00242962
0.00241885
0.00240786
0.00239669
0.00238536
0.00237389
0.00236231
0.00235063
0.00233888
0.00232706
0.00231521
0.00230333
0.00229141
0.00227944
0.00226736
0.00225504
0.00224225
0.00222857
0.00221284
0.00219255
0.00215843
6.61672e-10
7.80876e-08
9.50189e-07
4.8314e-06
1.60272e-05
3.4174e-05
5.61964e-05
7.8889e-05
9.84046e-05
0.000113799
0.00012558
0.000134974
0.000141548
0.00014578
0.000147984
0.000148425
0.00014735
0.000144956
0.000141475
0.000136977
0.000131374
0.00012522
0.000118151
0.000109873
0.000100512
8.56383e-05
7.08107e-05
5.67297e-05
4.42905e-05
3.59266e-05
3.29289e-05
3.65264e-05
5.09996e-05
7.36078e-05
9.34112e-05
0.000106467
0.000114301
0.000119637
0.000126146
0.000136994
0.000153885
0.000164051
0.000178099
0.00020216
0.000231511
0.000267611
0.000310337
0.000357722
0.000410183
0.000465658
0.000523719
0.00058328
0.000643886
0.000704693
0.000765226
0.000824958
0.00088377
0.000940839
0.000996665
0.00105128
0.00110436
0.00115584
0.00120605
0.0012548
0.00130229
0.00134862
0.0013939
0.00143822
0.00148169
0.00152436
0.00156632
0.00160762
0.0016483
0.00168839
0.00172792
0.00176691
0.00180535
0.00184325
0.00188062
0.00191744
0.00195372
0.00198945
0.00202462
0.00205924
0.0020933
0.0021268
0.00215973
0.0021921
0.00222389
0.0022551
0.00228573
0.00231578
0.00234525
0.00237413
0.00240243
0.00243014
0.00245727
0.00248381
0.00250977
0.00253516
0.00255999
0.00258426
0.00260797
0.00263113
0.00265372
0.00267573
0.00269715
0.00271796
0.00273816
0.00275773
0.00277667
0.00279496
0.00281259
0.00282956
0.00284586
0.00286149
0.00287645
0.00289073
0.00290433
0.00291725
0.00292949
0.00294105
0.00295193
0.00296212
0.00297162
0.00298044
0.00298859
0.00299606
0.00300289
0.00300903
0.00301429
0.00301905
0.00302317
0.00302657
0.00302935
0.00303173
0.00303342
0.00303446
0.00303483
0.00303455
0.00303361
0.003032
0.00302974
0.00302683
0.00302328
0.00301911
0.00301432
0.0030089
0.00300288
0.00299629
0.00298913
0.00298143
0.00297318
0.00296441
0.00295513
0.00294538
0.00293515
0.0029245
0.00291346
0.00290208
0.00289038
0.00287841
0.0028662
0.00285379
0.0028412
0.00282846
0.00281557
0.00280257
0.00278948
0.00277633
0.00276312
0.00274987
0.00273656
0.00272315
0.00270952
0.00269549
0.00268065
0.00266404
0.00264314
0.0026112
2.09229e-09
1.95722e-07
2.49269e-06
1.32051e-05
3.51046e-05
6.32977e-05
9.15598e-05
0.000115507
0.000134214
0.000147863
0.000157391
0.000163039
0.000165884
0.000166757
0.000166255
0.00016467
0.00016216
0.000158808
0.000154543
0.000149306
0.000143192
0.000136243
0.000128035
0.000113153
9.67855e-05
8.19974e-05
6.8237e-05
5.67826e-05
4.99248e-05
5.18193e-05
6.48505e-05
8.3643e-05
0.000106312
0.000122073
0.000133638
0.00014199
0.000149935
0.000161442
0.000178853
0.000186403
0.000200518
0.000223696
0.000252245
0.000288667
0.000331181
0.000380311
0.000434576
0.000492433
0.00055332
0.000615958
0.000679938
0.000744546
0.000809355
0.000873874
0.000937808
0.00100048
0.00106215
0.00112297
0.00118234
0.00124039
0.00129713
0.0013525
0.00140663
0.00145952
0.00151125
0.00156192
0.00161161
0.00166039
0.00170834
0.00175552
0.00180198
0.00184777
0.00189292
0.00193746
0.00198138
0.00202471
0.00206744
0.00210956
0.00215108
0.00219197
0.00223224
0.00227187
0.00231085
0.00234918
0.00238686
0.00242389
0.00246025
0.00249595
0.00253099
0.00256536
0.00259906
0.00263208
0.00266444
0.00269613
0.00272715
0.0027575
0.00278719
0.00281621
0.00284457
0.00287226
0.00289929
0.00292568
0.00295143
0.00297653
0.00300097
0.00302475
0.00304785
0.00307028
0.00309201
0.00311305
0.00313338
0.00315302
0.00317195
0.00319015
0.00320764
0.00322439
0.0032404
0.00325569
0.00327024
0.00328406
0.00329715
0.00330951
0.00332115
0.00333205
0.00334223
0.0033517
0.00336046
0.00336851
0.0033759
0.00338252
0.00338831
0.00339352
0.00339809
0.00340187
0.0034051
0.0034078
0.0034098
0.00341111
0.00341175
0.00341171
0.00341099
0.0034096
0.00340754
0.00340482
0.00340145
0.00339744
0.00339283
0.00338764
0.00338183
0.00337543
0.00336845
0.00336089
0.00335276
0.00334409
0.00333487
0.00332513
0.0033149
0.0033042
0.00329308
0.00328156
0.00326968
0.00325749
0.00324501
0.00323228
0.00321933
0.00320617
0.00319282
0.00317931
0.00316568
0.00315194
0.00313812
0.00312423
0.00311028
0.00309623
0.003082
0.00306745
0.00305225
0.00303564
0.00301562
0.00298684
6.25849e-09
5.14485e-07
6.62625e-06
2.85395e-05
6.12698e-05
9.47604e-05
0.000122346
0.000143353
0.000158982
0.000169366
0.000175245
0.000177989
0.000178631
0.000177737
0.000175741
0.000172885
0.000169229
0.000164641
0.000159182
0.000153035
0.000146258
0.000138613
0.000123253
0.000107365
9.39873e-05
8.38538e-05
7.85858e-05
7.9673e-05
8.20843e-05
9.4396e-05
0.00011653
0.000139726
0.000158533
0.000168552
0.00017813
0.000189961
0.000199594
0.000206843
0.0002203
0.000241081
0.000267798
0.000302226
0.00034292
0.000390576
0.000443763
0.000501878
0.000563317
0.000627008
0.000692357
0.000758661
0.000825546
0.00089256
0.000959388
0.00102541
0.0010906
0.00115544
0.00121899
0.00128155
0.00134291
0.00140307
0.00146204
0.00151983
0.00157648
0.00163204
0.00168656
0.00174011
0.00179274
0.00184453
0.00189552
0.00194577
0.00199532
0.00204422
0.00209247
0.0021401
0.0021871
0.00223348
0.00227921
0.0023243
0.00236873
0.00241247
0.00245553
0.00249787
0.0025395
0.0025804
0.00262058
0.00266002
0.00269873
0.0027367
0.00277394
0.00281044
0.0028462
0.00288122
0.00291549
0.00294903
0.00298184
0.00301391
0.00304526
0.00307587
0.00310574
0.00313488
0.0031633
0.00319103
0.00321805
0.00324436
0.00326997
0.00329486
0.00331902
0.00334246
0.00336516
0.00338713
0.00340834
0.0034288
0.0034485
0.00346743
0.00348559
0.00350299
0.00351962
0.00353548
0.00355058
0.00356492
0.0035785
0.00359133
0.00360342
0.00361476
0.00362536
0.00363523
0.00364439
0.00365283
0.00366063
0.00366762
0.00367384
0.00367946
0.00368442
0.00368861
0.00369228
0.00369536
0.00369775
0.00369947
0.00370053
0.00370093
0.00370066
0.00369974
0.00369816
0.00369594
0.00369308
0.00368959
0.0036855
0.00368076
0.00367541
0.00366946
0.00366291
0.00365578
0.00364808
0.0036398
0.00363097
0.0036216
0.0036117
0.00360131
0.00359046
0.00357919
0.00356752
0.00355549
0.00354313
0.00353047
0.00351754
0.00350436
0.00349094
0.00347731
0.00346351
0.00344957
0.00343551
0.00342136
0.00340713
0.0033928
0.00337832
0.0033636
0.00334842
0.00333231
0.00331358
0.00328844
1.63169e-08
1.2722e-06
1.49311e-05
4.85825e-05
8.90331e-05
0.00012455
0.000151412
0.000169496
0.000180436
0.000186649
0.000189136
0.000188837
0.000186579
0.000183131
0.000178961
0.000174241
0.000168973
0.000163149
0.000156682
0.000149411
0.000141219
0.000128445
0.000113951
0.000103428
9.80985e-05
9.47909e-05
9.632e-05
0.000106972
0.000124941
0.000145366
0.000165619
0.000183639
0.00019808
0.000207817
0.000215634
0.000224397
0.000236962
0.000255361
0.000279653
0.000311038
0.000348808
0.000393237
0.000443427
0.000499074
0.000558912
0.00062193
0.000686964
0.000753327
0.000820577
0.000888289
0.00095615
0.00102374
0.00109064
0.00115729
0.0012232
0.00128831
0.00135242
0.00141552
0.00147755
0.00153851
0.0015984
0.00165723
0.00171503
0.00177185
0.00182773
0.00188273
0.00193688
0.00199025
0.00204288
0.00209482
0.0021461
0.00219677
0.00224684
0.00229631
0.00234519
0.00239344
0.00244104
0.00248798
0.00253424
0.00257978
0.0026246
0.00266867
0.00271197
0.00275449
0.00279624
0.00283722
0.00287745
0.00291692
0.00295559
0.00299346
0.00303052
0.00306678
0.00310224
0.00313689
0.00317075
0.00320382
0.0032361
0.0032676
0.00329833
0.0033283
0.00335751
0.00338597
0.00341368
0.00344064
0.00346684
0.00349229
0.00351698
0.00354091
0.00356408
0.00358647
0.00360809
0.00362894
0.00364899
0.00366827
0.00368675
0.00370446
0.00372138
0.00373751
0.00375288
0.00376747
0.0037813
0.00379437
0.00380669
0.00381827
0.00382912
0.00383924
0.00384865
0.00385737
0.00386546
0.00387273
0.00387931
0.00388528
0.0038906
0.00389519
0.00389931
0.00390278
0.00390562
0.00390782
0.00390939
0.00391033
0.00391065
0.00391034
0.00390942
0.00390789
0.00390575
0.003903
0.00389966
0.00389572
0.00389119
0.00388608
0.00388038
0.00387411
0.00386727
0.00385986
0.00385188
0.00384335
0.00383429
0.00382471
0.00381465
0.00380414
0.0037932
0.00378186
0.00377014
0.00375809
0.0037457
0.00373301
0.00372004
0.00370681
0.00369336
0.00367972
0.00366592
0.00365199
0.00363795
0.0036238
0.00360952
0.00359507
0.00358024
0.00356467
0.00354705
0.00352497
3.64903e-08
2.93228e-06
2.71483e-05
7.03894e-05
0.000113313
0.000147885
0.000172549
0.000188265
0.000196354
0.000198554
0.000196983
0.000193063
0.000187786
0.000181762
0.00017538
0.000168469
0.000161455
0.000153834
0.000146224
0.000138642
0.000131057
0.000123489
0.0001169
0.000113143
0.000115422
0.000123665
0.000136575
0.000152696
0.00017037
0.00018763
0.000203095
0.000215409
0.000225762
0.000237069
0.000249885
0.000266925
0.000288806
0.000316992
0.000351343
0.000391909
0.000438122
0.000489686
0.000545875
0.000606001
0.000669012
0.00073401
0.000800242
0.000867236
0.000934655
0.00100221
0.00106934
0.00113613
0.00120274
0.00126864
0.00133379
0.00139808
0.00146144
0.00152384
0.00158527
0.0016457
0.00170515
0.00176363
0.00182117
0.00187782
0.00193363
0.00198866
0.00204294
0.00209654
0.00214942
0.0022017
0.00225343
0.00230463
0.00235531
0.0024055
0.00245521
0.00250452
0.00255334
0.00260151
0.00264896
0.00269567
0.0027416
0.00278673
0.00283103
0.00287451
0.00291715
0.00295895
0.0029999
0.00303999
0.00307927
0.00311775
0.00315543
0.00319229
0.00322834
0.00326359
0.00329802
0.00333164
0.00336446
0.00339648
0.0034277
0.00345813
0.00348777
0.00351662
0.00354469
0.00357197
0.00359846
0.00362418
0.00364912
0.00367328
0.00369667
0.00371927
0.00374109
0.00376211
0.00378235
0.0038018
0.00382046
0.00383833
0.00385541
0.00387171
0.00388724
0.003902
0.003916
0.00392924
0.00394175
0.00395352
0.00396457
0.00397491
0.00398455
0.00399354
0.00400187
0.00400945
0.0040164
0.00402273
0.00402843
0.0040335
0.00403805
0.004042
0.00404535
0.00404811
0.00405029
0.00405188
0.00405289
0.00405333
0.0040532
0.00405249
0.00405122
0.00404939
0.004047
0.00404404
0.00404053
0.00403646
0.00403184
0.00402666
0.00402093
0.00401462
0.00400776
0.00400034
0.00399238
0.0039839
0.00397492
0.00396545
0.00395553
0.00394518
0.00393442
0.00392327
0.00391174
0.00389986
0.00388764
0.00387511
0.00386231
0.00384926
0.00383602
0.0038226
0.00380903
0.00379534
0.00378152
0.00376756
0.00375337
0.00373862
0.00372226
0.00370336
6.98892e-08
6.03095e-06
4.15676e-05
9.34159e-05
0.000139389
0.000172478
0.000193565
0.000204284
0.000207513
0.000205665
0.000200602
0.000193648
0.000185749
0.000177112
0.000168637
0.000159947
0.000151729
0.000144396
0.000138446
0.000133623
0.000130487
0.000130138
0.00013341
0.000140513
0.000150591
0.000163223
0.000177546
0.000192607
0.000207367
0.000220506
0.000232017
0.000244799
0.000259239
0.000275904
0.000296134
0.000321556
0.000352455
0.000389059
0.000431009
0.000477977
0.000529479
0.000585074
0.000644132
0.000705944
0.000769695
0.000834697
0.000900426
0.000966526
0.00103263
0.0010983
0.001164
0.00122916
0.00129378
0.00135766
0.0014207
0.00148286
0.00154409
0.00160439
0.00166377
0.00172224
0.00177982
0.00183649
0.00189225
0.00194724
0.00200151
0.00205514
0.0021082
0.00216083
0.00221329
0.00226536
0.00231695
0.00236809
0.00241877
0.00246901
0.00251881
0.00256808
0.00261679
0.00266494
0.00271241
0.00275922
0.00280532
0.00285067
0.00289524
0.00293901
0.00298197
0.00302411
0.00306546
0.00310603
0.00314581
0.0031848
0.00322299
0.00326037
0.00329693
0.00333268
0.00336761
0.00340171
0.00343497
0.00346741
0.00349903
0.00352982
0.00355979
0.00358894
0.00361728
0.00364481
0.00367154
0.00369747
0.00372261
0.00374697
0.00377054
0.00379332
0.00381533
0.00383654
0.00385697
0.00387661
0.00389547
0.00391354
0.00393082
0.00394733
0.00396307
0.00397805
0.00399228
0.00400577
0.00401852
0.00403056
0.00404189
0.00405252
0.00406247
0.0040718
0.00408044
0.00408843
0.00409579
0.00410256
0.00410873
0.00411434
0.00411942
0.00412393
0.00412788
0.0041313
0.00413417
0.0041365
0.00413831
0.00413959
0.00414035
0.00414059
0.0041403
0.0041395
0.00413818
0.00413634
0.00413398
0.0041311
0.00412769
0.00412376
0.00411928
0.00411425
0.00410867
0.00410253
0.00409585
0.00408865
0.00408093
0.00407271
0.00406402
0.00405486
0.00404526
0.00403523
0.00402477
0.00401391
0.00400265
0.00399104
0.00397911
0.00396688
0.0039544
0.0039417
0.00392881
0.00391576
0.00390257
0.00388926
0.00387578
0.0038619
0.0038467
0.00383067
1.13103e-07
1.01809e-05
5.38309e-05
0.000110115
0.000158154
0.000190924
0.000209039
0.000216269
0.000216076
0.000211179
0.000203593
0.000194499
0.000185114
0.000176004
0.000167824
0.000160804
0.00015505
0.000151431
0.000149678
0.000150015
0.000152768
0.000158117
0.000165961
0.000175939
0.000187473
0.000200106
0.00021313
0.00022565
0.00023756
0.000250628
0.000265956
0.000283064
0.000302482
0.000325857
0.000353766
0.000386662
0.000424421