/*--------------------------------*- C++ -*----------------------------------*\
  =========                 |
  \\      /  F ield         | OpenFOAM: The Open Source CFD Toolbox
   \\    /   O peration     | Website:  https://openfoam.org
    \\  /    A nd           | Version:  13
     \\/     M anipulation  |
\*---------------------------------------------------------------------------*/
FoamFile
{
    format      ascii;
    class       volScalarField;
    location    "1100";
    object      omega;
}
// * * * * * * * * * * * * * * * * * * * * * * * * * * * * * * * * * * * * * //

dimensions      [0 0 -1 0 0 0 0];

internalField   nonuniform List<scalar> 
12225
(
31477.7
31477.7
40017
50795.4
48462.5
52286.4
44965.8
39066.2
43479.2
47380
41245.9
37345.5
31477.7
31477.7
31477.7
43130.9
40246.7
31477.7
8345.01
7395.35
10922.7
14284.1
21333.9
23933.1
20368.8
20467.9
20770.7
20229.1
19597.5
18551.4
19267
17313.9
18104.7
19356
19274.2
18823.4
4668.41
2703.57
2420.83
3317.89
4947.34
5900.37
6912.06
7299.2
7092.35
7070.79
7472.56
7460.5
7594.46
8054.69
7808.22
8292.01
8266.27
8553.92
1686.23
1191.92
1020.57
1269.56
1715.91
2213.68
2352.76
2540.23
2708.48
2819.46
3044.27
3279.97
3414.07
3581.92
3622.94
3699.6
4211.19
3934.23
723.98
727.714
705.977
1277.36
1084.48
1282.3
1859.42
2443.79
2275.05
2879.88
2474.96
2566.17
3322.22
2991.03
3377.14
3562.62
3456.4
3297.02
496.201
576.091
614.142
672.079
1526.37
1075.3
1264.46
1492.41
1645.05
1830.62
2547.3
2285.07
2476.98
2717.88
2827.33
2813.48
2668.46
2512.41
451.548
465.812
716.661
633.338
732.107
1013.92
1000.02
1111.49
1464.48
1871.6
1691.17
1879.39
1957.99
1970.11
1927.97
1863.51
1775.83
1703.47
436.939
444.152
476.657
713.615
623.761
683.421
811.572
1035
966.785
1015.79
1162.38
1145.84
1201.46
1229.02
1229.49
1210.36
1164.51
1140.58
438.319
438.655
439.431
477.072
545.758
601.443
658.615
704.297
749.991
775.25
795.533
810.154
810.484
818.523
821.056
815.426
799.498
794.044
439.816
436.928
433.867
435.726
457.038
479.193
507.508
527.941
552.356
567.279
583.467
591.11
602.742
606.219
613.468
613.31
613.036
607.5
439.298
437.017
433.476
431.794
435.236
440.092
449.443
456.275
466.518
472.788
481.288
485.488
492.352
494.773
500.33
500.877
501.809
500.872
439.214
436.573
434.814
431.433
431.14
430.736
432.373
434.049
437.22
439.173
442.209
443.784
446.596
447.642
450.21
450.566
451.09
450.73
439.081
436.742
434.698
432.403
430.642
429.115
428.167
427.337
427.085
426.714
426.655
426.432
426.369
426.105
426.001
426.38
426.287
425.854
439.008
436.786
434.674
432.622
430.71
428.929
427.316
425.825
424.48
423.239
422.066
421.012
419.959
419.039
418.088
417.331
416.448
415.855
439.001
436.778
434.661
432.653
430.739
428.932
427.213
425.596
424.052
422.606
421.21
419.91
418.645
417.476
416.331
415.288
414.255
413.322
439
436.774
434.658
432.649
430.74
428.925
427.201
425.56
424
422.513
421.099
419.75
418.464
417.239
416.07
414.957
413.894
412.881
439.001
436.772
434.655
432.645
430.735
428.919
427.191
425.548
423.983
422.494
421.073
419.72
418.428
417.198
416.022
414.903
413.83
412.811
438.999
436.769
434.65
432.638
430.726
428.909
427.179
425.534
423.966
422.475
421.052
419.697
418.403
417.171
415.993
414.871
413.797
412.775
439
436.771
434.654
432.642
430.731
428.913
427.184
425.539
423.972
422.479
421.056
419.7
418.406
417.173
415.995
414.872
413.798
412.774
439
436.773
434.656
432.648
430.734
428.922
427.19
425.55
423.98
422.493
421.068
419.716
418.421
417.189
416.011
414.888
413.814
412.79
439.006
436.77
434.662
432.647
430.744
428.93
427.214
425.585
424.035
422.568
421.16
419.824
418.537
417.309
416.135
415.004
413.935
412.891
439.04
436.744
434.658
432.661
430.835
429.156
427.547
426.122
424.717
423.527
422.243
421.136
419.886
418.775
417.617
416.51
415.452
414.26
439.207
436.501
434.692
433.398
432.788
432.858
432.364
432.567
432.002
432.517
432.417
432.53
432.459
432.55
431.969
432.239
431.164
428.349
439.138
436.286
437.161
444.282
456.064
469.057
474.723
477.514
479.029
484.719
486.322
489.417
492.26
495.289
495.988
500.858
497.27
503.044
437.962
442.464
453.789
527.323
589.156
657.957
670.29
720.885
688.043
736.09
701.78
689.816
702.05
698.184
699.284
696.448
708.943
708.112
430.711
484.232
582.135
1002.2
1258.26
1607.03
1642.16
1707.06
1552.92
1731.14
1703.44
1593.69
1418.84
1432.16
1329.74
1345.42
1326.58
1306.26
274.839
905.015
1251.85
2787.54
1863.91
4252.24
5049.11
5871.38
5035.09
5122.06
4609.9
4070.06
3612.85
3252.16
2969.18
2789.28
2640.67
2576.59
473.452
1270.37
3566.26
5533.76
10104.7
15721
9617.6
8491.2
8236.4
10048.1
10228.4
9442.08
8358.15
7291.71
6432.77
5787.93
5412.33
4991.96
1381.08
9865.64
17079.6
20154
13993.1
13077.8
13912.4
12380.4
12076.3
12913.2
13059
12946.8
12304.5
12263
11984.8
11541
11069.2
11159
18117.5
23253.2
25534
26490.6
26853.8
26770
26581.8
26259.7
25851.5
25474.2
25128.8
24809.6
24530.4
24288.9
24080.3
23900.9
23738.7
23603.1
11463.2
2514.24
2516.41
2518.61
2520.83
2523.07
2525.32
2527.6
2529.9
2532.22
2534.57
2536.93
2539.31
2541.72
2544.15
2546.6
2549.08
2551.57
2554.09
2556.64
2559.2
2561.79
2564.41
2567.05
2569.71
2572.4
2575.12
2577.86
2580.62
2583.41
2586.23
2589.08
2591.95
2594.85
2597.77
2600.73
2603.71
2606.72
2609.76
2612.82
2615.92
2619.05
2622.2
2625.39
2628.61
2631.86
2635.14
2638.45
2641.79
2645.17
2648.58
2652.02
2655.5
2659.01
2662.55
2666.13
2669.74
3156
3296.44
2680.8
3237.56
3400.93
2692.19
3304.98
3371.31
3476.57
3558.81
3635.48
3717.11
3788.39
3862.52
3931.32
3999.97
4065.95
4130.85
4194.02
4256
4316.59
4376.09
4434.32
4491.59
4547.66
4602.85
4656.89
4710.14
4762.25
4813.61
4863.82
4913.27
4961.61
5009.1
5055.62
5101.22
5145.81
5189.4
5231.88
5273.29
5313.48
5352.52
5390.3
5427
5462.7
5497.99
5532.03
5565.17
5597.33
5628.51
5658.74
5687.93
5716.19
5743.36
5769.58
5794.69
5818.83
5841.84
5863.86
5884.74
5904.62
5923.37
5941.14
5957.76
5973.32
5987.68
6000.96
6013.06
6024.13
6034.01
6042.86
6050.42
6057.87
6063.61
6069.06
6071.93
6074.91
6076.96
6078.58
6079.18
6078.51
6075.98
6072.76
6068.27
6062.87
6056.46
6049.17
6040.98
6032.01
6022.25
6011.78
6000.59
5988.79
5976.35
5963.38
5949.85
5935.86
5921.36
5906.51
5891.25
5875.7
5859.85
5843.93
5828.03
5812.24
5796.65
5781.28
5766.22
5751.45
5737.09
5723.09
5709.6
5696.58
5684.14
5672.19
5660.75
5649.49
5638.12
5625.82
5611.63
5593.09
5565.32
5449.85
11463.2
1990.75
989.201
804.955
689.857
612.18
615.559
613.98
605.594
585.123
562.594
539.464
518.43
500.815
488.661
479.991
479.09
482.577
496.182
542.44
618.013
713.489
821.325
930.596
1033.83
1115.8
1175.52
1184.21
1162.75
1103
993.792
862.848
704.276
601.381
531.374
477.552
451.372
451.488
460.352
484.425
516.913
547.723
590.987
679.888
803.156
1014.38
1336.78
1641.43
1849.81
1987.66
2050.39
2069.9
2059.54
2017.19
1969.57
1936.88
1887.77
1849.04
1811.78
1708.61
1725.22
1690.41
1652.9
1676.1
1661.24
1659.97
1658.12
1657.61
1659.52
1662.73
1667.46
1672.62
1678.79
1685.29
1692.35
1699.65
1707.26
1715.01
1722.94
1730.94
1739.03
1747.14
1755.27
1763.37
1771.45
1779.46
1787.41
1795.26
1803.04
1810.65
1818.17
1825.5
1832.66
1839.62
1846.37
1852.91
1859.27
1865.5
1871.68
1878.01
1884.76
1892.44
1901.34
1909.43
1917.53
1925.3
1932.86
1940.17
1947.24
1954.07
1960.65
1966.99
1973.09
1978.94
1984.55
1989.92
1995.05
1999.94
2004.6
2009.01
2013.18
2017.09
2020.77
2024.2
2027.42
2030.41
2033.18
2035.73
2038.1
2040.31
2042.25
2044.03
2045.53
2046.97
2048.24
2049.3
2049.95
2049.92
2049.22
2048.12
2046.79
2045.26
2043.52
2041.6
2039.51
2037.23
2034.78
2032.11
2029.35
2026.33
2023.34
2019.97
2016.81
2013.18
2009.83
2006.05
2002.48
1998.6
1994.86
1990.97
1987.17
1983.35
1979.58
1975.84
1972.17
1968.56
1965.02
1961.57
1958.24
1955
1951.91
1948.94
1946.11
1943.51
1941.15
1939.1
1937.45
1936.68
1935.79
1945.2
11463.2
2015.58
801.616
619.759
650.528
660.964
638.674
588.077
531.004
476.29
427.288
386.17
353.621
327.889
307.988
292.706
281.682
273.961
270.069
272.252
278.795
295.535
323.978
363.337
415.419
473.064
536.348
588.253
628.235
639.993
629.177
599.389
542.228
477.555
415.092
373.135
373.466
384.724
409.426
450.587
528.418
643.481
798.375
991.434
1165.95
1312.44
1443.41
1531.74
1554.54
1551.41
1502.77
1449.76
1390.37
1334.41
1283.46
1243.09
1204.14
1172.92
1153.63
1129.62
1122.4
1114.14
1101.01
1101.17
1098.32
1097.34
1097.2
1098.42
1100.43
1103
1106.05
1109.43
1113.13
1117.03
1121.13
1125.37
1129.72
1134.16
1138.67
1143.22
1147.81
1152.41
1157.03
1161.63
1166.22
1170.79
1175.32
1179.81
1184.25
1188.62
1192.93
1197.17
1201.34
1205.44
1209.48
1213.47
1217.42
1221.39
1225.39
1229.49
1233.73
1238.14
1242.53
1246.69
1250.77
1254.69
1258.49
1262.14
1265.66
1269.03
1272.27
1275.37
1278.33
1281.15
1283.83
1286.37
1288.77
1291.03
1293.16
1295.14
1296.98
1298.67
1300.23
1301.64
1302.93
1304.07
1305.09
1305.98
1306.75
1307.39
1307.9
1308.28
1308.53
1308.68
1308.69
1308.53
1308.16
1307.51
1306.67
1305.69
1304.59
1303.38
1302.06
1300.63
1299.11
1297.48
1295.76
1293.93
1292.05
1290.04
1288.02
1285.84
1283.71
1281.39
1279.15
1276.75
1274.41
1271.96
1269.54
1267.07
1264.61
1262.15
1259.69
1257.24
1254.81
1252.4
1250.02
1247.67
1245.36
1243.1
1240.9
1238.78
1236.76
1234.9
1233.24
1231.92
1231.1
1231.33
1233.01
1243.61
11463.2
2028.28
984.672
938.221
878.794
758.269
646.726
543.791
461.01
398.931
352.142
315.446
286.776
264.584
247.539
234.481
224.651
217.456
212.575
210.096
210.454
213.408
219.352
231.385
250.387
275.903
308.888
343.564
377.745
403.365
420.213
418.12
408.022
380.949
388.54
437.884
520.498
581.2
637.893
710.302
814.636
950.73
1068.86
1146.34
1212.38
1264.81
1282.68
1244.52
1201.79
1155.17
1102.8
1058.27
1017.79
984.246
956.078
934.264
915.721
902.129
893.028
885.433
880.706
878.348
875.277
875.049
875.108
876.161
877.694
879.752
882.159
884.859
887.795
890.918
894.201
897.608
901.122
904.719
908.387
912.109
915.875
919.673
923.493
927.327
931.165
935
938.826
942.634
946.42
950.179
953.906
957.59
961.232
964.832
968.39
971.907
975.388
978.838
982.266
985.68
989.089
992.497
995.903
999.274
1002.56
1005.72
1008.78
1011.74
1014.59
1017.33
1019.97
1022.49
1024.9
1027.2
1029.39
1031.47
1033.43
1035.28
1037.02
1038.64
1040.14
1041.53
1042.79
1043.94
1044.97
1045.88
1046.68
1047.36
1047.92
1048.37
1048.7
1048.93
1049.05
1049.06
1048.95
1048.73
1048.38
1047.89
1047.26
1046.46
1045.54
1044.5
1043.37
1042.15
1040.83
1039.42
1037.93
1036.35
1034.69
1032.95
1031.15
1029.27
1027.34
1025.33
1023.29
1021.18
1019.05
1016.86
1014.66
1012.41
1010.15
1007.86
1005.57
1003.26
1000.95
998.646
996.342
994.049
991.769
989.506
987.267
985.058
982.887
980.77
978.735
976.821
975.084
973.625
972.605
972.512
973.761
980.301
11463.2
2256.64
1421.84
1157.8
925.025
721.419
559.084
448.57
371.718
317.746
279.315
251.573
231.393
216.384
205.119
196.631
190.255
185.566
182.355
180.521
180.641
181.752
184.41
190.026
199.157
212.598
231.489
254.008
278.039
299.968
315.558
332.771
359.395
430.501
529.954
608.175
673.351
742.751
819.827
893.905
958.799
1014.75
1062.06
1090.85
1097.58
1065.38
1018.54
980.853
940.052
903.298
870.421
843.55
820.815
802.559
787.924
776.829
768.187
762.264
758.382
756.405
754.776
754.761
755.135
756.434
758.18
760.366
762.861
765.626
768.598
771.741
775.027
778.43
781.934
785.52
789.179
792.896
796.662
800.469
804.307
808.168
812.044
815.929
819.815
823.695
827.564
831.416
835.246
839.051
842.823
846.56
850.253
853.909
857.523
861.097
864.629
868.121
871.573
874.983
878.351
881.668
884.927
888.112
891.204
894.198
897.099
899.9
902.603
905.204
907.702
910.097
912.386
914.57
916.647
918.615
920.472
922.217
923.85
925.368
926.769
928.054
929.22
930.267
931.193
932.001
932.688
933.256
933.704
934.031
934.235
934.324
934.315
934.207
933.949
933.573
933.07
932.439
931.679
930.786
929.775
928.66
927.444
926.131
924.722
923.219
921.626
919.945
918.183
916.344
914.432
912.446
910.398
908.282
906.119
903.897
901.639
899.332
896.994
894.618
892.219
889.795
887.354
884.899
882.435
879.966
877.498
875.035
872.579
870.134
867.707
865.302
862.935
860.618
858.371
856.226
854.231
852.468
851.064
850.394
850.828
854.187
11463.2
2838.59
1699.16
1190.97
830.768
588.692
446.204
357.657
304.151
269.324
244.261
224.951
209.595
197.27
187.44
179.674
173.712
169.367
166.455
164.942
165.004
165.989
168.409
172.76
179.265
188.869
202.8
221.113
244.123
275.011
321.525
382.243
477.578
578.916
656.307
721.461
782.731
834.7
875.581
910.785
944.146
960.532
961.843
931.406
900.583
867.549
833.864
804.647
777.196
754.28
734.899
719.178
706.403
696.437
688.868
683.466
679.75
677.892
677.143
677.22
678.143
679.785
681.861
684.408
687.282
690.421
693.767
697.283
700.938
704.708
708.576
712.529
716.553
720.64
724.781
728.967
733.192
737.447
741.725
746.018
750.319
754.622
758.92
763.206
767.474
771.72
775.938
780.124
784.273
788.376
792.434
796.444
800.404
804.313
808.168
811.969
815.711
819.393
823.009
826.549
830.011
833.387
836.669
839.854
842.943
845.931
848.818
851.601
854.277
856.845
859.302
861.649
863.884
866.002
868.002
869.883
871.641
873.276
874.785
876.166
877.419
878.541
879.532
880.391
881.119
881.713
882.174
882.501
882.685
882.743
882.73
882.543
882.219
881.762
881.171
880.446
879.587
878.597
877.484
876.255
874.914
873.463
871.905
870.242
868.477
866.614
864.658
862.618
860.495
858.291
856.013
853.664
851.254
848.785
846.266
843.697
841.087
838.439
835.758
833.05
830.321
827.573
824.814
822.047
819.279
816.513
813.753
811.002
808.265
805.549
802.864
800.224
797.646
795.158
792.8
790.637
788.764
787.441
786.965
788.157
11463.2
3372.55
1758.38
1038.25
655.865
460.536
356.482
297.62
260.667
235.752
217.742
203.958
193.071
184.057
176.433
170.058
164.937
161.078
158.625
157.656
158.117
159.967
163.738
169.647
178.498
190.83
208.041
233.738
273.742
333.982
424.37
523.228
603.132
668.249
724.695
769.433
803.458
831.316
852.921
861.871
856.922
833.562
811.53
784.833
759.831
734.982
712.118
692.377
675.177
661.027
649.383
640.137
632.98
627.733
624.146
622.264
621.581
621.749
622.885
624.742
627.18
630.112
633.412
637.027
640.886
644.939
649.148
653.485
657.928
662.461
667.072
671.75
676.487
681.275
686.107
690.976
695.875
700.797
705.733
710.677
715.621
720.557
725.478
730.379
735.253
740.095
744.899
749.66
754.372
759.031
763.629
768.167
772.644
777.055
781.397
785.669
789.867
793.99
798.033
801.997
805.87
809.648
813.324
816.898
820.366
823.727
826.977
830.114
833.134
836.034
838.811
841.459
843.975
846.361
848.613
850.731
852.711
854.551
856.25
857.804
859.213
860.476
861.591
862.558
863.376
864.043
864.56
864.926
865.13
865.202
865.163
864.946
864.576
864.057
863.391
862.578
861.62
860.522
859.287
857.922
856.431
854.815
853.077
851.221
849.249
847.164
844.964
842.652
840.244
837.742
835.155
832.488
829.748
826.942
824.076
821.155
818.184
815.169
812.117
809.034
805.926
802.797
799.655
796.504
793.351
790.2
787.054
783.916
780.793
777.691
774.619
771.589
768.618
765.73
762.956
760.347
757.976
756.016
754.618
754.207
11463.2
3537.83
1570.52
824.558
519.988
383.711
315.124
274.197
246.238
226.585
211.694
199.729
189.601
180.945
173.615
167.591
162.997
160.041
158.73
158.922
160.662
164.392
170.692
180.187
195.431
219.123
254.173
310.489
388.806
471.95
542.444
602.676
655.066
698.797
733.175
761.155
778.012
783.537
775.458
758.111
740.873
720.498
701.412
681.779
663.441
646.17
630.948
617.983
607.083
598.25
591.251
585.968
582.235
580.097
579.269
579.266
580.362
582.233
584.818
587.992
591.642
595.689
600.051
604.671
609.5
614.496
619.63
624.878
630.222
635.648
641.143
646.698
652.304
657.955
663.641
669.358
675.098
680.85
686.608
692.363
698.106
703.829
709.526
715.189
720.813
726.39
731.917
737.388
742.796
748.133
753.395
758.582
763.69
768.716
773.657
778.511
783.274
787.946
792.526
797.01
801.388
805.654
809.805
813.838
817.752
821.543
825.207
828.743
832.146
835.413
838.539
841.523
844.362
847.053
849.593
851.979
854.209
856.28
858.189
859.935
861.515
862.929
864.176
865.254
866.162
866.9
867.467
867.863
868.074
868.139
868.055
867.784
867.34
866.728
865.95
865.009
863.906
862.647
861.235
859.674
857.969
856.122
854.136
852.016
849.764
847.384
844.879
842.264
839.54
836.712
833.787
830.772
827.674
824.502
821.261
817.957
814.598
811.19
807.741
804.257
800.746
797.212
793.663
790.104
786.543
782.983
779.429
775.884
772.354
768.847
765.37
761.936
758.56
755.262
752.066
749.014
746.155
743.581
741.376
739.64
11463.2
3409.31
1302.46
667.237
441.065
341.968
289.869
258.889
238.715
222.873
210.202
199.716
190.905
183.4
177.164
172.349
169.221
167.941
168.734
171.831
177.575
187.398
202.583
224.622
258.932
307.589
368.772
432.736
491.008
543.355
589.093
628.917
662.468
691.384
709.584
715.36
710.126
697.375
683.226
667.478
652.571
637.576
623.327
609.345
596.335
584.536
574.366
565.856
558.924
553.514
549.526
546.939
545.738
545.493
546.267
547.931
550.425
553.619
557.42
561.739
566.49
571.603
577.014
582.672
588.532
594.559
600.725
607.008
613.392
619.858
626.392
632.981
639.615
646.283
652.975
659.69
666.416
673.142
679.859
686.556
693.226
699.859
706.449
712.988
719.469
725.885
732.224
738.481
744.659
750.755
756.76
762.675
768.496
774.219
779.841
785.359
790.77
796.071
801.258
806.325
811.269
816.084
820.769
825.319
829.732
834.006
838.137
842.121
845.953
849.631
853.148
856.503
859.69
862.709
865.554
868.225
870.716
873.026
875.15
877.089
878.838
880.399
881.769
882.948
883.934
884.728
885.328
885.731
885.927
885.961
885.805
885.45
884.901
884.163
883.236
882.127
880.837
879.371
877.732
875.926
873.955
871.823
869.534
867.093
864.503
861.77
858.9
855.901
852.778
849.539
846.189
842.738
839.194
835.565
831.859
828.084
824.247
820.357
816.423
812.453
808.452
804.429
800.389
796.34
792.289
788.24
784.198
780.168
776.156
772.17
768.218
764.311
760.462
756.689
753.013
749.464
746.086
742.955
740.082
737.304
11463.2
3014.93
1057.53
573.877
406.035
327.742
284.419
257.458
239.416
226.548
216.418
207.963
200.832
195.036
190.78
188.745
188.964
192.378
198.764
208.679
223.217
244.641
274.518
313.486
358.169
404.939
450.912
493.674
532.456
567.166
597.311
624.234
644.476
652.546
652.575
644.77
634.306
622.119
610.287
598.785
587.922
577.275
566.985
557.089
547.997
539.962
533.18
527.675
523.426
520.396
518.697
518.103
518.409
519.711
521.905
524.912
528.652
533.04
537.996
543.446
549.321
555.562
562.114
568.924
575.949
583.155
590.51
597.992
605.597
613.287
621.043
628.847
636.685
644.536
652.381
660.186
667.951
675.703
683.437
691.142
698.806
706.419
713.975
721.466
728.885
736.227
743.488
750.663
757.736
764.694
771.535
778.256
784.855
791.331
797.678
803.897
809.984
815.937
821.752
827.428
832.961
838.347
843.582
848.663
853.588
858.354
862.956
867.39
871.651
875.734
879.635
883.349
886.873
890.202
893.333
896.265
898.992
901.512
903.821
905.919
907.803
909.472
910.926
912.164
913.185
913.989
914.577
914.938
915.079
915.024
914.752
914.262
913.555
912.636
911.508
910.175
908.64
906.909
904.985
902.872
900.575
898.098
895.445
892.62
889.63
886.48
883.177
879.729
876.144
872.429
868.592
864.64
860.586
856.437
852.202
847.892
843.516
839.083
834.604
830.088
825.541
820.971
816.384
811.788
807.192
802.599
798.016
793.449
788.905
784.391
779.916
775.489
771.124
766.835
762.638
758.558
754.622
750.896
747.362
743.621
11463.2
2552.09
888.682
510.232
377.199
315.719
281.702
261.278
247.694
237.773
230.074
224.003
219.516
217.33
217.305
220.653
227.706
237.9
250.851
268.546
291.821
320.102
352.131
386.25
420.644
454.018
485.51
514.405
540.249
563.986
584.543
595.359
598.105
595.655
589.817
581.422
572.583
563.854
555.658
547.788
540.15
532.598
525.255
518.304
512.039
506.66
502.298
498.992
496.799
495.798
495.663
496.54
498.333
501.023
504.549
508.85
513.855
519.491
525.69
532.389
539.526
547.058
554.949
563.121
571.53
580.137
588.901
597.77
606.658
615.616
624.65
633.743
642.875
652.018
661.151
670.269
679.359
688.4
697.392
706.311
715.144
723.886
732.53
741.075
749.513
757.837
766.038
774.105
782.035
789.821
797.458
804.946
812.286
819.476
826.512
833.395
840.123
846.696
853.111
859.367
865.458
871.381
877.131
882.707
888.103
893.318
898.347
903.184
907.825
912.264
916.495
920.512
924.313
927.892
931.247
934.374
937.27
939.931
942.356
944.54
946.484
948.187
949.65
950.87
951.849
952.586
953.082
953.325
953.337
953.113
952.652
951.951
951.012
949.839
948.434
946.804
944.951
942.882
940.6
938.11
935.415
932.522
929.433
926.156
922.696
919.061
915.257
911.294
907.18
902.923
898.533
894.017
889.389
884.656
879.831
874.925
869.95
864.916
859.836
854.717
849.568
844.397
839.209
834.014
828.819
823.631
818.456
813.303
808.178
803.091
798.048
793.059
788.136
783.289
778.534
773.89
769.376
765.045
760.873
756.256
11463.2
2196.37
826.031
496.849
374.549
318.037
289.082
272.237
261.579
254.363
249.439
246.692
245.979
247.809
252.789
261.137
272.472
286.274
303.405
323.789
346.781
371.514
397.004
422.438
447.185
470.402
491.851
512.158
530.525
542.899
547.928
548.789
547.184
542.953
537.507
531.547
525.733
520.137
514.746
509.409
504.084
498.788
493.687
488.985
484.91
481.622
479.223
477.91
477.524
478.065
479.549
481.956
485.253
489.408
494.385
500.173
506.666
513.796
521.499
529.711
538.357
547.334
556.553
566.086
575.911
585.995
596.297
606.786
617.459
628.243
639.089
649.959
660.833
671.662
682.402
693.032
703.536
713.898
724.102
734.161
744.081
753.864
763.514
773.031
782.41
791.642
800.716
809.619
818.346
826.888
835.244
843.416
851.408
859.218
866.848
874.296
881.564
888.653
895.563
902.291
908.835
915.188
921.347
927.308
933.068
938.624
943.97
949.101
954.01
958.692
963.14
967.349
971.313
975.028
978.491
981.698
984.645
987.33
989.751
991.904
993.789
995.408
996.76
997.843
998.661
999.214
999.502
999.522
999.283
998.785
998.029
997.014
995.741
994.214
992.436
990.413
988.151
985.653
982.924
979.97
976.794
973.402
969.799
965.991
961.985
957.789
953.412
948.862
944.149
939.283
934.273
929.13
923.863
918.485
913.008
907.447
901.816
896.126
890.389
884.614
878.811
872.986
867.147
861.303
855.46
849.627
843.813
838.028
832.279
826.576
820.924
815.332
809.81
804.369
799.02
793.78
788.664
783.713
778.918
773.486
11463.2
1889.04
749.239
474.277
371.929
324.681
300.286
286.606
278.565
274.005
272.119
272.02
274.484
279.486
287.188
297.389
309.811
324.445
340.97
358.856
377.748
396.937
415.755
433.792
451.13
468.009
483.553
495.592
502.268
505.261
506.248
505.718
503.645
500.667
497.347
493.932
490.562
487.19
483.788
480.318
476.839
473.451
470.332
467.658
465.612
464.434
464.085
464.649
466.242
468.754
472.161
476.447
481.581
487.52
494.18
501.389
509.279
517.861
527.089
536.909
547.263
558.118
569.451
581.174
593.238
605.601
618.209
631.008
643.969
657.003
670.006
682.904
695.621
708.124
720.391
732.404
744.155
755.646
766.891
777.92
788.753
799.402
809.881
820.203
830.363
840.346
850.132
859.704
869.047
878.155
887.03
895.682
904.116
912.336
920.342
928.138
935.727
943.113
950.299
957.282
964.062
970.632
976.989
983.128
989.046
994.74
1000.2
1005.43
1010.42
1015.15
1019.62
1023.84
1027.78
1031.44
1034.83
1037.94
1040.76
1043.29
1045.53
1047.48
1049.13
1050.49
1051.56
1052.34
1052.83
1053.04
1052.96
1052.6
1051.95
1051.03
1049.84
1048.37
1046.63
1044.62
1042.35
1039.81
1037.02
1033.98
1030.7
1027.18
1023.42
1019.44
1015.23
1010.8
1006.16
1001.32
996.294
991.081
985.696
980.15
974.453
968.616
962.65
956.563
950.377
944.107
937.767
931.37
924.926
918.446
911.939
905.413
898.876
892.336
885.798
879.276
872.78
866.322
859.91
853.552
847.254
841.023
834.867
828.796
822.821
816.957
811.217
805.632
800.219
794.014
11463.2
1901.94
751.837
478.608
380.353
336.22
314.394
302.837
296.823
294.155
293.6
295.387
299.506
305.81
314.123
324.13
335.584
348.241
361.752
375.792
389.918
403.729
417.373
431.039
443.666
453.794
460.883
465.688
468.869
470.398
470.944
470.931
470.195
469.142
467.918
466.574
465.147
463.627
462.054
460.49
459.093
458.092
457.523
457.428
458.02
459.364
461.476
464.305
467.684
471.87
476.979
483.028
490.005
497.88
506.625
516.277
526.762
538.046
550.066
562.751
576.039
589.875
604.201
618.922
633.97
649.304
664.841
680.434
695.948
711.284
726.376
741.147
755.523
769.462
782.938
795.941
808.478
820.565
832.282
843.73
854.961
865.985
876.832
887.538
898.088
908.447
918.58
928.458
938.057
947.341
956.35
965.093
973.582
981.82
989.812
997.562
1005.08
1012.37
1019.45
1026.31
1032.95
1039.37
1045.56
1051.53
1057.26
1062.76
1068.02
1073.03
1077.78
1082.26
1086.47
1090.39
1094.03
1097.38
1100.42
1103.16
1105.61
1107.75
1109.58
1111.09
1112.27
1113.15
1113.72
1113.96
1113.9
1113.54
1112.86
1111.9
1110.64
1109.1
1107.27
1105.17
1102.79
1100.14
1097.21
1094.02
1090.56
1086.85
1082.88
1078.67
1074.21
1069.52
1064.6
1059.45
1054.09
1048.52
1042.75
1036.79
1030.66
1024.36
1017.91
1011.31
1004.58
997.733
990.786
983.759
976.664
969.513
962.317
955.086
947.831
940.56
933.282
926.005
918.731
911.481
904.269
897.105
889.996
882.951
875.974
869.073
862.25
855.519
848.891
842.381
835.995
829.758
823.725
816.781
11463.2
1851.49
742.319
483.501
390.856
349.629
329.399
318.762
313.418
311.224
310.948
313.22
317.544
323.628
331.114
339.635
348.977
358.926
369.217
379.62
390.141
400.9
410.654
418.779
425.431
430.92
435.459
439.031
441.885
444.188
446.183
448.036
449.794
451.339
452.716
453.947
455.075
456.125
457.157
458.202
459.272
460.199
461.584
463.632
466.592
470.477
475.253
480.942
487.647
495.353
504.064
513.808
524.581
536.34
549.056
562.729
577.307
592.838
609.157
626.117
643.611
661.536
679.789
698.253
716.808
735.295
753.599
771.645
789.323
806.51
823.095
838.968
854.041
868.328
881.853
894.642
906.72
918.064
928.907
939.581
950.187
960.616
970.936
981.257
991.496
1001.56
1011.39
1020.93
1030.18
1039.15
1047.81
1056.17
1064.24
1072
1079.48
1086.66
1093.58
1100.24
1106.66
1112.85
1118.81
1124.54
1130.03
1135.3
1140.33
1145.13
1149.7
1154.01
1158.07
1161.86
1165.37
1168.59
1171.52
1174.15
1176.47
1178.47
1180.17
1181.55
1182.63
1183.36
1183.74
1183.79
1183.56
1182.95
1182.03
1180.8
1179.27
1177.44
1175.31
1172.89
1170.19
1167.22
1163.97
1160.45
1156.65
1152.59
1148.26
1143.68
1138.85
1133.77
1128.46
1122.9
1117.12
1111.12
1104.9
1098.47
1091.84
1085.03
1078.04
1070.88
1063.58
1056.13
1048.57
1040.91
1033.17
1025.35
1017.46
1009.52
1001.53
993.508
985.466
977.412
969.357
961.309
953.268
945.265
937.311
929.416
921.586
913.827
906.146
898.548
891.034
883.618
876.314
869.137
862.091
855.188
848.533
840.883
11463.7
1835.62
743.399
492.665
402.386
362.111
342.612
331.965
326.205
323.666
323.168
325.007
328.659
333.705
339.781
346.551
353.902
361.698
369.805
377.872
385.634
392.86
399.74
406.322
412.458
418.313
423.894
429.276
434.453
439.406
444.087
448.377
452.12
455.749
459.345
462.94
466.602
470.369
474.332
478.548
483.154
488.363
494.274
501.079
509.044
517.991
527.861
538.698
550.56
563.431
577.326
592.3
608.466
625.622
643.641
662.437
681.899
701.849
722.228
742.97
763.956
785.066
806.175
827.161
847.893
868.251
888.12
907.414
926.034
943.887
960.861
976.829
991.611
1005.39
1018.31
1030.42
1041.75
1052.36
1062.35
1071.83
1080.91
1089.71
1098.5
1107.74
1117.01
1126.11
1134.94
1143.46
1151.66
1159.58
1167.16
1174.4
1181.28
1187.79
1193.95
1199.75
1205.24
1210.45
1215.39
1220.09
1224.54
1228.78
1232.79
1236.58
1240.16
1243.52
1246.68
1249.61
1252.31
1254.76
1256.96
1258.88
1260.53
1261.89
1262.94
1263.67
1264.1
1264.22
1264.08
1263.56
1262.69
1261.51
1260.03
1258.23
1256.13
1253.73
1251.04
1248.07
1244.81
1241.28
1237.47
1233.4
1229.06
1224.46
1219.6
1214.48
1209.12
1203.51
1197.67
1191.59
1185.29
1178.76
1172.01
1165.05
1157.89
1150.52
1142.97
1135.23
1127.32
1119.26
1111.04
1102.7
1094.25
1085.71
1077.1
1068.4
1059.65
1050.83
1041.98
1033.09
1024.19
1015.27
1006.37
997.484
988.651
979.872
971.152
962.498
953.915
945.41
936.99
928.662
920.425
912.299
904.299
896.435
888.71
881.124
873.837
865.51
11462.8
1811.26
744.09
500.914
411.735
371.397
351.847
340.714
334.423
331.499
330.739
332.076
335.179
339.596
345.124
351.401
358.259
365.496
372.911
380.62
388.426
396.236
403.961
411.679
419.373
427.199
435.164
443.376
451.817
460.331
468.966
477.785
486.889
496.223
505.82
515.7
525.92
536.503
547.532
559.03
571.116
583.868
597.287
611.315
625.825
640.941
656.796
673.425
690.814
708.929
727.796
747.528
767.756
788.478
809.681
831.307
853.261
875.421
897.662
919.879
941.931
963.718
985.116
1006.02
1026.32
1045.9
1064.71
1082.65
1099.72
1115.85
1131.03
1145.27
1158.51
1170.78
1182.28
1193.08
1203.21
1212.74
1221.66
1229.83
1237.34
1244.59
1252.04
1259.65
1267.09
1274.21
1280.97
1287.33
1293.31
1298.91
1304.13
1308.96
1313.41
1317.45
1321.12
1324.39
1327.4
1330.17
1332.69
1335
1337.11
1339.04
1340.79
1342.38
1343.81
1345.09
1346.21
1347.17
1347.94
1348.52
1348.88
1349.01
1348.93
1348.59
1347.95
1347.02
1345.85
1344.41
1342.69
1340.67
1338.36
1335.77
1332.9
1329.75
1326.34
1322.68
1318.76
1314.59
1310.17
1305.51
1300.61
1295.47
1290.09
1284.48
1278.63
1272.56
1266.26
1259.75
1253.02
1246.08
1238.93
1231.57
1224.02
1216.26
1208.31
1200.18
1191.86
1183.38
1174.73
1165.93
1156.99
1147.92
1138.73
1129.43
1120.04
1110.58
1101.04
1091.44
1081.79
1072.12
1062.42
1052.72
1043.02
1033.34
1023.74
1014.18
1004.69
995.262
985.908
976.636
967.457
958.379
949.425
940.607
931.925
923.388
914.998
906.746
898.835
889.891
11461.8
1800.51
748.796
505.677
417.821
378.058
358.821
347.535
341.612
339.196
338.771
340.744
344.481
349.628
355.868
363.148
371.504
380.527
389.76
399.736
410.547
422.262
434.443
447.297
460.954
475.568
491.111
507.636
525.009
543.349
562.6
582.715
603.578
624.965
646.756
668.857
691.228
713.833
736.726
759.723
782.779
805.784
828.658
851.24
873.435
895.216
916.953
938.984
960.892
982.553
1003.93
1024.72
1045.05
1065.09
1084.9
1104.51
1123.91
1143.05
1161.89
1180.35
1198.36
1215.81
1232.65
1248.77
1264.06
1278.46
1291.87
1304.29
1315.69
1326.13
1335.58
1344.23
1352.54
1360.42
1367.76
1374.51
1380.64
1386.06
1391.12
1395.99
1400.81
1406.01
1411.25
1415.83
1419.91
1423.52
1426.75
1429.61
1432.13
1434.31
1436.14
1437.61
1438.73
1439.5
1439.92
1439.94
1439.9
1439.79
1439.43
1438.95
1438.33
1437.61
1436.8
1435.91
1434.95
1433.92
1432.82
1431.63
1430.32
1428.87
1427.27
1425.5
1423.55
1421.4
1419.04
1416.47
1413.67
1410.66