/*--------------------------------*- C++ -*----------------------------------*\
  =========                 |
  \\      /  F ield         | OpenFOAM: The Open Source CFD Toolbox
   \\    /   O peration     | Website:  https://openfoam.org
    \\  /    A nd           | Version:  13
     \\/     M anipulation  |
\*---------------------------------------------------------------------------*/
FoamFile
{
    format      ascii;
    class       volScalarField;
    location    "1100";
    object      p;
}
// * * * * * * * * * * * * * * * * * * * * * * * * * * * * * * * * * * * * * //

dimensions      [0 2 -2 0 0 0 0];

internalField   nonuniform List<scalar> 
12225
(
-4.27561
-5.15888
-5.55575
-5.6911
-5.82948
-5.98704
-6.13424
-6.21306
-6.24226
-6.32081
-6.42643
-6.53704
-6.63996
-6.7324
-6.81804
-6.88821
-6.94753
-7.01611
-4.55015
-5.19348
-5.52801
-5.66144
-5.79901
-5.9529
-6.08918
-6.17337
-6.23054
-6.31069
-6.41446
-6.52096
-6.6212
-6.71059
-6.78689
-6.85585
-6.91348
-6.94437
-4.76683
-5.19609
-5.51426
-5.67175
-5.81144
-5.95844
-6.08317
-6.17459
-6.25164
-6.3319
-6.42782
-6.52615
-6.61913
-6.70208
-6.77306
-6.83542
-6.88346
-6.91068
-4.90557
-5.21728
-5.51575
-5.68276
-5.81494
-5.94998
-6.07024
-6.16536
-6.24634
-6.32672
-6.41762
-6.51076
-6.59908
-6.67842
-6.74686
-6.80542
-6.85197
-6.88458
-5.01863
-5.2578
-5.52483
-5.69151
-5.81813
-5.9455
-6.06343
-6.16079
-6.24468
-6.32639
-6.41408
-6.50287
-6.58682
-6.66242
-6.72803
-6.7841
-6.83038
-6.86632
-5.12227
-5.30613
-5.53597
-5.69931
-5.82335
-5.94479
-6.05925
-6.15667
-6.24166
-6.32332
-6.40766
-6.49188
-6.5714
-6.64335
-6.70641
-6.76082
-6.80691
-6.84466
-5.21861
-5.35838
-5.55591
-5.71186
-5.83228
-5.94747
-6.05729
-6.15352
-6.23873
-6.31989
-6.40143
-6.48182
-6.55759
-6.6264
-6.68724
-6.74027
-6.78596
-6.82451
-5.30792
-5.41524
-5.58398
-5.72865
-5.84395
-5.95297
-6.05777
-6.15195
-6.2365
-6.3165
-6.39532
-6.47207
-6.54421
-6.60992
-6.66852
-6.72006
-6.76502
-6.80361
-5.38916
-5.4721
-5.61474
-5.74741
-5.85748
-5.96081
-6.06044
-6.1518
-6.23489
-6.31321
-6.38926
-6.46256
-6.53131
-6.5942
-6.6507
-6.70078
-6.74488
-6.78319
-5.46285
-5.52717
-5.6468
-5.76759
-5.87206
-5.96976
-6.06418
-6.15225
-6.23328
-6.30955
-6.38284
-6.45292
-6.51857
-6.57884
-6.63327
-6.68185
-6.72495
-6.76269
-5.52937
-5.57937
-5.67927
-5.78801
-5.88617
-5.97831
-6.06773
-6.15229
-6.23095
-6.30498
-6.37561
-6.44274
-6.50555
-6.56336
-6.61581
-6.66292
-6.705
-6.7421
-5.58434
-5.62466
-5.70929
-5.80703
-5.89888
-5.98598
-6.07091
-6.15208
-6.22828
-6.30008
-6.36831
-6.4329
-6.49327
-6.54898
-6.59972
-6.64555
-6.6867
-6.72316
-5.63377
-5.66689
-5.73873
-5.82609
-5.91156
-5.99372
-6.0742
-6.15187
-6.22542
-6.2949
-6.36076
-6.42291
-6.48104
-6.53473
-6.58388
-6.62844
-6.66867
-6.70445
-5.68397
-5.71114
-5.77112
-5.84773
-5.92601
-6.00262
-6.07817
-6.15176
-6.22212
-6.28885
-6.35203
-6.41158
-6.46725
-6.51884
-6.56619
-6.60937
-6.64849
-6.68358
-5.73322
-5.75535
-5.80499
-5.87121
-5.9418
-6.01246
-6.08272
-6.15183
-6.21849
-6.28208
-6.3423
-6.3991
-6.45221
-6.50158
-6.54704
-6.5887
-6.62663
-6.66088
-5.77857
-5.79675
-5.8379
-5.89479
-5.95783
-6.02241
-6.08739
-6.1518
-6.21454
-6.27466
-6.33184
-6.38573
-6.43634
-6.48338
-6.52698
-6.56701
-6.60378
-6.63713
-5.81619
-5.83134
-5.86613
-5.9155
-5.97187
-6.03091
-6.09097
-6.151
-6.20983
-6.26658
-6.32068
-6.37187
-6.41997
-6.4649
-6.50661
-6.54519
-6.58071
-6.61328
-5.83992
-5.85323
-5.88404
-5.9285
-5.98021
-6.03516
-6.09149
-6.14808
-6.20377
-6.25769
-6.30919
-6.35804
-6.404
-6.44707
-6.48716
-6.5244
-6.55883
-6.59063
-5.84015
-5.85301
-5.88295
-5.92632
-5.97681
-6.03046
-6.08545
-6.14064
-6.19489
-6.24734
-6.29738
-6.34478
-6.38935
-6.43113
-6.47008
-6.50633
-6.53994
-6.57114
-5.80807
-5.8228
-5.85663
-5.90456
-5.95886
-6.01547
-6.0727
-6.12979
-6.18531
-6.23862
-6.289
-6.33652
-6.38092
-6.42243
-6.46095
-6.49677
-6.52991
-6.56068
-5.76107
-5.77908
-5.81989
-5.87563
-5.93635
-5.99778
-6.05925
-6.11972
-6.17804
-6.23314
-6.2849
-6.33315
-6.37809
-6.4197
-6.45823
-6.49382
-6.52673
-6.55715
-5.70009
-5.72375
-5.77561
-5.84249
-5.91132
-5.97894
-6.04582
-6.11104
-6.17291
-6.23062
-6.28416
-6.33367
-6.37931
-6.42126
-6.4598
-6.49522
-6.52781
-6.5579
-5.62719
-5.66007
-5.72807
-5.80871
-5.88611
-5.96029
-6.03347
-6.10402
-6.16983
-6.2304
-6.28602
-6.33701
-6.38354
-6.4259
-6.46443
-6.49961
-6.53177
-6.56134
-5.5431
-5.59063
-5.68072
-5.77635
-5.86158
-5.94254
-6.02261
-6.09873
-6.16841
-6.23175
-6.28943
-6.34184
-6.38915
-6.43186
-6.47039
-6.50533
-6.53717
-6.56636
-5.44773
-5.51763
-5.63611
-5.74601
-5.83698
-5.92454
-6.01221
-6.09429
-6.16802
-6.23427
-6.2941
-6.34775
-6.39562
-6.43818
-6.47626
-6.51054
-6.54152
-6.5699
-5.34376
-5.44427
-5.59704
-5.71966
-5.81465
-5.90851
-6.00309
-6.09055
-6.1682
-6.2377
-6.3001
-6.3555
-6.40417
-6.44693
-6.48467
-6.51834
-6.54874
-6.57666
-5.23246
-5.37552
-5.56193
-5.69269
-5.79361
-5.89642
-5.99803
-6.08955
-6.16987
-6.24141
-6.30529
-6.36112
-6.40976
-6.45191
-6.48877
-6.52132
-6.55043
-6.57758
-5.10251
-5.33844
-5.5485
-5.6699
-5.77333
-5.88682
-5.99705
-6.09393
-6.17843
-6.2536
-6.31978
-6.37673
-6.42527
-6.46673
-6.50246
-6.53359
-6.56144
-6.58789
-4.90979
-5.32331
-5.56736
-5.66677
-5.76178
-5.8771
-5.98918
-6.08747
-6.17442
-6.2526
-6.32158
-6.38089
-6.431
-6.4728
-6.50757
-6.53704
-6.56305
-6.58649
-4.63084
-5.24892
-5.55683
-5.66392
-5.76588
-5.88997
-6.00823
-6.11142
-6.2036
-6.28586
-6.3576
-6.41918
-6.47057
-6.51159
-6.54323
-6.56819
-6.58926
-6.60593
-7.50719
-7.50727
-7.50732
-7.50733
-7.50711
-7.50609
-7.50383
-7.50071
-7.49767
-7.49564
-7.49564
-7.49793
-7.50208
-7.50737
-7.51307
-7.5185
-7.52314
-7.52654
-7.5286
-7.52957
-7.52976
-7.52932
-7.52849
-7.5275
-7.5266
-7.52594
-7.52553
-7.52527
-7.52502
-7.52466
-7.52414
-7.52347
-7.52264
-7.52154
-7.52015
-7.51858
-7.51716
-7.51651
-7.51712
-7.51884
-7.52104
-7.52301
-7.52457
-7.52602
-7.52776
-7.53015
-7.53353
-7.53741
-7.54084
-7.5435
-7.54738
-7.55611
-7.57368
-7.6001
-7.63444
-7.67707
-7.72864
-7.7884
-7.8548
-7.92591
-7.99933
-8.07302
-8.14529
-8.21527
-8.28203
-8.34459
-8.40248
-8.45562
-8.50389
-8.54739
-8.58612
-8.62019
-8.64965
-8.67456
-8.69493
-8.71079
-8.72213
-8.72894
-8.73121
-8.72888
-8.72195
-8.71033
-8.69406
-8.67302
-8.64729
-8.61682
-8.58171
-8.5419
-8.49738
-8.44801
-8.39371
-8.33447
-8.27031
-8.20124
-8.12723
-8.04822
-7.96419
-7.87509
-7.78104
-7.68215
-7.57852
-7.46997
-7.35609
-7.23668
-7.11183
-6.98157
-6.84581
-6.70453
-6.55765
-6.40516
-6.24702
-6.08325
-5.91383
-5.73884
-5.55828
-5.37221
-5.18067
-4.98375
-4.78157
-4.57432
-4.36215
-4.14521
-3.92357
-3.69737
-3.46675
-3.23192
-2.99306
-2.75039
-2.50411
-2.25445
-2.00162
-1.74587
-1.48745
-1.22661
-0.963625
-0.698799
-0.432496
-0.164888
0.103931
0.373686
0.643967
0.91446
1.18485
1.45483
1.72409
1.99233
2.25927
2.52463
2.78814
3.04955
3.3086
3.56508
3.81875
4.06943
4.31692
4.56106
4.80169
5.0387
5.27197
5.50145
5.72706
5.94879
6.16661
6.38051
6.59049
6.79656
6.99873
7.19701
7.39143
7.582
7.76877
7.95174
8.13094
8.30637
8.47805
8.64604
8.81062
8.97173
9.13246
9.28392
-7.50825
-7.50842
-7.50876
-7.50914
-7.50918
-7.50848
-7.50674
-7.50442
-7.50271
-7.50253
-7.50424
-7.50771
-7.51249
-7.51797
-7.52353
-7.52869
-7.53307
-7.53646
-7.53867
-7.5395
-7.53899
-7.53739
-7.53509
-7.53252
-7.53011
-7.52812
-7.52668
-7.52567
-7.52489
-7.52417
-7.52349
-7.52285
-7.52218
-7.52137
-7.52033
-7.51916
-7.51839
-7.5186
-7.52004
-7.52228
-7.52445
-7.52574
-7.52605
-7.52594
-7.52544
-7.5246
-7.52473
-7.52824
-7.5352
-7.54181
-7.54845
-7.55883
-7.57429
-7.59665
-7.62933
-7.6743
-7.73024
-7.79473
-7.86529
-7.93918
-8.0141
-8.08837
-8.16081
-8.22999
-8.29455
-8.35445
-8.40977
-8.46048
-8.50661
-8.54824
-8.58543
-8.61824
-8.64671
-8.67084
-8.69065
-8.70611
-8.7172
-8.72387
-8.7261
-8.72381
-8.71699
-8.70555
-8.68947
-8.6687
-8.64323
-8.61307
-8.57826
-8.53878
-8.49462
-8.44567
-8.39183
-8.33312
-8.26955
-8.20114
-8.12786
-8.04968
-7.96656
-7.87845
-7.78531
-7.68706
-7.58361
-7.47493
-7.36117
-7.24236
-7.11835
-6.98898
-6.85417
-6.71384
-6.56794
-6.41643
-6.25928
-6.09648
-5.92807
-5.75404
-5.57446
-5.38936
-5.19878
-5.00281
-4.80158
-4.59526
-4.384
-4.16795
-3.94718
-3.72183
-3.49206
-3.25804
-3.01997
-2.77807
-2.53252
-2.28356
-2.0314
-1.77628
-1.51842
-1.25807
-0.995442
-0.730732
-0.464205
-0.196319
0.0724617
0.341945
0.611988
0.882283
1.15253
1.42241
1.69163
1.95988
2.22688
2.49235
2.75601
3.01761
3.2769
3.53365
3.78764
4.03867
4.28653
4.53108
4.77214
5.00959
5.24333
5.47327
5.69936
5.92157
6.13985
6.35422
6.56466
6.77119
6.97382
7.17255
7.36742
7.55844
7.74565
7.92908
8.10877
8.28478
8.45714
8.62588
8.79139
8.95295
9.11595
9.26685
-7.50945
-7.50944
-7.50948
-7.50957
-7.50966
-7.50968
-7.50984
-7.51065
-7.51259
-7.51583
-7.5202
-7.52536
-7.53092
-7.53647
-7.54164
-7.54612
-7.54972
-7.5523
-7.55379
-7.55412
-7.55328
-7.55137
-7.54855
-7.545
-7.54095
-7.53665
-7.53237
-7.52838
-7.52491
-7.52207
-7.51986
-7.51812
-7.51659
-7.51514
-7.51401
-7.51369
-7.51472
-7.51731
-7.52091
-7.5242
-7.5257
-7.52457
-7.52195
-7.51991
-7.51972
-7.52057
-7.52216
-7.52728
-7.53729
-7.5513
-7.56983
-7.59386
-7.62378
-7.66024
-7.70396
-7.75482
-7.81161
-7.87286
-7.93696
-8.00235
-8.06778
-8.13229
-8.19516
-8.25566
-8.31306
-8.36704
-8.41744
-8.46412
-8.507
-8.54603
-8.58117
-8.61238
-8.63961
-8.66283
-8.68196
-8.69696
-8.70775
-8.71427
-8.71645
-8.71423
-8.70754
-8.69631
-8.6805
-8.66004
-8.63493
-8.60514
-8.5707
-8.53161
-8.48786
-8.43934
-8.38598
-8.32778
-8.26475
-8.19692
-8.12424
-8.04673
-7.96434
-7.87708
-7.78487
-7.68766
-7.58532
-7.47781
-7.36518
-7.24747
-7.12457
-6.99636
-6.86275
-6.72363
-6.57899
-6.42873
-6.27286
-6.11134
-5.9442
-5.77144
-5.59313
-5.40927
-5.21995
-5.02522
-4.82523
-4.62012
-4.41006
-4.19516
-3.97554
-3.7513
-3.52262
-3.28967
-3.05266
-2.81176
-2.5672
-2.31919
-2.06794
-1.81369
-1.55668
-1.29715
-1.03531
-0.771396
-0.50564
-0.238435
0.0298021
0.298835
0.568456
0.838395
1.10834
1.37798
1.64701
1.91515
2.1821
2.44757
2.71129
2.973
3.23245
3.4894
3.74362
3.99493
4.24311
4.488
4.72943
4.96728
5.20142
5.43178
5.65828
5.88089
6.09957
6.31432
6.52513
6.73201
6.93497
7.13401
7.32917
7.52047
7.70794
7.8916
8.0715
8.24766
8.42019
8.58917
8.75524
8.91717
9.08277
9.2292
-7.5105
-7.51024
-7.50989
-7.50986
-7.51085
-7.51328
-7.51706
-7.52188
-7.52738
-7.53326
-7.53926
-7.54513
-7.55067
-7.55569
-7.56002
-7.56352
-7.56608
-7.56763
-7.56813
-7.56756
-7.56592
-7.56325
-7.55965
-7.55518
-7.54993
-7.54401
-7.53758
-7.53089
-7.52425
-7.51801
-7.51246
-7.50778
-7.50415
-7.50185
-7.50145
-7.50347
-7.50757
-7.51242
-7.51638
-7.51839
-7.51831
-7.51692
-7.5159
-7.51653
-7.51948
-7.52525
-7.53452
-7.54822
-7.56707
-7.59113
-7.62006
-7.65345
-7.69115
-7.73301
-7.77883
-7.82826
-7.88082
-7.93593
-7.9928
-8.05059
-8.10851
-8.16586
-8.22201
-8.27641
-8.32857
-8.37813
-8.42481
-8.46842
-8.50879
-8.54578
-8.57928
-8.6092
-8.63544
-8.6579
-8.67648
-8.6911
-8.70165
-8.70806
-8.71022
-8.70806
-8.7015
-8.69047
-8.6749
-8.65474
-8.62994
-8.60049
-8.5664
-8.52768
-8.4843
-8.4362
-8.38329
-8.32557
-8.26309
-8.19583
-8.12379
-8.04693
-7.96524
-7.8787
-7.78727
-7.6909
-7.58953
-7.4831
-7.3716
-7.25502
-7.13324
-7.00618
-6.87373
-6.73582
-6.59238
-6.44336
-6.28872
-6.12845
-5.96254
-5.79101
-5.61391
-5.43126
-5.24312
-5.04957
-4.85076
-4.64682
-4.4379
-4.2241
-4.00555
-3.78236
-3.55472
-3.32279
-3.08678
-2.84685
-2.60323
-2.35612
-2.10574
-1.85234
-1.59612
-1.33735
-1.07623
-0.813008
-0.547956
-0.281404
-0.0137036
0.254889
0.524125
0.793729
1.06339
1.33282
1.6017
1.86974
2.13665
2.40214
2.66593
2.92776
3.18737
3.44453
3.699
3.95059
4.19909
4.44431
4.68611
4.92434
5.15888
5.38963
5.61653
5.83953
6.05859
6.2737
6.48487
6.69208
6.89535
7.09467
7.29009
7.48161
7.66927
7.85311
8.03319
8.20952
8.38225
8.55141
8.71776
8.87949
9.04571
9.18556
-7.51267
-7.51213
-7.51172
-7.51287
-7.51663
-7.5225
-7.52947
-7.5368
-7.54405
-7.55092
-7.55727
-7.56302
-7.56811
-7.57248
-7.57604
-7.5787
-7.58039
-7.58106
-7.58069
-7.57924
-7.57672
-7.57315
-7.56858
-7.56304
-7.55662
-7.54936
-7.54132
-7.53268
-7.52367
-7.51469
-7.50629
-7.49908
-7.49384
-7.49151
-7.49261
-7.49621
-7.50051
-7.5044
-7.5074
-7.50944
-7.51096
-7.51282
-7.51624
-7.52226
-7.53192
-7.54599
-7.56468
-7.58756
-7.6142
-7.64436
-7.67766
-7.71389
-7.753
-7.79492
-7.83957
-7.8867
-7.93595
-7.9869
-8.03901
-8.09172
-8.14448
-8.19678
-8.24811
-8.29805
-8.34619
-8.39222
-8.43585
-8.47685
-8.51502
-8.55018
-8.58218
-8.61088
-8.63614
-8.65781
-8.67579
-8.68995
-8.70016
-8.70633
-8.70834
-8.7061
-8.69952
-8.68852
-8.67303
-8.65298
-8.62832
-8.59903
-8.56512
-8.52658
-8.48342
-8.43554
-8.38291
-8.32551
-8.26341
-8.19657
-8.12502
-8.0487
-7.96762
-7.88171
-7.79099
-7.69539
-7.59488
-7.4894
-7.3789
-7.26332
-7.14255
-7.01652
-6.88511
-6.74826
-6.60588
-6.45794
-6.30436
-6.14517
-5.98031
-5.80983
-5.63374
-5.45209
-5.26493
-5.07238
-4.87453
-4.67155
-4.46355
-4.25065
-4.03295
-3.81063
-3.58381
-3.35271
-3.11749
-2.87835
-2.63547
-2.38908
-2.1394
-1.88665
-1.63107
-1.37288
-1.11231
-0.849611
-0.585072
-0.318998
-0.051696
0.216557
0.485517
0.754878
1.02436
1.29364
1.56244
1.83044
2.09736
2.3629
2.62679
2.88876
3.14854
3.4059
3.66061
3.91245
4.16122
4.40675
4.64885
4.8874
5.12225
5.35334
5.58056
5.80388
6.02325
6.23867
6.45011
6.65759
6.86109
7.06065
7.25628
7.448
7.63584
7.81984
8.00004
8.1765
8.34933
8.51849
8.68473
8.84569
9.01135
9.14406
-7.51679
-7.5159
-7.51623
-7.52016
-7.52706
-7.53513
-7.54339
-7.55137
-7.55879
-7.56556
-7.57167
-7.57709
-7.58178
-7.58566
-7.58867
-7.59072
-7.59178
-7.5918
-7.59075
-7.58863
-7.58543
-7.58117
-7.57587
-7.56954
-7.56217
-7.55382
-7.54461
-7.53471
-7.52435
-7.51401
-7.50445
-7.49657
-7.49149
-7.48972
-7.49042
-7.49215
-7.49427
-7.4969
-7.50032
-7.50474
-7.51012
-7.51695
-7.52662
-7.54014
-7.55764
-7.57887
-7.60348
-7.63119
-7.66163
-7.6946
-7.72987
-7.76732
-7.80687
-7.84843
-7.89187
-7.93702
-7.98361
-8.03132
-8.07979
-8.12864
-8.17747
-8.22591
-8.27357
-8.32009
-8.36513
-8.40839
-8.44959
-8.48848
-8.52486
-8.5585
-8.58923
-8.61686
-8.64124
-8.6622
-8.67959
-8.69326
-8.70309
-8.70894
-8.71071
-8.70827
-8.70154
-8.69044
-8.67487
-8.65477
-8.63009
-8.60079
-8.56687
-8.52836
-8.48522
-8.43742
-8.38487
-8.32762
-8.2657
-8.19913
-8.12789
-8.05197
-7.97133
-7.88595
-7.79582
-7.70089
-7.60112
-7.49644
-7.38679
-7.27207
-7.15219
-7.02704
-6.89654
-6.76059
-6.61913
-6.47208
-6.31941
-6.16109
-5.9971
-5.82746
-5.65218
-5.47131
-5.28493
-5.09314
-4.89605
-4.69379
-4.48649
-4.27426
-4.05721
-3.83551
-3.60932
-3.37883
-3.1442
-2.90564
-2.66332
-2.41747
-2.1683
-1.91603
-1.6609
-1.40313
-1.14294
-0.880619
-0.616432
-0.350681
-0.0836467
0.184394
0.45318
0.722408
0.991794
1.26102
1.52981
1.79783
2.06481
2.33045
2.59446
2.85658
3.11654
3.3741
3.62902
3.88109
4.1301
4.37587
4.61821
4.857
5.0921
5.32342
5.55087
5.77442
5.994
6.20961
6.42124
6.62889
6.83255
7.03225
7.22798
7.4198
7.6077
7.79175
7.97198
8.14843
8.32118
8.49013
8.65595
8.81584
8.9807
9.1064
-7.52206
-7.52149
-7.52372
-7.5303
-7.53865
-7.54707
-7.55515
-7.56275
-7.56981
-7.5763
-7.58216
-7.58732
-7.59171
-7.59525
-7.59787
-7.59952
-7.60015
-7.59973
-7.59824
-7.59566
-7.59202
-7.58733
-7.58153
-7.57457
-7.56649
-7.55744
-7.54764
-7.53729
-7.52674
-7.51658
-7.50768
-7.50095
-7.49662
-7.4939
-7.49221
-7.49167
-7.49276
-7.49593
-7.50096
-7.50789
-7.51744
-7.53021
-7.54629
-7.56558
-7.58793
-7.61311
-7.64084
-7.67091
-7.70318
-7.73748
-7.77365
-7.81156
-7.85109
-7.89211
-7.93451
-7.97812
-8.02275
-8.06818
-8.11413
-8.16033
-8.20649
-8.25228
-8.29739
-8.34152
-8.38437
-8.42564
-8.46508
-8.50242
-8.53745
-8.56993
-8.59966
-8.62644
-8.65009
-8.67042
-8.68728
-8.7005
-8.70992
-8.71542
-8.71687
-8.71416
-8.70717
-8.69584
-8.68006
-8.65977
-8.63491
-8.60544
-8.57137
-8.53269
-8.48942
-8.4415
-8.38887
-8.3316
-8.2697
-8.20323
-8.13214
-8.05646
-7.97612
-7.89115
-7.80148
-7.70711
-7.60797
-7.50398
-7.39505
-7.28107
-7.16196
-7.03758
-6.90787
-6.77268
-6.632
-6.48569
-6.33377
-6.17614
-6.01285
-5.84385
-5.6692
-5.48892
-5.30313
-5.1119
-4.91537
-4.71363
-4.50683
-4.29505
-4.07847
-3.85721
-3.63147
-3.4014
-3.1672
-2.92904
-2.68712
-2.44164
-2.19282
-1.94088
-1.68605
-1.42856
-1.16863
-0.906548
-0.642594
-0.377034
-0.110159
0.15778
0.426482
0.695677
0.965045
1.23431
1.50314
1.77125
2.03834
2.30411
2.56827
2.83056
3.09069
3.34844
3.60356
3.85583
4.10504
4.35099
4.59351
4.83247
5.06773
5.29919
5.52679
5.75045
5.97016
6.18588
6.3976
6.60531
6.80902
7.00873
7.20447
7.39626
7.58414
7.76813
7.94828
8.12458
8.29712
8.46569
8.63094
8.78961
8.95372
9.07282
-7.52641
-7.52689
-7.53154
-7.53928
-7.54742
-7.55525
-7.56277
-7.56995
-7.57672
-7.58299
-7.58865
-7.59363
-7.59782
-7.60116
-7.60358
-7.60501
-7.60541
-7.60476
-7.60303
-7.60024
-7.59639
-7.59141
-7.58522
-7.57789
-7.56966
-7.56065
-7.55105
-7.54113
-7.53146
-7.52277
-7.51555
-7.50964
-7.50443
-7.49987
-7.49685
-7.49596
-7.49731
-7.50136
-7.50857
-7.519
-7.53262
-7.54924
-7.5688
-7.59108
-7.61588
-7.64303
-7.67233
-7.70364
-7.73682
-7.77172
-7.80821
-7.84617
-7.88549
-7.92605
-7.96772
-8.01036
-8.0538
-8.09786
-8.14231
-8.18694
-8.23147
-8.27566
-8.31921
-8.36185
-8.40332
-8.44333
-8.48162
-8.51794
-8.55206
-8.58373
-8.61275
-8.6389
-8.66198
-8.6818
-8.69819
-8.71098
-8.72
-8.72512
-8.7262
-8.72313
-8.71581
-8.70414
-8.68804
-8.66743
-8.64225
-8.61247
-8.57807
-8.53909
-8.49552
-8.44733
-8.39446
-8.33697
-8.27496
-8.20841
-8.13736
-8.06176
-7.98162
-7.89691
-7.80762
-7.7137
-7.61508
-7.51166
-7.40335
-7.29002
-7.17156
-7.04787
-6.91881
-6.7843
-6.64425
-6.49859
-6.34725
-6.19021
-6.02745
-5.85895
-5.68476
-5.50492
-5.31954
-5.12871
-4.93256
-4.73118
-4.5247
-4.31323
-4.09695
-3.87598
-3.65053
-3.42074
-3.18682
-2.94893
-2.70726
-2.46204
-2.21345
-1.96171
-1.70707
-1.44975
-1.18998
-0.928047
-0.664223
-0.398765
-0.13195
0.135956
0.40466
0.673882
0.943309
1.21265
1.4816
1.74984
2.01708
2.28301
2.54734
2.80981
3.07014
3.32807
3.58339
3.83584
4.08522
4.33132
4.57399
4.81306
5.04844
5.27999
5.50767
5.73139
5.95115
6.16689
6.37863
6.58632
6.78999
6.98964
7.1853
7.37699
7.56475
7.7486
7.92858
8.10466
8.27688
8.44497
8.60955
8.767
8.93041
9.04347
-7.52804
-7.52996
-7.53621
-7.5438
-7.55126
-7.55855
-7.5657
-7.57262
-7.57921
-7.58536
-7.59095
-7.59588
-7.60003
-7.60334
-7.60572
-7.60712
-7.6075
-7.60684
-7.60512
-7.60233
-7.59843
-7.59336
-7.58712
-7.57995
-7.57205
-7.56357
-7.55481
-7.5462
-7.53816
-7.5309
-7.52425
-7.51794
-7.51205
-7.50715
-7.50419
-7.50378
-7.50636
-7.51225
-7.52151
-7.53392
-7.5494
-7.56774
-7.58879
-7.61233
-7.63819
-7.6662
-7.69621
-7.72807
-7.76164
-7.79681
-7.83345
-7.87146
-7.91071
-7.95109
-7.99245
-8.03468
-8.07761
-8.12107
-8.16486
-8.20877
-8.25257
-8.29601
-8.33882
-8.38076
-8.42156
-8.46094
-8.49865
-8.53443
-8.56804
-8.59925
-8.62781
-8.65352
-8.67618
-8.69559
-8.71157
-8.72395
-8.73257
-8.73727
-8.73793
-8.73444
-8.7267
-8.71461
-8.69809
-8.67705
-8.65143
-8.62119
-8.58633
-8.54688
-8.50287
-8.45423
-8.40098
-8.34314
-8.28086
-8.21411
-8.14296
-8.06733
-7.98728
-7.90273
-7.81372
-7.72016
-7.62196
-7.51904
-7.41125
-7.29849
-7.18061
-7.05752
-6.92904
-6.79512
-6.65561
-6.51048
-6.35963
-6.20306
-6.0407
-5.87259
-5.69871
-5.51919
-5.33408
-5.14352
-4.94759
-4.74643
-4.54012
-4.32885
-4.11272
-3.89194
-3.66665
-3.43704
-3.20327
-2.96554
-2.72403
-2.47894
-2.23047
-1.97885
-1.72431
-1.46707
-1.20739
-0.945528
-0.68175
-0.416325
-0.149496
0.118435
0.387206
0.656501
0.926042
1.1955
1.4646
1.733
2.00041
2.26651
2.53103
2.79367
3.05419
3.31231
3.56781
3.82044
4.06996
4.31618
4.55894
4.7981
5.03352
5.26511
5.49279
5.71652
5.93624
6.15196
6.36363
6.57124
6.77479
6.97431
7.16982
7.36135
7.54892
7.73259
7.91233
8.08813
8.25996
8.42751
8.59138
8.74763
8.91039
9.01808
-7.52552
-7.52871
-7.53529
-7.54236
-7.54943
-7.55648
-7.56348
-7.57033
-7.57692
-7.58312
-7.58881
-7.59387
-7.59819
-7.60167
-7.60424
-7.60583
-7.6064
-7.6059
-7.60433
-7.60166
-7.59788
-7.59297
-7.58707
-7.58041
-7.57323
-7.56576
-7.5583
-7.55098
-7.54382
-7.53688
-7.5302
-7.5239
-7.5184
-7.51431
-7.51237
-7.51305
-7.5167
-7.5235
-7.53352
-7.54662
-7.56271
-7.5816
-7.6031
-7.62702
-7.65319
-7.68147
-7.71171
-7.74378
-7.77756
-7.81293
-7.84978
-7.88797
-7.92739
-7.96792
-8.00943
-8.05178
-8.09481
-8.13835
-8.18219
-8.22613
-8.26994
-8.31337
-8.35617
-8.39807
-8.4388
-8.47811
-8.51573
-8.55139
-8.58485
-8.61585
-8.64416
-8.66958
-8.6919
-8.71094
-8.72653
-8.73848
-8.74665
-8.75089
-8.75109
-8.74713
-8.7389
-8.72633
-8.7093
-8.68774
-8.66158
-8.63078
-8.59533
-8.55529
-8.51067
-8.46148
-8.40767
-8.34937
-8.28667
-8.21964
-8.14825
-8.07252
-7.99244
-7.90801
-7.81919
-7.7259
-7.62807
-7.52556
-7.41825
-7.30599
-7.18865
-7.06607
-6.93813
-6.8047
-6.66568
-6.52099
-6.37056
-6.21435
-6.05232
-5.88447
-5.71083
-5.5315
-5.34657
-5.15616
-4.96036
-4.7593
-4.55309
-4.34189
-4.12586
-3.90515
-3.67994
-3.45041
-3.21672
-2.97906
-2.73762
-2.4926
-2.24417
-1.99259
-1.73809
-1.48089
-1.22124
-0.959406
-0.695632
-0.430176
-0.163301
0.104708
0.373574
0.642989
0.912661
1.18227
1.45153
1.7201
1.98769
2.25398
2.51869
2.78153
3.04223
3.30055
3.55623
3.80902
4.05867
4.30498
4.5478
4.78698
5.02241
5.25399
5.48163
5.70529
5.92494
6.14058
6.35214
6.55962
6.763
6.96233
7.15763
7.34895
7.53629
7.71971
7.89918
8.07463
8.24603
8.41299
8.57612
8.73119
8.89332
8.99634
-7.51712
-7.521
-7.52737
-7.53431
-7.54145
-7.54861
-7.55573
-7.56274
-7.56952
-7.57598
-7.58196
-7.58733
-7.59197
-7.59577
-7.59864
-7.60052
-7.60136
-7.60114
-7.59986
-7.5975
-7.59409
-7.58972
-7.58456
-7.5788
-7.5726
-7.56607
-7.55932
-7.55247
-7.54559
-7.53877
-7.5323
-7.52651
-7.5218
-7.5186
-7.51747
-7.51884
-7.52305
-7.53024
-7.5405
-7.55375
-7.5699
-7.58878
-7.61023
-7.63408
-7.66021
-7.68848
-7.71877
-7.75095
-7.78492
-7.82055
-7.85771
-7.8963
-7.93619
-7.97725
-8.01934
-8.06232
-8.10601
-8.15022
-8.19474
-8.23936
-8.28384
-8.32791
-8.37129
-8.41371
-8.45489
-8.49455
-8.53243
-8.56826
-8.60178
-8.63276
-8.66096
-8.68617
-8.70821
-8.7269
-8.74207
-8.75358
-8.76126
-8.76499
-8.76466
-8.76016
-8.75139
-8.73825
-8.72065
-8.6985
-8.67171
-8.64024
-8.6041
-8.56331
-8.51797
-8.46806
-8.41358
-8.3547
-8.2915
-8.22409
-8.1524
-8.0765
-7.99635
-7.91196
-7.82327
-7.73022
-7.63271
-7.53057
-7.42371
-7.31191
-7.19507
-7.07297
-6.94552
-6.81253
-6.67396
-6.52965
-6.3796
-6.22368
-6.06192
-5.89426
-5.7208
-5.54157
-5.35676
-5.16642
-4.97069
-4.76966
-4.56349
-4.35231
-4.13631
-3.91562
-3.69045
-3.46093
-3.22727
-2.98963
-2.74822
-2.5032
-2.25477
-2.00319
-1.7487
-1.49151
-1.23187
-0.970031
-0.706241
-0.440732
-0.173794
0.0943165
0.36329
0.632848
0.902666
1.17245
1.44188
1.71065
1.97842
2.24491
2.5098
2.77283
3.03371
3.29219
3.54805
3.80098
4.05072
4.29707
4.5399
4.77907
5.01446
5.24596
5.47352
5.69706
5.9166
6.13211
6.34354
6.55082
6.754
6.95309
7.14815
7.3392
7.52629
7.70943
7.88861
8.06368
8.23461
8.40096
8.56336
8.71731
8.87881
8.97786
-7.50141
-7.50536
-7.51181
-7.51932
-7.52704
-7.53461
-7.54204
-7.54935
-7.55649
-7.56336
-7.5698
-7.57562
-7.58069
-7.58489
-7.58816
-7.59045
-7.59172
-7.59196
-7.59118
-7.5894
-7.58668
-7.58309
-7.57876
-7.57378
-7.56827
-7.56231
-7.55599
-7.54941
-7.54273
-7.53621
-7.53014
-7.52477
-7.52053
-7.51786
-7.51723
-7.519
-7.52348
-7.5308
-7.54105
-7.55416
-7.57008
-7.58866
-7.60981
-7.63339
-7.65931
-7.68746
-7.71774
-7.75005
-7.78424
-7.82024
-7.8579
-7.89714
-7.9378
-7.97979
-8.02291
-8.067
-8.11186
-8.15727
-8.20301
-8.24884
-8.29447
-8.33964
-8.38406
-8.42742
-8.46942
-8.50978
-8.54821
-8.58444
-8.6182
-8.64927
-8.67741
-8.70243
-8.72416
-8.74246
-8.75717
-8.76814
-8.77523
-8.77831
-8.77732
-8.77217
-8.76277
-8.74901
-8.73077
-8.70795
-8.68043
-8.6482
-8.61124
-8.56961
-8.52342
-8.47272
-8.41753
-8.35799
-8.29428
-8.22641
-8.15444
-8.07832
-7.9981
-7.91372
-7.82516
-7.73233
-7.6351
-7.53334
-7.42689
-7.31557
-7.19919
-7.07758
-6.95058
-6.81805
-6.67988
-6.53596
-6.38623
-6.2306
-6.06905
-5.90158
-5.72824
-5.54913
-5.36439
-5.17411
-4.97842
-4.77741
-4.57126
-4.36009
-4.14409
-3.9234
-3.69822
-3.46872
-3.23507
-2.99745
-2.75605
-2.51104
-2.26262
-2.01104
-1.75657
-1.49939
-1.23976
-0.977911
-0.714086
-0.448527
-0.181508
0.0866997
0.355799
0.625496
0.895477
1.16543
1.43505
1.704
1.97196
2.23864
2.50372
2.76692
3.02796
3.2866
3.54264
3.79574
4.04555
4.29192
4.53473
4.77385
5.00916
5.24057
5.468
5.6914
5.91078
6.12616
6.33743
6.54449
6.74741
6.94623
7.14101
7.33179
7.51858
7.70144
7.88029
8.05497
8.22541
8.39114
8.5528
8.70569
8.86652
8.9623
-7.47793
-7.48164
-7.48881
-7.49752
-7.50613
-7.51423
-7.52206
-7.52982
-7.53754
-7.54509
-7.55222
-7.55869
-7.56432
-7.56906
-7.57286
-7.5757
-7.57756
-7.57845
-7.57835
-7.57731
-7.57536
-7.57257
-7.56899
-7.5647
-7.55976
-7.55424
-7.54826
-7.54197
-7.5356
-7.52932
-7.52345
-7.51832
-7.51438
-7.512
-7.51163
-7.51356
-7.51807
-7.52526
-7.53524
-7.54796
-7.56339
-7.58146
-7.60212
-7.62527
-7.65088
-7.67886
-7.70913
-7.74161
-7.77616
-7.81269
-7.85107
-7.89121
-7.93295
-7.97616
-8.02065
-8.06622
-8.11265
-8.15971
-8.20712
-8.2546
-8.30184
-8.34852
-8.39433
-8.43896
-8.48208
-8.52337
-8.56254
-8.5993
-8.63339
-8.66452
-8.69249
-8.71712
-8.73833
-8.75602
-8.77008
-8.78032
-8.78658
-8.78879
-8.78697
-8.78108
-8.77102
-8.75663
-8.73773
-8.71418
-8.6859
-8.65285
-8.61504
-8.57253
-8.52549
-8.47397
-8.41806
-8.3579
-8.29367
-8.22539
-8.15312
-8.07683
-7.99653
-7.91218
-7.82373
-7.73111
-7.63419
-7.53284
-7.42682
-7.316
-7.20011
-7.07901
-6.95247
-6.82042
-6.68265
-6.53915
-6.38974
-6.23442
-6.0731
-5.90587
-5.73269
-5.55372
-5.36906
-5.17887
-4.98319
-4.78222
-4.57606
-4.36491
-4.1489
-3.92823
-3.70306
-3.47359
-3.23997
-3.00241
-2.76106
-2.51612
-2.26777
-2.01627
-1.76186
-1.50474
-1.24513
-0.983292
-0.719452
-0.453867
-0.186786
0.0814931
0.350697
0.620504
0.890622
1.16072
1.43049
1.69959
1.96772
2.23455
2.49978
2.76312
3.02428
3.28308
3.53936
3.79267
4.04254
4.28889
4.53165
4.77069
5.0059
5.23718
5.46446
5.6877
5.90691
6.12218
6.33328
6.5401
6.74273
6.94127
7.13575
7.32623
7.51272
7.6953
7.87383
8.04811
8.21805
8.38317
8.54411
8.696
8.85612
8.94931
-7.44745
-7.45128
-7.45974
-7.47002
-7.47963
-7.4883
-7.49679
-7.50536
-7.51388
-7.5223
-7.5304
-7.53781
-7.54418
-7.54948
-7.55384
-7.55732
-7.55987
-7.5615
-7.56218
-7.56194
-7.56079
-7.55877
-7.5559
-7.55222
-7.54781
-7.54274
-7.53714
-7.53114
-7.52496
-7.51883
-7.51311
-7.50813
-7.50432
-7.50201
-7.50162
-7.50339
-7.50758
-7.51428
-7.52364
-7.53565
-7.55035
-7.56771
-7.58771
-7.61031
-7.6355
-7.66323
-7.69344
-7.72606
-7.76099
-7.79815
-7.8374
-7.87865
-7.92173
-7.96647
-8.01265
-8.06007
-8.10845
-8.15752
-8.20696
-8.25644
-8.3056
-8.35407
-8.4015
-8.44753
-8.49182
-8.53404
-8.57387
-8.61102
-8.64519
-8.67611
-8.70356
-8.72742
-8.7477
-8.76446
-8.7776
-8.78687
-8.792
-8.79304
-8.79026
-8.78367
-8.77307
-8.75821
-8.73878
-8.71459
-8.68559
-8.65183
-8.61331
-8.57004
-8.52227
-8.46999
-8.41337
-8.35258
-8.28778
-8.21908
-8.14648
-8.06999
-7.98957
-7.90518
-7.81679
-7.72433
-7.62771
-7.52672
-7.42118
-7.31083
-7.19547
-7.07485
-6.94881
-6.81722
-6.67993
-6.53684
-6.38784
-6.23289
-6.07194
-5.90502
-5.73214
-5.5534
-5.36887
-5.17868
-4.98297
-4.78191
-4.57567
-4.36443
-4.14834
-3.92761
-3.70241
-3.47294
-3.23938
-3.00191
-2.76071
-2.51597
-2.26788
-2.01664
-1.76243
-1.5055
-1.24607
-0.984368
-0.72064
-0.455142
-0.188139
0.0800875
0.349246
0.61903
0.88913
1.15922
1.42899
1.6981
1.96622
2.23305
2.49826
2.76157
3.02269
3.28148
3.53787
3.79127
4.04112
4.28741
4.53008
4.76901
5.00409
5.23522
5.46234
5.68539
5.90449
6.11973
6.33072
6.53728
6.73962
6.93786
7.13205
7.32224
7.50845
7.69078
7.86904
8.04291
8.21236
8.37686
8.53711
8.68805
8.84741
8.93867
-7.41239
-7.41692
-7.42719
-7.43944
-7.4502
-7.4594
-7.46832
-7.47774
-7.48751
-7.49718
-7.50641
-7.51486
-7.52207
-7.52794
-7.5328
-7.53688
-7.54012
-7.54249
-7.54395
-7.54451
-7.54414
-7.54288
-7.54072
-7.53771
-7.53388
-7.52929
-7.52406
-7.51833
-7.51235
-7.50636
-7.50071
-7.49571
-7.49177
-7.48919
-7.48835
-7.48948
-7.49284
-7.49858
-7.50686
-7.51775
-7.53134
-7.54764
-7.56669
-7.58852
-7.61312
-7.64049
-7.67057
-7.70332
-7.73867
-7.77656
-7.81684
-7.85939
-7.90404
-7.95058
-7.99877
-8.04831
-8.09892
-8.15021
-8.20183
-8.25334
-8.30439
-8.35452
-8.40338
-8.45057
-8.49576
-8.53857
-8.5787
-8.61585
-8.64972
-8.68002
-8.70645
-8.7289
-8.74763
-8.76296
-8.77486
-8.78286
-8.7865
-8.78599
-8.7821
-8.77499
-8.7642
-8.74923
-8.72972
-8.70543
-8.67635
-8.64262
-8.60411
-8.56108
-8.51328
-8.46083
-8.40371
-8.34227
-8.27679
-8.20746
-8.13428
-8.05733
-7.97653
-7.89189
-7.80338
-7.71095
-7.61449
-7.51376
-7.40859
-7.29865
-7.18375
-7.06358
-6.93804
-6.80688
-6.67005
-6.52734
-6.37874
-6.22411
-6.06348
-5.89681
-5.72418
-5.54559
-5.36114
-5.17089
-4.97508
-4.77387
-4.56749
-4.35608
-4.13987
-3.91902
-3.69375
-3.46423
-3.23069
-2.99329
-2.75223
-2.50769
-2.25986
-2.00888
-1.75492
-1.49824
-1.23907
-0.977598
-0.714087
-0.448788
-0.18198
0.0860711
0.355059
0.62469
0.894638
1.16459
1.43421
1.70318
1.97115
2.23781
2.50283
2.7659
3.02671
3.28499
3.5405
3.79304
4.04241
4.28839
4.53079
4.76944
5.00422
5.23504
5.46182
5.68452
5.90337
6.11846
6.32923
6.53546
6.73749
6.93543
7.12936
7.31927
7.50524
7.68745
7.86554
8.03904
8.20801
8.37193
8.53153
8.68156
8.84013
8.93012
-7.37474
-7.38028
-7.39285
-7.40711
-7.41842
-7.42806
-7.43814
-7.44893
-7.45995
-7.4708
-7.48116
-7.49062
-7.49865
-7.50518
-7.51064
-7.51538
-7.51931
-7.52245
-7.52469
-7.52611
-7.52663
-7.52628
-7.52498
-7.5228
-7.51968
-7.51571
-7.51095
-7.50555
-7.49971
-7.49367
-7.48778
-7.48229
-7.47764
-7.47408
-7.47205
-7.47174
-7.47354
-7.47754
-7.48408
-7.49318
-7.5051
-7.51986
-7.53762
-7.5584
-7.58227
-7.60921
-7.63919
-7.67221
-7.70815
-7.74697
-7.78848
-7.83258
-7.87895
-7.92743
-7.97765
-8.02937
-8.08211
-8.13555
-8.18915
-8.24253
-8.29518
-8.3467
-8.39665
-8.44465
-8.49031
-8.53333
-8.57334
-8.61008
-8.64324
-8.67244
-8.69713
-8.71717
-8.73334
-8.74677
-8.75757
-8.7651
-8.76877
-8.76871
-8.7651
-8.758
-8.74706
-8.73203
-8.71238
-8.68803
-8.6589
-8.62511
-8.58679
-8.54377
-8.49612
-8.44347
-8.38591
-8.32386
-8.25772
-8.18767
-8.11384
-8.03629
-7.95505
-7.87012
-7.7815
-7.68914
-7.59287
-7.49247
-7.38768
-7.27825
-7.16387
-7.04431
-6.91935
-6.78883
-6.65255
-6.51037
-6.36219
-6.20796
-6.04763
-5.88121