/*--------------------------------*- C++ -*----------------------------------*\
  =========                 |
  \\      /  F ield         | OpenFOAM: The Open Source CFD Toolbox
   \\    /   O peration     | Website:  https://openfoam.org
    \\  /    A nd           | Version:  13
     \\/     M anipulation  |
\*---------------------------------------------------------------------------*/
FoamFile
{
    format      ascii;
    class       surfaceScalarField;
    location    "1100";
    object      phi;
}
// * * * * * * * * * * * * * * * * * * * * * * * * * * * * * * * * * * * * * //

dimensions      [0 3 -1 0 0 0 0];

internalField   nonuniform List<scalar> 
24170
(
3.06502e-06
1.23345e-07
2.91948e-06
1.45377e-07
2.78215e-06
1.37309e-07
2.65732e-06
1.24695e-07
2.54907e-06
1.08196e-07
2.45757e-06
9.15374e-08
2.38079e-06
7.66394e-08
2.31386e-06
6.70024e-08
2.25419e-06
5.95526e-08
2.20197e-06
5.22473e-08
2.15764e-06
4.42002e-08
2.11899e-06
3.85846e-08
2.08433e-06
3.45333e-08
2.05486e-06
2.9367e-08
2.03124e-06
2.35291e-08
2.01441e-06
1.67685e-08
2.00405e-06
1.04065e-08
8.95477e-09
1.9952e-06
3.46659e-06
7.39794e-08
3.50028e-06
1.11495e-07
3.51741e-06
1.19948e-07
3.51832e-06
1.23288e-07
3.50643e-06
1.19599e-07
3.48598e-06
1.11627e-07
3.46105e-06
1.01144e-07
3.43398e-06
9.38554e-08
3.40579e-06
8.75266e-08
3.3785e-06
7.95684e-08
3.35203e-06
7.0705e-08
3.32669e-06
6.40381e-08
3.30263e-06
5.86747e-08
3.27965e-06
5.23922e-08
3.25625e-06
4.69318e-08
3.23211e-06
4.08942e-08
3.20869e-06
3.38376e-08
3.06046e-08
3.18701e-06
3.68131e-06
5.51672e-08
3.69888e-06
9.38666e-08
3.71457e-06
1.04215e-07
3.72944e-06
1.08352e-07
3.74241e-06
1.06657e-07
3.75315e-06
1.00981e-07
3.76056e-06
9.3748e-08
3.76626e-06
8.82523e-08
3.77113e-06
8.26292e-08
3.77464e-06
7.60529e-08
3.7762e-06
6.90673e-08
3.7768e-06
6.33778e-08
3.77679e-06
5.86013e-08
3.77575e-06
5.33585e-08
3.77409e-06
4.8534e-08
3.77137e-06
4.36096e-08
3.76687e-06
3.84124e-08
3.43355e-08
3.76318e-06
3.93633e-06
4.41959e-08
3.94829e-06
8.16916e-08
3.95835e-06
9.38938e-08
3.96767e-06
9.86162e-08
3.9758e-06
9.81269e-08
3.98288e-06
9.35912e-08
3.98881e-06
8.75478e-08
3.99449e-06
8.24338e-08
3.99998e-06
7.70087e-08
4.00504e-06
7.09761e-08
4.00926e-06
6.48426e-08
4.01322e-06
5.94553e-08
4.01714e-06
5.47172e-08
4.02064e-06
4.98785e-08
4.02395e-06
4.52312e-08
4.02697e-06
4.06179e-08
4.0295e-06
3.59399e-08
3.19589e-08
4.03188e-06
4.21485e-06
3.64546e-08
4.2244e-06
7.21116e-08
4.23306e-06
8.518e-08
4.24089e-06
9.07922e-08
4.24781e-06
9.12798e-08
4.25362e-06
8.7887e-08
4.25836e-06
8.28688e-08
4.26282e-06
7.80574e-08
4.267e-06
7.28359e-08
4.2707e-06
6.72492e-08
4.27381e-06
6.16784e-08
4.27666e-06
5.65413e-08
4.27946e-06
5.18384e-08
4.2821e-06
4.71731e-08
4.28469e-06
4.2612e-08
4.28719e-06
3.81313e-08
4.28951e-06
3.36646e-08
2.96548e-08
4.29182e-06
4.51507e-06
3.04396e-08
4.52331e-06
6.36e-08
4.53119e-06
7.70438e-08
4.53841e-06
8.32647e-08
4.54504e-06
8.43901e-08
4.55076e-06
8.19538e-08
4.55556e-06
7.79127e-08
4.55999e-06
7.35192e-08
4.56408e-06
6.86695e-08
4.5677e-06
6.35748e-08
4.57082e-06
5.85308e-08
4.57362e-06
5.37135e-08
4.57627e-06
4.91582e-08
4.57876e-06
4.46703e-08
4.58112e-06
4.02506e-08
4.58337e-06
3.591e-08
4.58543e-06
3.16385e-08
2.77131e-08
4.58737e-06
4.83786e-06
2.52817e-08
4.84517e-06
5.62978e-08
4.85216e-06
7.00228e-08
4.85913e-06
7.63259e-08
4.86568e-06
7.79314e-08
4.87134e-06
7.63805e-08
4.87625e-06
7.3076e-08
4.88077e-06
6.90486e-08
4.88491e-06
6.45446e-08
4.88861e-06
5.98461e-08
4.89191e-06
5.51966e-08
4.89489e-06
5.06691e-08
4.89769e-06
4.63008e-08
4.90031e-06
4.20043e-08
4.90276e-06
3.77776e-08
4.90503e-06
3.36432e-08
4.90708e-06
2.96043e-08
2.58521e-08
4.90892e-06
5.18386e-06
2.09853e-08
5.19058e-06
4.93586e-08
5.19731e-06
6.30716e-08
5.20401e-06
6.94434e-08
5.2104e-06
7.13863e-08
5.21611e-06
7.05495e-08
5.22117e-06
6.79247e-08
5.22579e-06
6.436e-08
5.23001e-06
6.02707e-08
5.23381e-06
5.5994e-08
5.23726e-06
5.17034e-08
5.24043e-06
4.7465e-08
5.24338e-06
4.33132e-08
5.24613e-06
3.92288e-08
5.24868e-06
3.52156e-08
5.25103e-06
3.13011e-08
5.25313e-06
2.75214e-08
2.3996e-08
5.25497e-06
5.5548e-06
1.75035e-08
5.5611e-06
4.30821e-08
5.5678e-06
5.63818e-08
5.57436e-06
6.29172e-08
5.58062e-06
6.5193e-08
5.58639e-06
6.48429e-08
5.59162e-06
6.27547e-08
5.59638e-06
5.9625e-08
5.60073e-06
5.5927e-08
5.6047e-06
5.20096e-08
5.60834e-06
4.8047e-08
5.61168e-06
4.4082e-08
5.6148e-06
4.01661e-08
5.61768e-06
3.6314e-08
5.62034e-06
3.25397e-08
5.62277e-06
2.88792e-08
5.62492e-06
2.53615e-08
2.20891e-08
5.62681e-06
5.95264e-06
1.46312e-08
5.95839e-06
3.71192e-08
5.96495e-06
4.96397e-08
5.9715e-06
5.6217e-08
5.97778e-06
5.87955e-08
5.98365e-06
5.88736e-08
5.98905e-06
5.72826e-08
5.994e-06
5.46089e-08
5.99854e-06
5.13384e-08
6.00271e-06
4.78044e-08
6.00655e-06
4.41727e-08
6.0101e-06
4.05078e-08
6.01338e-06
3.68612e-08
6.0164e-06
3.32669e-08
6.01918e-06
2.97579e-08
6.0217e-06
2.63599e-08
6.02393e-06
2.31228e-08
2.01112e-08
6.0259e-06
6.37919e-06
1.22148e-08
6.38438e-06
3.19717e-08
6.39066e-06
4.33415e-08
6.39715e-06
4.97248e-08
6.40349e-06
5.24583e-08
6.40951e-06
5.28685e-08
6.41511e-06
5.16832e-08
6.42028e-06
4.94327e-08
6.42504e-06
4.65645e-08
6.42943e-06
4.33981e-08
6.43349e-06
4.01018e-08
6.43724e-06
3.67465e-08
6.4407e-06
3.3375e-08
6.44388e-06
3.00682e-08
6.4468e-06
2.68319e-08
6.44943e-06
2.37276e-08
6.45178e-06
2.07647e-08
1.80243e-08
6.45384e-06
5.74257e-06
1.05049e-08
5.74652e-06
2.78989e-08
5.75156e-06
3.82029e-08
5.75693e-06
4.42908e-08
5.76227e-06
4.70601e-08
5.76742e-06
4.76786e-08
5.77228e-06
4.67855e-08
5.77682e-06
4.4871e-08
5.78102e-06
4.23349e-08
5.78492e-06
3.94878e-08
5.78852e-06
3.64768e-08
5.79186e-06
3.33766e-08
5.79495e-06
3.02891e-08
5.79777e-06
2.72142e-08
5.80036e-06
2.42486e-08
5.8027e-06
2.13772e-08
5.80479e-06
1.86703e-08
1.61491e-08
5.80664e-06
6.99987e-06
8.75478e-09
7.00402e-06
2.37394e-08
7.00946e-06
3.2722e-08
7.01541e-06
3.8281e-08
7.02148e-06
4.09584e-08
7.02743e-06
4.16895e-08
7.03311e-06
4.10695e-08
7.03847e-06
3.94818e-08
7.04347e-06
3.73148e-08
7.04812e-06
3.48099e-08
7.05242e-06
3.21284e-08
7.05642e-06
2.93657e-08
7.06011e-06
2.65717e-08
7.06351e-06
2.38255e-08
7.0666e-06
2.11375e-08
7.06942e-06
1.85754e-08
7.07193e-06
1.61294e-08
1.38951e-08
7.07418e-06
8.53256e-06
7.06804e-09
8.53682e-06
1.94333e-08
8.5426e-06
2.69259e-08
8.54912e-06
3.17857e-08
8.55588e-06
3.41829e-08
8.56262e-06
3.49629e-08
8.56916e-06
3.45161e-08
8.57539e-06
3.32648e-08
8.58125e-06
3.14334e-08
8.58673e-06
2.93192e-08
8.59182e-06
2.69851e-08
8.59656e-06
2.46032e-08
8.60094e-06
2.21673e-08
8.60499e-06
1.97807e-08
8.60869e-06
1.74422e-08
8.61205e-06
1.52094e-08
8.61509e-06
1.30944e-08
1.11496e-08
8.61781e-06
1.04009e-05
5.36749e-09
1.04053e-05
1.50682e-08
1.04114e-05
2.08574e-08
1.04184e-05
2.47649e-08
1.04258e-05
2.67957e-08
1.04334e-05
2.7442e-08
1.04408e-05
2.71676e-08
1.04479e-05
2.61436e-08
1.04547e-05
2.47031e-08
1.0461e-05
2.29152e-08
1.0467e-05
2.10301e-08
1.04725e-05
1.90063e-08
1.04777e-05
1.70176e-08
1.04825e-05
1.50027e-08
1.04869e-05
1.30803e-08
1.04909e-05
1.12094e-08
1.04945e-05
9.4691e-09
7.85944e-09
1.04978e-05
1.26785e-05
3.71454e-09
1.26829e-05
1.05795e-08
1.26893e-05
1.45036e-08
1.26969e-05
1.7269e-08
1.2705e-05
1.86884e-08
1.27134e-05
1.91485e-08
1.27217e-05
1.8881e-08
1.27298e-05
1.81133e-08
1.27375e-05
1.69594e-08
1.27449e-05
1.56104e-08
1.27517e-05
1.41009e-08
1.27582e-05
1.25665e-08
1.27642e-05
1.0986e-08
1.27698e-05
9.44976e-09
1.27749e-05
7.93538e-09
1.27797e-05
6.50913e-09
1.2784e-05
5.14887e-09
3.93124e-09
1.2788e-05
1.54548e-05
2.0312e-09
1.54595e-05
5.93486e-09
1.54663e-05
7.75741e-09
1.54745e-05
9.12978e-09
1.54834e-05
9.77246e-09
1.54927e-05
9.87347e-09
1.55021e-05
9.56466e-09
1.55112e-05
8.9596e-09
1.55201e-05
8.13401e-09
1.55285e-05
7.17867e-09
1.55365e-05
6.14333e-09
1.5544e-05
5.07853e-09
1.5551e-05
4.00353e-09
1.55575e-05
2.94827e-09
1.55635e-05
1.92575e-09
1.55691e-05
9.55363e-10
1.55742e-05
4.56089e-11
-7.67366e-10
1.55789e-05
1.88394e-05
2.73618e-10
1.88445e-05
8.28682e-10
1.8852e-05
2.73433e-10
1.88611e-05
1.1079e-11
1.88711e-05
-3.05587e-10
1.88816e-05
-6.81266e-10
1.88923e-05
-1.10256e-09
1.89028e-05
-1.56958e-09
1.8913e-05
-2.06456e-09
1.89228e-05
-2.58243e-09
1.89321e-05
-3.10708e-09
1.89408e-05
-3.63403e-09
1.8949e-05
-4.15275e-09
1.89566e-05
-4.65714e-09
1.89637e-05
-5.13866e-09
1.89702e-05
-5.59034e-09
1.89763e-05
-6.00501e-09
-6.35587e-09
1.89819e-05
2.29654e-05
-1.78726e-09
2.29715e-05
-5.33983e-09
2.29804e-05
-8.75167e-09
2.29912e-05
-1.08905e-08
2.30032e-05
-1.23449e-08
2.30157e-05
-1.32242e-08
2.30284e-05
-1.3798e-08
2.30408e-05
-1.40452e-08
2.30529e-05
-1.41628e-08
2.30645e-05
-1.41201e-08
2.30755e-05
-1.4048e-08
2.30858e-05
-1.39163e-08
2.30954e-05
-1.37875e-08
2.31044e-05
-1.36418e-08
2.31128e-05
-1.35026e-08
2.31206e-05
-1.33606e-08
2.31279e-05
-1.32171e-08
-1.30471e-08
2.31345e-05
1.68124e-05
-3.524e-09
1.68174e-05
-1.0504e-08
1.68248e-05
-1.61006e-08
1.68333e-05
-1.96325e-08
1.68427e-05
-2.17152e-08
1.68522e-05
-2.29655e-08
1.6862e-05
-2.3414e-08
1.68712e-05
-2.35013e-08
1.68804e-05
-2.31343e-08
1.68888e-05
-2.26744e-08
1.6897e-05
-2.20332e-08
1.69044e-05
-2.1412e-08
1.69115e-05
-2.07425e-08
1.6918e-05
-2.01227e-08
1.69241e-05
-1.95101e-08
1.69297e-05
-1.89412e-08
1.69349e-05
-1.83938e-08
-1.78517e-08
1.69397e-05
1.46364e-05
-5.38194e-09
1.46417e-05
-1.58547e-08
1.46491e-05
-2.36217e-08
1.46576e-05
-2.81799e-08
1.46665e-05
-3.08099e-08
1.46757e-05
-3.20984e-08
1.46846e-05
-3.25061e-08
1.46933e-05
-3.21284e-08
1.47014e-05
-3.13654e-08
1.47091e-05
-3.02987e-08
1.47162e-05
-2.91535e-08
1.47228e-05
-2.79672e-08
1.47289e-05
-2.68211e-08
1.47346e-05
-2.57218e-08
1.47399e-05
-2.46972e-08
1.47447e-05
-2.37395e-08
1.47492e-05
-2.28489e-08
-2.19881e-08
1.47534e-05
1.27423e-05
-7.53433e-09
1.27481e-05
-2.16978e-08
1.27559e-05
-3.14112e-08
1.27644e-05
-3.6768e-08
1.27732e-05
-3.96505e-08
1.2782e-05
-4.09726e-08
1.27905e-05
-4.10426e-08
1.27985e-05
-4.02418e-08
1.2806e-05
-3.88839e-08
1.28129e-05
-3.72531e-08
1.28192e-05
-3.55147e-08
1.2825e-05
-3.37683e-08
1.28304e-05
-3.21069e-08
1.28353e-05
-3.05654e-08
1.28398e-05
-2.91467e-08
1.28439e-05
-2.78511e-08
1.28478e-05
-2.66558e-08
-2.55293e-08
1.28513e-05
1.10936e-05
-1.01603e-08
1.11002e-05
-2.83642e-08
1.11085e-05
-3.96788e-08
1.11171e-05
-4.5349e-08
1.11256e-05
-4.82677e-08
1.11341e-05
-4.94079e-08
1.11421e-05
-4.91144e-08
1.11495e-05
-4.77433e-08
1.11564e-05
-4.577e-08
1.11626e-05
-4.34871e-08
1.11682e-05
-4.11415e-08
1.11732e-05
-3.88435e-08
1.11778e-05
-3.67147e-08
1.11819e-05
-3.47219e-08
1.11857e-05
-3.29372e-08
1.11892e-05
-3.13284e-08
1.11925e-05
-2.98689e-08
-2.85125e-08
1.11955e-05
9.65846e-06
-1.34025e-08
9.66633e-06
-3.61886e-08
9.67488e-06
-4.81594e-08
9.68324e-06
-5.37254e-08
9.6915e-06
-5.65238e-08
9.69948e-06
-5.74362e-08
9.70694e-06
-5.65888e-08
9.71375e-06
-5.45733e-08
9.71991e-06
-5.19189e-08
9.72538e-06
-4.90371e-08
9.73025e-06
-4.60369e-08
9.73455e-06
-4.32347e-08
9.73844e-06
-4.05753e-08
9.7419e-06
-3.8254e-08
9.74506e-06
-3.61443e-08
9.74799e-06
-3.42605e-08
9.75067e-06
-3.26294e-08
-3.10451e-08
9.75323e-06
8.40922e-06
-1.72622e-08
8.41854e-06
-4.55084e-08
8.42702e-06
-5.66813e-08
8.43485e-06
-6.15709e-08
8.44265e-06
-6.43378e-08
8.45016e-06
-6.49099e-08
8.45706e-06
-6.34997e-08
8.46327e-06
-6.07841e-08
8.46876e-06
-5.74378e-08
8.4736e-06
-5.3786e-08
8.47774e-06
-5.02593e-08
8.48144e-06
-4.69066e-08
8.48463e-06
-4.39603e-08
8.48755e-06
-4.12082e-08
8.49019e-06
-3.88281e-08
8.49259e-06
-3.6767e-08
8.49494e-06
-3.48969e-08
-3.32376e-08
8.49704e-06
7.32264e-06
-2.26156e-08
7.33227e-06
-5.51286e-08
7.34054e-06
-6.49594e-08
7.3479e-06
-6.89636e-08
7.3553e-06
-7.17608e-08
7.36227e-06
-7.19195e-08
7.36863e-06
-6.98506e-08
7.37428e-06
-6.64166e-08
7.37928e-06
-6.23567e-08
7.38354e-06
-5.814e-08
7.38722e-06
-5.38944e-08
7.39045e-06
-5.02433e-08
7.3934e-06
-4.68269e-08
7.39604e-06
-4.38982e-08
7.39849e-06
-4.13279e-08
7.40085e-06
-3.91028e-08
7.40309e-06
-3.72483e-08
-3.54322e-08
7.40536e-06
6.37808e-06
-3.06302e-08
6.38685e-06
-6.39455e-08
6.39479e-06
-7.29256e-08
6.40222e-06
-7.65594e-08
6.40945e-06
-7.89459e-08
6.41623e-06
-7.87032e-08
6.42256e-06
-7.61582e-08
6.42834e-06
-7.21588e-08
6.43361e-06
-6.75996e-08
6.43846e-06
-6.28634e-08
6.44282e-06
-5.848e-08
6.4471e-06
-5.43677e-08
6.45115e-06
-5.09211e-08
6.45506e-06
-4.77806e-08
6.45878e-06
-4.50285e-08
6.46233e-06
-4.26668e-08
6.46575e-06
-4.05693e-08
-3.86259e-08
6.46898e-06
5.56025e-06
-4.54216e-08
5.57097e-06
-7.47251e-08
5.58268e-06
-8.47192e-08
5.59638e-06
-9.04124e-08
5.61079e-06
-9.33441e-08
5.62533e-06
-9.32336e-08
5.63947e-06
-9.02808e-08
5.65263e-06
-8.52562e-08
5.6646e-06
-7.94406e-08
5.67501e-06
-7.33984e-08
5.68369e-06
-6.7129e-08
5.69074e-06
-6.13117e-08
5.69617e-06
-5.61774e-08
5.69988e-06
-5.14009e-08
5.70199e-06
-4.70736e-08
5.70281e-06
-4.34014e-08
5.70252e-06
-4.02427e-08
-3.75265e-08
5.70152e-06
4.88489e-06
-1.02716e-07
4.93908e-06
-1.28983e-07
4.98251e-06
-1.28248e-07
5.01502e-06
-1.23075e-07
5.03761e-06
-1.15926e-07
5.05096e-06
-1.06579e-07
5.0565e-06
-9.57962e-08
5.05551e-06
-8.41861e-08
5.04752e-06
-7.13759e-08
5.03334e-06
-5.92445e-08
5.01513e-06
-4.88697e-08
4.99324e-06
-3.92102e-08
4.96806e-06
-3.07942e-08
4.94151e-06
-2.47312e-08
4.91506e-06
-2.05332e-08
4.88921e-06
-1.74757e-08
4.86433e-06
-1.5248e-08
-1.37314e-08
4.84066e-06
4.09996e-06
3.97097e-06
3.8427e-06
3.71963e-06
3.6037e-06
3.49713e-06
3.40134e-06
3.31717e-06
3.24579e-06
3.18655e-06
3.13771e-06
3.09854e-06
3.06777e-06
3.04306e-06
3.02254e-06
3.00509e-06
2.98988e-06
2.97616e-06
-7.51524e-09
7.52984e-09
-2.02745e-08
1.28585e-08
-3.4639e-08
1.43846e-08
-4.72598e-08
1.26857e-08
-5.34581e-08
6.16582e-09
-4.72959e-08
-6.08894e-09
-2.66244e-08
-2.07649e-08
7.09959e-09
-3.35927e-08
4.96327e-08
-4.26531e-08
9.69827e-08
-4.71803e-08
1.44274e-07
-4.74045e-08
1.89e-07
-4.45591e-08
2.28574e-07
-3.96805e-08
2.62227e-07
-3.35057e-08
2.88705e-07
-2.65867e-08
3.08048e-07
-1.92157e-08
3.19487e-07
-1.15641e-08
3.23206e-07
-3.60061e-09
3.18465e-07
4.61076e-09
3.05755e-07
1.28141e-08
2.85027e-07
2.05793e-08
2.57538e-07
2.75663e-08
2.23998e-07
3.33623e-08
1.86439e-07
3.75653e-08
1.4652e-07
3.96986e-08
1.06989e-07
3.94086e-08
7.01368e-08
3.65159e-08
3.86107e-08
3.1256e-08
1.37447e-08
2.43993e-08
-3.82244e-09
1.71821e-08
-1.51032e-08
1.07582e-08
-2.06106e-08
5.14463e-09
-2.07659e-08
-3.40329e-10
-1.45989e-08
-6.49472e-09
-1.33912e-09
-1.37534e-08
2.04041e-08
-2.20802e-08
4.94528e-08
-2.94221e-08
8.17532e-08
-3.26426e-08
1.1178e-07
-3.0257e-08
1.34706e-07
-2.32301e-08
1.48314e-07
-1.37374e-08
1.53004e-07
-4.88096e-09
1.52109e-07
8.36575e-10
1.49073e-07
2.96542e-09
1.46847e-07
2.18346e-09
1.461e-07
7.65511e-10
1.40515e-07
5.47375e-09
1.22267e-07
1.85425e-08
8.25646e-08
3.9533e-08
1.76973e-08
6.55438e-08
-7.11555e-08
8.88079e-08
-1.77945e-07
1.07348e-07
-3.01001e-07
1.23027e-07
-4.35282e-07
1.34558e-07
-5.76803e-07
1.41477e-07
-7.22144e-07
1.45451e-07
-8.66915e-07
1.44746e-07
-1.00754e-06
1.40644e-07
-1.14259e-06
1.35038e-07
-1.26933e-06
1.26696e-07
-1.38679e-06
1.1747e-07
-1.49587e-06
1.0902e-07
-1.59546e-06
9.96364e-08
-1.68649e-06
9.0969e-08
-1.77034e-06
8.39163e-08
-1.84754e-06
7.71455e-08
-1.91864e-06
7.11654e-08
-1.98452e-06
6.58192e-08
-2.0456e-06
6.11493e-08
-2.10268e-06
5.70206e-08
-2.15599e-06
5.33771e-08
-2.20616e-06
5.01213e-08
-2.25332e-06
4.72088e-08
-2.29793e-06
4.45543e-08
-2.34004e-06
4.21376e-08
-2.37998e-06
3.98863e-08
-2.41778e-06
3.77975e-08
-2.45365e-06
3.58199e-08
-2.4876e-06
3.39542e-08
-2.51979e-06
3.21653e-08
-2.55024e-06
3.04547e-08
-2.57903e-06
2.88019e-08
-2.60623e-06
2.72029e-08
-2.63185e-06
2.56518e-08
-2.65597e-06
2.41336e-08
-2.67857e-06
2.26525e-08
-2.69976e-06
2.11854e-08
-2.71953e-06
1.975e-08
-2.73795e-06
1.83434e-08
-2.75509e-06
1.69395e-08
-2.77084e-06
1.55786e-08
-2.78521e-06
1.42303e-08
-2.79822e-06
1.28962e-08
-2.80987e-06
1.15634e-08
-2.82015e-06
1.02238e-08
-2.82906e-06
8.87036e-09
-2.83657e-06
7.48938e-09
-2.84263e-06
6.07438e-09
-2.8472e-06
4.60001e-09
-2.8502e-06
3.05609e-09
-2.85157e-06
1.42588e-09
-2.85129e-06
-2.16351e-10
-2.84955e-06
-1.67928e-09
-2.84656e-06
-2.94115e-09
-2.84238e-06
-4.16942e-09
-2.83699e-06
-5.39411e-09
-2.83041e-06
-6.62812e-09
-2.8226e-06
-7.87528e-09
-2.81354e-06
-9.13234e-09
-2.80323e-06
-1.04055e-08
-2.79163e-06
-1.16849e-08
-2.77875e-06
-1.29817e-08
-2.76455e-06
-1.42806e-08
-2.74905e-06
-1.55959e-08
-2.73222e-06
-1.69075e-08
-2.71407e-06
-1.8232e-08
-2.69458e-06
-1.95463e-08
-2.67376e-06
-2.08678e-08
-2.65159e-06
-2.21771e-08
-2.62811e-06
-2.34942e-08
-2.60332e-06
-2.48076e-08
-2.57725e-06
-2.613e-08
-2.54987e-06
-2.74366e-08
-2.52121e-06
-2.87412e-08
-2.49123e-06
-3.00137e-08
-2.45999e-06
-3.12802e-08
-2.42747e-06
-3.2514e-08
-2.39373e-06
-3.37442e-08
-2.35875e-06
-3.49421e-08
-2.32259e-06
-3.61313e-08
-2.28524e-06
-3.72828e-08
-2.24675e-06
-3.8427e-08
-2.20711e-06
-3.95307e-08
-2.1664e-06
-4.06119e-08
-2.12464e-06
-4.16259e-08
-2.08191e-06
-4.25953e-08
-2.03825e-06
-4.34917e-08
-1.99375e-06
-4.43256e-08
-1.94828e-06
-4.5273e-08
-1.9018e-06
-4.62819e-08
-1.85446e-06
-4.7159e-08
-1.80634e-06
-4.79815e-08
-1.75747e-06
-4.87533e-08
-1.70792e-06
-4.94773e-08
-1.65772e-06
-5.01554e-08
-1.60692e-06
-5.07839e-08
-1.55557e-06
-5.13654e-08
-1.50372e-06
-5.18944e-08
-1.45142e-06
-5.2376e-08
-1.39872e-06
-5.28043e-08
-1.34567e-06
-5.31867e-08
-1.29231e-06
-5.35137e-08
-1.2387e-06
-5.37935e-08
-1.18489e-06
-5.40135e-08
-1.13093e-06
-5.41828e-08
-1.07687e-06
-5.42916e-08
-1.02277e-06
-5.43529e-08
-9.6866e-07
-5.43628e-08
-9.14587e-07
-5.43359e-08
-8.60569e-07
-5.4272e-08
-8.06645e-07
-5.41839e-08
-7.52816e-07
-5.40743e-08
-6.99108e-07
-5.39519e-08
-6.45515e-07
-5.38202e-08
-5.92054e-07
-5.36802e-08
-5.38721e-07
-5.35349e-08
-4.85528e-07
-5.33816e-08
-4.32471e-07
-5.32294e-08
-3.79552e-07
-5.30723e-08
-3.26771e-07
-5.29234e-08
-2.74121e-07
-5.27665e-08
-2.21628e-07
-5.26033e-08
-1.69307e-07
-5.23983e-08
-1.17271e-07
-5.21096e-08
-6.56859e-08
-5.16191e-08
-1.50587e-08
-5.06644e-08
3.4039e-08
-4.90909e-08
7.99209e-08
-4.58885e-08
1.22088e-07
-4.21389e-08
-1.77107e-08
1.39766e-07
-3.16658e-09
1.07635e-08
-9.28559e-09
1.92359e-08
-1.23019e-08
1.74641e-08
-5.45047e-09
5.96813e-09
1.56648e-08
-1.49999e-08
5.08658e-08
-4.12313e-08
9.60497e-08
-6.60112e-08
1.46408e-07
-8.38828e-08
1.96774e-07
-9.30619e-08
2.44066e-07
-9.43852e-08
2.86394e-07
-8.97662e-08
3.23196e-07
-8.12666e-08
3.54012e-07
-7.05297e-08
3.79246e-07
-5.86509e-08
3.9893e-07
-4.63121e-08
4.13675e-07
-3.38851e-08
4.23618e-07
-2.15617e-08
4.29504e-07
-9.43258e-09
4.31521e-07
2.52431e-09
4.29967e-07
1.44119e-08
4.24225e-07
2.62361e-08
4.13951e-07
3.78458e-08
3.98337e-07
4.88768e-08
3.77091e-07
5.87713e-08
3.49866e-07
6.67805e-08
3.17112e-07
7.20502e-08
2.79662e-07
7.37616e-08
2.39331e-07
7.13977e-08
1.98487e-07
6.49455e-08
1.60441e-07
5.49489e-08
1.2856e-07
4.2206e-08
1.05963e-07
2.73844e-08
9.42707e-08
1.08184e-08
9.43348e-08
-6.92724e-09
1.05269e-07
-2.51363e-08
1.24536e-07
-4.16648e-08
1.4664e-07
-5.18253e-08
1.65114e-07
-5.13983e-08
1.75813e-07
-4.1148e-08
1.77308e-07
-2.49635e-08
1.69964e-07
-6.52657e-09
1.55082e-07
9.82379e-09
1.34222e-07
2.16342e-08
1.02026e-07
3.50728e-08
4.86951e-08
5.54938e-08
-3.44678e-08
8.39373e-08
-1.48246e-07
1.1925e-07
-2.84962e-07
1.55346e-07
-4.34397e-07
1.89016e-07
-5.88644e-07
2.19929e-07
-7.45292e-07
2.45521e-07
-9.01852e-07
2.6404e-07
-1.05449e-06
2.75724e-07
-1.19993e-06
2.8008e-07
-1.33552e-06
2.77106e-07
-1.45838e-06
2.6835e-07
-1.56862e-06
2.55013e-07
-1.66663e-06
2.3867e-07
-1.75287e-06
2.21287e-07
-1.82949e-06
2.0331e-07
-1.8978e-06
1.85776e-07
-1.9585e-06
1.69704e-07
-2.01366e-06
1.5481e-07
-2.06419e-06
1.41485e-07
-2.1103e-06
1.30037e-07
-2.15314e-06
1.19973e-07
-2.19315e-06
1.11188e-07
-2.23083e-06
1.03493e-07
-2.26641e-06
9.67437e-08
-2.30017e-06
9.07685e-08
-2.33221e-06
8.5437e-08
-2.36272e-06
8.06241e-08
-2.39174e-06
7.62406e-08
-2.41939e-06
7.21934e-08
-2.44568e-06
6.84285e-08
-2.4707e-06
6.48827e-08
-2.49444e-06
6.15237e-08
-2.51695e-06
5.83109e-08
-2.53823e-06
5.52271e-08
-2.55831e-06
5.2245e-08
-2.57722e-06
4.93543e-08
-2.59495e-06
4.65389e-08
-2.61154e-06
4.37911e-08
-2.62697e-06
4.11018e-08
-2.64128e-06
3.84604e-08
-2.65447e-06
3.58614e-08
-2.66657e-06
3.32945e-08
-2.67759e-06
3.07673e-08
-2.6876e-06
2.8261e-08
-2.69657e-06
2.57979e-08
-2.70448e-06
2.33566e-08
-2.71128e-06
2.09408e-08
-2.717e-06
1.8549e-08
-2.72165e-06
1.61608e-08
-2.72523e-06
1.37801e-08
-2.72777e-06
1.13922e-08
-2.72927e-06
8.99814e-09
-2.72976e-06
6.58798e-09
-2.72929e-06
4.16407e-09
-2.72792e-06
1.73789e-09
-2.72577e-06
-6.65225e-10
-2.72292e-06
-3.01245e-09
-2.7192e-06
-5.34161e-09
-2.71441e-06
-7.69774e-09
-2.70848e-06
-1.00875e-08
-2.70138e-06
-1.25018e-08
-2.6931e-06
-1.49466e-08
-2.68361e-06
-1.74184e-08
-2.67288e-06
-1.9919e-08
-2.66091e-06
-2.24455e-08
-2.64767e-06
-2.49965e-08
-2.63315e-06
-2.75702e-08
-2.61735e-06
-3.01624e-08
-2.60023e-06
-3.27716e-08
-2.58181e-06
-3.53903e-08
-2.56208e-06
-3.80171e-08
-2.54104e-06
-4.06428e-08
-2.51866e-06
-4.32639e-08
-2.49497e-06
-4.58782e-08
-2.46998e-06
-4.84923e-08
-2.44371e-06
-5.11053e-08
-2.41617e-06
-5.37164e-08
-2.38736e-06
-5.63099e-08
-2.35727e-06
-5.88785e-08
-2.32592e-06
-6.14084e-08
-2.29332e-06
-6.39051e-08
-2.25948e-06
-6.63604e-08
-2.22444e-06
-6.87825e-08
-2.18821e-06
-7.11602e-08
-2.15082e-06
-7.34988e-08
-2.11228e-06
-7.57837e-08
-2.07263e-06
-7.80258e-08
-2.03189e-06
-8.02093e-08
-1.99009e-06
-8.23375e-08
-1.94724e-06
-8.43878e-08
-1.90337e-06
-8.63744e-08
-1.85846e-06
-8.82876e-08
-1.81252e-06
-9.0148e-08
-1.76565e-06
-9.20141e-08
-1.71795e-06
-9.38498e-08
-1.66943e-06
-9.55634e-08
-1.62014e-06
-9.71792e-08
-1.57014e-06
-9.86925e-08
-1.51946e-06
-1.00116e-07
-1.46815e-06
-1.01437e-07
-1.41627e-06
-1.02667e-07
-1.36385e-06
-1.0379e-07
-1.31096e-06
-1.04819e-07
-1.25765e-06
-1.0574e-07
-1.20396e-06
-1.06567e-07
-1.14994e-06
-1.07286e-07
-1.09565e-06
-1.07913e-07
-1.04112e-06
-1.08429e-07
-9.8642e-07
-1.08846e-07
-9.3159e-07
-1.09148e-07
-8.76683e-07
-1.09348e-07
-8.21745e-07
-1.09441e-07
-7.66816e-07
-1.09448e-07
-7.11936e-07
-1.09371e-07
-6.57129e-07
-1.09233e-07
-6.02424e-07
-1.0904e-07
-5.47828e-07
-1.08814e-07
-4.93359e-07
-1.08561e-07
-4.39013e-07
-1.08295e-07
-3.84798e-07
-1.08019e-07
-3.30708e-07
-1.07734e-07
-2.76749e-07
-1.07445e-07
-2.22912e-07
-1.07155e-07
-1.69196e-07
-1.06871e-07
-1.1559e-07
-1.06596e-07
-6.20872e-08
-1.06328e-07
-8.70389e-09
-1.0603e-07
4.45264e-08
-1.05663e-07
9.75339e-08
-1.05137e-07
1.50189e-07
-1.04284e-07
2.02294e-07
-1.02765e-07
2.5331e-07
-1.00092e-07
3.02702e-07
-9.5257e-08
3.47304e-07
-8.67115e-08
-6.03361e-08
3.8993e-07
7.81287e-10
1.00425e-08
3.28638e-09
1.69645e-08
1.69545e-08
3.83433e-09
4.86174e-08
-2.56316e-08
9.69338e-08
-6.33482e-08
1.5358e-07
-9.78448e-08
2.09054e-07
-1.21505e-07
2.57737e-07
-1.32512e-07
2.9751e-07
-1.32846e-07
3.28947e-07
-1.25751e-07
3.53322e-07
-1.14146e-07
3.72267e-07
-1.00135e-07
3.86782e-07
-8.50507e-08
3.9785e-07
-6.96486e-08
4.05859e-07
-5.43333e-08
4.11337e-07
-3.93039e-08
4.14404e-07
-2.46545e-08
4.15446e-07
-1.04282e-08
4.1458e-07
3.35162e-09
4.123e-07
1.67133e-08
4.08764e-07
2.9719e-08
4.04227e-07
4.23826e-08
3.98399e-07
5.46212e-08
3.90934e-07
6.61975e-08
3.80949e-07
7.66545e-08
3.67624e-07
8.52831e-08
3.50086e-07
9.1145e-08
3.28164e-07
9.31758e-08
3.02466e-07
9.04472e-08
2.74839e-07
8.23826e-08
2.47878e-07
6.89261e-08
2.24481e-07
5.05653e-08
2.06732e-07
2.82846e-08
1.95955e-07
3.60383e-09
1.90906e-07
-2.03351e-08
1.86305e-07
-3.72854e-08
1.75453e-07
-4.11596e-08
1.55571e-07
-3.17066e-08
1.27102e-07
-1.28136e-08
9.05172e-08
1.14402e-08
4.39492e-08
3.99492e-08
-1.84304e-08
7.20733e-08
-1.03583e-07
1.06757e-07
-2.139e-07
1.45364e-07
-3.46061e-07
1.87661e-07
-4.9313e-07
2.31018e-07
-6.45877e-07
2.72007e-07
-7.98336e-07
3.07849e-07
-9.45794e-07
3.36496e-07
-1.0831e-06
3.57294e-07
-1.2075e-06
3.69973e-07
-1.31794e-06
3.7454e-07
-1.41376e-06
3.71591e-07
-1.49556e-06
3.61938e-07
-1.56531e-06
3.46886e-07
-1.62509e-06
3.28169e-07
-1.67728e-06
3.07235e-07
-1.72396e-06
2.85374e-07
-1.76651e-06
2.63851e-07
-1.80643e-06
2.43238e-07
-1.84462e-06
2.2398e-07
-1.88134e-06
2.06425e-07
-1.91713e-06
1.90595e-07
-1.95215e-06
1.76498e-07
-1.98618e-06
1.64072e-07
-2.01931e-06
1.53101e-07
-2.05152e-06
1.43395e-07
-2.0828e-06
1.34765e-07
-2.1131e-06
1.27047e-07
-2.14241e-06
1.20083e-07
-2.17071e-06
1.13743e-07
-2.19799e-06
1.07909e-07
-2.22424e-06
1.02489e-07
-2.24944e-06
9.74013e-08
-2.2736e-06
9.25847e-08
-2.29671e-06
8.79848e-08
-2.31876e-06
8.35657e-08
-2.33975e-06
7.92931e-08
-2.35967e-06
7.51451e-08
-2.37853e-06
7.11012e-08
-2.39633e-06
6.71481e-08
-2.41306e-06
6.32738e-08
-2.42874e-06
5.94702e-08
-2.44336e-06
5.57293e-08
-2.45694e-06
5.20427e-08
-2.46947e-06
4.84053e-08
-2.48097e-06
4.48112e-08
-2.49147e-06
4.12551e-08
-2.501e-06
3.77429e-08
-2.50955e-06
3.42571e-08
-2.51709e-06
3.08163e-08
-2.52361e-06
2.7409e-08
-2.52912e-06
2.40235e-08
-2.53363e-06
2.06581e-08
-2.53716e-06
1.73018e-08
-2.53971e-06
1.39513e-08
-2.54129e-06
1.06016e-08
-2.54192e-06
7.2473e-09
-2.5416e-06
3.89109e-09
-2.54034e-06
5.33313e-10
-2.53814e-06
-2.81658e-09
-2.53493e-06
-6.1714e-09
-2.53067e-06
-9.56206e-09
-2.52533e-06
-1.30174e-08
-2.51887e-06
-1.6531e-08
-2.51129e-06
-2.00972e-08
-2.50255e-06
-2.37137e-08
-2.49264e-06
-2.73772e-08
-2.48152e-06
-3.1087e-08
-2.46918e-06
-3.48375e-08
-2.45561e-06
-3.86287e-08
-2.44078e-06
-4.24523e-08
-2.42469e-06
-4.63077e-08
-2.40733e-06
-5.01847e-08
-2.38869e-06
-5.40812e-08
-2.36876e-06
-5.79854e-08
-2.34755e-06
-6.18919e-08
-2.32504e-06
-6.57899e-08
-2.30125e-06
-6.96807e-08
-2.27619e-06
-7.35654e-08
-2.24988e-06
-7.74457e-08
-2.22232e-06
-8.13139e-08
-2.19353e-06
-8.51583e-08
-2.16349e-06
-8.89609e-08
-2.13222e-06
-9.27161e-08
-2.09973e-06
-9.64173e-08
-2.06604e-06
-1.00066e-07
-2.03117e-06
-1.03657e-07
-1.99514e-06
-1.07189e-07
-1.95797e-06
-1.10657e-07
-1.91968e-06
-1.14053e-07
-1.88031e-06
-1.17375e-07
-1.83986e-06
-1.20621e-07
-1.79838e-06
-1.23782e-07
-1.75587e-06
-1.26849e-07
-1.71236e-06
-1.29825e-07
-1.66787e-06
-1.32712e-07
-1.62243e-06
-1.35515e-07
-1.57611e-06
-1.38255e-07
-1.52898e-06
-1.40904e-07
-1.48105e-06
-1.43417e-07
-1.43239e-06
-1.45791e-07
-1.38302e-06
-1.48021e-07
-1.33299e-06
-1.50108e-07
-1.28236e-06
-1.52049e-07
-1.23117e-06
-1.5384e-07
-1.17948e-06
-1.5548e-07
-1.12733e-06
-1.56967e-07
-1.07477e-06
-1.58301e-07
-1.02186e-06
-1.59483e-07
-9.68653e-07
-1.60516e-07
-9.15185e-07
-1.61399e-07
-8.61511e-07
-1.62131e-07
-8.07675e-07
-1.62708e-07
-7.53731e-07
-1.63127e-07
-6.99719e-07
-1.63389e-07
-6.45691e-07
-1.63507e-07
-5.91679e-07
-1.63491e-07
-5.37723e-07
-1.63364e-07
-4.83844e-07
-1.63141e-07
-4.30069e-07
-1.62849e-07
-3.76405e-07
-1.62504e-07
-3.22863e-07
-1.62132e-07
-2.6944e-07
-1.61742e-07
-2.16138e-07
-1.61347e-07
-1.62951e-07
-1.60943e-07
-1.09876e-07
-1.60543e-07
-5.69028e-08
-1.60148e-07
-4.02198e-09
-1.59773e-07
4.87763e-08
-1.59415e-07
1.01502e-07
-1.59075e-07
1.54167e-07
-1.58717e-07
2.06763e-07
-1.58281e-07
2.59242e-07
-1.57641e-07
3.11517e-07
-1.5658e-07
3.63432e-07
-1.54705e-07
4.14703e-07
-1.51381e-07
4.6496e-07
-1.45533e-07
5.1333e-07
-1.35098e-07
-1.10178e-07
5.63143e-07
7.67167e-11
1.00114e-08
1.10646e-08
6.18872e-09
4.88513e-08
-3.39473e-08
1.08317e-07
-8.50426e-08
1.73593e-07
-1.28636e-07
2.31113e-07
-1.5531e-07
2.74632e-07
-1.65026e-07
3.04551e-07
-1.62363e-07
3.23977e-07
-1.52262e-07
3.36572e-07
-1.38272e-07
3.44895e-07
-1.22457e-07
3.50723e-07
-1.05889e-07
3.54789e-07
-8.91074e-08
3.57602e-07
-7.23933e-08
3.59177e-07
-5.5905e-08
3.59673e-07
-3.97417e-08
3.58991e-07
-2.39775e-08
3.57275e-07
-8.67043e-09
3.54482e-07
6.12256e-09
3.50852e-07
2.03746e-08
3.46466e-07
3.40662e-08
3.41674e-07
4.71755e-08
3.36583e-07
5.9653e-08
3.31371e-07
7.13779e-08
3.25804e-07
8.21204e-08
3.19577e-07
9.14393e-08
3.11931e-07
9.86517e-08
3.02182e-07
1.0281e-07
2.8967e-07
1.02783e-07
2.74414e-07
9.74937e-08
2.56919e-07
8.62177e-08
2.38456e-07
6.88527e-08
2.20137e-07
4.63708e-08
2.01565e-07
2.19772e-08
1.77784e-07
3.22067e-09
1.43023e-07
-2.71041e-09
9.61732e-08
5.52371e-09
3.82827e-08
2.60051e-08
-3.17983e-08
5.71439e-08
-1.17116e-07
9.66434e-08
-2.19024e-07
1.41807e-07
-3.3687e-07
1.89883e-07
-4.68575e-07
2.38456e-07
-6.08826e-07
2.85616e-07
-7.50771e-07
3.2961e-07
-8.88096e-07
3.68361e-07
-1.01535e-06
3.99265e-07
-1.12878e-06
4.21306e-07
-1.22708e-06
4.34805e-07
-1.30983e-06
4.4009e-07
-1.37788e-06
4.38032e-07
-1.43298e-06
4.29693e-07
-1.47753e-06
4.16169e-07
-1.51421e-06
3.98661e-07
-1.54574e-06
3.7844e-07
-1.57426e-06
3.5673e-07
-1.60148e-06
3.34489e-07
-1.62855e-06
3.12462e-07
-1.65598e-06
2.91307e-07
-1.6841e-06
2.71369e-07
-1.71297e-06
2.52857e-07
-1.74242e-06
2.35881e-07
-1.77229e-06
2.20464e-07
-1.80235e-06
2.06557e-07
-1.83233e-06
1.94054e-07
-1.86205e-06
1.82815e-07
-1.89134e-06
1.72681e-07
-1.92008e-06
1.63497e-07
-1.94815e-06
1.5512e-07
-1.97548e-06
1.47417e-07
-2.00201e-06
1.40273e-07
-2.02768e-06
1.33588e-07
-2.05246e-06
1.27276e-07
-2.07632e-06
1.21265e-07
-2.09924e-06
1.155e-07
-2.12118e-06
1.09934e-07
-2.14215e-06
1.0453e-07
-2.16212e-06
9.92624e-08
-2.18109e-06
9.41098e-08
-2.19904e-06
8.90558e-08
-2.21599e-06
8.4089e-08
-2.23191e-06
7.92e-08
-2.24683e-06
7.43824e-08
-2.26072e-06
6.963e-08
-2.27361e-06
6.49374e-08
-2.2855e-06
6.02998e-08
-2.2964e-06
5.57125e-08
-2.30632e-06
5.11751e-08
-2.3153e-06
4.66757e-08
-2.32333e-06
4.22368e-08
-2.33039e-06
3.78263e-08
-2.33648e-06
3.34626e-08
-2.3416e-06
2.91282e-08
-2.34576e-06
2.48189e-08
-2.34897e-06
2.0523e-08
-2.35123e-06
1.62349e-08
-2.35254e-06
1.19475e-08
-2.35291e-06
7.65283e-09
-2.35232e-06
3.34963e-09
-2.35077e-06
-9.7181e-10
-2.34822e-06
-5.31291e-09
-2.34465e-06
-9.69699e-09
-2.34004e-06
-1.41423e-08
-2.33437e-06
-1.867e-08
-2.32762e-06
-2.32749e-08
-2.31978e-06
-2.79553e-08
-2.31081e-06
-3.27061e-08
-2.3007e-06
-3.75239e-08
-2.28943e-06
-4.2406e-08
-2.27697e-06
-4.73453e-08
-2.2633e-06
-5.23404e-08
-2.24842e-06
-5.73803e-08
-2.23231e-06
-6.24638e-08
-2.21496e-06
-6.75762e-08
-2.19637e-06
-7.27158e-08
-2.17652e-06
-7.78648e-08
-2.15542e-06
-8.30173e-08
-2.13306e-06
-8.81592e-08