/*--------------------------------*- C++ -*----------------------------------*\
  =========                 |
  \\      /  F ield         | OpenFOAM: The Open Source CFD Toolbox
   \\    /   O peration     | Website:  https://openfoam.org
    \\  /    A nd           | Version:  13
     \\/     M anipulation  |
\*---------------------------------------------------------------------------*/
FoamFile
{
    format      ascii;
    class       volVectorField;
    location    "1100";
    object      U;
}
// * * * * * * * * * * * * * * * * * * * * * * * * * * * * * * * * * * * * * //

dimensions      [0 1 -1 0 0 0 0];

internalField   nonuniform List<vector> 
12225
(
(9.80271 0.0515964 0)
(9.38028 0.0984689 0)
(8.95026 0.124517 0)
(8.52173 0.123207 0)
(8.15477 0.107822 0)
(7.83896 0.0857027 0)
(7.58111 0.0547102 0)
(7.35946 0.0445557 0)
(7.16056 0.0482918 0)
(6.98213 0.0403522 0)
(6.83106 0.0239354 0)
(6.70463 0.0150522 0)
(6.58954 0.0128219 0)
(6.48903 0.00569338 0)
(6.40112 0.0123224 0)
(6.33909 0.0157594 0)
(6.30103 -0.00235601 0)
(6.28114 0.000292773 0)
(10.058 0.0506575 0)
(10.2024 0.081444 0)
(10.2883 0.0800684 0)
(10.3048 0.0789218 0)
(10.2873 0.0781896 0)
(10.2345 0.077214 0)
(10.1667 0.0779175 0)
(10.0928 0.0739153 0)
(10.0092 0.0656929 0)
(9.92457 0.0614903 0)
(9.84746 0.0592241 0)
(9.77166 0.0569782 0)
(9.70034 0.0532059 0)
(9.62972 0.0498781 0)
(9.56729 0.0424271 0)
(9.49275 0.0336479 0)
(9.42379 0.0300048 0)
(9.36159 0.0258655 0)
(10.021 0.0418289 0)
(10.073 0.0674312 0)
(10.1232 0.0751217 0)
(10.1645 0.0808504 0)
(10.2011 0.0831361 0)
(10.2336 0.0825365 0)
(10.2591 0.0801103 0)
(10.2769 0.0789983 0)
(10.2908 0.0784188 0)
(10.3017 0.0768277 0)
(10.3085 0.0737282 0)
(10.3117 0.0710177 0)
(10.3125 0.0691409 0)
(10.3113 0.0655784 0)
(10.308 0.0615259 0)
(10.3021 0.0570804 0)
(10.2924 0.0518285 0)
(10.2806 0.0483322 0)
(10.0103 0.0319265 0)
(10.0413 0.0566409 0)
(10.0722 0.0671033 0)
(10.0978 0.0736616 0)
(10.1185 0.0761496 0)
(10.1373 0.0752068 0)
(10.154 0.0727806 0)
(10.1693 0.0713086 0)
(10.1834 0.0691615 0)
(10.1963 0.0656122 0)
(10.208 0.0618221 0)
(10.2185 0.0588335 0)
(10.2288 0.0563456 0)
(10.2385 0.0533416 0)
(10.2473 0.0503556 0)
(10.2554 0.0469844 0)
(10.2623 0.043156 0)
(10.2695 0.0404889 0)
(10.0058 0.0252925 0)
(10.0275 0.0507711 0)
(10.0519 0.0615696 0)
(10.0726 0.067782 0)
(10.089 0.0703919 0)
(10.1037 0.0700457 0)
(10.1162 0.0684334 0)
(10.1275 0.0672964 0)
(10.1376 0.0656022 0)
(10.1466 0.0630797 0)
(10.1546 0.0601248 0)
(10.1617 0.0574897 0)
(10.1686 0.0551254 0)
(10.1752 0.0524272 0)
(10.1815 0.0495441 0)
(10.1876 0.0463487 0)
(10.1932 0.0427727 0)
(10.1992 0.0396522 0)
(10.0033 0.0208218 0)
(10.0201 0.0441041 0)
(10.0407 0.0553103 0)
(10.0581 0.0619764 0)
(10.0729 0.065095 0)
(10.0861 0.0656304 0)
(10.0978 0.0648051 0)
(10.1082 0.0636682 0)
(10.1177 0.0618886 0)
(10.126 0.0595735 0)
(10.1333 0.056971 0)
(10.1399 0.054373 0)
(10.1461 0.0517954 0)
(10.1519 0.0489863 0)
(10.1573 0.0459957 0)
(10.1624 0.0427874 0)
(10.1671 0.0393009 0)
(10.1718 0.0359583 0)
(10.0024 0.0172961 0)
(10.0167 0.0387501 0)
(10.0329 0.0500047 0)
(10.0479 0.0568288 0)
(10.062 0.0602758 0)
(10.0741 0.0612822 0)
(10.085 0.060905 0)
(10.0949 0.0598754 0)
(10.1039 0.0583009 0)
(10.1118 0.0562567 0)
(10.119 0.0539673 0)
(10.1255 0.0515818 0)
(10.1316 0.0491356 0)
(10.1373 0.0464855 0)
(10.1426 0.0436231 0)
(10.1474 0.0405434 0)
(10.1518 0.0372298 0)
(10.156 0.0339411 0)
(10.0019 0.0144811 0)
(10.0133 0.0345926 0)
(10.0275 0.0453427 0)
(10.041 0.0517353 0)
(10.0537 0.0553053 0)
(10.0651 0.0567278 0)
(10.0754 0.0567336 0)
(10.0849 0.0559679 0)
(10.0934 0.0545704 0)
(10.101 0.0527595 0)
(10.108 0.0507044 0)
(10.1144 0.0484719 0)
(10.1204 0.0460947 0)
(10.1259 0.043523 0)
(10.1311 0.0407449 0)
(10.1358 0.0377738 0)
(10.14 0.0346212 0)
(10.144 0.0314623 0)
(10.0014 0.0121019 0)
(10.0104 0.0302902 0)
(10.0232 0.0408236 0)
(10.0358 0.0471051 0)
(10.0473 0.0506254 0)
(10.058 0.0523224 0)
(10.0679 0.0526465 0)
(10.077 0.0520478 0)
(10.0852 0.0508225 0)
(10.0926 0.0492137 0)
(10.0994 0.0473388 0)
(10.1057 0.0452437 0)
(10.1116 0.0429695 0)
(10.117 0.0405007 0)
(10.122 0.0378446 0)
(10.1266 0.0350244 0)
(10.1307 0.0320732 0)
(10.1344 0.0291174 0)
(10.001 0.0101003 0)
(10.0082 0.026246 0)
(10.0195 0.0362577 0)
(10.0311 0.0424887 0)
(10.0419 0.0460765 0)
(10.052 0.0478886 0)
(10.0615 0.0483976 0)
(10.0702 0.0479791 0)
(10.0782 0.0469364 0)
(10.0855 0.0454949 0)
(10.0922 0.0437785 0)
(10.0984 0.0418221 0)
(10.1042 0.0396624 0)
(10.1095 0.0373187 0)
(10.1144 0.0348094 0)
(10.1189 0.0321581 0)
(10.1228 0.0294064 0)
(10.1264 0.0266582 0)
(10.0008 0.00845849 0)
(10.0066 0.0226013 0)
(10.0162 0.0317395 0)
(10.0268 0.0377593 0)
(10.037 0.0413456 0)
(10.0466 0.043269 0)
(10.0557 0.0439517 0)
(10.0642 0.0437148 0)
(10.072 0.0428478 0)
(10.0791 0.0415724 0)
(10.0857 0.0400044 0)
(10.0918 0.0381904 0)
(10.0975 0.0361606 0)
(10.1027 0.0339654 0)
(10.1075 0.0316139 0)
(10.1119 0.0291514 0)
(10.1158 0.0266096 0)
(10.1193 0.0240855 0)
(10.0006 0.00715198 0)
(10.0054 0.0195419 0)
(10.0136 0.0277811 0)
(10.0232 0.033421 0)
(10.0327 0.0368902 0)
(10.0418 0.0388527 0)
(10.0505 0.03966 0)
(10.0588 0.0395891 0)
(10.0664 0.0388951 0)
(10.0734 0.0377892 0)
(10.08 0.0363747 0)
(10.086 0.0346991 0)
(10.0916 0.0328156 0)
(10.0968 0.0307561 0)
(10.1015 0.0285691 0)
(10.1058 0.0262792 0)
(10.1096 0.0239336 0)
(10.1131 0.0216031 0)
(10.0005 0.00604984 0)
(10.0045 0.016859 0)
(10.0116 0.0241574 0)
(10.0202 0.0293555 0)
(10.029 0.0326326 0)
(10.0376 0.0345362 0)
(10.0459 0.0353834 0)
(10.0538 0.0354016 0)
(10.0612 0.034829 0)
(10.0681 0.0338456 0)
(10.0745 0.0325546 0)
(10.0804 0.0310121 0)
(10.0859 0.0292769 0)
(10.091 0.0273768 0)
(10.0957 0.0253625 0)
(10.0999 0.0232599 0)
(10.1037 0.021107 0)
(10.1071 0.0189835 0)
(10.0004 0.00497368 0)
(10.0038 0.0140965 0)
(10.0098 0.0202962 0)
(10.0173 0.0248783 0)
(10.0253 0.0278271 0)
(10.0332 0.0295889 0)
(10.041 0.0304063 0)
(10.0486 0.0304928 0)
(10.0557 0.030024 0)
(10.0623 0.0291753 0)
(10.0685 0.0280146 0)
(10.0743 0.0266423 0)
(10.0796 0.0250657 0)
(10.0846 0.0233647 0)
(10.0891 0.0215381 0)
(10.0933 0.0196518 0)
(10.097 0.017711 0)
(10.1004 0.0158144 0)
(10.0004 0.00391549 0)
(10.0031 0.0112527 0)
(10.0082 0.0162228 0)
(10.0147 0.0200318 0)
(10.0219 0.0225343 0)
(10.0291 0.0240445 0)
(10.0363 0.02477 0)
(10.0434 0.0248609 0)
(10.0501 0.0244763 0)
(10.0564 0.0237266 0)
(10.0623 0.0227175 0)
(10.0679 0.0214924 0)
(10.073 0.0201171 0)
(10.0778 0.0186041 0)
(10.0822 0.0170087 0)
(10.0863 0.0153393 0)
(10.0899 0.0136508 0)
(10.0933 0.0119836 0)
(10.0003 0.00286432 0)
(10.0026 0.00835099 0)
(10.0068 0.011969 0)
(10.0125 0.0148384 0)
(10.0189 0.0167545 0)
(10.0255 0.0178982 0)
(10.0321 0.0184414 0)
(10.0386 0.0184722 0)
(10.0449 0.0181211 0)
(10.0508 0.0174563 0)
(10.0564 0.0165807 0)
(10.0617 0.0155197 0)
(10.0666 0.014337 0)
(10.0712 0.0130393 0)
(10.0755 0.0116737 0)
(10.0794 0.0102529 0)
(10.0829 0.00881231 0)
(10.0862 0.00740622 0)
(10.0002 0.001814 0)
(10.0022 0.00536312 0)
(10.0058 0.00750215 0)
(10.0108 0.00927071 0)
(10.0165 0.0104287 0)
(10.0225 0.0110932 0)
(10.0285 0.0113368 0)
(10.0345 0.011247 0)
(10.0404 0.0108631 0)
(10.046 0.0102773 0)
(10.0513 0.00950686 0)
(10.0563 0.00862661 0)
(10.061 0.00762764 0)
(10.0654 0.00656571 0)
(10.0695 0.00543313 0)
(10.0732 0.00427705 0)
(10.0767 0.00309181 0)
(10.0799 0.00195121 0)
(10.0002 0.000724808 0)
(10.0019 0.00218906 0)
(10.0052 0.00268368 0)
(10.0097 0.0031691 0)
(10.0149 0.00341347 0)
(10.0204 0.00344763 0)
(10.0261 0.00329859 0)
(10.0318 0.00298952 0)
(10.0373 0.00254143 0)
(10.0426 0.00198139 0)
(10.0477 0.00132916 0)
(10.0525 0.000604303 0)
(10.0569 -0.000183199 0)
(10.0611 -0.00101759 0)
(10.065 -0.00188894 0)
(10.0687 -0.00278231 0)
(10.072 -0.00368707 0)
(10.0751 -0.00456077 0)
(10.0002 -0.000484952 0)
(10.0019 -0.00144197 0)
(10.0051 -0.00283217 0)
(10.0095 -0.00380342 0)
(10.0146 -0.00463163 0)
(10.02 -0.00532534 0)
(10.0255 -0.0059651 0)
(10.031 -0.0065302 0)
(10.0364 -0.0070879 0)
(10.0415 -0.00761582 0)
(10.0464 -0.00816166 0)
(10.0511 -0.00870789 0)
(10.0554 -0.00927878 0)
(10.0595 -0.00986196 0)
(10.0633 -0.0104646 0)
(10.0668 -0.0110786 0)
(10.0701 -0.0116995 0)
(10.0731 -0.0122949 0)
(10.0002 -0.00168884 0)
(10.0021 -0.00511571 0)
(10.0057 -0.00834346 0)
(10.0106 -0.0107049 0)
(10.0161 -0.0124852 0)
(10.0218 -0.0138559 0)
(10.0275 -0.0148699 0)
(10.0332 -0.0156578 0)
(10.0387 -0.0162292 0)
(10.044 -0.0167035 0)
(10.0489 -0.0170842 0)
(10.0536 -0.0174436 0)
(10.0579 -0.0177754 0)
(10.0619 -0.0181176 0)
(10.0657 -0.018461 0)
(10.0691 -0.0188214 0)
(10.0724 -0.019189 0)
(10.0753 -0.0195396 0)
(10.0002 -0.00282378 0)
(10.0026 -0.00852839 0)
(10.0069 -0.0133859 0)
(10.0125 -0.0168427 0)
(10.0187 -0.0193352 0)
(10.0249 -0.021155 0)
(10.0311 -0.0224084 0)
(10.0371 -0.0232482 0)
(10.0429 -0.023751 0)
(10.0483 -0.0240697 0)
(10.0534 -0.0242462 0)
(10.0581 -0.0243814 0)
(10.0624 -0.0244782 0)
(10.0665 -0.0245889 0)
(10.0702 -0.0247087 0)
(10.0736 -0.0248562 0)
(10.0768 -0.0250243 0)
(10.0798 -0.0251824 0)
(10.0003 -0.00408486 0)
(10.0033 -0.0121439 0)
(10.0087 -0.0185772 0)
(10.0155 -0.0229358 0)
(10.0225 -0.0259965 0)
(10.0294 -0.028126 0)
(10.0362 -0.0295237 0)
(10.0427 -0.0302958 0)
(10.0488 -0.0306636 0)
(10.0545 -0.0307392 0)
(10.0596 -0.0306722 0)
(10.0644 -0.0305167 0)
(10.0688 -0.0303544 0)
(10.0728 -0.0302106 0)
(10.0765 -0.0301091 0)
(10.0799 -0.0300554 0)
(10.083 -0.030044 0)
(10.0859 -0.0300413 0)
(10.0004 -0.00558828 0)
(10.0045 -0.0162082 0)
(10.0115 -0.0240877 0)
(10.0195 -0.0291238 0)
(10.0274 -0.0325664 0)
(10.0351 -0.0349089 0)
(10.0425 -0.0362995 0)
(10.0495 -0.0369298 0)
(10.056 -0.0370371 0)
(10.0619 -0.0368168 0)
(10.0672 -0.036431 0)
(10.072 -0.035962 0)
(10.0763 -0.0355156 0)
(10.0802 -0.0351006 0)
(10.0838 -0.0347681 0)
(10.0871 -0.0345172 0)
(10.0901 -0.0343332 0)
(10.0929 -0.0341816 0)
(10.0006 -0.00744254 0)
(10.0062 -0.0210944 0)
(10.0154 -0.0299902 0)
(10.0246 -0.0353293 0)
(10.0334 -0.0389709 0)
(10.0417 -0.041392 0)
(10.0497 -0.042663 0)
(10.0572 -0.0430189 0)
(10.0639 -0.0427858 0)
(10.0699 -0.0422118 0)
(10.0753 -0.0414379 0)
(10.08 -0.0406515 0)
(10.0842 -0.0398876 0)
(10.088 -0.0392427 0)
(10.0915 -0.038708 0)
(10.0946 -0.0382901 0)
(10.0975 -0.0380089 0)
(10.1002 -0.0377358 0)
(10.0009 -0.00964148 0)
(10.0085 -0.0266165 0)
(10.0204 -0.0357415 0)
(10.0306 -0.0409647 0)
(10.0399 -0.0446459 0)
(10.0488 -0.0470739 0)
(10.0574 -0.048195 0)
(10.0653 -0.0482908 0)
(10.0723 -0.0477312 0)
(10.0784 -0.0467776 0)
(10.0837 -0.045635 0)
(10.0884 -0.0444927 0)
(10.0925 -0.0434441 0)
(10.0961 -0.0425175 0)
(10.0994 -0.0417631 0)
(10.1024 -0.0411871 0)
(10.1052 -0.0407603 0)
(10.1078 -0.0403921 0)
(10.0021 -0.012327 0)
(10.0119 -0.0323243 0)
(10.0259 -0.041569 0)
(10.0373 -0.0469157 0)
(10.0472 -0.0507671 0)
(10.0566 -0.0529374 0)
(10.0658 -0.0536236 0)
(10.0742 -0.0532553 0)
(10.0815 -0.0522575 0)
(10.0877 -0.0509348 0)
(10.0931 -0.0494811 0)
(10.0979 -0.0481633 0)
(10.1021 -0.046972 0)
(10.1059 -0.0459286 0)
(10.1093 -0.0450972 0)
(10.1126 -0.0444956 0)
(10.1158 -0.0440906 0)
(10.1187 -0.0437194 0)
(10.0035 -0.0171335 0)
(10.018 -0.0362201 0)
(10.032 -0.0441518 0)
(10.0458 -0.0502495 0)
(10.0564 -0.0551842 0)
(10.067 -0.0577845 0)
(10.0774 -0.0582734 0)
(10.0871 -0.057309 0)
(10.0957 -0.0556024 0)
(10.1036 -0.0535109 0)
(10.1108 -0.0513885 0)
(10.1176 -0.0495755 0)
(10.1241 -0.0481099 0)
(10.1304 -0.0469556 0)
(10.1364 -0.0460926 0)
(10.1421 -0.0454993 0)
(10.1476 -0.0451682 0)
(10.1525 -0.0448578 0)
(10.0073 -0.0259705 0)
(10.0352 -0.0461481 0)
(10.0561 -0.0522772 0)
(10.0803 -0.0559525 0)
(10.1043 -0.0602599 0)
(10.1303 -0.0633447 0)
(10.1568 -0.0646696 0)
(10.1816 -0.064567 0)
(10.2043 -0.0635682 0)
(10.2247 -0.0620952 0)
(10.242 -0.0604361 0)
(10.2562 -0.0585678 0)
(10.2676 -0.056845 0)
(10.2758 -0.0553531 0)
(10.281 -0.0541839 0)
(10.2836 -0.0533075 0)
(10.284 -0.0526385 0)
(10.2823 -0.0521023 0)
(10.0422 -0.0383147 0)
(10.1736 -0.0655822 0)
(10.2851 -0.0734799 0)
(10.3609 -0.0768129 0)
(10.4156 -0.0792468 0)
(10.4528 -0.0801614 0)
(10.4717 -0.0790881 0)
(10.4764 -0.076313 0)
(10.4678 -0.0725677 0)
(10.4435 -0.0683462 0)
(10.4094 -0.0637262 0)
(10.3683 -0.0592798 0)
(10.3189 -0.0553531 0)
(10.2642 -0.0516355 0)
(10.209 -0.0482307 0)
(10.1546 -0.0454743 0)
(10.1018 -0.0431979 0)
(10.0515 -0.0413357 0)
(9.87924 -0.0369849 0)
(9.60153 -0.0808876 0)
(9.30357 -0.0926723 0)
(8.99843 -0.0936597 0)
(8.71019 -0.090698 0)
(8.44367 -0.0849893 0)
(8.20307 -0.0777807 0)
(7.98794 -0.0695129 0)
(7.80144 -0.0596076 0)
(7.6475 -0.0495984 0)
(7.51955 -0.0406312 0)
(7.41443 -0.0317181 0)
(7.33235 -0.0234038 0)
(7.26817 -0.0170247 0)
(7.21483 -0.0123185 0)
(7.17015 -0.00874496 0)
(7.13146 -0.00614738 0)
(7.09851 -0.00443026 0)
(-0.0022435 0.00707163 -1.01902e-18)
(-0.0118255 0.0121125 1.13801e-18)
(-0.0241487 0.0135965 0)
(-0.0379063 0.0121227 0)
(-0.0483889 0.00701256 0)
(-0.0484519 -0.00184387 -8.00487e-19)
(-0.0341785 -0.0140647 0)
(-0.0085194 -0.0271877 0)
(0.025406 -0.0373672 0)
(0.0647513 -0.0426666 0)
(0.106838 -0.0436472 4.25434e-19)
(0.148365 -0.0413817 0)
(0.186555 -0.0368616 0)
(0.219697 -0.0308248 0)
(0.246876 -0.0238568 0)
(0.267617 -0.0163003 2.35949e-19)
(0.281603 -0.00838705 0)
(0.288858 -7.99352e-05 0)
(0.288729 0.00858878 0)
(0.280901 0.0172628 0)
(0.265908 0.025234 0)
(0.244304 0.0317474 0)
(0.216863 0.0360661 0)
(0.18472 0.0376071 3.13797e-19)
(0.149536 0.0358992 -3.63456e-19)
(0.113292 0.0308307 4.36541e-19)
(0.0783361 0.0228012 5.44172e-19)
(0.046998 0.0130131 0)
(0.0213748 0.0036135 0)
(0.00263669 -0.00294886 -1.26786e-18)
(-0.0097007 -0.00606332 -1.36108e-18)
(-0.0173685 -0.00769207 0)
(-0.0204455 -0.00932682 0)
(-0.0172698 -0.0119544 -1.25514e-18)
(-0.00827576 -0.0158179 0)
(0.00816933 -0.0208678 0)
(0.0312861 -0.0256071 8.4628e-19)
(0.0592184 -0.0283305 0)
(0.0878171 -0.0273351 5.15171e-19)
(0.112423 -0.022544 8.99751e-19)
(0.129506 -0.0152988 0)
(0.137992 -0.00793821 0)
(0.139327 -0.00255886 0)
(0.13681 -0.000313402 0)
(0.134029 -0.00187053 0)
(0.132912 -0.00810068 8.60685e-19)
(0.131047 -0.0184739 8.62907e-19)
(0.122127 -0.0273752 8.78905e-19)
(0.0989087 -0.0240799 0)
(0.0553692 -0.00468611 -1.11166e-18)
(-0.0169376 0.0165898 0)
(-0.111509 0.037231 5.58492e-19)
(-0.216146 0.0608619 3.70581e-19)
(-0.333554 0.0806568 0)
(-0.461412 0.0946105 0)
(-0.593453 0.106385 0)
(-0.726379 0.110279 1.66979e-19)
(-0.859276 0.110269 0)
(-0.985554 0.109712 0)
(-1.10612 0.102914 0)
(-1.2192 0.0946414 0)
(-1.32343 0.0885124 0)
(-1.42001 0.0788715 0)
(-1.50837 0.0703122 0)
(-1.58941 0.0650833 0)
(-1.6644 0.059406 -9.2972e-20)
(-1.73367 0.0544324 0)
(-1.79783 0.0499149 0)
(-1.85751 0.0460162 8.58577e-20)
(-1.91326 0.0425962 8.40209e-20)
(-1.96554 0.0395728 0)
(-2.01475 0.0369028 -8.0851e-20)
(-2.06121 0.0345176 7.94587e-20)
(-2.1052 0.0323661 0)
(-2.14694 0.0304164 -7.6952e-20)
(-2.18661 0.0286187 0)
(-2.22437 0.0269626 0)
(-2.26032 0.0254111 7.36767e-20)
(-2.29456 0.0239614 0)
(-2.32716 0.0225876 -7.17041e-20)
(-2.3582 0.0212891 0)
(-2.38774 0.0200508 6.98392e-20)
(-2.41583 0.0188707 6.89343e-20)
(-2.44249 0.0177428 6.80432e-20)
(-2.46779 0.0166596 1.34323e-19)
(-2.49173 0.0156221 -1.32575e-19)
(-2.51438 0.014618 0)
(-2.53575 0.0136548 0)
(-2.55589 0.0127276 0)
(-2.57485 0.0118186 -1.25653e-19)
(-2.59259 0.0109453 -1.23919e-19)
(-2.6091 0.010085 1.22175e-19)
(-2.62437 0.00923327 0)
(-2.6384 0.00837552 -1.18658e-19)
(-2.65121 0.00750038 -1.16885e-19)
(-2.66277 0.0065947 -1.15104e-19)
(-2.67305 0.00564448 0)
(-2.68203 0.00464454 0)
(-2.68967 0.00359658 0)
(-2.6959 0.00253202 -1.0791e-19)
(-2.70068 0.00149529 0)
(-2.7039 0.000567601 0)
(-2.70551 -0.000176454 1.0246e-19)
(-2.70601 -0.000790311 0)
(-2.70537 -0.0013879 0)
(-2.70361 -0.00197872 9.68159e-20)
(-2.70073 -0.00257069 0)
(-2.6967 -0.00316424 0)
(-2.6915 -0.00375972 -9.09427e-20)
(-2.68512 -0.00435816 -8.89175e-20)
(-2.67754 -0.00495632 0)
(-2.66872 -0.00555737 8.47457e-20)
(-2.65867 -0.0061552 0)
(-2.64736 -0.00675494 -8.03889e-20)
(-2.63477 -0.00734862 0)
(-2.62091 -0.00794325 -7.58208e-20)
(-2.60575 -0.00852982 -7.34488e-20)
(-2.5893 -0.00911559 0)
(-2.57153 -0.00969209 0)
(-2.55246 -0.0102678 0)
(-2.5321 -0.0108371 0)
(-2.51047 -0.0114055 0)
(-2.48755 -0.0119635 0)
(-2.46333 -0.0125177 0)
(-2.43782 -0.0130571 -5.19522e-20)
(-2.41101 -0.0135943 4.89073e-20)
(-2.38292 -0.0141188 0)
(-2.35356 -0.0146445 0)
(-2.32295 -0.0151603 0)
(-2.2911 -0.0156713 0)
(-2.25802 -0.016168 6.45213e-20)
(-2.22374 -0.0166645 0)
(-2.18827 -0.0171406 -4.97225e-20)
(-2.15163 -0.0175894 4.19675e-20)
(-2.11387 -0.0179466 0)
(-2.07503 -0.0181645 0)
(-2.03518 -0.0181587 0)
(-1.99438 -0.0179713 -8.29535e-21)
(-1.95258 -0.0181305 8.48989e-22)
(-1.90968 -0.0186239 0)
(-1.86577 -0.0190287 2.01594e-20)
(-1.82093 -0.0194245 3.03643e-20)
(-1.77522 -0.0198047 -4.09656e-20)
(-1.72869 -0.0201723 0)
(-1.68138 -0.0205266 0)
(-1.63332 -0.0208663 -7.53975e-20)
(-1.58456 -0.021191 0)
(-1.53515 -0.0214984 0)
(-1.48513 -0.0217893 0)
(-1.43454 -0.0220612 0)
(-1.38344 -0.0223156 1.43208e-19)
(-1.33186 -0.0225482 1.58621e-19)
(-1.27985 -0.0227614 0)
(-1.22747 -0.0229496 1.916e-19)
(-1.17475 -0.0231169 0)
(-1.12176 -0.0232589 0)
(-1.06854 -0.0233819 2.47169e-19)
(-1.01513 -0.0234843 0)
(-0.961572 -0.0235738 2.88957e-19)
(-0.907897 -0.0236503 0)
(-0.854129 -0.0237203 0)
(-0.800288 -0.0237851 3.60268e-19)
(-0.746383 -0.02385 0)
(-0.692423 -0.0239168 4.14789e-19)
(-0.638408 -0.0239878 0)
(-0.584346 -0.0240649 0)
(-0.530237 -0.0241502 0)
(-0.476084 -0.0242485 -5.46338e-19)
(-0.421882 -0.024361 0)
(-0.367629 -0.0244943 6.27245e-19)
(-0.313316 -0.0246451 0)
(-0.25895 -0.0248167 0)
(-0.204542 -0.0250192 0)
(-0.150155 -0.0252372 0)
(-0.0959275 -0.025392 0)
(-0.042237 -0.0253395 0)
(0.0107411 -0.0245867 0)
(0.0596151 -0.0226314 -1.99944e-18)
(0.113815 -0.019699 0)
(0.127613 -0.00779635 0)
(0.000431869 0.0189462 3.10975e-18)
(-0.00596071 0.0337042 -3.61027e-18)
(-0.011355 0.0353782 0)
(-0.0123455 0.0270514 2.57995e-18)
(0.000235433 0.00678049 0)
(0.0280239 -0.0275179 7.59852e-19)
(0.0651592 -0.0669693 -9.61393e-19)
(0.108211 -0.100456 -6.84547e-19)
(0.153245 -0.122013 0)
(0.196941 -0.130744 -4.4298e-19)
(0.237014 -0.128869 -1.92937e-19)
(0.272401 -0.119526 0)
(0.302671 -0.105532 0)
(0.327802 -0.0889356 0)
(0.347968 -0.0711227 0)
(0.363456 -0.0528882 -1.47442e-19)
(0.374623 -0.0346616 0)
(0.381672 -0.0166055 2.98403e-19)
(0.385373 0.00128438 0)
(0.385931 0.0189846 0)
(0.383049 0.0361793 -3.09467e-19)
(0.376252 0.0524767 0)
(0.365004 0.0671949 3.28437e-19)
(0.34875 0.0794642 -1.71297e-19)
(0.327158 0.088201 1.81251e-19)
(0.300201 0.0923227 -1.94978e-19)
(0.268451 0.0909365 -2.14054e-19)
(0.23313 0.0837887 0)
(0.196181 0.0715128 0)
(0.160174 0.0556442 3.2901e-19)
(0.12808 0.0379329 -3.95304e-19)
(0.102889 0.0195725 0)
(0.0872206 0.000808746 0)
(0.0820053 -0.0184101 5.78738e-19)
(0.0879489 -0.0372584 0)
(0.102959 -0.0554473 0)
(0.123089 -0.0694162 -3.57537e-19)
(0.142342 -0.0732727 0)
(0.155604 -0.0653389 2.66434e-19)
(0.160922 -0.0490465 -5.11382e-19)
(0.158291 -0.0294586 0)
(0.148512 -0.0127237 0)
(0.132739 -0.00280777 -1.23355e-18)
(0.110163 0.00151003 -1.35222e-18)
(0.0740728 0.00610392 -1.53742e-18)
(0.0163602 0.020218 8.44919e-19)
(-0.0754508 0.0534152 -6.28918e-19)
(-0.19574 0.0967987 -1.17822e-18)
(-0.326611 0.14121 5.40781e-19)
(-0.463676 0.183402 2.01367e-19)
(-0.606217 0.218493 0)
(-0.750232 0.244891 -1.32787e-19)
(-0.891996 0.263254 1.15176e-19)
(-1.0295 0.273097 0)
(-1.15953 0.274324 0)
(-1.27845 0.268772 0)
(-1.38598 0.25778 -8.01601e-20)
(-1.48165 0.242544 0)
(-1.5665 0.225404 1.45022e-19)
(-1.64206 0.207295 0)
(-1.70899 0.189219 1.35194e-19)
(-1.76882 0.172346 0)
(-1.82321 0.1567 -1.28259e-19)
(-1.87262 0.142492 0)
(-1.91815 0.130032 1.22661e-19)
(-1.96029 0.119009 -6.02523e-20)
(-1.99972 0.109376 0)
(-2.03688 0.100958 -1.1629e-19)
(-2.07209 0.0936068 -5.72339e-20)
(-2.10558 0.0871363 -5.64025e-20)
(-2.13751 0.0814216 0)
(-2.16801 0.0763104 -5.48076e-20)
(-2.19718 0.0717173 -5.41395e-20)
(-2.22508 0.0675271 0)
(-2.25179 0.063689 5.27671e-20)
(-2.27734 0.0601205 -1.04136e-19)
(-2.30175 0.0567944 0)
(-2.32507 0.0536561 -5.08342e-20)
(-2.34729 0.0506914 0)
(-2.36844 0.0478634 1.48714e-19)
(-2.38853 0.045164 0)
(-2.40758 0.0425706 -1.45073e-19)
(-2.4256 0.0400754 -4.77743e-20)
(-2.44259 0.0376675 4.71164e-20)
(-2.45856 0.0353336 9.30334e-20)
(-2.47352 0.0330709 -9.18287e-20)
(-2.4875 0.0308642 0)
(-2.50051 0.028725 0)
(-2.51258 0.0266414 0)
(-2.52374 0.0246146 2.60828e-19)
(-2.53393 0.0226484 8.56855e-20)
(-2.54315 0.0207319 -8.44037e-20)
(-2.55138 0.0188654 0)
(-2.55862 0.0170323 -8.18003e-20)
(-2.5649 0.0152332 8.04719e-20)
(-2.5702 0.0134554 7.91355e-20)
(-2.57455 0.011692 0)
(-2.57796 0.00992713 0)
(-2.58046 0.00814515 0)
(-2.5821 0.00634257 7.36866e-20)
(-2.58294 0.00453097 0)
(-2.58311 0.00276769 -1.41877e-19)
(-2.58271 0.00111751 -2.08488e-19)
(-2.58131 -0.000434915 1.36144e-19)
(-2.57886 -0.00196299 0)
(-2.57532 -0.003476 6.52298e-20)
(-2.57068 -0.00498417 0)
(-2.5649 -0.00648679 1.24403e-19)
(-2.55797 -0.00798522 -6.07881e-20)
(-2.54986 -0.00947935 -5.92735e-20)
(-2.54054 -0.0109666 0)
(-2.53001 -0.0124488 -1.68071e-19)
(-2.51825 -0.0139198 1.08944e-19)
(-2.50523 -0.0153828 5.27168e-20)
(-2.49095 -0.0168285 0)
(-2.4754 -0.0182613 4.93766e-20)
(-2.45857 -0.0196707 1.43315e-19)
(-2.44045 -0.0210606 0)
(-2.42102 -0.0224251 8.86248e-20)
(-2.40031 -0.0237734 8.50037e-20)
(-2.37833 -0.0251021 8.13105e-20)
(-2.35508 -0.0264141 0)
(-2.33056 -0.0276951 0)
(-2.30477 -0.0289464 0)
(-2.27771 -0.0301537 -3.31326e-20)
(-2.24937 -0.0313279 -3.05972e-20)
(-2.21977 -0.0324586 0)
(-2.18893 -0.0335583 -5.32882e-20)
(-2.15686 -0.034614 -4.89564e-20)
(-2.12358 -0.0356379 0)
(-2.0891 -0.0366159 -3.94399e-20)
(-2.05345 -0.0375629 -7.08572e-20)
(-2.01665 -0.0384648 3.01129e-20)
(-1.97871 -0.0393351 2.65866e-20)
(-1.93966 -0.0401663 0)
(-1.8995 -0.040987 0)
(-1.85822 -0.0417973 0)
(-1.81583 -0.0426009 5.05939e-21)
(-1.77235 -0.0433621 -1.15024e-21)
(-1.72792 -0.0440442 9.96066e-21)
(-1.68256 -0.0446466 -1.12597e-20)
(-1.6363 -0.0451897 1.53927e-20)
(-1.58918 -0.0456766 2.27116e-20)
(-1.54125 -0.0461138 0)
(-1.49254 -0.0464988 0)
(-1.44311 -0.0468354 -3.91511e-20)
(-1.39299 -0.0471201 0)
(-1.34223 -0.0473573 0)
(-1.29089 -0.0475436 1.18525e-19)
(-1.23899 -0.0476847 0)
(-1.1866 -0.0477779 7.18972e-20)
(-1.13376 -0.047827 -8.07175e-20)
(-1.0805 -0.0478291 0)
(-1.02689 -0.0477858 9.32507e-20)
(-0.972961 -0.0476944 0)
(-0.918768 -0.0475589 0)
(-0.864354 -0.0473812 -1.17807e-19)
(-0.809764 -0.0471683 2.49356e-19)
(-0.755033 -0.0469249 -1.33611e-19)
(-0.700193 -0.0466593 0)
(-0.645268 -0.0463774 0)
(-0.590274 -0.0460871 1.56366e-19)
(-0.535221 -0.0457934 0)
(-0.480112 -0.0455016 1.73477e-19)
(-0.424947 -0.0452135 0)
(-0.369725 -0.0449301 0)
(-0.314443 -0.0446534 0)
(-0.259098 -0.0443863 2.11217e-19)
(-0.20368 -0.0441308 0)
(-0.148181 -0.0438899 -2.29959e-19)
(-0.0925879 -0.0436616 0)
(-0.0368978 -0.0434346 0)
(0.0188641 -0.0431791 5.09599e-19)
(0.0746491 -0.0428522 -5.13163e-19)
(0.130384 -0.0423871 0)
(0.185839 -0.0416412 0)
(0.241012 -0.0402825 0)
(0.293674 -0.0379186 1.56029e-18)
(0.349104 -0.0338715 0)
(0.383159 -0.0217306 -1.07541e-18)
(0.000915112 0.0211292 3.21587e-22)
(0.000385342 0.039399 4.95352e-18)
(0.00583824 0.0322256 0)
(0.024528 0.000300094 -3.39226e-18)
(0.0617461 -0.0551887 0)
(0.110953 -0.117683 0)
(0.162495 -0.169157 -3.71411e-22)
(0.209454 -0.200378 3.91145e-19)
(0.248791 -0.21102 3.34169e-19)
(0.280244 -0.205529 2.97233e-19)
(0.304844 -0.189378 0)
(0.323977 -0.167198 0)
(0.338831 -0.142217 -2.44988e-19)
(0.350272 -0.116378 -4.75005e-19)
(0.35887 -0.0907546 4.66592e-19)
(0.365014 -0.065858 0)
(0.368969 -0.041903 4.66179e-19)
(0.370937 -0.0189578 -2.36184e-19)
(0.371118 0.00299162 0)
(0.369857 0.0240706 4.84481e-19)
(0.367413 0.0444414 2.4569e-19)
(0.36399 0.0641283 -5.05597e-19)
(0.35962 0.0828879 -2.61888e-19)
(0.354013 0.100158 0)
(0.346602 0.115008 5.76114e-19)
(0.336558 0.126182 6.08301e-19)
(0.323035 0.132253 0)
(0.305438 0.131919 6.93906e-19)
(0.2839 0.124404 0)
(0.259495 0.109735 8.32002e-19)
(0.234329 0.0887418 4.6592e-19)
(0.211083 0.0627126 0)
(0.192453 0.0330251 0)
(0.179832 0.00101478 0)
(0.17362 -0.0319935 0)
(0.17117 -0.0608149 0)
(0.165375 -0.0756631 0)
(0.151008 -0.0711585 8.25936e-19)
(0.128609 -0.0517447 -1.17662e-18)
(0.0991316 -0.0245964 0)
(0.0626936 0.00610078 0)
(0.017167 0.0365156 0)
(-0.0477559 0.06524 7.17911e-22)
(-0.138842 0.102324 7.43158e-19)
(-0.250477 0.151327 1.08021e-18)
(-0.378186 0.206246 -8.16613e-19)
(-0.515943 0.261691 -3.22611e-19)
(-0.656798 0.313533 2.64061e-19)
(-0.794564 0.357112 3.19219e-22)
(-0.925245 0.391225 1.96273e-19)
(-1.04522 0.415038 0)
(-1.15294 0.427851 1.59037e-19)
(-1.24768 0.430139 9.98286e-22)
(-1.32922 0.422631 0)
(-1.39878 0.406815 0)
(-1.45821 0.384998 -1.22477e-19)
(-1.50996 0.359225 0)
(-1.55564 0.331545 0)
(-1.59714 0.30392 1.08918e-19)
(-1.63579 0.277207 2.09396e-19)
(-1.67253 0.252195 -1.01093e-19)
(-1.70791 0.229517 0)
(-1.74233 0.209144 9.60166e-20)
(-1.77607 0.191184 0)
(-1.80905 0.175588 9.22037e-20)
(-1.84124 0.161968 9.00559e-20)
(-1.87265 0.150069 -1.76881e-19)
(-1.90327 0.139619 -8.68702e-20)
(-1.93306 0.130402 0)
(-1.96201 0.122197 1.67842e-19)
(-1.99008 0.114832 0)
(-2.01728 0.10815 2.43929e-19)
(-2.04358 0.102034 1.6013e-19)
(-2.06897 0.0963755 1.57759e-19)
(-2.09344 0.0911003 -1.55464e-19)
(-2.117 0.0861373 2.29915e-19)
(-2.13963 0.081442 0)
(-2.16133 0.0769699 0)
(-2.18209 0.0726946 -1.46836e-19)
(-2.2019 0.0685876 -2.17223e-19)
(-2.22078 0.0646328 0)
(-2.23871 0.0608128 7.04141e-20)
(-2.2557 0.0571164 0)
(-2.27174 0.0535328 -2.0513e-19)
(-2.28685 0.0500499 -7.18622e-23)
(-2.30102 0.0466611 5.97639e-23)
(-2.31426 0.0433567 1.30745e-19)
(-2.32659 0.0401361 0)
(-2.33804 0.0369935 -1.26733e-19)
(-2.34861 0.033927 -2.16827e-23)
(-2.35828 0.0309367 0)
(-2.36703 0.0280163 0)
(-2.37486 0.0251579 0)
(-2.38178 0.0223522 1.16465e-19)
(-2.3878 0.0195948 0)
(-2.39292 0.0168798 0)
(-2.39714 0.0142073 0)
(-2.40049 0.0115742 0)
(-2.40296 0.00898549 0)
(-2.40457 0.00644427 1.03787e-19)
(-2.40531 0.00395753 0)
(-2.40515 0.0015181 9.93634e-20)
(-2.40404 -0.000910809 9.71439e-20)
(-2.40192 -0.00335417 -9.49155e-20)
(-2.39878 -0.00580208 0)
(-2.39458 -0.00824701 -9.04357e-20)
(-2.3893 -0.0106894 0)
(-2.38292 -0.0131268 -8.59126e-20)
(-2.3754 -0.0155591 8.36293e-20)
(-2.36673 -0.0179832 2.44292e-19)
(-2.35688 -0.0203983 0)
(-2.34584 -0.0228007 2.30353e-19)
(-2.33359 -0.0251882 7.46868e-20)
(-2.32012 -0.0275562 0)
(-2.30541 -0.0299011 1.39399e-19)
(-2.28945 -0.0322178 1.34518e-19)
(-2.27223 -0.034501 -1.94101e-19)
(-2.25375 -0.0367456 0)
(-2.234 -0.038952 -5.94488e-20)
(-2.21298 -0.0411236 -5.68537e-20)
(-2.19073 -0.0432613 -1.63292e-19)
(-2.16723 -0.0453619 0)
(-2.14249 -0.0474161 0)
(-2.1165 -0.0494145 0)
(-2.08927 -0.051352 -4.40481e-20)
(-2.06079 -0.0532282 0)
(-2.03108 -0.0550428 0)
(-2.00016 -0.0567973 3.47474e-20)
(-1.96803 -0.0584896 3.18125e-20)
(-1.93472 -0.0601188 0)
(-1.90024 -0.0616802 0)
(-1.8646 -0.0631769 4.55509e-20)
(-1.82783 -0.0646051 0)
(-1.78994 -0.0659624 -3.31091e-20)
(-1.75095 -0.0672413 -2.7713e-20)
(-1.71088 -0.0684489 0)
(-1.66973 -0.0695913 0)
(-1.62753 -0.0706771 8.24267e-21)
(-1.58433 -0.071721 -1.03899e-21)
(-1.54018 -0.0727048 -1.06165e-21)
(-1.49514 -0.0735926 0)
(-1.44921 -0.0743907 -3.87663e-20)
(-1.40245 -0.0750984 0)
(-1.35489 -0.0757208 0)
(-1.30658 -0.0762561 0)
(-1.25756 -0.0767073 4.84015e-20)
(-1.20787 -0.0770721 0)
(-1.15757 -0.0773543 -1.23833e-19)
(-1.10669 -0.0775525 -7.06291e-20)
(-1.0553 -0.0776721 0)
(-1.00342 -0.0777124 -8.58394e-20)
(-0.951117 -0.0776777 0)
(-0.898424 -0.0775657 0)
(-0.845389 -0.0773783 -3.24937e-19)
(-0.792058 -0.077113 2.31541e-19)
(-0.738476 -0.076775 0)
(-0.684687 -0.0763682 2.63386e-19)
(-0.63073 -0.0759025 -1.4101e-19)
(-0.576641 -0.0753867 0)
(-0.522448 -0.0748319 0)
(-0.468173 -0.074249 0)
(-0.41383 -0.0736481 -5.17283e-19)
(-0.359427 -0.0730393 0)
(-0.304964 -0.0724285 -1.89432e-19)
(-0.250438 -0.0718208 0)
(-0.195844 -0.0712148 0)
(-0.141174 -0.0706145 0)
(-0.0864208 -0.070021 0)
(-0.0315704 -0.069441 0)
(0.0233905 -0.0688755 0)
(0.0784753 -0.068324 -4.76581e-19)
(0.133703 -0.0677669 0)
(0.18908 -0.0671671 -2.46075e-19)
(0.244583 -0.0664682 7.44988e-19)
(0.300161 -0.0655869 0)
(0.355633 -0.0643514 0)
(0.411059 -0.0624839 -5.13088e-19)
(0.464896 -0.0594883 -5.21393e-19)
(0.521214 -0.0544893 5.27656e-19)
(0.565081 -0.0421021 5.42642e-19)
(-0.00066683 0.0205805 -6.26974e-18)
(0.00114049 0.0301264 -7.95836e-18)
(0.0214811 -0.0137647 -3.4222e-18)
(0.0667404 -0.0921447 -9.2586e-19)
(0.125365 -0.175635 0)
(0.182226 -0.238753 8.43268e-19)
(0.227748 -0.271598 -3.39574e-19)
(0.259989 -0.277459 0)
(0.28123 -0.264829 -2.59862e-19)
(0.294906 -0.241767 0)
(0.303895 -0.213792 4.49213e-19)
(0.310086 -0.184052 0)
(0.314518 -0.154155 2.06218e-19)
(0.31769 -0.12485 4.03708e-19)
(0.31979 -0.0964699 -3.9977e-19)
(0.32087 -0.0691585 0)
(0.320944 -0.0429828 -4.04683e-19)
(0.320024 -0.0179751 0)
(0.318146 0.00584248 0)
(0.315416 0.0285014 -4.23563e-19)
(0.311946 0.0500505 0)
(0.307941 0.0705215 -6.84546e-22)
(0.303635 0.0898718 0)
(0.299181 0.107892 0)
(0.294579 0.124121 6.03268e-22)
(0.289595 0.137752 -5.35064e-19)
(0.283744 0.147589 -5.73411e-19)
(0.2763 0.15211 -6.15824e-19)
(0.266565 0.149755 0)
(0.254154 0.139238 -1.44892e-18)
(0.239328 0.119963 0)
(0.222974 0.0923637 -8.92513e-19)
(0.206452 0.0580023 0)
(0.190632 0.0195595 0)
(0.173017 -0.0170798 1.06195e-18)
(0.146991 -0.0391164 0)
(0.10959 -0.0383352 -8.23579e-19)
(0.0621201 -0.018145 -6.77063e-22)
(0.00542044 0.0159183 1.57379e-18)
(-0.0633879 0.05956 -1.41118e-18)
(-0.147905 0.111605 0)
(-0.247553 0.170367 0)
(-0.361877 0.232012 -3.66596e-19)
(-0.487055 0.294769 0)
(-0.616769 0.356848 -2.50113e-19)
(-0.745005 0.414534 2.13539e-19)
(-0.866674 0.462507 1.8721e-19)
(-0.977031 0.498756 0)
(-1.07403 0.523284 -1.50794e-19)
(-1.15702 0.536103 -1.38171e-19)
(-1.22593 0.538013 2.57221e-19)
(-1.28226 0.530158 -1.19357e-19)
(-1.32789 0.513999 -1.12244e-19)
(-1.36515 0.491236 0)