/*--------------------------------*- C++ -*----------------------------------*\
  =========                 |
  \\      /  F ield         | OpenFOAM: The Open Source CFD Toolbox
   \\    /   O peration     | Website:  https://openfoam.org
    \\  /    A nd           | Version:  13
     \\/     M anipulation  |
\*---------------------------------------------------------------------------*/
FoamFile
{
    format      ascii;
    class       volScalarField;
    location    "9";
    object      epsilon;
}
// * * * * * * * * * * * * * * * * * * * * * * * * * * * * * * * * * * * * * //

dimensions      [0 2 -3 0 0 0 0];

internalField   nonuniform List<scalar> 
400
(
2.30598e-05
7.99301e-05
0.00031812
0.000639966
0.00085182
0.00101414
0.00114586
0.00127192
0.00138242
0.00149554
0.00160137
0.0017132
0.00182563
0.00189786
0.00193025
0.00193147
0.00178168
0.00140074
0.000865968
0.000625749
0.000103328
0.000295028
0.000761317
0.00103404
0.00109554
0.00111758
0.00112411
0.0011648
0.00121306
0.00130093
0.00141036
0.00155362
0.00172321
0.00192388
0.00214443
0.00235814
0.00245669
0.00246021
0.0019272
0.00126364
0.000335774
0.000869946
0.00108632
0.00111161
0.00108264
0.00106483
0.00105488
0.00108751
0.00114742
0.00122342
0.00131184
0.00141102
0.0015297
0.00167676
0.00185925
0.00208114
0.00227309
0.00234886
0.00215563
0.00161763
0.000745517
0.00115286
0.00116362
0.0010761
0.00100672
0.000964809
0.000955035
0.000969298
0.000995138
0.00102228
0.00106073
0.00112127
0.00121734
0.00135945
0.00156902
0.00185321
0.00216733
0.00231156
0.00226258
0.00184829
0.00106014
0.00130301
0.00113524
0.000985303
0.000883904
0.000832256
0.00080014
0.000775541
0.000753856
0.000744022
0.000743449
0.00078166
0.000863835
0.00101152
0.0012542
0.00161983
0.00210404
0.00239472
0.00243312
0.00202054
0.00122312
0.00129513
0.00106025
0.000871346
0.000767141
0.000699055
0.00063794
0.000577871
0.000522661
0.00048788
0.000474517
0.000485004
0.000554221
0.000691566
0.00094155
0.00135936
0.00198796
0.00253877
0.00267902
0.0021604
0.00124894
0.00124629
0.000957503
0.000771915
0.000665203
0.000581495
0.000499035
0.000419074
0.000350558
0.00030634
0.000287364
0.000285311
0.000333705
0.000446189
0.000671619
0.00109578
0.00182088
0.00267246
0.00296131
0.00226888
0.00123015
0.00114552
0.000864344
0.00069039
0.000583484
0.000490124
0.000397032
0.000311218
0.000242877
0.000200151
0.000181201
0.000177567
0.00020748
0.000287252
0.000469754
0.000858827
0.00161139
0.00273974
0.00330813
0.00235852
0.00118287
0.00103358
0.000784196
0.000627067
0.000522917
0.000426158
0.000330867
0.000247069
0.000184103
0.000146765
0.000130741
0.000128073
0.00014817
0.000203447
0.000340019
0.000680505
0.0014486
0.0027568
0.00364976
0.00242147
0.00109156
0.000938638
0.000719791
0.000579754
0.000480744
0.000385937
0.000293324
0.000214171
0.00015748
0.000124475
0.00011041
0.000109299
0.000124137
0.000165005
0.000268003
0.000547941
0.00128281
0.00274854
0.00401403
0.00247131
0.000996255
0.000857329
0.000669103
0.000545691
0.000453739
0.000363465
0.000276966
0.000205826
0.000154453
0.000122746
0.000107046
0.000105828
0.000117542
0.00015129
0.000235647
0.000473102
0.00115228
0.00271217
0.00433772
0.00249611
0.000912711
0.000805732
0.000634143
0.00052307
0.000437314
0.000356064
0.000278297
0.000210672
0.00016124
0.000130259
0.000114608
0.000113609
0.000122034
0.000149701
0.000225724
0.000439057
0.00106356
0.00269259
0.00462159
0.00250803
0.000822839
0.000764001
0.000615185
0.000512427
0.000434948
0.000359203
0.000286367
0.000224384
0.000178398
0.000148572
0.000132175
0.000131456
0.000139164
0.000164499
0.000231819
0.000429257
0.0010237
0.00268519
0.00476785
0.00251134
0.000738759
0.000744162
0.0006229
0.000518264
0.000441608
0.00037015
0.00030452
0.000249105
0.000206426
0.000177733
0.000159951
0.00015916
0.000166767
0.000192357
0.000259838
0.000449341
0.00101397
0.00269769
0.00482453
0.00251101
0.000643956
0.000718156
0.000639317
0.000537914
0.000461705
0.000393576
0.000332565
0.000281539
0.000241887
0.000215276
0.000196973
0.000197012
0.000205362
0.000233484
0.000306452
0.000506014
0.00106265
0.00276298
0.00480143
0.0024614
0.000545322
0.000708494
0.000675839
0.00059095
0.000510617
0.000442073
0.000381385
0.000330792
0.000290837
0.000264302
0.000245464
0.000246405
0.000257478
0.000292752
0.0003812
0.000613943
0.00119576
0.00289791
0.00454051
0.00238064
0.000436582
0.000660948
0.000690744
0.000660816
0.000597755
0.000530274
0.000466254
0.000411067
0.000367542
0.000337463
0.000320797
0.000324905
0.000344697
0.000400775
0.000531283
0.000855187
0.00151782
0.00317593
0.00410507
0.0022385
0.000291398
0.000586011
0.00076667
0.000818702
0.000798901
0.00074187
0.000669079
0.000603214
0.000554404
0.000520207
0.000521611
0.000542915
0.000599751
0.000731438
0.00100129
0.00162573
0.00243403
0.00371193
0.00382171
0.0020537
0.000306955
0.000591163
0.000997614
0.00118333
0.00124378
0.00123725
0.00121137
0.00119559
0.00120962
0.00125794
0.00136246
0.00156384
0.00184721
0.00230489
0.00289994
0.00380645
0.0044941
0.00434638
0.00378351
0.00178739
0.000221473
0.000344447
0.000628259
0.000908545
0.00111556
0.00124722
0.00131911
0.00136335
0.00138439
0.00139763
0.00140284
0.0014133
0.00142381
0.00144728
0.00146595
0.00151644
0.00158231
0.00165474
0.00163669
0.0014605
)
;

boundaryField
{
    movingWall
    {
        type            epsilonWallFunction;
        value           nonuniform List<scalar> 
20
(
0.000221473
0.000344447
0.000628259
0.000908545
0.00111556
0.00124722
0.00131911
0.00136335
0.00138439
0.00139763
0.00140284
0.0014133
0.00142381
0.00144728
0.00146595
0.00151644
0.00158231
0.00165474
0.00163669
0.0014605
)
;
    }
    fixedWalls
    {
        type            epsilonWallFunction;
        value           nonuniform List<scalar> 
60
(
2.30598e-05
0.000103328
0.000335774
0.000745517
0.00106014
0.00122312
0.00124894
0.00123015
0.00118287
0.00109156
0.000996255
0.000912711
0.000822839
0.000738759
0.000643956
0.000545322
0.000436582
0.000291398
0.000306955
0.000221473
0.000625749
0.00126364
0.00161763
0.00184829
0.00202054
0.0021604
0.00226888
0.00235852
0.00242147
0.00247131
0.00249611
0.00250803
0.00251134
0.00251101
0.0024614
0.00238064
0.0022385
0.0020537
0.00178739
0.0014605
2.30598e-05
7.99301e-05
0.00031812
0.000639966
0.00085182
0.00101414
0.00114586
0.00127192
0.00138242
0.00149554
0.00160137
0.0017132
0.00182563
0.00189786
0.00193025
0.00193147
0.00178168
0.00140074
0.000865968
0.000625749
)
;
    }
    frontAndBack
    {
        type            empty;
    }
}


// ************************************************************************* //
