/*--------------------------------*- C++ -*----------------------------------*\
  =========                 |
  \\      /  F ield         | OpenFOAM: The Open Source CFD Toolbox
   \\    /   O peration     | Website:  https://openfoam.org
    \\  /    A nd           | Version:  13
     \\/     M anipulation  |
\*---------------------------------------------------------------------------*/
FoamFile
{
    format      ascii;
    class       volScalarField;
    location    "9";
    object      k;
}
// * * * * * * * * * * * * * * * * * * * * * * * * * * * * * * * * * * * * * //

dimensions      [0 2 -2 0 0 0 0];

internalField   nonuniform List<scalar> 
400
(
7.21213e-06
2.49995e-05
9.9463e-05
0.000200043
0.000266241
0.000316962
0.000358124
0.000397515
0.000432046
0.000467397
0.00050047
0.000535418
0.000570555
0.000593126
0.000603246
0.000603626
0.000556809
0.000437757
0.00027063
0.000195556
3.23129e-05
0.000113605
0.000244707
0.000404579
0.000473539
0.000549112
0.000594118
0.000659174
0.000711954
0.000774692
0.00083407
0.000896318
0.000951628
0.00101203
0.00106515
0.0010917
0.0010974
0.000982479
0.000649402
0.000394901
0.000104984
0.000356102
0.000521554
0.000602933
0.000658425
0.000705785
0.000744678
0.000794142
0.000838621
0.000886705
0.000930928
0.000973748
0.00101525
0.00106183
0.00110724
0.00114019
0.00115249
0.00110416
0.000797872
0.000505533
0.000233072
0.000570097
0.000655416
0.000691356
0.000718301
0.00074097
0.000768706
0.000801
0.000831512
0.000860046
0.000883675
0.000912424
0.000952773
0.00100623
0.00107501
0.00114298
0.00117332
0.00117409
0.000939782
0.000577625
0.000331393
0.000685668
0.000709181
0.00070833
0.000717381
0.000733241
0.000748726
0.000755553
0.000753348
0.000746412
0.000745412
0.000764801
0.00080731
0.000877752
0.000983195
0.00111804
0.00121278
0.00123682
0.00106228
0.000631459
0.000382322
0.000716383
0.000713287
0.000704148
0.000704508
0.000703689
0.000686456
0.000652948
0.000618923
0.000596306
0.000587742
0.000594516
0.000637111
0.000716865
0.000847894
0.00103547
0.00123123
0.0013105
0.00119759
0.000675176
0.000390389
0.000708657
0.00070621
0.000689168
0.000673366
0.000646468
0.00060313
0.00054943
0.000501119
0.000468847
0.000455371
0.000454653
0.000491376
0.00056909
0.000707463
0.000927985
0.00122713
0.00138275
0.00132374
0.000709085
0.000384517
0.000688654
0.000688279
0.000661757
0.00063533
0.000592698
0.000533683
0.000470015
0.000416327
0.000380674
0.000364874
0.000362401
0.0003905
0.000458006
0.000586096
0.000812043
0.00116198
0.0014452
0.00146038
0.000737107
0.00036974
0.000650173
0.000658056
0.000633275
0.000601688
0.000550744
0.000484642
0.000418112
0.000364446
0.000329529
0.000313989
0.00031161
0.000333047
0.000387319
0.000499584
0.000713578
0.00108322
0.00149
0.00157895
0.000756787
0.000341201
0.000617586
0.000629492
0.000608512
0.000575948
0.000522281
0.000455225
0.000389837
0.000338735
0.000305615
0.000290482
0.000289301
0.000306805
0.000351603
0.000446198
0.000642847
0.00101274
0.00151147
0.00170038
0.000772376
0.000311417
0.000574757
0.000598022
0.000585145
0.000555364
0.000505012
0.000441065
0.000380894
0.000333278
0.000301237
0.000284533
0.00028365
0.000298315
0.000337076
0.000420563
0.000598906
0.000958508
0.00152072
0.00180049
0.000780132
0.000285306
0.000539025
0.000574174
0.000567954
0.000543305
0.000496107
0.000440685
0.000384211
0.000338611
0.000307527
0.000290808
0.00028992
0.000300774
0.000334463
0.000412104
0.000578738
0.000919616
0.00152504
0.00188242
0.000783864
0.000257218
0.000492417
0.00054624
0.000548028
0.000533127
0.000496277
0.000445199
0.000394488
0.000352924
0.000323839
0.00030733
0.000307429
0.000317354
0.000347959
0.000418127
0.000573882
0.000901222
0.0015302
0.00192131
0.000784902
0.000230939
0.000462551
0.000531095
0.000536982
0.000527409
0.00049978
0.000456336
0.000413321
0.000376637
0.000350119
0.000334044
0.000334678
0.000344749
0.000374935
0.000443221
0.000591747
0.00089665
0.00153264
0.0019326
0.000784811
0.00020131
0.000414702
0.000505943
0.000528734
0.000526443
0.000509121
0.000473769
0.000437327
0.000405937
0.000383021
0.000368801
0.000370189
0.000381017
0.000411924
0.00048033
0.000629582
0.000912593
0.00153385
0.00189593
0.000769297
0.000170481
0.000385725
0.000493421
0.000531837
0.000534536
0.000526026
0.000503165
0.000472353
0.000444463
0.000423558
0.000410141
0.00041209
0.000423956
0.000457028
0.000528815
0.000689294
0.000953116
0.00153919
0.00180475
0.000744062
0.000136499
0.000323724
0.000459979
0.000537654
0.00055823
0.000555548
0.000542455
0.000516013
0.000490319
0.000469802
0.000459083
0.000462936
0.000478914
0.000519889
0.000603346
0.000793344
0.00104582
0.00155685
0.00164371
0.00069963
9.11098e-05
0.000277562
0.000470049
0.000574733
0.000635007
0.000637432
0.000629257
0.000607237
0.000582744
0.000562241
0.000561823
0.000572367
0.00060216
0.000671288
0.000790109
0.00105038
0.00132011
0.00160104
0.00146765
0.000641875
9.59559e-05
0.000295526
0.000519194
0.00064902
0.000722951
0.000753073
0.000767547
0.000782522
0.000800214
0.000829139
0.000878844
0.000958066
0.00106639
0.00122929
0.00142413
0.00170975
0.00181415
0.00169961
0.00135671
0.000558645
6.92342e-05
0.000107672
0.000196382
0.000284
0.000348705
0.000389854
0.000412325
0.000426154
0.000432731
0.000436866
0.000438493
0.000441759
0.00044504
0.000452368
0.000458199
0.000473972
0.000494556
0.000517186
0.000511544
0.000456475
)
;

boundaryField
{
    movingWall
    {
        type            kqRWallFunction;
        value           nonuniform List<scalar> 
20
(
6.92342e-05
0.000107672
0.000196382
0.000284
0.000348705
0.000389854
0.000412325
0.000426154
0.000432731
0.000436866
0.000438493
0.000441759
0.00044504
0.000452368
0.000458199
0.000473972
0.000494556
0.000517186
0.000511544
0.000456475
)
;
    }
    fixedWalls
    {
        type            kqRWallFunction;
        value           nonuniform List<scalar> 
60
(
7.21213e-06
3.23129e-05
0.000104984
0.000233072
0.000331393
0.000382322
0.000390389
0.000384517
0.00036974
0.000341201
0.000311417
0.000285306
0.000257218
0.000230939
0.00020131
0.000170481
0.000136499
9.11098e-05
9.59559e-05
6.92342e-05
0.000195556
0.000394901
0.000505533
0.000577625
0.000631459
0.000675176
0.000709085
0.000737107
0.000756787
0.000772376
0.000780132
0.000783864
0.000784902
0.000784811
0.000769297
0.000744062
0.00069963
0.000641875
0.000558645
0.000456475
7.21213e-06
2.49995e-05
9.9463e-05
0.000200043
0.000266241
0.000316962
0.000358124
0.000397515
0.000432046
0.000467397
0.00050047
0.000535418
0.000570555
0.000593126
0.000603246
0.000603626
0.000556809
0.000437757
0.00027063
0.000195556
)
;
    }
    frontAndBack
    {
        type            empty;
    }
}


// ************************************************************************* //
