/*--------------------------------*- C++ -*----------------------------------*\
  =========                 |
  \\      /  F ield         | OpenFOAM: The Open Source CFD Toolbox
   \\    /   O peration     | Website:  https://openfoam.org
    \\  /    A nd           | Version:  13
     \\/     M anipulation  |
\*---------------------------------------------------------------------------*/
FoamFile
{
    format      ascii;
    class       volScalarField;
    location    "9";
    object      nut;
}
// * * * * * * * * * * * * * * * * * * * * * * * * * * * * * * * * * * * * * //

dimensions      [0 2 -1 0 0 0 0];

internalField   nonuniform List<scalar> 
1600
(
1.65842e-08
5.57097e-08
1.07752e-07
1.06795e-07
9.70875e-08
9.92252e-08
1.28337e-07
2.19382e-07
3.31677e-07
4.94019e-07
7.48177e-07
9.1683e-07
9.97974e-07
1.10797e-06
1.28186e-06
1.50417e-06
1.70678e-06
1.9414e-06
2.16533e-06
2.4241e-06
2.68664e-06
2.98908e-06
3.31465e-06
3.6963e-06
4.13988e-06
4.5254e-06
4.92392e-06
5.25906e-06
5.55106e-06
5.70724e-06
5.76899e-06
5.64907e-06
5.19772e-06
4.42874e-06
3.34243e-06
1.99756e-06
9.79807e-07
4.15233e-07
1.33659e-07
2.79823e-08
7.99683e-08
1.26923e-06
3.77124e-06
4.46023e-06
4.35231e-06
4.15934e-06
4.74741e-06
6.46247e-06
7.0948e-06
8.31118e-06
9.62376e-06
1.04577e-05
1.08314e-05
1.16799e-05
1.24627e-05
1.41012e-05
1.51466e-05
1.68737e-05
1.8105e-05
1.96451e-05
2.09022e-05
2.22758e-05
2.34943e-05
2.45124e-05
2.50608e-05
2.59009e-05
2.64214e-05
2.69126e-05
2.70506e-05
2.67038e-05
2.64362e-05
2.51341e-05
2.32964e-05
2.00668e-05
1.67637e-05
1.10625e-05
5.44375e-06
2.1868e-06
7.55539e-07
4.76365e-08
2.41121e-07
3.42604e-06
8.24305e-06
9.84691e-06
1.03606e-05
1.07856e-05
1.35826e-05
1.73105e-05
1.82242e-05
1.83877e-05
1.68515e-05
1.59805e-05
1.56617e-05
1.71618e-05
1.86166e-05
2.04425e-05
2.23487e-05
2.43857e-05
2.61817e-05
2.80854e-05
2.96232e-05
3.0923e-05
3.16165e-05
3.21777e-05
3.2496e-05
3.26757e-05
3.25735e-05
3.22275e-05
3.15289e-05
3.04038e-05
2.8487e-05
2.65425e-05
2.49838e-05
2.12853e-05
1.76797e-05
1.08793e-05
4.75357e-06
2.35979e-06
9.65378e-07
3.90094e-08
5.5118e-07
7.42183e-06
1.41813e-05
1.64383e-05
1.75452e-05
1.94474e-05
2.19861e-05
2.22868e-05
2.18215e-05
1.88924e-05
1.804e-05
1.94894e-05
2.14395e-05
2.42393e-05
2.62248e-05
2.87625e-05
3.06045e-05
3.23645e-05
3.36274e-05
3.48041e-05
3.56187e-05
3.62895e-05
3.6646e-05
3.68632e-05
3.68414e-05
3.66178e-05
3.6138e-05
3.53816e-05
3.42657e-05
3.27725e-05
3.07372e-05
2.81509e-05
2.49998e-05
2.16407e-05
1.87289e-05
1.44026e-05
5.39218e-06
1.84002e-06
6.63806e-07
2.6623e-08
1.0346e-06
1.32883e-05
2.09771e-05
2.24087e-05
2.33828e-05
2.51822e-05
2.52719e-05
2.45572e-05
2.17072e-05
2.06178e-05
2.26134e-05
2.48825e-05
2.7728e-05
3.04388e-05
3.25201e-05
3.43255e-05
3.61145e-05
3.74288e-05
3.88237e-05
3.95656e-05
4.0288e-05
4.06768e-05
4.09299e-05
4.09717e-05
4.08695e-05
4.05835e-05
4.00844e-05
3.9298e-05
3.81342e-05
3.63706e-05
3.40599e-05
3.13372e-05
2.83854e-05
2.47701e-05
2.01231e-05
1.65735e-05
1.05544e-05
2.8266e-06
6.5985e-07
3.01829e-08
1.72207e-06
1.95572e-05
2.68355e-05
2.72867e-05
2.78039e-05
2.73334e-05
2.65402e-05
2.4116e-05
2.25128e-05
2.46644e-05
2.70761e-05
3.0056e-05
3.29814e-05
3.52142e-05
3.69901e-05
3.87659e-05
4.03664e-05
4.15912e-05
4.25244e-05
4.32131e-05
4.37713e-05
4.40793e-05
4.42404e-05
4.42028e-05
4.40478e-05
4.37395e-05
4.32898e-05
4.26619e-05
4.1801e-05
4.062e-05
3.81244e-05
3.47772e-05
3.1383e-05
2.76947e-05
2.33924e-05
1.85288e-05
1.34196e-05
4.50391e-06
1.00318e-06
5.55371e-08
2.58303e-06
2.44106e-05
3.14321e-05
3.06477e-05
2.93037e-05
2.84526e-05
2.61933e-05
2.39491e-05
2.59212e-05
2.86761e-05
3.15295e-05
3.47189e-05
3.69626e-05
3.88836e-05
4.07385e-05
4.23236e-05
4.36618e-05
4.47291e-05
4.55563e-05
4.6113e-05
4.64712e-05
4.66747e-05
4.6779e-05
4.67733e-05
4.665e-05
4.64186e-05
4.6072e-05
4.55884e-05
4.49138e-05
4.39497e-05
4.28547e-05
4.07665e-05
3.71969e-05
3.31671e-05
2.81469e-05
2.18515e-05
1.59149e-05
8.38029e-06
1.62138e-06
1.25014e-07
3.50183e-06
2.86549e-05
3.43168e-05
3.26036e-05
3.11185e-05
2.82323e-05
2.56971e-05
2.66649e-05
2.95347e-05
3.25359e-05
3.55596e-05
3.81451e-05
4.00607e-05
4.20615e-05
4.3684e-05
4.50734e-05
4.61861e-05
4.70197e-05
4.75769e-05
4.80395e-05
4.85099e-05
4.87356e-05
4.88876e-05
4.89128e-05
4.88218e-05
4.86288e-05
4.83369e-05
4.79544e-05
4.74614e-05
4.67888e-05
4.57739e-05
4.42753e-05
4.16549e-05
3.78126e-05
3.39606e-05
2.77434e-05
1.93417e-05
1.06552e-05
2.15856e-06
3.12659e-07
4.28494e-06
3.14717e-05
3.66533e-05
3.46903e-05
3.09861e-05
2.78156e-05
2.69517e-05
2.97499e-05
3.30099e-05
3.59469e-05
3.8717e-05
4.07531e-05
4.26784e-05
4.43252e-05
4.58214e-05
4.69716e-05
4.79123e-05
4.86817e-05
4.94188e-05
4.99373e-05
5.02257e-05
5.07965e-05
5.09145e-05
5.10156e-05
5.09181e-05
5.06956e-05
5.03399e-05
4.9892e-05
4.93865e-05
4.88389e-05
4.81855e-05
4.71975e-05
4.51114e-05
4.14265e-05
3.73403e-05
3.31649e-05
2.51727e-05
1.48494e-05
4.69042e-06
8.51424e-07
4.85967e-06
3.31395e-05
3.8354e-05
3.4999e-05
3.06698e-05
2.77815e-05
2.95364e-05
3.28268e-05
3.60323e-05
3.86228e-05
4.0994e-05
4.28092e-05
4.46326e-05
4.61156e-05
4.7415e-05
4.84757e-05
4.94376e-05
5.03122e-05
5.11244e-05
5.18457e-05
5.22505e-05
5.29107e-05
5.31987e-05
5.3343e-05
5.32801e-05
5.3015e-05
5.25543e-05
5.19299e-05
5.12061e-05
5.04663e-05
4.97768e-05
4.91018e-05
4.81718e-05
4.49954e-05
4.03108e-05
3.63516e-05
2.95845e-05
1.83891e-05
6.24118e-06
1.52065e-06
5.2713e-06
3.43632e-05
3.99351e-05
3.51719e-05
3.02985e-05
2.94252e-05
3.2179e-05
3.55187e-05
3.83509e-05
4.05565e-05
4.2718e-05
4.4441e-05
4.61241e-05
4.74821e-05
4.87232e-05
4.98395e-05
5.09236e-05
5.19573e-05
5.29293e-05
5.39003e-05
5.44967e-05
5.50748e-05
5.56635e-05
5.58338e-05
5.58487e-05
5.5589e-05
5.50765e-05
5.43113e-05
5.33473e-05
5.22852e-05
5.12609e-05
5.03725e-05
4.95375e-05
4.82913e-05
4.38899e-05
3.96852e-05
3.44469e-05
2.31855e-05
8.90142e-06
2.16613e-06
5.49294e-06
3.46669e-05
4.03813e-05
3.53558e-05
3.05552e-05
3.14306e-05
3.45095e-05
3.76099e-05
3.99964e-05
4.20554e-05
4.40736e-05
4.5707e-05
4.72872e-05
4.86171e-05
4.99167e-05
5.11716e-05
5.24253e-05
5.36386e-05
5.47795e-05
5.5952e-05
5.6708e-05
5.71923e-05
5.8014e-05
5.82227e-05
5.83207e-05
5.81249e-05
5.76481e-05
5.68548e-05
5.57564e-05
5.4431e-05
5.30493e-05
5.18396e-05
5.09512e-05
5.02124e-05
4.65997e-05
4.17036e-05
3.76585e-05
2.68498e-05
1.12102e-05
2.68521e-06
5.48561e-06
3.46073e-05
4.07579e-05
3.53407e-05
3.14631e-05
3.32462e-05
3.63648e-05
3.91679e-05
4.12203e-05
4.32335e-05
4.51223e-05
4.6701e-05
4.82445e-05
4.96328e-05
5.10582e-05
5.24825e-05
5.39095e-05
5.52837e-05
5.65584e-05
5.78243e-05
5.86443e-05
5.91185e-05
6.00068e-05
6.02472e-05
6.04022e-05
6.03012e-05
5.99392e-05
5.92493e-05
5.81784e-05
5.67272e-05
5.50153e-05
5.33084e-05
5.19255e-05
5.0961e-05
4.94035e-05
4.40569e-05
4.06114e-05
3.08605e-05
1.38219e-05
3.17038e-06
5.41723e-06
3.43261e-05
4.10546e-05
3.5339e-05
3.26936e-05
3.47686e-05
3.77699e-05
4.02664e-05
4.21709e-05
4.4144e-05
4.59355e-05
4.75039e-05
4.90698e-05
5.0568e-05
5.21418e-05
5.37303e-05
5.53065e-05
5.68017e-05
5.81582e-05
5.94328e-05
6.02559e-05
6.07229e-05
6.1553e-05
6.17798e-05
6.19399e-05
6.19184e-05
6.17043e-05
6.12157e-05
6.03413e-05
5.8987e-05
5.71694e-05
5.51194e-05
5.32917e-05
5.21431e-05
5.16495e-05
4.6721e-05
4.24002e-05
3.39482e-05
1.62127e-05
3.6182e-06
5.25353e-06
3.37139e-05
4.08355e-05
3.55452e-05
3.3724e-05
3.59415e-05
3.8789e-05
4.10576e-05
4.29089e-05
4.48394e-05
4.65729e-05
4.81656e-05
4.97907e-05
5.14163e-05
5.31322e-05
5.48629e-05
5.6558e-05
5.81394e-05
5.95404e-05
6.07744e-05
6.15639e-05
6.1999e-05
6.26915e-05
6.28455e-05
6.29462e-05
6.29533e-05
6.28697e-05
6.26195e-05
6.2055e-05
6.09866e-05
5.92793e-05
5.70069e-05
5.45789e-05
5.26311e-05
5.15822e-05
4.87817e-05
4.41115e-05
3.69199e-05
1.85782e-05
4.05521e-06
4.97241e-06
3.28582e-05
4.03817e-05
3.5826e-05
3.45238e-05
3.67927e-05
3.95107e-05
4.16433e-05
4.34723e-05
4.5364e-05
4.70722e-05
4.87073e-05
5.04054e-05
5.21518e-05
5.39904e-05
5.5839e-05
5.76307e-05
5.9281e-05
6.07154e-05
6.18789e-05
6.26214e-05
6.30075e-05
6.35178e-05
6.35474e-05
6.35235e-05
6.34855e-05
6.34677e-05
6.34211e-05
6.31936e-05
6.25349e-05
6.1178e-05
5.9021e-05
5.63642e-05
5.39302e-05
5.23022e-05
5.04654e-05
4.53143e-05
3.92265e-05
2.0817e-05
4.47909e-06
4.65077e-06
3.18145e-05
3.97497e-05
3.60825e-05
3.51007e-05
3.73745e-05
4.00101e-05
4.2072e-05
4.38929e-05
4.575e-05
4.74527e-05
4.91329e-05
5.0899e-05
5.27451e-05
5.46817e-05
5.66254e-05
5.84982e-05
6.02083e-05
6.16688e-05
6.28054e-05
6.34775e-05
6.38031e-05
6.41165e-05
6.39925e-05
6.37999e-05
6.36524e-05
6.3629e-05
6.37222e-05
6.38036e-05
6.35915e-05
6.26985e-05
6.08009e-05
5.79815e-05
5.50233e-05
5.30357e-05
5.20262e-05
4.66039e-05
4.1139e-05
2.29728e-05
4.89983e-06
4.26682e-06
3.07572e-05
3.89906e-05
3.62623e-05
3.55013e-05
3.77433e-05
4.03331e-05
4.23667e-05
4.41852e-05
4.60146e-05
4.772e-05
4.94328e-05
5.12482e-05
5.31663e-05
5.51749e-05
5.71921e-05
5.91324e-05
6.08976e-05
6.23891e-05
6.35206e-05
6.41295e-05
6.43907e-05
6.45178e-05
6.42353e-05
6.38565e-05
6.35563e-05
6.34641e-05
6.36185e-05
6.39436e-05
6.41668e-05
6.38362e-05
6.24332e-05
5.97358e-05
5.63299e-05
5.36236e-05
5.2542e-05
4.78838e-05
4.2709e-05
2.50414e-05
5.31684e-06
3.89203e-06
2.95457e-05
3.81397e-05
3.63573e-05
3.57294e-05
3.79258e-05
4.05042e-05
4.25496e-05
4.43727e-05
4.6171e-05
4.78714e-05
4.9604e-05
5.14484e-05
5.34041e-05
5.5449e-05
5.75088e-05
5.94953e-05
6.13028e-05
6.28205e-05
6.39511e-05
6.45196e-05
6.47199e-05
6.46981e-05
6.42748e-05
6.37212e-05
6.32574e-05
6.30659e-05
6.3219e-05
6.37152e-05
6.43134e-05
6.45415e-05
6.37292e-05
6.1351e-05
5.76933e-05
5.42755e-05
5.27188e-05
4.92331e-05
4.40409e-05
2.69539e-05
5.73058e-06
3.45119e-06
2.85893e-05
3.72011e-05
3.63289e-05
3.58704e-05
3.7968e-05
4.05441e-05
4.26128e-05
4.44359e-05
4.62131e-05
4.79113e-05
4.96265e-05
5.14476e-05
5.33983e-05
5.54533e-05
5.75378e-05
5.9546e-05
6.13647e-05
6.28816e-05
6.39975e-05
6.45486e-05
6.46763e-05
6.4448e-05
6.38812e-05
6.32352e-05
6.27389e-05
6.24863e-05
6.25974e-05
6.3208e-05
6.41158e-05
6.48775e-05
6.47247e-05
6.28541e-05
5.91509e-05
5.50397e-05
5.26606e-05
5.02843e-05
4.52097e-05
2.88217e-05
6.1434e-06
3.09155e-06
2.72094e-05
3.62895e-05
3.62313e-05
3.58687e-05
3.78606e-05
4.04368e-05
4.25766e-05
4.44246e-05
4.61625e-05
4.78092e-05
4.9518e-05
5.13547e-05
5.32955e-05
5.53045e-05
5.72859e-05
5.91936e-05
6.09467e-05
6.24353e-05
6.35453e-05
6.41533e-05
6.4269e-05
6.39061e-05
6.328e-05
6.25252e-05
6.18427e-05
6.14454e-05
6.16613e-05
6.25001e-05
6.36508e-05
6.48879e-05
6.53877e-05
6.4128e-05
6.0586e-05
5.5968e-05
5.2893e-05
5.10405e-05
4.62789e-05
3.05085e-05
6.55063e-06
2.78375e-06
2.56517e-05
3.48385e-05
3.62448e-05
3.5839e-05
3.75915e-05
4.02271e-05
4.23937e-05
4.42374e-05
4.59705e-05
4.76518e-05
4.92466e-05
5.08464e-05
5.25941e-05
5.44717e-05
5.64458e-05
5.83906e-05
6.01731e-05
6.1671e-05
6.27698e-05
6.33825e-05
6.35224e-05
6.32823e-05
6.27577e-05
6.2004e-05
6.11735e-05
6.06392e-05
6.06865e-05
6.13756e-05
6.28542e-05
6.46528e-05
6.57748e-05
6.5176e-05
6.19332e-05
5.68983e-05
5.32248e-05
5.15282e-05
4.72685e-05
3.21439e-05
6.95605e-06
2.5103e-06
2.3968e-05
3.32482e-05
3.61985e-05
3.57864e-05
3.73654e-05
3.9721e-05
4.21374e-05
4.40581e-05
4.57325e-05
4.71895e-05
4.87335e-05
5.04489e-05
5.22102e-05
5.40112e-05
5.58514e-05
5.76506e-05
5.93014e-05
6.06907e-05
6.17137e-05
6.22909e-05
6.23662e-05
6.213e-05
6.16515e-05
6.09856e-05
6.04221e-05
6.00932e-05
6.00634e-05
6.05732e-05
6.20925e-05
6.40813e-05
6.58291e-05
6.60399e-05
6.31468e-05
5.78022e-05
5.35779e-05
5.18628e-05
4.81225e-05
3.36834e-05
7.35241e-06
2.26046e-06
2.21895e-05
3.13306e-05
3.60056e-05
3.57496e-05
3.7018e-05
3.93999e-05
4.15075e-05
4.35253e-05
4.52155e-05
4.68068e-05
4.8365e-05
4.99285e-05
5.15271e-05
5.31589e-05
5.47893e-05
5.63851e-05
5.78655e-05
5.91288e-05
6.0085e-05
6.06704e-05
6.0824e-05
6.06467e-05
6.0254e-05
5.9672e-05
5.91151e-05
5.87911e-05
5.90104e-05
6.00287e-05
6.16211e-05
6.36717e-05
6.58069e-05
6.65516e-05
6.43072e-05
5.85735e-05
5.3845e-05
5.20425e-05
4.88861e-05
3.51747e-05
7.74249e-06
2.0261e-06
2.03569e-05
2.94896e-05
3.56069e-05
3.55297e-05
3.65419e-05
3.88807e-05
4.11542e-05
4.29896e-05
4.47356e-05
4.63408e-05
4.77179e-05
4.90889e-05
5.05227e-05
5.20118e-05
5.35051e-05
5.49457e-05
5.62702e-05
5.74067e-05
5.82846e-05
5.88561e-05
5.90656e-05
5.8954e-05
5.8678e-05
5.82539e-05
5.78417e-05
5.76373e-05
5.7859e-05
5.87535e-05
6.05908e-05
6.32712e-05
6.57448e-05
6.67969e-05
6.5018e-05
5.92363e-05
5.3998e-05
5.21285e-05
4.96195e-05
3.65645e-05
8.11874e-06
1.80295e-06
1.85039e-05
2.76773e-05
3.4611e-05
3.57082e-05
3.61712e-05
3.80748e-05
4.05516e-05
4.25421e-05
4.42208e-05
4.56348e-05
4.69788e-05
4.82486e-05
4.95233e-05
5.08247e-05
5.21274e-05
5.33863e-05
5.45481e-05
5.5555e-05
5.6352e-05
5.69053e-05
5.71942e-05
5.71552e-05
5.70122e-05
5.67823e-05
5.65553e-05
5.65237e-05
5.68938e-05
5.79159e-05
5.97956e-05
6.24959e-05
6.53965e-05
6.71229e-05
6.55886e-05
5.9736e-05
5.3981e-05
5.20424e-05
5.02405e-05
3.78905e-05
8.48252e-06
1.58486e-06
1.66317e-05
2.58652e-05
3.29651e-05
3.57435e-05
3.59784e-05
3.74082e-05
3.96659e-05
4.18282e-05
4.35025e-05
4.49082e-05
4.617e-05
4.73353e-05
4.84646e-05
4.95902e-05
5.07076e-05
5.17885e-05
5.2793e-05
5.36773e-05
5.44002e-05
5.49316e-05
5.53173e-05
5.53522e-05
5.53467e-05
5.53274e-05
5.53029e-05
5.54652e-05
5.59963e-05
5.71352e-05
5.91126e-05
6.19708e-05
6.50528e-05
6.70341e-05
6.61531e-05
5.99817e-05
5.38085e-05
5.17966e-05
5.07503e-05
3.90902e-05
8.82677e-06
1.37003e-06
1.4777e-05
2.39501e-05
3.10683e-05
3.56107e-05
3.57438e-05
3.67718e-05
3.86548e-05
4.08262e-05
4.26158e-05
4.40719e-05
4.52958e-05
4.63775e-05
4.73838e-05
4.83562e-05
4.93073e-05
5.02262e-05
5.10886e-05
5.18642e-05
5.2527e-05
5.30352e-05
5.35292e-05
5.36353e-05
5.37631e-05
5.39558e-05
5.41362e-05
5.45e-05
5.52032e-05
5.6471e-05
5.85129e-05
6.14181e-05
6.45845e-05
6.67197e-05
6.60551e-05
6.0142e-05
5.33941e-05
5.13037e-05
5.11744e-05
4.02138e-05
9.1534e-06
1.15173e-06
1.29499e-05
2.24427e-05
2.86891e-05
3.48828e-05
3.58248e-05
3.63597e-05
3.78258e-05
3.97294e-05
4.15927e-05
4.31096e-05
4.43351e-05
4.53673e-05
4.62844e-05
4.71389e-05
4.79574e-05
4.87448e-05
4.94918e-05
5.018e-05
5.08022e-05
5.12912e-05
5.18979e-05
5.2069e-05
5.23196e-05
5.27144e-05
5.3089e-05
5.36467e-05
5.45148e-05
5.5906e-05
5.79834e-05
6.08677e-05
6.39645e-05
6.60719e-05
6.54636e-05
5.97524e-05
5.26973e-05
5.0488e-05
5.14734e-05
4.11811e-05
9.45633e-06
9.53421e-07
1.13961e-05
2.10912e-05
2.63393e-05
3.2881e-05
3.58083e-05
3.61833e-05
3.71692e-05
3.87689e-05
4.05241e-05
4.20771e-05
4.33329e-05
4.43517e-05
4.52143e-05
4.59844e-05
4.67027e-05
4.73884e-05
4.80464e-05
4.86695e-05
4.92618e-05
4.97532e-05
5.04489e-05
5.06768e-05
5.10428e-05
5.16223e-05
5.21647e-05
5.28937e-05
5.38998e-05
5.53897e-05
5.74465e-05
6.02131e-05
6.3061e-05
6.49668e-05
6.41992e-05
5.88226e-05
5.17702e-05
4.93196e-05
5.16277e-05
4.20231e-05
9.74044e-06
7.90728e-07
1.01448e-05
2.01847e-05
2.4368e-05
3.05372e-05
3.52013e-05
3.61188e-05
3.68406e-05
3.80177e-05
3.95114e-05
4.09827e-05
4.22409e-05
4.32675e-05
4.41156e-05
4.48474e-05
4.5511e-05
4.61381e-05
4.67384e-05
4.73363e-05
4.78765e-05
4.85018e-05
4.9083e-05
4.94299e-05
4.99751e-05
5.06496e-05
5.13217e-05
5.21849e-05
5.32773e-05
5.48134e-05
5.67548e-05
5.92828e-05
6.16694e-05
6.31943e-05
6.20658e-05
5.70642e-05
5.03123e-05
4.79151e-05
5.15389e-05
4.26125e-05
1.00042e-05
6.43124e-07
9.03324e-06
1.9547e-05
2.29614e-05
2.83009e-05
3.35102e-05
3.5748e-05
3.67374e-05
3.77085e-05
3.89049e-05
4.01836e-05
4.13565e-05
4.23456e-05
4.31631e-05
4.38569e-05
4.44723e-05
4.50554e-05
4.55983e-05
4.61968e-05
4.66496e-05
4.7445e-05
4.78703e-05
4.83106e-05
4.90074e-05
4.97233e-05
5.0467e-05
5.14038e-05
5.24919e-05
5.39797e-05
5.5653e-05
5.77878e-05
5.94777e-05
6.04676e-05
5.88444e-05
5.43405e-05
4.83654e-05
4.65071e-05
5.11884e-05
4.28138e-05
1.02601e-05
5.05604e-07
8.23073e-06
1.90688e-05
2.24954e-05
2.65851e-05
3.16447e-05
3.50588e-05
3.65284e-05
3.75833e-05
3.85989e-05
3.96521e-05
4.06664e-05
4.15652e-05
4.23288e-05
4.29833e-05
4.35554e-05
4.41112e-05
4.45994e-05
4.5208e-05
4.55769e-05
4.64701e-05
4.67897e-05
4.7267e-05
4.80132e-05
4.87146e-05
4.94301e-05
5.03346e-05
5.12653e-05
5.25504e-05
5.37358e-05
5.52981e-05
5.60733e-05
5.64487e-05
5.4342e-05
5.0562e-05
4.58247e-05
4.51694e-05
5.04976e-05
4.23247e-05
1.05207e-05
4.34776e-07
8.04058e-06
1.83778e-05
2.26565e-05
2.49309e-05
2.9691e-05
3.40449e-05
3.65507e-05
3.79219e-05
3.89888e-05
3.99256e-05
4.07743e-05
4.15268e-05
4.21667e-05
4.27188e-05
4.31823e-05
4.3641e-05
4.40155e-05
4.45232e-05
4.48137e-05
4.55258e-05
4.58431e-05
4.62116e-05
4.67878e-05
4.73768e-05
4.78899e-05
4.85807e-05
4.91226e-05
4.99878e-05
5.04332e-05
5.1272e-05
5.10397e-05
5.08857e-05
4.8567e-05
4.59157e-05
4.262e-05
4.32666e-05
4.95872e-05
4.17796e-05
1.06787e-05
4.50426e-07
8.90122e-06
1.7614e-05
2.27324e-05
2.51711e-05
2.829e-05
3.23256e-05
3.59829e-05
3.83028e-05
3.96072e-05
4.05629e-05
4.13026e-05
4.18891e-05
4.23637e-05
4.27507e-05
4.30789e-05
4.3392e-05
4.36727e-05
4.39442e-05
4.41407e-05
4.43398e-05
4.4635e-05
4.47191e-05
4.48651e-05
4.51358e-05
4.52163e-05
4.54556e-05
4.5367e-05
4.56042e-05
4.51875e-05
4.53198e-05
4.43208e-05
4.39971e-05
4.20873e-05
4.10229e-05
3.99034e-05
4.22581e-05
4.84722e-05
4.10481e-05
1.07358e-05
6.41085e-07
1.13874e-05
1.82384e-05
2.32152e-05
2.60988e-05
2.91304e-05
3.23834e-05
3.56829e-05
3.88564e-05
4.12318e-05
4.2514e-05
4.33636e-05
4.39329e-05
4.42743e-05
4.45237e-05
4.44872e-05
4.42922e-05
4.3963e-05
4.3623e-05
4.3181e-05
4.28134e-05
4.22955e-05
4.18616e-05
4.15892e-05
4.12102e-05
4.06525e-05
4.02859e-05
3.9565e-05
3.92084e-05
3.82819e-05
3.81027e-05
3.71008e-05
3.72424e-05
3.65326e-05
3.7233e-05
3.8697e-05
4.21697e-05
4.67232e-05
3.87959e-05
1.06644e-05
1.03764e-06
1.52675e-05
2.06555e-05
2.48363e-05
2.805e-05
3.13174e-05
3.47419e-05
3.74759e-05
4.02676e-05
4.28869e-05
4.49168e-05
4.58554e-05
4.6185e-05
4.60189e-05
4.54772e-05
4.47053e-05
4.37474e-05
4.26364e-05
4.15031e-05
4.03165e-05
3.94113e-05
3.81389e-05
3.73818e-05
3.65965e-05
3.55737e-05
3.46552e-05
3.40578e-05
3.33467e-05
3.30177e-05
3.25452e-05
3.27999e-05
3.27326e-05
3.38955e-05
3.46282e-05
3.71453e-05
3.94672e-05
4.40643e-05
4.45188e-05
3.6859e-05
1.03355e-05
1.71811e-06
1.96683e-05
2.31883e-05
2.74846e-05
3.11634e-05
3.44377e-05
3.74636e-05
3.9719e-05
4.07944e-05
4.2128e-05
4.31345e-05
4.33684e-05
4.31802e-05
4.26115e-05
4.18489e-05
4.08515e-05
3.97827e-05
3.87384e-05
3.75634e-05
3.63266e-05
3.54781e-05
3.45606e-05
3.35723e-05
3.29057e-05
3.23717e-05
3.20989e-05
3.20025e-05
3.21515e-05
3.26607e-05
3.32572e-05
3.43523e-05
3.53833e-05
3.74164e-05
3.90059e-05
4.21478e-05
4.42516e-05
4.651e-05
4.26828e-05
3.32979e-05
9.71883e-06
2.82683e-06
2.3111e-05
2.60296e-05
3.05869e-05
3.38515e-05
3.6266e-05
3.80935e-05
3.9223e-05
3.95313e-05
3.99116e-05
4.01486e-05
4.0153e-05
4.00375e-05
3.96659e-05
3.94288e-05
3.87405e-05
3.85034e-05
3.81524e-05
3.76935e-05
3.74153e-05
3.71667e-05
3.71403e-05
3.71478e-05
3.73962e-05
3.76734e-05
3.82224e-05
3.88054e-05
3.96259e-05
4.05921e-05
4.15796e-05
4.30251e-05
4.40465e-05
4.60368e-05
4.65957e-05
4.91867e-05
4.7944e-05
4.625e-05
4.0263e-05
2.51774e-05
8.45316e-06
1.91662e-06
2.93754e-06
3.82702e-06
4.71285e-06
5.53279e-06
6.27105e-06
6.90455e-06
7.41241e-06
7.77362e-06
7.99796e-06
8.13917e-06
8.1787e-06
8.16168e-06
8.11064e-06
8.02311e-06
7.90719e-06
7.78203e-06
7.66056e-06
7.53364e-06
7.41889e-06
7.309e-06
7.2162e-06
7.13507e-06
7.07243e-06
7.02834e-06
7.0026e-06
7.00673e-06
7.02465e-06
7.07403e-06
7.12806e-06
7.25089e-06
7.35211e-06
7.59945e-06
7.78747e-06
8.21742e-06
8.49175e-06
8.95523e-06
8.99394e-06
8.68935e-06
7.25434e-06
)
;

boundaryField
{
    movingWall
    {
        type            nutkWallFunction;
        Cmu             0.09;
        kappa           0.41;
        E               9.8;
        value           uniform 0;
    }
    fixedWalls
    {
        type            nutkWallFunction;
        Cmu             0.09;
        kappa           0.41;
        E               9.8;
        value           uniform 0;
    }
    frontAndBack
    {
        type            empty;
    }
}


// ************************************************************************* //
