/*--------------------------------*- C++ -*----------------------------------*\
  =========                 |
  \\      /  F ield         | OpenFOAM: The Open Source CFD Toolbox
   \\    /   O peration     | Website:  https://openfoam.org
    \\  /    A nd           | Version:  13
     \\/     M anipulation  |
\*---------------------------------------------------------------------------*/
FoamFile
{
    format      ascii;
    class       volScalarField;
    location    "9";
    object      p;
}
// * * * * * * * * * * * * * * * * * * * * * * * * * * * * * * * * * * * * * //

dimensions      [0 2 -2 0 0 0 0];

internalField   nonuniform List<scalar> 
1600
(
1.18642e-08
-2.46252e-05
-0.000112576
-0.000237241
-0.000349971
-0.00043617
-0.00051444
-0.00062169
-0.000768728
-0.000955134
-0.00119001
-0.00153848
-0.00197329
-0.00215835
-0.00240629
-0.00302265
-0.00393148
-0.00496054
-0.0059384
-0.00672795
-0.00723085
-0.00737973
-0.00711863
-0.00640293
-0.00526867
-0.00373314
-0.00180669
0.000443764
0.00289424
0.00531897
0.00743213
0.00891899
0.00955753
0.00932045
0.00830016
0.00724636
0.00659053
0.00647913
0.0065863
0.00663722
-1.92075e-05
-7.00362e-05
-0.00016845
-0.00028841
-0.000370766
-0.000412538
-0.000453764
-0.000539703
-0.000677611
-0.000833231
-0.000977311
-0.00121588
-0.00166147
-0.00221987
-0.00286335
-0.00368401
-0.00465812
-0.00568506
-0.0066342
-0.00739202
-0.00787194
-0.00801681
-0.00778471
-0.00715748
-0.00611108
-0.00464316
-0.00279474
-0.000625377
0.00173718
0.0041136
0.00624456
0.00782607
0.00861577
0.00853621
0.00771859
0.0066919
0.00617877
0.00625085
0.00643457
0.00652292
-4.90574e-05
-0.000144764
-0.000274306
-0.000388508
-0.000431516
-0.000416415
-0.000406064
-0.000432704
-0.000522592
-0.000737278
-0.00110661
-0.00161064
-0.00227012
-0.00308185
-0.00402487
-0.00504929
-0.00609954
-0.00710389
-0.00798431
-0.00867118
-0.00910289
-0.00922496
-0.0090049
-0.00842581
-0.00746415
-0.00611756
-0.00441565
-0.00241154
-0.000197392
0.00208794
0.00423045
0.0059808
0.00709091
0.00741582
0.00704844
0.00639121
0.00605108
0.00611691
0.00629508
0.00635401
-5.6566e-05
-0.000197696
-0.0003712
-0.000471577
-0.000469681
-0.000420164
-0.0004005
-0.000460568
-0.000657466
-0.00107871
-0.0017537
-0.00261762
-0.00359342
-0.00464971
-0.00576316
-0.00687957
-0.00794455
-0.00890823
-0.00972563
-0.010352
-0.0107363
-0.010831
-0.0106127
-0.0100715
-0.00919456
-0.00798412
-0.00646061
-0.0046621
-0.0026499
-0.000515529
0.00159246
0.00348616
0.00494953
0.00583016
0.00615467
0.00612403
0.00611897
0.00615242
0.00623558
0.00623611
8.12222e-05
-0.000126633
-0.000324061
-0.000422272
-0.00043343
-0.000424241
-0.000488606
-0.000718194
-0.00119105
-0.00194848
-0.00295477
-0.00411256
-0.00533135
-0.00655971
-0.00776206
-0.00890651
-0.00996277
-0.010902
-0.0116791
-0.0122476
-0.0125722
-0.0126378
-0.0124286
-0.0119314
-0.0111421
-0.0100655
-0.00871415
-0.00711194
-0.00530064
-0.0033478
-0.00134672
0.000585291
0.00232068
0.00374968
0.00482344
0.00556751
0.00604966
0.00627142
0.00623141
0.00616214
0.000436818
0.000147691
-7.42037e-05
-0.000215198
-0.000310897
-0.000449308
-0.00074257
-0.00128881
-0.00213216
-0.00324131
-0.00452857
-0.00589496
-0.00726772
-0.00859553
-0.00984944
-0.0110082
-0.0120415
-0.012919
-0.0136118
-0.0141035
-0.0143765
-0.0144202
-0.0142257
-0.0137761
-0.0130752
-0.0121281
-0.0109433
-0.00953553
-0.0079283
-0.00615883
-0.00428062
-0.00236367
-0.000480834
0.0013265
0.00301408
0.00448566
0.00557494
0.00618393
0.00616522
0.00604891
0.000981554
0.00063188
0.000350031
0.000112088
-0.000156039
-0.00056289
-0.00121142
-0.00215734
-0.00337699
-0.00478826
-0.00628818
-0.00779647
-0.00925629
-0.0106268
-0.011884
-0.0130078
-0.0139804
-0.0147855
-0.0154086
-0.0158408
-0.0160725
-0.0160971
-0.0159088
-0.0155011
-0.0148751
-0.014036
-0.0129914
-0.0117516
-0.0103303
-0.00874485
-0.00701817
-0.0051766
-0.00324088
-0.00122113
0.000854839
0.00288337
0.00460364
0.00571876
0.0060921
0.00586942
0.00163667
0.00124239
0.000845071
0.000448169
-7.7557e-05
-0.00084235
-0.00190542
-0.00324984
-0.00479572
-0.00643711
-0.00808436
-0.00967664
-0.0111699
-0.0125365
-0.0137607
-0.014831
-0.0157401
-0.0164809
-0.017047
-0.0174327
-0.0176332
-0.0176444
-0.0174635
-0.0170892
-0.0165231
-0.0157697
-0.0148357
-0.013729
-0.0124575
-0.0110283
-0.00944632
-0.00771155
-0.00581299
-0.00372826
-0.00145206
0.00093115
0.00317215
0.00490089
0.0058342
0.00551162
0.00222094
0.00174417
0.00122895
0.000638443
-0.000195269
-0.00134815
-0.00280572
-0.00449122
-0.006285
-0.0080851
-0.00982236
-0.0114512
-0.0129414
-0.0142787
-0.0154562
-0.0164713
-0.0173229
-0.0180095
-0.0185289
-0.0188787
-0.0190566
-0.0190606
-0.0188894
-0.0185438
-0.0180261
-0.0173407
-0.0164936
-0.015491
-0.0143381
-0.0130363
-0.0115808
-0.0099575
-0.0081396
-0.00608673
-0.00376031
-0.00119032
0.0014197
0.00369277
0.00513251
0.00521214
0.00255204
0.00200438
0.0013608
0.000556062
-0.000590406
-0.00209935
-0.00388263
-0.00581715
-0.00777841
-0.00967411
-0.0114532
-0.0130835
-0.0145488
-0.0158453
-0.016974
-0.017938
-0.0187406
-0.0193832
-0.0198666
-0.0201902
-0.0203531
-0.0203549
-0.0201951
-0.019875
-0.0193972
-0.0187658
-0.0179862
-0.0170639
-0.016003
-0.0148032
-0.0134564
-0.011943
-0.0102298
-0.00826785
-0.00599504
-0.00338634
-0.0005922
0.00203035
0.00401882
0.00506498
0.00251822
0.00191455
0.00114833
0.000140542
-0.00128314
-0.00307131
-0.00508914
-0.00718015
-0.00923641
-0.0111732
-0.012956
-0.0145636
-0.0159916
-0.0172436
-0.018326
-0.0192457
-0.0200081
-0.0206168
-0.0210736
-0.0213793
-0.0215339
-0.0215374
-0.0213901
-0.0210933
-0.0206495
-0.0200623
-0.0193365
-0.0184772
-0.0174881
-0.0163692
-0.0151131
-0.0137009
-0.0120999
-0.0102612
-0.00811474
-0.00559244
-0.00277171
-1.00297e-05
0.00236364
0.00397365
0.00209021
0.00144296
0.000571588
-0.000604604
-0.0022351
-0.004215
-0.0063675
-0.00854197
-0.0106303
-0.0125653
-0.0143237
-0.0158934
-0.017278
-0.0184859
-0.0195266
-0.020409
-0.0211394
-0.0217223
-0.0221603
-0.0224544
-0.0226053
-0.0226133
-0.022479
-0.0222037
-0.0217896
-0.0212399
-0.0205586
-0.0197505
-0.0188195
-0.0177669
-0.0165879
-0.0152674
-0.013777
-0.0120724
-0.0100894
-0.00774163
-0.00501639
-0.00227726
0.000145863
0.00184208
0.0012956
0.000624928
-0.000320105
-0.00162095
-0.00337799
-0.00546262
-0.00766685
-0.00986252
-0.0119367
-0.0138397
-0.0155554
-0.0170786
-0.018418
-0.0195841
-0.0205883
-0.0214396
-0.0221447
-0.0227082
-0.0231327
-0.0234196
-0.0235699
-0.0235839
-0.0234626
-0.0232071
-0.0228194
-0.0223022
-0.0216591
-0.0208943
-0.0200123
-0.0190159
-0.0179036
-0.016666
-0.0152814
-0.0137128
-0.0119061
-0.0097791
-0.00726628
-0.00464157
-0.00239461
-0.00084543
0.000218054
-0.000452846
-0.00143706
-0.00281298
-0.00463192
-0.0067408
-0.00893918
-0.0111086
-0.013137
-0.014989
-0.0166519
-0.0181253
-0.0194202
-0.0205481
-0.0215203
-0.0223456
-0.0230305
-0.023579
-0.0239937
-0.0242763
-0.0244275
-0.0244482
-0.0243393
-0.024102
-0.0237379
-0.0232494
-0.0226397
-0.021913
-0.0210738
-0.0201267
-0.0190736
-0.0179111
-0.0166252
-0.0151882
-0.0135561
-0.0116637
-0.00943619
-0.0069979
-0.00502024
-0.00371102
-0.0010275
-0.00168357
-0.00267841
-0.00407947
-0.00590305
-0.00798135
-0.0101412
-0.0122522
-0.0142167
-0.0160075
-0.0176137
-0.0190375
-0.0202906
-0.021384
-0.0223285
-0.023132
-0.0238002
-0.0243368
-0.0247442
-0.025024
-0.025177
-0.0252043
-0.0251067
-0.0248856
-0.0245426
-0.0240796
-0.0234997
-0.0228067
-0.0220058
-0.0211026
-0.0201025
-0.0190073
-0.0178112
-0.0164963
-0.0150301
-0.0133645
-0.0114299
-0.00925709
-0.0075413
-0.00646685
-0.00232759
-0.0029546
-0.00393927
-0.00532689
-0.00711584
-0.00913403
-0.0112324
-0.0132697
-0.0151633
-0.0168902
-0.0184405
-0.0198177
-0.0210326
-0.0220955
-0.023016
-0.0238009
-0.0244553
-0.0249823
-0.025384
-0.0256618
-0.0258169
-0.0258501
-0.0257626
-0.0255557
-0.025231
-0.0247904
-0.0242367
-0.0235737
-0.0228069
-0.021943
-0.02099
-0.0199544
-0.0188379
-0.0176319
-0.016314
-0.0148467
-0.0131794
-0.0113354
-0.00985998
-0.00895513
-0.0035751
-0.00416604
-0.00512387
-0.006479
-0.00821239
-0.0101575
-0.0121826
-0.0141426
-0.0159663
-0.0176322
-0.0191309
-0.0204661
-0.0216474
-0.0226839
-0.0235839
-0.0243533
-0.0249962
-0.0255153
-0.0259124
-0.0261888
-0.0263457
-0.026384
-0.026305
-0.02611
-0.0258008
-0.0253792
-0.024848
-0.0242111
-0.0234741
-0.0226446
-0.0217327
-0.0207489
-0.0197014
-0.0185898
-0.0173991
-0.0160993
-0.0146614
-0.0131228
-0.0118706
-0.0111022
-0.00468968
-0.00523585
-0.00615702
-0.00747301
-0.00914669
-0.0110185
-0.0129698
-0.014857
-0.0166171
-0.0182287
-0.0196825
-0.0209818
-0.0221347
-0.0231493
-0.0240324
-0.024789
-0.0254226
-0.0259354
-0.026329
-0.0266044
-0.0267627
-0.0268051
-0.0267327
-0.0265472
-0.0262502
-0.0258439
-0.0253312
-0.0247158
-0.0240037
-0.0232032
-0.0223257
-0.0213852
-0.0203948
-0.0193614
-0.0182771
-0.017119
-0.0158755
-0.0145932
-0.0135366
-0.0128733
-0.00560575
-0.00611318
-0.00699139
-0.00826596
-0.00988409
-0.0116928
-0.0135783
-0.0154025
-0.0171088
-0.0186751
-0.0200923
-0.0213628
-0.0224932
-0.0234905
-0.0243605
-0.0251075
-0.0257341
-0.0262423
-0.0266333
-0.026908
-0.0270675
-0.0271128
-0.0270453
-0.0268665
-0.0265783
-0.0261832
-0.0256841
-0.0250851
-0.0243922
-0.0236143
-0.022764
-0.0218574
-0.0209119
-0.01994
-0.0189413
-0.0179011
-0.0168165
-0.0157268
-0.0148367
-0.0142626
-0.00629472
-0.00675355
-0.0075955
-0.00883472
-0.0104054
-0.0121644
-0.0139972
-0.0157712
-0.0174354
-0.0189674
-0.0203573
-0.0216066
-0.0227209
-0.0237061
-0.0245673
-0.0253078
-0.0259301
-0.0264356
-0.0268252
-0.0270997
-0.02726
-0.0273072
-0.0272425
-0.0270677
-0.0267847
-0.0263963
-0.0259055
-0.0253168
-0.0246366
-0.0238741
-0.0230426
-0.02216
-0.0212466
-0.0203199
-0.0193863
-0.0184397
-0.0174811
-0.0165408
-0.0157814
-0.0152761
-0.00672704
-0.00714521
-0.00796293
-0.00917327
-0.0107029
-0.0124267
-0.0142201
-0.0159576
-0.0175928
-0.0191018
-0.0204743
-0.0217106
-0.0228156
-0.0237943
-0.0246511
-0.0253891
-0.02601
-0.026515
-0.0269047
-0.0271797
-0.0273408
-0.0273888
-0.027325
-0.0271512
-0.0268696
-0.0264829
-0.0259947
-0.0254098
-0.0247348
-0.0239793
-0.0231575
-0.0222881
-0.021394
-0.0204964
-0.0196082
-0.018731
-0.0178686
-0.0170391
-0.01638
-0.0159276
-0.00688391
-0.00728514
-0.00809489
-0.00928637
-0.0107815
-0.0124784
-0.0142433
-0.015959
-0.017578
-0.0190753
-0.0204401
-0.0216719
-0.0227747
-0.023753
-0.0246106
-0.0253502
-0.0259731
-0.0264802
-0.0268719
-0.0271485
-0.0273105
-0.0273585
-0.0272938
-0.0271181
-0.0268336
-0.0264435
-0.0259516
-0.0253631
-0.0246852
-0.0239279
-0.0231055
-0.0222377
-0.0213497
-0.0204659
-0.019604
-0.0187735
-0.0179831
-0.0172375
-0.0166506
-0.016231
-0.00680019
-0.00719059
-0.00799901
-0.00918168
-0.0106515
-0.0123241
-0.0140742
-0.0157784
-0.0173909
-0.0188859
-0.0202519
-0.0214875
-0.0225955
-0.0235799
-0.024444
-0.0251899
-0.0258188
-0.0263312
-0.0267271
-0.0270067
-0.0271699
-0.0272174
-0.0271501
-0.0269697
-0.0266784
-0.0262794
-0.0257771
-0.0251769
-0.0244868
-0.0237175
-0.0228839
-0.0220066
-0.0211115
-0.0202256
-0.0193713
-0.0185658
-0.0178255
-0.0171395
-0.0166161
-0.0162
-0.00651983
-0.00689741
-0.00770378
-0.00888282
-0.0103321
-0.011975
-0.0137164
-0.0154172
-0.0170306
-0.0185314
-0.019907
-0.0211542
-0.022275
-0.0232724
-0.024149
-0.0249067
-0.0255462
-0.0260676
-0.0264707
-0.026755
-0.0269204
-0.026967
-0.0268957
-0.0267079
-0.0264057
-0.0259926
-0.0254729
-0.0248528
-0.0241407
-0.0233483
-0.0224916
-0.0215924
-0.020677
-0.019774
-0.0189102
-0.0181106
-0.017401
-0.0167439
-0.0162839
-0.0158495
-0.00609153
-0.00645403
-0.0072507
-0.00841895
-0.00984895
-0.0114564
-0.0131763
-0.0148767
-0.0164967
-0.0180096
-0.0194017
-0.0206683
-0.0218095
-0.0228273
-0.0237235
-0.0244992
-0.0251546
-0.0256894
-0.026103
-0.0263944
-0.0265632
-0.0266091
-0.0265326
-0.0263348
-0.0260179
-0.0255851
-0.0250412
-0.0243926
-0.0236486
-0.0228218
-0.0219295
-0.0209947
-0.0200453
-0.019111
-0.0182224
-0.0174145
-0.016719
-0.0160612
-0.0156487
-0.0151932
-0.0055798
-0.00592083
-0.00669031
-0.00782681
-0.00922328
-0.0107918
-0.0124723
-0.0141643
-0.01579
-0.0173181
-0.0187323
-0.0200252
-0.0211949
-0.0222411
-0.0231646
-0.0239653
-0.0246429
-0.0251964
-0.0256247
-0.0259263
-0.0261003
-0.0261459
-0.0260633
-0.0258533
-0.0255179
-0.0250601
-0.0244848
-0.0237992
-0.023013
-0.0221402
-0.0211996
-0.0202156
-0.0192178
-0.0182376
-0.0173101
-0.0164806
-0.0157856
-0.015101
-0.0147444
-0.0142568
-0.00506439
-0.00536777
-0.00607762
-0.00714865
-0.00848205
-0.00999435
-0.0116217
-0.0132883
-0.0149122
-0.0164546
-0.0178944
-0.0192202
-0.0204262
-0.0215097
-0.022469
-0.0233029
-0.02401
-0.0245885
-0.0250364
-0.025352
-0.0255337
-0.0255802
-0.0254911
-0.0252671
-0.0249097
-0.0244218
-0.0238085
-0.0230771
-0.0222385
-0.0213078
-0.0203059
-0.019259
-0.0181984
-0.0171572
-0.0161759
-0.0153085
-0.0145918
-0.0138811
-0.0135961
-0.0130581
-0.00462712
-0.00485956
-0.0054614
-0.0064244
-0.00765828
-0.00908254
-0.010637
-0.0122566
-0.0138652
-0.0154169
-0.0168837
-0.0182479
-0.0194984
-0.0206284
-0.0216333
-0.0225097
-0.0232547
-0.0238655
-0.0243393
-0.0246735
-0.0248662
-0.0249154
-0.0248202
-0.0245808
-0.0241986
-0.0236761
-0.0230184
-0.0222332
-0.0213323
-0.0203323
-0.0192562
-0.0181323
-0.0169945
-0.0158775
-0.014827
-0.0139044
-0.0131488
-0.0123966
-0.0122237
-0.0115897
-0.0043261
-0.00443448
-0.00487513
-0.00568847
-0.00678493
-0.00808184
-0.00953027
-0.0110763
-0.0126515
-0.0142037
-0.0156965
-0.0171037
-0.0184067
-0.0195931
-0.0206542
-0.0215836
-0.0223763
-0.023028
-0.0235349
-0.0238936
-0.0241015
-0.0241561
-0.024056
-0.0238008
-0.0233916
-0.0228308
-0.0221233
-0.0212773
-0.0203052
-0.0192254
-0.018063
-0.0168487
-0.0156191
-0.0144115
-0.0132761
-0.0122804
-0.0114644
-0.0106473
-0.0106199
-0.0098065
-0.00414477
-0.00407262
-0.00433617
-0.00497132
-0.00588936
-0.00701536
-0.00831736
-0.00975774
-0.0112763
-0.0128165
-0.0143316
-0.0157847
-0.0171479
-0.0184011
-0.0195299
-0.020524
-0.0213753
-0.0220777
-0.0226262
-0.0230164
-0.0232449
-0.0233087
-0.023206
-0.0229357
-0.0224987
-0.0218972
-0.0211361
-0.0202237
-0.0191734
-0.018005
-0.0167457
-0.0154287
-0.0140935
-0.0127802
-0.0115446
-0.0104569
-0.00956098
-0.00867026
-0.00874616
-0.00762453
-0.00392569
-0.00372386
-0.00385854
-0.00429635
-0.00499107
-0.00590052
-0.00701501
-0.00831522
-0.00975096
-0.0112626
-0.0127932
-0.0142934
-0.0157235
-0.0170537
-0.0182621
-0.0193331
-0.0202549
-0.021019
-0.0216186
-0.0220484
-0.0223041
-0.0223823
-0.0222809
-0.0219977
-0.0215337
-0.0208912
-0.0200749
-0.0190933
-0.0179605
-0.0166974
-0.0153332
-0.0139031
-0.0124495
-0.0110157
-0.00966348
-0.00846433
-0.00746997
-0.00649659
-0.00656732
-0.00497905
-0.00360778
-0.00342117
-0.00345988
-0.00367516
-0.00410379
-0.00475266
-0.00564014
-0.00676673
-0.00809343
-0.00955887
-0.0110959
-0.0126419
-0.0141437
-0.0155597
-0.016859
-0.0180191
-0.0190237
-0.019861
-0.0205221
-0.0210006
-0.0212914
-0.0213903
-0.0212949
-0.0210039
-0.0205165
-0.0198354
-0.0189657
-0.0179158
-0.0167003
-0.0153406
-0.0138672
-0.0123163
-0.0107331
-0.00916415
-0.00767798
-0.00634526
-0.00522584
-0.00412989
-0.0040866
-0.00189126
-0.00333865
-0.00321595
-0.00314734
-0.00311575
-0.00324016
-0.00358721
-0.00421206
-0.00513671
-0.00633244
-0.00773577
-0.00926967
-0.0108579
-0.0124333
-0.0139414
-0.0153408
-0.0166008
-0.0176993
-0.0186208
-0.019354
-0.0198908
-0.0202255
-0.0203538
-0.0202728
-0.0199805
-0.0194751
-0.0187617
-0.017845
-0.0167329
-0.0154398
-0.013987
-0.0124048
-0.0107291
-0.00900712
-0.00728756
-0.00564592
-0.00414867
-0.0028608
-0.00157366
-0.00128782
0.00152719
-0.00314207
-0.00308449
-0.00290183
-0.0026175
-0.00240856
-0.00241867
-0.0027526
-0.0034568
-0.0045092
-0.00584095
-0.00736438
-0.00899037
-0.0106383
-0.012241
-0.0137456
-0.0151127
-0.0163139
-0.0173289
-0.0181435
-0.0187478
-0.0191354
-0.019302
-0.0192446
-0.0189631
-0.0184496
-0.0177149
-0.0167628
-0.0156005
-0.0142416
-0.0127055
-0.0110206
-0.00921994
-0.00735058
-0.00546024
-0.00362884
-0.00191236
-0.000381967
0.00119716
0.0018501
0.00526081
-0.00294105
-0.00296503
-0.00267399
-0.00214809
-0.00159569
-0.0012566
-0.00129215
-0.00177244
-0.00268062
-0.00394082
-0.00545238
-0.00711319
-0.0088305
-0.0105256
-0.0121355
-0.0136119
-0.0149195
-0.0160331
-0.0169356
-0.0176152
-0.0180641
-0.0182775
-0.0182519
-0.0179862
-0.0174882
-0.0167499
-0.0157794
-0.0145851
-0.0131789
-0.0115756
-0.00979916
-0.00787541
-0.00584749
-0.00375371
-0.00167152
0.000365786
0.00227935
0.00432756
0.0055403
0.00970962
-0.00267908
-0.00276512
-0.00240244
-0.00165302
-0.000775606
-0.000112139
0.000127461
-0.00014844
-0.000926332
-0.00212329
-0.0036271
-0.00532307
-0.00710661
-0.00888908
-0.0105987
-0.0121798
-0.0135912
-0.0148031
-0.0157951
-0.0165537
-0.0170701
-0.0173391
-0.0173582
-0.0171273
-0.016649
-0.0159225
-0.0149531
-0.0137481
-0.0123161
-0.0106647
-0.00881059
-0.00676542
-0.00456127
-0.00221144
0.000224533
0.00276271
0.00532814
0.00821516
0.0105126
0.016269
-0.00235989
-0.00245649
-0.00201603
-0.00108611
6.27751e-05
0.000979654
0.0014353
0.00132158
0.000647145
-0.00049979
-0.00199795
-0.00372436
-0.00556567
-0.00742488
-0.00922287
-0.0108985
-0.0124054
-0.0137098
-0.0147883
-0.0156256
-0.0162122
-0.016542
-0.0166127
-0.0164241
-0.0159777
-0.0152747
-0.0143196
-0.0131182
-0.0116766
-0.00999445
-0.00807683
-0.0059126
-0.00351232
-0.000837656
0.00209398
0.00541101
0.00907717
0.0135763
0.0183298
0.0277703
-0.00213128
-0.00218123
-0.00158889
-0.000464791
0.000857712
0.00197081
0.00255949
0.00254847
0.00194243
0.000827379
-0.000674332
-0.00243404
-0.00433016
-0.00625803
-0.00813208
-0.00988691
-0.0114739
-0.0128556
-0.0140069
-0.0149118
-0.0155597
-0.0159442
-0.0160627
-0.0159148
-0.0155027
-0.0148274
-0.0138909
-0.0126918
-0.0112412
-0.00953711
-0.00756822
-0.00529464
-0.00269694
0.000351325
0.00390508
0.00832392
0.0137012
0.0211802
0.0309398
0.0473202
-0.00309479
-0.00254525
-0.00146178
-3.32999e-06
0.0015303
0.00275779
0.00342612
0.00346562
0.00289386
0.00180068
0.000305177
-0.00146765
-0.00339622
-0.00537239
-0.00730544
-0.00912494
-0.0107777
-0.0122237
-0.0134356
-0.0143965
-0.015094
-0.0155231
-0.0156802
-0.0155655
-0.0151798
-0.0145259
-0.0136054
-0.0124201
-0.0109691
-0.00923786
-0.00723131
-0.00488282
-0.00214116
0.00121211
0.00537195
0.0110592
0.018895
0.0310888
0.0489806
0.0752574
-0.0052215
-0.00166873
-2.35385e-05
0.00140207
0.00280593
0.00392701
0.00451688
0.00448161
0.00384801
0.00271173
0.00118782
-0.000610002
-0.00257046
-0.0045888
-0.00657409
-0.00845135
-0.0101616
-0.0116638
-0.0129294
-0.0139379
-0.0146777
-0.0151421
-0.0153295
-0.015239
-0.0148727
-0.0142311
-0.0133161
-0.0121259
-0.0106622
-0.00891473
-0.0069165
-0.00454653
-0.00183427
0.00168645
0.0061831
0.0129981
0.0240397
0.0419667
0.0695713
0.104338
)
;

boundaryField
{
    movingWall
    {
        type            zeroGradient;
    }
    fixedWalls
    {
        type            zeroGradient;
    }
    frontAndBack
    {
        type            empty;
    }
}


// ************************************************************************* //
