/*--------------------------------*- C++ -*----------------------------------*\
  =========                 |
  \\      /  F ield         | OpenFOAM: The Open Source CFD Toolbox
   \\    /   O peration     | Website:  https://openfoam.org
    \\  /    A nd           | Version:  13
     \\/     M anipulation  |
\*---------------------------------------------------------------------------*/
FoamFile
{
    format      ascii;
    class       surfaceScalarField;
    location    "9";
    object      phi;
}
// * * * * * * * * * * * * * * * * * * * * * * * * * * * * * * * * * * * * * //

dimensions      [0 3 -1 0 0 0 0];

internalField   nonuniform List<scalar> 
760
(
1.24638e-07
-1.24641e-07
-1.47594e-07
2.72232e-07
-9.8252e-07
8.34926e-07
-2.29424e-06
1.31172e-06
-3.6937e-06
1.39945e-06
-4.94236e-06
1.24866e-06
-5.99868e-06
1.05632e-06
-6.83651e-06
8.37829e-07
-7.4501e-06
6.13586e-07
-7.85778e-06
4.07685e-07
-8.07159e-06
2.1381e-07
-8.08139e-06
9.80385e-09
-7.88298e-06
-1.9841e-07
-7.47536e-06
-4.07623e-07
-6.79191e-06
-6.8345e-07
-5.80846e-06
-9.83451e-07
-4.46977e-06
-1.33869e-06
-2.82013e-06
-1.64964e-06
-1.08382e-06
-1.73631e-06
-1.08382e-06
-3.98882e-07
2.74241e-07
-1.39867e-06
1.27202e-06
-2.76326e-06
2.19951e-06
-4.02072e-06
2.56919e-06
-5.09466e-06
2.47339e-06
-6.03856e-06
2.19255e-06
-6.80913e-06
1.82689e-06
-7.4129e-06
1.4416e-06
-7.865e-06
1.06569e-06
-8.15848e-06
7.01166e-07
-8.27868e-06
3.34011e-07
-8.225e-06
-4.38746e-08
-8.01479e-06
-4.08621e-07
-7.60794e-06
-8.14476e-07
-7.0005e-06
-1.29089e-06
-6.14552e-06
-1.83843e-06
-5.00592e-06
-2.4783e-06
-3.51975e-06
-3.1358e-06
-1.72561e-06
-3.53044e-06
-2.80944e-06
-1.0055e-06
1.27974e-06
-2.32907e-06
2.59559e-06
-3.50127e-06
3.37171e-06
-4.47365e-06
3.54157e-06
-5.2954e-06
3.29515e-06
-5.97351e-06
2.87066e-06
-6.5056e-06
2.35898e-06
-6.8825e-06
1.81849e-06
-7.12501e-06
1.3082e-06
-7.23473e-06
8.10889e-07
-7.23515e-06
3.34428e-07
-7.13674e-06
-1.42282e-07
-6.92125e-06
-6.24106e-07
-6.57388e-06
-1.16185e-06
-6.08246e-06
-1.78231e-06
-5.41131e-06
-2.50958e-06
-4.53056e-06
-3.35905e-06
-3.37331e-06
-4.29305e-06
-1.858e-06
-5.04575e-06
-4.66744e-06
-1.23491e-06
2.51465e-06
-2.45037e-06
3.81105e-06
-3.43261e-06
4.35395e-06
-4.19578e-06
4.30474e-06
-4.79698e-06
3.89634e-06
-5.25187e-06
3.32556e-06
-5.57645e-06
2.68356e-06
-5.79785e-06
2.0399e-06
-5.92423e-06
1.43458e-06
-5.97079e-06
8.57444e-07
-5.93887e-06
3.02504e-07
-5.83059e-06
-2.50557e-07
-5.63305e-06
-8.21648e-07
-5.34497e-06
-1.44992e-06
-4.95666e-06
-2.17062e-06
-4.44386e-06
-3.02238e-06
-3.77239e-06
-4.03052e-06
-2.88455e-06
-5.18089e-06
-1.64967e-06
-6.28063e-06
-6.31711e-06
-1.16543e-06
3.68009e-06
-2.19515e-06
4.84077e-06
-2.99167e-06
5.15047e-06
-3.58987e-06
4.90295e-06
-4.03044e-06
4.33691e-06
-4.34067e-06
3.63579e-06
-4.55071e-06
2.89359e-06
-4.68627e-06
2.17546e-06
-4.75377e-06
1.50208e-06
-4.76085e-06
8.64528e-07
-4.70821e-06
2.49865e-07
-4.59621e-06
-3.62558e-07
-4.42092e-06
-9.96944e-07
-4.18372e-06
-1.68712e-06
-3.88145e-06
-2.47289e-06
-3.50044e-06
-3.40339e-06
-3.00618e-06
-4.52478e-06
-2.33334e-06
-5.85373e-06
-1.38028e-06
-7.23369e-06
-7.69739e-06
-9.59907e-07
4.63999e-06
-1.78357e-06
5.66443e-06
-2.41347e-06
5.78036e-06
-2.87348e-06
5.36296e-06
-3.1986e-06
4.66203e-06
-3.41926e-06
3.85645e-06
-3.56514e-06
3.03947e-06
-3.65421e-06
2.26453e-06
-3.6929e-06
1.54076e-06
-3.68518e-06
8.56808e-07
-3.6313e-06
1.9599e-07
-3.53024e-06
-4.6362e-07
-3.38087e-06
-1.14632e-06
-3.18561e-06
-1.88237e-06
-2.94765e-06
-2.71086e-06
-2.66538e-06
-3.68566e-06
-2.32245e-06
-4.86771e-06
-1.85444e-06
-6.32175e-06
-1.1149e-06
-7.97323e-06
-8.81229e-06
-7.2834e-07
5.36833e-06
-1.33929e-06
6.27539e-06
-1.80978e-06
6.25085e-06
-2.14987e-06
5.70305e-06
-2.38863e-06
4.90079e-06
-2.55091e-06
4.01874e-06
-2.65896e-06
3.14751e-06
-2.72497e-06
2.33054e-06
-2.75446e-06
1.57025e-06
-2.74958e-06
8.51935e-07
-2.70892e-06
1.55327e-07
-2.63002e-06
-5.42518e-07
-2.51137e-06
-1.26497e-06
-2.35577e-06
-2.03797e-06
-2.1708e-06
-2.89582e-06
-1.96287e-06
-3.89359e-06
-1.72546e-06
-5.10512e-06
-1.40636e-06
-6.64086e-06
-9.12819e-07
-8.46677e-06
-9.72511e-06
-4.75636e-07
5.84397e-06
-9.01222e-07
6.70097e-06
-1.22507e-06
6.5747e-06
-1.46169e-06
5.93967e-06
-1.63108e-06
5.07018e-06
-1.75032e-06
4.13798e-06
-1.83347e-06
3.23066e-06
-1.88779e-06
2.38486e-06
-1.91692e-06
1.59938e-06
-1.92147e-06
8.56491e-07
-1.89913e-06
1.32978e-07
-1.847e-06
-5.94642e-07
-1.76332e-06
-1.34865e-06
-1.65056e-06
-2.15073e-06
-1.51815e-06
-3.02823e-06
-1.3785e-06
-4.03324e-06
-1.23128e-06
-5.25233e-06
-1.03491e-06
-6.83723e-06
-7.04908e-07
-8.79677e-06
-1.043e-05
-2.55276e-07
6.09925e-06
-4.91965e-07
6.93766e-06
-6.75126e-07
6.75786e-06
-8.18396e-07
6.08294e-06
-9.26274e-07
5.17806e-06
-1.00825e-06
4.21996e-06
-1.07051e-06
3.29292e-06
-1.11575e-06
2.4301e-06
-1.1454e-06
1.62902e-06
-1.15916e-06
8.70252e-07
-1.1551e-06
1.28917e-07
-1.13089e-06
-6.18847e-07
-1.0852e-06
-1.39434e-06
-1.02021e-06
-2.21572e-06
-9.45232e-07
-3.10321e-06
-8.74743e-07
-4.10373e-06
-8.12931e-07
-5.31415e-06
-7.26753e-07
-6.9234e-06
-5.58469e-07
-8.96505e-06
-1.09885e-05
-2.84789e-08
6.12772e-06
-1.05436e-07
7.01462e-06
-1.66146e-07
6.81857e-06
-2.16514e-07
6.13331e-06
-2.62319e-07
5.22386e-06
-3.0549e-07
4.26313e-06
-3.45169e-07
3.3326e-06
-3.79451e-07
2.46439e-06
-4.07349e-07
1.65692e-06
-4.28234e-07
8.91136e-07
-4.41273e-07
1.41957e-07
-4.45345e-07
-6.14775e-07
-4.4019e-07
-1.39949e-06
-4.27677e-07
-2.22824e-06
-4.16308e-07
-3.11458e-06
-4.15787e-07
-4.10425e-06
-4.50401e-07
-5.27953e-06
-4.66957e-07
-6.90685e-06
-4.16847e-07
-9.01516e-06
-1.14053e-05
1.8336e-07
5.94436e-06
2.77253e-07
6.92072e-06
3.45474e-07
6.75035e-06
3.73525e-07
6.10526e-06
3.84869e-07
5.21252e-06
3.80901e-07
4.2671e-06
3.66668e-07
3.34683e-06
3.46682e-07
2.48437e-06
3.23355e-07
1.68025e-06
2.97289e-07
9.17203e-07
2.68096e-07
1.7115e-07
2.3536e-07
-5.82039e-07
1.98067e-07
-1.3622e-06
1.54197e-07
-2.18437e-06
9.73968e-08
-3.05778e-06
3.63558e-10
-4.00722e-06
-1.05239e-07
-5.17393e-06
-2.42902e-07
-6.76919e-06
-3.18347e-07
-8.93971e-06
-1.17237e-05
3.8358e-07
5.56078e-06
6.38674e-07
6.66563e-06
8.2836e-07
6.56066e-06
9.47473e-07
5.98614e-06
1.02422e-06
5.13577e-06
1.06713e-06
4.22418e-06
1.08487e-06
3.32909e-06
1.08427e-06
2.48497e-06
1.06894e-06
1.69558e-06
1.03955e-06
9.46592e-07
9.94459e-07
2.16241e-07
9.31703e-07
-5.19282e-07
8.48405e-07
-1.2789e-06
7.41931e-07
-2.07789e-06
6.0576e-07
-2.92161e-06
4.3747e-07
-3.83893e-06
2.12125e-07
-4.94859e-06
-5.51736e-08
-6.50189e-06
-2.06624e-07
-8.78826e-06
-1.19303e-05
5.79511e-07
4.98127e-06
9.90355e-07
6.25479e-06
1.29914e-06
6.25188e-06
1.51504e-06
5.77024e-06
1.66493e-06
4.98589e-06
1.76445e-06
4.12466e-06
1.82338e-06
3.27016e-06
1.84955e-06
2.4588e-06
1.84737e-06
1.69776e-06
1.81767e-06
9.76285e-07
1.75769e-06
2.76227e-07
1.66439e-06
-4.25982e-07
1.5331e-06
-1.14762e-06
1.3598e-06
-1.90459e-06
1.14067e-06
-2.70248e-06
8.7222e-07
-3.57047e-06
5.30601e-07
-4.60697e-06
1.68275e-07
-6.13956e-06
-7.1042e-08
-8.54895e-06
-1.20013e-05
7.48004e-07
4.23327e-06
1.305e-06
5.69779e-06
1.72991e-06
5.82698e-06
2.0603e-06
5.43985e-06
2.30198e-06
4.74421e-06
2.47416e-06
3.95248e-06
2.58814e-06
3.15618e-06
2.65224e-06
2.3947e-06
2.67133e-06
1.67866e-06
2.64642e-06
1.0012e-06
2.57399e-06
3.48663e-07
2.44943e-06
-3.0143e-07
2.26781e-06
-9.65992e-07
2.02336e-06
-1.66015e-06
1.71219e-06
-2.3913e-06
1.33483e-06
-3.19312e-06
8.79002e-07
-4.15113e-06
4.18243e-07
-5.6788e-06
7.94243e-08
-8.21013e-06
-1.19219e-05
8.91072e-07
3.3422e-06
1.57351e-06
5.01535e-06
2.12082e-06
5.27967e-06
2.57634e-06
4.98433e-06
2.92843e-06
4.39211e-06
3.19074e-06
3.69017e-06
3.37546e-06
2.97147e-06
3.49096e-06
2.27919e-06
3.54181e-06
1.62781e-06
3.52932e-06
1.01369e-06
3.4492e-06
4.28777e-07
3.29419e-06
-1.4642e-07
3.06147e-06
-7.33273e-07
2.74308e-06
-1.34176e-06
2.33369e-06
-1.98191e-06
1.84253e-06
-2.70197e-06
1.26289e-06
-3.57149e-06
6.8517e-07
-5.10108e-06
2.22458e-07
-7.74742e-06
-1.16995e-05
9.07575e-07
2.43462e-06
1.70262e-06
4.22031e-06
2.39795e-06
4.58434e-06
3.00198e-06
4.3803e-06
3.49513e-06
3.89896e-06
3.87659e-06
3.30872e-06
4.15563e-06
2.69243e-06
4.34163e-06
2.09319e-06
4.43898e-06
1.53047e-06
4.44974e-06
1.00293e-06
4.37102e-06
5.07497e-07
4.19359e-06
3.10042e-08
3.9135e-06
-4.53176e-07
3.52511e-06
-9.53372e-07
3.01975e-06
-1.47655e-06
2.41676e-06
-2.09898e-06
1.70915e-06
-2.86387e-06
1.00818e-06
-4.40012e-06
4.20255e-07
-7.15949e-06
-1.12792e-05
8.20504e-07
1.61412e-06
1.69139e-06
3.34943e-06
2.55135e-06
3.72437e-06
3.32203e-06
3.60962e-06
3.97349e-06
3.2475e-06
4.49751e-06
2.78469e-06
4.89233e-06
2.29761e-06
5.1661e-06
1.81941e-06
5.3238e-06
1.37278e-06
5.36916e-06
9.57572e-07
5.30157e-06
5.75083e-07
5.12222e-06
2.10353e-07
4.8111e-06
-1.4205e-07
4.37898e-06
-5.21253e-07
3.8056e-06
-9.03172e-07
3.11555e-06
-1.40893e-06
2.304e-06
-2.05232e-06
1.47814e-06
-3.57426e-06
6.96715e-07
-6.37807e-06
-1.05825e-05
3.27171e-07
1.28695e-06
1.33111e-06
2.34549e-06
2.38189e-06
2.6736e-06
3.36169e-06
2.62981e-06
4.20719e-06
2.40199e-06
4.90253e-06
2.08935e-06
5.44482e-06
1.75533e-06
5.83683e-06
1.4274e-06
6.08699e-06
1.12262e-06
6.20246e-06
8.42097e-07
6.18705e-06
5.90494e-07
6.05076e-06
3.46644e-07
5.78851e-06
1.20205e-07
5.39317e-06
-1.25922e-07
4.83894e-06
-3.48942e-07
4.15288e-06
-7.2286e-07
3.30918e-06
-1.20862e-06
2.39356e-06
-2.65865e-06
1.23141e-06
-5.21591e-06
-9.35109e-06
-5.27549e-07
1.8145e-06
5.7862e-07
1.23932e-06
1.94631e-06
1.30591e-06
3.20569e-06
1.37044e-06
4.29627e-06
1.31141e-06
5.21255e-06
1.17308e-06
5.95842e-06
1.00946e-06
6.52962e-06
8.56208e-07
6.94376e-06
7.08478e-07
7.20823e-06
5.77627e-07
7.34436e-06
4.54362e-07
7.34782e-06
3.4319e-07
7.23132e-06
2.36703e-07
6.98089e-06
1.24509e-07
6.61622e-06
1.57296e-08
6.1277e-06
-2.34342e-07
5.45537e-06
-5.36294e-07
4.51929e-06
-1.72256e-06
2.6583e-06
-3.35492e-06
-6.69278e-06
1.8145e-06
3.05382e-06
4.35972e-06
5.73016e-06
7.04157e-06
8.21464e-06
9.2241e-06
1.00803e-05
1.07888e-05
1.13664e-05
1.18208e-05
1.2164e-05
1.24007e-05
1.25252e-05
1.25409e-05
1.23066e-05
1.17703e-05
1.00477e-05
6.69278e-06
)
;

boundaryField
{
    movingWall
    {
        type            calculated;
        value           uniform 0;
    }
    fixedWalls
    {
        type            calculated;
        value           uniform 0;
    }
    frontAndBack
    {
        type            empty;
    }
}


// ************************************************************************* //
