/*--------------------------------*- C++ -*----------------------------------*\
  =========                 |
  \\      /  F ield         | OpenFOAM: The Open Source CFD Toolbox
   \\    /   O peration     | Website:  https://openfoam.org
    \\  /    A nd           | Version:  13
     \\/     M anipulation  |
\*---------------------------------------------------------------------------*/
FoamFile
{
    format      ascii;
    class       surfaceScalarField;
    location    "9";
    object      phi;
}
// * * * * * * * * * * * * * * * * * * * * * * * * * * * * * * * * * * * * * //

dimensions      [0 3 -1 0 0 0 0];

internalField   nonuniform List<scalar> 
3120
(
9.57557e-08
-9.57568e-08
2.3657e-07
-1.40815e-07
3.40758e-07
-1.04188e-07
3.75057e-07
-3.42996e-08
3.62864e-07
1.21935e-08
3.41146e-07
2.17178e-08
3.32838e-07
8.30774e-09
3.28924e-07
3.9138e-09
3.05919e-07
2.30056e-08
2.45192e-07
6.07266e-08
1.2667e-07
1.18522e-07
-9.42223e-08
2.20892e-07
-4.40558e-07
3.46335e-07
-9.50235e-07
5.09677e-07
-1.55293e-06
6.02693e-07
-2.1387e-06
5.85774e-07
-2.66769e-06
5.28985e-07
-3.1201e-06
4.52412e-07
-3.49453e-06
3.74434e-07
-3.79166e-06
2.97128e-07
-4.01384e-06
2.22176e-07
-4.16238e-06
1.48543e-07
-4.23917e-06
7.67876e-08
-4.23959e-06
4.22039e-10
-4.1643e-06
-7.52869e-08
-4.01385e-06
-1.50449e-07
-3.77404e-06
-2.39809e-07
-3.4464e-06
-3.27648e-07
-3.02309e-06
-4.23308e-07
-2.50569e-06
-5.17401e-07
-1.89587e-06
-6.09817e-07
-1.21893e-06
-6.76942e-07
-5.27583e-07
-6.91345e-07
1.01241e-07
-6.28824e-07
5.94971e-07
-4.93731e-07
7.95984e-07
-2.01013e-07
6.81034e-07
1.1495e-07
4.41804e-07
2.39229e-07
1.86362e-07
2.55442e-07
1.86362e-07
1.73216e-07
-2.68973e-07
3.62399e-07
-3.29997e-07
4.78504e-07
-2.20293e-07
5.10035e-07
-6.58307e-08
4.74674e-07
4.75549e-08
3.97376e-07
9.90156e-08
2.88589e-07
1.17095e-07
1.23416e-07
1.69087e-07
-1.41223e-07
2.87644e-07
-5.51069e-07
4.70573e-07
-1.13478e-06
7.02232e-07
-1.85332e-06
9.39433e-07
-2.60631e-06
1.09933e-06
-3.25122e-06
1.15459e-06
-3.75579e-06
1.10726e-06
-4.18883e-06
1.01882e-06
-4.55493e-06
8.95079e-07
-4.85948e-06
7.56969e-07
-5.10022e-06
6.15164e-07
-5.27946e-06
4.76371e-07
-5.39714e-06
3.39857e-07
-5.45794e-06
2.09339e-07
-5.45815e-06
7.69987e-08
-5.40166e-06
-5.60614e-08
-5.28428e-06
-1.92671e-07
-5.09844e-06
-3.36293e-07
-4.84532e-06
-4.92926e-07
-4.51186e-06
-6.61109e-07
-4.09005e-06
-8.45111e-07
-3.57772e-06
-1.02973e-06
-2.98022e-06
-1.20732e-06
-2.30502e-06
-1.35215e-06
-1.58053e-06
-1.41583e-06
-8.48813e-07
-1.36054e-06
-2.22655e-07
-1.11989e-06
2.39766e-07
-6.63434e-07
3.92492e-07
-3.77759e-08
3.24623e-07
3.07099e-07
1.52113e-07
4.27951e-07
3.38475e-07
2.09808e-07
-4.78782e-07
3.5627e-07
-4.76459e-07
4.05973e-07
-2.69996e-07
3.75545e-07
-3.54026e-08
2.76354e-07
1.46746e-07
1.01781e-07
2.73589e-07
-1.87252e-07
4.06128e-07
-6.27101e-07
6.08936e-07
-1.23176e-06
8.92303e-07
-1.95964e-06
1.19845e-06
-2.70505e-06
1.44764e-06
-3.35453e-06
1.58892e-06
-3.88753e-06
1.63233e-06
-4.31397e-06
1.58103e-06
-4.66475e-06
1.45804e-06
-4.94787e-06
1.30193e-06
-5.17827e-06
1.12548e-06
-5.36335e-06
9.42045e-07
-5.50702e-06
7.58838e-07
-5.61066e-06
5.80008e-07
-5.67728e-06
4.0648e-07
-5.70292e-06
2.34982e-07
-5.6854e-06
5.94797e-08
-5.62814e-06
-1.13322e-07
-5.52867e-06
-2.92149e-07
-5.38277e-06
-4.8219e-07
-5.18828e-06
-6.87419e-07
-4.93955e-06
-9.09839e-07
-4.63143e-06
-1.15323e-06
-4.24847e-06
-1.41269e-06
-3.78045e-06
-1.67534e-06
-3.21823e-06
-1.91436e-06
-2.56786e-06
-2.06621e-06
-1.85726e-06
-2.07113e-06
-1.13416e-06
-1.843e-06
-4.85587e-07
-1.312e-06
-7.49866e-08
-4.48376e-07
3.4904e-08
1.97208e-07
2.41419e-08
4.38713e-07
3.62617e-07
1.73938e-07
-6.52719e-07
2.31211e-07
-5.33732e-07
1.84279e-07
-2.23064e-07
5.63493e-08
9.25269e-08
-1.61527e-07
3.64622e-07
-5.06568e-07
6.18629e-07
-1.00744e-06
9.07003e-07
-1.65008e-06
1.25158e-06
-2.3649e-06
1.60712e-06
-3.05488e-06
1.88843e-06
-3.63975e-06
2.03251e-06
-4.10261e-06
2.05178e-06
-4.45779e-06
1.98751e-06
-4.73229e-06
1.85553e-06
-4.95462e-06
1.68037e-06
-5.1321e-06
1.47941e-06
-5.27645e-06
1.26983e-06
-5.39506e-06
1.06065e-06
-5.49019e-06
8.53969e-07
-5.55707e-06
6.46889e-07
-5.59613e-06
4.45545e-07
-5.60477e-06
2.43617e-07
-5.58363e-06
3.83442e-08
-5.53508e-06
-1.61877e-07
-5.4564e-06
-3.70822e-07
-5.34509e-06
-5.935e-07
-5.19938e-06
-8.33136e-07
-5.01571e-06
-1.09351e-06
-4.79319e-06
-1.37575e-06
-4.52672e-06
-1.67916e-06
-4.20996e-06
-1.9921e-06
-3.82562e-06
-2.2987e-06
-3.33068e-06
-2.56114e-06
-2.70981e-06
-2.692e-06
-1.97498e-06
-2.57783e-06
-1.18334e-06
-2.10364e-06
-4.58425e-07
-1.17329e-06
-1.36265e-07
-1.24951e-07
-3.01353e-08
3.32583e-07
3.32482e-07
8.05199e-08
-7.33239e-07
2.00408e-08
-4.73253e-07
-1.35824e-07
-6.71992e-08
-3.79046e-07
3.35748e-07
-7.3437e-07
7.19946e-07
-1.22421e-06
1.10847e-06
-1.83798e-06
1.52078e-06
-2.51156e-06
1.92515e-06
-3.149e-06
2.24457e-06
-3.67306e-06
2.41249e-06
-4.07506e-06
2.43451e-06
-4.3848e-06
2.36152e-06
-4.61848e-06
2.22118e-06
-4.79793e-06
2.03498e-06
-4.94088e-06
1.82332e-06
-5.05799e-06
1.59652e-06
-5.15107e-06
1.36292e-06
-5.21746e-06
1.12704e-06
-5.25789e-06
8.94398e-07
-5.27816e-06
6.67162e-07
-5.27988e-06
4.47267e-07
-5.26579e-06
2.29523e-07
-5.2371e-06
9.65583e-09
-5.19093e-06
-2.08047e-07
-5.1261e-06
-4.35652e-07
-5.04315e-06
-6.76447e-07
-4.94157e-06
-9.34716e-07
-4.82003e-06
-1.21505e-06
-4.67522e-06
-1.52057e-06
-4.50242e-06
-1.85196e-06
-4.29195e-06
-2.20257e-06
-4.0358e-06
-2.55485e-06
-3.71456e-06
-2.88239e-06
-3.28061e-06
-3.12595e-06
-2.67204e-06
-3.1864e-06
-1.87766e-06
-2.89802e-06
-9.27962e-07
-2.12299e-06
-2.22203e-07
-8.3071e-07
-1.59905e-08
1.26371e-07
3.16492e-07
-5.50691e-08
-6.7817e-07
-2.30866e-07
-2.97456e-07
-4.91275e-07
1.93209e-07
-8.4456e-07
6.89034e-07
-1.30795e-06
1.18334e-06
-1.87395e-06
1.67447e-06
-2.49257e-06
2.1394e-06
-3.08226e-06
2.51484e-06
-3.56815e-06
2.73045e-06
-3.93057e-06
2.77491e-06
-4.20221e-06
2.70614e-06
-4.40543e-06
2.56474e-06
-4.55509e-06
2.37084e-06
-4.66586e-06
2.14575e-06
-4.74399e-06
1.90146e-06
-4.79594e-06
1.64847e-06
-4.82706e-06
1.39403e-06
-4.84361e-06
1.14359e-06
-4.84964e-06
9.00424e-07
-4.84615e-06
6.6367e-07
-4.83126e-06
4.32381e-07
-4.80547e-06
2.03734e-07
-4.77099e-06
-2.48271e-08
-4.72364e-06
-2.55396e-07
-4.66586e-06
-4.93437e-07
-4.59883e-06
-7.43475e-07
-4.52349e-06
-1.01005e-06
-4.44064e-06
-1.2979e-06
-4.35e-06
-1.61121e-06
-4.24949e-06
-1.95247e-06
-4.13214e-06
-2.31992e-06
-3.98312e-06
-2.70386e-06
-3.78509e-06
-3.08042e-06
-3.50798e-06
-3.40306e-06
-3.09296e-06
-3.60142e-06
-2.44817e-06
-3.54281e-06
-1.52673e-06
-3.04443e-06
-4.92974e-07
-1.86447e-06
-3.18083e-08
-3.34795e-07
2.84683e-07
-1.83522e-07
-4.94648e-07
-4.76021e-07
-4.95714e-09
-8.27646e-07
5.44834e-07
-1.2665e-06
1.12789e-06
-1.78751e-06
1.70435e-06
-2.35418e-06
2.24114e-06
-2.90301e-06
2.68823e-06
-3.36373e-06
2.97557e-06
-3.70234e-06
3.06906e-06
-3.94548e-06
3.01806e-06
-4.12169e-06
2.88235e-06
-4.24355e-06
2.6866e-06
-4.32515e-06
2.45244e-06
-4.37611e-06
2.19672e-06
-4.40449e-06
1.92983e-06
-4.41749e-06
1.66147e-06
-4.42027e-06
1.39681e-06
-4.41578e-06
1.1391e-06
-4.40441e-06
8.89049e-07
-4.38627e-06
6.45538e-07
-4.36101e-06
4.07113e-07
-4.32859e-06
1.71319e-07
-4.28934e-06
-6.40782e-08
-4.24247e-06
-3.02268e-07
-4.18894e-06
-5.46966e-07
-4.13029e-06
-8.02118e-07
-4.06831e-06
-1.07203e-06
-4.00498e-06
-1.36123e-06
-3.94194e-06
-1.67425e-06
-3.87956e-06
-2.01485e-06
-3.81499e-06
-2.3845e-06
-3.73961e-06
-2.77924e-06
-3.63557e-06
-3.18445e-06
-3.4707e-06
-3.56793e-06
-3.20187e-06
-3.87025e-06
-2.75318e-06
-3.9915e-06
-2.03284e-06
-3.76476e-06
-9.52151e-07
-2.94516e-06
-1.16146e-07
-1.1708e-06
1.68537e-07
-2.98099e-07
-1.96549e-07
-6.69807e-07
3.6675e-07
-1.10052e-06
9.75545e-07
-1.58817e-06
1.61554e-06
-2.11333e-06
2.22952e-06
-2.63088e-06
2.75868e-06
-3.07993e-06
3.13728e-06
-3.41324e-06
3.30888e-06
-3.64192e-06
3.29774e-06
-3.80132e-06
3.17746e-06
-3.90701e-06
2.98804e-06
-3.97125e-06
2.75084e-06
-4.00618e-06
2.48737e-06
-4.02034e-06
2.21087e-06
-4.0215e-06
1.931e-06
-4.0148e-06
1.65477e-06
-4.00318e-06
1.38519e-06
-3.98771e-06
1.12363e-06
-3.96824e-06
8.6957e-07
-3.94443e-06
6.21734e-07
-3.91575e-06
3.78436e-07
-3.8818e-06
1.37362e-07
-3.8422e-06
-1.03672e-07
-3.79697e-06
-3.47506e-07
-3.74677e-06
-5.97166e-07
-3.69302e-06
-8.55861e-07
-3.63783e-06
-1.12722e-06
-3.58381e-06
-1.41526e-06
-3.53364e-06
-1.72442e-06
-3.48923e-06
-2.05926e-06
-3.45024e-06
-2.42349e-06
-3.41177e-06
-2.81771e-06
-3.36089e-06
-3.23534e-06
-3.272e-06
-3.65682e-06
-3.10323e-06
-4.03903e-06
-2.7964e-06
-4.29833e-06
-2.27256e-06
-4.2886e-06
-1.4305e-06
-3.78722e-06
-3.35473e-07
-2.26583e-06
-1.66936e-07
-3.74247e-07
1.77698e-07
-8.14529e-07
8.07032e-07
-1.2847e-06
1.44571e-06
-1.78056e-06
2.1114e-06
-2.27615e-06
2.7251e-06
-2.72569e-06
3.20822e-06
-3.07007e-06
3.48166e-06
-3.30265e-06
3.54146e-06
-3.4573e-06
3.45239e-06
-3.55752e-06
3.27767e-06
-3.61507e-06
3.04559e-06
-3.6425e-06
2.77827e-06
-3.64991e-06
2.49477e-06
-3.64491e-06
2.20588e-06
-3.63342e-06
1.91951e-06
-3.61855e-06
1.63991e-06
-3.60176e-06
1.3684e-06
-3.58321e-06
1.10507e-06
-3.5624e-06
8.48763e-07
-3.53858e-06
5.97918e-07
-3.51089e-06
3.5074e-07
-3.47859e-06
1.05065e-07
-3.44106e-06
-1.41198e-07
-3.39826e-06
-3.90305e-07
-3.35069e-06
-6.44745e-07
-3.29953e-06
-9.07016e-07
-3.2468e-06
-1.17995e-06
-3.19528e-06
-1.46679e-06
-3.14826e-06
-1.77144e-06
-3.10893e-06
-2.09858e-06
-3.07905e-06
-2.45337e-06
-3.05668e-06
-2.84008e-06
-3.03291e-06
-3.25911e-06
-2.98804e-06
-3.70168e-06
-2.88704e-06
-4.14004e-06
-2.67933e-06
-4.50604e-06
-2.31362e-06
-4.6543e-06
-1.70594e-06
-4.3949e-06
-6.31342e-07
-3.34043e-06
-7.98277e-07
-4.19158e-07
5.96855e-07
-8.93881e-07
1.28175e-06
-1.37527e-06
1.9271e-06
-1.85447e-06
2.5906e-06
-2.30548e-06
3.17611e-06
-2.67307e-06
3.57581e-06
-2.92612e-06
3.73471e-06
-3.09209e-06
3.70744e-06
-3.19699e-06
3.55728e-06
-3.25755e-06
3.33824e-06
-3.28539e-06
3.07343e-06
-3.29213e-06
2.785e-06
-3.28614e-06
2.48879e-06
-3.27362e-06
2.19336e-06
-3.25854e-06
1.90443e-06
-3.24262e-06
1.62399e-06
-3.2264e-06
1.35218e-06
-3.20947e-06
1.08815e-06
-3.19102e-06
8.3031e-07
-3.17003e-06
5.76926e-07
-3.14547e-06
3.26181e-07
-3.11651e-06
7.61055e-08
-3.08245e-06
-1.75252e-07
-3.04309e-06
-4.29672e-07
-2.99866e-06
-6.89168e-07
-2.95002e-06
-9.55657e-07
-2.89874e-06
-1.23123e-06
-2.84721e-06
-1.51831e-06
-2.79863e-06
-1.82001e-06
-2.75667e-06
-2.14054e-06
-2.72451e-06
-2.48554e-06
-2.7029e-06
-2.8617e-06
-2.68715e-06
-3.27485e-06
-2.66347e-06
-3.72536e-06
-2.60379e-06
-4.19972e-06
-2.45939e-06
-4.65044e-06
-2.18153e-06
-4.93217e-06
-1.70475e-06
-4.87167e-06
-9.06458e-07
-4.13873e-06
-1.70474e-06
-4.36629e-07
1.03348e-06
-9.15339e-07
1.76046e-06
-1.38401e-06
2.39577e-06
-1.82982e-06
3.03641e-06
-2.22351e-06
3.56981e-06
-2.50973e-06
3.86203e-06
-2.70177e-06
3.92676e-06
-2.82343e-06
3.82909e-06
-2.89522e-06
3.62907e-06
-2.93138e-06
3.3744e-06
-2.94307e-06
3.08511e-06
-2.94043e-06
2.78237e-06
-2.93024e-06
2.47859e-06
-2.91713e-06
2.18025e-06
-2.90356e-06
1.89086e-06
-2.89037e-06
1.6108e-06
-2.87746e-06
1.33927e-06
-2.86409e-06
1.07478e-06
-2.84929e-06
8.1551e-07
-2.832e-06
5.59635e-07
-2.81121e-06
3.0539e-07
-2.78613e-06
5.10184e-08
-2.75612e-06
-2.05256e-07
-2.72086e-06
-4.64938e-07
-2.68038e-06
-7.29649e-07
-2.63514e-06
-1.0009e-06
-2.58618e-06
-1.28019e-06
-2.53526e-06
-1.56923e-06
-2.48499e-06
-1.87028e-06
-2.43879e-06
-2.18674e-06
-2.40034e-06
-2.524e-06
-2.37214e-06
-2.8899e-06
-2.35298e-06
-3.29402e-06
-2.33441e-06
-3.74392e-06
-2.29606e-06
-4.23807e-06
-2.19586e-06
-4.75064e-06
-1.96637e-06
-5.16165e-06
-1.57985e-06
-5.2582e-06
-9.62789e-07
-4.75579e-06
-2.66752e-06
-4.26159e-07
1.45964e-06
-8.87291e-07
2.2216e-06
-1.32608e-06
2.83456e-06
-1.72949e-06
3.43983e-06
-2.05802e-06
3.89834e-06
-2.28354e-06
4.08754e-06
-2.43425e-06
4.07746e-06
-2.5247e-06
3.91954e-06
-2.57552e-06
3.67989e-06
-2.59807e-06
3.39695e-06
-2.60271e-06
3.08976e-06
-2.59782e-06
2.77748e-06
-2.58863e-06
2.4694e-06
-2.57846e-06
2.17008e-06
-2.5687e-06
1.8811e-06
-2.5596e-06
1.6017e-06
-2.55069e-06
1.33036e-06
-2.54112e-06
1.0652e-06
-2.52992e-06
8.04314e-07
-2.51616e-06
5.45875e-07
-2.49899e-06
2.88216e-07
-2.47773e-06
2.9756e-08
-2.45187e-06
-2.31112e-07
-2.42104e-06
-4.9577e-07
-2.38511e-06
-7.65577e-07
-2.34421e-06
-1.04179e-06
-2.29886e-06
-1.32555e-06
-2.25011e-06
-1.61798e-06
-2.19979e-06
-1.9206e-06
-2.15062e-06
-2.23591e-06
-2.10613e-06
-2.56849e-06
-2.06974e-06
-2.92628e-06
-2.04274e-06
-3.32102e-06
-2.02078e-06
-3.76588e-06
-1.99013e-06
-4.26873e-06
-1.92017e-06
-4.8206e-06
-1.73321e-06
-5.34861e-06
-1.41459e-06
-5.57681e-06
-8.62513e-07
-5.30787e-06
-3.53004e-06
-3.95113e-07
1.85476e-06
-8.2292e-07
2.6494e-06
-1.22202e-06
3.23366e-06
-1.57666e-06
3.79447e-06
-1.84154e-06
4.16322e-06
-2.02487e-06
4.27087e-06
-2.14384e-06
4.19643e-06
-2.21432e-06
3.99002e-06
-2.25264e-06
3.71821e-06
-2.26872e-06
3.41303e-06
-2.27181e-06
3.09285e-06
-2.26849e-06
2.77416e-06
-2.26273e-06
2.46364e-06
-2.25676e-06
2.16411e-06
-2.2513e-06
1.87564e-06
-2.24621e-06
1.59661e-06
-2.24091e-06
1.32506e-06
-2.23459e-06
1.05888e-06
-2.22643e-06
7.96157e-07
-2.2157e-06
5.35147e-07
-2.20177e-06
2.74284e-07
-2.18411e-06
1.20994e-08
-2.16234e-06
-2.52881e-07
-2.13611e-06
-5.22003e-07
-2.10517e-06
-7.96511e-07
-2.06942e-06
-1.07755e-06
-2.02893e-06
-1.36603e-06
-1.98415e-06
-1.66277e-06
-1.93609e-06
-1.96867e-06
-1.88662e-06
-2.28538e-06
-1.83863e-06
-2.61647e-06
-1.79573e-06
-2.96918e-06
-1.76071e-06
-3.35604e-06
-1.73225e-06
-3.79433e-06
-1.70103e-06
-4.29995e-06
-1.64461e-06
-4.87701e-06
-1.50434e-06
-5.48888e-06
-1.22522e-06
-5.85593e-06
-7.56588e-07
-5.7765e-06
-4.28662e-06
-3.50114e-07
2.20487e-06
-7.34469e-07
3.03376e-06
-1.08674e-06
3.58593e-06
-1.38714e-06
4.09486e-06
-1.5993e-06
4.37537e-06
-1.75045e-06
4.42203e-06
-1.84668e-06
4.29266e-06
-1.90387e-06
4.04721e-06
-1.9351e-06
3.74944e-06
-1.94897e-06
3.4269e-06
-1.95332e-06
3.09721e-06
-1.95318e-06
2.77402e-06
-1.95147e-06
2.46193e-06
-1.94963e-06
2.16227e-06
-1.94796e-06
1.87397e-06
-1.94618e-06
1.59483e-06
-1.94371e-06
1.32259e-06
-1.93992e-06
1.05509e-06
-1.93419e-06
7.90433e-07
-1.92603e-06
5.26984e-07
-1.91501e-06
2.63258e-07
-1.90075e-06
-2.15455e-09
-1.88299e-06
-2.70641e-07
-1.86142e-06
-5.43573e-07
-1.83575e-06
-8.22186e-07
-1.80568e-06
-1.10761e-06
-1.771e-06
-1.40072e-06
-1.73164e-06
-1.70213e-06
-1.68795e-06
-2.01236e-06
-1.64099e-06
-2.33233e-06
-1.59289e-06
-2.66457e-06
-1.5469e-06
-3.01517e-06
-1.50657e-06
-3.39637e-06
-1.47309e-06
-3.82782e-06
-1.44096e-06
-4.33208e-06
-1.39362e-06
-4.92436e-06
-1.29136e-06
-5.59114e-06
-1.04165e-06
-6.10565e-06
-6.43682e-07
-6.17447e-06
-4.93031e-06
-2.97456e-07
2.50233e-06
-6.29568e-07
3.36587e-06
-9.30842e-07
3.88721e-06
-1.17671e-06
4.34073e-06
-1.34985e-06
4.54851e-06
-1.47425e-06
4.54643e-06
-1.55236e-06
4.37077e-06
-1.60008e-06
4.09493e-06
-1.62723e-06
3.77659e-06
-1.641e-06
3.44067e-06
-1.64765e-06
3.10386e-06
-1.65089e-06
2.77726e-06
-1.65284e-06
2.46388e-06
-1.6544e-06
2.16383e-06
-1.65564e-06
1.87521e-06
-1.65629e-06
1.59548e-06
-1.6559e-06
1.3222e-06
-1.65402e-06
1.05321e-06
-1.65027e-06
7.86684e-07
-1.64435e-06
5.21061e-07
-1.63601e-06
2.54914e-07
-1.62503e-06
-1.31293e-08
-1.61122e-06
-2.84453e-07
-1.59434e-06
-5.60452e-07
-1.57408e-06
-8.42443e-07
-1.55007e-06
-1.13162e-06
-1.52185e-06
-1.42893e-06
-1.48903e-06
-1.73495e-06
-1.45143e-06
-2.04996e-06
-1.40943e-06
-2.37433e-06
-1.36442e-06
-2.70958e-06
-1.3191e-06
-3.06049e-06
-1.2772e-06
-3.43827e-06
-1.24142e-06
-3.8636e-06
-1.20877e-06
-4.36473e-06
-1.16703e-06
-4.9661e-06
-1.08968e-06
-5.66849e-06
-8.8453e-07
-6.3108e-06
-5.53158e-07
-6.50584e-06
-5.48346e-06
-2.3758e-07
2.73991e-06
-5.14992e-07
3.64328e-06
-7.65587e-07
4.1378e-06
-9.61445e-07
4.53659e-06
-1.10139e-06
4.68845e-06
-1.20118e-06
4.64622e-06
-1.26534e-06
4.43493e-06
-1.30601e-06
4.1356e-06
-1.33061e-06
3.80119e-06
-1.34497e-06
3.45503e-06
-1.35387e-06
3.11276e-06
-1.35995e-06
2.78335e-06
-1.36471e-06
2.46864e-06
-1.3687e-06
2.16782e-06
-1.37194e-06
1.87846e-06
-1.37424e-06
1.59777e-06
-1.3753e-06
1.32326e-06
-1.37489e-06
1.05279e-06
-1.37281e-06
7.84609e-07
-1.36894e-06
5.17189e-07
-1.36317e-06
2.49142e-07
-1.35539e-06
-2.09034e-08
-1.3455e-06
-2.94346e-07
-1.33332e-06
-5.72637e-07
-1.31855e-06
-8.57204e-07
-1.30081e-06
-1.14937e-06
-1.27951e-06
-1.45022e-06
-1.25404e-06
-1.76043e-06
-1.22382e-06
-2.08018e-06
-1.18872e-06
-2.40943e-06
-1.14949e-06
-2.74881e-06
-1.10828e-06
-3.1017e-06
-1.06877e-06
-3.47778e-06
-1.03477e-06
-3.8976e-06
-1.00584e-06
-4.39366e-06
-9.73275e-07
-4.99866e-06
-9.17003e-07
-5.72476e-06
-7.51337e-07
-6.47646e-06
-4.64034e-07
-6.79314e-06
-5.9475e-06
-1.7828e-07
2.91819e-06
-3.98173e-07
3.86318e-06
-5.97531e-07
4.33716e-06
-7.47502e-07
4.68656e-06
-8.5699e-07
4.79794e-06
-9.35303e-07
4.72454e-06
-9.87651e-07
4.48728e-06
-1.02249e-06
4.17044e-06
-1.04507e-06
3.82377e-06
-1.05991e-06
3.46987e-06
-1.07044e-06
3.12329e-06
-1.07849e-06
2.79139e-06
-1.08507e-06
2.47522e-06
-1.09057e-06
2.17331e-06
-1.095e-06
1.88289e-06
-1.0983e-06
1.60107e-06
-1.10036e-06
1.32532e-06
-1.10112e-06
1.05355e-06
-1.10054e-06
7.84032e-07
-1.09863e-06
5.15276e-07
-1.09538e-06
2.45894e-07
-1.09079e-06
-2.54982e-08
-1.0848e-06
-3.00334e-07
-1.0773e-06
-5.80131e-07
-1.06807e-06
-8.66436e-07
-1.05671e-06
-1.16073e-06
-1.04263e-06
-1.4643e-06
-1.02508e-06
-1.77798e-06
-1.00325e-06
-2.10201e-06
-9.76602e-07
-2.43608e-06
-9.45328e-07
-2.78009e-06
-9.10978e-07
-3.13605e-06
-8.76879e-07
-3.51188e-06
-8.47495e-07
-3.92698e-06
-8.24876e-07
-4.41628e-06
-8.0251e-07
-5.02103e-06
-7.6078e-07
-5.76649e-06
-6.43329e-07
-6.59391e-06
-4.04384e-07
-7.03209e-06
-6.35188e-06
-1.14338e-07
3.03252e-06
-2.79881e-07
4.02872e-06
-4.29102e-07
4.48638e-06
-5.37746e-07
4.7952e-06
-6.19461e-07
4.87965e-06
-6.78243e-07
4.78332e-06
-7.19708e-07
4.52874e-06
-7.49038e-07
4.19977e-06
-7.69514e-07
3.84425e-06
-7.84282e-07
3.48464e-06
-7.95621e-07
3.13463e-06
-8.04698e-07
2.80047e-06
-8.12187e-07
2.48271e-06
-8.18364e-07
2.17949e-06
-8.23334e-07
1.88786e-06
-8.27153e-07
1.60489e-06
-8.29882e-07
1.32805e-06
-8.31604e-07
1.05527e-06
-8.32414e-07
7.84842e-07
-8.32412e-07
5.15274e-07
-8.3168e-07
2.45163e-07
-8.30272e-07
-2.69068e-08
-8.28196e-07
-3.0241e-07
-8.25399e-07
-5.82928e-07
-8.21712e-07
-8.70123e-07
-8.16804e-07
-1.16564e-06
-8.10126e-07
-1.47098e-06
-8.00897e-07
-1.78721e-06
-7.88187e-07
-2.11472e-06
-7.71182e-07
-2.45308e-06
-7.49664e-07
-2.80161e-06
-7.24661e-07
-3.16106e-06
-6.99063e-07
-3.53748e-06
-6.77542e-07
-3.9485e-06
-6.6389e-07
-4.42993e-06
-6.5383e-07
-5.03109e-06
-6.28542e-07
-5.79178e-06
-5.46053e-07
-6.6764e-06
-3.47149e-07
-7.23099e-06
-6.69903e-06
-5.72343e-08
3.08976e-06
-1.64407e-07
4.13589e-06
-2.63345e-07
4.58532e-06
-3.34149e-07
4.866e-06
-3.89508e-07
4.93501e-06
-4.29806e-07
4.82362e-06
-4.60762e-07
4.5597e-06
-4.84436e-07
4.22344e-06
-5.02342e-07
3.86216e-06
-5.16317e-07
3.49861e-06
-5.27615e-07
3.14593e-06
-5.36855e-07
2.80971e-06
-5.44453e-07
2.49031e-06
-5.50649e-07
2.18569e-06
-5.55633e-07
1.89285e-06
-5.59594e-07
1.60885e-06
-5.62734e-07
1.33119e-06
-5.65261e-07
1.0578e-06
-5.67373e-07
7.86954e-07
-5.69249e-07
5.17149e-07
-5.71032e-07
2.46946e-07
-5.72827e-07
-2.51119e-08
-5.74689e-07
-3.00548e-07
-5.76616e-07
-5.81e-07
-5.78507e-07
-8.68232e-07
-5.80109e-07
-1.16404e-06
-5.80954e-07
-1.47013e-06
-5.80315e-07
-1.78785e-06
-5.77244e-07
-2.11779e-06
-5.7077e-07
-2.45956e-06
-5.60353e-07
-2.81202e-06
-5.46557e-07
-3.17485e-06
-5.31806e-07
-3.55223e-06
-5.20677e-07
-3.95963e-06
-5.17953e-07
-4.43265e-06
-5.21525e-07
-5.02752e-06
-5.16125e-07
-5.79718e-06
-4.6639e-07
-6.72614e-06
-3.05848e-07
-7.39153e-06
-7.00488e-06
6.18227e-09
3.08358e-06
-4.79353e-08
4.19001e-06
-1.01155e-07
4.63854e-06
-1.3772e-07
4.90257e-06
-1.66922e-07
4.96422e-06
-1.89482e-07
4.84618e-06
-2.0958e-07
4.57979e-06
-2.27035e-07
4.2409e-06
-2.41744e-07
3.87687e-06
-2.54176e-07
3.51104e-06
-2.64659e-07
3.15641e-06
-2.73325e-07
2.81838e-06
-2.80392e-07
2.49738e-06
-2.86077e-07
2.19137e-06
-2.90655e-07
1.89742e-06
-2.94443e-07
1.61264e-06
-2.97769e-07
1.33452e-06
-3.0095e-07
1.06098e-06
-3.04273e-07
7.90277e-07
-3.0798e-07
5.20856e-07
-3.12267e-07
2.51233e-07
-3.17282e-07
-2.00965e-08
-3.2312e-07
-2.9471e-07
-3.2982e-07
-5.74301e-07
-3.37338e-07
-8.60714e-07
-3.45506e-07
-1.15587e-06
-3.53971e-07
-1.46167e-06
-3.62123e-07
-1.77969e-06
-3.69079e-07
-2.11083e-06
-3.73824e-07
-2.45481e-06
-3.75605e-07
-2.81024e-06
-3.74594e-07
-3.17586e-06
-3.72726e-07
-3.5541e-06
-3.74269e-07
-3.95809e-06
-3.84493e-07
-4.42243e-06
-4.0333e-07
-5.00868e-06
-4.17708e-07
-5.7828e-06
-3.9529e-07
-6.74855e-06
-2.66944e-07
-7.51988e-06
-7.27182e-06
6.49633e-08
3.01861e-06
6.59046e-08
4.18907e-06
5.60331e-08
4.64841e-06
5.20138e-08
4.90659e-06
4.91946e-08
4.96704e-06
4.36915e-08
4.85168e-06
3.52263e-08
4.58826e-06
2.47434e-08
4.25138e-06
1.40216e-08
3.88759e-06
3.93982e-09
3.52112e-06
-4.98407e-09
3.16533e-06
-1.24825e-08
2.82587e-06
-1.85051e-08
2.5034e-06
-2.32557e-08
2.19612e-06
-2.70909e-08
1.90126e-06
-3.04399e-08
1.61599e-06
-3.37452e-08
1.33782e-06
-3.74223e-08
1.06466e-06
-4.18371e-08
7.94692e-07
-4.72966e-08
5.26316e-07
-5.40483e-08
2.57985e-07
-6.22848e-08
-1.186e-08
-7.21333e-08
-2.84861e-07
-8.36666e-08
-5.62768e-07
-9.68892e-08
-8.47491e-07
-1.11712e-07
-1.14105e-06
-1.27895e-07
-1.44548e-06
-1.44978e-07
-1.76261e-06
-1.6223e-07
-2.09358e-06
-1.78718e-07
-2.43833e-06
-1.93568e-07
-2.79539e-06
-2.06565e-07
-3.16287e-06
-2.19207e-07
-3.54146e-06
-2.35318e-07
-3.94198e-06
-2.60353e-07
-4.39739e-06
-2.96046e-07
-4.97299e-06
-3.31248e-07
-5.7476e-06
-3.36508e-07
-6.74329e-06
-2.37647e-07
-7.61874e-06
-7.50947e-06
1.24295e-07
2.89432e-06
1.78059e-07
4.1353e-06
2.10672e-07
4.6158e-06
2.40303e-07
4.87696e-06
2.64644e-07
4.94269e-06
2.76333e-07
4.83999e-06
2.77415e-07
4.58718e-06
2.73546e-07
4.25525e-06
2.6706e-07
3.89407e-06
2.59768e-07
3.52842e-06
2.52885e-07
3.17222e-06
2.47108e-07
2.83165e-06
2.42589e-07
2.50792e-06
2.39145e-07
2.19956e-06
2.36364e-07
1.90404e-06
2.33719e-07
1.61864e-06
2.30667e-07
1.34088e-06
2.26695e-07
1.06863e-06
2.21357e-07
8.0003e-07
2.14279e-07
5.33394e-07
2.0516e-07
2.67104e-07
1.93754e-07
-4.53536e-10
1.79911e-07
-2.71019e-07
1.6351e-07
-5.46367e-07
1.44496e-07
-8.28477e-07
1.22891e-07
-1.11945e-06
9.88422e-08
-1.42143e-06
7.26543e-08
-1.73642e-06
4.48783e-08
-2.06581e-06
1.63401e-08
-2.40979e-06
-1.21888e-08
-2.76686e-06
-4.04268e-08
-3.13463e-06
-6.91128e-08
-3.51277e-06
-1.01539e-07
-3.90955e-06
-1.43108e-07
-4.35582e-06
-1.96678e-07
-4.91942e-06
-2.52005e-07
-5.69227e-06
-2.82629e-07
-6.71267e-06
-2.10661e-07
-7.69071e-06
-7.72013e-06
1.83764e-07
2.71055e-06
2.8903e-07
4.03004e-06
3.61105e-07
4.54372e-06
4.21495e-07
4.81657e-06
4.71925e-07
4.89226e-06
5.03293e-07
4.80862e-06
5.15695e-07
4.57478e-06
5.19742e-07
4.2512e-06
5.18527e-07
3.89529e-06
5.1485e-07
3.53209e-06
5.10653e-07
3.17641e-06
5.07039e-07
2.83527e-06
5.04394e-07
2.51056e-06
5.02586e-07
2.20137e-06
5.01159e-07
1.90547e-06
4.995e-07
1.62029e-06
4.96962e-07
1.34342e-06
4.92938e-07
1.07265e-06
4.86896e-07
8.06072e-07
4.7839e-07
5.419e-07
4.67054e-07
2.7844e-07
4.5261e-07
1.39901e-08
4.34829e-07
-2.53237e-07
4.13563e-07
-5.25102e-07
3.88705e-07
-8.03618e-07
3.60217e-07
-1.09096e-06
3.28126e-07
-1.38934e-06
2.92569e-07
-1.70087e-06
2.53894e-07
-2.02713e-06
2.12681e-07
-2.36857e-06
1.69673e-07
-2.72385e-06
1.25479e-07
-3.09044e-06
7.95925e-08
-3.46688e-06
2.93396e-08
-3.8593e-06
-3.05687e-08
-4.29592e-06
-1.03682e-07
-4.8463e-06
-1.80193e-07
-5.61576e-06
-2.33486e-07
-6.65938e-06
-1.89907e-07
-7.73429e-06
-7.91004e-06
2.4141e-07
2.46914e-06
3.9789e-07
3.87356e-06
5.08504e-07
4.43311e-06
5.99796e-07
4.72528e-06
6.72665e-07
4.81939e-06
7.24653e-07
4.75664e-06
7.50866e-07
4.54856e-06
7.64255e-07
4.23781e-06
7.69466e-07
3.89008e-06
7.70344e-07
3.53122e-06
7.69578e-07
3.17718e-06
7.68731e-07
2.83611e-06
7.68436e-07
2.51086e-06
7.68647e-07
2.20116e-06
7.68901e-07
1.90521e-06
7.68528e-07
1.62067e-06
7.66792e-07
1.34515e-06
7.62994e-07
1.07645e-06
7.5651e-07
8.12556e-07
7.46813e-07
5.51597e-07
7.33469e-07
2.91784e-07
7.16131e-07
3.13286e-08
6.94526e-07
-2.31633e-07
6.68451e-07
-4.99026e-07
6.37739e-07
-7.72906e-07
6.02264e-07
-1.05548e-06
5.61943e-07
-1.34902e-06
5.16792e-07
-1.65572e-06
4.66944e-07
-1.97728e-06
4.12698e-07
-2.31433e-06
3.54631e-07
-2.66579e-06
2.93377e-07
-3.02918e-06
2.28921e-07
-3.40243e-06
1.59264e-07
-3.78964e-06
7.94357e-08
-4.21609e-06
-1.49144e-08
-4.75195e-06
-1.13823e-07
-5.51685e-06
-1.88883e-07
-6.58432e-06
-1.71142e-07
-7.75203e-06
-8.08118e-06
2.96905e-07
2.17224e-06
5.0319e-07
3.66727e-06
6.50966e-07
4.28533e-06
7.71705e-07
4.60454e-06
8.6754e-07
4.72356e-06
9.4139e-07
4.68279e-06
9.83768e-07
4.50618e-06
1.00763e-06
4.21395e-06
1.0205e-06
3.87721e-06
1.02714e-06
3.52458e-06
1.03081e-06
3.17351e-06
1.03352e-06
2.8334e-06
1.03618e-06
2.50819e-06
1.0389e-06
2.19844e-06
1.04126e-06
1.90286e-06
1.04254e-06
1.61938e-06
1.04196e-06
1.34573e-06
1.03872e-06
1.07969e-06
1.03212e-06
8.19164e-07
1.02152e-06
5.62191e-07
1.00643e-06
3.06879e-07
9.8641e-07
5.13463e-08
9.61136e-07
-2.06359e-07
9.30328e-07
-4.68219e-07
8.93752e-07
-7.3633e-07
8.51207e-07
-1.01294e-06
8.02511e-07
-1.30033e-06
7.47489e-07
-1.60069e-06
6.86007e-07
-1.9158e-06
6.18154e-07
-2.24648e-06
5.44305e-07
-2.59194e-06
4.65033e-07
-2.94991e-06
3.80707e-07
-3.3181e-06
2.90109e-07
-3.69904e-06
1.88895e-07
-4.11487e-06
7.25864e-08
-4.63565e-06
-4.98338e-08
-5.39443e-06
-1.46856e-07
-6.48729e-06
-1.55663e-07
-7.74322e-06
-8.23685e-06
3.48054e-07
1.82418e-06
6.01913e-07
3.41341e-06
7.85735e-07
4.10151e-06
9.34479e-07
4.45579e-06
1.05528e-06
4.60276e-06
1.14954e-06
4.58852e-06
1.21186e-06
4.44387e-06
1.24904e-06
4.17677e-06
1.27158e-06
3.85467e-06
1.28561e-06
3.51055e-06
1.2951e-06
3.16401e-06
1.3025e-06
2.826e-06
1.30902e-06
2.50167e-06
1.31497e-06
2.1925e-06
1.32e-06
1.89782e-06
1.32345e-06
1.61594e-06
1.32446e-06
1.34472e-06
1.32219e-06
1.08196e-06
1.31584e-06
8.25519e-07
1.3047e-06
5.7333e-07
1.28817e-06
3.23407e-07
1.26574e-06
7.37699e-08
1.23701e-06
-1.7763e-07
1.20161e-06
-4.32818e-07
1.15922e-06
-6.93933e-07
1.10952e-06
-9.63242e-07
1.05221e-06
-1.24302e-06
9.86951e-07
-1.53543e-06
9.13384e-07
-1.84223e-06
8.31282e-07
-2.16437e-06
7.40708e-07
-2.50136e-06
6.42246e-07
-2.85145e-06
5.3664e-07
-3.2125e-06
4.23449e-07
-3.58585e-06
2.99123e-07
-3.99055e-06
1.59762e-07
-4.49628e-06
1.548e-08
-5.25015e-06
-1.05266e-07
-6.36655e-06
-1.38598e-07
-7.70989e-06
-8.37544e-06
3.8991e-07
1.43427e-06
6.88208e-07
3.11512e-06
9.0798e-07
3.88174e-06
1.08491e-06
4.27887e-06
1.231e-06
4.45667e-06
1.34683e-06
4.47269e-06
1.43177e-06
4.35892e-06
1.48608e-06
4.12247e-06
1.52138e-06
3.81937e-06
1.5453e-06
3.48663e-06
1.56266e-06
3.14665e-06
1.57642e-06
2.81224e-06
1.58814e-06
2.48995e-06
1.59838e-06
2.18226e-06
1.60694e-06
1.88925e-06
1.61324e-06
1.60964e-06
1.61643e-06
1.34152e-06
1.61564e-06
1.08275e-06
1.61e-06
8.31162e-07
1.59873e-06
5.84599e-07
1.58113e-06
3.41e-07
1.55663e-06
9.82787e-08
1.5247e-06
-1.45703e-07
1.48488e-06
-3.93e-07
1.43673e-06
-6.45783e-07
1.37982e-06
-9.0633e-07
1.31367e-06
-1.17687e-06
1.23774e-06
-1.4595e-06
1.15143e-06
-1.75592e-06
1.05422e-06
-2.06717e-06
9.45937e-07
-2.39308e-06
8.27026e-07
-2.73254e-06
6.98466e-07
-3.08394e-06
5.60739e-07
-3.44813e-06
4.11083e-07
-3.84089e-06
2.45509e-07
-4.33071e-06
7.26305e-08
-5.07727e-06
-7.0412e-08
-6.22351e-06
-1.26916e-07
-7.65339e-06
-8.50236e-06
4.12861e-07
1.02141e-06
7.52698e-07
2.77528e-06
1.01147e-06
3.62297e-06
1.21785e-06
4.07248e-06
1.38914e-06
4.28539e-06
1.52945e-06
4.33238e-06
1.63857e-06
4.2498e-06
1.7146e-06
4.04645e-06
1.76709e-06
3.76687e-06
1.80457e-06
3.44916e-06
1.8328e-06
3.11842e-06
1.85537e-06
2.78967e-06
1.87427e-06
2.47104e-06
1.89038e-06
2.16616e-06
1.90374e-06
1.8759e-06
1.91388e-06
1.5995e-06
1.92007e-06
1.33534e-06
1.92142e-06
1.0814e-06
1.91706e-06
8.35524e-07
1.90615e-06
5.95505e-07
1.88792e-06
3.59232e-07
1.86168e-06
1.24516e-07
1.82684e-06
-1.10857e-07
1.78278e-06
-3.48939e-07
1.72892e-06
-5.91929e-07
1.66468e-06
-8.42091e-07
1.58938e-06
-1.10156e-06
1.50224e-06
-1.37237e-06
1.40241e-06
-1.65609e-06
1.28911e-06
-1.95386e-06
1.16187e-06
-2.26584e-06
1.02108e-06
-2.59175e-06
8.67835e-07
-2.93069e-06
7.03451e-07
-3.28374e-06
5.26258e-07
-3.6637e-06
3.32538e-07
-4.13699e-06
1.31325e-07
-4.87606e-06
-3.78972e-08
-6.05428e-06
-1.14714e-07
-7.57657e-06
-8.61707e-06
3.97309e-07
6.24104e-07
7.84412e-07
2.38818e-06
1.08732e-06
3.32006e-06
1.32576e-06
3.83404e-06
1.52305e-06
4.0881e-06
1.68998e-06
4.16545e-06
1.82632e-06
4.11346e-06
1.92883e-06
3.94394e-06
2.004e-06
3.6917e-06
2.06006e-06
3.3931e-06
2.10341e-06
3.07507e-06
2.13831e-06
2.75478e-06
2.16727e-06
2.44207e-06
2.19157e-06
2.14186e-06
2.21156e-06
1.85591e-06
2.22701e-06
1.58405e-06
2.23733e-06
1.32501e-06
2.24175e-06
1.07698e-06
2.23941e-06
8.37867e-07
2.22947e-06
6.05448e-07
2.21108e-06
3.77618e-07
2.1835e-06
1.52092e-07
2.146e-06
-7.33515e-08
2.09784e-06
-3.00783e-07
2.03828e-06
-5.32371e-07
1.96653e-06
-7.70337e-07
1.88166e-06
-1.01669e-06
1.78265e-06
-1.27336e-06
1.66836e-06
-1.5418e-06
1.53776e-06
-1.82327e-06
1.39019e-06
-2.11826e-06
1.22596e-06
-2.42751e-06
1.04625e-06
-2.75099e-06
8.53078e-07
-3.09057e-06
6.46e-07
-3.45662e-06
4.22262e-07
-3.91325e-06
1.89991e-07
-4.64379e-06
-1.27571e-08
-5.85154e-06
-1.08331e-07
-7.48099e-06
-8.7254e-06
3.19795e-07
3.04309e-07
7.75532e-07
1.93244e-06
1.12448e-06
2.97112e-06
1.39854e-06
3.55997e-06
1.6248e-06
3.86184e-06
1.82018e-06
3.97007e-06
1.98716e-06
3.94647e-06
2.12134e-06
3.80976e-06
2.22557e-06
3.58747e-06
2.30652e-06
3.31215e-06
2.37061e-06
3.01098e-06
2.4226e-06
2.70278e-06
2.46559e-06
2.39908e-06
2.50132e-06
2.10614e-06
2.53055e-06
1.82668e-06
2.55338e-06
1.56121e-06
2.56948e-06
1.30891e-06
2.57824e-06
1.06823e-06
2.57891e-06
8.37194e-07
2.57069e-06
6.13667e-07
2.55273e-06
3.95574e-07
2.52425e-06
1.80575e-07
2.48429e-06
-3.33946e-08
2.43214e-06
-2.48631e-07
2.36679e-06
-4.67021e-07
2.28723e-06
-6.90771e-07
2.19225e-06
-9.21716e-07
2.08057e-06
-1.16167e-06
1.95075e-06
-1.41199e-06
1.8016e-06
-1.67412e-06
1.63226e-06
-1.94892e-06
1.44303e-06
-2.23828e-06