/*--------------------------------*- C++ -*----------------------------------*\
  =========                 |
  \\      /  F ield         | OpenFOAM: The Open Source CFD Toolbox
   \\    /   O peration     | Website:  https://openfoam.org
    \\  /    A nd           | Version:  13
     \\/     M anipulation  |
\*---------------------------------------------------------------------------*/
FoamFile
{
    format      ascii;
    class       volVectorField;
    location    "9";
    object      U;
}
// * * * * * * * * * * * * * * * * * * * * * * * * * * * * * * * * * * * * * //

dimensions      [0 1 -1 0 0 0 0];

internalField   nonuniform List<vector> 
1600
(
(0.00132998 -0.00113358 0)
(0.00673295 -0.0017514 0)
(0.0117769 -0.00142136 0)
(0.0147824 -0.000183793 0)
(0.014975 0.000401284 0)
(0.0143347 0.000170684 0)
(0.0134938 -0.000692055 0)
(0.0133362 -0.0013006 0)
(0.012965 -0.00127936 0)
(0.0116593 -0.000998707 0)
(0.00868014 -0.00103824 0)
(0.001136 -0.000351942 0)
(-0.0100718 0.0020778 0)
(-0.0226358 0.00875927 0)
(-0.0500408 0.0145682 0)
(-0.075474 0.0141638 0)
(-0.0982866 0.0129441 0)
(-0.117855 0.0111293 0)
(-0.134029 0.00934075 0)
(-0.14722 0.00755151 0)
(-0.157289 0.00585509 0)
(-0.164616 0.00420717 0)
(-0.16865 0.00270172 0)
(-0.170204 0.00121088 0)
(-0.168957 -0.00121055 0)
(-0.164007 -0.00281738 0)
(-0.156087 -0.00515273 0)
(-0.144062 -0.00698398 0)
(-0.1286 -0.00929886 0)
(-0.109548 -0.011572 0)
(-0.0870375 -0.0138105 0)
(-0.061848 -0.0152505 0)
(-0.0352256 -0.015539 0)
(-0.00805817 -0.0140468 0)
(0.0139085 -0.0118037 0)
(0.0302062 -0.00451994 0)
(0.0318446 0.00334246 0)
(0.0253524 0.00546564 0)
(0.012248 0.00462963 0)
(0.0025518 0.00315851 0)
(0.00237543 -0.00666373 0)
(0.011416 -0.0097722 0)
(0.0171171 -0.00701788 0)
(0.0203076 -0.00260071 0)
(0.0204346 0.00068841 0)
(0.0181488 0.00182189 0)
(0.0142687 0.00156292 0)
(0.00893471 0.00173983 0)
(0.000581826 0.00329844 0)
(-0.0122008 0.00657371 0)
(-0.0307339 0.0125461 0)
(-0.0587189 0.0217736 0)
(-0.0907159 0.0306537 0)
(-0.118177 0.0364248 0)
(-0.14068 0.0358873 0)
(-0.16011 0.0330793 0)
(-0.176255 0.0289498 0)
(-0.189679 0.0244451 0)
(-0.200362 0.019921 0)
(-0.208593 0.0155094 0)
(-0.214357 0.0112485 0)
(-0.217829 0.00706241 0)
(-0.218975 0.0029104 0)
(-0.217887 -0.00139634 0)
(-0.214237 -0.0060582 0)
(-0.208145 -0.0108919 0)
(-0.199252 -0.0160478 0)
(-0.187367 -0.0214728 0)
(-0.172148 -0.0271553 0)
(-0.15294 -0.0326165 0)
(-0.130732 -0.0378039 0)
(-0.105571 -0.0417125 0)
(-0.078063 -0.0426959 0)
(-0.0495727 -0.0395933 0)
(-0.0220743 -0.0310229 0)
(0.00125031 -0.0147479 0)
(0.0171505 0.00359043 0)
(0.0173656 0.0117175 0)
(0.0104031 0.0143449 0)
(0.0016263 0.0110858 0)
(0.00376266 -0.0153588 0)
(0.0123151 -0.0173513 0)
(0.015556 -0.0112559 0)
(0.0162545 -0.00312757 0)
(0.0139737 0.00272637 0)
(0.00876724 0.0058143 0)
(-0.000338551 0.00809408 0)
(-0.0143868 0.0128378 0)
(-0.0351773 0.0218091 0)
(-0.0630394 0.033796 0)
(-0.0939523 0.0452597 0)
(-0.122203 0.0521931 0)
(-0.146199 0.0551838 0)
(-0.165053 0.0547418 0)
(-0.180615 0.0512486 0)
(-0.193143 0.0462067 0)
(-0.203382 0.0400966 0)
(-0.211592 0.0337349 0)
(-0.218079 0.0273284 0)
(-0.222911 0.0210853 0)
(-0.226324 0.0146748 0)
(-0.228095 0.00863365 0)
(-0.228273 0.00249884 0)
(-0.226729 -0.00367478 0)
(-0.223524 -0.0101501 0)
(-0.218556 -0.0170583 0)
(-0.211708 -0.024687 0)
(-0.202728 -0.0330257 0)
(-0.191502 -0.0421899 0)
(-0.17761 -0.0514999 0)
(-0.160562 -0.06037 0)
(-0.140072 -0.0674025 0)
(-0.116148 -0.0703299 0)
(-0.0900476 -0.0680645 0)
(-0.0619408 -0.0572104 0)
(-0.0334621 -0.0362417 0)
(-0.00646101 -0.00616908 0)
(0.00165214 0.0119358 0)
(0.00189249 0.0188805 0)
(-0.000265736 0.0148316 0)
(0.00428086 -0.0243341 0)
(0.00876805 -0.0219029 0)
(0.00886178 -0.0114374 0)
(0.00559623 -0.000178079 0)
(-0.000748303 0.00857401 0)
(-0.0116034 0.016078 0)
(-0.0284649 0.0248757 0)
(-0.0516019 0.0367049 0)
(-0.0795819 0.0505512 0)
(-0.109296 0.0629637 0)
(-0.135767 0.0709073 0)
(-0.156217 0.0736061 0)
(-0.172314 0.0726678 0)
(-0.184534 0.0686818 0)
(-0.194527 0.0628129 0)
(-0.202293 0.0558364 0)
(-0.208644 0.048236 0)
(-0.213757 0.040262 0)
(-0.218124 0.0321678 0)
(-0.221366 0.0242541 0)
(-0.223483 0.0167493 0)
(-0.224362 0.00916562 0)
(-0.2241 0.00160348 0)
(-0.22268 -0.0061331 0)
(-0.220111 -0.014104 0)
(-0.216266 -0.0225369 0)
(-0.211089 -0.0315773 0)
(-0.204449 -0.0413534 0)
(-0.196196 -0.0519298 0)
(-0.186304 -0.0636002 0)
(-0.174594 -0.0757349 0)
(-0.160782 -0.087425 0)
(-0.144133 -0.0960459 0)
(-0.122464 -0.09739 0)
(-0.096098 -0.0881732 0)
(-0.0654653 -0.0655798 0)
(-0.0293938 -0.0271 0)
(-0.00747159 0.00470641 0)
(-0.00245848 0.0166897 0)
(-0.00034022 0.0142948 0)
(0.00254857 -0.0288241 0)
(0.0029005 -0.0216441 0)
(-0.00160996 -0.00689374 0)
(-0.00914103 0.00738829 0)
(-0.0206386 0.0204911 0)
(-0.0373403 0.0336045 0)
(-0.0598273 0.0483033 0)
(-0.0865268 0.0641465 0)
(-0.114 0.078096 0)
(-0.138261 0.0870713 0)
(-0.156514 0.089978 0)
(-0.170316 0.0887341 0)
(-0.18091 0.0845181 0)
(-0.188852 0.0780655 0)
(-0.195211 0.0703453 0)
(-0.200258 0.0616522 0)
(-0.204553 0.0526301 0)
(-0.207781 0.0436639 0)
(-0.209876 0.0349015 0)
(-0.21096 0.0262377 0)
(-0.211385 0.0177387 0)
(-0.211105 0.00928349 0)
(-0.210242 0.000835303 0)
(-0.208753 -0.00780779 0)
(-0.206493 -0.0167488 0)
(-0.203519 -0.0262299 0)
(-0.199788 -0.0364192 0)
(-0.195278 -0.0474813 0)
(-0.189897 -0.059466 0)
(-0.183513 -0.0722738 0)
(-0.175883 -0.0856011 0)
(-0.166605 -0.0987084 0)
(-0.155477 -0.111063 0)
(-0.141306 -0.119244 0)
(-0.12129 -0.117681 0)
(-0.0931334 -0.100247 0)
(-0.0570499 -0.0639399 0)
(-0.0171098 -0.0132448 0)
(-0.00229334 0.0111843 0)
(0.000688225 0.0132283 0)
(-0.000547109 -0.0294019 0)
(-0.00497279 -0.0162664 0)
(-0.0136084 0.00173359 0)
(-0.0254049 0.0197928 0)
(-0.0414791 0.0375564 0)
(-0.0622781 0.0556278 0)
(-0.0868326 0.0737722 0)
(-0.112174 0.0897276 0)
(-0.134685 0.100514 0)
(-0.15156 0.104409 0)
(-0.163735 0.103191 0)
(-0.173026 0.0988373 0)
(-0.179792 0.0920761 0)
(-0.184818 0.0838084 0)
(-0.188585 0.0746177 0)
(-0.191114 0.0650249 0)
(-0.192739 0.0552858 0)
(-0.193596 0.0455624 0)
(-0.193993 0.0360122 0)
(-0.194078 0.026696 0)
(-0.193675 0.0176215 0)
(-0.192876 0.00865879 0)
(-0.19166 -0.000276654 0)
(-0.189997 -0.00935734 0)
(-0.187867 -0.0187399 0)
(-0.185352 -0.0286352 0)
(-0.182471 -0.0392394 0)
(-0.179271 -0.0507615 0)
(-0.175761 -0.0633692 0)
(-0.171917 -0.0771244 0)
(-0.167604 -0.0918346 0)
(-0.162483 -0.106898 0)
(-0.155867 -0.121044 0)
(-0.146608 -0.132435 0)
(-0.133228 -0.138427 0)
(-0.112614 -0.131694 0)
(-0.0820492 -0.104752 0)
(-0.0381917 -0.0512468 0)
(-0.00486739 -0.0016199 0)
(0.00163979 0.0125279 0)
(-0.00387322 -0.0237688 0)
(-0.0127896 -0.00684564 0)
(-0.0250877 0.0143667 0)
(-0.040584 0.0361375 0)
(-0.059934 0.0579362 0)
(-0.0822669 0.0789457 0)
(-0.105595 0.0974686 0)
(-0.126842 0.110807 0)
(-0.142971 0.116788 0)
(-0.154067 0.116329 0)
(-0.162192 0.112151 0)
(-0.167952 0.105333 0)
(-0.171807 0.0967302 0)
(-0.174356 0.0870985 0)
(-0.175857 0.0768602 0)
(-0.176606 0.0664159 0)
(-0.176886 0.0560086 0)
(-0.176815 0.045811 0)
(-0.176497 0.0358998 0)
(-0.175908 0.0262519 0)
(-0.17503 0.0168242 0)
(-0.173881 0.0075137 0)
(-0.172441 -0.00177361 0)
(-0.1707 -0.0111642 0)
(-0.168669 -0.0208335 0)
(-0.166404 -0.030946 0)
(-0.163963 -0.0416843 0)
(-0.161428 -0.0532389 0)
(-0.158873 -0.0657989 0)
(-0.156354 -0.079516 0)
(-0.15386 -0.094428 0)
(-0.151218 -0.110299 0)
(-0.147891 -0.126383 0)
(-0.142768 -0.140998 0)
(-0.134106 -0.151365 0)
(-0.119862 -0.153425 0)
(-0.0975074 -0.139312 0)
(-0.0633486 -0.0983269 0)
(-0.0145491 -0.0235357 0)
(0.00272151 0.0113937 0)
(-0.00685272 -0.014022 0)
(-0.0192287 0.0067345 0)
(-0.0343817 0.0303566 0)
(-0.0527833 0.0551585 0)
(-0.0734731 0.0792975 0)
(-0.0951198 0.100829 0)
(-0.115478 0.117427 0)
(-0.131585 0.12659 0)
(-0.142328 0.127894 0)
(-0.149702 0.124338 0)
(-0.154831 0.117769 0)
(-0.15802 0.109038 0)
(-0.159852 0.0990442 0)
(-0.160735 0.0883629 0)
(-0.160957 0.0773954 0)
(-0.160802 0.0664718 0)
(-0.160419 0.0557571 0)
(-0.15987 0.0453457 0)
(-0.159175 0.0352403 0)
(-0.15831 0.0253927 0)
(-0.157264 0.0157389 0)
(-0.156012 0.00618776 0)
(-0.154538 -0.00335058 0)
(-0.15283 -0.0129941 0)
(-0.150904 -0.0228806 0)
(-0.148803 -0.0331553 0)
(-0.146598 -0.0439784 0)
(-0.144387 -0.0555239 0)
(-0.142281 -0.0679758 0)
(-0.140385 -0.0815063 0)
(-0.138757 -0.0962259 0)
(-0.137328 -0.112089 0)
(-0.135753 -0.128719 0)
(-0.133163 -0.145162 0)
(-0.128037 -0.159357 0)
(-0.118393 -0.167482 0)
(-0.102202 -0.163402 0)
(-0.0765282 -0.136749 0)
(-0.0332796 -0.067097 0)
(0.000663143 0.000638439 0)
(-0.00859761 -0.000416194 0)
(-0.0239022 0.0234876 0)
(-0.0410031 0.0485942 0)
(-0.060682 0.0749485 0)
(-0.0812027 0.0996677 0)
(-0.100982 0.120021 0)
(-0.117688 0.1333 0)
(-0.128863 0.137597 0)
(-0.136107 0.135425 0)
(-0.140957 0.129453 0)
(-0.14394 0.120955 0)
(-0.14545 0.110804 0)
(-0.146033 0.0998171 0)
(-0.145994 0.0884667 0)
(-0.145611 0.0771104 0)
(-0.145065 0.0659689 0)
(-0.144426 0.0551279 0)
(-0.143724 0.0446149 0)
(-0.142944 0.0343944 0)
(-0.142059 0.0244103 0)
(-0.141037 0.0145935 0)
(-0.13984 0.00485222 0)
(-0.138443 -0.00489626 0)
(-0.136829 -0.0147507 0)
(-0.135009 -0.0248214 0)
(-0.133016 -0.0352219 0)
(-0.130915 -0.0460827 0)
(-0.128804 -0.0575523 0)
(-0.126811 -0.0698058 0)
(-0.125076 -0.0830418 0)
(-0.123716 -0.0974541 0)
(-0.122756 -0.113156 0)
(-0.122009 -0.130041 0)
(-0.120863 -0.147554 0)
(-0.11801 -0.164273 0)
(-0.111602 -0.177126 0)
(-0.0999549 -0.180315 0)
(-0.0807997 -0.165451 0)
(-0.0505503 -0.114723 0)
(-0.00668349 -0.0147971 0)
(-0.00963627 0.0155234 0)
(-0.0265866 0.0418505 0)
(-0.0444943 0.0676545 0)
(-0.0643728 0.0943771 0)
(-0.0838056 0.118495 0)
(-0.101289 0.136429 0)
(-0.113463 0.144853 0)
(-0.121522 0.14536 0)
(-0.126485 0.14049 0)
(-0.129606 0.13256 0)
(-0.131194 0.122566 0)
(-0.13173 0.111402 0)
(-0.131658 0.0997677 0)
(-0.131223 0.0880491 0)
(-0.130645 0.0765216 0)
(-0.130019 0.0653051 0)
(-0.12938 0.0544274 0)
(-0.128727 0.0438707 0)
(-0.128031 0.0335799 0)
(-0.127253 0.0234888 0)
(-0.126351 0.013525 0)
(-0.125287 0.00360559 0)
(-0.124027 -0.00634919 0)
(-0.122556 -0.0164176 0)
(-0.120871 -0.0266885 0)
(-0.118996 -0.0372477 0)
(-0.116979 -0.0481925 0)
(-0.114901 -0.0596354 0)
(-0.112878 -0.0717194 0)
(-0.111056 -0.08463 0)
(-0.109581 -0.0985978 0)
(-0.108556 -0.113866 0)
(-0.107941 -0.130588 0)
(-0.107385 -0.148632 0)
(-0.105863 -0.167188 0)
(-0.101514 -0.183809 0)
(-0.0928525 -0.192813 0)
(-0.0780019 -0.187064 0)
(-0.0549617 -0.150491 0)
(-0.0159807 -0.042123 0)
(-0.0100885 0.0326255 0)
(-0.0275164 0.0609205 0)
(-0.0452125 0.0866355 0)
(-0.0643984 0.112845 0)
(-0.0823275 0.135298 0)
(-0.0964938 0.149265 0)
(-0.105341 0.153506 0)
(-0.111531 0.150964 0)
(-0.114897 0.143905 0)
(-0.116933 0.134395 0)
(-0.1177 0.123271 0)
(-0.117766 0.111413 0)
(-0.117444 0.0993852 0)
(-0.116936 0.0874906 0)
(-0.116393 0.0759121 0)
(-0.11586 0.064694 0)
(-0.115348 0.0538216 0)
(-0.114836 0.0432462 0)
(-0.114286 0.0328995 0)
(-0.113656 0.0227097 0)
(-0.112903 0.0126049 0)
(-0.111992 0.00251141 0)
(-0.110891 -0.00764486 0)
(-0.109586 -0.0179279 0)
(-0.108065 -0.0284087 0)
(-0.106342 -0.0391538 0)
(-0.104445 -0.0502331 0)
(-0.102432 -0.0617278 0)
(-0.100391 -0.0737456 0)
(-0.0984478 -0.0864435 0)
(-0.0967528 -0.100052 0)
(-0.0954442 -0.114878 0)
(-0.0945828 -0.131251 0)
(-0.0940316 -0.149356 0)
(-0.0931195 -0.168961 0)
(-0.0901225 -0.188642 0)
(-0.0834713 -0.202507 0)
(-0.0714616 -0.204193 0)
(-0.0513683 -0.180332 0)
(-0.0193611 -0.0926575 0)
(-0.0098405 0.0496542 0)
(-0.0268403 0.0796519 0)
(-0.0436478 0.104711 0)
(-0.0614797 0.129668 0)
(-0.077578 0.149796 0)
(-0.0882319 0.159229 0)
(-0.0954602 0.160282 0)
(-0.0999957 0.155096 0)
(-0.102401 0.146274 0)
(-0.103775 0.135495 0)
(-0.104137 0.123536 0)
(-0.104053 0.111213 0)
(-0.103722 0.09896 0)
(-0.103313 0.0869974 0)
(-0.102915 0.0754255 0)
(-0.102545 0.0642336 0)
(-0.102198 0.0533749 0)
(-0.101842 0.0427802 0)
(-0.101439 0.0323744 0)
(-0.10095 0.0220842 0)
(-0.10034 0.011841 0)
(-0.0995755 0.00157886 0)
(-0.0986359 -0.0087692 0)
(-0.0975031 -0.0192601 0)
(-0.0961654 -0.0299514 0)
(-0.0946246 -0.040897 0)
(-0.092892 -0.0521472 0)
(-0.0909996 -0.0637569 0)
(-0.0890053 -0.0757996 0)
(-0.0870029 -0.0883952 0)
(-0.0851224 -0.101749 0)
(-0.0835127 -0.116189 0)
(-0.0822929 -0.132161 0)
(-0.0814595 -0.150093 0)
(-0.0806767 -0.170152 0)
(-0.0786217 -0.191729 0)
(-0.0729553 -0.210815 0)
(-0.0635066 -0.217619 0)
(-0.046182 -0.203347 0)
(-0.0163617 -0.126971 0)
(-0.00909292 0.0659943 0)
(-0.0249483 0.0974432 0)
(-0.0403963 0.121492 0)
(-0.0567315 0.144877 0)
(-0.0702101 0.161535 0)
(-0.0783789 0.167285 0)
(-0.0844305 0.165587 0)
(-0.0877951 0.158255 0)
(-0.0896517 0.148005 0)
(-0.0906495 0.13622 0)
(-0.0908733 0.123652 0)
(-0.0908176 0.11102 0)
(-0.0905995 0.098641 0)
(-0.0903565 0.0866615 0)
(-0.0901336 0.0751129 0)
(-0.0899333 0.0639454 0)
(-0.0897389 0.0530885 0)
(-0.0895184 0.0424615 0)
(-0.0892389 0.0319871 0)
(-0.0888697 0.0215943 0)
(-0.0883826 0.0112186 0)
(-0.0877539 0.000799408 0)
(-0.0869684 -0.00972415 0)
(-0.0860101 -0.020406 0)
(-0.0848664 -0.0312967 0)
(-0.0835315 -0.0424432 0)
(-0.0820036 -0.0538846 0)
(-0.0802928 -0.065658 0)
(-0.0784279 -0.0778098 0)
(-0.0764674 -0.0904225 0)
(-0.0745095 -0.103662 0)
(-0.0726901 -0.117839 0)
(-0.0711539 -0.133457 0)
(-0.0699789 -0.151144 0)
(-0.069032 -0.171388 0)
(-0.0674302 -0.194154 0)
(-0.0626935 -0.217562 0)
(-0.055092 -0.229299 0)
(-0.0404055 -0.224207 0)
(-0.014534 -0.160838 0)
(-0.00794385 0.0808556 0)
(-0.0222669 0.11373 0)
(-0.0360296 0.136572 0)
(-0.0505949 0.158034 0)
(-0.061289 0.170939 0)
(-0.0678372 0.173947 0)
(-0.072942 0.169842 0)
(-0.0754844 0.160774 0)
(-0.0770361 0.149365 0)
(-0.0778395 0.136792 0)
(-0.0780751 0.123781 0)
(-0.0781256 0.110938 0)
(-0.0780631 0.0984842 0)
(-0.077992 0.0865023 0)
(-0.07793 0.0749698 0)
(-0.0778721 0.0638094 0)
(-0.0777988 0.0529351 0)
(-0.0776833 0.0422611 0)
(-0.0775005 0.0317114 0)
(-0.0772289 0.0212181 0)
(-0.0768493 0.0107207 0)
(-0.0763458 0.000162261 0)
(-0.0757081 -0.0105147 0)
(-0.0749235 -0.0213633 0)
(-0.0739798 -0.0324323 0)
(-0.0728661 -0.0437663 0)
(-0.0715712 -0.0553998 0)
(-0.0700889 -0.0673596 0)
(-0.068424 -0.0796725 0)
(-0.0666042 -0.0923888 0)
(-0.0646942 -0.105631 0)
(-0.0628053 -0.119669 0)
(-0.0610849 -0.13501 0)
(-0.0596609 -0.152412 0)
(-0.0585165 -0.172652 0)
(-0.0571694 -0.196174 0)
(-0.053662 -0.222048 0)
(-0.0464239 -0.239728 0)
(-0.0351951 -0.240092 0)
(-0.0119481 -0.186479 0)
(-0.00669065 0.0939822 0)
(-0.019054 0.128141 0)
(-0.0309239 0.149648 0)
(-0.0434514 0.168978 0)
(-0.0516665 0.17862 0)
(-0.0573859 0.179482 0)
(-0.0613778 0.173311 0)
(-0.0634033 0.162858 0)
(-0.0647602 0.150518 0)
(-0.0654757 0.137333 0)
(-0.0657855 0.123995 0)
(-0.0659602 0.110997 0)
(-0.0660475 0.0984895 0)
(-0.0661218 0.0864993 0)
(-0.0661863 0.0749648 0)
(-0.0662343 0.0637905 0)
(-0.0662485 0.0528812 0)
(-0.0662101 0.0421504 0)
(-0.0661025 0.0315242 0)
(-0.0659129 0.0209383 0)
(-0.0656302 0.0103349 0)
(-0.065245 -0.000340922 0)
(-0.0647512 -0.0111451 0)
(-0.0641394 -0.0221319 0)
(-0.0633986 -0.0333521 0)
(-0.0625156 -0.0448515 0)
(-0.0614733 -0.0566654 0)
(-0.0602539 -0.0688164 0)
(-0.0588445 -0.081319 0)
(-0.0572481 -0.0941976 0)
(-0.0554998 -0.107532 0)
(-0.0536828 -0.121542 0)
(-0.0519334 -0.136703 0)
(-0.0504046 -0.153838 0)
(-0.0491508 -0.173986 0)
(-0.0479155 -0.197956 0)
(-0.045284 -0.225602 0)
(-0.0388458 -0.249163 0)
(-0.0307047 -0.254712 0)
(-0.0104834 -0.210517 0)
(-0.00514872 0.104697 0)
(-0.0155031 0.140377 0)
(-0.0254585 0.16073 0)
(-0.0358185 0.177823 0)
(-0.042058 0.184901 0)
(-0.0469424 0.183957 0)
(-0.0500192 0.176161 0)
(-0.0517015 0.164626 0)
(-0.0529102 0.151549 0)
(-0.0535901 0.137894 0)
(-0.0539823 0.124307 0)
(-0.0542652 0.111187 0)
(-0.054472 0.0986285 0)
(-0.0546527 0.0866154 0)
(-0.054805 0.0750595 0)
(-0.0549237 0.0638535 0)
(-0.0549971 0.0528979 0)
(-0.0550146 0.0421071 0)
(-0.0549677 0.0314096 0)
(-0.0548508 0.0207439 0)
(-0.0546592 0.010054 0)
(-0.0543888 -0.000714682 0)
(-0.0540366 -0.0116178 0)
(-0.0535968 -0.0227121 0)
(-0.0530599 -0.0340522 0)
(-0.0524127 -0.0456881 0)
(-0.0516354 -0.0576595 0)
(-0.0507032 -0.0699906 0)
(-0.0495906 -0.0826891 0)
(-0.048282 -0.0957603 0)
(-0.0467881 -0.109246 0)
(-0.0451663 -0.12331 0)
(-0.0435379 -0.138374 0)
(-0.0420739 -0.155273 0)
(-0.0408935 -0.175234 0)
(-0.0398335 -0.199385 0)
(-0.037912 -0.228006 0)
(-0.0329823 -0.256273 0)
(-0.025865 -0.266562 0)
(-0.00882837 -0.229392 0)
(-0.00378097 0.113312 0)
(-0.011826 0.150451 0)
(-0.0198966 0.169826 0)
(-0.0280488 0.184745 0)
(-0.032635 0.189901 0)
(-0.0366844 0.187523 0)
(-0.0390081 0.178497 0)
(-0.0404235 0.16614 0)
(-0.0414975 0.152497 0)
(-0.0421567 0.138483 0)
(-0.0426107 0.124701 0)
(-0.0429699 0.111476 0)
(-0.043257 0.0988618 0)
(-0.043504 0.086811 0)
(-0.0437085 0.0752181 0)
(-0.0438688 0.0639692 0)
(-0.0439799 0.0529633 0)
(-0.0440385 0.042116 0)
(-0.0440432 0.031358 0)
(-0.043994 0.0206294 0)
(-0.0438909 0.00987477 0)
(-0.043734 -0.000960894 0)
(-0.0435228 -0.0119341 0)
(-0.0432544 -0.0231043 0)
(-0.0429217 -0.034531 0)
(-0.0425127 -0.0462702 0)
(-0.0420078 -0.0583687 0)
(-0.0413793 -0.0708561 0)
(-0.0405945 -0.0837395 0)
(-0.0396241 -0.0970102 0)
(-0.0384593 -0.110677 0)
(-0.0371338 -0.124848 0)
(-0.0357482 -0.139877 0)
(-0.0344741 -0.156573 0)
(-0.0334738 -0.176298 0)
(-0.0326631 -0.200521 0)
(-0.03135 -0.22998 0)
(-0.0276989 -0.261988 0)
(-0.0225765 -0.277166 0)
(-0.00770827 -0.246982 0)
(-0.00205366 0.119144 0)
(-0.0080831 0.158196 0)
(-0.0142513 0.176849 0)
(-0.0203233 0.189937 0)
(-0.0235211 0.193729 0)
(-0.0267066 0.190282 0)
(-0.0283883 0.180388 0)
(-0.0295545 0.167433 0)
(-0.0304895 0.153366 0)
(-0.0311187 0.139082 0)
(-0.0316018 0.125147 0)
(-0.032001 0.111826 0)
(-0.0323295 0.0991499 0)
(-0.0326071 0.08705 0)
(-0.0328342 0.0754106 0)
(-0.0330132 0.0641149 0)
(-0.0331459 0.0530614 0)
(-0.0332354 0.0421672 0)
(-0.0332858 0.0313639 0)
(-0.0333014 0.020592 0)
(-0.033286 0.00979601 0)
(-0.0332426 -0.00108009 0)
(-0.0331728 -0.0120944 0)
(-0.0330759 -0.023309 0)
(-0.0329474 -0.0347882 0)
(-0.0327779 -0.0465948 0)
(-0.0325498 -0.058784 0)
(-0.0322358 -0.071394 0)
(-0.0318004 -0.0844359 0)
(-0.0312063 -0.0978937 0)
(-0.0304304 -0.111749 0)
(-0.0294871 -0.126058 0)
(-0.0284578 -0.141098 0)
(-0.0275048 -0.157615 0)
(-0.0268102 -0.177035 0)
(-0.0263599 -0.201183 0)
(-0.0257125 -0.231364 0)
(-0.0233135 -0.265631 0)
(-0.0193699 -0.285555 0)
(-0.00653274 -0.261251 0)
(-0.000852564 0.122996 0)
(-0.00440419 0.163735 0)
(-0.00865184 0.181856 0)
(-0.0127382 0.193535 0)
(-0.0147792 0.196518 0)
(-0.017017 0.192281 0)
(-0.0181373 0.181844 0)
(-0.0190474 0.168501 0)
(-0.0198293 0.154142 0)
(-0.0204059 0.139666 0)
(-0.0208828 0.125607 0)
(-0.0212868 0.112199 0)
(-0.0216222 0.0994575 0)
(-0.0219012 0.0873022 0)
(-0.0221271 0.0756134 0)
(-0.0223072 0.0642733 0)
(-0.0224492 0.0531808 0)
(-0.0225615 0.0422536 0)
(-0.0226529 0.0314233 0)
(-0.0227313 0.0206303 0)
(-0.0228031 0.00981766 0)
(-0.0228736 -0.00107185 0)
(-0.022946 -0.0120982 0)
(-0.0230216 -0.0233257 0)
(-0.0230984 -0.0348232 0)
(-0.0231699 -0.04666 0)
(-0.0232215 -0.0589001 0)
(-0.0232291 -0.0715919 0)
(-0.0231582 -0.0847544 0)
(-0.0229681 -0.0983696 0)
(-0.0226261 -0.112399 0)
(-0.02213 -0.126849 0)
(-0.0215415 -0.141924 0)
(-0.0210067 -0.158289 0)
(-0.0207177 -0.177383 0)
(-0.0207336 -0.201332 0)
(-0.020793 -0.231991 0)
(-0.0195265 -0.268386 0)
(-0.0170733 -0.292843 0)
(-0.00567889 -0.274564 0)
(0.00104783 0.123925 0)
(-0.000730346 0.167031 0)
(-0.00308371 0.18492 0)
(-0.005356 0.195695 0)
(-0.00632458 0.198225 0)
(-0.00761154 0.193565 0)
(-0.00820647 0.182893 0)
(-0.00883852 0.169342 0)
(-0.00944689 0.154806 0)
(-0.00994297 0.140203 0)
(-0.0103803 0.12605 0)
(-0.0107588 0.112564 0)
(-0.0110732 0.0997559 0)
(-0.0113299 0.0875437 0)
(-0.0115359 0.0758076 0)
(-0.0117026 0.0644306 0)
(-0.0118433 0.0533119 0)
(-0.0119714 0.0423691 0)
(-0.0120992 0.0315331 0)
(-0.0122376 0.0207427 0)
(-0.0123956 0.00993971 0)
(-0.0125801 -0.000935127 0)
(-0.0127958 -0.0119438 0)
(-0.0130457 -0.0231531 0)
(-0.0133298 -0.0346352 0)
(-0.013644 -0.0464649 0)
(-0.0139778 -0.0587141 0)
(-0.0143127 -0.0714419 0)
(-0.0146173 -0.0846782 0)
(-0.0148521 -0.0984081 0)
(-0.0149798 -0.112579 0)
(-0.0149848 -0.127158 0)
(-0.0149096 -0.142273 0)
(-0.0148807 -0.158498 0)
(-0.0150902 -0.177246 0)
(-0.015665 -0.200888 0)
(-0.0164507 -0.231783 0)
(-0.0161999 -0.269681 0)
(-0.0149555 -0.298404 0)
(-0.00481024 -0.285595 0)
(0.00225886 0.122606 0)
(0.00279489 0.168136 0)
(0.00235876 0.186164 0)
(0.00178728 0.196531 0)
(0.00189696 0.19894 0)
(0.0015752 0.194125 0)
(0.00147878 0.183468 0)
(0.00114293 0.169913 0)
(0.000732153 0.155326 0)
(0.000344894 0.140663 0)
(-2.47506e-05 0.126445 0)
(-0.0003516 0.112892 0)
(-0.000620883 0.100021 0)
(-0.000836323 0.0877554 0)
(-0.00100704 0.0759785 0)
(-0.00114865 0.0645756 0)
(-0.00127886 0.0534465 0)
(-0.0014153 0.0425079 0)
(-0.00157401 0.0316892 0)
(-0.00176864 0.0209272 0)
(-0.00201039 0.0101614 0)
(-0.002308 -0.000669304 0)
(-0.00266784 -0.0116293 0)
(-0.00309415 -0.0227875 0)
(-0.00358825 -0.0342194 0)
(-0.00414834 -0.0460043 0)
(-0.00476854 -0.0582213 0)
(-0.00543468 -0.070939 0)
(-0.00612151 -0.0841966 0)
(-0.00679719 -0.097987 0)
(-0.00742235 -0.112253 0)
(-0.00797062 -0.126927 0)
(-0.0084669 -0.14207 0)
(-0.00901561 -0.158162 0)
(-0.0098014 -0.17656 0)
(-0.0110091 -0.199813 0)
(-0.0125831 -0.230816 0)
(-0.0132796 -0.270117 0)
(-0.0133809 -0.30304 0)
(-0.00414233 -0.295926 0)
(0.00356306 0.119163 0)
(0.00629819 0.167136 0)
(0.00768083 0.185757 0)
(0.00870581 0.196047 0)
(0.00994623 0.198499 0)
(0.0105327 0.194048 0)
(0.0109605 0.183638 0)
(0.0109658 0.170215 0)
(0.0107795 0.15568 0)
(0.0105286 0.141017 0)
(0.0102539 0.126766 0)
(0.010001 0.113162 0)
(0.00979433 0.100236 0)
(0.00963506 0.0879219 0)
(0.00951234 0.0761128 0)
(0.00940696 0.0646972 0)
(0.00929697 0.0535755 0)
(0.00916064 0.0426629 0)
(0.00897838 0.0318863 0)
(0.00873361 0.0211798 0)
(0.00841279 0.0104804 0)
(0.00800503 -0.000275686 0)
(0.00750239 -0.0111548 0)
(0.00689958 -0.0222285 0)
(0.00619341 -0.0335741 0)
(0.00538268 -0.0452745 0)
(0.00447052 -0.0574144 0)
(0.00346732 -0.070071 0)
(0.00238898 -0.0832959 0)
(0.00125974 -0.09709 0)
(0.000116114 -0.111391 0)
(-0.00101205 -0.12611 0)
(-0.00213247 -0.141254 0)
(-0.00332412 -0.157205 0)
(-0.00475613 -0.17524 0)
(-0.00664991 -0.198031 0)
(-0.00905848 -0.228986 0)
(-0.0105796 -0.269336 0)
(-0.0119568 -0.306321 0)
(-0.00344925 -0.304619 0)
(0.00499736 0.11303 0)
(0.00981145 0.164014 0)
(0.0129088 0.183706 0)
(0.0154175 0.194269 0)
(0.0177866 0.197045 0)
(0.0192955 0.193228 0)
(0.020304 0.183361 0)
(0.0206841 0.170212 0)
(0.0207512 0.155842 0)
(0.0206682 0.141244 0)
(0.0205149 0.126994 0)
(0.0203567 0.113353 0)
(0.0202299 0.100381 0)
(0.0201414 0.0880291 0)
(0.0200794 0.0761993 0)
(0.0200219 0.0647857 0)
(0.019943 0.0536898 0)
(0.0198168 0.0428253 0)
(0.0196202 0.0321163 0)
(0.0193335 0.0214938 0)
(0.0189406 0.0108916 0)
(0.0184284 0.000243129 0)
(0.0177869 -0.010521 0)
(0.0170089 -0.0214745 0)
(0.0160893 -0.0326973 0)
(0.015025 -0.0442745 0)
(0.0138168 -0.0562936 0)
(0.0124679 -0.0688363 0)
(0.0109855 -0.0819647 0)
(0.00939115 -0.0956932 0)
(0.00771017 -0.109963 0)
(0.00596892 -0.124671 0)
(0.00417609 -0.139775 0)
(0.00228061 -0.155564 0)
(0.000135871 -0.173224 0)
(-0.0025106 -0.195508 0)
(-0.00583665 -0.226365 0)
(-0.00809452 -0.267666 0)
(-0.010855 -0.308804 0)
(-0.00285587 -0.312772 0)
(0.00640322 0.104651 0)
(0.0132727 0.158853 0)
(0.0180414 0.180095 0)
(0.0219504 0.191254 0)
(0.0255466 0.194491 0)
(0.0277569 0.191611 0)
(0.0294806 0.182663 0)
(0.0303137 0.169892 0)
(0.0306813 0.155777 0)
(0.030807 0.14131 0)
(0.0308075 0.1271 0)
(0.0307713 0.113447 0)
(0.0307464 0.100444 0)
(0.0307453 0.0880638 0)
(0.0307579 0.0762252 0)
(0.0307607 0.0648287 0)
(0.0307245 0.0537778 0)
(0.0306199 0.0429844 0)
(0.0304199 0.0323696 0)
(0.0301014 0.0218606 0)
(0.0296453 0.0113879 0)
(0.0290358 0.000881633 0)
(0.0282607 -0.00973097 0)
(0.0273109 -0.0205258 0)
(0.026179 -0.0315842 0)
(0.0248596 -0.0429941 0)
(0.0233489 -0.0548462 0)
(0.0216448 -0.0672265 0)
(0.0197511 -0.0801998 0)
(0.0176763 -0.0937873 0)
(0.0154322 -0.107943 0)
(0.0130477 -0.122565 0)
(0.0105375 -0.137578 0)
(0.00788494 -0.153179 0)
(0.00496541 -0.170439 0)
(0.00150476 -0.192164 0)
(-0.00281914 -0.22285 0)
(-0.00572266 -0.26505 0)
(-0.0100674 -0.3099 0)
(-0.00198945 -0.319786 0)
(0.00771136 0.0939811 0)
(0.0166227 0.151642 0)
(0.0230347 0.174941 0)
(0.0282713 0.187019 0)
(0.0329166 0.191175 0)
(0.0360846 0.189038 0)
(0.0384765 0.181331 0)
(0.039865 0.169175 0)
(0.04059 0.155433 0)
(0.0409741 0.141172 0)
(0.0411735 0.127051 0)
(0.0412949 0.113417 0)
(0.0413993 0.100401 0)
(0.0415076 0.0880089 0)
(0.0416129 0.0761761 0)
(0.0416916 0.0648135 0)
(0.0417126 0.0538273 0)
(0.0416432 0.0431286 0)
(0.041453 0.0326351 0)
(0.041115 0.0222702 0)
(0.0406067 0.0119604 0)
(0.0399097 0.00163229 0)
(0.0390085 -0.00879024 0)
(0.0378915 -0.0193854 0)
(0.036549 -0.0302363 0)
(0.0349722 -0.041432 0)
(0.0331542 -0.0530639 0)
(0.0310886 -0.0652204 0)
(0.028769 -0.0779732 0)
(0.0261906 -0.0913508 0)
(0.023361 -0.105313 0)
(0.0202998 -0.119762 0)
(0.0170233 -0.13461 0)
(0.0135579 -0.149987 0)
(0.00980226 -0.166836 0)
(0.00545697 -0.187975 0)
(5.5315e-05 -0.218464 0)
(-0.00343309 -0.261629 0)
(-0.00934745 -0.310164 0)
(-0.00126583 -0.326432 0)
(0.00885775 0.0811389 0)
(0.0197517 0.142486 0)
(0.0277779 0.168327 0)
(0.0342893 0.181638 0)
(0.0398795 0.186884 0)
(0.0441492 0.185658 0)
(0.0472048 0.179266 0)
(0.0492775 0.167991 0)
(0.050459 0.154752 0)
(0.0511753 0.14078 0)
(0.0516348 0.126804 0)
(0.0519642 0.113227 0)
(0.0522386 0.100227 0)
(0.0524884 0.0878426 0)
(0.0527122 0.0760339 0)
(0.0528882 0.0647237 0)
(0.052985 0.0538232 0)
(0.0529678 0.0432432 0)
(0.052803 0.0328989 0)
(0.0524602 0.0227095 0)
(0.0519133 0.0125975 0)
(0.0511406 0.00248557 0)
(0.0501233 -0.00770595 0)
(0.0488464 -0.0180575 0)
(0.047297 -0.0286537 0)
(0.0454628 -0.039585 0)
(0.0433319 -0.0509429 0)
(0.040892 -0.0628149 0)
(0.0381288 -0.0752717 0)
(0.0350284 -0.0883501 0)
(0.0315819 -0.102026 0)
(0.0277992 -0.116215 0)
(0.0237079 -0.130822 0)
(0.0193663 -0.145921 0)
(0.0147048 -0.16234 0)
(0.00939697 -0.182879 0)
(0.00287276 -0.213138 0)
(-0.00111473 -0.257266 0)
(-0.00867546 -0.309192 0)
(-0.000325152 -0.332259 0)
(0.00965522 0.066161 0)
(0.0224902 0.13132 0)
(0.0320459 0.160205 0)
(0.0398179 0.175111 0)
(0.0463946 0.181562 0)
(0.0516606 0.181539 0)
(0.0555965 0.176315 0)
(0.058436 0.166197 0)
(0.0602143 0.153631 0)
(0.0613753 0.14005 0)
(0.0621849 0.12629 0)
(0.0627976 0.112822 0)
(0.063303 0.0998768 0)
(0.0637426 0.087531 0)
(0.064123 0.0757713 0)
(0.0644271 0.0645369 0)
(0.0646252 0.0537459 0)
(0.0646819 0.0433108 0)
(0.0645617 0.0331449 0)
(0.0642317 0.0231636 0)
(0.0636617 0.0132857 0)
(0.0628273 0.00342988 0)
(0.0617058 -0.00648738 0)
(0.0602779 -0.016548 0)
(0.0585267 -0.0268383 0)
(0.0564353 -0.0374491 0)
(0.0539859 -0.048471 0)
(0.0511593 -0.0599896 0)
(0.0479321 -0.0720749 0)
(0.0442784 -0.0847667 0)
(0.0401764 -0.0980511 0)
(0.0356317 -0.11187 0)
(0.0306651 -0.126148 0)
(0.0253766 -0.140915 0)
(0.0197147 -0.156871 0)
(0.0133486 -0.176794 0)
(0.00567285 -0.206818 0)
(0.00123639 -0.252082 0)
(-0.00839569 -0.30748 0)
(0.000568233 -0.337876 0)
(0.0098248 0.0495807 0)
(0.024474 0.118357 0)
(0.0355511 0.150633 0)
(0.0446138 0.167454 0)
(0.0522317 0.175198 0)
(0.0584929 0.176446 0)
(0.0634331 0.172476 0)
(0.0671659 0.163643 0)
(0.0697173 0.151931 0)
(0.0714852 0.13887 0)
(0.0727787 0.125418 0)
(0.0737839 0.112128 0)
(0.0746092 0.0992901 0)
(0.0753102 0.087025 0)
(0.075904 0.0753495 0)
(0.0763812 0.0642216 0)
(0.0767165 0.0535695 0)
(0.0768766 0.0433093 0)
(0.0768257 0.0333536 0)
(0.0765297 0.0236151 0)
(0.0759549 0.0140098 0)
(0.0750745 0.00445211 0)
(0.0738617 -0.00514487 0)
(0.0722918 -0.0148638 0)
(0.0703438 -0.0247921 0)
(0.0679944 -0.0350208 0)
(0.0652186 -0.0456375 0)
(0.0619887 -0.0567252 0)
(0.0582713 -0.06835 0)
(0.054029 -0.0805553 0)
(0.0492275 -0.0933415 0)
(0.043866 -0.106679 0)
(0.0379632 -0.120515 0)
(0.0316489 -0.134882 0)
(0.0248927 -0.150343 0)
(0.0173964 -0.169606 0)
(0.00849051 -0.199324 0)
(0.00366022 -0.245799 0)
(-0.00822225 -0.304832 0)
(0.00173311 -0.342873 0)
(0.0084164 0.0318103 0)
(0.025219 0.103408 0)
(0.0378658 0.13937 0)
(0.0483356 0.158583 0)
(0.0571008 0.167823 0)
(0.0644036 0.170301 0)
(0.0704349 0.167613 0)
(0.0752239 0.160136 0)
(0.0787544 0.149449 0)
(0.0813433 0.137067 0)
(0.0833072 0.124045 0)
(0.0848608 0.111028 0)
(0.0861344 0.0983732 0)
(0.087201 0.0862503 0)
(0.0880914 0.0747098 0)
(0.0888076 0.0637317 0)
(0.089332 0.0532575 0)
(0.0896366 0.0432091 0)
(0.0896876 0.0335008 0)
(0.0894521 0.0240437 0)
(0.0888944 0.0147526 0)
(0.0879853 0.00553821 0)
(0.0866943 -0.00368872 0)
(0.084991 -0.0130106 0)
(0.0828491 -0.0225156 0)
(0.0802385 -0.0322932 0)
(0.0771249 -0.0424271 0)
(0.0734703 -0.0529963 0)
(0.0692304 -0.0640627 0)
(0.0643569 -0.0756733 0)
(0.0588041 -0.0878416 0)
(0.0525681 -0.100576 0)
(0.0456632 -0.113855 0)
(0.0382438 -0.127731 0)
(0.030295 -0.14266 0)
(0.021583 -0.161254 0)
(0.0113864 -0.190649 0)
(0.00611006 -0.238349 0)
(-0.00847093 -0.301535 0)
(0.00305176 -0.34753 0)
(0.00432991 0.0162624 0)
(0.0238117 0.0869779 0)
(0.0385311 0.126376 0)
(0.0506168 0.148335 0)
(0.0606664 0.159365 0)
(0.0690816 0.163054 0)
(0.0762764 0.161576 0)
(0.0822988 0.155472 0)
(0.0870435 0.145955 0)
(0.0907119 0.134424 0)
(0.0935876 0.121984 0)
(0.0958981 0.109366 0)
(0.0977954 0.0969981 0)
(0.099372 0.0851031 0)
(0.100677 0.0737692 0)
(0.101725 0.063002 0)
(0.102513 0.0527586 0)
(0.10302 0.0429701 0)
(0.103218 0.0335547 0)
(0.103077 0.0244242 0)
(0.102564 0.0154949 0)
(0.101646 0.00667305 0)
(0.10029 -0.00212939 0)
(0.0984598 -0.0109926 0)
(0.096124 -0.020006 0)
(0.0932446 -0.0292561 0)
(0.0897769 -0.0388198 0)
(0.085671 -0.0487724 0)
(0.0808712 -0.0591708 0)
(0.0753193 -0.0700684 0)
(0.068961 -0.0814932 0)
(0.0617917 -0.0934961 0)
(0.0538197 -0.106093 0)
(0.0452216 -0.119382 0)
(0.03598 -0.133731 0)
(0.0260122 -0.151659 0)