/*--------------------------------*- C++ -*----------------------------------*\
  =========                 |
  \\      /  F ield         | OpenFOAM: The Open Source CFD Toolbox
   \\    /   O peration     | Website:  https://openfoam.org
    \\  /    A nd           | Version:  13
     \\/     M anipulation  |
\*---------------------------------------------------------------------------*/
FoamFile
{
    format      ascii;
    class       volVectorField;
    location    "9";
    object      U;
}
// * * * * * * * * * * * * * * * * * * * * * * * * * * * * * * * * * * * * * //

dimensions      [0 1 -1 0 0 0 0];

internalField   nonuniform List<vector> 
400
(
(0.00267728 -0.00317882 0)
(0.00183301 -0.000515827 0)
(-0.00702221 0.00399515 0)
(-0.0295682 0.0114732 0)
(-0.0627673 0.0144585 0)
(-0.0890679 0.0124666 0)
(-0.11282 0.0106968 0)
(-0.130719 0.00828785 0)
(-0.145015 0.00629934 0)
(-0.154696 0.0040212 0)
(-0.160422 0.00221063 0)
(-0.16261 0.000262591 0)
(-0.161089 -0.00292237 0)
(-0.15418 -0.0050701 0)
(-0.1428 -0.0084175 0)
(-0.125 -0.0113408 0)
(-0.101327 -0.0147722 0)
(-0.0713468 -0.0167248 0)
(-0.0381901 -0.0151979 0)
(-0.00946272 -0.00425217 0)
(-0.002213 -0.00184073 0)
(-0.0134597 0.0123971 0)
(-0.0400841 0.031444 0)
(-0.0688512 0.0406903 0)
(-0.093494 0.0395139 0)
(-0.11372 0.0353474 0)
(-0.130825 0.0297659 0)
(-0.143452 0.0239721 0)
(-0.154271 0.017268 0)
(-0.161305 0.0113975 0)
(-0.165536 0.00556662 0)
(-0.166136 -0.000144036 0)
(-0.16338 -0.00644807 0)
(-0.156999 -0.0133965 0)
(-0.146552 -0.0218326 0)
(-0.131166 -0.0313864 0)
(-0.110595 -0.0423061 0)
(-0.0844597 -0.0520793 0)
(-0.0526299 -0.0547634 0)
(-0.0195427 -0.0361172 0)
(-0.00850675 0.0144144 0)
(-0.0324567 0.0407691 0)
(-0.0590315 0.0571124 0)
(-0.0815126 0.0613801 0)
(-0.0996178 0.0575502 0)
(-0.114389 0.0502281 0)
(-0.126164 0.0412329 0)
(-0.135101 0.0317928 0)
(-0.141223 0.0233411 0)
(-0.144282 0.014823 0)
(-0.14537 0.00644483 0)
(-0.144231 -0.0021042 0)
(-0.141353 -0.0110123 0)
(-0.135537 -0.0207901 0)
(-0.127058 -0.0321071 0)
(-0.115032 -0.045405 0)
(-0.0989965 -0.0610243 0)
(-0.0783838 -0.0780598 0)
(-0.0516425 -0.0904606 0)
(-0.0224525 -0.0789897 0)
(-0.0125535 0.0385156 0)
(-0.0379795 0.0647718 0)
(-0.0609279 0.0774857 0)
(-0.0782322 0.078326 0)
(-0.091552 0.0718439 0)
(-0.101819 0.0619473 0)
(-0.109292 0.0504412 0)
(-0.11457 0.03868 0)
(-0.117755 0.0274098 0)
(-0.119426 0.0165538 0)
(-0.119566 0.00620848 0)
(-0.118155 -0.00415709 0)
(-0.115118 -0.0149867 0)
(-0.110204 -0.0269359 0)
(-0.103386 -0.0406586 0)
(-0.0942684 -0.0568191 0)
(-0.0821457 -0.0757903 0)
(-0.0660678 -0.0970351 0)
(-0.0441189 -0.116116 0)
(-0.0203149 -0.114018 0)
(-0.0126361 0.0612378 0)
(-0.035672 0.0860994 0)
(-0.0541351 0.0946607 0)
(-0.0676559 0.0919549 0)
(-0.0775951 0.0824408 0)
(-0.0847028 0.0698231 0)
(-0.0895569 0.0559865 0)
(-0.0928411 0.0423234 0)
(-0.0947493 0.0294087 0)
(-0.0954824 0.017187 0)
(-0.0950154 0.00545799 0)
(-0.0933651 -0.00625088 0)
(-0.0904854 -0.0184079 0)
(-0.086325 -0.0317248 0)
(-0.0808797 -0.0469964 0)
(-0.0740413 -0.0651435 0)
(-0.0652812 -0.0869461 0)
(-0.0531789 -0.112436 0)
(-0.0357146 -0.137836 0)
(-0.0178861 -0.143385 0)
(-0.010698 0.082165 0)
(-0.0295343 0.104476 0)
(-0.0440034 0.108992 0)
(-0.054519 0.102645 0)
(-0.0618643 0.0901268 0)
(-0.0668965 0.075101 0)
(-0.070258 0.0594859 0)
(-0.0724979 0.0445051 0)
(-0.0737154 0.0304743 0)
(-0.0740056 0.0172031 0)
(-0.0733848 0.00439594 0)
(-0.0718338 -0.00836897 0)
(-0.0693204 -0.0215725 0)
(-0.0658421 -0.0358704 0)
(-0.0614576 -0.0520787 0)
(-0.0562194 -0.0712436 0)
(-0.0499817 -0.0944985 0)
(-0.0413159 -0.1227 0)
(-0.0299047 -0.153961 0)
(-0.0121957 -0.167315 0)
(-0.00874458 0.0994844 0)
(-0.0221984 0.119108 0)
(-0.0332052 0.120244 0)
(-0.0409809 0.110735 0)
(-0.0462869 0.0957558 0)
(-0.0499209 0.07888 0)
(-0.0523798 0.0619769 0)
(-0.0540368 0.0460217 0)
(-0.0549512 0.0311317 0)
(-0.05519 0.0170512 0)
(-0.0547399 0.00341736 0)
(-0.0535445 -0.0102107 0)
(-0.0515542 -0.0243038 0)
(-0.0487764 -0.0394251 0)
(-0.0453129 -0.0563291 0)
(-0.041302 -0.0761317 0)
(-0.0369058 -0.10018 0)
(-0.0306654 -0.13035 0)
(-0.0240275 -0.165584 0)
(-0.00979735 -0.186925 0)
(-0.00582419 0.1122 0)
(-0.0147504 0.129998 0)
(-0.0226615 0.128539 0)
(-0.0279501 0.116655 0)
(-0.0316112 0.0998933 0)
(-0.0341945 0.0817032 0)
(-0.0360271 0.063875 0)
(-0.0373347 0.0472024 0)
(-0.0381431 0.0316933 0)
(-0.0384832 0.0170261 0)
(-0.0383149 0.00276876 0)
(-0.0375683 -0.0115429 0)
(-0.0361849 -0.0263562 0)
(-0.0341757 -0.04214 0)
(-0.0316641 -0.0595184 0)
(-0.0288132 -0.07959 0)
(-0.0260639 -0.103937 0)
(-0.0218709 -0.135298 0)
(-0.0193387 -0.173309 0)
(-0.00623107 -0.20249 0)
(-0.00357665 0.120082 0)
(-0.0078486 0.136796 0)
(-0.0126839 0.133734 0)
(-0.0156936 0.120539 0)
(-0.0179272 0.102703 0)
(-0.019611 0.0837251 0)
(-0.02091 0.0653231 0)
(-0.0219314 0.0481858 0)
(-0.0226638 0.0322716 0)
(-0.0231039 0.0172052 0)
(-0.0232076 0.00250461 0)
(-0.0229166 -0.0123096 0)
(-0.0221842 -0.0276629 0)
(-0.0210171 -0.0439466 0)
(-0.0195587 -0.0616321 0)
(-0.0179195 -0.0817427 0)
(-0.016976 -0.106081 0)
(-0.0143111 -0.13819 0)
(-0.0155268 -0.178148 0)
(-0.00438599 -0.214972 0)
(-0.000183495 0.123281 0)
(-0.00133087 0.14056 0)
(-0.00333064 0.136516 0)
(-0.00415334 0.122648 0)
(-0.00503943 0.104359 0)
(-0.00582867 0.0850378 0)
(-0.00657136 0.066367 0)
(-0.00727189 0.0489904 0)
(-0.00788132 0.0328541 0)
(-0.00837267 0.017561 0)
(-0.00871133 0.00260481 0)
(-0.00886547 -0.0125025 0)
(-0.00881793 -0.0281704 0)
(-0.00857341 -0.0447321 0)
(-0.00829118 -0.0625189 0)
(-0.00791277 -0.0824265 0)
(-0.00906781 -0.106405 0)
(-0.00763246 -0.138793 0)
(-0.0124531 -0.180144 0)
(-0.0018592 -0.224591 0)
(0.00208696 0.121739 0)
(0.00460354 0.140357 0)
(0.00577488 0.136323 0)
(0.00694122 0.122759 0)
(0.00739473 0.10464 0)
(0.00756368 0.0854867 0)
(0.00745298 0.0669064 0)
(0.00714768 0.0495424 0)
(0.00672829 0.0333793 0)
(0.00623666 0.0180451 0)
(0.0056936 0.00304102 0)
(0.00510145 -0.0121209 0)
(0.00443628 -0.0278393 0)
(0.00369385 -0.0444175 0)
(0.00266354 -0.0620692 0)
(0.00166099 -0.0815094 0)
(-0.00175113 -0.105053 0)
(-0.00140286 -0.137143 0)
(-0.0100976 -0.180108 0)
(-8.22443e-05 -0.231834 0)
(0.00412896 0.117017 0)
(0.0104786 0.137305 0)
(0.0141543 0.134258 0)
(0.0175391 0.12173 0)
(0.0195626 0.103996 0)
(0.0208469 0.0852567 0)
(0.0215296 0.0669798 0)
(0.0217445 0.0498238 0)
(0.0216049 0.0338185 0)
(0.0211689 0.0186378 0)
(0.0204447 0.00381181 0)
(0.0194138 -0.0111411 0)
(0.0180034 -0.0266155 0)
(0.0162225 -0.0429072 0)
(0.0138198 -0.0601483 0)
(0.0110959 -0.0788806 0)
(0.00543704 -0.101627 0)
(0.00476906 -0.133111 0)
(-0.00823096 -0.177848 0)
(0.00264552 -0.236638 0)
(0.00640343 0.107572 0)
(0.0159236 0.130429 0)
(0.0225936 0.128737 0)
(0.027855 0.11813 0)
(0.0316909 0.101596 0)
(0.0342551 0.0837725 0)
(0.0359144 0.06621 0)
(0.0368189 0.0495947 0)
(0.0370894 0.0340336 0)
(0.0367946 0.019273 0)
(0.0359281 0.00490195 0)
(0.0344678 -0.00953593 0)
(0.0322754 -0.0244173 0)
(0.0294033 -0.0400611 0)
(0.0254245 -0.0565606 0)
(0.0209324 -0.0744771 0)
(0.0130072 -0.0959623 0)
(0.0108505 -0.12689 0)
(-0.00660092 -0.173735 0)
(0.00568497 -0.239348 0)
(0.00830162 0.0945219 0)
(0.0208149 0.121691 0)
(0.0302094 0.122328 0)
(0.0376095 0.113316 0)
(0.0435193 0.098256 0)
(0.0477332 0.0814953 0)
(0.0506746 0.064815 0)
(0.0525279 0.0489447 0)
(0.0534076 0.0340542 0)
(0.0533924 0.0199608 0)
(0.052457 0.00632671 0)
(0.0505941 -0.00727816 0)
(0.0475725 -0.0211952 0)
(0.0435619 -0.0357832 0)
(0.0378293 -0.0511656 0)
(0.031519 -0.0679287 0)
(0.0210727 -0.0879672 0)
(0.017241 -0.118675 0)
(-0.00457519 -0.167974 0)
(0.0100303 -0.24017 0)
(0.0100879 0.0777651 0)
(0.0250968 0.108092 0)
(0.036943 0.111649 0)
(0.0467315 0.104784 0)
(0.0548911 0.0919448 0)
(0.0611308 0.076962 0)
(0.0657091 0.0617455 0)
(0.0688189 0.0471359 0)
(0.0705532 0.0333866 0)
(0.0710087 0.0203929 0)
(0.0701195 0.00791111 0)
(0.0679262 -0.0044514 0)
(0.0640485 -0.0169464 0)
(0.0589024 -0.0300124 0)
(0.0512681 -0.043811 0)
(0.0431276 -0.0591213 0)
(0.029804 -0.0775795 0)
(0.0242958 -0.108282 0)
(-0.00219966 -0.160568 0)
(0.0151704 -0.239777 0)
(0.0101984 0.0585657 0)
(0.0272563 0.0945023 0)
(0.0412958 0.100991 0)
(0.0537233 0.0957972 0)
(0.0647002 0.0848172 0)
(0.0736006 0.071584 0)
(0.0803616 0.0579418 0)
(0.0851623 0.044782 0)
(0.0880881 0.0324217 0)
(0.0892885 0.0208056 0)
(0.0886194 0.00979622 0)
(0.0862811 -0.000993263 0)
(0.0816174 -0.0116585 0)
(0.0754761 -0.0227717 0)
(0.0659083 -0.0344961 0)
(0.0560982 -0.0480331 0)
(0.0396932 -0.0646597 0)
(0.0327228 -0.0957392 0)
(0.000975957 -0.15113 0)
(0.021945 -0.237145 0)
(0.00878887 0.0391167 0)
(0.0264677 0.0741724 0)
(0.0429343 0.0830944 0)
(0.0583627 0.0804822 0)
(0.072484 0.0722361 0)
(0.0845011 0.0617321 0)
(0.0939192 0.0505657 0)
(0.100814 0.0396702 0)
(0.105222 0.0294778 0)
(0.10745 0.0199594 0)
(0.107169 0.0110793 0)
(0.105008 0.00245384 0)
(0.0998156 -0.00591489 0)
(0.0932018 -0.0145908 0)
(0.0821167 -0.0236199 0)
(0.0713519 -0.0349511 0)
(0.0521367 -0.0491554 0)
(0.0443112 -0.0808609 0)
(0.00621356 -0.139499 0)
(0.03104 -0.229051 0)
(-0.00238042 0.024291 0)
(0.017955 0.0601465 0)
(0.0373959 0.0681856 0)
(0.0569432 0.0664821 0)
(0.0751492 0.0600987 0)
(0.090855 0.0519402 0)
(0.103449 0.0434463 0)
(0.113058 0.0349707 0)
(0.119541 0.0270283 0)
(0.123507 0.0197007 0)
(0.124338 0.0130493 0)
(0.123276 0.00676895 0)
(0.11865 0.000932121 0)
(0.11315 -0.00521648 0)
(0.102149 -0.0114133 0)
(0.0923194 -0.0201429 0)
(0.0716667 -0.0317389 0)
(0.0640418 -0.063525 0)
(0.0192662 -0.122678 0)
(0.0464929 -0.205796 0)
(-0.0152726 0.0295428 0)
(-0.00167037 0.0284194 0)
(0.0256111 0.0338828 0)
(0.0513786 0.0353721 0)
(0.074598 0.0333978 0)
(0.0948397 0.0293891 0)
(0.111616 0.0248163 0)
(0.125116 0.0203887 0)
(0.134994 0.016282 0)
(0.142134 0.0124436 0)
(0.145898 0.00909419 0)
(0.147702 0.00574077 0)
(0.145987 0.00295614 0)
(0.143127 -0.000756155 0)
(0.135236 -0.00385407 0)
(0.128759 -0.0101258 0)
(0.111287 -0.0191262 0)
(0.105336 -0.0467623 0)
(0.0589454 -0.0937462 0)
(0.0779757 -0.156448 0)
(0.0394152 0.0381309 0)
(0.0456391 0.0273789 0)
(0.0699369 0.0246654 0)
(0.100225 0.0249169 0)
(0.126926 0.0240572 0)
(0.151594 0.0221328 0)
(0.173407 0.019612 0)
(0.192695 0.0173605 0)
(0.208443 0.0150434 0)
(0.221893 0.0132188 0)
(0.231993 0.0112608 0)
(0.24036 0.00987098 0)
(0.245637 0.00810435 0)
(0.249512 0.00693912 0)
(0.250304 0.00493541 0)
(0.247893 0.00232828 0)
(0.238811 0.00195797 0)
(0.223331 -0.0101625 0)
(0.173045 -0.0132597 0)
(0.145757 -0.0646918 0)
)
;

boundaryField
{
    movingWall
    {
        type            fixedValue;
        value           uniform (1 0 0);
    }
    fixedWalls
    {
        type            noSlip;
    }
    frontAndBack
    {
        type            empty;
    }
}


// ************************************************************************* //
