/*--------------------------------*- C++ -*----------------------------------*\
  =========                 |
  \\      /  F ield         | OpenFOAM: The Open Source CFD Toolbox
   \\    /   O peration     | Website:  https://openfoam.org
    \\  /    A nd           | Version:  13
     \\/     M anipulation  |
\*---------------------------------------------------------------------------*/
FoamFile
{
    format      ascii;
    class       volScalarField;
    location    "8.7";
    object      nut;
}
// * * * * * * * * * * * * * * * * * * * * * * * * * * * * * * * * * * * * * //

dimensions      [0 2 -1 0 0 0 0];

internalField   nonuniform List<scalar> 
6400
(
9.88846e-10
5.07725e-09
1.23416e-08
1.98747e-08
2.55441e-08
2.87222e-08
2.98766e-08
2.99974e-08
3.01996e-08
3.13427e-08
3.40951e-08
3.94415e-08
4.78536e-08
5.948e-08
7.36923e-08
8.969e-08
1.06645e-07
1.24242e-07
1.41636e-07
1.58447e-07
1.754e-07
1.93968e-07
2.16096e-07
2.42853e-07
2.73018e-07
3.03327e-07
3.33468e-07
3.63397e-07
3.94074e-07
4.26296e-07
4.59607e-07
4.92899e-07
5.25648e-07
5.57974e-07
5.90673e-07
6.23951e-07
6.58475e-07
6.94462e-07
7.32343e-07
7.72223e-07
8.14393e-07
8.59182e-07
9.06834e-07
9.57888e-07
1.0128e-06
1.07347e-06
1.14351e-06
1.23061e-06
1.31723e-06
1.40581e-06
1.49231e-06
1.57632e-06
1.65504e-06
1.72634e-06
1.78756e-06
1.83551e-06
1.85965e-06
1.86921e-06
1.86467e-06
1.82829e-06
1.76449e-06
1.6736e-06
1.55655e-06
1.41844e-06
1.26128e-06
1.09357e-06
9.23365e-07
7.57088e-07
6.00856e-07
4.61975e-07
3.48779e-07
2.53766e-07
1.77009e-07
1.1835e-07
7.61096e-08
4.73086e-08
2.85062e-08
1.63797e-08
7.74527e-09
1.64975e-09
4.77637e-09
3.352e-07
1.20446e-06
2.02947e-06
2.63913e-06
2.99853e-06
3.16514e-06
3.2266e-06
3.26795e-06
3.35208e-06
3.55592e-06
3.94543e-06
4.48789e-06
5.11396e-06
5.75919e-06
6.36113e-06
6.87503e-06
7.25306e-06
7.48358e-06
7.58395e-06
7.63809e-06
7.71103e-06
7.8703e-06
8.13984e-06
8.45532e-06
8.66057e-06
8.86425e-06
9.09846e-06
9.41037e-06
9.8375e-06
1.03828e-05
1.09828e-05
1.16317e-05
1.2301e-05
1.30087e-05
1.37403e-05
1.45047e-05
1.52962e-05
1.61219e-05
1.69764e-05
1.78535e-05
1.87595e-05
1.96944e-05
2.06787e-05
2.16781e-05
2.2658e-05
2.35935e-05
2.44275e-05
2.53017e-05
2.61811e-05
2.70718e-05
2.79526e-05
2.88101e-05
2.9623e-05
3.03693e-05
3.1102e-05
3.15492e-05
3.18458e-05
3.20343e-05
3.2001e-05
3.16293e-05
3.09573e-05
2.99512e-05
2.86091e-05
2.69274e-05
2.49627e-05
2.28111e-05
2.04929e-05
1.80417e-05
1.53779e-05
1.24737e-05
9.67524e-06
7.20698e-06
5.17356e-06
3.59263e-06
2.44703e-06
1.63893e-06
1.06135e-06
4.80676e-07
8.73013e-09
1.04402e-08
8.6481e-07
3.48681e-06
6.05176e-06
8.0169e-06
9.29686e-06
1.00224e-05
1.03973e-05
1.06307e-05
1.09031e-05
1.13459e-05
1.20326e-05
1.29332e-05
1.39454e-05
1.49403e-05
1.58108e-05
1.65082e-05
1.70088e-05
1.73134e-05
1.74383e-05
1.74061e-05
1.73149e-05
1.72431e-05
1.72287e-05
1.73077e-05
1.75718e-05
1.78919e-05
1.82198e-05
1.85754e-05
1.89525e-05
1.94515e-05
2.01503e-05
2.11432e-05
2.21565e-05
2.33029e-05
2.45053e-05
2.57873e-05
2.70867e-05
2.84432e-05
2.98938e-05
3.1293e-05
3.27426e-05
3.41509e-05
3.54913e-05
3.67706e-05
3.80278e-05
3.92482e-05
4.04758e-05
4.1713e-05
4.2948e-05
4.41748e-05
4.53802e-05
4.65484e-05
4.76588e-05
4.86842e-05
4.95891e-05
5.03876e-05
5.09114e-05
5.11487e-05
5.13087e-05
5.11319e-05
5.06354e-05
4.97664e-05
4.84257e-05
4.65229e-05
4.40836e-05
4.1299e-05
3.81528e-05
3.46596e-05
3.08563e-05
2.67969e-05
2.26207e-05
1.85273e-05
1.47186e-05
1.13661e-05
8.52869e-06
6.27395e-06
4.32993e-06
1.80644e-06
2.33792e-08
1.81328e-08
1.41643e-06
5.46137e-06
9.32271e-06
1.23115e-05
1.43693e-05
1.56536e-05
1.63901e-05
1.68394e-05
1.72271e-05
1.77485e-05
1.85225e-05
1.95236e-05
2.06107e-05
2.16236e-05
2.24489e-05
2.30291e-05
2.3363e-05
2.34817e-05
2.34447e-05
2.33192e-05
2.32143e-05
2.31971e-05
2.33063e-05
2.33647e-05
2.33795e-05
2.3371e-05
2.37789e-05
2.45257e-05
2.55203e-05
2.68059e-05
2.80263e-05
2.92386e-05
3.05302e-05
3.18544e-05
3.31513e-05
3.44577e-05
3.58317e-05
3.71223e-05
3.84106e-05
3.9643e-05
4.08604e-05
4.20266e-05
4.31557e-05
4.42376e-05
4.52939e-05
4.63505e-05
4.74081e-05
4.84632e-05
4.95101e-05
5.05419e-05
5.15484e-05
5.25167e-05
5.34299e-05
5.42683e-05
5.50082e-05
5.56242e-05
5.60926e-05
5.63351e-05
5.6394e-05
5.62336e-05
5.57071e-05
5.49393e-05
5.41406e-05
5.28311e-05
5.08876e-05
4.84942e-05
4.56147e-05
4.23201e-05
3.86573e-05
3.46699e-05
3.0424e-05
2.60271e-05
2.16441e-05
1.74792e-05
1.36977e-05
1.04082e-05
7.30937e-06
3.03505e-06
3.89831e-08
2.91063e-08
2.12747e-06
7.58514e-06
1.25517e-05
1.62609e-05
1.87647e-05
2.0305e-05
2.11698e-05
2.16739e-05
2.21369e-05
2.28098e-05
2.37745e-05
2.4926e-05
2.60668e-05
2.70219e-05
2.76942e-05
2.80661e-05
2.81794e-05
2.80912e-05
2.79228e-05
2.76805e-05
2.75123e-05
2.73589e-05
2.67433e-05
2.6694e-05
2.72311e-05
2.81803e-05
2.93189e-05
3.04763e-05
3.17806e-05
3.30588e-05
3.42942e-05
3.55101e-05
3.66934e-05
3.7785e-05
3.8809e-05
3.98407e-05
4.07888e-05
4.1615e-05
4.23913e-05
4.30845e-05
4.37296e-05
4.43367e-05
4.4939e-05
4.5558e-05
4.61909e-05
4.68211e-05
4.74597e-05
4.8108e-05
4.87694e-05
4.94456e-05
5.01366e-05
5.08406e-05
5.15531e-05
5.2267e-05
5.29701e-05
5.36424e-05
5.42548e-05
5.47746e-05
5.51448e-05
5.52876e-05
5.51776e-05
5.46297e-05
5.35231e-05
5.27268e-05
5.15502e-05
4.97271e-05
4.74076e-05
4.46535e-05
4.15152e-05
3.80287e-05
3.42193e-05
3.01217e-05
2.58248e-05
2.15345e-05
1.74194e-05
1.35523e-05
9.54397e-06
3.89425e-06
4.98142e-08
4.47856e-08
3.08452e-06
1.00941e-05
1.60832e-05
2.0301e-05
2.299e-05
2.45408e-05
2.53655e-05
2.58868e-05
2.64792e-05
2.73505e-05
2.84787e-05
2.96787e-05
3.07336e-05
3.14909e-05
3.18919e-05
3.19563e-05
3.18118e-05
3.14048e-05
3.10931e-05
3.05716e-05
2.97047e-05
2.95655e-05
3.02812e-05
3.12502e-05
3.22666e-05
3.34306e-05
3.45938e-05
3.57129e-05
3.67849e-05
3.77212e-05
3.85892e-05
3.93884e-05
4.00744e-05
4.06287e-05
4.11121e-05
4.15032e-05
4.189e-05
4.2169e-05
4.24197e-05
4.26365e-05
4.28435e-05
4.3036e-05
4.32168e-05
4.33945e-05
4.35667e-05
4.37412e-05
4.39253e-05
4.41288e-05
4.4362e-05
4.46364e-05
4.49638e-05
4.53567e-05
4.58227e-05
4.63606e-05
4.6975e-05
4.76661e-05
4.84091e-05
4.917e-05
4.98961e-05
5.05947e-05
5.1007e-05
5.11488e-05
5.09573e-05
5.01374e-05
4.96503e-05
4.84386e-05
4.66762e-05
4.44225e-05
4.1763e-05
3.87708e-05
3.54787e-05
3.18693e-05
2.79138e-05
2.37584e-05
1.95348e-05
1.53877e-05
1.08726e-05
4.31055e-06
5.38605e-08
6.65548e-08
4.33087e-06
1.30175e-05
1.9914e-05
2.44447e-05
2.71253e-05
2.85432e-05
2.92679e-05
2.98156e-05
3.05434e-05
3.15536e-05
3.27191e-05
3.38125e-05
3.46355e-05
3.50859e-05
3.5163e-05
3.47113e-05
3.42707e-05
3.38175e-05
3.26383e-05
3.23114e-05
3.28088e-05
3.36679e-05
3.44543e-05
3.53488e-05
3.62468e-05
3.71519e-05
3.79349e-05
3.8612e-05
3.91975e-05
3.97046e-05
4.01317e-05
4.0456e-05
4.06886e-05
4.08455e-05
4.09515e-05
4.10092e-05
4.10382e-05
4.10062e-05
4.0981e-05
4.09588e-05
4.08734e-05
4.08044e-05
4.07009e-05
4.0603e-05
4.04821e-05
4.03595e-05
4.02267e-05
4.00968e-05
3.99751e-05
3.98777e-05
3.98229e-05
3.98407e-05
3.99749e-05
4.02271e-05
4.06058e-05
4.11788e-05
4.19391e-05
4.28493e-05
4.38492e-05
4.49333e-05
4.59606e-05
4.68625e-05
4.72832e-05
4.73686e-05
4.68607e-05
4.65945e-05
4.53844e-05
4.35317e-05
4.1165e-05
3.84291e-05
3.54415e-05
3.22387e-05
2.87315e-05
2.47987e-05
2.07354e-05
1.63206e-05
1.11766e-05
4.30204e-06
5.2346e-08
9.56919e-08
5.88517e-06
1.62823e-05
2.39357e-05
2.85988e-05
3.114e-05
3.23613e-05
3.29802e-05
3.35522e-05
3.43575e-05
3.53817e-05
3.6425e-05
3.72537e-05
3.77043e-05
3.77322e-05
3.72254e-05
3.67648e-05
3.57245e-05
3.49919e-05
3.49701e-05
3.55256e-05
3.5924e-05
3.65618e-05
3.71749e-05
3.79126e-05
3.85333e-05
3.90817e-05
3.94946e-05
3.98174e-05
4.005e-05
4.02087e-05
4.02984e-05
4.03281e-05
4.0317e-05
4.02782e-05
4.02231e-05
4.01528e-05
4.00717e-05
3.9979e-05
3.98879e-05
3.97409e-05
3.96399e-05
3.95713e-05
3.93556e-05
3.92214e-05
3.90298e-05
3.88428e-05
3.86314e-05
3.84057e-05
3.81601e-05
3.78944e-05
3.7605e-05
3.72893e-05
3.69416e-05
3.6634e-05
3.64648e-05
3.64725e-05
3.6813e-05
3.75202e-05
3.84177e-05
3.96324e-05
4.09617e-05
4.23588e-05
4.36682e-05
4.4409e-05
4.45561e-05
4.44201e-05
4.43003e-05
4.29239e-05
4.08133e-05
3.81566e-05
3.51719e-05
3.20406e-05
2.88141e-05
2.52672e-05
2.12222e-05
1.68364e-05
1.13576e-05
4.1923e-06
4.87011e-08
1.33084e-07
7.72906e-06
1.97958e-05
2.7992e-05
3.26699e-05
3.49989e-05
3.60031e-05
3.65138e-05
3.70701e-05
3.78511e-05
3.87485e-05
3.95317e-05
3.99953e-05
3.98664e-05
3.93939e-05
3.89033e-05
3.76037e-05
3.71228e-05
3.71924e-05
3.72684e-05
3.75463e-05
3.7977e-05
3.8489e-05
3.89451e-05
3.93835e-05
3.96827e-05
3.99026e-05
4.00217e-05
4.00866e-05
4.01006e-05
4.00874e-05
4.00559e-05
4.00199e-05
3.99879e-05
3.9962e-05
3.9942e-05
3.99252e-05
3.99092e-05
3.98875e-05
3.98395e-05
3.98043e-05
3.97798e-05
3.96828e-05
3.95852e-05
3.94798e-05
3.93376e-05
3.91792e-05
3.89894e-05
3.87718e-05
3.85224e-05
3.82383e-05
3.79131e-05
3.75409e-05
3.71173e-05
3.6631e-05
3.60796e-05
3.54632e-05
3.47998e-05
3.43064e-05
3.44689e-05
3.52726e-05
3.64293e-05
3.79693e-05
3.96201e-05
4.12734e-05
4.22673e-05
4.24899e-05
4.26062e-05
4.25948e-05
4.09567e-05
3.84811e-05
3.54153e-05
3.20599e-05
2.867e-05
2.52461e-05
2.14223e-05
1.68759e-05
1.11081e-05
3.90399e-06
4.45417e-08
1.79063e-07
9.78058e-06
2.33847e-05
3.20013e-05
3.66003e-05
3.86763e-05
3.9453e-05
3.98308e-05
4.02975e-05
4.09361e-05
4.15791e-05
4.19997e-05
4.17649e-05
4.12307e-05
4.06579e-05
3.95887e-05
3.90536e-05
3.88368e-05
3.86179e-05
3.8779e-05
3.90306e-05
3.93488e-05
3.96455e-05
3.98624e-05
4.00173e-05
4.00749e-05
4.00935e-05
4.00748e-05
4.00578e-05
4.0047e-05
4.00593e-05
4.00954e-05
4.0157e-05
4.02387e-05
4.03333e-05
4.04323e-05
4.05232e-05
4.06129e-05
4.0666e-05
4.06919e-05
4.07345e-05
4.07104e-05
4.06671e-05
4.05948e-05
4.04957e-05
4.03658e-05
4.02125e-05
4.00338e-05
3.98341e-05
3.96065e-05
3.93488e-05
3.90533e-05
3.87088e-05
3.82965e-05
3.78129e-05
3.72323e-05
3.65374e-05
3.5719e-05
3.48067e-05
3.38542e-05
3.2927e-05
3.29958e-05
3.40689e-05
3.55598e-05
3.74921e-05
3.94167e-05
4.06652e-05
4.0983e-05
4.11913e-05
4.11978e-05
3.92394e-05
3.63337e-05
3.27879e-05
2.89858e-05
2.52323e-05
2.13764e-05
1.68318e-05
1.08339e-05
3.62736e-06
4.11074e-08
2.34489e-07
1.18684e-05
2.69108e-05
3.58761e-05
4.03445e-05
4.21454e-05
4.26762e-05
4.2872e-05
4.3157e-05
4.3539e-05
4.38232e-05
4.34998e-05
4.28739e-05
4.22256e-05
4.13173e-05
4.06794e-05
4.01002e-05
3.98142e-05
3.97058e-05
3.98286e-05
3.99594e-05
4.00972e-05
4.01776e-05
4.01998e-05
4.01885e-05
4.01533e-05
4.01401e-05
4.01549e-05
4.02191e-05
4.03274e-05
4.04801e-05
4.06647e-05
4.08709e-05
4.10849e-05
4.12924e-05
4.15222e-05
4.16718e-05
4.17605e-05
4.19359e-05
4.19936e-05
4.20506e-05
4.2049e-05
4.20224e-05
4.19549e-05
4.18538e-05
4.17168e-05
4.15472e-05
4.13446e-05
4.11107e-05
4.08455e-05
4.05507e-05
4.02269e-05
3.98747e-05
3.94936e-05
3.9081e-05
3.86048e-05
3.80212e-05
3.72775e-05
3.6361e-05
3.526e-05
3.40297e-05
3.28158e-05
3.17397e-05
3.21733e-05
3.37051e-05
3.57176e-05
3.78785e-05
3.93833e-05
3.97919e-05
3.99818e-05
3.98713e-05
3.75394e-05
3.41553e-05
3.009e-05
2.57885e-05
2.15411e-05
1.68072e-05
1.08092e-05
3.55199e-06
3.98622e-08
3.01813e-07
1.37979e-05
3.02823e-05
3.95584e-05
4.38672e-05
4.53751e-05
4.56288e-05
4.55768e-05
4.5585e-05
4.56106e-05
4.51793e-05
4.44424e-05
4.37401e-05
4.29111e-05
4.21634e-05
4.12619e-05
4.07853e-05
4.0527e-05
4.04253e-05
4.04345e-05
4.0419e-05
4.03984e-05
4.03455e-05
4.02934e-05
4.02691e-05
4.02928e-05
4.03873e-05
4.05476e-05
4.07727e-05
4.10446e-05
4.13501e-05
4.16704e-05
4.1991e-05
4.23322e-05
4.26333e-05
4.28269e-05
4.30373e-05
4.32577e-05
4.34116e-05
4.35127e-05
4.35831e-05
4.36045e-05
4.35894e-05
4.35307e-05
4.34327e-05
4.32943e-05
4.31176e-05
4.2903e-05
4.26515e-05
4.23638e-05
4.20405e-05
4.16811e-05
4.12847e-05
4.08497e-05
4.03743e-05
3.98573e-05
3.92977e-05
3.86903e-05
3.7958e-05
3.70127e-05
3.58078e-05
3.44019e-05
3.2902e-05
3.15467e-05
3.08497e-05
3.22239e-05
3.41751e-05
3.65848e-05
3.82679e-05
3.87312e-05
3.88305e-05
3.84258e-05
3.56545e-05
3.17508e-05
2.71536e-05
2.22855e-05
1.71908e-05
1.10375e-05
3.69154e-06
4.12292e-08
3.76512e-07
1.57077e-05
3.34876e-05
4.3015e-05
4.71393e-05
4.83338e-05
4.82682e-05
4.78957e-05
4.7538e-05
4.69279e-05
4.60429e-05
4.53005e-05
4.44364e-05
4.35556e-05
4.24355e-05
4.16731e-05
4.124e-05
4.09667e-05
4.08068e-05
4.06966e-05
4.05791e-05
4.04882e-05
4.04257e-05
4.04312e-05
4.05197e-05
4.06987e-05
4.09645e-05
4.12984e-05
4.16834e-05
4.20964e-05
4.25205e-05
4.29495e-05
4.33739e-05
4.37546e-05
4.40626e-05
4.43455e-05
4.46017e-05
4.48564e-05
4.50394e-05
4.51748e-05
4.52679e-05
4.53139e-05
4.53154e-05
4.52704e-05
4.51802e-05
4.50447e-05
4.4865e-05
4.46418e-05
4.43765e-05
4.40701e-05
4.37237e-05
4.33375e-05
4.29106e-05
4.24407e-05
4.19239e-05
4.13551e-05
4.07291e-05
4.00439e-05
3.93027e-05
3.85053e-05
3.75347e-05
3.62805e-05
3.47489e-05
3.30429e-05
3.13688e-05
3.00843e-05
3.09259e-05
3.28902e-05
3.54495e-05
3.72198e-05
3.76655e-05
3.76195e-05
3.66976e-05
3.33956e-05
2.89856e-05
2.3782e-05
1.82019e-05
1.18155e-05
4.14328e-06
4.71023e-08
4.5645e-07
1.75607e-05
3.64838e-05
4.62132e-05
5.01352e-05
5.09947e-05
5.05631e-05
4.97981e-05
4.88911e-05
4.7788e-05
4.6996e-05
4.59364e-05
4.49253e-05
4.36292e-05
4.25991e-05
4.19185e-05
4.14823e-05
4.11683e-05
4.09445e-05
4.07682e-05
4.06365e-05
4.05854e-05
4.06255e-05
4.07804e-05
4.1044e-05
4.14044e-05
4.18398e-05
4.23248e-05
4.28378e-05
4.33584e-05
4.38723e-05
4.4368e-05
4.48351e-05
4.52649e-05
4.56433e-05
4.59893e-05
4.62895e-05
4.65388e-05
4.679e-05
4.69642e-05
4.7087e-05
4.71618e-05
4.71849e-05
4.71563e-05
4.70755e-05
4.69423e-05
4.67574e-05
4.65216e-05
4.62367e-05
4.59047e-05
4.55281e-05
4.5109e-05
4.4649e-05
4.41479e-05
4.36029e-05
4.30078e-05
4.2353e-05
4.16266e-05
4.08186e-05
3.99286e-05
3.89727e-05
3.79178e-05
3.66032e-05
3.49478e-05
3.30869e-05
3.11978e-05
2.96874e-05
2.98532e-05
3.17986e-05
3.44375e-05
3.61656e-05
3.64694e-05
3.62892e-05
3.44777e-05
3.07234e-05
2.56555e-05
1.9784e-05
1.30647e-05
4.99833e-06
6.13395e-08
5.39012e-07
1.93145e-05
3.9231e-05
4.91279e-05
5.28375e-05
5.33469e-05
5.25135e-05
5.12538e-05
4.98548e-05
4.89464e-05
4.7519e-05
4.6369e-05
4.4891e-05
4.36123e-05
4.26597e-05
4.20132e-05
4.15547e-05
4.12107e-05
4.09666e-05
4.0808e-05
4.07559e-05
4.08338e-05
4.10427e-05
4.13809e-05
4.18237e-05
4.23465e-05
4.2921e-05
4.35226e-05
4.41319e-05
4.47331e-05
4.53152e-05
4.58696e-05
4.63901e-05
4.68724e-05
4.73147e-05
4.77338e-05
4.8095e-05
4.83741e-05
4.86222e-05
4.88893e-05
4.90411e-05
4.91496e-05
4.91984e-05
4.91883e-05
4.91181e-05
4.89867e-05
4.87943e-05
4.85416e-05
4.82302e-05
4.78628e-05
4.74431e-05
4.69755e-05
4.64646e-05
4.59145e-05
4.53271e-05
4.47008e-05
4.40283e-05
4.32953e-05
4.24807e-05
4.15607e-05
4.05192e-05
3.9366e-05
3.80923e-05
3.66619e-05
3.49579e-05
3.29698e-05
3.09572e-05
2.9199e-05
2.89507e-05
3.08308e-05
3.35465e-05
3.50375e-05
3.50723e-05
3.47231e-05
3.19248e-05
2.73634e-05
2.15581e-05
1.46128e-05
5.99814e-06
8.42683e-08
6.21816e-07
2.09311e-05
4.17042e-05
5.17495e-05
5.52373e-05
5.53996e-05
5.40699e-05
5.24373e-05
5.11862e-05
4.93736e-05
4.79728e-05
4.62963e-05
4.47624e-05
4.35274e-05
4.26285e-05
4.19926e-05
4.15254e-05
4.11938e-05
4.0997e-05
4.09374e-05
4.10335e-05
4.12867e-05
4.1681e-05
4.21934e-05
4.27907e-05
4.34444e-05
4.41279e-05
4.48212e-05
4.55093e-05
4.61809e-05
4.68285e-05
4.74465e-05
4.8031e-05
4.8579e-05
4.90884e-05
4.95567e-05
4.99938e-05
5.03591e-05
5.0617e-05
5.09021e-05
5.11371e-05
5.12684e-05
5.13491e-05
5.13586e-05
5.13011e-05
5.11731e-05
5.09745e-05
5.07051e-05
5.0366e-05
4.99595e-05
4.94894e-05
4.89611e-05
4.83814e-05
4.77584e-05
4.70996e-05
4.64111e-05
4.56943e-05
4.49432e-05
4.41407e-05
4.32572e-05
4.22521e-05
4.10857e-05
3.97695e-05
3.82739e-05
3.65064e-05
3.47174e-05
3.26976e-05
3.05852e-05
2.86215e-05
2.81682e-05
2.99862e-05
3.26271e-05
3.39679e-05
3.34216e-05
3.23736e-05
2.85592e-05
2.31286e-05
1.62065e-05
7.03272e-06
1.13853e-07
7.0306e-07
2.23635e-05
4.3902e-05
5.41155e-05
5.73043e-05
5.69422e-05
5.53668e-05
5.3667e-05
5.15858e-05
4.98261e-05
4.79258e-05
4.61174e-05
4.45779e-05
4.33912e-05
4.25296e-05
4.19094e-05
4.1472e-05
4.12093e-05
4.11245e-05
4.12197e-05
4.14952e-05
4.19304e-05
4.24949e-05
4.31556e-05
4.38786e-05
4.46379e-05
4.5412e-05
4.61858e-05
4.69485e-05
4.76922e-05
4.84115e-05
4.91016e-05
4.97588e-05
5.03791e-05
5.09584e-05
5.1492e-05
5.19896e-05
5.24385e-05
5.27267e-05
5.30196e-05
5.33381e-05
5.34931e-05
5.36048e-05
5.36353e-05
5.35924e-05
5.34713e-05
5.3271e-05
5.29904e-05
5.26295e-05
5.21892e-05
5.16723e-05
5.10835e-05
5.04298e-05
4.97207e-05
4.89676e-05
4.81828e-05
4.73774e-05
4.65578e-05
4.5721e-05
4.48492e-05
4.3905e-05
4.28302e-05
4.15553e-05
4.01198e-05
3.84268e-05
3.62284e-05
3.42748e-05
3.22723e-05
3.00375e-05
2.78915e-05
2.75305e-05
2.92523e-05
3.14501e-05
3.23267e-05
3.15892e-05
2.9123e-05
2.4293e-05
1.7634e-05
7.96911e-06
1.48248e-07
7.81193e-07
2.36449e-05
4.58224e-05
5.60563e-05
5.88716e-05
5.83695e-05
5.67996e-05
5.45259e-05
5.20248e-05
4.98646e-05
4.77559e-05
4.58793e-05
4.43621e-05
4.32224e-05
4.23986e-05
4.18217e-05
4.14624e-05
4.13204e-05
4.13915e-05
4.1665e-05
4.21201e-05
4.2721e-05
4.34307e-05
4.42142e-05
4.50421e-05
4.5893e-05
4.67505e-05
4.76038e-05
4.84446e-05
4.92668e-05
5.00649e-05
5.08337e-05
5.15682e-05
5.22628e-05
5.29122e-05
5.3511e-05
5.40578e-05
5.45676e-05
5.4919e-05
5.52172e-05
5.55845e-05
5.57759e-05
5.59111e-05
5.59623e-05
5.59345e-05
5.58233e-05
5.56271e-05
5.53438e-05
5.49719e-05
5.45107e-05
5.3961e-05
5.33252e-05
5.26085e-05
5.18192e-05
5.09692e-05
5.00738e-05
4.91506e-05
4.82168e-05
4.72854e-05
4.63583e-05
4.54188e-05
4.44231e-05
4.32946e-05
4.19275e-05
4.03899e-05
3.8343e-05
3.5871e-05
3.3704e-05
3.16753e-05
2.92535e-05
2.69198e-05
2.69827e-05
2.88179e-05
3.02487e-05
3.03038e-05
2.91773e-05
2.50213e-05
1.87507e-05
8.73024e-06
1.8582e-07
8.53184e-07
2.47368e-05
4.73673e-05
5.75576e-05
6.01403e-05
5.98126e-05
5.76631e-05
5.48532e-05
5.22988e-05
4.97654e-05
4.75136e-05
4.56132e-05
4.41336e-05
4.30442e-05
4.22752e-05
4.17793e-05
4.15418e-05
4.15551e-05
4.18005e-05
4.22506e-05
4.28688e-05
4.36127e-05
4.44449e-05
4.53338e-05
4.62555e-05
4.71931e-05
4.81346e-05
4.90712e-05
4.99958e-05
5.09017e-05
5.17826e-05
5.26316e-05
5.34418e-05
5.42065e-05
5.49191e-05
5.55739e-05
5.61654e-05
5.67231e-05
5.71363e-05
5.74366e-05
5.78213e-05
5.80529e-05
5.82025e-05
5.82708e-05
5.82562e-05
5.81563e-05
5.79688e-05
5.7691e-05
5.73202e-05
5.68541e-05
5.62909e-05
5.56302e-05
5.48739e-05
5.40268e-05
5.30983e-05
5.21023e-05
5.10581e-05
4.99891e-05
4.89197e-05
4.78703e-05
4.68494e-05
4.58427e-05
4.4802e-05
4.36338e-05
4.21963e-05
4.04584e-05
3.79938e-05
3.53407e-05
3.30144e-05
3.08806e-05
2.81125e-05
2.57768e-05
2.63054e-05
2.82577e-05
2.93011e-05
2.81603e-05
2.52632e-05
1.95115e-05
9.30971e-06
2.25392e-07
9.16476e-07
2.56126e-05
4.85347e-05
5.8695e-05
6.13868e-05
6.08678e-05
5.84049e-05
5.52905e-05
5.23053e-05
4.95746e-05
4.7234e-05
4.53404e-05
4.39095e-05
4.28816e-05
4.2194e-05
4.18151e-05
4.17289e-05
4.19123e-05
4.23302e-05
4.29419e-05
4.37025e-05
4.45696e-05
4.55089e-05
4.64938e-05
4.75055e-05
4.85308e-05
4.95597e-05
5.0584e-05
5.15958e-05
5.2587e-05
5.35492e-05
5.44739e-05
5.53528e-05
5.61781e-05
5.6943e-05
5.76414e-05
5.82688e-05
5.88566e-05
5.93225e-05
5.96138e-05
5.99971e-05
6.02605e-05
6.04157e-05
6.0494e-05
6.04884e-05
6.03982e-05
6.02213e-05
5.99549e-05
5.95954e-05
5.91392e-05
5.85822e-05
5.79211e-05
5.71537e-05
5.62806e-05
5.53059e-05
5.42394e-05
5.30972e-05
5.19028e-05
5.0686e-05
4.94793e-05
4.83113e-05
4.71968e-05
4.61231e-05
4.50349e-05
4.38195e-05
4.22975e-05
4.02335e-05
3.74399e-05
3.46298e-05
3.2218e-05
2.98654e-05
2.68287e-05
2.49097e-05
2.56694e-05
2.68967e-05
2.70489e-05
2.519e-05
1.99203e-05
9.67948e-06
2.66692e-07
9.69663e-07
2.62779e-05
4.93728e-05
5.95884e-05
6.23209e-05
6.16234e-05
5.87287e-05
5.54485e-05
5.22089e-05
4.93291e-05
4.69413e-05
4.50762e-05
4.37057e-05
4.27571e-05
4.21785e-05
4.19427e-05
4.20213e-05
4.23733e-05
4.29511e-05
4.37058e-05
4.45909e-05
4.55672e-05
4.6605e-05
4.76826e-05
4.87849e-05
4.99005e-05
5.10198e-05
5.21334e-05
5.32318e-05
5.43047e-05
5.53418e-05
5.63332e-05
5.72695e-05
5.81428e-05
5.89464e-05
5.96754e-05
6.03261e-05
6.09189e-05
6.14169e-05
6.17114e-05
6.20629e-05
6.23471e-05
6.24986e-05
6.25777e-05
6.25745e-05
6.24899e-05
6.23223e-05
6.20694e-05
6.17274e-05
6.12919e-05
6.07573e-05
6.01176e-05
5.9367e-05
5.8501e-05
5.75181e-05
5.64214e-05
5.52206e-05
5.39345e-05
5.25916e-05
5.12291e-05
4.9889e-05
4.86093e-05
4.74108e-05
4.62804e-05
4.51504e-05
4.38765e-05
4.21822e-05
3.96024e-05
3.66489e-05
3.37609e-05
3.12584e-05
2.85007e-05
2.5153e-05
2.42321e-05
2.53062e-05
2.60332e-05
2.45451e-05
1.99771e-05
9.84532e-06
3.09443e-07
1.01198e-06
2.67347e-05
4.99381e-05
6.01994e-05
6.30313e-05
6.21939e-05
5.91525e-05
5.55026e-05
5.20438e-05
4.90557e-05
4.66524e-05
4.48326e-05
4.35357e-05
4.26863e-05
4.22391e-05
4.216e-05
4.24033e-05
4.29136e-05
4.3635e-05
4.45162e-05
4.55127e-05
4.65898e-05
4.77224e-05
4.88926e-05
5.0087e-05
5.12946e-05
5.25045e-05
5.37053e-05
5.48853e-05
5.6032e-05
5.71336e-05
5.81793e-05
5.91594e-05
6.00662e-05
6.08939e-05
6.16383e-05
6.22972e-05
6.28706e-05
6.33849e-05
6.36909e-05
6.39854e-05
6.42783e-05
6.44164e-05
6.44862e-05
6.44771e-05
6.43915e-05
6.42288e-05
6.39877e-05
6.36649e-05
6.32558e-05
6.27541e-05
6.21518e-05
6.14404e-05
6.06109e-05
5.96559e-05
5.85711e-05
5.7358e-05
5.60269e-05
5.45996e-05
5.31105e-05
5.16062e-05
5.01395e-05
4.87585e-05
4.749e-05
4.632e-05
4.51735e-05
4.38947e-05
4.17452e-05
3.86958e-05
3.56931e-05
3.26967e-05
3.00451e-05
2.66358e-05
2.35506e-05
2.33607e-05
2.37663e-05
2.35086e-05
1.98578e-05
9.98296e-06
3.56143e-07
1.04331e-06
2.70015e-05
5.02596e-05
6.05552e-05
6.35641e-05
6.24639e-05
5.9313e-05
5.54622e-05
5.18346e-05
4.87734e-05
4.63788e-05
4.46184e-05
4.34093e-05
4.26768e-05
4.23748e-05
4.2455e-05
4.28548e-05
4.35092e-05
4.43592e-05
4.53542e-05
4.64536e-05
4.76271e-05
4.88533e-05
5.01164e-05
5.14035e-05
5.27021e-05
5.39994e-05
5.52815e-05
5.65344e-05
5.77441e-05
5.88977e-05
5.9984e-05
6.09935e-05
6.19192e-05
6.27559e-05
6.35004e-05
6.41508e-05
6.47062e-05
6.52104e-05
6.55266e-05
6.57493e-05
6.60367e-05
6.61523e-05
6.62024e-05
6.61783e-05
6.60835e-05
6.59191e-05
6.56847e-05
6.53785e-05
6.49962e-05
6.45315e-05
6.39758e-05
6.33185e-05
6.25473e-05
6.16496e-05
6.06143e-05
5.94341e-05
5.81087e-05
5.66495e-05
5.50822e-05
5.34496e-05
5.18096e-05
5.0227e-05
4.87578e-05
4.74266e-05
4.61999e-05
4.49607e-05
4.34831e-05
4.08604e-05
3.76544e-05
3.45513e-05
3.13121e-05
2.83317e-05
2.44045e-05
2.25557e-05
2.26695e-05
2.27607e-05
1.97348e-05
1.03261e-05
4.15778e-07
1.06419e-06
2.71028e-05
5.03261e-05
6.06223e-05
6.37493e-05
6.2771e-05
5.93813e-05
5.53566e-05
5.1601e-05
4.84957e-05
4.61285e-05
4.44397e-05
4.33317e-05
4.27289e-05
4.25773e-05
4.28114e-05
4.33558e-05
4.41405e-05
4.51067e-05
4.62064e-05
4.74032e-05
4.86707e-05
4.99899e-05
5.13454e-05
5.27233e-05
5.41091e-05
5.54874e-05
5.6842e-05
5.81571e-05
5.94176e-05
6.06102e-05
6.17239e-05
6.27499e-05
6.36819e-05
6.45159e-05
6.52497e-05
6.58831e-05
6.64174e-05
6.68818e-05
6.71938e-05
6.73624e-05
6.76208e-05
6.77057e-05
6.77266e-05
6.76783e-05
6.75654e-05
6.73907e-05
6.71555e-05
6.68595e-05
6.64997e-05
6.60705e-05
6.55635e-05
6.49672e-05
6.42674e-05
6.34475e-05
6.24907e-05
6.13813e-05
6.01087e-05
5.86714e-05
5.70826e-05
5.53747e-05
5.36016e-05
5.18363e-05
5.01595e-05
4.86383e-05
4.72989e-05
4.60973e-05
4.48931e-05
4.27803e-05
3.95963e-05
3.64726e-05
3.31538e-05
2.96299e-05
2.5979e-05
2.21926e-05
2.1362e-05
2.12197e-05
1.9443e-05
1.09542e-05
4.96349e-07
1.07468e-06
2.7034e-05
5.01316e-05
6.05607e-05
6.39027e-05
6.28336e-05
5.93559e-05
5.52051e-05
5.13579e-05
4.8232e-05
4.59067e-05
4.43001e-05
4.33036e-05
4.28374e-05
4.28342e-05
4.32128e-05
4.38892e-05
4.47921e-05
4.58648e-05
4.70628e-05
4.83534e-05
4.97129e-05
5.11234e-05
5.25688e-05
5.40333e-05
5.54998e-05
5.69504e-05
5.83673e-05
5.97332e-05
6.10326e-05
6.22525e-05
6.33823e-05
6.44142e-05
6.53428e-05
6.61654e-05
6.68809e-05
6.74904e-05
6.79969e-05
6.84049e-05
6.86913e-05
6.88363e-05
6.90391e-05
6.90888e-05
6.9072e-05
6.89907e-05
6.88507e-05
6.86565e-05
6.84114e-05
6.81168e-05
6.77715e-05
6.73715e-05
6.69093e-05
6.63736e-05
6.57495e-05
6.50182e-05
6.41584e-05
6.31479e-05
6.19663e-05
6.05995e-05
5.90455e-05
5.73213e-05
5.54686e-05
5.3556e-05
5.16732e-05
4.9913e-05
4.83423e-05
4.69662e-05
4.56963e-05
4.43267e-05
4.15522e-05
3.81775e-05
3.48983e-05
3.1326e-05
2.75835e-05
2.30667e-05
2.0872e-05
1.97393e-05
1.8935e-05
1.16412e-05
5.97808e-07
1.07411e-06
2.68638e-05
4.98786e-05
6.03523e-05
6.39246e-05
6.27925e-05
5.92586e-05
5.50238e-05
5.11163e-05
4.7989e-05
4.57166e-05
4.42004e-05
4.33221e-05
4.29939e-05
4.31327e-05
4.36446e-05
4.44412e-05
4.54523e-05
4.66239e-05
4.79151e-05
4.92962e-05
5.07453e-05
5.2244e-05
5.37747e-05
5.53193e-05
5.68581e-05
5.83715e-05
5.984e-05
6.12459e-05
6.25738e-05
6.38112e-05
6.49483e-05
6.59783e-05
6.68968e-05
6.77017e-05
6.83928e-05
6.89714e-05
6.94399e-05
6.98011e-05
7.00549e-05
7.01926e-05
7.03047e-05
7.0322e-05
7.02604e-05
7.01385e-05
6.99629e-05
6.97401e-05
6.94752e-05
6.91718e-05
6.88308e-05
6.84501e-05
6.8024e-05
6.75425e-05
6.69909e-05
6.635e-05
6.55957e-05
6.4701e-05
6.36376e-05
6.23799e-05
6.0911e-05
5.923e-05
5.73613e-05
5.53611e-05
5.33191e-05
5.13473e-05
4.95542e-05
4.80051e-05
4.66818e-05
4.54573e-05
4.33354e-05
3.99331e-05
3.67595e-05
3.28787e-05
2.88397e-05
2.45408e-05
2.07212e-05
1.92178e-05
1.85175e-05
1.22618e-05
7.15986e-07
1.0685e-06
2.65957e-05
4.94601e-05
5.99529e-05
6.37248e-05
6.26456e-05
5.91039e-05
5.48248e-05
5.08845e-05
4.77708e-05
4.55594e-05
4.41393e-05
4.33823e-05
4.31888e-05
4.34607e-05
4.40946e-05
4.5001e-05
4.61117e-05
4.73759e-05
4.87558e-05
5.0224e-05
5.17587e-05
5.33407e-05
5.49504e-05
5.65671e-05
5.81692e-05
5.97354e-05
6.12457e-05
6.26823e-05
6.40304e-05
6.5278e-05
6.64165e-05
6.74397e-05
6.83442e-05
6.91284e-05
6.97928e-05
7.03391e-05
7.07707e-05
7.1092e-05
7.13039e-05
7.14126e-05
7.14582e-05
7.143e-05
7.13182e-05
7.11493e-05
7.09307e-05
7.06705e-05
7.03762e-05
7.00532e-05
6.9705e-05
6.93318e-05
6.89301e-05
6.84919e-05
6.80041e-05
6.74479e-05
6.67985e-05
6.60259e-05
6.50963e-05
6.39745e-05
6.26299e-05
6.10436e-05
5.92187e-05
5.71914e-05
5.50381e-05
5.28734e-05
5.08298e-05
4.9018e-05
4.74741e-05
4.6113e-05
4.47046e-05
4.17491e-05
3.82748e-05
3.47487e-05
3.0547e-05
2.60095e-05
2.0886e-05
1.86959e-05
1.753e-05
1.2907e-05
8.38973e-07
1.05601e-06
2.62719e-05
4.87825e-05
5.94224e-05
6.3394e-05
6.24092e-05
5.89042e-05
5.46174e-05
5.06682e-05
4.75802e-05
4.54353e-05
4.4114e-05
4.34775e-05
4.34127e-05
4.38076e-05
4.4553e-05
4.55598e-05
4.67627e-05
4.81137e-05
4.95776e-05
5.11282e-05
5.27435e-05
5.44025e-05
5.60835e-05
5.77636e-05
5.94198e-05
6.10298e-05
6.25734e-05
6.40333e-05
6.53953e-05
6.66486e-05
6.7785e-05
6.87995e-05
6.9689e-05
7.04527e-05
7.10913e-05
7.16072e-05
7.20045e-05
7.22893e-05
7.24535e-05
7.25127e-05
7.25202e-05
7.24377e-05
7.22719e-05
7.20509e-05
7.17831e-05
7.14782e-05
7.11454e-05
7.07927e-05
7.04257e-05
7.00473e-05
6.96567e-05
6.92485e-05
6.88116e-05
6.8329e-05
6.77768e-05
6.71238e-05
6.63328e-05
6.53618e-05
6.41689e-05
6.27186e-05
6.09925e-05
5.90028e-05
5.68053e-05
5.45062e-05
5.22527e-05
5.01998e-05
4.84545e-05
4.70158e-05
4.57349e-05
4.32935e-05
3.97288e-05
3.66328e-05
3.19155e-05
2.72574e-05
2.21292e-05
1.85196e-05
1.63777e-05
1.34071e-05
9.38855e-07
1.03655e-06
2.58556e-05
4.80332e-05
5.88028e-05
6.2942e-05
6.20958e-05
5.86692e-05
5.44087e-05
5.04717e-05
4.74185e-05
4.53431e-05
4.41206e-05
4.36012e-05
4.36568e-05
4.41646e-05
4.50115e-05
4.61103e-05
4.73984e-05
4.88304e-05
5.03731e-05
5.20006e-05
5.369e-05
5.54186e-05
5.71625e-05
5.88973e-05
6.05989e-05
6.22447e-05
6.38148e-05
6.52925e-05
6.66647e-05
6.79211e-05
6.90547e-05
7.00608e-05
7.09369e-05
7.16822e-05
7.22978e-05
7.2786e-05
7.31507e-05
7.3397e-05
7.35311e-05
7.35316e-05
7.35028e-05
7.33668e-05
7.31452e-05
7.28686e-05
7.2547e-05
7.21911e-05
7.18122e-05
7.14204e-05
7.10239e-05
7.06281e-05
7.02351e-05
6.98423e-05
6.94416e-05
6.90184e-05
6.85506e-05
6.80078e-05
6.73515e-05
6.65355e-05
6.55094e-05
6.42237e-05
6.26398e-05
6.07438e-05
5.85639e-05
5.61846e-05
5.37492e-05
5.14362e-05
4.94046e-05
4.7721e-05
4.6303e-05
4.45784e-05
4.1135e-05
3.80983e-05
3.37976e-05
2.87927e-05
2.3495e-05
1.89657e-05
1.56987e-05
1.3604e-05
9.85053e-07
1.01116e-06
2.53325e-05
4.71699e-05
5.80874e-05
6.2392e-05
6.17178e-05
5.84073e-05
5.42039e-05
5.02976e-05
4.72862e-05
4.5281e-05
4.4155e-05
4.37466e-05
4.39136e-05
4.4524e-05
4.54633e-05
4.66461e-05
4.80125e-05
4.95194e-05
5.11348e-05
5.28326e-05
5.45888e-05
5.63788e-05
5.81773e-05
5.99585e-05
6.16977e-05
6.33727e-05
6.4964e-05
6.6456e-05
6.78362e-05
6.90954e-05
7.02271e-05
7.12271e-05
7.20929e-05
7.28239e-05
7.3421e-05
7.38864e-05
7.42238e-05
7.44385e-05
7.45371e-05
7.44834e-05
7.44169e-05
7.4235e-05
7.39567e-05
7.36225e-05
7.32436e-05
7.28323e-05
7.24012e-05
7.19627e-05
7.15272e-05
7.11031e-05
7.0695e-05
7.03036e-05
6.99239e-05
6.95443e-05
6.91455e-05
6.86991e-05
6.8167e-05
6.75015e-05
6.66466e-05
6.55422e-05
6.41322e-05
6.23781e-05
6.02778e-05
5.7887e-05
5.53332e-05
5.28064e-05
5.05129e-05
4.8594e-05
4.70404e-05
4.56471e-05
4.26714e-05
3.93897e-05
3.57523e-05
3.00246e-05
2.45936e-05
1.89131e-05
1.58182e-05
1.35905e-05
9.93102e-07
9.81266e-07
2.47738e-05
4.62185e-05
5.72825e-05
6.17603e-05
6.12861e-05
5.81249e-05
5.4007e-05
5.01477e-05
4.71832e-05
4.52469e-05
4.42127e-05
4.39076e-05
4.41764e-05
4.48795e-05
4.59023e-05
4.71614e-05
4.85991e-05
5.01743e-05
5.18555e-05
5.36163e-05
5.54313e-05
5.72745e-05
5.91192e-05
6.0939e-05
6.27092e-05
6.4408e-05
6.60169e-05
6.75209e-05
6.89087e-05
7.01717e-05
7.13039e-05
7.23011e-05
7.3161e-05
7.38827e-05
7.44668e-05
7.49151e-05
7.52312e-05
7.542e-05
7.54885e-05
7.53812e-05
7.52549e-05
7.50583e-05
7.47189e-05
7.43259e-05
7.38881e-05
7.34183e-05
7.29308e-05
7.24397e-05
7.19579e-05
7.14961e-05
7.10621e-05
7.06594e-05
7.02864e-05
6.99349e-05
6.95887e-05
6.92226e-05
6.88004e-05
6.82746e-05
6.75867e-05
6.66692e-05
6.54523e-05
6.38753e-05
6.19056e-05
5.95641e-05
5.69489e-05