/*--------------------------------*- C++ -*----------------------------------*\
  =========                 |
  \\      /  F ield         | OpenFOAM: The Open Source CFD Toolbox
   \\    /   O peration     | Website:  https://openfoam.org
    \\  /    A nd           | Version:  13
     \\/     M anipulation  |
\*---------------------------------------------------------------------------*/
FoamFile
{
    format      ascii;
    class       volScalarField;
    location    "8.7";
    object      p;
}
// * * * * * * * * * * * * * * * * * * * * * * * * * * * * * * * * * * * * * //

dimensions      [0 2 -2 0 0 0 0];

internalField   nonuniform List<scalar> 
6400
(
4.03776e-09
2.012e-05
2.90794e-05
1.34845e-05
-3.18928e-05
-0.000101777
-0.000186325
-0.000276267
-0.000365284
-0.000450282
-0.000532042
-0.000614882
-0.000703549
-0.000803288
-0.000919316
-0.00105574
-0.00121551
-0.00140022
-0.00161116
-0.00184896
-0.00211401
-0.00240781
-0.00273338
-0.00309532
-0.00350013
-0.00395225
-0.00444628
-0.00497285
-0.00550855
-0.00601945
-0.00650118
-0.00696154
-0.00739866
-0.00780975
-0.00818928
-0.00852838
-0.00881542
-0.00903705
-0.00917922
-0.009228
-0.00917013
-0.00899435
-0.0086926
-0.0082609
-0.00769708
-0.00699278
-0.00613978
-0.00515722
-0.00406207
-0.00286139
-0.00157617
-0.000227963
0.00115374
0.002536
0.00387778
0.00513366
0.00625942
0.00721347
0.00795648
0.00845765
0.0086993
0.00868033
0.00841551
0.00792185
0.00726854
0.0065026
0.00569036
0.00489497
0.00417285
0.00355373
0.00307203
0.00273776
0.00252065
0.00239522
0.00234148
0.00233587
0.00235922
0.00239638
0.00243673
0.00246422
-1.5197e-05
5.32849e-06
9.56209e-06
-1.10849e-05
-5.93583e-05
-0.000129182
-0.000209699
-0.000292283
-0.000371952
-0.000447425
-0.000520877
-0.000596472
-0.000679111
-0.000773563
-0.000883734
-0.0010132
-0.00116522
-0.00134227
-0.0015449
-0.00177326
-0.00202629
-0.00230472
-0.00261195
-0.00295046
-0.00332342
-0.00373828
-0.00420235
-0.00471364
-0.00525774
-0.00581001
-0.00634302
-0.00684794
-0.00732672
-0.00777622
-0.00819055
-0.00856078
-0.00887556
-0.00912213
-0.00928725
-0.00935822
-0.00932297
-0.00917136
-0.00889571
-0.00849029
-0.00795031
-0.00727202
-0.00646229
-0.00552891
-0.00447395
-0.00331561
-0.00207193
-0.000766511
0.00057235
0.00191083
0.00321098
0.00443244
0.0055323
0.00646888
0.00720644
0.00771519
0.00797698
0.0079895
0.00776598
0.00733296
0.00673837
0.00603697
0.0052904
0.00455782
0.00389227
0.00333496
0.00290358
0.00260526
0.00242628
0.00234294
0.00233079
0.00236198
0.00240574
0.00244479
0.00247752
0.00250347
-3.14812e-05
-8.75507e-06
-1.03081e-05
-4.02648e-05
-9.66291e-05
-0.000168996
-0.000245477
-0.000317855
-0.000383548
-0.000444311
-0.000503984
-0.000567619
-0.000640284
-0.000725735
-0.000826473
-0.000944332
-0.00108087
-0.00123833
-0.00141896
-0.00162554
-0.00186174
-0.00213065
-0.00243672
-0.00278497
-0.00317959
-0.00362314
-0.00411598
-0.00465388
-0.00522569
-0.00581366
-0.00639793
-0.00696279
-0.00749906
-0.0080002
-0.0084591
-0.00886652
-0.00921208
-0.00948466
-0.00967245
-0.00976396
-0.00974896
-0.00961856
-0.0093657
-0.00898522
-0.00847405
-0.00783177
-0.00705497
-0.00615651
-0.00514287
-0.00402728
-0.00282673
-0.00156319
-0.000263493
0.00104073
0.00231378
0.00351719
0.00460909
0.00554837
0.0062999
0.00683499
0.00713457
0.00719412
0.00702605
0.0066571
0.00613051
0.00549903
0.0048186
0.00415144
0.0035451
0.00303634
0.00264935
0.00239698
0.00226673
0.00222949
0.00225443
0.00231693
0.00238682
0.00244517
0.00249292
0.00253043
-4.01184e-05
-1.84895e-05
-2.77092e-05
-6.90303e-05
-0.000135596
-0.000211064
-0.000283745
-0.000347092
-0.000399817
-0.000444325
-0.000486918
-0.000534404
-0.000592331
-0.000664424
-0.000752365
-0.000856951
-0.000979605
-0.00112319
-0.00129162
-0.00149054
-0.00172713
-0.00200926
-0.00234423
-0.00273465
-0.00318283
-0.00368993
-0.0042518
-0.00485775
-0.00549191
-0.00613756
-0.00677819
-0.00739858
-0.00798654
-0.00853292
-0.00902917
-0.00946597
-0.00983423
-0.0101241
-0.0103254
-0.0104282
-0.0104238
-0.0103044
-0.0100637
-0.00969757
-0.00920443
-0.00858198
-0.00783211
-0.00696041
-0.00597441
-0.00488638
-0.00371219
-0.00247227
-0.0011912
0.000102131
0.00137388
0.0025856
0.00369674
0.00466703
0.00545937
0.00604413
0.00640041
0.0065197
0.00641205
0.00610415
0.00563597
0.00505712
0.00442491
0.00379821
0.00322743
0.00275014
0.00239014
0.0021579
0.00204558
0.0020367
0.00210093
0.00219832
0.00230031
0.00238922
0.00246122
0.00251136
-3.42207e-05
-2.03078e-05
-3.98344e-05
-9.28278e-05
-0.00016899
-0.000247274
-0.00031616
-0.000370645
-0.000410811
-0.000441158
-0.000469019
-0.000502069
-0.000546308
-0.000605409
-0.000681511
-0.000776453
-0.000893417
-0.0010382
-0.00121796
-0.00144088
-0.00171678
-0.0020513
-0.00244918
-0.00291471
-0.00344717
-0.00404051
-0.00468444
-0.00536434
-0.00606267
-0.00676313
-0.00745032
-0.0081117
-0.00873655
-0.00931439
-0.00983602
-0.0102926
-0.0106755
-0.0109757
-0.0111848
-0.0112947
-0.0112974
-0.0111869
-0.010957
-0.0106039
-0.0101272
-0.0095261
-0.00880123
-0.00795562
-0.00699583
-0.00593323
-0.00478296
-0.00356331
-0.00229555
-0.00100475
0.000276812
0.00150973
0.00265496
0.00367429
0.00452959
0.00518864
0.00562794
0.00583427
0.00581153
0.00558178
0.0051855
0.00467003
0.00409022
0.00350369
0.0029628
0.0025075
0.00216439
0.00194349
0.00184081
0.00183989
0.00191515
0.00203333
0.00216128
0.00227823
0.00237327
0.00243289
-4.89462e-06
-5.27688e-06
-3.74048e-05
-0.000104381
-0.000188721
-0.000268032
-0.000332788
-0.000379479
-0.000409496
-0.000428977
-0.000446439
-0.000469962
-0.000505723
-0.000558097
-0.000630929
-0.000728722
-0.000858085
-0.00102789
-0.00124906
-0.00152874
-0.00187452
-0.00229368
-0.00278775
-0.00335362
-0.00398245
-0.00466216
-0.0053806
-0.00612377
-0.00687615
-0.00762248
-0.00834856
-0.00904274
-0.00969474
-0.0102949
-0.0108347
-0.0113055
-0.0116985
-0.0120062
-0.0122217
-0.0123383
-0.0123492
-0.0122503
-0.0120359
-0.0117018
-0.0112511
-0.0106806
-0.00999023
-0.00918188
-0.00826032
-0.00723511
-0.00611963
-0.00492835
-0.00367838
-0.00239158
-0.0011012
0.000154026
0.00133976
0.0024212
0.00335719
0.00411285
0.00466345
0.00498947
0.00508952
0.00497573
0.00468363
0.00426115
0.00376047
0.00323577
0.00273965
0.00231505
0.00199099
0.00178046
0.00168163
0.00168089
0.00175442
0.00187415
0.00200953
0.00213739
0.00224251
0.00230545
5.83137e-05
4.01048e-05
-8.54847e-06
-9.24904e-05
-0.00018208
-0.0002617
-0.000323181
-0.000364372
-0.000388654
-0.00040338
-0.000417602
-0.000439702
-0.000476521
-0.000534208
-0.000619664
-0.000740555
-0.00090725
-0.00113157
-0.00142181
-0.00178675
-0.0022329
-0.0027613
-0.00336331
-0.00402825
-0.0047461
-0.00550489
-0.0062909
-0.00709016
-0.0078889
-0.00867368
-0.00943188
-0.0101526
-0.0108261
-0.0114436
-0.0119971
-0.012478
-0.0128771
-0.0131896
-0.0134103
-0.0135341
-0.0135579
-0.013476
-0.0132844
-0.0129798
-0.0125625
-0.0120283
-0.0113791
-0.0106185
-0.00975146
-0.00878337
-0.00772069
-0.00657451
-0.0053611
-0.00410329
-0.00282597
-0.00155679
-0.000326497
0.000826924
0.0018559
0.00272931
0.00341944
0.00389857
0.00416121
0.00420966
0.00406899
0.00378125
0.00339652
0.00296682
0.00254247
0.00216778
0.00187452
0.00167909
0.00158275
0.00157841
0.00164115
0.00174933
0.00187524
0.0019958
0.0020957
0.00215358
0.000165618
0.000126642
5.58843e-05
-4.19669e-05
-0.000137027
-0.00021809
-0.000278453
-0.000318577
-0.000343502
-0.000361667
-0.000382548
-0.000414984
-0.000467191
-0.000548169
-0.000667853
-0.000837721
-0.00106966
-0.00137532
-0.00176316
-0.00223943
-0.00280073
-0.00343876
-0.00414317
-0.00490231
-0.00570331
-0.00653327
-0.00737891
-0.00822729
-0.0090659
-0.00988274
-0.0106667
-0.0114079
-0.0120969
-0.0127249
-0.013284
-0.013766
-0.0141678
-0.0144858
-0.014715
-0.0148509
-0.0148901
-0.0148263
-0.0146575
-0.0143822
-0.0139969
-0.013502
-0.0128996
-0.0121933
-0.0113875
-0.010485
-0.00948892
-0.00840849
-0.00725801
-0.00605528
-0.00481699
-0.00356067
-0.00231595
-0.00111976
-2.56647e-06
0.00100593
0.00185331
0.00251441
0.0029769
0.00323174
0.00329224
0.00318781
0.00296282
0.0026669
0.00234741
0.00204877
0.001805
0.00163617
0.00154818
0.00153534
0.00158224
0.00167057
0.00177434
0.00187485
0.00195494
0.00199822
0.000322416
0.0002625
0.000166792
5.49898e-05
-4.67041e-05
-0.000130655
-0.000193894
-0.000238961
-0.000272763
-0.000304735
-0.000344851
-0.000402847
-0.000489007
-0.000615392
-0.000795264
-0.00104069
-0.00136446
-0.00177785
-0.00228374
-0.00287787
-0.00355309
-0.00429801
-0.00509959
-0.00594448
-0.00681955
-0.00771192
-0.00860917
-0.00949926
-0.0103707
-0.0112125
-0.0120146
-0.012768
-0.0134634
-0.0140928
-0.0146506
-0.0151345
-0.0155437
-0.0158709
-0.0161105
-0.0162576
-0.016307
-0.0162578
-0.0161091
-0.0158604
-0.0155078
-0.0150542
-0.0145004
-0.0138479
-0.0130992
-0.0122583
-0.0113309
-0.0103241
-0.00924838
-0.00811666
-0.00694125
-0.00573234
-0.00450992
-0.00329946
-0.00212262
-0.00102252
-3.1473e-05
0.000830839
0.00151415
0.00200832
0.00231263
0.00244104
0.00242296
0.00230317
0.00212525
0.00193173
0.00175992
0.00163354
0.00156291
0.00154672
0.0015757
0.00163598
0.00170956
0.00178103
0.00183046
0.0018547
0.00053625
0.000452938
0.000329539
0.000202441
9.14549e-05
1.30345e-06
-6.98154e-05
-0.000127324
-0.000179992
-0.000238203
-0.000312619
-0.000414239
-0.000555903
-0.000752464
-0.00101772
-0.00136385
-0.00180265
-0.00233827
-0.00296666
-0.00367945
-0.0044652
-0.0053096
-0.00619921
-0.00712039
-0.00806034
-0.00900649
-0.00994708
-0.0108708
-0.0117669
-0.0126256
-0.0134377
-0.0141951
-0.0148914
-0.0155221
-0.0160825
-0.0165688
-0.0169752
-0.0172971
-0.0175318
-0.0176777
-0.0177329
-0.017696
-0.0175664
-0.0173437
-0.0170257
-0.0166139
-0.0161096
-0.0155143
-0.0148297
-0.0140588
-0.0132058
-0.0122758
-0.0112752
-0.0102111
-0.00909247
-0.00793428
-0.00675423
-0.00556748
-0.00438634
-0.00323323
-0.00212952
-0.00111519
-0.000222793
0.000526925
0.00110085
0.00150167
0.00173768
0.00183832
0.00184223
0.00178709
0.00171105
0.00164468
0.00160361
0.0015919
0.00160509
0.00163588
0.00167466
0.00170955
0.00172525
0.0017305
0.000809303
0.000696808
0.000544288
0.000396572
0.000274068
0.000173296
8.78961e-05
9.01664e-06
-7.40381e-05
-0.000172596
-0.000298088
-0.000463358
-0.000683359
-0.00097339
-0.00134655
-0.00181317
-0.00237879
-0.00304161
-0.00379261
-0.00461912
-0.00550723
-0.00644226
-0.00741052
-0.00839858
-0.00939388
-0.0103843
-0.0113587
-0.0123065
-0.013218
-0.0140846
-0.0148986
-0.0156535
-0.0163441
-0.0169662
-0.0175159
-0.0179903
-0.0183855
-0.0186988
-0.0189284
-0.0190734
-0.0191327
-0.0191056
-0.0189917
-0.018791
-0.0185029
-0.0181283
-0.0176686
-0.0171253
-0.0165003
-0.0157961
-0.0150159
-0.0141635
-0.0132431
-0.012259
-0.0112164
-0.0101232
-0.00898882
-0.0078248
-0.00665057
-0.00548393
-0.00433357
-0.00321761
-0.00215694
-0.00119223
-0.000348322
0.000340255
0.000865053
0.00123007
0.00145841
0.00158072
0.00163004
0.00164198
0.00164282
0.00164383
0.00164738
0.00165116
0.00165426
0.00164991
0.00163359
0.00162224
0.00112942
0.000987029
0.000798997
0.00062777
0.000490495
0.000374593
0.000267606
0.000157366
3.13951e-05
-0.000122414
-0.000316677
-0.000565506
-0.000884468
-0.00128762
-0.00178527
-0.00238314
-0.00308077
-0.00387008
-0.00473792
-0.00567005
-0.00665137
-0.00766729
-0.00870404
-0.0097484
-0.0107881
-0.0118115
-0.0128083
-0.0137688
-0.0146847
-0.0155488
-0.0163549
-0.0170981
-0.0177744
-0.0183804
-0.0189137
-0.0193722
-0.0197536
-0.0200564
-0.0202794
-0.0204219
-0.0204834
-0.0204636
-0.0203626
-0.0201806
-0.0199179
-0.0195756
-0.0191548
-0.0186573
-0.0180848
-0.0174398
-0.0167248
-0.0159427
-0.0150966
-0.0141895
-0.0132251
-0.0122072
-0.01114
-0.0100285
-0.00888056
-0.00770679
-0.00652433
-0.00535229
-0.0041945
-0.00306972
-0.00200574
-0.00104604
-0.000225587
0.000433948
0.000928173
0.00127036
0.00148413
0.00160042
0.00165648
0.00167792
0.00167704
0.00165875
0.00162916
0.00158886
0.00154576
0.00152012
0.00148232
0.00130827
0.00108
0.000882364
0.000726529
0.000589587
0.000452819
0.000300644
0.00011905
-0.000104983
-0.00038451
-0.000734517
-0.00116921
-0.00169946
-0.00233128
-0.00306471
-0.00389273
-0.00480257
-0.00577917
-0.00680729
-0.00787149
-0.00895726
-0.0100508
-0.0111393
-0.0122109
-0.0132549
-0.0142619
-0.0152238
-0.0161338
-0.0169864
-0.0177769
-0.0185019
-0.0191585
-0.0197449
-0.0202592
-0.0207001
-0.0210664
-0.0213575
-0.0215726
-0.0217113
-0.0217734
-0.0217592
-0.0216689
-0.0215029
-0.021262
-0.0209474
-0.0205603
-0.0201024
-0.0195756
-0.018982
-0.0183239
-0.0176035
-0.0168233
-0.0159854
-0.0150921
-0.0141453
-0.013147
-0.012099
-0.0110031
-0.0098616
-0.00867947
-0.00746661
-0.00624121
-0.00501643
-0.00380164
-0.00262691
-0.00153825
-0.00058146
0.000206622
0.000808967
0.00123068
0.00149096
0.00162465
0.00167628
0.00167505
0.00163902
0.00158235
0.00151307
0.00145044
0.00141578
0.0018496
0.00164105
0.00137068
0.00114191
0.000962941
0.000798593
0.000623571
0.000419073
0.000169783
-0.000137517
-0.000516863
-0.000982127
-0.00154433
-0.00220999
-0.00297911
-0.00384557
-0.00479737
-0.00581895
-0.00689419
-0.00800718
-0.00914243
-0.0102855
-0.0114229
-0.0125424
-0.013633
-0.0146853
-0.0156916
-0.0166453
-0.0175413
-0.0183758
-0.0191457
-0.0198487
-0.0204833
-0.0210483
-0.0215427
-0.0219658
-0.0223172
-0.0225964
-0.0228034
-0.022938
-0.0230002
-0.0229904
-0.0229092
-0.022757
-0.0225349
-0.0222441
-0.0218859
-0.021462
-0.0209742
-0.0204246
-0.0198151
-0.0191479
-0.0184247
-0.0176473
-0.0168168
-0.0159341
-0.0149995
-0.0140127
-0.0129732
-0.0118797
-0.0107313
-0.00952776
-0.00827242
-0.00697605
-0.0056624
-0.00434116
-0.00304172
-0.00182118
-0.000737939
0.000153556
0.000823871
0.00127421
0.00152514
0.00162565
0.00163222
0.0015815
0.0015023
0.00141104
0.00133587
0.00129594
0.00220617
0.00196182
0.00164542
0.00138404
0.00117783
0.000979761
0.000758314
0.000492286
0.000165337
-0.000236734
-0.00072747
-0.00131756
-0.00201389
-0.00281643
-0.0037195
-0.0047118
-0.00577771
-0.00690004
-0.00806196
-0.00924718
-0.0104403
-0.0116271
-0.0127949
-0.0139323
-0.01503
-0.0160802
-0.0170768
-0.0180151
-0.0188918
-0.0197043
-0.0204509
-0.0211306
-0.0217425
-0.0222862
-0.0227613
-0.0231676
-0.023505
-0.0237733
-0.0239729
-0.0241038
-0.024166
-0.0241602
-0.0240869
-0.0239469
-0.023741
-0.0234707
-0.0231372
-0.0227423
-0.0222876
-0.0217751
-0.0212067
-0.0205843
-0.0199095
-0.0191835
-0.0184071
-0.0175805
-0.0167029
-0.0157729
-0.0147879
-0.0137446
-0.0126393
-0.0114677
-0.0102265
-0.00891565
-0.007542
-0.0061223
-0.00468157
-0.00325487
-0.00191148
-0.000727159
0.000225381
0.000909053
0.00132739
0.0015149
0.00154365
0.00148448
0.0013851
0.00127531
0.00119235
0.00114842
0.00252448
0.00224493
0.00188237
0.00158622
0.0013485
0.00111035
0.000835426
0.00050044
8.75399e-05
-0.000418373
-0.00102763
-0.00174702
-0.0025771
-0.00351219
-0.00454139
-0.00564906
-0.00681714
-0.00802745
-0.00926263
-0.0105063
-0.0117433
-0.0129603
-0.0141456
-0.0152895
-0.0163842
-0.017424
-0.0184046
-0.019323
-0.0201772
-0.020966
-0.0216888
-0.0223453
-0.0229354
-0.0234591
-0.0239164
-0.0243076
-0.0246326
-0.0248916
-0.0250849
-0.0252127
-0.0252754
-0.0252734
-0.0252074
-0.0250781
-0.0248865
-0.0246339
-0.0243217
-0.0239513
-0.0235246
-0.0230433
-0.0225093
-0.0219243
-0.0212897
-0.0206067
-0.0198759
-0.019097
-0.018269
-0.0173895
-0.0164552
-0.0154614
-0.0144022
-0.0132708
-0.0120607
-0.0107665
-0.00938606
-0.0079229
-0.00639284
-0.00482959
-0.00328414
-0.00183996
-0.000595547
0.00036307
0.000996839
0.00132259
0.0014065
0.00135014
0.0012327
0.00110535
0.00101482
0.000964122
0.00278513
0.00246644
0.00205842
0.00172585
0.00145232
0.0011688
0.000835446
0.000426165
-7.97521e-05
-0.000694451
-0.00142427
-0.00227109
-0.00322945
-0.00428859
-0.00543274
-0.00664297
-0.00789961
-0.0091838
-0.0104779
-0.0117658
-0.0130331
-0.0142675
-0.015459
-0.0165997
-0.0176839
-0.0187076
-0.0196681
-0.0205641
-0.0213948
-0.02216
-0.0228598
-0.0234945
-0.0240645
-0.0245702
-0.0250119
-0.0253898
-0.0257043
-0.0259556
-0.026144
-0.0262697
-0.0263333
-0.0263352
-0.0262759
-0.0261564
-0.0259775
-0.0257404
-0.0254465
-0.0250971
-0.0246941
-0.024239
-0.0237336
-0.0231795
-0.0225782
-0.0219307
-0.0212375
-0.0204984
-0.0197121
-0.0188763
-0.0179872
-0.0170394
-0.0160261
-0.0149392
-0.0137694
-0.0125077
-0.0111466
-0.00968284
-0.00812056
-0.00647896
-0.00480018
-0.00315515
-0.00164807
-0.000398596
0.00049915
0.0010198
0.001209
0.00117759
0.00104942
0.000903658
0.000799162
0.000735883
0.00295154
0.00260172
0.0021517
0.00178233
0.00146977
0.00113785
0.000742512
0.000253804
-0.000347363
-0.00107034
-0.00191832
-0.00288627
-0.00396392
-0.00513543
-0.00638099
-0.00767937
-0.00900983
-0.0103531
-0.0116917
-0.0130099
-0.0142948
-0.0155355
-0.016724
-0.0178543
-0.0189226
-0.0199266
-0.0208652
-0.0217382
-0.0225457
-0.0232883
-0.0239668
-0.0245818
-0.025134
-0.0256239
-0.0260521
-0.0264189
-0.0267248
-0.0269699
-0.0271546
-0.0272793
-0.0273443
-0.0273501
-0.0272973
-0.0271866
-0.0270191
-0.0267957
-0.0265177
-0.0261864
-0.0258035
-0.0253705
-0.024889
-0.0243606
-0.0237867
-0.0231683
-0.0225059
-0.0217995
-0.0210478
-0.0202487
-0.0193984
-0.0184917
-0.0175214
-0.0164788
-0.0153534
-0.0141341
-0.0128093
-0.0113702
-0.00981343
-0.00814588
-0.00639447
-0.00461671
-0.00290549
-0.00138571
-0.000196955
0.000570589
0.000925847
0.000962312
0.000835018
0.000670174
0.00054069
0.000459985
0.0030116
0.00263356
0.00214509
0.00173925
0.0013863
0.00100422
0.000544181
-2.49296e-05
-0.000719892
-0.00154785
-0.00250668
-0.0035864
-0.00477141
-0.00604133
-0.00737331
-0.00874454
-0.0101336
-0.0115212
-0.0128903
-0.0142263
-0.0155177
-0.0167557
-0.017934
-0.0190488
-0.0200979
-0.0210805
-0.0219966
-0.0228471
-0.0236327
-0.0243546
-0.0250138
-0.0256113
-0.026148
-0.0266245
-0.0270414
-0.0273991
-0.027698
-0.0279384
-0.0281206
-0.0282449
-0.0283118
-0.0283217
-0.0282751
-0.0281727
-0.0280154
-0.0278042
-0.0275402
-0.0272247
-0.0268591
-0.0264448
-0.0259834
-0.0254765
-0.0249251
-0.0243306
-0.0236934
-0.0230136
-0.0222903
-0.0215215
-0.0207041
-0.0198329
-0.0189012
-0.0179003
-0.0168193
-0.015646
-0.014367
-0.0129695
-0.011444
-0.00978773
-0.00801311
-0.00616109
-0.00431257
-0.00257748
-0.00110506
-4.76291e-05
0.000528205
0.000683923
0.000584306
0.000401305
0.000234846
0.000135476
0.00295017
0.00254858
0.00202653
0.00158593
0.0011925
0.00075871
0.000233289
-0.000413196
-0.00119737
-0.00212338
-0.00318349
-0.00436294
-0.00564122
-0.00699424
-0.00839696
-0.00982552
-0.0112582
-0.0126761
-0.0140628
-0.0154056
-0.0166944
-0.0179226
-0.0190857
-0.0201818
-0.0212099
-0.0221706
-0.0230649
-0.023894
-0.0246595
-0.0253627
-0.026005
-0.0265873
-0.0271107
-0.0275759
-0.0279834
-0.0283337
-0.0286272
-0.0288641
-0.0290448
-0.0291695
-0.0292386
-0.0292526
-0.029212
-0.0291173
-0.0289694
-0.0287691
-0.0285175
-0.0282158
-0.0278652
-0.0274671
-0.0270229
-0.0265339
-0.0260015
-0.0254267
-0.0248101
-0.024152
-0.0234518
-0.022708
-0.0219177
-0.0210767
-0.0201788
-0.0192157
-0.018177
-0.01705
-0.0158205
-0.0144734
-0.0129952
-0.0113765
-0.00961686
-0.00773826
-0.0058083
-0.00392403
-0.00221531
-0.000864031
-1.61447e-05
0.000321239
0.000286589
8.81977e-05
-0.000122284
-0.000239476
0.0027584
0.00233892
0.00178924
0.0013166
0.00088289
0.000398046
-0.000189454
-0.000908921
-0.00177601
-0.00279032
-0.00393993
-0.00520524
-0.00656153
-0.00798185
-0.00943961
-0.0109104
-0.0123726
-0.0138078
-0.0152012
-0.0165414
-0.0178206
-0.0190338
-0.0201784
-0.0212539
-0.0222606
-0.0231998
-0.0240733
-0.0248828
-0.0256301
-0.0263167
-0.0269441
-0.0275135
-0.0280256
-0.0284813
-0.0288811
-0.0292255
-0.0295148
-0.0297492
-0.0299292
-0.0300548
-0.0301264
-0.0301446
-0.0301096
-0.0300221
-0.0298828
-0.0296925
-0.029452
-0.0291626
-0.0288252
-0.0284412
-0.0280117
-0.0275382
-0.0270217
-0.0264634
-0.025864
-0.0252237
-0.0245425
-0.0238191
-0.0230513
-0.0222356
-0.0213666
-0.020437
-0.0194369
-0.0183543
-0.0171746
-0.0158817
-0.0144597
-0.0128949
-0.0111783
-0.00931239
-0.00733997
-0.00536957
-0.00349182
-0.00187567
-0.000728434
-0.000156455
-8.13727e-05
-0.000277328
-0.000531211
-0.000664686
0.00243396
0.00200268
0.00143196
0.000930635
0.000458329
-7.5103e-05
-0.000720088
-0.00150607
-0.00244713
-0.00353879
-0.00476479
-0.00610122
-0.00751996
-0.00899195
-0.0104897
-0.0119885
-0.0134672
-0.0149086
-0.0162993
-0.0176297
-0.0188939
-0.0200886
-0.0212128
-0.0222669
-0.0232524
-0.0241711
-0.0250253
-0.025817
-0.026548
-0.0272201
-0.0278346
-0.0283927
-0.0288953
-0.0293432
-0.0297367
-0.0300763
-0.0303624
-0.0305952
-0.0307749
-0.0309018
-0.0309762
-0.0309984
-0.0309689
-0.0308881
-0.0307567
-0.0305755
-0.0303451
-0.0300667
-0.0297411
-0.0293695
-0.028953
-0.0284929
-0.0279902
-0.027446
-0.026861
-0.0262357
-0.0255702
-0.0248637
-0.0241146
-0.02332
-0.0224756
-0.021575
-0.0206095
-0.0195679
-0.0184362
-0.017198
-0.0158356
-0.0143329
-0.012676
-0.0108554
-0.00888206
-0.00685803
-0.00487995
-0.00306276
-0.0016311
-0.000781915
-0.000536846
-0.000703825
-0.000989967
-0.00113966
0.00198022
0.00154356
0.000958453
0.000432222
-7.57687e-05
-0.000653217
-0.00134992
-0.00219516
-0.0032
-0.00435683
-0.00564537
-0.00703802
-0.008504
-0.0100128
-0.0115365
-0.0130505
-0.0145346
-0.0159727
-0.0173531
-0.0186683
-0.0199137
-0.0210877
-0.0221904
-0.0232232
-0.0241883
-0.0250878
-0.0259242
-0.0266997
-0.0274163
-0.0280755
-0.0286789
-0.0292274
-0.029722
-0.0301632
-0.0305516
-0.0308874
-0.0311711
-0.0314028
-0.0315828
-0.0317112
-0.0317883
-0.0318145
-0.0317902
-0.0317157
-0.0315917
-0.0314187
-0.0311976
-0.030929
-0.0306141
-0.0302537
-0.0298488
-0.0294005
-0.02891
-0.028378
-0.0278055
-0.0271931
-0.0265409
-0.0258486
-0.0251151
-0.0243384
-0.0235148
-0.0226392
-0.0217042
-0.0206998
-0.0196128
-0.0184275
-0.0171256
-0.0156885
-0.0141
-0.0123448
-0.0104154
-0.00835658
-0.00632772
-0.00438146
-0.00270768
-0.00156891
-0.00110595
-0.00120788
-0.00149763
-0.00166925
0.00140559
0.00096995
0.000376669
-0.000169842
-0.0007094
-0.00132579
-0.0020677
-0.0029634
-0.00402138
-0.00523087
-0.00656814
-0.00800258
-0.00950148
-0.0110335
-0.0125704
-0.0140885
-0.0155684
-0.0169957
-0.0183602
-0.019656
-0.0208802
-0.0220323
-0.0231133
-0.0241254
-0.025071
-0.0259526
-0.0267728
-0.0275337
-0.0282374
-0.0288854
-0.0294791
-0.0300193
-0.030507
-0.0309426
-0.0313267
-0.0316595
-0.0319414
-0.0321724
-0.0323529
-0.0324829
-0.0325628
-0.0325929
-0.0325734
-0.0325048
-0.0323876
-0.0322223
-0.0320096
-0.0317502
-0.0314449
-0.0310946
-0.0307002
-0.0302627
-0.0297829
-0.029262
-0.0287006
-0.0280994
-0.0274588
-0.0267788
-0.0260588
-0.0252972
-0.0244916
-0.0236376
-0.0227293
-0.0217579
-0.0207119
-0.0195764
-0.0183334
-0.0169629
-0.0154468
-0.013768
-0.0119065
-0.00986063
-0.00779111
-0.00578105
-0.00393207
-0.00252607
-0.00181086
-0.00178818
-0.00205866
-0.00226396
0.000722574
0.000294273
-0.000300905
-0.000862845
-0.001429
-0.00207885
-0.00285932
-0.00379652
-0.00489677
-0.00614658
-0.00751932
-0.00898209
-0.0105009
-0.0120439
-0.0135832
-0.015096
-0.0165641
-0.0179745
-0.0193189
-0.0205926
-0.0217941
-0.0229239
-0.0239836
-0.0249757
-0.0259029
-0.026768
-0.0275733
-0.0283212
-0.0290134
-0.0296514
-0.0302365
-0.0307695
-0.0312512
-0.0316821
-0.0320626
-0.0323929
-0.0326733
-0.032904
-0.0330851
-0.0332169
-0.0332995
-0.0333332
-0.0333183
-0.0332552
-0.0331443
-0.0329861
-0.0327811
-0.0325301
-0.0322337
-0.0318927
-0.0315079
-0.0310802
-0.0306104
-0.0300994
-0.0295481
-0.0289571
-0.0283269
-0.0276579
-0.0269497
-0.0262015
-0.0254114
-0.0245763
-0.0236914
-0.0227494
-0.0217403
-0.0206508
-0.0194636
-0.0181586
-0.0167154
-0.0151157
-0.0133374
-0.0113615
-0.00925361
-0.00721767
-0.00526961
-0.00364662
-0.00267016
-0.00246061
-0.00268915
-0.0029403
-5.17205e-05
-0.00046857
-0.00105914
-0.00163164
-0.0022199
-0.00289776
-0.0037093
-0.00467902
-0.00581101
-0.00708942
-0.00848539
-0.00996434
-0.0114915
-0.013035
-0.0145676
-0.0160674
-0.0175177
-0.018907
-0.0202283
-0.0214784
-0.0226566
-0.023764
-0.024803
-0.025776
-0.0266861
-0.0275358
-0.0283276
-0.0290636
-0.0297454
-0.0303746
-0.030952
-0.0314787
-0.0319552
-0.0323819
-0.0327593
-0.0330875
-0.0333668
-0.0335973
-0.0337792
-0.0339126
-0.0339978
-0.0340349
-0.0340243
-0.0339663
-0.0338612
-0.0337096
-0.0335119
-0.0332686
-0.0329804
-0.032648
-0.0322721
-0.0318535
-0.0313929
-0.0308913
-0.0303493
-0.0297677
-0.0291472
-0.0284881
-0.0277907
-0.0270544
-0.0262782
-0.0254599
-0.0245957
-0.0236798
-0.022704
-0.0216564
-0.0205213
-0.0192793
-0.0179085
-0.0163894
-0.0147018
-0.0128152
-0.0107175
-0.00866117
-0.00667794
-0.00490434
-0.00368772
-0.0032599
-0.00340669
-0.00371948
-0.000898304
-0.00130119
-0.00188214
-0.00246086
-0.00306631
-0.00376627
-0.00460157
-0.00559513
-0.00674892
-0.00804521
-0.00945345
-0.010938
-0.0124636
-0.0139989
-0.0155175
-0.0169984
-0.0184264
-0.0197915
-0.021088
-0.0223136
-0.0234684
-0.0245541
-0.025573
-0.0265281
-0.0274221
-0.0282577
-0.029037
-0.0297621
-0.0304346
-0.0310557
-0.0316263
-0.0321473
-0.0326191
-0.0330422
-0.0334168
-0.0337432
-0.0340216
-0.034252
-0.0344346
-0.0345697
-0.0346572
-0.0346976
-0.0346909
-0.0346376
-0.034538
-0.0343924
-0.0342013
-0.0339653
-0.0336847
-0.0333604
-0.0329928
-0.0325827
-0.0321308
-0.0316379
-0.0311048
-0.0305321
-0.0299207
-0.029271
-0.0285836
-0.0278584
-0.0270949
-0.0262916
-0.025446
-0.0245536
-0.0236076
-0.022598
-0.0215109
-0.020328
-0.0190276
-0.0175878
-0.0159882
-0.014198
-0.012189
-0.0101018
-0.00812028
-0.00627024
-0.00485896
-0.00420561
-0.00422865
-0.00462925
-0.00179888
-0.00218548
-0.00275286
-0.00333344
-0.00395112
-0.00466738
-0.00551974
-0.00652917
-0.00769581
-0.00900049
-0.0104115
-0.0118926
-0.0134086
-0.0149287
-0.0164275
-0.0178852
-0.019288
-0.0206271
-0.0218978
-0.0230987
-0.0242305
-0.025295
-0.0262949
-0.0272331
-0.0281121
-0.0289345
-0.0297024
-0.0304175
-0.0310814
-0.0316952
-0.0322596
-0.0327754
-0.033243
-0.0336628
-0.0340349
-0.0343597
-0.0346372
-0.0348676
-0.0350509
-0.0351874
-0.0352772
-0.0353205
-0.0353176
-0.0352686
-0.035174
-0.035034
-0.0348491
-0.0346197
-0.0343463
-0.0340294
-0.0336697
-0.0332677
-0.032824
-0.0323395
-0.0318148
-0.0312507
-0.030648
-0.0300074
-0.0293295
-0.0286147
-0.027863
-0.0270736
-0.026245
-0.0253738
-0.0244548
-0.0234797
-0.0224366
-0.0213089
-0.0200758
-0.0187137
-0.0172011
-0.0155127
-0.0136155
-0.0115305
-0.00957081
-0.00771187
-0.00616802
-0.00529849
-0.00518124
-0.00568663
-0.00273488
-0.00310324
-0.00365363
-0.00423179
-0.0048571
-0.00558444
-0.00644782
-0.00746608
-0.00863778
-0.00994272
-0.0113486
-0.0128189
-0.0143189
-0.0158185
-0.0172933
-0.0187249
-0.0201006
-0.0214127
-0.0226574
-0.023834
-0.0249434
-0.0259877
-0.0269696
-0.0278917
-0.0287567
-0.0295669
-0.0303242
-0.0310302
-0.0316862
-0.0322932
-0.0328519
-0.0333629
-0.0338267
-0.0342434
-0.0346133
-0.0349366
-0.0352133
-0.0354436
-0.0356276
-0.0357655
-0.0358573
-0.0359033
-0.0359037
-0.0358587
-0.0357686
-0.0356338
-0.0354546
-0.0352314
-0.0349647
-0.0346548
-0.0343024
-0.033908
-0.0334722
-0.0329957
-0.0324792
-0.0319234
-0.0313292
-0.0306974
-0.0300288
-0.029324
-0.0285835
-0.0278072
-0.0269942
-0.0261424
-0.025248
-0.0243043
-0.0233013
-0.0222245
-0.0210545
-0.0197682
-0.018344
-0.0167606
-0.0149767
-0.0129506
-0.0109936
-0.00917642
-0.0075694
-0.00652322
-0.00628869
-0.00687821
-0.00368833
-0.00403633
-0.00456683
-0.00513917
-0.00576803
-0.00650173
-0.00737081
-0.00839184
-0.00956203
-0.0108605
-0.0122548
-0.0137086
-0.0151878
-0.0166631
-0.0181112
-0.0195149
-0.0208625
-0.0221475
-0.0233666
-0.0245195
-0.0256074
-0.0266325
-0.0275974
-0.0285046
-0.0293566
-0.0301554
-0.0309028
-0.0316003
-0.032249
-0.0328497
-0.0334032
-0.0339098
-0.0343699
-0.0347838
-0.0351516
-0.0354734
-0.0357494
-0.0359796
-0.0361642
-0.0363032
-0.0363968
-0.0364453
-0.0364487
-0.0364073
-0.0363214
-0.0361913
-0.0360174
-0.0357999
-0.0355393
-0.0352361
-0.0348906
-0.0345035
-0.0340752
-0.0336064
-0.0330977
-0.0325501
-0.0319642
-0.031341
-0.0306815
-0.0299864
-0.0292567
-0.0284927
-0.0276944
-0.0268606
-0.0259887
-0.0250736
-0.0241073
-0.0230772
-0.0219659
-0.0207513
-0.0194104
-0.0179223
-0.0162522
-0.0143593
-0.0123924
-0.0106255
-0.00901109
-0.0078474
-0.00754273
-0.00817285
-0.00464162
-0.00496752
-0.0054758
-0.00603964
-0.00666862
-0.00740464
-0.00827489
-0.00929367
-0.0104571
-0.0117438
-0.0131216
-0.0145547
-0.0160097
-0.0174582
-0.018878
-0.020253
-0.0215726
-0.0228307
-0.024025
-0.0251552
-0.0262228
-0.0272298
-0.0281787
-0.0290719
-0.0299117
-0.0306999
-0.0314382
-0.0321278
-0.0327696
-0.0333646
-0.0339131
-0.0344156
-0.0348724
-0.0352836
-0.0356494
-0.0359699
-0.0362451
-0.0364752
-0.0366602
-0.0368002
-0.0368955
-0.036946
-0.0369522
-0.0369141
-0.036832
-0.0367062
-0.036537
-0.0363248
-0.03607
-0.0357728
-0.0354338
-0.0350535
-0.0346323
-0.0341709
-0.0336699
-0.0331302
-0.0325524
-0.0319377
-0.0312871
-0.0306016
-0.0298824
-0.0291303
-0.0283459
-0.0275288
-0.0266776
-0.0257888
-0.0248559
-0.0238686
-0.0228117
-0.0216645
-0.0204033
-0.0190064
-0.0174476
-0.0156927
-0.0137554
-0.0120355
-0.0104522
-0.00922878
-0.00888287
-0.00949579
-0.00557848
-0.00588103
-0.00636554
-0.00691861
-0.00754485
-0.00827988
-0.0091476
-0.0101602
-0.0113127
-0.0125836
-0.0139414
-0.015351
-0.0167796
-0.0182
-0.019591
-0.0209374
-0.0222294
-0.0234617
-0.0246323
-0.025741
-0.0267893
-0.0277794
-0.0287134
-0.0295936
-0.030422
-0.0312004
-0.0319302
-0.0326124
-0.033248
-0.0338375
-0.0343815
-0.0348801
-0.0353338
-0.0357425
-0.0361064
-0.0364256
-0.0367
-0.0369299
-0.0371153
-0.0372562
-0.0373528
-0.0374053
-0.0374138
-0.0373786
-0.0372999
-0.037178
-0.0370132
-0.0368058
-0.0365562
-0.0362647
-0.0359317
-0.0355578
-0.0351433
-0.034689
-0.0341953
-0.0336632
-0.0330934
-0.032487
-0.0318451
-0.031169
-0.03046
-0.0297194
-0.0289482
-0.0281468
-0.0273149
-0.0264501
-0.0255478
-0.0245995
-0.0235922
-0.0225071
-0.0213216
-0.0200147
-0.0185657
-0.0169324
-0.0150795
-0.0133817
-0.0118476
-0.01061
-0.0102149
-0.0107305
-0.00648329
-0.00676264
-0.00722243
-0.00776298
-0.00838421
-0.0091156
-0.00997792
-0.0109813
-0.0121202
-0.0133724
-0.0147077
-0.0160921
-0.0174935
-0.0188854
-0.0202478
-0.0215663
-0.0228319
-0.0240397
-0.0251878
-0.0262764
-0.0273068
-0.0282811
-0.0292013
-0.0300695
-0.0308874
-0.0316567
-0.0323786
-0.033054
-0.0336837
-0.0342682