/*--------------------------------*- C++ -*----------------------------------*\
  =========                 |
  \\      /  F ield         | OpenFOAM: The Open Source CFD Toolbox
   \\    /   O peration     | Website:  https://openfoam.org
    \\  /    A nd           | Version:  13
     \\/     M anipulation  |
\*---------------------------------------------------------------------------*/
FoamFile
{
    format      ascii;
    class       surfaceScalarField;
    location    "8.7";
    object      phi;
}
// * * * * * * * * * * * * * * * * * * * * * * * * * * * * * * * * * * * * * //

dimensions      [0 3 -1 0 0 0 0];

internalField   nonuniform List<scalar> 
12640
(
1.69413e-09
-1.69421e-09
1.55536e-08
-1.38594e-08
3.98995e-08
-2.43459e-08
6.79461e-08
-2.80466e-08
9.32122e-08
-2.52661e-08
1.12073e-07
-1.8861e-08
1.23176e-07
-1.11031e-08
1.27467e-07
-4.29052e-09
1.2729e-07
1.76461e-10
1.25022e-07
2.26826e-09
1.22662e-07
2.35994e-09
1.21492e-07
1.17031e-09
1.21907e-07
-4.15303e-10
1.23614e-07
-1.70691e-09
1.25751e-07
-2.13733e-09
1.27374e-07
-1.62265e-09
1.27589e-07
-2.14679e-10
1.25879e-07
1.70983e-09
1.21359e-07
4.51989e-09
1.13141e-07
8.21815e-09
1.00687e-07
1.24535e-08
8.33938e-08
1.72935e-08
6.08311e-08
2.25628e-08
3.28164e-08
2.80147e-08
-6.84401e-10
3.35008e-08
-3.98893e-08
3.92049e-08
-8.62658e-08
4.63766e-08
-1.423e-07
5.60343e-08
-2.10917e-07
6.86167e-08
-2.94202e-07
8.32854e-08
-3.9097e-07
9.67681e-08
-4.97547e-07
1.06576e-07
-6.1038e-07
1.12833e-07
-7.26014e-07
1.15634e-07
-8.41451e-07
1.15437e-07
-9.54086e-07
1.12635e-07
-1.0618e-06
1.07711e-07
-1.16287e-06
1.01069e-07
-1.25594e-06
9.30787e-08
-1.33999e-06
8.40423e-08
-1.41413e-06
7.41444e-08
-1.47769e-06
6.35633e-08
-1.53006e-06
5.23664e-08
-1.57065e-06
4.05883e-08
-1.59885e-06
2.82008e-08
-1.61458e-06
1.57259e-08
-1.61789e-06
3.31593e-09
-1.60685e-06
-1.104e-08
-1.58237e-06
-2.44825e-08
-1.54329e-06
-3.90793e-08
-1.48979e-06
-5.34973e-08
-1.4217e-06
-6.80923e-08
-1.33937e-06
-8.23336e-08
-1.24326e-06
-9.61057e-08
-1.13404e-06
-1.09218e-07
-1.01264e-06
-1.214e-07
-8.80506e-07
-1.32138e-07
-7.39476e-07
-1.4103e-07
-5.91948e-07
-1.47528e-07
-4.40817e-07
-1.51131e-07
-2.89617e-07
-1.512e-07
-1.42201e-07
-1.47416e-07
-2.58521e-09
-1.39616e-07
1.2611e-07
-1.28695e-07
2.38875e-07
-1.12766e-07
3.3199e-07
-9.31142e-08
4.02266e-07
-7.02766e-08
4.47288e-07
-4.5022e-08
4.65797e-07
-1.85091e-08
4.56664e-07
9.13353e-09
4.22976e-07
3.36881e-08
3.67303e-07
5.56727e-08
2.95908e-07
7.13947e-08
2.18476e-07
7.74324e-08
1.45755e-07
7.27206e-08
8.50452e-08
6.071e-08
4.00946e-08
4.49506e-08
1.14805e-08
2.86141e-08
-7.48577e-10
1.22291e-08
-7.48578e-10
1.07387e-08
-1.24329e-08
4.40591e-08
-4.71798e-08
9.00838e-08
-7.03706e-08
1.36941e-07
-7.49038e-08
1.76969e-07
-6.52945e-08
2.06383e-07
-4.8275e-08
2.24616e-07
-2.93354e-08
2.32699e-07
-1.23742e-08
2.32459e-07
4.16402e-10
2.26272e-07
8.4551e-09
2.1642e-07
1.22123e-08
2.04464e-07
1.31268e-08
1.90873e-07
1.31753e-08
1.75067e-07
1.40994e-08
1.55983e-07
1.69463e-08
1.32482e-07
2.18786e-08
1.0363e-07
2.86372e-08
6.81331e-08
3.72066e-08
2.47493e-08
4.79037e-08
-2.80764e-08
6.10439e-08
-9.2418e-08
7.67951e-08
-1.70013e-07
9.48885e-08
-2.62023e-07
1.14573e-07
-3.69289e-07
1.3528e-07
-4.92349e-07
1.56561e-07
-6.30871e-07
1.77727e-07
-7.82216e-07
1.97721e-07
-9.42053e-07
2.15871e-07
-1.10487e-06
2.31433e-07
-1.26488e-06
2.43297e-07
-1.41874e-06
2.50623e-07
-1.56544e-06
2.5328e-07
-1.70358e-06
2.50978e-07
-1.83194e-06
2.4399e-07
-1.94952e-06
2.33023e-07
-2.0557e-06
2.18805e-07
-2.14998e-06
2.01997e-07
-2.2321e-06
1.83186e-07
-2.30182e-06
1.62806e-07
-2.35903e-06
1.4125e-07
-2.4036e-06
1.18714e-07
-2.43543e-06
9.5387e-08
-2.45442e-06
7.13558e-08
-2.46052e-06
4.66935e-08
-2.45374e-06
2.14251e-08
-2.43335e-06
-4.66652e-09
-2.39953e-06
-3.05022e-08
-2.35269e-06
-5.78847e-08
-2.29172e-06
-8.54539e-08
-2.21721e-06
-1.13586e-07
-2.12878e-06
-1.41929e-07
-2.02652e-06
-1.7035e-07
-1.91037e-06
-1.98485e-07
-1.78056e-06
-2.2592e-07
-1.63771e-06
-2.52063e-07
-1.48298e-06
-2.76135e-07
-1.31765e-06
-2.97469e-07
-1.1436e-06
-3.15079e-07
-9.63177e-07
-3.27947e-07
-7.79099e-07
-3.35208e-07
-5.9441e-07
-3.35889e-07
-4.12541e-07
-3.29286e-07
-2.37034e-07
-3.15122e-07
-7.22856e-08
-2.93444e-07
7.8925e-08
-2.63976e-07
2.13094e-07
-2.27283e-07
3.26802e-07
-1.83984e-07
4.1749e-07
-1.3571e-07
4.8275e-07
-8.37698e-08
5.22185e-07
-3.03011e-08
5.34053e-07
2.18202e-08
5.19053e-07
7.06731e-08
4.79166e-07
1.11281e-07
4.15496e-07
1.41102e-07
3.31599e-07
1.56618e-07
2.37865e-07
1.54444e-07
1.46748e-07
1.36068e-07
7.07099e-08
1.04652e-07
1.98892e-08
6.30497e-08
1.91406e-08
2.0317e-08
-3.27499e-08
6.72763e-08
-9.41392e-08
1.19839e-07
-1.22933e-07
1.66025e-07
-1.21089e-07
2.01409e-07
-1.00679e-07
2.25064e-07
-7.19304e-08
2.37713e-07
-4.19841e-08
2.40351e-07
-1.50121e-08
2.34168e-07
6.599e-09
2.20665e-07
2.19582e-08
2.01232e-07
3.16454e-08
1.76441e-07
3.79178e-08
1.46086e-07
4.35305e-08
1.09329e-07
5.08564e-08
6.49914e-08
6.1284e-08
1.16299e-08
7.524e-08
-5.25059e-08
9.2773e-08
-1.29228e-07
1.13928e-07
-2.20069e-07
1.38745e-07
-3.2623e-07
1.67205e-07
-4.48137e-07
1.98702e-07
-5.85373e-07
2.32124e-07
-7.3684e-07
2.6604e-07
-9.00003e-07
2.98443e-07
-1.07136e-06
3.27913e-07
-1.2466e-06
3.52968e-07
-1.42143e-06
3.7256e-07
-1.59187e-06
3.86304e-07
-1.75433e-06
3.93899e-07
-1.90632e-06
3.95282e-07
-2.04637e-06
3.90676e-07
-2.1736e-06
3.80507e-07
-2.28805e-06
3.6543e-07
-2.39016e-06
3.46104e-07
-2.48025e-06
3.23107e-07
-2.55866e-06
2.97218e-07
-2.62569e-06
2.69027e-07
-2.68158e-06
2.39077e-07
-2.72649e-06
2.0771e-07
-2.76052e-06
1.75284e-07
-2.78374e-06
1.41934e-07
-2.79612e-06
1.07771e-07
-2.79761e-06
7.28454e-08
-2.78809e-06
3.71711e-08
-2.76725e-06
5.80431e-10
-2.73529e-06
-3.66272e-08
-2.69106e-06
-7.4724e-08
-2.63508e-06
-1.13872e-07
-2.56675e-06
-1.5378e-07
-2.4859e-06
-1.94432e-07
-2.3923e-06
-2.35536e-07
-2.28581e-06
-2.76835e-07
-2.16642e-06
-3.17878e-07
-2.03429e-06
-3.58043e-07
-1.8899e-06
-3.96462e-07
-1.73395e-06
-4.32078e-07
-1.56755e-06
-4.63872e-07
-1.39212e-06
-4.90509e-07
-1.20959e-06
-5.10473e-07
-1.0225e-06
-5.22304e-07
-8.33678e-07
-5.2471e-07
-6.46459e-07
-5.16505e-07
-4.64459e-07
-4.97123e-07
-2.9142e-07
-4.66483e-07
-1.30465e-07
-4.24931e-07
1.5303e-08
-3.73051e-07
1.4335e-07
-3.12031e-07
2.51082e-07
-2.43443e-07
3.37069e-07
-1.69756e-07
4.0049e-07
-9.37226e-08
4.40556e-07
-1.82457e-08
4.56804e-07
5.44254e-08
4.48143e-07
1.19942e-07
4.15919e-07
1.73326e-07
3.61786e-07
2.10751e-07
2.88618e-07
2.27612e-07
2.03123e-07
2.21563e-07
1.15915e-07
1.9186e-07
4.07081e-08
1.38256e-07
5.98487e-08
2.82333e-08
-6.09832e-08
8.15885e-08
-1.47494e-07
1.31607e-07
-1.72951e-07
1.69759e-07
-1.59242e-07
1.9486e-07
-1.25779e-07
2.08173e-07
-8.5243e-08
2.10926e-07
-4.47373e-08
2.04262e-07
-8.34825e-09
1.88969e-07
2.18915e-08
1.65508e-07
4.54195e-08
1.33653e-07
6.35003e-08
9.28878e-08
7.86831e-08
4.24262e-08
9.39921e-08
-1.8682e-08
1.11965e-07
-9.15534e-08
1.34155e-07
-1.77566e-07
1.61253e-07
-2.78174e-07
1.9338e-07
-3.94616e-07
2.30371e-07
-5.27395e-07
2.71523e-07
-6.75946e-07
3.15756e-07
-8.38375e-07
3.61132e-07
-1.01147e-06
4.05216e-07
-1.19132e-06
4.45893e-07
-1.37362e-06
4.80742e-07
-1.55424e-06
5.08532e-07
-1.72928e-06
5.28015e-07
-1.8953e-06
5.3858e-07
-2.04968e-06
5.40683e-07
-2.19113e-06
5.3535e-07
-2.31931e-06
5.23458e-07
-2.43446e-06
5.0583e-07
-2.53719e-06
4.83235e-07
-2.62814e-06
4.56376e-07
-2.70802e-06
4.25989e-07
-2.77754e-06
3.92625e-07
-2.83722e-06
3.56898e-07
-2.88746e-06
3.19267e-07
-2.92855e-06
2.80168e-07
-2.96069e-06
2.39841e-07
-2.98391e-06
1.98507e-07
-2.99822e-06
1.56244e-07
-3.00354e-06
1.13091e-07
-2.99969e-06
6.8997e-08
-2.98642e-06
2.39025e-08
-2.96358e-06
-2.22619e-08
-2.93069e-06
-6.95128e-08
-2.8874e-06
-1.1802e-07
-2.83341e-06
-1.67857e-07
-2.76827e-06
-2.18924e-07
-2.69162e-06
-2.71078e-07
-2.60312e-06
-3.24035e-07
-2.50248e-06
-3.77479e-07
-2.38947e-06
-4.30886e-07
-2.26398e-06
-4.83534e-07
-2.12608e-06
-5.34363e-07
-1.9762e-06
-5.81956e-07
-1.81513e-06
-6.24945e-07
-1.64394e-06
-6.61701e-07
-1.46416e-06
-6.90249e-07
-1.27787e-06
-7.08591e-07
-1.08761e-06
-7.14975e-07
-8.96474e-07
-7.07637e-07
-7.08149e-07
-6.85447e-07
-5.26795e-07
-6.47837e-07
-3.56107e-07
-5.95619e-07
-1.99184e-07
-5.29974e-07
-5.89541e-08
-4.52261e-07
6.24448e-08
-3.64842e-07
1.63368e-07
-2.7068e-07
2.42818e-07
-1.73173e-07
3.00468e-07
-7.58947e-08
3.37041e-07
1.78515e-08
3.52491e-07
1.04492e-07
3.46253e-07
1.79564e-07
3.1837e-07
2.38635e-07
2.69638e-07
2.76344e-07
2.03846e-07
2.87356e-07
1.26829e-07
2.68877e-07
4.91022e-08
2.15983e-07
1.08951e-07
3.42892e-08
-9.52724e-08
8.68281e-08
-2.00033e-07
1.2794e-07
-2.14063e-07
1.54435e-07
-1.85737e-07
1.67183e-07
-1.38526e-07
1.68455e-07
-8.65157e-08
1.59638e-07
-3.59205e-08
1.4146e-07
9.82996e-09
1.1408e-07
4.92718e-08
7.70249e-08
8.24745e-08
2.93156e-08
1.1121e-07
-3.02423e-08
1.38241e-07
-1.02813e-07
1.66563e-07
-1.89472e-07
1.98624e-07
-2.91226e-07
2.3591e-07
-4.08905e-07
2.78932e-07
-5.42895e-07
3.2737e-07
-6.92869e-07
3.80345e-07
-8.57261e-07
4.35916e-07
-1.03291e-06
4.91407e-07
-1.21597e-06
5.44188e-07
-1.40189e-06
5.91132e-07
-1.58637e-06
6.30373e-07
-1.76521e-06
6.59591e-07
-1.93415e-06
6.77464e-07
-2.09069e-06
6.84557e-07
-2.23403e-06
6.81918e-07
-2.36421e-06
6.70863e-07
-2.48169e-06
6.52836e-07
-2.58719e-06
6.28958e-07
-2.68157e-06
6.00207e-07
-2.76564e-06
5.67304e-07
-2.84013e-06
5.30867e-07
-2.90567e-06
4.91534e-07
-2.96286e-06
4.49807e-07
-3.01208e-06
4.06127e-07
-3.05367e-06
3.60854e-07
-3.08783e-06
3.14324e-07
-3.11466e-06
2.66677e-07
-3.13419e-06
2.18032e-07
-3.14629e-06
1.6835e-07
-3.15091e-06
1.17706e-07
-3.14782e-06
6.59074e-08
-3.13671e-06
1.27961e-08
-3.11738e-06
-4.15979e-08
-3.08936e-06
-9.75329e-08
-3.05226e-06
-1.55119e-07
-3.00568e-06
-2.14431e-07
-2.94906e-06
-2.75547e-07
-2.88183e-06
-3.38311e-07
-2.80351e-06
-4.02357e-07
-2.71361e-06
-4.67377e-07
-2.61169e-06
-5.32801e-07
-2.49734e-06
-5.97892e-07
-2.37014e-06
-6.61558e-07
-2.23022e-06
-7.21877e-07
-2.07801e-06
-7.77158e-07
-1.91409e-06
-8.25619e-07
-1.73959e-06
-8.64752e-07
-1.5562e-06
-8.91974e-07
-1.36606e-06
-9.0512e-07
-1.17203e-06
-9.01669e-07
-9.77276e-07
-8.80199e-07
-7.85892e-07
-8.3922e-07
-6.02612e-07
-7.789e-07
-4.31638e-07
-7.00947e-07
-2.76053e-07
-6.07846e-07
-1.38573e-07
-5.02322e-07
-2.12885e-08
-3.87964e-07
7.45962e-08
-2.69058e-07
1.48695e-07
-1.49994e-07
2.01561e-07
-3.50142e-08
2.34119e-07
7.19336e-08
2.46873e-07
1.6681e-07
2.40147e-07
2.45361e-07
2.14269e-07
3.02221e-07
1.70223e-07
3.31402e-07
1.11084e-07
3.28016e-07
4.45573e-08
2.82509e-07
1.53508e-07
3.77496e-08
-1.33022e-07
8.28604e-08
-2.45144e-07
1.11144e-07
-2.42347e-07
1.23564e-07
-1.98157e-07
1.23054e-07
-1.38017e-07
1.11615e-07
-7.50762e-08
9.02223e-08
-1.45282e-08
5.89975e-08
4.10547e-08
1.74519e-08
9.08175e-08
-3.55668e-08
1.35493e-07
-1.01452e-07
1.77095e-07
-1.81602e-07
2.18391e-07
-2.77188e-07
2.62148e-07
-3.89034e-07
3.1047e-07
-5.17545e-07
3.6442e-07
-6.62435e-07
4.23822e-07
-8.22538e-07
4.87474e-07
-9.95432e-07
5.53238e-07
-1.1776e-06
6.18081e-07
-1.36444e-06
6.78253e-07
-1.55148e-06
7.31226e-07
-1.73382e-06
7.73468e-07
-1.90636e-06
8.02918e-07
-2.06617e-06
8.194e-07
-2.21248e-06
8.23772e-07
-2.34555e-06
8.17631e-07
-2.46618e-06
8.02547e-07
-2.57537e-06
7.80052e-07
-2.67399e-06
7.51455e-07
-2.76286e-06
7.17826e-07
-2.84271e-06
6.80057e-07
-2.91418e-06
6.38777e-07
-2.97789e-06
5.94581e-07
-3.03435e-06
5.47988e-07
-3.08395e-06
4.99407e-07
-3.127e-06
4.49173e-07
-3.16364e-06
3.97496e-07
-3.19403e-06
3.44712e-07
-3.21826e-06
2.90911e-07
-3.2364e-06
2.36177e-07
-3.24827e-06
1.80218e-07
-3.25396e-06
1.23391e-07
-3.25339e-06
6.53369e-08
-3.24618e-06
5.58402e-09
-3.23251e-06
-5.52658e-08
-3.21172e-06
-1.18325e-07
-3.18333e-06
-1.83504e-07
-3.14687e-06
-2.50892e-07
-3.10175e-06
-3.20665e-07
-3.04723e-06
-3.92837e-07
-2.98253e-06
-4.67054e-07
-2.90681e-06
-5.43092e-07
-2.81933e-06
-6.20282e-07
-2.71962e-06
-6.97609e-07
-2.6071e-06
-7.74076e-07
-2.48112e-06
-8.4786e-07
-2.34153e-06
-9.16744e-07
-2.18838e-06
-9.78771e-07
-2.02224e-06
-1.03089e-06
-1.84454e-06
-1.06968e-06
-1.65673e-06
-1.09293e-06
-1.4615e-06
-1.0969e-06
-1.2618e-06
-1.0799e-06
-1.06142e-06
-1.0396e-06
-8.64881e-07
-9.75437e-07
-6.77578e-07
-8.88251e-07
-5.03984e-07
-7.8144e-07
-3.47467e-07
-6.58839e-07
-2.10877e-07
-5.24554e-07
-9.61992e-08
-3.83735e-07
-4.24047e-09
-2.41952e-07
6.53604e-08
-1.04615e-07
1.13834e-07
2.34598e-08
1.42824e-07
1.3782e-07
1.533e-07
2.34885e-07
1.45917e-07
3.09603e-07
1.21145e-07
3.56174e-07
8.12223e-08
3.67939e-07
3.23661e-08
3.31366e-07
1.85874e-07
3.75946e-08
-1.70617e-07
6.98608e-08
-2.7741e-07
8.31789e-08
-2.55665e-07
8.0784e-08
-1.95762e-07
6.6532e-08
-1.23765e-07
4.18085e-08
-5.03528e-08
6.9208e-09
2.03596e-08
-3.86142e-08
8.65898e-08
-9.5856e-08
1.48059e-07
-1.66214e-07
2.05851e-07
-2.51178e-07
2.62059e-07
-3.5201e-07
3.19222e-07
-4.69507e-07
3.79646e-07
-6.03824e-07
4.44788e-07
-7.54333e-07
5.14929e-07
-9.19413e-07
5.88903e-07
-1.09612e-06
6.64179e-07
-1.2803e-06
7.37418e-07
-1.46729e-06
8.0507e-07
-1.65205e-06
8.63016e-07
-1.82865e-06
9.07825e-07
-1.99316e-06
9.37974e-07
-2.14408e-06
9.53846e-07
-2.28155e-06
9.56871e-07
-2.40647e-06
9.48689e-07
-2.51985e-06
9.3101e-07
-2.62274e-06
9.05436e-07
-2.71611e-06
8.73419e-07
-2.80073e-06
8.36074e-07
-2.87725e-06
7.94348e-07
-2.9462e-06
7.49012e-07
-3.00809e-06
7.00666e-07
-3.06336e-06
6.4985e-07
-3.11236e-06
5.96987e-07
-3.15541e-06
5.42455e-07
-3.19278e-06
4.86549e-07
-3.22443e-06
4.29148e-07
-3.25058e-06
3.70864e-07
-3.27137e-06
3.11694e-07
-3.28684e-06
2.51648e-07
-3.29726e-06
1.90636e-07
-3.30235e-06
1.28486e-07
-3.30205e-06
6.50393e-08
-3.29599e-06
-4.74481e-10
-3.28473e-06
-6.65351e-08
-3.26806e-06
-1.34993e-07
-3.24594e-06
-2.05621e-07
-3.21818e-06
-2.78647e-07
-3.18452e-06
-3.54333e-07
-3.14437e-06
-4.3298e-07
-3.09676e-06
-5.14671e-07
-3.04066e-06
-5.9919e-07
-2.97475e-06
-6.86193e-07
-2.8972e-06
-7.75157e-07
-2.80615e-06
-8.65125e-07
-2.70021e-06
-9.53795e-07
-2.57879e-06
-1.03817e-06
-2.44201e-06
-1.11555e-06
-2.29022e-06
-1.18268e-06
-2.12356e-06
-1.23633e-06
-1.94285e-06
-1.27365e-06
-1.7506e-06
-1.28914e-06
-1.54926e-06
-1.28123e-06
-1.34249e-06
-1.24638e-06
-1.1345e-06
-1.18342e-06
-9.30736e-07
-1.09202e-06
-7.37635e-07
-9.74541e-07
-5.60047e-07
-8.36427e-07
-4.01576e-07
-6.83026e-07
-2.65246e-07
-5.20065e-07
-1.52866e-07
-3.54333e-07
-6.47125e-08
-1.92768e-07
4.45949e-10
-4.16987e-08
4.43342e-08
9.39322e-08
6.95443e-08
2.09675e-07
7.76243e-08
3.01523e-07
6.94101e-08
3.64388e-07
4.71871e-08
3.90162e-07
1.72749e-08
3.61278e-07
2.03149e-07
3.26669e-08
-2.03284e-07
4.95401e-08
-2.94283e-07
4.67407e-08
-2.52866e-07
2.93083e-08
-1.7833e-07
1.04155e-09
-9.5498e-08
-3.74204e-08
-1.18908e-08
-8.65228e-08
6.9462e-08
-1.47218e-07
1.47285e-07
-2.20824e-07
2.21666e-07
-3.08765e-07
2.93792e-07
-4.12301e-07
3.65594e-07
-5.32252e-07
4.39173e-07
-6.68724e-07
5.16118e-07
-8.20989e-07
5.97052e-07
-9.87234e-07
6.81173e-07
-1.16417e-06
7.65844e-07
-1.34738e-06
8.47385e-07
-1.53192e-06
9.21957e-07
-1.71174e-06
9.84894e-07
-1.88166e-06
1.03293e-06
-2.03865e-06
1.06482e-06
-2.18217e-06
1.08149e-06
-2.31269e-06
1.08436e-06
-2.43117e-06
1.07536e-06
-2.5387e-06
1.05622e-06
-2.63637e-06
1.02868e-06
-2.72509e-06
9.94162e-07
-2.80558e-06
9.5391e-07
-2.8784e-06
9.08889e-07
-2.944e-06
8.59953e-07
-3.00279e-06
8.07798e-07
-3.05513e-06
7.53005e-07
-3.10133e-06
6.96054e-07
-3.14159e-06
6.37244e-07
-3.17613e-06
5.76998e-07
-3.2055e-06
5.15919e-07
-3.23047e-06
4.54113e-07
-3.25111e-06
3.9151e-07
-3.26745e-06
3.2803e-07
-3.27931e-06
2.63508e-07
-3.28691e-06
1.98231e-07
-3.29012e-06
1.31699e-07
-3.28903e-06
6.39461e-08
-3.28381e-06
-5.69035e-09
-3.27442e-06
-7.59285e-08
-3.26095e-06
-1.48459e-07
-3.24328e-06
-2.23296e-07
-3.2212e-06
-3.00726e-07
-3.19451e-06
-3.81017e-07
-3.16306e-06
-4.64432e-07
-3.12649e-06
-5.5124e-07
-3.08435e-06
-6.41336e-07
-3.03594e-06
-7.34601e-07
-2.98051e-06
-8.30586e-07
-2.91698e-06
-9.28651e-07
-2.84258e-06
-1.0282e-06
-2.7533e-06
-1.12745e-06
-2.64535e-06
-1.22349e-06
-2.5172e-06
-1.31083e-06
-2.36959e-06
-1.38395e-06
-2.20458e-06
-1.43865e-06
-2.02269e-06
-1.47104e-06
-1.82613e-06
-1.4778e-06
-1.61836e-06
-1.45415e-06
-1.40338e-06
-1.3984e-06
-1.18607e-06
-1.30933e-06
-9.73659e-07
-1.18696e-06
-7.73663e-07
-1.03642e-06
-5.9143e-07
-8.65259e-07
-4.30873e-07
-6.80622e-07
-2.9515e-07
-4.90056e-07
-1.85806e-07
-3.02113e-07
-1.02498e-07
-1.25006e-07
-4.29225e-08
3.43564e-08
-3.90026e-09
1.70653e-07
1.7261e-08
2.80362e-07
2.2988e-08
3.58661e-07
1.62865e-08
3.96864e-07
3.5941e-09
3.7397e-07
2.06743e-07
2.33563e-08
-2.2664e-07
2.34441e-08
-2.94371e-07
3.93475e-09
-2.33357e-07
-2.79541e-08
-1.46441e-07
-7.02174e-08
-5.32347e-08
-1.22793e-07
4.06844e-08
-1.86493e-07
1.33162e-07
-2.62558e-07
2.2335e-07
-3.52317e-07
3.11425e-07
-4.56957e-07
3.98433e-07
-5.77281e-07
4.85918e-07
-7.13417e-07
5.75309e-07
-8.64711e-07
6.67412e-07
-1.02942e-06
7.61762e-07
-1.20409e-06
8.55847e-07
-1.38417e-06
9.45914e-07
-1.5644e-06
1.02762e-06
-1.73864e-06
1.0962e-06
-1.9022e-06
1.14846e-06
-2.05291e-06
1.18364e-06
-2.19036e-06
1.20226e-06
-2.31511e-06
1.20624e-06
-2.42816e-06
1.19741e-06
-2.53061e-06
1.17781e-06
-2.62349e-06
1.14909e-06
-2.70764e-06
1.11282e-06
-2.78369e-06
1.07022e-06
-2.85215e-06
1.02237e-06
-2.91343e-06
9.70169e-07
-2.96791e-06
9.14427e-07
-3.01592e-06
8.55809e-07
-3.05782e-06
7.94913e-07
-3.09409e-06
7.32324e-07
-3.12539e-06
6.68541e-07
-3.15219e-06
6.03801e-07
-3.17431e-06
5.38038e-07
-3.19189e-06
4.71689e-07
-3.20493e-06
4.04553e-07
-3.21369e-06
3.36789e-07
-3.21867e-06
2.68491e-07
-3.22019e-06
1.99749e-07
-3.21869e-06
1.30197e-07
-3.21443e-06
5.96851e-08
-3.20793e-06
-1.2193e-08
-3.19865e-06
-8.52085e-08
-3.18681e-06
-1.60298e-07
-3.17246e-06
-2.37648e-07
-3.15557e-06
-3.17616e-07
-3.13605e-06
-4.00534e-07
-3.11371e-06
-4.86769e-07
-3.08829e-06
-5.76662e-07
-3.05923e-06
-6.70398e-07
-3.02579e-06
-7.68037e-07
-2.98702e-06
-8.69354e-07
-2.94205e-06
-9.73627e-07
-2.8899e-06
-1.08035e-06
-2.82919e-06
-1.18816e-06
-2.75786e-06
-1.29483e-06
-2.67032e-06
-1.39837e-06
-2.55923e-06
-1.49503e-06
-2.42224e-06
-1.57564e-06
-2.26065e-06
-1.63263e-06
-2.07882e-06
-1.65962e-06
-1.87831e-06
-1.65466e-06
-1.66361e-06
-1.6131e-06
-1.43901e-06
-1.53393e-06
-1.211e-06
-1.41497e-06
-9.88694e-07
-1.25873e-06
-7.81113e-07
-1.07284e-06
-5.9423e-07
-8.67504e-07
-4.32257e-07
-6.5203e-07
-2.98385e-07
-4.35985e-07
-1.93639e-07
-2.29752e-07
-1.16643e-07
-4.26397e-08
-6.3912e-08
1.17922e-07
-3.08067e-08
2.47257e-07
-1.34103e-08
3.41264e-07
-6.77871e-09
3.90232e-07
-5.20981e-09
3.72401e-07
2.01534e-07
1.09641e-08
-2.37604e-07
-6.65004e-09
-2.76757e-07
-4.17872e-08
-1.9822e-07
-8.82401e-08
-9.99879e-08
-1.44575e-07
3.09976e-09
-2.11225e-07
1.07335e-07
-2.89374e-07
2.11311e-07
-3.80295e-07
3.14271e-07
-4.85114e-07
4.16243e-07
-6.04592e-07
5.17911e-07
-7.38893e-07
6.20219e-07
-8.87496e-07
7.23911e-07
-1.04887e-06
8.28792e-07
-1.21971e-06
9.32597e-07
-1.39531e-06
1.03145e-06
-1.5703e-06
1.1209e-06
-1.739e-06
1.19632e-06
-1.89708e-06
1.25427e-06
-2.04254e-06
1.29392e-06
-2.17486e-06
1.31596e-06
-2.29468e-06
1.32208e-06
-2.40295e-06
1.31452e-06
-2.50077e-06
1.29523e-06
-2.58904e-06
1.26608e-06
-2.66851e-06
1.22857e-06
-2.73975e-06
1.18407e-06
-2.80324e-06
1.1337e-06
-2.85937e-06
1.0785e-06
-2.90856e-06
1.01936e-06
-2.95123e-06
9.57095e-07
-2.98783e-06
8.92409e-07
-3.01883e-06
8.25915e-07
-3.04458e-06
7.5807e-07
-3.0653e-06
6.89269e-07
-3.08131e-06
6.19808e-07
-3.09309e-06
5.49818e-07
-3.10106e-06
4.79662e-07
-3.10584e-06
4.09324e-07
-3.1079e-06
3.38858e-07
-3.10758e-06
2.68169e-07
-3.10497e-06
1.97134e-07
-3.1003e-06
1.25528e-07
-3.09375e-06
5.31396e-08
-3.08561e-06
-2.03323e-08
-3.07575e-06
-9.50743e-08
-3.06444e-06
-1.71606e-07
-3.05184e-06
-2.50248e-07
-3.03806e-06
-3.31398e-07
-3.02315e-06
-4.15444e-07
-3.00711e-06
-5.02805e-07
-2.9899e-06
-5.93879e-07
-2.97129e-06
-6.89006e-07
-2.9509e-06
-7.88423e-07
-2.92809e-06
-8.92166e-07
-2.90168e-06
-1.00003e-06
-2.87033e-06
-1.1117e-06
-2.83229e-06
-1.2262e-06
-2.78565e-06
-1.34147e-06
-2.72835e-06
-1.45568e-06
-2.65788e-06
-1.5655e-06
-2.56688e-06
-1.66665e-06
-2.44545e-06
-1.75406e-06
-2.29185e-06
-1.81322e-06
-2.10987e-06
-1.83664e-06
-1.90552e-06
-1.81744e-06
-1.68266e-06
-1.75679e-06
-1.44708e-06
-1.65055e-06
-1.2071e-06
-1.4987e-06
-9.74058e-07
-1.30588e-06
-7.58792e-07
-1.08277e-06
-5.68016e-07
-8.42805e-07
-4.0617e-07
-5.97831e-07
-2.76201e-07
-3.5972e-07
-1.78198e-07
-1.40643e-07
-1.09385e-07
4.91092e-08
-6.43662e-08
2.02238e-07
-3.71693e-08
3.14068e-07
-2.02425e-08
3.73305e-07
-9.25804e-09
3.61417e-07
1.92275e-07
-3.20686e-09
-2.34397e-07
-3.79924e-08
-2.41972e-07
-8.86691e-08
-1.47543e-07
-1.49344e-07
-3.93131e-08
-2.19363e-07
7.31188e-08
-2.99699e-07
1.8767e-07
-3.91585e-07
3.03198e-07
-4.96169e-07
4.18855e-07
-6.14217e-07
5.34292e-07
-7.4594e-07
6.49634e-07
-8.90947e-07
7.65226e-07
-1.04798e-06
8.80948e-07
-1.21403e-06
9.94842e-07
-1.3845e-06
1.10306e-06
-1.55411e-06
1.20106e-06
-1.71763e-06
1.28442e-06
-1.87095e-06
1.34964e-06
-2.01191e-06
1.39523e-06
-2.13994e-06
1.42195e-06
-2.25547e-06
1.43149e-06
-2.35949e-06
1.42611e-06
-2.45296e-06
1.40798e-06
-2.53671e-06
1.37898e-06
-2.61137e-06
1.34074e-06
-2.67748e-06
1.29468e-06
-2.73547e-06
1.24206e-06
-2.78577e-06
1.184e-06
-2.82884e-06
1.12157e-06
-2.86518e-06
1.0557e-06
-2.89533e-06
9.87244e-07
-2.91983e-06
9.16908e-07
-2.93921e-06
8.45293e-07
-2.954e-06
7.72859e-07
-2.96472e-06
6.99993e-07
-2.97189e-06
6.26978e-07
-2.97608e-06
5.54001e-07
-2.97765e-06
4.81236e-07
-2.97698e-06
4.08656e-07
-2.97434e-06
3.36218e-07
-2.96996e-06
2.63785e-07
-2.96402e-06
1.91194e-07
-2.95671e-06
1.18221e-07
-2.9482e-06
4.46303e-08
-2.93868e-06
-2.98523e-08
-2.92824e-06
-1.05521e-07
-2.91708e-06
-1.82763e-07
-2.9054e-06
-2.61929e-07
-2.89337e-06
-3.4342e-07
-2.88118e-06
-4.27641e-07
-2.86896e-06
-5.15021e-07
-2.85685e-06
-6.05991e-07
-2.8449e-06
-7.00959e-07
-2.83304e-06
-8.00279e-07
-2.82099e-06
-9.0421e-07
-2.80813e-06
-1.0129e-06
-2.79354e-06
-1.12629e-06
-2.77585e-06
-1.24389e-06
-2.75266e-06
-1.36466e-06
-2.72132e-06
-1.48701e-06
-2.67885e-06
-1.60797e-06
-2.62194e-06
-1.72356e-06
-2.54648e-06
-1.82952e-06
-2.44096e-06
-1.91874e-06
-2.29695e-06
-1.98065e-06
-2.11602e-06
-1.99837e-06
-1.90696e-06
-1.96585e-06
-1.67444e-06
-1.88308e-06
-1.42651e-06
-1.74663e-06
-1.17367e-06
-1.55872e-06
-9.29794e-07
-1.32665e-06
-7.07709e-07
-1.06489e-06
-5.14879e-07
-7.90662e-07
-3.55722e-07
-5.18877e-07
-2.3247e-07
-2.63895e-07
-1.43727e-07
-3.96339e-08
-8.46352e-08
1.43147e-07
-4.77908e-08
2.77223e-07
-2.41131e-08
3.49628e-07
-8.63624e-09
3.4594e-07
1.83639e-07
-1.83783e-08
-2.16019e-07
-6.98564e-08
-1.90493e-07
-1.35076e-07
-8.23234e-08
-2.09225e-07
3.4836e-08
-2.92279e-07
1.56173e-07
-3.85387e-07
2.80779e-07
-4.89762e-07
4.07572e-07
-6.06268e-07
5.35361e-07
-7.35215e-07
6.63239e-07
-8.76335e-07
7.90754e-07
-1.02863e-06
9.17522e-07
-1.18948e-06
1.0418e-06
-1.3546e-06
1.15996e-06
-1.51895e-06
1.26742e-06
-1.67774e-06
1.35984e-06
-1.82701e-06
1.43369e-06
-1.96424e-06
1.48687e-06
-2.08866e-06
1.51965e-06
-2.20057e-06
1.53387e-06
-2.30083e-06
1.53174e-06
-2.39032e-06
1.5156e-06
-2.46976e-06
1.48743e-06
-2.53975e-06
1.44897e-06
-2.60076e-06
1.40176e-06
-2.65327e-06
1.34718e-06
-2.69776e-06
1.28655e-06
-2.73481e-06
1.22105e-06
-2.76506e-06
1.15182e-06
-2.78919e-06
1.07983e-06
-2.80787e-06
1.00593e-06
-2.82181e-06
9.3084e-07
-2.83163e-06
8.55112e-07
-2.83795e-06
7.79178e-07
-2.84131e-06
7.0336e-07
-2.8422e-06
6.27871e-07
-2.84103e-06
5.52832e-07
-2.83809e-06
4.78292e-07
-2.83362e-06
4.04181e-07
-2.8278e-06
3.30399e-07
-2.8208e-06
2.5679e-07
-2.81278e-06
1.83168e-07
-2.80386e-06
1.09307e-07
-2.7942e-06
3.49657e-08
-2.78392e-06
-4.0129e-08
-2.77317e-06
-1.16276e-07
-2.76212e-06
-1.93814e-07
-2.75096e-06
-2.73086e-07
-2.73991e-06
-3.54468e-07
-2.7292e-06
-4.38354e-07
-2.71906e-06
-5.25161e-07
-2.70973e-06
-6.1532e-07
-2.70142e-06
-7.09263e-07
-2.6943e-06
-8.07406e-07
-2.68838e-06
-9.1013e-07
-2.68352e-06
-1.01776e-06
-2.67934e-06
-1.13047e-06
-2.67501e-06
-1.24822e-06
-2.66906e-06
-1.3706e-06
-2.65938e-06
-1.49669e-06
-2.6427e-06
-1.62465e-06
-2.61463e-06
-1.75163e-06
-2.57122e-06
-1.87293e-06
-2.50702e-06
-1.98294e-06
-2.41404e-06
-2.07362e-06
-2.27787e-06
-2.13454e-06
-2.09783e-06
-2.14589e-06
-1.8824e-06
-2.0985e-06
-1.63856e-06
-1.99048e-06
-1.37703e-06
-1.82025e-06
-1.11107e-06
-1.59261e-06
-8.57364e-07
-1.3186e-06
-6.30734e-07
-1.01729e-06
-4.39075e-07
-7.10537e-07
-2.86365e-07
-4.16605e-07
-1.73317e-07
-1.52683e-07
-9.64574e-08
6.62875e-08
-4.84106e-08
2.29176e-07
-2.0031e-08
3.21248e-07
-4.40534e-09
3.30314e-07
1.79234e-07
-3.35364e-08
-1.82482e-07
-1.00509e-07
-1.23521e-07
-1.79368e-07
-3.46421e-09
-2.66053e-07
1.21521e-07
-3.61108e-07
2.51228e-07
-4.6572e-07
3.8539e-07
-5.80941e-07
5.22793e-07
-7.07285e-07
6.61705e-07
-8.44645e-07
8.00598e-07
-9.92246e-07
9.38355e-07
-1.14787e-06
1.07315e-06
-1.3077e-06
1.20164e-06
-1.46712e-06
1.31938e-06
-1.62166e-06
1.42195e-06
-1.76749e-06
1.50567e-06
-1.90179e-06
1.56799e-06
-2.02335e-06
1.60843e-06
-2.13234e-06
1.62865e-06
-2.22944e-06
1.63097e-06
-2.31546e-06
1.61776e-06
-2.39107e-06
1.59121e-06
-2.4568e-06
1.55316e-06
-2.51316e-06
1.50532e-06
-2.56066e-06
1.44925e-06
-2.59989e-06
1.38642e-06
-2.63157e-06
1.31823e-06
-2.65649e-06
1.24597e-06
-2.67546e-06
1.17079e-06
-2.68931e-06
1.09368e-06
-2.69883e-06
1.01545e-06
-2.70472e-06
9.36732e-07
-2.70763e-06
8.58019e-07
-2.7081e-06
7.7965e-07
-2.70659e-06
7.01849e-07
-2.70346e-06
6.24738e-07
-2.69898e-06
5.48355e-07
-2.69335e-06
4.72663e-07
-2.68673e-06
3.97558e-07
-2.67923e-06
3.22899e-07
-2.67095e-06
2.48512e-07
-2.66198e-06
1.74201e-07
-2.65242e-06
9.97415e-08
-2.64234e-06
2.48939e-08
-2.63187e-06
-5.06041e-08
-2.62111e-06
-1.27031e-07
-2.61024e-06
-2.0469e-07
-2.59942e-06
-2.83898e-07
-2.5889e-06
-3.64996e-07
-2.5789e-06
-4.48346e-07
-2.56973e-06
-5.34335e-07
-2.56168e-06
-6.23371e-07
-2.55506e-06
-7.15883e-07
-2.55016e-06
-8.12307e-07
-2.54721e-06
-9.13084e-07
-2.54633e-06
-1.01863e-06
-2.5475e-06
-1.1293e-06
-2.5504e-06
-1.24531e-06
-2.55433e-06
-1.36667e-06
-2.558e-06
-1.49303e-06
-2.55921e-06
-1.62344e-06
-2.55467e-06
-1.75617e-06
-2.53948e-06
-1.88811e-06
-2.50789e-06
-2.01453e-06
-2.45375e-06
-2.12777e-06
-2.36826e-06
-2.22003e-06
-2.23716e-06
-2.27699e-06
-2.05592e-06
-2.27974e-06
-1.83192e-06
-2.21448e-06
-1.57495e-06
-2.07722e-06
-1.29902e-06
-1.86854e-06
-1.02066e-06
-1.59696e-06
-7.59734e-07
-1.27822e-06
-5.32683e-07
-9.37587e-07
-3.47129e-07
-6.02159e-07
-2.05884e-07
-2.93928e-07
-1.07383e-07
-3.22138e-08
-4.55792e-08
1.67373e-07
-1.20557e-08
2.87725e-07
1.78025e-09
3.16478e-07
1.81014e-07
-4.79899e-08
-1.34492e-07
-1.29068e-07
-4.24434e-08
-2.20117e-07
8.75855e-08
-3.18258e-07
2.19662e-07
-4.23995e-07
3.56965e-07
-5.3854e-07
4.99935e-07
-6.62719e-07
6.46973e-07
-7.96705e-07
7.95691e-07
-9.39942e-07
9.43836e-07
-1.09059e-06
1.08901e-06
-1.2454e-06
1.22795e-06
-1.40031e-06
1.35654e-06
-1.5511e-06
1.47017e-06
-1.69406e-06
1.56491e-06
-1.82617e-06
1.63778e-06
-1.94572e-06
1.68754e-06
-2.05257e-06
1.71528e-06
-2.14727e-06
1.72335e-06
-2.23052e-06
1.71422e-06
-2.30297e-06
1.69021e-06
-2.36515e-06
1.65339e-06
-2.41758e-06
1.60559e-06
-2.46085e-06
1.5486e-06
-2.49568e-06
1.48408e-06
-2.52291e-06
1.41365e-06
-2.54347e-06
1.33879e-06
-2.55831e-06
1.26081e-06
-2.56836e-06
1.18085e-06
-2.57449e-06
1.0998e-06
-2.57744e-06
1.0184e-06
-2.57789e-06
9.37176e-07
-2.57636e-06
8.56487e-07
-2.57328e-06
7.76571e-07
-2.56898e-06
6.9755e-07
-2.5637e-06
6.1946e-07
-2.55761e-06
5.42262e-07
-2.55081e-06
4.65862e-07
-2.54337e-06
3.90127e-07
-2.53537e-06
3.14891e-07
-2.52682e-06
2.39963e-07
-2.51776e-06
1.65145e-07
-2.50824e-06
9.02231e-08
-2.49832e-06
1.49671e-08
-2.48805e-06
-6.08712e-08
-2.47754e-06
-1.37537e-07
-2.46694e-06
-2.153e-07
-2.45639e-06
-2.9444e-07
-2.44613e-06
-3.75258e-07
-2.43641e-06
-4.5807e-07
-2.42752e-06
-5.43223e-07
-2.4198e-06
-6.31086e-07
-2.41363e-06
-7.22058e-07
-2.40937e-06
-8.16569e-07
-2.40738e-06
-9.15074e-07
-2.40796e-06
-1.01805e-06
-2.41133e-06
-1.12594e-06
-2.41748e-06
-1.23916e-06
-2.42616e-06
-1.35799e-06
-2.43669e-06
-1.4825e-06
-2.44779e-06
-1.61234e-06
-2.45734e-06
-1.74662e-06
-2.46196e-06
-1.88349e-06
-2.45676e-06
-2.01973e-06
-2.43444e-06
-2.15009e-06
-2.38778e-06
-2.26669e-06
-2.30654e-06
-2.35822e-06
-2.17642e-06
-2.40986e-06
-1.99084e-06
-2.40007e-06
-1.75562e-06
-2.31244e-06
-1.48396e-06
-2.14021e-06
-1.19358e-06
-1.88734e-06
-9.05027e-07
-1.56676e-06
-6.41714e-07
-1.2009e-06
-4.20597e-07
-8.23276e-07
-2.48085e-07
-4.6644e-07
-1.24743e-07
-1.55556e-07
-4.61799e-08
8.88098e-08
-5.33731e-09
2.46882e-07
7.33651e-09
3.03805e-07
1.88351e-07
-6.11399e-08
-7.33525e-08
-1.54492e-07
5.0909e-08
-2.5655e-07
1.89643e-07
-3.64651e-07
3.27764e-07
-4.79504e-07
4.71818e-07
-6.02211e-07
6.22641e-07
-7.33362e-07
7.78124e-07
-8.7272e-07
9.3505e-07
-1.01883e-06
1.08994e-06
-1.16899e-06
1.23917e-06
-1.31983e-06
1.37879e-06
-1.46738e-06
1.5041e-06
-1.60801e-06
1.61081e-06
-1.73859e-06
1.6955e-06
-1.857e-06
1.75618e-06
-1.9626e-06
1.79314e-06
-2.05576e-06
1.80844e-06
-2.13711e-06
1.80469e-06
-2.20726e-06
1.78437e-06
-2.26677e-06
1.74971e-06
-2.31619e-06
1.70281e-06
-2.3562e-06
1.6456e-06
-2.38762e-06
1.58002e-06
-2.41141e-06
1.50788e-06
-2.42864e-06
1.43088e-06
-2.44036e-06
1.35051e-06
-2.4476e-06
1.26805e-06
-2.45127e-06
1.18452e-06
-2.45217e-06
1.10071e-06
-2.45097e-06
1.0172e-06
-2.44819e-06
9.34398e-07
-2.44425e-06
8.52542e-07
-2.43943e-06
7.71757e-07
-2.43395e-06
6.92074e-07
-2.42795e-06
6.13453e-07
-2.42148e-06
5.35799e-07
-2.4146e-06
4.58975e-07
-2.40729e-06
3.82824e-07
-2.39958e-06
3.07174e-07
-2.39143e-06
2.31819e-07
-2.38285e-06
1.56563e-07
-2.37384e-06
8.12096e-08
-2.36442e-06
5.54933e-09
-2.35463e-06
-7.06553e-08
-2.34456e-06
-1.47608e-07
-2.33432e-06
-2.25546e-07
-2.32405e-06
-3.0471e-07
-2.31395e-06
-3.85356e-07
-2.30427e-06
-4.67753e-07
-2.2953e-06
-5.52196e-07
-2.28738e-06
-6.39006e-07
-2.2809e-06
-7.28538e-07
-2.27628e-06
-8.21187e-07
-2.27396e-06
-9.17392e-07
-2.27437e-06
-1.01764e-06
-2.27788e-06
-1.12243e-06
-2.28474e-06
-1.2323e-06
-2.29501e-06
-1.34773e-06
-2.30842e-06