/*--------------------------------*- C++ -*----------------------------------*\
  =========                 |
  \\      /  F ield         | OpenFOAM: The Open Source CFD Toolbox
   \\    /   O peration     | Website:  https://openfoam.org
    \\  /    A nd           | Version:  13
     \\/     M anipulation  |
\*---------------------------------------------------------------------------*/
FoamFile
{
    format      ascii;
    class       volVectorField;
    location    "8.7";
    object      U;
}
// * * * * * * * * * * * * * * * * * * * * * * * * * * * * * * * * * * * * * //

dimensions      [0 1 -1 0 0 0 0];

internalField   nonuniform List<vector> 
6400
(
(-0.000127074 8.33672e-05 0)
(0.000451738 -0.000176212 0)
(0.00211879 -0.000440904 0)
(0.00431653 -0.000557571 0)
(0.00649917 -0.000490848 0)
(0.00831562 -0.000326752 0)
(0.00952009 -0.000130218 0)
(0.0101194 1.63619e-05 0)
(0.0102418 6.96123e-05 0)
(0.010133 4.678e-05 0)
(0.00991634 -3.34168e-05 0)
(0.00976231 -0.000141726 0)
(0.00973359 -0.000253374 0)
(0.00982785 -0.000343725 0)
(0.00999557 -0.00041619 0)
(0.0101575 -0.000468895 0)
(0.0102386 -0.000501683 0)
(0.0101877 -0.000502574 0)
(0.00996033 -0.000481914 0)
(0.00946195 -0.000439905 0)
(0.00865721 -0.000390967 0)
(0.00748501 -0.000341317 0)
(0.00590523 -0.000294571 0)
(0.00388945 -0.000277518 0)
(0.00140136 -0.000327925 0)
(-0.00152442 -0.000444271 0)
(-0.00493523 -0.000481507 0)
(-0.00905517 -0.000283912 0)
(-0.0139926 0.00026092 0)
(-0.0198009 0.00115055 0)
(-0.0271887 0.00219602 0)
(-0.0353871 0.00307895 0)
(-0.0442506 0.00378745 0)
(-0.0534694 0.00430957 0)
(-0.0627867 0.00465196 0)
(-0.0719671 0.00482974 0)
(-0.0808255 0.00486777 0)
(-0.0892067 0.0047895 0)
(-0.0969948 0.00461739 0)
(-0.104091 0.0043692 0)
(-0.110421 0.0040567 0)
(-0.115922 0.00368842 0)
(-0.120549 0.00326647 0)
(-0.124282 0.00279504 0)
(-0.127093 0.00228873 0)
(-0.128763 0.00181494 0)
(-0.129452 0.00138223 0)
(-0.129296 0.000651244 0)
(-0.127734 9.97198e-05 0)
(-0.125252 -0.000593079 0)
(-0.121478 -0.00123108 0)
(-0.116625 -0.00190029 0)
(-0.110556 -0.00253711 0)
(-0.103385 -0.00316178 0)
(-0.0951452 -0.00376979 0)
(-0.0859242 -0.00435206 0)
(-0.0757462 -0.00485853 0)
(-0.0648037 -0.005287 0)
(-0.0532524 -0.00560474 0)
(-0.0413077 -0.00577934 0)
(-0.0292124 -0.00577415 0)
(-0.0172496 -0.00557667 0)
(-0.00563914 -0.00518581 0)
(0.00512671 -0.00468622 0)
(0.0147308 -0.00391275 0)
(0.0230064 -0.002971 0)
(0.0296136 -0.00190494 0)
(0.0342748 -0.000752 0)
(0.0370148 0.000408167 0)
(0.0372248 0.0016153 0)
(0.0357589 0.0022808 0)
(0.0321679 0.00286255 0)
(0.0268507 0.00305681 0)
(0.0207007 0.00275544 0)
(0.0144892 0.00205634 0)
(0.00901822 0.00121514 0)
(0.0047297 0.00052848 0)
(0.00177631 0.00012036 0)
(0.000143324 -0.000170268 0)
(-0.00023879 -0.000347428 0)
(1.63121e-05 -0.000388993 0)
(0.00183752 -0.0021301 0)
(0.00529726 -0.00357724 0)
(0.00914923 -0.0040604 0)
(0.0126923 -0.00366667 0)
(0.0155091 -0.00278357 0)
(0.0174224 -0.00170917 0)
(0.0184627 -0.00073487 0)
(0.0187549 -4.53179e-05 0)
(0.0184627 0.000330029 0)
(0.0177855 0.000433884 0)
(0.0168926 0.000350399 0)
(0.0158696 0.000202177 0)
(0.0147081 0.000101726 0)
(0.013336 0.000112152 0)
(0.0116507 0.000245973 0)
(0.00956802 0.000481693 0)
(0.00701732 0.000807236 0)
(0.00388533 0.00123781 0)
(6.55832e-05 0.00178332 0)
(-0.00455152 0.00244806 0)
(-0.0102074 0.00325115 0)
(-0.016974 0.00415349 0)
(-0.0249235 0.00514913 0)
(-0.0341021 0.00625589 0)
(-0.0446151 0.00748018 0)
(-0.0563406 0.00884674 0)
(-0.0689283 0.0103542 0)
(-0.0819923 0.0119368 0)
(-0.0949989 0.0134151 0)
(-0.10745 0.0144998 0)
(-0.119533 0.0151641 0)
(-0.130961 0.0154166 0)
(-0.141655 0.0152854 0)
(-0.151517 0.0148408 0)
(-0.160483 0.014134 0)
(-0.168511 0.0132214 0)
(-0.175569 0.0121474 0)
(-0.181643 0.0109501 0)
(-0.186719 0.00965765 0)
(-0.190783 0.00828709 0)
(-0.193835 0.00685516 0)
(-0.195863 0.00536835 0)
(-0.196867 0.00383771 0)
(-0.196834 0.00227281 0)
(-0.19573 0.000686295 0)
(-0.193568 -0.000945918 0)
(-0.190347 -0.00266835 0)
(-0.185999 -0.0044203 0)
(-0.180594 -0.00621083 0)
(-0.174056 -0.00801639 0)
(-0.166428 -0.00982259 0)
(-0.157675 -0.011606 0)
(-0.14783 -0.0133357 0)
(-0.136898 -0.0149778 0)
(-0.124967 -0.0164815 0)
(-0.112148 -0.0178119 0)
(-0.0985387 -0.0189066 0)
(-0.0843229 -0.019697 0)
(-0.0697159 -0.0201323 0)
(-0.0549304 -0.0201458 0)
(-0.0402254 -0.0196979 0)
(-0.0258834 -0.0187668 0)
(-0.0122265 -0.0173785 0)
(0.000465682 -0.0154576 0)
(0.0119355 -0.0130738 0)
(0.021905 -0.0102736 0)
(0.0301324 -0.00715658 0)
(0.036451 -0.00380468 0)
(0.0406831 -0.000403569 0)
(0.0428161 0.00280365 0)
(0.0427234 0.00574914 0)
(0.0404984 0.00816315 0)
(0.0363653 0.00970928 0)
(0.0303661 0.00992082 0)
(0.0229935 0.00897342 0)
(0.0152518 0.00712846 0)
(0.00824919 0.0048133 0)
(0.00307079 0.00232695 0)
(0.000226806 0.000275224 0)
(0.000207968 -0.00165746 0)
(0.00324552 -0.0054622 0)
(0.00756337 -0.00771457 0)
(0.0115886 -0.00797437 0)
(0.0148851 -0.00685134 0)
(0.017246 -0.00501844 0)
(0.0187016 -0.00305311 0)
(0.0193128 -0.001283 0)
(0.0191567 0.000110081 0)
(0.0183387 0.0010448 0)
(0.0170041 0.00155529 0)
(0.0152285 0.00178805 0)
(0.0130275 0.00193975 0)
(0.0103625 0.00218491 0)
(0.00714152 0.0026316 0)
(0.00326634 0.00330298 0)
(-0.0013934 0.00419303 0)
(-0.00699491 0.00531241 0)
(-0.0136655 0.00668519 0)
(-0.0215246 0.00834463 0)
(-0.0306542 0.0102933 0)
(-0.041022 0.0124652 0)
(-0.0526085 0.0147799 0)
(-0.0652615 0.0171168 0)
(-0.0787243 0.0193497 0)
(-0.0926906 0.0213882 0)
(-0.106789 0.0231333 0)
(-0.120703 0.0245245 0)
(-0.134094 0.0255038 0)
(-0.146708 0.0260487 0)
(-0.158387 0.0261523 0)
(-0.16908 0.0258145 0)
(-0.178729 0.0250816 0)
(-0.187394 0.02399 0)
(-0.195076 0.0225876 0)
(-0.201811 0.0209442 0)
(-0.207623 0.0191073 0)
(-0.212537 0.0171212 0)
(-0.216563 0.0150168 0)
(-0.219715 0.0128299 0)
(-0.222001 0.0105692 0)
(-0.223422 0.00824801 0)
(-0.223975 0.00587384 0)
(-0.223653 0.00344602 0)
(-0.222442 0.000966556 0)
(-0.220327 -0.00157076 0)
(-0.217275 -0.00417921 0)
(-0.213273 -0.00685442 0)
(-0.208297 -0.00956405 0)
(-0.202331 -0.012323 0)
(-0.195348 -0.015105 0)
(-0.187341 -0.0178939 0)
(-0.178298 -0.0206566 0)
(-0.168229 -0.023351 0)
(-0.157153 -0.0259182 0)
(-0.145117 -0.0282877 0)
(-0.132206 -0.0303909 0)
(-0.11851 -0.0321317 0)
(-0.104154 -0.033417 0)
(-0.0893309 -0.0341539 0)
(-0.0742568 -0.0342534 0)
(-0.0591639 -0.0336409 0)
(-0.0443397 -0.0322875 0)
(-0.0300891 -0.0301993 0)
(-0.0166814 -0.0273651 0)
(-0.00434646 -0.0238268 0)
(0.00666126 -0.0196571 0)
(0.0161278 -0.0149749 0)
(0.0239195 -0.00993232 0)
(0.0299187 -0.00471396 0)
(0.034103 0.000455966 0)
(0.0364374 0.00534614 0)
(0.0367891 0.00960916 0)
(0.035077 0.0129772 0)
(0.0316199 0.01522 0)
(0.0264817 0.0157515 0)
(0.0198554 0.0146582 0)
(0.0126355 0.0120147 0)
(0.00590717 0.00794416 0)
(0.000788569 0.00294654 0)
(0.000434305 -0.00364472 0)
(0.00432828 -0.00964422 0)
(0.00873671 -0.0119837 0)
(0.01226 -0.0114386 0)
(0.0147862 -0.00931048 0)
(0.0163155 -0.00654395 0)
(0.0169518 -0.00371483 0)
(0.0167887 -0.00116607 0)
(0.0159073 0.000905456 0)
(0.0143636 0.00243343 0)
(0.0121555 0.0035039 0)
(0.00925912 0.00430896 0)
(0.00562249 0.00508398 0)
(0.00117414 0.00603213 0)
(-0.00415948 0.00727243 0)
(-0.0104823 0.00885657 0)
(-0.0179148 0.0107999 0)
(-0.0265745 0.0131055 0)
(-0.0365378 0.0157617 0)
(-0.0478118 0.0187307 0)
(-0.0603026 0.0219139 0)
(-0.073803 0.0251615 0)
(-0.0880192 0.0282958 0)
(-0.102581 0.0311502 0)
(-0.117192 0.0336299 0)
(-0.131505 0.0355485 0)
(-0.14523 0.0368165 0)
(-0.158092 0.0374559 0)
(-0.169934 0.0375285 0)
(-0.180721 0.0370837 0)
(-0.190434 0.0361775 0)
(-0.199131 0.0348492 0)
(-0.206856 0.0331394 0)
(-0.213679 0.0311177 0)
(-0.21964 0.0288316 0)
(-0.2248 0.0263358 0)
(-0.22919 0.0236715 0)
(-0.232839 0.0208811 0)
(-0.235763 0.0179874 0)
(-0.237974 0.015011 0)
(-0.239475 0.0119631 0)
(-0.240259 0.00884925 0)
(-0.240318 0.00566966 0)
(-0.239636 0.0024225 0)
(-0.238197 -0.000894145 0)
(-0.235969 -0.00428891 0)
(-0.232925 -0.00776346 0)
(-0.229037 -0.0113301 0)
(-0.224275 -0.0149715 0)
(-0.218605 -0.0186817 0)
(-0.212 -0.0224392 0)
(-0.204435 -0.026221 0)
(-0.195887 -0.029988 0)
(-0.186343 -0.0336846 0)
(-0.175799 -0.0372305 0)
(-0.164275 -0.0405291 0)
(-0.15182 -0.0434853 0)
(-0.138512 -0.0459831 0)
(-0.124448 -0.0478813 0)
(-0.109768 -0.04904 0)
(-0.0946708 -0.0493413 0)
(-0.0793697 -0.0486728 0)
(-0.0641296 -0.0469682 0)
(-0.0492707 -0.0441992 0)
(-0.0351383 -0.0404383 0)
(-0.0219824 -0.0357449 0)
(-0.0100382 -0.0302093 0)
(0.00047713 -0.0239899 0)
(0.00941012 -0.0173019 0)
(0.0166531 -0.0103843 0)
(0.0221588 -0.00348433 0)
(0.0259406 0.00316927 0)
(0.0280488 0.00926894 0)
(0.0284819 0.0144079 0)
(0.0271142 0.0182448 0)
(0.0239886 0.0204772 0)
(0.0192735 0.0206672 0)
(0.0133745 0.0186664 0)
(0.00696782 0.0142753 0)
(0.00108327 0.00674707 0)
(0.000721099 -0.00619844 0)
(0.00501056 -0.0140554 0)
(0.00887794 -0.0157701 0)
(0.0115151 -0.0140923 0)
(0.0130687 -0.010864 0)
(0.0136171 -0.00714801 0)
(0.0133097 -0.00349333 0)
(0.012233 -0.000205325 0)
(0.0104229 0.00256419 0)
(0.0078651 0.00480484 0)
(0.0044946 0.00663693 0)
(0.000222275 0.00827705 0)
(-0.00504505 0.00997136 0)
(-0.0113958 0.0119249 0)
(-0.018912 0.0142667 0)
(-0.027671 0.0170536 0)
(-0.03773 0.0202896 0)
(-0.0491038 0.0239367 0)
(-0.0617215 0.0278916 0)
(-0.0753999 0.0320047 0)
(-0.0898426 0.0360482 0)
(-0.104693 0.039825 0)
(-0.119591 0.0431958 0)
(-0.134231 0.0458842 0)
(-0.148229 0.0477681 0)
(-0.161278 0.0488658 0)
(-0.173293 0.0491999 0)
(-0.184222 0.0488309 0)
(-0.194115 0.0478625 0)
(-0.203014 0.0463887 0)
(-0.210983 0.0444906 0)
(-0.218106 0.0422348 0)
(-0.224432 0.0396722 0)
(-0.23002 0.0368544 0)
(-0.234917 0.0338239 0)
(-0.239168 0.0306215 0)
(-0.242794 0.0272811 0)
(-0.245819 0.0238324 0)
(-0.248258 0.0202899 0)
(-0.250111 0.0166676 0)
(-0.251377 0.0129688 0)
(-0.252047 0.00919514 0)
(-0.252109 0.00533799 0)
(-0.251543 0.00139192 0)
(-0.250333 -0.00264637 0)
(-0.248444 -0.00678941 0)
(-0.245844 -0.0110451 0)
(-0.242499 -0.0154212 0)
(-0.238379 -0.0199161 0)
(-0.23343 -0.0245154 0)
(-0.227614 -0.0291987 0)
(-0.220891 -0.0339412 0)
(-0.213221 -0.0386974 0)
(-0.204567 -0.043403 0)
(-0.194907 -0.0479634 0)
(-0.184218 -0.0522546 0)
(-0.172523 -0.0561596 0)
(-0.159865 -0.0595339 0)
(-0.146311 -0.0621953 0)
(-0.131966 -0.0639674 0)
(-0.116995 -0.0646924 0)
(-0.101584 -0.064198 0)
(-0.0859932 -0.0623806 0)
(-0.0704689 -0.0591772 0)
(-0.0553901 -0.0546245 0)
(-0.0411647 -0.0488561 0)
(-0.0280445 -0.0420097 0)
(-0.016262 -0.0342953 0)
(-0.00601926 -0.0259721 0)
(0.00254285 -0.0173431 0)
(0.00935866 -0.00871934 0)
(0.0144425 -0.000391309 0)
(0.0178639 0.00733807 0)
(0.0196949 0.0141433 0)
(0.019951 0.019661 0)
(0.0186384 0.0234455 0)
(0.0157663 0.0250497 0)
(0.0115468 0.0241549 0)
(0.00633978 0.0201425 0)
(0.000956814 0.0105789 0)
(0.0010373 -0.00915014 0)
(0.00519373 -0.0180915 0)
(0.00808615 -0.018571 0)
(0.00958928 -0.0156936 0)
(0.0100662 -0.011367 0)
(0.00957678 -0.00674981 0)
(0.00826569 -0.00229919 0)
(0.00617624 0.00174419 0)
(0.0032896 0.00528804 0)
(-0.000464604 0.00837185 0)
(-0.00519381 0.0111499 0)
(-0.0110135 0.0138485 0)
(-0.0180255 0.016703 0)
(-0.0263097 0.0199013 0)
(-0.0359187 0.0235523 0)
(-0.0468637 0.0276772 0)
(-0.0590928 0.0322162 0)
(-0.0724725 0.0370661 0)
(-0.0867696 0.0419938 0)
(-0.101617 0.0467437 0)
(-0.116666 0.0511457 0)
(-0.131565 0.0548507 0)
(-0.145858 0.0576711 0)
(-0.159195 0.0595493 0)
(-0.171439 0.0604487 0)
(-0.182603 0.06046 0)
(-0.192736 0.0597104 0)
(-0.201908 0.0583286 0)
(-0.210204 0.056426 0)
(-0.217682 0.0540894 0)
(-0.224414 0.051395 0)
(-0.230453 0.0483969 0)
(-0.235847 0.0451464 0)
(-0.240643 0.0416872 0)
(-0.244879 0.0380527 0)
(-0.24858 0.0342728 0)
(-0.251762 0.0303727 0)
(-0.25444 0.0263794 0)
(-0.256624 0.0223009 0)
(-0.258318 0.0181433 0)
(-0.259519 0.0139054 0)
(-0.260222 0.00958461 0)
(-0.260424 0.00516336 0)
(-0.260109 0.00062706 0)
(-0.259287 -0.00404485 0)
(-0.257914 -0.00886248 0)
(-0.255954 -0.0138279 0)
(-0.253365 -0.0189432 0)
(-0.250107 -0.0242143 0)
(-0.246136 -0.0296353 0)
(-0.24138 -0.0351789 0)
(-0.235777 -0.0408152 0)
(-0.229253 -0.0464873 0)
(-0.221749 -0.0521323 0)
(-0.213283 -0.0577038 0)
(-0.203759 -0.0630408 0)
(-0.193125 -0.0679772 0)
(-0.18141 -0.0723512 0)
(-0.168639 -0.0759404 0)
(-0.154856 -0.078524 0)
(-0.14022 -0.0799049 0)
(-0.124853 -0.079851 0)
(-0.109018 -0.0782386 0)
(-0.0929611 -0.0749057 0)
(-0.0769885 -0.0698431 0)
(-0.0615275 -0.0631683 0)
(-0.047027 -0.0551423 0)
(-0.0337518 -0.0460006 0)
(-0.0219628 -0.0360578 0)
(-0.011863 -0.0256907 0)
(-0.00357079 -0.0152941 0)
(0.00289542 -0.00524459 0)
(0.00760631 0.00411815 0)
(0.0106938 0.0124698 0)
(0.0122722 0.0194933 0)
(0.0123959 0.0247596 0)
(0.0110739 0.0277908 0)
(0.00840565 0.0281165 0)
(0.00473088 0.024808 0)
(0.000582846 0.0137533 0)
(0.00128989 -0.0122399 0)
(0.00481764 -0.0212368 0)
(0.00639106 -0.0202649 0)
(0.00676909 -0.0160911 0)
(0.00608531 -0.010771 0)
(0.00452555 -0.00530494 0)
(0.00215529 -5.74515e-05 0)
(-0.00103561 0.0047984 0)
(-0.00511476 0.00922408 0)
(-0.0101877 0.0132967 0)
(-0.016375 0.0171857 0)
(-0.0237883 0.0211081 0)
(-0.0325112 0.0252718 0)
(-0.0425857 0.0298254 0)
(-0.0539996 0.0348256 0)
(-0.0666577 0.0402243 0)
(-0.0804072 0.0458801 0)
(-0.0949423 0.0515434 0)
(-0.109874 0.0569945 0)
(-0.124868 0.0618645 0)
(-0.139456 0.0658797 0)
(-0.153159 0.0688406 0)
(-0.165784 0.0706677 0)
(-0.177305 0.0714149 0)
(-0.187786 0.0712231 0)
(-0.197297 0.0702301 0)
(-0.205926 0.0685662 0)
(-0.213758 0.0663529 0)
(-0.220863 0.063687 0)
(-0.227293 0.060649 0)
(-0.233101 0.0573041 0)
(-0.238322 0.0536997 0)
(-0.242999 0.0498798 0)
(-0.247163 0.0458801 0)
(-0.250841 0.0417317 0)
(-0.254052 0.0374618 0)
(-0.256808 0.0330963 0)
(-0.259117 0.0286547 0)
(-0.260992 0.0241389 0)
(-0.262434 0.0195532 0)
(-0.263477 0.0148324 0)
(-0.264097 0.0100503 0)
(-0.264289 0.00516763 0)
(-0.264038 0.000173582 0)
(-0.263334 -0.00496328 0)
(-0.262216 -0.0102499 0)
(-0.260662 -0.0157177 0)
(-0.258673 -0.0213955 0)
(-0.25622 -0.0273138 0)
(-0.253283 -0.0334687 0)
(-0.249786 -0.0398107 0)
(-0.245651 -0.0463314 0)
(-0.240792 -0.0529911 0)
(-0.235098 -0.0597178 0)
(-0.228374 -0.066369 0)
(-0.22052 -0.0727837 0)
(-0.211402 -0.0787699 0)
(-0.201063 -0.0842069 0)
(-0.189568 -0.0889099 0)
(-0.176787 -0.0925253 0)
(-0.162905 -0.0948389 0)
(-0.147936 -0.0955196 0)
(-0.132168 -0.0944082 0)
(-0.115784 -0.0912903 0)
(-0.0991283 -0.0860939 0)
(-0.0825285 -0.0788369 0)
(-0.0665315 -0.0697912 0)
(-0.0516295 -0.0593302 0)
(-0.0381043 -0.0478022 0)
(-0.0262428 -0.035656 0)
(-0.0162493 -0.0233864 0)
(-0.00821568 -0.0114827 0)
(-0.00211625 -0.000378859 0)
(0.00221035 0.00957048 0)
(0.00496325 0.0180577 0)
(0.00628039 0.0247176 0)
(0.00625223 0.029103 0)
(0.00494285 0.0306033 0)
(0.00274153 0.0280031 0)
(0.000114804 0.0157807 0)
(0.0013864 -0.0151185 0)
(0.00378058 -0.0232221 0)
(0.00411029 -0.0207056 0)
(0.00324043 -0.0152669 0)
(0.00140506 -0.00905878 0)
(-0.00125259 -0.00277554 0)
(-0.00473272 0.0032988 0)
(-0.00909256 0.00904519 0)
(-0.0144321 0.0144614 0)
(-0.0208664 0.0196433 0)
(-0.0285055 0.0247567 0)
(-0.0374349 0.0299918 0)
(-0.0476955 0.0355094 0)
(-0.0592678 0.0413916 0)
(-0.0720528 0.0476279 0)
(-0.0858653 0.0540675 0)
(-0.100363 0.060452 0)
(-0.115189 0.0665062 0)
(-0.129897 0.0718518 0)
(-0.143994 0.076183 0)
(-0.157101 0.0792799 0)
(-0.169119 0.0811323 0)
(-0.180067 0.0818473 0)
(-0.190006 0.0815739 0)
(-0.199024 0.0804483 0)
(-0.20721 0.0786121 0)
(-0.21465 0.0761862 0)
(-0.221405 0.0732775 0)
(-0.227526 0.069968 0)
(-0.233052 0.0663291 0)
(-0.238019 0.062418 0)
(-0.242456 0.0582816 0)
(-0.246392 0.053962 0)
(-0.249846 0.049497 0)
(-0.252833 0.0449249 0)
(-0.255357 0.0402795 0)
(-0.257533 0.0354856 0)
(-0.259357 0.030611 0)
(-0.260835 0.0256564 0)
(-0.261966 0.0206225 0)
(-0.262742 0.0155593 0)
(-0.26317 0.0103843 0)
(-0.263254 0.00511143 0)
(-0.263002 -0.000283077 0)
(-0.262406 -0.00581262 0)
(-0.261493 -0.0114858 0)
(-0.260247 -0.017331 0)
(-0.258663 -0.0233597 0)
(-0.256719 -0.0295799 0)
(-0.254391 -0.0360353 0)
(-0.251671 -0.0427926 0)
(-0.248526 -0.0498315 0)
(-0.244917 -0.0571383 0)
(-0.240783 -0.0646833 0)
(-0.236046 -0.0724329 0)
(-0.230585 -0.080183 0)
(-0.224119 -0.0876839 0)
(-0.216315 -0.0946353 0)
(-0.206849 -0.1006 0)
(-0.195737 -0.105382 0)
(-0.183319 -0.108944 0)
(-0.169379 -0.110716 0)
(-0.154227 -0.110518 0)
(-0.137995 -0.108031 0)
(-0.121029 -0.103136 0)
(-0.103639 -0.0957732 0)
(-0.0862743 -0.086032 0)
(-0.0696464 -0.0744043 0)
(-0.0542685 -0.0613964 0)
(-0.0404627 -0.0474744 0)
(-0.0285412 -0.0332349 0)
(-0.0187042 -0.0192987 0)
(-0.0110066 -0.00624093 0)
(-0.00533727 0.00547832 0)
(-0.0014619 0.0154995 0)
(0.000895783 0.0235359 0)
(0.00194001 0.0291831 0)
(0.00182071 0.0317759 0)
(0.000870508 0.0296996 0)
(-0.000266722 0.0165755 0)
(0.00128746 -0.0174837 0)
(0.00232172 -0.0239067 0)
(0.0013352 -0.0197806 0)
(-0.000764327 -0.0132816 0)
(-0.00373594 -0.0062291 0)
(-0.00750902 0.000871884 0)
(-0.0121289 0.00781739 0)
(-0.0176866 0.0145276 0)
(-0.0242913 0.021018 0)
(-0.0320467 0.0273827 0)
(-0.0410351 0.0337652 0)
(-0.0512973 0.040311 0)
(-0.0628116 0.0471136 0)
(-0.0755006 0.0541889 0)
(-0.0891686 0.0614095 0)
(-0.103446 0.068513 0)
(-0.117984 0.0751647 0)
(-0.13231 0.0810021 0)
(-0.145886 0.0856718 0)
(-0.15849 0.089007 0)
(-0.170013 0.0910047 0)
(-0.180486 0.0918061 0)
(-0.189974 0.091539 0)
(-0.198573 0.0903697 0)
(-0.206366 0.0884341 0)
(-0.213432 0.0858665 0)
(-0.219828 0.08277 0)
(-0.225599 0.0792371 0)
(-0.23078 0.0753411 0)
(-0.235401 0.0711478 0)
(-0.239493 0.0667119 0)
(-0.243082 0.0620818 0)
(-0.246195 0.0573009 0)
(-0.248877 0.0523846 0)
(-0.251192 0.04735 0)
(-0.25316 0.0422246 0)
(-0.25475 0.0370881 0)
(-0.255969 0.0318947 0)
(-0.256835 0.026642 0)
(-0.257371 0.0213262 0)
(-0.25762 0.0159447 0)
(-0.257614 0.0104786 0)
(-0.257379 0.00492427 0)
(-0.256942 -0.000740087 0)
(-0.256316 -0.00653066 0)
(-0.255465 -0.0124786 0)
(-0.254418 -0.0186141 0)
(-0.253167 -0.024966 0)
(-0.251711 -0.0315585 0)
(-0.250038 -0.038409 0)
(-0.248133 -0.0455283 0)
(-0.24596 -0.0529196 0)
(-0.243474 -0.0605725 0)
(-0.240612 -0.0684478 0)
(-0.237278 -0.0764712 0)
(-0.233387 -0.0847294 0)
(-0.228918 -0.0931671 0)
(-0.223686 -0.101558 0)
(-0.217442 -0.109491 0)
(-0.209707 -0.116438 0)
(-0.199707 -0.121569 0)
(-0.187685 -0.124759 0)
(-0.173987 -0.125935 0)
(-0.158624 -0.124588 0)
(-0.14195 -0.120517 0)
(-0.124317 -0.113602 0)
(-0.106058 -0.103765 0)
(-0.0878307 -0.0913137 0)
(-0.0704862 -0.076945 0)
(-0.0546042 -0.0613347 0)
(-0.0405475 -0.0450835 0)
(-0.028649 -0.0289494 0)
(-0.0190895 -0.0136766 0)
(-0.0118589 9.21654e-05 0)
(-0.00674847 0.0118759 0)
(-0.00340053 0.02137 0)
(-0.00145925 0.0282388 0)
(-0.000605295 0.0317572 0)
(-0.000457554 0.0301039 0)
(-0.000384893 0.0164357 0)
(0.00103363 -0.0187951 0)
(0.000583571 -0.0231817 0)
(-0.00174218 -0.0175553 0)
(-0.00501803 -0.0101322 0)
(-0.00911633 -0.00227525 0)
(-0.0140093 0.00565352 0)
(-0.0197693 0.0135086 0)
(-0.0265031 0.0212327 0)
(-0.0343119 0.0288386 0)
(-0.0432735 0.0363998 0)
(-0.0534278 0.0440195 0)
(-0.0647564 0.0517815 0)
(-0.0771981 0.0597193 0)
(-0.0905798 0.0677356 0)
(-0.104536 0.0755606 0)
(-0.118677 0.0828514 0)
(-0.132557 0.0892352 0)
(-0.145696 0.0943391 0)
(-0.157864 0.0980171 0)
(-0.168979 0.100292 0)
(-0.179044 0.101259 0)
(-0.188147 0.101091 0)
(-0.196368 0.0999458 0)
(-0.203795 0.0979803 0)
(-0.21049 0.0953207 0)
(-0.216508 0.0920832 0)
(-0.221888 0.0883589 0)
(-0.226663 0.0842319 0)
(-0.230867 0.0797722 0)
(-0.234531 0.0750442 0)
(-0.237691 0.0701022 0)
(-0.240382 0.0649941 0)
(-0.242645 0.0597589 0)
(-0.244502 0.0544416 0)
(-0.245959 0.0490671 0)
(-0.247068 0.0436335 0)
(-0.247841 0.0381606 0)
(-0.248338 0.0326431 0)
(-0.2486 0.0270959 0)
(-0.248671 0.0215198 0)
(-0.248546 0.0159107 0)
(-0.24825 0.0102484 0)
(-0.247799 0.00451824 0)
(-0.247209 -0.00130398 0)
(-0.246484 -0.00724029 0)
(-0.245632 -0.013326 0)
(-0.244674 -0.0195874 0)
(-0.243615 -0.0260577 0)
(-0.242465 -0.0327685 0)
(-0.241226 -0.0397532 0)
(-0.239896 -0.0470421 0)
(-0.238467 -0.0546585 0)
(-0.236916 -0.0626159 0)
(-0.2352 -0.0709053 0)
(-0.233246 -0.0794828 0)
(-0.230965 -0.0882632 0)
(-0.228238 -0.0971302 0)
(-0.224889 -0.105918 0)
(-0.220744 -0.11468 0)
(-0.215725 -0.123209 0)
(-0.209415 -0.130869 0)
(-0.20118 -0.136811 0)
(-0.190021 -0.139855 0)
(-0.176561 -0.140216 0)
(-0.161029 -0.137557 0)
(-0.143884 -0.131732 0)
(-0.125436 -0.122501 0)
(-0.106216 -0.109954 0)
(-0.0870356 -0.0945888 0)
(-0.0689299 -0.0773616 0)
(-0.0525717 -0.0591512 0)
(-0.0383623 -0.0407152 0)
(-0.0266398 -0.0229852 0)
(-0.0175363 -0.00681922 0)
(-0.0109458 0.00708813 0)
(-0.00651244 0.0182837 0)
(-0.00372723 0.0264506 0)
(-0.00213803 0.0307558 0)
(-0.00115537 0.0295413 0)
(-0.000360752 0.0158414 0)
(0.000707587 -0.0191206 0)
(-0.00133116 -0.0210469 0)
(-0.00492324 -0.0141046 0)
(-0.00933735 -0.00583063 0)
(-0.0145455 0.00279643 0)
(-0.0205329 0.0115537 0)
(-0.0273925 0.0203372 0)
(-0.0352295 0.0290895 0)
(-0.0441242 0.0378016 0)
(-0.0541172 0.0465091 0)
(-0.0651959 0.0552609 0)
(-0.077312 0.0640892 0)
(-0.0903203 0.0729259 0)
(-0.103886 0.0815079 0)
(-0.117602 0.0894814 0)
(-0.131037 0.0964742 0)
(-0.143788 0.102138 0)
(-0.155591 0.106287 0)
(-0.166354 0.108934 0)
(-0.176081 0.110176 0)
(-0.18484 0.110185 0)
(-0.192722 0.109141 0)
(-0.199793 0.107198 0)
(-0.206118 0.104497 0)
(-0.211739 0.10115 0)
(-0.216693 0.0972627 0)
(-0.221014 0.0929222 0)
(-0.224738 0.0882117 0)
(-0.227903 0.0832038 0)
(-0.23055 0.0779651 0)
(-0.232723 0.0725523 0)
(-0.234466 0.067014 0)
(-0.235821 0.0613882 0)
(-0.23683 0.0557063 0)
(-0.237534 0.0499905 0)
(-0.237981 0.0442564 0)
(-0.2382 0.0385221 0)
(-0.238229 0.0327898 0)
(-0.238091 0.0270586 0)
(-0.237807 0.0213197 0)
(-0.237389 0.0155626 0)
(-0.236855 0.00976878 0)
(-0.236219 0.00391992 0)
(-0.235495 -0.00200693 0)
(-0.234691 -0.00803475 0)
(-0.233823 -0.0141963 0)
(-0.232905 -0.0205197 0)
(-0.231953 -0.0270374 0)
(-0.23098 -0.033782 0)
(-0.229999 -0.0407884 0)
(-0.229023 -0.0480908 0)
(-0.22806 -0.0557208 0)
(-0.22711 -0.0637056 0)
(-0.22616 -0.0720637 0)
(-0.225174 -0.0808011 0)
(-0.224097 -0.089903 0)
(-0.222833 -0.0993019 0)
(-0.221238 -0.108857 0)
(-0.219128 -0.118341 0)
(-0.216255 -0.127485 0)
(-0.212303 -0.136159 0)
(-0.207143 -0.14423 0)
(-0.200166 -0.150569 0)
(-0.190303 -0.153916 0)
(-0.177088 -0.153328 0)
(-0.161449 -0.149339 0)
(-0.143681 -0.141487 0)
(-0.124306 -0.129698 0)
(-0.104033 -0.114211 0)
(-0.0838579 -0.0957508 0)
(-0.0650203 -0.0755945 0)
(-0.0482972 -0.0548551 0)
(-0.0341216 -0.0344849 0)
(-0.0228027 -0.0155906 0)
(-0.014383 0.000867903 0)
(-0.00860925 0.0141844 0)
(-0.00489731 0.0239072 0)
(-0.00272099 0.0290678 0)
(-0.00123331 0.0283883 0)
(-0.000188736 0.0150248 0)
(0.000119297 -0.0182549 0)
(-0.00333624 -0.0175686 0)
(-0.00808558 -0.00944604 0)
(-0.013584 -0.000415791 0)
(-0.0198531 0.00894496 0)
(-0.0268758 0.018519 0)
(-0.034752 0.028222 0)
(-0.0435749 0.0379764 0)
(-0.053394 0.0477344 0)
(-0.0642049 0.0574816 0)
(-0.0759688 0.0672211 0)
(-0.0885677 0.0769022 0)
(-0.101709 0.0862776 0)
(-0.114996 0.0949943 0)
(-0.128019 0.102679 0)
(-0.140421 0.109005 0)
(-0.151925 0.113756 0)
(-0.162393 0.116884 0)
(-0.171836 0.118506 0)
(-0.180303 0.118784 0)
(-0.187875 0.11791 0)
(-0.194619 0.116051 0)
(-0.200584 0.113348 0)
(-0.205814 0.109928 0)
(-0.210344 0.105899 0)
(-0.214212 0.101364 0)
(-0.21746 0.0964134 0)
(-0.220137 0.0911356 0)
(-0.222296 0.0856072 0)
(-0.223993 0.079897 0)
(-0.225282 0.0740624 0)
(-0.226218 0.0681506 0)
(-0.226851 0.062198 0)
(-0.227227 0.056233 0)
(-0.227388 0.0502762 0)
(-0.227371 0.0443415 0)
(-0.2272 0.0384372 0)
(-0.226898 0.032559 0)
(-0.226483 0.0267008 0)
(-0.225966 0.0208509 0)
(-0.225362 0.014995 0)
(-0.224682 0.00911523 0)
(-0.223936 0.00319229 0)
(-0.223135 -0.00279606 0)
(-0.22229 -0.00887364 0)
(-0.221413 -0.0150695 0)
(-0.220521 -0.0214119 0)
(-0.219628 -0.0279321 0)
(-0.218752 -0.0346626 0)
(-0.217912 -0.0416377 0)
(-0.217129 -0.0488924 0)
(-0.216419 -0.056461 0)
(-0.2158 -0.0643752 0)
(-0.215278 -0.0726625 0)
(-0.214851 -0.0813444 0)
(-0.2145 -0.0904317 0)
(-0.214178 -0.0999132 0)
(-0.213798 -0.109744 0)
(-0.213218 -0.119821 0)
(-0.212227 -0.129922 0)
(-0.210541 -0.139684 0)
(-0.207788 -0.148658 0)
(-0.203546 -0.156731 0)
(-0.197489 -0.163281 0)
(-0.18861 -0.166658 0)
(-0.175722 -0.165298 0)
(-0.159855 -0.159786 0)
(-0.141317 -0.149657 0)
(-0.120898 -0.135039 0)
(-0.099503 -0.116364 0)
(-0.0783671 -0.0946526 0)
(-0.0589302 -0.0715564 0)
(-0.0420715 -0.0484667 0)
(-0.0282235 -0.0265658 0)
(-0.0176135 -0.00713717 0)
(-0.0101436 0.00881048 0)
(-0.00529204 0.0205423 0)
(-0.00249894 0.0269666 0)
(-0.00080983 0.0270793 0)
(6.75396e-05 0.0144492 0)
(-0.000467639 -0.0161341 0)
(-0.00529116 -0.0127951 0)
(-0.0111091 -0.00366442 0)
(-0.0176237 0.00604289 0)
(-0.0248791 0.0160966 0)
(-0.0328476 0.0264595 0)
(-0.0416259 0.037044 0)
(-0.051287 0.0477355 0)
(-0.0618434 0.0584362 0)
(-0.073264 0.0690866 0)
(-0.0854536 0.0796249 0)
(-0.0981652 0.089819 0)
(-0.111036 0.0993346 0)
(-0.123686 0.107795 0)
(-0.135779 0.114879 0)
(-0.14704 0.120348 0)
(-0.157285 0.124091 0)
(-0.166496 0.126198 0)
(-0.174725 0.126846 0)
(-0.182033 0.126221 0)
(-0.188485 0.124507 0)
(-0.194128 0.121855 0)
(-0.199 0.1184 0)
(-0.203142 0.114264 0)
(-0.206596 0.109559 0)
(-0.209416 0.104395 0)
(-0.211661 0.0988694 0)
(-0.213398 0.0930753 0)
(-0.214693 0.087092 0)
(-0.215611 0.0809873 0)
(-0.216212 0.0748159 0)
(-0.216551 0.0686202 0)
(-0.216675 0.0624315 0)
(-0.216625 0.0562721 0)
(-0.216433 0.0501557 0)
(-0.216123 0.0440884 0)
(-0.215715 0.0380704 0)
(-0.215222 0.0320944 0)
(-0.214655 0.0261507 0)
(-0.214022 0.0202261 0)
(-0.21333 0.0143049 0)
(-0.212586 0.00836906 0)
(-0.211799 0.00239913 0)
(-0.210974 -0.00362631 0)
(-0.210122 -0.00973039 0)
(-0.209253 -0.0159389 0)
(-0.208381 -0.0222786 0)
(-0.207522 -0.0287782 0)
(-0.206696 -0.0354684 0)
(-0.205923 -0.0423816 0)
(-0.205228 -0.049552 0)
(-0.204635 -0.0570146 0)
(-0.204169 -0.0648043 0)
(-0.203851 -0.072955 0)
(-0.203696 -0.0814969 0)
(-0.203711 -0.0904529 0)
(-0.203883 -0.0998324 0)
(-0.204175 -0.109625 0)
(-0.204511 -0.119793 0)
(-0.204753 -0.130244 0)
(-0.204687 -0.140801 0)
(-0.203999 -0.151119 0)
(-0.202273 -0.160623 0)
(-0.198957 -0.168678 0)
(-0.193541 -0.175124 0)
(-0.185217 -0.178268 0)
(-0.172558 -0.176082 0)
(-0.156256 -0.168796 0)
(-0.136794 -0.156091 0)
(-0.115218 -0.138311 0)
(-0.092689 -0.116174 0)
(-0.0707302 -0.0910817 0)
(-0.0509733 -0.0651443 0)
(-0.0343555 -0.040043 0)
(-0.0212516 -0.0172554 0)
(-0.0117483 0.00184194 0)
(-0.00547111 0.0161882 0)
(-0.0019197 0.0245125 0)
(-0.000100591 0.0258894 0)
(0.00036259 0.0143613 0)
(-0.00105839 -0.0128428 0)
(-0.0071231 -0.00684315 0)
(-0.0139013 0.00316058 0)
(-0.0213396 0.0134638 0)
(-0.0294866 0.0241579 0)
(-0.0382874 0.0352597 0)
(-0.0478307 0.0466591 0)
(-0.0581645 0.058191 0)
(-0.0692732 0.069708 0)
(-0.0810796 0.0810954 0)
(-0.0933772 0.0921158 0)
(-0.105856 0.102468 0)
(-0.118174 0.111777 0)
(-0.130002 0.119709 0)
(-0.141066 0.126001 0)
(-0.151156 0.130488 0)
(-0.160206 0.133206 0)
(-0.168254 0.134326 0)
(-0.175358 0.134045 0)
(-0.181572 0.132551 0)
(-0.186947 0.130012 0)
(-0.191519 0.126574 0)
(-0.195331 0.122374 0)
(-0.198438 0.117539 0)
(-0.2009 0.112193 0)
(-0.20279 0.106453 0)
(-0.204184 0.100424 0)
(-0.20516 0.0941977 0)
(-0.205789 0.0878512 0)
(-0.206137 0.0814467 0)
(-0.20626 0.0750315 0)
(-0.206206 0.06864 0)
(-0.206014 0.0622954 0)
(-0.205713 0.0560116 0)
(-0.205326 0.0497945 0)
(-0.204868 0.0436438 0)
(-0.20435 0.0375541 0)
(-0.20378 0.0315159 0)
(-0.203161 0.0255164 0)
(-0.202497 0.0195411 0)
(-0.201792 0.0135745 0)
(-0.201048 0.00759839 0)
(-0.200269 0.00159396 0)
(-0.199459 -0.00445888 0)
(-0.198626 -0.0105814 0)
(-0.197778 -0.0167966 0)
(-0.196927 -0.0231284 0)
(-0.19609 -0.0296025 0)
(-0.195285 -0.0362463 0)
(-0.194534 -0.0430893 0)
(-0.193863 -0.0501629 0)
(-0.1933 -0.0575008 0)
(-0.192876 -0.0651384 0)
(-0.192619 -0.0731124 0)
(-0.192559 -0.0814594 0)
(-0.192715 -0.090213 0)
(-0.193098 -0.0993993 0)
(-0.193701 -0.109031 0)
(-0.194488 -0.119099 0)
(-0.195386 -0.129558 0)
(-0.196262 -0.140316 0)
(-0.196902 -0.151203 0)
(-0.196977 -0.161912 0)
(-0.196024 -0.171876 0)
(-0.193451 -0.18024 0)
(-0.188488 -0.186291 0)
(-0.180347 -0.188881 0)
(-0.167657 -0.185629 0)
(-0.150674 -0.176237 0)
(-0.130123 -0.160544 0)
(-0.107317 -0.139209 0)
(-0.0837254 -0.113295 0)
(-0.0612425 -0.0847664 0)
(-0.0416228 -0.0562631 0)
(-0.0258035 -0.0297545 0)
(-0.0140032 -0.00698923 0)
(-0.00602948 0.0106115 0)
(-0.00149084 0.0215732 0)
(0.000573461 0.0248417 0)
(0.000570696 0.0147181 0)
(-0.00161854 -0.00845186 0)
(-0.00876466 0.000165897 0)
(-0.0163926 0.0109228 0)
(-0.024652 0.0217428 0)
(-0.0335713 0.0330137 0)
(-0.0430715 0.0447864 0)
(-0.0532295 0.0569108 0)
(-0.0640668 0.0691704 0)
(-0.0755313 0.0813529 0)
(-0.0874447 0.0931873 0)
(-0.0995637 0.104387 0)
(-0.111589 0.114596 0)
(-0.123191 0.123448 0)
(-0.134106 0.130658 0)
(-0.144101 0.136011 0)
(-0.153065 0.139476 0)
(-0.161003 0.141188 0)
(-0.16797 0.141353 0)
(-0.174018 0.140169 0)
(-0.179191 0.137818 0)
(-0.183535 0.134463 0)
(-0.187095 0.130254 0)
(-0.189931 0.125337 0)
(-0.192116 0.119854 0)
(-0.193733 0.113937 0)
(-0.194867 0.107706 0)
(-0.195604 0.101268 0)
(-0.196022 0.0947073 0)
(-0.196188 0.0880946 0)
(-0.196164 0.0814818 0)
(-0.195994 0.0749062 0)
(-0.195718 0.0683924 0)
(-0.195362 0.0619546 0)
(-0.194947 0.0555986 0)
(-0.194486 0.0493239 0)
(-0.193986 0.0431249 0)
(-0.193451 0.0369921 0)
(-0.192884 0.0309141 0)
(-0.192283 0.0248772 0)
(-0.191649 0.0188648 0)
(-0.190979 0.0128615 0)
(-0.190275 0.00685102 0)
(-0.189537 0.00081493 0)
(-0.188767 -0.0052648 0)
(-0.187971 -0.0114073 0)
(-0.187156 -0.0176326 0)
(-0.186331 -0.0239614 0)
(-0.185512 -0.030416 0)
(-0.184715 -0.0370198 0)
(-0.183963 -0.0437987 0)
(-0.18328 -0.0507803 0)
(-0.182696 -0.0579953 0)
(-0.182244 -0.0654772 0)
(-0.181958 -0.0732623 0)
(-0.181875 -0.0813899 0)
(-0.182026 -0.0898999 0)
(-0.182439 -0.0988312 0)
(-0.183127 -0.108216 0)
(-0.184084 -0.118074 0)
(-0.185275 -0.128399 0)
(-0.18662 -0.139145 0)