/*--------------------------------*- C++ -*----------------------------------*\
  =========                 |
  \\      /  F ield         | OpenFOAM: The Open Source CFD Toolbox
   \\    /   O peration     | Website:  https://openfoam.org
    \\  /    A nd           | Version:  13
     \\/     M anipulation  |
\*---------------------------------------------------------------------------*/
FoamFile
{
    format      ascii;
    class       volScalarField;
    location    "7";
    object      k;
}
// * * * * * * * * * * * * * * * * * * * * * * * * * * * * * * * * * * * * * //

dimensions      [0 2 -2 0 0 0 0];

internalField   nonuniform List<scalar> 
400
(
5.0841e-06
1.59394e-05
7.31831e-05
0.000165655
0.000231782
0.000280875
0.000320443
0.000358178
0.000391128
0.000424848
0.000456372
0.000489701
0.000523208
0.000546671
0.0005575
0.000558812
0.000519233
0.000410893
0.000252388
0.000182372
2.39495e-05
8.70499e-05
0.000198461
0.000352781
0.000421201
0.000499114
0.000543775
0.000608339
0.00065985
0.000720721
0.000777959
0.00083799
0.000892369
0.000949799
0.00100192
0.00102819
0.0010346
0.000932318
0.00061664
0.000375509
8.36373e-05
0.000288066
0.000457493
0.000540676
0.000600423
0.000653179
0.00069433
0.000745456
0.000790354
0.000837414
0.000880222
0.000921239
0.000960456
0.0010056
0.00105129
0.00108621
0.00109874
0.00105233
0.000764721
0.000486794
0.000192911
0.000496867
0.000589339
0.000630153
0.000666668
0.000695575
0.000725976
0.000760289
0.000791455
0.000822765
0.000847348
0.000874348
0.000911141
0.000960844
0.00102664
0.00109685
0.00113025
0.00113315
0.00090717
0.000559377
0.000281353
0.000611475
0.000646752
0.000653279
0.000670454
0.000690671
0.000712491
0.000726384
0.000730502
0.000728234
0.000728023
0.000745071
0.000783665
0.000849264
0.000950245
0.00108266
0.00117904
0.00120327
0.0010332
0.000613985
0.000333378
0.000651265
0.000655234
0.000650714
0.00066168
0.000667381
0.000664041
0.000640968
0.000613083
0.000594272
0.00058673
0.000592048
0.000629634
0.000703442
0.000827893
0.00100982
0.00120485
0.0012857
0.00117136
0.000658104
0.00034404
0.000645961
0.00064918
0.000639933
0.00063722
0.00062041
0.000592182
0.000549493
0.00050864
0.000479932
0.000467431
0.000466358
0.0004979
0.000569515
0.000700797
0.000914384
0.00120714
0.00136328
0.00130153
0.000692481
0.00033906
0.0006298
0.00063371
0.000617595
0.000604355
0.000574724
0.000531366
0.000479233
0.000433309
0.000400953
0.000386003
0.000383199
0.000406569
0.000467528
0.00058827
0.000806895
0.00115108
0.00143009
0.00144082
0.000720548
0.000326099
0.000596505
0.000606902
0.000592759
0.000574939
0.000538489
0.000488162
0.000433393
0.000387326
0.000354988
0.000339437
0.000336037
0.000353011
0.000401531
0.000505788
0.000711255
0.0010739
0.00147556
0.00156165
0.000740279
0.000299987
0.000567318
0.00058135
0.000570707
0.000551744
0.000513371
0.000461703
0.000408181
0.000364181
0.000333455
0.00031765
0.000314436
0.000327747
0.000366513
0.00045292
0.000641407
0.00100391
0.00149595
0.00168499
0.000755372
0.000272642
0.000528039
0.000552709
0.000548918
0.000532532
0.000496504
0.000447807
0.000397993
0.000357333
0.000328374
0.000311737
0.00030828
0.000319246
0.000351758
0.000426682
0.000594369
0.000947424
0.00150238
0.00178729
0.000762747
0.000248996
0.000494771
0.000531273
0.000531492
0.000519454
0.000487715
0.000443327
0.000398787
0.000360341
0.000332593
0.000316133
0.000312266
0.000320217
0.000348485
0.000417453
0.00057142
0.000902096
0.00150321
0.00187232
0.000766027
0.000223203
0.000450725
0.000504746
0.000512157
0.000505396
0.000481959
0.000444358
0.000403801
0.000369252
0.000343888
0.000328234
0.000325449
0.00033274
0.000358081
0.000419844
0.000564221
0.000877571
0.00150061
0.00191319
0.000766669
0.000199597
0.000422269
0.000489786
0.000501902
0.000497312
0.000481022
0.00044866
0.000414284
0.000384255
0.00036177
0.000347157
0.000346175
0.00035385
0.000379346
0.000439565
0.000575332
0.00086926
0.00149503
0.00192571
0.000764711
0.000172139
0.000375631
0.000464135
0.000490646
0.000492074
0.000482871
0.000458622
0.000429338
0.000403451
0.000384204
0.000371505
0.000372346
0.000381426
0.000408665
0.000470094
0.000605597
0.000877999
0.00149151
0.00188291
0.000753349
0.000144785
0.000347295
0.000450576
0.000491748
0.000498688
0.000492758
0.000476559
0.00045213
0.000429223
0.000411725
0.000400747
0.000402758
0.000413959
0.000444888
0.000511762
0.000660805
0.000914122
0.00149088
0.00178922
0.000729185
0.00011267
0.000284609
0.000414464
0.000494073
0.000518633
0.000516877
0.000507044
0.000486175
0.000464713
0.000447587
0.000439842
0.000444147
0.000460293
0.000500885
0.000582355
0.000766206
0.00101013
0.0015165
0.00162711
0.000689709
7.52431e-05
0.000251812
0.000425316
0.000527035
0.00058474
0.000585998
0.000579431
0.000563065
0.0005446
0.000531894
0.000534678
0.000549259
0.000583958
0.000658548
0.000779357
0.00104246
0.00130566
0.00158967
0.00145441
0.000634075
8.53378e-05
0.000274785
0.00048243
0.000604722
0.000682402
0.000715965
0.000737438
0.00075364
0.000778677
0.00081629
0.000877841
0.000965872
0.0010869
0.00126432
0.00147105
0.00177045
0.00185314
0.00172163
0.00135679
0.00055527
6.15444e-05
9.74846e-05
0.000179494
0.000258262
0.000320016
0.000360072
0.000383777
0.000399011
0.000406603
0.000413648
0.000417319
0.000424662
0.000430564
0.000443515
0.000452658
0.000473719
0.000496587
0.000520618
0.000514714
0.000458761
)
;

boundaryField
{
    movingWall
    {
        type            kqRWallFunction;
        value           nonuniform List<scalar> 
20
(
6.15444e-05
9.74846e-05
0.000179494
0.000258262
0.000320016
0.000360072
0.000383777
0.000399011
0.000406603
0.000413648
0.000417319
0.000424662
0.000430564
0.000443515
0.000452658
0.000473719
0.000496587
0.000520618
0.000514714
0.000458761
)
;
    }
    fixedWalls
    {
        type            kqRWallFunction;
        value           nonuniform List<scalar> 
60
(
5.0841e-06
2.39495e-05
8.36373e-05
0.000192911
0.000281353
0.000333378
0.00034404
0.00033906
0.000326099
0.000299987
0.000272642
0.000248996
0.000223203
0.000199597
0.000172139
0.000144785
0.00011267
7.52431e-05
8.53378e-05
6.15444e-05
0.000182372
0.000375509
0.000486794
0.000559377
0.000613985
0.000658104
0.000692481
0.000720548
0.000740279
0.000755372
0.000762747
0.000766027
0.000766669
0.000764711
0.000753349
0.000729185
0.000689709
0.000634075
0.00055527
0.000458761
5.0841e-06
1.59394e-05
7.31831e-05
0.000165655
0.000231782
0.000280875
0.000320443
0.000358178
0.000391128
0.000424848
0.000456372
0.000489701
0.000523208
0.000546671
0.0005575
0.000558812
0.000519233
0.000410893
0.000252388
0.000182372
)
;
    }
    frontAndBack
    {
        type            empty;
    }
}


// ************************************************************************* //
