/*--------------------------------*- C++ -*----------------------------------*\
  =========                 |
  \\      /  F ield         | OpenFOAM: The Open Source CFD Toolbox
   \\    /   O peration     | Website:  https://openfoam.org
    \\  /    A nd           | Version:  13
     \\/     M anipulation  |
\*---------------------------------------------------------------------------*/
FoamFile
{
    format      ascii;
    class       volScalarField;
    location    "7";
    object      k;
}
// * * * * * * * * * * * * * * * * * * * * * * * * * * * * * * * * * * * * * //

dimensions      [0 2 -2 0 0 0 0];

internalField   nonuniform List<scalar> 
1600
(
2.00771e-06
7.01761e-06
1.38025e-05
1.3964e-05
1.28495e-05
1.31656e-05
1.69e-05
2.84746e-05
4.26193e-05
6.06109e-05
9.49503e-05
0.000119118
0.000130381
0.000143361
0.000164918
0.000193613
0.000220886
0.000251748
0.000282166
0.000316369
0.000352039
0.000392326
0.000436489
0.000487596
0.000547534
0.000601367
0.000656157
0.000703006
0.000743623
0.000765671
0.000774437
0.00075893
0.000696064
0.000589223
0.000440804
0.00025824
0.000124315
5.16556e-05
1.63118e-05
3.35979e-06
9.72481e-06
4.55754e-05
8.81595e-05
9.52637e-05
9.31687e-05
9.9532e-05
0.000139055
0.000235937
0.000329733
0.000446494
0.000655074
0.000758673
0.000781193
0.00078228
0.000782257
0.000815263
0.000836357
0.000876671
0.000911094
0.000957953
0.00100506
0.00105995
0.00111564
0.00117185
0.00122489
0.00128961
0.00135344
0.00142135
0.00147911
0.001513
0.00152502
0.00148966
0.00138282
0.00119029
0.000931969
0.000565377
0.000252976
0.000104857
3.67286e-05
5.81243e-06
2.94024e-05
0.000119571
0.000189939
0.000204177
0.000223121
0.00029212
0.000478039
0.000774898
0.00102046
0.00111018
0.00105711
0.000947879
0.000894749
0.000875323
0.000870356
0.000875845
0.000887517
0.000905616
0.000926481
0.000953257
0.000979865
0.00100711
0.00103642
0.0010685
0.00110372
0.00114158
0.00118107
0.00122197
0.00126184
0.00129878
0.00131926
0.0013269
0.00130847
0.00119663
0.00101152
0.000639234
0.000234123
8.57477e-05
3.29259e-05
4.76704e-06
6.79326e-05
0.000246909
0.000344427
0.000385122
0.000479788
0.000702588
0.00102837
0.00120752
0.00123558
0.00109899
0.000995823
0.000910743
0.000874738
0.000860505
0.000855996
0.000857652
0.000865847
0.000876883
0.000889994
0.000905275
0.000921965
0.000942535
0.000963353
0.00098647
0.00101049
0.00103606
0.00106279
0.00109045
0.00111772
0.00114169
0.0011584
0.00116606
0.00116734
0.00114197
0.00107999
0.000901101
0.000381761
9.14488e-05
2.47532e-05
3.31455e-06
0.000129013
0.000433196
0.000565508
0.000656237
0.000843821
0.00113182
0.00127859
0.00129065
0.00116455
0.000984935
0.000892431
0.000848778
0.000829696
0.000822167
0.000820252
0.000827088
0.000840087
0.00085519
0.00087271
0.0008907
0.000908992
0.000927136
0.000945157
0.000964035
0.000984284
0.00100673
0.00103161
0.00105837
0.00108468
0.00110635
0.00112062
0.00112732
0.00112902
0.00111674
0.00108729
0.00101267
0.000756337
0.000207908
3.49897e-05
3.89994e-06
0.000216668
0.000665304
0.000832586
0.000962163
0.00116944
0.001295
0.00130843
0.00120265
0.000980529
0.000870785
0.000820844
0.000799116
0.000791512
0.000790457
0.000801153
0.000816186
0.000833704
0.000850791
0.000868594
0.000885288
0.000901633
0.000917537
0.000934082
0.000951789
0.000972303
0.000996185
0.00102421
0.00105631
0.0010916
0.00112933
0.00114947
0.0011548
0.00115267
0.00113528
0.00109788
0.00103984
0.000901401
0.000432263
7.7133e-05
7.4747e-06
0.000328584
0.000904598
0.00110052
0.00121448
0.00130171
0.00131633
0.00122878
0.000998826
0.000858389
0.000798789
0.00077426
0.000766257
0.000765507
0.000777467
0.00079265
0.000807891
0.000822835
0.000836297
0.000848034
0.000857663
0.000866972
0.000877357
0.000890997
0.000908846
0.000931629
0.000960575
0.00099637
0.00103915
0.00108789
0.0011397
0.00119343
0.00123165
0.00124037
0.00123235
0.00118643
0.00109333
0.000955954
0.000683654
0.000157932
1.70807e-05
0.000448404
0.00114137
0.00131317
0.00135027
0.00134922
0.00125724
0.00104751
0.00086303
0.000784912
0.000754291
0.000744359
0.000743084
0.000753042
0.000767022
0.000778499
0.000788325
0.000793448
0.00079547
0.000796072
0.000796609
0.000799934
0.000806711
0.000818183
0.000835254
0.000859305
0.000891563
0.000933303
0.000985492
0.00104829
0.0011199
0.00119488
0.00126449
0.00130864
0.00131653
0.00130395
0.00122727
0.00105742
0.000783662
0.000271355
4.29304e-05
0.000551988
0.0013322
0.00146499
0.00143898
0.0013165
0.00112296
0.000893097
0.00078397
0.000740485
0.000725925
0.000723113
0.000728829
0.000739869
0.000745521
0.000747498
0.000745667
0.000738442
0.000731786
0.000725243
0.000722053
0.000721173
0.000724897
0.00073473
0.000750859
0.000774797
0.000807714
0.000851286
0.00090733
0.000977658
0.00106311
0.00116163
0.00126486
0.00134964
0.00138821
0.00139094
0.00134982
0.00121182
0.000940002
0.000494299
0.00011641
0.000627761
0.00146115
0.00156238
0.00143852
0.00123404
0.000971384
0.000805049
0.000736631
0.00071194
0.000705524
0.000705419
0.000711156
0.000713359
0.000710477
0.000701566
0.000689414
0.000675424
0.000663123
0.000652697
0.000646999
0.000644843
0.000646334
0.000655524
0.000670765
0.000693937
0.00072594
0.000768541
0.000823887
0.000894782
0.000984249
0.00109428
0.00122278
0.00135806
0.00145002
0.00147701
0.00145932
0.00133911
0.00105945
0.000602768
0.000208075
0.000682109
0.00154681
0.0016214
0.00141239
0.00111781
0.000866753
0.000750971
0.00070535
0.000689927
0.00068614
0.000685746
0.000685908
0.000679173
0.000666494
0.000649417
0.000631044
0.000613266
0.000598143
0.000586159
0.000579469
0.000576867
0.000577398
0.000586106
0.000600621
0.000622822
0.000653492
0.000694274
0.00074729
0.000815598
0.000903242
0.00101472
0.00115274
0.00131289
0.00147414
0.00155663
0.00156849
0.00149227
0.00122643
0.000745662
0.000297387
0.000711419
0.00157931
0.00162376
0.00135443
0.001009
0.000801377
0.000714693
0.000681373
0.000669691
0.000665353
0.000662284
0.000654868
0.000639794
0.000619971
0.000597907
0.000576374
0.000556937
0.000540789
0.000528371
0.000521274
0.000518472
0.000518476
0.000526429
0.000540149
0.000561227
0.000590489
0.000629398
0.000679912
0.000744982
0.000828997
0.000938055
0.00107903
0.00125552
0.00145825
0.00161001
0.00165422
0.00161205
0.00136033
0.000863433
0.000369674
0.000710418
0.0015759
0.00160767
0.00127904
0.000925308
0.000756303
0.000687044
0.000659995
0.000649197
0.000643719
0.000635696
0.000621046
0.000599759
0.000575493
0.00055088
0.000528082
0.000508176
0.000491824
0.000479324
0.000471769
0.000468595
0.000468304
0.000475079
0.000487817
0.00050764
0.000535471
0.000572636
0.000620882
0.000682805
0.000762467
0.000866164
0.00100268
0.00118101
0.00140198
0.00163273
0.00174136
0.00174125
0.00151677
0.000983564
0.000437496
0.000701284
0.00155694
0.00156898
0.00120054
0.000867472
0.000722463
0.00066369
0.000639968
0.000629453
0.000621263
0.000607929
0.000587573
0.000562222
0.000535553
0.000509912
0.000486834
0.000466973
0.000450664
0.000438084
0.000429928
0.00042626
0.000425604
0.000431022
0.000442581
0.000461043
0.000487419
0.000522984
0.000569362
0.000628862
0.000705131
0.000804235
0.000935877
0.00111317
0.00134668
0.00162625
0.00181402
0.00184638
0.00165723
0.00110318
0.000500299
0.000679561
0.00151485
0.00151157
0.00113189
0.000824701
0.000695286
0.000643065
0.000621245
0.000610507
0.000598983
0.00058103
0.000556647
0.000528894
0.000501128
0.000475273
0.000452347
0.000432703
0.00041648
0.000403781
0.000394964
0.000390721
0.000389649
0.000393706
0.00040394
0.000420932
0.000445748
0.000479683
0.000524303
0.00058169
0.000654999
0.000749588
0.000874772
0.00104527
0.00127837
0.00157868
0.00186015
0.00195182
0.00180377
0.00122356
0.000561733
0.000642167
0.00146115
0.00144728
0.00107499
0.000791369
0.000672638
0.000624812
0.000604445
0.000592743
0.000578029
0.000556496
0.00052948
0.000500444
0.000472323
0.000446637
0.000424028
0.000404647
0.000388522
0.000375709
0.000366366
0.000361494
0.000359989
0.000362807
0.000371655
0.000387088
0.000410223
0.000442425
0.000485304
0.000540859
0.000611927
0.000703243
0.000823493
0.000988037
0.00121877
0.00153038
0.00187932
0.00203958
0.00194205
0.00134721
0.000621479
0.000599151
0.00140018
0.00138114
0.00102869
0.000764987
0.000653627
0.000608927
0.000589626
0.000576641
0.000559273
0.000535181
0.000506559
0.00047693
0.000448838
0.00042348
0.000401243
0.00038215
0.000366162
0.000353292
0.000343662
0.000338155
0.000336221
0.000337989
0.000345471
0.0003593
0.00038064
0.00041095
0.000451947
0.000505655
0.000574695
0.000663149
0.000778635
0.000936019
0.00116074
0.00148065
0.00188265
0.00212206
0.00207773
0.00147106
0.000680878
0.00054826
0.00134075
0.00131788
0.000991819
0.000744462
0.000637984
0.000595459
0.000576815
0.000562568
0.000543213
0.000517434
0.000487919
0.000458101
0.000430223
0.000405246
0.000383402
0.000364631
0.000348847
0.000336031
0.000326273
0.00032022
0.000317865
0.000318793
0.000325004
0.000337247
0.000356733
0.000385019
0.000423984
0.00047579
0.00054304
0.000629378
0.00074134
0.000892417
0.00110873
0.00142736
0.00185944
0.00219223
0.00220751
0.00160301
0.000739898
0.000498268
0.00127929
0.0012591
0.000963491
0.0007292
0.000625243
0.000584078
0.000565859
0.000550664
0.000530009
0.000503259
0.000473351
0.000443586
0.000415999
0.00039141
0.00036996
0.000351542
0.000336028
0.000323369
0.000313614
0.000307144
0.000304359
0.00030464
0.000309722
0.000320466
0.00033812
0.000364314
0.000401105
0.000450859
0.000516317
0.000600874
0.000710083
0.000855793
0.00106359
0.00137682
0.00182646
0.00225489
0.00233274
0.00173592
0.000798529
0.000440374
0.0012266
0.00120679
0.000941773
0.00071894
0.000615719
0.00057495
0.00055676
0.000540917
0.000519583
0.000492457
0.000462522
0.000432955
0.000405688
0.000381475
0.000360412
0.000342359
0.000327161
0.00031473
0.000305083
0.000298376
0.000295114
0.000294913
0.000299016
0.000308412
0.000324351
0.000348474
0.000383036
0.000430621
0.000494261
0.00057733
0.000684572
0.000825989
0.00102548
0.00133025
0.00178882
0.00229822
0.00245536
0.00187717
0.000857167
0.000393498
0.00116977
0.00116175
0.000926903
0.000713876
0.000608595
0.000567223
0.000549069
0.000533074
0.000511687
0.000484702
0.000455067
0.000425852
0.000398923
0.000375041
0.000354319
0.000336615
0.000321742
0.000309572
0.000300076
0.000293348
0.000289683
0.000289207
0.00029255
0.000300699
0.000314954
0.000337115
0.000369508
0.00041485
0.0004766
0.000558326
0.0006642
0.000802361
0.000994322
0.00128945
0.0017527
0.00232913
0.00257507
0.00202099
0.000915094
0.000353654
0.00111133
0.001119
0.000919151
0.000715055
0.000605918
0.000561967
0.0005429
0.000526902
0.000505951
0.000479596
0.000450515
0.000421679
0.000395084
0.000371575
0.000351262
0.000333948
0.000319416
0.000307507
0.000298159
0.000291441
0.000287596
0.000287049
0.000289895
0.000297127
0.000310181
0.00033054
0.000360514
0.000403403
0.000463233
0.000543703
0.000648701
0.000784533
0.000969583
0.00125356
0.00171763
0.00234467
0.00269189
0.00217273
0.000972894
0.000318433
0.00105393
0.00108086
0.000919278
0.000719926
0.000607151
0.000557843
0.000537739
0.000522014
0.000501992
0.000476678
0.000448627
0.000420792
0.000394844
0.000371657
0.000351484
0.000334291
0.000319883
0.000308092
0.000298838
0.000292159
0.000288249
0.000287539
0.000289818
0.000296307
0.000308625
0.000327942
0.00035623
0.000397042
0.000454571
0.000533513
0.000638045
0.000772552
0.000951318
0.00122328
0.00168469
0.00235184
0.00280631
0.00232853
0.00102949
0.000286406
0.000998434
0.00104668
0.000921382
0.000731072
0.000611599
0.000557852
0.000534061
0.000518237
0.00049936
0.000475578
0.000448961
0.000421708
0.000396102
0.000373175
0.000353244
0.000336276
0.000322105
0.000310563
0.000301555
0.000295096
0.000291351
0.000290736
0.000292715
0.000298466
0.000309798
0.000327802
0.000355013
0.000394652
0.000450613
0.000528503
0.000632818
0.000766757
0.000940072
0.00119818
0.0016514
0.00235386
0.00291647
0.00249084
0.00108528
0.000256496
0.000944649
0.00101699
0.000927037
0.000746123
0.000621113
0.000559697
0.000532099
0.000515289
0.000497632
0.000475767
0.000450337
0.000424197
0.000399308
0.000376854
0.000357299
0.000340668
0.000326827
0.000315608
0.000306888
0.000300645
0.000297042
0.00029665
0.000298545
0.000303972
0.000314808
0.000331917
0.000357526
0.000395051
0.000449686
0.000526874
0.000631075
0.000764873
0.000935055
0.00117902
0.00161986
0.00234955
0.00302318
0.00265754
0.00113917
0.000228158
0.000892567
0.000990935
0.000931413
0.000770723
0.00063761
0.000565124
0.000532761
0.00051375
0.000496672
0.000476477
0.000453142
0.00042857
0.000404711
0.000382891
0.000363746
0.000347438
0.000333898
0.000322987
0.000314586
0.000308655
0.000305347
0.000305336
0.000307317
0.000312753
0.000323418
0.000340063
0.000364838
0.000401107
0.000453867
0.000529493
0.000633428
0.000767278
0.00093399
0.00116543
0.00158983
0.00233771
0.00312403
0.00283011
0.00119134
0.000200634
0.000840153
0.000968251
0.000931299
0.000800204
0.000661776
0.000576667
0.000535878
0.000514264
0.000496933
0.000477989
0.000456678
0.000433948
0.000411474
0.000390599
0.000372102
0.000356287
0.000343183
0.000332702
0.000324748
0.000319264
0.0003165
0.000316827
0.000319164
0.00032494
0.000335679
0.000352151
0.000376419
0.000411801
0.000463428
0.00053809
0.000641809
0.000775968
0.000939772
0.00115863
0.00156282
0.00232573
0.00321846
0.00300272
0.00124071
0.000173746
0.000787098
0.000945096
0.000928871
0.00083234
0.000692865
0.000596487
0.000543617
0.000516825
0.000498235
0.000480188
0.000460687
0.000439941
0.000419172
0.000399609
0.000382093
0.000367048
0.000354611
0.000344762
0.000337446
0.00033257
0.000330644
0.000331358
0.000334207
0.000340612
0.00035166
0.000368223
0.000392302
0.000427161
0.000477919
0.000551603
0.000654717
0.000788611
0.000949768
0.00115594
0.00153653
0.00230169
0.00330876
0.0031771
0.00128767
0.000146786
0.000729653
0.000924326
0.000922561
0.000863118
0.000731982
0.000625244
0.000559429
0.000523669
0.000501829
0.000483536
0.000465272
0.000446362
0.000427456
0.000409522
0.000393353
0.000379433
0.00036798
0.000359042
0.000352615
0.00034856
0.000347766
0.000348942
0.000352457
0.000359747
0.000371297
0.000388179
0.000412351
0.000447039
0.000497274
0.000570098
0.000672214
0.000805129
0.000963295
0.00115565
0.00151311
0.00226952
0.00339035
0.0033441
0.00133112
0.000122704
0.000675948
0.000901275
0.000914462
0.000879926
0.000777974
0.000665161
0.000586392
0.000538338
0.000510059
0.000489516
0.000471293
0.000453594
0.000436353
0.000420137
0.000405565
0.000393084
0.000382935
0.000375223
0.000369917
0.000367108
0.000367384
0.000369245
0.000373754
0.000382006
0.000394217
0.000411615
0.000436126
0.000470962
0.000520951
0.000592929
0.000693413
0.000824149
0.000978562
0.00115819
0.00149006
0.00222917
0.00345967
0.0035015
0.00137201
0.000102794
0.000618646
0.000886413
0.000907367
0.000887765
0.000820237
0.00071394
0.000626507
0.000566174
0.000527212
0.000501423
0.000480959
0.000463023
0.000446629
0.000431761
0.000418708
0.000407768
0.000399096
0.000392854
0.000388779
0.00038777
0.000388725
0.000391573
0.000397462
0.000406628
0.000419623
0.000437704
0.000462764
0.000498007
0.000547912
0.000618905
0.000716895
0.000843946
0.000993524
0.00116094
0.00146886
0.00218505
0.00351182
0.00363758
0.00140973
8.46458e-05
0.000544941
0.000880005
0.000905969
0.000893503
0.000852298
0.000766128
0.000679747
0.000610711
0.000560767
0.000525565
0.000499537
0.000478707
0.000461236
0.000446417
0.00043406
0.00042417
0.000416724
0.000411746
0.000409108
0.000409462
0.000411245
0.000415327
0.00042241
0.000432526
0.00044637
0.000465261
0.000491009
0.0005268
0.000576559
0.000646172
0.00074055
0.000862202
0.00100572
0.00116235
0.00145189
0.00214494
0.00354544
0.00374068
0.00144627
6.75557e-05
0.000455456
0.000862583
0.000906761
0.000900552
0.000876598
0.000818297
0.000742242
0.000672397
0.000614759
0.000569813
0.000535169
0.000508029
0.000486413
0.000469144
0.000455563
0.000445245
0.000437999
0.000433348
0.000431783
0.000432605
0.00043509
0.00044022
0.000448088
0.000459
0.000473598
0.000493279
0.000519671
0.000555916
0.000605141
0.000672708
0.000762298
0.000877188
0.0010143
0.00116425
0.00144488
0.0021255
0.00356628
0.00379014
0.00148323
5.83941e-05
0.000380506
0.000818031
0.000902376
0.000904037
0.000896175
0.000869992
0.00081511
0.000752888
0.000694521
0.000643262
0.000599981
0.000564193
0.000535074
0.000511781
0.000493631
0.000479974
0.000470361
0.000464171
0.000461258
0.000461739
0.000463862
0.000468601
0.000476418
0.000487492
0.000502363
0.000522487
0.000549161
0.000585455
0.000633524
0.000698426
0.000782738
0.000891032
0.00102404
0.00117653
0.0014536
0.00212114
0.00358779
0.0038071
0.00151035
5.96953e-05
0.000352297
0.000729165
0.000880167
0.000909243
0.000917429
0.000912744
0.000893473
0.000852284
0.000801185
0.000750081
0.00070216
0.000659153
0.000621829
0.000590401
0.000564686
0.000544327
0.000528822
0.000517689
0.000510396
0.000506712
0.000507106
0.000509508
0.000515145
0.00052511
0.00053936
0.000559314
0.000585853
0.000621965
0.00066897
0.000731983
0.00081335
0.000919438
0.00105723
0.00122994
0.00153338
0.00220269
0.0036303
0.00378706
0.00151994
8.30169e-05
0.000369818
0.000643594
0.000829999
0.000919938
0.000961583
0.000982476
0.000983055
0.00097252
0.000945354
0.000902871
0.000856397
0.000809787
0.000765708
0.000725533
0.000690118
0.00065981
0.000634635
0.000614658
0.000599376
0.000589055
0.000582856
0.000583234
0.000586248
0.000593503
0.000607005
0.000627366
0.000655247
0.000693595
0.000743751
0.000811159
0.000900028
0.00101823
0.00118247
0.00140197
0.00176538
0.00243361
0.00370185
0.0036832
0.00151646
0.000131714
0.000454279
0.000657607
0.000850023
0.000977609
0.00106677
0.00112513
0.00115056
0.00115328
0.00114416
0.00111986
0.00107909
0.00103167
0.000982134
0.000933476
0.000888454
0.000847547
0.000813583
0.000786823
0.000766117
0.000753037
0.000744262
0.000744838
0.000749256
0.00075976
0.000779614
0.000808264
0.000847652
0.00090154
0.000972103
0.00106611
0.00119042
0.00135443
0.00158252
0.00187883
0.00233475
0.00296201
0.00383444
0.00358696
0.00147011
0.000218406
0.000635888
0.000820492
0.00103865
0.0012112
0.0013471
0.00143942
0.00148802
0.00149317
0.00148461
0.00146195
0.00142371
0.00137846
0.00133329
0.00128898
0.00125
0.00121812
0.00119202
0.00117357
0.00116337
0.00116506
0.00117268
0.00118989
0.00121996
0.0012615
0.00131588
0.0013869
0.00147285
0.0015816
0.00171101
0.00188278
0.00208626
0.00235214
0.00266691
0.00306305
0.00355439
0.00398324
0.00413078
0.00347126
0.00138671
0.000370489
0.00106359
0.00147257
0.00185213
0.00208443
0.00223134
0.00231439
0.00235177
0.00234624
0.00233046
0.00230486
0.00227764
0.0022482
0.00222957
0.00221084
0.00221039
0.00221648
0.00223166
0.00226162
0.00230324
0.00235816
0.00242746
0.00251119
0.00261007
0.00272785
0.00285972
0.00301869
0.00318563
0.00339735
0.00359973
0.00387129
0.00409834
0.00444449
0.00466065
0.00506501
0.00512492
0.00496488
0.00435286
0.00304228
0.00120781
0.000251179
0.000388438
0.000508167
0.000630227
0.000741383
0.00084135
0.000924577
0.000994097
0.00104174
0.00107335
0.00109196
0.00109931
0.00109751
0.00109239
0.00108162
0.00106841
0.00105466
0.00104002
0.00102628
0.00101326
0.00100215
0.000992414
0.000985593
0.000980209
0.000978711
0.000979801
0.000983502
0.000989361
0.00100239
0.00101285
0.00103556
0.00105142
0.00108834
0.00111623
0.00117901
0.00121789
0.00128411
0.00128835
0.00124444
0.00103915
)
;

boundaryField
{
    movingWall
    {
        type            kqRWallFunction;
        value           nonuniform List<scalar> 
40
(
0.000251179
0.000388438
0.000508167
0.000630227
0.000741383
0.00084135
0.000924577
0.000994097
0.00104174
0.00107335
0.00109196
0.00109931
0.00109751
0.00109239
0.00108162
0.00106841
0.00105466
0.00104002
0.00102628
0.00101326
0.00100215
0.000992414
0.000985593
0.000980209
0.000978711
0.000979801
0.000983502
0.000989361
0.00100239
0.00101285
0.00103556
0.00105142
0.00108834
0.00111623
0.00117901
0.00121789
0.00128411
0.00128835
0.00124444
0.00103915
)
;
    }
    fixedWalls
    {
        type            kqRWallFunction;
        value           nonuniform List<scalar> 
120
(
2.00771e-06
9.72481e-06
2.94024e-05
6.79326e-05
0.000129013
0.000216668
0.000328584
0.000448404
0.000551988
0.000627761
0.000682109
0.000711419
0.000710418
0.000701284
0.000679561
0.000642167
0.000599151
0.00054826
0.000498268
0.000440374
0.000393498
0.000353654
0.000318433
0.000286406
0.000256496
0.000228158
0.000200634
0.000173746
0.000146786
0.000122704
0.000102794
8.46458e-05
6.75557e-05
5.83941e-05
5.96953e-05
8.30169e-05
0.000131714
0.000218406
0.000370489
0.000251179
3.35979e-06
5.81243e-06
4.76704e-06
3.31455e-06
3.89994e-06
7.4747e-06
1.70807e-05
4.29304e-05
0.00011641
0.000208075
0.000297387
0.000369674
0.000437496
0.000500299
0.000561733
0.000621479
0.000680878
0.000739898
0.000798529
0.000857167
0.000915094
0.000972894
0.00102949
0.00108528
0.00113917
0.00119134
0.00124071
0.00128767
0.00133112
0.00137201
0.00140973
0.00144627
0.00148323
0.00151035
0.00151994
0.00151646
0.00147011
0.00138671
0.00120781
0.00103915
2.00771e-06
7.01761e-06
1.38025e-05
1.3964e-05
1.28495e-05
1.31656e-05
1.69e-05
2.84746e-05
4.26193e-05
6.06109e-05
9.49503e-05
0.000119118
0.000130381
0.000143361
0.000164918
0.000193613
0.000220886
0.000251748
0.000282166
0.000316369
0.000352039
0.000392326
0.000436489
0.000487596
0.000547534
0.000601367
0.000656157
0.000703006
0.000743623
0.000765671
0.000774437
0.00075893
0.000696064
0.000589223
0.000440804
0.00025824
0.000124315
5.16556e-05
1.63118e-05
3.35979e-06
)
;
    }
    frontAndBack
    {
        type            empty;
    }
}


// ************************************************************************* //
