/*--------------------------------*- C++ -*----------------------------------*\
  =========                 |
  \\      /  F ield         | OpenFOAM: The Open Source CFD Toolbox
   \\    /   O peration     | Website:  https://openfoam.org
    \\  /    A nd           | Version:  13
     \\/     M anipulation  |
\*---------------------------------------------------------------------------*/
FoamFile
{
    format      ascii;
    class       volScalarField;
    location    "7";
    object      nut;
}
// * * * * * * * * * * * * * * * * * * * * * * * * * * * * * * * * * * * * * //

dimensions      [0 2 -1 0 0 0 0];

internalField   nonuniform List<scalar> 
1600
(
1.41245e-08
4.93631e-08
9.70855e-08
9.82082e-08
9.03647e-08
9.25815e-08
1.18835e-07
2.00236e-07
2.99741e-07
4.26348e-07
6.67887e-07
8.37854e-07
9.17055e-07
1.00838e-06
1.16005e-06
1.36191e-06
1.55372e-06
1.7708e-06
1.98474e-06
2.22531e-06
2.47618e-06
2.75954e-06
3.07014e-06
3.42959e-06
3.85114e-06
4.22969e-06
4.615e-06
4.94443e-06
5.23006e-06
5.38509e-06
5.44673e-06
5.33765e-06
4.89557e-06
4.14423e-06
3.10041e-06
1.81648e-06
8.74511e-07
3.63408e-07
1.14765e-07
2.36398e-08
6.84131e-08
1.18331e-06
3.5446e-06
4.29598e-06
4.2224e-06
4.04135e-06
4.55597e-06
6.15292e-06
6.69707e-06
7.50998e-06
9.06415e-06
9.95653e-06
1.03614e-05
1.11082e-05
1.18823e-05
1.335e-05
1.443e-05
1.60042e-05
1.73093e-05
1.87454e-05
2.00346e-05
2.13456e-05
2.25923e-05
2.36172e-05
2.42544e-05
2.504e-05
2.56083e-05
2.60874e-05
2.62439e-05
2.58786e-05
2.56101e-05
2.4321e-05
2.24358e-05
1.92185e-05
1.59048e-05
1.02093e-05
4.91517e-06
1.95084e-06
6.67507e-07
4.08926e-08
2.06838e-07
3.1896e-06
7.81909e-06
9.45365e-06
1.00186e-05
1.04343e-05
1.2943e-05
1.65752e-05
1.75667e-05
1.78277e-05
1.63333e-05
1.54114e-05
1.49988e-05
1.63426e-05
1.77817e-05
1.94924e-05
2.13788e-05
2.33159e-05
2.50968e-05
2.68991e-05
2.85181e-05
2.97864e-05
3.05563e-05
3.1103e-05
3.1458e-05
3.1659e-05
3.16218e-05
3.13466e-05
3.07522e-05
2.97335e-05
2.78346e-05
2.59066e-05
2.42817e-05
2.04448e-05
1.68003e-05
9.98799e-06
4.23554e-06
2.07966e-06
8.51037e-07
3.35366e-08
4.77863e-07
6.9284e-06
1.3487e-05
1.57462e-05
1.68621e-05
1.87123e-05
2.11457e-05
2.15072e-05
2.11199e-05
1.82949e-05
1.73036e-05
1.8629e-05
2.04192e-05
2.31511e-05
2.50262e-05
2.74661e-05
2.93624e-05
3.10728e-05
3.24256e-05
3.36416e-05
3.44118e-05
3.50981e-05
3.54597e-05
3.56912e-05
3.56911e-05
3.55062e-05
3.50805e-05
3.44047e-05
3.34152e-05
3.19993e-05
3.00616e-05
2.76134e-05
2.46579e-05
2.11746e-05
1.81959e-05
1.37435e-05
4.89655e-06
1.65051e-06
5.85632e-07
2.33155e-08
9.07477e-07
1.24878e-05
2.00265e-05
2.14874e-05
2.23973e-05
2.42681e-05
2.43501e-05
2.37246e-05
2.09718e-05
1.96173e-05
2.1605e-05
2.37034e-05
2.65005e-05
2.91582e-05
3.10786e-05
3.30765e-05
3.4784e-05
3.62542e-05
3.75026e-05
3.83265e-05
3.89763e-05
3.93961e-05
3.96185e-05
3.96767e-05
3.95782e-05
3.93229e-05
3.88643e-05
3.81308e-05
3.70145e-05
3.53412e-05
3.3116e-05
3.05279e-05
2.77587e-05
2.41814e-05
1.97284e-05
1.60744e-05
1.00421e-05
2.67425e-06
6.08297e-07
2.74299e-08
1.52399e-06
1.85609e-05
2.5719e-05
2.62443e-05
2.67631e-05
2.64017e-05
2.56944e-05
2.32493e-05
2.13971e-05
2.35278e-05
2.59886e-05
2.88341e-05
3.17078e-05
3.36379e-05
3.5615e-05
3.73764e-05
3.90359e-05
4.01e-05
4.11107e-05
4.17977e-05
4.23542e-05
4.2667e-05
4.28177e-05
4.27734e-05
4.26297e-05
4.23572e-05
4.19692e-05
4.14306e-05
4.06826e-05
3.97412e-05
3.74066e-05
3.42004e-05
3.10005e-05
2.73431e-05
2.29494e-05
1.81068e-05
1.2951e-05
4.29952e-06
9.57411e-07
5.25676e-08
2.31112e-06
2.32646e-05
3.02127e-05
2.95739e-05
2.83191e-05
2.75385e-05
2.52469e-05
2.28295e-05
2.47621e-05
2.75757e-05
3.04122e-05
3.33069e-05
3.52577e-05
3.73601e-05
3.92257e-05
4.08412e-05
4.22256e-05
4.3287e-05
4.4173e-05
4.46767e-05
4.49949e-05
4.50941e-05
4.5146e-05
4.5114e-05
4.49858e-05
4.47772e-05
4.44881e-05
4.40979e-05
4.35542e-05
4.27535e-05
4.18394e-05
3.9933e-05
3.65287e-05
3.28738e-05
2.79148e-05
2.15327e-05
1.539e-05
8.05493e-06
1.56392e-06
1.20121e-07
3.15384e-06
2.73876e-05
3.30563e-05
3.13476e-05
3.01009e-05
2.72229e-05
2.45136e-05
2.54937e-05
2.83647e-05
3.14047e-05
3.42068e-05
3.63585e-05
3.85441e-05
4.06268e-05
4.2335e-05
4.3887e-05
4.49639e-05
4.57158e-05
4.61927e-05
4.6426e-05
4.68195e-05
4.69562e-05
4.70554e-05
4.70322e-05
4.69226e-05
4.67358e-05
4.64875e-05
4.61869e-05
4.58185e-05
4.53112e-05
4.4498e-05
4.32262e-05
4.08181e-05
3.72078e-05
3.37549e-05
2.7643e-05
1.90921e-05
1.02381e-05
2.10014e-06
3.01909e-07
3.88238e-06
3.01262e-05
3.51694e-05
3.34833e-05
2.99203e-05
2.6631e-05
2.57487e-05
2.85442e-05
3.17803e-05
3.46982e-05
3.70813e-05
3.92266e-05
4.14654e-05
4.31409e-05
4.45992e-05
4.58175e-05
4.65018e-05
4.72255e-05
4.77609e-05
4.82262e-05
4.84701e-05
4.89316e-05
4.9013e-05
4.90479e-05
4.89211e-05
4.86799e-05
4.83401e-05
4.79441e-05
4.75358e-05
4.71329e-05
4.66688e-05
4.59051e-05
4.40482e-05
4.05652e-05
3.67226e-05
3.28204e-05
2.48567e-05
1.45056e-05
4.57227e-06
8.1867e-07
4.41533e-06
3.17175e-05
3.68472e-05
3.37712e-05
2.9512e-05
2.64744e-05
2.82945e-05
3.15631e-05
3.47506e-05
3.73698e-05
3.94055e-05
4.15388e-05
4.33608e-05
4.49522e-05
4.61499e-05
4.71562e-05
4.79511e-05
4.87878e-05
4.95005e-05
5.02322e-05
5.06679e-05
5.10936e-05
5.14542e-05
5.14944e-05
5.13884e-05
5.10648e-05
5.05685e-05
4.99358e-05
4.92484e-05
4.86029e-05
4.80727e-05
4.76187e-05
4.69619e-05
4.40895e-05
3.9585e-05
3.61059e-05
2.92915e-05
1.79454e-05
6.08635e-06
1.46331e-06
4.7976e-06
3.28866e-05
3.83463e-05
3.38981e-05
2.90061e-05
2.81433e-05
3.08707e-05
3.42068e-05
3.71198e-05
3.93289e-05
4.12658e-05
4.32679e-05
4.49061e-05
4.62893e-05
4.74269e-05
4.85001e-05
4.95259e-05
5.058e-05
5.15528e-05
5.25694e-05
5.32038e-05
5.36398e-05
5.4278e-05
5.4355e-05
5.42936e-05
5.39331e-05
5.3317e-05
5.24586e-05
5.14326e-05
5.0364e-05
4.94086e-05
4.86686e-05
4.80463e-05
4.70542e-05
4.2928e-05
3.92892e-05
3.41741e-05
2.27676e-05
8.69934e-06
2.09135e-06
5.00377e-06
3.31835e-05
3.88011e-05
3.4027e-05
2.91084e-05
3.00983e-05
3.3196e-05
3.63544e-05
3.88552e-05
4.07636e-05
4.27463e-05
4.45893e-05
4.60942e-05
4.74362e-05
4.86902e-05
4.99787e-05
5.12887e-05
5.26053e-05
5.38382e-05
5.50972e-05
5.5902e-05
5.63635e-05
5.71871e-05
5.73224e-05
5.73105e-05
5.69727e-05
5.63263e-05
5.53522e-05
5.40857e-05
5.264e-05
5.1225e-05
5.00961e-05
4.93964e-05
4.8917e-05
4.55892e-05
4.12007e-05
3.73295e-05
2.6382e-05
1.09833e-05
2.59965e-06
4.99673e-06
3.31193e-05
3.91117e-05
3.3846e-05
3.00958e-05
3.19277e-05
3.50907e-05
3.79505e-05
4.00461e-05
4.1952e-05
4.39029e-05
4.56204e-05
4.71087e-05
4.85503e-05
5.00267e-05
5.15897e-05
5.31873e-05
5.47543e-05
5.62013e-05
5.76095e-05
5.85079e-05
5.90134e-05
5.98849e-05
6.00586e-05
6.00761e-05
5.97933e-05
5.92001e-05
5.82417e-05
5.68849e-05
5.51682e-05
5.32658e-05
5.14995e-05
5.0209e-05
4.94365e-05
4.80406e-05
4.32823e-05
4.02575e-05
3.03702e-05
1.35486e-05
3.07655e-06
4.9325e-06
3.28344e-05
3.93613e-05
3.3789e-05
3.13177e-05
3.34599e-05
3.65245e-05
3.91165e-05
4.09815e-05
4.29122e-05
4.48084e-05
4.64808e-05
4.80524e-05
4.96802e-05
5.14203e-05
5.32608e-05
5.51151e-05
5.68881e-05
5.84844e-05
5.99518e-05
6.08826e-05
6.13952e-05
6.22022e-05
6.23594e-05
6.23624e-05
6.21296e-05
6.16418e-05
6.08225e-05
5.95732e-05
5.78317e-05
5.56758e-05
5.34222e-05
5.16005e-05
5.06635e-05
5.04466e-05
4.58002e-05
4.19741e-05
3.34274e-05
1.59027e-05
3.51814e-06
4.77973e-06
3.22135e-05
3.91392e-05
3.39663e-05
3.23553e-05
3.46638e-05
3.75863e-05
3.99143e-05
4.17354e-05
4.36777e-05
4.55388e-05
4.72414e-05
4.89574e-05
5.08064e-05
5.28074e-05
5.48986e-05
5.69679e-05
5.8901e-05
6.05973e-05
6.20397e-05
6.29591e-05
6.3443e-05
6.41011e-05
6.41748e-05
6.41028e-05
6.38756e-05
6.34887e-05
6.28639e-05
6.18546e-05
6.02899e-05
5.80856e-05
5.54111e-05
5.27971e-05
5.09549e-05
5.02538e-05
4.78028e-05
4.36138e-05
3.63845e-05
1.82166e-05
3.9501e-06
4.51674e-06
3.1366e-05
3.86897e-05
3.42339e-05
3.3168e-05
3.55464e-05
3.83416e-05
4.05121e-05
4.23414e-05
4.42875e-05
4.61454e-05
4.79265e-05
4.98094e-05
5.18769e-05
5.41113e-05
5.6416e-05
5.86604e-05
6.07173e-05
6.24788e-05
6.387e-05
6.47372e-05
6.51648e-05
6.56234e-05
6.55569e-05
6.53493e-05
6.50634e-05
6.4729e-05
6.42907e-05
6.35871e-05
6.23726e-05
6.04154e-05
5.77024e-05
5.46765e-05
5.21841e-05
5.07973e-05
4.92551e-05
4.46981e-05
3.86444e-05
2.04243e-05
4.37018e-06
4.2142e-06
3.03486e-05
3.80701e-05
3.44932e-05
3.37689e-05
3.61626e-05
3.88718e-05
4.097e-05
4.28237e-05
4.47719e-05
4.66512e-05
4.85297e-05
5.05722e-05
5.28309e-05
5.52591e-05
5.77377e-05
6.01233e-05
6.22772e-05
6.40813e-05
6.54493e-05
6.62315e-05
6.65837e-05
6.68253e-05
6.65863e-05
6.62013e-05
6.5797e-05
6.54499e-05
6.5146e-05
6.47367e-05
6.39306e-05
6.23557e-05
5.97622e-05
5.63944e-05
5.32296e-05
5.14235e-05
5.07517e-05
4.58679e-05
4.05369e-05
2.25284e-05
4.78782e-06
3.85626e-06
2.93144e-05
3.73313e-05
3.46843e-05
3.41798e-05
3.65519e-05
3.92344e-05
4.13152e-05
4.31958e-05
4.51469e-05
4.70592e-05
4.90283e-05
5.12013e-05
5.36097e-05
5.61864e-05
5.87993e-05
6.12958e-05
6.35284e-05
6.53694e-05
6.67252e-05
6.74288e-05
6.76981e-05
6.77327e-05
6.73161e-05
6.67395e-05
6.61782e-05
6.57583e-05
6.55227e-05
6.53628e-05
6.49856e-05
6.39331e-05
6.17317e-05
5.83102e-05
5.45052e-05
5.18968e-05
5.12185e-05
4.69685e-05
4.20463e-05
2.45727e-05
5.20279e-06
3.50465e-06
2.81561e-05
3.65019e-05
3.47981e-05
3.44381e-05
3.6786e-05
3.94427e-05
4.15537e-05
4.34679e-05
4.54193e-05
4.73575e-05
4.93957e-05
5.16611e-05
5.41686e-05
5.68416e-05
5.9544e-05
6.21183e-05
6.44088e-05
6.62786e-05
6.76264e-05
6.82804e-05
6.84696e-05
6.83315e-05
6.77551e-05
6.70022e-05
6.6277e-05
6.5745e-05
6.5518e-05
6.55405e-05
6.55463e-05
6.50403e-05
6.33665e-05
6.01245e-05
5.58733e-05
5.24244e-05
5.13312e-05
4.82055e-05
4.33175e-05
2.64463e-05
5.61501e-06
3.09745e-06
2.72136e-05
3.55997e-05
3.47891e-05
3.45811e-05
3.68142e-05
3.95462e-05
4.16951e-05
4.36326e-05
4.55808e-05
4.75395e-05
4.96086e-05
5.19039e-05
5.44494e-05
5.71675e-05
5.99169e-05
6.25331e-05
6.48525e-05
6.67318e-05
6.80658e-05
6.87118e-05
6.88241e-05
6.85617e-05
6.78679e-05
6.69883e-05
6.61268e-05
6.54685e-05
6.52141e-05
6.53641e-05
6.56974e-05
6.57338e-05
6.46877e-05
6.18462e-05
5.7356e-05
5.30398e-05
5.10794e-05
4.91758e-05
4.44389e-05
2.82784e-05
6.02729e-06
2.76774e-06
2.58823e-05
3.46979e-05
3.47216e-05
3.45995e-05
3.68227e-05
3.94429e-05
4.17148e-05
4.36998e-05
4.56399e-05
4.75729e-05
4.96432e-05
5.19639e-05
5.45174e-05
5.72193e-05
5.99375e-05
6.25165e-05
6.47992e-05
6.66461e-05
6.79487e-05
6.86248e-05
6.87086e-05
6.82672e-05
6.74599e-05
6.64398e-05
6.54554e-05
6.48097e-05
6.46688e-05
6.49108e-05
6.55091e-05
6.60453e-05
6.56471e-05
6.33546e-05
5.88648e-05
5.38735e-05
5.11501e-05
4.98619e-05
4.54728e-05
2.99183e-05
6.43456e-06
2.48748e-06
2.43889e-05
3.32937e-05
3.47299e-05
3.45695e-05
3.64778e-05
3.93706e-05
4.16177e-05
4.36255e-05
4.55495e-05
4.75066e-05
4.9523e-05
5.16552e-05
5.40168e-05
5.65667e-05
5.91816e-05
6.16989e-05
6.39625e-05
6.58312e-05
6.71903e-05
6.79613e-05
6.81302e-05
6.77422e-05
6.70122e-05
6.58848e-05
6.47909e-05
6.40148e-05
6.36968e-05
6.40458e-05
6.50453e-05
6.60511e-05
6.62834e-05
6.46215e-05
6.02885e-05
5.471e-05
5.128e-05
5.02267e-05
4.64193e-05
3.15175e-05
6.84094e-06
2.23973e-06
2.27701e-05
3.17468e-05
3.46765e-05
3.4512e-05
3.62884e-05
3.87854e-05
4.14105e-05
4.34693e-05
4.53984e-05
4.71738e-05
4.90522e-05
5.12287e-05
5.3602e-05
5.61039e-05
5.86284e-05
6.1055e-05
6.32361e-05
6.50321e-05
6.6327e-05
6.70395e-05
6.71402e-05
6.67307e-05
6.61339e-05
6.52114e-05
6.42787e-05
6.34863e-05
6.29802e-05
6.32523e-05
6.42645e-05
6.56347e-05
6.65632e-05
6.56815e-05
6.15925e-05
5.55693e-05
5.1519e-05
5.04205e-05
4.72389e-05
3.30223e-05
7.23882e-06
2.01445e-06
2.10687e-05
2.99284e-05
3.44762e-05
3.44656e-05
3.59813e-05
3.85148e-05
4.08847e-05
4.30993e-05
4.49602e-05
4.67889e-05
4.87127e-05
5.0733e-05
5.29262e-05
5.52365e-05
5.75753e-05
5.98247e-05
6.18525e-05
6.35323e-05
6.47626e-05
6.54781e-05
6.56459e-05
6.52944e-05
6.47919e-05
6.39424e-05
6.30508e-05
6.23877e-05
6.22718e-05
6.27501e-05
6.37317e-05
6.52951e-05
6.66748e-05
6.63904e-05
6.28238e-05
5.62929e-05
5.16579e-05
5.05064e-05
4.79621e-05
3.44875e-05
7.6311e-06
1.80407e-06
1.93205e-05
2.81377e-05
3.4071e-05
3.41975e-05
3.54791e-05
3.80299e-05
4.03806e-05
4.25325e-05
4.44927e-05
4.6358e-05
4.80869e-05
4.98863e-05
5.18244e-05
5.3894e-05
5.60185e-05
5.80851e-05
5.99738e-05
6.15685e-05
6.27706e-05
6.35163e-05
6.37721e-05
6.35316e-05
6.31423e-05
6.24574e-05
6.171e-05
6.1141e-05
6.09943e-05
6.15401e-05
6.3021e-05
6.50304e-05
6.66822e-05
6.67473e-05
6.37551e-05
5.69025e-05
5.17184e-05
5.05618e-05
4.86195e-05
3.5865e-05
8.00998e-06
1.60473e-06
1.75593e-05
2.63958e-05
3.31159e-05
3.43071e-05
3.50867e-05
3.72922e-05
3.98729e-05
4.19729e-05
4.39225e-05
4.56565e-05
4.73093e-05
4.89613e-05
5.06858e-05
5.2503e-05
5.43703e-05
5.6203e-05
5.79005e-05
5.93626e-05
6.0504e-05
6.12694e-05
6.16287e-05
6.1543e-05
6.12799e-05
6.08155e-05
6.02837e-05
5.9908e-05
5.9921e-05
6.0578e-05
6.20553e-05
6.42576e-05
6.64579e-05
6.72001e-05
6.42701e-05
5.73969e-05
5.15886e-05
5.03148e-05
4.92052e-05
3.71891e-05
8.37675e-06
1.41112e-06
1.57894e-05
2.46626e-05
3.15108e-05
3.42611e-05
3.47934e-05
3.65149e-05
3.90825e-05
4.13687e-05
4.32529e-05
4.48821e-05
4.64279e-05
4.79287e-05
4.94488e-05
5.10204e-05
5.26284e-05
5.42179e-05
5.57125e-05
5.70312e-05
5.81019e-05
5.88765e-05
5.93691e-05
5.93922e-05
5.93083e-05
5.91088e-05
5.88224e-05
5.86775e-05
5.88831e-05
5.969e-05
6.13086e-05
6.36878e-05
6.61033e-05
6.72083e-05
6.50878e-05
5.76705e-05
5.13461e-05
4.99868e-05
4.96606e-05
3.83784e-05
8.72386e-06
1.22198e-06
1.40464e-05
2.28214e-05
2.97422e-05
3.40645e-05
3.45157e-05
3.58432e-05
3.80272e-05
4.0438e-05
4.24028e-05
4.40152e-05
4.54663e-05
4.68289e-05
4.81644e-05
4.95125e-05
5.08787e-05
5.2235e-05
5.35305e-05
5.47056e-05
5.57025e-05
5.64743e-05
5.71118e-05
5.72313e-05
5.73272e-05
5.74099e-05
5.7385e-05
5.74914e-05
5.79106e-05
5.88772e-05
6.05935e-05
6.3067e-05
6.56193e-05
6.69148e-05
6.51487e-05
5.77255e-05
5.09473e-05
4.94038e-05
5.00544e-05
3.9516e-05
9.05402e-06
1.03234e-06
1.23436e-05
2.13709e-05
2.74807e-05
3.34058e-05
3.43935e-05
3.52944e-05
3.70682e-05
3.93077e-05
4.13728e-05
4.30276e-05
4.44262e-05
4.56785e-05
4.68602e-05
4.80205e-05
4.91803e-05
5.03332e-05
5.14508e-05
5.24953e-05
5.34216e-05
5.41894e-05
5.49587e-05
5.51654e-05
5.54345e-05
5.57926e-05
5.60226e-05
5.63797e-05
5.70135e-05
5.81389e-05
5.99228e-05
6.24077e-05
6.49365e-05
6.62423e-05
6.46996e-05
5.74119e-05
5.02801e-05
4.85015e-05
5.03227e-05
4.04803e-05
9.35946e-06
8.62948e-07
1.09121e-05
2.00851e-05
2.5224e-05
3.15547e-05
3.43309e-05
3.49825e-05
3.62958e-05
3.81388e-05
4.01854e-05
4.19185e-05
4.33284e-05
4.45206e-05
4.55897e-05
4.66015e-05
4.75937e-05
4.85787e-05
4.95455e-05
5.04821e-05
5.13313e-05
5.21543e-05
5.29281e-05
5.32528e-05
5.37302e-05
5.42948e-05
5.47545e-05
5.53409e-05
5.61656e-05
5.7426e-05
5.92197e-05
6.16114e-05
6.39375e-05
6.50645e-05
6.34252e-05
5.64285e-05
4.91492e-05
4.73033e-05
5.04791e-05
4.13441e-05
9.64692e-06
7.22912e-07
9.73823e-06
1.92662e-05
2.33189e-05
2.93123e-05
3.36914e-05
3.47891e-05
3.58139e-05
3.72698e-05
3.89679e-05
4.07032e-05
4.2124e-05
4.32992e-05
4.43095e-05
4.52288e-05
4.61072e-05
4.69745e-05
4.78275e-05
4.86941e-05
4.94507e-05
5.04269e-05
5.10268e-05
5.15101e-05
5.22339e-05
5.29123e-05
5.35551e-05
5.43266e-05
5.52872e-05
5.66259e-05
5.83315e-05
6.04989e-05
6.24045e-05
6.3173e-05
6.12712e-05
5.4738e-05
4.78204e-05
4.58521e-05
5.03731e-05
4.19741e-05
9.91211e-06
5.95264e-07
8.73166e-06
1.87143e-05
2.19336e-05
2.7202e-05
3.22011e-05
3.43207e-05
3.55334e-05
3.67827e-05
3.82109e-05
3.96969e-05
4.10594e-05
4.22029e-05
4.31663e-05
4.40148e-05
4.4803e-05
4.55761e-05
4.63354e-05
4.71294e-05
4.78547e-05
4.88591e-05
4.93181e-05
4.99819e-05
5.08404e-05
5.1579e-05
5.23343e-05
5.32174e-05
5.42141e-05
5.55279e-05
5.69869e-05
5.87655e-05
6.00062e-05
6.02635e-05
5.79467e-05
5.19999e-05
4.58995e-05
4.43332e-05
5.00356e-05
4.22187e-05
1.0169e-05
4.75058e-07
8.00557e-06
1.82898e-05
2.14675e-05
2.55441e-05
3.04463e-05
3.36361e-05
3.52076e-05
3.64664e-05
3.76956e-05
3.89433e-05
4.01307e-05
4.11815e-05
4.20833e-05
4.28785e-05
4.36092e-05
4.43153e-05
4.50223e-05
4.57241e-05
4.6499e-05
4.73446e-05
4.78259e-05
4.85701e-05
4.93996e-05
5.01593e-05
5.0909e-05
5.17788e-05
5.26424e-05
5.37627e-05
5.47436e-05
5.59467e-05
5.6293e-05
5.59763e-05
5.32561e-05
4.82171e-05
4.35173e-05
4.31632e-05
4.93898e-05
4.17672e-05
1.04289e-05
4.10631e-07
7.87876e-06
1.76783e-05
2.16192e-05
2.39684e-05
2.86042e-05
3.27917e-05
3.51572e-05
3.66611e-05
3.79123e-05
3.90337e-05
4.00515e-05
4.09422e-05
4.17176e-05
4.237e-05
4.29674e-05
4.35386e-05
4.41082e-05
4.46964e-05
4.52834e-05
4.60773e-05
4.64479e-05
4.70315e-05
4.77254e-05
4.83505e-05
4.88989e-05
4.95538e-05
5.00305e-05
5.07248e-05
5.09596e-05
5.14402e-05
5.07971e-05
5.00376e-05
4.71983e-05
4.35762e-05
4.03023e-05
4.13465e-05
4.85347e-05
4.12526e-05
1.06195e-05
4.19798e-07
8.6965e-06
1.69873e-05
2.17262e-05
2.40679e-05
2.72661e-05
3.11791e-05
3.46864e-05
3.68909e-05
3.82627e-05
3.93364e-05
4.02094e-05
4.09348e-05
4.15295e-05
4.20647e-05
4.25317e-05
4.29967e-05
4.33764e-05
4.37517e-05
4.40283e-05
4.44468e-05
4.47124e-05
4.48868e-05
4.51613e-05
4.54551e-05
4.55503e-05
4.5732e-05
4.55567e-05
4.56143e-05
4.49831e-05
4.47964e-05
4.34493e-05
4.26912e-05
4.03997e-05
3.87862e-05
3.77052e-05
4.04139e-05
4.75112e-05
4.04753e-05
1.06869e-05
5.83842e-07
1.09364e-05
1.74969e-05
2.22264e-05
2.49588e-05
2.79733e-05
3.1294e-05
3.45422e-05
3.76491e-05
3.99976e-05
4.13315e-05
4.22686e-05
4.29243e-05
4.33908e-05
4.35334e-05
4.34613e-05
4.32564e-05
4.29701e-05
4.26709e-05
4.2269e-05
4.19888e-05
4.14221e-05
4.12341e-05
4.09238e-05
4.04541e-05
3.99489e-05
3.95083e-05
3.87104e-05
3.82183e-05
3.71532e-05
3.67851e-05
3.5616e-05
3.55651e-05
3.46776e-05
3.53221e-05
3.66024e-05
4.05624e-05
4.5969e-05
3.83053e-05
1.06623e-05
9.26383e-07
1.44094e-05
1.97486e-05
2.36948e-05
2.68021e-05
2.99727e-05
3.34026e-05
3.60226e-05
3.85898e-05
4.10645e-05
4.29417e-05
4.37943e-05
4.4051e-05
4.38494e-05
4.3315e-05
4.25381e-05
4.14972e-05
4.04811e-05
3.94614e-05
3.84918e-05
3.74765e-05
3.63693e-05
3.57161e-05
3.47341e-05
3.37325e-05
3.28806e-05
3.22576e-05
3.16127e-05
3.12787e-05
3.08492e-05
3.11013e-05
3.10999e-05
3.22382e-05
3.30496e-05
3.55352e-05
3.80382e-05
4.28118e-05
4.38711e-05
3.64677e-05
1.03368e-05
1.53614e-06
1.85928e-05
2.19652e-05
2.6067e-05
2.95923e-05
3.27205e-05
3.5664e-05
3.78982e-05
3.89102e-05
4.01273e-05
4.10022e-05
4.11606e-05
4.08548e-05
4.02997e-05
3.94465e-05
3.84777e-05
3.7484e-05
3.63295e-05
3.51006e-05
3.40659e-05
3.32389e-05
3.22796e-05
3.14423e-05
3.09344e-05
3.04999e-05
3.03516e-05
3.03463e-05
3.06205e-05
3.1173e-05
3.19273e-05
3.3104e-05
3.4257e-05
3.63204e-05
3.8021e-05
4.11662e-05
4.33956e-05
4.57759e-05
4.22902e-05
3.305e-05
9.75109e-06
2.60555e-06
2.20573e-05
2.47603e-05
2.91696e-05
3.22953e-05
3.46105e-05
3.6341e-05
3.76006e-05
3.78431e-05
3.82171e-05
3.83989e-05
3.84517e-05
3.82136e-05
3.81009e-05
3.75117e-05
3.73073e-05
3.70152e-05
3.66189e-05
3.63252e-05
3.61217e-05
3.60081e-05
3.60959e-05
3.62067e-05
3.65605e-05
3.69315e-05
3.75652e-05
3.82162e-05
3.91039e-05
4.00979e-05
4.1168e-05
4.25791e-05
4.36884e-05
4.56653e-05
4.62885e-05
4.88197e-05
4.76077e-05
4.59168e-05
4.00705e-05
2.50274e-05
8.49336e-06
1.76648e-06
2.73169e-06
3.57361e-06
4.4318e-06
5.21337e-06
5.91623e-06
6.50149e-06
6.99028e-06
7.32531e-06
7.54752e-06
7.67835e-06
7.72993e-06
7.7173e-06
7.68126e-06
7.60543e-06
7.51246e-06
7.41574e-06
7.31274e-06
7.21606e-06
7.12445e-06
7.04631e-06
6.97781e-06
6.92976e-06
6.89189e-06
6.88126e-06
6.8889e-06
6.91486e-06
6.95614e-06
7.04754e-06
7.12092e-06
7.28117e-06
7.39186e-06
7.6521e-06
7.84816e-06
8.28906e-06
8.56282e-06
9.02794e-06
9.05829e-06
8.74939e-06
7.30578e-06
)
;

boundaryField
{
    movingWall
    {
        type            nutkWallFunction;
        Cmu             0.09;
        kappa           0.41;
        E               9.8;
        value           uniform 0;
    }
    fixedWalls
    {
        type            nutkWallFunction;
        Cmu             0.09;
        kappa           0.41;
        E               9.8;
        value           uniform 0;
    }
    frontAndBack
    {
        type            empty;
    }
}


// ************************************************************************* //
