/*--------------------------------*- C++ -*----------------------------------*\
  =========                 |
  \\      /  F ield         | OpenFOAM: The Open Source CFD Toolbox
   \\    /   O peration     | Website:  https://openfoam.org
    \\  /    A nd           | Version:  13
     \\/     M anipulation  |
\*---------------------------------------------------------------------------*/
FoamFile
{
    format      ascii;
    class       volScalarField;
    location    "7";
    object      p;
}
// * * * * * * * * * * * * * * * * * * * * * * * * * * * * * * * * * * * * * //

dimensions      [0 2 -2 0 0 0 0];

internalField   nonuniform List<scalar> 
400
(
6.72932e-08
-6.8815e-05
-0.000148889
-0.000289006
-0.000979741
-0.00224386
-0.0037729
-0.00526005
-0.00647452
-0.00729208
-0.007614
-0.00735472
-0.0064877
-0.00499034
-0.00285704
-0.000203592
0.00268765
0.00525342
0.00684516
0.00717498
6.31736e-05
-1.84954e-05
-0.000185182
-0.000693489
-0.00165391
-0.00301952
-0.00452785
-0.0059509
-0.00712221
-0.00792547
-0.00826355
-0.00808888
-0.00736802
-0.00603559
-0.00409394
-0.00160541
0.00120348
0.00387439
0.00577857
0.00653634
0.000244891
-5.1944e-05
-0.000589274
-0.00150582
-0.00279905
-0.00429618
-0.00580179
-0.00717114
-0.0082944
-0.00904597
-0.00936536
-0.00922311
-0.00859101
-0.00745666
-0.00580295
-0.00365597
-0.00113837
0.00146644
0.00366255
0.00476712
8.13472e-05
-0.000430875
-0.00137411
-0.00269934
-0.00425935
-0.00586009
-0.00735561
-0.00863814
-0.00961748
-0.0102509
-0.0105183
-0.0104022
-0.00987949
-0.00893856
-0.00756889
-0.00578135
-0.00363501
-0.00128535
0.000910264
0.0020828
-0.000621742
-0.00131511
-0.00254446
-0.00411045
-0.00578516
-0.00738784
-0.00880328
-0.00995874
-0.010813
-0.0113539
-0.0115763
-0.0114754
-0.0110436
-0.010276
-0.00916565
-0.00771593
-0.00595381
-0.00395553
-0.00196129
-0.000856368
-0.00183926
-0.00261259
-0.00394317
-0.00555627
-0.0072108
-0.00873508
-0.0100354
-0.0110667
-0.0118153
-0.0122806
-0.012466
-0.0123764
-0.0120161
-0.0113877
-0.0104909
-0.00932696
-0.00790907
-0.00627909
-0.0046642
-0.00362138
-0.00327532
-0.00405459
-0.0053436
-0.006886
-0.00844251
-0.00984969
-0.0110286
-0.0119495
-0.0126101
-0.0130163
-0.0131763
-0.0130991
-0.0127941
-0.0122707
-0.0115361
-0.0105945
-0.00945714
-0.00815193
-0.00690445
-0.00597902
-0.00462687
-0.00536372
-0.00655228
-0.00798457
-0.00941991
-0.0107073
-0.0117781
-0.0126097
-0.0132038
-0.0135687
-0.013714
-0.0136495
-0.0133858
-0.0129367
-0.0123169
-0.0115369
-0.0106124
-0.00956608
-0.00862244
-0.00780656
-0.00568635
-0.006375
-0.00745236
-0.00877933
-0.0101057
-0.0112952
-0.012285
-0.0130544
-0.013605
-0.013945
-0.0140833
-0.0140286
-0.0137919
-0.0133888
-0.0128407
-0.0121671
-0.0113967
-0.01053
-0.00980436
-0.0090878
-0.00637603
-0.00698769
-0.00797965
-0.009233
-0.0104804
-0.0116071
-0.0125501
-0.0132867
-0.0138164
-0.0141454
-0.0142815
-0.0142323
-0.0140079
-0.0136254
-0.0131113
-0.0124917
-0.0118287
-0.0110533
-0.0105057
-0.00981613
-0.00665665
-0.00719386
-0.00813017
-0.00933383
-0.0105391
-0.011641
-0.0125721
-0.0133048
-0.0138346
-0.0141652
-0.0143028
-0.0142537
-0.014028
-0.0136428
-0.0131293
-0.0125129
-0.0119242
-0.0111347
-0.0107666
-0.0099976
-0.00652048
-0.00701437
-0.00791243
-0.00908868
-0.0102871
-0.0113969
-0.0123473
-0.0131032
-0.0136535
-0.0139983
-0.0141413
-0.0140877
-0.0138473
-0.0134378
-0.0128942
-0.0122607
-0.0116517
-0.0108134
-0.0106355
-0.00962105
-0.00603925
-0.00651288
-0.00738126
-0.00852528
-0.00973766
-0.0108797
-0.0118753
-0.0126788
-0.0132696
-0.0136417
-0.0137954
-0.013734
-0.0134673
-0.0130144
-0.0124156
-0.0117222
-0.0110396
-0.0101536
-0.0100852
-0.008708
-0.00532785
-0.00576757
-0.00658962
-0.00768488
-0.00890543
-0.0100945
-0.0111575
-0.0120322
-0.0126843
-0.0130988
-0.0132712
-0.0132018
-0.0129002
-0.0123873
-0.0117098
-0.0109192
-0.0101321
-0.00917915
-0.00909647
-0.00732087
-0.00454324
-0.00490641
-0.00562053
-0.00662819
-0.00783105
-0.00906881
-0.0102149
-0.0111813
-0.0119148
-0.0123882
-0.0125906
-0.0125187
-0.0121792
-0.0115947
-0.0108184
-0.00989853
-0.00897256
-0.00788763
-0.00767382
-0.00549899
-0.00384992
-0.00403639
-0.00453686
-0.00539689
-0.00655586
-0.00783962
-0.00908066
-0.0101573
-0.0109933
-0.0115453
-0.0117939
-0.0117311
-0.0113664
-0.0107104
-0.00982235
-0.00873955
-0.00761493
-0.00629136
-0.00579981
-0.0030348
-0.00339946
-0.00327159
-0.00344103
-0.00409357
-0.00518434
-0.00650614
-0.00784633
-0.00904582
-0.0100025
-0.0106536
-0.0109706
-0.0109395
-0.0105694
-0.00985139
-0.00884361
-0.0075523
-0.00611926
-0.00436869
-0.00323181
0.000903551
-0.00318965
-0.00259401
-0.00237349
-0.00280363
-0.00381889
-0.00516878
-0.00660237
-0.00793127
-0.00902484
-0.0097969
-0.0102048
-0.0102237
-0.00986271
-0.0091127
-0.0079967
-0.00644973
-0.00456333
-0.00200741
0.000646871
0.00813583
-0.00315536
-0.00201547
-0.00152212
-0.00178812
-0.00273591
-0.00410781
-0.00562454
-0.00707132
-0.00829002
-0.00918326
-0.00969353
-0.00979766
-0.00947652
-0.008708
-0.00745395
-0.00562276
-0.00311345
0.00101083
0.00699859
0.0199276
-0.00373439
-0.000708964
-0.00010154
-0.000545862
-0.0015512
-0.00297761
-0.00460147
-0.00617193
-0.00751123
-0.00850482
-0.00909523
-0.0092439
-0.00892909
-0.00812068
-0.00677745
-0.00471958
-0.00111391
0.00556737
0.017296
0.0350444
)
;

boundaryField
{
    movingWall
    {
        type            zeroGradient;
    }
    fixedWalls
    {
        type            zeroGradient;
    }
    frontAndBack
    {
        type            empty;
    }
}


// ************************************************************************* //
