/*--------------------------------*- C++ -*----------------------------------*\
  =========                 |
  \\      /  F ield         | OpenFOAM: The Open Source CFD Toolbox
   \\    /   O peration     | Website:  https://openfoam.org
    \\  /    A nd           | Version:  13
     \\/     M anipulation  |
\*---------------------------------------------------------------------------*/
FoamFile
{
    format      ascii;
    class       surfaceScalarField;
    location    "7";
    object      phi;
}
// * * * * * * * * * * * * * * * * * * * * * * * * * * * * * * * * * * * * * //

dimensions      [0 3 -1 0 0 0 0];

internalField   nonuniform List<scalar> 
3120
(
8.8799e-08
-8.88e-08
2.22403e-07
-1.33605e-07
3.237e-07
-1.01297e-07
3.59443e-07
-3.57428e-08
3.50292e-07
9.15059e-09
3.30751e-07
1.95417e-08
3.22777e-07
7.97328e-09
3.19213e-07
3.56446e-09
2.98217e-07
2.09959e-08
2.42589e-07
5.56281e-08
1.35394e-07
1.07194e-07
-6.73774e-08
2.02772e-07
-3.87488e-07
3.20111e-07
-8.62082e-07
4.74594e-07
-1.44002e-06
5.77937e-07
-2.01438e-06
5.74359e-07
-2.53827e-06
5.23895e-07
-2.9902e-06
4.51926e-07
-3.36601e-06
3.75808e-07
-3.66671e-06
3.00704e-07
-3.89398e-06
2.27268e-07
-4.04964e-06
1.55662e-07
-4.13418e-06
8.45374e-08
-4.14628e-06
1.20992e-08
-4.08131e-06
-6.4972e-08
-3.94209e-06
-1.39211e-07
-3.71496e-06
-2.27134e-07
-3.39968e-06
-3.15279e-07
-2.98859e-06
-4.11091e-07
-2.48305e-06
-5.05539e-07
-1.88486e-06
-5.98188e-07
-1.21664e-06
-6.6822e-07
-5.32932e-07
-6.83713e-07
8.90581e-08
-6.2199e-07
5.79149e-07
-4.90091e-07
7.77373e-07
-1.98225e-07
6.62818e-07
1.14556e-07
4.28679e-07
2.34139e-07
1.80141e-07
2.48538e-07
1.80141e-07
1.62373e-07
-2.51173e-07
3.44885e-07
-3.16116e-07
4.59641e-07
-2.16054e-07
4.93514e-07
-6.96157e-08
4.63285e-07
3.93791e-08
3.91361e-07
9.14665e-08
2.89088e-07
1.10246e-07
1.35058e-07
1.57594e-07
-1.11781e-07
2.67835e-07
-4.9556e-07
4.39408e-07
-1.04814e-06
6.5977e-07
-1.7393e-06
8.93939e-07
-2.47542e-06
1.05623e-06
-3.12298e-06
1.12215e-06
-3.63199e-06
1.08694e-06
-4.06162e-06
1.004e-06
-4.42585e-06
8.88121e-07
-4.72883e-06
7.54909e-07
-4.97055e-06
6.17527e-07
-5.15199e-06
4.82141e-07
-5.27355e-06
3.4883e-07
-5.33943e-06
2.21545e-07
-5.34759e-06
9.27003e-08
-5.297e-06
-3.84991e-08
-5.19025e-06
-1.71718e-07
-5.01594e-06
-3.13522e-07
-4.77475e-06
-4.6832e-07
-4.45494e-06
-6.35092e-07
-4.04723e-06
-8.18806e-07
-3.54767e-06
-1.00509e-06
-2.96169e-06
-1.18417e-06
-2.29725e-06
-1.33265e-06
-1.58027e-06
-1.4007e-06
-8.54e-07
-1.34826e-06
-2.30853e-07
-1.11324e-06
2.31615e-07
-6.60692e-07
3.84002e-07
-3.78315e-08
3.17073e-07
3.01068e-07
1.47766e-07
4.17845e-07
3.27907e-07
2.00149e-07
-4.51322e-07
3.43427e-07
-4.59395e-07
3.95026e-07
-2.67653e-07
3.68647e-07
-4.32363e-08
2.75649e-07
1.32377e-07
1.11331e-07
2.55784e-07
-1.60505e-07
3.82081e-07
-5.76541e-07
5.7363e-07
-1.15341e-06
8.44706e-07
-1.85743e-06
1.14343e-06
-2.59019e-06
1.39253e-06
-3.23443e-06
1.53818e-06
-3.76691e-06
1.58871e-06
-4.19253e-06
1.54778e-06
-4.54031e-06
1.43471e-06
-4.82155e-06
1.28524e-06
-5.04895e-06
1.11552e-06
-5.23119e-06
9.37152e-07
-5.37372e-06
7.60055e-07
-5.47773e-06
5.86155e-07
-5.54653e-06
4.17623e-07
-5.57581e-06
2.5083e-07
-5.56363e-06
8.05129e-08
-5.51248e-06
-8.96478e-08
-5.42002e-06
-2.64178e-07
-5.28315e-06
-4.50385e-07
-5.09892e-06
-6.52555e-07
-4.86165e-06
-8.72359e-07
-4.56656e-06
-1.11389e-06
-4.19874e-06
-1.37291e-06
-3.74539e-06
-1.63753e-06
-3.19749e-06
-1.88055e-06
-2.5582e-06
-2.03999e-06
-1.85378e-06
-2.05268e-06
-1.13578e-06
-1.83124e-06
-4.87436e-07
-1.30904e-06
-7.54414e-08
-4.49826e-07
3.50326e-08
1.90594e-07
2.46959e-08
4.28181e-07
3.52603e-07
1.69453e-07
-6.20775e-07
2.28293e-07
-5.18234e-07
1.86151e-07
-2.25511e-07
6.55248e-08
7.73899e-08
-1.41368e-07
3.39269e-07
-4.69644e-07
5.84061e-07
-9.48442e-07
8.6088e-07
-1.56809e-06
1.19327e-06
-2.26434e-06
1.54096e-06
-2.94357e-06
1.82265e-06
-3.52399e-06
1.97296e-06
-3.98487e-06
1.99906e-06
-4.3387e-06
1.94253e-06
-4.60991e-06
1.819e-06
-4.82714e-06
1.65194e-06
-5.00008e-06
1.45818e-06
-5.14064e-06
1.25607e-06
-5.25714e-06
1.05366e-06
-5.35071e-06
8.53621e-07
-5.41692e-06
6.52366e-07
-5.45647e-06
4.57174e-07
-5.46695e-06
2.61308e-07
-5.44987e-06
6.34299e-08
-5.40658e-06
-1.3293e-07
-5.33476e-06
-3.35998e-07
-5.23164e-06
-5.53505e-07
-5.09536e-06
-7.88839e-07
-4.92189e-06
-1.04583e-06
-4.70999e-06
-1.32579e-06
-4.45454e-06
-1.62837e-06
-4.14992e-06
-1.94214e-06
-3.77941e-06
-2.25107e-06
-3.30073e-06
-2.51866e-06
-2.69323e-06
-2.66018e-06
-1.96789e-06
-2.55658e-06
-1.18215e-06
-2.09477e-06
-4.55871e-07
-1.17611e-06
-1.31164e-07
-1.34113e-07
-2.70142e-08
3.24031e-07
3.25589e-07
8.20135e-08
-7.02789e-07
2.81663e-08
-4.64387e-07
-1.19848e-07
-7.74967e-08
-3.52411e-07
3.09953e-07
-6.93253e-07
6.80111e-07
-1.16439e-06
1.05519e-06
-1.75819e-06
1.45469e-06
-2.41515e-06
1.85024e-06
-3.04314e-06
2.16895e-06
-3.5629e-06
2.3424e-06
-3.9611e-06
2.37116e-06
-4.26709e-06
2.30505e-06
-4.49668e-06
2.17212e-06
-4.67114e-06
1.99345e-06
-4.80907e-06
1.78987e-06
-4.92184e-06
1.57095e-06
-5.01011e-06
1.34434e-06
-5.07232e-06
1.11587e-06
-5.10897e-06
8.90268e-07
-5.12713e-06
6.70532e-07
-5.12841e-06
4.5845e-07
-5.11555e-06
2.48451e-07
-5.08979e-06
3.76705e-08
-5.0487e-06
-1.74018e-07
-4.99049e-06
-3.94214e-07
-4.91558e-06
-6.28416e-07
-4.82332e-06
-8.81092e-07
-4.7121e-06
-1.15705e-06
-4.57827e-06
-1.45962e-06
-4.41684e-06
-1.7898e-06
-4.21797e-06
-2.14101e-06
-3.97331e-06
-2.49572e-06
-3.66413e-06
-2.82784e-06
-3.24556e-06
-3.07875e-06
-2.65154e-06
-3.1506e-06
-1.86996e-06
-2.87635e-06
-9.27216e-07
-2.11885e-06
-2.19852e-07
-8.41476e-07
-1.40341e-08
1.18213e-07
3.11555e-07
-4.77422e-08
-6.55046e-07
-2.13569e-07
-2.9856e-07
-4.63358e-07
1.72292e-07
-8.0322e-07
6.49815e-07
-1.25054e-06
1.12743e-06
-1.79896e-06
1.60361e-06
-2.40223e-06
2.05795e-06
-2.98238e-06
2.43039e-06
-3.46359e-06
2.65016e-06
-3.8219e-06
2.70071e-06
-4.08863e-06
2.63789e-06
-4.28686e-06
2.50328e-06
-4.43129e-06
2.31655e-06
-4.53659e-06
2.09875e-06
-4.60788e-06
1.86117e-06
-4.65207e-06
1.61514e-06
-4.6758e-06
1.36806e-06
-4.6859e-06
1.12597e-06
-4.68715e-06
8.9152e-07
-4.68066e-06
6.64046e-07
-4.66458e-06
4.42373e-07
-4.63979e-06
2.23654e-07
-4.60698e-06
4.8628e-09
-4.56475e-06
-2.16245e-07
-4.51359e-06
-4.4538e-07
-4.45477e-06
-6.87232e-07
-4.38916e-06
-9.46698e-07
-4.3173e-06
-1.22892e-06
-4.23855e-06
-1.53837e-06
-4.1505e-06
-1.87785e-06
-4.04578e-06
-2.24574e-06
-3.90907e-06
-2.63243e-06
-3.7228e-06
-3.01412e-06
-3.45755e-06
-3.34399e-06
-3.05632e-06
-3.55183e-06
-2.427e-06
-3.50568e-06
-1.52185e-06
-3.024e-06
-4.94643e-07
-1.86868e-06
-3.27244e-08
-3.43705e-07
2.7883e-07
-1.72312e-07
-4.82734e-07
-4.51054e-07
-1.98187e-08
-7.90168e-07
5.11407e-07
-1.21426e-06
1.07391e-06
-1.71949e-06
1.63266e-06
-2.2717e-06
2.15583e-06
-2.81052e-06
2.59676e-06
-3.26598e-06
2.88586e-06
-3.60013e-06
2.98431e-06
-3.83784e-06
2.93842e-06
-4.00819e-06
2.80824e-06
-4.12343e-06
2.61852e-06
-4.19701e-06
2.39013e-06
-4.23851e-06
2.14026e-06
-4.25718e-06
1.87983e-06
-4.26091e-06
1.61888e-06
-4.25544e-06
1.36259e-06
-4.24389e-06
1.11441e-06
-4.22703e-06
8.74663e-07
-4.20519e-06
6.42209e-07
-4.17817e-06
4.15353e-07
-4.14595e-06
1.91436e-07
-4.10895e-06
-3.2139e-08
-4.06645e-06
-2.58747e-07
-4.01942e-06
-4.9241e-07
-3.96918e-06
-7.3747e-07
-3.91734e-06
-9.98544e-07
-3.86565e-06
-1.2806e-06
-3.81544e-06
-1.58858e-06
-3.76669e-06
-1.9266e-06
-3.71602e-06
-2.2964e-06
-3.65431e-06
-2.69414e-06
-3.56333e-06
-3.1051e-06
-3.41061e-06
-3.49671e-06
-3.15355e-06
-3.80889e-06
-2.71841e-06
-3.94082e-06
-2.01512e-06
-3.7273e-06
-9.50248e-07
-2.93355e-06
-1.1686e-07
-1.17709e-06
1.6197e-07
-2.82791e-07
-1.99943e-07
-6.41831e-07
3.39221e-07
-1.05718e-06
9.26759e-07
-1.52983e-06
1.54655e-06
-2.04072e-06
2.14356e-06
-2.54735e-06
2.66245e-06
-2.99027e-06
3.03968e-06
-3.31821e-06
3.2138e-06
-3.54067e-06
3.20677e-06
-3.69311e-06
3.09087e-06
-3.79078e-06
2.90591e-06
-3.84557e-06
2.67331e-06
-3.86977e-06
2.41433e-06
-3.87281e-06
2.1433e-06
-3.86314e-06
1.87016e-06
-3.8463e-06
1.60204e-06
-3.82571e-06
1.342e-06
-3.80264e-06
1.09134e-06
-3.77724e-06
8.49265e-07
-3.74941e-06
6.14372e-07
-3.71872e-06
3.8467e-07
-3.68485e-06
1.57559e-07
-3.64749e-06
-6.94905e-08
-3.60658e-06
-2.99662e-07
-3.56277e-06
-5.36224e-07
-3.51741e-06
-7.82828e-07
-3.47246e-06
-1.04349e-06
-3.43038e-06
-1.32269e-06
-3.39362e-06
-1.62534e-06
-3.36372e-06
-1.9565e-06
-3.33986e-06
-2.32026e-06
-3.31657e-06
-2.71743e-06
-3.28026e-06
-3.14141e-06
-3.20471e-06
-3.57226e-06
-3.04767e-06
-3.96593e-06
-2.75173e-06
-4.23675e-06
-2.24312e-06
-4.23591e-06
-1.41968e-06
-3.75699e-06
-3.35245e-07
-2.26153e-06
-1.73275e-07
-3.58384e-07
1.58441e-07
-7.83309e-07
7.64147e-07
-1.23859e-06
1.38204e-06
-1.72021e-06
2.02817e-06
-2.20374e-06
2.62709e-06
-2.64555e-06
3.10427e-06
-2.98326e-06
3.37739e-06
-3.20882e-06
3.43936e-06
-3.35614e-06
3.35409e-06
-3.44747e-06
3.1822e-06
-3.49481e-06
2.95325e-06
-3.51067e-06
2.68916e-06
-3.50592e-06
2.40958e-06
-3.48887e-06
2.12625e-06
-3.46586e-06
1.84714e-06
-3.44042e-06
1.5766e-06
-3.41437e-06
1.31596e-06
-3.38818e-06
1.06515e-06
-3.3616e-06
8.22686e-07
-3.33402e-06
5.86789e-07
-3.30459e-06
3.55247e-07
-3.27263e-06
1.25591e-07
-3.23743e-06
-1.04683e-07
-3.19894e-06
-3.3816e-07
-3.15756e-06
-5.776e-07
-3.11447e-06
-8.25917e-07
-3.07162e-06
-1.08634e-06
-3.03172e-06
-1.36258e-06
-2.99796e-06
-1.65911e-06
-2.97329e-06
-1.98117e-06
-2.95907e-06
-2.33448e-06
-2.95285e-06
-2.72365e-06
-2.9451e-06
-3.14915e-06
-2.9154e-06
-3.60196e-06
-2.82766e-06
-4.05368e-06
-2.63015e-06
-4.43426e-06
-2.27676e-06
-4.5893e-06
-1.68438e-06
-4.34936e-06
-6.25949e-07
-3.31996e-06
-7.99224e-07
-4.02704e-07
5.61145e-07
-8.61829e-07
1.22327e-06
-1.32878e-06
1.84899e-06
-1.79508e-06
2.49447e-06
-2.2366e-06
3.0686e-06
-2.59655e-06
3.46423e-06
-2.84145e-06
3.62229e-06
-2.9998e-06
3.59771e-06
-3.09552e-06
3.4498e-06
-3.14546e-06
3.23214e-06
-3.16145e-06
2.96924e-06
-3.15543e-06
2.68315e-06
-3.13661e-06
2.39076e-06
-3.11163e-06
2.10127e-06
-3.08487e-06
1.82039e-06
-3.05855e-06
1.55027e-06
-3.03351e-06
1.29092e-06
-3.0096e-06
1.04124e-06
-2.98614e-06
7.99223e-07
-2.96212e-06
5.62766e-07
-2.93645e-06
3.2958e-07
-2.90824e-06
9.73806e-08
-2.87671e-06
-1.36214e-07
-2.84157e-06
-3.73301e-07
-2.80301e-06
-6.16155e-07
-2.76185e-06
-8.67073e-07
-2.71969e-06
-1.12851e-06
-2.67893e-06
-1.40334e-06
-2.64279e-06
-1.69524e-06
-2.61487e-06
-2.0091e-06
-2.59808e-06
-2.35126e-06
-2.59273e-06
-2.72901e-06
-2.59349e-06
-3.14839e-06
-2.58589e-06
-3.60956e-06
-2.54097e-06
-4.09861e-06
-2.40858e-06
-4.56664e-06
-2.14081e-06
-4.85707e-06
-1.67769e-06
-4.81249e-06
-8.95187e-07
-4.10247e-06
-1.69441e-06
-4.20487e-07
9.81632e-07
-8.84335e-07
1.68712e-06
-1.33961e-06
2.30426e-06
-1.77388e-06
2.92875e-06
-2.15876e-06
3.45348e-06
-2.43594e-06
3.74141e-06
-2.61971e-06
3.80605e-06
-2.73257e-06
3.71057e-06
-2.7938e-06
3.51103e-06
-2.81817e-06
3.2565e-06
-2.81708e-06
2.96815e-06
-2.80126e-06
2.66733e-06
-2.77812e-06
2.36763e-06
-2.75274e-06
2.07588e-06
-2.72804e-06
1.79569e-06
-2.70527e-06
1.5275e-06
-2.68459e-06
1.27024e-06
-2.66535e-06
1.022e-06
-2.6466e-06
7.80471e-07
-2.62718e-06
5.43345e-07
-2.60598e-06
3.0838e-07
-2.58208e-06
7.34765e-08
-2.55475e-06
-1.63541e-07
-2.52357e-06
-4.04485e-07
-2.48851e-06
-6.51208e-07
-2.45004e-06
-9.0555e-07
-2.40921e-06
-1.16933e-06
-2.36789e-06
-1.44466e-06
-2.3288e-06
-1.73433e-06
-2.29544e-06
-2.04246e-06
-2.27144e-06
-2.37526e-06
-2.25903e-06
-2.74142e-06
-2.25635e-06
-3.15107e-06
-2.25425e-06
-3.61166e-06
-2.23179e-06
-4.12107e-06
-2.14545e-06
-4.65299e-06
-1.9248e-06
-5.07772e-06
-1.55148e-06
-5.1858e-06
-9.46788e-07
-4.70716e-06
-2.6412e-06
-4.11015e-07
1.39265e-06
-8.58141e-07
2.13425e-06
-1.28439e-06
2.73052e-06
-1.67778e-06
3.32214e-06
-1.99719e-06
3.77289e-06
-2.2132e-06
3.95742e-06
-2.35526e-06
3.94811e-06
-2.43585e-06
3.79117e-06
-2.47528e-06
3.55047e-06
-2.48549e-06
3.26671e-06
-2.47715e-06
2.9598e-06
-2.45925e-06
2.64943e-06
-2.4376e-06
2.34598e-06
-2.41594e-06
2.05423e-06
-2.39615e-06
1.7759e-06
-2.37873e-06
1.51009e-06
-2.36336e-06
1.25486e-06
-2.34915e-06
1.0078e-06
-2.33507e-06
7.66388e-07
-2.32002e-06
5.28297e-07
-2.30303e-06
2.91387e-07
-2.28327e-06
5.37165e-08
-2.26013e-06
-1.86682e-07
-2.23315e-06
-4.31468e-07
-2.20214e-06
-6.82214e-07
-2.16724e-06
-9.40451e-07
-2.129e-06
-1.20757e-06
-2.08858e-06
-1.48508e-06
-2.04797e-06
-1.77494e-06
-2.01009e-06
-2.08033e-06
-1.97861e-06
-2.40674e-06
-1.95687e-06
-2.76316e-06
-1.94564e-06
-3.16231e-06
-1.9397e-06
-3.6176e-06
-1.92454e-06
-4.13623e-06
-1.86953e-06
-4.708e-06
-1.69302e-06
-5.25423e-06
-1.3852e-06
-5.49362e-06
-8.46803e-07
-5.24556e-06
-3.488e-06
-3.81185e-07
1.77383e-06
-7.96225e-07
2.54929e-06
-1.18405e-06
3.11834e-06
-1.52927e-06
3.66736e-06
-1.7843e-06
4.02792e-06
-1.95869e-06
4.13181e-06
-2.06868e-06
4.05811e-06
-2.12866e-06
3.85115e-06
-2.15534e-06
3.57715e-06
-2.15912e-06
3.27049e-06
-2.14959e-06
2.95028e-06
-2.13398e-06
2.63382e-06
-2.11673e-06
2.32872e-06
-2.10051e-06
2.03801e-06
-2.0864e-06
1.76178e-06
-2.07441e-06
1.49811e-06
-2.06396e-06
1.24441e-06
-2.05414e-06
9.97978e-07
-2.044e-06
7.56246e-07
-2.03264e-06
5.16936e-07
-2.01928e-06
2.7803e-07
-2.00328e-06
3.77076e-08
-1.98412e-06
-2.05836e-07
-1.96141e-06
-4.54183e-07
-1.93484e-06
-7.08776e-07
-1.90432e-06
-9.70976e-07
-1.86996e-06
-1.24194e-06
-1.83229e-06
-1.52274e-06
-1.79252e-06
-1.81472e-06
-1.75274e-06
-2.12011e-06
-1.71613e-06
-2.44335e-06
-1.68642e-06
-2.79287e-06
-1.66622e-06
-3.18251e-06
-1.65341e-06
-3.6304e-06
-1.63776e-06
-4.15188e-06
-1.59653e-06
-4.74922e-06
-1.46729e-06
-5.38347e-06
-1.19623e-06
-5.76468e-06
-7.41476e-07
-5.70032e-06
-4.22948e-06
-3.37731e-07
2.11156e-06
-7.10603e-07
2.92216e-06
-1.0527e-06
3.46043e-06
-1.34395e-06
3.95861e-06
-1.54659e-06
4.23055e-06
-1.6891e-06
4.27433e-06
-1.77621e-06
4.14522e-06
-1.82291e-06
3.89784e-06
-1.84281e-06
3.59705e-06
-1.84493e-06
3.27261e-06
-1.83754e-06
2.94289e-06
-1.82622e-06
2.6225e-06
-1.81434e-06
2.31684e-06
-1.80371e-06
2.02738e-06
-1.79485e-06
1.75292e-06
-1.78752e-06
1.49078e-06
-1.78108e-06
1.23797e-06
-1.77472e-06
9.91619e-07
-1.76769e-06
7.49218e-07
-1.75933e-06
5.08573e-07
-1.74907e-06
2.67772e-07
-1.73644e-06
2.50793e-08
-1.72107e-06
-2.21207e-07
-1.70261e-06
-4.72647e-07
-1.68072e-06
-7.30666e-07
-1.65512e-06
-9.96575e-07
-1.62562e-06
-1.27144e-06
-1.59225e-06
-1.55611e-06
-1.55551e-06
-1.85146e-06
-1.5167e-06
-2.15892e-06
-1.47823e-06
-2.48182e-06
-1.44365e-06
-2.82745e-06
-1.41657e-06
-3.20959e-06
-1.39766e-06
-3.64932e-06
-1.38033e-06
-4.16921e-06
-1.34699e-06
-4.78256e-06
-1.25783e-06
-5.47263e-06
-1.01676e-06
-6.00575e-06
-6.29997e-07
-6.08708e-06
-4.85948e-06
-2.86451e-07
2.39801e-06
-6.08402e-07
3.24411e-06
-9.00791e-07
3.75282e-06
-1.13783e-06
4.19565e-06
-1.30244e-06
4.39515e-06
-1.41877e-06
4.39066e-06
-1.48784e-06
4.21429e-06
-1.52553e-06
3.93553e-06
-1.54212e-06
3.61364e-06
-1.54513e-06
3.27562e-06
-1.54128e-06
2.93903e-06
-1.53474e-06
2.61597e-06
-1.52802e-06
2.31012e-06
-1.52229e-06
2.02165e-06
-1.51773e-06
1.74837e-06
-1.51402e-06
1.48707e-06
-1.5106e-06
1.23454e-06
-1.50686e-06
9.87878e-07
-1.50226e-06
7.44624e-07
-1.49637e-06
5.02683e-07
-1.48882e-06
2.60225e-07
-1.47931e-06
1.55632e-08
-1.46756e-06
-2.3295e-07
-1.45332e-06
-4.86895e-07
-1.43623e-06
-7.47754e-07
-1.41592e-06
-1.01688e-06
-1.392e-06
-1.29537e-06
-1.36411e-06
-1.584e-06
-1.33224e-06
-1.88333e-06
-1.29697e-06
-2.19419e-06
-1.25998e-06
-2.51881e-06
-1.22431e-06
-2.86311e-06
-1.19394e-06
-3.23996e-06
-1.17136e-06
-3.67189e-06
-1.15257e-06
-4.188e-06
-1.124e-06
-4.81114e-06
-1.05847e-06
-5.53815e-06
-8.6257e-07
-6.20165e-06
-5.40934e-07
-6.40872e-06
-5.40041e-06
-2.28292e-07
2.62631e-06
-4.96931e-07
3.51275e-06
-7.39782e-07
3.99567e-06
-9.27559e-07
4.38343e-06
-1.06008e-06
4.52768e-06
-1.15236e-06
4.48294e-06
-1.20811e-06
4.27003e-06
-1.23965e-06
3.96707e-06
-1.25481e-06
3.6288e-06
-1.25973e-06
3.28054e-06
-1.25959e-06
2.93889e-06
-1.25745e-06
2.61383e-06
-1.25507e-06
2.30774e-06
-1.25321e-06
2.01978e-06
-1.25188e-06
1.74704e-06
-1.25081e-06
1.486e-06
-1.24958e-06
1.23331e-06
-1.24781e-06
9.86102e-07
-1.24516e-06
7.41976e-07
-1.24139e-06
4.98913e-07
-1.2363e-06
2.55139e-07
-1.22973e-06
8.98802e-09
-1.2215e-06
-2.41173e-07
-1.21143e-06
-4.96969e-07
-1.19921e-06
-7.59978e-07
-1.18442e-06
-1.03166e-06
-1.16655e-06
-1.31324e-06
-1.145e-06
-1.60554e-06
-1.11936e-06
-1.90898e-06
-1.08965e-06
-2.22389e-06
-1.05692e-06
-2.55155e-06
-1.02366e-06
-2.89637e-06
-9.93904e-07
-3.26971e-06
-9.71454e-07
-3.69434e-06
-9.55038e-07
-4.20442e-06
-9.34667e-07
-4.83151e-06
-8.89387e-07
-5.58343e-06
-7.32731e-07
-6.35831e-06
-4.53901e-07
-6.68755e-06
-5.85431e-06
-1.70578e-07
2.79688e-06
-3.8339e-07
3.72556e-06
-5.76159e-07
4.18844e-06
-7.19231e-07
4.5265e-06
-8.22463e-07
4.63091e-06
-8.94122e-07
4.5546e-06
-9.3904e-07
4.31495e-06
-9.65966e-07
3.994e-06
-9.80509e-07
3.64335e-06
-9.87438e-07
3.28747e-06
-9.9055e-07
2.942e-06
-9.91975e-07
2.61525e-06
-9.92928e-07
2.3087e-06
-9.93868e-07
2.02072e-06
-9.94802e-07
1.74798e-06
-9.95548e-07
1.48675e-06
-9.9588e-07
1.23364e-06
-9.95604e-07
9.85826e-07
-9.9458e-07
7.40952e-07
-9.92716e-07
4.9705e-07
-9.89949e-07
2.52371e-07
-9.86218e-07
5.25688e-09
-9.8145e-07
-2.45941e-07
-9.75517e-07
-5.02902e-07
-9.68178e-07
-7.67317e-07
-9.59042e-07
-1.0408e-06
-9.47539e-07
-1.32474e-06
-9.32959e-07
-1.62012e-06
-9.14595e-07
-1.92734e-06
-8.92066e-07
-2.24642e-06
-8.65823e-07
-2.57779e-06
-8.37757e-07
-2.92444e-06
-8.11603e-07
-3.29587e-06
-7.92027e-07
-3.71392e-06
-7.80496e-07
-4.21595e-06
-7.6914e-07
-4.84286e-06
-7.37091e-07
-5.61548e-06
-6.27475e-07
-6.46792e-06
-3.95749e-07
-6.91928e-06
-6.25006e-06
-1.08736e-07
2.90562e-06
-2.68546e-07
3.88537e-06
-4.12398e-07
4.33229e-06
-5.15702e-07
4.62981e-06
-5.92575e-07
4.70778e-06
-6.45716e-07
4.60774e-06
-6.80967e-07
4.3502e-06
-7.03824e-07
4.01686e-06
-7.17834e-07
3.65736e-06
-7.26361e-07
3.29599e-06
-7.31957e-07
2.9476e-06
-7.35999e-07
2.61929e-06
-7.39271e-07
2.31197e-06
-7.42075e-07
2.02352e-06
-7.44461e-07
1.75036e-06
-7.46388e-07
1.48867e-06
-7.47808e-07
1.23507e-06
-7.48706e-07
9.86723e-07
-7.49094e-07
7.41339e-07
-7.49007e-07
4.96963e-07
-7.48484e-07
2.51848e-07
-7.47551e-07
4.32477e-09
-7.4621e-07
-2.47283e-07
-7.44399e-07
-5.04712e-07
-7.4195e-07
-7.69766e-07
-7.38531e-07
-1.04422e-06
-7.336e-07
-1.32967e-06
-7.26409e-07
-1.62731e-06
-7.16103e-07
-1.93765e-06
-7.02008e-07
-2.26052e-06
-6.84128e-07
-2.59567e-06
-6.63806e-07
-2.94476e-06
-6.44343e-07
-3.31533e-06
-6.30748e-07
-3.72751e-06
-6.26554e-07
-4.22014e-06
-6.26225e-07
-4.84319e-06
-6.09465e-07
-5.63224e-06
-5.33572e-07
-6.54382e-06
-3.40487e-07
-7.11236e-06
-6.59055e-06
-5.32927e-08
2.95891e-06
-1.56574e-07
3.98865e-06
-2.51786e-07
4.42751e-06
-3.19054e-07
4.69708e-06
-3.70833e-07
4.75956e-06
-4.06855e-07
4.64376e-06
-4.33004e-07
4.37635e-06
-4.51769e-07
4.03562e-06
-4.64884e-07
3.67047e-06
-4.7434e-07
3.30545e-06
-4.81576e-07
2.95484e-06
-4.87317e-07
2.62503e-06
-4.92019e-07
2.31667e-06
-4.95911e-07
2.02742e-06
-4.99113e-07
1.75356e-06
-5.01734e-07
1.49129e-06
-5.03892e-07
1.23722e-06
-5.05724e-07
9.88556e-07
-5.07373e-07
7.42989e-07
-5.08977e-07
4.98567e-07
-5.10659e-07
2.53529e-07
-5.12512e-07
6.17819e-09
-5.14596e-07
-2.45199e-07
-5.16915e-07
-5.02393e-07
-5.19372e-07
-7.67309e-07
-5.21714e-07
-1.04188e-06
-5.2348e-07
-1.32791e-06
-5.23962e-07
-1.62683e-06
-5.22261e-07
-1.93935e-06
-5.17518e-07
-2.26526e-06
-5.09386e-07
-2.6038e-06
-4.98718e-07
-2.95543e-06
-4.88339e-07
-3.32571e-06
-4.83245e-07
-3.73261e-06
-4.88224e-07
-4.21516e-06
-5.00027e-07
-4.83139e-06
-5.01745e-07
-5.63053e-06
-4.57209e-07
-6.58835e-06
-3.00818e-07
-7.26875e-06
-6.89136e-06
8.32775e-09
2.95059e-06
-4.39556e-08
4.04093e-06
-9.53126e-08
4.47886e-06
-1.30125e-07
4.73189e-06
-1.57062e-07
4.7865e-06
-1.76836e-07
4.66353e-06
-1.93648e-07
4.39316e-06
-2.07853e-07
4.04983e-06
-2.19499e-07
3.68212e-06
-2.29135e-07
3.31509e-06
-2.37216e-07
2.96292e-06
-2.43853e-07
2.63167e-06
-2.49262e-07
2.32208e-06
-2.53629e-07
2.03178e-06
-2.57155e-07
1.75709e-06
-2.60089e-07
1.49423e-06
-2.62706e-07
1.23984e-06
-2.6528e-07
9.91129e-07
-2.68066e-07
7.45774e-07
-2.71291e-07
5.01792e-07
-2.75146e-07
2.57384e-07
-2.79783e-07
1.08154e-08
-2.8531e-07
-2.39672e-07
-2.91784e-07
-4.95919e-07
-2.9918e-07
-7.59914e-07
-3.07335e-07
-1.03372e-06
-3.15896e-07
-1.31935e-06
-3.24255e-07
-1.61847e-06
-3.3156e-07
-1.93205e-06
-3.36885e-07
-2.25993e-06
-3.39635e-07
-2.60105e-06
-3.40234e-07
-2.95483e-06
-3.41006e-07
-3.32494e-06
-3.46674e-07
-3.72694e-06
-3.62719e-07
-4.19912e-06
-3.88186e-07
-4.80592e-06
-4.08328e-07
-5.61038e-06
-3.89731e-07
-6.60695e-06
-2.63828e-07
-7.39465e-06
-7.15519e-06
6.44758e-08
2.88611e-06
6.55458e-08
4.03986e-06
5.58871e-08
4.48852e-06
5.20273e-08
4.73575e-06
4.99189e-08
4.7886e-06
4.55425e-08
4.66791e-06
3.87284e-08
4.39997e-06
2.98212e-08
4.05874e-06
2.04403e-08
3.6915e-06
1.14526e-08
3.32407e-06
3.42591e-09
2.97094e-06
-3.46409e-09
2.63856e-06
-9.08011e-09
2.3277e-06
-1.34806e-08
2.03618e-06
-1.69649e-08
1.76057e-06
-1.99246e-08
1.49719e-06
-2.27772e-08
1.24269e-06
-2.59243e-08
9.94276e-07
-2.97275e-08
7.49578e-07
-3.44968e-08
5.06561e-07
-4.04889e-08
2.63377e-07
-4.79081e-08
1.82346e-08
-5.69073e-08
-2.30673e-07
-6.75886e-08
-4.85237e-07
-7.99834e-08
-7.47519e-07
-9.40132e-08
-1.01969e-06
-1.09443e-07
-1.30392e-06
-1.25813e-07
-1.6021e-06
-1.42407e-07
-1.91545e-06
-1.58339e-07
-2.244e-06
-1.72871e-07
-2.58652e-06
-1.85984e-07
-2.94171e-06
-1.99561e-07
-3.31136e-06
-2.17889e-07
-3.70861e-06
-2.46762e-07
-4.17024e-06
-2.8733e-07
-4.76535e-06
-3.26829e-07
-5.57088e-06
-3.34526e-07
-6.59925e-06
-2.36104e-07
-7.49308e-06
-7.3913e-06
1.21465e-07
2.76465e-06
1.73273e-07
3.98806e-06
2.04097e-07
4.4577e-06
2.31975e-07
4.70787e-06
2.55503e-07
4.76508e-06
2.66639e-07
4.65678e-06
2.67874e-07
4.39874e-06
2.63944e-07
4.06266e-06
2.57155e-07
3.69829e-06
2.49341e-07
3.33189e-06
2.41754e-07
2.97853e-06
2.3524e-07
2.64508e-06
2.30054e-07
2.33288e-06
2.26088e-07
2.04015e-06
2.22995e-07
1.76367e-06
2.20285e-07
1.4999e-06
2.17419e-07
1.24556e-06
2.1388e-07
9.97816e-07
2.09203e-07
7.54254e-07
2.02997e-07
5.12768e-07
1.94937e-07
2.71436e-07
1.84766e-07
2.84056e-08
1.72286e-07
-2.18193e-07
1.57354e-07
-4.70305e-07
1.39886e-07
-7.30051e-07
1.19888e-07
-9.99693e-07
9.74776e-08
-1.28151e-06
7.29473e-08
-1.57757e-06
4.68507e-08
-1.88936e-06
1.99782e-08
-2.21713e-06
-6.92455e-09
-2.55962e-06
-3.38261e-08
-2.91481e-06
-6.17544e-08
-3.28343e-06
-9.44896e-08
-3.67588e-06
-1.37863e-07
-4.12687e-06
-1.94436e-07
-4.70878e-06
-2.525e-07
-5.51282e-06
-2.84465e-07
-6.56729e-06
-2.10989e-07
-7.56655e-06
-7.60229e-06
1.78304e-07
2.58634e-06
2.79556e-07
3.8868e-06
3.47982e-07
4.38927e-06
4.05093e-07
4.65076e-06
4.52948e-07
4.71722e-06
4.81818e-07
4.6279e-06
4.92795e-07
4.38776e-06
4.95285e-07
4.06017e-06
4.92245e-07
3.70133e-06
4.86536e-07
3.3376e-06
4.80227e-07
2.98484e-06
4.74579e-07
2.65073e-06
4.70139e-07
2.33732e-06
4.66893e-07
2.04339e-06
4.64455e-07
1.76611e-06
4.62235e-07
1.50212e-06
4.59576e-07
1.24822e-06
4.55843e-07
1.00155e-06
4.50471e-07
7.59626e-07
4.42979e-07
5.2026e-07
4.32972e-07
2.81443e-07
4.2013e-07
4.1248e-08
4.04204e-07
-2.02267e-07
3.85015e-07
-4.51116e-07
3.62426e-07
-7.07462e-07
3.36356e-07
-9.73623e-07
3.06798e-07
-1.25195e-06
2.73884e-07
-1.54466e-06
2.37959e-07
-1.85343e-06
1.99576e-07
-2.17875e-06
1.59426e-07
-2.51947e-06
1.18031e-07
-2.87342e-06
7.45685e-08
-3.23997e-06
2.58638e-08
-3.62717e-06
-3.38597e-08
-4.06715e-06
-1.08067e-07
-4.63457e-06
-1.85371e-07
-5.43552e-06
-2.38214e-07
-6.51445e-06
-1.92272e-07
-7.61249e-06
-7.79456e-06
2.33214e-07
2.35313e-06
3.8349e-07
3.73653e-06
4.88526e-07
4.28424e-06
5.74348e-07
4.56494e-06
6.43579e-07
4.64799e-06
6.92007e-07
4.57948e-06
7.14871e-07
4.3649e-06
7.25105e-07
4.04994e-06
7.27023e-07
3.69941e-06
7.24453e-07
3.34017e-06
7.20226e-07
2.98907e-06
7.16102e-07
2.65485e-06
7.12914e-07
2.34051e-06
7.10766e-07
2.04554e-06
7.09276e-07
1.7676e-06
7.07792e-07
1.5036e-06
7.05565e-07
1.25045e-06
7.01852e-07
1.00526e-06
6.95986e-07
7.65492e-07
6.87392e-07
5.28853e-07
6.75594e-07
2.93241e-07
6.60207e-07
5.66355e-08
6.40925e-07
-1.82984e-07
6.17512e-07
-4.27703e-07
5.89764e-07
-6.79714e-07
5.57509e-07
-9.41368e-07
5.20637e-07
-1.21508e-06
4.79131e-07
-1.50315e-06
4.33084e-07
-1.80738e-06
3.82815e-07
-2.12848e-06
3.28902e-07
-2.46556e-06
2.71902e-07
-2.81642e-06
2.1155e-07
-3.17962e-06
1.45345e-07
-3.56097e-06
6.7708e-08
-3.98951e-06
-2.58701e-08
-4.541e-06
-1.24223e-07
-5.33716e-06
-1.9684e-07
-6.44183e-06
-1.75197e-07
-7.63414e-06
-7.96975e-06
2.85702e-07
2.06743e-06
4.8364e-07
3.53859e-06
6.24247e-07
4.14363e-06
7.38346e-07
4.45084e-06
8.28252e-07
4.55808e-06
8.96777e-07
4.51095e-06
9.3443e-07
4.32725e-06
9.53968e-07
4.0304e-06
9.62299e-07
3.69108e-06
9.64211e-07
3.33825e-06
9.63176e-07
2.9901e-06
9.61437e-07
2.65659e-06
9.60137e-07
2.34181e-06
9.59559e-07
2.04612e-06
9.59383e-07
1.76777e-06
9.58943e-07
1.50404e-06
9.5742e-07
1.25197e-06
9.53982e-07
1.0087e-06
9.47861e-07
7.71613e-07
9.38388e-07
5.38326e-07
9.24998e-07
3.06631e-07
9.07227e-07
7.44063e-08
8.84702e-07
-1.6046e-07
8.57111e-07
-4.00112e-07
8.24176e-07
-6.4678e-07
7.85649e-07
-9.02841e-07
7.41295e-07
-1.17072e-06
6.90892e-07
-1.45275e-06
6.34308e-07
-1.7508e-06
5.71644e-07
-2.06581e-06
5.03241e-07
-2.39715e-06
4.29657e-07
-2.74283e-06
3.51112e-07
-3.10107e-06
2.65876e-07
-3.47573e-06
1.68882e-07
-3.89252e-06
5.49141e-08
-4.42703e-06
-6.62976e-08
-5.21595e-06
-1.59832e-07
-6.34829e-06
-1.61994e-07
-7.63198e-06
-8.13175e-06
3.3362e-07
1.7338e-06
5.77071e-07
3.29514e-06
7.522e-07
3.9685e-06
8.92925e-07
4.31011e-06
1.00596e-06
4.44505e-06
1.0943e-06
4.42261e-06
1.15013e-06
4.27142e-06
1.1815e-06
3.99903e-06
1.19828e-06
3.67429e-06
1.20645e-06
3.33009e-06
1.21011e-06
2.98644e-06
1.21195e-06
2.65474e-06
1.21347e-06
2.3403e-06
1.21515e-06
2.04443e-06
1.21683e-06
1.7661e-06
1.21786e-06
1.50301e-06
1.21739e-06
1.25243e-06
1.21455e-06
1.01154e-06
1.20846e-06
7.77697e-07
1.19838e-06
5.4841e-07
1.18364e-06
3.21376e-07
1.16368e-06
9.43585e-08
1.13807e-06
-1.34848e-07
1.10639e-06
-3.68426e-07
1.06826e-06
-6.08649e-07
1.02333e-06
-8.57918e-07
9.71246e-07
-1.11864e-06
9.11605e-07
-1.39311e-06
8.44029e-07
-1.68322e-06
7.68277e-07
-1.99006e-06
6.84451e-07
-2.31333e-06
5.93155e-07
-2.65154e-06
4.9501e-07
-3.00293e-06
3.89068e-07
-3.36979e-06
2.71121e-07
-3.77457e-06
1.36761e-07
-4.29267e-06
-2.01585e-09
-5.07717e-06
-1.18652e-07
-6.23166e-06
-1.45488e-07
-7.60514e-06
-8.27724e-06
3.72064e-07
1.36174e-06
6.58113e-07
3.00909e-06
8.67832e-07
3.75878e-06
1.03561e-06
4.14234e-06
1.17279e-06
4.30787e-06
1.28101e-06
4.3144e-06
1.35824e-06
4.19418e-06
1.40547e-06
3.9518e-06
1.4339e-06
3.64586e-06
1.45092e-06
3.31307e-06
1.46143e-06
2.97594e-06
1.46862e-06
2.64755e-06
1.47434e-06
2.33458e-06
1.47937e-06
2.0394e-06
1.4837e-06
1.76176e-06
1.48683e-06
1.49989e-06
1.48793e-06
1.25133e-06
1.48609e-06
1.01338e-06
1.4804e-06
7.83384e-07
1.47003e-06
5.58783e-07
1.45421e-06
3.37191e-07
1.43232e-06
1.16251e-07
1.4038e-06
-1.06329e-07
1.36813e-06
-3.32748e-07
1.32481e-06
-5.6533e-07
1.27337e-06
-8.06478e-07
1.21327e-06
-1.05854e-06
1.14392e-06
-1.32376e-06
1.06469e-06
-1.60398e-06
9.75035e-07
-1.90041e-06
8.74817e-07
-2.21311e-06
7.64513e-07
-2.54123e-06
6.45084e-07
-2.8835e-06
5.16559e-07
-3.24126e-06
3.75377e-07
-3.63339e-06
2.16709e-07
-4.134e-06
4.93794e-08
-4.90984e-06
-8.7696e-08
-6.09458e-06
-1.36268e-07
-7.55657e-06
-8.41351e-06
3.91775e-07
9.69965e-07
7.17836e-07
2.68303e-06
9.65251e-07
3.51137e-06
1.16144e-06
3.94615e-06
1.32294e-06
4.14637e-06
1.45402e-06
4.18332e-06
1.5546e-06
4.0936e-06
1.62222e-06
3.88418e-06
1.66667e-06
3.60141e-06
1.69625e-06
3.2835e-06
1.71669e-06
2.9555e-06
1.73176e-06
2.63248e-06
1.74373e-06
2.32261e-06
1.75371e-06
2.02942e-06
1.76195e-06
1.75352e-06
1.76812e-06
1.49372e-06
1.77152e-06
1.24793e-06
1.77126e-06
1.01363e-06
1.76645e-06
7.882e-07
1.75618e-06
5.69051e-07
1.73962e-06
3.5375e-07
1.71606e-06
1.39815e-07
1.68482e-06
-7.50913e-08
1.64524e-06
-2.93172e-07
1.59671e-06
-5.16798e-07
1.53858e-06
-7.48343e-07
1.4701e-06
-9.90069e-07
1.39047e-06
-1.24413e-06
1.29877e-06
-1.51228e-06
1.19421e-06
-1.79585e-06
1.07637e-06
-2.09527e-06
9.45653e-07
-2.41052e-06
8.03189e-07
-2.74104e-06
6.49919e-07
-3.08799e-06
4.8327e-07
-3.46674e-06
2.98546e-07
-3.94927e-06
1.05066e-07
-4.71636e-06
-5.54516e-08
-5.93407e-06
-1.23511e-07
-7.48851e-06
-8.53702e-06
3.74361e-07
5.95605e-07
7.46141e-07
2.31125e-06
1.03613e-06
3.22137e-06
1.26326e-06
3.71903e-06
1.45003e-06
3.9596e-06
1.60669e-06
4.02665e-06
1.73332e-06
3.96698e-06
1.82629e-06
3.79121e-06
1.89225e-06
3.53545e-06
1.93937e-06
3.23637e-06
1.97403e-06
2.92084e-06
2.00057e-06
2.60594e-06
2.02172e-06
2.30145e-06
2.03901e-06
2.01214e-06
2.05301e-06
1.73952e-06
2.06366e-06
1.48308e-06
2.07045e-06
1.24114e-06
2.07262e-06
1.01146e-06
2.06932e-06
7.91497e-07
2.05966e-06
5.78715e-07
2.04275e-06
3.70662e-07
2.01781e-06
1.64753e-07
1.984e-06
-4.12833e-08
1.94058e-06
-2.49753e-07
1.88675e-06
-4.62963e-07
1.82165e-06
-6.83243e-07
1.74431e-06
-9.12729e-07
1.65365e-06
-1.15347e-06
1.5485e-06
-1.40713e-06
1.42782e-06
-1.67517e-06
1.29096e-06
-1.95841e-06
1.13825e-06
-2.25782e-06
9.70898e-07
-2.57368e-06
7.90636e-07
-2.90773e-06
5.96053e-07
-3.27216e-06
3.83262e-07
-3.73648e-06
1.61166e-07
-4.49427e-06
-2.98848e-08
-5.74301e-06
-1.18337e-07
-7.40005e-06
-8.65535e-06
3.00781e-07
2.94824e-07
7.359e-07
1.87613e-06
1.07005e-06
2.88722e-06
1.33166e-06
3.45742e-06
1.54659e-06
3.74467e-06
1.73097e-06
3.84227e-06
1.88714e-06
3.81081e-06
2.01064e-06
3.66771e-06
2.10451e-06
3.44158e-06
2.17544e-06
3.16544e-06
2.22988e-06
2.86641e-06
2.27264e-06
2.56318e-06
2.30698e-06
2.26711e-06
2.33486e-06
1.98426e-06
2.35727e-06
1.71711e-06
2.37447e-06
1.46587e-06
2.38626e-06
1.22935e-06
2.39208e-06
1.00564e-06
2.39122e-06
7.9236e-07
2.38283e-06
5.8711e-07
2.36605e-06
3.87444e-07
2.34008e-06
1.90721e-07
2.30379e-06
-4.99245e-09
2.25654e-06
-2.02506e-07
2.19721e-06
-4.03636e-07
2.12475e-06
-6.10778e-07
2.03791e-06
-8.25891e-07
1.93535e-06
-1.05091e-06
1.81564e-06
-1.28742e-06
1.67753e-06
-1.53706e-06
1.5202e-06
-1.80107e-06
1.34393e-06