/*--------------------------------*- C++ -*----------------------------------*\
  =========                 |
  \\      /  F ield         | OpenFOAM: The Open Source CFD Toolbox
   \\    /   O peration     | Website:  https://openfoam.org
    \\  /    A nd           | Version:  13
     \\/     M anipulation  |
\*---------------------------------------------------------------------------*/
FoamFile
{
    format      ascii;
    class       surfaceScalarField;
    location    "7";
    object      phi;
}
// * * * * * * * * * * * * * * * * * * * * * * * * * * * * * * * * * * * * * //

dimensions      [0 3 -1 0 0 0 0];

internalField   nonuniform List<scalar> 
760
(
1.42694e-07
-1.427e-07
-6.60056e-08
2.08699e-07
-7.87945e-07
7.21939e-07
-2.00044e-06
1.2125e-06
-3.35282e-06
1.35237e-06
-4.57057e-06
1.21776e-06
-5.60863e-06
1.03806e-06
-6.43608e-06
8.27448e-07
-7.04869e-06
6.1261e-07
-7.46271e-06
4.14018e-07
-7.68957e-06
2.2686e-07
-7.72521e-06
3.5643e-08
-7.55631e-06
-1.68898e-07
-7.1837e-06
-3.72614e-07
-6.54387e-06
-6.39834e-07
-5.6069e-06
-9.3697e-07
-4.32034e-06
-1.28655e-06
-2.72449e-06
-1.59585e-06
-1.04213e-06
-1.68237e-06
-1.04213e-06
-3.1115e-07
1.68449e-07
-1.21119e-06
1.10874e-06
-2.51318e-06
2.02393e-06
-3.75461e-06
2.45392e-06
-4.78712e-06
2.38489e-06
-5.70161e-06
2.13224e-06
-6.44909e-06
1.78555e-06
-7.03883e-06
1.41718e-06
-7.48433e-06
1.05811e-06
-7.78146e-06
7.11141e-07
-7.91718e-06
3.62583e-07
-7.8746e-06
-6.93372e-09
-7.69325e-06
-3.50255e-07
-7.32342e-06
-7.42441e-07
-6.75649e-06
-1.20677e-06
-5.9463e-06
-1.74715e-06
-4.85283e-06
-2.38003e-06
-3.41578e-06
-3.0329e-06
-1.67288e-06
-3.42526e-06
-2.71501e-06
-9.15827e-07
1.08428e-06
-2.16805e-06
2.36096e-06
-3.30099e-06
3.15687e-06
-4.23264e-06
3.38558e-06
-5.01817e-06
3.17041e-06
-5.66701e-06
2.78108e-06
-6.17804e-06
2.29658e-06
-6.54365e-06
1.78279e-06
-6.78091e-06
1.29537e-06
-6.89084e-06
8.21077e-07
-6.89662e-06
3.6836e-07
-6.81689e-06
-8.66663e-08
-6.62353e-06
-5.43614e-07
-6.3078e-06
-1.05817e-06
-5.85488e-06
-1.65969e-06
-5.2277e-06
-2.37433e-06
-4.3909e-06
-3.21682e-06
-3.27733e-06
-4.14647e-06
-1.80937e-06
-4.89322e-06
-4.52438e-06
-1.15849e-06
2.24277e-06
-2.32164e-06
3.52411e-06
-3.26842e-06
4.10364e-06
-3.99227e-06
4.10943e-06
-4.56172e-06
3.73986e-06
-4.99018e-06
3.20955e-06
-5.29272e-06
2.59912e-06
-5.49571e-06
1.98578e-06
-5.60935e-06
1.40901e-06
-5.6501e-06
8.61821e-07
-5.6205e-06
3.3876e-07
-5.52508e-06
-1.82085e-07
-5.34895e-06
-7.19741e-07
-5.09048e-06
-1.31664e-06
-4.73932e-06
-2.01085e-06
-4.26958e-06
-2.84407e-06
-3.64346e-06
-3.84294e-06
-2.79844e-06
-4.9915e-06
-1.60521e-06
-6.08645e-06
-6.1296e-06
-1.10736e-06
3.35013e-06
-2.09537e-06
4.51213e-06
-2.85664e-06
4.8649e-06
-3.41888e-06
4.67167e-06
-3.82936e-06
4.15034e-06
-4.11238e-06
3.49256e-06
-4.29893e-06
2.78567e-06
-4.41449e-06
2.10134e-06
-4.46712e-06
1.46164e-06
-4.46586e-06
8.60566e-07
-4.41267e-06
2.8557e-07
-4.30968e-06
-2.85075e-07
-4.15271e-06
-8.76711e-07
-3.94323e-06
-1.52612e-06
-3.67668e-06
-2.2774e-06
-3.33692e-06
-3.18383e-06
-2.88604e-06
-4.29382e-06
-2.2559e-06
-5.62165e-06
-1.34055e-06
-7.00179e-06
-7.47015e-06
-9.17719e-07
4.26785e-06
-1.70581e-06
5.30022e-06
-2.30266e-06
5.46175e-06
-2.73199e-06
5.10101e-06
-3.02995e-06
4.4483e-06
-3.2252e-06
3.68782e-06
-3.34827e-06
2.90874e-06
-3.41763e-06
2.17071e-06
-3.44129e-06
1.4853e-06
-3.42434e-06
8.43616e-07
-3.36807e-06
2.29296e-07
-3.27277e-06
-3.80374e-07
-3.13818e-06
-1.0113e-06
-2.96714e-06
-1.69716e-06
-2.76193e-06
-2.48261e-06
-2.51827e-06
-3.42748e-06
-2.21583e-06
-4.59626e-06
-1.78637e-06
-6.05111e-06
-1.08066e-06
-7.70749e-06
-8.55081e-06
-6.9689e-07
4.96474e-06
-1.27963e-06
5.88296e-06
-1.72338e-06
5.9055e-06
-2.038e-06
5.41563e-06
-2.25357e-06
4.66387e-06
-2.39392e-06
3.82816e-06
-2.48218e-06
2.997e-06
-2.53123e-06
2.21976e-06
-2.54766e-06
1.50174e-06
-2.5344e-06
8.30355e-07
-2.49077e-06
1.85667e-07
-2.41509e-06
-4.56061e-07
-2.30676e-06
-1.11963e-06
-2.16968e-06
-1.83424e-06
-2.01177e-06
-2.64053e-06
-1.83741e-06
-3.60185e-06
-1.6356e-06
-4.79806e-06
-1.35006e-06
-6.33666e-06
-8.85144e-07
-8.17241e-06
-9.43596e-06
-4.54383e-07
5.41912e-06
-8.59062e-07
6.28764e-06
-1.16308e-06
6.20951e-06
-1.38026e-06
5.63281e-06
-1.53172e-06
4.81532e-06
-1.63403e-06
3.93048e-06
-1.70232e-06
3.06529e-06
-1.74432e-06
2.26176e-06
-1.76413e-06
1.52154e-06
-1.76261e-06
8.28832e-07
-1.7377e-06
1.60766e-07
-1.68684e-06
-5.06925e-07
-1.60885e-06
-1.19762e-06
-1.50746e-06
-1.93563e-06
-1.39367e-06
-2.75432e-06
-1.2799e-06
-3.71561e-06
-1.16217e-06
-4.91579e-06
-9.92667e-07
-6.50616e-06
-6.85097e-07
-8.47998e-06
-1.01211e-05
-2.42903e-07
5.66202e-06
-4.67178e-07
6.51192e-06
-6.38193e-07
6.38052e-06
-7.68665e-07
5.76329e-06
-8.64685e-07
4.91134e-06
-9.35683e-07
4.00147e-06
-9.88902e-07
3.11851e-06
-1.0272e-06
2.30006e-06
-1.05189e-06
1.54623e-06
-1.06237e-06
8.39321e-07
-1.05644e-06
1.5483e-07
-1.03181e-06
-5.31554e-07
-9.8762e-07
-1.24181e-06
-9.27271e-07
-1.99598e-06
-8.61908e-07
-2.81968e-06
-8.07487e-07
-3.77003e-06
-7.66983e-07
-4.95629e-06
-7.00076e-07
-6.57307e-06
-5.46712e-07
-8.63334e-06
-1.06678e-05
-2.52472e-08
5.68727e-06
-9.93272e-08
6.586e-06
-1.54442e-07
6.43564e-06
-1.99507e-07
5.80835e-06
-2.39827e-07
4.95166e-06
-2.78239e-07
4.03989e-06
-3.14713e-07
3.15498e-06
-3.4714e-07
2.33248e-06
-3.74108e-07
1.5732e-06
-3.9429e-07
8.59503e-07
-4.06218e-07
1.66759e-07
-4.08623e-07
-5.29149e-07
-4.01431e-07
-1.249e-06
-3.87706e-07
-2.00971e-06
-3.78022e-07
-2.82937e-06
-3.84546e-07
-3.76351e-06
-4.30132e-07
-4.9107e-06
-4.57915e-07
-6.54528e-06
-4.1412e-07
-8.67714e-06
-1.10819e-05
1.74986e-07
5.51228e-06
2.62726e-07
6.49825e-06
3.29169e-07
6.3692e-06
3.55815e-07
5.78171e-06
3.66516e-07
4.94096e-06
3.61796e-07
4.04461e-06
3.45897e-07
3.17088e-06
3.23607e-07
2.35477e-06
2.98038e-07
1.59877e-06
2.70686e-07
8.86856e-07
2.41927e-07
1.95518e-07
2.11672e-07
-4.98894e-07
1.7894e-07
-1.21626e-06
1.40978e-07
-1.97175e-06
8.95699e-08
-2.77796e-06
-4.57895e-09
-3.66936e-06
-1.13648e-07
-4.80164e-06
-2.50973e-07
-6.40796e-06
-3.23997e-07
-8.60411e-06
-1.14059e-05
3.63912e-07
5.14837e-06
6.022e-07
6.25997e-06
7.82102e-07
6.18929e-06
8.93532e-07
5.67028e-06
9.63852e-07
4.87064e-06
1.00102e-06
4.00744e-06
1.01314e-06
3.15876e-06
1.00716e-06
2.36075e-06
9.87394e-07
1.61854e-06
9.55428e-07
9.18822e-07
9.10515e-07
2.40431e-07
8.50982e-07
-4.39362e-07
7.74344e-07
-1.13963e-06
6.77643e-07
-1.87504e-06
5.53246e-07
-2.65356e-06
3.94792e-07
-3.5109e-06
1.80099e-07
-4.58694e-06
-7.47411e-08
-6.15312e-06
-2.24084e-07
-8.45477e-06
-1.163e-05
5.47287e-07
4.60109e-06
9.31789e-07
5.87546e-06
1.22107e-06
5.90002e-06
1.42313e-06
5.46822e-06
1.56148e-06
4.73229e-06
1.6509e-06
3.91801e-06
1.70084e-06
3.10882e-06
1.71925e-06
2.34235e-06
1.71117e-06
1.62662e-06
1.6782e-06
9.51794e-07
1.61845e-06
3.00183e-07
1.52905e-06
-3.49964e-07
1.40597e-06
-1.01654e-06
1.24535e-06
-1.71442e-06
1.04302e-06
-2.45124e-06
7.92952e-07
-3.26083e-06
4.69952e-07
-4.26394e-06
1.18687e-07
-5.80185e-06
-1.0921e-07
-8.22687e-06
-1.17392e-05
7.02134e-07
3.89895e-06
1.22119e-06
5.35641e-06
1.61761e-06
5.5036e-06
1.92757e-06
5.15825e-06
2.15284e-06
4.50703e-06
2.31112e-06
3.75973e-06
2.41328e-06
3.00666e-06
2.46781e-06
2.28782e-06
2.48e-06
1.61443e-06
2.45151e-06
9.8029e-07
2.37956e-06
3.7213e-07
2.25984e-06
-2.30249e-07
2.08816e-06
-8.44856e-07
1.85918e-06
-1.48545e-06
1.56995e-06
-2.16201e-06
1.21878e-06
-2.90966e-06
7.89978e-07
-3.83514e-06
3.54103e-07
-5.36598e-06
5.14097e-08
-7.92418e-06
-1.16878e-05
8.29968e-07
3.06898e-06
1.46545e-06
4.72092e-06
1.97555e-06
4.99351e-06
2.40321e-06
4.73059e-06
2.73347e-06
4.17676e-06
2.97779e-06
3.51542e-06
3.14741e-06
2.83703e-06
3.25105e-06
2.18417e-06
3.29373e-06
1.57174e-06
3.27719e-06
9.96837e-07
3.19826e-06
4.51061e-07
3.04913e-06
-8.11198e-08
2.82854e-06
-6.24266e-07
2.52888e-06
-1.18579e-06
2.14694e-06
-1.78006e-06
1.68921e-06
-2.45193e-06
1.14737e-06
-3.29331e-06
6.08247e-07
-4.82685e-06
1.85921e-07
-7.50185e-06
-1.15018e-05
8.32624e-07
2.23636e-06
1.56632e-06
3.98722e-06
2.21572e-06
4.34411e-06
2.78437e-06
4.16194e-06
3.24967e-06
3.71146e-06
3.60924e-06
3.15585e-06
3.87097e-06
2.57531e-06
4.04359e-06
2.01155e-06
4.132e-06
1.48333e-06
4.13825e-06
9.90588e-07
4.05995e-06
5.29358e-07
3.89273e-06
8.60972e-08
3.62652e-06
-3.58056e-07
3.26099e-06
-8.20262e-07
2.78925e-06
-1.30832e-06
2.22737e-06
-1.89006e-06
1.57048e-06
-2.63641e-06
9.18504e-07
-4.17488e-06
3.7782e-07
-6.96117e-06
-1.1124e-05
7.3788e-07
1.49848e-06
1.54465e-06
3.18046e-06
2.34785e-06
3.54091e-06
3.07219e-06
3.43761e-06
3.68649e-06
3.09716e-06
4.18113e-06
2.66121e-06
4.55376e-06
2.20268e-06
4.81081e-06
1.7545e-06
4.95787e-06
1.33628e-06
4.99862e-06
9.49832e-07
4.93434e-06
5.93645e-07
4.76479e-06
2.55649e-07
4.47218e-06
-6.54517e-08
4.06957e-06
-4.17654e-07
3.5368e-06
-7.75542e-07
2.89472e-06
-1.24798e-06
2.14781e-06
-1.8895e-06
1.38082e-06
-3.40789e-06
6.54065e-07
-6.23441e-06
-1.047e-05
2.3212e-07
1.26636e-06
1.16103e-06
2.25154e-06
2.15029e-06
2.55165e-06
3.07683e-06
2.51107e-06
3.87838e-06
2.29561e-06
4.53804e-06
2.00155e-06
5.05398e-06
1.68674e-06
5.42802e-06
1.38045e-06
5.66832e-06
1.09598e-06
5.78153e-06
8.36614e-07
5.77303e-06
6.02145e-07
5.64951e-06
3.79171e-07
5.41249e-06
1.71574e-07
5.05839e-06
-6.35597e-08
4.55272e-06
-2.69872e-07
3.92362e-06
-6.18879e-07
3.14887e-06
-1.11475e-06
2.29386e-06
-2.55288e-06
1.1891e-06
-5.12965e-06
-9.28086e-06
-5.65218e-07
1.83158e-06
4.64693e-07
1.22163e-06
1.75723e-06
1.25911e-06
2.95695e-06
1.31136e-06
3.99636e-06
1.25619e-06
4.86935e-06
1.12855e-06
5.58183e-06
9.74259e-07
6.12978e-06
8.32502e-07
6.53279e-06
6.92975e-07
6.79473e-06
5.74673e-07
6.94044e-06
4.56439e-07
6.96286e-06
3.5675e-07
6.88179e-06
2.52639e-07
6.66653e-06
1.51707e-07
6.35565e-06
4.10041e-08
5.92458e-06
-1.87805e-07
5.31029e-06
-5.00465e-07
4.42559e-06
-1.66818e-06
2.61697e-06
-3.32103e-06
-6.66389e-06
1.83158e-06
3.05321e-06
4.31232e-06
5.62367e-06
6.87987e-06
8.00842e-06
8.98268e-06
9.81518e-06
1.05082e-05
1.10828e-05
1.15393e-05
1.1896e-05
1.21487e-05
1.23004e-05
1.23414e-05
1.21536e-05
1.16531e-05
9.98492e-06
6.66389e-06
)
;

boundaryField
{
    movingWall
    {
        type            calculated;
        value           uniform 0;
    }
    fixedWalls
    {
        type            calculated;
        value           uniform 0;
    }
    frontAndBack
    {
        type            empty;
    }
}


// ************************************************************************* //
