/*--------------------------------*- C++ -*----------------------------------*\
  =========                 |
  \\      /  F ield         | OpenFOAM: The Open Source CFD Toolbox
   \\    /   O peration     | Website:  https://openfoam.org
    \\  /    A nd           | Version:  13
     \\/     M anipulation  |
\*---------------------------------------------------------------------------*/
FoamFile
{
    format      ascii;
    class       volVectorField;
    location    "7";
    object      U;
}
// * * * * * * * * * * * * * * * * * * * * * * * * * * * * * * * * * * * * * //

dimensions      [0 1 -1 0 0 0 0];

internalField   nonuniform List<vector> 
400
(
(0.00224602 -0.00270185 0)
(0.00309535 -0.000708536 0)
(-0.00550571 0.00300609 0)
(-0.0234468 0.00973468 0)
(-0.0559483 0.0140215 0)
(-0.0817746 0.0120814 0)
(-0.105021 0.0105222 0)
(-0.122785 0.0081522 0)
(-0.13691 0.00629858 0)
(-0.146702 0.00407576 0)
(-0.152724 0.00230962 0)
(-0.155175 0.000427779 0)
(-0.154322 -0.00249842 0)
(-0.148023 -0.00469322 0)
(-0.137541 -0.00793379 0)
(-0.120589 -0.0108439 0)
(-0.09794 -0.0141705 0)
(-0.0689594 -0.0161359 0)
(-0.0368771 -0.0146796 0)
(-0.00890409 -0.00409544 0)
(-0.00151047 -0.00337369 0)
(-0.0108541 0.00974547 0)
(-0.0354492 0.0278408 0)
(-0.0634451 0.0388645 0)
(-0.0875852 0.0381585 0)
(-0.107109 0.0344804 0)
(-0.123781 0.0291852 0)
(-0.136066 0.0236716 0)
(-0.146657 0.017243 0)
(-0.153703 0.011604 0)
(-0.158072 0.00601199 0)
(-0.158989 0.000539399 0)
(-0.156707 -0.00550963 0)
(-0.150991 -0.0122126 0)
(-0.141318 -0.0204006 0)
(-0.126802 -0.0298544 0)
(-0.107131 -0.0406473 0)
(-0.0819522 -0.0503766 0)
(-0.0511154 -0.0530635 0)
(-0.0187648 -0.0347117 0)
(-0.00752382 0.0113147 0)
(-0.0298843 0.0366901 0)
(-0.0551307 0.0533207 0)
(-0.0769294 0.0587776 0)
(-0.0943638 0.0555124 0)
(-0.108438 0.0488495 0)
(-0.119741 0.0403156 0)
(-0.128351 0.0312616 0)
(-0.13438 0.0231681 0)
(-0.137353 0.0150701 0)
(-0.138536 0.00710625 0)
(-0.137594 -0.001032 0)
(-0.135189 -0.00959455 0)
(-0.129914 -0.0190272 0)
(-0.122171 -0.0300632 0)
(-0.110963 -0.0431559 0)
(-0.0958262 -0.0586196 0)
(-0.0760781 -0.0755029 0)
(-0.0502357 -0.0877757 0)
(-0.0217751 -0.0764598 0)
(-0.0116101 0.0338158 0)
(-0.0357463 0.0596579 0)
(-0.0578165 0.0730201 0)
(-0.0744862 0.0748783 0)
(-0.0870732 0.0690764 0)
(-0.0967746 0.0599241 0)
(-0.103815 0.0489932 0)
(-0.108673 0.0378221 0)
(-0.111525 0.0270751 0)
(-0.113015 0.0167374 0)
(-0.11313 0.00693334 0)
(-0.11188 -0.00285537 0)
(-0.109219 -0.0130944 0)
(-0.104831 -0.0245033 0)
(-0.0987062 -0.0377748 0)
(-0.0903915 -0.0536311 0)
(-0.0791554 -0.0724551 0)
(-0.0639762 -0.0936321 0)
(-0.0429113 -0.112582 0)
(-0.0197405 -0.110617 0)
(-0.011833 0.0553528 0)
(-0.0339166 0.0800482 0)
(-0.0517062 0.0894057 0)
(-0.0645354 0.0877172 0)
(-0.073796 0.0790325 0)
(-0.0803791 0.067253 0)
(-0.0847313 0.0541039 0)
(-0.0875646 0.0410941 0)
(-0.0891127 0.0288008 0)
(-0.0896108 0.0172348 0)
(-0.08906 0.00620956 0)
(-0.0875057 -0.00474575 0)
(-0.0849213 -0.016138 0)
(-0.081246 -0.0287313 0)
(-0.0764606 -0.0433925 0)
(-0.0704013 -0.0611064 0)
(-0.0624904 -0.0826944 0)
(-0.051245 -0.108172 0)
(-0.0346554 -0.133462 0)
(-0.0174067 -0.13911 0)
(-0.0100689 0.0752636 0)
(-0.0282423 0.0976384 0)
(-0.0420316 0.102974 0)
(-0.0519455 0.0977264 0)
(-0.0587053 0.086145 0)
(-0.0632526 0.0720084 0)
(-0.0661195 0.0571336 0)
(-0.0679222 0.0428601 0)
(-0.0687867 0.029553 0)
(-0.0688343 0.0170759 0)
(-0.068097 0.00513315 0)
(-0.0665885 -0.00670419 0)
(-0.0642981 -0.0189515 0)
(-0.061234 -0.0323349 0)
(-0.0574452 -0.0477685 0)
(-0.0529347 -0.0663984 0)
(-0.0474836 -0.0894013 0)
(-0.0396469 -0.117579 0)
(-0.0288979 -0.148937 0)
(-0.0119147 -0.162325 0)
(-0.00822354 0.0918053 0)
(-0.0212627 0.11155 0)
(-0.031662 0.113611 0)
(-0.0389529 0.105252 0)
(-0.0437725 0.0912629 0)
(-0.0469835 0.0753021 0)
(-0.049012 0.0591774 0)
(-0.0502943 0.043989 0)
(-0.0509054 0.0299104 0)
(-0.0509311 0.0167308 0)
(-0.0503693 0.00409175 0)
(-0.0491836 -0.00846116 0)
(-0.0473421 -0.0214323 0)
(-0.0448719 -0.0354547 0)
(-0.0418857 -0.0514092 0)
(-0.0385021 -0.0705525 0)
(-0.0347904 -0.0943224 0)
(-0.0292687 -0.124518 0)
(-0.0231929 -0.159873 0)
(-0.00961194 -0.181281 0)
(-0.00542362 0.103898 0)
(-0.0141379 0.121955 0)
(-0.0215377 0.121434 0)
(-0.0264788 0.110706 0)
(-0.0297645 0.094971 0)
(-0.032019 0.0777176 0)
(-0.0335228 0.0607107 0)
(-0.0345555 0.0448592 0)
(-0.035148 0.0302303 0)
(-0.0353373 0.0165428 0)
(-0.0350869 0.00336933 0)
(-0.0343345 -0.00976598 0)
(-0.0330328 -0.0233409 0)
(-0.0312094 -0.0378842 0)
(-0.0290102 -0.0541469 0)
(-0.026621 -0.0734162 0)
(-0.024411 -0.0974262 0)
(-0.0208345 -0.128861 0)
(-0.0186705 -0.167133 0)
(-0.00619475 -0.196389 0)
(-0.00329234 0.111447 0)
(-0.00751549 0.128363 0)
(-0.0119974 0.126281 0)
(-0.0147993 0.11426 0)
(-0.0167793 0.0974735 0)
(-0.0182489 0.0794498 0)
(-0.0193395 0.0619084 0)
(-0.0202022 0.0456384 0)
(-0.0208194 0.0306536 0)
(-0.0211828 0.0166152 0)
(-0.021241 0.00304644 0)
(-0.0209342 -0.01054 0)
(-0.0202212 -0.0245923 0)
(-0.0191292 -0.0395474 0)
(-0.0178206 -0.0559912 0)
(-0.0164507 -0.0751531 0)
(-0.0158497 -0.0990615 0)
(-0.0136691 -0.131297 0)
(-0.0150807 -0.171593 0)
(-0.00443986 -0.208544 0)
(-3.72464e-05 0.114445 0)
(-0.0012983 0.131986 0)
(-0.0030943 0.128893 0)
(-0.00385485 0.116158 0)
(-0.00461812 0.098935 0)
(-0.00531191 0.0805895 0)
(-0.00597019 0.0628199 0)
(-0.00662298 0.0463475 0)
(-0.00721113 0.0311705 0)
(-0.00769272 0.0169231 0)
(-0.00802 0.00310709 0)
(-0.00815396 -0.010768 0)
(-0.00807565 -0.0251228 0)
(-0.00780844 -0.0403183 0)
(-0.00752865 -0.0567864 0)
(-0.00723666 -0.0756278 0)
(-0.00853447 -0.0990685 0)
(-0.00742997 -0.131628 0)
(-0.012241 -0.173404 0)
(-0.00203574 -0.218064 0)
(0.00208546 0.112959 0)
(0.00433785 0.131739 0)
(0.00552141 0.128633 0)
(0.00661677 0.11624 0)
(0.00705876 0.0991747 0)
(0.0072068 0.0810044 0)
(0.00707615 0.0633472 0)
(0.00672504 0.0469075 0)
(0.00625217 0.0317096 0)
(0.0057179 0.0174105 0)
(0.00515922 0.00352224 0)
(0.00458767 -0.0104384 0)
(0.00398892 -0.0248726 0)
(0.00334099 -0.0400928 0)
(0.002438 -0.0563916 0)
(0.00152687 -0.0746807 0)
(-0.00184972 -0.0975942 0)
(-0.00164606 -0.129892 0)
(-0.0101308 -0.173278 0)
(-0.00034766 -0.225393 0)
(0.00403772 0.108499 0)
(0.00986955 0.128992 0)
(0.0133973 0.126661 0)
(0.016558 0.115282 0)
(0.0184507 0.098577 0)
(0.0196033 0.0808197 0)
(0.0201711 0.0634829 0)
(0.0202682 0.047257 0)
(0.0200217 0.0322106 0)
(0.0195078 0.0180384 0)
(0.0187527 0.00428373 0)
(0.017744 -0.00952182 0)
(0.0164265 -0.0237702 0)
(0.0147861 -0.0387506 0)
(0.012611 -0.0546532 0)
(0.0101405 -0.0721901 0)
(0.00465205 -0.0942626 0)
(0.00411865 -0.125957 0)
(-0.00851292 -0.171096 0)
(0.00223783 -0.230524 0)
(0.0061617 0.0994217 0)
(0.0149861 0.122413 0)
(0.0213082 0.121404 0)
(0.0261759 0.111897 0)
(0.0297682 0.096376 0)
(0.0321099 0.0795162 0)
(0.0335701 0.0628761 0)
(0.0342991 0.0471739 0)
(0.0344245 0.0325382 0)
(0.0340297 0.0187364 0)
(0.033127 0.00537277 0)
(0.0316917 -0.0079897 0)
(0.0296172 -0.021728 0)
(0.026914 -0.036142 0)
(0.0232576 -0.051367 0)
(0.0191228 -0.0680817 0)
(0.0115007 -0.0888831 0)
(0.00983477 -0.119983 0)
(-0.00718665 -0.167267 0)
(0.00514804 -0.233722 0)
(0.00792505 0.0872405 0)
(0.0194811 0.114385 0)
(0.0283358 0.115483 0)
(0.0351804 0.107394 0)
(0.0407297 0.0932782 0)
(0.0446365 0.0774375 0)
(0.047312 0.0616483 0)
(0.0489422 0.0466625 0)
(0.0496485 0.0326603 0)
(0.0495183 0.0194745 0)
(0.0485486 0.00677956 0)
(0.0467148 -0.00582965 0)
(0.043846 -0.0186972 0)
(0.0400297 -0.0321583 0)
(0.0347135 -0.0463754 0)
(0.0288474 -0.0620009 0)
(0.0188933 -0.0813478 0)
(0.0158425 -0.112114 0)
(-0.00551711 -0.161792 0)
(0.00941751 -0.235165 0)
(0.00951475 0.0713045 0)
(0.0234143 0.10146 0)
(0.0344925 0.105409 0)
(0.043574 0.0993573 0)
(0.0512331 0.0873859 0)
(0.05708 0.0732702 0)
(0.0613184 0.0588926 0)
(0.0641442 0.0451036 0)
(0.0656714 0.0321693 0)
(0.0659894 0.0199994 0)
(0.0650754 0.00836177 0)
(0.0629146 -0.00312201 0)
(0.0592368 -0.0146801 0)
(0.0543145 -0.0267443 0)
(0.0472055 -0.0395316 0)
(0.0395957 -0.0538106 0)
(0.0269821 -0.0716559 0)
(0.0225085 -0.102441 0)
(-0.00334821 -0.155328 0)
(0.0145533 -0.235404 0)
(0.00940979 0.0537347 0)
(0.0250731 0.0891235 0)
(0.0381712 0.0955898 0)
(0.0497672 0.0909223 0)
(0.060099 0.0806386 0)
(0.0685013 0.0681805 0)
(0.0748649 0.0553193 0)
(0.0793401 0.0429212 0)
(0.0820365 0.0313086 0)
(0.0830811 0.020446 0)
(0.0823845 0.0101915 0)
(0.0800987 0.000195219 0)
(0.0757047 -0.00966289 0)
(0.0698291 -0.0199324 0)
(0.0609081 -0.0308477 0)
(0.0517316 -0.0434945 0)
(0.0362884 -0.0596321 0)
(0.0305747 -0.0908124 0)
(-0.000371819 -0.146686 0)
(0.0213561 -0.233642 0)
(0.00769608 0.0354702 0)
(0.024094 0.069895 0)
(0.0394387 0.0787482 0)
(0.0538831 0.0764881 0)
(0.0671628 0.0687884 0)
(0.0784987 0.0589276 0)
(0.087395 0.0484359 0)
(0.0938762 0.0382049 0)
(0.09801 0.0286458 0)
(0.100052 0.0197654 0)
(0.0997705 0.0114995 0)
(0.0976905 0.00353426 0)
(0.092825 -0.00423412 0)
(0.0865586 -0.0122638 0)
(0.0762797 -0.0207135 0)
(0.0662647 -0.0313203 0)
(0.0482625 -0.0452435 0)
(0.0418806 -0.0770263 0)
(0.00481764 -0.136172 0)
(0.0305147 -0.226481 0)
(-0.00373774 0.0234341 0)
(0.0150551 0.0575447 0)
(0.0333641 0.0649685 0)
(0.0518656 0.063352 0)
(0.0690762 0.0573023 0)
(0.0839478 0.0495922 0)
(0.0959224 0.0415824 0)
(0.105056 0.0336667 0)
(0.111271 0.0262451 0)
(0.115058 0.0194492 0)
(0.115969 0.0132699 0)
(0.115043 0.00750063 0)
(0.110858 0.00209871 0)
(0.105865 -0.00348658 0)
(0.0958944 -0.00932308 0)
(0.0869803 -0.017432 0)
(0.0677043 -0.0292222 0)
(0.0615168 -0.0607797 0)
(0.0178488 -0.120397 0)
(0.0459847 -0.204258 0)
(-0.0153146 0.0299349 0)
(-0.00317184 0.0275303 0)
(0.0224723 0.0323577 0)
(0.0470861 0.0337782 0)
(0.0691954 0.0319443 0)
(0.0884256 0.0281975 0)
(0.104483 0.0238831 0)
(0.117322 0.0197469 0)
(0.126917 0.0159427 0)
(0.133814 0.0124257 0)
(0.13774 0.00929802 0)
(0.139687 0.00622485 0)
(0.138614 0.00363961 0)
(0.136316 0.000200691 0)
(0.129582 -0.00273761 0)
(0.123878 -0.00879199 0)
(0.107903 -0.0179976 0)
(0.102921 -0.0454197 0)
(0.0575625 -0.0928124 0)
(0.0774965 -0.155695 0)
(0.0397751 0.038087 0)
(0.0458248 0.02738 0)
(0.069688 0.0241423 0)
(0.0986678 0.0239832 0)
(0.124434 0.0231206 0)
(0.1479 0.0213806 0)
(0.169108 0.0190068 0)
(0.187547 0.0169665 0)
(0.20315 0.0147093 0)
(0.216106 0.0131175 0)
(0.226449 0.0111696 0)
(0.234686 0.0100205 0)
(0.240546 0.00819259 0)
(0.244583 0.00729078 0)
(0.24625 0.00513095 0)
(0.244405 0.0028037 0)
(0.236274 0.00214734 0)
(0.221485 -0.00956076 0)
(0.171999 -0.0130181 0)
(0.145443 -0.0643928 0)
)
;

boundaryField
{
    movingWall
    {
        type            fixedValue;
        value           uniform (1 0 0);
    }
    fixedWalls
    {
        type            noSlip;
    }
    frontAndBack
    {
        type            empty;
    }
}


// ************************************************************************* //
