/*--------------------------------*- C++ -*----------------------------------*\
  =========                 |
  \\      /  F ield         | OpenFOAM: The Open Source CFD Toolbox
   \\    /   O peration     | Website:  https://openfoam.org
    \\  /    A nd           | Version:  13
     \\/     M anipulation  |
\*---------------------------------------------------------------------------*/
FoamFile
{
    format      ascii;
    class       volScalarField;
    location    "7.5";
    object      k;
}
// * * * * * * * * * * * * * * * * * * * * * * * * * * * * * * * * * * * * * //

dimensions      [0 2 -2 0 0 0 0];

internalField   nonuniform List<scalar> 
400
(
5.67572e-06
1.8029e-05
7.86584e-05
0.000172016
0.000238065
0.000287853
0.000328157
0.000366711
0.000400502
0.0004351
0.000467547
0.000501831
0.000536386
0.000560046
0.000570957
0.000572156
0.000531117
0.000419876
0.000257472
0.000185497
2.5868e-05
9.20568e-05
0.000206522
0.000362228
0.000430829
0.000508811
0.000553998
0.000619394
0.000671991
0.000734121
0.000792845
0.000854277
0.00090978
0.000968991
0.0010223
0.00104929
0.0010558
0.00095136
0.000629615
0.000382209
8.75524e-05
0.000299822
0.000468786
0.000551622
0.000610553
0.000662318
0.000703308
0.000754646
0.000800098
0.000848225
0.000892417
0.000934881
0.000975995
0.00102281
0.00106978
0.00110523
0.00111815
0.00107218
0.000779763
0.00049532
0.000200547
0.000509716
0.000600149
0.000639379
0.000672979
0.000700146
0.00073075
0.000765154
0.000797118
0.000828088
0.000852875
0.000881524
0.000920979
0.000973691
0.0010424
0.00111388
0.00114739
0.00115016
0.000922875
0.000569119
0.000291318
0.000623658
0.000654383
0.000658203
0.000673453
0.000693821
0.00071463
0.000726144
0.00072863
0.000725274
0.000725278
0.000745036
0.00078666
0.000856136
0.000961059
0.00109678
0.0011944
0.00121901
0.00104854
0.000624701
0.000342183
0.000659295
0.000660589
0.000654707
0.000663199
0.000667565
0.000660342
0.000633601
0.000604488
0.000585415
0.000578234
0.000586255
0.000627695
0.000705878
0.000835093
0.00102143
0.00121881
0.00130004
0.00118663
0.000669727
0.000351638
0.000653156
0.000654166
0.000641985
0.000636068
0.000616489
0.000584017
0.000537896
0.000495544
0.000467651
0.000456365
0.000456905
0.000493163
0.000569286
0.000705602
0.000924059
0.00122074
0.00137752
0.00131657
0.000704866
0.000346348
0.000635992
0.000637708
0.000617425
0.000601261
0.000568048
0.000520334
0.000465055
0.000417916
0.000387111
0.000373942
0.000372686
0.000400685
0.000466367
0.00059239
0.000816323
0.00116447
0.00144467
0.00145618
0.000733681
0.000332932
0.000601193
0.000609809
0.0005916
0.000570522
0.000530153
0.000475628
0.000418045
0.000371135
0.000340816
0.000327612
0.000326195
0.000347284
0.000400381
0.000510338
0.000722049
0.00108974
0.0014929
0.00157761
0.000754007
0.000306097
0.000571591
0.000583647
0.000569037
0.000546812
0.000504505
0.000448876
0.000392763
0.000348321
0.000319379
0.000306134
0.000305405
0.000322176
0.000365385
0.000457678
0.000653168
0.00102143
0.00151566
0.00170143
0.000769683
0.000278476
0.000531844
0.000554601
0.000547441
0.00052768
0.000487936
0.000435585
0.000384066
0.000343024
0.000315203
0.0003006
0.000299873
0.0003137
0.000350543
0.000431497
0.000607204
0.000967032
0.00152458
0.00180428
0.000777382
0.000254504
0.000498546
0.000533086
0.000530772
0.000515385
0.000479773
0.000433218
0.000386041
0.000347055
0.000320218
0.000305653
0.000304787
0.000314998
0.000347221
0.000422233
0.000584789
0.000924222
0.00152746
0.0018895
0.000780867
0.000228604
0.000454624
0.000506867
0.000512176
0.000503235
0.000476394
0.000435583
0.000393142
0.00035803
0.000333244
0.000319117
0.000319191
0.000328403
0.000357399
0.000425009
0.000577874
0.000901241
0.00152832
0.00193041
0.000781611
0.000204733
0.000426504
0.000492584
0.000501971
0.000496179
0.000477452
0.000442147
0.00040647
0.000375822
0.000353594
0.000340433
0.000341259
0.000350925
0.000379767
0.00044548
0.000589972
0.000893451
0.00152612
0.00194289
0.000780067
0.000177456
0.000380633
0.000467967
0.000493205
0.000493073
0.000481842
0.000455264
0.000424694
0.00039834
0.000379072
0.000368025
0.000369811
0.000380691
0.000410871
0.000477289
0.00062186
0.000902477
0.0015228
0.00190254
0.000767088
0.000149855
0.000352987
0.000455451
0.000495308
0.000500588
0.000494123
0.000476642
0.000451209
0.000428076
0.000410396
0.000400929
0.000403669
0.000416285
0.000449601
0.000520627
0.000677901
0.000938504
0.00152225
0.00180891
0.000742253
0.000118605
0.000292264
0.000422232
0.000499637
0.000522457
0.000520632
0.000510205
0.000488393
0.00046686
0.00044957
0.000443249
0.000448192
0.000465579
0.000508329
0.000592828
0.000782839
0.00103267
0.00154387
0.00164619
0.000700748
8.00419e-05
0.000257211
0.000433597
0.000534915
0.000592577
0.000594692
0.000587348
0.000569763
0.000550659
0.000537908
0.000540835
0.000555715
0.000590847
0.000666946
0.000789203
0.00105498
0.00132207
0.00160627
0.00147084
0.00064395
8.83846e-05
0.000279027
0.000489913
0.000613849
0.000690278
0.000721936
0.000743944
0.000760538
0.000783474
0.000820781
0.000880373
0.000967946
0.00108718
0.00126246
0.00146783
0.00176394
0.00185298
0.00172709
0.00136819
0.000563086
6.40049e-05
0.000100377
0.000183698
0.000264433
0.000327047
0.000366919
0.000390328
0.00040579
0.000413112
0.00041993
0.000423371
0.000430273
0.000435855
0.000448039
0.000456683
0.000477221
0.000499833
0.000524684
0.000519124
0.000463542
)
;

boundaryField
{
    movingWall
    {
        type            kqRWallFunction;
        value           nonuniform List<scalar> 
20
(
6.40049e-05
0.000100377
0.000183698
0.000264433
0.000327047
0.000366919
0.000390328
0.00040579
0.000413112
0.00041993
0.000423371
0.000430273
0.000435855
0.000448039
0.000456683
0.000477221
0.000499833
0.000524684
0.000519124
0.000463542
)
;
    }
    fixedWalls
    {
        type            kqRWallFunction;
        value           nonuniform List<scalar> 
60
(
5.67572e-06
2.5868e-05
8.75524e-05
0.000200547
0.000291318
0.000342183
0.000351638
0.000346348
0.000332932
0.000306097
0.000278476
0.000254504
0.000228604
0.000204733
0.000177456
0.000149855
0.000118605
8.00419e-05
8.83846e-05
6.40049e-05
0.000185497
0.000382209
0.00049532
0.000569119
0.000624701
0.000669727
0.000704866
0.000733681
0.000754007
0.000769683
0.000777382
0.000780867
0.000781611
0.000780067
0.000767088
0.000742253
0.000700748
0.00064395
0.000563086
0.000463542
5.67572e-06
1.8029e-05
7.86584e-05
0.000172016
0.000238065
0.000287853
0.000328157
0.000366711
0.000400502
0.0004351
0.000467547
0.000501831
0.000536386
0.000560046
0.000570957
0.000572156
0.000531117
0.000419876
0.000257472
0.000185497
)
;
    }
    frontAndBack
    {
        type            empty;
    }
}


// ************************************************************************* //
