/*--------------------------------*- C++ -*----------------------------------*\
  =========                 |
  \\      /  F ield         | OpenFOAM: The Open Source CFD Toolbox
   \\    /   O peration     | Website:  https://openfoam.org
    \\  /    A nd           | Version:  13
     \\/     M anipulation  |
\*---------------------------------------------------------------------------*/
FoamFile
{
    format      ascii;
    class       surfaceScalarField;
    location    "7.5";
    object      phi;
}
// * * * * * * * * * * * * * * * * * * * * * * * * * * * * * * * * * * * * * //

dimensions      [0 3 -1 0 0 0 0];

internalField   nonuniform List<scalar> 
760
(
1.38101e-07
-1.38107e-07
-8.74278e-08
2.25529e-07
-8.42839e-07
7.55411e-07
-2.09148e-06
1.24864e-06
-3.46708e-06
1.3756e-06
-4.70181e-06
1.23472e-06
-5.75077e-06
1.04896e-06
-6.58464e-06
8.33873e-07
-7.19856e-06
6.13919e-07
-7.61057e-06
4.12005e-07
-7.8321e-06
2.21525e-07
-7.858e-06
2.59079e-08
-7.67712e-06
-1.8088e-07
-7.29059e-06
-3.86534e-07
-6.63355e-06
-6.57042e-07
-5.67868e-06
-9.54873e-07
-4.37261e-06
-1.30606e-06
-2.75706e-06
-1.61555e-06
-1.05572e-06
-1.70134e-06
-1.05572e-06
-3.34994e-07
1.96887e-07
-1.26565e-06
1.15618e-06
-2.5944e-06
2.08417e-06
-3.84919e-06
2.50343e-06
-4.89924e-06
2.42565e-06
-5.82622e-06
2.16171e-06
-6.58285e-06
1.8056e-06
-7.17776e-06
1.42878e-06
-7.62558e-06
1.06174e-06
-7.92069e-06
7.07114e-07
-8.04962e-06
3.50459e-07
-8.00228e-06
-2.14369e-08
-7.80935e-06
-3.73809e-07
-7.42491e-06
-7.70969e-07
-6.84219e-06
-1.23976e-06
-6.01501e-06
-1.78206e-06
-4.90472e-06
-2.41635e-06
-3.45093e-06
-3.06934e-06
-1.69072e-06
-3.46155e-06
-2.74644e-06
-9.44498e-07
1.14138e-06
-2.2247e-06
2.43638e-06
-3.37578e-06
3.23525e-06
-4.32374e-06
3.45139e-06
-5.12227e-06
3.22418e-06
-5.78103e-06
2.82047e-06
-6.29838e-06
2.32294e-06
-6.66617e-06
1.79657e-06
-6.90353e-06
1.2991e-06
-7.01155e-06
8.15132e-07
-7.01464e-06
3.53546e-07
-6.92687e-06
-1.09201e-07
-6.72537e-06
-5.75312e-07
-6.398e-06
-1.09834e-06
-5.93112e-06
-1.70665e-06
-5.28789e-06
-2.42529e-06
-4.43537e-06
-3.26887e-06
-3.30723e-06
-4.19749e-06
-1.82523e-06
-4.94355e-06
-4.57167e-06
-1.18636e-06
2.32774e-06
-2.37137e-06
3.6214e-06
-3.33324e-06
4.19712e-06
-4.07041e-06
4.18857e-06
-4.64965e-06
3.80341e-06
-5.08484e-06
3.25566e-06
-5.3916e-06
2.6297e-06
-5.59794e-06
2.00291e-06
-5.71378e-06
1.41494e-06
-5.75558e-06
8.5694e-07
-5.72505e-06
3.23014e-07
-5.6253e-06
-2.08954e-07
-5.44208e-06
-7.58529e-07
-5.1737e-06
-1.36672e-06
-4.80989e-06
-2.07045e-06
-4.32532e-06
-2.90986e-06
-3.6836e-06
-3.91059e-06
-2.82431e-06
-5.05678e-06
-1.61815e-06
-6.1497e-06
-6.18982e-06
-1.12974e-06
3.45748e-06
-2.13434e-06
4.62599e-06
-2.90886e-06
4.97164e-06
-3.48212e-06
4.76183e-06
-3.90004e-06
4.22133e-06
-4.18834e-06
3.54396e-06
-4.37912e-06
2.82048e-06
-4.49882e-06
2.12261e-06
-4.55504e-06
1.47116e-06
-4.55642e-06
8.58316e-07
-4.50414e-06
2.70737e-07
-4.39931e-06
-3.13782e-07
-4.23748e-06
-9.20359e-07
-4.01974e-06
-1.58447e-06
-3.74181e-06
-2.34839e-06
-3.38839e-06
-3.26327e-06
-2.92291e-06
-4.37607e-06
-2.27846e-06
-5.70123e-06
-1.35153e-06
-7.07663e-06
-7.54135e-06
-9.33052e-07
4.39053e-06
-1.73476e-06
5.4277e-06
-2.34262e-06
5.57951e-06
-2.77988e-06
5.19908e-06
-3.08339e-06
4.52484e-06
-3.28304e-06
3.74362e-06
-3.41026e-06
2.9477e-06
-3.48385e-06
2.19621e-06
-3.51153e-06
1.49883e-06
-3.49802e-06
8.4481e-07
-3.44393e-06
2.16646e-07
-3.34878e-06
-4.08935e-07
-3.21151e-06
-1.05763e-06
-3.03438e-06
-1.7616e-06
-2.81966e-06
-2.5631e-06
-2.56387e-06
-3.51906e-06
-2.24813e-06
-4.69182e-06
-1.80594e-06
-6.14342e-06
-1.0899e-06
-7.79267e-06
-8.63125e-06
-7.07462e-07
5.09799e-06
-1.29951e-06
6.01975e-06
-1.75068e-06
6.03067e-06
-2.07085e-06
5.51925e-06
-2.29044e-06
4.74443e-06
-2.43421e-06
3.88739e-06
-2.52584e-06
3.03933e-06
-2.57837e-06
2.24873e-06
-2.59834e-06
1.5188e-06
-2.58842e-06
8.34893e-07
-2.5474e-06
1.75618e-07
-2.47301e-06
-4.83321e-07
-2.36404e-06
-1.1666e-06
-2.22359e-06
-1.90205e-06
-2.05905e-06
-2.72764e-06
-1.87513e-06
-3.70298e-06
-1.6622e-06
-4.90475e-06
-1.36587e-06
-6.43975e-06
-8.92098e-07
-8.26644e-06
-9.52335e-06
-4.59829e-07
5.55782e-06
-8.70363e-07
6.43028e-06
-1.17866e-06
6.33897e-06
-1.39918e-06
5.73977e-06
-1.55306e-06
4.89831e-06
-1.65751e-06
3.99184e-06
-1.72783e-06
3.10965e-06
-1.77193e-06
2.29283e-06
-1.794e-06
1.54087e-06
-1.79484e-06
8.3573e-07
-1.77215e-06
1.52931e-07
-1.72302e-06
-5.32451e-07
-1.64596e-06
-1.24365e-06
-1.54403e-06
-2.00398e-06
-1.42728e-06
-2.8444e-06
-1.30755e-06
-3.82271e-06
-1.18158e-06
-5.03072e-06
-1.00404e-06
-6.61729e-06
-6.89695e-07
-8.58079e-06
-1.0213e-05
-2.44751e-07
5.80257e-06
-4.70887e-07
6.65642e-06
-6.43181e-07
6.51127e-06
-7.74882e-07
5.87147e-06
-8.71708e-07
4.99514e-06
-9.4341e-07
4.06354e-06
-9.9715e-07
3.16339e-06
-1.03592e-06
2.3316e-06
-1.06125e-06
1.5662e-06
-1.0727e-06
8.47182e-07
-1.06815e-06
1.48386e-07
-1.0453e-06
-5.553e-07
-1.00312e-06
-1.28584e-06
-9.44502e-07
-2.06259e-06
-8.79664e-07
-2.90923e-06
-8.2342e-07
-3.87896e-06
-7.78234e-07
-5.0759e-06
-7.06328e-07
-6.68919e-06
-5.48673e-07
-8.73844e-06
-1.07617e-05
-2.31971e-08
5.82577e-06
-9.61962e-08
6.72942e-06
-1.50534e-07
6.5656e-06
-1.94504e-07
5.91544e-06
-2.33983e-07
5.03462e-06
-2.7162e-07
4.10118e-06
-3.07215e-07
3.19899e-06
-3.38646e-07
2.36304e-06
-3.64745e-07
1.5923e-06
-3.8454e-07
8.66976e-07
-3.96937e-07
1.60784e-07
-4.00884e-07
-5.51353e-07
-3.96328e-07
-1.2904e-06
-3.85996e-07
-2.07293e-06
-3.79473e-07
-2.91576e-06
-3.87804e-07
-3.87063e-06
-4.32659e-07
-5.03105e-06
-4.58443e-07
-6.66341e-06
-4.13388e-07
-8.7835e-06
-1.11751e-05
1.80784e-07
5.64499e-06
2.73217e-07
6.63699e-06
3.43116e-07
6.4957e-06
3.72132e-07
5.88643e-06
3.84718e-07
5.02203e-06
3.81618e-07
4.10428e-06
3.67486e-07
3.21312e-06
3.47188e-07
2.38333e-06
3.23559e-07
1.61593e-06
2.97581e-07
8.92954e-07
2.69086e-07
1.89279e-07
2.37583e-07
-5.19851e-07
2.01902e-07
-1.25472e-06
1.59459e-07
-2.03048e-06
1.0255e-07
-2.85885e-06
4.15703e-09
-3.77223e-06
-1.06999e-07
-4.91989e-06
-2.46381e-07
-6.52402e-06
-3.20727e-07
-8.70915e-06
-1.14958e-05
3.72698e-07
5.27229e-06
6.18807e-07
6.39088e-06
8.04303e-07
6.31021e-06
9.19845e-07
5.77088e-06
9.9328e-07
4.94859e-06
1.03293e-06
4.06463e-06
1.04739e-06
3.19865e-06
1.04389e-06
2.38684e-06
1.02655e-06
1.63327e-06
9.96456e-07
9.23051e-07
9.5221e-07
2.33524e-07
8.9173e-07
-4.5937e-07
8.1212e-07
-1.17511e-06
7.10356e-07
-1.92872e-06
5.79368e-07
-2.72786e-06
4.14187e-07
-3.60705e-06
1.92879e-07
-4.69858e-06
-6.71643e-08
-6.26398e-06
-2.17414e-07
-8.5589e-06
-1.17132e-05
5.59395e-07
4.7129e-06
9.54063e-07
5.99621e-06
1.25156e-06
6.01271e-06
1.45928e-06
5.56316e-06
1.6017e-06
4.80618e-06
1.69425e-06
3.97208e-06
1.74685e-06
3.14606e-06
1.76779e-06
2.36589e-06
1.76211e-06
1.63895e-06
1.73098e-06
9.54174e-07
1.67193e-06
2.92582e-07
1.58171e-06
-3.69154e-07
1.45574e-06
-1.04914e-06
1.28996e-06
-1.76294e-06
1.08038e-06
-2.51827e-06
8.21693e-07
-3.34837e-06
4.90633e-07
-4.36752e-06
1.35303e-07
-5.90865e-06
-9.69084e-08
-8.32669e-06
-1.18102e-05
7.16553e-07
3.99634e-06
1.24886e-06
5.4639e-06
1.65588e-06
5.60569e-06
1.97354e-06
5.24551e-06
2.20407e-06
4.57565e-06
2.36605e-06
3.8101e-06
2.47105e-06
3.04105e-06
2.52794e-06
2.309e-06
2.54215e-06
1.62474e-06
2.5151e-06
9.81227e-07
2.44358e-06
3.64104e-07
2.32289e-06
-2.48462e-07
2.14825e-06
-8.745e-07
1.91408e-06
-1.52877e-06
1.6171e-06
-2.22129e-06
1.25631e-06
-2.98758e-06
8.18037e-07
-3.92925e-06
3.73848e-07
-5.46446e-06
5.97702e-08
-8.01261e-06
-1.17504e-05
8.47156e-07
3.14919e-06
1.49789e-06
4.81317e-06
2.02077e-06
5.08281e-06
2.45815e-06
4.80812e-06
2.79516e-06
4.23864e-06
3.04413e-06
3.56112e-06
3.21707e-06
2.86811e-06
3.3231e-06
2.20298e-06
3.36748e-06
1.58036e-06
3.35191e-06
9.96797e-07
3.2729e-06
4.43112e-07
3.12251e-06
-9.80771e-08
2.8987e-06
-6.50685e-07
2.59365e-06
-1.22373e-06
2.20347e-06
-1.83111e-06
1.73557e-06
-2.51968e-06
1.18219e-06
-3.37587e-06
6.30913e-07
-4.91318e-06
1.96488e-07
-7.57819e-06
-1.15539e-05
8.51264e-07
2.29792e-06
1.60473e-06
4.0597e-06
2.26938e-06
4.41816e-06
2.8497e-06
4.2278e-06
3.32338e-06
3.76496e-06
3.6886e-06
3.1959e-06
3.95399e-06
2.60273e-06
4.12896e-06
2.02801e-06
4.2187e-06
1.49062e-06
4.22548e-06
9.90017e-07
4.1468e-06
5.21791e-07
3.97721e-06
7.15135e-08
3.70759e-06
-3.81063e-07
3.33629e-06
-8.52425e-07
2.85565e-06
-1.35047e-06
2.28273e-06
-1.94675e-06
1.61135e-06
-2.7045e-06
9.44728e-07
-4.24655e-06
3.89639e-07
-7.0231e-06
-1.11643e-05
7.57827e-07
1.5401e-06
1.58431e-06
3.23322e-06
2.4054e-06
3.59707e-06
3.14439e-06
3.48881e-06
3.76975e-06
3.1396e-06
4.27213e-06
2.69352e-06
4.64979e-06
2.22507e-06
4.91002e-06
1.76778e-06
5.05859e-06
1.34205e-06
5.09965e-06
9.48961e-07
5.03412e-06
5.87319e-07
4.86197e-06
2.4366e-07
4.56522e-06
-8.43124e-08
4.15593e-06
-4.43129e-07
3.61347e-06
-8.0802e-07
2.95957e-06
-1.29285e-06
2.19427e-06
-1.9392e-06
1.40974e-06
-3.46202e-06
6.65686e-07
-6.27905e-06
-1.04986e-05
2.60935e-07
1.27916e-06
1.21072e-06
2.28344e-06
2.2185e-06
2.58929e-06
3.16097e-06
2.54634e-06
3.97504e-06
2.32553e-06
4.6437e-06
2.02486e-06
5.16515e-06
1.70362e-06
5.54245e-06
1.39048e-06
5.78399e-06
1.10051e-06
5.89678e-06
8.36174e-07
5.8861e-06
5.97999e-07
5.75956e-06
3.70198e-07
5.51696e-06
1.5829e-07
5.15357e-06
-7.97406e-08
4.63681e-06
-2.91259e-07
3.99356e-06
-6.49607e-07
3.19902e-06
-1.14466e-06
2.32469e-06
-2.58769e-06
1.20059e-06
-5.15494e-06
-9.29798e-06
-5.49799e-07
1.82896e-06
5.03776e-07
1.22986e-06
1.81853e-06
1.27453e-06
3.03511e-06
1.32976e-06
4.08823e-06
1.27241e-06
4.97256e-06
1.14053e-06
5.69282e-06
9.83364e-07
6.24534e-06
8.37949e-07
6.65e-06
6.95852e-07
6.91175e-06
5.74421e-07
7.05477e-06
4.54979e-07
7.07264e-06
3.52325e-07
6.98333e-06
2.476e-07
6.76013e-06
1.43462e-07
6.43601e-06
3.28656e-08
5.9895e-06
-2.031e-07
5.35765e-06
-5.12809e-07
4.45517e-06
-1.68521e-06
2.62834e-06
-3.32812e-06
-6.66964e-06
1.82896e-06
3.05882e-06
4.33335e-06
5.66312e-06
6.93553e-06
8.07606e-06
9.05942e-06
9.89737e-06
1.05932e-05
1.11676e-05
1.16226e-05
1.19749e-05
1.22225e-05
1.2366e-05
1.23989e-05
1.21958e-05
1.1683e-05
9.99776e-06
6.66964e-06
)
;

boundaryField
{
    movingWall
    {
        type            calculated;
        value           uniform 0;
    }
    fixedWalls
    {
        type            calculated;
        value           uniform 0;
    }
    frontAndBack
    {
        type            empty;
    }
}


// ************************************************************************* //
