/*--------------------------------*- C++ -*----------------------------------*\
  =========                 |
  \\      /  F ield         | OpenFOAM: The Open Source CFD Toolbox
   \\    /   O peration     | Website:  https://openfoam.org
    \\  /    A nd           | Version:  13
     \\/     M anipulation  |
\*---------------------------------------------------------------------------*/
FoamFile
{
    format      ascii;
    class       volVectorField;
    location    "7.5";
    object      U;
}
// * * * * * * * * * * * * * * * * * * * * * * * * * * * * * * * * * * * * * //

dimensions      [0 1 -1 0 0 0 0];

internalField   nonuniform List<vector> 
400
(
(0.00235903 -0.00284861 0)
(0.00277026 -0.000654043 0)
(-0.00591928 0.00327379 0)
(-0.0251347 0.0102269 0)
(-0.0581487 0.0142347 0)
(-0.0843207 0.0122576 0)
(-0.107841 0.0106204 0)
(-0.12573 0.00822301 0)
(-0.139932 0.00631558 0)
(-0.149704 0.00406149 0)
(-0.155606 0.00227575 0)
(-0.157952 0.000369009 0)
(-0.156842 -0.00266558 0)
(-0.150284 -0.00483832 0)
(-0.139453 -0.00811931 0)
(-0.12216 -0.0110423 0)
(-0.0991322 -0.0144057 0)
(-0.0697818 -0.0163685 0)
(-0.0373402 -0.0148721 0)
(-0.00904894 -0.0041127 0)
(-0.00174187 -0.00298325 0)
(-0.0115411 0.0104425 0)
(-0.0368448 0.0289579 0)
(-0.0652777 0.0396598 0)
(-0.089743 0.0388043 0)
(-0.109555 0.0349378 0)
(-0.12641 0.029493 0)
(-0.138809 0.0238438 0)
(-0.1495 0.0172598 0)
(-0.156516 0.0115242 0)
(-0.160827 0.00581788 0)
(-0.161606 0.000253775 0)
(-0.15913 -0.00589686 0)
(-0.153143 -0.0126904 0)
(-0.143168 -0.0209757 0)
(-0.128314 -0.0304471 0)
(-0.108308 -0.0412743 0)
(-0.0827997 -0.0510074 0)
(-0.0516427 -0.0536916 0)
(-0.0189988 -0.0351964 0)
(-0.00781063 0.0121811 0)
(-0.0307381 0.0379692 0)
(-0.0565252 0.0546881 0)
(-0.0786662 0.0599022 0)
(-0.0963678 0.0564213 0)
(-0.110673 0.0494926 0)
(-0.122116 0.0407355 0)
(-0.130823 0.0314808 0)
(-0.136839 0.0232319 0)
(-0.139801 0.0149509 0)
(-0.140926 0.00682197 0)
(-0.139893 -0.00147411 0)
(-0.137306 -0.0101629 0)
(-0.131827 -0.0197216 0)
(-0.123813 -0.0308568 0)
(-0.112307 -0.0440114 0)
(-0.0968502 -0.0594989 0)
(-0.0768027 -0.076389 0)
(-0.0506709 -0.088675 0)
(-0.0219669 -0.0773285 0)
(-0.011912 0.0352504 0)
(-0.0365819 0.0613731 0)
(-0.0590449 0.0746864 0)
(-0.0759668 0.0762938 0)
(-0.088787 0.0702232 0)
(-0.0986397 0.0607589 0)
(-0.105767 0.0495475 0)
(-0.110696 0.0381169 0)
(-0.113598 0.0271509 0)
(-0.115133 0.0166116 0)
(-0.115246 0.00661578 0)
(-0.113943 -0.00337694 0)
(-0.111155 -0.0138291 0)
(-0.10659 -0.0254322 0)
(-0.100227 -0.0388642 0)
(-0.0916373 -0.0548187 0)
(-0.0800988 -0.0736666 0)
(-0.0646169 -0.094809 0)
(-0.0432704 -0.113737 0)
(-0.0198975 -0.111719 0)
(-0.0121053 0.0572391 0)
(-0.0345971 0.0821116 0)
(-0.0526757 0.091359 0)
(-0.0657459 0.0893908 0)
(-0.0751807 0.0803665 0)
(-0.0818639 0.0682209 0)
(-0.0862948 0.0547471 0)
(-0.0892125 0.0414633 0)
(-0.090842 0.0289364 0)
(-0.0914109 0.0171463 0)
(-0.0908966 0.00588942 0)
(-0.0893322 -0.00532118 0)
(-0.0866736 -0.0169822 0)
(-0.0828578 -0.0298352 0)
(-0.0778645 -0.0447162 0)
(-0.0715496 -0.0625761 0)
(-0.063356 -0.084211 0)
(-0.0518283 -0.109631 0)
(-0.0349543 -0.13488 0)
(-0.0175334 -0.140468 0)
(-0.0102446 0.0775028 0)
(-0.0287301 0.100005 0)
(-0.0427921 0.1052 0)
(-0.0528691 0.0995979 0)
(-0.0597513 0.0876132 0)
(-0.0643716 0.073075 0)
(-0.0673145 0.0578656 0)
(-0.069205 0.0433216 0)
(-0.0701566 0.029775 0)
(-0.0702835 0.0170528 0)
(-0.0696068 0.0048431 0)
(-0.0681227 -0.00729661 0)
(-0.0658014 -0.0198768 0)
(-0.0626413 -0.0335917 0)
(-0.0586856 -0.0493131 0)
(-0.0539517 -0.0681365 0)
(-0.0482473 -0.0912071 0)
(-0.040146 -0.11933 0)
(-0.0291767 -0.150543 0)
(-0.0119908 -0.163868 0)
(-0.00835961 0.0943443 0)
(-0.021591 0.114178 0)
(-0.0321953 0.116028 0)
(-0.0395908 0.107262 0)
(-0.0444938 0.0928307 0)
(-0.047757 0.0764517 0)
(-0.049847 0.0599921 0)
(-0.0512009 0.0445361 0)
(-0.0518866 0.0302173 0)
(-0.0519856 0.0167854 0)
(-0.051487 0.00385674 0)
(-0.0503409 -0.00903387 0)
(-0.0485021 -0.0223873 0)
(-0.0459856 -0.0368068 0)
(-0.0428908 -0.0531188 0)
(-0.0393373 -0.0725125 0)
(-0.0354195 -0.096374 0)
(-0.0296828 -0.126503 0)
(-0.0234061 -0.161703 0)
(-0.00966432 -0.183004 0)
(-0.00549521 0.106617 0)
(-0.014317 0.124743 0)
(-0.0218575 0.12398 0)
(-0.0268502 0.112813 0)
(-0.0301857 0.0966101 0)
(-0.0324676 0.0789289 0)
(-0.0340085 0.0615848 0)
(-0.0350846 0.0454675 0)
(-0.0357242 0.0306011 0)
(-0.0359638 0.0166613 0)
(-0.0357614 0.00319034 0)
(-0.0350476 -0.0103005 0)
(-0.033769 -0.0242847 0)
(-0.0319449 -0.0392674 0)
(-0.0297055 -0.0559476 0)
(-0.0272225 -0.0755294 0)
(-0.0248716 -0.0996711 0)
(-0.021134 -0.131034 0)
(-0.0188223 -0.169101 0)
(-0.00621373 -0.198217 0)
(-0.00333685 0.114275 0)
(-0.00757052 0.131252 0)
(-0.012119 0.128896 0)
(-0.0149271 0.116421 0)
(-0.0169253 0.0991493 0)
(-0.0183969 0.0806923 0)
(-0.0194962 0.0628102 0)
(-0.0203698 0.0462747 0)
(-0.0210008 0.0310563 0)
(-0.0213827 0.016771 0)
(-0.0214651 0.00290873 0)
(-0.0211883 -0.0110325 0)
(-0.0205101 -0.0254987 0)
(-0.0194516 -0.0409091 0)
(-0.0181618 -0.0578072 0)
(-0.0167791 -0.077338 0)
(-0.016114 -0.101433 0)
(-0.0138413 -0.133594 0)
(-0.0151508 -0.173674 0)
(-0.00443792 -0.210442 0)
(-1.28891e-05 0.11725 0)
(-0.00123316 0.13489 0)
(-0.00304169 0.131517 0)
(-0.00376426 0.118329 0)
(-0.00451503 0.100617 0)
(-0.00518686 0.0818356 0)
(-0.0058271 0.0637199 0)
(-0.00646147 0.0469792 0)
(-0.00703252 0.0315719 0)
(-0.00750248 0.0170865 0)
(-0.00782976 0.00299114 0)
(-0.00798152 -0.0112215 0)
(-0.00794217 -0.0259748 0)
(-0.00773274 -0.041619 0)
(-0.00751696 -0.0585535 0)
(-0.00728612 -0.0778017 0)
(-0.00858835 -0.101489 0)
(-0.00746438 -0.133981 0)
(-0.01223 -0.17553 0)
(-0.00200801 -0.219953 0)
(0.00213927 0.115701 0)
(0.00450092 0.134604 0)
(0.00574193 0.13122 0)
(0.00690948 0.118373 0)
(0.00739342 0.100825 0)
(0.00758424 0.0822216 0)
(0.00749 0.0642167 0)
(0.00717791 0.0475061 0)
(0.00674387 0.032081 0)
(0.0062428 0.0175559 0)
(0.00570226 0.00340959 0)
(0.00512447 -0.0108608 0)
(0.00448751 -0.0256637 0)
(0.00376835 -0.0413081 0)
(0.00277084 -0.0580655 0)
(0.00173369 -0.0767896 0)
(-0.00169659 -0.0999884 0)
(-0.00155382 -0.132237 0)
(-0.0100383 -0.175419 0)
(-0.000300479 -0.227223 0)
(0.00410176 0.111094 0)
(0.0101345 0.131707 0)
(0.0137566 0.129165 0)
(0.0170325 0.117358 0)
(0.0189973 0.100185 0)
(0.0202128 0.0820021 0)
(0.0208322 0.0643138 0)
(0.020979 0.0478118 0)
(0.0207815 0.0325375 0)
(0.0203109 0.0181502 0)
(0.0195825 0.00416109 0)
(0.0185751 -0.00992133 0)
(0.0172222 -0.0244992 0)
(0.0155075 -0.039866 0)
(0.0132172 -0.0562007 0)
(0.0105787 -0.0741813 0)
(0.00501766 -0.096562 0)
(0.00431347 -0.128242 0)
(-0.00834233 -0.173199 0)
(0.00231646 -0.232226 0)
(0.00626651 0.101845 0)
(0.0153337 0.124982 0)
(0.0218071 0.123772 0)
(0.0268307 0.113871 0)
(0.0305211 0.0979031 0)
(0.0329399 0.080633 0)
(0.0344631 0.0636501 0)
(0.0352457 0.0476721 0)
(0.0354207 0.0328116 0)
(0.0350685 0.0188069 0)
(0.0341921 0.0052328 0)
(0.0327602 -0.00837462 0)
(0.0306523 -0.0223999 0)
(0.0278766 -0.0371551 0)
(0.0240945 -0.0527739 0)
(0.0197774 -0.0699172 0)
(0.0120662 -0.0910406 0)
(0.0101132 -0.122167 0)
(-0.00692616 -0.169271 0)
(0.00525368 -0.235264 0)
(0.00803644 0.0893495 0)
(0.0199105 0.116688 0)
(0.0289678 0.117656 0)
(0.0360085 0.109247 0)
(0.0416921 0.0947289 0)
(0.0456918 0.0785031 0)
(0.0484372 0.0623824 0)
(0.0501226 0.047123 0)
(0.0508735 0.0328967 0)
(0.0507774 0.019515 0)
(0.049827 0.00662856 0)
(0.047993 -0.00619784 0)
(0.0450864 -0.0193124 0)
(0.0412007 -0.0330688 0)
(0.0357511 -0.0476325 0)
(0.0297 -0.0636523 0)
(0.0196279 -0.083335 0)
(0.0162174 -0.114186 0)
(-0.00515814 -0.163708 0)
(0.00952901 -0.236514 0)
(0.00967332 0.0731862 0)
(0.0239065 0.103539 0)
(0.0352424 0.107366 0)
(0.0445602 0.101024 0)
(0.0523898 0.0886994 0)
(0.0583534 0.0742338 0)
(0.0626761 0.0595473 0)
(0.0655631 0.0455024 0)
(0.0671324 0.0323575 0)
(0.0674774 0.0200083 0)
(0.0665695 0.00820087 0)
(0.0644044 -0.0034661 0)
(0.0606786 -0.0152329 0)
(0.0556879 -0.0275482 0)
(0.0484332 -0.0406287 0)
(0.0406404 -0.0552622 0)
(0.0278733 -0.0734182 0)
(0.02299 -0.104285 0)
(-0.00294508 -0.156955 0)
(0.0146569 -0.23657 0)
(0.00957987 0.0551499 0)
(0.025666 0.0907898 0)
(0.0390698 0.0972614 0)
(0.0509371 0.0924029 0)
(0.0614769 0.081841 0)
(0.0700249 0.0690816 0)
(0.0764852 0.0559403 0)
(0.0810263 0.0433026 0)
(0.0837603 0.031489 0)
(0.0848266 0.0204555 0)
(0.084124 0.0100449 0)
(0.0818224 -0.000114311 0)
(0.0773644 -0.0101479 0)
(0.0714189 -0.0206228 0)
(0.0623371 -0.0317699 0)
(0.0529748 -0.0447302 0)
(0.0373241 -0.061137 0)
(0.0311694 -0.0923682 0)
(7.53449e-05 -0.148079 0)
(0.0214417 -0.234552 0)
(0.00795602 0.036735 0)
(0.0246968 0.0712645 0)
(0.0404005 0.0800825 0)
(0.0551584 0.0776795 0)
(0.068701 0.0697616 0)
(0.0802331 0.0596535 0)
(0.089262 0.0489302 0)
(0.0958333 0.0384986 0)
(0.100012 0.0287714 0)
(0.10208 0.0197458 0)
(0.101779 0.0113539 0)
(0.0996711 0.00325138 0)
(0.0947283 -0.00464396 0)
(0.0883808 -0.0128291 0)
(0.0779213 -0.0214449 0)
(0.0677144 -0.0323174 0)
(0.0494408 -0.046433 0)
(0.0425854 -0.0782552 0)
(0.0052664 -0.137186 0)
(0.0305845 -0.227099 0)
(-0.00325413 0.0238761 0)
(0.0158769 0.0584001 0)
(0.0345397 0.0659614 0)
(0.0533568 0.0642843 0)
(0.0708655 0.0580943 0)
(0.0859672 0.0502165 0)
(0.0980857 0.0420324 0)
(0.107319 0.0339454 0)
(0.113574 0.0263869 0)
(0.117382 0.0194658 0)
(0.118254 0.0131878 0)
(0.117286 0.00730697 0)
(0.113001 0.00181537 0)
(0.107892 -0.00391798 0)
(0.0976984 -0.00986204 0)
(0.0885578 -0.0182053 0)
(0.0689608 -0.0299982 0)
(0.0623094 -0.0616655 0)
(0.0182924 -0.121047 0)
(0.0460618 -0.204528 0)
(-0.0151966 0.0298888 0)
(-0.0026612 0.0278731 0)
(0.0235088 0.0328413 0)
(0.048447 0.0342573 0)
(0.0708705 0.0323448 0)
(0.0903713 0.0285066 0)
(0.106615 0.0241103 0)
(0.119603 0.0198709 0)
(0.129239 0.015979 0)
(0.136179 0.0123868 0)
(0.140046 0.00920795 0)
(0.141954 0.0060672 0)
(0.140727 0.00343272 0)
(0.138302 -8.71138e-05 0)
(0.131292 -0.0030816 0)
(0.125402 -0.00922662 0)
(0.109038 -0.0183869 0)
(0.103726 -0.0458719 0)
(0.0579676 -0.0930293 0)
(0.0775976 -0.155757 0)
(0.0397177 0.0381396 0)
(0.0458342 0.0274193 0)
(0.0698767 0.0243186 0)
(0.0992847 0.0242794 0)
(0.125326 0.0234173 0)
(0.149146 0.0215959 0)
(0.17051 0.0191844 0)
(0.189165 0.0170912 0)
(0.204784 0.0148111 0)
(0.217855 0.0131586 0)
(0.228093 0.0112082 0)
(0.236357 0.00999343 0)
(0.242024 0.00817767 0)
(0.24602 0.00719961 0)
(0.247416 0.00507143 0)
(0.245397 0.00266164 0)
(0.236963 0.0020909 0)
(0.221954 -0.00972967 0)
(0.172095 -0.0131231 0)
(0.145546 -0.0647231 0)
)
;

boundaryField
{
    movingWall
    {
        type            fixedValue;
        value           uniform (1 0 0);
    }
    fixedWalls
    {
        type            noSlip;
    }
    frontAndBack
    {
        type            empty;
    }
}


// ************************************************************************* //
