/*--------------------------------*- C++ -*----------------------------------*\
  =========                 |
  \\      /  F ield         | OpenFOAM: The Open Source CFD Toolbox
   \\    /   O peration     | Website:  https://openfoam.org
    \\  /    A nd           | Version:  13
     \\/     M anipulation  |
\*---------------------------------------------------------------------------*/
FoamFile
{
    format      ascii;
    class       volScalarField;
    location    "8.8";
    object      k;
}
// * * * * * * * * * * * * * * * * * * * * * * * * * * * * * * * * * * * * * //

dimensions      [0 2 -2 0 0 0 0];

internalField   nonuniform List<scalar> 
6400
(
5.62903e-07
2.89093e-06
7.02907e-06
1.13203e-05
1.45495e-05
1.63598e-05
1.70182e-05
1.70887e-05
1.7206e-05
1.78605e-05
1.94322e-05
2.24774e-05
2.72638e-05
3.38765e-05
4.19588e-05
5.10578e-05
6.0704e-05
7.07183e-05
8.06168e-05
9.01812e-05
9.98228e-05
0.000110378
0.000122957
0.000138175
0.000155345
0.000172612
0.000189796
0.000206863
0.000224355
0.000242727
0.000261719
0.000280704
0.000299382
0.000317821
0.000336475
0.000355461
0.000375159
0.00039569
0.000417301
0.00044005
0.000464104
0.000489648
0.000516822
0.000545935
0.00057725
0.000611862
0.000651839
0.000701591
0.000750916
0.000801399
0.000850661
0.000898493
0.000943291
0.000983848
0.00101865
0.00104587
0.0010595
0.00106488
0.00106211
0.00104125
0.00100477
0.000952879
0.000886121
0.000807494
0.000717894
0.000622352
0.000525428
0.000430765
0.00034183
0.000262849
0.00019844
0.000144378
0.000100706
6.73393e-05
4.3312e-05
2.69291e-05
1.62334e-05
9.33396e-06
4.41698e-06
9.4137e-07
2.71975e-06
2.28495e-05
5.54519e-05
8.66296e-05
0.000109636
0.000123335
0.00012988
0.000132595
0.000135112
0.000140584
0.000152554
0.000174969
0.000208939
0.000253736
0.000307187
0.000366561
0.000429428
0.00049334
0.000556509
0.000618366
0.000681163
0.000749391
0.000828594
0.000921055
0.00102254
0.001124
0.00122278
0.00131679
0.00140705
0.00149453
0.00157747
0.00165488
0.00172536
0.00178986
0.00185073
0.00190884
0.00196618
0.00202359
0.0020824
0.00214316
0.00220656
0.00227332
0.00234346
0.00241715
0.00249375
0.00257321
0.00265365
0.00273219
0.00281659
0.00290294
0.00299172
0.00307939
0.00316437
0.00324288
0.00331158
0.00336636
0.00339496
0.00340385
0.00339151
0.00334507
0.00326078
0.00313831
0.00297606
0.0027775
0.00254726
0.00229428
0.00202969
0.00176164
0.00149788
0.00124248
0.000999591
0.000778847
0.000586664
0.000425986
0.00029729
0.000198723
0.000127121
7.67326e-05
3.72616e-05
4.98027e-06
5.9481e-06
4.9556e-05
0.000115178
0.000170065
0.000207362
0.000229369
0.000241567
0.000250033
0.000260878
0.000280119
0.000313631
0.000366175
0.000439355
0.000531224
0.000637641
0.000754343
0.00087802
0.00100595
0.00113557
0.00126477
0.00139195
0.00151642
0.001636
0.00174533
0.00183945
0.0019146
0.0019682
0.00200582
0.00203511
0.00206306
0.00209373
0.00212626
0.00216129
0.00219636
0.00223504
0.00227647
0.0023224
0.00237273
0.00242852
0.0024897
0.00255609
0.00262836
0.00270587
0.00278885
0.00287716
0.00297071
0.00306874
0.00317254
0.00328184
0.00339495
0.0035109
0.00362737
0.00374214
0.00385182
0.00395259
0.00403965
0.00410779
0.0041443
0.00415492
0.00413508
0.00407017
0.0039598
0.00379968
0.00359197
0.00333915
0.00304919
0.00273835
0.00241547
0.0020909
0.00177503
0.0014767
0.00120257
0.000957558
0.00074412
0.000563081
0.000413703
0.000292709
0.000192523
9.80056e-05
1.33378e-05
1.03363e-05
8.33077e-05
0.000180938
0.000254138
0.000302004
0.000331702
0.000351857
0.000371094
0.000397891
0.000440523
0.000506317
0.000599701
0.000720299
0.000863209
0.00102146
0.00118841
0.00135825
0.00152532
0.00168357
0.00182719
0.00195061
0.00205196
0.00212863
0.00217371
0.00219297
0.00219758
0.00219335
0.00219098
0.00219066
0.00219654
0.00220767
0.00222222
0.00224189
0.0022664
0.00229625
0.00233113
0.00237171
0.00241783
0.00246947
0.00252698
0.00259028
0.00265971
0.00273505
0.00281635
0.00290314
0.00299587
0.00309536
0.00320133
0.00331334
0.00343049
0.00355178
0.00367551
0.00379958
0.00392104
0.00403632
0.00414087
0.00422953
0.00429415
0.00432444
0.00432929
0.00429068
0.00420687
0.00408031
0.00390375
0.00367417
0.00339285
0.00307686
0.00273695
0.00238857
0.00204587
0.0017208
0.00142201
0.00115458
0.000920491
0.000719792
0.000550835
0.000409264
0.000285396
0.000155685
2.22434e-05
1.6597e-05
0.00012847
0.000258903
0.000349647
0.000408245
0.000447079
0.000478238
0.000513237
0.000563098
0.000637868
0.000744729
0.000885446
0.00105525
0.00124469
0.00144285
0.00163946
0.0018251
0.0019909
0.00212777
0.00223163
0.00229175
0.00231501
0.00231693
0.00228706
0.00225691
0.0022299
0.00220793
0.00219324
0.0021864
0.00218449
0.00218664
0.00219393
0.00220588
0.00222203
0.00224234
0.00226676
0.00229517
0.00232725
0.00236304
0.00240276
0.00244646
0.00249459
0.00254787
0.00260714
0.00267331
0.00274639
0.00282615
0.00291307
0.0030073
0.00310893
0.00321774
0.00333317
0.00345421
0.00357931
0.00370631
0.00383164
0.00395068
0.00405778
0.00414627
0.0042001
0.00421908
0.00419573
0.00411516
0.00397882
0.00379567
0.00355456
0.00325674
0.00292031
0.00256266
0.00220224
0.00185613
0.0015375
0.00125398
0.00100798
0.000798604
0.000622726
0.000474527
0.000341791
0.00019495
2.84277e-05
2.55401e-05
0.00018839
0.000353612
0.000462711
0.000533487
0.000583775
0.000629532
0.000685429
0.000764676
0.000877524
0.00102849
0.00121415
0.00142379
0.00164268
0.00185556
0.00204843
0.00220915
0.00233055
0.00239547
0.00241685
0.002404
0.00235899
0.00231418
0.00227066
0.00223027
0.00219513
0.00216648
0.00214398
0.00212616
0.0021117
0.0021003
0.00209291
0.00208923
0.0020879
0.00208821
0.00209207
0.00209808
0.00210691
0.00211859
0.00213363
0.00215224
0.0021751
0.00220221
0.00223399
0.00227106
0.00231387
0.00236325
0.00242014
0.00248555
0.00256056
0.00264612
0.00274303
0.00285181
0.00297223
0.0031032
0.0032433
0.00338942
0.0035371
0.00368006
0.00380913
0.00391517
0.00396892
0.00398286
0.00393549
0.00382282
0.00364711
0.00339255
0.00307692
0.00271842
0.00234042
0.00196738
0.00162031
0.00131297
0.0010505
0.000831516
0.000650756
0.0005
0.000364655
0.000212543
3.07395e-05
3.79524e-05
0.000264991
0.00046739
0.000596171
0.000680834
0.000745051
0.000808882
0.000889853
0.00100204
0.0011535
0.00134349
0.00156183
0.00179154
0.00201317
0.00220844
0.00236235
0.00245536
0.00249011
0.0024876
0.00243821
0.00238457
0.00232188
0.00226142
0.00220114
0.00214737
0.00210097
0.00206055
0.00202415
0.00199107
0.00196165
0.00193614
0.00191355
0.00189309
0.00187461
0.00185825
0.00184435
0.00183263
0.00182354
0.00181721
0.0018142
0.00181327
0.00181526
0.00182113
0.00183049
0.00184424
0.00186247
0.00188622
0.00191615
0.00195348
0.00199977
0.0020569
0.00212686
0.00221195
0.0023143
0.00243475
0.00257435
0.00273362
0.00290901
0.00309506
0.00328484
0.00347001
0.00363437
0.00375154
0.00380044
0.00379974
0.00370836
0.00353918
0.00326896
0.00292384
0.00253069
0.00212226
0.00173096
0.00138189
0.00108768
0.000848576
0.000657274
0.000501154
0.000363378
0.000211521
2.98745e-05
5.45598e-05
0.000359289
0.000600851
0.000750655
0.000850802
0.000931007
0.00101523
0.00112288
0.00126688
0.00145067
0.00166657
0.00189745
0.00212106
0.00231504
0.00246115
0.00253323
0.00255191
0.00252063
0.00246492
0.00238929
0.00230611
0.0022189
0.00214135
0.00207119
0.00201142
0.00195641
0.0019061
0.00185919
0.00181572
0.0017756
0.00173862
0.00170442
0.00167298
0.00164443
0.00161892
0.00159653
0.00157703
0.00156048
0.00154688
0.00153624
0.00152842
0.00152444
0.00152299
0.0015238
0.00152936
0.0015381
0.00155134
0.0015692
0.00159244
0.0016215
0.0016574
0.00170131
0.00175503
0.00182129
0.00190478
0.00201066
0.00214338
0.00230756
0.00250202
0.0027189
0.00295365
0.00319204
0.00341826
0.00360684
0.00370246
0.00372686
0.00366574
0.00349689
0.00319706
0.00280765
0.00236674
0.00191908
0.00150631
0.00115651
0.000878471
0.000664151
0.000496612
0.000354871
0.000204815
2.77914e-05
7.58658e-05
0.000471046
0.000753316
0.00092521
0.00104193
0.00113903
0.00124373
0.00137585
0.00154511
0.00174868
0.00197173
0.00219145
0.00238287
0.00251879
0.00257904
0.00258735
0.00254293
0.00247447
0.002378
0.00226754
0.00216461
0.00207363
0.0019923
0.00191869
0.00185216
0.00178972
0.00173181
0.0016778
0.00162806
0.00158255
0.00154131
0.00150435
0.00147173
0.00144337
0.0014191
0.00139871
0.00138202
0.00136881
0.00135882
0.00135184
0.00134839
0.00134717
0.0013477
0.00135196
0.00135884
0.00136849
0.00138114
0.00139689
0.00141602
0.00143884
0.00146585
0.00149762
0.00153496
0.00157895
0.00163118
0.00169405
0.00177158
0.00187093
0.00200576
0.00219101
0.00242411
0.00269046
0.00297826
0.0032635
0.00351766
0.0036643
0.00371148
0.00367624
0.00350068
0.00315847
0.0027123
0.00221455
0.00172433
0.00129244
0.000946588
0.000687872
0.000496897
0.000341781
0.000191187
2.54133e-05
0.000102059
0.00059848
0.000922738
0.0011175
0.00125095
0.00136402
0.00148632
0.00163655
0.00181974
0.00202635
0.00223553
0.00242126
0.00255049
0.00260411
0.00260758
0.00256072
0.00247481
0.00235445
0.00222737
0.00211196
0.00200802
0.00191547
0.00183134
0.00175415
0.00168299
0.00161691
0.00155656
0.00150188
0.00145326
0.00141065
0.00137401
0.00134311
0.00131762
0.00129709
0.00128104
0.00126895
0.0012603
0.00125491
0.0012524
0.00125165
0.001253
0.00125661
0.00126201
0.00126953
0.00127883
0.00129008
0.00130339
0.0013189
0.00133685
0.0013574
0.00138081
0.00140737
0.00143745
0.00147148
0.00150998
0.00155377
0.00160452
0.00166513
0.00174098
0.00184136
0.00198315
0.0021991
0.00248507
0.00280989
0.00315398
0.00347243
0.00367033
0.00373857
0.00371818
0.00352421
0.00312733
0.00261466
0.00205639
0.00152726
0.00108453
0.000749956
0.000512492
0.000336522
0.000178608
2.34401e-05
0.000133635
0.000737741
0.00110598
0.00132387
0.00147287
0.00159884
0.00173283
0.00189131
0.00207405
0.00226556
0.0024411
0.00256521
0.00261564
0.00261708
0.00256987
0.00246969
0.00233224
0.00219372
0.00206428
0.00194934
0.00184598
0.00175274
0.00166741
0.00158941
0.00151852
0.00145489
0.00139906
0.00135097
0.0013106
0.00127749
0.00125106
0.00123058
0.00121526
0.00120429
0.00119693
0.00119303
0.00119141
0.00119116
0.00119329
0.00119679
0.00120189
0.0012084
0.00121634
0.00122574
0.00123664
0.00124917
0.00126346
0.00127963
0.00129781
0.00131813
0.0013407
0.00136567
0.00139319
0.00142347
0.00145685
0.00149354
0.00153369
0.00157808
0.00162847
0.00168869
0.00176705
0.00187868
0.00204921
0.0023257
0.00268329
0.00307654
0.00345873
0.00370501
0.00379046
0.0037712
0.00354182
0.00307737
0.00249144
0.00187559
0.00131901
0.000878384
0.000562472
0.000345994
0.000174813
2.27012e-05
0.000171982
0.000884435
0.0012993
0.00153951
0.00170138
0.00183513
0.00197251
0.00212723
0.00229419
0.00245368
0.00257172
0.00262067
0.00262194
0.00257537
0.00246687
0.00231848
0.00216776
0.00202665
0.00189975
0.00178708
0.00168544
0.00159369
0.00151082
0.00143702
0.0013725
0.00131746
0.00127185
0.00123506
0.00120632
0.00118457
0.00116872
0.00115768
0.00115048
0.00114665
0.00114501
0.00114467
0.00114604
0.00114869
0.0011526
0.00115753
0.00116364
0.0011709
0.00117947
0.00118945
0.00120098
0.00121424
0.00122939
0.00124658
0.00126597
0.00128766
0.00131173
0.00133819
0.00136699
0.00139798
0.00143101
0.00146596
0.00150289
0.00154226
0.00158406
0.00162887
0.00167962
0.00174307
0.0018337
0.00197698
0.00221699
0.00259307
0.00302662
0.00347198
0.00375636
0.00385167
0.00381618
0.00352851
0.00298267
0.00232122
0.00166031
0.00109451
0.00067056
0.000382193
0.000181779
2.34572e-05
0.000214523
0.00103864
0.00149852
0.00175891
0.0019296
0.00206445
0.00219549
0.00233384
0.00247076
0.00257896
0.002626
0.00262787
0.00258204
0.00247115
0.00231604
0.00215352
0.00200042
0.00186242
0.00173993
0.001631
0.00153348
0.00144699
0.00137136
0.00130691
0.0012535
0.00121067
0.00117744
0.0011525
0.00113446
0.00112191
0.00111358
0.0011084
0.00110582
0.00110475
0.00110451
0.00110537
0.0011073
0.00111003
0.00111365
0.0011182
0.00112385
0.00113072
0.00113898
0.00114882
0.00116041
0.00117395
0.00118963
0.00120764
0.00122816
0.00125135
0.00127732
0.00130613
0.00133772
0.00137191
0.00140836
0.00144656
0.00148588
0.00152577
0.00156609
0.00160745
0.0016497
0.00169451
0.00174828
0.0018236
0.00194563
0.00215897
0.00253442
0.00300807
0.00350901
0.00381463
0.00390727
0.00383428
0.00345816
0.00281698
0.00208975
0.00140391
0.000852867
0.000464777
0.000207154
2.67521e-05
0.000260046
0.00119662
0.00169866
0.00197614
0.00215072
0.00227922
0.0023939
0.00250411
0.0025963
0.0026385
0.00264031
0.00259395
0.00248488
0.00232631
0.0021539
0.00198814
0.00183854
0.00170619
0.00158957
0.00148677
0.0013968
0.0013197
0.00125533
0.00120337
0.00116284
0.00113234
0.00111014
0.00109451
0.00108383
0.00107672
0.0010721
0.00106917
0.00106739
0.0010664
0.00106599
0.001066
0.00106694
0.00106852
0.00107105
0.00107458
0.00107933
0.00108546
0.00109316
0.00110259
0.00111397
0.00112747
0.0011433
0.00116168
0.00118281
0.00120692
0.0012342
0.00126481
0.00129882
0.00133619
0.00137668
0.00141977
0.00146467
0.00151025
0.00155528
0.0015988
0.00164081
0.00168218
0.00172341
0.00177004
0.00183498
0.00194415
0.00214574
0.00251206
0.00302273
0.00356973
0.00386925
0.0039427
0.00380666
0.0032987
0.00256592
0.00178808
0.00110873
0.000603396
0.000262775
3.47836e-05
0.00030706
0.0013542
0.00189455
0.00218548
0.00235858
0.00247332
0.0025625
0.00263337
0.00266599
0.00266506
0.00261544
0.00251023
0.00235092
0.00217064
0.00199234
0.00182978
0.00168667
0.00156168
0.00145296
0.00135925
0.00128012
0.00121532
0.00116402
0.00112489
0.00109605
0.00107544
0.00106103
0.00105106
0.00104408
0.00103902
0.00103514
0.00103199
0.00102933
0.00102706
0.00102523
0.00102411
0.00102367
0.00102377
0.00102516
0.00102773
0.00103165
0.00103711
0.00104426
0.00105327
0.00106432
0.00107758
0.00109326
0.00111156
0.00113273
0.00115703
0.00118471
0.00121606
0.00125131
0.00129061
0.00133398
0.00138117
0.00143158
0.00148414
0.00153725
0.0015889
0.00163709
0.00168081
0.00172051
0.00175881
0.0018014
0.00185948
0.00196216
0.00215837
0.00252883
0.0030772
0.00364483
0.00391208
0.00394676
0.00370217
0.00304064
0.00221496
0.00142186
0.000790589
0.000347526
4.7782e-05
0.000354215
0.00150736
0.0020815
0.00238192
0.00254804
0.00264247
0.00269634
0.00271756
0.00270764
0.00265151
0.00254981
0.00239151
0.00220541
0.0020151
0.00183829
0.0016825
0.00154774
0.00143189
0.00133337
0.00125129
0.00118497
0.0011333
0.00109447
0.00106624
0.0010462
0.0010321
0.00102201
0.00101448
0.00100844
0.00100323
0.000998461
0.000993988
0.000989801
0.000985993
0.00098271
0.00098013
0.000978552
0.000977923
0.000978103
0.000979994
0.000983312
0.000988263
0.000994986
0.00100362
0.00101431
0.00102722
0.00104254
0.00106048
0.00108127
0.00110518
0.00113253
0.00116365
0.00119891
0.00123864
0.00128312
0.00133247
0.00138651
0.00144462
0.00150553
0.00156716
0.00162668
0.00168087
0.00172736
0.00176635
0.001798
0.0018376
0.00189315
0.00199417
0.00219321
0.00258227
0.00317421
0.00372613
0.00394923
0.00390236
0.00346486
0.00265329
0.0017721
0.00101494
0.000453878
6.45813e-05
0.000400463
0.00165176
0.00225575
0.00256224
0.00271449
0.00277849
0.0027939
0.00277172
0.00270698
0.00260711
0.00245001
0.00225982
0.00205844
0.00186638
0.00169552
0.0015486
0.00142376
0.0013188
0.00123233
0.00116318
0.00110984
0.00107018
0.00104155
0.00102125
0.00100675
0.000996042
0.000987576
0.000980319
0.000973643
0.000967235
0.000960999
0.00095498
0.000949307
0.000944145
0.000939675
0.00093607
0.000933548
0.000932335
0.000931997
0.000933229
0.00093617
0.000940737
0.000947117
0.000955404
0.00096574
0.000978266
0.000993148
0.00101058
0.00103077
0.00105401
0.00108059
0.00111089
0.00114532
0.00118433
0.00122841
0.00127795
0.00133323
0.00139419
0.00146022
0.00152989
0.00160066
0.0016688
0.00172967
0.00178057
0.0018193
0.00184172
0.00187732
0.00193409
0.00203772
0.00224917
0.00267296
0.00330779
0.00379827
0.00394837
0.00376244
0.00307527
0.00214544
0.0012672
0.000575523
8.41283e-05
0.000444947
0.00178615
0.00241389
0.00271902
0.00285124
0.00288648
0.00286538
0.00279487
0.00268471
0.00252904
0.00233565
0.00212439
0.00191658
0.00172822
0.00156597
0.00142939
0.00131579
0.00122303
0.00114941
0.00109298
0.00105127
0.00102128
0.000999968
0.000984582
0.000972906
0.000963329
0.000954791
0.000946684
0.000938729
0.000930872
0.000923191
0.000915834
0.000908981
0.000902811
0.000897496
0.000893188
0.000890027
0.000888377
0.00088779
0.000888481
0.000891124
0.000895367
0.000901426
0.000909379
0.000919352
0.000931473
0.000945892
0.000962782
0.000982346
0.00100483
0.00103052
0.00105978
0.00109302
0.00113073
0.0011735
0.00122191
0.00127654
0.00133783
0.00140587
0.00148011
0.00155897
0.00163944
0.00171678
0.00178471
0.00184013
0.00187462
0.00189073
0.00192154
0.00198093
0.00209277
0.00232926
0.00281184
0.00348807
0.0038404
0.0038801
0.00345408
0.00253212
0.00154327
0.000708445
0.000105486
0.000485935
0.00190703
0.00255085
0.00284971
0.00295978
0.00297091
0.00290717
0.0027889
0.0026333
0.00243519
0.002215
0.00199157
0.00178368
0.00160251
0.0014505
0.0013253
0.00122386
0.00114376
0.0010826
0.0010375
0.00100514
0.00098213
0.000965408
0.000952541
0.000941776
0.000931989
0.000922556
0.000913208
0.000903907
0.000894749
0.000885896
0.000877529
0.000869826
0.000862951
0.000857049
0.000852246
0.000848655
0.000846629
0.000845842
0.000846067
0.000848381
0.000852296
0.000858006
0.000865596
0.00087518
0.00088688
0.000900834
0.0009172
0.000936162
0.000957939
0.000982792
0.00101104
0.00104308
0.00107938
0.00112052
0.00116717
0.00122008
0.00128001
0.00134758
0.00142305
0.00150593
0.00159447
0.00168511
0.00177197
0.0018469
0.00190417
0.00193048
0.00194236
0.00196941
0.00203371
0.00216121
0.00244525
0.00301223
0.00364198
0.00388179
0.00370406
0.00291173
0.00183969
0.000850227
0.000127989
0.000521969
0.00201144
0.00266454
0.00295423
0.00304516
0.00302931
0.00292386
0.00276511
0.00256213
0.00233259
0.00209404
0.00186537
0.00166179
0.00148994
0.00134918
0.001236
0.00114698
0.00107909
0.00102906
0.000993189
0.000967712
0.000949208
0.000934938
0.000922945
0.000911978
0.000901352
0.000890776
0.000880212
0.000869759
0.000859581
0.000849859
0.000840767
0.000832461
0.000825077
0.000818734
0.000813537
0.000809581
0.00080714
0.000806088
0.000805948
0.000807801
0.000811339
0.000816643
0.000823818
0.000832972
0.000844225
0.000857709
0.000873571
0.00089198
0.000913133
0.000937261
0.000964646
0.000995636
0.00103066
0.00107025
0.00111508
0.00116592
0.00122369
0.00128934
0.0013637
0.0014472
0.00153938
0.00163822
0.00173939
0.00183557
0.00191644
0.00196997
0.00198753
0.00199477
0.00202089
0.00209282
0.00224771
0.00260923
0.0032628
0.00372147
0.00379601
0.00326401
0.00215124
0.000996351
0.000151461
0.000552249
0.0020982
0.0027546
0.00303343
0.00310853
0.00306267
0.00291805
0.0027179
0.00248026
0.00222674
0.00197687
0.00174812
0.00155174
0.00139048
0.00126149
0.00116046
0.00108342
0.00102655
0.000985779
0.000956897
0.000936056
0.000920123
0.000906838
0.000894753
0.000883063
0.000871422
0.000859765
0.000848183
0.000836836
0.0008259
0.000815544
0.000805916
0.000797145
0.000789342
0.000782604
0.000777021
0.000772677
0.000769717
0.000768294
0.0007679
0.000769156
0.000772247
0.000777082
0.000783784
0.000792461
0.000803233
0.000816229
0.000831594
0.000849484
0.000870082
0.000893594
0.000920269
0.00095041
0.000984393
0.00102269
0.0010659
0.00111479
0.00117026
0.00123342
0.00130544
0.00138737
0.00147981
0.00158226
0.00169224
0.00180426
0.00190883
0.00199215
0.00203395
0.00204423
0.00204715
0.00207571
0.00216066
0.00236395
0.00285201
0.00351461
0.00377998
0.00352841
0.0024674
0.00114415
0.000175773
0.000576336
0.00216733
0.00282209
0.00308915
0.0031496
0.00307418
0.00289792
0.00265892
0.0023926
0.00212166
0.0018661
0.00164097
0.00145361
0.00130358
0.00118645
0.00109716
0.00103108
0.000983618
0.000950095
0.000926153
0.000908163
0.000893449
0.000880263
0.000867615
0.000855053
0.000842459
0.0008299
0.000817525
0.000805504
0.000793998
0.000783151
0.000773084
0.0007639
0.000755692
0.000748542
0.000742532
0.00073774
0.000734245
0.000732358
0.000731681
0.000732273
0.000734841
0.000739151
0.000745327
0.000753481
0.000763734
0.000776219
0.000791077
0.000808461
0.000828542
0.000851512
0.000877594
0.000907055
0.00094022
0.0009775
0.00101942
0.00106665
0.00112007
0.00118076
0.00125001
0.00132926
0.00141982
0.00152242
0.00163642
0.00175868
0.00188233
0.00199574
0.00207123
0.00209719
0.00210008
0.00209709
0.00213473
0.00224335
0.00253672
0.00316135
0.00361206
0.00364533
0.00278561
0.00130536
0.000202287
0.000594174
0.00221953
0.00286842
0.00312325
0.00317022
0.00306818
0.00285987
0.00259168
0.00230289
0.00202019
0.00176325
0.00154426
0.00136695
0.00122834
0.00112272
0.00104435
0.000987858
0.00094802
0.000919887
0.000899219
0.000882795
0.000868445
0.000854898
0.000841532
0.000828138
0.000814742
0.000801471
0.000788486
0.000775943
0.000763979
0.000752709
0.000742232
0.000732637
0.000724002
0.000716404
0.000709921
0.000704632
0.000700617
0.000698162
0.000697146
0.000697091
0.000699048
0.000702791
0.000708403
0.000715997
0.0007257
0.000737645
0.000751974
0.000768842
0.000788414
0.000810875
0.000836432
0.000865324
0.000897838
0.000934331
0.000975253
0.00102119
0.00107292
0.00113145
0.00119806
0.00127431
0.00136192
0.00146245
0.00157665
0.00170335
0.001838
0.00197098
0.00208639
0.00214822
0.00216054
0.00215072
0.00214226
0.00219713
0.00236139
0.00281931
0.00345532
0.00366652
0.00309929
0.00150483
0.000236101
0.000606052
0.00225583
0.00289463
0.003136
0.00316996
0.0030491
0.00281218
0.00251978
0.002214
0.00192417
0.00166906
0.00145784
0.00129104
0.00116362
0.00106885
0.00100025
0.000951819
0.000917927
0.000893618
0.000874976
0.000859264
0.000844799
0.000830704
0.000816627
0.000802518
0.000788475
0.000774644
0.000761174
0.000748197
0.000735825
0.000724154
0.000713267
0.000703241
0.000694154
0.00068608
0.0006791
0.000673296
0.000668757
0.000665616
0.000664083
0.000663661
0.000664897
0.000668047
0.000673072
0.000680082
0.000689207
0.000700584
0.000714358
0.000730685
0.000749733
0.000771683
0.000796734
0.000825111
0.000857074
0.000892937
0.000933091
0.000978043
0.00102846
0.00108524
0.00114958
0.001223
0.00130741
0.00140487
0.00151722
0.00164517
0.00178685
0.00193587
0.00207946
0.00218171
0.00221925
0.00222056
0.0021952
0.00218898
0.00227674
0.00254839
0.00318195
0.00355853
0.00335123
0.00175861
0.000281836
0.00061202
0.00227654
0.00290184
0.00313287
0.00315897
0.00301515
0.00275727
0.00244596
0.002128
0.00183474
0.00158373
0.00138121
0.00122495
0.00110821
0.00102335
0.000963239
0.000921371
0.000891959
0.000870249
0.000852758
0.000837236
0.000822422
0.000807743
0.000793033
0.000778334
0.000763771
0.000749484
0.000735601
0.000722233
0.000709471
0.000697397
0.000686087
0.000675616
0.000666059
0.000657494
0.000650003
0.00064367
0.000638583
0.000634828
0.000632724
0.000631958
0.000632484
0.000635026
0.000639456
0.000645871
0.000654402
0.000665187
0.000678377
0.000694132
0.000712623
0.000734034
0.000758564
0.000786431
0.000817882
0.000853202
0.000892737
0.000936926
0.000986344
0.00104177
0.00110425
0.00117523
0.00125657
0.00135054
0.0014596
0.00158572
0.00172909
0.00188612
0.002047
0.00219358
0.0022734
0.00228871
0.00226239
0.00222947
0.00224948
0.00240233
0.00289259
0.00341568
0.00347175
0.00206304
0.000339523
0.000611684
0.00228445
0.00289703
0.00311859
0.0031333
0.00297223
0.0026978
0.00237238
0.00204632
0.0017525
0.00150712
0.00131372
0.00116768
0.00106089
0.000984872
0.000931931
0.000895267
0.000869134
0.000849117
0.000832197
0.00081657
0.00080132
0.000786094
0.000770844
0.000755658
0.000740662
0.000725982
0.000711726
0.000697983
0.000684834
0.000672353
0.000660615
0.000649693
0.000639666
0.000630614
0.000622621
0.000615774
0.000610158
0.000605863
0.000603164
0.000602029
0.000601951
0.000603868
0.000607706
0.000613528
0.000621456
0.000631634
0.000644214
0.000659362
0.000677256
0.000698086
0.000722054
0.000749383
0.000780313
0.000815115
0.000854107
0.000897676
0.000946321
0.00100071
0.00106176
0.00113075
0.00120944
0.00130012
0.00140558
0.00152872
0.00167154
0.0018333
0.00200776
0.00218046
0.00230783
0.00235329
0.0023484
0.00228214
0.00225248
0.00232637
0.00264557
0.00327542
0.0035024
0.00240732
0.00040677
0.000608481
0.0022825
0.00288113
0.0030891
0.003095
0.00292222
0.00263585
0.00230064
0.0019699
0.00167767
0.00143885
0.00125458
0.00111824
0.0010205
0.000952199
0.000905198
0.000872575
0.000848785
0.000829816
0.000813102
0.000797222
0.000781525
0.000765812
0.000750104
0.000734505
0.000719134
0.000704097
0.000689484
0.000675375
0.000661842
0.000648958
0.000636797
0.000625436
0.000614958
0.000605444
0.000596981
0.000589657
0.000583563
0.00057879
0.000575475
0.00057386
0.000573437
0.000574711
0.000577972
0.00058321
0.000590538
0.000600099
0.00061205
0.000626561
0.000643816
0.000664014
0.000687368
0.000714107
0.000744475
0.00077874
0.000817206
0.000860227
0.000908242
0.000961828
0.00102178
0.0010892
0.00116569
0.0012534
0.0013552
0.00147446
0.00161439
0.00177648
0.00195765
0.00214659
0.00232026
0.00241131
0.00242652
0.00237497
0.0023031
0.00230034
0.00247643
0.00304915
0.00342349
0.00275319
0.000476884
0.000601361
0.00227386
0.00285137
0.00304901
0.003048
0.00286716
0.00257306
0.00223191
0.0018993
0.00161021
0.00137842
0.00120301
0.00107566
0.000986018
0.000924324
0.000882159
0.000852622
0.000830465
0.000812103
0.000795377
0.000779179
0.000763059
0.000746918
0.000730815
0.000714856
0.000699144
0.00068377
0.000668814
0.000654347
0.000640439
0.000627166
0.000614603
0.000602832
0.000591936
0.000582001
0.000573114
0.000565362
0.000558834
0.000553616
0.000549799
0.000547703
0.000546981
0.000547668
0.000550377
0.000555049
0.000561787
0.000570731
0.00058204
0.000595888
0.000612467
0.000631986
0.000654668
0.000680754
0.0007105
0.00074418
0.000782095
0.000824581
0.00087204
0.000924979
0.000984079
0.0010503
0.00112504
0.00121028
0.0013088
0.00142416
0.00156044
0.00172101
0.00190611
0.00210906
0.00231177
0.00245398
0.00249752
0.00247325
0.00235798
0.00230574
0.00239246
0.0028337
0.00328588
0.0030292
0.000533972
0.000590269
0.00225558
0.0028127
0.00300147
0.00299419
0.00280878
0.00251074
0.00216699
0.00183479
0.0015499
0.00132526
0.00115822
0.00103905
0.000956533
0.000900421
0.000862139
0.000834926
0.000813882
0.00079583
0.000778968
0.000762435
0.000745925
0.000729407
0.000712955
0.000696668
0.000680638
0.000664944
0.000649657
0.000634848
0.000620587
0.00060695
0.00059402
0.000581879
0.000570612
0.000560308
0.000551052
0.000542929
0.000536023
0.000530417
0.000526193
0.000523638
0.000522633
0.000522819
0.000525005
0.000529136
0.000535302
0.000543636
0.000554298
0.000567466
0.00058334
0.000602137
0.000624093
0.000649463
0.000678518
0.000711548
0.000748859
0.000790786
0.000837708
0.000890084
0.000948507
0.00101381
0.00108718
0.00117041
0.00126605
0.00137766
0.00150966
0.00166665
0.00185128
0.0020605
0.0022804
0.00247351
0.00256127
0.00256642
0.00246323
0.00235226
0.00235241
0.00265696
0.0031575
0.00316082
0.000560445
0.0005758
0.00223046
0.0027671
0.00294783
0.00293555
0.00274852
0.00244988
0.00210642
0.00177644
0.00149645
0.00127878
0.00111948
0.00100764
0.000931289
0.000879829
0.00084463
0.000819146
0.000798839
0.000780904
0.000763837
0.000746973
0.000730109
0.000713251
0.000696482
0.000679893
0.000663563
0.000647565
0.000631968
0.000616839
0.000602254
0.000588293
0.000575038
0.000562577
0.000550996
0.000540381
0.000530817
0.000522385
0.000515167
0.00050924
0.000504683
0.000501701
0.000500381
0.000500213
0.000501898
0.000505517
0.000511132
0.00051887
0.00052889
0.000541372
0.00055652
0.000574561
0.000595745
0.000620341
0.000648639
0.000680947
0.000717587
0.000758904
0.000805271
0.000857116
0.000914969
0.000979548
0.00105189
0.00113353
0.00122682
0.00133511
0.001463
0.00161593
0.00179866
0.00201189
0.00224649
0.00247703
0.00261731
0.00264826
0.00257546
0.00240158
0.00234182
0.00249856
0.00304998
0.00319805
0.00056509
0.00055877
0.00220068
0.0027163
0.00288958
0.00287368
0.00268755
0.00239121
0.00205047
0.00172417
0.00144945
0.00123841
0.00108612
0.000980728
0.000909652
0.000862024
0.00082925
0.000805037
0.000785197
0.000767255
0.000749951
0.000732769
0.000715579
0.000698412
0.000681352
0.00066448
0.00064787
0.00063159
0.000615706
0.00060029
0.00058542
0.000571177
0.000557649
0.000544923
0.000533085
0.000522221
0.000512411
0.000503734
0.000496266
0.00049008
0.000485251
0.000481883
0.000480231
0.000479823
0.00048105
0.000484188
0.00048928
0.000496442
0.000505831
0.000517629
0.000532042
0.000549307
0.000569683
0.000593458
0.000620939
0.000652457
0.000688356
0.000728999
0.000774766
0.000826074
0.000883412
0.000947409
0.00101895
0.00109938
0.00119075
0.00129618
0.00142014
0.00156846
0.00174735
0.0019605
0.0022037
0.00245795
0.00265592
0.00272229
0.00268852
0.0025006
0.00236827
0.00242136
0.0028811
0.00316985
0.000553711
0.000539849
0.00216801
0.00266193
0.00282814
0.00280994
0.00262685
0.00233525
0.0019993
0.0016778
0.00140852
0.00120362
0.00105755
0.000957732
0.000891099
0.000846593
0.000815708
0.000792416
0.000772853
0.000754825
0.000737272
0.000719789
0.000702297
0.000684846
0.000667515
0.000650382
0.000633513
0.000616976
0.000600838
0.000585173
0.000570061
0.000555587
0.000541839
0.000528904
0.000516868
0.000505814
0.000495817
0.000486953
0.000479289
0.000472894
0.000467833
0.000464174
0.000462205
0.000461585
0.000462412
0.000465107
0.000469705
0.000476316
0.000485093
0.000496217
0.000509898
0.000526377
0.000545925
0.000568844
0.00059546
0.000626128
0.000661219
0.00070112
0.000746231
0.000796972
0.000853811
0.000917313
0.000988246
0.00106776
0.00115764
0.00126071
0.00138121
0.0015251
0.00169956
0.00191071
0.0021583
0.00242746
0.0026739
0.00278762
0.00278827
0.00261746
0.00241204
0.00238937
0.00273057
0.00309601
0.000534113
0.000519686
0.0021332
0.00260521
0.00276473
0.00274542
0.00256714
0.00228234
0.00195289
0.00163708
0.00137324
0.00117389
0.00103323
0.000938151
0.000875204
0.000833211
0.000803781
0.000781145
0.000761724
0.000743563
0.000725758
0.000707991
0.000690222
0.000672508
0.000654928
0.000637554
0.000620453
0.000603689
0.000587333
0.00057146
0.000556152
0.000541497
0.000527582
0.000514494
0.000502316
0.000491126
0.000480997
0.000471996
0.000464187
0.000457628
0.000452379
0.000448499
0.000446239
0.000445422
0.000445903
0.000448193