/*--------------------------------*- C++ -*----------------------------------*\
  =========                 |
  \\      /  F ield         | OpenFOAM: The Open Source CFD Toolbox
   \\    /   O peration     | Website:  https://openfoam.org
    \\  /    A nd           | Version:  13
     \\/     M anipulation  |
\*---------------------------------------------------------------------------*/
FoamFile
{
    format      ascii;
    class       volScalarField;
    location    "8.8";
    object      nut;
}
// * * * * * * * * * * * * * * * * * * * * * * * * * * * * * * * * * * * * * //

dimensions      [0 2 -1 0 0 0 0];

internalField   nonuniform List<scalar> 
6400
(
9.89493e-10
5.08179e-09
1.2356e-08
1.98993e-08
2.55758e-08
2.87581e-08
2.99153e-08
3.00393e-08
3.02455e-08
3.13959e-08
3.41587e-08
3.95115e-08
4.79251e-08
5.95489e-08
7.3756e-08
8.97504e-08
1.06706e-07
1.2431e-07
1.41709e-07
1.58522e-07
1.7547e-07
1.94024e-07
2.16136e-07
2.42887e-07
2.73069e-07
3.03423e-07
3.33629e-07
3.63632e-07
3.94379e-07
4.26674e-07
4.6006e-07
4.93432e-07
5.26265e-07
5.58678e-07
5.91469e-07
6.24843e-07
6.59469e-07
6.95561e-07
7.33549e-07
7.73539e-07
8.15821e-07
8.60724e-07
9.08492e-07
9.59667e-07
1.01471e-06
1.07556e-06
1.14583e-06
1.23329e-06
1.31999e-06
1.40873e-06
1.49533e-06
1.57941e-06
1.65815e-06
1.72944e-06
1.79062e-06
1.83846e-06
1.86242e-06
1.87188e-06
1.867e-06
1.83033e-06
1.7662e-06
1.67499e-06
1.55764e-06
1.41943e-06
1.26192e-06
1.09398e-06
9.23601e-07
7.57202e-07
6.00871e-07
4.62038e-07
3.48818e-07
2.53789e-07
1.77022e-07
1.1837e-07
7.61343e-08
4.73363e-08
2.85353e-08
1.64075e-08
7.76435e-09
1.65479e-09
4.78088e-09
3.35711e-07
1.20689e-06
2.03347e-06
2.64408e-06
3.00393e-06
3.17069e-06
3.23218e-06
3.27346e-06
3.35719e-06
3.5602e-06
3.94831e-06
4.4892e-06
5.11396e-06
5.75841e-06
6.3602e-06
6.87432e-06
7.25256e-06
7.48304e-06
7.58298e-06
7.63652e-06
7.7086e-06
7.86717e-06
8.13661e-06
8.45273e-06
8.65908e-06
8.86384e-06
9.09895e-06
9.41154e-06
9.83935e-06
1.03855e-05
1.09865e-05
1.16365e-05
1.23071e-05
1.3016e-05
1.37489e-05
1.45145e-05
1.53074e-05
1.61343e-05
1.69899e-05
1.78679e-05
1.87749e-05
1.97105e-05
2.06953e-05
2.16948e-05
2.26743e-05
2.3609e-05
2.44411e-05
2.5316e-05
2.61946e-05
2.7085e-05
2.7965e-05
2.88217e-05
2.96334e-05
3.03783e-05
3.11099e-05
3.15537e-05
3.185e-05
3.20355e-05
3.19995e-05
3.16252e-05
3.09508e-05
2.9943e-05
2.85992e-05
2.69158e-05
2.49503e-05
2.27982e-05
2.04802e-05
1.80297e-05
1.53632e-05
1.24597e-05
9.66365e-06
7.19798e-06
5.16778e-06
3.58891e-06
2.4453e-06
1.6384e-06
1.06166e-06
4.81243e-07
8.75454e-09
1.04559e-08
8.66336e-07
3.49379e-06
6.06324e-06
8.03099e-06
9.31195e-06
1.00374e-05
1.04114e-05
1.06427e-05
1.09117e-05
1.13507e-05
1.20339e-05
1.29317e-05
1.39425e-05
1.4937e-05
1.58078e-05
1.65055e-05
1.70059e-05
1.73093e-05
1.74324e-05
1.73983e-05
1.73062e-05
1.72344e-05
1.72211e-05
1.73018e-05
1.75676e-05
1.78894e-05
1.82187e-05
1.8575e-05
1.89531e-05
1.94532e-05
2.01533e-05
2.11483e-05
2.21631e-05
2.33114e-05
2.45153e-05
2.57987e-05
2.7099e-05
2.84567e-05
2.99077e-05
3.13068e-05
3.27559e-05
3.4163e-05
3.55019e-05
3.67792e-05
3.8034e-05
3.92523e-05
4.04777e-05
4.17128e-05
4.29454e-05
4.417e-05
4.53729e-05
4.65388e-05
4.76469e-05
4.86701e-05
4.95728e-05
5.03707e-05
5.08909e-05
5.11263e-05
5.12839e-05
5.11045e-05
5.06056e-05
4.97352e-05
4.8393e-05
4.64896e-05
4.40503e-05
4.12658e-05
3.81212e-05
3.46305e-05
3.08288e-05
2.67716e-05
2.25987e-05
1.8509e-05
1.47046e-05
1.13562e-05
8.52129e-06
6.26954e-06
4.32861e-06
1.80765e-06
2.34458e-08
1.81697e-08
1.41921e-06
5.47161e-06
9.3386e-06
1.23302e-05
1.43882e-05
1.56707e-05
1.64042e-05
1.68487e-05
1.7232e-05
1.77499e-05
1.85217e-05
1.95217e-05
2.06083e-05
2.16211e-05
2.24461e-05
2.30254e-05
2.33573e-05
2.34733e-05
2.34334e-05
2.33058e-05
2.32001e-05
2.31834e-05
2.32945e-05
2.33544e-05
2.337e-05
2.33625e-05
2.37714e-05
2.45187e-05
2.55156e-05
2.68033e-05
2.80256e-05
2.92395e-05
3.05324e-05
3.18575e-05
3.31546e-05
3.44613e-05
3.58353e-05
3.71247e-05
3.84119e-05
3.96425e-05
4.0858e-05
4.20219e-05
4.31484e-05
4.42272e-05
4.52807e-05
4.63346e-05
4.73893e-05
4.84416e-05
4.94856e-05
5.05148e-05
5.15187e-05
5.24846e-05
5.33956e-05
5.42321e-05
5.49705e-05
5.55852e-05
5.60526e-05
5.62943e-05
5.63524e-05
5.61914e-05
5.56637e-05
5.48938e-05
5.40948e-05
5.27858e-05
5.08439e-05
4.84537e-05
4.5577e-05
4.22853e-05
3.86252e-05
3.46405e-05
3.03972e-05
2.60037e-05
2.16247e-05
1.74647e-05
1.36873e-05
1.04022e-05
7.30803e-06
3.03748e-06
3.91005e-08
2.91751e-08
2.13172e-06
7.59803e-06
1.25704e-05
1.62817e-05
1.87843e-05
2.0321e-05
2.11809e-05
2.16802e-05
2.21397e-05
2.28108e-05
2.37748e-05
2.49258e-05
2.60661e-05
2.70202e-05
2.76907e-05
2.80596e-05
2.81691e-05
2.80766e-05
2.79044e-05
2.76598e-05
2.74911e-05
2.73378e-05
2.67233e-05
2.6675e-05
2.72131e-05
2.81645e-05
2.93063e-05
3.04661e-05
3.17716e-05
3.3052e-05
3.42881e-05
3.55048e-05
3.66882e-05
3.7779e-05
3.88018e-05
3.98315e-05
4.07771e-05
4.16e-05
4.23725e-05
4.30615e-05
4.37019e-05
4.43047e-05
4.49026e-05
4.55178e-05
4.61464e-05
4.67727e-05
4.74074e-05
4.80519e-05
4.87101e-05
4.93832e-05
5.00718e-05
5.07739e-05
5.14851e-05
5.21986e-05
5.2902e-05
5.35752e-05
5.41893e-05
5.47115e-05
5.5085e-05
5.52296e-05
5.51216e-05
5.45749e-05
5.34728e-05
5.26768e-05
5.15025e-05
4.96832e-05
4.73677e-05
4.46175e-05
4.14828e-05
3.79995e-05
3.41926e-05
3.00975e-05
2.58036e-05
2.15176e-05
1.74081e-05
1.35466e-05
9.54386e-06
3.89804e-06
4.99717e-08
4.48958e-08
3.09028e-06
1.01088e-05
1.61031e-05
2.03219e-05
2.30084e-05
2.45547e-05
2.53746e-05
2.58922e-05
2.64826e-05
2.73533e-05
2.84811e-05
2.96804e-05
3.07337e-05
3.14883e-05
3.18853e-05
3.19446e-05
3.17948e-05
3.1382e-05
3.10675e-05
3.05436e-05
2.96762e-05
2.95384e-05
3.02546e-05
3.12251e-05
3.22435e-05
3.34095e-05
3.45745e-05
3.56941e-05
3.67665e-05
3.77032e-05
3.85687e-05
3.93665e-05
4.00519e-05
4.06009e-05
4.10815e-05
4.1467e-05
4.18474e-05
4.2122e-05
4.23667e-05
4.25781e-05
4.27791e-05
4.29661e-05
4.31413e-05
4.33139e-05
4.3481e-05
4.36511e-05
4.38312e-05
4.40311e-05
4.42615e-05
4.45338e-05
4.486e-05
4.52525e-05
4.57191e-05
4.62589e-05
4.68765e-05
4.75716e-05
4.83193e-05
4.90857e-05
4.98178e-05
5.05263e-05
5.09421e-05
5.10865e-05
5.08964e-05
5.00841e-05
4.95987e-05
4.83916e-05
4.66339e-05
4.4385e-05
4.17304e-05
3.87425e-05
3.54539e-05
3.18467e-05
2.78929e-05
2.37409e-05
1.95222e-05
1.5382e-05
1.08737e-05
4.31524e-06
5.40355e-08
6.67146e-08
4.33804e-06
1.30333e-05
1.99338e-05
2.44644e-05
2.7142e-05
2.85557e-05
2.92766e-05
2.98219e-05
3.05489e-05
3.15587e-05
3.27234e-05
3.3815e-05
3.46345e-05
3.50798e-05
3.51507e-05
3.46904e-05
3.42448e-05
3.37857e-05
3.26042e-05
3.22764e-05
3.27724e-05
3.36323e-05
3.44187e-05
3.53148e-05
3.62137e-05
3.7119e-05
3.79011e-05
3.85767e-05
3.91605e-05
3.96647e-05
4.00876e-05
4.04076e-05
4.06348e-05
4.07849e-05
4.08843e-05
4.09343e-05
4.09558e-05
4.09141e-05
4.08822e-05
4.08559e-05
4.07602e-05
4.06858e-05
4.05756e-05
4.04731e-05
4.03477e-05
4.02222e-05
4.00875e-05
3.99555e-05
3.9833e-05
3.9736e-05
3.96824e-05
3.97022e-05
3.98384e-05
4.0094e-05
4.04791e-05
4.10591e-05
4.18273e-05
4.27461e-05
4.37561e-05
4.48498e-05
4.58867e-05
4.6798e-05
4.72232e-05
4.73084e-05
4.68106e-05
4.65447e-05
4.5339e-05
4.3491e-05
4.11295e-05
3.83993e-05
3.54173e-05
3.22192e-05
2.87142e-05
2.47855e-05
2.07247e-05
1.63138e-05
1.11775e-05
4.30672e-06
5.25151e-08
9.59079e-08
5.8936e-06
1.62985e-05
2.39549e-05
2.86173e-05
3.11556e-05
3.23734e-05
3.29899e-05
3.35606e-05
3.43655e-05
3.53888e-05
3.64301e-05
3.72551e-05
3.77001e-05
3.77187e-05
3.72022e-05
3.67356e-05
3.56896e-05
3.49526e-05
3.49256e-05
3.54782e-05
3.58764e-05
3.65136e-05
3.71266e-05
3.78637e-05
3.84828e-05
3.90289e-05
3.94385e-05
3.97571e-05
3.99846e-05
4.01368e-05
4.0219e-05
4.02404e-05
4.02202e-05
4.01715e-05
4.01064e-05
4.00258e-05
3.99346e-05
3.9832e-05
3.97321e-05
3.95767e-05
3.94677e-05
3.9396e-05
3.91712e-05
3.90346e-05
3.88391e-05
3.86503e-05
3.84374e-05
3.82133e-05
3.79696e-05
3.77075e-05
3.74233e-05
3.71145e-05
3.67758e-05
3.64766e-05
3.63143e-05
3.6331e-05
3.66803e-05
3.73963e-05
3.83066e-05
3.9534e-05
4.08753e-05
4.22847e-05
4.36097e-05
4.43512e-05
4.44973e-05
4.43736e-05
4.42526e-05
4.28799e-05
4.07734e-05
3.81221e-05
3.51441e-05
3.20204e-05
2.88002e-05
2.52551e-05
2.12169e-05
1.6832e-05
1.13588e-05
4.19666e-06
4.88531e-08
1.3336e-07
7.73856e-06
1.98122e-05
2.80104e-05
3.26876e-05
3.50143e-05
3.60161e-05
3.65253e-05
3.70809e-05
3.7861e-05
3.87565e-05
3.95359e-05
3.99934e-05
3.9854e-05
3.93711e-05
3.88748e-05
3.75668e-05
3.70767e-05
3.71386e-05
3.72105e-05
3.74857e-05
3.79147e-05
3.84243e-05
3.8878e-05
3.93129e-05
3.96075e-05
3.98218e-05
3.9934e-05
3.99907e-05
3.99953e-05
3.99713e-05
3.99282e-05
3.98798e-05
3.9835e-05
3.97961e-05
3.97633e-05
3.97344e-05
3.97069e-05
3.9675e-05
3.96159e-05
3.95739e-05
3.95454e-05
3.94402e-05
3.93391e-05
3.92312e-05
3.90882e-05
3.8931e-05
3.87441e-05
3.85313e-05
3.82868e-05
3.80091e-05
3.76916e-05
3.73283e-05
3.6915e-05
3.64399e-05
3.58987e-05
3.52943e-05
3.46439e-05
3.41642e-05
3.4338e-05
3.51569e-05
3.6327e-05
3.7884e-05
3.95488e-05
4.12159e-05
4.22136e-05
4.24343e-05
4.25636e-05
4.25494e-05
4.09137e-05
3.84413e-05
3.53806e-05
3.20339e-05
2.86545e-05
2.52373e-05
2.14159e-05
1.6878e-05
1.11093e-05
3.90747e-06
4.46728e-08
1.79403e-07
9.7907e-06
2.34009e-05
3.20195e-05
3.66181e-05
3.86925e-05
3.94676e-05
3.98445e-05
4.03102e-05
4.0947e-05
4.15863e-05
4.20009e-05
4.17547e-05
4.1209e-05
4.06297e-05
3.95503e-05
3.9002e-05
3.8775e-05
3.85488e-05
3.87052e-05
3.89524e-05
3.92665e-05
3.95581e-05
3.97692e-05
3.9917e-05
3.9966e-05
3.99746e-05
3.99443e-05
3.99142e-05
3.9889e-05
3.98861e-05
3.99061e-05
3.99516e-05
4.00173e-05
4.00966e-05
4.01811e-05
4.02594e-05
4.03351e-05
4.03794e-05
4.04006e-05
4.04336e-05
4.04064e-05
4.03595e-05
4.0287e-05
4.01887e-05
4.00615e-05
3.9912e-05
3.97381e-05
3.95444e-05
3.93253e-05
3.90769e-05
3.87916e-05
3.8458e-05
3.8058e-05
3.75887e-05
3.70217e-05
3.63414e-05
3.55387e-05
3.46399e-05
3.37003e-05
3.27849e-05
3.28733e-05
3.3965e-05
3.54735e-05
3.74247e-05
3.93649e-05
4.06165e-05
4.09316e-05
4.11528e-05
4.11548e-05
3.91972e-05
3.62931e-05
3.27533e-05
2.89619e-05
2.52206e-05
2.13716e-05
1.68294e-05
1.08314e-05
3.62836e-06
4.1204e-08
2.3491e-07
1.18785e-05
2.69271e-05
3.58946e-05
4.03631e-05
4.21629e-05
4.26927e-05
4.28875e-05
4.31708e-05
4.35494e-05
4.38279e-05
4.34925e-05
4.2854e-05
4.21983e-05
4.1278e-05
4.06224e-05
4.00305e-05
3.9735e-05
3.96184e-05
3.97347e-05
3.98584e-05
3.99887e-05
4.00603e-05
4.00724e-05
4.00492e-05
4.00003e-05
3.99718e-05
3.99695e-05
4.00153e-05
4.01041e-05
4.02369e-05
4.04016e-05
4.05884e-05
4.07839e-05
4.09749e-05
4.11848e-05
4.13251e-05
4.14089e-05
4.15662e-05
4.16227e-05
4.16727e-05
4.16703e-05
4.16435e-05
4.15787e-05
4.1482e-05
4.13514e-05
4.119e-05
4.0997e-05
4.07742e-05
4.05213e-05
4.02394e-05
3.9929e-05
3.95902e-05
3.92221e-05
3.88217e-05
3.83624e-05
3.77954e-05
3.70703e-05
3.61717e-05
3.50883e-05
3.38723e-05
3.26702e-05
3.16071e-05
3.20658e-05
3.36188e-05
3.56549e-05
3.78322e-05
3.93402e-05
3.97452e-05
3.99473e-05
3.98307e-05
3.74972e-05
3.41146e-05
3.00567e-05
2.5767e-05
2.15321e-05
1.68028e-05
1.08048e-05
3.54986e-06
3.99047e-08
3.02317e-07
1.38086e-05
3.02992e-05
3.95778e-05
4.3887e-05
4.53943e-05
4.56471e-05
4.55934e-05
4.55986e-05
4.56189e-05
4.51756e-05
4.44253e-05
4.37148e-05
4.28716e-05
4.21045e-05
4.1187e-05
4.06967e-05
4.04273e-05
4.03154e-05
4.0315e-05
4.02887e-05
4.02564e-05
4.01899e-05
4.01224e-05
4.00806e-05
4.00848e-05
4.01579e-05
4.02953e-05
4.04965e-05
4.07439e-05
4.10252e-05
4.13219e-05
4.16207e-05
4.19361e-05
4.22218e-05
4.241e-05
4.25987e-05
4.28084e-05
4.29545e-05
4.30508e-05
4.31177e-05
4.31393e-05
4.31265e-05
4.30728e-05
4.29822e-05
4.28535e-05
4.26886e-05
4.24876e-05
4.22515e-05
4.19806e-05
4.16753e-05
4.13349e-05
4.0958e-05
4.05427e-05
4.00867e-05
3.95883e-05
3.90458e-05
3.84536e-05
3.77423e-05
3.68185e-05
3.56339e-05
3.42429e-05
3.27573e-05
3.14136e-05
3.07388e-05
3.2141e-05
3.41165e-05
3.65447e-05
3.82309e-05
3.86897e-05
3.87992e-05
3.83867e-05
3.56127e-05
3.17122e-05
2.71225e-05
2.22665e-05
1.71798e-05
1.10295e-05
3.6872e-06
4.12331e-08
3.77097e-07
1.57192e-05
3.35055e-05
4.30356e-05
4.71605e-05
4.83545e-05
4.82877e-05
4.79127e-05
4.75503e-05
4.69285e-05
4.603e-05
4.52788e-05
4.43995e-05
4.34979e-05
4.23574e-05
4.15777e-05
4.11293e-05
4.08424e-05
4.06694e-05
4.05454e-05
4.04126e-05
4.03048e-05
4.0223e-05
4.0207e-05
4.02718e-05
4.04249e-05
4.06632e-05
4.09685e-05
4.13245e-05
4.17089e-05
4.21056e-05
4.24987e-05
4.28986e-05
4.32612e-05
4.35605e-05
4.38201e-05
4.40619e-05
4.43014e-05
4.44798e-05
4.4609e-05
4.47002e-05
4.47472e-05
4.47528e-05
4.47149e-05
4.46347e-05
4.4512e-05
4.43476e-05
4.41421e-05
4.38967e-05
4.36121e-05
4.3289e-05
4.29274e-05
4.25261e-05
4.20823e-05
4.15919e-05
4.10489e-05
4.04479e-05
3.97857e-05
3.90646e-05
3.82845e-05
3.73385e-05
3.61053e-05
3.45945e-05
3.29016e-05
3.12389e-05
2.9968e-05
3.08467e-05
3.28365e-05
3.5416e-05
3.71894e-05
3.763e-05
3.75931e-05
3.66584e-05
3.33573e-05
2.89499e-05
2.37534e-05
1.8183e-05
1.18015e-05
4.13562e-06
4.70243e-08
4.57119e-07
1.7573e-05
3.65027e-05
4.62349e-05
5.01577e-05
5.10166e-05
5.0583e-05
4.98144e-05
4.88967e-05
4.77803e-05
4.69793e-05
4.59041e-05
4.48709e-05
4.35516e-05
4.24994e-05
4.17995e-05
4.13456e-05
4.10147e-05
4.07737e-05
4.05788e-05
4.04264e-05
4.03523e-05
4.03668e-05
4.04936e-05
4.07266e-05
4.10545e-05
4.1456e-05
4.19064e-05
4.23848e-05
4.28714e-05
4.33524e-05
4.38162e-05
4.42553e-05
4.46629e-05
4.50309e-05
4.5345e-05
4.56365e-05
4.58701e-05
4.6108e-05
4.62807e-05
4.64008e-05
4.64774e-05
4.65061e-05
4.64867e-05
4.64186e-05
4.63016e-05
4.61359e-05
4.59224e-05
4.56623e-05
4.53574e-05
4.50098e-05
4.46213e-05
4.41931e-05
4.37246e-05
4.32126e-05
4.26506e-05
4.20283e-05
4.13333e-05
4.05545e-05
3.96897e-05
3.87536e-05
3.77229e-05
3.6437e-05
3.48022e-05
3.29523e-05
3.10718e-05
2.95748e-05
2.97786e-05
3.175e-05
3.44105e-05
3.61407e-05
3.64392e-05
3.62674e-05
3.44436e-05
3.0689e-05
2.56235e-05
1.97585e-05
1.30464e-05
4.9875e-06
6.11409e-08
5.39762e-07
1.93275e-05
3.9251e-05
4.91508e-05
5.2861e-05
5.33691e-05
5.25326e-05
5.12646e-05
4.98562e-05
4.89346e-05
4.74928e-05
4.63203e-05
4.48169e-05
4.35123e-05
4.25356e-05
4.18673e-05
4.13879e-05
4.10229e-05
4.07566e-05
4.05738e-05
4.04949e-05
4.05432e-05
4.07196e-05
4.10227e-05
4.14279e-05
4.19117e-05
4.24461e-05
4.30075e-05
4.35772e-05
4.414e-05
4.46857e-05
4.52063e-05
4.56965e-05
4.61519e-05
4.65694e-05
4.69625e-05
4.73152e-05
4.75745e-05
4.78121e-05
4.80662e-05
4.82227e-05
4.83313e-05
4.83879e-05
4.83889e-05
4.83346e-05
4.82231e-05
4.80546e-05
4.78292e-05
4.75484e-05
4.72142e-05
4.683e-05
4.63995e-05
4.5927e-05
4.54161e-05
4.48683e-05
4.42816e-05
4.36486e-05
4.29545e-05
4.2178e-05
4.12945e-05
4.02865e-05
3.91612e-05
3.79191e-05
3.65149e-05
3.48223e-05
3.28442e-05
3.08352e-05
2.90936e-05
2.88815e-05
3.07895e-05
3.35244e-05
3.50198e-05
3.50519e-05
3.47055e-05
3.18953e-05
2.73331e-05
2.15308e-05
1.45914e-05
5.98706e-06
8.39888e-08
6.22652e-07
2.09447e-05
4.17252e-05
5.17733e-05
5.52614e-05
5.54216e-05
5.40854e-05
5.24445e-05
5.11818e-05
4.93546e-05
4.79318e-05
4.6229e-05
4.46664e-05
4.34028e-05
4.24772e-05
4.18161e-05
4.1324e-05
4.09665e-05
4.07421e-05
4.06521e-05
4.07148e-05
4.09314e-05
4.1286e-05
4.17562e-05
4.23092e-05
4.29176e-05
4.35553e-05
4.42032e-05
4.48467e-05
4.54755e-05
4.60825e-05
4.66623e-05
4.72115e-05
4.7727e-05
4.82066e-05
4.86483e-05
4.9062e-05
4.94224e-05
4.96594e-05
4.99295e-05
5.01714e-05
5.03023e-05
5.03927e-05
5.04158e-05
5.03776e-05
5.02738e-05
5.01042e-05
4.98681e-05
4.95659e-05
4.91996e-05
4.87722e-05
4.82885e-05
4.77548e-05
4.71782e-05
4.65661e-05
4.59237e-05
4.52524e-05
4.45457e-05
4.37866e-05
4.29452e-05
4.19813e-05
4.08545e-05
3.95513e-05
3.80996e-05
3.63719e-05
3.45989e-05
3.25767e-05
3.04714e-05
2.85261e-05
2.81087e-05
2.99515e-05
3.2606e-05
3.3949e-05
3.34024e-05
3.23477e-05
2.8533e-05
2.31028e-05
1.61841e-05
7.02221e-06
1.13518e-07
7.03948e-07
2.23776e-05
4.39238e-05
5.41402e-05
5.73283e-05
5.69621e-05
5.538e-05
5.36712e-05
5.15759e-05
4.97942e-05
4.78681e-05
4.60293e-05
4.44576e-05
4.32394e-05
4.23479e-05
4.16986e-05
4.12317e-05
4.09378e-05
4.08193e-05
4.08776e-05
4.11128e-05
4.15042e-05
4.20221e-05
4.26338e-05
4.33064e-05
4.40144e-05
4.4737e-05
4.546e-05
4.61728e-05
4.68684e-05
4.75415e-05
4.8188e-05
4.88042e-05
4.93866e-05
4.99318e-05
5.04358e-05
5.09011e-05
5.13333e-05
5.16196e-05
5.18851e-05
5.22116e-05
5.23681e-05
5.24906e-05
5.25376e-05
5.25177e-05
5.24255e-05
5.22598e-05
5.20189e-05
5.1702e-05
5.13097e-05
5.08437e-05
5.03079e-05
4.97086e-05
4.90544e-05
4.83559e-05
4.7625e-05
4.6872e-05
4.6103e-05
4.53148e-05
4.44895e-05
4.35898e-05
4.2558e-05
4.13251e-05
3.99062e-05
3.82588e-05
3.60989e-05
3.41623e-05
3.21588e-05
2.99313e-05
2.7805e-05
2.74832e-05
2.92274e-05
3.14332e-05
3.23074e-05
3.15774e-05
2.91024e-05
2.42701e-05
1.7613e-05
7.95958e-06
1.47877e-07
7.82145e-07
2.36595e-05
4.58449e-05
5.60811e-05
5.88945e-05
5.83871e-05
5.68098e-05
5.45225e-05
5.20047e-05
4.98187e-05
4.76795e-05
4.57683e-05
4.42154e-05
4.30409e-05
4.21836e-05
4.15732e-05
4.11794e-05
4.10004e-05
4.10316e-05
4.12615e-05
4.16693e-05
4.22197e-05
4.28761e-05
4.36043e-05
4.43757e-05
4.51694e-05
4.59697e-05
4.67662e-05
4.75512e-05
4.8319e-05
4.90646e-05
4.97833e-05
5.04704e-05
5.1121e-05
5.17304e-05
5.22937e-05
5.28063e-05
5.32934e-05
5.36497e-05
5.39233e-05
5.42793e-05
5.44851e-05
5.463e-05
5.47013e-05
5.47002e-05
5.46229e-05
5.4467e-05
5.42301e-05
5.39098e-05
5.35048e-05
5.30147e-05
5.24412e-05
5.17882e-05
5.10631e-05
5.02769e-05
4.94439e-05
4.8581e-05
4.7705e-05
4.68286e-05
4.59533e-05
4.50626e-05
4.41128e-05
4.30279e-05
4.17036e-05
4.01848e-05
3.81986e-05
3.57484e-05
3.35988e-05
3.1569e-05
2.91575e-05
2.68459e-05
2.69442e-05
2.88032e-05
3.02387e-05
3.02906e-05
2.91611e-05
2.5002e-05
1.87317e-05
8.72163e-06
1.8542e-07
8.54195e-07
2.47518e-05
4.73902e-05
5.75822e-05
6.01612e-05
5.98287e-05
5.76688e-05
5.48445e-05
5.2266e-05
4.97035e-05
4.74167e-05
4.54776e-05
4.39586e-05
4.28308e-05
4.20242e-05
4.14902e-05
4.12128e-05
4.11834e-05
4.13825e-05
4.17824e-05
4.23467e-05
4.30337e-05
4.38064e-05
4.4634e-05
4.54931e-05
4.63676e-05
4.72456e-05
4.8119e-05
4.89811e-05
4.98258e-05
5.06472e-05
5.14392e-05
5.21955e-05
5.29101e-05
5.35772e-05
5.41917e-05
5.4749e-05
5.52784e-05
5.56971e-05
5.59709e-05
5.63387e-05
5.659e-05
5.67499e-05
5.68416e-05
5.68576e-05
5.67964e-05
5.66552e-05
5.64305e-05
5.61191e-05
5.57175e-05
5.5223e-05
5.46341e-05
5.39513e-05
5.31784e-05
5.23233e-05
5.13991e-05
5.0424e-05
4.94207e-05
4.84132e-05
4.74218e-05
4.64548e-05
4.5498e-05
4.45028e-05
4.33759e-05
4.19763e-05
4.02815e-05
3.78596e-05
3.52259e-05
3.29158e-05
3.07838e-05
2.80258e-05
2.57185e-05
2.62765e-05
2.82436e-05
2.9287e-05
2.81528e-05
2.52479e-05
1.94957e-05
9.30184e-06
2.24975e-07
9.17536e-07
2.56278e-05
4.85575e-05
5.87185e-05
6.14072e-05
6.0881e-05
5.84057e-05
5.5272e-05
5.22598e-05
4.94954e-05
4.71151e-05
4.51786e-05
4.37046e-05
4.26345e-05
4.19051e-05
4.14833e-05
4.13518e-05
4.14866e-05
4.1852e-05
4.24073e-05
4.31079e-05
4.39121e-05
4.4786e-05
4.57037e-05
4.66469e-05
4.76027e-05
4.85616e-05
4.95158e-05
5.04581e-05
5.13809e-05
5.22766e-05
5.31376e-05
5.39563e-05
5.4726e-05
5.54408e-05
5.60958e-05
5.66875e-05
5.72396e-05
5.77043e-05
5.79819e-05
5.83369e-05
5.86241e-05
5.8791e-05
5.88957e-05
5.89246e-05
5.88781e-05
5.87532e-05
5.85465e-05
5.82538e-05
5.78704e-05
5.73911e-05
5.68112e-05
5.61275e-05
5.53387e-05
5.44478e-05
5.3463e-05
5.23992e-05
5.12792e-05
5.01319e-05
4.89898e-05
4.78815e-05
4.6822e-05
4.57989e-05
4.47571e-05
4.35847e-05
4.21051e-05
4.00844e-05
3.73176e-05
3.45217e-05
3.21281e-05
2.97811e-05
2.67571e-05
2.48681e-05
2.56557e-05
2.68885e-05
2.70347e-05
2.51779e-05
1.99087e-05
9.67369e-06
2.66234e-07
9.70762e-07
2.62933e-05
4.93954e-05
5.96109e-05
6.23398e-05
6.16329e-05
5.87242e-05
5.54201e-05
5.21495e-05
4.92312e-05
4.67992e-05
4.48871e-05
4.34697e-05
4.2475e-05
4.18503e-05
4.15668e-05
4.15948e-05
4.18926e-05
4.24121e-05
4.31047e-05
4.39242e-05
4.4832e-05
4.57987e-05
4.68033e-05
4.78309e-05
4.88706e-05
4.99132e-05
5.09499e-05
5.19716e-05
5.29691e-05
5.39329e-05
5.48539e-05
5.57241e-05
5.65365e-05
5.72854e-05
5.79669e-05
5.85782e-05
5.91274e-05
5.96197e-05
5.99147e-05
6.02291e-05
6.05408e-05
6.07059e-05
6.08144e-05
6.08495e-05
6.08132e-05
6.07031e-05
6.05162e-05
6.02481e-05
5.98932e-05
5.94448e-05
5.88955e-05
5.82382e-05
5.74668e-05
5.65779e-05
5.55731e-05
5.44607e-05
5.3258e-05
5.19927e-05
5.07016e-05
4.94266e-05
4.82062e-05
4.70614e-05
4.59789e-05
4.48899e-05
4.36483e-05
4.20068e-05
3.94711e-05
3.6538e-05
3.36562e-05
3.11804e-05
2.84287e-05
2.50925e-05
2.42024e-05
2.52987e-05
2.60316e-05
2.45425e-05
1.99702e-05
9.84066e-06
3.0897e-07
1.01311e-06
2.67502e-05
4.99602e-05
6.0221e-05
6.30477e-05
6.21996e-05
5.91397e-05
5.54637e-05
5.19696e-05
4.89384e-05
4.64863e-05
4.46155e-05
4.3268e-05
4.23686e-05
4.1871e-05
4.17396e-05
4.19273e-05
4.23781e-05
4.3036e-05
4.385e-05
4.47757e-05
4.5779e-05
4.68352e-05
4.79265e-05
4.90402e-05
5.01655e-05
5.1292e-05
5.24091e-05
5.35055e-05
5.45701e-05
5.55919e-05
5.65612e-05
5.74695e-05
5.83101e-05
5.90781e-05
5.97705e-05
6.03854e-05
6.09226e-05
6.1421e-05
6.17337e-05
6.19874e-05
6.23101e-05
6.24644e-05
6.25663e-05
6.25993e-05
6.25664e-05
6.24665e-05
6.22972e-05
6.20548e-05
6.17335e-05
6.13258e-05
6.08225e-05
6.02134e-05
5.9488e-05
5.86369e-05
5.76541e-05
5.65392e-05
5.5301e-05
5.39599e-05
5.25496e-05
5.11165e-05
4.97141e-05
4.83915e-05
4.71767e-05
4.60564e-05
4.49549e-05
4.37115e-05
4.15987e-05
3.85791e-05
3.55802e-05
3.26022e-05
2.99799e-05
2.65717e-05
2.35119e-05
2.33426e-05
2.37612e-05
2.35036e-05
1.98522e-05
9.97675e-06
3.55576e-07
1.04446e-06
2.70169e-05
5.0281e-05
6.05754e-05
6.35775e-05
6.24656e-05
5.9293e-05
5.54123e-05
5.17452e-05
4.86362e-05
4.61885e-05
4.43732e-05
4.31098e-05
4.23236e-05
4.19672e-05
4.19905e-05
4.23302e-05
4.29205e-05
4.37024e-05
4.46255e-05
4.56493e-05
4.6744e-05
4.78885e-05
4.90673e-05
5.02678e-05
5.1478e-05
5.26856e-05
5.38776e-05
5.50406e-05
5.61619e-05
5.72298e-05
5.82342e-05
5.91669e-05
6.0022e-05
6.07954e-05
6.14852e-05
6.20908e-05
6.26129e-05
6.30897e-05
6.34183e-05
6.36049e-05
6.39184e-05
6.40543e-05
6.41392e-05
6.4161e-05
6.41231e-05
6.40261e-05
6.38689e-05
6.36488e-05
6.33607e-05
6.2997e-05
6.25479e-05
6.2001e-05
6.13425e-05
6.05579e-05
5.9634e-05
5.85615e-05
5.73384e-05
5.5974e-05
5.44931e-05
5.29378e-05
5.13661e-05
4.98437e-05
4.84279e-05
4.71451e-05
4.59638e-05
4.47691e-05
4.33356e-05
4.0746e-05
3.75481e-05
3.44606e-05
3.12348e-05
2.82698e-05
2.43567e-05
2.25295e-05
2.26611e-05
2.27546e-05
1.97301e-05
1.03166e-05
4.15014e-07
1.06534e-06
2.71179e-05
5.03466e-05
6.06408e-05
6.37606e-05
6.27667e-05
5.93537e-05
5.52954e-05
5.14962e-05
4.83387e-05
4.59141e-05
4.41668e-05
4.3001e-05
4.2341e-05
4.2131e-05
4.23044e-05
4.27846e-05
4.35011e-05
4.43951e-05
4.54188e-05
4.65357e-05
4.77199e-05
4.89524e-05
5.02184e-05
5.15043e-05
5.27961e-05
5.4079e-05
5.53377e-05
5.65573e-05
5.77241e-05
5.88259e-05
5.98531e-05
6.07982e-05
6.16561e-05
6.24241e-05
6.31015e-05
6.36893e-05
6.41902e-05
6.46152e-05
6.49315e-05
6.51028e-05
6.53634e-05
6.54794e-05
6.55375e-05
6.55387e-05
6.54867e-05
6.53837e-05
6.52305e-05
6.50258e-05
6.47657e-05
6.44435e-05
6.40495e-05
6.35706e-05
6.29909e-05
6.22921e-05
6.14551e-05
6.04622e-05
5.93005e-05
5.79667e-05
5.64721e-05
5.48482e-05
5.31488e-05
5.14474e-05
4.98259e-05
4.83532e-05
4.70566e-05
4.58924e-05
4.47199e-05
4.26536e-05
3.94998e-05
3.63765e-05
3.30882e-05
2.95731e-05
2.59337e-05
2.21591e-05
2.13515e-05
2.12202e-05
1.94424e-05
1.09434e-05
4.95406e-07
1.07583e-06
2.70487e-05
5.01512e-05
6.05781e-05
6.39107e-05
6.28245e-05
5.93206e-05
5.51329e-05
5.12379e-05
4.80556e-05
4.5669e-05
4.40004e-05
4.29428e-05
4.24161e-05
4.23512e-05
4.26655e-05
4.32742e-05
4.41056e-05
4.51025e-05
4.62208e-05
4.74276e-05
4.86998e-05
5.00193e-05
5.13706e-05
5.27383e-05
5.41058e-05
5.54561e-05
5.67722e-05
5.80379e-05
5.92392e-05
6.03642e-05
6.14038e-05
6.23515e-05
6.32033e-05
6.39575e-05
6.46142e-05
6.51753e-05
6.56436e-05
6.60221e-05
6.63187e-05
6.64879e-05
6.66588e-05
6.67553e-05
6.67782e-05
6.67499e-05
6.66745e-05
6.6556e-05
6.6397e-05
6.6198e-05
6.59571e-05
6.56691e-05
6.53251e-05
6.49126e-05
6.44148e-05
6.38113e-05
6.30785e-05
6.21921e-05
6.11291e-05
5.98734e-05
5.8421e-05
5.67873e-05
5.50134e-05
5.3168e-05
5.13421e-05
4.9631e-05
4.8104e-05
4.67684e-05
4.55366e-05
4.42015e-05
4.14502e-05
3.80848e-05
3.4827e-05
3.12679e-05
2.75459e-05
2.30283e-05
2.08503e-05
1.97335e-05
1.89319e-05
1.16338e-05
5.96809e-07
1.07524e-06
2.6878e-05
4.98975e-05
6.03679e-05
6.39293e-05
6.27785e-05
5.92159e-05
5.49409e-05
5.09817e-05
4.77939e-05
4.54565e-05
4.38751e-05
4.29329e-05
4.25412e-05
4.26155e-05
4.30601e-05
4.37862e-05
4.47228e-05
4.58157e-05
4.70241e-05
4.83183e-05
4.96764e-05
5.10804e-05
5.25132e-05
5.3957e-05
5.53929e-05
5.68019e-05
5.81658e-05
5.9468e-05
6.06945e-05
6.1834e-05
6.28783e-05
6.38219e-05
6.46617e-05
6.53968e-05
6.60284e-05
6.65588e-05
6.69916e-05
6.73309e-05
6.75963e-05
6.7754e-05
6.78405e-05
6.79054e-05
6.78864e-05
6.78206e-05
6.7713e-05
6.75692e-05
6.7394e-05
6.71898e-05
6.69569e-05
6.66921e-05
6.63885e-05
6.60347e-05
6.56145e-05
6.51066e-05
6.44851e-05
6.37207e-05
6.27824e-05
6.16426e-05
6.02817e-05
5.86973e-05
5.69122e-05
5.49826e-05
5.29989e-05
5.1075e-05
4.93221e-05
4.78083e-05
4.65176e-05
4.53247e-05
4.32409e-05
3.98507e-05
3.66824e-05
3.28259e-05
2.87974e-05
2.45063e-05
2.06985e-05
1.92109e-05
1.85141e-05
1.22543e-05
7.15016e-07
1.06961e-06
2.66096e-05
4.94777e-05
5.9966e-05
6.37264e-05
6.26269e-05
5.90542e-05
5.47317e-05
5.07361e-05
4.75582e-05
4.52786e-05
4.37903e-05
4.29667e-05
4.27072e-05
4.29122e-05
4.34766e-05
4.43101e-05
4.53441e-05
4.65273e-05
4.78219e-05
4.92004e-05
5.06415e-05
5.2126e-05
5.36348e-05
5.51478e-05
5.6644e-05
5.81032e-05
5.95062e-05
6.08368e-05
6.20812e-05
6.32292e-05
6.42734e-05
6.52092e-05
6.60344e-05
6.67491e-05
6.73549e-05
6.78553e-05
6.82547e-05
6.85594e-05
6.87773e-05
6.88917e-05
6.89418e-05
6.89573e-05
6.88907e-05
6.87807e-05
6.8633e-05
6.84549e-05
6.82529e-05
6.8032e-05
6.77948e-05
6.75404e-05
6.72643e-05
6.69573e-05
6.66045e-05
6.61854e-05
6.56733e-05
6.50358e-05
6.42364e-05
6.32378e-05
6.20067e-05
6.05221e-05
5.87853e-05
5.68318e-05
5.47385e-05
5.26215e-05
5.06163e-05
4.88368e-05
4.73222e-05
4.59899e-05
4.46127e-05
4.16798e-05
3.82063e-05
3.46912e-05
3.05177e-05
2.59822e-05
2.08645e-05
1.86863e-05
1.75323e-05
1.29003e-05
8.38266e-07
1.05709e-06
2.62854e-05
4.8799e-05
5.94337e-05
6.33927e-05
6.23861e-05
5.8848e-05
5.4515e-05
5.05072e-05
4.73515e-05
4.51354e-05
4.37433e-05
4.3038e-05
4.29052e-05
4.32313e-05
4.39054e-05
4.48377e-05
4.59622e-05
4.72305e-05
4.86074e-05
5.00666e-05
5.15863e-05
5.31459e-05
5.47241e-05
5.62988e-05
5.78474e-05
5.93488e-05
6.0784e-05
6.21367e-05
6.33944e-05
6.45474e-05
6.55895e-05
6.65169e-05
6.73281e-05
6.80237e-05
6.86058e-05
6.90782e-05
6.94457e-05
6.97144e-05
6.98909e-05
6.99559e-05
6.9974e-05
6.99379e-05
6.98197e-05
6.966e-05
6.94654e-05
6.92446e-05
6.90062e-05
6.87574e-05
6.85033e-05
6.82457e-05
6.79829e-05
6.77082e-05
6.7409e-05
6.70666e-05
6.66548e-05
6.61404e-05
6.54836e-05
6.46398e-05
6.35645e-05
6.22198e-05
6.05853e-05
5.8672e-05
5.65354e-05
5.42832e-05
5.20652e-05
5.00398e-05
4.83174e-05
4.68998e-05
4.5641e-05
4.32355e-05
3.96724e-05
3.6575e-05
3.18874e-05
2.72351e-05
2.21059e-05
1.85047e-05
1.63774e-05
1.3403e-05
9.38621e-07
1.0376e-06
2.58683e-05
4.80485e-05
5.88122e-05
6.29381e-05
6.20688e-05
5.86072e-05
5.4298e-05
5.02994e-05
4.71755e-05
4.50261e-05
4.37307e-05
4.31405e-05
4.31267e-05
4.35642e-05
4.43388e-05
4.5362e-05
4.65707e-05
4.7919e-05
4.93736e-05
5.09087e-05
5.25017e-05
5.41301e-05
5.57707e-05
5.73995e-05
5.89933e-05
6.05304e-05
6.19921e-05
6.33631e-05
6.46315e-05
6.57888e-05
6.68293e-05
6.77501e-05
6.85501e-05
6.92303e-05
6.97929e-05
7.02415e-05
7.05808e-05
7.08164e-05
7.09543e-05
7.09691e-05
7.09538e-05
7.08712e-05
7.06985e-05
7.04847e-05
7.02377e-05
6.99673e-05
6.96838e-05
6.93969e-05
6.91141e-05
6.88401e-05
6.85761e-05
6.83182e-05
6.80569e-05
6.77759e-05
6.74509e-05
6.70492e-05
6.65297e-05
6.58437e-05
6.4938e-05
6.37605e-05
6.22705e-05
6.04525e-05
5.8334e-05
5.60004e-05
5.35975e-05
5.13075e-05
4.92934e-05
4.76249e-05
4.62197e-05
4.45264e-05
4.11039e-05
3.80463e-05
3.37645e-05
2.87822e-05
2.348e-05
1.89568e-05
1.56928e-05
1.36015e-05
9.85159e-07
1.01216e-06
2.53446e-05
4.7184e-05
5.80951e-05
6.23856e-05
6.16873e-05
5.83401e-05
5.40861e-05
5.01156e-05
4.70308e-05
4.49493e-05
4.37484e-05
4.32678e-05
4.33642e-05
4.39036e-05
4.47699e-05
4.58768e-05
4.71634e-05
4.85864e-05
5.01136e-05
5.1719e-05
5.33789e-05
5.50692e-05
5.67649e-05
5.8441e-05
6.00736e-05
6.16413e-05
6.3126e-05
6.45131e-05
6.57918e-05
6.69543e-05
6.79958e-05
6.89137e-05
6.97073e-05
7.03773e-05
7.0926e-05
7.13565e-05
7.16731e-05
7.1881e-05
7.19864e-05
7.19493e-05
7.18844e-05
7.17793e-05
7.15466e-05
7.12755e-05
7.09718e-05
7.06461e-05
7.03105e-05
6.99766e-05
6.96547e-05
6.93522e-05
6.90733e-05
6.88173e-05
6.85779e-05
6.83417e-05
6.80872e-05
6.77837e-05
6.73903e-05
6.68565e-05
6.61236e-05
6.51288e-05
6.38138e-05
6.21381e-05
6.00988e-05
5.77519e-05
5.52268e-05
5.27173e-05
5.04347e-05
4.8525e-05
4.69827e-05
4.5603e-05
4.26488e-05
3.93506e-05
3.57235e-05
3.00129e-05
2.45845e-05
1.89075e-05
1.58136e-05
1.35886e-05
9.93326e-07
9.82224e-07
2.47853e-05
4.62314e-05
5.72885e-05
6.17516e-05
6.12524e-05
5.80536e-05
5.38832e-05
4.99576e-05
4.69174e-05
4.49027e-05
4.37921e-05
4.34138e-05
4.36113e-05
4.42432e-05
4.5193e-05
4.63763e-05
4.77347e-05
4.92264e-05
5.08202e-05
5.24897e-05
5.42098e-05
5.59549e-05
5.76988e-05
5.94159e-05
6.10822e-05
6.26767e-05
6.41821e-05
6.55848e-05
6.68748e-05
6.80452e-05
6.90915e-05
7.00114e-05
7.08042e-05
7.14702e-05
7.20112e-05
7.24296e-05
7.27291e-05
7.29146e-05
7.29926e-05
7.29046e-05
7.27802e-05
7.26665e-05
7.23756e-05
7.20458e-05
7.16827e-05
7.12977e-05
7.09043e-05
7.05164e-05
7.01467e-05
6.98054e-05
6.94996e-05
6.92319e-05
6.89992e-05
6.87917e-05
6.85909e-05
6.83688e-05
6.80865e-05
6.76935e-05
6.71282e-05
6.63207e-05
6.51985e-05
6.36992e-05
6.17888e-05
5.94883e-05
5.68974e-05
5.42023e-05