/*--------------------------------*- C++ -*----------------------------------*\
  =========                 |
  \\      /  F ield         | OpenFOAM: The Open Source CFD Toolbox
   \\    /   O peration     | Website:  https://openfoam.org
    \\  /    A nd           | Version:  13
     \\/     M anipulation  |
\*---------------------------------------------------------------------------*/
FoamFile
{
    format      ascii;
    class       volScalarField;
    location    "8.8";
    object      p;
}
// * * * * * * * * * * * * * * * * * * * * * * * * * * * * * * * * * * * * * //

dimensions      [0 2 -2 0 0 0 0];

internalField   nonuniform List<scalar> 
6400
(
6.79502e-09
2.01497e-05
2.90935e-05
1.34212e-05
-3.20946e-05
-0.000102162
-0.000186919
-0.000277076
-0.000366302
-0.000451494
-0.000533429
-0.000616425
-0.000705235
-0.0008051
-0.000921244
-0.00105779
-0.00121767
-0.00140252
-0.00161362
-0.00185161
-0.0021169
-0.00241098
-0.00273684
-0.00309909
-0.00350422
-0.00395681
-0.00445136
-0.00497858
-0.00551502
-0.00602653
-0.00650868
-0.0069694
-0.00740686
-0.00781832
-0.00819827
-0.00853783
-0.00882534
-0.00904738
-0.00918985
-0.00923875
-0.00918077
-0.00900463
-0.00870224
-0.00826966
-0.00770476
-0.00699905
-0.00614422
-0.00515977
-0.00406268
-0.00286004
-0.00157293
-0.000223001
0.00116016
0.00254348
0.00388575
0.00514144
0.00626633
0.00721876
0.00795944
0.00845767
0.00869592
0.0086735
0.00840558
0.0079067
0.00725088
0.00648248
0.00566833
0.00487171
0.004149
0.0035298
0.00304848
0.0027147
0.00249808
0.00237327
0.00231997
0.00231471
0.00233834
0.00237571
0.00241621
0.00244375
-1.52134e-05
5.33897e-06
9.54773e-06
-1.11855e-05
-5.96048e-05
-0.000129617
-0.000210342
-0.000293137
-0.000373008
-0.000448668
-0.00052229
-0.000598035
-0.000680802
-0.000775368
-0.000885641
-0.00101521
-0.00116734
-0.00134454
-0.00154733
-0.0017759
-0.00202918
-0.0023079
-0.00261543
-0.00295424
-0.0033275
-0.00374269
-0.00420714
-0.00471894
-0.00526368
-0.00581668
-0.00635034
-0.0068558
-0.00733508
-0.00778508
-0.00819992
-0.00857069
-0.00888598
-0.00913299
-0.00929842
-0.00936955
-0.00933423
-0.00918231
-0.00890609
-0.00849981
-0.00795869
-0.00727907
-0.00646774
-0.00553254
-0.00447563
-0.00331536
-0.0020698
-0.000762687
0.000577595
0.00191708
0.00321774
0.00443912
0.0055382
0.00647329
0.00720868
0.00771463
0.00797318
0.00798226
0.00775526
0.00731838
0.00672072
0.00601685
0.00526841
0.00453459
0.00386844
0.0033111
0.00287999
0.00258214
0.00240367
0.00232087
0.00230935
0.00234098
0.00238502
0.00242425
0.00245707
0.00248306
-3.15058e-05
-8.75865e-06
-1.03518e-05
-4.04152e-05
-9.69426e-05
-0.000169506
-0.000246195
-0.000318778
-0.000384668
-0.000445612
-0.000505443
-0.000569215
-0.000641996
-0.000727549
-0.000828382
-0.000946338
-0.00108298
-0.00124058
-0.00142135
-0.00162812
-0.00186452
-0.00213368
-0.00244005
-0.00278863
-0.00318362
-0.00362758
-0.0041209
-0.00465937
-0.00523185
-0.00582058
-0.00640562
-0.00697121
-0.00750818
-0.00800998
-0.00846953
-0.00887756
-0.00922367
-0.00949672
-0.00968484
-0.00977649
-0.00976142
-0.00963072
-0.00937731
-0.00899597
-0.00848352
-0.00783991
-0.0070616
-0.00616144
-0.00514593
-0.00402842
-0.00282599
-0.00156071
-0.000259547
0.00104577
0.00231944
0.0035229
0.00461417
0.00555212
0.00630164
0.00683411
0.00713058
0.00718672
0.00701514
0.00664266
0.00611296
0.00547889
0.00479669
0.0041282
0.00352118
0.00301226
0.00262559
0.00237374
0.0022441
0.00220732
0.0022329
0.00229594
0.00236616
0.00242472
0.00247259
0.00251019
-4.01222e-05
-1.8491e-05
-2.77679e-05
-6.92164e-05
-0.000135961
-0.000211632
-0.000284523
-0.000348074
-0.000400992
-0.000445671
-0.000488415
-0.00053603
-0.000594066
-0.000666253
-0.000754279
-0.000858951
-0.000981696
-0.00112538
-0.00129394
-0.00149301
-0.0017298
-0.00201221
-0.00234753
-0.00273837
-0.00318702
-0.00369468
-0.00425721
-0.00486391
-0.00549892
-0.00614547
-0.006787
-0.00740828
-0.00799708
-0.00854425
-0.00904124
-0.00947871
-0.00984756
-0.0101379
-0.0103395
-0.0104424
-0.0104379
-0.0103182
-0.0100769
-0.00970994
-0.0092159
-0.00859192
-0.00784041
-0.00696694
-0.00597905
-0.00488906
-0.00371295
-0.00247123
-0.00118859
0.000105982
0.00137851
0.00259044
0.00370114
0.00467027
0.00546076
0.00604303
0.00639629
0.0065122
0.00640102
0.00608963
0.00561831
0.00503686
0.00440271
0.00377467
0.00320321
0.00272574
0.00236598
0.00213427
0.00202265
0.00201455
0.00207937
0.00217727
0.00227965
0.00236883
0.00244099
0.00249123
-3.41622e-05
-2.02788e-05
-3.98806e-05
-9.30185e-05
-0.000169371
-0.000247863
-0.000316959
-0.000371645
-0.000412
-0.000442517
-0.00047053
-0.00050371
-0.000548056
-0.000607244
-0.000683415
-0.000778419
-0.000895447
-0.00104031
-0.00122017
-0.00144326
-0.00171942
-0.00205433
-0.00245269
-0.0029188
-0.00345193
-0.00404606
-0.00469087
-0.00537174
-0.00607109
-0.00677259
-0.00746082
-0.00812319
-0.00874899
-0.00932772
-0.00985016
-0.0103075
-0.0106909
-0.0109916
-0.0112011
-0.011311
-0.0113137
-0.0112028
-0.0109723
-0.0106183
-0.0101406
-0.00953816
-0.00881167
-0.00796425
-0.00700253
-0.00593796
-0.00478571
-0.00356418
-0.00229472
-0.00100251
0.00028004
0.00151339
0.0026584
0.0036768
0.00453046
0.00518721
0.00562361
0.00582663
0.00580039
0.00556714
0.00516768
0.00464954
0.00406771
0.00347982
0.00293821
0.00248272
0.00213986
0.00191949
0.00181751
0.00181736
0.00189331
0.00201208
0.0021405
0.00225778
0.00235304
0.00241279
-4.72038e-06
-5.16696e-06
-3.73918e-05
-0.00010453
-0.000189064
-0.000268587
-0.000333555
-0.000380448
-0.000410655
-0.000430312
-0.000447932
-0.000471591
-0.000507457
-0.000559906
-0.00063279
-0.000730624
-0.000860033
-0.00102991
-0.00125123
-0.00153116
-0.00187734
-0.00229705
-0.00279182
-0.00335851
-0.00398826
-0.004669
-0.00538853
-0.00613285
-0.00688641
-0.00763393
-0.00836116
-0.00905645
-0.00970949
-0.0103106
-0.0108513
-0.0113229
-0.0117166
-0.0120247
-0.0122405
-0.0123572
-0.012368
-0.0122687
-0.0120537
-0.0117188
-0.0112672
-0.0106955
-0.0100035
-0.00919341
-0.00826994
-0.00724279
-0.00612533
-0.00493209
-0.00368027
-0.00239185
-0.00110023
0.000155696
0.00134154
0.0024224
0.00335709
0.00411075
0.00465874
0.00498166
0.00507832
0.0049611
0.00466582
0.00424063
0.00373786
0.00321174
0.00271484
0.00229003
0.00196618
0.00175617
0.00165805
0.00165801
0.00173229
0.00185266
0.00198855
0.00211679
0.00222218
0.00228527
5.86671e-05
4.0368e-05
-8.41367e-06
-9.25288e-05
-0.000182319
-0.000262155
-0.000323849
-0.000365248
-0.000389728
-0.000404641
-0.000419031
-0.000441271
-0.000478194
-0.00053595
-0.000621449
-0.000742377
-0.000909139
-0.00113359
-0.00142409
-0.00178945
-0.00223621
-0.0027654
-0.00336835
-0.00403437
-0.00475339
-0.00551343
-0.00630074
-0.00710133
-0.0079014
-0.0086875
-0.00944699
-0.010169
-0.0108436
-0.0114622
-0.0120166
-0.0124983
-0.0128981
-0.0132112
-0.0134322
-0.0135562
-0.0135798
-0.0134977
-0.0133057
-0.0130007
-0.0125822
-0.0120467
-0.0113961
-0.0106338
-0.00976507
-0.00879504
-0.00773036
-0.00658216
-0.00536681
-0.00410728
-0.00282854
-0.00155834
-0.000327491
0.000825885
0.00185408
0.002726
0.00341399
0.00389043
0.00415
0.00419522
0.00405145
0.00376102
0.00337415
0.00294295
0.00251775
0.00214276
0.00184965
0.00165471
0.00155916
0.00155525
0.00161881
0.00172764
0.00185407
0.00197502
0.00207521
0.00213325
0.000166221
0.000127138
5.62179e-05
-4.18174e-05
-0.000137081
-0.000218377
-0.000278953
-0.000319291
-0.000344427
-0.000362793
-0.000383853
-0.000416435
-0.000468749
-0.000549797
-0.000669536
-0.000839485
-0.00107158
-0.00137752
-0.0017658
-0.00224273
-0.0028049
-0.003444
-0.00414961
-0.00491008
-0.00571248
-0.00654391
-0.00739105
-0.00824093
-0.00908103
-0.00989934
-0.0106847
-0.0114272
-0.0121175
-0.0127467
-0.0133068
-0.0137897
-0.0141923
-0.0145108
-0.0147404
-0.0148765
-0.0149157
-0.0148517
-0.0146824
-0.0144062
-0.0140202
-0.0135243
-0.0129206
-0.0122129
-0.0114055
-0.0105011
-0.00950307
-0.0084207
-0.00726838
-0.00606393
-0.00482411
-0.00356644
-0.00232076
-0.00112414
-7.10829e-06
0.00100066
0.00184657
0.0025056
0.00296556
0.0032176
0.00327524
0.0031682
0.00294107
0.00264358
0.00232313
0.00202409
0.00178036
0.00161191
0.0015245
0.00151227
0.00155984
0.00164879
0.00175304
0.00185392
0.0019343
0.00197773
0.000323342
0.000263301
0.000167413
5.53949e-05
-4.65098e-05
-0.000130686
-0.000194151
-0.000239446
-0.000273473
-0.000305661
-0.000345969
-0.000404121
-0.000490398
-0.000616877
-0.000796866
-0.00104249
-0.00136657
-0.00178044
-0.00228705
-0.00288212
-0.00355851
-0.00430477
-0.00510783
-0.00595428
-0.006831
-0.00772504
-0.00862399
-0.00951576
-0.0103888
-0.0112322
-0.0120359
-0.0127908
-0.0134876
-0.0141181
-0.014677
-0.0151618
-0.0155718
-0.0158997
-0.0161398
-0.0162872
-0.0163367
-0.0162873
-0.0161382
-0.0158888
-0.0155353
-0.0150807
-0.0145256
-0.0138717
-0.0131215
-0.0122789
-0.0113497
-0.0103411
-0.00926362
-0.0081302
-0.0069532
-0.00574282
-0.00451926
-0.003308
-0.00213065
-0.00103065
-4.02717e-05
0.00082084
0.00150236
0.00199437
0.00229628
0.00242231
0.00240215
0.00228075
0.00210177
0.00190772
0.00173582
0.00160968
0.00153949
0.00152383
0.00155338
0.00161421
0.00168823
0.00176004
0.00180973
0.00183408
0.000537585
0.000454117
0.000330514
0.000203184
9.19701e-05
1.5894e-06
-6.97656e-05
-0.000127517
-0.000180428
-0.000238872
-0.000313496
-0.000415292
-0.000557108
-0.000753838
-0.00101933
-0.00136581
-0.00180514
-0.00234153
-0.00297096
-0.00368501
-0.00447223
-0.00531825
-0.0062096
-0.0071326
-0.00807442
-0.00902246
-0.00996494
-0.0108905
-0.0117884
-0.0126488
-0.0134626
-0.0142215
-0.0149192
-0.0155512
-0.0161128
-0.0166001
-0.0170074
-0.01733
-0.0175651
-0.0177113
-0.0177666
-0.0177295
-0.0175995
-0.0173762
-0.0170574
-0.0166446
-0.0161392
-0.0155425
-0.0148565
-0.014084
-0.0132293
-0.0122975
-0.0112952
-0.0102294
-0.0091091
-0.00794945
-0.00676813
-0.00558034
-0.00439841
-0.00324487
-0.00214101
-0.0011271
-0.000235582
0.000512813
0.001085
0.0014839
0.00171804
0.00181709
0.00181986
0.00176403
0.00168776
0.00162146
0.00158069
0.00156939
0.00158302
0.00161426
0.00165342
0.00168859
0.00170449
0.00170983
0.000811094
0.000698428
0.00054566
0.000397699
0.000274961
0.000173949
8.82999e-05
9.16125e-06
-7.41562e-05
-0.000172968
-0.000298695
-0.000464182
-0.000684416
-0.000974742
-0.0013483
-0.0018155
-0.00238194
-0.00304587
-0.00379823
-0.00462632
-0.00551621
-0.00645315
-0.00742343
-0.00841355
-0.00941096
-0.0104035
-0.01138
-0.0123297
-0.0132432
-0.0141117
-0.0149274
-0.0156839
-0.0163759
-0.0169993
-0.0175502
-0.0180256
-0.0184216
-0.0187355
-0.0189656
-0.0191108
-0.0191701
-0.0191428
-0.0190286
-0.0188273
-0.0185384
-0.0181629
-0.0177021
-0.0171575
-0.0165312
-0.0158255
-0.0150437
-0.0141897
-0.0132676
-0.0122818
-0.0112375
-0.0101428
-0.00900701
-0.00784172
-0.00666651
-0.00549911
-0.00434819
-0.00323199
-0.00217133
-0.00120713
-0.000364071
0.000323242
0.000846616
0.00121021
0.00143738
0.00155887
0.00160775
0.0016196
0.00162058
0.00162188
0.00162574
0.00162983
0.00163323
0.00162909
0.00161288
0.0016016
0.0011317
0.000989108
0.000800794
0.000629307
0.000491789
0.000375638
0.000268388
0.000157869
3.16134e-05
-0.000122477
-0.000317018
-0.000566141
-0.000885452
-0.00128906
-0.00178734
-0.00238608
-0.00308488
-0.00387563
-0.00474519
-0.00567924
-0.00666264
-0.00768077
-0.00871981
-0.00976649
-0.0108085
-0.0118342
-0.0128332
-0.0137958
-0.0147137
-0.0155797
-0.0163876
-0.0171324
-0.0178101
-0.0184174
-0.0189518
-0.0194112
-0.0197934
-0.0200967
-0.0203201
-0.0204628
-0.0205242
-0.0205042
-0.0204029
-0.0202203
-0.0199569
-0.0196136
-0.0191918
-0.018693
-0.0181193
-0.0174728
-0.0167563
-0.0159726
-0.0151249
-0.0142163
-0.0132503
-0.0122309
-0.0111622
-0.0100493
-0.00890015
-0.00772527
-0.00654197
-0.00536926
-0.00421098
-0.003086
-0.00202206
-0.00106274
-0.000243048
0.000415466
0.000908608
0.00124989
0.00146301
0.00157897
0.00163502
0.0016566
0.00165594
0.00163784
0.00160844
0.00156821
0.00152516
0.00149962
0.0014851
0.00131082
0.00108222
0.000884312
0.000728224
0.000591022
0.000453974
0.000301498
0.000119592
-0.00010476
-0.000384629
-0.000735031
-0.00117022
-0.00170114
-0.00233388
-0.00306852
-0.00389808
-0.00480974
-0.00578841
-0.00681878
-0.00788539
-0.00897365
-0.0100698
-0.0111608
-0.0122349
-0.0132813
-0.0142906
-0.0152547
-0.0161668
-0.0170212
-0.0178134
-0.0185399
-0.019198
-0.0197855
-0.0203008
-0.0207425
-0.0211095
-0.0214011
-0.0216165
-0.0217553
-0.0218174
-0.021803
-0.0217122
-0.0215457
-0.0213041
-0.0209885
-0.0206004
-0.0201413
-0.0196132
-0.0190182
-0.0183586
-0.0176368
-0.016855
-0.0160156
-0.0151207
-0.0141725
-0.0131728
-0.0121233
-0.0110261
-0.00988337
-0.00870005
-0.00748611
-0.00625989
-0.00503442
-0.00381908
-0.00264389
-0.0015552
-0.000598813
0.000188506
0.000789954
0.00121086
0.00147053
0.00160395
0.00165558
0.00165445
0.00161853
0.00156196
0.0014927
0.00143008
0.00139546
0.00185286
0.00164403
0.00137332
0.00114425
0.000965006
0.000800384
0.000625062
0.000420237
0.000170606
-0.000137063
-0.000516832
-0.000982624
-0.00154552
-0.00221212
-0.00298249
-0.00385054
-0.00480426
-0.00582804
-0.00690571
-0.00802129
-0.00915925
-0.0103051
-0.0114453
-0.0125674
-0.0136607
-0.0147155
-0.0157241
-0.01668
-0.017578
-0.0184143
-0.0191858
-0.0198903
-0.0205261
-0.0210922
-0.0215875
-0.0220114
-0.0223633
-0.022643
-0.0228503
-0.0229849
-0.0230471
-0.0230371
-0.0229554
-0.0228026
-0.0225798
-0.022288
-0.0219288
-0.0215037
-0.0210147
-0.0204637
-0.0198528
-0.019184
-0.0184594
-0.0176804
-0.0168484
-0.0159642
-0.0150281
-0.01404
-0.0129991
-0.0119044
-0.0107547
-0.00954985
-0.00829326
-0.00699572
-0.00568108
-0.00435893
-0.00305878
-0.00183789
-0.000754845
0.000135981
0.000805415
0.00125492
0.00150523
0.00160548
0.00161201
0.00156135
0.00148222
0.00139098
0.0013158
0.0012759
0.00220983
0.00196518
0.00164839
0.00138669
0.0011802
0.000981842
0.000760074
0.000493692
0.000166366
-0.000236133
-0.000727401
-0.00131819
-0.00201546
-0.00281926
-0.00372394
-0.00471822
-0.00578644
-0.00691135
-0.00807605
-0.00926418
-0.0104603
-0.0116501
-0.0128208
-0.0139611
-0.0150614
-0.0161141
-0.017113
-0.0180535
-0.018932
-0.0197462
-0.0204944
-0.0211754
-0.0217884
-0.0223331
-0.0228091
-0.0232161
-0.023554
-0.0238228
-0.0240226
-0.0241535
-0.0242156
-0.0242096
-0.0241358
-0.0239952
-0.0237886
-0.0235173
-0.0231828
-0.0227867
-0.0223307
-0.0218168
-0.021247
-0.0206231
-0.0199467
-0.0192192
-0.0184413
-0.0176132
-0.0167342
-0.0158027
-0.0148163
-0.0137717
-0.012665
-0.0114921
-0.0102496
-0.00893719
-0.00756209
-0.00614115
-0.00469924
-0.00327155
-0.00192768
-0.000743505
0.000208325
0.000891046
0.00130843
0.00149526
0.00152374
0.00146453
0.00136524
0.00125551
0.00117257
0.00112872
0.0025284
0.00224856
0.00188559
0.0015891
0.00135108
0.00111263
0.00083736
0.000501997
8.86735e-05
-0.000417754
-0.00102769
-0.00174799
-0.00257929
-0.00351597
-0.00454717
-0.00565722
-0.006828
-0.00804125
-0.00927953
-0.0105264
-0.0117666
-0.0129868
-0.0141751
-0.0153218
-0.0164192
-0.0174615
-0.0184443
-0.0193646
-0.0202206
-0.0210111
-0.0217353
-0.0223931
-0.0229842
-0.0235089
-0.023967
-0.0243588
-0.0246844
-0.0249437
-0.0251372
-0.0252651
-0.0253277
-0.0253254
-0.0252589
-0.025129
-0.0249367
-0.0246832
-0.0243698
-0.0239983
-0.0235702
-0.0230875
-0.022552
-0.0219654
-0.0213293
-0.0206447
-0.0199123
-0.0191319
-0.0183024
-0.0174215
-0.0164858
-0.0154906
-0.01443
-0.0132972
-0.0120856
-0.0107899
-0.00940789
-0.00794312
-0.0064115
-0.00484685
-0.00330028
-0.00185558
-0.000611405
0.00034636
0.000978988
0.00130365
0.00138689
0.00133035
0.00121297
0.00108573
0.000995322
0.000944811
0.00278938
0.00247026
0.00206177
0.00172884
0.001455
0.00117115
0.000837437
0.000427744
-7.86609e-05
-0.000693986
-0.00142466
-0.00227262
-0.0032325
-0.00429361
-0.00544015
-0.00665314
-0.00791285
-0.00920031
-0.0104978
-0.0117891
-0.0130598
-0.0142974
-0.0154919
-0.0166355
-0.0177223
-0.0187483
-0.019711
-0.0206089
-0.0214413
-0.022208
-0.0229092
-0.0235451
-0.0241162
-0.0246227
-0.0250652
-0.0254438
-0.0257588
-0.0260104
-0.0261989
-0.0263248
-0.0263882
-0.0263898
-0.02633
-0.0262099
-0.0260302
-0.0257922
-0.0254971
-0.0251466
-0.0247422
-0.0242856
-0.0237787
-0.023223
-0.02262
-0.0219709
-0.0212761
-0.0205354
-0.0197475
-0.0189102
-0.0180196
-0.0170704
-0.0160557
-0.0149673
-0.0137961
-0.0125328
-0.0111701
-0.00970456
-0.00814051
-0.00649718
-0.00481684
-0.00317067
-0.00166321
-0.000414202
0.000482385
0.00100172
0.00118985
0.00115796
0.00102977
0.000884182
0.000779992
0.000716998
0.00295578
0.00260554
0.00215503
0.00178528
0.0014724
0.00114013
0.000744411
0.000255248
-0.00034649
-0.00107023
-0.00191924
-0.00288859
-0.0039681
-0.00514194
-0.00639028
-0.0076918
-0.00902567
-0.0103725
-0.0117147
-0.0130366
-0.0143248
-0.0155688
-0.0167603
-0.0178934
-0.0189642
-0.0199705
-0.0209111
-0.0217859
-0.022595
-0.0233391
-0.0240189
-0.024635
-0.0251882
-0.025679
-0.026108
-0.0264755
-0.0267818
-0.0270273
-0.0272122
-0.0273369
-0.0274018
-0.0274073
-0.027354
-0.0272428
-0.0270744
-0.0268501
-0.0265709
-0.0262384
-0.0258541
-0.0254196
-0.0249365
-0.0244064
-0.0238308
-0.0232106
-0.0225465
-0.0218384
-0.0210851
-0.0202844
-0.0194325
-0.0185243
-0.0175525
-0.0165084
-0.0153816
-0.0141606
-0.0128342
-0.0113934
-0.00983471
-0.00816526
-0.00641201
-0.00463268
-0.00292049
-0.00140056
-0.000212624
0.000553517
0.000907373
0.000942964
0.000815529
0.000650928
0.000521931
0.000441537
0.0030157
0.00263723
0.00214825
0.00174201
0.00138872
0.00100628
0.000545819
-2.38006e-05
-0.000719426
-0.00154829
-0.00250836
-0.00358977
-0.00477698
-0.0060496
-0.00738473
-0.00875944
-0.0101522
-0.0115436
-0.0129164
-0.0142561
-0.015551
-0.0167922
-0.0179735
-0.0190909
-0.0201424
-0.0211272
-0.0220453
-0.0228974
-0.0236846
-0.0244079
-0.0250684
-0.0256671
-0.0262048
-0.0266822
-0.0270999
-0.0274582
-0.0277577
-0.0279985
-0.0281809
-0.0283053
-0.0283721
-0.0283816
-0.0283345
-0.0282315
-0.0280734
-0.0278612
-0.0275961
-0.0272793
-0.0269122
-0.0264964
-0.0260334
-0.0255246
-0.0249715
-0.0243751
-0.0237361
-0.0230544
-0.0223294
-0.0215589
-0.0207398
-0.019867
-0.0189337
-0.0179313
-0.0168488
-0.0156739
-0.0143933
-0.012994
-0.0114666
-0.00980835
-0.00803173
-0.00617786
-0.00432795
-0.00259205
-0.00111985
-6.36344e-05
0.000510702
0.000665197
0.000565155
0.000382425
0.000216586
0.000117511
0.00295397
0.00255193
0.00202935
0.00158833
0.00119454
0.000760365
0.000234489
-0.000412567
-0.00119751
-0.00212458
-0.00318616
-0.0043676
-0.00564842
-0.0070045
-0.0084107
-0.00984303
-0.0112797
-0.0127015
-0.0140921
-0.0154385
-0.0167308
-0.0179621
-0.0191282
-0.0202267
-0.0212572
-0.02222
-0.0231161
-0.0239469
-0.0247139
-0.0254186
-0.0260621
-0.0266456
-0.0271701
-0.0276362
-0.0280445
-0.0283955
-0.0286895
-0.0289269
-0.0291078
-0.0292325
-0.0293016
-0.0293153
-0.0292742
-0.0291788
-0.0290301
-0.0288288
-0.0285761
-0.028273
-0.0279209
-0.0275212
-0.0270753
-0.0265845
-0.0260502
-0.0254734
-0.0248549
-0.0241948
-0.0234927
-0.022747
-0.021955
-0.0211123
-0.0202127
-0.019248
-0.0182076
-0.017079
-0.0158478
-0.014499
-0.013019
-0.0113984
-0.00963664
-0.007756
-0.00582439
-0.00393882
-0.00222961
-0.000879018
-3.25889e-05
0.000303357
0.000268016
6.98445e-05
-0.000139968
-0.00025694
0.00276172
0.00234177
0.00179155
0.00131847
0.000884382
0.000399121
-0.000188878
-0.000908989
-0.00177695
-0.0027925
-0.00394383
-0.00521143
-0.00657059
-0.00799428
-0.00945581
-0.0109306
-0.0123969
-0.0138362
-0.0152335
-0.0165774
-0.0178599
-0.0190761
-0.0202235
-0.0213014
-0.0223104
-0.0232516
-0.0241269
-0.0249381
-0.0256869
-0.026375
-0.0270037
-0.0275742
-0.0280875
-0.0285441
-0.0289448
-0.0292899
-0.0295798
-0.0298147
-0.0299948
-0.0301205
-0.0301921
-0.03021
-0.0301745
-0.0300864
-0.0299462
-0.0297549
-0.0295133
-0.0292224
-0.0288835
-0.0284979
-0.0280667
-0.0275912
-0.0270728
-0.0265124
-0.0259109
-0.0252686
-0.0245853
-0.0238599
-0.0230902
-0.0222726
-0.0214018
-0.0204704
-0.0194686
-0.0183843
-0.017203
-0.0159084
-0.0144846
-0.0129179
-0.0111993
-0.00933121
-0.00735682
-0.00538492
-0.00350607
-0.00188986
-0.000743661
-0.000173161
-9.9085e-05
-0.000295034
-0.000548347
-0.000681631
0.00243661
0.00200487
0.00143359
0.000931813
0.000459098
-7.47848e-05
-0.000720319
-0.00150702
-0.00244908
-0.00354217
-0.00477013
-0.00610913
-0.00753104
-0.00900669
-0.0105084
-0.0120114
-0.0134944
-0.0149399
-0.0163344
-0.0176685
-0.0189359
-0.0201336
-0.0212604
-0.0223169
-0.0233046
-0.0242253
-0.0250813
-0.0258746
-0.0266072
-0.0272807
-0.0278966
-0.028456
-0.0289597
-0.0294086
-0.029803
-0.0301434
-0.0304301
-0.0306633
-0.0308433
-0.0309703
-0.0310446
-0.0310665
-0.0310365
-0.0309551
-0.0308229
-0.0306406
-0.030409
-0.0301292
-0.029802
-0.0294288
-0.0290105
-0.0285484
-0.0280437
-0.0274973
-0.0269102
-0.0262827
-0.025615
-0.0249063
-0.0241551
-0.0233585
-0.0225121
-0.0216096
-0.0206423
-0.019599
-0.0184655
-0.0172256
-0.0158615
-0.0143568
-0.012698
-0.0108752
-0.00889977
-0.00687421
-0.00489457
-0.00307654
-0.00164519
-0.000797266
-0.000553403
-0.000720634
-0.00100647
-0.00115599
0.00198205
0.00154491
0.000959236
0.000432541
-7.58856e-05
-0.000653823
-0.00135113
-0.00219718
-0.00320315
-0.00436159
-0.00565233
-0.00704782
-0.00851724
-0.01003
-0.0115578
-0.0130761
-0.0145645
-0.0160067
-0.017391
-0.0187096
-0.0199582
-0.0211351
-0.0222404
-0.0232755
-0.0242427
-0.0251441
-0.0259824
-0.0267596
-0.0274777
-0.0281385
-0.0287433
-0.0292931
-0.0297889
-0.0302311
-0.0306205
-0.0309571
-0.0312414
-0.0314736
-0.0316539
-0.0317824
-0.0318594
-0.0318854
-0.0318605
-0.0317854
-0.0316605
-0.0314865
-0.0312641
-0.0309942
-0.0306777
-0.0303155
-0.0299087
-0.0294585
-0.0289658
-0.0284317
-0.0278569
-0.0272422
-0.0265877
-0.0258931
-0.0251573
-0.0243784
-0.0235527
-0.0226751
-0.0217381
-0.0207318
-0.0196431
-0.018456
-0.0171523
-0.0157134
-0.014123
-0.0123657
-0.010434
-0.00837344
-0.00634295
-0.0043953
-0.00272103
-0.00158297
-0.00112116
-0.00122364
-0.00151363
-0.0016849
0.00140643
0.000970315
0.000376463
-0.000170528
-0.000710549
-0.00132747
-0.00207004
-0.00296665
-0.0040259
-0.00523718
-0.00657688
-0.0080144
-0.00951696
-0.011053
-0.0125943
-0.0141168
-0.015601
-0.0170323
-0.0184005
-0.0196997
-0.020927
-0.0220819
-0.0231654
-0.0241798
-0.0251275
-0.026011
-0.0268331
-0.0275958
-0.0283011
-0.0289507
-0.0295458
-0.0300874
-0.0305763
-0.0310131
-0.0313981
-0.0317318
-0.0320143
-0.0322458
-0.0324266
-0.0325568
-0.0326366
-0.0326663
-0.0326464
-0.0325771
-0.032459
-0.0322927
-0.0320787
-0.0318179
-0.031511
-0.0311589
-0.0307626
-0.030323
-0.0298412
-0.0293179
-0.0287542
-0.0281506
-0.0275076
-0.0268252
-0.0261028
-0.0253389
-0.0245309
-0.0236748
-0.0227643
-0.0217909
-0.0207431
-0.0196058
-0.018361
-0.0169887
-0.0154707
-0.0137899
-0.0119263
-0.00987802
-0.00780692
-0.00579519
-0.00394503
-0.00253899
-0.00182466
-0.00180294
-0.00207401
-0.00227876
0.000722281
0.000293521
-0.000302225
-0.000864659
-0.00143131
-0.00208174
-0.00286294
-0.00380113
-0.00490279
-0.00615456
-0.00752994
-0.008996
-0.0105186
-0.0120658
-0.0136096
-0.0151268
-0.0165991
-0.0180135
-0.0193615
-0.0206386
-0.0218431
-0.0229755
-0.0240377
-0.025032
-0.0259614
-0.0268284
-0.0276357
-0.0283853
-0.0290792
-0.0297189
-0.0303054
-0.0308399
-0.0313229
-0.0317549
-0.0321364
-0.0324676
-0.0327487
-0.0329799
-0.0331613
-0.0332932
-0.0333757
-0.0334091
-0.0333938
-0.0333299
-0.0332182
-0.0330589
-0.0328527
-0.0326002
-0.0323022
-0.0319594
-0.0315727
-0.0311429
-0.0306709
-0.0301576
-0.0296038
-0.0290104
-0.0283777
-0.0277061
-0.0269954
-0.0262447
-0.0254522
-0.0246148
-0.0237276
-0.0227835
-0.0217724
-0.020681
-0.0194919
-0.0181851
-0.0167401
-0.0151385
-0.0133583
-0.0113799
-0.00927003
-0.0072323
-0.00528252
-0.00365869
-0.00268263
-0.00247415
-0.00270347
-0.00295403
-5.32441e-05
-0.000470545
-0.00106167
-0.00163469
-0.00222348
-0.00290197
-0.0037143
-0.00468511
-0.00581863
-0.00709917
-0.00849795
-0.00998036
-0.0115115
-0.0130593
-0.0145964
-0.0161006
-0.017555
-0.0189482
-0.020273
-0.0215263
-0.0227074
-0.0238176
-0.0248589
-0.0258343
-0.0267465
-0.0275982
-0.028392
-0.0291298
-0.0298134
-0.0304442
-0.0310232
-0.0315513
-0.0320292
-0.0324571
-0.0328355
-0.0331646
-0.0334446
-0.0336756
-0.0338578
-0.0339913
-0.0340764
-0.0341132
-0.0341021
-0.0340434
-0.0339374
-0.0337847
-0.0335857
-0.0333409
-0.0330511
-0.0327169
-0.0323391
-0.0319184
-0.0314556
-0.0309515
-0.0304071
-0.029823
-0.0291999
-0.0285383
-0.0278382
-0.0270993
-0.0263206
-0.0254997
-0.0246331
-0.023715
-0.022737
-0.0216874
-0.0205504
-0.0193066
-0.0179339
-0.016413
-0.0147235
-0.0128347
-0.0107346
-0.00867647
-0.00669114
-0.00491598
-0.00369909
-0.00327206
-0.00341973
-0.00373196
-0.000901142
-0.00130447
-0.00188597
-0.00246522
-0.00307123
-0.00377186
-0.00460803
-0.00560277
-0.00675822
-0.00805678
-0.00946797
-0.0109561
-0.0124858
-0.0140255
-0.0155484
-0.0170337
-0.0184658
-0.0198347
-0.0211347
-0.0223634
-0.023521
-0.0246093
-0.0256307
-0.0265881
-0.0274842
-0.0283219
-0.0291032
-0.0298303
-0.0305045
-0.0311273
-0.0316996
-0.0322221
-0.0326953
-0.0331196
-0.0334953
-0.0338225
-0.0341016
-0.0343325
-0.0345154
-0.0346506
-0.034738
-0.034778
-0.0347709
-0.0347169
-0.0346163
-0.0344696
-0.0342772
-0.0340397
-0.0337575
-0.0334313
-0.0330618
-0.0326496
-0.0321955
-0.0317002
-0.0311645
-0.0305893
-0.0299753
-0.029323
-0.0286328
-0.0279049
-0.0271387
-0.0263328
-0.0254847
-0.0245899
-0.0236417
-0.0226299
-0.0215408
-0.020356
-0.0190537
-0.0176121
-0.0160105
-0.0142183
-0.0122069
-0.0101179
-0.00813399
-0.00628178
-0.00486952
-0.00421649
-0.00424023
-0.00464027
-0.00180308
-0.0021901
-0.00275803
-0.00333915
-0.00395743
-0.0046744
-0.0055277
-0.00653839
-0.00770681
-0.00901387
-0.0104279
-0.0119127
-0.0134329
-0.0149574
-0.0164605
-0.0179225
-0.0193293
-0.0206721
-0.0219462
-0.0231501
-0.0242847
-0.0253519
-0.0263542
-0.0272946
-0.0281759
-0.0290004
-0.0297703
-0.0304875
-0.0311532
-0.0317688
-0.0323349
-0.0328522
-0.0333212
-0.0337422
-0.0341154
-0.0344411
-0.0347193
-0.0349501
-0.0351338
-0.0352704
-0.03536
-0.035403
-0.0353995
-0.0353498
-0.0352542
-0.0351131
-0.0349269
-0.034696
-0.0344209
-0.0341022
-0.0337405
-0.0333363
-0.0328904
-0.0324035
-0.0318763
-0.0313096
-0.0307043
-0.030061
-0.0293803
-0.0286628
-0.0279083
-0.0271162
-0.0262849
-0.0254112
-0.0244899
-0.0235125
-0.0224673
-0.0213376
-0.0201027
-0.0187387
-0.0172241
-0.0155336
-0.0136342
-0.0115471
-0.00958524
-0.00772373
-0.00617822
-0.00530831
-0.00519125
-0.00569648
-0.00274048
-0.00310924
-0.00366016
-0.00423887
-0.0048648
-0.00559291
-0.00645729
-0.0074769
-0.00865046
-0.00995788
-0.0113669
-0.0128409
-0.0143451
-0.0158491
-0.0173282
-0.018764
-0.0201436
-0.0214592
-0.0227073
-0.0238869
-0.024999
-0.026046
-0.0270303
-0.0279548
-0.0288221
-0.0296344
-0.0303938
-0.0311018
-0.0317597
-0.0323686
-0.032929
-0.0334416
-0.0339067
-0.0343247
-0.0346957
-0.0350198
-0.0352972
-0.035528
-0.0357123
-0.0358502
-0.0359419
-0.0359875
-0.0359873
-0.0359415
-0.0358505
-0.0357145
-0.035534
-0.0353093
-0.0350409
-0.0347292
-0.0343748
-0.0339783
-0.0335403
-0.0330613
-0.0325423
-0.0319839
-0.031387
-0.0307525
-0.0300811
-0.0293735
-0.0286302
-0.0278511
-0.0270354
-0.026181
-0.025284
-0.024338
-0.0233328
-0.022254
-0.021082
-0.0197938
-0.0183677
-0.0167824
-0.0149964
-0.0129677
-0.0110087
-0.00918895
-0.00757978
-0.00653243
-0.00629744
-0.00688747
-0.00369531
-0.00404369
-0.0045747
-0.00514761
-0.00577712
-0.00651163
-0.00738177
-0.00840422
-0.00957635
-0.0108774
-0.0122749
-0.0137325
-0.0152158
-0.0166954
-0.0181478
-0.0195555
-0.020907
-0.0221955
-0.0234178
-0.0245737
-0.0256644
-0.0266921
-0.0276594
-0.028569
-0.0294233
-0.0302243
-0.0309739
-0.0316734
-0.0323241
-0.0329267
-0.0334819
-0.0339901
-0.0344516
-0.0348668
-0.0352356
-0.0355583
-0.035835
-0.0360657
-0.0362505
-0.0363895
-0.036483
-0.036531
-0.0365338
-0.0364917
-0.0364048
-0.0362735
-0.0360982
-0.0358792
-0.035617
-0.0353119
-0.0349644
-0.0345751
-0.0341445
-0.0336733
-0.0331622
-0.0326119
-0.0320233
-0.0313974
-0.030735
-0.0300372
-0.0293046
-0.0285378
-0.0277368
-0.0269003
-0.0260257
-0.0251082
-0.0241395
-0.0231073
-0.021994
-0.0207776
-0.0194348
-0.0179447
-0.0162726
-0.0143773
-0.0124081
-0.0106387
-0.00902194
-0.00785655
-0.00755102
-0.00818209
-0.00464995
-0.00497619
-0.00548497
-0.00604939
-0.00667904
-0.00741592
-0.00828728
-0.00930755
-0.0104729
-0.0117623
-0.0131434
-0.0145802
-0.0160393
-0.0174921
-0.0189161
-0.020295
-0.0216183
-0.02288
-0.0240774
-0.0252106
-0.0262809
-0.0272905
-0.0282419
-0.0291375
-0.0299796
-0.0307701
-0.0315106
-0.0322023
-0.0328462
-0.033443
-0.0339933
-0.0344974
-0.0349556
-0.0353681
-0.0357349
-0.0360563
-0.0363321
-0.0365627
-0.0367479
-0.0368879
-0.036983
-0.0370331
-0.0370386
-0.0369997
-0.0369166
-0.0367896
-0.0366191
-0.0364053
-0.0361487
-0.0358497
-0.0355088
-0.0351263
-0.0347028
-0.034239
-0.0337355
-0.0331931
-0.0326127
-0.0319952
-0.0313418
-0.0306535
-0.0299314
-0.0291765
-0.0283892
-0.0275694
-0.0267156
-0.0258242
-0.024889
-0.0238995
-0.0228404
-0.0216913
-0.0204282
-0.0190294
-0.0174686
-0.0157115
-0.013772
-0.0120496
-0.0104637
-0.00923833
-0.00889159
-0.0095058
-0.00558808
-0.00589095
-0.00637595
-0.00692959
-0.00755655
-0.00829246
-0.00916133
-0.0101755
-0.01133
-0.0126036
-0.0139646
-0.0153779
-0.0168107
-0.0182352
-0.0196303
-0.0209806
-0.0222763
-0.023512
-0.0246856
-0.0257973
-0.0268484
-0.0278411
-0.0287776
-0.0296603
-0.0304911
-0.0312718
-0.0320038
-0.0326882
-0.0333258
-0.0339172
-0.0344629
-0.0349632
-0.0354183
-0.0358282
-0.0361932
-0.0365132
-0.0367883
-0.0370186
-0.0372041
-0.037345
-0.0374414
-0.0374934
-0.0375013
-0.0374653
-0.0373855
-0.0372624
-0.0370962
-0.0368872
-0.0366359
-0.0363425
-0.0360075
-0.0356314
-0.0352147
-0.0347579
-0.0342618
-0.033727
-0.0331545
-0.0325454
-0.0319007
-0.0312218
-0.0305099
-0.0297664
-0.0289924
-0.0281883
-0.0273537
-0.0264863
-0.0255815
-0.024631
-0.0236215
-0.0225344
-0.021347
-0.0200382
-0.0185873
-0.0169519
-0.0150967
-0.0133966
-0.0118598
-0.0106202
-0.0102244
-0.0107415
-0.00649409
-0.00677374
-0.00723399
-0.00777512
-0.00839707
-0.00912938
-0.00999287
-0.0109978
-0.0121389
-0.0133937
-0.0147322
-0.0161203
-0.0175257
-0.0189218
-0.0202882
-0.0216105
-0.0228797
-0.0240908
-0.025242
-0.0263335
-0.0273667
-0.0283436
-0.0292664
-0.0301371
-0.0309574
-0.0317291
-0.0324532
-0.0331308