/*--------------------------------*- C++ -*----------------------------------*\
  =========                 |
  \\      /  F ield         | OpenFOAM: The Open Source CFD Toolbox
   \\    /   O peration     | Website:  https://openfoam.org
    \\  /    A nd           | Version:  13
     \\/     M anipulation  |
\*---------------------------------------------------------------------------*/
FoamFile
{
    format      ascii;
    class       surfaceScalarField;
    location    "8.8";
    object      phi;
}
// * * * * * * * * * * * * * * * * * * * * * * * * * * * * * * * * * * * * * //

dimensions      [0 3 -1 0 0 0 0];

internalField   nonuniform List<scalar> 
12640
(
1.70543e-09
-1.70556e-09
1.55955e-08
-1.38901e-08
3.99815e-08
-2.4386e-08
6.80673e-08
-2.80858e-08
9.33657e-08
-2.52984e-08
1.12251e-07
-1.88849e-08
1.2337e-07
-1.11189e-08
1.27669e-07
-4.29993e-09
1.27498e-07
1.7117e-10
1.25232e-07
2.26644e-09
1.22871e-07
2.36085e-09
1.21697e-07
1.17373e-09
1.22106e-07
-4.08928e-10
1.23806e-07
-1.69988e-09
1.25937e-07
-2.13049e-09
1.27554e-07
-1.61739e-09
1.27765e-07
-2.11034e-10
1.26055e-07
1.70967e-09
1.21539e-07
4.51587e-09
1.1333e-07
8.2094e-09
1.00889e-07
1.24411e-08
8.361e-08
1.72789e-08
6.1059e-08
2.2551e-08
3.30473e-08
2.80117e-08
-4.63248e-10
3.35105e-08
-3.96815e-08
3.92183e-08
-8.60826e-08
4.64011e-08
-1.42156e-07
5.60736e-08
-2.10837e-07
6.86803e-08
-2.9423e-07
8.33935e-08
-3.91157e-07
9.69265e-08
-4.97927e-07
1.0677e-07
-6.10974e-07
1.13047e-07
-7.26825e-07
1.15851e-07
-8.42468e-07
1.15643e-07
-9.55289e-07
1.12821e-07
-1.06316e-06
1.07871e-07
-1.16436e-06
1.01198e-07
-1.25753e-06
9.31742e-08
-1.34164e-06
8.41046e-08
-1.41581e-06
7.41742e-08
-1.47937e-06
6.35616e-08
-1.53171e-06
5.23332e-08
-1.57223e-06
4.05222e-08
-1.60033e-06
2.81031e-08
-1.61594e-06
1.56141e-08
-1.61912e-06
3.17136e-09
-1.60791e-06
-1.12099e-08
-1.58324e-06
-2.46695e-08
-1.54394e-06
-3.92938e-08
-1.49022e-06
-5.37271e-08
-1.42188e-06
-6.83369e-08
-1.33929e-06
-8.25855e-08
-1.24293e-06
-9.63619e-08
-1.13345e-06
-1.09478e-07
-1.0118e-06
-1.21656e-07
-8.79414e-07
-1.32383e-07
-7.3816e-07
-1.41254e-07
-5.90437e-07
-1.47723e-07
-4.39149e-07
-1.51287e-07
-2.87843e-07
-1.51306e-07
-1.40387e-07
-1.47456e-07
-8.13797e-10
-1.39573e-07
1.27921e-07
-1.28735e-07
2.40625e-07
-1.12704e-07
3.33616e-07
-9.29907e-08
4.03732e-07
-7.01158e-08
4.48563e-07
-4.48313e-08
4.66863e-07
-1.83001e-08
4.57494e-07
9.36876e-09
4.23566e-07
3.39283e-08
3.67663e-07
5.59034e-08
2.9606e-07
7.16027e-08
2.18519e-07
7.75406e-08
1.45723e-07
7.27963e-08
8.49788e-08
6.07442e-08
4.00249e-08
4.4954e-08
1.14233e-08
2.86016e-08
-7.83529e-10
1.22068e-08
-7.8353e-10
1.07652e-08
-1.24708e-08
4.41403e-08
-4.72652e-08
9.02215e-08
-7.04671e-08
1.37125e-07
-7.4989e-08
1.77187e-07
-6.53612e-08
2.06627e-07
-4.83243e-08
2.24879e-07
-2.93707e-08
2.32978e-07
-1.23991e-08
2.3275e-07
3.98897e-10
2.26572e-07
8.44412e-09
2.16726e-07
1.22073e-08
2.04771e-07
1.31287e-08
1.91178e-07
1.31845e-08
1.75363e-07
1.41147e-08
1.56267e-07
1.6965e-08
1.32753e-07
2.18974e-08
1.03889e-07
2.86522e-08
6.83853e-08
3.72138e-08
2.50007e-08
4.79005e-08
-2.7819e-08
6.10291e-08
-9.21504e-08
7.67725e-08
-1.69744e-07
9.48724e-08
-2.61775e-07
1.14582e-07
-3.69093e-07
1.3533e-07
-4.92245e-07
1.56662e-07
-6.30909e-07
1.77883e-07
-7.82444e-07
1.97935e-07
-9.4251e-07
2.1614e-07
-1.10558e-06
2.3175e-07
-1.26584e-06
2.43654e-07
-1.41992e-06
2.51005e-07
-1.56682e-06
2.53671e-07
-1.70513e-06
2.51362e-07
-1.83363e-06
2.44349e-07
-1.95133e-06
2.33343e-07
-2.05759e-06
2.19077e-07
-2.15193e-06
2.02215e-07
-2.23408e-06
1.83347e-07
-2.30382e-06
1.62909e-07
-2.36101e-06
1.41296e-07
-2.40554e-06
1.18703e-07
-2.4373e-06
9.53224e-08
-2.4562e-06
7.12385e-08
-2.4622e-06
4.65223e-08
-2.45529e-06
2.11933e-08
-2.43476e-06
-4.91966e-09
-2.40077e-06
-3.08145e-08
-2.35374e-06
-5.82438e-08
-2.29256e-06
-8.58503e-08
-2.21783e-06
-1.14022e-07
-2.12916e-06
-1.42399e-07
-2.02665e-06
-1.70849e-07
-1.91023e-06
-1.99006e-07
-1.78013e-06
-2.26455e-07
-1.63701e-06
-2.526e-07
-1.48201e-06
-2.76662e-07
-1.31642e-06
-2.97974e-07
-1.14213e-06
-3.15544e-07
-9.61492e-07
-3.28358e-07
-7.77231e-07
-3.35548e-07
-5.92395e-07
-3.36142e-07
-4.10413e-07
-3.29438e-07
-2.34811e-07
-3.15175e-07
-7.01152e-08
-2.93431e-07
8.10399e-08
-2.63859e-07
2.15114e-07
-2.27065e-07
3.28697e-07
-1.837e-07
4.19227e-07
-1.35361e-07
4.84299e-07
-8.33726e-08
5.23543e-07
-2.98749e-08
5.35197e-07
2.22743e-08
5.19992e-07
7.11083e-08
4.79918e-07
1.11677e-07
4.16027e-07
1.41432e-07
3.31933e-07
1.5689e-07
2.38047e-07
1.5463e-07
1.46826e-07
1.36175e-07
7.07287e-08
1.04699e-07
1.98878e-08
6.30477e-08
1.91043e-08
2.03561e-08
-3.28269e-08
6.73774e-08
-9.42864e-08
1.19987e-07
-1.23076e-07
1.66202e-07
-1.21204e-07
2.01606e-07
-1.00765e-07
2.25276e-07
-7.19951e-08
2.37939e-07
-4.20333e-08
2.40591e-07
-1.50508e-08
2.34422e-07
6.56747e-09
2.20931e-07
2.19348e-08
2.01507e-07
3.16318e-08
1.76719e-07
3.7917e-08
1.46359e-07
4.35438e-08
1.09592e-07
5.08817e-08
6.52409e-08
6.13163e-08
1.18656e-08
7.52727e-08
-5.22818e-08
9.27996e-08
-1.29013e-07
1.13945e-07
-2.19866e-07
1.38753e-07
-3.2605e-07
1.67214e-07
-4.48008e-07
1.9873e-07
-5.85331e-07
2.32196e-07
-7.36928e-07
2.66179e-07
-9.00262e-07
2.98664e-07
-1.07182e-06
3.28219e-07
-1.24729e-06
3.53351e-07
-1.42236e-06
3.7301e-07
-1.59303e-06
3.86804e-07
-1.75571e-06
3.94431e-07
-1.90788e-06
3.95828e-07
-2.04809e-06
3.91217e-07
-2.17545e-06
3.81026e-07
-2.29e-06
3.65913e-07
-2.39219e-06
3.46537e-07
-2.48232e-06
3.23479e-07
-2.56077e-06
2.97523e-07
-2.62781e-06
2.6926e-07
-2.6837e-06
2.39237e-07
-2.72859e-06
2.07797e-07
-2.7626e-06
1.75299e-07
-2.78577e-06
1.41877e-07
-2.79809e-06
1.07643e-07
-2.7995e-06
7.26485e-08
-2.78989e-06
3.69113e-08
-2.76891e-06
2.17383e-10
-2.73682e-06
-3.70148e-08
-2.69245e-06
-7.51856e-08
-2.63629e-06
-1.14401e-07
-2.56777e-06
-1.54368e-07
-2.48672e-06
-1.95078e-07
-2.39288e-06
-2.36233e-07
-2.28615e-06
-2.77577e-07
-2.1665e-06
-3.18655e-07
-2.03412e-06
-3.58843e-07
-1.88945e-06
-3.97269e-07
-1.73324e-06
-4.32873e-07
-1.56657e-06
-4.64637e-07
-1.3909e-06
-4.91219e-07
-1.20815e-06
-5.11108e-07
-1.02085e-06
-5.22841e-07
-8.3187e-07
-5.25127e-07
-6.44524e-07
-5.16784e-07
-4.6244e-07
-4.97258e-07
-2.89388e-07
-4.66484e-07
-1.28461e-07
-4.24786e-07
1.72515e-08
-3.72777e-07
1.4519e-07
-3.11638e-07
2.52792e-07
-2.42963e-07
3.38633e-07
-1.69213e-07
4.01896e-07
-9.31378e-08
4.41809e-07
-1.76385e-08
4.5788e-07
5.50369e-08
4.49041e-07
1.20516e-07
4.16607e-07
1.73866e-07
3.62309e-07
2.11188e-07
2.88985e-07
2.27954e-07
2.03353e-07
2.21807e-07
1.16035e-07
1.92017e-07
4.07484e-08
1.38334e-07
5.98527e-08
2.82808e-08
-6.11077e-08
8.16887e-08
-1.47694e-07
1.31733e-07
-1.73121e-07
1.69897e-07
-1.59368e-07
1.95006e-07
-1.25874e-07
2.08328e-07
-8.53169e-08
2.11092e-07
-4.47979e-08
2.04441e-07
-8.39959e-09
1.8916e-07
2.18483e-08
1.65708e-07
4.53873e-08
1.33856e-07
6.34839e-08
9.30858e-08
7.86869e-08
4.26128e-08
9.40168e-08
-1.85113e-08
1.12006e-07
-9.13999e-08
1.34205e-07
-1.7743e-07
1.61303e-07
-2.78056e-07
1.93426e-07
-3.94528e-07
2.30417e-07
-5.27357e-07
2.71582e-07
-6.75994e-07
3.15851e-07
-8.38554e-07
3.6129e-07
-1.01182e-06
4.05462e-07
-1.19188e-06
4.46241e-07
-1.37441e-06
4.8119e-07
-1.55526e-06
5.09072e-07
-1.73054e-06
5.28628e-07
-1.89677e-06
5.39243e-07
-2.05134e-06
5.41371e-07
-2.19295e-06
5.36041e-07
-2.32125e-06
5.24135e-07
-2.43651e-06
5.06475e-07
-2.53932e-06
4.83835e-07
-2.63033e-06
4.56919e-07
-2.71026e-06
4.26465e-07
-2.7798e-06
3.93027e-07
-2.8395e-06
3.57222e-07
-2.88975e-06
3.19509e-07
-2.93084e-06
2.80326e-07
-2.96296e-06
2.39915e-07
-2.98616e-06
1.98497e-07
-3.00043e-06
1.56151e-07
-3.0057e-06
1.12915e-07
-3.00179e-06
6.87375e-08
-2.98844e-06
2.35574e-08
-2.96552e-06
-2.26984e-08
-2.93251e-06
-7.00243e-08
-2.88908e-06
-1.18614e-07
-2.83495e-06
-1.68536e-07
-2.76963e-06
-2.19683e-07
-2.6928e-06
-2.71912e-07
-2.60409e-06
-3.24941e-07
-2.50322e-06
-3.78448e-07
-2.38997e-06
-4.31907e-07
-2.26422e-06
-4.84592e-07
-2.12605e-06
-5.35439e-07
-1.9759e-06
-5.83025e-07
-1.81455e-06
-6.2598e-07
-1.6431e-06
-6.62674e-07
-1.46308e-06
-6.9113e-07
-1.27657e-06
-7.09349e-07
-1.08612e-06
-7.15582e-07
-8.94831e-07
-7.08068e-07
-7.06399e-07
-6.8569e-07
-5.24996e-07
-6.47887e-07
-3.54306e-07
-5.95476e-07
-1.97429e-07
-5.29654e-07
-5.7278e-08
-4.51789e-07
6.40112e-08
-3.64253e-07
1.64805e-07
-2.70007e-07
2.44115e-07
-1.72448e-07
3.01625e-07
-7.51478e-08
3.38063e-07
1.85985e-08
3.53369e-07
1.05211e-07
3.46991e-07
1.80243e-07
3.18953e-07
2.39227e-07
2.70076e-07
2.76831e-07
2.04147e-07
2.87736e-07
1.27007e-07
2.69156e-07
4.91741e-08
2.16167e-07
1.09027e-07
3.43369e-08
-9.54446e-08
8.69059e-08
-2.00263e-07
1.28025e-07
-2.1424e-07
1.5452e-07
-1.85863e-07
1.67269e-07
-1.38623e-07
1.68547e-07
-8.65957e-08
1.59739e-07
-3.59898e-08
1.4157e-07
9.76954e-09
1.14196e-07
4.92231e-08
7.71403e-08
8.24426e-08
2.94234e-08
1.11201e-07
-3.01485e-08
1.38259e-07
-1.02737e-07
1.66606e-07
-1.89417e-07
1.98685e-07
-2.91193e-07
2.35981e-07
-4.089e-07
2.79009e-07
-5.42931e-07
3.27458e-07
-6.92977e-07
3.80462e-07
-8.57481e-07
4.36086e-07
-1.03329e-06
4.91661e-07
-1.21655e-06
5.44547e-07
-1.40269e-06
5.91606e-07
-1.58741e-06
6.30961e-07
-1.7665e-06
6.60275e-07
-1.93565e-06
6.78223e-07
-2.09238e-06
6.85363e-07
-2.23589e-06
6.82746e-07
-2.3662e-06
6.71689e-07
-2.4838e-06
6.53641e-07
-2.5894e-06
6.29727e-07
-2.68385e-06
6.00927e-07
-2.76798e-06
5.67965e-07
-2.84252e-06
5.31458e-07
-2.9081e-06
4.92049e-07
-2.96531e-06
4.5024e-07
-3.01457e-06
4.06475e-07
-3.05617e-06
3.61113e-07
-3.09034e-06
3.14492e-07
-3.11717e-06
2.66753e-07
-3.13669e-06
2.18015e-07
-3.14878e-06
1.6824e-07
-3.15337e-06
1.17501e-07
-3.15024e-06
6.56075e-08
-3.13907e-06
1.23931e-08
-3.11967e-06
-4.20983e-08
-3.09157e-06
-9.81306e-08
-3.05436e-06
-1.55818e-07
-3.00767e-06
-2.15233e-07
-2.9509e-06
-2.76451e-07
-2.8835e-06
-3.3931e-07
-2.80499e-06
-4.03449e-07
-2.71488e-06
-4.68555e-07
-2.61274e-06
-5.34053e-07
-2.49813e-06
-5.99202e-07
-2.37066e-06
-6.62905e-07
-2.23046e-06
-7.23229e-07
-2.07795e-06
-7.78485e-07
-1.91375e-06
-8.26881e-07
-1.73897e-06
-8.6591e-07
-1.55533e-06
-8.92989e-07
-1.36495e-06
-9.05955e-07
-1.17073e-06
-9.02293e-07
-9.75831e-07
-8.80589e-07
-7.84356e-07
-8.39362e-07
-6.01038e-07
-7.78793e-07
-4.30079e-07
-7.00613e-07
-2.74554e-07
-6.07314e-07
-1.37172e-07
-5.01634e-07
-2.00103e-08
-3.87169e-07
7.57421e-08
-2.68201e-07
1.49707e-07
-1.49113e-07
2.02449e-07
-3.41429e-08
2.34888e-07
7.2771e-08
2.4753e-07
1.67601e-07
2.40686e-07
2.46072e-07
2.14688e-07
3.02829e-07
1.70524e-07
3.319e-07
1.1127e-07
3.2841e-07
4.46373e-08
2.82801e-07
1.53664e-07
3.77873e-08
-1.33232e-07
8.29011e-08
-2.45377e-07
1.11178e-07
-2.42517e-07
1.23591e-07
-1.98275e-07
1.2308e-07
-1.38112e-07
1.11643e-07
-7.51588e-08
9.02545e-08
-1.46013e-08
5.90311e-08
4.09929e-08
1.74817e-08
9.07725e-08
-3.55476e-08
1.35472e-07
-1.0145e-07
1.77103e-07
-1.81621e-07
2.1843e-07
-2.77231e-07
2.62216e-07
-3.89105e-07
3.10558e-07
-5.1765e-07
3.64526e-07
-6.62593e-07
4.23952e-07
-8.22782e-07
4.87647e-07
-9.95804e-07
5.53484e-07
-1.17814e-06
6.18427e-07
-1.3652e-06
6.7872e-07
-1.55248e-06
7.31823e-07
-1.73506e-06
7.74183e-07
-1.90783e-06
8.03734e-07
-2.06785e-06
8.2029e-07
-2.21433e-06
8.24709e-07
-2.34756e-06
8.18589e-07
-2.46831e-06
8.03503e-07
-2.57761e-06
7.80987e-07
-2.67633e-06
7.52354e-07
-2.76527e-06
7.18675e-07
-2.84519e-06
6.80847e-07
-2.91673e-06
6.39498e-07
-2.98049e-06
5.95225e-07
-3.03699e-06
5.4855e-07
-3.08664e-06
4.99882e-07
-3.12972e-06
4.49557e-07
-3.16639e-06
3.97786e-07
-3.1968e-06
3.44904e-07
-3.22105e-06
2.91004e-07
-3.23921e-06
2.36169e-07
-3.25108e-06
1.80108e-07
-3.25675e-06
1.23176e-07
-3.25616e-06
6.50207e-08
-3.24892e-06
5.15025e-09
-3.23522e-06
-5.58023e-08
-3.21437e-06
-1.18983e-07
-3.1859e-06
-1.8428e-07
-3.14935e-06
-2.51786e-07
-3.10412e-06
-3.21684e-07
-3.04946e-06
-3.93969e-07
-2.9846e-06
-4.68304e-07
-2.9087e-06
-5.44454e-07
-2.82101e-06
-6.21745e-07
-2.72106e-06
-6.99159e-07
-2.60827e-06
-7.75689e-07
-2.482e-06
-8.495e-07
-2.34211e-06
-9.18379e-07
-2.18863e-06
-9.80354e-07
-2.02218e-06
-1.03236e-06
-1.84417e-06
-1.071e-06
-1.65608e-06
-1.09404e-06
-1.4606e-06
-1.09777e-06
-1.2607e-06
-1.08049e-06
-1.06017e-06
-1.0399e-06
-8.63542e-07
-9.75419e-07
-6.76213e-07
-8.87943e-07
-5.02648e-07
-7.80878e-07
-3.4621e-07
-6.58072e-07
-2.09734e-07
-5.23645e-07
-9.5191e-08
-3.82744e-07
-3.36986e-09
-2.40934e-07
6.61032e-08
-1.03616e-07
1.14473e-07
2.44014e-08
1.43356e-07
1.38718e-07
1.53738e-07
2.35689e-07
1.46263e-07
3.10304e-07
1.21397e-07
3.56766e-07
8.13811e-08
3.68426e-07
3.24314e-08
3.3175e-07
1.86095e-07
3.76146e-08
-1.70846e-07
6.98633e-08
-2.77626e-07
8.31638e-08
-2.55817e-07
8.07579e-08
-1.95869e-07
6.6501e-08
-1.23855e-07
4.17741e-08
-5.0432e-08
6.88232e-09
2.02904e-08
-3.86609e-08
8.65361e-08
-9.59168e-08
1.48028e-07
-1.66295e-07
2.0585e-07
-2.51284e-07
2.62092e-07
-3.52144e-07
3.1929e-07
-4.69672e-07
3.79744e-07
-6.0403e-07
4.44916e-07
-7.54599e-07
5.15095e-07
-9.19774e-07
5.89127e-07
-1.09662e-06
6.64491e-07
-1.28098e-06
7.37846e-07
-1.46819e-06
8.05634e-07
-1.65319e-06
8.6372e-07
-1.83002e-06
9.08658e-07
-1.99475e-06
9.38912e-07
-2.14588e-06
9.5486e-07
-2.28352e-06
9.57935e-07
-2.40859e-06
9.49776e-07
-2.5221e-06
9.32098e-07
-2.6251e-06
9.06505e-07
-2.71857e-06
8.74454e-07
-2.80327e-06
8.37062e-07
-2.87988e-06
7.95278e-07
-2.9489e-06
7.49875e-07
-3.01086e-06
7.01453e-07
-3.06619e-06
6.50556e-07
-3.11525e-06
5.97606e-07
-3.15834e-06
5.4298e-07
-3.19576e-06
4.86978e-07
-3.22745e-06
4.29476e-07
-3.25364e-06
3.71086e-07
-3.27444e-06
3.11809e-07
-3.28992e-06
2.5165e-07
-3.30034e-06
1.90526e-07
-3.30542e-06
1.28259e-07
-3.30509e-06
6.46832e-08
-3.29904e-06
-8.93949e-10
-3.28771e-06
-6.71317e-08
-3.27099e-06
-1.35703e-07
-3.24882e-06
-2.06454e-07
-3.221e-06
-2.79607e-07
-3.18726e-06
-3.55426e-07
-3.14702e-06
-4.34209e-07
-3.09929e-06
-5.16032e-07
-3.04306e-06
-6.00681e-07
-2.977e-06
-6.87807e-07
-2.89927e-06
-7.76889e-07
-2.808e-06
-8.66962e-07
-2.70179e-06
-9.55701e-07
-2.58007e-06
-1.04011e-06
-2.44295e-06
-1.11747e-06
-2.2908e-06
-1.18451e-06
-2.12379e-06
-1.23801e-06
-1.94273e-06
-1.27511e-06
-1.75017e-06
-1.29033e-06
-1.54856e-06
-1.2821e-06
-1.34156e-06
-1.24689e-06
-1.13342e-06
-1.18356e-06
-9.29563e-07
-1.0918e-06
-7.36446e-07
-9.73995e-07
-5.58904e-07
-8.35614e-07
-4.00531e-07
-6.82018e-07
-2.64334e-07
-5.18941e-07
-1.52101e-07
-3.53167e-07
-6.40961e-08
-1.91621e-07
9.15184e-10
-4.06098e-08
4.47279e-08
9.49052e-08
6.98611e-08
2.10556e-07
7.78707e-08
3.02294e-07
6.9586e-08
3.6505e-07
4.72942e-08
3.90718e-07
1.73148e-08
3.6173e-07
2.0341e-07
3.26666e-08
-2.03513e-07
4.95094e-08
-2.94469e-07
4.6684e-08
-2.52992e-07
2.92354e-08
-1.78421e-07
9.55911e-10
-9.55758e-08
-3.7516e-08
-1.196e-08
-8.66319e-08
6.94064e-08
-1.47345e-07
1.4725e-07
-2.20976e-07
2.21659e-07
-3.08945e-07
2.9382e-07
-4.12512e-07
3.65659e-07
-5.32499e-07
4.39276e-07
-6.69016e-07
5.16262e-07
-8.21345e-07
5.97246e-07
-9.8769e-07
6.8144e-07
-1.16477e-06
7.66211e-07
-1.34816e-06
8.47879e-07
-1.53291e-06
9.22598e-07
-1.71297e-06
9.85691e-07
-1.88312e-06
1.03387e-06
-2.04033e-06
1.06587e-06
-2.18404e-06
1.08263e-06
-2.31474e-06
1.08555e-06
-2.43337e-06
1.07657e-06
-2.54104e-06
1.05744e-06
-2.63883e-06
1.02989e-06
-2.72767e-06
9.95342e-07
-2.80826e-06
9.55046e-07
-2.88116e-06
9.09969e-07
-2.94685e-06
8.60967e-07
-3.00572e-06
8.08737e-07
-3.05813e-06
7.53862e-07
-3.10439e-06
6.96823e-07
-3.14471e-06
6.37918e-07
-3.17929e-06
5.77569e-07
-3.2087e-06
5.16382e-07
-3.23369e-06
4.54467e-07
-3.25436e-06
3.91754e-07
-3.27071e-06
3.28159e-07
-3.28258e-06
2.63519e-07
-3.29017e-06
1.98121e-07
-3.29337e-06
1.31461e-07
-3.29227e-06
6.3578e-08
-3.28699e-06
-6.17259e-09
-3.27757e-06
-7.65545e-08
-3.26405e-06
-1.49221e-07
-3.24631e-06
-2.24192e-07
-3.22416e-06
-3.01759e-07
-3.1974e-06
-3.82185e-07
-3.16587e-06
-4.65745e-07
-3.12921e-06
-5.52689e-07
-3.08697e-06
-6.42921e-07
-3.03846e-06
-7.36319e-07
-2.98292e-06
-8.32429e-07
-2.91926e-06
-9.30613e-07
-2.8447e-06
-1.03027e-06
-2.75521e-06
-1.1296e-06
-2.64698e-06
-1.2257e-06
-2.51849e-06
-1.31301e-06
-2.37048e-06
-1.38602e-06
-2.20508e-06
-1.4405e-06
-2.0228e-06
-1.47261e-06
-1.82589e-06
-1.47901e-06
-1.61782e-06
-1.45496e-06
-1.4026e-06
-1.39879e-06
-1.18511e-06
-1.30929e-06
-9.72606e-07
-1.1865e-06
-7.72607e-07
-1.03561e-06
-5.90439e-07
-8.64186e-07
-4.30002e-07
-6.79378e-07
-2.94432e-07
-4.88737e-07
-1.85248e-07
-3.00804e-07
-1.02081e-07
-1.23777e-07
-4.26309e-08
3.54551e-08
-3.69163e-09
1.71617e-07
1.74032e-08
2.812e-07
2.30786e-08
3.59375e-07
1.63293e-08
3.97467e-07
3.59907e-09
3.7446e-07
2.07009e-07
2.33361e-08
-2.26849e-07
2.33841e-08
-2.94517e-07
3.84292e-09
-2.33451e-07
-2.80666e-08
-1.46511e-07
-7.03493e-08
-5.3293e-08
-1.22946e-07
4.06366e-08
-1.8667e-07
1.3313e-07
-2.62763e-07
2.23343e-07
-3.52554e-07
3.1145e-07
-4.5723e-07
3.98495e-07
-5.77593e-07
4.86023e-07
-7.13777e-07
5.7546e-07
-8.65138e-07
6.67623e-07
-1.02995e-06
7.62056e-07
-1.20476e-06
8.56253e-07
-1.38501e-06
9.46456e-07
-1.56545e-06
1.02832e-06
-1.73992e-06
1.09707e-06
-1.90371e-06
1.14949e-06
-2.05464e-06
1.1848e-06
-2.19229e-06
1.20351e-06
-2.31722e-06
1.20756e-06
-2.43043e-06
1.19876e-06
-2.53303e-06
1.17918e-06
-2.62605e-06
1.15045e-06
-2.71031e-06
1.11416e-06
-2.78648e-06
1.07151e-06
-2.85504e-06
1.02361e-06
-2.91641e-06
9.71341e-07
-2.97097e-06
9.15523e-07
-3.01905e-06
8.5682e-07
-3.06102e-06
7.95831e-07
-3.09734e-06
7.33142e-07
-3.12867e-06
6.69254e-07
-3.15551e-06
6.04406e-07
-3.17766e-06
5.3853e-07
-3.19525e-06
4.72063e-07
-3.20831e-06
4.04805e-07
-3.21706e-06
3.36914e-07
-3.22202e-06
2.68483e-07
-3.22351e-06
1.99606e-07
-3.22197e-06
1.29922e-07
-3.21767e-06
5.92777e-08
-3.21111e-06
-1.27298e-08
-3.20178e-06
-8.58835e-08
-3.18989e-06
-1.6111e-07
-3.17549e-06
-2.38598e-07
-3.15854e-06
-3.18705e-07
-3.13896e-06
-4.01763e-07
-3.11657e-06
-4.88141e-07
-3.09108e-06
-5.78177e-07
-3.06195e-06
-6.72055e-07
-3.02843e-06
-7.69835e-07
-2.98957e-06
-8.71288e-07
-2.9445e-06
-9.75683e-07
-2.89225e-06
-1.08252e-06
-2.83142e-06
-1.19042e-06
-2.75995e-06
-1.29717e-06
-2.67221e-06
-1.40076e-06
-2.56082e-06
-1.49741e-06
-2.42343e-06
-1.57789e-06
-2.26139e-06
-1.63464e-06
-2.07914e-06
-1.66127e-06
-1.87822e-06
-1.65588e-06
-1.66319e-06
-1.61382e-06
-1.43832e-06
-1.53416e-06
-1.21011e-06
-1.41471e-06
-9.87719e-07
-1.25801e-06
-7.80148e-07
-1.07176e-06
-5.93353e-07
-8.66173e-07
-4.31525e-07
-6.50566e-07
-2.97828e-07
-4.34501e-07
-1.93259e-07
-2.28346e-07
-1.16419e-07
-4.13844e-08
-6.37989e-08
1.18996e-07
-3.076e-08
2.48161e-07
-1.34047e-08
3.4202e-07
-6.80037e-09
3.90863e-07
-5.23613e-09
3.72896e-07
2.01773e-07
1.09298e-08
-2.37779e-07
-6.72777e-09
-2.76859e-07
-4.19023e-08
-1.98276e-07
-8.8387e-08
-1.00027e-07
-1.44751e-07
3.07127e-09
-2.11432e-07
1.07317e-07
-2.89615e-07
2.11313e-07
-3.80573e-07
3.143e-07
-4.8543e-07
4.16307e-07
-6.04951e-07
5.18017e-07
-7.39303e-07
6.20374e-07
-8.87973e-07
7.2413e-07
-1.04945e-06
8.291e-07
-1.22042e-06
9.33025e-07
-1.39619e-06
1.03202e-06
-1.57137e-06
1.12164e-06
-1.7403e-06
1.19725e-06
-1.89861e-06
1.25538e-06
-2.0443e-06
1.29517e-06
-2.17682e-06
1.31732e-06
-2.29683e-06
1.32352e-06
-2.40528e-06
1.31601e-06
-2.50326e-06
1.29674e-06
-2.59167e-06
1.26759e-06
-2.67128e-06
1.23006e-06
-2.74265e-06
1.18553e-06
-2.80624e-06
1.1351e-06
-2.86247e-06
1.07984e-06
-2.91175e-06
1.02062e-06
-2.95449e-06
9.58264e-07
-2.99115e-06
8.9348e-07
-3.0222e-06
8.26879e-07
-3.04798e-06
7.58921e-07
-3.06872e-06
6.89999e-07
-3.08473e-06
6.20413e-07
-3.0965e-06
5.50294e-07
-3.10444e-06
4.80006e-07
-3.10917e-06
4.09533e-07
-3.11119e-06
3.38934e-07
-3.11081e-06
2.68111e-07
-3.10815e-06
1.96942e-07
-3.10343e-06
1.25202e-07
-3.09683e-06
5.26789e-08
-3.08863e-06
-2.09264e-08
-3.07871e-06
-9.58046e-08
-3.06735e-06
-1.72472e-07
-3.0547e-06
-2.51249e-07
-3.04087e-06
-3.32536e-07
-3.02591e-06
-4.16719e-07
-3.00984e-06
-5.04218e-07
-2.99258e-06
-5.95432e-07
-2.97394e-06
-6.90699e-07
-2.95352e-06
-7.90256e-07
-2.93067e-06
-8.94137e-07
-2.90421e-06
-1.00214e-06
-2.8728e-06
-1.11393e-06
-2.83468e-06
-1.22854e-06
-2.78794e-06
-1.3439e-06
-2.73052e-06
-1.45818e-06
-2.65992e-06
-1.56801e-06
-2.56867e-06
-1.66914e-06
-2.44687e-06
-1.75644e-06
-2.29281e-06
-1.81533e-06
-2.11034e-06
-1.83834e-06
-1.90555e-06
-1.81861e-06
-1.68232e-06
-1.75739e-06
-1.44643e-06
-1.65059e-06
-1.20625e-06
-1.49819e-06
-9.73121e-07
-1.30488e-06
-7.57885e-07
-1.08141e-06
-5.67223e-07
-8.41228e-07
-4.05549e-07
-5.96175e-07
-2.75782e-07
-3.58114e-07
-1.77972e-07
-1.39194e-07
-1.09313e-07
5.03374e-08
-6.43899e-08
2.03238e-07
-3.72382e-08
3.14868e-07
-2.03206e-08
3.73945e-07
-9.31192e-09
3.61887e-07
1.92461e-07
-3.24827e-09
-2.34531e-07
-3.80873e-08
-2.4202e-07
-8.88079e-08
-1.47556e-07
-1.49523e-07
-3.93119e-08
-2.1958e-07
7.31289e-08
-2.99956e-07
1.87693e-07
-3.91883e-07
3.03241e-07
-4.96511e-07
4.18928e-07
-6.14606e-07
5.34402e-07
-7.46381e-07
6.49792e-07
-8.91454e-07
7.65448e-07
-1.04859e-06
8.81261e-07
-1.21476e-06
9.95277e-07
-1.38538e-06
1.10365e-06
-1.55518e-06
1.20182e-06
-1.71893e-06
1.28538e-06
-1.87248e-06
1.3508e-06
-2.01367e-06
1.39657e-06
-2.14192e-06
1.42342e-06
-2.25764e-06
1.43305e-06
-2.36185e-06
1.42773e-06
-2.45549e-06
1.40964e-06
-2.5394e-06
1.38065e-06
-2.61421e-06
1.3424e-06
-2.68045e-06
1.2963e-06
-2.73855e-06
1.24363e-06
-2.78895e-06
1.1855e-06
-2.8321e-06
1.12299e-06
-2.86851e-06
1.05702e-06
-2.8987e-06
9.88454e-07
-2.92322e-06
9.18e-07
-2.9426e-06
8.46261e-07
-2.95738e-06
7.73697e-07
-2.96807e-06
7.00696e-07
-2.9752e-06
6.27544e-07
-2.97934e-06
5.54429e-07
-2.98086e-06
4.81526e-07
-2.98013e-06
4.08809e-07
-2.97743e-06
3.36234e-07
-2.97299e-06
2.63667e-07
-2.96699e-06
1.90941e-07
-2.95962e-06
1.17834e-07
-2.95105e-06
4.411e-08
-2.94147e-06
-3.05056e-08
-2.93097e-06
-1.06308e-07
-2.91976e-06
-1.83682e-07
-2.90803e-06
-2.62981e-07
-2.89596e-06
-3.44604e-07
-2.88372e-06
-4.28956e-07
-2.87147e-06
-5.16469e-07
-2.85933e-06
-6.0757e-07
-2.84736e-06
-7.02671e-07
-2.83549e-06
-8.02124e-07
-2.82345e-06
-9.06187e-07
-2.81058e-06
-1.01501e-06
-2.79598e-06
-1.12853e-06
-2.77828e-06
-1.24625e-06
-2.75505e-06
-1.36713e-06
-2.72365e-06
-1.48957e-06
-2.68109e-06
-1.61058e-06
-2.62404e-06
-1.72619e-06
-2.5484e-06
-1.83208e-06
-2.44254e-06
-1.92119e-06
-2.29807e-06
-1.98281e-06
-2.11661e-06
-2.00008e-06
-1.90706e-06
-1.96693e-06
-1.67413e-06
-1.88353e-06
-1.42587e-06
-1.74644e-06
-1.17282e-06
-1.55794e-06
-9.28865e-07
-1.32536e-06
-7.06835e-07
-1.06326e-06
-5.14148e-07
-7.88862e-07
-3.55194e-07
-5.17067e-07
-2.32166e-07
-2.62223e-07
-1.43626e-07
-3.8202e-08
-8.46775e-08
1.44289e-07
-4.79031e-08
2.78093e-07
-2.42315e-08
3.50274e-07
-8.7116e-09
3.46367e-07
1.8375e-07
-1.8431e-08
-2.161e-07
-6.99655e-08
-1.90485e-07
-1.35236e-07
-8.22853e-08
-2.09432e-07
3.48846e-08
-2.92533e-07
1.5623e-07
-3.85688e-07
2.80848e-07
-4.90111e-07
4.07663e-07
-6.06667e-07
5.35484e-07
-7.35667e-07
6.63403e-07
-8.76853e-07
7.90977e-07
-1.02924e-06
9.17833e-07
-1.19021e-06
1.04223e-06
-1.35547e-06
1.16054e-06
-1.52001e-06
1.26818e-06
-1.67901e-06
1.36082e-06
-1.82852e-06
1.43489e-06
-1.96598e-06
1.48827e-06
-2.09062e-06
1.52121e-06
-2.20275e-06
1.53555e-06
-2.3032e-06
1.5335e-06
-2.39287e-06
1.51741e-06
-2.47249e-06
1.48926e-06
-2.54263e-06
1.45079e-06
-2.60378e-06
1.40355e-06
-2.6564e-06
1.34892e-06
-2.70098e-06
1.28821e-06
-2.7381e-06
1.22262e-06
-2.76839e-06
1.15328e-06
-2.79253e-06
1.08117e-06
-2.81122e-06
1.00714e-06
-2.82513e-06
9.31912e-07
-2.83491e-06
8.56045e-07
-2.84119e-06
7.79969e-07
-2.8445e-06
7.04008e-07
-2.84533e-06
6.28377e-07
-2.8441e-06
5.53198e-07
-2.84109e-06
4.78519e-07
-2.83656e-06
4.04272e-07
-2.83068e-06
3.30354e-07
-2.82362e-06
2.56611e-07
-2.81553e-06
1.82855e-07
-2.80656e-06
1.08862e-07
-2.79684e-06
3.43882e-08
-2.78651e-06
-4.08383e-08
-2.7757e-06
-1.17116e-07
-2.7646e-06
-1.94785e-07
-2.75339e-06
-2.74187e-07
-2.7423e-06
-3.55697e-07
-2.73154e-06
-4.3971e-07
-2.72137e-06
-5.26644e-07
-2.71201e-06
-6.16928e-07
-2.70369e-06
-7.10994e-07
-2.69655e-06
-8.09259e-07
-2.69063e-06
-9.12104e-07
-2.68579e-06
-1.01985e-06
-2.68163e-06
-1.13269e-06
-2.67733e-06
-1.25055e-06
-2.67141e-06
-1.37305e-06
-2.66174e-06
-1.49924e-06
-2.64503e-06
-1.62729e-06
-2.6169e-06
-1.75432e-06
-2.57337e-06
-1.87561e-06
-2.50899e-06
-1.98556e-06
-2.41573e-06
-2.07608e-06
-2.27909e-06
-2.13672e-06
-2.09848e-06
-2.14754e-06
-1.88252e-06
-2.09948e-06
-1.63823e-06
-1.99073e-06
-1.37636e-06
-1.81981e-06
-1.11018e-06
-1.59153e-06
-8.56424e-07
-1.31702e-06
-6.2988e-07
-1.01541e-06
-4.38396e-07
-7.08551e-07
-2.85918e-07
-4.147e-07
-1.73107e-07
-1.51013e-07
-9.64454e-08
6.76273e-08
-4.85192e-08
2.30167e-07
-2.01498e-08
3.21904e-07
-4.46559e-09
3.30683e-07
1.79284e-07
-3.3595e-08
-1.82505e-07
-1.00629e-07
-1.23452e-07
-1.79546e-07
-3.36793e-09
-2.66285e-07
1.21624e-07
-3.61394e-07
2.51338e-07
-4.66058e-07
3.85513e-07
-5.81334e-07
5.22938e-07
-7.07734e-07
6.61884e-07
-8.45159e-07
8.00827e-07
-9.92844e-07
9.38663e-07
-1.14858e-06
1.07357e-06
-1.30855e-06
1.2022e-06
-1.46814e-06
1.32013e-06
-1.62288e-06
1.42293e-06
-1.76894e-06
1.50688e-06
-1.90348e-06
1.56943e-06
-2.02528e-06
1.61006e-06
-2.13449e-06
1.63042e-06
-2.2318e-06
1.63286e-06
-2.31801e-06
1.61971e-06
-2.3938e-06
1.59319e-06
-2.45969e-06
1.55515e-06
-2.51618e-06
1.50728e-06
-2.56379e-06
1.45115e-06
-2.6031e-06
1.38823e-06
-2.63483e-06
1.31994e-06
-2.65977e-06
1.24756e-06
-2.67874e-06
1.17225e-06
-2.69257e-06
1.095e-06
-2.70205e-06
1.01662e-06
-2.70789e-06
9.37754e-07
-2.71074e-06
8.58893e-07
-2.71115e-06
7.80378e-07
-2.70958e-06
7.02434e-07
-2.70638e-06
6.25181e-07
-2.70184e-06
5.48659e-07
-2.69615e-06
4.72832e-07
-2.68947e-06
3.97592e-07
-2.68192e-06
3.228e-07
-2.67359e-06
2.4828e-07
-2.66457e-06
1.73837e-07
-2.65495e-06
9.92456e-08
-2.64483e-06
2.42664e-08
-2.63431e-06
-5.13633e-08
-2.6235e-06
-1.27921e-07
-2.61258e-06
-2.0571e-07
-2.60172e-06
-2.85047e-07
-2.59114e-06
-3.66272e-07
-2.58111e-06
-4.49746e-07
-2.57189e-06
-5.35856e-07
-2.56381e-06
-6.25012e-07
-2.55716e-06
-7.17639e-07
-2.55225e-06
-8.14176e-07
-2.54929e-06
-9.15064e-07
-2.54842e-06
-1.02072e-06
-2.54961e-06
-1.1315e-06
-2.55255e-06
-1.24761e-06
-2.55652e-06
-1.36908e-06
-2.56023e-06
-1.49553e-06
-2.56148e-06
-1.62604e-06
-2.55696e-06
-1.75884e-06
-2.54174e-06
-1.89083e-06
-2.51005e-06
-2.01725e-06
-2.45574e-06
-2.13039e-06
-2.36999e-06
-2.22248e-06
-2.23842e-06
-2.27912e-06
-2.05659e-06
-2.28131e-06
-1.83202e-06
-2.2153e-06
-1.57458e-06
-2.07726e-06
-1.29829e-06
-1.86782e-06
-1.01973e-06
-1.59558e-06
-7.58782e-07
-1.27635e-06
-5.31851e-07
-9.35482e-07
-3.46504e-07
-6.00048e-07
-2.05506e-07
-2.92011e-07
-1.07235e-07
-3.06439e-08
-4.5594e-08
1.68526e-07
-1.2135e-08
2.88445e-07
1.7251e-09
3.16823e-07
1.81009e-07
-4.80549e-08
-1.3445e-07
-1.292e-07
-4.2307e-08
-2.2031e-07
8.77422e-08
-3.18511e-07
2.19825e-07
-4.24307e-07
3.57134e-07
-5.3891e-07
5.00116e-07
-6.63148e-07
6.47177e-07
-7.972e-07
7.95935e-07
-9.40518e-07
9.44145e-07
-1.09127e-06
1.08942e-06
-1.2462e-06
1.2285e-06
-1.40127e-06
1.35727e-06
-1.55226e-06
1.47112e-06
-1.69545e-06
1.56612e-06
-1.82779e-06
1.63923e-06
-1.94759e-06
1.68922e-06
-2.05467e-06
1.71714e-06
-2.14959e-06
1.72534e-06
-2.23304e-06
1.71631e-06
-2.30567e-06
1.69234e-06
-2.36801e-06
1.65553e-06
-2.42057e-06
1.60771e-06
-2.46395e-06
1.55066e-06
-2.49884e-06
1.48605e-06
-2.52611e-06
1.4155e-06
-2.54668e-06
1.34051e-06
-2.5615e-06
1.26239e-06
-2.57152e-06
1.18227e-06
-2.57759e-06
1.10107e-06
-2.58049e-06
1.01951e-06
-2.58087e-06
9.38133e-07
-2.57927e-06
8.57297e-07
-2.57613e-06
7.77236e-07
-2.57177e-06
6.98075e-07
-2.56644e-06
6.19848e-07
-2.5603e-06
5.42516e-07
-2.55345e-06
4.65984e-07
-2.54597e-06
3.90116e-07
-2.53793e-06
3.14751e-07
-2.52934e-06
2.39692e-07
-2.52024e-06
1.64742e-07
-2.51068e-06
8.96869e-08
-2.50072e-06
1.42985e-08
-2.49041e-06
-6.16733e-08
-2.47986e-06
-1.38472e-07
-2.4692e-06
-2.16366e-07
-2.45861e-06
-2.95636e-07
-2.4483e-06
-3.76581e-07
-2.43853e-06
-4.59517e-07
-2.4296e-06
-5.4479e-07
-2.42184e-06
-6.32767e-07
-2.41563e-06
-7.23849e-07
-2.41134e-06
-8.18465e-07
-2.40933e-06
-9.17071e-07
-2.40992e-06
-1.02014e-06
-2.41329e-06
-1.12813e-06
-2.41946e-06
-1.24144e-06
-2.42818e-06
-1.36036e-06
-2.43876e-06
-1.48495e-06
-2.44992e-06
-1.61488e-06
-2.45952e-06
-1.74923e-06
-2.46418e-06
-1.88617e-06
-2.45899e-06
-2.02245e-06
-2.43659e-06
-2.15279e-06
-2.38978e-06
-2.26929e-06
-2.30826e-06
-2.36064e-06
-2.17767e-06
-2.4119e-06
-1.99147e-06
-2.4015e-06
-1.75566e-06
-2.31306e-06
-1.48351e-06
-2.13998e-06
-1.19278e-06
-1.88631e-06
-9.04054e-07
-1.56508e-06
-6.40766e-07
-1.19877e-06
-4.19807e-07
-8.21007e-07
-2.47525e-07
-4.64293e-07
-1.24425e-07
-1.53744e-07
-4.60613e-08
9.01623e-08
-5.33391e-09
2.47718e-07
7.31183e-09
3.04177e-07
1.88321e-07
-6.12112e-08
-7.32387e-08
-1.54632e-07
5.1114e-08
-2.56755e-07
1.89865e-07
-3.64921e-07
3.27991e-07
-4.79838e-07
4.7205e-07
-6.02608e-07
6.22886e-07
-7.33826e-07
7.78395e-07
-8.73261e-07
9.35371e-07
-1.01946e-06
1.09034e-06
-1.16974e-06
1.23969e-06
-1.32072e-06
1.37948e-06
-1.46845e-06
1.505e-06
-1.6093e-06
1.61197e-06
-1.74012e-06
1.69694e-06
-1.85878e-06
1.75788e-06
-1.96462e-06
1.79506e-06
-2.05801e-06
1.81053e-06
-2.13957e-06
1.8069e-06
-2.20991e-06
1.78664e-06
-2.26958e-06
1.75201e-06
-2.31913e-06
1.70509e-06
-2.35923e-06
1.64782e-06
-2.39071e-06
1.58214e-06
-2.41454e-06
1.50987e-06
-2.43176e-06
1.43273e-06
-2.44345e-06
1.3522e-06
-2.45064e-06
1.26958e-06
-2.45425e-06
1.18588e-06
-2.45509e-06
1.10191e-06
-2.45382e-06
1.01825e-06
-2.45098e-06
9.35293e-07
-2.44698e-06
8.53293e-07
-2.44211e-06
7.72371e-07
-2.43659e-06
6.92554e-07
-2.43055e-06
6.13802e-07
-2.42405e-06
5.36019e-07
-2.41713e-06
4.59067e-07
-2.4098e-06
3.82787e-07
-2.40206e-06
3.07007e-07
-2.39389e-06
2.31522e-07
-2.38528e-06
1.56132e-07
-2.37624e-06
8.06438e-08
-2.36679e-06
4.84877e-09
-2.35697e-06
-7.14933e-08
-2.34686e-06
-1.48582e-07
-2.33657e-06
-2.26655e-07
-2.32625e-06
-3.05953e-07
-2.3161e-06
-3.86728e-07
-2.30637e-06
-4.6925e-07
-2.29735e-06
-5.53813e-07
-2.28938e-06
-6.40737e-07
-2.28285e-06
-7.30376e-07
-2.27819e-06
-8.23124e-07
-2.27584e-06
-9.19422e-07
-2.27623e-06
-1.01975e-06
-2.27973e-06
-1.12463e-06
-2.2866e-06
-1.23457e-06
-2.29689e-06
-1.35007e-06
-2.31034e-06