/*--------------------------------*- C++ -*----------------------------------*\
  =========                 |
  \\      /  F ield         | OpenFOAM: The Open Source CFD Toolbox
   \\    /   O peration     | Website:  https://openfoam.org
    \\  /    A nd           | Version:  13
     \\/     M anipulation  |
\*---------------------------------------------------------------------------*/
FoamFile
{
    format      ascii;
    class       volVectorField;
    location    "8.8";
    object      U;
}
// * * * * * * * * * * * * * * * * * * * * * * * * * * * * * * * * * * * * * //

dimensions      [0 1 -1 0 0 0 0];

internalField   nonuniform List<vector> 
6400
(
(-0.000126944 8.31717e-05 0)
(0.000453645 -0.000176867 0)
(0.00212374 -0.00044189 0)
(0.0043247 -0.000558619 0)
(0.00651023 -0.000491751 0)
(0.00832894 -0.000327382 0)
(0.00953498 -0.000130545 0)
(0.0101352 1.62853e-05 0)
(0.0102583 6.97014e-05 0)
(0.0101497 4.69328e-05 0)
(0.00993316 -3.3172e-05 0)
(0.00977895 -0.000141435 0)
(0.00974979 -0.000253081 0)
(0.00984353 -0.000343514 0)
(0.0100107 -0.000416084 0)
(0.0101721 -0.000468963 0)
(0.0102528 -0.000501916 0)
(0.0102018 -0.000502851 0)
(0.00997456 -0.000482221 0)
(0.00947664 -0.000440281 0)
(0.00867275 -0.000391398 0)
(0.00750172 -0.00034177 0)
(0.00592306 -0.000295016 0)
(0.00390799 -0.000277786 0)
(0.00142088 -0.000328014 0)
(-0.00150657 -0.000445129 0)
(-0.00491924 -0.000483162 0)
(-0.00904185 -0.000286318 0)
(-0.0139844 0.00025855 0)
(-0.0197968 0.00115008 0)
(-0.0271963 0.00219951 0)
(-0.0354089 0.00308587 0)
(-0.0442892 0.00379693 0)
(-0.0535257 0.00432055 0)
(-0.0628602 0.00466345 0)
(-0.0720566 0.0048409 0)
(-0.080929 0.004878 0)
(-0.0893218 0.00479842 0)
(-0.0971188 0.00462477 0)
(-0.104222 0.00437492 0)
(-0.110555 0.00406071 0)
(-0.116056 0.00369068 0)
(-0.120683 0.00326685 0)
(-0.124411 0.00279344 0)
(-0.127217 0.00228537 0)
(-0.128876 0.00181169 0)
(-0.129557 0.0013789 0)
(-0.129387 0.000643459 0)
(-0.127811 9.20414e-05 0)
(-0.125313 -0.000602755 0)
(-0.121521 -0.00124117 0)
(-0.116649 -0.00191122 0)
(-0.11056 -0.00254827 0)
(-0.103369 -0.00317337 0)
(-0.0951086 -0.00378208 0)
(-0.0858663 -0.00436425 0)
(-0.0756682 -0.00487014 0)
(-0.0647071 -0.00529779 0)
(-0.0531391 -0.00561402 0)
(-0.0411807 -0.00578672 0)
(-0.0290756 -0.00577873 0)
(-0.0171056 -0.00557702 0)
(-0.00547699 -0.00518118 0)
(0.00528684 -0.00469109 0)
(0.0148726 -0.00391127 0)
(0.0231411 -0.00296559 0)
(0.0297378 -0.00189769 0)
(0.0343851 -0.0007434 0)
(0.0371092 0.000417778 0)
(0.037301 0.00162278 0)
(0.0358181 0.00229001 0)
(0.0322048 0.00287108 0)
(0.0268706 0.0030632 0)
(0.0207078 0.00275951 0)
(0.0144885 0.00205757 0)
(0.00901354 0.00121427 0)
(0.00472373 0.000526818 0)
(0.00177105 0.000118991 0)
(0.000139399 -0.000171641 0)
(-0.000239981 -0.000348583 0)
(1.67158e-05 -0.000390757 0)
(0.00184166 -0.00213451 0)
(0.00530621 -0.00358284 0)
(0.00916227 -0.00406577 0)
(0.0127085 -0.00367105 0)
(0.0155276 -0.00278689 0)
(0.0174427 -0.0017115 0)
(0.0184844 -0.000736391 0)
(0.0187777 -4.62135e-05 0)
(0.0184863 0.000329555 0)
(0.0178098 0.000433769 0)
(0.0169173 0.000350671 0)
(0.0158942 0.000202806 0)
(0.0147323 0.00010262 0)
(0.0133593 0.000113151 0)
(0.011673 0.000246903 0)
(0.00958918 0.000482417 0)
(0.00703771 0.000807567 0)
(0.00390538 0.00123754 0)
(8.5844e-05 0.00178222 0)
(-0.00453068 0.00244611 0)
(-0.0101855 0.00324875 0)
(-0.0169528 0.00415162 0)
(-0.024905 0.00514866 0)
(-0.0340892 0.00625754 0)
(-0.044611 0.00748378 0)
(-0.0563502 0.00885347 0)
(-0.068955 0.0103646 0)
(-0.0820391 0.0119517 0)
(-0.0950669 0.0134353 0)
(-0.107536 0.0145238 0)
(-0.119636 0.0151902 0)
(-0.131078 0.015443 0)
(-0.141785 0.0153107 0)
(-0.151658 0.0148637 0)
(-0.160631 0.0141536 0)
(-0.168665 0.0132374 0)
(-0.175727 0.0121596 0)
(-0.181803 0.0109584 0)
(-0.186879 0.00966205 0)
(-0.19094 0.0082877 0)
(-0.193988 0.00685212 0)
(-0.19601 0.00536169 0)
(-0.197006 0.00382741 0)
(-0.196964 0.00225903 0)
(-0.195848 0.000670169 0)
(-0.193674 -0.000964605 0)
(-0.190438 -0.00269034 0)
(-0.186075 -0.00444484 0)
(-0.180653 -0.00623793 0)
(-0.174096 -0.00804559 0)
(-0.166448 -0.00985352 0)
(-0.157674 -0.0116381 0)
(-0.147807 -0.0133685 0)
(-0.136853 -0.0150105 0)
(-0.1249 -0.0165136 0)
(-0.112059 -0.0178426 0)
(-0.0984302 -0.0189346 0)
(-0.0841963 -0.0197214 0)
(-0.0695734 -0.0201521 0)
(-0.0547748 -0.02016 0)
(-0.0400591 -0.0197054 0)
(-0.0257081 -0.0187671 0)
(-0.0120499 -0.0173784 0)
(0.000637581 -0.0154492 0)
(0.0121012 -0.013059 0)
(0.0220621 -0.0102544 0)
(0.0302784 -0.00713346 0)
(0.0365832 -0.00377864 0)
(0.0408003 -0.000375864 0)
(0.0429167 0.00283203 0)
(0.0428072 0.00577706 0)
(0.0405648 0.00818946 0)
(0.0364192 0.00972173 0)
(0.0304 0.00993278 0)
(0.0230128 0.00898082 0)
(0.0152612 0.00713132 0)
(0.00825192 0.00481292 0)
(0.00307085 0.00232462 0)
(0.00022646 0.000271809 0)
(0.000208738 -0.00166189 0)
(0.00325138 -0.00547157 0)
(0.00757372 -0.00772458 0)
(0.0116017 -0.00798285 0)
(0.0149001 -0.00685788 0)
(0.0172623 -0.00502325 0)
(0.0187191 -0.00305663 0)
(0.0193314 -0.00128564 0)
(0.0191764 0.000108067 0)
(0.0183595 0.00104331 0)
(0.0170258 0.00155442 0)
(0.0152507 0.00178797 0)
(0.0130497 0.00194052 0)
(0.0103841 0.00218639 0)
(0.00716211 0.00263351 0)
(0.00328574 0.00330492 0)
(-0.00137502 0.00419454 0)
(-0.00697739 0.00531312 0)
(-0.0136487 0.00668487 0)
(-0.0215089 0.0083434 0)
(-0.0306411 0.010292 0)
(-0.0410144 0.0124657 0)
(-0.0526095 0.0147841 0)
(-0.0652747 0.0171264 0)
(-0.0787526 0.0193655 0)
(-0.0927364 0.02141 0)
(-0.106854 0.0231607 0)
(-0.120787 0.0245564 0)
(-0.134196 0.0255389 0)
(-0.146826 0.0260859 0)
(-0.158519 0.0261903 0)
(-0.169224 0.0258517 0)
(-0.178881 0.0251169 0)
(-0.187554 0.0240221 0)
(-0.19524 0.0226155 0)
(-0.201979 0.0209673 0)
(-0.207793 0.0191253 0)
(-0.212707 0.017134 0)
(-0.216732 0.0150243 0)
(-0.219883 0.0128322 0)
(-0.222166 0.0105663 0)
(-0.223582 0.0082402 0)
(-0.22413 0.00586123 0)
(-0.2238 0.0034288 0)
(-0.222581 0.000944762 0)
(-0.220456 -0.00159766 0)
(-0.217392 -0.00421052 0)
(-0.213378 -0.00688999 0)
(-0.208386 -0.00960346 0)
(-0.202404 -0.0123662 0)
(-0.195404 -0.0151516 0)
(-0.187378 -0.0179433 0)
(-0.178315 -0.0207082 0)
(-0.168225 -0.023404 0)
(-0.157128 -0.0259714 0)
(-0.145071 -0.02834 0)
(-0.132138 -0.0304409 0)
(-0.118422 -0.0321779 0)
(-0.104047 -0.0334581 0)
(-0.0892068 -0.0341882 0)
(-0.0741182 -0.0342795 0)
(-0.0590135 -0.0336575 0)
(-0.0441807 -0.0322944 0)
(-0.0299264 -0.0301981 0)
(-0.0165194 -0.0273541 0)
(-0.00418871 -0.0238067 0)
(0.00681232 -0.0196296 0)
(0.0162703 -0.0149415 0)
(0.0240509 -0.0098944 0)
(0.0300377 -0.00467284 0)
(0.03421 0.000498904 0)
(0.0365314 0.00538835 0)
(0.0368686 0.00964806 0)
(0.0351397 0.0130173 0)
(0.0316693 0.0152501 0)
(0.0265168 0.0157732 0)
(0.0198785 0.0146723 0)
(0.0126486 0.0120228 0)
(0.005913 0.00794675 0)
(0.00078938 0.00294448 0)
(0.0004356 -0.00365274 0)
(0.00433491 -0.00965856 0)
(0.00874618 -0.0119967 0)
(0.0122707 -0.0114485 0)
(0.0147976 -0.00931792 0)
(0.0163275 -0.0065496 0)
(0.0169646 -0.00371929 0)
(0.0168025 -0.00116975 0)
(0.0159222 0.000902398 0)
(0.0143793 0.00243107 0)
(0.0121717 0.00350251 0)
(0.00927531 0.00430886 0)
(0.005638 0.0050853 0)
(0.00118851 0.00603464 0)
(-0.0041465 0.00727561 0)
(-0.0104707 0.00885975 0)
(-0.0179046 0.0108025 0)
(-0.026566 0.0131075 0)
(-0.0365321 0.0157635 0)
(-0.0478113 0.0187336 0)
(-0.0603107 0.02192 0)
(-0.0738235 0.025173 0)
(-0.0880553 0.0283144 0)
(-0.102635 0.0311767 0)
(-0.117265 0.033664 0)
(-0.131597 0.0355891 0)
(-0.14534 0.036862 0)
(-0.158218 0.0375044 0)
(-0.170073 0.0375783 0)
(-0.180872 0.0371331 0)
(-0.190594 0.0362254 0)
(-0.199299 0.0348942 0)
(-0.207029 0.0331806 0)
(-0.213856 0.0311541 0)
(-0.21982 0.0288625 0)
(-0.224982 0.0263608 0)
(-0.229373 0.0236904 0)
(-0.233022 0.0208937 0)
(-0.235946 0.0179936 0)
(-0.238155 0.015011 0)
(-0.239654 0.0119568 0)
(-0.240434 0.00883682 0)
(-0.240489 0.00565121 0)
(-0.239802 0.00239822 0)
(-0.238356 -0.000924177 0)
(-0.23612 -0.00432528 0)
(-0.233065 -0.00780601 0)
(-0.229166 -0.0113786 0)
(-0.224391 -0.0150254 0)
(-0.218707 -0.0187409 0)
(-0.212086 -0.0225032 0)
(-0.204504 -0.0262891 0)
(-0.195937 -0.0300596 0)
(-0.186372 -0.0337584 0)
(-0.175807 -0.0373051 0)
(-0.164261 -0.0406029 0)
(-0.151785 -0.0435564 0)
(-0.138455 -0.0460496 0)
(-0.124371 -0.047941 0)
(-0.109673 -0.0490909 0)
(-0.0945586 -0.0493814 0)
(-0.0792438 -0.0487004 0)
(-0.0639932 -0.0469828 0)
(-0.0491279 -0.0442008 0)
(-0.0349935 -0.0404265 0)
(-0.0218394 -0.035721 0)
(-0.00990023 -0.0301747 0)
(0.000607402 -0.0239473 0)
(0.00953061 -0.0172535 0)
(0.0167627 -0.010332 0)
(0.0222572 -0.00342997 0)
(0.0260278 0.00322359 0)
(0.0281255 0.00932091 0)
(0.0285468 0.0144557 0)
(0.027167 0.0182861 0)
(0.0240296 0.0205105 0)
(0.0193027 0.0206923 0)
(0.0133931 0.0186839 0)
(0.00697762 0.0142857 0)
(0.00108524 0.00675007 0)
(0.000722948 -0.00621046 0)
(0.0050165 -0.0140733 0)
(0.00888465 -0.0157843 0)
(0.0115218 -0.0141025 0)
(0.0130754 -0.0108718 0)
(0.0136241 -0.00715423 0)
(0.0133174 -0.00349861 0)
(0.0122414 -0.000209922 0)
(0.010432 0.00256033 0)
(0.00787447 0.00480205 0)
(0.00450366 0.00663567 0)
(0.000230445 0.0082777 0)
(-0.00503823 0.00997392 0)
(-0.0113905 0.0119289 0)
(-0.0189084 0.0142714 0)
(-0.0276693 0.0170583 0)
(-0.0377308 0.0202943 0)
(-0.0491089 0.0239423 0)
(-0.0617336 0.0278996 0)
(-0.0754228 0.0320175 0)
(-0.0898801 0.036068 0)
(-0.104748 0.0398534 0)
(-0.119665 0.0432333 0)
(-0.134324 0.0459299 0)
(-0.148341 0.0478207 0)
(-0.161406 0.0489233 0)
(-0.173436 0.0492602 0)
(-0.184377 0.0488921 0)
(-0.19428 0.0479229 0)
(-0.203187 0.0464468 0)
(-0.211162 0.0445454 0)
(-0.218291 0.0422852 0)
(-0.224621 0.0397175 0)
(-0.230212 0.036894 0)
(-0.235113 0.0338572 0)
(-0.239366 0.0306482 0)
(-0.242993 0.0273009 0)
(-0.24602 0.0238452 0)
(-0.248459 0.0202957 0)
(-0.250312 0.0166662 0)
(-0.251577 0.0129603 0)
(-0.252245 0.0091795 0)
(-0.252304 0.00531517 0)
(-0.251734 0.0013618 0)
(-0.25052 -0.00268383 0)
(-0.248625 -0.00683382 0)
(-0.246017 -0.011097 0)
(-0.242663 -0.0154805 0)
(-0.238532 -0.0199825 0)
(-0.23357 -0.0245885 0)
(-0.22774 -0.0292784 0)
(-0.221002 -0.0340267 0)
(-0.213314 -0.0387878 0)
(-0.204641 -0.0434971 0)
(-0.194959 -0.0480594 0)
(-0.184248 -0.0523504 0)
(-0.17253 -0.0562529 0)
(-0.159849 -0.0596221 0)
(-0.146272 -0.0622756 0)
(-0.131906 -0.064037 0)
(-0.116915 -0.0647489 0)
(-0.101487 -0.0642391 0)
(-0.0858828 -0.0624049 0)
(-0.0703488 -0.0591839 0)
(-0.0552649 -0.0546138 0)
(-0.0410385 -0.0488295 0)
(-0.0279213 -0.0419692 0)
(-0.0161453 -0.0342442 0)
(-0.00591148 -0.0259135 0)
(0.00264021 -0.0172801 0)
(0.00944509 -0.00865442 0)
(0.0145185 -0.00032677 0)
(0.0179303 0.00740036 0)
(0.0197522 0.0142022 0)
(0.0199991 0.0197133 0)
(0.0186769 0.0234895 0)
(0.0157949 0.025085 0)
(0.0115659 0.0241819 0)
(0.00635055 0.0201616 0)
(0.00095909 0.0105882 0)
(0.0010394 -0.00916577 0)
(0.00519756 -0.0181106 0)
(0.00808909 -0.018585 0)
(0.00959162 -0.0157035 0)
(0.0100682 -0.0113747 0)
(0.00957887 -0.0067564 0)
(0.00826811 -0.00230503 0)
(0.00617895 0.00173912 0)
(0.00329227 0.00528407 0)
(-0.000462515 0.0083695 0)
(-0.00519287 0.0111497 0)
(-0.0110141 0.0138506 0)
(-0.018028 0.0167073 0)
(-0.0263142 0.0199071 0)
(-0.0359255 0.0235591 0)
(-0.0468737 0.0276848 0)
(-0.059108 0.0322257 0)
(-0.0724961 0.0370796 0)
(-0.0868055 0.0420135 0)
(-0.101668 0.046772 0)
(-0.116736 0.0511838 0)
(-0.131655 0.0548986 0)
(-0.145967 0.0577278 0)
(-0.159321 0.059613 0)
(-0.171581 0.0605172 0)
(-0.182758 0.0605311 0)
(-0.192903 0.0597822 0)
(-0.202083 0.0583993 0)
(-0.210388 0.0564943 0)
(-0.217872 0.0541542 0)
(-0.22461 0.0514553 0)
(-0.230654 0.048452 0)
(-0.236053 0.0451957 0)
(-0.240853 0.0417301 0)
(-0.245092 0.0380888 0)
(-0.248797 0.0343018 0)
(-0.251981 0.0303944 0)
(-0.254662 0.0263935 0)
(-0.256847 0.0223074 0)
(-0.258542 0.0181421 0)
(-0.259743 0.0138965 0)
(-0.260446 0.00956782 0)
(-0.260647 0.00513867 0)
(-0.26033 0.000594099 0)
(-0.259506 -0.00408738 0)
(-0.258129 -0.00891362 0)
(-0.256163 -0.0138878 0)
(-0.253568 -0.019012 0)
(-0.250301 -0.0242921 0)
(-0.24632 -0.0297216 0)
(-0.241553 -0.0352737 0)
(-0.235936 -0.0409177 0)
(-0.229396 -0.0465965 0)
(-0.221874 -0.0522467 0)
(-0.213387 -0.0578218 0)
(-0.203841 -0.06316 0)
(-0.193184 -0.0680948 0)
(-0.181443 -0.0724638 0)
(-0.168647 -0.0760444 0)
(-0.154838 -0.078616 0)
(-0.140179 -0.0799813 0)
(-0.124791 -0.0799092 0)
(-0.108937 -0.0782765 0)
(-0.0928664 -0.0749217 0)
(-0.0768839 -0.0698369 0)
(-0.0614184 -0.0631417 0)
(-0.046918 -0.0550979 0)
(-0.0336473 -0.0459421 0)
(-0.0218662 -0.0359895 0)
(-0.0117766 -0.0256169 0)
(-0.00349554 -0.0152185 0)
(0.0029598 -0.00517013 0)
(0.00766145 0.00418917 0)
(0.0107407 0.0125373 0)
(0.012311 0.0195541 0)
(0.0124273 0.0248123 0)
(0.0110978 0.0278346 0)
(0.00842213 0.028152 0)
(0.00473991 0.024835 0)
(0.000584466 0.0137685 0)
(0.00129168 -0.0122579 0)
(0.0048187 -0.021255 0)
(0.00639044 -0.020278 0)
(0.0067673 -0.0161001 0)
(0.00608292 -0.0107785 0)
(0.00452291 -0.00531155 0)
(0.00215242 -6.33268e-05 0)
(-0.00103891 0.00479357 0)
(-0.00511894 0.00922084 0)
(-0.0101933 0.0132956 0)
(-0.0163825 0.0171872 0)
(-0.0237979 0.0211123 0)
(-0.032523 0.0252783 0)
(-0.0426003 0.0298337 0)
(-0.0540179 0.0348358 0)
(-0.0666818 0.0402376 0)
(-0.0804406 0.0458986 0)
(-0.0949886 0.0515696 0)
(-0.109936 0.0570305 0)
(-0.124949 0.0619113 0)
(-0.139557 0.0659372 0)
(-0.153279 0.0689073 0)
(-0.16592 0.0707415 0)
(-0.177456 0.0714936 0)
(-0.18795 0.0713043 0)
(-0.197472 0.0703121 0)
(-0.206111 0.0686473 0)
(-0.213951 0.0664317 0)
(-0.221064 0.0637624 0)
(-0.227501 0.06072 0)
(-0.233314 0.05737 0)
(-0.238542 0.0537598 0)
(-0.243223 0.0499335 0)
(-0.247392 0.045927 0)
(-0.251074 0.0417714 0)
(-0.254289 0.0374939 0)
(-0.257049 0.0331206 0)
(-0.25936 0.0286709 0)
(-0.261237 0.0241469 0)
(-0.262681 0.0195528 0)
(-0.263724 0.0148233 0)
(-0.264343 0.0100324 0)
(-0.264534 0.00514049 0)
(-0.264282 0.000137057 0)
(-0.263575 -0.00500884 0)
(-0.262453 -0.0103052 0)
(-0.260895 -0.0157831 0)
(-0.258901 -0.0214715 0)
(-0.256442 -0.0274012 0)
(-0.253498 -0.0335656 0)
(-0.249993 -0.0399177 0)
(-0.245848 -0.0464481 0)
(-0.240978 -0.0531172 0)
(-0.235271 -0.0598524 0)
(-0.228532 -0.0665101 0)
(-0.220657 -0.0729278 0)
(-0.211517 -0.078914 0)
(-0.201151 -0.0843469 0)
(-0.189629 -0.0890414 0)
(-0.176819 -0.0926439 0)
(-0.162909 -0.0949401 0)
(-0.147913 -0.0955999 0)
(-0.132122 -0.0944647 0)
(-0.115718 -0.0913209 0)
(-0.099047 -0.0860972 0)
(-0.0824368 -0.0788142 0)
(-0.0664359 -0.0697458 0)
(-0.051535 -0.0592663 0)
(-0.0380158 -0.0477251 0)
(-0.0261638 -0.0355713 0)
(-0.016182 -0.0232992 0)
(-0.00816042 -0.0113973 0)
(-0.00207059 -0.000298015 0)
(0.00224719 0.00964516 0)
(0.0049915 0.0181252 0)
(0.00630281 0.0247767 0)
(0.00626914 0.0291535 0)
(0.00495404 0.0306451 0)
(0.00274766 0.028037 0)
(0.000115247 0.0158005 0)
(0.00138741 -0.0151373 0)
(0.00377915 -0.0232383 0)
(0.00410661 -0.0207167 0)
(0.0032351 -0.0152749 0)
(0.00139879 -0.00906564 0)
(-0.00125969 -0.00278165 0)
(-0.00474083 0.00329362 0)
(-0.00910193 0.00904144 0)
(-0.0144432 0.0144597 0)
(-0.0208795 0.0196442 0)
(-0.0285211 0.0247605 0)
(-0.0374531 0.0299984 0)
(-0.0477168 0.0355187 0)
(-0.0592931 0.0414039 0)
(-0.0720843 0.0476444 0)
(-0.0859066 0.0540904 0)
(-0.100418 0.0604837 0)
(-0.115259 0.0665487 0)
(-0.129985 0.0719062 0)
(-0.144102 0.0762489 0)
(-0.157227 0.0793556 0)
(-0.169262 0.0812155 0)
(-0.180225 0.0819357 0)
(-0.190176 0.0816653 0)
(-0.199206 0.0805407 0)
(-0.207403 0.078704 0)
(-0.214851 0.0762761 0)
(-0.221615 0.0733642 0)
(-0.227744 0.0700506 0)
(-0.233277 0.0664066 0)
(-0.23825 0.0624899 0)
(-0.242693 0.0583472 0)
(-0.246634 0.0540208 0)
(-0.250093 0.0495485 0)
(-0.253084 0.0449688 0)
(-0.255612 0.0403155 0)
(-0.25779 0.0355134 0)
(-0.259615 0.03063 0)
(-0.261095 0.0256662 0)
(-0.262227 0.020623 0)
(-0.263003 0.0155501 0)
(-0.263432 0.0103651 0)
(-0.263514 0.00508184 0)
(-0.263259 -0.000323011 0)
(-0.26266 -0.00586159 0)
(-0.261744 -0.0115448 0)
(-0.260493 -0.0174 0)
(-0.258903 -0.0234387 0)
(-0.256953 -0.0296686 0)
(-0.254619 -0.0361363 0)
(-0.251891 -0.0429048 0)
(-0.24874 -0.0499551 0)
(-0.245122 -0.0572729 0)
(-0.24098 -0.0648286 0)
(-0.236233 -0.0725887 0)
(-0.230761 -0.080346 0)
(-0.224281 -0.0878521 0)
(-0.216459 -0.0948044 0)
(-0.206966 -0.100762 0)
(-0.195824 -0.105532 0)
(-0.183375 -0.109075 0)
(-0.169403 -0.110824 0)
(-0.154221 -0.110599 0)
(-0.137963 -0.108082 0)
(-0.120976 -0.103155 0)
(-0.103567 -0.0957606 0)
(-0.086192 -0.08599 0)
(-0.0695607 -0.0743381 0)
(-0.0541852 -0.0613123 0)
(-0.0403871 -0.0473792 0)
(-0.028477 -0.0331355 0)
(-0.0186531 -0.0192007 0)
(-0.0109678 -0.00614895 0)
(-0.00530941 0.00556064 0)
(-0.00144282 0.0155729 0)
(0.000909198 0.0236003 0)
(0.00194931 0.0292384 0)
(0.00182594 0.0318226 0)
(0.000872392 0.0297378 0)
(-0.000267805 0.016597 0)
(0.00128751 -0.0175017 0)
(0.00231825 -0.0239201 0)
(0.00132907 -0.0197894 0)
(-0.000772451 -0.0132883 0)
(-0.00374572 -0.00623472 0)
(-0.00752038 0.000867024 0)
(-0.0121421 0.00781372 0)
(-0.0177019 0.0145257 0)
(-0.0243089 0.0210186 0)
(-0.0320671 0.0273862 0)
(-0.0410584 0.0337719 0)
(-0.051324 0.040321 0)
(-0.0628425 0.0471272 0)
(-0.0755379 0.0542077 0)
(-0.0892156 0.0614358 0)
(-0.103505 0.0685489 0)
(-0.118059 0.0752122 0)
(-0.132403 0.0810625 0)
(-0.145998 0.0857448 0)
(-0.15862 0.089091 0)
(-0.17016 0.091097 0)
(-0.180648 0.0919043 0)
(-0.19015 0.0916407 0)
(-0.198761 0.0904729 0)
(-0.206566 0.0885373 0)
(-0.213641 0.085968 0)
(-0.220047 0.0828687 0)
(-0.225826 0.079332 0)
(-0.231015 0.0754311 0)
(-0.235643 0.0712322 0)
(-0.239741 0.06679 0)
(-0.243336 0.0621529 0)
(-0.246453 0.0573646 0)
(-0.249138 0.0524406 0)
(-0.251456 0.0473973 0)
(-0.253427 0.0422629 0)
(-0.255019 0.037117 0)
(-0.256238 0.0319143 0)
(-0.257105 0.0266519 0)
(-0.25764 0.0213262 0)
(-0.257887 0.0159345 0)
(-0.257878 0.0104579 0)
(-0.25764 0.00489304 0)
(-0.257199 -0.00078203 0)
(-0.256569 -0.00658393 0)
(-0.255714 -0.0125429 0)
(-0.254663 -0.0186898 0)
(-0.253407 -0.025053 0)
(-0.251947 -0.0316569 0)
(-0.250269 -0.0385187 0)
(-0.248358 -0.045649 0)
(-0.24618 -0.0530512 0)
(-0.243689 -0.0607145 0)
(-0.24082 -0.0685995 0)
(-0.237478 -0.0766314 0)
(-0.233579 -0.0849003 0)
(-0.229102 -0.0933462 0)
(-0.223859 -0.101744 0)
(-0.217602 -0.109678 0)
(-0.209849 -0.116621 0)
(-0.199818 -0.121735 0)
(-0.187762 -0.124902 0)
(-0.174029 -0.126047 0)
(-0.158633 -0.124667 0)
(-0.141929 -0.120559 0)
(-0.124272 -0.113607 0)
(-0.105993 -0.103734 0)
(-0.087754 -0.0912502 0)
(-0.0704069 -0.0768573 0)
(-0.054529 -0.0612307 0)
(-0.040482 -0.0449717 0)
(-0.0285969 -0.0288378 0)
(-0.019052 -0.0135717 0)
(-0.0118353 0.000185427 0)
(-0.00673589 0.0119567 0)
(-0.0033948 0.0214394 0)
(-0.00145749 0.0282977 0)
(-0.000606197 0.031807 0)
(-0.000459906 0.0301438 0)
(-0.000386848 0.0164564 0)
(0.001033 -0.0188101 0)
(0.000578684 -0.0231916 0)
(-0.00175016 -0.0175615 0)
(-0.00502856 -0.0101367 0)
(-0.00912927 -0.00227891 0)
(-0.0140247 0.00565076 0)
(-0.0197871 0.0135073 0)
(-0.0265237 0.0212334 0)
(-0.0343356 0.0288421 0)
(-0.0433005 0.0364064 0)
(-0.0534584 0.0440297 0)
(-0.0647913 0.0517959 0)
(-0.0772394 0.0597394 0)
(-0.0906304 0.067764 0)
(-0.104599 0.0755993 0)
(-0.118754 0.0829023 0)
(-0.132652 0.0893002 0)
(-0.14581 0.0944181 0)
(-0.157995 0.0981084 0)
(-0.169129 0.100393 0)
(-0.179209 0.101367 0)
(-0.188327 0.101203 0)
(-0.196561 0.10006 0)
(-0.204 0.0980952 0)
(-0.210706 0.0954345 0)
(-0.216735 0.0921946 0)
(-0.222124 0.0884666 0)
(-0.226908 0.0843348 0)
(-0.231119 0.0798694 0)
(-0.23479 0.0751348 0)
(-0.237955 0.0701855 0)
(-0.24065 0.0650693 0)
(-0.242916 0.0598255 0)
(-0.244775 0.0544991 0)
(-0.246233 0.0491154 0)
(-0.247342 0.0436722 0)
(-0.248112 0.0381893 0)
(-0.248607 0.0326616 0)
(-0.248865 0.0271038 0)
(-0.248931 0.021517 0)
(-0.248803 0.0158972 0)
(-0.248503 0.0102242 0)
(-0.248047 0.00448344 0)
(-0.247453 -0.00134947 0)
(-0.246723 -0.00729685 0)
(-0.245867 -0.0133936 0)
(-0.244905 -0.019666 0)
(-0.243842 -0.0261474 0)
(-0.242688 -0.0328696 0)
(-0.241445 -0.0398658 0)
(-0.240112 -0.0471663 0)
(-0.23868 -0.0547944 0)
(-0.237127 -0.0627636 0)
(-0.235407 -0.0710642 0)
(-0.23345 -0.0796521 0)
(-0.231165 -0.0884414 0)
(-0.228432 -0.0973156 0)
(-0.225076 -0.106108 0)
(-0.220923 -0.114877 0)
(-0.215894 -0.123409 0)
(-0.20957 -0.131064 0)
(-0.201311 -0.136992 0)
(-0.190117 -0.140006 0)
(-0.176619 -0.140331 0)
(-0.161048 -0.137629 0)
(-0.14387 -0.131762 0)
(-0.125395 -0.122489 0)
(-0.106153 -0.109902 0)
(-0.0869614 -0.0945028 0)
(-0.0688542 -0.0772524 0)
(-0.052502 -0.0590285 0)
(-0.0383047 -0.0405892 0)
(-0.0265978 -0.0228648 0)
(-0.0175109 -0.00671173 0)
(-0.010935 0.00717935 0)
(-0.00651157 0.018359 0)
(-0.00373173 0.0265126 0)
(-0.00214452 0.030807 0)
(-0.00116144 0.0295804 0)
(-0.00036336 0.015859 0)
(0.000706217 -0.0191334 0)
(-0.00133714 -0.021053 0)
(-0.00493273 -0.0141075 0)
(-0.00935007 -0.00583227 0)
(-0.0145613 0.00279554 0)
(-0.0205519 0.0115538 0)
(-0.0274147 0.0203389 0)
(-0.0352551 0.0290935 0)
(-0.0441533 0.0378084 0)
(-0.0541502 0.0465195 0)
(-0.0652333 0.0552756 0)
(-0.0773556 0.0641099 0)
(-0.0903727 0.0729552 0)
(-0.10395 0.081548 0)
(-0.11768 0.0895343 0)
(-0.131132 0.0965422 0)
(-0.143902 0.102221 0)
(-0.155723 0.106385 0)
(-0.166503 0.109042 0)
(-0.176247 0.110293 0)
(-0.185022 0.110308 0)
(-0.192918 0.109267 0)
(-0.200003 0.107326 0)
(-0.20634 0.104623 0)
(-0.211971 0.101275 0)
(-0.216936 0.0973838 0)
(-0.221266 0.0930385 0)
(-0.224997 0.088322 0)
(-0.228167 0.0833071 0)
(-0.230818 0.0780605 0)
(-0.232994 0.0726392 0)
(-0.234737 0.0670916 0)
(-0.236092 0.0614561 0)
(-0.2371 0.0557639 0)
(-0.237801 0.0500376 0)
(-0.238244 0.0442927 0)
(-0.238459 0.0385476 0)
(-0.238484 0.0328043 0)
(-0.238341 0.0270622 0)
(-0.238052 0.0213126 0)
(-0.237629 0.0155447 0)
(-0.23709 0.00974006 0)
(-0.23645 0.00388052 0)
(-0.23572 -0.00205698 0)
(-0.234912 -0.00809556 0)
(-0.234039 -0.0142678 0)
(-0.233118 -0.0206019 0)
(-0.232161 -0.0271304 0)
(-0.231185 -0.0338857 0)
(-0.230201 -0.040903 0)
(-0.229223 -0.0482163 0)
(-0.228258 -0.0558573 0)
(-0.227307 -0.0638533 0)
(-0.226356 -0.0722226 0)
(-0.22537 -0.0809713 0)
(-0.224292 -0.0900842 0)
(-0.223028 -0.099493 0)
(-0.221432 -0.109056 0)
(-0.219317 -0.118545 0)
(-0.216439 -0.127689 0)
(-0.212477 -0.136366 0)
(-0.207306 -0.144432 0)
(-0.200309 -0.150757 0)
(-0.190413 -0.154074 0)
(-0.177156 -0.153441 0)
(-0.161475 -0.149404 0)
(-0.143671 -0.141503 0)
(-0.124266 -0.129667 0)
(-0.103971 -0.114136 0)
(-0.0837835 -0.0956418 0)
(-0.064946 -0.0754645 0)
(-0.0482313 -0.0547158 0)
(-0.0340703 -0.0343478 0)
(-0.0227693 -0.0154659 0)
(-0.0143676 0.00097361 0)
(-0.00860829 0.0142691 0)
(-0.00490477 0.0239733 0)
(-0.00273138 0.0291194 0)
(-0.00124229 0.0284245 0)
(-0.000191768 0.0150367 0)
(0.000117318 -0.0182633 0)
(-0.00334319 -0.0175703 0)
(-0.00809643 -0.0094451 0)
(-0.0135987 -0.000413908 0)
(-0.0198715 0.00894753 0)
(-0.026898 0.0185226 0)
(-0.034778 0.0282273 0)
(-0.0436048 0.0379841 0)
(-0.0534279 0.0477452 0)
(-0.0642434 0.0574965 0)
(-0.0760131 0.067242 0)
(-0.0886204 0.0769316 0)
(-0.101772 0.086318 0)
(-0.115072 0.0950478 0)
(-0.128111 0.102748 0)
(-0.140532 0.109091 0)
(-0.152055 0.113858 0)
(-0.162542 0.116999 0)
(-0.172002 0.118631 0)
(-0.180485 0.118917 0)
(-0.188072 0.118048 0)
(-0.19483 0.11619 0)
(-0.200809 0.113488 0)
(-0.206051 0.110066 0)
(-0.21059 0.106034 0)
(-0.214466 0.101493 0)
(-0.21772 0.0965365 0)
(-0.220401 0.091251 0)
(-0.222563 0.0857139 0)
(-0.224261 0.0799941 0)
(-0.225549 0.0741493 0)
(-0.226483 0.0682269 0)
(-0.227113 0.0622633 0)
(-0.227485 0.0562872 0)
(-0.227641 0.0503191 0)
(-0.227618 0.0443732 0)
(-0.227442 0.0384578 0)
(-0.227136 0.0325686 0)
(-0.226715 0.0266996 0)
(-0.226194 0.0208389 0)
(-0.225585 0.0149722 0)
(-0.2249 0.00908181 0)
(-0.224149 0.00314826 0)
(-0.223344 -0.00285065 0)
(-0.222494 -0.00893877 0)
(-0.221614 -0.0151451 0)
(-0.220717 -0.0214979 0)
(-0.21982 -0.0280285 0)
(-0.218941 -0.0347693 0)
(-0.218098 -0.0417547 0)
(-0.217312 -0.0490197 0)
(-0.216601 -0.0565984 0)
(-0.21598 -0.0645228 0)
(-0.215458 -0.0728203 0)
(-0.215031 -0.0815125 0)
(-0.214682 -0.0906101 0)
(-0.214363 -0.100102 0)
(-0.213985 -0.109942 0)
(-0.213406 -0.120028 0)
(-0.212415 -0.130136 0)
(-0.210725 -0.139898 0)
(-0.207966 -0.148868 0)
(-0.203712 -0.156936 0)
(-0.197638 -0.163472 0)
(-0.188731 -0.166819 0)
(-0.175796 -0.165407 0)
(-0.159885 -0.159841 0)
(-0.141307 -0.149656 0)
(-0.120857 -0.134988 0)
(-0.0994377 -0.116266 0)
(-0.0782909 -0.0945211 0)
(-0.0588561 -0.0714075 0)
(-0.0420085 -0.0483138 0)
(-0.0281776 -0.0264224 0)
(-0.0175876 -0.0070134 0)
(-0.0101361 0.00890916 0)
(-0.00529708 0.020616 0)
(-0.00251191 0.0270181 0)
(-0.000816389 0.0271111 0)
(6.46364e-05 0.0144556 0)
(-0.000469962 -0.0161383 0)
(-0.00529878 -0.012792 0)
(-0.0111211 -0.00365929 0)
(-0.01764 0.00604884 0)
(-0.0248998 0.0161032 0)
(-0.0328725 0.0264671 0)
(-0.0416552 0.0370533 0)
(-0.0513206 0.0477474 0)
(-0.0618816 0.0584517 0)
(-0.0733079 0.0691074 0)
(-0.0855053 0.0796539 0)
(-0.0982267 0.0898588 0)
(-0.111109 0.0993875 0)
(-0.123775 0.107864 0)
(-0.135886 0.114967 0)
(-0.147166 0.120453 0)
(-0.15743 0.124212 0)
(-0.16666 0.126331 0)
(-0.174906 0.126988 0)
(-0.18223 0.12637 0)
(-0.188697 0.124659 0)
(-0.194353 0.122008 0)
(-0.199238 0.118552 0)
(-0.203389 0.114412 0)
(-0.20685 0.109702 0)
(-0.209675 0.10453 0)
(-0.211923 0.0989962 0)
(-0.213661 0.0931924 0)
(-0.214955 0.0871985 0)
(-0.21587 0.0810827 0)
(-0.216468 0.0748998 0)
(-0.216803 0.0686926 0)
(-0.216922 0.0624923 0)
(-0.216867 0.0563213 0)
(-0.216669 0.0501935 0)
(-0.216355 0.0441151 0)
(-0.215942 0.038086 0)
(-0.215444 0.0320992 0)
(-0.214872 0.0261448 0)
(-0.214235 0.0202095 0)
(-0.213539 0.0142777 0)
(-0.212791 0.00833132 0)
(-0.212 0.00235088 0)
(-0.211171 -0.00368506 0)
(-0.210315 -0.00979958 0)
(-0.209442 -0.0160185 0)
(-0.208566 -0.0223684 0)
(-0.207703 -0.0288782 0)
(-0.206873 -0.0355784 0)
(-0.206097 -0.0425015 0)
(-0.205399 -0.0496816 0)
(-0.204804 -0.0571537 0)
(-0.204336 -0.0649528 0)
(-0.204017 -0.0731127 0)
(-0.203863 -0.0816638 0)
(-0.203879 -0.0906289 0)
(-0.204053 -0.100017 0)
(-0.204348 -0.109819 0)
(-0.204687 -0.119995 0)
(-0.204934 -0.130454 0)
(-0.204871 -0.141018 0)
(-0.204182 -0.151339 0)
(-0.202452 -0.160838 0)
(-0.199125 -0.168882 0)
(-0.193692 -0.175314 0)
(-0.185341 -0.178425 0)
(-0.172635 -0.176184 0)
(-0.156286 -0.168837 0)
(-0.136781 -0.156071 0)
(-0.115172 -0.138237 0)
(-0.0926193 -0.116052 0)
(-0.0706516 -0.090929 0)
(-0.0508996 -0.0649796 0)
(-0.0342956 -0.0398815 0)
(-0.0212111 -0.0171118 0)
(-0.0117283 0.00195811 0)
(-0.00546735 0.0162734 0)
(-0.00192614 0.0245668 0)
(-0.000107209 0.0259173 0)
(0.000360815 0.0143624 0)
(-0.00106112 -0.0128419 0)
(-0.00713145 -0.00683496 0)
(-0.0139143 0.00317048 0)
(-0.0213574 0.0134743 0)
(-0.0295092 0.024169 0)
(-0.0383146 0.0352718 0)
(-0.0478626 0.046673 0)
(-0.0582013 0.0582076 0)
(-0.0693156 0.0697293 0)
(-0.0811292 0.0811238 0)
(-0.0934358 0.0921544 0)
(-0.105925 0.102519 0)
(-0.118258 0.111845 0)
(-0.130102 0.119796 0)
(-0.141186 0.126107 0)
(-0.151296 0.130613 0)
(-0.160365 0.133346 0)
(-0.168431 0.134477 0)
(-0.175552 0.134204 0)
(-0.181782 0.132714 0)
(-0.18717 0.130178 0)
(-0.191754 0.126739 0)
(-0.195576 0.122535 0)
(-0.198689 0.117694 0)
(-0.201155 0.112341 0)
(-0.203047 0.106591 0)
(-0.204441 0.100551 0)
(-0.205415 0.0943131 0)
(-0.20604 0.0879546 0)
(-0.206384 0.0815379 0)
(-0.206502 0.0751106 0)
(-0.206442 0.0687073 0)
(-0.206245 0.062351 0)
(-0.205939 0.0560558 0)
(-0.205547 0.0498275 0)
(-0.205085 0.0436659 0)
(-0.204563 0.0375655 0)
(-0.203989 0.0315166 0)
(-0.203367 0.0255067 0)
(-0.202701 0.0195209 0)
(-0.201992 0.0135437 0)
(-0.201245 0.00755705 0)
(-0.200463 0.00154209 0)
(-0.199649 -0.0045213 0)
(-0.198812 -0.0106544 0)
(-0.197961 -0.01688 0)
(-0.197107 -0.023222 0)
(-0.196266 -0.0297062 0)
(-0.195457 -0.0363599 0)
(-0.194702 -0.0432124 0)
(-0.194028 -0.0502954 0)
(-0.193462 -0.0576423 0)
(-0.193035 -0.0652886 0)
(-0.192776 -0.073271 0)
(-0.192715 -0.0816261 0)
(-0.192871 -0.0903877 0)
(-0.193256 -0.0995819 0)
(-0.193861 -0.109222 0)
(-0.194652 -0.119297 0)
(-0.195554 -0.129763 0)
(-0.196435 -0.140527 0)
(-0.197079 -0.151419 0)
(-0.197155 -0.162132 0)
(-0.196201 -0.172091 0)
(-0.19362 -0.180441 0)
(-0.188639 -0.186476 0)
(-0.180469 -0.189031 0)
(-0.167733 -0.18572 0)
(-0.1507 -0.176261 0)
(-0.130105 -0.160503 0)
(-0.107265 -0.13911 0)
(-0.0836507 -0.11315 0)
(-0.0611621 -0.0845947 0)
(-0.0415511 -0.0560871 0)
(-0.0257484 -0.0295914 0)
(-0.0139684 -0.00685404 0)
(-0.00601332 0.0107112 0)
(-0.00148805 0.0216348 0)
(0.000571051 0.0248694 0)
(0.000569509 0.0147163 0)
(-0.0016218 -0.00844543 0)
(-0.00877352 0.000179577 0)
(-0.0164064 0.010938 0)
(-0.024671 0.0217583 0)
(-0.0335954 0.0330297 0)
(-0.0431007 0.0448034 0)
(-0.0532638 0.0569296 0)
(-0.0641068 0.0691927 0)
(-0.0755779 0.0813813 0)
(-0.0874995 0.0932246 0)
(-0.0996287 0.104436 0)
(-0.111666 0.114661 0)
(-0.123285 0.123532 0)
(-0.134219 0.130763 0)
(-0.144234 0.136137 0)
(-0.153217 0.139619 0)
(-0.161174 0.141346 0)
(-0.168159 0.141521 0)
(-0.174222 0.140344 0)
(-0.17941 0.137996 0)
(-0.183766 0.134641 0)
(-0.187335 0.130428 0)
(-0.190177 0.125505 0)
(-0.192366 0.120013 0)
(-0.193983 0.114085 0)
(-0.195116 0.107843 0)
(-0.19585 0.101392 0)
(-0.196263 0.0948188 0)
(-0.196425 0.0881933 0)
(-0.196395 0.0815679 0)
(-0.19622 0.0749802 0)
(-0.195939 0.0684546 0)
(-0.195579 0.0620055 0)
(-0.19516 0.0556385 0)
(-0.194695 0.0493531 0)
(-0.194192 0.0431436 0)
(-0.193655 0.0370004 0)
(-0.193085 0.030912 0)
(-0.192483 0.0248647 0)
(-0.191846 0.0188419 0)
(-0.191175 0.0128281 0)
(-0.190468 0.00680689 0)
(-0.189728 0.000760095 0)
(-0.188955 -0.00533036 0)
(-0.188156 -0.0114836 0)
(-0.187337 -0.0177195 0)
(-0.186509 -0.0240588 0)
(-0.185686 -0.0305235 0)
(-0.184885 -0.0371373 0)
(-0.184129 -0.0439257 0)
(-0.183442 -0.0509164 0)
(-0.182854 -0.05814 0)
(-0.182399 -0.0656299 0)
(-0.18211 -0.0734227 0)
(-0.182024 -0.0815575 0)
(-0.182175 -0.0900745 0)
(-0.182587 -0.0990125 0)
(-0.183276 -0.108404 0)
(-0.184236 -0.118269 0)
(-0.185431 -0.1286 0)
(-0.18678 -0.139352 0)
(-0.188144 -0.150416 0)