/*--------------------------------*- C++ -*----------------------------------*\
  =========                 |
  \\      /  F ield         | OpenFOAM: The Open Source CFD Toolbox
   \\    /   O peration     | Website:  https://openfoam.org
    \\  /    A nd           | Version:  13
     \\/     M anipulation  |
\*---------------------------------------------------------------------------*/
FoamFile
{
    format      ascii;
    class       volScalarField;
    location    "4.5";
    object      nut;
}
// * * * * * * * * * * * * * * * * * * * * * * * * * * * * * * * * * * * * * //

dimensions      [0 2 -1 0 0 0 0];

internalField   nonuniform List<scalar> 
1600
(
1.01504e-08
3.97988e-08
8.19845e-08
9.26857e-08
9.03788e-08
9.58848e-08
1.20162e-07
1.797e-07
2.44992e-07
3.06442e-07
4.45761e-07
6.33472e-07
7.50586e-07
8.4315e-07
9.80249e-07
1.14881e-06
1.33034e-06
1.51196e-06
1.7118e-06
1.91403e-06
2.14328e-06
2.38521e-06
2.66527e-06
2.97801e-06
3.35536e-06
3.71461e-06
4.0672e-06
4.37572e-06
4.63666e-06
4.77317e-06
4.82555e-06
4.68953e-06
4.26471e-06
3.53346e-06
2.52025e-06
1.39147e-06
6.32413e-07
2.48135e-07
7.49199e-08
1.49399e-08
4.88029e-08
1.15258e-06
3.51753e-06
4.60576e-06
4.73877e-06
4.66545e-06
5.00838e-06
5.95515e-06
6.09012e-06
6.00182e-06
7.10254e-06
8.5413e-06
9.40409e-06
1.00324e-05
1.11025e-05
1.23082e-05
1.37894e-05
1.5049e-05
1.67266e-05
1.7993e-05
1.95094e-05
2.07377e-05
2.21024e-05
2.31786e-05
2.39681e-05
2.46866e-05
2.5342e-05
2.58131e-05
2.60085e-05
2.56266e-05
2.53523e-05
2.37254e-05
2.15976e-05
1.8317e-05
1.44158e-05
8.74982e-06
4.04719e-06
1.58838e-06
5.48575e-07
2.94002e-08
1.42769e-07
3.04566e-06
7.8811e-06
1.00608e-05
1.09431e-05
1.15652e-05
1.33536e-05
1.55767e-05
1.64789e-05
1.66756e-05
1.65737e-05
1.56391e-05
1.55357e-05
1.62253e-05
1.77647e-05
1.95249e-05
2.14786e-05
2.33979e-05
2.52815e-05
2.69962e-05
2.88077e-05
3.01872e-05
3.12079e-05
3.1787e-05
3.22403e-05
3.24868e-05
3.2525e-05
3.22775e-05
3.16994e-05
3.05773e-05
2.86132e-05
2.67658e-05
2.41153e-05
1.98647e-05
1.54217e-05
8.5985e-06
3.56285e-06
1.72219e-06
6.93206e-07
2.52547e-08
3.30274e-07
6.47462e-06
1.34411e-05
1.60585e-05
1.72923e-05
1.88161e-05
2.06375e-05
2.11867e-05
2.11261e-05
1.89858e-05
1.75524e-05
1.8368e-05
2.01503e-05
2.28761e-05
2.49964e-05
2.75358e-05
2.96976e-05
3.16045e-05
3.32528e-05
3.47461e-05
3.56217e-05
3.62908e-05
3.66877e-05
3.69239e-05
3.69226e-05
3.67246e-05
3.6292e-05
3.55789e-05
3.45065e-05
3.30282e-05
3.10286e-05
2.86843e-05
2.56167e-05
2.19838e-05
1.80442e-05
1.28595e-05
4.16503e-06
1.45873e-06
5.18146e-07
1.92877e-08
6.39709e-07
1.15903e-05
1.94891e-05
2.14064e-05
2.23089e-05
2.3804e-05
2.40293e-05
2.37022e-05
2.12279e-05
1.97124e-05
2.16907e-05
2.37831e-05
2.68073e-05
2.95491e-05
3.18017e-05
3.41706e-05
3.60272e-05
3.78297e-05
3.89759e-05
3.99917e-05
4.06243e-05
4.11027e-05
4.12961e-05
4.13108e-05
4.11201e-05
4.07392e-05
4.01195e-05
3.92257e-05
3.78974e-05
3.60305e-05
3.37016e-05
3.12041e-05
2.82744e-05
2.45518e-05
2.02367e-05
1.5817e-05
9.26482e-06
2.48806e-06
5.72317e-07
2.43213e-08
1.09955e-06
1.72275e-05
2.49977e-05
2.60137e-05
2.64438e-05
2.63205e-05
2.59345e-05
2.35529e-05
2.17632e-05
2.38942e-05
2.65471e-05
2.9515e-05
3.23783e-05
3.46509e-05
3.69812e-05
3.90332e-05
4.0741e-05
4.21783e-05
4.32382e-05
4.41125e-05
4.46606e-05
4.50172e-05
4.51145e-05
4.50081e-05
4.47383e-05
4.43482e-05
4.38518e-05
4.3278e-05
4.26577e-05
4.15152e-05
3.89492e-05
3.58182e-05
3.25772e-05
2.85108e-05
2.34627e-05
1.82359e-05
1.24891e-05
3.91205e-06
9.12766e-07
4.84055e-08
1.70621e-06
2.18242e-05
2.96128e-05
2.96146e-05
2.8645e-05
2.80939e-05
2.57081e-05
2.35419e-05
2.53837e-05
2.83769e-05
3.14674e-05
3.42029e-05
3.63908e-05
3.88332e-05
4.10376e-05
4.28567e-05
4.43506e-05
4.56456e-05
4.67572e-05
4.75434e-05
4.80083e-05
4.82123e-05
4.81944e-05
4.80472e-05
4.77702e-05
4.7383e-05
4.68976e-05
4.63042e-05
4.556e-05
4.47346e-05
4.39883e-05
4.16128e-05
3.84304e-05
3.49408e-05
2.9498e-05
2.19591e-05
1.49791e-05
7.57968e-06
1.52142e-06
1.11172e-07
2.36831e-06
2.58717e-05
3.29205e-05
3.17354e-05
3.07141e-05
2.7965e-05
2.54906e-05
2.61188e-05
2.9391e-05
3.26593e-05
3.53923e-05
3.7423e-05
3.99642e-05
4.22963e-05
4.4441e-05
4.63278e-05
4.79812e-05
4.92413e-05
5.00649e-05
5.0466e-05
5.07075e-05
5.08046e-05
5.07719e-05
5.06232e-05
5.03207e-05
4.99071e-05
4.94144e-05
4.88676e-05
4.82616e-05
4.7522e-05
4.64913e-05
4.51687e-05
4.21709e-05
3.87049e-05
3.5549e-05
2.90057e-05
1.95304e-05
9.68947e-06
2.04389e-06
2.72213e-07
2.97008e-06
2.87077e-05
3.46739e-05
3.39369e-05
3.08196e-05
2.78037e-05
2.64944e-05
2.96534e-05
3.30925e-05
3.60226e-05
3.81146e-05
4.06009e-05
4.33069e-05
4.56894e-05
4.79292e-05
4.95368e-05
5.08036e-05
5.1622e-05
5.21835e-05
5.27644e-05
5.30553e-05
5.34439e-05
5.35353e-05
5.3393e-05
5.30569e-05
5.25262e-05
5.18693e-05
5.11523e-05
5.04476e-05
4.97811e-05
4.90745e-05
4.80739e-05
4.58909e-05
4.18127e-05
3.86873e-05
3.39101e-05
2.52926e-05
1.42228e-05
4.28068e-06
7.32345e-07
3.43832e-06
3.04955e-05
3.67573e-05
3.52272e-05
3.0815e-05
2.80474e-05
2.95322e-05
3.28859e-05
3.60651e-05
3.85332e-05
4.07826e-05
4.37064e-05
4.64514e-05
4.85776e-05
5.03868e-05
5.14862e-05
5.26633e-05
5.36266e-05
5.45418e-05
5.55344e-05
5.61697e-05
5.65481e-05
5.70723e-05
5.69494e-05
5.65961e-05
5.58867e-05
5.49205e-05
5.37912e-05
5.26411e-05
5.16057e-05
5.07505e-05
4.99784e-05
4.89376e-05
4.59226e-05
4.17637e-05
3.82605e-05
3.01841e-05
1.78119e-05
5.95884e-06
1.34083e-06
3.74913e-06
3.15658e-05
3.80241e-05
3.55149e-05
3.10644e-05
2.91915e-05
3.22417e-05
3.56117e-05
3.85534e-05
4.07927e-05
4.35944e-05
4.63776e-05
4.85812e-05
5.04409e-05
5.19899e-05
5.32779e-05
5.46708e-05
5.60281e-05
5.74133e-05
5.8903e-05
5.99355e-05
6.05136e-05
6.15002e-05
6.15054e-05
6.11692e-05
6.03071e-05
5.90038e-05
5.73657e-05
5.55803e-05
5.38811e-05
5.24786e-05
5.14388e-05
5.05292e-05
4.85635e-05
4.43094e-05
4.15158e-05
3.51901e-05
2.28091e-05
8.4322e-06
1.94653e-06
3.94566e-06
3.21771e-05
3.91442e-05
3.5943e-05
3.12286e-05
3.15154e-05
3.46409e-05
3.78833e-05
4.06187e-05
4.29288e-05
4.57111e-05
4.80164e-05
5.02018e-05
5.19373e-05
5.35497e-05
5.5172e-05
5.69593e-05
5.88317e-05
6.07561e-05
6.27998e-05
6.42416e-05
6.51408e-05
6.65574e-05
6.67909e-05
6.65224e-05
6.55808e-05
6.40028e-05
6.18778e-05
5.93986e-05
5.68641e-05
5.46364e-05
5.30202e-05
5.20759e-05
5.14206e-05
4.76053e-05
4.36606e-05
3.87595e-05
2.66429e-05
1.08568e-05
2.45569e-06
3.94892e-06
3.21426e-05
3.93788e-05
3.62309e-05
3.20573e-05
3.34794e-05
3.66308e-05
3.97327e-05
4.23103e-05
4.46689e-05
4.70667e-05
4.94811e-05
5.15028e-05
5.33049e-05
5.51653e-05
5.72061e-05
5.94736e-05
6.18881e-05
6.43508e-05
6.69169e-05
6.87606e-05
6.99921e-05
7.17566e-05
7.2282e-05
7.21415e-05
7.12196e-05
6.95017e-05
6.70319e-05
6.39583e-05
6.0571e-05
5.73028e-05
5.46323e-05
5.286e-05
5.18391e-05
4.97218e-05
4.55386e-05
4.20357e-05
3.07041e-05
1.33568e-05
2.92827e-06
3.90259e-06
3.19376e-05
3.96971e-05
3.65504e-05
3.30285e-05
3.5075e-05
3.82241e-05
4.12055e-05
4.36496e-05
4.58673e-05
4.8335e-05
5.06278e-05
5.26382e-05
5.46275e-05
5.68192e-05
5.92957e-05
6.20379e-05
6.49426e-05
6.78706e-05
7.08601e-05
7.30974e-05
7.46094e-05
7.65875e-05
7.74244e-05
7.74643e-05
7.66596e-05
7.49619e-05
7.23627e-05
6.89384e-05
6.49185e-05
6.0747e-05
5.70549e-05
5.44313e-05
5.29884e-05
5.18965e-05
4.72963e-05
4.41971e-05
3.39298e-05
1.57611e-05
3.37721e-06
3.78732e-06
3.14108e-05
3.95969e-05
3.66743e-05
3.42756e-05
3.63662e-05
3.9468e-05
4.23506e-05
4.4646e-05
4.6894e-05
4.9328e-05
5.157e-05
5.3668e-05
5.58952e-05
5.84239e-05
6.12917e-05
6.44348e-05
6.77247e-05
7.10022e-05
7.42822e-05
7.68799e-05
7.86039e-05
8.06566e-05
8.17727e-05
8.20226e-05
8.14099e-05
7.98718e-05
7.735e-05
7.38314e-05
6.94273e-05
6.44903e-05
5.96973e-05
5.59324e-05
5.38439e-05
5.32396e-05
4.95864e-05
4.59466e-05
3.70038e-05
1.80089e-05
3.81236e-06
3.58293e-06
3.06085e-05
3.92506e-05
3.68905e-05
3.52338e-05
3.73646e-05
4.04253e-05
4.32225e-05
4.54072e-05
4.77174e-05
5.01141e-05
5.23632e-05
5.45917e-05
5.70506e-05
5.98671e-05
6.30389e-05
6.64706e-05
7.00159e-05
7.35087e-05
7.69317e-05
7.98266e-05
8.16941e-05
8.37228e-05
8.50458e-05
8.55089e-05
8.5139e-05
8.38739e-05
8.16214e-05
7.82883e-05
7.38522e-05
6.85039e-05
6.28241e-05
5.78072e-05
5.44514e-05
5.3008e-05
5.10997e-05
4.69553e-05
3.93322e-05
2.02624e-05
4.24396e-06
3.33722e-06
2.96488e-05
3.8707e-05
3.71008e-05
3.59576e-05
3.81114e-05
4.11322e-05
4.38433e-05
4.60232e-05
4.83638e-05
5.07366e-05
5.30223e-05
5.53795e-05
5.80248e-05
6.10479e-05
6.44156e-05
6.80124e-05
7.16833e-05
7.52631e-05
7.86795e-05
8.17585e-05
8.37436e-05
8.56792e-05
8.71236e-05
8.77784e-05
8.7674e-05
8.67543e-05
8.49079e-05
8.19776e-05
7.78126e-05
7.24128e-05
6.61848e-05
6.01556e-05
5.56894e-05
5.34006e-05
5.20163e-05
4.78581e-05
4.13064e-05
2.23089e-05
4.67017e-06
3.04985e-06
2.85925e-05
3.80135e-05
3.72252e-05
3.647e-05
3.86225e-05
4.16202e-05
4.42819e-05
4.65046e-05
4.88559e-05
5.12154e-05
5.35404e-05
5.59947e-05
5.87595e-05
6.18956e-05
6.53492e-05
6.89944e-05
7.26755e-05
7.62373e-05
7.95456e-05
8.25987e-05
8.47251e-05
8.65385e-05
8.8023e-05
8.88292e-05
8.89891e-05
8.84523e-05
8.71008e-05
8.47335e-05
8.10904e-05
7.59705e-05
6.95152e-05
6.26179e-05
5.69743e-05
5.40302e-05
5.31185e-05
4.86398e-05
4.28561e-05
2.43534e-05
5.10068e-06
2.75504e-06
2.74603e-05
3.71886e-05
3.72769e-05
3.68392e-05
3.8964e-05
4.19203e-05
4.45688e-05
4.68532e-05
4.92065e-05
5.15549e-05
5.39035e-05
5.64078e-05
5.92187e-05
6.23763e-05
6.58156e-05
6.94073e-05
7.29984e-05
7.64407e-05
7.96054e-05
8.24777e-05
8.46876e-05
8.64038e-05
8.78642e-05
8.87676e-05
8.91701e-05
8.90208e-05
8.82057e-05
8.64992e-05
8.35604e-05
7.90137e-05
7.27052e-05
6.52357e-05
5.83711e-05
5.42571e-05
5.32464e-05
4.94742e-05
4.41288e-05
2.61737e-05
5.52693e-06
2.43075e-06
2.64028e-05
3.62902e-05
3.71686e-05
3.70554e-05
3.90867e-05
4.20516e-05
4.47289e-05
4.70725e-05
4.94207e-05
5.17519e-05
5.40989e-05
5.66026e-05
5.93892e-05
6.24877e-05
6.58298e-05
6.92867e-05
7.27105e-05
7.59645e-05
7.89362e-05
8.15679e-05
8.37275e-05
8.53538e-05
8.6718e-05
8.77267e-05
8.83766e-05
8.85916e-05
8.8312e-05
8.73087e-05
8.51794e-05
8.14154e-05
7.55766e-05
6.78877e-05
6.00001e-05
5.46449e-05
5.3071e-05
5.03481e-05
4.51859e-05
2.79582e-05
5.95913e-06
2.17026e-06
2.49676e-05
3.52948e-05
3.70243e-05
3.72074e-05
3.91812e-05
4.19982e-05
4.47309e-05
4.71476e-05
4.9495e-05
5.18011e-05
5.41184e-05
5.65736e-05
5.92836e-05
6.22612e-05
6.54337e-05
6.86724e-05
7.18598e-05
7.48837e-05
7.76433e-05
8.00588e-05
8.20386e-05
8.35263e-05
8.46772e-05
8.56896e-05
8.65598e-05
8.72179e-05
8.75594e-05
8.72612e-05
8.59803e-05
8.31305e-05
7.8013e-05
7.04394e-05
6.17422e-05
5.50802e-05
5.2599e-05
5.09801e-05
4.61547e-05
2.95538e-05
6.38617e-06
1.94894e-06
2.3391e-05
3.38991e-05
3.68324e-05
3.71795e-05
3.89516e-05
4.18935e-05
4.46311e-05
4.70867e-05
4.94244e-05
5.16954e-05
5.39611e-05
5.63426e-05
5.88616e-05
6.15892e-05
6.4503e-05
6.75307e-05
7.0533e-05
7.33681e-05
7.59329e-05
7.81573e-05
7.99964e-05
8.14186e-05
8.23692e-05
8.33066e-05
8.41689e-05
8.50571e-05
8.5865e-05
8.63482e-05
8.6043e-05
8.41697e-05
7.99357e-05
7.27757e-05
6.35604e-05
5.57264e-05
5.22977e-05
5.12732e-05
4.70469e-05
3.10807e-05
6.8168e-06
1.75205e-06
2.17026e-05
3.23014e-05
3.65711e-05
3.71394e-05
3.88258e-05
4.14143e-05
4.4328e-05
4.68596e-05
4.92053e-05
5.14383e-05
5.36345e-05
5.57983e-05
5.82001e-05
6.08146e-05
6.35842e-05
6.64001e-05
6.91581e-05
7.17445e-05
7.40627e-05
7.60584e-05
7.77168e-05
7.90912e-05
7.99558e-05
8.09219e-05
8.19565e-05
8.28418e-05
8.3786e-05
8.47634e-05
8.52179e-05
8.43835e-05
8.13116e-05
7.47821e-05
6.52842e-05
5.64203e-05
5.20784e-05
5.12913e-05
4.78133e-05
3.25168e-05
7.23985e-06
1.57194e-06
1.99521e-05
3.05556e-05
3.59664e-05
3.7051e-05
3.86063e-05
4.11115e-05
4.39061e-05
4.64924e-05
4.88201e-05
5.10076e-05
5.30704e-05
5.52306e-05
5.75103e-05
5.99319e-05
6.24382e-05
6.49756e-05
6.7449e-05
6.9772e-05
7.18685e-05
7.36827e-05
7.52153e-05
7.65375e-05
7.73525e-05
7.83181e-05
7.95192e-05
8.06904e-05
8.20376e-05
8.33481e-05
8.42666e-05
8.42024e-05
8.20667e-05
7.64915e-05
6.68523e-05
5.70984e-05
5.19458e-05
5.12357e-05
4.84697e-05
3.39219e-05
7.66066e-06
1.40238e-06
1.81796e-05
2.8743e-05
3.50141e-05
3.69227e-05
3.8247e-05
4.07061e-05
4.3218e-05
4.59107e-05
4.83071e-05
5.04458e-05
5.24634e-05
5.44846e-05
5.6528e-05
5.86608e-05
6.08965e-05
6.31702e-05
6.54001e-05
6.75049e-05
6.94185e-05
7.11039e-05
7.25654e-05
7.38604e-05
7.46137e-05
7.54846e-05
7.67013e-05
7.80979e-05
7.97832e-05
8.16806e-05
8.33348e-05
8.39313e-05
8.23541e-05
7.7629e-05
6.82352e-05
5.7664e-05
5.16473e-05
5.10162e-05
4.9e-05
3.52676e-05
8.06887e-06
1.24193e-06
1.64153e-05
2.68346e-05
3.3727e-05
3.6813e-05
3.79812e-05
4.00913e-05
4.27753e-05
4.51266e-05
4.75145e-05
4.96602e-05
5.16647e-05
5.35378e-05
5.5398e-05
5.73106e-05
5.9291e-05
6.13039e-05
6.32909e-05
6.51863e-05
6.69321e-05
6.84925e-05
6.98732e-05
7.11738e-05
7.18893e-05
7.27289e-05
7.39469e-05
7.539e-05
7.71572e-05
7.9301e-05
8.1466e-05
8.28432e-05
8.22886e-05
7.81475e-05
6.94106e-05
5.81728e-05
5.12001e-05
5.05636e-05
4.94134e-05
3.65699e-05
8.46666e-06
1.086e-06
1.46712e-05
2.50285e-05
3.1982e-05
3.64557e-05
3.76421e-05
3.94692e-05
4.20923e-05
4.44743e-05
4.66243e-05
4.87504e-05
5.06904e-05
5.24667e-05
5.41697e-05
5.5877e-05
5.76197e-05
5.93893e-05
6.1149e-05
6.28488e-05
6.444e-05
6.58884e-05
6.72044e-05
6.85338e-05
6.92114e-05
7.00833e-05
7.13706e-05
7.28774e-05
7.47431e-05
7.70885e-05
7.96115e-05
8.15278e-05
8.16577e-05
7.85307e-05
7.00838e-05
5.85263e-05
5.05709e-05
4.99615e-05
4.97427e-05
3.77922e-05
8.84559e-06
9.37144e-07
1.30007e-05
2.31064e-05
3.01008e-05
3.57454e-05
3.73804e-05
3.89323e-05
4.11626e-05
4.37553e-05
4.58995e-05
4.77818e-05
4.95588e-05
5.12318e-05
5.28213e-05
5.43626e-05
5.5902e-05
5.74552e-05
5.90082e-05
6.05291e-05
6.19812e-05
6.33336e-05
6.46247e-05
6.59494e-05
6.66129e-05
6.75799e-05
6.89873e-05
7.05383e-05
7.24752e-05
7.49374e-05
7.76786e-05
7.99423e-05
8.05223e-05
7.79871e-05
7.02995e-05
5.86367e-05
4.97719e-05
4.906e-05
4.9945e-05
3.8932e-05
9.20626e-06
7.9178e-07
1.1403e-05
2.15257e-05
2.81151e-05
3.4145e-05
3.7031e-05
3.84972e-05
4.03646e-05
4.2743e-05
4.50717e-05
4.70148e-05
4.86566e-05
5.015e-05
5.15208e-05
5.28594e-05
5.42004e-05
5.55563e-05
5.69232e-05
5.8283e-05
5.96109e-05
6.08761e-05
6.21979e-05
6.34198e-05
6.41529e-05
6.52728e-05
6.67675e-05
6.83537e-05
7.03414e-05
7.28384e-05
7.56418e-05
7.80481e-05
7.88574e-05
7.67321e-05
6.98885e-05
5.8083e-05
4.87954e-05
4.79155e-05
5.00542e-05
3.99596e-05
9.54323e-06
6.65755e-07
1.00713e-05
1.99839e-05
2.60288e-05
3.21675e-05
3.6351e-05
3.80213e-05
3.97381e-05
4.16938e-05
4.39583e-05
4.59836e-05
4.76445e-05
4.9042e-05
5.02813e-05
5.14351e-05
5.25888e-05
5.37616e-05
5.49575e-05
5.61698e-05
5.73814e-05
5.85694e-05
5.99424e-05
6.0993e-05
6.18494e-05
6.3148e-05
6.46766e-05
6.62999e-05
6.82981e-05
7.07371e-05
7.34286e-05
7.57437e-05
7.65229e-05
7.45225e-05
6.82803e-05
5.66883e-05
4.74718e-05
4.64548e-05
5.00422e-05
4.08445e-05
9.85843e-06
5.61356e-07
8.99456e-06
1.88183e-05
2.42e-05
3.00455e-05
3.52098e-05
3.75294e-05
3.92337e-05
4.1015e-05
4.28137e-05
4.47699e-05
4.64707e-05
4.78681e-05
4.90577e-05
5.00989e-05
5.11061e-05
5.21211e-05
5.31622e-05
5.42405e-05
5.53252e-05
5.65174e-05
5.77713e-05
5.86972e-05
5.97556e-05
6.11444e-05
6.26552e-05
6.42946e-05
6.62278e-05
6.84845e-05
7.08598e-05
7.28227e-05
7.32942e-05
7.10576e-05
6.55059e-05
5.47408e-05
4.55672e-05
4.46349e-05
4.98084e-05
4.15629e-05
1.01522e-05
4.75638e-07
8.22101e-06
1.78805e-05
2.27397e-05
2.80025e-05
3.32958e-05
3.69111e-05
3.88235e-05
4.05809e-05
4.22747e-05
4.38004e-05
4.53486e-05
4.67232e-05
4.78899e-05
4.88921e-05
4.9791e-05
5.06745e-05
5.15749e-05
5.25305e-05
5.34746e-05
5.4665e-05
5.57911e-05
5.65683e-05
5.77704e-05
5.91805e-05
6.05982e-05
6.21552e-05
6.38852e-05
6.57834e-05
6.75972e-05
6.89344e-05
6.87962e-05
6.62405e-05
6.09889e-05
5.13465e-05
4.29249e-05
4.25782e-05
4.93885e-05
4.19984e-05
1.04312e-05
4.02509e-07
7.75009e-06
1.71714e-05
2.1996e-05
2.64857e-05
3.13489e-05
3.57611e-05
3.84116e-05
4.02518e-05
4.18998e-05
4.33558e-05
4.46127e-05
4.5735e-05
4.6786e-05
4.77535e-05
4.8604e-05
4.94033e-05
5.01942e-05
5.10431e-05
5.18528e-05
5.29729e-05
5.39232e-05
5.46609e-05
5.57794e-05
5.70456e-05
5.82482e-05
5.95348e-05
6.08257e-05
6.21197e-05
6.30871e-05
6.35585e-05
6.2621e-05
5.98478e-05
5.47913e-05
4.71986e-05
4.09367e-05
4.08448e-05
4.88345e-05
4.16903e-05
1.07084e-05
3.56083e-07
7.69529e-06
1.63476e-05
2.147e-05
2.51862e-05
2.98244e-05
3.41559e-05
3.79657e-05
4.04183e-05
4.21793e-05
4.36379e-05
4.48228e-05
4.57971e-05
4.65925e-05
4.72961e-05
4.79562e-05
4.85923e-05
4.92171e-05
4.98956e-05
5.05275e-05
5.13631e-05
5.21473e-05
5.26459e-05
5.34189e-05
5.43084e-05
5.50298e-05
5.57426e-05
5.62601e-05
5.66767e-05
5.65502e-05
5.60702e-05
5.43305e-05
5.1705e-05
4.72505e-05
4.16507e-05
3.77032e-05
3.97534e-05
4.80415e-05
4.12959e-05
1.10028e-05
3.56868e-07
8.40864e-06
1.59452e-05
2.08989e-05
2.461e-05
2.88077e-05
3.3099e-05
3.66624e-05
3.99476e-05
4.23545e-05
4.39121e-05
4.51185e-05
4.60663e-05
4.68113e-05
4.74098e-05
4.79073e-05
4.83329e-05
4.87103e-05
4.89923e-05
4.91777e-05
4.93594e-05
4.95547e-05
4.96125e-05
4.96896e-05
4.98058e-05
4.96974e-05
4.95452e-05
4.90328e-05
4.84866e-05
4.73278e-05
4.62123e-05
4.41294e-05
4.20949e-05
3.89311e-05
3.59933e-05
3.47048e-05
3.8132e-05
4.67974e-05
4.03409e-05
1.11391e-05
4.53047e-07
1.01735e-05
1.62801e-05
2.14158e-05
2.52662e-05
2.93304e-05
3.33541e-05
3.73541e-05
4.07214e-05
4.37109e-05
4.61053e-05
4.74318e-05
4.81975e-05
4.85114e-05
4.84852e-05
4.81992e-05
4.77365e-05
4.71337e-05
4.65194e-05
4.57587e-05
4.51101e-05
4.41556e-05
4.37016e-05
4.29141e-05
4.19036e-05
4.08593e-05
3.99816e-05
3.87567e-05
3.77737e-05
3.64096e-05
3.55467e-05
3.4206e-05
3.36536e-05
3.26741e-05
3.28036e-05
3.39801e-05
3.88718e-05
4.56763e-05
3.84313e-05
1.11838e-05
6.25867e-07
1.22694e-05
1.81867e-05
2.23913e-05
2.64716e-05
3.06876e-05
3.4529e-05
3.80229e-05
4.06767e-05
4.27043e-05
4.45077e-05
4.5439e-05
4.55767e-05
4.52658e-05
4.46333e-05
4.36798e-05
4.25532e-05
4.12688e-05
4.00027e-05
3.84719e-05
3.70122e-05
3.5843e-05
3.4498e-05
3.30595e-05
3.19323e-05
3.08708e-05
3.00842e-05
2.93725e-05
2.91043e-05
2.8837e-05
2.91244e-05
2.94586e-05
3.05943e-05
3.17763e-05
3.40449e-05
3.67953e-05
4.15615e-05
4.38353e-05
3.67291e-05
1.10168e-05
9.89599e-07
1.57978e-05
1.94068e-05
2.3593e-05
2.74614e-05
3.11138e-05
3.41681e-05
3.65916e-05
3.83687e-05
3.90232e-05
3.95864e-05
3.97325e-05
3.92617e-05
3.83845e-05
3.73523e-05
3.59858e-05
3.47469e-05
3.35324e-05
3.25259e-05
3.13544e-05
3.03503e-05
2.96036e-05
2.90605e-05
2.86698e-05
2.84888e-05
2.85361e-05
2.87848e-05
2.93045e-05
3.00563e-05
3.1078e-05
3.24604e-05
3.40471e-05
3.60916e-05
3.82036e-05
4.09989e-05
4.34009e-05
4.57067e-05
4.28178e-05
3.36277e-05
1.0453e-05
1.81658e-06
1.88361e-05
2.12202e-05
2.55083e-05
2.86218e-05
3.11168e-05
3.30085e-05
3.43538e-05
3.53159e-05
3.57169e-05
3.5882e-05
3.59556e-05
3.59076e-05
3.57239e-05
3.55086e-05
3.52782e-05
3.51183e-05
3.50082e-05
3.50302e-05
3.51395e-05
3.53418e-05
3.56636e-05
3.60767e-05
3.6642e-05
3.7262e-05
3.80725e-05
3.88885e-05
3.99427e-05
4.096e-05
4.2232e-05
4.35148e-05
4.4884e-05
4.66006e-05
4.76936e-05
4.94518e-05
4.86527e-05
4.66937e-05
4.1033e-05
2.58217e-05
9.2813e-06
1.22565e-06
1.997e-06
2.70357e-06
3.5082e-06
4.23074e-06
4.86884e-06
5.41326e-06
5.8571e-06
6.21379e-06
6.47911e-06
6.66205e-06
6.78457e-06
6.8585e-06
6.89845e-06
6.9094e-06
6.90609e-06
6.89743e-06
6.88414e-06
6.87422e-06
6.87638e-06
6.88568e-06
6.90708e-06
6.95389e-06
7.00143e-06
7.09965e-06
7.17718e-06
7.33561e-06
7.44597e-06
7.67308e-06
7.81272e-06
8.11065e-06
8.27091e-06
8.61184e-06
8.83653e-06
9.32306e-06
9.61399e-06
1.00713e-05
1.00583e-05
9.69134e-06
8.0808e-06
)
;

boundaryField
{
    movingWall
    {
        type            nutkWallFunction;
        Cmu             0.09;
        kappa           0.41;
        E               9.8;
        value           uniform 0;
    }
    fixedWalls
    {
        type            nutkWallFunction;
        Cmu             0.09;
        kappa           0.41;
        E               9.8;
        value           uniform 0;
    }
    frontAndBack
    {
        type            empty;
    }
}


// ************************************************************************* //
