/*--------------------------------*- C++ -*----------------------------------*\
  =========                 |
  \\      /  F ield         | OpenFOAM: The Open Source CFD Toolbox
   \\    /   O peration     | Website:  https://openfoam.org
    \\  /    A nd           | Version:  13
     \\/     M anipulation  |
\*---------------------------------------------------------------------------*/
FoamFile
{
    format      ascii;
    class       surfaceScalarField;
    location    "4.5";
    object      phi;
}
// * * * * * * * * * * * * * * * * * * * * * * * * * * * * * * * * * * * * * //

dimensions      [0 3 -1 0 0 0 0];

internalField   nonuniform List<scalar> 
3120
(
7.20044e-08
-7.20071e-08
1.85387e-07
-1.13383e-07
2.77336e-07
-9.19487e-08
3.18378e-07
-4.1042e-08
3.20634e-07
-2.25631e-09
3.08734e-07
1.19002e-08
2.99557e-07
9.17666e-09
2.92764e-07
6.7931e-09
2.71759e-07
2.10048e-08
2.24676e-07
4.70825e-08
1.39828e-07
8.48482e-08
-2.27222e-08
1.6255e-07
-2.82382e-07
2.5966e-07
-6.71943e-07
3.8956e-07
-1.17391e-06
5.01969e-07
-1.69784e-06
5.23926e-07
-2.1854e-06
4.87561e-07
-2.61395e-06
4.28551e-07
-2.9745e-06
3.60554e-07
-3.26706e-06
2.92552e-07
-3.49224e-06
2.25184e-07
-3.65227e-06
1.60028e-07
-3.74658e-06
9.43125e-08
-3.77516e-06
2.85767e-08
-3.73104e-06
-4.41152e-08
-3.61747e-06
-1.13569e-07
-3.423e-06
-1.94472e-07
-3.14481e-06
-2.78188e-07
-2.77623e-06
-3.68581e-07
-2.31743e-06
-4.58807e-07
-1.77034e-06
-5.47086e-07
-1.15375e-06
-6.16587e-07
-5.19529e-07
-6.34225e-07
5.94785e-08
-5.79008e-07
5.14905e-07
-4.55426e-07
6.9256e-07
-1.77656e-07
5.84248e-07
1.08313e-07
3.72506e-07
2.11741e-07
1.53236e-07
2.1927e-07
1.53236e-07
1.32036e-07
-2.04044e-07
2.89025e-07
-2.70371e-07
3.93222e-07
-1.96146e-07
4.30463e-07
-7.82832e-08
4.13886e-07
1.43206e-08
3.55249e-07
7.05371e-08
2.66737e-07
9.7689e-08
1.34359e-07
1.39171e-07
-7.40323e-08
2.29396e-07
-3.99476e-07
3.72526e-07
-8.7433e-07
5.59702e-07
-1.47631e-06
7.64527e-07
-2.1373e-06
9.20656e-07
-2.7489e-06
1.00116e-06
-3.24051e-06
9.93577e-07
-3.64626e-06
9.29676e-07
-3.99262e-06
8.33917e-07
-4.28124e-06
7.17168e-07
-4.51438e-06
5.93695e-07
-4.69232e-06
4.705e-07
-4.81511e-06
3.4797e-07
-4.88655e-06
2.31472e-07
-4.90619e-06
1.13946e-07
-4.8678e-06
-9.80683e-09
-4.78176e-06
-1.30162e-07
-4.63363e-06
-2.61699e-07
-4.42255e-06
-4.05552e-07
-4.13932e-06
-5.61414e-07
-3.77432e-06
-7.33585e-07
-3.32184e-06
-9.11284e-07
-2.7857e-06
-1.08322e-06
-2.1728e-06
-1.22949e-06
-1.50572e-06
-1.3013e-06
-8.25006e-07
-1.25972e-06
-2.34847e-07
-1.04559e-06
2.0449e-07
-6.16992e-07
3.47623e-07
-3.48209e-08
2.84947e-07
2.74418e-07
1.30782e-07
3.73435e-07
2.84018e-07
1.63291e-07
-3.67334e-07
2.8563e-07
-3.92711e-07
3.33268e-07
-2.43784e-07
3.13605e-07
-5.86204e-08
2.34138e-07
9.37876e-08
9.28889e-08
2.11786e-07
-1.40952e-07
3.3153e-07
-4.99165e-07
4.97384e-07
-9.95818e-07
7.26049e-07
-1.60896e-06
9.85672e-07
-2.26395e-06
1.21469e-06
-2.86208e-06
1.36265e-06
-3.36967e-06
1.42824e-06
-3.78052e-06
1.41202e-06
-4.11301e-06
1.32607e-06
-4.3827e-06
1.19936e-06
-4.59967e-06
1.05089e-06
-4.77322e-06
8.90722e-07
-4.90922e-06
7.29688e-07
-5.00992e-06
5.71204e-07
-5.07879e-06
4.16837e-07
-5.112e-06
2.64685e-07
-5.10754e-06
1.09483e-07
-5.06862e-06
-4.8729e-08
-4.99032e-06
-2.08458e-07
-4.87251e-06
-3.79508e-07
-4.7118e-06
-5.66263e-07
-4.50268e-06
-7.70529e-07
-4.2402e-06
-9.96068e-07
-3.91144e-06
-1.24004e-06
-3.50245e-06
-1.49222e-06
-3.00406e-06
-1.72788e-06
-2.41525e-06
-1.89011e-06
-1.75842e-06
-1.91656e-06
-1.08213e-06
-1.72187e-06
-4.6131e-07
-1.23782e-06
-6.36286e-08
-4.32503e-07
4.20564e-08
1.68733e-07
2.94305e-08
3.86061e-07
3.13448e-07
1.38521e-07
-5.05855e-07
1.87187e-07
-4.41377e-07
1.48914e-07
-2.05511e-07
4.22144e-08
4.8079e-08
-1.40797e-07
2.76799e-07
-4.25652e-07
4.96642e-07
-8.35789e-07
7.41667e-07
-1.36802e-06
1.02961e-06
-1.97842e-06
1.33645e-06
-2.59413e-06
1.60139e-06
-3.13967e-06
1.76023e-06
-3.58373e-06
1.80671e-06
-3.92813e-06
1.77265e-06
-4.1918e-06
1.67568e-06
-4.39963e-06
1.5339e-06
-4.56407e-06
1.36381e-06
-4.69578e-06
1.18259e-06
-4.80451e-06
9.99457e-07
-4.89246e-06
8.17632e-07
-4.95568e-06
6.34429e-07
-4.99496e-06
4.56118e-07
-5.00781e-06
2.77534e-07
-4.99642e-06
9.80919e-08
-4.96192e-06
-8.32311e-08
-4.90228e-06
-2.68103e-07
-4.81481e-06
-4.66972e-07
-4.69767e-06
-6.83406e-07
-4.54686e-06
-9.21342e-07
-4.36032e-06
-1.18261e-06
-4.13327e-06
-1.46709e-06
-3.86039e-06
-1.7651e-06
-3.52679e-06
-2.06147e-06
-3.09332e-06
-2.32359e-06
-2.53652e-06
-2.47335e-06
-1.86298e-06
-2.39541e-06
-1.12029e-06
-1.98051e-06
-4.23515e-07
-1.12928e-06
-1.08461e-07
-1.4632e-07
-1.55843e-08
2.93184e-07
2.97864e-07
6.6785e-08
-5.7264e-07
1.64555e-08
-3.91048e-07
-1.15889e-07
-7.31673e-08
-3.21543e-07
2.53733e-07
-6.19646e-07
5.74901e-07
-1.02774e-06
9.04738e-07
-1.54155e-06
1.25548e-06
-2.12039e-06
1.60845e-06
-2.69366e-06
1.90972e-06
-3.18578e-06
2.09351e-06
-3.57096e-06
2.14542e-06
-3.8682e-06
2.10394e-06
-4.09245e-06
1.9969e-06
-4.26116e-06
1.84439e-06
-4.39202e-06
1.66476e-06
-4.49765e-06
1.46944e-06
-4.58001e-06
1.26495e-06
-4.63785e-06
1.0573e-06
-4.67127e-06
8.51055e-07
-4.68675e-06
6.49911e-07
-4.68705e-06
4.56412e-07
-4.675e-06
2.65487e-07
-4.652e-06
7.50916e-08
-4.61771e-06
-1.17521e-07
-4.56917e-06
-3.1664e-07
-4.50691e-06
-5.2923e-07
-4.43029e-06
-7.60034e-07
-4.33744e-06
-1.01419e-06
-4.2245e-06
-1.29554e-06
-4.08603e-06
-1.60556e-06
-3.9124e-06
-1.93873e-06
-3.69516e-06
-2.27871e-06
-3.41676e-06
-2.60199e-06
-3.03745e-06
-2.85266e-06
-2.49261e-06
-2.94025e-06
-1.76679e-06
-2.70633e-06
-8.78728e-07
-2.01734e-06
-2.03038e-07
-8.22011e-07
-7.89318e-09
9.80386e-08
2.89971e-07
-4.11475e-08
-5.31492e-07
-1.89774e-07
-2.42421e-07
-4.11855e-07
1.48914e-07
-7.10772e-07
5.5265e-07
-1.10126e-06
9.65392e-07
-1.5793e-06
1.38278e-06
-2.11271e-06
1.78889e-06
-2.64256e-06
2.1383e-06
-3.09852e-06
2.36568e-06
-3.44669e-06
2.44168e-06
-3.70694e-06
2.40567e-06
-3.90091e-06
2.29791e-06
-4.04243e-06
2.13841e-06
-4.14452e-06
1.94648e-06
-4.21303e-06
1.73328e-06
-4.25353e-06
1.50994e-06
-4.27248e-06
1.2839e-06
-4.27659e-06
1.06141e-06
-4.27188e-06
8.46341e-07
-4.26044e-06
6.3847e-07
-4.24099e-06
4.36964e-07
-4.21486e-06
2.39359e-07
-4.18283e-06
4.30555e-08
-4.14496e-06
-1.55391e-07
-4.10116e-06
-3.60435e-07
-4.05287e-06
-5.77516e-07
-4.00093e-06
-8.11984e-07
-3.94556e-06
-1.06956e-06
-3.88571e-06
-1.35539e-06
-3.81829e-06
-1.67297e-06
-3.73561e-06
-2.02141e-06
-3.6222e-06
-2.39212e-06
-3.46088e-06
-2.76331e-06
-3.22349e-06
-3.09006e-06
-2.85746e-06
-3.30628e-06
-2.27839e-06
-3.28539e-06
-1.43982e-06
-2.85592e-06
-4.71225e-07
-1.7906e-06
-3.0378e-08
-3.42809e-07
2.59593e-07
-1.47941e-07
-3.83551e-07
-3.94499e-07
4.13567e-09
-6.92681e-07
4.47096e-07
-1.0637e-06
9.2367e-07
-1.50585e-06
1.40754e-06
-1.99514e-06
1.87207e-06
-2.486e-06
2.27974e-06
-2.91607e-06
2.56837e-06
-3.2423e-06
2.69191e-06
-3.47674e-06
2.67612e-06
-3.64523e-06
2.57416e-06
-3.76046e-06
2.41315e-06
-3.83367e-06
2.21162e-06
-3.87324e-06
1.98606e-06
-3.88812e-06
1.74815e-06
-3.88588e-06
1.50769e-06
-3.87272e-06
1.27074e-06
-3.8528e-06
1.04149e-06
-3.82776e-06
8.21304e-07
-3.79854e-06
6.09247e-07
-3.76565e-06
4.04075e-07
-3.72965e-06
2.03359e-07
-3.69116e-06
4.56404e-09
-3.65058e-06
-1.95973e-07
-3.60887e-06
-4.0214e-07
-3.56757e-06
-6.18821e-07
-3.52827e-06
-8.51282e-07
-3.49248e-06
-1.10535e-06
-3.461e-06
-1.38688e-06
-3.433e-06
-1.70097e-06
-3.40421e-06
-2.05021e-06
-3.36472e-06
-2.43162e-06
-3.29654e-06
-2.83148e-06
-3.16791e-06
-3.21868e-06
-2.93895e-06
-3.53524e-06
-2.54141e-06
-3.68293e-06
-1.89322e-06
-3.50411e-06
-9.00423e-07
-2.7834e-06
-1.11535e-07
-1.1317e-06
1.48058e-07
-2.43745e-07
-1.39806e-07
-5.57091e-07
3.17481e-07
-9.20256e-07
8.10261e-07
-1.33434e-06
1.33775e-06
-1.78659e-06
1.85979e-06
-2.2455e-06
2.33098e-06
-2.65971e-06
2.69396e-06
-2.97931e-06
2.88796e-06
-3.20136e-06
2.91395e-06
-3.35397e-06
2.82873e-06
-3.45337e-06
2.67355e-06
-3.50935e-06
2.46913e-06
-3.53235e-06
2.23462e-06
-3.53162e-06
1.98532e-06
-3.51531e-06
1.73185e-06
-3.48958e-06
1.48196e-06
-3.4587e-06
1.23986e-06
-3.42489e-06
1.00768e-06
-3.38895e-06
7.85366e-07
-3.35142e-06
5.71715e-07
-3.31257e-06
3.65223e-07
-3.27264e-06
1.63433e-07
-3.23185e-06
-3.62272e-08
-3.19074e-06
-2.37083e-07
-3.15035e-06
-4.42529e-07
-3.11234e-06
-6.5683e-07
-3.07884e-06
-8.8479e-07
-3.05221e-06
-1.13197e-06
-3.03451e-06
-1.40457e-06
-3.02651e-06
-1.70897e-06
-3.02623e-06
-2.05049e-06
-3.02696e-06
-2.43089e-06
-3.01418e-06
-2.84426e-06
-2.96164e-06
-3.27122e-06
-2.82901e-06
-3.66787e-06
-2.56293e-06
-3.94901e-06
-2.09822e-06
-3.96882e-06
-1.33458e-06
-3.54704e-06
-3.15402e-07
-2.15087e-06
-1.67344e-07
-3.07051e-07
1.67245e-07
-6.77839e-07
6.88269e-07
-1.07708e-06
1.2095e-06
-1.50242e-06
1.7631e-06
-1.93548e-06
2.29284e-06
-2.34078e-06
2.73628e-06
-2.66609e-06
3.01928e-06
-2.89189e-06
3.11376e-06
-3.04087e-06
3.06292e-06
-3.13475e-06
2.92262e-06
-3.18439e-06
2.7232e-06
-3.19994e-06
2.48469e-06
-3.1917e-06
2.22638e-06
-3.16811e-06
1.96173e-06
-3.13575e-06
1.69949e-06
-3.09902e-06
1.44522e-06
-3.06057e-06
1.20141e-06
-3.02164e-06
9.68755e-07
-2.98272e-06
7.46443e-07
-2.94389e-06
5.32892e-07
-2.90491e-06
3.26238e-07
-2.86556e-06
1.24087e-07
-2.82557e-06
-7.62193e-08
-2.78534e-06
-2.77318e-07
-2.7457e-06
-4.82163e-07
-2.70825e-06
-6.94278e-07
-2.67532e-06
-9.17725e-07
-2.6498e-06
-1.15749e-06
-2.63476e-06
-1.41962e-06
-2.63256e-06
-1.71117e-06
-2.6435e-06
-2.03955e-06
-2.66374e-06
-2.41066e-06
-2.68245e-06
-2.82555e-06
-2.67833e-06
-3.27534e-06
-2.61515e-06
-3.73104e-06
-2.44177e-06
-4.1224e-06
-2.122e-06
-4.28859e-06
-1.57542e-06
-4.09362e-06
-5.83836e-07
-3.14245e-06
-7.5118e-07
-3.46765e-07
5.1401e-07
-7.46963e-07
1.08847e-06
-1.15677e-06
1.61931e-06
-1.56944e-06
2.17577e-06
-1.96526e-06
2.68867e-06
-2.30569e-06
3.0767e-06
-2.54906e-06
3.26265e-06
-2.70876e-06
3.27346e-06
-2.80737e-06
3.16154e-06
-2.86002e-06
2.97526e-06
-2.8767e-06
2.73987e-06
-2.86798e-06
2.47597e-06
-2.84317e-06
2.20156e-06
-2.80911e-06
1.92767e-06
-2.77079e-06
1.66117e-06
-2.73132e-06
1.40575e-06
-2.69246e-06
1.16256e-06
-2.65489e-06
9.31178e-07
-2.61859e-06
7.10152e-07
-2.58313e-06
4.97432e-07
-2.54776e-06
2.90861e-07
-2.51184e-06
8.81732e-08
-2.47487e-06
-1.13191e-07
-2.43687e-06
-3.15319e-07
-2.39845e-06
-5.2059e-07
-2.36091e-06
-7.31819e-07
-2.3264e-06
-9.52225e-07
-2.29791e-06
-1.18599e-06
-2.27894e-06
-1.43859e-06
-2.27291e-06
-1.7172e-06
-2.28192e-06
-2.03054e-06
-2.30478e-06
-2.3878e-06
-2.33443e-06
-2.79589e-06
-2.3551e-06
-3.25468e-06
-2.33688e-06
-3.74927e-06
-2.23023e-06
-4.22905e-06
-1.98987e-06
-4.52895e-06
-1.5671e-06
-4.51639e-06
-8.35106e-07
-3.87444e-06
-1.58629e-06
-3.60926e-07
8.74937e-07
-7.65705e-07
1.49325e-06
-1.16569e-06
2.01929e-06
-1.55108e-06
2.56116e-06
-1.90357e-06
3.04115e-06
-2.17469e-06
3.34782e-06
-2.35528e-06
3.44324e-06
-2.4696e-06
3.38779e-06
-2.53335e-06
3.22529e-06
-2.55891e-06
3.00082e-06
-2.55623e-06
2.73719e-06
-2.53534e-06
2.45508e-06
-2.50391e-06
2.17014e-06
-2.46745e-06
1.8912e-06
-2.42974e-06
1.62347e-06
-2.39304e-06
1.36905e-06
-2.35842e-06
1.12794e-06
-2.326e-06
8.98758e-07
-2.29527e-06
6.79423e-07
-2.26536e-06
4.6752e-07
-2.23526e-06
2.60762e-07
-2.20412e-06
5.70278e-08
-2.17132e-06
-1.45991e-07
-2.1366e-06
-3.50034e-07
-2.10029e-06
-5.56899e-07
-2.06335e-06
-7.68756e-07
-2.02754e-06
-9.88035e-07
-1.99551e-06
-1.21802e-06
-1.97075e-06
-1.46336e-06
-1.95718e-06
-1.73076e-06
-1.95818e-06
-2.02954e-06
-1.97473e-06
-2.37126e-06
-2.00293e-06
-2.76768e-06
-2.03164e-06
-3.22596e-06
-2.03849e-06
-3.74242e-06
-1.97955e-06
-4.28799e-06
-1.78293e-06
-4.72557e-06
-1.4459e-06
-4.85342e-06
-8.84016e-07
-4.43633e-06
-2.4703e-06
-3.53478e-07
1.22841e-06
-7.44361e-07
1.88413e-06
-1.12045e-06
2.39538e-06
-1.46966e-06
2.91037e-06
-1.76944e-06
3.34093e-06
-1.9777e-06
3.55609e-06
-2.11778e-06
3.58332e-06
-2.20082e-06
3.47083e-06
-2.24147e-06
3.26593e-06
-2.25089e-06
3.01025e-06
-2.23871e-06
2.72501e-06
-2.21369e-06
2.43006e-06
-2.18206e-06
2.13851e-06
-2.14824e-06
1.85738e-06
-2.1151e-06
1.59033e-06
-2.08419e-06
1.33814e-06
-2.05596e-06
1.09971e-06
-2.03007e-06
8.72867e-07
-2.00568e-06
6.55031e-07
-1.98173e-06
4.4357e-07
-1.95715e-06
2.36181e-07
-1.93103e-06
3.09027e-08
-1.90273e-06
-1.74283e-07
-1.87189e-06
-3.80875e-07
-1.83857e-06
-5.90219e-07
-1.80339e-06
-8.03936e-07
-1.76761e-06
-1.02382e-06
-1.73331e-06
-1.25231e-06
-1.70353e-06
-1.49314e-06
-1.68213e-06
-1.75217e-06
-1.67319e-06
-2.03847e-06
-1.67946e-06
-2.36499e-06
-1.69972e-06
-2.74742e-06
-1.72601e-06
-3.19968e-06
-1.74151e-06
-3.72691e-06
-1.71498e-06
-4.31453e-06
-1.56523e-06
-4.87531e-06
-1.28662e-06
-5.13204e-06
-7.90606e-07
-4.93234e-06
-3.26091e-06
-3.2794e-07
1.55635e-06
-6.90595e-07
2.24678e-06
-1.03232e-06
2.73711e-06
-1.34129e-06
3.21934e-06
-1.58552e-06
3.58515e-06
-1.75096e-06
3.72153e-06
-1.86014e-06
3.6925e-06
-1.92058e-06
3.53127e-06
-1.94664e-06
3.29199e-06
-1.94771e-06
3.01132e-06
-1.93255e-06
2.70985e-06
-1.90843e-06
2.40594e-06
-1.88039e-06
2.11047e-06
-1.85194e-06
1.82892e-06
-1.82518e-06
1.56358e-06
-1.80105e-06
1.31401e-06
-1.77953e-06
1.07819e-06
-1.76001e-06
8.53338e-07
-1.7415e-06
6.36528e-07
-1.72298e-06
4.25046e-07
-1.70344e-06
2.16637e-07
-1.68202e-06
9.4907e-09
-1.65817e-06
-1.98141e-07
-1.63146e-06
-4.07576e-07
-1.60182e-06
-6.19861e-07
-1.56956e-06
-8.36197e-07
-1.53549e-06
-1.05789e-06
-1.50109e-06
-1.28672e-06
-1.4687e-06
-1.52553e-06
-1.44169e-06
-1.77917e-06
-1.42425e-06
-2.05592e-06
-1.42026e-06
-2.36897e-06
-1.43094e-06
-2.73674e-06
-1.45131e-06
-3.17931e-06
-1.46823e-06
-3.70999e-06
-1.45714e-06
-4.32562e-06
-1.35376e-06
-4.97869e-06
-1.10632e-06
-5.37948e-06
-6.90868e-07
-5.34779e-06
-3.95178e-06
-2.90032e-07
1.84639e-06
-6.15442e-07
2.57219e-06
-9.17665e-07
3.03933e-06
-1.18246e-06
3.48414e-06
-1.37534e-06
3.77804e-06
-1.50975e-06
3.85594e-06
-1.59476e-06
3.77751e-06
-1.64024e-06
3.57674e-06
-1.65782e-06
3.30957e-06
-1.65569e-06
3.00919e-06
-1.64148e-06
2.69564e-06
-1.62107e-06
2.38553e-06
-1.59846e-06
2.08786e-06
-1.57638e-06
1.80684e-06
-1.55628e-06
1.54349e-06
-1.53864e-06
1.29636e-06
-1.52314e-06
1.0627e-06
-1.50908e-06
8.39275e-07
-1.49553e-06
6.22984e-07
-1.48159e-06
4.11107e-07
-1.46641e-06
2.01456e-07
-1.44927e-06
-7.65709e-09
-1.42965e-06
-2.17761e-07
-1.40719e-06
-4.30034e-07
-1.3817e-06
-6.45352e-07
-1.35327e-06
-8.64623e-07
-1.32235e-06
-1.08881e-06
-1.28988e-06
-1.31919e-06
-1.25753e-06
-1.55788e-06
-1.22796e-06
-1.80874e-06
-1.20494e-06
-2.07893e-06
-1.19287e-06
-2.38104e-06
-1.19479e-06
-2.73482e-06
-1.20865e-06
-3.16545e-06
-1.22414e-06
-3.6945e-06
-1.22045e-06
-4.32931e-06
-1.15791e-06
-5.04124e-06
-9.41095e-07
-5.59629e-06
-5.86707e-07
-5.70218e-06
-4.53848e-06
-2.45231e-07
2.09162e-06
-5.2714e-07
2.8541e-06
-7.86296e-07
3.29849e-06
-1.00445e-06
3.70229e-06
-1.15604e-06
3.92963e-06
-1.26444e-06
3.96433e-06
-1.3313e-06
3.84437e-06
-1.3666e-06
3.61204e-06
-1.37967e-06
3.32265e-06
-1.37745e-06
3.00697e-06
-1.36629e-06
2.68448e-06
-1.35081e-06
2.37005e-06
-1.33415e-06
2.0712e-06
-1.31833e-06
1.79102e-06
-1.30429e-06
1.52945e-06
-1.29219e-06
1.28426e-06
-1.28164e-06
1.05215e-06
-1.27196e-06
8.29597e-07
-1.2624e-06
6.13424e-07
-1.25224e-06
4.00941e-07
-1.24081e-06
1.90027e-07
-1.22753e-06
-2.09368e-08
-1.21198e-06
-2.33312e-07
-1.19383e-06
-4.48184e-07
-1.17284e-06
-6.66342e-07
-1.14894e-06
-8.88517e-07
-1.12232e-06
-1.11543e-06
-1.09348e-06
-1.34802e-06
-1.06353e-06
-1.58783e-06
-1.03441e-06
-1.83786e-06
-1.00926e-06
-2.10408e-06
-9.92387e-07
-2.39792e-06
-9.87992e-07
-2.73922e-06
-9.9669e-07
-3.15676e-06
-1.01053e-06
-3.68065e-06
-1.01175e-06
-4.3281e-06
-9.70794e-07
-5.08219e-06
-7.9815e-07
-5.76893e-06
-5.03472e-07
-5.99686e-06
-5.04196e-06
-1.9504e-07
2.28666e-06
-4.30254e-07
3.08932e-06
-6.44558e-07
3.51279e-06
-8.17499e-07
3.87523e-06
-9.37136e-07
4.04927e-06
-1.02329e-06
4.05049e-06
-1.07533e-06
3.8964e-06
-1.10324e-06
3.63995e-06
-1.11408e-06
3.33349e-06
-1.11334e-06
3.00623e-06
-1.10607e-06
2.67721e-06
-1.09574e-06
2.35972e-06
-1.08471e-06
2.06017e-06
-1.07442e-06
1.78072e-06
-1.06544e-06
1.52048e-06
-1.05779e-06
1.27661e-06
-1.05108e-06
1.04544e-06
-1.0448e-06
8.23317e-07
-1.03839e-06
6.07017e-07
-1.03134e-06
3.93892e-07
-1.02319e-06
1.81868e-07
-1.01348e-06
-3.06417e-08
-1.00188e-06
-2.44912e-07
-9.881e-07
-4.61964e-07
-9.7188e-07
-6.82562e-07
-9.53048e-07
-9.07348e-07
-9.31578e-07
-1.13691e-06
-9.07687e-07
-1.37191e-06
-8.82024e-07
-1.6135e-06
-8.55961e-07
-1.86393e-06
-8.31987e-07
-2.12805e-06
-8.14016e-07
-2.41589e-06
-8.06801e-07
-2.74643e-06
-8.13034e-07
-3.15052e-06
-8.27727e-07
-3.66596e-06
-8.36358e-07
-4.31947e-06
-8.14446e-07
-5.1041e-06
-6.79231e-07
-5.90415e-06
-4.23541e-07
-6.25255e-06
-5.4655e-06
-1.44007e-07
2.43066e-06
-3.29755e-07
3.27506e-06
-4.99867e-07
3.68291e-06
-6.3161e-07
4.00697e-06
-7.23428e-07
4.14109e-06
-7.88814e-07
4.11588e-06
-8.28908e-07
3.9365e-06
-8.51281e-07
3.66232e-06
-8.61048e-07
3.34325e-06
-8.6239e-07
3.00758e-06
-8.59024e-07
2.67384e-06
-8.53443e-07
2.35414e-06
-8.47315e-07
2.05404e-06
-8.41591e-07
1.775e-06
-8.36619e-07
1.51551e-06
-8.32357e-07
1.27234e-06
-8.2855e-07
1.04163e-06
-8.24865e-07
8.19633e-07
-8.20965e-07
6.03117e-07
-8.16538e-07
3.89466e-07
-8.11297e-07
1.76627e-07
-8.04949e-07
-3.69896e-08
-7.97225e-07
-2.52636e-07
-7.87876e-07
-4.71313e-07
-7.76645e-07
-6.93793e-07
-7.63293e-07
-9.207e-07
-7.47652e-07
-1.15255e-06
-7.29712e-07
-1.38985e-06
-7.09783e-07
-1.63342e-06
-6.88767e-07
-1.88494e-06
-6.68573e-07
-2.14825e-06
-6.52604e-07
-2.43186e-06
-6.45729e-07
-2.75331e-06
-6.52153e-07
-3.1441e-06
-6.69793e-07
-3.64832e-06
-6.85967e-07
-4.30329e-06
-6.7559e-07
-5.11448e-06
-5.83135e-07
-5.9966e-06
-3.70093e-07
-6.46559e-06
-5.83559e-06
-9.01677e-08
2.52083e-06
-2.28421e-07
3.41332e-06
-3.55911e-07
3.8104e-06
-4.49684e-07
4.10074e-06
-5.16262e-07
4.20766e-06
-5.62929e-07
4.16255e-06
-5.92616e-07
3.96618e-06
-6.10381e-07
3.68009e-06
-6.19504e-07
3.35238e-06
-6.22867e-07
3.01094e-06
-6.22975e-07
2.67395e-06
-6.21444e-07
2.35261e-06
-6.19331e-07
2.05193e-06
-6.17212e-07
1.77288e-06
-6.15289e-07
1.51359e-06
-6.13556e-07
1.27061e-06
-6.11905e-07
1.03998e-06
-6.10209e-07
8.17936e-07
-6.08338e-07
6.01247e-07
-6.06174e-07
3.87301e-07
-6.0359e-07
1.74043e-07
-6.00436e-07
-4.0144e-08
-5.96528e-07
-2.56543e-07
-5.91662e-07
-4.76179e-07
-5.85592e-07
-6.99864e-07
-5.78048e-07
-9.28244e-07
-5.68769e-07
-1.16183e-06
-5.57579e-07
-1.40104e-06
-5.44534e-07
-1.64647e-06
-5.30169e-07
-1.89931e-06
-5.15892e-07
-2.16252e-06
-5.04543e-07
-2.44321e-06
-5.00764e-07
-2.75709e-06
-5.09797e-07
-3.13507e-06
-5.3238e-07
-3.62574e-06
-5.57878e-07
-4.27779e-06
-5.61233e-07
-5.11112e-06
-4.99288e-07
-6.05855e-06
-3.20782e-07
-6.6441e-06
-6.15637e-06
-4.08432e-08
2.56168e-06
-1.29558e-07
3.50203e-06
-2.14501e-07
3.89534e-06
-2.73779e-07
4.16002e-06
-3.17067e-07
4.25095e-06
-3.46193e-07
4.19167e-06
-3.66109e-07
3.9861e-06
-3.79462e-07
3.69344e-06
-3.87799e-07
3.36071e-06
-3.92736e-07
3.01588e-06
-3.95646e-07
2.67686e-06
-3.97356e-07
2.35432e-06
-3.9839e-07
2.05297e-06
-3.99024e-07
1.77351e-06
-3.99376e-07
1.51394e-06
-3.99505e-07
1.27074e-06
-3.99464e-07
1.03994e-06
-3.9932e-07
8.17792e-07
-3.9914e-07
6.01067e-07
-3.98981e-07
3.87142e-07
-3.98866e-07
1.73929e-07
-3.98777e-07
-4.02338e-08
-3.98627e-07
-2.56693e-07
-3.98265e-07
-4.7654e-07
-3.97477e-07
-7.00652e-07
-3.95987e-07
-9.29734e-07
-3.93481e-07
-1.16433e-06
-3.89669e-07
-1.40486e-06
-3.84419e-07
-1.65172e-06
-3.7798e-07
-1.90575e-06
-3.71353e-07
-2.16915e-06
-3.66859e-07
-2.44771e-06
-3.68731e-07
-2.75521e-06
-3.82673e-07
-3.12112e-06
-4.11622e-07
-3.59679e-06
-4.47043e-07
-4.24237e-06
-4.66575e-07
-5.09159e-06
-4.324e-07
-6.09272e-06
-2.85779e-07
-6.79072e-06
-6.44215e-06
1.34958e-08
2.54818e-06
-3.0692e-08
3.54622e-06
-7.65884e-08
3.94124e-06
-1.05393e-07
4.18883e-06
-1.25727e-07
4.27129e-06
-1.38397e-07
4.20434e-06
-1.48586e-07
3.99629e-06
-1.5708e-07
3.70193e-06
-1.6408e-07
3.36771e-06
-1.69892e-07
3.02169e-06
-1.74813e-07
2.68178e-06
-1.7895e-07
2.35845e-06
-1.8235e-07
2.05637e-06
-1.85039e-07
1.7762e-06
-1.87073e-07
1.51597e-06
-1.88584e-07
1.27225e-06
-1.89774e-07
1.04113e-06
-1.90887e-07
8.18905e-07
-1.92169e-07
6.02348e-07
-1.93836e-07
3.88809e-07
-1.96055e-07
1.76148e-07
-1.98926e-07
-3.73634e-08
-2.02467e-07
-2.53151e-07
-2.06601e-07
-4.72407e-07
-2.11159e-07
-6.96093e-07
-2.15892e-07
-9.25001e-07
-2.20466e-07
-1.15976e-06
-2.24519e-07
-1.4008e-06
-2.27782e-07
-1.64846e-06
-2.30279e-07
-1.90325e-06
-2.32669e-07
-2.16676e-06
-2.3681e-07
-2.44356e-06
-2.4648e-07
-2.74554e-06
-2.67469e-07
-3.10013e-06
-3.04311e-07
-3.55995e-06
-3.50774e-07
-4.19591e-06
-3.86195e-07
-5.05617e-06
-3.75061e-07
-6.10386e-06
-2.54377e-07
-6.9114e-06
-6.69653e-06
6.19983e-08
2.48618e-06
6.46348e-08
3.54358e-06
5.61612e-08
3.94971e-06
5.58877e-08
4.1891e-06
5.86892e-08
4.26848e-06
6.20281e-08
4.201e-06
6.14727e-08
3.99685e-06
5.83998e-08
3.70501e-06
5.35109e-08
3.3726e-06
4.76875e-08
3.02751e-06
4.16119e-08
2.68786e-06
3.58488e-08
2.36422e-06
3.07772e-08
2.06144e-06
2.66004e-08
1.78038e-06
2.3322e-08
1.51925e-06
2.07545e-08
1.27482e-06
1.85727e-08
1.04331e-06
1.63814e-08
8.21096e-07
1.37777e-08
6.04952e-07
1.0396e-08
3.92191e-07
5.938e-09
1.80606e-07
1.87957e-10
-3.16134e-08
-6.97953e-09
-2.45984e-07
-1.55786e-08
-4.63808e-07
-2.55039e-08
-6.86168e-07
-3.65522e-08
-9.13953e-07
-4.84089e-08
-1.1479e-06
-6.06892e-08
-1.38852e-06
-7.3037e-08
-1.63611e-06
-8.5297e-08
-1.89099e-06
-9.7828e-08
-2.15423e-06
-1.12057e-07
-2.42934e-06
-1.31268e-07
-2.72633e-06
-1.61077e-07
-3.07033e-06
-2.07119e-07
-3.51391e-06
-2.65717e-07
-4.13731e-06
-3.17626e-07
-5.00426e-06
-3.29507e-07
-6.09197e-06
-2.31253e-07
-7.00965e-06
-6.92778e-06
1.10719e-07
2.37546e-06
1.57479e-07
3.49682e-06
1.84505e-07
3.92268e-06
2.12263e-07
4.16134e-06
2.38086e-07
4.24266e-06
2.57634e-07
4.18146e-06
2.66166e-07
3.98831e-06
2.68788e-07
3.70238e-06
2.66764e-07
3.37463e-06
2.61839e-07
3.03244e-06
2.55491e-07
2.6942e-06
2.48873e-07
2.37084e-06
2.42767e-07
2.06755e-06
2.37592e-07
1.78555e-06
2.33419e-07
1.52342e-06
2.30034e-07
1.2782e-06
2.27022e-07
1.04633e-06
2.23863e-07
8.24255e-07
2.20019e-07
6.08796e-07
2.1499e-07
3.9722e-07
2.08352e-07
1.87244e-07
1.99772e-07
-2.30338e-08
1.89024e-07
-2.35235e-07
1.76001e-07
-4.50786e-07
1.60722e-07
-6.70889e-07
1.43319e-07
-8.96549e-07
1.24049e-07
-1.12863e-06
1.03278e-07
-1.36775e-06
8.14021e-08
-1.61423e-06
5.87025e-08
-1.86829e-06
3.50799e-08
-2.13061e-06
9.52695e-09
-2.40378e-06
-2.07611e-08
-2.69605e-06
-6.10462e-08
-3.03004e-06
-1.17585e-07
-3.45737e-06
-1.88883e-07
-4.06601e-06
-2.56511e-07
-4.93663e-06
-2.89769e-07
-6.05872e-06
-2.10957e-07
-7.08847e-06
-7.13874e-06
1.58595e-07
2.21687e-06
2.47836e-07
3.40758e-06
3.07895e-07
3.86262e-06
3.6129e-07
4.10795e-06
4.08885e-07
4.19507e-06
4.45601e-07
4.14474e-06
4.65134e-07
3.96878e-06
4.74794e-07
3.69272e-06
4.76927e-07
3.37249e-06
4.74097e-07
3.03527e-06
4.68527e-07
2.69977e-06
4.61923e-07
2.37744e-06
4.55441e-07
2.07403e-06
4.49728e-07
1.79127e-06
4.44964e-07
1.52819e-06
4.4095e-07
1.28222e-06
4.37217e-07
1.05006e-06
4.33154e-07
8.28318e-07
4.2811e-07
6.1384e-07
4.21468e-07
4.03862e-07
4.12685e-07
1.96027e-07
4.01316e-07
-1.16649e-08
3.87034e-07
-2.20953e-07
3.69627e-07
-4.33379e-07
3.49016e-07
-6.50277e-07
3.25238e-07
-8.72771e-07
2.98455e-07
-1.10185e-06
2.68973e-07
-1.33827e-06
2.37183e-07
-1.58244e-06
2.0344e-07
-1.83455e-06
1.67865e-07
-2.09503e-06
1.29871e-07
-2.36579e-06
8.72062e-08
-2.65338e-06
3.49659e-08
-2.9778e-06
-3.3526e-08
-3.38887e-06
-1.18602e-07
-3.98094e-06
-2.0222e-07
-4.85301e-06
-2.53828e-07
-6.00711e-06
-1.96998e-07
-7.1453e-06
-7.33574e-06
2.03946e-07
2.01292e-06
3.34741e-07
3.27679e-06
4.26619e-07
3.77075e-06
5.05567e-07
4.029e-06
5.72086e-07
4.12855e-06
6.25345e-07
4.09148e-06
6.58427e-07
3.9357e-06
6.76899e-07
3.67425e-06
6.84771e-07
3.36462e-06
6.85511e-07
3.03453e-06
6.81999e-07
2.70329e-06
6.7645e-07
2.38299e-06
6.70391e-07
2.08009e-06
6.64713e-07
1.79694e-06
6.59737e-07
1.53316e-06
6.55319e-07
1.28663e-06
6.50985e-07
1.05439e-06
6.46072e-07
8.33231e-07
6.39851e-07
6.20061e-07
6.31608e-07
4.12106e-07
6.20695e-07
2.0694e-07
6.06563e-07
2.46762e-09
5.88779e-07
-2.03169e-07
5.67028e-07
-4.11628e-07
5.411e-07
-6.2435e-07
5.10918e-07
-8.42589e-07
4.76538e-07
-1.06747e-06
4.38164e-07
-1.2999e-06
3.96117e-07
-1.54039e-06
3.50784e-07
-1.78921e-06
3.02465e-07
-2.04671e-06
2.5095e-07
-2.31428e-06
1.94598e-07
-2.59703e-06
1.2898e-07
-2.91218e-06
4.71647e-08
-3.30706e-06
-5.27347e-08
-3.88104e-06
-1.53131e-07
-4.75262e-06
-2.20164e-07
-5.94007e-06
-1.86187e-07
-7.17927e-06
-7.52192e-06
2.45971e-07
1.76695e-06
4.16526e-07
3.10623e-06
5.38479e-07
3.64879e-06
6.40776e-07
3.9267e-06
7.27463e-07
4.04186e-06
7.98439e-07
4.0205e-06
8.46497e-07
3.88764e-06
8.75374e-07
3.64538e-06
8.90727e-07
3.34927e-06
8.96754e-07
3.0285e-06
8.96859e-07
2.70318e-06
8.93679e-07
2.38617e-06
8.8908e-07
2.08469e-06
8.84199e-07
1.80182e-06
8.79531e-07
1.53783e-06
8.75038e-07
1.29113e-06
8.70293e-07
1.05914e-06
8.64631e-07
8.38893e-07
8.57279e-07
6.27413e-07
8.47452e-07
4.21933e-07
8.34416e-07
2.19975e-07
8.17525e-07
1.93593e-08
7.96247e-07
-1.81892e-07
7.70159e-07
-3.8554e-07
7.38905e-07
-5.93095e-07
7.02265e-07
-8.05949e-07
6.60167e-07
-1.02537e-06
6.12676e-07
-1.2524e-06
5.60016e-07
-1.48773e-06
5.02559e-07
-1.73176e-06
4.40712e-07
-1.98487e-06
3.74613e-07
-2.24818e-06
3.03249e-07
-2.52567e-06
2.22853e-07
-2.83178e-06
1.26248e-07
-3.21046e-06
9.72323e-09
-3.76451e-06
-1.08685e-07
-4.63421e-06
-1.92446e-07
-5.85631e-06
-1.76432e-07
-7.19529e-06
-7.69835e-06
2.82328e-07
1.48462e-06
4.90512e-07
2.89805e-06
6.41646e-07
3.49766e-06
7.66573e-07
3.80178e-06
8.73508e-07
3.93493e-06
9.61062e-07
3.93295e-06
1.02658e-06
3.82212e-06
1.06878e-06
3.60317e-06
1.09418e-06
3.32387e-06
1.10776e-06
3.01492e-06
1.11348e-06
2.69746e-06
1.11438e-06
2.38527e-06
1.11262e-06
2.08644e-06
1.10961e-06
1.80484e-06
1.10603e-06
1.54141e-06
1.102e-06
1.29516e-06
1.0972e-06
1.06395e-06
1.091e-06
8.45095e-07
1.08263e-06
6.35783e-07
1.07127e-06
4.33291e-07
1.05612e-06
2.35121e-07
1.03646e-06
3.9027e-08
1.01165e-06
-1.57087e-07
9.81171e-07
-3.55061e-07
9.44512e-07
-5.56436e-07
9.013e-07
-7.62737e-07
8.51304e-07
-9.75375e-07
7.94404e-07
-1.1955e-06
7.30672e-07
-1.424e-06
6.60428e-07
-1.66151e-06
5.84208e-07
-1.90865e-06
5.02506e-07
-2.16647e-06
4.14882e-07
-2.43804e-06
3.18324e-07
-2.73523e-06
2.05875e-07
-3.09801e-06
7.25358e-08
-3.63117e-06
-6.53533e-08
-4.49632e-06
-1.66568e-07
-5.7551e-06
-1.67026e-07
-7.19483e-06
-7.86538e-06
3.09541e-07
1.17508e-06
5.52119e-07
2.65547e-06
7.31951e-07
3.31783e-06
8.79509e-07
3.65422e-06
1.00636e-06
3.80807e-06
1.11228e-06
3.82703e-06
1.19651e-06
3.73789e-06
1.25489e-06
3.54479e-06
1.29344e-06
3.28532e-06
1.31753e-06
2.99083e-06
1.33149e-06
2.6835e-06
1.3387e-06
2.37806e-06
1.34166e-06
2.08348e-06
1.34202e-06
1.80448e-06
1.34068e-06
1.54274e-06
1.33797e-06
1.29787e-06
1.33369e-06
1.06822e-06
1.32734e-06
8.51448e-07
1.31819e-06
6.44934e-07
1.30543e-06
4.46053e-07
1.28822e-06
2.52328e-07
1.26576e-06
6.14832e-08
1.23737e-06
-1.28696e-07
1.20238e-06
-3.20071e-07
1.16014e-06
-5.14198e-07
1.11014e-06
-7.12732e-07
1.05196e-06
-9.17192e-07
9.85274e-07
-1.12882e-06
9.09987e-07
-1.34872e-06
8.26324e-07
-1.57785e-06
7.34866e-07
-1.81719e-06
6.36421e-07
-2.06803e-06
5.31184e-07
-2.3328e-06
4.16851e-07
-2.62089e-06
2.87114e-07
-2.96827e-06
1.36353e-07
-3.48041e-06
-1.84362e-08
-4.34153e-06
-1.36727e-07
-5.63681e-06
-1.61393e-07
-7.17016e-06
-8.02677e-06
3.20215e-07
8.54866e-07
5.94685e-07
2.381e-06
8.04871e-07
3.10764e-06
9.76009e-07
3.48308e-06
1.12263e-06
3.66146e-06
1.2484e-06
3.70126e-06
1.35243e-06
3.63386e-06
1.43029e-06
3.46693e-06
1.4857e-06
3.22992e-06
1.52388e-06
2.95264e-06
1.54941e-06
2.65797e-06
1.56589e-06
2.36157e-06
1.57607e-06
2.0733e-06
1.58185e-06
1.7987e-06
1.5844e-06
1.54019e-06
1.58426e-06
1.29801e-06
1.58144e-06
1.07104e-06
1.57559e-06
8.57298e-07
1.5661e-06
6.54432e-07
1.55219e-06
4.59956e-07
1.53305e-06
2.71473e-07
1.50783e-06
8.67026e-08
1.47579e-06
-9.66548e-08
1.43613e-06
-2.8041e-07
1.38807e-06
-4.66143e-07
1.33097e-06
-6.55634e-07
1.26422e-06
-8.50441e-07
1.18729e-06
-1.05189e-06
1.09988e-06
-1.26131e-06
1.00209e-06
-1.48006e-06
8.94499e-07
-1.70959e-06
7.78081e-07
-1.95161e-06
6.53617e-07
-2.20834e-06
5.19769e-07
-2.48705e-06
3.70966e-07
-2.81947e-06
2.01163e-07
-3.31061e-06
2.56699e-08
-4.16604e-06
-1.14376e-07
-5.49676e-06
-1.54805e-07
-7.12973e-06
-8.18158e-06
3.04264e-07
5.50602e-07
6.10255e-07
2.07501e-06
8.53689e-07
2.86421e-06
1.05014e-06
3.28663e-06
1.21764e-06
3.49395e-06
1.36435e-06
3.55455e-06
1.49021e-06
3.508e-06
1.5907e-06
3.36645e-06
1.66707e-06
3.15355e-06
1.72356e-06
2.89615e-06
1.76462e-06
2.61691e-06
1.794e-06
2.3322e-06
1.81459e-06
2.05271e-06
1.82852e-06
1.78478e-06
1.8372e-06
1.53151e-06
1.84142e-06
1.2938e-06
1.84144e-06
1.07102e-06
1.8371e-06
8.61628e-07
1.82797e-06
6.63563e-07
1.81339e-06
4.74538e-07
1.79257e-06
2.92294e-07
1.7647e-06
1.14574e-07
1.72896e-06
-6.0915e-08
1.68445e-06
-2.35903e-07
1.63031e-06
-4.12e-07
1.56574e-06
-5.91067e-07
1.48994e-06
-7.7464e-07
1.40219e-06
-9.64134e-07
1.30199e-06
-1.16111e-06
1.18931e-06
-1.36738e-06
1.06463e-06
-1.58492e-06
9.29057e-07
-1.81603e-06
7.83822e-07
-2.06311e-06
6.28639e-07
-2.33186e-06
4.58751e-07
-2.64958e-06
2.68136e-07
-3.11999e-06
6.97259e-08
-3.96763e-06
-9.02437e-08
-5.33679e-06
-1.48519e-07
-7.07146e-06
-8.3301e-06
2.48545e-07
3.02058e-07
5.966e-07
1.72695e-06
8.71993e-07
2.58881e-06
1.09518e-06
3.06344e-06
1.28567e-06
3.30347e-06
1.45468e-06
3.38553e-06
1.60446e-06
3.35822e-06
1.73067e-06
3.24024e-06
1.8324e-06
3.05182e-06
1.91202e-06
2.81653e-06
1.97328e-06
2.55565e-06
2.01983e-06
2.28564e-06
2.05468e-06
2.01786e-06
2.08012e-06
1.75934e-06
2.09779e-06
1.51384e-06
2.10874e-06
1.28285e-06
2.11348e-06
1.06627e-06
2.11213e-06
8.62982e-07
2.10444e-06
6.71252e-07
2.08993e-06
4.89052e-07
2.0679e-06
3.14321e-07
2.03763e-06
1.44843e-07
1.99821e-06
-2.14938e-08
1.94873e-06
-1.86426e-07
1.88824e-06
-3.51508e-07
1.8158e-06
-5.18631e-07
1.73044e-06
-6.89271e-07
1.63126e-06
-8.64959e-07
1.51762e-06
-1.04747e-06
1.38933e-06
-1.23908e-06
1.24674e-06
-1.44233e-06
1.09095e-06