/*--------------------------------*- C++ -*----------------------------------*\
  =========                 |
  \\      /  F ield         | OpenFOAM: The Open Source CFD Toolbox
   \\    /   O peration     | Website:  https://openfoam.org
    \\  /    A nd           | Version:  13
     \\/     M anipulation  |
\*---------------------------------------------------------------------------*/
FoamFile
{
    format      ascii;
    class       volVectorField;
    location    "4.5";
    object      U;
}
// * * * * * * * * * * * * * * * * * * * * * * * * * * * * * * * * * * * * * //

dimensions      [0 1 -1 0 0 0 0];

internalField   nonuniform List<vector> 
1600
(
(0.000966939 -0.000870253 0)
(0.00515146 -0.00141741 0)
(0.00942008 -0.00129841 0)
(0.0122324 -0.000463536 0)
(0.0130153 9.59948e-05 0)
(0.0127609 2.04711e-05 0)
(0.0122527 -0.000418693 0)
(0.0119428 -0.000848194 0)
(0.011477 -0.000956934 0)
(0.0103642 -0.000854809 0)
(0.00815616 -0.00103811 0)
(0.00345926 -0.000804422 0)
(-0.0058789 0.000453296 0)
(-0.0165356 0.00489317 0)
(-0.0343512 0.0108227 0)
(-0.0585021 0.0126906 0)
(-0.0790867 0.0118226 0)
(-0.0978252 0.0105612 0)
(-0.113302 0.00898045 0)
(-0.126215 0.00744759 0)
(-0.136322 0.00592206 0)
(-0.143894 0.00445789 0)
(-0.148746 0.00302229 0)
(-0.150917 0.00166632 0)
(-0.150982 -0.000269749 0)
(-0.147399 -0.00189657 0)
(-0.141281 -0.00395637 0)
(-0.131204 -0.00580287 0)
(-0.117917 -0.00789346 0)
(-0.100932 -0.0100021 0)
(-0.0809455 -0.0121633 0)
(-0.0580541 -0.0136071 0)
(-0.033676 -0.0139137 0)
(-0.00861006 -0.0125743 0)
(0.0116963 -0.0104495 0)
(0.0265593 -0.0034541 0)
(0.0275668 0.0032735 0)
(0.0215214 0.00488241 0)
(0.0100508 0.00377878 0)
(0.00207908 0.00256284 0)
(0.00180191 -0.00508987 0)
(0.00893946 -0.00793025 0)
(0.0139314 -0.00622033 0)
(0.0168536 -0.00292439 0)
(0.0174709 -0.000240174 0)
(0.015955 0.00107299 0)
(0.0129081 0.00131357 0)
(0.00856451 0.00149995 0)
(0.002001 0.00265785 0)
(-0.00819121 0.00501383 0)
(-0.023037 0.00916383 0)
(-0.0456781 0.0164829 0)
(-0.0730618 0.0242018 0)
(-0.0988687 0.0303392 0)
(-0.120291 0.0320864 0)
(-0.138583 0.0302682 0)
(-0.15382 0.0271338 0)
(-0.166687 0.0232707 0)
(-0.176928 0.0192998 0)
(-0.185076 0.0153676 0)
(-0.190909 0.0115315 0)
(-0.194739 0.00777678 0)
(-0.196421 0.0040148 0)
(-0.19607 0.000146199 0)
(-0.193581 -0.00408662 0)
(-0.188791 -0.00853819 0)
(-0.181543 -0.0133253 0)
(-0.171506 -0.0184159 0)
(-0.158453 -0.0238234 0)
(-0.141742 -0.0291476 0)
(-0.121726 -0.0340687 0)
(-0.0991382 -0.0381212 0)
(-0.0738448 -0.0392886 0)
(-0.0475304 -0.0365751 0)
(-0.0219794 -0.0287639 0)
(0.000408115 -0.0134076 0)
(0.015329 0.003458 0)
(0.0151856 0.0104837 0)
(0.00896979 0.0126053 0)
(0.00141906 0.00922638 0)
(0.00284095 -0.0115861 0)
(0.00980884 -0.0142398 0)
(0.0126752 -0.00994844 0)
(0.0134371 -0.00374961 0)
(0.0116284 0.00116692 0)
(0.00745144 0.00427368 0)
(0.000216413 0.00665351 0)
(-0.0112725 0.0104554 0)
(-0.0281367 0.0173533 0)
(-0.0511488 0.0270752 0)
(-0.0778114 0.0373004 0)
(-0.103172 0.0442862 0)
(-0.125809 0.0479096 0)
(-0.14401 0.0485825 0)
(-0.158759 0.0464677 0)
(-0.170736 0.0425469 0)
(-0.180347 0.0375487 0)
(-0.188131 0.03206 0)
(-0.194202 0.0264469 0)
(-0.198888 0.0209049 0)
(-0.202251 0.0151544 0)
(-0.204261 0.00975523 0)
(-0.204841 0.004262 0)
(-0.203976 -0.00127702 0)
(-0.20153 -0.00714164 0)
(-0.197591 -0.0133619 0)
(-0.191984 -0.0202816 0)
(-0.184512 -0.0279389 0)
(-0.174989 -0.0364771 0)
(-0.163094 -0.0453718 0)
(-0.148354 -0.0540927 0)
(-0.130246 -0.0612151 0)
(-0.108867 -0.0647676 0)
(-0.0848534 -0.0632023 0)
(-0.0588984 -0.0536401 0)
(-0.031833 -0.0340963 0)
(-0.00605131 -0.00587805 0)
(0.00196323 0.0106663 0)
(0.00208869 0.0164666 0)
(-1.09841e-05 0.0126249 0)
(0.0033848 -0.0187077 0)
(0.00714446 -0.0179175 0)
(0.00720298 -0.0103158 0)
(0.00447688 -0.00136049 0)
(-0.000935425 0.00607839 0)
(-0.00996512 0.0127401 0)
(-0.0237277 0.0202389 0)
(-0.0427213 0.0299339 0)
(-0.0660499 0.0414686 0)
(-0.0917622 0.0526213 0)
(-0.116124 0.0606668 0)
(-0.135768 0.0643145 0)
(-0.151338 0.0645027 0)
(-0.163134 0.0618797 0)
(-0.172519 0.0572915 0)
(-0.17981 0.0515355 0)
(-0.185566 0.0450948 0)
(-0.190291 0.0381034 0)
(-0.19428 0.0309643 0)
(-0.197331 0.0239221 0)
(-0.199361 0.0172594 0)
(-0.200358 0.010527 0)
(-0.20037 0.00379915 0)
(-0.19944 -0.00309264 0)
(-0.197543 -0.0102225 0)
(-0.194575 -0.0178095 0)
(-0.190462 -0.0260142 0)
(-0.185071 -0.0349663 0)
(-0.178235 -0.0447253 0)
(-0.16985 -0.0555997 0)
(-0.159811 -0.0671556 0)
(-0.147807 -0.0785584 0)
(-0.13324 -0.0874321 0)
(-0.114198 -0.0899874 0)
(-0.0901802 -0.0823652 0)
(-0.061946 -0.0621644 0)
(-0.0278028 -0.0263932 0)
(-0.00644274 0.00347296 0)
(-0.00149124 0.01475 0)
(-1.39467e-05 0.0124949 0)
(0.00223842 -0.0224032 0)
(0.00242722 -0.0179135 0)
(-0.0013747 -0.00649088 0)
(-0.00783816 0.00505522 0)
(-0.0175692 0.0160176 0)
(-0.0315003 0.02718 0)
(-0.0501501 0.0395913 0)
(-0.0726053 0.0530669 0)
(-0.0965834 0.0657115 0)
(-0.11896 0.0748628 0)
(-0.136543 0.0788256 0)
(-0.149868 0.0787471 0)
(-0.160068 0.0758166 0)
(-0.167606 0.0707376 0)
(-0.173449 0.0643198 0)
(-0.178039 0.0568626 0)
(-0.181863 0.0489804 0)
(-0.184727 0.041123 0)
(-0.186515 0.0333774 0)
(-0.187348 0.0257107 0)
(-0.187651 0.0181966 0)
(-0.187379 0.0107343 0)
(-0.186688 0.00329303 0)
(-0.185538 -0.00430862 0)
(-0.183877 -0.0122153 0)
(-0.181639 -0.020658 0)
(-0.178848 -0.0298364 0)
(-0.175423 -0.0399277 0)
(-0.171274 -0.0510137 0)
(-0.16623 -0.0630124 0)
(-0.160026 -0.0756369 0)
(-0.152236 -0.0882061 0)
(-0.142652 -0.100409 0)
(-0.130269 -0.109105 0)
(-0.112667 -0.109065 0)
(-0.087243 -0.094179 0)
(-0.0541088 -0.0614851 0)
(-0.016102 -0.0137529 0)
(-0.00165491 0.00976207 0)
(0.000806187 0.0120287 0)
(-5.09058e-05 -0.0230532 0)
(-0.00402148 -0.0134361 0)
(-0.0113495 0.000832303 0)
(-0.0214097 0.0155221 0)
(-0.0350105 0.0303457 0)
(-0.0524864 0.0456507 0)
(-0.0732227 0.0612488 0)
(-0.0953754 0.0756631 0)
(-0.116091 0.0864592 0)
(-0.132311 0.0914561 0)
(-0.144094 0.0914897 0)
(-0.15299 0.0884063 0)
(-0.159462 0.0830031 0)
(-0.164107 0.0760766 0)
(-0.167556 0.0681267 0)
(-0.169623 0.0597667 0)
(-0.170788 0.0511771 0)
(-0.171142 0.0425702 0)
(-0.171036 0.0341084 0)
(-0.170773 0.025894 0)
(-0.170108 0.0179417 0)
(-0.1692 0.0101275 0)
(-0.168032 0.00236713 0)
(-0.166624 -0.00551015 0)
(-0.164973 -0.0136712 0)
(-0.163115 -0.0223506 0)
(-0.161094 -0.0317689 0)
(-0.158926 -0.0421657 0)
(-0.156601 -0.0537425 0)
(-0.15405 -0.0665961 0)
(-0.151091 -0.0805731 0)
(-0.147347 -0.0951094 0)
(-0.142151 -0.108997 0)
(-0.134385 -0.120471 0)
(-0.122706 -0.127305 0)
(-0.104443 -0.122519 0)
(-0.0768267 -0.0988596 0)
(-0.0364717 -0.0501437 0)
(-0.00456674 -0.00246216 0)
(0.00151663 0.0115192 0)
(-0.00276 -0.0186654 0)
(-0.0105503 -0.00544743 0)
(-0.0209381 0.011572 0)
(-0.0340878 0.02932 0)
(-0.0504448 0.0475408 0)
(-0.0694199 0.0655183 0)
(-0.0897486 0.0820669 0)
(-0.109152 0.0950291 0)
(-0.1246 0.101981 0)
(-0.135441 0.102901 0)
(-0.143234 0.100022 0)
(-0.148755 0.0945686 0)
(-0.152339 0.087304 0)
(-0.154502 0.0789255 0)
(-0.155464 0.0699004 0)
(-0.155649 0.0606032 0)
(-0.155287 0.0513221 0)
(-0.154575 0.0422566 0)
(-0.153659 0.033509 0)
(-0.152582 0.0250693 0)
(-0.15132 0.0169026 0)
(-0.149944 0.00891141 0)
(-0.148445 0.000988605 0)
(-0.146853 -0.00700834 0)
(-0.145191 -0.0152499 0)
(-0.143515 -0.0239419 0)
(-0.141886 -0.0332997 0)
(-0.140368 -0.0435587 0)
(-0.139012 -0.0549508 0)
(-0.137825 -0.0676723 0)
(-0.13674 -0.0817982 0)
(-0.135521 -0.0971359 0)
(-0.133599 -0.112997 0)
(-0.129904 -0.12775 0)
(-0.122809 -0.13867 0)
(-0.110397 -0.141917 0)
(-0.0904652 -0.130223 0)
(-0.059354 -0.0936478 0)
(-0.0137799 -0.0232935 0)
(0.00247349 0.010368 0)
(-0.00523433 -0.0107114 0)
(-0.0159693 0.00599768 0)
(-0.0287161 0.0250217 0)
(-0.044243 0.0453346 0)
(-0.0618661 0.0657252 0)
(-0.0806377 0.0846465 0)
(-0.0989776 0.100252 0)
(-0.114223 0.109977 0)
(-0.124778 0.112714 0)
(-0.131913 0.110546 0)
(-0.136797 0.105339 0)
(-0.139747 0.0979746 0)
(-0.14117 0.0892098 0)
(-0.141511 0.0796764 0)
(-0.141064 0.0698149 0)
(-0.140174 0.0599719 0)
(-0.139004 0.0503601 0)
(-0.137695 0.0411045 0)
(-0.136295 0.0322297 0)
(-0.134822 0.0236949 0)
(-0.133291 0.0154462 0)
(-0.131714 0.00738532 0)
(-0.130094 -0.000593624 0)
(-0.128448 -0.00861939 0)
(-0.126804 -0.0168514 0)
(-0.125219 -0.0254704 0)
(-0.12377 -0.0346822 0)
(-0.122549 -0.0447186 0)
(-0.121652 -0.0558252 0)
(-0.121147 -0.0682347 0)
(-0.121031 -0.0821094 0)
(-0.121164 -0.0974376 0)
(-0.121137 -0.113865 0)
(-0.12003 -0.13045 0)
(-0.116352 -0.145137 0)
(-0.108317 -0.15415 0)
(-0.0942268 -0.151662 0)
(-0.0709142 -0.12874 0)
(-0.0311802 -0.0645545 0)
(0.000606131 0.000114589 0)
(-0.0067098 0.000440446 0)
(-0.0198476 0.0200589 0)
(-0.0343052 0.0404535 0)
(-0.0509931 0.0623017 0)
(-0.0686567 0.0834947 0)
(-0.0861188 0.10196 0)
(-0.101527 0.115042 0)
(-0.112436 0.120634 0)
(-0.11956 0.119966 0)
(-0.124165 0.115386 0)
(-0.126904 0.108245 0)
(-0.128036 0.0993354 0)
(-0.128049 0.0894286 0)
(-0.127319 0.079106 0)
(-0.126128 0.0687545 0)
(-0.124715 0.0586419 0)
(-0.12319 0.0488998 0)
(-0.121639 0.0395848 0)
(-0.12008 0.0306794 0)
(-0.118526 0.0221264 0)
(-0.116974 0.0138587 0)
(-0.115411 0.00577802 0)
(-0.113822 -0.00222062 0)
(-0.112213 -0.0102452 0)
(-0.110603 -0.0184347 0)
(-0.109045 -0.0269416 0)
(-0.107617 -0.0359458 0)
(-0.106427 -0.0456633 0)
(-0.105601 -0.0563475 0)
(-0.105258 -0.0682799 0)
(-0.105468 -0.0817293 0)
(-0.106187 -0.0968628 0)
(-0.107153 -0.113597 0)
(-0.107687 -0.131377 0)
(-0.106398 -0.148703 0)
(-0.101464 -0.162359 0)
(-0.0916507 -0.166496 0)
(-0.0744121 -0.154627 0)
(-0.0466647 -0.108621 0)
(-0.00612857 -0.014319 0)
(-0.00766706 0.013656 0)
(-0.0222053 0.035587 0)
(-0.0373669 0.0567352 0)
(-0.0541998 0.0790627 0)
(-0.071014 0.100047 0)
(-0.086589 0.116765 0)
(-0.0984789 0.126219 0)
(-0.106198 0.128128 0)
(-0.111062 0.124796 0)
(-0.11388 0.118219 0)
(-0.115125 0.109478 0)
(-0.115119 0.0993793 0)
(-0.114346 0.0886812 0)
(-0.113094 0.0778742 0)
(-0.111602 0.0672718 0)
(-0.110025 0.0570576 0)
(-0.108448 0.0473016 0)
(-0.106921 0.038008 0)
(-0.105448 0.0291327 0)
(-0.104022 0.0206028 0)
(-0.102614 0.012337 0)
(-0.101195 0.0042428 0)
(-0.0997382 -0.00378469 0)
(-0.0982376 -0.011836 0)
(-0.0966995 -0.0200201 0)
(-0.0951659 -0.0284626 0)
(-0.0937051 -0.0373086 0)
(-0.092423 -0.0467435 0)
(-0.0914544 -0.0570024 0)
(-0.0909478 -0.068378 0)
(-0.0910272 -0.0812048 0)
(-0.0917314 -0.0958011 0)
(-0.0929312 -0.112348 0)
(-0.0941902 -0.130705 0)
(-0.0944056 -0.150025 0)
(-0.0915744 -0.167754 0)
(-0.0848257 -0.177138 0)
(-0.071626 -0.173784 0)
(-0.0504393 -0.141217 0)
(-0.0149437 -0.0396563 0)
(-0.00801836 0.0277648 0)
(-0.0229952 0.0516701 0)
(-0.0380184 0.0728996 0)
(-0.0542757 0.0949552 0)
(-0.0697475 0.114886 0)
(-0.0831867 0.129094 0)
(-0.0916146 0.134419 0)
(-0.0974322 0.133484 0)
(-0.100652 0.127941 0)
(-0.102272 0.119692 0)
(-0.102576 0.109668 0)
(-0.101967 0.098707 0)
(-0.100843 0.0874885 0)
(-0.0994287 0.0764067 0)
(-0.0979163 0.0657029 0)
(-0.0964145 0.0554914 0)
(-0.0949872 0.0457949 0)
(-0.0936537 0.0365766 0)
(-0.0924008 0.0277656 0)
(-0.0912013 0.019272 0)
(-0.0900131 0.0110063 0)
(-0.0887952 0.00288044 0)
(-0.0875207 -0.00520127 0)
(-0.0861709 -0.0133154 0)
(-0.084744 -0.0215439 0)
(-0.0832678 -0.0299853 0)
(-0.0817957 -0.0387511 0)
(-0.0804175 -0.0479909 0)
(-0.0792595 -0.0579106 0)
(-0.0784784 -0.0687953 0)
(-0.0782321 -0.081017 0)
(-0.0786247 -0.0950045 0)
(-0.0796296 -0.111142 0)
(-0.0809944 -0.129589 0)
(-0.0819623 -0.15005 0)
(-0.0807218 -0.170952 0)
(-0.0754937 -0.185659 0)
(-0.0655637 -0.188778 0)
(-0.0470306 -0.168486 0)
(-0.0179056 -0.0856761 0)
(-0.00785732 0.0419394 0)
(-0.0225081 0.067595 0)
(-0.0367821 0.0884384 0)
(-0.0519342 0.109671 0)
(-0.0659612 0.127963 0)
(-0.0763204 0.138364 0)
(-0.0827367 0.140734 0)
(-0.0872278 0.137336 0)
(-0.0893061 0.129951 0)
(-0.0901833 0.120316 0)
(-0.0899733 0.109303 0)
(-0.0891226 0.0977327 0)
(-0.0879276 0.0861803 0)
(-0.0865776 0.0749618 0)
(-0.0852198 0.0642537 0)
(-0.0839337 0.0541132 0)
(-0.0827569 0.0445176 0)
(-0.0816862 0.0353952 0)
(-0.080694 0.0266516 0)
(-0.0797418 0.0181851 0)
(-0.0787837 0.00990354 0)
(-0.077776 0.0017249 0)
(-0.0766936 -0.00643577 0)
(-0.0755128 -0.0146436 0)
(-0.0742258 -0.0229593 0)
(-0.072848 -0.0314572 0)
(-0.0714157 -0.0402196 0)
(-0.069996 -0.0493597 0)
(-0.0686929 -0.059045 0)
(-0.0676495 -0.0695311 0)
(-0.0670354 -0.0811955 0)
(-0.0670026 -0.0945441 0)
(-0.067608 -0.11014 0)
(-0.0687172 -0.128406 0)
(-0.0698611 -0.149409 0)
(-0.0696477 -0.172414 0)
(-0.0655207 -0.192668 0)
(-0.0581959 -0.20024 0)
(-0.0421612 -0.189146 0)
(-0.0151364 -0.117401 0)
(-0.00724394 0.0555029 0)
(-0.0209536 0.0826705 0)
(-0.034062 0.102774 0)
(-0.0477434 0.122728 0)
(-0.0600431 0.138913 0)
(-0.0677053 0.145729 0)
(-0.0730834 0.145673 0)
(-0.0763148 0.140141 0)
(-0.0777051 0.131229 0)
(-0.0781465 0.120472 0)
(-0.0777197 0.108711 0)
(-0.0768527 0.0967128 0)
(-0.0757605 0.0849571 0)
(-0.0746014 0.0736931 0)
(-0.0734869 0.063039 0)
(-0.0724711 0.0530011 0)
(-0.0715686 0.0435162 0)
(-0.0707616 0.0344837 0)
(-0.070015 0.0257924 0)
(-0.0692884 0.0173348 0)
(-0.0685385 0.00901952 0)
(-0.0677253 0.000771026 0)
(-0.0668255 -0.00748456 0)
(-0.0658169 -0.015804 0)
(-0.0646884 -0.0242332 0)
(-0.0634454 -0.0328273 0)
(-0.0621096 -0.0416463 0)
(-0.0607263 -0.0507732 0)
(-0.0593721 -0.0603376 0)
(-0.0581636 -0.0705546 0)
(-0.0572587 -0.0817769 0)
(-0.0568332 -0.09454 0)
(-0.0570128 -0.109543 0)
(-0.0577651 -0.127474 0)
(-0.0587856 -0.148693 0)
(-0.0590585 -0.172872 0)
(-0.0562096 -0.197918 0)
(-0.0497634 -0.210945 0)
(-0.0368567 -0.20778 0)
(-0.0133261 -0.148159 0)
(-0.00629544 0.0678445 0)
(-0.0186752 0.0964751 0)
(-0.0303463 0.115707 0)
(-0.0425571 0.134302 0)
(-0.0525421 0.147511 0)
(-0.0584112 0.15168 0)
(-0.0629371 0.149508 0)
(-0.065255 0.142223 0)
(-0.0662504 0.132066 0)
(-0.066465 0.120418 0)
(-0.0660119 0.108096 0)
(-0.0652575 0.0958006 0)
(-0.0643583 0.0839282 0)
(-0.0634451 0.072672 0)
(-0.0625981 0.062097 0)
(-0.0618499 0.0521646 0)
(-0.0611994 0.0427779 0)
(-0.0606221 0.0338152 0)
(-0.0600828 0.0251551 0)
(-0.0595452 0.0166886 0)
(-0.0589724 0.00832688 0)
(-0.0583311 -3.43688e-08 0)
(-0.0576003 -0.00835622 0)
(-0.0567616 -0.0167919 0)
(-0.0558025 -0.0253443 0)
(-0.0547215 -0.0340543 0)
(-0.0535288 -0.0429658 0)
(-0.0522514 -0.0521385 0)
(-0.0509407 -0.0616697 0)
(-0.0496834 -0.0717326 0)
(-0.0486119 -0.0826382 0)
(-0.0479 -0.094911 0)
(-0.0477183 -0.10933 0)
(-0.0481248 -0.126816 0)
(-0.0489202 -0.148069 0)
(-0.0493933 -0.173215 0)
(-0.047696 -0.200683 0)
(-0.042001 -0.219916 0)
(-0.0319751 -0.221952 0)
(-0.0109862 -0.171702 0)
(-0.0052144 0.0786841 0)
(-0.0159488 0.108692 0)
(-0.026024 0.12698 0)
(-0.0365844 0.144007 0)
(-0.0443501 0.15435 0)
(-0.0489574 0.156521 0)
(-0.0527161 0.152518 0)
(-0.0543884 0.143816 0)
(-0.0551614 0.132657 0)
(-0.0552855 0.120311 0)
(-0.0549134 0.107573 0)
(-0.0543327 0.0950725 0)
(-0.0536602 0.0831371 0)
(-0.0529988 0.0719125 0)
(-0.0524029 0.0614166 0)
(-0.0518892 0.0515742 0)
(-0.0514485 0.0422626 0)
(-0.0510563 0.0333461 0)
(-0.0506823 0.0246982 0)
(-0.0502973 0.0162107 0)
(-0.0498731 0.0077975 0)
(-0.0493834 -0.000607208 0)
(-0.0488103 -0.00906018 0)
(-0.048139 -0.0176066 0)
(-0.047357 -0.0262791 0)
(-0.0464583 -0.0351094 0)
(-0.0454446 -0.0441301 0)
(-0.044329 -0.0533842 0)
(-0.0431427 -0.0629435 0)
(-0.0419456 -0.0729434 0)
(-0.0408405 -0.0836465 0)
(-0.039982 -0.0955378 0)
(-0.0395575 -0.109423 0)
(-0.0396964 -0.126398 0)
(-0.0403015 -0.147497 0)
(-0.0408987 -0.173233 0)
(-0.0399262 -0.202833 0)
(-0.0349891 -0.228077 0)
(-0.0278922 -0.23486 0)
(-0.00956574 -0.193469 0)
(-0.00395362 0.0875076 0)
(-0.0129429 0.119071 0)
(-0.0213289 0.136474 0)
(-0.0301016 0.151825 0)
(-0.0359112 0.159753 0)
(-0.0397872 0.160441 0)
(-0.0426579 0.154886 0)
(-0.0439018 0.145071 0)
(-0.0445379 0.133124 0)
(-0.0446518 0.120243 0)
(-0.0444081 0.107199 0)
(-0.0440184 0.0945538 0)
(-0.0435696 0.0825842 0)
(-0.0431372 0.0713937 0)
(-0.0427559 0.060962 0)
(-0.0424327 0.0511856 0)
(-0.0421563 0.041924 0)
(-0.0419067 0.0330329 0)
(-0.0416613 0.0243839 0)
(-0.0413991 0.0158703 0)
(-0.0411007 0.00740852 0)
(-0.0407471 -0.00106529 0)
(-0.0403236 -0.00960314 0)
(-0.0398184 -0.0182467 0)
(-0.0392198 -0.0270267 0)
(-0.0385189 -0.0359697 0)
(-0.0377114 -0.0451013 0)
(-0.0368003 -0.0544524 0)
(-0.0358017 -0.0640754 0)
(-0.0347546 -0.0740743 0)
(-0.0337352 -0.0846642 0)
(-0.032874 -0.096275 0)
(-0.0323561 -0.109691 0)
(-0.0323623 -0.126122 0)
(-0.0328973 -0.146945 0)
(-0.0335938 -0.172995 0)
(-0.0332296 -0.203779 0)
(-0.0297261 -0.233882 0)
(-0.0235542 -0.245503 0)
(-0.00810823 -0.21079 0)
(-0.00275931 0.0945177 0)
(-0.00980069 0.127592 0)
(-0.0164981 0.144192 0)
(-0.0234642 0.15793 0)
(-0.0276643 0.164004 0)
(-0.0308226 0.163465 0)
(-0.0329131 0.156731 0)
(-0.033859 0.146075 0)
(-0.0343996 0.133533 0)
(-0.0345422 0.120253 0)
(-0.0344365 0.106986 0)
(-0.0342284 0.0942379 0)
(-0.0339793 0.0822454 0)
(-0.0337401 0.0710791 0)
(-0.0335315 0.0606897 0)
(-0.0333553 0.0509537 0)
(-0.0332027 0.0417196 0)
(-0.0330605 0.0328387 0)
(-0.0329148 0.0241819 0)
(-0.0327528 0.0156441 0)
(-0.0325633 0.00714291 0)
(-0.0323343 -0.00138486 0)
(-0.0320548 -0.00998923 0)
(-0.0317152 -0.0187101 0)
(-0.0313052 -0.027578 0)
(-0.0308145 -0.0366176 0)
(-0.0302345 -0.0458501 0)
(-0.029561 -0.055299 0)
(-0.0287985 -0.0650015 0)
(-0.0279697 -0.0750356 0)
(-0.027129 -0.085574 0)
(-0.0263819 -0.0969872 0)
(-0.0259001 -0.11001 0)
(-0.0258949 -0.125902 0)
(-0.0264662 -0.146315 0)
(-0.0273084 -0.17253 0)
(-0.0274045 -0.20449 0)
(-0.0250203 -0.238493 0)
(-0.0206463 -0.254868 0)
(-0.00708337 -0.22677 0)
(-0.00136072 0.0991692 0)
(-0.00660296 0.134086 0)
(-0.0116644 0.150202 0)
(-0.0168552 0.162455 0)
(-0.0196983 0.167148 0)
(-0.0221163 0.165705 0)
(-0.0235506 0.158131 0)
(-0.0242577 0.146881 0)
(-0.0247169 0.133913 0)
(-0.0248983 0.12035 0)
(-0.0249176 0.106925 0)
(-0.0248673 0.0941005 0)
(-0.024785 0.0820863 0)
(-0.0247007 0.0709283 0)
(-0.0246253 0.0605578 0)
(-0.0245591 0.0508393 0)
(-0.0244979 0.0416153 0)
(-0.024436 0.0327351 0)
(-0.0243684 0.0240698 0)
(-0.0242902 0.0155148 0)
(-0.0241974 0.00698837 0)
(-0.0240843 -0.00157351 0)
(-0.0239444 -0.0102212 0)
(-0.0237703 -0.0189947 0)
(-0.0235531 -0.0279255 0)
(-0.0232821 -0.0370384 0)
(-0.0229465 -0.0463535 0)
(-0.0225366 -0.0558891 0)
(-0.0220487 -0.0656718 0)
(-0.0214929 -0.0757583 0)
(-0.0209058 -0.0862835 0)
(-0.0203703 -0.0975585 0)
(-0.0200384 -0.110251 0)
(-0.0201301 -0.125621 0)
(-0.0208148 -0.145534 0)
(-0.0218841 -0.171697 0)
(-0.0225386 -0.204635 0)
(-0.0212271 -0.241267 0)
(-0.0178965 -0.262423 0)
(-0.00609758 -0.239989 0)
(-0.000293097 0.102166 0)
(-0.00345653 0.138714 0)
(-0.00689856 0.154489 0)
(-0.0103628 0.165506 0)
(-0.0121108 0.169374 0)
(-0.0137121 0.167229 0)
(-0.0145775 0.159129 0)
(-0.015061 0.147508 0)
(-0.0154343 0.134268 0)
(-0.0156441 0.120522 0)
(-0.0157634 0.106991 0)
(-0.0158403 0.0941099 0)
(-0.01589 0.0820705 0)
(-0.0159253 0.0709041 0)
(-0.0159499 0.0605313 0)
(-0.0159647 0.0508114 0)
(-0.0159706 0.041585 0)
(-0.0159697 0.0327012 0)
(-0.0159648 0.0240312 0)
(-0.0159589 0.0154704 0)
(-0.0159539 0.00693603 0)
(-0.0159503 -0.0016371 0)
(-0.0159461 -0.0103015 0)
(-0.0159367 -0.0190991 0)
(-0.0159149 -0.0280633 0)
(-0.0158708 -0.0372209 0)
(-0.0157922 -0.0465926 0)
(-0.0156663 -0.0561946 0)
(-0.0154834 -0.0660459 0)
(-0.015244 -0.076186 0)
(-0.0149705 -0.0867172 0)
(-0.0147267 -0.0978956 0)
(-0.0146437 -0.110312 0)
(-0.0149353 -0.12518 0)
(-0.0158148 -0.144516 0)
(-0.0171683 -0.170502 0)
(-0.0184103 -0.204209 0)
(-0.018046 -0.243283 0)
(-0.0159818 -0.268972 0)
(-0.0053721 -0.252276 0)
(0.00122623 0.102548 0)
(-0.000340862 0.141403 0)
(-0.00219137 0.157107 0)
(-0.00407444 0.167267 0)
(-0.00483967 0.17067 0)
(-0.00561764 0.16808 0)
(-0.00596415 0.159743 0)
(-0.00621494 0.147956 0)
(-0.00648424 0.134583 0)
(-0.00669819 0.120744 0)
(-0.00688583 0.107154 0)
(-0.00705715 0.0942328 0)
(-0.00720616 0.0821645 0)
(-0.00733078 0.070975 0)
(-0.00742935 0.0605825 0)
(-0.00750371 0.050847 0)
(-0.0075598 0.0416102 0)
(-0.00760658 0.0327225 0)
(-0.00765422 0.0240549 0)
(-0.00771244 0.015502 0)
(-0.00778926 0.00697942 0)
(-0.00789036 -0.0015804 0)
(-0.00801833 -0.0102328 0)
(-0.00817186 -0.0190232 0)
(-0.00834637 -0.0279881 0)
(-0.00853343 -0.0371571 0)
(-0.0087211 -0.0465534 0)
(-0.00889487 -0.0561936 0)
(-0.00904076 -0.0660916 0)
(-0.00915211 -0.0762736 0)
(-0.0092398 -0.0868141 0)
(-0.00935095 -0.0979185 0)
(-0.00959627 -0.1101 0)
(-0.0101754 -0.124501 0)
(-0.011331 -0.143214 0)
(-0.0130447 -0.168868 0)
(-0.0148595 -0.203075 0)
(-0.0153535 -0.24407 0)
(-0.0142905 -0.274158 0)
(-0.00469119 -0.26276 0)
(0.00223364 0.101205 0)
(0.00263341 0.142262 0)
(0.00237015 0.158186 0)
(0.00194784 0.167852 0)
(0.00214594 0.171061 0)
(0.00219825 0.16828 0)
(0.00234318 0.159958 0)
(0.00234115 0.148198 0)
(0.00220429 0.134831 0)
(0.00201888 0.120986 0)
(0.00179827 0.107382 0)
(0.00156584 0.0944371 0)
(0.00134762 0.0823388 0)
(0.00115916 0.0711158 0)
(0.00100692 0.0606912 0)
(0.000888279 0.0509303 0)
(0.000793188 0.0416789 0)
(0.000706905 0.0327895 0)
(0.00061297 0.0241334 0)
(0.000495525 0.0156038 0)
(0.000340938 0.0071139 0)
(0.000138587 -0.00140698 0)
(-0.00011866 -0.0100176 0)
(-0.000433193 -0.0187678 0)
(-0.000803601 -0.0276983 0)
(-0.00122371 -0.0368424 0)
(-0.00168312 -0.0462269 0)
(-0.00216724 -0.0558702 0)
(-0.00266038 -0.0657842 0)
(-0.00315046 -0.0759855 0)
(-0.00363849 -0.0865255 0)
(-0.00415668 -0.0975639 0)
(-0.004795 -0.109538 0)
(-0.00573381 -0.1235 0)
(-0.0072313 -0.141567 0)
(-0.00936722 -0.166782 0)
(-0.0117747 -0.201361 0)
(-0.0130638 -0.244126 0)
(-0.0130911 -0.278578 0)
(-0.00417079 -0.272631 0)
(0.00331812 0.097955 0)
(0.00555756 0.141342 0)
(0.00678803 0.157843 0)
(0.00770602 0.167318 0)
(0.00888287 0.170485 0)
(0.00972406 0.167841 0)
(0.0103714 0.15982 0)
(0.010662 0.148218 0)
(0.0106961 0.134981 0)
(0.0105789 0.121211 0)
(0.0103642 0.107638 0)
(0.0101053 0.0946909 0)
(0.00984734 0.0825669 0)
(0.00961746 0.071306 0)
(0.00942742 0.0608422 0)
(0.00927527 0.0510503 0)
(0.00914836 0.0417831 0)
(0.00902745 0.0328967 0)
(0.00889072 0.0242627 0)
(0.00871685 0.0157725 0)
(0.00848693 0.00733645 0)
(0.00818555 -0.0011196 0)
(0.00780143 -0.00965823 0)
(0.00732783 -0.0183341 0)
(0.0067626 -0.0271929 0)
(0.00610892 -0.0362725 0)
(0.00537489 -0.045605 0)
(0.00457297 -0.0552121 0)
(0.00371878 -0.0651049 0)
(0.00282796 -0.0752935 0)
(0.00190646 -0.0858115 0)
(0.000936236 -0.0967797 0)
(-0.000150786 -0.108562 0)
(-0.00151357 -0.122115 0)
(-0.0034161 -0.13953 0)
(-0.00601911 -0.164186 0)
(-0.00903519 -0.198953 0)
(-0.0110012 -0.243179 0)
(-0.0120659 -0.281994 0)
(-0.00366958 -0.281298 0)
(0.00444581 0.0925697 0)
(0.00843343 0.138653 0)
(0.0110681 0.156121 0)
(0.0132119 0.165703 0)
(0.0153495 0.169018 0)
(0.0169621 0.166738 0)
(0.018157 0.159274 0)
(0.0187925 0.147985 0)
(0.0190411 0.134991 0)
(0.0190398 0.121378 0)
(0.0188759 0.107887 0)
(0.0186291 0.0949633 0)
(0.0183618 0.0828243 0)
(0.0181128 0.0715271 0)
(0.0179003 0.0610226 0)
(0.0177245 0.051199 0)
(0.0175716 0.0419183 0)
(0.0174194 0.0330412 0)
(0.0172418 0.0244405 0)
(0.0170129 0.0160061 0)
(0.016709 0.00764524 0)
(0.0163099 -0.000720112 0)
(0.0158006 -0.00915688 0)
(0.0151698 -0.0177246 0)
(0.0144112 -0.026474 0)
(0.0135245 -0.0354474 0)
(0.0125139 -0.0446823 0)
(0.0113878 -0.0542062 0)
(0.0101612 -0.0640333 0)
(0.00885039 -0.0741698 0)
(0.00746624 -0.0846365 0)
(0.00600522 -0.0955201 0)
(0.0044194 -0.107116 0)
(0.00257458 -0.120279 0)
(0.000207254 -0.137044 0)
(-0.00290877 -0.161074 0)
(-0.00659188 -0.195945 0)
(-0.00912306 -0.241464 0)
(-0.0113247 -0.284856 0)
(-0.00325051 -0.289563 0)
(0.00549375 0.0853642 0)
(0.0112013 0.134288 0)
(0.0152022 0.153101 0)
(0.0184821 0.163064 0)
(0.0216367 0.166686 0)
(0.0238338 0.164947 0)
(0.0256583 0.158272 0)
(0.0267366 0.147448 0)
(0.0272626 0.13481 0)
(0.027438 0.121436 0)
(0.0273806 0.108082 0)
(0.0271929 0.0952163 0)
(0.026953 0.0830821 0)
(0.0267124 0.0717597 0)
(0.0264964 0.0612203 0)
(0.0263086 0.0513692 0)
(0.0261362 0.0420802 0)
(0.0259558 0.0332207 0)
(0.0257386 0.0246655 0)
(0.0254552 0.0163036 0)
(0.0250778 0.00803911 0)
(0.0245819 -0.000209867 0)
(0.0239484 -0.00851509 0)
(0.023162 -0.0169409 0)
(0.0222114 -0.0255429 0)
(0.0210919 -0.0343685 0)
(0.0198024 -0.0434596 0)
(0.0183476 -0.0528493 0)
(0.0167387 -0.0625565 0)
(0.0149895 -0.0725896 0)
(0.0131162 -0.0829632 0)
(0.0111262 -0.0937396 0)
(0.00899388 -0.105148 0)
(0.00661009 -0.117934 0)
(0.00372132 -0.134051 0)
(5.31686e-05 -0.15738 0)
(-0.00435062 -0.192262 0)
(-0.0073519 -0.239085 0)
(-0.010892 -0.286681 0)
(-0.00257201 -0.297115 0)
(0.00640791 0.0764034 0)
(0.0138055 0.128269 0)
(0.0191184 0.148816 0)
(0.0234764 0.159432 0)
(0.0274154 0.163668 0)
(0.0305225 0.162423 0)
(0.0328825 0.156665 0)
(0.0344922 0.146529 0)
(0.0353736 0.134367 0)
(0.0357949 0.12132 0)
(0.0359105 0.108167 0)
(0.0358396 0.0954049 0)
(0.0356751 0.0833061 0)
(0.035479 0.0719787 0)
(0.0352847 0.0614183 0)
(0.0351016 0.0515504 0)
(0.0349197 0.0422633 0)
(0.0347165 0.0334328 0)
(0.0344624 0.0249371 0)
(0.0341255 0.016665 0)
(0.0336749 0.00851814 0)
(0.0330823 0.000410817 0)
(0.0323249 -0.00773351 0)
(0.0313835 -0.0159835 0)
(0.0302411 -0.0243987 0)
(0.0288873 -0.033032 0)
(0.0273161 -0.0419312 0)
(0.0255264 -0.0511352 0)
(0.0235233 -0.0606675 0)
(0.021319 -0.0705396 0)
(0.018931 -0.0807655 0)
(0.0163729 -0.0913943 0)
(0.0136459 -0.102605 0)
(0.0106667 -0.115026 0)
(0.00720246 -0.130492 0)
(0.00293481 -0.15306 0)
(-0.00227159 -0.187894 0)
(-0.00570801 -0.236081 0)
(-0.0106035 -0.287647 0)
(-0.00197641 -0.304429 0)
(0.00710927 0.0657839 0)
(0.0161408 0.120703 0)
(0.0227265 0.143362 0)
(0.0281173 0.154889 0)
(0.0328364 0.159809 0)
(0.0367763 0.159273 0)
(0.0397583 0.154402 0)
(0.0419837 0.145136 0)
(0.0433309 0.133583 0)
(0.0440975 0.120954 0)
(0.0444716 0.108073 0)
(0.0445926 0.0954698 0)
(0.0445657 0.0834489 0)
(0.0444633 0.0721486 0)
(0.0443277 0.061592 0)
(0.0441754 0.0517269 0)
(0.0440015 0.0424584 0)
(0.0437864 0.0336726 0)
(0.0435015 0.0252531 0)
(0.0431141 0.0170896 0)
(0.0425916 0.00908235 0)
(0.041902 0.00114243 0)
(0.0410198 -0.00681149 0)
(0.0399216 -0.0148518 0)
(0.0385848 -0.0230399 0)
(0.0369931 -0.0314344 0)
(0.0351348 -0.0400888 0)
(0.033001 -0.0490476 0)
(0.0305895 -0.0583416 0)
(0.0279081 -0.0679906 0)
(0.0249741 -0.0780124 0)
(0.0218124 -0.0884472 0)
(0.0184414 -0.0994352 0)
(0.0148167 -0.111501 0)
(0.0107268 -0.126321 0)
(0.00580717 -0.148069 0)
(-0.000290651 -0.18278 0)
(-0.00415506 -0.232388 0)
(-0.0104426 -0.287968 0)
(-0.00106523 -0.311293 0)
(0.00747119 0.0537699 0)
(0.0180728 0.111566 0)
(0.0258483 0.136688 0)
(0.0322423 0.149421 0)
(0.0377694 0.155125 0)
(0.0424638 0.155451 0)
(0.0462284 0.151411 0)
(0.0491231 0.143153 0)
(0.0510541 0.132342 0)
(0.0522904 0.120237 0)
(0.0530365 0.107711 0)
(0.0534474 0.0953347 0)
(0.0536408 0.0834476 0)
(0.0536996 0.0722203 0)
(0.053676 0.0617046 0)
(0.0535943 0.0518726 0)
(0.0534569 0.0426479 0)
(0.0532491 0.0339292 0)
(0.0529455 0.0256073 0)
(0.0525148 0.0175746 0)
(0.0519236 0.00973112 0)
(0.0511376 0.00198608 0)
(0.0501291 -0.00574669 0)
(0.0488706 -0.013542 0)
(0.0473335 -0.0214619 0)
(0.0454963 -0.0295698 0)
(0.0433408 -0.037925 0)
(0.04085 -0.0465757 0)
(0.0380132 -0.0555613 0)
(0.0348324 -0.0649134 0)
(0.031324 -0.0746622 0)
(0.0275179 -0.084853 0)
(0.0234536 -0.0955886 0)
(0.0191233 -0.107295 0)
(0.014347 -0.121491 0)
(0.00871954 -0.142404 0)
(0.00166702 -0.176948 0)
(-0.00253192 -0.227976 0)
(-0.0102499 -0.28757 0)
(-0.000199562 -0.318037 0)
(0.00723837 0.0406792 0)
(0.0193368 0.101113 0)
(0.028276 0.128899 0)
(0.0356894 0.143064 0)
(0.0420463 0.14965 0)
(0.0475146 0.150816 0)
(0.0520971 0.147675 0)
(0.0557679 0.140465 0)
(0.0584221 0.130505 0)
(0.0602726 0.119037 0)
(0.0615313 0.106965 0)
(0.0623593 0.094899 0)
(0.0628825 0.0832174 0)
(0.0631943 0.0721248 0)
(0.0633567 0.0617024 0)
(0.0634038 0.0519473 0)
(0.0633465 0.0428032 0)
(0.0631774 0.0341834 0)
(0.0628766 0.0259877 0)
(0.062416 0.0181133 0)
(0.0617634 0.010462 0)
(0.0608841 0.00294253 0)
(0.0597482 -0.00453593 0)
(0.058325 -0.0120477 0)
(0.0565795 -0.0196551 0)
(0.0544861 -0.0274271 0)
(0.05202 -0.0354261 0)
(0.0491552 -0.0437035 0)
(0.0458727 -0.052308 0)
(0.0421675 -0.0612859 0)
(0.0380531 -0.070684 0)
(0.0335626 -0.0805607 0)
(0.0287471 -0.091005 0)
(0.0236398 -0.102343 0)
(0.0181072 -0.115933 0)
(0.0116868 -0.135998 0)
(0.00365464 -0.170356 0)
(-0.000760848 -0.222896 0)
(-0.0104967 -0.286107 0)
(0.000882698 -0.324479 0)
(0.00598472 0.0275479 0)
(0.0195787 0.0891333 0)
(0.0296983 0.119771 0)
(0.0381914 0.135711 0)
(0.0454591 0.143372 0)
(0.0517484 0.14537 0)
(0.0571858 0.143102 0)
(0.0617379 0.136939 0)
(0.0652684 0.127923 0)
(0.0679034 0.117197 0)
(0.0698379 0.105685 0)
(0.0712359 0.094031 0)
(0.072227 0.0826462 0)
(0.0729109 0.071769 0)
(0.073359 0.0615101 0)
(0.0736155 0.0518925 0)
(0.0737013 0.0428806 0)
(0.0736186 0.0344039 0)
(0.0733547 0.0263734 0)
(0.0728875 0.0186931 0)
(0.0721875 0.0112689 0)
(0.0712225 0.00401029 0)
(0.0699599 -0.00317611 0)
(0.0683672 -0.0103611 0)
(0.0664045 -0.0176084 0)
(0.064042 -0.0249916 0)
(0.0612481 -0.0325733 0)
(0.0579881 -0.0404082 0)
(0.0542353 -0.0485542 0)
(0.0499774 -0.0570751 0)
(0.0452233 -0.0660384 0)
(0.0400083 -0.0755227 0)
(0.0343839 -0.0856168 0)
(0.028437 -0.0965722 0)
(0.0220564 -0.10957 0)
(0.0147715 -0.128793 0)
(0.00574391 -0.16288 0)
(0.00126327 -0.216935 0)
(-0.0107918 -0.284227 0)
(0.00214041 -0.33076 0)
(0.00314071 0.0153922 0)
(0.0184028 0.0764855 0)
(0.0298496 0.109452 0)
(0.0395147 0.127326 0)
(0.047781 0.136222 0)
(0.0549428 0.139062 0)
(0.0612835 0.137607 0)
(0.0668163 0.13244 0)
(0.0713748 0.124416 0)
(0.0749873 0.114541 0)
(0.0777893 0.103705 0)
(0.0799362 0.0925746 0)
(0.0815584 0.0815942 0)
(0.0827598 0.0710322 0)
(0.083619 0.0610272 0)
(0.0841899 0.0516268 0)
(0.0845043 0.0428167 0)
(0.0845746 0.0345433 0)
(0.0843982 0.0267305 0)
(0.0839604 0.0192914 0)
(0.0832371 0.0121391 0)
(0.0822001 0.00518357 0)
(0.0808164 -0.00166629 0)
(0.0790517 -0.00847473 0)
(0.0768638 -0.01531 0)
(0.0742188 -0.0222467 0)