/*--------------------------------*- C++ -*----------------------------------*\
  =========                 |
  \\      /  F ield         | OpenFOAM: The Open Source CFD Toolbox
   \\    /   O peration     | Website:  https://openfoam.org
    \\  /    A nd           | Version:  13
     \\/     M anipulation  |
\*---------------------------------------------------------------------------*/
FoamFile
{
    format      ascii;
    class       volScalarField;
    location    "4.8";
    object      k;
}
// * * * * * * * * * * * * * * * * * * * * * * * * * * * * * * * * * * * * * //

dimensions      [0 2 -2 0 0 0 0];

internalField   nonuniform List<scalar> 
6400
(
4.55397e-07
2.33409e-06
5.62188e-06
9.06986e-06
1.17247e-05
1.32745e-05
1.39051e-05
1.40459e-05
1.41833e-05
1.47443e-05
1.6039e-05
1.84834e-05
2.23303e-05
2.76734e-05
3.4283e-05
4.1828e-05
4.99614e-05
5.85186e-05
6.71653e-05
7.5626e-05
8.40459e-05
9.30571e-05
0.00010355
0.000116304
0.000131194
0.000146952
0.000162565
0.000178098
0.000193875
0.000210266
0.000227249
0.000244186
0.000260824
0.000277011
0.000293174
0.000309483
0.00032627
0.000343729
0.00036208
0.000381468
0.000402002
0.000423834
0.000447105
0.000472014
0.000498713
0.000527658
0.000559921
0.000597815
0.000645705
0.000690791
0.000737798
0.000783167
0.000827124
0.000867811
0.000904053
0.000934158
0.000954914
0.000964852
0.000968257
0.000958862
0.000933066
0.000892296
0.000836901
0.000767976
0.00068841
0.000600643
0.000510283
0.000420949
0.0003362
0.000258198
0.000195581
0.000142991
0.000100149
6.71043e-05
4.31669e-05
2.67457e-05
1.59883e-05
9.06732e-06
4.2366e-06
8.98936e-07
2.21073e-06
1.86399e-05
4.50556e-05
7.08319e-05
9.03046e-05
0.000102251
0.000108248
0.000110956
0.000113305
0.00011806
0.000128088
0.00014652
0.000174587
0.000211976
0.000257155
0.000307974
0.000362518
0.000418888
0.000475433
0.000531218
0.000587212
0.000646876
0.00071496
0.000795083
0.000885762
0.000980168
0.00107257
0.00116165
0.00124761
0.00133104
0.00141103
0.0014855
0.00155381
0.00161547
0.00167286
0.00172691
0.00177941
0.00183143
0.00188418
0.0019385
0.00199503
0.00205444
0.00211717
0.00218346
0.00225302
0.00232557
0.00240086
0.00247655
0.00255041
0.00263189
0.00271407
0.00279839
0.002881
0.00296019
0.00303212
0.00309328
0.00313582
0.00315458
0.00315752
0.00313367
0.00307361
0.00297678
0.00284166
0.00266857
0.00246225
0.00222847
0.00197964
0.00172457
0.00147047
0.00122643
0.000990362
0.000773298
0.000582999
0.000423021
0.000294815
0.000196362
0.000124626
7.42184e-05
3.55575e-05
4.74265e-06
4.85112e-06
4.07517e-05
9.50155e-05
0.000141693
0.00017413
0.000193689
0.000204739
0.000212337
0.000221605
0.00023766
0.000265536
0.000309402
0.00037103
0.000449261
0.000540969
0.000642688
0.000751719
0.000865851
0.000982827
0.00110061
0.00121751
0.0013325
0.00144418
0.00154873
0.00164117
0.00171802
0.00177646
0.00181726
0.00184785
0.00187404
0.00190093
0.00192927
0.00196038
0.00199148
0.00202518
0.00206144
0.00210146
0.00214556
0.00219433
0.00224828
0.00230732
0.0023716
0.00244129
0.00251604
0.00259598
0.00268101
0.00277092
0.00286557
0.00296564
0.00307092
0.00317934
0.00329001
0.00340052
0.00350852
0.00361047
0.00370236
0.0037792
0.00383269
0.00385582
0.00385762
0.00382034
0.00373972
0.00361241
0.00343723
0.00321636
0.00295308
0.00266416
0.00235963
0.00204887
0.00174318
0.00145197
0.00118231
0.000940255
0.000728979
0.000549764
0.000401987
0.000282556
0.000184225
9.29228e-05
1.25746e-05
8.42814e-06
6.87986e-05
0.000150868
0.000214098
0.000256177
0.000282605
0.000300521
0.000317215
0.000339909
0.00037573
0.000431136
0.000510333
0.000613648
0.000737508
0.000876315
0.00102455
0.00117734
0.00132981
0.00147663
0.00161246
0.00173191
0.00183189
0.00191048
0.00196277
0.00198745
0.00199529
0.00199535
0.00199104
0.00198977
0.00199237
0.00200079
0.00201242
0.00202863
0.00204922
0.00207497
0.0021054
0.00214099
0.00218181
0.00222783
0.00227909
0.00233585
0.00239812
0.00246606
0.00253957
0.00261856
0.00270259
0.00279285
0.00288932
0.00299186
0.00309999
0.00321276
0.00332902
0.00344698
0.00356444
0.00367829
0.00378472
0.00387894
0.00395559
0.00400358
0.00402201
0.00401076
0.00395607
0.00385677
0.00371544
0.00352185
0.00327457
0.00298733
0.00267044
0.00233915
0.00200811
0.00169013
0.00139521
0.00112989
0.000897267
0.00069798
0.00053077
0.000391352
0.000270414
0.00014599
2.06432e-05
1.34902e-05
0.000106297
0.000217253
0.000296352
0.000348167
0.000382719
0.000410185
0.000440398
0.000482855
0.000546373
0.000637573
0.000758708
0.000906521
0.0010735
0.00125052
0.00142882
0.00160016
0.0017564
0.00188903
0.00199321
0.00206155
0.00209214
0.00209922
0.00207949
0.0020512
0.00202597
0.00200554
0.00198987
0.00198214
0.0019791
0.0019791
0.0019848
0.00199469
0.00200892
0.00202756
0.00204993
0.00207635
0.00210637
0.00213981
0.00217684
0.00221745
0.00226181
0.00231057
0.00236426
0.00242357
0.00248948
0.00256136
0.00263967
0.00272466
0.00281651
0.00291522
0.00302062
0.0031319
0.00324799
0.00336709
0.00348683
0.00360344
0.00371201
0.00380665
0.00387826
0.00391182
0.00391703
0.00386889
0.00376882
0.00361542
0.00341725
0.00315544
0.00284879
0.00251356
0.00216797
0.00182969
0.0015137
0.00122997
0.000982972
0.00077298
0.000597501
0.00045087
0.00032122
0.000180962
2.60096e-05
2.06873e-05
0.000156243
0.000298063
0.000393824
0.000456695
0.000501471
0.000541722
0.00059009
0.000658125
0.000755095
0.000885657
0.00104784
0.00123324
0.00142961
0.0016238
0.00180347
0.00195765
0.0020782
0.00215055
0.00217818
0.00217919
0.00214158
0.00210153
0.00206362
0.00202512
0.00199207
0.00196436
0.0019417
0.00192411
0.00190999
0.00190006
0.00189542
0.00189379
0.00189423
0.00189866
0.00190512
0.00191426
0.00192569
0.00193948
0.00195605
0.00197566
0.00199855
0.00202484
0.00205481
0.00208895
0.00212777
0.00217174
0.00222176
0.00227872
0.00234365
0.00241751
0.00250141
0.00259602
0.00270164
0.00281794
0.00294355
0.0030766
0.00321401
0.00335079
0.00348004
0.00359272
0.00367097
0.00370275
0.00369596
0.00361997
0.00348288
0.00327653
0.00300053
0.0026734
0.00231692
0.0019548
0.00160978
0.00129902
0.00103139
0.000808016
0.000624864
0.000473981
0.000340899
0.000195604
2.78026e-05
3.0658e-05
0.000220489
0.000395544
0.000509242
0.00058477
0.00064204
0.000698257
0.000768689
0.000865892
0.000997567
0.00116408
0.00135764
0.0015642
0.00176699
0.00194962
0.00209805
0.00219748
0.00224054
0.00224679
0.00221021
0.00216415
0.00210786
0.00205272
0.00199599
0.00194475
0.00190138
0.00186383
0.00183155
0.00180385
0.00178119
0.00176233
0.00174654
0.00173305
0.00172183
0.00171299
0.0017059
0.00170093
0.0016984
0.00169749
0.00169801
0.00170138
0.00170672
0.00171463
0.00172534
0.00173911
0.00175645
0.00177782
0.00180396
0.00183575
0.00187444
0.00192132
0.00197803
0.00204688
0.00213002
0.00222961
0.00234661
0.00248068
0.00263288
0.00279882
0.00297269
0.00314673
0.0033112
0.00344995
0.00352908
0.00355345
0.00350767
0.0033963
0.00317761
0.00287735
0.00251823
0.00212909
0.00174265
0.00138783
0.00108316
0.000834049
0.000635762
0.000477206
0.000339857
0.000194326
2.69471e-05
4.40002e-05
0.000300047
0.000510454
0.000643427
0.000733116
0.000804796
0.000879221
0.000973506
0.0010995
0.00126116
0.00145295
0.00166084
0.00186581
0.00204805
0.00219073
0.00227012
0.00229603
0.00227893
0.00223115
0.00216745
0.00209311
0.00201156
0.00193949
0.00187425
0.00182036
0.00177224
0.0017298
0.00169208
0.00165863
0.00162905
0.00160258
0.00157898
0.00155798
0.00153958
0.00152366
0.00150995
0.00149844
0.00148902
0.00148154
0.00147614
0.00147337
0.00147233
0.0014728
0.00147646
0.00148237
0.00149131
0.00150351
0.00151953
0.0015398
0.00156476
0.00159513
0.00163181
0.00167597
0.00172917
0.001794
0.00187483
0.001978
0.00210676
0.00226562
0.00245175
0.00265713
0.00287569
0.00309178
0.00328994
0.00342534
0.00347892
0.00346328
0.00336891
0.00313
0.00279372
0.00238867
0.00195622
0.0015403
0.00117585
0.000880241
0.00065222
0.000477397
0.000333049
0.000188017
2.50665e-05
6.11673e-05
0.000394947
0.000642436
0.000795742
0.000900642
0.000987686
0.00108067
0.00119732
0.00134694
0.00152817
0.00172905
0.00193017
0.00210935
0.00224531
0.00231122
0.0023263
0.00229429
0.00224045
0.00215655
0.00205585
0.00196022
0.00187656
0.00180309
0.00173827
0.00168194
0.0016309
0.00158535
0.00154444
0.00150798
0.0014756
0.00144702
0.00142212
0.0014007
0.00138255
0.0013674
0.00135506
0.00134532
0.00133793
0.00133269
0.00133006
0.0013291
0.00132919
0.00133201
0.0013367
0.00134356
0.00135276
0.00136438
0.0013787
0.00139593
0.00141637
0.00144037
0.00146841
0.00150098
0.00153879
0.00158277
0.00163441
0.00169635
0.00177237
0.00187016
0.00200413
0.00218652
0.00241261
0.00266266
0.00292874
0.00318394
0.00338064
0.00346758
0.00347585
0.00338366
0.00311668
0.00273071
0.00226872
0.00178779
0.00134344
0.000974421
0.000692473
0.000485506
0.00032515
0.000176579
2.31739e-05
8.23715e-05
0.000504023
0.000789925
0.000964281
0.00108462
0.00118642
0.00129575
0.0014296
0.00159333
0.00177966
0.001971
0.0021445
0.00227403
0.00233375
0.00234371
0.00230798
0.00223842
0.0021337
0.0020169
0.00191129
0.0018166
0.0017345
0.001662
0.00159783
0.00154089
0.00148979
0.00144471
0.00140512
0.00137094
0.00134184
0.00131756
0.00129775
0.001282
0.00126987
0.00126087
0.00125457
0.00125086
0.00124919
0.00124878
0.00125011
0.00125291
0.00125707
0.00126284
0.00127
0.00127876
0.00128919
0.00130145
0.00131574
0.00133227
0.00135132
0.00137312
0.00139782
0.00142566
0.00145691
0.00149185
0.00153071
0.00157439
0.00162432
0.00168376
0.00175895
0.00186012
0.0020055
0.00222542
0.00250128
0.00280592
0.00311723
0.00337359
0.00349302
0.00351396
0.00341692
0.00311099
0.00266283
0.00213802
0.00161017
0.00114507
0.000780285
0.000516537
0.000328254
0.000168915
2.19285e-05
0.000107864
0.000624249
0.000950207
0.00114592
0.00128078
0.00139483
0.0015156
0.00165828
0.00182363
0.00199892
0.00216263
0.00228674
0.00234318
0.00235112
0.002315
0.00223322
0.00211232
0.00198489
0.00186691
0.00176364
0.00167283
0.00159374
0.0015238
0.00146222
0.00140818
0.00136124
0.00132137
0.00128813
0.00126118
0.00123993
0.00122376
0.00121197
0.00120383
0.00119885
0.00119649
0.00119571
0.00119614
0.00119833
0.00120135
0.00120553
0.00121063
0.0012168
0.0012241
0.00123262
0.00124254
0.001254
0.0012672
0.00128233
0.00129956
0.00131903
0.00134085
0.0013651
0.00139186
0.0014212
0.00145325
0.00148827
0.00152573
0.00156584
0.00160922
0.00165802
0.00171745
0.00179734
0.00191478
0.00209833
0.00238116
0.00272018
0.00308418
0.00339295
0.00353728
0.00356345
0.00344854
0.00308547
0.00256573
0.0019775
0.00141182
0.000940322
0.000590144
0.000348995
0.000170953
2.20611e-05
0.000139162
0.0007512
0.00112004
0.00133648
0.00148363
0.00160558
0.00173065
0.00187166
0.00202497
0.00217372
0.00229133
0.00234584
0.00235342
0.00231779
0.00222789
0.00209652
0.00196068
0.00183202
0.00171885
0.00162082
0.00153525
0.00146088
0.00139604
0.00134035
0.00129329
0.00125452
0.00122356
0.00119963
0.0011819
0.00116939
0.00116111
0.00115643
0.0011543
0.00115367
0.00115418
0.00115594
0.00115837
0.00116157
0.00116531
0.00116979
0.00117503
0.00118123
0.00118854
0.00119719
0.00120738
0.00121935
0.00123332
0.00124952
0.00126812
0.00128928
0.00131309
0.00133958
0.00136866
0.00140012
0.00143367
0.00146896
0.00150572
0.00154395
0.00158355
0.00162378
0.00166628
0.00171528
0.00177953
0.0018757
0.0020336
0.00229938
0.00266904
0.00307986
0.00343062
0.00358883
0.0036108
0.00345905
0.00301521
0.00241641
0.00177139
0.00118635
0.000727134
0.000404126
0.000185218
2.3763e-05
0.000174234
0.000885391
0.0012958
0.00153111
0.00168705
0.00181111
0.00193193
0.00206
0.00218818
0.00229594
0.0023481
0.00235601
0.00232103
0.00222873
0.00209176
0.00194599
0.00180804
0.00168491
0.00157899
0.00148777
0.00140908
0.00134188
0.00128517
0.00123856
0.00120136
0.00117275
0.00115167
0.00113687
0.00112711
0.00112123
0.00111834
0.00111717
0.0011169
0.00111737
0.00111844
0.00111987
0.00112158
0.00112368
0.00112626
0.00112951
0.00113364
0.00113887
0.00114544
0.0011536
0.0011636
0.0011757
0.00119015
0.00120719
0.00122706
0.00124996
0.00127603
0.00130535
0.00133787
0.00137339
0.00141148
0.0014515
0.0014926
0.00153388
0.00157468
0.001615
0.0016543
0.00169274
0.00173414
0.00178755
0.00186987
0.00201029
0.00225676
0.00264932
0.0031029
0.00348056
0.00363797
0.00364432
0.00341368
0.00287404
0.00219435
0.00151203
0.000934149
0.000510625
0.000222995
2.8873e-05
0.000212052
0.00102358
0.00147308
0.00172455
0.00188495
0.00200453
0.00211217
0.00221661
0.00230873
0.00235627
0.002364
0.0023286
0.00223787
0.00209846
0.0019445
0.00179602
0.00166323
0.00154857
0.00145118
0.00136836
0.00129859
0.00124099
0.00119465
0.00115873
0.00113197
0.00111296
0.00110014
0.00109199
0.00108713
0.00108442
0.00108297
0.00108202
0.00108126
0.00108062
0.00108003
0.00107957
0.00107937
0.00107942
0.00108022
0.00108183
0.00108461
0.00108874
0.00109447
0.00110204
0.00111171
0.00112371
0.00113831
0.00115577
0.00117635
0.00120032
0.00122793
0.00125936
0.00129473
0.001334
0.00137688
0.00142281
0.00147083
0.00151956
0.00156732
0.00161247
0.00165412
0.00169162
0.00172651
0.00176423
0.00181069
0.00188424
0.0020127
0.00224931
0.00265963
0.00315229
0.00353813
0.00368229
0.00363734
0.00328862
0.00263647
0.00189177
0.00120269
0.000665502
0.000291089
3.9009e-05
0.000251399
0.00116218
0.0016473
0.00191167
0.00207177
0.00218023
0.00226638
0.00233853
0.00237711
0.00238271
0.00234443
0.00225722
0.00211791
0.00195764
0.00179852
0.00165462
0.00153057
0.00142577
0.00133811
0.00126531
0.00120617
0.00115956
0.00112415
0.00109843
0.00108055
0.00106868
0.00106106
0.0010562
0.00105291
0.00105032
0.00104787
0.00104525
0.00104243
0.00103947
0.0010365
0.00103372
0.00103134
0.0010298
0.0010292
0.00102925
0.00103106
0.00103439
0.00103952
0.00104666
0.00105602
0.00106781
0.00108228
0.0010997
0.00112034
0.00114453
0.00117258
0.00120483
0.00124156
0.00128298
0.00132912
0.00137974
0.00143418
0.00149124
0.00154905
0.00160511
0.00165659
0.00170238
0.00174026
0.00176674
0.00179884
0.00184403
0.00191159
0.0020353
0.00227253
0.00270299
0.00323157
0.00359393
0.00370091
0.00356978
0.00305177
0.00229518
0.00151431
0.000860399
0.000382045
5.30473e-05
0.000291012
0.00129767
0.00181415
0.00208786
0.0022428
0.00233415
0.00239118
0.00241681
0.00241717
0.00237301
0.00228905
0.00215142
0.00198676
0.00181743
0.00166105
0.00152574
0.00141215
0.00131813
0.00124128
0.00117963
0.00113176
0.00109598
0.00107033
0.00105269
0.00104092
0.00103307
0.00102755
0.00102313
0.00101901
0.00101469
0.00100999
0.00100492
0.000999614
0.000994294
0.000989198
0.000984586
0.000980714
0.000977836
0.000976401
0.000975944
0.000977017
0.000980035
0.000984894
0.000991818
0.00100096
0.00101251
0.00102669
0.00104374
0.00106393
0.00108761
0.00111515
0.00114697
0.0011835
0.00122518
0.00127233
0.00132515
0.00138346
0.00144661
0.00151322
0.00158096
0.00164651
0.0017057
0.00175657
0.0017963
0.00181528
0.00183943
0.00188334
0.0019482
0.00207407
0.00232398
0.00278229
0.00334241
0.00363179
0.00367663
0.0034014
0.00269586
0.0018524
0.00108464
0.000489873
7.00983e-05
0.000329729
0.00142644
0.00197003
0.0022498
0.00239415
0.00245976
0.00248019
0.00246918
0.00241949
0.0023364
0.00220059
0.00203315
0.00185451
0.00168464
0.00153575
0.00141106
0.0013088
0.00122619
0.00116076
0.00111043
0.00107318
0.00104668
0.00102847
0.00101613
0.00100753
0.00100096
0.000995166
0.000989373
0.000983168
0.000976434
0.000969253
0.000961831
0.000954434
0.000947339
0.000940815
0.000935115
0.000930462
0.000927047
0.000925342
0.000924772
0.000925693
0.000928728
0.000933579
0.000940467
0.000949497
0.000960832
0.000974649
0.000991166
0.00101065
0.00103342
0.00105986
0.00109042
0.00112563
0.00116606
0.00121229
0.00126485
0.00132409
0.00138998
0.00146192
0.00153837
0.00161657
0.00169233
0.00176007
0.00181639
0.00185391
0.00186828
0.00188402
0.00192517
0.00199261
0.00212725
0.00240695
0.00291184
0.00344637
0.00366525
0.00358922
0.00306426
0.00220519
0.00133146
0.000609211
8.91046e-05
0.000367303
0.00154584
0.00211221
0.00239229
0.00251909
0.00255729
0.00254726
0.00249278
0.00240105
0.00226764
0.00209827
0.00191149
0.00172771
0.00156292
0.0014241
0.00131097
0.00122045
0.00114943
0.00109523
0.0010553
0.00102699
0.00100747
0.00099403
0.000984328
0.000976513
0.000969293
0.000961883
0.000953921
0.000945349
0.000936313
0.000927066
0.000917911
0.000909146
0.000901047
0.000893854
0.000887769
0.000882955
0.000879624
0.000878026
0.000877557
0.000878733
0.000881951
0.000886943
0.000893888
0.000902865
0.000914008
0.000927467
0.000943432
0.000962136
0.000983873
0.001009
0.00103797
0.00107132
0.00110967
0.00115375
0.00120433
0.00126212
0.00132769
0.00140121
0.0014821
0.00156869
0.00165774
0.00174405
0.00182041
0.00188175
0.00191398
0.00192479
0.00193379
0.00197125
0.00204369
0.00219491
0.00252143
0.00308115
0.00352432
0.0036428
0.00337041
0.00256033
0.00159743
0.000736879
0.000109252
0.000402195
0.0016539
0.00223579
0.00251088
0.00261791
0.00263445
0.00258666
0.00248874
0.00235678
0.00218402
0.00199007
0.00179264
0.00161011
0.00145379
0.00132629
0.00122503
0.00114618
0.00108634
0.00104237
0.00101117
0.000989581
0.000974562
0.000963503
0.000954374
0.000945778
0.000936901
0.000927392
0.000917235
0.000906617
0.000895835
0.000885215
0.000875069
0.000865671
0.000857248
0.00084998
0.000844004
0.000839427
0.000836504
0.000835197
0.000834923
0.000836503
0.000839941
0.000845096
0.000852102
0.000861029
0.000871988
0.00088511
0.000900557
0.000918534
0.000939299
0.000963173
0.000990562
0.00102197
0.00105802
0.00109946
0.00114717
0.00120211
0.00126524
0.00133735
0.0014188
0.00150907
0.0016063
0.00170667
0.00180391
0.00188914
0.00195027
0.00197474
0.00198119
0.00198462
0.00202105
0.00210191
0.00228267
0.00268693
0.00328194
0.00356403
0.00352133
0.00289437
0.00187737
0.000869439
0.000130038
0.000433052
0.00174773
0.00233892
0.00260615
0.00269441
0.0026889
0.00260357
0.0024689
0.00229361
0.00209221
0.00188178
0.00168051
0.00150349
0.00135749
0.00124174
0.00115218
0.00108447
0.00103477
0.000999454
0.000974932
0.000957814
0.000945153
0.000934668
0.000924797
0.000914639
0.000903818
0.00089233
0.000880392
0.000868328
0.000856485
0.000845183
0.000834693
0.000825227
0.000816943
0.000809956
0.000804347
0.000800172
0.00079773
0.000796744
0.000796675
0.000798604
0.000802205
0.000807457
0.000814464
0.000823295
0.000834048
0.000846841
0.000861819
0.00087916
0.000899086
0.000921878
0.000947888
0.000977566
0.00101148
0.00105034
0.00109503
0.00114658
0.00120619
0.00127506
0.00135424
0.00144427
0.00154462
0.00165305
0.00176485
0.00187227
0.00196453
0.00202191
0.00203621
0.00203673
0.0020344
0.00207447
0.00216969
0.00240423
0.00291073
0.00341733
0.00355924
0.00318734
0.00216632
0.00100334
0.000151828
0.000459035
0.00182584
0.00242055
0.00267809
0.00275191
0.00272007
0.00259922
0.00242793
0.00222052
0.00199743
0.0017773
0.0015772
0.00140836
0.00127349
0.00116938
0.00109094
0.00103338
0.000992386
0.000963862
0.00094398
0.000929396
0.000917482
0.000906426
0.000895171
0.000883266
0.000870685
0.000857656
0.000844522
0.000831646
0.000819355
0.000807917
0.000797532
0.00078834
0.000780435
0.000773875
0.000768698
0.000764927
0.000762853
0.000762075
0.000762236
0.000764332
0.000767983
0.00077322
0.000780132
0.000788792
0.000799294
0.00081175
0.000826292
0.000843079
0.000862305
0.000884212
0.000909104
0.000937365
0.000969493
0.00100612
0.00104806
0.00109633
0.00115217
0.00121701
0.00129236
0.00137954
0.00147926
0.0015909
0.00171158
0.00183515
0.00195133
0.00204493
0.00209128
0.00209877
0.00208844
0.00208084
0.00213017
0.00225569
0.0025882
0.00317901
0.00347238
0.00336086
0.00245513
0.00114341
0.000174592
0.000479766
0.0018882
0.00248175
0.00272884
0.00278949
0.00273151
0.00258229
0.0023754
0.00214205
0.00190352
0.00167909
0.00148362
0.00132442
0.00120084
0.00110784
0.00103962
0.00099091
0.000956964
0.000933408
0.000916404
0.000902883
0.000890674
0.000878474
0.000865689
0.000852229
0.000838307
0.000824275
0.00081051
0.000797351
0.000785063
0.00077384
0.000763805
0.000755035
0.00074757
0.000741428
0.000736619
0.00073315
0.000731284
0.000730603
0.000730886
0.000732968
0.000736538
0.000741633
0.000748345
0.000756749
0.000766944
0.000779037
0.000793155
0.000809444
0.00082808
0.000849273
0.000873283
0.00090044
0.000931163
0.000966002
0.00100567
0.00105109
0.00110346
0.00116423
0.00123512
0.00131798
0.00141443
0.00152532
0.0016498
0.0017842
0.00192081
0.00204702
0.00213096
0.00215937
0.00215941
0.00213454
0.00212613
0.00219104
0.00238377
0.002859
0.00333238
0.00342285
0.00274808
0.00130942
0.000202019
0.0004951
0.00193537
0.00252384
0.00275998
0.0028085
0.00272649
0.00254855
0.00231522
0.00206172
0.0018131
0.00158845
0.00139987
0.00125095
0.00113833
0.00105565
0.000996499
0.000955191
0.000926662
0.000906465
0.00089097
0.000877526
0.000864468
0.00085097
0.000836817
0.000822173
0.000807387
0.000792847
0.000778905
0.000765834
0.000753822
0.000742986
0.000733385
0.000725044
0.000717966
0.000712145
0.000707578
0.000704266
0.000702442
0.000701765
0.000702
0.00070392
0.00070728
0.00071212
0.000718531
0.0007266
0.000736426
0.000748121
0.000761808
0.00077763
0.000795747
0.000816349
0.000839662
0.000865968
0.000895625
0.000929097
0.000966993
0.00101012
0.00105956
0.00111668
0.00118323
0.00126128
0.00135303
0.00146039
0.00158414
0.00172276
0.00187083
0.00201761
0.00214617
0.00221557
0.00222851
0.00220725
0.00217499
0.00217391
0.00227765
0.00259412
0.00316479
0.00341115
0.00301957
0.00151991
0.000238633
0.000505299
0.0019683
0.00254774
0.00277173
0.00280848
0.00270978
0.00250589
0.00225072
0.0019822
0.00172785
0.00150595
0.00132556
0.001187
0.00108471
0.00101135
0.000960004
0.000924648
0.000900071
0.000881945
0.000866997
0.00085306
0.000838958
0.000824268
0.000809056
0.00079364
0.000778418
0.000763757
0.000749946
0.000737178
0.000725565
0.000715158
0.000705967
0.00069798
0.000691181
0.000685552
0.000681085
0.000677783
0.000675846
0.000675084
0.00067513
0.000676763
0.000679806
0.000684294
0.000690322
0.000697984
0.000707386
0.000718643
0.000731882
0.000747241
0.000764875
0.000784961
0.000807702
0.000833345
0.000862195
0.000894644
0.000931208
0.000972578
0.00101968
0.00107377
0.00113649
0.00120994
0.0012966
0.00139912
0.00151968
0.00165889
0.00181417
0.00197783
0.00213549
0.00224987
0.00229279
0.00229273
0.0022356
0.00220115
0.00223471
0.00241215
0.00290935
0.00328438
0.00319984
0.00177615
0.000285898
0.000510367
0.00198722
0.00255446
0.00276905
0.00279881
0.00267932
0.00245655
0.00218446
0.0019054
0.00164877
0.00143163
0.00126006
0.00113151
0.00103874
0.000973604
0.000928786
0.000898053
0.00087621
0.0008592
0.000844191
0.000829505
0.000814393
0.000798747
0.000782818
0.000766997
0.000751671
0.000737151
0.000723644
0.00071127
0.000700073
0.000690054
0.000681189
0.000673449
0.000666804
0.000661239
0.000656748
0.000653342
0.000651147
0.000650163
0.000650001
0.000651229
0.00065387
0.000657934
0.000663515
0.000670714
0.000679643
0.000690424
0.000703187
0.000718073
0.000735234
0.00075484
0.000777081
0.000802179
0.000830402
0.000862086
0.000897665
0.000937723
0.000983053
0.00103474
0.00109428
0.00116364
0.00124537
0.00134245
0.00145797
0.00159418
0.00175094
0.00192351
0.00210027
0.00226112
0.00235056
0.00236829
0.00233434
0.00225367
0.00222826
0.00232143
0.00268373
0.00318088
0.00327453
0.0020687
0.000341284
0.000510088
0.00199476
0.00255029
0.00275636
0.00277588
0.00264066
0.00240301
0.00211842
0.00183261
0.00157632
0.00136521
0.00120257
0.00108346
0.000999277
0.000941246
0.00090176
0.000874504
0.000854446
0.000837898
0.000822496
0.00080701
0.000791044
0.000774716
0.00075838
0.000742439
0.000727233
0.000712998
0.000699867
0.00068789
0.000677061
0.000667349
0.000658708
0.0006511
0.000644496
0.000638884
0.000634266
0.000630662
0.000628111
0.000626806
0.000626416
0.000627172
0.000629354
0.000632942
0.00063803
0.000644725
0.000653144
0.000663414
0.000675672
0.000690061
0.000706738
0.000725871
0.000747643
0.000772261
0.000799969
0.000831059
0.000865904
0.000904998
0.00094901
0.000998873
0.00105589
0.00112186
0.0011992
0.00129102
0.00140095
0.00153251
0.00168777
0.00186515
0.00205658
0.00224518
0.00238524
0.00243608
0.00242906
0.00233878
0.0022677
0.00228183
0.00248993
0.00303705
0.00328385
0.00238949
0.00040419
0.000507295
0.00199328
0.00253627
0.00272994
0.00274138
0.0025955
0.00234715
0.00205407
0.00176464
0.00151061
0.00130622
0.00115231
0.0010419
0.00096532
0.000913319
0.000878096
0.00085338
0.000834407
0.000817909
0.000801972
0.000785755
0.000769136
0.000752379
0.000735881
0.000720014
0.000705056
0.000691166
0.000678409
0.000666783
0.000656246
0.000646745
0.000638227
0.000630651
0.000623993
0.000618246
0.00061342
0.00060954
0.000606643
0.000604924
0.000604267
0.000604534
0.000606219
0.000609302
0.000613869
0.000620032
0.000627913
0.000637644
0.000649367
0.000663233
0.000679403
0.000698047
0.000719349
0.000743511
0.000770759
0.000801359
0.000835637
0.000874015
0.000917061
0.000965564
0.00102064
0.00108389
0.00115752
0.00124454
0.00134879
0.00147454
0.00162558
0.00180306
0.00200233
0.00220931
0.00239776
0.00249733
0.00251404
0.00244986
0.00231898
0.00227589
0.00238884
0.00283199
0.0031835
0.00268711
0.000464596
0.000501116
0.00198599
0.00250974
0.0026938
0.00269901
0.00254573
0.00229051
0.00199244
0.00170197
0.00145155
0.00125414
0.00110848
0.00100595
0.000936015
0.000889053
0.000857179
0.000834269
0.000815892
0.000799208
0.000782716
0.000765895
0.00074882
0.000731839
0.000715349
0.000699673
0.000685016
0.00067147
0.000659045
0.0006477
0.000637371
0.000627992
0.00061951
0.000611887
0.000605105
0.000599165
0.000594086
0.000589899
0.000586653
0.000584474
0.000583472
0.000583324
0.000584482
0.000587044
0.000591078
0.000596694
0.000604018
0.000613188
0.000624352
0.000637666
0.000653299
0.000671427
0.000692238
0.000715934
0.000742737
0.000772896
0.000806705
0.000844533
0.000886865
0.00093437
0.000988001
0.00104913
0.00111975
0.00120266
0.00130164
0.0014214
0.00156694
0.00174189
0.00194542
0.00216821
0.00238848
0.00254189
0.00258903
0.00255991
0.00241335
0.00231088
0.00233892
0.00267658
0.00307762
0.00290355
0.000508895
0.000491661
0.00197039
0.00247544
0.00265038
0.00265062
0.00249294
0.00223427
0.00193426
0.00164479
0.00139885
0.00120838
0.00107037
0.000974868
0.000910655
0.00086785
0.00083857
0.000816909
0.000798804
0.000781823
0.000764822
0.000747533
0.000730169
0.000713113
0.000696737
0.000681302
0.000666948
0.000653711
0.000641557
0.000630418
0.000620217
0.000610887
0.000602375
0.00059465
0.000587701
0.000581537
0.000576184
0.000571681
0.000568083
0.000565459
0.000564015
0.00056355
0.00056418
0.000566222
0.000569722
0.000574788
0.000581547
0.000590141
0.000600724
0.00061346
0.000628524
0.000646101
0.000666387
0.00068959
0.000715933
0.000745658
0.000779043
0.000816419
0.000858207
0.000904979
0.000957543
0.00101708
0.00108532
0.0011648
0.00125911
0.00137303
0.00151227
0.00168221
0.00188511
0.00211564
0.00235592
0.00256264
0.00265479
0.00265828
0.00253219
0.0023562
0.00232046
0.00252559
0.00297649
0.00300247
0.000527645
0.00047939
0.00194862
0.00243473
0.00260182
0.00259773
0.00243843
0.00217934
0.00187999
0.00159313
0.0013522
0.00116838
0.00103732
0.000947998
0.000888661
0.000849248
0.000821955
0.000801137
0.000783099
0.000765783
0.000748348
0.000730718
0.00071319
0.000696156
0.000679945
0.00066476
0.000650681
0.000637699
0.000625749
0.000614748
0.000604612
0.000595274
0.000586687
0.000578827
0.00057169
0.000565291
0.000559661
0.000554845
0.000550899
0.000547885
0.000545981
0.000545205
0.000545353
0.000546887
0.000549864
0.000554386
0.000560581
0.000568594
0.000578582
0.000590718
0.000605183
0.000622172
0.000641893
0.000664562
0.000690409
0.000719681
0.000752647
0.000789615
0.000830964
0.000877186
0.000928969
0.000987317
0.00105373
0.00113046
0.0012208
0.00132943
0.00146238
0.00162637
0.00182648
0.00206173
0.00231893
0.00256703
0.00271473
0.00274647
0.00265997
0.00243317
0.00232388
0.00241903
0.00288182
0.00302993
0.000530622
0.000464929
0.00192265
0.00238933
0.00254929
0.00254187
0.00238326
0.00212636
0.00182986
0.00154687
0.0013112
0.00113361
0.00100875
0.000924795
0.000869563
0.000832896
0.00080711
0.000786843
0.000768753
0.00075111
0.000733321
0.000715449
0.000697845
0.000680885
0.000664852
0.000649896
0.000636047
0.000623262
0.000611456
0.000600535
0.000590415
0.000581031
0.000572344
0.000564334
0.000557005
0.000550377
0.000544485
0.000539377
0.00053511
0.000531753
0.000529406
0.000528262
0.000528043
0.000529083
0.000531554
0.000535547
0.000541187
0.00054862
0.000558008
0.000569526
0.000583367
0.000599735
0.000618849
0.000640938
0.000666244
0.000695024
0.000727547
0.000764115
0.000805075
0.000850864
0.000902073
0.000959555
0.0010246
0.00109916
0.00118621
0.00129015
0.00141704
0.00157434
0.00176926
0.00200471
0.00227292
0.00254885
0.00275638
0.00282313
0.00277462
0.00255251
0.00236846
0.00236924
0.0027403
0.0030083
0.000521873
0.000448935
0.00189409
0.00234075
0.00249402
0.00248432
0.00232832
0.00207579
0.00178397
0.0015058
0.00127548
0.00110358
0.000984161
0.000904796
0.000852985
0.000818519
0.000793867
0.000773948
0.000755742
0.000737803
0.00071973
0.000701692
0.000684062
0.000667196
0.000651329
0.000636565
0.000622896
0.000610254
0.000598539
0.000587654
0.000577516
0.000568066
0.000559268
0.000551109
0.000543598
0.000536759
0.000530628
0.000525256
0.000520699
0.000517027
0.000514313
0.000512763
0.000512248
0.000512831
0.000514824
0.000518309
0.00052341
0.000530272
0.000539059
0.000549952
0.00056315
0.000578868
0.000597336
0.000618799
0.000643514
0.000671752
0.000703793
0.000739938
0.000780523
0.000825945
0.00087672
0.000933576
0.000997607
0.00107051
0.00115492
0.00125487
0.00137625
0.00152688
0.00171552
0.0019484
0.00222242
0.00251677
0.00277697
0.00289229
0.00288483
0.00268154
0.00241171
0.00235225
0.00262542
0.00295425
0.000507398
0.000431871
0.00186368
0.00229014
0.00243707
0.00242608
0.00227426
0.00202794
0.0017423
0.00146966
0.00124462
0.00107786
0.000963121
0.000887616
0.000838617
0.000805901
0.000782095
0.000762387
0.000744038
0.000725838
0.000707541
0.000689386
0.000671756
0.000654978
0.00063925
0.000624633
0.000611095
0.000598547
0.000586883
0.000576003
0.000565828
0.000556302
0.000547395
0.000539099
0.000531425
0.0005244
0.000518061
0.000512459
0.00050765
0.000503698
0.000500674