/*--------------------------------*- C++ -*----------------------------------*\
  =========                 |
  \\      /  F ield         | OpenFOAM: The Open Source CFD Toolbox
   \\    /   O peration     | Website:  https://openfoam.org
    \\  /    A nd           | Version:  13
     \\/     M anipulation  |
\*---------------------------------------------------------------------------*/
FoamFile
{
    format      ascii;
    class       volScalarField;
    location    "4.8";
    object      p;
}
// * * * * * * * * * * * * * * * * * * * * * * * * * * * * * * * * * * * * * //

dimensions      [0 2 -2 0 0 0 0];

internalField   nonuniform List<scalar> 
6400
(
2.42373e-08
1.76894e-05
2.54322e-05
1.1755e-05
-2.81595e-05
-9.00761e-05
-0.000165499
-0.000246344
-0.000326827
-0.000404164
-0.000478753
-0.000554028
-0.000634262
-0.00072407
-0.000828029
-0.000949881
-0.00109247
-0.00125757
-0.00144646
-0.00166003
-0.00189881
-0.0021635
-0.0024563
-0.00278093
-0.00314287
-0.00354704
-0.00399151
-0.00446878
-0.00496424
-0.00544843
-0.00590773
-0.00634422
-0.00675732
-0.00714384
-0.00749945
-0.00781759
-0.00808934
-0.00830399
-0.00844978
-0.00851471
-0.00848695
-0.00835542
-0.00811077
-0.00774686
-0.0072615
-0.00665385
-0.005914
-0.00503339
-0.00403652
-0.00293836
-0.00174597
-0.000480429
0.000836155
0.00217404
0.00349974
0.00477178
0.00594588
0.00697967
0.0078325
0.008468
0.00886067
0.00899931
0.00888854
0.00854856
0.00801557
0.0073472
0.00660448
0.00584977
0.00514257
0.00452027
0.00401677
0.00365681
0.00341718
0.00327014
0.00319982
0.00318209
0.00319688
0.0032281
0.00326453
0.00329106
-1.34142e-05
4.62204e-06
8.4873e-06
-9.49541e-06
-5.19084e-05
-0.000113814
-0.000185932
-0.000260595
-0.000333261
-0.000402629
-0.000470083
-0.000539065
-0.000614021
-0.000699104
-0.000797803
-0.000913311
-0.00104882
-0.00120682
-0.00138822
-0.00159354
-0.0018223
-0.00207415
-0.00235117
-0.00265626
-0.0029919
-0.00336317
-0.00377751
-0.00423605
-0.00472977
-0.0052401
-0.00574148
-0.00621868
-0.0066696
-0.00709189
-0.00748064
-0.00782898
-0.0081279
-0.00836704
-0.00853516
-0.00862108
-0.00861403
-0.00850398
-0.00828267
-0.00794388
-0.00748345
-0.00689796
-0.00618496
-0.00535026
-0.00440031
-0.00333949
-0.00218756
-0.00096167
0.000314115
0.00161145
0.0028962
0.00413053
0.00527431
0.00628596
0.00712653
0.0077624
0.00816799
0.00833161
0.00825708
0.00796497
0.00749135
0.00688016
0.00620156
0.00550827
0.00485655
0.00429194
0.0038449
0.00352104
0.0033175
0.00321203
0.00318072
0.00319966
0.003237
0.0032732
0.00330465
0.00333003
-2.7477e-05
-7.34511e-06
-8.22882e-06
-3.40581e-05
-8.34761e-05
-0.000147849
-0.000216994
-0.000283405
-0.000344233
-0.000400854
-0.000456256
-0.000514693
-0.000580733
-0.0006579
-0.0007485
-0.000854242
-0.000976612
-0.00111771
-0.00127971
-0.00146499
-0.00167662
-0.00191772
-0.00219174
-0.00250297
-0.00285551
-0.00325166
-0.00369245
-0.00417574
-0.0046937
-0.00523227
-0.00577338
-0.0063007
-0.00680299
-0.00727285
-0.00770385
-0.00808848
-0.008418
-0.00868306
-0.00887377
-0.00898002
-0.00899231
-0.00890215
-0.00870227
-0.00838709
-0.00795298
-0.00739758
-0.00671756
-0.00591643
-0.00500414
-0.00398623
-0.00287684
-0.00169325
-0.000457857
0.000802361
0.00205575
0.0032669
0.00439701
0.00540491
0.00625281
0.00690802
0.00734531
0.00755095
0.00752753
0.00729396
0.00688375
0.00634325
0.00572958
0.0051002
0.00450801
0.00399553
0.00358751
0.00330985
0.00315296
0.00309393
0.00310017
0.00314926
0.00321265
0.00326852
0.00331477
0.00335091
-3.47122e-05
-1.49385e-05
-2.23127e-05
-5.79893e-05
-0.000116564
-0.00018421
-0.000250528
-0.000309439
-0.000359391
-0.000401882
-0.000442272
-0.000486434
-0.000539337
-0.000604469
-0.000683697
-0.000777846
-0.00088808
-0.0010168
-0.00116744
-0.00134482
-0.00155499
-0.00180456
-0.00210084
-0.00244682
-0.00284477
-0.00329631
-0.00379901
-0.00434504
-0.00492143
-0.00551296
-0.00610416
-0.00668066
-0.00722958
-0.00774124
-0.00820786
-0.00862131
-0.00897371
-0.0092568
-0.00946171
-0.0095797
-0.00960276
-0.00952372
-0.00933625
-0.0090353
-0.00861764
-0.00808149
-0.00742596
-0.00665356
-0.00577015
-0.00478223
-0.00370155
-0.00254448
-0.00133211
-8.92921e-05
0.00115498
0.00236718
0.00350886
0.0045399
0.00542208
0.00612127
0.00661122
0.00687517
0.00691219
0.0067393
0.00638839
0.00590329
0.00533871
0.00475316
0.00419525
0.00371589
0.00333819
0.0030803
0.00293962
0.0029029
0.00294614
0.00302898
0.00312234
0.00320724
0.00327665
0.00332456
-2.90316e-05
-1.50857e-05
-3.14164e-05
-7.74446e-05
-0.000144926
-0.000215645
-0.000279141
-0.000330508
-0.000369578
-0.000399676
-0.000427038
-0.000458382
-0.000499086
-0.000552615
-0.000621046
-0.000706144
-0.000810633
-0.000939269
-0.00109814
-0.00129451
-0.0015376
-0.00183237
-0.00218344
-0.00259528
-0.00306844
-0.00359897
-0.00417812
-0.00479379
-0.00543076
-0.00607361
-0.0067077
-0.0073208
-0.00790227
-0.00844223
-0.00893216
-0.0093641
-0.00973083
-0.0100247
-0.0102377
-0.0103621
-0.0103921
-0.0103215
-0.010145
-0.00985781
-0.00945684
-0.00894157
-0.00831113
-0.00756705
-0.00671297
-0.00575405
-0.00470063
-0.00356774
-0.0023754
-0.00114536
9.7307e-05
0.00132113
0.0024871
0.00355611
0.00449129
0.00525662
0.00582315
0.00617155
0.00629457
0.00620302
0.00592692
0.00550914
0.00500173
0.00445986
0.00393747
0.00348155
0.0031223
0.00287654
0.00274541
0.00271647
0.00276799
0.00286817
0.00298421
0.00309414
0.0031843
0.00324047
-2.65057e-06
-4.14486e-07
-2.78828e-05
-8.61774e-05
-0.000161567
-0.000233812
-0.00029411
-0.000338914
-0.00036887
-0.000389216
-0.000407114
-0.000429763
-0.000462715
-0.000509965
-0.000574895
-0.000661481
-0.000775559
-0.000924583
-0.00111805
-0.00136377
-0.00166813
-0.00203769
-0.00247525
-0.00297919
-0.00354236
-0.00415476
-0.00480458
-0.00547966
-0.00616651
-0.00685101
-0.00751989
-0.00816156
-0.00876631
-0.00932536
-0.00983059
-0.0102744
-0.01065
-0.0109505
-0.0111685
-0.0112978
-0.0113349
-0.0112747
-0.0111128
-0.0108451
-0.0104691
-0.00998326
-0.00938648
-0.00867985
-0.00786593
-0.00694894
-0.00593607
-0.00483885
-0.00367566
-0.00246374
-0.00122424
1.08749e-05
0.00120298
0.002317
0.00331881
0.00416855
0.00483473
0.00529572
0.00553827
0.00556565
0.00539863
0.00507877
0.00465617
0.00418293
0.00371201
0.0032914
0.00295519
0.00272237
0.00259658
0.00256811
0.00261731
0.00271711
0.00283795
0.00295544
0.00305327
0.00311174
5.36357e-05
4.04285e-05
-1.22502e-06
-7.47884e-05
-0.000155504
-0.000228441
-0.000286033
-0.000325962
-0.000350658
-0.000366406
-0.000381017
-0.000401939
-0.000435345
-0.000486697
-0.000561785
-0.000667541
-0.000813126
-0.00100922
-0.00126367
-0.00158498
-0.00197886
-0.00244791
-0.00298593
-0.00358309
-0.00423006
-0.00491633
-0.00562921
-0.00635625
-0.00708501
-0.00780316
-0.00849908
-0.00916235
-0.00978404
-0.0103561
-0.0108708
-0.0113202
-0.0116987
-0.0120008
-0.0122213
-0.0123585
-0.012407
-0.012362
-0.0122195
-0.011977
-0.0116324
-0.0111824
-0.0106263
-0.00996476
-0.00919987
-0.00833684
-0.00738262
-0.0063453
-0.00523187
-0.00405811
-0.002846
-0.00162105
-0.000410975
0.000752793
0.00183079
0.00277849
0.00356644
0.00416818
0.00456357
0.00475072
0.00473912
0.00455972
0.00426029
0.00388991
0.00349919
0.00313601
0.00283721
0.00262471
0.00250554
0.00247376
0.00251362
0.00260125
0.00271122
0.00281963
0.00291001
0.00296237
0.00014887
0.000117301
5.67425e-05
-3.01595e-05
-0.000116059
-0.000190295
-0.000246952
-0.000285649
-0.000310499
-0.00032873
-0.000348631
-0.000378084
-0.000424488
-0.000495654
-0.000600001
-0.000747864
-0.000950906
-0.00121916
-0.00156077
-0.00198262
-0.00248262
-0.0030538
-0.00368726
-0.00437199
-0.0050963
-0.00584816
-0.00661534
-0.00738622
-0.00814936
-0.00889388
-0.0096097
-0.0102877
-0.0109192
-0.0114962
-0.0120115
-0.0124604
-0.0128395
-0.0131441
-0.0133722
-0.0135207
-0.013582
-0.0135529
-0.0134301
-0.0132114
-0.0128958
-0.0124818
-0.0119688
-0.0113576
-0.0106503
-0.00985146
-0.00896669
-0.00800069
-0.0069558
-0.00584457
-0.0046852
-0.00349583
-0.00229568
-0.00111303
1.60652e-05
0.00106144
0.00198823
0.00275058
0.00332851
0.0037119
0.00390107
0.00390942
0.00377715
0.00354957
0.00327376
0.002996
0.0027553
0.00257661
0.00247087
0.00243626
0.00246198
0.00252948
0.00261765
0.00270534
0.00277427
0.00281154
0.000287991
0.000237804
0.000154901
5.55941e-05
-3.64551e-05
-0.000113416
-0.000172309
-0.000214915
-0.000247023
-0.000276798
-0.000313036
-0.000364465
-0.000440327
-0.000550824
-0.000707482
-0.000922219
-0.00120743
-0.00157261
-0.00202166
-0.00255221
-0.0031578
-0.00382816
-0.00455151
-0.00531504
-0.00610668
-0.00691435
-0.00772672
-0.00853294
-0.00932261
-0.010086
-0.0108142
-0.0114988
-0.0121314
-0.0127059
-0.0132195
-0.0136705
-0.0140541
-0.0143646
-0.0145979
-0.0147494
-0.0148171
-0.0147992
-0.0146938
-0.0144995
-0.014215
-0.0138396
-0.0133733
-0.0128164
-0.0121699
-0.0114361
-0.0106175
-0.00971769
-0.00874475
-0.00770757
-0.00661851
-0.00549039
-0.00433393
-0.00316723
-0.00201611
-0.000904366
0.000126295
0.00104523
0.00182429
0.00242818
0.00285164
0.00309171
0.00317221
0.00312961
0.00300619
0.0028451
0.00268622
0.00255863
0.00247747
0.00244597
0.00245698
0.00249954
0.00255777
0.00261624
0.0026548
0.00267336
0.000477074
0.000406498
0.000298662
0.000185873
8.57696e-05
3.45671e-06
-6.19906e-05
-0.000115007
-0.000163097
-0.000215342
-0.000281223
-0.000370668
-0.000495
-0.000666969
-0.000899201
-0.00120439
-0.00159368
-0.00207067
-0.00263241
-0.00327249
-0.00398029
-0.00474222
-0.0055457
-0.00637779
-0.00722665
-0.00808064
-0.00892917
-0.00976214
-0.0105701
-0.0113445
-0.0120773
-0.0127616
-0.0133924
-0.0139656
-0.0144771
-0.0149222
-0.0152966
-0.0155985
-0.0158262
-0.0159767
-0.0160484
-0.01604
-0.0159506
-0.0157793
-0.0155252
-0.0151878
-0.0147673
-0.0142642
-0.0136794
-0.0130141
-0.0122698
-0.0114488
-0.0105557
-0.00959609
-0.00857642
-0.00750478
-0.00639504
-0.00526596
-0.00413204
-0.00300554
-0.00190928
-0.000868105
7.81742e-05
0.000904899
0.001575
0.00207483
0.00240883
0.00259498
0.00266371
0.00265371
0.00260279
0.00254485
0.00250099
0.0024801
0.00248064
0.00249812
0.00252366
0.00254612
0.00255255
0.00255309
0.00071891
0.000622133
0.000489267
0.000358176
0.000247917
0.000156642
7.91265e-05
7.89689e-06
-6.6323e-05
-0.00015355
-0.000264051
-0.000409349
-0.000602662
-0.000857639
-0.00118679
-0.00160123
-0.00210627
-0.00269999
-0.00337489
-0.00411971
-0.00492099
-0.00576482
-0.00663823
-0.00752862
-0.00842449
-0.00931482
-0.0101897
-0.0110399
-0.0118571
-0.0126338
-0.0133635
-0.0140408
-0.0146616
-0.0152223
-0.0157198
-0.0161506
-0.0165124
-0.0168039
-0.0170241
-0.0171715
-0.017245
-0.0172437
-0.0171673
-0.0170155
-0.0167877
-0.0164839
-0.0161044
-0.0156499
-0.0151213
-0.0145195
-0.0138457
-0.0131017
-0.0122901
-0.0114139
-0.0104765
-0.00948178
-0.00843666
-0.00735027
-0.00623426
-0.00510927
-0.00399094
-0.00288763
-0.00181998
-0.000819006
7.61517e-05
0.000842996
0.00145319
0.00190567
0.00220808
0.00238754
0.00247632
0.00250894
0.00251584
0.00251436
0.00251146
0.0025056
0.0024985
0.00248387
0.00246081
0.00244567
0.00100285
0.00088014
0.000716194
0.000564255
0.000441211
0.000336985
0.000240994
0.000142727
3.12029e-05
-0.000104405
-0.000275456
-0.000494682
-0.000776113
-0.00113272
-0.00157498
-0.00210913
-0.00273482
-0.00344455
-0.00422657
-0.00506734
-0.00595219
-0.00686736
-0.00779987
-0.00873756
-0.00966932
-0.0105849
-0.0114752
-0.0123319
-0.0131482
-0.0139177
-0.0146356
-0.0152977
-0.0159009
-0.0164428
-0.0169212
-0.0173344
-0.0176809
-0.01796
-0.018171
-0.0183133
-0.0183862
-0.0183897
-0.0183234
-0.0181876
-0.0179821
-0.0177073
-0.0173637
-0.0169521
-0.0164731
-0.0159279
-0.0153174
-0.0146429
-0.0139059
-0.0131082
-0.0122514
-0.0113376
-0.0103695
-0.00935036
-0.00828459
-0.0071802
-0.00604825
-0.0049083
-0.00377526
-0.00266068
-0.00158842
-0.000590854
0.000290652
0.00102602
0.00159737
0.00200635
0.00227349
0.002426
0.00249956
0.00252593
0.00252267
0.00249925
0.00246348
0.00241656
0.00236951
0.00234114
0.0013164
0.00116659
0.000967588
0.000792274
0.000653106
0.000530805
0.000409116
0.000274375
0.000114058
-8.34839e-05
-0.000330172
-0.000639636
-0.00102503
-0.00149685
-0.00206151
-0.0027195
-0.00346429
-0.00428384
-0.00516421
-0.00609055
-0.00704801
-0.00802302
-0.00900283
-0.00997582
-0.0109315
-0.0118606
-0.0127551
-0.0136081
-0.0144141
-0.0151683
-0.0158673
-0.0165082
-0.0170892
-0.0176088
-0.0180658
-0.0184593
-0.0187888
-0.019054
-0.0192547
-0.0193906
-0.0194616
-0.0194679
-0.0194096
-0.019287
-0.0191004
-0.0188505
-0.0185378
-0.0181631
-0.0177274
-0.0172316
-0.0166765
-0.0160633
-0.0153928
-0.0146657
-0.0138828
-0.0130446
-0.0121516
-0.0112043
-0.0102036
-0.00915064
-0.00804774
-0.00690116
-0.00572283
-0.00453514
-0.00334693
-0.00217715
-0.0010639
-6.07618e-05
0.000793748
0.00146721
0.00195339
0.00226608
0.00243355
0.00249969
0.00250178
0.00246375
0.00240382
0.00233107
0.00226689
0.00223044
0.00164394
0.00146445
0.00122799
0.00102577
0.000866671
0.000720728
0.000565819
0.000385226
0.000165089
-0.000106419
-0.000442213
-0.000855195
-0.00135585
-0.00195085
-0.00264083
-0.00342021
-0.00427744
-0.00519772
-0.00616575
-0.00716609
-0.00818412
-0.00920654
-0.0102211
-0.0112169
-0.0121846
-0.013116
-0.0140046
-0.0148451
-0.0156333
-0.0163661
-0.0170414
-0.0176577
-0.018214
-0.0187096
-0.0191443
-0.0195177
-0.01983
-0.0200811
-0.0202712
-0.0204004
-0.020469
-0.0204771
-0.0204252
-0.0203137
-0.0201432
-0.0199144
-0.0196281
-0.0192851
-0.0188863
-0.0184328
-0.0179255
-0.0173651
-0.0167523
-0.0160873
-0.0153702
-0.0146004
-0.013777
-0.0128987
-0.0119638
-0.0109704
-0.00991676
-0.00880237
-0.00762892
-0.00640251
-0.00513506
-0.00385217
-0.00257228
-0.00134341
-0.00022245
0.000731523
0.00147315
0.00198923
0.00229292
0.00242383
0.00244131
0.00239216
0.00231105
0.0022175
0.00214234
0.00210078
0.00196359
0.00175311
0.00147648
0.00124532
0.0010625
0.000887302
0.000691799
0.000456709
0.00016748
-0.000188623
-0.000624388
-0.00115
-0.00177236
-0.00249212
-0.00330413
-0.00419762
-0.00515745
-0.00616717
-0.00721066
-0.00827237
-0.00933808
-0.010395
-0.0114316
-0.0124384
-0.013407
-0.0143311
-0.0152055
-0.0160267
-0.0167919
-0.0174996
-0.0181487
-0.0187388
-0.0192696
-0.0197413
-0.0201541
-0.0205083
-0.0208042
-0.021042
-0.0212222
-0.0213452
-0.0214113
-0.0214209
-0.0213744
-0.0212725
-0.0211158
-0.0209051
-0.0206412
-0.020325
-0.0199577
-0.01954
-0.019073
-0.0185574
-0.0179938
-0.0173821
-0.016722
-0.0160125
-0.0152517
-0.0144373
-0.0135657
-0.012633
-0.0116346
-0.0105663
-0.0094246
-0.00820745
-0.00691666
-0.0055643
-0.00417672
-0.00278262
-0.00143929
-0.000219878
0.000796768
0.00155531
0.00204239
0.00228099
0.00233523
0.00228389
0.00218337
0.00207138
0.00198802
0.00194074
0.00225139
0.00200997
0.00169249
0.00143055
0.00122024
0.00100999
0.000767151
0.000470686
0.000104739
-0.00034463
-0.000887201
-0.00152992
-0.00227398
-0.00311429
-0.00404055
-0.00503764
-0.00608805
-0.00717434
-0.00828003
-0.0093898
-0.01049
-0.0115687
-0.0126156
-0.0136225
-0.0145829
-0.0154919
-0.0163462
-0.0171436
-0.0178829
-0.0185637
-0.0191859
-0.0197498
-0.020256
-0.020705
-0.0210974
-0.0214339
-0.0217149
-0.021941
-0.0221126
-0.0222302
-0.0222943
-0.0223053
-0.0222637
-0.0221703
-0.0220256
-0.0218304
-0.0215857
-0.0212924
-0.0209515
-0.020564
-0.0201308
-0.0196528
-0.0191303
-0.0185635
-0.0179518
-0.017294
-0.016588
-0.0158306
-0.0150177
-0.0141438
-0.0132027
-0.0121873
-0.0110904
-0.00990558
-0.00862928
-0.00726297
-0.00581766
-0.00431952
-0.00281468
-0.00137474
-9.35587e-05
0.000933863
0.00164728
0.00204515
0.00217612
0.00213756
0.00202299
0.00189348
0.00179927
0.00174252
0.00248703
0.00221271
0.00185519
0.00156115
0.00131947
0.00106908
0.000774131
0.00041137
-3.80201e-05
-0.000585358
-0.00123699
-0.00199552
-0.00285613
-0.00380875
-0.00483824
-0.00592622
-0.00705371
-0.00820277
-0.0093569
-0.0105013
-0.0116233
-0.012712
-0.0137587
-0.014757
-0.0157019
-0.0165904
-0.0174207
-0.018192
-0.0189043
-0.0195581
-0.020154
-0.0206932
-0.0211764
-0.0216046
-0.0219788
-0.0222996
-0.0225677
-0.0227837
-0.0229481
-0.0230615
-0.0231243
-0.023137
-0.0231001
-0.0230143
-0.0228802
-0.0226986
-0.0224704
-0.0221966
-0.021878
-0.0215158
-0.0211109
-0.020664
-0.0201758
-0.0196462
-0.0190749
-0.0184607
-0.0178013
-0.0170936
-0.016333
-0.0155135
-0.0146279
-0.0136676
-0.012623
-0.0114844
-0.0102436
-0.00889553
-0.00744155
-0.00589516
-0.00429116
-0.00269134
-0.00118787
0.000106806
0.00108392
0.00168781
0.00194479
0.00195071
0.00183283
0.00168499
0.0015716
0.00150054
0.00264247
0.00234021
0.00194514
0.00161841
0.00134224
0.0010486
0.000698351
0.00026449
-0.000270722
-0.00091589
-0.00167469
-0.00254319
-0.0035118
-0.0045654
-0.00568489
-0.00684969
-0.00803998
-0.00923766
-0.0104266
-0.0115929
-0.0127249
-0.0138134
-0.0148514
-0.0158342
-0.0167586
-0.0176232
-0.0184275
-0.019172
-0.0198576
-0.0204854
-0.0210568
-0.0215731
-0.0220357
-0.0224455
-0.0228037
-0.0231111
-0.0233684
-0.0235761
-0.0237349
-0.0238453
-0.0239075
-0.0239223
-0.02389
-0.0238112
-0.0236867
-0.023517
-0.0233032
-0.023046
-0.0227465
-0.0224056
-0.0220242
-0.0216032
-0.0211432
-0.0206444
-0.0201064
-0.0195283
-0.0189081
-0.0182426
-0.0175275
-0.0167567
-0.0159226
-0.015016
-0.014026
-0.0129411
-0.0117494
-0.0104413
-0.00901081
-0.00746099
-0.00581219
-0.00411313
-0.00244699
-0.000921955
0.000326526
0.00118268
0.00162114
0.00171422
0.00160899
0.00144366
0.00130044
0.00121272
0.00270327
0.00237609
0.00194659
0.00158729
0.00127493
0.000936573
0.000528548
2.21886e-05
-0.000597628
-0.0013378
-0.00219721
-0.00316692
-0.00423211
-0.00537322
-0.00656819
-0.00779508
-0.00903369
-0.0102661
-0.011477
-0.0126535
-0.0137854
-0.0148653
-0.015888
-0.0168505
-0.0177512
-0.0185902
-0.0193681
-0.0200862
-0.0207463
-0.0213499
-0.021899
-0.022395
-0.0228394
-0.0232334
-0.023578
-0.0238742
-0.0241226
-0.0243238
-0.0244783
-0.0245867
-0.0246492
-0.0246663
-0.0246386
-0.0245665
-0.0244506
-0.0242917
-0.0240904
-0.0238477
-0.0235644
-0.0232416
-0.02288
-0.0224806
-0.0220439
-0.0215704
-0.0210598
-0.0205114
-0.0199235
-0.0192934
-0.018617
-0.0178886
-0.0171009
-0.0162444
-0.015308
-0.0142789
-0.0131434
-0.0118883
-0.010503
-0.00898207
-0.00733215
-0.00558544
-0.00381623
-0.00212003
-0.000625495
0.000505343
0.00117326
0.00140583
0.00134443
0.00116428
0.000982325
0.00087756
0.00265591
0.00230796
0.00184828
0.00145776
0.00110926
0.000724685
0.000257755
-0.0003183
-0.00101873
-0.00184782
-0.00279895
-0.00385847
-0.00500677
-0.00622068
-0.00747611
-0.00875037
-0.0100233
-0.0112775
-0.0124985
-0.013675
-0.0147986
-0.0158634
-0.016866
-0.0178051
-0.0186806
-0.0194935
-0.0202455
-0.0209387
-0.0215751
-0.0221569
-0.022686
-0.0231642
-0.0235929
-0.0239734
-0.0243068
-0.0245938
-0.0248351
-0.0250313
-0.0251828
-0.0252901
-0.0253535
-0.0253733
-0.0253501
-0.0252843
-0.0251765
-0.0250271
-0.0248371
-0.0246071
-0.0243379
-0.0240305
-0.0236857
-0.0233044
-0.0228872
-0.0224345
-0.0219464
-0.0214223
-0.0208609
-0.0202601
-0.0196162
-0.0189241
-0.0181771
-0.0173661
-0.0164801
-0.0155061
-0.0144292
-0.0132341
-0.0119067
-0.0104364
-0.00881876
-0.00706743
-0.00523956
-0.00343522
-0.00175084
-0.000357702
0.000577896
0.00100472
0.00102392
0.000837874
0.000614992
0.000495157
0.00249224
0.00212846
0.00164385
0.00122448
0.000840038
0.000409615
-0.000113416
-0.000755379
-0.00153077
-0.00243976
-0.00347156
-0.00460772
-0.00582458
-0.00709622
-0.00839726
-0.00970473
-0.0109988
-0.0122629
-0.013484
-0.0146522
-0.0157608
-0.0168057
-0.0177852
-0.0186993
-0.0195491
-0.0203365
-0.021064
-0.0217339
-0.022349
-0.0229113
-0.0234229
-0.0238857
-0.0243011
-0.0246703
-0.0249944
-0.025274
-0.0255098
-0.0257022
-0.0258518
-0.0259588
-0.0260235
-0.0260464
-0.0260277
-0.0259679
-0.0258674
-0.0257269
-0.0255469
-0.0253281
-0.0250713
-0.0247773
-0.0244469
-0.024081
-0.0236801
-0.0232448
-0.0227753
-0.0222712
-0.0217317
-0.021155
-0.020538
-0.0198766
-0.0191646
-0.0183938
-0.0175539
-0.0166319
-0.0156129
-0.0144803
-0.0132176
-0.0118105
-0.010248
-0.00852876
-0.00668229
-0.00481488
-0.0030037
-0.00139235
-0.000185926
0.00047845
0.000627467
0.0004579
0.000201135
6.60694e-05
0.00220988
0.00183562
0.00133197
0.000886795
0.000467719
-6.54571e-06
-0.000581464
-0.00128349
-0.00212574
-0.00310441
-0.0042045
-0.00540333
-0.00667395
-0.00798856
-0.00932107
-0.0106486
-0.0119521
-0.013216
-0.0144286
-0.0155818
-0.0166705
-0.0176924
-0.018647
-0.0195356
-0.0203601
-0.0211232
-0.0218278
-0.0224767
-0.0230726
-0.0236177
-0.0241142
-0.0245639
-0.0249681
-0.0253279
-0.0256443
-0.025918
-0.0261496
-0.0263394
-0.0264878
-0.0265952
-0.0266617
-0.0266876
-0.0266734
-0.0266193
-0.0265257
-0.0263932
-0.0262223
-0.0260135
-0.0257677
-0.0254855
-0.0251677
-0.024815
-0.0244281
-0.0240075
-0.0235536
-0.0230662
-0.0225447
-0.0219879
-0.0213934
-0.0207576
-0.0200754
-0.0193396
-0.0185407
-0.0176667
-0.0167029
-0.0156323
-0.0144368
-0.0130995
-0.0116062
-0.00994532
-0.0081219
-0.00621298
-0.00433612
-0.00256963
-0.0011202
-0.000194246
0.000135955
1.17137e-05
-0.000258976
-0.000412782
0.00181165
0.00143252
0.000915839
0.000448246
-2.96978e-06
-0.000516943
-0.00113853
-0.001894
-0.00279366
-0.00383061
-0.00498593
-0.00623333
-0.00754337
-0.00888702
-0.010238
-0.0115739
-0.0128765
-0.0141316
-0.015329
-0.0164622
-0.0175278
-0.0185247
-0.0194538
-0.020317
-0.0211173
-0.0218577
-0.0225414
-0.0231713
-0.0237502
-0.0242803
-0.0247638
-0.0252022
-0.025597
-0.0259491
-0.0262593
-0.0265284
-0.0267567
-0.0269447
-0.0270927
-0.0272008
-0.0272693
-0.0272985
-0.0272885
-0.0272399
-0.0271527
-0.0270276
-0.026865
-0.0266653
-0.0264293
-0.0261576
-0.0258509
-0.0255098
-0.025135
-0.0247271
-0.0242864
-0.0238131
-0.0233068
-0.0227667
-0.0221909
-0.0215767
-0.0209198
-0.0202141
-0.0194513
-0.0186204
-0.0177077
-0.0166964
-0.0155677
-0.0143027
-0.0128848
-0.0112985
-0.0095329
-0.00761255
-0.0057025
-0.00384457
-0.00220033
-0.00101669
-0.000469712
-0.00050873
-0.000768186
-0.000948463
0.00130489
0.000926638
0.000402506
-8.33904e-05
-0.000563039
-0.00111206
-0.00177433
-0.00257515
-0.00352232
-0.00460583
-0.00580336
-0.00708574
-0.00842177
-0.00978178
-0.0111397
-0.0124738
-0.013767
-0.0150064
-0.0161835
-0.0172932
-0.0183335
-0.0193046
-0.0202082
-0.021047
-0.0218245
-0.0225439
-0.0232085
-0.0238214
-0.0243853
-0.0249024
-0.0253747
-0.0258036
-0.0261904
-0.0265361
-0.0268414
-0.0271068
-0.0273327
-0.0275196
-0.0276675
-0.0277767
-0.0278474
-0.0278797
-0.027874
-0.0278305
-0.0277494
-0.0276311
-0.027476
-0.0272847
-0.0270576
-0.0267953
-0.0264984
-0.0261677
-0.0258036
-0.0254068
-0.0249777
-0.0245165
-0.0240232
-0.0234972
-0.0229372
-0.0223412
-0.0217058
-0.021026
-0.0202946
-0.0195021
-0.0186358
-0.0176801
-0.016616
-0.015423
-0.0140825
-0.0125773
-0.0108878
-0.00901145
-0.00706819
-0.00517524
-0.0034001
-0.00199159
-0.00120857
-0.00110436
-0.00133427
-0.00155244
0.000700847
0.000329016
-0.00019688
-0.000696668
-0.00120021
-0.00177923
-0.00247606
-0.00331392
-0.00429843
-0.00541692
-0.00664419
-0.00794893
-0.0092988
-0.010664
-0.0120189
-0.0133428
-0.0146197
-0.0158382
-0.0169913
-0.0180753
-0.0190892
-0.0200343
-0.0209131
-0.0217287
-0.0224849
-0.023185
-0.0238325
-0.0244303
-0.024981
-0.0254867
-0.0259493
-0.0263701
-0.0267503
-0.0270906
-0.0273918
-0.0276544
-0.0278785
-0.0280647
-0.0282129
-0.0283234
-0.0283963
-0.0284319
-0.0284302
-0.0283915
-0.028316
-0.028204
-0.028056
-0.0278722
-0.0276532
-0.0273995
-0.0271117
-0.0267902
-0.0264357
-0.0260488
-0.0256299
-0.0251794
-0.0246974
-0.0241837
-0.0236374
-0.023057
-0.02244
-0.0217825
-0.0210784
-0.0203197
-0.0194952
-0.0185903
-0.0175871
-0.0164646
-0.0152018
-0.0137801
-0.0121793
-0.010383
-0.00842315
-0.0065229
-0.00468585
-0.00310559
-0.00209155
-0.00180166
-0.00197444
-0.00224127
1.49078e-05
-0.000346966
-0.000868733
-0.00137794
-0.00190128
-0.00250528
-0.00322971
-0.00409623
-0.00510822
-0.00625067
-0.0074962
-0.00881195
-0.010165
-0.0115258
-0.0128695
-0.0141764
-0.0154318
-0.0166257
-0.0177523
-0.0188093
-0.0197966
-0.0207163
-0.0215712
-0.022365
-0.0231015
-0.0237841
-0.0244161
-0.0250004
-0.0255395
-0.0260353
-0.0264895
-0.0269033
-0.0272778
-0.0276138
-0.0279116
-0.0281718
-0.0283947
-0.0285805
-0.0287293
-0.0288412
-0.0289164
-0.028955
-0.0289571
-0.028923
-0.0288528
-0.0287467
-0.0286051
-0.0284284
-0.0282168
-0.027971
-0.0276913
-0.0273783
-0.0270326
-0.0266546
-0.026245
-0.0258041
-0.0253322
-0.0248292
-0.0242949
-0.0237282
-0.0231272
-0.022489
-0.0218089
-0.0210799
-0.0202925
-0.0194338
-0.0184869
-0.0174316
-0.0162454
-0.0149084
-0.0134018
-0.0116974
-0.00977845
-0.00785715
-0.00601671
-0.00432957
-0.00311375
-0.00262555
-0.0027072
-0.00303748
-0.000736032
-0.00108567
-0.00159877
-0.00211341
-0.00265204
-0.00327557
-0.0040208
-0.00490782
-0.00593796
-0.0070943
-0.00834784
-0.00966477
-0.0110121
-0.0123606
-0.0136865
-0.0149712
-0.0162013
-0.017368
-0.0184669
-0.0194964
-0.0204575
-0.0213526
-0.022185
-0.0229584
-0.0236767
-0.0243434
-0.0249615
-0.0255338
-0.0260626
-0.0265497
-0.0269966
-0.0274044
-0.0277741
-0.0281062
-0.0284013
-0.0286597
-0.0288816
-0.0290672
-0.0292167
-0.0293301
-0.0294075
-0.029449
-0.0294548
-0.0294249
-0.0293596
-0.029259
-0.0291234
-0.0289531
-0.0287484
-0.0285098
-0.0282377
-0.0279326
-0.0275949
-0.0272252
-0.0268241
-0.0263919
-0.0259291
-0.025436
-0.0249124
-0.0243578
-0.023771
-0.0231498
-0.0224906
-0.0217879
-0.0210336
-0.0202163
-0.019321
-0.0183283
-0.017216
-0.0159621
-0.0145473
-0.012944
-0.0111252
-0.00917853
-0.00735876
-0.00563769
-0.00426976
-0.00358222
-0.00354808
-0.00396034
-0.00153563
-0.00187087
-0.00237167
-0.00288779
-0.00343717
-0.00407479
-0.00483452
-0.00573458
-0.00677447
-0.00793581
-0.00918852
-0.0104983
-0.0118325
-0.0131626
-0.0144658
-0.0157245
-0.0169268
-0.018065
-0.0191356
-0.020138
-0.0210735
-0.0219452
-0.0227564
-0.023511
-0.0242127
-0.0248648
-0.0254704
-0.026032
-0.0265516
-0.027031
-0.0274715
-0.027874
-0.0282395
-0.0285684
-0.0288611
-0.029118
-0.0293392
-0.0295249
-0.0296751
-0.02979
-0.0298695
-0.0299138
-0.0299229
-0.029897
-0.0298362
-0.0297407
-0.0296106
-0.0294463
-0.0292481
-0.0290162
-0.0287511
-0.0284532
-0.028123
-0.027761
-0.0273677
-0.0269437
-0.0264894
-0.0260052
-0.0254914
-0.0249478
-0.0243736
-0.0237676
-0.023127
-0.0224476
-0.0217227
-0.0209427
-0.0200942
-0.0191596
-0.0181173
-0.0169439
-0.0156198
-0.0141222
-0.0124179
-0.010493
-0.0086871
-0.00698982
-0.00553345
-0.00466688
-0.0045152
-0.00500918
-0.00236721
-0.00268632
-0.0031717
-0.00368533
-0.00424116
-0.00488803
-0.00565659
-0.00656307
-0.00760539
-0.00876414
-0.0100087
-0.0113047
-0.01262
-0.013927
-0.0152039
-0.0164343
-0.0176074
-0.0187165
-0.019759
-0.0207349
-0.0216461
-0.0224956
-0.0232871
-0.0240243
-0.0247108
-0.0253498
-0.0259441
-0.026496
-0.0270074
-0.0274799
-0.0279147
-0.0283127
-0.0286744
-0.0290005
-0.0292912
-0.0295469
-0.0297675
-0.0299533
-0.0301043
-0.0302206
-0.0303021
-0.030349
-0.0303612
-0.030339
-0.0302824
-0.0301915
-0.0300666
-0.0299079
-0.0297155
-0.0294899
-0.0292313
-0.0289402
-0.028617
-0.0282622
-0.0278763
-0.0274599
-0.0270135
-0.0265378
-0.026033
-0.0254994
-0.0249368
-0.0243445
-0.0237206
-0.0230619
-0.0223633
-0.0216167
-0.0208106
-0.0199289
-0.0189515
-0.0178551
-0.0166191
-0.0152234
-0.013631
-0.011807
-0.00999339
-0.00834025
-0.00685554
-0.00585512
-0.00561579
-0.00616412
-0.00321461
-0.00351581
-0.00398319
-0.00449109
-0.00504951
-0.00570124
-0.00647362
-0.00738084
-0.00841948
-0.00956938
-0.0107999
-0.012077
-0.0133692
-0.0146498
-0.0158982
-0.017099
-0.0182423
-0.0193226
-0.0203378
-0.0212884
-0.0221765
-0.0230053
-0.0237785
-0.0244997
-0.0251723
-0.0257993
-0.0263833
-0.0269265
-0.0274306
-0.027897
-0.0283267
-0.0287205
-0.029079
-0.0294026
-0.0296916
-0.0299461
-0.0301663
-0.0303523
-0.030504
-0.0306216
-0.030705
-0.0307542
-0.0307694
-0.0307506
-0.0306978
-0.0306112
-0.030491
-0.0303374
-0.0301505
-0.0299307
-0.0296782
-0.0293934
-0.0290768
-0.0287287
-0.0283498
-0.0279406
-0.0275018
-0.0270339
-0.0265376
-0.0260134
-0.0254615
-0.0248816
-0.0242727
-0.0236327
-0.0229577
-0.022241
-0.021473
-0.0206397
-0.0197224
-0.0186987
-0.0175459
-0.0162443
-0.0147621
-0.0130708
-0.0112696
-0.00966931
-0.00819497
-0.00711121
-0.00682312
-0.00738645
-0.00406226
-0.004344
-0.00479126
-0.00529091
-0.00584869
-0.00650148
-0.00727341
-0.00817669
-0.00920675
-0.0103428
-0.0115548
-0.0128093
-0.0140755
-0.0153278
-0.0165464
-0.0177173
-0.0188312
-0.0198835
-0.0208724
-0.021799
-0.0226655
-0.0234751
-0.0242315
-0.024938
-0.0255979
-0.0262141
-0.0267888
-0.0273241
-0.0278216
-0.0282824
-0.0287075
-0.0290976
-0.0294532
-0.0297746
-0.030062
-0.0303155
-0.0305354
-0.0307215
-0.030874
-0.0309927
-0.0310778
-0.0311292
-0.0311471
-0.0311313
-0.0310821
-0.0309994
-0.0308836
-0.0307346
-0.0305528
-0.0303383
-0.0300915
-0.0298126
-0.0295021
-0.0291604
-0.0287881
-0.0283858
-0.0279541
-0.0274937
-0.0270054
-0.02649
-0.0259479
-0.0253795
-0.0247843
-0.0241612
-0.0235073
-0.0228176
-0.0220839
-0.0212944
-0.0204321
-0.019476
-0.0184027
-0.017193
-0.0158238
-0.0142629
-0.0125017
-0.0109426
-0.0095154
-0.00839602
-0.00807047
-0.00858974
-0.00489574
-0.00515691
-0.00558259
-0.00607187
-0.00662633
-0.00727701
-0.008045
-0.00894052
-0.00995851
-0.011077
-0.012267
-0.0134966
-0.0147352
-0.0159582
-0.017147
-0.0182882
-0.0193737
-0.020399
-0.0213632
-0.0222673
-0.0231138
-0.0239057
-0.0246466
-0.0253397
-0.0259881
-0.0265944
-0.0271608
-0.027689
-0.0281804
-0.0286363
-0.0290572
-0.029444
-0.0297969
-0.0301163
-0.0304023
-0.030655
-0.0308745
-0.0310608
-0.0312139
-0.0313337
-0.0314203
-0.0314737
-0.0314939
-0.031481
-0.0314349
-0.0313558
-0.0312439
-0.0310992
-0.030922
-0.0307125
-0.0304708
-0.0301975
-0.0298927
-0.029557
-0.029191
-0.0287951
-0.0283701
-0.0279168
-0.0274362
-0.026929
-0.0263962
-0.0258384
-0.0252558
-0.0246479
-0.0240131
-0.0233475
-0.0226447
-0.0218945
-0.021082
-0.0201876
-0.0191889
-0.0180669
-0.0168025
-0.0153594
-0.0137042
-0.0121601
-0.0107805
-0.00966105
-0.00928423
-0.0096858
-0.00570133
-0.00594191
-0.00634515
-0.00682248
-0.00737144
-0.00801752
-0.00877894
-0.00966399
-0.0106667
-0.0117655
-0.0129316
-0.0141348
-0.0153452
-0.016539
-0.0176984
-0.018811
-0.0198693
-0.0208693
-0.0218104
-0.0226937
-0.0235218
-0.0242975
-0.0250244
-0.0257053
-0.0263433
-0.0269406
-0.0274994
-0.0280211
-0.0285072