/*--------------------------------*- C++ -*----------------------------------*\
  =========                 |
  \\      /  F ield         | OpenFOAM: The Open Source CFD Toolbox
   \\    /   O peration     | Website:  https://openfoam.org
    \\  /    A nd           | Version:  13
     \\/     M anipulation  |
\*---------------------------------------------------------------------------*/
FoamFile
{
    format      ascii;
    class       volVectorField;
    location    "4.8";
    object      U;
}
// * * * * * * * * * * * * * * * * * * * * * * * * * * * * * * * * * * * * * //

dimensions      [0 1 -1 0 0 0 0];

internalField   nonuniform List<vector> 
6400
(
(-0.00010787 7.04121e-05 0)
(0.000419166 -0.000157951 0)
(0.00191318 -0.000386916 0)
(0.00388889 -0.000488392 0)
(0.00586653 -0.000432599 0)
(0.00752827 -0.000292613 0)
(0.00865364 -0.000124292 0)
(0.0092367 4.10749e-06 0)
(0.00939032 5.49525e-05 0)
(0.00931519 3.87075e-05 0)
(0.00914619 -2.61378e-05 0)
(0.00901651 -0.000119246 0)
(0.00899613 -0.000216328 0)
(0.00908403 -0.000297144 0)
(0.00924016 -0.000364421 0)
(0.00939605 -0.00041633 0)
(0.00948486 -0.000452005 0)
(0.00945755 -0.000460456 0)
(0.00928174 -0.000449523 0)
(0.0088714 -0.000417294 0)
(0.00818043 -0.000372601 0)
(0.0071628 -0.000326286 0)
(0.0057694 -0.000282943 0)
(0.00397733 -0.000259551 0)
(0.0017585 -0.000290107 0)
(-0.000887279 -0.000383907 0)
(-0.0039156 -0.000461982 0)
(-0.00755125 -0.000372231 0)
(-0.0119092 -9.57043e-06 0)
(-0.0169944 0.000671097 0)
(-0.0233473 0.00156667 0)
(-0.0306757 0.00241728 0)
(-0.0386915 0.0031343 0)
(-0.0471756 0.00370323 0)
(-0.0558876 0.00411764 0)
(-0.0646056 0.00438181 0)
(-0.0731424 0.00451066 0)
(-0.0813382 0.00452319 0)
(-0.0890675 0.00443815 0)
(-0.096227 0.00427311 0)
(-0.102732 0.00404103 0)
(-0.108514 0.00375106 0)
(-0.113511 0.00340772 0)
(-0.117685 0.00301154 0)
(-0.12101 0.00256593 0)
(-0.123468 0.00208819 0)
(-0.124762 0.00166889 0)
(-0.125224 0.00127674 0)
(-0.124749 0.00050588 0)
(-0.122975 -1.09259e-05 0)
(-0.120249 -0.000705243 0)
(-0.116276 -0.00132449 0)
(-0.11122 -0.00198382 0)
(-0.104974 -0.00260417 0)
(-0.0976415 -0.00321271 0)
(-0.0892793 -0.00380172 0)
(-0.0799498 -0.00435318 0)
(-0.0697219 -0.00482806 0)
(-0.0587951 -0.00522277 0)
(-0.0473256 -0.00548805 0)
(-0.0355546 -0.00559519 0)
(-0.0237466 -0.0055163 0)
(-0.0121965 -0.00524243 0)
(-0.00121088 -0.00478029 0)
(0.00883104 -0.00414859 0)
(0.0175887 -0.00326839 0)
(0.0247928 -0.0022691 0)
(0.030173 -0.00115891 0)
(0.033644 -1.9845e-05 0)
(0.0347667 0.00129741 0)
(0.033957 0.00192823 0)
(0.0312748 0.00254627 0)
(0.0265656 0.00286629 0)
(0.0208846 0.00268891 0)
(0.0149345 0.00210174 0)
(0.00953002 0.0013179 0)
(0.00518425 0.000630569 0)
(0.00209784 0.000184299 0)
(0.000328243 -0.000120932 0)
(-0.000199431 -0.000313068 0)
(2.01174e-05 -0.000364721 0)
(0.00166152 -0.00192157 0)
(0.00479376 -0.00321769 0)
(0.00833391 -0.00367549 0)
(0.0116315 -0.0033523 0)
(0.0142853 -0.00257686 0)
(0.0161219 -0.00162057 0)
(0.0171497 -0.000738012 0)
(0.0174882 -0.000103832 0)
(0.0172785 0.000245597 0)
(0.0167199 0.000351993 0)
(0.015946 0.000288498 0)
(0.0150501 0.000160838 0)
(0.0140253 7.03474e-05 0)
(0.0128093 7.55555e-05 0)
(0.0113076 0.000191883 0)
(0.00942875 0.00040346 0)
(0.00712562 0.000688647 0)
(0.00429147 0.00106609 0)
(0.000830261 0.00155016 0)
(-0.00335879 0.00214481 0)
(-0.00844828 0.0028607 0)
(-0.0145871 0.00368344 0)
(-0.0218217 0.00458266 0)
(-0.0301996 0.00556959 0)
(-0.0397881 0.00666392 0)
(-0.0505824 0.00788676 0)
(-0.06228 0.00922475 0)
(-0.0745781 0.0106598 0)
(-0.0870311 0.0120782 0)
(-0.0991217 0.0132343 0)
(-0.110861 0.0140304 0)
(-0.122101 0.01446 0)
(-0.132695 0.0145298 0)
(-0.142556 0.0142887 0)
(-0.151603 0.0137837 0)
(-0.15979 0.0130623 0)
(-0.167079 0.0121681 0)
(-0.173449 0.0111364 0)
(-0.178886 0.00999809 0)
(-0.183375 0.00877309 0)
(-0.186907 0.0074766 0)
(-0.189475 0.00611822 0)
(-0.191068 0.00470442 0)
(-0.191684 0.00324217 0)
(-0.191303 0.00173851 0)
(-0.189888 0.00021041 0)
(-0.187465 -0.00136948 0)
(-0.183975 -0.00306352 0)
(-0.179407 -0.00478125 0)
(-0.173791 -0.00654845 0)
(-0.167068 -0.00832956 0)
(-0.159267 -0.010113 0)
(-0.15036 -0.0118699 0)
(-0.140376 -0.0135673 0)
(-0.129329 -0.0151606 0)
(-0.117316 -0.0166029 0)
(-0.104444 -0.0178565 0)
(-0.090842 -0.0188449 0)
(-0.0767216 -0.0195063 0)
(-0.0622828 -0.0197772 0)
(-0.0477703 -0.0196035 0)
(-0.0334623 -0.0189432 0)
(-0.0196569 -0.0177817 0)
(-0.00664217 -0.0161153 0)
(0.00525392 -0.0139363 0)
(0.0157462 -0.0113103 0)
(0.0246155 -0.00831495 0)
(0.0316439 -0.00503495 0)
(0.0366052 -0.00163092 0)
(0.0395017 0.00163498 0)
(0.0401693 0.00464761 0)
(0.0386506 0.00720489 0)
(0.0351247 0.00902471 0)
(0.0297935 0.00949053 0)
(0.0229224 0.00882472 0)
(0.0154747 0.00720034 0)
(0.00856782 0.0050216 0)
(0.0032849 0.00257507 0)
(0.000273332 0.000464355 0)
(0.000185918 -0.00150829 0)
(0.00290669 -0.00493389 0)
(0.00686683 -0.00702274 0)
(0.0106411 -0.00733892 0)
(0.0137787 -0.00638007 0)
(0.0160668 -0.0047458 0)
(0.0175136 -0.00295849 0)
(0.0181743 -0.00133325 0)
(0.0181205 -4.08889e-05 0)
(0.0174359 0.000841021 0)
(0.0162626 0.00133182 0)
(0.0146739 0.00156552 0)
(0.0126887 0.0017155 0)
(0.0102728 0.00194146 0)
(0.00735028 0.00234511 0)
(0.00381851 0.00295837 0)
(-0.00042953 0.00376779 0)
(-0.00555101 0.00478189 0)
(-0.0116608 0.00601996 0)
(-0.0188744 0.00751675 0)
(-0.0272788 0.00928603 0)
(-0.0368804 0.0112866 0)
(-0.0476359 0.0134392 0)
(-0.0594549 0.0156384 0)
(-0.0721208 0.0177671 0)
(-0.0853656 0.0197363 0)
(-0.0988607 0.0214673 0)
(-0.112293 0.0228857 0)
(-0.125364 0.0239402 0)
(-0.137794 0.0246046 0)
(-0.149403 0.0248689 0)
(-0.160104 0.0247241 0)
(-0.169827 0.0242085 0)
(-0.178593 0.0233533 0)
(-0.18642 0.0221929 0)
(-0.193328 0.0207847 0)
(-0.199345 0.019175 0)
(-0.204495 0.0174078 0)
(-0.208798 0.0155119 0)
(-0.212264 0.0135176 0)
(-0.214907 0.0114465 0)
(-0.216731 0.00930582 0)
(-0.217735 0.0071044 0)
(-0.217914 0.00484282 0)
(-0.217259 0.00251898 0)
(-0.215755 0.000133086 0)
(-0.213371 -0.00231872 0)
(-0.210084 -0.00485064 0)
(-0.205876 -0.00745764 0)
(-0.200716 -0.010111 0)
(-0.194584 -0.0128282 0)
(-0.18745 -0.0155699 0)
(-0.179308 -0.0183196 0)
(-0.170145 -0.021039 0)
(-0.159972 -0.0236815 0)
(-0.148812 -0.0261813 0)
(-0.136719 -0.028463 0)
(-0.12378 -0.030445 0)
(-0.110094 -0.0320263 0)
(-0.0958201 -0.0331104 0)
(-0.0811588 -0.0336027 0)
(-0.0663339 -0.0334167 0)
(-0.0516065 -0.0324775 0)
(-0.0372785 -0.0307748 0)
(-0.0236419 -0.0283028 0)
(-0.0109672 -0.0250939 0)
(0.000495709 -0.021188 0)
(0.0105161 -0.0167021 0)
(0.0189068 -0.0117719 0)
(0.0255368 -0.00660021 0)
(0.0303011 -0.00140834 0)
(0.0332599 0.0035945 0)
(0.034279 0.00806166 0)
(0.0332239 0.0116337 0)
(0.0302738 0.0142057 0)
(0.0256777 0.0151058 0)
(0.0194884 0.0143806 0)
(0.0125555 0.0120561 0)
(0.00593633 0.00821874 0)
(0.000806478 0.0032323 0)
(0.000375148 -0.00328328 0)
(0.00387588 -0.00873779 0)
(0.00798646 -0.0110083 0)
(0.0113514 -0.010643 0)
(0.0138119 -0.00877461 0)
(0.0153486 -0.00627238 0)
(0.0160472 -0.00367812 0)
(0.015992 -0.00131947 0)
(0.0152539 0.000616831 0)
(0.0138936 0.00205822 0)
(0.011908 0.00307646 0)
(0.00927767 0.00384384 0)
(0.00595662 0.00457249 0)
(0.00187936 0.0054501 0)
(-0.00302783 0.00659313 0)
(-0.00885142 0.00804982 0)
(-0.0157075 0.0098363 0)
(-0.0237124 0.0119544 0)
(-0.0329463 0.0143967 0)
(-0.0434346 0.017142 0)
(-0.0551157 0.020114 0)
(-0.0678251 0.0231826 0)
(-0.0812996 0.0261866 0)
(-0.0952159 0.02897 0)
(-0.109278 0.031433 0)
(-0.12317 0.033421 0)
(-0.136594 0.0348205 0)
(-0.149281 0.035613 0)
(-0.161041 0.0358578 0)
(-0.1718 0.0356037 0)
(-0.181532 0.0349101 0)
(-0.190271 0.0338162 0)
(-0.198054 0.0323566 0)
(-0.204947 0.0305905 0)
(-0.210995 0.0285638 0)
(-0.216252 0.026327 0)
(-0.220764 0.0239182 0)
(-0.22456 0.0213744 0)
(-0.227662 0.0187228 0)
(-0.230088 0.0159831 0)
(-0.231845 0.0131689 0)
(-0.232934 0.0102855 0)
(-0.23335 0.0073329 0)
(-0.233081 0.00430682 0)
(-0.232109 0.00120249 0)
(-0.230411 -0.00198351 0)
(-0.227954 -0.00525681 0)
(-0.224712 -0.00862935 0)
(-0.220655 -0.0121048 0)
(-0.215749 -0.0156715 0)
(-0.209957 -0.0193238 0)
(-0.203239 -0.0230277 0)
(-0.195573 -0.026755 0)
(-0.186938 -0.0304639 0)
(-0.177318 -0.0340922 0)
(-0.166712 -0.0375531 0)
(-0.155143 -0.04074 0)
(-0.142667 -0.0435434 0)
(-0.129368 -0.0458365 0)
(-0.115355 -0.0474636 0)
(-0.100797 -0.048299 0)
(-0.0859011 -0.0482134 0)
(-0.0708974 -0.0470993 0)
(-0.0560801 -0.0449018 0)
(-0.0417975 -0.0416349 0)
(-0.0283646 -0.0373828 0)
(-0.016026 -0.0322038 0)
(-0.00500998 -0.0262453 0)
(0.00447199 -0.0197119 0)
(0.0122834 -0.0128488 0)
(0.0183552 -0.00592677 0)
(0.0226851 0.000837794 0)
(0.0252985 0.00713582 0)
(0.0262507 0.0125684 0)
(0.0254054 0.0167455 0)
(0.022744 0.0193753 0)
(0.0184706 0.0200077 0)
(0.0129327 0.0184374 0)
(0.00676942 0.0143973 0)
(0.00104574 0.00697459 0)
(0.000613021 -0.00556001 0)
(0.00451008 -0.0128006 0)
(0.00819201 -0.0146043 0)
(0.0107675 -0.01323 0)
(0.0123384 -0.0103432 0)
(0.0129636 -0.006948 0)
(0.0127775 -0.00357168 0)
(0.0118612 -0.000510653 0)
(0.0102486 0.00208462 0)
(0.00793021 0.00419746 0)
(0.00484921 0.00593058 0)
(0.000924278 0.00747866 0)
(-0.00393138 0.00906608 0)
(-0.00980124 0.0108832 0)
(-0.0167643 0.0130531 0)
(-0.0248943 0.0156337 0)
(-0.0342549 0.0186361 0)
(-0.0448748 0.0220288 0)
(-0.0567077 0.0257264 0)
(-0.0696111 0.0296172 0)
(-0.0833389 0.0335011 0)
(-0.0975465 0.0371615 0)
(-0.111908 0.0404985 0)
(-0.126114 0.0432482 0)
(-0.139812 0.0452582 0)
(-0.152672 0.0465154 0)
(-0.164543 0.0470435 0)
(-0.175378 0.0468883 0)
(-0.185193 0.0461379 0)
(-0.19403 0.0448911 0)
(-0.201948 0.0432261 0)
(-0.209023 0.0412152 0)
(-0.215309 0.0389083 0)
(-0.220866 0.0363553 0)
(-0.225743 0.0335971 0)
(-0.229988 0.0306699 0)
(-0.233635 0.0276066 0)
(-0.236708 0.024435 0)
(-0.239226 0.0211689 0)
(-0.241197 0.0178236 0)
(-0.242623 0.0144082 0)
(-0.243505 0.0109168 0)
(-0.243833 0.00734474 0)
(-0.243595 0.00368078 0)
(-0.242773 -8.60542e-05 0)
(-0.241345 -0.00396624 0)
(-0.239266 -0.00796577 0)
(-0.236504 -0.0120934 0)
(-0.23302 -0.0163514 0)
(-0.228774 -0.0207396 0)
(-0.22375 -0.0252646 0)
(-0.217863 -0.0298844 0)
(-0.211077 -0.0345587 0)
(-0.203352 -0.0392462 0)
(-0.19465 -0.0438735 0)
(-0.184949 -0.048339 0)
(-0.174228 -0.0525049 0)
(-0.162511 -0.0562334 0)
(-0.149853 -0.0593699 0)
(-0.136326 -0.0617154 0)
(-0.122056 -0.0630988 0)
(-0.107226 -0.0633462 0)
(-0.0920491 -0.0623016 0)
(-0.0767745 -0.059867 0)
(-0.0617079 -0.0560057 0)
(-0.0472822 -0.0508112 0)
(-0.0338376 -0.0444352 0)
(-0.0216097 -0.0370586 0)
(-0.0108488 -0.0289395 0)
(-0.00173049 -0.0203735 0)
(0.00564681 -0.0117031 0)
(0.0112646 -0.00323123 0)
(0.0151747 0.00472211 0)
(0.017456 0.0118232 0)
(0.0181376 0.0177065 0)
(0.0172281 0.0219227 0)
(0.0147504 0.024008 0)
(0.0108917 0.0236011 0)
(0.00598703 0.0200029 0)
(0.000879486 0.0106351 0)
(0.000882519 -0.00819752 0)
(0.00472269 -0.0165901 0)
(0.00755432 -0.0173357 0)
(0.00908468 -0.0148523 0)
(0.00965318 -0.0109323 0)
(0.00929962 -0.0066805 0)
(0.00816268 -0.00254599 0)
(0.00628457 0.00123334 0)
(0.00365153 0.00456079 0)
(0.000201263 0.00746627 0)
(-0.00416473 0.0100859 0)
(-0.00955404 0.0126251 0)
(-0.0160643 0.0153004 0)
(-0.0237743 0.0182873 0)
(-0.0327385 0.0216915 0)
(-0.0429766 0.0255439 0)
(-0.0544587 0.0298054 0)
(-0.0670793 0.0343859 0)
(-0.0806529 0.0390874 0)
(-0.0948563 0.04367 0)
(-0.109327 0.0479885 0)
(-0.123754 0.0517033 0)
(-0.137718 0.0546187 0)
(-0.150808 0.0566478 0)
(-0.162874 0.0577452 0)
(-0.173871 0.0579695 0)
(-0.18384 0.0574356 0)
(-0.192856 0.0562729 0)
(-0.20099 0.0545901 0)
(-0.208312 0.052483 0)
(-0.214885 0.0500248 0)
(-0.220769 0.047278 0)
(-0.226015 0.0442907 0)
(-0.230675 0.0411046 0)
(-0.234788 0.0377548 0)
(-0.238386 0.0342698 0)
(-0.241495 0.0306748 0)
(-0.244134 0.026991 0)
(-0.246317 0.0232282 0)
(-0.248046 0.0193939 0)
(-0.249323 0.01549 0)
(-0.250153 0.0115013 0)
(-0.250528 0.00742057 0)
(-0.250441 0.0032302 0)
(-0.249883 -0.00109007 0)
(-0.248842 -0.00556333 0)
(-0.247297 -0.010199 0)
(-0.245215 -0.0150086 0)
(-0.242549 -0.019991 0)
(-0.239237 -0.0251384 0)
(-0.235222 -0.030455 0)
(-0.230461 -0.0359283 0)
(-0.224851 -0.0414866 0)
(-0.218322 -0.0470842 0)
(-0.210808 -0.0526439 0)
(-0.20232 -0.0581102 0)
(-0.192783 -0.0633184 0)
(-0.182129 -0.0680673 0)
(-0.170404 -0.0721877 0)
(-0.157628 -0.0754306 0)
(-0.14388 -0.077576 0)
(-0.129318 -0.0784107 0)
(-0.114108 -0.0777278 0)
(-0.0985219 -0.0753766 0)
(-0.0828131 -0.0712397 0)
(-0.067338 -0.0653386 0)
(-0.0526074 -0.057933 0)
(-0.0389639 -0.0492354 0)
(-0.0266933 -0.0395579 0)
(-0.0160466 -0.0292826 0)
(-0.00718375 -0.0188278 0)
(-0.000163648 -0.00859448 0)
(0.00505311 0.00104273 0)
(0.00857741 0.00974018 0)
(0.0105341 0.0171558 0)
(0.0110068 0.0228734 0)
(0.0100253 0.0264012 0)
(0.00767372 0.0272224 0)
(0.00432932 0.024356 0)
(0.000502503 0.0135912 0)
(0.00111245 -0.0109793 0)
(0.00444236 -0.019631 0)
(0.00607832 -0.0190355 0)
(0.00655375 -0.0153609 0)
(0.00602622 -0.0104842 0)
(0.00465529 -0.00541897 0)
(0.00251079 -0.000524332 0)
(-0.000414385 0.00402543 0)
(-0.00417996 0.00818605 0)
(-0.00888238 0.0120221 0)
(-0.0146347 0.0156863 0)
(-0.0215435 0.0193778 0)
(-0.0296924 0.0232903 0)
(-0.0391291 0.0275653 0)
(-0.0498514 0.032263 0)
(-0.061787 0.037352 0)
(-0.0748099 0.0427285 0)
(-0.0886665 0.0481686 0)
(-0.102993 0.0534496 0)
(-0.117466 0.0582559 0)
(-0.131636 0.0623018 0)
(-0.145053 0.0653818 0)
(-0.157444 0.0673774 0)
(-0.168744 0.0683239 0)
(-0.179009 0.0683349 0)
(-0.188288 0.0675465 0)
(-0.196676 0.0660918 0)
(-0.204255 0.0640892 0)
(-0.211099 0.0616401 0)
(-0.217267 0.0588302 0)
(-0.222813 0.0557253 0)
(-0.227784 0.0523788 0)
(-0.232223 0.0488338 0)
(-0.236167 0.0451272 0)
(-0.239644 0.041291 0)
(-0.242679 0.0373543 0)
(-0.245286 0.0333414 0)
(-0.247477 0.0292688 0)
(-0.24927 0.0251208 0)
(-0.250736 0.0208402 0)
(-0.251823 0.0165119 0)
(-0.252546 0.0120977 0)
(-0.252889 0.00759437 0)
(-0.252845 0.00298428 0)
(-0.252399 -0.00175096 0)
(-0.25155 -0.00663302 0)
(-0.25031 -0.0116859 0)
(-0.248659 -0.0169374 0)
(-0.246594 -0.022418 0)
(-0.244096 -0.0281549 0)
(-0.241114 -0.0341562 0)
(-0.237634 -0.0404623 0)
(-0.233554 -0.0469284 0)
(-0.228746 -0.053532 0)
(-0.223095 -0.0601921 0)
(-0.216403 -0.0667554 0)
(-0.208559 -0.073049 0)
(-0.199425 -0.0788476 0)
(-0.189086 -0.0840509 0)
(-0.177545 -0.0883942 0)
(-0.164747 -0.0915467 0)
(-0.150858 -0.0932563 0)
(-0.13596 -0.0932298 0)
(-0.120322 -0.0912851 0)
(-0.104204 -0.087251 0)
(-0.0878842 -0.0810452 0)
(-0.0718593 -0.0728241 0)
(-0.0566982 -0.062965 0)
(-0.0427575 -0.0518053 0)
(-0.0303732 -0.0398115 0)
(-0.0198016 -0.027496 0)
(-0.0111795 -0.0153748 0)
(-0.00452206 -0.00392802 0)
(0.000274665 0.00643566 0)
(0.00340061 0.0153711 0)
(0.0050384 0.0225153 0)
(0.00530304 0.0274039 0)
(0.00428783 0.0294103 0)
(0.00235927 0.0272191 0)
(5.62729e-05 0.0153771 0)
(0.00122111 -0.0136039 0)
(0.00357087 -0.021613 0)
(0.00402863 -0.0196002 0)
(0.00333839 -0.0147059 0)
(0.00171005 -0.00897263 0)
(-0.000706776 -0.00312338 0)
(-0.00390798 0.00255876 0)
(-0.00794582 0.00795242 0)
(-0.0129112 0.013049 0)
(-0.0189121 0.0179323 0)
(-0.026054 0.0227536 0)
(-0.0344219 0.0276896 0)
(-0.0440632 0.0328938 0)
(-0.0549705 0.0384506 0)
(-0.0670577 0.0443518 0)
(-0.0801793 0.0504901 0)
(-0.0940411 0.0566382 0)
(-0.108285 0.06254 0)
(-0.12251 0.0678239 0)
(-0.136243 0.0721898 0)
(-0.149053 0.0754107 0)
(-0.160814 0.0774333 0)
(-0.171497 0.0783233 0)
(-0.181159 0.0782365 0)
(-0.18988 0.0772969 0)
(-0.197745 0.075649 0)
(-0.204848 0.0734172 0)
(-0.211256 0.0707089 0)
(-0.217028 0.0676135 0)
(-0.222211 0.0642058 0)
(-0.226849 0.0605469 0)
(-0.230977 0.0566861 0)
(-0.234625 0.0526655 0)
(-0.237817 0.0485257 0)
(-0.240565 0.044303 0)
(-0.242949 0.0399636 0)
(-0.245004 0.0355363 0)
(-0.246734 0.0310355 0)
(-0.248155 0.0264817 0)
(-0.249227 0.0219191 0)
(-0.24999 0.0172605 0)
(-0.250441 0.0125208 0)
(-0.250596 0.00767841 0)
(-0.250463 0.00271967 0)
(-0.250054 -0.00237254 0)
(-0.249371 -0.00761521 0)
(-0.248409 -0.0130375 0)
(-0.247157 -0.018663 0)
(-0.245599 -0.0245124 0)
(-0.243714 -0.0306003 0)
(-0.241469 -0.0369269 0)
(-0.238817 -0.0434775 0)
(-0.235741 -0.0504027 0)
(-0.232202 -0.0576255 0)
(-0.228132 -0.0651032 0)
(-0.223436 -0.0727718 0)
(-0.217999 -0.0804482 0)
(-0.211524 -0.0878004 0)
(-0.203615 -0.0944858 0)
(-0.194045 -0.100093 0)
(-0.182866 -0.104446 0)
(-0.170316 -0.107363 0)
(-0.156328 -0.108383 0)
(-0.141158 -0.107255 0)
(-0.125042 -0.103758 0)
(-0.108275 -0.0977011 0)
(-0.0912365 -0.0891277 0)
(-0.0745487 -0.078327 0)
(-0.0588677 -0.065841 0)
(-0.0445895 -0.0521757 0)
(-0.0320976 -0.0379433 0)
(-0.0216397 -0.0237865 0)
(-0.0133265 -0.0103274 0)
(-0.00711416 0.00189483 0)
(-0.00280533 0.0124643 0)
(-0.000122717 0.0210376 0)
(0.0011802 0.0272105 0)
(0.00132112 0.0303034 0)
(0.000613813 0.0286433 0)
(-0.000270125 0.0159788 0)
(0.00116652 -0.0158057 0)
(0.00228978 -0.022404 0)
(0.00150443 -0.0188782 0)
(-0.000361259 -0.0129383 0)
(-0.0030715 -0.00639424 0)
(-0.00655199 0.000237896 0)
(-0.0108403 0.00674892 0)
(-0.0160203 0.013057 0)
(-0.0221946 0.0191717 0)
(-0.0294629 0.0251772 0)
(-0.0379068 0.0312064 0)
(-0.0475729 0.0373976 0)
(-0.0584542 0.0438448 0)
(-0.0704743 0.0505663 0)
(-0.0834788 0.057464 0)
(-0.0971529 0.0643077 0)
(-0.111149 0.0708006 0)
(-0.12501 0.0765713 0)
(-0.138223 0.0812794 0)
(-0.150516 0.0847217 0)
(-0.161744 0.0868626 0)
(-0.17191 0.0878204 0)
(-0.181063 0.0877101 0)
(-0.189302 0.0867012 0)
(-0.196707 0.0849276 0)
(-0.203368 0.0825303 0)
(-0.209352 0.0796168 0)
(-0.21471 0.0762838 0)
(-0.219492 0.0726105 0)
(-0.223735 0.0686648 0)
(-0.227476 0.0645031 0)
(-0.230747 0.0601734 0)
(-0.233574 0.0557164 0)
(-0.23603 0.0511398 0)
(-0.238138 0.0464763 0)
(-0.239895 0.0417826 0)
(-0.241292 0.0370532 0)
(-0.242344 0.0322814 0)
(-0.243105 0.0274625 0)
(-0.243586 0.0225951 0)
(-0.243836 0.0176644 0)
(-0.243867 0.0126698 0)
(-0.243705 0.00759269 0)
(-0.243365 0.00241441 0)
(-0.242862 -0.00289024 0)
(-0.242194 -0.00834797 0)
(-0.241357 -0.0139911 0)
(-0.240356 -0.0198519 0)
(-0.239189 -0.0259643 0)
(-0.23785 -0.032358 0)
(-0.236321 -0.039054 0)
(-0.234571 -0.0460606 0)
(-0.232567 -0.0533737 0)
(-0.230256 -0.0609726 0)
(-0.227558 -0.0688142 0)
(-0.224369 -0.0768106 0)
(-0.220566 -0.0849815 0)
(-0.216141 -0.0933425 0)
(-0.210885 -0.101588 0)
(-0.204517 -0.109222 0)
(-0.196459 -0.115639 0)
(-0.186148 -0.12008 0)
(-0.173922 -0.122534 0)
(-0.15997 -0.122687 0)
(-0.144547 -0.120257 0)
(-0.127847 -0.114873 0)
(-0.110356 -0.106546 0)
(-0.0924847 -0.0953221 0)
(-0.0750415 -0.0817348 0)
(-0.0587846 -0.066532 0)
(-0.0441907 -0.0503911 0)
(-0.0316587 -0.0340808 0)
(-0.0214269 -0.0183847 0)
(-0.0135578 -0.00402053 0)
(-0.00791635 0.00843724 0)
(-0.00418373 0.0185703 0)
(-0.00196973 0.0260268 0)
(-0.000899983 0.0300363 0)
(-0.000555826 0.028845 0)
(-0.000349244 0.0157873 0)
(0.000968954 -0.0171221 0)
(0.000726823 -0.0218818 0)
(-0.00133495 -0.0169084 0)
(-0.00432614 -0.0100642 0)
(-0.00811034 -0.00274335 0)
(-0.0126589 0.00468044 0)
(-0.0180361 0.0120582 0)
(-0.0243417 0.0193312 0)
(-0.0316731 0.0265084 0)
(-0.0401078 0.0336573 0)
(-0.0496906 0.0408759 0)
(-0.0604156 0.0482479 0)
(-0.0722236 0.0558042 0)
(-0.0849675 0.0634711 0)
(-0.0983297 0.0710203 0)
(-0.111953 0.0781275 0)
(-0.12539 0.0844268 0)
(-0.138144 0.0895423 0)
(-0.149979 0.0933037 0)
(-0.160765 0.0956932 0)
(-0.170479 0.096787 0)
(-0.179199 0.0967453 0)
(-0.187003 0.0957276 0)
(-0.193988 0.0938955 0)
(-0.200222 0.0913801 0)
(-0.205774 0.0883055 0)
(-0.210693 0.0847677 0)
(-0.215023 0.0808552 0)
(-0.218805 0.0766414 0)
(-0.222077 0.072191 0)
(-0.224876 0.0675584 0)
(-0.227238 0.0627895 0)
(-0.229205 0.0579209 0)
(-0.230781 0.0529954 0)
(-0.232009 0.0480176 0)
(-0.232913 0.0430059 0)
(-0.233543 0.037965 0)
(-0.233955 0.0329064 0)
(-0.234156 0.0278362 0)
(-0.234171 0.0227492 0)
(-0.234025 0.017632 0)
(-0.233736 0.0124725 0)
(-0.233322 0.00724941 0)
(-0.232798 0.00193997 0)
(-0.232174 -0.00348366 0)
(-0.23146 -0.009051 0)
(-0.230667 -0.014795 0)
(-0.229806 -0.0207489 0)
(-0.228886 -0.0269489 0)
(-0.227912 -0.0334303 0)
(-0.226882 -0.0402265 0)
(-0.225785 -0.047369 0)
(-0.224605 -0.0548855 0)
(-0.223311 -0.0627823 0)
(-0.221847 -0.0710462 0)
(-0.220128 -0.0796218 0)
(-0.218041 -0.0884043 0)
(-0.215451 -0.0972459 0)
(-0.212162 -0.105951 0)
(-0.207995 -0.114602 0)
(-0.202833 -0.122865 0)
(-0.196202 -0.129948 0)
(-0.187281 -0.13488 0)
(-0.175526 -0.136754 0)
(-0.161758 -0.136028 0)
(-0.145958 -0.131972 0)
(-0.128628 -0.12451 0)
(-0.110266 -0.113625 0)
(-0.0914524 -0.0995135 0)
(-0.0731937 -0.082981 0)
(-0.0563804 -0.0650237 0)
(-0.041557 -0.0465111 0)
(-0.0291269 -0.028385 0)
(-0.0193004 -0.0115746 0)
(-0.0120577 0.00312657 0)
(-0.00712461 0.0151229 0)
(-0.00399633 0.0239936 0)
(-0.00220867 0.0288385 0)
(-0.00109973 0.0281593 0)
(-0.000290599 0.0151842 0)
(0.000704491 -0.0175062 0)
(-0.00102508 -0.020025 0)
(-0.0043008 -0.0137694 0)
(-0.00837761 -0.00609178 0)
(-0.0132221 0.00197401 0)
(-0.0188173 0.0101919 0)
(-0.0252477 0.0184569 0)
(-0.0326143 0.0267131 0)
(-0.0409966 0.0349513 0)
(-0.0504394 0.0432058 0)
(-0.06094 0.0515262 0)
(-0.0724497 0.0599383 0)
(-0.0848439 0.0683911 0)
(-0.0978282 0.0766608 0)
(-0.111027 0.0844229 0)
(-0.124022 0.0913087 0)
(-0.136376 0.0969464 0)
(-0.147817 0.101142 0)
(-0.158224 0.103873 0)
(-0.167561 0.105206 0)
(-0.175896 0.105307 0)
(-0.183317 0.104356 0)
(-0.189902 0.102514 0)
(-0.195725 0.0999289 0)
(-0.200841 0.0967225 0)
(-0.205302 0.0930056 0)
(-0.20915 0.0888694 0)
(-0.212429 0.0843991 0)
(-0.215181 0.0796673 0)
(-0.21745 0.0747385 0)
(-0.219279 0.0696671 0)
(-0.220709 0.0644982 0)
(-0.221786 0.0592669 0)
(-0.222546 0.0540027 0)
(-0.223039 0.0487245 0)
(-0.223299 0.0434526 0)
(-0.223364 0.0381947 0)
(-0.223264 0.0329516 0)
(-0.223021 0.0277212 0)
(-0.222657 0.0224965 0)
(-0.22219 0.0172616 0)
(-0.221637 0.0120002 0)
(-0.221011 0.00668974 0)
(-0.220328 0.00130655 0)
(-0.2196 -0.00417676 0)
(-0.218839 -0.00979008 0)
(-0.218061 -0.0155668 0)
(-0.217279 -0.0215413 0)
(-0.216506 -0.02775 0)
(-0.215757 -0.0342299 0)
(-0.21504 -0.041018 0)
(-0.21436 -0.0481514 0)
(-0.21372 -0.0556649 0)
(-0.213111 -0.0635841 0)
(-0.212509 -0.0719237 0)
(-0.211863 -0.0806804 0)
(-0.211097 -0.089825 0)
(-0.210092 -0.0992706 0)
(-0.208678 -0.108839 0)
(-0.206643 -0.118258 0)
(-0.203711 -0.12721 0)
(-0.199573 -0.135675 0)
(-0.194026 -0.143167 0)
(-0.186362 -0.148453 0)
(-0.175342 -0.150069 0)
(-0.161607 -0.14814 0)
(-0.145389 -0.142332 0)
(-0.12729 -0.13253 0)
(-0.107913 -0.118789 0)
(-0.088097 -0.101573 0)
(-0.0690352 -0.0819755 0)
(-0.0517671 -0.0613028 0)
(-0.0368934 -0.0406173 0)
(-0.0247998 -0.0210819 0)
(-0.0156182 -0.0037455 0)
(-0.00919589 0.010537 0)
(-0.00503181 0.0211356 0)
(-0.00260968 0.0270173 0)
(-0.00104994 0.0269888 0)
(-9.87452e-05 0.0144869 0)
(0.000201149 -0.0168509 0)
(-0.00287969 -0.0168988 0)
(-0.00726921 -0.00947416 0)
(-0.012383 -0.00105427 0)
(-0.0182431 0.00772139 0)
(-0.0248306 0.0167243 0)
(-0.0322389 0.025872 0)
(-0.0405589 0.0350923 0)
(-0.0498431 0.0443421 0)
(-0.0600948 0.0536102 0)
(-0.0712732 0.0628923 0)
(-0.0832755 0.0721488 0)
(-0.0958449 0.0811694 0)
(-0.108616 0.0896341 0)
(-0.12119 0.097174 0)
(-0.133184 0.103438 0)
(-0.144298 0.108188 0)
(-0.154381 0.111364 0)
(-0.163409 0.11304 0)
(-0.171416 0.113372 0)
(-0.178496 0.112554 0)
(-0.18472 0.110761 0)
(-0.190155 0.108146 0)
(-0.194856 0.104842 0)
(-0.198872 0.100966 0)
(-0.202251 0.0966239 0)
(-0.205041 0.0919077 0)
(-0.207294 0.0869034 0)
(-0.209062 0.0816851 0)
(-0.210399 0.076318 0)
(-0.211358 0.0708562 0)
(-0.21199 0.0653435 0)
(-0.212345 0.0598138 0)
(-0.212467 0.0542948 0)
(-0.212397 0.048805 0)
(-0.212168 0.0433571 0)
(-0.211809 0.0379525 0)
(-0.211343 0.0325879 0)
(-0.210789 0.0272569 0)
(-0.210164 0.0219477 0)
(-0.209481 0.0166438 0)
(-0.208754 0.0113269 0)
(-0.207993 0.0059745 0)
(-0.207211 0.00056242 0)
(-0.20642 -0.00493611 0)
(-0.205632 -0.0105508 0)
(-0.204861 -0.0163138 0)
(-0.204123 -0.0222594 0)
(-0.203435 -0.0284236 0)
(-0.202813 -0.0348441 0)
(-0.202275 -0.0415597 0)
(-0.201837 -0.0486102 0)
(-0.201511 -0.0560341 0)
(-0.201306 -0.0638652 0)
(-0.20122 -0.0721302 0)
(-0.201234 -0.0808455 0)
(-0.201312 -0.090012 0)
(-0.201383 -0.0996026 0)
(-0.20133 -0.109546 0)
(-0.200977 -0.119703 0)
(-0.200072 -0.12979 0)
(-0.198299 -0.139371 0)
(-0.195242 -0.147957 0)
(-0.190525 -0.155488 0)
(-0.183625 -0.160818 0)
(-0.173342 -0.16216 0)
(-0.159538 -0.158957 0)
(-0.142815 -0.151219 0)
(-0.123766 -0.138729 0)
(-0.103291 -0.121853 0)
(-0.0824603 -0.101316 0)
(-0.0627154 -0.0785969 0)
(-0.0452181 -0.0553342 0)
(-0.0305888 -0.0328489 0)
(-0.0191574 -0.0125 0)
(-0.0109196 0.00453956 0)
(-0.00548698 0.0173567 0)
(-0.00234982 0.0247578 0)
(-0.000576799 0.0257145 0)
(0.000159641 0.0140704 0)
(-0.000321719 -0.0150245 0)
(-0.00471191 -0.0125299 0)
(-0.0101272 -0.00409865 0)
(-0.0162125 0.00498471 0)
(-0.0230183 0.0144315 0)
(-0.0305151 0.024195 0)
(-0.0387944 0.0341932 0)
(-0.0479293 0.0443219 0)
(-0.0579389 0.0544919 0)
(-0.0687893 0.0646389 0)
(-0.0803958 0.074708 0)
(-0.0925417 0.0845009 0)
(-0.104895 0.0937147 0)
(-0.117084 0.101982 0)
(-0.128753 0.108959 0)
(-0.139605 0.114383 0)
(-0.149437 0.118123 0)
(-0.158211 0.120249 0)
(-0.165959 0.12091 0)
(-0.172749 0.120302 0)
(-0.178661 0.11862 0)
(-0.183752 0.116024 0)
(-0.18808 0.11266 0)
(-0.191696 0.108657 0)
(-0.194651 0.104132 0)
(-0.197004 0.0991923 0)
(-0.198814 0.093934 0)
(-0.200145 0.0884453 0)
(-0.20106 0.0828013 0)
(-0.201621 0.0770659 0)
(-0.201884 0.0712906 0)
(-0.201904 0.0655156 0)
(-0.201727 0.0597709 0)
(-0.201393 0.0540777 0)
(-0.200935 0.0484479 0)
(-0.20038 0.0428866 0)
(-0.199749 0.0373916 0)
(-0.19906 0.0319554 0)
(-0.198324 0.0265676 0)
(-0.197553 0.021214 0)
(-0.196757 0.015877 0)
(-0.195943 0.0105371 0)
(-0.19512 0.00517201 0)
(-0.194297 -0.000241973 0)
(-0.193482 -0.00573069 0)
(-0.192687 -0.0113226 0)
(-0.191926 -0.0170479 0)
(-0.191213 -0.0229389 0)
(-0.190567 -0.0290302 0)
(-0.190008 -0.0353583 0)
(-0.189556 -0.0419618 0)
(-0.189234 -0.0488813 0)
(-0.189065 -0.0561577 0)
(-0.189066 -0.0638308 0)
(-0.189252 -0.0719371 0)
(-0.189625 -0.0805064 0)
(-0.190175 -0.0895565 0)
(-0.190866 -0.0990857 0)
(-0.191634 -0.109065 0)
(-0.192367 -0.119423 0)
(-0.192885 -0.130027 0)
(-0.192924 -0.140637 0)
(-0.192118 -0.15081 0)
(-0.19001 -0.159888 0)
(-0.186009 -0.167182 0)
(-0.1796 -0.172316 0)
(-0.169622 -0.172998 0)
(-0.155645 -0.16847 0)
(-0.1382 -0.158428 0)
(-0.118065 -0.142906 0)
(-0.096441 -0.122568 0)
(-0.0746913 -0.0985003 0)
(-0.054511 -0.0726786 0)
(-0.0371638 -0.0471309 0)
(-0.0232294 -0.0234338 0)
(-0.0128917 -0.00314974 0)
(-0.00592859 0.0124734 0)
(-0.0019175 0.0220491 0)
(6.90214e-05 0.0245263 0)
(0.000422481 0.0141342 0)
(-0.000854385 -0.0121106 0)
(-0.00643859 -0.00703389 0)
(-0.012781 0.00227424 0)
(-0.0197531 0.0119461 0)
(-0.0274147 0.0220161 0)
(-0.0357134 0.0324955 0)
(-0.0447336 0.0432853 0)
(-0.0545255 0.0542352 0)
(-0.0650737 0.0652007 0)
(-0.0763078 0.0760709 0)
(-0.0880431 0.0866398 0)
(-0.099999 0.0966339 0)
(-0.111841 0.105692 0)
(-0.123227 0.113463 0)
(-0.133866 0.119662 0)
(-0.143524 0.124099 0)
(-0.152118 0.12679 0)
(-0.159671 0.127888 0)
(-0.166241 0.127584 0)
(-0.171899 0.126083 0)
(-0.176711 0.123567 0)
(-0.180727 0.120193 0)
(-0.184006 0.116103 0)
(-0.186606 0.11143 0)
(-0.188592 0.106295 0)
(-0.190034 0.10081 0)
(-0.191005 0.0950746 0)
(-0.191577 0.0891765 0)
(-0.191818 0.0831885 0)
(-0.191791 0.0771697 0)
(-0.191552 0.0711657 0)
(-0.191148 0.0652099 0)
(-0.19062 0.059325 0)
(-0.19 0.0535243 0)
(-0.189314 0.0478132 0)
(-0.188579 0.0421905 0)
(-0.18781 0.0366492 0)
(-0.187017 0.0311792 0)
(-0.186207 0.0257675 0)
(-0.185387 0.020397 0)
(-0.18456 0.015049 0)
(-0.18373 0.00970462 0)
(-0.182902 0.00434186 0)
(-0.182081 -0.00106215 0)
(-0.181274 -0.00653166 0)
(-0.18049 -0.0120929 0)
(-0.179742 -0.0177734 0)
(-0.179043 -0.023603 0)
(-0.178412 -0.0296132 0)
(-0.177869 -0.0358381 0)
(-0.177439 -0.0423144 0)
(-0.177148 -0.0490813 0)
(-0.177024 -0.0561803 0)
(-0.177093 -0.0636539 0)
(-0.177381 -0.071545 0)
(-0.177906 -0.079894 0)
(-0.178676 -0.0887346 0)
(-0.179681 -0.0980878 0)
(-0.180889 -0.107954 0)
(-0.182231 -0.118299 0)
(-0.183592 -0.129041 0)
(-0.184789 -0.140035 0)
(-0.185552 -0.151032 0)
(-0.185485 -0.161618 0)
(-0.184054 -0.171071 0)
(-0.180603 -0.178434 0)
(-0.174409 -0.183042 0)
(-0.164368 -0.182778 0)
(-0.149945 -0.176519 0)
(-0.131546 -0.163741 0)
(-0.110217 -0.144753 0)
(-0.0874715 -0.120574 0)
(-0.0650323 -0.0928068 0)
(-0.0448654 -0.0640708 0)
(-0.028241 -0.0367648 0)
(-0.0155828 -0.0127536 0)
(-0.006864 0.00628109 0)
(-0.00176873 0.0187468 0)
(0.000581277 0.023392 0)
(0.000612304 0.0145805 0)
(-0.00136518 -0.00816278 0)
(-0.00799999 -0.000523072 0)
(-0.0151613 0.00954498 0)
(-0.0229209 0.0197312 0)
(-0.0313263 0.030366 0)
(-0.0403009 0.0414993 0)
(-0.0499177 0.0529976 0)
(-0.0601994 0.0646542 0)
(-0.0710965 0.0762758 0)
(-0.0824495 0.0876057 0)
(-0.0940365 0.0983859 0)
(-0.105569 0.10828 0)
(-0.116713 0.116911 0)
(-0.127186 0.123976 0)
(-0.136735 0.129231 0)
(-0.145229 0.132622 0)
(-0.152663 0.134271 0)
(-0.159089 0.134376 0)
(-0.164571 0.133147 0)
(-0.169173 0.130783 0)
(-0.172955 0.12746 0)
(-0.175974 0.123335 0)
(-0.178297 0.118557 0)
(-0.179997 0.113264 0)
(-0.181152 0.107584 0)
(-0.181844 0.10163 0)
(-0.182152 0.0955019 0)
(-0.18215 0.0892825 0)
(-0.181905 0.0830385 0)
(-0.181476 0.0768211 0)
(-0.180912 0.0706674 0)
(-0.180254 0.0646021 0)
(-0.179531 0.0586397 0)
(-0.178769 0.0527859 0)
(-0.177983 0.0470398 0)
(-0.177185 0.0413948 0)
(-0.176382 0.0358402 0)
(-0.175579 0.0303624 0)
(-0.174776 0.024946 0)
(-0.173976 0.0195746 0)
(-0.173178 0.0142275 0)
(-0.172382 0.00888523 0)
(-0.171589 0.00352876 0)
(-0.170802 -0.00186423 0)
(-0.170026 -0.00731594 0)
(-0.169267 -0.0128497 0)
(-0.168536 -0.0184903 0)
(-0.167846 -0.0242638 0)
(-0.167215 -0.0301986 0)
(-0.166661 -0.036325 0)
(-0.166212 -0.0426765 0)
(-0.165894 -0.0492895 0)
(-0.165739 -0.0562038 0)
(-0.16578 -0.0634626 0)
(-0.166049 -0.0711113 0)
(-0.166577 -0.0791968 0)
(-0.167387 -0.0877645 0)
(-0.16849 -0.0968537 0)
(-0.169878 -0.106491 0)
(-0.171516 -0.116681 0)