/*--------------------------------*- C++ -*----------------------------------*\
  =========                 |
  \\      /  F ield         | OpenFOAM: The Open Source CFD Toolbox
   \\    /   O peration     | Website:  https://openfoam.org
    \\  /    A nd           | Version:  13
     \\/     M anipulation  |
\*---------------------------------------------------------------------------*/
FoamFile
{
    format      ascii;
    class       volScalarField;
    location    "7.2";
    object      epsilon;
}
// * * * * * * * * * * * * * * * * * * * * * * * * * * * * * * * * * * * * * //

dimensions      [0 2 -3 0 0 0 0];

internalField   nonuniform List<scalar> 
6400
(
2.7751e-05
0.000142559
0.000346216
0.000557958
0.000717823
0.000807693
0.000840367
0.00084343
0.000848155
0.000878753
0.000953624
0.00110101
0.00133444
0.00165901
0.00205807
0.0025096
0.00299076
0.00349172
0.00398985
0.00447207
0.00495563
0.00548154
0.00610503
0.00686095
0.00772065
0.00859368
0.00945955
0.0103181
0.0111954
0.0121158
0.0130683
0.0140191
0.0149531
0.0158714
0.0167993
0.0177414
0.0187185
0.0197363
0.0208081
0.0219373
0.0231322
0.0244018
0.0257537
0.0272049
0.0287648
0.0304851
0.032461
0.0348988
0.03741
0.0399517
0.0424546
0.0448876
0.047179
0.0492634
0.0510656
0.0524945
0.0532506
0.053553
0.053522
0.0525459
0.0507862
0.0482362
0.0449277
0.0409767
0.036485
0.0316643
0.0267485
0.0219407
0.0174186
0.0133774
0.0100988
0.00734693
0.00512376
0.00342237
0.00219795
0.00136418
0.000820643
0.000470738
0.000222353
4.73343e-05
0.000134241
0.000134095
0.000219306
0.000317929
0.000392048
0.000437013
0.0004592
0.000469271
0.000480543
0.000506324
0.000560795
0.000663913
0.000831942
0.00107751
0.00140444
0.00181396
0.00230807
0.00289328
0.0035754
0.00436377
0.00526625
0.00631984
0.00757542
0.00905874
0.0107607
0.012703
0.0147166
0.0166603
0.0184289
0.01993
0.0210675
0.0219469
0.0225434
0.0229532
0.0232129
0.0233811
0.0234983
0.0235985
0.0237049
0.0238373
0.0240183
0.0242534
0.0245482
0.0248699
0.0252473
0.0257104
0.026255
0.0268761
0.0275761
0.0283106
0.0290862
0.0298551
0.030602
0.0312772
0.0318404
0.0321631
0.0322729
0.0321748
0.0317912
0.0310034
0.029844
0.0282873
0.0263276
0.0240426
0.0215142
0.0188442
0.0161475
0.0135434
0.0111207
0.00896897
0.00715146
0.00559313
0.00425772
0.00312362
0.00218775
0.00143371
0.000874556
0.000490996
0.000255031
0.00025039
0.000293554
0.000243908
0.000326091
0.000409909
0.000460409
0.000485881
0.000499705
0.000515502
0.000547969
0.000614797
0.000739616
0.000950419
0.00127436
0.00173127
0.00233359
0.00309372
0.00402408
0.00513907
0.00644862
0.00795909
0.00967597
0.0115663
0.0135448
0.0154613
0.0171347
0.0183316
0.019051
0.0194469
0.0196436
0.0197843
0.0198638
0.0197927
0.0194827
0.019197
0.0188931
0.0186297
0.0184155
0.0182867
0.0182339
0.0182287
0.0183406
0.018528
0.0188128
0.0192206
0.0197375
0.0203437
0.0210318
0.0217967
0.0226355
0.0235314
0.0244757
0.0254444
0.0264158
0.0273543
0.0282209
0.0289662
0.0295239
0.0297815
0.0298214
0.029493
0.0287253
0.0275074
0.0258095
0.0237451
0.0213917
0.0188466
0.016239
0.0136837
0.0112873
0.00913234
0.00727105
0.00570466
0.00440958
0.00334624
0.00247704
0.00177875
0.00120861
0.000756291
0.000468735
0.000669582
0.000509516
0.000420834
0.00051452
0.000595016
0.000636456
0.000657595
0.000678554
0.000719809
0.00080397
0.000961966
0.00123301
0.00165918
0.00227561
0.00310401
0.00415459
0.00543166
0.00693493
0.00864414
0.0105055
0.0124259
0.014272
0.0158997
0.0171575
0.0178386
0.018125
0.0181947
0.0181454
0.0178004
0.0172579
0.0166688
0.0160135
0.0155019
0.0151134
0.0147802
0.0145301
0.0143757
0.0143076
0.014294
0.01438
0.0145467
0.0148013
0.0151351
0.0155547
0.0160584
0.0166435
0.0173096
0.0180578
0.0188868
0.0197956
0.0207785
0.0218285
0.0229322
0.0240711
0.0252172
0.0263343
0.0273741
0.0282775
0.0289608
0.0292871
0.0293536
0.0289735
0.0281603
0.0269207
0.0250615
0.0227941
0.0202138
0.0174682
0.0147079
0.0120786
0.00969778
0.00764221
0.00593768
0.00456654
0.00348259
0.00263091
0.00196174
0.00142229
0.000982831
0.000702658
0.00111429
0.000816907
0.000666655
0.000759658
0.000837712
0.000881502
0.000915535
0.000966992
0.00106666
0.00125251
0.00157287
0.00208233
0.00282947
0.00384309
0.00512739
0.0066657
0.00842102
0.0103271
0.012274
0.0141026
0.0156458
0.016685
0.0171512
0.0172858
0.0172374
0.0168257
0.0161099
0.0152474
0.0144452
0.0137911
0.0131888
0.0126871
0.0122996
0.011997
0.0117706
0.0116302
0.0115651
0.0115467
0.0115874
0.0117055
0.011877
0.0121116
0.0124048
0.0127611
0.0131812
0.0136692
0.0142288
0.0148652
0.0155828
0.0163866
0.0172802
0.0182649
0.0193384
0.0204936
0.0217167
0.0229866
0.0242683
0.0255083
0.0266451
0.0276008
0.0281921
0.0284116
0.0282306
0.027477
0.0262876
0.0243437
0.021888
0.0190888
0.0161281
0.0131999
0.0104868
0.00812593
0.00618542
0.00466256
0.00350357
0.00262946
0.00197069
0.00146681
0.00107773
0.000857035
0.0014209
0.00125568
0.000989706
0.00106621
0.00114623
0.00120694
0.00127531
0.00138791
0.00159015
0.00193821
0.0024965
0.00332519
0.004461
0.00590297
0.00761016
0.00950477
0.0114708
0.0133523
0.0149667
0.0160587
0.0165341
0.0166479
0.0165155
0.0159762
0.0150151
0.0140216
0.0131342
0.012331
0.0116529
0.0110857
0.0106043
0.0102183
0.00991075
0.00966864
0.00948552
0.00935567
0.00927706
0.00924167
0.00923372
0.00927317
0.00935007
0.00946556
0.00962132
0.00981837
0.0100613
0.0103544
0.0107048
0.0111203
0.0116113
0.0121888
0.0128658
0.013655
0.0145677
0.0156131
0.0167942
0.0181051
0.0195334
0.0210469
0.022597
0.0241207
0.0255115
0.026652
0.0272312
0.0273902
0.0269084
0.0259093
0.0238875
0.0212549
0.0181977
0.0149587
0.0118081
0.008987
0.00665141
0.00484781
0.00352942
0.00258744
0.00191967
0.00143379
0.00107592
0.000918539
0.00153268
0.00186482
0.00139626
0.001446
0.0015383
0.00163419
0.00176269
0.00197304
0.0023276
0.00289792
0.00375306
0.0049382
0.00645266
0.00823925
0.0101864
0.0121357
0.0138932
0.0152502
0.015916
0.0161127
0.016049
0.0155145
0.0144882
0.0133715
0.0123639
0.0114486
0.0106698
0.00999816
0.00943622
0.00896061
0.00856076
0.00822825
0.0079494
0.00771683
0.00752426
0.00736687
0.00724086
0.00714245
0.00707013
0.00703118
0.00701519
0.00701368
0.00704812
0.00710738
0.00720056
0.00732723
0.00749485
0.00770881
0.00797846
0.00831492
0.00873359
0.00925344
0.00989746
0.0106907
0.0116576
0.0128137
0.0141877
0.0157812
0.0175642
0.0194843
0.0214872
0.0234476
0.0252116
0.0264465
0.0269599
0.0269702
0.0260828
0.0240004
0.0211126
0.017677
0.0140433
0.0105938
0.00763856
0.00533861
0.003694
0.00259056
0.00184864
0.00135849
0.0010385
0.00091089
0.00148821
0.00268057
0.00189109
0.00191252
0.00203113
0.00218384
0.00240094
0.0027465
0.0032972
0.00412908
0.00529588
0.00680286
0.00858868
0.0105233
0.0124213
0.0140671
0.0151467
0.0155861
0.0156596
0.0153014
0.0143949
0.0131871
0.012048
0.0110053
0.0101081
0.00933076
0.00867269
0.00810745
0.00762639
0.00721186
0.00685593
0.00654887
0.00628298
0.00605341
0.00585589
0.00568744
0.00554523
0.00542656
0.00533046
0.0052563
0.00520164
0.00517324
0.00516286
0.0051663
0.0052032
0.0052611
0.00534871
0.00546757
0.00562391
0.00582295
0.00607209
0.00638205
0.00676729
0.00724877
0.00785881
0.00864766
0.00965442
0.0109443
0.0125568
0.0144763
0.0167095
0.0191561
0.0216925
0.0241312
0.0261772
0.0272297
0.027555
0.0268955
0.0246832
0.0214126
0.0174492
0.0133067
0.00950794
0.00642579
0.0041957
0.0027417
0.00185185
0.00129636
0.000975074
0.000875627
0.00138333
0.00372857
0.00247771
0.00247518
0.00264139
0.00287085
0.00320269
0.00371268
0.00448277
0.00557611
0.00700859
0.00872527
0.0105927
0.0124119
0.0139491
0.0148339
0.0151357
0.0151427
0.0145381
0.0133964
0.0121367
0.0109569
0.00991909
0.00901789
0.00825183
0.00759369
0.00703086
0.00654417
0.0061246
0.00576064
0.00544628
0.00517458
0.00494105
0.00474181
0.00457317
0.00443213
0.00431622
0.00422342
0.00415191
0.00409997
0.00406947
0.00405633
0.00405374
0.00407197
0.00410902
0.00416391
0.00423892
0.00433508
0.00445513
0.00460194
0.0047798
0.00499421
0.00525278
0.00556576
0.00594705
0.00641802
0.00700911
0.00776988
0.00878452
0.0101973
0.012069
0.0144332
0.0172331
0.0203109
0.0234502
0.0262718
0.0279892
0.028635
0.0282113
0.0257792
0.0219672
0.0173306
0.0126056
0.00846203
0.00531031
0.00321625
0.00198256
0.00129995
0.000926535
0.000819485
0.00126541
0.00501912
0.00316363
0.00314686
0.00337477
0.00369908
0.00416348
0.004849
0.00582925
0.00713553
0.00872838
0.0104845
0.0122063
0.013654
0.0144481
0.014704
0.0145835
0.0138162
0.0125636
0.0112899
0.0100856
0.00903883
0.00814176
0.00737538
0.00672234
0.0061609
0.00567907
0.00526432
0.00490952
0.00460686
0.00435118
0.00413684
0.00395951
0.00381476
0.00369878
0.00360801
0.00353929
0.00348993
0.00345915
0.00344486
0.00344083
0.00344929
0.00347253
0.00350829
0.00355704
0.00361882
0.00369454
0.00378534
0.00389272
0.00401864
0.00416562
0.00433692
0.00453689
0.00477139
0.00504863
0.00537749
0.0057728
0.00625809
0.00687163
0.00767636
0.00877754
0.0103828
0.0126843
0.0156818
0.0192464
0.0230741
0.0267494
0.0291546
0.0301013
0.0298499
0.0270759
0.022532
0.0171112
0.0117908
0.00737725
0.00426601
0.00238818
0.00139886
0.000926828
0.000771629
0.00116977
0.00657263
0.00396388
0.00393245
0.00423007
0.00465891
0.00525881
0.00610594
0.00725054
0.00867744
0.0102852
0.0118908
0.0132593
0.0140143
0.0142573
0.0140662
0.0132057
0.0119297
0.010612
0.00940109
0.00833793
0.00743823
0.0066729
0.00602221
0.00546824
0.00499618
0.00459667
0.00426072
0.00398163
0.00375226
0.00356662
0.0034185
0.00330253
0.00321358
0.00314728
0.00309988
0.00306876
0.00305347
0.00304799
0.00304932
0.00306445
0.00308777
0.00312165
0.00316502
0.00321902
0.00328411
0.00336147
0.00345236
0.00355814
0.00368038
0.00382076
0.00398116
0.00416366
0.00437074
0.0046056
0.00487292
0.00518
0.00553872
0.00596901
0.00649865
0.00717707
0.00809715
0.0094216
0.0114761
0.0145304
0.0184625
0.0229841
0.0275604
0.0306471
0.0318558
0.0316277
0.0282995
0.0228491
0.0165818
0.0107319
0.0062104
0.00328816
0.00170927
0.000989826
0.000760518
0.00114022
0.00846685
0.00490499
0.0048284
0.00519444
0.00572589
0.00644593
0.00741438
0.00864632
0.010074
0.0115409
0.0128272
0.0135668
0.0138102
0.0135992
0.0127034
0.0114515
0.0101072
0.00887037
0.00779546
0.00688302
0.00611678
0.00546874
0.00492297
0.00446493
0.00408394
0.00377117
0.00351784
0.00331593
0.00315738
0.00303493
0.00294182
0.00287234
0.00282162
0.00278584
0.00276209
0.00275024
0.00274567
0.00274531
0.00275498
0.00277198
0.00279643
0.00282932
0.00287108
0.0029229
0.00298578
0.00306111
0.00315035
0.00325505
0.00337692
0.00351768
0.00367911
0.0038629
0.0040706
0.00430355
0.00456303
0.00485061
0.00516923
0.00552526
0.00593247
0.00641776
0.00702839
0.00783715
0.00899878
0.010792
0.0137665
0.0180007
0.0231974
0.028703
0.0324095
0.033806
0.0333826
0.0291629
0.0226548
0.0155344
0.00935028
0.00496354
0.002405
0.00119928
0.000797055
0.00118516
0.0105738
0.005948
0.00581423
0.00624322
0.00686334
0.00767037
0.00869832
0.00992163
0.0112244
0.0124131
0.0131414
0.0133877
0.0131915
0.012329
0.0111058
0.00975707
0.0084869
0.00738804
0.00646061
0.00568553
0.00503909
0.00450002
0.0040553
0.00369237
0.00340087
0.00317056
0.00299137
0.00285391
0.00274955
0.00267094
0.00261188
0.00256759
0.00253442
0.00250981
0.00249213
0.00248081
0.00247537
0.00247376
0.00247834
0.00249005
0.0025088
0.00253563
0.00257148
0.00261755
0.00267506
0.00274547
0.00283034
0.00293142
0.00305061
0.00318994
0.00335156
0.00353758
0.00374996
0.00399028
0.00425951
0.00455782
0.00488461
0.00523913
0.00562231
0.00604079
0.00651444
0.00708862
0.00783982
0.00890629
0.0105751
0.0134083
0.0178996
0.0237663
0.0302178
0.0343788
0.0358209
0.0348716
0.0293888
0.0216385
0.0138275
0.00765043
0.00369504
0.00168021
0.000935163
0.00136745
0.0128325
0.00706907
0.00686469
0.00734377
0.00802729
0.00887394
0.00988693
0.0110022
0.0120686
0.0127741
0.0130187
0.0128692
0.0120778
0.0108911
0.00954477
0.0082434
0.00710639
0.00615464
0.00536494
0.00471335
0.00417799
0.00374233
0.00339356
0.00311868
0.00290577
0.00274301
0.00261958
0.00252604
0.00245452
0.00239885
0.00235442
0.00231804
0.00228761
0.00226198
0.00224062
0.00222352
0.00221083
0.0022045
0.00220248
0.00220603
0.00221824
0.00223836
0.00226769
0.00230732
0.00235842
0.00242241
0.00250084
0.00259552
0.0027085
0.00284209
0.00299885
0.0031815
0.00339282
0.00363541
0.00391134
0.00422176
0.00456634
0.00494301
0.00534806
0.00577764
0.00623159
0.00672182
0.00728753
0.00801509
0.00903572
0.0106472
0.013447
0.018209
0.0247888
0.0321778
0.0364506
0.0377123
0.0357047
0.0285579
0.0195607
0.0114597
0.00574148
0.0025743
0.00126514
0.00179815
0.0151693
0.00823952
0.00794923
0.00845829
0.00917077
0.0100012
0.0109214
0.0118361
0.012491
0.0127263
0.0126377
0.0119334
0.0108043
0.00946505
0.00813234
0.00694715
0.00595601
0.00514254
0.00447786
0.00393912
0.00350703
0.00316615
0.00290204
0.00270033
0.0025478
0.00243237
0.00234393
0.00227437
0.00221764
0.00216947
0.00212712
0.00208901
0.00205439
0.00202315
0.0019955
0.00197193
0.00195301
0.00193985
0.00193356
0.00193182
0.00193757
0.00195267
0.00197634
0.00201013
0.00205489
0.00211195
0.00218277
0.00226909
0.00237301
0.00249696
0.00264377
0.00281665
0.00301914
0.00325494
0.00352763
0.00384017
0.00419431
0.0045897
0.00502314
0.00548833
0.00597689
0.00648232
0.0070091
0.00759061
0.00831766
0.00933307
0.0109537
0.0138547
0.019017
0.0264389
0.0345708
0.0384905
0.039323
0.0354515
0.0262715
0.0164048
0.00863396
0.00394714
0.0018507
0.00247583
0.0175115
0.00942827
0.00903453
0.0095474
0.0102486
0.0110041
0.0117555
0.0123308
0.0125517
0.0124897
0.0118929
0.0108357
0.00951684
0.00815206
0.00690939
0.00586262
0.00501063
0.00432283
0.00377153
0.00333532
0.00299555
0.00273559
0.00253929
0.00239162
0.00227955
0.00219226
0.00212152
0.00206139
0.00200797
0.00195893
0.0019131
0.00187011
0.00183011
0.00179351
0.00176087
0.00173279
0.00170985
0.00169262
0.00168306
0.00167941
0.00168026
0.00169191
0.00171124
0.0017401
0.00177907
0.00182935
0.00189223
0.00196935
0.00206269
0.00217466
0.00230815
0.0024666
0.002654
0.00287485
0.00313401
0.00343632
0.00378604
0.0041859
0.00463587
0.00513189
0.00566498
0.00622197
0.00678959
0.00736487
0.0079775
0.00872712
0.00977013
0.0114678
0.0146235
0.0204188
0.028959
0.0371939
0.0404614
0.0405025
0.0334221
0.0224413
0.01245
0.00584702
0.00269039
0.00334181
0.0198201
0.0106048
0.0100874
0.0105733
0.0112213
0.0118462
0.012335
0.0125351
0.0124494
0.0119633
0.0109802
0.00969635
0.00830566
0.00699666
0.00587726
0.004968
0.00424272
0.00366811
0.00321835
0.00287205
0.00260969
0.00241325
0.00226604
0.00215379
0.00206511
0.00199145
0.00192698
0.00186804
0.00181264
0.00175992
0.00170981
0.00166262
0.00161889
0.00157919
0.00154408
0.00151406
0.00148956
0.00147094
0.00145962
0.00145475
0.00145401
0.00146267
0.00147894
0.0015037
0.00153762
0.00158165
0.00163695
0.00170498
0.00178754
0.00188689
0.00200579
0.00214763
0.00231651
0.00251728
0.00275557
0.00303759
0.00336974
0.00375788
0.00420611
0.00471501
0.00527973
0.00588834
0.00652216
0.00716019
0.00779167
0.00844498
0.00923589
0.0103374
0.0121937
0.0157777
0.0224113
0.0323175
0.0401984
0.0425903
0.040068
0.0294043
0.017306
0.00835202
0.00380986
0.00434185
0.0220389
0.011738
0.0110754
0.0115029
0.0120589
0.0124805
0.0126489
0.0125463
0.012141
0.0112398
0.0100004
0.00859578
0.00721744
0.00600797
0.00501956
0.00423767
0.00362588
0.00315178
0.00279013
0.00251858
0.00231664
0.00216596
0.00205086
0.00195905
0.00188161
0.0018126
0.00174848
0.00168747
0.00162896
0.00157304
0.00152017
0.00147092
0.00142586
0.00138549
0.00135021
0.00132032
0.00129606
0.00127762
0.00126591
0.00126062
0.00125944
0.00126597
0.00127992
0.00130132
0.00133088
0.00136937
0.00141781
0.00147747
0.00154996
0.00163727
0.00174195
0.00186713
0.00201675
0.00219561
0.00240954
0.00266541
0.00297101
0.0033346
0.00376398
0.00426489
0.00483868
0.00547944
0.00617155
0.00688958
0.00760363
0.00829556
0.00899809
0.0098432
0.0110447
0.013193
0.0175174
0.0253122
0.0366079
0.0429266
0.0440139
0.0367965
0.023312
0.0116179
0.00525815
0.00542888
0.0240853
0.0127986
0.011972
0.0123129
0.0127281
0.0129044
0.0128273
0.0124169
0.0116125
0.0104297
0.00902391
0.00758147
0.00626852
0.00517653
0.00431403
0.00364663
0.00313505
0.00274793
0.0024595
0.00224655
0.00208852
0.00196814
0.00187192
0.00179023
0.00171681
0.00164806
0.00158229
0.001519
0.00145843
0.00140109
0.00134757
0.00129843
0.00125409
0.00121486
0.00118094
0.00115244
0.00112944
0.00111197
0.00110065
0.00109542
0.0010941
0.0010992
0.00111126
0.00112985
0.00115567
0.00118937
0.0012318
0.00128408
0.0013476
0.00142411
0.00151586
0.00162566
0.00175709
0.00191463
0.0021039
0.00233181
0.00260668
0.00293812
0.00333657
0.00381215
0.00437255
0.00501982
0.00574632
0.00653112
0.00733967
0.00813138
0.00888341
0.00964206
0.010552
0.011926
0.0145861
0.0201205
0.0297769
0.0410288
0.0453523
0.0434944
0.030384
0.0158206
0.00708132
0.00656646
0.0258855
0.0137593
0.0127556
0.012983
0.0132016
0.0131866
0.0128099
0.0121052
0.0109821
0.00959235
0.00809702
0.00667584
0.00545705
0.00448502
0.00373786
0.00317157
0.00274674
0.00243235
0.00220197
0.00203236
0.00190414
0.00180222
0.00171588
0.00163824
0.0015654
0.0014956
0.00142839
0.00136404
0.00130312
0.00124623
0.00119387
0.00114644
0.00110414
0.00106709
0.00103531
0.00100878
0.000987437
0.00097124
0.000960576
0.000955578
0.000954217
0.000958267
0.000968705
0.000984913
0.00100753
0.0010371
0.00107436
0.00112028
0.00117605
0.0012432
0.00132367
0.00141994
0.00153516
0.00167336
0.00183968
0.00204065
0.00228443
0.00258105
0.00294228
0.00338117
0.00391053
0.00454023
0.00527273
0.00609741
0.00698543
0.0078893
0.00875506
0.00955868
0.0103764
0.0113758
0.0130301
0.0164969
0.0237042
0.0358941
0.0452694
0.0471725
0.0380718
0.0211207
0.00932488
0.00775642
0.0273983
0.0145995
0.0134063
0.0134873
0.0135525
0.0133133
0.0126859
0.0116544
0.0102988
0.00877048
0.00724619
0.00588452
0.00477187
0.00391396
0.00326971
0.00279122
0.00243962
0.00218384
0.00199741
0.00185819
0.00174895
0.00165739
0.00157557
0.00149906
0.00142582
0.00135532
0.00128782
0.00122392
0.00116422
0.00110921
0.00105921
0.00101439
0.000974788
0.000940345
0.000910959
0.000886504
0.00086686
0.000851926
0.000841924
0.000837161
0.000835779
0.000838955
0.000847968
0.000862125
0.000881977
0.000908
0.000940843
0.000981329
0.0010305
0.00108968
0.00116053
0.00124521
0.00134645
0.00146779
0.00161381
0.00179042
0.00200522
0.0022679
0.00259052
0.00298749
0.00347495
0.0040689
0.00478144
0.00561468
0.0065528
0.00755497
0.00855581
0.00948622
0.0103305
0.0111994
0.0123434
0.0145025
0.0193909
0.0290516
0.0426543
0.0483937
0.0453133
0.0276054
0.0120583
0.00898101
0.028602
0.0153154
0.0139169
0.0138474
0.0137578
0.0132893
0.0124165
0.011134
0.00960144
0.00799246
0.00648345
0.00520316
0.00419798
0.00344445
0.00289036
0.00248672
0.00219524
0.00198504
0.00183054
0.00171163
0.00161381
0.00152762
0.00144764
0.00137135
0.001298
0.00122779
0.00116129
0.00109912
0.00104175
0.000989489
0.000942448
0.000900613
0.000863872
0.000832059
0.00080499
0.000782484
0.000764386
0.000750577
0.00074113
0.000736546
0.000735125
0.000737522
0.000745267
0.000757634
0.000775095
0.000798073
0.000827135
0.000863001
0.000906576
0.000959003
0.00102173
0.00109661
0.00118601
0.001293
0.00142157
0.00157696
0.00176601
0.00199767
0.0022835
0.00263809
0.00307909
0.00362641
0.00429967
0.00511298
0.00606643
0.00713508
0.00825942
0.00934908
0.0103194
0.011176
0.0121137
0.0135365
0.0166453
0.0238123
0.037096
0.0482819
0.0500912
0.0352691
0.0154652
0.0103383
0.0294919
0.0159071
0.0142884
0.0140726
0.013821
0.0131773
0.012053
0.0105753
0.00891806
0.00727483
0.00581112
0.00462227
0.00371971
0.00305929
0.00258295
0.00224188
0.00199845
0.0018226
0.0016905
0.00158465
0.0014934
0.0014099
0.00133077
0.00125485
0.00118218
0.00111329
0.00104882
0.000989226
0.000934815
0.000885679
0.000841765
0.000802916
0.000768921
0.000739548
0.00071457
0.000693785
0.000677023
0.000664164
0.000655149
0.00065067
0.000649187
0.000650875
0.000657484
0.000668283
0.000683667
0.00070402
0.000729842
0.000761767
0.000800588
0.000847306
0.000903179
0.00096981
0.00104925
0.00114414
0.00125796
0.00139526
0.00156208
0.00176646
0.00201905
0.00233378
0.00272845
0.0032248
0.00384731
0.00461954
0.00555677
0.0066539
0.00787062
0.00912044
0.0102825
0.0112636
0.0120857
0.0131602
0.0151418
0.0200254
0.0306386
0.0461109
0.052123
0.0437168
0.0198676
0.0120938
0.0300828
0.0163732
0.0145327
0.0141715
0.0137772
0.0129453
0.0116331
0.0100049
0.00826777
0.00662546
0.00522557
0.00413022
0.00332219
0.0027434
0.00233312
0.00204335
0.00183743
0.00168679
0.00156998
0.00147231
0.00138482
0.00130282
0.00122447
0.00114949
0.00107832
0.00101158
0.000949774
0.000893211
0.000841981
0.000796013
0.000755121
0.00071906
0.000687557
0.000660348
0.00063719
0.000617874
0.000602233
0.000590147
0.000581527
0.000577057
0.000575487
0.000576534
0.000582127
0.000591547
0.000605124
0.000623203
0.000646233
0.000674777
0.00070954
0.000751403
0.000801472
0.000861144
0.0009322
0.00101694
0.00111836
0.00124041
0.00138837
0.00156933
0.00179284
0.00207173
0.00242305
0.00286875
0.00343576
0.00415405
0.00505122
0.00614142
0.00740809
0.00878379
0.0101413
0.0113243
0.0122755
0.0130823
0.0144625
0.01762
0.0255832
0.0412987
0.0525433
0.0515362
0.0255595
0.0144578
0.0303749
0.0167192
0.014662
0.0141567
0.0136461
0.0126405
0.0111796
0.00944235
0.00766239
0.00604623
0.00471996
0.00371514
0.00299211
0.00248389
0.00212897
0.00188053
0.00170333
0.00157084
0.00146429
0.00137174
0.00128654
0.00120572
0.00112847
0.00105504
0.000986013
0.000921925
0.000863117
0.000809704
0.000761616
0.000718653
0.000680541
0.000646981
0.000617673
0.00059234
0.00057074
0.000552669
0.000537966
0.000526515
0.000518237
0.000513723
0.000512056
0.00051254
0.000517223
0.000525431
0.000537428
0.000553528
0.000574137
0.000599761
0.000631031
0.000668735
0.000713855
0.000767622
0.000831599
0.00090779
0.000998799
0.00110806
0.00124015
0.00140126
0.00159984
0.00184743
0.00215978
0.002558
0.00306951
0.00372778
0.0045692
0.00562458
0.00690259
0.00836547
0.00990372
0.0113363
0.0124896
0.0132907
0.0142509
0.0163197
0.0219587
0.0349314
0.0520082
0.0564172
0.033094
0.0174087
0.0303555
0.0169428
0.0146862
0.0140746
0.0134167
0.0122851
0.0107116
0.00890165
0.00710824
0.00553514
0.00428602
0.0033658
0.0027179
0.00226997
0.00196087
0.00174526
0.00158972
0.00147015
0.00137048
0.00128124
0.0011977
0.00111814
0.00104242
0.000971033
0.000904539
0.000843337
0.000787587
0.000737241
0.000692101
0.000651879
0.000616251
0.000584889
0.000557487
0.00053377
0.000513502
0.000496489
0.00048258
0.000471664
0.00046367
0.000459086
0.000457313
0.00045734
0.000461207
0.000468348
0.00047896
0.000493329
0.000511824
0.000534905
0.000563144
0.000597252
0.000638113
0.000686825
0.000744777
0.000813732
0.00089597
0.00099448
0.00111325
0.00125766
0.00143513
0.00165588
0.00193414
0.00228956
0.00274875
0.00334631
0.00412391
0.00512479
0.0063798
0.00788238
0.00955445
0.0112221
0.0126456
0.0136232
0.0142743
0.0157364
0.0194903
0.0295081
0.0489556
0.0585281
0.0426165
0.0208246
0.0301917
0.0170849
0.0146474
0.0138984
0.0131272
0.0118965
0.0102435
0.00839205
0.00660768
0.00508798
0.00391522
0.00307212
0.00248975
0.00209282
0.00182124
0.00163141
0.00149208
0.00138167
0.00128669
0.00119977
0.0011177
0.00103963
0.000965798
0.00089676
0.000832979
0.00077469
0.000721892
0.000674407
0.000631947
0.000594172
0.000560728
0.000531282
0.000505529
0.000483204
0.000464083
0.000447983
0.000434761
0.000424313
0.000416577
0.000411885
0.00040992
0.000409717
0.000412823
0.000419022
0.000428418
0.000441267
0.000457904
0.000478753
0.000504338
0.000535308
0.000572466
0.000616809
0.000669582
0.000732359
0.000807156
0.000896599
0.00100417
0.00113457
0.00129426
0.00149224
0.00174119
0.00205898
0.00247058
0.00301005
0.00372143
0.00465633
0.00586397
0.00736851
0.00913103
0.0110032
0.01271
0.014013
0.014696
0.0155685
0.0181004
0.0258379
0.0434989
0.0589693
0.0526234
0.0243218
0.029831
0.0171637
0.0145434
0.0136575
0.0127931
0.0114893
0.00978626
0.00791915
0.00616032
0.00469935
0.00359938
0.00282532
0.00229949
0.00194534
0.00170421
0.00153449
0.00140723
0.00130337
0.0012117
0.00112663
0.00104604
0.000969671
0.000897953
0.000831401
0.000770342
0.000714854
0.000664804
0.00061992
0.000579853
0.000544233
0.000512699
0.000484918
0.000460596
0.00043948
0.000421357
0.000406055
0.000393438
0.000383406
0.000375896
0.000371111
0.000368979
0.000368599
0.000371045
0.000376414
0.000384739
0.000396246
0.000411244
0.000430121
0.000453363
0.00048157
0.000515479
0.000556005
0.000604281
0.000661729
0.000730157
0.000811894
0.000910009
0.00102862
0.00117338
0.00135217
0.0015762
0.00186149
0.00223096
0.00271701
0.00336377
0.00422745
0.00537057
0.00684401
0.00865062
0.0106908
0.0127129
0.0143215
0.015154
0.01572
0.017427
0.0228245
0.0379829
0.0581594
0.0609112
0.0270968
0.0292701
0.0171603
0.0143698
0.0133706
0.0124289
0.0110754
0.00934768
0.00748576
0.00576404
0.00436349
0.00333106
0.00261788
0.0021404
0.00182186
0.00160529
0.00145119
0.00133294
0.00123384
0.00114466
0.0010612
0.00098217
0.000907657
0.000838156
0.000774091
0.000715646
0.000662767
0.000615217
0.000572657
0.000534704
0.000500975
0.000471107
0.000444778
0.000421706
0.000401649
0.000384405
0.00036981
0.000357734
0.000348079
0.000340779
0.000335932
0.000333662
0.000333131
0.000335019
0.000339659
0.00034704
0.000357361
0.000370904
0.000388032
0.000409193
0.000434947
0.00046598
0.000503138
0.000547468
0.000600272
0.00066319
0.000738319
0.000828391
0.000937045
0.00106924
0.0012319
0.00143487
0.0016924
0.00202522
0.00246342
0.00304969
0.0038418
0.00491078
0.00632829
0.00813434
0.0102802
0.0125589
0.0145738
0.0157067
0.0162249
0.0172119
0.0209074
0.0327085
0.0559451
0.065117
0.0283554
0.0285408
0.0171255
0.0141595
0.0130519
0.012047
0.010664
0.00893296
0.00709267
0.00541572
0.00407469
0.00310362
0.0024435
0.00200702
0.00171793
0.00152109
0.0013791
0.00126763
0.00117209
0.00108489
0.00100295
0.000925535
0.000852946
0.000785658
0.000723982
0.000667975
0.000617472
0.000572162
0.00053166
0.000495566
0.000463491
0.000435081
0.000410025
0.000388051
0.00036893
0.000352469
0.00033851
0.000326925
0.000317618
0.000310522
0.000305646
0.000303261
0.0003026
0.000304023
0.000308024
0.000314573
0.000323843
0.000336095
0.000351663
0.000370969
0.000394534
0.000423001
0.000457164
0.000497998
0.000546711
0.000604813
0.000674217
0.000757386
0.000857569
0.000979156
0.00112824
0.00131348
0.00154749
0.00184882
0.00224498
0.00277626
0.00349985
0.00449147
0.00583852
0.00761411
0.00982127
0.0123074
0.0146869
0.0162141
0.0168172
0.0172991
0.0198836
0.0291603
0.0517686
0.0666318
0.0285665
0.0276845
0.0170452
0.0139225
0.0127134
0.0116577
0.0102623
0.00854532
0.00673924
0.00511167
0.00382759
0.00291135
0.00229693
0.00189495
0.00163008
0.00144902
0.00131645
0.00121013
0.00111732
0.00103181
0.000951333
0.000875562
0.000804886
0.000739727
0.000680284
0.000626503
0.000578132
0.000534808
0.000496119
0.000461654
0.000431029
0.0004039
0.000379964
0.000358963
0.000340676
0.000324917
0.000311533
0.000300398
0.000291416
0.000284517
0.000279661
0.000277171
0.000276396
0.000277434
0.000280878
0.000286694
0.000295035
0.000306138
0.000320315
0.00033796
0.000359565
0.000385734
0.000417216
0.000454928
0.000500005
0.000553854
0.000618243
0.000695427
0.000788343
0.000900915
0.00103854
0.00120887
0.00142302
0.00169752
0.00205723
0.00253946
0.00319921
0.00411355
0.00538006
0.00709853
0.00932152
0.0119668
0.0147148
0.01674
0.0175341
0.0178521
0.0194156
0.0264873
0.0469933
0.0666801
0.0279958
0.0267355
0.0169357
0.0136695
0.0123655
0.0112695
0.0098755
0.00818641
0.00642395
0.00484816
0.00361733
0.00274932
0.00217385
0.00180065
0.00155557
0.00138711
0.00126188
0.00115954
0.00106891
0.000984898
0.000905839
0.000831683
0.000762848
0.000699682
0.000642282
0.000590501
0.000544025
0.000502451
0.000465353
0.000432316
0.000402964
0.000376962
0.000354018
0.000333882
0.000316342
0.000301217
0.000288356
0.000277634
0.000268955
0.000262243
0.000257453
0.000254866
0.000253992
0.000254712
0.000257673
0.000262845
0.000270363
0.000280445
0.000293381
0.00030954
0.000329385
0.000353489
0.000382561
0.00041747
0.000459291
0.00050935
0.000569303
0.000641243
0.000727862
0.000832713
0.000960625
0.00111838
0.00131582
0.00156761
0.00189604
0.00233527
0.00293718
0.00377787
0.00496072
0.00660566
0.00880693
0.0115458
0.01458
0.0171716
0.0182418
0.0184977
0.0192837
0.0245118
0.0426115
0.0644767
0.0270465
0.0257247
0.0168115
0.0134097
0.0120165
0.0108888
0.00950727
0.00785678
0.00614467
0.00462126
0.00343955
0.00261345
0.00207074
0.0017213
0.00149228
0.00133385
0.00121437
0.00111515
0.00102632
0.000943657
0.000865965
0.000793357
0.000726247
0.000664908
0.000609346
0.000559342
0.000514535
0.000474496
0.00043879
0.000407006
0.000378772
0.000353764
0.0003317
0.000312336
0.000295467
0.000280914
0.000268529
0.000258189
0.000249792
0.000243264
0.000238553
0.000235885
0.000234922
0.000235384
0.000237926
0.000242532
0.000249324
0.000258499
0.000270329
0.000285159
0.000303426
0.000325674
0.000352574
0.000384958
0.000423847
0.000470505
0.000526501
0.0005938
0.000674907
0.000773083
0.0008927
0.00103982
0.00122319
0.00145581
0.0017576
0.00215951
0.00270975
0.00348168
0.00458095
0.00614241
0.00829757
0.0110876
0.0143201
0.0174574
0.0190135
0.0193434
0.0195329
0.0231547
0.0386997
0.0613962
0.025898
0.0246553
0.0166901
0.0131535
0.011674
0.010521
0.0091601
0.00755613
0.00589902
0.00442751
0.00329042
0.00250026
0.00198471
0.00165465
0.00143854
0.00128806
0.00117311
0.00107636
0.00098906
0.000907636
0.000831237
0.000760079
0.000694552
0.000634857
0.000580927
0.000532487
0.00048914
0.000450441
0.000415951
0.000385263
0.000358013
0.000333883
0.000312598
0.000293923
0.000277655
0.000263619
0.000251667
0.000241675
0.000233541
0.000227187
0.000222557
0.000219824
0.000218782
0.000219032
0.000221214
0.000225325
0.000231475
0.000239847
0.000250693
0.000264337
0.000281191
0.000301771
0.000326716
0.00035682
0.000393063
0.000436653
0.000489092
0.000552249
0.000628484
0.000720835
0.00083331
0.000971395
0.0011429
0.00135939
0.00163862
0.00200848
0.00251324
0.00322243
0.00424089
0.00571277
0.00780088
0.0106109
0.0140377
0.0175768
0.0197548
0.0202373
0.0201722
0.0224334