/*--------------------------------*- C++ -*----------------------------------*\
  =========                 |
  \\      /  F ield         | OpenFOAM: The Open Source CFD Toolbox
   \\    /   O peration     | Website:  https://openfoam.org
    \\  /    A nd           | Version:  13
     \\/     M anipulation  |
\*---------------------------------------------------------------------------*/
FoamFile
{
    format      ascii;
    class       volScalarField;
    location    "7.2";
    object      k;
}
// * * * * * * * * * * * * * * * * * * * * * * * * * * * * * * * * * * * * * //

dimensions      [0 2 -2 0 0 0 0];

internalField   nonuniform List<scalar> 
6400
(
5.42038e-07
2.78448e-06
6.76234e-06
1.08981e-05
1.40206e-05
1.57759e-05
1.64141e-05
1.6474e-05
1.65663e-05
1.7164e-05
1.86264e-05
2.15053e-05
2.60646e-05
3.24043e-05
4.01989e-05
4.90185e-05
5.84166e-05
6.82014e-05
7.79308e-05
8.73495e-05
9.67944e-05
0.000107066
0.000119244
0.000134009
0.0001508
0.000167852
0.000184764
0.000201533
0.000218669
0.000236646
0.000255249
0.00027382
0.000292063
0.000309999
0.000328123
0.000346524
0.000365608
0.000385488
0.000406423
0.000428478
0.000451816
0.000476615
0.00050302
0.000531366
0.000561833
0.000595434
0.000634027
0.000681643
0.00073069
0.000780334
0.000829218
0.000876738
0.000921493
0.000962204
0.000997402
0.00102531
0.00104008
0.00104598
0.00104537
0.00102631
0.000991937
0.00094213
0.000877507
0.000800339
0.000712607
0.000618452
0.000522438
0.000428534
0.000340212
0.000261282
0.000197245
0.000143497
0.000100075
6.68441e-05
4.29294e-05
2.66446e-05
1.60285e-05
9.19429e-06
4.34292e-06
9.24519e-07
2.622e-06
2.20568e-05
5.35052e-05
8.36935e-05
0.000106039
0.000119362
0.000125698
0.000128248
0.000130536
0.000135586
0.000146801
0.00016814
0.000200738
0.000244006
0.000295923
0.000353845
0.000415421
0.000478301
0.000540654
0.000601751
0.000663501
0.00073022
0.000807372
0.000897661
0.000997436
0.00109793
0.00119569
0.00128881
0.00137818
0.00146488
0.00154719
0.00162398
0.00169384
0.00175749
0.00181748
0.00187452
0.00193071
0.00198685
0.00204431
0.00210365
0.00216558
0.00223079
0.0022994
0.0023717
0.00244703
0.00252529
0.00260487
0.00268301
0.00276566
0.0028511
0.00293896
0.00302614
0.00311099
0.00318988
0.00325951
0.00331573
0.00334698
0.00335756
0.00334881
0.0033066
0.00322691
0.0031092
0.00295186
0.00275785
0.00253192
0.00228203
0.00201964
0.00175338
0.00149086
0.00123713
0.000995214
0.000775074
0.000583479
0.000423015
0.000294739
0.000196675
0.000125544
7.55888e-05
3.66233e-05
4.89054e-06
5.73371e-06
4.78662e-05
0.000111343
0.00016468
0.000200999
0.000222403
0.000234155
0.000242135
0.000252274
0.000270414
0.000302302
0.00035272
0.000423422
0.000512679
0.000616538
0.000730829
0.000852316
0.000978346
0.00110635
0.00123413
0.00136001
0.00148318
0.0016016
0.0017102
0.0018041
0.00187942
0.00193348
0.00197107
0.00199989
0.00202689
0.00205645
0.00208781
0.00212194
0.00215575
0.00219328
0.00223339
0.00227799
0.00232691
0.0023812
0.00244087
0.00250578
0.00257648
0.00265251
0.00273393
0.00282073
0.00291278
0.00300918
0.0031114
0.00321911
0.00333092
0.00344572
0.00356138
0.00367573
0.00378549
0.00388692
0.00397534
0.00404554
0.00408576
0.00409876
0.00408337
0.00402377
0.0039192
0.00376514
0.0035634
0.00331625
0.00303064
0.00272322
0.00240301
0.00208039
0.00176588
0.00146851
0.00119509
0.000950751
0.000737906
0.000557584
0.000409001
0.000288851
0.000189569
9.62743e-05
1.30781e-05
9.95187e-06
8.04309e-05
0.000175058
0.000246296
0.000292913
0.00032174
0.00034111
0.000359391
0.000384834
0.000425531
0.000488749
0.000579039
0.000696291
0.000835882
0.000991036
0.00115525
0.00132281
0.00148818
0.0016453
0.00178832
0.00191154
0.00201292
0.00208991
0.0021355
0.00215503
0.00215967
0.00215463
0.00215114
0.0021502
0.00215469
0.00216504
0.00217855
0.00219722
0.00222066
0.00224946
0.00228324
0.00232266
0.00236758
0.00241801
0.00247421
0.0025362
0.00260422
0.00267816
0.002758
0.00284337
0.00293447
0.00303235
0.00313671
0.00324717
0.00336292
0.00348294
0.00360567
0.00372905
0.00385026
0.00396579
0.00407123
0.00416137
0.00422972
0.00426328
0.0042709
0.00423767
0.00415993
0.00403823
0.00386823
0.00364516
0.0033696
0.00305837
0.00272188
0.0023759
0.00203473
0.0017106
0.00141245
0.00114559
0.000912135
0.000712163
0.000544084
0.000403501
0.000280774
0.00015276
2.1764e-05
1.59558e-05
0.000123966
0.000250576
0.000338961
0.000396026
0.000433682
0.000463647
0.000497128
0.000544895
0.000616866
0.000720286
0.000857191
0.00102318
0.00120912
0.00140431
0.00159863
0.00178279
0.00194794
0.00208489
0.00218927
0.00225033
0.00227421
0.00227642
0.00224673
0.00221611
0.00218858
0.00216621
0.00215089
0.00214356
0.00214108
0.00214209
0.00214866
0.0021598
0.00217521
0.00219482
0.00221851
0.00224622
0.00227762
0.00231268
0.00235162
0.00239448
0.00244166
0.00249394
0.00255203
0.00261681
0.00268857
0.00276689
0.0028523
0.00294496
0.00304501
0.00315228
0.00326624
0.00338596
0.00350992
0.00363603
0.00376109
0.00388052
0.00398883
0.00407937
0.00413706
0.00415883
0.00414257
0.00406827
0.00393871
0.00376112
0.00352771
0.00323579
0.00290396
0.00254949
0.00219097
0.0018458
0.00152756
0.00124425
0.000998546
0.000789682
0.000614573
0.000467361
0.000335867
0.000191016
2.77529e-05
2.45259e-05
0.000181783
0.000342368
0.000448718
0.000517658
0.000566429
0.000610541
0.00066432
0.000740755
0.000850079
0.000997033
0.00117861
0.00138452
0.00160037
0.00181111
0.00200282
0.0021634
0.00228545
0.00235167
0.00237379
0.00236217
0.00231737
0.0022728
0.00222896
0.00218807
0.00215242
0.0021232
0.00209997
0.00208137
0.00206646
0.00205407
0.00204681
0.00204315
0.00204187
0.00204243
0.00204651
0.0020528
0.00206189
0.00207378
0.00208892
0.00210758
0.0021304
0.00215717
0.00218852
0.00222491
0.00226689
0.00231517
0.00237075
0.00243458
0.00250778
0.00259136
0.00268614
0.00279269
0.00291096
0.00303993
0.00317789
0.00332261
0.00346926
0.00361237
0.00374248
0.00385083
0.00391069
0.0039288
0.00388957
0.00378385
0.00361609
0.0033692
0.00306002
0.00270614
0.00233089
0.001959
0.00161197
0.00130416
0.00104129
0.000822291
0.000641971
0.000492043
0.000357872
0.000207879
2.9936e-05
3.64236e-05
0.000255825
0.000452791
0.000578434
0.000660952
0.000723303
0.000785036
0.000863338
0.00097215
0.00111967
0.00130553
0.00152003
0.00174666
0.00196626
0.00216068
0.0023147
0.00240893
0.00244458
0.0024438
0.00239514
0.0023421
0.00227915
0.00221826
0.00215696
0.00210281
0.00205594
0.00201517
0.00197863
0.00194576
0.00191709
0.00189264
0.00187089
0.00185146
0.00183408
0.0018189
0.00180618
0.00179564
0.00178765
0.00178257
0.00178032
0.00177984
0.00178281
0.00178896
0.00179868
0.00181242
0.00183053
0.00185381
0.00188298
0.00191925
0.001964
0.00201904
0.00208645
0.00216846
0.00226739
0.00238473
0.00251996
0.00267542
0.00284749
0.0030309
0.00321879
0.00340332
0.00356908
0.00369262
0.00374738
0.00375197
0.00366837
0.00351147
0.00325042
0.00291246
0.00252395
0.00211766
0.00172637
0.00137601
0.00108029
0.000840209
0.000648691
0.000493129
0.000356469
0.000206748
2.90675e-05
5.23568e-05
0.000347147
0.000582526
0.000728814
0.000826515
0.000904522
0.000986263
0.00109085
0.00123119
0.00141101
0.00162313
0.0018509
0.00207246
0.00226558
0.00241248
0.00248569
0.00250534
0.00247564
0.00242087
0.00234541
0.0022619
0.00217407
0.00209605
0.00202589
0.00196621
0.00191156
0.00186196
0.00181612
0.00177408
0.00173566
0.00170048
0.0016681
0.00163861
0.00161201
0.00158843
0.00156784
0.00155002
0.00153505
0.00152288
0.00151345
0.00150687
0.00150371
0.00150271
0.00150446
0.00151024
0.00151927
0.00153252
0.00155025
0.00157304
0.0016014
0.00163629
0.00167879
0.00173052
0.00179386
0.00187284
0.00197404
0.00210065
0.00225837
0.00244758
0.00265861
0.0028897
0.00312617
0.0033523
0.00354454
0.00364925
0.00368003
0.00362674
0.00347299
0.00318393
0.00280257
0.00236635
0.00191986
0.0015055
0.0011529
0.000872373
0.000656707
0.000489049
0.000348006
0.000200042
2.7019e-05
7.28262e-05
0.000455579
0.000730981
0.000898998
0.001013
0.00110763
0.0012096
0.0013385
0.00150416
0.00170415
0.00192417
0.00214183
0.00233237
0.00246914
0.00253057
0.00253974
0.00249662
0.00242923
0.00233299
0.00222215
0.00211896
0.00202788
0.00194682
0.00187393
0.00180843
0.00174743
0.00169134
0.00163948
0.00159211
0.00154908
0.00151035
0.00147586
0.00144567
0.00141959
0.00139743
0.00137898
0.00136403
0.00135236
0.00134365
0.00133798
0.00133533
0.00133454
0.00133598
0.00134054
0.00134773
0.00135753
0.00137022
0.00138591
0.00140487
0.0014274
0.00145397
0.00148513
0.0015216
0.00156436
0.00161486
0.00167539
0.00174937
0.00184325
0.00196884
0.00214513
0.00236814
0.00262936
0.00291148
0.00319591
0.00345214
0.00360939
0.00366404
0.00363795
0.00348044
0.00315088
0.0027138
0.00222045
0.00172997
0.00129465
0.000944578
0.00068271
0.000490289
0.000335435
0.000186599
2.47157e-05
9.80333e-05
0.000579524
0.00089624
0.00108676
0.00121726
0.00132773
0.00144723
0.00159436
0.00177434
0.0019781
0.00218523
0.00236999
0.00249998
0.00255472
0.00255902
0.00251333
0.00242845
0.00230843
0.00218115
0.00206569
0.00196205
0.00187021
0.00178729
0.00171178
0.0016427
0.00157909
0.0015215
0.00146973
0.00142408
0.00138438
0.00135053
0.00132224
0.00129914
0.00128076
0.0012666
0.00125613
0.00124882
0.00124478
0.00124308
0.00124279
0.00124502
0.00124892
0.00125474
0.00126243
0.00127188
0.0012832
0.00129654
0.00131205
0.00132995
0.00135047
0.00137378
0.00140019
0.00143001
0.00146363
0.0015015
0.00154432
0.0015935
0.00165166
0.00172376
0.00181862
0.00195114
0.00215154
0.00242554
0.00274417
0.00308333
0.00340281
0.0036133
0.00369018
0.00368057
0.00350763
0.00312535
0.00262244
0.00206774
0.00153658
0.0010887
0.000748798
0.000508029
0.000331546
0.000174689
2.28476e-05
0.000128377
0.000715323
0.00107523
0.00128856
0.00143446
0.00155782
0.00168918
0.00184494
0.00202512
0.00221467
0.00238917
0.00251386
0.00256533
0.00256756
0.00252152
0.00242237
0.00228534
0.00214681
0.00201756
0.00190325
0.00180104
0.00170948
0.00162636
0.00155101
0.00148311
0.00142271
0.00137017
0.00132534
0.00128807
0.00125782
0.00123398
0.00121579
0.00120244
0.00119312
0.0011873
0.00118451
0.00118358
0.00118409
0.0011868
0.00119064
0.00119607
0.00120272
0.00121081
0.00122028
0.00123125
0.00124384
0.0012582
0.00127446
0.00129277
0.00131323
0.00133597
0.0013611
0.00138876
0.00141911
0.00145245
0.00148895
0.00152859
0.00157202
0.00162074
0.00167815
0.001752
0.00185627
0.0020149
0.00227156
0.00261843
0.00300207
0.00338552
0.0036456
0.00374116
0.0037347
0.00352908
0.00308082
0.00250463
0.00189095
0.00133039
0.000883299
0.000561626
0.000342451
0.000171991
2.22703e-05
0.000165374
0.000858377
0.0012643
0.00149969
0.00165842
0.0017897
0.0019248
0.00207738
0.00224259
0.00240104
0.00251948
0.00256933
0.00257136
0.00252597
0.00241852
0.00227059
0.00212022
0.00197951
0.00185356
0.0017424
0.00164287
0.00155378
0.001474
0.0014036
0.00134263
0.00129112
0.00124889
0.00121521
0.00118927
0.00116995
0.00115617
0.00114684
0.00114119
0.00113849
0.00113758
0.00113774
0.00113974
0.00114267
0.0011468
0.00115183
0.001158
0.00116528
0.00117386
0.00118384
0.00119541
0.00120874
0.00122402
0.0012414
0.00126103
0.00128304
0.00130749
0.00133439
0.00136365
0.00139512
0.00142859
0.00146387
0.00150095
0.0015402
0.00158147
0.00162505
0.00167362
0.00173344
0.00181756
0.00194969
0.00217016
0.00252731
0.00295043
0.00339461
0.00369467
0.00380198
0.00378152
0.00351972
0.00299115
0.00233855
0.00167754
0.00110609
0.000675178
0.000381541
0.000179884
2.31479e-05
0.000206528
0.00100898
0.00145937
0.00171473
0.00188234
0.002015
0.00214426
0.00228118
0.00241719
0.00252567
0.0025735
0.00257609
0.0025315
0.00242172
0.00226721
0.00210523
0.00195286
0.001816
0.00169535
0.00158888
0.00149437
0.00141132
0.0013394
0.00127871
0.00122895
0.00118951
0.00115932
0.00113702
0.00112119
0.00111044
0.00110354
0.00109967
0.00109788
0.00109731
0.00109736
0.0010986
0.00110065
0.0011034
0.001107
0.00111149
0.00111707
0.00112387
0.00113211
0.00114194
0.00115359
0.00116726
0.00118314
0.00120143
0.00122233
0.00124599
0.00127252
0.00130197
0.00133429
0.00136925
0.00140649
0.00144544
0.00148542
0.00152579
0.00156629
0.00160741
0.00164873
0.00169186
0.00174232
0.00181199
0.00192455
0.00212233
0.00246993
0.00293056
0.00342765
0.00375165
0.00385853
0.00380178
0.00345422
0.00283028
0.00210876
0.00142067
0.000862999
0.000468503
0.000207079
2.67081e-05
0.000250644
0.00116349
0.00165556
0.00192787
0.0020995
0.00222618
0.00233969
0.0024492
0.00254168
0.00258465
0.00258716
0.00254214
0.00243426
0.00227648
0.00210476
0.00193995
0.00179176
0.00166146
0.00154759
0.00144809
0.00136182
0.00128863
0.00122817
0.00117991
0.00114274
0.00111515
0.0010954
0.00108175
0.00107263
0.00106669
0.00106293
0.00106059
0.00105909
0.00105825
0.00105792
0.00105795
0.00105877
0.00106022
0.00106261
0.00106602
0.00107067
0.00107675
0.00108444
0.00109393
0.00110543
0.00111914
0.00113527
0.00115403
0.00117566
0.00120035
0.00122833
0.00125974
0.00129466
0.00133302
0.00137456
0.00141873
0.00146467
0.00151119
0.00155694
0.00160082
0.00164274
0.00168316
0.00172288
0.00176623
0.00182625
0.00192687
0.00211235
0.00244962
0.00294358
0.0034858
0.00380788
0.00389545
0.00377746
0.00330196
0.00258123
0.00180649
0.00112294
0.000610911
0.000265266
3.51199e-05
0.000296286
0.00131785
0.00184779
0.00213345
0.00230379
0.00241717
0.00250582
0.00257701
0.00261021
0.00261039
0.00256212
0.00245821
0.00229991
0.00212052
0.00194332
0.00178238
0.00164152
0.00151946
0.00141427
0.00132446
0.00124941
0.0011886
0.00114103
0.00110519
0.00107914
0.00106078
0.00104813
0.00103945
0.00103338
0.0010289
0.00102535
0.00102232
0.00101962
0.00101725
0.00101525
0.00101393
0.00101338
0.00101333
0.00101455
0.00101704
0.00102093
0.00102642
0.00103366
0.00104283
0.00105412
0.00106769
0.00108376
0.00110254
0.00112429
0.00114925
0.00117772
0.00120995
0.0012462
0.00128661
0.00133118
0.00137965
0.00143139
0.00148525
0.00153955
0.00159211
0.00164074
0.00168424
0.00172252
0.00175846
0.00179905
0.00185248
0.00194738
0.00212687
0.00246681
0.00299282
0.00356772
0.00385092
0.00390014
0.00368297
0.00304662
0.00223112
0.00143765
0.000800693
0.000351601
4.83558e-05
0.000342033
0.00146811
0.00203139
0.0023265
0.00249011
0.00258363
0.00263781
0.0026596
0.00265092
0.00259648
0.00249613
0.00233907
0.00215407
0.00196502
0.00178996
0.00163658
0.00150491
0.00139273
0.00129829
0.00122041
0.00115818
0.00111024
0.00107465
0.0010491
0.00103115
0.00101859
0.00100957
0.0010027
0.000997016
0.00099191
0.000987079
0.000982428
0.000978004
0.000973947
0.000970426
0.000967641
0.000965956
0.000965294
0.000965405
0.000967353
0.000970782
0.000975906
0.000982871
0.000991806
0.00100287
0.00101621
0.00103203
0.00105053
0.00107195
0.00109658
0.00112473
0.00115674
0.001193
0.00123385
0.00127956
0.00133026
0.00138576
0.0014454
0.00150785
0.00157093
0.00163162
0.00168641
0.00173375
0.00177153
0.00179844
0.00183486
0.00188788
0.00198063
0.00216275
0.00252159
0.00308963
0.00364976
0.00388457
0.0038636
0.00345797
0.00266405
0.0017873
0.00102625
0.000458797
6.52696e-05
0.000387126
0.00160987
0.00220257
0.00250377
0.00265389
0.0027176
0.00273351
0.0027127
0.00264974
0.00255145
0.00239583
0.002207
0.00200705
0.00181682
0.00164847
0.00150476
0.0013837
0.00128294
0.0012008
0.00113582
0.00108627
0.00104983
0.00102379
0.00100544
0.000992324
0.000982484
0.00097448
0.000967372
0.000960622
0.000953993
0.00094746
0.000941122
0.000935151
0.000929743
0.000925094
0.000921389
0.000918934
0.000917818
0.000917585
0.000919125
0.000922358
0.000927298
0.000934101
0.000942863
0.000953718
0.000966804
0.000982286
0.00100035
0.00102124
0.0010452
0.00107257
0.00110373
0.00113909
0.00117914
0.00122436
0.00127518
0.00133187
0.00139436
0.00146205
0.00153344
0.00160592
0.00167556
0.00173738
0.00178927
0.00182677
0.00184502
0.00187584
0.00192963
0.0020244
0.00221785
0.00260982
0.00322381
0.00372998
0.0038971
0.0037334
0.00307703
0.00215826
0.00127868
0.00058063
8.48017e-05
0.000430462
0.00174192
0.00235815
0.00265803
0.00278839
0.00282349
0.00280345
0.00273461
0.00262672
0.00247275
0.002281
0.00207137
0.00186548
0.00167968
0.00152069
0.00138799
0.0012787
0.00119039
0.00112105
0.00106848
0.00103002
0.0010026
0.000983168
0.000969034
0.000958076
0.000948793
0.000940235
0.000931899
0.000923596
0.000915347
0.00090729
0.000899618
0.000892538
0.000886247
0.000880922
0.000876717
0.000873879
0.000872551
0.000872212
0.000873539
0.000876684
0.000881523
0.000888205
0.000896814
0.000907465
0.000920281
0.000935406
0.000953011
0.000973301
0.000996523
0.00102298
0.00105302
0.0010871
0.00112573
0.00116948
0.001219
0.00127487
0.00133756
0.00140715
0.00148309
0.00156377
0.0016461
0.00172518
0.00179435
0.00185076
0.00188214
0.0018958
0.0019208
0.00197657
0.00207832
0.0022947
0.00274455
0.00340174
0.00377891
0.003837
0.00344334
0.00254053
0.00155403
0.000713226
0.000106033
0.000470433
0.00186077
0.00249291
0.00278656
0.00289499
0.00290623
0.002844
0.00272795
0.00257431
0.00237828
0.00215998
0.0019386
0.00173328
0.00155539
0.00140732
0.00128651
0.00118965
0.00111398
0.00105681
0.00101505
0.000985309
0.00096416
0.000948623
0.000936368
0.000925767
0.000915825
0.000906033
0.000896229
0.000886459
0.000876884
0.000867712
0.000859154
0.000851401
0.000844623
0.000838957
0.000834521
0.000831515
0.000830097
0.000829713
0.00083091
0.000833969
0.000838699
0.000845236
0.000853666
0.000864088
0.000876617
0.000891384
0.000908543
0.000928275
0.000950801
0.000976388
0.00100536
0.00103813
0.0010752
0.00111715
0.00116471
0.00121863
0.00127973
0.00134864
0.00142564
0.00151023
0.00160066
0.00169329
0.00178215
0.00185884
0.00191542
0.00193921
0.0019486
0.00196891
0.00202856
0.00214369
0.00240276
0.00293884
0.00356888
0.00382189
0.00367254
0.00291245
0.0018483
0.000853934
0.000128252
0.000505593
0.00196344
0.00260477
0.00288927
0.00297862
0.00296305
0.00285921
0.00270301
0.00250241
0.00227515
0.00203885
0.00181277
0.00161244
0.00144454
0.00130825
0.00119977
0.00111535
0.00105164
0.00100512
0.000971986
0.000948435
0.000931116
0.000917408
0.000905492
0.000894263
0.000883172
0.000872046
0.000860943
0.000850036
0.000839538
0.000829661
0.000820591
0.000812483
0.000805465
0.00079964
0.000795093
0.00079197
0.000790472
0.000790039
0.000791075
0.000793985
0.000798543
0.000804873
0.000813063
0.000823209
0.000835422
0.000849826
0.00086656
0.000885791
0.000907712
0.000932558
0.000960617
0.000992248
0.0010279
0.00106813
0.00111364
0.00116525
0.00122392
0.00129063
0.00136626
0.00145125
0.00154513
0.00164583
0.00174895
0.00184707
0.00192962
0.00198224
0.00199738
0.00200192
0.00201997
0.00208547
0.00222575
0.00255872
0.00318467
0.00366115
0.00375287
0.00325424
0.00215608
0.000997882
0.000151494
0.000535142
0.00204876
0.0026933
0.00296696
0.00304059
0.00299524
0.00285269
0.00265492
0.00241987
0.0021689
0.00192173
0.00169618
0.00150371
0.00134696
0.0012228
0.00112655
0.00105393
0.00100083
0.000962991
0.000936182
0.000916606
0.000901248
0.000888003
0.000875583
0.000863341
0.000851064
0.0008388
0.000826721
0.000815044
0.000803978
0.000793702
0.000784363
0.000776075
0.000768931
0.000763003
0.000758355
0.000755066
0.000753436
0.000752915
0.0007537
0.000756372
0.000760672
0.000766715
0.000774595
0.000784409
0.000796266
0.000810287
0.000826607
0.000845377
0.000866774
0.000891005
0.000918322
0.000949034
0.000983533
0.00102232
0.00106601
0.00111542
0.00117151
0.00123544
0.00130842
0.00139157
0.0014855
0.00158969
0.00170161
0.00181569
0.00192241
0.00200639
0.0020472
0.00205504
0.00205517
0.00207297
0.00214972
0.00233585
0.00279026
0.0034447
0.00371978
0.00349897
0.00246661
0.00114364
0.000175412
0.000558651
0.00211671
0.00275954
0.00302141
0.00308038
0.00300541
0.00283141
0.00259513
0.00233163
0.00206359
0.00181124
0.00158992
0.00140705
0.00126195
0.00114981
0.00106522
0.00100322
0.000958998
0.000927794
0.000905286
0.000887963
0.000873308
0.000859755
0.000846489
0.000833213
0.000819938
0.000806827
0.000794094
0.000781945
0.000770556
0.000760065
0.000750578
0.000742173
0.000734916
0.00072886
0.000724057
0.000720557
0.000718692
0.000718029
0.000718463
0.000720805
0.000724765
0.000730445
0.000737947
0.000747369
0.000758826
0.000772436
0.000788333
0.000806662
0.000827587
0.000851296
0.000878011
0.000908001
0.000941603
0.000979245
0.00102148
0.00106902
0.00112279
0.00118394
0.00125383
0.00133397
0.0014257
0.00152979
0.00164553
0.00176969
0.00189528
0.00201063
0.00208642
0.002111
0.0021122
0.00210466
0.00212878
0.00222854
0.00249725
0.00309442
0.00355563
0.00360287
0.00277998
0.00130495
0.00020192
0.000576033
0.00216796
0.00280489
0.0030545
0.00309997
0.00299881
0.00279253
0.00252718
0.00224147
0.00196207
0.00170887
0.00149428
0.00132193
0.0011885
0.00108789
0.00101397
0.000961107
0.000923939
0.000897513
0.000877693
0.00086142
0.000846721
0.000832519
0.00081837
0.000804215
0.000790194
0.000776512
0.000763374
0.000750953
0.000739382
0.000728759
0.000719155
0.000710626
0.000703219
0.000696978
0.00069195
0.000688182
0.000685974
0.00068511
0.000685141
0.000687064
0.000690616
0.000695871
0.000702937
0.000711918
0.00072293
0.000736096
0.000751548
0.000769432
0.000789904
0.000813142
0.000839346
0.000868757
0.000901665
0.000938437
0.000979549
0.00102562
0.00107748
0.00113619
0.00120312
0.00127991
0.00136836
0.0014701
0.00158587
0.00171444
0.00185106
0.00198585
0.00210264
0.00216439
0.00217569
0.00216104
0.00214694
0.00219047
0.00233705
0.002767
0.00339479
0.00361772
0.00308577
0.00150647
0.000236208
0.000587575
0.00220352
0.00283036
0.00306652
0.00309923
0.00297886
0.00274412
0.00245469
0.00215228
0.00186616
0.00161533
0.00140901
0.00124751
0.0011254
0.00103549
0.000970994
0.000925691
0.000893895
0.000870723
0.000852415
0.000836436
0.00082132
0.00080639
0.00079147
0.000776647
0.000762112
0.000748069
0.00073469
0.000722106
0.000710411
0.00069967
0.000689934
0.000681242
0.000673634
0.000667154
0.000661847
0.000657768
0.000655099
0.000653885
0.000653645
0.000655041
0.000658134
0.000662921
0.000669509
0.000678008
0.000688536
0.000701222
0.0007162
0.000733617
0.00075363
0.000776409
0.000802146
0.000831059
0.000863408
0.000899511
0.000939775
0.000984733
0.0010351
0.00109183
0.00115619
0.00122981
0.00131469
0.001413
0.00152664
0.00165629
0.00179998
0.00195112
0.00209668
0.00219958
0.00223645
0.00223636
0.00219999
0.00218677
0.00226144
0.00251476
0.00312035
0.00350196
0.00332268
0.00176149
0.00028238
0.00059328
0.0022237
0.00283712
0.00306309
0.00308771
0.00294435
0.00268864
0.00238042
0.0020661
0.00177699
0.00153075
0.00133355
0.00118282
0.00107137
0.00099114
0.000934707
0.000895444
0.000867582
0.000846499
0.000828912
0.0008128
0.000797131
0.000781535
0.000766007
0.000750708
0.000735836
0.000721568
0.000708036
0.000695334
0.000683522
0.000672646
0.000662741
0.000653842
0.000645987
0.00063922
0.00063359
0.000629157
0.000625989
0.000624374
0.000623873
0.000624712
0.000627316
0.000631608
0.000637693
0.00064568
0.000655694
0.000667866
0.000682337
0.000699255
0.000718781
0.000741087
0.00076636
0.000794807
0.000826668
0.000862227
0.000901836
0.000945954
0.000995191
0.00105038
0.00111264
0.00118352
0.00126498
0.00135943
0.00146942
0.00159697
0.00174221
0.00190131
0.00206413
0.00221215
0.00229248
0.0023073
0.00227692
0.00223467
0.00223859
0.00237934
0.00284481
0.00336653
0.00343336
0.00206539
0.000340015
0.000592901
0.00223131
0.00283217
0.00304846
0.00306149
0.00290099
0.00262874
0.00230652
0.00198439
0.00169512
0.00145495
0.00126718
0.0011268
0.00102518
0.000953471
0.000903764
0.000869198
0.000844115
0.000824284
0.000806921
0.000790471
0.00077425
0.000758101
0.000742121
0.000726496
0.000711405
0.000696987
0.000683339
0.000670522
0.000658577
0.000647535
0.000637426
0.000628283
0.000620146
0.000613059
0.000607077
0.000602257
0.000598661
0.000596585
0.000595808
0.000596111
0.000598212
0.000602
0.000607568
0.000615027
0.000624505
0.000636135
0.000650064
0.000666446
0.000685448
0.000707245
0.000732028
0.000760001
0.000791394
0.000826469
0.000865542
0.000909011
0.000957398
0.00101142
0.00107206
0.00114068
0.00121918
0.00130997
0.001416
0.00154026
0.00168478
0.00184865
0.00202534
0.00219989
0.00232798
0.00237319
0.00236649
0.00228994
0.00225213
0.00231202
0.0026075
0.00322393
0.00345902
0.00240632
0.000406733
0.000589703
0.00222928
0.00281607
0.00301866
0.00302302
0.00285071
0.0025665
0.0022346
0.00190804
0.00162074
0.0013875
0.00120909
0.00107842
0.000985662
0.000921316
0.000877099
0.000846098
0.000822915
0.000803764
0.000786341
0.000769483
0.00075277
0.000736186
0.000719879
0.000704028
0.000688784
0.00067425
0.000660491
0.000647546
0.000635444
0.000624209
0.00061387
0.000604462
0.000596027
0.000588616
0.000582282
0.000577088
0.0005731
0.000570539
0.00056943
0.000569314
0.000570897
0.000574183
0.000579235
0.00058616
0.000595087
0.000606153
0.00061951
0.000635319
0.000653752
0.000674995
0.000699242
0.000726706
0.000757612
0.000792214
0.000830805
0.00087374
0.000921471
0.000974611
0.00103401
0.00110087
0.00117688
0.00126437
0.00136636
0.00148638
0.00162773
0.00179182
0.00197531
0.00216633
0.00234108
0.00243196
0.00244661
0.0023908
0.00230199
0.00229048
0.00245304
0.00300056
0.00337365
0.00274292
0.000475039
0.000582657
0.00222057
0.0027863
0.00297886
0.00297595
0.00279554
0.00250356
0.0021658
0.00183761
0.00155378
0.00132786
0.00115845
0.00103671
0.000951814
0.000893709
0.000853894
0.000825547
0.000803615
0.000784772
0.000767141
0.000749876
0.000732751
0.000715832
0.000699285
0.000683271
0.000667905
0.000653262
0.000639382
0.000626293
0.000614013
0.000602568
0.000591989
0.000582313
0.000573586
0.000565862
0.000559199
0.000553661
0.000549321
0.000546278
0.000544777
0.000544381
0.000545448
0.000548245
0.00055279
0.000559184
0.000567555
0.000578043
0.000590803
0.000606003
0.000623825
0.000644461
0.00066812
0.000695019
0.000725394
0.000759498
0.000797612
0.000840065
0.00088726
0.000939725
0.00099819
0.00106369
0.00113774
0.00122246
0.00132081
0.00143656
0.00157392
0.0017363
0.00192381
0.0021293
0.00233398
0.00247606
0.00251888
0.00249258
0.00236568
0.00230261
0.0023764
0.00279648
0.00324185
0.00300548
0.00052924
0.000571703
0.00220227
0.00274784
0.00293163
0.00292227
0.0027372
0.00244123
0.00210093
0.00177334
0.00149399
0.00127543
0.00111447
0.00100081
0.000922762
0.00086987
0.000833535
0.000807129
0.000785988
0.00076722
0.000749317
0.00073168
0.000714214
0.000697035
0.000680305
0.000664158
0.000648681
0.000633924
0.000619912
0.000606664
0.000594198
0.00058254
0.000571724
0.000561792
0.000552793
0.000544782
0.00053782
0.000531968
0.000527295
0.000523868
0.000521972
0.000521325
0.00052192
0.000524251
0.000528307
0.000534182
0.000541999
0.000551902
0.000564047
0.00057861
0.00059578
0.000615762
0.000638773
0.000665048
0.000694832
0.000728387
0.000765995
0.000807971
0.000854686
0.000906607
0.000964362
0.00102884
0.00110136
0.00118381
0.00127897
0.00139059
0.0015233
0.00168183
0.00186876
0.00208067
0.0023031
0.00249662
0.00258291
0.00258651
0.00247625
0.00234887
0.00234109
0.00262465
0.00311916
0.00312932
0.000553823
0.000557457
0.00217734
0.00270262
0.00287841
0.00286391
0.00267711
0.00238049
0.00204049
0.00171528
0.00144104
0.00122962
0.00107642
0.000969931
0.000897777
0.000849186
0.000815569
0.00079056
0.000769889
0.000751059
0.000732865
0.000714898
0.000697151
0.000679762
0.00066288
0.000646613
0.000631024
0.000616145
0.000601993
0.000588581
0.00057593
0.000564068
0.000553033
0.000542869
0.000533628
0.000525367
0.000518143
0.000512018
0.000507053
0.000503314
0.000501045
0.000500159
0.000500347
0.000502242
0.000505833
0.000511205
0.000518478
0.000527795
0.000539317
0.000553222
0.000569708
0.00058899
0.000611301
0.000636888
0.000666015
0.000698957
0.000736006
0.000777477
0.000823725
0.000875172
0.000932369
0.000996082
0.00106744
0.00114812
0.00124063
0.00134859
0.00147682
0.00163096
0.00181582
0.00203177
0.00226897
0.00250094
0.00264061
0.00267046
0.00259198
0.00240418
0.00233302
0.00247698
0.00301262
0.003164
0.000557947
0.000540732
0.00214786
0.00265233
0.00282068
0.00280248
0.00261646
0.00232204
0.00198477
0.00166333
0.00139452
0.00118985
0.00104363
0.000943414
0.000876259
0.000831178
0.000799662
0.000775641
0.000755222
0.000736251
0.00071777
0.000699511
0.000681526
0.000663958
0.00064694
0.000630557
0.000614853
0.000599848
0.000585553
0.000571982
0.000559157
0.00054711
0.000535881
0.000525518
0.000516073
0.000507602
0.000500162
0.00049381
0.000488606
0.000484611
0.000481999
0.000480851
0.000480739
0.000482225
0.000485377
0.000490268
0.000497013
0.000505753
0.000516648
0.000529883
0.000545662
0.00056421
0.000585773
0.000610616
0.000639019
0.000671279
0.000707705
0.000748621
0.000794378
0.000845376
0.000902107
0.000965236
0.00103573
0.00111504
0.00120541
0.00131018
0.00143411
0.0015833
0.0017641
0.00198009
0.00222646
0.00248311
0.00268043
0.00274524
0.00270635
0.00250818
0.0023639
0.00240565
0.00284811
0.00313592
0.0005468
0.000522197
0.00211558
0.00259858
0.00275985
0.00273928
0.00255618
0.0022664
0.00193388
0.0016173
0.00135404
0.00115554
0.0010155
0.000920687
0.000857718
0.000815469
0.000785562
0.000762225
0.000741911
0.000722758
0.000704005
0.000685487
0.000667292
0.000649563
0.000632416
0.000615915
0.000600094
0.000584962
0.00057053
0.000556812
0.000543832
0.000531625
0.000520235
0.00050971
0.000500103
0.000491466
0.000483855
0.000477324
0.000471929
0.00046773
0.000464812
0.000463385
0.000463062
0.000464174
0.000466917
0.000471353
0.000477589
0.000485765
0.000496041
0.000508603
0.000523662
0.000541451
0.000562229
0.000586278
0.000613899
0.00064541
0.000681142
0.00072144
0.000766663
0.000817203
0.000873515
0.000936183
0.00100604
0.00108433
0.00117302
0.00127516
0.00139528
0.00153965
0.0017157
0.00192954
0.00218046
0.00245267
0.00269942
0.00281135
0.00280863
0.00262788
0.00240704
0.00237677
0.00270509
0.00306633
0.000528259
0.000502454
0.00208124
0.00254257
0.00269716
0.00267541
0.00249701
0.0022139
0.00188782
0.00157691
0.00131915
0.00112624
0.000991519
0.000901272
0.000841756
0.000801765
0.000773075
0.000750199
0.000729894
0.00071054
0.000691531
0.000672778
0.000654393
0.000636513
0.000619238
0.000602621
0.000586682
0.000571429
0.000556871
0.000543023
0.000529913
0.000517578
0.000506061
0.000495413
0.000485683
0.000476923
0.000469185
0.000462517
0.00045697
0.000452596
0.000449448
0.000447757
0.000447249