/*--------------------------------*- C++ -*----------------------------------*\
  =========                 |
  \\      /  F ield         | OpenFOAM: The Open Source CFD Toolbox
   \\    /   O peration     | Website:  https://openfoam.org
    \\  /    A nd           | Version:  13
     \\/     M anipulation  |
\*---------------------------------------------------------------------------*/
FoamFile
{
    format      ascii;
    class       volScalarField;
    location    "7.2";
    object      nut;
}
// * * * * * * * * * * * * * * * * * * * * * * * * * * * * * * * * * * * * * //

dimensions      [0 2 -1 0 0 0 0];

internalField   nonuniform List<scalar> 
6400
(
9.52847e-10
4.89483e-09
1.18875e-08
1.91577e-08
2.46467e-08
2.77323e-08
2.88542e-08
2.89594e-08
2.91217e-08
3.01725e-08
3.27434e-08
3.78043e-08
4.58192e-08
5.69639e-08
7.06661e-08
8.61701e-08
1.02691e-07
1.19892e-07
1.36995e-07
1.53552e-07
1.70155e-07
1.88212e-07
2.09619e-07
2.35573e-07
2.6509e-07
2.95064e-07
3.24793e-07
3.5427e-07
3.84392e-07
4.15994e-07
4.48696e-07
4.8134e-07
5.1341e-07
5.44939e-07
5.76798e-07
6.09145e-07
6.42693e-07
6.7764e-07
7.14441e-07
7.53212e-07
7.94237e-07
8.3783e-07
8.84247e-07
9.34075e-07
9.87634e-07
1.0467e-06
1.11454e-06
1.19825e-06
1.28446e-06
1.37173e-06
1.45766e-06
1.54119e-06
1.61986e-06
1.69142e-06
1.75329e-06
1.80235e-06
1.8283e-06
1.83868e-06
1.83761e-06
1.80409e-06
1.74367e-06
1.65612e-06
1.54252e-06
1.40687e-06
1.25265e-06
1.08714e-06
9.18359e-07
7.53292e-07
5.98037e-07
4.59291e-07
3.46724e-07
2.52244e-07
1.75915e-07
1.17501e-07
7.5463e-08
4.6837e-08
2.81756e-08
1.61622e-08
7.63421e-09
1.62517e-09
4.6092e-09
3.26521e-07
1.17486e-06
1.98288e-06
2.58127e-06
2.93411e-06
3.09671e-06
3.15442e-06
3.19133e-06
3.26772e-06
3.45858e-06
3.83242e-06
4.35921e-06
4.97307e-06
5.61173e-06
6.21213e-06
6.72931e-06
7.11631e-06
7.35794e-06
7.46817e-06
7.52357e-06
7.59353e-06
7.74431e-06
8.0057e-06
8.32095e-06
8.54049e-06
8.74322e-06
8.973e-06
9.27588e-06
9.69039e-06
1.02262e-05
1.0815e-05
1.14543e-05
1.21112e-05
1.28071e-05
1.35256e-05
1.42771e-05
1.50552e-05
1.5867e-05
1.67082e-05
1.75731e-05
1.84666e-05
1.93843e-05
2.03559e-05
2.13454e-05
2.23231e-05
2.32596e-05
2.41057e-05
2.49636e-05
2.58415e-05
2.67264e-05
2.76059e-05
2.84636e-05
2.92795e-05
3.00309e-05
3.07641e-05
3.12399e-05
3.15337e-05
3.17481e-05
3.17393e-05
3.14021e-05
3.07573e-05
2.97866e-05
2.8471e-05
2.68174e-05
2.48718e-05
2.27343e-05
2.04299e-05
1.79882e-05
1.53579e-05
1.24647e-05
9.6666e-06
7.19641e-06
5.15581e-06
3.57371e-06
2.42819e-06
1.62199e-06
1.04732e-06
4.7333e-07
8.59685e-09
1.00792e-08
8.45423e-07
3.42162e-06
5.95437e-06
7.89745e-06
9.16205e-06
9.87497e-06
1.02359e-05
1.04528e-05
1.07046e-05
1.11204e-05
1.17811e-05
1.26618e-05
1.36637e-05
1.46601e-05
1.55379e-05
1.62472e-05
1.67626e-05
1.70829e-05
1.72227e-05
1.7204e-05
1.71173e-05
1.70443e-05
1.70253e-05
1.70958e-05
1.73416e-05
1.76606e-05
1.79802e-05
1.83245e-05
1.86889e-05
1.91609e-05
1.98207e-05
2.08e-05
2.17874e-05
2.29154e-05
2.40971e-05
2.53609e-05
2.66482e-05
2.79868e-05
2.94155e-05
3.08116e-05
3.22454e-05
3.36591e-05
3.49986e-05
3.62805e-05
3.75343e-05
3.87491e-05
3.99727e-05
4.12025e-05
4.24348e-05
4.36582e-05
4.4863e-05
4.60325e-05
4.71476e-05
4.81818e-05
4.91019e-05
4.98909e-05
5.04478e-05
5.07014e-05
5.08817e-05
5.07277e-05
5.0256e-05
4.94338e-05
4.81278e-05
4.62693e-05
4.3861e-05
4.11007e-05
3.79795e-05
3.45095e-05
3.07313e-05
2.6693e-05
2.25327e-05
1.84493e-05
1.46449e-05
1.12962e-05
8.46399e-06
6.21302e-06
4.27649e-06
1.77966e-06
2.29894e-08
1.74942e-08
1.38349e-06
5.36048e-06
9.17548e-06
1.21325e-05
1.41676e-05
1.54329e-05
1.61495e-05
1.65787e-05
1.69412e-05
1.74359e-05
1.81871e-05
1.91746e-05
2.02586e-05
2.12762e-05
2.21135e-05
2.2709e-05
2.30585e-05
2.31908e-05
2.31635e-05
2.30422e-05
2.29354e-05
2.29111e-05
2.30081e-05
2.30606e-05
2.30714e-05
2.30261e-05
2.33965e-05
2.41108e-05
2.50674e-05
2.63443e-05
2.75545e-05
2.87492e-05
3.00279e-05
3.13423e-05
3.26374e-05
3.39348e-05
3.5294e-05
3.65932e-05
3.78748e-05
3.91119e-05
4.03285e-05
4.15004e-05
4.26313e-05
4.37183e-05
4.47729e-05
4.58285e-05
4.68849e-05
4.79386e-05
4.8985e-05
5.00164e-05
5.10233e-05
5.19928e-05
5.29084e-05
5.37503e-05
5.44948e-05
5.51155e-05
5.55974e-05
5.5854e-05
5.59266e-05
5.57823e-05
5.53067e-05
5.45176e-05
5.37354e-05
5.24631e-05
5.05535e-05
4.81919e-05
4.53346e-05
4.20613e-05
3.84222e-05
3.44602e-05
3.02394e-05
2.58652e-05
2.1501e-05
1.73498e-05
1.3581e-05
1.03025e-05
7.21901e-06
2.98894e-06
3.82581e-08
2.80483e-08
2.07465e-06
7.43881e-06
1.23437e-05
1.60128e-05
1.84889e-05
2.00076e-05
2.08522e-05
2.13347e-05
2.17736e-05
2.24235e-05
2.33719e-05
2.45171e-05
2.56616e-05
2.66271e-05
2.73132e-05
2.7699e-05
2.78233e-05
2.77403e-05
2.75704e-05
2.73155e-05
2.714e-05
2.69811e-05
2.63555e-05
2.62695e-05
2.67593e-05
2.76978e-05
2.88243e-05
2.99859e-05
3.12826e-05
3.25504e-05
3.37824e-05
3.49942e-05
3.6178e-05
3.72781e-05
3.83015e-05
3.93269e-05
4.02919e-05
4.11229e-05
4.19054e-05
4.26053e-05
4.32534e-05
4.38661e-05
4.44691e-05
4.50863e-05
4.5721e-05
4.63506e-05
4.69879e-05
4.76336e-05
4.82916e-05
4.89636e-05
4.96498e-05
5.03487e-05
5.10556e-05
5.17634e-05
5.24603e-05
5.313e-05
5.37422e-05
5.42634e-05
5.46384e-05
5.47885e-05
5.47095e-05
5.42116e-05
5.31129e-05
5.22985e-05
5.11708e-05
4.93657e-05
4.70588e-05
4.4318e-05
4.11977e-05
3.77346e-05
3.39522e-05
2.98834e-05
2.56134e-05
2.13442e-05
1.72492e-05
1.34021e-05
9.4203e-06
3.83164e-06
4.87857e-08
4.31134e-08
3.00498e-06
9.89432e-06
1.58095e-05
1.99821e-05
2.2642e-05
2.41719e-05
2.4978e-05
2.54795e-05
2.60514e-05
2.69058e-05
2.80252e-05
2.9226e-05
3.02894e-05
3.10593e-05
3.14728e-05
3.15472e-05
3.14096e-05
3.09945e-05
3.06724e-05
3.01653e-05
2.92646e-05
2.91e-05
2.97795e-05
3.07304e-05
3.17463e-05
3.29023e-05
3.40594e-05
3.51704e-05
3.62422e-05
3.71615e-05
3.80445e-05
3.88576e-05
3.95584e-05
4.01291e-05
4.06311e-05
4.10378e-05
4.14378e-05
4.17387e-05
4.2002e-05
4.22344e-05
4.24549e-05
4.26553e-05
4.2844e-05
4.30272e-05
4.32042e-05
4.33804e-05
4.35645e-05
4.37653e-05
4.3993e-05
4.42595e-05
4.45768e-05
4.49571e-05
4.54102e-05
4.59376e-05
4.65311e-05
4.72077e-05
4.79364e-05
4.86896e-05
4.94113e-05
5.00751e-05
5.05454e-05
5.07186e-05
5.06007e-05
4.97341e-05
4.92662e-05
4.80658e-05
4.63099e-05
4.40604e-05
4.14099e-05
3.84323e-05
3.51595e-05
3.15761e-05
2.76492e-05
2.35192e-05
1.93218e-05
1.51972e-05
1.07132e-05
4.23416e-06
5.26236e-08
6.40281e-08
4.21855e-06
1.27606e-05
1.95753e-05
2.40592e-05
2.67121e-05
2.81116e-05
2.88201e-05
2.9351e-05
3.00633e-05
3.10631e-05
3.22263e-05
3.33252e-05
3.4159e-05
3.46224e-05
3.47079e-05
3.42464e-05
3.37923e-05
3.33584e-05
3.21705e-05
3.18212e-05
3.22682e-05
3.31196e-05
3.38665e-05
3.47607e-05
3.56541e-05
3.65549e-05
3.73401e-05
3.80264e-05
3.8638e-05
3.91806e-05
3.96281e-05
3.99789e-05
4.02361e-05
4.04183e-05
4.05484e-05
4.06288e-05
4.06797e-05
4.06729e-05
4.06628e-05
4.065e-05
4.05863e-05
4.0526e-05
4.04373e-05
4.03479e-05
4.02377e-05
4.01221e-05
3.99957e-05
3.987e-05
3.97496e-05
3.96489e-05
3.95852e-05
3.95856e-05
3.96902e-05
3.99432e-05
4.02826e-05
4.08212e-05
4.1547e-05
4.24329e-05
4.33958e-05
4.4458e-05
4.54732e-05
4.64029e-05
4.68792e-05
4.6976e-05
4.64337e-05
4.62383e-05
4.50382e-05
4.31871e-05
4.0826e-05
3.80982e-05
3.51155e-05
3.19194e-05
2.84334e-05
2.45258e-05
2.04864e-05
1.61104e-05
1.10123e-05
4.22338e-06
5.10968e-08
9.20368e-08
5.73529e-06
1.59686e-05
2.35364e-05
2.81529e-05
3.0669e-05
3.18748e-05
3.24807e-05
3.30399e-05
3.3835e-05
3.48543e-05
3.58991e-05
3.67336e-05
3.71906e-05
3.72362e-05
3.67129e-05
3.62441e-05
3.5224e-05
3.44708e-05
3.43931e-05
3.4917e-05
3.53083e-05
3.5929e-05
3.65431e-05
3.72895e-05
3.79197e-05
3.84858e-05
3.89235e-05
3.92773e-05
3.95461e-05
3.97391e-05
3.98586e-05
3.99202e-05
3.99377e-05
3.99265e-05
3.98957e-05
3.9847e-05
3.97852e-05
3.97092e-05
3.96312e-05
3.95031e-05
3.94167e-05
3.93382e-05
3.91503e-05
3.90171e-05
3.88385e-05
3.86597e-05
3.846e-05
3.82452e-05
3.80107e-05
3.77576e-05
3.7482e-05
3.71818e-05
3.68523e-05
3.65045e-05
3.63269e-05
3.62878e-05
3.65558e-05
3.72442e-05
3.80705e-05
3.92321e-05
4.05468e-05
4.1913e-05
4.31955e-05
4.40156e-05
4.42329e-05
4.40146e-05
4.39792e-05
4.26089e-05
4.05117e-05
3.7873e-05
3.48894e-05
3.17451e-05
2.85116e-05
2.4982e-05
2.09595e-05
1.66044e-05
1.11784e-05
4.11308e-06
4.74958e-08
1.2802e-07
7.53907e-06
1.94289e-05
2.75377e-05
3.21697e-05
3.44763e-05
3.54682e-05
3.59694e-05
3.65174e-05
3.72931e-05
3.81899e-05
3.89767e-05
3.94456e-05
3.93357e-05
3.88528e-05
3.83546e-05
3.70464e-05
3.65318e-05
3.65662e-05
3.66173e-05
3.68807e-05
3.73125e-05
3.7826e-05
3.83001e-05
3.87608e-05
3.90873e-05
3.93416e-05
3.94981e-05
3.96021e-05
3.96542e-05
3.96752e-05
3.96749e-05
3.96677e-05
3.96597e-05
3.96544e-05
3.96513e-05
3.96487e-05
3.9644e-05
3.96309e-05
3.95918e-05
3.95625e-05
3.95412e-05
3.94489e-05
3.93611e-05
3.92594e-05
3.91279e-05
3.89785e-05
3.88018e-05
3.85988e-05
3.8364e-05
3.80967e-05
3.77904e-05
3.74386e-05
3.70354e-05
3.65689e-05
3.60422e-05
3.54479e-05
3.48089e-05
3.42121e-05
3.43147e-05
3.49699e-05
3.61058e-05
3.75612e-05
3.92e-05
4.08252e-05
4.18908e-05
4.21954e-05
4.22215e-05
4.22903e-05
4.06754e-05
3.82457e-05
3.52014e-05
3.18306e-05
2.84072e-05
2.49671e-05
2.11587e-05
1.66425e-05
1.09295e-05
3.82402e-06
4.34469e-08
1.72331e-07
9.55432e-06
2.29728e-05
3.14968e-05
3.60509e-05
3.8107e-05
3.88744e-05
3.92465e-05
3.97092e-05
4.03465e-05
4.0991e-05
4.14145e-05
4.1196e-05
4.06554e-05
4.00827e-05
3.89833e-05
3.84162e-05
3.81735e-05
3.79245e-05
3.80778e-05
3.83309e-05
3.86638e-05
3.89805e-05
3.92298e-05
3.94196e-05
3.95166e-05
3.9577e-05
3.95986e-05
3.96191e-05
3.9641e-05
3.96808e-05
3.97394e-05
3.98187e-05
3.99137e-05
4.00182e-05
4.01231e-05
4.02188e-05
4.03141e-05
4.03707e-05
4.03991e-05
4.04451e-05
4.04267e-05
4.03884e-05
4.03241e-05
4.02319e-05
4.01119e-05
3.99681e-05
3.98005e-05
3.96126e-05
3.94033e-05
3.9165e-05
3.88917e-05
3.85721e-05
3.81885e-05
3.77325e-05
3.7182e-05
3.65177e-05
3.57292e-05
3.48372e-05
3.39119e-05
3.29994e-05
3.28453e-05
3.37648e-05
3.5214e-05
3.70816e-05
3.89587e-05
4.03035e-05
4.07148e-05
4.08442e-05
4.08967e-05
3.90158e-05
3.61721e-05
3.26355e-05
2.88044e-05
2.50054e-05
2.11303e-05
1.66053e-05
1.06741e-05
3.55931e-06
4.01628e-08
2.25671e-07
1.16178e-05
2.64598e-05
3.5327e-05
3.97501e-05
4.15327e-05
4.20573e-05
4.22509e-05
4.25356e-05
4.29185e-05
4.32043e-05
4.2895e-05
4.22627e-05
4.16147e-05
4.06812e-05
3.99908e-05
3.94016e-05
3.90869e-05
3.89687e-05
3.91e-05
3.9248e-05
3.94147e-05
3.95294e-05
3.95934e-05
3.96236e-05
3.96305e-05
3.9656e-05
3.9704e-05
3.97948e-05
3.99228e-05
4.00891e-05
4.02821e-05
4.04929e-05
4.07078e-05
4.09275e-05
4.11485e-05
4.12898e-05
4.13995e-05
4.15714e-05
4.1634e-05
4.16978e-05
4.17052e-05
4.16885e-05
4.16332e-05
4.15451e-05
4.14229e-05
4.12692e-05
4.1084e-05
4.08686e-05
4.06232e-05
4.03484e-05
4.00451e-05
3.97137e-05
3.93539e-05
3.89634e-05
3.8519e-05
3.79678e-05
3.7261e-05
3.63787e-05
3.53148e-05
3.41175e-05
3.29154e-05
3.18386e-05
3.19605e-05
3.3422e-05
3.52904e-05
3.74289e-05
3.90293e-05
3.95427e-05
3.96904e-05
3.96083e-05
3.73856e-05
3.40484e-05
2.99864e-05
2.56497e-05
2.13553e-05
1.66084e-05
1.06631e-05
3.50061e-06
3.91477e-08
2.90708e-07
1.35195e-05
2.97947e-05
3.89681e-05
4.32305e-05
4.47214e-05
4.49715e-05
4.49204e-05
4.49305e-05
4.49574e-05
4.45383e-05
4.37931e-05
4.3089e-05
4.22266e-05
4.14402e-05
4.05189e-05
4.0029e-05
3.97574e-05
3.96654e-05
3.96972e-05
3.97126e-05
3.97313e-05
3.97201e-05
3.97113e-05
3.97258e-05
3.97835e-05
3.99036e-05
4.00812e-05
4.03158e-05
4.05907e-05
4.08947e-05
4.12107e-05
4.15393e-05
4.18742e-05
4.21665e-05
4.23604e-05
4.258e-05
4.28047e-05
4.29633e-05
4.30753e-05
4.31576e-05
4.31934e-05
4.31943e-05
4.31534e-05
4.30745e-05
4.29566e-05
4.28014e-05
4.26093e-05
4.23813e-05
4.21179e-05
4.18193e-05
4.14851e-05
4.11141e-05
4.07043e-05
4.02535e-05
3.97602e-05
3.92238e-05
3.86407e-05
3.79426e-05
3.70334e-05
3.58672e-05
3.45068e-05
3.30396e-05
3.17011e-05
3.07896e-05
3.19354e-05
3.37733e-05
3.61323e-05
3.79072e-05
3.8483e-05
3.85528e-05
3.82321e-05
3.55434e-05
3.1684e-05
2.70873e-05
2.21835e-05
1.70594e-05
1.09246e-05
3.65376e-06
4.06902e-08
3.63051e-07
1.54042e-05
3.29672e-05
4.23863e-05
4.64624e-05
4.76405e-05
4.75733e-05
4.72038e-05
4.68489e-05
4.62506e-05
4.53575e-05
4.46127e-05
4.37225e-05
4.28118e-05
4.16562e-05
4.08812e-05
4.04422e-05
4.01741e-05
4.00395e-05
3.99627e-05
3.98848e-05
3.98365e-05
3.98141e-05
3.98547e-05
3.9969e-05
4.01646e-05
4.0437e-05
4.07695e-05
4.11473e-05
4.15501e-05
4.19632e-05
4.23879e-05
4.28032e-05
4.31776e-05
4.3488e-05
4.37853e-05
4.40454e-05
4.42948e-05
4.45019e-05
4.46523e-05
4.47649e-05
4.48324e-05
4.48573e-05
4.48371e-05
4.47728e-05
4.46641e-05
4.45117e-05
4.43163e-05
4.40792e-05
4.38013e-05
4.34835e-05
4.31262e-05
4.27282e-05
4.2287e-05
4.17982e-05
4.12561e-05
4.0655e-05
3.99921e-05
3.92709e-05
3.84948e-05
3.75548e-05
3.63422e-05
3.48491e-05
3.31785e-05
3.15221e-05
3.02338e-05
3.0674e-05
3.25223e-05
3.49924e-05
3.68465e-05
3.74068e-05
3.73032e-05
3.65393e-05
3.33178e-05
2.89436e-05
2.37433e-05
1.81402e-05
1.17572e-05
4.12694e-06
4.6948e-08
4.40601e-07
1.72348e-05
3.59343e-05
4.5549e-05
4.94201e-05
5.0263e-05
4.98306e-05
4.90694e-05
4.81756e-05
4.70668e-05
4.62724e-05
4.51948e-05
4.41558e-05
4.28251e-05
4.17717e-05
4.10883e-05
4.06588e-05
4.03663e-05
4.0178e-05
4.00408e-05
3.99498e-05
3.99354e-05
4.00038e-05
4.01766e-05
4.04458e-05
4.08019e-05
4.12246e-05
4.16924e-05
4.21864e-05
4.26891e-05
4.3188e-05
4.36732e-05
4.41292e-05
4.45585e-05
4.49549e-05
4.53033e-05
4.56345e-05
4.58908e-05
4.61401e-05
4.63623e-05
4.65101e-05
4.66166e-05
4.66732e-05
4.66784e-05
4.66323e-05
4.65335e-05
4.63826e-05
4.61801e-05
4.59276e-05
4.56271e-05
4.52813e-05
4.48925e-05
4.44624e-05
4.39909e-05
4.34753e-05
4.29091e-05
4.22818e-05
4.15803e-05
4.07932e-05
3.99187e-05
3.89745e-05
3.79319e-05
3.66585e-05
3.50289e-05
3.32201e-05
3.13843e-05
2.9864e-05
2.96588e-05
3.14586e-05
3.39853e-05
3.58018e-05
3.62139e-05
3.5968e-05
3.43605e-05
3.06557e-05
2.56295e-05
1.97667e-05
1.30479e-05
5.00573e-06
6.17338e-08
5.20835e-07
1.89702e-05
3.86563e-05
4.84313e-05
5.20862e-05
5.25779e-05
5.17445e-05
5.04971e-05
4.90901e-05
4.81891e-05
4.67492e-05
4.55739e-05
4.40622e-05
4.27566e-05
4.1794e-05
4.11562e-05
4.07172e-05
4.04058e-05
4.02009e-05
4.00797e-05
4.00599e-05
4.01592e-05
4.03766e-05
4.071e-05
4.11367e-05
4.16357e-05
4.21823e-05
4.27555e-05
4.33384e-05
4.39175e-05
4.44831e-05
4.50275e-05
4.55443e-05
4.60327e-05
4.64876e-05
4.69209e-05
4.73246e-05
4.76409e-05
4.79107e-05
4.81898e-05
4.84147e-05
4.85579e-05
4.86561e-05
4.8691e-05
4.86665e-05
4.85789e-05
4.84284e-05
4.82149e-05
4.79399e-05
4.76061e-05
4.72174e-05
4.67785e-05
4.62949e-05
4.5771e-05
4.52097e-05
4.46098e-05
4.3964e-05
4.32574e-05
4.24673e-05
4.1567e-05
4.05368e-05
3.93842e-05
3.80986e-05
3.66632e-05
3.50211e-05
3.3092e-05
3.11588e-05
2.9385e-05
2.87986e-05
3.04902e-05
3.3137e-05
3.46752e-05
3.48142e-05
3.44353e-05
3.17976e-05
2.73097e-05
2.15447e-05
1.46181e-05
6.01181e-06
8.5e-08
6.01252e-07
2.05745e-05
4.11078e-05
5.10229e-05
5.44521e-05
5.45947e-05
5.32709e-05
5.16277e-05
5.03888e-05
4.85803e-05
4.71508e-05
4.54435e-05
4.38804e-05
4.26295e-05
4.1734e-05
4.11175e-05
4.06791e-05
4.0384e-05
4.02225e-05
4.01899e-05
4.0301e-05
4.05535e-05
4.09324e-05
4.14173e-05
4.19791e-05
4.25938e-05
4.32385e-05
4.38962e-05
4.45542e-05
4.5203e-05
4.58363e-05
4.6449e-05
4.70379e-05
4.76004e-05
4.81328e-05
4.86324e-05
4.91132e-05
4.95453e-05
4.98381e-05
5.01483e-05
5.04788e-05
5.0662e-05
5.08073e-05
5.08771e-05
5.08786e-05
5.0806e-05
5.06586e-05
5.04354e-05
5.01371e-05
4.97658e-05
4.93255e-05
4.88223e-05
4.82639e-05
4.76594e-05
4.7018e-05
4.63469e-05
4.56489e-05
4.49188e-05
4.41393e-05
4.32792e-05
4.22943e-05
4.11379e-05
3.98447e-05
3.83508e-05
3.64895e-05
3.47198e-05
3.28316e-05
3.0787e-05
2.87875e-05
2.8026e-05
2.96668e-05
3.22329e-05
3.35652e-05
3.31699e-05
3.21997e-05
2.84628e-05
2.30924e-05
1.62111e-05
7.04153e-06
1.14731e-07
6.80519e-07
2.19951e-05
4.32838e-05
5.33605e-05
5.64896e-05
5.61094e-05
5.45185e-05
5.28346e-05
5.07574e-05
4.89739e-05
4.70486e-05
4.52105e-05
4.36499e-05
4.24598e-05
4.16131e-05
4.10198e-05
4.06148e-05
4.03846e-05
4.0323e-05
4.04267e-05
4.06936e-05
4.11033e-05
4.16292e-05
4.22426e-05
4.29147e-05
4.36238e-05
4.43517e-05
4.50861e-05
4.5818e-05
4.65414e-05
4.72516e-05
4.79448e-05
4.86172e-05
4.92646e-05
4.98821e-05
5.04645e-05
5.10216e-05
5.15419e-05
5.19152e-05
5.22642e-05
5.26591e-05
5.29096e-05
5.30982e-05
5.32082e-05
5.32395e-05
5.31876e-05
5.30498e-05
5.28241e-05
5.25096e-05
5.21071e-05
5.16191e-05
5.10511e-05
5.0411e-05
4.97098e-05
4.89608e-05
4.81788e-05
4.7377e-05
4.65641e-05
4.57388e-05
4.48841e-05
4.39619e-05
4.29109e-05
4.16527e-05
4.02411e-05
3.85458e-05
3.62782e-05
3.42892e-05
3.24173e-05
3.02482e-05
2.80583e-05
2.73526e-05
2.89431e-05
3.11493e-05
3.20934e-05
3.13079e-05
2.89797e-05
2.42245e-05
1.76187e-05
7.96403e-06
1.49066e-07
7.56698e-07
2.32651e-05
4.51884e-05
5.52782e-05
5.80286e-05
5.74889e-05
5.59211e-05
5.36438e-05
5.11465e-05
4.89603e-05
4.68248e-05
4.49233e-05
4.33952e-05
4.22637e-05
4.14629e-05
4.09156e-05
4.05851e-05
4.04634e-05
4.05383e-05
4.07963e-05
4.12171e-05
4.17686e-05
4.24192e-05
4.31395e-05
4.39047e-05
4.46975e-05
4.55045e-05
4.63173e-05
4.71299e-05
4.79373e-05
4.87352e-05
4.95187e-05
5.02826e-05
5.10208e-05
5.17268e-05
5.23941e-05
5.30297e-05
5.36318e-05
5.40857e-05
5.44782e-05
5.49227e-05
5.5244e-05
5.54733e-05
5.56244e-05
5.56884e-05
5.56624e-05
5.55422e-05
5.53246e-05
5.5007e-05
5.45879e-05
5.40678e-05
5.34495e-05
5.2739e-05
5.19463e-05
5.10855e-05
5.01748e-05
4.92348e-05
4.82864e-05
4.73453e-05
4.64163e-05
4.54843e-05
4.45061e-05
4.34026e-05
4.20597e-05
4.05437e-05
3.84326e-05
3.5948e-05
3.37343e-05
3.18356e-05
2.94663e-05
2.70537e-05
2.67827e-05
2.84491e-05
2.99398e-05
3.01048e-05
2.9e-05
2.49179e-05
1.87083e-05
8.70692e-06
1.86387e-07
8.26962e-07
2.4348e-05
4.67187e-05
5.67571e-05
5.92615e-05
5.89064e-05
5.675e-05
5.39387e-05
5.13617e-05
4.88085e-05
4.65316e-05
4.46135e-05
4.31337e-05
4.20611e-05
4.13185e-05
4.08488e-05
4.0629e-05
4.06434e-05
4.08682e-05
4.12767e-05
4.18359e-05
4.25093e-05
4.32656e-05
4.40785e-05
4.49287e-05
4.5803e-05
4.66924e-05
4.75906e-05
4.84924e-05
4.93927e-05
5.02854e-05
5.11642e-05
5.20215e-05
5.28496e-05
5.36408e-05
5.43875e-05
5.50962e-05
5.57708e-05
5.62925e-05
5.67245e-05
5.72119e-05
5.7594e-05
5.78607e-05
5.80495e-05
5.81465e-05
5.81495e-05
5.80537e-05
5.78549e-05
5.75487e-05
5.71318e-05
5.66015e-05
5.59575e-05
5.52021e-05
5.43417e-05
5.33878e-05
5.23577e-05
5.12745e-05
5.01659e-05
4.90607e-05
4.79835e-05
4.69457e-05
4.59358e-05
4.4907e-05
4.37668e-05
4.23691e-05
4.06077e-05
3.80989e-05
3.5442e-05
3.30645e-05
3.10543e-05
2.83549e-05
2.5824e-05
2.61044e-05
2.79394e-05
2.89867e-05
2.79089e-05
2.51255e-05
1.94341e-05
9.26781e-06
2.25444e-07
8.88769e-07
2.52163e-05
4.78716e-05
5.78684e-05
6.04849e-05
5.99219e-05
5.74369e-05
5.4321e-05
5.13186e-05
4.85665e-05
4.62048e-05
4.4302e-05
4.28798e-05
4.18734e-05
4.12099e-05
4.08473e-05
4.0761e-05
4.09215e-05
4.12925e-05
4.18372e-05
4.25167e-05
4.32953e-05
4.41448e-05
4.50437e-05
4.59777e-05
4.69371e-05
4.79151e-05
4.8906e-05
4.99037e-05
5.09011e-05
5.18902e-05
5.28623e-05
5.38081e-05
5.47187e-05
5.55854e-05
5.64004e-05
5.71676e-05
5.79014e-05
5.84801e-05
5.89403e-05
5.94593e-05
5.98897e-05
6.01874e-05
6.04077e-05
6.05347e-05
6.05669e-05
6.04994e-05
6.03273e-05
6.00454e-05
5.96483e-05
5.91307e-05
5.84888e-05
5.77205e-05
5.68271e-05
5.58151e-05
5.46971e-05
5.34937e-05
5.22336e-05
5.09521e-05
4.96871e-05
4.84722e-05
4.73253e-05
4.62357e-05
4.51496e-05
4.3956e-05
4.24763e-05
4.0392e-05
3.75634e-05
3.47606e-05
3.22813e-05
3.00403e-05
2.70267e-05
2.48578e-05
2.54301e-05
2.66484e-05
2.68709e-05
2.50346e-05
1.98091e-05
9.61076e-06
2.66299e-07
9.40711e-07
2.58754e-05
4.8697e-05
5.8741e-05
6.13958e-05
6.06486e-05
5.77337e-05
5.44321e-05
5.11729e-05
4.82721e-05
4.58686e-05
4.40024e-05
4.26465e-05
4.17192e-05
4.11567e-05
4.09214e-05
4.09771e-05
4.128e-05
4.1785e-05
4.24496e-05
4.32344e-05
4.4107e-05
4.50436e-05
4.60275e-05
4.70482e-05
4.8098e-05
4.91703e-05
5.02581e-05
5.13534e-05
5.24465e-05
5.35272e-05
5.45846e-05
5.56084e-05
5.65887e-05
5.75169e-05
5.83858e-05
5.9192e-05
5.997e-05
6.05985e-05
6.10703e-05
6.16058e-05
6.20724e-05
6.23923e-05
6.26357e-05
6.2787e-05
6.28453e-05
6.28063e-05
6.26651e-05
6.24159e-05
6.20522e-05
6.15667e-05
6.09523e-05
6.02027e-05
5.93138e-05
5.82854e-05
5.71232e-05
5.58415e-05
5.44644e-05
5.30271e-05
5.1574e-05
5.01539e-05
4.88102e-05
4.75671e-05
4.64125e-05
4.52794e-05
4.40253e-05
4.23458e-05
3.9762e-05
3.67925e-05
3.39424e-05
3.13323e-05
2.8679e-05
2.53241e-05
2.41191e-05
2.50369e-05
2.57329e-05
2.43164e-05
1.98358e-05
9.76184e-06
3.08344e-07
9.82038e-07
2.63292e-05
4.92462e-05
5.93328e-05
6.20726e-05
6.1171e-05
5.81097e-05
5.4439e-05
5.09594e-05
4.79524e-05
4.55393e-05
4.37248e-05
4.24446e-05
4.16111e-05
4.11667e-05
4.10675e-05
4.12627e-05
4.16975e-05
4.23221e-05
4.30927e-05
4.39722e-05
4.49326e-05
4.59548e-05
4.70258e-05
4.81371e-05
4.92811e-05
5.04501e-05
5.16346e-05
5.28239e-05
5.40058e-05
5.5168e-05
5.62983e-05
5.73857e-05
5.84203e-05
5.93937e-05
6.02993e-05
6.11317e-05
6.19346e-05
6.26082e-05
6.30742e-05
6.36087e-05
6.41005e-05
6.44326e-05
6.46893e-05
6.48572e-05
6.49358e-05
6.49219e-05
6.48113e-05
6.45984e-05
6.42761e-05
6.38361e-05
6.32687e-05
6.25643e-05
6.17135e-05
6.07095e-05
5.95501e-05
5.82404e-05
5.67962e-05
5.52461e-05
5.36332e-05
5.20128e-05
5.04456e-05
4.89857e-05
4.76627e-05
4.64626e-05
4.53096e-05
4.4051e-05
4.1906e-05
3.88657e-05
3.59274e-05
3.29101e-05
3.01298e-05
2.6853e-05
2.35704e-05
2.32314e-05
2.35662e-05
2.33227e-05
1.97211e-05
9.91009e-06
3.54941e-07
1.01259e-06
2.65922e-05
4.95554e-05
5.96689e-05
6.25775e-05
6.14204e-05
5.82294e-05
5.43529e-05
5.07036e-05
4.76263e-05
4.52274e-05
4.34761e-05
4.22815e-05
4.15548e-05
4.12378e-05
4.12742e-05
4.15999e-05
4.2154e-05
4.28854e-05
4.37516e-05
4.47194e-05
4.57652e-05
4.68736e-05
4.80342e-05
4.92385e-05
5.04777e-05
5.17416e-05
5.30178e-05
5.42929e-05
5.55526e-05
5.67831e-05
5.79718e-05
5.91075e-05
6.01806e-05
6.11837e-05
6.21108e-05
6.29572e-05
6.3765e-05
6.44797e-05
6.49294e-05
6.54437e-05
6.59505e-05
6.6285e-05
6.6545e-05
6.67203e-05
6.68114e-05
6.68163e-05
6.67321e-05
6.65539e-05
6.62752e-05
6.58872e-05
6.5379e-05
6.47383e-05
6.39518e-05
6.30067e-05
6.1893e-05
6.06059e-05
5.91502e-05
5.75438e-05
5.58214e-05
5.40364e-05
5.22568e-05
5.05567e-05
4.89978e-05
4.7606e-05
4.63455e-05
4.50949e-05
4.36269e-05
4.1003e-05
3.78234e-05
3.47773e-05
3.15225e-05
2.85194e-05
2.45471e-05
2.24902e-05
2.24939e-05
2.25986e-05
1.96029e-05
1.02806e-05
4.15211e-07
1.03288e-06
2.66897e-05
4.96113e-05
5.97199e-05
6.27463e-05
6.16921e-05
5.82577e-05
5.4203e-05
5.04255e-05
4.7307e-05
4.49396e-05
4.32608e-05
4.21608e-05
4.15495e-05
4.13618e-05
4.15273e-05
4.19723e-05
4.26339e-05
4.34618e-05
4.44165e-05
4.54689e-05
4.65995e-05
4.77953e-05
4.90465e-05
5.03435e-05
5.16751e-05
5.3028e-05
5.43872e-05
5.57368e-05
5.70613e-05
5.83462e-05
5.95788e-05
6.07486e-05
6.18469e-05
6.28674e-05
6.38054e-05
6.46582e-05
6.54481e-05
6.61721e-05
6.66358e-05
6.71033e-05
6.76155e-05
6.79436e-05
6.81972e-05
6.83704e-05
6.84647e-05
6.84801e-05
6.8415e-05
6.8266e-05
6.80277e-05
6.76917e-05
6.72472e-05
6.66803e-05
6.5975e-05
6.51141e-05
6.40803e-05
6.28599e-05
6.14456e-05
5.98423e-05
5.80716e-05
5.61769e-05
5.42248e-05
5.23006e-05
5.04944e-05
4.88787e-05
4.74797e-05
4.62494e-05
4.50429e-05
4.29365e-05
3.97511e-05
3.6668e-05
3.32965e-05
2.9758e-05
2.61221e-05
2.22475e-05
2.12184e-05
2.10063e-05
1.928e-05
1.09257e-05
4.96371e-07
1.04291e-06
2.66182e-05
4.94089e-05
5.96482e-05
6.28792e-05
6.17243e-05
5.81943e-05
5.40095e-05
5.01398e-05
4.70034e-05
4.46801e-05
4.3081e-05
4.20824e-05
4.15902e-05
4.15282e-05
4.18132e-05
4.23664e-05
4.31253e-05
4.4042e-05
4.50805e-05
4.62154e-05
4.74303e-05
4.87133e-05
5.00538e-05
5.14401e-05
5.28579e-05
5.4291e-05
5.57221e-05
5.71338e-05
5.85098e-05
5.98358e-05
6.10997e-05
6.22917e-05
6.34044e-05
6.44324e-05
6.53723e-05
6.62225e-05
6.6983e-05
6.77022e-05
6.81876e-05
6.85938e-05
6.91016e-05
6.94162e-05
6.96545e-05
6.98164e-05
6.99045e-05
6.99207e-05
6.98654e-05
6.9737e-05
6.95315e-05
6.92423e-05
6.8859e-05
6.83679e-05
6.77516e-05
6.69896e-05
6.60596e-05
6.49397e-05
6.36117e-05
6.20664e-05
6.03096e-05
5.8369e-05
5.63e-05
5.41859e-05
5.21298e-05
5.0234e-05
4.85682e-05
4.71342e-05
4.58379e-05
4.44708e-05
4.17236e-05
3.83624e-05
3.51067e-05
3.15374e-05
2.76363e-05
2.32034e-05
2.08513e-05
1.96126e-05
1.88049e-05
1.1601e-05
5.97683e-07
1.04224e-06
2.6447e-05
4.91554e-05
5.94248e-05
6.28726e-05
6.16532e-05
5.80611e-05
5.37883e-05
4.98577e-05
4.67214e-05
4.44512e-05
4.29369e-05
4.20435e-05
4.16696e-05
4.17261e-05
4.21205e-05
4.2772e-05
4.36199e-05
4.46193e-05
4.57379e-05
4.69535e-05
4.82514e-05
4.96196e-05
5.10456e-05
5.25147e-05
5.40101e-05
5.55128e-05
5.7004e-05
5.84655e-05
5.9881e-05
6.12367e-05
6.25213e-05
6.37263e-05
6.48449e-05
6.58727e-05
6.68067e-05
6.76451e-05
6.83868e-05
6.90841e-05
6.95923e-05
6.99332e-05
7.04228e-05
7.07196e-05
7.09355e-05
7.10775e-05
7.11503e-05
7.11574e-05
7.11014e-05
7.09828e-05
7.08e-05
7.05481e-05
7.02184e-05
6.97983e-05
6.92702e-05
6.86123e-05
6.77989e-05
6.6802e-05
6.55939e-05
6.41524e-05
6.24667e-05
6.0546e-05
5.84282e-05
5.61861e-05
5.39264e-05
5.17753e-05
4.98488e-05
4.82111e-05
4.68359e-05
4.5587e-05
4.34637e-05
4.0084e-05
3.69976e-05
3.30626e-05
2.90084e-05
2.46836e-05
2.07372e-05
1.91078e-05
1.83986e-05
1.22284e-05
7.14962e-07
1.03662e-06
2.61793e-05
4.87271e-05
5.90072e-05
6.26545e-05
6.14793e-05
5.78731e-05
5.35517e-05
4.95871e-05
4.64649e-05
4.42538e-05
4.28272e-05
4.20397e-05
4.17798e-05
4.19462e-05
4.244e-05
4.3181e-05
4.4111e-05
4.51883e-05
4.63836e-05
4.76775e-05
4.90556e-05
5.05046e-05
5.20098e-05
5.35536e-05
5.51164e-05
5.66777e-05
5.82176e-05
5.97178e-05
6.11625e-05
6.25389e-05
6.38366e-05
6.50481e-05
6.61675e-05
6.71909e-05
6.81158e-05
6.89407e-05
6.96654e-05
7.03262e-05
7.08513e-05
7.1162e-05
7.15936e-05
7.18754e-05
7.20634e-05
7.21785e-05
7.22275e-05
7.2216e-05
7.21487e-05
7.20286e-05
7.18564e-05
7.16297e-05
7.13423e-05
7.09832e-05
7.05361e-05
6.99794e-05
6.92856e-05
6.84226e-05
6.73559e-05
6.60518e-05
6.4484e-05
6.2642e-05
6.05416e-05
5.8236e-05
5.58213e-05
5.34309e-05
5.1211e-05
4.92766e-05
4.76579e-05
4.62566e-05
4.48285e-05
4.18805e-05
3.8445e-05
3.50051e-05
3.06338e-05
2.60861e-05
2.09602e-05
1.86281e-05
1.73706e-05
1.28674e-05
8.35034e-07
1.02424e-06
2.58559e-05
4.80434e-05
5.84749e-05
6.23045e-05
6.12182e-05
5.76426e-05
5.33091e-05
4.93338e-05
4.62362e-05
4.40875e-05
4.27495e-05
4.20657e-05
4.19133e-05
4.21805e-05
4.27648e-05
4.35875e-05
4.45934e-05
4.57438e-05
4.70124e-05
4.83809e-05
4.98346e-05
5.13583e-05
5.29347e-05
5.45437e-05
5.61636e-05
5.77728e-05
5.93511e-05
6.08806e-05
6.23466e-05
6.37372e-05
6.50431e-05
6.62575e-05
6.73753e-05
6.83932e-05
6.9309e-05
7.01221e-05
7.08331e-05
7.14499e-05
7.19739e-05
7.22849e-05
7.26431e-05
7.29063e-05
7.30628e-05
7.31453e-05
7.31633e-05
7.31246e-05
7.30361e-05
7.29031e-05
7.27291e-05
7.25145e-05
7.22557e-05
7.19444e-05
7.15666e-05
7.11017e-05
7.05224e-05
6.97947e-05
6.88793e-05
6.77339e-05
6.63189e-05
6.46048e-05
6.25844e-05
6.02862e-05
5.7787e-05
5.52155e-05
5.27384e-05
5.05212e-05
4.86694e-05
4.71703e-05
4.58595e-05
4.34033e-05
3.98721e-05
3.6899e-05
3.20405e-05
2.73818e-05
2.22679e-05
1.85301e-05
1.62633e-05
1.33467e-05
9.30315e-07
1.00498e-06
2.54367e-05
4.72906e-05
5.78509e-05
6.18373e-05
6.08829e-05
5.73796e-05
5.30676e-05
4.91018e-05
4.60367e-05
4.39516e-05
4.27006e-05
4.21162e-05
4.20637e-05
4.24226e-05
4.30889e-05
4.39863e-05
4.50623e-05
4.62812e-05
4.76185e-05
4.90567e-05
5.05798e-05
5.21707e-05
5.38094e-05
5.54736e-05
5.71405e-05
5.87879e-05
6.0396e-05
6.19476e-05
6.34292e-05
6.48297e-05
6.61411e-05
6.73572e-05
6.84733e-05
6.94864e-05
7.03942e-05
7.11956e-05
7.18905e-05
7.24792e-05
7.29935e-05
7.33082e-05
7.35927e-05
7.38332e-05
7.39559e-05
7.40017e-05
7.39832e-05
7.39102e-05
7.37916e-05
7.36354e-05
7.34477e-05
7.32319e-05
7.29876e-05
7.27093e-05
7.23859e-05
7.19994e-05
7.15237e-05
7.09249e-05
7.0161e-05
6.91839e-05
6.79435e-05
6.63939e-05
6.45052e-05
6.22783e-05
5.97621e-05
5.70667e-05
5.43601e-05
5.18388e-05
4.96663e-05
4.78992e-05
4.6437e-05
4.46681e-05
4.11992e-05
3.83341e-05
3.40134e-05
2.88492e-05
2.35927e-05
1.8955e-05
1.56515e-05
1.35347e-05
9.73529e-07
9.7994e-07
2.49144e-05
4.64263e-05
5.71312e-05
6.1275e-05
6.04859e-05
5.70924e-05
5.28326e-05
4.88939e-05
4.58668e-05
4.38447e-05
4.26773e-05
4.21864e-05
4.22254e-05
4.26672e-05
4.34078e-05
4.43731e-05
4.55134e-05
4.67955e-05
4.81962e-05
4.96978e-05
5.12831e-05
5.29325e-05
5.46241e-05
5.6334e-05
5.80386e-05
5.97159e-05
6.13467e-05
6.2915e-05
6.44083e-05
6.58166e-05
6.71327e-05
6.83508e-05
6.94666e-05
7.04769e-05
7.1379e-05
7.21712e-05
7.28525e-05
7.34222e-05
7.39225e-05
7.42407e-05
7.44588e-05
7.46728e-05
7.47606e-05
7.47673e-05
7.47083e-05
7.45953e-05
7.44395e-05
7.42513e-05
7.40394e-05
7.38102e-05
7.35665e-05
7.33063e-05
7.30218e-05
7.26979e-05
7.23112e-05
7.18292e-05
7.12094e-05
7.04007e-05
6.93453e-05
6.79843e-05
6.62674e-05
6.41683e-05
6.17044e-05
5.89578e-05
5.6085e-05
5.33013e-05
5.0826e-05
4.87949e-05
4.71771e-05
4.57383e-05
4.27288e-05
3.95842e-05
3.59544e-05
3.00713e-05
2.46368e-05
1.89363e-05
1.57784e-05
1.35218e-05
9.8078e-07
9.5054e-07
2.43586e-05
4.54759e-05
5.63231e-05
6.06335e-05
6.00379e-05
5.67877e-05
5.26079e-05
4.87118e-05
4.57266e-05
4.37651e-05
4.26764e-05
4.22716e-05
4.23935e-05
4.29099e-05
4.37172e-05
4.47437e-05
4.59424e-05
4.72817e-05
4.87395e-05
5.02974e-05
5.19365e-05
5.36356e-05
5.53707e-05
5.71173e-05
5.88515e-05
6.05517e-05
6.21998e-05
6.37809e-05
6.52835e-05
6.66988e-05
6.80199e-05
6.92417e-05
7.03596e-05
7.13701e-05
7.22702e-05
7.30575e-05
7.37304e-05
7.42886e-05
7.47659e-05
7.50785e-05
7.52538e-05
7.54366e-05
7.54891e-05
7.54556e-05
7.53538e-05
7.51971e-05
7.49989e-05
7.47717e-05
7.45269e-05
7.42739e-05
7.40185e-05
7.37625e-05
7.35015e-05
7.3224e-05
7.291e-05
7.25295e-05
7.20414e-05
7.13935e-05
7.05237e-05
6.93633e-05
6.78454e-05
6.59183e-05
6.35664e-05
6.08363e-05
5.78582e-05