/*--------------------------------*- C++ -*----------------------------------*\
  =========                 |
  \\      /  F ield         | OpenFOAM: The Open Source CFD Toolbox
   \\    /   O peration     | Website:  https://openfoam.org
    \\  /    A nd           | Version:  13
     \\/     M anipulation  |
\*---------------------------------------------------------------------------*/
FoamFile
{
    format      ascii;
    class       volScalarField;
    location    "7.2";
    object      p;
}
// * * * * * * * * * * * * * * * * * * * * * * * * * * * * * * * * * * * * * //

dimensions      [0 2 -2 0 0 0 0];

internalField   nonuniform List<scalar> 
6400
(
5.98589e-09
1.97559e-05
2.87412e-05
1.38111e-05
-3.02915e-05
-9.85239e-05
-0.000181247
-0.000269369
-0.000356621
-0.0004399
-0.000519886
-0.00060076
-0.000687193
-0.000784348
-0.000897369
-0.00103033
-0.00118619
-0.00136664
-0.00157294
-0.00180579
-0.00206561
-0.00235371
-0.00267291
-0.00302769
-0.00342441
-0.0038677
-0.00435314
-0.00487178
-0.00540199
-0.00590862
-0.00638618
-0.00684247
-0.00727542
-0.00768231
-0.00805792
-0.00839385
-0.00867895
-0.00890027
-0.00904411
-0.00909684
-0.00904544
-0.00887871
-0.00858827
-0.00816945
-0.00761939
-0.00693109
-0.00609753
-0.00513389
-0.00405663
-0.00287297
-0.00160296
-0.000267567
0.00110457
0.00248135
0.00382292
0.0050842
0.00622071
0.00719089
0.0079548
0.00848054
0.00874896
0.00875692
0.00851704
0.00805099
0.00741591
0.00666482
0.00586269
0.00507308
0.00435309
0.00373325
0.00324867
0.00291162
0.00269215
0.00256373
0.00250811
0.00250121
0.00252363
0.00256009
0.00259986
0.0026271
-1.49492e-05
5.21056e-06
9.59384e-06
-1.02971e-05
-5.72473e-05
-0.000125433
-0.000204269
-0.000285237
-0.000363388
-0.000437389
-0.000509268
-0.000583064
-0.000663595
-0.000755572
-0.00086285
-0.000988946
-0.00113716
-0.00130998
-0.0015081
-0.00173173
-0.00197995
-0.00225318
-0.00255449
-0.00288652
-0.00325234
-0.00365892
-0.00411384
-0.00461604
-0.00515214
-0.00569839
-0.00622653
-0.00672669
-0.00720082
-0.00764583
-0.00805608
-0.00842306
-0.00873581
-0.00898198
-0.0091486
-0.00922324
-0.00919401
-0.0090508
-0.00878578
-0.00839287
-0.00786694
-0.00720401
-0.00641178
-0.00549663
-0.00445989
-0.00331819
-0.00208952
-0.000796567
0.000533117
0.00186661
0.00316639
0.00439246
0.00550242
0.00645425
0.00721149
0.00774358
0.00803089
0.00806941
0.00787077
0.00746138
0.00688588
0.00619872
0.00546177
0.00473504
0.00407145
0.0035131
0.00307966
0.00277863
0.00259736
0.0025117
0.00249673
0.00252634
0.00256933
0.00260799
0.00264047
0.00266628
-3.10243e-05
-8.61983e-06
-9.82949e-06
-3.87998e-05
-9.37237e-05
-0.000164508
-0.000239543
-0.000310665
-0.000375183
-0.000434753
-0.000493089
-0.000555104
-0.000625817
-0.000709004
-0.000807147
-0.000922045
-0.00105524
-0.00120897
-0.00138547
-0.00158745
-0.00181845
-0.0020817
-0.00238144
-0.00272258
-0.00310939
-0.00354436
-0.00402798
-0.00455659
-0.00511971
-0.00570006
-0.00627774
-0.00683672
-0.00736753
-0.00786361
-0.00831812
-0.00872211
-0.00906553
-0.00933755
-0.00952669
-0.00962167
-0.00961237
-0.00948992
-0.0092471
-0.00887861
-0.00838191
-0.00775652
-0.00699609
-0.00611461
-0.0051184
-0.00401935
-0.00283378
-0.00158287
-0.000292711
0.00100586
0.00227775
0.00348497
0.00458594
0.00553937
0.00630948
0.00686675
0.00719098
0.00727588
0.00713229
0.00678582
0.0062782
0.00566242
0.00498848
0.00432821
0.00372417
0.00321489
0.00282527
0.0025699
0.0024368
0.00239807
0.00242042
0.00248089
0.0025499
0.00260786
0.00265525
0.00269241
-3.96841e-05
-1.81555e-05
-2.67946e-05
-6.68905e-05
-0.000131921
-0.000205943
-0.000277411
-0.000339794
-0.000391704
-0.000435356
-0.000476887
-0.000523006
-0.000579219
-0.000649258
-0.00073487
-0.000836825
-0.000956455
-0.00109654
-0.00126093
-0.00145509
-0.00168604
-0.00196154
-0.00228903
-0.00267117
-0.00311032
-0.00360777
-0.00415972
-0.00475597
-0.00538102
-0.00601827
-0.00665125
-0.0072648
-0.0078465
-0.00838727
-0.00887878
-0.0093119
-0.00967785
-0.00996707
-0.0101696
-0.0102758
-0.0102769
-0.0101653
-0.00993453
-0.00958019
-0.00910056
-0.00849463
-0.00776207
-0.00690819
-0.00594006
-0.0048689
-0.00371009
-0.00248341
-0.00121287
7.33591e-05
0.0013425
0.0025569
0.00367576
0.004659
0.005469
0.00607506
0.00645564
0.00660044
0.00651755
0.00623219
0.00578326
0.00521962
0.00459693
0.00397636
0.00340777
0.00293013
0.0025679
0.0023325
0.00221655
0.00220415
0.0022665
0.00236234
0.00246329
0.00255161
0.00262302
0.00267262
-3.4209e-05
-1.99739e-05
-3.86609e-05
-9.02469e-05
-0.000164856
-0.000241833
-0.000309741
-0.000363507
-0.000403129
-0.000432867
-0.000459894
-0.000491807
-0.000534562
-0.000591837
-0.000665755
-0.0007581
-0.000871917
-0.00101287
-0.00118798
-0.00140527
-0.00167456
-0.00200144
-0.0023907
-0.00284678
-0.00336916
-0.00395207
-0.0045856
-0.00525542
-0.00594412
-0.00663555
-0.00731426
-0.00796779
-0.00858557
-0.00915714
-0.00967345
-0.0101259
-0.0105061
-0.0108055
-0.0110157
-0.0111285
-0.0111365
-0.0110336
-0.0108137
-0.0104729
-0.0100101
-0.0094248
-0.00871757
-0.00789083
-0.00694981
-0.00590471
-0.00477035
-0.00356492
-0.00230942
-0.00102811
0.000248823
0.00148313
0.00263423
0.00366482
0.00453658
0.0052157
0.00567852
0.00591041
0.00591307
0.00570654
0.00533041
0.00483106
0.00426265
0.00368293
0.00314487
0.00268966
0.0023445
0.00212039
0.00201417
0.00200971
0.00208233
0.00219853
0.00232506
0.002441
0.00253505
0.00259393
-5.92099e-06
-5.47299e-06
-3.65067e-05
-0.000101855
-0.000184711
-0.000262877
-0.000326854
-0.000373034
-0.000402622
-0.000421619
-0.000438337
-0.000460812
-0.000495162
-0.00054572
-0.00061625
-0.000711096
-0.000836703
-0.00100178
-0.00121719
-0.00149011
-0.00182811
-0.00223851
-0.002723
-0.00327868
-0.00389691
-0.00456589
-0.00527346
-0.00600587
-0.00674779
-0.00748412
-0.00820078
-0.00888616
-0.00953012
-0.0101232
-0.0106568
-0.0111225
-0.0115122
-0.0118186
-0.0120348
-0.0121537
-0.0121695
-0.0120779
-0.0118735
-0.0115524
-0.0111154
-0.0105605
-0.00988773
-0.00909868
-0.00819719
-0.00719078
-0.00609254
-0.00491774
-0.00368291
-0.00240849
-0.0011241
0.00013075
0.00131941
0.00240955
0.00336063
0.00413443
0.00470671
0.0050575
0.00518327
0.00509393
0.00482347
0.00441855
0.00393098
0.00341462
0.0029226
0.00249891
0.00217348
0.00196019
0.00185801
0.00185358
0.00192422
0.00204152
0.00217503
0.00230135
0.00240511
0.00246711
5.54373e-05
3.84894e-05
-8.66549e-06
-9.08445e-05
-0.000179045
-0.000257607
-0.000318413
-0.000359171
-0.000383033
-0.000397222
-0.000410639
-0.00043158
-0.00046681
-0.000522382
-0.000605019
-0.00072216
-0.000884043
-0.00110255
-0.00138594
-0.00174291
-0.00218004
-0.00269877
-0.00329057
-0.00394485
-0.00465162
-0.00539902
-0.00617341
-0.00696102
-0.00774827
-0.00852188
-0.00926944
-0.00998017
-0.0106444
-0.0112535
-0.0117995
-0.0122737
-0.0126684
-0.0129787
-0.0131993
-0.0133256
-0.0133539
-0.0132791
-0.0130967
-0.0128038
-0.0123997
-0.0118817
-0.01125
-0.0105076
-0.00965946
-0.00871174
-0.00767013
-0.00654406
-0.00534817
-0.00410372
-0.00283642
-0.00157352
-0.000344793
0.000814895
0.00185619
0.00274431
0.00345359
0.00395634
0.00424432
0.00431802
0.00420046
0.00393184
0.00356217
0.00314281
0.00272432
0.00235196
0.00205853
0.00186129
0.00176251
0.00175367
0.00181384
0.0019193
0.00204301
0.00216169
0.00225987
0.00231662
0.000159966
0.000122587
5.38269e-05
-4.22279e-05
-0.000135946
-0.000215849
-0.000275591
-0.000315193
-0.000339545
-0.000356941
-0.000376725
-0.000407626
-0.000457747
-0.00053594
-0.000651871
-0.000816838
-0.00104287
-0.00134165
-0.00172141
-0.0021886
-0.00274012
-0.00336781
-0.0040613
-0.004809
-0.00559808
-0.00641564
-0.00724854
-0.00808403
-0.00890977
-0.00971396
-0.0104857
-0.0112152
-0.0118932
-0.0125108
-0.0130604
-0.0135353
-0.0139321
-0.0142472
-0.0144755
-0.0146136
-0.0146569
-0.0145997
-0.0144385
-0.01417
-0.0138003
-0.013322
-0.0127368
-0.0120482
-0.011261
-0.0103799
-0.00940687
-0.00834797
-0.00721617
-0.00602906
-0.00480465
-0.00356049
-0.00232061
-0.00112475
-3.92006e-06
0.00101364
0.0018791
0.00256179
0.00304817
0.00332709
0.00341156
0.00332805
0.00312012
0.00283695
0.00252559
0.00223119
0.00198885
0.00181946
0.00172952
0.00171371
0.00175789
0.001843
0.0019445
0.00204294
0.00212101
0.00216308
0.000312999
0.000255028
0.000161631
5.19945e-05
-4.83695e-05
-0.000131177
-0.000193582
-0.000237869
-0.00027075
-0.000301503
-0.000339966
-0.000395745
-0.000478995
-0.000601566
-0.000776476
-0.0010158
-0.0013325
-0.00173779
-0.0022346
-0.00281889
-0.00348363
-0.00421736
-0.00500706
-0.00583936
-0.00670123
-0.00757977
-0.00846276
-0.0093383
-0.0101951
-0.0110224
-0.0118105
-0.0125502
-0.0132323
-0.0138497
-0.0143977
-0.0148748
-0.0152784
-0.0156014
-0.0158387
-0.0159852
-0.0160371
-0.0159933
-0.0158529
-0.0156161
-0.0152752
-0.0148366
-0.0143
-0.0136665
-0.0129384
-0.0121185
-0.0112122
-0.0102262
-0.00916987
-0.00805561
-0.00689661
-0.00570328
-0.00449137
-0.00328806
-0.00211492
-0.00100899
-7.1661e-06
0.000870008
0.00157399
0.00208937
0.00241689
0.00256763
0.00256874
0.00246409
0.00229685
0.00210999
0.00194152
0.00181617
0.00174482
0.00172681
0.00175328
0.00181081
0.00188187
0.00195108
0.00199851
0.00202163
0.000521869
0.000441093
0.000320388
0.000195669
8.6072e-05
-2.51122e-06
-7.24562e-05
-0.000128771
-0.000179975
-0.000236291
-0.000308239
-0.000406691
-0.000544324
-0.000735795
-0.000994785
-0.00133358
-0.00176415
-0.00229067
-0.0029091
-0.00361118
-0.00438548
-0.00521757
-0.00609398
-0.00700109
-0.00792614
-0.00885666
-0.00978108
-0.0106882
-0.0115677
-0.0124099
-0.0132058
-0.0139478
-0.0146299
-0.0152481
-0.0157974
-0.0162739
-0.0166721
-0.0169878
-0.0172191
-0.0173644
-0.0174215
-0.017389
-0.0172669
-0.0170549
-0.0167492
-0.016352
-0.0158645
-0.015288
-0.0146241
-0.0138747
-0.0130437
-0.0121356
-0.0111566
-0.0101134
-0.00901415
-0.00787114
-0.00670377
-0.00552724
-0.00435328
-0.00320186
-0.00209849
-0.00107581
-0.000172345
0.00059545
0.00118998
0.00161264
0.00186896
0.00198707
0.0020042
0.0019584
0.00188817
0.00182462
0.0017843
0.00177187
0.00178345
0.00181206
0.00184846
0.00188106
0.00189496
0.00189928
0.000789256
0.000679659
0.00053067
0.000385819
0.000265619
0.000166132
8.22131e-05
5.09433e-06
-7.57694e-05
-0.00017155
-0.00029355
-0.000454482
-0.00066916
-0.000952759
-0.00131833
-0.00177646
-0.00233279
-0.0029855
-0.00372554
-0.00454025
-0.0054156
-0.00633681
-0.00729016
-0.00826225
-0.0092406
-0.0102133
-0.0111693
-0.0120983
-0.012991
-0.013839
-0.0146348
-0.0153724
-0.0160471
-0.0166547
-0.0171915
-0.0176546
-0.0180405
-0.0183468
-0.0185721
-0.0187156
-0.018776
-0.0187527
-0.0186455
-0.0184543
-0.0181782
-0.0178179
-0.0173746
-0.0168498
-0.0162451
-0.0155625
-0.0148046
-0.013975
-0.0130774
-0.0121159
-0.0110949
-0.0100212
-0.00890445
-0.00775498
-0.00658952
-0.005429
-0.00428393
-0.00316923
-0.00210519
-0.00112926
-0.000270822
0.000436493
0.00098041
0.001364
0.00160807
0.00174243
0.00180037
0.00181733
0.00182054
0.00182212
0.00182509
0.00182738
0.00182857
0.00182214
0.00180437
0.0017923
0.00110332
0.000964459
0.000780772
0.0006128
0.000477924
0.000363997
0.000259113
0.000151367
2.84807e-05
-0.000121504
-0.000311086
-0.000554282
-0.000866551
-0.00126191
-0.00175079
-0.00233909
-0.00302636
-0.00380442
-0.00466008
-0.00557896
-0.00654582
-0.00754601
-0.00856573
-0.00959184
-0.0106122
-0.0116155
-0.0125914
-0.0135308
-0.0144256
-0.0152689
-0.016055
-0.016779
-0.0174375
-0.0180273
-0.0185462
-0.0189922
-0.0193633
-0.0196582
-0.0198761
-0.0200161
-0.0200779
-0.0200612
-0.0199662
-0.019793
-0.0195417
-0.0192132
-0.0188086
-0.0183293
-0.017777
-0.0171535
-0.016461
-0.0157023
-0.0148798
-0.0139964
-0.013055
-0.0120591
-0.0110127
-0.00992006
-0.00878825
-0.00762727
-0.00645183
-0.00528541
-0.00413021
-0.00300295
-0.00193189
-0.000960847
-0.000124949
0.000551896
0.00106335
0.00142024
0.00164561
0.00176971
0.00182988
0.00185322
0.00185259
0.00183365
0.00180285
0.00176104
0.00171696
0.00169085
0.00145006
0.00128039
0.00105749
0.000863566
0.000710508
0.000576128
0.000442163
0.000293339
0.000115852
-0.000103192
-0.000376756
-0.000719767
-0.00114641
-0.00166762
-0.00228956
-0.00301231
-0.00382881
-0.00472607
-0.00568894
-0.00670199
-0.00774965
-0.00881738
-0.00989146
-0.0109591
-0.0120088
-0.01303
-0.0140138
-0.0149522
-0.0158389
-0.0166685
-0.017437
-0.018141
-0.0187783
-0.0193468
-0.0198453
-0.0202726
-0.0206276
-0.0209098
-0.0211188
-0.0212542
-0.021316
-0.0213042
-0.0212192
-0.0210614
-0.0208314
-0.0205301
-0.0201589
-0.0197191
-0.0192122
-0.0186402
-0.0180049
-0.0173084
-0.0165526
-0.0157394
-0.0148704
-0.0139475
-0.012972
-0.0119455
-0.0108696
-0.00974604
-0.00857898
-0.00737757
-0.00615747
-0.00493657
-0.00372278
-0.00254619
-0.0014486
-0.00047851
0.000326065
0.000945018
0.001381
0.00165237
0.00179296
0.00184793
0.00184789
0.00181179
0.00175455
0.00168444
0.0016213
0.00158644
0.00181173
0.00160838
0.00134389
0.00111988
0.00094435
0.000783215
0.000611782
0.000411586
0.000167485
-0.000133611
-0.000505672
-0.00096261
-0.0015155
-0.00217096
-0.00292909
-0.00378372
-0.00472263
-0.00573002
-0.00678962
-0.00788534
-0.00900162
-0.0101241
-0.0112393
-0.0123352
-0.0134012
-0.0144282
-0.0154086
-0.0163365
-0.017207
-0.0180165
-0.0187625
-0.0194429
-0.0200564
-0.0206022
-0.0210795
-0.0214878
-0.0218268
-0.0220963
-0.0222964
-0.0224269
-0.022488
-0.0224801
-0.0224035
-0.022259
-0.0220473
-0.0217695
-0.0214269
-0.0210209
-0.020553
-0.020025
-0.0194387
-0.0187958
-0.0180978
-0.017346
-0.0165412
-0.0156841
-0.0147744
-0.0138116
-0.0127949
-0.0117227
-0.0105938
-0.00940751
-0.00816629
-0.00688076
-0.00557347
-0.00425673
-0.00295634
-0.00172902
-0.000633578
0.000274103
0.000960866
0.00142528
0.00168682
0.00179335
0.0018023
0.00175207
0.00167268
0.00158101
0.00150576
0.00146572
0.00216389
0.00192547
0.00161608
0.00136002
0.00115787
0.000963742
0.000746739
0.00048599
0.000165337
-0.000229294
-0.000711493
-0.00129204
-0.00197791
-0.00276917
-0.00366009
-0.0046392
-0.00569057
-0.00679679
-0.00794082
-0.00910626
-0.0102777
-0.0114411
-0.0125838
-0.0136949
-0.0147653
-0.0157875
-0.0167558
-0.017666
-0.018515
-0.0193006
-0.0200215
-0.0206768
-0.0212662
-0.0217893
-0.0222461
-0.0226366
-0.0229606
-0.0232184
-0.0234103
-0.0235363
-0.0235968
-0.0235923
-0.0235232
-0.0233903
-0.0231945
-0.0229369
-0.0226188
-0.0222415
-0.0218067
-0.021316
-0.0207711
-0.0201735
-0.0195245
-0.0188251
-0.0180757
-0.0172762
-0.0164255
-0.0155217
-0.0145622
-0.0135433
-0.0124609
-0.0113106
-0.0100892
-0.00879628
-0.00743745
-0.00602662
-0.00459228
-0.00316654
-0.00181771
-0.000621439
0.000347312
0.00104741
0.00147995
0.00167743
0.00171091
0.00165324
0.00155385
0.00144376
0.00136096
0.00131674
0.00247982
0.0022065
0.00185178
0.00156164
0.00132868
0.00109525
0.000825649
0.000496926
9.14239e-05
-0.000405909
-0.00100551
-0.00171426
-0.00253285
-0.00345554
-0.0044713
-0.00556418
-0.00671581
-0.00790776
-0.00912253
-0.0103437
-0.0115562
-0.0127468
-0.0139042
-0.0150189
-0.0160836
-0.0170929
-0.0180428
-0.0189307
-0.0197552
-0.0205153
-0.0212106
-0.0218413
-0.0224074
-0.0229093
-0.0233472
-0.0237214
-0.0240322
-0.0242799
-0.0244647
-0.0245871
-0.0246475
-0.0246462
-0.024584
-0.0244614
-0.0242796
-0.0240394
-0.0237423
-0.0233896
-0.0229828
-0.0225234
-0.0220132
-0.0214534
-0.0208454
-0.0201899
-0.0194872
-0.0187369
-0.0179374
-0.0170864
-0.01618
-0.0152133
-0.0141803
-0.0130739
-0.0118874
-0.0106153
-0.00925477
-0.00780846
-0.00629139
-0.00473648
-0.00319356
-0.0017446
-0.000488119
0.000486807
0.00113763
0.00147779
0.00157039
0.00151703
0.00140022
0.00127276
0.00118205
0.00113063
0.002738
0.00242731
0.00202815
0.00170238
0.00143437
0.00115637
0.000829191
0.000427119
-7.03685e-05
-0.000675487
-0.00139467
-0.00222988
-0.00317571
-0.00422126
-0.00535049
-0.00654409
-0.0077821
-0.00904544
-0.0103164
-0.0115789
-0.0128187
-0.0140238
-0.0151844
-0.0162932
-0.0173448
-0.0183354
-0.019263
-0.0201265
-0.0209254
-0.0216601
-0.0223308
-0.0229382
-0.023483
-0.0239657
-0.0243868
-0.0247469
-0.0250464
-0.0252856
-0.0254649
-0.0255846
-0.0256454
-0.0256475
-0.0255915
-0.0254784
-0.025309
-0.0250842
-0.0248052
-0.0244735
-0.0240903
-0.0236574
-0.023176
-0.0226477
-0.0220736
-0.0214545
-0.0207906
-0.0200814
-0.0193254
-0.0185199
-0.0176608
-0.0167428
-0.0157586
-0.0146999
-0.0135574
-0.0123216
-0.0109848
-0.00954292
-0.00799969
-0.00637315
-0.00470436
-0.00306271
-0.00155079
-0.000288291
0.000627658
0.00116535
0.00136731
0.00134245
0.00121615
0.0010704
0.000964903
0.000900456
0.00290612
0.00256434
0.00212381
0.0017619
0.00145556
0.0011299
0.000741585
0.000260966
-0.000330931
-0.00104347
-0.00187989
-0.00283532
-0.00389938
-0.00505596
-0.00628492
-0.00756462
-0.00887406
-0.0101938
-0.0115064
-0.0127963
-0.0140507
-0.0152592
-0.016414
-0.0175096
-0.0185427
-0.0195113
-0.0204147
-0.0212531
-0.022027
-0.0227375
-0.0233853
-0.0239717
-0.0244974
-0.0249633
-0.02537
-0.0257182
-0.0260083
-0.0262406
-0.0264157
-0.0265338
-0.0265955
-0.0266011
-0.0265513
-0.0264468
-0.0262884
-0.0260771
-0.025814
-0.0255004
-0.0251375
-0.0247268
-0.0242697
-0.0237676
-0.0232215
-0.0226323
-0.0220003
-0.021325
-0.0206051
-0.0198381
-0.01902
-0.0181453
-0.0172066
-0.016195
-0.0151
-0.0139099
-0.0126132
-0.0112005
-0.0096677
-0.00802091
-0.00628585
-0.00451875
-0.00281085
-0.00128503
-8.07368e-05
0.00070598
0.00107762
0.00112441
0.00100077
0.000836139
0.000704811
0.0006229
0.00296962
0.00260001
0.00212158
0.0017238
0.00137771
0.00100262
0.000550319
-9.96062e-06
-0.000694884
-0.00151161
-0.00245809
-0.00352437
-0.00469464
-0.00594815
-0.00726166
-0.00861196
-0.00997747
-0.0113388
-0.0126789
-0.0139836
-0.0152416
-0.0164445
-0.0175864
-0.0186639
-0.0196753
-0.0206202
-0.0214991
-0.022313
-0.0230634
-0.0237515
-0.0243787
-0.0249464
-0.0254555
-0.025907
-0.0263015
-0.0266398
-0.0269222
-0.0271493
-0.0273213
-0.0274387
-0.0275018
-0.0275111
-0.0274672
-0.0273707
-0.0272224
-0.0270232
-0.026774
-0.0264761
-0.0261306
-0.0257389
-0.0253023
-0.024822
-0.0242992
-0.0237347
-0.0231288
-0.0224814
-0.0217913
-0.0210563
-0.0202729
-0.0194358
-0.0185381
-0.0175708
-0.0165229
-0.0153819
-0.0141341
-0.0127665
-0.0112691
-0.0096384
-0.0078856
-0.00605039
-0.0042127
-0.00248032
-0.00099849
7.67049e-05
0.000671262
0.000841591
0.000748692
0.000566271
0.000397388
0.000296997
0.00291365
0.00252087
0.00200935
0.00157732
0.00119135
0.000765218
0.000248194
-0.000388819
-0.0011623
-0.00207636
-0.00312336
-0.00428842
-0.00555071
-0.00688569
-0.0082679
-0.00967316
-0.0110797
-0.0124684
-0.0138233
-0.0151318
-0.0163844
-0.0175747
-0.0186988
-0.019755
-0.0207432
-0.0216641
-0.0225191
-0.02331
-0.0240386
-0.0247066
-0.0253156
-0.025867
-0.0263618
-0.0268011
-0.0271855
-0.0275157
-0.0277921
-0.0280151
-0.0281851
-0.0283024
-0.0283674
-0.0283805
-0.0283423
-0.0282533
-0.0281142
-0.0279258
-0.027689
-0.0274049
-0.0270746
-0.0266993
-0.0262801
-0.0258184
-0.0253151
-0.024771
-0.0241868
-0.0235622
-0.0228965
-0.0221879
-0.0214335
-0.0206285
-0.0197668
-0.0188396
-0.0178364
-0.0167444
-0.0155489
-0.0142347
-0.0127881
-0.0111988
-0.00946554
-0.00760894
-0.00569571
-0.00382294
-0.00211384
-0.000749515
0.000117801
0.000473078
0.000448227
0.000251697
3.88921e-05
-7.86219e-05
0.00272944
0.00231902
0.00178026
0.00131666
0.000890937
0.000414272
-0.000164226
-0.000873617
-0.0017294
-0.00273116
-0.0038669
-0.0051168
-0.00645573
-0.00785623
-0.00929133
-0.0107363
-0.0121696
-0.0135729
-0.0149316
-0.0162348
-0.017475
-0.0186476
-0.0197507
-0.0207841
-0.0217486
-0.022646
-0.0234785
-0.0242481
-0.0249571
-0.0256072
-0.0262003
-0.0267376
-0.0272203
-0.0276493
-0.0280253
-0.0283489
-0.0286205
-0.0288406
-0.0290094
-0.0291272
-0.0291944
-0.0292114
-0.0291786
-0.0290965
-0.0289659
-0.0287873
-0.0285617
-0.0282899
-0.0279729
-0.0276119
-0.0272079
-0.0267621
-0.0262753
-0.0257485
-0.0251823
-0.0245766
-0.0239311
-0.0232443
-0.022514
-0.0217361
-0.0209052
-0.0200136
-0.0190514
-0.0180061
-0.0168631
-0.0156059
-0.0142182
-0.0126862
-0.011
-0.00916066
-0.00720891
-0.00525653
-0.00338779
-0.00176703
-0.000604322
-1.27941e-05
7.63832e-05
-0.000115215
-0.00037035
-0.000503728
0.00241454
0.00199247
0.00143291
0.000941001
0.000477131
-4.75932e-05
-0.000683054
-0.00145846
-0.00238768
-0.00346617
-0.0046775
-0.00599741
-0.0073973
-0.0088476
-0.0103204
-0.011791
-0.0132382
-0.0146449
-0.0159982
-0.0172888
-0.0185114
-0.019663
-0.0207433
-0.0217532
-0.0226945
-0.0235696
-0.0243811
-0.0251314
-0.0258228
-0.0264572
-0.0270364
-0.0275616
-0.0280339
-0.0284543
-0.0288234
-0.0291417
-0.0294097
-0.0296276
-0.0297958
-0.0299145
-0.0299841
-0.0300049
-0.0299773
-0.0299018
-0.0297789
-0.0296094
-0.0293938
-0.0291331
-0.0288281
-0.0284797
-0.028089
-0.027657
-0.0271846
-0.0266726
-0.0261216
-0.0255319
-0.0249032
-0.0242347
-0.0235244
-0.0227693
-0.0219648
-0.0211042
-0.0201786
-0.0191765
-0.0180838
-0.0168836
-0.0155582
-0.0140911
-0.0124683
-0.0106787
-0.00873026
-0.00672579
-0.00476597
-0.00295385
-0.00151366
-0.000646582
-0.000384556
-0.00054411
-0.000828692
-0.000978408
0.00197215
0.0015447
0.000970909
0.000454386
-4.47703e-05
-0.000613026
-0.00129974
-0.00213395
-0.00312645
-0.00426949
-0.0055425
-0.00691744
-0.00836298
-0.00984816
-0.0113446
-0.012828
-0.0142779
-0.0156787
-0.0170192
-0.0182919
-0.0194933
-0.0206219
-0.0216786
-0.0226651
-0.0235841
-0.0244384
-0.0252307
-0.0259635
-0.0266393
-0.0272599
-0.0278269
-0.0283417
-0.0288053
-0.0292184
-0.0295817
-0.0298957
-0.0301608
-0.0303772
-0.0305453
-0.0306652
-0.0307372
-0.0307618
-0.0307391
-0.0306698
-0.0305541
-0.0303928
-0.0301864
-0.0299357
-0.0296415
-0.0293045
-0.0289257
-0.028506
-0.0280462
-0.0275471
-0.0270094
-0.0264334
-0.0258191
-0.0251659
-0.0244726
-0.0237368
-0.0229548
-0.022121
-0.0212278
-0.0202648
-0.0192189
-0.0180739
-0.0168111
-0.015412
-0.01386
-0.0121393
-0.0102406
-0.00820346
-0.00619686
-0.00426504
-0.0025917
-0.00143981
-0.000959516
-0.00105067
-0.00133516
-0.00150755
0.00141047
0.00098392
0.000402034
-0.000134523
-0.000664871
-0.00127167
-0.0020032
-0.00288744
-0.00393259
-0.00512763
-0.00644844
-0.00786388
-0.00934069
-0.010847
-0.0123546
-0.0138396
-0.0152829
-0.0166703
-0.0179923
-0.0192434
-0.0204212
-0.0215258
-0.0225588
-0.0235228
-0.0244207
-0.0252556
-0.0260303
-0.0267475
-0.0274093
-0.0280177
-0.0285742
-0.02908
-0.029536
-0.029943
-0.0303015
-0.030612
-0.0308748
-0.0310901
-0.0312584
-0.0313796
-0.0314541
-0.0314823
-0.0314644
-0.0314007
-0.0312918
-0.0311381
-0.0309401
-0.0306986
-0.0304141
-0.0300875
-0.0297194
-0.0293108
-0.0288623
-0.0283748
-0.0278488
-0.0272849
-0.0266832
-0.0260434
-0.0253648
-0.0246455
-0.0238828
-0.0230723
-0.0222074
-0.0212794
-0.0202763
-0.019183
-0.0179812
-0.0166507
-0.015173
-0.0135307
-0.0117032
-0.00968698
-0.00763956
-0.00565118
-0.00381233
-0.00240061
-0.00167001
-0.00163269
-0.00189493
-0.0021021
0.000741739
0.000322391
-0.000261405
-0.000813203
-0.00136988
-0.00200982
-0.00277951
-0.0037048
-0.0047917
-0.00602633
-0.00738162
-0.00882405
-0.010319
-0.0118344
-0.0133422
-0.0148196
-0.0162487
-0.0176169
-0.0189165
-0.0201434
-0.0212964
-0.0223767
-0.0233866
-0.0243289
-0.025207
-0.026024
-0.0267828
-0.0274858
-0.0281352
-0.0287328
-0.02928
-0.0297779
-0.0302274
-0.0306291
-0.0309835
-0.031291
-0.031552
-0.0317667
-0.0319352
-0.0320579
-0.0321348
-0.0321664
-0.0321529
-0.0320946
-0.0319919
-0.0318452
-0.0316551
-0.0314219
-0.0311465
-0.0308293
-0.0304711
-0.0300726
-0.0296345
-0.0291574
-0.0286422
-0.0280891
-0.0274987
-0.0268708
-0.0262051
-0.0255004
-0.0247546
-0.0239644
-0.0231245
-0.0222275
-0.0212631
-0.0202175
-0.0190733
-0.0178101
-0.0164071
-0.0148458
-0.013104
-0.0111626
-0.00907921
-0.00706888
-0.00514029
-0.00352094
-0.00253345
-0.00230795
-0.00252566
-0.00277906
-1.71646e-05
-0.000425208
-0.00100451
-0.00156679
-0.00214534
-0.00281296
-0.00361332
-0.00457068
-0.00568874
-0.00695121
-0.00832866
-0.00978588
-0.0112875
-0.0128015
-0.0143005
-0.0157627
-0.0171718
-0.0185167
-0.0197911
-0.0209923
-0.0221201
-0.0231764
-0.0241639
-0.0250858
-0.0259455
-0.026746
-0.0274901
-0.0281804
-0.0288186
-0.0294066
-0.0299455
-0.0304365
-0.0308802
-0.0312772
-0.0316281
-0.0319332
-0.0321926
-0.0324068
-0.0325758
-0.0326999
-0.0327792
-0.032814
-0.0328046
-0.0327513
-0.0326543
-0.0325142
-0.0323312
-0.0321059
-0.0318387
-0.0315303
-0.0311812
-0.0307921
-0.0303635
-0.0298963
-0.0293909
-0.0288479
-0.0282678
-0.0276508
-0.0269968
-0.0263052
-0.0255744
-0.0248022
-0.0239844
-0.0231151
-0.0221854
-0.0211833
-0.0200928
-0.0188942
-0.0175654
-0.0160865
-0.0144376
-0.0125876
-0.0105205
-0.00848789
-0.00653263
-0.00477308
-0.00355203
-0.0031102
-0.00324438
-0.00355961
-0.000847445
-0.00124175
-0.00181165
-0.00238009
-0.00297558
-0.00366498
-0.00448873
-0.00546945
-0.00660871
-0.00788823
-0.00927683
-0.0107382
-0.0122367
-0.0137406
-0.0152235
-0.0166648
-0.0180497
-0.0193684
-0.0206161
-0.0217909
-0.0228937
-0.0239266
-0.0248927
-0.0257954
-0.0266379
-0.0274232
-0.028154
-0.0288326
-0.0294608
-0.0300401
-0.0305716
-0.0310563
-0.0314949
-0.0318878
-0.0322356
-0.0325384
-0.0327966
-0.0330104
-0.0331799
-0.0333053
-0.0333869
-0.0334247
-0.0334192
-0.0333704
-0.0332788
-0.0331447
-0.0329683
-0.0327502
-0.0324908
-0.0321905
-0.03185
-0.0314696
-0.0310501
-0.0305919
-0.0300958
-0.0295623
-0.028992
-0.0283851
-0.0277419
-0.0270623
-0.0263452
-0.0255892
-0.0247913
-0.0239467
-0.0230482
-0.0220855
-0.0210444
-0.0199064
-0.0186494
-0.0172515
-0.0156923
-0.0139411
-0.0119676
-0.00990257
-0.00795325
-0.00612809
-0.0047206
-0.00405714
-0.00406809
-0.00447169
-0.00173104
-0.00210937
-0.00266596
-0.00323621
-0.00384369
-0.00454909
-0.00538951
-0.0063856
-0.00753706
-0.0088241
-0.0102143
-0.0116709
-0.0131582
-0.0146451
-0.0161064
-0.0175226
-0.0188804
-0.0201713
-0.0213915
-0.02254
-0.0236183
-0.0246287
-0.0255746
-0.0264592
-0.0272857
-0.028057
-0.0287756
-0.0294435
-0.0300625
-0.0306339
-0.0311587
-0.0316378
-0.0320717
-0.0324609
-0.0328059
-0.0331068
-0.0333639
-0.0335773
-0.0337473
-0.033874
-0.0339576
-0.0339982
-0.0339962
-0.0339517
-0.033865
-0.0337364
-0.0335662
-0.0333548
-0.0331026
-0.03281
-0.0324774
-0.0321053
-0.0316942
-0.0312448
-0.0307575
-0.030233
-0.0296719
-0.0290747
-0.0284418
-0.0277733
-0.027069
-0.0263278
-0.0255479
-0.0247256
-0.0238553
-0.0229285
-0.0219326
-0.0208511
-0.0196627
-0.0183437
-0.016873
-0.0152255
-0.0133668
-0.0113073
-0.00937737
-0.00755181
-0.00602143
-0.00514849
-0.00502301
-0.00552793
-0.00264965
-0.00301008
-0.00354995
-0.00411777
-0.00473268
-0.00544885
-0.00629989
-0.00730428
-0.00846011
-0.00974652
-0.0111305
-0.0125749
-0.0140446
-0.0155094
-0.016945
-0.0183334
-0.0196624
-0.0209247
-0.0221174
-0.0232402
-0.0242947
-0.0252838
-0.0262106
-0.0270783
-0.02789
-0.0286483
-0.0293556
-0.0300138
-0.0306244
-0.0311885
-0.0317071
-0.032181
-0.0326107
-0.0329966
-0.0333389
-0.033638
-0.0338941
-0.0341072
-0.0342777
-0.0344055
-0.0344909
-0.0345341
-0.0345353
-0.0344947
-0.0344126
-0.0342891
-0.0341246
-0.0339195
-0.0336739
-0.0333884
-0.0330633
-0.032699
-0.032296
-0.0318548
-0.031376
-0.0308602
-0.030308
-0.0297201
-0.029097
-0.0284392
-0.0277468
-0.0270195
-0.0262561
-0.0254542
-0.0246096
-0.0237151
-0.0227605
-0.021731
-0.0206067
-0.0193645
-0.0179827
-0.0164404
-0.0146961
-0.0127075
-0.0107753
-0.00899195
-0.00740765
-0.00636669
-0.00612988
-0.00671218
-0.00358555
-0.00392597
-0.00444621
-0.00500826
-0.00562655
-0.00634876
-0.00720507
-0.00821168
-0.00936528
-0.0106443
-0.0120156
-0.0134422
-0.0148897
-0.0163287
-0.017736
-0.019095
-0.0203944
-0.0216282
-0.0227939
-0.0238918
-0.0249238
-0.0258927
-0.0268015
-0.0276535
-0.0284514
-0.0291978
-0.0298947
-0.0305438
-0.0311466
-0.031704
-0.032217
-0.0326861
-0.0331119
-0.0334946
-0.0338346
-0.034132
-0.0343871
-0.0345999
-0.0347707
-0.0348996
-0.0349867
-0.0350322
-0.0350363
-0.0349993
-0.0349212
-0.0348025
-0.0346432
-0.0344438
-0.0342045
-0.0339256
-0.0336075
-0.0332505
-0.0328552
-0.0324219
-0.0319513
-0.0314438
-0.0309003
-0.0303214
-0.0297078
-0.0290602
-0.0283792
-0.027665
-0.026917
-0.0261339
-0.0253126
-0.0244477
-0.0235307
-0.0225487
-0.021484
-0.0203144
-0.0190167
-0.0175703
-0.0159403
-0.0140868
-0.0121477
-0.0104153
-0.00882939
-0.00767844
-0.00737582
-0.00799335
-0.00452138
-0.00484004
-0.00533837
-0.00589196
-0.00651021
-0.00723442
-0.00809146
-0.00909525
-0.0102413
-0.0115077
-0.0128614
-0.0142661
-0.015688
-0.0170988
-0.0184765
-0.0198054
-0.0210755
-0.0222813
-0.023421
-0.0244952
-0.0255059
-0.0264558
-0.0273479
-0.0281852
-0.0289704
-0.0297056
-0.0303929
-0.0310337
-0.0316293
-0.0321806
-0.0326883
-0.033153
-0.0335751
-0.0339549
-0.0342926
-0.0345885
-0.0348426
-0.0350551
-0.0352262
-0.0353559
-0.0354445
-0.0354921
-0.0354989
-0.035465
-0.0353907
-0.0352763
-0.0351218
-0.0349277
-0.0346941
-0.0344214
-0.0341098
-0.0337598
-0.0333717
-0.032946
-0.0324831
-0.0319838
-0.0314486
-0.0308784
-0.0302741
-0.0296364
-0.0289664
-0.0282645
-0.027531
-0.0267653
-0.0259654
-0.0251275
-0.0242448
-0.0233064
-0.0222967
-0.0211951
-0.0199777
-0.0186235
-0.0171066
-0.0153921
-0.0134838
-0.0117958
-0.0102461
-0.00904163
-0.00869896
-0.00929434
-0.00544106
-0.00573678
-0.00621165
-0.00675452
-0.00736987
-0.00809278
-0.00894684
-0.00994384
-0.0110783
-0.0123279
-0.0136606
-0.0150406
-0.016435
-0.0178165
-0.0191642
-0.0204633
-0.0217047
-0.0228836
-0.0239986
-0.0250504
-0.0260411
-0.0269733
-0.02785
-0.0286737
-0.0294471
-0.0301721
-0.0308504
-0.0314835
-0.0320724
-0.032618
-0.0331208
-0.0335814
-0.0340002
-0.0343772
-0.0347129
-0.0350072
-0.0352604
-0.0354726
-0.0356439
-0.0357744
-0.0358643
-0.0359137
-0.0359228
-0.0358918
-0.0358209
-0.0357103
-0.0355602
-0.0353708
-0.0351425
-0.0348755
-0.03457
-0.0342265
-0.0338452
-0.0334266
-0.0329712
-0.0324796
-0.0319526
-0.0313909
-0.0307955
-0.0301675
-0.0295079
-0.0288178
-0.028098
-0.0273485
-0.0265684
-0.0257552
-0.0249036
-0.0240048
-0.0230454
-0.0220063
-0.0208649
-0.0196006
-0.0181928
-0.0165999
-0.0147864
-0.0131171
-0.0116141
-0.0104001
-0.0100085
-0.0105027
-0.00632926
-0.00660216
-0.00705264
-0.00758307
-0.00819324
-0.00891218
-0.00976038
-0.0107476
-0.0118678
-0.0130979
-0.0144069
-0.0157607
-0.0171268
-0.0184788
-0.0197969
-0.0210671
-0.0222811
-0.0234346
-0.0245264
-0.0255574
-0.0265295
-0.0274454
-0.0283077
-0.029119
-0.0298814
-0.030597
-0.0312671
-0.0318931
-0.0324759
-0.0330162