/*--------------------------------*- C++ -*----------------------------------*\
  =========                 |
  \\      /  F ield         | OpenFOAM: The Open Source CFD Toolbox
   \\    /   O peration     | Website:  https://openfoam.org
    \\  /    A nd           | Version:  13
     \\/     M anipulation  |
\*---------------------------------------------------------------------------*/
FoamFile
{
    format      ascii;
    class       surfaceScalarField;
    location    "7.2";
    object      phi;
}
// * * * * * * * * * * * * * * * * * * * * * * * * * * * * * * * * * * * * * //

dimensions      [0 3 -1 0 0 0 0];

internalField   nonuniform List<scalar> 
12640
(
1.63104e-09
-1.63116e-09
1.5187e-08
-1.3556e-08
3.90749e-08
-2.38879e-08
6.66713e-08
-2.75964e-08
9.16045e-08
-2.49332e-08
1.10273e-07
-1.86681e-08
1.21316e-07
-1.10434e-08
1.25624e-07
-4.30812e-09
1.25492e-07
1.31806e-10
1.23259e-07
2.23369e-09
1.2091e-07
2.34846e-09
1.19732e-07
1.17832e-09
1.20133e-07
-4.00999e-10
1.21832e-07
-1.69928e-09
1.23988e-07
-2.15552e-09
1.25665e-07
-1.67727e-09
1.25985e-07
-3.20123e-10
1.24422e-07
1.56339e-09
1.2014e-07
4.28152e-09
1.12248e-07
7.89245e-09
1.00175e-07
1.20726e-08
8.3343e-08
1.6832e-08
6.13088e-08
2.20342e-08
3.3888e-08
2.74208e-08
1.04887e-09
3.28391e-08
-3.73999e-08
3.84488e-08
-8.27923e-08
4.53923e-08
-1.37515e-07
5.47227e-08
-2.04467e-07
6.69522e-08
-2.85918e-07
8.14503e-08
-3.80898e-07
9.49807e-08
-4.85836e-07
1.04937e-07
-5.97258e-07
1.11422e-07
-7.11741e-07
1.14483e-07
-8.26306e-07
1.14565e-07
-9.38344e-07
1.12039e-07
-1.04572e-06
1.0738e-07
-1.14671e-06
1.0099e-07
-1.23995e-06
9.32327e-08
-1.32436e-06
8.44144e-08
-1.39909e-06
7.47257e-08
-1.46343e-06
6.43434e-08
-1.51678e-06
5.33445e-08
-1.55855e-06
4.17768e-08
-1.58815e-06
2.95992e-08
-1.60527e-06
1.71185e-08
-1.61019e-06
4.92258e-09
-1.60091e-06
-9.28565e-09
-1.57822e-06
-2.26907e-08
-1.54107e-06
-3.71424e-08
-1.48953e-06
-5.15427e-08
-1.42342e-06
-6.61145e-08
-1.34302e-06
-8.04007e-08
-1.24878e-06
-9.42407e-08
-1.14135e-06
-1.07429e-07
-1.02161e-06
-1.19735e-07
-8.90956e-07
-1.30655e-07
-7.51171e-07
-1.39785e-07
-6.04601e-07
-1.4657e-07
-4.54102e-07
-1.50499e-07
-3.03143e-07
-1.5096e-07
-1.55546e-07
-1.47596e-07
-1.53179e-08
-1.40228e-07
1.13988e-07
-1.29306e-07
2.27828e-07
-1.1384e-07
3.22318e-07
-9.44901e-08
3.9403e-07
-7.17122e-08
4.40548e-07
-4.65173e-08
4.60529e-07
-1.99809e-08
4.5287e-07
7.65821e-09
4.2054e-07
3.23299e-08
3.6605e-07
5.44904e-08
2.95635e-07
7.04155e-08
2.1855e-07
7.70846e-08
1.46055e-07
7.24949e-08
8.54212e-08
6.06338e-08
4.04514e-08
4.49698e-08
1.17652e-08
2.86861e-08
-5.83484e-10
1.23487e-08
-5.83486e-10
1.04992e-08
-1.21303e-08
4.32088e-08
-4.62656e-08
8.85608e-08
-6.924e-08
1.34894e-07
-7.393e-08
1.74599e-07
-6.46382e-08
2.03877e-07
-4.79456e-08
2.22106e-07
-2.92729e-08
2.30284e-07
-1.24859e-08
2.30212e-07
2.03746e-10
2.24239e-07
8.20666e-09
2.14635e-07
1.1953e-08
2.02961e-07
1.2852e-08
1.89702e-07
1.28577e-08
1.7429e-07
1.37136e-08
1.55665e-07
1.64692e-08
1.32676e-07
2.13118e-08
1.04393e-07
2.79625e-08
6.95812e-08
3.63754e-08
2.70016e-08
4.68611e-08
-2.48512e-08
5.97452e-08
-8.79911e-08
7.52125e-08
-1.6421e-07
9.30508e-08
-2.54717e-07
1.12541e-07
-3.60352e-07
1.33056e-07
-4.8167e-07
1.54158e-07
-6.18409e-07
1.75188e-07
-7.68127e-07
1.9511e-07
-9.26632e-07
2.13228e-07
-1.08852e-06
2.28844e-07
-1.24795e-06
2.40872e-07
-1.40141e-06
2.4844e-07
-1.5479e-06
2.51433e-07
-1.68601e-06
2.49534e-07
-1.81449e-06
2.42961e-07
-1.93233e-06
2.32409e-07
-2.03889e-06
2.18599e-07
-2.13369e-06
2.02178e-07
-2.21644e-06
1.83738e-07
-2.28692e-06
1.6371e-07
-2.34499e-06
1.42491e-07
-2.39055e-06
1.20286e-07
-2.42349e-06
9.72777e-08
-2.4437e-06
7.35553e-08
-2.45113e-06
4.92063e-08
-2.44582e-06
2.42939e-08
-2.42686e-06
-1.84949e-09
-2.3947e-06
-2.72367e-08
-2.3496e-06
-5.43828e-08
-2.29045e-06
-8.1835e-08
-2.21777e-06
-1.09825e-07
-2.13123e-06
-1.38086e-07
-2.03088e-06
-1.66466e-07
-1.91665e-06
-1.94628e-07
-1.78873e-06
-2.22161e-07
-1.64765e-06
-2.48505e-07
-1.49453e-06
-2.72861e-07
-1.33063e-06
-2.9455e-07
-1.15778e-06
-3.12642e-07
-9.78293e-07
-3.26054e-07
-7.94854e-07
-3.33938e-07
-6.10476e-07
-3.35338e-07
-4.28584e-07
-3.29488e-07
-2.52801e-07
-3.16011e-07
-8.72086e-08
-2.94899e-07
6.50067e-08
-2.66055e-07
2.00488e-07
-2.29971e-07
3.1552e-07
-1.86745e-07
4.07689e-07
-1.38686e-07
4.74498e-07
-8.67895e-08
5.15359e-07
-3.32033e-08
5.28657e-07
1.90325e-08
5.14873e-07
6.82739e-08
4.75979e-07
1.0931e-07
4.13438e-07
1.39625e-07
3.3046e-07
1.55473e-07
2.37387e-07
1.53708e-07
1.46688e-07
1.35668e-07
7.08378e-08
1.04537e-07
1.99833e-08
6.32033e-08
1.93998e-08
1.99016e-08
-3.20319e-08
6.61283e-08
-9.24923e-08
1.18131e-07
-1.21243e-07
1.64009e-07
-1.19807e-07
1.99287e-07
-9.99169e-08
2.22994e-07
-7.16526e-08
2.35805e-07
-4.20841e-08
2.38701e-07
-1.53819e-08
2.32849e-07
6.05606e-09
2.19728e-07
2.13273e-08
2.00736e-07
3.09458e-08
1.76454e-07
3.7134e-08
1.46688e-07
4.26237e-08
1.1062e-07
4.97809e-08
6.7079e-08
6.00105e-08
1.46412e-08
7.37496e-08
-4.84204e-08
9.1024e-08
-1.2392e-07
1.11875e-07
-2.13395e-07
1.36336e-07
-3.18074e-07
1.64424e-07
-4.38446e-07
1.95584e-07
-5.7415e-07
2.28755e-07
-7.2412e-07
2.6251e-07
-8.85913e-07
2.94849e-07
-1.05611e-06
3.24355e-07
-1.23046e-06
3.49536e-07
-1.40467e-06
3.69323e-07
-1.57476e-06
3.83316e-07
-1.73713e-06
3.91211e-07
-1.88919e-06
3.92935e-07
-2.02946e-06
3.88711e-07
-2.15697e-06
3.78943e-07
-2.27173e-06
3.64292e-07
-2.37418e-06
3.45416e-07
-2.46464e-06
3.22862e-07
-2.54346e-06
2.97423e-07
-2.61095e-06
2.69669e-07
-2.66737e-06
2.40156e-07
-2.71288e-06
2.0922e-07
-2.74761e-06
1.77216e-07
-2.77161e-06
1.44293e-07
-2.78489e-06
1.10553e-07
-2.78738e-06
7.60506e-08
-2.77896e-06
4.07796e-08
-2.75932e-06
4.65341e-09
-2.72883e-06
-3.23335e-08
-2.68605e-06
-7.00209e-08
-2.63162e-06
-1.08817e-07
-2.56497e-06
-1.48476e-07
-2.48587e-06
-1.88932e-07
-2.39406e-06
-2.29895e-07
-2.28941e-06
-2.71116e-07
-2.17187e-06
-3.12167e-07
-2.04158e-06
-3.52454e-07
-1.89894e-06
-3.91141e-07
-1.74464e-06
-4.27162e-07
-1.57972e-06
-4.59467e-07
-1.40559e-06
-4.86774e-07
-1.22412e-06
-5.0752e-07
-1.03782e-06
-5.2024e-07
-8.49476e-07
-5.23682e-07
-6.62389e-07
-5.16575e-07
-4.80181e-07
-4.98219e-07
-3.06564e-07
-4.68515e-07
-1.44815e-07
-4.27804e-07
1.79354e-09
-3.7658e-07
1.31275e-07
-3.16226e-07
2.40405e-07
-2.47817e-07
3.27767e-07
-1.74151e-07
3.92551e-07
-9.7988e-08
4.3385e-07
-2.22661e-08
4.51369e-07
5.07551e-08
4.43864e-07
1.16815e-07
4.12881e-07
1.70608e-07
3.59634e-07
2.0872e-07
2.87246e-07
2.26096e-07
2.0236e-07
2.20554e-07
1.15577e-07
1.9132e-07
4.06159e-08
1.38164e-07
6.00157e-08
2.76836e-08
-5.97156e-08
8.03752e-08
-1.45184e-07
1.30079e-07
-1.70946e-07
1.68184e-07
-1.57912e-07
1.93406e-07
-1.25139e-07
2.06949e-07
-8.51958e-08
2.1002e-07
-4.51555e-08
2.03746e-07
-9.10809e-09
1.88917e-07
2.08858e-08
1.66006e-07
4.42382e-08
1.34791e-07
6.21609e-08
9.47608e-08
7.7164e-08
4.51368e-08
9.22477e-08
-1.50281e-08
1.09946e-07
-8.68348e-08
1.31817e-07
-1.71633e-07
1.58548e-07
-2.70884e-07
1.90275e-07
-3.85862e-07
2.26853e-07
-5.17131e-07
2.67605e-07
-6.64209e-07
3.11503e-07
-8.25298e-07
3.56674e-07
-9.97233e-07
4.0069e-07
-1.17618e-06
4.41453e-07
-1.35782e-06
4.76491e-07
-1.53802e-06
5.04559e-07
-1.71288e-06
5.24397e-07
-1.8789e-06
5.35343e-07
-2.03339e-06
5.37801e-07
-2.17499e-06
5.32818e-07
-2.30333e-06
5.21275e-07
-2.41863e-06
5.04011e-07
-2.5215e-06
4.81811e-07
-2.61257e-06
4.55365e-07
-2.69258e-06
4.25419e-07
-2.76222e-06
3.92508e-07
-2.82206e-06
3.57258e-07
-2.87251e-06
3.20118e-07
-2.91387e-06
2.81523e-07
-2.94636e-06
2.41708e-07
-2.97003e-06
2.00889e-07
-2.9849e-06
1.59164e-07
-2.9909e-06
1.16552e-07
-2.98787e-06
7.30138e-08
-2.97555e-06
2.84667e-08
-2.95373e-06
-1.71686e-08
-2.92212e-06
-6.3943e-08
-2.88019e-06
-1.11954e-07
-2.82769e-06
-1.61317e-07
-2.76417e-06
-2.11993e-07
-2.68923e-06
-2.63874e-07
-2.60251e-06
-3.1662e-07
-2.5037e-06
-3.69922e-07
-2.39258e-06
-4.23291e-07
-2.269e-06
-4.76031e-07
-2.133e-06
-5.27142e-07
-1.98491e-06
-5.75253e-07
-1.82551e-06
-6.18863e-07
-1.65583e-06
-6.56454e-07
-1.47734e-06
-6.86016e-07
-1.2921e-06
-7.05472e-07
-1.10262e-06
-7.13171e-07
-9.11921e-07
-7.07269e-07
-7.23629e-07
-6.86511e-07
-5.41911e-07
-6.50233e-07
-3.70543e-07
-5.99172e-07
-2.12621e-07
-5.34502e-07
-7.13235e-08
-4.57523e-07
5.13382e-08
-3.70479e-07
1.53599e-07
-2.76412e-07
2.34377e-07
-1.78767e-07
2.9328e-07
-8.11692e-08
3.31028e-07
1.30076e-08
3.47629e-07
1.00214e-07
3.42392e-07
1.75844e-07
3.15491e-07
2.3562e-07
2.6757e-07
2.74018e-07
2.02464e-07
2.85659e-07
1.2602e-07
2.67764e-07
4.87693e-08
2.15415e-07
1.08785e-07
3.36704e-08
-9.3386e-08
8.57784e-08
-1.97292e-07
1.26865e-07
-2.12033e-07
1.53555e-07
-1.84603e-07
1.66616e-07
-1.38199e-07
1.68274e-07
-8.68544e-08
1.59905e-07
-3.67868e-08
1.42248e-07
8.54896e-09
1.15462e-07
4.76719e-08
7.90966e-08
8.06038e-08
3.21845e-08
1.09073e-07
-2.64617e-08
1.3581e-07
-9.8004e-08
1.6379e-07
-1.83516e-07
1.95458e-07
-2.84005e-07
2.32307e-07
-4.00318e-07
2.74861e-07
-5.32885e-07
3.22841e-07
-6.8146e-07
3.75428e-07
-8.44582e-07
4.30727e-07
-1.01917e-06
4.86092e-07
-1.20143e-06
5.38928e-07
-1.38678e-06
5.86047e-07
-1.57094e-06
6.25606e-07
-1.74966e-06
6.55211e-07
-1.9186e-06
6.73502e-07
-2.07519e-06
6.80985e-07
-2.21854e-06
6.7869e-07
-2.34868e-06
6.67943e-07
-2.46607e-06
6.50214e-07
-2.57145e-06
6.26648e-07
-2.66566e-06
5.98228e-07
-2.74955e-06
5.65699e-07
-2.82385e-06
5.29668e-07
-2.88921e-06
4.90776e-07
-2.94623e-06
4.49527e-07
-2.99534e-06
4.06365e-07
-3.03687e-06
3.61648e-07
-3.07105e-06
3.15706e-07
-3.09801e-06
2.68674e-07
-3.11776e-06
2.20632e-07
-3.13022e-06
1.71622e-07
-3.13531e-06
1.21648e-07
-3.13286e-06
7.05583e-08
-3.12257e-06
1.81809e-08
-3.1042e-06
-3.5543e-08
-3.0773e-06
-9.08379e-08
-3.04145e-06
-1.47807e-07
-2.99625e-06
-2.0651e-07
-2.94122e-06
-2.67023e-07
-2.87573e-06
-3.29365e-07
-2.79923e-06
-3.93127e-07
-2.71123e-06
-4.57917e-07
-2.61129e-06
-5.23232e-07
-2.49898e-06
-5.88338e-07
-2.37391e-06
-6.52213e-07
-2.23599e-06
-7.13173e-07
-2.08572e-06
-7.69131e-07
-1.92364e-06
-8.18534e-07
-1.75072e-06
-8.5894e-07
-1.56872e-06
-8.87477e-07
-1.3797e-06
-9.02186e-07
-1.18649e-06
-9.0048e-07
-9.92191e-07
-8.8081e-07
-8.00822e-07
-8.41601e-07
-6.17092e-07
-7.82903e-07
-4.45341e-07
-7.06253e-07
-2.88729e-07
-6.14135e-07
-1.50007e-07
-5.09201e-07
-3.13752e-08
-3.95043e-07
6.58592e-08
-2.76001e-07
1.41258e-07
-1.56568e-07
1.9531e-07
-4.10448e-08
2.28969e-07
6.65556e-08
2.42662e-07
1.62151e-07
2.36819e-07
2.41464e-07
2.1175e-07
2.99087e-07
1.68425e-07
3.28984e-07
1.09942e-07
3.26247e-07
4.40457e-08
2.81311e-07
1.52831e-07
3.71655e-08
-1.30551e-07
8.21782e-08
-2.42305e-07
1.10687e-07
-2.40542e-07
1.23513e-07
-1.97429e-07
1.23469e-07
-1.38155e-07
1.12544e-07
-7.59297e-08
9.172e-08
-1.59627e-08
6.11269e-08
3.91421e-08
2.02998e-08
8.8499e-08
-3.18967e-08
1.328e-07
-9.68498e-08
1.74026e-07
-1.75953e-07
2.14914e-07
-2.70384e-07
2.58221e-07
-3.80984e-07
3.06057e-07
-5.08189e-07
3.59512e-07
-6.51769e-07
4.1844e-07
-8.1064e-07
4.81713e-07
-9.82478e-07
5.47267e-07
-1.16383e-06
6.12084e-07
-1.35012e-06
6.72373e-07
-1.53682e-06
7.25627e-07
-1.71902e-06
7.68251e-07
-1.89153e-06
7.98118e-07
-2.05131e-06
8.14994e-07
-2.19753e-06
8.19715e-07
-2.3304e-06
8.13861e-07
-2.45074e-06
7.99024e-07
-2.55956e-06
7.76766e-07
-2.65776e-06
7.48412e-07
-2.74617e-06
7.15055e-07
-2.82553e-06
6.77591e-07
-2.89649e-06
6.36661e-07
-2.9597e-06
5.92873e-07
-3.01567e-06
5.46745e-07
-3.06483e-06
4.98686e-07
-3.10747e-06
4.49007e-07
-3.14379e-06
3.9797e-07
-3.17396e-06
3.45878e-07
-3.19812e-06
2.92831e-07
-3.21624e-06
2.38751e-07
-3.22825e-06
1.83629e-07
-3.23418e-06
1.27586e-07
-3.23397e-06
7.03413e-08
-3.22734e-06
1.15582e-08
-3.21435e-06
-4.85409e-08
-3.19448e-06
-1.10705e-07
-3.16726e-06
-1.75022e-07
-3.13217e-06
-2.41606e-07
-3.08864e-06
-3.10553e-07
-3.03591e-06
-3.82095e-07
-2.97317e-06
-4.55868e-07
-2.89956e-06
-5.31522e-07
-2.81427e-06
-6.0852e-07
-2.71672e-06
-6.8589e-07
-2.60645e-06
-7.62489e-07
-2.48278e-06
-8.36842e-07
-2.34548e-06
-9.06425e-07
-2.19463e-06
-9.69393e-07
-2.03047e-06
-1.02309e-06
-1.85453e-06
-1.06342e-06
-1.66829e-06
-1.08842e-06
-1.47433e-06
-1.09445e-06
-1.27554e-06
-1.07959e-06
-1.07568e-06
-1.04146e-06
-8.79105e-07
-9.7948e-07
-6.91297e-07
-8.9406e-07
-5.1685e-07
-7.88583e-07
-3.59176e-07
-6.66875e-07
-2.21248e-07
-5.32971e-07
-1.05163e-07
-3.92086e-07
-1.18326e-08
-2.49898e-07
5.90363e-08
-1.11914e-07
1.08658e-07
1.69338e-08
1.38559e-07
1.3225e-07
1.49873e-07
2.3015e-07
1.43248e-07
3.05711e-07
1.19172e-07
3.5306e-07
7.99285e-08
3.65491e-07
3.17906e-08
3.29449e-07
1.84621e-07
3.71639e-08
-1.67715e-07
6.96529e-08
-2.74793e-07
8.34241e-08
-2.54313e-07
8.15917e-08
-1.95596e-07
6.79241e-08
-1.24487e-07
4.38289e-08
-5.18346e-08
9.61672e-09
1.82495e-08
-3.51749e-08
8.39337e-08
-9.15875e-08
1.44912e-07
-1.6102e-07
2.02233e-07
-2.44956e-07
2.57962e-07
-3.44666e-07
3.14624e-07
-4.60973e-07
3.74528e-07
-5.94074e-07
4.39158e-07
-7.43394e-07
5.08833e-07
-9.07402e-07
5.82448e-07
-1.08324e-06
6.57552e-07
-1.26679e-06
7.30816e-07
-1.45336e-06
7.98649e-07
-1.6379e-06
8.56915e-07
-1.81441e-06
9.02138e-07
-1.97886e-06
9.32702e-07
-2.12965e-06
9.48905e-07
-2.26686e-06
9.52208e-07
-2.39137e-06
9.44226e-07
-2.50422e-06
9.26713e-07
-2.60649e-06
9.01289e-07
-2.69915e-06
8.69428e-07
-2.783e-06
8.32266e-07
-2.85872e-06
7.90768e-07
-2.92684e-06
7.4572e-07
-2.98791e-06
6.97728e-07
-3.04238e-06
6.47344e-07
-3.09062e-06
5.94988e-07
-3.13299e-06
5.41051e-07
-3.16969e-06
4.85704e-07
-3.20077e-06
4.29048e-07
-3.22646e-06
3.71571e-07
-3.24689e-06
3.13263e-07
-3.26228e-06
2.54142e-07
-3.27273e-06
1.94081e-07
-3.27803e-06
1.32878e-07
-3.27802e-06
7.03381e-08
-3.27248e-06
6.01032e-09
-3.2617e-06
-5.9314e-08
-3.24567e-06
-1.26736e-07
-3.22431e-06
-1.9638e-07
-3.19744e-06
-2.68475e-07
-3.16477e-06
-3.43232e-07
-3.12595e-06
-4.20915e-07
-3.08005e-06
-5.01762e-07
-3.02593e-06
-5.85642e-07
-2.96229e-06
-6.72157e-07
-2.88742e-06
-7.60765e-07
-2.79931e-06
-8.50601e-07
-2.69628e-06
-9.39869e-07
-2.57762e-06
-1.02508e-06
-2.44352e-06
-1.10349e-06
-2.29436e-06
-1.17226e-06
-2.13003e-06
-1.22774e-06
-1.95144e-06
-1.26702e-06
-1.76101e-06
-1.28488e-06
-1.56109e-06
-1.27952e-06
-1.35539e-06
-1.24716e-06
-1.14795e-06
-1.18692e-06
-9.44129e-07
-1.09788e-06
-7.50468e-07
-9.82243e-07
-5.71918e-07
-8.45425e-07
-4.12171e-07
-6.92719e-07
-2.74408e-07
-5.29848e-07
-1.60569e-07
-3.63737e-07
-7.10566e-08
-2.01426e-07
-4.77514e-09
-4.93476e-08
4.02107e-08
8.72639e-08
6.62858e-08
2.04075e-07
7.50713e-08
2.96926e-07
6.75197e-08
3.60612e-07
4.59424e-08
3.87068e-07
1.67252e-08
3.58666e-07
2.01346e-07
3.24782e-08
-2.00194e-07
4.98359e-08
-2.92151e-07
4.77006e-08
-2.52178e-07
3.09455e-08
-1.78841e-07
3.37728e-09
-9.6919e-08
-3.43758e-08
-1.40815e-08
-8.27095e-08
6.65832e-08
-1.42568e-07
1.43792e-07
-2.1526e-07
2.17604e-07
-3.02205e-07
2.89178e-07
-4.04672e-07
3.60428e-07
-5.23505e-07
4.33457e-07
-6.58857e-07
5.0988e-07
-8.10054e-07
5.90354e-07
-9.75355e-07
6.74134e-07
-1.15156e-06
7.58649e-07
-1.33424e-06
8.40234e-07
-1.51844e-06
9.15017e-07
-1.69809e-06
9.78303e-07
-1.86793e-06
1.02675e-06
-2.02478e-06
1.05899e-06
-2.16802e-06
1.07594e-06
-2.2981e-06
1.07898e-06
-2.41598e-06
1.07009e-06
-2.52275e-06
1.05099e-06
-2.61953e-06
1.0235e-06
-2.70728e-06
9.89032e-07
-2.78671e-06
9.4886e-07
-2.85842e-06
9.03974e-07
-2.92289e-06
8.55244e-07
-2.98056e-06
8.03382e-07
-3.0318e-06
7.48973e-07
-3.07694e-06
6.92487e-07
-3.11618e-06
6.3422e-07
-3.14984e-06
5.74716e-07
-3.17859e-06
5.14453e-07
-3.20304e-06
4.53502e-07
-3.22325e-06
3.91779e-07
-3.23918e-06
3.29188e-07
-3.25077e-06
2.65736e-07
-3.25813e-06
2.01441e-07
-3.26129e-06
1.36034e-07
-3.26046e-06
6.95134e-08
-3.25513e-06
6.80423e-10
-3.24639e-06
-6.80514e-08
-3.23364e-06
-1.39492e-07
-3.21681e-06
-2.13207e-07
-3.19576e-06
-2.89528e-07
-3.17019e-06
-3.688e-07
-3.13993e-06
-4.51175e-07
-3.10466e-06
-5.37034e-07
-3.06395e-06
-6.26354e-07
-3.01714e-06
-7.18964e-07
-2.96343e-06
-8.14476e-07
-2.90184e-06
-9.12188e-07
-2.83025e-06
-1.01146e-06
-2.74436e-06
-1.11097e-06
-2.64014e-06
-1.20771e-06
-2.51571e-06
-1.29669e-06
-2.37139e-06
-1.37206e-06
-2.20889e-06
-1.42952e-06
-2.02962e-06
-1.46416e-06
-1.83513e-06
-1.47401e-06
-1.62911e-06
-1.45318e-06
-1.4154e-06
-1.40063e-06
-1.19874e-06
-1.31454e-06
-9.86243e-07
-1.19474e-06
-7.8556e-07
-1.04611e-06
-6.02212e-07
-8.76067e-07
-4.40244e-07
-6.91816e-07
-3.02993e-07
-5.00989e-07
-1.92125e-07
-3.12294e-07
-1.07404e-07
-1.34069e-07
-4.67354e-08
2.65954e-08
-6.85551e-09
1.64195e-07
1.50545e-08
2.75016e-07
2.13929e-08
3.54273e-07
1.53028e-08
3.93158e-07
3.22382e-09
3.70745e-07
2.0457e-07
2.34857e-08
-2.23679e-07
2.42809e-08
-2.92946e-07
5.56868e-09
-2.33466e-07
-2.55801e-08
-1.47692e-07
-6.7087e-08
-5.54121e-08
-1.18846e-07
3.7678e-08
-1.81691e-07
1.29427e-07
-2.56848e-07
2.18949e-07
-3.45641e-07
3.06397e-07
-4.49265e-07
3.92802e-07
-5.68543e-07
4.79706e-07
-7.03644e-07
5.68559e-07
-8.53963e-07
6.60199e-07
-1.01782e-06
7.54211e-07
-1.19183e-06
8.48142e-07
-1.37143e-06
9.38255e-07
-1.55139e-06
1.02019e-06
-1.72548e-06
1.0891e-06
-1.88891e-06
1.14174e-06
-2.03939e-06
1.17723e-06
-2.17642e-06
1.19603e-06
-2.30056e-06
1.20008e-06
-2.41282e-06
1.19124e-06
-2.5143e-06
1.17157e-06
-2.60606e-06
1.14276e-06
-2.68898e-06
1.10642e-06
-2.76372e-06
1.06377e-06
-2.83082e-06
1.01596e-06
-2.89072e-06
9.6388e-07
-2.94384e-06
9.08359e-07
-2.99053e-06
8.50075e-07
-3.03119e-06
7.89637e-07
-3.06637e-06
7.27661e-07
-3.09673e-06
6.64579e-07
-3.12256e-06
6.00551e-07
-3.14377e-06
5.35662e-07
-3.16045e-06
4.70184e-07
-3.17269e-06
4.04017e-07
-3.18085e-06
3.37342e-07
-3.18539e-06
2.70281e-07
-3.1867e-06
2.02751e-07
-3.18514e-06
1.34478e-07
-3.18089e-06
6.52546e-08
-3.17476e-06
-5.44403e-09
-3.16575e-06
-7.70611e-08
-3.15442e-06
-1.50821e-07
-3.14075e-06
-2.26885e-07
-3.12467e-06
-3.056e-07
-3.10615e-06
-3.87324e-07
-3.08494e-06
-4.72387e-07
-3.0608e-06
-5.61176e-07
-3.03323e-06
-6.53924e-07
-3.00148e-06
-7.50713e-07
-2.96457e-06
-8.51379e-07
-2.92144e-06
-9.55321e-07
-2.87131e-06
-1.0616e-06
-2.81271e-06
-1.16957e-06
-2.74383e-06
-1.2766e-06
-2.65983e-06
-1.38068e-06
-2.55335e-06
-1.47855e-06
-2.4207e-06
-1.56216e-06
-2.26269e-06
-1.62216e-06
-2.08382e-06
-1.65288e-06
-1.88597e-06
-1.65103e-06
-1.67335e-06
-1.61325e-06
-1.45018e-06
-1.53771e-06
-1.22293e-06
-1.42199e-06
-1.00049e-06
-1.26855e-06
-7.92067e-07
-1.08449e-06
-6.03884e-07
-8.79999e-07
-4.4036e-07
-6.64513e-07
-3.04847e-07
-4.47807e-07
-1.98521e-07
-2.40395e-07
-1.2015e-07
-5.17751e-08
-6.63632e-08
1.10408e-07
-3.25165e-08
2.41169e-07
-1.45585e-08
3.36315e-07
-7.39207e-09
3.85992e-07
-5.36945e-09
3.68723e-07
1.99201e-07
1.13792e-08
-2.35058e-07
-5.40938e-09
-2.76158e-07
-3.96632e-08
-1.99212e-07
-8.52322e-08
-1.02123e-07
-1.40758e-07
1.13821e-10
-2.06506e-07
1.03426e-07
-2.83739e-07
2.0666e-07
-3.73711e-07
3.08922e-07
-4.77552e-07
4.10238e-07
-5.9604e-07
5.1129e-07
-7.29374e-07
6.1304e-07
-8.77072e-07
7.16257e-07
-1.03766e-06
8.20788e-07
-1.20787e-06
9.24423e-07
-1.38304e-06
1.02331e-06
-1.55776e-06
1.11298e-06
-1.7263e-06
1.18873e-06
-1.88419e-06
1.24699e-06
-2.02933e-06
1.28688e-06
-2.16111e-06
1.30902e-06
-2.28018e-06
1.31509e-06
-2.38748e-06
1.30738e-06
-2.48413e-06
1.28789e-06
-2.57107e-06
1.25851e-06
-2.64909e-06
1.22078e-06
-2.7188e-06
1.17613e-06
-2.7807e-06
1.12567e-06
-2.83523e-06
1.07049e-06
-2.88284e-06
1.01149e-06
-2.92397e-06
9.49489e-07
-2.95909e-06
8.85203e-07
-2.9887e-06
8.1924e-07
-3.01306e-06
7.52024e-07
-3.03247e-06
6.83991e-07
-3.04729e-06
6.1537e-07
-3.05801e-06
5.46384e-07
-3.06514e-06
4.77306e-07
-3.06927e-06
4.08149e-07
-3.07085e-06
3.38927e-07
-3.07011e-06
2.69542e-07
-3.06722e-06
1.99854e-07
-3.06239e-06
1.29654e-07
-3.05582e-06
5.86842e-08
-3.0479e-06
-1.33721e-08
-3.03832e-06
-8.66369e-08
-3.02743e-06
-1.61708e-07
-3.01541e-06
-2.38909e-07
-3.00235e-06
-3.18657e-07
-2.98833e-06
-4.01346e-07
-2.97332e-06
-4.87396e-07
-2.95726e-06
-5.7723e-07
-2.93997e-06
-6.71215e-07
-2.92106e-06
-7.69621e-07
-2.89991e-06
-8.7253e-07
-2.87547e-06
-9.79761e-07
-2.84615e-06
-1.09092e-06
-2.81042e-06
-1.20529e-06
-2.76613e-06
-1.3209e-06
-2.71137e-06
-1.43544e-06
-2.64361e-06
-1.54631e-06
-2.55704e-06
-1.64874e-06
-2.44055e-06
-1.73865e-06
-2.29155e-06
-1.80188e-06
-2.11308e-06
-1.8295e-06
-1.91196e-06
-1.81437e-06
-1.69143e-06
-1.75823e-06
-1.45753e-06
-1.65589e-06
-1.2184e-06
-1.50769e-06
-9.85141e-07
-1.31774e-06
-7.68833e-07
-1.09631e-06
-5.76558e-07
-8.56788e-07
-4.13004e-07
-6.11361e-07
-2.81268e-07
-3.72132e-07
-1.81627e-07
-1.51416e-07
-1.11487e-07
4.0268e-08
-6.55372e-08
1.9522e-07
-3.77434e-08
3.08521e-07
-2.04149e-08
3.68664e-07
-9.1984e-09
3.57506e-07
1.90002e-07
-2.59954e-09
-2.32459e-07
-3.63798e-08
-2.42377e-07
-8.61108e-08
-1.49481e-07
-1.4588e-07
-4.23545e-08
-2.14921e-07
6.91555e-08
-2.94343e-07
1.82848e-07
-3.85285e-07
2.97602e-07
-4.88914e-07
4.1255e-07
-6.0601e-07
5.27334e-07
-7.36812e-07
6.42092e-07
-8.8096e-07
7.57188e-07
-1.03724e-06
8.72541e-07
-1.20269e-06
9.86237e-07
-1.37272e-06
1.09445e-06
-1.54205e-06
1.19264e-06
-1.70538e-06
1.2763e-06
-1.85845e-06
1.34179e-06
-1.999e-06
1.38755e-06
-2.12641e-06
1.41428e-06
-2.24104e-06
1.42365e-06
-2.34395e-06
1.41799e-06
-2.43608e-06
1.39951e-06
-2.51832e-06
1.37013e-06
-2.59134e-06
1.33153e-06
-2.65572e-06
1.28516e-06
-2.71191e-06
1.23232e-06
-2.7604e-06
1.17416e-06
-2.80167e-06
1.11177e-06
-2.83626e-06
1.04607e-06
-2.86471e-06
9.77941e-07
-2.88759e-06
9.08077e-07
-2.90542e-06
8.37072e-07
-2.91877e-06
7.65376e-07
-2.92817e-06
6.93393e-07
-2.93418e-06
6.21375e-07
-2.93733e-06
5.49531e-07
-2.93801e-06
4.77989e-07
-2.93658e-06
4.06724e-07
-2.93332e-06
3.35663e-07
-2.92845e-06
2.64673e-07
-2.92217e-06
1.93578e-07
-2.91467e-06
1.22149e-07
-2.90611e-06
5.01271e-08
-2.89672e-06
-2.27655e-08
-2.88653e-06
-9.68234e-08
-2.87577e-06
-1.72465e-07
-2.86463e-06
-2.50049e-07
-2.8533e-06
-3.29993e-07
-2.84193e-06
-4.12712e-07
-2.83068e-06
-4.9865e-07
-2.81966e-06
-5.88254e-07
-2.80892e-06
-6.81956e-07
-2.7984e-06
-7.80135e-07
-2.78786e-06
-8.83074e-07
-2.77669e-06
-9.90928e-07
-2.76394e-06
-1.10368e-06
-2.7483e-06
-1.22092e-06
-2.72757e-06
-1.34163e-06
-2.69876e-06
-1.46425e-06
-2.65895e-06
-1.58611e-06
-2.60505e-06
-1.70264e-06
-2.53311e-06
-1.81059e-06
-2.43292e-06
-1.90207e-06
-2.2941e-06
-1.96832e-06
-2.11766e-06
-1.99081e-06
-1.91227e-06
-1.96362e-06
-1.68247e-06
-1.88569e-06
-1.43641e-06
-1.75375e-06
-1.18444e-06
-1.56972e-06
-9.40232e-07
-1.34051e-06
-7.16865e-07
-1.08015e-06
-5.22337e-07
-8.05889e-07
-3.61297e-07
-5.33172e-07
-2.36166e-07
-2.76547e-07
-1.45762e-07
-5.01351e-08
-8.54505e-08
1.34908e-07
-4.7852e-08
2.70923e-07
-2.38603e-08
3.44672e-07
-8.3692e-09
3.42015e-07
1.81633e-07
-1.75272e-08
-2.14932e-07
-6.79501e-08
-1.91955e-07
-1.3216e-07
-8.52712e-08
-2.05337e-07
3.08232e-08
-2.87413e-07
1.51231e-07
-3.79561e-07
2.74996e-07
-4.82982e-07
4.01024e-07
-5.98552e-07
5.28119e-07
-7.26599e-07
6.55382e-07
-8.66884e-07
7.82377e-07
-1.01844e-06
9.08747e-07
-1.1787e-06
1.03279e-06
-1.34337e-06
1.15091e-06
-1.50742e-06
1.25851e-06
-1.66597e-06
1.35119e-06
-1.81493e-06
1.42527e-06
-1.95168e-06
1.47855e-06
-2.07538e-06
1.51125e-06
-2.18632e-06
1.52521e-06
-2.28532e-06
1.52266e-06
-2.37334e-06
1.50601e-06
-2.45113e-06
1.4773e-06
-2.51931e-06
1.43831e-06
-2.57842e-06
1.39063e-06
-2.62895e-06
1.33569e-06
-2.67146e-06
1.27482e-06
-2.70653e-06
1.20924e-06
-2.73484e-06
1.14008e-06
-2.75709e-06
1.06832e-06
-2.77398e-06
9.94829e-07
-2.7862e-06
9.20298e-07
-2.79441e-06
8.45284e-07
-2.79925e-06
7.70211e-07
-2.80125e-06
6.95401e-07
-2.80093e-06
6.21047e-07
-2.79866e-06
5.47268e-07
-2.79476e-06
4.74085e-07
-2.78946e-06
4.01424e-07
-2.78296e-06
3.29167e-07
-2.77544e-06
2.57151e-07
-2.76704e-06
1.85179e-07
-2.75791e-06
1.13014e-07
-2.74818e-06
4.03974e-08
-2.738e-06
-3.29491e-08
-2.72748e-06
-1.07338e-07
-2.71682e-06
-1.83127e-07
-2.7062e-06
-2.60671e-07
-2.69583e-06
-3.40363e-07
-2.68593e-06
-4.22608e-07
-2.67674e-06
-5.07841e-07
-2.66849e-06
-5.9651e-07
-2.66137e-06
-6.89068e-07
-2.65556e-06
-7.85953e-07
-2.65107e-06
-8.87562e-07
-2.64776e-06
-9.94236e-07
-2.64525e-06
-1.10619e-06
-2.64276e-06
-1.2234e-06
-2.63889e-06
-1.3455e-06
-2.63151e-06
-1.47163e-06
-2.61758e-06
-1.60004e-06
-2.59235e-06
-1.72787e-06
-2.55213e-06
-1.85081e-06
-2.49157e-06
-1.96263e-06
-2.40347e-06
-2.05642e-06
-2.27294e-06
-2.12134e-06
-2.0981e-06
-2.13846e-06
-1.88688e-06
-2.0969e-06
-1.64612e-06
-1.99451e-06
-1.38656e-06
-1.82927e-06
-1.1214e-06
-1.60568e-06
-8.67136e-07
-1.33442e-06
-6.38986e-07
-1.03404e-06
-4.45442e-07
-7.26717e-07
-2.90699e-07
-4.3129e-07
-1.75737e-07
-1.65097e-07
-9.73269e-08
5.64975e-08
-4.82676e-08
2.21863e-07
-1.95171e-08
3.15921e-07
-4.0153e-09
3.26513e-07
1.77618e-07
-3.25452e-08
-1.82387e-07
-9.84097e-08
-1.2609e-07
-1.7619e-07
-7.49099e-09
-2.61871e-07
1.16504e-07
-3.55936e-07
2.45295e-07
-4.59577e-07
3.78638e-07
-5.73858e-07
5.15304e-07
-6.99306e-07
6.53567e-07
-8.35833e-07
7.91909e-07
-9.82695e-07
9.29239e-07
-1.1377e-06
1.06376e-06
-1.29706e-06
1.19215e-06
-1.45613e-06
1.30997e-06
-1.61038e-06
1.41275e-06
-1.75586e-06
1.49667e-06
-1.88963e-06
1.55904e-06
-2.01042e-06
1.59933e-06
-2.11835e-06
1.61919e-06
-2.21412e-06
1.62098e-06
-2.29856e-06
1.6071e-06
-2.37239e-06
1.57984e-06
-2.43619e-06
1.5411e-06
-2.49049e-06
1.49262e-06
-2.53587e-06
1.43601e-06
-2.57297e-06
1.37279e-06
-2.60252e-06
1.30437e-06
-2.62534e-06
1.23206e-06
-2.64228e-06
1.15701e-06
-2.65417e-06
1.08021e-06
-2.6618e-06
1.00247e-06
-2.66592e-06
9.24413e-07
-2.66716e-06
8.46528e-07
-2.6661e-06
7.69144e-07
-2.66317e-06
6.92477e-07
-2.65876e-06
6.16636e-07
-2.65314e-06
5.41647e-07
-2.64651e-06
4.67455e-07
-2.63903e-06
3.93945e-07
-2.63083e-06
3.20966e-07
-2.62201e-06
2.48328e-07
-2.61265e-06
1.75824e-07
-2.60286e-06
1.03218e-07
-2.59271e-06
3.02538e-08
-2.58232e-06
-4.33401e-08
-2.5718e-06
-1.17857e-07
-2.56131e-06
-1.93616e-07
-2.55103e-06
-2.70949e-07
-2.54118e-06
-3.50212e-07
-2.53201e-06
-4.31782e-07
-2.52379e-06
-5.16063e-07
-2.51682e-06
-6.03483e-07
-2.5114e-06
-6.94488e-07
-2.50781e-06
-7.89537e-07
-2.50628e-06
-8.89089e-07
-2.50694e-06
-9.93582e-07
-2.50974e-06
-1.10339e-06
-2.51438e-06
-1.21876e-06
-2.52016e-06
-1.33972e-06
-2.52585e-06
-1.46595e-06
-2.52932e-06
-1.59656e-06
-2.52733e-06
-1.72987e-06
-2.51526e-06
-1.86288e-06
-2.48698e-06
-1.99091e-06
-2.4367e-06
-2.1067e-06
-2.35583e-06
-2.20221e-06
-2.23071e-06
-2.26358e-06
-2.05514e-06
-2.27247e-06
-1.83584e-06
-2.21381e-06
-1.58224e-06
-2.08288e-06
-1.30832e-06
-1.87959e-06
-1.03058e-06
-1.61216e-06
-7.68763e-07
-1.29586e-06
-5.39973e-07
-9.55506e-07
-3.52399e-07
-6.18864e-07
-2.09087e-07
-3.08409e-07
-1.08787e-07
-4.38027e-08
-4.56978e-08
1.58774e-07
-1.16025e-08
2.81826e-07
2.1593e-09
3.12751e-07
1.79777e-07
-4.68849e-08
-1.35502e-07
-1.26797e-07
-4.61779e-08
-2.16805e-07
8.25172e-08
-3.13902e-07
2.13601e-07
-4.18638e-07
3.50031e-07
-5.32222e-07
4.92222e-07
-6.55492e-07
6.38574e-07
-7.88633e-07
7.86708e-07
-9.31113e-07
9.3439e-07
-1.08112e-06
1.07925e-06
-1.23541e-06
1.21804e-06
-1.3899e-06
1.34665e-06
-1.54035e-06
1.46042e-06
-1.68292e-06
1.55532e-06
-1.81447e-06
1.62822e-06
-1.93322e-06
1.67779e-06
-2.03897e-06
1.70508e-06
-2.13228e-06
1.7125e-06
-2.21388e-06
1.70257e-06
-2.28446e-06
1.67768e-06
-2.3446e-06
1.63998e-06
-2.39487e-06
1.59137e-06
-2.43591e-06
1.53366e-06
-2.46847e-06
1.46858e-06
-2.49344e-06
1.39776e-06
-2.51177e-06
1.3227e-06
-2.52443e-06
1.24472e-06
-2.53236e-06
1.16495e-06
-2.53645e-06
1.0843e-06
-2.53747e-06
1.00348e-06
-2.53609e-06
9.23026e-07
-2.53284e-06
8.43284e-07
-2.52818e-06
7.64481e-07
-2.52243e-06
6.86729e-07
-2.51584e-06
6.10049e-07
-2.50859e-06
5.3439e-07
-2.50077e-06
4.59641e-07
-2.49248e-06
3.85654e-07
-2.48377e-06
3.12258e-07
-2.47468e-06
2.3924e-07
-2.46525e-06
1.66386e-07
-2.4555e-06
9.34746e-08
-2.44551e-06
2.02597e-08
-2.43533e-06
-5.35198e-08
-2.42506e-06
-1.28125e-07
-2.41484e-06
-2.03839e-07
-2.40483e-06
-2.80958e-07
-2.39524e-06
-3.59798e-07
-2.38633e-06
-4.40693e-07
-2.37839e-06
-5.24004e-07
-2.37176e-06
-6.10121e-07
-2.36678e-06
-6.99463e-07
-2.36384e-06
-7.92479e-07
-2.36328e-06
-8.89647e-07
-2.36541e-06
-9.91457e-07
-2.37041e-06
-1.09839e-06
-2.37829e-06
-1.21087e-06
-2.3888e-06
-1.32921e-06
-2.40125e-06
-1.45349e-06
-2.4144e-06
-1.58342e-06
-2.42615e-06
-1.71811e-06
-2.43324e-06
-1.85579e-06
-2.43085e-06
-1.99331e-06
-2.41195e-06
-2.1256e-06
-2.36917e-06
-2.24498e-06
-2.29294e-06
-2.33981e-06
-2.16881e-06
-2.3966e-06
-1.98933e-06
-2.39329e-06
-1.75922e-06
-2.31299e-06
-1.4911e-06
-2.1477e-06
-1.20271e-06
-1.90055e-06
-9.14495e-07
-1.58407e-06
-6.49948e-07
-1.22005e-06
-4.26901e-07
-8.41912e-07
-2.52295e-07
-4.83014e-07
-1.27007e-07
-1.69091e-07
-4.69347e-08
7.87017e-08
-5.26329e-09
2.40155e-07
7.57118e-09
2.99917e-07
1.87348e-07
-5.99639e-08
-7.55378e-08
-1.52168e-07
4.60265e-08
-2.53146e-07
1.83495e-07
-3.60209e-07
3.20664e-07
-4.74071e-07
4.63893e-07
-5.95841e-07
6.13992e-07
-7.26121e-07
7.68854e-07
-8.64693e-07
9.2528e-07
-1.01012e-06
1.07982e-06
-1.1597e-06
1.22883e-06
-1.31007e-06
1.36841e-06
-1.45721e-06
1.49379e-06
-1.59741e-06
1.60062e-06
-1.72742e-06
1.68533e-06
-1.84501e-06
1.74581e-06
-1.94951e-06
1.78228e-06
-2.04125e-06
1.79683e-06
-2.12091e-06
1.79216e-06
-2.18914e-06
1.77079e-06
-2.24653e-06
1.73508e-06
-2.29372e-06
1.68716e-06
-2.3314e-06
1.62905e-06
-2.36045e-06
1.56271e-06
-2.38188e-06
1.49e-06
-2.39675e-06
1.41263e-06
-2.40616e-06
1.33211e-06
-2.41115e-06
1.2497e-06
-2.41264e-06
1.16644e-06
-2.41145e-06
1.08311e-06
-2.40827e-06
1.0003e-06
-2.40362e-06
9.18384e-07
-2.39794e-06
8.37602e-07
-2.39153e-06
7.58069e-07
-2.3846e-06
6.79799e-07
-2.37729e-06
6.02738e-07
-2.36968e-06
5.26776e-07
-2.3618e-06
4.5176e-07
-2.35366e-06
3.77517e-07
-2.34526e-06
3.03863e-07
-2.3366e-06
2.30579e-07
-2.32766e-06
1.57444e-07
-2.31844e-06
8.42549e-08
-2.30897e-06
1.07888e-08
-2.29928e-06
-6.3207e-08
-2.28945e-06
-1.37952e-07
-2.2796e-06
-2.13698e-07
-2.26985e-06
-2.907e-07
-2.26042e-06
-3.6923e-07
-2.25154e-06
-4.49574e-07
-2.2435e-06
-5.32044e-07
-2.23664e-06
-6.16981e-07
-2.23134e-06
-7.04758e-07
-2.22803e-06
-7.95792e-07
-2.22713e-06
-8.90544e-07
-2.22907e-06
-9.89517e-07
-2.23422e-06
-1.09325e-06
-2.24281e-06
-1.20228e-06