/*--------------------------------*- C++ -*----------------------------------*\
  =========                 |
  \\      /  F ield         | OpenFOAM: The Open Source CFD Toolbox
   \\    /   O peration     | Website:  https://openfoam.org
    \\  /    A nd           | Version:  13
     \\/     M anipulation  |
\*---------------------------------------------------------------------------*/
FoamFile
{
    format      ascii;
    class       volVectorField;
    location    "7.2";
    object      U;
}
// * * * * * * * * * * * * * * * * * * * * * * * * * * * * * * * * * * * * * //

dimensions      [0 1 -1 0 0 0 0];

internalField   nonuniform List<vector> 
6400
(
(-0.000125561 8.28844e-05 0)
(0.000438514 -0.000170834 0)
(0.00207172 -0.000430085 0)
(0.00423173 -0.000545346 0)
(0.00638227 -0.000480991 0)
(0.00817723 -0.000321197 0)
(0.00937214 -0.0001288 0)
(0.00997013 1.57975e-05 0)
(0.0100961 6.96575e-05 0)
(0.00998989 4.83582e-05 0)
(0.00977587 -2.91748e-05 0)
(0.0096216 -0.00013519 0)
(0.00959182 -0.000245268 0)
(0.00968484 -0.000334553 0)
(0.00985308 -0.000406901 0)
(0.0100179 -0.000460117 0)
(0.0101058 -0.000494006 0)
(0.0100636 -0.000497165 0)
(0.00985166 -0.000479057 0)
(0.00937616 -0.000439231 0)
(0.00859789 -0.000390699 0)
(0.00746054 -0.000341259 0)
(0.00592026 -0.000295052 0)
(0.00394987 -0.000276623 0)
(0.00151432 -0.000323308 0)
(-0.00136104 -0.000436702 0)
(-0.00469653 -0.00048806 0)
(-0.00872508 -0.000317499 0)
(-0.0135637 0.000191395 0)
(-0.0192096 0.00105001 0)
(-0.0264544 0.00208636 0)
(-0.0345121 0.00296877 0)
(-0.0432512 0.00368388 0)
(-0.0523658 0.00421729 0)
(-0.061602 0.00457379 0)
(-0.0707238 0.00476649 0)
(-0.0795461 0.00481934 0)
(-0.0879114 0.00475536 0)
(-0.0957031 0.00459673 0)
(-0.102821 0.00436142 0)
(-0.10919 0.00406155 0)
(-0.114748 0.00370599 0)
(-0.119448 0.00329763 0)
(-0.123265 0.00284049 0)
(-0.126165 0.00234638 0)
(-0.127977 0.00186708 0)
(-0.128764 0.00142916 0)
(-0.128746 0.000738421 0)
(-0.12733 0.000178758 0)
(-0.124998 -0.000499683 0)
(-0.121381 -0.0011397 0)
(-0.116686 -0.00180567 0)
(-0.110776 -0.00244507 0)
(-0.103758 -0.00307038 0)
(-0.095656 -0.00367741 0)
(-0.0865783 -0.00426453 0)
(-0.0765257 -0.00477961 0)
(-0.06569 -0.00521763 0)
(-0.0542275 -0.00554981 0)
(-0.0423446 -0.00574033 0)
(-0.0302833 -0.00575629 0)
(-0.0183262 -0.00558192 0)
(-0.00673061 -0.00521495 0)
(0.00409064 -0.00470074 0)
(0.0138046 -0.00395444 0)
(0.0221766 -0.00303058 0)
(0.028895 -0.00196539 0)
(0.033672 -0.00081467 0)
(0.0365324 0.000345486 0)
(0.0368625 0.00157525 0)
(0.0354986 0.00223299 0)
(0.0320312 0.00282149 0)
(0.0267948 0.00302871 0)
(0.0206969 0.00273852 0)
(0.0145093 0.00205307 0)
(0.0090481 0.00122115 0)
(0.00476104 0.000536374 0)
(0.001803 0.000125556 0)
(0.000162229 -0.000166009 0)
(-0.000233846 -0.000344149 0)
(1.46582e-05 -0.000377471 0)
(0.0017977 -0.00208536 0)
(0.00520005 -0.0035128 0)
(0.0090033 -0.00399891 0)
(0.0125132 -0.00362188 0)
(0.0153111 -0.00275701 0)
(0.01722 -0.00170022 0)
(0.0182638 -0.000736704 0)
(0.0185667 -5.20225e-05 0)
(0.0182898 0.000322082 0)
(0.0176319 0.000426767 0)
(0.0167601 0.000344384 0)
(0.0157615 0.0001956 0)
(0.0146287 9.27389e-05 0)
(0.0132908 9.92023e-05 0)
(0.0116455 0.000228536 0)
(0.00960469 0.000460085 0)
(0.00710396 0.000777687 0)
(0.00403107 0.00119752 0)
(0.00028124 0.00173085 0)
(-0.0042538 0.00238204 0)
(-0.00979936 0.00316878 0)
(-0.0164519 0.0040587 0)
(-0.0242772 0.00503926 0)
(-0.0333221 0.00612781 0)
(-0.0436838 0.00733207 0)
(-0.0552704 0.00867594 0)
(-0.0677365 0.0101584 0)
(-0.0807111 0.0117249 0)
(-0.0936729 0.0132113 0)
(-0.106075 0.0143147 0)
(-0.118134 0.0150058 0)
(-0.129553 0.0152904 0)
(-0.14025 0.015191 0)
(-0.150128 0.0147784 0)
(-0.15912 0.0141018 0)
(-0.167184 0.0132177 0)
(-0.174288 0.0121704 0)
(-0.180418 0.010998 0)
(-0.185559 0.00972901 0)
(-0.189698 0.00838123 0)
(-0.192834 0.00697115 0)
(-0.194956 0.00550544 0)
(-0.196061 0.00399594 0)
(-0.196138 0.00245163 0)
(-0.195153 0.000878341 0)
(-0.193111 -0.000744551 0)
(-0.190033 -0.00244851 0)
(-0.185825 -0.00419128 0)
(-0.180566 -0.00597238 0)
(-0.174177 -0.00777298 0)
(-0.1667 -0.00957752 0)
(-0.158101 -0.011364 0)
(-0.148408 -0.0131015 0)
(-0.137627 -0.0147567 0)
(-0.125829 -0.0162777 0)
(-0.113131 -0.01763 0)
(-0.0996292 -0.0187556 0)
(-0.0854973 -0.0195811 0)
(-0.0709538 -0.0200561 0)
(-0.0562065 -0.0201153 0)
(-0.0415138 -0.0197152 0)
(-0.0271618 -0.0188302 0)
(-0.0134598 -0.0174686 0)
(-0.00069272 -0.0155929 0)
(0.0108725 -0.0132457 0)
(0.0209481 -0.010451 0)
(0.0292849 -0.00734441 0)
(0.0357258 -0.00399413 0)
(0.0400769 -0.000583828 0)
(0.0423278 0.00263753 0)
(0.0423412 0.00560139 0)
(0.0402155 0.0080359 0)
(0.0361404 0.00967424 0)
(0.0302439 0.00988172 0)
(0.0229371 0.00895026 0)
(0.0152364 0.00712103 0)
(0.00825796 0.004819 0)
(0.00308279 0.00234312 0)
(0.000229953 0.000293285 0)
(0.000201495 -0.00161926 0)
(0.00318136 -0.00535997 0)
(0.0074442 -0.00759726 0)
(0.0114363 -0.00787821 0)
(0.0147168 -0.00678897 0)
(0.0170763 -0.00499033 0)
(0.01854 -0.00305089 0)
(0.0191682 -0.00129914 0)
(0.0190367 8.29944e-05 0)
(0.0182469 0.0010128 0)
(0.0169453 0.00152076 0)
(0.0152078 0.00175028 0)
(0.0130506 0.00189598 0)
(0.0104357 0.00213209 0)
(0.00727485 0.00256704 0)
(0.00346709 0.00322669 0)
(-0.00111215 0.00410176 0)
(-0.00662229 0.00520201 0)
(-0.0131892 0.0065501 0)
(-0.0209335 0.00818028 0)
(-0.0299396 0.0100991 0)
(-0.0401869 0.012248 0)
(-0.0516486 0.0145446 0)
(-0.0641855 0.0168691 0)
(-0.0775462 0.0190966 0)
(-0.0914289 0.0211345 0)
(-0.105466 0.0228861 0)
(-0.119342 0.0242913 0)
(-0.132717 0.0252881 0)
(-0.145333 0.0258561 0)
(-0.157024 0.0259878 0)
(-0.16774 0.0256796 0)
(-0.177409 0.0249806 0)
(-0.186101 0.0239246 0)
(-0.193811 0.0225566 0)
(-0.200578 0.0209476 0)
(-0.206424 0.0191435 0)
(-0.211377 0.01719 0)
(-0.215449 0.015117 0)
(-0.218653 0.0129596 0)
(-0.220998 0.0107287 0)
(-0.222486 0.00843642 0)
(-0.223114 0.00609104 0)
(-0.222875 0.00369195 0)
(-0.221759 0.00124024 0)
(-0.219753 -0.00127033 0)
(-0.216813 -0.00385719 0)
(-0.212933 -0.00651248 0)
(-0.208087 -0.0092079 0)
(-0.202258 -0.0119538 0)
(-0.195416 -0.0147276 0)
(-0.187555 -0.0175123 0)
(-0.178661 -0.0202771 0)
(-0.168739 -0.0229809 0)
(-0.157808 -0.0255673 0)
(-0.145909 -0.0279644 0)
(-0.133122 -0.0301028 0)
(-0.119538 -0.0318901 0)
(-0.105278 -0.0332277 0)
(-0.0905286 -0.034025 0)
(-0.0755057 -0.0341941 0)
(-0.0604386 -0.0336555 0)
(-0.0456113 -0.0323684 0)
(-0.0313297 -0.0303391 0)
(-0.0178656 -0.027563 0)
(-0.00544356 -0.0240737 0)
(0.00565699 -0.0199357 0)
(0.0152152 -0.0152695 0)
(0.0231177 -0.0102299 0)
(0.0292295 -0.00500358 0)
(0.0335148 0.000183036 0)
(0.0359505 0.00510334 0)
(0.0364013 0.00940629 0)
(0.0347925 0.012777 0)
(0.0314071 0.0150849 0)
(0.0263466 0.0156584 0)
(0.0197766 0.0146008 0)
(0.0125967 0.0119889 0)
(0.00589242 0.00794979 0)
(0.000786809 0.00296822 0)
(0.000420761 -0.00356658 0)
(0.00424988 -0.00948135 0)
(0.00862157 -0.011829 0)
(0.0121332 -0.011328 0)
(0.0146629 -0.00924936 0)
(0.0162065 -0.00652674 0)
(0.0168647 -0.00373227 0)
(0.0167302 -0.00120865 0)
(0.0158824 0.000846831 0)
(0.0143796 0.00236421 0)
(0.012219 0.00342575 0)
(0.00937769 0.00422044 0)
(0.00580388 0.00498161 0)
(0.00142692 0.0059121 0)
(-0.00382773 0.00713223 0)
(-0.0100594 0.0086926 0)
(-0.0173886 0.0106085 0)
(-0.0259346 0.0128834 0)
(-0.0357775 0.0155064 0)
(-0.0469304 0.0184435 0)
(-0.0593062 0.0216013 0)
(-0.0727061 0.0248339 0)
(-0.0868385 0.0279639 0)
(-0.101338 0.0308231 0)
(-0.115906 0.0333172 0)
(-0.130195 0.0352614 0)
(-0.143914 0.0365577 0)
(-0.156783 0.0372238 0)
(-0.168636 0.037324 0)
(-0.179437 0.0369056 0)
(-0.189162 0.0360294 0)
(-0.197871 0.0347343 0)
(-0.205606 0.033058 0)
(-0.212439 0.0310718 0)
(-0.218408 0.0288214 0)
(-0.22358 0.0263624 0)
(-0.227984 0.0237352 0)
(-0.231652 0.0209816 0)
(-0.234601 0.0181251 0)
(-0.236844 0.015186 0)
(-0.238385 0.012176 0)
(-0.239219 0.00910034 0)
(-0.239338 0.0059591 0)
(-0.238725 0.00274914 0)
(-0.237365 -0.000532756 0)
(-0.235232 -0.00389289 0)
(-0.232292 -0.00733164 0)
(-0.228518 -0.0108674 0)
(-0.223881 -0.0144848 0)
(-0.218345 -0.0181767 0)
(-0.211879 -0.0219203 0)
(-0.204459 -0.0256933 0)
(-0.196061 -0.0294591 0)
(-0.186668 -0.0331649 0)
(-0.176277 -0.0367345 0)
(-0.164902 -0.0400703 0)
(-0.152586 -0.0430725 0)
(-0.139405 -0.04563 0)
(-0.125454 -0.0476 0)
(-0.110868 -0.0488391 0)
(-0.0958437 -0.0492344 0)
(-0.0805937 -0.0486657 0)
(-0.0653741 -0.0470587 0)
(-0.050501 -0.0443793 0)
(-0.0363254 -0.0406957 0)
(-0.0231019 -0.0360677 0)
(-0.0110755 -0.0305859 0)
(-0.000465669 -0.0243885 0)
(0.00857345 -0.0177048 0)
(0.0159244 -0.0107768 0)
(0.0215338 -0.00385576 0)
(0.025414 0.00283082 0)
(0.0276113 0.00897299 0)
(0.0281355 0.0141578 0)
(0.0268495 0.0180424 0)
(0.0237925 0.0203231 0)
(0.0191397 0.020559 0)
(0.0132907 0.018601 0)
(0.00692211 0.0142507 0)
(0.00107303 0.00674961 0)
(0.000698814 -0.00607175 0)
(0.00493174 -0.0138454 0)
(0.00878843 -0.0156015 0)
(0.0114349 -0.0139887 0)
(0.0130092 -0.0108214 0)
(0.0135856 -0.00715656 0)
(0.0133116 -0.00354206 0)
(0.0122734 -0.000284347 0)
(0.0105076 0.00246262 0)
(0.00800114 0.00468559 0)
(0.0046901 0.00650094 0)
(0.000486047 0.00812225 0)
(-0.00470382 0.00979388 0)
(-0.0109676 0.0117204 0)
(-0.0183874 0.0140311 0)
(-0.0270407 0.016783 0)
(-0.0369867 0.0199825 0)
(-0.0482458 0.0235947 0)
(-0.0607545 0.0275195 0)
(-0.0743378 0.0316131 0)
(-0.0887061 0.0356504 0)
(-0.103502 0.0394312 0)
(-0.118365 0.0428206 0)
(-0.132987 0.0455361 0)
(-0.146983 0.0474512 0)
(-0.160036 0.0485797 0)
(-0.172054 0.0489443 0)
(-0.182982 0.0486033 0)
(-0.19287 0.0476617 0)
(-0.201761 0.0462149 0)
(-0.209717 0.0443439 0)
(-0.216827 0.0421187 0)
(-0.223137 0.0395887 0)
(-0.22871 0.0368059 0)
(-0.233592 0.0338125 0)
(-0.237831 0.0306494 0)
(-0.24145 0.0273501 0)
(-0.244474 0.0239446 0)
(-0.246919 0.0204467 0)
(-0.248786 0.0168696 0)
(-0.250074 0.0132193 0)
(-0.250777 0.00949431 0)
(-0.250884 0.00568739 0)
(-0.250376 0.0017907 0)
(-0.249237 -0.00220249 0)
(-0.247433 -0.00630223 0)
(-0.244928 -0.0105134 0)
(-0.241688 -0.0148464 0)
(-0.237684 -0.0193022 0)
(-0.232871 -0.0238748 0)
(-0.227197 -0.0285363 0)
(-0.220623 -0.0332624 0)
(-0.21311 -0.0380123 0)
(-0.204618 -0.0427242 0)
(-0.195121 -0.0473088 0)
(-0.184602 -0.0516446 0)
(-0.173064 -0.0556014 0)
(-0.160558 -0.0590487 0)
(-0.147143 -0.0618008 0)
(-0.132915 -0.0636698 0)
(-0.118044 -0.0645098 0)
(-0.102712 -0.064144 0)
(-0.0871744 -0.0624568 0)
(-0.0716726 -0.0593771 0)
(-0.0565737 -0.0549323 0)
(-0.0422971 -0.0492527 0)
(-0.0291058 -0.0424728 0)
(-0.0172313 -0.034795 0)
(-0.00688343 -0.0264823 0)
(0.00178852 -0.0178419 0)
(0.00871212 -0.00919084 0)
(0.0138964 -0.000823506 0)
(0.0174091 0.0069524 0)
(0.0193224 0.0138096 0)
(0.0196517 0.0193851 0)
(0.0184064 0.0232269 0)
(0.0155967 0.0248851 0)
(0.0114315 0.0240405 0)
(0.00627143 0.0200729 0)
(0.000940288 0.0105466 0)
(0.00100813 -0.00897305 0)
(0.00513104 -0.0178599 0)
(0.0080377 -0.0184139 0)
(0.00956754 -0.0156144 0)
(0.0100797 -0.0113565 0)
(0.00962928 -0.00679523 0)
(0.00836127 -0.00238914 0)
(0.00631951 0.0016189 0)
(0.00348675 0.00513359 0)
(-0.000206021 0.00819162 0)
(-0.00486523 0.0109439 0)
(-0.0106057 0.0136142 0)
(-0.0175295 0.0164365 0)
(-0.0257173 0.0195987 0)
(-0.0352235 0.0232108 0)
(-0.0460624 0.0272957 0)
(-0.0581877 0.0317984 0)
(-0.0714736 0.0366228 0)
(-0.0856955 0.0415391 0)
(-0.100489 0.0462889 0)
(-0.115501 0.0507066 0)
(-0.130382 0.0544366 0)
(-0.144672 0.0572893 0)
(-0.158007 0.0592003 0)
(-0.170249 0.0601323 0)
(-0.181402 0.0601716 0)
(-0.191514 0.0594454 0)
(-0.200659 0.0580854 0)
(-0.208924 0.0562044 0)
(-0.216366 0.0538914 0)
(-0.22306 0.0512222 0)
(-0.229059 0.0482524 0)
(-0.234411 0.0450341 0)
(-0.239168 0.0416102 0)
(-0.243366 0.0380145 0)
(-0.247032 0.0342773 0)
(-0.250185 0.0304248 0)
(-0.252842 0.0264818 0)
(-0.255014 0.0224566 0)
(-0.256703 0.0183541 0)
(-0.257909 0.0141756 0)
(-0.258627 0.0099138 0)
(-0.258854 0.00555346 0)
(-0.258578 0.00107942 0)
(-0.257802 -0.00352924 0)
(-0.256492 -0.00828659 0)
(-0.254619 -0.0131971 0)
(-0.252133 -0.0182607 0)
(-0.248993 -0.0234823 0)
(-0.245153 -0.0288634 0)
(-0.24055 -0.0343788 0)
(-0.235111 -0.0399942 0)
(-0.228763 -0.0456593 0)
(-0.221439 -0.0513064 0)
(-0.213127 -0.0568771 0)
(-0.203803 -0.0622621 0)
(-0.193353 -0.0672534 0)
(-0.181815 -0.0717075 0)
(-0.169223 -0.0754067 0)
(-0.155589 -0.0781014 0)
(-0.141085 -0.0796185 0)
(-0.125834 -0.0797164 0)
(-0.110084 -0.078261 0)
(-0.0940895 -0.0750855 0)
(-0.0781399 -0.0701732 0)
(-0.0626517 -0.0636171 0)
(-0.0480982 -0.0556833 0)
(-0.0347416 -0.0465985 0)
(-0.0228502 -0.0366766 0)
(-0.0126381 -0.0263 0)
(-0.00423287 -0.0158717 0)
(0.00234024 -0.00577484 0)
(0.007149 0.00364411 0)
(0.0103192 0.012061 0)
(0.0119663 0.0191483 0)
(0.0121537 0.0244786 0)
(0.0108909 0.0275696 0)
(0.00827447 0.0279474 0)
(0.00465353 0.0246855 0)
(0.000565204 0.0136779 0)
(0.00125994 -0.0120205 0)
(0.00478471 -0.0210135 0)
(0.00639087 -0.0201324 0)
(0.00681017 -0.0160535 0)
(0.00617254 -0.0108036 0)
(0.00466084 -0.00539653 0)
(0.00234259 -0.000197474 0)
(-0.000791913 0.00461749 0)
(-0.00480846 0.00900719 0)
(-0.00981126 0.0130458 0)
(-0.0159203 0.0169002 0)
(-0.0232474 0.0207856 0)
(-0.0318772 0.0249093 0)
(-0.0418546 0.0294214 0)
(-0.0531711 0.0343815 0)
(-0.0657361 0.0397448 0)
(-0.0794063 0.0453778 0)
(-0.0938828 0.0510338 0)
(-0.108772 0.0564916 0)
(-0.123741 0.0613812 0)
(-0.138318 0.065427 0)
(-0.15202 0.0684232 0)
(-0.164637 0.0702822 0)
(-0.176143 0.0710575 0)
(-0.186597 0.0708873 0)
(-0.19607 0.0699124 0)
(-0.204653 0.0682644 0)
(-0.212431 0.0660668 0)
(-0.219477 0.0634178 0)
(-0.225844 0.0603995 0)
(-0.231585 0.0570781 0)
(-0.236741 0.0535009 0)
(-0.241352 0.0497132 0)
(-0.245454 0.0457514 0)
(-0.249073 0.0416474 0)
(-0.252229 0.0374288 0)
(-0.254936 0.0331218 0)
(-0.257203 0.028743 0)
(-0.259044 0.0242963 0)
(-0.260469 0.0197557 0)
(-0.261511 0.0151093 0)
(-0.26214 0.0103924 0)
(-0.262353 0.00557795 0)
(-0.262133 0.000654305 0)
(-0.261471 -0.00439722 0)
(-0.2604 -0.00960487 0)
(-0.258899 -0.0149901 0)
(-0.256976 -0.020585 0)
(-0.254597 -0.0264129 0)
(-0.251747 -0.0325097 0)
(-0.248377 -0.0388198 0)
(-0.244391 -0.0453087 0)
(-0.2397 -0.0519467 0)
(-0.234195 -0.0586694 0)
(-0.227713 -0.0653521 0)
(-0.220089 -0.0718214 0)
(-0.211213 -0.0778724 0)
(-0.201058 -0.0833662 0)
(-0.189802 -0.0881993 0)
(-0.17722 -0.0919462 0)
(-0.163506 -0.0944103 0)
(-0.148702 -0.0952662 0)
(-0.133061 -0.0943406 0)
(-0.116776 -0.0914071 0)
(-0.100196 -0.0864084 0)
(-0.0836132 -0.0793158 0)
(-0.0675888 -0.0703909 0)
(-0.0526271 -0.060016 0)
(-0.0390095 -0.0485279 0)
(-0.0270362 -0.0363802 0)
(-0.0169249 -0.0240773 0)
(-0.00877592 -0.0121167 0)
(-0.0025656 -0.00094122 0)
(0.00185036 0.00908401 0)
(0.00467045 0.0176458 0)
(0.00604945 0.0243783 0)
(0.0060757 0.0288276 0)
(0.00481823 0.0303827 0)
(0.00266455 0.0278218 0)
(0.000100858 0.0156584 0)
(0.00136282 -0.0148731 0)
(0.00378195 -0.0230277 0)
(0.0041598 -0.0206209 0)
(0.00334404 -0.0152793 0)
(0.00156176 -0.00914288 0)
(-0.00103996 -0.00292089 0)
(-0.00445988 0.00310075 0)
(-0.00875563 0.0088006 0)
(-0.0140253 0.0141741 0)
(-0.020383 0.0193146 0)
(-0.0279392 0.0243861 0)
(-0.0367805 0.0295781 0)
(-0.0469506 0.0350526 0)
(-0.0584345 0.0408946 0)
(-0.0711366 0.0470971 0)
(-0.08488 0.0535157 0)
(-0.0993293 0.0598953 0)
(-0.11412 0.0659604 0)
(-0.128807 0.0713291 0)
(-0.142898 0.0756921 0)
(-0.155999 0.0788223 0)
(-0.168002 0.0807042 0)
(-0.178921 0.0814397 0)
(-0.188818 0.0811824 0)
(-0.197781 0.0800667 0)
(-0.205901 0.078239 0)
(-0.213266 0.0758209 0)
(-0.219938 0.0729214 0)
(-0.225973 0.0696242 0)
(-0.231409 0.0660021 0)
(-0.236285 0.0621138 0)
(-0.240633 0.0580071 0)
(-0.244482 0.0537249 0)
(-0.247852 0.0493074 0)
(-0.250757 0.0447931 0)
(-0.253226 0.0401853 0)
(-0.255359 0.0354494 0)
(-0.257143 0.0306389 0)
(-0.258587 0.0257518 0)
(-0.259694 0.0208141 0)
(-0.260447 0.0158253 0)
(-0.260866 0.0107354 0)
(-0.260951 0.00554695 0)
(-0.260705 0.00023787 0)
(-0.260139 -0.0052111 0)
(-0.259279 -0.0108033 0)
(-0.258093 -0.0165712 0)
(-0.256582 -0.0225299 0)
(-0.254725 -0.0286925 0)
(-0.252498 -0.0350569 0)
(-0.249872 -0.0417132 0)
(-0.246835 -0.0486785 0)
(-0.243344 -0.0559255 0)
(-0.239344 -0.0634218 0)
(-0.234751 -0.0711274 0)
(-0.229472 -0.078922 0)
(-0.223251 -0.0864821 0)
(-0.215753 -0.0935545 0)
(-0.206582 -0.0996726 0)
(-0.195777 -0.10463 0)
(-0.183549 -0.10833 0)
(-0.169833 -0.110294 0)
(-0.154873 -0.110314 0)
(-0.138787 -0.108043 0)
(-0.121948 -0.103383 0)
(-0.104641 -0.0962321 0)
(-0.0872988 -0.0866649 0)
(-0.0706355 -0.0751574 0)
(-0.0551858 -0.0622202 0)
(-0.0412743 -0.0483141 0)
(-0.0292318 -0.0340468 0)
(-0.0192705 -0.0200483 0)
(-0.0114524 -0.00690426 0)
(-0.00568067 0.00490587 0)
(-0.00172495 0.0150204 0)
(0.000695038 0.0231394 0)
(0.00178803 0.0288564 0)
(0.00171712 0.0315045 0)
(0.000812762 0.0294651 0)
(-0.000270483 0.016411 0)
(0.00127608 -0.017233 0)
(0.00235906 -0.0237605 0)
(0.00143235 -0.0197571 0)
(-0.000606267 -0.0133504 0)
(-0.00351662 -0.00637178 0)
(-0.00722712 0.000665297 0)
(-0.0117802 0.00755397 0)
(-0.0172674 0.0142126 0)
(-0.023797 0.0206547 0)
(-0.0314729 0.0269725 0)
(-0.0403782 0.0333088 0)
(-0.0505562 0.03981 0)
(-0.0619893 0.0465722 0)
(-0.0746035 0.0536146 0)
(-0.0882092 0.0608151 0)
(-0.102441 0.0679147 0)
(-0.116951 0.0745783 0)
(-0.131261 0.0804395 0)
(-0.144828 0.085141 0)
(-0.157421 0.0885078 0)
(-0.16892 0.0905282 0)
(-0.179352 0.0913437 0)
(-0.188783 0.0910829 0)
(-0.19731 0.0899149 0)
(-0.205019 0.0879775 0)
(-0.21199 0.0854083 0)
(-0.218284 0.0823119 0)
(-0.223947 0.0787831 0)
(-0.229018 0.0748966 0)
(-0.233529 0.07072 0)
(-0.237514 0.0663089 0)
(-0.241 0.0617123 0)
(-0.244013 0.056974 0)
(-0.24662 0.0520988 0)
(-0.248861 0.0471182 0)
(-0.250755 0.042073 0)
(-0.252269 0.0370094 0)
(-0.25342 0.0318907 0)
(-0.254226 0.0267187 0)
(-0.254721 0.0214904 0)
(-0.254946 0.0161976 0)
(-0.254929 0.0108294 0)
(-0.254695 0.005377 0)
(-0.254272 -0.000184492 0)
(-0.25367 -0.00588422 0)
(-0.252852 -0.0117326 0)
(-0.251852 -0.0177697 0)
(-0.250661 -0.0240246 0)
(-0.249278 -0.0305266 0)
(-0.247689 -0.0372949 0)
(-0.245879 -0.0443416 0)
(-0.243818 -0.051669 0)
(-0.241458 -0.05927 0)
(-0.238735 -0.0671119 0)
(-0.235562 -0.0751256 0)
(-0.231818 -0.0832949 0)
(-0.227508 -0.0917271 0)
(-0.22246 -0.100127 0)
(-0.216441 -0.108171 0)
(-0.209017 -0.115282 0)
(-0.199452 -0.120728 0)
(-0.187699 -0.124102 0)
(-0.174282 -0.125537 0)
(-0.159133 -0.12443 0)
(-0.142658 -0.120634 0)
(-0.125161 -0.113979 0)
(-0.106999 -0.104378 0)
(-0.0887982 -0.0921101 0)
(-0.0714078 -0.0778495 0)
(-0.055438 -0.0622844 0)
(-0.0412618 -0.0460201 0)
(-0.0292332 -0.0298273 0)
(-0.0195415 -0.0144599 0)
(-0.0121893 -0.000577578 0)
(-0.00698057 0.0113229 0)
(-0.00356191 0.0209162 0)
(-0.00157049 0.0278663 0)
(-0.000675673 0.0314381 0)
(-0.0004881 0.0298262 0)
(-0.000381313 0.0162563 0)
(0.00103395 -0.0185769 0)
(0.000652224 -0.0231001 0)
(-0.00160493 -0.0175984 0)
(-0.00481348 -0.0102669 0)
(-0.00884416 -0.00248681 0)
(-0.0136687 0.00537763 0)
(-0.0193561 0.0131737 0)
(-0.026015 0.0208428 0)
(-0.0337466 0.0283969 0)
(-0.0426289 0.0359085 0)
(-0.0527041 0.0434817 0)
(-0.0639571 0.0512025 0)
(-0.0763297 0.0591069 0)
(-0.0896539 0.0671026 0)
(-0.103567 0.0749234 0)
(-0.117681 0.0822254 0)
(-0.131547 0.0886341 0)
(-0.144674 0.0937669 0)
(-0.156823 0.0974714 0)
(-0.167906 0.0997639 0)
(-0.177919 0.100736 0)
(-0.186952 0.100565 0)
(-0.195087 0.0994109 0)
(-0.202414 0.097433 0)
(-0.208997 0.0947609 0)
(-0.214895 0.0915136 0)
(-0.220149 0.087784 0)
(-0.224796 0.0836586 0)
(-0.228871 0.0792089 0)
(-0.23241 0.0745002 0)
(-0.235449 0.0695875 0)
(-0.238024 0.0645187 0)
(-0.24018 0.0593321 0)
(-0.241924 0.0540779 0)
(-0.243284 0.0487661 0)
(-0.2443 0.043405 0)
(-0.244995 0.0380079 0)
(-0.245433 0.0325765 0)
(-0.245655 0.0271229 0)
(-0.245688 0.0216475 0)
(-0.245534 0.0161406 0)
(-0.245221 0.0105848 0)
(-0.244763 0.00496256 0)
(-0.244181 -0.000750112 0)
(-0.243476 -0.00657364 0)
(-0.242652 -0.012549 0)
(-0.241734 -0.018701 0)
(-0.240727 -0.0250639 0)
(-0.239642 -0.0316704 0)
(-0.238479 -0.0385541 0)
(-0.237237 -0.0457481 0)
(-0.235907 -0.0532778 0)
(-0.234467 -0.0611591 0)
(-0.232878 -0.0693883 0)
(-0.231069 -0.0779282 0)
(-0.228944 -0.0866966 0)
(-0.226389 -0.095574 0)
(-0.22324 -0.104403 0)
(-0.219277 -0.113127 0)
(-0.214461 -0.121711 0)
(-0.208418 -0.129563 0)
(-0.200585 -0.135795 0)
(-0.189847 -0.139204 0)
(-0.176672 -0.139811 0)
(-0.161427 -0.137474 0)
(-0.144507 -0.131967 0)
(-0.126213 -0.123016 0)
(-0.107108 -0.11073 0)
(-0.0879528 -0.0955483 0)
(-0.0697877 -0.0784108 0)
(-0.0533228 -0.0602112 0)
(-0.0389811 -0.0417288 0)
(-0.0271167 -0.0239044 0)
(-0.0178723 -0.00760964 0)
(-0.0111597 0.0064404 0)
(-0.00663627 0.0177654 0)
(-0.00379157 0.0260336 0)
(-0.00216677 0.0303986 0)
(-0.00115667 0.0292337 0)
(-0.000350084 0.0156515 0)
(0.000721817 -0.0189333 0)
(-0.00123658 -0.0210378 0)
(-0.00475536 -0.0142211 0)
(-0.0090971 -0.00603697 0)
(-0.0142297 0.00251345 0)
(-0.0201418 0.0112048 0)
(-0.0269266 0.0199273 0)
(-0.0346875 0.0286229 0)
(-0.0435054 0.037282 0)
(-0.0534228 0.0459408 0)
(-0.0644297 0.0546499 0)
(-0.0764802 0.0634435 0)
(-0.0894336 0.072258 0)
(-0.102958 0.0808334 0)
(-0.116645 0.0888169 0)
(-0.130065 0.0958331 0)
(-0.142801 0.101523 0)
(-0.154579 0.105694 0)
(-0.165302 0.108351 0)
(-0.174968 0.109591 0)
(-0.183646 0.109587 0)
(-0.191429 0.108523 0)
(-0.198386 0.106556 0)
(-0.204584 0.10383 0)
(-0.210068 0.100462 0)
(-0.214881 0.0965592 0)
(-0.219057 0.0922108 0)
(-0.222636 0.087502 0)
(-0.225658 0.0825064 0)
(-0.228167 0.0772912 0)
(-0.230207 0.0719131 0)
(-0.231822 0.06642 0)
(-0.233058 0.0608494 0)
(-0.233956 0.0552329 0)
(-0.234561 0.0495909 0)
(-0.234918 0.0439414 0)
(-0.235061 0.0382992 0)
(-0.235024 0.0326665 0)
(-0.234832 0.02704 0)
(-0.234503 0.0214112 0)
(-0.234052 0.015768 0)
(-0.233496 0.0100917 0)
(-0.232851 0.00436189 0)
(-0.23213 -0.00144398 0)
(-0.231342 -0.00734832 0)
(-0.2305 -0.0133875 0)
(-0.22962 -0.0195902 0)
(-0.228717 -0.0259901 0)
(-0.227805 -0.0326202 0)
(-0.226896 -0.0395162 0)
(-0.226002 -0.046714 0)
(-0.225131 -0.0542471 0)
(-0.224283 -0.0621443 0)
(-0.223447 -0.0704261 0)
(-0.222589 -0.0791 0)
(-0.221651 -0.0881545 0)
(-0.220545 -0.0975359 0)
(-0.219129 -0.107109 0)
(-0.217212 -0.116659 0)
(-0.214554 -0.125904 0)
(-0.210831 -0.134574 0)
(-0.205913 -0.142786 0)
(-0.199268 -0.149403 0)
(-0.189899 -0.153188 0)
(-0.177037 -0.152934 0)
(-0.161747 -0.149344 0)
(-0.144228 -0.141834 0)
(-0.125037 -0.130363 0)
(-0.104884 -0.11515 0)
(-0.0847309 -0.0968679 0)
(-0.0658173 -0.0767719 0)
(-0.0489685 -0.0560073 0)
(-0.0346466 -0.0355525 0)
(-0.0231722 -0.0165242 0)
(-0.0146057 9.94122e-05 0)
(-0.00871436 0.0135805 0)
(-0.00492382 0.0234383 0)
(-0.00270865 0.0286833 0)
(-0.00120576 0.0280712 0)
(-0.000173157 0.0148514 0)
(0.000148133 -0.0181342 0)
(-0.00321946 -0.017643 0)
(-0.00789188 -0.00964079 0)
(-0.0133127 -0.000697383 0)
(-0.0195032 0.00858899 0)
(-0.0264482 0.0180949 0)
(-0.0342477 0.027736 0)
(-0.0429946 0.0374337 0)
(-0.0527397 0.0471404 0)
(-0.0634807 0.0568429 0)
(-0.0751807 0.066546 0)
(-0.0877254 0.0762026 0)
(-0.100825 0.0855688 0)
(-0.114082 0.094292 0)
(-0.127086 0.101997 0)
(-0.139469 0.108346 0)
(-0.150944 0.113113 0)
(-0.161366 0.116246 0)
(-0.170741 0.117858 0)
(-0.179118 0.118113 0)
(-0.18658 0.117208 0)
(-0.193198 0.115312 0)
(-0.199024 0.112572 0)
(-0.204104 0.109118 0)
(-0.208478 0.105062 0)
(-0.212187 0.100508 0)
(-0.215275 0.0955498 0)
(-0.217795 0.090276 0)
(-0.219801 0.0847639 0)
(-0.221351 0.0790826 0)
(-0.2225 0.0732892 0)
(-0.223303 0.0674302 0)
(-0.223812 0.0615415 0)
(-0.224074 0.0556519 0)
(-0.224132 0.0497805 0)
(-0.224022 0.0439417 0)
(-0.223768 0.0381407 0)
(-0.223395 0.0323728 0)
(-0.22292 0.0266306 0)
(-0.222356 0.020902 0)
(-0.221716 0.0151719 0)
(-0.221011 0.00942167 0)
(-0.220254 0.00363034 0)
(-0.219454 -0.00222461 0)
(-0.218623 -0.0081675 0)
(-0.217771 -0.0142292 0)
(-0.216916 -0.0204392 0)
(-0.216071 -0.02683 0)
(-0.215256 -0.0334349 0)
(-0.214487 -0.0402893 0)
(-0.213784 -0.0474299 0)
(-0.213166 -0.0548924 0)
(-0.212646 -0.0627105 0)
(-0.212234 -0.070913 0)
(-0.211926 -0.0795223 0)
(-0.211703 -0.0885507 0)
(-0.211522 -0.0979905 0)
(-0.211298 -0.107799 0)
(-0.210893 -0.117883 0)
(-0.2101 -0.128043 0)
(-0.208633 -0.137926 0)
(-0.206135 -0.147059 0)
(-0.202151 -0.155211 0)
(-0.196411 -0.162035 0)
(-0.187996 -0.165845 0)
(-0.175546 -0.164948 0)
(-0.160065 -0.159865 0)
(-0.141816 -0.150137 0)
(-0.121601 -0.135861 0)
(-0.100324 -0.117465 0)
(-0.0791966 -0.0959161 0)
(-0.059665 -0.0728388 0)
(-0.0426624 -0.0496882 0)
(-0.0286533 -0.0276586 0)
(-0.01788 -0.00805058 0)
(-0.0102659 0.00809369 0)
(-0.0053102 0.0200024 0)
(-0.0024626 0.0265586 0)
(-0.000763368 0.0267697 0)
(8.48773e-05 0.0143032 0)
(-0.000429412 -0.0160861 0)
(-0.00516022 -0.0129557 0)
(-0.0108972 -0.00393939 0)
(-0.01733 0.00568201 0)
(-0.0245049 0.0156619 0)
(-0.0323947 0.0259579 0)
(-0.0410963 0.0364819 0)
(-0.0506834 0.0471192 0)
(-0.0611702 0.0577731 0)
(-0.0725272 0.0683847 0)
(-0.0846621 0.0788961 0)
(-0.09733 0.0890778 0)
(-0.110168 0.0985956 0)
(-0.122794 0.107072 0)
(-0.134865 0.114176 0)
(-0.146093 0.119658 0)
(-0.156287 0.123399 0)
(-0.165426 0.12549 0)
(-0.173559 0.126105 0)
(-0.180749 0.125437 0)
(-0.187066 0.123674 0)
(-0.192559 0.120972 0)
(-0.197271 0.117469 0)
(-0.201245 0.113293 0)
(-0.204528 0.108557 0)
(-0.207176 0.103374 0)
(-0.209252 0.0978425 0)
(-0.210823 0.0920563 0)
(-0.211958 0.0860948 0)
(-0.212722 0.0800257 0)
(-0.213177 0.0739031 0)
(-0.213378 0.067769 0)
(-0.213374 0.0616541 0)
(-0.213206 0.0555802 0)
(-0.212906 0.04956 0)
(-0.212499 0.0435987 0)
(-0.212005 0.0376948 0)
(-0.211438 0.0318407 0)
(-0.210808 0.026025 0)
(-0.210125 0.020234 0)
(-0.209396 0.0144511 0)
(-0.208628 0.00865714 0)
(-0.207828 0.0028316 0)
(-0.207004 -0.00304782 0)
(-0.206165 -0.00900521 0)
(-0.205321 -0.0150678 0)
(-0.204486 -0.0212632 0)
(-0.203675 -0.0276218 0)
(-0.202909 -0.0341752 0)
(-0.202207 -0.0409572 0)
(-0.201593 -0.0480034 0)
(-0.201092 -0.0553503 0)
(-0.200726 -0.0630348 0)
(-0.200518 -0.071092 0)
(-0.200482 -0.079554 0)
(-0.200624 -0.0884455 0)
(-0.20093 -0.0977778 0)
(-0.201366 -0.107542 0)
(-0.201855 -0.1177 0)
(-0.202268 -0.128166 0)
(-0.202394 -0.138771 0)
(-0.201927 -0.149198 0)
(-0.200454 -0.158879 0)
(-0.197436 -0.16715 0)
(-0.192334 -0.173814 0)
(-0.184449 -0.177435 0)
(-0.172283 -0.17576 0)
(-0.1564 -0.168973 0)
(-0.137266 -0.156718 0)
(-0.115904 -0.139301 0)
(-0.0934902 -0.117441 0)
(-0.0715138 -0.0924759 0)
(-0.0516372 -0.0665087 0)
(-0.0348632 -0.0413011 0)
(-0.0215904 -0.0183302 0)
(-0.0119252 0.000988907 0)
(-0.00552013 0.0155554 0)
(-0.0018925 0.0240674 0)
(-5.41732e-05 0.0255898 0)
(0.000375176 0.0142497 0)
(-0.00101158 -0.0128799 0)
(-0.00698005 -0.00709491 0)
(-0.0136776 0.00280034 0)
(-0.0210331 0.0130208 0)
(-0.0290979 0.0236432 0)
(-0.0378197 0.0346807 0)
(-0.0472878 0.0460228 0)
(-0.057551 0.0575052 0)
(-0.0685951 0.068981 0)
(-0.0803449 0.0803386 0)
(-0.0925961 0.0913428 0)
(-0.105038 0.101693 0)
(-0.117327 0.111012 0)
(-0.129128 0.11896 0)
(-0.140158 0.125262 0)
(-0.150195 0.129745 0)
(-0.159169 0.13244 0)
(-0.167117 0.13352 0)
(-0.174098 0.133185 0)
(-0.180171 0.131628 0)
(-0.185387 0.129025 0)
(-0.18979 0.125526 0)
(-0.193426 0.121271 0)
(-0.196352 0.116392 0)
(-0.198632 0.111015 0)
(-0.200342 0.105257 0)
(-0.201559 0.0992258 0)
(-0.202363 0.0930123 0)
(-0.202826 0.0866938 0)
(-0.203014 0.0803322 0)
(-0.202987 0.0739741 0)
(-0.202791 0.0676535 0)
(-0.202466 0.0613928 0)
(-0.202044 0.055205 0)
(-0.201546 0.0490948 0)
(-0.200989 0.0430612 0)
(-0.200384 0.0370973 0)
(-0.199739 0.0311928 0)
(-0.199058 0.0253343 0)
(-0.198345 0.0195054 0)
(-0.197603 0.0136894 0)
(-0.196835 0.00786799 0)
(-0.196044 0.00202063 0)
(-0.195235 -0.00387367 0)
(-0.194415 -0.00983733 0)
(-0.193592 -0.0158945 0)
(-0.192779 -0.0220704 0)
(-0.19199 -0.0283919 0)
(-0.191245 -0.0348877 0)
(-0.190564 -0.0415887 0)
(-0.189974 -0.0485278 0)
(-0.189503 -0.0557403 0)
(-0.189179 -0.0632631 0)
(-0.189033 -0.0711345 0)
(-0.189091 -0.0793929 0)
(-0.189374 -0.0880736 0)
(-0.189893 -0.097205 0)
(-0.190638 -0.106802 0)
(-0.191575 -0.116856 0)
(-0.19263 -0.127326 0)
(-0.193675 -0.138121 0)
(-0.1945 -0.149074 0)
(-0.194784 -0.159896 0)
(-0.194075 -0.170054 0)
(-0.191793 -0.178703 0)
(-0.187182 -0.184974 0)
(-0.179478 -0.188047 0)
(-0.167305 -0.185357 0)
(-0.150778 -0.17653 0)
(-0.13058 -0.161329 0)
(-0.107995 -0.140375 0)
(-0.0845067 -0.114723 0)
(-0.0619733 -0.0862653 0)
(-0.0422135 -0.0576744 0)
(-0.026228 -0.0309965 0)
(-0.0142573 -0.00799234 0)
(-0.00613998 0.00986588 0)
(-0.00150373 0.0210714 0)
(0.00059924 0.0245418 0)
(0.000581414 0.0146309 0)
(-0.0015647 -0.0085809 0)
(-0.00861669 -0.000179405 0)
(-0.0161631 0.0104742 0)
(-0.0243384 0.0212162 0)
(-0.0331757 0.032419 0)
(-0.0425984 0.0441314 0)
(-0.0526836 0.0562034 0)
(-0.063454 0.0684189 0)
(-0.0748597 0.0805688 0)
(-0.0867227 0.0923832 0)
(-0.0987999 0.103575 0)
(-0.110791 0.113789 0)
(-0.122362 0.122653 0)
(-0.13324 0.129871 0)
(-0.143182 0.135218 0)
(-0.152069 0.138656 0)
(-0.159905 0.140321 0)
(-0.166748 0.140422 0)
(-0.172649 0.139165 0)
(-0.17766 0.136735 0)
(-0.181829 0.133304 0)
(-0.185205 0.129025 0)
(-0.187853 0.12405 0)
(-0.189848 0.118521 0)
(-0.191275 0.112573 0)
(-0.192223 0.106328 0)
(-0.192776 0.0998916 0)
(-0.193016 0.0933499 0)
(-0.193012 0.0867721 0)
(-0.192824 0.0802101 0)
(-0.192501 0.0737006 0)
(-0.19208 0.0672675 0)
(-0.191591 0.060924 0)
(-0.191054 0.0546751 0)
(-0.190482 0.0485191 0)
(-0.189884 0.0424493 0)
(-0.189264 0.0364547 0)
(-0.188623 0.0305229 0)
(-0.187962 0.0246394 0)
(-0.18728 0.0187864 0)
(-0.186575 0.0129466 0)
(-0.185849 0.00710317 0)
(-0.1851 0.00123672 0)
(-0.184332 -0.00467234 0)
(-0.18355 -0.010644 0)
(-0.18276 -0.0166995 0)
(-0.181972 -0.0228609 0)
(-0.181201 -0.0291515 0)
(-0.180463 -0.0355965 0)
(-0.179779 -0.0422227 0)
(-0.179176 -0.0490595 0)
(-0.178682 -0.0561391 0)
(-0.17833 -0.0634966 0)
(-0.178154 -0.0711701 0)
(-0.178188 -0.0792005 0)
(-0.178467 -0.0876296 0)
(-0.179014 -0.0964977 0)
(-0.179844 -0.105839 0)
(-0.180952 -0.115675 0)
(-0.1823 -0.126002 0)
(-0.18381 -0.136776 0)