/*--------------------------------*- C++ -*----------------------------------*\
  =========                 |
  \\      /  F ield         | OpenFOAM: The Open Source CFD Toolbox
   \\    /   O peration     | Website:  https://openfoam.org
    \\  /    A nd           | Version:  13
     \\/     M anipulation  |
\*---------------------------------------------------------------------------*/
FoamFile
{
    format      ascii;
    class       volScalarField;
    location    "8.5";
    object      nut;
}
// * * * * * * * * * * * * * * * * * * * * * * * * * * * * * * * * * * * * * //

dimensions      [0 2 -1 0 0 0 0];

internalField   nonuniform List<scalar> 
6400
(
9.92448e-10
5.09458e-09
1.23794e-08
1.99304e-08
2.56095e-08
2.87866e-08
2.99291e-08
3.00262e-08
3.01964e-08
3.12852e-08
3.3953e-08
3.92095e-08
4.75252e-08
5.90748e-08
7.32431e-08
8.92346e-08
1.06216e-07
1.23853e-07
1.41287e-07
1.58113e-07
1.75043e-07
1.93554e-07
2.15605e-07
2.42288e-07
2.72399e-07
3.02683e-07
3.32808e-07
3.62732e-07
3.93409e-07
4.25631e-07
4.58935e-07
4.92215e-07
5.24941e-07
5.57235e-07
5.89885e-07
6.23099e-07
6.57542e-07
6.93429e-07
7.31191e-07
7.70935e-07
8.1295e-07
8.57565e-07
9.05023e-07
9.55846e-07
1.01049e-06
1.07084e-06
1.14046e-06
1.22696e-06
1.3132e-06
1.40131e-06
1.48741e-06
1.57101e-06
1.64938e-06
1.72038e-06
1.78136e-06
1.82916e-06
1.85331e-06
1.86289e-06
1.85854e-06
1.82245e-06
1.75907e-06
1.66869e-06
1.55219e-06
1.41454e-06
1.25808e-06
1.09099e-06
9.21323e-07
7.55505e-07
5.99669e-07
4.60931e-07
3.47933e-07
2.53078e-07
1.7645e-07
1.17894e-07
7.57491e-08
4.70325e-08
2.83032e-08
1.62406e-08
7.67133e-09
1.63318e-09
4.79157e-09
3.36152e-07
1.2072e-06
2.03351e-06
2.6436e-06
3.00248e-06
3.16753e-06
3.22622e-06
3.26338e-06
3.34181e-06
3.53855e-06
3.92349e-06
4.46435e-06
5.09172e-06
5.74078e-06
6.3476e-06
6.86606e-06
7.24741e-06
7.47939e-06
7.57947e-06
7.63173e-06
7.70283e-06
7.86069e-06
8.12972e-06
8.44573e-06
8.65263e-06
8.8576e-06
9.09323e-06
9.40654e-06
9.83501e-06
1.03812e-05
1.09821e-05
1.16314e-05
1.23011e-05
1.30087e-05
1.37399e-05
1.45036e-05
1.52942e-05
1.61186e-05
1.69715e-05
1.78465e-05
1.87504e-05
1.96835e-05
2.06655e-05
2.16627e-05
2.26402e-05
2.35738e-05
2.44068e-05
2.52777e-05
2.61547e-05
2.70427e-05
2.79209e-05
2.8776e-05
2.95868e-05
3.03315e-05
3.10628e-05
3.15097e-05
3.18064e-05
3.19959e-05
3.19643e-05
3.15954e-05
3.09266e-05
2.99237e-05
2.85854e-05
2.69081e-05
2.49472e-05
2.27994e-05
2.0484e-05
1.80346e-05
1.53769e-05
1.24735e-05
9.67332e-06
7.20274e-06
5.16675e-06
3.58466e-06
2.43848e-06
1.6307e-06
1.05402e-06
4.76418e-07
8.64122e-09
1.04599e-08
8.66132e-07
3.49068e-06
6.05835e-06
8.02458e-06
9.30291e-06
1.00236e-05
1.03901e-05
1.06123e-05
1.08726e-05
1.13049e-05
1.19868e-05
1.28889e-05
1.39079e-05
1.49125e-05
1.57922e-05
1.64961e-05
1.69997e-05
1.73038e-05
1.74265e-05
1.73919e-05
1.72989e-05
1.72271e-05
1.72146e-05
1.72963e-05
1.75636e-05
1.78878e-05
1.82191e-05
1.85777e-05
1.89579e-05
1.94594e-05
2.01612e-05
2.11556e-05
2.21705e-05
2.33179e-05
2.4521e-05
2.58033e-05
2.71028e-05
2.84589e-05
2.99087e-05
3.13075e-05
3.27562e-05
3.41626e-05
3.55016e-05
3.67794e-05
3.80356e-05
3.92543e-05
4.04801e-05
4.17147e-05
4.29472e-05
4.41711e-05
4.53734e-05
4.65385e-05
4.76457e-05
4.8668e-05
4.95697e-05
5.03656e-05
5.08885e-05
5.11255e-05
5.12859e-05
5.11102e-05
5.06163e-05
4.97492e-05
4.84116e-05
4.6512e-05
4.40763e-05
4.1295e-05
3.81507e-05
3.46577e-05
3.08548e-05
2.67938e-05
2.26143e-05
1.8516e-05
1.47016e-05
1.13443e-05
8.50372e-06
6.24609e-06
4.30097e-06
1.79003e-06
2.31297e-08
1.81354e-08
1.41583e-06
5.45785e-06
9.31834e-06
1.23064e-05
1.43614e-05
1.56397e-05
1.63672e-05
1.68067e-05
1.71845e-05
1.76993e-05
1.84719e-05
1.94773e-05
2.05725e-05
2.15942e-05
2.2427e-05
2.30113e-05
2.33459e-05
2.34628e-05
2.34235e-05
2.32971e-05
2.31929e-05
2.31788e-05
2.32954e-05
2.33591e-05
2.33772e-05
2.33783e-05
2.37927e-05
2.45444e-05
2.55469e-05
2.6837e-05
2.80624e-05
2.9279e-05
3.05748e-05
3.19026e-05
3.32025e-05
3.45116e-05
3.58878e-05
3.718e-05
3.84693e-05
3.97021e-05
4.09192e-05
4.20844e-05
4.32122e-05
4.42925e-05
4.53465e-05
4.64001e-05
4.74542e-05
4.85052e-05
4.95476e-05
5.05747e-05
5.15762e-05
5.25393e-05
5.34474e-05
5.42808e-05
5.5016e-05
5.56278e-05
5.60921e-05
5.63321e-05
5.63898e-05
5.62283e-05
5.57022e-05
5.49398e-05
5.41426e-05
5.28346e-05
5.08925e-05
4.84989e-05
4.56192e-05
4.23236e-05
3.86587e-05
3.46676e-05
3.0416e-05
2.60114e-05
2.16194e-05
1.74449e-05
1.36558e-05
1.03604e-05
7.26061e-06
3.00842e-06
3.85661e-08
2.90629e-08
2.12307e-06
7.56984e-06
1.25296e-05
1.62347e-05
1.87344e-05
2.02696e-05
2.11282e-05
2.16262e-05
2.20842e-05
2.27551e-05
2.3722e-05
2.48797e-05
2.60285e-05
2.69908e-05
2.76677e-05
2.8041e-05
2.81533e-05
2.80636e-05
2.78946e-05
2.7658e-05
2.74953e-05
2.73462e-05
2.67414e-05
2.67006e-05
2.72479e-05
2.82075e-05
2.93554e-05
3.05211e-05
3.18328e-05
3.31215e-05
3.4365e-05
3.55883e-05
3.67788e-05
3.78769e-05
3.89066e-05
3.99453e-05
4.08973e-05
4.1728e-05
4.25079e-05
4.32041e-05
4.38514e-05
4.4459e-05
4.50607e-05
4.56774e-05
4.63071e-05
4.69333e-05
4.7567e-05
4.82096e-05
4.88647e-05
4.95339e-05
5.02175e-05
5.09137e-05
5.1618e-05
5.23233e-05
5.30177e-05
5.36819e-05
5.42866e-05
5.47992e-05
5.51626e-05
5.5302e-05
5.51881e-05
5.46378e-05
5.35321e-05
5.2739e-05
5.15635e-05
4.97403e-05
4.74202e-05
4.46645e-05
4.15233e-05
3.80321e-05
3.42153e-05
3.01076e-05
2.57978e-05
2.14935e-05
1.73641e-05
1.34871e-05
9.47912e-06
3.86061e-06
4.92806e-08
4.46613e-08
3.07479e-06
1.00653e-05
1.60426e-05
2.02539e-05
2.29388e-05
2.44865e-05
2.53087e-05
2.5828e-05
2.64197e-05
2.72928e-05
2.84259e-05
2.96328e-05
3.06945e-05
3.14566e-05
3.18596e-05
3.19239e-05
3.17784e-05
3.13752e-05
3.1068e-05
3.055e-05
2.96933e-05
2.95637e-05
3.0295e-05
3.12772e-05
3.23082e-05
3.34868e-05
3.46643e-05
3.5798e-05
3.68822e-05
3.78333e-05
3.87179e-05
3.95284e-05
4.02204e-05
4.07925e-05
4.12812e-05
4.16837e-05
4.20821e-05
4.23634e-05
4.26205e-05
4.28393e-05
4.30478e-05
4.32395e-05
4.34182e-05
4.35918e-05
4.37586e-05
4.3926e-05
4.41019e-05
4.42962e-05
4.45189e-05
4.47822e-05
4.50982e-05
4.54792e-05
4.59335e-05
4.64589e-05
4.70594e-05
4.7738e-05
4.84688e-05
4.92182e-05
4.99334e-05
5.06212e-05
5.10279e-05
5.11669e-05
5.09733e-05
5.01516e-05
4.96686e-05
4.84577e-05
4.66959e-05
4.44416e-05
4.17799e-05
3.87832e-05
3.54835e-05
3.18627e-05
2.78913e-05
2.37161e-05
1.94739e-05
1.53131e-05
1.07986e-05
4.27342e-06
5.32818e-08
6.63098e-08
4.31467e-06
1.29754e-05
1.9857e-05
2.43806e-05
2.70584e-05
2.84759e-05
2.92012e-05
2.97501e-05
3.04804e-05
3.1495e-05
3.26666e-05
3.37665e-05
3.45943e-05
3.50473e-05
3.51247e-05
3.46753e-05
3.4238e-05
3.37872e-05
3.26161e-05
3.22989e-05
3.28137e-05
3.36901e-05
3.44968e-05
3.54104e-05
3.63288e-05
3.72541e-05
3.80578e-05
3.87559e-05
3.93612e-05
3.98889e-05
4.03348e-05
4.06761e-05
4.0925e-05
4.10988e-05
4.12171e-05
4.12883e-05
4.13269e-05
4.13023e-05
4.12812e-05
4.12609e-05
4.11766e-05
4.11054e-05
4.09989e-05
4.08935e-05
4.07641e-05
4.06291e-05
4.04816e-05
4.03372e-05
4.01988e-05
4.00834e-05
4.00099e-05
4.00096e-05
4.01291e-05
4.03677e-05
4.07255e-05
4.12806e-05
4.20247e-05
4.29196e-05
4.39022e-05
4.49729e-05
4.59889e-05
4.68818e-05
4.72993e-05
4.73853e-05
4.68732e-05
4.66153e-05
4.54079e-05
4.35572e-05
4.11907e-05
3.84527e-05
3.54584e-05
3.22431e-05
2.87188e-05
2.47609e-05
2.06741e-05
1.62434e-05
1.10999e-05
4.26485e-06
5.17835e-08
9.52849e-08
5.86191e-06
1.62284e-05
2.38657e-05
2.85226e-05
3.1063e-05
3.2286e-05
3.2908e-05
3.34835e-05
3.42935e-05
3.53234e-05
3.63729e-05
3.72066e-05
3.76603e-05
3.7689e-05
3.71857e-05
3.67293e-05
3.56913e-05
3.49675e-05
3.49611e-05
3.55362e-05
3.59578e-05
3.66206e-05
3.72593e-05
3.80234e-05
3.86717e-05
3.92477e-05
3.96885e-05
4.00386e-05
4.02979e-05
4.04825e-05
4.05963e-05
4.06487e-05
4.06588e-05
4.06392e-05
4.06004e-05
4.05448e-05
4.04749e-05
4.03913e-05
4.03066e-05
4.01661e-05
4.00705e-05
3.99861e-05
3.97785e-05
3.9632e-05
3.94347e-05
3.92362e-05
3.90141e-05
3.8771e-05
3.85064e-05
3.82181e-05
3.79027e-05
3.75565e-05
3.71722e-05
3.68289e-05
3.66337e-05
3.66128e-05
3.69308e-05
3.76238e-05
3.84956e-05
3.96903e-05
4.10047e-05
4.23857e-05
4.36808e-05
4.44231e-05
4.45737e-05
4.44302e-05
4.43229e-05
4.29516e-05
4.08449e-05
3.81912e-05
3.52036e-05
3.20611e-05
2.88159e-05
2.52449e-05
2.11664e-05
1.67599e-05
1.12808e-05
4.15615e-06
4.81835e-08
1.32477e-07
7.69888e-06
1.97322e-05
2.79131e-05
3.25858e-05
3.49157e-05
3.59236e-05
3.6439e-05
3.70005e-05
3.77874e-05
3.8691e-05
3.94797e-05
3.99473e-05
3.98206e-05
3.93515e-05
3.88636e-05
3.75695e-05
3.70968e-05
3.71848e-05
3.72846e-05
3.75908e-05
3.8052e-05
3.85963e-05
3.90859e-05
3.95588e-05
3.98934e-05
4.01485e-05
4.03026e-05
4.04015e-05
4.04484e-05
4.04665e-05
4.04644e-05
4.04557e-05
4.04488e-05
4.04453e-05
4.04452e-05
4.04459e-05
4.04444e-05
4.04342e-05
4.03955e-05
4.03653e-05
4.03426e-05
4.02453e-05
4.01477e-05
4.0035e-05
3.98852e-05
3.97135e-05
3.95074e-05
3.92709e-05
3.90001e-05
3.86912e-05
3.83384e-05
3.79351e-05
3.74767e-05
3.6954e-05
3.63673e-05
3.57104e-05
3.50026e-05
3.44606e-05
3.45929e-05
3.53615e-05
3.65003e-05
3.80118e-05
3.96476e-05
4.1284e-05
4.22789e-05
4.25078e-05
4.2614e-05
4.26187e-05
4.09873e-05
3.85216e-05
3.54608e-05
3.20993e-05
2.86916e-05
2.52423e-05
2.1388e-05
1.68091e-05
1.10391e-05
3.87135e-06
4.40803e-08
1.78229e-07
9.74519e-06
2.33152e-05
3.19163e-05
3.65113e-05
3.85896e-05
3.93713e-05
3.97552e-05
4.02283e-05
4.08733e-05
4.15223e-05
4.19476e-05
4.17163e-05
4.11855e-05
4.06152e-05
3.95513e-05
3.90274e-05
3.88297e-05
3.86389e-05
3.88326e-05
3.91206e-05
3.94774e-05
3.98147e-05
4.00736e-05
4.02713e-05
4.03718e-05
4.04329e-05
4.04557e-05
4.04786e-05
4.0506e-05
4.05544e-05
4.06242e-05
4.07173e-05
4.0828e-05
4.0949e-05
4.10709e-05
4.11819e-05
4.12919e-05
4.13567e-05
4.13887e-05
4.14422e-05
4.142e-05
4.13763e-05
4.12997e-05
4.11918e-05
4.10505e-05
4.08819e-05
4.06859e-05
4.04632e-05
4.02107e-05
3.99254e-05
3.96002e-05
3.92238e-05
3.87772e-05
3.82529e-05
3.76322e-05
3.68943e-05
3.60289e-05
3.50733e-05
3.40794e-05
3.31115e-05
3.31168e-05
3.4147e-05
3.5615e-05
3.75185e-05
3.94215e-05
4.06746e-05
4.10014e-05
4.11971e-05
4.12194e-05
3.92761e-05
3.63858e-05
3.28433e-05
2.90312e-05
2.52548e-05
2.13667e-05
1.67887e-05
1.0786e-05
3.6026e-06
4.07267e-08
2.33364e-07
1.18314e-05
2.68379e-05
3.57874e-05
4.02526e-05
4.20567e-05
4.25937e-05
4.27964e-05
4.30885e-05
4.3477e-05
4.37668e-05
4.34479e-05
4.28257e-05
4.21799e-05
4.12771e-05
4.06506e-05
4.00929e-05
3.98374e-05
3.97661e-05
3.99306e-05
4.01063e-05
4.02915e-05
4.04211e-05
4.04934e-05
4.05323e-05
4.05468e-05
4.05819e-05
4.06433e-05
4.07521e-05
4.09028e-05
4.10957e-05
4.13182e-05
4.15601e-05
4.18063e-05
4.2053e-05
4.23081e-05
4.24707e-05
4.25844e-05
4.27814e-05
4.2846e-05
4.29134e-05
4.29137e-05
4.28857e-05
4.28115e-05
4.2699e-05
4.2546e-05
4.23559e-05
4.21288e-05
4.18663e-05
4.15698e-05
4.12409e-05
4.08814e-05
4.04926e-05
4.0075e-05
3.96272e-05
3.91071e-05
3.84799e-05
3.76873e-05
3.6721e-05
3.55696e-05
3.42958e-05
3.30431e-05
3.19205e-05
3.2276e-05
3.37724e-05
3.57404e-05
3.78811e-05
3.93905e-05
3.98107e-05
3.9992e-05
3.98937e-05
3.75868e-05
3.42161e-05
3.01523e-05
2.58384e-05
2.15643e-05
1.67959e-05
1.07793e-05
3.53869e-06
3.96064e-08
3.00414e-07
1.37583e-05
3.02072e-05
3.94676e-05
4.37735e-05
4.52853e-05
4.5546e-05
4.55016e-05
4.55172e-05
4.55491e-05
4.51238e-05
4.43909e-05
4.3691e-05
4.28675e-05
4.21323e-05
4.12527e-05
4.08082e-05
4.05905e-05
4.05353e-05
4.05952e-05
4.06334e-05
4.06686e-05
4.06726e-05
4.06774e-05
4.07093e-05
4.07875e-05
4.09345e-05
4.11452e-05
4.14186e-05
4.17368e-05
4.20868e-05
4.24496e-05
4.28241e-05
4.32038e-05
4.35315e-05
4.37523e-05
4.39971e-05
4.42462e-05
4.44167e-05
4.45338e-05
4.46145e-05
4.46401e-05
4.46239e-05
4.4558e-05
4.44472e-05
4.42902e-05
4.40894e-05
4.38453e-05
4.35597e-05
4.32335e-05
4.2868e-05
4.24634e-05
4.20195e-05
4.15357e-05
4.10113e-05
4.04464e-05
3.98413e-05
3.91921e-05
3.84071e-05
3.74064e-05
3.61473e-05
3.4701e-05
3.31548e-05
3.17561e-05
3.09854e-05
3.22928e-05
3.42008e-05
3.65836e-05
3.82711e-05
3.87483e-05
3.88431e-05
3.84587e-05
3.57085e-05
3.18159e-05
2.72203e-05
2.23381e-05
1.72208e-05
1.1039e-05
3.68784e-06
4.10714e-08
3.74856e-07
1.56664e-05
3.34115e-05
4.29229e-05
4.70444e-05
4.82432e-05
4.81852e-05
4.78209e-05
4.74706e-05
4.68681e-05
4.59878e-05
4.5248e-05
4.43899e-05
4.35217e-05
4.24226e-05
4.1693e-05
4.13027e-05
4.10798e-05
4.09757e-05
4.09248e-05
4.08691e-05
4.08411e-05
4.08414e-05
4.09087e-05
4.10571e-05
4.12938e-05
4.16155e-05
4.20035e-05
4.24413e-05
4.29062e-05
4.33809e-05
4.38738e-05
4.4344e-05
4.47558e-05
4.51158e-05
4.54348e-05
4.57281e-05
4.60182e-05
4.62226e-05
4.63799e-05
4.64873e-05
4.65413e-05
4.65442e-05
4.64935e-05
4.63905e-05
4.62352e-05
4.60287e-05
4.57721e-05
4.54672e-05
4.51155e-05
4.47187e-05
4.42778e-05
4.37926e-05
4.3262e-05
4.2683e-05
4.20516e-05
4.13644e-05
4.06209e-05
3.98267e-05
3.8982e-05
3.79492e-05
3.66432e-05
3.50601e-05
3.33111e-05
3.15964e-05
3.0268e-05
3.10021e-05
3.29194e-05
3.5444e-05
3.72173e-05
3.76778e-05
3.76212e-05
3.67369e-05
3.345e-05
2.90527e-05
2.38513e-05
1.82591e-05
1.18559e-05
4.15598e-06
4.71652e-08
4.54554e-07
1.75184e-05
3.64075e-05
4.61203e-05
5.00394e-05
5.09035e-05
5.04798e-05
4.97233e-05
4.88257e-05
4.77285e-05
4.69396e-05
4.58868e-05
4.48877e-05
4.36115e-05
4.26129e-05
4.19762e-05
4.15932e-05
4.13389e-05
4.11794e-05
4.107e-05
4.10065e-05
4.10232e-05
4.11299e-05
4.13492e-05
4.16751e-05
4.20962e-05
4.25913e-05
4.31354e-05
4.37075e-05
4.42874e-05
4.48607e-05
4.54238e-05
4.59499e-05
4.64241e-05
4.68517e-05
4.72556e-05
4.75929e-05
4.7883e-05
4.81736e-05
4.83702e-05
4.85153e-05
4.86033e-05
4.86321e-05
4.86008e-05
4.85088e-05
4.83558e-05
4.81425e-05
4.787e-05
4.75405e-05
4.71566e-05
4.67214e-05
4.62381e-05
4.57091e-05
4.51351e-05
4.45147e-05
4.38427e-05
4.31109e-05
4.23089e-05
4.14289e-05
4.04734e-05
3.94628e-05
3.83377e-05
3.69657e-05
3.52562e-05
3.33596e-05
3.14378e-05
2.9882e-05
2.99378e-05
3.18298e-05
3.44284e-05
3.616e-05
3.64779e-05
3.62881e-05
3.4514e-05
3.07771e-05
2.57229e-05
1.98534e-05
1.31249e-05
5.03019e-06
6.17394e-08
5.36904e-07
1.92719e-05
3.91552e-05
4.90347e-05
5.2741e-05
5.32551e-05
5.24302e-05
5.11806e-05
4.97873e-05
4.88862e-05
4.74655e-05
4.6327e-05
4.48671e-05
4.3618e-05
4.27083e-05
4.21165e-05
4.17206e-05
4.14447e-05
4.12719e-05
4.11858e-05
4.12059e-05
4.13542e-05
4.16313e-05
4.20356e-05
4.25432e-05
4.31304e-05
4.37696e-05
4.4437e-05
4.51134e-05
4.57829e-05
4.64342e-05
4.70582e-05
4.76429e-05
4.81868e-05
4.87056e-05
4.91775e-05
4.95825e-05
4.99187e-05
5.02135e-05
5.0517e-05
5.06962e-05
5.08259e-05
5.08861e-05
5.08779e-05
5.07993e-05
5.06493e-05
5.04279e-05
5.01359e-05
4.97755e-05
4.93499e-05
4.88636e-05
4.83221e-05
4.77311e-05
4.70958e-05
4.64197e-05
4.57023e-05
4.49376e-05
4.41124e-05
4.32067e-05
4.21984e-05
4.10741e-05
3.98488e-05
3.84885e-05
3.6993e-05
3.52591e-05
3.32374e-05
3.12042e-05
2.93945e-05
2.90398e-05
3.08581e-05
3.35391e-05
3.50249e-05
3.50682e-05
3.47213e-05
3.19587e-05
2.74168e-05
2.16234e-05
1.46791e-05
6.03622e-06
8.49323e-08
6.19487e-07
2.08892e-05
4.16292e-05
5.16561e-05
5.51403e-05
5.53074e-05
5.39878e-05
5.23628e-05
5.11203e-05
4.93158e-05
4.79256e-05
4.62654e-05
4.47583e-05
4.35637e-05
4.27188e-05
4.21472e-05
4.17508e-05
4.14939e-05
4.13733e-05
4.13894e-05
4.15592e-05
4.18835e-05
4.23466e-05
4.29269e-05
4.3592e-05
4.43147e-05
4.50693e-05
4.58359e-05
4.65995e-05
4.73485e-05
4.80745e-05
4.87709e-05
4.94324e-05
5.00576e-05
5.06437e-05
5.11924e-05
5.16972e-05
5.2094e-05
5.24286e-05
5.27667e-05
5.30329e-05
5.31962e-05
5.32951e-05
5.33126e-05
5.3251e-05
5.31069e-05
5.28798e-05
5.25696e-05
5.21777e-05
5.17072e-05
5.11627e-05
5.05508e-05
4.98797e-05
4.91588e-05
4.83976e-05
4.76037e-05
4.67801e-05
4.59222e-05
4.50139e-05
4.40262e-05
4.29193e-05
4.16539e-05
4.02965e-05
3.8692e-05
3.68224e-05
3.49888e-05
3.29679e-05
3.0828e-05
2.88093e-05
2.82515e-05
3.0011e-05
3.26256e-05
3.39629e-05
3.34229e-05
3.23923e-05
2.85946e-05
2.31803e-05
1.62671e-05
7.06992e-06
1.14712e-07
7.00639e-07
2.23223e-05
4.38271e-05
5.40219e-05
5.72075e-05
5.68508e-05
5.52829e-05
5.35927e-05
5.15214e-05
4.97729e-05
4.78872e-05
4.61024e-05
4.45995e-05
4.34641e-05
4.26666e-05
4.2119e-05
4.17587e-05
4.15751e-05
4.15689e-05
4.17403e-05
4.20891e-05
4.2595e-05
4.32291e-05
4.39598e-05
4.47546e-05
4.55886e-05
4.64407e-05
4.7296e-05
4.81432e-05
4.8974e-05
4.97822e-05
5.05624e-05
5.131e-05
5.20205e-05
5.26884e-05
5.3307e-05
5.38955e-05
5.43986e-05
5.47561e-05
5.51268e-05
5.5486e-05
5.56827e-05
5.58219e-05
5.58678e-05
5.58267e-05
5.56932e-05
5.54663e-05
5.51447e-05
5.47284e-05
5.42193e-05
5.36208e-05
5.2939e-05
5.21824e-05
5.13623e-05
5.04922e-05
4.95864e-05
4.86582e-05
4.77159e-05
4.67582e-05
4.57687e-05
4.47105e-05
4.35255e-05
4.21426e-05
4.06577e-05
3.88507e-05
3.65519e-05
3.45441e-05
3.25375e-05
3.02744e-05
2.80698e-05
2.7599e-05
2.92679e-05
3.14486e-05
3.23309e-05
3.15816e-05
2.91408e-05
2.43288e-05
1.7681e-05
8.00018e-06
1.49208e-07
7.7864e-07
2.36042e-05
4.57489e-05
5.59632e-05
5.87747e-05
5.8277e-05
5.67158e-05
5.44536e-05
5.19641e-05
4.98177e-05
4.77293e-05
4.58847e-05
4.44145e-05
4.33365e-05
4.25853e-05
4.20872e-05
4.18092e-05
4.17481e-05
4.18975e-05
4.22458e-05
4.27726e-05
4.34438e-05
4.42242e-05
4.50806e-05
4.59851e-05
4.69168e-05
4.78598e-05
4.88029e-05
4.97377e-05
5.06572e-05
5.15555e-05
5.24265e-05
5.3264e-05
5.40616e-05
5.48119e-05
5.55081e-05
5.61745e-05
5.67681e-05
5.71568e-05
5.75589e-05
5.79972e-05
5.82308e-05
5.84061e-05
5.84812e-05
5.84626e-05
5.83447e-05
5.81253e-05
5.78022e-05
5.7374e-05
5.68405e-05
5.62032e-05
5.54659e-05
5.46355e-05
5.37222e-05
5.27403e-05
5.17075e-05
5.06439e-05
4.95694e-05
4.84991e-05
4.7437e-05
4.63681e-05
4.52495e-05
4.4004e-05
4.25225e-05
4.09296e-05
3.87301e-05
3.6194e-05
3.3967e-05
3.19339e-05
2.94769e-05
2.70772e-05
2.70423e-05
2.88181e-05
3.02408e-05
3.03055e-05
2.9183e-05
2.50421e-05
1.8783e-05
8.753e-06
1.86784e-07
8.5053e-07
2.46968e-05
4.72947e-05
5.74644e-05
6.00435e-05
5.97195e-05
5.7581e-05
5.47816e-05
5.22412e-05
4.97269e-05
4.75025e-05
4.56433e-05
4.42208e-05
4.3202e-05
4.25123e-05
4.20992e-05
4.19444e-05
4.20378e-05
4.23592e-05
4.28815e-05
4.35695e-05
4.43835e-05
4.52881e-05
4.62534e-05
4.72566e-05
4.82815e-05
4.93158e-05
5.03507e-05
5.13786e-05
5.23924e-05
5.33848e-05
5.43482e-05
5.52748e-05
5.61565e-05
5.69855e-05
5.77549e-05
5.84808e-05
5.91385e-05
5.95904e-05
6.00168e-05
6.04917e-05
6.07725e-05
6.09754e-05
6.10777e-05
6.10813e-05
6.09818e-05
6.07763e-05
6.04618e-05
6.00356e-05
5.94954e-05
5.88404e-05
5.80713e-05
5.71917e-05
5.62086e-05
5.51337e-05
5.3984e-05
5.27817e-05
5.15531e-05
5.03254e-05
4.91218e-05
4.79529e-05
4.68067e-05
4.56364e-05
4.43498e-05
4.28035e-05
4.09532e-05
3.83713e-05
3.56579e-05
3.32708e-05
3.11266e-05
2.83207e-05
2.58992e-05
2.63489e-05
2.82609e-05
2.92997e-05
2.81515e-05
2.52719e-05
1.95294e-05
9.32373e-06
2.26252e-07
9.13748e-07
2.55733e-05
4.84627e-05
5.86013e-05
6.12881e-05
6.07724e-05
5.83181e-05
5.52207e-05
5.22534e-05
4.9547e-05
4.72414e-05
4.53984e-05
4.40338e-05
4.30837e-05
4.24797e-05
4.21851e-05
4.21806e-05
4.2441e-05
4.29312e-05
4.36118e-05
4.44406e-05
4.53778e-05
4.63915e-05
4.74564e-05
4.85547e-05
4.96732e-05
5.0802e-05
5.19327e-05
5.30568e-05
5.4166e-05
5.5251e-05
5.63026e-05
5.73113e-05
5.82681e-05
5.91649e-05
5.99943e-05
6.07624e-05
6.14729e-05
6.19855e-05
6.242e-05
6.29143e-05
6.32376e-05
6.34596e-05
6.35835e-05
6.36064e-05
6.35254e-05
6.33375e-05
6.30394e-05
6.26272e-05
6.20973e-05
6.14464e-05
6.06721e-05
5.97738e-05
5.87542e-05
5.76202e-05
5.63844e-05
5.50666e-05
5.36937e-05
5.22988e-05
5.09175e-05
4.9581e-05
4.83062e-05
4.70821e-05
4.58546e-05
4.45104e-05
4.28631e-05
4.06803e-05
3.78042e-05
3.4942e-05
3.24626e-05
3.00888e-05
2.70087e-05
2.49972e-05
2.56878e-05
2.68956e-05
2.70558e-05
2.51924e-05
1.99262e-05
9.68394e-06
2.67447e-07
9.66878e-07
2.62392e-05
4.93011e-05
5.94942e-05
6.22215e-05
6.15291e-05
5.86443e-05
5.53816e-05
5.21639e-05
4.93143e-05
4.69697e-05
4.51641e-05
4.38676e-05
4.30019e-05
4.25088e-05
4.23563e-05
4.25132e-05
4.29377e-05
4.35831e-05
4.44035e-05
4.53552e-05
4.6402e-05
4.75161e-05
4.86769e-05
4.98701e-05
5.10842e-05
5.23097e-05
5.3537e-05
5.47562e-05
5.59566e-05
5.71272e-05
5.82572e-05
5.93362e-05
6.03549e-05
6.13048e-05
6.21791e-05
6.29719e-05
6.37209e-05
6.42886e-05
6.47141e-05
6.52116e-05
6.55675e-05
6.57998e-05
6.59373e-05
6.59741e-05
6.59089e-05
6.5739e-05
6.54612e-05
6.50714e-05
6.45649e-05
6.39366e-05
6.31813e-05
6.22946e-05
6.12741e-05
6.01208e-05
5.8841e-05
5.74483e-05
5.59653e-05
5.44247e-05
5.28673e-05
5.13384e-05
4.98788e-05
4.85118e-05
4.72272e-05
4.59626e-05
4.45809e-05
4.27335e-05
4.00252e-05
3.69999e-05
3.40739e-05
3.14807e-05
2.87015e-05
2.53085e-05
2.4294e-05
2.53125e-05
2.60236e-05
2.45349e-05
1.99744e-05
9.84415e-06
3.10031e-07
1.00915e-06
2.66966e-05
4.98652e-05
6.01034e-05
6.29289e-05
6.20941e-05
5.907e-05
5.54392e-05
5.20067e-05
4.90553e-05
4.67032e-05
4.49509e-05
4.3734e-05
4.29702e-05
4.26081e-05
4.26091e-05
4.29256e-05
4.35025e-05
4.42867e-05
4.52303e-05
4.62919e-05
4.74396e-05
4.86499e-05
4.99057e-05
5.11943e-05
5.25046e-05
5.38259e-05
5.51466e-05
5.64547e-05
5.77374e-05
5.89823e-05
6.01773e-05
6.13118e-05
6.23763e-05
6.33629e-05
6.42649e-05
6.50767e-05
6.58404e-05
6.6458e-05
6.68613e-05
6.73428e-05
6.7721e-05
6.79544e-05
6.80963e-05
6.81398e-05
6.80849e-05
6.793e-05
6.76725e-05
6.73088e-05
6.68336e-05
6.62409e-05
6.55235e-05
6.46736e-05
6.36844e-05
6.25507e-05
6.12715e-05
5.98521e-05
5.83072e-05
5.6663e-05
5.49587e-05
5.32446e-05
5.15766e-05
5.00043e-05
4.85552e-05
4.72158e-05
4.59145e-05
4.45078e-05
4.22468e-05
3.90951e-05
3.60553e-05
3.29903e-05
3.02439e-05
2.68222e-05
2.36487e-05
2.33986e-05
2.37679e-05
2.35079e-05
1.9855e-05
9.98301e-06
3.56722e-07
1.04044e-06
2.69635e-05
5.01858e-05
6.04574e-05
6.34605e-05
6.23657e-05
5.9231e-05
5.54027e-05
5.18063e-05
4.87883e-05
4.64526e-05
4.47663e-05
4.36412e-05
4.29949e-05
4.27752e-05
4.29301e-05
4.33967e-05
4.41115e-05
4.50192e-05
4.60732e-05
4.72358e-05
4.84794e-05
4.97837e-05
5.11337e-05
5.25169e-05
5.39211e-05
5.53335e-05
5.67403e-05
5.81272e-05
5.94801e-05
6.07853e-05
6.20306e-05
6.32054e-05
6.43008e-05
6.53096e-05
6.62264e-05
6.70474e-05
6.78012e-05
6.84513e-05
6.8845e-05
6.92841e-05
6.96744e-05
6.99e-05
7.00366e-05
7.00784e-05
7.00267e-05
6.98812e-05
6.96405e-05
6.93019e-05
6.88606e-05
6.83103e-05
6.76425e-05
6.68476e-05
6.59147e-05
6.48334e-05
6.35955e-05
6.21974e-05
6.06436e-05
5.89502e-05
5.71484e-05
5.52862e-05
5.34256e-05
5.16346e-05
4.99709e-05
4.8459e-05
4.70631e-05
4.56622e-05
4.40283e-05
4.13011e-05
3.80452e-05
3.48621e-05
3.15716e-05
2.85336e-05
2.45472e-05
2.2624e-05
2.26838e-05
2.27654e-05
1.97338e-05
1.03325e-05
4.16576e-07
1.06128e-06
2.70646e-05
5.02513e-05
6.05231e-05
6.3645e-05
6.26734e-05
5.93e-05
5.5301e-05
5.15818e-05
4.85262e-05
4.62247e-05
4.46152e-05
4.3593e-05
4.30748e-05
4.30006e-05
4.33027e-05
4.39065e-05
4.47451e-05
4.57637e-05
4.69187e-05
4.81762e-05
4.95122e-05
5.09085e-05
5.23506e-05
5.3825e-05
5.53175e-05
5.68129e-05
5.82953e-05
5.97488e-05
6.11581e-05
6.25095e-05
6.37908e-05
6.4992e-05
6.61052e-05
6.71244e-05
6.80454e-05
6.88662e-05
6.95876e-05
7.02501e-05
7.06552e-05
7.10278e-05
7.14198e-05
7.16298e-05
7.17518e-05
7.17832e-05
7.17264e-05
7.15828e-05
7.13527e-05
7.10345e-05
7.06247e-05
7.01175e-05
6.95044e-05
6.87744e-05
6.79143e-05
6.69096e-05
6.57458e-05
6.44107e-05
6.28981e-05
6.12118e-05
5.93707e-05
5.7413e-05
5.53982e-05
5.34034e-05
5.1512e-05
4.97931e-05
4.82736e-05
4.69108e-05
4.55664e-05
4.33001e-05
4.00126e-05
3.68318e-05
3.34063e-05
2.98341e-05
2.61356e-05
2.22936e-05
2.13897e-05
2.12175e-05
1.94383e-05
1.09653e-05
4.9743e-07
1.07173e-06
2.69954e-05
5.00557e-05
6.04605e-05
6.37983e-05
6.27349e-05
5.92751e-05
5.51535e-05
5.13476e-05
4.82777e-05
4.60237e-05
4.44998e-05
4.35891e-05
4.32038e-05
4.32717e-05
4.37104e-05
4.44382e-05
4.53881e-05
4.65077e-05
4.77564e-05
4.91043e-05
5.05293e-05
5.20145e-05
5.35445e-05
5.51039e-05
5.66762e-05
5.82441e-05
5.979e-05
6.12969e-05
6.27492e-05
6.41334e-05
6.54381e-05
6.6654e-05
6.77741e-05
6.87932e-05
6.97079e-05
7.05158e-05
7.12152e-05
7.18587e-05
7.22821e-05
7.25793e-05
7.29622e-05
7.31498e-05
7.32492e-05
7.32617e-05
7.31914e-05
7.30413e-05
7.28136e-05
7.25085e-05
7.2124e-05
7.16557e-05
7.10958e-05
7.04334e-05
6.9654e-05
6.87403e-05
6.76732e-05
6.64332e-05
6.50042e-05
6.33772e-05
6.15561e-05
5.95646e-05
5.74506e-05
5.52884e-05
5.31714e-05
5.11941e-05
4.9423e-05
4.78611e-05
4.64177e-05
4.48862e-05
4.20073e-05
3.85756e-05
3.5209e-05
3.15683e-05
2.7735e-05
2.31972e-05
2.09341e-05
1.97523e-05
1.89391e-05
1.16498e-05
5.99047e-07
1.07114e-06
2.68252e-05
4.98039e-05
6.02503e-05
6.38171e-05
6.26921e-05
5.9178e-05
5.49757e-05
5.11144e-05
4.80485e-05
4.5852e-05
4.44202e-05
4.36259e-05
4.33732e-05
4.35754e-05
4.41387e-05
4.49785e-05
4.60292e-05
4.72414e-05
4.85781e-05
5.00117e-05
5.15217e-05
5.30908e-05
5.47021e-05
5.6338e-05
5.79798e-05
5.96084e-05
6.12052e-05
6.27528e-05
6.4236e-05
6.56416e-05
6.69593e-05
6.81808e-05
6.92997e-05
7.03117e-05
7.12139e-05
7.20047e-05
7.26836e-05
7.32888e-05
7.37193e-05
7.39585e-05
7.43147e-05
7.44752e-05
7.45453e-05
7.45315e-05
7.44396e-05
7.42745e-05
7.40402e-05
7.37391e-05
7.33712e-05
7.29339e-05
7.2421e-05
7.18224e-05
7.11237e-05
7.03066e-05
6.93486e-05
6.82252e-05
6.69114e-05
6.53866e-05
6.36395e-05
6.16764e-05
5.95287e-05
5.72597e-05
5.49645e-05
5.27587e-05
5.07522e-05
4.90096e-05
4.75114e-05
4.61293e-05
4.3843e-05
4.03471e-05
3.71199e-05
3.31352e-05
2.90389e-05
2.46874e-05
2.08014e-05
1.9239e-05
1.85245e-05
1.22729e-05
7.1728e-07
1.06552e-06
2.65571e-05
4.93832e-05
5.98484e-05
6.36156e-05
6.25433e-05
5.90229e-05
5.47794e-05
5.08897e-05
4.78423e-05
4.57101e-05
4.43745e-05
4.36979e-05
4.35733e-05
4.38999e-05
4.4576e-05
4.55168e-05
4.66592e-05
4.79571e-05
4.93759e-05
5.08902e-05
5.24797e-05
5.41259e-05
5.581e-05
5.75123e-05
5.92123e-05
6.08898e-05
6.25256e-05
6.41026e-05
6.56061e-05
6.70242e-05
6.83473e-05
6.95678e-05
7.06805e-05
7.16815e-05
7.25687e-05
7.33413e-05
7.40006e-05
7.45528e-05
7.49715e-05
7.51962e-05
7.54928e-05
7.56259e-05
7.56618e-05
7.56157e-05
7.54951e-05
7.53069e-05
7.50572e-05
7.47505e-05
7.43891e-05
7.39726e-05
7.3497e-05
7.29538e-05
7.23299e-05
7.16071e-05
7.07615e-05
6.97651e-05
6.85868e-05
6.71956e-05
6.55664e-05
6.36871e-05
6.15687e-05
5.9255e-05
5.68296e-05
5.44118e-05
5.21365e-05
5.01137e-05
4.83772e-05
4.68364e-05
4.52506e-05
4.21752e-05
3.86558e-05
3.50535e-05
3.07306e-05
2.61531e-05
2.09877e-05
1.87318e-05
1.75289e-05
1.29183e-05
8.39901e-07
1.05304e-06
2.62336e-05
4.87045e-05
5.93181e-05
6.3282e-05
6.23044e-05
5.88221e-05
5.45737e-05
5.06791e-05
4.76612e-05
4.55975e-05
4.43595e-05
4.37986e-05
4.37947e-05
4.4235e-05
4.50129e-05
4.60449e-05
4.7271e-05
4.86476e-05
5.01427e-05
5.17315e-05
5.33934e-05
5.51082e-05
5.68554e-05
5.86133e-05
6.03602e-05
6.20752e-05
6.37393e-05
6.53361e-05
6.6852e-05
6.82758e-05
6.95989e-05
7.08147e-05
7.19182e-05
7.29062e-05
7.37763e-05
7.45277e-05
7.51603e-05
7.56741e-05
7.60745e-05
7.62999e-05
7.65143e-05
7.6623e-05
7.66219e-05
7.6539e-05
7.63841e-05
7.61659e-05
7.58927e-05
7.55711e-05
7.52058e-05
7.4799e-05
7.4349e-05
7.38499e-05
7.32906e-05
7.26539e-05
7.19164e-05
7.10485e-05
7.00148e-05
6.87771e-05
6.7298e-05
6.55485e-05
6.35181e-05
6.12276e-05
5.87411e-05
5.61716e-05
5.36706e-05
5.13942e-05
4.94491e-05
4.78338e-05
4.63949e-05
4.37724e-05
4.01272e-05
3.69783e-05
3.21338e-05
2.74206e-05
2.22557e-05
1.85792e-05
1.63846e-05
1.34149e-05
9.38954e-07
1.03357e-06
2.5816e-05
4.7954e-05
5.86977e-05
6.28273e-05
6.19881e-05
5.85852e-05
5.43654e-05
5.04864e-05
4.75063e-05
4.55129e-05
4.43713e-05
4.39213e-05
4.40294e-05
4.45724e-05
4.54417e-05
4.6556e-05
4.7858e-05
4.93065e-05
5.0871e-05
5.25271e-05
5.42531e-05
5.60272e-05
5.78271e-05
5.96297e-05
6.14125e-05
6.31548e-05
6.48382e-05
6.64472e-05
6.79691e-05
6.9394e-05
7.0714e-05
7.1923e-05
7.30166e-05
7.39912e-05
7.48445e-05
7.55751e-05
7.61823e-05
7.66663e-05
7.70446e-05
7.72684e-05
7.74055e-05
7.74865e-05
7.74472e-05
7.73246e-05
7.71313e-05
7.68778e-05
7.65742e-05
7.62294e-05
7.58507e-05
7.54426e-05
7.50062e-05
7.45385e-05
7.40308e-05
7.34683e-05
7.28291e-05
7.20836e-05
7.11948e-05
7.01191e-05
6.88101e-05
6.7224e-05
6.53297e-05
6.31222e-05
6.0639e-05
5.79731e-05
5.52735e-05
5.27207e-05
5.04727e-05
4.85959e-05
4.70134e-05
4.5105e-05
4.15173e-05
3.84665e-05
3.40596e-05
2.89417e-05
2.36211e-05
1.90278e-05
1.57229e-05
1.36119e-05
9.84573e-07
1.00817e-06
2.52922e-05
4.70897e-05
5.79808e-05
6.22743e-05
6.16066e-05
5.83203e-05
5.41596e-05
5.03139e-05
4.73777e-05
4.54543e-05
4.44056e-05
4.40597e-05
4.42699e-05
4.49053e-05
4.58564e-05
4.70443e-05
4.84145e-05
4.99276e-05
5.15539e-05
5.3269e-05
5.50499e-05
5.68733e-05
5.87153e-05
6.05521e-05
6.2361e-05
6.41218e-05
6.5817e-05
6.74321e-05
6.89558e-05
7.03788e-05
7.16941e-05
7.28961e-05
7.39802e-05
7.49429e-05
7.57815e-05
7.64945e-05
7.70815e-05
7.75438e-05
7.78949e-05
7.80935e-05
7.81883e-05
7.82335e-05
7.81553e-05
7.79918e-05
7.77577e-05
7.74653e-05
7.71262e-05
7.67517e-05
7.63512e-05
7.59319e-05
7.54978e-05
7.50487e-05
7.4579e-05
7.40768e-05
7.35226e-05
7.28885e-05
7.21373e-05
7.12232e-05
7.00933e-05
6.86923e-05
6.69709e-05
6.4899e-05
6.24847e-05
5.97936e-05
5.69609e-05
5.41808e-05
5.16592e-05
4.95329e-05
4.77853e-05
4.62053e-05
4.30848e-05
3.97728e-05
3.60394e-05
3.02018e-05
2.47153e-05
1.89881e-05
1.58474e-05
1.35997e-05
9.92442e-07
9.78289e-07
2.47334e-05
4.61374e-05
5.71741e-05
6.16394e-05
6.11708e-05
5.80341e-05
5.396e-05
5.01632e-05
4.72751e-05
4.54195e-05
4.44582e-05
4.42082e-05
4.45104e-05
4.52278e-05
4.62515e-05
4.75047e-05
4.89351e-05
5.05049e-05
5.21849e-05
5.395e-05
5.57761e-05
5.76385e-05
5.95125e-05
6.13738e-05
6.32e-05
6.49718e-05
6.66726e-05
6.82894e-05
6.98117e-05
7.12313e-05
7.25416e-05
7.37371e-05
7.48134e-05
7.57667e-05
7.65939e-05
7.72933e-05
7.78643e-05
7.83088e-05
7.86301e-05
7.87982e-05
7.88667e-05
7.8875e-05
7.87589e-05
7.85549e-05
7.82794e-05
7.7946e-05
7.75684e-05
7.71594e-05
7.67307e-05
7.62921e-05
7.58504e-05
7.54082e-05
7.49634e-05
7.45072e-05
7.40233e-05
7.34864e-05
7.2861e-05
7.21009e-05
7.11498e-05
6.99441e-05
6.84198e-05
6.65238e-05
6.42337e-05