/*--------------------------------*- C++ -*----------------------------------*\
  =========                 |
  \\      /  F ield         | OpenFOAM: The Open Source CFD Toolbox
   \\    /   O peration     | Website:  https://openfoam.org
    \\  /    A nd           | Version:  13
     \\/     M anipulation  |
\*---------------------------------------------------------------------------*/
FoamFile
{
    format      ascii;
    class       volScalarField;
    location    "8.5";
    object      p;
}
// * * * * * * * * * * * * * * * * * * * * * * * * * * * * * * * * * * * * * //

dimensions      [0 2 -2 0 0 0 0];

internalField   nonuniform List<scalar> 
6400
(
5.93644e-09
2.01531e-05
2.92379e-05
1.38588e-05
-3.12313e-05
-0.000100781
-0.000184949
-0.000274468
-0.00036302
-0.000447473
-0.000528628
-0.000610816
-0.000698786
-0.000797791
-0.000913075
-0.00104877
-0.00120781
-0.00139182
-0.00160208
-0.0018392
-0.00210359
-0.00239671
-0.00272157
-0.00308276
-0.00348678
-0.00393795
-0.00443098
-0.00495645
-0.00549095
-0.00600074
-0.0064815
-0.00694098
-0.00737731
-0.00778768
-0.00816654
-0.00850502
-0.00879153
-0.00901275
-0.00915472
-0.00920357
-0.00914615
-0.00897127
-0.00867094
-0.00824116
-0.00767976
-0.00697852
-0.00612937
-0.00515104
-0.00406044
-0.00286457
-0.00158426
-0.000240901
0.00113625
0.00251449
0.00385315
0.00510704
0.0062321
0.00718689
0.00793216
0.00843705
0.00868369
0.00867055
0.00841182
0.00792648
0.00727917
0.00651899
0.00571162
0.00491993
0.00420033
0.00358265
0.00310139
0.00276712
0.00254974
0.00242369
0.0023694
0.00236328
0.00238618
0.00242294
0.00246294
0.0024902
-1.52327e-05
5.32421e-06
9.67979e-06
-1.07515e-05
-5.87346e-05
-0.000128217
-0.000208357
-0.000290518
-0.000369715
-0.000444661
-0.000517512
-0.000592439
-0.000674355
-0.000768067
-0.000877492
-0.00100622
-0.00115753
-0.0013339
-0.00153586
-0.00176358
-0.00201596
-0.00229376
-0.00260031
-0.00293809
-0.00331026
-0.00372428
-0.00418744
-0.00469775
-0.00524077
-0.00579189
-0.00632376
-0.00682763
-0.00730545
-0.00775404
-0.00816752
-0.00853698
-0.00885108
-0.00909712
-0.00926192
-0.00933288
-0.00929799
-0.00914718
-0.00887284
-0.00846924
-0.00793165
-0.00725632
-0.00645013
-0.0055208
-0.00447031
-0.00331665
-0.00207776
-0.000777054
0.000557412
0.00189207
0.00318919
0.00440864
0.00550776
0.00644501
0.0071847
0.00769699
0.00796355
0.00798176
0.00776453
0.00733843
0.00675019
0.00605435
0.00531243
0.00458343
0.00392025
0.00336416
0.00293329
0.00263489
0.00245555
0.00237164
0.00235869
0.00238921
0.0024324
0.00247103
0.00250345
0.0025292
-3.16066e-05
-8.83466e-06
-1.02475e-05
-3.99758e-05
-9.60522e-05
-0.00016809
-0.000244213
-0.000316189
-0.000381417
-0.000441634
-0.000500677
-0.000563617
-0.000635551
-0.000720272
-0.000820294
-0.000937449
-0.00107329
-0.00123008
-0.00141004
-0.00161597
-0.00185152
-0.00211979
-0.00242522
-0.00277281
-0.00316671
-0.00360942
-0.00410133
-0.00463819
-0.00520883
-0.00579556
-0.00637853
-0.0069421
-0.00747712
-0.00797706
-0.00843484
-0.00884123
-0.0091859
-0.00945779
-0.00964514
-0.00973653
-0.0097218
-0.00959213
-0.00934048
-0.00896176
-0.008453
-0.00781366
-0.00704029
-0.00614572
-0.00513641
-0.00402542
-0.00282958
-0.00157068
-0.000275354
0.00102503
0.00229499
0.00349632
0.00458734
0.00552711
0.00628056
0.00681897
0.0071231
0.00718818
0.0070263
0.00666385
0.0061435
0.00551769
0.00484154
0.00417801
0.00357403
0.00306655
0.00267985
0.00242722
0.00229636
0.00225852
0.00228256
0.0023442
0.00241342
0.00247128
0.00251863
0.00255584
-4.03887e-05
-1.86876e-05
-2.77353e-05
-6.88042e-05
-0.000135084
-0.000210252
-0.000282606
-0.000345575
-0.000397843
-0.000441801
-0.000483751
-0.000530532
-0.00058773
-0.0006591
-0.000746341
-0.000850242
-0.000972204
-0.00111508
-0.00128282
-0.00148106
-0.001717
-0.00199852
-0.00233288
-0.00272265
-0.00317006
-0.00367626
-0.00423706
-0.00484176
-0.00547453
-0.00611867
-0.00675772
-0.00737652
-0.0079629
-0.00850776
-0.00900259
-0.00943811
-0.00980528
-0.0100943
-0.010295
-0.0103976
-0.0103934
-0.0102747
-0.0100352
-0.00967078
-0.00917988
-0.00856038
-0.00781396
-0.00694618
-0.00596449
-0.00488103
-0.00371157
-0.00247632
-0.0011997
8.96462e-05
0.00135812
0.00256754
0.00367756
0.00464807
0.00544206
0.00602987
0.00639049
0.00651517
0.00641362
0.00611214
0.00565016
0.00507691
0.00444927
0.00382614
0.00325771
0.0027817
0.00242201
0.00218938
0.00207619
0.00206619
0.00212948
0.00222596
0.00232717
0.00241547
0.00248692
0.00253666
-3.47252e-05
-2.0692e-05
-4.00168e-05
-9.27415e-05
-0.00016863
-0.000246646
-0.000315239
-0.000369368
-0.000409091
-0.000438887
-0.000466102
-0.000498447
-0.000541962
-0.000600344
-0.000675735
-0.000769966
-0.000886204
-0.00103024
-0.00120926
-0.0014315
-0.00170676
-0.00204066
-0.00243788
-0.00290265
-0.00343418
-0.00402642
-0.00466902
-0.00534736
-0.00604397
-0.00674258
-0.00742786
-0.0080873
-0.00871024
-0.00928624
-0.00980617
-0.0102612
-0.0106428
-0.010942
-0.0111504
-0.0112599
-0.0112628
-0.0111529
-0.0109242
-0.0105728
-0.0100983
-0.00949996
-0.00877849
-0.00793677
-0.00698127
-0.00592323
-0.00477767
-0.00356276
-0.00229959
-0.00101302
0.000264977
0.00149531
0.00263904
0.00365819
0.00451476
0.00517648
0.00561979
0.00583126
0.00581444
0.00559099
0.00520091
0.00469106
0.00411596
0.00353303
0.00299453
0.00254055
0.00219773
0.00197635
0.00187272
0.00187058
0.00194463
0.00206172
0.00218875
0.00230494
0.00239925
0.0024584
-5.75666e-06
-5.9585e-06
-3.78648e-05
-0.000104563
-0.000188662
-0.00026774
-0.000332233
-0.000378587
-0.000408159
-0.000427085
-0.000443892
-0.000466707
-0.000501736
-0.000553369
-0.000625451
-0.000722479
-0.000851059
-0.00102008
-0.00124051
-0.00151948
-0.00186457
-0.00228301
-0.00277629
-0.00334119
-0.0039688
-0.00464706
-0.0053638
-0.00610502
-0.0068553
-0.00759941
-0.0083232
-0.00901507
-0.0096648
-0.0102628
-0.0108006
-0.0112696
-0.0116611
-0.0119675
-0.0121822
-0.0122984
-0.0123093
-0.0122109
-0.0119975
-0.0116649
-0.0112162
-0.0106485
-0.00996134
-0.00915678
-0.00823942
-0.00721867
-0.0061079
-0.00492146
-0.00367628
-0.002394
-0.00110746
0.000144799
0.0013285
0.00240917
0.00334587
0.00410358
0.00465762
0.0049883
0.00509391
0.00498615
0.00470011
0.00428322
0.00378729
0.00326626
0.00277262
0.00234938
0.00202566
0.00181467
0.00171486
0.00171279
0.001785
0.00190347
0.00203779
0.00216473
0.00226903
0.00233145
5.6953e-05
3.89751e-05
-9.41923e-06
-9.31055e-05
-0.000182495
-0.0002619
-0.000323137
-0.000363999
-0.000387826
-0.000401983
-0.000415541
-0.000436917
-0.000472975
-0.000529874
-0.000614513
-0.000734572
-0.000900438
-0.00112393
-0.00141338
-0.00177753
-0.0022229
-0.0027504
-0.00335133
-0.00401494
-0.00473118
-0.00548808
-0.00627193
-0.00706882
-0.007865
-0.00864713
-0.00940263
-0.0101207
-0.0107915
-0.0114065
-0.0119577
-0.0124364
-0.0128338
-0.013145
-0.0133647
-0.0134879
-0.0135115
-0.01343
-0.0132391
-0.0129353
-0.0125203
-0.0119888
-0.0113427
-0.0105855
-0.00972239
-0.00875873
-0.0077008
-0.00655954
-0.00535101
-0.00409778
-0.00282462
-0.00155903
-0.00033152
0.000820441
0.00184932
0.00272386
0.00341659
0.00389964
0.00416722
0.00422124
0.00408631
0.00380398
0.00342395
0.00299796
0.00257617
0.00220291
0.0019101
0.00171433
0.00161714
0.00161127
0.00167271
0.00177953
0.00190427
0.00202382
0.00212284
0.00218018
0.000163624
0.000124909
5.44533e-05
-4.31719e-05
-0.000138077
-0.000218888
-0.000279034
-0.000318819
-0.000343274
-0.00036085
-0.000381046
-0.000412727
-0.000464124
-0.000544245
-0.000663041
-0.000832018
-0.00106306
-0.00136783
-0.00175479
-0.00223015
-0.00279043
-0.00342724
-0.00413016
-0.00488751
-0.0056864
-0.00651396
-0.00735693
-0.00820242
-0.00903798
-0.0098517
-0.0106325
-0.0113705
-0.0120566
-0.0126818
-0.0132382
-0.013718
-0.0141179
-0.0144344
-0.0146623
-0.0147975
-0.0148363
-0.0147727
-0.0146046
-0.0143308
-0.013947
-0.0134543
-0.0128547
-0.0121517
-0.0113496
-0.0104514
-0.00945989
-0.00838421
-0.00723848
-0.00604036
-0.00480651
-0.00355434
-0.00231293
-0.00111912
-3.28325e-06
0.00100517
0.0018542
0.00251822
0.00298477
0.00324434
0.00331007
0.00321074
0.0029903
0.00269808
0.00238121
0.00208409
0.00184089
0.00167184
0.00158303
0.00156894
0.00161452
0.00170138
0.00180397
0.00190342
0.00198263
0.00202542
0.000319667
0.000260045
0.000164638
5.31277e-05
-4.84252e-05
-0.000132182
-0.00019517
-0.000239871
-0.000273177
-0.000304532
-0.00034393
-0.000401124
-0.00048641
-0.000611865
-0.000790778
-0.00103524
-0.00135802
-0.00177043
-0.00227529
-0.00286826
-0.0035421
-0.00428535
-0.00508493
-0.00592746
-0.00679985
-0.00768923
-0.00858324
-0.0094699
-0.0103377
-0.0111759
-0.0119746
-0.0127244
-0.0134165
-0.0140429
-0.0145979
-0.0150794
-0.0154865
-0.0158119
-0.0160502
-0.0161963
-0.0162452
-0.016196
-0.0160479
-0.0158004
-0.0154494
-0.014998
-0.0144468
-0.0137974
-0.0130524
-0.0122154
-0.0112922
-0.0102899
-0.00921878
-0.00809166
-0.00692082
-0.00571628
-0.00449765
-0.00329038
-0.00211598
-0.00101695
-2.577e-05
0.000838036
0.00152416
0.00202191
0.00233064
0.00246368
0.0024499
0.00233373
0.00215848
0.00196659
0.00179545
0.00166899
0.00159768
0.00158042
0.00160813
0.00166711
0.0017395
0.00180991
0.00185853
0.00188234
0.000532612
0.00044968
0.000326611
0.000199815
8.89976e-05
-9.38947e-07
-7.17805e-05
-0.000128895
-0.000181036
-0.000238595
-0.000312248
-0.000413008
-0.00055373
-0.000749287
-0.0010135
-0.00135858
-0.00179629
-0.00233076
-0.00295787
-0.00366912
-0.00445301
-0.00529518
-0.00618217
-0.00710036
-0.00803698
-0.00897951
-0.00991626
-0.010836
-0.0117281
-0.0125827
-0.0133909
-0.0141445
-0.0148373
-0.0154647
-0.0160222
-0.0165058
-0.01691
-0.01723
-0.0174632
-0.0176083
-0.017663
-0.0176261
-0.0174971
-0.0172754
-0.0169588
-0.0165491
-0.0160473
-0.0154549
-0.0147737
-0.0140065
-0.0131575
-0.0122318
-0.0112357
-0.0101762
-0.00906213
-0.0079082
-0.00673212
-0.005549
-0.00437091
-0.00321993
-0.00211773
-0.00110352
-0.000210312
0.000541758
0.00111896
0.00152365
0.00176353
0.00186762
0.00187419
0.0018208
0.00174559
0.00167925
0.00163764
0.001625
0.0016371
0.00166678
0.00170451
0.00173843
0.00175343
0.00175833
0.000804809
0.000692689
0.000540638
0.000393265
0.000270997
0.00017042
8.53135e-05
6.85727e-06
-7.56377e-05
-0.000173505
-0.000298186
-0.000462536
-0.000681528
-0.000970483
-0.00134252
-0.00180797
-0.00237234
-0.00303374
-0.00378306
-0.00460752
-0.00549318
-0.00642533
-0.00739028
-0.00837465
-0.00936594
-0.0103521
-0.0113221
-0.0122653
-0.0131724
-0.0140346
-0.0148444
-0.0155953
-0.0162822
-0.016901
-0.0174477
-0.0179195
-0.0183125
-0.018624
-0.0188522
-0.0189963
-0.0190552
-0.0190281
-0.0189147
-0.0187149
-0.0184282
-0.0180555
-0.017598
-0.0170574
-0.0164356
-0.0157348
-0.0149584
-0.0141101
-0.013194
-0.0122142
-0.0111761
-0.0100873
-0.00895729
-0.00779724
-0.00662633
-0.00546256
-0.00431465
-0.00320038
-0.00214049
-0.00117512
-0.000329613
0.000361636
0.000889445
0.00125754
0.00148848
0.00161263
0.00166299
0.00167515
0.00167558
0.0016758
0.00167844
0.00168128
0.00168355
0.00167843
0.00166158
0.00164998
0.00112417
0.000982203
0.000794749
0.000623896
0.000486866
0.000371201
0.000264538
0.00015475
2.93701e-05
-0.000123709
-0.000317112
-0.000564967
-0.000882856
-0.00128485
-0.00178129
-0.00237782
-0.00307393
-0.00386143
-0.00472708
-0.00565655
-0.00663472
-0.00764704
-0.00867974
-0.00971969
-0.0107547
-0.0117733
-0.0127651
-0.0137206
-0.0146318
-0.0154913
-0.0162931
-0.0170323
-0.0177049
-0.0183076
-0.018838
-0.019294
-0.0196733
-0.0199744
-0.0201961
-0.0203377
-0.0203988
-0.020379
-0.0202785
-0.0200973
-0.019836
-0.0194953
-0.0190767
-0.0185817
-0.0180121
-0.0173703
-0.0166588
-0.0158805
-0.0150385
-0.0141356
-0.0131755
-0.0121619
-0.0110991
-0.00999176
-0.00884784
-0.00767771
-0.00649813
-0.00532865
-0.00417277
-0.00304898
-0.00198517
-0.00102472
-0.000202536
0.000459266
0.000955851
0.00129995
0.001515
0.0016318
0.00168761
0.00170839
0.00170668
0.00168765
0.00165745
0.00161667
0.00157326
0.00154745
0.00147644
0.00130292
0.00107538
0.000878125
0.000722554
0.000585877
0.000449458
0.000297758
0.000116784
-0.000106488
-0.000385113
-0.000734096
-0.00116766
-0.00169666
-0.00232711
-0.00305896
-0.00388509
-0.00479261
-0.0057664
-0.00679116
-0.00785147
-0.00893287
-0.0100217
-0.0111051
-0.0121714
-0.01321
-0.0142117
-0.0151685
-0.0160736
-0.0169215
-0.0177077
-0.0184287
-0.0190818
-0.0196649
-0.0201764
-0.0206149
-0.0209792
-0.0212687
-0.0214826
-0.0216204
-0.0216822
-0.021668
-0.0215781
-0.0214129
-0.0211733
-0.0208602
-0.0204751
-0.0200196
-0.0194956
-0.018905
-0.0182502
-0.0175335
-0.0167571
-0.0159232
-0.015034
-0.0140914
-0.0130973
-0.0120535
-0.0109618
-0.00982432
-0.00864599
-0.00743652
-0.00621365
-0.00499107
-0.00377797
-0.00260456
-0.00151593
-0.000558162
0.000231637
0.000835832
0.00125901
0.0015202
0.001654
0.00170513
0.00170319
0.0016665
0.00160937
0.00153985
0.00147713
0.00144241
0.00184334
0.0016354
0.0013657
0.00113751
0.000958866
0.000794811
0.000620155
0.00041615
0.000167494
-0.000139021
-0.000517433
-0.000981628
-0.00154262
-0.00220692
-0.00297445
-0.00383899
-0.00478842
-0.00580708
-0.0068788
-0.00798768
-0.00911828
-0.0102563
-0.0113882
-0.012502
-0.0135869
-0.0146336
-0.0156344
-0.0165828
-0.0174739
-0.0183038
-0.0190694
-0.0197685
-0.0203997
-0.0209616
-0.0214533
-0.0218741
-0.0222235
-0.0225013
-0.0227071
-0.0228409
-0.0229027
-0.0228929
-0.022812
-0.0226606
-0.0224397
-0.0221504
-0.0217941
-0.0213725
-0.0208873
-0.0203406
-0.0197344
-0.0190706
-0.0183511
-0.0175775
-0.016751
-0.0158724
-0.0149419
-0.0139593
-0.012924
-0.0118346
-0.0106903
-0.00949075
-0.00823918
-0.00694623
-0.00563537
-0.00431665
-0.00301896
-0.00179915
-0.000715473
0.000177375
0.00084926
0.00130086
0.00155248
0.0016529
0.00165894
0.00160762
0.001528
0.0014366
0.00136151
0.00132158
0.00219991
0.00195621
0.00164061
0.0013798
0.00117394
0.000976185
0.000755114
0.000489583
0.000163273
-0.000238002
-0.000727782
-0.00131675
-0.00201179
-0.00281279
-0.00371398
-0.00470392
-0.00576687
-0.0068856
-0.00804326
-0.00922362
-0.0104113
-0.0115925
-0.0127542
-0.0138856
-0.0149773
-0.0160217
-0.0170127
-0.0179458
-0.0188175
-0.0196255
-0.020368
-0.0210438
-0.0216524
-0.0221931
-0.0226656
-0.0230697
-0.0234051
-0.023672
-0.0238705
-0.0240005
-0.0240624
-0.0240566
-0.0239836
-0.0238443
-0.0236396
-0.0233707
-0.0230391
-0.0226463
-0.0221942
-0.0216845
-0.0211193
-0.0205002
-0.019829
-0.0191067
-0.0183342
-0.0175116
-0.0166381
-0.0157123
-0.0147314
-0.0136924
-0.0125912
-0.0114239
-0.0101871
-0.00888054
-0.00751106
-0.00609474
-0.00465714
-0.00323286
-0.0018907
-0.000706248
0.000247456
0.000932567
0.00135218
0.00154037
0.00156903
0.00150942
0.00140961
0.00129966
0.00121685
0.00117292
0.00251879
0.00223972
0.001878
0.00158244
0.0013451
0.00110728
0.000832727
0.000498227
8.5959e-05
-0.000419154
-0.00102743
-0.00174565
-0.00257431
-0.00350762
-0.00453456
-0.00563934
-0.00680383
-0.00800982
-0.00924001
-0.0104781
-0.0117091
-0.0129199
-0.0140988
-0.0152363
-0.016325
-0.0173589
-0.0183339
-0.019247
-0.0200964
-0.0208808
-0.0215995
-0.0222524
-0.0228392
-0.0233599
-0.0238147
-0.0242036
-0.0245268
-0.0247843
-0.0249764
-0.0251035
-0.0251657
-0.0251637
-0.025098
-0.0249694
-0.0247789
-0.0245277
-0.0242173
-0.0238491
-0.0234248
-0.0229463
-0.0224154
-0.0218337
-0.0212026
-0.0205234
-0.0197964
-0.0190215
-0.0181975
-0.0173222
-0.0163921
-0.0154025
-0.0143476
-0.0132207
-0.012015
-0.0107256
-0.00934986
-0.00789131
-0.00636556
-0.00480609
-0.00326361
-0.001821
-0.000576535
0.000383263
0.00101867
0.00134589
0.0014305
0.00137403
0.00125624
0.00112871
0.00103818
0.000987412
0.00277951
0.00246181
0.00205474
0.00172283
0.00144971
0.00116652
0.00083353
0.000424715
-8.05851e-05
-0.000694493
-0.00142332
-0.00226889
-0.00322565
-0.0042827
-0.00542412
-0.00663087
-0.00788325
-0.00916241
-0.0104509
-0.0117326
-0.0129934
-0.0142211
-0.015406
-0.0165403
-0.0176183
-0.0186361
-0.0195911
-0.020482
-0.0213079
-0.0220687
-0.0227645
-0.0233956
-0.0239624
-0.0244651
-0.0249042
-0.02528
-0.0255926
-0.0258423
-0.0260295
-0.0261545
-0.0262176
-0.0262193
-0.0261603
-0.0260414
-0.0258636
-0.0256279
-0.0253357
-0.0249885
-0.0245879
-0.0241356
-0.0236333
-0.0230825
-0.0224848
-0.021841
-0.0211517
-0.0204166
-0.0196344
-0.0188028
-0.0179179
-0.0169744
-0.0159655
-0.0148831
-0.013718
-0.0124612
-0.0111052
-0.00964654
-0.0080894
-0.0064527
-0.00477831
-0.00313658
-0.00163107
-0.00038135
0.000518042
0.00104061
0.00123135
0.00120052
0.00107221
0.000926204
0.000821406
0.000757954
0.00294725
0.00259818
0.0021491
0.00178039
0.00146825
0.00113665
0.000741652
0.000253377
-0.000347206
-0.0010694
-0.00191635
-0.00288294
-0.00395875
-0.00512778
-0.0063701
-0.00766438
-0.00898992
-0.0103275
-0.0116598
-0.0129715
-0.0142495
-0.0154833
-0.016665
-0.0177888
-0.0188509
-0.0198491
-0.0207822
-0.0216501
-0.0224529
-0.0231912
-0.0238657
-0.0244771
-0.025026
-0.025513
-0.0259386
-0.0263032
-0.0266071
-0.0268506
-0.0270341
-0.0271579
-0.0272224
-0.027228
-0.0271754
-0.0270654
-0.0268989
-0.0266768
-0.0264006
-0.0260715
-0.025691
-0.0252607
-0.0247824
-0.0242573
-0.023687
-0.0230724
-0.022414
-0.0217116
-0.0209642
-0.0201693
-0.0193233
-0.018421
-0.0174552
-0.0164171
-0.0152966
-0.0140821
-0.0127626
-0.011329
-0.00977788
-0.00811599
-0.00637
-0.00459694
-0.00288898
-0.00137052
-0.000180895
0.0005888
0.000946287
0.000984183
0.000857119
0.000691943
0.000561873
0.00048098
0.00300873
0.00263142
0.00214385
0.00173867
0.00138614
0.00100436
0.000544612
-2.41141e-05
-0.000718524
-0.00154571
-0.00250343
-0.00358162
-0.0047645
-0.00603151
-0.0073597
-0.00872623
-0.0101098
-0.0114911
-0.0128534
-0.0141825
-0.0154668
-0.0166977
-0.0178693
-0.0189775
-0.0200205
-0.0209972
-0.021908
-0.0227533
-0.0235342
-0.0242518
-0.024907
-0.0255009
-0.0260343
-0.0265078
-0.026922
-0.0272773
-0.0275743
-0.027813
-0.0279939
-0.0281173
-0.0281836
-0.0281933
-0.0281469
-0.0280451
-0.0278888
-0.0276789
-0.0274166
-0.0271032
-0.02674
-0.0263286
-0.0258704
-0.0253668
-0.0248192
-0.0242285
-0.0235954
-0.0229198
-0.0222008
-0.0214365
-0.0206234
-0.0197568
-0.0188297
-0.0178334
-0.0167573
-0.015589
-0.0143153
-0.0129234
-0.0114038
-0.00975364
-0.00798515
-0.00613884
-0.00429497
-0.00256301
-0.00109115
-3.20087e-05
0.000546368
0.000704337
0.00060563
0.000422324
0.000255078
0.000155535
0.00294892
0.00254804
0.00202688
0.00158693
0.0011939
0.000760381
0.000235211
-0.000410934
-0.00119458
-0.00211978
-0.0031787
-0.0043564
-0.00563221
-0.00698186
-0.00838024
-0.00980352
-0.0112302
-0.0126413
-0.014021
-0.0153565
-0.0166381
-0.0178592
-0.0190155
-0.020105
-0.0211271
-0.022082
-0.0229708
-0.0237949
-0.0245556
-0.0252544
-0.0258926
-0.0264713
-0.0269913
-0.0274534
-0.0278581
-0.028206
-0.0284974
-0.0287326
-0.0289119
-0.0290356
-0.0291041
-0.0291178
-0.0290773
-0.0289831
-0.0288361
-0.0286372
-0.0283873
-0.0280877
-0.0277396
-0.0273443
-0.0269033
-0.0264178
-0.0258891
-0.0253183
-0.024706
-0.0240522
-0.0233565
-0.0226173
-0.0218317
-0.0209954
-0.0201022
-0.0191439
-0.01811
-0.0169881
-0.0157639
-0.0144224
-0.0129503
-0.0113379
-0.0095848
-0.00771266
-0.00578831
-0.00390874
-0.00220246
-0.000850637
-2.40875e-07
0.000339966
0.000306913
0.000108466
-0.000102867
-0.00022011
0.00275896
0.00234017
0.00179136
0.00131936
0.000886027
0.000401419
-0.000185863
-0.000905015
-0.00177159
-0.00278505
-0.00393333
-0.00519665
-0.00655009
-0.00796657
-0.00941948
-0.0108845
-0.0123401
-0.0137683
-0.0151544
-0.0164872
-0.017759
-0.0189651
-0.020103
-0.0211719
-0.0221725
-0.0231059
-0.023974
-0.0247784
-0.0255209
-0.026203
-0.0268263
-0.0273918
-0.0279005
-0.028353
-0.02875
-0.0290918
-0.0293789
-0.0296116
-0.02979
-0.0299145
-0.0299855
-0.0300033
-0.0299684
-0.0298814
-0.029743
-0.0295539
-0.0293152
-0.0290278
-0.0286929
-0.0283117
-0.0278855
-0.0274155
-0.0269029
-0.0263487
-0.0257536
-0.025118
-0.0244414
-0.0237228
-0.0229599
-0.0221491
-0.021285
-0.0203603
-0.0193653
-0.0182878
-0.0171134
-0.0158262
-0.0144101
-0.0128517
-0.0111419
-0.00928285
-0.0073169
-0.00535208
-0.00347849
-0.00186362
-0.000714791
-0.000139778
-6.23114e-05
-0.000257743
-0.000512306
-0.000645778
0.00243648
0.00200587
0.00143598
0.00093528
0.000463341
-6.98798e-05
-0.000714674
-0.00150036
-0.0024409
-0.00353165
-0.00475615
-0.00609031
-0.00750581
-0.00897351
-0.0104659
-0.0119585
-0.0134304
-0.0148645
-0.0162476
-0.0175706
-0.0188274
-0.020015
-0.0211324
-0.02218
-0.0231593
-0.0240723
-0.0249209
-0.0257074
-0.0264335
-0.0271011
-0.0277114
-0.0282656
-0.0287646
-0.0292091
-0.0295997
-0.0299367
-0.0302205
-0.0304514
-0.0306296
-0.0307553
-0.0308289
-0.0308507
-0.0308212
-0.0307409
-0.0306103
-0.0304303
-0.0302016
-0.0299252
-0.0296021
-0.0292334
-0.0288202
-0.0283637
-0.0278649
-0.0273249
-0.0267444
-0.0261239
-0.0254632
-0.0247618
-0.0240177
-0.0232283
-0.0223891
-0.0214936
-0.0205333
-0.019497
-0.0183707
-0.017138
-0.0157816
-0.0142852
-0.0126352
-0.0108217
-0.00885541
-0.00683716
-0.00486474
-0.00305078
-0.00161914
-0.000767317
-0.000519308
-0.000685087
-0.000971281
-0.00112111
0.00198481
0.00154877
0.000964473
0.00043885
-6.87886e-05
-0.000646029
-0.00134255
-0.00218753
-0.00319181
-0.00434763
-0.00563449
-0.00702456
-0.00848693
-0.00999104
-0.0115089
-0.0130164
-0.0144934
-0.015924
-0.0172969
-0.0186045
-0.0198426
-0.0210095
-0.0221054
-0.0231317
-0.0240905
-0.0249841
-0.025815
-0.0265852
-0.0272968
-0.0279514
-0.0285504
-0.0290949
-0.0295857
-0.0300235
-0.0304088
-0.030742
-0.0310233
-0.031253
-0.0314313
-0.0315585
-0.0316348
-0.0316605
-0.0316361
-0.031562
-0.0314388
-0.0312671
-0.0310476
-0.0307811
-0.0304686
-0.030111
-0.0297094
-0.0292648
-0.0287782
-0.0282506
-0.0276827
-0.0270751
-0.026428
-0.025741
-0.0250129
-0.0242415
-0.0234234
-0.0225532
-0.0216236
-0.0206245
-0.019543
-0.0183633
-0.0170672
-0.0156365
-0.0140547
-0.0123067
-0.0103848
-0.00833229
-0.00630953
-0.00436816
-0.00269632
-0.00155602
-0.00109006
-0.00119009
-0.00147894
-0.00165101
0.00141232
0.000977242
0.000384744
-0.000161166
-0.000700372
-0.00131656
-0.00205831
-0.00295374
-0.00401111
-0.00521947
-0.00655484
-0.00798642
-0.00948135
-0.0110083
-0.0125392
-0.0140504
-0.015523
-0.0169427
-0.0182996
-0.0195878
-0.0208047
-0.0219497
-0.0230239
-0.0240294
-0.0249687
-0.0258443
-0.0266588
-0.0274144
-0.028113
-0.0287562
-0.0293454
-0.0298814
-0.0303653
-0.0307974
-0.0311783
-0.0315083
-0.0317877
-0.0320167
-0.0321955
-0.0323242
-0.0324032
-0.0324328
-0.0324132
-0.032345
-0.0322285
-0.0320644
-0.0318533
-0.0315959
-0.031293
-0.0309456
-0.0305544
-0.0301205
-0.0296448
-0.0291282
-0.0285715
-0.0279753
-0.02734
-0.0266655
-0.025951
-0.0251951
-0.0243952
-0.0235469
-0.0226442
-0.0216784
-0.020638
-0.0195081
-0.018271
-0.0169066
-0.015397
-0.0137251
-0.0118711
-0.00983315
-0.00776959
-0.00576542
-0.00392025
-0.00251438
-0.00179662
-0.00177115
-0.00203998
-0.00224617
0.000731437
0.000303678
-0.000290746
-0.000852087
-0.00141789
-0.00206755
-0.00284785
-0.00378474
-0.00488433
-0.00613286
-0.00750349
-0.00896312
-0.0104776
-0.0120152
-0.0135483
-0.015054
-0.0165146
-0.0179174
-0.0192542
-0.0205204
-0.0217146
-0.0228372
-0.02389
-0.0248755
-0.0257963
-0.0266553
-0.0274549
-0.0281972
-0.0288842
-0.0295173
-0.0300978
-0.0306265
-0.0311043
-0.0315316
-0.0319088
-0.0322362
-0.0325141
-0.0327426
-0.032922
-0.0330524
-0.0331341
-0.0331672
-0.0331522
-0.0330894
-0.0329792
-0.0328221
-0.0326188
-0.0323697
-0.0320757
-0.0317375
-0.031356
-0.0309319
-0.0304661
-0.0299595
-0.0294129
-0.028827
-0.0282023
-0.0275388
-0.0268364
-0.0260941
-0.0253099
-0.0244808
-0.0236018
-0.0226656
-0.0216623
-0.0205785
-0.0193972
-0.0180982
-0.0166614
-0.0150684
-0.0132974
-0.0113297
-0.00922852
-0.00719898
-0.00525628
-0.00363539
-0.00265735
-0.00244467
-0.00267102
-0.00292326
-4.07507e-05
-0.000457053
-0.0010469
-0.00161882
-0.00220672
-0.00288438
-0.00369573
-0.0046651
-0.00579633
-0.00707332
-0.00846697
-0.00994251
-0.0114651
-0.0130029
-0.0145291
-0.0160217
-0.0174645
-0.0188461
-0.0201598
-0.0214023
-0.0225732
-0.0236735
-0.0247055
-0.0256718
-0.0265755
-0.027419
-0.0282049
-0.0289353
-0.0296118
-0.0302358
-0.0308086
-0.0313309
-0.0318033
-0.0322263
-0.0326003
-0.0329256
-0.0332023
-0.0334306
-0.0336107
-0.0337427
-0.0338269
-0.0338635
-0.0338527
-0.033795
-0.0336906
-0.03354
-0.0333438
-0.0331025
-0.0328167
-0.0324871
-0.0321143
-0.0316993
-0.0312428
-0.0307455
-0.0302083
-0.0296318
-0.0290167
-0.0283634
-0.0276719
-0.0269418
-0.0261718
-0.0253596
-0.0245016
-0.0235918
-0.0226219
-0.0215802
-0.020451
-0.019215
-0.0178505
-0.016338
-0.0146576
-0.0127787
-0.0106889
-0.00863857
-0.00666206
-0.0048926
-0.00367584
-0.0032453
-0.00338947
-0.00370351
-0.00088525
-0.0012876
-0.00186787
-0.00244601
-0.00305109
-0.00375082
-0.0045859
-0.00557905
-0.00673199
-0.00802672
-0.00943243
-0.0109133
-0.0124341
-0.0139636
-0.0154755
-0.0169492
-0.0183697
-0.0197272
-0.021016
-0.0222341
-0.0233815
-0.0244599
-0.0254719
-0.0264202
-0.0273077
-0.0281369
-0.0289103
-0.0296297
-0.0302967
-0.0309126
-0.0314784
-0.0319949
-0.0324625
-0.0328818
-0.0332531
-0.0335764
-0.0338521
-0.0340803
-0.0342611
-0.0343947
-0.0344813
-0.034521
-0.0345142
-0.0344611
-0.0343622
-0.0342176
-0.0340281
-0.0337939
-0.0335157
-0.033194
-0.0328296
-0.0324231
-0.0319751
-0.0314866
-0.0309582
-0.0303907
-0.0297847
-0.0291409
-0.0284595
-0.0277406
-0.0269834
-0.0261866
-0.0253474
-0.0244614
-0.0235215
-0.022518
-0.0214368
-0.0202599
-0.0189656
-0.0175324
-0.0159398
-0.0141572
-0.0121564
-0.0100751
-0.00810094
-0.00625701
-0.00484738
-0.00419218
-0.00421269
-0.0046148
-0.00178378
-0.00216988
-0.00273662
-0.00331662
-0.0039339
-0.0046499
-0.00550199
-0.00651094
-0.00767664
-0.00897961
-0.0103879
-0.0118651
-0.0133762
-0.0148904
-0.0163824
-0.0178329
-0.0192281
-0.0205595
-0.0218226
-0.023016
-0.0241403
-0.0251976
-0.0261904
-0.0271217
-0.0279941
-0.0288101
-0.0295718
-0.0302812
-0.0309395
-0.031548
-0.0321075
-0.0326187
-0.0330821
-0.033498
-0.0338667
-0.0341884
-0.0344632
-0.0346913
-0.0348728
-0.0350079
-0.0350967
-0.0351393
-0.0351362
-0.0350874
-0.0349934
-0.0348545
-0.034671
-0.0344435
-0.0341724
-0.0338582
-0.0335015
-0.033103
-0.0326632
-0.032183
-0.031663
-0.031104
-0.0305068
-0.029872
-0.0292003
-0.0284918
-0.0277466
-0.0269639
-0.0261419
-0.0252773
-0.0243647
-0.0233959
-0.0223588
-0.0212371
-0.0200102
-0.0186544
-0.0171488
-0.0154677
-0.0135785
-0.0115001
-0.00954736
-0.00769594
-0.00615571
-0.00528579
-0.00516693
-0.00567314
-0.00271782
-0.00308572
-0.0036355
-0.00421307
-0.00483796
-0.005565
-0.00642806
-0.00744577
-0.00861643
-0.00991952
-0.0113225
-0.0127888
-0.0142837
-0.0157773
-0.0172453
-0.0186696
-0.0200378
-0.0213422
-0.0225793
-0.0237483
-0.0248502
-0.0258872
-0.026862
-0.0277772
-0.0286355
-0.0294392
-0.0301902
-0.0308903
-0.0315406
-0.0321423
-0.032696
-0.0332024
-0.0336618
-0.0340746
-0.034441
-0.0347612
-0.0350352
-0.0352632
-0.0354454
-0.0355818
-0.0356725
-0.0357179
-0.0357181
-0.0356733
-0.0355839
-0.0354501
-0.0352723
-0.0350509
-0.0347864
-0.0344792
-0.0341298
-0.0337388
-0.0333069
-0.0328346
-0.0323227
-0.0317719
-0.0311832
-0.0305572
-0.0298947
-0.0291963
-0.0284624
-0.0276929
-0.0268867
-0.0260417
-0.0251539
-0.0242167
-0.0232199
-0.0221492
-0.0209853
-0.0197051
-0.0182875
-0.0167111
-0.0149348
-0.0129174
-0.0109664
-0.00915663
-0.00755495
-0.00651025
-0.0062756
-0.00686443
-0.0036694
-0.00401698
-0.00454689
-0.00511866
-0.00574707
-0.00648042
-0.00734913
-0.00836953
-0.00953858
-0.0108351
-0.0122264
-0.0136761
-0.0151501
-0.0166193
-0.0180605
-0.019457
-0.0207971
-0.0220744
-0.0232859
-0.0244312
-0.0255116
-0.0265294
-0.027487
-0.0283872
-0.0292324
-0.0300246
-0.0307657
-0.0314571
-0.0321001
-0.0326954
-0.0332438
-0.0337457
-0.0342015
-0.0346115
-0.0349757
-0.0352944
-0.0355677
-0.0357956
-0.0359783
-0.0361158
-0.0362084
-0.0362562
-0.0362594
-0.0362183
-0.036133
-0.036004
-0.0358314
-0.0356158
-0.0353574
-0.0350567
-0.0347142
-0.0343303
-0.0339058
-0.0334411
-0.032937
-0.0323943
-0.0318137
-0.0311962
-0.0305428
-0.0298542
-0.0291311
-0.028374
-0.0275827
-0.0267558
-0.0258907
-0.0249823
-0.0240223
-0.0229984
-0.0218931
-0.0206846
-0.0193501
-0.0178689
-0.016206
-0.0143213
-0.0123609
-0.0106016
-0.00899348
-0.00783287
-0.00752919
-0.00815733
-0.00462095
-0.00494644
-0.00545416
-0.00601744
-0.00664595
-0.00738158
-0.00825139
-0.00926947
-0.0104316
-0.0117163
-0.0130911
-0.01452
-0.0159696
-0.017412
-0.018825
-0.0201928
-0.0215049
-0.0227554
-0.0239421
-0.0250647
-0.0261247
-0.0271242
-0.0280659
-0.028952
-0.0297849
-0.0305664
-0.0312983
-0.0319818
-0.0326178
-0.0332073
-0.0337507
-0.0342485
-0.0347009
-0.0351081
-0.0354704
-0.0357877
-0.0360602
-0.036288
-0.0364711
-0.0366097
-0.0367039
-0.0367539
-0.0367598
-0.0367219
-0.0366405
-0.0365157
-0.036348
-0.0361375
-0.0358848
-0.0355902
-0.0352541
-0.034877
-0.0344595
-0.0340021
-0.0335055
-0.0329706
-0.0323981
-0.031789
-0.0311443
-0.0304652
-0.0297526
-0.0290074
-0.02823
-0.02742
-0.0265758
-0.0256938
-0.0247675
-0.0237865
-0.0227355
-0.0215944
-0.0203393
-0.0189492
-0.0173976
-0.0156503
-0.0137196
-0.0120068
-0.0104306
-0.00921135
-0.00886655
-0.00947593
-0.00555617
-0.00585836
-0.00634234
-0.00689485
-0.00752061
-0.00825521
-0.00912243
-0.0101342
-0.0112854
-0.0125542
-0.0139089
-0.0153142
-0.0167375
-0.0181518
-0.019536
-0.0208751
-0.0221597
-0.0233845
-0.0245474
-0.0256485
-0.0266892
-0.0276718
-0.0285984
-0.0294715
-0.030293
-0.0310646
-0.0317879
-0.032464
-0.0330937
-0.0336777
-0.0342165
-0.0347104
-0.0351596
-0.0355643
-0.0359247
-0.0362407
-0.0365124
-0.03674
-0.0369235
-0.037063
-0.0371586
-0.0372105
-0.0372189
-0.0371839
-0.0371059
-0.036985
-0.0368216
-0.036616
-0.0363685
-0.0360794
-0.0357493
-0.0353786
-0.0349677
-0.0345172
-0.0340279
-0.0335004
-0.0329357
-0.0323348
-0.0316987
-0.0310289
-0.0303264
-0.0295927
-0.0288285
-0.0280343
-0.0272094
-0.0263516
-0.025456
-0.0245141
-0.0235129
-0.0224337
-0.0212542
-0.0199536
-0.0185114
-0.0168853
-0.0150405
-0.0133489
-0.0118213
-0.0105886
-0.010194
-0.0107043
-0.00645949
-0.00673851
-0.0071978
-0.00773781
-0.00835855
-0.00908947
-0.00995124
-0.0109538
-0.0120912
-0.0133413
-0.0146734
-0.0160535
-0.0174496
-0.0188354
-0.0201911
-0.0215024
-0.0227606
-0.0239608
-0.0251013
-0.0261822
-0.0272051
-0.0281718
-0.0290846
-0.0299455
-0.0307565
-0.031519
-0.0322343
-0.0329035
-0.0335273
-0.0341063
-0.0346408
-0.0351311