/*--------------------------------*- C++ -*----------------------------------*\
  =========                 |
  \\      /  F ield         | OpenFOAM: The Open Source CFD Toolbox
   \\    /   O peration     | Website:  https://openfoam.org
    \\  /    A nd           | Version:  13
     \\/     M anipulation  |
\*---------------------------------------------------------------------------*/
FoamFile
{
    format      ascii;
    class       volVectorField;
    location    "8.5";
    object      U;
}
// * * * * * * * * * * * * * * * * * * * * * * * * * * * * * * * * * * * * * //

dimensions      [0 1 -1 0 0 0 0];

internalField   nonuniform List<vector> 
6400
(
(-0.00012803 8.43425e-05 0)
(0.000448046 -0.00017502 0)
(0.00211243 -0.000439943 0)
(0.00430816 -0.000556963 0)
(0.00648939 -0.000490406 0)
(0.00830459 -0.000326158 0)
(0.00950765 -0.000129251 0)
(0.0101049 1.77868e-05 0)
(0.0102239 7.14663e-05 0)
(0.0101117 4.90401e-05 0)
(0.00989012 -3.11409e-05 0)
(0.00973247 -0.000139773 0)
(0.00970091 -0.000252246 0)
(0.00979394 -0.000343209 0)
(0.00996176 -0.000416211 0)
(0.0101245 -0.000469238 0)
(0.0102067 -0.0005021 0)
(0.0101567 -0.00050301 0)
(0.00993066 -0.000482352 0)
(0.00943413 -0.000440422 0)
(0.00863176 -0.000391602 0)
(0.00746268 -0.000342106 0)
(0.00588632 -0.000295496 0)
(0.00387392 -0.000278437 0)
(0.00138843 -0.000328693 0)
(-0.00153439 -0.000444331 0)
(-0.00494262 -0.000480893 0)
(-0.00905977 -0.000282648 0)
(-0.0139928 0.000262515 0)
(-0.0197964 0.00115146 0)
(-0.027174 0.00219457 0)
(-0.0353588 0.00307479 0)
(-0.0442047 0.00378028 0)
(-0.0534026 0.00429952 0)
(-0.0626963 0.00463951 0)
(-0.0718519 0.00481558 0)
(-0.080685 0.00485265 0)
(-0.0890417 0.00477415 0)
(-0.0968069 0.00460247 0)
(-0.103883 0.00435529 0)
(-0.110194 0.00404428 0)
(-0.115681 0.00367791 0)
(-0.120299 0.00325826 0)
(-0.124024 0.0027895 0)
(-0.126832 0.00228601 0)
(-0.128507 0.00181366 0)
(-0.129201 0.0013824 0)
(-0.129055 0.000657167 0)
(-0.12751 0.000107405 0)
(-0.125048 -0.000581763 0)
(-0.121299 -0.0012175 0)
(-0.116474 -0.00188422 0)
(-0.110437 -0.00251916 0)
(-0.103302 -0.00314189 0)
(-0.0950974 -0.00374762 0)
(-0.0859164 -0.00432871 0)
(-0.0757781 -0.00483472 0)
(-0.0648754 -0.00526352 0)
(-0.053362 -0.00558245 0)
(-0.0414522 -0.00575914 0)
(-0.029387 -0.00575742 0)
(-0.0174498 -0.00556524 0)
(-0.00587191 -0.00518081 0)
(0.00488295 -0.00467513 0)
(0.0144946 -0.00391029 0)
(0.0227725 -0.00297488 0)
(0.0293894 -0.00191275 0)
(0.0340671 -0.000763253 0)
(0.0368288 0.000394538 0)
(0.0370654 0.00160398 0)
(0.035625 0.00226707 0)
(0.0320666 0.00284969 0)
(0.0267734 0.0030464 0)
(0.0206441 0.0027467 0)
(0.0144488 0.00204996 0)
(0.00899169 0.00121146 0)
(0.00471513 0.000527209 0)
(0.00177169 0.000120534 0)
(0.00014506 -0.000168764 0)
(-0.000236721 -0.000344992 0)
(1.52992e-05 -0.000385512 0)
(0.00183309 -0.00212546 0)
(0.00528966 -0.00357338 0)
(0.00913883 -0.00405768 0)
(0.0126799 -0.00366479 0)
(0.0154954 -0.00278156 0)
(0.0174081 -0.00170664 0)
(0.0184476 -0.000731001 0)
(0.0187382 -4.01152e-05 0)
(0.0184445 0.000336192 0)
(0.0177655 0.000440042 0)
(0.0168711 0.00035525 0)
(0.0158475 0.000204833 0)
(0.0146864 0.000102291 0)
(0.0133151 0.000111327 0)
(0.0116309 0.000244628 0)
(0.00954918 0.000480373 0)
(0.00700019 0.00080553 0)
(0.00387104 0.00123516 0)
(5.54743e-05 0.00177936 0)
(-0.00455632 0.00244277 0)
(-0.0102055 0.00324483 0)
(-0.0169656 0.00414704 0)
(-0.0249089 0.00514315 0)
(-0.0340812 0.00625022 0)
(-0.0445864 0.0074747 0)
(-0.0563013 0.00884021 0)
(-0.0688753 0.010345 0)
(-0.0819214 0.0119235 0)
(-0.0949057 0.0133962 0)
(-0.107334 0.0144752 0)
(-0.119392 0.0151343 0)
(-0.130794 0.0153825 0)
(-0.141463 0.0152485 0)
(-0.151302 0.0148026 0)
(-0.160245 0.0140959 0)
(-0.168253 0.0131848 0)
(-0.175293 0.0121136 0)
(-0.181352 0.01092 0)
(-0.186417 0.00963198 0)
(-0.190472 0.00826654 0)
(-0.193519 0.00684018 0)
(-0.195545 0.00535948 0)
(-0.196552 0.00383536 0)
(-0.196525 0.00227714 0)
(-0.195431 0.000696849 0)
(-0.193283 -0.000929074 0)
(-0.19008 -0.00264433 0)
(-0.185754 -0.00438968 0)
(-0.180374 -0.00617362 0)
(-0.173865 -0.00797304 0)
(-0.166269 -0.00977359 0)
(-0.157552 -0.011552 0)
(-0.147746 -0.0132777 0)
(-0.136856 -0.0149168 0)
(-0.124967 -0.0164185 0)
(-0.112189 -0.0177486 0)
(-0.0986226 -0.0188448 0)
(-0.0844474 -0.0196387 0)
(-0.0698784 -0.0200794 0)
(-0.0551271 -0.0201006 0)
(-0.0404523 -0.0196626 0)
(-0.0261364 -0.0187429 0)
(-0.0124954 -0.0173609 0)
(0.000190042 -0.0154543 0)
(0.0116591 -0.0130836 0)
(0.0216338 -0.0102932 0)
(0.0298725 -0.00718576 0)
(0.0362092 -0.00384119 0)
(0.0404632 -0.000444304 0)
(0.0426219 0.00276158 0)
(0.0425559 0.00570814 0)
(0.0403572 0.00812526 0)
(0.0362447 0.00968528 0)
(0.0302712 0.00989565 0)
(0.0229186 0.00894961 0)
(0.0151967 0.00710617 0)
(0.00821646 0.00479475 0)
(0.00305825 0.00231777 0)
(0.000226046 0.000276167 0)
(0.000206835 -0.00165151 0)
(0.0032408 -0.00545424 0)
(0.00755563 -0.00770721 0)
(0.0115787 -0.00796873 0)
(0.0148745 -0.0068476 0)
(0.017236 -0.00501613 0)
(0.018693 -0.00305075 0)
(0.0193061 -0.0012796 0)
(0.0191521 0.000114967 0)
(0.0183361 0.00105082 0)
(0.017003 0.00156129 0)
(0.0152287 0.00179256 0)
(0.0130287 0.00194187 0)
(0.0103645 0.00218467 0)
(0.00714484 0.00262963 0)
(0.00327128 0.00330016 0)
(-0.00138545 0.00418924 0)
(-0.00698263 0.00530698 0)
(-0.0136475 0.00667737 0)
(-0.0215001 0.0083342 0)
(-0.0306232 0.010281 0)
(-0.0409849 0.0124522 0)
(-0.0525652 0.0147669 0)
(-0.0652107 0.0171037 0)
(-0.078663 0.0193348 0)
(-0.0926152 0.0213695 0)
(-0.106696 0.0231098 0)
(-0.120589 0.0244946 0)
(-0.133956 0.025467 0)
(-0.146545 0.0260056 0)
(-0.158198 0.0261034 0)
(-0.168867 0.025761 0)
(-0.178491 0.0250252 0)
(-0.187135 0.0239323 0)
(-0.194797 0.0225304 0)
(-0.201515 0.0208893 0)
(-0.207312 0.0190562 0)
(-0.212214 0.0170753 0)
(-0.216229 0.0149772 0)
(-0.219375 0.0127975 0)
(-0.221657 0.0105447 0)
(-0.223076 0.00823212 0)
(-0.22363 0.00586701 0)
(-0.223313 0.00344865 0)
(-0.22211 0.000978955 0)
(-0.220007 -0.00154819 0)
(-0.216969 -0.00414652 0)
(-0.212986 -0.00681162 0)
(-0.20803 -0.00951146 0)
(-0.20209 -0.0122607 0)
(-0.195135 -0.0150334 0)
(-0.18716 -0.0178137 0)
(-0.178152 -0.0205687 0)
(-0.16812 -0.0232566 0)
(-0.157083 -0.025819 0)
(-0.145089 -0.0281859 0)
(-0.132219 -0.0302884 0)
(-0.118565 -0.0320315 0)
(-0.10425 -0.0333218 0)
(-0.0894652 -0.0340668 0)
(-0.0744266 -0.0341776 0)
(-0.0593652 -0.0335792 0)
(-0.0445678 -0.0322423 0)
(-0.0303365 -0.0301703 0)
(-0.0169408 -0.0273552 0)
(-0.0046101 -0.0238357 0)
(0.00639887 -0.0196831 0)
(0.0158717 -0.0150159 0)
(0.0236767 -0.00998542 0)
(0.0296941 -0.00477572 0)
(0.0338981 0.000389639 0)
(0.0362561 0.0052809 0)
(0.0366335 0.00954952 0)
(0.0349486 0.0129184 0)
(0.0315131 0.0151718 0)
(0.0263965 0.015708 0)
(0.0197897 0.0146156 0)
(0.0125895 0.0119734 0)
(0.00588177 0.00791321 0)
(0.000784076 0.00293606 0)
(0.000432521 -0.00363544 0)
(0.00432174 -0.00963239 0)
(0.00872867 -0.0119742 0)
(0.012253 -0.0114327 0)
(0.0147819 -0.00930803 0)
(0.0163148 -0.0065438 0)
(0.0169551 -0.00371545 0)
(0.0167964 -0.00116605 0)
(0.0159192 0.000906976 0)
(0.0143795 0.00243629 0)
(0.0121748 0.0035071 0)
(0.00928118 0.00431118 0)
(0.00564665 0.00508429 0)
(0.00120015 0.00603026 0)
(-0.00413147 0.00726854 0)
(-0.0104508 0.00885053 0)
(-0.0178784 0.0107913 0)
(-0.0265321 0.013094 0)
(-0.0364891 0.0157473 0)
(-0.0477574 0.0187142 0)
(-0.060243 0.0218963 0)
(-0.0737378 0.0251428 0)
(-0.087946 0.028275 0)
(-0.102496 0.0311261 0)
(-0.117091 0.0336002 0)
(-0.131385 0.0355111 0)
(-0.145087 0.0367707 0)
(-0.157923 0.0374018 0)
(-0.169739 0.0374665 0)
(-0.180501 0.0370153 0)
(-0.190189 0.0361043 0)
(-0.198864 0.0347728 0)
(-0.206568 0.0330619 0)
(-0.213371 0.031041 0)
(-0.219315 0.0287577 0)
(-0.224461 0.0262664 0)
(-0.228838 0.0236083 0)
(-0.232476 0.0208254 0)
(-0.235393 0.0179404 0)
(-0.237598 0.0149738 0)
(-0.239096 0.0119364 0)
(-0.239879 0.00883387 0)
(-0.23994 0.00566616 0)
(-0.239263 0.00243134 0)
(-0.23783 -0.000872589 0)
(-0.235613 -0.00425411 0)
(-0.232582 -0.00771509 0)
(-0.228712 -0.0112682 0)
(-0.223969 -0.0148964 0)
(-0.218323 -0.0185936 0)
(-0.211745 -0.0223385 0)
(-0.20421 -0.0261085 0)
(-0.195695 -0.0298648 0)
(-0.186186 -0.0335523 0)
(-0.175681 -0.0370914 0)
(-0.164197 -0.0403859 0)
(-0.151784 -0.043341 0)
(-0.138518 -0.0458412 0)
(-0.124496 -0.0477457 0)
(-0.109856 -0.0489147 0)
(-0.0947967 -0.0492307 0)
(-0.0795295 -0.0485808 0)
(-0.0643189 -0.0468978 0)
(-0.0494834 -0.0441525 0)
(-0.0353676 -0.0404174 0)
(-0.022221 -0.0357493 0)
(-0.0102798 -0.0302381 0)
(0.00023904 -0.0240395 0)
(0.00918163 -0.0173685 0)
(0.0164391 -0.0104634 0)
(0.021963 -0.00357098 0)
(0.0257659 0.00308092 0)
(0.0278966 0.00918439 0)
(0.0283545 0.0143308 0)
(0.0270106 0.0181759 0)
(0.0239059 0.0204145 0)
(0.0192099 0.020607 0)
(0.0133278 0.018607 0)
(0.00693783 0.0142236 0)
(0.00107632 0.00671971 0)
(0.000718281 -0.00618435 0)
(0.00500322 -0.0140405 0)
(0.00887263 -0.0157621 0)
(0.0115148 -0.0140907 0)
(0.0130747 -0.0108669 0)
(0.0136295 -0.00715347 0)
(0.0133283 -0.00349938 0)
(0.0122571 -0.000210371 0)
(0.0104521 0.00256105 0)
(0.00789881 0.00480361 0)
(0.00453221 0.00663668 0)
(0.000263205 0.00827646 0)
(-0.00500114 0.00996922 0)
(-0.0113487 0.0119203 0)
(-0.0188609 0.0142591 0)
(-0.027615 0.0170425 0)
(-0.0376684 0.0202751 0)
(-0.0490367 0.0239193 0)
(-0.0616496 0.0278721 0)
(-0.0753236 0.0319833 0)
(-0.0897606 0.0360245 0)
(-0.104602 0.0397982 0)
(-0.119488 0.043163 0)
(-0.13411 0.0458433 0)
(-0.148088 0.0477176 0)
(-0.161112 0.0488049 0)
(-0.173101 0.0491288 0)
(-0.184004 0.0487509 0)
(-0.193871 0.0477752 0)
(-0.202745 0.0462957 0)
(-0.21069 0.0443943 0)
(-0.217792 0.0421372 0)
(-0.224098 0.0395752 0)
(-0.229667 0.0367602 0)
(-0.234548 0.0337346 0)
(-0.238784 0.0305387 0)
(-0.242398 0.0272066 0)
(-0.245414 0.0237676 0)
(-0.247844 0.020236 0)
(-0.249691 0.0166256 0)
(-0.250954 0.0129398 0)
(-0.251622 0.0091799 0)
(-0.251685 0.00533719 0)
(-0.251122 0.00140622 0)
(-0.249919 -0.0026164 0)
(-0.248039 -0.0067435 0)
(-0.245451 -0.0109827 0)
(-0.242121 -0.0153419 0)
(-0.238019 -0.0198203 0)
(-0.233092 -0.0244033 0)
(-0.227301 -0.0290707 0)
(-0.220606 -0.033798 0)
(-0.212967 -0.0385403 0)
(-0.204348 -0.0432339 0)
(-0.194725 -0.047785 0)
(-0.184077 -0.0520702 0)
(-0.172424 -0.0559726 0)
(-0.15981 -0.0593491 0)
(-0.146299 -0.0620176 0)
(-0.131997 -0.0638015 0)
(-0.117066 -0.0645441 0)
(-0.101693 -0.0640723 0)
(-0.0861351 -0.0622816 0)
(-0.0706385 -0.0591084 0)
(-0.0555812 -0.0545882 0)
(-0.0413703 -0.0488524 0)
(-0.0282575 -0.0420371 0)
(-0.0164754 -0.0343501 0)
(-0.00622675 -0.0260494 0)
(0.00234671 -0.0174373 0)
(0.00917828 -0.0088243 0)
(0.014281 -0.000500656 0)
(0.0177235 0.00723036 0)
(0.0195768 0.0140425 0)
(0.0198549 0.01957 0)
(0.0185629 0.0233633 0)
(0.0157092 0.0249725 0)
(0.0115045 0.0240795 0)
(0.006311 0.0200717 0)
(0.000949845 0.010534 0)
(0.0010337 -0.00913084 0)
(0.00518898 -0.018077 0)
(0.00808766 -0.0185689 0)
(0.00959901 -0.0156998 0)
(0.0100848 -0.0113778 0)
(0.00960351 -0.00676262 0)
(0.00829955 -0.00231172 0)
(0.00621617 0.00173353 0)
(0.00333478 0.00527999 0)
(-0.000414854 0.00836627 0)
(-0.00514 0.0111458 0)
(-0.0109559 0.0138442 0)
(-0.017964 0.0166971 0)
(-0.0262438 0.0198923 0)
(-0.0358479 0.0235396 0)
(-0.0467877 0.0276607 0)
(-0.0590122 0.0321967 0)
(-0.0723879 0.0370443 0)
(-0.0866809 0.0419698 0)
(-0.101522 0.0467168 0)
(-0.116562 0.0511133 0)
(-0.131448 0.0548107 0)
(-0.145723 0.0576205 0)
(-0.159037 0.0594865 0)
(-0.171257 0.0603735 0)
(-0.182394 0.0603728 0)
(-0.1925 0.0596128 0)
(-0.201644 0.0582224 0)
(-0.209914 0.0563133 0)
(-0.217367 0.0539723 0)
(-0.224074 0.0512759 0)
(-0.230091 0.0482782 0)
(-0.235464 0.0450303 0)
(-0.240242 0.0415756 0)
(-0.244461 0.0379479 0)
(-0.248147 0.0341766 0)
(-0.251316 0.0302868 0)
(-0.253983 0.0263055 0)
(-0.256159 0.0222399 0)
(-0.257846 0.0180963 0)
(-0.259043 0.0138736 0)
(-0.259744 0.00956883 0)
(-0.259947 0.00516435 0)
(-0.259635 0.000645745 0)
(-0.258817 -0.00400656 0)
(-0.257452 -0.00880503 0)
(-0.255503 -0.0137511 0)
(-0.252928 -0.0188465 0)
(-0.249686 -0.0240976 0)
(-0.245735 -0.0294991 0)
(-0.241002 -0.0350234 0)
(-0.235426 -0.0406416 0)
(-0.228932 -0.0462971 0)
(-0.221461 -0.0519274 0)
(-0.21303 -0.0574856 0)
(-0.203546 -0.0628144 0)
(-0.192955 -0.0677462 0)
(-0.181283 -0.0721212 0)
(-0.168559 -0.0757179 0)
(-0.154821 -0.0783143 0)
(-0.14023 -0.0797152 0)
(-0.124905 -0.0796878 0)
(-0.109107 -0.0781069 0)
(-0.093083 -0.0748098 0)
(-0.0771369 -0.0697867 0)
(-0.0616952 -0.0631515 0)
(-0.0472071 -0.0551638 0)
(-0.0339366 -0.0460565 0)
(-0.0221454 -0.0361423 0)
(-0.0120374 -0.0257971 0)
(-0.00373214 -0.0154153 0)
(0.00275079 -0.00537321 0)
(0.00748142 0.00398925 0)
(0.0105894 0.012348 0)
(0.0121875 0.0193816 0)
(0.0123305 0.0246589 0)
(0.0110256 0.0276979 0)
(0.00837031 0.0280265 0)
(0.00470768 0.0247214 0)
(0.00057766 0.0136927 0)
(0.00128653 -0.0122172 0)
(0.00481883 -0.0212278 0)
(0.00640156 -0.020271 0)
(0.00679015 -0.0161076 0)
(0.00611638 -0.010791 0)
(0.00456529 -0.0053258 0)
(0.00220251 -7.67423e-05 0)
(-0.00098228 0.00478205 0)
(-0.0050563 0.00921117 0)
(-0.0101247 0.0132868 0)
(-0.0163078 0.0171774 0)
(-0.0237168 0.0210997 0)
(-0.0324351 0.0252613 0)
(-0.0425048 0.0298115 0)
(-0.053914 0.034808 0)
(-0.066568 0.0402036 0)
(-0.080314 0.0458568 0)
(-0.094845 0.0515176 0)
(-0.109771 0.0569646 0)
(-0.124756 0.0618284 0)
(-0.13933 0.0658338 0)
(-0.153014 0.0687819 0)
(-0.165616 0.0705945 0)
(-0.17711 0.0713267 0)
(-0.187562 0.0711208 0)
(-0.197044 0.0701152 0)
(-0.205645 0.0684409 0)
(-0.213447 0.0662195 0)
(-0.220525 0.063548 0)
(-0.226928 0.0605069 0)
(-0.23271 0.0571615 0)
(-0.237909 0.0535591 0)
(-0.242564 0.0497437 0)
(-0.246708 0.0457509 0)
(-0.250369 0.0416115 0)
(-0.253565 0.0373524 0)
(-0.256309 0.0329994 0)
(-0.258608 0.0285718 0)
(-0.260476 0.0240711 0)
(-0.261913 0.0195018 0)
(-0.262954 0.0147988 0)
(-0.263575 0.0100352 0)
(-0.26377 0.0051721 0)
(-0.263522 0.000198336 0)
(-0.262825 -0.00491834 0)
(-0.261716 -0.0101834 0)
(-0.260171 -0.0156288 0)
(-0.258195 -0.0212835 0)
(-0.255754 -0.027177 0)
(-0.252833 -0.0333107 0)
(-0.249355 -0.0396305 0)
(-0.245242 -0.0461295 0)
(-0.240407 -0.0527684 0)
(-0.234741 -0.0594759 0)
(-0.228052 -0.0661119 0)
(-0.220236 -0.072516 0)
(-0.21116 -0.0784959 0)
(-0.200862 -0.0839301 0)
(-0.189416 -0.0886403 0)
(-0.176683 -0.0922689 0)
(-0.162848 -0.0946039 0)
(-0.147926 -0.0953139 0)
(-0.132201 -0.0942388 0)
(-0.115854 -0.0911619 0)
(-0.099232 -0.0860119 0)
(-0.0826571 -0.0788022 0)
(-0.0666771 -0.0698021 0)
(-0.0517845 -0.0593831 0)
(-0.0382608 -0.0478906 0)
(-0.0263942 -0.0357719 0)
(-0.0163902 -0.0235215 0)
(-0.00834187 -0.0116282 0)
(-0.00222335 -0.000526008 0)
(0.00212228 0.00942894 0)
(0.00489267 0.0179268 0)
(0.00622772 0.0246 0)
(0.00621495 0.0289959 0)
(0.0049176 0.0305011 0)
(0.00272544 0.0279026 0)
(0.000112939 0.0157085 0)
(0.00138457 -0.0150959 0)
(0.00378847 -0.0232227 0)
(0.00413009 -0.0207237 0)
(0.00327213 -0.0152944 0)
(0.00144664 -0.00908842 0)
(-0.00120234 -0.00280429 0)
(-0.004675 0.00327295 0)
(-0.00902896 0.00902335 0)
(-0.0143636 0.0144438 0)
(-0.0207934 0.019629 0)
(-0.0284281 0.024744 0)
(-0.037353 0.0299786 0)
(-0.0476089 0.035494 0)
(-0.0591767 0.0413731 0)
(-0.071958 0.0476064 0)
(-0.0857672 0.0540433 0)
(-0.100261 0.0604248 0)
(-0.115081 0.0664745 0)
(-0.12978 0.0718127 0)
(-0.143863 0.0761326 0)
(-0.156949 0.0792145 0)
(-0.168943 0.0810496 0)
(-0.179863 0.081747 0)
(-0.189771 0.0814567 0)
(-0.198758 0.080316 0)
(-0.206912 0.078467 0)
(-0.21432 0.076031 0)
(-0.221044 0.0731148 0)
(-0.227137 0.0698009 0)
(-0.232635 0.0661604 0)
(-0.237576 0.0622508 0)
(-0.24199 0.0581187 0)
(-0.245906 0.0538059 0)
(-0.249342 0.04935 0)
(-0.252315 0.0447892 0)
(-0.254827 0.0401568 0)
(-0.256996 0.0353772 0)
(-0.258813 0.0305197 0)
(-0.260287 0.0255834 0)
(-0.261416 0.020569 0)
(-0.26219 0.0155255 0)
(-0.26262 0.0103718 0)
(-0.262707 0.00512088 0)
(-0.262461 -0.000251201 0)
(-0.261874 -0.00575941 0)
(-0.260969 -0.01141 0)
(-0.259734 -0.0172324 0)
(-0.258162 -0.0232384 0)
(-0.256232 -0.0294362 0)
(-0.253919 -0.0358649 0)
(-0.251215 -0.0425969 0)
(-0.248087 -0.0496107 0)
(-0.244497 -0.0568931 0)
(-0.240384 -0.0644145 0)
(-0.235669 -0.0721417 0)
(-0.230235 -0.0798758 0)
(-0.223803 -0.0873646 0)
(-0.216041 -0.0943127 0)
(-0.206621 -0.100283 0)
(-0.195561 -0.105079 0)
(-0.18319 -0.10866 0)
(-0.169302 -0.110463 0)
(-0.1542 -0.110305 0)
(-0.138012 -0.107864 0)
(-0.121086 -0.103022 0)
(-0.103728 -0.0957146 0)
(-0.0863871 -0.0860279 0)
(-0.069773 -0.0744499 0)
(-0.0544007 -0.0614852 0)
(-0.0405925 -0.0475972 0)
(-0.0286625 -0.0333821 0)
(-0.0188123 -0.0194598 0)
(-0.0110974 -0.00640566 0)
(-0.00540965 0.00531785 0)
(-0.00151629 0.015351 0)
(0.000858085 0.0234024 0)
(0.00191587 0.0290632 0)
(0.00180725 0.0316634 0)
(0.000864229 0.0295891 0)
(-0.000264277 0.016498 0)
(0.00128818 -0.0174654 0)
(0.00233627 -0.0239201 0)
(0.00136296 -0.0198122 0)
(-0.000724914 -0.0133198 0)
(-0.00368641 -0.00626805 0)
(-0.00745114 0.000835506 0)
(-0.0120641 0.00778523 0)
(-0.0176161 0.0145005 0)
(-0.024216 0.0209957 0)
(-0.0319671 0.027364 0)
(-0.0409511 0.033748 0)
(-0.0512089 0.0402933 0)
(-0.0627188 0.0470939 0)
(-0.0754041 0.0541667 0)
(-0.0890687 0.0613847 0)
(-0.103342 0.0684849 0)
(-0.117874 0.0751318 0)
(-0.132191 0.0809611 0)
(-0.145753 0.085618 0)
(-0.158335 0.0889361 0)
(-0.169833 0.090914 0)
(-0.180275 0.0916946 0)
(-0.189731 0.0914076 0)
(-0.198296 0.0902201 0)
(-0.206055 0.088269 0)
(-0.213086 0.0856885 0)
(-0.219449 0.0825827 0)
(-0.225187 0.0790438 0)
(-0.230339 0.0751452 0)
(-0.234933 0.0709529 0)
(-0.239002 0.0665212 0)
(-0.242572 0.0618982 0)
(-0.245668 0.0571271 0)
(-0.248338 0.0522225 0)
(-0.250643 0.047203 0)
(-0.252603 0.0420944 0)
(-0.254186 0.0369762 0)
(-0.255401 0.0318012 0)
(-0.256266 0.0265683 0)
(-0.256803 0.0212736 0)
(-0.257057 0.0159139 0)
(-0.257057 0.0104703 0)
(-0.256829 0.00493885 0)
(-0.2564 -0.000702031 0)
(-0.255782 -0.00646798 0)
(-0.25494 -0.0123913 0)
(-0.253902 -0.0185018 0)
(-0.252661 -0.0248283 0)
(-0.251215 -0.0313953 0)
(-0.249553 -0.0382205 0)
(-0.24766 -0.0453147 0)
(-0.245501 -0.0526813 0)
(-0.24303 -0.0603102 0)
(-0.240185 -0.0681629 0)
(-0.236871 -0.0761655 0)
(-0.232999 -0.0843988 0)
(-0.228552 -0.0928172 0)
(-0.223345 -0.101192 0)
(-0.217132 -0.109121 0)
(-0.209441 -0.116076 0)
(-0.199501 -0.121235 0)
(-0.18753 -0.124451 0)
(-0.173892 -0.125673 0)
(-0.158581 -0.124376 0)
(-0.141956 -0.120364 0)
(-0.124363 -0.113512 0)
(-0.106137 -0.103739 0)
(-0.0879321 -0.091348 0)
(-0.0705976 -0.0770304 0)
(-0.0547167 -0.0614619 0)
(-0.0406531 -0.0452409 0)
(-0.0287425 -0.0291256 0)
(-0.0191667 -0.0138594 0)
(-0.0119171 -8.63151e-05 0)
(-0.00678767 0.0117106 0)
(-0.003423 0.0212213 0)
(-0.00146849 0.0281073 0)
(-0.000605517 0.0316364 0)
(-0.000453259 0.0299884 0)
(-0.000379877 0.0163599 0)
(0.00103646 -0.0187885 0)
(0.000603073 -0.0232102 0)
(-0.001709 -0.0175999 0)
(-0.00497357 -0.0101811 0)
(-0.00906204 -0.00232337 0)
(-0.013947 0.0056096 0)
(-0.0197004 0.0134704 0)
(-0.0264289 0.0212006 0)
(-0.0342332 0.0288119 0)
(-0.0431905 0.0363767 0)
(-0.0533406 0.043998 0)
(-0.0646651 0.0517597 0)
(-0.077103 0.0596959 0)
(-0.0904812 0.06771 0)
(-0.104433 0.0755319 0)
(-0.118569 0.0828177 0)
(-0.13244 0.0891929 0)
(-0.145564 0.094283 0)
(-0.157709 0.097942 0)
(-0.168797 0.100195 0)
(-0.17883 0.101138 0)
(-0.187898 0.100946 0)
(-0.196083 0.0997794 0)
(-0.203472 0.097795 0)
(-0.21013 0.0951199 0)
(-0.216113 0.0918707 0)
(-0.221458 0.0881388 0)
(-0.226203 0.0840083 0)
(-0.230379 0.0795494 0)
(-0.23402 0.0748259 0)
(-0.23716 0.0698921 0)
(-0.239836 0.0647951 0)
(-0.242087 0.0595738 0)
(-0.243935 0.0542728 0)
(-0.245388 0.0489154 0)
(-0.246497 0.0435003 0)
(-0.247271 0.0380474 0)
(-0.247774 0.032551 0)
(-0.248043 0.0270258 0)
(-0.248122 0.0214723 0)
(-0.248004 0.0158861 0)
(-0.247715 0.0102468 0)
(-0.247271 0.00453984 0)
(-0.246689 -0.00125888 0)
(-0.245972 -0.00717102 0)
(-0.245128 -0.0132322 0)
(-0.244177 -0.0194687 0)
(-0.243125 -0.0259137 0)
(-0.241983 -0.0325986 0)
(-0.24075 -0.0395569 0)
(-0.239428 -0.0468189 0)
(-0.238006 -0.0544082 0)
(-0.236463 -0.0623388 0)
(-0.234756 -0.0706022 0)
(-0.232814 -0.0791555 0)
(-0.230546 -0.0879146 0)
(-0.227836 -0.0967637 0)
(-0.224509 -0.105538 0)
(-0.220386 -0.114281 0)
(-0.215392 -0.122801 0)
(-0.209118 -0.130471 0)
(-0.200938 -0.136443 0)
(-0.189845 -0.139537 0)
(-0.176445 -0.139948 0)
(-0.160974 -0.137355 0)
(-0.143881 -0.131602 0)
(-0.125475 -0.122442 0)
(-0.10629 -0.109968 0)
(-0.0871302 -0.0946672 0)
(-0.0690302 -0.0774906 0)
(-0.0526679 -0.0593172 0)
(-0.0384472 -0.0409055 0)
(-0.0267087 -0.0231861 0)
(-0.0175853 -0.00701736 0)
(-0.0109739 0.00690388 0)
(-0.00652182 0.0181196 0)
(-0.00372205 0.026308 0)
(-0.00212482 0.030629 0)
(-0.00114101 0.0294261 0)
(-0.00035353 0.0157727 0)
(0.000713203 -0.0191233 0)
(-0.0013084 -0.0210905 0)
(-0.00488732 -0.0141621 0)
(-0.00929046 -0.00589021 0)
(-0.0144891 0.00273968 0)
(-0.0204688 0.0115028 0)
(-0.0273223 0.0202933 0)
(-0.0351545 0.0290527 0)
(-0.0440449 0.0377706 0)
(-0.0540339 0.0464819 0)
(-0.0651087 0.0552354 0)
(-0.077221 0.0640636 0)
(-0.0902255 0.0728989 0)
(-0.103787 0.0814783 0)
(-0.117498 0.089447 0)
(-0.130924 0.096431 0)
(-0.14366 0.10208 0)
(-0.15544 0.106209 0)
(-0.166174 0.108831 0)
(-0.175867 0.110046 0)
(-0.18459 0.110028 0)
(-0.192433 0.108959 0)
(-0.199465 0.106994 0)
(-0.20575 0.104273 0)
(-0.211333 0.100912 0)
(-0.216253 0.0970158 0)
(-0.220544 0.092671 0)
(-0.224241 0.087961 0)
(-0.227385 0.0829581 0)
(-0.230016 0.0777284 0)
(-0.232177 0.0723281 0)
(-0.233912 0.066805 0)
(-0.235265 0.0611967 0)
(-0.236274 0.0555341 0)
(-0.236981 0.0498388 0)
(-0.237432 0.0441262 0)
(-0.237658 0.0384142 0)
(-0.237695 0.0327044 0)
(-0.237564 0.0269958 0)
(-0.237288 0.0212797 0)
(-0.236877 0.0155454 0)
(-0.236351 0.00977459 0)
(-0.235722 0.00394887 0)
(-0.235005 -0.00195462 0)
(-0.234209 -0.00795875 0)
(-0.233346 -0.0140963 0)
(-0.232435 -0.0203953 0)
(-0.231488 -0.0268883 0)
(-0.23052 -0.0336077 0)
(-0.229544 -0.0405884 0)
(-0.228572 -0.0478645 0)
(-0.227613 -0.0554679 0)
(-0.226666 -0.0634257 0)
(-0.225719 -0.0717565 0)
(-0.224737 -0.0804666 0)
(-0.223664 -0.0895421 0)
(-0.222407 -0.0989173 0)
(-0.220823 -0.108453 0)
(-0.218727 -0.117926 0)
(-0.215876 -0.127066 0)
(-0.211949 -0.135727 0)
(-0.20682 -0.143803 0)
(-0.199889 -0.150172 0)
(-0.190099 -0.153581 0)
(-0.176953 -0.153061 0)
(-0.161385 -0.149156 0)
(-0.143673 -0.141384 0)
(-0.124344 -0.129678 0)
(-0.104107 -0.114271 0)
(-0.0839502 -0.0958771 0)
(-0.0651134 -0.0757679 0)
(-0.0483808 -0.0550587 0)
(-0.0341895 -0.0347042 0)
(-0.02285 -0.0158099 0)
(-0.0144073 0.000662262 0)
(-0.00861163 0.014002 0)
(-0.00488218 0.0237521 0)
(-0.00269699 0.0289372 0)
(-0.0012108 0.0282792 0)
(-0.000180247 0.0149701 0)
(0.000126806 -0.0182738 0)
(-0.00331164 -0.0176279 0)
(-0.00804867 -0.00951587 0)
(-0.0135366 -0.000485333 0)
(-0.0197968 0.00888029 0)
(-0.0268125 0.0184616 0)
(-0.0346831 0.028173 0)
(-0.0435015 0.0379352 0)
(-0.0533166 0.0476994 0)
(-0.0641238 0.0574506 0)
(-0.0758839 0.0671919 0)
(-0.088479 0.0768728 0)
(-0.101616 0.0862465 0)
(-0.114898 0.094959 0)
(-0.127912 0.102635 0)
(-0.140299 0.108946 0)
(-0.151781 0.113676 0)
(-0.16222 0.116777 0)
(-0.171627 0.118368 0)
(-0.180056 0.118616 0)
(-0.187587 0.117713 0)
(-0.194289 0.115828 0)
(-0.200214 0.113103 0)
(-0.205406 0.109666 0)
(-0.209902 0.105627 0)
(-0.21374 0.101086 0)
(-0.216964 0.0961368 0)
(-0.219622 0.0908649 0)
(-0.221769 0.0853468 0)
(-0.223458 0.0796505 0)
(-0.224744 0.0738328 0)
(-0.22568 0.0679401 0)
(-0.226316 0.062008 0)
(-0.226697 0.0560647 0)
(-0.226865 0.0501302 0)
(-0.226854 0.0442183 0)
(-0.22669 0.0383367 0)
(-0.226396 0.032481 0)
(-0.225988 0.0266455 0)
(-0.225478 0.0208181 0)
(-0.224881 0.0149847 0)
(-0.224207 0.00912774 0)
(-0.223467 0.00322765 0)
(-0.222672 -0.00273765 0)
(-0.221832 -0.00879193 0)
(-0.220961 -0.0149642 0)
(-0.220073 -0.0212827 0)
(-0.219185 -0.0277787 0)
(-0.218313 -0.0344845 0)
(-0.217477 -0.0414346 0)
(-0.216697 -0.0486639 0)
(-0.21599 -0.0562067 0)
(-0.215371 -0.0640948 0)
(-0.21485 -0.0723558 0)
(-0.214423 -0.0810111 0)
(-0.214072 -0.0900717 0)
(-0.21375 -0.0995269 0)
(-0.213371 -0.109332 0)
(-0.212795 -0.119387 0)
(-0.211813 -0.129474 0)
(-0.210142 -0.139232 0)
(-0.207415 -0.148214 0)
(-0.203203 -0.156288 0)
(-0.197189 -0.162869 0)
(-0.188379 -0.16631 0)
(-0.175574 -0.165043 0)
(-0.159785 -0.159624 0)
(-0.14131 -0.14959 0)
(-0.120941 -0.135065 0)
(-0.0995809 -0.116474 0)
(-0.0784603 -0.0948279 0)
(-0.0590192 -0.0717715 0)
(-0.0421457 -0.0487043 0)
(-0.0282772 -0.0268073 0)
(-0.017643 -0.00736622 0)
(-0.0101487 0.00860668 0)
(-0.00527657 0.0203712 0)
(-0.00247094 0.0268329 0)
(-0.000783948 0.0269803 0)
(7.61276e-05 0.0144109 0)
(-0.000459391 -0.016168 0)
(-0.00526675 -0.0128686 0)
(-0.011073 -0.003745 0)
(-0.0175775 0.00596423 0)
(-0.0248249 0.0160245 0)
(-0.032787 0.0263962 0)
(-0.0415604 0.0369902 0)
(-0.0512173 0.0476902 0)
(-0.0617699 0.0583976 0)
(-0.0731869 0.069052 0)
(-0.0853727 0.0795919 0)
(-0.0980803 0.0897856 0)
(-0.110946 0.099298 0)
(-0.123587 0.107751 0)
(-0.135666 0.114821 0)
(-0.146905 0.120268 0)
(-0.157121 0.123982 0)
(-0.166297 0.126056 0)
(-0.174486 0.12667 0)
(-0.181752 0.126012 0)
(-0.188162 0.124268 0)
(-0.193764 0.121591 0)
(-0.198598 0.118117 0)
(-0.202706 0.113968 0)
(-0.206132 0.109258 0)
(-0.208929 0.104094 0)
(-0.211159 0.0985757 0)
(-0.212886 0.0927932 0)
(-0.214176 0.0868252 0)
(-0.215093 0.0807387 0)
(-0.215696 0.0745876 0)
(-0.216039 0.0684134 0)
(-0.216169 0.0622469 0)
(-0.216126 0.0561103 0)
(-0.21594 0.0500167 0)
(-0.215637 0.043972 0)
(-0.215235 0.0379766 0)
(-0.214748 0.032023 0)
(-0.214186 0.0261015 0)
(-0.213558 0.0201992 0)
(-0.212871 0.0143002 0)
(-0.212132 0.00838683 0)
(-0.211349 0.0024395 0)
(-0.210529 -0.00356313 0)
(-0.209681 -0.00964413 0)
(-0.208816 -0.0158293 0)
(-0.207948 -0.0221453 0)
(-0.207093 -0.028621 0)
(-0.206271 -0.035287 0)
(-0.205501 -0.0421757 0)
(-0.204809 -0.0493213 0)
(-0.204218 -0.0567589 0)
(-0.203754 -0.0645234 0)
(-0.203436 -0.0726488 0)
(-0.203281 -0.0811653 0)
(-0.203295 -0.090096 0)
(-0.203464 -0.0994503 0)
(-0.203753 -0.109219 0)
(-0.204085 -0.119362 0)
(-0.204327 -0.129791 0)
(-0.204264 -0.14033 0)
(-0.203586 -0.150641 0)
(-0.20188 -0.160153 0)
(-0.198598 -0.16823 0)
(-0.193224 -0.174702 0)
(-0.184968 -0.17792 0)
(-0.172402 -0.17584 0)
(-0.156184 -0.168663 0)
(-0.136793 -0.156067 0)
(-0.115269 -0.138387 0)
(-0.0927751 -0.116337 0)
(-0.0708259 -0.091305 0)
(-0.0510591 -0.0653976 0)
(-0.0344219 -0.0403068 0)
(-0.0212938 -0.0175088 0)
(-0.0117652 0.00161494 0)
(-0.00546572 0.0159992 0)
(-0.0018984 0.024372 0)
(-7.81695e-05 0.0257987 0)
(0.000368567 0.0143404 0)
(-0.00104943 -0.0128927 0)
(-0.0070988 -0.00693034 0)
(-0.0138671 0.0030693 0)
(-0.0212967 0.0133766 0)
(-0.0294362 0.0240789 0)
(-0.0382311 0.0351911 0)
(-0.0477699 0.046601 0)
(-0.0580999 0.058142 0)
(-0.0692051 0.0696657 0)
(-0.0810077 0.081057 0)
(-0.0933014 0.0920788 0)
(-0.105775 0.102429 0)
(-0.118085 0.111732 0)
(-0.129899 0.119651 0)
(-0.140943 0.125921 0)
(-0.151005 0.130379 0)
(-0.16002 0.133062 0)
(-0.168028 0.134145 0)
(-0.17509 0.133827 0)
(-0.181261 0.132299 0)
(-0.186594 0.129732 0)
(-0.191128 0.126272 0)
(-0.194908 0.122057 0)
(-0.197988 0.117216 0)
(-0.20043 0.111871 0)
(-0.202306 0.106138 0)
(-0.203693 0.100121 0)
(-0.204665 0.0939114 0)
(-0.205295 0.087584 0)
(-0.205645 0.0812005 0)
(-0.205773 0.0748074 0)
(-0.205724 0.0684386 0)
(-0.205537 0.0621167 0)
(-0.205241 0.0558557 0)
(-0.204859 0.0496611 0)
(-0.204406 0.0435327 0)
(-0.203892 0.0374651 0)
(-0.203325 0.031449 0)
(-0.202709 0.0254714 0)
(-0.202049 0.0195181 0)
(-0.201347 0.0135736 0)
(-0.200605 0.00761975 0)
(-0.199829 0.00163788 0)
(-0.199022 -0.00439214 0)
(-0.198192 -0.0104916 0)
(-0.197347 -0.0166834 0)
(-0.1965 -0.0229915 0)
(-0.195667 -0.0294417 0)
(-0.194866 -0.0360615 0)
(-0.194118 -0.0428802 0)
(-0.193451 -0.0499296 0)
(-0.192891 -0.0572432 0)
(-0.192469 -0.0648565 0)
(-0.192214 -0.0728061 0)
(-0.192153 -0.0811288 0)
(-0.192308 -0.0898581 0)
(-0.192689 -0.0990204 0)
(-0.193289 -0.108629 0)
(-0.194071 -0.118674 0)
(-0.194964 -0.129111 0)
(-0.195836 -0.13985 0)
(-0.196474 -0.15072 0)
(-0.196554 -0.161421 0)
(-0.195617 -0.171393 0)
(-0.193074 -0.17979 0)
(-0.188159 -0.18587 0)
(-0.180088 -0.18854 0)
(-0.167496 -0.185407 0)
(-0.150605 -0.17614 0)
(-0.130132 -0.160569 0)
(-0.10738 -0.13934 0)
(-0.0838216 -0.113512 0)
(-0.0613419 -0.0850334 0)
(-0.0417054 -0.0565467 0)
(-0.0258628 -0.0300319 0)
(-0.0140372 -0.00723946 0)
(-0.00604073 0.010403 0)
(-0.00148388 0.0214224 0)
(0.000586806 0.0247549 0)
(0.000575922 0.0147087 0)
(-0.00160897 -0.00851744 0)
(-0.00874229 6.60902e-05 0)
(-0.0163613 0.0108212 0)
(-0.0246128 0.0216476 0)
(-0.0335255 0.0329285 0)
(-0.0430206 0.044713 0)
(-0.0531745 0.0568488 0)
(-0.0640083 0.0691178 0)
(-0.0754693 0.081307 0)
(-0.0873788 0.0931451 0)
(-0.0994929 0.104345 0)
(-0.11151 0.114549 0)
(-0.123101 0.12339 0)
(-0.133997 0.13058 0)
(-0.143966 0.135904 0)
(-0.152896 0.139332 0)
(-0.160795 0.141004 0)
(-0.167719 0.141129 0)
(-0.173724 0.139908 0)
(-0.178856 0.137525 0)
(-0.183162 0.134145 0)
(-0.186689 0.129919 0)
(-0.1895 0.124995 0)
(-0.191667 0.119512 0)
(-0.193272 0.113602 0)
(-0.194399 0.107384 0)
(-0.195133 0.100962 0)
(-0.195551 0.0944214 0)
(-0.195721 0.0878301 0)
(-0.1957 0.0812396 0)
(-0.195534 0.0746867 0)
(-0.195262 0.0681956 0)
(-0.19491 0.0617802 0)
(-0.194497 0.0554466 0)
(-0.194038 0.0491939 0)
(-0.19354 0.0430165 0)
(-0.193006 0.0369055 0)
(-0.192439 0.0308492 0)
(-0.191839 0.0248339 0)
(-0.191205 0.0188434 0)
(-0.190537 0.0128623 0)
(-0.189834 0.00687431 0)
(-0.189097 0.000861051 0)
(-0.188329 -0.00519553 0)
(-0.187535 -0.0113146 0)
(-0.186722 -0.0175161 0)
(-0.185901 -0.0238209 0)
(-0.185086 -0.0302513 0)
(-0.184294 -0.036831 0)
(-0.183545 -0.0435857 0)
(-0.182867 -0.0505434 0)
(-0.182287 -0.0577346 0)
(-0.181839 -0.0651929 0)
(-0.181557 -0.0729548 0)
(-0.181475 -0.0810592 0)
(-0.181627 -0.0895465 0)
(-0.182038 -0.0984551 0)
(-0.182724 -0.107818 0)
(-0.183677 -0.117654 0)
(-0.184863 -0.127957 0)
(-0.186202 -0.138683 0)
(-0.187556 -0.149725 0)