/*--------------------------------*- C++ -*----------------------------------*\
  =========                 |
  \\      /  F ield         | OpenFOAM: The Open Source CFD Toolbox
   \\    /   O peration     | Website:  https://openfoam.org
    \\  /    A nd           | Version:  13
     \\/     M anipulation  |
\*---------------------------------------------------------------------------*/
FoamFile
{
    format      ascii;
    class       volScalarField;
    location    "5.5";
    object      epsilon;
}
// * * * * * * * * * * * * * * * * * * * * * * * * * * * * * * * * * * * * * //

dimensions      [0 2 -3 0 0 0 0];

internalField   nonuniform List<scalar> 
1600
(
2.1973e-05
8.08419e-05
0.000162148
0.00017296
0.000162686
0.000168234
0.000211924
0.000337973
0.000479456
0.000632366
0.000994202
0.00131725
0.00148356
0.0016347
0.00187998
0.00220951
0.00254479
0.00290432
0.00327912
0.00367983
0.00411662
0.00459315
0.00513136
0.00574125
0.00646763
0.00714648
0.00782115
0.00840855
0.0089107
0.00918164
0.00928807
0.00907447
0.00828014
0.00693633
0.00508679
0.00290169
0.00136387
0.000552723
0.000170617
3.44793e-05
0.000105962
0.000135222
0.000174711
0.000173363
0.00017428
0.000208877
0.000347809
0.000700405
0.00122201
0.0019251
0.00346873
0.00451702
0.00471802
0.00451406
0.00424497
0.00410272
0.00401636
0.00398331
0.00398259
0.00406571
0.00419261
0.00437497
0.00458645
0.00483861
0.00514688
0.00552393
0.00594837
0.00643675
0.00692901
0.00734838
0.00753957
0.00756945
0.00705293
0.00607564
0.00444776
0.0024891
0.00101305
0.000429297
0.000150676
6.20573e-05
0.000316121
0.000342481
0.000364306
0.000359142
0.000411625
0.000664188
0.0013668
0.00271393
0.00454327
0.00543325
0.00551508
0.00477009
0.00436462
0.00390105
0.00353012
0.00328615
0.00308572
0.00295648
0.00288627
0.0028578
0.0028525
0.00289443
0.00298647
0.00312199
0.00329455
0.00350222
0.00375212
0.00404814
0.00439308
0.00479915
0.00527064
0.00569722
0.00589315
0.00579882
0.00502794
0.00330078
0.0010173
0.00027317
9.64667e-05
5.14104e-05
0.000731146
0.000675508
0.000691522
0.00076061
0.00109584
0.0020537
0.00381409
0.00526837
0.0056894
0.00529125
0.00470832
0.00369091
0.00313393
0.00267807
0.00245911
0.00227186
0.00217337
0.00212165
0.00210235
0.00210089
0.00214126
0.00219587
0.00227535
0.00237151
0.00249075
0.00263182
0.00280239
0.00300567
0.00324663
0.00352774
0.00384969
0.00422178
0.00469281
0.00517432
0.00535569
0.00490558
0.00237992
0.000404585
8.24376e-05
3.67536e-05
0.00139912
0.00115798
0.00125483
0.00158655
0.0024817
0.00406481
0.00524073
0.00553163
0.00517199
0.00410875
0.00306399
0.00254361
0.00218771
0.00196391
0.00185109
0.00178546
0.00176134
0.00175735
0.00178383
0.0018216
0.00187357
0.00193033
0.00199845
0.00207631
0.00217066
0.00228471
0.00242662
0.00260069
0.00281052
0.00305584
0.0033337
0.00364102
0.00398653
0.00442597
0.00505865
0.00534473
0.00474016
0.00132812
0.000165024
4.50126e-05
0.00236979
0.00184154
0.00210438
0.00275498
0.00396115
0.0049569
0.00522876
0.00496375
0.00372584
0.00268856
0.0021715
0.00187091
0.00169007
0.0016047
0.00157006
0.00156095
0.00157499
0.00160513
0.00164174
0.00168181
0.00172682
0.0017765
0.00183586
0.00190696
0.00199543
0.00210574
0.00224413
0.00241536
0.00262378
0.00287013
0.00315167
0.00346202
0.00378016
0.00411256
0.00453077
0.00506349
0.00527452
0.00356545
0.000516924
8.95433e-05
0.00362964
0.00271831
0.00311568
0.00387783
0.00466991
0.00493171
0.00475241
0.00360061
0.00248224
0.00194324
0.00166671
0.00151532
0.00144605
0.00142127
0.00141634
0.00142693
0.00144522
0.00146369
0.0014827
0.00150337
0.00152843
0.00156206
0.00160857
0.00167269
0.00175996
0.00187646
0.00202873
0.00222266
0.00246238
0.00274724
0.0030685
0.00340795
0.00375316
0.004064
0.0043933
0.00479815
0.00508009
0.00489809
0.00134191
0.000207619
0.00498766
0.00367848
0.00405358
0.00454908
0.00474993
0.00459595
0.00365361
0.00242776
0.00182465
0.00153531
0.0013933
0.00132687
0.00130057
0.00129191
0.00128931
0.00128831
0.00128353
0.0012757
0.00126913
0.00126644
0.00126871
0.0012855
0.00131826
0.00137209
0.00145292
0.00156742
0.00172407
0.00193227
0.00220131
0.00253666
0.00293347
0.0033678
0.00379273
0.00419109
0.0044539
0.00474637
0.00504147
0.00513638
0.00294168
0.000517781
0.00617266
0.00455949
0.00475621
0.00484808
0.0045738
0.00381652
0.00256752
0.00180575
0.00146556
0.00130715
0.0012329
0.0011988
0.00118253
0.0011671
0.00114694
0.001121
0.00109016
0.00105896
0.00103152
0.00101366
0.00100649
0.0010067
0.0010306
0.00107352
0.00114351
0.00124643
0.00139198
0.00159243
0.00186303
0.00221961
0.00267216
0.00321205
0.00379425
0.00433081
0.00473058
0.00493196
0.00516811
0.00528413
0.00455296
0.00140723
0.00704696
0.00522309
0.0051637
0.00482119
0.00411826
0.00291814
0.00191369
0.00145738
0.00125482
0.00116141
0.00111656
0.00109143
0.00106532
0.00103129
0.00098913
0.000942008
0.000894096
0.000850296
0.000813984
0.000788737
0.000776834
0.000773737
0.000788841
0.000823603
0.000881228
0.000968202
0.00109364
0.00127094
0.00151872
0.00186084
0.00232277
0.00292009
0.00363433
0.00437993
0.0049951
0.00527011
0.00540792
0.00547533
0.00512914
0.00254594
0.00766517
0.00565249
0.00535265
0.00465363
0.00347631
0.0022163
0.00154057
0.00124636
0.00111537
0.00105338
0.00101895
0.00098567
0.00094313
0.000890891
0.000832849
0.000774302
0.000719888
0.00067321
0.000636204
0.000610757
0.000598535
0.000594881
0.000605128
0.000633068
0.00067956
0.000750579
0.000854212
0.00100329
0.00121719
0.00152396
0.00196054
0.00256622
0.00336078
0.0042981
0.00520355
0.00565644
0.00581383
0.00584332
0.0055527
0.0036835
0.00800685
0.0058516
0.00531344
0.00429818
0.0028549
0.00178385
0.00130932
0.00110422
0.0010109
0.000964302
0.00092621
0.000879953
0.000822709
0.000758394
0.000692941
0.000631685
0.00057816
0.000534285
0.000500659
0.000477954
0.000467004
0.000463625
0.000471107
0.000493366
0.000530636
0.000587816
0.000671796
0.00079386
0.000972061
0.00123485
0.00162485
0.00219883
0.00301386
0.00408136
0.00527496
0.00605403
0.00627025
0.00624829
0.00593617
0.00461196
0.00799569
0.00584233
0.00517848
0.00387442
0.00234823
0.00150803
0.00115275
0.000999143
0.000927417
0.00088387
0.000837144
0.000779176
0.000712258
0.000642623
0.000576402
0.000517774
0.000468732
0.000429778
0.000400581
0.000381011
0.000371512
0.000368524
0.0003741
0.000391797
0.000421781
0.000467919
0.000535938
0.000635328
0.000781855
0.00100186
0.00133846
0.00185762
0.00264574
0.00377861
0.00523509
0.00644921
0.00683572
0.00679733
0.00629125
0.00548468
0.00788978
0.0057583
0.00491054
0.00344236
0.00199214
0.00132021
0.00103927
0.000916256
0.00085639
0.000809889
0.000754504
0.000688377
0.000616894
0.000546949
0.000483785
0.00043008
0.000386477
0.000352527
0.000327381
0.000310429
0.000302095
0.000299398
0.000303504
0.000317624
0.00034199
0.000379646
0.00043531
0.000516813
0.000637476
0.000820494
0.00110639
0.00156336
0.00229431
0.00341857
0.00499102
0.00670003
0.00741115
0.00741387
0.00677741
0.00629596
0.00763873
0.0055654
0.00459002
0.00305731
0.0017493
0.00118551
0.000952284
0.000848844
0.000794485
0.000743173
0.000681121
0.000610495
0.000538225
0.000470833
0.000412277
0.000363887
0.000325352
0.000295683
0.000273796
0.000258825
0.000251313
0.000248788
0.000251739
0.000263078
0.00028314
0.000314362
0.000360646
0.000428433
0.000528772
0.000681422
0.000922716
0.00131905
0.0019837
0.00307605
0.00472264
0.00680332
0.0080285
0.00810625
0.00731746
0.00709067
0.00721444
0.00531625
0.00426155
0.00274428
0.00157594
0.0010854
0.000883854
0.000793631
0.000740707
0.000684933
0.000618583
0.000546295
0.000475486
0.000411832
0.000358049
0.000314455
0.000280147
0.000253867
0.000234454
0.000221028
0.000214013
0.000211563
0.000213616
0.000222788
0.000239528
0.000265853
0.00030505
0.000362491
0.000447341
0.000576155
0.000780361
0.00112097
0.00171279
0.00274552
0.0044393
0.00681165
0.00860923
0.00889023
0.00793377
0.00786575
0.0067176
0.00504554
0.0039469
0.00249761
0.00144889
0.00100948
0.000829604
0.000748136
0.000694861
0.000635799
0.000567194
0.000495088
0.00042678
0.000367011
0.000317492
0.000277866
0.000246895
0.000223213
0.000205661
0.0001934
0.000186675
0.000184226
0.000185589
0.000193056
0.000207189
0.000229721
0.000263495
0.000313097
0.000386239
0.000496787
0.000671499
0.000964607
0.00148613
0.00244009
0.00411622
0.00668203
0.00913645
0.00973791
0.0086051
0.00863712
0.00613271
0.00478909
0.0036657
0.00230963
0.00135722
0.000952529
0.00078684
0.000710858
0.000656732
0.000595695
0.000526366
0.000455477
0.000389936
0.000333666
0.000287662
0.000251152
0.00022273
0.000201005
0.000184848
0.000173457
0.000166882
0.000164365
0.000165206
0.000171322
0.000183376
0.000202913
0.000232457
0.000276044
0.000340323
0.000437039
0.000588878
0.00084307
0.00130152
0.00217323
0.00380475
0.00649782
0.00958032
0.0106381
0.00938471
0.00940564
0.00554975
0.00453846
0.00342169
0.00216992
0.00129123
0.000909191
0.000753276
0.00068068
0.000625877
0.000564052
0.000495074
0.000425894
0.000362955
0.000309583
0.000266317
0.000232156
0.000205627
0.000185347
0.000170222
0.000159481
0.000152964
0.000150305
0.000150747
0.000155787
0.000166169
0.000183307
0.000209489
0.000248377
0.000305874
0.000392142
0.000526535
0.000749679
0.00115328
0.00194184
0.0035027
0.00627582
0.00993633
0.0115674
0.0102463
0.0101699
0.00489004
0.00431612
0.00322055
0.0020689
0.00124999
0.000880325
0.000727822
0.000656672
0.000601576
0.000539965
0.000472095
0.0004048
0.000344154
0.000293068
0.000251828
0.000219352
0.000194169
0.000174921
0.000160539
0.000150271
0.000143773
0.000140887
0.000141005
0.000145174
0.000154213
0.000169431
0.000192911
0.000228068
0.000280313
0.000358674
0.000479973
0.000679097
0.00103727
0.00174901
0.00322748
0.00605171
0.0101828
0.0125245
0.0112252
0.0109362
0.0043605
0.00412512
0.00305982
0.002002
0.0012256
0.000858833
0.000709137
0.000638051
0.000583078
0.000522498
0.000456309
0.000391052
0.000332295
0.000282828
0.000242978
0.000211655
0.000187393
0.000168848
0.000154964
0.000145002
0.00013853
0.000135362
0.000135314
0.000138823
0.000146766
0.000160343
0.000181582
0.000213753
0.000261888
0.000334213
0.000445774
0.000626635
0.000947772
0.00158958
0.00297557
0.00581844
0.0103561
0.0134937
0.0123164
0.0116942
0.00391386
0.00394909
0.00295187
0.00195771
0.00122753
0.000855523
0.000696445
0.000624
0.00056933
0.000510495
0.000446527
0.00038305
0.000326048
0.000278192
0.000239447
0.00020885
0.000185065
0.000166823
0.000153107
0.000143191
0.000136632
0.000133249
0.000133146
0.000136195
0.000143372
0.000155888
0.000175468
0.000205082
0.000249538
0.000317164
0.000421607
0.000589047
0.000881177
0.00146252
0.00275251
0.00556983
0.0104564
0.0144663
0.0135411
0.012452
0.00352019
0.00380138
0.00288413
0.00195116
0.00124029
0.000860909
0.000692916
0.000614423
0.000559966
0.000503258
0.000441718
0.000381469
0.000326309
0.000278964
0.000240424
0.0002099
0.000186129
0.000167875
0.000154132
0.000144169
0.000137527
0.000134004
0.000133732
0.000136179
0.000142671
0.000154533
0.000173215
0.000201257
0.000243409
0.000307564
0.000406538
0.000563859
0.000833768
0.00136442
0.00256033
0.00532459
0.0105026
0.0154705
0.0148667
0.0131956
0.0031641
0.00368389
0.00285589
0.00196266
0.0012702
0.000876271
0.000695817
0.000609967
0.00055361
0.000499329
0.000441922
0.000383208
0.000329089
0.000282458
0.000244168
0.000213665
0.000189829
0.000171495
0.000157685
0.000147676
0.000141001
0.000137464
0.000137219
0.000139336
0.000145162
0.000156206
0.000173665
0.000200484
0.00024134
0.000303654
0.000399497
0.000551303
0.000804392
0.00129262
0.00239968
0.00508087
0.0105144
0.0164735
0.0163153
0.0139295
0.00283192
0.00359068
0.00286255
0.00199503
0.00132172
0.000908168
0.000705538
0.000611308
0.000552252
0.000499566
0.00044401
0.000387907
0.000335647
0.00029006
0.000252094
0.00022152
0.000197458
0.000178871
0.00016483
0.000154615
0.000147748
0.000144036
0.000143801
0.000145756
0.000151221
0.000161899
0.000178764
0.000204432
0.000243358
0.00030331
0.000397476
0.000546748
0.000790692
0.0012427
0.00227179
0.00485135
0.0104721
0.0174868
0.0178782
0.0146399
0.00251953
0.00352319
0.00288747
0.0020567
0.00139145
0.000957639
0.000726703
0.000617205
0.000553894
0.000501422
0.00044884
0.000396126
0.00034603
0.000301495
0.000263826
0.000233104
0.000208696
0.000189725
0.000175341
0.000164853
0.00015778
0.000153912
0.000153766
0.000155685
0.000161024
0.000171608
0.000188251
0.000213478
0.000251676
0.000310461
0.000402543
0.000548545
0.000786946
0.00121745
0.00217373
0.00464382
0.0103902
0.0184715
0.0195718
0.0153277
0.00221671
0.00346205
0.00293763
0.00214478
0.00148509
0.00102736
0.000764342
0.000631245
0.000559369
0.000505848
0.000456034
0.000406484
0.000358934
0.000315888
0.000278838
0.000248165
0.000223518
0.000204209
0.000189504
0.000178767
0.000171525
0.000167569
0.000167573
0.000169574
0.000175014
0.00018574
0.000202465
0.00022766
0.000265655
0.00032413
0.000416168
0.00056255
0.000796661
0.0012087
0.00210278
0.00446139
0.0102974
0.0194169
0.0213718
0.0159798
0.00192541
0.00341114
0.00301552
0.00224332
0.00159758
0.00111908
0.000821363
0.00065966
0.000571784
0.000514279
0.000465343
0.000418538
0.000373741
0.000332666
0.000296726
0.000266509
0.000241921
0.00022249
0.000207621
0.000196765
0.000189467
0.000185588
0.000185763
0.000188008
0.000193778
0.000204859
0.000221956
0.000247521
0.000285879
0.000344787
0.000437561
0.000585569
0.000820819
0.00121599
0.00206702
0.00430256
0.0101738
0.0203372
0.023258
0.0165987
0.00163553
0.00332334
0.00307007
0.0023761
0.00173174
0.00123517
0.000902037
0.000706419
0.000596757
0.000529309
0.000478126
0.000432653
0.000390265
0.000351402
0.000317052
0.000287808
0.000263746
0.000244579
0.000229859
0.000219151
0.000212006
0.000208473
0.0002089
0.00021154
0.000217883
0.000229534
0.000247282
0.000273621
0.000312935
0.000373133
0.000467736
0.000618851
0.000858101
0.00124611
0.00205522
0.00416563
0.0100005
0.0212016
0.0251834
0.0171729
0.00138036
0.00322028
0.00309809
0.00252605
0.00188394
0.00137626
0.00101143
0.000778495
0.00063998
0.000555743
0.000497375
0.000450337
0.000408997
0.000371997
0.000339445
0.000311636
0.000288629
0.000270238
0.000256116
0.000245963
0.000239267
0.000236489
0.000237283
0.000240493
0.000247687
0.000260142
0.000278841
0.000306404
0.000347339
0.000409811
0.000507459
0.000663213
0.000909237
0.00129672
0.00206906
0.00407003
0.00981081
0.0219734
0.0270676
0.0177099
0.00116598
0.00301793
0.00310612
0.00267853
0.00204762
0.0015384
0.00115113
0.000882978
0.000710722
0.000602287
0.000530015
0.000476521
0.000433121
0.000396272
0.000364777
0.000338262
0.0003165
0.000299244
0.000286105
0.000276951
0.000270995
0.000269482
0.000270778
0.000274761
0.00028313
0.000296683
0.000316722
0.000346103
0.000389507
0.00045552
0.00055775
0.000720157
0.000975659
0.00137458
0.00212162
0.00402902
0.00961269
0.0226155
0.0288191
0.0182066
0.000976578
0.00262948
0.00312227
0.00281964
0.00221618
0.00171813
0.00132189
0.00102626
0.00081951
0.000680328
0.000586001
0.000519015
0.00046838
0.000428232
0.000395688
0.000369314
0.000348256
0.000331987
0.000319886
0.000311909
0.000306925
0.000306959
0.0003089
0.000313938
0.00032383
0.000338915
0.000360892
0.000393025
0.000440134
0.000511552
0.000620546
0.00079285
0.00106137
0.00148125
0.00221624
0.00402736
0.00949509
0.0231392
0.0303143
0.0186812
0.000802356
0.00206391
0.00306529
0.00287243
0.00237835
0.00190489
0.00151986
0.00121366
0.000980526
0.000809519
0.000686253
0.000596891
0.000530757
0.000480627
0.000441983
0.00041212
0.000389262
0.000372266
0.000360163
0.000352489
0.000348563
0.000349195
0.000352096
0.000358657
0.000370251
0.000387625
0.00041259
0.000449135
0.000502021
0.000582052
0.000701476
0.000889794
0.0011777
0.00163478
0.00238559
0.00416587
0.00946789
0.0235914
0.0314606
0.0191599
0.000700564
0.00151394
0.00285819
0.00282367
0.00253478
0.0021024
0.00174389
0.00144508
0.00119945
0.00100308
0.000849717
0.000731737
0.000641646
0.000573031
0.000521035
0.000481688
0.000452325
0.000430951
0.000416019
0.000406634
0.00040195
0.000402739
0.00040626
0.000414207
0.000428134
0.000449285
0.000479352
0.00052371
0.000586506
0.000681742
0.000819132
0.00103669
0.00135831
0.00188381
0.00269424
0.00452339
0.0097469
0.0241885
0.0320947
0.0195966
0.00070989
0.00118424
0.00240027
0.00267636
0.00256553
0.00230015
0.00200727
0.0017444
0.00150845
0.00130044
0.0011225
0.000974423
0.00085357
0.000756437
0.000679425
0.000619703
0.000573635
0.000540242
0.0005164
0.000501183
0.000491665
0.000491877
0.000495522
0.000504844
0.0005229
0.000551542
0.000591986
0.000652564
0.000735562
0.000862173
0.00103633
0.00131509
0.00170649
0.00237029
0.00333951
0.00540098
0.0106996
0.0251915
0.0323534
0.0197584
0.000952059
0.00101462
0.00184444
0.00233945
0.00253999
0.00247138
0.00230626
0.00210553
0.00190241
0.00170353
0.00151467
0.00134177
0.00119182
0.00106696
0.000964184
0.000881532
0.000816318
0.000766525
0.000729636
0.000706121
0.000692108
0.000693118
0.000700527
0.000718448
0.00075137
0.000801003
0.000869641
0.000972249
0.00110734
0.00131176
0.00157801
0.00200348
0.00256408
0.00353629
0.00486607
0.00749623
0.0130632
0.0270518
0.0323527
0.0197798
0.00143462
0.00111481
0.00169894
0.00232335
0.00268786
0.00285993
0.00285557
0.00277762
0.00262014
0.00243761
0.00224691
0.00205896
0.00188305
0.00172675
0.00159367
0.00148528
0.00140077
0.00134076
0.0012998
0.00128381
0.00128918
0.00131011
0.00135514
0.00142839
0.00152856
0.00166671
0.00184485
0.00207816
0.00238116
0.00281111
0.00335183
0.00416581
0.0051888
0.00687975
0.00899999
0.0129277
0.0185613
0.030523
0.0322817
0.0192628
0.00233752
0.00165267
0.00237696
0.00320257
0.00383182
0.00429109
0.00450697
0.00455874
0.00449362
0.0043453
0.00415959
0.00396919
0.00378999
0.00363835
0.00352134
0.00344187
0.00340974
0.00342376
0.00347008
0.00357134
0.00372516
0.00393518
0.0041987
0.00453724
0.00495061
0.00545765
0.00607819
0.00682581
0.00775213
0.00882179
0.0102161
0.0120348
0.0143619
0.0175292
0.0212733
0.0269387
0.0319309
0.0370978
0.0335477
0.0182194
0.00415075
0.0039864
0.00702647
0.00958545
0.0110565
0.0119192
0.0123218
0.0124473
0.0124004
0.0122635
0.0120624
0.0119066
0.011806
0.0118245
0.0119099
0.0121105
0.0124246
0.0128931
0.0134412
0.0141386
0.0149404
0.0159161
0.0170268
0.0183236
0.0198185
0.0214915
0.0234765
0.0255916
0.028213
0.03085
0.0343069
0.0373518
0.0418001
0.0449754
0.0501109
0.0517909
0.0501313
0.0437386
0.0341169
0.0159745
0.00281269
0.00442495
0.00584644
0.0073746
0.00874635
0.00997012
0.0109761
0.011814
0.012414
0.0128317
0.0130733
0.0132261
0.0132409
0.0132159
0.0131587
0.0130547
0.0129497
0.0128304
0.0127344
0.0126333
0.012575
0.0125161
0.0125105
0.0125251
0.0125739
0.0126445
0.0128018
0.0129273
0.0131993
0.0133791
0.0137705
0.0140001
0.0145204
0.0148994
0.0157545
0.016246
0.0171112
0.0171231
0.0165332
0.013811
)
;

boundaryField
{
    movingWall
    {
        type            epsilonWallFunction;
        value           nonuniform List<scalar> 
40
(
0.00281269
0.00442495
0.00584644
0.0073746
0.00874635
0.00997012
0.0109761
0.011814
0.012414
0.0128317
0.0130733
0.0132261
0.0132409
0.0132159
0.0131587
0.0130547
0.0129497
0.0128304
0.0127344
0.0126333
0.012575
0.0125161
0.0125105
0.0125251
0.0125739
0.0126445
0.0128018
0.0129273
0.0131993
0.0133791
0.0137705
0.0140001
0.0145204
0.0148994
0.0157545
0.016246
0.0171112
0.0171231
0.0165332
0.013811
)
;
    }
    fixedWalls
    {
        type            epsilonWallFunction;
        value           nonuniform List<scalar> 
120
(
2.1973e-05
0.000105962
0.000316121
0.000731146
0.00139912
0.00236979
0.00362964
0.00498766
0.00617266
0.00704696
0.00766517
0.00800685
0.00799569
0.00788978
0.00763873
0.00721444
0.0067176
0.00613271
0.00554975
0.00489004
0.0043605
0.00391386
0.00352019
0.0031641
0.00283192
0.00251953
0.00221671
0.00192541
0.00163553
0.00138036
0.00116598
0.000976578
0.000802356
0.000700564
0.00070989
0.000952059
0.00143462
0.00233752
0.00415075
0.00281269
3.44793e-05
6.20573e-05
5.14104e-05
3.67536e-05
4.50126e-05
8.95433e-05
0.000207619
0.000517781
0.00140723
0.00254594
0.0036835
0.00461196
0.00548468
0.00629596
0.00709067
0.00786575
0.00863712
0.00940564
0.0101699
0.0109362
0.0116942
0.012452
0.0131956
0.0139295
0.0146399
0.0153277
0.0159798
0.0165987
0.0171729
0.0177099
0.0182066
0.0186812
0.0191599
0.0195966
0.0197584
0.0197798
0.0192628
0.0182194
0.0159745
0.013811
2.1973e-05
8.08419e-05
0.000162148
0.00017296
0.000162686
0.000168234
0.000211924
0.000337973
0.000479456
0.000632366
0.000994202
0.00131725
0.00148356
0.0016347
0.00187998
0.00220951
0.00254479
0.00290432
0.00327912
0.00367983
0.00411662
0.00459315
0.00513136
0.00574125
0.00646763
0.00714648
0.00782115
0.00840855
0.0089107
0.00918164
0.00928807
0.00907447
0.00828014
0.00693633
0.00508679
0.00290169
0.00136387
0.000552723
0.000170617
3.44793e-05
)
;
    }
    frontAndBack
    {
        type            empty;
    }
}


// ************************************************************************* //
