/*--------------------------------*- C++ -*----------------------------------*\
  =========                 |
  \\      /  F ield         | OpenFOAM: The Open Source CFD Toolbox
   \\    /   O peration     | Website:  https://openfoam.org
    \\  /    A nd           | Version:  13
     \\/     M anipulation  |
\*---------------------------------------------------------------------------*/
FoamFile
{
    format      ascii;
    class       volScalarField;
    location    "5.5";
    object      nut;
}
// * * * * * * * * * * * * * * * * * * * * * * * * * * * * * * * * * * * * * //

dimensions      [0 2 -1 0 0 0 0];

internalField   nonuniform List<scalar> 
1600
(
1.20828e-08
4.44349e-08
8.91127e-08
9.50091e-08
8.93381e-08
9.23581e-08
1.16338e-07
1.85641e-07
2.63538e-07
3.47763e-07
5.47034e-07
7.24687e-07
8.16076e-07
8.99247e-07
1.03425e-06
1.21562e-06
1.40004e-06
1.59784e-06
1.80396e-06
2.02438e-06
2.26457e-06
2.52666e-06
2.82262e-06
3.15802e-06
3.55745e-06
3.93045e-06
4.30131e-06
4.62406e-06
4.90002e-06
5.04884e-06
5.10729e-06
4.98972e-06
4.55316e-06
3.8144e-06
2.7977e-06
1.59618e-06
7.50435e-07
3.04193e-07
9.39169e-08
1.89823e-08
5.82652e-08
1.14856e-06
3.45185e-06
4.39234e-06
4.39731e-06
4.22549e-06
4.6418e-06
5.95105e-06
6.19854e-06
6.37174e-06
8.10497e-06
9.19348e-06
9.77493e-06
1.0447e-05
1.13082e-05
1.26078e-05
1.38646e-05
1.52652e-05
1.67618e-05
1.80894e-05
1.9502e-05
2.07591e-05
2.20853e-05
2.31475e-05
2.38924e-05
2.46397e-05
2.5272e-05
2.57489e-05
2.59332e-05
2.55532e-05
2.52778e-05
2.38427e-05
2.18108e-05
1.8534e-05
1.49618e-05
9.26299e-06
4.3597e-06
1.71324e-06
5.84268e-07
3.41451e-08
1.73839e-07
3.06141e-06
7.68815e-06
9.53984e-06
1.02932e-05
1.06792e-05
1.28352e-05
1.59295e-05
1.66919e-05
1.68921e-05
1.61677e-05
1.5135e-05
1.48156e-05
1.58779e-05
1.73977e-05
1.90694e-05
2.09933e-05
2.28808e-05
2.46929e-05
2.6434e-05
2.81911e-05
2.95178e-05
3.04136e-05
3.09948e-05
3.14129e-05
3.16593e-05
3.16904e-05
3.14619e-05
3.09011e-05
2.99032e-05
2.79739e-05
2.61016e-05
2.40234e-05
1.98925e-05
1.58828e-05
9.00793e-06
3.70842e-06
1.81538e-06
7.40431e-07
2.828e-08
4.02059e-07
6.59172e-06
1.32313e-05
1.56117e-05
1.683e-05
1.84066e-05
2.04175e-05
2.07824e-05
2.04954e-05
1.79546e-05
1.70592e-05
1.81764e-05
1.98305e-05
2.25623e-05
2.44138e-05
2.6913e-05
2.89085e-05
3.06752e-05
3.21766e-05
3.35508e-05
3.43214e-05
3.4992e-05
3.54145e-05
3.56452e-05
3.56799e-05
3.55218e-05
3.51489e-05
3.45374e-05
3.35663e-05
3.21566e-05
3.02093e-05
2.78308e-05
2.49755e-05
2.13384e-05
1.79874e-05
1.31236e-05
4.29397e-06
1.46625e-06
5.17736e-07
2.02084e-08
7.69341e-07
1.18544e-05
1.9429e-05
2.102e-05
2.18364e-05
2.3448e-05
2.35387e-05
2.30408e-05
2.04642e-05
1.91713e-05
2.11706e-05
2.32202e-05
2.60224e-05
2.8699e-05
3.06031e-05
3.28801e-05
3.45911e-05
3.62987e-05
3.73979e-05
3.83415e-05
3.89188e-05
3.9394e-05
3.9604e-05
3.96787e-05
3.95748e-05
3.93149e-05
3.88389e-05
3.80909e-05
3.69724e-05
3.52642e-05
3.30004e-05
3.04718e-05
2.78244e-05
2.41137e-05
1.98247e-05
1.58139e-05
9.52819e-06
2.51511e-06
5.63203e-07
2.47442e-08
1.30301e-06
1.76451e-05
2.49106e-05
2.55628e-05
2.59631e-05
2.5673e-05
2.50989e-05
2.26824e-05
2.0903e-05
2.31408e-05
2.56955e-05
2.85244e-05
3.11996e-05
3.3244e-05
3.53716e-05
3.73336e-05
3.88463e-05
4.00899e-05
4.10371e-05
4.18284e-05
4.23596e-05
4.27344e-05
4.28752e-05
4.28432e-05
4.26849e-05
4.24241e-05
4.20507e-05
4.155e-05
4.09374e-05
4.00895e-05
3.77198e-05
3.45702e-05
3.15031e-05
2.77051e-05
2.29943e-05
1.80189e-05
1.26166e-05
4.04468e-06
9.14253e-07
4.92241e-08
1.99571e-06
2.21857e-05
2.93111e-05
2.88624e-05
2.76797e-05
2.69767e-05
2.46654e-05
2.23593e-05
2.44239e-05
2.73455e-05
3.024e-05
3.27956e-05
3.48001e-05
3.70513e-05
3.90408e-05
4.07088e-05
4.2095e-05
4.32998e-05
4.41946e-05
4.48302e-05
4.5155e-05
4.52607e-05
4.52264e-05
4.51714e-05
4.50189e-05
4.48088e-05
4.45351e-05
4.41844e-05
4.37006e-05
4.30091e-05
4.2321e-05
4.03533e-05
3.70089e-05
3.35839e-05
2.8445e-05
2.15586e-05
1.50623e-05
7.75507e-06
1.52516e-06
1.14137e-07
2.74234e-06
2.61741e-05
3.21618e-05
3.06202e-05
2.94588e-05
2.66594e-05
2.39961e-05
2.52203e-05
2.81916e-05
3.12797e-05
3.38289e-05
3.57627e-05
3.81763e-05
4.03219e-05
4.22495e-05
4.39367e-05
4.52803e-05
4.61386e-05
4.66017e-05
4.68099e-05
4.70096e-05
4.70596e-05
4.70866e-05
4.70154e-05
4.68629e-05
4.6656e-05
4.641e-05
4.61368e-05
4.58165e-05
4.53712e-05
4.46314e-05
4.35867e-05
4.10692e-05
3.75238e-05
3.43438e-05
2.80691e-05
1.91171e-05
9.88866e-06
2.05642e-06
2.84696e-07
3.39414e-06
2.8831e-05
3.39897e-05
3.27154e-05
2.9331e-05
2.61363e-05
2.53866e-05
2.84073e-05
3.16225e-05
3.43835e-05
3.63701e-05
3.88087e-05
4.12486e-05
4.34258e-05
4.51108e-05
4.64019e-05
4.71788e-05
4.75876e-05
4.81418e-05
4.84957e-05
4.86808e-05
4.90153e-05
4.90479e-05
4.90069e-05
4.88271e-05
4.85502e-05
4.82047e-05
4.78377e-05
4.74924e-05
4.71753e-05
4.68001e-05
4.61109e-05
4.42519e-05
4.07221e-05
3.73051e-05
3.31094e-05
2.48569e-05
1.42464e-05
4.4642e-06
7.7374e-07
3.87497e-06
3.03986e-05
3.57728e-05
3.32802e-05
2.90173e-05
2.6174e-05
2.81275e-05
3.13955e-05
3.44066e-05
3.67497e-05
3.89534e-05
4.16786e-05
4.38226e-05
4.56077e-05
4.68054e-05
4.77675e-05
4.8534e-05
4.92204e-05
4.99452e-05
5.06076e-05
5.10191e-05
5.13357e-05
5.16378e-05
5.15924e-05
5.13918e-05
5.0983e-05
5.04195e-05
4.97597e-05
4.90978e-05
4.85321e-05
4.81157e-05
4.77697e-05
4.71806e-05
4.44275e-05
4.01959e-05
3.68545e-05
2.95182e-05
1.76751e-05
5.95748e-06
1.39959e-06
4.21501e-06
3.15134e-05
3.72023e-05
3.3418e-05
2.86798e-05
2.78649e-05
3.06996e-05
3.39466e-05
3.67447e-05
3.88615e-05
4.15039e-05
4.35972e-05
4.55734e-05
4.70075e-05
4.81319e-05
4.91851e-05
5.02058e-05
5.12386e-05
5.2262e-05
5.32786e-05
5.39142e-05
5.43411e-05
5.48931e-05
5.48896e-05
5.46836e-05
5.4166e-05
5.33825e-05
5.23823e-05
5.12728e-05
5.02075e-05
4.9344e-05
4.87426e-05
4.82161e-05
4.70954e-05
4.30595e-05
4.00534e-05
3.45583e-05
2.26034e-05
8.55343e-06
2.02449e-06
4.40299e-06
3.18627e-05
3.77871e-05
3.35959e-05
2.88851e-05
2.98948e-05
3.29644e-05
3.60811e-05
3.86749e-05
4.07833e-05
4.30153e-05
4.51753e-05
4.68738e-05
4.82405e-05
4.95255e-05
5.0868e-05
5.22672e-05
5.36919e-05
5.50628e-05
5.64082e-05
5.72441e-05
5.783e-05
5.85517e-05
5.86154e-05
5.84173e-05
5.78444e-05
5.69127e-05
5.56429e-05
5.41203e-05
5.25174e-05
5.10902e-05
5.00971e-05
4.96248e-05
4.93646e-05
4.59875e-05
4.19841e-05
3.78294e-05
2.62846e-05
1.08502e-05
2.53439e-06
4.39688e-06
3.18068e-05
3.80603e-05
3.3548e-05
2.98154e-05
3.16891e-05
3.4824e-05
3.77799e-05
4.01622e-05
4.21423e-05
4.43976e-05
4.63772e-05
4.80025e-05
4.95157e-05
5.11111e-05
5.2844e-05
5.46597e-05
5.64674e-05
5.81561e-05
5.97593e-05
6.07557e-05
6.14346e-05
6.22385e-05
6.23478e-05
6.21548e-05
6.15729e-05
6.05872e-05
5.91755e-05
5.73591e-05
5.52555e-05
5.31227e-05
5.13256e-05
5.01593e-05
4.95432e-05
4.79936e-05
4.39125e-05
4.09015e-05
3.03414e-05
1.34093e-05
3.01365e-06
4.33868e-06
3.1538e-05
3.83261e-05
3.35031e-05
3.10868e-05
3.32218e-05
3.63282e-05
3.91095e-05
4.12104e-05
4.3274e-05
4.54842e-05
4.73877e-05
4.91113e-05
5.09018e-05
5.28803e-05
5.5028e-05
5.7237e-05
5.93731e-05
6.13055e-05
6.30722e-05
6.41807e-05
6.48427e-05
6.56352e-05
6.5737e-05
6.55253e-05
6.49583e-05
6.40079e-05
6.26158e-05
6.07309e-05
5.83793e-05
5.57632e-05
5.3315e-05
5.1578e-05
5.08269e-05
5.0525e-05
4.60585e-05
4.27789e-05
3.34634e-05
1.57655e-05
3.45912e-06
4.20068e-06
3.0935e-05
3.81184e-05
3.36826e-05
3.21447e-05
3.44455e-05
3.74794e-05
4.00829e-05
4.20611e-05
4.42012e-05
4.63749e-05
4.83166e-05
5.02472e-05
5.23742e-05
5.47465e-05
5.72818e-05
5.98274e-05
6.22204e-05
6.43195e-05
6.61431e-05
6.72803e-05
6.78785e-05
6.85521e-05
6.8579e-05
6.83038e-05
6.77391e-05
6.68642e-05
6.55995e-05
6.3823e-05
6.14352e-05
5.84871e-05
5.53316e-05
5.2647e-05
5.11279e-05
5.08907e-05
4.82044e-05
4.43692e-05
3.65145e-05
1.80648e-05
3.89547e-06
3.96738e-06
3.00821e-05
3.77137e-05
3.39456e-05
3.29764e-05
3.53779e-05
3.83427e-05
4.07793e-05
4.27738e-05
4.49629e-05
4.71414e-05
4.92025e-05
5.13891e-05
5.38567e-05
5.65912e-05
5.9459e-05
6.22748e-05
6.48582e-05
6.70666e-05
6.88282e-05
6.99213e-05
7.0453e-05
7.09231e-05
7.08113e-05
7.04221e-05
6.98244e-05
6.90254e-05
6.79487e-05
6.64315e-05
6.42694e-05
6.13441e-05
5.78398e-05
5.44094e-05
5.19664e-05
5.09387e-05
4.94759e-05
4.53844e-05
3.88054e-05
2.02849e-05
4.32101e-06
3.69414e-06
2.90606e-05
3.71266e-05
3.41863e-05
3.36056e-05
3.6063e-05
3.89712e-05
4.13022e-05
4.33664e-05
4.55934e-05
4.7816e-05
5.00352e-05
5.24792e-05
5.52531e-05
5.82927e-05
6.14264e-05
6.44452e-05
6.71556e-05
6.94079e-05
7.11067e-05
7.2092e-05
7.25274e-05
7.27578e-05
7.24642e-05
7.19198e-05
7.1246e-05
7.04903e-05
6.95989e-05
6.83958e-05
6.6596e-05
6.39093e-05
6.0292e-05
5.62812e-05
5.30301e-05
5.1467e-05
5.08511e-05
4.64322e-05
4.07493e-05
2.23753e-05
4.7445e-06
3.37247e-06
2.80271e-05
3.6413e-05
3.43732e-05
3.4045e-05
3.65079e-05
3.94025e-05
4.17179e-05
4.38508e-05
4.61125e-05
4.84001e-05
5.07786e-05
5.3447e-05
5.64686e-05
5.97435e-05
6.3074e-05
6.62354e-05
6.90243e-05
7.12853e-05
7.29224e-05
7.37841e-05
7.41039e-05
7.40964e-05
7.36077e-05
7.28874e-05
7.21031e-05
7.135e-05
7.06114e-05
6.9729e-05
6.83796e-05
6.61324e-05
6.26841e-05
5.82968e-05
5.41707e-05
5.18794e-05
5.15568e-05
4.7357e-05
4.22762e-05
2.44243e-05
5.1664e-06
3.05187e-06
2.6904e-05
3.55763e-05
3.44516e-05
3.43348e-05
3.68024e-05
3.96829e-05
4.20295e-05
4.42269e-05
4.65212e-05
4.88743e-05
5.13852e-05
5.42239e-05
5.74221e-05
6.08568e-05
6.43164e-05
6.75665e-05
7.0397e-05
7.26486e-05
7.42265e-05
7.49896e-05
7.51892e-05
7.49791e-05
7.4312e-05
7.34189e-05
7.25067e-05
7.1721e-05
7.10868e-05
7.04867e-05
6.95998e-05
6.79012e-05
6.4859e-05
6.03857e-05
5.55072e-05
5.22183e-05
5.15682e-05
4.84974e-05
4.35286e-05
2.62888e-05
5.58597e-06
2.68903e-06
2.59575e-05
3.46926e-05
3.44554e-05
3.44972e-05
3.68617e-05
3.98128e-05
4.2239e-05
4.44964e-05
4.68158e-05
4.92179e-05
5.18195e-05
5.47587e-05
5.80508e-05
6.15674e-05
6.50903e-05
6.8379e-05
7.12187e-05
7.34473e-05
7.49689e-05
7.57008e-05
7.57664e-05
7.5433e-05
7.46316e-05
7.35878e-05
7.25479e-05
7.17127e-05
7.11382e-05
7.07658e-05
7.0312e-05
6.91982e-05
6.67183e-05
6.24183e-05
5.69929e-05
5.2693e-05
5.13445e-05
4.93883e-05
4.46369e-05
2.81084e-05
6.00661e-06
2.39777e-06
2.46464e-05
3.37344e-05
3.43094e-05
3.45363e-05
3.69308e-05
3.97927e-05
4.23186e-05
4.46361e-05
4.69739e-05
4.9399e-05
5.2026e-05
5.49991e-05
5.83231e-05
6.1851e-05
6.53653e-05
6.86319e-05
7.1441e-05
7.36331e-05
7.51101e-05
7.58326e-05
7.58581e-05
7.53628e-05
7.44699e-05
7.33331e-05
7.22528e-05
7.14093e-05
7.08635e-05
7.06636e-05
7.05981e-05
7.00548e-05
6.82256e-05
6.43194e-05
5.85799e-05
5.33237e-05
5.11048e-05
5.00659e-05
4.56428e-05
2.97409e-05
6.42275e-06
2.1521e-06
2.31889e-05
3.23763e-05
3.43545e-05
3.45079e-05
3.65949e-05
3.96716e-05
4.2278e-05
4.46552e-05
4.69983e-05
4.94106e-05
5.20582e-05
5.49845e-05
5.81724e-05
6.15646e-05
6.49693e-05
6.81601e-05
7.09295e-05
7.31153e-05
7.46122e-05
7.53767e-05
7.54356e-05
7.48563e-05
7.39552e-05
7.27369e-05
7.15421e-05
7.06055e-05
7.01532e-05
7.02477e-05
7.05439e-05
7.0522e-05
6.93636e-05
6.59947e-05
6.0156e-05
5.40896e-05
5.10425e-05
5.03801e-05
4.65888e-05
3.13082e-05
6.83872e-06
1.93556e-06
2.16096e-05
3.08089e-05
3.40752e-05
3.44297e-05
3.64284e-05
3.92702e-05
4.20683e-05
4.44947e-05
4.68421e-05
4.92426e-05
5.16786e-05
5.44148e-05
5.75379e-05
6.085e-05
6.41716e-05
6.72981e-05
7.00312e-05
7.22062e-05
7.37097e-05
7.4493e-05
7.45805e-05
7.40509e-05
7.33558e-05
7.22297e-05
7.09796e-05
6.99182e-05
6.93972e-05
6.94785e-05
7.00011e-05
7.05572e-05
7.01644e-05
6.74127e-05
6.163e-05
5.48885e-05
5.1147e-05
5.05069e-05
4.73844e-05
3.27999e-05
7.2469e-06
1.73968e-06
1.9967e-05
2.90909e-05
3.37885e-05
3.43062e-05
3.61314e-05
3.88261e-05
4.16785e-05
4.42307e-05
4.65655e-05
4.87869e-05
5.12455e-05
5.39788e-05
5.69274e-05
6.00565e-05
6.32072e-05
6.61859e-05
6.88027e-05
7.09005e-05
7.23682e-05
7.31568e-05
7.32747e-05
7.27616e-05
7.21768e-05
7.11837e-05
7.00618e-05
6.92773e-05
6.88913e-05
6.89362e-05
6.95397e-05
7.04574e-05
7.06068e-05
6.86495e-05
6.29389e-05
5.56059e-05
5.11562e-05
5.05418e-05
4.80889e-05
3.42451e-05
7.64976e-06
1.55696e-06
1.82829e-05
2.72897e-05
3.32773e-05
3.40436e-05
3.56368e-05
3.84041e-05
4.10348e-05
4.36448e-05
4.59925e-05
4.82897e-05
5.06723e-05
5.31518e-05
5.58209e-05
5.86602e-05
6.15447e-05
6.43031e-05
6.67643e-05
6.87868e-05
7.02662e-05
7.1149e-05
7.14264e-05
7.10517e-05
7.06064e-05
6.97947e-05
6.87718e-05
6.80288e-05
6.77279e-05
6.81335e-05
6.9179e-05
7.03335e-05
7.0786e-05
6.93854e-05
6.42895e-05
5.62281e-05
5.10986e-05
5.04689e-05
4.86719e-05
3.56245e-05
8.03969e-06
1.38511e-06
1.66008e-05
2.55724e-05
3.22095e-05
3.39876e-05
3.52053e-05
3.77432e-05
4.04863e-05
4.29489e-05
4.53479e-05
4.76067e-05
4.97812e-05
5.20527e-05
5.44738e-05
5.7024e-05
5.96242e-05
6.21458e-05
6.44416e-05
6.63737e-05
6.78438e-05
6.87975e-05
6.92236e-05
6.90227e-05
6.87239e-05
6.81359e-05
6.73379e-05
6.67617e-05
6.65881e-05
6.70483e-05
6.82174e-05
6.97935e-05
7.08542e-05
6.98124e-05
6.51603e-05
5.67166e-05
5.08622e-05
5.01854e-05
4.92077e-05
3.69507e-05
8.4172e-06
1.21855e-06
1.49183e-05
2.38765e-05
3.06833e-05
3.37991e-05
3.48221e-05
3.69013e-05
3.97854e-05
4.22377e-05
4.45178e-05
4.66669e-05
4.87375e-05
5.08167e-05
5.29754e-05
5.52265e-05
5.7525e-05
5.97786e-05
6.1871e-05
6.36854e-05
6.51287e-05
6.6147e-05
6.67373e-05
6.67472e-05
6.66038e-05
6.62703e-05
6.57836e-05
6.54314e-05
6.54451e-05
6.6066e-05
6.74113e-05
6.92166e-05
7.05982e-05
7.01585e-05
6.56439e-05
5.70889e-05
5.04967e-05
4.97158e-05
4.96231e-05
3.81584e-05
8.77509e-06
1.05831e-06
1.32861e-05
2.20744e-05
2.89333e-05
3.34979e-05
3.44258e-05
3.61578e-05
3.87519e-05
4.1452e-05
4.3703e-05
4.57386e-05
4.76136e-05
4.94809e-05
5.13826e-05
5.33412e-05
5.53385e-05
5.73163e-05
5.91895e-05
6.08657e-05
6.22618e-05
6.333e-05
6.4112e-05
6.42544e-05
6.43335e-05
6.43267e-05
6.41352e-05
6.40507e-05
6.42864e-05
6.50773e-05
6.65589e-05
6.85251e-05
7.01099e-05
6.99477e-05
6.61783e-05
5.70259e-05
4.99578e-05
4.90489e-05
4.99466e-05
3.93014e-05
9.11483e-06
8.98893e-07
1.16927e-05
2.06165e-05
2.66965e-05
3.26106e-05
3.41626e-05
3.55152e-05
3.76331e-05
4.03024e-05
4.26778e-05
4.46715e-05
4.64093e-05
4.80831e-05
4.9749e-05
5.14395e-05
5.3157e-05
5.48712e-05
5.65262e-05
5.80554e-05
5.93851e-05
6.0495e-05
6.14397e-05
6.16988e-05
6.20079e-05
6.23429e-05
6.24467e-05
6.26444e-05
6.31172e-05
6.40785e-05
6.56514e-05
6.76732e-05
6.93025e-05
6.92234e-05
6.58475e-05
5.66682e-05
4.92808e-05
4.80681e-05
5.0162e-05
4.02927e-05
9.42995e-06
7.58597e-07
1.03726e-05
1.93482e-05
2.45912e-05
3.07912e-05
3.38574e-05
3.50378e-05
3.67586e-05
3.90122e-05
4.14219e-05
4.34762e-05
4.51737e-05
4.66947e-05
4.81553e-05
4.96079e-05
5.10742e-05
5.25472e-05
5.39953e-05
5.53784e-05
5.66195e-05
5.78397e-05
5.87124e-05
5.91783e-05
5.98009e-05
6.03522e-05
6.07403e-05
6.1212e-05
6.19102e-05
6.30184e-05
6.46129e-05
6.65634e-05
6.80531e-05
6.78547e-05
6.47233e-05
5.57951e-05
4.81107e-05
4.67763e-05
5.02681e-05
4.11673e-05
9.7248e-06
6.40757e-07
9.26016e-06
1.84525e-05
2.2718e-05
2.86163e-05
3.30644e-05
3.46172e-05
3.61068e-05
3.79017e-05
4.00318e-05
4.21015e-05
4.38454e-05
4.52881e-05
4.66031e-05
4.78697e-05
4.91313e-05
5.04014e-05
5.16699e-05
5.29098e-05
5.40925e-05
5.5357e-05
5.60927e-05
5.68097e-05
5.76779e-05
5.83854e-05
5.90115e-05
5.97137e-05
6.05843e-05
6.17758e-05
6.32796e-05
6.49994e-05
6.61279e-05
6.56221e-05
6.23302e-05
5.39619e-05
4.63755e-05
4.52383e-05
5.01791e-05
4.1838e-05
9.99736e-06
5.36614e-07
8.38788e-06
1.79774e-05
2.13323e-05
2.65672e-05
3.15562e-05
3.39841e-05
3.56242e-05
3.7269e-05
3.89788e-05
4.07808e-05
4.25266e-05
4.3961e-05
4.51943e-05
4.63247e-05
4.74194e-05
4.85108e-05
4.96228e-05
5.06947e-05
5.19024e-05
5.30034e-05
5.36745e-05
5.46262e-05
5.56081e-05
5.64092e-05
5.71895e-05
5.80332e-05
5.89643e-05
6.01167e-05
6.13547e-05
6.26528e-05
6.31725e-05
6.22294e-05
5.87064e-05
5.12132e-05
4.46163e-05
4.33961e-05
4.97828e-05
4.21462e-05
1.0258e-05
4.4077e-07
7.7901e-06
1.7495e-05
2.08418e-05
2.49471e-05
2.98136e-05
3.32336e-05
3.50966e-05
3.67196e-05
3.82691e-05
3.97689e-05
4.12155e-05
4.26043e-05
4.37967e-05
4.48499e-05
4.58426e-05
4.68115e-05
4.77974e-05
4.87612e-05
4.98867e-05
5.08159e-05
5.15534e-05
5.25111e-05
5.34588e-05
5.42944e-05
5.50846e-05
5.59137e-05
5.67083e-05
5.76238e-05
5.83475e-05
5.90235e-05
5.87079e-05
5.73047e-05
5.35818e-05
4.73605e-05
4.23604e-05
4.22147e-05
4.91821e-05
4.17265e-05
1.05207e-05
3.84803e-07
7.68594e-06
1.6824e-05
2.08437e-05
2.35258e-05
2.80296e-05
3.22539e-05
3.49834e-05
3.6775e-05
3.83262e-05
3.9706e-05
4.09558e-05
4.20679e-05
4.307e-05
4.39576e-05
4.47873e-05
4.55716e-05
4.63939e-05
4.71345e-05
4.8109e-05
4.89066e-05
4.94472e-05
5.02432e-05
5.10217e-05
5.16871e-05
5.22497e-05
5.2819e-05
5.31855e-05
5.36053e-05
5.35418e-05
5.34694e-05
5.22499e-05
5.05921e-05
4.70125e-05
4.23331e-05
3.89916e-05
4.05651e-05
4.83051e-05
4.12424e-05
1.07602e-05
3.89923e-07
8.55883e-06
1.6291e-05
2.08681e-05
2.34465e-05
2.68752e-05
3.06766e-05
3.42275e-05
3.6772e-05
3.8391e-05
3.96984e-05
4.078e-05
4.16997e-05
4.25161e-05
4.32657e-05
4.39408e-05
4.45981e-05
4.51443e-05
4.56483e-05
4.60385e-05
4.66628e-05
4.68365e-05
4.7098e-05
4.74786e-05
4.77055e-05
4.77485e-05
4.77697e-05
4.74229e-05
4.71583e-05
4.62315e-05
4.55564e-05
4.37943e-05
4.24372e-05
3.97113e-05
3.74696e-05
3.64414e-05
3.95009e-05
4.72455e-05
4.03944e-05
1.08491e-05
5.23066e-07
1.0531e-05
1.67403e-05
2.1335e-05
2.42178e-05
2.74848e-05
3.09318e-05
3.43809e-05
3.75079e-05
4.01331e-05
4.17138e-05
4.29015e-05
4.36945e-05
4.40956e-05
4.42313e-05
4.41719e-05
4.39877e-05
4.37326e-05
4.34525e-05
4.30821e-05
4.2779e-05
4.23542e-05
4.20989e-05
4.1663e-05
4.10914e-05
4.04635e-05
3.98437e-05
3.8896e-05
3.81755e-05
3.69535e-05
3.63191e-05
3.50159e-05
3.47325e-05
3.37169e-05
3.42859e-05
3.53869e-05
3.9836e-05
4.58254e-05
3.82915e-05
1.08607e-05
7.88592e-07
1.3391e-05
1.88025e-05
2.25817e-05
2.59073e-05
2.92719e-05
3.27473e-05
3.55393e-05
3.79675e-05
4.02737e-05
4.20759e-05
4.28664e-05
4.30845e-05
4.28728e-05
4.22077e-05
4.14349e-05
4.05736e-05
3.96336e-05
3.86705e-05
3.76916e-05
3.6475e-05
3.56628e-05
3.47108e-05
3.35802e-05
3.26333e-05
3.17916e-05
3.10787e-05
3.05136e-05
3.01912e-05
2.98378e-05
3.01041e-05
3.02453e-05
3.13875e-05
3.23383e-05
3.47803e-05
3.74346e-05
4.22379e-05
4.38055e-05
3.65564e-05
1.05771e-05
1.28519e-06
1.73143e-05
2.06465e-05
2.46205e-05
2.81635e-05
3.13296e-05
3.42191e-05
3.64144e-05
3.76269e-05
3.85936e-05
3.93649e-05
3.9417e-05
3.90733e-05
3.84201e-05
3.75798e-05
3.65717e-05
3.53709e-05
3.41883e-05
3.31282e-05
3.22692e-05
3.13002e-05
3.04553e-05
2.98578e-05
2.94535e-05
2.91671e-05
2.91576e-05
2.92764e-05
2.97175e-05
3.03345e-05
3.12726e-05
3.25733e-05
3.3904e-05
3.60103e-05
3.78443e-05
4.09606e-05
4.32571e-05
4.56353e-05
4.24346e-05
3.32208e-05
1.00056e-05
2.28187e-06
2.07044e-05
2.32281e-05
2.75272e-05
3.05787e-05
3.2877e-05
3.45865e-05
3.58571e-05
3.63171e-05
3.6566e-05
3.67977e-05
3.68372e-05
3.67053e-05
3.64433e-05
3.62729e-05
3.59859e-05
3.57079e-05
3.54577e-05
3.5281e-05
3.52566e-05
3.53157e-05
3.55255e-05
3.57899e-05
3.62614e-05
3.67569e-05
3.74848e-05
3.82212e-05
3.91926e-05
4.02056e-05
4.13896e-05
4.27448e-05
4.39884e-05
4.59253e-05
4.66287e-05
4.90834e-05
4.7834e-05
4.61109e-05
4.03951e-05
2.52918e-05
8.77278e-06
1.5463e-06
2.4322e-06
3.21295e-06
4.05193e-06
4.80486e-06
5.47679e-06
6.02878e-06
6.48914e-06
6.81824e-06
7.04746e-06
7.17989e-06
7.26361e-06
7.27127e-06
7.25737e-06
7.22557e-06
7.16821e-06
7.11024e-06
7.0445e-06
6.9914e-06
6.93576e-06
6.90339e-06
6.87097e-06
6.86762e-06
6.87554e-06
6.90218e-06
6.94088e-06
7.02709e-06
7.09607e-06
7.24515e-06
7.34369e-06
7.55917e-06
7.68432e-06
7.97074e-06
8.17907e-06
8.64757e-06
8.9185e-06
9.39264e-06
9.40056e-06
9.07625e-06
7.58126e-06
)
;

boundaryField
{
    movingWall
    {
        type            nutkWallFunction;
        Cmu             0.09;
        kappa           0.41;
        E               9.8;
        value           uniform 0;
    }
    fixedWalls
    {
        type            nutkWallFunction;
        Cmu             0.09;
        kappa           0.41;
        E               9.8;
        value           uniform 0;
    }
    frontAndBack
    {
        type            empty;
    }
}


// ************************************************************************* //
