/*--------------------------------*- C++ -*----------------------------------*\
  =========                 |
  \\      /  F ield         | OpenFOAM: The Open Source CFD Toolbox
   \\    /   O peration     | Website:  https://openfoam.org
    \\  /    A nd           | Version:  13
     \\/     M anipulation  |
\*---------------------------------------------------------------------------*/
FoamFile
{
    format      ascii;
    class       volScalarField;
    location    "5.5";
    object      p;
}
// * * * * * * * * * * * * * * * * * * * * * * * * * * * * * * * * * * * * * //

dimensions      [0 2 -2 0 0 0 0];

internalField   nonuniform List<scalar> 
1600
(
1.57222e-08
-1.65935e-05
-8.9466e-05
-0.000198723
-0.000302552
-0.000386716
-0.000463503
-0.000560717
-0.000689829
-0.000851107
-0.00105121
-0.00133922
-0.00173553
-0.0019829
-0.00215202
-0.00256815
-0.00325575
-0.00408159
-0.00490286
-0.00559019
-0.00604922
-0.00621072
-0.00602285
-0.00544155
-0.00447785
-0.00314726
-0.00145513
0.00054728
0.00275753
0.00497793
0.00694056
0.00834215
0.00896253
0.00876797
0.00782839
0.0068551
0.00625252
0.00614981
0.00623779
0.00627755
-1.37556e-05
-5.17596e-05
-0.000133126
-0.000240527
-0.000321655
-0.000370953
-0.000415921
-0.000493862
-0.00061284
-0.000755994
-0.0008869
-0.00107602
-0.00143906
-0.0019191
-0.002451
-0.00310007
-0.0038774
-0.00471775
-0.00551959
-0.00617983
-0.00661813
-0.00677598
-0.00660902
-0.0060919
-0.00521838
-0.00396472
-0.0023524
-0.000429244
0.00169798
0.00386627
0.00584015
0.00732801
0.00809026
0.00804359
0.00729705
0.00635027
0.00587914
0.00594701
0.00610227
0.00617693
-2.8948e-05
-0.000104648
-0.000213158
-0.000319487
-0.000372392
-0.000376373
-0.000376823
-0.000401233
-0.000469479
-0.000642291
-0.000954021
-0.00137752
-0.00192856
-0.00260477
-0.00338717
-0.0042404
-0.00511474
-0.00595808
-0.00671025
-0.00731132
-0.00770752
-0.00784644
-0.0076957
-0.00723426
-0.00643478
-0.00529063
-0.00381793
-0.00205543
-7.86049e-05
0.00199247
0.00396319
0.0055972
0.00665463
0.00698496
0.00666291
0.00606489
0.00575702
0.00582163
0.00597608
0.00602635
-2.10451e-05
-0.000134646
-0.000283995
-0.000381298
-0.00040031
-0.000373877
-0.000362539
-0.000409404
-0.000562027
-0.000898497
-0.00145653
-0.00218822
-0.00302178
-0.00391852
-0.00485698
-0.00579919
-0.0066996
-0.00752204
-0.00822938
-0.00878364
-0.00914117
-0.00925768
-0.00911154
-0.00868633
-0.00796778
-0.00695114
-0.00564766
-0.00408365
-0.00230802
-0.000397019
0.00151846
0.00326782
0.00464432
0.00548631
0.00580893
0.00579892
0.00580961
0.00584562
0.00591823
0.00591592
0.000102829
-6.55373e-05
-0.000239534
-0.00033604
-0.000361514
-0.000364293
-0.000418785
-0.000602123
-0.000983619
-0.00160641
-0.00245022
-0.00343648
-0.00448259
-0.00553354
-0.00655644
-0.00752969
-0.00843267
-0.0092448
-0.00992349
-0.0104307
-0.0107354
-0.0108259
-0.0106882
-0.0103085
-0.00967521
-0.00878818
-0.00765154
-0.00627905
-0.00470079
-0.00297235
-0.0011747
0.000587259
0.0021929
0.00353102
0.00454858
0.00526005
0.00572718
0.00594531
0.00590733
0.00584061
0.000404031
0.000166459
-2.74379e-05
-0.000156196
-0.000246474
-0.000366301
-0.00060698
-0.00105449
-0.00175324
-0.00268429
-0.00377651
-0.00494451
-0.00612182
-0.00725918
-0.0083339
-0.00932809
-0.0102156
-0.0109715
-0.011573
-0.0120105
-0.0122696
-0.0123408
-0.0122157
-0.0118837
-0.0113379
-0.0105779
-0.00960513
-0.00842532
-0.00705172
-0.00551066
-0.00384507
-0.00211671
-0.000395487
0.00127604
0.00285223
0.0042355
0.00526563
0.0058507
0.0058376
0.00572819
0.000860658
0.000573054
0.000330719
0.000125838
-0.000101005
-0.000438453
-0.000974767
-0.00176291
-0.00278916
-0.00398722
-0.00526769
-0.00655934
-0.00781088
-0.00898511
-0.0100593
-0.0110161
-0.0118443
-0.0125309
-0.0130673
-0.0134495
-0.0136708
-0.0137258
-0.0136094
-0.013316
-0.0128425
-0.0121886
-0.0113548
-0.0103435
-0.00915893
-0.00780912
-0.00630769
-0.00467424
-0.00292645
-0.00107546
0.000846574
0.00273604
0.00434387
0.00539939
0.00576724
0.00555483
0.00140823
0.00107902
0.000745931
0.000414862
-1.95421e-05
-0.000652789
-0.00153951
-0.00267041
-0.00398204
-0.00538244
-0.00679141
-0.00815313
-0.00942722
-0.0105882
-0.0116223
-0.012522
-0.0132849
-0.0139078
-0.0143887
-0.0147258
-0.0149166
-0.0149588
-0.0148502
-0.0145883
-0.0141725
-0.0136026
-0.0128794
-0.0120031
-0.0109735
-0.00978899
-0.00844657
-0.00694005
-0.00525519
-0.00336881
-0.00127747
0.000929676
0.0030055
0.00462265
0.00551598
0.00520774
0.00189883
0.00150315
0.00107153
0.000582983
-0.000104947
-0.00106403
-0.0022873
-0.00371281
-0.00523932
-0.00677625
-0.00825803
-0.00964225
-0.0109012
-0.0120224
-0.0130022
-0.0138416
-0.0145437
-0.0151105
-0.0155436
-0.0158438
-0.016011
-0.0160449
-0.0159446
-0.0157098
-0.0153406
-0.0148375
-0.0142014
-0.013432
-0.012527
-0.0114802
-0.0102791
-0.00890366
-0.00732291
-0.00549429
-0.00337842
-0.00101016
0.00139342
0.0034965
0.004849
0.0049187
0.00218084
0.00172541
0.00118769
0.000523206
-0.000426764
-0.0016882
-0.00318988
-0.00483063
-0.0064996
-0.00811266
-0.00961974
-0.0109913
-0.0122129
-0.0132831
-0.0142058
-0.0149879
-0.015636
-0.0161552
-0.0165496
-0.0168216
-0.0169725
-0.0170026
-0.0169119
-0.0167007
-0.0163694
-0.015919
-0.0153504
-0.0146637
-0.0138564
-0.0129212
-0.0118427
-0.0105953
-0.00914077
-0.0074265
-0.00538738
-0.00299791
-0.000427644
0.00197581
0.00381986
0.0047919
0.00215772
0.0016555
0.00101614
0.000182092
-0.00100313
-0.0025031
-0.00420655
-0.00597826
-0.00772348
-0.00936119
-0.0108572
-0.0121928
-0.0133651
-0.0143805
-0.0152483
-0.015979
-0.0165815
-0.0170629
-0.0174281
-0.0176805
-0.0178215
-0.017852
-0.0177721
-0.0175822
-0.0172828
-0.0168748
-0.0163593
-0.0157368
-0.0150054
-0.0141587
-0.0131826
-0.0120514
-0.0107266
-0.009155
-0.00726304
-0.0049783
-0.00238061
0.000138318
0.00232062
0.00382159
0.00180396
0.00126524
0.000537664
-0.000438752
-0.00180126
-0.00346663
-0.00528312
-0.00711961
-0.00888398
-0.0105065
-0.0119655
-0.0132512
-0.014369
-0.0153304
-0.0161483
-0.0168351
-0.0174009
-0.0178534
-0.0181978
-0.0184375
-0.018574
-0.018608
-0.0185397
-0.0183694
-0.0180974
-0.0177246
-0.0172519
-0.0166802
-0.0160088
-0.0152334
-0.0143425
-0.0133143
-0.0121136
-0.0106908
-0.00897811
-0.00688358
-0.00438253
-0.00188209
0.0003321
0.00191129
0.00114087
0.000582665
-0.000207858
-0.00129171
-0.00276246
-0.00451613
-0.00637159
-0.00822022
-0.00996079
-0.0115406
-0.0129465
-0.0141753
-0.0152381
-0.0161493
-0.0169236
-0.0175741
-0.0181112
-0.0185423
-0.0188725
-0.0191046
-0.0192403
-0.0192798
-0.0192234
-0.0190712
-0.0188232
-0.0184801
-0.0180429
-0.0175126
-0.0168898
-0.0161722
-0.0153525
-0.0144139
-0.0133272
-0.0120488
-0.0105195
-0.00865337
-0.00638221
-0.00398096
-0.00192917
-0.000493416
0.000237329
-0.000321057
-0.00114515
-0.00229412
-0.00381771
-0.00558869
-0.007432
-0.00925068
-0.010939
-0.0124598
-0.0138044
-0.0149749
-0.0159855
-0.0168518
-0.017589
-0.0182102
-0.018725
-0.0191405
-0.019461
-0.0196891
-0.0198261
-0.0198721
-0.0198273
-0.0196915
-0.0194648
-0.0191473
-0.0187402
-0.0182447
-0.0176622
-0.0169929
-0.0162333
-0.0153725
-0.0143886
-0.0132452
-0.0118917
-0.0102592
-0.00827582
-0.00605819
-0.00425642
-0.0030456
-0.00081085
-0.00135629
-0.00218944
-0.00335993
-0.00488648
-0.00662602
-0.00842911
-0.0101885
-0.0118085
-0.0132625
-0.0145441
-0.0156588
-0.0166218
-0.0174491
-0.0181554
-0.0187529
-0.0192506
-0.0196546
-0.0199686
-0.0201948
-0.0203342
-0.020387
-0.0203529
-0.0202319
-0.0200236
-0.0197284
-0.0193471
-0.0188812
-0.0183329
-0.0177044
-0.0169956
-0.0162016
-0.0153079
-0.0142867
-0.013097
-0.0116874
-0.0099889
-0.00802902
-0.00647419
-0.00548521
-0.00190847
-0.002429
-0.00325305
-0.00441098
-0.00590433
-0.00758599
-0.00933009
-0.0110158
-0.0125623
-0.0139487
-0.0151701
-0.0162339
-0.0171551
-0.0179492
-0.01863
-0.0192087
-0.019693
-0.0200884
-0.020398
-0.0206235
-0.0207658
-0.0208248
-0.0208004
-0.0206921
-0.0204998
-0.0202237
-0.0198644
-0.0194238
-0.0189046
-0.0183106
-0.0176447
-0.016907
-0.0160901
-0.015175
-0.0141297
-0.0129123
-0.0114709
-0.00982633
-0.00849942
-0.00767289
-0.00296597
-0.0034547
-0.00425507
-0.00538314
-0.00682467
-0.00843695
-0.0101111
-0.01172
-0.0131952
-0.0145184
-0.0156856
-0.0167049
-0.0175906
-0.0183572
-0.0190174
-0.019581
-0.020055
-0.020444
-0.0207505
-0.020976
-0.021121
-0.0211855
-0.0211691
-0.0210716
-0.0208927
-0.0206324
-0.0202916
-0.0198722
-0.0193774
-0.0188121
-0.0181819
-0.0174909
-0.0167382
-0.0159125
-0.0149893
-0.0139327
-0.0127094
-0.0113555
-0.0102425
-0.00954742
-0.00391606
-0.0043659
-0.00513336
-0.00622484
-0.0076104
-0.00915346
-0.0107564
-0.0122929
-0.0137037
-0.0149714
-0.0160923
-0.0170745
-0.0179312
-0.0186758
-0.0193198
-0.0198718
-0.0203381
-0.0207223
-0.0210267
-0.0212524
-0.0213998
-0.0214686
-0.0214587
-0.0213696
-0.0212012
-0.0209536
-0.0206276
-0.0202252
-0.01975
-0.0192078
-0.018606
-0.0179523
-0.0172512
-0.0164984
-0.0156753
-0.0147518
-0.0137122
-0.0126024
-0.011676
-0.0110834
-0.00470401
-0.00512015
-0.00584975
-0.00690237
-0.00823446
-0.00971692
-0.0112553
-0.0127288
-0.0140852
-0.0153071
-0.0163909
-0.0173439
-0.0181783
-0.0189062
-0.0195381
-0.0200818
-0.0205425
-0.0209235
-0.0212267
-0.0214527
-0.0216019
-0.0216739
-0.0216687
-0.0215857
-0.0214248
-0.0211863
-0.0208711
-0.0204812
-0.0200207
-0.0194956
-0.018915
-0.0182893
-0.0176272
-0.0169305
-0.016187
-0.0153729
-0.0144821
-0.0135554
-0.0127878
-0.0122817
-0.00530725
-0.00568194
-0.00637939
-0.00739773
-0.0086828
-0.0101161
-0.0116013
-0.0130239
-0.0143375
-0.0155246
-0.0165809
-0.0175129
-0.0183317
-0.0190483
-0.0196724
-0.0202108
-0.0206683
-0.0210476
-0.0213502
-0.0215768
-0.0217273
-0.0218014
-0.0217989
-0.0217195
-0.021563
-0.0213299
-0.0210211
-0.020639
-0.0201875
-0.0196734
-0.0191066
-0.0184993
-0.017864
-0.0172073
-0.0165237
-0.0157964
-0.0150228
-0.0142365
-0.0135925
-0.013154
-0.00570243
-0.006044
-0.0067179
-0.00770675
-0.00895044
-0.0103472
-0.0117909
-0.0131755
-0.014459
-0.0156224
-0.016661
-0.0175804
-0.0183903
-0.0191009
-0.0197215
-0.0202581
-0.0207148
-0.0210941
-0.0213973
-0.0216247
-0.0217761
-0.0218512
-0.0218497
-0.0217713
-0.0216159
-0.0213842
-0.0210771
-0.0206973
-0.0202489
-0.0197391
-0.0191782
-0.0185799
-0.0179594
-0.0173276
-0.0166853
-0.016023
-0.0153386
-0.0146552
-0.0141043
-0.0137189
-0.00587647
-0.00620286
-0.00686565
-0.00783354
-0.00904232
-0.01041
-0.0118228
-0.0131828
-0.0144481
-0.0155988
-0.0166292
-0.017544
-0.0183521
-0.0190629
-0.0196844
-0.0202226
-0.0206813
-0.0210627
-0.0213677
-0.0215965
-0.0217487
-0.0218238
-0.0218215
-0.0217415
-0.0215839
-0.0213493
-0.021039
-0.0206557
-0.020204
-0.0196911
-0.0191282
-0.0185283
-0.0179115
-0.0172904
-0.0166719
-0.0160541
-0.0154372
-0.014831
-0.0143467
-0.0139948
-0.00585786
-0.00617308
-0.00682998
-0.0077855
-0.00896726
-0.0103084
-0.011703
-0.0130485
-0.0143051
-0.0154522
-0.0164832
-0.0174015
-0.0182147
-0.0189314
-0.0195589
-0.0201029
-0.0205668
-0.0209527
-0.0212612
-0.0214922
-0.0216453
-0.0217198
-0.0217152
-0.0216311
-0.0214678
-0.0212258
-0.0209068
-0.0205139
-0.0200517
-0.0195278
-0.0189537
-0.0183444
-0.0177191
-0.0170949
-0.0164835
-0.0158902
-0.0153202
-0.0147699
-0.0143451
-0.0139975
-0.00568188
-0.00598409
-0.0066344
-0.00758135
-0.0087403
-0.010052
-0.0114346
-0.0127732
-0.0140286
-0.0151802
-0.0162199
-0.0171493
-0.0179747
-0.0187036
-0.0193426
-0.019897
-0.02037
-0.0207633
-0.0210774
-0.0213121
-0.0214666
-0.0215401
-0.0215317
-0.0214413
-0.0212689
-0.0210151
-0.0206819
-0.0202725
-0.0197921
-0.0192489
-0.0186548
-0.0180256
-0.0173808
-0.0167404
-0.0161205
-0.0155336
-0.0149917
-0.0144745
-0.014118
-0.0137394
-0.00538735
-0.00567442
-0.00631167
-0.00724505
-0.00838133
-0.00965766
-0.0110218
-0.0123575
-0.0136173
-0.0147797
-0.0158353
-0.0167832
-0.017628
-0.0183758
-0.0190325
-0.0196026
-0.0200891
-0.0204935
-0.0208161
-0.0210563
-0.0212131
-0.0212855
-0.0212724
-0.0211736
-0.0209888
-0.0207189
-0.0203658
-0.0199331
-0.0194266
-0.018855
-0.0182311
-0.0175715
-0.0168964
-0.016227
-0.0155841
-0.0149885
-0.0144603
-0.0139485
-0.0136375
-0.0132352
-0.00502465
-0.00529087
-0.0058998
-0.00680212
-0.00790749
-0.00914608
-0.0104754
-0.0118042
-0.01307
-0.0142475
-0.0153247
-0.0162981
-0.0171697
-0.0179438
-0.0186249
-0.0192169
-0.0197223
-0.0201422
-0.0204767
-0.0207248
-0.0208854
-0.0209571
-0.0209387
-0.0208295
-0.0206294
-0.020339
-0.0199604
-0.0194977
-0.0189569
-0.0183478
-0.0176839
-0.016983
-0.0162662
-0.0155559
-0.0148771
-0.0142615
-0.0137357
-0.0132031
-0.0129303
-0.0124986
-0.00465384
-0.00488583
-0.00544014
-0.00628408
-0.00733603
-0.00852667
-0.00980963
-0.0111192
-0.0123863
-0.0135797
-0.0146828
-0.0156882
-0.0165942
-0.0174024
-0.0181158
-0.0187368
-0.0192673
-0.019708
-0.0200585
-0.0203177
-0.0204842
-0.0205561
-0.0205321
-0.0204112
-0.020193
-0.0198781
-0.0194687
-0.018969
-0.0183859
-0.01773
-0.017016
-0.0162626
-0.0154922
-0.0147288
-0.0140019
-0.0133543
-0.0128167
-0.0122401
-0.0120266
-0.0115449
-0.00433421
-0.00450603
-0.00496822
-0.00572042
-0.00668996
-0.00780997
-0.00903303
-0.0103067
-0.0115659
-0.0127725
-0.0139041
-0.0149471
-0.0158952
-0.0167462
-0.0175004
-0.0181586
-0.0187216
-0.0191893
-0.0195611
-0.0198354
-0.0200105
-0.0200842
-0.0200549
-0.0199214
-0.0196829
-0.0193399
-0.0188946
-0.0183515
-0.0177183
-0.0170065
-0.016232
-0.015415
-0.0145794
-0.0137502
-0.0129625
-0.0122685
-0.0117007
-0.0110818
-0.0109306
-0.0103666
-0.00410293
-0.00417683
-0.00450773
-0.00513633
-0.00599335
-0.00701195
-0.00815234
-0.00937068
-0.0106086
-0.0118229
-0.0129833
-0.0140689
-0.0150667
-0.0159696
-0.0167742
-0.0174789
-0.0180827
-0.0185849
-0.0189841
-0.0192784
-0.0194657
-0.0195436
-0.0195102
-0.0193638
-0.0191035
-0.0187295
-0.0182442
-0.0176521
-0.0169616
-0.0161854
-0.0153408
-0.0144492
-0.0135363
-0.0126286
-0.0117667
-0.0110109
-0.0103953
-0.00971213
-0.00965004
-0.00893194
-0.00394467
-0.00387998
-0.00406997
-0.00455407
-0.00526658
-0.00614936
-0.00717652
-0.00831602
-0.00951631
-0.0107297
-0.0119173
-0.0130493
-0.0141042
-0.0150684
-0.0159336
-0.0166949
-0.0173492
-0.0178943
-0.0183281
-0.0186482
-0.0188522
-0.0189376
-0.018902
-0.0187436
-0.0184609
-0.0180544
-0.0175259
-0.0168806
-0.0161272
-0.0152794
-0.0143558
-0.0133792
-0.0123774
-0.0113784
-0.0104286
-0.00959396
-0.00890766
-0.00812765
-0.00818446
-0.00716466
-0.0037478
-0.00358155
-0.00366663
-0.00399126
-0.00452427
-0.00523505
-0.00611672
-0.00715151
-0.00829514
-0.00949649
-0.0107076
-0.0118881
-0.0130067
-0.0140415
-0.0149778
-0.0158064
-0.0165215
-0.0171189
-0.0175955
-0.0179484
-0.0181747
-0.0182719
-0.0182374
-0.0180688
-0.0177646
-0.0173253
-0.0167529
-0.0160521
-0.0152323
-0.0143077
-0.0132983
-0.0122275
-0.0111254
-0.0100221
-0.00896995
-0.00803725
-0.00725468
-0.00635754
-0.00649605
-0.00498515
-0.00347086
-0.00331028
-0.00331461
-0.00345878
-0.00377729
-0.00428062
-0.00498562
-0.00589002
-0.00695752
-0.00813436
-0.00936342
-0.0105928
-0.0117802
-0.0128937
-0.0139113
-0.0148181
-0.0156044
-0.016264
-0.0167923
-0.0171857
-0.017441
-0.0175556
-0.0175267
-0.0173517
-0.0170287
-0.0165589
-0.0159439
-0.0151885
-0.014302
-0.0132988
-0.0121991
-0.0110271
-0.00981455
-0.00859402
-0.00742426
-0.0063701
-0.00546368
-0.00443717
-0.00453019
-0.00237441
-0.00321834
-0.0031066
-0.00302198
-0.00296358
-0.00303535
-0.00329786
-0.00379806
-0.00455023
-0.00552508
-0.00666588
-0.00790653
-0.00918343
-0.0104423
-0.0116408
-0.012748
-0.0137424
-0.01461
-0.0153414
-0.0159303
-0.0163725
-0.0166643
-0.0168028
-0.0167856
-0.0166112
-0.0162745
-0.0157793
-0.015127
-0.0143217
-0.0133725
-0.0122928
-0.0111026
-0.00982497
-0.00849329
-0.00714182
-0.00583537
-0.00463016
-0.00356166
-0.00236313
-0.00222963
0.00058419
-0.00301867
-0.00295859
-0.00277527
-0.00250496
-0.00230504
-0.00229894
-0.0025725
-0.00315807
-0.00403079
-0.00512848
-0.00637559
-0.00769736
-0.00902798
-0.0103143
-0.0115162
-0.0126051
-0.0135616
-0.014373
-0.0150308
-0.0155298
-0.0158661
-0.0160361
-0.0160375
-0.0158686
-0.0155311
-0.0150205
-0.0143403
-0.0134952
-0.0124927
-0.0113441
-0.0100672
-0.00868243
-0.00722303
-0.00572185
-0.00424661
-0.00283963
-0.00154202
-7.75209e-05
0.000429619
0.00388909
-0.00281791
-0.00281715
-0.00253727
-0.00205972
-0.00157761
-0.0012925
-0.00133382
-0.00175079
-0.00252083
-0.00357526
-0.00482778
-0.0061925
-0.00759298
-0.00896615
-0.0102633
-0.0114489
-0.0124981
-0.0133944
-0.0141274
-0.01469
-0.0150782
-0.0152886
-0.0153191
-0.0151687
-0.014838
-0.0143246
-0.0136311
-0.012761
-0.01172
-0.0105146
-0.00915866
-0.00766612
-0.00606638
-0.00438341
-0.00267973
-0.000972596
0.000689402
0.00259765
0.00368792
0.00793775
-0.00258227
-0.00261498
-0.0022665
-0.00159153
-0.000838992
-0.000293062
-0.000120542
-0.000384474
-0.00106244
-0.00207942
-0.00333958
-0.00474648
-0.00621341
-0.00766884
-0.00905686
-0.0103357
-0.0114761
-0.0124579
-0.0132683
-0.0138987
-0.0143446
-0.0146028
-0.0146714
-0.0145494
-0.0142373
-0.013735
-0.0130428
-0.0121627
-0.0110994
-0.00985101
-0.00842498
-0.00682242
-0.00506219
-0.00314385
-0.00110923
0.00107766
0.00337042
0.00609808
0.00830387
0.0141616
-0.00230722
-0.00234699
-0.00191171
-0.00107089
-8.5546e-05
0.000669425
0.00100983
0.000867981
0.000263641
-0.000723606
-0.00199072
-0.00343385
-0.00495905
-0.00648782
-0.00795826
-0.00932326
-0.0105494
-0.0116134
-0.0125003
-0.0131998
-0.0137064
-0.0140167
-0.0141298
-0.0140442
-0.0137608
-0.0132779
-0.0125962
-0.0117134
-0.0106375
-0.00935551
-0.00786829
-0.00615367
-0.00420882
-0.00198208
0.000527411
0.00347538
0.00685281
0.0111848
0.0158783
0.0254587
-0.00215473
-0.00213845
-0.00154298
-0.000524016
0.000616635
0.00154114
0.00198863
0.0019229
0.00136052
0.000382454
-0.000901347
-0.00238063
-0.00395717
-0.00554779
-0.00708647
-0.00852198
-0.00981873
-0.0109508
-0.0119018
-0.01266
-0.0132196
-0.0135759
-0.0137292
-0.0136771
-0.0134212
-0.0129589
-0.0122928
-0.0114148
-0.0103187
-0.00899938
-0.00745685
-0.005634
-0.00349525
-0.000903763
0.00221339
0.00624939
0.0113321
0.0186517
0.0283936
0.044972
-0.00308945
-0.00245913
-0.00142098
-0.000106573
0.00122045
0.0022355
0.00275632
0.00273254
0.00219102
0.00121862
-7.40884e-05
-0.00157694
-0.00319094
-0.00482958
-0.00642333
-0.00791622
-0.00927051
-0.0104566
-0.011458
-0.0122608
-0.012861
-0.0132518
-0.0134351
-0.0134065
-0.0131701
-0.01272
-0.0120604
-0.0111806
-0.010084
-0.00875014
-0.00715771
-0.00524964
-0.00296147
-7.21199e-05
0.00363985
0.00894142
0.0164825
0.0285415
0.0464878
0.0730185
-0.00522286
-0.00163781
-6.8417e-05
0.00121669
0.00242439
0.00334507
0.00378722
0.00369123
0.00309068
0.00207444
0.00074545
-0.000795674
-0.00245376
-0.00414196
-0.0057874
-0.00733432
-0.00873954
-0.00997367
-0.0110158
-0.0118551
-0.0124838
-0.0129008
-0.0131024
-0.0130909
-0.0128631
-0.0124213
-0.0117584
-0.0108736
-0.00975022
-0.00838247
-0.00674867
-0.00484583
-0.00259117
0.000448935
0.00446262
0.0109381
0.0216792
0.0395244
0.067245
0.10214
)
;

boundaryField
{
    movingWall
    {
        type            zeroGradient;
    }
    fixedWalls
    {
        type            zeroGradient;
    }
    frontAndBack
    {
        type            empty;
    }
}


// ************************************************************************* //
