/*--------------------------------*- C++ -*----------------------------------*\
  =========                 |
  \\      /  F ield         | OpenFOAM: The Open Source CFD Toolbox
   \\    /   O peration     | Website:  https://openfoam.org
    \\  /    A nd           | Version:  13
     \\/     M anipulation  |
\*---------------------------------------------------------------------------*/
FoamFile
{
    format      ascii;
    class       volScalarField;
    location    "2000";
    object      k;
}
// * * * * * * * * * * * * * * * * * * * * * * * * * * * * * * * * * * * * * //

dimensions      [0 2 -2 0 0 0 0];

internalField   nonuniform List<scalar> 
12225
(
0.665546
1.67107
3.0172
2.26814
2.90271
3.27193
2.97192
3.59896
3.64634
3.30108
2.56486
1.57623
1.69851
1.20942
1.51017
1.05578
1.09982
1.14765
0.405263
0.333851
0.205419
0.0332528
0.0414734
0.0271132
0.0250099
0.0276291
0.0245346
0.0268572
0.0350438
0.0465881
0.0573085
0.0726261
0.0799491
0.091556
0.11964
0.0961806
0.392002
0.165022
0.232277
0.00801881
0.00893509
0.00630675
0.00531643
0.00490081
0.00053661
0.000347445
0.000462294
0.00127444
0.00163778
0.00223658
0.00280657
0.00341952
0.00391805
0.00321005
0.374645
0.288155
0.251529
0.051035
0.0260049
0.00760748
0.0034019
0.0020986
0.00097794
0.000479336
0.000501484
0.000214261
0.00026914
0.000175467
0.00014041
0.000194692
0.000194215
0.000313958
0.374418
0.361402
0.338528
0.292886
0.213573
0.189729
0.126495
0.0966538
0.059492
0.0345621
0.0181362
0.0076543
0.00688194
0.00527311
0.00432711
0.00272167
0.00140992
0.0011491
0.375128
0.368779
0.360987
0.346886
0.311481
0.290595
0.26514
0.23401
0.189433
0.135788
0.0890177
0.0549983
0.0347143
0.0237157
0.0186295
0.0151475
0.012326
0.0125567
0.374181
0.371129
0.367461
0.362104
0.350068
0.337529
0.326353
0.310077
0.280784
0.249038
0.212795
0.182283
0.157126
0.138624
0.125917
0.115963
0.11207
0.10902
0.373805
0.371776
0.369029
0.366163
0.360597
0.353683
0.347235
0.341324
0.328792
0.316035
0.302
0.289644
0.278442
0.269518
0.260631
0.255555
0.24968
0.244577
0.373709
0.371802
0.369552
0.367231
0.364052
0.359775
0.355308
0.351807
0.346157
0.340154
0.333799
0.328221
0.323038
0.318984
0.314634
0.311363
0.3087
0.305149
0.373734
0.371678
0.369581
0.367471
0.365211
0.362418
0.359391
0.356691
0.353598
0.350208
0.346796
0.343421
0.340547
0.337834
0.335714
0.333521
0.332092
0.329959
0.373782
0.371597
0.369503
0.367455
0.36548
0.363352
0.361126
0.358965
0.356789
0.354497
0.352233
0.349945
0.347904
0.345929
0.344291
0.342683
0.341448
0.340005
0.37381
0.371566
0.369456
0.367414
0.365495
0.36358
0.361688
0.35982
0.358001
0.356156
0.354362
0.352565
0.350903
0.349291
0.347862
0.346482
0.345314
0.344091
0.373824
0.371555
0.369426
0.367388
0.365467
0.363619
0.361848
0.360126
0.358475
0.35685
0.355289
0.353749
0.352299
0.350893
0.349597
0.348346
0.347218
0.346099
0.373827
0.371554
0.36941
0.367371
0.365443
0.363605
0.361864
0.360195
0.358607
0.357077
0.355617
0.354206
0.352861
0.35157
0.350346
0.349178
0.348076
0.347021
0.373827
0.371553
0.369401
0.36736
0.365425
0.363588
0.361843
0.360185
0.358607
0.357104
0.35567
0.354301
0.352993
0.351746
0.350554
0.349417
0.348334
0.347299
0.373826
0.371552
0.369396
0.367352
0.365413
0.363572
0.361825
0.360162
0.358585
0.357079
0.355651
0.354284
0.352987
0.351743
0.350563
0.349428
0.348354
0.347319
0.373825
0.37155
0.369392
0.367346
0.365405
0.363561
0.36181
0.360147
0.358563
0.357058
0.355623
0.354258
0.352954
0.351713
0.350527
0.349398
0.348315
0.347287
0.373825
0.371549
0.369391
0.367343
0.3654
0.363555
0.361802
0.360136
0.35855
0.357043
0.355604
0.354237
0.35293
0.351688
0.350498
0.349368
0.348283
0.347254
0.373825
0.371549
0.369391
0.367343
0.365399
0.363554
0.361799
0.360133
0.358545
0.357036
0.355597
0.354228
0.35292
0.351676
0.350485
0.349354
0.348268
0.347238
0.373825
0.371551
0.369392
0.367347
0.365402
0.36356
0.361804
0.360141
0.358551
0.357045
0.355603
0.354237
0.352926
0.351685
0.350492
0.349364
0.348277
0.347249
0.373825
0.371553
0.369396
0.367351
0.365412
0.363568
0.361818
0.360152
0.35857
0.357059
0.355626
0.354254
0.352952
0.351705
0.350522
0.349387
0.348309
0.347272
0.373826
0.371556
0.369401
0.367361
0.365421
0.363584
0.361835
0.360175
0.358594
0.35709
0.355658
0.354292
0.352991
0.35175
0.350567
0.34944
0.348352
0.347311
0.37383
0.371563
0.369407
0.367368
0.365432
0.3636
0.36186
0.360209
0.358637
0.357142
0.355715
0.354358
0.353056
0.351825
0.350635
0.34951
0.348374
0.347275
0.373854
0.371568
0.369386
0.367334
0.365404
0.363596
0.361887
0.36027
0.358723
0.357245
0.355822
0.354465
0.353143
0.351904
0.350653
0.34949
0.348184
0.346901
0.373981
0.371499
0.369169
0.367022
0.365126
0.363425
0.361854
0.360377
0.358888
0.357446
0.355967
0.35459
0.353117
0.35184
0.350351
0.349113
0.347391
0.345788
0.374409
0.371006
0.36821
0.365612
0.363787
0.362483
0.361372
0.360463
0.359146
0.357786
0.356101
0.354634
0.352701
0.351305
0.349262
0.347811
0.345484
0.343225
0.375189
0.369863
0.365765
0.360262
0.358479
0.357321
0.357194
0.359564
0.359245
0.358487
0.356661
0.354893
0.352147
0.350332
0.347412
0.345454
0.342411
0.339411
0.376072
0.373867
0.363434
0.358336
0.356788
0.355873
0.357053
0.364798
0.360621
0.36476
0.365535
0.364235
0.361972
0.360321
0.357972
0.356713
0.354985
0.353
0.386528
0.419732
0.402339
0.411094
0.439766
0.464674
0.488259
0.506866
0.523895
0.536652
0.550024
0.560754
0.574476
0.586293
0.601288
0.61462
0.628371
0.640956
0.916149
1.24839
1.45556
1.55684
1.60411
1.5983
1.57506
1.54685
1.50914
1.47142
1.43554
1.4022
1.37179
1.34454
1.31996
1.29851
1.27918
1.26233
1.48543e-08
3.66721e-07
1.8876e-06
7.49934e-06
2.53247e-05
7.71432e-05
0.000208165
0.000421378
0.000693033
0.000978958
0.00123977
0.0014389
0.00157498
0.00162187
0.00160134
0.00153045
0.00140318
0.00119071
0.00100801
0.000853069
0.000708735
0.000568274
0.000434555
0.00030993
0.000200729
0.000117048
6.23366e-05
3.16763e-05
1.63177e-05
8.94288e-06
5.44515e-06
4.10469e-06
4.53845e-06
6.44439e-06
4.56343e-05
9.00361e-05
0.000322745
0.000701631
0.00105276
0.00116126
0.00107199
0.000854188
0.000688858
0.000632753
0.000670874
0.000883486
0.00115332
0.00217085
0.00457635
0.0129004
0.0374697
0.0725681
0.099918
0.105593
0.0899443
0.124755
0.135634
0.182469
0.173972
0.167046
0.179513
0.169238
0.142022
0.164665
0.169513
0.180398
0.187426
0.196023
0.203992
0.211673
0.219588
0.227056
0.234708
0.242078
0.249514
0.25678
0.26405
0.271206
0.27833
0.285367
0.292348
0.299256
0.306088
0.312851
0.319518
0.326117
0.332606
0.339021
0.345315
0.351511
0.357564
0.363485
0.369257
0.374878
0.380329
0.38561
0.390703
0.395623
0.400365
0.404982
0.409516
0.413926
0.418184
0.42232
0.426317
0.430177
0.433902
0.437473
0.440906
0.444175
0.447304
0.450259
0.453073
0.455706
0.458196
0.460501
0.462661
0.464633
0.46645
0.468077
0.469548
0.470843
0.471993
0.472968
0.473792
0.474427
0.474896
0.475154
0.475212
0.475092
0.474933
0.474617
0.474077
0.473557
0.473032
0.472248
0.471206
0.470141
0.468835
0.467472
0.46594
0.464357
0.462578
0.460765
0.45884
0.456828
0.454731
0.452545
0.450278
0.447928
0.445507
0.442974
0.440428
0.43772
0.435048
0.432181
0.429395
0.426396
0.423525
0.42044
0.417486
0.414419
0.41132
0.408209
0.405048
0.401874
0.398666
0.395451
0.392213
0.388979
0.385733
0.382497
0.379246
0.375981
0.372651
0.369183
0.365454
0.361157
0.355545
0.339205
7.15218e-08
2.02602e-06
1.36912e-05
5.88961e-05
0.00022227
0.000643688
0.00155409
0.002857
0.00438702
0.00596636
0.00742097
0.00861877
0.00951247
0.0100712
0.0103642
0.0103206
0.0101636
0.00981101
0.00924416
0.00845211
0.00746307
0.00631513
0.00507743
0.00381518
0.00263342
0.00173338
0.00109397
0.000672738
0.000405917
0.000246871
0.00015775
0.00011599
9.66379e-05
4.46098e-05
0.000593628
0.000994363
0.00330774
0.00670625
0.0097045
0.0114312
0.0113894
0.0109366
0.0103034
0.0110184
0.0138272
0.0185754
0.0266065
0.0407747
0.0638645
0.0881092
0.113911
0.136988
0.155416
0.169027
0.176414
0.192934
0.204412
0.222654
0.237602
0.255726
0.274727
0.293115
0.309974
0.330565
0.348983
0.367424
0.385726
0.403652
0.421551
0.439138
0.456704
0.474081
0.491424
0.50866
0.525864
0.543006
0.560122
0.577194
0.59424
0.611243
0.628212
0.645133
0.662003
0.678811
0.695547
0.712206
0.728774
0.74525
0.761612
0.77784
0.793899
0.809778
0.825458
0.840917
0.856131
0.871073
0.885713
0.900022
0.913966
0.927515
0.940647
0.95353
0.966148
0.978527
0.990639
1.00249
1.01405
1.02532
1.03628
1.04693
1.05725
1.06723
1.07686
1.08614
1.09506
1.1036
1.11177
1.11955
1.12692
1.1339
1.14047
1.14665
1.15243
1.15783
1.16282
1.1674
1.17156
1.1753
1.17862
1.18153
1.18403
1.18611
1.18774
1.18855
1.18985
1.19014
1.19043
1.19029
1.19031
1.19003
1.18941
1.18858
1.18729
1.18576
1.18394
1.18183
1.17944
1.17675
1.1738
1.17055
1.16704
1.16323
1.15913
1.15476
1.15011
1.14518
1.14
1.13455
1.12888
1.12299
1.11689
1.11057
1.10406
1.09736
1.09047
1.0834
1.07617
1.06877
1.06122
1.05354
1.04572
1.0378
1.02974
1.02155
1.01315
1.00442
0.995169
0.985087
0.972052
0.94409
1.72413e-07
5.10667e-06
3.89143e-05
0.000179634
0.00072065
0.00175991
0.00368995
0.00594547
0.0082354
0.0103254
0.0120889
0.0134508
0.0144153
0.0149957
0.015267
0.0152325
0.0150804
0.0147137
0.0142032
0.013554
0.0127749
0.0118506
0.0107681
0.00954318
0.00815513
0.00659908
0.00500682
0.00360062
0.00238047
0.00157021
0.00107774
0.000786021
0.0006591
0.000515298
0.00243978
0.00538123
0.0132926
0.0212735
0.0271107
0.0305543
0.0317905
0.0331445
0.0382891
0.0510981
0.0674355
0.0844312
0.103406
0.123926
0.143449
0.163404
0.183896
0.204275
0.225122
0.246892
0.271382
0.298937
0.326075
0.354686
0.381942
0.409679
0.437117
0.464047
0.490244
0.51637
0.541585
0.566392
0.590761
0.614753
0.638462
0.661898
0.68515
0.708225
0.731178
0.754019
0.776776
0.799453
0.822068
0.844619
0.867109
0.889534
0.911891
0.934171
0.956369
0.97847
1.00047
1.02235
1.0441
1.06572
1.08719
1.10849
1.12957
1.15044
1.17107
1.19146
1.21158
1.23142
1.25098
1.27023
1.28918
1.30782
1.32616
1.34417
1.36185
1.37918
1.39615
1.41274
1.42894
1.44473
1.46008
1.475
1.48946
1.50346
1.51698
1.53
1.54252
1.55453
1.56601
1.57696
1.58736
1.5972
1.60649
1.61523
1.62342
1.63107
1.63816
1.64468
1.65063
1.65602
1.66083
1.66508
1.66878
1.67191
1.6745
1.67645
1.67815
1.67896
1.67935
1.67909
1.67866
1.67785
1.67661
1.67494
1.67282
1.67028
1.66732
1.66394
1.66014
1.65593
1.6513
1.64625
1.6408
1.63494
1.62865
1.62197
1.61485
1.60736
1.59945
1.5912
1.58256
1.57361
1.56433
1.55475
1.54488
1.53474
1.52435
1.51373
1.50287
1.4918
1.48053
1.46908
1.45748
1.44575
1.43389
1.4219
1.40974
1.39734
1.38454
1.37112
1.35502
1.32846
6.59937e-07
1.98046e-05
0.000155824
0.000643665
0.00200118
0.00475069
0.00816892
0.0115343
0.0144936
0.0168576
0.0185879
0.0197116
0.0203232
0.02048
0.0203744
0.0200671
0.0195467
0.0189023
0.0181754
0.0173744
0.0165094
0.0155691
0.0145472
0.0134189
0.0121678
0.0107739
0.00926229
0.00768889
0.00623442
0.00476086
0.0037438
0.00270992
0.00272456
0.00406197
0.0100446
0.023373
0.0370974
0.047826
0.0556371
0.0625657
0.0711047
0.0827002
0.0969411
0.111711
0.126814
0.142951
0.161616
0.182201
0.203788
0.22807
0.253893
0.28164
0.310918
0.341583
0.373287
0.405754
0.438228
0.470849
0.502961
0.534842
0.566233
0.597101
0.627341
0.657147
0.686373
0.715192
0.743633
0.771763
0.799639
0.827303
0.854805
0.882173
0.909439
0.936621
0.963737
0.990795
1.0178
1.04476
1.07166
1.0985
1.12528
1.15198
1.17859
1.2051
1.2315
1.25778
1.28392
1.30991
1.33574
1.36138
1.38681
1.412
1.43695
1.46164
1.48605
1.51017
1.53399
1.55748
1.58064
1.60345
1.62589
1.64794
1.66958
1.69079
1.71156
1.73187
1.75168
1.77099
1.78978
1.80803
1.82572
1.84283
1.85935
1.87527
1.89057
1.90524
1.91926
1.93263
1.94532
1.95732
1.96865
1.97929
1.98925
1.99853
2.00712
2.01501
2.0222
2.02869
2.03448
2.03957
2.04398
2.04772
2.05077
2.05314
2.05495
2.05585
2.05608
2.05559
2.05472
2.05331
2.05136
2.04887
2.04581
2.04223
2.0381
2.03345
2.02826
2.02255
2.01631
2.00955
2.00228
1.99449
1.98619
1.97739
1.96806
1.95826
1.94796
1.93723
1.92603
1.91443
1.90244
1.89007
1.87737
1.86434
1.85101
1.8374
1.82353
1.80941
1.79507
1.78054
1.76584
1.75101
1.73608
1.72107
1.70598
1.69079
1.67539
1.65965
1.64183
1.61673
2.20252e-06
6.61052e-05
0.000498853
0.0019827
0.00554959
0.0106355
0.015469
0.0194027
0.0222587
0.0241006
0.0251103
0.0254734
0.0253849
0.0250336
0.0243989
0.0236205
0.022762
0.021858
0.0209388
0.0200103
0.0190745
0.0181188
0.0171321
0.0160881
0.0149666
0.0137323
0.0123821
0.0109574
0.00956057
0.00824503
0.00665607
0.00673873
0.00961381
0.0198548
0.0389157
0.0574497
0.0728422
0.0846617
0.0945215
0.104237
0.114829
0.126447
0.13909
0.153289
0.170319
0.190329
0.212849
0.238129
0.265465
0.295
0.325975
0.358331
0.391609
0.425578
0.459963
0.494608
0.529284
0.563925
0.598351
0.632558
0.666458
0.700014
0.733166
0.765981
0.798445
0.830615
0.862529
0.89423
0.925758
0.957149
0.988438
1.01965
1.05081
1.08192
1.11301
1.14408
1.17512
1.20613
1.23711
1.26804
1.29893
1.32974
1.36047
1.3911
1.42162
1.45201
1.48226
1.51236
1.54229
1.57202
1.60153
1.6308
1.6598
1.68853
1.71696
1.74507
1.77283
1.80024
1.82726
1.85388
1.88006
1.90579
1.93105
1.9558
1.98005
2.00374
2.02687
2.04941
2.07134
2.09263
2.11327
2.13324
2.15252
2.17108
2.18893
2.20603
2.22237
2.23794
2.25271
2.26669
2.27985
2.29221
2.30376
2.31449
2.3244
2.33349
2.34175
2.34918
2.35578
2.36156
2.36652
2.37068
2.37405
2.37663
2.37842
2.37921
2.37921
2.37842
2.37705
2.37501
2.37231
2.36896
2.36494
2.36028
2.35499
2.34905
2.34249
2.33529
2.32748
2.31906
2.31003
2.3004
2.29018
2.27937
2.26797
2.256
2.24347
2.23043
2.21686
2.20283
2.18835
2.17344
2.15815
2.14249
2.12649
2.11018
2.09357
2.0767
2.05958
2.04227
2.0248
2.00721
1.98955
1.97186
1.95418
1.93653
1.91886
1.90109
1.88178
1.85702
6.89006e-06
0.000202882
0.00148017
0.00537362
0.0127023
0.0193674
0.0242632
0.0273798
0.0290893
0.0298097
0.0298373
0.0295272
0.0288335
0.027916
0.0268838
0.0257958
0.0247028
0.0236305
0.0225998
0.0216099
0.0206576
0.0197252
0.0187947
0.0178338
0.0168261
0.0157226
0.0144802
0.0130564
0.0117045
0.0111571
0.0123141
0.0186124
0.0337848
0.056215
0.0783586
0.0964121
0.109674
0.119304
0.12753
0.13609
0.145868
0.158002
0.173286
0.191726
0.213435
0.238275
0.26561
0.295057
0.326009
0.358255
0.391431
0.425385
0.459928
0.494942
0.53032
0.565982
0.601838
0.637809
0.673818
0.709802
0.745705
0.781487
0.81711
0.852577
0.887888
0.923058
0.958111
0.993071
1.02796
1.06282
1.09765
1.13248
1.16733
1.2022
1.2371
1.27202
1.30695
1.3419
1.37684
1.41176
1.44665
1.48149
1.51625
1.55092
1.58548
1.61991
1.6542
1.68833
1.72228
1.75603
1.78955
1.82282
1.8558
1.88849
1.92085
1.95285
1.98448
2.0157
2.04648
2.0768
2.10663
2.13595
2.16473
2.19295
2.22058
2.24759
2.27396
2.29965
2.32464
2.34891
2.37244
2.3952
2.41716
2.43832
2.45865
2.47813
2.49673
2.51445
2.53125
2.54714
2.56209
2.57611
2.58919
2.60132
2.61251
2.62273
2.63199
2.64029
2.64764
2.65403
2.65947
2.66399
2.66758
2.67026
2.67195
2.67256
2.67225
2.67113
2.66922
2.6665
2.66301
2.65875
2.65374
2.64796
2.64146
2.63421
2.62625
2.61757
2.60818
2.59809
2.58732
2.57587
2.56375
2.55098
2.53755
2.52348
2.5088
2.49352
2.47769
2.46132
2.44446
2.42713
2.40937
2.3912
2.37266
2.35378
2.33459
2.3151
2.29537
2.27543
2.25534
2.23514
2.21491
2.1947
2.17457
2.15459
2.13473
2.11495
2.09404
2.06877
2.15146e-05
0.000597207
0.00401472
0.0129174
0.0220783
0.028202
0.0317222
0.0334941
0.0341289
0.0340178
0.0334523
0.0324482
0.0312268
0.0298886
0.0285186
0.0271711
0.0258896
0.0246915
0.0235877
0.0225682
0.0216215
0.0207201
0.0198325
0.0188956
0.0178621
0.016739
0.015621
0.0150155
0.0156945
0.0201413
0.0310707
0.0508113
0.0742882
0.0964125
0.114576
0.127447
0.136175
0.143142
0.150443
0.159922
0.172747
0.189029
0.208821
0.231959
0.257999
0.286344
0.316334
0.347559
0.379731
0.412713
0.446375
0.480651
0.515484
0.550834
0.586668
0.622946
0.659615
0.696607
0.733864
0.771326
0.808943
0.846669
0.884464
0.922309
0.960191
0.998108
1.03607
1.07407
1.11215
1.1503
1.18854
1.22688
1.26532
1.30387
1.34251
1.38125
1.42006
1.45893
1.49783
1.53674
1.57565
1.61452
1.65333
1.69206
1.73068
1.76918
1.80753
1.84571
1.8837
1.92149
1.95904
1.99631
2.03329
2.06994
2.10624
2.14214
2.17763
2.21266
2.24721
2.28124
2.31473
2.34765
2.37997
2.41165
2.44268
2.47301
2.50261
2.53146
2.55953
2.58678
2.61319
2.63875
2.6634
2.68715
2.70996
2.73182
2.75268
2.77255
2.79138
2.80917
2.8259
2.84157
2.85617
2.86968
2.88211
2.89345
2.90369
2.91283
2.92087
2.92783
2.93371
2.93852
2.94228
2.94498
2.94651
2.94692
2.9463
2.94473
2.94221
2.93878
2.93444
2.92923
2.92315
2.91622
2.90846
2.89987
2.89047
2.88026
2.86927
2.85751
2.84497
2.8317
2.81768
2.80294
2.78749
2.77134
2.75452
2.73705
2.71898
2.70033
2.68114
2.66144
2.64127
2.62066
2.59966
2.57828
2.55656
2.53454
2.51226
2.48977
2.46713
2.44441
2.42167
2.399
2.37648
2.35418
2.33212
2.31028
2.28757
2.26116
6.38935e-05
0.00163388
0.00955138
0.0224222
0.0307762
0.0353392
0.0375938
0.038405
0.0382871
0.0375628
0.0363132
0.034779
0.0331021
0.0313876
0.0297215
0.0281562
0.0267277
0.0254428
0.0243008
0.0232825
0.0223727
0.0215572
0.020816
0.0201699
0.019775
0.0199114
0.0211783
0.0245966
0.0321646
0.0473322
0.0679128
0.0894222
0.109708
0.126391
0.138386
0.146534
0.152962
0.160419
0.170559
0.184123
0.201329
0.222009
0.245804
0.272181
0.300511
0.330235
0.360948
0.392449
0.424644
0.457495
0.490986
0.525118
0.559895
0.595321
0.631393
0.66808
0.705348
0.743152
0.781443
0.820169
0.859279
0.898724
0.938466
0.978471
1.01872
1.05919
1.09988
1.1408
1.18193
1.22328
1.26485
1.30665
1.34866
1.39088
1.43329
1.47587
1.51859
1.56144
1.60436
1.64733
1.69033
1.73331
1.77624
1.8191
1.86186
1.90449
1.94697
1.98927
2.03137
2.07325
2.11488
2.15622
2.19723
2.23789
2.27816
2.31801
2.35739
2.39627
2.43462
2.4724
2.50958
2.54613
2.58201
2.61719
2.65164
2.68531
2.71817
2.7502
2.78135
2.8116
2.84091
2.86926
2.89662
2.92296
2.94826
2.97249
2.99561
3.01762
3.03847
3.05816
3.07666
3.09397
3.11006
3.12494
3.13859
3.15101
3.16219
3.17213
3.18084
3.18831
3.19457
3.19962
3.20348
3.20614
3.20747
3.20763
3.20662
3.20452
3.20134
3.19712
3.19188
3.18566
3.17846
3.17032
3.16124
3.15125
3.14036
3.1286
3.11597
3.10248
3.08817
3.07303
3.0571
3.04039
3.02291
3.00467
2.98572
2.96607
2.94578
2.92487
2.90339
2.88136
2.85882
2.83581
2.81238
2.78855
2.76436
2.73986
2.71508
2.69009
2.66495
2.63975
2.61455
2.58944
2.56453
2.5399
2.5156
2.4916
2.46692
2.43889
0.000166675
0.0038915
0.0181801
0.0311382
0.0381108
0.0415493
0.0429337
0.0429911
0.0422391
0.0408051
0.0389857
0.0369517
0.0348505
0.0327942
0.0308731
0.029139
0.0276258
0.0263349
0.0252592
0.0243742
0.0236401
0.0230661
0.0227137
0.0227629
0.0238715
0.0269348
0.0337431
0.0457509
0.0623234
0.0809509
0.100001
0.117512
0.132111
0.143186
0.151485
0.158776
0.167173
0.178186
0.192563
0.210397
0.231441
0.255248
0.281297
0.309035
0.337968
0.36775
0.398208
0.429288
0.460998
0.493368
0.526433
0.560234
0.594808
0.630173
0.666331
0.703279
0.741
0.779459
0.818621
0.858438
0.898867
0.93986
0.981377
1.02338
1.06585
1.10875
1.15206
1.19579
1.23991
1.28442
1.32931
1.37457
1.42018
1.46612
1.51235
1.55885
1.60558
1.65249
1.69954
1.74668
1.79387
1.84106
1.88823
1.93532
1.98232
2.02918
2.07587
2.12237
2.16866
2.2147
2.26046
2.30591
2.35102
2.39573
2.44002
2.48384
2.52714
2.5699
2.61208
2.65362
2.69451
2.73471
2.77416
2.81284
2.8507
2.8877
2.92382
2.959
2.99323
3.02645
3.05864
3.08976
3.11979
3.14869
3.17645
3.20302
3.22838
3.25249
3.27533
3.29687
3.31711
3.336
3.35356
3.36975
3.38458
3.39802
3.41009
3.42077
3.43007
3.43799
3.44455
3.44976
3.45364
3.45616
3.45725
3.45705
3.45558
3.45286
3.44894
3.44386
3.43765
3.43034
3.42195
3.41252
3.40207
3.39062
3.3782
3.36482
3.3505
3.33526
3.31912
3.30211
3.28424
3.26553
3.246
3.22567
3.20458
3.18277
3.16027
3.13712
3.11336
3.08903
3.06416
3.0388
3.01298
2.98674
2.96012
2.93317
2.90593
2.87849
2.8509
2.82324
2.79561
2.76809
2.7408
2.71382
2.68722
2.66101
2.63424
2.60445
0.000374767
0.0079854
0.0271909
0.039044
0.0448105
0.0473904
0.0480885
0.0475611
0.0461593
0.0441664
0.0418273
0.039335
0.0368583
0.0345251
0.0324349
0.0306456
0.0291995
0.0281077
0.0273488
0.0270031
0.0270737
0.0278164
0.0294965
0.0326788
0.0383904
0.047539
0.0598233
0.0745132
0.0906212
0.106708
0.121536
0.134217
0.14465
0.153413
0.161802
0.171369
0.183381
0.19844
0.216602
0.23758
0.26095
0.28624
0.312992
0.340803
0.36938
0.398569
0.428329
0.458687
0.489702
0.521438
0.553965
0.587341
0.62161
0.656805
0.692952
0.730059
0.768121
0.807121
0.847033
0.88782
0.929447
0.971872
1.01506
1.05896
1.10356
1.14882
1.19472
1.24123
1.28835
1.33604
1.38428
1.43306
1.48234
1.53208
1.58224
1.63277
1.68362
1.73473
1.78603
1.83746
1.88897
1.9405
1.99201
2.04345
2.09478
2.14597
2.19697
2.24776
2.29829
2.34856
2.39851
2.44812
2.49734
2.54613
2.59445
2.64224
2.68948
2.7361
2.78208
2.82737
2.87194
2.91574
2.95872
3.00085
3.04207
3.08236
3.12166
3.15994
3.19716
3.23328
3.26827
3.30209
3.3347
3.36609
3.39621
3.42504
3.45254
3.47868
3.50342
3.52674
3.54861
3.56902
3.58794
3.60536
3.62126
3.63564
3.64849
3.65981
3.6696
3.67787
3.68462
3.68988
3.69367
3.69594
3.69671
3.69606
3.69398
3.69054
3.68578
3.67974
3.67245
3.66396
3.6543
3.64351
3.6316
3.61862
3.60459
3.58953
3.57348
3.55644
3.53844
3.51951
3.49967
3.47893
3.45734
3.4349
3.41167
3.38769
3.36299
3.33762
3.31162
3.28502
3.25786
3.23018
3.20202
3.17342
3.14441
3.11506
3.08542
3.05556
3.02556
2.9955
2.96547
2.93557
2.9059
2.87657
2.84765
2.81916
2.79025
2.75874
0.000722603
0.0140603
0.0353415
0.0462599
0.051315
0.0533129
0.0534782
0.052405
0.0504821
0.048009
0.045244
0.0424086
0.0396946
0.0372505
0.0351902
0.0335859
0.0324997
0.0320056
0.0319471
0.0326406
0.0343714
0.0375791
0.042755
0.0502382
0.0598881
0.0712991
0.0840623
0.0975237
0.110882
0.123377
0.134598
0.144559
0.153777
0.16321
0.173952
0.186874
0.202423
0.220615
0.241196
0.263795
0.288025
0.31352
0.33997
0.367139
0.39489
0.423183
0.452046
0.481548
0.511774
0.542812
0.574741
0.607627
0.641534
0.676509
0.71259
0.749798
0.788145
0.827626
0.86823
0.909933
0.95271
0.996526
1.04135
1.08714
1.13387
1.18151
1.23001
1.27937
1.32954
1.38049
1.43219
1.4846
1.53767
1.59135
1.64557
1.70027
1.75537
1.81081
1.86649
1.92235
1.9783
2.03429
2.09025
2.14614
2.20192
2.25752
2.31292
2.36805
2.4229
2.47742
2.53158
2.58535
2.63868
2.69152
2.74383
2.79555
2.84664
2.89706
2.94676
2.9957
3.04384
3.09113
3.13753
3.18298
3.22743
3.27085
3.3132
3.35442
3.39449
3.43336
3.47098
3.50733
3.54238
3.57608
3.60841
3.63934
3.66881
3.69681
3.7233
3.74824
3.7716
3.79336
3.81349
3.83198
3.84882
3.86398
3.87747
3.88927
3.8994
3.90785
3.91465
3.91981
3.92334
3.92525
3.92555
3.92428
3.92147
3.91717
3.91143
3.9043
3.89583
3.88605
3.87501
3.86275
3.8493
3.83471
3.81899
3.80219
3.78433
3.76544
3.74553
3.72465
3.7028
3.68002
3.65633
3.63179
3.60642
3.58028
3.55342
3.52586
3.49766
3.46883
3.43943
3.40949
3.37905
3.34814
3.31681
3.28513
3.25315
3.22095
3.18861
3.15621
3.12383
3.09159
3.05958
3.02791
2.99667
2.9659
2.9348
2.90143
0.00118073
0.0208363
0.0427458
0.0531497
0.0578176
0.0594396
0.0592553
0.0577988
0.0554952
0.0526932
0.0496953
0.0467589
0.0441007
0.0419037
0.0403147
0.0395216
0.0393653
0.0400127
0.0416592
0.0444712
0.0486372
0.054318
0.0615846
0.0703476
0.0803437
0.0911646
0.102351
0.113475
0.124202
0.13438
0.144102
0.153799
0.164151
0.175865
0.189485
0.205281
0.22324
0.243159
0.264744
0.287695
0.311737
0.336642
0.362233
0.388401
0.415106
0.442369
0.470258
0.498862
0.528282
0.558607
0.589932
0.622336
0.655893
0.690662
0.726695
0.764026
0.802683
0.842675
0.884007
0.926671
0.970653
1.01593
1.06247
1.11023
1.1592
1.20932
1.26056
1.31289
1.36626
1.42062
1.47595
1.53217
1.58921
1.64699
1.70544
1.76446
1.82397
1.88388
1.94408
2.00448
2.06499
2.12553
2.18603
2.24644
2.30672
2.36679
2.42661
2.48612
2.54527
2.60404
2.66237
2.72024
2.7776
2.83439
2.89056
2.94608
3.00087
3.05491
3.10814
3.16054
3.21205
3.26262
3.3122
3.36073
3.40818
3.45448
3.49961
3.54352
3.58617
3.62751
3.66751
3.70613
3.74333
3.77908
3.81335
3.84611
3.87731
3.90692
3.93489
3.9612
3.98581
4.00869
4.02981
4.04915
4.06669
4.08242
4.09632
4.10839
4.11864
4.12707
4.13369
4.13854
4.14163
4.14298
4.14262
4.14056
4.13681
4.13148
4.1246
4.11624
4.10643
4.09524
4.08269
4.06885
4.05374
4.03743
4.01994
4.00131
3.98158
3.96078
3.93892
3.91605
3.89218
3.86732
3.84155
3.8149
3.78742
3.75916
3.73017
3.70048
3.67013
3.63916
3.6076
3.57548
3.54284
3.50971
3.47615
3.44222
3.408
3.37356
3.33897
3.30432
3.26969
3.23519
3.2009
3.16695
3.13342
3.10039
3.06712
3.03189
0.00168375
0.027017
0.0497912
0.0601468
0.06462
0.0660087
0.0655771
0.0638518
0.0613146
0.0583894
0.0554372
0.0527524
0.0505546
0.049077
0.0484576
0.048501
0.0495847
0.0517013
0.054898
0.0592273
0.0647207
0.0713503
0.0789937
0.0874567
0.0965139
0.105912
0.115443
0.124989
0.13454
0.14424
0.154414
0.165501
0.177913
0.191947
0.207732
0.225231
0.244288
0.264689
0.286216
0.308676
0.33191
0.355798
0.380268
0.40529
0.430883
0.457109
0.484052
0.51181
0.540489
0.57019
0.601012
0.633045
0.666376
0.701076
0.737209
0.77482
0.813948
0.854621
0.896859
0.940667
0.986043
1.03297
1.08143
1.1314
1.18283
1.23569
1.28993
1.34549
1.40234
1.4604
1.51961
1.57989
1.64114
1.70324
1.76608
1.82957
1.89359
1.95805
2.02283
2.08782
2.15291
2.21802
2.28306
2.34799
2.41275
2.47727
2.54147
2.60529
2.66867
2.73157
2.79394
2.85575
2.91694
2.97747
3.03728
3.09633
3.15455
3.21192
3.26838
3.3239
3.37843
3.43192
3.48432
3.53556
3.5856
3.6344
3.68191
3.7281
3.77292
3.81633
3.85829
3.89877
3.93773
3.97513
4.01095
4.04515
4.07769
4.10853
4.13764
4.16497
4.19048
4.21414
4.23592
4.25579
4.27373
4.28972
4.30375
4.3158
4.32588
4.33401
4.3402
4.34447
4.34687
4.34741
4.34617
4.34305
4.33816
4.33158
4.32337
4.31358
4.30227
4.28948
4.27527
4.2597
4.24282
4.22467
4.2053
4.18475
4.16308
4.14031
4.11647
4.09159
4.06567
4.03875
4.0109
3.98217
3.95263
3.92231
3.89126
3.85951
3.8271
3.79408
3.76046
3.72628
3.69155
3.65632
3.62065
3.58462
3.5483
3.51175
3.47505
3.43829
3.40153
3.36489
3.32843
3.2923
3.25656
3.22136
3.18598
3.14897
0.00236359
0.032125
0.0564061
0.0670874
0.0715885
0.0728896
0.0722872
0.070393
0.0677593
0.064892
0.0622489
0.0601469
0.0588108
0.0582706
0.0583765
0.0595293
0.0616651
0.0647587
0.0687961
0.0737489
0.0795515
0.0861101
0.0933055
0.101032
0.109191
0.117714
0.126579
0.135849
0.145665
0.156243
0.167822
0.18062
0.194763
0.210288
0.227141
0.245204
0.264332
0.28438
0.305218
0.326749
0.348902
0.371642
0.394966
0.4189
0.443498
0.468843
0.495032
0.522168
0.550355
0.579694
0.610293
0.642249
0.675656
0.710599
0.747151
0.785378
0.825334
0.867061
0.910596
0.955956
1.00315
1.05218
1.10301
1.15563
1.21
1.26606
1.32376
1.38303
1.44378
1.50593
1.56937
1.634
1.69968
1.76625
1.83358
1.90154
1.97003
2.03895
2.1082
2.17766
2.24721
2.31675
2.3862
2.4555
2.52458
2.59335
2.66175
2.72967
2.79704
2.86381
2.92994
2.99537
3.06005
3.12393
3.18698
3.24914
3.31036
3.37059
3.42979
3.48793
3.54497
3.60084
3.6555
3.70889
3.76096
3.81166
3.86097
3.90885
3.95526
4.00015
4.0435
4.08527
4.12541
4.16391
4.20073
4.23583
4.26919
4.30077
4.33051
4.35838
4.38433
4.40833
4.43034
4.45032
4.46826
4.48413
4.4979
4.50957
4.51914
4.52661
4.53203
4.53541
4.5368
4.53629
4.53383
4.52936
4.52307
4.515
4.50522
4.49378
4.48074
4.46618
4.45013
4.43267
4.41386
4.39375
4.37239
4.34983
4.32614
4.30134
4.27548
4.24858
4.22063
4.19166
4.16178
4.13105
4.09952
4.06722
4.0342
4.00051
3.96616
3.93121
3.89568
3.85959
3.82292
3.78575
3.74816
3.7102
3.67196
3.63349
3.59486
3.55616
3.51745
3.47883
3.44037
3.4022
3.36441
3.32716
3.2898
3.25118
0.00309021
0.0375628
0.0630169
0.0740119
0.0785801
0.0798363
0.0790865
0.0769709
0.0742802
0.0717037
0.0696509
0.0684146
0.0679424
0.0680407
0.0690339
0.0709369
0.0736979
0.0772699
0.0816003
0.0866415
0.0923341
0.0986339
0.105503
0.112919
0.120878
0.129418
0.138608
0.148553
0.159375
0.17119
0.184073
0.198064
0.21314
0.229244
0.246288
0.264176
0.282818
0.302145
0.322106
0.342678
0.36386
0.385671
0.408147
0.431353
0.455371
0.480268
0.506151
0.533127
0.561308
0.590809
0.621741
0.654209
0.68832
0.72417
0.761846
0.801424
0.842969
0.886535
0.932166
0.979891
1.02972
1.08165
1.13565
1.19168
1.24971
1.30966
1.37146
1.43501
1.50016
1.56679
1.63472
1.70383
1.77396
1.84495
1.9166
1.98874
2.06132
2.13429
2.20757
2.2811
2.35469
2.42824
2.50171
2.57498
2.64798
2.72058
2.7927
2.86424
2.9351
3.00522
3.07455
3.14305
3.21065
3.27732
3.34302
3.40769
3.47128
3.53374
3.59502
3.65511
3.71395
3.7715
3.8277
3.8825
3.93585
3.98771
4.03805
4.08686
4.13408
4.1797
4.22368
4.26598
4.30658
4.34544
4.38254
4.41786
4.45136
4.483
4.51274
4.54054
4.56634
4.59011
4.6118
4.63138
4.64882
4.66409
4.67715
4.68799
4.69661
4.70302
4.70726
4.70937
4.7094
4.70751
4.70338
4.69726
4.68924
4.67936
4.6677
4.65433
4.6393
4.6227
4.60458
4.58502
4.56408
4.54182
4.51831
4.49361
4.46777
4.44085
4.41289
4.38393
4.35395
4.32302
4.29121
4.25857
4.22516
4.19101
4.15617
4.12066
4.08453
4.04781
4.01054
3.97274
3.93434
3.89545
3.85615
3.81651
3.77658
3.73642
3.6961
3.65569
3.61526
3.57489
3.53463
3.49464
3.455
3.41591
3.37675
3.33676
0.00386412
0.0429733
0.0695387
0.0808601
0.0854969
0.0866787
0.0857591
0.0835525
0.0810715
0.0790133
0.0777562
0.0772674
0.0772785
0.0781101
0.079665
0.0820206
0.0851103
0.0889026
0.0933485
0.0984401
0.104157
0.110511
0.117509
0.125194
0.13361
0.14282
0.152881
0.163848
0.175751
0.188597
0.202361
0.217005
0.232467
0.248677
0.265573
0.283108
0.301255
0.320009
0.339382
0.3594
0.380104
0.401561
0.423858
0.447124
0.471362
0.496612
0.523074
0.550844
0.580045
0.610798
0.643221
0.67742
0.71351
0.751592
0.79176
0.834084
0.878629
0.925425
0.974508
1.02589
1.07961
1.13559
1.19379
1.25414
1.31658
1.38106
1.44747
1.5157
1.58555
1.6568
1.72915
1.80252
1.87677
1.95176
2.02728
2.10315
2.17943
2.25601
2.33284
2.40977
2.4866
2.56337
2.6401
2.71665
2.79281
2.86845
2.94346
3.01774
3.09119
3.16376
3.2354
3.30606
3.37569
3.44425
3.51169
3.57795
3.64295
3.70667
3.76906
3.83009
3.88974
3.94795
4.00468
4.05986
4.11345
4.16541
4.21575
4.26444
4.31145
4.35676
4.40034
4.44217
4.48222
4.52046
4.5569
4.5915
4.62424
4.65509
4.68399
4.7109
4.73577
4.75856
4.77922
4.79772
4.81402
4.82807
4.83984
4.84929
4.85643
4.86125
4.86381
4.86416
4.86254
4.85861
4.85247
4.8443
4.83416
4.82211
4.80823
4.7926
4.77528
4.75636
4.73592
4.71403
4.69076
4.66619
4.64038
4.61341
4.58533
4.55621