/*--------------------------------*- C++ -*----------------------------------*\
  =========                 |
  \\      /  F ield         | OpenFOAM: The Open Source CFD Toolbox
   \\    /   O peration     | Website:  https://openfoam.org
    \\  /    A nd           | Version:  13
     \\/     M anipulation  |
\*---------------------------------------------------------------------------*/
FoamFile
{
    format      ascii;
    class       volScalarField;
    location    "2000";
    object      nut;
}
// * * * * * * * * * * * * * * * * * * * * * * * * * * * * * * * * * * * * * //

dimensions      [0 2 -1 0 0 0 0];

internalField   nonuniform List<scalar> 
12225
(
6.6188e-06
1.69103e-05
3.11165e-05
2.38492e-05
3.107e-05
3.56932e-05
3.31136e-05
4.09255e-05
4.22454e-05
3.89162e-05
3.07667e-05
1.92444e-05
2.10673e-05
1.52103e-05
1.92484e-05
1.36166e-05
1.43127e-05
1.50654e-05
0.000267215
7.2656e-06
1.90905e-06
3.93249e-10
1.28834e-09
1.62208e-09
3.98956e-09
7.87206e-09
2.002e-08
5.21858e-08
1.18375e-07
4.00617e-07
6.88111e-07
1.97638e-06
2.15259e-06
3.36197e-06
4.78445e-06
4.01443e-06
0.000151475
1.09062e-06
0.000173017
2.02357e-09
2.26023e-09
1.78183e-09
1.83261e-09
2.21239e-09
6.39862e-10
1.86868e-09
7.3533e-09
2.87182e-08
4.30681e-08
8.48659e-08
1.38592e-07
1.86612e-07
1.83919e-07
1.48793e-07
0.000521313
1.26148e-05
7.99903e-06
2.49706e-07
2.37483e-07
3.01236e-08
1.29925e-08
8.35064e-09
8.37177e-09
7.76866e-09
2.11607e-08
6.67858e-09
1.25997e-08
9.32644e-09
8.3574e-09
1.26474e-08
1.28855e-08
2.47591e-08
0.000881507
0.000198433
6.6611e-05
2.0452e-05
1.17798e-05
1.84912e-05
5.68726e-06
4.16055e-06
2.04941e-06
2.3342e-06
8.312e-07
4.06892e-07
3.25847e-07
2.79081e-07
3.6156e-07
1.65099e-07
1.18882e-07
1.04615e-07
0.00121984
0.000449718
0.000370654
0.000191272
0.000103267
8.79297e-05
0.000112912
6.51701e-05
5.56552e-05
4.9384e-05
3.31687e-05
1.47601e-05
9.41507e-06
5.15955e-06
3.83591e-06
1.41738e-06
1.65755e-06
1.23797e-06
0.000857889
0.000746022
0.000713363
0.000522256
0.000419038
0.000331657
0.000297565
0.000245396
0.000214946
0.000183061
0.000151717
0.000121131
9.34918e-05
7.6948e-05
6.425e-05
3.16957e-05
3.75866e-05
2.85709e-05
0.000863881
0.000827948
0.000825398
0.000767883
0.000717248
0.000644916
0.000590583
0.000535807
0.000485807
0.00043373
0.00037575
0.000243813
0.000258785
0.00024039
0.000203361
0.000188136
0.000154133
0.000163272
0.000852718
0.000847849
0.000842631
0.000826416
0.000811952
0.00078541
0.000717215
0.000678879
0.000621951
0.000575652
0.000498681
0.00045487
0.000383795
0.000362512
0.00036504
0.000354674
0.000322471
0.000324144
0.000850489
0.000851786
0.000848694
0.000844435
0.000840049
0.000832413
0.000803
0.000775364
0.000738766
0.000708911
0.000665586
0.000632713
0.000593624
0.000562287
0.000542553
0.000524033
0.000508687
0.000505422
0.00085149
0.000850447
0.000849774
0.000847432
0.000848051
0.000844122
0.000833791
0.000822384
0.000807035
0.000792242
0.000773313
0.000755292
0.0007374
0.000718575
0.000704712
0.000691203
0.000680994
0.000671158
0.000851636
0.000850634
0.000850316
0.000848427
0.000848857
0.000847015
0.00084656
0.000840939
0.000834292
0.000827441
0.000819712
0.000810982
0.000803702
0.000794307
0.00078636
0.000778902
0.000773099
0.000766679
0.000851621
0.000850564
0.000850086
0.000849018
0.000848485
0.000847744
0.000846764
0.000845187
0.000843175
0.000840595
0.00083798
0.000834274
0.000832499
0.000829123
0.000825836
0.000822098
0.000819107
0.000815347
0.00085157
0.000850641
0.000849902
0.000849087
0.000848403
0.000847686
0.000847036
0.000846232
0.000845429
0.000844438
0.000843466
0.000842269
0.000841228
0.000839971
0.000838912
0.000837623
0.000836726
0.00083538
0.000851546
0.000850668
0.000849867
0.000849078
0.000848359
0.000847642
0.000846994
0.000846333
0.000845721
0.000845087
0.00084449
0.000843861
0.000843272
0.000842653
0.000842087
0.000841489
0.000840977
0.000840411
0.00085154
0.000850672
0.000849857
0.000849073
0.000848338
0.000847628
0.000846963
0.000846319
0.000845714
0.000845126
0.000844572
0.00084403
0.000843517
0.000843014
0.00084254
0.000842073
0.000841638
0.000841205
0.000851537
0.000850673
0.000849852
0.00084907
0.000848328
0.000847621
0.000846948
0.000846306
0.000845694
0.00084511
0.000844552
0.000844019
0.000843508
0.000843019
0.00084255
0.000842101
0.00084167
0.000841258
0.000851538
0.000850678
0.000849857
0.000849078
0.000848335
0.000847629
0.000846955
0.000846313
0.000845699
0.000845115
0.000844554
0.00084402
0.000843506
0.000843017
0.000842546
0.000842098
0.000841665
0.000841255
0.000851537
0.000850674
0.000849851
0.00084907
0.000848324
0.000847616
0.00084694
0.000846296
0.00084568
0.000845094
0.00084453
0.000843994
0.000843479
0.000842988
0.000842516
0.000842067
0.000841633
0.000841222
0.000851534
0.000850677
0.000849849
0.000849074
0.000848322
0.000847621
0.000846938
0.000846301
0.000845679
0.000845098
0.000844529
0.000843998
0.000843477
0.000842991
0.000842514
0.00084207
0.000841635
0.000841227
0.00085153
0.000850685
0.000849846
0.000849086
0.000848322
0.000847638
0.000846942
0.00084632
0.000845686
0.00084512
0.000844536
0.000844021
0.000843482
0.000843007
0.000842526
0.000842097
0.000841665
0.000841251
0.000851529
0.000850699
0.00084984
0.000849101
0.000848314
0.000847668
0.00084693
0.000846358
0.000845656
0.000845154
0.000844459
0.000844039
0.00084334
0.000842923
0.000842415
0.000842009
0.000841555
0.000840975
0.000851605
0.000850659
0.000849816
0.00084894
0.000848277
0.000847519
0.000846826
0.00084612
0.000845296
0.000844679
0.000843602
0.000843213
0.000841693
0.000841541
0.000840128
0.000840405
0.000838781
0.000836956
0.00085193
0.000850833
0.000848544
0.000847183
0.000846641
0.000845405
0.000844408
0.000842932
0.00084098
0.000838924
0.000836306
0.000833827
0.000830783
0.000827801
0.000824079
0.000820611
0.000815373
0.000807938
0.000854985
0.000847992
0.000835293
0.000828548
0.000829496
0.000821052
0.000821989
0.00081789
0.00081025
0.0008028
0.000792999
0.000784531
0.000773839
0.000765976
0.000753959
0.000745022
0.000731663
0.000717318
0.000877635
0.000844195
0.000777028
0.000741477
0.000719729
0.00072957
0.000720168
0.00070715
0.000684765
0.000667423
0.000643608
0.000627617
0.000605502
0.000591913
0.000571786
0.000559871
0.000539675
0.000525839
0.00107536
0.000739088
0.000600846
0.000502025
0.000444992
0.000458716
0.000445781
0.000432175
0.000407665
0.000389789
0.000366608
0.000351941
0.000332317
0.000321403
0.000305183
0.000296732
0.000282732
0.000274201
0.00303609
0.000323065
0.000292868
0.000199569
0.000170076
0.000159114
0.000154131
0.00015026
0.000141015
0.000136713
0.000130771
0.000126162
0.000120524
0.000117186
0.000112451
0.000109945
0.00010602
0.000103594
0.000550691
6.92813e-05
7.17877e-05
6.08863e-05
5.75013e-05
5.15992e-05
5.02134e-05
5.0675e-05
5.2201e-05
5.326e-05
5.46268e-05
5.58987e-05
5.75983e-05
5.91466e-05
6.06717e-05
6.07808e-05
6.10582e-05
6.13426e-05
1.1973e-05
1.6469e-05
1.94236e-05
2.10463e-05
2.19728e-05
2.21723e-05
2.21149e-05
2.19678e-05
2.16622e-05
2.13311e-05
2.10023e-05
2.06881e-05
2.03968e-05
2.01343e-05
1.98959e-05
1.96912e-05
1.9508e-05
1.93512e-05
1.29582e-12
1.45858e-10
7.50117e-10
2.97757e-09
1.00462e-08
3.05752e-08
8.24309e-08
1.6671e-07
2.73936e-07
3.866e-07
4.89144e-07
5.6718e-07
6.20237e-07
6.38101e-07
6.29422e-07
6.00978e-07
5.50465e-07
4.66655e-07
3.94665e-07
3.33669e-07
2.76936e-07
2.21827e-07
1.69456e-07
1.20734e-07
7.81132e-08
4.55014e-08
2.42073e-08
1.22878e-08
6.32315e-09
3.46165e-09
2.10544e-09
1.58539e-09
1.75098e-09
2.48353e-09
1.75667e-08
3.46196e-08
1.23956e-07
2.69163e-07
4.03394e-07
4.44448e-07
4.09793e-07
3.26145e-07
2.62702e-07
2.41013e-07
2.5522e-07
3.35689e-07
4.3767e-07
8.22774e-07
1.73229e-06
4.87695e-06
1.41471e-05
2.73633e-05
3.76269e-05
3.97116e-05
2.86255e-05
3.93457e-05
3.96585e-05
4.89421e-05
4.3373e-05
3.91969e-05
3.99508e-05
3.59345e-05
2.89528e-05
3.23793e-05
3.2258e-05
3.33211e-05
3.36881e-05
3.43678e-05
3.49528e-05
3.55002e-05
3.60977e-05
3.66303e-05
3.72e-05
3.77314e-05
3.82792e-05
3.88066e-05
3.93403e-05
3.98626e-05
4.03862e-05
4.09033e-05
4.14191e-05
4.19317e-05
4.24415e-05
4.29501e-05
4.3455e-05
4.39603e-05
4.44618e-05
4.49646e-05
4.54632e-05
4.59607e-05
4.64533e-05
4.69452e-05
4.74353e-05
4.79242e-05
4.84097e-05
4.8893e-05
4.93722e-05
4.98504e-05
5.03279e-05
5.08119e-05
5.13072e-05
5.1807e-05
5.23091e-05
5.28184e-05
5.33336e-05
5.38554e-05
5.43846e-05
5.49197e-05
5.54635e-05
5.60131e-05
5.65726e-05
5.71384e-05
5.77154e-05
5.82993e-05
5.88956e-05
5.94998e-05
6.01179e-05
6.07449e-05
6.13861e-05
6.20378e-05
6.27063e-05
6.33903e-05
6.40947e-05
6.48157e-05
6.55578e-05
6.63164e-05
6.70964e-05
6.78926e-05
6.87079e-05
6.95474e-05
7.04333e-05
7.13501e-05
7.22895e-05
7.32913e-05
7.43559e-05
7.54467e-05
7.65646e-05
7.77358e-05
7.75097e-05
7.72848e-05
7.70355e-05
7.67912e-05
7.65239e-05
7.62596e-05
7.59839e-05
7.57021e-05
7.54133e-05
7.51174e-05
7.48153e-05
7.45059e-05
7.41931e-05
7.38646e-05
7.3546e-05
7.31994e-05
7.28732e-05
7.25104e-05
7.21762e-05
7.17989e-05
7.14582e-05
7.1071e-05
7.07188e-05
7.03432e-05
6.99665e-05
6.95894e-05
6.9205e-05
6.88193e-05
6.84283e-05
6.80365e-05
6.76398e-05
6.72438e-05
6.68433e-05
6.64439e-05
6.60397e-05
6.56347e-05
6.52204e-05
6.47944e-05
6.43432e-05
6.38417e-05
6.32196e-05
6.16424e-05
6.23923e-12
1.01703e-09
1.37245e-08
7.2407e-08
3.19207e-07
1.04817e-06
2.51284e-06
4.63856e-06
7.24733e-06
1.0228e-05
1.32493e-05
1.60683e-05
1.84556e-05
2.02139e-05
2.12966e-05
2.15423e-05
2.12953e-05
2.00423e-05
1.81477e-05
1.49252e-05
1.14821e-05
8.40525e-06
5.8967e-06
3.93535e-06
2.47225e-06
1.52239e-06
9.29362e-07
5.75594e-07
3.61158e-07
2.3741e-07
1.72416e-07
1.51917e-07
1.51676e-07
8.00409e-08
1.20822e-06
2.18384e-06
7.38367e-06
1.47067e-05
2.04843e-05
2.2619e-05
2.11852e-05
1.92428e-05
1.55537e-05
1.40928e-05
1.46613e-05
1.53135e-05
1.74392e-05
2.30701e-05
3.3219e-05
4.37954e-05
5.56368e-05
6.67623e-05
7.69366e-05
8.4952e-05
8.92947e-05
0.000101612
0.000111062
0.000126643
0.000137024
0.000151778
0.000164915
0.000177728
0.000187435
0.000201377
0.000212637
0.000224058
0.000235311
0.000245866
0.00025622
0.000266235
0.000275909
0.000285381
0.000294582
0.000303623
0.000312469
0.000321183
0.000329755
0.000338215
0.000346567
0.000354819
0.000362983
0.000371053
0.000379043
0.000386944
0.000394768
0.000402507
0.000410172
0.000417756
0.000425264
0.000432686
0.000440017
0.000447245
0.00045436
0.000461344
0.000468176
0.000474831
0.000481264
0.000487418
0.000493202
0.000498511
0.000503212
0.000507779
0.000512194
0.000516505
0.000520683
0.000524744
0.000528678
0.000532485
0.000536161
0.000539705
0.000543112
0.000546383
0.000549514
0.000552504
0.000555353
0.000558057
0.000560614
0.000563024
0.000565282
0.000567386
0.000569335
0.000571134
0.000572787
0.000574294
0.000575658
0.000576874
0.000577945
0.000578872
0.000579659
0.000580293
0.000580731
0.000581008
0.000581125
0.000580903
0.000580957
0.000580525
0.000580267
0.000579897
0.00057986
0.000579814
0.000579352
0.000579152
0.00057865
0.000578078
0.000577413
0.000576661
0.000575823
0.000574895
0.00057388
0.000572768
0.000571559
0.00057037
0.000568805
0.00056747
0.000565742
0.000564247
0.00056229
0.000560636
0.000558486
0.000556596
0.000554397
0.000552143
0.000549865
0.000547464
0.000545002
0.000542457
0.000539838
0.000537137
0.000534362
0.000531512
0.000528587
0.000525588
0.000522502
0.000519329
0.000516011
0.000512473
0.000508585
0.000504068
0.000498031
0.000481708
1.50405e-11
2.55436e-09
4.85571e-08
2.919e-07
1.10491e-06
2.64782e-06
5.75974e-06
1.01136e-05
1.55647e-05
2.17904e-05
2.84738e-05
3.50165e-05
4.0938e-05
4.58817e-05
4.96676e-05
5.21142e-05
5.34959e-05
5.37456e-05
5.2172e-05
4.91721e-05
4.4921e-05
3.88486e-05
3.18867e-05
2.49748e-05
1.86456e-05
1.32526e-05
8.96012e-06
5.9498e-06
3.74708e-06
2.48286e-06
1.7687e-06
1.38901e-06
1.31062e-06
1.19003e-06
6.38925e-06
1.45191e-05
3.50998e-05
5.31727e-05
6.29849e-05
6.22171e-05
5.14476e-05
4.0394e-05
3.75155e-05
4.2376e-05
4.92355e-05
5.75837e-05
6.94032e-05
8.08666e-05
9.31491e-05
0.000108122
0.000126012
0.000145677
0.000167626
0.000190986
0.000217165
0.000247554
0.000277154
0.00030963
0.000338532
0.000368848
0.000396948
0.000424557
0.000449811
0.000475617
0.000498989
0.000521913
0.000543801
0.000564891
0.00058534
0.000605195
0.000624516
0.000643431
0.000661938
0.000680135
0.000698025
0.000715663
0.000733059
0.000750242
0.000767219
0.000784002
0.000800599
0.000817011
0.000833245
0.000849295
0.000865167
0.000880852
0.000896354
0.000911663
0.000926773
0.000941663
0.00095632
0.000970719
0.000984841
0.000998654
0.00101213
0.00102522
0.0010379
0.00105013
0.00106186
0.00107311
0.00108397
0.00109459
0.00110493
0.00111502
0.00112483
0.00113438
0.00114365
0.00115264
0.00116135
0.00116976
0.00117788
0.0011857
0.00119321
0.00120042
0.00120732
0.0012139
0.00122016
0.0012261
0.00123171
0.00123699
0.00124194
0.00124656
0.00125086
0.00125484
0.00125851
0.00126185
0.00126488
0.00126758
0.00126997
0.00127203
0.00127375
0.00127516
0.00127627
0.00127702
0.0012777
0.0012778
0.00127787
0.00127757
0.0012774
0.00127701
0.00127621
0.00127544
0.00127436
0.0012731
0.00127163
0.00126996
0.0012681
0.00126603
0.00126376
0.00126129
0.00125858
0.00125579
0.00125253
0.00124933
0.00124559
0.00124197
0.00123773
0.00123369
0.001229
0.00122447
0.00121954
0.00121444
0.00120923
0.0012038
0.00119822
0.00119246
0.00118654
0.00118046
0.00117422
0.00116783
0.00116128
0.00115459
0.00114773
0.00114068
0.00113334
0.00112554
0.00111699
0.00110702
0.00109343
0.00106371
5.75699e-11
9.78199e-09
1.60878e-07
6.88047e-07
2.26797e-06
6.22582e-06
1.25743e-05
2.11684e-05
3.14212e-05
4.22668e-05
5.27671e-05
6.24327e-05
7.07445e-05
7.72036e-05
8.20245e-05
8.52348e-05
8.66109e-05
8.65039e-05
8.50649e-05
8.2e-05
7.77025e-05
7.18856e-05
6.49898e-05
5.63397e-05
4.68273e-05
3.73336e-05
2.86378e-05
2.14345e-05
1.5969e-05
1.15224e-05
8.92783e-06
6.55635e-06
6.99295e-06
1.0608e-05
2.41715e-05
4.74791e-05
6.68639e-05
7.87053e-05
7.57537e-05
7.15008e-05
7.01189e-05
7.24284e-05
7.87313e-05
8.84578e-05
0.000102086
0.000113207
0.000128318
0.000151546
0.000174124
0.00020459
0.000237641
0.000274964
0.000314841
0.000356718
0.000399941
0.000444285
0.000487962
0.00053163
0.000572968
0.000613652
0.000651915
0.00068978
0.000725196
0.00076003
0.000792916
0.000824887
0.000855758
0.000885754
0.000914984
0.000943538
0.000971501
0.000998958
0.00102595
0.00105255
0.00107878
0.00110467
0.00113024
0.00115552
0.00118051
0.00120521
0.00122964
0.00125379
0.00127767
0.00130126
0.00132456
0.00134757
0.00137027
0.00139267
0.00141474
0.00143646
0.00145782
0.00147878
0.00149932
0.00151942
0.00153905
0.00155819
0.00157682
0.00159494
0.00161254
0.00162967
0.00164639
0.00166273
0.00167866
0.00169419
0.00170932
0.00172404
0.00173834
0.00175222
0.00176566
0.00177866
0.00179122
0.00180332
0.00181497
0.00182615
0.00183687
0.00184712
0.00185688
0.00186617
0.00187496
0.00188325
0.00189106
0.00189837
0.0019052
0.00191156
0.00191743
0.00192282
0.00192774
0.00193217
0.00193613
0.00193961
0.00194261
0.00194516
0.00194727
0.00194897
0.00195032
0.00195101
0.00195153
0.00195144
0.00195131
0.00195081
0.00194984
0.00194868
0.00194716
0.00194534
0.0019432
0.00194076
0.001938
0.00193494
0.00193156
0.00192788
0.00192385
0.00191959
0.00191484
0.00190993
0.00190449
0.00189892
0.00189278
0.00188656
0.00187978
0.00187288
0.0018656
0.00185804
0.00185025
0.00184219
0.00183388
0.00182533
0.00181655
0.00180752
0.00179828
0.00178882
0.00177916
0.00176928
0.00175919
0.00174884
0.0017381
0.00172677
0.00171448
0.00170031
0.00168119
0.0016458
1.92137e-10
2.93813e-08
3.5474e-07
1.70032e-06
5.94433e-06
1.46349e-05
2.75145e-05
4.30783e-05
5.96319e-05
7.54498e-05
8.93093e-05
0.000100449
0.000108727
0.000114622
0.000117842
0.000119027
0.000118569
0.000116775
0.000113862
0.0001099
0.000104594
9.87282e-05
9.16626e-05
8.3162e-05
7.33639e-05
6.25485e-05
5.14994e-05
4.14716e-05
3.31222e-05
2.66769e-05
2.05834e-05
1.97987e-05
2.36834e-05
3.94059e-05
6.43565e-05
8.10292e-05
8.92541e-05
9.25975e-05
9.45933e-05
9.83837e-05
0.000105625
0.000117057
0.000130322
0.000141537
0.000158832
0.000185887
0.00021436
0.000251235
0.000290576
0.000336922
0.000384945
0.000436417
0.000488957
0.000542289
0.000595635
0.00064866
0.000700664
0.000751572
0.000800687
0.000848091
0.000894053
0.000939149
0.000982139
0.00102398
0.00106437
0.0011037
0.001142
0.00117941
0.00121603
0.00125194
0.00128723
0.00132196
0.00135619
0.00138995
0.00142328
0.0014562
0.00148873
0.00152087
0.00155265
0.00158404
0.00161507
0.00164572
0.00167598
0.00170586
0.00173535
0.00176443
0.00179309
0.00182133
0.00184913
0.00187648
0.00190335
0.00192973
0.00195558
0.00198089
0.00200565
0.00202985
0.00205348
0.00207656
0.0020991
0.00212112
0.00214264
0.00216365
0.00218415
0.00220414
0.0022236
0.00224254
0.00226094
0.0022788
0.00229609
0.00231283
0.00232899
0.00234458
0.00235958
0.00237399
0.00238781
0.00240103
0.00241364
0.00242563
0.00243699
0.00244774
0.00245785
0.00246735
0.00247623
0.0024845
0.00249217
0.00249922
0.00250566
0.00251149
0.00251673
0.00252137
0.00252541
0.0025289
0.00253183
0.00253432
0.0025364
0.00253767
0.0025384
0.00253861
0.00253854
0.002538
0.002537
0.00253563
0.00253384
0.00253166
0.00252908
0.00252609
0.00252272
0.00251894
0.00251477
0.00251021
0.00250522
0.00249988
0.00249405
0.00248788
0.00248121
0.0024742
0.00246668
0.00245885
0.00245054
0.00244191
0.0024329
0.00242353
0.00241385
0.00240385
0.00239354
0.00238293
0.00237203
0.00236084
0.00234939
0.00233767
0.00232571
0.00231351
0.00230103
0.00228825
0.00227506
0.00226125
0.00224644
0.0022297
0.00220767
0.00217185
6.01057e-10
7.19072e-08
8.67157e-07
4.45799e-06
1.51129e-05
3.25755e-05
5.39034e-05
7.58275e-05
9.46536e-05
0.000109502
0.00012087
0.000129932
0.000136234
0.000140287
0.00014234
0.000142618
0.000141346
0.000138746
0.000135033
0.000130301
0.000124504
0.000118099
0.000110649
0.000101996
9.23002e-05
7.77399e-05
6.3046e-05
4.93306e-05
3.82552e-05
3.21066e-05
3.15767e-05
4.04544e-05
6.02371e-05
8.27423e-05
9.91216e-05
0.000108991
0.000114839
0.000120217
0.000128692
0.000142289
0.000154852
0.000166124
0.000185368
0.000212187
0.000243685
0.000283471
0.000327099
0.000377532
0.000430419
0.000487385
0.000545353
0.000604934
0.000664657
0.000724285
0.00078333
0.000841545
0.000898638
0.000953989
0.00100836
0.00106136
0.00111275
0.0011629
0.00121152
0.00125894
0.00130514
0.00135029
0.00139448
0.00143781
0.00148035
0.00152218
0.00156337
0.00160397
0.00164402
0.00168356
0.00172259
0.00176115
0.00179924
0.00183687
0.00187403
0.00191072
0.00194695
0.0019827
0.00201796
0.00205274
0.00208703
0.0021208
0.00215406
0.00218679
0.00221899
0.00225065
0.00228176
0.00231228
0.00234222
0.00237154
0.00240025
0.00242835
0.00245583
0.00248272
0.00250901
0.00253471
0.00255982
0.00258434
0.00260826
0.00263158
0.00265429
0.00267638
0.00269784
0.00271866
0.00273883
0.00275834
0.00277719
0.00279538
0.00281288
0.0028297
0.00284582
0.00286125
0.00287598
0.00288998
0.00290327
0.00291583
0.00292766
0.00293878
0.00294919
0.00295889
0.00296787
0.00297616
0.00298373
0.00299061
0.00299679
0.00300229
0.00300712
0.00301129
0.00301494
0.00301821
0.00302058
0.00302219
0.00302318
0.00302369
0.00302371
0.00302321
0.00302219
0.00302071
0.00301876
0.00301635
0.00301347
0.00301014
0.00300635
0.0030021
0.00299741
0.00299226
0.00298665
0.00298061
0.00297407
0.00296709
0.00295961
0.0029517
0.00294328
0.00293445
0.00292515
0.00291544
0.00290533
0.00289482
0.00288395
0.00287272
0.00286114
0.00284922
0.00283698
0.00282441
0.00281155
0.0027984
0.00278498
0.0027713
0.00275735
0.00274309
0.00272845
0.00271325
0.00269714
0.00267927
0.00265692
0.0026228
1.87683e-09
1.77238e-07
2.26171e-06
1.22439e-05
3.3087e-05
6.04046e-05
8.79121e-05
0.000111243
0.000129595
0.000143043
0.000152499
0.000158103
0.000160976
0.000161802
0.00016122
0.000159515
0.000156826
0.000153236
0.000148725
0.00014328
0.000136908
0.000129659
0.000121085
0.000105843
8.95244e-05
7.48454e-05
6.13538e-05
5.06989e-05
4.58476e-05
5.18617e-05
6.69815e-05
9.05358e-05
0.000111173
0.00012506
0.000134907
0.000142574
0.00015163
0.000165592
0.000177669
0.000187963
0.000206704
0.000232582
0.000264251
0.00030346
0.000348496
0.000400073
0.000455283
0.000514526
0.000575457
0.000638335
0.000701728
0.000765589
0.000829165
0.000892233
0.000954288
0.00101533
0.00107564
0.00113476
0.00119252
0.00124895
0.00130406
0.00135798
0.00141064
0.00146218
0.00151266
0.00156215
0.00161075
0.00165851
0.00170552
0.00175182
0.00179747
0.00184251
0.00188697
0.00193087
0.00197422
0.00201702
0.00205929
0.00210101
0.00214219
0.00218282
0.00222288
0.00226238
0.0023013
0.00233965
0.00237741
0.00241458
0.00245114
0.00248711
0.00252247
0.00255722
0.00259135
0.00262486
0.00265773
0.00268994
0.00272151
0.00275241
0.00278265
0.00281224
0.00284115
0.00286941
0.00289702
0.00292399
0.00295029
0.00297593
0.00300091
0.0030252
0.0030488
0.0030717
0.00309389
0.00311536
0.0031361
0.00315611
0.00317537
0.00319389
0.00321165
0.00322865
0.00324489
0.00326036
0.00327503
0.00328892
0.00330201
0.00331431
0.00332582
0.00333655
0.0033465
0.00335567
0.00336406
0.00337168
0.00337854
0.00338465
0.00339
0.00339473
0.00339892
0.0034025
0.00340512
0.003407
0.00340821
0.00340886
0.00340894
0.00340845
0.0034074
0.00340586
0.00340382
0.00340127
0.00339823
0.00339469
0.00339065
0.00338614
0.00338114
0.00337566
0.00336971
0.00336327
0.00335635
0.00334894
0.00334103
0.00333265
0.00332377
0.00331444
0.00330464
0.0032944
0.00328374
0.00327267
0.00326121
0.00324937
0.00323716
0.0032246
0.00321168
0.00319842
0.00318484
0.00317097
0.00315681
0.00314239
0.0031277
0.00311274
0.00309745
0.00308168
0.00306518
0.00304724
0.00302573
0.00299478
5.57378e-09
4.59115e-07
5.96032e-06
2.65079e-05
5.78356e-05
8.96747e-05
0.000116342
0.000137093
0.000153039
0.000163963
0.000170193
0.000173184
0.000173954
0.00017317
0.000171258
0.000168437
0.00016473
0.000160034
0.000154369
0.000147796
0.000140595
0.000132521
0.00011608
0.000100117
8.66704e-05
7.66812e-05
7.23955e-05
7.56399e-05
7.85131e-05
9.51475e-05
0.000120073
0.000143651
0.00015909
0.000168876
0.000179131
0.000192376
0.000198101
0.000207521
0.000224385
0.000247912
0.00027808
0.000315236
0.000358711
0.000408696
0.000463745
0.000523127
0.000585013
0.000649029
0.000714043
0.000779858
0.000845813
0.000911679
0.000976962
0.00104139
0.00110523
0.00116841
0.00123045
0.00129135
0.00135109
0.00140967
0.0014671
0.00152344
0.0015787
0.00163295
0.00168624
0.00173863
0.00179018
0.00184095
0.00189099
0.00194035
0.00198906
0.00203716
0.00208467
0.00213158
0.00217792
0.00222366
0.00226881
0.00231335
0.00235728
0.00240059
0.00244326
0.00248528
0.00252666
0.00256739
0.00260746
0.00264688
0.00268562
0.00272371
0.00276114
0.00279793
0.00283406
0.00286954
0.00290435
0.0029385
0.00297197
0.00300476
0.00303687
0.00306829
0.00309901
0.00312906
0.00315845
0.00318716
0.0032152
0.00324254
0.00326919
0.00329512
0.00332034
0.00334482
0.00336855
0.00339153
0.00341374
0.00343517
0.00345582
0.00347568
0.00349474
0.00351299
0.00353042
0.00354702
0.00356279
0.00357771
0.00359179
0.00360503
0.00361742
0.00362898
0.0036397
0.00364959
0.00365865
0.00366689
0.00367431
0.00368092
0.00368676
0.00369199
0.00369661
0.0037004
0.00370328
0.00370544
0.00370689
0.00370772
0.00370792
0.00370751
0.00370649
0.00370493
0.00370283
0.00370019
0.00369703
0.00369335
0.00368917
0.00368448
0.0036793
0.00367362
0.00366746
0.00366081
0.00365367
0.00364604
0.00363791
0.0036293
0.0036202
0.00361063
0.00360061
0.00359015
0.00357925
0.00356794
0.00355623
0.00354413
0.00353165
0.00351881
0.00350559
0.00349203
0.00347814
0.00346394
0.00344946
0.00343471
0.00341971
0.00340446
0.00338893
0.00337303
0.00335657
0.00333903
0.00331884
0.00329165
1.45399e-08
1.12317e-06
1.35757e-05
4.54113e-05
8.4284e-05
0.000119057
0.000145883
0.000164334
0.00017553
0.000181795
0.000184492
0.000184494
0.000182581
0.000179455
0.000175554
0.000171034
0.000165834
0.00016
0.000153425
0.000145878
0.000137322
0.000121379
0.000106393
9.52285e-05
8.98067e-05
8.79455e-05
9.01502e-05
0.000102973
0.000123335
0.000145137
0.000166161
0.000184027
0.000197388
0.000205961
0.000214195
0.000224061
0.000239165
0.000259706
0.000287165
0.00032129
0.000361849
0.000408591
0.000460901
0.000518175
0.000579095
0.000642618
0.000707661
0.000773774
0.000840401
0.000907269
0.000974031
0.00104013
0.00110568
0.00117108
0.00123547
0.00129898
0.0013615
0.00142301
0.00148348
0.00154291
0.00160132
0.00165875
0.00171522
0.00177078
0.00182549
0.00187937
0.00193248
0.00198487
0.00203656
0.00208761
0.00213805
0.0021879
0.00223717
0.00228588
0.002334
0.0023815
0.00242837
0.00247461
0.00252019
0.0025651
0.00260932
0.00265284
0.00269565
0.00273776
0.00277918
0.00281991
0.00286
0.00289939
0.00293807
0.00297605
0.00301336
0.00304999
0.00308593
0.0031212
0.00315579
0.0031897
0.00322294
0.00325551
0.00328742
0.00331867
0.00334924
0.00337914
0.00340836
0.00343688
0.00346469
0.00349178
0.00351813
0.00354374
0.00356858
0.00359265
0.00361594
0.00363843
0.00366011
0.00368098
0.00370102
0.00372023
0.00373859
0.0037561
0.00377274
0.00378851
0.00380341
0.00381743
0.00383057
0.00384283
0.00385422
0.00386474
0.00387438
0.00388317
0.0038911
0.00389818
0.00390451
0.00391015
0.00391508
0.00391915
0.00392232
0.00392477
0.00392649
0.00392753
0.00392791
0.00392766
0.0039268
0.00392534
0.00392333
0.00392076
0.00391766
0.00391403
0.00390989
0.00390525
0.00390011
0.0038945
0.0038884
0.00388182
0.00387477
0.00386724
0.00385923
0.00385075
0.00384181
0.00383241
0.00382258
0.00381232
0.00380164
0.00379055
0.00377907
0.00376721
0.00375497
0.00374235
0.00372938
0.00371604
0.00370238
0.0036884
0.00367414
0.00365961
0.00364485
0.00362985
0.00361462
0.0035991
0.00358318
0.00356646
0.00354753
0.00352374
3.2693e-08
2.5861e-06
2.49334e-05
6.60559e-05
0.000107581
0.000141671
0.000166675
0.000182803
0.000191373
0.000194072
0.000193009
0.000189592
0.000184791
0.000179205
0.000173183
0.00016667
0.000159778
0.000152435
0.00014462
0.00013647
0.000128081
0.00011969
0.000112004
0.000106943
0.000107929
0.000116759
0.000130941
0.000148495
0.000167472
0.000185585
0.000201242
0.000213105
0.000224072
0.000235995
0.000250559
0.000268912
0.000293316
0.000323869
0.000360811
0.000403647
0.000451982
0.000505342
0.000563042
0.000624218
0.000687783
0.000752879
0.000818849
0.00088532
0.000951953
0.00101838
0.00108423
0.00115002
0.00121526
0.00127975
0.00134337
0.00140611
0.00146791
0.00152878
0.00158869
0.00164766
0.00170571
0.00176286
0.00181915
0.00187464
0.00192936
0.00198337
0.00203669
0.00208936
0.00214137
0.00219283
0.00224375
0.00229414
0.00234403
0.00239343
0.00244236
0.00249093
0.0025389
0.00258619
0.00263277
0.00267862
0.00272371
0.00276803
0.00281157
0.00285433
0.00289632
0.00293755
0.00297797
0.00301768
0.00305669
0.00309504
0.00313274
0.00316979
0.0032062
0.00324198
0.00327713
0.00331166
0.00334556
0.00337885
0.00341151
0.00344352
0.00347489
0.00350561
0.00353566
0.00356502
0.00359369
0.00362165
0.00364889
0.00367538
0.00370111
0.00372607
0.00375025
0.00377362
0.00379619
0.00381793
0.00383884
0.0038589
0.00387811
0.00389645
0.00391392
0.00393049
0.00394618
0.00396097
0.00397485
0.00398784
0.00399992
0.00401109
0.00402137
0.00403076
0.00403925
0.00404688
0.00405375
0.00405986
0.00406515
0.00406959
0.00407318
0.004076
0.00407806
0.00407941
0.00408008
0.00408009
0.00407947
0.00407824
0.00407644
0.00407407
0.00407116
0.00406773
0.00406378
0.00405935
0.00405443
0.00404905
0.0040432
0.0040369
0.00403013
0.00402291
0.00401524
0.00400712
0.00399857
0.00398959
0.0039802
0.00397041
0.00396023
0.00394965
0.00393871
0.00392738
0.0039157
0.00390364
0.00389123
0.00387846
0.00386536
0.00385194
0.00383824
0.00382428
0.00381008
0.00379566
0.00378104
0.0037662
0.00375107
0.00373534
0.0037179
0.0036978
6.30365e-08
5.34135e-06
3.85507e-05
8.86141e-05
0.000133896
0.000166993
0.000188209
0.000199298
0.000203055
0.000201811
0.000197344
0.000190926
0.000183431
0.000175212
0.000166613
0.000157969
0.000149052
0.000140947
0.000133461
0.000127223
0.000122594
0.000120993
0.000123665
0.000131007
0.000142149
0.000155953
0.000171464
0.000187618
0.000203158
0.00021666
0.000229114
0.000242894
0.000258011
0.000275767
0.000297791
0.000325008
0.000358075
0.000396726
0.000440685
0.000489452
0.000542589
0.000599571
0.000659711
0.000722197
0.000786199
0.000851077
0.000916377
0.000981809
0.00104682
0.00111155
0.00117616
0.00124011
0.00130333
0.00136573
0.00142724
0.00148785
0.00154756
0.00160639
0.00166434
0.00172145
0.00177773
0.00183313
0.0018878
0.00194179
0.00199515
0.00204794
0.00210025
0.00215224
0.00220401
0.00225533
0.00230618
0.00235657
0.00240647
0.00245592
0.00250488
0.00255323
0.002601
0.00264813
0.00269456
0.0027403
0.00278531
0.00282957
0.00287305
0.00291575
0.0029577
0.0029989
0.0030394
0.00307921
0.00311836
0.00315686
0.00319474
0.003232
0.00326867
0.00330474
0.00334023
0.00337514
0.00340948
0.00344324
0.00347641
0.00350898
0.00354095
0.00357231
0.00360304
0.00363312
0.00366253
0.00369127
0.0037193
0.00374661
0.00377317
0.00379898
0.00382402
0.00384827
0.00387171
0.00389434
0.00391614
0.0039371
0.0039572
0.00397644
0.00399479
0.00401226
0.00402883
0.00404449
0.00405923
0.00407305
0.00408595
0.00409792
0.00410897
0.0041191
0.00412832
0.00413666
0.00414418
0.00415087
0.00415672
0.00416171
0.00416587
0.00416921
0.00417176
0.00417357
0.00417467
0.0041751
0.00417487
0.00417403
0.00417259
0.00417058
0.00416802
0.00416494
0.00416136
0.00415729
0.00415275
0.00414777
0.00414234
0.00413647
0.00413016
0.00412342
0.00411626
0.00410869
0.00410071
0.00409234
0.00408359
0.00407447
0.00406498
0.00405514
0.00404494
0.00403439
0.00402348
0.00401222
0.0040006
0.00398864
0.00397635
0.00396374
0.00395085
0.00393769
0.00392429
0.00391068
0.00389689
0.00388292
0.00386874
0.00385413
0.00383811
0.00382122
1.03001e-07
9.33068e-06
5.07785e-05
0.000105229
0.000152306
0.000184992
0.000203541
0.000211429
0.000211969
0.000207771
0.000200727
0.000192089
0.00018259
0.000173434
0.000164403
0.000156504
0.000149508
0.00014446
0.000141535
0.00014091
0.000142962
0.00014797
0.000155927
0.000166474
0.000178934
0.000192574
0.000206527
0.000219782
0.000232499
0.000246807
0.000263017
0.000280682
0.000301342
0.00032613
0.000355707
0.000390287
0.000429796
0.00047384