/*--------------------------------*- C++ -*----------------------------------*\
  =========                 |
  \\      /  F ield         | OpenFOAM: The Open Source CFD Toolbox
   \\    /   O peration     | Website:  https://openfoam.org
    \\  /    A nd           | Version:  13
     \\/     M anipulation  |
\*---------------------------------------------------------------------------*/
FoamFile
{
    format      ascii;
    class       volScalarField;
    location    "2000";
    object      omega;
}
// * * * * * * * * * * * * * * * * * * * * * * * * * * * * * * * * * * * * * //

dimensions      [0 0 -1 0 0 0 0];

internalField   nonuniform List<scalar> 
12225
(
31477.7
31477.7
31477.7
38153.1
31477.7
31477.7
31477.7
31477.7
31477.7
31477.7
40793.2
45828
44231.9
41032.6
43567.8
45313.9
44376.3
46864
0.405263
45949.6
107603
8.45591e+07
3.21915e+07
1.67151e+07
6.26883e+06
3.50976e+06
1.2255e+06
514645
296040
116291
83283.9
36747.1
37140.9
27232.8
25006.1
23958.7
2587.9
151309
0.232277
3.9627e+06
3.95317e+06
3.53948e+06
2.90101e+06
2.21516e+06
838633
185931
62868.9
44377.6
38027.7
26354.2
20250.7
18324.2
21303.1
21573.9
718.656
22842.7
31445
204380
109502
252542
261835
251310
116814
61701.3
23698.9
32081.8
21360.9
18813.9
16800.7
15393.8
15072.3
12680.5
424.747
1821.28
5082.16
14320.6
18130.4
10260.5
22241.8
23231
29028.8
14806.8
21819.3
18811.6
21120.2
18894.6
11967.9
16485.1
11859.8
10984
307.524
820.023
973.919
1813.57
3016.26
3304.86
2348.2
3590.76
3403.69
2749.63
2683.79
3726.16
3687.11
4596.46
4856.6
10687
7436.27
10143
436.165
497.478
515.11
693.346
835.41
1017.7
1096.75
1263.58
1306.3
1360.41
1402.58
1504.84
1680.64
1801.53
1959.8
3658.62
2981.65
3815.76
432.705
449.033
447.093
476.847
502.75
548.417
587.952
637.028
676.795
728.644
803.725
1187.98
1075.96
1121.17
1281.61
1358.35
1619.91
1497.97
438.256
438.524
438.569
444.366
448.366
458.073
495.4
518.218
556.567
590.902
669.364
721.571
841.692
879.928
861.915
877.886
957.295
941.401
439.434
436.352
435.47
435.168
434.75
435.382
447.561
460.03
478.633
494.008
521.038
542.775
573.674
600.822
618.767
636.45
652.842
652.838
438.974
436.943
434.825
433.61
430.965
430.449
433.113
436.493
442.099
447.46
455.486
463.324
471.798
481.41
488.556
495.778
501.397
506.595
438.931
436.81
434.492
433.054
430.573
429.249
427.244
427.879
429.108
430.431
432.301
434.738
436.608
439.743
442.37
444.834
446.662
448.807
438.955
436.834
434.575
432.721
430.73
428.925
427.33
426.09
425.149
424.521
423.982
424.02
423.183
423.21
423.324
423.728
423.899
424.481
438.986
436.793
434.65
432.665
430.742
428.939
427.211
425.645
424.172
422.858
421.614
420.537
419.46
418.55
417.619
416.867
415.998
415.404
438.997
436.778
434.658
432.658
430.744
428.94
427.209
425.583
424.024
422.565
421.165
419.858
418.6
417.426
416.292
415.237
414.201
413.249
439
436.774
434.657
432.65
430.74
428.928
427.203
425.563
424.003
422.516
421.102
419.752
418.471
417.244
416.079
414.962
413.9
412.882
439.001
436.772
434.655
432.645
430.735
428.92
427.193
425.551
423.987
422.498
421.078
419.727
418.436
417.207
416.031
414.912
413.838
412.818
439
436.769
434.65
432.638
430.726
428.908
427.18
425.535
423.969
422.478
421.056
419.702
418.409
417.177
415.999
414.878
413.802
412.78
439
436.77
434.653
432.641
430.73
428.913
427.184
425.539
423.973
422.481
421.059
419.704
418.41
417.177
415.998
414.876
413.801
412.778
439.002
436.771
434.656
432.645
430.735
428.918
427.191
425.547
423.98
422.49
421.067
419.713
418.418
417.188
416.008
414.887
413.81
412.788
439.005
436.769
434.663
432.643
430.746
428.919
427.206
425.55
423.999
422.496
421.09
419.722
418.447
417.203
416.037
414.901
413.833
412.805
439.006
436.766
434.671
432.647
430.762
428.922
427.231
425.559
424.042
422.515
421.166
419.758
418.563
417.298
416.145
415.007
413.939
412.986
438.97
436.794
434.69
432.737
430.793
429.017
427.314
425.719
424.274
422.814
421.662
420.248
419.459
418.073
417.359
415.883
415.334
414.926
438.831
436.711
435.317
433.594
431.592
430.086
428.569
427.401
426.554
425.837
425.468
425.106
425.073
425.107
425.509
425.89
427.024
429.366
437.413
438.093
441.963
442.97
440.178
442.634
440.217
440.619
442.935
445.25
448.887
451.977
456.318
459.336
464.681
468.594
474.796
482.057
426.611
439.48
473.87
493.086
505.451
496.845
501.788
509.741
524.481
536.071
553.288
565.049
582.493
593.508
610.827
621.234
640.17
652.72
348.897
500.431
608.75
717.617
805.585
778.959
801.276
831.988
881.226
919.697
972.868
1008.39
1059.67
1090.01
1138.37
1164.2
1211.08
1237.82
0.376072
1157.25
1240.95
1795.55
2097.81
2236.6
2316.55
2427.77
2557.32
2668.07
2795.23
2887.04
3003.31
3074.79
3183.37
3244.47
3348.29
3407.52
0.386528
6058.37
5604.56
6751.82
7647.93
9005.46
9723.67
10002.3
10036.1
10076.1
10068.8
10031.6
9973.85
9912.54
9873.33
9830.36
9814.42
9803.03
18117.5
23061.9
25213.3
26301
26744.5
26713.2
26617
26368.4
26059.4
25733.8
25414.8
25113.8
24836.3
24585.3
24356.9
24156.2
23974.2
23814
11463.2
2514.24
2516.41
2518.61
2520.83
2523.07
2525.32
2527.6
2529.9
2532.22
2534.57
2536.93
2539.31
2541.72
2544.15
2546.6
2549.08
2551.57
2554.09
2556.64
2559.2
2561.79
2564.41
2567.05
2569.71
2572.4
2575.12
2577.86
2580.62
2583.41
2586.23
2589.08
2591.95
2594.85
2597.77
2600.73
2603.71
2606.72
2609.76
2612.82
2615.92
2619.05
2622.2
2625.39
2628.61
2631.86
2635.14
2638.45
2641.79
2645.17
2648.58
2652.02
2655.5
2659.01
3142.11
3170.75
3213.59
2673.39
2677.08
2680.8
2684.56
2688.35
3191.66
3255.67
3368.81
3474
3549.84
3626.88
3707.06
3777.18
3851.05
3918.96
3987.65
4053.14
4118.18
4181.19
4243.32
4304.01
4363.61
4422.14
4479.44
4535.87
4591.01
4645.42
4698.46
4750.79
4801.73
4851.91
4900.76
4948.75
4995.57
5041.24
5085.62
5128.78
5170.58
5211.12
5250.23
5288.1
5324.68
5360.41
5395.6
5429.79
5463.05
5495.46
5527.01
5557.65
5587.47
5616.31
5644.33
5671.32
5697.5
5722.61
5746.91
5770.13
5792.52
5813.82
5834.29
5853.68
5872.19
5889.61
5906.15
5921.69
5936.42
5950.16
5963.06
5974.89
5985.79
5995.44
6003.71
6010.39
6017.75
6024.39
6030.43
6035.1
6039.67
6044.22
6046.34
6047.93
6048.72
6048.69
6048.37
6047
6044.89
6042.06
6038.64
6034.56
6029.85
6024.51
6018.53
6011.98
6004.69
5997.1
5988.48
5979.82
5969.93
5960.26
5949.26
5938.75
5926.89
5915.78
5903.46
5891.38
5878.82
5865.96
5852.88
5839.56
5826.04
5812.34
5798.55
5784.62
5770.71
5756.69
5742.69
5728.4
5713.72
5697.76
5679.76
5657.07
5623.97
5502.78
11463.2
1992.1
997.572
813.403
696.321
614.108
618.462
615.923
605.328
583.336
560.101
536.384
515.424
498.234
486.659
479.083
477.271
489.515
509.385
566.299
649.974
751.332
861.063
969.464
1065.19
1138.59
1177.12
1168.77
1123.93
1039.85
914.94
763.505
637.135
557.338
491.322
455.327
447.981
456
473.754
505.381
537.614
568.35
662.44
781.842
943.109
1213.01
1525.67
1767.43
1922.53
2011.84
2047.41
2051.88
2020.05
1989.68
1975.64
1898.74
1840.51
1758.12
1734.02
1684.87
1665.87
1649.24
1653.77
1641.52
1641.21
1639.86
1639.22
1641.75
1645.27
1649.44
1655.27
1661.22
1668.21
1675.3
1682.93
1690.64
1698.6
1706.59
1714.64
1722.69
1730.69
1738.65
1746.51
1754.29
1761.91
1769.43
1776.75
1783.94
1790.92
1797.7
1804.25
1810.59
1816.75
1822.76
1828.65
1834.49
1840.39
1846.51
1853.13
1860.57
1869.29
1877.84
1886.29
1894.52
1902.58
1910.43
1918.09
1925.54
1932.78
1939.82
1946.65
1953.27
1959.67
1965.86
1971.82
1977.58
1983.12
1988.45
1993.56
1998.46
2003.16
2007.66
2011.98
2016.09
2019.98
2023.66
2027.11
2030.33
2033.3
2036.1
2038.87
2041.46
2043.86
2046.04
2048.09
2050.11
2051.53
2052.6
2052.75
2052.44
2053
2052.27
2051.83
2051.22
2050.42
2049.43
2048.26
2046.9
2045.37
2043.67
2041.85
2039.43
2037.84
2034.93
2032.93
2029.58
2027.42
2023.69
2021.32
2017.6
2014.6
2011.39
2007.87
2004.44
2000.85
1997.22
1993.5
1989.76
1985.96
1982.16
1978.34
1974.55
1970.79
1967.06
1963.42
1959.95
1956.74
1954.28
1951.79
1959.88
11463.2
1999.2
801.413
615.396
652.225
664.665
640.644
587.867
529.109
473.852
424.563
384.127
352.126
326.835
307.383
292.291
281.898
273.765
272.238
275.645
284.386
305.044
337.697
382.112
437.375
497.947
558.79
605.166
635.287
632.42
609.343
565.885
502.891
433.015
381.857
370.632
378.708
400.083
430.431
491.092
588.126
722.013
914.36
1095.44
1246.12
1374.69
1489.17
1532.47
1539.99
1511.29
1459.35
1402.24
1343.01
1292.72
1249.66
1207.56
1176.51
1145.52
1128.23
1110.7
1101.2
1093.02
1089.89
1085.68
1085.37
1085.22
1086.36
1088.27
1090.75
1093.69
1097.09
1100.7
1104.6
1108.63
1112.82
1117.08
1121.42
1125.8
1130.2
1134.61
1139.01
1143.4
1147.76
1152.1
1156.39
1160.63
1164.83
1168.99
1173.1
1177.16
1181.16
1185.14
1189.1
1193.06
1197.07
1201.13
1205.29
1209.6
1214.08
1218.72
1223.43
1228.01
1232.52
1236.91
1241.2
1245.38
1249.45
1253.4
1257.23
1260.94
1264.53
1268
1271.34
1274.56
1277.65
1280.61
1283.45
1286.16
1288.74
1291.2
1293.54
1295.75
1297.85
1299.82
1301.67
1303.39
1304.98
1306.44
1307.77
1308.99
1310.13
1311.14
1312.03
1312.78
1313.41
1313.94
1314.18
1314.28
1314.13
1313.89
1313.74
1313.23
1312.67
1311.98
1311.16
1310.22
1309.16
1307.97
1306.65
1305.21
1303.69
1301.92
1300.29
1298.27
1296.45
1294.21
1292.25
1289.79
1287.68
1285.14
1282.72
1280.21
1277.57
1274.92
1272.19
1269.42
1266.59
1263.74
1260.86
1257.96
1255.06
1252.18
1249.33
1246.54
1243.88
1241.49
1239.53
1238.57
1239.23
1248.9
11463.2
2024.6
968.59
935.495
882.365
763.063
649.653
544.882
461.268
398.838
352.263
315.726
287.275
265.272
248.394
235.433
225.684
218.514
213.665
211.883
212.47
216.581
223.838
238.178
259.845
288.584
323.429
358.716
390.407
413.184
419.34
413.328
389.615
382.916
415.558
492.281
554.82
606.019
669.167
759.808
887.712
1015.39
1101.14
1170.88
1232.8
1262.74
1259.49
1202.28
1170.36
1114.77
1068.39
1024.28
987.539
957.574
933.356
913.274
898.076
885.671
877.817
871.573
868.569
865.639
865.064
864.633
865.632
867.018
868.976
871.307
873.937
876.809
879.88
883.092
886.432
889.858
893.36
896.916
900.516
904.145
907.796
911.458
915.127
918.795
922.457
926.109
929.747
933.37
936.978
940.575
944.162
947.734
951.29
954.841
958.398
961.969
965.561
969.182
972.834
976.516
980.216
983.909
987.548
991.107
994.592
997.993
1001.31
1004.54
1007.67
1010.72
1013.66
1016.51
1019.26
1021.91
1024.45
1026.9
1029.23
1031.47
1033.59
1035.61
1037.53
1039.33
1041.03
1042.63
1044.12
1045.5
1046.78
1047.94
1049
1049.95
1050.8
1051.54
1052.19
1052.72
1053.15
1053.45
1053.65
1053.74
1053.57
1053.37
1052.99
1052.54
1052.07
1051.41
1050.66
1049.81
1048.84
1047.76
1046.57
1045.28
1043.88
1042.36
1040.77
1039.02
1037.26
1035.32
1033.38
1031.25
1029.15
1026.85
1024.6
1022.18
1019.74
1017.24
1014.66
1012.03
1009.34
1006.61
1003.84
1001.04
998.214
995.369
992.517
989.675
986.864
984.122
981.518
979.16
977.203
976.085
976.59
982.334
11463.2
2249.91
1406.25
1166.07
933.595
726.722
562.213
450.404
373.268
319.426
281.161
253.596
233.474
218.4
207.047
198.447
191.973
187.18
183.897
182.078
182.368
183.522
186.904
193.455
204.004
219.547
240.432
264.215
288.645
309.07
323.37
340.362
397.607
489.237
576.406
640.641
705.254
778.03
851.706
919.109
977.315
1027.9
1067.28
1083.03
1072.32
1023.9
992.949
947.832
913.584
875.575
846.811
821.076
800.908
784.779
772.222
762.507
755.403
750.327
747.297
745.862
745.434
745.37
746.499
748.046
750.155
752.571
755.279
758.202
761.298
764.532
767.879
771.313
774.822
778.389
782.004
785.658
789.342
793.05
796.775
800.511
804.255
808
811.744
815.483
819.215
822.938
826.652
830.36
834.061
837.75
841.426
845.092
848.752
852.409
856.06
859.704
863.331
866.935
870.497
874.008
877.451
880.822
884.117
887.333
890.466
893.513
896.471
899.338
902.113
904.792
907.376
909.86
912.246
914.528
916.708
918.784
920.756
922.622
924.382
926.033
927.579
929.016
930.348
931.57
932.685
933.688
934.584
935.37
936.048
936.618
937.083
937.438
937.681
937.776
937.718
937.555
937.285
936.899
936.386
935.778
935.087
934.268
933.343
932.308
931.165
929.914
928.557
927.094
925.527
923.852
922.085
920.205
918.254
916.186
914.056
911.809
909.512
907.1
904.644
902.093
899.483
896.808
894.068
891.274
888.428
885.537
882.606
879.641
876.647
873.635
870.615
867.605
864.634
861.733
858.958
856.399
854.181
852.62
852.38
855.041
11463.2
2821.45
1706.93
1205.39
840.491
594.539
450.123
361.08
307.323
272.231
246.854
227.25
211.647
198.992
188.871
180.874
174.768
170.315
167.365
165.846
165.919
167.023
169.858
174.848
182.297
193.12
208.589
228.387
253.46
289.653
342.198
419.736
528.526
620.408
686.617
747.596
801.77
845.055
881.211
914.952
941.983
951.109
934.82
903.57
875.862
840.561
812.017
781.541
757.422
735.057
717.757
703.193
691.978
683.353
677.007
672.551
669.722
668.57
668.23
668.764
670.149
672.014
674.448
677.22
680.301
683.598
687.072
690.684
694.407
698.219
702.104
706.049
710.046
714.085
718.159
722.263
726.391
730.537
734.696
738.864
743.036
747.208
751.375
755.535
759.685
763.822
767.945
772.056
776.153
780.231
784.287
788.319
792.329
796.313
800.269
804.189
808.067
811.892
815.651
819.343
822.959
826.497
829.952
833.321
836.601
839.789
842.882
845.877
848.773
851.567
854.257
856.842
859.321
861.69
863.949
866.097
868.133
870.056
871.865
873.556
875.132
876.591
877.933
879.156
880.261
881.247
882.114
882.862
883.49
884.001
884.394
884.667
884.789
884.717
884.581
884.312
883.92
883.403
882.762
882.011
881.153
880.175
879.081
877.871
876.549
875.114
873.568
871.911
870.145
868.271
866.294
864.211
862.036
859.757
857.392
854.926
852.381
849.742
847.03
844.236
841.372
838.439
835.44
832.383
829.273
826.115
822.914
819.676
816.408
813.12
809.822
806.533
803.276
800.082
796.999
794.099
791.48
789.375
788.147
788.764
11463.2
3369.51
1775.08
1055.01
667.279
466.885
360.84
301.089
263.351
237.816
219.361
205.235
193.985
184.723
176.892
170.335
165.085
161.134
158.6
157.511
157.928
159.805
163.79
170.172
179.885
193.899
213.158
241.858
287.38
358.864
463.87
561.229
631.822
691.755
740.49
777.257
806.2
832.004
846.763
850.817
835.72
812.742
790.235
764.381
740.323
715.731
694.809
675.494
659.877
646.546
636.108
627.819
621.691
617.366
614.77
613.542
613.233
613.878
615.387
617.577
620.325
623.477
626.993
630.775
634.772
638.932
643.221
647.613
652.087
656.629
661.226
665.871
670.556
675.275
680.023
684.796
689.587
694.392
699.204
704.019
708.832
713.638
718.432
723.211
727.971
732.708
737.422
742.11
746.77
751.399
755.99
760.541
765.05
769.512
773.925
778.28
782.573
786.797
790.95
795.02
799.003
802.893
806.688
810.385
813.98
817.47
820.852
824.125
827.285
830.332
833.262
836.076
838.769
841.343
843.793
846.119
848.314
850.382
852.321
854.132
855.813
857.365
858.785
860.075
861.231
862.257
863.149
863.909
864.536
865.033
865.4
865.611
865.649
865.534
865.316
864.961
864.47
863.844
863.086
862.203
861.196
860.055
858.786
857.392
855.875
854.238
852.48
850.605
848.611
846.502
844.279
841.946
839.508
836.965
834.32
831.573
828.732
825.796
822.776
819.671
816.488
813.231
809.904
806.514
803.066
799.566
796.021
792.435
788.818
785.178
781.528
777.883
774.266
770.704
767.239
763.927
760.844
758.154
756.039
755.034
11463.2
3558.76
1602.49
845.869
532.132
394.082
323.133
280.139
250.178
229.094
213.365
200.821
190.292
181.253
173.548
167.161
162.252
158.984
157.42
157.532
159.129
162.67
168.961
178.722
194.539
219.75
258.654
321.978
409.672
497.461
565.594
622.496
670.288
708.431
738.283
761.707
772.144
773.023
760.116
742.695
723.994
704.265
685.244
665.974
648.009
631.272
616.992
604.672
594.703
586.638
580.491
575.99
573.097
571.661
571.278
571.786
573.242
575.483
578.378
581.815
585.699
589.932
594.455
599.206
604.138
609.212
614.399
619.677
625.029
630.441
635.903
641.406
646.943
652.51
658.101
663.712
669.336
674.967
680.597
686.222
691.833
697.428
702.999
708.542
714.052
719.525
724.961
730.353
735.7
740.996
746.236
751.416
756.531
761.578
766.55
771.444
776.255
780.98
785.612
790.141
794.561
798.87
803.065
807.142
811.099
814.934
818.643
822.227
825.682
829.006
832.199
835.259
838.185
840.975
843.628
846.142
848.515
850.747
852.836
854.781
856.581
858.236
859.745
861.107
862.321
863.388
864.306
865.076
865.698
866.174
866.499
866.639
866.598
866.429
866.116
865.654
865.043
864.283
863.379
862.336
861.161
859.844
858.388
856.798
855.075
853.222
851.24
849.129
846.892
844.53
842.045
839.441
836.722
833.89
830.947
827.894
824.739
821.483
818.134
814.695
811.172
807.568
803.891
800.144
796.335
792.471
788.558
784.602
780.611
776.597
772.571
768.55
764.552
760.603
756.738
753.003
749.455
746.206
743.308
740.932
11463.2
3464.76
1339.17
685.694
452.17
348.988
294.302
261.608
240.637
224.457
211.314
200.287
190.877
182.744
175.861
170.37
166.587
164.593
164.635
167.086
172.151
181.2
196.021
218.136
253.189
306.267
374.299
444.298
505.317
557.756
601.835
638.557
669.294
695.209
707.232
708.628
698.987
686.108
670.566
654.851
639.606
624.703
610.32
596.391
583.614
572.269
562.71
554.798
548.546
543.794
540.469
538.619
537.959
538.115
539.336
541.41
544.251
547.755
551.826
556.377
561.328
566.608
572.158
577.926
583.87
589.956
596.158
602.454
608.827
615.26
621.741
628.261
634.81
641.38
647.965
654.567
661.174
667.777
674.368
680.94
687.485
693.997
700.47
706.899
713.275
719.588
725.828
732.007
738.124
744.172
750.146
756.041
761.85
767.568
773.188
778.706
784.112
789.401
794.567
799.606
804.514
809.289
813.928
818.428
822.786
827.001
831.071
834.995
838.772
842.399
845.876
849.201
852.375
855.395
858.262
860.973
863.527
865.921
868.156
870.229
872.14
873.888
875.473
876.892
878.148
879.238
880.163
880.922
881.517
881.948
882.199
882.257
882.138
881.865
881.43
880.831
880.068
879.143
878.06
876.822
875.434
873.895
872.207
870.373
868.395
866.275
864.015
861.615
859.078
856.404
853.597
850.66
847.596
844.409
841.101
837.674
834.134
830.487
826.737
822.891
818.953
814.929
810.824
806.644
802.398
798.091
793.731
789.324
784.882
780.415
775.935
771.459
767.003
762.591
758.253
754.028
749.956
746.12
742.558
739.114
11463.2
3087.81
1090.54
591.076
416.529
334.511
288.516
260.177
241.201
227.578
216.712
207.472
199.459
192.657
187.287
183.87
182.75
184.392
189.107
197.867
211.379
232.404
263.353
305.572
355.7
407.155
456.872
501.788
541.114
574.982
603.932
629.815
645.55
650.066
645.763
637.268
625.201
612.717
600.322
588.583
577.346
566.428
555.895
545.968
537.059
529.393
523.087
518.103
514.418
512.024
510.927
510.724
511.504
513.229
515.831
519.206
523.275
527.953
533.164
538.836
544.903
551.305
557.984
564.89
571.983
579.228
586.598
594.074
601.644
609.275
616.951
624.661
632.389
640.12
647.833
655.489
663.131
670.764
678.382
685.973
693.528
701.04
708.504
715.911
723.256
730.532
737.741
744.863
751.889
758.812
765.628
772.329
778.909
785.363
791.682
797.861
803.893
809.773
815.499
821.07
826.483
831.735
836.824
841.748
846.503
851.091
855.51
859.759
863.838
867.745
871.481
875.044
878.435
881.654
884.699
887.569
890.264
892.781
895.119
897.276
899.253
901.047
902.659
904.088
905.334
906.397
907.276
907.972
908.485
908.814
908.943
908.87
908.617
908.185
907.575
906.786
905.819
904.676
903.36
901.877
900.228
898.417
896.446
894.316
892.032
889.593
887.003
884.263
881.375
878.338
875.157
871.835
868.375
864.781
861.054
857.2
853.223
849.131
844.93
840.624
836.221
831.724
827.14
822.476
817.739
812.937
808.077
803.169
798.223
793.252
788.268
783.286
778.323
773.401
768.545
763.786
759.156
754.727
750.49
746.048
11463.2
2632.35
916.753
522.038
383.245
319.252
284.143
262.948
248.612
237.891
229.265
222.12
216.4
212.602
211.209
212.611
218.043
227.074
239.373
256.563
280.367
310.59
345.732
383.476
421.305
457.183
490.261
519.8
545.792
569.449
587.47
595.152
596.008
591.842
584.143
574.984
565.311
556.088
547.321
538.96
530.834
522.907
515.331
508.363
502.278
497.232
493.298
490.47
488.886
488.339
488.657
489.978
492.228
495.347
499.279
503.948
509.282
515.21
521.666
528.585
535.914
543.62
551.621
559.866
568.314
576.924
585.651
594.435
603.235
612.099
621.022
629.985
638.974
647.965
656.947
665.929
674.884
683.807
692.689
701.511
710.263
718.941
727.539
736.051
744.47
752.783
760.978
769.044
776.977
784.771
792.422
799.922
807.265
814.442
821.449
828.276
834.92
841.377
847.645
853.723
859.61
865.303
870.801
876.101
881.202
886.107
890.813
895.323
899.637
903.756
907.678
911.406
914.938
918.276
921.419
924.369
927.123
929.68
932.038
934.196
936.153
937.908
939.462
940.814
941.964
942.913
943.659
944.204
944.549
944.687
944.613
944.333
943.854
943.18
942.313
941.254
940.003
938.566
936.943
935.141
933.161
931.008
928.684
926.191
923.533
920.711
917.727
914.584
911.282
907.823
904.208
900.441
896.527
892.467
888.266
883.929
879.463
874.875
870.17
865.355
860.436
855.417
850.306
845.108
839.832
834.486
829.079
823.621
818.125
812.603
807.07
801.538
796.025
790.549
785.133
779.804
774.585
769.537
764.645
759.294
11463.2
2233.09
841.809
505.088
379.615
321.308
291.122
273.372
261.808
253.611
247.577
243.423
241.528
241.612
245.218
252.528
263.3
276.982
294.339
315.6
340.212
367.087
394.959
422.574
449.014
473.401
495.582
516.305
534.206
544.473
547.881
547.949
544.735
539.248
532.701
525.973
519.41
513.166
507.133
501.227
495.415
489.784
484.522
479.856
475.985
473.029
471.143
470.359
470.359
471.4
473.374
476.267
480.042
484.663
490.114
496.3
503.138
510.568
518.527
526.944
535.734
544.759
554.069
563.664
573.51
583.57
593.806
604.198
614.731
625.335
635.971
646.616
657.258
667.845
678.356
688.781
699.102
709.307
719.394
729.378
739.26
749.039
758.715
768.285
777.738
787.058
796.229
805.235
814.067
822.717
831.179
839.449
847.517
855.376
863.018
870.438
877.629
884.59
891.32
897.82
904.089
910.125
915.928
921.495
926.829
931.93
936.803
941.449
945.872
950.073
954.053
957.812
961.354
964.68
967.79
970.685
973.366
975.832
978.08
980.108
981.915
983.502
984.869
986.016
986.941
987.65
988.137
988.407
988.458
988.287
987.895
987.283
986.459
985.428
984.191
982.752
981.113
979.276
977.246
975.026
972.62
970.032
967.265
964.321
961.204
957.916
954.458
950.834
947.043
943.088
938.971
934.694
930.259
925.671
920.936
916.061
911.051
905.914
900.656
895.281
889.797
884.209
878.523
872.746
866.885
860.949
854.95
848.9
842.812
836.699
830.575
824.455
818.352
812.285
806.274
800.341
794.506
788.822
783.286
777.088
11463.2
1940.1
760.848
480.273
375.639
327.121
301.715
287.197
278.291
272.658
269.614
268.574
269.583
273.589
280.647
290.634
303.268
318.363
335.606
354.632
374.89
395.637
415.967
435.151
453.287
470.746
486.536
498.009
503.563
505.548
505.875
504.248
501.037
497.076
492.859
488.653
484.522
480.459
476.428
472.438
468.563
464.948
461.773
459.222
457.532
456.817
456.891
458.077
460.237
463.316
467.282
472.109
477.756
484.144
491.116
498.724
507.019
515.966
525.507
535.58
546.131
557.149
568.548
580.264
592.255
604.476
616.874
629.407
642.053
654.71
667.3
679.764
692.041
704.129
716.018
727.7
739.178
750.463
761.582
772.56
783.406
794.126
804.733
815.226
825.593
835.808
845.845
855.68
865.297
874.683
883.834
892.742
901.4
909.8
917.934
925.796
933.38
940.684
947.709
954.458
960.931
967.127
973.046
978.689
984.058
989.157
993.993
998.571
1002.9
1006.98
1010.81
1014.4
1017.75
1020.86
1023.74
1026.38
1028.8
1030.98
1032.93
1034.65
1036.12
1037.36
1038.36
1039.12
1039.65
1039.95
1040.01
1039.84
1039.43
1038.79
1037.92
1036.82
1035.5
1033.96
1032.21
1030.25
1028.09
1025.72
1023.15
1020.39
1017.43
1014.29
1010.97
1007.46
1003.78
999.923
995.894
991.693
987.325
982.789
978.087
973.223
968.196
963.011
957.678
952.205
946.595
940.856
934.991
929.007
922.91
916.705
910.399
903.998
897.508
890.941
884.309
877.629
870.913
864.174
857.426
850.683
843.957
837.267
830.628
824.066
817.592
811.255
805.086
798.097
11463.2
1906.14
756.797
482.464
382.826
337.788
315.15
302.95
296.136
292.74
291.589
292.292
295.702
301.583
309.739
319.91
331.778
345.043
359.382
374.361
389.45
404.147
418.477
432.653
445.743
455.962
462.679
466.816
469
469.772
469.813
468.851
467.218
465.287
463.226
461.109
458.963
456.816
454.721
452.784
451.182
450.233
449.856
450.078
451.157
453.059
455.707
458.983
462.955
467.85
473.698
480.486
488.185
496.756
506.214
516.494
527.539
539.294
551.678
564.615
578.042
591.906
606.121
620.608
635.311
650.216
665.195
680.136
694.921
709.5
723.816
737.813
751.441
764.681
777.526
789.977
802.069
813.855
825.421
836.859
848.158
859.337
870.434
881.458
892.379
903.152
913.733
924.083
934.175
943.992
953.525
962.769
971.714
980.354
988.683
996.693
1004.38
1011.73
1018.76
1025.46
1031.83
1037.89
1043.62
1049.03
1054.13
1058.92
1063.41
1067.61
1071.53
1075.19
1078.58
1081.71
1084.58
1087.19
1089.55
1091.67
1093.55
1095.2
1096.59
1097.74
1098.63
1099.28
1099.69
1099.84
1099.74
1099.42
1098.83
1098
1096.94
1095.63
1094.08
1092.3
1090.29
1088.07
1085.62
1082.97
1080.11
1077.04
1073.78
1070.32
1066.67
1062.83
1058.81
1054.61
1050.23
1045.69
1040.97
1036.08
1031.03
1025.81
1020.43
1014.89
1009.19
1003.33
997.338
991.204
984.936
978.538
972.013
965.368
958.608
951.74
944.769
937.703
930.543
923.307
916.011
908.67
901.295
893.901
886.499
879.104
871.729
864.388
857.098
849.884
842.763
835.77
828.98
821.25
11463.2
1864.05
744.561
484.369
390.986
349.76
329.393
318.584
312.973
310.544
309.999
311.585
315.6
321.553
329.062
337.829
347.53
357.921
368.696
379.547
390.5
401.691
412.001
420.216
426.672
431.729
435.742
438.663
440.813
442.426
443.683
444.601
445.385
446.165
446.828
447.415
447.979
448.587
449.308
450.204
451.272
452.412
454.202
456.876
460.698
465.517
471.312
478.154
486.05
494.981
504.957
515.968
527.961
540.874
554.669
569.275
584.668
600.77
617.381
634.38
651.665
669.148
686.735
704.337
721.854
739.149
756.185
772.898
789.19
804.971
820.146
834.683
848.545
861.754
874.324
886.236
897.606
908.536
919.237
930.048
940.758
951.396
962.097
972.878
983.644
994.303
1004.78
1015.02
1024.98
1034.65
1044.02
1053.07
1061.8
1070.22
1078.3
1086.03
1093.4
1100.4
1107.03
1113.3
1119.19
1124.73
1129.89
1134.7
1139.14
1143.24
1147
1150.43
1153.56
1156.41
1158.98
1161.26
1163.26
1165
1166.47
1167.68
1168.68
1169.44
1169.94
1170.19
1170.17
1169.92
1169.43
1168.67
1167.67
1166.42
1164.91
1163.16
1161.17
1158.93
1156.45
1153.75
1150.81
1147.66
1144.3
1140.72
1136.94
1132.97
1128.79
1124.42
1119.87
1115.14
1110.23
1105.14
1099.89
1094.48
1088.9
1083.16
1077.27
1071.22
1065.03
1058.69
1052.21
1045.61
1038.89
1032.03
1025.04
1017.92
1010.68
1003.32
995.849
988.269
980.591
972.821
964.956
957.023
949.037
941.01
932.955
924.881
916.803
908.735
900.691
892.686
884.734
876.864
869.094
861.446
854.048
845.626
11463.7
1839.53
741.201
489.615
400.376
360.852
341.538
331.552
326.277
324.034
323.552
325.042
328.562
333.52
339.543
346.371
353.718
361.502
369.542
377.572
385.274
392.308
398.785
405.008
410.722
416.06
421.101
425.869
430.417
434.764
438.85
442.606
445.905
448.746
451.561
454.459
457.529
460.868
464.579
468.783
473.642
479.42
486.233
494.355
504.01
514.783
526.685
539.735
553.897
569.121
585.401
602.809
621.149
640.191
659.777
679.748
699.912
720.121
740.332
760.458
780.414
800.121
819.521
838.56
857.181
875.329
892.966
910.047
926.509
942.249
957.091
971.112
984.335
996.843
1008.7
1019.98
1030.66
1040.76
1050.37
1059.63
1068.54
1077.38
1086.63
1096.28
1106.03
1115.7
1125.21
1134.47
1143.46
1152.15
1160.53
1168.6
1176.37
1183.82
1190.94
1197.71
1204.09
1210.08
1215.67
1220.87
1225.68
1230.09
1234.11
1237.72
1240.94
1243.78
1246.25
1248.36
1250.15
1251.68
1252.91
1253.83
1254.47
1254.84
1254.92
1254.76
1254.45
1253.88
1253.05
1251.99
1250.67
1249.12
1247.33
1245.3
1243.02
1240.5
1237.75
1234.76
1231.53
1228.07
1224.38
1220.48
1216.36
1212.03
1207.5
1202.78
1197.86
1192.76
1187.48
1182.02
1176.38
1170.58
1164.62
1158.5
1152.23
1145.81
1139.24
1132.53
1125.69
1118.7
1111.58
1104.33
1096.98
1089.52
1081.94
1074.24
1066.42
1058.48
1050.42
1042.25
1033.97
1025.59
1017.12
1008.57
999.966
991.307
982.602
973.862
965.096
956.316
947.537
938.773
930.041
921.356
912.731
904.201
895.781
887.481
879.48
870.413
11462.8
1810.23
734.957
492.871
405.868
367.727
349.292
339.728
334.651
332.494
331.989
333.108
336.018
340.138
345.252
351.24
357.757
364.663
371.741
379.056
386.447
393.763
401.014
408.235
415.39
422.573
429.819
437.158
444.62
452.173
459.703
467.264
474.995
483.044
491.41
500.193
509.5
519.456
530.198
541.884
554.667
568.697
583.963
600.429
617.791
636.277
655.966
676.758
698.514
721.101
744.412
768.259
792.286
816.307
840.14
863.607
886.536
908.787
930.28
950.951
970.775
989.747
1007.9
1025.29
1041.92
1057.82
1073.01
1087.55
1101.43
1114.7
1127.37
1139.38
1150.64
1161.38
1171.69
1181.66
1191.14
1200.05
1208.34
1215.84
1222.92
1229.93
1237.41
1245.09
1252.74
1260.25
1267.55
1274.63
1281.45
1287.99
1294.26
1300.24
1305.94
1311.34
1316.43
1321.18
1325.56
1329.57
1333.19
1336.44
1339.32
1341.81
1343.91
1345.62
1346.95
1347.92
1348.53
1348.79
1348.74
1348.54
1348.04
1347.24
1346.19
1344.89
1343.34
1341.61
1339.67
1337.52
1335.15
1332.57
1329.77
1326.74
1323.5
1320.04
1316.36
1312.47
1308.35
1304.03
1299.49
1294.75
1289.8
1284.67
1279.34
1273.83
1268.15
1262.3
1256.29
1250.12
1243.79
1237.31
1230.68
1223.91
1217
1209.95
1202.77
1195.47
1188.04
1180.48
1172.8
1164.99
1157.06
1149.01
1140.85
1132.57
1124.17
1115.67
1107.04
1098.3
1089.45
1080.49
1071.44
1062.29
1053.06
1043.75
1034.41
1025.01
1015.58
1006.12
996.632
987.138
977.652
968.19
958.77
949.415
940.152
930.999
921.965
913.051
904.477
894.846
11461.8
1784.38
727.529
492.463
407.606
371.514
354.085
345.342
341.071
339.449
339.234
340.803
344.116
348.676
354.307
360.692
367.871
376.028
384.65
393.911
404.003
415.039
426.786
439.045
452.004
465.709
480.115
495.175
510.8
526.919
543.598
560.882
578.801
597.349
616.44
636.099
656.399
677.464
699.475
722.7
747.076
772.553
798.985
826.165
853.945
882.425
912.116
942.331
972.599
1002.57
1031.81
1059.78
1086.48
1111.8
1135.57
1157.75
1178.25
1197.09
1214.28
1229.89
1244.01
1256.72
1268.17
1278.71
1288.27
1296.97
1304.93
1312.24
1319.04
1325.45
1331.78
1337.95
1344.02
1349.96
1355.7
1361.22
1366.38
1371.08
1375.55
1379.9
1384.36
1389.28
1394.08
1398.52
1402.71
1406.67
1410.43
1414.08
1417.59
1420.9
1424.06
1427.02
1429.74
1432.22
1434.46
1436.42
1438.1
1439.47
1440.53
1441.29
1441.75
1441.86
1441.63
1441.06
1440.19
1439.03
1437.59
1435.89
1433.96
1431.84
1429.5
1426.94
1424.18
1421.23
1418.1
1414.8
1411.34