/*--------------------------------*- C++ -*----------------------------------*\
  =========                 |
  \\      /  F ield         | OpenFOAM: The Open Source CFD Toolbox
   \\    /   O peration     | Website:  https://openfoam.org
    \\  /    A nd           | Version:  13
     \\/     M anipulation  |
\*---------------------------------------------------------------------------*/
FoamFile
{
    format      ascii;
    class       volScalarField;
    location    "2000";
    object      p;
}
// * * * * * * * * * * * * * * * * * * * * * * * * * * * * * * * * * * * * * //

dimensions      [0 2 -2 0 0 0 0];

internalField   nonuniform List<scalar> 
12225
(
-4.11074
-4.96649
-5.44786
-5.60878
-5.70926
-5.79144
-5.93803
-6.01942
-6.01371
-6.07789
-6.17439
-6.29161
-6.41273
-6.55663
-6.6454
-6.6695
-6.7689
-6.93452
-4.3847
-5.00575
-5.42318
-5.55672
-5.66141
-5.78129
-5.9052
-5.98882
-6.03173
-6.10036
-6.18769
-6.29068
-6.40594
-6.51949
-6.6037
-6.67596
-6.7721
-6.88164
-4.59681
-5.04776
-5.37237
-5.53127
-5.6561
-5.79979
-5.91254
-5.99391
-6.06641
-6.13623
-6.21882
-6.3127
-6.41467
-6.50212
-6.58739
-6.68302
-6.76784
-6.84928
-4.74871
-5.06998
-5.33664
-5.51658
-5.65278
-5.79548
-5.91264
-5.99058
-6.06573
-6.13661
-6.21772
-6.30748
-6.40137
-6.48761
-6.57285
-6.66032
-6.73684
-6.80587
-4.87093
-5.10224
-5.35178
-5.532
-5.66763
-5.79994
-5.91132
-5.99546
-6.07287
-6.14636
-6.22685
-6.31297
-6.40203
-6.48547
-6.56441
-6.6428
-6.71369
-6.77574
-4.97469
-5.15726
-5.3762
-5.54477
-5.67559
-5.79809
-5.90426
-5.9915
-6.06981
-6.14478
-6.22364
-6.30603
-6.38954
-6.46903
-6.5439
-6.61606
-6.68188
-6.73854
-5.07116
-5.21381
-5.40339
-5.55954
-5.68623
-5.79915
-5.90164
-5.98947
-6.06811
-6.14368
-6.22126
-6.30092
-6.38058
-6.45688
-6.52868
-6.59642
-6.65813
-6.71125
-5.1581
-5.26518
-5.43146
-5.57717
-5.69807
-5.80353
-5.90201
-5.98901
-6.06749
-6.14277
-6.21875
-6.29569
-6.37179
-6.44466
-6.51313
-6.57688
-6.6347
-6.68452
-5.23713
-5.31796
-5.46061
-5.59554
-5.70854
-5.80938
-5.90412
-5.98978
-6.0678
-6.14239
-6.21656
-6.2907
-6.36333
-6.43277
-6.49791
-6.55802
-6.61227
-6.65911
-5.30965
-5.37243
-5.49224
-5.61455
-5.71988
-5.81617
-5.90726
-5.99111
-6.0683
-6.14187
-6.21413
-6.28543
-6.35468
-6.42065
-6.48234
-6.53899
-6.58997
-6.63415
-5.37549
-5.425
-5.52486
-5.63407
-5.7325
-5.82379
-5.9109
-5.99242
-6.0683
-6.1405
-6.21072
-6.27922
-6.34522
-6.40781
-6.46615
-6.51961
-6.56775
-6.6097
-5.4301
-5.47033
-5.5548
-5.6526
-5.74463
-5.83124
-5.91459
-5.99363
-6.06786
-6.13846
-6.20663
-6.27254
-6.33566
-6.3953
-6.45079
-6.50165
-6.54755
-6.58788
-5.47927
-5.51257
-5.58421
-5.67153
-5.75718
-5.83914
-5.91868
-5.99495
-6.06719
-6.13593
-6.20192
-6.26531
-6.32571
-6.38257
-6.43548
-6.48399
-6.52799
-6.56684
-5.52958
-5.55699
-5.61682
-5.69342
-5.7719
-5.84853
-5.92361
-5.9964
-6.06598
-6.13233
-6.1958
-6.25642
-6.31395
-6.36801
-6.41825
-6.46448
-6.5065
-6.5441
-5.57924
-5.60167
-5.65123
-5.71747
-5.78829
-5.85907
-5.92921
-5.99793
-6.06425
-6.12773
-6.18834
-6.24608
-6.30067
-6.35192
-6.39957
-6.44354
-6.48375
-6.52003
-5.62543
-5.64385
-5.685
-5.74195
-5.80515
-5.86992
-5.93493
-5.99927
-6.06192
-6.12216
-6.17976
-6.23449
-6.28624
-6.33473
-6.37999
-6.42179
-6.46039
-6.49544
-5.66423
-5.67961
-5.71439
-5.76378
-5.82026
-5.87944
-5.93959
-5.99966
-6.05857
-6.11553
-6.17006
-6.22192
-6.27093
-6.31699
-6.35999
-6.4
-6.43702
-6.47116
-5.68968
-5.70311
-5.73384
-5.7782
-5.82986
-5.88477
-5.94111
-5.9977
-6.05346
-6.10755
-6.15941
-6.20879
-6.25548
-6.29946
-6.34063
-6.3791
-6.41485
-6.4481
-5.69228
-5.70513
-5.73484
-5.77783
-5.82791
-5.88116
-5.93582
-5.99076
-6.04488
-6.09734
-6.14757
-6.19537
-6.24055
-6.28313
-6.32305
-6.36045
-6.39533
-6.42796
-5.66308
-5.67762
-5.71094
-5.758
-5.81136
-5.86698
-5.92342
-5.97975
-6.03477
-6.08771
-6.13803
-6.18573
-6.2306
-6.27282
-6.31227
-6.34926
-6.3837
-6.41602
-5.61896
-5.63658
-5.67649
-5.73087
-5.79002
-5.84995
-5.90998
-5.96925
-6.02652
-6.0809
-6.13221
-6.18041
-6.22563
-6.26786
-6.30734
-6.3441
-6.37847
-6.41051
-5.56118
-5.58408
-5.63459
-5.69951
-5.76616
-5.83162
-5.89649
-5.95985
-6.02009
-6.07653
-6.12922
-6.17835
-6.22408
-6.26654
-6.30598
-6.34265
-6.37683
-6.40881
-5.49195
-5.52332
-5.58932
-5.66737
-5.74209
-5.81371
-5.88427
-5.95223
-6.01569
-6.07433
-6.12862
-6.17891
-6.22528
-6.26803
-6.30739
-6.34386
-6.37766
-6.40926
-5.41219
-5.45704
-5.54461
-5.63706
-5.71915
-5.79728
-5.87438
-5.94723
-6.0137
-6.0743
-6.13002
-6.18129
-6.2283
-6.27129
-6.3107
-6.34702
-6.38071
-6.41219
-5.32174
-5.38788
-5.50412
-5.61024
-5.69755
-5.7821
-5.86626
-5.94419
-6.01371
-6.07627
-6.13333
-6.18533
-6.23252
-6.27534
-6.31439
-6.35023
-6.3834
-6.41427
-5.21922
-5.31806
-5.46973
-5.58752
-5.67812
-5.76845
-5.85877
-5.94093
-6.01328
-6.07809
-6.13689
-6.19005
-6.23783
-6.28084
-6.31983
-6.35555
-6.38856
-6.41961
-5.10249
-5.25235
-5.43858
-5.56336
-5.65875
-5.75686
-5.85285
-5.93792
-6.01211
-6.07846
-6.13838
-6.19209
-6.23997
-6.2827
-6.32124
-6.35651
-6.38915
-6.42027
-4.96945
-5.20811
-5.41692
-5.53494
-5.63584
-5.74583
-5.85021
-5.94003
-6.01775
-6.08713
-6.14928
-6.20422
-6.2524
-6.29467
-6.33236
-6.36665
-6.39844
-6.42964
-4.78259
-5.18223
-5.42145
-5.52152
-5.61914
-5.73473
-5.8429
-5.93436
-6.01359
-6.08489
-6.14901
-6.2055
-6.25442
-6.2965
-6.33288
-6.36498
-6.39433
-6.4218
-4.51459
-5.11279
-5.41833
-5.5303
-5.63672
-5.76079
-5.87347
-5.96627
-6.04555
-6.11659
-6.18045
-6.23669
-6.28491
-6.32561
-6.35921
-6.38697
-6.4115
-6.43187
-7.43427
-7.43437
-7.43442
-7.4344
-7.43411
-7.43297
-7.43061
-7.42748
-7.42448
-7.42253
-7.42258
-7.42483
-7.42886
-7.43394
-7.43936
-7.44446
-7.44872
-7.45171
-7.45341
-7.45412
-7.4541
-7.45353
-7.45267
-7.45176
-7.45104
-7.4506
-7.4504
-7.45026
-7.45003
-7.44963
-7.44908
-7.4484
-7.44756
-7.44647
-7.44517
-7.44389
-7.44319
-7.44378
-7.44588
-7.44894
-7.45201
-7.45436
-7.45601
-7.4574
-7.45902
-7.46141
-7.46468
-7.46798
-7.4706
-7.47326
-7.47895
-7.49182
-7.51396
-7.54422
-7.58123
-7.62496
-7.67632
-7.73446
-7.79761
-7.86389
-7.93154
-7.99889
-8.06465
-8.12761
-8.18723
-8.24282
-8.29411
-8.34103
-8.38367
-8.42207
-8.45635
-8.48661
-8.51295
-8.53542
-8.55407
-8.56892
-8.57992
-8.58705
-8.59021
-8.58938
-8.58441
-8.57526
-8.56173
-8.54375
-8.52107
-8.49358
-8.46105
-8.42342
-8.38058
-8.33253
-8.27919
-8.22047
-8.15624
-8.08646
-8.01105
-7.93002
-7.84337
-7.75112
-7.65324
-7.54971
-7.44029
-7.3249
-7.20366
-7.07674
-6.94431
-6.80644
-6.6633
-6.51494
-6.36151
-6.20305
-6.03972
-5.87155
-5.6987
-5.52123
-5.33931
-5.15303
-4.96259
-4.76807
-4.56956
-4.36711
-4.16085
-3.95094
-3.73763
-3.52111
-3.30158
-3.07917
-2.85404
-2.62636
-2.39629
-2.16401
-1.92967
-1.69349
-1.45557
-1.21614
-0.975274
-0.733209
-0.489994
-0.245817
-0.000540115
0.245888
0.493347
0.741565
0.990447
1.23996
1.49005
1.74065
1.9917
2.24311
2.4948
2.74667
2.99862
3.25051
3.50221
3.75355
4.00437
4.25447
4.50365
4.75171
4.99845
5.24365
5.48708
5.72853
5.96778
6.20458
6.43871
6.66992
6.89798
7.12264
7.34366
7.56082
7.77388
7.98263
8.18684
8.38634
8.58092
8.77045
8.95499
9.13449
9.31203
9.47837
-7.43539
-7.43557
-7.43591
-7.43626
-7.43623
-7.43544
-7.43363
-7.43131
-7.42962
-7.42947
-7.43115
-7.43454
-7.43916
-7.4444
-7.44969
-7.45452
-7.45855
-7.46156
-7.46338
-7.46382
-7.46297
-7.46113
-7.45871
-7.45618
-7.45391
-7.45217
-7.45098
-7.45018
-7.44952
-7.4489
-7.44833
-7.4478
-7.44725
-7.44655
-7.44567
-7.44495
-7.44511
-7.44672
-7.44964
-7.45294
-7.45554
-7.45679
-7.45698
-7.45657
-7.45562
-7.45487
-7.45606
-7.46102
-7.46783
-7.47398
-7.48231
-7.49567
-7.51444
-7.54027
-7.57586
-7.62253
-7.67847
-7.74094
-7.80779
-7.8767
-7.94584
-8.01351
-8.07854
-8.1402
-8.19759
-8.25048
-8.29922
-8.34379
-8.38436
-8.42099
-8.45382
-8.4829
-8.50832
-8.5301
-8.54826
-8.56277
-8.57359
-8.58066
-8.58389
-8.5832
-8.57847
-8.56962
-8.55648
-8.53895
-8.51682
-8.48994
-8.45811
-8.42119
-8.37912
-8.33182
-8.27927
-8.22133
-8.15793
-8.08897
-8.01438
-7.93413
-7.84817
-7.75647
-7.65895
-7.55559
-7.44643
-7.33157
-7.21101
-7.08484
-6.95312
-6.81603
-6.67365
-6.52609
-6.37342
-6.21575
-6.05317
-5.88578
-5.71366
-5.53695
-5.35575
-5.1702
-4.98044
-4.78659
-4.58873
-4.38693
-4.18129
-3.97199
-3.75926
-3.5433
-3.32429
-3.10237
-2.87772
-2.65047
-2.42082
-2.18894
-1.95499
-1.71913
-1.48154
-1.24235
-1.00172
-0.759752
-0.516497
-0.271971
-0.0263248
0.220156
0.467372
0.715318
0.963916
1.21315
1.46296
1.71329
1.96407
2.21522
2.46666
2.71829
2.97002
3.22172
3.47325
3.72444
3.97514
4.22515
4.47429
4.72233
4.96908
5.21432
5.45783
5.69939
5.93877
6.17574
6.41008
6.64152
6.86985
7.09482
7.31618
7.53371
7.74718
7.95639
8.16112
8.36125
8.55663
8.74711
8.93279
9.11296
9.29297
9.45897
-7.43665
-7.43666
-7.4367
-7.43678
-7.43683
-7.43682
-7.43696
-7.43776
-7.43969
-7.44286
-7.44712
-7.45213
-7.45749
-7.4628
-7.46768
-7.47186
-7.47512
-7.47735
-7.47848
-7.47843
-7.47723
-7.475
-7.47191
-7.46817
-7.46402
-7.45973
-7.45558
-7.45181
-7.44863
-7.44613
-7.44426
-7.44281
-7.44151
-7.44031
-7.43962
-7.44016
-7.44251
-7.44658
-7.45118
-7.45464
-7.45563
-7.45422
-7.45201
-7.45084
-7.45114
-7.45226
-7.45534
-7.46273
-7.47446
-7.49015
-7.51081
-7.53702
-7.5689
-7.60676
-7.65099
-7.70127
-7.75625
-7.8143
-7.87406
-7.93425
-7.99388
-8.05207
-8.10817
-8.16176
-8.21239
-8.25979
-8.30394
-8.34478
-8.3823
-8.41652
-8.44742
-8.47502
-8.49929
-8.52021
-8.53775
-8.55185
-8.56243
-8.5694
-8.57267
-8.57212
-8.56763
-8.55909
-8.54637
-8.52932
-8.50777
-8.48155
-8.45046
-8.41436
-8.37313
-8.32669
-8.275
-8.21794
-8.15543
-8.08736
-8.01369
-7.93433
-7.84926
-7.7584
-7.66177
-7.55931
-7.4511
-7.33719
-7.21761
-7.09242
-6.96171
-6.8256
-6.68418
-6.53758
-6.38585
-6.22913
-6.06749
-5.90105
-5.72989
-5.55414
-5.37388
-5.18928
-5.00044
-4.80751
-4.61054
-4.40962
-4.20485
-3.99642
-3.78454
-3.56941
-3.35118
-3.13002
-2.90608
-2.67953
-2.45055
-2.2193
-1.98597
-1.75069
-1.51365
-1.27499
-1.03489
-0.793445
-0.550762
-0.30684
-0.0617858
0.184163
0.430883
0.6783
0.926393
1.17511
1.42443
1.67427
1.92457
2.17524
2.42623
2.67743
2.92874
3.18005
3.43121
3.68208
3.93249
4.18224
4.43116
4.67903
4.92564
5.17077
5.41421
5.65574
5.89511
6.1321
6.36647
6.598
6.82642
7.0515
7.27301
7.49071
7.70438
7.91382
8.1188
8.31916
8.51479
8.70565
8.89216
9.07305
9.256
9.41787
-7.43776
-7.43751
-7.43717
-7.43716
-7.43817
-7.44063
-7.44441
-7.44919
-7.45462
-7.46038
-7.46623
-7.47191
-7.47724
-7.48201
-7.48606
-7.48926
-7.49151
-7.49272
-7.49288
-7.49196
-7.48996
-7.48695
-7.48302
-7.47824
-7.47273
-7.4666
-7.46006
-7.45336
-7.44684
-7.44086
-7.43566
-7.43142
-7.42833
-7.42677
-7.42745
-7.43083
-7.43615
-7.44173
-7.44583
-7.44775
-7.44777
-7.44706
-7.44733
-7.44953
-7.45406
-7.46161
-7.47311
-7.48926
-7.51025
-7.53597
-7.56611
-7.60023
-7.63807
-7.67934
-7.72383
-7.7712
-7.82094
-7.87238
-7.9248
-7.97745
-8.02971
-8.08096
-8.13072
-8.17859
-8.22426
-8.26748
-8.30811
-8.34604
-8.38117
-8.41345
-8.44282
-8.46923
-8.4926
-8.51287
-8.52996
-8.5438
-8.55426
-8.56126
-8.56466
-8.56435
-8.5602
-8.55207
-8.53982
-8.52332
-8.50239
-8.47687
-8.44656
-8.41128
-8.3709
-8.32533
-8.2745
-8.21832
-8.15666
-8.08946
-8.01663
-7.93814
-7.8539
-7.7639
-7.66809
-7.56647
-7.45908
-7.34597
-7.22719
-7.10282
-6.97295
-6.83768
-6.6971
-6.55132
-6.40043
-6.24453
-6.08373
-5.91813
-5.74782
-5.57292
-5.39354
-5.2098
-5.02182
-4.82973
-4.63358
-4.43348
-4.22953
-4.02192
-3.81084
-3.59649
-3.37901
-3.15857
-2.93533
-2.70945
-2.48111
-2.25048
-2.01774
-1.78304
-1.54656
-1.30843
-1.06883
-0.827875
-0.585688
-0.342316
-0.0978407
0.147552
0.393726
0.640609
0.888171
1.13637
1.38517
1.63449
1.88429
2.13447
2.38498
2.63572
2.88658
3.13748
3.38825
3.63877
3.88885
4.13833
4.38699
4.63465
4.88109
5.1261
5.36944
5.6109
5.85024
6.08724
6.32163
6.55321
6.78169
7.00686
7.22847
7.4463
7.66011
7.86972
8.07492
8.27556
8.47156
8.66281
8.84989
9.03096
9.21485
9.37055
-7.4399
-7.43937
-7.43899
-7.44021
-7.44405
-7.44998
-7.45694
-7.46423
-7.47138
-7.47812
-7.48431
-7.48987
-7.49475
-7.49888
-7.50217
-7.50454
-7.50592
-7.50627
-7.50556
-7.50375
-7.50086
-7.49692
-7.49198
-7.48607
-7.47929
-7.47168
-7.46335
-7.45448
-7.44535
-7.43642
-7.42826
-7.42161
-7.41732
-7.41635
-7.41892
-7.42364
-7.42871
-7.43319
-7.43664
-7.43928
-7.44187
-7.4455
-7.45121
-7.45976
-7.47207
-7.48873
-7.50966
-7.53419
-7.56198
-7.59274
-7.62613
-7.66196
-7.70014
-7.74053
-7.78301
-7.82733
-7.87313
-7.91996
-7.96733
-8.01473
-8.06172
-8.10786
-8.1528
-8.19624
-8.23793
-8.27766
-8.31526
-8.35061
-8.38358
-8.41409
-8.44202
-8.46729
-8.48978
-8.50941
-8.52606
-8.53962
-8.54996
-8.55696
-8.56048
-8.56038
-8.55653
-8.54878
-8.53698
-8.52099
-8.50063
-8.47574
-8.44612
-8.41158
-8.37194
-8.32717
-8.27709
-8.22167
-8.16073
-8.09426
-8.02212
-7.94432
-7.86075
-7.77143
-7.67627
-7.57531
-7.46854
-7.35602
-7.23783
-7.11404
-6.98478
-6.85009
-6.71012
-6.56492
-6.41464
-6.25933
-6.09916
-5.93417
-5.76453
-5.59027
-5.41157
-5.22849
-5.0412
-4.84975
-4.65426
-4.45479
-4.2515
-4.04455
-3.83414
-3.62042
-3.40355
-3.1837
-2.96102
-2.73569
-2.50787
-2.27776
-2.04551
-1.81132
-1.57529
-1.33765
-1.09848
-0.857975
-0.61621
-0.37329
-0.129309
0.115574
0.361218
0.607594
0.854644
1.10235
1.35065
1.59949
1.8488
2.09852
2.34858
2.59889
2.84936
3.09987
3.3503
3.6005
3.85031
4.09954
4.34801
4.5955
4.84182
5.08673
5.33003
5.57147
5.81083
6.04786
6.28233
6.51398
6.74259
6.9679
7.18968
7.4077
7.62173
7.83158
8.03705
8.23799
8.43431
8.6258
8.81305
8.99363
9.17723
9.32616
-7.44398
-7.44311
-7.44351
-7.44756
-7.45456
-7.46269
-7.47096
-7.47889
-7.48623
-7.49289
-7.49885
-7.5041
-7.50858
-7.51223
-7.51498
-7.51675
-7.51751
-7.5172
-7.51581
-7.51332
-7.50975
-7.50509
-7.49938
-7.49263
-7.48483
-7.47606
-7.46646
-7.45622
-7.44562
-7.43526
-7.42598
-7.41886
-7.41499
-7.41458
-7.41647
-7.41926
-7.42249
-7.42641
-7.4313
-7.43739
-7.44487
-7.45448
-7.46729
-7.48381
-7.50398
-7.52738
-7.55363
-7.58237
-7.61326
-7.64614
-7.68079
-7.7171
-7.75497
-7.79426
-7.83485
-7.87653
-7.91905
-7.96209
-8.00536
-8.04851
-8.09124
-8.13326
-8.17431
-8.21415
-8.25257
-8.28938
-8.32444
-8.35759
-8.38872
-8.41768
-8.44436
-8.46863
-8.49036
-8.50943
-8.52569
-8.53902
-8.54927
-8.55629
-8.55994
-8.56007
-8.55652
-8.54914
-8.53778
-8.52227
-8.50246
-8.47815
-8.44916
-8.41526
-8.37634
-8.33219
-8.28281
-8.22801
-8.1677
-8.10177
-8.03018
-7.95286
-7.86978
-7.78089
-7.68616
-7.58558
-7.47917
-7.36701
-7.24915
-7.12571
-6.99678
-6.86244
-6.72279
-6.57795
-6.42801
-6.27308
-6.11328
-5.94871
-5.77948
-5.60567
-5.42742
-5.24484
-5.05801
-4.86703
-4.67199
-4.47299
-4.27019
-4.06373
-3.85381
-3.64056
-3.42416
-3.20474
-2.98249
-2.75757
-2.53016
-2.30044
-2.06859
-1.83478
-1.59915
-1.36189
-1.12312
-0.883003
-0.64164
-0.399126
-0.155604
0.0887825
0.333927
0.579804
0.826365
1.07358
1.32139
1.56975
1.81859
2.06786
2.31748
2.56738
2.81746
3.06762
3.31773
3.56765
3.81721
4.06622
4.31452
4.56187
4.80809
5.05294
5.29621
5.53766
5.77706
6.01416
6.24873
6.48052
6.70929
6.93477
7.15675
7.37498
7.58924
7.79932
8.00504
8.20621
8.40272
8.59429
8.78143
8.9612
9.14426
9.28654
-7.4493
-7.44878
-7.45113
-7.45783
-7.46628
-7.47476
-7.48286
-7.49045
-7.49745
-7.50384
-7.50957
-7.51457
-7.51877
-7.52209
-7.52447
-7.52584
-7.52618
-7.52544
-7.52361
-7.52067
-7.51666
-7.51155
-7.50532
-7.4979
-7.48937
-7.47989
-7.46967
-7.459
-7.44825
-7.43813
-7.42968
-7.42387
-7.42063
-7.41904
-7.41864
-7.4197
-7.42271
-7.42797
-7.43537
-7.44514
-7.45792
-7.47397
-7.49315
-7.51519
-7.53988
-7.56686
-7.59582
-7.62657
-7.65892
-7.69271
-7.72779
-7.764
-7.80122
-7.83933
-7.87821
-7.91768
-7.95758
-7.9977
-8.03784
-8.07778
-8.1173
-8.15619
-8.19426
-8.23131
-8.26717
-8.30169
-8.33472
-8.36612
-8.39574
-8.42345
-8.44911
-8.47257
-8.49368
-8.51231
-8.52829
-8.54146
-8.55167
-8.55877
-8.56258
-8.56295
-8.55972
-8.55272
-8.54179
-8.52677
-8.50747
-8.48372
-8.4553
-8.42202
-8.38366
-8.34013
-8.29131
-8.23702
-8.1772
-8.11169
-8.04049
-7.96349
-7.8807
-7.79203
-7.69748
-7.59705
-7.49075
-7.3787
-7.26093
-7.1376
-7.00874
-6.87451
-6.73494
-6.59022
-6.44039
-6.28564
-6.126
-5.96165
-5.79262
-5.61909
-5.44112
-5.25884
-5.07229
-4.88162
-4.68687
-4.4882
-4.28572
-4.07963
-3.87004
-3.65714
-3.44105
-3.22195
-3
-2.77537
-2.54827
-2.31884
-2.0873
-1.85378
-1.61849
-1.38155
-1.14314
-0.903375
-0.662383
-0.420286
-0.177214
0.0666747
0.311337
0.556713
0.802791
1.04951
1.29684
1.54471
1.79309
2.04191
2.2911
2.5406
2.79031
3.04014
3.28995
3.53962
3.78895
4.03778
4.28591
4.53316
4.77929
5.0241
5.26736
5.50885
5.74832
5.98553
6.22023
6.45219
6.68112
6.90679
7.12897
7.34741
7.56188
7.77219
7.9781
8.17945
8.37606
8.56758
8.75446
8.93334
9.1159
9.25191
-7.45386
-7.45446
-7.45922
-7.46706
-7.47528
-7.48319
-7.49074
-7.49793
-7.50465
-7.51084
-7.5164
-7.52123
-7.52526
-7.5284
-7.53059
-7.53176
-7.53188
-7.53092
-7.52888
-7.52574
-7.52152
-7.51613
-7.50951
-7.50175
-7.4931
-7.48368
-7.47371
-7.46353
-7.45378
-7.44535
-7.43877
-7.4337
-7.42947
-7.42628
-7.4251
-7.42639
-7.43026
-7.43733
-7.44793
-7.46188
-7.47898
-7.49894
-7.52154
-7.54646
-7.57344
-7.60222
-7.63259
-7.66436
-7.69738
-7.73146
-7.76648
-7.80229
-7.83879
-7.87584
-7.91333
-7.95112
-7.98909
-8.0271
-8.06499
-8.1026
-8.13978
-8.17637
-8.21222
-8.24718
-8.28112
-8.3139
-8.34538
-8.37543
-8.4039
-8.43066
-8.45554
-8.4784
-8.49907
-8.51739
-8.53319
-8.5463
-8.55655
-8.56377
-8.56778
-8.56843
-8.56553
-8.55893
-8.54844
-8.53389
-8.5151
-8.49188
-8.46401
-8.43126
-8.39346
-8.35041
-8.30206
-8.24822
-8.18873
-8.12354
-8.05254
-7.97572
-7.89302
-7.80439
-7.70982
-7.6093
-7.50292
-7.39073
-7.27285
-7.14937
-7.0204
-6.88601
-6.74635
-6.60151
-6.45163
-6.29682
-6.13719
-5.97286
-5.80392
-5.63049
-5.45265
-5.27051
-5.08413
-4.89361
-4.69904
-4.50056
-4.29832
-4.09245
-3.88309
-3.67041
-3.45453
-3.23563
-3.01388
-2.78946
-2.56256
-2.33335
-2.10204
-1.86877
-1.63373
-1.39708
-1.15898
-0.919545
-0.67891
-0.437226
-0.194622
0.0487861
0.292956
0.53784
0.783419
1.02964
1.27647
1.52386
1.77176
2.02012
2.26888
2.51797
2.76732
3.01682
3.26635
3.51576
3.76487
4.01352
4.26149
4.50863
4.75469
4.99948
5.24276
5.48431
5.72387
5.96121
6.19608
6.4282
6.65732
6.8832
7.10559
7.32425
7.53894
7.74945
7.95556
8.15704
8.35372
8.54512
8.7317
8.90967
9.09184
9.22214
-7.45593
-7.458
-7.46431
-7.47196
-7.47949
-7.48684
-7.49402
-7.50095
-7.50752
-7.51363
-7.51914
-7.52395
-7.52797
-7.5311
-7.53328
-7.53445
-7.53458
-7.53364
-7.53162
-7.52851
-7.52427
-7.5188
-7.51216
-7.50461
-7.49633
-7.48751
-7.47851
-7.46982
-7.46191
-7.45503
-7.44898
-7.44357
-7.43892
-7.4358
-7.43518
-7.43763
-7.44349
-7.45302
-7.46605
-7.4823
-7.50149
-7.52334
-7.54753
-7.57379
-7.60187
-7.63153
-7.66258
-7.69482
-7.72809
-7.76221
-7.79707
-7.83251
-7.86843
-7.90468
-7.94116
-7.97777
-8.01439
-8.05091
-8.08722
-8.12318
-8.15869
-8.19364
-8.2279
-8.26136
-8.29391
-8.32544
-8.3558
-8.38488
-8.41253
-8.43861
-8.46295
-8.4854
-8.50578
-8.52394
-8.53967
-8.5528
-8.56315
-8.57054
-8.5748
-8.57575
-8.57321
-8.56701
-8.55697
-8.54289
-8.5246
-8.50189
-8.47453
-8.4423
-8.40493
-8.36239
-8.31441
-8.26092
-8.20167
-8.13666
-8.06574
-7.98895
-7.90616
-7.81739
-7.7226
-7.62181
-7.51514
-7.40262
-7.28444
-7.1606
-7.0313
-6.89657
-6.75662
-6.61149
-6.4614
-6.30638
-6.14662
-5.98217
-5.81319
-5.63973
-5.46193
-5.2798
-5.09348
-4.903
-4.70853
-4.51017
-4.30807
-4.10233
-3.89312
-3.68056
-3.46481
-3.24604
-3.02442
-2.80015
-2.57339
-2.34436
-2.11321
-1.88015
-1.64533
-1.40895
-1.17112
-0.932002
-0.691736
-0.450464
-0.208335
0.0346029
0.278271
0.522665
0.767732
1.01345
1.25978
1.50667
1.75409
2.00199
2.25031
2.499
2.74798
2.99716
3.24641
3.49557
3.74447
3.99293
4.24078
4.48781
4.73384
4.97861
5.22194
5.46356
5.70325
5.94075
6.17581
6.40812
6.63746
6.86354
7.08615
7.30502
7.51993
7.73064
7.93692
8.13852
8.33522
8.52647
8.7127
8.88981
9.07163
9.19687
-7.45402
-7.45734
-7.46391
-7.47099
-7.47808
-7.48517
-7.4922
-7.49907
-7.50567
-7.51186
-7.51751
-7.5225
-7.52672
-7.53008
-7.53249
-7.53389
-7.53424
-7.53351
-7.53168
-7.52872
-7.52461
-7.51934
-7.51307
-7.50607
-7.49858
-7.4909
-7.48334
-7.47605
-7.46909
-7.46261
-7.45666
-7.4515
-7.44762
-7.4458
-7.4467
-7.45075
-7.45814
-7.46902
-7.48322
-7.50054
-7.52068
-7.54337
-7.56829
-7.59518
-7.62379
-7.65389
-7.68529
-7.71778
-7.7512
-7.78536
-7.82014
-7.85536
-7.89091
-7.92665
-7.96251
-7.99835
-8.03409
-8.06962
-8.10487
-8.13973
-8.17412
-8.20795
-8.24113
-8.27357
-8.30518
-8.33584
-8.36546
-8.39389
-8.42101
-8.44664
-8.47064
-8.49284
-8.51306
-8.53113
-8.54686
-8.56007
-8.57057
-8.57818
-8.58272
-8.58401
-8.58186
-8.57609
-8.56651
-8.55292
-8.53513
-8.51292
-8.48607
-8.45429
-8.41743
-8.37521
-8.32762
-8.27436
-8.21528
-8.15029
-8.07935
-8.00239
-7.91939
-7.8303
-7.73512
-7.63391
-7.52675
-7.41378
-7.29507
-7.17075
-7.04092
-6.90573
-6.76531
-6.61979
-6.46931
-6.31399
-6.15397
-5.98933
-5.82019
-5.64664
-5.46875
-5.28658
-5.10021
-4.90974
-4.71529
-4.51699
-4.31497
-4.10931
-3.90018
-3.68769
-3.47203
-3.25334
-3.03181
-2.80763
-2.58099
-2.35209
-2.12109
-1.88821
-1.65361
-1.41745
-1.17989
-0.941085
-0.701194
-0.460361
-0.218693
0.0237556
0.26693
0.51081
0.755361
1.00056
1.24636
1.49274
1.73965
1.98706
2.23493
2.48319
2.73179
2.98064
3.22961
3.47852
3.7272
3.97547
4.22318
4.47013
4.71611
4.9609
5.20428
5.44601
5.68584
5.92352
6.15879
6.39133
6.62087
6.84718
7.07001
7.28911
7.50424
7.71515
7.9216
8.12331
8.32001
8.51109
8.69698
8.87327
9.05478
9.17564
-7.44626
-7.45022
-7.45651
-7.46338
-7.47046
-7.47763
-7.48478
-7.49183
-7.49866
-7.50514
-7.51114
-7.51652
-7.52113
-7.52488
-7.52767
-7.52943
-7.53013
-7.52973
-7.52822
-7.52559
-7.52188
-7.51718
-7.51169
-7.50562
-7.49916
-7.49244
-7.48563
-7.47887
-7.47227
-7.46605
-7.46055
-7.45623
-7.45354
-7.453
-7.45514
-7.46033
-7.46875
-7.48048
-7.4954
-7.51332
-7.53399
-7.55712
-7.58245
-7.60971
-7.63867
-7.66911
-7.70082
-7.73358
-7.76722
-7.80154
-7.83639
-7.87159
-7.90703
-7.94257
-7.97812
-8.01355
-8.04879
-8.08374
-8.11835
-8.15254
-8.18623
-8.21936
-8.25185
-8.28362
-8.3146
-8.3447
-8.3738
-8.4018
-8.42856
-8.45392
-8.47773
-8.49981
-8.51997
-8.53805
-8.55385
-8.56719
-8.57789
-8.58576
-8.59061
-8.59227
-8.59053
-8.58521
-8.5761
-8.563
-8.54571
-8.524
-8.49762
-8.46634
-8.42983
-8.38802
-8.34068
-8.28757
-8.22855
-8.16347
-8.09238
-8.01514
-7.93178
-7.84224
-7.74654
-7.64478
-7.53701
-7.42343
-7.30406
-7.17912
-7.04865
-6.91289
-6.77188
-6.62588
-6.47492
-6.31924
-6.15886
-5.99398
-5.82462
-5.65092
-5.47288
-5.29062
-5.10416
-4.91367
-4.71922
-4.52097
-4.31897
-4.11339
-3.9043
-3.69188
-3.47627
-3.25766
-3.03622
-2.81213
-2.58562
-2.35684
-2.12601
-1.89329
-1.6589
-1.42297
-1.18569
-0.947229
-0.707732
-0.467359
-0.226164
0.0157719
0.258433
0.501772
0.745783
0.990427
1.23569
1.48152
1.72791
1.97483
2.22223
2.47006
2.71827
2.96682
3.21553
3.4642
3.71264
3.96074
4.20832
4.4552
4.70116
4.94599
5.18943
5.43129
5.67127
5.90918
6.14467
6.37745
6.60721
6.83376
7.05681
7.27615
7.49149
7.70259
7.9092
8.11101
8.30771
8.49861
8.68414
8.85966
9.04087
9.15803
-7.43109
-7.43504
-7.44132
-7.44865
-7.45624
-7.46378
-7.47122
-7.47858
-7.48577
-7.4927
-7.49922
-7.50514
-7.51029
-7.51456
-7.51787
-7.52017
-7.5214
-7.52155
-7.52063
-7.51865
-7.51567
-7.51179
-7.50713
-7.50184
-7.49604
-7.48987
-7.48345
-7.47694
-7.47062
-7.46483
-7.45991
-7.45629
-7.45442
-7.45481
-7.45788
-7.46394
-7.47314
-7.48553
-7.501
-7.51939
-7.54044
-7.56394
-7.58962
-7.61726
-7.64662
-7.67748
-7.70962
-7.74279
-7.77681
-7.81146
-7.84659
-7.88201
-7.91761
-7.95323
-7.98877
-8.02409
-8.05913
-8.0938
-8.12805
-8.16181
-8.19506
-8.22771
-8.25974
-8.29109
-8.32167
-8.35141
-8.38021
-8.40795
-8.4345
-8.45973
-8.48344
-8.50548
-8.52566
-8.54379
-8.55967
-8.57314
-8.58402
-8.59214
-8.5973
-8.59932
-8.59801
-8.59315
-8.58452
-8.57192
-8.55512
-8.53389
-8.50799
-8.47713
-8.44105
-8.39951
-8.35237
-8.29936
-8.24025
-8.17502
-8.10363
-8.02606
-7.94224
-7.85217
-7.75588
-7.65346
-7.54504
-7.43072
-7.31066
-7.18498
-7.05384
-6.91739
-6.77578
-6.62919
-6.47776
-6.32163
-6.16091
-5.99573
-5.82616
-5.65225
-5.47407
-5.29167
-5.10515
-4.91463
-4.72021
-4.522
-4.32007
-4.11454
-3.90553
-3.69319
-3.47768
-3.25917
-3.03783
-2.81387
-2.58749
-2.35887
-2.12822
-1.8957
-1.66151
-1.42584
-1.18887
-0.950784
-0.711742
-0.47185
-0.231169
0.0102385
0.252345
0.495119
0.73855
0.982615
1.22729
1.47257
1.71841
1.96481
2.21172
2.45911
2.70693
2.95518
3.20366
3.45211
3.70032
3.94822
4.19567
4.44248
4.68843
4.93329
5.17684
5.41882
5.65899
5.89713
6.13289
6.36591
6.59591
6.82269
7.04599
7.26556
7.48113
7.69244
7.89921
8.10113
8.29782
8.48854
8.67375
8.84856
9.02942
9.14358
-7.40792
-7.41152
-7.41838
-7.42677
-7.43514
-7.44313
-7.45089
-7.45863
-7.46636
-7.474
-7.48128
-7.48797
-7.49386
-7.49887
-7.50293
-7.50599
-7.50803
-7.50902
-7.50896
-7.50785
-7.50573
-7.50267
-7.49875
-7.49406
-7.4887
-7.48281
-7.47657
-7.47026
-7.46416
-7.45862
-7.45401
-7.45083
-7.44954
-7.45061
-7.45436
-7.4611
-7.47091
-7.48384
-7.49976
-7.51855
-7.53999
-7.56389
-7.59002
-7.61815
-7.64806
-7.67951
-7.71228
-7.74609
-7.78072
-7.81594
-7.85158
-7.88744
-7.92339
-7.95925
-7.99493
-8.0303
-8.0653
-8.09985
-8.13392
-8.16743
-8.20038
-8.23273
-8.26447
-8.29553
-8.32587
-8.35541
-8.38405
-8.41168
-8.43812
-8.46322
-8.48681
-8.50874
-8.52883
-8.54692
-8.56279
-8.57627
-8.58724
-8.59554
-8.60099
-8.60341
-8.60258
-8.59824
-8.59016
-8.57808
-8.56179
-8.54106
-8.51563
-8.4852
-8.44943
-8.40821
-8.36119
-8.30816
-8.24886
-8.18338
-8.11167
-8.03373
-7.94945
-7.85883
-7.76195
-7.65884
-7.54972
-7.43464
-7.31385
-7.18741
-7.05558
-6.91841
-6.7762
-6.629
-6.47708
-6.32049
-6.15945
-5.99397
-5.82419
-5.65008
-5.47176
-5.28926
-5.10272
-4.91222
-4.71789
-4.51976
-4.31795
-4.11254
-3.90367
-3.69146
-3.4761
-3.25775
-3.03658
-2.81281
-2.58663
-2.35824
-2.12782
-1.89558
-1.66166
-1.4263
-1.18972
-0.952098
-0.713572
-0.47421
-0.234104
0.00672242
0.248216
0.490376
0.733177
0.976618
1.22068
1.46535
1.71062
1.95647
2.20286
2.44977
2.6972
2.94516
3.19348
3.44176
3.6898
3.93753
4.18488
4.43163
4.67759
4.92251
5.16617
5.4083
5.64868
5.88709
6.12318
6.35647
6.58672
6.81374
7.03729
7.2571
7.4729
7.6844
7.89134
8.09336
8.29005
8.48059
8.66546
8.83962
9.02009
9.13191
-7.37736
-7.38092
-7.38888
-7.39864
-7.40783
-7.4162
-7.42444
-7.43285
-7.44129
-7.44975
-7.45807
-7.4659
-7.47284
-7.47879
-7.48379
-7.48789
-7.49101
-7.4931
-7.49411
-7.49401
-7.49282
-7.49055
-7.48723
-7.48295
-7.47783
-7.47206
-7.46584
-7.45947
-7.45328
-7.4477
-7.44319
-7.44023
-7.43926
-7.44072
-7.44491
-7.45206
-7.46227
-7.47556
-7.49186
-7.51105
-7.53295
-7.55737
-7.58409
-7.61289
-7.64353
-7.67576
-7.70931
-7.7439
-7.7793
-7.81525
-7.85155
-7.88799
-7.9244
-7.96061
-7.99652
-8.03202
-8.06705
-8.10155
-8.13548
-8.16883
-8.20157
-8.23369
-8.26518
-8.29601
-8.32612
-8.35546
-8.38389
-8.41128
-8.43746
-8.46223
-8.48545
-8.50705
-8.52691
-8.54484
-8.56056
-8.5739
-8.58477
-8.59314
-8.59886
-8.60177
-8.60156
-8.59794
-8.59053
-8.57908
-8.56336
-8.54316
-8.51821
-8.48825
-8.45288
-8.41192
-8.36508
-8.31196
-8.25244
-8.18665
-8.11465
-8.03635
-7.95163
-7.86049
-7.76295
-7.65914
-7.54921
-7.43336
-7.31174
-7.18454
-7.05191
-6.91404
-6.7711
-6.62329
-6.47081
-6.3138
-6.15239
-5.98666
-5.81663
-5.64235
-5.46389
-5.28135
-5.09483
-4.90442
-4.71021
-4.51223
-4.31058
-4.10533
-3.89663
-3.6846
-3.46943
-3.25126
-3.0303
-2.80674
-2.5808
-2.35269
-2.1226
-1.89074
-1.65729
-1.42245
-1.18643
-0.949421
-0.711524
-0.472827
-0.233402
0.00670422
0.247464
0.488867
0.730905
0.973576
1.21687
1.46079
1.70532
1.95046
2.19617
2.44243
2.68924
2.93669
3.18467
3.43272
3.68058
3.92815
4.17537
4.42207
4.66803
4.91302
5.15678
5.39908
5.63967
5.87846
6.11498
6.3486
6.57911
6.8064
7.03022
7.2503
7.46635
7.67807
7.8852
8.08738
8.28408
8.47445
8.65901
8.83255
9.01256
9.12268
-7.34156
-7.34567
-7.3552
-7.36664
-7.37672
-7.38537
-7.39372
-7.40266
-7.41213
-7.42179
-7.43135
-7.44054
-7.44882
-7.45597
-7.46214
-7.46751
-7.47196
-7.47538
-7.47765
-7.47869
-7.47844
-7.47689
-7.47407
-7.47006
-7.46499
-7.45905
-7.45252
-7.44576
-7.43919
-7.43329
-7.42853
-7.42542
-7.42438
-7.42584
-7.43005
-7.43727
-7.44757
-7.46102
-7.47756
-7.49709
-7.51945
-7.54445
-7.57188
-7.60148
-7.633
-7.66614
-7.70061
-7.7361
-7.77237
-7.80913
-7.84615
-7.88319
-7.92009
-7.95668
-7.99283
-8.02847
-8.0635
-8.09789
-8.1316
-8.16465
-8.19702
-8.22874
-8.25978
-8.29015
-8.3198
-8.34868
-8.37665
-8.40355
-8.42916
-8.45324
-8.47566
-8.49649
-8.5158
-8.53343
-8.54894
-8.56192
-8.57244
-8.58059
-8.58644
-8.58986
-8.59048
-8.58781
-8.58135
-8.57073
-8.55568
-8.53608
-8.51191
-8.48259
-8.44802
-8.40774
-8.36152
-8.30896
-8.24996
-8.18443
-8.11242
-8.03386
-7.94872
-7.85702
-7.75874
-7.65411
-7.54324
-7.42645
-7.30382
-7.17568
-7.04208
-6.90332
-6.7595
-6.61095
-6.45777
-6.30023
-6.13834
-5.97226
-5.80193
-5.62747
-5.44887
-5.26631
-5.07982
-4.88952
-4.69541
-4.49759
-4.29609
-4.09102
-3.88247
-3.67062
-3.45561
-3.23763
-3.01685
-2.7935
-2.56779
-2.33993
-2.11017
-1.87868
-1.64569
-1.41137
-1.17592
-0.939498
-0.70222
-0.464195
-0.225477
0.0138694
0.253839
0.494415
0.735607
0.97741
1.21983
1.46288
1.70653
1.9508
2.19565
2.44105
2.68694
2.93329
3.18001
3.42706
3.67426
3.92145
4.16838
4.41488
4.66069
4.90559
5.14931
5.3916
5.63224
5.87124
6.1081
6.34202
6.57278
6.80034
7.02443
7.2448
7.46112
7.67311
7.88052
8.08292
8.27966
8.46985
8.65411
8.82706
9.00656
9.11562
-7.30239
-7.30734
-7.31891
-7.33202
-7.34226
-7.35083
-7.35976
-7.36961
-7.37998
-7.39073
-7.40157
-7.41229
-7.4222
-7.43103
-7.4389
-7.44604
-7.45227
-7.45742
-7.46128
-7.46371
-7.46458
-7.46384
-7.46148
-7.45757
-7.45228
-7.44586
-7.43864
-7.43105
-7.42355
-7.4167
-7.411
-7.40701
-7.40513
-7.40585
-7.4094
-7.4161
-7.42601
-7.43927
-7.45577
-7.47549
-7.49823
-7.52384
-7.55205
-7.5826
-7.61514
-7.64934
-7.68487
-7.72139
-7.75862
-7.79622
-7.83398
-7.8716
-7.90897
-7.94581
-7.9821
-8.01765
-8.05249
-8.08649
-8.11972
-8.15214
-8.18382
-8.21477
-8.24503
-8.27459
-8.30346
-8.33157
-8.35886
-8.38511
-8.41001
-8.43307
-8.45405
-8.47324
-8.49121
-8.50829
-8.52415
-8.53809
-8.5496
-8.55851
-8.56512
-8.56918
-8.57051
-8.56845
-8.56276
-8.55269
-8.53824
-8.51929
-8.49566
-8.46716
-8.43324
-8.39371
-8.34822
-8.29648
-8.23824
-8.17326
-8.10142
-8.02278
-7.93738
-7.84521
-7.74637
-7.641
-7.52936
-7.41167
-7.28818
-7.1591
-7.02464
-6.885
-6.74043
-6.59116