/*--------------------------------*- C++ -*----------------------------------*\
  =========                 |
  \\      /  F ield         | OpenFOAM: The Open Source CFD Toolbox
   \\    /   O peration     | Website:  https://openfoam.org
    \\  /    A nd           | Version:  13
     \\/     M anipulation  |
\*---------------------------------------------------------------------------*/
FoamFile
{
    format      ascii;
    class       surfaceScalarField;
    location    "2000";
    object      phi;
}
// * * * * * * * * * * * * * * * * * * * * * * * * * * * * * * * * * * * * * //

dimensions      [0 3 -1 0 0 0 0];

internalField   nonuniform List<scalar> 
24170
(
3.04815e-06
1.40283e-07
2.89311e-06
1.5504e-07
2.75509e-06
1.37968e-07
2.64699e-06
1.08074e-07
2.55856e-06
8.84178e-08
2.46056e-06
9.80398e-08
2.3574e-06
1.03197e-07
2.26656e-06
9.09449e-08
2.18728e-06
7.92713e-08
2.11715e-06
7.01739e-08
2.05422e-06
6.29317e-08
1.99786e-06
5.63875e-08
1.94935e-06
4.85037e-08
1.90719e-06
4.21544e-08
1.87231e-06
3.48841e-08
1.84724e-06
2.50863e-08
1.83142e-06
1.58582e-08
3.19028e-09
1.8283e-06
3.48161e-06
7.59401e-08
3.52203e-06
1.14607e-07
3.55164e-06
1.08323e-07
3.55458e-06
1.0506e-07
3.53431e-06
1.08635e-07
3.51893e-06
1.13347e-07
3.50839e-06
1.13695e-07
3.49185e-06
1.07459e-07
3.47331e-06
9.77567e-08
3.44988e-06
9.35866e-08
3.42178e-06
9.101e-08
3.39287e-06
8.52977e-08
3.36431e-06
7.70687e-08
3.33578e-06
7.07042e-08
3.30749e-06
6.31957e-08
3.28123e-06
5.13972e-08
3.25698e-06
4.01961e-08
2.72013e-08
3.23304e-06
3.68511e-06
5.33664e-08
3.70644e-06
9.32924e-08
3.72036e-06
9.4345e-08
3.73314e-06
9.2282e-08
3.74448e-06
9.72793e-08
3.75622e-06
1.01639e-07
3.76776e-06
1.02183e-07
3.77859e-06
9.66974e-08
3.78777e-06
8.85492e-08
3.79582e-06
8.55404e-08
3.80335e-06
8.34695e-08
3.81e-06
7.86447e-08
3.8148e-06
7.22534e-08
3.8186e-06
6.68915e-08
3.82159e-06
6.02057e-08
3.82275e-06
5.02365e-08
3.82263e-06
4.03221e-08
2.90355e-08
3.82078e-06
3.93603e-06
4.27385e-08
3.94912e-06
8.02179e-08
3.95601e-06
8.74409e-08
3.96067e-06
8.75931e-08
3.96607e-06
9.18469e-08
3.97275e-06
9.49198e-08
3.98014e-06
9.47675e-08
3.98677e-06
9.00457e-08
3.99194e-06
8.33219e-08
3.99777e-06
7.96771e-08
4.00447e-06
7.67415e-08
4.01126e-06
7.18357e-08
4.01762e-06
6.58803e-08
4.02411e-06
6.03943e-08
4.03027e-06
5.40496e-08
4.03493e-06
4.55925e-08
4.03847e-06
3.68062e-08
2.74431e-08
4.04008e-06
4.21414e-06
3.57399e-08
4.2248e-06
6.95908e-08
4.23126e-06
8.093e-08
4.23553e-06
8.33289e-08
4.24032e-06
8.70526e-08
4.24562e-06
8.96317e-08
4.25132e-06
8.90956e-08
4.25636e-06
8.50391e-08
4.26016e-06
7.94983e-08
4.26421e-06
7.56142e-08
4.26871e-06
7.22169e-08
4.27316e-06
6.73692e-08
4.27732e-06
6.17021e-08
4.2816e-06
5.61015e-08
4.28577e-06
4.98704e-08
4.28904e-06
4.231e-08
4.29139e-06
3.44573e-08
2.63143e-08
4.29249e-06
4.51559e-06
2.92447e-08
4.52427e-06
6.09142e-08
4.53062e-06
7.45666e-08
4.5352e-06
7.87421e-08
4.54018e-06
8.2061e-08
4.5456e-06
8.41906e-08
4.55111e-06
8.35836e-08
4.55602e-06
8.01076e-08
4.56011e-06
7.53716e-08
4.56426e-06
7.14364e-08
4.56863e-06
6.78255e-08
4.57285e-06
6.31316e-08
4.57676e-06
5.77785e-08
4.58059e-06
5.22607e-08
4.58423e-06
4.62221e-08
4.58714e-06
3.93865e-08
4.58914e-06
3.24563e-08
2.558e-08
4.5899e-06
4.83826e-06
2.37179e-08
4.84588e-06
5.33092e-08
4.85238e-06
6.80382e-08
4.85748e-06
7.36356e-08
4.86257e-06
7.6976e-08
4.86801e-06
7.87522e-08
4.87344e-06
7.81806e-08
4.87834e-06
7.52178e-08
4.88258e-06
7.11206e-08
4.88673e-06
6.72735e-08
4.89105e-06
6.34868e-08
4.89522e-06
5.89489e-08
4.8991e-06
5.38831e-08
4.90281e-06
4.85348e-08
4.90621e-06
4.28056e-08
4.90895e-06
3.66448e-08
4.91088e-06
3.05284e-08
2.45554e-08
4.91185e-06
5.18383e-06
1.9474e-08
5.19083e-06
4.63116e-08
5.1976e-06
6.12433e-08
5.20338e-06
6.7846e-08
5.20878e-06
7.15615e-08
5.21429e-06
7.32325e-08
5.21971e-06
7.27577e-08
5.2247e-06
7.02141e-08
5.22915e-06
6.66495e-08
5.23341e-06
6.30005e-08
5.2377e-06
5.91803e-08
5.24184e-06
5.47948e-08
5.2457e-06
5.00073e-08
5.24928e-06
4.49404e-08
5.25248e-06
3.95952e-08
5.25507e-06
3.4048e-08
5.25696e-06
2.86142e-08
2.34459e-08
5.25807e-06
5.55454e-06
1.62747e-08
5.56096e-06
3.99115e-08
5.56773e-06
5.44559e-08
5.57389e-06
6.16773e-08
5.57969e-06
6.57521e-08
5.58542e-06
6.7511e-08
5.59099e-06
6.71955e-08
5.59616e-06
6.50454e-08
5.60087e-06
6.19354e-08
5.60533e-06
5.85216e-08
5.60968e-06
5.48153e-08
5.61382e-06
5.06452e-08
5.61768e-06
4.61324e-08
5.62122e-06
4.13916e-08
5.62433e-06
3.647e-08
5.62689e-06
3.14868e-08
5.62883e-06
2.66712e-08
2.21175e-08
5.6301e-06
5.95236e-06
1.37006e-08
5.95808e-06
3.4169e-08
5.96456e-06
4.79526e-08
5.9708e-06
5.54167e-08
5.9769e-06
5.96393e-08
5.98287e-06
6.15294e-08
5.98864e-06
6.14129e-08
5.99402e-06
5.96404e-08
5.999e-06
5.69371e-08
6.00371e-06
5.37951e-08
6.00822e-06
5.02943e-08
6.01246e-06
4.63956e-08
6.01638e-06
4.22012e-08
6.01995e-06
3.78182e-08
6.02308e-06
3.33298e-08
6.02571e-06
2.886e-08
6.02779e-06
2.45734e-08
2.05827e-08
6.0293e-06
6.37897e-06
1.15426e-08
6.38403e-06
2.91305e-08
6.39013e-06
4.18348e-08
6.39631e-06
4.92216e-08
6.40253e-06
5.34122e-08
6.40869e-06
5.53611e-08
6.41466e-06
5.54382e-08
6.42029e-06
5.4012e-08
6.42554e-06
5.16683e-08
6.43051e-06
4.88174e-08
6.43522e-06
4.55735e-08
6.43963e-06
4.19879e-08
6.44369e-06
3.81326e-08
6.44736e-06
3.41431e-08
6.4506e-06
3.00878e-08
6.45337e-06
2.61028e-08
6.45563e-06
2.23088e-08
1.87825e-08
6.45739e-06
5.74243e-06
9.95394e-09
5.74625e-06
2.52979e-08
5.75113e-06
3.69323e-08
5.75628e-06
4.40519e-08
5.76154e-06
4.81289e-08
5.76681e-06
5.00856e-08
5.77195e-06
5.02923e-08
5.77684e-06
4.91221e-08
5.78144e-06
4.70559e-08
5.7858e-06
4.44521e-08
5.78992e-06
4.14566e-08
5.79377e-06
3.8118e-08
5.79732e-06
3.45876e-08
5.80054e-06
3.09075e-08
5.80341e-06
2.72348e-08
5.80589e-06
2.36217e-08
5.80797e-06
2.02102e-08
1.7044e-08
5.80967e-06
6.99975e-06
8.35251e-09
7.00367e-06
2.13826e-08
7.00889e-06
3.17063e-08
7.01461e-06
3.8306e-08
7.02059e-06
4.21432e-08
7.02665e-06
4.40114e-08
7.03262e-06
4.43188e-08
7.03836e-06
4.33745e-08
7.04382e-06
4.15947e-08
7.049e-06
3.92742e-08
7.05388e-06
3.65477e-08
7.05845e-06
3.35527e-08
7.06266e-06
3.03526e-08
7.06649e-06
2.70872e-08
7.0699e-06
2.38018e-08
7.07291e-06
2.06328e-08
7.07546e-06
1.76079e-08
1.48616e-08
7.07764e-06
8.53246e-06
6.74865e-09
8.5364e-06
1.7437e-08
8.5419e-06
2.61893e-08
8.54817e-06
3.20322e-08
8.55485e-06
3.54481e-08
8.56172e-06
3.71557e-08
8.56854e-06
3.74777e-08
8.57519e-06
3.67412e-08
8.58155e-06
3.52272e-08
8.5876e-06
3.32093e-08
8.59331e-06
3.08173e-08
8.59864e-06
2.81924e-08
8.60358e-06
2.54057e-08
8.60807e-06
2.25742e-08
8.61213e-06
1.97521e-08
8.6157e-06
1.70305e-08
8.61886e-06
1.44605e-08
1.2101e-08
8.62154e-06
1.04008e-05
5.13368e-09
1.04048e-05
1.34689e-08
1.04106e-05
2.04255e-08
1.04174e-05
2.52116e-08
1.04248e-05
2.80723e-08
1.04324e-05
2.94737e-08
1.04401e-05
2.97786e-08
1.04477e-05
2.91688e-08
1.0455e-05
2.79346e-08
1.04619e-05
2.62188e-08
1.04685e-05
2.42287e-08
1.04747e-05
2.19983e-08
1.04804e-05
1.97022e-08
1.04856e-05
1.73256e-08
1.04903e-05
1.50225e-08
1.04946e-05
1.27648e-08
1.04984e-05
1.06778e-08
8.74378e-09
1.05017e-05
1.26784e-05
3.52296e-09
1.26824e-05
9.42498e-09
1.26885e-05
1.43662e-08
1.26958e-05
1.78684e-08
1.27039e-05
1.9956e-08
1.27124e-05
2.09736e-08
1.27211e-05
2.11413e-08
1.27296e-05
2.06485e-08
1.27379e-05
1.96398e-08
1.27458e-05
1.82932e-08
1.27533e-05
1.66878e-08
1.27603e-05
1.49616e-08
1.27668e-05
1.31306e-08
1.27729e-05
1.13114e-08
1.27784e-05
9.49555e-09
1.27834e-05
7.78657e-09
1.27879e-05
6.1474e-09
4.69734e-09
1.2792e-05
1.54548e-05
1.88491e-09
1.54591e-05
5.17975e-09
1.54655e-05
7.91567e-09
1.54735e-05
9.88858e-09
1.54824e-05
1.10342e-08
1.54918e-05
1.15274e-08
1.55015e-05
1.14999e-08
1.5511e-05
1.10566e-08
1.55204e-05
1.02868e-08
1.55294e-05
9.29432e-09
1.55379e-05
8.14497e-09
1.55459e-05
6.91035e-09
1.55534e-05
5.62683e-09
1.55604e-05
4.34763e-09
1.55668e-05
3.09521e-09
1.55727e-05
1.90887e-09
1.55781e-05
7.91983e-10
-2.0451e-10
1.55829e-05
1.88394e-05
1.54493e-10
1.88441e-05
4.7596e-10
1.88512e-05
7.64514e-10
1.88601e-05
9.84762e-10
1.88701e-05
1.01572e-09
1.88807e-05
8.76756e-10
1.88916e-05
5.9027e-10
1.89025e-05
1.69312e-10
1.89131e-05
-3.6135e-10
1.89234e-05
-9.72688e-10
1.89332e-05
-1.63919e-09
1.89424e-05
-2.33527e-09
1.89511e-05
-3.04043e-09
1.89591e-05
-3.73312e-09
1.89667e-05
-4.3975e-09
1.89735e-05
-5.01852e-09
1.898e-05
-5.59064e-09
-6.08577e-09
1.89858e-05
2.29654e-05
-1.87017e-09
2.2971e-05
-5.22324e-09
2.29796e-05
-7.80443e-09
2.29901e-05
-9.58813e-09
2.30019e-05
-1.08246e-08
2.30144e-05
-1.16491e-08
2.30272e-05
-1.222e-08
2.304e-05
-1.25767e-08
2.30524e-05
-1.28282e-08
2.30644e-05
-1.29736e-08
2.30759e-05
-1.30929e-08
2.30867e-05
-1.31589e-08
2.30969e-05
-1.32221e-08
2.31063e-05
-1.32472e-08
2.31153e-05
-1.32711e-08
2.31234e-05
-1.32602e-08
2.31312e-05
-1.32427e-08
-1.31772e-08
2.31382e-05
1.68124e-05
-3.57164e-09
1.68171e-05
-9.9886e-09
1.68241e-05
-1.47408e-08
1.68323e-05
-1.79289e-08
1.68415e-05
-1.99368e-08
1.68509e-05
-2.11931e-08
1.68606e-05
-2.18241e-08
1.687e-05
-2.20925e-08
1.68793e-05
-2.20094e-08
1.6888e-05
-2.18081e-08
1.68964e-05
-2.14361e-08
1.69042e-05
-2.1062e-08
1.69117e-05
-2.05947e-08
1.69185e-05
-2.01727e-08
1.6925e-05
-1.96921e-08
1.69309e-05
-1.92679e-08
1.69366e-05
-1.87962e-08
-1.83688e-08
1.69417e-05
1.46364e-05
-5.38829e-09
1.46414e-05
-1.50057e-08
1.46484e-05
-2.17829e-08
1.46565e-05
-2.60439e-08
1.46651e-05
-2.86289e-08
1.46741e-05
-3.00794e-08
1.46829e-05
-3.0719e-08
1.46915e-05
-3.07085e-08
1.46998e-05
-3.0319e-08
1.47077e-05
-2.96535e-08
1.4715e-05
-2.88691e-08
1.4722e-05
-2.7988e-08
1.47284e-05
-2.7098e-08
1.47345e-05
-2.61928e-08
1.47401e-05
-2.53255e-08
1.47454e-05
-2.44686e-08
1.47501e-05
-2.36631e-08
-2.28546e-08
1.47547e-05
1.27422e-05
-7.46406e-09
1.27478e-05
-2.05934e-08
1.27551e-05
-2.91548e-08
1.27632e-05
-3.41406e-08
1.27716e-05
-3.7034e-08
1.27801e-05
-3.85727e-08
1.27884e-05
-3.90288e-08
1.27963e-05
-3.87045e-08
1.28039e-05
-3.78849e-08
1.2811e-05
-3.6776e-08
1.28177e-05
-3.55224e-08
1.28238e-05
-3.41769e-08
1.28296e-05
-3.28479e-08
1.28349e-05
-3.15158e-08
1.28398e-05
-3.02702e-08
1.28444e-05
-2.90478e-08
1.28487e-05
-2.79193e-08
-2.68185e-08
1.28526e-05
1.10934e-05
-9.98574e-09
1.10998e-05
-2.69894e-08
1.11076e-05
-3.69578e-08
1.11157e-05
-4.22364e-08
1.11239e-05
-4.52529e-08
1.11321e-05
-4.672e-08
1.11399e-05
-4.68847e-08
1.11473e-05
-4.61399e-08
1.11543e-05
-4.48569e-08
1.11608e-05
-4.32836e-08
1.11668e-05
-4.15412e-08
1.11723e-05
-3.9761e-08
1.11775e-05
-3.79691e-08
1.11822e-05
-3.62746e-08
1.11866e-05
-3.46233e-08
1.11906e-05
-3.31035e-08
1.11944e-05
-3.16411e-08
-3.02928e-08
1.11978e-05
9.65844e-06
-1.32142e-08
9.66583e-06
-3.43876e-08
9.67402e-06
-4.51447e-08
9.68209e-06
-5.03102e-08
9.69014e-06
-5.33066e-08
9.69798e-06
-5.45749e-08
9.70542e-06
-5.43259e-08
9.71237e-06
-5.30953e-08
9.71883e-06
-5.13232e-08
9.72481e-06
-4.92606e-08
9.7303e-06
-4.70509e-08
9.73535e-06
-4.48132e-08
9.73996e-06
-4.26228e-08
9.7442e-06
-4.05216e-08
9.7481e-06
-3.85468e-08
9.75171e-06
-3.67016e-08
9.75504e-06
-3.49713e-08
-3.33843e-08
9.75813e-06
8.40967e-06
-1.75296e-08
8.41815e-06
-4.28766e-08
8.42654e-06
-5.3544e-08
8.43453e-06
-5.82925e-08
8.44243e-06
-6.12163e-08
8.45006e-06
-6.22011e-08
8.45719e-06
-6.14663e-08
8.46381e-06
-5.97131e-08
8.46992e-06
-5.74284e-08
8.47552e-06
-5.48609e-08
8.48063e-06
-5.21727e-08
8.48529e-06
-4.94868e-08
8.48953e-06
-4.68777e-08
8.49339e-06
-4.44034e-08
8.49693e-06
-4.20933e-08
8.5002e-06
-3.99531e-08
8.50317e-06
-3.79843e-08
-3.61469e-08
8.50595e-06
7.32307e-06
-2.33148e-08
7.33267e-06
-5.24856e-08
7.34114e-06
-6.20161e-08
7.34914e-06
-6.62988e-08
7.35713e-06
-6.92102e-08
7.36481e-06
-6.98816e-08
7.37198e-06
-6.86373e-08
7.3786e-06
-6.63325e-08
7.38467e-06
-6.34968e-08
7.39019e-06
-6.03841e-08
7.39517e-06
-5.7156e-08
7.39967e-06
-5.39965e-08
7.40371e-06
-5.09297e-08
7.40734e-06
-4.80488e-08
7.41063e-06
-4.53871e-08
7.41363e-06
-4.2947e-08
7.41636e-06
-4.073e-08
-3.87107e-08
7.41888e-06
6.37789e-06
-3.11429e-08
6.38857e-06
-6.31722e-08
6.3977e-06
-7.11483e-08
6.40687e-06
-7.54979e-08
6.41617e-06
-7.84964e-08
6.42501e-06
-7.87244e-08
6.43315e-06
-7.67789e-08
6.44054e-06
-7.3715e-08
6.44716e-06
-7.01155e-08
6.45302e-06
-6.62347e-08
6.45814e-06
-6.23272e-08
6.46264e-06
-5.84748e-08
6.46653e-06
-5.48206e-08
6.46988e-06
-5.14104e-08
6.47278e-06
-4.82823e-08
6.47529e-06
-4.54566e-08
6.47748e-06
-4.29267e-08
-4.07023e-08
6.4794e-06
5.55889e-06
-4.45692e-08
5.57376e-06
-7.80495e-08
5.58818e-06
-8.55869e-08
5.60351e-06
-9.08475e-08
5.618e-06
-9.29807e-08
5.63064e-06
-9.13591e-08
5.64122e-06
-8.73519e-08
5.64981e-06
-8.22985e-08
5.65656e-06
-7.68544e-08
5.66163e-06
-7.13346e-08
5.66522e-06
-6.59341e-08
5.66754e-06
-6.07915e-08
5.66872e-06
-5.59982e-08
5.66896e-06
-5.16442e-08
5.6684e-06
-4.77228e-08
5.66723e-06
-4.4269e-08
5.66558e-06
-4.13337e-08
-3.90077e-08
5.66387e-06
4.88652e-06
-1.03481e-07
4.93115e-06
-1.22693e-07
4.96269e-06
-1.17145e-07
4.98162e-06
-1.09805e-07
4.98928e-06
-1.00629e-07
4.98806e-06
-9.01295e-08
4.98059e-06
-7.9882e-08
4.9688e-06
-7.05014e-08
4.954e-06
-6.20484e-08
4.93711e-06
-5.44724e-08
4.91884e-06
-4.76824e-08
4.89966e-06
-4.16063e-08
4.87995e-06
-3.62786e-08
4.86001e-06
-3.17008e-08
4.84024e-06
-2.79467e-08
4.821e-06
-2.50323e-08
4.80241e-06
-2.27629e-08
-2.14051e-08
4.78475e-06
4.0992e-06
3.9765e-06
3.85935e-06
3.74955e-06
3.64892e-06
3.55879e-06
3.47891e-06
3.40841e-06
3.34636e-06
3.29188e-06
3.2442e-06
3.2026e-06
3.16632e-06
3.13462e-06
3.10667e-06
3.08164e-06
3.05886e-06
3.03746e-06
-7.75598e-09
7.91223e-09
-2.08548e-08
1.34833e-08
-3.56103e-08
1.49923e-08
-4.8397e-08
1.31701e-08
-5.47571e-08
6.53853e-09
-4.83756e-08
-5.94372e-09
-2.74789e-08
-2.08423e-08
6.72353e-09
-3.37446e-08
4.94769e-08
-4.27848e-08
9.69846e-08
-4.71348e-08
1.43991e-07
-4.70863e-08
1.88223e-07
-4.39288e-08
2.26871e-07
-3.87427e-08
2.59413e-07
-3.22817e-08
2.8441e-07
-2.51015e-08
3.02124e-07
-1.74814e-08
3.11593e-07
-9.58855e-09
3.13177e-07
-1.36737e-09
3.06038e-07
7.02378e-09
2.91013e-07
1.52337e-08
2.68091e-07
2.28071e-08
2.38888e-07
2.94107e-08
2.0419e-07
3.46003e-08
1.66433e-07
3.79659e-08
1.27332e-07
3.90347e-08
8.99848e-08
3.75392e-08
5.64538e-08
3.3452e-08
2.92949e-08
2.73134e-08
9.07409e-09
2.01497e-08
-4.02144e-09
1.31974e-08
-1.12887e-08
7.17864e-09
-1.29777e-08
1.76097e-09
-9.27044e-09
-3.81489e-09
1.356e-09
-1.05623e-08
2.02739e-08
-1.90605e-08
4.83559e-08
-2.80184e-08
8.162e-08
-3.33867e-08
1.14345e-07
-3.26506e-08
1.40715e-07
-2.64447e-08
1.57795e-07
-1.69961e-08
1.64937e-07
-7.15894e-09
1.64611e-07
4.27966e-10
1.59922e-07
4.6975e-09
1.54689e-07
5.37157e-09
1.51262e-07
3.36981e-09
1.46783e-07
4.70786e-09
1.32209e-07
1.43966e-08
1.01133e-07
3.13701e-08
4.54221e-08
5.5429e-08
-3.48794e-08
8.05721e-08
-1.34849e-07
9.97139e-08
-2.49361e-07
1.14715e-07
-3.76708e-07
1.27188e-07
-5.12836e-07
1.36267e-07
-6.539e-07
1.40913e-07
-7.95093e-07
1.41305e-07
-9.34223e-07
1.39013e-07
-1.06854e-06
1.34414e-07
-1.19587e-06
1.27203e-07
-1.31461e-06
1.18832e-07
-1.425e-06
1.10293e-07
-1.52631e-06
1.01382e-07
-1.61908e-06
9.26678e-08
-1.70396e-06
8.49329e-08
-1.78202e-06
7.79679e-08
-1.85383e-06
7.18702e-08
-1.92028e-06
6.63712e-08
-1.98175e-06
6.15372e-08
-2.03915e-06
5.7342e-08
-2.09278e-06
5.36937e-08
-2.14329e-06
5.04613e-08
-2.19085e-06
4.7631e-08
-2.23597e-06
4.50794e-08
-2.2787e-06
4.2801e-08
-2.31942e-06
4.0697e-08
-2.3581e-06
3.87758e-08
-2.39505e-06
3.69585e-08
-2.43021e-06
3.52587e-08
-2.46382e-06
3.36119e-08
-2.49578e-06
3.20442e-08
-2.52628e-06
3.04994e-08
-2.55522e-06
2.90043e-08
-2.58276e-06
2.75134e-08
-2.60877e-06
2.60588e-08
-2.63339e-06
2.46019e-08
-2.65651e-06
2.31677e-08
-2.67825e-06
2.17228e-08
-2.69855e-06
2.02888e-08
-2.7175e-06
1.88339e-08
-2.73505e-06
1.73581e-08
-2.75104e-06
1.58482e-08
-2.7654e-06
1.43093e-08
-2.77815e-06
1.27348e-08
-2.78927e-06
1.11347e-08
-2.79876e-06
9.50087e-09
-2.80659e-06
7.82768e-09
-2.81269e-06
6.10513e-09
-2.81703e-06
4.32219e-09
-2.81954e-06
2.49204e-09
-2.82026e-06
6.79925e-10
-2.81936e-06
-9.31118e-10
-2.81707e-06
-2.32167e-09
-2.81347e-06
-3.61793e-09
-2.80857e-06
-4.87095e-09
-2.80243e-06
-6.11418e-09
-2.79502e-06
-7.3423e-09
-2.7864e-06
-8.57784e-09
-2.77653e-06
-9.79812e-09
-2.76546e-06
-1.10273e-08
-2.75315e-06
-1.22332e-08
-2.73967e-06
-1.34467e-08
-2.72498e-06
-1.46298e-08
-2.70914e-06
-1.582e-08
-2.69211e-06
-1.69765e-08
-2.67396e-06
-1.8142e-08
-2.65465e-06
-1.92724e-08
-2.63425e-06
-2.04103e-08
-2.61273e-06
-2.15136e-08
-2.59017e-06
-2.26197e-08
-2.56651e-06
-2.36886e-08
-2.5418e-06
-2.47439e-08
-2.516e-06
-2.5756e-08
-2.48919e-06
-2.67628e-08
-2.46138e-06
-2.77354e-08
-2.43265e-06
-2.87174e-08
-2.40297e-06
-2.9667e-08
-2.3724e-06
-3.06177e-08
-2.34091e-06
-3.15322e-08
-2.30855e-06
-3.24417e-08
-2.27531e-06
-3.33219e-08
-2.24124e-06
-3.41855e-08
-2.20635e-06
-3.50113e-08
-2.17067e-06
-3.58132e-08
-2.13422e-06
-3.65913e-08
-2.09702e-06
-3.73235e-08
-2.05917e-06
-3.80018e-08
-2.02068e-06
-3.85904e-08
-1.98166e-06
-3.91034e-08
-1.94197e-06
-3.96561e-08
-1.90155e-06
-4.02954e-08
-1.86051e-06
-4.08594e-08
-1.81889e-06
-4.14094e-08
-1.77669e-06
-4.19699e-08
-1.73392e-06
-4.25393e-08
-1.69057e-06
-4.31099e-08
-1.64663e-06
-4.36874e-08
-1.60212e-06
-4.42651e-08
-1.55703e-06
-4.48517e-08
-1.51135e-06
-4.54395e-08
-1.46508e-06
-4.60351e-08
-1.41822e-06
-4.66327e-08
-1.37077e-06
-4.72319e-08
-1.32272e-06
-4.78297e-08
-1.27409e-06
-4.8422e-08
-1.22487e-06
-4.90066e-08
-1.17511e-06
-4.95817e-08
-1.12478e-06
-5.0149e-08
-1.07392e-06
-5.07076e-08
-1.02251e-06
-5.126e-08
-9.70588e-07
-5.18089e-08
-9.18137e-07
-5.23448e-08
-8.65178e-07
-5.28868e-08
-8.11698e-07
-5.34148e-08
-7.57729e-07
-5.39407e-08
-7.03253e-07
-5.44524e-08
-6.48316e-07
-5.49505e-08
-5.92909e-07
-5.54244e-08
-5.37088e-07
-5.58758e-08
-4.80848e-07
-5.62976e-08
-4.24252e-07
-5.66884e-08
-3.67305e-07
-5.70405e-08
-3.10086e-07
-5.73422e-08
-2.5265e-07
-5.75609e-08
-1.95151e-07
-5.76454e-08
-1.37762e-07
-5.75409e-08
-8.0886e-08
-5.70409e-08
-2.51208e-08
-5.59367e-08
2.79763e-08
-5.32513e-08
7.77053e-08
-4.98747e-08
-2.49567e-08
1.02577e-07
-3.39302e-09
1.1572e-08
-9.25209e-09
2.00316e-08
-1.26478e-08
1.88152e-08
-6.40834e-09
7.69674e-09
1.41909e-08
-1.37828e-08
4.97179e-08
-4.10346e-08
9.54335e-08
-6.65007e-08
1.46371e-07
-8.44333e-08
1.96874e-07
-9.32789e-08
2.44048e-07
-9.41071e-08
2.85927e-07
-8.89678e-08
3.22154e-07
-7.99776e-08
3.52192e-07
-6.87925e-08
3.76578e-07
-5.65075e-08
3.95253e-07
-4.38002e-08
4.0895e-07
-3.10345e-08
4.17718e-07
-1.83945e-08
4.22458e-07
-5.98403e-09
4.23206e-07
6.23033e-09
4.20188e-07
1.83643e-08
4.12611e-07
3.03407e-08
4.00187e-07
4.19256e-08
3.82099e-07
5.26582e-08
3.58263e-07
6.18903e-08
3.28481e-07
6.87938e-08
2.93594e-07
7.25021e-08
2.54737e-07
7.22825e-08
2.14295e-07
6.78359e-08
1.75005e-07
5.94058e-08
1.40569e-07
4.77144e-08
1.14133e-07
3.35528e-08
9.84802e-08
1.74896e-08
9.4759e-08
-1.80324e-10
1.02869e-07
-1.86123e-08
1.20742e-07
-3.70242e-08
1.43422e-07
-5.06421e-08
1.63783e-07
-5.3801e-08
1.76949e-07
-4.57491e-08
1.80959e-07
-3.04772e-08
1.76118e-07
-1.20649e-08
1.63287e-07
5.66044e-09
1.44769e-07
1.90741e-08
1.17381e-07
3.2015e-08
7.28025e-08
5.01133e-08
1.45585e-09
7.46021e-08
-1.00151e-07
1.06395e-07
-2.26853e-07
1.41026e-07
-3.69637e-07
1.74188e-07
-5.19562e-07
2.05311e-07
-6.71498e-07
2.32525e-07
-8.24585e-07
2.52777e-07
-9.75851e-07
2.66013e-07
-1.12156e-06
2.72878e-07
-1.2587e-06
2.73428e-07
-1.38542e-06
2.67607e-07
-1.50044e-06
2.56348e-07
-1.60299e-06
2.41538e-07
-1.69332e-06
2.24757e-07
-1.77307e-06
2.06933e-07
-1.84353e-06
1.89312e-07
-1.90598e-06
1.72727e-07
-1.96204e-06
1.57452e-07
-2.01311e-06
1.43713e-07
-2.05983e-06
1.31662e-07
-2.10302e-06
1.21141e-07
-2.14315e-06
1.12019e-07
-2.18086e-06
1.04066e-07
-2.21645e-06
9.71521e-08
-2.25023e-06
9.1115e-08
-2.28233e-06
8.58146e-08
-2.31298e-06
8.11014e-08
-2.34221e-06
7.68813e-08
-2.37017e-06
7.30416e-08
-2.39687e-06
6.9521e-08
-2.4224e-06
6.62379e-08
-2.44674e-06
6.31549e-08
-2.46997e-06
6.02125e-08
-2.49206e-06
5.73911e-08
-2.51308e-06
5.46473e-08
-2.53297e-06
5.19737e-08
-2.55179e-06
4.9337e-08
-2.5695e-06
4.67376e-08
-2.58614e-06
4.41505e-08
-2.60164e-06
4.1581e-08
-2.61604e-06
3.90103e-08
-2.6293e-06
3.64429e-08
-2.64143e-06
3.38628e-08
-2.65243e-06
3.12709e-08
-2.66235e-06
2.86583e-08
-2.67114e-06
2.60096e-08
-2.67871e-06
2.33274e-08
-2.68504e-06
2.06024e-08
-2.69016e-06
1.78486e-08
-2.69409e-06
1.50716e-08
-2.69686e-06
1.22851e-08
-2.69852e-06
9.49056e-09
-2.69912e-06
6.70605e-09
-2.69875e-06
3.94213e-09
-2.69751e-06
1.23747e-09
-2.69546e-06
-1.38875e-09
-2.69247e-06
-3.94628e-09
-2.68833e-06
-6.47941e-09
-2.68296e-06
-8.97684e-09
-2.67636e-06
-1.14465e-08
-2.66854e-06
-1.38935e-08
-2.65951e-06
-1.63277e-08
-2.64928e-06
-1.87526e-08
-2.63788e-06
-2.11665e-08
-2.62528e-06
-2.35684e-08
-2.61153e-06
-2.59514e-08
-2.59662e-06
-2.83174e-08
-2.58056e-06
-3.06578e-08
-2.56337e-06
-3.29785e-08
-2.54506e-06
-3.52709e-08
-2.52563e-06
-3.75434e-08
-2.50511e-06
-3.97857e-08
-2.4835e-06
-4.20065e-08
-2.46084e-06
-4.41992e-08
-2.43713e-06
-4.63659e-08
-2.41237e-06
-4.8489e-08
-2.38654e-06
-5.05695e-08
-2.35968e-06
-5.25963e-08
-2.3318e-06
-5.45893e-08
-2.30295e-06
-5.65454e-08
-2.27316e-06
-5.84837e-08
-2.24244e-06
-6.03841e-08
-2.21082e-06
-6.22581e-08
-2.17831e-06
-6.40835e-08
-2.14493e-06
-6.58744e-08
-2.1107e-06
-6.76121e-08
-2.07565e-06
-6.93071e-08
-2.0398e-06
-7.09415e-08
-2.00318e-06
-7.25293e-08
-1.96579e-06
-7.40588e-08
-1.92768e-06
-7.55264e-08
-1.88885e-06
-7.69147e-08
-1.84929e-06
-7.82257e-08
-1.80896e-06
-7.94472e-08
-1.76792e-06
-8.06542e-08
-1.72625e-06
-8.18464e-08
-1.68396e-06
-8.30076e-08
-1.64106e-06
-8.41481e-08
-1.59755e-06
-8.53198e-08
-1.55343e-06
-8.6483e-08
-1.5087e-06
-8.76703e-08
-1.46335e-06
-8.88465e-08
-1.4174e-06
-9.00469e-08
-1.37082e-06
-9.12397e-08
-1.32363e-06
-9.24587e-08
-1.27581e-06
-9.36704e-08
-1.22737e-06
-9.49068e-08
-1.1783e-06
-9.61292e-08
-1.1286e-06
-9.73642e-08
-1.07828e-06
-9.85744e-08
-1.02736e-06
-9.97802e-08
-9.75842e-07
-1.00955e-07
-9.23743e-07
-1.0212e-07
-8.71074e-07
-1.03258e-07
-8.17848e-07
-1.04383e-07
-7.64078e-07
-1.05493e-07
-7.0977e-07
-1.06582e-07
-6.54942e-07
-1.07665e-07
-5.99592e-07
-1.08727e-07
-5.43745e-07
-1.09774e-07
-4.87401e-07
-1.10793e-07
-4.30592e-07
-1.11782e-07
-3.73325e-07
-1.12722e-07
-3.15642e-07
-1.13618e-07
-2.57551e-07
-1.14452e-07
-1.99101e-07
-1.1523e-07
-1.4031e-07
-1.15925e-07
-8.12393e-08
-1.16532e-07
-2.19213e-08
-1.16996e-07
3.75538e-08
-1.17258e-07
9.70012e-08
-1.1712e-07
1.56062e-07
-1.16247e-07
2.14124e-07
-1.14134e-07
2.70526e-07
-1.09788e-07
3.21793e-07
-1.01262e-07
-7.43898e-08
3.71131e-07
3.76256e-10
1.14375e-08
3.80899e-09
1.72208e-08
1.67311e-08
6.25916e-09
4.78902e-08
-2.30771e-08
9.65066e-08
-6.22891e-08
1.53783e-07
-9.81085e-08
2.09518e-07
-1.22202e-07
2.58231e-07
-1.32988e-07
2.9779e-07
-1.32815e-07
3.28965e-07
-1.25139e-07
3.52976e-07
-1.12962e-07
3.71549e-07
-9.84167e-08
3.856e-07
-8.28351e-08
3.96184e-07
-6.69714e-08
4.0361e-07
-5.12288e-08
4.08488e-07
-3.58056e-08
4.10872e-07
-2.07946e-08
4.11224e-07
-6.24437e-09
4.09606e-07
7.82264e-09
4.06593e-07
2.14499e-08
4.02227e-07
3.46789e-08
3.96722e-07
4.74894e-08
3.89616e-07
5.97346e-08
3.80471e-07
7.10818e-08
3.68286e-07
8.09534e-08
3.52308e-07
8.85138e-08
3.31847e-07
9.27228e-08
3.07206e-07
9.25034e-08
2.79576e-07
8.70249e-08
2.5142e-07
7.58971e-08
2.2565e-07
5.93085e-08
2.05162e-07
3.80156e-08
1.91531e-07
1.34284e-08
1.85013e-07
-1.20542e-08
1.81319e-07
-3.33468e-08
1.73267e-07
-4.25458e-08
1.56637e-07
-3.71801e-08
1.31414e-07
-2.04707e-08
9.82607e-08
2.65972e-09
5.60181e-08
3.02446e-08
1.37599e-10
6.15199e-08
-7.57271e-08
9.49711e-08
-1.75107e-07
1.31377e-07
-2.964e-07
1.71414e-07
-4.34967e-07
2.13154e-07
-5.82314e-07
2.53744e-07
-7.31771e-07
2.90465e-07
-8.78583e-07
3.21005e-07
-1.01744e-06
3.44155e-07
-1.14451e-06
3.59603e-07
-1.25867e-06
3.66929e-07
-1.35933e-06
3.66689e-07
-1.44628e-06
3.59815e-07
-1.52024e-06
3.47396e-07
-1.58325e-06
3.30602e-07
-1.63773e-06
3.10838e-07
-1.68577e-06
2.89563e-07
-1.72899e-06
2.67978e-07
-1.769e-06
2.46941e-07
-1.8068e-06
2.27123e-07
-1.84298e-06
2.08909e-07
-1.87798e-06
1.92454e-07
-1.91203e-06
1.77772e-07
-1.94518e-06
1.64816e-07
-1.97746e-06
1.53429e-07
-2.00886e-06
1.43428e-07
-2.03941e-06
1.34618e-07
-2.06908e-06
1.26836e-07
-2.09787e-06
1.19918e-07
-2.12577e-06
1.13721e-07
-2.15278e-06
1.08112e-07
-2.17888e-06
1.02986e-07
-2.20408e-06
9.82437e-08
-2.22836e-06
9.38103e-08
-2.25173e-06
8.96167e-08
-2.27417e-06
8.56128e-08
-2.29569e-06
8.1749e-08
-2.31627e-06
7.79934e-08
-2.33592e-06
7.43125e-08
-2.35462e-06
7.06864e-08
-2.37236e-06
6.70917e-08
-2.38913e-06
6.35163e-08
-2.40492e-06
5.99448e-08
-2.4197e-06
5.63711e-08
-2.43347e-06
5.27843e-08
-2.44619e-06
4.91803e-08
-2.45787e-06
4.55512e-08
-2.4685e-06
4.18924e-08
-2.47811e-06
3.81986e-08
-2.48666e-06
3.44659e-08
-2.49409e-06
3.06857e-08
-2.50037e-06
2.68616e-08
-2.50552e-06
2.29992e-08
-2.50955e-06
1.91177e-08
-2.51249e-06
1.52249e-08
-2.51433e-06
1.13402e-08
-2.5151e-06
7.4688e-09
-2.51479e-06
3.63463e-09
-2.51341e-06
-1.58809e-10
-2.5109e-06
-3.90235e-09
-2.50724e-06
-7.62103e-09
-2.5024e-06
-1.13198e-08
-2.49636e-06
-1.49904e-08
-2.48915e-06
-1.86325e-08
-2.48075e-06
-2.2246e-08
-2.4712e-06
-2.5842e-08
-2.46049e-06
-2.94149e-08
-2.44865e-06
-3.29717e-08
-2.43568e-06
-3.64998e-08
-2.4216e-06
-4.0006e-08
-2.4064e-06
-4.34769e-08
-2.39012e-06
-4.69213e-08
-2.37273e-06
-5.03271e-08
-2.35429e-06
-5.37042e-08
-2.33477e-06
-5.70414e-08
-2.3142e-06
-6.03474e-08
-2.29259e-06
-6.3615e-08
-2.26996e-06
-6.68518e-08
-2.2463e-06
-7.00444e-08
-2.22163e-06
-7.3186e-08
-2.19593e-06
-7.62635e-08
-2.16922e-06
-7.92794e-08
-2.14153e-06
-8.22378e-08
-2.11289e-06
-8.51544e-08
-2.08332e-06
-8.80265e-08
-2.05286e-06
-9.08535e-08
-2.0215e-06
-9.36256e-08
-1.98928e-06
-9.63386e-08
-1.9562e-06
-9.89865e-08
-1.9223e-06
-1.01565e-07
-1.88759e-06
-1.04072e-07
-1.85209e-06
-1.06503e-07
-1.81582e-06
-1.0886e-07
-1.77881e-06
-1.11139e-07
-1.74107e-06
-1.13332e-07
-1.70262e-06
-1.15431e-07
-1.66347e-06
-1.17434e-07
-1.62359e-06
-1.1934e-07
-1.58303e-06
-1.21186e-07
-1.54183e-06
-1.22993e-07
-1.49999e-06
-1.24766e-07
-1.45753e-06
-1.26538e-07
-1.41444e-06
-1.28326e-07
-1.37074e-06
-1.30125e-07
-1.3264e-06
-1.31933e-07
-1.28144e-06
-1.3375e-07
-1.23584e-06
-1.35578e-07
-1.18961e-06
-1.37417e-07
-1.14274e-06
-1.39271e-07
-1.09523e-06
-1.41136e-07
-1.04707e-06
-1.43014e-07
-9.98268e-07
-1.44893e-07
-9.4882e-07
-1.46767e-07
-8.98739e-07
-1.48623e-07
-8.48032e-07
-1.50449e-07
-7.96716e-07
-1.52244e-07
-7.44806e-07
-1.54001e-07
-6.92317e-07
-1.55727e-07
-6.39266e-07
-1.57415e-07
-5.85668e-07
-1.5908e-07
-5.31535e-07
-1.60704e-07
-4.76888e-07
-1.62308e-07
-4.21735e-07
-1.63875e-07
-3.66098e-07
-1.65413e-07
-3.09988e-07
-1.66904e-07
-2.53431e-07
-1.68345e-07
-1.96445e-07
-1.69713e-07
-1.39062e-07
-1.7101e-07
-8.13036e-08
-1.72218e-07
-2.32005e-08
-1.73342e-07
3.52242e-08
-1.74357e-07
9.3921e-08
-1.75235e-07
1.52821e-07
-1.759e-07
2.11805e-07
-1.76243e-07
2.70705e-07
-1.76021e-07
3.29287e-07
-1.74828e-07
3.87171e-07
-1.72021e-07
4.43869e-07
-1.66486e-07
4.98441e-07
-1.55833e-07
-1.30255e-07
5.54321e-07
-2.00561e-10
1.18544e-08
1.15177e-08
5.99663e-09
4.83258e-08
-3.03541e-08
1.08189e-07
-8.27202e-08
1.74269e-07
-1.28318e-07
2.3226e-07
-1.55954e-07
2.75837e-07
-1.65746e-07
3.05694e-07
-1.62714e-07
3.2497e-07
-1.52066e-07
3.37433e-07
-1.37477e-07
3.45552e-07
-1.2106e-07
3.51161e-07
-1.0391e-07
3.54916e-07
-8.6577e-08
3.57396e-07
-6.9347e-08
3.5855e-07
-5.238e-08
3.58613e-07
-3.57772e-08
3.57423e-07
-1.96126e-08
3.55202e-07
-3.94671e-09
3.51842e-07
1.11632e-08
3.4766e-07
2.56937e-08
3.42697e-07
3.96164e-08
3.37339e-07
5.28932e-08
3.31598e-07
6.54475e-08
3.25604e-07
7.71081e-08
3.18968e-07
8.75597e-08
3.11261e-07
9.62441e-08
3.01637e-07
1.02322e-07
2.89474e-07
1.04688e-07
2.7436e-07
1.02122e-07
2.56647e-07
9.36378e-08
2.37307e-07
7.86403e-08
2.1787e-07
5.74851e-08
1.98941e-07
3.23506e-08
1.77609e-07
9.32304e-09
1.46833e-07
-2.58808e-09
1.03956e-07
3.81703e-10
5.01195e-08
1.6642e-08
-1.47834e-08
4.44688e-08
-9.36883e-08
8.1553e-08
-1.88217e-07
1.24788e-07
-2.98145e-07
1.71439e-07
-4.21994e-07
2.18824e-07
-5.5585e-07
2.65225e-07
-6.93716e-07
3.09287e-07
-8.29796e-07
3.49229e-07
-9.58561e-07
3.82516e-07
-1.07547e-06
4.07369e-07
-1.17829e-06
4.23832e-07
-1.26623e-06
4.3209e-07
-1.33936e-06
4.32738e-07
-1.39919e-06
4.26751e-07
-1.44774e-06
4.15245e-07
-1.48739e-06
3.99445e-07
-1.52053e-06
3.80543e-07
-1.54956e-06
3.59617e-07
-1.57641e-06
3.37682e-07
-1.60247e-06
3.15617e-07
-1.62858e-06
2.94087e-07
-1.65522e-06
2.73581e-07
-1.68253e-06
2.54434e-07
-1.71044e-06
2.36826e-07
-1.7388e-06
2.20825e-07
-1.76742e-06
2.06396e-07
-1.79607e-06
1.93472e-07
-1.82456e-06
1.81932e-07
-1.85274e-06
1.71624e-07
-1.8805e-06
1.6239e-07
-1.90774e-06
1.54086e-07
-1.93438e-06
1.4657e-07
-1.96037e-06
1.39714e-07
-1.98566e-06
1.33404e-07
-2.01021e-06
1.2754e-07
-2.03399e-06
1.22032e-07
-2.05699e-06
1.16809e-07
-2.07918e-06
1.11808e-07
-2.10053e-06
1.06976e-07
-2.12105e-06
1.0227e-07
-2.1407e-06
9.76545e-08
-2.15948e-06
9.31002e-08
-2.17737e-06
8.85835e-08
-2.19435e-06
8.40839e-08
-2.21042e-06
7.95859e-08
-2.22554e-06
7.50761e-08
-2.23971e-06
7.05446e-08
-2.2529e-06
6.59828e-08
-2.2651e-06
6.13842e-08
-2.27628e-06
5.67424e-08
-2.28644e-06
5.20534e-08
-2.29561e-06
4.73142e-08
-2.30374e-06
4.25212e-08
-2.31078e-06
3.76737e-08
-2.31671e-06
3.27702e-08
-2.32153e-06
2.78217e-08
-2.32526e-06
2.28443e-08
-2.32787e-06
1.7852e-08
-2.32939e-06
1.28612e-08
-2.3298e-06
7.88014e-09
-2.3291e-06
2.92541e-09
-2.32726e-06
-2.00296e-09
-2.32427e-06
-6.89767e-09
-2.32012e-06
-1.17691e-08
-2.31481e-06
-1.66124e-08
-2.30835e-06
-2.14226e-08
-2.30074e-06
-2.61982e-08
-2.29201e-06
-3.09396e-08
-2.28216e-06
-3.56534e-08
-2.2712e-06
-4.03339e-08
-2.25916e-06
-4.49863e-08
-2.24603e-06
-4.95988e-08
-2.23183e-06
-5.41791e-08
-2.21657e-06
-5.87129e-08
-2.20025e-06
-6.32124e-08
-2.1829e-06
-6.76622e-08
-2.16451e-06
-7.20767e-08
-2.1451e-06
-7.64395e-08
-2.12468e-06
-8.07656e-08
-2.10325e-06
-8.5044e-08
-2.08084e-06
-8.92846e-08
-2.05744e-06